/*--------------------------------*- C++ -*----------------------------------*\
| =========                 |                                                 |
| \\      /  F ield         | OpenFOAM: The Open Source CFD Toolbox           |
|  \\    /   O peration     | Version:  2.4.0                                 |
|   \\  /    A nd           | Web:      www.OpenFOAM.org                      |
|    \\/     M anipulation  |                                                 |
\*---------------------------------------------------------------------------*/
FoamFile
{
    version     2.0;
    format      ascii;
    class       volScalarField;
    location    "38";
    object      p;
}
// * * * * * * * * * * * * * * * * * * * * * * * * * * * * * * * * * * * * * //

dimensions      [0 2 -2 0 0 0 0];

internalField   nonuniform List<scalar> 
4400
(
-0.110095
-0.10647
-0.0957442
-0.10687
-0.110945
-0.108032
-0.113661
-0.112667
-0.109345
-0.108886
-0.114314
-0.117195
-0.113269
-0.118595
-0.118987
-0.115171
-0.12186
-0.123533
-0.120135
-0.128048
-0.110149
-0.106738
-0.0954404
-0.106844
-0.111293
-0.107811
-0.113742
-0.112805
-0.109286
-0.10876
-0.114319
-0.117442
-0.113104
-0.118607
-0.119173
-0.114942
-0.121895
-0.123755
-0.119871
-0.127882
-0.110264
-0.106965
-0.0950585
-0.106992
-0.111592
-0.10752
-0.113879
-0.112937
-0.109227
-0.108635
-0.114355
-0.117671
-0.112859
-0.118673
-0.119343
-0.114649
-0.121958
-0.123977
-0.119452
-0.127664
-0.110325
-0.107031
-0.0948656
-0.107301
-0.111742
-0.107195
-0.113974
-0.113004
-0.109236
-0.108585
-0.114389
-0.117819
-0.112602
-0.11876
-0.119418
-0.1144
-0.122001
-0.124061
-0.119004
-0.127196
-0.110247
-0.106967
-0.0950705
-0.107739
-0.111662
-0.106938
-0.11394
-0.112966
-0.109368
-0.108674
-0.114404
-0.117824
-0.112404
-0.118828
-0.119356
-0.114293
-0.121996
-0.123883
-0.118729
-0.126472
-0.109953
-0.106964
-0.0958769
-0.108257
-0.111404
-0.10683
-0.11373
-0.112814
-0.109641
-0.108928
-0.114384
-0.117699
-0.112339
-0.118825
-0.119199
-0.114381
-0.121925
-0.123434
-0.118678
-0.125568
-0.109371
-0.10713
-0.0974703
-0.10873
-0.111018
-0.106959
-0.113304
-0.112544
-0.110034
-0.109298
-0.114309
-0.117446
-0.112491
-0.118672
-0.118978
-0.114731
-0.121737
-0.12274
-0.118882
-0.124576
-0.108469
-0.107374
-0.0998711
-0.109019
-0.110497
-0.107365
-0.112656
-0.112172
-0.110506
-0.109977
-0.114173
-0.117018
-0.112915
-0.118326
-0.118688
-0.115377
-0.121366
-0.121861
-0.11932
-0.123535
-0.107245
-0.107539
-0.102935
-0.109033
-0.10984
-0.108015
-0.111747
-0.111722
-0.111016
-0.110849
-0.113974
-0.116371
-0.113618
-0.117787
-0.118302
-0.116312
-0.120772
-0.120886
-0.119925
-0.122458
-0.105741
-0.107472
-0.106407
-0.108765
-0.109036
-0.108808
-0.110634
-0.111219
-0.111529
-0.111858
-0.113724
-0.115515
-0.114549
-0.117088
-0.117791
-0.117466
-0.119965
-0.119894
-0.12061
-0.121346
-0.104077
-0.107095
-0.10994
-0.108273
-0.108095
-0.109593
-0.109398
-0.110686
-0.11202
-0.11292
-0.113433
-0.114516
-0.115593
-0.116291
-0.117156
-0.118705
-0.119003
-0.118952
-0.12128
-0.120222
-0.102437
-0.106442
-0.11314
-0.107682
-0.107091
-0.110219
-0.108145
-0.110143
-0.112473
-0.113948
-0.113128
-0.113477
-0.116596
-0.115488
-0.116448
-0.119861
-0.117988
-0.118118
-0.121809
-0.119134
-0.101028
-0.105637
-0.115677
-0.107157
-0.106133
-0.11059
-0.106992
-0.109623
-0.112882
-0.114867
-0.112853
-0.112513
-0.117404
-0.114776
-0.115758
-0.120788
-0.117048
-0.11742
-0.122133
-0.11817
-0.100001
-0.104834
-0.117386
-0.106824
-0.105319
-0.110712
-0.105996
-0.109154
-0.113245
-0.115625
-0.112651
-0.111719
-0.117926
-0.114238
-0.115175
-0.1214
-0.1163
-0.116861
-0.122231
-0.117419
-0.0994021
-0.104184
-0.11833
-0.106736
-0.104721
-0.110663
-0.105505
-0.108768
-0.113544
-0.116181
-0.112547
-0.111152
-0.118151
-0.113915
-0.114753
-0.121694
-0.115816
-0.11644
-0.122126
-0.116917
-0.0991561
-0.103774
-0.118697
-0.106869
-0.104373
-0.110505
-0.105296
-0.108499
-0.113752
-0.116518
-0.112523
-0.110835
-0.118136
-0.113788
-0.114511
-0.121718
-0.115598
-0.116159
-0.121898
-0.116653
-0.0991137
-0.103623
-0.118643
-0.107083
-0.104282
-0.110277
-0.105302
-0.108361
-0.11385
-0.116595
-0.112536
-0.110755
-0.117957
-0.113792
-0.114444
-0.121551
-0.115577
-0.116025
-0.121592
-0.116558
-0.0991485
-0.103692
-0.118253
-0.107196
-0.104415
-0.109982
-0.10543
-0.108349
-0.113842
-0.116464
-0.112556
-0.110861
-0.117689
-0.113844
-0.114524
-0.121252
-0.115644
-0.116039
-0.12126
-0.116555
-0.0991932
-0.103915
-0.117715
-0.107135
-0.10468
-0.109689
-0.105578
-0.108424
-0.113775
-0.1163
-0.112571
-0.111071
-0.117417
-0.113879
-0.114699
-0.120925
-0.115714
-0.116165
-0.120957
-0.116574
-0.0992066
-0.104168
-0.117354
-0.106971
-0.104988
-0.109471
-0.105664
-0.108537
-0.113714
-0.116173
-0.112559
-0.111326
-0.11725
-0.113862
-0.114881
-0.1207
-0.115724
-0.116325
-0.120765
-0.116579
-0.126933
-0.123886
-0.120318
-0.11499
-0.137658
-0.156882
-0.149154
-0.152845
-0.135457
-0.114076
-0.151344
-0.117986
-0.0664565
-0.100436
-0.133533
-0.147228
-0.150183
-0.102161
-0.051448
-0.0697551
-0.158301
-0.227882
-0.251208
-0.227779
-0.154626
-0.05861
-0.0356619
-0.0836374
-0.109912
-0.103638
-0.0841986
-0.0484076
-0.013097
0.00229595
-0.000729475
-0.0134284
-0.0306534
-0.0450882
-0.0468
-0.0339445
-0.0176177
-0.0060877
0.0015737
0.00777265
0.0123928
0.0152365
0.0168082
0.017606
0.0179284
0.0179645
0.0178371
0.0176208
0.0173575
0.0170693
0.0167678
0.0164585
0.0161444
0.0158269
0.0155065
0.0151836
0.0148583
0.0145307
0.0142007
0.0138685
0.0135338
0.0131968
0.0128574
0.0125156
0.0121715
0.0118248
0.0114759
0.0111243
0.0107705
0.010414
0.0100551
0.00969364
0.00932967
0.00896317
0.00859397
0.00822237
0.00784796
0.00747107
0.00709146
0.00670916
0.00632428
0.00593655
0.00554621
0.00515309
0.00475718
0.00435856
0.00395706
0.00355278
0.00314567
0.00273566
0.0023228
0.00190704
0.00148834
0.00106671
0.00064212
0.000214538
-0.127208
-0.122722
-0.120161
-0.115328
-0.136844
-0.157565
-0.148911
-0.151079
-0.13624
-0.111674
-0.146441
-0.123286
-0.0720217
-0.0977188
-0.129462
-0.137221
-0.132416
-0.0857615
-0.0425894
-0.0676839
-0.164017
-0.236203
-0.259355
-0.235706
-0.15561
-0.0440714
-0.0197977
-0.0770018
-0.112071
-0.11035
-0.0916451
-0.052844
-0.0139736
0.00340861
0.000807832
-0.0117861
-0.028812
-0.043191
-0.0450865
-0.033212
-0.0183277
-0.00781704
-0.000139568
0.00662734
0.0117637
0.0149202
0.0166636
0.0175504
0.0179146
0.0179666
0.0178435
0.0176268
0.0173618
0.0170721
0.0167694
0.0164594
0.0161448
0.0158271
0.0155065
0.0151836
0.0148583
0.0145307
0.0142007
0.0138685
0.0135338
0.0131968
0.0128574
0.0125156
0.0121715
0.0118248
0.0114759
0.0111243
0.0107705
0.010414
0.0100551
0.00969364
0.00932967
0.00896316
0.00859398
0.00822236
0.00784796
0.00747107
0.00709146
0.00670917
0.00632427
0.00593655
0.00554622
0.00515309
0.00475718
0.00435856
0.00395706
0.00355278
0.00314567
0.00273565
0.0023228
0.00190704
0.00148834
0.00106671
0.000642122
0.000214538
-0.127293
-0.121337
-0.12071
-0.116118
-0.135522
-0.157777
-0.148044
-0.148196
-0.137292
-0.110206
-0.140524
-0.127495
-0.0782185
-0.096124
-0.125205
-0.126749
-0.115044
-0.0701316
-0.0336106
-0.0647793
-0.168032
-0.243451
-0.266897
-0.242784
-0.155281
-0.0303323
-0.00618869
-0.0716488
-0.114189
-0.116982
-0.0983854
-0.0566474
-0.014455
0.00485318
0.00267786
-0.00980518
-0.0266274
-0.040895
-0.0430196
-0.0323159
-0.0191329
-0.00976197
-0.00200798
0.00541857
0.0111207
0.0146069
0.0165254
0.0175004
0.0179043
0.017971
0.0178511
0.0176335
0.0173666
0.0170751
0.0167711
0.0164603
0.0161453
0.0158273
0.0155066
0.0151837
0.0148583
0.0145307
0.0142007
0.0138685
0.0135338
0.0131968
0.0128574
0.0125156
0.0121715
0.0118248
0.0114759
0.0111243
0.0107705
0.010414
0.0100551
0.00969364
0.00932967
0.00896316
0.00859398
0.00822236
0.00784796
0.00747107
0.00709146
0.00670917
0.00632427
0.00593655
0.00554622
0.00515309
0.00475718
0.00435856
0.00395706
0.00355278
0.00314568
0.00273565
0.0023228
0.00190704
0.00148834
0.00106671
0.000642122
0.000214538
-0.127298
-0.119998
-0.121451
-0.117186
-0.133135
-0.15689
-0.146854
-0.144665
-0.1381
-0.109903
-0.13434
-0.130056
-0.0849316
-0.0959989
-0.120765
-0.116166
-0.0988376
-0.0559103
-0.0250533
-0.0613281
-0.170292
-0.249631
-0.274025
-0.248985
-0.153857
-0.0180476
0.00487663
-0.0676651
-0.116236
-0.122576
-0.104278
-0.0596962
-0.014465
0.00666215
0.00489716
-0.0074678
-0.0241079
-0.0382557
-0.0406185
-0.0312695
-0.0200387
-0.011914
-0.00401524
0.00415742
0.0104705
0.0143008
0.016396
0.0174567
0.0178979
0.0179776
0.01786
0.0176409
0.0173717
0.0170783
0.0167729
0.0164613
0.0161458
0.0158275
0.0155067
0.0151837
0.0148583
0.0145307
0.0142007
0.0138685
0.0135338
0.0131968
0.0128574
0.0125156
0.0121715
0.0118248
0.0114759
0.0111243
0.0107705
0.010414
0.0100551
0.00969364
0.00932967
0.00896317
0.00859398
0.00822236
0.00784796
0.00747107
0.00709146
0.00670917
0.00632427
0.00593655
0.00554622
0.00515309
0.00475718
0.00435856
0.00395706
0.00355278
0.00314568
0.00273566
0.0023228
0.00190704
0.00148834
0.00106671
0.000642122
0.000214538
-0.12713
-0.119001
-0.12195
-0.118419
-0.130547
-0.154568
-0.14544
-0.140973
-0.138173
-0.110761
-0.128625
-0.130748
-0.0918785
-0.0974644
-0.116308
-0.105866
-0.0844284
-0.0436804
-0.0174402
-0.0575202
-0.170747
-0.254479
-0.280443
-0.254098
-0.151507
-0.00770052
0.0132647
-0.0650458
-0.118194
-0.127456
-0.109213
-0.0618953
-0.0139395
0.0088539
0.00747198
-0.00477091
-0.0212767
-0.0352749
-0.0379127
-0.0300861
-0.0210404
-0.014248
-0.00613291
0.00286037
0.00981665
0.0140068
0.0162774
0.0174204
0.0178959
0.0179867
0.0178703
0.017649
0.0173772
0.0170816
0.0167749
0.0164623
0.0161463
0.0158277
0.0155068
0.0151837
0.0148583
0.0145307
0.0142007
0.0138685
0.0135338
0.0131968
0.0128574
0.0125156
0.0121715
0.0118248
0.0114759
0.0111243
0.0107705
0.010414
0.0100551
0.00969364
0.00932967
0.00896317
0.00859398
0.00822236
0.00784796
0.00747107
0.00709146
0.00670916
0.00632427
0.00593655
0.00554622
0.00515309
0.00475718
0.00435856
0.00395706
0.00355278
0.00314568
0.00273566
0.0023228
0.00190704
0.00148834
0.00106671
0.000642121
0.000214538
-0.126655
-0.118527
-0.122002
-0.119467
-0.128122
-0.150881
-0.143734
-0.137555
-0.137302
-0.112502
-0.123823
-0.129621
-0.0987192
-0.100441
-0.112028
-0.096246
-0.0723082
-0.0338837
-0.011254
-0.0535911
-0.16946
-0.25743
-0.284844
-0.257708
-0.148362
0.000411118
0.0189052
-0.0637212
-0.120039
-0.131551
-0.113105
-0.0631806
-0.0128353
0.0114301
0.0103966
-0.00172866
-0.0181662
-0.0319741
-0.0349424
-0.0287772
-0.022119
-0.0167175
-0.0083188
0.00154999
0.0091786
0.0137285
0.0161716
0.0173923
0.0178986
0.0179985
0.017882
0.0176578
0.017383
0.0170852
0.0167768
0.0164634
0.0161468
0.015828
0.0155069
0.0151838
0.0148583
0.0145307
0.0142007
0.0138685
0.0135338
0.0131968
0.0128574
0.0125156
0.0121715
0.0118248
0.0114759
0.0111243
0.0107705
0.010414
0.0100551
0.00969364
0.00932967
0.00896317
0.00859398
0.00822236
0.00784796
0.00747107
0.00709146
0.00670916
0.00632427
0.00593655
0.00554622
0.00515309
0.00475718
0.00435856
0.00395706
0.00355278
0.00314567
0.00273566
0.0023228
0.00190704
0.00148834
0.00106671
0.000642121
0.000214538
-0.125759
-0.11854
-0.12158
-0.120098
-0.126076
-0.146163
-0.141613
-0.134632
-0.135539
-0.114694
-0.12011
-0.126987
-0.105071
-0.10463
-0.10812
-0.0876988
-0.0627765
-0.0268048
-0.00692006
-0.049911
-0.166651
-0.25789
-0.286814
-0.259255
-0.144592
0.00613706
0.0214579
-0.0635744
-0.121714
-0.134775
-0.115893
-0.0635132
-0.0111299
0.0143793
0.0136543
0.00162532
-0.0148142
-0.0283894
-0.0317576
-0.0273529
-0.0232385
-0.0192518
-0.0105147
0.000247221
0.00856274
0.0134703
0.0160807
0.0173734
0.0179065
0.0180129
0.0178951
0.0176674
0.0173892
0.0170888
0.0167789
0.0164644
0.0161473
0.0158282
0.015507
0.0151838
0.0148583
0.0145307
0.0142007
0.0138685
0.0135338
0.0131968
0.0128574
0.0125156
0.0121715
0.0118248
0.0114759
0.0111243
0.0107705
0.010414
0.0100551
0.00969364
0.00932967
0.00896317
0.00859398
0.00822236
0.00784796
0.00747107
0.00709146
0.00670916
0.00632427
0.00593655
0.00554622
0.00515309
0.00475718
0.00435856
0.00395706
0.00355278
0.00314567
0.00273566
0.0023228
0.00190704
0.00148834
0.00106671
0.000642121
0.000214538
-0.124458
-0.118888
-0.120832
-0.120136
-0.124403
-0.140861
-0.138978
-0.132266
-0.133146
-0.116882
-0.117466
-0.123337
-0.110557
-0.109551
-0.104755
-0.080572
-0.0559158
-0.0225299
-0.0047532
-0.0468976
-0.162482
-0.255589
-0.285677
-0.258178
-0.140427
0.0094034
0.0212813
-0.0644163
-0.123134
-0.13705
-0.117545
-0.0628862
-0.00882702
0.0176647
0.017216
0.00523578
-0.0112667
-0.0245714
-0.0284125
-0.0258224
-0.0243447
-0.0217564
-0.0126479
-0.000998234
0.00798101
0.013237
0.0160063
0.017364
0.0179194
0.01803
0.0179095
0.0176776
0.0173957
0.0170927
0.016781
0.0164655
0.0161478
0.0158284
0.0155071
0.0151838
0.0148583
0.0145307
0.0142007
0.0138685
0.0135338
0.0131968
0.0128574
0.0125156
0.0121715
0.0118248
0.0114759
0.0111243
0.0107705
0.010414
0.0100551
0.00969364
0.00932967
0.00896317
0.00859398
0.00822236
0.00784796
0.00747107
0.00709146
0.00670916
0.00632427
0.00593655
0.00554622
0.00515309
0.00475718
0.00435856
0.00395706
0.00355278
0.00314567
0.00273566
0.0023228
0.00190704
0.00148834
0.00106671
0.000642121
0.000214538
-0.122887
-0.119394
-0.11991
-0.119583
-0.123009
-0.135406
-0.135846
-0.130387
-0.130455
-0.118695
-0.11571
-0.119237
-0.114896
-0.114633
-0.102003
-0.0751315
-0.0516119
-0.0208883
-0.00487363
-0.0449038
-0.15707
-0.250534
-0.28124
-0.254128
-0.136122
0.0102026
0.0185583
-0.0659762
-0.124212
-0.138322
-0.118068
-0.0613289
-0.00596109
0.0212329
0.0210458
0.00902357
-0.00757173
-0.0205863
-0.0249588
-0.0241955
-0.0253671
-0.0241167
-0.0146371
-0.0021566
0.00744663
0.0130329
0.0159492
0.0173643
0.0179374
0.0180496
0.0179252
0.0176884
0.0174024
0.0170966
0.0167831
0.0164666
0.0161483
0.0158286
0.0155072
0.0151838
0.0148583
0.0145307
0.0142007
0.0138684
0.0135338
0.0131968
0.0128574
0.0125156
0.0121715
0.0118248
0.0114759
0.0111243
0.0107705
0.010414
0.0100551
0.00969364
0.00932967
0.00896317
0.00859398
0.00822236
0.00784796
0.00747107
0.00709146
0.00670916
0.00632427
0.00593655
0.00554622
0.00515309
0.00475718
0.00435856
0.00395706
0.00355278
0.00314567
0.00273566
0.0023228
0.00190704
0.00148834
0.00106671
0.000642121
0.000214538
-0.121242
-0.119887
-0.118915
-0.118586
-0.121761
-0.130163
-0.132365
-0.128864
-0.127776
-0.119906
-0.114611
-0.115277
-0.117969
-0.11929
-0.100106
-0.0715055
-0.0496042
-0.0215094
-0.0071554
-0.0440784
-0.151019
-0.242634
-0.274158
-0.247268
-0.131709
0.00865611
0.0138907
-0.067943
-0.124892
-0.138599
-0.117522
-0.0589123
-0.00259033
0.0250255
0.0250904
0.0128901
-0.00377441
-0.0165227
-0.021443
-0.0224843
-0.0262236
-0.0262084
-0.0164005
-0.00319271
0.00697182
0.0128607
0.0159097
0.0173736
0.0179598
0.0180713
0.0179418
0.0176996
0.0174093
0.0171005
0.0167852
0.0164676
0.0161488
0.0158288
0.0155072
0.0151839
0.0148583
0.0145307
0.0142007
0.0138684
0.0135338
0.0131968
0.0128574
0.0125156
0.0121715
0.0118248
0.0114759
0.0111243
0.0107705
0.010414
0.0100551
0.00969364
0.00932967
0.00896317
0.00859398
0.00822236
0.00784796
0.00747107
0.00709146
0.00670916
0.00632427
0.00593655
0.00554622
0.00515309
0.00475718
0.00435856
0.00395706
0.00355278
0.00314567
0.00273566
0.0023228
0.00190704
0.00148834
0.00106671
0.000642121
0.000214539
-0.1197
-0.120238
-0.117918
-0.117367
-0.120535
-0.125414
-0.12878
-0.127554
-0.125348
-0.120453
-0.113949
-0.111959
-0.119886
-0.12305
-0.0991342
-0.0697085
-0.0494391
-0.0239452
-0.0112897
-0.0443883
-0.14405
-0.232816
-0.265331
-0.238456
-0.12692
0.00513245
0.00798223
-0.0700235
-0.125118
-0.137954
-0.116004
-0.0557454
0.00118884
0.0289715
0.0292669
0.0167371
7.83507e-05
-0.0124895
-0.0179116
-0.0207087
-0.026832
-0.0279152
-0.0178964
-0.00407586
0.00656651
0.0127217
0.0158866
0.0173908
0.0179858
0.0180944
0.0179589
0.0177109
0.0174161
0.0171043
0.0167872
0.0164686
0.0161493
0.015829
0.0155073
0.0151839
0.0148583
0.0145307
0.0142007
0.0138684
0.0135338
0.0131968
0.0128574
0.0125156
0.0121715
0.0118248
0.0114759
0.0111243
0.0107705
0.010414
0.0100551
0.00969364
0.00932967
0.00896317
0.00859398
0.00822236
0.00784796
0.00747107
0.00709146
0.00670916
0.00632427
0.00593655
0.00554622
0.00515309
0.00475718
0.00435856
0.00395706
0.00355278
0.00314567
0.00273566
0.0023228
0.00190704
0.00148834
0.00106671
0.000642121
0.000214539
-0.118378
-0.120369
-0.116992
-0.11612
-0.119261
-0.121333
-0.12535
-0.126353
-0.123318
-0.120417
-0.113564
-0.109551
-0.120964
-0.125681
-0.0989151
-0.0695525
-0.0504603
-0.0273086
-0.0168487
-0.045552
-0.136051
-0.221649
-0.255529
-0.228572
-0.121357
-3.563e-05
0.00145145
-0.0719102
-0.12478
-0.136479
-0.113638
-0.0519807
0.00526553
0.0330087
0.0334671
0.0204858
0.00392463
-0.00860253
-0.0144277
-0.0189072
-0.02713
-0.0291512
-0.019002
-0.00478136
0.00623681
0.0126147
0.0158775
0.0174138
0.0180138
0.018118
0.0179758
0.0177218
0.0174226
0.0171079
0.016789
0.0164695
0.0161497
0.0158292
0.0155074
0.0151839
0.0148583
0.0145307
0.0142007
0.0138684
0.0135338
0.0131968
0.0128574
0.0125156
0.0121715
0.0118248
0.0114759
0.0111243
0.0107705
0.010414
0.0100551
0.00969364
0.00932967
0.00896317
0.00859398
0.00822236
0.00784796
0.00747107
0.00709146
0.00670916
0.00632427
0.00593655
0.00554622
0.00515309
0.00475718
0.00435856
0.00395706
0.00355278
0.00314567
0.00273566
0.0023228
0.00190704
0.00148834
0.00106671
0.000642121
0.000214539
-0.11732
-0.120256
-0.116196
-0.114968
-0.117961
-0.118012
-0.122277
-0.125199
-0.121734
-0.119969
-0.113342
-0.108064
-0.121532
-0.127208
-0.0992824
-0.0705449
-0.0523624
-0.0309558
-0.0232284
-0.0471596
-0.126939
-0.209499
-0.245076
-0.217883
-0.115273
-0.00602636
-0.00522822
-0.0731928
-0.123676
-0.134315
-0.110536
-0.0478005
0.00949721
0.0370654
0.0375443
0.0240828
0.00767013
-0.00495479
-0.0110851
-0.0171459
-0.027099
-0.0298849
-0.0197315
-0.00529786
0.0059827
0.0125357
0.0158783
0.0174395
0.0180417
0.0181406
0.0179917
0.0177318
0.0174285
0.0171111
0.0167906
0.0164703
0.01615
0.0158294
0.0155074
0.0151839
0.0148583
0.0145307
0.0142007
0.0138684
0.0135338
0.0131968
0.0128574
0.0125156
0.0121715
0.0118248
0.0114759
0.0111243
0.0107705
0.010414
0.0100551
0.00969364
0.00932967
0.00896317
0.00859398
0.00822236
0.00784796
0.00747107
0.00709146
0.00670916
0.00632427
0.00593655
0.00554622
0.00515309
0.00475718
0.00435856
0.00395706
0.00355278
0.00314567
0.00273566
0.0023228
0.00190704
0.00148834
0.00106671
0.000642121
0.000214539
-0.116508
-0.119941
-0.115572
-0.113975
-0.116711
-0.115479
-0.11969
-0.12407
-0.120576
-0.119296
-0.113175
-0.107336
-0.12178
-0.127755
-0.0999186
-0.0722133
-0.0536394
-0.0341614
-0.030791
-0.0487835
-0.116856
-0.196582
-0.233966
-0.206445
-0.108788
-0.0122595
-0.0116864
-0.0736353
-0.121537
-0.13159
-0.106828
-0.0434205
0.0137471
0.0410413
0.0413266
0.0274906
0.0111821
-0.00159532
-0.00801277
-0.0155095
-0.0267736
-0.0301454
-0.0201028
-0.00563308
0.00579673
0.0124777
0.0158837
0.0174642
0.018067
0.0181605
0.0180053
0.0177403
0.0174333
0.0171137
0.0167919
0.0164709
0.0161503
0.0158295
0.0155075
0.0151839
0.0148583
0.0145307
0.0142007
0.0138684
0.0135338
0.0131968
0.0128574
0.0125156
0.0121715
0.0118248
0.0114759
0.0111243
0.0107705
0.010414
0.0100551
0.00969364
0.00932967
0.00896317
0.00859398
0.00822236
0.00784796
0.00747107
0.00709146
0.00670916
0.00632427
0.00593655
0.00554622
0.00515309
0.00475718
0.00435856
0.00395706
0.00355278
0.00314567
0.00273566
0.0023228
0.00190704
0.00148834
0.00106671
0.000642121
0.000214539
-0.115909
-0.119516
-0.115139
-0.113172
-0.115608
-0.113715
-0.117668
-0.122989
-0.119795
-0.118573
-0.112987
-0.107165
-0.121763
-0.127419
-0.100379
-0.0735991
-0.0542146
-0.0362929
-0.035874
-0.050005
-0.106219
-0.18327
-0.222157
-0.194355
-0.101928
-0.0184821
-0.0175288
-0.0732396
-0.118511
-0.128498
-0.102629
-0.039069
0.0178768
0.0448387
0.0446824
0.0306737
0.0142969
0.00142942
-0.00536957
-0.0140851
-0.0262335
-0.0300199
-0.0201741
-0.00581511
0.00566461
0.0124316
0.0158872
0.0174834
0.0180867
0.0181758
0.0180158
0.0177468
0.017437
0.0171156
0.0167929
0.0164713
0.0161505
0.0158295
0.0155075
0.0151839
0.0148583
0.0145307
0.0142007
0.0138684
0.0135338
0.0131968
0.0128574
0.0125156
0.0121715
0.0118248
0.0114759
0.0111243
0.0107705
0.010414
0.0100551
0.00969364
0.00932967
0.00896317
0.00859398
0.00822236
0.00784796
0.00747107
0.00709146
0.00670916
0.00632427
0.00593655
0.00554622
0.00515309
0.00475718
0.00435856
0.00395706
0.00355278
0.00314567
0.00273566
0.0023228
0.00190704
0.00148834
0.00106671
0.000642121
0.000214539
-0.115494
-0.119069
-0.114878
-0.112591
-0.114737
-0.11264
-0.116244
-0.12202
-0.119317
-0.117943
-0.112777
-0.107357
-0.121518
-0.126312
-0.100334
-0.0745098
-0.0538911
-0.0370621
-0.0394187
-0.0505736
-0.0957511
-0.170191
-0.209951
-0.181899
-0.0946465
-0.0244022
-0.0224652
-0.0721206
-0.114872
-0.125182
-0.0982105
-0.0348188
0.021749
0.0482935
0.0475792
0.0335538
0.0168429
0.00401153
-0.00331344
-0.0129488
-0.0255921
-0.0296382
-0.0200355
-0.00588646
0.005568
0.0123877
0.0158828
0.0174933
0.0180984
0.0181855
0.0180225
0.017751
0.0174394
0.0171169
0.0167935
0.0164716
0.0161506
0.0158296
0.0155075
0.0151839
0.0148583
0.0145307
0.0142007
0.0138684
0.0135338
0.0131968
0.0128574
0.0125156
0.0121715
0.0118248
0.0114759
0.0111243
0.0107705
0.010414
0.0100551
0.00969364
0.00932967
0.00896317
0.00859398
0.00822236
0.00784796
0.00747107
0.00709146
0.00670917
0.00632427
0.00593655
0.00554622
0.00515309
0.00475718
0.00435856
0.00395706
0.00355278
0.00314567
0.00273566
0.0023228
0.00190704
0.00148834
0.00106671
0.000642121
0.000214539
-0.115261
-0.118665
-0.11474
-0.112264
-0.114147
-0.112116
-0.115402
-0.121224
-0.119043
-0.117498
-0.112607
-0.107751
-0.121147
-0.124707
-0.0998187
-0.0748332
-0.0528125
-0.0366014
-0.0412284
-0.0505237
-0.0864634
-0.158169
-0.198114
-0.169848
-0.0873276
-0.029249
-0.0262904
-0.0703555
-0.110951
-0.121673
-0.0939387
-0.0308345
0.0251789
0.0511401
0.0500654
0.0359407
0.0188162
0.00599706
-0.0019387
-0.0121518
-0.0249685
-0.0291398
-0.019786
-0.00589251
0.00548986
0.0123385
0.0158662
0.0174916
0.0181014
0.0181892
0.0180255
0.0177531
0.0174407
0.0171176
0.0167939
0.0164718
0.0161507
0.0158296
0.0155075
0.0151839
0.0148583
0.0145307
0.0142007
0.0138684
0.0135338
0.0131968
0.0128574
0.0125156
0.0121715
0.0118248
0.0114759
0.0111243
0.0107705
0.010414
0.0100551
0.00969364
0.00932967
0.00896316
0.00859398
0.00822236
0.00784796
0.00747107
0.00709146
0.00670917
0.00632427
0.00593655
0.00554622
0.00515309
0.00475718
0.00435856
0.00395706
0.00355278
0.00314567
0.00273566
0.0023228
0.00190704
0.00148834
0.00106671
0.000642121
0.000214539
-0.115216
-0.118326
-0.114684
-0.112194
-0.113807
-0.111987
-0.11506
-0.120637
-0.118886
-0.117257
-0.112533
-0.108207
-0.120807
-0.122942
-0.0991232
-0.0746376
-0.0513549
-0.0353268
-0.0414906
-0.0499482
-0.0795898
-0.148442
-0.187822
-0.159659
-0.0807114
-0.0321029
-0.028818
-0.0682092
-0.107183
-0.118175
-0.0901693
-0.0273243
0.0278162
0.0533171
0.0520791
0.0376199
0.0202325
0.00727641
-0.00121291
-0.0117022
-0.0244607
-0.0286447
-0.0195093
-0.00586751
0.0054214
0.0122827
0.0158384
0.0174799
0.0180971
0.0181881
0.0180257
0.0177536
0.0174412
0.017118
0.0167942
0.016472
0.0161508
0.0158296
0.0155075
0.0151839
0.0148583
0.0145307
0.0142007
0.0138684
0.0135338
0.0131968
0.0128574
0.0125156
0.0121715
0.0118248
0.0114759
0.0111243
0.0107705
0.010414
0.0100551
0.00969364
0.00932967
0.00896316
0.00859398
0.00822236
0.00784796
0.00747107
0.00709146
0.00670917
0.00632427
0.00593655
0.00554622
0.00515309
0.00475718
0.00435856
0.00395706
0.00355278
0.00314567
0.00273566
0.0023228
0.00190704
0.00148834
0.00106671
0.000642121
0.000214539
-0.115312
-0.11808
-0.114672
-0.112296
-0.113653
-0.112067
-0.115053
-0.120286
-0.118782
-0.117175
-0.112568
-0.108601
-0.120586
-0.121579
-0.0984683
-0.0742861
-0.0501795
-0.034086
-0.0410479
-0.0492834
-0.0759481
-0.14249
-0.180933
-0.153032
-0.0757568
-0.0327871
-0.0299385
-0.0664929
-0.104224
-0.115406
-0.0873185
-0.0247921
0.0296484
0.0548178
0.0533917
0.0385307
0.0209836
0.00783656
-0.000990795
-0.0115541
-0.0241414
-0.0282553
-0.0192685
-0.0058285
0.00536897
0.0122311
0.0158085
0.0174648
0.0180899
0.0181849
0.0180245
0.0177533
0.0174412
0.0171181
0.0167943
0.016472
0.0161508
0.0158297
0.0155075
0.0151839
0.0148583
0.0145307
0.0142007
0.0138684
0.0135337
0.0131968
0.0128574
0.0125156
0.0121715
0.0118248
0.0114759
0.0111243
0.0107705
0.010414
0.0100551
0.00969364
0.00932967
0.00896316
0.00859398
0.00822236
0.00784796
0.00747107
0.00709146
0.00670917
0.00632427
0.00593655
0.00554622
0.00515309
0.00475718
0.00435856
0.00395706
0.00355278
0.00314567
0.00273566
0.0023228
0.00190704
0.00148834
0.00106671
0.000642121
0.000214539
-0.115469
-0.117958
-0.114684
-0.11248
-0.113645
-0.112235
-0.115228
-0.120171
-0.118726
-0.117186
-0.112628
-0.108947
-0.120541
-0.120859
-0.098014
-0.0739749
-0.0496161
-0.033443
-0.0406662
-0.0494234
-0.0758826
-0.14061
-0.178096
-0.150141
-0.0731071
-0.0322813
-0.0308153
-0.065988
-0.102901
-0.11386
-0.0857394
-0.0234028
0.0306296
0.0555948
0.0539298
0.0386599
0.0209733
0.00773303
-0.00113806
-0.0116496
-0.0240495
-0.0280388
-0.0191146
-0.0057802
0.00536181
0.0122121
0.0157967
0.0174588
0.0180869
0.0181835
0.0180239
0.0177531
0.0174412
0.0171181
0.0167943
0.0164721
0.0161508
0.0158297
0.0155075
0.0151839
0.0148583
0.0145307
0.0142007
0.0138684
0.0135337
0.0131968
0.0128574
0.0125156
0.0121715
0.0118248
0.0114759
0.0111243
0.0107705
0.010414
0.0100551
0.00969363
0.00932968
0.00896316
0.00859398
0.00822236
0.00784796
0.00747107
0.00709145
0.00670917
0.00632427
0.00593655
0.00554622
0.00515309
0.00475718
0.00435856
0.00395706
0.00355278
0.00314567
0.00273566
0.0023228
0.00190704
0.00148834
0.00106671
0.000642121
0.000214539
-0.125076
-0.127912
-0.13181
-0.132184
-0.132881
-0.135084
-0.134654
-0.135879
-0.135302
-0.12295
-0.119387
-0.120372
-0.113173
-0.123861
-0.146361
-0.181438
-0.211271
-0.129379
0.0289056
0.0929052
0.0755797
0.0352562
-0.000394497
-0.0234666
-0.0497995
-0.100352
-0.144257
-0.129987
-0.0771981
-0.0351135
-0.0133692
-0.00501657
-0.00209221
-0.00212717
-0.00666331
-0.0162543
-0.0293206
-0.0380398
-0.0371779
-0.0249271
-0.00884164
0.00440099
0.0125708
0.0165667
0.0181395
0.0185608
0.0185283
0.0183662
0.0181843
0.0179981
0.0177962
0.0175698
0.0173176
0.0170435
0.0167529
0.0164508
0.0161408
0.0158254
0.0155061
0.0151836
0.0148584
0.0145308
0.0142008
0.0138685
0.0135338
0.0131968
0.0128574
0.0125156
0.0121715
0.0118248
0.0114759
0.0111243
0.0107705
0.010414
0.0100552
0.00969363
0.00932968
0.00896316
0.00859398
0.00822237
0.00784796
0.00747107
0.00709146
0.00670917
0.00632427
0.00593655
0.00554622
0.00515309
0.00475718
0.00435856
0.00395706
0.00355278
0.00314567
0.00273566
0.0023228
0.00190704
0.00148834
0.00106671
0.00064212
0.000214539
-0.125206
-0.128058
-0.131836
-0.13208
-0.132848
-0.135102
-0.134604
-0.135874
-0.135604
-0.123575
-0.120566
-0.12055
-0.11311
-0.123258
-0.147025
-0.183381
-0.215519
-0.134318
0.025707
0.0920647
0.0747313
0.0344131
-0.000889993
-0.0233685
-0.0493975
-0.10087
-0.145748
-0.131312
-0.0774634
-0.0348954
-0.0131966
-0.00491016
-0.00205251
-0.00204268
-0.006493
-0.0160917
-0.0293376
-0.0382123
-0.0374333
-0.0251356
-0.00892587
0.00437832
0.0125784
0.0165763
0.0181465
0.0185654
0.018532
0.0183679
0.0181853
0.0179988
0.0177968
0.0175702
0.0173178
0.0170436
0.016753
0.0164508
0.0161408
0.0158255
0.0155061
0.0151836
0.0148584
0.0145308
0.0142008
0.0138685
0.0135338
0.0131968
0.0128574
0.0125156
0.0121715
0.0118248
0.0114759
0.0111243
0.0107705
0.010414
0.0100551
0.00969363
0.00932968
0.00896316
0.00859398
0.00822237
0.00784795
0.00747107
0.00709146
0.00670916
0.00632427
0.00593655
0.00554622
0.00515309
0.00475718
0.00435856
0.00395706
0.00355278
0.00314567
0.00273566
0.0023228
0.00190704
0.00148834
0.00106671
0.00064212
0.000214539
-0.125377
-0.128401
-0.132089
-0.132227
-0.132852
-0.135164
-0.134573
-0.136211
-0.136952
-0.125536
-0.123241
-0.120961
-0.112753
-0.124608
-0.150396
-0.187231
-0.222331
-0.142442
0.0201741
0.0897629
0.0727452
0.0325233
-0.00214558
-0.0241323
-0.0500388
-0.102717
-0.148837
-0.133814
-0.0778694
-0.0344126
-0.0127452
-0.00466811
-0.00193822
-0.00187337
-0.00629994
-0.0160726
-0.0294669
-0.0386312
-0.0379216
-0.0254759
-0.00904675
0.00436548
0.0126026
0.0165951
0.0181562
0.0185701
0.0185344
0.0183699
0.0181871
0.0180004
0.017798
0.0175711
0.0173185
0.017044
0.0167532
0.016451
0.0161409
0.0158255
0.0155061
0.0151836
0.0148584
0.0145308
0.0142008
0.0138685
0.0135338
0.0131968
0.0128574
0.0125156
0.0121715
0.0118248
0.0114759
0.0111243
0.0107705
0.010414
0.0100551
0.00969363
0.00932967
0.00896316
0.00859398
0.00822237
0.00784795
0.00747107
0.00709146
0.00670916
0.00632427
0.00593655
0.00554622
0.00515309
0.00475718
0.00435856
0.00395706
0.00355278
0.00314567
0.00273566
0.0023228
0.00190704
0.00148834
0.00106671
0.00064212
0.000214539
-0.125605
-0.128946
-0.132519
-0.132592
-0.132904
-0.135319
-0.134649
-0.136847
-0.138359
-0.12865
-0.126629
-0.120946
-0.111848
-0.127708
-0.155764
-0.191666
-0.229396
-0.15229
0.0127253
0.0853827
0.0688483
0.0290681
-0.00454128
-0.025996
-0.0518495
-0.105885
-0.153139
-0.137089
-0.0788932
-0.0338078
-0.0121107
-0.00430805
-0.0017461
-0.00163708
-0.00607041
-0.0161076
-0.0297369
-0.0392639
-0.038654
-0.0259408
-0.00928728
0.00430663
0.0125938
0.0165858
0.0181459
0.018564
0.0185329
0.0183713
0.01819
0.0180034
0.0178005
0.0175729
0.0173196
0.0170447
0.0167536
0.0164511
0.016141
0.0158255
0.0155061
0.0151836
0.0148584
0.0145308
0.0142008
0.0138685
0.0135338
0.0131968
0.0128574
0.0125156
0.0121715
0.0118248
0.0114759
0.0111243
0.0107705
0.010414
0.0100551
0.00969363
0.00932967
0.00896317
0.00859397
0.00822237
0.00784795
0.00747107
0.00709146
0.00670916
0.00632428
0.00593655
0.00554622
0.00515309
0.00475718
0.00435856
0.00395706
0.00355278
0.00314567
0.00273566
0.0023228
0.00190704
0.00148834
0.00106671
0.00064212
0.000214539
-0.125851
-0.129542
-0.133034
-0.133082
-0.133024
-0.135613
-0.134907
-0.13778
-0.13945
-0.131875
-0.129933
-0.12083
-0.110047
-0.132345
-0.161452
-0.19581
-0.235587
-0.162055