/*--------------------------------*- C++ -*----------------------------------*\
| =========                 |                                                 |
| \\      /  F ield         | OpenFOAM: The Open Source CFD Toolbox           |
|  \\    /   O peration     | Version:  2.4.0                                 |
|   \\  /    A nd           | Web:      www.OpenFOAM.org                      |
|    \\/     M anipulation  |                                                 |
\*---------------------------------------------------------------------------*/
FoamFile
{
    version     2.0;
    format      ascii;
    class       volScalarField;
    location    "86";
    object      p;
}
// * * * * * * * * * * * * * * * * * * * * * * * * * * * * * * * * * * * * * //

dimensions      [0 2 -2 0 0 0 0];

internalField   nonuniform List<scalar> 
4400
(
-0.114342
-0.123799
-0.108681
-0.106687
-0.118677
-0.119623
-0.12231
-0.120878
-0.115376
-0.118772
-0.124942
-0.122073
-0.121864
-0.126791
-0.121367
-0.126559
-0.130015
-0.123774
-0.134207
-0.142246
-0.114131
-0.124126
-0.108846
-0.106113
-0.118894
-0.119665
-0.122321
-0.121073
-0.1152
-0.118665
-0.125126
-0.122095
-0.121688
-0.127025
-0.121255
-0.126503
-0.130427
-0.123921
-0.134404
-0.141895
-0.113845
-0.124579
-0.108979
-0.105696
-0.119295
-0.119628
-0.122358
-0.121291
-0.114982
-0.118596
-0.125376
-0.122059
-0.121484
-0.127317
-0.121017
-0.126539
-0.130674
-0.124251
-0.134085
-0.14028
-0.113573
-0.124763
-0.109059
-0.10562
-0.119712
-0.119419
-0.122345
-0.12147
-0.114863
-0.118618
-0.12554
-0.121951
-0.12132
-0.127609
-0.120721
-0.126701
-0.130728
-0.124383
-0.133529
-0.137576
-0.113391
-0.124701
-0.10919
-0.106122
-0.120045
-0.119004
-0.12221
-0.121563
-0.114979
-0.118749
-0.12553
-0.12181
-0.121261
-0.127806
-0.120507
-0.126897
-0.13071
-0.124317
-0.133289
-0.1349
-0.113352
-0.124289
-0.109612
-0.107299
-0.120258
-0.118474
-0.121909
-0.121536
-0.115392
-0.118974
-0.125313
-0.121726
-0.121341
-0.127819
-0.120526
-0.12703
-0.130756
-0.124208
-0.133752
-0.132604
-0.113447
-0.123334
-0.110533
-0.109165
-0.120316
-0.117996
-0.12139
-0.121335
-0.11611
-0.119281
-0.124888
-0.121779
-0.121574
-0.127539
-0.120908
-0.127064
-0.13077
-0.124373
-0.133578
-0.130872
-0.113629
-0.121711
-0.111997
-0.111624
-0.12014
-0.117657
-0.120651
-0.120933
-0.117109
-0.119667
-0.12424
-0.121967
-0.121961
-0.12691
-0.121703
-0.126975
-0.130541
-0.124866
-0.132896
-0.129704
-0.113827
-0.119419
-0.113888
-0.114475
-0.119626
-0.117492
-0.119737
-0.120356
-0.118324
-0.12012
-0.123355
-0.122251
-0.122485
-0.12595
-0.122853
-0.126738
-0.129863
-0.125714
-0.131746
-0.128956
-0.11399
-0.116627
-0.115972
-0.11744
-0.118752
-0.117466
-0.118707
-0.119661
-0.119656
-0.120618
-0.122255
-0.122568
-0.123087
-0.12475
-0.12421
-0.126336
-0.128672
-0.126802
-0.130108
-0.128473
-0.114086
-0.113642
-0.117977
-0.120198
-0.117594
-0.117472
-0.117623
-0.118932
-0.120982
-0.121133
-0.121063
-0.122853
-0.123681
-0.123457
-0.125589
-0.125785
-0.127085
-0.12794
-0.127928
-0.128071
-0.114093
-0.110807
-0.119684
-0.122468
-0.116295
-0.117402
-0.116564
-0.118258
-0.122199
-0.121632
-0.119912
-0.123047
-0.124183
-0.122228
-0.12682
-0.125153
-0.125334
-0.128967
-0.12635
-0.127599
-0.114017
-0.108404
-0.120962
-0.124126
-0.115082
-0.117185
-0.11562
-0.1177
-0.12323
-0.122095
-0.118928
-0.123114
-0.124537
-0.121203
-0.127781
-0.124548
-0.123669
-0.129727
-0.125067
-0.127035
-0.113884
-0.106608
-0.121787
-0.12521
-0.114128
-0.116819
-0.11487
-0.117297
-0.124025
-0.122509
-0.118198
-0.123059
-0.124734
-0.120469
-0.128412
-0.124069
-0.122284
-0.130157
-0.124128
-0.126431
-0.113734
-0.105473
-0.122228
-0.125835
-0.113595
-0.116361
-0.114366
-0.117061
-0.124563
-0.122854
-0.117743
-0.122918
-0.124811
-0.120049
-0.128717
-0.123778
-0.121289
-0.13029
-0.123548
-0.125852
-0.113592
-0.10492
-0.122397
-0.126126
-0.113422
-0.115915
-0.114111
-0.116971
-0.124847
-0.123098
-0.117526
-0.122745
-0.124821
-0.119914
-0.128758
-0.123672
-0.120712
-0.130192
-0.123273
-0.125377
-0.113428
-0.104824
-0.122379
-0.126158
-0.113536
-0.115576
-0.114046
-0.116994
-0.124901
-0.123207
-0.117504
-0.122587
-0.124768
-0.120011
-0.128609
-0.123656
-0.120521
-0.129911
-0.123205
-0.125063
-0.113203
-0.105043
-0.122229
-0.125865
-0.113813
-0.11537
-0.114086
-0.117111
-0.124766
-0.123173
-0.117633
-0.122471
-0.124634
-0.120277
-0.128355
-0.12362
-0.12064
-0.129522
-0.123231
-0.124931
-0.112939
-0.105413
-0.122046
-0.12534
-0.114119
-0.11529
-0.114141
-0.117272
-0.124545
-0.123044
-0.117849
-0.122416
-0.12444
-0.120573
-0.128098
-0.123525
-0.120932
-0.129135
-0.123264
-0.124959
-0.112727
-0.105729
-0.122012
-0.124728
-0.114311
-0.115299
-0.114161
-0.11743
-0.12437
-0.122904
-0.118026
-0.122421
-0.124259
-0.120788
-0.127967
-0.123405
-0.121299
-0.128908
-0.123241
-0.125075
-0.127709
-0.12003
-0.124589
-0.131366
-0.13424
-0.124293
-0.133443
-0.125695
-0.117115
-0.111765
-0.104847
-0.120418
-0.121415
-0.154697
-0.164452
-0.109936
-0.152654
-0.224161
-0.186816
-0.122828
-0.0925476
-0.0576096
-0.0405852
-0.0705004
-0.100813
-0.108095
-0.103647
-0.0975523
-0.0754518
-0.0262746
0.0102021
-0.0155238
-0.0998834
-0.143878
-0.148159
-0.136334
-0.0918028
-0.0403454
-0.0267717
-0.0422166
-0.0539166
-0.0519263
-0.0376134
-0.0194212
-0.00219089
-0.0138969
-0.0481802
-0.0621697
-0.0630585
-0.0618425
-0.0422899
-0.0167206
-0.0107268
-0.0257855
-0.0446115
-0.0531244
-0.045567
-0.0289856
-0.0128537
-0.00418746
-0.00622314
-0.0160592
-0.0212496
-0.0130431
-0.00367114
-0.00454913
-0.0139825
-0.0198646
-0.0134898
-0.00333466
-0.000156675
-0.00164433
-0.00181955
-0.00259711
-0.00545889
-0.00661351
-0.0047149
-0.00353411
-0.00480933
-0.00637299
-0.00659668
-0.0059492
-0.0050367
-0.00398393
-0.00289118
-0.00191468
-0.00112769
-0.000509438
-7.73021e-06
0.000414401
0.000767027
0.00103934
0.00121512
0.001285
0.00125351
0.00113459
0.000948302
0.000712434
0.000442942
0.000151324
-0.12865
-0.120464
-0.124464
-0.131179
-0.134655
-0.124471
-0.132205
-0.12629
-0.117031
-0.110907
-0.105268
-0.120026
-0.120658
-0.15352
-0.164766
-0.111982
-0.148946
-0.214386
-0.18001
-0.118924
-0.0880573
-0.0520724
-0.0384414
-0.0762835
-0.113987
-0.118598
-0.104405
-0.0847078
-0.0595993
-0.0154972
0.0167874
-0.0133068
-0.102872
-0.149369
-0.153495
-0.140433
-0.0919392
-0.0356857
-0.0193537
-0.0351713
-0.0501612
-0.0535782
-0.0418854
-0.0226381
-0.00384498
-0.0133657
-0.0449863
-0.0584657
-0.0593682
-0.0582887
-0.0398586
-0.0159981
-0.0117989
-0.0280412
-0.0472624
-0.0556569
-0.047493
-0.0301581
-0.0131932
-0.00341092
-0.00400654
-0.0125307
-0.0175832
-0.0107172
-0.0032356
-0.00579194
-0.0161738
-0.022122
-0.014717
-0.00295642
0.00159985
0.000276161
-0.000960153
-0.00316162
-0.00682131
-0.00770436
-0.00493466
-0.00291534
-0.00380085
-0.00552574
-0.00623409
-0.00603567
-0.00532953
-0.00426744
-0.0030749
-0.00199975
-0.00114881
-0.000500664
8.62765e-06
0.000427723
0.000774568
0.00104221
0.0012153
0.0012841
0.00125237
0.00113358
0.000947501
0.000711846
0.000442587
0.000151149
-0.129822
-0.121248
-0.124161
-0.130957
-0.134604
-0.124777
-0.130231
-0.126622
-0.117057
-0.109855
-0.106368
-0.119656
-0.119696
-0.151882
-0.164049
-0.115319
-0.145367
-0.202928
-0.172712
-0.11541
-0.0835875
-0.04636
-0.0357981
-0.0814404
-0.125834
-0.129019
-0.105001
-0.0724546
-0.0447033
-0.00542661
0.0231171
-0.0108166
-0.104706
-0.153628
-0.157841
-0.143523
-0.0914352
-0.0309801
-0.012278
-0.0284812
-0.0467213
-0.0555334
-0.0465022
-0.0258944
-0.00536564
-0.0125202
-0.0414252
-0.0545006
-0.0553965
-0.05443
-0.0371407
-0.0149926
-0.0124974
-0.0299115
-0.0494827
-0.0577467
-0.0491085
-0.0311302
-0.0133566
-0.00250413
-0.00169829
-0.00892433
-0.0138682
-0.00830509
-0.00265403
-0.00684444
-0.0181244
-0.0241384
-0.015773
-0.00251416
0.00333347
0.00214352
-0.000106812
-0.00367656
-0.00811419
-0.00874611
-0.00512354
-0.00226916
-0.00276767
-0.00466674
-0.00587346
-0.00612899
-0.00562594
-0.00455049
-0.00325633
-0.0020825
-0.00116839
-0.000491087
2.52752e-05
0.00044111
0.000782193
0.00104527
0.0012158
0.00128358
0.00125163
0.00113293
0.000947014
0.000711495
0.0004424
0.000151079
-0.131156
-0.122321
-0.123177
-0.13067
-0.134033
-0.125358
-0.128104
-0.126332
-0.117467
-0.108991
-0.107694
-0.119215
-0.118571
-0.148518
-0.161961
-0.119558
-0.142141
-0.190525
-0.165183
-0.112385
-0.079322
-0.0406891
-0.032689
-0.0860136
-0.136443
-0.139291
-0.105341
-0.0613061
-0.0313625
0.00358255
0.028834
-0.00814216
-0.105388
-0.156561
-0.161122
-0.145551
-0.0903408
-0.0263456
-0.00562591
-0.0222799
-0.0436885
-0.0577589
-0.0513323
-0.0290977
-0.0067183
-0.0113195
-0.0374899
-0.0501572
-0.0511702
-0.0503186
-0.0341966
-0.0137554
-0.0128439
-0.0313976
-0.0512804
-0.0593978
-0.0504042
-0.0318859
-0.0133448
-0.0014901
0.000670804
-0.00529426
-0.010172
-0.00585366
-0.00194134
-0.00769719
-0.0198181
-0.0258913
-0.0166414
-0.00201357
0.00501467
0.00392316
0.000722567
-0.00413589
-0.00931423
-0.00971729
-0.00527545
-0.00160823
-0.00173277
-0.00381494
-0.00552242
-0.00622753
-0.00592087
-0.0048284
-0.00343277
-0.00216166
-0.00118602
-0.000480739
4.20735e-05
0.000454481
0.000789891
0.00104856
0.00121667
0.00128348
0.00125131
0.00113266
0.000946841
0.000711383
0.000442381
0.000151111
-0.131883
-0.123661
-0.121842
-0.130349
-0.133227
-0.126004
-0.126316
-0.125455
-0.118176
-0.108531
-0.108717
-0.118628
-0.117443
-0.14408
-0.158551
-0.124223
-0.138944
-0.177985
-0.157716
-0.109921
-0.0754195
-0.0353299
-0.029272
-0.0897932
-0.145982
-0.14925
-0.105443
-0.0516781
-0.0199927
0.0112588
0.0336141
-0.00553937
-0.104929
-0.158179
-0.163343
-0.146545
-0.088731
-0.0218977
0.000528848
-0.0167096
-0.0411481
-0.0602061
-0.0562
-0.0321431
-0.00786883
-0.00972283
-0.0331935
-0.0456522
-0.0467318
-0.0460211
-0.0310989
-0.0123476
-0.0128715
-0.0325096
-0.0526705
-0.060626
-0.0513805
-0.0324149
-0.0131662
-0.0003915
0.00307037
-0.00169687
-0.00655857
-0.00340865
-0.0011162
-0.00834613
-0.0212455
-0.0273671
-0.017312
-0.00145989
0.00661444
0.00558444
0.00151278
-0.00453477
-0.0104014
-0.0105983
-0.00538478
-0.000945768
-0.000719091
-0.00298833
-0.00518775
-0.00632935
-0.00620938
-0.00509678
-0.00360137
-0.00223611
-0.00120138
-0.000469667
5.89192e-05
0.000467806
0.000797705
0.00105216
0.00121796
0.00128384
0.00125143
0.00113277
0.000946974
0.000711499
0.000442524
0.000151237
-0.131874
-0.125232
-0.120737
-0.129862
-0.132299
-0.126466
-0.125008
-0.124246
-0.118963
-0.108593
-0.109305
-0.117759
-0.116508
-0.13896
-0.154053
-0.128907
-0.136828
-0.165989
-0.150595
-0.10807
-0.0720265
-0.0305617
-0.0258303
-0.0924817
-0.154437
-0.15853
-0.105375
-0.0437921
-0.0107589
0.0174201
0.037182
-0.00326703
-0.103338
-0.158542
-0.16456
-0.146601
-0.0866984
-0.0177406
0.00609575
-0.0119174
-0.0391743
-0.0627986
-0.0608934
-0.0349205
-0.00878191
-0.00769398
-0.028566
-0.0409707
-0.0421397
-0.041615
-0.0279313
-0.010838
-0.0126245
-0.0332688
-0.0536753
-0.0614585
-0.0520476
-0.0327148
-0.0128343
0.000769078
0.00547012
0.00181475
-0.0030879
-0.00101361
-0.00020069
-0.00879226
-0.0224047
-0.0285603
-0.017779
-0.000859699
0.00810624
0.00710202
0.00225103
-0.00486926
-0.0113593
-0.0113721
-0.00544711
-0.000294936
0.000251947
-0.00220358
-0.0048753
-0.00643231
-0.00648683
-0.00535171
-0.00375972
-0.00230478
-0.00121421
-0.000457936
7.57354e-05
0.000481093
0.00080571
0.00105615
0.00121972
0.00128468
0.00125197
0.00113322
0.000947386
0.000711821
0.000442812
0.000151442
-0.131383
-0.12682
-0.120209
-0.129067
-0.13128
-0.126668
-0.124145
-0.122996
-0.11958
-0.109187
-0.109474
-0.116472
-0.115771
-0.133486
-0.148743
-0.133232
-0.135368
-0.15504
-0.14407
-0.106851
-0.0692789
-0.0266087
-0.0226993
-0.0940174
-0.161575
-0.16661
-0.10509
-0.0376923
-0.00372719
0.0219762
0.0393265
-0.00135201
-0.100673
-0.157658
-0.164765
-0.145819
-0.0843227
-0.013957
0.0109528
-0.00801855
-0.037813
-0.0654361
-0.065185
-0.0373219
-0.00941652
-0.00521253
-0.023659
-0.0361236
-0.0374701
-0.037188
-0.0247863
-0.00929938
-0.0121586
-0.0337036
-0.0543269
-0.0619338
-0.0524248
-0.0327916
-0.012367
0.00196991
0.00784297
0.00518758
0.000186616
0.0012916
0.000780737
-0.00904165
-0.0232994
-0.0294729
-0.0180411
-0.000221236
0.00946733
0.00845656
0.00292735
-0.00513676
-0.0121749
-0.0120251
-0.00545967
0.000331825
0.001161
-0.00147539
-0.00458962
-0.00653403
-0.00674887
-0.00558959
-0.00390574
-0.00236673
-0.00122436
-0.000445625
9.24618e-05
0.000494365
0.000813973
0.00106058
0.00122198
0.00128596
0.00125288
0.00113398
0.000948025
0.000712304
0.000443213
0.000151703
-0.130676
-0.128106
-0.120353
-0.128015
-0.130163
-0.126643
-0.123618
-0.121901
-0.119853
-0.110197
-0.109304
-0.114685
-0.115127
-0.127933
-0.142898
-0.136921
-0.134478
-0.145462
-0.13834
-0.106268
-0.0673023
-0.0236249
-0.0201432
-0.0945669
-0.16708
-0.173038
-0.104475
-0.0333467
0.00124895
0.024941
0.0399303
0.00028731
-0.097098
-0.155435
-0.163863
-0.144244
-0.081647
-0.0105942
0.0149304
-0.00505456
-0.0370779
-0.0679982
-0.0688631
-0.0392585
-0.00972722
-0.00227878
-0.0185459
-0.0311518
-0.0328133
-0.0328358
-0.0217629
-0.00780618
-0.0115362
-0.0338482
-0.0546617
-0.0620998
-0.0525392
-0.0326583
-0.0117878
0.0031925
0.010164
0.00837112
0.0032194
0.00347051
0.00180087
-0.0091056
-0.0239384
-0.0301122
-0.0181014
0.000446657
0.0106786
0.00963483
0.0035354
-0.00533637
-0.0128387
-0.0125468
-0.00542112
0.00092248
0.00199128
-0.000815388
-0.00433358
-0.0066317
-0.00699123
-0.00580706
-0.00403752
-0.00242126
-0.00123175
-0.000432835
0.000109033
0.000507623
0.000822512
0.00106545
0.00122468
0.00128761
0.00125408
0.00113494
0.000948814
0.000712887
0.000443683
0.000151991
-0.130031
-0.128768
-0.12109
-0.126808
-0.128936
-0.126439
-0.123292
-0.12107
-0.119738
-0.111431
-0.108903
-0.112419
-0.114429
-0.122598
-0.136833
-0.13979
-0.134068
-0.137443
-0.133524
-0.106298
-0.0661913
-0.0217532
-0.0183165
-0.0942681
-0.170678
-0.177595
-0.103557
-0.0306661
0.00439562
0.0264494
0.0390171
0.0015518
-0.0928148
-0.151775
-0.161718
-0.141858
-0.0786979
-0.00765552
0.0178193
-0.00337199
-0.0369448
-0.0703682
-0.0717657
-0.0406703
-0.00966649
0.00107977
-0.0133187
-0.0261026
-0.0282683
-0.0286613
-0.0189631
-0.00643051
-0.0108224
-0.03374
-0.0547166
-0.0620094
-0.052423
-0.0323348
-0.0111237
0.00442126
0.0124109
0.0113181
0.00597389
0.00549072
0.00283041
-0.009001
-0.0243334
-0.0304884
-0.0179666
0.00113457
0.0117242
0.0106297
0.00407184
-0.00546783
-0.0133455
-0.0129308
-0.00533205
0.00146589
0.00272959
-0.000232055
-0.00410829
-0.00672204
-0.00720947
-0.00600081
-0.00415345
-0.00246786
-0.0012364
-0.000419714
0.000125344
0.0005208
0.000831249
0.00107064
0.00122768
0.00128948
0.00125542
0.00113598
0.000949646
0.000713494
0.000444164
0.000152275
-0.129555
-0.128646
-0.122169
-0.12561
-0.127603
-0.126098
-0.123044
-0.120542
-0.119313
-0.112675
-0.108407
-0.109794
-0.11352
-0.117781
-0.130925
-0.141749
-0.134039
-0.131097
-0.129675
-0.106862
-0.0659607
-0.0211377
-0.0173703
-0.0930655
-0.172198
-0.180216
-0.102438
-0.0294339
0.00607608
0.0267635
0.0367687
0.00229508
-0.0879909
-0.146731
-0.1583
-0.138661
-0.0755141
-0.00513015
0.019456
-0.0021386
-0.037314
-0.0724389
-0.0738068
-0.041543
-0.00918645
0.0047959
-0.00807842
-0.0210384
-0.023934
-0.024771
-0.0164866
-0.005238
-0.0100843
-0.0334133
-0.0545272
-0.0617111
-0.0521084
-0.0318466
-0.010404
0.00564428
0.0145633
0.0139839
0.00842445
0.00732424
0.00383832
-0.00875014
-0.0244988
-0.0306126
-0.0176463
0.00183159
0.012593
0.0114408
0.00453505
-0.00553198
-0.0136945
-0.0131752
-0.00519559
0.00195291
0.00336627
0.000269288
-0.00391312
-0.00680101
-0.00739891
-0.00616769
-0.00425213
-0.00250626
-0.00123848
-0.00040648
0.000141207
0.000533713
0.000839972
0.00107592
0.00123074
0.00129135
0.0012567
0.00113695
0.000950404
0.000714041
0.000444595
0.000152522
-0.129249
-0.127845
-0.123324
-0.124582
-0.126204
-0.125659
-0.1228
-0.120295
-0.118707
-0.113755
-0.107965
-0.10702
-0.112285
-0.113733
-0.12557
-0.142793
-0.134279
-0.126458
-0.126815
-0.107818
-0.0665062
-0.0218506
-0.0175281
-0.0907946
-0.171672
-0.180872
-0.101156
-0.0292676
0.00677624
0.0262366
0.0334261
0.00261885
-0.0827338
-0.140568
-0.154055
-0.134777
-0.0721537
-0.00306687
0.0198367
-0.00163685
-0.0380366
-0.0741126
-0.0749848
-0.0418991
-0.00824564
0.00875709
-0.00292318
-0.016048
-0.0198975
-0.0212666
-0.0144198
-0.00428296
-0.0093904
-0.0328966
-0.0541209
-0.0612402
-0.0516222
-0.0312238
-0.00965868
0.00685314
0.0166018
0.0163303
0.0105564
0.00894724
0.0047922
-0.00838027
-0.0244524
-0.0304957
-0.0171536
0.00252418
0.0132794
0.0120745
0.00492495
-0.00553302
-0.0138919
-0.0132852
-0.0050179
0.00237687
0.00389487
0.000686878
-0.00374576
-0.00686394
-0.00755484
-0.00630479
-0.00433259
-0.00253647
-0.0012383
-0.000393466
0.000156307
0.000546033
0.000848336
0.00108094
0.00123357
0.00129297
0.00125775
0.00113769
0.000950977
0.000714453
0.000444925
0.000152708
-0.129041
-0.126619
-0.124353
-0.123827
-0.124818
-0.125153
-0.122543
-0.120262
-0.118055
-0.114568
-0.107684
-0.104353
-0.110721
-0.110568
-0.121071
-0.142958
-0.134662
-0.123449
-0.124905
-0.108973
-0.0680052
-0.0238223
-0.0189065
-0.0875265
-0.169271
-0.179618
-0.0997818
-0.0296876
0.00702959
0.0252979
0.0282581
0.00230847
-0.0765715
-0.133596
-0.149677
-0.130375
-0.0686563
-0.00158082
0.0191572
-0.00177524
-0.0389408
-0.0752913
-0.0753503
-0.0417738
-0.0068172
0.0128163
0.00205747
-0.0112477
-0.0162235
-0.0182328
-0.0128195
-0.00360333
-0.00880609
-0.0322198
-0.0535157
-0.0606092
-0.0509841
-0.0304994
-0.00891776
0.00804137
0.0185067
0.0183272
0.0123655
0.0103407
0.00565935
-0.00792384
-0.0242151
-0.0301512
-0.0165076
0.00319556
0.0137857
0.0125439
0.00524425
-0.00547993
-0.0139537
-0.0132738
-0.00480842
0.00273335
0.0043125
0.00102266
-0.00360271
-0.00690603
-0.00767332
-0.00641028
-0.00439458
-0.00255893
-0.00123641
-0.000381165
0.000170179
0.000557295
0.000855902
0.00108534
0.00123586
0.00129413
0.00125837
0.0011381
0.000951279
0.000714674
0.000445116
0.000152819
-0.128848
-0.12531
-0.125128
-0.12335
-0.123552
-0.124611
-0.122297
-0.120367
-0.117469
-0.115084
-0.107575
-0.102028
-0.108952
-0.108252
-0.117571
-0.142327
-0.135036
-0.121851
-0.123801
-0.110031
-0.069352
-0.026789
-0.0213475
-0.0837776
-0.164945
-0.176528
-0.0983912
-0.0302065
0.00733908
0.0244402
0.0240999
0.00165194
-0.0694839
-0.125963
-0.145059
-0.125601
-0.0650106
-0.000763817
0.0176787
-0.00239904
-0.0398209
-0.0758647
-0.0749506
-0.0411984
-0.00491166
0.0168033
0.00678898
-0.00678122
-0.0129531
-0.0157273
-0.0116948
-0.00321426
-0.00838512
-0.0314226
-0.052729
-0.0597881
-0.0502109
-0.029712
-0.00820923
0.00920284
0.020256
0.0199561
0.0138561
0.0114909
0.00640875
-0.00741894
-0.0238141
-0.0295993
-0.0157371
0.00382499
0.014122
0.012867
0.00549854
-0.00538469
-0.0139027
-0.013161
-0.00457843
0.00301929
0.00462044
0.00128171
-0.00348018
-0.00692354
-0.00775237
-0.00648407
-0.00443898
-0.00257466
-0.00123361
-0.000370236
0.000182232
0.00056697
0.000862231
0.00108879
0.00123739
0.00129465
0.00125848
0.0011381
0.000951271
0.000714683
0.000445158
0.000152849
-0.128641
-0.124201
-0.125604
-0.123085
-0.12248
-0.12407
-0.122091
-0.120517
-0.117023
-0.115326
-0.107578
-0.100222
-0.10718
-0.106674
-0.115089
-0.141053
-0.135168
-0.121308
-0.123244
-0.110706
-0.070525
-0.030309
-0.0244137
-0.0798061
-0.158777
-0.171609
-0.0969448
-0.0303948
0.00814222
0.0240642
0.0203629
0.000993425
-0.061673
-0.117789
-0.139809
-0.120446
-0.0610823
-0.000571155
0.0156281
-0.00324614
-0.0403856
-0.0757249
-0.0738589
-0.0402098
-0.00259318
0.0205514
0.0112026
-0.0028025
-0.0101126
-0.0137783
-0.0110032
-0.00310105
-0.00815744
-0.0305587
-0.0517943
-0.0588434
-0.0493329
-0.0289137
-0.00755208
0.0103306
0.0218209
0.0212155
0.0150399
0.0123908
0.00701395
-0.00690865
-0.0232867
-0.0288759
-0.0148862
0.00438781
0.0143078
0.0130651
0.00569372
-0.00525912
-0.0137624
-0.0129678
-0.00433907
0.00323162
0.00482554
0.00147097
-0.00337501
-0.00691517
-0.00779308
-0.00652848
-0.00446792
-0.00258518
-0.00123096
-0.000361449
0.000191862
0.000574598
0.000867012
0.00109109
0.00123806
0.0012945
0.00125807
0.0011377
0.000950962
0.00071449
0.00044506
0.000152808
-0.12844
-0.123426
-0.125809
-0.122981
-0.121645
-0.123573
-0.121946
-0.120632
-0.116747
-0.115362
-0.107613
-0.0990484
-0.105612
-0.105682
-0.113547
-0.13939
-0.134897
-0.121379
-0.122926
-0.110861
-0.071145
-0.0338351
-0.0279147
-0.0754328
-0.151021
-0.164809
-0.0950113
-0.0299376
0.0097342
0.0244296
0.0175236
0.000608352
-0.053493
-0.109352
-0.133925
-0.114899
-0.0567321
-0.000916342
0.0132295
-0.00406922
-0.0404291
-0.0748463
-0.0722099
-0.0388878
-1.87241e-06
0.0239226
0.0151977
0.000563567
-0.00772951
-0.0123779
-0.0106553
-0.00321729
-0.00812011
-0.0296953
-0.050772
-0.0578018
-0.048421
-0.0281743
-0.00694646
0.0114136
0.0231596
0.0221262
0.0159349
0.0130427
0.00745707
-0.00643794
-0.0226856
-0.0280446
-0.014019
0.0048583
0.0143712
0.0131612
0.00583394
-0.0051152
-0.0135547
-0.012717
-0.0041035
0.00336795
0.00494047
0.00159799
-0.0032854
-0.00688321
-0.0078002
-0.00654806
-0.00448454
-0.00259238
-0.00122955
-0.000355489
0.000198638
0.000579945
0.000870161
0.00109227
0.00123793
0.00129377
0.00125719
0.00113695
0.000950405
0.000714132
0.000444849
0.000152709
-0.128264
-0.123003
-0.125816
-0.122979
-0.121072
-0.123159
-0.121857
-0.120668
-0.116625
-0.11527
-0.107639
-0.0985361
-0.10442
-0.10512
-0.112769
-0.137646
-0.134236
-0.121684
-0.122594
-0.110145
-0.0709404
-0.0368282
-0.0313058
-0.0708868
-0.142326
-0.15668
-0.0920718
-0.0287254
0.0121634
0.0256238
0.0159047
0.000509496
-0.0453009
-0.101105
-0.127712
-0.109193
-0.0523704
-0.00135092
0.0103782
-0.00476109
-0.0399958
-0.073536
-0.0702525
-0.0373923
0.00268259
0.0268495
0.0186023
0.00326357
-0.00584342
-0.0114671
-0.0105275
-0.00349455
-0.00823863
-0.0288919
-0.0497489
-0.05677
-0.0475594
-0.0275523
-0.0063699
0.0124385
0.0242124
0.022733
0.0165635
0.0134623
0.00773316
-0.00604669
-0.0220783
-0.0272033
-0.0132179
0.00521754
0.0143457
0.0131786
0.00592235
-0.00496791
-0.0133078
-0.0124407
-0.00389178
0.00343116
0.00498072
0.00167042
-0.00321147
-0.00683393
-0.00778154
-0.00654882
-0.00449232
-0.00259798
-0.00123017
-0.000352674
0.000202498
0.00058311
0.000871866
0.00109254
0.00123722
0.00129262
0.00125602
0.00113598
0.000949685
0.000713664
0.00044456
0.000152571
-0.128057
-0.122879
-0.125712
-0.123009
-0.12077
-0.122846
-0.1218
-0.120622
-0.116615
-0.115123
-0.107645
-0.0986125
-0.103688
-0.104864
-0.112521
-0.13609
-0.133337
-0.121984
-0.122118
-0.108725
-0.0699591
-0.0388736
-0.0341272
-0.0664857
-0.133457
-0.148359
-0.0884231
-0.0266688
0.0151794
0.0274596
0.0155369
0.00104364
-0.0381238
-0.0936513
-0.121707
-0.103799
-0.0483496
-0.00167556
0.00834844
-0.00519174
-0.0395703
-0.0720564
-0.068275
-0.0359435
0.00523928
0.0293626
0.021188
0.00531895
-0.00449043
-0.0109344
-0.0104888
-0.00384418
-0.00846051
-0.028212
-0.0487795
-0.0558168
-0.0467781
-0.0270482
-0.00579115
0.0133648
0.024923
0.02309
0.0169544
0.0136808
0.00785394
-0.00576094
-0.0215335
-0.0264626
-0.0125628
0.00546462
0.014267
0.0131402
0.00596264
-0.00483494
-0.0130595
-0.0121812
-0.0037253
0.00343382
0.00495204
0.00169718
-0.00315504
-0.00677663
-0.0077468
-0.0065371
-0.0044943
-0.00260299
-0.00123289
-0.000352699
0.000203879
0.000584541
0.000872535
0.00109226
0.00123622
0.00129131
0.00125474
0.00113494
0.000948907
0.000713155
0.000444238
0.000152415
-0.127799
-0.122967
-0.125576
-0.123016
-0.120711
-0.122628
-0.121749
-0.120536
-0.116669
-0.114969
-0.107631
-0.0990886
-0.103386
-0.104826
-0.112553
-0.134915
-0.132414
-0.122208
-0.121486
-0.106849
-0.0685524
-0.039834
-0.0358528
-0.0628954
-0.125531
-0.14059
-0.0845511
-0.0242098
0.0183233
0.0295061
0.0161304
0.00190413
-0.0327451
-0.0877829
-0.116542
-0.0992016
-0.0449972
-0.00175926
0.00700564
-0.00547092
-0.0390053
-0.0705115
-0.0663888
-0.0346206
0.00747787
0.0314021
0.0228216
0.00675009
-0.00366583
-0.0106438
-0.0104488
-0.00413535
-0.00872266
-0.0276949
-0.0479562
-0.0549799
-0.0461033
-0.0265699
-0.00525611
0.0140797
0.0252928
0.0232219
0.0171487
0.0137462
0.00784997
-0.00559204
-0.0211037
-0.0258829
-0.0121
0.00562089
0.0141673
0.013069
0.00596012
-0.00473332
-0.0128446
-0.0119687
-0.00361085
0.00339856
0.00485348
0.00169015
-0.00311862
-0.0067225
-0.00770659
-0.00651913
-0.00449256
-0.00260736
-0.00123681
-0.000354512
0.000203682
0.000584924
0.000872679
0.00109182
0.00123526
0.00129012
0.00125357
0.00113398
0.000948191
0.000712683
0.000443935
0.000152266
-0.127538
-0.123145
-0.125467
-0.12298
-0.120807
-0.122499
-0.121712
-0.120459
-0.11673
-0.114849
-0.107574
-0.0997117
-0.103369
-0.104918
-0.112707
-0.13419
-0.131652
-0.122423
-0.120926
-0.105218
-0.0672665
-0.0399156
-0.036341
-0.0607241
-0.120154
-0.134787
-0.0813743
-0.0222517
0.020635
0.031038
0.0169304
0.00259381
-0.0298869
-0.0842662
-0.113022
-0.0960644
-0.0426179
-0.00160883
0.00638776
-0.00565368
-0.038495
-0.0690654
-0.0647528
-0.0334595
0.0091005
0.0326963
0.023662
0.00750451
-0.00330434
-0.010496
-0.0103707
-0.00430917
-0.00896612
-0.0274202
-0.0474355
-0.0543522
-0.0455793
-0.0261954
-0.00486947
0.0144704
0.0253915
0.0232301
0.0172106
0.0137296
0.0077648
-0.00554741
-0.0208379
-0.0255491
-0.0118272
0.0057255
0.0140748
0.0129892
0.00592142
-0.00468182
-0.0126909
-0.0118183
-0.00353417
0.00335633
0.00479708
0.00166321
-0.00310548
-0.00668462
-0.00767252
-0.00650086
-0.00448812
-0.00260959
-0.00123979
-0.000356253
0.000203238
0.000585137
0.000872898
0.00109169
0.00123475
0.00128939
0.00125281
0.00113333
0.000947694
0.00071235
0.000443716
0.000152155
-0.127357
-0.123314
-0.125446
-0.12293
-0.120985
-0.122457
-0.121716
-0.120434
-0.116764
-0.114796
-0.10749
-0.0999711
-0.103508
-0.105115
-0.11288
-0.133978
-0.131266
-0.122565
-0.120653
-0.10429
-0.0663367
-0.0395541
-0.0365408
-0.0604511
-0.118262
-0.132047
-0.0796904
-0.0212344
0.0217389
0.0317415
0.0173921
0.00241483
-0.029847
-0.0832399
-0.111493
-0.0945509
-0.0413449
-0.00129258
0.00612364
-0.00617796
-0.0383469
-0.0683636
-0.0636958
-0.032617
0.00984692
0.0331934
0.0236352
0.00752397
-0.00336438
-0.0104604
-0.0102505
-0.0043425
-0.00922745
-0.027466
-0.0473701
-0.0540656
-0.0452801
-0.0259745
-0.00464631
0.0146351
0.0253929
0.0231158
0.0172044
0.0136814
0.00761511
-0.00564588
-0.0207647
-0.025318
-0.0117048
0.00584376
0.0140358
0.0129278
0.00583927
-0.00470368
-0.0126259
-0.0117246
-0.00346477
0.00334556
0.00476286
0.00162349
-0.00312228
-0.00667641
-0.00765686
-0.0064851
-0.00447965
-0.00260622
-0.00123831
-0.000355203
0.000204382
0.000586377
0.00087403
0.00109253
0.00123525
0.0012896
0.00125284
0.00113328
0.000947618
0.000712287
0.000443669
0.000152123
-0.126215
-0.124611
-0.127666
-0.125291
-0.128112
-0.124683
-0.126516
-0.122279
-0.121643
-0.120944
-0.122697
-0.125938
-0.128692
-0.133713
-0.138402
-0.147671
-0.175945
-0.197825
-0.179748
-0.148003
-0.103454
-0.0396634
0.0590404
0.0978456
0.0764972
0.0510804
-0.0062778
-0.123346
-0.130546
-0.0602611
0.0117852
0.0491862
0.0351058
0.00633301
-0.0160666
-0.0233653
-0.0282738
-0.046108
-0.0735392
-0.0868618
-0.0762456
-0.0498065
-0.0234948
-0.00726733
-0.00241752
-0.0100748
-0.0393879
-0.0657498
-0.0763663
-0.0660133
-0.0285772
0.0161338
0.0384822
0.0361016
0.0227142
0.00810427
-0.0049947
-0.00799738
-0.000803209
-0.0016528
-0.015083
-0.0345042
-0.0362969
-0.0160506
0.00959087
0.0231408
0.0211663
0.0140997
0.00740314
-0.00105548
-0.0115894
-0.01442
-0.00472471
0.00449446
0.00686382
0.00352664
-0.00151772
-0.00631277
-0.00981678
-0.0106352
-0.00851532
-0.00539825
-0.00299387
-0.00177394
-0.00131581
-0.00110952
-0.000874048
-0.000529858
-0.000104136
0.000339789
0.000739492
0.0010487
0.00124288
0.00131719
0.00128286
0.00115853
0.000966557
0.000725357
0.000451359
0.000154954
-0.126216
-0.124589
-0.12765
-0.125311
-0.12814
-0.124693
-0.126537
-0.122292
-0.121628
-0.120965
-0.122639
-0.125871
-0.128666
-0.133741
-0.13836
-0.14706
-0.176246
-0.200348
-0.181549
-0.148471
-0.104246
-0.0426418
0.0544351
0.0957423
0.0757172
0.0514558
-0.00796696
-0.12627
-0.134297
-0.0622401
0.0102454
0.0478788
0.0352478
0.00602377
-0.0161115
-0.0232922
-0.0278754
-0.0458224
-0.0737721
-0.0874084
-0.0768245
-0.0501688
-0.0237357
-0.0074512
-0.00242137
-0.00967039
-0.0395034
-0.066108
-0.0769132
-0.0668009
-0.0293962
0.0155638
0.0380625
0.0359023
0.022709
0.00814833
-0.00503807
-0.00812637
-0.000795248
-0.00141689
-0.0150173
-0.0345787
-0.036642
-0.0164001
0.00940839
0.0231526
0.0212679
0.0141339
0.007468
-0.000985246
-0.0116282
-0.0145248
-0.00483441
0.00450273
0.00691079
0.00357096
-0.00149257
-0.00630142
-0.00982886
-0.0106613
-0.00854251
-0.00541037
-0.0029939
-0.00177162
-0.00131487
-0.00111019
-0.000875851
-0.000532086
-0.00010634
0.000337915
0.000738113
0.00104784
0.00124244
0.00131703
0.00128287
0.0011586
0.000966643
0.000725427
0.000451411
0.000154991
-0.126217
-0.124554
-0.127642
-0.125352
-0.128192
-0.124707
-0.126612
-0.122291
-0.121575
-0.120953
-0.122549
-0.12581
-0.12862
-0.133664
-0.138103
-0.145903
-0.178154
-0.20635
-0.185843
-0.149432
-0.106509
-0.0483006
0.046488
0.0914922
0.0739633
0.0494449
-0.0130512
-0.132627
-0.140207
-0.0652983
0.00747081
0.0452219
0.0330059
0.00423641
-0.017357
-0.0234867
-0.0276022
-0.0459615
-0.0745202
-0.0885915
-0.0778764
-0.0507916
-0.0241472
-0.00770214
-0.002309
-0.00954541
-0.0408397
-0.0675299
-0.0780813
-0.0680485
-0.0308148
0.0144997
0.0371776
0.0352319
0.0222216
0.0077223
-0.00531296
-0.00823932
-0.000712564
-0.00121286
-0.015186
-0.0349637
-0.0373786
-0.0170018
0.00898178
0.0230925
0.0212689
0.0140678
0.00745137
-0.000992669
-0.0117622
-0.0147277
-0.00496289
0.00456255
0.00699872
0.00360916
-0.00149244
-0.00631874
-0.00987221
-0.0107141
-0.0085763
-0.0054148
-0.00298444
-0.00176407
-0.00131272
-0.00111141
-0.000878064
-0.000534148
-0.000107817
0.000337157
0.000738047
0.00104831
0.00124323
0.00131792
0.0012837
0.00115926
0.000967142
0.000725763
0.000451636
0.000155118
-0.12622
-0.124503
-0.127641
-0.125416
-0.128268
-0.124722
-0.126739
-0.12229
-0.1215
-0.120905
-0.12239
-0.125771
-0.128547
-0.133666
-0.137744
-0.144072
-0.181088
-0.213866
-0.190528
-0.150145
-0.108877
-0.0544395
0.0378525
0.0859926