/*--------------------------------*- C++ -*----------------------------------*\
| =========                 |                                                 |
| \\      /  F ield         | OpenFOAM: The Open Source CFD Toolbox           |
|  \\    /   O peration     | Version:  2.4.0                                 |
|   \\  /    A nd           | Web:      www.OpenFOAM.org                      |
|    \\/     M anipulation  |                                                 |
\*---------------------------------------------------------------------------*/
FoamFile
{
    version     2.0;
    format      ascii;
    class       volScalarField;
    location    "1.61";
    object      p;
}
// * * * * * * * * * * * * * * * * * * * * * * * * * * * * * * * * * * * * * //

dimensions      [0 2 -2 0 0 0 0];

internalField   nonuniform List<scalar> 
8800
(
100.664
88.3157
80.9084
77.3765
75.4896
74.1005
72.8695
71.8029
70.7665
69.7799
68.8553
67.9157
66.9974
66.1459
65.2328
64.479
63.6358
62.8576
62.1125
61.336
97.554
87.9611
81.0784
77.4903
75.5499
74.1261
72.8757
71.8037
70.7658
69.7757
68.854
67.9131
66.9945
66.1458
65.2306
64.4775
63.6426
62.8433
62.1073
61.3007
95.5911
88.0339
81.6825
77.8654
75.7196
74.2035
72.9214
71.8368
70.7907
69.7919
68.867
67.917
66.9969
66.1457
65.2313
64.4765
63.6585
62.8414
62.1401
61.3015
94.0549
88.0909
82.2753
78.2887
75.905
74.2864
72.9867
71.8913
70.8403
69.8301
68.8988
67.9313
67.0134
66.1479
65.2436
64.4757
63.6933
62.8717
62.2939
61.3537
92.8039
88.0599
82.7584
78.6977
76.0759
74.3478
73.0404
71.9428
70.8989
69.8823
68.9397
67.9542
67.0359
66.1522
65.2595
64.4777
63.7308
62.9509
62.4388
61.4092
91.8152
87.9626
83.1342
79.0451
76.2295
74.3858
73.0775
71.98
70.9546
69.9322
68.9819
67.9788
67.0583
66.1569
65.2753
64.476
63.7532
63.012
62.556
61.4762
91.0605
87.8445
83.4092
79.3275
76.3698
74.409
73.092
72.0063
70.9995
69.9766
69.0157
68.0055
67.0707
66.1639
65.2813
64.4764
63.7447
63.0271
62.6514
61.9607
90.5054
87.7478
83.5889
79.5438
76.4892
74.4321
73.0857
72.0318
71.0269
70.0147
69.0375
68.032
67.0711
66.1761
65.2707
64.4849
63.708
62.9852
62.4091
62.4711
90.1462
87.6756
83.6993
79.6917
76.5786
74.4484
73.0749
72.0476
71.0477
70.0397
69.0526
68.0505
67.0935
66.1829
65.2729
64.4734
63.6865
62.9798
62.5053
63.0312
89.9694
87.6368
83.7524
79.7683
76.6236
74.4567
73.0683
72.0546
71.0592
70.0521
69.061
68.0592
67.0989
66.1867
65.275
64.4658
63.6876
62.9901
62.5758
63.1364
89.9644
87.6391
83.7413
79.7724
76.623
74.4599
73.0648
72.0555
71.0597
70.055
69.0604
68.0623
67.1022
66.1908
65.282
64.4717
63.6902
63.0132
62.619
63.3003
90.1382
87.6809
83.6857
79.7006
76.5793
74.4535
73.0728
72.0475
71.0489
70.0452
69.0528
68.0601
67.104
66.1945
65.2945
64.4809
63.7069
63.0347
62.6512
63.3861
90.4919
87.7582
83.5702
79.5571
76.4913
74.443
73.0806
72.0329
71.0273
70.0268
69.0358
68.0517
67.1042
66.2002
65.3075
64.4983
63.7305
63.0656
62.6658
63.3947
91.0422
87.8587
83.3872
79.3435
76.3651
74.4227
73.0883
72.0104
70.9961
69.9976
69.0106
68.0378
67.1003
66.2043
65.3245
64.5229
63.7617
63.1061
62.6719
63.3142
91.7991
87.9715
83.1192
79.059
76.2241
74.3944
73.0848
71.9749
70.9556
69.9596
68.9778
68.0166
67.095
66.2056
65.3412
64.549
63.8046
63.1602
62.6884
63.152
92.7839
88.0672
82.7519
78.7102
76.0704
74.3477
73.0614
71.9304
70.9061
69.9122
68.9406
67.9903
67.0878
66.2029
65.3579
64.5746
63.8557
63.2216
62.7365
62.9281
94.0332
88.0944
82.2748
78.3019
75.8996
74.2808
73.0178
71.8745
70.849
69.8636
68.9042
67.964
67.0803
66.1986
65.3721
64.594
63.9049
63.2791
62.8113
62.6822
95.5708
88.0312
81.6867
77.8778
75.7164
74.1933
72.9573
71.8194
70.8006
69.825
68.8779
67.9466
67.075
66.1967
65.3829
64.6085
63.9402
63.3208
62.8792
62.5498
97.5378
87.9531
81.0835
77.5017
75.5496
74.1145
72.9115
71.7881
70.7764
69.8076
68.8682
67.9425
67.075
66.1999
65.3903
64.6191
63.9564
63.3439
62.882
62.4896
100.652
88.3065
80.9138
77.3876
75.4902
74.0895
72.9035
71.7878
70.7787
69.8097
68.871
67.9454
67.0773
66.202
65.394
64.6228
63.9598
63.3493
62.8839
62.6075
61.4216
61.4696
61.4306
61.322
61.1506
60.8964
60.606
60.2801
59.9576
59.6898
59.4807
59.3361
59.2759
59.2696
59.3271
59.4439
59.6042
59.8141
60.0788
60.4438
60.8912
61.4847
62.1922
62.9765
63.8972
64.8419
65.8463
66.7753
67.5961
68.2985
68.7775
69.0881
69.0694
68.6425
67.8905
66.7028
65.0971
62.9941
60.4788
57.4869
54.0536
50.4732
46.5216
42.3904
38.5271
34.4002
30.4617
27.3761
24.0137
21.3453
19.8718
18.5036
17.7616
17.8062
19.2872
21.3745
23.4883
26.7708
30.6523
34.444
38.2728
42.1628
45.8507
48.984
52.2047
55.0808
57.6431
60.032
62.2604
64.4743
66.2749
68.1777
70.1282
71.9198
73.8582
75.6971
77.2164
78.9832
80.5922
81.7407
82.7472
83.8246
84.6291
84.9237
84.9446
84.5992
83.6593
82.2225
80.7363
79.3552
77.8976
76.2203
74.4746
72.9616
71.5362
70.0107
68.8945
68.193
67.303
66.2749
65.143
63.8892
62.8362
62.1935
62.3925
63.49
65.0429
67.0871
69.3033
71.178
72.8467
74.4409
75.7546
76.7543
77.602
77.846
77.4216
76.5526
74.9651
72.9522
70.7146
67.7485
63.7929
59.3738
54.6963
49.3739
43.9894
39.1773
35.1025
31.4973
28.8251
26.7476
25.1577
25.3062
27.2756
30.0865
33.963
39.1496
44.5974
49.9238
55.599
61.5282
67.6333
73.3079
78.3084
81.4774
83.0344
83.3343
83.3591
83.0251
82.469
81.4594
79.9679
77.8941
75.7274
73.4363
71.4181
69.3345
67.6517
66.8384
66.3354
66.1875
67.2593
68.9613
70.6481
72.3876
74.401
76.358
77.9416
79.4538
80.7252
81.822
82.73
83.4727
84.3933
85.0135
85.6203
86.199
86.4905
87.0097
87.5833
87.8698
88.4091
88.6325
89.0519
89.2376
89.4111
89.5313
89.65
90.0507
89.8649
90.1769
89.8188
89.531
88.3562
85.9228
81.7017
74.1143
63.291
23.0647
61.1666
61.1511
61.1649
61.1699
61.0891
60.8704
60.5971
60.29
59.9651
59.7233
59.5333
59.3977
59.3465
59.3327
59.3862
59.4913
59.6448
59.8625
60.1308
60.5463
61.0011
61.61
62.3454
63.135
64.1029
65.0139
66.0099
66.9134
67.6837
68.3989
68.8917
69.2487
69.225
68.8142
68.0302
66.8542
65.3497
63.1667
60.7293
57.9313
54.4107
50.868
47.3609
43.1788
39.2271
35.8605
32.0357
28.7012
26.105
23.7924
22.0242
20.8958
20.8061
20.8528
22.1139
24.4494
26.7549
29.7153
33.0827
36.6926
40.1734
43.3712
46.649
49.502
52.2057
54.7233
57.0882
59.3914
61.3078
63.2679
64.9835
66.8236
68.6038
70.0341
71.7284
73.4838
75.0611
76.8577
78.4631
79.7066
80.691
81.6672
82.3957
82.7788
83.046
83.0555
82.497
81.4372
80.2501
79.1683
78.1315
76.9564
75.7105
74.5693
73.2999
72.0977
71.495
71.0634
70.1956
69.396
68.4358
67.0657
65.7685
64.9965
65.2099
66.4925
68.3489
70.5427
72.7697
74.5619
76.0508
77.4635
78.5196
79.1558
79.5499
79.3558
78.567
77.3551
75.4082
73.0341
70.315
66.6613
62.0665
56.8717
51.3327
45.5529
39.9159
34.8582
30.5089
26.7351
23.7906
21.3771
19.8077
20.1527
22.2413
25.1752
29.5765
35.3132
41.115
47.0246
53.2216
59.7984
66.411
72.8877
78.0123
81.6155
83.2803
83.4771
83.566
83.6985
83.3367
82.7025
81.5164
79.8134
77.8739
75.8784
74.1162
72.3495
70.5972
69.5498
69.3246
69.1337
69.8205
71.0524
72.5361
73.8984
75.3204
76.7639
78.0901
79.4058
80.4768
81.4012
82.194
82.8817
83.6736
84.3188
84.9459
85.3662
85.6875
86.1298
86.7208
87.075
87.468
87.6742
87.9975
88.1076
88.1911
88.1561
88.1974
88.1623
87.5773
87.0235
86.6902
85.2931
83.6843
80.4909
75.3617
64.0151
52.2313
12.5133
61.2074
61.1849
61.1164
61.1353
61.118
60.9026
60.6423
60.323
59.9749
59.7618
59.6065
59.4872
59.478
59.4782
59.5278
59.6479
59.8053
60.0342
60.3041
60.7518
61.1946
61.8094
62.5501
63.2875
64.257
65.0707
66.0439
66.9036
67.6368
68.3605
68.6817
69.0803
68.904
68.4934
67.8744
66.5957
65.1962
63.2487
60.6288
57.9555
54.9271
51.1776
47.8156
44.3796
40.3311
37.1201
34.0256
30.665
28.1379
26.42
24.9514
23.8118
24.0001
24.4938
25.5816
27.7689
30.046
32.6175
35.5337
38.818
41.6612
44.4367
47.4243
49.8796
52.2668
54.5563
56.5036
58.4283
60.1464
61.9247
63.455
64.9542
66.5806
68.1119
69.8528
71.4262
72.6874
74.1052
75.8824
77.2695
78.5551
79.698
80.4515
80.9107
81.3631
81.6591
81.4336
80.8686
80.1697
79.3827
78.6142
77.8644
77.0608
76.0508
74.7193
73.842
73.6597
73.1693
72.4779
71.8692
70.9737
69.5797
68.1962
67.3698
67.5682
68.997
71.2113
73.6141
75.8131
77.5723
79.0408
80.2861
81.0431
81.4119
81.5528
81.0741
79.9756
78.4628
76.2359
73.5293
70.2434
65.8073
60.5754
54.9356
48.7069
42.3321
36.2841
30.9808
26.4158
22.4817
19.2009
16.6058
15.1367
15.7292
17.8046
21.0349
25.8934
31.907
38.062
44.5897
51.3434
58.6469
65.726
72.9852
78.1679
82.0825
83.7764
83.7749
84.1685
84.565
84.2956
83.9038
82.8938
81.6437
80.0485
78.1909
76.7004
75.2111
73.5606
72.4343
72.2286
71.988
72.3018
73.0402
74.1568
74.9959
76.0104
77.0741
78.2736
79.3782
80.1909
80.9746
81.7271
82.3356
83.0524
83.6561
84.1828
84.53
84.9311
85.2934
85.9046
86.1953
86.5602
86.6844
87.0278
86.9557
87.2552
86.711
87.2815
85.846
85.4525
84.0318
83.0014
80.9895
79.0058
74.02
70.1623
54.7736
43.118
15.3221
60.497
60.6095
61.1071
61.4234
61.4571
61.113
60.7392
60.3743
60.0088
59.8208
59.7045
59.6161
59.6641
59.711
59.7727
59.9043
60.0804
60.3058
60.5625
61.0326
61.4376
62.0249
62.7478
63.3835
64.3338
65.0317
65.9267
66.7717
67.3126
68.0279
68.2535
68.5533
68.5103
67.9211
67.3729
66.2787
64.6748
62.9631
60.6352
57.7844
55.2495
51.887
48.2978
45.5843
41.9374
38.5514
36.1799
33.2918
30.8223
29.4133
28.3957
27.4338
27.6307
28.3111
29.2678
31.0871
33.0981
35.5155
37.7152
40.4358
43.1443
45.4152
47.9923
50.1126
52.1932
54.2083
55.9143
57.651
59.1268
60.4633
61.6473
62.9861
64.5188
65.7275
67.2039
68.8157
70.3207
71.9561
73.5292
74.8606
76.2013
77.5247
78.579
79.2909
79.9331
80.4583
80.5948
80.5718
80.3684
79.9708
79.5684
79.0202
78.451
77.6626
76.4734
75.9723
76.0668
75.6747
75.0561
74.3733
73.3014
71.7705
70.2417
69.2602
69.5279
71.1889
73.5689
76.091
78.4475
80.2975
81.7573
82.9426
83.583
83.7346
83.5994
82.9383
81.6609
79.8693
77.322
74.2423
70.3402
65.209
59.3814
53.2631
46.662
39.7977
33.3225
27.6583
22.7635
18.6902
15.3016
12.7494
11.6083
12.244
14.2495
17.6547
22.9072
29.1965
35.6328
42.662
50.1609
57.8223
65.5463
72.9935
78.4572
82.3633
84.0997
84.4279
84.9606
85.436
85.4067
85.1993
84.4103
83.6012
82.2228
80.5557
79.2546
78.0439
76.4857
75.24
74.8537
74.4456
74.2732
74.5603
75.2871
75.8105
76.6301
77.3703
78.3985
79.2787
79.9797
80.5915
81.2435
81.8009
82.4878
83.0221
83.437
83.7201
84.1665
84.4359
85.0135
85.1837
85.6262
85.5701
86.1486
85.5386
86.5857
84.7578
86.0868
82.6297
82.9759
79.9084
80.8196
75.3501
76.8593
66.7146
65.7557
49.265
34.5826
17.1985
60.2483
60.5313
61.4135
61.8756
61.8655
61.3745
60.8574
60.4278
60.0491
59.9017
59.8288
59.7823
59.9047
60.0023
60.0714
60.2017
60.412
60.6339
60.85
61.322
61.7179
62.2172
62.9029
63.4607
64.2844
64.9248
65.6649
66.4378
66.8451
67.4732
67.7216
67.8156
67.8813
67.2611
66.6235
65.8327
64.1599
62.4978
60.7803
57.8771
55.4404
52.9466
49.339
46.8125
44.0674
40.7761
38.4665
36.3185
34.2834
32.7875
32.0591
31.3888
31.3516
32.0903
32.7728
34.2239
35.864
37.8166
39.7238
41.9305
44.338
46.2411
48.5095
50.4546
52.2316
53.8858
55.2405
56.6171
57.7789
58.9278
59.9748
61.0228
62.1619
63.1265
64.5278
66.0624
67.3308
68.9519
70.6829
72.3187
73.8638
75.3003
76.6265
77.6393
78.5912
79.4717
80.015
80.3828
80.5552
80.7385
80.7761
80.2866
79.8844
79.3217
78.5658
78.468
78.5773
78.4312
77.9359
76.9783
75.5719
73.8509
72.0585
70.9008
71.2606
73.0127
75.4909
78.2427
80.7205
82.5633
84.0348
85.2016
85.8046
85.9094
85.6445
84.823
83.4725
81.4803
78.6608
75.149
70.5938
64.8242
58.5356
52.0245
45.0169
37.7496
30.9279
24.9947
19.827
15.5481
12.1755
9.76829
8.85049
9.50703
11.475
15.0841
20.6484
27.0552
33.8915
41.4061
49.6312
57.3559
65.8193
73.4382
79.2218
82.8465
84.5945
85.2965
85.6241
86.3949
86.6265
86.6468
85.9879
85.3876
84.2052
82.8286
81.6296
80.4663
78.8112
77.5095
76.8126
76.0883
75.6945
75.6989
76.1286
76.5448
77.0638
77.6171
78.4612
79.2099
79.7904
80.2357
80.8032
81.3579
81.9449
82.3049
82.7379
82.9308
83.3946
83.5774
84.0182
84.0361
84.534
84.2065
85.1223
83.6568
85.563
81.4569
83.1222
76.7816
77.6981
72.6034
75.9965
67.0764
70.9935
58.6347
57.1308
44.9745
30.8075
19.6779
60.3481
60.6953
61.6425
62.0825
61.9891
61.488
60.8889
60.4416
60.1588
60.0435
60.0279
60.0436
60.1734
60.3203
60.3915
60.5238
60.743
60.967
61.1718
61.5534
61.9847
62.3897
62.9692
63.5217
64.1875
64.7896
65.3477
66.0405
66.4175
66.8308
67.1613
67.1432
67.1064
66.6733
65.9057
65.2081
63.9201
62.1895
60.7515
58.4349
55.981
53.9934
51.0774
48.5018
46.2677
43.5224
41.2767
39.5478
37.8554
36.3545
35.6864
35.1753
34.8236
35.3722
35.893
36.9195
38.1582
39.7554
41.5106
43.2234
45.4272
47.1322
48.9077
50.6553
52.204
53.5536
54.6708
55.7657
56.6064
57.4147
57.9562
58.5561
59.518
60.4097
61.6446
62.9834
64.2356
65.9507
67.7366
69.4104
71.1286
72.902
74.6304
76.0822
77.4481
78.6597
79.6008
80.287
80.8194
81.5434
81.7723
81.416
81.193
80.8144
80.5778
80.6982
80.8575
81.0095
80.4804
79.2557
77.6692
75.7637
73.7366
72.4901
72.8682
74.6851
77.2523
80.1145
82.6145
84.3843
85.8687
87.0724
87.6506
87.8065
87.5635
86.7148
85.3289
83.2072
80.1413
76.2154
71.1231
64.8712
58.1844
51.299
43.9247
36.3192
29.1805
22.9467
17.6265
13.2328
9.86834
7.59288
6.67591
7.3057
9.38007
13.3024
19.1447
25.6503
32.974
40.813
49.5805
57.7579
66.389
74.3202
80.232
83.5603
85.1716
85.7945
86.1295
87.1417
87.582
87.6076
87.1013
86.6215
85.6818
84.4873
83.3238
81.9442
80.288
78.984
78.0081
77.2165
76.8065
76.5599
76.7622
77.0891
77.4026
77.9126
78.5313
79.1681
79.5913
79.9016
80.4509
81.024
81.4207
81.628
82.0905
82.2455
82.6673
82.5388
82.9988
82.6833
83.3927
82.598
84.0297
81.6726
83.0298
78.4696
75.4455
70.3967
69.518
63.9404
64.534
56.5612
55.769
48.8723
44.2771
38.2849
30.7549
23.4114
61.1656
61.2663
61.6564
61.6994
61.4678
61.1
60.6863
60.3742
60.2645
60.259
60.264
60.3444
60.4784
60.6356
60.7064
60.801
61.0534
61.226
61.4138
61.7661
62.1551
62.5102
62.9903
63.5391
64.0757
64.5984
65.0882
65.6482
66.0158
66.2907
66.5845
66.5919
66.4398
66.1146
65.4085
64.7305
63.7502
62.1571
60.8339
59.1199
56.85
55.1057
52.8888
50.3213
48.3938
46.3373
44.2093
42.5367
41.2053
39.8954
38.8678
38.3225
37.9499
38.1317
38.408
39.2044
40.3275
41.5016
43.1392
44.5809
46.2833
47.941
49.5555
51.0169
52.1589
53.1706
54.0226
54.7483
55.1694
55.6519
55.9577
56.3011
56.9652
57.464
58.3133
59.5337
60.8297
62.5418
64.5128
66.4799
68.4529
70.5489
72.6328
74.4981
76.2581
77.8881
79.3132
80.2648
81.2038
82.2137
82.5253
82.5378
82.4833
82.3119
82.3698
82.4169
82.7246
83.081
82.4609
81.2258
79.6531
77.5865
75.4925
74.3744
74.7686
76.4095
78.9058
81.8104
84.185
85.8011
87.2817
88.5614
89.2041
89.4712
89.3106
88.5407
87.1493
84.8911
81.5965
77.3131
71.8142
65.2786
58.35
51.1223
43.4493
35.6844
28.3073
21.7773
16.2573
11.7658
8.36396
6.10614
5.16949
5.75946
8.03062
12.325
18.3931
25.0603
33.0328
41.21
49.9635
58.858
67.1234
74.4446
80.0761
83.1953
84.9854
85.7443
86.4137
87.446
87.9588
87.8481
87.6063
87.2222
86.4469
85.3065
84.1248
82.6581
81.1116
79.8655
78.8243
78.0495
77.6005
77.2301
77.2969
77.5083
77.7465
78.0932
78.6441
79.1504
79.3746
79.6547
80.1251
80.6662
80.9203
81.1036
81.4501
81.5216
81.9906
81.4857
81.9562
81.2665
81.9684
80.8562
81.9983
78.7406
77.6097
70.5261
65.7616
62.5072
61.819
57.4035
55.0634
51.1381
48.0412
43.5907
36.8357
37.2226
33.217
26.8282
63.5143
63.1445
61.921
60.9591
60.4399
60.2375
60.163
60.1978
60.338
60.5066
60.5529
60.659
60.8184
60.9136
60.9821
61.0737
61.2666
61.4532
61.5976
61.9112
62.2724
62.5824
63.0267
63.4816
63.9628
64.4384
64.8351
65.3254
65.6913
65.8695
66.0896
66.1327
65.9297
65.6767
65.1312
64.422
63.6715
62.3677
61.0325
59.7963
57.879
56.0989
54.3951
52.3215
50.4742
48.7538
46.9948
45.3139
43.978
42.7524
41.6851
41.1417
40.6024
40.548
40.8491
41.3298
42.2065
43.1941
44.5558
45.8127
47.3148
48.7353
49.9074
51.147
52.1657
53.118
53.677
53.8585
53.9323
54.0306
53.8225
53.6117
53.7939
54.0583
54.8393
55.9781
57.1778
58.8966
60.9682
63.1749
65.6178
68.1437
70.5808
72.9951
75.1673
77.2451
79.0852
80.3216
81.6799
82.8435
83.4501
83.7661
83.7508
83.7938
83.8807
83.9146
84.383
84.5457
83.9796
83.0093
81.616
79.607
77.6678
76.626
76.827
78.2331
80.6313
83.2954
85.3902
86.9111
88.3211
89.5763
90.4425
90.9183
90.8734
90.1847
88.8172
86.4553
82.9349
78.3845
72.647
66.0121
58.9842
51.5309
43.6746
35.8438
28.3795
21.6841
15.9443
11.2685
7.69603
5.40315
4.50118
5.23308
7.78853
12.3541
18.6737
25.6795
34.0372
42.8481
51.5644
60.5006
68.535
74.7347
79.3255
82.3155
84.2587
85.4356
86.4069
87.4709
87.959
87.8078
87.6895
87.393
86.6847
85.5933
84.4408
83.0595
81.5749
80.4309
79.4273
78.6745
78.218
77.8159
77.7377
77.935
77.9945
78.1983
78.7665
79.0961
79.2065
79.4269
79.8622
80.272
80.4228
80.6276
80.7218
80.8541
81.16
80.47
80.7094
79.6623
80.2573
78.246
78.547
72.8523
68.032
60.2142
57.023
55.6807
55.4177
52.4014
49.6836
51.4223
49.6493
48.7658
44.1592
43.1601
37.1435
30.8864
64.4515
63.8903
62.0725
60.6107
59.8607
59.7273
59.8771
60.1195
60.4473
60.7299
60.8506
60.9839
61.1224
61.2007
61.2184
61.2928
61.456
61.62
61.7488
62.0016
62.3621
62.6343
63.0192
63.4584
63.8756
64.293
64.6528
65.066
65.4042
65.5457
65.7033
65.78
65.5869
65.3663
64.9412
64.2761
63.6664
62.6433
61.4275
60.359
58.8978
57.2575
55.7413
54.1336
52.4938
50.8742
49.2954
47.7674
46.5019
45.3498
44.2069
43.5968
43.1176
42.8463
42.9892
43.2248
43.8999
44.772
45.8034
46.8461
48.1204
49.38
50.5284
51.8572
52.5137
52.9247
53.1509
53.0662
52.8818
52.3424
51.5913
51.0103
50.7207
50.5834
51.0414
51.9094
53.0859
54.9866
57.1599
59.6041
62.6264
65.6182
68.5034
71.4443
74.1007
76.7892
78.9625
80.5848
82.2888
83.667
84.5832
84.9005
85.0132
85.2719
85.2395
85.3376
85.7891
85.7694
85.3972
84.7979
83.5047
81.6479
79.9971
79.0735
79.1487
80.3445
82.3418
84.4391
86.2123
87.7233
89.084
90.3032
91.3443
92.0383
92.1494
91.5692
90.227
87.8366
84.2036
79.46
73.6674
67.12
60.1657
52.6513
44.7131
36.8463
29.369
22.6097
16.7356
11.873
8.14803
5.7722
4.95782
5.99184
8.85261
13.7934
20.1569
27.591
36.1998
45.6746
54.5313
63.1542
70.9433
76.6919
79.9039
82.5167
84.0889
85.3372
86.3426
87.4343
87.9171
87.8173
87.6347
87.3789
86.6726
85.6666
84.5866
83.3102
81.9539
80.9075
79.8627
79.1725
78.7624
78.2629
78.1584
78.3414
78.219
78.3417
78.7669
78.9945
79.0615
79.2288
79.5894
79.898
79.9213
80.2356
80.0557
80.2023
80.2844
79.512
79.3173
77.7154
77.9405
74.8943
72.8413
65.1125
57.8345
55.0745
54.3985
54.7588
53.1507
52.0705
50.5137
52.6892
51.9056
53.2388
48.7848
46.293
39.2321
34.4919
64.8327
64.3665
62.3712
60.7022
59.7799
59.5507
59.7587
60.1005
60.5259
60.9145
61.0827
61.2535
61.3793
61.4359
61.4512
61.4606
61.6244
61.7419
61.8537
62.1044
62.3863
62.6894
63.0187
63.3954
63.8156
64.1617
64.4782
64.8563
65.151
65.2811
65.4046
65.4908
65.3595
65.144
64.788
64.3004
63.7535
62.8838
61.8752
60.9107
59.7665
58.4163
57.1041
55.6884
54.2535
52.8194
51.3973
50.0815
48.7749
47.7387
46.726
45.852
45.3542
44.8884
44.7899
45.0264
45.3931
45.9262
46.8235
47.9246
49.0926
50.2908
51.2122
52.1137
52.6914
53.1321
53.2526
52.748
52.009
50.8307
49.6089
48.5325
47.5517
46.9718
47.1605
47.9188
48.9382
51.0213
53.489
56.0551
59.4208
62.8573
66.3383
69.8964
73.1597
76.3739
78.9871
81.132
82.9621
84.5788
85.6736
86.007
86.365
86.5988
86.5048
86.7283
86.9975
86.965
86.8106
86.2794
85.0701
83.6233
82.3304
81.4398
81.451
82.4975
84.0082
85.4389
86.791
88.216
89.5793
90.7881
91.953
92.7966
93.0051
92.5337
91.2762
88.9477
85.3827
80.6113
74.8399
68.4478
61.7008
54.4026
46.5394
38.7013
31.2564
24.4707
18.5851
13.6849
9.89548
7.49489
6.83279
8.11383
11.3175
16.4771
22.9061
30.8501
39.8878
49.7125
58.2739
67.2464
73.9905
79.1124
81.8326
83.7494
84.8731
85.6563
86.5306
87.5319
88.042
87.9282
87.6321
87.3675
86.5877
85.6889
84.6715
83.4721
82.3059
81.3665
80.3043
79.7049
79.2432
78.6548
78.594
78.5984
78.4723
78.4658
78.7236
78.9102
78.8139
79.0285
79.2039
79.5428
79.4599
79.7844
79.5871
79.6906
79.476
78.6647
77.9285
75.6531
74.9254
70.6587
65.6829
58.1694
53.1247
54.8719
56.6368
57.0451
55.8277
56.9969
55.7254
57.0174
55.595
56.2427
50.5883
46.5628
40.8259
36.4367
65.0939
64.629
62.6421
60.8844
59.8205
59.5383
59.7219
60.1183
60.6259
61.0364
61.291
61.4549
61.5704
61.6372
61.6191
61.5951
61.7398
61.8707
61.9268
62.1688
62.4576
62.6938
63.0041
63.3525
63.726
64.0527
64.317
64.6761
64.9511
65.0641
65.1916
65.2774
65.2232
65.032
64.7384
64.3635
63.9038
63.2404
62.3569
61.5753
60.712
59.5105
58.3294
57.1512
55.9687
54.7052
53.3788
52.1812
50.9739
49.8759
48.8609
47.9499
47.2776
46.7656
46.5363
46.3912
46.5567
47.218
47.9366
48.7271
49.6991
50.8132
51.9008
52.8552
53.4576
53.6335
53.3423
52.5496
51.4403
49.7927
47.9464
46.2303
44.6365
43.6856
43.5157
44.0178
45.2861
47.2849
49.7129
52.6991
56.2522
60.1399
64.2788
68.1995
72.2548
76.117
79.1917
81.7672
83.7882
85.6308
86.7163
87.1791
87.6789
87.8108
87.8546
88.0709
88.0465
87.9981
87.9224
87.3168
86.2524
85.1962
84.2538
83.553
83.519
84.2744
85.4092
86.3675
87.224
88.3959
89.7442
91.0078
92.2185
93.1247
93.3845
92.9883
91.862
89.7046
86.3366
81.7168
76.1004
69.9297
63.4366
56.4613
48.9015
41.2781
34.0038
27.3024
21.4786
16.6229
12.857
10.5858
10.1668
11.66
15.1097
20.3418
27.3447
35.4454
44.9775
55.0732
63.2172
72.0128
77.7341
81.5096
84.2075
85.542
86.2575
86.4923
87.0167
87.8518
88.3214
88.0911
87.7651
87.4018
86.5023
85.7107
84.7763
83.6466
82.6104
81.763
80.7691
80.2775
79.7437
79.0525
78.9569
78.841
78.6476
78.5533
78.7242
78.7018
78.5629
78.7918
78.8738
79.1218
78.9008
79.2673
78.994
79.2515
78.6202
78.0179
76.7769
73.968
71.9297
65.4095
59.5453
55.8608
55.202
57.9902
59.495
60.6697
60.8805
62.9816
60.0892
61.0001
57.4096
55.655
50.2438
45.9159
40.2193
34.985
65.2444
64.7871
62.7627
61.0147
59.9209
59.581
59.8107
60.1997
60.7325
61.1775
61.418
61.6233
61.7165
61.7833
61.7551
61.7183
61.8625
61.9427
62.02
62.2173
62.4706
62.7225
62.9771
63.3118
63.6635
63.9473
64.1905
64.502
64.788
64.9005
65.0039
65.1524
65.1314
64.9696
64.781
64.4949
64.1374
63.6301
62.9404
62.3018
61.5199
60.5771
59.655
58.6043
57.5913
56.4903
55.2599
54.1498
52.9798
51.8393
50.8322
49.9043
49.0652
48.3281
47.9128
47.7499
47.7994
48.0147
48.4044
49.2968
50.4584
51.53
52.6237
53.5778
54.0564
54.212
53.8739
52.7734
51.1364
49.0528
46.6915
44.3821
42.4329
41.0255
40.4417
40.6358
42.0359
44.2736
46.7479
49.6565
53.4455
57.7233
62.2217
66.8324
71.5779
75.8664
79.6466
82.4881
84.7257
86.7681
87.8294
88.4827
88.9535
89.0356
89.237
89.2528
88.992
88.9544
88.7906
88.1202
87.2249
86.4325
85.7354
85.2021
85.1269
85.5886
86.3945
87.1859
87.7117
88.3672
89.5226
90.9013
92.1368
93.0089
93.262
92.9601
92.0015
90.0779
86.9871
82.7103
77.3937
71.5415
65.445
58.8065
51.6107
44.3928
37.4164
30.9638
25.2921
20.4972
16.8471
14.7815
14.5424
16.2229
19.917
25.5367
33.1572
41.6475
51.3738
61.5473
69.5231
76.9942
82.2439
85.0539
87.1353
88.0402
88.1399
87.8734
87.816
88.4383
88.7466
88.3552
88.0099
87.5099
86.5454
85.7499
84.8473
83.8665
82.928
82.1207
81.1435
80.732
80.2516
79.5101
79.3279
79.0345
78.731
78.557
78.6325
78.5181
78.3158
78.484
78.4529
78.5923
78.4443
78.7555
78.3545
78.6542
77.6385
77.494
75.4272
73.2247
69.8405
61.9939
58.3317
58.6819
60.0003
62.3564
62.816
64.012
64.5214
65.1136
61.7546
62.2463
55.8754
52.8455
49.1375
44.0106
38.5832
34.2385
65.2565
64.7746
62.7989
61.1284
60.0639
59.7411
59.9897
60.3966
60.8932
61.3403
61.5674
61.7601
61.8442
61.8624
61.884
61.8027
61.924
62.0547
62.0745
62.2743
62.5178
62.7326
62.9606
63.2549
63.5781
63.8389
64.0818
64.3679
64.6447
64.778
64.9077
65.0416
65.0715
65.0256
64.8573
64.6804
64.4813
64.0566
63.5143
63.0144
62.448
61.7083
60.8625
60.0212
59.1796
58.151
57.0234
55.9888
54.91
53.8259
52.673
51.5479
50.6639
49.8391
49.1755
48.6644
48.4219
48.6533
49.1175
49.8812
50.9364
52.0563
53.2206
54.272
54.837
54.9556
54.4716
53.1107
51.1208
48.5739
45.723
42.9717
40.6788
39.0505
38.2882
38.8105
39.9451
41.8699
44.5422
47.678
51.4584
55.989
60.5594
65.6831
71.2158
75.9745
80.0295
83.3252
86.0733
87.954
89.0508
89.953
90.2202
90.2065
90.4491
90.3153
89.9535
89.8256
89.4765
88.8072
88.0874
87.4364
86.9064
86.5024
86.4551
86.7774
87.2255
87.7129
88.0349
88.3089
89.1207
90.4396
91.6832
92.4922
92.7109
92.5291
91.7738
90.1386
87.4241
83.6224
78.6778
73.3073
67.578
61.387
54.7088
47.9074
41.2897
35.1918
29.7528
25.1449
21.7304
19.8427
19.7899
21.7856
25.904
32.0812
40.1627
49.3869
58.9036
68.5161
76.2926
82.8519
87.1579
89.4012
90.6955
90.9774
90.6088
89.8402
89.1925
89.363
89.4231
88.8343
88.3521
87.6979
86.6845
85.8976
84.9781
84.093
83.2844
82.5202
81.5871
81.1516
80.5728
79.8468
79.7741
79.2218
78.7553
78.5709
78.4609
78.1487
77.9968
78.1637
77.9641
78.0681
77.9521
78.136
77.7532
78.0736
76.8233
76.9871
73.9877
73.2827
68.7626
63.6421
63.0554
62.5918
64.5206
66.2539
66.3048
66.5496
65.9935
65.0245
61.9077
61.4048
54.1883
50.4353
48.1056
43.6152
39.7336
35.8755
65.0959
64.6207
62.74
61.2374
60.3011
60.042
60.3234
60.7016
61.1196
61.5089
61.7092
61.8374
61.9244
61.9461
61.9282
61.9078
61.9878
62.0912
62.1611
62.3131
62.5311
62.7412
62.9394
63.1954
63.4963
63.7465
63.9685
64.2436
64.511
64.673
64.8238
64.99
65.0833
65.077
65.0246
64.9509
64.7718
64.5108
64.1769
63.7658
63.305
62.756
62.1226
61.3623
60.587
59.7807
58.7627
57.7064
56.6026
55.4424
54.2983
53.1021
51.9584
50.8978
50.0909
49.5352
49.1875
49.2141
49.5219
50.2707
51.3994
52.56
53.7253
54.8144
55.485
55.5762
55.0117
53.539
51.2658
48.3623
45.0931
41.9804
39.3942
37.5935
36.8107
37.1173
38.3946
40.5333
43.2954
46.4124
50.3542
54.9268
59.7818
65.3668
70.9731
76.2258
80.8028
84.4642
87.4661
89.272
90.442
91.2772
91.3728
91.4483
91.5627
91.2031
90.7939
90.5515
90.0879
89.4757
88.8655
88.3371
87.9434
87.6021
87.5042
87.8792
88.2278
88.1601
87.9651
88.078
88.8248
89.9733
91.0488
91.6506
91.8984
91.795
91.2457
89.9658
87.7357
84.3465
80.0163
75.1255
69.7706
64.0469
57.9728
51.6695
45.4844
39.7293
34.5343
30.2066
27.0434
25.3563
25.7069
28.2971
33.0495
39.7232
48.2015
57.6901
66.9858
75.8518
83.1167
88.7436
92.1693
93.7813
94.3674
94.0726
93.4625
92.2732
91.0944
90.6091
90.3221
89.5451
88.8686
87.9993
86.9339
86.1596
85.138
84.3593
83.6229
82.8596
82.1309
81.6639
80.903
80.0855
79.9696
79.371
78.8633
78.5418
78.184
77.8426
77.6137
77.6364
77.4807
77.6324
77.3562
77.3847
76.9356
77.4475
76.1618
76.5408
72.9493
73.7296
68.9049
69.5284
69.6765
66.8825
69.1747
69.5312
68.4492
67.4814
65.7297
63.8599
61.3951
59.76
53.9433
51.1105
47.837
44.9797
41.9047
36.9615
64.6674
64.2212
62.5985
61.3344
60.6337
60.494
60.7505
61.0805
61.396
61.6951
61.8292
61.9117
61.975
61.9562
61.9722
61.9713
62.0307
62.1432
62.2221
62.36
62.5438
62.7344
62.9168
63.1433
63.412
63.6428
63.8752
64.1495
64.3936
64.5923
64.7871
64.9603
65.1001
65.1832
65.2117
65.2048
65.1459
64.9989
64.7613
64.4927
64.142
63.707
63.2087
62.5786
61.9131
61.1597
60.1604
59.0852
57.9901
56.7682
55.4872
54.2215
53.0006
51.8552
50.9061
50.2257
49.789
49.6747
49.9309
50.6367
51.7199
52.9248
54.1196
55.1915
55.8836
55.9716
55.3224
53.8049
51.4431
48.3867
44.9285
41.565
38.7605
36.8205
35.9842
36.2784
37.6504
39.8635
42.6697
46.0279
50.0814
54.6254
59.761
65.5001
71.415
76.955
81.6645
85.904
88.8454
90.4105
91.8312
92.5901
92.489
92.5594
92.5477
92.0659
91.4623
91.085
90.605
90.1587
89.5656
89.0454
88.7745
88.5243
88.4144
88.7684
89.1222
88.7697
88.053
87.8912
88.6004
89.6258
90.418
90.8336
91.0067
90.9242
90.5187
89.5754
87.8209
85.0319
81.3145
76.9239
72.0117
66.7456
61.1569
55.3471
49.6436
44.2634
39.4075
35.4044
32.4613
31.1622
32.1788
35.5086
40.838
47.9064
56.5671
65.8255
74.9993
83.0381
89.7312
94.0273
96.8636
97.9779
97.7453
97.0711
96.1961
94.7821
93.1636
92.0762
91.411
90.4312
89.5227
88.4537
87.3069
86.5121
85.4374
84.585
83.8813
83.2083
82.5354
82.0929
81.4112
80.4711
80.0323
79.2946
78.8553
78.5164
77.8919
77.5039
77.1853
77.1016
76.9782
77.0936
76.7491
76.6572
76.3599
76.9421
75.6799
76.0481
72.5218
74.2072
70.1993
75.0826
74.219
74.0939
75.0974
70.7621
69.5427
67.5469
65.3213
62.6002
60.789
58.6765
54.612
52.1457
47.8765
46.1253
42.6706
37.2436
63.9285
63.5718
62.4434
61.5832
61.1198
61.0776
61.2484
61.4738
61.6818
61.8283
61.923
61.9539
61.9761
61.9807
61.9797
62.022
62.0879
62.1668
62.275
62.4098
62.5455
62.7249
62.9015
63.0867
63.3371
63.5627
63.7959
64.0673
64.31
64.534
64.7589
64.9665
65.1381
65.278
65.3855
65.4461
65.447
65.3853
65.2669
65.0694
64.7931
64.4696
64.0443
63.481
62.8601
62.1355
61.1812
60.0756
58.9219
57.6837
56.3408
55.0154
53.7765
52.5943
51.553
50.7651
50.3004
50.1796
50.4128
50.9942
51.8865
53.0852
54.3697
55.341
55.9066
55.9699
55.3473
53.8965
51.6186
48.5838
45.176
41.82
38.9744
36.9504
36.0279
36.2815
37.6459
39.8527
42.7313
46.2052
50.3225
55.0772
60.4064
66.2662
72.3166
77.9382
82.9813
87.2196
89.9598
91.7819
93.0472
93.4885
93.5943
93.6284
93.3104
92.8385
92.4831
91.6654
90.9785
90.5793
90.1268
89.6276
89.384
89.1879
89.0901
89.4177
89.6898
89.283
88.5629
88.3036
88.7672
89.4152
89.8518
90.0675
90.174
90.0966
89.7788
89.0671
87.7465
85.5844
82.5484
78.7263
74.3088
69.4663
64.2687
58.8654
53.5855
48.6223
44.1827
40.4966
37.8937
37.2886
39.1169
42.8594
48.4383
55.8396
64.5379
73.43
82.2011
89.5804
95.5102
98.7388
101.07
101.68
100.768
99.7684
98.5509
96.9779
95.1899
93.6431
92.5419
91.3986
90.2087
88.9789
87.7809
86.7724
85.7767
84.9394
84.085
83.5083
82.8942
82.4115
81.7344
80.9188
80.2967
79.2081
78.7594
78.3409
77.5365
77.148
76.7717
76.5603
76.4834
76.6301
76.1605
76.0022
76.0166
76.6027
75.5335
75.4293
72.722
74.7313
71.9886
78.1792
76.3776
80.013
78.1013
71.16
70.8019
66.8903
64.4631
61.6752
60.1781
58.0609
54.8494
52.1965
48.271
46.9177
42.75
37.7551
63.1127
62.928
62.3824
61.9498
61.7164
61.6673
61.7177
61.8086
61.8784
61.9285
61.9647
61.9672
61.9854
61.9897
62.006
62.0633
62.1153
62.1888
62.3109
62.4279
62.5489
62.7214
62.8864
63.0591
63.2848
63.5108
63.7433
64.0093
64.2551
64.4866
64.7393
64.962
65.1625
65.3489
65.4979
65.607
65.6492
65.6471
65.5884
65.4368
65.208
64.9184
64.5364
64.0034
63.3873
62.6803
61.7551
60.6623
59.4898
58.2401
56.9084
55.5549
54.3037
53.1587
52.1251
51.2851
50.7352
50.5798
50.8456
51.4165
52.1083
53.0621
54.188
55.1833
55.6844
55.6477
55.0159
53.6957
51.6548
48.938
45.7909
42.6189
39.8635
37.87
36.8961
37.0548
38.2946
40.442
43.3431
46.9209
51.184
56.0885
61.5483
67.6007
73.6265
79.2946
84.3953
88.4046
91.0648
92.8539
93.9836
94.3983
94.3993
94.3093
94.0382
93.3911
92.6843