/*--------------------------------*- C++ -*----------------------------------*\
| =========                 |                                                 |
| \\      /  F ield         | OpenFOAM: The Open Source CFD Toolbox           |
|  \\    /   O peration     | Version:  2.4.0                                 |
|   \\  /    A nd           | Web:      www.OpenFOAM.org                      |
|    \\/     M anipulation  |                                                 |
\*---------------------------------------------------------------------------*/
FoamFile
{
    version     2.0;
    format      ascii;
    class       surfaceScalarField;
    location    "1.61";
    object      phi;
}
// * * * * * * * * * * * * * * * * * * * * * * * * * * * * * * * * * * * * * //

dimensions      [0 3 -1 0 0 0 0];

internalField   nonuniform List<scalar> 
17320
(
1.76379e-05
7.36209e-06
1.162e-05
6.01794e-06
8.68307e-06
2.93691e-06
7.35248e-06
1.33059e-06
6.72288e-06
6.29602e-07
6.34378e-06
3.791e-07
6.07155e-06
2.72229e-07
5.87939e-06
1.92157e-07
5.70583e-06
1.73562e-07
5.58374e-06
1.22087e-07
5.48624e-06
9.75024e-08
5.39486e-06
9.13778e-08
5.31151e-06
8.33509e-08
5.25094e-06
6.05702e-08
5.14355e-06
1.07391e-07
5.1304e-06
1.31477e-08
5.01006e-06
1.20344e-07
5.06638e-06
-5.63174e-08
4.87854e-06
1.87838e-07
-5.07855e-07
5.38639e-06
2.54626e-05
6.89948e-06
2.32515e-05
8.22908e-06
2.09907e-05
5.19767e-06
1.93162e-05
3.00505e-06
1.8083e-05
1.86285e-06
1.71096e-05
1.35247e-06
1.63641e-05
1.01778e-06
1.57825e-05
7.73713e-07
1.53061e-05
6.49997e-07
1.49407e-05
4.87494e-07
1.46408e-05
3.97338e-07
1.43857e-05
3.46481e-07
1.41584e-05
3.10658e-07
1.39728e-05
2.46158e-07
1.37473e-05
3.32891e-07
1.36409e-05
1.19585e-07
1.33934e-05
3.6782e-07
1.34176e-05
-8.05257e-08
1.33281e-05
2.7732e-07
-6.8431e-07
1.35046e-05
2.66228e-05
5.27672e-06
2.71581e-05
7.69376e-06
2.67807e-05
5.57507e-06
2.6248e-05
3.53773e-06
2.56159e-05
2.49497e-06
2.48666e-05
2.10176e-06
2.41638e-05
1.7206e-06
2.35095e-05
1.42795e-06
2.29304e-05
1.22918e-06
2.24564e-05
9.61466e-07
2.20385e-05
8.15195e-07
2.16877e-05
6.97269e-07
2.13724e-05
6.25991e-07
2.10994e-05
5.19127e-07
2.08196e-05
6.12761e-07
2.06253e-05
3.1383e-07
2.03382e-05
6.54978e-07
2.02764e-05
-1.87778e-08
2.02906e-05
2.6309e-07
-1.11673e-06
2.07231e-05
2.63258e-05
3.95092e-06
2.75472e-05
6.47235e-06
2.80846e-05
5.03764e-06
2.84502e-05
3.1722e-06
2.8661e-05
2.28417e-06
2.8617e-05
2.14577e-06
2.84816e-05
1.85601e-06
2.8242e-05
1.66752e-06
2.79583e-05
1.51291e-06
2.77109e-05
1.20882e-06
2.7428e-05
1.09812e-06
2.71749e-05
9.50338e-07
2.69417e-05
8.59159e-07
2.6678e-05
7.82892e-07
2.64653e-05
8.25403e-07
2.62425e-05
5.36632e-07
2.60034e-05
8.94112e-07
2.5802e-05
1.8264e-07
2.575e-05
3.15039e-07
-6.30415e-07
2.52637e-05
2.60319e-05
2.91902e-06
2.72525e-05
5.25176e-06
2.80475e-05
4.24265e-06
2.84981e-05
2.72161e-06
2.89936e-05
1.78866e-06
2.93207e-05
1.81869e-06
2.95879e-05
1.5888e-06
2.97452e-05
1.51019e-06
2.98289e-05
1.42924e-06
2.99292e-05
1.10844e-06
2.99596e-05
1.06776e-06
2.99485e-05
9.61393e-07
3.00027e-05
8.05007e-07
2.99016e-05
8.83989e-07
2.99216e-05
8.05352e-07
2.98162e-05
6.42113e-07
2.97523e-05
9.58016e-07
2.95162e-05
4.18656e-07
2.94488e-05
3.82443e-07
-4.20908e-08
2.88605e-05
2.58192e-05
2.09983e-06
2.69545e-05
4.11647e-06
2.7833e-05
3.36412e-06
2.82294e-05
2.32526e-06
2.87199e-05
1.29811e-06
2.90862e-05
1.4524e-06
2.94648e-05
1.21018e-06
2.97112e-05
1.26381e-06
2.99787e-05
1.16176e-06
3.017e-05
9.17133e-07
3.04231e-05
8.14677e-07
3.04899e-05
8.94602e-07
3.07873e-05
5.07637e-07
3.07835e-05
8.87772e-07
3.10473e-05
5.41557e-07
3.10296e-05
6.59767e-07
3.12266e-05
7.61043e-07
3.09976e-05
6.47627e-07
3.10373e-05
3.42768e-07
7.5194e-07
3.02433e-05
2.56674e-05
1.43243e-06
2.67472e-05
3.03666e-06
2.76075e-05
2.50383e-06
2.80137e-05
1.91904e-06
2.85124e-05
7.9939e-07
2.88476e-05
1.11721e-06
2.92245e-05
8.33234e-07
2.94523e-05
1.036e-06
2.98192e-05
7.94866e-07
2.99529e-05
7.83465e-07
3.02447e-05
5.22922e-07
3.03376e-05
8.01628e-07
3.07037e-05
1.41567e-07
3.07156e-05
8.75873e-07
3.10493e-05
2.07818e-07
3.10646e-05
6.44479e-07
3.13791e-05
4.46583e-07
3.11462e-05
8.80484e-07
3.09668e-05
5.2223e-07
1.58356e-06
3.01352e-05
2.55536e-05
8.78836e-07
2.65661e-05
2.02414e-06
2.74273e-05
1.6427e-06
2.80109e-05
1.33543e-06
2.83591e-05
4.51141e-07
2.86491e-05
8.27265e-07
2.90185e-05
4.63758e-07
2.9321e-05
7.33528e-07
2.95982e-05
5.17651e-07
2.9816e-05
5.65653e-07
3.00433e-05
2.95693e-07
3.02969e-05
5.47957e-07
3.04476e-05
-9.10925e-09
3.06214e-05
7.02101e-07
3.07901e-05
3.9072e-08
3.10241e-05
4.10497e-07
3.10898e-05
3.80904e-07
3.14583e-05
5.11942e-07
3.17663e-05
2.14258e-07
2.92644e-07
3.30572e-05
2.54584e-05
4.20386e-07
2.65071e-05
9.75487e-07
2.73563e-05
7.93513e-07
2.79295e-05
7.62184e-07
2.82032e-05
1.77449e-07
2.85713e-05
4.59186e-07
2.89222e-05
1.12848e-07
2.91925e-05
4.63219e-07
2.94437e-05
2.66425e-07
2.97654e-05
2.43994e-07
2.99348e-05
1.26315e-07
3.0153e-05
3.29725e-07
3.02623e-05
-1.18427e-07
3.0579e-05
3.85436e-07
3.06744e-05
-5.63299e-08
3.09177e-05
1.67195e-07
3.10752e-05
2.23376e-07
3.13953e-05
1.9189e-07
3.16826e-05
-7.30142e-08
-2.82248e-07
3.22574e-05
2.54365e-05
-1.60703e-08
2.64529e-05
-4.09896e-08
2.7253e-05
-6.55797e-09
2.78663e-05
1.48896e-07
2.82128e-05
-1.69073e-07
2.85628e-05
1.09174e-07
2.87813e-05
-1.05609e-07
2.91085e-05
1.36049e-07
2.94669e-05
-9.20315e-08
2.97545e-05
-4.35957e-08
2.98591e-05
2.16674e-08
3.00606e-05
1.28278e-07
3.02233e-05
-2.81172e-07
3.05638e-05
4.49982e-08
3.06713e-05
-1.63823e-07
3.07906e-05
4.78947e-08
3.10287e-05
-1.47232e-08
3.13677e-05
-1.47154e-07
3.17216e-05
-4.26908e-07
-2.99263e-07
3.17386e-05
2.54363e-05
-4.5234e-07
2.64274e-05
-1.03207e-06
2.72624e-05
-8.41627e-07
2.79109e-05
-4.99592e-07
2.8172e-05
-4.30131e-07
2.85301e-05
-2.49006e-07
2.87937e-05
-3.69172e-07
2.91882e-05
-2.5844e-07
2.94452e-05
-3.49075e-07
2.96959e-05
-2.94295e-07
2.98394e-05
-1.21836e-07
3.01225e-05
-1.54749e-07
3.02174e-05
-3.76093e-07
3.04971e-05
-2.3467e-07
3.05939e-05
-2.60643e-07
3.08438e-05
-2.02029e-07
3.10961e-05
-2.66967e-07
3.13894e-05
-4.40537e-07
3.15744e-05
-6.11867e-07
-5.08998e-07
3.17841e-05
2.54668e-05
-9.19145e-07
2.64688e-05
-2.03409e-06
2.73239e-05
-1.69667e-06
2.79199e-05
-1.0956e-06
2.82243e-05
-7.34543e-07
2.86137e-05
-6.38463e-07
2.88691e-05
-6.24576e-07
2.92295e-05
-6.18762e-07
2.94554e-05
-5.74955e-07
2.97124e-05
-5.51373e-07
2.99387e-05
-3.48102e-07
3.02035e-05
-4.19518e-07
3.03158e-05
-4.88427e-07
3.05011e-05
-4.19946e-07
3.06323e-05
-3.91861e-07
3.09185e-05
-4.88229e-07
3.12057e-05
-5.54167e-07
3.14258e-05
-6.60597e-07
3.15916e-05
-7.7769e-07
-8.64381e-07
3.1947e-05
2.55414e-05
-1.46053e-06
2.65574e-05
-3.05014e-06
2.74089e-05
-2.54809e-06
2.80496e-05
-1.73635e-06
2.83706e-05
-1.0555e-06
2.86688e-05
-9.36653e-07
2.89458e-05
-9.01667e-07
2.9343e-05
-1.01594e-06
2.95601e-05
-7.92007e-07
2.98263e-05
-8.17638e-07
3.00586e-05
-5.80359e-07
3.03101e-05
-6.70982e-07
3.04025e-05
-5.80887e-07
3.06147e-05
-6.32163e-07
3.07694e-05
-5.46577e-07
3.10298e-05
-7.48568e-07
3.12203e-05
-7.44696e-07
3.14903e-05
-9.30558e-07
3.17539e-05
-1.04136e-06
-1.06878e-06
3.19583e-05
2.56649e-05
-2.12542e-06
2.67375e-05
-4.12276e-06
2.7604e-05
-3.41458e-06
2.8087e-05
-2.21934e-06
2.84624e-05
-1.43093e-06
2.88264e-05
-1.30063e-06
2.91788e-05
-1.25412e-06
2.95129e-05
-1.34994e-06
2.97439e-05
-1.02307e-06
3.00084e-05
-1.08208e-06
3.02271e-05
-7.99097e-07
3.04368e-05
-8.80688e-07
3.0554e-05
-6.98055e-07
3.07708e-05
-8.48979e-07
3.0933e-05
-7.08795e-07
3.1175e-05
-9.90562e-07
3.13296e-05
-8.993e-07
3.16451e-05
-1.24605e-06
3.18677e-05
-1.264e-06
-1.35345e-06
3.21524e-05
2.58407e-05
-2.96611e-06
2.69613e-05
-5.24332e-06
2.78021e-05
-4.25545e-06
2.82306e-05
-2.64786e-06
2.86943e-05
-1.89455e-06
2.9102e-05
-1.70842e-06
2.94585e-05
-1.61059e-06
2.97231e-05
-1.61452e-06
2.99768e-05
-1.27681e-06
3.01749e-05
-1.28019e-06
3.03847e-05
-1.00883e-06
3.05385e-05
-1.03454e-06
3.06828e-05
-8.42339e-07
3.08306e-05
-9.96807e-07
3.09561e-05
-8.34266e-07
3.10856e-05
-1.12005e-06
3.11734e-05
-9.87094e-07
3.13809e-05
-1.45359e-06
3.15027e-05
-1.38576e-06
-1.62538e-06
3.17746e-05
2.60388e-05
-4.00486e-06
2.72345e-05
-6.43911e-06
2.80213e-05
-5.04218e-06
2.85044e-05
-3.13095e-06
2.89749e-05
-2.36508e-06
2.93296e-05
-2.06312e-06
2.95919e-05
-1.87285e-06
2.97206e-05
-1.74331e-06
2.98577e-05
-1.41382e-06
2.98957e-05
-1.31827e-06
2.9955e-05
-1.06814e-06
2.99384e-05
-1.01792e-06
2.99446e-05
-8.4849e-07
2.98926e-05
-9.44789e-07
2.98561e-05
-7.9784e-07
2.97535e-05
-1.01742e-06
2.96596e-05
-8.93157e-07
2.95712e-05
-1.36527e-06
2.94502e-05
-1.26469e-06
-1.63368e-06
2.94585e-05
2.63079e-05
-5.31277e-06
2.7539e-05
-7.67017e-06
2.80716e-05
-5.5748e-06
2.84549e-05
-3.51427e-06
2.86339e-05
-2.54402e-06
2.8628e-05
-2.05724e-06
2.84768e-05
-1.72169e-06
2.8219e-05
-1.48548e-06
2.79739e-05
-1.16877e-06
2.76772e-05
-1.02151e-06
2.74209e-05
-8.11868e-07
2.71435e-05
-7.40515e-07
2.69044e-05
-6.09435e-07
2.66285e-05
-6.68811e-07
2.63949e-05
-5.6424e-07
2.60932e-05
-7.15712e-07
2.5839e-05
-6.39007e-07
2.54713e-05
-9.97531e-07
2.51784e-05
-9.71802e-07
-1.42929e-06
2.4974e-05
2.66051e-05
-6.9179e-06
2.71561e-05
-8.22113e-06
2.67743e-05
-5.19303e-06
2.62514e-05
-2.9914e-06
2.55957e-05
-1.88831e-06
2.48754e-05
-1.33693e-06
2.41582e-05
-1.00447e-06
2.34929e-05
-8.20156e-07
2.29342e-05
-6.10161e-07
2.24323e-05
-5.19544e-07
2.20226e-05
-4.02158e-07
2.16521e-05
-3.70034e-07
2.13403e-05
-2.97673e-07
2.10206e-05
-3.49101e-07
2.07476e-05
-2.912e-07
2.04198e-05
-3.87981e-07
2.01349e-05
-3.54048e-07
1.96851e-05
-5.47773e-07
1.92706e-05
-5.57298e-07
-5.53238e-07
1.83946e-05
2.54499e-05
-7.36776e-06
2.32456e-05
-6.01685e-06
2.09857e-05
-2.93313e-06
1.93197e-05
-1.32541e-06
1.80714e-05
-6.39964e-07
1.71115e-05
-3.77066e-07
1.63661e-05
-2.59015e-07
1.57647e-05
-2.18777e-07
1.53074e-05
-1.52857e-07
1.4923e-05
-1.35166e-07
1.4622e-05
-1.01165e-07
1.43523e-05
-1.00384e-07
1.41301e-05
-7.54297e-08
1.38883e-05
-1.07275e-07
1.36817e-05
-8.462e-08
1.34218e-05
-1.28043e-07
1.31811e-05
-1.13417e-07
1.28203e-05
-1.86908e-07
1.25003e-05
-2.37341e-07
-1.13097e-07
1.20602e-05
1.76322e-05
1.16154e-05
8.68225e-06
7.35684e-06
6.71688e-06
6.33981e-06
6.08079e-06
5.86202e-06
5.70916e-06
5.574e-06
5.47283e-06
5.37245e-06
5.29702e-06
5.18974e-06
5.10512e-06
4.97708e-06
4.86366e-06
4.67675e-06
4.43941e-06
4.32632e-06
5.85677e-06
-3.16664e-07
-1.53712e-07
6.23151e-06
-1.5338e-07
-2.21362e-07
6.51921e-06
-3.55074e-08
-2.52193e-07
6.78779e-06
2.39849e-08
-2.92562e-07
7.06039e-06
5.66275e-08
-3.29228e-07
7.38382e-06
3.83887e-08
-3.61818e-07
7.73611e-06
-4.70674e-09
-3.47583e-07
8.0831e-06
-3.20118e-08
-3.1498e-07
8.40969e-06
-7.63282e-08
-2.50262e-07
8.7102e-06
-1.25338e-07
-1.75167e-07
8.97367e-06
-1.69532e-07
-9.39413e-08
9.20417e-06
-2.28865e-07
-1.62916e-09
9.42533e-06
-3.0533e-07
8.41669e-08
9.62974e-06
-3.81951e-07
1.77535e-07
9.83501e-06
-4.94527e-07
2.89257e-07
1.00401e-05
-5.93847e-07
3.88736e-07
1.02526e-05
-7.11347e-07
4.98849e-07
1.04693e-05
-8.46495e-07
6.29814e-07
1.06716e-05
-9.93059e-07
7.90786e-07
1.08492e-05
-1.15854e-06
9.80931e-07
1.09742e-05
-1.28737e-06
1.16238e-06
1.10883e-05
-1.47004e-06
1.35595e-06
1.11461e-05
-1.57118e-06
1.51337e-06
1.11431e-05
-1.6938e-06
1.69678e-06
1.10481e-05
-1.74777e-06
1.84276e-06
1.0844e-05
-1.72693e-06
1.931e-06
1.05915e-05
-1.71855e-06
1.97107e-06
1.02646e-05
-1.55934e-06
1.88624e-06
9.99616e-06
-1.49015e-06
1.75859e-06
9.73821e-06
-1.2673e-06
1.52526e-06
9.54474e-06
-1.02976e-06
1.22323e-06
9.47164e-06
-7.0284e-07
7.75947e-07
9.41658e-06
-1.88664e-07
2.43721e-07
9.56901e-06
2.24215e-07
-3.76643e-07
9.77076e-06
9.48412e-07
-1.15016e-06
1.01089e-05
1.5735e-06
-1.91167e-06
1.06233e-05
2.22217e-06
-2.73649e-06
1.1096e-05
3.10288e-06
-3.57563e-06
1.16721e-05
3.64227e-06
-4.2184e-06
1.25037e-05
4.17088e-06
-5.00249e-06
1.33189e-05
4.60855e-06
-5.42371e-06
1.40357e-05
4.77286e-06
-5.4897e-06
1.51339e-05
4.64262e-06
-5.74077e-06
1.63666e-05
4.31625e-06
-5.549e-06
1.72555e-05
4.09494e-06
-4.98378e-06
1.84359e-05
3.1248e-06
-4.3052e-06
1.99558e-05
2.07428e-06
-3.59418e-06
2.11698e-05
1.49438e-06
-2.70836e-06
2.24604e-05
-3.11315e-07
-9.79279e-07
2.41042e-05
-1.80658e-06
1.62715e-07
2.54501e-05
-2.92543e-06
1.57953e-06
2.68974e-05
-5.01486e-06
3.56758e-06
2.82961e-05
-6.50089e-06
5.10221e-06
2.95226e-05
-8.39892e-06
7.17237e-06
3.07993e-05
-1.03038e-05
9.02712e-06
3.17121e-05
-1.17028e-05
1.07899e-05
3.24694e-05
-1.31501e-05
1.23929e-05
3.29712e-05
-1.4249e-05
1.37471e-05
3.309e-05
-1.49392e-05
1.48204e-05
3.29059e-05
-1.51821e-05
1.53662e-05
3.20839e-05
-1.51409e-05
1.59629e-05
3.12135e-05
-1.45476e-05
1.54181e-05
3.02614e-05
-1.39113e-05
1.48633e-05
2.92814e-05
-1.34767e-05
1.44567e-05
2.83029e-05
-1.22131e-05
1.31917e-05
2.7361e-05
-1.16538e-05
1.25957e-05
2.68381e-05
-1.07362e-05
1.12592e-05
2.57701e-05
-9.47391e-06
1.05418e-05
2.51991e-05
-9.10033e-06
9.67139e-06
2.48414e-05
-8.05945e-06
8.41708e-06
2.44985e-05
-7.46179e-06
7.80473e-06
2.45299e-05
-6.63122e-06
6.59986e-06
2.41152e-05
-5.29569e-06
5.71034e-06
2.38196e-05
-4.52758e-06
4.82323e-06
2.37197e-05
-3.66998e-06
3.76986e-06
2.32332e-05
-2.29512e-06
2.78165e-06
2.28472e-05
-1.49566e-06
1.88165e-06
2.23714e-05
-1.85583e-07
6.61347e-07
2.15533e-05
9.55663e-07
-1.37502e-07
2.12326e-05
1.49625e-06
-1.17558e-06
2.16524e-05
2.63104e-06
-3.05087e-06
2.21483e-05
4.1922e-06
-4.68807e-06
2.23766e-05
5.65569e-06
-5.88399e-06
2.22426e-05
6.83788e-06
-6.7039e-06
2.15589e-05
7.88038e-06
-7.19667e-06
2.04368e-05
8.55781e-06
-7.43572e-06
1.9415e-05
8.60981e-06
-7.58801e-06
1.89451e-05
8.1928e-06
-7.72291e-06
1.90669e-05
7.5222e-06
-7.64401e-06
1.94889e-05
7.12736e-06
-7.54938e-06
2.01902e-05
6.55373e-06
-7.25504e-06
2.12605e-05
5.70343e-06
-6.77373e-06
2.24929e-05
5.343e-06
-6.57533e-06
2.34932e-05
5.1062e-06
-6.10652e-06
2.42661e-05
3.91968e-06
-4.69264e-06
2.51757e-05
2.45679e-06
-3.36631e-06
2.6172e-05
1.48317e-06
-2.47948e-06
2.70161e-05
3.62616e-07
-1.20677e-06
2.78556e-05
-1.32322e-06
4.83781e-07
2.88274e-05
-3.04116e-06
2.06938e-06
3.00109e-05
-4.50248e-06
3.31896e-06
3.12833e-05
-5.26956e-06
3.9971e-06
3.24115e-05
-5.22342e-06
4.09529e-06
3.29888e-05
-4.93746e-06
4.36017e-06
3.2961e-05
-4.52277e-06
4.55054e-06
3.23595e-05
-4.01471e-06
4.61624e-06
3.14825e-05
-4.81474e-06
5.69169e-06
3.03078e-05
-6.52435e-06
7.69909e-06
2.89767e-05
-7.75743e-06
9.08848e-06
2.78005e-05
-9.19559e-06
1.03718e-05
2.67498e-05
-1.12668e-05
1.23176e-05
2.58017e-05
-1.32608e-05
1.42089e-05
2.49893e-05
-1.52143e-05
1.60267e-05
2.4358e-05
-1.72863e-05
1.79175e-05
2.37879e-05
-1.90701e-05
1.96402e-05
2.30682e-05
-1.99155e-05
2.06351e-05
2.21403e-05
-1.92414e-05
2.01693e-05
2.11632e-05
-1.78218e-05
1.87988e-05
2.04664e-05
-1.66967e-05
1.73935e-05
2.02842e-05
-1.59347e-05
1.61169e-05
2.08353e-05
-1.62175e-05
1.56664e-05
2.19392e-05
-1.69216e-05
1.58177e-05
2.32039e-05
-1.75737e-05
1.6309e-05
2.43093e-05
-1.75934e-05
1.6488e-05
2.50687e-05
-1.71471e-05
1.63877e-05
2.54018e-05
-1.61226e-05
1.57895e-05
2.55812e-05
-1.44118e-05
1.42324e-05
2.55485e-05
-1.22195e-05
1.22522e-05
2.54024e-05
-9.96908e-06
1.01152e-05
2.54394e-05
-8.04703e-06
8.00999e-06
2.56405e-05
-5.77518e-06
5.57406e-06
2.5686e-05
-4.00371e-06
3.95829e-06
2.52162e-05
-1.12221e-06
1.59192e-06
2.45716e-05
2.78525e-06
-2.1406e-06
2.38463e-05
6.40824e-06
-5.68295e-06
2.28885e-05
9.0701e-06
-8.11233e-06
2.18285e-05
1.28191e-05
-1.17591e-05
2.08699e-05
1.57481e-05
-1.47895e-05
1.99991e-05
1.75375e-05
-1.66667e-05
1.89171e-05
1.96243e-05
-1.85422e-05
1.79691e-05
2.21207e-05
-2.11727e-05
1.70093e-05
2.49069e-05
-2.39471e-05
1.59433e-05
2.65716e-05
-2.55055e-05
1.54739e-05
2.70779e-05
-2.66085e-05
1.51793e-05
2.56226e-05
-2.53279e-05
1.51695e-05
2.21039e-05
-2.20941e-05
1.51078e-05
1.81278e-05
-1.80661e-05
1.51801e-05
1.65146e-05
-1.65869e-05
1.56951e-05
1.63411e-05
-1.68561e-05
1.64882e-05
1.76031e-05
-1.83962e-05
1.74092e-05
1.77099e-05
-1.86308e-05
1.81278e-05
1.8123e-05
-1.88417e-05
1.89257e-05
1.68837e-05
-1.76815e-05
1.94128e-05
1.65836e-05
-1.70708e-05
2.00386e-05
1.44965e-05
-1.51223e-05
2.05731e-05
1.30889e-05
-1.36235e-05
2.086e-05
1.03394e-05
-1.06263e-05
2.10832e-05
9.26862e-06
-9.49183e-06
2.12095e-05
5.48948e-06
-5.61578e-06
2.16463e-05
3.74957e-06
-4.18641e-06
2.20611e-05
5.66429e-07
-9.81152e-07
2.25758e-05
-1.22655e-06
7.11849e-07
2.28985e-05
-5.08335e-06
4.76059e-06
2.25875e-05
-4.65905e-06
4.97004e-06
2.23975e-05
-6.66113e-06
6.85112e-06
2.15154e-05
-6.99415e-06
7.87632e-06
2.02796e-05
-7.35718e-06
8.59297e-06
1.90355e-05
-5.56807e-06
6.8122e-06
1.8508e-05
-6.83727e-06
7.36477e-06
1.7631e-05
-5.66028e-06
6.53727e-06
1.70553e-05
-5.04885e-06
5.62449e-06
1.64843e-05
-3.73391e-06
4.30491e-06
1.64857e-05
-4.29756e-06
4.29613e-06
1.63563e-05
-4.31178e-06
4.44124e-06
1.63218e-05
-4.51534e-06
4.54987e-06
1.618e-05
-4.2603e-06
4.40205e-06
1.6323e-05
-4.03875e-06
3.89581e-06
1.62844e-05
-3.41809e-06
3.45669e-06
1.67187e-05
-3.94111e-06
3.50678e-06
1.7366e-05
-5.01103e-06
4.36372e-06
1.74916e-05
-4.48949e-06
4.36388e-06
1.73928e-05
-4.26826e-06
4.36704e-06
1.71028e-05
-2.90524e-06
3.19524e-06
1.67759e-05
-2.57455e-06
2.90148e-06
1.70285e-05
-1.78771e-06
1.5351e-06
1.54873e-05
1.6637e-07
1.37483e-06
1.58098e-05
-8.52718e-07
5.30253e-07
1.54673e-05
1.81572e-06
-1.47327e-06
1.54404e-05
1.29403e-06
-1.26708e-06
1.62461e-05
2.54653e-06
-3.35227e-06
1.61037e-05
3.42913e-06
-3.28671e-06
1.72487e-05
5.12614e-06
-6.27112e-06
1.67581e-05
8.91559e-06
-8.42503e-06
1.72851e-05
1.00252e-05
-1.05521e-05
1.71079e-05
1.57098e-05
-1.55326e-05
1.70108e-05
1.80929e-05
-1.79958e-05
1.72112e-05
2.16638e-05
-2.18642e-05
1.53243e-05
2.74127e-05
-2.55258e-05
1.56072e-05
3.04453e-05
-3.07282e-05
4.17517e-05
-4.20378e-05
1.58933e-05
1.35167e-05
-3.28729e-07
1.35513e-05
-1.88001e-07
1.35892e-05
-7.34331e-08
1.36762e-05
-6.29565e-08
1.38269e-05
-9.41551e-08
1.40093e-05
-1.43926e-07
1.42346e-05
-2.30099e-07
1.44537e-05
-2.51098e-07
1.4664e-05
-2.86633e-07
1.48709e-05
-3.32196e-07
1.50617e-05
-3.60336e-07
1.52462e-05
-4.13323e-07
1.54338e-05
-4.92966e-07
1.56211e-05
-5.69302e-07
1.58139e-05
-6.87248e-07
1.60122e-05
-7.92174e-07
1.62187e-05
-9.17826e-07
1.6415e-05
-1.04283e-06
1.65936e-05
-1.17167e-06
1.6767e-05
-1.33192e-06
1.68775e-05
-1.39782e-06
1.69838e-05
-1.57636e-06
1.70153e-05
-1.60264e-06
1.69964e-05
-1.67493e-06
1.69393e-05
-1.69071e-06
1.679e-05
-1.57763e-06
1.66392e-05
-1.56769e-06
1.64019e-05
-1.32211e-06
1.60772e-05
-1.16546e-06
1.56912e-05
-8.81268e-07
1.52219e-05
-5.60422e-07
1.47813e-05
-2.62223e-07
1.43882e-05
2.04392e-07
1.40137e-05
5.98712e-07
1.39579e-05
1.00418e-06
1.40414e-05
1.49006e-06
1.42157e-05
2.04785e-06
1.48108e-05
2.50774e-06
1.53695e-05
3.08356e-06
1.59951e-05
3.54535e-06
1.70365e-05
3.56708e-06
1.79727e-05
3.83671e-06
1.88796e-05
3.73566e-06
2.0097e-05
3.09888e-06
2.14672e-05
2.72474e-06
2.24736e-05
2.11845e-06
2.37291e-05
8.18701e-07
2.53452e-05
-1.21713e-07
2.64868e-05
-1.45291e-06
2.78844e-05
-3.20415e-06
2.93625e-05
-4.40348e-06
3.06792e-05
-6.33158e-06
3.18856e-05
-7.70731e-06
3.30712e-05
-9.58456e-06
3.40564e-05
-1.12889e-05
3.45257e-05
-1.21721e-05
3.48177e-05
-1.34422e-05
3.48163e-05
-1.42475e-05
3.4405e-05
-1.45279e-05
3.34521e-05
-1.42293e-05
3.24067e-05
-1.40955e-05
3.13968e-05
-1.35378e-05
3.03309e-05
-1.28454e-05
2.93232e-05
-1.24689e-05
2.86093e-05
-1.14992e-05
2.76825e-05
-1.0727e-05
2.69599e-05
-1.00136e-05
2.63682e-05
-8.88229e-06
2.59263e-05
-8.65837e-06
2.56705e-05
-7.80365e-06
2.49808e-05
-6.77209e-06
2.46175e-05
-6.26794e-06
2.44552e-05
-5.13335e-06
2.41823e-05
-4.25474e-06
2.40955e-05
-3.58317e-06
2.38247e-05
-2.02434e-06
2.32436e-05
-9.14504e-07
2.30636e-05
-5.6018e-09
2.25662e-05
1.45304e-06
2.17156e-05
2.34683e-06
2.138e-05
2.96667e-06
2.16527e-05
3.91955e-06
2.20871e-05
5.22127e-06
2.25136e-05
6.41132e-06
2.28097e-05
7.5843e-06
2.2691e-05
8.67653e-06
2.20194e-05
9.28143e-06
2.13143e-05
8.89786e-06
2.09763e-05
7.86024e-06
2.09817e-05
7.12195e-06
2.12688e-05
6.26667e-06
2.19037e-05
5.06849e-06
2.25901e-05
4.65661e-06
2.30374e-05
4.6589e-06
2.32846e-05
3.67249e-06
2.37228e-05
2.01852e-06
2.44063e-05
7.99723e-07
2.50444e-05
-2.75543e-07
2.585e-05
-2.12877e-06
2.69352e-05
-4.12638e-06
2.81909e-05
-5.75814e-06
2.95988e-05
-6.67751e-06
3.09155e-05
-6.54012e-06
3.18255e-05
-5.84749e-06
3.21434e-05
-4.84062e-06
3.19335e-05
-3.80478e-06
3.13945e-05
-4.27575e-06
3.02329e-05
-5.36278e-06
2.87991e-05
-6.32367e-06
2.76418e-05
-8.03821e-06
2.65888e-05
-1.02139e-05
2.55149e-05
-1.21869e-05
2.46683e-05
-1.43677e-05
2.41567e-05
-1.67747e-05
2.35888e-05
-1.85022e-05
2.25511e-05
-1.88778e-05
2.12294e-05
-1.79197e-05
2.01179e-05
-1.67103e-05
1.95371e-05
-1.61159e-05
1.96479e-05
-1.60455e-05
2.03728e-05
-1.69424e-05
2.14313e-05
-1.79801e-05
2.24124e-05
-1.85548e-05
2.30589e-05
-1.82398e-05
2.35224e-05
-1.76106e-05
2.36251e-05
-1.62253e-05
2.36432e-05
-1.44299e-05
2.36318e-05
-1.2208e-05
2.37162e-05
-1.00536e-05
2.37144e-05
-8.04523e-06
2.3838e-05
-5.89874e-06
2.36086e-05
-3.77432e-06
2.29258e-05
-4.39414e-07
2.22368e-05
3.47422e-06
2.17438e-05
6.90131e-06
2.09436e-05
9.87031e-06
2.0053e-05
1.37096e-05
1.92476e-05
1.65536e-05
1.84415e-05
1.83436e-05
1.7403e-05
2.06627e-05
1.62749e-05
2.32488e-05
1.54958e-05
2.56861e-05
1.45603e-05
2.7507e-05
1.412e-05
2.75183e-05
1.41666e-05
2.5576e-05
1.4433e-05
2.18375e-05
1.4501e-05
1.80597e-05
1.47313e-05
1.62844e-05
1.51588e-05
1.59135e-05
1.58551e-05
1.69069e-05
1.66954e-05
1.68695e-05
1.76941e-05
1.71244e-05
1.87706e-05
1.58072e-05
1.95083e-05
1.58459e-05
2.00512e-05
1.39535e-05
2.06552e-05
1.24849e-05
2.10817e-05
9.91293e-06
2.15261e-05
8.82424e-06
2.20424e-05
4.97317e-06
2.28106e-05
2.98139e-06
2.33362e-05
4.08369e-08
2.37997e-05
-1.69006e-06
2.35765e-05
-4.86015e-06
2.27807e-05
-3.8633e-06
2.22009e-05
-6.08128e-06
2.10011e-05
-5.79434e-06
1.98367e-05
-6.19277e-06
1.91466e-05
-4.87807e-06
1.87549e-05
-6.44552e-06
1.79305e-05
-4.83589e-06
1.75051e-05
-4.62341e-06
1.71059e-05
-3.33469e-06
1.72346e-05
-4.42626e-06
1.69358e-05
-4.01301e-06
1.69571e-05
-4.53666e-06
1.67971e-05
-4.10029e-06
1.69469e-05
-4.18851e-06
1.69909e-05
-3.46211e-06
1.7591e-05
-4.54125e-06
1.77582e-05
-5.17818e-06
1.77569e-05
-4.48825e-06
1.719e-05
-3.7013e-06
1.71282e-05
-2.84345e-06
1.61813e-05
-1.62763e-06
1.63347e-05
-1.9411e-06
1.52826e-05
1.2184e-06
1.47674e-05
-3.37529e-07
1.4989e-05
1.59416e-06
1.45884e-05
1.6946e-06
1.55367e-05
1.59827e-06
1.59644e-05
3.00145e-06
1.71973e-05
3.89324e-06
1.73988e-05
8.71406e-06
1.72568e-05
1.01672e-05
1.86263e-05
1.43403e-05
1.76521e-05
1.90671e-05
1.89216e-05
2.03943e-05
1.85852e-05
2.77491e-05
2.40714e-05
2.49592e-05
4.25117e-05
2.33114e-05
2.05148e-05
-1.20436e-07
2.02821e-05
4.46555e-08
2.01354e-05
7.33372e-08
2.01777e-05
-1.05311e-07
2.03057e-05
-2.22199e-07
2.04736e-05
-3.11774e-07
2.06539e-05
-4.10396e-07
2.07915e-05
-3.8872e-07
2.09128e-05
-4.07908e-07
2.10513e-05
-4.70677e-07
2.11644e-05
-4.7349e-07
2.12963e-05
-5.45178e-07
2.14444e-05
-6.41064e-07
2.15823e-05
-7.07263e-07
2.17369e-05
-8.41785e-07
2.18805e-05
-9.35804e-07
2.20302e-05
-1.06752e-06
2.21483e-05
-1.16092e-06
2.22753e-05
-1.29869e-06
2.23709e-05
-1.42749e-06
2.24132e-05
-1.44016e-06
2.24714e-05
-1.6345e-06
2.24402e-05
-1.57148e-06
2.24078e-05
-1.64251e-06
2.23252e-05
-1.60811e-06
2.2213e-05
-1.46547e-06
2.20393e-05
-1.39399e-06
2.18294e-05
-1.11216e-06
2.15813e-05
-9.17378e-07
2.12569e-05
-5.56892e-07
2.10093e-05
-3.12789e-07
2.06012e-05
1.4582e-07
2.02793e-05
5.2628e-07
1.9942e-05
9.36095e-07
1.95547e-05
1.39141e-06
1.94911e-05
1.55372e-06
1.9323e-05
2.21594e-06
1.94261e-05
2.40466e-06
1.99128e-05
2.59684e-06
2.04153e-05
3.04282e-06
2.10642e-05
2.91815e-06
2.20771e-05
2.82384e-06
2.31661e-05
2.64668e-06
2.39575e-05
2.30746e-06
2.52913e-05
1.39096e-06
2.67474e-05
6.62339e-07
2.77632e-05
-1.97116e-07
2.92386e-05
-1.59706e-06
3.06378e-05
-2.85219e-06
3.18651e-05
-4.43136e-06
3.31169e-05
-5.65529e-06
3.42744e-05
-7.48911e-06
3.53115e-05
-8.74444e-06
3.59553e-05
-1.02283e-05
3.64062e-05
-1.17399e-05
3.63921e-05
-1.2158e-05
3.62861e-05
-1.33362e-05
3.55141e-05
-1.34755e-05
3.44204e-05
-1.34342e-05
3.34785e-05
-1.32873e-05
3.22271e-05
-1.28442e-05
3.11049e-05
-1.24156e-05
3.01275e-05
-1.1868e-05
2.92382e-05
-1.15796e-05
2.8511e-05
-1.0772e-05
2.78567e-05
-1.00727e-05
2.7559e-05
-9.71598e-06
2.74464e-05
-8.76968e-06
2.70984e-05
-8.31031e-06
2.68766e-05
-7.58184e-06
2.65359e-05
-6.4314e-06
2.62015e-05
-5.93359e-06
2.59435e-05
-4.87532e-06
2.5294e-05
-3.60526e-06
2.46203e-05
-2.90946e-06
2.42196e-05
-1.62359e-06
2.35934e-05
-2.88356e-07
2.33252e-05
2.62575e-07
2.35293e-05
1.24895e-06
2.31901e-05
2.68603e-06
2.24867e-05
3.67009e-06
2.19333e-05
4.47298e-06
2.16684e-05
5.48612e-06
2.17862e-05
6.2935e-06
2.24136e-05
6.95697e-06
2.33369e-05
7.75317e-06
2.39165e-05
8.70183e-06
2.38393e-05
8.97505e-06
2.33462e-05
8.35336e-06
2.30052e-05
7.46294e-06
2.30722e-05
6.19969e-06
2.35038e-05
4.63689e-06
2.40226e-05
4.13778e-06
2.43315e-05
4.35004e-06
2.43062e-05
3.69781e-06
2.42633e-05
2.06144e-06
2.42909e-05
7.72094e-07
2.45366e-05
-5.21233e-07
2.52428e-05
-2.83498e-06
2.62213e-05
-5.10489e-06
2.72965e-05
-6.83335e-06
2.84852e-05
-7.86622e-06
2.95634e-05
-7.61825e-06
3.03645e-05
-6.64867e-06
3.07044e-05
-5.18047e-06
3.06515e-05
-3.75187e-06
3.01624e-05
-3.78662e-06
2.91966e-05
-4.39707e-06
2.81059e-05
-5.23292e-06
2.71084e-05
-7.04068e-06
2.60907e-05
-9.19621e-06
2.50672e-05
-1.11634e-05
2.43185e-05
-1.3619e-05
2.37025e-05
-1.61587e-05
2.28174e-05
-1.76171e-05
2.14829e-05
-1.75433e-05
2.00512e-05
-1.6488e-05
1.89846e-05
-1.56436e-05
1.85588e-05
-1.56901e-05
1.88987e-05
-1.63854e-05
1.97004e-05
-1.77441e-05
2.04911e-05
-1.87709e-05
2.10553e-05
-1.91189e-05
2.13997e-05
-1.85843e-05
2.15856e-05
-1.77966e-05
2.17271e-05
-1.63668e-05
2.17527e-05
-1.44556e-05
2.16936e-05
-1.21489e-05
2.1749e-05
-1.01089e-05
2.16352e-05
-7.93146e-06
2.15176e-05
-5.78117e-06
2.09746e-05
-3.23135e-06
2.02255e-05
3.09709e-07
1.9628e-05
4.0717e-06
1.93054e-05
7.22395e-06
1.85879e-05
1.05878e-05
1.79339e-05
1.43636e-05
1.73094e-05
1.71781e-05
1.66074e-05
1.90456e-05
1.56002e-05
2.167e-05
1.4607e-05
2.4242e-05
1.36346e-05
2.66585e-05
1.29344e-05
2.82072e-05
1.22246e-05
2.82281e-05
1.25839e-05
2.52166e-05
1.33561e-05
2.10653e-05
1.3849e-05
1.75669e-05
1.42704e-05
1.5863e-05
1.44685e-05
1.57154e-05
1.51486e-05
1.62267e-05
1.59061e-05
1.6112e-05
1.7055e-05
1.59755e-05
1.81716e-05
1.46906e-05
1.91539e-05
1.48637e-05
1.97112e-05
1.33962e-05
2.05348e-05
1.16614e-05
2.12311e-05
9.2166e-06
2.20993e-05
7.95607e-06
2.29552e-05
4.11723e-06
2.35298e-05
2.40683e-06
2.39358e-05
-3.65201e-07
2.39219e-05
-1.67617e-06
2.30645e-05
-4.00267e-06
2.22014e-05
-3.00029e-06
2.1519e-05
-5.39887e-06
2.04058e-05
-4.68106e-06
1.96486e-05
-5.43559e-06
1.91637e-05
-4.39317e-06
1.87944e-05
-6.07627e-06
1.82097e-05
-4.25118e-06
1.79496e-05
-4.36333e-06
1.77089e-05
-3.09397e-06
1.77312e-05
-4.4485e-06
1.74626e-05
-3.74444e-06
1.77016e-05
-4.77563e-06
1.75243e-05
-3.92301e-06
1.77859e-05
-4.45015e-06
1.78701e-05
-3.54628e-06
1.82297e-05
-4.90083e-06
1.80038e-05
-4.95235e-06
1.80512e-05
-4.53561e-06
1.72592e-05
-2.90926e-06
1.71444e-05
-2.72866e-06
1.58284e-05
-3.11682e-07
1.57778e-05
-1.89043e-06
1.46049e-05
2.3913e-06
1.40978e-05
1.69483e-07
1.40413e-05
1.65075e-06
1.55328e-05
2.03093e-07
1.46193e-05
2.51172e-06
1.69083e-05
7.12499e-07
1.64574e-05
4.34411e-06
1.89117e-05
6.25973e-06
1.77116e-05
1.13673e-05
2.04484e-05
1.16035e-05
2.07274e-05
1.87881e-05
2.33316e-05
1.77901e-05
2.23595e-05
2.87212e-05
2.89372e-05
1.83814e-05
4.20236e-05
2.94252e-05
2.53152e-05
-1.71861e-07
2.54154e-05
-5.55445e-08
2.55323e-05
-4.35727e-08
2.5706e-05
-2.79042e-07
2.58371e-05
-3.53282e-07
2.59589e-05
-4.33647e-07
2.60867e-05
-5.3815e-07
2.61669e-05
-4.6887e-07
2.6225e-05
-4.66046e-07
2.63081e-05
-5.53794e-07
2.63753e-05
-5.40688e-07
2.64387e-05
-6.08586e-07
2.6539e-05
-7.41334e-07
2.66319e-05
-8.00166e-07
2.67148e-05
-9.24738e-07
2.67932e-05
-1.01421e-06
2.68915e-05
-1.16574e-06
2.6907e-05
-1.17646e-06
2.69855e-05
-1.37722e-06
2.69984e-05
-1.44032e-06
2.69718e-05
-1.41358e-06
2.69768e-05
-1.63954e-06
2.68513e-05
-1.44596e-06
2.6807e-05
-1.59823e-06
2.66417e-05
-1.44284e-06
2.65366e-05
-1.36035e-06
2.64065e-05
-1.2639e-06
2.61919e-05
-8.97576e-07
2.61018e-05
-8.27254e-07
2.58389e-05
-2.93943e-07
2.56647e-05
-1.38663e-07
2.54673e-05
3.43232e-07
2.52244e-05
7.69186e-07
2.51462e-05
1.01435e-06
2.49589e-05
1.57872e-06
2.48355e-05
1.67705e-06
2.4903e-05
2.14847e-06
2.50177e-05
2.28995e-06
2.51635e-05
2.45108e-06
2.56521e-05
2.55421e-06
2.62432e-05
2.32703e-06
2.68138e-05
2.25326e-06
2.78291e-05
1.63135e-06
2.88293e-05
1.30724e-06
2.96802e-05
5.40136e-07
3.10074e-05
-6.6492e-07
3.21335e-05
-1.32317e-06
3.3279e-05
-2.74262e-06
3.44784e-05
-4.05156e-06
3.54829e-05
-5.43583e-06
3.643e-05
-6.60242e-06
3.70991e-05
-8.15823e-06
3.76988e-05
-9.34416e-06
3.77636e-05
-1.0293e-05
3.75548e-05
-1.1531e-05
3.71092e-05
-1.17124e-05
3.62346e-05
-1.24617e-05
3.50811e-05
-1.2322e-05
3.39597e-05
-1.23127e-05
3.30062e-05
-1.23339e-05
3.18678e-05
-1.17057e-05
3.107e-05
-1.16178e-05
3.03163e-05
-1.11143e-05
2.94777e-05
-1.0741e-05
2.90026e-05
-1.02969e-05
2.86186e-05
-9.68869e-06
2.82557e-05
-9.35311e-06
2.80528e-05
-8.56673e-06
2.76355e-05
-7.89305e-06
2.74251e-05
-7.37147e-06
2.72364e-05
-6.24266e-06
2.68296e-05
-5.52677e-06
2.66666e-05
-4.71229e-06
2.6384e-05
-3.32265e-06
2.59542e-05
-2.47972e-06
2.57169e-05
-1.38629e-06
2.52138e-05
2.14753e-07
2.44971e-05
9.79295e-07
2.4068e-05
1.67808e-06
2.36327e-05
3.12128e-06
2.31459e-05
4.15692e-06
2.27744e-05
4.84446e-06
2.23709e-05
5.88967e-06
2.19529e-05
6.71142e-06
2.20628e-05
6.84708e-06
2.27653e-05
7.05071e-06
2.36367e-05
7.83047e-06
2.42455e-05
8.36625e-06
2.44459e-05
8.15294e-06
2.44034e-05
7.5054e-06
2.46298e-05
5.97328e-06
2.51779e-05
4.08883e-06
2.57288e-05
3.58686e-06
2.60209e-05
4.05796e-06
2.60023e-05
3.71638e-06
2.57212e-05
2.34254e-06
2.52649e-05
1.2284e-06
2.5234e-05
-4.90288e-07
2.55912e-05
-3.19223e-06
2.61925e-05
-5.7062e-06
2.70344e-05
-7.67517e-06
2.79291e-05
-8.76097e-06
2.86893e-05
-8.37843e-06