/*--------------------------------*- C++ -*----------------------------------*\
| =========                 |                                                 |
| \\      /  F ield         | OpenFOAM: The Open Source CFD Toolbox           |
|  \\    /   O peration     | Version:  2.4.0                                 |
|   \\  /    A nd           | Web:      www.OpenFOAM.org                      |
|    \\/     M anipulation  |                                                 |
\*---------------------------------------------------------------------------*/
FoamFile
{
    version     2.0;
    format      ascii;
    class       surfaceScalarField;
    location    "1.61";
    object      phi_0;
}
// * * * * * * * * * * * * * * * * * * * * * * * * * * * * * * * * * * * * * //

dimensions      [0 3 -1 0 0 0 0];

internalField   nonuniform List<scalar> 
17320
(
1.76379e-05
7.36206e-06
1.162e-05
6.0179e-06
8.6829e-06
2.93714e-06
7.35259e-06
1.33031e-06
6.72302e-06
6.29574e-07
6.34336e-06
3.79661e-07
6.07188e-06
2.71479e-07
5.87952e-06
1.9236e-07
5.70534e-06
1.74172e-07
5.58421e-06
1.21134e-07
5.48605e-06
9.81629e-08
5.39471e-06
9.13381e-08
5.31199e-06
8.2719e-08
5.25038e-06
6.16131e-08
5.14413e-06
1.0625e-07
5.13079e-06
1.33324e-08
5.00921e-06
1.21584e-07
5.06793e-06
-5.87203e-08
4.8796e-06
1.8833e-07
-5.07116e-07
5.38672e-06
2.54627e-05
6.89933e-06
2.32515e-05
8.22918e-06
2.09905e-05
5.19815e-06
1.93165e-05
3.00423e-06
1.80829e-05
1.86319e-06
1.71093e-05
1.35331e-06
1.63645e-05
1.01623e-06
1.57824e-05
7.74496e-07
1.53058e-05
6.50795e-07
1.49411e-05
4.85798e-07
1.46405e-05
3.98719e-07
1.43858e-05
3.46128e-07
1.41587e-05
3.09784e-07
1.39725e-05
2.47832e-07
1.3748e-05
3.30721e-07
1.36409e-05
1.20463e-07
1.3393e-05
3.6945e-07
1.34193e-05
-8.50554e-08
1.33296e-05
2.78084e-07
-6.82676e-07
1.35051e-05
2.6623e-05
5.2763e-06
2.7158e-05
7.69421e-06
2.67803e-05
5.57584e-06
2.62485e-05
3.536e-06
2.56157e-05
2.49606e-06
2.48663e-05
2.10265e-06
2.41644e-05
1.7182e-06
2.35091e-05
1.42972e-06
2.29303e-05
1.22959e-06
2.24567e-05
9.59416e-07
2.20381e-05
8.1733e-07
2.16881e-05
6.96134e-07
2.13723e-05
6.2562e-07
2.10993e-05
5.20762e-07
2.08204e-05
6.09667e-07
2.06246e-05
3.16294e-07
2.03387e-05
6.55273e-07
2.02778e-05
-2.40901e-08
2.02906e-05
2.65241e-07
-1.1201e-06
2.0728e-05
2.63264e-05
3.94986e-06
2.75473e-05
6.47335e-06
2.80837e-05
5.0394e-06
2.84507e-05
3.16905e-06
2.86607e-05
2.28603e-06
2.86167e-05
2.14666e-06
2.84824e-05
1.85247e-06
2.82413e-05
1.67087e-06
2.79585e-05
1.51233e-06
2.77112e-05
1.2067e-06
2.74271e-05
1.1015e-06
2.7176e-05
9.47248e-07
2.69411e-05
8.60467e-07
2.66776e-05
7.84235e-07
2.6467e-05
8.20255e-07
2.62406e-05
5.42751e-07
2.60041e-05
8.91755e-07
2.58051e-05
1.74884e-07
2.57463e-05
3.24084e-07
-6.40145e-07
2.52663e-05
2.60325e-05
2.91739e-06
2.72532e-05
5.25264e-06
2.80464e-05
4.24622e-06
2.84983e-05
2.71707e-06
2.89936e-05
1.79082e-06
2.93198e-05
1.82039e-06
2.95888e-05
1.5835e-06
2.97444e-05
1.51525e-06
2.98294e-05
1.42739e-06
2.99302e-05
1.10585e-06
2.99579e-05
1.0738e-06
2.995e-05
9.55143e-07
3.00023e-05
8.08162e-07
2.99001e-05
8.86459e-07
2.9924e-05
7.96312e-07
2.98144e-05
6.52442e-07
2.97517e-05
9.54452e-07
2.95198e-05
4.06743e-07
2.94473e-05
3.96568e-07
-5.79756e-08
2.88651e-05
2.5819e-05
2.09836e-06
2.69562e-05
4.11543e-06
2.78329e-05
3.36955e-06
2.82287e-05
2.32131e-06
2.87199e-05
1.29964e-06
2.90855e-05
1.4547e-06
2.94657e-05
1.20334e-06
2.971e-05
1.271e-06
2.99792e-05
1.1582e-06
3.01719e-05
9.13147e-07
3.04212e-05
8.24433e-07
3.04911e-05
8.85258e-07
3.07875e-05
5.11811e-07
3.07815e-05
8.92377e-07
3.1049e-05
5.28826e-07
3.10287e-05
6.72724e-07
3.12265e-05
7.56646e-07
3.09987e-05
6.34636e-07
3.10329e-05
3.62278e-07
7.26566e-07
3.02484e-05
2.56681e-05
1.43022e-06
2.67474e-05
3.03615e-06
2.76055e-05
2.51149e-06
2.8015e-05
1.91178e-06
2.85144e-05
8.00245e-07
2.88466e-05
1.12255e-06
2.92236e-05
8.26263e-07
2.9452e-05
1.04261e-06
2.982e-05
7.90181e-07
2.99514e-05
7.81741e-07
3.02437e-05
5.32201e-07
3.03412e-05
7.87738e-07
3.07043e-05
1.48683e-07
3.07139e-05
8.82813e-07
3.10504e-05
1.92284e-07
3.10637e-05
6.59456e-07
3.13778e-05
4.42509e-07
3.11416e-05
8.70853e-07
3.0968e-05
5.35932e-07
1.52882e-06
3.01657e-05
2.55529e-05
8.77328e-07
2.65653e-05
2.02377e-06
2.74289e-05
1.64787e-06
2.80128e-05
1.32791e-06
2.8357e-05
4.5597e-07
2.86487e-05
8.30862e-07
2.90206e-05
4.54337e-07
2.93201e-05
7.43114e-07
2.95956e-05
5.14687e-07
2.98152e-05
5.62211e-07
3.00471e-05
3.00229e-07
3.02986e-05
5.36306e-07
3.04445e-05
2.7486e-09
3.06212e-05
7.06136e-07
3.07929e-05
2.05651e-08
3.10236e-05
4.28792e-07
3.10848e-05
3.81226e-07
3.14541e-05
5.01604e-07
3.1782e-05
2.08023e-07
2.62857e-07
3.3048e-05
2.546e-05
4.17377e-07
2.65091e-05
9.74662e-07
2.73548e-05
8.02136e-07
2.79253e-05
7.57381e-07
2.82034e-05
1.77861e-07
2.85766e-05
4.57672e-07
2.89204e-05
1.10551e-07
2.91888e-05
4.7468e-07
2.94459e-05
2.57637e-07
2.97669e-05
2.41178e-07
2.9933e-05
1.3419e-07
3.01511e-05
3.18203e-07
3.02659e-05
-1.12098e-07
3.05826e-05
3.89412e-07
3.06708e-05
-6.76246e-08
3.09158e-05
1.83786e-07
3.10734e-05
2.23713e-07
3.13991e-05
1.75817e-07
3.16869e-05
-7.97544e-08
-2.73561e-07
3.22233e-05
2.54375e-05
-2.01391e-08
2.64512e-05
-3.90125e-08
2.72507e-05
2.65502e-09
2.78676e-05
1.40463e-07
2.82162e-05
-1.7072e-07
2.85606e-05
1.13277e-07
2.87756e-05
-1.04467e-07
2.91137e-05
1.36605e-07
2.94734e-05
-1.02107e-07
2.97498e-05
-3.52491e-08
2.98531e-05
3.08999e-08
3.00605e-05
1.10797e-07
3.0232e-05
-2.83574e-07
3.05677e-05
5.37101e-08
3.06607e-05
-1.6059e-07
3.07866e-05
5.78334e-08
3.10343e-05
-2.39209e-08
3.13753e-05
-1.6524e-07
3.17105e-05
-4.14953e-07
-3.04518e-07
3.17415e-05
2.54358e-05
-4.55904e-07
2.64263e-05
-1.02959e-06
2.72639e-05
-8.34869e-07
2.79094e-05
-5.05045e-07
2.81711e-05
-4.32475e-07
2.85311e-05
-2.46654e-07
2.8794e-05
-3.67427e-07
2.91914e-05
-2.60819e-07
2.94441e-05
-3.54757e-07
2.96925e-05
-2.83681e-07
2.98406e-05
-1.17217e-07
3.01223e-05
-1.70897e-07
3.02179e-05
-3.79117e-07
3.04973e-05
-2.25688e-07
3.05911e-05
-2.54412e-07
3.08472e-05
-1.98231e-07
3.10995e-05
-2.76222e-07
3.1385e-05
-4.50805e-07
3.15701e-05
-5.99993e-07
-5.28049e-07
3.17936e-05
2.54659e-05
-9.21767e-07
2.64688e-05
-2.03253e-06
2.7324e-05
-1.69005e-06
2.79186e-05
-1.0997e-06
2.82272e-05
-7.41016e-07
2.86149e-05
-6.34374e-07
2.88674e-05
-6.19935e-07
2.92286e-05
-6.22029e-07
2.94529e-05
-5.79041e-07
2.97138e-05
-5.44569e-07
2.99436e-05
-3.47027e-07
3.02032e-05
-4.30507e-07
3.03117e-05
-4.87622e-07
3.04974e-05
-4.11422e-07
3.06338e-05
-3.90725e-07
3.09271e-05
-4.91529e-07
3.12063e-05
-5.55518e-07
3.14173e-05
-6.61717e-07
3.15977e-05
-7.80402e-07
-8.58971e-07
3.19286e-05
2.55396e-05
-1.46141e-06
2.65565e-05
-3.04939e-06
2.74123e-05
-2.54582e-06
2.8053e-05
-1.74043e-06
2.83678e-05
-1.05585e-06
2.86643e-05
-9.30817e-07
2.89477e-05
-9.03368e-07
2.93444e-05
-1.01872e-06
2.95576e-05
-7.92268e-07
2.98287e-05
-8.15639e-07
3.00627e-05
-5.81056e-07
3.03079e-05
-6.75663e-07
3.03988e-05
-5.78524e-07
3.06146e-05
-6.27192e-07
3.07708e-05
-5.46957e-07
3.10304e-05
-7.51155e-07
3.12185e-05
-7.43584e-07
3.14903e-05
-9.33501e-07
3.17536e-05
-1.04376e-06
-1.06396e-06
3.19586e-05
2.56645e-05
-2.12594e-06
2.67384e-05
-4.12322e-06
2.76054e-05
-3.41283e-06
2.80858e-05
-2.22087e-06
2.84597e-05
-1.42973e-06
2.88272e-05
-1.29832e-06
2.91816e-05
-1.25775e-06
2.95123e-05
-1.34945e-06
2.97427e-05
-1.02262e-06
3.00102e-05
-1.08314e-06
3.02277e-05
-7.9862e-07
3.04337e-05
-8.81597e-07
3.05519e-05
-6.96746e-07
3.07724e-05
-8.47677e-07
3.09348e-05
-7.09421e-07
3.11747e-05
-9.9099e-07
3.13297e-05
-8.98574e-07
3.16454e-05
-1.24926e-06
3.1867e-05
-1.26538e-06
-1.35824e-06
3.21613e-05
2.58408e-05
-2.96679e-06
2.6961e-05
-5.24335e-06
2.78016e-05
-4.25348e-06
2.82302e-05
-2.64941e-06
2.86946e-05
-1.89415e-06
2.91034e-05
-1.70713e-06
2.94589e-05
-1.6133e-06
2.97224e-05
-1.61286e-06
2.99763e-05
-1.27654e-06
3.01753e-05
-1.28218e-06
3.03845e-05
-1.00775e-06
3.05371e-05
-1.03425e-06
3.06826e-05
-8.42224e-07
3.08318e-05
-9.96875e-07
3.09566e-05
-8.34278e-07
3.10855e-05
-1.11988e-06
3.11743e-05
-9.87325e-07
3.13813e-05
-1.45623e-06
3.15014e-05
-1.38551e-06
-1.62812e-06
3.17713e-05
2.60385e-05
-4.00527e-06
2.72341e-05
-6.43892e-06
2.80217e-05
-5.04118e-06
2.85046e-05
-3.13225e-06
2.89749e-05
-2.36445e-06
2.93299e-05
-2.0622e-06
2.95916e-05
-1.87493e-06
2.97207e-05
-1.74197e-06
2.98579e-05
-1.41374e-06
2.98955e-05
-1.31984e-06
2.99547e-05
-1.06686e-06
2.99379e-05
-1.01745e-06
2.99446e-05
-8.49016e-07
2.9893e-05
-9.45273e-07
2.98563e-05
-7.97487e-07
2.97536e-05
-1.01719e-06
2.96601e-05
-8.93826e-07
2.95711e-05
-1.36724e-06
2.94485e-05
-1.26296e-06
-1.63459e-06
2.9455e-05
2.63077e-05
-5.313e-06
2.75388e-05
-7.67002e-06
2.80719e-05
-5.57424e-06
2.84547e-05
-3.51503e-06
2.8634e-05
-2.54376e-06
2.86285e-05
-2.05669e-06
2.84764e-05
-1.72291e-06
2.82192e-05
-1.48468e-06
2.7974e-05
-1.16858e-06
2.76767e-05
-1.02254e-06
2.74209e-05
-8.11086e-07
2.71435e-05
-7.40066e-07
2.69045e-05
-6.09981e-07
2.66286e-05
-6.69316e-07
2.63949e-05
-5.63789e-07
2.60932e-05
-7.15559e-07
2.5839e-05
-6.39628e-07
2.54706e-05
-9.98764e-07
2.51778e-05
-9.70207e-07
-1.43057e-06
2.49738e-05
2.6605e-05
-6.91797e-06
2.7156e-05
-8.22108e-06
2.67746e-05
-5.19276e-06
2.62513e-05
-2.99175e-06
2.55958e-05
-1.88828e-06
2.48756e-05
-1.3365e-06
2.41578e-05
-1.00514e-06
2.3493e-05
-8.19851e-07
2.29343e-05
-6.0985e-07
2.24319e-05
-5.20205e-07
2.20227e-05
-4.0184e-07
2.16522e-05
-3.69596e-07
2.13403e-05
-2.98079e-07
2.10205e-05
-3.49521e-07
2.07475e-05
-2.90802e-07
2.04199e-05
-3.87888e-07
2.01347e-05
-3.54453e-07
1.96844e-05
-5.48502e-07
1.92707e-05
-5.56471e-07
-5.54743e-07
1.83949e-05
2.54498e-05
-7.36778e-06
2.32456e-05
-6.01686e-06
2.09858e-05
-2.93302e-06
1.93196e-05
-1.32552e-06
1.80714e-05
-6.40026e-07
1.71117e-05
-3.76809e-07
1.63658e-05
-2.59299e-07
1.57647e-05
-2.1873e-07
1.53075e-05
-1.52603e-07
1.49228e-05
-1.3551e-07
1.4622e-05
-1.01104e-07
1.43525e-05
-1.00087e-07
1.41301e-05
-7.56295e-08
1.38881e-05
-1.07518e-07
1.36817e-05
-8.44044e-08
1.34218e-05
-1.2799e-07
1.31809e-05
-1.13593e-07
1.28197e-05
-1.87258e-07
1.25002e-05
-2.36968e-07
-1.13886e-07
1.20593e-05
1.76322e-05
1.16154e-05
8.68234e-06
7.35682e-06
6.71679e-06
6.33998e-06
6.08068e-06
5.86195e-06
5.70935e-06
5.57384e-06
5.47273e-06
5.37265e-06
5.29702e-06
5.1895e-06
5.1051e-06
4.97711e-06
4.86351e-06
4.67625e-06
4.43929e-06
4.3254e-06
5.85845e-06
-3.17804e-07
-1.53933e-07
6.23363e-06
-1.54785e-07
-2.20394e-07
6.52218e-06
-3.9123e-08
-2.49422e-07
6.79131e-06
2.02113e-08
-2.89345e-07
7.06235e-06
5.53024e-08
-3.26341e-07
7.38674e-06
3.3063e-08
-3.57456e-07
7.73841e-06
-7.92833e-09
-3.4374e-07
8.08466e-06
-3.49473e-08
-3.11302e-07
8.41203e-06
-8.11099e-08
-2.46254e-07
8.7119e-06
-1.27341e-07
-1.72534e-07
8.97371e-06
-1.70639e-07
-9.11675e-08
9.20416e-06
-2.32094e-07
1.64256e-09
9.42316e-06
-3.09024e-07
9.00203e-08
9.62621e-06
-3.8934e-07
1.86293e-07
9.82995e-06
-5.04439e-07
3.00698e-07
1.00317e-05
-6.04857e-07
4.03071e-07
1.02405e-05
-7.25554e-07
5.16748e-07
1.04522e-05
-8.61755e-07
6.50109e-07
1.06494e-05
-1.01017e-06
8.12934e-07
1.08189e-05
-1.1695e-06
1.00004e-06
1.09375e-05
-1.30024e-06
1.18158e-06
1.10435e-05
-1.4773e-06
1.37137e-06
1.10896e-05
-1.57118e-06
1.52506e-06
1.10771e-05
-1.69221e-06
1.7047e-06
1.0967e-05
-1.73015e-06
1.84024e-06
1.07551e-05
-1.7104e-06
1.9223e-06
1.04962e-05
-1.68876e-06
1.94769e-06
1.01699e-05
-1.5256e-06
1.85192e-06
9.91209e-06
-1.45494e-06
1.71271e-06
9.66362e-06
-1.21511e-06
1.46357e-06
9.49054e-06
-9.74686e-07
1.14777e-06
9.43001e-06
-6.20908e-07
6.81438e-07
9.39459e-06
-1.05119e-07
1.40533e-07
9.56614e-06
3.26494e-07
-4.98043e-07
9.7788e-06
1.06873e-06
-1.28138e-06
1.0135e-05
1.68655e-06
-2.04274e-06
1.06531e-05
2.35735e-06
-2.87549e-06
1.11253e-05
3.22543e-06
-3.6976e-06
1.17187e-05
3.73628e-06
-4.32972e-06
1.25629e-05
4.25251e-06
-5.09665e-06
1.33691e-05
4.65941e-06
-5.46559e-06
1.41046e-05
4.7796e-06
-5.51515e-06
1.52443e-05
4.60363e-06
-5.74335e-06
1.64668e-05
4.27458e-06
-5.49705e-06
1.73712e-05
3.99975e-06
-4.90415e-06
1.86056e-05
2.96333e-06
-4.1977e-06
2.0128e-05
1.95768e-06
-3.48007e-06
2.13441e-05
1.29496e-06
-2.51116e-06
2.26842e-05
-5.94364e-07
-7.45731e-07
2.43174e-05
-1.95425e-06
3.21058e-07
2.56509e-05
-3.183e-06
1.84954e-06
2.71066e-05
-5.26467e-06
3.80892e-06
2.845e-05
-6.71825e-06
5.37487e-06
2.96782e-05
-8.69051e-06
7.46234e-06
3.09232e-05
-1.0478e-05
9.23294e-06
3.17755e-05
-1.1839e-05
1.09867e-05
3.25178e-05
-1.32527e-05
1.25105e-05
3.2962e-05
-1.42664e-05
1.38222e-05
3.30429e-05
-1.48758e-05
1.4795e-05
3.27728e-05
-1.50641e-05
1.53342e-05
3.19015e-05
-1.49766e-05
1.58479e-05
3.10612e-05
-1.43317e-05
1.51719e-05
3.01068e-05
-1.37784e-05
1.47328e-05
2.91671e-05
-1.32592e-05
1.41989e-05
2.81863e-05
-1.20017e-05
1.29825e-05
2.73252e-05
-1.15387e-05
1.23998e-05
2.67698e-05
-1.04959e-05
1.10513e-05
2.56886e-05
-9.393e-06
1.04743e-05
2.52322e-05
-9.02563e-06
9.482e-06
2.4873e-05
-7.95741e-06
8.31663e-06
2.4602e-05
-7.43221e-06
7.70319e-06
2.46128e-05
-6.4745e-06
6.46372e-06
2.41381e-05
-5.19505e-06
5.66972e-06
2.3889e-05
-4.50674e-06
4.75585e-06
2.37413e-05
-3.5546e-06
3.70229e-06
2.32124e-05
-2.22361e-06
2.75256e-06
2.28393e-05
-1.44806e-06
1.8211e-06
2.23039e-05
-8.39852e-08
6.19444e-07
2.15195e-05
9.50109e-07
-1.65752e-07
2.13524e-05
1.4994e-06
-1.3323e-06
2.18435e-05
2.75906e-06
-3.25013e-06
2.22986e-05
4.34278e-06
-4.79792e-06
2.24592e-05
5.75702e-06
-5.9176e-06
2.22335e-05
6.90917e-06
-6.68352e-06
2.14545e-05
7.93492e-06
-7.15584e-06
2.03094e-05
8.54771e-06
-7.40268e-06
1.9354e-05
8.50688e-06
-7.55145e-06
1.89912e-05
8.00427e-06
-7.64146e-06
1.91765e-05
7.33426e-06
-7.51954e-06
1.96217e-05
6.96062e-06
-7.40585e-06
2.03556e-05
6.3519e-06
-7.08582e-06
2.14501e-05
5.57196e-06
-6.66646e-06
2.26457e-05
5.33395e-06
-6.52956e-06
2.3592e-05
5.01386e-06
-5.96016e-06
2.43909e-05
3.69426e-06
-4.4932e-06
2.53714e-05
2.31499e-06
-3.29547e-06
2.63922e-05
1.42518e-06
-2.44593e-06
2.72533e-05
2.09178e-07
-1.07033e-06
2.8175e-05
-1.55126e-06
6.29547e-07
2.92492e-05
-3.15458e-06
2.08041e-06
3.051e-05
-4.40672e-06
3.14594e-06
3.17692e-05
-4.90583e-06
3.64663e-06
3.2757e-05
-4.70757e-06
3.71975e-06
3.31155e-05
-4.40378e-06
4.04529e-06
3.28708e-05
-4.01012e-06
4.25478e-06
3.21237e-05
-3.80303e-06
4.55013e-06
3.11593e-05
-5.02768e-06
5.99214e-06
2.99264e-05
-6.81558e-06
8.04843e-06
2.86103e-05
-8.02456e-06
9.34065e-06
2.74833e-05
-9.62065e-06
1.07477e-05
2.64662e-05
-1.179e-05
1.28071e-05
2.55494e-05
-1.37753e-05
1.46921e-05
2.47706e-05
-1.5747e-05
1.65258e-05
2.41585e-05
-1.77697e-05
1.83818e-05
2.35878e-05
-1.93926e-05
1.99634e-05
2.28738e-05
-1.99808e-05
2.06948e-05
2.19476e-05
-1.90803e-05
2.00065e-05
2.10002e-05
-1.76273e-05
1.85747e-05
2.03679e-05
-1.65484e-05
1.71808e-05
2.0272e-05
-1.58848e-05
1.59806e-05
2.0917e-05
-1.62756e-05
1.56307e-05
2.20671e-05
-1.70189e-05
1.58688e-05
2.33352e-05
-1.76472e-05
1.63791e-05
2.44013e-05
-1.76394e-05
1.65733e-05
2.50846e-05
-1.71647e-05
1.64814e-05
2.53755e-05
-1.60715e-05
1.57806e-05
2.55187e-05
-1.42363e-05
1.40931e-05
2.54469e-05
-1.20237e-05
1.20954e-05
2.53105e-05
-9.84262e-06
9.97908e-06
2.54108e-05
-7.92643e-06
7.82611e-06
2.56144e-05
-5.70086e-06
5.49728e-06
2.55719e-05
-3.85419e-06
3.89662e-06
2.5009e-05
-6.3436e-07
1.19727e-06
2.43631e-05
3.35213e-06
-2.70617e-06
2.36197e-05
6.8128e-06
-6.06942e-06
2.26342e-05
9.56242e-06
-8.57699e-06
2.16119e-05
1.34111e-05
-1.23888e-05
2.0693e-05
1.60976e-05
-1.51787e-05
1.98038e-05
1.78448e-05
-1.69555e-05
1.87142e-05
2.01656e-05
-1.9076e-05
1.77498e-05
2.27791e-05
-2.18147e-05
1.68181e-05
2.54648e-05
-2.45331e-05
1.57599e-05
2.6977e-05
-2.59189e-05
1.53341e-05
2.70429e-05
-2.66171e-05
1.51017e-05
2.50962e-05
-2.48638e-05
1.51078e-05
2.13453e-05
-2.13515e-05
1.5022e-05
1.76205e-05
-1.75347e-05
1.51322e-05
1.63388e-05
-1.6449e-05
1.5689e-05
1.63911e-05
-1.69479e-05
1.65088e-05
1.76355e-05
-1.84553e-05
1.74121e-05
1.76461e-05
-1.85494e-05
1.81614e-05
1.79471e-05
-1.86965e-05
1.89575e-05
1.66736e-05
-1.74697e-05
1.9448e-05
1.63742e-05
-1.68647e-05
2.0061e-05
1.41829e-05
-1.4796e-05
2.05816e-05
1.27221e-05
-1.32426e-05
2.08504e-05
1.00824e-05
-1.03512e-05
2.10926e-05
8.87007e-06
-9.11234e-06
2.1264e-05
5.01267e-06
-5.18406e-06
2.17639e-05
3.33273e-06
-3.8326e-06
2.22136e-05
1.3822e-07
-5.87974e-07
2.27135e-05
-1.72072e-06
1.22084e-06
2.29493e-05
-5.29017e-06
5.05439e-06
2.25918e-05
-4.68229e-06
5.03981e-06
2.23617e-05
-6.82996e-06
7.06004e-06
2.13778e-05
-6.99862e-06
7.98253e-06
2.01227e-05
-7.18351e-06
8.43864e-06
1.89434e-05
-5.52636e-06
6.70567e-06
1.84484e-05
-6.86689e-06
7.36182e-06
1.75556e-05
-5.50422e-06
6.39705e-06
1.69946e-05
-4.90532e-06
5.4663e-06
1.64717e-05
-3.73923e-06
4.2621e-06
1.64981e-05
-4.42773e-06
4.40133e-06
1.6361e-05
-4.4168e-06
4.55395e-06
1.63243e-05
-4.58834e-06
4.62505e-06
1.61941e-05
-4.29704e-06
4.42721e-06
1.63405e-05
-4.03083e-06
3.88446e-06
1.63401e-05
-3.51945e-06
3.5199e-06
1.68358e-05
-4.18931e-06
3.6936e-06
1.74591e-05
-5.1398e-06
4.51649e-06
1.75099e-05
-4.49522e-06
4.44443e-06
1.7391e-05
-4.20662e-06
4.32545e-06
1.70713e-05
-2.83175e-06
3.15151e-06
1.68003e-05
-2.58042e-06
2.85135e-06
1.69262e-05
-1.61889e-06
1.49303e-06
1.53846e-05
1.32009e-07
1.40954e-06
1.58315e-05
-8.24826e-07
3.77906e-07
1.54531e-05
1.86006e-06
-1.48167e-06
1.5509e-05
1.19123e-06
-1.24705e-06
1.63215e-05
2.50835e-06
-3.32093e-06
1.61985e-05
3.43716e-06
-3.31414e-06
1.7331e-05
5.31364e-06
-6.44611e-06
1.68005e-05
9.10073e-06
-8.5702e-06
1.73445e-05
1.02818e-05
-1.08259e-05
1.71645e-05
1.5989e-05
-1.5809e-05
1.70375e-05
1.8272e-05
-1.81451e-05
1.72022e-05
2.18539e-05
-2.20186e-05
1.52664e-05
2.76018e-05
-2.5666e-05
1.55417e-05
3.06017e-05
-3.08769e-05
4.18812e-05
-4.22079e-05
1.58683e-05
1.35176e-05
-3.30234e-07
1.35515e-05
-1.88687e-07
1.35916e-05
-7.92226e-08
1.36798e-05
-6.80341e-08
1.38293e-05
-9.41895e-08
1.40126e-05
-1.50195e-07
1.4238e-05
-2.33315e-07
1.4455e-05
-2.52038e-07
1.46677e-05
-2.93753e-07
1.48744e-05
-3.34026e-07
1.50638e-05
-3.60044e-07
1.52487e-05
-4.17053e-07
1.54343e-05
-4.94608e-07
1.56196e-05
-5.74645e-07
1.58106e-05
-6.95424e-07
1.60063e-05
-8.00537e-07
1.62085e-05
-9.27721e-07
1.63992e-05
-1.05252e-06
1.65749e-05
-1.18588e-06
1.67394e-05
-1.33401e-06
1.68439e-05
-1.40467e-06
1.69436e-05
-1.57706e-06
1.69636e-05
-1.59113e-06
1.69402e-05
-1.66879e-06
1.68707e-05
-1.66074e-06
1.67152e-05
-1.55491e-06
1.6558e-05
-1.53155e-06
1.63048e-05
-1.27239e-06
1.59721e-05
-1.12226e-06
1.5577e-05
-8.19975e-07
1.51122e-05
-5.09886e-07
1.46873e-05
-1.95996e-07
1.42973e-05
2.84894e-07
1.39624e-05
6.6136e-07
1.39483e-05
1.0828e-06
1.40497e-05
1.58518e-06
1.4264e-05
2.14306e-06
1.48898e-05
2.59963e-06
1.54467e-05
3.17941e-06
1.61138e-05
3.58536e-06
1.7178e-05
3.59526e-06
1.81049e-05
3.85265e-06
1.90424e-05
3.66615e-06
2.02905e-05
3.02647e-06
2.16488e-05
2.64146e-06
2.26506e-05
1.96154e-06
2.39544e-05
6.5391e-07
2.55484e-05
-2.99025e-07
2.6676e-05
-1.72197e-06
2.81127e-05
-3.39096e-06
2.95663e-05
-4.63658e-06
3.08616e-05
-6.56002e-06
3.20549e-05
-7.91156e-06
3.32203e-05
-9.8559e-06
3.41145e-05
-1.13722e-05
3.45238e-05
-1.22483e-05
3.47911e-05
-1.35199e-05
3.47394e-05
-1.42147e-05
3.42404e-05
-1.43768e-05
3.32469e-05
-1.40706e-05
3.22302e-05
-1.39599e-05
3.12334e-05
-1.33348e-05
3.01722e-05
-1.27172e-05
2.92169e-05
-1.23039e-05
2.84893e-05
-1.12741e-05
2.75449e-05
-1.05944e-05
2.68628e-05
-9.81377e-06
2.62593e-05
-8.78955e-06
2.5864e-05
-8.63025e-06
2.55637e-05
-7.6572e-06
2.48754e-05
-6.74392e-06
2.46197e-05
-6.21877e-06
2.44636e-05
-5.03889e-06
2.42232e-05
-4.26637e-06
2.41537e-05
-3.48517e-06
2.38185e-05
-1.88835e-06
2.32569e-05
-8.86434e-07
2.30695e-05
1.03328e-07
2.25005e-05
1.51916e-06
2.16793e-05
2.32064e-06
2.14715e-05
2.96681e-06
2.18035e-05
4.01079e-06
2.22207e-05
5.33983e-06
2.26172e-05
6.51267e-06
2.2874e-05
7.6781e-06
2.26949e-05
8.72686e-06
2.20019e-05
9.19991e-06
2.13408e-05
8.66534e-06
2.10494e-05
7.6257e-06
2.10892e-05
6.92072e-06
2.14229e-05
6.0182e-06
2.20699e-05
4.92501e-06
2.26853e-05
4.71858e-06
2.30595e-05
4.63964e-06
2.33229e-05
3.43089e-06
2.38274e-05
1.81051e-06
2.45628e-05
6.89764e-07
2.52598e-05
-4.87901e-07
2.61716e-05
-2.463e-06
2.73671e-05
-4.3501e-06
2.87183e-05
-5.75792e-06
3.016e-05
-6.34748e-06
3.14015e-05
-5.9491e-06
3.21461e-05
-5.14837e-06
3.22807e-05
-4.14473e-06
3.19258e-05
-3.44814e-06
3.12233e-05
-4.3252e-06
2.99207e-05
-5.51295e-06
2.85056e-05
-6.60951e-06
2.74171e-05
-8.53214e-06
2.63789e-05
-1.07518e-05
2.53464e-05
-1.27427e-05
2.45685e-05
-1.49691e-05
2.40721e-05
-1.72733e-05
2.34343e-05
-1.87548e-05
2.23306e-05
-1.88772e-05
2.10214e-05
-1.77711e-05
1.99812e-05
-1.6587e-05
1.94878e-05
-1.60551e-05
1.96692e-05
-1.60662e-05
2.04485e-05
-1.70549e-05
2.15296e-05
-1.81e-05
2.24889e-05
-1.86065e-05
2.31063e-05
-1.82568e-05
2.3516e-05
-1.75744e-05
2.35566e-05
-1.61121e-05
2.35706e-05
-1.42503e-05
2.35671e-05
-1.20202e-05
2.36429e-05
-9.91849e-06
2.36607e-05
-7.94425e-06
2.37557e-05
-5.79585e-06
2.34239e-05
-3.52238e-06
2.26965e-05
9.30593e-08
2.20527e-05
3.99595e-06
2.15682e-05
7.29725e-06
2.07363e-05
1.03944e-05
1.98895e-05
1.42578e-05
1.91056e-05
1.68816e-05
1.82658e-05
1.86846e-05
1.71865e-05
2.12449e-05
1.60668e-05
2.38988e-05
1.52763e-05
2.62553e-05
1.44025e-05
2.78509e-05
1.39448e-05
2.75005e-05
1.40686e-05
2.49725e-05
1.43682e-05
2.10457e-05
1.44413e-05
1.75473e-05
1.47042e-05
1.60759e-05
1.5123e-05
1.59722e-05
1.58351e-05
1.69234e-05
1.66728e-05
1.68084e-05
1.77213e-05
1.68987e-05
1.87797e-05
1.56152e-05
1.94978e-05
1.56562e-05
2.00209e-05
1.36598e-05
2.06415e-05
1.21014e-05
2.10909e-05
9.63306e-06
2.16067e-05
8.35426e-06
2.21992e-05
4.42022e-06
2.29823e-05
2.54966e-06
2.34769e-05
-3.56404e-07
2.38604e-05
-2.10421e-06
2.35089e-05
-4.93867e-06
2.26928e-05
-3.86623e-06
2.21001e-05
-6.23721e-06
2.08458e-05
-5.74432e-06
1.97359e-05
-6.07361e-06
1.91158e-05
-4.90629e-06
1.86997e-05
-6.45079e-06
1.78524e-05
-4.65694e-06
1.74609e-05
-4.51378e-06
1.71076e-05
-3.386e-06
1.72418e-05
-4.5619e-06
1.69312e-05
-4.1062e-06
1.69572e-05
-4.61433e-06
1.68054e-05
-4.14524e-06
1.69699e-05
-4.19534e-06
1.70579e-05
-3.60746e-06
1.76688e-05
-4.8002e-06
1.77883e-05
-5.25932e-06
1.77024e-05
-4.4093e-06
1.71468e-05
-3.65106e-06
1.70457e-05
-2.73066e-06
1.61291e-05
-1.66376e-06
1.62698e-05
-1.75958e-06
1.51345e-05
1.26728e-06
1.47296e-05
-4.19942e-07
1.49845e-05
1.60519e-06
1.46132e-05
1.56255e-06
1.56529e-05
1.46867e-06
1.60864e-05
3.00366e-06
1.7314e-05
4.08596e-06
1.74376e-05
8.97715e-06
1.73396e-05
1.03798e-05
1.86902e-05
1.46384e-05
1.76797e-05
1.92826e-05
1.8976e-05
2.05576e-05
1.8703e-05
2.78748e-05
2.41919e-05
2.51127e-05
4.26667e-05
2.34065e-05
2.05201e-05
-1.22282e-07
2.02824e-05
4.89859e-08
2.01377e-05
6.5475e-08
2.01808e-05
-1.11095e-07
2.03048e-05
-2.18181e-07
2.04757e-05
-3.21118e-07
2.06554e-05
-4.13005e-07
2.07889e-05
-3.85608e-07
2.09141e-05
-4.18927e-07
2.10519e-05
-4.71787e-07
2.11632e-05
-4.71318e-07
2.12996e-05
-5.53526e-07
2.14454e-05
-6.40421e-07
2.15807e-05
-7.09925e-07
2.17339e-05
-8.48622e-07
2.1874e-05
-9.40659e-07
2.20172e-05
-1.07093e-06
2.2132e-05
-1.16724e-06
2.22565e-05
-1.31037e-06
2.23409e-05
-1.41844e-06
2.23823e-05
-1.44611e-06
2.24347e-05
-1.62943e-06
2.23961e-05
-1.5525e-06
2.23628e-05
-1.63551e-06
2.22742e-05
-1.57215e-06
2.21552e-05
-1.4359e-06
2.19745e-05
-1.35085e-06
2.17603e-05
-1.05815e-06
2.15019e-05
-8.63886e-07
2.11802e-05
-4.98279e-07
2.09294e-05
-2.59104e-07
2.05158e-05
2.17592e-07
2.02077e-05
5.93013e-07
1.98658e-05
1.0033e-06
1.95137e-05
1.43488e-06
1.94694e-05
1.62948e-06
1.93221e-05
2.29032e-06
1.94901e-05
2.43162e-06
2.00026e-05
2.66689e-06
2.05284e-05
3.05956e-06
2.12176e-05
2.90613e-06
2.22638e-05
2.80645e-06
2.33346e-05
2.59528e-06
2.41422e-05
2.21888e-06
2.55412e-05
1.2425e-06
2.69569e-05
5.45796e-07
2.79767e-05
-3.65873e-07
2.94878e-05
-1.81008e-06
3.0845e-05
-3.07917e-06
3.20632e-05
-4.60923e-06
3.32973e-05
-5.87069e-06
3.44392e-05
-7.70194e-06
3.5411e-05
-8.88333e-06
3.60019e-05
-1.04468e-05
3.63875e-05
-1.17578e-05
3.63335e-05
-1.21944e-05
3.61708e-05
-1.33573e-05
3.52922e-05
-1.33361e-05
3.42346e-05
-1.33192e-05
3.32758e-05
-1.31118e-05
3.20087e-05
-1.26928e-05
3.09325e-05
-1.22586e-05
2.99771e-05
-1.17618e-05
2.91175e-05
-1.14443e-05
2.841e-05
-1.05665e-05
2.7795e-05
-9.9794e-06
2.7561e-05
-9.57979e-06
2.74112e-05
-8.63965e-06
2.70483e-05
-8.26739e-06
2.68243e-05
-7.43321e-06
2.64507e-05
-6.37027e-06
2.61464e-05
-5.91448e-06
2.58493e-05
-4.7418e-06
2.51584e-05
-3.57553e-06
2.45512e-05
-2.87794e-06
2.41589e-05
-1.49601e-06
2.35762e-05
-3.03752e-07
2.34607e-05
2.18791e-07
2.36289e-05
1.351e-06
2.31637e-05
2.7858e-06
2.2432e-05
3.69854e-06
2.19219e-05
4.52088e-06
2.17134e-05
5.54835e-06
2.1913e-05
6.31301e-06
2.2629e-05
6.9621e-06
2.35584e-05
7.79752e-06
2.40416e-05
8.71672e-06
2.38538e-05
8.85309e-06
2.3335e-05
8.14447e-06
2.30535e-05
7.20231e-06
2.32109e-05
5.8608e-06
2.36834e-05
4.45245e-06
2.41512e-05
4.25082e-06
2.43581e-05
4.43268e-06
2.42705e-05
3.51857e-06
2.42345e-05
1.8465e-06
2.43083e-05
6.15964e-07
2.46679e-05
-8.47555e-07
2.54857e-05
-3.28074e-06
2.65462e-05
-5.41061e-06
2.7688e-05
-6.89969e-06
2.89142e-05
-7.57371e-06
2.99667e-05
-7.00158e-06
3.06833e-05
-5.86498e-06
3.09146e-05
-4.37606e-06
3.07412e-05
-3.27473e-06
3.01115e-05
-3.69548e-06
2.90504e-05
-4.45184e-06
2.79503e-05
-5.50946e-06
2.69583e-05
-7.54013e-06
2.59335e-05
-9.72696e-06
2.49344e-05
-1.17437e-05
2.42146e-05
-1.42493e-05
2.35747e-05
-1.66334e-05
2.26322e-05
-1.78122e-05
2.12687e-05
-1.75137e-05
1.9861e-05
-1.63634e-05
1.88588e-05
-1.55848e-05
1.85338e-05
-1.57301e-05
1.89551e-05
-1.64875e-05
1.97752e-05
-1.7875e-05
2.05534e-05
-1.88782e-05
2.10982e-05
-1.91514e-05
2.14055e-05
-1.85641e-05
2.15692e-05
-1.7738e-05
2.16681e-05
-1.6211e-05
2.16657e-05
-1.42479e-05
2.16104e-05
-1.19649e-05
2.1665e-05
-9.97311e-06
2.15327e-05
-7.81193e-06
2.13627e-05
-5.62583e-06
2.07436e-05
-2.90332e-06
2.00204e-05
8.16281e-07
1.94962e-05
4.52012e-06
1.91756e-05
7.61788e-06
1.84362e-05
1.11338e-05
1.78318e-05
1.48622e-05
1.72039e-05
1.75095e-05
1.64609e-05
1.94276e-05
1.53957e-05
2.231e-05
1.4439e-05
2.48555e-05
1.34049e-05
2.72895e-05
1.2762e-05
2.84937e-05
1.20749e-05
2.81877e-05
1.25241e-05
2.45232e-05
1.33303e-05
2.02395e-05
1.37961e-05
1.70816e-05
1.41944e-05
1.56776e-05
1.44263e-05
1.57404e-05
1.51635e-05
1.61863e-05
1.59367e-05
1.60352e-05
1.71223e-05
1.57131e-05
1.82089e-05
1.45286e-05
1.91694e-05
1.46956e-05
1.97383e-05
1.30909e-05
2.06159e-05
1.12238e-05
2.13501e-05
8.89884e-06
2.22868e-05
7.41758e-06
2.31217e-05
3.58535e-06
2.36369e-05
2.03443e-06
2.39813e-05
-7.00739e-07
2.38262e-05
-1.94915e-06
2.29046e-05
-4.01712e-06
2.2089e-05
-3.05063e-06
2.13985e-05
-5.54667e-06
2.02789e-05
-4.62475e-06
1.95867e-05
-5.38137e-06
1.91433e-05
-4.46289e-06
1.87491e-05
-6.0566e-06
1.81598e-05
-4.06765e-06
1.79255e-05
-4.27949e-06
1.77109e-05
-3.17142e-06
1.77283e-05
-4.5793e-06
1.74717e-05
-3.84957e-06
1.77085e-05
-4.85112e-06
1.75418e-05
-3.97849e-06
1.78243e-05
-4.47784e-06
1.79183e-05
-3.70152e-06
1.82408e-05
-5.12272e-06
1.7994e-05
-5.01251e-06
1.79805e-05
-4.39576e-06
1.71776e-05
-2.84815e-06
1.70173e-05
-2.57038e-06
1.57038e-05
-3.50253e-07
1.56644e-05
-1.72022e-06
1.44427e-05
2.48903e-06
1.40374e-05
-1.4671e-08
1.41702e-05
1.47243e-06
1.55114e-05
2.21329e-07
1.47122e-05
2.26785e-06
1.70093e-05
7.06616e-07
1.65871e-05
4.50809e-06
1.89534e-05
6.61087e-06
1.77068e-05
1.16264e-05
2.05622e-05
1.1783e-05
2.08538e-05
1.8991e-05
2.33201e-05
1.80914e-05
2.22608e-05
2.8934e-05
2.88558e-05
1.85178e-05
4.2123e-05
2.93995e-05
2.53222e-05
-1.78101e-07
2.54193e-05
-4.81223e-08
2.55389e-05
-5.41695e-08
2.57134e-05
-2.8562e-07
2.58382e-05
-3.42993e-07
2.59642e-05
-4.47111e-07
2.60904e-05
-5.39142e-07
2.61635e-05
-4.58752e-07
2.62238e-05
-4.79226e-07
2.63075e-05
-5.55447e-07
2.63698e-05
-5.33648e-07
2.64379e-05
-6.21574e-07
2.65409e-05
-7.43438e-07
2.66278e-05
-7.96843e-07
2.67075e-05
-9.28339e-07
2.67885e-05
-1.02163e-06
2.68746e-05
-1.15704e-06
2.68892e-05
-1.18183e-06
2.697e-05
-1.39122e-06
2.69684e-05
-1.41684e-06
2.69452e-05
-1.42294e-06
2.6939e-05
-1.62321e-06
2.68127e-05
-1.42622e-06
2.67677e-05
-1.59044e-06
2.66001e-05
-1.40461e-06
2.65056e-05
-1.3414e-06
2.63621e-05
-1.20726e-06
2.61574e-05
-8.53495e-07
2.60594e-05
-7.65924e-07
2.57901e-05
-2.28925e-07
2.56245e-05
-9.34958e-08
2.54182e-05
4.23885e-07
2.51952e-05
8.16017e-07
2.51164e-05
1.0821e-06
2.49324e-05
1.61884e-06
2.48362e-05
1.72574e-06
2.49271e-05
2.19943e-06
2.50567e-05
2.30197e-06
2.52313e-05
2.49227e-06
2.57696e-05
2.52128e-06
2.637e-05
2.30572e-06
2.69672e-05
2.20929e-06
2.80272e-05
1.53522e-06
2.90136e-05
1.23249e-06
2.98835e-05
3.72661e-07
3.12248e-05
-7.9553e-07
3.23368e-05
-1.47788e-06
3.34901e-05
-2.9634e-06
3.46524e-05
-4.24149e-06
3.5638e-05
-5.59475e-06
3.65446e-05
-6.77733e-06
3.71836e-05
-8.34092e-06
3.77161e-05
-9.41584e-06
3.76913e-05
-1.04219e-05
3.74616e-05
-1.15281e-05
3.6946e-05
-1.16788e-05
3.60151e-05
-1.24264e-05
3.48539e-05
-1.21748e-05
3.37766e-05
-1.22419e-05
3.28157e-05
-1.21509e-05
3.1683e-05
-1.15602e-05
3.09213e-05
-1.14968e-05
3.01316e-05
-1.09721e-05
2.93243e-05
-1.0637e-05
2.88985e-05
-1.01407e-05
2.85102e-05
-9.59114e-06
2.81821e-05
-9.25171e-06
2.79753e-05
-8.4328e-06
2.75709e-05
-7.86302e-06
2.74121e-05
-7.27442e-06
2.71919e-05
-6.15005e-06
2.68062e-05
-5.52879e-06
2.66686e-05
-4.60415e-06
2.63463e-05
-3.2533e-06
2.59425e-05
-2.47416e-06
2.57041e-05
-1.25761e-06
2.51364e-05
2.64013e-07
2.44554e-05
8.99736e-07
2.40699e-05
1.7365e-06
2.3624e-05
3.23174e-06
2.31559e-05
4.16664e-06
2.27981e-05
4.87868e-06
2.23797e-05
5.96672e-06
2.20145e-05
6.67826e-06
2.22298e-05
6.74677e-06
2.29691e-05
7.05822e-06
2.37964e-05
7.88944e-06
2.43334e-05
8.3161e-06
2.44715e-05
8.00637e-06
2.44448e-05
7.22894e-06
2.47631e-05
5.54248e-06
2.53483e-05
3.86729e-06
2.58436e-05
3.75554e-06
2.60397e-05
4.23656e-06
2.59255e-05
3.63279e-06
2.55821e-05
2.18988e-06
2.51711e-05
1.02695e-06
2.52642e-05
-9.40653e-07
2.57196e-05
-3.73616e-06
2.64128e-05
-6.10375e-06
2.73127e-05
-7.79967e-06
2.82266e-05
-8.48759e-06
2.89647e-05
-7.73968e-06
2.93536e-05
-6.25388e-06
2.93639e-05
-4.38636e-06