/*--------------------------------*- C++ -*----------------------------------*\
| =========                 |                                                 |
| \\      /  F ield         | OpenFOAM: The Open Source CFD Toolbox           |
|  \\    /   O peration     | Version:  2.4.0                                 |
|   \\  /    A nd           | Web:      www.OpenFOAM.org                      |
|    \\/     M anipulation  |                                                 |
\*---------------------------------------------------------------------------*/
FoamFile
{
    version     2.0;
    format      ascii;
    class       volScalarField;
    location    "1.61";
    object      pMean;
}
// * * * * * * * * * * * * * * * * * * * * * * * * * * * * * * * * * * * * * //

dimensions      [0 2 -2 0 0 0 0];

internalField   nonuniform List<scalar> 
8800
(
87.2097
74.7606
67.3573
63.7919
61.9017
60.4636
59.2553
58.0997
57.0696
56.0299
55.0789
54.0824
53.1777
52.224
51.3843
50.4993
49.7398
48.9419
48.248
47.4546
84.0984
74.4062
67.5257
63.9057
61.9617
60.4889
59.2628
58.1
57.0675
56.0275
55.076
54.0802
53.1751
52.2223
51.3824
50.4973
49.7416
48.9362
48.2496
47.4128
82.1333
74.4825
68.127
64.2814
62.1293
60.5683
59.3094
58.1327
57.0918
56.0445
55.0863
54.0849
53.1766
52.2204
51.3813
50.4908
49.7455
48.9264
48.3031
47.45
80.598
74.5445
68.7128
64.7049
62.3129
60.6564
59.3721
58.1895
57.1403
56.0834
55.1137
54.1024
53.1875
52.2245
51.384
50.4854
49.7481
48.928
48.3918
47.6291
79.3495
74.5183
69.1872
65.1105
62.4813
60.7243
59.4212
58.2475
57.1958
56.1354
55.1487
54.1298
53.2
52.2349
51.3826
50.4866
49.7385
48.9447
48.3883
47.8693
78.3646
74.4215
69.5511
65.4563
62.6313
60.7673
59.4492
58.2924
57.2455
56.1851
55.1831
54.1569
53.2106
52.2442
51.3774
50.486
49.7223
48.9581
48.4335
48.213
77.6081
74.3047
69.8178
65.7357
62.766
60.7931
59.4577
58.3239
57.2844
56.2268
55.2113
54.1798
53.2169
52.2507
51.3689
50.4833
49.7024
48.9639
48.5086
48.5806
77.0546
74.204
69.9985
65.948
62.8836
60.8124
59.4503
58.3478
57.3113
56.2608
55.2302
54.2005
53.2177
52.2586
51.3568
50.4865
49.6806
48.9659
48.4709
48.9025
76.6942
74.1338
70.1123
66.0926
62.9681
60.8258
59.4413
58.3638
57.3314
56.2857
55.2449
54.2158
53.2211
52.2656
51.3532
50.4902
49.672
48.9828
48.5402
49.2028
76.5145
74.1025
70.1705
66.1699
63.0132
60.8358
59.437
58.3749
57.3446
56.3026
55.255
54.2274
53.2265
52.2742
51.3567
50.4991
49.681
49.0076
48.6045
49.322
76.5073
74.1137
70.1716
66.1751
63.0128
60.8396
59.4346
58.3791
57.3447
56.3076
55.2557
54.2334
53.2288
52.2828
51.362
50.5116
49.6918
49.0325
48.6429
49.4145
76.6758
74.1628
70.1156
66.1039
62.968
60.8346
59.4365
58.3735
57.3328
56.2978
55.2482
54.2318
53.2298
52.2887
51.3704
50.5245
49.7079
49.0507
48.6668
49.4453
77.0265
74.2456
70.0005
65.9616
62.8816
60.8256
59.4417
58.3625
57.312
56.2792
55.2342
54.2264
53.2302
52.2966
51.3836
50.5434
49.7316
49.0726
48.6714
49.413
77.5723
74.3522
69.8183
65.7492
62.7586
60.8082
59.4449
58.3414
57.2815
56.2494
55.2127
54.2139
53.2282
52.3028
51.3991
50.5663
49.7629
49.1009
48.6605
49.3009
78.3256
74.4687
69.5532
65.4673
62.6198
60.7793
59.4374
58.3081
57.2413
56.2086
55.1843
54.1937
53.2235
52.3047
51.4153
50.5902
49.8033
49.1393
48.6604
49.1041
79.3073
74.5667
69.1905
65.1205
62.4671
60.7343
59.4113
58.2628
57.1922
56.1595
55.1515
54.1687
53.2171
52.3026
51.4314
50.6124
49.8508
49.1892
48.6902
48.8431
80.5537
74.594
68.7182
64.7172
62.2976
60.6666
59.3636
58.2063
57.1373
56.1094
55.1187
54.1441
53.2098
52.2982
51.4451
50.629
49.8974
49.2371
48.7499
48.5686
82.088
74.5308
68.1354
64.2958
62.114
60.5784
59.302
58.1501
57.0902
56.0708
55.0943
54.1272
53.2048
52.2963
51.4552
50.6418
49.9308
49.274
48.8091
48.4263
84.052
74.452
67.5361
63.9218
61.9472
60.4988
59.2556
58.1177
57.0667
56.0541
55.0852
54.1233
53.2054
52.2996
51.4619
50.6516
49.9464
49.2955
48.8061
48.3501
87.1622
74.8044
67.3674
63.8084
61.8879
60.4734
59.2482
58.1176
57.0688
56.0571
55.088
54.126
53.2081
52.302
51.465
50.655
49.95
49.3012
48.8075
48.4699
47.5183
47.4368
47.2191
46.9817
46.7861
46.6378
46.5347
46.4641
46.4161
46.3845
46.3648
46.3472
46.3291
46.3056
46.2753
46.2352
46.1865
46.125
46.0547
45.9732
45.887
45.8005
45.7199
45.6456
45.5823
45.5304
45.4903
45.4542
45.4168
45.369
45.3087
45.2359
45.1573
45.0782
45.0028
44.9279
44.8521
44.7653
44.6674
44.5544
44.4347
44.3083
44.1918
44.0903
44.0163
43.9669
43.9466
43.9454
43.9616
43.9845
44.0072
44.0162
44.0094
43.9751
43.9188
43.8307
43.7234
43.591
43.4456
43.2784
43.0977
42.8973
42.6907
42.4788
42.2808
42.1056
41.9697
41.8818
41.8493
41.8609
41.9162
41.9968
42.101
42.2083
42.323
42.4232
42.5171
42.583
42.6311
42.6452
42.6379
42.6005
42.5501
42.476
42.4023
42.3219
42.2533
42.1966
42.1587
42.1426
42.1513
42.1857
42.2459
42.3244
42.4222
42.5313
42.658
42.7906
42.935
43.0778
43.2238
43.3578
43.4888
43.5913
43.69
43.7614
43.8316
43.8828
43.9408
43.9808
44.023
44.0469
44.0693
44.072
44.0749
44.0662
44.0657
44.0603
44.068
44.0736
44.0933
44.1104
44.1453
44.1747
44.227
44.2661
44.3369
44.3935
44.4872
44.5802
44.7087
44.8417
44.9987
45.1566
45.3284
45.4956
45.6718
45.8354
46.0016
46.152
46.3072
46.4519
46.6023
46.7444
46.8921
47.0311
47.1767
47.3204
47.4692
47.6168
47.768
47.917
48.0718
48.2208
48.375
48.5284
48.6955
48.8548
49.0352
49.2071
49.4035
49.574
49.7737
49.9348
50.1215
50.2626
50.4367
50.5563
50.7099
50.7963
50.9427
50.9977
51.1525
51.2011
51.3796
51.4337
51.6487
51.712
51.9632
52.0604
52.3428
52.4863
52.8131
53.0214
53.3906
53.6677
54.072
54.3877
54.8195
55.1346
55.5522
55.7909
56.0709
56.0354
55.9046
55.1237
53.8661
50.5636
46.325
25.7562
47.293
47.2647
47.1951
47.0398
46.8556
46.6901
46.5718
46.4979
46.4595
46.4399
46.4311
46.4208
46.4073
46.3851
46.3562
46.3164
46.2685
46.2095
46.1436
46.0688
45.9909
45.9122
45.8397
45.7727
45.7159
45.667
45.6275
45.5911
45.5559
45.5134
45.4628
45.4009
45.3332
45.2607
45.1892
45.1143
45.0377
44.9517
44.8581
44.7515
44.6398
44.5241
44.4159
44.3199
44.2464
44.194
44.1668
44.1578
44.1645
44.1757
44.1888
44.1898
44.1789
44.1435
44.0895
44.0062
43.9039
43.7766
43.635
43.4735
43.3
43.1109
42.9161
42.719
42.533
42.3677
42.2364
42.145
42.1025
42.1005
42.1396
42.2042
42.2931
42.3885
42.4895
42.5805
42.6614
42.7188
42.7556
42.7631
42.75
42.7106
42.6585
42.5904
42.5194
42.4465
42.3796
42.3258
42.2864
42.2668
42.2691
42.2953
42.3455
42.4137
42.502
42.6035
42.7211
42.8449
42.9788
43.1128
43.2497
43.3769
43.4976
43.594
43.6846
43.7537
43.818
43.8654
43.9129
43.9458
43.9751
43.9889
43.996
43.987
43.9723
43.9526
43.9354
43.9193
43.9109
43.9015
43.9062
43.9084
43.9318
43.952
43.9971
44.0337
44.098
44.1545
44.2393
44.3259
44.4422
44.5641
44.7103
44.8571
45.0188
45.1723
45.3357
45.4852
45.6366
45.7717
45.911
46.0392
46.1705
46.292
46.421
46.535
46.6632
46.7828
46.9167
47.0446
47.1817
47.3144
47.4624
47.597
47.7506
47.8932
48.0659
48.2172
48.4046
48.5722
48.772
48.9355
49.1367
49.2888
49.4743
49.6073
49.7757
49.8778
50.0255
50.084
50.2198
50.2453
50.3865
50.4031
50.5714
50.5941
50.7958
50.8359
51.0676
51.1454
51.3998
51.5215
51.8057
51.9855
52.3071
52.5256
52.8838
53.1012
53.466
53.6367
53.9253
53.9361
53.999
53.5652
53.0568
51.4197
49.6503
43.859
37.928
18.9693
47.2693
47.2789
47.2999
47.1972
46.9965
46.7754
46.6055
46.505
46.4692
46.4675
46.4799
46.4863
46.4835
46.4654
46.4368
46.3949
46.3454
46.286
46.2222
46.1519
46.0814
46.0105
45.946
45.8863
45.8357
45.7906
45.7536
45.7184
45.6856
45.6471
45.604
45.5506
45.4922
45.4265
45.3594
45.2864
45.211
45.1272
45.0386
44.9407
44.8393
44.7354
44.6379
44.5498
44.4795
44.4265
44.394
44.3766
44.3737
44.374
44.3762
44.3681
44.3504
44.3119
44.2566
44.1764
44.0772
43.9554
43.818
43.6636
43.4979
43.3214
43.1409
42.9606
42.7907
42.6385
42.5158
42.4259
42.3769
42.3645
42.3891
42.4399
42.5139
42.5974
42.6859
42.7667
42.836
42.8846
42.9114
42.9133
42.8944
42.8554
42.8021
42.739
42.6698
42.6016
42.537
42.4837
42.4412
42.4153
42.4086
42.4243
42.4616
42.5197
42.5982
42.6936
42.8024
42.9196
43.0451
43.1716
43.2994
43.4209
43.533
43.6266
43.713
43.7829
43.8441
43.8908
43.9318
43.9609
43.9809
43.9887
43.9833
43.9653
43.9374
43.9078
43.8784
43.8495
43.8282
43.8042
43.7985
43.7881
43.8044
43.8179
43.859
43.8972
43.9573
44.0163
44.0948
44.179
44.2849
44.3973
44.5321
44.6678
44.8175
44.9577
45.1055
45.2404
45.3756
45.4944
45.6174
45.7293
45.8445
45.9503
46.0634
46.1603
46.2749
46.3756
46.4963
46.6012
46.7216
46.8335
46.9703
47.0875
47.2401
47.3728
47.5473
47.6966
47.8907
48.0612
48.2628
48.4242
48.6262
48.7688
48.9538
49.0728
49.2362
49.3132
49.4552
49.4875
49.6121
49.6107
49.7459
49.732
49.8972
49.8948
50.0751
50.1005
50.2944
50.3586
50.5656
50.664
50.9036
51.0324
51.3166
51.4513
51.7608
51.8644
52.1431
52.1444
52.3139
52.0348
51.9402
50.9625
50.3368
47.547
45.6152
38.4546
31.3244
18.4219
47.1549
47.1776
47.331
47.2691
47.0465
46.7827
46.5811
46.4744
46.4551
46.4822
46.5265
46.5598
46.5749
46.5649
46.537
46.4914
46.4372
46.3741
46.3095
46.2416
46.1765
46.1126
46.0559
46.0035
45.9598
45.9198
45.8867
45.8541
45.8239
45.789
45.7512
45.7047
45.6531
45.5934
45.5303
45.4604
45.3879
45.3084
45.2257
45.1372
45.0473
44.9556
44.8698
44.7903
44.7244
44.6712
44.6344
44.6085
44.5947
44.5836
44.5745
44.5575
44.5325
44.4909
44.4341
44.3564
44.2609
44.1459
44.0159
43.8717
43.7178
43.5559
43.3919
43.2295
43.077
42.9395
42.8267
42.7409
42.6886
42.6678
42.6802
42.7175
42.7768
42.8472
42.9229
42.9921
43.0503
43.0902
43.1089
43.1067
43.0844
43.0455
42.9919
42.9313
42.8648
42.7995
42.7367
42.6807
42.6318
42.5958
42.5773
42.5802
42.6053
42.653
42.7234
42.8115
42.9132
43.0231
43.1421
43.2621
43.3831
43.4992
43.6057
43.6969
43.7817
43.8535
43.9148
43.9634
44.0026
44.031
44.0468
44.0498
44.0354
44.0088
43.9729
43.9335
43.8976
43.858
43.8289
43.7945
43.7804
43.7603
43.7714
43.7802
43.82
43.8579
43.9175
43.9758
44.0548
44.1379
44.2409
44.348
44.4717
44.5971
44.7332
44.8607
44.9931
45.1125
45.2307
45.3328
45.4404
45.5363
45.6394
45.7341
45.836
45.9252
46.0299
46.1157
46.2224
46.3035
46.4073
46.4934
46.6175
46.7135
46.8628
46.9897
47.1659
47.3165
47.5202
47.6875
47.8946
48.0493
48.2592
48.38
48.5752
48.6662
48.8348
48.8783
49.02
49.022
49.1408
49.1132
49.2519
49.2222
49.3718
49.363
49.504
49.5241
49.6674
49.7133
49.8744
49.9391
50.1375
50.2027
50.4395
50.4827
50.7339
50.6902
50.9307
50.6696
50.8261
50.1064
50.0398
48.3331
47.707
44.0442
41.5598
34.8248
27.2468
18.6202
48.0124
47.9007
47.5732
47.2067
46.8648
46.5885
46.4289
46.3787
46.4108
46.4835
46.5687
46.6356
46.6733
46.6749
46.6493
46.6004
46.5401
46.4716
46.4036
46.3359
46.2743
46.2167
46.1675
46.1232
46.0869
46.0536
46.0256
45.9974
45.9706
45.9396
45.9061
45.8652
45.8196
45.7662
45.7088
45.6448
45.5776
45.5049
45.4299
45.3508
45.2719
45.1916
45.1158
45.044
44.9815
44.9275
44.8856
44.8517
44.827
44.8056
44.7859
44.761
44.7293
44.685
44.6274
44.5535
44.464
44.3585
44.2396
44.1086
43.9695
43.8242
43.678
43.5337
43.3986
43.2761
43.1741
43.0944
43.0421
43.016
43.0182
43.0435
43.0886
43.145
43.2062
43.2627
43.3094
43.341
43.3537
43.3484
43.3247
43.2858
43.2337
43.1742
43.1094
43.0434
42.978
42.9142
42.8544
42.8042
42.7719
42.7605
42.7746
42.8123
42.8762
42.9583
43.0545
43.1603
43.2747
43.391
43.5092
43.6221
43.7263
43.8173
43.9024
43.9764
44.0386
44.091
44.1293
44.1578
44.1707
44.1686
44.1481
44.1138
44.0738
44.0286
43.9903
43.9459
43.9113
43.8722
43.8515
43.8302
43.838
43.8484
43.8853
43.9237
43.9821
44.0408
44.1244
44.2062
44.3125
44.4146
44.5327
44.6467
44.7718
44.8853
45.0063
45.1074
45.2144
45.2992
45.3959
45.4755
45.5723
45.6575
45.7568
45.8419
45.9397
46.012
46.108
46.1638
46.2555
46.313
46.4238
46.4995
46.6438
46.7604
46.9438
47.0861
47.3027
47.4575
47.6763
47.8205
48.0405
48.1386
48.3462
48.403
48.5768
48.5874
48.7275
48.6976
48.8108
48.7699
48.9055
48.884
49.0122
49.0017
49.115
49.1119
49.2224
49.2265
49.3627
49.368
49.5451
49.5185
49.7356
49.63
49.8767
49.5964
49.8542
49.248
49.417
48.2452
48.11
45.937
44.9188
41.2458
37.9954
32.6455
25.5156
19.1404
48.6858
48.5129
47.8325
47.173
46.6668
46.3537
46.2397
46.2659
46.3716
46.5061
46.6376
46.7365
46.7922
46.8017
46.7757
46.7222
46.6546
46.5796
46.5067
46.4378
46.3778
46.3252
46.2823
46.2457
46.2165
46.1904
46.168
46.1451
46.1223
46.0958
46.0663
46.0306
45.9905
45.9437
45.8927
45.836
45.776
45.7116
45.6452
45.5759
45.5066
45.4365
45.3688
45.3038
45.2446
45.1908
45.1451
45.1053
45.0716
45.0408
45.0112
44.9784
44.9402
44.8931
44.8354
44.7656
44.683
44.5878
44.481
44.3643
44.2407
44.1127
43.9845
43.8589
43.7413
43.6344
43.5441
43.4721
43.4223
43.3943
43.3901
43.4072
43.4409
43.4847
43.5318
43.576
43.6117
43.6352
43.6428
43.635
43.6103
43.5714
43.5198
43.4591
43.3921
43.3212
43.2486
43.1731
43.0988
43.0308
42.9841
42.9597
42.9636
42.994
43.0536
43.1313
43.2232
43.3274
43.4402
43.557
43.6762
43.7919
43.8982
43.9929
44.0805
44.1565
44.2204
44.2749
44.3128
44.339
44.3483
44.3395
44.3138
44.2726
44.2316
44.1857
44.1476
44.1039
44.0666
44.0283
44.0067
43.9925
44.0018
44.0196
44.055
44.0965
44.1525
44.2174
44.3034
44.3928
44.5029
44.6034
44.7197
44.821
44.9371
45.0356
45.147
45.2327
45.3319
45.4036
45.491
45.5597
45.6544
45.7318
45.8358
45.9185
46.0127
46.0761
46.1606
46.1933
46.2686
46.3029
46.3963
46.4506
46.5929
46.6913
46.8809
47.0109
47.2374
47.3768
47.614
47.7397
47.9791
48.0482
48.27
48.2951
48.4747
48.4454
48.5902
48.5223
48.6417
48.5921
48.7331
48.7103
48.845
48.8088
48.924
48.8724
48.9754
48.9052
49.0415
48.9579
49.124
48.984
49.1793
48.9227
49.1303
48.6667
48.8244
48.0051
47.9717
46.5963
46.1166
43.9312
42.421
39.2514
35.7305
31.6909
25.551
20.2657
49.3276
49.073
48.031
47.0618
46.3838
46.046
46.005
46.1383
46.3416
46.5497
46.7281
46.8544
46.9215
46.9323
46.9004
46.8386
46.7615
46.6793
46.6012
46.5311
46.4722
46.424
46.3865
46.3571
46.3346
46.3157
46.2992
46.2821
46.2637
46.2416
46.2158
46.1848
46.1491
46.1081
46.063
46.0135
45.9607
45.9046
45.8466
45.7865
45.7257
45.6646
45.6042
45.5454
45.4896
45.4371
45.3892
45.3455
45.3054
45.2677
45.2304
45.1915
45.1484
45.0995
45.0428
44.9774
44.9019
44.8167
44.7221
44.6196
44.5116
44.4005
44.2893
44.1812
44.0795
43.9872
43.9078
43.8441
43.7989
43.7735
43.768
43.781
43.8077
43.8416
43.8769
43.9098
43.9358
43.9531
43.9571
43.9467
43.9208
43.8811
43.8275
43.7621
43.6892
43.6109
43.5284
43.4392
43.3488
43.2632
43.2011
43.166
43.1632
43.1911
43.2495
43.3261
43.418
43.524
43.6381
43.7605
43.8848
44.007
44.1196
44.2227
44.3119
44.389
44.4547
44.5084
44.5442
44.5653
44.5712
44.5564
44.5268
44.4812
44.439
44.3945
44.3579
44.3192
44.2831
44.2522
44.2383
44.2386
44.2573
44.2874
44.3277
44.3745
44.4312
44.5014
44.5901
44.6901
44.8017
44.9092
45.0202
45.1177
45.2237
45.3143
45.4161
45.4955
45.5866
45.6527
45.7339
45.8011
45.8925
45.9684
46.0705
46.1554
46.2477
46.3068
46.378
46.394
46.4457
46.4664
46.537
46.569
46.7075
46.7897
46.9704
47.1008
47.3305
47.4553
47.7174
47.8279
48.0778
48.1311
48.3525
48.3641
48.5383
48.4897
48.6205
48.5321
48.6479
48.6135
48.7508
48.7359
48.8642
48.823
48.923
48.8409
48.9085
48.7933
48.8776
48.7388
48.8225
48.612
48.707
48.3626
48.4463
47.8733
47.8434
46.9324
46.6696
45.2493
44.5034
42.4706
40.7584
38.2118
34.8524
31.7126
26.6293
21.9408
50.4085
49.9749
48.2889
46.8758
46.0045
45.6602
45.7197
45.9902
46.3141
46.6048
46.8284
46.9764
47.0488
47.056
47.0138
46.9411
46.8538
46.7652
46.6835
46.6136
46.5568
46.5134
46.4813
46.4586
46.4422
46.4299
46.4187
46.4069
46.3925
46.3746
46.3521
46.3251
46.2932
46.2571
46.2167
46.1731
46.1262
46.077
46.0255
45.9726
45.9183
45.8639
45.8091
45.7554
45.7027
45.6523
45.6038
45.5583
45.5145
45.4726
45.4306
45.3884
45.3432
45.2948
45.2406
45.1806
45.1127
45.038
44.9554
44.867
44.7733
44.6774
44.581
44.4879
44.3996
44.3203
44.2515
44.1969
44.1577
44.1366
44.1316
44.1429
44.1643
44.191
44.2171
44.2415
44.2605
44.274
44.2761
44.2643
44.2365
44.1941
44.1358
44.0643
43.9845
43.8974
43.8054
43.7036
43.5982
43.4987
43.4242
43.3827
43.3772
43.407
43.4653
43.5438
43.6384
43.7485
43.8688
44.0001
44.1346
44.2685
44.3901
44.5015
44.5919
44.6724
44.7381
44.7872
44.8179
44.8321
44.8335
44.8158
44.7827
44.7356
44.6914
44.6518
44.6194
44.5891
44.5608
44.5449
44.547
44.5678
44.6021
44.6492
44.6989
44.7541
44.8166
44.894
44.9886
45.0951
45.2094
45.3205
45.4267
45.5279
45.6273
45.7172
45.8125
45.8924
45.9778
46.0448
46.1216
46.1907
46.2795
46.3577
46.4623
46.5458
46.6406
46.6951
46.7628
46.7585
46.7888
46.8033
46.8527
46.8721
47.0034
47.0662
47.2392
47.3588
47.5948
47.7093
47.9819
48.0969
48.3504
48.3999
48.6165
48.6367
48.7962
48.738
48.8427
48.7457
48.8443
48.834
48.9709
48.9713
49.0909
49.0504
49.1406
49.0225
49.0511
48.8981
48.917
48.7146
48.7078
48.4223
48.4247
47.9841
47.9842
47.2888
47.1462
46.1579
45.7688
44.3871
43.5382
41.7552
40.0214
38.0046
34.9656
32.3049
28.0998
23.8615
50.8685
50.3946
48.4763
46.8384
45.8346
45.4575
45.5592
45.9111
46.3153
46.6691
46.9322
47.0999
47.1756
47.1759
47.121
47.0361
46.9391
46.8451
46.7611
46.6923
46.6385
46.5999
46.5732
46.5566
46.5459
46.5391
46.5325
46.525
46.5139
46.4993
46.4796
46.4559
46.427
46.3947
46.358
46.319
46.2765
46.2323
46.1855
46.1378
46.0881
46.0384
45.9877
45.9376
45.8874
45.8389
45.7906
45.7444
45.6986
45.6547
45.6107
45.5674
45.522
45.4755
45.4247
45.3707
45.3106
45.2456
45.174
45.0983
45.0179
44.936
44.8531
44.7735
44.6979
44.6312
44.5734
44.5284
44.4958
44.4792
44.476
44.4861
44.5028
44.5237
44.5428
44.5608
44.5755
44.5873
44.5882
44.5763
44.5481
44.504
44.4416
44.3638
44.275
44.1787
44.0765
43.9622
43.8479
43.7387
43.6581
43.615
43.6125
43.6459
43.7067
43.7873
43.887
44.004
44.1356
44.278
44.4269
44.5772
44.7129
44.8322
44.927
45.0095
45.0715
45.1124
45.1342
45.1409
45.1385
45.1175
45.0832
45.0381
44.9962
44.9639
44.9398
44.9206
44.9079
44.9116
44.9361
44.9814
45.0364
45.1043
45.1676
45.2355
45.3078
45.3927
45.4942
45.6044
45.7223
45.8343
45.9394
46.046
46.1424
46.2338
46.3274
46.4049
46.4896
46.5572
46.6329
46.7088
46.8002
46.8834
46.9964
47.0777
47.188
47.2328
47.3171
47.2752
47.3043
47.3022
47.3336
47.3498
47.4761
47.5127
47.6927
47.7938
48.0399
48.1469
48.4329
48.5408
48.8078
48.8296
49.0706
49.0876
49.2616
49.1555
49.2461
49.1477
49.2519
49.2596
49.3928
49.4124
49.5283
49.4912
49.5798
49.4008
49.4131
49.2124
49.1876
48.903
48.8471
48.4612
48.3858
47.9009
47.823
47.1118
46.9107
45.8591
45.4166
44.1024
43.2164
41.7012
40.0045
38.3406
35.6475
33.2136
29.6593
25.8421
51.1027
50.663
48.6775
46.9372
45.8464
45.4123
45.5046
45.8888
46.3394
46.7349
47.0266
47.2089
47.2868
47.2808
47.2153
47.1202
47.0155
46.9177
46.833
46.7661
46.7159
46.6822
46.6608
46.6497
46.6439
46.6415
46.6384
46.634
46.6253
46.6133
46.5958
46.5746
46.5483
46.519
46.4855
46.4499
46.4109
46.3705
46.3274
46.2835
46.2375
46.1913
46.1436
46.0963
46.048
46.0008
45.9534
45.9076
45.8616
45.8176
45.7732
45.7303
45.6865
45.6429
45.5968
45.5491
45.4967
45.4409
45.3795
45.3153
45.2468
45.1774
45.1068
45.04
44.9766
44.9215
44.8745
44.8391
44.8138
44.8029
44.8027
44.812
44.8249
44.8418
44.8573
44.8714
44.8832
44.8945
44.8965
44.8868
44.8601
44.8152
44.7503
44.668
44.5711
44.4631
44.3501
44.2246
44.1047
43.9903
43.9102
43.869
43.8749
43.9144
43.9814
44.0654
44.1741
44.3
44.4429
44.5971
44.7641
44.9328
45.0852
45.2121
45.3114
45.3914
45.4468
45.4782
45.4916
45.4923
45.4868
45.4636
45.4312
45.3909
45.356
45.3345
45.3234
45.3209
45.3293
45.357
45.4087
45.4801
45.562
45.6519
45.734
45.8182
45.9026
45.9938
46.0995
46.2097
46.3301
46.4398
46.5494
46.6577
46.7571
46.8495
46.9464
47.0194
47.1101
47.178
47.2588
47.3415
47.443
47.5327
47.6652
47.7412
47.8825
47.9125
48.0246
47.924
47.9839
47.9414
47.9876
47.989
48.1147
48.1212
48.3253
48.4073
48.6771
48.7544
49.0854
49.1563
49.4784
49.4112
49.7304
49.7161
49.9531
49.7388
49.8534
49.716
49.8685
49.8845
50.0464
50.0574
50.1864
50.1308
50.2342
49.9631
49.9999
49.7474
49.6996
49.3119
49.2118
48.7426
48.6603
48.1676
48.0778
47.2667
47.0707
45.9417
45.4933
44.2646
43.3495
42.065
40.4564
38.9745
36.5954
34.2848
31.1832
27.7604
51.2462
50.8252
48.818
47.031
45.8989
45.4329
45.5182
45.9168
46.3905
46.8068
47.1121
47.3004
47.3767
47.3638
47.2905
47.1892
47.0813
46.9831
46.9004
46.837
46.7912
46.7625
46.746
46.7394
46.7372
46.7377
46.7367
46.734
46.7269
46.7163
46.7006
46.6813
46.6572
46.6304
46.5997
46.5669
46.531
46.4936
46.4536
46.4126
46.3694
46.3258
46.2807
46.2357
46.1895
46.144
46.098
46.0532
46.0084
45.9655
45.9227
45.8815
45.8402
45.8
45.7588
45.7175
45.6731
45.6264
45.5755
45.5226
45.4661
45.409
45.3513
45.297
45.2451
45.2004
45.1641
45.1385
45.121
45.1154
45.118
45.1268
45.1379
45.1527
45.166
45.179
45.1913
45.2038
45.2088
45.2035
45.1801
45.1362
45.0701
44.9835
44.8806
44.7623
44.6402
44.5069
44.386
44.2708
44.2003
44.1628
44.1803
44.2268
44.3025
44.3905
44.5124
44.6472
44.8019
44.9644
45.1505
45.3347
45.5024
45.6338
45.7345
45.8069
45.8542
45.876
45.8855
45.8843
45.8787
45.8567
45.8328
45.7993
45.7793
45.77
45.7805
45.7953
45.8332
45.8868
45.9714
46.0678
46.1803
46.2885
46.3975
46.4971
46.5992
46.6957
46.8051
46.9088
47.0311
47.132
47.2491
47.3522
47.4615
47.5538
47.6575
47.7317
47.8314
47.9027
47.9967
48.0862
48.207
48.2993
48.4577
48.5266
48.7083
48.7177
48.856
48.6858
48.8122
48.7176
48.8133
48.7717
48.9287
48.9111
49.1484
49.195
49.5036
49.5354
49.9159
49.9462
50.3134
50.1831
50.6158
50.531
50.8342
50.4983
50.6867
50.4738
50.7337
50.6907
50.921
50.9015
51.0588
50.9956
51.1101
50.7219
50.7707
50.4893
50.3662
49.9479
49.8124
49.3701
49.3121
48.7047
48.5817
47.662
47.5488
46.3514
45.8888
44.7589
43.818
42.6895
41.2245
39.7889
37.6438
35.4343
32.6485
29.5713
51.3003
50.8764
48.8666
47.0845
45.963
45.5101
45.6093
46.0165
46.4927
46.9048
47.2028
47.3815
47.4475
47.4255
47.3467
47.2437
47.1377
47.0433
46.9657
46.9077
46.8675
46.8435
46.8312
46.8274
46.8273
46.8289
46.8289
46.8267
46.8205
46.8107
46.7964
46.7787
46.7568
46.7322
46.7041
46.6738
46.6407
46.6059
46.5688
46.5305
46.49
46.4487
46.4058
46.3626
46.3184
46.2747
46.2307
46.188
46.1458
46.1052
46.065
46.0265
45.9888
45.9528
45.9168
45.8815
45.845
45.8076
45.7679
45.7265
45.6823
45.6377
45.5936
45.5522
45.513
45.48
45.4551
45.4388
45.4284
45.4267
45.4318
45.4412
45.4516
45.4633
45.4738
45.4859
45.5
45.5162
45.5272
45.5285
45.5112
45.4722
45.4079
45.3194
45.211
45.0855
44.9568
44.8215
44.7036
44.5963
44.5415
44.5098
44.5409
44.5921
44.6763
44.7652
44.9009
45.0429
45.2093
45.3779
45.5836
45.7788
45.9604
46.0926
46.1915
46.247
46.289
46.2985
46.3109
46.3103
46.3116
46.295
46.2863
46.2651
46.2699
46.2766
46.3169
46.3524
46.4267
46.5047
46.6251
46.746
46.8933
47.0197
47.1542
47.2668
47.3903
47.4916
47.6089
47.7096
47.8267
47.921
48.0427
48.1403
48.2573
48.3551
48.4625
48.5471
48.6555
48.7331
48.838
48.9362
49.0746
49.1818
49.3524
49.427
49.6301
49.6466
49.7488
49.5561
49.777
49.6005
49.7719
49.6732
49.8811
49.8424
50.121
50.1578
50.4826
50.4825
50.9161
50.9091
51.2771
51.1614
51.6473
51.5382
51.8337
51.4371
51.6565
51.397
51.7967
51.7157
52.0031
51.9337
52.1271
52.0735
52.0952
51.6875
51.73
51.3431
51.2252
50.8304
50.6612
50.1833
50.0426
49.4122
49.2925
48.3917
48.1306
47.0266
46.5334
45.5079
44.5869
43.4946
42.1651
40.7058
38.7414
36.6331
34.0795
31.287
51.2488
50.8151
48.8367
47.1167
46.0588
45.6656
45.7993
46.205
46.6567
47.0358
47.3023
47.4531
47.4984
47.4649
47.3838
47.2843
47.1856
47.0995
47.0305
46.9801
46.9465
46.9272
46.9179
46.9154
46.9158
46.917
46.9167
46.9142
46.9081
46.8989
46.8858
46.8695
46.8497
46.8272
46.8017
46.7741
46.7439
46.712
46.6779
46.6422
46.6045
46.5654
46.5248
46.4837
46.4421
46.4009
46.3602
46.3207
46.2818
46.2443
46.2079
46.1733
46.1402
46.1094
46.0799
46.0515
46.0231
45.9948
45.9662
45.9371
45.9059
45.8741
45.8438
45.816
45.7907
45.7713
45.7585
45.7514
45.7486
45.7519
45.7597
45.7688
45.7776
45.7863
45.795
45.8076
45.8237
45.8431
45.8609
45.8695
45.8597
45.828
45.769
45.6816
45.5709
45.4444
45.3145
45.1824
45.0684
44.9749
44.9367
44.917
44.9599
45.0131
45.0998
45.1916
45.3428
45.4889
45.6642
45.8387
46.0636
46.2645
46.4583
46.5855
46.6802
46.7179
46.753
46.754
46.7777
46.7776
46.7916
46.7834
46.796
46.7946
46.8311
46.8602
46.9362
47.0005
47.1152
47.2209
47.3783
47.5199
47.6959
47.8374
47.9983
48.122
48.2678
48.3763
48.5044
48.6006
48.7179
48.8093
48.9335
49.0348
49.1611
49.2662
49.3791
49.4748
49.5841
49.6702
49.789
49.896
50.0434
50.1734
50.348
50.4555
50.6405
50.6979
50.7294
50.5715
50.8131
50.5868
50.8193
50.7186
50.9882
50.9318
51.2244
51.2814
51.5719
51.582
52.0114
52.049
52.4321
52.3755
52.8002
52.7417
52.9259
52.5269
52.8032
52.4745
53.0061
52.8839
53.219
53.1462
53.3363
53.2408
53.2463
52.8341
52.8304
52.3533
52.2803
51.8305
51.5915
51.2083
50.9662
50.5231
50.0858
49.3159
48.8845
47.9165
47.3919
46.4358
45.573
44.4413
43.2202
41.6891
39.8808
37.8595
35.4898
32.9276
51.0434
50.605
48.7301
47.1539
46.2216
45.9271
46.0968
46.477
46.8722
47.1891
47.4005
47.5073
47.5248
47.48
47.4007
47.3106
47.2246
47.1514
47.0941
47.0532
47.0263
47.0108
47.003
47.0002
46.9994
46.9989
46.9971
46.9935
46.9871
46.9779
46.9657
46.9507
46.9328
46.9124
46.8897
46.865
46.8381
46.8094
46.7787
46.7462
46.7115
46.6751
46.6371
46.5987
46.5609
46.524
46.4876
46.4519
46.4171
46.384
46.3523
46.3226
46.2954
46.271
46.2488
46.2287
46.2103
46.1938
46.178
46.161
46.1424
46.1245
46.1089
46.0955
46.0855
46.0801
46.0791
46.081
46.0857
46.0946
46.1059
46.1167
46.1252
46.1308
46.1364
46.1485
46.1672
46.1914
46.2156
46.2323
46.2325
46.2101
46.1584
46.0764
45.9677
45.8465
45.7181
45.5934
45.4881
45.4144
45.3873
45.3764
45.4254
45.4808
45.5679
45.6762
45.843
45.9966
46.1783
46.363
46.5957
46.7933
46.9899
47.113
47.2053
47.2313
47.2641
47.2643
47.2984
47.3049
47.3355
47.3387
47.3743
47.3971
47.4658
47.5247
47.639
47.7374
47.8917
48.0299
48.2185
48.3813
48.5785
48.7341
48.9147
49.0492
49.213
49.3346
49.4735
49.5722
49.6937
49.7904
49.9225
50.0303
50.1701
50.2863
50.4062
50.5123
50.6116
50.707
50.8265
50.9501
51.1031
51.2716
51.4336
51.5835
51.743
51.8291
51.8162
51.7834
51.927
51.705
51.977
51.9036
52.1811
52.1664
52.4359
52.5446
52.7451
52.8174
53.18
53.308
53.6915
53.7578
54.0685
54.0229
54.1493
53.7982
54.0639
53.8731
54.305
54.16
54.5111
54.4774
54.6401
54.5248
54.4213
54.0199
54.029
53.5044
53.3625
52.9565
52.6631
52.4481
51.9829
51.7468
51.0238
50.5323
49.792
49.0026
48.3967
47.5376
46.7193
45.5174
44.3598
42.7315
41.0508
39.0838
36.872
34.489
50.5784
50.1646
48.5551
47.2505
46.5177
46.3297
46.5038
46.8176
47.1205
47.3482
47.4861
47.5406
47.5299
47.4773
47.4045
47.3283
47.2587
47.2009
47.1564
47.1245
47.1031
47.0896
47.0816
47.0768
47.0734
47.0704
47.0666
47.0614
47.0544
47.0454
47.0339
47.0202
47.0041
46.9861
46.966
46.9444
46.9209
46.8958
46.869
46.84
46.8087
46.776
46.7423
46.7081
46.6744
46.6423
46.612
46.5826
46.5536
46.5254
46.4989
46.4756
46.4561
46.4398
46.426
46.4157
46.4086
46.4042
46.4019
46.3998
46.3966
46.3931
46.3913
46.3922
46.3961
46.4027
46.4121
46.4231
46.4358
46.4504
46.4648
46.4767
46.4847
46.4884
46.4912
46.5011
46.5215
46.5506
46.5822
46.6078
46.6189
46.608
46.5661
46.4927
46.3927
46.283
46.1603
46.0521
45.958
45.9022
45.8831
45.8858
45.9369
45.9905
46.0808
46.2164
46.3952
46.5586
46.7421
46.944
47.1697
47.3633
47.5525
47.6742
47.7628
47.7948
47.8242
47.8346
47.8777
47.9014
47.9494
47.9742
48.0298
48.0803
48.1775
48.2769
48.4213
48.5614
48.7415
48.9164
49.119
49.3045
49.5125
49.6872
49.8805
50.032
50.2065
50.343
50.4972
50.6031
50.739
50.8501
50.9897
51.1154
51.2615
51.3858
51.5113
51.6187
51.7093
51.8162
51.9363
52.0798
52.2492
52.4592
52.6094
52.8028
52.9176
53.0138
53.0284
53.0773
53.0974
53.0486
53.2357
53.2326
53.5007
53.503
53.7222
53.8642
54.0287
54.1834
54.4093
54.7061
55.0456
55.163
55.3466
55.3173
55.3923
55.21
55.4509
55.4241
55.6494
55.6124
55.8295
55.8528
55.901
55.773
55.6376
55.3681
55.263
54.7806
54.5728
54.2542
53.8617
53.7504
53.1661
53.0056
52.0337
51.8289
50.8506
50.2683
49.5206
48.8165
47.917
46.6978
45.5632
43.851
42.2458
40.3033
38.2364
35.9843
49.8187
49.4981
48.3652
47.4595
46.9674
46.8566
46.9787
47.1777
47.3579
47.4822
47.5447
47.5524
47.5205
47.4661
47.4035
47.3427
47.2894
47.2457
47.2118
47.1865
47.168
47.1547
47.1449
47.1375
47.1313
47.1257
47.1201
47.1139
47.1066
47.0977
47.087
47.0743
47.0599
47.0439
47.0263
47.0077
46.9883
46.9675
46.9446
46.9197
46.8929
46.8645
46.8355
46.8072
46.7797
46.7534
46.7293
46.7074
46.6865
46.6655
46.6459
46.6309
46.6211
46.6151
46.6118
46.6122
46.6168
46.6248
46.6342
46.6433
46.653
46.6645
46.6772
46.6916
46.7078
46.7247
46.742
46.76
46.7791
46.7989
46.8162
46.8294
46.8372
46.8397
46.8416
46.8513
46.8738
46.9061
46.9413
46.9724
46.9917
46.9919
46.9635
46.9041
46.818
46.7265
46.6138
46.5331
46.4575
46.4209
46.4074
46.4295
46.4757
46.5383
46.6409
46.7946
46.971
47.1467
47.3378
47.557
47.7683
47.9618
48.1334
48.2604
48.3454
48.3961
48.4258
48.4601
48.5077
48.5612
48.6218
48.6818
48.7519
48.8397
48.955
49.0985
49.264
49.4435
49.6356
49.8397
50.0407
50.251
50.4551
50.6488
50.843
51.0223
51.2027
51.3735
51.532
51.6684
51.8062
51.9448
52.0856
52.2375
52.3793
52.5253
52.646
52.7649
52.8554
52.9813
53.1001
53.2716
53.4474
53.6762
53.8307
54.078
54.1271
54.2746
54.2541
54.3586
54.3666
54.4632
54.5424
54.6572
54.7926
54.8553
55.0421
55.2115
55.3094
55.6006
55.7477
56.1857
56.3073
56.4977
56.5668
56.6362
56.6936
56.7495
56.8458
56.9012
56.9624
57.0919
57.1299
57.2087
57.1511
57.0775
56.8095
56.7704
56.4176
56.183
55.8049
55.601
55.1539
55.1234
54.3072
54.1313
53.1369
53.0622
51.926
51.6421
50.6691
50.0977
49.0219
47.9209
46.7316
44.9982
43.4176
41.5101
39.5571
37.3871
48.9853
48.8191
48.2678
47.7983
47.5187
47.4163
47.4275
47.4841
47.5397
47.5721
47.5742
47.5494
47.5064
47.4549
47.4029
47.3554
47.3145
47.2807
47.2533
47.2313
47.2135
47.1991
47.1873
47.1776
47.1694
47.1621
47.1552
47.1482
47.1406
47.132
47.1218
47.1099
47.0968
47.083
47.0685
47.0527
47.0362
47.0192
47.0012
46.9808
46.9585
46.9358
46.9134
46.891
46.8697
46.8516
46.8364
46.823
46.8103
46.7983
46.7892
46.7848
46.7851
46.7888
46.7964
46.808
46.8231
46.8411
46.861
46.8815
46.9014
46.9215
46.943
46.9661
46.9901
47.0136
47.0367
47.0598
47.0834
47.1053
47.1238
47.1397
47.1518
47.1586
47.1634
47.1746
47.1979
47.2309
47.2687
47.3034
47.3282
47.3372
47.3205
47.2771
47.2119
47.1494
47.0613
47.0109
46.9535
46.9413
46.9402
46.9868
47.0281
47.1112
47.2126