/*--------------------------------*- C++ -*----------------------------------*\
| =========                 |                                                 |
| \\      /  F ield         | OpenFOAM: The Open Source CFD Toolbox           |
|  \\    /   O peration     | Version:  2.4.0                                 |
|   \\  /    A nd           | Web:      www.OpenFOAM.org                      |
|    \\/     M anipulation  |                                                 |
\*---------------------------------------------------------------------------*/
FoamFile
{
    version     2.0;
    format      ascii;
    class       volVectorField;
    location    "1.61";
    object      U_0;
}
// * * * * * * * * * * * * * * * * * * * * * * * * * * * * * * * * * * * * * //

dimensions      [0 1 -1 0 0 0 0];

internalField   nonuniform List<vector> 
8800
(
(8.09258 0.387969 0)
(5.45197 0.242566 0)
(3.90892 0.0430963 0)
(3.1607 -0.0153993 0)
(2.79511 -0.0186265 0)
(2.60804 -0.010937 0)
(2.47237 -0.00517907 0)
(2.39396 -0.00328649 0)
(2.30476 -0.000541864 0)
(2.26671 -0.00118432 0)
(2.20038 -0.000641916 0)
(2.1877 -8.21166e-05 0)
(2.12703 -7.51439e-06 0)
(2.12689 -0.000484065 0)
(2.06145 0.00147341 0)
(2.07366 -0.00203924 0)
(2.00833 0.00143552 0)
(2.01998 -0.00238998 0)
(2.02824 0.00969753 0)
(1.79622 -0.0697229 0)
(10.0799 0.838002 0)
(9.66996 0.867904 0)
(8.85712 0.507265 0)
(8.10263 0.262178 0)
(7.47126 0.137102 0)
(7.03578 0.0826198 0)
(6.66266 0.0552359 0)
(6.44159 0.0382535 0)
(6.17883 0.0322406 0)
(6.07717 0.0228999 0)
(5.87369 0.01849 0)
(5.83959 0.0170364 0)
(5.66637 0.0154616 0)
(5.66656 0.0125554 0)
(5.496 0.0187804 0)
(5.52769 0.0046064 0)
(5.35708 0.0219456 0)
(5.3853 -0.0113761 0)
(5.34357 0.0237601 0)
(5.20684 -0.0407339 0)
(10.0427 0.630223 0)
(10.6899 0.863649 0)
(10.8333 0.601584 0)
(10.7319 0.374488 0)
(10.415 0.253713 0)
(10.1399 0.19844 0)
(9.7756 0.153752 0)
(9.57251 0.120144 0)
(9.23033 0.0981395 0)
(9.12727 0.0737658 0)
(8.83571 0.0595541 0)
(8.79526 0.0507279 0)
(8.55329 0.0443184 0)
(8.54909 0.0359908 0)
(8.31655 0.0452461 0)
(8.36227 0.0194382 0)
(8.11555 0.0492651 0)
(8.17522 -0.00774981 0)
(8.05618 0.0244157 0)
(8.00911 -0.100925 0)
(9.94409 0.454316 0)
(10.6377 0.708184 0)
(11.1012 0.546259 0)
(11.4487 0.353177 0)
(11.4811 0.257129 0)
(11.5496 0.232184 0)
(11.3957 0.199684 0)
(11.414 0.173411 0)
(11.1807 0.153433 0)
(11.2 0.121639 0)
(10.9684 0.10738 0)
(10.9699 0.0898952 0)
(10.7743 0.0837601 0)
(10.7745 0.067791 0)
(10.5642 0.0796055 0)
(10.6158 0.0425647 0)
(10.3741 0.0861321 0)
(10.4158 0.00177826 0)
(10.3067 0.0378798 0)
(10.2767 -0.111245 0)
(9.93546 0.342229 0)
(10.5074 0.569562 0)
(10.9528 0.462177 0)
(11.4016 0.298677 0)
(11.5578 0.201457 0)
(11.7818 0.199733 0)
(11.775 0.175031 0)
(11.9356 0.166951 0)
(11.8792 0.154941 0)
(11.9954 0.125776 0)
(11.9527 0.116581 0)
(12.0002 0.103042 0)
(11.9744 0.0910225 0)
(12.0064 0.0905824 0)
(11.9293 0.0869549 0)
(11.9881 0.0682439 0)
(11.8828 0.0978863 0)
(11.8856 0.0384439 0)
(11.867 0.0305916 0)
(11.8399 -0.0248271 0)
(9.96872 0.249529 0)
(10.3878 0.455866 0)
(10.8326 0.377804 0)
(11.2514 0.250106 0)
(11.4607 0.154225 0)
(11.6772 0.158891 0)
(11.7412 0.14385 0)
(11.8894 0.133055 0)
(11.9326 0.135857 0)
(12.0374 0.0978513 0)
(12.1254 0.103176 0)
(12.1687 0.0876893 0)
(12.2661 0.074839 0)
(12.3121 0.0848846 0)
(12.3599 0.0761339 0)
(12.421 0.0600254 0)
(12.4472 0.0986814 0)
(12.4701 0.0477153 0)
(12.5228 0.0516863 0)
(12.5097 0.00451891 0)
(9.98056 0.178317 0)
(10.3239 0.346171 0)
(10.742 0.290312 0)
(11.1129 0.213628 0)
(11.3812 0.110319 0)
(11.5838 0.124242 0)
(11.6732 0.0992119 0)
(11.7871 0.116067 0)
(11.8514 0.0994307 0)
(11.9687 0.0853597 0)
(12.0315 0.0650914 0)
(12.1019 0.0883111 0)
(12.2256 0.0285894 0)
(12.2726 0.0929356 0)
(12.3568 0.0314467 0)
(12.4152 0.0737452 0)
(12.4809 0.0515169 0)
(12.5176 0.0817069 0)
(12.5712 0.0385849 0)
(12.5235 0.168704 0)
(9.99502 0.109639 0)
(10.2758 0.254792 0)
(10.6509 0.198441 0)
(11.0454 0.172352 0)
(11.3255 0.0546921 0)
(11.4999 0.105213 0)
(11.601 0.0599042 0)
(11.7386 0.0967996 0)
(11.7789 0.0541337 0)
(11.9017 0.0751227 0)
(11.9286 0.0381322 0)
(12.0752 0.0733705 0)
(12.145 -0.00175198 0)
(12.1963 0.0878903 0)
(12.2812 0.00321771 0)
(12.3599 0.0647646 0)
(12.4114 0.0300601 0)
(12.4729 0.0782349 0)
(12.4695 0.037345 0)
(12.5071 0.121101 0)
(9.97946 0.0689399 0)
(10.2585 0.143088 0)
(10.6279 0.124334 0)
(11.0021 0.0965528 0)
(11.2539 0.0407062 0)
(11.4326 0.0611588 0)
(11.6086 0.0282972 0)
(11.6744 0.0519782 0)
(11.723 0.0498709 0)
(11.8602 0.0358539 0)
(11.9136 0.0230753 0)
(12.0203 0.0331216 0)
(12.0643 0.00325325 0)
(12.1638 0.0516496 0)
(12.2723 0.00150186 0)
(12.2985 0.0156655 0)
(12.3524 0.04432 0)
(12.4451 0.0271709 0)
(12.4089 0.0181438 0)
(12.5236 -0.0501358 0)
(9.99197 0.0168264 0)
(10.2497 0.0469606 0)
(10.5929 0.0338594 0)
(10.9521 0.0554189 0)
(11.2408 -0.0040786 0)
(11.4472 0.0290274 0)
(11.5783 -0.0064126 0)
(11.6001 0.0409296 0)
(11.7318 0.00243629 0)
(11.8677 0.0107026 0)
(11.8918 0.00450513 0)
(11.9717 0.0286993 0)
(12.0444 -0.0255183 0)
(12.1431 0.0242765 0)
(12.2909 -0.0163656 0)
(12.2384 0.0188792 0)
(12.3178 0.00329637 0)
(12.4144 0.00814777 0)
(12.4348 -0.0349277 0)
(12.4585 -0.0240101 0)
(9.99603 -0.0214924 0)
(10.2476 -0.0544857 0)
(10.5716 -0.0338366 0)
(10.9878 -0.0265169 0)
(11.232 -0.0308948 0)
(11.4259 -0.0053388 0)
(11.5705 -0.0160234 0)
(11.6279 -0.0125494 0)
(11.7556 -0.0233093 0)
(11.8297 -0.0174204 0)
(11.8784 0.00134181 0)
(11.9945 -0.00645042 0)
(12.0656 -0.032066 0)
(12.1237 -0.0131804 0)
(12.2454 -0.0161385 0)
(12.2424 -0.00603923 0)
(12.356 -0.00926867 0)
(12.4252 -0.0384477 0)
(12.4235 -0.0513259 0)
(12.3587 -0.0267498 0)
(10.0075 -0.0701452 0)
(10.2409 -0.148574 0)
(10.6067 -0.12908 0)
(11.0058 -0.0773001 0)
(11.2354 -0.0545709 0)
(11.4776 -0.0455754 0)
(11.5852 -0.0540987 0)
(11.6632 -0.0413218 0)
(11.7591 -0.0470399 0)
(11.8241 -0.0410905 0)
(11.909 -0.0237466 0)
(12.029 -0.0283074 0)
(12.1022 -0.0429307 0)
(12.1467 -0.0321146 0)
(12.2308 -0.0336198 0)
(12.2683 -0.0352138 0)
(12.3999 -0.0440278 0)
(12.4566 -0.0553905 0)
(12.4184 -0.0651904 0)
(12.3903 -0.0699996 0)
(10.014 -0.118203 0)
(10.2547 -0.24999 0)
(10.6537 -0.203382 0)
(11.0412 -0.144548 0)
(11.3369 -0.0968919 0)
(11.5096 -0.0789172 0)
(11.5866 -0.0686445 0)
(11.713 -0.0806067 0)
(11.8041 -0.0700708 0)
(11.8658 -0.0667626 0)
(11.9639 -0.0469338 0)
(12.0768 -0.056521 0)
(12.1386 -0.0544973 0)
(12.1861 -0.0494043 0)
(12.2826 -0.0442929 0)
(12.3369 -0.0613645 0)
(12.4178 -0.0687146 0)
(12.4561 -0.0783129 0)
(12.4812 -0.093746 0)
(12.461 -0.0951038 0)
(10.0263 -0.177195 0)
(10.2846 -0.350649 0)
(10.7601 -0.294832 0)
(11.1114 -0.204453 0)
(11.406 -0.122532 0)
(11.5346 -0.105273 0)
(11.6813 -0.106518 0)
(11.7803 -0.121255 0)
(11.8752 -0.0890235 0)
(11.9375 -0.0962199 0)
(12.0503 -0.0701072 0)
(12.1255 -0.0783968 0)
(12.1983 -0.0624293 0)
(12.248 -0.0735164 0)
(12.3494 -0.0635304 0)
(12.4079 -0.0867622 0)
(12.4734 -0.081652 0)
(12.5162 -0.108872 0)
(12.561 -0.123281 0)
(12.4941 -0.118575 0)
(10.0663 -0.253883 0)
(10.3136 -0.456484 0)
(10.9012 -0.376772 0)
(11.1705 -0.244178 0)
(11.5314 -0.164526 0)
(11.5987 -0.149962 0)
(11.8171 -0.140657 0)
(11.8283 -0.147853 0)
(11.993 -0.114981 0)
(11.9923 -0.122276 0)
(12.1488 -0.0917876 0)
(12.1498 -0.0996093 0)
(12.2739 -0.078141 0)
(12.2664 -0.0957974 0)
(12.391 -0.0774056 0)
(12.376 -0.108184 0)
(12.457 -0.095267 0)
(12.4385 -0.139818 0)
(12.4733 -0.136899 0)
(12.3541 -0.163065 0)
(10.0649 -0.349305 0)
(10.3872 -0.565564 0)
(11.0516 -0.463078 0)
(11.2903 -0.292748 0)
(11.6704 -0.211985 0)
(11.6603 -0.187235 0)
(11.8994 -0.178808 0)
(11.81 -0.175181 0)
(11.999 -0.143251 0)
(11.8827 -0.138656 0)
(12.0438 -0.112851 0)
(11.9098 -0.11061 0)
(12.0459 -0.0915894 0)
(11.898 -0.104916 0)
(12.0198 -0.0874353 0)
(11.8574 -0.112879 0)
(11.9343 -0.0979981 0)
(11.7669 -0.144973 0)
(11.7719 -0.1378 0)
(11.5313 -0.179395 0)
(10.0154 -0.458874 0)
(10.5544 -0.705215 0)
(11.1749 -0.545743 0)
(11.3633 -0.350885 0)
(11.568 -0.263316 0)
(11.4442 -0.226206 0)
(11.5127 -0.200808 0)
(11.2785 -0.17956 0)
(11.319 -0.145654 0)
(11.055 -0.13072 0)
(11.0962 -0.104999 0)
(10.8322 -0.0965954 0)
(10.8905 -0.0800076 0)
(10.6192 -0.0869148 0)
(10.6923 -0.0711147 0)
(10.4099 -0.0912643 0)
(10.4694 -0.0760455 0)
(10.1755 -0.123371 0)
(10.1706 -0.105444 0)
(9.82413 -0.173507 0)
(10.0676 -0.632942 0)
(10.6517 -0.862716 0)
(10.8711 -0.601294 0)
(10.6855 -0.372875 0)
(10.4632 -0.256964 0)
(10.0764 -0.195565 0)
(9.85216 -0.153394 0)
(9.47506 -0.124882 0)
(9.3354 -0.0937292 0)
(9.00763 -0.0779261 0)
(8.94585 -0.0598607 0)
(8.66574 -0.0536202 0)
(8.66339 -0.0435985 0)
(8.39553 -0.0482875 0)
(8.43041 -0.0415443 0)
(8.15272 -0.0524869 0)
(8.19272 -0.0498795 0)
(7.8886 -0.0746017 0)
(7.87956 -0.0777743 0)
(7.5209 -0.0990953 0)
(10.0859 -0.838881 0)
(9.65378 -0.86759 0)
(8.87272 -0.506688 0)
(8.08053 -0.261328 0)
(7.49573 -0.138634 0)
(7.00159 -0.0820213 0)
(6.70486 -0.0538267 0)
(6.38605 -0.0419321 0)
(6.2383 -0.0293127 0)
(6.00391 -0.0250329 0)
(5.94091 -0.019077 0)
(5.75133 -0.0184789 0)
(5.73702 -0.0147855 0)
(5.55515 -0.0197216 0)
(5.56364 -0.016618 0)
(5.36836 -0.0239585 0)
(5.37766 -0.0229486 0)
(5.14845 -0.0353119 0)
(5.12706 -0.0423566 0)
(4.81944 -0.0242278 0)
(8.09147 -0.388033 0)
(5.44826 -0.242429 0)
(3.91136 -0.0429373 0)
(3.15689 0.0155026 0)
(2.80168 0.0180906 0)
(2.59617 0.0110859 0)
(2.48654 0.0058671 0)
(2.37568 0.00190786 0)
(2.32203 0.00183409 0)
(2.24309 0.000409635 0)
(2.21971 0.000658282 0)
(2.15522 -0.00014273 0)
(2.14735 0.000434706 0)
(2.08186 -0.00133556 0)
(2.07551 -0.00035268 0)
(1.99988 -0.0024812 0)
(1.98727 -0.00122396 0)
(1.89202 -0.00424313 0)
(1.84762 -0.00473087 0)
(1.69108 0.0108116 0)
(2.30787 -0.153015 0)
(2.43657 -0.0535727 0)
(2.55479 0.00912988 0)
(2.65701 0.0429208 0)
(2.76249 0.0526597 0)
(2.87801 0.0517014 0)
(3.00806 0.04305 0)
(3.14749 0.0341866 0)
(3.28957 0.0200955 0)
(3.41463 0.00206554 0)
(3.54338 -0.0139972 0)
(3.63529 -0.0369381 0)
(3.73858 -0.0661314 0)
(3.81397 -0.0962651 0)
(3.90193 -0.134455 0)
(3.97911 -0.168783 0)
(4.06339 -0.211829 0)
(4.14122 -0.253193 0)
(4.22542 -0.298715 0)
(4.29952 -0.35151 0)
(4.36153 -0.407299 0)
(4.41451 -0.46603 0)
(4.43159 -0.503998 0)
(4.46038 -0.545021 0)
(4.41858 -0.561763 0)
(4.37363 -0.578764 0)
(4.25756 -0.595298 0)
(4.14649 -0.576974 0)
(4.01303 -0.561525 0)
(3.91254 -0.491211 0)
(3.82782 -0.397688 0)
(3.76443 -0.244431 0)
(3.76244 -0.0761912 0)
(3.75739 0.117349 0)
(3.87907 0.405248 0)
(3.93645 0.599205 0)
(4.14107 0.858394 0)
(4.39173 1.20918 0)
(4.49791 1.34724 0)
(4.82381 1.51551 0)
(5.2552 1.74384 0)
(5.42867 1.759 0)
(5.75543 1.65741 0)
(6.46941 1.6148 0)
(6.66867 1.55298 0)
(7.0592 1.17188 0)
(7.92044 0.868827 0)
(8.13152 0.661074 0)
(8.74401 0.0557205 0)
(9.55413 -0.377529 0)
(9.84773 -0.810743 0)
(10.5967 -1.4801 0)
(11.1424 -1.99241 0)
(11.6716 -2.69603 0)
(12.158 -3.28203 0)
(12.5429 -3.76774 0)
(12.9745 -4.33106 0)
(13.1571 -4.65569 0)
(13.2371 -4.98738 0)
(13.2619 -5.12462 0)
(12.9949 -5.13045 0)
(12.576 -4.96947 0)
(12.2786 -4.77255 0)
(11.8371 -4.61705 0)
(11.5576 -4.11484 0)
(10.9942 -4.0159 0)
(10.9163 -3.60749 0)
(10.5117 -3.26794 0)
(10.1047 -3.10077 0)
(10.0904 -2.69326 0)
(9.84636 -2.54654 0)
(9.91797 -2.14297 0)
(9.80099 -1.80512 0)
(9.5631 -1.61525 0)
(9.60718 -1.1902 0)
(9.36558 -0.771993 0)
(9.21885 -0.494475 0)
(9.07889 -0.0590053 0)
(8.69749 0.186385 0)
(8.47874 0.37424 0)
(8.63673 0.951696 0)
(8.86702 1.54912 0)
(8.93781 1.97406 0)
(9.00928 2.27909 0)
(8.77406 2.53163 0)
(8.31311 2.65066 0)
(7.82556 2.61126 0)
(7.57857 2.52944 0)
(7.59929 2.41463 0)
(7.71917 2.33453 0)
(7.91876 2.13861 0)
(8.33197 1.91435 0)
(8.86267 1.87181 0)
(9.2721 1.76452 0)
(9.55178 1.31766 0)
(9.95796 0.926085 0)
(10.414 0.666458 0)
(10.7185 0.230751 0)
(11.0603 -0.352118 0)
(11.4607 -0.838143 0)
(11.9335 -1.22327 0)
(12.4945 -1.38969 0)
(12.9959 -1.34455 0)
(13.296 -1.32499 0)
(13.3415 -1.28079 0)
(13.0668 -1.29788 0)
(12.7373 -1.77659 0)
(12.2635 -2.4538 0)
(11.6895 -2.84604 0)
(11.1946 -3.32413 0)
(10.7975 -4.01853 0)
(10.3939 -4.65239 0)
(10.0363 -5.29236 0)
(9.79974 -5.94394 0)
(9.51466 -6.52982 0)
(9.28826 -6.81933 0)
(8.98387 -6.55301 0)
(8.52236 -6.04212 0)
(8.18702 -5.62626 0)
(8.09921 -5.31073 0)
(8.06986 -5.32051 0)
(8.48946 -5.51183 0)
(9.03071 -5.78648 0)
(9.54899 -5.82731 0)
(9.8472 -5.68472 0)
(10.0591 -5.39332 0)
(10.2031 -4.78713 0)
(10.1858 -4.07344 0)
(10.1397 -3.33256 0)
(10.1237 -2.64914 0)
(10.2383 -1.89771 0)
(10.2568 -1.36789 0)
(10.308 -0.342172 0)
(9.9156 0.975885 0)
(9.69668 2.10718 0)
(9.34939 2.98328 0)
(8.92792 4.31642 0)
(8.50606 5.21404 0)
(8.08113 5.7674 0)
(7.81579 6.52416 0)
(7.3308 7.38364 0)
(6.8232 8.35037 0)
(6.79098 8.81361 0)
(5.81039 9.01242 0)
(6.24868 8.38672 0)
(5.9083 7.17136 0)
(5.91651 5.90571 0)
(6.10574 5.52454 0)
(6.15801 5.64246 0)
(6.21624 6.11972 0)
(7.03997 6.08519 0)
(6.96973 6.18719 0)
(7.35593 5.75066 0)
(7.79933 5.59966 0)
(7.67428 4.85887 0)
(8.47388 4.37743 0)
(7.86508 3.44841 0)
(8.81635 3.05685 0)
(8.1145 1.72603 0)
(9.02808 1.22855 0)
(8.33958 0.150298 0)
(9.49594 -0.439212 0)
(8.85602 -1.72799 0)
(9.47908 -1.65205 0)
(8.69137 -2.32108 0)
(9.13156 -2.5036 0)
(8.08024 -2.59361 0)
(7.90601 -1.98599 0)
(7.33027 -2.37644 0)
(7.34559 -1.98222 0)
(6.78031 -1.71537 0)
(6.7552 -1.35139 0)
(6.45888 -1.45387 0)
(6.68595 -1.53452 0)
(6.47559 -1.55948 0)
(6.45233 -1.45338 0)
(6.61231 -1.33459 0)
(6.33173 -1.19759 0)
(6.72082 -1.25386 0)
(6.75884 -1.66356 0)
(7.12504 -1.53866 0)
(6.89252 -1.53773 0)
(6.99117 -1.02066 0)
(6.59975 -0.916225 0)
(6.90535 -0.517123 0)
(6.52395 -0.186618 0)
(5.92243 -0.18993 0)
(6.63252 0.570392 0)
(5.90188 0.269797 0)
(6.54117 0.974044 0)
(6.51837 1.02945 0)
(6.76862 2.08659 0)
(6.98185 2.71978 0)
(6.8807 3.60336 0)
(7.00344 5.37371 0)
(7.05733 5.54291 0)
(6.98167 7.16851 0)
(6.97612 9.03641 0)
(7.09164 10.3065 0)
(4.131 13.9749 0)
(5.39374 -0.0988815 0)
(5.43677 -0.0784025 0)
(5.45386 -0.0482097 0)
(5.46257 -0.0356475 0)
(5.49205 -0.0232633 0)
(5.5492 -0.0327052 0)
(5.62815 -0.0503428 0)
(5.71624 -0.0573963 0)
(5.81548 -0.0719927 0)
(5.89799 -0.0824826 0)
(5.99087 -0.0954631 0)
(6.06599 -0.112816 0)
(6.1404 -0.139808 0)
(6.22026 -0.165216 0)
(6.2909 -0.205172 0)
(6.36724 -0.24042 0)
(6.45366 -0.275627 0)
(6.52062 -0.321561 0)
(6.60758 -0.364321 0)
(6.66485 -0.41227 0)
(6.7276 -0.444979 0)
(6.77728 -0.501168 0)
(6.77973 -0.51824 0)
(6.82166 -0.549344 0)
(6.75006 -0.559919 0)
(6.75851 -0.54073 0)
(6.64865 -0.530009 0)
(6.58756 -0.449078 0)
(6.48979 -0.414168 0)
(6.28855 -0.308704 0)
(6.19579 -0.227331 0)
(5.88745 -0.149417 0)
(5.85225 0.0188938 0)
(5.59675 0.111901 0)
(5.52873 0.284946 0)
(5.66733 0.525571 0)
(5.52577 0.685018 0)
(5.85382 0.908628 0)
(6.12504 1.18031 0)
(6.1429 1.29518 0)
(6.69951 1.30787 0)
(7.13945 1.4885 0)
(7.24613 1.42749 0)
(7.87581 1.14664 0)
(8.48262 1.15041 0)
(8.68513 0.886277 0)
(9.32739 0.377281 0)
(9.95639 0.153368 0)
(10.3486 -0.358631 0)
(10.9636 -0.898422 0)
(11.5262 -1.34002 0)
(12.1358 -1.94861 0)
(12.5523 -2.40388 0)
(13.1039 -3.07215 0)
(13.6106 -3.63432 0)
(13.6799 -4.00968 0)
(14.0066 -4.40686 0)
(13.9113 -4.80989 0)
(13.9449 -4.89162 0)
(13.5079 -4.8641 0)
(13.0791 -4.8401 0)
(12.7626 -4.59787 0)
(12.2564 -4.39708 0)
(11.8877 -4.22766 0)
(11.5436 -3.91314 0)
(11.2515 -3.66206 0)
(10.8481 -3.33496 0)
(10.6468 -2.96881 0)
(10.3988 -2.90356 0)
(10.3306 -2.55669 0)
(10.1591 -2.33702 0)
(9.82022 -2.1366 0)
(9.87449 -1.69021 0)
(9.75756 -1.43213 0)
(9.68163 -1.17386 0)
(9.64528 -0.663766 0)
(9.42364 -0.410337 0)
(9.23796 0.013279 0)
(9.14728 0.498146 0)
(8.7786 0.657877 0)
(8.56349 0.857956 0)
(8.62495 1.2708 0)
(8.79088 1.77546 0)
(8.98995 2.25268 0)
(9.1099 2.67885 0)
(9.14255 2.97705 0)
(8.92444 3.00456 0)
(8.5938 2.74571 0)
(8.44155 2.38357 0)
(8.40386 2.22372 0)
(8.43987 2.01825 0)
(8.66383 1.72418 0)
(9.01281 1.59728 0)
(9.15278 1.4942 0)
(9.24644 1.08082 0)
(9.45651 0.595746 0)
(9.67694 0.2775 0)
(9.92078 -0.10383 0)
(10.2718 -0.701553 0)
(10.6888 -1.26519 0)
(11.1596 -1.68333 0)
(11.8148 -1.85978 0)
(12.3913 -1.76278 0)
(12.8533 -1.56105 0)
(13.0184 -1.32357 0)
(12.9213 -1.16367 0)
(12.7125 -1.48725 0)
(12.316 -1.98186 0)
(11.6227 -2.39002 0)
(11.1679 -2.98872 0)
(10.804 -3.7283 0)
(10.3257 -4.39971 0)
(9.9484 -5.08184 0)
(9.72945 -5.81908 0)
(9.51691 -6.34563 0)
(9.17551 -6.46036 0)
(8.67389 -6.13613 0)
(8.09967 -5.69725 0)
(7.79368 -5.41804 0)
(7.80217 -5.32146 0)
(7.84206 -5.59499 0)
(8.32485 -5.9286 0)
(8.76225 -6.11274 0)
(9.13072 -6.09109 0)
(9.24034 -5.88994 0)
(9.44132 -5.42211 0)
(9.37139 -4.78633 0)
(9.41566 -4.04474 0)
(9.4368 -3.31746 0)
(9.44892 -2.71788 0)
(9.50241 -1.96446 0)
(9.47394 -1.27457 0)
(9.39711 -0.108347 0)
(8.9638 1.15892 0)
(8.78222 2.30973 0)
(8.63426 3.23878 0)
(8.16204 4.49805 0)
(7.8717 5.40335 0)
(7.48008 6.00754 0)
(7.14033 6.81002 0)
(6.78931 7.72116 0)
(6.06954 8.61404 0)
(6.272 9.17739 0)
(5.34068 9.08595 0)
(5.53854 8.41641 0)
(5.7944 7.16054 0)
(5.46041 5.96376 0)
(5.98702 5.44693 0)
(6.0134 5.41017 0)
(5.96898 5.79636 0)
(6.57313 5.80091 0)
(6.9078 5.86396 0)
(7.08555 5.43258 0)
(7.93531 5.39541 0)
(7.49755 4.67809 0)
(8.64123 4.17394 0)
(7.80015 3.34816 0)
(9.04311 2.93088 0)
(8.20617 1.62245 0)
(9.72881 1.0021 0)
(8.65503 -0.00921058 0)
(10.1556 -0.62448 0)
(9.05155 -1.73444 0)
(9.76341 -1.42767 0)
(8.50379 -2.19738 0)
(9.05104 -2.17538 0)
(7.74988 -2.21277 0)
(7.93761 -1.73315 0)
(7.45387 -2.21099 0)
(7.43303 -1.66685 0)
(6.91819 -1.57692 0)
(6.99825 -1.14748 0)
(6.72991 -1.53172 0)
(7.00612 -1.41385 0)
(6.6075 -1.52561 0)
(6.86468 -1.3935 0)
(6.66751 -1.37877 0)
(6.76332 -1.18109 0)
(6.9616 -1.54208 0)
(7.09444 -1.7838 0)
(7.18296 -1.43421 0)
(6.88836 -1.27518 0)
(6.83811 -0.885686 0)
(6.71447 -0.777537 0)
(6.25319 -0.570616 0)
(6.6659 0.275629 0)
(5.55985 -0.361149 0)
(6.14271 0.714145 0)
(6.01712 0.503114 0)
(5.76437 0.722092 0)
(6.72712 1.15371 0)
(6.45218 1.36018 0)
(7.36604 3.29866 0)
(6.83553 3.08901 0)
(7.43057 5.13792 0)
(7.74979 6.8851 0)
(7.10698 6.98466 0)
(7.10448 8.64994 0)
(9.99214 9.69825 0)
(7.24742 15.0608 0)
(8.0956 -0.0624754 0)
(8.1023 -0.0081622 0)
(8.0967 0.00696934 0)
(8.09367 -0.0204921 0)
(8.09171 -0.0528753 0)
(8.14292 -0.0800632 0)
(8.1882 -0.110415 0)
(8.26599 -0.112165 0)
(8.33028 -0.124095 0)
(8.38864 -0.139725 0)
(8.451 -0.14243 0)
(8.49526 -0.163268 0)
(8.55863 -0.185908 0)
(8.60592 -0.214483 0)
(8.6772 -0.252124 0)
(8.7141 -0.284313 0)
(8.79627 -0.33309 0)
(8.8243 -0.365266 0)
(8.88883 -0.411617 0)
(8.9341 -0.461621 0)
(8.93382 -0.474755 0)
(9.0101 -0.53248 0)
(8.93101 -0.528042 0)
(9.02227 -0.549981 0)
(8.88496 -0.54249 0)
(8.93812 -0.49137 0)
(8.83757 -0.480823 0)
(8.71224 -0.387761 0)
(8.75483 -0.313462 0)
(8.42428 -0.239428 0)
(8.54751 -0.116895 0)
(8.21331 0.0171373 0)
(8.1419 0.126723 0)
(8.10257 0.304234 0)
(7.7168 0.40273 0)
(7.9061 0.474976 0)
(7.70396 0.745629 0)
(7.64334 0.771806 0)
(7.9837 0.855806 0)
(8.05784 1.118 0)
(8.22636 1.04598 0)
(8.76395 0.982647 0)
(9.11762 1.05922 0)
(9.34666 0.894901 0)
(9.99809 0.532796 0)
(10.485 0.414441 0)
(10.8734 0.0899494 0)
(11.5052 -0.396946 0)
(12.0966 -0.811647 0)
(12.5181 -1.2884 0)
(13.0781 -1.71438 0)
(13.5988 -2.37946 0)
(13.9882 -2.75168 0)
(14.3138 -3.37695 0)
(14.6136 -3.86069 0)
(14.5423 -4.06111 0)
(14.5726 -4.52638 0)
(14.4325 -4.59615 0)
(13.8893 -4.63163 0)
(13.5402 -4.51199 0)
(13.0687 -4.44068 0)
(12.6267 -4.23989 0)
(12.126 -4.0689 0)
(11.8629 -3.97028 0)
(11.4956 -3.60031 0)
(11.2331 -3.40764 0)
(11.0416 -3.23564 0)
(11.0287 -2.88211 0)
(10.9282 -2.79958 0)
(10.7488 -2.49381 0)
(10.7258 -2.12605 0)
(10.5113 -1.96733 0)
(10.4329 -1.5643 0)
(10.3063 -1.27778 0)
(9.85352 -1.0772 0)
(9.79172 -0.600849 0)
(9.58473 -0.233218 0)
(9.30883 0.00767253 0)
(9.44641 0.483439 0)
(9.42121 0.929214 0)
(9.08318 1.18388 0)
(8.82355 1.41813 0)
(8.67579 1.75485 0)
(8.70444 2.04749 0)
(8.85136 2.3966 0)
(9.22013 2.79548 0)
(9.57123 3.10838 0)
(9.61509 3.03574 0)
(9.41318 2.68526 0)
(9.25484 2.33231 0)
(9.19797 1.93487 0)
(9.344 1.51467 0)
(9.58734 1.46715 0)
(9.7087 1.47648 0)
(9.78714 1.08596 0)
(9.72112 0.521325 0)
(9.66124 0.145386 0)
(9.71741 -0.308018 0)
(10.0374 -1.03907 0)
(10.366 -1.7038 0)
(10.8085 -2.18419 0)
(11.3463 -2.3754 0)
(11.8609 -2.18513 0)
(12.2488 -1.84081 0)
(12.4521 -1.40665 0)
(12.4138 -1.0709 0)
(12.2463 -1.30913 0)
(11.8653 -1.61697 0)
(11.3668 -1.94308 0)
(11.0037 -2.60602 0)
(10.6089 -3.34922 0)
(10.1587 -4.02207 0)
(9.79252 -4.83282 0)
(9.60384 -5.63734 0)
(9.25411 -6.10423 0)
(8.80446 -6.0889 0)
(8.22195 -5.67369 0)
(7.62255 -5.33584 0)
(7.38376 -5.28829 0)
(7.43801 -5.42022 0)
(7.5817 -5.82782 0)
(8.03634 -6.19387 0)
(8.30359 -6.34317 0)
(8.46722 -6.15138 0)
(8.51604 -5.92937 0)
(8.65472 -5.39831 0)
(8.62541 -4.795 0)
(8.6532 -4.02178 0)
(8.62418 -3.34161 0)
(8.65424 -2.62459 0)
(8.58096 -1.9468 0)
(8.50078 -1.09673 0)
(8.22036 0.13433 0)
(7.93215 1.41357 0)
(7.78486 2.47733 0)
(7.75155 3.62964 0)
(7.19848 4.89647 0)
(7.1474 5.72736 0)
(6.75676 6.34847 0)
(6.35819 7.24065 0)
(6.14844 8.10042 0)
(5.40288 8.7935 0)
(5.46181 9.35633 0)
(4.85126 9.22223 0)
(4.57193 8.23783 0)
(5.44215 6.88797 0)
(5.01065 5.79075 0)
(5.92443 5.36392 0)
(5.65906 5.36056 0)
(5.82424 5.59401 0)
(6.11272 5.52304 0)
(6.76891 5.50558 0)
(6.79788 5.10607 0)
(7.79938 5.18669 0)
(7.32485 4.55577 0)
(8.56295 3.99335 0)
(7.92491 3.1803 0)
(9.11677 2.72836 0)
(8.63909 1.39595 0)
(10.0278 0.747191 0)
(8.89074 -0.176989 0)
(10.3511 -0.704349 0)
(8.74576 -1.52163 0)
(9.64006 -1.14346 0)
(8.08366 -2.00105 0)
(8.93489 -1.69779 0)
(7.42516 -1.84293 0)
(8.12967 -1.54504 0)
(7.33797 -2.05949 0)
(7.52754 -1.46609 0)
(7.1016 -1.43602 0)
(7.18681 -1.10291 0)
(7.03231 -1.51045 0)
(7.08161 -1.31822 0)
(6.97659 -1.57223 0)
(7.09942 -1.36697 0)
(6.97054 -1.44738 0)
(7.18936 -1.18389 0)
(7.20724 -1.63393 0)
(7.30124 -1.67715 0)
(7.18854 -1.46319 0)
(7.03797 -1.126 0)
(6.80874 -0.900453 0)
(6.63963 -0.301434 0)
(6.09206 -0.581085 0)
(6.20893 0.58307 0)
(5.6252 0.105515 0)
(5.31277 0.433699 0)
(6.4545 0.593038 0)
(5.5599 0.259672 0)
(6.72992 0.962781 0)
(6.65654 1.49338 0)
(6.98334 2.35408 0)
(8.02941 4.16476 0)
(6.90558 4.02626 0)
(8.65192 5.97712 0)
(9.48598 7.2142 0)
(7.46216 9.32256 0)
(12.2885 7.34312 0)
(9.50556 14.9472 0)
(10.3595 -0.057107 0)
(10.3522 0.0186196 0)
(10.2689 0.0255931 0)
(10.2623 -0.0415158 0)
(10.2472 -0.0721167 0)
(10.3153 -0.115685 0)
(10.3631 -0.151061 0)
(10.4263 -0.137577 0)
(10.4805 -0.156228 0)
(10.5051 -0.17877 0)
(10.5574 -0.172158 0)
(10.5703 -0.201947 0)
(10.6073 -0.231368 0)
(10.6324 -0.24365 0)
(10.688 -0.296236 0)
(10.6793 -0.323748 0)
(10.7576 -0.363141 0)
(10.7441 -0.395437 0)
(10.7745 -0.446182 0)
(10.8176 -0.474691 0)
(10.7466 -0.484264 0)
(10.8569 -0.548816 0)
(10.6805 -0.510944 0)
(10.8067 -0.545111 0)
(10.6296 -0.508944 0)
(10.6386 -0.477114 0)
(10.6419 -0.421499 0)
(10.3995 -0.332263 0)
(10.588 -0.281446 0)
(10.2554 -0.0939725 0)
(10.363 -0.0592079 0)
(10.2108 0.113772 0)
(10.0406 0.254362 0)
(10.1737 0.317921 0)
(9.91624 0.5325 0)
(9.95764 0.559987 0)
(9.96483 0.7038 0)
(9.94773 0.830115 0)
(10.0078 0.854633 0)
(10.2521 0.854257 0)
(10.3253 0.899291 0)
(10.6186 0.826321 0)
(11.0914 0.593793 0)
(11.2401 0.599707 0)
(11.7815 0.258639 0)
(12.2702 -0.0881993 0)
(12.5902 -0.297081 0)
(13.1502 -0.75461 0)
(13.6766 -1.19589 0)
(14.0227 -1.68668 0)
(14.4269 -2.07622 0)
(14.8241 -2.64094 0)
(14.9984 -3.05985 0)
(15.1528 -3.47138 0)
(15.0983 -3.87924 0)
(14.9204 -4.00735 0)
(14.7039 -4.30464 0)
(14.1533 -4.26718 0)
(13.7761 -4.27404 0)
(13.3489 -4.21576 0)
(12.8724 -4.03099 0)
(12.5539 -3.97395 0)
(12.1966 -3.81547 0)
(11.9111 -3.68727 0)
(11.6083 -3.44897 0)
(11.4957 -3.23797 0)
(11.3439 -3.13652 0)
(11.2235 -2.87153 0)
(11.1501 -2.73558 0)
(10.9278 -2.49626 0)
(11.023 -2.11435 0)
(10.8045 -1.94793 0)
(10.6475 -1.60948 0)
(10.7233 -1.15413 0)
(10.4293 -0.846334 0)
(10.3425 -0.354555 0)
(10.276 0.0846971 0)
(9.8558 0.187406 0)
(9.69204 0.436146 0)
(9.56973 0.920907 0)
(9.32699 1.3009 0)
(9.15733 1.64689 0)
(9.0357 1.99034 0)
(8.8587 2.17237 0)
(8.77951 2.23379 0)
(8.97751 2.38391 0)
(9.37415 2.69999 0)
(9.64752 2.89545 0)
(9.77551 2.77859 0)
(9.79768 2.4856 0)
(9.76418 1.97942 0)
(10.031 1.45159 0)
(10.2428 1.37557 0)
(10.3675 1.46786 0)
(10.4918 1.23796 0)
(10.3595 0.702771 0)
(10.0623 0.263507 0)
(10.0132 -0.302736 0)
(10.203 -1.20162 0)
(10.3645 -1.97418 0)
(10.7307 -2.47432 0)
(11.1524 -2.70219 0)
(11.4967 -2.49654 0)
(11.8012 -2.06093 0)
(11.853 -1.47579 0)
(11.7651 -1.06509 0)
(11.6871 -1.10844 0)
(11.2971 -1.28054 0)
(10.9112 -1.62973 0)
(10.6302 -2.31681 0)
(10.2809 -3.03996 0)
(9.84607 -3.71391 0)
(9.60969 -4.59127 0)
(9.44838 -5.38248 0)
(9.02529 -5.70631 0)
(8.38378 -5.51739 0)
(7.62942 -5.18421 0)
(7.13108 -5.0201 0)
(7.0106 -5.16456 0)
(7.0274 -5.55218 0)
(7.15022 -6.07774 0)
(7.52981 -6.38456 0)
(7.62334 -6.42392 0)
(7.6888 -6.21019 0)
(7.66725 -5.89439 0)
(7.76391 -5.4293 0)
(7.76763 -4.75157 0)
(7.8184 -3.99508 0)
(7.76305 -3.32745 0)
(7.71727 -2.58765 0)
(7.57276 -1.79505 0)
(7.38674 -0.822817 0)
(7.04494 0.403705 0)
(6.95122 1.5476 0)
(6.86719 2.51159 0)
(6.91451 3.70295 0)
(6.41452 4.95338 0)
(6.33055 5.86375 0)
(6.14134 6.51786 0)
(5.54511 7.55935 0)
(5.4344 8.3957 0)
(4.74246 9.26318 0)
(4.68445 9.53969 0)
(4.31722 9.49899 0)
(4.14271 8.08435 0)
(4.77851 6.53703 0)
(4.85611 5.58573 0)
(5.23112 5.14953 0)
(5.45953 5.16077 0)
(5.67199 5.28133 0)
(5.82516 5.26946 0)
(6.62666 5.08723 0)
(6.65586 4.7169 0)
(7.6262 4.76746 0)
(7.33185 4.30841 0)
(8.53631 3.61672 0)
(8.15591 2.85592 0)
(9.08342 2.32659 0)
(8.98492 1.06387 0)
(9.68339 0.656444 0)
(8.85476 -0.272688 0)
(9.74895 -0.616924 0)
(8.40382 -1.21219 0)
(9.19938 -0.924522 0)
(7.81791 -1.74038 0)
(8.75672 -1.3673 0)
(7.27586 -1.74989 0)
(8.39623 -1.43843 0)
(7.26362 -1.98118 0)
(7.95584 -1.27063 0)
(7.16422 -1.38078 0)
(7.60305 -1.04367 0)
(7.14049 -1.51008 0)
(7.4466 -1.25772 0)
(7.34477 -1.61826 0)
(7.33325 -1.31161 0)
(7.219 -1.53687 0)
(7.36991 -1.25798 0)
(7.41325 -1.7592 0)
(7.53143 -1.61284 0)
(7.20681 -1.43617 0)
(7.08004 -0.73127 0)
(6.57413 -0.767726 0)
(6.46331 0.083849 0)
(6.02735 -0.566614 0)
(5.9111 1.05063 0)
(5.84685 -0.0928163 0)
(5.53982 0.607905 0)
(5.88559 -0.398648 0)
(6.69911 1.42594 0)
(5.30088 -0.379606 0)
(8.03269 1.85356 0)
(6.30595 2.42429 0)
(7.4301 3.80718 0)
(8.20513 4.68454 0)
(6.49446 6.43641 0)
(11.3776 5.55304 0)
(7.19632 10.5131 0)
(12.5644 4.2165 0)
(11.0824 13.027 0)
(11.9296 -0.0457102 0)
(11.9152 -0.0417529 0)
(11.7905 -0.0466832 0)
(11.7987 -0.116805 0)
(11.7774 -0.124984 0)
(11.8457 -0.152604 0)
(11.9004 -0.189647 0)
(11.944 -0.169697 0)
(11.9943 -0.17594 0)
(11.9977 -0.203088 0)
(12.0275 -0.197236 0)
(12.0241 -0.216619 0)
(12.0364 -0.262298 0)
(12.026 -0.281382 0)
(12.0913 -0.311891 0)
(12.0436 -0.345545 0)
(12.1083 -0.392544 0)
(12.0585 -0.383887 0)
(12.0871 -0.472612 0)
(12.068 -0.465711 0)
(11.9924 -0.471722 0)
(12.0893 -0.542383 0)
(11.8557 -0.455167 0)
(11.9951 -0.540241 0)
(11.7954 -0.451388 0)
(11.7663 -0.441852 0)
(11.7869 -0.413667 0)
(11.5753 -0.262686 0)
(11.726 -0.251336 0)
(11.5092 -0.063768 0)
(11.5833 -0.00620177 0)
(11.531 0.131184 0)
(11.462 0.26436 0)
(11.5401 0.354701 0)
(11.5381 0.506765 0)
(11.541 0.56871 0)
(11.6429 0.706002 0)
(11.802 0.709548 0)
(11.7434 0.81175 0)
(12.1206 0.762737 0)
(12.2673 0.648289 0)
(12.3679 0.68616 0)
(12.8917 0.379775 0)
(13.0531 0.232998 0)
(13.3818 0.0084398 0)
(13.8485 -0.416335 0)
(14.127 -0.64649 0)
(14.5178 -1.09034 0)
(14.8267 -1.51031 0)
(15.0968 -1.93926 0)
(15.2828 -2.29676 0)
(15.3996 -2.79905 0)
(15.4156 -3.1254 0)
(15.2146 -3.4083 0)
(15.09 -3.7733 0)
(14.6552 -3.7708 0)
(14.3289 -4.01576 0)
(13.8896 -3.88689 0)
(13.5208 -3.92704 0)
(13.2583 -3.93658 0)
(12.8451 -3.72101 0)
(12.6935 -3.71827 0)
(12.331 -3.51091 0)
(12.2066 -3.4199 0)
(12.0126 -3.33037 0)
(11.9567 -3.17915 0)
(11.8259 -3.04014 0)
(11.6165 -2.7385 0)
(11.547 -2.46262 0)
(11.2092 -2.28748 0)
(11.1577 -1.94587 0)
(11.0534 -1.75597 0)
(10.8396 -1.48997 0)
(10.9138 -1.00932 0)
(10.6569 -0.809125 0)
(10.514 -0.503784 0)
(10.6349 0.0510785 0)
(10.4373 0.391088 0)
(10.237 0.774035 0)
(9.95866 1.2886 0)
(9.60125 1.48972 0)
(9.39809 1.61685 0)
(9.27473 2.01992 0)
(9.23183 2.31708 0)
(9.12604 2.29578 0)
(8.95307 2.33351 0)
(9.03518 2.55092 0)
(9.26951 2.64179 0)
(9.52029 2.58444 0)
(9.52886 2.39445 0)
(9.57503 1.76999 0)
(9.94818 1.18168 0)
(10.149 1.21425 0)
(10.329 1.44716 0)
(10.5732 1.27683 0)
(10.4676 0.821139 0)
(10.1536 0.447066 0)
(10.0311 -0.260181 0)
(10.0001 -1.26214 0)
(10.071 -2.12951 0)
(10.4254 -2.7576 0)
(10.7223 -2.98564 0)
(10.9657 -2.70119 0)
(11.195 -2.13847 0)
(11.0878 -1.44611 0)
(11.0295 -1.03322 0)
(10.9183 -0.936993 0)
(10.5504 -1.00151 0)
(10.279 -1.38568 0)
(10.0915 -2.0736 0)
(9.7621 -2.70837 0)
(9.37654 -3.49082 0)
(9.282 -4.45313 0)
(9.03547 -5.16136 0)
(8.46297 -5.23279 0)
(7.70264 -4.8982 0)
(6.96314 -4.67935 0)
(6.54236 -4.79999 0)
(6.47746 -5.15677 0)
(6.5447 -5.67747 0)
(6.59388 -6.26604 0)
(6.87375 -6.48995 0)
(6.82586 -6.45267 0)
(6.73789 -6.21064 0)
(6.76559 -5.9061 0)
(6.78276 -5.40045 0)
(6.82672 -4.73834 0)
(6.79054 -3.95379 0)
(6.74374 -3.25348 0)
(6.66596 -2.43412 0)
(6.41182 -1.61739 0)
(6.31862 -0.589122 0)
(5.99263 0.51652 0)
(6.0843 1.64538 0)
(5.98245 2.63217 0)
(5.96863 4.03234 0)
(5.50831 5.16523 0)
(5.48362 6.09879 0)
(5.3536 6.79553 0)
(4.63599 8.01848 0)
(4.64241 8.5856 0)
(4.05864 9.60325 0)
(4.02865 9.62699 0)
(3.87705 9.51597 0)
(3.95286 7.90191 0)
(4.25934 6.30639 0)
(4.4236 5.53171 0)
(4.55445 4.84433 0)
(4.99286 4.8644 0)
(5.15518 4.91728 0)
(5.22257 4.91152 0)
(6.2992 4.55684 0)
(6.34128 4.22932 0)
(7.41394 4.2572 0)
(7.16948 3.92386 0)
(8.36728 3.17955 0)
(7.81481 2.60579 0)
(8.81819 1.86766 0)
(8.57795 1.02765 0)
(8.986 0.704002 0)
(8.50474 -0.264285 0)
(9.00993 -0.420469 0)
(8.2285 -0.929864 0)
(8.72684 -0.774701 0)
(7.85976 -1.53908 0)
(8.53003 -1.23701 0)
(7.57014 -1.65449 0)
(8.45602 -1.3201 0)
(7.40645 -1.9537 0)
(8.24144 -1.07282 0)
(7.24791 -1.3958 0)
(7.95262 -0.842932 0)
(7.26712 -1.61737 0)
(8.03037 -1.25661 0)
(7.46219 -1.75513 0)
(7.70599 -1.05093 0)