/*--------------------------------*- C++ -*----------------------------------*\
| =========                 |                                                 |
| \\      /  F ield         | OpenFOAM: The Open Source CFD Toolbox           |
|  \\    /   O peration     | Version:  2.4.0                                 |
|   \\  /    A nd           | Web:      www.OpenFOAM.org                      |
|    \\/     M anipulation  |                                                 |
\*---------------------------------------------------------------------------*/
FoamFile
{
    version     2.0;
    format      ascii;
    class       volSymmTensorField;
    location    "1.61";
    object      UPrime2Mean;
}
// * * * * * * * * * * * * * * * * * * * * * * * * * * * * * * * * * * * * * //

dimensions      [0 2 -2 0 0 0 0];

internalField   nonuniform List<symmTensor> 
8800
(
(0.00107612 5.68843e-05 0 0.00012005 0 0)
(0.0200505 -0.000778407 0 4.54138e-05 0 0)
(0.0393614 -7.24444e-05 0 1.2458e-05 0 0)
(0.0497771 0.000100975 0 6.93504e-06 0 0)
(0.0563846 6.76256e-05 0 5.85092e-06 0 0)
(0.0634188 2.49048e-05 0 7.4893e-06 0 0)
(0.0667856 -9.61327e-06 0 8.7391e-06 0 0)
(0.0703827 -5.94645e-05 0 1.13443e-05 0 0)
(0.0731625 -7.70342e-05 0 1.20318e-05 0 0)
(0.0747069 -0.000111512 0 1.49026e-05 0 0)
(0.077732 -0.000122611 0 1.49646e-05 0 0)
(0.0782552 -0.000161263 0 1.85802e-05 0 0)
(0.0815599 -0.000180441 0 1.79955e-05 0 0)
(0.0821207 -0.000213387 0 2.22843e-05 0 0)
(0.0864032 -0.000295172 0 2.13937e-05 0 0)
(0.0873749 -0.00022642 0 2.72943e-05 0 0)
(0.0972766 -0.000835356 0 2.99413e-05 0 0)
(0.0957212 0.000949554 0 7.84805e-05 0 0)
(0.156114 -0.010524 0 0.00109705 0 0)
(0.164562 0.0186875 0 0.00370481 0 0)
(0.00646442 0.00165656 0 0.000731444 0 0)
(0.00181191 -0.000761598 0 0.000972337 0 0)
(0.0126165 -0.00126685 0 0.000423232 0 0)
(0.0200972 -0.00152707 0 0.000183298 0 0)
(0.0298999 -0.00138312 0 0.000116059 0 0)
(0.0445446 -0.00131641 0 9.92841e-05 0 0)
(0.0565709 -0.00164184 0 0.000115405 0 0)
(0.0669825 -0.00115867 0 8.92826e-05 0 0)
(0.0846823 -0.00173339 0 0.000117167 0 0)
(0.0850636 -0.00130936 0 9.97567e-05 0 0)
(0.110333 -0.00190728 0 0.00013173 0 0)
(0.101384 -0.00167881 0 0.000125998 0 0)
(0.133407 -0.00242787 0 0.000171393 0 0)
(0.117432 -0.00216779 0 0.000168331 0 0)
(0.157366 -0.00331671 0 0.000246137 0 0)
(0.13357 -0.00336309 0 0.000280057 0 0)
(0.189854 -0.00370602 0 0.000384412 0 0)
(0.15917 -0.00805738 0 0.000992337 0 0)
(0.267604 -0.00437237 0 0.00077904 0 0)
(0.261251 -0.0348555 0 0.0130447 0 0)
(0.0160274 0.000661067 0 0.000496881 0 0)
(0.0156489 0.000102201 0 0.00117515 0 0)
(0.040657 -8.09744e-05 0 0.000774439 0 0)
(0.0439396 -0.00124266 0 0.000451703 0 0)
(0.0621102 -0.0012183 0 0.000370327 0 0)
(0.0721939 -0.00187263 0 0.00035384 0 0)
(0.0941559 -0.0036709 0 0.000422432 0 0)
(0.0996792 -0.00232692 0 0.000299154 0 0)
(0.139734 -0.00520529 0 0.000402002 0 0)
(0.127172 -0.00338906 0 0.000278323 0 0)
(0.190732 -0.00638929 0 0.000413943 0 0)
(0.154623 -0.0047027 0 0.000330308 0 0)
(0.242949 -0.00845735 0 0.000572996 0 0)
(0.179086 -0.0059847 0 0.000477624 0 0)
(0.299646 -0.0120787 0 0.000968392 0 0)
(0.195052 -0.00728248 0 0.000825835 0 0)
(0.367753 -0.0165014 0 0.00170645 0 0)
(0.210385 -0.00934356 0 0.00203025 0 0)
(0.465147 -0.0223157 0 0.0039302 0 0)
(0.261391 -0.0295317 0 0.0158807 0 0)
(0.0777561 -0.000452682 0 0.00040528 0 0)
(0.0903035 -0.000218743 0 0.000966929 0 0)
(0.140851 -0.00130622 0 0.000805588 0 0)
(0.14628 -0.00254907 0 0.000570287 0 0)
(0.181809 -0.00166107 0 0.000584658 0 0)
(0.188032 -0.00307831 0 0.00061822 0 0)
(0.228723 -0.00578909 0 0.000824798 0 0)
(0.223385 -0.00304903 0 0.000624608 0 0)
(0.28781 -0.00971891 0 0.0009508 0 0)
(0.255514 -0.00531636 0 0.000630709 0 0)
(0.354876 -0.012929 0 0.00104282 0 0)
(0.286153 -0.00838773 0 0.000764259 0 0)
(0.426968 -0.0175347 0 0.00145233 0 0)
(0.313248 -0.0112576 0 0.00107505 0 0)
(0.506751 -0.0250057 0 0.00240218 0 0)
(0.327862 -0.0138006 0 0.00173004 0 0)
(0.600461 -0.0338329 0 0.00385442 0 0)
(0.325826 -0.0168553 0 0.0040833 0 0)
(0.723723 -0.041692 0 0.00660613 0 0)
(0.316371 -0.030869 0 0.0225558 0 0)
(0.302655 -0.00158628 0 0.000674476 0 0)
(0.299491 -0.000129799 0 0.00128571 0 0)
(0.335443 -0.00467524 0 0.00155239 0 0)
(0.322974 -0.00480883 0 0.00116142 0 0)
(0.350402 -0.00493487 0 0.00127539 0 0)
(0.341132 -0.00668818 0 0.00117394 0 0)
(0.375939 -0.00980959 0 0.00180792 0 0)
(0.358363 -0.00604469 0 0.001329 0 0)
(0.413136 -0.0150964 0 0.00227603 0 0)
(0.376321 -0.0084148 0 0.00153489 0 0)
(0.454265 -0.0194747 0 0.00265511 0 0)
(0.395513 -0.0124126 0 0.00183137 0 0)
(0.496229 -0.0253774 0 0.00349021 0 0)
(0.415685 -0.0162584 0 0.0023401 0 0)
(0.540083 -0.0348613 0 0.00507763 0 0)
(0.431686 -0.0202421 0 0.00318167 0 0)
(0.59031 -0.0468012 0 0.00737505 0 0)
(0.436593 -0.0252224 0 0.00584809 0 0)
(0.658106 -0.0591032 0 0.0114647 0 0)
(0.418256 -0.0330497 0 0.026521 0 0)
(0.381171 -0.00624334 0 0.00222694 0 0)
(0.327374 -0.00136523 0 0.00302484 0 0)
(0.319739 -0.00846349 0 0.00382959 0 0)
(0.274886 -0.00666056 0 0.00248045 0 0)
(0.284631 -0.00928324 0 0.00338739 0 0)
(0.261843 -0.00875057 0 0.00277453 0 0)
(0.268029 -0.0122356 0 0.00400396 0 0)
(0.251313 -0.00816511 0 0.00290766 0 0)
(0.263184 -0.0155622 0 0.00479114 0 0)
(0.248878 -0.0102906 0 0.00322403 0 0)
(0.2615 -0.0187437 0 0.00541436 0 0)
(0.251984 -0.0137767 0 0.0038433 0 0)
(0.260096 -0.0222588 0 0.00658817 0 0)
(0.261822 -0.017156 0 0.00463398 0 0)
(0.256342 -0.0276005 0 0.00886808 0 0)
(0.277937 -0.0212712 0 0.00577133 0 0)
(0.249246 -0.0338816 0 0.0124052 0 0)
(0.300454 -0.0268345 0 0.00871214 0 0)
(0.241579 -0.0389516 0 0.0201726 0 0)
(0.328186 -0.0356799 0 0.0248 0 0)
(0.179501 -0.00998185 0 0.00415557 0 0)
(0.159848 -0.00858986 0 0.00614261 0 0)
(0.149312 -0.00790199 0 0.00598665 0 0)
(0.138546 -0.0113407 0 0.005093 0 0)
(0.135316 -0.010148 0 0.00619386 0 0)
(0.137244 -0.0104659 0 0.00552455 0 0)
(0.132383 -0.0108699 0 0.00621687 0 0)
(0.134739 -0.0105531 0 0.00564391 0 0)
(0.135266 -0.0115737 0 0.00687013 0 0)
(0.137546 -0.0115123 0 0.00609114 0 0)
(0.135654 -0.0132791 0 0.00769591 0 0)
(0.145145 -0.0127006 0 0.00690215 0 0)
(0.139528 -0.013942 0 0.00907481 0 0)
(0.156154 -0.0143217 0 0.00814517 0 0)
(0.142029 -0.0141434 0 0.0114856 0 0)
(0.172046 -0.0162984 0 0.0098891 0 0)
(0.143722 -0.0126551 0 0.0154052 0 0)
(0.195513 -0.0184221 0 0.014309 0 0)
(0.146476 -0.00566914 0 0.0243508 0 0)
(0.229955 -0.0178368 0 0.0363689 0 0)
(0.159094 -0.0118137 0 0.00513842 0 0)
(0.193953 -0.0189238 0 0.0102749 0 0)
(0.155375 -0.00865846 0 0.00806198 0 0)
(0.196646 -0.014183 0 0.00698904 0 0)
(0.170355 -0.0118294 0 0.00811827 0 0)
(0.193778 -0.0116044 0 0.00804514 0 0)
(0.19035 -0.00993012 0 0.0074505 0 0)
(0.198285 -0.0117657 0 0.00815794 0 0)
(0.204696 -0.0092994 0 0.00833378 0 0)
(0.203853 -0.0111492 0 0.00842375 0 0)
(0.218122 -0.00896758 0 0.00901329 0 0)
(0.210668 -0.0105806 0 0.0096021 0 0)
(0.236336 -0.0070101 0 0.010294 0 0)
(0.221513 -0.010499 0 0.0110206 0 0)
(0.249949 -0.00374855 0 0.0125716 0 0)
(0.235758 -0.00989877 0 0.0131499 0 0)
(0.268204 0.00202885 0 0.0161066 0 0)
(0.255128 -0.00806292 0 0.0189892 0 0)
(0.286482 0.014372 0 0.024909 0 0)
(0.282312 -0.000894394 0 0.0425304 0 0)
(0.271116 -0.00856826 0 0.00491506 0 0)
(0.303239 -0.0181339 0 0.0131087 0 0)
(0.261591 -0.0057543 0 0.00915128 0 0)
(0.269611 -0.00905029 0 0.00811985 0 0)
(0.297148 -0.00688142 0 0.00806555 0 0)
(0.256181 -0.00686601 0 0.00901062 0 0)
(0.332515 -0.00446062 0 0.00753305 0 0)
(0.254654 -0.00666013 0 0.0090989 0 0)
(0.350744 -0.00214805 0 0.00806709 0 0)
(0.258942 -0.00650898 0 0.00970336 0 0)
(0.362369 -7.07052e-07 0 0.00866488 0 0)
(0.268829 -0.00520359 0 0.0106632 0 0)
(0.377716 0.00296298 0 0.00992819 0 0)
(0.282211 -0.00446107 0 0.0121997 0 0)
(0.395495 0.00726368 0 0.0113835 0 0)
(0.299091 -0.00276953 0 0.014325 0 0)
(0.412597 0.0141904 0 0.0140867 0 0)
(0.323457 0.000635159 0 0.0197751 0 0)
(0.430952 0.0272226 0 0.0209347 0 0)
(0.368023 0.00663633 0 0.0365008 0 0)
(0.303275 -0.00416014 0 0.00358262 0 0)
(0.33688 -0.00841934 0 0.0100074 0 0)
(0.325313 -0.000867006 0 0.00599452 0 0)
(0.279593 -0.00173385 0 0.00615193 0 0)
(0.349599 -0.000779681 0 0.00548966 0 0)
(0.269962 -0.000985638 0 0.00662126 0 0)
(0.361429 0.00138688 0 0.005117 0 0)
(0.270081 -0.000657362 0 0.00686166 0 0)
(0.361374 0.00372256 0 0.00550334 0 0)
(0.275101 -0.00039677 0 0.00717944 0 0)
(0.368403 0.00490945 0 0.00600962 0 0)
(0.291227 0.000920649 0 0.00771782 0 0)
(0.377032 0.00774999 0 0.0067204 0 0)
(0.309892 0.00183079 0 0.00870474 0 0)
(0.386945 0.0113951 0 0.00742376 0 0)
(0.335028 0.00440731 0 0.0100016 0 0)
(0.400397 0.0170442 0 0.00868511 0 0)
(0.374871 0.00954243 0 0.0132048 0 0)
(0.419628 0.0271804 0 0.0126642 0 0)
(0.45509 0.0158957 0 0.0238503 0 0)
(0.205444 -0.00151395 0 0.00266907 0 0)
(0.235521 -0.00147785 0 0.00619852 0 0)
(0.223527 0.00207324 0 0.0042229 0 0)
(0.199432 0.00328694 0 0.00390965 0 0)
(0.232579 0.00202835 0 0.00468149 0 0)
(0.201714 0.00302549 0 0.00474006 0 0)
(0.233796 0.00350227 0 0.00454479 0 0)
(0.205612 0.00423357 0 0.00501522 0 0)
(0.233684 0.00499733 0 0.00474809 0 0)
(0.21494 0.00513495 0 0.00525836 0 0)
(0.233196 0.00627032 0 0.00509669 0 0)
(0.233829 0.00642857 0 0.00551498 0 0)
(0.238546 0.00844261 0 0.00545638 0 0)
(0.249699 0.00823719 0 0.00602029 0 0)
(0.244916 0.0109532 0 0.00585887 0 0)
(0.272974 0.0117682 0 0.00670576 0 0)
(0.251515 0.0144752 0 0.00661924 0 0)
(0.310455 0.0182116 0 0.00827967 0 0)
(0.257013 0.0211155 0 0.00916345 0 0)
(0.380609 0.0269284 0 0.0149149 0 0)
(0.0892808 -0.000371027 0 0.00236211 0 0)
(0.100459 0.000661627 0 0.00512326 0 0)
(0.0902795 0.00140217 0 0.00397548 0 0)
(0.0948774 0.00271418 0 0.00389201 0 0)
(0.0960596 0.00149611 0 0.00428555 0 0)
(0.100194 0.00244737 0 0.00454754 0 0)
(0.100196 0.00165384 0 0.00435856 0 0)
(0.105775 0.0038213 0 0.00481884 0 0)
(0.101191 0.00247887 0 0.00435315 0 0)
(0.116216 0.00468095 0 0.00487015 0 0)
(0.100391 0.00330565 0 0.00449411 0 0)
(0.129374 0.00559669 0 0.00498202 0 0)
(0.104341 0.00422325 0 0.00462226 0 0)
(0.142391 0.00681475 0 0.00518323 0 0)
(0.108111 0.00486413 0 0.00465421 0 0)
(0.159866 0.00921213 0 0.00539633 0 0)
(0.109967 0.00597446 0 0.00488816 0 0)
(0.186099 0.0133012 0 0.00623048 0 0)
(0.111321 0.0093494 0 0.00627265 0 0)
(0.234362 0.0190206 0 0.0103353 0 0)
(0.0296297 -0.000132273 0 0.00193474 0 0)
(0.0323843 0.000224344 0 0.00423298 0 0)
(0.0294223 -0.000354851 0 0.00346949 0 0)
(0.0383506 0.00072023 0 0.00320209 0 0)
(0.0353474 0.000258773 0 0.00325668 0 0)
(0.0402268 0.000907517 0 0.00343067 0 0)
(0.0386491 8.58981e-05 0 0.00342489 0 0)
(0.0451405 0.00157744 0 0.00378553 0 0)
(0.0401327 0.000212575 0 0.00335362 0 0)
(0.0515741 0.00221675 0 0.00360494 0 0)
(0.0406641 0.000928054 0 0.00329543 0 0)
(0.0569457 0.00263011 0 0.00362231 0 0)
(0.0431266 0.00126339 0 0.00340194 0 0)
(0.0636001 0.00309009 0 0.00352692 0 0)
(0.0464373 0.00144969 0 0.00317878 0 0)
(0.0714508 0.00426282 0 0.00335774 0 0)
(0.0494758 0.00221053 0 0.00310792 0 0)
(0.0832624 0.00642399 0 0.00363037 0 0)
(0.0550437 0.00480785 0 0.00389711 0 0)
(0.106016 0.0104456 0 0.00603854 0 0)
(0.00899572 -0.000255133 0 0.00140253 0 0)
(0.00653593 -0.000646691 0 0.00317736 0 0)
(0.00773222 -0.00140845 0 0.00283062 0 0)
(0.0114807 -0.000594079 0 0.00220053 0 0)
(0.0115644 -0.000241965 0 0.00227484 0 0)
(0.0130157 -0.000295275 0 0.00220164 0 0)
(0.0146059 -0.000337347 0 0.00235113 0 0)
(0.0160094 -0.000316205 0 0.00252037 0 0)
(0.0175291 -0.000682415 0 0.00228264 0 0)
(0.0198739 -8.13975e-06 0 0.00225197 0 0)
(0.0190491 -0.000158436 0 0.0021141 0 0)
(0.0223971 0.000162653 0 0.00217286 0 0)
(0.021179 -0.000153019 0 0.00217873 0 0)
(0.0262337 3.3627e-06 0 0.00208082 0 0)
(0.0244764 -6.56612e-05 0 0.00192377 0 0)
(0.0308729 0.000521511 0 0.00181747 0 0)
(0.0287633 0.000656227 0 0.00172738 0 0)
(0.0387024 0.00201571 0 0.00193858 0 0)
(0.0375339 0.0031328 0 0.00222583 0 0)
(0.0540318 0.00677194 0 0.0037532 0 0)
(0.00753464 -0.000382113 0 0.00104025 0 0)
(0.00323512 -0.000894666 0 0.0024979 0 0)
(0.00453573 -0.00153256 0 0.00230794 0 0)
(0.00604577 -0.00101735 0 0.00167084 0 0)
(0.00777944 -0.000509398 0 0.00174616 0 0)
(0.00762192 -0.000493541 0 0.00167328 0 0)
(0.00942083 -0.000599053 0 0.00190438 0 0)
(0.00975286 -0.000980832 0 0.00203483 0 0)
(0.0123136 -0.00101954 0 0.00188353 0 0)
(0.0125613 -0.00071159 0 0.0017711 0 0)
(0.014493 -0.000510783 0 0.00163555 0 0)
(0.0145456 -0.000460733 0 0.00161476 0 0)
(0.0165409 -0.000457004 0 0.00159878 0 0)
(0.0172048 -0.000683049 0 0.00148482 0 0)
(0.0195379 -0.000479197 0 0.00133745 0 0)
(0.0205153 -0.000380214 0 0.00118999 0 0)
(0.0234689 0.000199447 0 0.00106027 0 0)
(0.0264011 0.000854921 0 0.00108621 0 0)
(0.0314556 0.00245361 0 0.00125399 0 0)
(0.0391322 0.00498384 0 0.00206784 0 0)
(0.00921591 -0.000371136 0 0.000619749 0 0)
(0.00517428 -0.000258185 0 0.0016459 0 0)
(0.00532227 -0.000914443 0 0.00158148 0 0)
(0.00643638 -0.000689952 0 0.00117283 0 0)
(0.00848761 -0.000358607 0 0.00132259 0 0)
(0.00789988 -0.000157483 0 0.00119862 0 0)
(0.0101463 -0.000316865 0 0.00132385 0 0)
(0.00925263 -0.000371845 0 0.0014264 0 0)
(0.0112671 -0.000519929 0 0.00135644 0 0)
(0.009774 -0.000150998 0 0.00126237 0 0)
(0.0116866 -0.000143429 0 0.0011237 0 0)
(0.00983233 8.30516e-05 0 0.00105422 0 0)
(0.0114474 4.81126e-06 0 0.00099818 0 0)
(0.00947973 -7.78866e-06 0 0.000923514 0 0)
(0.0110925 -2.13631e-05 0 0.00081029 0 0)
(0.00939134 2.82192e-05 0 0.000732208 0 0)
(0.011361 0.000353037 0 0.000601847 0 0)
(0.0110839 0.000662953 0 0.00060815 0 0)
(0.0147351 0.00174564 0 0.000684194 0 0)
(0.0186315 0.002942 0 0.001139 0 0)
(0.00798232 -0.000591388 0 0.000385904 0 0)
(0.00421039 -2.64554e-06 0 0.00113267 0 0)
(0.0045941 -0.000333549 0 0.000967166 0 0)
(0.00616537 -0.000293112 0 0.000659929 0 0)
(0.00763345 -0.000102909 0 0.000789748 0 0)
(0.00667624 7.67138e-05 0 0.000750123 0 0)
(0.00749713 0.000147883 0 0.000780659 0 0)
(0.0059161 0.000464177 0 0.000791855 0 0)
(0.00570578 0.000468229 0 0.000721323 0 0)
(0.00464318 0.000801909 0 0.000648214 0 0)
(0.0042052 0.000702247 0 0.000569086 0 0)
(0.00411053 0.000934245 0 0.000525412 0 0)
(0.00334266 0.000765079 0 0.000488282 0 0)
(0.00413674 0.000899369 0 0.000454001 0 0)
(0.00330075 0.000600783 0 0.00039131 0 0)
(0.00488731 0.00076318 0 0.000368437 0 0)
(0.00432869 0.000430069 0 0.000306856 0 0)
(0.0065154 0.000777531 0 0.000312473 0 0)
(0.00721665 0.000708134 0 0.000418585 0 0)
(0.0105139 0.00150175 0 0.000583765 0 0)
(0.00640007 -0.00118636 0 0.000453452 0 0)
(0.00200632 -0.000348487 0 0.00115097 0 0)
(0.00217767 -4.90593e-05 0 0.000750204 0 0)
(0.00295842 0.000142971 0 0.000439519 0 0)
(0.00307828 0.000553006 0 0.000419584 0 0)
(0.00322553 0.000875055 0 0.000375519 0 0)
(0.0050297 0.00106488 0 0.000354972 0 0)
(0.00790747 0.0012582 0 0.000332803 0 0)
(0.00987819 0.00117444 0 0.000287115 0 0)
(0.0146145 0.00120898 0 0.000250443 0 0)
(0.015546 0.00103088 0 0.000217939 0 0)
(0.0215053 0.00106208 0 0.000202531 0 0)
(0.0208933 0.000868263 0 0.000194489 0 0)
(0.0277488 0.000920576 0 0.000181013 0 0)
(0.0258314 0.000559664 0 0.00016095 0 0)
(0.0327972 0.000704776 0 0.00015266 0 0)
(0.0301132 4.31393e-05 0 0.000135658 0 0)
(0.0352789 0.000518366 0 0.000144563 0 0)
(0.033303 -0.000412668 0 0.000198529 0 0)
(0.0346384 0.000960795 0 0.000373023 0 0)
(0.00565032 -0.00176819 0 0.000716594 0 0)
(0.000972701 0.000682483 0 0.000958508 0 0)
(0.00531045 0.00135566 0 0.000407337 0 0)
(0.0105528 0.00118996 0 0.000169798 0 0)
(0.0165658 0.00116445 0 0.000117929 0 0)
(0.024248 0.00105039 0 9.44675e-05 0 0)
(0.0315667 0.000881661 0 8.62146e-05 0 0)
(0.0393913 0.000754439 0 8.0441e-05 0 0)
(0.0441482 0.000606422 0 7.49536e-05 0 0)
(0.0510206 0.000540201 0 7.14043e-05 0 0)
(0.0532103 0.000441561 0 6.8501e-05 0 0)
(0.0597412 0.000438185 0 6.58963e-05 0 0)
(0.0598967 0.000346119 0 6.54935e-05 0 0)
(0.0665409 0.000368489 0 6.01061e-05 0 0)
(0.064982 0.000177461 0 5.51389e-05 0 0)
(0.0711604 0.000220234 0 4.97613e-05 0 0)
(0.0680011 -0.000183684 0 4.69968e-05 0 0)
(0.0711835 7.61217e-05 0 4.67765e-05 0 0)
(0.0686137 -0.000725777 0 6.85047e-05 0 0)
(0.0637797 0.000386625 0 0.000204439 0 0)
(0.00104767 -6.18198e-05 0 0.000119105 0 0)
(0.0200414 0.000779472 0 4.40267e-05 0 0)
(0.0391038 7.18457e-05 0 1.12237e-05 0 0)
(0.0486957 -0.000118986 0 5.1935e-06 0 0)
(0.0558255 -8.74708e-05 0 4.44952e-06 0 0)
(0.0612946 -6.73328e-05 0 4.87482e-06 0 0)
(0.0647973 -4.44388e-05 0 5.89297e-06 0 0)
(0.0677847 -1.966e-05 0 6.31938e-06 0 0)
(0.0694417 -1.08333e-05 0 6.98319e-06 0 0)
(0.0715786 4.51683e-07 0 7.05045e-06 0 0)
(0.0722863 -3.90609e-06 0 7.17411e-06 0 0)
(0.0740709 6.26978e-06 0 6.80766e-06 0 0)
(0.0741859 -6.98013e-06 0 6.61719e-06 0 0)
(0.0758421 2.53903e-06 0 5.86406e-06 0 0)
(0.0753021 -3.09458e-05 0 5.38378e-06 0 0)
(0.0764731 -2.74412e-05 0 4.48828e-06 0 0)
(0.0747738 -9.13178e-05 0 4.08403e-06 0 0)
(0.0743035 -7.50755e-05 0 3.59797e-06 0 0)
(0.07215 -0.000269159 0 4.55269e-06 0 0)
(0.0652847 0.000363267 0 2.60581e-05 0 0)
(0.310273 -0.14963 0 0.0931742 0 0)
(0.337657 -0.177377 0 0.130918 0 0)
(0.34322 -0.168586 0 0.155853 0 0)
(0.362885 -0.149067 0 0.173993 0 0)
(0.369526 -0.125544 0 0.184664 0 0)
(0.435495 -0.111679 0 0.192133 0 0)
(0.46763 -0.105774 0 0.199062 0 0)
(0.570121 -0.117593 0 0.209551 0 0)
(0.619395 -0.132214 0 0.221817 0 0)
(0.724397 -0.15459 0 0.234738 0 0)
(0.760972 -0.169409 0 0.248562 0 0)
(0.856563 -0.189525 0 0.26603 0 0)
(0.882928 -0.198327 0 0.284278 0 0)
(0.979954 -0.217136 0 0.30109 0 0)
(1.00929 -0.227545 0 0.312526 0 0)
(1.1144 -0.254472 0 0.322269 0 0)
(1.14359 -0.275266 0 0.334515 0 0)
(1.25799 -0.314632 0 0.35322 0 0)
(1.2863 -0.339078 0 0.378797 0 0)
(1.42874 -0.381405 0 0.411435 0 0)
(1.48278 -0.402852 0 0.439717 0 0)
(1.66196 -0.453142 0 0.470821 0 0)
(1.72709 -0.482424 0 0.501569 0 0)
(1.92262 -0.543868 0 0.536765 0 0)
(1.99263 -0.573652 0 0.571356 0 0)
(2.19588 -0.642114 0 0.612736 0 0)
(2.27869 -0.668718 0 0.65311 0 0)
(2.48719 -0.750654 0 0.699103 0 0)
(2.59306 -0.781914 0 0.745242 0 0)
(2.80524 -0.879462 0 0.800412 0 0)
(2.93619 -0.917647 0 0.857903 0 0)
(3.16356 -1.02706 0 0.921821 0 0)
(3.31279 -1.0719 0 0.984142 0 0)
(3.57138 -1.19644 0 1.05307 0 0)
(3.7192 -1.2489 0 1.11859 0 0)
(4.0052 -1.3896 0 1.19127 0 0)
(4.1188 -1.43689 0 1.25503 0 0)
(4.41633 -1.5852 0 1.32661 0 0)
(4.48178 -1.61596 0 1.38669 0 0)
(4.78147 -1.76441 0 1.45737 0 0)
(4.79267 -1.76511 0 1.51653 0 0)
(5.08315 -1.90998 0 1.58235 0 0)
(5.04804 -1.87958 0 1.63485 0 0)
(5.34002 -2.02112 0 1.69936 0 0)
(5.27922 -1.97837 0 1.75055 0 0)
(5.59558 -2.12464 0 1.81649 0 0)
(5.52798 -2.07842 0 1.86727 0 0)
(5.88394 -2.23075 0 1.94365 0 0)
(5.8147 -2.19249 0 1.99965 0 0)
(6.22238 -2.34781 0 2.08811 0 0)
(6.12808 -2.31773 0 2.15349 0 0)
(6.58871 -2.47742 0 2.25504 0 0)
(6.42221 -2.4342 0 2.33005 0 0)
(6.91555 -2.59388 0 2.43755 0 0)
(6.63725 -2.50771 0 2.50367 0 0)
(7.13875 -2.66109 0 2.60004 0 0)
(6.74204 -2.51894 0 2.63882 0 0)
(7.25497 -2.67071 0 2.71109 0 0)
(6.75768 -2.49371 0 2.72794 0 0)
(7.32264 -2.65779 0 2.78593 0 0)
(6.72538 -2.47687 0 2.80056 0 0)
(7.37971 -2.6613 0 2.86182 0 0)
(6.65888 -2.47798 0 2.8836 0 0)
(7.39181 -2.66999 0 2.95243 0 0)
(6.53889 -2.4571 0 2.96789 0 0)
(7.32822 -2.6302 0 3.02902 0 0)
(6.38644 -2.37989 0 3.00694 0 0)
(7.25128 -2.51035 0 3.02761 0 0)
(6.25932 -2.26066 0 2.98673 0 0)
(7.27192 -2.40748 0 3.02133 0 0)
(6.22563 -2.17725 0 3.01404 0 0)
(7.41213 -2.3647 0 3.06213 0 0)
(6.27583 -2.12809 0 3.06334 0 0)
(7.65233 -2.38845 0 3.12711 0 0)
(6.38615 -2.13302 0 3.16492 0 0)
(7.91844 -2.47323 0 3.2777 0 0)
(6.54191 -2.18051 0 3.35601 0 0)
(8.13993 -2.5698 0 3.52268 0 0)
(6.68166 -2.23813 0 3.61411 0 0)
(8.3084 -2.62822 0 3.8047 0 0)
(6.74122 -2.27434 0 3.88911 0 0)
(8.43507 -2.65607 0 4.05917 0 0)
(6.73428 -2.28694 0 4.10788 0 0)
(8.52596 -2.68237 0 4.25326 0 0)
(6.71038 -2.28291 0 4.26906 0 0)
(8.52278 -2.66721 0 4.40125 0 0)
(6.7207 -2.23733 0 4.40728 0 0)
(8.50955 -2.61456 0 4.57651 0 0)
(6.77939 -2.19382 0 4.59716 0 0)
(8.57851 -2.55126 0 4.76013 0 0)
(6.89069 -2.1674 0 4.78302 0 0)
(8.73555 -2.56754 0 4.96909 0 0)
(7.09417 -2.21083 0 5.02758 0 0)
(8.97473 -2.64581 0 5.24169 0 0)
(7.33972 -2.26871 0 5.30585 0 0)
(9.19281 -2.72531 0 5.54885 0 0)
(7.56742 -2.31801 0 5.63184 0 0)
(9.34879 -2.78097 0 5.92785 0 0)
(7.71746 -2.3411 0 6.02947 0 0)
(9.34052 -2.784 0 6.36719 0 0)
(7.72314 -2.31968 0 6.51696 0 0)
(9.26961 -2.78569 0 6.90632 0 0)
(7.60191 -2.29644 0 7.07559 0 0)
(9.17656 -2.7803 0 7.47126 0 0)
(7.41438 -2.26058 0 7.54496 0 0)
(9.0562 -2.76664 0 7.88295 0 0)
(7.22797 -2.1641 0 7.87291 0 0)
(8.91062 -2.66099 0 8.11367 0 0)
(7.11233 -2.00759 0 8.02298 0 0)
(8.77951 -2.52525 0 8.25969 0 0)
(7.07047 -1.89156 0 8.15006 0 0)
(8.66603 -2.42322 0 8.37778 0 0)
(7.09349 -1.79169 0 8.24941 0 0)
(8.59174 -2.31943 0 8.49205 0 0)
(7.15787 -1.65459 0 8.37197 0 0)
(8.49409 -2.1672 0 8.62864 0 0)
(7.20731 -1.53413 0 8.56522 0 0)
(8.37643 -2.02813 0 8.865 0 0)
(7.28223 -1.47075 0 8.86448 0 0)
(8.34032 -1.93592 0 9.20799 0 0)
(7.41472 -1.45805 0 9.27771 0 0)
(8.32976 -1.88107 0 9.62011 0 0)
(7.48762 -1.42719 0 9.72245 0 0)
(8.27053 -1.82415 0 10.0473 0 0)
(7.47057 -1.39939 0 10.1139 0 0)
(8.18556 -1.76676 0 10.3865 0 0)
(7.36266 -1.35019 0 10.4584 0 0)
(8.07103 -1.71811 0 10.7077 0 0)
(7.2863 -1.34158 0 10.7842 0 0)
(7.91899 -1.71492 0 10.978 0 0)
(7.30429 -1.42685 0 11.1313 0 0)
(7.80458 -1.73961 0 11.3482 0 0)
(7.40574 -1.5378 0 11.5196 0 0)
(7.76005 -1.7364 0 11.6899 0 0)
(7.52199 -1.62537 0 11.8441 0 0)
(7.7644 -1.71056 0 11.9747 0 0)
(7.65177 -1.64653 0 12.1153 0 0)
(7.84282 -1.6529 0 12.2888 0 0)
(7.76189 -1.61148 0 12.4778 0 0)
(7.93702 -1.57486 0 12.6371 0 0)
(7.83883 -1.54612 0 12.8323 0 0)
(7.95985 -1.46001 0 12.9166 0 0)
(7.91581 -1.45528 0 13.1187 0 0)
(7.89328 -1.30507 0 13.267 0 0)
(7.82823 -1.30494 0 13.4945 0 0)
(7.72386 -1.11841 0 13.5812 0 0)
(7.7103 -1.08688 0 13.6758 0 0)
(7.59023 -0.939252 0 13.7372 0 0)
(7.61045 -0.825825 0 13.8667 0 0)
(7.46426 -0.751161 0 13.9034 0 0)
(7.49557 -0.583549 0 13.9178 0 0)
(7.34565 -0.539515 0 13.8599 0 0)
(7.34965 -0.338621 0 13.869 0 0)
(7.24255 -0.322215 0 13.8315 0 0)
(7.2251 -0.144397 0 13.9119 0 0)
(7.12768 -0.162284 0 13.9003 0 0)
(7.15523 -0.0168353 0 14.0032 0 0)
(7.09775 -0.0254385 0 13.9457 0 0)
(7.11358 0.0719032 0 14.0475 0 0)
(6.97984 0.0344216 0 14.0284 0 0)
(6.98753 0.105861 0 14.1698 0 0)
(6.8148 0.0626722 0 14.1766 0 0)
(6.81162 0.104818 0 14.2563 0 0)
(6.67812 0.0510064 0 14.2167 0 0)
(6.74343 0.0776835 0 14.2164 0 0)
(6.59491 -0.0430978 0 14.1147 0 0)
(6.6974 0.0163023 0 14.1309 0 0)
(6.50233 -0.247003 0 14.0239 0 0)
(6.61545 -0.101225 0 13.9538 0 0)
(6.46895 -0.444888 0 13.7812 0 0)
(6.48341 -0.330931 0 13.64 0 0)
(6.49622 -0.704337 0 13.5357 0 0)
(6.29771 -0.53178 0 13.1451 0 0)
(6.60116 -1.00089 0 12.9096 0 0)
(6.22902 -0.607833 0 12.4605 0 0)
(6.61002 -1.09163 0 12.1924 0 0)
(6.27273 -0.633024 0 11.8205 0 0)
(6.65568 -1.0993 0 11.4013 0 0)
(6.32352 -0.698713 0 11.2209 0 0)
(6.67661 -0.994597 0 10.6569 0 0)
(6.3415 -0.795931 0 10.6714 0 0)
(6.58245 -0.871365 0 9.8671 0 0)
(6.21669 -0.912729 0 10.2132 0 0)
(6.39905 -0.720651 0 9.09062 0 0)
(6.0522 -0.99586 0 9.81353 0 0)
(6.15767 -0.46884 0 8.42402 0 0)
(5.86664 -1.04645 0 9.52617 0 0)
(5.81654 -0.162725 0 7.9496 0 0)
(5.56673 -0.985582 0 9.48476 0 0)
(5.46209 0.292335 0 7.78358 0 0)
(5.1578 -0.804083 0 9.74542 0 0)
(5.11001 0.859606 0 7.9235 0 0)
(4.69972 -0.485088 0 10.5498 0 0)
(4.55425 1.49635 0 8.56261 0 0)
(4.31422 0.0187686 0 12.0805 0 0)
(3.94695 2.4291 0 10.1263 0 0)
(3.81189 0.388007 0 14.395 0 0)
(3.09992 3.64241 0 13.0677 0 0)
(3.4552 2.31044 0 19.6708 0 0)
(1.12905 0.630478 0 21.5439 0 0)
(0.290744 -0.123723 0 0.105016 0 0)
(0.258281 -0.131956 0 0.13678 0 0)
(0.275894 -0.117782 0 0.144047 0 0)
(0.24236 -0.108103 0 0.148014 0 0)
(0.263982 -0.0946084 0 0.14781 0 0)
(0.260446 -0.0954505 0 0.147075 0 0)
(0.299197 -0.0991881 0 0.150169 0 0)
(0.313652 -0.115605 0 0.159022 0 0)
(0.363679 -0.126753 0 0.169155 0 0)
(0.37689 -0.144914 0 0.180007 0 0)
(0.424768 -0.153816 0 0.191482 0 0)
(0.43274 -0.171854 0 0.206344 0 0)
(0.481558 -0.179259 0 0.221331 0 0)
(0.498257 -0.198905 0 0.236898 0 0)
(0.556356 -0.207174 0 0.250325 0 0)
(0.593326 -0.234775 0 0.265093 0 0)
(0.664728 -0.251494 0 0.281012 0 0)
(0.724694 -0.293863 0 0.30162 0 0)
(0.803309 -0.316644 0 0.323432 0 0)
(0.876861 -0.365912 0 0.35026 0 0)
(0.955106 -0.386418 0 0.376268 0 0)
(1.0443 -0.439649 0 0.406201 0 0)
(1.12544 -0.45905 0 0.435241 0 0)
(1.2344 -0.520882 0 0.469401 0 0)
(1.31883 -0.539241 0 0.50267 0 0)
(1.45021 -0.610789 0 0.543798 0 0)
(1.54541 -0.629431 0 0.583801 0 0)
(1.70436 -0.713786 0 0.631851 0 0)
(1.81676 -0.73962 0 0.677366 0 0)
(2.00107 -0.8405 0 0.732702 0 0)
(2.12224 -0.875411 0 0.784492 0 0)
(2.32661 -0.990737 0 0.846226 0 0)
(2.43562 -1.02746 0 0.902274 0 0)
(2.6572 -1.15421 0 0.968461 0 0)
(2.73143 -1.18367 0 1.02673 0 0)
(2.96871 -1.32016 0 1.09514 0 0)
(2.98557 -1.32987 0 1.15385 0 0)
(3.2344 -1.47179 0 1.22097 0 0)
(3.18517 -1.45531 0 1.27822 0 0)
(3.45144 -1.60315 0 1.3425 0 0)
(3.34656 -1.55695 0 1.39583 0 0)
(3.63283 -1.70885 0 1.46106 0 0)
(3.49724 -1.64463 0 1.50941 0 0)
(3.81281 -1.79993 0 1.57798 0 0)
(3.66818 -1.7304 0 1.6254 0 0)
(4.01734 -1.89458 0 1.70457 0 0)
(3.8747 -1.82922 0 1.75607 0 0)
(4.25763 -2.00138 0 1.84466 0 0)
(4.1013 -1.93652 0 1.9008 0 0)
(4.51827 -2.11421 0 1.99462 0 0)
(4.31203 -2.03199 0 2.0537 0 0)
(4.7659 -2.21652 0 2.14976 0 0)
(4.47574 -2.09396 0 2.20569 0 0)
(4.96249 -2.28322 0 2.2976 0 0)
(4.57521 -2.10418 0 2.34311 0 0)
(5.09219 -2.30185 0 2.42224 0 0)
(4.62597 -2.07165 0 2.45096 0 0)
(5.17611 -2.2851 0 2.5206 0 0)
(4.66679 -2.03543 0 2.53655 0 0)
(5.25666 -2.26666 0 2.61359 0 0)
(4.71653 -2.0326 0 2.62828 0 0)
(5.35375 -2.26321 0 2.71105 0 0)
(4.76048 -2.04934 0 2.72108 0 0)
(5.44199 -2.24679 0 2.79366 0 0)
(4.76069 -2.03054 0 2.78765 0 0)
(5.4936 -2.18459 0 2.82918 0 0)
(4.71039 -1.9475 0 2.79858 0 0)
(5.54448 -2.09869 0 2.82698 0 0)
(4.68169 -1.85891 0 2.80815 0 0)
(5.65296 -2.05736 0 2.86644 0 0)
(4.72079 -1.80718 0 2.86235 0 0)
(5.84055 -2.05683 0 2.94214 0 0)
(4.83913 -1.78591 0 2.94593 0 0)
(6.09082 -2.10815 0 3.04637 0 0)
(5.02058 -1.80829 0 3.07789 0 0)
(6.35162 -2.20348 0 3.22117 0 0)
(5.22442 -1.86676 0 3.2904 0 0)
(6.56282 -2.29205 0 3.4785 0 0)
(5.37602 -1.90393 0 3.55381 0 0)
(6.69647 -2.32365 0 3.75042 0 0)
(5.4356 -1.91312 0 3.8168 0 0)
(6.79801 -2.33571 0 3.99648 0 0)
(5.47543 -1.91316 0 4.03812 0 0)
(6.87253 -2.33568 0 4.1841 0 0)
(5.54639 -1.92263 0 4.18294 0 0)
(6.94689 -2.30827 0 4.32776 0 0)
(5.65405 -1.92867 0 4.33981 0 0)
(7.05812 -2.2726 0 4.50703 0 0)
(5.81532 -1.90512 0 4.51482 0 0)
(7.24873 -2.23316 0 4.69223 0 0)
(6.02212 -1.91179 0 4.73315 0 0)
(7.50807 -2.28724 0 4.94418 0 0)
(6.26958 -1.95394 0 5.00937 0 0)
(7.80389 -2.364 0 5.23671 0 0)
(6.54354 -1.99499 0 5.29136 0 0)
(8.07672 -2.45342 0 5.54539 0 0)
(6.80575 -2.02579 0 5.62202 0 0)
(8.29076 -2.49842 0 5.91806 0 0)
(7.007 -2.03434 0 6.01622 0 0)
(8.39903 -2.52103 0 6.38114 0 0)
(7.08022 -2.01208 0 6.52044 0 0)
(8.40283 -2.52671 0 6.93888 0 0)
(7.00095 -1.9554 0 7.06844 0 0)
(8.32441 -2.47882 0 7.45963 0 0)
(6.81062 -1.87511 0 7.46812 0 0)
(8.16366 -2.39942 0 7.80261 0 0)
(6.60982 -1.73801 0 7.74166 0 0)
(8.01271 -2.25898 0 8.02386 0 0)
(6.505 -1.58876 0 7.91626 0 0)
(7.97036 -2.12395 0 8.18384 0 0)
(6.50749 -1.46246 0 8.06155 0 0)
(8.00499 -1.99481 0 8.3177 0 0)
(6.6371 -1.3449 0 8.17537 0 0)
(8.07792 -1.86005 0 8.44324 0 0)
(6.80961 -1.26134 0 8.32459 0 0)
(8.1073 -1.77489 0 8.58455 0 0)
(7.02366 -1.23867 0 8.53197 0 0)
(8.16903 -1.72197 0 8.83747 0 0)
(7.24096 -1.2407 0 8.87731 0 0)
(8.27836 -1.69606 0 9.23178 0 0)
(7.39606 -1.26083 0 9.30778 0 0)
(8.34034 -1.66759 0 9.66945 0 0)
(7.41823 -1.23083 0 9.75099 0 0)
(8.31948 -1.62011 0 10.0982 0 0)
(7.35831 -1.16382 0 10.1774 0 0)
(8.27544 -1.57589 0 10.4551 0 0)
(7.33069 -1.13368 0 10.5286 0 0)
(8.23029 -1.57035 0 10.7656 0 0)
(7.39005 -1.22201 0 10.8825 0 0)
(8.19387 -1.63459 0 11.0716 0 0)
(7.47293 -1.4197 0 11.2246 0 0)
(8.16159 -1.7051 0 11.4208 0 0)
(7.58049 -1.57588 0 11.6047 0 0)
(8.16168 -1.72351 0 11.7957 0 0)
(7.73406 -1.67241 0 11.9777 0 0)
(8.30843 -1.72791 0 12.0814 0 0)
(7.95868 -1.72386 0 12.2305 0 0)
(8.48015 -1.69763 0 12.3732 0 0)
(8.12571 -1.72564 0 12.5999 0 0)
(8.57502 -1.60908 0 12.7523 0 0)
(8.19361 -1.61499 0 12.9894 0 0)
(8.56225 -1.47143 0 13.0579 0 0)
(8.16682 -1.46965 0 13.2879 0 0)
(8.41437 -1.25652 0 13.4154 0 0)
(7.96456 -1.23981 0 13.6855 0 0)
(8.21585 -0.990618 0 13.7199 0 0)
(7.73743 -1.01436 0 13.9071 0 0)
(8.02399 -0.768104 0 13.9332 0 0)
(7.48891 -0.783077 0 14.0728 0 0)
(7.7652 -0.554721 0 14.0827 0 0)
(7.35516 -0.468188 0 14.128 0 0)
(7.567 -0.364151 0 14.002 0 0)
(7.29284 -0.247614 0 14.0404 0 0)
(7.48591 -0.191468 0 14.0774 0 0)
(7.24536 -0.0998091 0 14.1338 0 0)
(7.43092 -0.110159 0 14.1278 0 0)
(7.24388 0.0378355 0 14.2178 0 0)
(7.38029 -0.00808158 0 14.2347 0 0)
(7.21337 0.126512 0 14.2624 0 0)
(7.22114 0.0491259 0 14.3838 0 0)
(7.12784 0.201288 0 14.4064 0 0)
(7.04987 0.0556112 0 14.4564 0 0)
(7.00311 0.202427 0 14.5252 0 0)
(6.91056 0.064392 0 14.5057 0 0)
(6.87449 0.172857 0 14.538 0 0)
(6.76899 -0.0412689 0 14.4413 0 0)
(6.7764 0.123502 0 14.5364 0 0)
(6.66008 -0.169906 0 14.4288 0 0)
(6.71153 0.0123171 0 14.2938 0 0)
(6.59665 -0.339839 0 14.285 0 0)
(6.52577 -0.101975 0 14.1061 0 0)
(6.51585 -0.626625 0 13.9711 0 0)
(6.39302 -0.206972 0 13.6188 0 0)
(6.35871 -0.872022 0 13.3219 0 0)
(6.43659 -0.336988 0 12.8243 0 0)
(6.24808 -1.05103 0 12.4127 0 0)
(6.55284 -0.475504 0 12.1352 0 0)
(6.22314 -1.13661 0 11.6313 0 0)
(6.59597 -0.727663 0 11.5395 0 0)
(6.26264 -1.09245 0 10.8218 0 0)
(6.57181 -0.953722 0 11.14 0 0)
(6.23488 -1.00152 0 10.0471 0 0)
(6.4578 -1.2226 0 10.7626 0 0)
(6.0544 -0.833553 0 9.24822 0 0)
(6.27488 -1.50615 0 10.3702 0 0)
(5.85544 -0.557139 0 8.47337 0 0)
(6.00267 -1.65721 0 10.1318 0 0)
(5.74688 -0.237995 0 7.84427 0 0)