/*--------------------------------*- C++ -*----------------------------------*\
| =========                 |                                                 |
| \\      /  F ield         | OpenFOAM: The Open Source CFD Toolbox           |
|  \\    /   O peration     | Version:  2.4.0                                 |
|   \\  /    A nd           | Web:      www.OpenFOAM.org                      |
|    \\/     M anipulation  |                                                 |
\*---------------------------------------------------------------------------*/
FoamFile
{
    version     2.0;
    format      ascii;
    class       surfaceScalarField;
    location    "1.65";
    object      phi_0;
}
// * * * * * * * * * * * * * * * * * * * * * * * * * * * * * * * * * * * * * //

dimensions      [0 3 -1 0 0 0 0];

internalField   nonuniform List<scalar> 
17320
(
1.76387e-05
7.36126e-06
1.1619e-05
6.01971e-06
8.68139e-06
2.93764e-06
7.35535e-06
1.32604e-06
6.72118e-06
6.34166e-07
6.34107e-06
3.80114e-07
6.07709e-06
2.63974e-07
5.87483e-06
2.02266e-07
5.70274e-06
1.72089e-07
5.5875e-06
1.15237e-07
5.4786e-06
1.08897e-07
5.39182e-06
8.67886e-08
5.30741e-06
8.44043e-08
5.23869e-06
6.87259e-08
5.13272e-06
1.05968e-07
5.09882e-06
3.38979e-08
4.98976e-06
1.09058e-07
5.02432e-06
-3.45615e-08
4.76638e-06
2.57938e-07
-6.8158e-07
5.44796e-06
2.54643e-05
6.89694e-06
2.32483e-05
8.23569e-06
2.09897e-05
5.19625e-06
1.932e-05
2.99582e-06
1.80792e-05
1.87497e-06
1.71101e-05
1.3492e-06
1.63687e-05
1.00531e-06
1.5776e-05
7.94956e-07
1.5305e-05
6.43091e-07
1.49409e-05
4.79329e-07
1.46328e-05
4.17067e-07
1.43809e-05
3.38676e-07
1.4151e-05
3.1429e-07
1.39583e-05
2.61469e-07
1.37262e-05
3.38001e-07
1.3602e-05
1.58145e-07
1.3356e-05
3.55084e-07
1.33393e-05
-1.79045e-08
1.31553e-05
4.41934e-07
-1.02489e-06
1.34986e-05
2.66255e-05
5.2714e-06
2.7152e-05
7.70919e-06
2.67798e-05
5.56853e-06
2.62534e-05
3.52221e-06
2.56099e-05
2.51842e-06
2.48702e-05
2.08893e-06
2.41682e-05
1.70733e-06
2.35019e-05
1.46125e-06
2.29339e-05
1.21102e-06
2.2452e-05
9.61235e-07
2.20317e-05
8.37366e-07
2.16833e-05
6.87098e-07
2.13612e-05
6.36379e-07
2.10906e-05
5.32122e-07
2.07924e-05
6.36185e-07
2.05929e-05
3.57607e-07
2.02999e-05
6.48122e-07
2.01862e-05
9.57792e-08
2.01132e-05
5.1495e-07
-1.52372e-06
2.0612e-05
2.63332e-05
3.93822e-06
2.75377e-05
6.50467e-06
2.80789e-05
5.02731e-06
2.84574e-05
3.14369e-06
2.86525e-05
2.32336e-06
2.8621e-05
2.12047e-06
2.84898e-05
1.83856e-06
2.82322e-05
1.71881e-06
2.79705e-05
1.47268e-06
2.77029e-05
1.22889e-06
2.74207e-05
1.11955e-06
2.71748e-05
9.33019e-07
2.69228e-05
8.88354e-07
2.66777e-05
7.7722e-07
2.644e-05
8.73905e-07
2.62155e-05
5.8204e-07
2.59778e-05
8.8587e-07
2.57151e-05
3.58493e-07
2.56194e-05
6.10609e-07
-1.05536e-06
2.51511e-05
2.60513e-05
2.8869e-06
2.72511e-05
5.30488e-06
2.80183e-05
4.26007e-06
2.84975e-05
2.66454e-06
2.89925e-05
1.82834e-06
2.93216e-05
1.79141e-06
2.96009e-05
1.55918e-06
2.97361e-05
1.58365e-06
2.98497e-05
1.35911e-06
2.99235e-05
1.15507e-06
2.99475e-05
1.09555e-06
2.9955e-05
9.25499e-07
2.99754e-05
8.67973e-07
2.98999e-05
8.52665e-07
2.99023e-05
8.71586e-07
2.98027e-05
6.81615e-07
2.97385e-05
9.5007e-07
2.94246e-05
6.72424e-07
2.94668e-05
5.68379e-07
-5.694e-07
2.89808e-05
2.58126e-05
2.0743e-06
2.69793e-05
4.13823e-06
2.7828e-05
3.41134e-06
2.82312e-05
2.26129e-06
2.87305e-05
1.32902e-06
2.90843e-05
1.43763e-06
2.94546e-05
1.18887e-06
2.96853e-05
1.35297e-06
3.00236e-05
1.02081e-06
3.01885e-05
9.90157e-07
3.0412e-05
8.72098e-07
3.04912e-05
8.4628e-07
3.07613e-05
5.97889e-07
3.07654e-05
8.4854e-07
3.1023e-05
6.1403e-07
3.1022e-05
6.82627e-07
3.12035e-05
7.68528e-07
3.09204e-05
9.55492e-07
3.12061e-05
2.82734e-07
1.58066e-07
3.04786e-05
2.56826e-05
1.39167e-06
2.68131e-05
3.0078e-06
2.75916e-05
2.63276e-06
2.79626e-05
1.89034e-06
2.85124e-05
7.79173e-07
2.88841e-05
1.06596e-06
2.92134e-05
8.59611e-07
2.9427e-05
1.13934e-06
2.98489e-05
5.98899e-07
2.99454e-05
8.93663e-07
3.02501e-05
5.67376e-07
3.03457e-05
7.50735e-07
3.0679e-05
2.64579e-07
3.06986e-05
8.28938e-07
3.10429e-05
2.69702e-07
3.10099e-05
7.15606e-07
3.13352e-05
4.43248e-07
3.12505e-05
1.04021e-06
3.127e-05
2.63219e-07
1.81895e-06
2.96091e-05
2.55927e-05
7.98975e-07
2.65832e-05
2.01732e-06
2.73812e-05
1.8347e-06
2.80076e-05
1.26398e-06
2.83817e-05
4.0501e-07
2.86876e-05
7.60085e-07
2.90009e-05
5.46292e-07
2.9285e-05
8.55226e-07
2.95501e-05
3.33828e-07
2.98194e-05
6.24341e-07
3.01021e-05
2.84685e-07
3.02775e-05
5.75378e-07
3.04358e-05
1.06301e-07
3.06969e-05
5.67754e-07
3.07643e-05
2.02316e-07
3.08884e-05
5.91552e-07
3.11248e-05
2.06868e-07
3.16616e-05
5.03327e-07
3.15879e-05
3.36968e-07
1.45601e-06
3.19508e-05
2.5448e-05
3.50951e-07
2.6437e-05
1.0284e-06
2.73755e-05
8.96146e-07
2.79612e-05
6.78312e-07
2.81792e-05
1.87002e-07
2.85571e-05
3.82187e-07
2.89357e-05
1.67647e-07
2.92082e-05
5.82754e-07
2.9424e-05
1.17988e-07
2.97834e-05
2.65007e-07
2.99612e-05
1.06812e-07
3.01668e-05
3.69803e-07
3.02921e-05
-1.89491e-08
3.05337e-05
3.26157e-07
3.0539e-05
1.96988e-07
3.09448e-05
1.85757e-07
3.12277e-05
-7.60724e-08
3.12926e-05
4.38455e-07
3.12537e-05
3.75853e-07
1.17267e-07
3.25925e-05
2.54192e-05
-6.82543e-08
2.64426e-05
5.02331e-09
2.73045e-05
3.42533e-08
2.78566e-05
1.26205e-07
2.8151e-05
-1.07406e-07
2.85555e-05
-2.23013e-08
2.88465e-05
-1.23388e-07
2.9186e-05
2.43307e-07
2.94327e-05
-1.28723e-07
2.96838e-05
1.3897e-08
2.98475e-05
-5.69503e-08
3.0112e-05
1.05313e-07
3.02111e-05
-1.17976e-07
3.04294e-05
1.07792e-07
3.06781e-05
-5.17384e-08
3.09893e-05
-1.25374e-07
3.105e-05
-1.36788e-07
3.11759e-05
3.12541e-07
3.17551e-05
-2.03379e-07
-5.53372e-07
3.24258e-05
2.5418e-05
-4.86219e-07
2.63977e-05
-9.74751e-07
2.72548e-05
-8.22848e-07
2.79341e-05
-5.53097e-07
2.82159e-05
-3.89138e-07
2.85019e-05
-3.08334e-07
2.87844e-05
-4.05902e-07
2.92195e-05
-1.91781e-07
2.94046e-05
-3.13843e-07
2.96684e-05
-2.49837e-07
2.98799e-05
-2.68494e-07
3.01462e-05
-1.60979e-07
3.0169e-05
-1.40808e-07
3.05093e-05
-2.32441e-07
3.07098e-05
-2.52283e-07
3.07963e-05
-2.11867e-07
3.10059e-05
-3.46356e-07
3.15065e-05
-1.8807e-07
3.1688e-05
-3.84952e-07
-3.62755e-07
3.14974e-05
2.54493e-05
-9.35561e-07
2.64517e-05
-1.97706e-06
2.7331e-05
-1.70222e-06
2.79746e-05
-1.19669e-06
2.82378e-05
-6.52273e-07
2.85368e-05
-6.07405e-07
2.88691e-05
-7.38125e-07
2.92484e-05
-5.71085e-07
2.94656e-05
-5.3108e-07
2.976e-05
-5.44282e-07
2.99205e-05
-4.28984e-07
3.01503e-05
-3.90706e-07
3.02936e-05
-2.84196e-07
3.05369e-05
-4.75677e-07
3.07186e-05
-4.34036e-07
3.0862e-05
-3.55256e-07
3.11429e-05
-6.27202e-07
3.14901e-05
-5.35326e-07
3.15121e-05
-4.06881e-07
-4.85898e-07
3.16352e-05
2.55402e-05
-1.47577e-06
2.6602e-05
-3.03883e-06
2.74196e-05
-2.51989e-06
2.80036e-05
-1.78064e-06
2.83266e-05
-9.75275e-07
2.86979e-05
-9.7867e-07
2.89984e-05
-1.03865e-06
2.93186e-05
-8.91317e-07
2.95773e-05
-7.89778e-07
2.98687e-05
-8.35682e-07
2.99618e-05
-5.22033e-07
3.02556e-05
-6.84531e-07
3.04588e-05
-4.87449e-07
3.06163e-05
-6.33131e-07
3.08097e-05
-6.27437e-07
3.10892e-05
-6.34733e-07
3.11398e-05
-6.77777e-07
3.14481e-05
-8.43707e-07
3.18644e-05
-8.23141e-07
-8.19577e-07
3.21981e-05
2.56772e-05
-2.15297e-06
2.67334e-05
-4.09507e-06
2.75752e-05
-3.36167e-06
2.8077e-05
-2.28243e-06
2.84916e-05
-1.38992e-06
2.88621e-05
-1.3491e-06
2.91623e-05
-1.33884e-06
2.9475e-05
-1.20405e-06
2.97476e-05
-1.0624e-06
3.00064e-05
-1.09447e-06
3.02008e-05
-7.16484e-07
3.04505e-05
-9.34145e-07
3.06047e-05
-6.41715e-07
3.07976e-05
-8.26031e-07
3.09383e-05
-7.68066e-07
3.1182e-05
-8.78493e-07
3.13076e-05
-8.03355e-07
3.16549e-05
-1.19103e-06
3.19514e-05
-1.11959e-06
-1.06072e-06
3.21925e-05
2.58355e-05
-2.98845e-06
2.69414e-05
-5.201e-06
2.7812e-05
-4.23225e-06
2.82563e-05
-2.72671e-06
2.87081e-05
-1.84176e-06
2.90931e-05
-1.73405e-06
2.94237e-05
-1.66946e-06
2.97119e-05
-1.49233e-06
2.99823e-05
-1.33271e-06
3.01772e-05
-1.28936e-06
3.03936e-05
-9.32894e-07
3.05486e-05
-1.08919e-06
3.07079e-05
-8.01e-07
3.08554e-05
-9.73511e-07
3.09376e-05
-8.50279e-07
3.1091e-05
-1.03189e-06
3.12169e-05
-9.29244e-07
3.13743e-05
-1.34845e-06
3.14902e-05
-1.23553e-06
-1.4415e-06
3.1871e-05
2.60277e-05
-4.0162e-06
2.72367e-05
-6.40996e-06
2.8047e-05
-5.04258e-06
2.85021e-05
-3.18173e-06
2.89698e-05
-2.30951e-06
2.93201e-05
-2.08434e-06
2.95708e-05
-1.92013e-06
2.97294e-05
-1.65098e-06
2.98544e-05
-1.45768e-06
2.98942e-05
-1.32916e-06
2.99708e-05
-1.00946e-06
2.99434e-05
-1.06177e-06
2.99616e-05
-8.19274e-07
2.99068e-05
-9.18655e-07
2.98558e-05
-7.99261e-07
2.97757e-05
-9.51842e-07
2.96894e-05
-8.4298e-07
2.96054e-05
-1.2644e-06
2.95172e-05
-1.1473e-06
-1.52903e-06
2.96047e-05
2.63012e-05
-5.31736e-06
2.75467e-05
-7.65552e-06
2.80826e-05
-5.57847e-06
2.84424e-05
-3.54155e-06
2.86408e-05
-2.50784e-06
2.86232e-05
-2.06678e-06
2.84604e-05
-1.75736e-06
2.82349e-05
-1.42548e-06
2.79685e-05
-1.1912e-06
2.76782e-05
-1.03895e-06
2.74385e-05
-7.69753e-07
2.71422e-05
-7.65391e-07
2.6917e-05
-5.94078e-07
2.66422e-05
-6.43917e-07
2.64052e-05
-5.62249e-07
2.6125e-05
-6.71596e-07
2.58796e-05
-5.97591e-07
2.55395e-05
-9.24343e-07
2.5288e-05
-8.95779e-07
-1.34977e-06
2.51087e-05
2.6602e-05
-6.91933e-06
2.71627e-05
-8.21627e-06
2.67776e-05
-5.19335e-06
2.62412e-05
-3.00519e-06
2.56038e-05
-1.87038e-06
2.48733e-05
-1.3363e-06
2.41475e-05
-1.03153e-06
2.35075e-05
-7.85533e-07
2.29322e-05
-6.15931e-07
2.24323e-05
-5.38963e-07
2.2036e-05
-3.73493e-07
2.16521e-05
-3.81517e-07
2.13516e-05
-2.9355e-07
2.10369e-05
-3.29234e-07
2.07649e-05
-2.90276e-07
2.04565e-05
-3.63143e-07
2.01853e-05
-3.26381e-07
1.97654e-05
-5.04437e-07
1.93819e-05
-5.12313e-07
-4.87069e-07
1.85192e-05
2.54487e-05
-7.36807e-06
2.32485e-05
-6.01605e-06
2.09869e-05
-2.93172e-06
1.93131e-05
-1.33135e-06
1.80771e-05
-6.34407e-07
1.71134e-05
-3.72662e-07
1.63564e-05
-2.74512e-07
1.5775e-05
-2.04109e-07
1.53102e-05
-1.51157e-07
1.49198e-05
-1.4854e-07
1.46328e-05
-8.64537e-08
1.43555e-05
-1.04267e-07
1.41387e-05
-7.66937e-08
1.39058e-05
-9.63575e-08
1.37009e-05
-8.53564e-08
1.34566e-05
-1.18839e-07
1.32317e-05
-1.01484e-07
1.28969e-05
-1.69675e-07
1.26083e-05
-2.23724e-07
-8.08329e-08
1.22021e-05
1.76319e-05
1.16159e-05
8.68416e-06
7.35281e-06
6.7184e-06
6.34574e-06
6.07123e-06
5.86712e-06
5.71596e-06
5.56742e-06
5.48097e-06
5.3767e-06
5.30001e-06
5.20365e-06
5.11829e-06
4.99945e-06
4.89797e-06
4.7283e-06
4.50457e-06
4.42374e-06
5.84558e-06
-3.3826e-07
-5.93532e-08
6.13644e-06
-2.24187e-08
-2.68442e-07
6.3555e-06
1.97168e-07
-4.1623e-07
6.5946e-06
2.6352e-07
-5.02626e-07
6.91624e-06
1.7783e-07
-4.99467e-07
7.2665e-06
5.51573e-08
-4.0542e-07
7.57513e-06
-4.18395e-08
-2.66787e-07
7.86252e-06
-1.70674e-07
-1.16723e-07
8.0719e-06
-2.02503e-07
-6.87363e-09
8.24024e-06
-2.3561e-07
6.72737e-08
8.37428e-06
-2.21262e-07
8.72228e-08
8.47768e-06
-1.9111e-07
8.77042e-08
8.58851e-06
-1.86888e-07
7.60563e-08
8.68937e-06
-1.5757e-07
5.67081e-08
8.80788e-06
-1.70946e-07
5.24361e-08
8.94615e-06
-1.72285e-07
3.40204e-08
9.08874e-06
-1.65287e-07
2.2694e-08
9.2573e-06
-1.56703e-07
-1.18579e-08
9.4444e-06
-1.27688e-07
-5.94084e-08
9.63196e-06
-8.38228e-08
-1.03739e-07
9.83932e-06
-5.92647e-08
-1.48094e-07
1.00433e-05
-1.13879e-09
-2.02853e-07
1.02507e-05
4.57338e-08
-2.531e-07
1.04974e-05
7.12558e-08
-3.18001e-07
1.07214e-05
1.65919e-07
-3.89916e-07
1.09976e-05
1.80062e-07
-4.56226e-07
1.12946e-05
2.3095e-07
-5.27956e-07
1.15984e-05
2.85974e-07
-5.89795e-07
1.19705e-05
2.98167e-07
-6.70259e-07
1.23645e-05
3.15326e-07
-7.09347e-07
1.2791e-05
2.55186e-07
-6.81638e-07
1.32605e-05
2.73622e-07
-7.43122e-07
1.3767e-05
1.6056e-07
-6.67097e-07
1.43384e-05
4.56553e-09
-5.75956e-07
1.49042e-05
-7.86015e-08
-4.87156e-07
1.54868e-05
-3.61107e-07
-2.21508e-07
1.61204e-05
-6.3804e-07
4.3717e-09
1.66864e-05
-9.25021e-07
3.59016e-07
1.72146e-05
-1.37599e-06
8.4786e-07
1.78493e-05
-1.68591e-06
1.05119e-06
1.84516e-05
-2.10327e-06
1.501e-06
1.89904e-05
-2.6371e-06
2.09832e-06
1.96243e-05
-3.0216e-06
2.38764e-06
2.02536e-05
-3.37884e-06
2.74955e-06
2.0945e-05
-3.86018e-06
3.16873e-06
2.16279e-05
-4.31894e-06
3.63604e-06
2.23296e-05
-4.7401e-06
4.03849e-06
2.33203e-05
-5.1733e-06
4.18258e-06
2.41158e-05
-5.6545e-06
4.859e-06
2.50038e-05
-6.44539e-06
5.55739e-06
2.59475e-05
-6.93788e-06
5.99415e-06
2.64764e-05
-7.77091e-06
7.24198e-06
2.7449e-05
-9.16853e-06
8.19591e-06
2.796e-05
-9.77289e-06
9.26192e-06
2.72386e-05
-1.04117e-05
1.11332e-05
2.7037e-05
-1.13808e-05
1.15824e-05
2.6598e-05
-1.14264e-05
1.18654e-05
2.53504e-05
-1.11622e-05
1.24098e-05
2.44865e-05
-1.04177e-05
1.12817e-05
2.31757e-05
-9.01379e-06
1.03246e-05
2.20804e-05
-7.95861e-06
9.05385e-06
2.18602e-05
-6.22982e-06
6.45005e-06
2.10432e-05
-4.10437e-06
4.92138e-06
2.02614e-05
-2.946e-06
3.72779e-06
2.08753e-05
-1.88358e-06
1.26973e-06
2.16723e-05
2.40138e-07
-1.03718e-06
2.13477e-05
2.41735e-06
-2.09275e-06
2.07508e-05
2.96057e-06
-2.36364e-06
2.11825e-05
2.44711e-06
-2.8788e-06
2.2698e-05
2.76252e-06
-4.27809e-06
2.46189e-05
3.91699e-06
-5.83784e-06
2.64139e-05
4.90285e-06
-6.69787e-06
2.78647e-05
5.46942e-06
-6.92025e-06
2.89913e-05
5.61577e-06
-6.74239e-06
2.9697e-05
5.27586e-06
-5.98157e-06
3.00059e-05
4.63153e-06
-4.94038e-06
3.03289e-05
3.27487e-06
-3.59789e-06
3.05495e-05
1.3253e-06
-1.54587e-06
3.05972e-05
-7.14175e-07
6.6645e-07
3.08849e-05
-2.90051e-06
2.61279e-06
3.12101e-05
-5.04506e-06
4.71991e-06
3.14334e-05
-7.01382e-06
6.79051e-06
3.16456e-05
-9.00777e-06
8.79557e-06
3.17754e-05
-1.10244e-05
1.08946e-05
3.21293e-05
-1.29757e-05
1.26218e-05
3.27835e-05
-1.51914e-05
1.45372e-05
3.35222e-05
-1.74844e-05
1.67458e-05
3.41023e-05
-1.92963e-05
1.87162e-05
3.41636e-05
-2.05546e-05
2.04933e-05
3.37436e-05
-2.10975e-05
2.15174e-05
3.31312e-05
-2.11287e-05
2.17411e-05
3.25799e-05
-2.11648e-05
2.17161e-05
3.22417e-05
-2.11721e-05
2.15104e-05
3.18608e-05
-2.07936e-05
2.11744e-05
3.12449e-05
-1.99166e-05
2.05324e-05
3.03183e-05
-1.87411e-05
1.96677e-05
2.91657e-05
-1.71531e-05
1.83058e-05
2.79425e-05
-1.53021e-05
1.65253e-05
2.66728e-05
-1.33446e-05
1.46142e-05
2.55284e-05
-1.13077e-05
1.24521e-05
2.42762e-05
-9.37529e-06
1.06275e-05
2.31979e-05
-7.28921e-06
8.36745e-06
2.261e-05
-5.98826e-06
6.57622e-06
2.23769e-05
-5.08291e-06
5.31594e-06
2.21771e-05
-4.03264e-06
4.23248e-06
2.20861e-05
-3.62426e-06
3.71531e-06
2.22704e-05
-2.95028e-06
2.76592e-06
2.25578e-05
-2.37354e-06
2.08618e-06
2.30768e-05
-1.91904e-06
1.40005e-06
2.38101e-05
-1.00905e-06
2.7568e-07
2.45896e-05
-3.87489e-07
-3.92025e-07
2.53551e-05
7.93119e-07
-1.55856e-06
2.58708e-05
2.4292e-06
-2.94491e-06
2.64949e-05
3.4328e-06
-4.05686e-06
2.69112e-05
5.29013e-06
-5.70645e-06
2.68916e-05
7.05067e-06
-7.03106e-06
2.69787e-05
8.27035e-06
-8.35747e-06
2.68554e-05
9.987e-06
-9.86375e-06
2.6155e-05
1.14663e-05
-1.07659e-05
2.5701e-05
1.26219e-05
-1.21679e-05
2.49231e-05
1.41302e-05
-1.33522e-05
2.3758e-05
1.49184e-05
-1.37533e-05
2.27159e-05
1.56251e-05
-1.4583e-05
2.1736e-05
1.61783e-05
-1.51983e-05
2.06596e-05
1.65904e-05
-1.5514e-05
1.93994e-05
1.67586e-05
-1.54984e-05
1.83704e-05
1.58757e-05
-1.48467e-05
1.79563e-05
1.50821e-05
-1.46681e-05
1.77954e-05
1.60914e-05
-1.59304e-05
1.76215e-05
1.70698e-05
-1.68959e-05
1.70338e-05
1.745e-05
-1.68623e-05
1.60242e-05
1.61545e-05
-1.51449e-05
1.52397e-05
1.43717e-05
-1.35872e-05
1.45033e-05
1.29726e-05
-1.22362e-05
1.38234e-05
1.16499e-05
-1.097e-05
1.37732e-05
1.19803e-05
-1.19301e-05
1.45503e-05
9.83299e-06
-1.061e-05
1.51351e-05
1.41274e-05
-1.47123e-05
1.53912e-05
1.11356e-05
-1.13916e-05
1.68095e-05
1.3134e-05
-1.45523e-05
1.6739e-05
1.23213e-05
-1.22508e-05
1.75591e-05
1.0727e-05
-1.15472e-05
1.85649e-05
8.18405e-06
-9.18984e-06
1.90699e-05
7.91755e-06
-8.42254e-06
1.99398e-05
5.26478e-06
-6.13462e-06
2.05919e-05
3.21385e-06
-3.866e-06
2.052e-05
2.61634e-06
-2.54447e-06
2.05175e-05
1.35389e-06
-1.35136e-06
2.1443e-05
-1.33557e-06
4.10099e-07
2.20157e-05
-3.19575e-06
2.62306e-06
2.16044e-05
-5.97341e-06
6.38468e-06
2.08776e-05
-5.70685e-06
6.43363e-06
1.97295e-05
-5.62225e-06
6.77039e-06
2.00523e-05
-6.6751e-06
6.35226e-06
2.03442e-05
-9.84275e-06
9.55086e-06
2.07411e-05
-1.18019e-05
1.1405e-05
2.05162e-05
-1.45973e-05
1.48221e-05
2.05567e-05
-1.50418e-05
1.50014e-05
1.99664e-05
-1.72585e-05
1.78489e-05
1.90764e-05
-1.51109e-05
1.60008e-05
1.79996e-05
-1.53567e-05
1.64335e-05
1.70891e-05
-1.39993e-05
1.49099e-05
1.65487e-05
-1.35926e-05
1.41329e-05
1.56296e-05
-1.25241e-05
1.34432e-05
1.50031e-05
-1.26993e-05
1.33258e-05
1.4185e-05
-9.94986e-06
1.0768e-05
1.3792e-05
-8.29993e-06
8.6929e-06
1.39336e-05
-9.2221e-06
9.08052e-06
1.466e-05
-1.00642e-05
9.33784e-06
1.52196e-05
-8.39093e-06
7.83128e-06
1.55429e-05
-6.49887e-06
6.17554e-06
1.61499e-05
-6.64864e-06
6.04168e-06
1.70184e-05
-7.23505e-06
6.36651e-06
1.78134e-05
-6.64901e-06
5.85408e-06
1.843e-05
-5.16524e-06
4.54864e-06
1.92531e-05
-3.88564e-06
3.06253e-06
2.0404e-05
-3.83847e-06
2.68755e-06
2.18857e-05
-4.75738e-06
3.27573e-06
2.31659e-05
-4.92059e-06
3.64032e-06
2.43068e-05
-4.51228e-06
3.37139e-06
2.49273e-05
-3.19558e-06
2.57509e-06
2.53678e-05
-1.24944e-06
8.0892e-07
2.52736e-05
9.51776e-07
-8.57568e-07
2.59643e-05
3.18487e-06
-3.87554e-06
2.63933e-05
4.96895e-06
-5.39799e-06
2.69327e-05
5.24237e-06
-5.78174e-06
2.70947e-05
6.55437e-06
-6.71639e-06
2.74771e-05
8.74976e-06
-9.1321e-06
2.70366e-05
1.04317e-05
-9.99131e-06
2.70686e-05
1.14563e-05
-1.14883e-05
2.64365e-05
1.49906e-05
-1.43584e-05
2.58241e-05
1.76117e-05
-1.69994e-05
2.46861e-05
2.04075e-05
-1.92695e-05
2.29104e-05
2.35443e-05
-2.17686e-05
2.14064e-05
2.72667e-05
-2.57627e-05
2.00473e-05
3.06073e-05
-2.92482e-05
1.78249e-05
3.49527e-05
-3.27304e-05
1.52684e-05
3.98272e-05
-3.72707e-05
1.43529e-05
4.58192e-05
-4.49036e-05
5.26767e-05
-5.31044e-05
1.47806e-05
1.34769e-05
-3.16555e-07
1.34052e-05
4.92853e-08
1.33911e-05
2.11308e-07
1.33989e-05
2.55705e-07
1.35195e-05
5.72008e-08
1.36908e-05
-1.16188e-07
1.3857e-05
-2.07946e-07
1.40699e-05
-3.83595e-07
1.42012e-05
-3.33871e-07
1.43241e-05
-3.58487e-07
1.44093e-05
-3.06444e-07
1.44682e-05
-2.50032e-07
1.45604e-05
-2.79017e-07
1.46123e-05
-2.09552e-07
1.47289e-05
-2.87461e-07
1.48262e-05
-2.69672e-07
1.49516e-05
-2.9066e-07
1.51092e-05
-3.14261e-07
1.52242e-05
-2.42699e-07
1.54149e-05
-2.74544e-07
1.55525e-05
-1.96914e-07
1.57075e-05
-1.56099e-07
1.59234e-05
-1.70206e-07
1.60571e-05
-6.23946e-08
1.62925e-05
-6.9441e-08
1.65267e-05
-5.42268e-08
1.67262e-05
3.14571e-08
1.70557e-05
-4.351e-08
1.73439e-05
1.00262e-08
1.76835e-05
-2.43446e-08
1.80838e-05
-1.45094e-07
1.8459e-05
-1.01564e-07
1.89478e-05
-3.28238e-07
1.9424e-05
-4.71587e-07
1.98958e-05
-5.50452e-07
2.05049e-05
-9.70164e-07
2.10325e-05
-1.1657e-06
2.15658e-05
-1.45831e-06
2.21874e-05
-1.99762e-06
2.27239e-05
-2.22237e-06
2.33533e-05
-2.73265e-06
2.39289e-05
-3.21274e-06
2.44735e-05
-3.56617e-06
2.5158e-05
-4.06332e-06
2.57358e-05
-4.43802e-06
2.64264e-05
-5.00952e-06
2.70248e-05
-5.33851e-06
2.76923e-05
-5.84082e-06
2.84907e-05
-6.4529e-06
2.88528e-05
-6.80746e-06
2.94932e-05
-7.57829e-06
3.01778e-05
-8.45553e-06
2.98676e-05
-8.85826e-06
2.96096e-05
-9.51496e-06
2.96046e-05
-1.04067e-05
2.87795e-05
-1.05557e-05
2.75973e-05
-1.02442e-05
2.61247e-05
-9.68958e-06
2.48184e-05
-9.11147e-06
2.38113e-05
-8.00671e-06
2.24284e-05
-6.57572e-06
2.1801e-05
-5.60241e-06
2.16793e-05
-3.98261e-06
2.08508e-05
-2.11758e-06
2.05147e-05
-1.54738e-06
2.14837e-05
-7.28878e-07
2.2355e-05
1.54604e-06
2.21946e-05
3.12098e-06
2.18032e-05
2.83847e-06
2.22018e-05
2.36399e-06
2.34704e-05
2.64836e-06
2.52128e-05
3.16045e-06
2.6979e-05
3.70325e-06
2.84655e-05
4.12918e-06
2.9588e-05
4.15336e-06
3.04071e-05
3.81244e-06
3.10369e-05
2.64511e-06
3.14144e-05
9.47859e-07
3.16593e-05
-9.59169e-07
3.17713e-05
-3.01241e-06
3.1811e-05
-5.08486e-06
3.18504e-05
-7.05318e-06
3.1846e-05
-9.00341e-06
3.20342e-05
-1.12126e-05
3.26371e-05
-1.35786e-05
3.34461e-05
-1.60004e-05
3.39756e-05
-1.80139e-05
3.40093e-05
-1.93301e-05
3.35895e-05
-2.01347e-05
3.29582e-05
-2.04661e-05
3.25006e-05
-2.06711e-05
3.20934e-05
-2.07576e-05
3.15069e-05
-2.05856e-05
3.05335e-05
-1.98201e-05
2.90679e-05
-1.8451e-05
2.73496e-05
-1.70227e-05
2.56563e-05
-1.54598e-05
2.41335e-05
-1.37793e-05
2.26286e-05
-1.18397e-05
2.12049e-05
-9.88393e-06
1.99389e-05
-8.10933e-06
1.92102e-05
-6.56047e-06
1.88007e-05
-5.57877e-06
1.84844e-05
-4.7666e-06
1.84887e-05
-4.03696e-06
1.90414e-05
-4.17699e-06
2.00097e-05
-3.9186e-06
2.116e-05
-3.52379e-06
2.2438e-05
-3.19705e-06
2.37686e-05
-2.3397e-06
2.47912e-05
-1.41004e-06
2.57494e-05
-1.6508e-07
2.65986e-05
1.57994e-06
2.71036e-05
2.92786e-06
2.74685e-05
4.92517e-06
2.76317e-05
6.88747e-06
2.76445e-05
8.25759e-06
2.74433e-05
1.01882e-05
2.69787e-05
1.19309e-05
2.6342e-05
1.32586e-05
2.56905e-05
1.47817e-05
2.46731e-05
1.59357e-05
2.35819e-05
1.67164e-05
2.24581e-05
1.7302e-05
2.13399e-05
1.77086e-05
2.00886e-05
1.80099e-05
1.87263e-05
1.7238e-05
1.79599e-05
1.58485e-05
1.7912e-05
1.61393e-05
1.76792e-05
1.73026e-05
1.74076e-05
1.77216e-05
1.64518e-05
1.71103e-05
1.55827e-05
1.52408e-05
1.50799e-05
1.34755e-05
1.47029e-05
1.20269e-05
1.44321e-05
1.22511e-05
1.45978e-05
9.66731e-06
1.54431e-05
1.32821e-05
1.5658e-05
1.09207e-05
1.71687e-05
1.16234e-05
1.76291e-05
1.18608e-05
1.82051e-05
1.0151e-05
1.88435e-05
7.54574e-06
1.9326e-05
7.43503e-06
2.02064e-05
4.38435e-06
2.03182e-05
3.10203e-06
2.06842e-05
2.25038e-06
2.12153e-05
8.22783e-07
2.22086e-05
-2.32887e-06
2.21926e-05
-3.17971e-06
2.15545e-05
-5.33539e-06
2.06157e-05
-4.76796e-06
2.02326e-05
-5.23923e-06
2.05719e-05
-7.01438e-06
2.10534e-05
-1.03243e-05
2.1374e-05
-1.21224e-05
2.11016e-05
-1.43249e-05
2.10861e-05
-1.50264e-05
2.01979e-05
-1.63703e-05
1.93163e-05
-1.42293e-05
1.83291e-05
-1.43695e-05
1.76419e-05
-1.33121e-05
1.69641e-05
-1.29147e-05
1.58695e-05
-1.14295e-05
1.50818e-05
-1.19116e-05
1.46184e-05
-9.4864e-06
1.47643e-05
-8.44587e-06
1.49889e-05
-9.44664e-06
1.53634e-05
-1.04387e-05
1.53731e-05
-8.40068e-06
1.55372e-05
-6.66292e-06
1.60986e-05
-7.21006e-06
1.68542e-05
-7.99069e-06
1.75812e-05
-7.376e-06
1.83839e-05
-5.9679e-06
1.96799e-05
-5.18167e-06
2.12213e-05
-5.37989e-06
2.26288e-05
-6.16483e-06
2.38231e-05
-6.1149e-06
2.45299e-05
-5.2191e-06
2.48553e-05
-3.52096e-06
2.5091e-05
-1.48519e-06
2.50975e-05
9.45374e-07
2.58065e-05
2.47582e-06
2.63424e-05
4.43309e-06
2.70148e-05
4.56994e-06
2.71221e-05
6.44703e-06
2.74061e-05
8.46576e-06
2.74174e-05
1.04205e-05
2.70263e-05
1.18473e-05
2.66027e-05
1.54142e-05
2.56193e-05
1.85952e-05
2.49893e-05
2.10375e-05
2.37444e-05
2.47892e-05
2.2244e-05
2.87672e-05
2.09934e-05
3.18579e-05
2.02767e-05
3.56695e-05
1.96202e-05
4.04837e-05
2.17751e-05
4.36643e-05
5.51299e-05
1.93219e-05
2.04997e-05
-2.04257e-07
2.01777e-05
3.71323e-07
2.00037e-05
3.85261e-07
1.99409e-05
3.1854e-07
1.99191e-05
7.89424e-08
2.00981e-05
-2.95122e-07
2.01865e-05
-2.9636e-07
2.03707e-05
-5.678e-07
2.04869e-05
-4.50077e-07
2.05466e-05
-4.18158e-07
2.06701e-05
-4.29996e-07
2.06396e-05
-2.19552e-07
2.06998e-05
-3.39184e-07
2.07212e-05
-2.30934e-07
2.07286e-05
-2.94895e-07
2.08655e-05
-4.06508e-07
2.08942e-05
-3.19383e-07
2.10521e-05
-4.72218e-07
2.11911e-05
-3.8165e-07
2.1269e-05
-3.52463e-07
2.14871e-05
-4.14957e-07
2.15523e-05
-2.21304e-07
2.17145e-05
-3.32493e-07
2.18965e-05
-2.44378e-07
2.19908e-05
-1.63665e-07
2.22429e-05
-3.0642e-07
2.24143e-05
-1.39935e-07
2.26446e-05
-2.73822e-07
2.29457e-05
-2.91023e-07
2.32022e-05
-2.80804e-07
2.35494e-05
-4.92326e-07
2.39158e-05
-4.67943e-07
2.42853e-05
-6.97756e-07
2.47176e-05
-9.03934e-07
2.51538e-05
-9.8658e-07
2.5619e-05
-1.43537e-06
2.61167e-05
-1.66345e-06
2.6543e-05
-1.88455e-06
2.71092e-05
-2.56388e-06
2.75579e-05
-2.67103e-06
2.79978e-05
-3.17257e-06
2.8607e-05
-3.82197e-06
2.89167e-05
-3.87585e-06
2.94812e-05
-4.62784e-06
3.00091e-05
-4.96584e-06
3.02565e-05
-5.25695e-06
3.08626e-05
-5.94467e-06
3.12068e-05
-6.18493e-06
3.13521e-05
-6.59822e-06
3.18708e-05
-7.32619e-06
3.19235e-05
-7.63101e-06
3.15081e-05
-8.04009e-06
3.14862e-05
-8.83633e-06
3.10795e-05
-9.1083e-06
3.00205e-05
-9.34765e-06
2.87296e-05
-9.26486e-06
2.76085e-05
-9.12313e-06
2.64922e-05
-8.57327e-06
2.49816e-05
-7.60087e-06
2.40663e-05
-7.0914e-06
2.31475e-05
-5.65694e-06
2.19095e-05
-4.3644e-06
2.16254e-05
-3.69848e-06
2.14939e-05
-1.98612e-06
2.08382e-05
-8.91662e-07
2.08781e-05
-7.68842e-07
2.18607e-05
5.63525e-07
2.2771e-05
2.21059e-06
2.29287e-05
2.68076e-06
2.27988e-05
2.49389e-06
2.3107e-05
2.34018e-06
2.40121e-05
2.2554e-06
2.53056e-05
2.40968e-06
2.67216e-05
2.71321e-06
2.7995e-05
2.88e-06
2.91196e-05
2.68778e-06
3.00137e-05
1.75103e-06
3.05542e-05
4.07395e-07
3.08648e-05
-1.26976e-06
3.0983e-05
-3.13062e-06
3.09514e-05
-5.05324e-06
3.11401e-05
-7.24192e-06
3.15549e-05
-9.41818e-06
3.22643e-05
-1.1922e-05
3.31966e-05
-1.45109e-05
3.37797e-05
-1.65835e-05
3.38383e-05
-1.80725e-05
3.34567e-05
-1.89485e-05
3.29373e-05
-1.96154e-05
3.25268e-05
-2.00556e-05
3.20412e-05
-2.01855e-05
3.12461e-05
-1.99626e-05
2.98341e-05
-1.91735e-05
2.77691e-05
-1.77551e-05
2.54667e-05
-1.61487e-05
2.33383e-05
-1.48944e-05
2.15266e-05
-1.36481e-05
1.97114e-05
-1.19642e-05
1.79128e-05
-1.00411e-05
1.64558e-05
-8.42696e-06
1.53969e-05
-7.05037e-06
1.46837e-05
-5.84732e-06
1.43972e-05
-5.29229e-06
1.47839e-05
-5.15323e-06
1.60045e-05
-5.25759e-06
1.76216e-05
-5.79413e-06
1.92864e-05
-5.58333e-06
2.08819e-05
-5.11931e-06
2.23845e-05
-4.69962e-06
2.35942e-05
-3.54944e-06
2.4516e-05
-2.33177e-06
2.5241e-05
-8.90138e-07
2.596e-05
8.60951e-07
2.62463e-05
2.64155e-06
2.66117e-05
4.55976e-06
2.67847e-05
6.71446e-06
2.67871e-05
8.25518e-06
2.66826e-05
1.02928e-05
2.63269e-05
1.22866e-05
2.59547e-05
1.36308e-05
2.55991e-05
1.51372e-05
2.4821e-05
1.67138e-05
2.38938e-05
1.76436e-05
2.30108e-05
1.8185e-05
2.19885e-05
1.87309e-05
2.07581e-05
1.92403e-05
1.93038e-05
1.86923e-05
1.8056e-05
1.70963e-05
1.7962e-05
1.62333e-05
1.76616e-05
1.7603e-05
1.76187e-05
1.77645e-05
1.698e-05
1.77489e-05
1.60617e-05
1.61591e-05
1.54504e-05
1.40867e-05
1.52523e-05
1.2225e-05
1.51409e-05
1.23625e-05
1.50743e-05
9.73396e-06
1.55861e-05
1.27703e-05
1.61504e-05
1.03564e-05
1.72653e-05
1.05085e-05
1.81228e-05
1.10033e-05
1.87211e-05
9.55264e-06
1.90543e-05
7.21261e-06
1.96921e-05
6.79717e-06
2.03642e-05
3.71227e-06
2.0496e-05
2.97022e-06
2.10885e-05
1.65793e-06
2.18392e-05
7.20768e-08
2.21262e-05
-2.6159e-06
2.1699e-05
-2.75255e-06
2.10546e-05
-4.69096e-06
2.0564e-05
-4.27735e-06
2.09185e-05
-5.59379e-06
2.13466e-05
-7.44246e-06
2.19474e-05
-1.0925e-05
2.20635e-05
-1.22385e-05
2.16511e-05
-1.39125e-05
2.11793e-05
-1.45546e-05
2.00248e-05
-1.52158e-05
1.90626e-05
-1.3267e-05
1.81678e-05
-1.34748e-05
1.78251e-05
-1.29694e-05
1.72732e-05
-1.23628e-05
1.62402e-05
-1.03965e-05
1.5214e-05
-1.08854e-05
1.50287e-05
-9.30107e-06
1.54314e-05
-8.8486e-06
1.56842e-05
-9.69944e-06
1.58007e-05
-1.05552e-05
1.54945e-05
-8.09442e-06
1.5732e-05
-6.90045e-06
1.61989e-05
-7.67695e-06
1.70348e-05
-8.82664e-06
1.77668e-05
-8.10796e-06
1.86822e-05
-6.88333e-06
2.02029e-05
-6.70236e-06
2.18395e-05
-7.01645e-06
2.29999e-05
-7.3253e-06
2.38421e-05
-6.95706e-06
2.40328e-05
-5.40975e-06
2.41889e-05
-3.6771e-06
2.4159e-05
-1.45525e-06
2.47051e-05
3.99182e-07
2.52788e-05
1.90218e-06
2.62414e-05
3.47051e-06
2.66426e-05
4.16873e-06
2.70793e-05
6.01031e-06
2.6881e-05
8.66402e-06
2.70143e-05
1.02872e-05
2.62895e-05
1.25721e-05
2.6249e-05
1.54547e-05
2.5728e-05
1.91163e-05
2.50808e-05
2.16846e-05
2.44525e-05
2.54176e-05
2.35604e-05
2.96592e-05
2.25927e-05
3.28256e-05
2.24888e-05
3.57734e-05
2.26139e-05
4.03586e-05
2.67933e-05
3.94849e-05
5.68539e-05
2.50694e-05
2.51379e-05
-1.91059e-07
2.52424e-05
2.66748e-07
2.5358e-05
2.69675e-07
2.54587e-05
2.17831e-07
2.55582e-05
-2.05013e-08
2.56573e-05
-3.94293e-07
2.5759e-05
-3.98029e-07
2.57993e-05
-6.08041e-07
2.5895e-05
-5.45826e-07
2.5915e-05
-4.38142e-07
2.59531e-05
-4.6816e-07
2.60081e-05
-2.74544e-07
2.59521e-05
-2.83134e-07
2.60192e-05
-2.98026e-07
2.59787e-05
-2.54398e-07
2.60071e-05
-4.34899e-07
2.60863e-05
-3.98559e-07
2.60899e-05
-4.75835e-07
2.6276e-05
-5.67801e-07
2.6321e-05
-3.97414e-07
2.64774e-05
-5.71369e-07
2.66444e-05
-3.88371e-07
2.66842e-05
-3.72219e-07
2.6915e-05
-4.75167e-07
2.69852e-05
-2.33899e-07
2.71037e-05
-4.24964e-07
2.73476e-05
-3.83794e-07
2.74364e-05
-3.62641e-07
2.76985e-05
-5.53093e-07
2.79758e-05
-5.58087e-07
2.81653e-05
-6.8183e-07
2.85562e-05
-8.58875e-07
2.88275e-05
-9.69027e-07
2.91245e-05
-1.20092e-06
2.95668e-05
-1.42891e-06
2.98149e-05
-1.6835e-06
3.02361e-05
-2.08468e-06
3.05913e-05
-2.23968e-06
3.08739e-05
-2.84651e-06
3.13058e-05
-3.10296e-06
3.15424e-05
-3.4091e-06
3.18673e-05
-4.14694e-06
3.21857e-05
-4.19422e-06
3.23775e-05
-4.81967e-06
3.2648e-05
-5.23636e-06
3.28729e-05
-5.48176e-06
3.29303e-05
-6.00217e-06
3.30483e-05
-6.30289e-06
3.31684e-05
-6.7183e-06
3.28445e-05
-7.00234e-06
3.26195e-05
-7.40601e-06
3.23645e-05
-7.78504e-06
3.15859e-05
-8.05772e-06
3.06202e-05
-8.14267e-06
2.97752e-05
-8.50262e-06
2.87998e-05
-8.28939e-06
2.73967e-05
-7.72007e-06
2.63104e-05
-7.48697e-06
2.51563e-05
-6.4468e-06
2.39449e-05
-5.87999e-06
2.33105e-05
-5.02256e-06
2.25769e-05
-3.6308e-06
2.19597e-05
-3.0813e-06
2.18944e-05
-1.92076e-06
2.17473e-05
-7.44564e-07
2.1344e-05
-3.65561e-07
2.14932e-05
4.14359e-07
2.23092e-05
1.39458e-06
2.30381e-05
1.95188e-06
2.34087e-05
2.12328e-06
2.35998e-05
2.14903e-06
2.38372e-05
2.01798e-06
2.4353e-05
1.89396e-06
2.5152e-05
1.91416e-06
2.61219e-05
1.91013e-06
2.70986e-05
1.71111e-06
2.79155e-05
9.34048e-07
2.85987e-05
-2.75753e-07
2.90623e-05
-1.7334e-06
2.94722e-05
-3.54049e-06
3.00487e-05
-5.62977e-06
3.07799e-05
-7.97307e-06
3.17542e-05
-1.03925e-05
3.26946e-05
-1.28625e-05
3.3237e-05
-1.50533e-05
3.32216e-05
-1.65681e-05
3.28363e-05
-1.76872e-05
3.25036e-05
-1.86158e-05
3.22137e-05
-1.93255e-05
3.16784e-05
-1.95203e-05
3.06373e-05
-1.91444e-05
2.89356e-05
-1.82609e-05
2.64274e-05
-1.66654e-05
2.35175e-05
-1.48452e-05
2.10744e-05
-1.37056e-05
1.9159e-05
-1.29789e-05
1.71835e-05
-1.16726e-05
1.51475e-05
-9.92813e-06
1.33859e-05
-8.2795e-06
1.18601e-05
-6.90114e-06
1.07371e-05
-5.9274e-06
1.05054e-05
-5.61558e-06
1.14211e-05
-6.20804e-06
1.31931e-05
-6.92517e-06
1.52516e-05