/*--------------------------------*- C++ -*----------------------------------*\
| =========                 |                                                 |
| \\      /  F ield         | OpenFOAM: The Open Source CFD Toolbox           |
|  \\    /   O peration     | Version:  2.4.0                                 |
|   \\  /    A nd           | Web:      www.OpenFOAM.org                      |
|    \\/     M anipulation  |                                                 |
\*---------------------------------------------------------------------------*/
FoamFile
{
    version     2.0;
    format      ascii;
    class       volSymmTensorField;
    location    "1.65";
    object      UPrime2Mean;
}
// * * * * * * * * * * * * * * * * * * * * * * * * * * * * * * * * * * * * * //

dimensions      [0 2 -2 0 0 0 0];

internalField   nonuniform List<symmTensor> 
8800
(
(0.00105004 5.54952e-05 0 0.00011715 0 0)
(0.0195649 -0.000759537 0 4.4313e-05 0 0)
(0.0384138 -7.0745e-05 0 1.2157e-05 0 0)
(0.0485705 9.85041e-05 0 6.77247e-06 0 0)
(0.0550329 6.5882e-05 0 5.71242e-06 0 0)
(0.0618835 2.42172e-05 0 7.31474e-06 0 0)
(0.0651987 -9.86533e-06 0 8.5401e-06 0 0)
(0.06868 -5.8242e-05 0 1.10887e-05 0 0)
(0.0714394 -7.60105e-05 0 1.17604e-05 0 0)
(0.0729012 -0.000109177 0 1.45722e-05 0 0)
(0.0759181 -0.000120846 0 1.46277e-05 0 0)
(0.0763673 -0.000157942 0 1.81722e-05 0 0)
(0.0796719 -0.00017781 0 1.75977e-05 0 0)
(0.0801447 -0.000209186 0 2.18121e-05 0 0)
(0.0844118 -0.000290214 0 2.09264e-05 0 0)
(0.0852807 -0.00022274 0 2.67741e-05 0 0)
(0.0950058 -0.000816792 0 2.92526e-05 0 0)
(0.0934522 0.000922607 0 7.68876e-05 0 0)
(0.15234 -0.0102703 0 0.00107066 0 0)
(0.160652 0.0182262 0 0.00361598 0 0)
(0.00630943 0.00161609 0 0.000713769 0 0)
(0.00177669 -0.000742566 0 0.000948811 0 0)
(0.0123494 -0.0012374 0 0.000413021 0 0)
(0.0196485 -0.00149015 0 0.000178874 0 0)
(0.0292713 -0.00135131 0 0.000113301 0 0)
(0.0435466 -0.00128525 0 9.69193e-05 0 0)
(0.055385 -0.00160691 0 0.000112777 0 0)
(0.0654783 -0.00113211 0 8.71891e-05 0 0)
(0.0829357 -0.0016988 0 0.000114556 0 0)
(0.0831624 -0.00128111 0 9.74609e-05 0 0)
(0.108118 -0.00187155 0 0.000128818 0 0)
(0.0991426 -0.00164546 0 0.00012323 0 0)
(0.130788 -0.00238522 0 0.000167701 0 0)
(0.114859 -0.0021278 0 0.000164864 0 0)
(0.154295 -0.00325897 0 0.000240898 0 0)
(0.130657 -0.00330579 0 0.000275115 0 0)
(0.18597 -0.00363289 0 0.000375529 0 0)
(0.155729 -0.00791906 0 0.000976138 0 0)
(0.26141 -0.00426222 0 0.000760411 0 0)
(0.255609 -0.0340123 0 0.0127304 0 0)
(0.0156806 0.000644996 0 0.000484842 0 0)
(0.015361 0.000103377 0 0.00114685 0 0)
(0.0398419 -8.18653e-05 0 0.00075577 0 0)
(0.0430989 -0.00121141 0 0.000440835 0 0)
(0.060906 -0.00119227 0 0.000361466 0 0)
(0.0708133 -0.0018274 0 0.000345362 0 0)
(0.0923668 -0.00359441 0 0.000412618 0 0)
(0.0977747 -0.00227181 0 0.000292042 0 0)
(0.13711 -0.00510007 0 0.000392939 0 0)
(0.12474 -0.00331498 0 0.000271775 0 0)
(0.187206 -0.00626511 0 0.000404849 0 0)
(0.151679 -0.00460974 0 0.000322927 0 0)
(0.238511 -0.00829976 0 0.000560724 0 0)
(0.175695 -0.00587828 0 0.000467695 0 0)
(0.294151 -0.0118562 0 0.000947786 0 0)
(0.191377 -0.0071808 0 0.000811224 0 0)
(0.360692 -0.0161667 0 0.00166748 0 0)
(0.206489 -0.00930417 0 0.00201029 0 0)
(0.455029 -0.0217312 0 0.00383731 0 0)
(0.256955 -0.029149 0 0.0155601 0 0)
(0.0762224 -0.000435078 0 0.000395617 0 0)
(0.0886165 -0.000195313 0 0.000944283 0 0)
(0.138087 -0.00127679 0 0.000786262 0 0)
(0.143519 -0.00248284 0 0.000556702 0 0)
(0.178247 -0.00162287 0 0.000570731 0 0)
(0.184498 -0.00300269 0 0.00060352 0 0)
(0.224263 -0.00566928 0 0.000805487 0 0)
(0.21922 -0.00297664 0 0.000609778 0 0)
(0.282237 -0.00952367 0 0.000929134 0 0)
(0.250767 -0.00520141 0 0.000615741 0 0)
(0.348057 -0.0126754 0 0.00101968 0 0)
(0.28085 -0.00822474 0 0.000746862 0 0)
(0.418806 -0.0172041 0 0.00142134 0 0)
(0.307445 -0.0110637 0 0.00105263 0 0)
(0.497026 -0.0245478 0 0.00235271 0 0)
(0.321771 -0.0136188 0 0.0017009 0 0)
(0.588646 -0.033198 0 0.00377382 0 0)
(0.319845 -0.0168193 0 0.00405741 0 0)
(0.708301 -0.0406843 0 0.00644712 0 0)
(0.311769 -0.0313121 0 0.0224838 0 0)
(0.296816 -0.0015183 0 0.000658853 0 0)
(0.29374 -7.63513e-05 0 0.0012567 0 0)
(0.328907 -0.00455675 0 0.00151546 0 0)
(0.316687 -0.00468181 0 0.00113391 0 0)
(0.343477 -0.00481647 0 0.00124497 0 0)
(0.334466 -0.00652948 0 0.00114609 0 0)
(0.368425 -0.0096029 0 0.00176543 0 0)
(0.351328 -0.00591134 0 0.00129756 0 0)
(0.404801 -0.0147917 0 0.00222354 0 0)
(0.368888 -0.00824026 0 0.00149857 0 0)
(0.445048 -0.0190861 0 0.00259503 0 0)
(0.387651 -0.0121722 0 0.0017895 0 0)
(0.486102 -0.0248809 0 0.00341341 0 0)
(0.407341 -0.0159643 0 0.00228964 0 0)
(0.528963 -0.0341809 0 0.00496896 0 0)
(0.422891 -0.0199121 0 0.00312101 0 0)
(0.577972 -0.0458569 0 0.00721598 0 0)
(0.427571 -0.024922 0 0.00577085 0 0)
(0.643802 -0.0576851 0 0.0111891 0 0)
(0.410714 -0.0332242 0 0.0262599 0 0)
(0.373475 -0.00608005 0 0.00217342 0 0)
(0.320664 -0.00130899 0 0.00295306 0 0)
(0.313143 -0.00827708 0 0.00373856 0 0)
(0.269092 -0.00650926 0 0.00242146 0 0)
(0.278629 -0.00908483 0 0.00330684 0 0)
(0.256268 -0.00856122 0 0.00270911 0 0)
(0.262289 -0.0119826 0 0.003911 0 0)
(0.245905 -0.00799524 0 0.00283963 0 0)
(0.257455 -0.0152441 0 0.00468134 0 0)
(0.243464 -0.0100761 0 0.00314881 0 0)
(0.255749 -0.0183541 0 0.00529155 0 0)
(0.246461 -0.0134917 0 0.00375533 0 0)
(0.254306 -0.0217919 0 0.00643999 0 0)
(0.256043 -0.016805 0 0.00453071 0 0)
(0.250565 -0.0270112 0 0.00867035 0 0)
(0.271746 -0.0208409 0 0.00564793 0 0)
(0.243569 -0.0331382 0 0.0121258 0 0)
(0.293682 -0.0263026 0 0.00853467 0 0)
(0.235997 -0.0380575 0 0.0197027 0 0)
(0.321572 -0.0351937 0 0.0243272 0 0)
(0.175413 -0.00975495 0 0.00405625 0 0)
(0.156145 -0.00839028 0 0.00599582 0 0)
(0.145852 -0.00772517 0 0.00584501 0 0)
(0.135276 -0.0110714 0 0.00497119 0 0)
(0.132119 -0.00991303 0 0.00604669 0 0)
(0.133988 -0.0102198 0 0.00539371 0 0)
(0.129226 -0.0106154 0 0.00607074 0 0)
(0.131532 -0.0103035 0 0.00550974 0 0)
(0.132018 -0.0113005 0 0.00670799 0 0)
(0.134255 -0.0112374 0 0.00594599 0 0)
(0.132385 -0.0129627 0 0.00751486 0 0)
(0.141669 -0.0123998 0 0.00673856 0 0)
(0.136161 -0.0136086 0 0.00886082 0 0)
(0.152418 -0.0139849 0 0.00795329 0 0)
(0.138597 -0.0138032 0 0.0112148 0 0)
(0.167933 -0.0159171 0 0.00965685 0 0)
(0.14026 -0.0123527 0 0.0150421 0 0)
(0.190849 -0.0179901 0 0.0139723 0 0)
(0.142988 -0.0055307 0 0.0237975 0 0)
(0.224858 -0.017291 0 0.0356215 0 0)
(0.155248 -0.0115268 0 0.00501478 0 0)
(0.189279 -0.0184657 0 0.0100285 0 0)
(0.151638 -0.00845019 0 0.00787115 0 0)
(0.191914 -0.0138451 0 0.00682389 0 0)
(0.166264 -0.0115442 0 0.00792595 0 0)
(0.189105 -0.011325 0 0.00785464 0 0)
(0.185795 -0.00968975 0 0.00727461 0 0)
(0.193508 -0.0114864 0 0.00796444 0 0)
(0.199811 -0.00907635 0 0.00813555 0 0)
(0.198936 -0.0108837 0 0.00822348 0 0)
(0.212931 -0.00874986 0 0.0087984 0 0)
(0.205588 -0.0103293 0 0.0093728 0 0)
(0.230731 -0.0068423 0 0.0100486 0 0)
(0.216168 -0.0102491 0 0.0107583 0 0)
(0.244046 -0.00365779 0 0.0122718 0 0)
(0.230078 -0.00966565 0 0.0128366 0 0)
(0.261911 0.00198534 0 0.0157235 0 0)
(0.248991 -0.00788082 0 0.0185405 0 0)
(0.279897 0.0140938 0 0.0243506 0 0)
(0.275752 -0.000870996 0 0.0416601 0 0)
(0.264724 -0.00834069 0 0.00479933 0 0)
(0.296065 -0.0176736 0 0.0127975 0 0)
(0.255436 -0.00559536 0 0.00893697 0 0)
(0.263243 -0.00881714 0 0.00792834 0 0)
(0.290174 -0.00669065 0 0.00787589 0 0)
(0.25012 -0.00668245 0 0.00879827 0 0)
(0.324737 -0.00432875 0 0.00735605 0 0)
(0.248621 -0.00648422 0 0.00888347 0 0)
(0.342557 -0.00207264 0 0.00787679 0 0)
(0.252797 -0.00633932 0 0.00947368 0 0)
(0.353922 3.05193e-05 0 0.00846128 0 0)
(0.262425 -0.00506167 0 0.0104107 0 0)
(0.368926 0.00292615 0 0.00969462 0 0)
(0.275474 -0.00433396 0 0.0119126 0 0)
(0.386315 0.00713527 0 0.0111163 0 0)
(0.291932 -0.00268406 0 0.0139871 0 0)
(0.403074 0.0139199 0 0.0137606 0 0)
(0.315712 0.000624101 0 0.0193007 0 0)
(0.421148 0.0266927 0 0.02048 0 0)
(0.359341 0.00642218 0 0.0356563 0 0)
(0.296208 -0.00405346 0 0.00349696 0 0)
(0.32898 -0.00820679 0 0.0097683 0 0)
(0.317716 -0.000841912 0 0.00585216 0 0)
(0.273048 -0.00168638 0 0.00600468 0 0)
(0.34142 -0.00075546 0 0.00535909 0 0)
(0.263609 -0.000957763 0 0.00646534 0 0)
(0.353012 0.00135302 0 0.00499713 0 0)
(0.263702 -0.000638819 0 0.00669887 0 0)
(0.35296 0.00363264 0 0.005373 0 0)
(0.268596 -0.000385319 0 0.00700877 0 0)
(0.35984 0.00479539 0 0.00586589 0 0)
(0.284311 0.000905869 0 0.00753213 0 0)
(0.368279 0.00757218 0 0.00655883 0 0)
(0.30252 0.00179483 0 0.00849666 0 0)
(0.377986 0.0111316 0 0.00724642 0 0)
(0.327015 0.00430637 0 0.00976338 0 0)
(0.391121 0.0166649 0 0.00848108 0 0)
(0.365899 0.00930881 0 0.0128891 0 0)
(0.410031 0.0265776 0 0.0123742 0 0)
(0.444299 0.0154544 0 0.0232982 0 0)
(0.200638 -0.00146095 0 0.00260673 0 0)
(0.229973 -0.00142251 0 0.00605341 0 0)
(0.218273 0.00204036 0 0.00412514 0 0)
(0.194745 0.00322319 0 0.00381853 0 0)
(0.227113 0.00199862 0 0.00457237 0 0)
(0.196955 0.0029674 0 0.00462997 0 0)
(0.228318 0.00343801 0 0.0044397 0 0)
(0.200739 0.00414722 0 0.00489859 0 0)
(0.228203 0.00489851 0 0.00463816 0 0)
(0.209844 0.00502831 0 0.00513643 0 0)
(0.227732 0.00614353 0 0.00497813 0 0)
(0.228273 0.00629212 0 0.00538572 0 0)
(0.232959 0.00826684 0 0.00532933 0 0)
(0.243761 0.00805836 0 0.0058799 0 0)
(0.239199 0.0107179 0 0.00572348 0 0)
(0.26648 0.0115012 0 0.00654989 0 0)
(0.245644 0.0141637 0 0.00647106 0 0)
(0.303052 0.017782 0 0.00808564 0 0)
(0.251088 0.0206528 0 0.00896012 0 0)
(0.371589 0.0262616 0 0.0145756 0 0)
(0.087182 -0.000357514 0 0.00230534 0 0)
(0.0980858 0.000653735 0 0.00500077 0 0)
(0.0881518 0.00137429 0 0.00388043 0 0)
(0.0926466 0.00265503 0 0.00379912 0 0)
(0.0937975 0.00146695 0 0.0041836 0 0)
(0.0978303 0.00239556 0 0.00443966 0 0)
(0.0978449 0.00162198 0 0.00425516 0 0)
(0.103269 0.00373914 0 0.00470485 0 0)
(0.0988086 0.00242857 0 0.00424981 0 0)
(0.113459 0.0045791 0 0.00475549 0 0)
(0.0980248 0.00323415 0 0.00438769 0 0)
(0.126307 0.00547079 0 0.00486403 0 0)
(0.101885 0.00413062 0 0.00451256 0 0)
(0.139008 0.00666153 0 0.00506055 0 0)
(0.105569 0.00475725 0 0.00454373 0 0)
(0.156075 0.00899954 0 0.00526795 0 0)
(0.10739 0.0058421 0 0.00477313 0 0)
(0.181675 0.0129853 0 0.00608287 0 0)
(0.108743 0.00913472 0 0.00612961 0 0)
(0.228813 0.0185532 0 0.0101067 0 0)
(0.0289308 -0.00012522 0 0.00188888 0 0)
(0.0316159 0.000223872 0 0.00413293 0 0)
(0.0287264 -0.000342577 0 0.00338729 0 0)
(0.0374459 0.000707633 0 0.00312658 0 0)
(0.0345147 0.000256574 0 0.00317992 0 0)
(0.0392729 0.0008886 0 0.00334999 0 0)
(0.0377432 8.81357e-05 0 0.00334412 0 0)
(0.0440669 0.00154344 0 0.00369644 0 0)
(0.0391888 0.000212108 0 0.00327418 0 0)
(0.0503436 0.00216771 0 0.00352033 0 0)
(0.0397064 0.000909165 0 0.00321759 0 0)
(0.0555917 0.00257012 0 0.00353717 0 0)
(0.0421161 0.00123759 0 0.00332167 0 0)
(0.0620814 0.00302018 0 0.00344371 0 0)
(0.0453424 0.00142077 0 0.00310388 0 0)
(0.0697419 0.00416318 0 0.00327804 0 0)
(0.0483141 0.00216233 0 0.00303493 0 0)
(0.0812784 0.00626872 0 0.00354427 0 0)
(0.0537861 0.00469302 0 0.00380647 0 0)
(0.103535 0.0101823 0 0.00590453 0 0)
(0.00878321 -0.000247869 0 0.00136911 0 0)
(0.00638167 -0.000629992 0 0.00310221 0 0)
(0.00755026 -0.00137384 0 0.00276357 0 0)
(0.0112087 -0.000578507 0 0.00214883 0 0)
(0.011293 -0.000234337 0 0.00222131 0 0)
(0.0127046 -0.000287708 0 0.00214988 0 0)
(0.0142639 -0.00032685 0 0.00229593 0 0)
(0.0156248 -0.000307869 0 0.00246123 0 0)
(0.0171179 -0.000663559 0 0.00222852 0 0)
(0.0193953 -6.98265e-06 0 0.00219931 0 0)
(0.0186007 -0.000152571 0 0.00206399 0 0)
(0.0218587 0.000158826 0 0.00212199 0 0)
(0.0206819 -0.000146857 0 0.00212735 0 0)
(0.025601 3.44553e-06 0 0.00203173 0 0)
(0.0238996 -6.12227e-05 0 0.00187843 0 0)
(0.0301272 0.000508688 0 0.00177434 0 0)
(0.0280863 0.000643152 0 0.00168664 0 0)
(0.037767 0.00196647 0 0.00189308 0 0)
(0.0366587 0.00305782 0 0.00217453 0 0)
(0.0527394 0.00660382 0 0.00367343 0 0)
(0.00735564 -0.000372002 0 0.00101543 0 0)
(0.00315853 -0.000872472 0 0.00243862 0 0)
(0.00442937 -0.00149528 0 0.00225277 0 0)
(0.00590156 -0.000992482 0 0.00163136 0 0)
(0.00759583 -0.0004956 0 0.00170498 0 0)
(0.00743807 -0.000481622 0 0.00163369 0 0)
(0.00920016 -0.000582839 0 0.00185926 0 0)
(0.00951707 -0.000957424 0 0.00198689 0 0)
(0.0120246 -0.000993428 0 0.00183852 0 0)
(0.0122574 -0.000694691 0 0.00172953 0 0)
(0.0141513 -0.000496926 0 0.00159642 0 0)
(0.0141938 -0.000450092 0 0.00157666 0 0)
(0.0161506 -0.000443834 0 0.00156065 0 0)
(0.0167888 -0.000667095 0 0.0014495 0 0)
(0.0190764 -0.000465439 0 0.0013056 0 0)
(0.02002 -0.000371685 0 0.0011616 0 0)
(0.0229161 0.000196322 0 0.00103489 0 0)
(0.0257654 0.000833159 0 0.00106037 0 0)
(0.0307169 0.00239297 0 0.00122404 0 0)
(0.0381991 0.00485873 0 0.0020218 0 0)
(0.00899704 -0.000361634 0 0.000604876 0 0)
(0.00505093 -0.000251341 0 0.00160673 0 0)
(0.00519764 -0.000892384 0 0.00154349 0 0)
(0.00628224 -0.000672979 0 0.00114489 0 0)
(0.00828745 -0.000348675 0 0.00129118 0 0)
(0.00770867 -0.000153527 0 0.00117023 0 0)
(0.00990849 -0.000308094 0 0.00129232 0 0)
(0.00902851 -0.00036302 0 0.0013928 0 0)
(0.0110025 -0.000506929 0 0.00132386 0 0)
(0.00953738 -0.00014756 0 0.00123269 0 0)
(0.0114106 -0.000139366 0 0.00109671 0 0)
(0.00959427 8.0762e-05 0 0.00102934 0 0)
(0.0111761 5.68478e-06 0 0.000974275 0 0)
(0.00925052 -7.92549e-06 0 0.000901526 0 0)
(0.0108289 -1.99797e-05 0 0.000790886 0 0)
(0.00916485 2.71438e-05 0 0.000714745 0 0)
(0.0110907 0.000344993 0 0.000587392 0 0)
(0.0108172 0.000646486 0 0.000593804 0 0)
(0.0143831 0.00170303 0 0.000668104 0 0)
(0.0181848 0.00287056 0 0.00111515 0 0)
(0.00779203 -0.000576808 0 0.000376591 0 0)
(0.00410992 -2.07515e-06 0 0.00110564 0 0)
(0.00448641 -0.000325666 0 0.000943868 0 0)
(0.00601755 -0.000285717 0 0.000644154 0 0)
(0.00745344 -9.95488e-05 0 0.000770906 0 0)
(0.00651506 7.52303e-05 0 0.000732287 0 0)
(0.00732177 0.000144766 0 0.000761949 0 0)
(0.0057731 0.000453341 0 0.000773246 0 0)
(0.00557185 0.000456902 0 0.000704008 0 0)
(0.00453134 0.000783037 0 0.000632993 0 0)
(0.00410523 0.000685438 0 0.000555396 0 0)
(0.00401213 0.000912189 0 0.000512979 0 0)
(0.00326222 0.000746767 0 0.000476566 0 0)
(0.00403759 0.000877986 0 0.000443174 0 0)
(0.00322084 0.000586306 0 0.000381929 0 0)
(0.00476959 0.000744993 0 0.000359662 0 0)
(0.00422415 0.000419688 0 0.000299471 0 0)
(0.00635857 0.000759161 0 0.000305138 0 0)
(0.00704408 0.000691696 0 0.000408706 0 0)
(0.010264 0.00146815 0 0.000571967 0 0)
(0.00624636 -0.00115757 0 0.000442464 0 0)
(0.00195818 -0.000339774 0 0.00112337 0 0)
(0.00212647 -4.79725e-05 0 0.000732061 0 0)
(0.00288843 0.000139776 0 0.000428932 0 0)
(0.00300564 0.000539917 0 0.000409494 0 0)
(0.00314892 0.000854285 0 0.000366562 0 0)
(0.00490961 0.00103919 0 0.00034644 0 0)
(0.00771831 0.00122846 0 0.000324991 0 0)
(0.00963904 0.00114604 0 0.000280228 0 0)
(0.0142657 0.00118061 0 0.000244563 0 0)
(0.0151698 0.00100593 0 0.000212704 0 0)
(0.0209925 0.00103713 0 0.000197721 0 0)
(0.0203889 0.000847022 0 0.000189827 0 0)
(0.0270849 0.000898818 0 0.000176676 0 0)
(0.0252089 0.000545872 0 0.000157088 0 0)
(0.0320101 0.000688223 0 0.000149014 0 0)
(0.0293893 4.20837e-05 0 0.000132394 0 0)
(0.0344326 0.000506677 0 0.000141162 0 0)
(0.0325076 -0.000401363 0 0.000193898 0 0)
(0.0338177 0.000941614 0 0.000365055 0 0)
(0.00551392 -0.00172542 0 0.000699239 0 0)
(0.000949328 0.000666078 0 0.000935421 0 0)
(0.00518182 0.00132283 0 0.000397478 0 0)
(0.0102999 0.00116127 0 0.000165698 0 0)
(0.0161643 0.00113624 0 0.000115093 0 0)
(0.0236637 0.00102523 0 9.22157e-05 0 0)
(0.0308018 0.000860341 0 8.41489e-05 0 0)
(0.0384427 0.000736677 0 7.85551e-05 0 0)
(0.04308 0.000591797 0 7.3161e-05 0 0)
(0.0497947 0.000527605 0 6.97151e-05 0 0)
(0.0519254 0.000430734 0 6.68624e-05 0 0)
(0.0583072 0.000427914 0 6.43196e-05 0 0)
(0.0584518 0.000337435 0 6.39283e-05 0 0)
(0.064942 0.000359801 0 5.86598e-05 0 0)
(0.0634153 0.000172961 0 5.38143e-05 0 0)
(0.0694485 0.000215237 0 4.8571e-05 0 0)
(0.0663638 -0.00017921 0 4.58648e-05 0 0)
(0.0694722 7.48681e-05 0 4.56731e-05 0 0)
(0.0669682 -0.000707227 0 6.69069e-05 0 0)
(0.0622604 0.000379242 0 0.000199683 0 0)
(0.00102227 -6.03213e-05 0 0.00011622 0 0)
(0.0195565 0.000760632 0 4.2963e-05 0 0)
(0.0381578 7.00371e-05 0 1.09543e-05 0 0)
(0.0475185 -0.000116139 0 5.06875e-06 0 0)
(0.0544738 -8.53907e-05 0 4.34416e-06 0 0)
(0.059812 -6.56569e-05 0 4.75908e-06 0 0)
(0.0632285 -4.33824e-05 0 5.75307e-06 0 0)
(0.0661466 -1.91527e-05 0 6.16928e-06 0 0)
(0.0677621 -1.06173e-05 0 6.81719e-06 0 0)
(0.0698506 4.61905e-07 0 6.88207e-06 0 0)
(0.0705391 -3.89522e-06 0 7.00363e-06 0 0)
(0.0722832 6.13938e-06 0 6.64419e-06 0 0)
(0.072393 -6.89407e-06 0 6.45911e-06 0 0)
(0.0740108 2.51287e-06 0 5.72279e-06 0 0)
(0.0734822 -3.02282e-05 0 5.25406e-06 0 0)
(0.0746261 -2.66997e-05 0 4.38093e-06 0 0)
(0.0729674 -8.91059e-05 0 3.98555e-06 0 0)
(0.0725097 -7.31678e-05 0 3.51227e-06 0 0)
(0.0704103 -0.000262623 0 4.44346e-06 0 0)
(0.0637132 0.000354667 0 2.54324e-05 0 0)
(0.302763 -0.146019 0 0.0909721 0 0)
(0.32966 -0.173144 0 0.127775 0 0)
(0.334973 -0.164531 0 0.152096 0 0)
(0.354098 -0.145475 0 0.169877 0 0)
(0.361093 -0.122821 0 0.180393 0 0)
(0.425011 -0.109084 0 0.187679 0 0)
(0.456742 -0.103487 0 0.19442 0 0)
(0.556314 -0.114734 0 0.204573 0 0)
(0.604484 -0.129074 0 0.216507 0 0)
(0.706993 -0.150792 0 0.22908 0 0)
(0.742584 -0.165293 0 0.242562 0 0)
(0.836101 -0.184918 0 0.259604 0 0)
(0.861672 -0.193503 0 0.27741 0 0)
(0.956554 -0.211887 0 0.293821 0 0)
(0.985094 -0.222022 0 0.304982 0 0)
(1.08783 -0.248342 0 0.314504 0 0)
(1.11629 -0.268612 0 0.326468 0 0)
(1.22814 -0.307065 0 0.344745 0 0)
(1.25578 -0.330939 0 0.369739 0 0)
(1.39511 -0.372276 0 0.401647 0 0)
(1.44787 -0.393316 0 0.429334 0 0)
(1.62326 -0.442443 0 0.459785 0 0)
(1.68671 -0.471145 0 0.489932 0 0)
(1.87834 -0.531134 0 0.524437 0 0)
(1.94641 -0.56037 0 0.558418 0 0)
(2.14613 -0.627143 0 0.599032 0 0)
(2.22651 -0.653286 0 0.638711 0 0)
(2.43201 -0.733079 0 0.683856 0 0)
(2.53461 -0.763727 0 0.729166 0 0)
(2.74466 -0.858716 0 0.783226 0 0)
(2.87148 -0.89614 0 0.83955 0 0)
(3.09758 -1.00281 0 0.902039 0 0)
(3.24204 -1.04683 0 0.962917 0 0)
(3.50003 -1.1686 0 1.03012 0 0)
(3.64298 -1.22026 0 1.09405 0 0)
(3.92936 -1.35868 0 1.16499 0 0)
(4.03898 -1.40583 0 1.22737 0 0)
(4.33854 -1.55283 0 1.29812 0 0)
(4.40064 -1.58486 0 1.35836 0 0)
(4.70519 -1.73342 0 1.42974 0 0)
(4.71415 -1.73653 0 1.49109 0 0)
(5.01262 -1.88225 0 1.5604 0 0)
(4.97658 -1.85482 0 1.61687 0 0)
(5.28107 -1.99704 0 1.68571 0 0)
(5.22096 -1.95654 0 1.74196 0 0)
(5.55478 -2.10394 0 1.81271 0 0)
(5.48823 -2.06029 0 1.86693 0 0)
(5.86621 -2.21443 0 1.94621 0 0)
(5.79557 -2.17961 0 2.00447 0 0)
(6.22646 -2.33864 0 2.09329 0 0)
(6.12878 -2.31187 0 2.15867 0 0)
(6.61046 -2.47686 0 2.26005 0 0)
(6.44026 -2.43777 0 2.33369 0 0)
(6.95521 -2.60187 0 2.43901 0 0)
(6.67076 -2.52185 0 2.50663 0 0)
(7.20303 -2.68552 0 2.60669 0 0)
(6.80894 -2.55405 0 2.65072 0 0)
(7.36401 -2.72015 0 2.73194 0 0)
(6.87284 -2.55923 0 2.76182 0 0)
(7.49341 -2.74657 0 2.8372 0 0)
(6.90218 -2.58682 0 2.87148 0 0)
(7.622 -2.80149 0 2.95591 0 0)
(6.90399 -2.63926 0 3.00152 0 0)
(7.7076 -2.86354 0 3.09675 0 0)
(6.85162 -2.66793 0 3.13634 0 0)
(7.71136 -2.87364 0 3.22201 0 0)
(6.75373 -2.63428 0 3.21982 0 0)
(7.67798 -2.79532 0 3.25967 0 0)
(6.65257 -2.54511 0 3.23143 0 0)
(7.70537 -2.71458 0 3.27844 0 0)
(6.6089 -2.47016 0 3.27398 0 0)
(7.81809 -2.67321 0 3.32611 0 0)
(6.62577 -2.41402 0 3.32183 0 0)
(8.0162 -2.68782 0 3.38486 0 0)
(6.69762 -2.40777 0 3.41435 0 0)
(8.24301 -2.76342 0 3.52735 0 0)
(6.82088 -2.44638 0 3.5998 0 0)
(8.43211 -2.85088 0 3.77055 0 0)
(6.93221 -2.49131 0 3.85947 0 0)
(8.56807 -2.89144 0 4.05598 0 0)
(6.96109 -2.50382 0 4.13784 0 0)
(8.65172 -2.88641 0 4.31151 0 0)
(6.91252 -2.4759 0 4.35226 0 0)
(8.68756 -2.86122 0 4.49405 0 0)
(6.83967 -2.4194 0 4.50147 0 0)
(8.62675 -2.78944 0 4.63204 0 0)
(6.80274 -2.32621 0 4.63432 0 0)
(8.55846 -2.68986 0 4.80231 0 0)
(6.81727 -2.24645 0 4.82019 0 0)
(8.57818 -2.58921 0 4.98095 0 0)
(6.89324 -2.19358 0 5.0022 0 0)
(8.69696 -2.57759 0 5.18512 0 0)
(7.06787 -2.21815 0 5.24276 0 0)
(8.90323 -2.63248 0 5.45339 0 0)
(7.28621 -2.25614 0 5.51752 0 0)
(9.09231 -2.68598 0 5.75414 0 0)
(7.48978 -2.28473 0 5.83636 0 0)
(9.22619 -2.72084 0 6.12296 0 0)
(7.62494 -2.29786 0 6.22351 0 0)
(9.20905 -2.71914 0 6.55075 0 0)
(7.62672 -2.28045 0 6.70295 0 0)
(9.13512 -2.72554 0 7.08515 0 0)
(7.50446 -2.26603 0 7.26474 0 0)
(9.03814 -2.72606 0 7.65918 0 0)
(7.31368 -2.23654 0 7.75215 0 0)
(8.91498 -2.71492 0 8.0925 0 0)
(7.12535 -2.14353 0 8.10855 0 0)
(8.76816 -2.60881 0 8.3556 0 0)
(7.00503 -1.98523 0 8.29891 0 0)
(8.63216 -2.46646 0 8.54675 0 0)
(6.95317 -1.85953 0 8.47833 0 0)
(8.51107 -2.35242 0 8.72095 0 0)
(6.96457 -1.74804 0 8.63645 0 0)
(8.42704 -2.23808 0 8.89021 0 0)
(7.01547 -1.60058 0 8.80602 0 0)
(8.31899 -2.07805 0 9.06559 0 0)
(7.05737 -1.47322 0 9.02183 0 0)
(8.19796 -1.93689 0 9.30819 0 0)
(7.13491 -1.40219 0 9.31011 0 0)
(8.16979 -1.84453 0 9.62526 0 0)
(7.28126 -1.39019 0 9.68232 0 0)
(8.17073 -1.80138 0 9.99366 0 0)
(7.36119 -1.38079 0 10.0839 0 0)
(8.11995 -1.77144 0 10.3731 0 0)
(7.36583 -1.3715 0 10.4155 0 0)
(8.06328 -1.73383 0 10.6439 0 0)
(7.29414 -1.33253 0 10.6834 0 0)
(7.98252 -1.69365 0 10.8937 0 0)
(7.25021 -1.32728 0 10.9407 0 0)
(7.85644 -1.6834 0 11.098 0 0)
(7.28267 -1.40338 0 11.2266 0 0)
(7.74429 -1.69467 0 11.4274 0 0)
(7.37327 -1.49211 0 11.5795 0 0)
(7.70025 -1.6737 0 11.7479 0 0)
(7.47542 -1.55305 0 11.8818 0 0)
(7.70182 -1.62479 0 12.0124 0 0)
(7.59011 -1.5458 0 12.1412 0 0)
(7.76488 -1.54199 0 12.3277 0 0)
(7.68581 -1.48403 0 12.5145 0 0)
(7.83896 -1.44153 0 12.7034 0 0)
(7.74564 -1.40692 0 12.9055 0 0)
(7.84644 -1.32002 0 13.0213 0 0)
(7.80412 -1.31585 0 13.2487 0 0)
(7.76952 -1.1755 0 13.4366 0 0)
(7.70663 -1.17647 0 13.6945 0 0)
(7.59457 -1.00731 0 13.8156 0 0)
(7.58337 -0.984312 0 13.9415 0 0)
(7.45111 -0.857102 0 14.022 0 0)
(7.47591 -0.753861 0 14.1679 0 0)
(7.32785 -0.704177 0 14.2133 0 0)
(7.35831 -0.543822 0 14.2456 0 0)
(7.20864 -0.523415 0 14.1955 0 0)
(7.21758 -0.321969 0 14.2249 0 0)
(7.10825 -0.330896 0 14.1808 0 0)
(7.10145 -0.136589 0 14.2671 0 0)
(6.99769 -0.173033 0 14.2303 0 0)
(7.04861 -0.00432136 0 14.3244 0 0)
(6.98139 -0.0399971 0 14.2111 0 0)
(7.02015 0.101766 0 14.3526 0 0)
(6.8613 0.0156366 0 14.2621 0 0)
(6.90669 0.136754 0 14.4234 0 0)
(6.70912 0.0632797 0 14.3758 0 0)
(6.74036 0.149756 0 14.4875 0 0)
(6.57724 0.0586667 0 14.3924 0 0)
(6.66094 0.112185 0 14.4087 0 0)
(6.49592 -0.0193677 0 14.2884 0 0)
(6.59556 0.0223693 0 14.3085 0 0)
(6.38393 -0.228319 0 14.203 0 0)
(6.49979 -0.107924 0 14.118 0 0)
(6.34228 -0.438223 0 13.9474 0 0)
(6.35849 -0.329094 0 13.7915 0 0)
(6.36898 -0.701369 0 13.6673 0 0)
(6.17351 -0.531007 0 13.2864 0 0)
(6.47072 -0.989731 0 13.0301 0 0)
(6.11082 -0.614274 0 12.6097 0 0)
(6.48815 -1.08655 0 12.309 0 0)
(6.15912 -0.645743 0 11.9621 0 0)
(6.54265 -1.0958 0 11.5211 0 0)
(6.22038 -0.715587 0 11.3511 0 0)
(6.57085 -1.00087 0 10.7586 0 0)
(6.25842 -0.825024 0 10.7576 0 0)
(6.48927 -0.892259 0 9.92253 0 0)
(6.16753 -0.947419 0 10.2524 0 0)
(6.32408 -0.742026 0 9.11839 0 0)
(6.02934 -1.02214 0 9.8344 0 0)
(6.09731 -0.485623 0 8.45371 0 0)
(5.84303 -1.0587 0 9.5582 0 0)
(5.77326 -0.175559 0 7.99705 0 0)
(5.53499 -0.990395 0 9.51884 0 0)
(5.43381 0.277723 0 7.83688 0 0)
(5.12443 -0.805896 0 9.77044 0 0)
(5.08558 0.840333 0 7.96519 0 0)
(4.67124 -0.493457 0 10.5514 0 0)
(4.52477 1.47265 0 8.578 0 0)
(4.28103 0.00131337 0 12.0655 0 0)
(3.91041 2.40066 0 10.1212 0 0)
(3.76707 0.368975 0 14.3802 0 0)
(3.0666 3.61215 0 13.054 0 0)
(3.41299 2.28821 0 19.6551 0 0)
(1.11683 0.627225 0 21.5076 0 0)
(0.283712 -0.120731 0 0.102489 0 0)
(0.252514 -0.128867 0 0.133501 0 0)
(0.269226 -0.114928 0 0.140568 0 0)
(0.236669 -0.105392 0 0.144488 0 0)
(0.25778 -0.0924841 0 0.144391 0 0)
(0.25415 -0.0931085 0 0.143671 0 0)
(0.292276 -0.0969829 0 0.146663 0 0)
(0.306106 -0.112753 0 0.15523 0 0)
(0.354995 -0.123731 0 0.165093 0 0)
(0.368052 -0.141367 0 0.17566 0 0)
(0.41454 -0.150088 0 0.186856 0 0)
(0.422822 -0.167713 0 0.201359 0 0)
(0.470014 -0.17492 0 0.215982 0 0)
(0.486939 -0.194168 0 0.231184 0 0)
(0.543105 -0.202183 0 0.24429 0 0)
(0.579953 -0.229229 0 0.258717 0 0)
(0.649017 -0.24548 0 0.27426 0 0)
(0.708579 -0.28695 0 0.294398 0 0)
(0.784533 -0.309146 0 0.315706 0 0)
(0.857764 -0.357354 0 0.341941 0 0)
(0.933147 -0.377395 0 0.367388 0 0)
(1.02219 -0.429476 0 0.396689 0 0)
(1.10011 -0.448495 0 0.425142 0 0)
(1.20913 -0.508944 0 0.458604 0 0)
(1.28981 -0.526999 0 0.491256 0 0)
(1.42158 -0.596905 0 0.531573 0 0)
(1.51223 -0.615298 0 0.570839 0 0)
(1.672 -0.697687 0 0.617915 0 0)
(1.77874 -0.723089 0 0.662499 0 0)
(1.96471 -0.821664 0 0.716629 0 0)
(2.07927 -0.85589 0 0.767281 0 0)
(2.2866 -0.968779 0 0.827572 0 0)
(2.38888 -1.00479 0 0.882327 0 0)
(2.6149 -1.12932 0 0.946968 0 0)
(2.68336 -1.15852 0 1.00388 0 0)
(2.92706 -1.29342 0 1.07092 0 0)
(2.93895 -1.30408 0 1.12869 0 0)
(3.19713 -1.44578 0 1.19517 0 0)
(3.14321 -1.43142 0 1.25261 0 0)
(3.42098 -1.58065 0 1.31808 0 0)
(3.31192 -1.53794 0 1.3732 0 0)
(3.61099 -1.69162 0 1.44107 0 0)
(3.47013 -1.63091 0 1.4933 0 0)
(3.80004 -1.78824 0 1.56554 0 0)
(3.6487 -1.72099 0 1.61657 0 0)
(4.01422 -1.88614 0 1.69924 0 0)
(3.86282 -1.82207 0 1.75362 0 0)
(4.26472 -1.99511 0 1.84356 0 0)
(4.09848 -1.93013 0 1.90045 0 0)
(4.53629 -2.10916 0 1.9942 0 0)
(4.31947 -2.02745 0 2.05255 0 0)
(4.79816 -2.21438 0 2.14759 0 0)
(4.49843 -2.09451 0 2.20311 0 0)
(5.01492 -2.28918 0 2.29514 0 0)
(4.62312 -2.11724 0 2.3421 0 0)
(5.18032 -2.32609 0 2.4257 0 0)
(4.71315 -2.10981 0 2.46188 0 0)
(5.31637 -2.34271 0 2.54198 0 0)
(4.80788 -2.11237 0 2.57141 0 0)
(5.46055 -2.37036 0 2.66516 0 0)
(4.91375 -2.15625 0 2.69924 0 0)
(5.61483 -2.41847 0 2.8046 0 0)
(5.00407 -2.22117 0 2.83688 0 0)
(5.74502 -2.44996 0 2.93394 0 0)
(5.03089 -2.24043 0 2.94972 0 0)
(5.8144 -2.42199 0 3.01498 0 0)
(4.98535 -2.1801 0 3.00221 0 0)
(5.85848 -2.35217 0 3.04786 0 0)
(4.9406 -2.09507 0 3.03713 0 0)
(5.94113 -2.30804 0 3.10474 0 0)
(4.95285 -2.03267 0 3.10142 0 0)
(6.09782 -2.29591 0 3.18493 0 0)
(5.04537 -1.99841 0 3.18477 0 0)
(6.32134 -2.33773 0 3.28726 0 0)
(5.20732 -2.01312 0 3.31377 0 0)
(6.56185 -2.42747 0 3.46124 0 0)
(5.39622 -2.06504 0 3.52682 0 0)
(6.75396 -2.5062 0 3.72135 0 0)
(5.53115 -2.08775 0 3.79398 0 0)
(6.86152 -2.51611 0 3.99599 0 0)
(5.56399 -2.06849 0 4.05565 0 0)
(6.92193 -2.48839 0 4.2327 0 0)
(5.56907 -2.02535 0 4.26249 0 0)
(6.95138 -2.43914 0 4.40827 0 0)
(5.60611 -1.99083 0 4.40429 0 0)
(6.98314 -2.36727 0 4.55496 0 0)
(5.68014 -1.96217 0 4.5696 0 0)
(7.05332 -2.29869 0 4.74284 0 0)
(5.81176 -1.91663 0 4.75333 0 0)
(7.21102 -2.23826 0 4.93211 0 0)
(5.99809 -1.91295 0 4.97328 0 0)
(7.44545 -2.27974 0 5.18121 0 0)
(6.22911 -1.95079 0 5.24395 0 0)
(7.71761 -2.34439 0 5.46266 0 0)
(6.48627 -1.98389 0 5.5115 0 0)
(7.96942 -2.42016 0 5.75462 0 0)
(6.73408 -2.00842 0 5.8292 0 0)
(8.1697 -2.45798 0 6.11733 0 0)
(6.92643 -2.01933 0 6.21982 0 0)
(8.27211 -2.48453 0 6.57827 0 0)
(6.99809 -2.00925 0 6.72512 0 0)
(8.27615 -2.50302 0 7.13584 0 0)
(6.92087 -1.97033 0 7.27566 0 0)
(8.19843 -2.47025 0 7.66036 0 0)
(6.72869 -1.90516 0 7.68681 0 0)
(8.0338 -2.40096 0 8.01959 0 0)
(6.52023 -1.77714 0 7.98453 0 0)
(7.87671 -2.26563 0 8.26932 0 0)
(6.40572 -1.63055 0 8.1949 0 0)
(7.82565 -2.12794 0 8.47011 0 0)
(6.39555 -1.49629 0 8.38795 0 0)
(7.84767 -1.9844 0 8.65537 0 0)
(6.50944 -1.35818 0 8.55702 0 0)
(7.9084 -1.82662 0 8.83496 0 0)
(6.66956 -1.24734 0 8.75594 0 0)
(7.93149 -1.71817 0 9.0202 0 0)
(6.88097 -1.20399 0 8.99398 0 0)
(7.99838 -1.65029 0 9.28033 0 0)
(7.11077 -1.19123 0 9.32551 0 0)
(8.12046 -1.61346 0 9.65216 0 0)
(7.27449 -1.20411 0 9.72907 0 0)
(8.18224 -1.58921 0 10.0657 0 0)
(7.29991 -1.18411 0 10.1375 0 0)
(8.17546 -1.5602 0 10.4427 0 0)
(7.26486 -1.1249 0 10.4987 0 0)
(8.15495 -1.52763 0 10.7327 0 0)
(7.26324 -1.09868 0 10.7766 0 0)
(8.13573 -1.52481 0 10.9711 0 0)
(7.3551 -1.18528 0 11.0509 0 0)
(8.12607 -1.58248 0 11.204 0 0)
(7.45606 -1.37186 0 11.3288 0 0)
(8.10485 -1.64048 0 11.5084 0 0)
(7.56294 -1.50434 0 11.6612 0 0)
(8.1015 -1.64032 0 11.8491 0 0)
(7.69691 -1.57371 0 12.0131 0 0)
(8.23616 -1.61845 0 12.1097 0 0)
(7.90739 -1.60153 0 12.2478 0 0)
(8.38772 -1.56446 0 12.409 0 0)
(8.05627 -1.58281 0 12.6386 0 0)
(8.4634 -1.46379 0 12.8195 0 0)
(8.10598 -1.46797 0 13.0672 0 0)
(8.43852 -1.33205 0 13.1698 0 0)
(8.0648 -1.33236 0 13.4258 0 0)
(8.28774 -1.13801 0 13.5958 0 0)
(7.8579 -1.12546 0 13.893 0 0)
(8.08625 -0.896015 0 13.9684 0 0)
(7.6273 -0.930096 0 14.1823 0 0)
(7.89088 -0.700364 0 14.2287 0 0)
(7.37688 -0.718512 0 14.3801 0 0)
(7.63687 -0.517272 0 14.4017 0 0)
(7.24705 -0.429383 0 14.4587 0 0)
(7.43868 -0.347317 0 14.3445 0 0)
(7.18745 -0.231421 0 14.3881 0 0)
(7.3631 -0.195224 0 14.4224 0 0)
(7.15314 -0.0937136 0 14.4669 0 0)
(7.32106 -0.11672 0 14.4303 0 0)
(7.17764 0.054168 0 14.508 0 0)
(7.28365 -0.0137978 0 14.4865 0 0)
(7.16253 0.148139 0 14.5518 0 0)
(7.12014 0.0484113 0 14.5895 0 0)
(7.10113 0.234014 0 14.6264 0 0)
(6.96468 0.0631091 0 14.5884 0 0)
(6.97912 0.250101 0 14.7255 0 0)
(6.82103 0.0780632 0 14.626 0 0)
(6.83912 0.205032 0 14.7107 0 0)
(6.67072 -0.0164719 0 14.6149 0 0)
(6.7038 0.140318 0 14.7295 0 0)
(6.55122 -0.159709 0 14.617 0 0)
(6.60729 0.030444 0 14.4691 0 0)
(6.48421 -0.343248 0 14.4484 0 0)
(6.41453 -0.0940268 0 14.2659 0 0)
(6.39317 -0.624523 0 14.1185 0 0)
(6.28125 -0.221508 0 13.7639 0 0)
(6.23067 -0.868184 0 13.4396 0 0)
(6.31913 -0.357852 0 12.9605 0 0)
(6.12653 -1.04983 0 12.5231 0 0)
(6.43765 -0.505114 0 12.2677 0 0)
(6.11041 -1.13832 0 11.7368 0 0)
(6.49024 -0.761092 0 11.6759 0 0)
(6.15443 -1.1008 0 10.9223 0 0)
(6.48194 -0.999192 0 11.2524 0 0)
(6.13692 -1.02539 0 10.109 0 0)
(6.39072 -1.27775 0 10.8265 0 0)
(5.98121 -0.865988 0 9.27737 0 0)
(6.22941 -1.55381 0 10.4061 0 0)
(5.809 -0.590388 0 8.50347 0 0)
(5.96632 -1.69234 0 10.1641 0 0)