/*--------------------------------*- C++ -*----------------------------------*\
| =========                 |                                                 |
| \\      /  F ield         | OpenFOAM: The Open Source CFD Toolbox           |
|  \\    /   O peration     | Version:  2.4.0                                 |
|   \\  /    A nd           | Web:      www.OpenFOAM.org                      |
|    \\/     M anipulation  |                                                 |
\*---------------------------------------------------------------------------*/
FoamFile
{
    version     2.0;
    format      ascii;
    class       volScalarField;
    location    "1.29";
    object      k_0;
}
// * * * * * * * * * * * * * * * * * * * * * * * * * * * * * * * * * * * * * //

dimensions      [0 2 -2 0 0 0 0];

internalField   nonuniform List<scalar> 
8800
(
8.11022
10.2803
8.77919
6.84711
5.6743
5.01293
4.48612
4.18643
3.87018
3.71741
3.48964
3.42226
3.24426
3.20892
3.05626
3.03343
2.9025
2.87566
2.82919
2.655
1.39
4.36651
5.30765
5.296
5.10432
4.86098
4.52734
4.33727
4.07075
3.93621
3.71736
3.64166
3.46908
3.41884
3.28984
3.25061
3.14384
3.10681
3.01661
3.00719
0.0832757
0.749344
1.53893
1.97111
2.2395
2.46954
2.54896
2.62209
2.61588
2.6098
2.57932
2.55833
2.50921
2.48523
2.44861
2.41747
2.39108
2.36032
2.30797
2.28459
0.00327965
0.0714912
0.240711
0.439836
0.574839
0.706556
0.832812
0.93345
1.02445
1.09025
1.17238
1.2047
1.26943
1.29226
1.34403
1.35884
1.40357
1.40633
1.4208
1.40851
0.000117842
0.00509851
0.0208191
0.0528657
0.0928236
0.116987
0.165009
0.200676
0.248694
0.275742
0.329673
0.351384
0.397865
0.41907
0.46572
0.485332
0.534128
0.55144
0.592694
0.602412
2.62198e-05
0.000324823
0.00140748
0.00377793
0.00877531
0.0116991
0.0183119
0.0236652
0.0344468
0.0409654
0.0549747
0.061454
0.0748519
0.0834216
0.0959909
0.1056
0.119785
0.132872
0.144408
0.161811
2.28023e-05
4.68803e-05
0.000112918
0.000271847
0.000638701
0.000862555
0.00116912
0.00190629
0.00249345
0.00367211
0.00450858
0.00634499
0.00744457
0.00979003
0.0109332
0.013392
0.014826
0.0184643
0.0204199
0.0268526
2.11014e-05
3.59803e-05
5.72081e-05
6.79152e-05
0.000102363
0.000113329
0.000126066
0.000172446
0.000205614
0.000304694
0.000331697
0.000441807
0.000510556
0.000728235
0.000794411
0.00102686
0.00109688
0.00145404
0.00166023
0.00280699
2.07748e-05
2.69506e-05
4.1238e-05
6.79372e-05
8.27229e-05
8.30931e-05
7.84247e-05
7.86165e-05
7.9046e-05
9.45258e-05
0.000100369
0.000100909
0.000101587
0.00011542
0.000120201
0.000135193
0.000138598
0.000156187
0.000162716
0.00022032
2.04169e-05
3.68616e-05
4.44156e-05
4.58379e-05
5.89736e-05
7.575e-05
7.64755e-05
7.49294e-05
7.38851e-05
7.40111e-05
7.95437e-05
8.44942e-05
8.28468e-05
8.2184e-05
8.5161e-05
8.71805e-05
8.72481e-05
8.8962e-05
9.10485e-05
9.28133e-05
2.0564e-05
2.87096e-05
3.7366e-05
6.0507e-05
7.21186e-05
7.2576e-05
7.24007e-05
7.2197e-05
7.05503e-05
7.22008e-05
8.02297e-05
8.26321e-05
8.29589e-05
8.43849e-05
8.43359e-05
8.52858e-05
8.679e-05
8.88613e-05
8.93901e-05
9.28572e-05
2.08666e-05
2.75554e-05
3.89606e-05
7.00924e-05
7.16146e-05
6.9462e-05
6.81126e-05
7.1583e-05
8.58142e-05
9.57601e-05
9.58808e-05
9.46279e-05
9.40688e-05
9.94648e-05
0.000122707
0.000136155
0.000140456
0.000152516
0.000166962
0.000193723
2.08916e-05
2.91238e-05
5.86653e-05
8.30541e-05
8.85476e-05
0.000107972
0.000129166
0.000185745
0.000219259
0.000284467
0.000324171
0.000422423
0.000485341
0.000685708
0.000821198
0.00107088
0.00121289
0.00157858
0.00185453
0.00244217
2.17207e-05
4.38088e-05
0.000117964
0.000337825
0.000507212
0.000917955
0.00123131
0.00203222
0.00259055
0.00378465
0.00455192
0.00649069
0.0074352
0.00986603
0.011264
0.0142873
0.0159721
0.020274
0.0230388
0.0299098
2.48985e-05
0.000305558
0.00143112
0.00455434
0.00725191
0.0133122
0.0172138
0.0265938
0.0324904
0.0442985
0.0507747
0.0655143
0.071855
0.087206
0.0950578
0.112451
0.121309
0.143897
0.156531
0.191441
0.000124004
0.00491132
0.0217231
0.0547724
0.0864923
0.129394
0.155249
0.208081
0.242837
0.285458
0.313294
0.366442
0.386341
0.43342
0.455979
0.505897
0.529155
0.58894
0.617294
0.691562
0.00337362
0.0694569
0.25891
0.418449
0.588186
0.703696
0.827847
0.933462
1.02799
1.08817
1.15952
1.22434
1.25196
1.30816
1.33394
1.38286
1.40226
1.45444
1.47617
1.52753
0.0846632
0.727263
1.56644
1.93895
2.28581
2.4258
2.57947
2.59757
2.62631
2.59663
2.58888
2.54362
2.52524
2.47354
2.46096
2.41937
2.40874
2.38136
2.37075
2.34455
1.40704
4.34745
5.32185
5.28627
5.1327
4.79462
4.5911
4.27206
4.13055
3.87226
3.77875
3.57507
3.52173
3.36557
3.32821
3.20149
3.17168
3.05173
3.01313
2.91144
8.12047
10.2604
8.79721
6.81357
5.71472
4.95736
4.54214
4.12673
3.92696
3.65139
3.55475
3.34447
3.3033
3.13354
3.10257
2.93952
2.90828
2.73022
2.66569
2.44838
1.87098
1.38507
1.11493
0.947571
0.838183
0.767504
0.719567
0.688597
0.663988
0.647393
0.629284
0.617764
0.602232
0.593994
0.579797
0.571265
0.554333
0.54339
0.527058
0.514172
0.502859
0.490765
0.477655
0.471743
0.463896
0.459414
0.456986
0.457367
0.45793
0.458285
0.457598
0.454839
0.448288
0.438991
0.433002
0.421648
0.416489
0.405613
0.40133
0.392223
0.389092
0.382618
0.380535
0.376478
0.375355
0.373675
0.372473
0.372582
0.371463
0.371373
0.369377
0.368629
0.365489
0.363554
0.358726
0.354452
0.347206
0.340042
0.337162
0.329862
0.328386
0.324244
0.325786
0.327741
0.33312
0.336804
0.343644
0.348414
0.351739
0.358291
0.361025
0.368451
0.371453
0.369582
0.369976
0.372493
0.386216
0.387263
0.392844
0.395461
0.410318
0.418337
0.431776
0.431322
0.429325
0.417877
0.40403
0.377645
0.339635
0.306871
0.26139
0.230962
0.197111
0.175552
0.15369
0.141422
0.128745
0.120262
0.113833
0.108668
0.1067
0.106604
0.107714
0.111401
0.116512
0.128299
0.137109
0.154295
0.167617
0.183971
0.195764
0.203593
0.212703
0.213637
0.219361
0.219189
0.219644
0.216564
0.212496
0.200631
0.189209
0.165276
0.139679
0.107943
0.0709221
0.0452953
0.0283244
0.0184034
0.0125879
0.00992204
0.00882609
0.00888028
0.00883517
0.00890955
0.00872505
0.0091375
0.00901925
0.00904176
0.00863387
0.00798521
0.00718293
0.00698304
0.00671453
0.00672844
0.00657167
0.006533
0.00643254
0.0064242
0.00637788
0.00645369
0.00678074
0.00753553
0.00820874
0.0103322
0.0140206
0.0215798
0.0424759
0.142756
0.394116
0.448883
0.520768
0.482914
0.505718
0.490481
0.425871
0.361051
0.304264
0.273451
0.254272
0.23437
0.207216
0.18842
0.179333
0.17311
0.165411
0.147922
0.0960679
0.0621312
0.0557018
0.0586893
0.0824919
0.166401
0.228516
0.242169
0.238326
0.214038
0.176912
0.124555
0.105427
0.0958275
0.0847712
0.0798154
0.0757181
0.0768403
0.0788104
0.0828599
0.0900843
0.109529
0.134423
0.224598
2.56962
2.11842
1.78074
1.53563
1.34927
1.21293
1.10638
1.03017
0.965467
0.918697
0.874106
0.841157
0.807226
0.782973
0.757637
0.740278
0.720554
0.70692
0.690307
0.678415
0.663224
0.653164
0.639691
0.628961
0.618924
0.607573
0.599754
0.588926
0.584577
0.576217
0.573565
0.567663
0.56468
0.557515
0.554141
0.546557
0.543024
0.535088
0.531187
0.523344
0.518618
0.512939
0.505882
0.50295
0.495779
0.492916
0.486814
0.485104
0.480477
0.478965
0.475128
0.473506
0.471071
0.46643
0.4642
0.458212
0.455014
0.446608
0.44364
0.43714
0.432278
0.428584
0.42101
0.418922
0.41345
0.411841
0.406192
0.404283
0.398897
0.397006
0.39229
0.389271
0.384854
0.378807
0.376326
0.373609
0.373154
0.370012
0.36977
0.368044
0.367403
0.364104
0.361581
0.357975
0.359048
0.35956
0.364375
0.369646
0.372188
0.371383
0.368966
0.360172
0.352747
0.335729
0.320921
0.302154
0.284606
0.266391
0.255817
0.240194
0.233734
0.225336
0.224678
0.223348
0.224068
0.223159
0.223902
0.222603
0.223624
0.222107
0.22237
0.220059
0.218241
0.212334
0.207033
0.193374
0.183784
0.162672
0.142398
0.116152
0.0892974
0.0624739
0.0431833
0.0290853
0.0192546
0.0131178
0.00970975
0.00777796
0.00701346
0.00711036
0.00754669
0.00818788
0.00862702
0.00860701
0.00883027
0.00919709
0.00983022
0.00965145
0.00965076
0.00931851
0.00949434
0.00929396
0.00932833
0.00913623
0.00909639
0.00896216
0.00902124
0.00898695
0.00906952
0.00953039
0.0102829
0.0110782
0.0122912
0.0178617
0.0235947
0.0406385
0.0957528
0.378657
0.481881
0.524061
0.522456
0.531687
0.545073
0.4998
0.396911
0.302698
0.254981
0.232066
0.222354
0.218278
0.206704
0.186821
0.170455
0.166471
0.162309
0.156615
0.141738
0.0939302
0.0640091
0.0591971
0.0626141
0.0861091
0.162408
0.2164
0.234295
0.229883
0.216921
0.185719
0.142868
0.118239
0.100519
0.0906898
0.084902
0.0847482
0.0855631
0.0878583
0.0956809
0.108083
0.119322
0.131355
2.06987
1.84235
1.63642
1.468
1.32569
1.21145
1.11304
1.03878
0.972989
0.92303
0.876763
0.840693
0.804862
0.776536
0.746648
0.72452
0.701723
0.683487
0.667307
0.652474
0.639622
0.626642
0.615682
0.602387
0.59305
0.579632
0.572323
0.559414
0.55351
0.5429
0.538559
0.530007
0.526153
0.519058
0.514105
0.509464
0.503798
0.501078
0.495569
0.493312
0.488052
0.485876
0.480675
0.478335
0.4733
0.470575
0.466714
0.462353
0.460786
0.456901
0.455627
0.452249
0.451375
0.448608
0.447185
0.443813
0.440289
0.437229
0.430746
0.427096
0.418973
0.414604
0.404997
0.400398
0.389861
0.384737
0.373717
0.368405
0.357021
0.351375
0.33906
0.333405
0.321101
0.316397
0.305803
0.301089
0.291557
0.288553
0.281568
0.279111
0.273048
0.270681
0.266757
0.266229
0.266258
0.266966
0.269777
0.272942
0.279669
0.28244
0.288178
0.291718
0.299244
0.301905
0.304451
0.304282
0.303646
0.300516
0.297279
0.289483
0.283621
0.274441
0.266324
0.256712
0.248287
0.240606
0.230014
0.223251
0.212505
0.203642
0.186515
0.176437
0.151604
0.137268
0.111341
0.0921164
0.0698094
0.0527815
0.0390722
0.0283427
0.0203237
0.0144467
0.010421
0.00790361
0.00635654
0.00566896
0.00567846
0.00576567
0.0060179
0.00660536
0.00804285
0.00864943
0.00934332
0.00977192
0.0115891
0.0124359
0.0138868
0.0136789
0.0139236
0.0139025
0.0143516
0.0141988
0.0141474
0.0137023
0.0135318
0.0132326
0.0133478
0.0134796
0.0139078
0.0152898
0.0158828
0.0173232
0.0218278
0.0290968
0.0395517
0.0940666
0.256671
0.505746
0.519905
0.596243
0.485312
0.594408
0.557094
0.47916
0.393003
0.258269
0.21314
0.19292
0.18631
0.187048
0.188754
0.183282
0.16828
0.156797
0.155032
0.153488
0.149736
0.136238
0.0909857
0.0655895
0.0616869
0.0653876
0.0875505
0.147695
0.20772
0.222741
0.221164
0.214709
0.195296
0.166735
0.137304
0.116589
0.102881
0.0971594
0.0953359
0.0964318
0.101132
0.105917
0.114096
0.119867
1.31802
1.22052
1.12855
1.04464
0.968909
0.905533
0.843148
0.792993
0.745773
0.70791
0.675352
0.649117
0.625065
0.603716
0.582398
0.560845
0.542325
0.522738
0.506322
0.493465
0.480171
0.470793
0.461864
0.452224
0.443806
0.434905
0.424056
0.416955
0.405755
0.398771
0.390728
0.384677
0.377795
0.373833
0.366548
0.363361
0.356988
0.353452
0.348441
0.345782
0.341783
0.339655
0.337433
0.334706
0.333808
0.331485
0.3305
0.327274
0.325971
0.322736
0.321518
0.318292
0.31748
0.315611
0.315179
0.314235
0.313497
0.311964
0.309747
0.304665
0.301047
0.293156
0.287761
0.277962
0.271123
0.260092
0.25314
0.240672
0.233187
0.221648
0.21155
0.20156
0.190986
0.18309
0.17264
0.166302
0.158354
0.15429
0.147296
0.145063
0.140557
0.138656
0.133392
0.130804
0.128833
0.128872
0.129631
0.133806
0.137497
0.146458
0.151512
0.160559
0.164397
0.170557
0.174011
0.176852
0.180046
0.181752
0.181401
0.180683
0.176737
0.173519
0.164582
0.158499
0.145789
0.134921
0.123985
0.107661
0.0962243
0.0799618
0.0659612
0.0540128
0.0429678
0.0342183
0.0265064
0.0202514
0.0154028
0.0116314
0.00883064
0.00673903
0.00556035
0.00467534
0.00447625
0.00448167
0.00460492
0.0048522
0.00552329
0.00620785
0.00728265
0.00997348
0.012206
0.0132572
0.0139203
0.0159702
0.0188977
0.019995
0.0199467
0.019134
0.0189789
0.0197777
0.0204908
0.020661
0.0205408
0.0200275
0.0197622
0.019824
0.0199455
0.0204157
0.0222617
0.0234558
0.0244132
0.0299551
0.0372308
0.0480315
0.069215
0.203198
0.394531
0.620299
0.53786
0.638838
0.475058
0.573606
0.530621
0.491789
0.406403
0.253212
0.207391
0.188037
0.160915
0.155651
0.160085
0.164665
0.163338
0.152966
0.147606
0.147147
0.147167
0.144902
0.131662
0.0886296
0.0671055
0.0638426
0.0673779
0.0849766
0.135468
0.192655
0.211132
0.213155
0.209511
0.201771
0.18406
0.164663
0.142993
0.127841
0.119566
0.115276
0.114368
0.115447
0.12005
0.12614
0.580525
0.553037
0.529585
0.500553
0.476767
0.453953
0.430928
0.40813
0.388553
0.367621
0.352815
0.339169
0.33067
0.322135
0.316868
0.307393
0.300265
0.289831
0.277898
0.269082
0.25779
0.250687
0.245107
0.240135
0.236682
0.234396
0.228648
0.225493
0.218797
0.213381
0.206691
0.201775
0.19574
0.193341
0.188352
0.186268
0.182913
0.179954
0.177755
0.173844
0.170883
0.168251
0.165669
0.163475
0.162869
0.161773
0.1616
0.161269
0.161122
0.160903
0.160196
0.158313
0.156232
0.153831
0.151176
0.149326
0.147826
0.14631
0.145391
0.143373
0.141703
0.138737
0.13435
0.12966
0.122474
0.114818
0.109704
0.100513
0.095791
0.0877289
0.082447
0.075537
0.0702112
0.064465
0.0600945
0.0555658
0.0524793
0.0496963
0.0479277
0.0463787
0.0457531
0.0454435
0.0454585
0.0447805
0.0430695
0.041397
0.0405369
0.0404009
0.0405718
0.0411776
0.0431924
0.0479194
0.0526001
0.0565641
0.0606614
0.0628341
0.0651811
0.0651575
0.0645819
0.0632918
0.0597315
0.0566465
0.0505331
0.045762
0.0397659
0.0343127
0.0298014
0.0248876
0.0212273
0.0176781
0.0145242
0.0121211
0.00974182
0.00796646
0.00626424
0.00514244
0.00417031
0.00374634
0.00337144
0.0034117
0.00350782
0.00369229
0.00414865
0.00484439
0.00615638
0.0077445
0.0104955
0.01289
0.01704
0.0215166
0.0240363
0.025191
0.0271624
0.0308784
0.0330818
0.0332183
0.032349
0.0304518
0.0303718
0.0304604
0.0307809
0.0307958
0.0305512
0.0299532
0.0300425
0.030264
0.0306348
0.0321878
0.0336673
0.0355019
0.0389923
0.0523607
0.0593905
0.0749667
0.116201
0.387896
0.523132
0.62081
0.508126
0.56192
0.454393
0.427367
0.469336
0.538868
0.487054
0.285888
0.219951
0.174961
0.147561
0.139682
0.137652
0.143465
0.149281
0.14769
0.142771
0.141757
0.141883
0.144023
0.141653
0.129206
0.088402
0.068831
0.0659561
0.0685372
0.0822257
0.119493
0.175401
0.199473
0.20424
0.202498
0.197064
0.190502
0.180161
0.17026
0.156338
0.147286
0.14237
0.1422
0.144081
0.149056
0.158622
0.153248
0.149511
0.142461
0.137832
0.133971
0.129421
0.124395
0.119865
0.114161
0.109721
0.106141
0.103724
0.102377
0.101779
0.101125
0.100751
0.0995919
0.0963199
0.0927764
0.0882934
0.0844831
0.0816857
0.0792579
0.0778181
0.0770908
0.0761867
0.0756305
0.0748516
0.0728296
0.0710614
0.0691029
0.0665383
0.0656304
0.0639164
0.063034
0.0623021
0.0609099
0.0603643
0.0591617
0.0577767
0.056577
0.054609
0.053484
0.052484
0.0516731
0.0514022
0.0511969
0.0511411
0.0511867
0.0511838
0.0512717
0.0512457
0.050998
0.0494515
0.0480254
0.0464859
0.0449692
0.044281
0.0431301
0.0423017
0.0414132
0.0398753
0.0389487
0.0371744
0.0349275
0.0327992
0.0300635
0.0281322
0.025898
0.0239086
0.0220282
0.0200883
0.0183922
0.0166461
0.0152154
0.0139667
0.0129501
0.0121955
0.0118663
0.011849
0.0119078
0.0123776
0.0128137
0.012968
0.0127681
0.0117688
0.0109119
0.010418
0.0102499
0.0101843
0.0101861
0.0104876
0.011522
0.0132477
0.0147761
0.016513
0.0172218
0.0173228
0.0172169
0.0167213
0.0159052
0.0139879
0.0121546
0.0100856
0.00822573
0.00682936
0.00545975
0.0046319
0.00383914
0.00337788
0.00287594
0.00269548
0.00234389
0.0023106
0.002346
0.00245183
0.00265781
0.00295223
0.00358626
0.00478427
0.00598365
0.00901995
0.0124569
0.0167518
0.0217876
0.0283893
0.0346705
0.0416947
0.0457337
0.0476534
0.0501366
0.0531232
0.054989
0.0548652
0.0536795
0.0503427
0.047641
0.0468397
0.0462335
0.0453437
0.0441441
0.0440241
0.0437145
0.0445608
0.0461535
0.0487028
0.0521621
0.055633
0.0664463
0.0796905
0.0866162
0.094244
0.118022
0.241091
0.548527
0.592981
0.58014
0.448978
0.388292
0.354502
0.30025
0.364762
0.529017
0.551291
0.39219
0.242548
0.159432
0.143603
0.129577
0.12882
0.128501
0.134797
0.139609
0.136769
0.138469
0.13813
0.142825
0.142574
0.140568
0.127372
0.088361
0.0709165
0.0669983
0.068647
0.0782428
0.100978
0.15101
0.1809
0.193012
0.19276
0.190551
0.186591
0.179289
0.174691
0.16819
0.166041
0.162047
0.159639
0.158305
0.0265301
0.0257502
0.0249336
0.0236921
0.0231893
0.0229188
0.0224362
0.0220867
0.0216928
0.0209984
0.0203315
0.0197598
0.0193985
0.0193587
0.0194063
0.0195941
0.0198433
0.0199173
0.0199196
0.0195799
0.0184212
0.0173497
0.0165204
0.0159626
0.0157821
0.0157939
0.0159721
0.0161666
0.0162305
0.0162188
0.0161262
0.0156648
0.0151103
0.0148881
0.0144738
0.0143318
0.0142856
0.0141889
0.0142166
0.0141874
0.0140255
0.0136524
0.0129469
0.0125122
0.0120984
0.0118492
0.0117744
0.0117633
0.0118384
0.0120042
0.0121681
0.0122923
0.0124001
0.0124535
0.0124022
0.0119892
0.0113021
0.0106096
0.0100545
0.00960299
0.00936579
0.00925266
0.00913523
0.00902301
0.00889491
0.00868757
0.00829217
0.0075889
0.00700455
0.00640384
0.00586082
0.00538843
0.00488634
0.00440157
0.00393679
0.00350373
0.00311927
0.00285069
0.00275509
0.00274757
0.00277383
0.00286415
0.00313128
0.00337272
0.00352969
0.00356115
0.00340932
0.00303644
0.0027113
0.00250837
0.002361
0.0022834
0.00223713
0.00222157
0.00245995
0.00317527
0.00402566
0.0046067
0.00486678
0.0048904
0.00484055
0.00469629
0.00417759
0.00340283
0.00263435
0.00201035
0.00158123
0.00128463
0.00110509
0.00107407
0.00110248
0.00120067
0.00137746
0.00152964
0.00181887
0.00227014
0.0028684
0.004433
0.0060464
0.00980783
0.0138631
0.0187015
0.0291121
0.0369552
0.0477131
0.0600618
0.0710279
0.082022
0.0893781
0.0907613
0.094015
0.0946891
0.0939606
0.092474
0.0874
0.0800903
0.0773222
0.0728211
0.0687817
0.0660649
0.0633358
0.0621993
0.0622328
0.063157
0.0692275
0.0782675
0.083098
0.0888214
0.119372
0.156687
0.165053
0.165185
0.169691
0.249249
0.432554
0.576606
0.587508
0.470673
0.426758
0.398823
0.282035
0.247407
0.263707
0.483256
0.570484
0.489494
0.255778
0.166365
0.146324
0.123182
0.127669
0.12606
0.125359
0.135396
0.134444
0.13741
0.137383
0.14205
0.146671
0.147435
0.145849
0.132024
0.0941687
0.0731336
0.0688807
0.0692793
0.0741062
0.0887001
0.118799
0.156212
0.173917
0.180714
0.180599
0.177902
0.175051
0.169177
0.165755
0.161046
0.15755
0.153512
0.00290715
0.00287203
0.0027938
0.00268127
0.00262256
0.00259829
0.00255555
0.0025426
0.00253992
0.00252841
0.00249563
0.00245254
0.00240083
0.00237934
0.00237292
0.00237764
0.00240868
0.00242357
0.00242733
0.00238567
0.0022445
0.00212452
0.00203558
0.00199017
0.00198479
0.00202119
0.0020817
0.002124
0.00213494
0.00212552
0.00208063
0.00202035
0.00198873
0.00199026
0.00199702
0.0020289
0.00208138
0.00210122
0.00213981
0.0021431
0.00212234
0.00205186
0.00194094
0.00187263
0.00182555
0.00180648
0.00180674
0.00182541
0.00184324
0.0018579
0.00186236
0.00186259
0.00185906
0.00183997
0.00178216
0.00172031
0.00164299
0.00156077
0.00150416
0.00147261
0.00147749
0.00156405
0.00162362
0.00164516
0.00164427
0.00162654
0.00151119
0.0013561
0.00120602
0.00109383
0.000989435
0.000906642
0.000826834
0.000750055
0.000671002
0.000606167
0.00056356
0.000550106
0.000551644
0.000568905
0.000610467
0.000646705
0.000686948
0.000719637
0.00073558
0.000731815
0.000692485
0.000633512
0.000580679
0.000541939
0.00051739
0.000494778
0.000479141
0.000457381
0.000452887
0.000516939
0.000781973
0.00103699
0.00118071
0.00124059
0.00124142
0.00122304
0.00106794
0.000897145
0.000728404
0.000653628
0.000625133
0.000633945
0.000666662
0.000736975
0.000967928
0.0011885
0.00170547
0.00232887
0.00385883
0.00568806
0.00867566
0.0148108
0.0200186
0.032104
0.0422117
0.0590764
0.0804819
0.0976907
0.122175
0.141757
0.1581
0.171144
0.17353
0.172613
0.16988
0.163712
0.157322
0.142405
0.125326
0.119036
0.110216
0.104864
0.097769
0.0894583
0.0884851
0.0897717
0.0944402
0.103789
0.130613
0.152778
0.166015
0.201155
0.249398
0.254028
0.239883
0.230923
0.23891
0.38031
0.505736
0.565622
0.510933
0.427798
0.387315
0.29173
0.263896
0.248932
0.262085
0.449316
0.583455
0.524262
0.28751
0.204462
0.152258
0.122569
0.125617
0.126822
0.125252
0.133025
0.138201
0.141396
0.139322
0.141356
0.149251
0.15034
0.152437
0.147765
0.13577
0.099073
0.0773121
0.0702327
0.0695763
0.0717043
0.0794709
0.0959474
0.122306
0.143147
0.157266
0.162985
0.163508
0.162032
0.158685
0.154367
0.149192
0.145571
0.00022619
0.000230886
0.00023593
0.000239323
0.000241062
0.000243707
0.00024603
0.000249891
0.000254478
0.000255965
0.000255854
0.000254213
0.000250649
0.000248313
0.000247089
0.000246827
0.000247602
0.000249417
0.000251469
0.000251859
0.000248207
0.000238072
0.000228141
0.000221955
0.000219196
0.000218929
0.000219445
0.000220049
0.000220094
0.000219366
0.000218178
0.00021677
0.000216264
0.000219262
0.000223285
0.000230634
0.000235861
0.000237957
0.000242278
0.000243902
0.000244918
0.000245304
0.000241964
0.000236645
0.000232805
0.000231375
0.000232026
0.000234018
0.000234456
0.000232484
0.000228205
0.000225799
0.000225607
0.000229706
0.00023496
0.000238644
0.000239119
0.000234745
0.000226761
0.000220712
0.000218515
0.000219589
0.000220731
0.000220701
0.000220545
0.00021742
0.000207687
0.000197064
0.000190838
0.000189817
0.000190327
0.00019305
0.000197162
0.000201168
0.000204742
0.000209001
0.000214949
0.000219554
0.00022121
0.000221704
0.000222148
0.000221845
0.000223909
0.000227244
0.000230235
0.000230868
0.000231235
0.000232544
0.000232638
0.000233041
0.00023276
0.000232964
0.000233583
0.000239311
0.000243467
0.000248821
0.000264132
0.000311967
0.000350882
0.000386217
0.000411589
0.000430838
0.000442689
0.000466101
0.000512613
0.000588706
0.000691044
0.00093464
0.00127756
0.00160048
0.00258364
0.00357537
0.00565726
0.00815117
0.0138728
0.0196848
0.0312676
0.0446717
0.0620641
0.0920647
0.116426
0.157581
0.195154
0.227497
0.269458
0.292236
0.313369
0.31592
0.310592
0.302812
0.282367
0.258657
0.237393
0.199525
0.183023
0.175653
0.15586
0.141817
0.13502
0.130747
0.130933
0.136232
0.172354
0.215462
0.22482
0.23519
0.256953
0.258761
0.245296
0.219808
0.213632
0.220469
0.281073
0.456971
0.51643
0.502395
0.417188
0.395081
0.363294
0.239892
0.226911
0.24478
0.275049
0.431417
0.629108
0.591382
0.326913
0.225031
0.168089
0.125517
0.117456
0.13105
0.12812
0.129648
0.136402
0.14084
0.148072
0.14334
0.154425
0.1577
0.166624
0.164698
0.160779
0.147293
0.112199
0.0829981
0.0729134
0.0698686
0.0701737
0.0729664
0.080495
0.0947815
0.107817
0.120275
0.127339
0.133074
0.132638
0.130621
0.124727
0.119074
9.29785e-05
9.40265e-05
9.60682e-05
9.96718e-05
0.000100077
0.000100022
9.94766e-05
9.91088e-05
9.90913e-05
9.89732e-05
9.90113e-05
9.99394e-05
0.000102149
0.000105002
0.000107647
0.000109612
0.000110653
0.000110894
0.00011049
0.000109211
0.000108414
0.00010809
0.000107977
0.000107919
0.000107219
0.000106039
0.000105072
0.000104677
0.000104512
0.000104605
0.000104987
0.00010538
0.000105337
0.000105045
0.000104629
0.00010457
0.000105293
0.000106894
0.000108068
0.00010873
0.000109012
0.00010983
0.000113543
0.000116999
0.000119531
0.000120186
0.000119698
0.000118684
0.000118659
0.000121469
0.000124927
0.000126636
0.000126932
0.000126604
0.000126164
0.0001261
0.000127046
0.000131899
0.000136291
0.000140493
0.000141715
0.000140707
0.000137969
0.000136233
0.000136032
0.000136461
0.000138169
0.000139522
0.000141955
0.000155854
0.000173274
0.0001974
0.0002213
0.00024412
0.00026634
0.000278291
0.000283407
0.000292514
0.000298226
0.000303487
0.000303386
0.000296867
0.000291362
0.000294346
0.000316022
0.000332394
0.000338848
0.000338535
0.000331263
0.000319418
0.000313573
0.000313463
0.000314805
0.000321662
0.000330425
0.000350434
0.000366457
0.000391715
0.000425401
0.000452914
0.00051381
0.000601951
0.000687056
0.00090207
0.00128059
0.00167449
0.00225734
0.00327576
0.00460383
0.00594249
0.00961671
0.013228
0.0204749
0.0298846
0.0427327
0.0638219
0.0909973
0.126806
0.169382
0.226931
0.288907
0.354137
0.404385
0.448733
0.467067
0.47253
0.470795
0.460655
0.43702
0.421049
0.39059
0.353394
0.32898
0.294141
0.25664
0.224231
0.209136
0.19691
0.185759
0.187643
0.209504
0.262046
0.272111
0.268326
0.249923
0.205295
0.186865
0.163357
0.140635
0.135257
0.154986
0.237461
0.34872
0.464078
0.491145
0.409098
0.38998
0.375293
0.26375
0.199508
0.164827
0.19751
0.273834
0.4369
0.693052
0.666634
0.363222
0.229328
0.171215
0.124434
0.117756
0.123469
0.150542
0.135613
0.178363
0.154694
0.202187
0.164614
0.163139
0.16483
0.177039
0.176741
0.174927
0.167836
0.156376
0.130577
0.0939986
0.0786013
0.072231
0.0705845
0.0708577
0.0731105
0.0763387
0.0832635
0.0861299
0.0914669
0.0927463
0.0923879
0.0909237
0.0892173
9.37344e-05
9.48475e-05
9.72417e-05
0.000101876
0.000104054
0.000104863
0.000105283
0.000105536
0.000106334
0.00010701
0.000107578
0.000109031
0.000110281
0.000113121
0.000116519
0.000120146
0.000124383
0.000127246
0.000128504
0.000128767
0.000128255
0.000128083
0.000128877
0.000131194
0.000133753
0.00013525
0.000136003
0.000136677
0.000138209
0.000143795
0.00015136
0.00015616
0.000158209
0.000158294
0.000155573
0.000151461
0.000149313
0.000148962
0.000153104
0.000172124
0.000187607
0.000205161
0.000221039
0.000229658
0.000237954
0.000240518
0.000240775
0.00023822
0.000225613
0.000216178
0.000207193
0.000201628
0.000199181
0.000197947
0.000202242
0.000225596
0.000265665
0.000310178
0.000350034
0.000388149
0.000408467
0.000416776
0.000421
0.000423419
0.00042633
0.000435678
0.000447122
0.000456315
0.000482624
0.000581529
0.000674991
0.000802273
0.000917539
0.00102033
0.00112265
0.0012009
0.00127966
0.00132801
0.00133534
0.00133302
0.00130951
0.00123991
0.0011929
0.00118503
0.0012239
0.00127679
0.00130655
0.00131372
0.00131192
0.00127478
0.00123961
0.00123456
0.00123843
0.00126001
0.00133696
0.00141654
0.00149801
0.00155681
0.00166396
0.00176497
0.00195957
0.00230929
0.00269939
0.00338605
0.00487085
0.00601473
0.00839045
0.0109981
0.0160343
0.0209923
0.0319818
0.0427374
0.0656195
0.0876569
0.127278
0.175964
0.23322
0.315079
0.396044
0.469107
0.513022
0.536055
0.550236
0.548885
0.537843
0.530163
0.516798
0.49294
0.473805
0.444942
0.421938
0.399614
0.360163
0.32924
0.313876
0.280224
0.239332
0.230983
0.237271
0.286356
0.323806
0.319304
0.265162
0.178767
0.127513
0.102793
0.0962189
0.0934393
0.0948783
0.113529
0.181872
0.292214
0.370209
0.429102
0.40932
0.352803
0.353421
0.338857
0.2232
0.157081
0.152082
0.186098
0.278484
0.489063
0.77154
0.731714
0.378182
0.227201
0.157617
0.134148
0.136626
0.123823
0.190488
0.14248
0.313209
0.199638
0.687102
0.354477
0.252896
0.210227
0.213201
0.209552
0.200975
0.184224
0.169251
0.155128
0.13562
0.112623
0.0899843
0.0790741
0.0731942
0.0737267
0.0737344
0.0740971
0.0746664
0.0755566
0.0759322
0.075694
0.0748479
0.0711721
0.000219223
0.000225965
0.000239033
0.000255056
0.000260742
0.000270775
0.000282082
0.000292634
0.0003234
0.000338405
0.000364321
0.000395662
0.000412238
0.000451553
0.000469505
0.000486729
0.000502988
0.000505581
0.000508336
0.000509423
0.000509393
0.000511624
0.000535898
0.000585849
0.000635055
0.000697971
0.000723242
0.000761496
0.000789352
0.000809473
0.000857591
0.00087771
0.00089691
0.000917547
0.00092261
0.000930648
0.000947025
0.000957621
0.000981122
0.00102478
0.00107628
0.00116907
0.00124534
0.00130111
0.00136174
0.0013831
0.00140268
0.00141782
0.00141719
0.00141642
0.00139372
0.00135397
0.00132783
0.00130962
0.0013103
0.00139326
0.00161991
0.00186414
0.00210256
0.00230501
0.0024508
0.00252106
0.00254822
0.0025661
0.00257845
0.00260289
0.0026507
0.00268763
0.00278815
0.00312727
0.00350396
0.00396091
0.0044036
0.00480957
0.00520532
0.00554561
0.00574316
0.00579294
0.00578162
0.005734
0.00555197
0.00524794
0.00500757
0.00491903
0.004953
0.00513154
0.00526018
0.00531849
0.00535213
0.00534409
0.00520995
0.00515624
0.0051597
0.0052192
0.00537022
0.00550856
0.00572113
0.00590361
0.00628425
0.00672423
0.00762649
0.0085438
0.0107528
0.0127473
0.0168155
0.0210733
0.0292819
0.0367333
0.0521043
0.0682116
0.0915891
0.133207
0.170428
0.239813
0.317772
0.405534
0.486922
0.537397
0.566148
0.578857
0.581781
0.580177
0.573242
0.555449
0.535836
0.525254
0.496663
0.463478
0.453656
0.435409
0.408658
0.38885
0.354036
0.312281
0.291644
0.280801
0.279884
0.315613
0.379693
0.374449
0.293024
0.186042
0.135116
0.111248
0.0895438
0.07815
0.0775711
0.0806233
0.0924804
0.138605
0.226544
0.308791
0.359659
0.365032
0.329882
0.330887
0.349646
0.303185
0.213232
0.167888
0.167171
0.198486
0.310497
0.552497
0.864613
0.819542
0.406901
0.218533
0.154546
0.172058
0.177252
0.160121
0.220196
0.162509
0.338072
0.288363
1.24974
0.511421
0.437599
0.326322
0.341478
0.362776
0.342412
0.269937
0.209162
0.180721
0.157904
0.140385
0.117198
0.103716
0.0836192
0.0812488
0.0779191
0.0760366
0.0768256
0.0758246
0.0747528
0.0717156
0.0707138
0.0690196
0.00279732
0.00291177
0.00303615
0.00312517
0.0031578
0.00323002
0.00329334
0.00337836
0.00363387
0.00376457
0.00403018
0.00425562
0.00438484
0.00462336
0.00468498
0.00478276
0.0048656
0.00488289
0.0049468
0.00497497
0.00500368
0.00504974
0.00533484
0.00575597
0.00611927
0.00649296
0.00662329
0.00678895
0.00687371
0.00689772
0.00700364
0.00703725
0.00705948
0.00713963
0.00717967
0.00730901
0.00745805
0.00751938
0.00766555
0.00774321
0.00784109
0.00814083
0.0083877
0.00870063
0.00895364
0.0091
0.00920688
0.00924355
0.00918257
0.00898573
0.0087353
0.00851421
0.0084266
0.00839535
0.00846623
0.00908813
0.00982596
0.0105296
0.0112863
0.0117731
0.0121303
0.0123376
0.0124153
0.0125123
0.0126111
0.0127539
0.0129514
0.0131648
0.0137229
0.0146774
0.0155899
0.0165673
0.0175629
0.0183013
0.0189607
0.0196038
0.0199742
0.0200723
0.0200444
0.0199271
0.0195998
0.0189777
0.0184453
0.0182206
0.0181292
0.0180613
0.0180469
0.0180155
0.017993
0.0177855
0.0175596
0.0174583
0.0174868
0.0175966
0.0178405
0.0181685
0.0189377
0.0197447
0.0213433
0.0231622
0.0267859
0.0304447
0.0368388
0.0455732
0.0534448
0.0722053
0.0870517
0.115166
0.144343
0.187968
0.247714
0.318469
0.411961
0.485112
0.536231
0.566434
0.589064
0.597608
0.594491
0.58398
0.560033
0.534499
0.490014
0.456883
0.445131
0.433565
0.407561
0.395593
0.386079
0.367394
0.34976
0.339731
0.325012
0.313726
0.314271
0.345434
0.399123
0.400586
0.344103
0.228564
0.161086
0.133349
0.115796
0.106871
0.0914727
0.0786737
0.0771353
0.0794034
0.0939787
0.161368
0.241062
0.298547
0.316035
0.306262
0.296513
0.323414
0.324664
0.27091
0.199328
0.186672
0.193757
0.263023
0.448294
0.659804
0.938965