/*--------------------------------*- C++ -*----------------------------------*\
| =========                 |                                                 |
| \\      /  F ield         | OpenFOAM: The Open Source CFD Toolbox           |
|  \\    /   O peration     | Version:  2.4.0                                 |
|   \\  /    A nd           | Web:      www.OpenFOAM.org                      |
|    \\/     M anipulation  |                                                 |
\*---------------------------------------------------------------------------*/
FoamFile
{
    version     2.0;
    format      ascii;
    class       volScalarField;
    location    "1.29";
    object      pPrime2Mean;
}
// * * * * * * * * * * * * * * * * * * * * * * * * * * * * * * * * * * * * * //

dimensions      [0 4 -4 0 0 0 0];

internalField   nonuniform List<scalar> 
8800
(
501378
488732
475164
461711
448441
435364
422481
409790
397292
384986
372871
360945
349205
337645
326253
315008
303865
292741
281432
269310
501396
488734
475163
461710
448441
435364
422481
409790
397292
384986
372872
360946
349206
337647
326256
315014
303877
292766
281495
269516
501407
488734
475159
461708
448440
435364
422481
409790
397292
384986
372872
360947
349208
337651
326262
315025
303900
292815
281609
269915
501416
488733
475156
461705
448439
435363
422481
409790
397292
384987
372873
360948
349211
337655
326271
315043
303934
292885
281768
270379
501423
488733
475153
461703
448438
435363
422480
409790
397292
384987
372873
360950
349214
337662
326283
315065
303977
292972
281959
270860
501429
488734
475151
461701
448437
435363
422480
409790
397292
384987
372874
360952
349218
337669
326297
315091
304028
293071
282169
271329
501433
488734
475149
461700
448437
435363
422480
409790
397293
384988
372876
360954
349223
337678
326313
315121
304084
293180
282388
271775
501436
488735
475148
461698
448436
435363
422481
409790
397293
384988
372877
360957
349228
337687
326331
315153
304144
293295
282609
272190
501438
488735
475148
461698
448436
435363
422481
409790
397293
384989
372879
360960
349233
337697
326349
315187
304207
293411
282826
272573
501439
488735
475147
461697
448435
435363
422481
409790
397294
384990
372880
360963
349239
337707
326368
315221
304271
293527
283033
272921
501439
488735
475147
461697
448435
435363
422481
409791
397294
384991
372882
360966
349245
337718
326387
315256
304333
293639
283228
273236
501438
488735
475148
461698
448436
435363
422481
409791
397295
384992
372884
360969
349251
337728
326406
315290
304393
293745
283408
273516
501436
488735
475148
461699
448436
435364
422481
409791
397295
384993
372885
360972
349256
337738
326423
315321
304450
293843
283571
273764
501433
488734
475150
461700
448437
435364
422482
409792
397296
384994
372887
360975
349261
337747
326440
315351
304502
293932
283716
273979
501428
488734
475151
461702
448438
435364
422482
409792
397297
384995
372889
360978
349266
337755
326455
315377
304548
294010
283842
274162
501423
488733
475153
461704
448439
435364
422482
409793
397297
384996
372890
360980
349270
337763
326468
315400
304588
294077
283947
274315
501416
488733
475156
461706
448440
435365
422482
409793
397298
384997
372891
360982
349273
337769
326478
315419
304620
294131
284032
274436
501407
488734
475160
461708
448441
435365
422483
409794
397298
384998
372892
360984
349276
337773
326487
315434
304645
294172
284095
274526
501396
488734
475163
461711
448442
435366
422483
409794
397299
384998
372893
360985
349277
337776
326492
315443
304662
294200
284138
274586
501378
488732
475164
461711
448442
435366
422483
409794
397299
384998
372893
360985
349278
337778
326495
315448
304670
294214
284160
274615
258325
255366
253108
251157
249347
247625
245965
244350
242772
241222
239695
238188
236697
235221
233756
232301
230855
229416
227984
226558
225139
223725
222318
220916
219520
218128
216741
215360
213983
212612
211246
209886
208533
207186
205846
204512
203184
201863
200548
199238
197933
196632
195336
194044
192755
191470
190189
188912
187639
186371
185106
183845
182587
181333
180082
178835
177593
176356
175123
173894
172669
171447
170228
169013
167801
166593
165390
164193
163002
161815
160633
159455
158281
157111
155945
154784
153626
152473
151326
150184
149049
147920
146797
145679
144566
143458
142354
141253
140156
139062
137971
136884
135799
134716
133635
132557
131482
130409
129340
128274
127213
126157
125106
124061
123022
121989
120963
119944
118930
117923
116921
115924
114932
113945
112963
111985
111010
110041
109075
108114
107157
106205
105256
104313
103373
102438
101505
100577
99651
98729.4
97809.3
96892.6
95977.7
95065.9
94156.5
93250.4
92347.5
91448.6
90553.6
89663.5
88777.8
87897.5
87022
86152.1
85287.2
84427.6
83573
82723.4
81878.1
81037
80199.6
79365.7
78534.8
77706.9
76881.9
76059.8
75240.4
74424.7
73612.3
72804
71999.5
71200.6
70405.9
69618.2
68835.1
68059.4
67288.4
66525.6
65768.1
65018.9
64274.6
63539.2
62807.2
62085.3
61364.2
60655.7
59943.9
59247.4
58544.8
57857.6
57164.9
56485.9
55801.6
55127.2
54448.2
53773.8
53094.7
52416.5
51730
51041.3
50339.1
49629
48899.2
48152.2
47375.1
46566.2
45706.4
44779
43779.9
42572.9
260431
257279
254709
252495
250493
248620
246839
245124
243459
241835
240244
238681
237140
235619
234114
232624
231146
229679
228221
226772
225332
223899
222475
221057
219647
218243
216845
215453
214067
212688
211315
209948
208589
207236
205890
204552
203219
201893
200573
199259
197951
196647
195348
194053
192762
191475
190192
188914
187639
186369
185103
183841
182583
181328
180077
178830
177588
176351
175118
173889
172664
171442
170224
169009
167798
166591
165389
164192
163000
161813
160631
159453
158279
157109
155944
154782
153625
152473
151326
150185
149050
147921
146798
145681
144568
143460
142356
141255
140158
139064
137973
136885
135799
134716
133635
132557
131482
130410
129341
128276
127216
126161
125112
124068
123030
121999
120973
119955
118942
117934
116932
115936
114944
113956
112973
111994
111020
110050
109084
108123
107167
106216
105268
104326
103387
102453
101521
100594
99669.3
98747.9
97828.6
96912
95997.6
95085.8
94176.7
93270.9
92368.5
91470.2
90576.1
89686.9
88802.4
87923.3
87049.3
86180.7
85317.2
84458.8
83605.6
82757.1
81912.8
81072.4
80236
79402.7
78572.2
77744.4
76919.2
76096.2
75275.9
74458.5
73644.3
72833.5
72026.8
71225.1
70427.7
69636.5
68850.2
68070
67294.9
66526.6
65763.6
65007.6
64256.2
63512.6
62771.8
62040.8
61309.2
60590
59867.3
59157.4
58443.3
57740.5
57034.4
56337
55637.4
54942
54245.2
53548.4
52847.8
52144.7
51434.1
50716
49986.1
49239.7
48474.7
47680.8
46856.8
45979.6
45064.6
44013.5
42925.4
41684.8
261894
258766
256076
253706
251559
249563
247675
245869
244125
242432
240779
239161
237572
236008
234465
232940
231431
229936
228453
226982
225521
224070
222629
221196
219772
218355
216946
215545
214150
212763
211382
210009
208644
207285
205934
204591
203253
201923
200599
199281
197968
196661
195358
194061
192768
191479
190194
188914
187638
186367
185100
183837
182578
181323
180072
178825
177583
176345
175112
173883
172658
171437
170219
169005
167795
166590
165388
164191
163000
161812
160630
159452
158278
157108
155943
154782
153625
152473
151326
150186
149051
147923
146800
145683
144571
143463
142358
141257
140160
139066
137975
136887
135801
134717
133637
132559
131484
130412
129345
128281
127223
126169
125121
124079
123043
122012
120988
119970
118957
117950
116948
115951
114959
113970
112987
112007
111033
110063
109098
108137
107182
106231
105285
104343
103405
102472
101542
100616
99691.8
98770.5
97851.7
96934.8
96020.6
95108.6
94199.5
93293.8
92391.7
91493.9
90600.6
89712.4
88829.2
87951.5
87079.1
86212.1
85350
84493.2
83641.3
82793.7
81950.3
81110.6
80275
79442.3
78612
77784.3
76958.5
76134.6
75313
74493.9
73677.5
72864.3
72055.3
71250.8
70450.8
69656.3
68866.8
68082.3
67303.2
66529.8
65761
64998.2
64239.1
63487.5
62737.3
61996.4
61254.9
60523.4
59790.9
59066.8
58342.2
57623.1
56904.8
56188.6
55474.3
54758.5
54043.9
53324.9
52604.7
51875.8
51144.7
50396.8
49643.1
48861.3
48068.7
47227.7
46377.2
45430.9
44491.1
43377.3
42246.4
41041.9
263007
259962
257239
254781
252534
250441
248464
246577
244762
243005
241295
239626
237992
236386
234806
233248
231709
230186
228679
227186
225705
224237
222779
221332
219894
218466
217046
215635
214231
212836
211449
210069
208698
207334
205978
204629
203287
201952
200624
199301
197985
196674
195369
194069
192773
191482
190196
188914
187637
186364
185096
183832
182573
181317
180066
178819
177577
176340
175106
173878
172653
171432
170215
169002
167793
166588
165387
164191
163000
161813
160630
159452
158278
157109
155943
154782
153625
152473
151327
150187
149053
147925
146803
145686
144574
143465
142361
141261
140164
139070
137979
136890
135804
134720
133640
132562
131488
130417
129351
128290
127233
126181
125135
124094
123059
122030
121006
119989
118977
117969
116967
115969
114976
113987
113003
112023
111049
110079
109114
108154
107200
106250
105305
104364
103427
102494
101566
100640
99716.6
98795.2
97876.5
96959.2
96044.8
95132.4
94223.4
93317.5
92415.8
91518.2
90625.7
89738.2
88856.3
87979.8
87109.1
86243.6
85383.3
84528
83677.7
82831.1
81988.8
81149.9
80315.2
79482.6
78652.8
77824.8
76998.6
76173.4
75350.3
74528.9
73710
72894.2
72083.1
71275.5
70473
69675.3
68882.9
68094.3
67311.6
66533.1
65758.9
64989.1
64222.8
63462.5
62703.4
61951.5
61201
60456.9
59715
58977
58241.9
57507.5
56776.6
56043.1
55313.2
54578
53846.3
53104.8
52367.9
51612.5
50864.4
50085.6
49315.3
48494.4
47688.2
46797.1
45933.2
44935.8
43964.8
42855.2
41722.7
40562.2
263903
260942
258225
255727
253414
251248
249199
247244
245365
243550
241789
240073
238395
236751
235135
233545
231977
230429
228899
227384
225885
224399
222925
221464
220013
218573
217143
215723
214311
212909
211514
210129
208751
207382
206021
204667
203320
201981
200648
199322
198002
196688
195380
194077
192779
191486
190198
188915
187636
186362
185093
183829
182568
181313
180061
178815
177572
176335
175102
173873
172649
171428
170212
169000
167792
166588
165388
164192
163001
161814
160632
159454
158279
157109
155943
154782
153625
152474
151328
150188
149055
147927
146805
145688
144576
143469
142365
141265
140168
139074
137983
136894
135808
134725
133645
132568
131495
130426
129361
128301
127246
126196
125152
124112
123078
122050
121028
120010
118998
117991
116988
115990
114996
114006
113021
112041
111066
110096
109132
108173
107219
106270
105326
104385
103450
102517
101589
100664
99741
98819.5
97900.5
96982.9
96068.2
95155.4
94246.3
93340.2
92438.8
91541.4
90649.8
89762.6
88882
88006.3
87137.4
86273
85415
84561
83712.7
82867.2
82026.4
81188.2
80354.7
79521.7
78692.5
77863.9
77037.3
76210.3
75386
74561.8
73740.6
72921.8
72108.6
71297.3
70492.8
69691.7
68896.6
68104.6
67318.3
66534.9
65755.7
64979
64206.1
63436.4
62669.8
61906.6
61147.6
60391.6
59640
58889.2
58143.2
57394.2
56650.7
55900
55156.4
54400.4
53655.6
52889.2
52139.4
51356.7
50595.8
49785.2
49002.1
48146.5
47324.3
46400.9
45510.7
44503.1
43500.3
42424.2
41314.2
40186.7
264657
261768
259071
256556
254202
251982
249876
247864
245931
244065
242257
240497
238780
237100
235451
233831
232236
230664
229111
227576
226059
224556
223068
221593
220130
218679
217239
215810
214390
212980
211579
210187
208804
207430
206063
204705
203354
202010
200674
199344
198021
196704
195392
194087
192786
191492
190202
188917
187637
186362
185092
183827
182566
181310
180059
178812
177570
176332
175099
173871
172647
171427
170211
168999
167792
166589
165389
164194
163004
161817
160634
159455
158281
157110
155944
154782
153625
152474
151328
150189
149056
147928
146807
145691
144579
143472
142369
141269
140173
139080
137989
136901
135815
134733
133653
132577
131505
130437
129374
128315
127262
126214
125171
124133
123100
122072
121050
120033
119021
118013
117010
116011
115016
114026
113041
112060
111085
110115
109150
108191
107238
106289
105345
104405
103470
102538
101610
100685
99762.4
98840.8
97921.6
97003.6
96088.5
95175.2
94265.9
93359.8
92458.6
91561.3
90670
89783.2
88903.6
88029
87161.6
86298.8
85442.8
84590.2
83743.7
82899.5
82060.1
81222.9
80390.1
79556.6
78727.9
77898.2
77071.4
76242.8
75417.7
74590.6
73767.9
72946
72130.5
71315.2
70508.7
69704.3
68906.7
68110.9
67321.9
66533.7
65750.1
64966.1
64187.6
63408.1
62634.8
61860.8
61094
60326
59566.2
58801.6
58046.6
57282
56527.8
55759.1
55004
54228
53470.3
52683.6
51918.7
51115.8
50337.5
49506.9
48702
47828.7
46979.7
46047.2
45128.9
44133.2
43119.4
42070.5
40983
39877.4
265307
262476
259803
257281
254901
252644
250494
248435
246457
244547
242697
240898
239145
237431
235753
234105
232484
230889
229315
227762
226226
224708
223206
221718
220243
218782
217333
215894
214467
213050
211643
210245
208857
207477
206106
204743
203388
202040
200700
199367
198040
196720
195406
194098
192796
191499
190207
188921
187640
186364
185093
183827
182566
181310
180058
178812
177569
176332
175099
173871
172647
171427
170212
169001
167794
166591
165392
164197
163006
161819
160636
159457
158281
157110
155943
154781
153625
152473
151328
150189
149056
147930
146808
145693
144582
143475
142372
141274
140179
139087
137997
136909
135825
134742
133663
132587
131516
130449
129387
128331
127279
126233
125191
124154
123122
122095
121073
120056
119044
118035
117031
116031
115036
114045
113059
112078
111102
110132
109167
108208
107254
106305
105361
104421
103486
102554
101627
100701
99778.9
98857.1
97937.6
97019.1
96103.5
95189.7
94280.1
93373.9
92472.6
91575.6
90684.3
89798.3
88919.6
88046.4
87180.6
86319.7
85465.5
84614.3
83769
82925.6
82087.4
81250.6
80418.3
79584.3
78755.9
77925.6
77098
76268.7
75442.7
74613.1
73788.7
72964.2
72145.8
71327.5
70518.6
69711.3
68911.1
68112.2
67320.2
66527.8
65739.8
64949.5
64164.5
63377.6
62596.1
61813.4
61037.5
60259.7
59490.6
58715
57949.4
57172.6
56405.4
55623.8
54853.2
54064.5
53288.7
52490.2
51706
50892
50092.4
49252.2
48425.1
47543.9
46673.7
45740.9
44806.8
43825.6
42812.8
41778.7
40705.1
39614.1
265871
263088
260438
257918
255522
253238
251054
248958
246941
244994
243107
241274
239488
237744
236038
234364
232720
231103
229510
227939
226387
224854
223339
221838
220353
218882
217423
215977
214542
213118
211705
210301
208908
207523
206148
204780
203421
202070
200727
199390
198060
196738
195421
194111
192806
191508
190215
188928
187646
186369
185097
183830
182569
181312
180060
178813
177571
176334
175101
173872
172649
171429
170214
169002
167795
166593
165394
164199
163007
161820
160636
159457
158281
157109
155942
154780
153624
152473
151328
150189
149057
147930
146810
145694
144584
143478
142376
141278
140185
139094
138006
136919
135835
134753
133674
132599
131528
130462
129401
128346
127296
126250
125210
124174
123142
122116
121094
120077
119064
118054
117049
116048
115052
114060
113074
112093
111117
110146
109181
108221
107266
106316
105371
104431
103495
102564
101636
100711
99787.8
98865.6
97945.8
97026.9
96111
95196.8
94286.9
93380.5
92479.4
91582.9
90692
89807.2
88929.4
88057.8
87193.5
86334.9
85481.6
84632.2
83787.5
82944.6
82106.7
81270.3
80438.2
79603.1
78774.6
77944.2
77115.4
76286.4
75459
74628.2
73801.6
72975.1
72153.2
71333
70520.8
69711.5
68908.3
68107.7
67312.2
66516.6
65723.5
64929
64137.3
63344.9
62554.4
61764.2
60979.3
60193.4
59414.3
58630.6
57853.2
57067.5
56286.8
55495.1
54708.5
53910.1
53118
52310.8
51509.9
50688.4
49872.2
49025
48181.9
47296.4
46412.4
45484.7
44541.4
43570.4
42559.5
41531.3
40467
39387.7
266368
263622
260994
258478
256072
253769
251558
249433
247384
245405
243486
241623
239808
238037
236305
234608
232943
231306
229694
228106
226540
224993
223465
221953
220458
218977
217509
216055
214614
213183
211764
210356
208957
207568
206188
204817
203454
202100
200753
199413
198081
196756
195437
194125
192819
191518
190224
188935
187652
186375
185102
183835
182573
181316
180063
178816
177574
176336
175103
173874
172650
171430
170215
169003
167796
166593
165394
164198
163007
161819
160635
159455
158279
157107
155940
154778
153622
152471
151326
150188
149055
147929
146809
145695
144585
143480
142379
141282
140190
139101
138014
136928
135844
134763
133684
132609
131538
130473
129413
128358
127309
126265
125225
124190
123159
122132
121111
120093
119079
118069
117063
116061
115064
114072
113085
112102
111126
110155
109189
108228
107272
106321
105375
104433
103497
102564
101637
100711
99787.6
98865
97944.8
97025.8
96109.8
95195.6
94285.9
93379.8
92479.3
91583.5
90693.7
89809.9
88933.5
88063.2
87200.5
86343.5
85491.3
84643
83798.7
82956
82117.6
81281.6
80448.3
79612.8
78784.5
77953.1
77123.5
76295.4
75466.1
74635.4
73806.1
72979.6
72152.8
71332.8
70515.5
69705.9
68898.4
68097.8
67298.1
66501.3
65701.7
64904.4
64104.9
63308.3
62510.3
61713.6
60920.1
60129.1
59338.7
58550.9
57760.6
56969.4
56175.3
55375.5
54575.3
53768
52963.5
52150
51336.2
50509.4
49680.6
48829.6
47974.2
47087.7
46193.3
45271.6
44320.6
43353.9
42344.7
41319
40263.2
39194.2
266805
264090
261479
258969
256558
254240
252010
249861
247786
245779
243833
241943
240103
238308
236553
234835
233150
231495
229867
228264
226683
225124
223584
222061
220556
219066
217591
216130
214681
213245
211821
210407
209004
207611
206227
204852
203486
202128
200779
199437
198102
196774
195454
194139
192832
191530
190234
188944
187660
186381
185108
183840
182577
181319
180066
178819
177576
176338
175104
173875
172650
171430
170214
169002
167794
166591
165391
164195
163003
161815
160631
159451
158274
157103
155936
154774
153618
152467
151323
150184
149052
147926
146807
145693
144584
143480
142381
141286
140195
139107
138021
136936
135852
134771
133692
132617
131547
130481
129421
128367
127318
126275
125236
124200
123170
122143
121121
120102
119088
118076
117070
116067
115069
114076
113088
112106
111129
110157
109190
108228
107271
106318
105370
104427
103489
102556
101628
100702
99778
98855.5
97935
97016.1
96100.3
95186.7
94277.9
93373
92473.8
91579.6
90691.2
89808.7
88933.4
88064
87202.4
86346.1
85494.7
84647.2
83802.9
82959
82120.6
81284.7
80448.5
79615.2
78784.9
77953.7
77123.4
76296.6
75464.1
74634.4
73802.1
72978.2
72144.8
71327.5
70502.4
69696.4
68882.1
68084
67277.8
66482.2
65674.2
64876.2
64068.6
63268.6
62463.5
61663.3
60860.9
60068.7
59266.3
58478.6
57676.1
56880.7
56074.9
55267.1
54457.7
53643.9
52829.3
52010.8
51185.7
50357
49516.4
48665
47796.9
46912
46007.2
45088.2
44131.9
43165.1
42159.2
41136.9
40090.1
39031
267190
264499
261904
259399
256985
254657
252412
250243
248147
246117
244148
242235
240373
238556
236782
235044
233341
231670
230026
228409
226816
225245
223694
222162
220648
219150
217667
216199
214745
213303
211874
210455
209048
207651
206263
204885
203516
202156
200803
199459
198122
196793
195470
194154
192844
191541
190244
188952
187667
186387
185113
183844
182580
181322
180068
178820
177576
176338
175103
173874
172649
171428
170211
168999
167790
166586
165386
164189
162997
161809
160624
159444
158268
157097
155930
154769
153613
152462
151318
150179
149047
147922
146802
145689
144581
143478
142381
141287
140198
139110
138025
136940
135857
134775
133696
132621
131550
130485
129425
128370
127322
126279
125240
124205
123174
122147
121124
120104
119089
118077
117070
116066
115068
114073
113085
112102
111125
110152
109185
108222
107263
106308
105358
104413
103473
102539
101610
100683
99759.3
98837.1
97917
96998.6
96083.9
95171.8
94264.8
93361.5
92464.3
91571.8
90685.3
89804.4
88930
88061.5
87200.2
86343.5
85492.9
84644
83799.6
82954.6
82115.3
81278.9
80440.7
79609.2
78775.9
77946.7
77115.8
76289.3
75454.8
74626.7
73791.6
72968.5
72131.8
71315.4
70483.3
69680.8
68857.9
68062.8
67250.3
66458.1
65640
64843.2
64028.2
63227.4
62416.9
61614.2
60804.8
60011.5
59198.9
58413.4
57600.7
56800.9
55987
55171.2
54354.6
53535.7
52712.5
51895.3
51060.1
50231.7
49375
48525.7
47645.6
46761.6
45847.3
44926.6
43968.3
43001.5
41999.7
40982.5
39945.1
38895.3
267526
264855
262273
259774
257358
255023
252766
250582
248468
246419
244431
242498
240616
238781
236989
235235
233516
231829
230172
228543
226938
225356
223795
222255
220732
219227
217738
216264
214804
213357
211923
210500
209089
207688
206297
204916
203545
202181
200827
199480
198141
196810
195485
194167
192856
191551
190253
188960
187673
186392
185117
183847
182582
181323
180069
178819
177575
176336
175101
173871
172645
171423
170206
168993
167784
166579
165379
164182
162990
161801
160617
159437
158261
157090
155924
154763
153607
152457
151312
150174
149041
147915
146796
145683
144576
143475
142379
141286
140198
139110
138025
136940
135856
134774
133696
132619
131549
130483
129423
128368
127320
126276
125237
124202
123171
122142
121119
120098
119083
118071
117063
116059
115060
114065
113077
112093
111115
110141
109173
108209
107249
106292
105340
104392
103451
102515
101585
100657
99733.6
98811.4
97892.7
96975.3
96062.3
95152.1
94247.2
93345.7
92450.7
91559.6
90675.1
89795.5
88922.8
88055.2
87194.5
86336.5
85486.7
84635.3
83789.8
82942.2
82102.9
81264.3
80425
79594.5
78760.6
77932.6
77101.7
76276.1
75441.5
74612.2
73777.7
72953.6
72114.7
71296.1
70462.2
69658.6
68831
68034.2
67218.6
66428
65605
64806.7
63987.5
63183.1
62370.3
61565.3
60752.2
59955.4
59139.8
58352.3
57530.7
56730
55908.6
55088.9
54265.7
53443.3
52616.1
51794.9
50949.5
50121.4
49254.8
48404.5
47516.4
46629
45708.3
44786
43827.3
42862.5
41865.1
40854
39825.9
38785.1
267819
265164
262592
260098
257682
255341
253074
250878
248750
246686
244681
242732
240833
238982
237174
235405
233672
231973
230304
228663
227048
225456
223887
222338
220809
219297
217802
216322
214857
213406
211967
210541
209126
207722
206329
204945
203571
202205
200848
199500
198159
196825
195499
194179
192867
191560
190260
188966
187678
186396
185119
183848
182582
181322
180067
178817
177572
176332
175096
173865
172639
171417
170199
168985
167776
166571
165371
164174
162981
161793
160609
159429
158254
157083
155918
154757
153602
152451
151307
150167
149035
147909
146789
145676
144569
143469
142373
141282
140193
139106
138020
136934
135850
134768
133689
132612
131543
130476
129416
128360
127312
126267
125229
124192
123161
122131
121107
120086
119071
118059
117051
116047
115048
114053
113064
112079
111100
110125
109157
108190
107230
106270
105317
104368
103425
102487
101556
100627
99703.8
98781.9
97864.5
96948.4
96037.7
95128.9
94226.3
93326.4
92433.3
91543.3
90660.5
89782.2
88910.9
88044.1
87184.4
86325.4
85475.4
84620.6
83773.1
82922.6
82082.5
81241.7
80405
79572.4
78740
77910.5
77080.7
76255.7
75423.4
74591.5
73761.5
72933.6
72094.5
71270.6
70437.9
69628.4
68800.4
67998.8
67184.2
66391.5
65566.2
64772
63947.4
63140.9
62323.4
61513.2
60699
59898.4
59080.9
58292.2
57467.5
56666.8
55839.6
55016.8
54189.4
53364.1
52531.8
51701.5
50857.5
50023.2
49151.2
48295.6
47403.9
46511.2
45589.2
44666
43707.8
42746.6
41753.6
40749.6
39730
38697.4
268071
265429
262866
260375
257958
255613
253339
251133
248994
246917
244899
242936
241024
239159
237337
235556
233811
232100
230420
228769
227145
225545
223969
222413
220877
219359
217859
216375
214905
213450
212008
210578
209160
207753
206357
204971
203594
202226
200867
199517
198174
196839
195511
194190
192875
191567
190266
188970
187681
186397
185119
183847
182581
181319
180064
178813
177567
176326
175090
173859
172632
171409
170191
168977
167768
166563
165362
164166
162973
161785
160601
159422
158247
157077
155912
154752
153596
152446
151301
150161
149028
147901
146781
145668
144561
143460
142365
141273
140184
139096
138009
136923
135839
134757
133677
132601
131531
130464
129404
128348
127299
126254
125215
124178
123146
122116
121092
120070
119055
118043
117036
116031
115032
114036
113047
112061
111082
110106
109137
108169
107207
106246
105292
104340
103397
102458
101526
100597
99673
98751.5
97835.1
96920.7
96011.5
95104.4
94203.3
93304.9
92413
91524.1
90642.8
89765.5
88896
88029.4
87170.1
86310
85458.3
84601.2
83751
82897.6
82057.5
81211.7
80378.9
79546.7
78715.2
77883.9
77055.9
76228.8
75400
74563.8
73741.9
72908.5
72072.2
71245.7
70414.6
69591.6
68768.3
67959.5
67143.7
66349.7
65528
64727.4
63905.1
63097.8
62274.6
61458.2
60646.8
59839.2
59027.5
58236.6
57406.1
56607.1
55778.6
54953.8
54124.8
53294.8
52460.4
51623.1
50776
49929.5
49061.5
48197.2
47306.6
46408.4
45489.2
44565.1
43608.9
42651.2
41663.1
40666.5
39654.1
38628.9
268284
265653
263095
260607
258190
255842
253562
251349
249201
247114
245085
243111
241187
239310
237478
235685
233930
232209
230521
228861
227229
225623
224039
222478
220936
219414
217909
216420
214947
213488
212043
210610
209190
207780
206381
204993
203614
202245
200884
199531
198187
196850
195520
194198
192882
191572
190269
188972
187682
186397
185118
183845
182577
181315
180059
178807
177561
176320
175083
173851
172624
171401
170183
168969
167760
166555
165354
164158
162965
161777
160594
159415
158240
157070
155906
154746
153591
152440
151295
150155
149021
147893
146773
145658
144551
143450
142353
141261
140170
139081
137994
136908
135824
134741
133662
132586
131516
130449
129388
128332
127284
126239
125200
124162
123129
122099
121074
120052
119037
118024
117017
116012
115013
114017
113027
112041
111062
110086
109115
108146
107182
106221
105265
104313
103369
102429
101497
100567
99643.7
98722.4
97806.7
96893.4
95984.9
95079.4
94179.4
93282.5
92391.6
91504.3
90624.1
89748
88879.2
88011.9
87151.9
86290
85435.7
84576.4
83725.7
82872.3
82027.3
81180.8
80349.9
79514.5
78686.1
77854.3
77025.6
76198.7
75374.9
74536.8
73717
72876.8
72051.2
71215.4
70381.8
69552.3
68739.1
67925.6
67108.3
66305.5
65485.2
64675.6
63860.6
63046
62225.3
61405
60599.1
59786.3
58978.2
58175.1
57351.7
56551.2
55724.4
54899.9
54072.5
53237.7
52397.7
51552.7
50704.5
49849.1
48982.5
48110.5
47226.8
46323
45409
44482.3
43529.6
42573.7
41592.1
40601.5
39594.5
38576.3
268461
265838
263284
260797
258380
256029
253745
251527
249372
247277
245240
243256
241323
239437
237595
235794
234030
232302
230605
228939
227301
225688
224099
222533
220987
219460
217951
216459
214983
213521
212073
210637
209214
207803
206402
205011
203631
202259
200897
199543
198197
196858
195527
194203
192886
191575
190271
188973
187681
186396
185116
183842
182573
181311
180053
178802
177555
176313
175077
173845
172617
171394
170176
168962
167753
166547
165347
164150
162958
161770
160587
159408
158234
157065
155900
154741
153586
152435
151289
150148
149014
147886
146764
145649
144540
143438
142339
141246
140153
139064
137976
136890
135806
134724
133644
132569
131498
130431
129371
128316
127267
126223
125183
124146
123112
122082
121056
120034
119018
118005
116997
115993
114993
113997
113007
112022
111041
110066
109094
108125
107159
106198
105241
104289
103344
102405
101472
100543
99618
98697.4
97781.1
96868.9
95960
95056.1
94155.7
93260.6
92369.8
91484.3
90604.2
89729.2
88859.3
87991.7
87129.1
86265.9
85408.4
84548.4
83696.1
82842.8
81999.7
81153.7
80318.1
79483
78654.6
77821.6
76996.4
76168.7
75344
74508.2
73689.8
72845.8
72019.5
71174.2
70351.6
69519.2
68708.1
67891.2
67070.4
66254.1
65439.8
64627.7
63814.7
62990
62179.7
61359.8
60552.1
59738.6
58935.7
58120.3
57307.9
56495
55676.2
54852
54024.8
53185.2
52342.7
51494.7
50640.5
49780.2
48917.1
48041.8
47160.8
46257.5
45347.1
44418
43469.7
42513.4
41538.3
40550.9
39548.5
38536.9
268603
265985
263433
260947
258528
256176
253890
251668
249508
247407
245363
243372
241432
239539
237689
235881
234111
232376
230673
229001
227358
225740
224147
222577
221027
219497
217985
216490
215011
213547
212096
210659
209234
207820
206418
205026
203643
202271
200907
199551
198204
196864
195532
194207
192889
191577
190272
188973
187680
186394
185113
183839
182570
181307
180049
178797
177550
176308
175071
173839
172611
171388
170170
168956
167746
166541
165340
164143
162951
161764
160580
159402
158228
157059
155895
154735
153580
152429
151283
150143
149008
147879
146757
145640
144530
143426
142326
141231
140137
139046
137957
136872
135787
134706
133626
132552
131481
130416
129355
128301
127252
126208
125167
124131
123097
122067
121040
120018
119000
117988
116978
115975
114974
113979
112988
112003
111022
110048
109075
108107
107140
106179
105221
104270
103325
102386
101452
100523
99597.4
98677.4
97759.6
96847.8
95938.1
95034.9
94133.8
93239.7
92348.6
91464.3
90583.1
89708.5
88836.2
87968.3
87102.5
86238.8
85378.2
84520.2
83666.2
82817.1
81970.3
81125.1
80289
79452.4
78620.9
77791.4
76966.7
76136
75311.4
74478.9
73655.3
72810
71985.4
71143.8
70325.7
69482.8
68674.4
67846.4
67027.4
66214.8
65401.3
64579.9
63767.6
62941.5
62136.1
61315.2
60511.9
59701
58897.2
58074
57269.1
56446
55633.2
54806.9
53986
53138.2
52296.9
51444
50590.8
49730.3
48865.6
47989.7
47109.8
46211.4
45299.3
44371.5
43425.9
42469.5
41498
40512.4
39514.5
38507.4
268708
266094
263543
261057
258639
256286
253998
251773
249610
247504
245455
243460
241514
239615
237760
235947
234171
232431
230725
229049
227401
225780
224183
222610
221057
219525
218010
216513
215032
213566
212114
210675
209248
207833
206429
205036
203653
202279
200914
199557
198209
196869
195535
194210
192891
191578
190273
188973
187680
186393
185112
183837
182568
181304
180046
178794
177546
176304
175067
173835
172607
171384
170165
168951
167741
166536
165335
164138
162946
161758
160575
159397
158223
157054
155890
154731
153576
152425
151279
150138
149003
147874
146751
145633
144521
143416
142313
141217
140122
139032
137942
136857
135771
134691
133612
132539
131467
130403
129341
128289
127238
126195
125153
124118
123083
122055
121026
120005
118986
117974
116964
115961
114958
113965
112972
111989
111007
110034
109060
108094
107127
106168
105208
104258
103312
102374
101438
100510
99583.2
98663.6
97744
96832.1
95920.5
95017.3
94114.7
93221.1
92328.9
91445.1
90562.4
89687.6
88813.1
87944.6
87075.6
86212.4
85349.4
84495.2
83638.6
82792.5
81943.3
81101.6
80260.6
79425.6
78591.6
77763.5
76934.6
76105.8
75280.6
74448.6
73620.1
72779.9
71954
71111.9
70295.7
69450.3
68641
67805
66993.2
66174.4
65358.8
64538.5
63727.5
62902.3
62098.3
61277.3
60477.2
59663.3
58859.4
58037.4
57234.2
56409.8
55600.4
54769.9
53949.1
53097
52261.8
51404.5
50552.5
49692.9
48827.8
47958.7
47075.1
46181.1
45263.8
44341.2
43395.3
42439.7
41469
40485.5
39490.4
38486
268776
266164
263616
261131
258712
256359
254070
251843
249677
247569
245517
243518
241568
239666
237807