/*--------------------------------*- C++ -*----------------------------------*\
| =========                 |                                                 |
| \\      /  F ield         | OpenFOAM: The Open Source CFD Toolbox           |
|  \\    /   O peration     | Version:  2.4.0                                 |
|   \\  /    A nd           | Web:      www.OpenFOAM.org                      |
|    \\/     M anipulation  |                                                 |
\*---------------------------------------------------------------------------*/
FoamFile
{
    version     2.0;
    format      ascii;
    class       surfaceScalarField;
    location    "95";
    object      phi;
}
// * * * * * * * * * * * * * * * * * * * * * * * * * * * * * * * * * * * * * //

dimensions      [0 3 -1 0 0 0 0];

internalField   nonuniform List<scalar> 
8640
(
0.000557193
-6.96935e-05
0.000422539
0.000134655
0.000401111
2.14276e-05
0.000583004
-0.000181893
0.000472423
0.000110581
0.000508827
-3.64034e-05
0.000524752
-1.5926e-05
0.000442525
8.22279e-05
0.00052579
-8.32649e-05
0.000458789
6.70003e-05
0.000510786
-5.19967e-05
0.000509559
1.2265e-06
0.000492552
1.70078e-05
0.000537168
-4.46161e-05
0.000452772
8.43959e-05
0.000534799
-8.20274e-05
0.000508645
2.61545e-05
0.000477519
3.11253e-05
0.000598076
-0.000120557
0.000171051
0.000427025
0.00145332
-0.000135514
0.0012916
0.000296373
0.00132266
-9.63173e-06
0.00150182
-0.00036105
0.00136257
0.000249835
0.0014282
-0.000102043
0.00140876
3.51579e-06
0.00133813
0.000152857
0.00142856
-0.000173694
0.00134817
0.000147392
0.00143343
-0.000137255
0.00140224
3.24153e-05
0.00141184
7.40667e-06
0.00142853
-6.13091e-05
0.00135636
0.000156572
0.00145185
-0.000177523
0.00141326
6.4752e-05
0.00140196
4.24198e-05
0.00151568
-0.000234279
0.000322223
0.00136451
0.00223151
-0.00017952
0.00210033
0.000427552
0.00218518
-9.44815e-05
0.00229629
-0.00047216
0.00219713
0.000348994
0.00225364
-0.000158554
0.00222075
3.64078e-05
0.00217888
0.00019472
0.00223333
-0.000228137
0.00217303
0.000207693
0.00225447
-0.000218704
0.00221963
6.72568e-05
0.0022438
-1.67647e-05
0.00223556
-5.30614e-05
0.00219142
0.000200714
0.00226886
-0.000254966
0.00223142
0.000102186
0.002247
2.68444e-05
0.00230877
-0.000296049
0.000363211
0.00226778
0.00288955
-0.000181574
0.00276619
0.000550921
0.00296629
-0.000294585
0.00298548
-0.000491346
0.00294372
0.000390753
0.00300869
-0.000223532
0.00292527
0.000119827
0.00295272
0.000167275
0.00294353
-0.000218946
0.00291528
0.000235944
0.00298049
-0.000283912
0.00293587
0.000111877
0.0029987
-7.95965e-05
0.00293968
5.95777e-06
0.00294961
0.000190781
0.00299825
-0.000303601
0.00292941
0.000171026
0.00303972
-8.34662e-05
0.00298252
-0.000238852
0.000306929
0.0030388
0.00347725
-0.000171322
0.0032541
0.000774071
0.00358813
-0.000628621
0.00355562
-0.000458836
0.0035215
0.000424875
0.0036707
-0.000372733
0.00349536
0.00029517
0.00360397
5.86648e-05
0.00354741
-0.000162388
0.00352148
0.000261875
0.00360332
-0.000365753
0.00350322
0.000211976
0.00363585
-0.00021222
0.00352004
0.00012176
0.00355189
0.000158935
0.00364246
-0.000394174
0.00348044
0.000333048
0.00369525
-0.000298273
0.00357469
-0.000118293
0.000281916
0.0035997
0.00402266
-0.000206486
0.0036662
0.00113054
0.00402972
-0.00099214
0.00401065
-0.000439772
0.00392671
0.000508822
0.00418093
-0.000626961
0.0039421
0.000534008
0.00408655
-8.57847e-05
0.00403032
-0.000106159
0.00397416
0.000318034
0.00409763
-0.000489223
0.00393971
0.000369889
0.00411372
-0.000386229
0.00398802
0.000247467
0.00398873
0.000158217
0.00414479
-0.000550225
0.00391473
0.000563099
0.00415945
-0.000542992
0.00405288
-1.1717e-05
0.000315028
0.00401976
0.00447055
-0.000289541
0.0040713
0.00152979
0.00438024
-0.00130107
0.00438466
-0.000444196
0.00424216
0.000651325
0.00454295
-0.000927754
0.0042922
0.000784756
0.00443359
-0.000227171
0.00440221
-7.47807e-05
0.00431871
0.000401529
0.00446652
-0.000637033
0.00428647
0.00054994
0.00446023
-0.000559986
0.00435761
0.000350092
0.00432391
0.000191908
0.00450744
-0.000733752
0.00426393
0.000806608
0.00448528
-0.000764338
0.00441177
6.17941e-05
0.00038218
0.00434462
0.00478333
-0.000385366
0.00443987
0.00187324
0.00466824
-0.00152943
0.00468146
-0.00045742
0.00451504
0.000817743
0.00478918
-0.00120189
0.00456512
0.00100882
0.00468335
-0.0003454
0.00467243
-6.38616e-05
0.00458671
0.000487243
0.00472426
-0.000774585
0.00456042
0.000713787
0.00470702
-0.000706586
0.00463328
0.000423831
0.00458845
0.000236734
0.00475255
-0.000897852
0.00454177
0.00101739
0.00471537
-0.000937933
0.00466731
0.000109856
0.000456002
0.00459348
0.0049622
-0.00046007
0.00473502
0.00210042
0.00486999
-0.0016644
0.00487848
-0.000465911
0.00473967
0.00095655
0.00493094
-0.00139316
0.0047631
0.00117666
0.00484793
-0.000430232
0.00484114
-5.70719e-05
0.00478027
0.000548111
0.00487489
-0.000869207
0.0047577
0.000830976
0.00486074
-0.000809626
0.00481277
0.000471804
0.00478082
0.000268688
0.00488848
-0.00100552
0.00474466
0.00116121
0.00485721
-0.00105048
0.0048259
0.000141163
0.000511238
0.00477067
0.00501903
-0.000491602
0.00494205
0.0021774
0.00496919
-0.00169154
0.00496671
-0.000463432
0.00489741
0.00102584
0.00496879
-0.00146454
0.00488164
0.00126382
0.00492565
-0.00047425
0.00491125
-4.26695e-05
0.00489493
0.000564436
0.00492185
-0.000896134
0.00487298
0.000879855
0.00492043
-0.000857076
0.00489629
0.00049594
0.00489285
0.000272123
0.00492035
-0.00103301
0.00486752
0.00121403
0.00490826
-0.00109122
0.00489009
0.00015933
0.000529537
0.0048718
0.00496627
-0.000470371
0.00504708
0.00209659
0.00496373
-0.00160818
0.00494948
-0.000449185
0.00497015
0.00100518
0.00490332
-0.00139771
0.00491708
0.00125005
0.0049091
-0.00046627
0.00488931
-2.28741e-05
0.004923
0.000530741
0.00487309
-0.000846217
0.00490377
0.000849175
0.00488671
-0.000840017
0.00488813
0.000494514
0.0049175
0.000242756
0.00485668
-0.000972184
0.00490808
0.00116263
0.00486732
-0.00105047
0.00486532
0.000161336
0.000504479
0.00489038
0.0048206
-0.000403472
0.00503979
0.0018774
0.00485886
-0.00142725
0.00483107
-0.000421391
0.00493568
0.000900562
0.00474663
-0.00120866
0.00485885
0.00113783
0.00479747
-0.000404896
0.00477976
-5.16187e-06
0.00485514
0.000455364
0.00474164
-0.000732722
0.00484729
0.000743529
0.0047644
-0.000757123
0.00479526
0.00046365
0.00484744
0.000190575
0.00471534
-0.00084008
0.0048592
0.00101877
0.00474193
-0.000933194
0.00475781
0.000145456
0.000440668
0.00482162
0.00459718
-0.000313151
0.00491889
0.00155568
0.00465086
-0.00115921
0.00462147
-0.000392001
0.0047762
0.000745833
0.00450822
-0.000940684
0.00469931
0.000946741
0.00459296
-0.000298543
0.00459039
-2.59387e-06
0.00468865
0.000357103
0.00453929
-0.000583363
0.00470292
0.000579907
0.00456083
-0.000615032
0.00462792
0.000396554
0.00467984
0.000138655
0.00451136
-0.000671595
0.00471836
0.000811759
0.00454026
-0.000755088
0.00457835
0.000107365
0.000359402
0.00465961
0.00430942
-0.000235073
0.00467674
0.00118836
0.00433955
-0.000822025
0.00433
-0.000382445
0.00448492
0.000590906
0.00419972
-0.000655479
0.00444249
0.000703966
0.00430637
-0.000162422
0.00433415
-3.03738e-05
0.00442628
0.000264981
0.00427915
-0.000436236
0.00446608
0.000392973
0.00428626
-0.000435214
0.00439061
0.000292207
0.00441416
0.000115101
0.00425104
-0.000508474
0.00448041
0.000582394
0.00426541
-0.00054009
0.00433033
4.24467e-05
0.000288393
0.00440134
0.00395721
-0.000204786
0.00428943
0.00085615
0.00393243
-0.000465033
0.00396079
-0.000410799
0.00407476
0.000476935
0.00383913
-0.000419846
0.00409407
0.00044902
0.00395211
-2.04575e-05
0.00401041
-8.86759e-05
0.0040701
0.00020529
0.00395381
-0.000319946
0.00411803
0.000228753
0.0039376
-0.000254788
0.00406284
0.00016697
0.00404454
0.000133403
0.00392046
-0.000384393
0.00412506
0.00037779
0.003911
-0.00032603
0.00399657
-4.31245e-05
0.000245579
0.00403939
0.00350158
-0.000218871
0.00372795
0.000629786
0.00344658
-0.000183661
0.00349804
-0.000462259
0.00356381
0.000411161
0.00341673
-0.000272764
0.00362792
0.000237829
0.00351202
9.54422e-05
0.00357467
-0.000151327
0.00359827
0.000181692
0.00351876
-0.000240441
0.00362615
0.000121367
0.00348507
-0.000113711
0.0035974
5.46489e-05
0.00355909
0.000171713
0.00348324
-0.000308549
0.00362953
0.000231506
0.00345935
-0.000155855
0.00353956
-0.000123335
0.000227194
0.00355795
0.00288603
-0.000217398
0.00303574
0.000480077
0.00289688
-4.48028e-05
0.00288987
-0.000455254
0.0029496
0.000351433
0.00287065
-0.000193815
0.00299874
0.000109742
0.00294503
0.000149155
0.00297212
-0.000178424
0.00298576
0.000168058
0.00292849
-0.00018317
0.00298129
6.85606e-05
0.00290128
-3.37017e-05
0.00297214
-1.62097e-05
0.00295933
0.000184526
0.00290595
-0.000255166
0.00299282
0.000144636
0.002889
-5.20335e-05
0.00292689
-0.000161227
0.000208221
0.00294586
0.00213533
-0.000165228
0.00229399
0.000321414
0.0022422
6.98888e-06
0.00213146
-0.000344512
0.00223399
0.000248898
0.0021665
-0.000126317
0.00223651
3.97301e-05
0.00224963
0.000136029
0.0022186
-0.000147389
0.00225583
0.000130831
0.00219731
-0.000124649
0.00222761
3.82569e-05
0.00219746
-3.55482e-06
0.0022217
-4.04517e-05
0.00225534
0.000150887
0.00218385
-0.000183673
0.00224169
8.67973e-05
0.00219358
-3.92166e-06
0.00217443
-0.000142081
0.00016091
0.00222174
0.00130412
-8.18507e-05
0.00148329
0.000142252
0.00146171
2.85633e-05
0.0012857
-0.000168502
0.00142557
0.000109027
0.00135062
-5.13669e-05
0.00139237
-2.02092e-06
0.00144719
8.12137e-05
0.00137464
-7.48418e-05
0.00144197
6.35018e-05
0.00137169
-5.437e-05
0.00139928
1.06707e-05
0.00138985
5.87183e-06
0.00138102
-3.16181e-05
0.00145172
8.01818e-05
0.00135372
-8.56736e-05
0.00140804
3.24838e-05
0.00139054
1.35746e-05
0.00132766
-7.92061e-05
8.03176e-05
0.00140826
0.000405649
0.000547902
0.000576465
0.000407963
0.00051699
0.000465623
0.000463602
0.000544815
0.000469974
0.000533475
0.000479106
0.000489776
0.000495648
0.00046403
0.000544212
0.000458538
0.000491022
0.000504596
0.00042539
0.000505708
0.000693494
-0.000343961
7.74924e-05
0.000680853
-9.92809e-05
0.000111922
0.000757781
-0.000118099
4.11705e-05
0.000856456
-0.000732713
0.000634038
0.000765342
0.000552972
-0.000461858
0.00116389
0.000189483
-0.000588031
0.00138552
0.000783479
-0.00100511
0.00156882
0.000845445
-0.00102874
0.00188072
-0.000936597
0.000624693
0.00220607
-0.000872474
0.000547124
0.00236973
-0.00162049
0.00145683
0.00244949
-0.00208217
0.00200241
0.00240556
-0.000338466
0.00038239
0.00261093
-0.00139618
0.00119081
0.00284603
0.000518098
-0.000753196
0.00293943
-0.00153178
0.00143838
0.00324758
-0.00511608
0.00480793
0.00368435
-0.00227206
0.0018353
0.00397182
-0.000139106
-0.000148373
0.00424637
-0.00265289
0.00237834
0.00438571
-0.00518584
0.00504651
0.00440982
-0.00614866
0.00612455
0.0041928
-0.0071028
0.00731983
0.00357071
-0.00882662
0.0094487
0.0027572
-0.00784698
0.00866049
0.00219826
-0.00610267
0.0066616
0.0022037
-0.0068151
0.00680966
0.00248877
-0.00307133
0.00278627
0.0028689
5.22589e-05
-0.000432386
0.00329851
0.00336984
-0.00379945
0.00359958
0.00681344
-0.00711451
0.00362998
0.00765419
-0.00768459
0.00339691
0.00885836
-0.00862529
0.00311784
0.00943947
-0.00916041
0.00287887
0.00670277
-0.0064638
0.00274171
0.00271508
-0.00257791
0.00264779
-0.000105481
0.000199397
0.00248759
-0.00178713
0.00194733
0.0023533
-0.00484958
0.00498388
0.00228311
-0.0096774
0.00974759
0.00233615
-0.0101211
0.010068
0.00251245
-0.00252674
0.00235044
0.0025655
0.00585899
-0.00591204
0.00253086
0.00964835
-0.00961371
0.0025045
0.00971425
-0.00968789
0.0026705
0.00603763
-0.00620364
0.00284085
-0.000155863
-1.44867e-05
0.00296955
-0.00481575
0.00468706
0.00313564
-0.00461356
0.00444747
0.00299792
0.000218436
-8.07137e-05
0.00276447
0.00398946
-0.00375602
0.00276305
0.00285648
-0.00285505
0.00271539
0.00112717
-0.00107951
0.00274654
-0.00065057
0.000619427
0.00286677
-0.00458321
0.00446297
0.00278376
-0.00692176
0.00700477
0.00253722
-0.00675239
0.00699893
0.00235928
-0.00558557
0.00576352
0.00235203
-0.00333536
0.00334261
0.0023654
-0.00113051
0.00111714
0.00243872
0.000464476
-0.000537794
0.00266948
0.00325813
-0.00348889
0.00282844
0.00620389
-0.00636284
0.00281133
0.00710971
-0.0070926
0.00273888
0.00558614
-0.00551369
0.00267929
0.00302344
-0.00296385
0.00266961
0.000447636
-0.000437951
0.00268207
-0.00216174
0.00214928
0.00262964
-0.00436407
0.0044165
0.00254511
-0.00514488
0.00522941
0.00246925
-0.00434747
0.00442334
0.00242586
-0.00285642
0.0028998
0.00248515
-0.000363938
0.00030465
0.0025743
0.00273054
-0.00281969
0.00259958
0.0045142
-0.00453947
0.00259108
0.00374401
-0.00373551
0.0025872
0.00111028
-0.0011064
0.00257459
-0.00139349
0.00140611
0.00254449
-0.00226306
0.00229315
0.00254053
-0.00132646
0.00133043
0.00256762
0.000426692
-0.000453787
0.00257211
0.00177316
-0.00177765
0.00255305
0.00205125
-0.00203219
0.00255993
0.00113202
-0.00113889
0.00259546
-0.000331618
0.000296087
0.00262466
-0.00126104
0.00123184
0.00262754
-0.00124991
0.00124703
0.00260923
-0.000700718
0.000719028
0.00258035
-0.000155416
0.000184302
0.00254874
0.0001406
-0.000108998
0.0025169
0.000198567
-0.000166723
0.00248785
0.000139495
-0.000110448
0.00245992
5.34206e-05
-2.54848e-05
0.00243589
-5.11454e-06
2.91368e-05
0.00241103
-3.5618e-05
6.0483e-05
0.00238935
-3.94521e-05
6.11329e-05
0.00236356
-3.37683e-05
5.95586e-05
0.00234011
-2.52122e-05
4.86584e-05
0.00231193
-1.70441e-05
4.52247e-05
-1.47713e-05
4.03853e-05
0.00151445
-0.000493897
0.0015286
-0.000113435
0.00146456
-5.40605e-05
0.00154912
-0.000817269
0.00141813
0.00068396
0.00157426
3.33555e-05
0.0018757
0.000482039
0.00222491
0.000496227
0.00254919
-0.00126088
0.00279406
-0.00111734
0.00296576
-0.00179219
0.00305907
-0.00217548
0.00300476
-0.000284153
0.00316488
-0.0015563
0.00343865
0.000244325
0.00345794
-0.00155107
0.00365576
-0.0053139
0.0041253
-0.00274161
0.00438214
-0.000395948
0.00449742
-0.00276816
0.00449785
-0.00518627
0.00441924
-0.00607006
0.00409302
-0.00677658
0.00334654
-0.00808013
0.00245002
-0.00695046
0.00188717
-0.00553982
0.00194779
-0.00687571
0.00225162
-0.00337517
0.00252015
-0.00021627
0.00291491
0.00297508
0.00330577
0.00642258
0.00343749
0.00752247
0.00330688
0.00898897
0.00311301
0.00963335
0.00291177
0.006904
0.002782
0.00284485
0.0026909
-1.43789e-05
0.00252816
-0.00162439
0.00236308
-0.0046845
0.00224448
-0.0095588
0.00224103
-0.0101176
0.00239247
-0.00267819
0.00248913
0.00576233
0.00251707
0.00962041
0.00252767
0.00970366
0.00274146
0.00582385
0.00295591
-0.000370316
0.00306791
-0.00492774
0.00321214
-0.00475779
0.00308617
0.000344401
0.00286454
0.00421109
0.0028559
0.00286512
0.00279277
0.00119029
0.00283169
-0.000689481
0.00291728
-0.00466881
0.00276072
-0.0067652
0.00245576
-0.00644743
0.00224657
-0.00537638
0.00222207
-0.00331086
0.00223873
-0.00114717
0.0023094
0.000393804
0.00254735
0.00302018
0.00275397
0.00599727
0.00280288
0.0070608
0.00277997
0.00560906
0.00273931
0.0030641
0.00272767
0.000459269
0.00272498
-0.00215905
0.0026412
-0.00428029
0.00251724
-0.00502092
0.00241589
-0.00424613
0.00235629
-0.00279682
0.00240416
-0.000411804
0.00250465
0.00263004
0.0025611
0.00445775
0.00258122
0.00372389
0.002588
0.0011035
0.00257007
-0.00137556
0.00252969
-0.00222268
0.00251702
-0.00131379
0.00254346
0.000400253
0.00255925
0.00175737
0.00255812
0.00205238
0.00257756
0.00111258
0.00261337
-0.000367431
0.00263466
-0.00128233
0.00262844
-0.00124369
0.0026039
-0.000676179
0.00257234
-0.000123858
0.00254061
0.000172327
0.0025098
0.000229383
0.00248196
0.000167328
0.002455
8.03838e-05
0.00243154
1.83509e-05
0.00240697
-1.10504e-05
0.00238529
-1.77729e-05
0.00235958
-8.0629e-06
0.00233619
-1.81808e-06
0.00230833
1.08121e-05
1.03698e-05
0.00230703
-0.00053314
0.00237797
-0.000184381
0.00232804
-4.12658e-06
0.00229187
-0.000781098
0.00226813
0.0007077
0.00233403
-3.25469e-05
0.00247992
0.000336151
0.00283572
0.000140421
0.00320828
-0.00163343
0.00336477
-0.00127383
0.00347642
-0.00190384
0.00357084
-0.0022699
0.00349862
-0.000211936
0.00363209
-0.00168977
0.00397208
-9.56658e-05
0.00391474
-0.00149373
0.00398543
-0.00538459
0.00443897
-0.00319515
0.00467032
-0.000627297
0.00464894
-0.00274679
0.00453578
-0.00507312
0.00436658
-0.00590085
0.00392411
-0.00633411
0.00308101
-0.00723703
0.00213197
-0.00600141
0.00159765
-0.0050055
0.00172861
-0.00700667
0.00206387
-0.00371042
0.00221701
-0.000369419
0.00253246
0.00265964
0.00297649
0.00597854
0.00320123
0.00729773
0.00317909
0.00901111
0.00307578
0.00973666
0.00292106
0.00705872
0.00280588
0.00296003
0.0027171
7.44028e-05
0.00255313
-0.00146043
0.00236042
-0.00449179
0.00219097
-0.00938935
0.00213182
-0.0100585
0.00225755
-0.00280392
0.00239617
0.00562371
0.00248703
0.00952955
0.00253335
0.00965733
0.00279022
0.00556697
0.0030524
-0.000632489
0.00314703
-0.00502238
0.00325383
-0.00486458
0.00313778
0.000460451
0.00294372
0.00440515
0.00292899
0.00287985
0.00285318
0.00126611
0.00290225
-0.000738556
0.00294694
-0.0047135
0.00271562
-0.00653387
0.00235717
-0.00608897
0.00212366
-0.00514288
0.00208479
-0.00327198
0.00210425
-0.00116663
0.00217293
0.000325119
0.00241282
0.00278029
0.00265922
0.00575087
0.00277086
0.00694915
0.0027983
0.00558162
0.0027789
0.0030835
0.00276712
0.000471056
0.0027498
-0.00214173
0.00263554
-0.00416603
0.00247354
-0.00485892
0.00234771
-0.00412029
0.00227345
-0.00272256
0.00231036
-0.000448715
0.00242034
0.00252006
0.00250617
0.00437192
0.0025547
0.00367536
0.00257309
0.0010851
0.00255017
-0.00135263
0.00250001
-0.00217253
0.00247941
-0.00129318
0.00250466
0.000375002
0.00253066
0.00173138
0.00254693
0.0020361
0.00257859
0.00108092
0.00261438
-0.000403224
0.00262768
-0.00129563
0.00261258
-0.00122859
0.00258217
-0.00064577
0.00254839
-9.00808e-05
0.00251702
0.0002037
0.00248782
0.00025858
0.00246179
0.000193359
0.00243649
0.00010569
0.0024141
4.07358e-05
0.00239041
1.26388e-05
0.00236911
3.5257e-06
0.00234405
1.70009e-05
0.00232125
2.09836e-05
0.00229451
3.75494e-05
3.40231e-05
0.00306616
-0.000560496
0.0030342
-0.000152419
0.00308977
-5.97034e-05
0.00300217
-0.000693497
0.00299328
0.000716591
0.00312985
-0.000169114
0.003198
0.000268001
0.00344479
-0.000106375
0.00377393
-0.00196256
0.00385909
-0.00135899
0.00392894
-0.0019737
0.00399376
-0.00233472
0.00391228
-0.000130455
0.00399893
-0.00177642
0.00436359
-0.000460325
0.00426903
-0.00139917
0.00422292
-0.00533848
0.00462497
-0.0035972
0.00483775
-0.000840067
0.00471881
-0.00262785
0.00451588
-0.00487019
0.00424948
-0.00563445
0.003696
-0.00578063
0.00278306
-0.00632409
0.00181268
-0.00503103
0.00132889
-0.00452171
0.001526
-0.00720379
0.00189183
-0.00407625
0.00194885
-0.000426439
0.0021693
0.00243918
0.00262813
0.00551971
0.00292856
0.00699731
0.00301423
0.00892544
0.00300441
0.00974648
0.0029052
0.00715793
0.00281242
0.00305281
0.00272715
0.000159674
0.00256334
-0.00129662
0.00234589
-0.00427434
0.00212402
-0.00916748
0.00200977
-0.00994424
0.00210889
-0.00290303
0.00228738
0.00544522
0.00244043
0.0093765
0.00252479
0.00957297
0.00282133
0.00527043
0.00312911
-0.00094027
0.00320444
-0.00509771
0.00326006
-0.0049202
0.00315004
0.00057047
0.00299834
0.00455685
0.00297994
0.00289824
0.00289651
0.00134954
0.00295691
-0.000798952
0.00295442
-0.00471101
0.00264886
-0.00622831
0.00224334
-0.00568345
0.00199225
-0.00489178
0.00194181
-0.00322154
0.0019633
-0.00118812
0.00203052
0.000257895
0.00226789
0.00254292
0.00254617
0.0054726
0.00271629
0.00677902
0.00279374
0.00550417
0.00279739
0.00307985
0.00278761
0.000480832
0.0027565
-0.00211062
0.00261282
-0.00402236
0.00241452
-0.00466062
0.00226539
-0.00397116
0.00217801
-0.00263518
0.00220459
-0.000475292
0.00232239
0.00240226
0.00243563
0.00425868
0.00251195
0.00359904
0.00254271
0.00105434
0.00251539
-0.00132531
0.00245581
-0.00211295
0.00242778
-0.00126516
0.00245149
0.0003513
0.0024868
0.00169606
0.00251989
0.00200302
0.00256323
0.00103758
0.00259873
-0.00043872
0.00260403
-0.00130093
0.00258028
-0.00120484
0.00254438
-0.000609875
0.00250889
-5.45896e-05
0.0024784
0.000234187
0.00245144
0.000285537
0.00242779
0.000217013
0.00240475
0.000128729
0.00238387
6.16161e-05
0.00236154
3.49729e-05
0.00234095
2.4118e-05
0.00231708
4.08638e-05
0.00229545
4.26185e-05
0.00227069
6.23041e-05
5.51708e-05
0.00369468
-0.000655471
0.00356898
-2.67156e-05
0.0036729
-0.000163626
0.0035993
-0.000619903
0.00356688
0.00074901
0.00375286
-0.000355091
0.00380735
0.000213512
0.00397475
-0.000273774
0.00423007
-0.00221789
0.00425073
-0.00137965
0.00428925
-0.00201221
0.00430848
-0.00235394
0.00424332
-6.52985e-05
0.00427727
-0.00181037
0.00461155
-0.000794602
0.00452019
-0.00130781
0.00437953
-0.00519782
0.0047014
-0.00391907
0.00489489
-0.00103357
0.00471345
-0.00244641
0.00443618
-0.00459291
0.00406862
-0.00526689
0.0034165
-0.00512852
0.00245719
-0.00536478
0.00150093
-0.00407478
0.00107497
-0.00409574
0.00131131
-0.00744013
0.0017035
-0.00446844
0.00169568
-0.000418621
0.00183079
0.00230407
0.0022749
0.0050756
0.00263364
0.00663857
0.00282187
0.00873721
0.00290367
0.00966468
0.00286569
0.00719591
0.00280208
0.00311642
0.00272169
0.000240065
0.00255996
-0.00113489
0.00232035
-0.00403474
0.00204527
-0.0088924
0.00187623
-0.0097752
0.00194704
-0.00297383
0.00216354
0.00522871
0.00237643
0.00916361
0.00250526
0.00944415
0.00283917
0.00493652
0.00317894
-0.00128004
0.00323675
-0.00515551
0.00323079
-0.00491425
0.00312157
0.000679684
0.00302499
0.00465343
0.00300616
0.00291707
0.00292225
0.00143345
0.0029939
-0.0008706
0.00293852
-0.00465563
0.00256124
-0.00585104
0.00211639
-0.0052386
0.0018538
-0.00462919
0.00179422
-0.00316196
0.00181682
-0.00121072
0.00188293
0.000191783
0.00211424
0.0023116
0.00241683
0.00517002
0.00264053
0.00655532
0.00276661
0.00537809
0.00279461
0.00305185
0.00278923
0.000486211
0.00274534
-0.00206673
0.00257338
-0.00385039
0.00234079
-0.00442803
0.00216975
-0.00380012
0.00207079
-0.00253621
0.00208769
-0.000492196
0.00221194
0.00227801
0.00235053
0.00412009
0.00245378
0.00349579
0.00249741
0.00101071
0.00246635
-0.00129425
0.00239741
-0.002044
0.00236217
-0.00122992
0.00238411
0.000329353
0.0024282
0.00165197
0.00247748
0.00195374
0.00253188
0.000983178
0.00256686
-0.000473699
0.00256412
-0.00129819
0.00253181
-0.00117253
0.00249083
-0.000568892
0.00245422
-1.79774e-05
0.00242524
0.000263162
0.00240118
0.000309598
0.00238047
0.000237727
0.0023602
0.000148993
0.00234115
8.06694e-05
0.00232055
5.55702e-05
0.00230099
4.36808e-05
0.00227895
6.29066e-05
0.00225914
6.24236e-05
0.00223735
8.40982e-05
7.28023e-05
0.00416811
-0.000803821
0.00399785
0.000143549
0.00411244
-0.000278213
0.00406778
-0.000575251
0.00401841
0.000798388
0.00421593
-0.000552616
0.00426366
0.000165786
0.00438157
-0.000391681
0.00455821
-0.00239453
0.00453866
-0.0013601
0.00455355
-0.0020271
0.00451877
-0.00231916
0.00447938
-2.59034e-05
0.00446309
-0.00179408
0.00473539
-0.0010669
0.00467122
-0.00124364
0.00446195
-0.00498855
0.00469421
-0.00415133
0.00486499
-0.00120435
0.00464776
-0.00222917
0.00430698
-0.00425213
0.0038329
-0.00479281
0.00309043
-0.00438605
0.00210893
-0.00438327
0.00120687
-0.00317272
0.000834294
-0.00372317
0.00105982
-0.00766565
0.00147122
-0.00487984
0.00143818
-0.000385583
0.0015155
0.00222675
0.00192488
0.00466623
0.0023205
0.00624295
0.00260221
0.0084555
0.00277345
0.00949343
0.00280254
0.00716682
0.00277447
0.00314448
0.00270198
0.000312559
0.00254471
-0.000977615
0.00228509
-0.00377512
0.00195626
-0.00856357
0.00173174
-0.00955068
0.00177207
-0.00301416
0.0020258
0.00497498
0.00229447
0.00889493
0.00247681
0.00926181
0.00284683
0.0045665
0.00319732
-0.00163053
0.00323813
-0.00519632
0.00316583
-0.00484194
0.00305266
0.000792853
0.00302092
0.00468517
0.00300533
0.00293267
0.00292968
0.00150909
0.00301137
-0.000952284
0.00289828
-0.00454254
0.00245399
-0.00540675
0.00197866
-0.00476327
0.00170964
-0.00436017
0.00164261
-0.00309493
0.00166536
-0.00123347
0.00173052
0.000126623
0.00195318
0.00208895
0.0022731
0.00485009
0.00254515
0.00628328
0.00271761
0.00520563
0.00277082
0.00299864
0.00277247
0.000484564
0.00271685
-0.00201112
0.00251772
-0.00365126
0.00225316
-0.00416347
0.00206172
-0.00360868
0.00195262
-0.00242712
0.00196062
-0.000500201
0.0020902
0.00214844
0.00225203
0.00395825
0.00238126
0.00336656
0.00243815
0.00095383
0.0024037
-0.0012598
0.00232504
-0.00196534
0.00228244
-0.00118732
0.00230263
0.000309171
0.00235537
0.00159922
0.00242025
0.00188886
0.0024851
0.000918331
0.00251939
-0.000507994
0.00250829
-0.00128708
0.00246732
-0.00113156
0.00242165
-0.000523225
0.00238464
1.90287e-05
0.00235795
0.000289852
0.0023375
0.000330049
0.00232027
0.000254963
0.00230317
0.000166087
0.0022862
9.7645e-05
0.00226769
7.40817e-05
0.00224957
6.17962e-05
0.0022301
8.2372e-05
0.00221294
7.95922e-05
0.0021952
0.000101835
8.59668e-05
0.00451171
-0.000970912
0.00433331
0.000321946
0.00444125
-0.000386153
0.00441846
-0.000552465
0.0043682
0.000848652
0.00454977
-0.00073419
0.00459158
0.000123983
0.0046783
-0.000478403
0.00477412
-0.00249036
0.00473678
-0.00132277
0.00472684
-0.00201716
0.00463702
-0.00222934
0.0046266
-1.54813e-05
0.00456183
-0.00172932
0.00475783
-0.0012629
0.00473432
-0.00122013
0.00447721
-0.00473144
0.00461673
-0.00429084
0.00476054
-0.00134816
0.00452481
-0.00199345
0.0041202
-0.00384753
0.00353477
-0.00420738
0.00272225
-0.00357353
0.00175212
-0.00341315
0.000936929
-0.00235753
0.00060429
-0.00339053
0.000756456
-0.00781781
0.00117121
-0.0052946
0.00116085
-0.000375223
0.00121315
0.00217445
0.00158456
0.00429482
0.00200449
0.00582302
0.00236623
0.00809375
0.00261987
0.00923979
0.00271862
0.00706808
0.00273077
0.00313233
0.0026698
0.000373529
0.00251962
-0.000827436
0.0022415
-0.003497
0.00185819
-0.00818026
0.00157634
-0.00926884
0.00158349
-0.0030213
0.00187538
0.00468309
0.00219444
0.00857587
0.00243891
0.00901734
0.00284486
0.00416054
0.00318285
-0.00196852
0.00320131
-0.00521478
0.00306369
-0.00470432
0.00294727
0.000909269
0.0029844
0.00464804
0.00297538
0.00294169
0.00291835
0.00156612
0.00300739
-0.00104132
0.00283308
-0.00436824
0.00232879
-0.00490246
0.00183263
-0.0042671
0.0015608
-0.00408835
0.00148717
-0.0030213
0.00150908
-0.00125538
0.0015733
6.24023e-05
0.0017856
0.00187665
0.00211678
0.00451891
0.00243197
0.00596809
0.0026478
0.0049898
0.00272674
0.00291969
0.00273821
0.000473101
0.00267168
-0.00194459
0.00244649
-0.00342607
0.00215256
-0.00386954
0.00194228
-0.0033984
0.00182447
-0.0023093
0.00182454
-0.000500276
0.00195846
0.00201452
0.00214142
0.00377529
0.00229572
0.00321226
0.00236598
0.000883566
0.00232799
-0.00122181
0.00223884
-0.0018762
0.00218836
-0.00113684
0.0022071
0.000290427
0.00226882
0.00153751
0.00234874
0.00180894
0.00242366
0.000843409
0.002457
-0.00054133
0.00243666
-0.00126675
0.00238656
-0.00108146
0.00233666
-0.000473322
0.0023002
5.54831e-05
0.00227677
0.000313288
0.00226071
0.000346105
0.00224747
0.000268202
0.00223386
0.000179698
0.00221924
0.000112269
0.00220325
9.00699e-05
0.00218722
7.78215e-05
0.00217129
9.83035e-05
0.00215773
9.31567e-05
0.00214519
0.00011437
9.38855e-05
0.00474241
-0.00111984
0.00458254
0.000481813
0.00467192
-0.000475526
0.00465741
-0.000537956
0.00462448
0.00088158
0.00476692
-0.000876625
0.00481031
8.05926e-05
0.00487581
-0.000543909
0.00488846
-0.00250301
0.00485146
-0.00128576
0.00481083
-0.00197653
0.0046717
-0.00209021
0.00468813
-3.19064e-05
0.00457937
-0.00162056
0.00469749
-0.00138103
0.00471823
-0.00124087
0.00443195
-0.00444517
0.00447619
-0.00433508
0.00458816
-0.00146013
0.00433969
-0.00174498
0.00386426
-0.00337209
0.00317681
-0.00351993
0.0023271
-0.00272382
0.00140094
-0.00248699
0.000689523
-0.00164611
0.000375383
-0.00307639
0.000391411
-0.00783384
0.000792557
-0.00569574
0.000855992
-0.000438657
0.000917146
0.0021133
0.00125194
0.00396003
0.00168227
0.00539269
0.00211261
0.00766342
0.00244425
0.00890815
0.00261563
0.0068967
0.00267227
0.00307569
0.0026271
0.000418705
0.00248694
-0.000687277
0.00219159
-0.00320165
0.001752
-0.00774067
0.0014093
-0.00892614
0.00138185
-0.00299385
0.00171353
0.00435141
0.00207777
0.00821163
0.0023898
0.00870531
0.00283172
0.00371862
0.00313453
-0.00227133
0.00311893
-0.00519919
0.00292011
-0.0045055
0.00280855
0.00102082
0.00291457
0.00454202
0.00291573
0.00294054
0.0028881
0.00159374
0.00298026
-0.00113348
0.0027427
-0.00413068
0.00218785
-0.0043476
0.00168097
-0.00376022
0.00140827
-0.00381565
0.00132762
-0.00294064
0.00134788
-0.00127564
0.00141105
-7.70719e-07
0.00161202
0.00167568
0.00194939
0.00418153
0.00230285
0.00561464
0.00255849
0.00473416
0.00266343
0.00281476
0.00268759
0.00044894
0.0026106
-0.0018676
0.00236039
-0.00317586
0.00204011
-0.00354927
0.00181255
-0.00317084
0.0016874
-0.00218415
0.00168077
-0.000493645
0.00181805
0.00187723
0.00202009
0.00357325
0.00219874
0.00303361
0.00228203
0.000800279
0.00223964
-0.00117942
0.0021389
-0.00177546
0.00207981
-0.00107774
0.00209782
0.000272411
0.002169
0.00146633
0.00226357
0.00171436
0.00234858
0.000758407
0.00238015
-0.000572898
0.00234884
-0.00123544
0.00228888
-0.00102149
0.00223535
-0.000419795
0.00220067
9.01646e-05
0.00218169
0.000332267
0.00217088
0.000356913
0.00216217
0.000276917
0.00215237
0.000189496
0.00214056
0.000124079
0.00212777
0.000102856
0.00211481
9.07841e-05
0.00210355
0.000109565
0.00209464
0.000102066
0.00208831
0.000120702
9.6124e-05
0.00486814
-0.00121731
0.00474932
0.000600637
0.00481006
-0.000536264
0.00479076
-0.000518659
0.00478985
0.00088249
0.00487344
-0.000960216
0.00492725
2.67798e-05
0.00497542
-0.000592077
0.00491078
-0.00243837
0.00488718
-0.00126216
0.0048106
-0.00189995
0.00463394
-0.00191356
0.00467105
-6.90137e-05
0.00452353
-0.00147303
0.00457362
-0.00143112
0.00463592
-0.00130317
0.0043252
-0.00413445
0.00426259
-0.00427247
0.00433535
-0.00153288
0.00407332
-0.00148295
0.00352783
-0.00282661
0.00276168
-0.00275378
0.00191347
-0.00187561
0.00106384
-0.00163736
0.00046392
-0.00104619
0.000138866
-0.00275133
-4.62072e-05
-0.00764877
0.000356611
-0.00609856
0.000527283
-0.00060933
0.000616372
0.00202421
0.000931406
0.00364499
0.0013714
0.0049527
0.00185268
0.00718214
0.00225302
0.00850781
0.0024972
0.00665252
0.0026015
0.00297139
0.00257655
0.000443655