/*--------------------------------*- C++ -*----------------------------------*\
| =========                 |                                                 |
| \\      /  F ield         | OpenFOAM: The Open Source CFD Toolbox           |
|  \\    /   O peration     | Version:  2.4.0                                 |
|   \\  /    A nd           | Web:      www.OpenFOAM.org                      |
|    \\/     M anipulation  |                                                 |
\*---------------------------------------------------------------------------*/
FoamFile
{
    version     2.0;
    format      ascii;
    class       volVectorField;
    location    "95";
    object      U;
}
// * * * * * * * * * * * * * * * * * * * * * * * * * * * * * * * * * * * * * //

dimensions      [0 1 -1 0 0 0 0];

internalField   nonuniform List<vector> 
4400
(
(0.113424 -0.00127874 0)
(0.0887454 0.00244684 0)
(0.0840597 0.000775738 0)
(0.101165 -0.00331207 0)
(0.104771 0.00224928 0)
(0.0975605 -0.00073229 0)
(0.104296 -0.000473742 0)
(0.0923293 0.00164201 0)
(0.101576 -0.001617 0)
(0.0925323 0.00135638 0)
(0.102057 -0.000992328 0)
(0.0975089 -6.54449e-05 0)
(0.103898 0.000518389 0)
(0.102462 -0.000980644 0)
(0.0941855 0.0017117 0)
(0.104985 -0.00171023 0)
(0.0964386 0.000818727 0)
(0.10736 0.000466125 0)
(0.0992319 -0.00196955 0)
(0.115916 0.00319671 0)
(0.30255 -0.00398087 0)
(0.247272 0.0082096 0)
(0.283856 0.000537102 0)
(0.274452 -0.0107169 0)
(0.285352 0.00711073 0)
(0.284979 -0.00290457 0)
(0.277445 -0.000505965 0)
(0.275358 0.00461577 0)
(0.281672 -0.005149 0)
(0.266138 0.00417768 0)
(0.292372 -0.00364035 0)
(0.2707 0.000444901 0)
(0.290795 0.000717934 0)
(0.282492 -0.00231387 0)
(0.266261 0.00477365 0)
(0.304706 -0.00510646 0)
(0.254325 0.00174744 0)
(0.317899 0.00169855 0)
(0.256674 -0.00713071 0)
(0.319218 0.00996939 0)
(0.470997 -0.00646029 0)
(0.386677 0.0143687 0)
(0.473734 -0.00166814 0)
(0.430324 -0.01694 0)
(0.441148 0.0120647 0)
(0.469287 -0.00556733 0)
(0.420075 0.000748636 0)
(0.458599 0.00697653 0)
(0.436629 -0.00839603 0)
(0.430016 0.00707365 0)
(0.461965 -0.00730951 0)
(0.427376 0.00215214 0)
(0.46179 -0.000242279 0)
(0.444983 -0.00245631 0)
(0.424227 0.00710057 0)
(0.485474 -0.00895833 0)
(0.395887 0.00344199 0)
(0.506758 0.00146058 0)
(0.404302 -0.0115157 0)
(0.488014 0.0152282 0)
(0.623135 -0.00751775 0)
(0.496496 0.0189612 0)
(0.633952 -0.00529269 0)
(0.582646 -0.0196065 0)
(0.560554 0.0151033 0)
(0.653167 -0.00677904 0)
(0.535591 0.00240159 0)
(0.62568 0.00811837 0)
(0.580521 -0.00938872 0)
(0.567921 0.00901341 0)
(0.623391 -0.00992532 0)
(0.554765 0.00329662 0)
(0.62154 -0.00108023 0)
(0.587886 -0.0015468 0)
(0.560983 0.00833921 0)
(0.655517 -0.0108356 0)
(0.51408 0.00446712 0)
(0.67041 0.000667042 0)
(0.556178 -0.011699 0)
(0.60555 0.0138523 0)
(0.762659 -0.00656919 0)
(0.592137 0.0248912 0)
(0.735438 -0.0163051 0)
(0.728633 -0.0184952 0)
(0.640999 0.0159664 0)
(0.806999 -0.00988514 0)
(0.643761 0.00761011 0)
(0.747079 0.00536344 0)
(0.719731 -0.00743453 0)
(0.669131 0.00974238 0)
(0.766014 -0.0121531 0)
(0.659966 0.0057664 0)
(0.744214 -0.00480385 0)
(0.719965 0.00244745 0)
(0.660294 0.00684121 0)
(0.799012 -0.0126611 0)
(0.62561 0.00893603 0)
(0.781609 -0.00639561 0)
(0.705156 -0.00683788 0)
(0.69382 0.0110745 0)
(0.874469 -0.00669718 0)
(0.699925 0.0367666 0)
(0.792471 -0.0328966 0)
(0.846005 -0.0175231 0)
(0.706798 0.0176218 0)
(0.904359 -0.0186248 0)
(0.74806 0.0161778 0)
(0.823567 -0.000401261 0)
(0.835 -0.00496121 0)
(0.747355 0.0110836 0)
(0.868928 -0.0163953 0)
(0.753953 0.0110561 0)
(0.82585 -0.0116451 0)
(0.828615 0.00755618 0)
(0.739566 0.00581654 0)
(0.894388 -0.0180891 0)
(0.730058 0.0172791 0)
(0.852187 -0.0168135 0)
(0.818633 -0.0021342 0)
(0.772202 0.0111546 0)
(0.949789 -0.00953963 0)
(0.806937 0.0527499 0)
(0.845206 -0.0479313 0)
(0.930573 -0.0177117 0)
(0.77655 0.0223242 0)
(0.959002 -0.0310789 0)
(0.837136 0.0260532 0)
(0.876861 -0.00685283 0)
(0.91782 -0.00340465 0)
(0.815697 0.0140046 0)
(0.936661 -0.0224161 0)
(0.834021 0.018078 0)
(0.88515 -0.0193034 0)
(0.90659 0.0120485 0)
(0.811877 0.00661454 0)
(0.953569 -0.0256881 0)
(0.817221 0.0272329 0)
(0.904485 -0.0271 0)
(0.895435 0.00113701 0)
(0.84072 0.0135201 0)
(0.993863 -0.0137412 0)
(0.893359 0.0684493 0)
(0.901087 -0.0591203 0)
(0.98597 -0.0184427 0)
(0.849004 0.0291057 0)
(0.99013 -0.0437805 0)
(0.905616 0.035573 0)
(0.919842 -0.012442 0)
(0.970459 -0.00275429 0)
(0.876096 0.0178032 0)
(0.979305 -0.0286979 0)
(0.896415 0.0252414 0)
(0.932244 -0.0261231 0)
(0.956538 0.0153588 0)
(0.87665 0.00849118 0)
(0.988948 -0.0332781 0)
(0.88419 0.03675 0)
(0.946613 -0.0354146 0)
(0.944162 0.00323563 0)
(0.898127 0.0166173 0)
(1.01276 -0.0175925 0)
(0.953974 0.0808539 0)
(0.94981 -0.0663215 0)
(1.0131 -0.019286 0)
(0.914511 0.0358461 0)
(1.00414 -0.0539853 0)
(0.952511 0.0436102 0)
(0.953977 -0.01656 0)
(0.996273 -0.00260331 0)
(0.925388 0.0211375 0)
(1.00051 -0.0338265 0)
(0.939575 0.0311373 0)
(0.966806 -0.0312727 0)
(0.981688 0.017613 0)
(0.929565 0.0104077 0)
(1.00408 -0.0391967 0)
(0.931057 0.0443365 0)
(0.976946 -0.0410959 0)
(0.969176 0.00459543 0)
(0.942962 0.0196892 0)
(1.00964 -0.019964 0)
(0.990206 0.0879852 0)
(0.983829 -0.0687461 0)
(1.01403 -0.019689 0)
(0.965912 0.0409526 0)
(1.00103 -0.0593362 0)
(0.978355 0.0492577 0)
(0.97627 -0.0186812 0)
(0.998275 -0.00252139 0)
(0.960956 0.0229785 0)
(1.00135 -0.0364461 0)
(0.963904 0.0348615 0)
(0.986135 -0.0341419 0)
(0.984699 0.0191098 0)
(0.96724 0.0114967 0)
(0.999785 -0.0421727 0)
(0.958751 0.0487279 0)
(0.992589 -0.0437923 0)
(0.97251 0.00556087 0)
(0.973577 0.0216613 0)
(0.986024 -0.0201202 0)
(1.00476 0.088505 0)
(0.998922 -0.0665531 0)
(0.991527 -0.0189338 0)
(0.999202 0.0424847 0)
(0.979473 -0.0587882 0)
(0.984512 0.0515867 0)
(0.982914 -0.0186189 0)
(0.979065 -0.00158229 0)
(0.98093 0.0228414 0)
(0.982444 -0.0357339 0)
(0.971006 0.0357121 0)
(0.987874 -0.0344373 0)
(0.968461 0.0199493 0)
(0.987478 0.0110462 0)
(0.976845 -0.0413146 0)
(0.96886 0.0490636 0)
(0.991331 -0.0432821 0)
(0.956498 0.00637325 0)
(0.988541 0.0216029 0)
(0.942833 -0.0180737 0)
(1.00078 0.0823237 0)
(0.991616 -0.0604166 0)
(0.948735 -0.017291 0)
(1.01132 0.0395372 0)
(0.937995 -0.0528881 0)
(0.972802 0.0496296 0)
(0.969988 -0.0168683 0)
(0.941543 -0.000186274 0)
(0.983277 0.0204445 0)
(0.94422 -0.032066 0)
(0.963185 0.0330978 0)
(0.969839 -0.032209 0)
(0.936625 0.0198105 0)
(0.988729 0.00902042 0)
(0.936319 -0.0368878 0)
(0.963795 0.0451018 0)
(0.970944 -0.0397127 0)
(0.925022 0.00663369 0)
(0.986267 0.0195611 0)
(0.881372 -0.0144765 0)
(0.981699 0.0706063 0)
(0.957697 -0.0509061 0)
(0.890479 -0.0157939 0)
(0.998764 0.0334539 0)
(0.875877 -0.0429943 0)
(0.945625 0.0434178 0)
(0.933587 -0.0136094 0)
(0.890503 0.000535615 0)
(0.9656 0.0164488 0)
(0.888415 -0.0264053 0)
(0.943033 0.0273122 0)
(0.929856 -0.0275772 0)
(0.894425 0.0181115 0)
(0.969109 0.00652974 0)
(0.880268 -0.0302735 0)
(0.945994 0.037586 0)
(0.929122 -0.0336546 0)
(0.883467 0.00584081 0)
(0.964333 0.0161934 0)
(0.805201 -0.0105617 0)
(0.948859 0.0552646 0)
(0.892351 -0.0389175 0)
(0.823586 -0.0146665 0)
(0.95704 0.0264769 0)
(0.795401 -0.0313195 0)
(0.905719 0.0339717 0)
(0.871831 -0.00899418 0)
(0.83322 -4.92301e-05 0)
(0.92507 0.0122117 0)
(0.819712 -0.0200828 0)
(0.910571 0.0195437 0)
(0.866475 -0.0210178 0)
(0.847274 0.0144861 0)
(0.924851 0.00473198 0)
(0.812576 -0.0231661 0)
(0.914213 0.0279817 0)
(0.864379 -0.0257986 0)
(0.835639 0.00362885 0)
(0.919137 0.0127439 0)
(0.722003 -0.00803317 0)
(0.894632 0.0393184 0)
(0.792848 -0.0253321 0)
(0.754581 -0.0150124 0)
(0.882082 0.0204447 0)
(0.704684 -0.020566 0)
(0.85291 0.0227282 0)
(0.78673 -0.00358223 0)
(0.773813 -0.00214318 0)
(0.8573 0.00883898 0)
(0.743275 -0.0146301 0)
(0.857788 0.0117162 0)
(0.780075 -0.0136078 0)
(0.793499 0.00927287 0)
(0.849631 0.00445903 0)
(0.737026 -0.0171669 0)
(0.859425 0.0184037 0)
(0.777181 -0.0170875 0)
(0.778929 0.000150491 0)
(0.846189 0.0102434 0)
(0.638105 -0.00814158 0)
(0.7976 0.0272933 0)
(0.667993 -0.0121789 0)
(0.681711 -0.0177086 0)
(0.770284 0.0165776 0)
(0.613314 -0.0129958 0)
(0.774394 0.0122174 0)
(0.680405 0.00169287 0)
(0.702599 -0.0050311 0)
(0.754725 0.00713727 0)
(0.657427 -0.0107822 0)
(0.768912 0.00596022 0)
(0.673066 -0.00691464 0)
(0.718842 0.00391301 0)
(0.738992 0.00588777 0)
(0.6529 -0.013228 0)
(0.768348 0.0110408 0)
(0.671213 -0.00910311 0)
(0.702696 -0.00361769 0)
(0.741323 0.00899468 0)
(0.541249 -0.00908804 0)
(0.648003 0.021233 0)
(0.543926 -0.00358256 0)
(0.584235 -0.019383 0)
(0.622367 0.0149136 0)
(0.518608 -0.00883598 0)
(0.648549 0.0056482 0)
(0.555912 0.00546087 0)
(0.600014 -0.00708331 0)
(0.615303 0.00682972 0)
(0.553582 -0.00821053 0)
(0.634911 0.00319445 0)
(0.55033 -0.00233553 0)
(0.607602 0.000170622 0)
(0.599943 0.00739353 0)
(0.553241 -0.0110466 0)
(0.635207 0.00668678 0)
(0.551348 -0.00353344 0)
(0.593528 -0.00620693 0)
(0.60527 0.00856007 0)
(0.412098 -0.00775696 0)
(0.475422 0.0161209 0)
(0.423154 -0.000592268 0)
(0.442787 -0.0161628 0)
(0.45596 0.0123612 0)
(0.403175 -0.00622285 0)
(0.479368 0.00286204 0)
(0.420952 0.00594908 0)
(0.457734 -0.00679846 0)
(0.453986 0.0061641 0)
(0.425495 -0.00609043 0)
(0.46831 0.00218264 0)
(0.416602 -0.000435402 0)
(0.459649 -0.00145099 0)
(0.446712 0.00689826 0)
(0.427298 -0.00880944 0)
(0.469408 0.00446922 0)
(0.418469 -0.000830206 0)
(0.448036 -0.00634365 0)
(0.448131 0.007437 0)
(0.254672 -0.00476845 0)
(0.297 0.00902519 0)
(0.281783 0.00105068 0)
(0.271882 -0.00994741 0)
(0.281682 0.00735243 0)
(0.260092 -0.00353026 0)
(0.291986 0.000427236 0)
(0.271695 0.00441872 0)
(0.287276 -0.00447467 0)
(0.284058 0.00404964 0)
(0.273091 -0.00358083 0)
(0.287717 0.00099198 0)
(0.267121 0.000186591 0)
(0.285886 -0.00162736 0)
(0.28295 0.00464332 0)
(0.272876 -0.00532716 0)
(0.287903 0.00241842 0)
(0.26863 0.000445866 0)
(0.276388 -0.00450173 0)
(0.278575 0.00486204 0)
(0.0789049 -0.00144561 0)
(0.101941 0.00253996 0)
(0.112069 0.000718797 0)
(0.090556 -0.00313953 0)
(0.0963306 0.00211546 0)
(0.0941649 -0.00118176 0)
(0.0956963 -0.000258686 0)
(0.0998887 0.00162927 0)
(0.101126 -0.00150903 0)
(0.101749 0.00127527 0)
(0.0992699 -0.00114259 0)
(0.0985501 0.000201877 0)
(0.0960387 0.000178197 0)
(0.0971919 -0.000671098 0)
(0.102853 0.00150864 0)
(0.0971927 -0.00165574 0)
(0.0972712 0.000690855 0)
(0.0976691 0.000384901 0)
(0.0914217 -0.00152315 0)
(0.0961237 0.00156463 0)
(0.0697457 -0.0101873 0)
(0.211103 -0.0046557 0)
(0.0436647 -0.00538318 0)
(0.284822 -0.025532 0)
(0.0470908 0.0182394 0)
(0.25073 0.0133146 0)
(0.222544 0.0389311 0)
(0.290581 0.0381212 0)
(0.372559 -0.0320687 0)
(0.383688 -0.0261522 0)
(0.461817 -0.057122 0)
(0.545673 -0.078516 0)
(0.402308 -0.0137558 0)
(0.576485 -0.0491335 0)
(0.492274 0.0234381 0)
(0.521438 -0.0582026 0)
(0.742693 -0.189311 0)
(0.678443 -0.0744587 0)
(0.667403 0.000161137 0)
(0.870513 -0.0906996 0)
(0.920585 -0.18391 0)
(0.862362 -0.217327 0)
(0.879961 -0.253756 0)
(0.797663 -0.320719 0)
(0.614144 -0.28659 0)
(0.528196 -0.218957 0)
(0.3359 -0.230936 0)
(0.477615 -0.0977099 0)
(0.528039 0.00855119 0)
(0.657055 0.121082 0)
(0.699903 0.232661 0)
(0.743623 0.254117 0)
(0.731702 0.288284 0)
(0.640485 0.305353 0)
(0.57402 0.214934 0)
(0.558205 0.0859824 0)
(0.547758 -0.00447243 0)
(0.522824 -0.0591047 0)
(0.498939 -0.155738 0)
(0.450358 -0.305809 0)
(0.413738 -0.316017 0)
(0.501895 -0.0761095 0)
(0.547215 0.181057 0)
(0.514864 0.294713 0)
(0.472939 0.294926 0)
(0.493051 0.185363 0)
(0.580131 -0.0012581 0)
(0.575965 -0.141343 0)
(0.636736 -0.134092 0)
(0.635807 0.00387623 0)
(0.534374 0.112313 0)
(0.557926 0.0824789 0)
(0.555893 0.0316399 0)
(0.518914 -0.0176065 0)
(0.582046 -0.127609 0)
(0.593838 -0.19563 0)
(0.527133 -0.19193 0)
(0.465875 -0.157296 0)
(0.463526 -0.0920047 0)
(0.47763 -0.0307165 0)
(0.461949 0.0134271 0)
(0.514897 0.0906951 0)
(0.57459 0.168261 0)
(0.566145 0.189157 0)
(0.545799 0.146998 0)
(0.535811 0.0788267 0)
(0.529054 0.0116629 0)
(0.545225 -0.0553616 0)
(0.542653 -0.112537 0)
(0.513551 -0.132299 0)
(0.496527 -0.111129 0)
(0.478391 -0.0725059 0)
(0.48666 -0.00853673 0)
(0.518054 0.0686482 0)
(0.521735 0.11153 0)
(0.513012 0.091645 0)
(0.517268 0.0270762 0)
(0.520309 -0.0336468 0)
(0.510833 -0.0545573 0)
(0.503855 -0.0316588 0)
(0.512167 0.0102855 0)
(0.518198 0.0416114 0)
(0.510901 0.0476254 0)
(0.507407 0.0263671 0)
(0.515285 -0.00710474 0)
(0.523736 -0.0283937 0)
(0.526774 -0.0282959 0)
(0.524577 -0.0160041 0)
(0.519603 -0.00382188 0)
(0.512859 0.00274594 0)
(0.506694 0.00401543 0)
(0.499923 0.0027349 0)
(0.495117 0.000860855 0)
(0.48873 -0.000364355 0)
(0.4856 -0.00102504 0)
(0.478766 -0.00106742 0)
(0.476978 -0.000983876 0)
(0.468447 -0.000773829 0)
(0.467554 -0.000646979 0)
(0.457183 -0.000568842 0)
(0.247245 -0.0188295 0)
(0.364284 -0.00284397 0)
(0.226131 -0.00535437 0)
(0.392499 -0.0325225 0)
(0.212206 0.0247985 0)
(0.343629 0.000364469 0)
(0.297588 0.0245891 0)
(0.407863 0.0287077 0)
(0.521213 -0.0422595 0)
(0.505801 -0.038821 0)
(0.576122 -0.0641737 0)
(0.669646 -0.0818001 0)
(0.523161 -0.0122406 0)
(0.69137 -0.0564265 0)
(0.602708 0.0148924 0)
(0.644612 -0.0563751 0)
(0.821926 -0.197859 0)
(0.765134 -0.0929956 0)
(0.759861 -0.00939357 0)
(0.936174 -0.0960798 0)
(0.950955 -0.18564 0)
(0.883425 -0.216976 0)
(0.869874 -0.244631 0)
(0.757821 -0.296222 0)
(0.558318 -0.256265 0)
(0.463927 -0.198763 0)
(0.272978 -0.232062 0)
(0.440803 -0.107295 0)
(0.472593 -0.00314696 0)
(0.572042 0.107531 0)
(0.629052 0.221339 0)
(0.691919 0.25174 0)
(0.705994 0.294741 0)
(0.637749 0.313401 0)
(0.577092 0.222239 0)
(0.564398 0.0903834 0)
(0.55535 -0.00158517 0)
(0.533207 -0.053893 0)
(0.506732 -0.150789 0)
(0.446359 -0.302743 0)
(0.400034 -0.316553 0)
(0.476728 -0.0812647 0)
(0.52484 0.178892 0)
(0.507972 0.294828 0)
(0.47603 0.295015 0)
(0.50021 0.179425 0)
(0.600325 -0.00709366 0)
(0.59762 -0.144974 0)
(0.648525 -0.139006 0)
(0.656391 0.00754292 0)
(0.554078 0.119048 0)
(0.578457 0.0826679 0)
(0.570397 0.0332612 0)
(0.536063 -0.0185061 0)
(0.598734 -0.130463 0)
(0.596522 -0.192175 0)
(0.514297 -0.184102 0)
(0.44627 -0.151763 0)
(0.438404 -0.0914388 0)
(0.451111 -0.0310808 0)
(0.437371 0.0115582 0)
(0.487012 0.0844248 0)
(0.553697 0.163376 0)
(0.558855 0.188754 0)
(0.55051 0.148302 0)
(0.547257 0.0801881 0)
(0.541508 0.0119559 0)
(0.555747 -0.0554614 0)
(0.548689 -0.110751 0)
(0.511421 -0.129595 0)
(0.48723 -0.108851 0)
(0.466136 -0.0711664 0)
(0.470891 -0.00982831 0)
(0.501943 0.0663141 0)
(0.511324 0.110525 0)
(0.50891 0.091501 0)
(0.51661 0.0270428 0)
(0.519617 -0.0332731 0)
(0.508674 -0.0537058 0)
(0.500172 -0.0314522 0)
(0.507215 0.00965751 0)
(0.514257 0.0413773 0)
(0.510226 0.0478619 0)
(0.510064 0.0260682 0)
(0.519052 -0.00792425 0)
(0.526528 -0.0289719 0)
(0.527848 -0.0282591 0)
(0.524115 -0.0155214 0)
(0.518212 -0.00314487 0)
(0.511171 0.00344879 0)
(0.505123 0.00470686 0)
(0.498602 0.00335859 0)
(0.494037 0.00146006 0)
(0.487821 0.000148878 0)
(0.48476 -0.000494288 0)
(0.477982 -0.00060594 0)
(0.476143 -0.000438988 0)
(0.467694 -0.000281389 0)
(0.466741 -6.16206e-05 0)
(0.456558 -4.03296e-05 0)
(0.440949 -0.0223797 0)
(0.486154 -0.00636795 0)
(0.445434 0.000815801 0)
(0.520988 -0.0344889 0)
(0.379133 0.0288687 0)
(0.514965 0.00157683 0)
(0.430335 0.0137322 0)
(0.51722 0.0113541 0)
(0.655941 -0.0560426 0)
(0.635673 -0.0471436 0)
(0.679817 -0.0707903 0)
(0.764472 -0.0860064 0)
(0.636126 -0.0100599 0)
(0.770875 -0.0622104 0)
(0.712832 0.00380816 0)
(0.750932 -0.0536261 0)
(0.889086 -0.201606 0)
(0.828512 -0.111313 0)
(0.829948 -0.0176314 0)
(0.976727 -0.0970132 0)
(0.963852 -0.183282 0)
(0.891537 -0.212918 0)
(0.846691 -0.231254 0)
(0.707884 -0.268275 0)
(0.497373 -0.224034 0)
(0.399291 -0.179426 0)
(0.219618 -0.235825 0)
(0.409136 -0.118779 0)
(0.430544 -0.0107188 0)
(0.492368 0.0952946 0)
(0.552876 0.207491 0)
(0.631586 0.246071 0)
(0.671661 0.297443 0)
(0.627287 0.318322 0)
(0.574767 0.22808 0)
(0.567055 0.0944004 0)
(0.559946 0.00113874 0)
(0.539697 -0.0486233 0)
(0.512156 -0.144953 0)
(0.4399 -0.298041 0)
(0.383458 -0.315362 0)
(0.448363 -0.0853321 0)
(0.499337 0.175446 0)
(0.497408 0.293036 0)
(0.476563 0.294061 0)
(0.502727 0.172206 0)
(0.615929 -0.0144021 0)
(0.615561 -0.148039 0)
(0.65506 -0.143012 0)
(0.668686 0.0108972 0)
(0.568762 0.125269 0)
(0.595233 0.0830741 0)
(0.580496 0.0353104 0)
(0.550897 -0.0196801 0)
(0.6118 -0.132265 0)
(0.594369 -0.186646 0)
(0.497627 -0.174719 0)
(0.423848 -0.145482 0)
(0.411868 -0.0904638 0)
(0.422998 -0.0315192 0)
(0.41143 0.00975534 0)
(0.457573 0.0780304 0)
(0.529276 0.157312 0)
(0.54689 0.186617 0)
(0.550513 0.148255 0)
(0.554366 0.081004 0)
(0.55007 0.0122424 0)
(0.562615 -0.0551923 0)
(0.55115 -0.10818 0)
(0.506028 -0.125901 0)
(0.474891 -0.105924 0)
(0.451045 -0.0694364 0)
(0.452616 -0.0108684 0)
(0.48309 0.063726 0)
(0.497682 0.108768 0)
(0.501442 0.090652 0)
(0.512713 0.0267361 0)
(0.515865 -0.0327793 0)
(0.503452 -0.0526082 0)
(0.493575 -0.0310562 0)
(0.499457 0.00904796 0)
(0.507257 0.0408853 0)
(0.506331 0.0476868 0)
(0.509445 0.0254758 0)
(0.519449 -0.0087504 0)
(0.525918 -0.0293691 0)
(0.525541 -0.0280177 0)
(0.520337 -0.0149016 0)
(0.513577 -0.00241221 0)
(0.506347 0.00415001 0)
(0.5005 0.00536946 0)
(0.494386 0.00394906 0)
(0.490142 0.00202978 0)
(0.484289 0.000644274 0)
(0.481313 2.34751e-05 0)
(0.474809 -0.000148794 0)
(0.472852 9.80304e-05 0)
(0.464775 0.000204171 0)
(0.463686 0.000509052 0)
(0.454089 0.000467996 0)
(0.633062 -0.0204336 0)
(0.592612 -0.00823762 0)
(0.607466 -0.000208472 0)
(0.659535 -0.0300697 0)
(0.525135 0.0284693 0)
(0.66205 -0.00256118 0)
(0.595577 0.0109999 0)
(0.643877 9.47958e-05 0)
(0.771236 -0.0694935 0)
(0.744432 -0.0524205 0)
(0.776579 -0.0745194 0)
(0.839983 -0.0885982 0)
(0.733535 -0.00688547 0)
(0.834326 -0.0658865 0)
(0.797722 -0.0104349 0)
(0.832092 -0.0509603 0)
(0.937636 -0.200006 0)
(0.868871 -0.127296 0)
(0.876132 -0.0257724 0)
(0.995215 -0.0942997 0)
(0.964265 -0.176983 0)
(0.886984 -0.205117 0)
(0.810679 -0.214197 0)
(0.649809 -0.237633 0)
(0.432909 -0.190532 0)
(0.336359 -0.161946 0)
(0.173897 -0.241693 0)
(0.37639 -0.131715 0)
(0.394887 -0.013992 0)
(0.421001 0.085892 0)
(0.475795 0.19239 0)
(0.565041 0.237798 0)
(0.629127 0.296864 0)
(0.608779 0.320367 0)
(0.566651 0.232285 0)
(0.565936 0.0978375 0)
(0.561498 0.00387073 0)
(0.542596 -0.0432945 0)
(0.515169 -0.138293 0)
(0.431336 -0.291664 0)
(0.364249 -0.312434 0)
(0.417172 -0.088599 0)
(0.470735 0.170755 0)
(0.483459 0.289368 0)
(0.474182 0.292117 0)
(0.502246 0.163817 0)
(0.627108 -0.0231339 0)
(0.628997 -0.150583 0)
(0.65626 -0.145533 0)
(0.672266 0.0140752 0)
(0.577822 0.130472 0)
(0.607496 0.0836605 0)
(0.586124 0.0376395 0)
(0.563343 -0.0211891 0)
(0.620829 -0.132838 0)
(0.587276 -0.17903 0)
(0.477416 -0.16394 0)
(0.39905 -0.138654 0)
(0.384187 -0.0891494 0)
(0.393639 -0.0320424 0)
(0.3843 0.00797987 0)
(0.426933 0.0716422 0)
(0.501771 0.150283 0)
(0.530536 0.182854 0)
(0.545895 0.146855 0)
(0.55701 0.0812195 0)
(0.554606 0.012498 0)
(0.565827 -0.054567 0)
(0.550057 -0.10485 0)
(0.497442 -0.121253 0)
(0.459636 -0.10239 0)
(0.433268 -0.0673546 0)
(0.431982 -0.0116371 0)
(0.461679 0.0609226 0)
(0.48101 0.106304 0)
(0.490744 0.089105 0)
(0.50569 0.0261307 0)
(0.509174 -0.0321761 0)
(0.49527 -0.0512921 0)
(0.48409 -0.0304622 0)
(0.488902 0.00848325 0)
(0.49727 0.0401663 0)
(0.499322 0.0471128 0)
(0.505608 0.0246019 0)
(0.51653 -0.00957667 0)
(0.521972 -0.0295855 0)
(0.51991 -0.0275772 0)
(0.5133 -0.0141535 0)
(0.505766 -0.00163615 0)
(0.49847 0.00483831 0)
(0.49292 0.00598991 0)
(0.487365 0.00449387 0)
(0.483519 0.00255607 0)
(0.478196 0.00111141 0)
(0.475308 0.00051689 0)
(0.469265 0.000296602 0)
(0.467134 0.000615688 0)
(0.459709 0.00067151 0)
(0.458432 0.0010482 0)
(0.449823 0.000935218 0)
(0.771753 -0.0234246 0)
(0.697819 -0.00447427 0)
(0.724176 -0.00409603 0)
(0.769809 -0.0261169 0)
(0.65368 0.0283423 0)
(0.769561 -0.00968759 0)
(0.729774 0.00952964 0)
(0.759613 -0.00785367 0)
(0.865507 -0.081176 0)
(0.828899 -0.0541435 0)
(0.856824 -0.0771572 0)
(0.894468 -0.0903461 0)
(0.808769 -0.00379165 0)
(0.888565 -0.0679602 0)
(0.854154 -0.0240006 0)
(0.889052 -0.0478425 0)
(0.968131 -0.194418 0)
(0.890319 -0.14054 0)
(0.899897 -0.0337778 0)
(0.995437 -0.0893316 0)
(0.951792 -0.168273 0)
(0.868628 -0.194163 0)
(0.762776 -0.193306 0)
(0.584894 -0.20473 0)
(0.365336 -0.156856 0)
(0.278342 -0.146626 0)
(0.130095 -0.250583 0)
(0.337377 -0.145638 0)
(0.357958 -0.0147826 0)
(0.35735 0.0795756 0)
(0.400628 0.177298 0)
(0.495353 0.226972 0)
(0.580877 0.292318 0)
(0.583604 0.319077 0)
(0.55328 0.234502 0)
(0.561149 0.100374 0)
(0.559998 0.00658936 0)
(0.542253 -0.0380505 0)
(0.5158 -0.130927 0)
(0.421002 -0.283707 0)
(0.34274 -0.307809 0)
(0.383432 -0.0911613 0)
(0.438902 0.164823 0)
(0.466619 0.283827 0)
(0.46814 0.289088 0)
(0.500822 0.154308 0)
(0.633674 -0.0330369 0)
(0.63695 -0.152638 0)
(0.65201 -0.146257 0)
(0.666916 0.0173135 0)
(0.580857 0.134298 0)
(0.614491 0.0842886 0)
(0.587175 0.0401264 0)
(0.573181 -0.0230102 0)
(0.625386 -0.132006 0)
(0.575213 -0.169379 0)
(0.454034 -0.151973 0)
(0.372331 -0.131452 0)
(0.355534 -0.0875765 0)
(0.363279 -0.0326389 0)
(0.356083 0.00620458 0)
(0.395339 0.0653611 0)
(0.471608 0.142499 0)
(0.51012 0.177585 0)
(0.536848 0.144128 0)
(0.555149 0.0807901 0)
(0.555093 0.0127008 0)
(0.565456 -0.0536092 0)
(0.545458 -0.100785 0)
(0.485776 -0.115713 0)
(0.44161 -0.0982806 0)
(0.412982 -0.064958 0)
(0.409144 -0.0121301 0)
(0.437902 0.0579488 0)
(0.461535 0.103187 0)
(0.47698 0.086879 0)
(0.495708 0.0252082 0)
(0.499697 -0.0314818 0)
(0.484235 -0.0497504 0)
(0.471737 -0.0297032 0)
(0.475536 0.00795561 0)
(0.484364 0.0392391 0)
(0.489317 0.04615 0)
(0.49863 0.0234624 0)
(0.510393 -0.0103957 0)
(0.514788 -0.02962 0)
(0.511018 -0.0269432 0)
(0.503053 -0.0132863 0)
(0.494849 -0.000828104 0)
(0.487626 0.00550109 0)
(0.482491 0.00655439 0)
(0.477642 0.00498057 0)
(0.474272 0.00302713 0)
(0.469604 0.00154195 0)
(0.466808 0.000976803 0)
(0.461373 0.000723899 0)
(0.459048 0.00110249 0)
(0.452545 0.00110874 0)
(0.451074 0.0015371 0)
(0.443853 0.00134031 0)
(0.8646 -0.0292361 0)
(0.787014 0.00199545 0)
(0.813693 -0.0091773 0)
(0.85092 -0.0235738 0)
(0.758554 0.0300965 0)
(0.852727 -0.0178368 0)
(0.826137 0.00799232 0)
(0.851423 -0.0135765 0)
(0.933772 -0.0902022 0)
(0.888824 -0.0538025 0)
(0.918782 -0.0786992 0)
(0.929275 -0.0900245 0)
(0.862273 -0.00161314 0)
(0.928165 -0.068086 0)
(0.885773 -0.0354859 0)
(0.924072 -0.045476 0)
(0.980714 -0.186457 0)
(0.896094 -0.149972 0)
(0.906831 -0.0410216 0)
(0.981556 -0.0824509 0)
(0.929011 -0.157087 0)
(0.838537 -0.179065 0)
(0.703519 -0.168744 0)
(0.514001 -0.170638 0)
(0.296007 -0.124612 0)
(0.228137 -0.133147 0)
(0.0844953 -0.261544 0)
(0.286702 -0.160484 0)
(0.314064 -0.0141623 0)
(0.298807 0.0757145 0)
(0.329486 0.163087 0)
(0.42381 0.214761 0)
(0.527103 0.284889 0)
(0.55174 0.314973 0)
(0.534656 0.234625 0)
(0.552636 0.101836 0)
(0.555437 0.00907034 0)
(0.539141 -0.0329859 0)
(0.514234 -0.122952 0)
(0.409247 -0.274062 0)
(0.319182 -0.301493 0)
(0.347247 -0.0927018 0)
(0.40366 0.157758 0)
(0.447635 0.276537 0)
(0.457581 0.284714 0)
(0.500132 0.14376 0)
(0.635366 -0.043578 0)
(0.638419 -0.154181 0)
(0.641954 -0.145061 0)
(0.652578 0.0206835 0)
(0.577621 0.136384 0)
(0.615512 0.084851 0)
(0.583572 0.0425347 0)
(0.580125 -0.0251776 0)
(0.625041 -0.129649 0)
(0.558248 -0.157801 0)
(0.427922 -0.139048 0)
(0.344161 -0.124032 0)
(0.325996 -0.0858098 0)
(0.332069 -0.0332556 0)
(0.32682 0.00444607 0)
(0.362937 0.059275 0)
(0.439171 0.13416 0)
(0.485989 0.170951 0)
(0.523634 0.140126 0)
(0.548809 0.0796907 0)
(0.55161 0.01276 0)
(0.561644 -0.0523494 0)
(0.53742 -0.0960188 0)
(0.471177 -0.109334 0)
(0.42099 -0.093637 0)
(0.390372 -0.0622867 0)
(0.384271 -0.0124044 0)
(0.411981 0.054829 0)
(0.439498 0.0994731 0)
(0.460346 0.0840037 0)
(0.482986 0.0239661 0)
(0.487596 -0.0307071 0)
(0.470454 -0.0479857 0)
(0.456512 -0.0287783 0)
(0.459314 0.00746948 0)
(0.468609 0.0381102 0)
(0.476438 0.0448118 0)
(0.488601 0.0220741 0)
(0.501189 -0.011204 0)
(0.504474 -0.029471 0)
(0.498898 -0.0261171 0)
(0.489606 -0.01231 0)
(0.480863 -5.34328e-06 0)
(0.473882 0.00612337 0)
(0.46931 0.00704799 0)
(0.465308 0.00539722 0)
(0.462489 0.00343318 0)
(0.458557 0.00193031 0)
(0.45587 0.00139618 0)
(0.451167 0.00112622 0)
(0.448693 0.00154439 0)
(0.443369 0.00150048 0)
(0.44177 0.00195404 0)
(0.436312 0.00166262 0)
(0.927617 -0.0366189 0)
(0.856572 0.00941131 0)
(0.883288 -0.0142979 0)
(0.908977 -0.0225486 0)
(0.839528 0.0327233 0)
(0.917176 -0.0260664 0)
(0.892128 0.00625534 0)
(0.92137 -0.0175896 0)
(0.978647 -0.0960113 0)
(0.928961 -0.0523142 0)
(0.962838 -0.078785 0)
(0.946234 -0.0877379 0)
(0.897407 -0.00054455 0)
(0.951883 -0.0663628 0)
(0.896518 -0.0444024 0)
(0.94058 -0.0442889 0)
(0.977564 -0.17731 0)
(0.887576 -0.1564 0)
(0.899914 -0.0474285 0)
(0.955309 -0.0747915 0)
(0.896076 -0.143855 0)
(0.793939 -0.160265 0)
(0.632209 -0.141494 0)
(0.439359 -0.136351 0)
(0.228331 -0.0949738 0)
(0.184731 -0.121114 0)
(0.0380021 -0.269617 0)
(0.218169 -0.175549 0)
(0.260017 -0.0132464 0)
(0.241634 0.0735214 0)
(0.26196 0.149971 0)
(0.35354 0.201014 0)
(0.470767 0.274011 0)
(0.514776 0.30779 0)
(0.511616 0.23242 0)
(0.540697 0.102019 0)
(0.548017 0.0112666 0)
(0.533764 -0.0281317 0)
(0.51073 -0.114477 0)
(0.396425 -0.262671 0)
(0.293679 -0.293367 0)
(0.308517 -0.0932509 0)
(0.364891 0.149472 0)
(0.427175 0.267635 0)
(0.441822 0.27859 0)
(0.500587 0.132115 0)
(0.632181 -0.0540047 0)
(0.632407 -0.155213 0)
(0.625161 -0.141878 0)
(0.629314 0.0242748 0)
(0.568092 0.13644 0)
(0.609941 0.0852542 0)
(0.575317 0.0445297 0)
(0.583858 -0.0276518 0)
(0.619402 -0.125634 0)
(0.536551 -0.144455 0)
(0.399588 -0.12543 0)
(0.315011 -0.116522 0)
(0.29557 -0.0838606 0)
(0.300065 -0.0338649 0)
(0.296498 0.0026974 0)
(0.329767 0.0534463 0)
(0.404783 0.125436 0)
(0.458515 0.1631 0)
(0.506593 0.134929 0)
(0.538087 0.0779123 0)
(0.544347 0.012595 0)
(0.554579 -0.0508101 0)
(0.526029 -0.09058 0)
(0.45382 -0.102176 0)
(0.397991 -0.0885095 0)
(0.365627 -0.0593799 0)
(0.357572 -0.0124559 0)
(0.384179 0.0515877 0)
(0.415146 0.0952136 0)
(0.441083 0.0805059 0)
(0.467798 0.022403 0)
(0.473019 -0.0298486 0)
(0.454015 -0.0459784 0)
(0.438383 -0.0276635 0)
(0.440165 0.00702811 0)
(0.450092 0.0367793 0)
(0.460781 0.0431157 0)
(0.475644 0.0204457 0)
(0.489115 -0.0119993 0)
(0.491108 -0.0291281 0)
(0.483512 -0.0250923 0)
(0.472902 -0.0112335 0)
(0.463793 0.000816221 0)
(0.457267 0.00668566 0)
(0.453442 0.0074541 0)
(0.450419 0.00573224 0)
(0.448226 0.0037669 0)
(0.445077 0.00227169 0)
(0.442562 0.00176752 0)
(0.438703 0.00149302 0)
(0.436223 0.00192348 0)
(0.432318 0.00182804 0)
(0.430738 0.00227508 0)
(0.427353 0.00188353 0)
(0.968183 -0.0438818 0)
(0.906813 0.0167025 0)
(0.935518 -0.0186258 0)
(0.945711 -0.0221081 0)
(0.898908 0.0349599 0)
(0.962531 -0.033174 0)
(0.93294 0.00440091 0)
(0.972341 -0.0201458 0)
(1.00127 -0.0983966 0)
(0.952574 -0.0504029 0)
(0.988495 -0.0775874 0)
(0.94663 -0.0833336 0)
(0.916135 -0.000629906 0)
(0.958686 -0.0629184 0)
(0.890497 -0.0500639 0)
(0.940495 -0.0445741 0)
(0.96046 -0.167423 0)
(0.866348 -0.159795 0)
(0.879972 -0.0525471 0)
(0.917829 -0.0663817 0)
(0.850352 -0.128135 0)
(0.733268 -0.13764 0)
(0.55162 -0.111987 0)
(0.36397 -0.102933 0)
(0.165087 -0.0686118 0)
(0.144389 -0.110225 0)
(-0.00854407 -0.271205 0)
(0.129253 -0.190274 0)
(0.194372 -0.0137794 0)
(0.183082 0.0719625 0)
(0.198319 0.138346 0)
(0.283546 0.187014 0)
(0.411388 0.261171 0)
(0.47282 0.298193 0)
(0.484554 0.227948 0)
(0.525584 0.10085 0)
(0.53805 0.0130008 0)
(0.526606 -0.0235171 0)
(0.505683 -0.105407 0)
(0.382943 -0.249475 0)
(0.266181 -0.28333 0)
(0.267173 -0.0927971 0)
(0.322811 0.139995 0)
(0.405523 0.25735 0)
(0.420991 0.270406 0)
(0.501322 0.119283 0)
(0.62452 -0.0636961 0)
(0.617827 -0.15538 0)
(0.60002 -0.136846 0)
(0.597118 0.0279398 0)
(0.552467 0.134438 0)
(0.597283 0.0853754 0)
(0.562655 0.0458787 0)
(0.584064 -0.0302908 0)
(0.608117 -0.119876 0)
(0.510403 -0.129569 0)
(0.369612 -0.111396 0)
(0.285359 -0.108989 0)
(0.264209 -0.0817397 0)
(0.267228 -0.0344399 0)
(0.265082 0.000956728 0)
(0.295803 0.0479102 0)
(0.368679 0.116486 0)
(0.428064 0.15416 0)
(0.486095 0.128632 0)
(0.523127 0.0754533 0)
(0.53359 0.0121688 0)
(0.544464 -0.0489963 0)
(0.511375 -0.0844907 0)
(0.433904 -0.0943143 0)
(0.372872 -0.0829308 0)
(0.338929 -0.0562877 0)
(0.329291 -0.0123344 0)
(0.354793 0.0482497 0)
(0.388708 0.0904589 0)
(0.419498 0.0764038 0)
(0.450466 0.0205117 0)
(0.456081 -0.0288918 0)
(0.434976 -0.0436951 0)
(0.417331 -0.0263422 0)
(0.418068 0.00662162 0)
(0.428938 0.0352337 0)
(0.442397 0.0410744 0)
(0.459959 0.0185848 0)
(0.474383 -0.0127687 0)
(0.474674 -0.0285606 0)
(0.464723 -0.0238538 0)
(0.452805 -0.0100667 0)
(0.443564 0.00161878 0)
(0.437763 0.00716444 0)
(0.434909 0.00775475 0)
(0.432985 0.00597449 0)
(0.431507 0.00402214 0)
(0.429185 0.0025593 0)
(0.426981 0.00207978 0)
(0.424098 0.00180748 0)
(0.42187 0.00221725 0)
(0.41958 0.00206945 0)
(0.418245 0.00247646 0)
(0.417107 0.00198947 0)
(0.988808 -0.0494561 0)
(0.938604 0.0227235 0)
(0.971386 -0.0215719 0)
(0.961511 -0.0216585 0)
(0.939543 0.0361358 0)
(0.98695 -0.037827 0)
(0.952215 0.00242496 0)
(1.00404 -0.0218527 0)
(1.00253 -0.0973292 0)
(0.9623 -0.04882 0)
(0.99532 -0.0750353 0)
(0.932873 -0.077031 0)
(0.920592 -0.00159878 0)
(0.948743 -0.0579122 0)
(0.871508 -0.0529941 0)
(0.926663 -0.046252 0)
(0.931476 -0.156705 0)
(0.830627 -0.160063 0)
(0.844562 -0.0565406 0)
(0.865713 -0.0577908 0)
(0.787899 -0.110239 0)
(0.656412 -0.111986 0)
(0.463245 -0.0818779 0)
(0.289472 -0.0718575 0)
(0.108055 -0.045913 0)
(0.105045 -0.100009 0)
(-0.0565167 -0.267245 0)
(0.026435 -0.204743 0)
(0.119169 -0.0174171 0)
(0.121221 0.0697783 0)
(0.136524 0.127542 0)
(0.217659 0.172374 0)
(0.352127 0.245727 0)
(0.427459 0.28595 0)
(0.454404 0.221051 0)
(0.507793 0.0981936 0)
(0.52607 0.0140896 0)
(0.518174 -0.0192774 0)
(0.499455 -0.0957126 0)
(0.369168 -0.234567 0)
(0.236802 -0.27129 0)
(0.223455 -0.0911762 0)
(0.278437 0.129191 0)
(0.382703 0.24578 0)