/*--------------------------------*- C++ -*----------------------------------*\
| =========                 |                                                 |
| \\      /  F ield         | OpenFOAM: The Open Source CFD Toolbox           |
|  \\    /   O peration     | Version:  2.4.0                                 |
|   \\  /    A nd           | Web:      www.OpenFOAM.org                      |
|    \\/     M anipulation  |                                                 |
\*---------------------------------------------------------------------------*/
FoamFile
{
    version     2.0;
    format      ascii;
    class       surfaceScalarField;
    location    "1.27";
    object      phi;
}
// * * * * * * * * * * * * * * * * * * * * * * * * * * * * * * * * * * * * * //

dimensions      [0 3 -1 0 0 0 0];

internalField   nonuniform List<scalar> 
17320
(
1.76395e-05
7.36051e-06
1.16175e-05
6.02201e-06
8.67959e-06
2.93789e-06
7.36121e-06
1.31839e-06
6.71635e-06
6.44859e-07
6.33798e-06
3.78363e-07
6.08678e-06
2.51203e-07
5.8696e-06
2.17185e-07
5.69815e-06
1.7145e-07
5.59165e-06
1.06497e-07
5.48374e-06
1.07907e-07
5.38787e-06
9.58668e-08
5.30151e-06
8.63697e-08
5.24982e-06
5.16824e-08
5.1337e-06
1.16124e-07
5.09148e-06
4.22177e-08
4.99873e-06
9.27522e-08
5.02732e-06
-2.85945e-08
4.81405e-06
2.13269e-07
-5.31949e-07
5.346e-06
2.54653e-05
6.89517e-06
2.32437e-05
8.2437e-06
2.09905e-05
5.19107e-06
1.93265e-05
2.98239e-06
1.80709e-05
1.90048e-06
1.7111e-05
1.3382e-06
1.63764e-05
9.85805e-07
1.57679e-05
8.25709e-07
1.53025e-05
6.36834e-07
1.49473e-05
4.6173e-07
1.46359e-05
4.19313e-07
1.43764e-05
3.55282e-07
1.41477e-05
3.15068e-07
1.39672e-05
2.32201e-07
1.37247e-05
3.58691e-07
1.35933e-05
1.73611e-07
1.33659e-05
3.20097e-07
1.33428e-05
-5.51378e-09
1.32156e-05
3.40468e-07
-7.4633e-07
1.343e-05
2.66275e-05
5.26763e-06
2.71441e-05
7.72714e-06
2.67832e-05
5.55195e-06
2.62606e-05
3.50501e-06
2.55998e-05
2.56129e-06
2.48741e-05
2.06386e-06
2.41728e-05
1.68716e-06
2.34936e-05
1.50489e-06
2.29302e-05
1.20024e-06
2.24591e-05
9.32844e-07
2.20343e-05
8.44108e-07
2.16788e-05
7.10742e-07
2.1363e-05
6.30848e-07
2.10958e-05
4.99413e-07
2.07897e-05
6.64768e-07
2.05832e-05
3.80113e-07
2.03133e-05
5.90086e-07
2.01807e-05
1.27049e-07
2.0178e-05
3.43208e-07
-1.17555e-06
2.06072e-05
2.63363e-05
3.93133e-06
2.75173e-05
6.54614e-06
2.80811e-05
4.98818e-06
2.84719e-05
3.11424e-06
2.86493e-05
2.38387e-06
2.86285e-05
2.08461e-06
2.84878e-05
1.82785e-06
2.8227e-05
1.7657e-06
2.79615e-05
1.46576e-06
2.77039e-05
1.19051e-06
2.7428e-05
1.11999e-06
2.71689e-05
9.69834e-07
2.69306e-05
8.69154e-07
2.66852e-05
7.44774e-07
2.64361e-05
9.13902e-07
2.62039e-05
6.12267e-07
2.59913e-05
8.02744e-07
2.57221e-05
3.96166e-07
2.56121e-05
4.5321e-07
-7.74161e-07
2.52108e-05
2.60642e-05
2.86708e-06
2.72259e-05
5.38449e-06
2.80049e-05
4.20913e-06
2.85033e-05
2.61582e-06
2.89968e-05
1.89042e-06
2.93489e-05
1.73247e-06
2.95993e-05
1.57748e-06
2.97404e-05
1.62456e-06
2.98374e-05
1.36878e-06
2.99016e-05
1.12634e-06
2.99523e-05
1.06929e-06
2.99582e-05
9.63956e-07
2.9985e-05
8.42324e-07
2.99155e-05
8.14263e-07
2.99117e-05
9.17699e-07
2.97884e-05
7.35623e-07
2.97373e-05
8.53838e-07
2.94718e-05
6.61669e-07
2.93886e-05
5.36405e-07
-1.22724e-07
2.87371e-05
2.58546e-05
2.01247e-06
2.69781e-05
4.261e-06
2.7795e-05
3.39224e-06
2.81961e-05
2.21471e-06
2.87102e-05
1.37631e-06
2.91243e-05
1.31841e-06
2.94753e-05
1.22647e-06
2.97136e-05
1.38627e-06
3.00068e-05
1.07558e-06
3.01311e-05
1.00206e-06
3.03894e-05
8.1097e-07
3.0486e-05
8.67382e-07
3.07841e-05
5.44222e-07
3.07965e-05
8.01778e-07
3.10483e-05
6.65969e-07
3.10573e-05
7.26609e-07
3.11822e-05
7.28931e-07
3.09533e-05
8.90561e-07
3.10501e-05
4.39661e-07
6.85801e-07
3.02415e-05
2.56646e-05
1.34787e-06
2.67777e-05
3.14794e-06
2.76602e-05
2.50966e-06
2.79847e-05
1.89022e-06
2.84203e-05
9.40744e-07
2.88138e-05
9.24912e-07
2.92529e-05
7.87347e-07
2.94793e-05
1.15991e-06
2.98521e-05
7.02758e-07
2.99406e-05
9.1359e-07
3.02625e-05
4.89087e-07
3.03118e-05
8.18003e-07
3.06685e-05
1.87505e-07
3.07293e-05
7.4106e-07
3.10262e-05
3.69039e-07
3.10942e-05
6.58614e-07
3.13786e-05
4.44555e-07
3.10892e-05
1.17992e-06
3.10385e-05
4.9036e-07
1.54269e-06
3.01816e-05
2.55282e-05
8.19671e-07
2.65813e-05
2.09485e-06
2.74668e-05
1.62415e-06
2.8038e-05
1.31899e-06
2.83384e-05
6.40358e-07
2.86281e-05
6.35212e-07
2.89856e-05
4.29861e-07
2.93143e-05
8.31169e-07
2.96436e-05
3.73488e-07
2.99051e-05
6.52132e-07
3.00122e-05
3.81981e-07
3.02696e-05
5.6058e-07
3.04059e-05
5.12014e-08
3.06064e-05
5.4056e-07
3.08762e-05
9.91938e-08
3.09217e-05
6.13181e-07
3.10806e-05
2.85642e-07
3.15196e-05
7.40875e-07
3.18701e-05
1.39862e-07
5.89855e-07
3.2823e-05
2.54755e-05
3.44187e-07
2.64451e-05
1.12519e-06
2.7319e-05
7.50286e-07
2.79991e-05
6.38907e-07
2.83055e-05
3.33933e-07
2.85252e-05
4.15555e-07
2.87744e-05
1.8062e-07
2.92645e-05
3.41123e-07
2.95099e-05
1.2809e-07
2.96863e-05
4.75647e-07
2.99021e-05
1.66244e-07
3.01851e-05
2.77567e-07
3.03518e-05
-1.1554e-07
3.05092e-05
3.83155e-07
3.06382e-05
-2.97687e-08
3.09428e-05
3.08539e-07
3.09119e-05
3.1662e-07
3.15491e-05
1.03632e-07
3.17125e-05
-2.35237e-08
2.29214e-07
3.20731e-05
2.5444e-05
-9.97695e-08
2.64111e-05
1.58051e-07
2.71993e-05
-3.78752e-08
2.78616e-05
-2.3425e-08
2.83078e-05
-1.12284e-07
2.85367e-05
1.86629e-07
2.87568e-05
-3.9467e-08
2.91677e-05
-6.97329e-08
2.94546e-05
-1.58815e-07
2.96453e-05
2.84908e-07
2.985e-05
-3.84832e-08
3.02123e-05
-8.47126e-08
3.02207e-05
-1.23887e-07
3.05271e-05
7.67241e-08
3.05704e-05
-7.30211e-08
3.07547e-05
1.24165e-07
3.12454e-05
-1.74082e-07
3.13271e-05
2.19689e-08
3.15216e-05
-2.1803e-07
-2.2696e-07
3.19778e-05
2.54193e-05
-5.19024e-07
2.64525e-05
-8.75204e-07
2.72191e-05
-8.04438e-07
2.78672e-05
-6.7159e-07
2.82645e-05
-5.09498e-07
2.85975e-05
-1.46433e-07
2.87709e-05
-2.1281e-07
2.91331e-05
-4.31943e-07
2.93967e-05
-4.22455e-07
2.973e-05
-4.83798e-08
2.98471e-05
-1.55637e-07
3.0103e-05
-3.40547e-07
3.03083e-05
-3.29175e-07
3.04473e-05
-6.22705e-08
3.0551e-05
-1.76733e-07
3.09366e-05
-2.61466e-07
3.10759e-05
-3.13373e-07
3.13727e-05
-2.74876e-07
3.15205e-05
-3.65746e-07
-3.7666e-07
3.16702e-05
2.54446e-05
-9.63595e-07
2.64743e-05
-1.90489e-06
2.73646e-05
-1.69478e-06
2.79715e-05
-1.27849e-06
2.81963e-05
-7.343e-07
2.85564e-05
-5.0658e-07
2.89005e-05
-5.56847e-07
2.92157e-05
-7.47159e-07
2.94189e-05
-6.25647e-07
2.97623e-05
-3.9176e-07
2.99947e-05
-3.88078e-07
3.01613e-05
-5.07118e-07
3.02686e-05
-4.36493e-07
3.05056e-05
-2.99308e-07
3.06765e-05
-3.47588e-07
3.09923e-05
-5.77302e-07
3.11362e-05
-4.57231e-07
3.13037e-05
-4.42382e-07
3.16316e-05
-6.93641e-07
-7.27895e-07
3.19828e-05
2.55072e-05
-1.47076e-06
2.65755e-05
-2.97325e-06
2.74897e-05
-2.60891e-06
2.80479e-05
-1.83674e-06
2.82644e-05
-9.50799e-07
2.8659e-05
-9.01153e-07
2.90227e-05
-9.20607e-07
2.93278e-05
-1.05223e-06
2.95345e-05
-8.32298e-07
2.98696e-05
-7.26916e-07
3.00781e-05
-5.96532e-07
3.02803e-05
-7.09319e-07
3.03505e-05
-5.067e-07
3.05963e-05
-5.45112e-07
3.0845e-05
-5.96303e-07
3.10342e-05
-7.66548e-07
3.11726e-05
-5.95547e-07
3.15593e-05
-8.29146e-07
3.17755e-05
-9.09776e-07
-9.16324e-07
3.19639e-05
2.56526e-05
-2.12335e-06
2.677e-05
-4.09064e-06
2.76382e-05
-3.47709e-06
2.8033e-05
-2.23162e-06
2.84192e-05
-1.33694e-06
2.88812e-05
-1.36323e-06
2.92043e-05
-1.24364e-06
2.94846e-05
-1.33257e-06
2.97447e-05
-1.09235e-06
3.00189e-05
-1.00113e-06
3.02075e-05
-7.85116e-07
3.04163e-05
-9.18122e-07
3.05598e-05
-6.5019e-07
3.08153e-05
-8.00613e-07
3.09535e-05
-7.34503e-07
3.11522e-05
-9.65323e-07
3.13521e-05
-7.95372e-07
3.16597e-05
-1.13683e-06
3.18471e-05
-1.09713e-06
-1.20585e-06
3.21366e-05
2.58374e-05
-2.96075e-06
2.69728e-05
-5.22606e-06
2.78022e-05
-4.30645e-06
2.82015e-05
-2.63096e-06
2.87057e-05
-1.8411e-06
2.91314e-05
-1.78897e-06
2.94485e-05
-1.56068e-06
2.97053e-05
-1.58939e-06
2.99771e-05
-1.36415e-06
3.01778e-05
-1.20179e-06
3.03794e-05
-9.86721e-07
3.0544e-05
-1.0827e-06
3.07018e-05
-8.08031e-07
3.08481e-05
-9.46869e-07
3.09556e-05
-8.42072e-07
3.10868e-05
-1.09649e-06
3.11832e-05
-8.91778e-07
3.13946e-05
-1.34826e-06
3.15374e-05
-1.23989e-06
-1.46225e-06
3.17938e-05
2.6039e-05
-3.99975e-06
2.72464e-05
-6.43349e-06
2.80134e-05
-5.0734e-06
2.84885e-05
-3.10604e-06
2.899e-05
-2.34266e-06
2.933e-05
-2.12893e-06
2.95876e-05
-1.81827e-06
2.97262e-05
-1.72801e-06
2.98498e-05
-1.48772e-06
2.98964e-05
-1.24845e-06
2.99589e-05
-1.0492e-06
2.99431e-05
-1.06691e-06
2.99566e-05
-8.21478e-07
2.99059e-05
-8.96212e-07
2.98627e-05
-7.98844e-07
2.97664e-05
-1.00023e-06
2.96841e-05
-8.09447e-07
2.96133e-05
-1.27751e-06
2.95271e-05
-1.15361e-06
-1.4874e-06
2.95522e-05
2.63096e-05
-5.30937e-06
2.7544e-05
-7.66788e-06
2.80619e-05
-5.59135e-06
2.84545e-05
-3.49862e-06
2.86463e-05
-2.5344e-06
2.86146e-05
-2.09729e-06
2.84811e-05
-1.68472e-06
2.82262e-05
-1.47315e-06
2.79596e-05
-1.22106e-06
2.76877e-05
-9.76559e-07
2.74309e-05
-7.92405e-07
2.71418e-05
-7.7788e-07
2.69143e-05
-5.93986e-07
2.66444e-05
-6.26268e-07
2.6409e-05
-5.63435e-07
2.61166e-05
-7.07845e-07
2.58797e-05
-5.72572e-07
2.55381e-05
-9.35904e-07
2.5279e-05
-8.94522e-07
-1.3104e-06
2.5102e-05
2.66071e-05
-6.91646e-06
2.71591e-05
-8.21991e-06
2.67682e-05
-5.20039e-06
2.62541e-05
-2.98452e-06
2.56013e-05
-1.88167e-06
2.48638e-05
-1.35973e-06
2.41654e-05
-9.86387e-07
2.34994e-05
-8.07097e-07
2.29223e-05
-6.43962e-07
2.24426e-05
-4.96916e-07
2.20329e-05
-3.82704e-07
2.1651e-05
-3.95946e-07
2.13494e-05
-2.9234e-07
2.10396e-05
-3.1653e-07
2.0768e-05
-2.91786e-07
2.04474e-05
-3.8725e-07
2.01854e-05
-3.10603e-07
1.97607e-05
-5.11199e-07
1.93759e-05
-5.09706e-07
-4.62291e-07
1.85278e-05
2.5451e-05
-7.36745e-06
2.3247e-05
-6.01593e-06
2.09824e-05
-2.93575e-06
1.9322e-05
-1.32411e-06
1.80756e-05
-6.35319e-07
1.7103e-05
-3.87158e-07
1.63704e-05
-2.53723e-07
1.57722e-05
-2.08947e-07
1.52981e-05
-1.69867e-07
1.49291e-05
-1.27867e-07
1.46343e-05
-8.79079e-08
1.43522e-05
-1.13878e-07
1.41357e-05
-7.57654e-08
1.39091e-05
-8.99852e-08
1.37031e-05
-8.58251e-08
1.34466e-05
-1.30707e-07
1.32306e-05
-9.45693e-08
1.28916e-05
-1.72226e-07
1.26054e-05
-2.23542e-07
-7.12445e-08
1.22144e-05
1.76326e-05
1.16166e-05
8.68087e-06
7.35675e-06
6.72143e-06
6.33427e-06
6.08055e-06
5.8716e-06
5.70174e-06
5.57387e-06
5.48596e-06
5.37209e-06
5.29632e-06
5.20633e-06
5.12051e-06
4.9898e-06
4.89523e-06
4.72301e-06
4.49946e-06
4.42822e-06
5.79705e-06
-3.46198e-07
-1.04847e-07
6.15524e-06
-1.96478e-07
-1.61714e-07
6.40464e-06
-6.02716e-08
-1.89133e-07
6.58341e-06
1.08555e-09
-1.79847e-07
6.75424e-06
-3.04819e-08
-1.40347e-07
6.94685e-06
-1.02019e-07
-9.05971e-08
7.14952e-06
-1.57348e-07
-4.53215e-08
7.35403e-06
-1.93947e-07
-1.05621e-08
7.53493e-06
-1.96916e-07
1.60122e-08
7.69261e-06
-1.93517e-07
3.58402e-08
7.82128e-06
-1.77388e-07
4.8723e-08
7.92891e-06
-1.55958e-07
4.8325e-08
8.02141e-06
-1.36044e-07
4.35469e-08
8.11671e-06
-1.12177e-07
1.6874e-08
8.21873e-06
-8.60342e-08
-1.59915e-08
8.32001e-06
-7.57057e-08
-2.55711e-08
8.40718e-06
-7.81269e-08
-9.0424e-09
8.48854e-06
-7.33838e-08
-7.97667e-09
8.57173e-06
-6.70986e-08
-1.60944e-08
8.69882e-06
-3.37643e-08
-9.33171e-08
8.87087e-06
5.43835e-09
-1.77492e-07
9.06174e-06
1.66791e-08
-2.07554e-07
9.24667e-06
8.27224e-09
-1.93202e-07
9.41296e-06
-4.26594e-08
-1.23629e-07
9.53492e-06
-1.07788e-07
-1.41664e-08
9.62284e-06
-1.68236e-07
8.03115e-08
9.68623e-06
-2.32281e-07
1.68891e-07
9.71691e-06
-2.59452e-07
2.28769e-07
9.73988e-06
-2.76905e-07
2.53934e-07
9.7702e-06
-2.61486e-07
2.31174e-07
9.80536e-06
-2.16581e-07
1.81418e-07
9.85248e-06
-1.77444e-07
1.30325e-07
9.90951e-06
-1.33571e-07
7.6541e-08
9.9728e-06
-8.40143e-08
2.07211e-08
1.00483e-05
-4.40575e-08
-3.14002e-08
1.01268e-05
2.53308e-09
-8.10396e-08
1.02106e-05
4.47425e-08
-1.28556e-07
1.03013e-05
7.1088e-08
-1.61852e-07
1.03933e-05
1.00338e-07
-1.92271e-07
1.04894e-05
1.07803e-07
-2.03928e-07
1.05876e-05
1.04375e-07
-2.02624e-07
1.06805e-05
9.95125e-08
-1.92361e-07
1.07621e-05
6.98366e-08
-1.51418e-07
1.08443e-05
3.11943e-08
-1.1345e-07
1.09156e-05
-1.24365e-08
-5.88106e-08
1.09685e-05
-6.7605e-08
1.46968e-08
1.10306e-05
-1.3209e-07
7.00091e-08
1.10777e-05
-1.63521e-07
1.16349e-07
1.11109e-05
-2.18864e-07
1.85661e-07
1.11407e-05
-2.64162e-07
2.34441e-07
1.11502e-05
-2.71152e-07
2.61577e-07
1.11453e-05
-3.14487e-07
3.19411e-07
1.1148e-05
-3.21741e-07
3.19042e-07
1.11559e-05
-3.10604e-07
3.0267e-07
1.11684e-05
-2.7588e-07
2.63466e-07
1.1207e-05
-2.35163e-07
1.96517e-07
1.12678e-05
-1.34789e-07
7.39976e-08
1.1367e-05
-9.27992e-08
-6.35871e-09
1.15073e-05
2.60402e-09
-1.42958e-07
1.16246e-05
7.82825e-08
-1.95612e-07
1.17887e-05
8.90758e-08
-2.53165e-07
1.19024e-05
9.33485e-08
-2.0705e-07
1.20046e-05
4.63738e-08
-1.48503e-07
1.21184e-05
6.03569e-08
-1.74171e-07
1.22669e-05
7.64489e-08
-2.24965e-07
1.23855e-05
4.95311e-08
-1.68129e-07
1.24098e-05
4.33077e-08
-6.76526e-08
1.24442e-05
3.60298e-09
-3.80033e-08
1.24936e-05
2.09428e-08
-7.0284e-08
1.25909e-05
8.38702e-08
-1.81158e-07
1.2659e-05
1.86544e-07
-2.54692e-07
1.28033e-05
2.36183e-07
-3.80478e-07
1.29121e-05
3.51488e-07
-4.60258e-07
1.30717e-05
4.95552e-07
-6.55139e-07
1.33727e-05
6.50358e-07
-9.51445e-07
1.37732e-05
7.25232e-07
-1.12569e-06
1.43312e-05
7.86283e-07
-1.3443e-06
1.49367e-05
7.61163e-07
-1.36668e-06
1.5527e-05
6.04579e-07
-1.19479e-06
1.60995e-05
3.97113e-07
-9.69705e-07
1.66623e-05
-3.49672e-08
-5.27741e-07
1.71191e-05
-4.43794e-07
-1.30768e-08
1.75792e-05
-9.17711e-07
4.57647e-07
1.80191e-05
-1.28807e-06
8.48165e-07
1.83432e-05
-1.68626e-06
1.36212e-06
1.85737e-05
-2.02157e-06
1.79112e-06
1.88765e-05
-2.20819e-06
1.90536e-06
1.8989e-05
-2.41424e-06
2.30181e-06
1.91583e-05
-2.56716e-06
2.39784e-06
1.93283e-05
-2.66594e-06
2.49587e-06
1.95177e-05
-2.70792e-06
2.51858e-06
1.96588e-05
-2.92429e-06
2.7832e-06
1.97994e-05
-3.01911e-06
2.87845e-06
2.0013e-05
-3.08322e-06
2.8697e-06
2.02141e-05
-3.23143e-06
3.0303e-06
2.03958e-05
-3.34238e-06
3.16065e-06
2.06091e-05
-3.40702e-06
3.19374e-06
2.08871e-05
-3.48724e-06
3.20921e-06
2.11869e-05
-3.53591e-06
3.23612e-06
2.14961e-05
-3.69441e-06
3.38519e-06
2.18179e-05
-3.85458e-06
3.53284e-06
2.22147e-05
-3.95521e-06
3.55839e-06
2.26052e-05
-4.28396e-06
3.89349e-06
2.29809e-05
-4.46752e-06
4.09184e-06
2.34761e-05
-4.74649e-06
4.25119e-06
2.39404e-05
-5.24816e-06
4.78392e-06
2.44656e-05
-5.54129e-06
5.01612e-06
2.49641e-05
-5.89383e-06
5.39529e-06
2.55586e-05
-6.36016e-06
5.76564e-06
2.6182e-05
-6.66748e-06
6.04415e-06
2.68251e-05
-6.89528e-06
6.25211e-06
2.75323e-05
-7.34583e-06
6.63867e-06
2.80985e-05
-7.56679e-06
7.00061e-06
2.88455e-05
-7.7508e-06
7.00372e-06
2.93961e-05
-8.05003e-06
7.49942e-06
2.99887e-05
-8.22981e-06
7.6373e-06
3.05467e-05
-8.35698e-06
7.79891e-06
3.09612e-05
-8.54948e-06
8.13503e-06
3.13497e-05
-8.67714e-06
8.28867e-06
3.16651e-05
-8.80168e-06
8.48619e-06
3.19004e-05
-8.89622e-06
8.66099e-06
3.21247e-05
-8.96468e-06
8.74032e-06
3.22599e-05
-9.0675e-06
8.93236e-06
3.24021e-05
-9.08597e-06
8.94378e-06
3.25615e-05
-9.26935e-06
9.10992e-06
3.26778e-05
-9.14593e-06
9.02963e-06
3.28847e-05
-9.33419e-06
9.1273e-06
3.30674e-05
-9.23702e-06
9.05434e-06
3.32363e-05
-9.2127e-06
9.04374e-06
3.34628e-05
-9.093e-06
8.86654e-06
3.36524e-05
-9.03751e-06
8.84791e-06
3.38971e-05
-8.83661e-06
8.59186e-06
3.40892e-05
-8.54472e-06
8.35262e-06
3.42569e-05
-8.41614e-06
8.24846e-06
3.45489e-05
-8.16701e-06
7.87495e-06
3.47215e-05
-7.87871e-06
7.70613e-06
3.48241e-05
-7.57529e-06
7.47275e-06
3.49876e-05
-7.36802e-06
7.20446e-06
3.52294e-05
-7.22193e-06
6.98019e-06
3.52191e-05
-6.79362e-06
6.80395e-06
3.54216e-05
-6.85327e-06
6.65076e-06
3.55475e-05
-6.60258e-06
6.47662e-06
3.56989e-05
-6.45561e-06
6.30423e-06
3.58458e-05
-6.46127e-06
6.31439e-06
3.6046e-05
-6.2701e-06
6.06983e-06
3.62073e-05
-6.17562e-06
6.01436e-06
3.64495e-05
-5.90084e-06
5.65866e-06
3.66074e-05
-5.74377e-06
5.58581e-06
3.68144e-05
-5.19525e-06
4.9883e-06
3.69856e-05
-4.76436e-06
4.59311e-06
3.71025e-05
-4.02233e-06
3.90552e-06
3.72363e-05
-3.30316e-06
3.16934e-06
3.72739e-05
-2.27949e-06
2.2419e-06
3.73333e-05
-1.29531e-06
1.2359e-06
3.73393e-05
-1.73059e-07
1.67088e-07
3.72751e-05
1.20942e-06
-1.14531e-06
3.70579e-05
2.62571e-06
-2.40848e-06
3.68931e-05
3.84005e-06
-3.67527e-06
3.64185e-05
5.46156e-06
-4.98696e-06
3.60342e-05
6.60684e-06
-6.22252e-06
3.54481e-05
8.08819e-06
-7.50208e-06
3.482e-05
9.19632e-06
-8.56826e-06
3.40124e-05
1.03325e-05
-9.52487e-06
3.33323e-05
1.11013e-05
-1.04212e-05
3.24398e-05
1.19994e-05
-1.11068e-05
3.1629e-05
1.24205e-05
-1.16098e-05
3.09444e-05
1.2738e-05
-1.20533e-05
3.01564e-05
1.31743e-05
-1.23864e-05
2.96362e-05
1.29661e-05
-1.24459e-05
2.90989e-05
1.31702e-05
-1.2633e-05
2.89287e-05
1.28652e-05
-1.26949e-05
2.85868e-05
1.27937e-05
-1.24519e-05
2.84044e-05
1.25989e-05
-1.24164e-05
2.79927e-05
1.21264e-05
-1.17147e-05
2.77068e-05
1.1528e-05
-1.12421e-05
2.75626e-05
1.07094e-05
-1.05652e-05
2.71228e-05
9.93549e-06
-9.49572e-06
2.71172e-05
8.64593e-06
-8.6403e-06
2.65326e-05
7.88281e-06
-7.29829e-06
2.62232e-05
6.53851e-06
-6.22904e-06
2.57103e-05
5.76047e-06
-5.24758e-06
2.51836e-05
4.46339e-06
-3.93674e-06
2.47328e-05
3.45562e-06
-3.00477e-06
2.40161e-05
2.86733e-06
-2.15064e-06
2.35312e-05
1.60303e-06
-1.11811e-06
2.26108e-05
1.41833e-06
-4.97925e-07
2.20183e-05
6.3214e-07
-3.964e-08
2.11465e-05
1.16604e-06
-2.94239e-07
2.02221e-05
1.48195e-06
-5.57584e-07
1.96535e-05
2.0625e-06
-1.4939e-06
1.86427e-05
3.34134e-06
-2.33054e-06
1.82619e-05
4.03079e-06
-3.64997e-06
1.72625e-05
6.77365e-06
-5.77424e-06
1.68794e-05
8.01865e-06
-7.63559e-06
1.63829e-05
1.07879e-05
-1.02914e-05
1.52861e-05
1.36886e-05
-1.25918e-05
1.57835e-05
1.57373e-05
-1.62347e-05
1.44864e-05
2.25699e-05
-2.12728e-05
1.57263e-05
2.54082e-05
-2.66481e-05
3.67069e-05
-3.71508e-05
1.61703e-05
1.34344e-05
-3.50597e-07
1.34456e-05
-2.07634e-07
1.34555e-05
-7.02179e-08
1.34767e-05
-2.00797e-08
1.35367e-05
-9.04774e-08
1.36297e-05
-1.95059e-07
1.37401e-05
-2.67765e-07
1.38718e-05
-3.25579e-07
1.39888e-05
-3.13928e-07
1.40892e-05
-2.9397e-07
1.41658e-05
-2.53991e-07
1.42283e-05
-2.18417e-07
1.42814e-05
-1.89158e-07
1.43339e-05
-1.64646e-07
1.43853e-05
-1.37452e-07
1.44409e-05
-1.31343e-07
1.44973e-05
-1.34464e-07
1.4548e-05
-1.2412e-07
1.46184e-05
-1.37509e-07
1.47025e-05
-1.17806e-07
1.48088e-05
-1.00898e-07
1.4926e-05
-1.00509e-07
1.50237e-05
-8.94287e-08
1.5115e-05
-1.34009e-07
1.51827e-05
-1.75492e-07
1.52174e-05
-2.02852e-07
1.52538e-05
-2.68748e-07
1.5269e-05
-2.7459e-07
1.52818e-05
-2.89688e-07
1.53082e-05
-2.87899e-07
1.53252e-05
-2.33577e-07
1.53529e-05
-2.05137e-07
1.53858e-05
-1.66526e-07
1.54107e-05
-1.08904e-07
1.54503e-05
-8.37059e-08
1.54941e-05
-4.12234e-08
1.55395e-05
-6.96911e-10
1.56001e-05
1.05402e-08
1.56569e-05
4.35649e-08
1.57093e-05
5.54138e-08
1.57793e-05
3.43487e-08
1.58321e-05
4.67042e-08
1.5888e-05
1.38836e-08
1.59446e-05
-2.53694e-08
1.59856e-05
-5.34734e-08
1.60315e-05
-1.13445e-07
1.60756e-05
-1.76226e-07
1.61053e-05
-1.93215e-07
1.61458e-05
-2.59365e-07
1.61581e-05
-2.76414e-07
1.61716e-05
-2.84646e-07
1.61849e-05
-3.27776e-07
1.61596e-05
-2.96455e-07
1.61684e-05
-3.19477e-07
1.61578e-05
-2.65283e-07
1.61691e-05
-2.46389e-07
1.622e-05
-1.85677e-07
1.62395e-05
-1.12347e-07
1.63061e-05
-6.39701e-08
1.6365e-05
1.93094e-08
1.6434e-05
2.00768e-08
1.64736e-05
5.38236e-08
1.6521e-05
-1.05212e-09
1.65825e-05
-1.17349e-09
1.66445e-05
1.45005e-08
1.67468e-05
-5.28345e-08
1.68177e-05
-2.7563e-08
1.68877e-05
-6.63659e-08
1.69872e-05
-7.86232e-08
1.7106e-05
-3.4866e-08
1.72709e-05
2.16785e-08
1.74434e-05
6.36339e-08
1.7649e-05
1.45867e-07
1.79335e-05
2.11117e-07
1.82876e-05
2.9617e-07
1.86891e-05
3.23796e-07
1.916e-05
3.15368e-07
1.96958e-05
2.25313e-07
2.02248e-05
7.55841e-08
2.07501e-05
-1.28124e-07
2.12621e-05
-5.47015e-07
2.16977e-05
-8.79363e-07
2.20868e-05
-1.30677e-06
2.24098e-05
-1.6111e-06
2.26739e-05
-1.95035e-06
2.28943e-05
-2.24198e-06
2.31412e-05
-2.45515e-06
2.33605e-05
-2.63349e-06
2.35968e-05
-2.80342e-06
2.37874e-05
-2.85655e-06
2.40298e-05
-2.95032e-06
2.41889e-05
-3.08343e-06
2.43722e-05
-3.20238e-06
2.45002e-05
-3.21124e-06
2.45707e-05
-3.30191e-06
2.46736e-05
-3.44531e-06
2.47463e-05
-3.47965e-06
2.48438e-05
-3.58476e-06
2.50052e-05
-3.69734e-06
2.51791e-05
-3.86831e-06
2.53735e-05
-4.04897e-06
2.56489e-05
-4.23066e-06
2.59193e-05
-4.55435e-06
2.63131e-05
-4.86126e-06
2.67178e-05
-5.15119e-06
2.70977e-05
-5.62809e-06
2.75635e-05
-6.00708e-06
2.79946e-05
-6.32498e-06
2.84703e-05
-6.83581e-06
2.88815e-05
-7.07867e-06
2.94114e-05
-7.42523e-06
2.98099e-05
-7.74427e-06
3.01616e-05
-7.91852e-06
3.06072e-05
-8.19644e-06
3.08143e-05
-8.25706e-06
3.106e-05
-8.47558e-06
3.12879e-05
-8.58487e-06
3.13968e-05
-8.65839e-06
3.14563e-05
-8.73657e-06
3.14742e-05
-8.81964e-06
3.14754e-05
-8.89736e-06
3.1491e-05
-8.98026e-06
3.14774e-05
-9.0539e-06
3.16536e-05
-9.2622e-06
3.1711e-05
-9.32673e-06
3.19222e-05
-9.35719e-06
3.21669e-05
-9.57883e-06
3.23821e-05
-9.45223e-06
3.27649e-05
-9.59557e-06
3.31165e-05
-9.44453e-06
3.33952e-05
-9.3162e-06
3.37592e-05
-9.20061e-06
3.41063e-05
-8.89188e-06
3.43557e-05
-8.66551e-06
3.45635e-05
-8.37485e-06
3.47683e-05
-8.08347e-06
3.49049e-05
-7.71195e-06
3.5031e-05
-7.49408e-06
3.50988e-05
-7.28973e-06
3.50937e-05
-6.78849e-06
3.51336e-05
-6.89318e-06
3.50939e-05
-6.5629e-06
3.51258e-05
-6.48754e-06
3.51284e-05
-6.46382e-06
3.51473e-05
-6.28899e-06
3.52323e-05
-6.26062e-06
3.53065e-05
-5.9751e-06
3.53215e-05
-5.75879e-06
3.54872e-05
-5.36089e-06
3.54479e-05
-4.72505e-06
3.56456e-05
-4.22008e-06
3.56152e-05
-3.27271e-06
3.58015e-05
-2.46581e-06
3.57828e-05
-1.27663e-06
3.58174e-05
-2.07662e-07
3.58065e-05
1.22033e-06
3.57623e-05
2.66995e-06
3.56143e-05
3.98798e-06
3.54884e-05
5.58752e-06
3.52044e-05
6.89078e-06
3.4848e-05
8.44466e-06
3.45732e-05
9.47114e-06
3.39851e-05
1.09206e-05
3.33509e-05
1.17355e-05
3.27609e-05
1.25893e-05
3.1829e-05
1.33524e-05
3.09926e-05
1.35744e-05
3.0103e-05
1.40638e-05
2.93019e-05
1.37673e-05
2.83949e-05
1.40772e-05
2.77848e-05
1.34752e-05
2.73451e-05
1.32334e-05
2.70739e-05
1.28701e-05
2.69779e-05
1.22223e-05
2.65657e-05
1.19402e-05
2.64615e-05
1.08136e-05
2.61159e-05
1.02811e-05
2.58279e-05
8.93394e-06
2.56328e-05
8.07794e-06
2.4976e-05
7.19534e-06
2.49069e-05
5.82951e-06
2.4105e-05
5.26533e-06
2.38672e-05
3.69342e-06
2.32693e-05
3.46523e-06
2.25853e-05
2.28705e-06
2.2122e-05
1.8816e-06
2.11469e-05
1.60724e-06
2.09249e-05
1.388e-06
2.00235e-05
2.38333e-06
1.96406e-05
2.44542e-06
1.91555e-05
3.82644e-06
1.85378e-05
4.64849e-06
1.873e-05
6.58151e-06
1.74339e-05
9.31471e-06
1.81302e-05
1.00916e-05
1.68965e-05
1.49223e-05
1.83254e-05
1.43084e-05
1.843e-05
2.24653e-05
2.43647e-05
1.94734e-05
3.76177e-05
2.3454e-05
2.03806e-05
-1.24015e-07
2.0138e-05
3.49342e-08
1.99812e-05
8.65696e-08
1.99523e-05
8.82924e-09
2.00092e-05
-1.47378e-07
2.00797e-05
-2.65556e-07
2.01345e-05
-3.22564e-07
2.01834e-05
-3.74408e-07
2.02385e-05
-3.6908e-07
2.03135e-05
-3.6897e-07
2.03847e-05
-3.25182e-07
2.0449e-05
-2.8276e-07
2.04897e-05
-2.29808e-07
2.05064e-05
-1.8134e-07
2.05174e-05
-1.48501e-07
2.0522e-05
-1.35943e-07
2.05411e-05
-1.53558e-07
2.05678e-05
-1.50808e-07
2.06065e-05
-1.76243e-07
2.06799e-05
-1.91186e-07
2.07505e-05
-1.71511e-07
2.08425e-05
-1.92514e-07
2.0913e-05
-1.59912e-07
2.09676e-05
-1.88563e-07
2.10093e-05
-2.17216e-07
2.10121e-05
-2.05676e-07
2.10202e-05
-2.76791e-07
2.10102e-05
-2.64591e-07
2.10082e-05
-2.8769e-07
2.1008e-05
-2.87764e-07
2.10135e-05
-2.38988e-07
2.10236e-05
-2.15258e-07
2.10383e-05
-1.81215e-07
2.10476e-05
-1.18208e-07
2.1063e-05
-9.91873e-08
2.10834e-05
-6.15337e-08
2.11092e-05
-2.65475e-08
2.11369e-05
-1.71781e-08
2.11793e-05
1.17906e-09
2.1204e-05
3.07091e-08
2.12433e-05
-4.93246e-09
2.12766e-05
1.33661e-08
2.12927e-05
-2.22299e-09
2.13356e-05
-6.81885e-08
2.13469e-05
-6.47858e-08
2.13761e-05
-1.42626e-07
2.13995e-05
-1.99662e-07
2.14032e-05
-1.96958e-07
2.14305e-05
-2.86674e-07
2.14344e-05
-2.80241e-07
2.14268e-05
-2.77068e-07
2.1444e-05
-3.44935e-07
2.1413e-05
-2.65497e-07
2.14062e-05
-3.12713e-07
2.14121e-05
-2.71183e-07
2.13857e-05
-2.19958e-07
2.14123e-05
-2.12263e-07
2.14328e-05
-1.32891e-07
2.14512e-05
-8.23401e-08
2.15073e-05
-3.67789e-08
2.15355e-05
-8.12625e-09
2.15606e-05
2.86789e-08
2.15762e-05
-1.66561e-08
2.16063e-05
-3.1211e-08
2.16468e-05
-2.59889e-08
2.1699e-05
-1.0502e-07
2.1772e-05
-1.00614e-07
2.18179e-05
-1.12232e-07
2.19279e-05
-1.88623e-07
2.20274e-05
-1.34436e-07
2.2176e-05
-1.26846e-07
2.23712e-05
-1.31589e-07
2.25688e-05
-5.17753e-08
2.2835e-05
-5.50175e-08
2.31707e-05
-3.95474e-08
2.35318e-05
-3.73573e-08
2.39162e-05
-6.90146e-08
2.43699e-05
-2.28336e-07
2.4794e-05
-3.48599e-07
2.52627e-05
-5.96756e-07
2.56426e-05
-9.26916e-07
2.59918e-05
-1.22855e-06
2.62934e-05
-1.6084e-06
2.65394e-05
-1.85708e-06
2.67649e-05
-2.17587e-06
2.69528e-05
-2.42988e-06
2.70861e-05
-2.5885e-06
2.72495e-05
-2.79685e-06
2.73628e-05
-2.91678e-06
2.74522e-05
-2.94593e-06
2.76092e-05
-3.10731e-06
2.76793e-05
-3.15348e-06
2.77491e-05
-3.27222e-06
2.7845e-05
-3.30717e-06
2.7949e-05
-3.4059e-06
2.80396e-05
-3.53587e-06
2.81552e-05
-3.5953e-06
2.82926e-05
-3.72215e-06
2.84623e-05
-3.86697e-06
2.8614e-05
-4.02003e-06
2.88026e-05
-4.23756e-06
2.90098e-05
-4.43789e-06
2.92035e-05
-4.74804e-06
2.94596e-05
-5.11735e-06
2.9668e-05
-5.35965e-06
2.99019e-05
-5.86191e-06
3.01465e-05
-6.2517e-06
3.03863e-05
-6.56476e-06
3.05509e-05
-7.00044e-06
3.07514e-05
-7.27918e-06
3.09344e-05
-7.60821e-06
3.09762e-05
-7.78605e-06
3.10498e-05
-7.99211e-06
3.10346e-05
-8.18128e-06
3.0995e-05
-8.21742e-06
3.09141e-05
-8.39475e-06
3.08186e-05
-8.48931e-06
3.06653e-05
-8.50507e-06
3.05419e-05
-8.61318e-06
3.04751e-05
-8.75287e-06
3.04692e-05
-8.89146e-06
3.05164e-05
-9.02742e-06
3.07305e-05
-9.26805e-06
3.09215e-05
-9.45318e-06
3.11421e-05
-9.54738e-06
3.15912e-05
-9.80623e-06
3.19034e-05
-9.89102e-06
3.23567e-05
-9.90556e-06
3.2776e-05
-1.00148e-05
3.31651e-05
-9.83362e-06
3.35099e-05
-9.66099e-06
3.38179e-05
-9.50865e-06
3.40945e-05
-9.16853e-06
3.41918e-05
-8.76272e-06
3.42749e-05
-8.458e-06
3.43465e-05
-8.15509e-06
3.42871e-05
-7.65255e-06
3.41308e-05
-7.33774e-06
3.3946e-05
-7.10499e-06
3.37656e-05
-6.60806e-06
3.34967e-05
-6.62434e-06
3.32499e-05
-6.31608e-06
3.30754e-05
-6.31304e-06
3.28488e-05
-6.23717e-06
3.26399e-05
-6.0801e-06
3.25466e-05
-6.1673e-06
3.23878e-05
-5.8163e-06
3.22986e-05
-5.66959e-06
3.2268e-05
-5.33029e-06
3.2204e-05
-4.66107e-06
3.22774e-05
-4.29348e-06
3.23428e-05
-3.33814e-06
3.24526e-05
-2.57561e-06
3.25677e-05
-1.39167e-06
3.26201e-05
-2.60134e-07
3.27188e-05
1.12165e-06
3.29008e-05
2.488e-06
3.2835e-05
4.0537e-06
3.28895e-05
5.53311e-06
3.28792e-05
6.90108e-06
3.28899e-05
8.43392e-06
3.27324e-05
9.62863e-06
3.27332e-05
1.09197e-05
3.24195e-05
1.20493e-05
3.21032e-05
1.29056e-05
3.15894e-05
1.38661e-05
3.085e-05
1.43138e-05
3.00588e-05
1.4855e-05
2.90759e-05
1.47502e-05
2.82786e-05
1.48746e-05
2.73258e-05
1.4428e-05
2.65709e-05
1.39883e-05
2.58178e-05
1.36233e-05
2.54788e-05
1.25613e-05
2.53047e-05
1.21143e-05
2.48802e-05
1.12381e-05
2.49552e-05
1.02061e-05
2.43979e-05
9.49121e-06
2.41962e-05
8.27967e-06
2.38223e-05
7.56918e-06
2.34713e-05
6.18051e-06
2.31219e-05
5.61471e-06
2.25256e-05
4.28978e-06
2.21902e-05
3.80064e-06
2.16492e-05
2.82806e-06
2.06627e-05
2.86805e-06
2.08097e-05
1.46027e-06
1.99413e-05
2.25638e-06
2.04278e-05
1.8968e-06
1.91941e-05
3.67914e-06
2.00229e-05
2.99765e-06
1.88922e-05
5.77916e-06
1.97721e-05
5.70167e-06
1.88965e-05
1.01903e-05
1.99363e-05
9.05182e-06
1.90468e-05
1.58119e-05
2.1413e-05
1.19422e-05
1.95761e-05
2.43022e-05
2.72315e-05
1.1818e-05
3.54325e-05
2.94167e-05
2.52144e-05
-1.27671e-07
2.52896e-05
-4.02879e-08
2.54053e-05
-2.91269e-08
2.55071e-05
-9.29692e-08
2.56061e-05
-2.46321e-07
2.56421e-05
-3.01545e-07
2.56558e-05
-3.36302e-07
2.56401e-05
-3.5876e-07
2.56158e-05
-3.44759e-07
2.56257e-05
-3.78853e-07
2.56405e-05
-3.39964e-07
2.56808e-05
-3.23054e-07
2.57316e-05
-2.80621e-07
2.57687e-05
-2.1845e-07
2.57915e-05
-1.71324e-07
2.58048e-05
-1.49259e-07
2.5789e-05
-1.3775e-07
2.57898e-05
-1.51579e-07
2.57856e-05
-1.71981e-07
2.58014e-05
-2.07085e-07
2.58464e-05
-2.16487e-07
2.58962e-05
-2.42249e-07
2.5954e-05
-2.17779e-07
2.60099e-05
-2.44435e-07
2.60458e-05
-2.53166e-07
2.60551e-05
-2.14948e-07
2.60625e-05
-2.84194e-07
2.6032e-05
-2.34117e-07
2.60186e-05
-2.74219e-07
2.59945e-05
-2.63662e-07
2.59689e-05
-2.13438e-07
2.59699e-05
-2.16273e-07
2.59595e-05
-1.7081e-07
2.59617e-05
-1.2032e-07
2.59747e-05
-1.12285e-07
2.59847e-05
-7.15097e-08
2.601e-05
-5.18253e-08
2.60453e-05
-5.24971e-08
2.60623e-05
-1.58453e-08
2.60923e-05
7.52701e-10
2.61123e-05
-2.48863e-08
2.61206e-05
4.99349e-09
2.6133e-05
-1.46378e-08
2.61516e-05
-8.67406e-08
2.61467e-05
-5.9875e-08
2.61715e-05
-1.67435e-07
2.61744e-05
-2.02597e-07
2.61661e-05
-1.88636e-07
2.61872e-05
-3.07738e-07
2.61619e-05
-2.54995e-07
2.61623e-05
-2.77443e-07
2.61464e-05
-3.28996e-07
2.61359e-05
-2.55008e-07
2.6106e-05
-2.82829e-07
2.61149e-05
-2.80072e-07
2.60893e-05
-1.94386e-07
2.60811e-05
-2.041e-07
2.6116e-05
-1.6777e-07
2.61015e-05
-6.7772e-08
2.61546e-05
-8.99064e-08
2.61859e-05
-3.94418e-08
2.61986e-05
1.59524e-08
2.62524e-05
-7.04273e-08
2.62531e-05
-3.19404e-08
2.6302e-05
-7.48943e-08
2.63425e-05
-1.45489e-07
2.63846e-05
-1.42749e-07
2.64549e-05
-1.82506e-07
2.65201e-05
-2.53821e-07
2.66153e-05
-2.29632e-07
2.67395e-05
-2.51007e-07
2.68918e-05
-2.83971e-07
2.70845e-05
-2.44406e-07
2.7286e-05
-2.56538e-07
2.75575e-05
-3.11023e-07
2.78474e-05
-3.27332e-07
2.81524e-05
-3.73979e-07
2.85084e-05
-5.84369e-07
2.88022e-05
-6.42322e-07
2.91466e-05
-9.41202e-07
2.94247e-05
-1.20502e-06
2.96341e-05
-1.43789e-06
2.98293e-05
-1.80366e-06
2.99858e-05
-2.01356e-06
3.00486e-05
-2.23868e-06
3.01215e-05
-2.50276e-06
3.01268e-05
-2.59378e-06
3.01456e-05
-2.81572e-06
3.01595e-05
-2.93066e-06
3.02111e-05
-2.99746e-06
3.02293e-05
-3.12553e-06
3.02528e-05
-3.17702e-06
3.02712e-05
-3.29058e-06
3.02754e-05
-3.31138e-06
3.02899e-05
-3.42042e-06
3.0259e-05
-3.50497e-06
3.02486e-05
-3.58492e-06
3.02644e-05
-3.73796e-06
3.03016e-05
-3.90413e-06
3.03327e-05
-4.05114e-06
3.0431e-05
-4.33588e-06