/*--------------------------------*- C++ -*----------------------------------*\
| =========                 |                                                 |
| \\      /  F ield         | OpenFOAM: The Open Source CFD Toolbox           |
|  \\    /   O peration     | Version:  2.4.0                                 |
|   \\  /    A nd           | Web:      www.OpenFOAM.org                      |
|    \\/     M anipulation  |                                                 |
\*---------------------------------------------------------------------------*/
FoamFile
{
    version     2.0;
    format      ascii;
    class       volVectorField;
    location    "1.27";
    object      U_0;
}
// * * * * * * * * * * * * * * * * * * * * * * * * * * * * * * * * * * * * * //

dimensions      [0 1 -1 0 0 0 0];

internalField   nonuniform List<vector> 
8800
(
(8.09293 0.387847 0)
(5.45189 0.242653 0)
(3.90762 0.0431998 0)
(3.16304 -0.0159873 0)
(2.79381 -0.0179128 0)
(2.60685 -0.0110038 0)
(2.47457 -0.006172 0)
(2.39265 -0.00202547 0)
(2.30415 -0.000783014 0)
(2.26472 -0.00185588 0)
(2.20303 -0.000137796 0)
(2.18429 1.81142e-05 0)
(2.12502 0.000109797 0)
(2.12413 -0.000960953 0)
(2.05975 0.00188717 0)
(2.06208 -0.00103799 0)
(2.0019 0.000143364 0)
(2.00774 -0.0020596 0)
(2.00254 0.0104458 0)
(1.7914 -0.0695344 0)
(10.083 0.837822 0)
(9.66735 0.868592 0)
(8.85579 0.507029 0)
(8.10831 0.26062 0)
(7.4653 0.139673 0)
(7.03735 0.0817647 0)
(6.66736 0.0526186 0)
(6.43307 0.0421136 0)
(6.18471 0.0314384 0)
(6.07083 0.0208542 0)
(5.87878 0.0202541 0)
(5.83255 0.0176508 0)
(5.6661 0.0157682 0)
(5.66179 0.0114748 0)
(5.4913 0.0207389 0)
(5.50924 0.00872835 0)
(5.35251 0.017819 0)
(5.35494 -0.00413899 0)
(5.30861 0.0272825 0)
(5.17882 -0.0462754 0)
(10.0502 0.629509 0)
(10.6838 0.866064 0)
(10.8303 0.600163 0)
(10.741 0.371858 0)
(10.4064 0.258592 0)
(10.1425 0.195885 0)
(9.7833 0.150975 0)
(9.55756 0.12639 0)
(9.24322 0.095701 0)
(9.11561 0.071324 0)
(8.84276 0.0621991 0)
(8.7875 0.0517262 0)
(8.55352 0.0446386 0)
(8.54565 0.0347054 0)
(8.31078 0.0490998 0)
(8.33961 0.0249001 0)
(8.12134 0.0451775 0)
(8.13286 0.00290742 0)
(8.01732 0.0310902 0)
(7.99094 -0.10161 0)
(9.95933 0.453558 0)
(10.6276 0.712007 0)
(11.0894 0.54288 0)
(11.4605 0.350129 0)
(11.4777 0.265317 0)
(11.551 0.226086 0)
(11.406 0.196525 0)
(11.395 0.18262 0)
(11.1993 0.149513 0)
(11.1829 0.118702 0)
(10.9742 0.110898 0)
(10.9673 0.0910229 0)
(10.7708 0.0841695 0)
(10.7744 0.0654861 0)
(10.5621 0.0863387 0)
(10.5914 0.0499714 0)
(10.383 0.0762699 0)
(10.383 0.025524 0)
(10.2652 0.0466643 0)
(10.2527 -0.12576 0)
(9.95235 0.339708 0)
(10.5131 0.580958 0)
(10.9252 0.453032 0)
(11.397 0.29152 0)
(11.5605 0.213963 0)
(11.7899 0.192898 0)
(11.7906 0.17307 0)
(11.9178 0.177282 0)
(11.9031 0.148387 0)
(11.9752 0.125548 0)
(11.945 0.117056 0)
(12.0075 0.106855 0)
(11.9713 0.0902224 0)
(12.0025 0.0864963 0)
(11.9353 0.0991431 0)
(11.9723 0.0712766 0)
(11.8907 0.0934683 0)
(11.8463 0.0557058 0)
(11.8693 0.0467938 0)
(11.813 -0.0221539 0)
(9.96636 0.242363 0)
(10.4168 0.470451 0)
(10.8218 0.378462 0)
(11.231 0.236361 0)
(11.4497 0.162941 0)
(11.6892 0.146603 0)
(11.7614 0.145911 0)
(11.868 0.146127 0)
(11.9649 0.129733 0)
(12.023 0.100921 0)
(12.1031 0.103708 0)
(12.1677 0.0833851 0)
(12.2634 0.0838489 0)
(12.3183 0.073379 0)
(12.3568 0.0871213 0)
(12.4256 0.0783334 0)
(12.4729 0.0731188 0)
(12.3936 0.089559 0)
(12.5579 0.0527913 0)
(12.5158 -0.0168093 0)
(9.97596 0.168731 0)
(10.3253 0.361837 0)
(10.7688 0.291414 0)
(11.1276 0.206241 0)
(11.3316 0.116694 0)
(11.5649 0.109753 0)
(11.6712 0.103403 0)
(11.8078 0.125534 0)
(11.8586 0.0873466 0)
(11.9839 0.101491 0)
(12.0037 0.0607399 0)
(12.1457 0.0896521 0)
(12.155 0.0223041 0)
(12.3239 0.0913519 0)
(12.309 0.0448502 0)
(12.4432 0.0611011 0)
(12.4938 0.0844248 0)
(12.4766 0.0739519 0)
(12.5862 0.0575871 0)
(12.5818 0.186718 0)
(9.98192 0.102022 0)
(10.2677 0.262367 0)
(10.6747 0.198028 0)
(11.0549 0.175191 0)
(11.3289 0.0746812 0)
(11.4833 0.0791209 0)
(11.6008 0.0491342 0)
(11.7083 0.112208 0)
(11.8119 0.0489051 0)
(11.9117 0.0838737 0)
(11.9835 0.0355281 0)
(11.9923 0.0752629 0)
(12.2027 0.0149585 0)
(12.1128 0.0615578 0)
(12.3529 0.0226399 0)
(12.3503 0.0819578 0)
(12.3438 -0.00753125 0)
(12.5301 0.15089 0)
(12.4511 0.0072313 0)
(12.6363 0.134919 0)
(10.0057 0.0648117 0)
(10.2421 0.150353 0)
(10.5934 0.12028 0)
(11.0142 0.0931749 0)
(11.2986 0.0565519 0)
(11.4686 0.0466761 0)
(11.5254 0.0354623 0)
(11.641 0.0541362 0)
(11.8262 0.0259802 0)
(11.8029 0.0489194 0)
(11.9013 0.0396176 0)
(12.0167 0.0363297 0)
(12.0939 -0.00647988 0)
(12.2118 0.0500866 0)
(12.1505 -0.00252248 0)
(12.4014 0.0342073 0)
(12.2709 0.0717834 0)
(12.3945 -0.0143516 0)
(12.5919 0.0346635 0)
(12.3691 0.0179708 0)
(10.0136 0.00659168 0)
(10.2313 0.0693665 0)
(10.5759 0.0267159 0)
(10.9297 0.0362877 0)
(11.2623 0.0131391 0)
(11.5031 0.0333982 0)
(11.4982 -0.00126679 0)
(11.6602 0.0121572 0)
(11.7232 0.00382194 0)
(11.8563 0.0451512 0)
(11.816 -0.00707455 0)
(12.0499 0.0137663 0)
(12.087 -0.0123723 0)
(12.09 0.0222758 0)
(12.3063 -0.00401468 0)
(12.1354 0.0308145 0)
(12.4222 -0.0160636 0)
(12.4711 0.0336118 0)
(12.3131 -0.0372004 0)
(12.466 0.00993514 0)
(9.99422 -0.0269575 0)
(10.2361 -0.0357542 0)
(10.6018 -0.0374595 0)
(10.922 -0.0413235 0)
(11.2654 -0.0336052 0)
(11.4735 0.00601105 0)
(11.5732 -0.0112257 0)
(11.5973 -0.0270208 0)
(11.7433 -0.0314943 0)
(11.8083 0.0149201 0)
(11.928 -0.00650167 0)
(11.9494 -0.0304768 0)
(12.0968 -0.0123576 0)
(12.1735 -0.00360577 0)
(12.1397 -0.010852 0)
(12.3251 -0.00826011 0)
(12.3551 -0.0185136 0)
(12.3982 -0.0310809 0)
(12.4258 -0.000501035 0)
(12.3379 -0.0377983 0)
(10.0008 -0.0770327 0)
(10.2299 -0.134517 0)
(10.6239 -0.121665 0)
(11.0249 -0.0985433 0)
(11.2513 -0.064356 0)
(11.4358 -0.0333132 0)
(11.5863 -0.0320689 0)
(11.6859 -0.0628672 0)
(11.7233 -0.0491178 0)
(11.8351 -0.0233683 0)
(11.9413 -0.0275832 0)
(12.0355 -0.0409574 0)
(12.0572 -0.046739 0)
(12.1604 -0.00900759 0)
(12.2208 -0.0237317 0)
(12.314 -0.0459123 0)
(12.4169 -0.0443429 0)
(12.3668 -0.019602 0)
(12.4107 -0.0674884 0)
(12.4516 -0.0456336 0)
(10.0071 -0.119216 0)
(10.235 -0.238191 0)
(10.6916 -0.213477 0)
(11.0688 -0.160003 0)
(11.2972 -0.0833295 0)
(11.4643 -0.0642375 0)
(11.6355 -0.0784355 0)
(11.7216 -0.0871587 0)
(11.7794 -0.0738016 0)
(11.8746 -0.0541769 0)
(11.9921 -0.0521609 0)
(12.0589 -0.0601013 0)
(12.1305 -0.0404961 0)
(12.1597 -0.0446401 0)
(12.2946 -0.0513962 0)
(12.3874 -0.0679387 0)
(12.3713 -0.0454257 0)
(12.4626 -0.0723431 0)
(12.527 -0.0786573 0)
(12.4395 -0.086288 0)
(10.0174 -0.177495 0)
(10.2848 -0.34768 0)
(10.7865 -0.298819 0)
(11.1107 -0.206892 0)
(11.3585 -0.112886 0)
(11.5515 -0.113598 0)
(11.714 -0.103836 0)
(11.7622 -0.120624 0)
(11.8682 -0.0928973 0)
(11.951 -0.0894975 0)
(12.043 -0.0701008 0)
(12.1136 -0.0810549 0)
(12.1974 -0.0581762 0)
(12.2617 -0.0672464 0)
(12.3672 -0.0670517 0)
(12.4045 -0.0828946 0)
(12.4645 -0.0732007 0)
(12.54 -0.0974137 0)
(12.542 -0.10893 0)
(12.4985 -0.0993399 0)
(10.0644 -0.252934 0)
(10.3132 -0.453796 0)
(10.9101 -0.384919 0)
(11.1619 -0.242998 0)
(11.5162 -0.156245 0)
(11.6231 -0.155957 0)
(11.82 -0.138432 0)
(11.8125 -0.146914 0)
(11.9925 -0.123973 0)
(11.9995 -0.112646 0)
(12.1419 -0.089899 0)
(12.1491 -0.104017 0)
(12.2837 -0.0729204 0)
(12.2767 -0.0920412 0)
(12.3882 -0.0802567 0)
(12.379 -0.106088 0)
(12.4605 -0.0836702 0)
(12.4398 -0.129897 0)
(12.4779 -0.119742 0)
(12.3787 -0.14669 0)
(10.0644 -0.348904 0)
(10.3885 -0.565243 0)
(11.0585 -0.465736 0)
(11.2782 -0.289115 0)
(11.6703 -0.210064 0)
(11.6699 -0.196705 0)
(11.8946 -0.171634 0)
(11.8091 -0.172476 0)
(11.9996 -0.151455 0)
(11.8834 -0.130808 0)
(12.0416 -0.111203 0)
(11.9105 -0.116281 0)
(12.0538 -0.0887108 0)
(11.9033 -0.0997233 0)
(12.0185 -0.0877098 0)
(11.865 -0.109941 0)
(11.9427 -0.0895896 0)
(11.7754 -0.135428 0)
(11.7946 -0.126558 0)
(11.5679 -0.162466 0)
(10.0157 -0.458252 0)
(10.5557 -0.704854 0)
(11.1763 -0.548432 0)
(11.3558 -0.348952 0)
(11.5764 -0.262115 0)
(11.4411 -0.23044 0)
(11.5106 -0.195709 0)
(11.2832 -0.17938 0)
(11.3127 -0.151936 0)
(11.0586 -0.124311 0)
(11.1007 -0.103649 0)
(10.8284 -0.101005 0)
(10.8981 -0.0772189 0)
(10.6232 -0.0824752 0)
(10.6948 -0.0713341 0)
(10.4193 -0.0901911 0)
(10.4843 -0.0681242 0)
(10.191 -0.116075 0)
(10.2068 -0.0958918 0)
(9.8664 -0.159198 0)
(10.0675 -0.632741 0)
(10.6536 -0.862752 0)
(10.8703 -0.60213 0)
(10.6828 -0.371563 0)
(10.4692 -0.256474 0)
(10.0699 -0.198613 0)
(9.85472 -0.150715 0)
(9.47885 -0.123827 0)
(9.3286 -0.0975161 0)
(9.01329 -0.0746649 0)
(8.9492 -0.0582705 0)
(8.66263 -0.0565784 0)
(8.67067 -0.0424408 0)
(8.39932 -0.0446168 0)
(8.43616 -0.041555 0)
(8.16346 -0.0517675 0)
(8.20945 -0.0441923 0)
(7.91003 -0.0696984 0)
(7.91753 -0.0714412 0)
(7.57039 -0.0873063 0)
(10.0859 -0.838803 0)
(9.6549 -0.867461 0)
(8.87168 -0.507166 0)
(8.07989 -0.26101 0)
(7.49944 -0.138168 0)
(6.99672 -0.0834721 0)
(6.7075 -0.0526634 0)
(6.38809 -0.040896 0)
(6.23442 -0.031743 0)
(6.00773 -0.023567 0)
(5.9433 -0.0174692 0)
(5.75112 -0.0205188 0)
(5.74141 -0.014364 0)
(5.55911 -0.0172434 0)
(5.57126 -0.0167925 0)
(5.3778 -0.0238094 0)
(5.39308 -0.0195729 0)
(5.17089 -0.0327368 0)
(5.16151 -0.0388328 0)
(4.86935 -0.0176993 0)
(8.09137 -0.38804 0)
(5.4488 -0.242393 0)
(3.911 -0.0430131 0)
(3.15658 0.0155356 0)
(2.80321 0.0183155 0)
(2.59464 0.0106049 0)
(2.48672 0.0061058 0)
(2.37717 0.00238056 0)
(2.32145 0.00097791 0)
(2.24302 0.00079145 0)
(2.22189 0.00124434 0)
(2.15701 -0.000867939 0)
(2.14794 0.000481983 0)
(2.08481 -0.000682253 0)
(2.08163 -0.000519417 0)
(2.00527 -0.00258931 0)
(1.9964 -0.00050264 0)
(1.90703 -0.003903 0)
(1.86893 -0.00430641 0)
(1.71963 0.0111358 0)
(2.28076 -0.16436 0)
(2.40756 -0.073447 0)
(2.50497 -0.00823639 0)
(2.58577 0.0150484 0)
(2.66195 0.00575882 0)
(2.73955 -0.0131552 0)
(2.81964 -0.028888 0)
(2.90273 -0.0397507 0)
(2.9777 -0.0431139 0)
(3.04918 -0.0434182 0)
(3.10364 -0.0415124 0)
(3.16001 -0.0389398 0)
(3.19603 -0.0359653 0)
(3.24163 -0.0286723 0)
(3.26817 -0.0186155 0)
(3.31094 -0.0124337 0)
(3.33929 -0.0118362 0)
(3.38657 -0.00952682 0)
(3.41292 -0.00533985 0)
(3.46079 0.0100086 0)
(3.49061 0.0259328 0)
(3.56729 0.0315738 0)
(3.63414 0.0263372 0)
(3.72101 0.007862 0)
(3.78155 -0.0166 0)
(3.84779 -0.0438707 0)
(3.87669 -0.0679675 0)
(3.90844 -0.082322 0)
(3.91287 -0.0906954 0)
(3.91678 -0.0852724 0)
(3.91722 -0.0702945 0)
(3.92363 -0.0553998 0)
(3.95183 -0.038583 0)
(3.9685 -0.0225648 0)
(4.01271 -0.00653542 0)
(4.02637 0.0107153 0)
(4.07173 0.0258238 0)
(4.09174 0.0367466 0)
(4.13178 0.0455602 0)
(4.16613 0.0495295 0)
(4.20599 0.0484084 0)
(4.23716 0.0448348 0)
(4.29088 0.0363636 0)
(4.30626 0.0187693 0)
(4.36532 0.00664839 0)
(4.37527 -0.0136931 0)
(4.41258 -0.0375287 0)
(4.43213 -0.0448297 0)
(4.42549 -0.0646314 0)
(4.46464 -0.0848727 0)
(4.43435 -0.0858718 0)
(4.45363 -0.107017 0)
(4.44664 -0.113108 0)
(4.47538 -0.0978291 0)
(4.45234 -0.0863508 0)
(4.53345 -0.0728351 0)
(4.48253 -0.0364799 0)
(4.53201 -0.0335592 0)
(4.57544 0.0105538 0)
(4.57953 0.0367388 0)
(4.6592 0.0377353 0)
(4.7217 0.0371051 0)
(4.77614 0.027119 0)
(4.81294 0.0332026 0)
(4.88221 0.0494175 0)
(4.95507 0.04772 0)
(4.96278 0.0323091 0)
(5.02487 0.0149401 0)
(5.02368 0.0144279 0)
(5.08787 0.0406013 0)
(5.0864 0.0680192 0)
(5.15629 0.0930743 0)
(5.13606 0.132634 0)
(5.21356 0.174029 0)
(5.2801 0.248698 0)
(5.38935 0.275444 0)
(5.58249 0.318673 0)
(5.82453 0.345712 0)
(6.07215 0.295096 0)
(6.29423 0.2183 0)
(6.58346 0.0953394 0)
(6.76745 -0.0570783 0)
(6.95065 -0.231602 0)
(7.12209 -0.331799 0)
(7.33365 -0.483056 0)
(7.38376 -0.631826 0)
(7.4715 -0.669286 0)
(7.64924 -0.772727 0)
(7.5422 -0.836492 0)
(7.71907 -0.869341 0)
(7.7273 -0.883633 0)
(7.86976 -0.985504 0)
(7.81269 -1.01259 0)
(7.94023 -1.02458 0)
(8.00778 -1.07278 0)
(8.09522 -1.09167 0)
(8.13479 -1.12851 0)
(8.28157 -1.13242 0)
(8.40874 -1.12115 0)
(8.52353 -1.19112 0)
(8.65786 -1.23749 0)
(8.80098 -1.24405 0)
(9.02774 -1.37486 0)
(9.05734 -1.43009 0)
(9.34041 -1.54612 0)
(9.51739 -1.72116 0)
(9.66111 -1.77759 0)
(9.91262 -1.92856 0)
(10.0832 -2.06146 0)
(10.3648 -2.15822 0)
(10.5605 -2.20367 0)
(10.8666 -2.37062 0)
(11.1641 -2.47466 0)
(11.3119 -2.48251 0)
(11.6677 -2.63699 0)
(11.88 -2.67411 0)
(12.1379 -2.71882 0)
(12.2503 -2.82717 0)
(12.5395 -2.88051 0)
(12.5915 -2.93306 0)
(12.7509 -2.95027 0)
(12.781 -2.96165 0)
(12.9745 -3.02954 0)
(12.9025 -3.00704 0)
(13.0288 -3.07881 0)
(13.1046 -3.02635 0)
(13.088 -3.06247 0)
(13.3148 -3.03459 0)
(13.2025 -2.99348 0)
(13.439 -2.94224 0)
(13.4023 -2.96704 0)
(13.6528 -2.85188 0)
(13.4669 -2.78795 0)
(13.8557 -2.74121 0)
(13.7275 -2.67493 0)
(13.9318 -2.57988 0)
(13.894 -2.49616 0)
(14.0652 -2.44076 0)
(14.0228 -2.39237 0)
(14.0848 -2.29868 0)
(14.1725 -2.27931 0)
(14.1077 -2.21004 0)
(14.2341 -2.16974 0)
(14.2213 -2.16035 0)
(14.3709 -2.12302 0)
(14.2989 -2.07594 0)
(14.5929 -1.98774 0)
(14.4645 -1.96141 0)
(14.7218 -1.73347 0)
(14.6998 -1.65297 0)
(14.8101 -1.36375 0)
(14.8903 -1.16299 0)
(14.8646 -0.781822 0)
(14.9875 -0.481314 0)
(14.9143 -0.046417 0)
(14.9814 0.34978 0)
(14.8481 0.828951 0)
(14.8896 1.20402 0)
(14.6375 1.7203 0)
(14.5447 2.11276 0)
(14.3024 2.55751 0)
(14.0487 2.96282 0)
(13.7638 3.27739 0)
(13.4542 3.62117 0)
(13.1877 3.87802 0)
(12.6917 4.02683 0)
(12.6066 4.1328 0)
(12.1029 4.26236 0)
(11.9616 4.22325 0)
(11.6554 4.2882 0)
(11.5808 4.18882 0)
(11.4562 4.15955 0)
(11.3516 4.09896 0)
(11.2481 3.9712 0)
(10.9995 3.75632 0)
(11.0968 3.60248 0)
(10.7761 3.17278 0)
(10.8768 2.84449 0)
(10.6696 2.52377 0)
(10.4654 2.03165 0)
(10.3762 1.87968 0)
(10.1144 1.25448 0)
(9.95272 1.13738 0)
(9.75078 0.676905 0)
(9.43118 0.490241 0)
(9.25167 0.243363 0)
(8.86194 0.0348006 0)
(8.6412 0.394596 0)
(8.22789 0.137516 0)
(8.01502 0.804447 0)
(7.63845 0.798062 0)
(7.45119 1.47202 0)
(7.06871 2.17098 0)
(6.89137 2.3975 0)
(6.81339 3.91226 0)
(6.43579 4.22863 0)
(6.22762 5.34406 0)
(6.39283 7.53787 0)
(7.01198 8.74715 0)
(4.38263 12.1816 0)
(5.34805 -0.10474 0)
(5.3926 -0.0841416 0)
(5.39319 -0.0410519 0)
(5.39315 -0.016461 0)
(5.39245 -0.0346485 0)
(5.42193 -0.0641597 0)
(5.45788 -0.0833446 0)
(5.52057 -0.0899545 0)
(5.56817 -0.0862661 0)
(5.62831 -0.084596 0)
(5.65131 -0.0759369 0)
(5.69399 -0.0656017 0)
(5.70186 -0.0559394 0)
(5.73693 -0.0473696 0)
(5.74058 -0.040894 0)
(5.77453 -0.0386829 0)
(5.78035 -0.0387618 0)
(5.81774 -0.0384669 0)
(5.82858 -0.0373949 0)
(5.86642 -0.0310986 0)
(5.88583 -0.0233276 0)
(5.93019 -0.0183757 0)
(5.96865 -0.019032 0)
(6.01464 -0.0331845 0)
(6.05306 -0.0493669 0)
(6.08432 -0.0652403 0)
(6.1125 -0.084911 0)
(6.11869 -0.0921353 0)
(6.13853 -0.0996071 0)
(6.12296 -0.0932371 0)
(6.14344 -0.0789041 0)
(6.12168 -0.0654539 0)
(6.15475 -0.0495099 0)
(6.14265 -0.0337805 0)
(6.18474 -0.0227849 0)
(6.1744 -0.0080952 0)
(6.21788 0.00463361 0)
(6.20963 0.0111142 0)
(6.25485 0.0238083 0)
(6.25136 0.0229813 0)
(6.30236 0.0238522 0)
(6.29816 0.023764 0)
(6.35148 0.0089079 0)
(6.35244 0.00372423 0)
(6.38921 -0.0160887 0)
(6.40883 -0.0326194 0)
(6.42078 -0.0455373 0)
(6.44854 -0.0670447 0)
(6.4435 -0.0770782 0)
(6.4646 -0.0856623 0)
(6.4509 -0.10164 0)
(6.47075 -0.100359 0)
(6.4467 -0.101062 0)
(6.48633 -0.104673 0)
(6.45454 -0.0844351 0)
(6.49199 -0.0851523 0)
(6.49149 -0.0569448 0)
(6.48927 -0.0282938 0)
(6.51257 -0.00373262 0)
(6.51285 0.0166598 0)
(6.51679 0.0291094 0)
(6.57009 0.0283359 0)
(6.57859 0.00738902 0)
(6.61234 0.021292 0)
(6.63637 0.0106795 0)
(6.70806 -0.00686872 0)
(6.70325 0.00151251 0)
(6.80006 -0.0172095 0)
(6.81164 -0.00754463 0)
(6.89197 0.00342602 0)
(6.91367 0.0407946 0)
(7.00779 0.0461672 0)
(7.03006 0.0709368 0)
(7.13314 0.124837 0)
(7.24766 0.144969 0)
(7.365 0.172322 0)
(7.52947 0.188671 0)
(7.74333 0.145217 0)
(7.98135 0.103421 0)
(8.14432 0.0284559 0)
(8.45302 -0.140063 0)
(8.58362 -0.244887 0)
(8.78466 -0.405082 0)
(8.89561 -0.516622 0)
(9.0495 -0.619268 0)
(9.10038 -0.725899 0)
(9.21112 -0.799618 0)
(9.33245 -0.830498 0)
(9.35988 -0.888206 0)
(9.47683 -0.89196 0)
(9.55842 -0.894999 0)
(9.64085 -0.980391 0)
(9.67776 -1.00089 0)
(9.77434 -0.996726 0)
(9.73067 -1.07202 0)
(9.84351 -1.13422 0)
(9.79866 -1.13496 0)
(9.89283 -1.18168 0)
(9.9245 -1.24246 0)
(10.0294 -1.29862 0)
(10.059 -1.34117 0)
(10.2086 -1.42826 0)
(10.3145 -1.54594 0)
(10.4152 -1.60739 0)
(10.6308 -1.70704 0)
(10.7716 -1.8693 0)
(10.9325 -1.97971 0)
(11.1146 -2.07905 0)
(11.2734 -2.24989 0)
(11.4924 -2.33456 0)
(11.6196 -2.44016 0)
(11.8487 -2.57687 0)
(11.9891 -2.61749 0)
(12.15 -2.72998 0)
(12.2479 -2.75323 0)
(12.4093 -2.81918 0)
(12.4753 -2.88408 0)
(12.5257 -2.89475 0)
(12.6043 -2.91223 0)
(12.6089 -2.93437 0)
(12.6081 -2.95544 0)
(12.5849 -2.98913 0)
(12.6716 -2.98913 0)
(12.5732 -3.05189 0)
(12.7863 -3.07388 0)
(12.6775 -3.03171 0)
(12.8902 -3.12201 0)
(12.9229 -3.07782 0)
(13.0705 -3.08043 0)
(13.1896 -3.06178 0)
(13.3416 -3.01369 0)
(13.5205 -2.97055 0)
(13.517 -2.8597 0)
(13.8197 -2.83668 0)
(13.7951 -2.76132 0)
(13.9568 -2.64768 0)
(13.88 -2.5661 0)
(14.1898 -2.51949 0)
(13.9203 -2.44466 0)
(14.1522 -2.26205 0)
(13.9702 -2.33469 0)
(14.081 -2.21998 0)
(13.9108 -2.19883 0)
(14.0509 -2.2117 0)
(13.9553 -2.15159 0)
(14.0126 -2.14156 0)
(14.1018 -2.059 0)
(13.9939 -2.00783 0)
(14.244 -1.83285 0)
(14.0343 -1.67149 0)
(14.3164 -1.44941 0)
(14.1732 -1.1598 0)
(14.3173 -0.850782 0)
(14.3378 -0.472951 0)
(14.3469 -0.0788372 0)
(14.3316 0.395058 0)
(14.3788 0.842409 0)
(14.2241 1.27884 0)
(14.297 1.79963 0)
(14.1319 2.18379 0)
(14.0725 2.73422 0)
(13.8203 3.05559 0)
(13.8133 3.53599 0)
(13.3967 3.73763 0)
(13.2827 4.12515 0)
(12.8971 4.2714 0)
(12.5227 4.4018 0)
(12.2287 4.51569 0)
(11.7965 4.44439 0)
(11.5518 4.53423 0)
(11.0761 4.35327 0)
(11.0215 4.31822 0)
(10.8099 4.18001 0)
(10.7248 3.98376 0)
(10.7495 3.823 0)
(10.4269 3.4555 0)
(10.543 3.35177 0)
(10.2491 2.79426 0)
(10.2809 2.65733 0)
(10.0167 2.19926 0)
(9.90363 1.88353 0)
(9.80434 1.57647 0)
(9.45206 1.08793 0)
(9.49786 1.15363 0)
(9.04772 0.434066 0)
(8.92787 0.690881 0)
(8.63782 0.313831 0)
(8.30914 0.448767 0)
(8.31096 0.821004 0)
(7.80628 0.622585 0)
(7.97082 1.51709 0)
(7.35533 1.23254 0)
(7.70895 2.53276 0)
(7.29721 3.01974 0)
(6.96625 3.20509 0)
(7.47234 5.20164 0)
(6.92153 4.86251 0)
(6.64417 6.87483 0)
(10.2062 8.23286 0)
(7.33857 13.7363 0)
(8.03641 -0.0686997 0)
(8.05022 -0.0111628 0)
(8.0271 0.0083675 0)
(8.0142 -0.00177724 0)
(7.99417 -0.0451734 0)
(7.99913 -0.0861613 0)
(8.0113 -0.108989 0)
(8.05207 -0.130489 0)
(8.07484 -0.120488 0)
(8.1328 -0.10781 0)
(8.14426 -0.0907936 0)
(8.19274 -0.0765233 0)
(8.19003 -0.0639811 0)
(8.21375 -0.0564211 0)
(8.19652 -0.0478739 0)
(8.2164 -0.0530129 0)
(8.19838 -0.0570956 0)
(8.22745 -0.052279 0)
(8.22668 -0.0648982 0)
(8.25409 -0.053153 0)
(8.28085 -0.049622 0)
(8.29997 -0.048927 0)
(8.34192 -0.0369984 0)
(8.36013 -0.0546407 0)
(8.39464 -0.06108 0)
(8.39855 -0.0673066 0)
(8.43065 -0.0926212 0)
(8.40177 -0.0906689 0)
(8.44399 -0.0972834 0)
(8.39394 -0.101446 0)
(8.43401 -0.0781689 0)
(8.39055 -0.0741819 0)
(8.42503 -0.0602223 0)
(8.39766 -0.0366987 0)
(8.43542 -0.0344263 0)
(8.41027 -0.0193579 0)
(8.4521 -0.006057 0)
(8.43405 -0.00525477 0)
(8.46371 0.00503412 0)
(8.46418 0.01245 0)
(8.48411 -0.00216461 0)
(8.49143 0.00859045 0)
(8.51064 -0.00217104 0)
(8.52134 -0.0211643 0)
(8.52821 -0.0198554 0)
(8.55666 -0.0459463 0)
(8.54342 -0.068515 0)
(8.57464 -0.061004 0)
(8.55961 -0.0980056 0)
(8.57446 -0.0937635 0)
(8.56304 -0.0923087 0)
(8.574 -0.119217 0)
(8.5563 -0.0895468 0)
(8.57094 -0.109918 0)
(8.56236 -0.0890127 0)
(8.56719 -0.0772463 0)
(8.57589 -0.0659451 0)
(8.58345 -0.0370459 0)
(8.56281 -0.0266525 0)
(8.60143 0.00129375 0)
(8.56588 -0.00320896 0)
(8.59848 0.01713 0)
(8.62357 -0.00307826 0)
(8.6018 -0.0117276 0)
(8.66151 -3.38566e-05 0)
(8.67394 -0.0336695 0)
(8.71039 -0.0234175 0)
(8.75321 -0.031935 0)
(8.78749 -0.0502287 0)
(8.85724 -0.0340533 0)
(8.87906 -0.042814 0)
(8.96548 -0.0225299 0)
(9.01727 0.00333207 0)
(9.0854 -0.00528353 0)
(9.20492 0.0270742 0)
(9.33274 0.0271012 0)
(9.42478 0.0117337 0)
(9.64302 -0.0161448 0)
(9.82186 -0.0771608 0)
(9.97746 -0.146161 0)
(10.2002 -0.258426 0)
(10.3097 -0.375972 0)
(10.4975 -0.48217 0)
(10.5343 -0.575236 0)
(10.7042 -0.690048 0)
(10.7279 -0.74347 0)
(10.8109 -0.810444 0)
(10.8752 -0.891339 0)
(10.9302 -0.923087 0)
(10.9251 -0.947635 0)
(11.0314 -1.01512 0)
(11.0346 -1.02701 0)
(11.0823 -1.07896 0)
(11.093 -1.11044 0)
(11.126 -1.12786 0)
(11.1875 -1.15976 0)
(11.2075 -1.17397 0)
(11.2644 -1.20637 0)
(11.3505 -1.23666 0)
(11.4234 -1.28791 0)
(11.4521 -1.35835 0)
(11.5906 -1.41804 0)
(11.6302 -1.51884 0)
(11.7553 -1.62965 0)
(11.8229 -1.72897 0)
(11.9114 -1.90057 0)
(12.0466 -2.02635 0)
(12.0961 -2.13839 0)
(12.1737 -2.31257 0)
(12.2755 -2.38379 0)
(12.3355 -2.52706 0)
(12.3547 -2.57775 0)
(12.4212 -2.65694 0)
(12.4005 -2.74309 0)
(12.3837 -2.73516 0)
(12.395 -2.82375 0)
(12.3469 -2.83975 0)
(12.2906 -2.85221 0)
(12.2434 -2.87756 0)
(12.2294 -2.91642 0)
(12.1765 -2.97474 0)
(12.2273 -2.98747 0)
(12.2655 -3.04047 0)
(12.3527 -3.13104 0)
(12.4306 -3.12586 0)
(12.5704 -3.20345 0)
(12.7411 -3.23603 0)
(12.8386 -3.19712 0)
(13.136 -3.28917 0)
(13.1292 -3.1759 0)
(13.4505 -3.13922 0)
(13.4676 -3.12053 0)
(13.6848 -3.00201 0)
(13.6394 -2.90523 0)
(13.8477 -2.8062 0)
(13.7504 -2.7259 0)
(13.795 -2.56833 0)
(13.8049 -2.48705 0)
(13.5935 -2.40115 0)
(13.6753 -2.25444 0)
(13.3522 -2.27385 0)
(13.436 -2.14642 0)
(13.1164 -2.15492 0)
(13.2086 -2.13349 0)
(12.9781 -2.10474 0)
(13.0305 -2.10812 0)
(12.8911 -2.03899 0)
(12.9262 -1.95073 0)
(12.8791 -1.8442 0)
(12.8602 -1.59806 0)
(12.8985 -1.46039 0)
(12.9143 -1.10114 0)
(12.9682 -0.858733 0)
(13.0006 -0.419573 0)
(13.1172 -0.065771 0)
(13.0325 0.399562 0)
(13.2242 0.872846 0)
(13.0755 1.31964 0)
(13.2011 1.82811 0)
(13.1445 2.2721 0)
(13.2501 2.77212 0)
(13.0576 3.13248 0)
(13.1249 3.62501 0)
(13.106 3.94667 0)
(12.8223 4.18175 0)
(12.8722 4.54292 0)
(12.3882 4.61427 0)
(12.2563 4.83993 0)
(11.6967 4.67427 0)
(11.5101 4.83264 0)
(11.0167 4.56836 0)
(10.6947 4.50891 0)
(10.4792 4.33808 0)
(10.0146 4.08747 0)
(10.2948 3.98753 0)
(9.84179 3.60067 0)
(9.91173 3.34056 0)
(9.91097 3.03844 0)
(9.45587 2.64264 0)
(9.70955 2.49635 0)
(9.2607 1.86363 0)
(9.32781 1.8847 0)
(9.07439 1.2464 0)
(8.81917 1.13804 0)
(8.89333 0.99674 0)
(8.20333 0.516958 0)
(8.41097 0.757728 0)
(8.02676 0.468413 0)
(8.1797 0.843382 0)
(8.02137 0.996874 0)
(7.69486 1.058 0)
(8.17474 2.06116 0)
(7.30144 1.81827 0)
(8.30272 3.56946 0)
(7.55363 3.46097 0)
(7.3312 4.67106 0)
(9.53567 5.54758 0)
(5.87932 7.80294 0)
(11.461 4.62832 0)
(9.55497 12.681 0)
(10.3131 -0.0501519 0)
(10.3017 0.0175272 0)
(10.2261 0.0420899 0)
(10.1807 0.0181743 0)
(10.1793 -0.0339239 0)
(10.2006 -0.070658 0)
(10.2106 -0.099083 0)
(10.2543 -0.123859 0)
(10.2351 -0.137696 0)
(10.2878 -0.142752 0)
(10.254 -0.119809 0)
(10.2987 -0.105025 0)
(10.2805 -0.080535 0)
(10.3282 -0.0570157 0)
(10.2957 -0.0470044 0)
(10.3354 -0.0374153 0)
(10.3013 -0.047132 0)
(10.3095 -0.05372 0)
(10.3153 -0.0580108 0)
(10.2915 -0.0774662 0)
(10.3379 -0.065568 0)
(10.325 -0.076111 0)
(10.3643 -0.064065 0)
(10.3836 -0.0664736 0)
(10.4133 -0.0729566 0)
(10.4116 -0.0644132 0)
(10.4541 -0.0874331 0)
(10.4039 -0.0802546 0)
(10.452 -0.096302 0)
(10.3944 -0.0865245 0)
(10.4138 -0.0834353 0)
(10.383 -0.0699531 0)
(10.3905 -0.0588515 0)
(10.3711 -0.0402493 0)
(10.3945 -0.0306596 0)
(10.3812 -0.0177806 0)
(10.3988 -0.0118266 0)
(10.4178 -0.00641629 0)
(10.4069 -0.000287919 0)
(10.4331 0.00672946 0)
(10.4282 -0.000255593 0)
(10.4396 0.00469388 0)
(10.4393 -0.000801613 0)
(10.4607 -0.0219604 0)
(10.4418 -0.0195483 0)
(10.4754 -0.0523989 0)
(10.4657 -0.0582988 0)
(10.4605 -0.0685305 0)
(10.4889 -0.0902576 0)
(10.444 -0.0865132 0)
(10.4844 -0.0903501 0)
(10.4431 -0.105935 0)
(10.4567 -0.0834564 0)
(10.4491 -0.09776 0)
(10.4381 -0.0885816 0)
(10.4584 -0.0663642 0)
(10.4323 -0.0725551 0)
(10.4686 -0.0469481 0)
(10.4324 -0.0255315 0)
(10.4561 -0.0218219 0)
(10.4615 0.00522088 0)
(10.4333 0.00943842 0)
(10.5052 -0.0047002 0)
(10.4583 -0.0015141 0)
(10.5227 -0.0198409 0)
(10.5362 -0.0355201 0)
(10.5513 -0.0488079 0)
(10.6091 -0.0525896 0)
(10.6211 -0.0792573 0)
(10.6756 -0.0705379 0)
(10.7222 -0.0730989 0)
(10.7724 -0.08261 0)
(10.8171 -0.0616107 0)
(10.8846 -0.0677138 0)
(10.9591 -0.0800878 0)
(11.0807 -0.0806937 0)
(11.1372 -0.0934372 0)
(11.3201 -0.144683 0)
(11.4239 -0.175529 0)
(11.5732 -0.277002 0)
(11.7054 -0.356978 0)
(11.7954 -0.444585 0)
(11.9099 -0.577929 0)
(11.9458 -0.632437 0)
(12.0163 -0.737514 0)
(12.0363 -0.820477 0)
(12.0253 -0.854656 0)
(12.0554 -0.938813 0)
(12.0773 -0.972353 0)
(12.0352 -0.979093 0)
(12.1178 -1.02724 0)
(12.0777 -1.02882 0)
(12.1077 -1.06973 0)
(12.0957 -1.07369 0)
(12.1135 -1.09654 0)
(12.0786 -1.13977 0)
(12.1077 -1.16772 0)
(12.062 -1.21438 0)
(12.1521 -1.27025 0)
(12.108 -1.33064 0)
(12.1663 -1.41892 0)
(12.2398 -1.47321 0)
(12.234 -1.5792 0)
(12.3011 -1.72464 0)
(12.3488 -1.79592 0)
(12.3514 -1.95958 0)
(12.4003 -2.08351 0)
(12.3747 -2.20484 0)
(12.3229 -2.32754 0)
(12.3819 -2.43837 0)
(12.2668 -2.52861 0)
(12.2191 -2.59741 0)
(12.2092 -2.66224 0)
(12.0851 -2.69314 0)
(12.0517 -2.7434 0)
(12.0197 -2.78848 0)
(11.9527 -2.80146 0)
(11.9294 -2.8341 0)
(11.9676 -2.88099 0)
(11.9888 -2.93218 0)
(12.0473 -2.98243 0)
(12.15 -3.0556 0)
(12.2764 -3.17057 0)
(12.3372 -3.18704 0)
(12.5121 -3.26501 0)
(12.6732 -3.34605 0)
(12.738 -3.34389 0)
(12.9215 -3.39179 0)
(13.0346 -3.3878 0)
(13.1046 -3.32539 0)
(13.253 -3.27196 0)
(13.2268 -3.19049 0)
(13.3216 -3.0769 0)
(13.1556 -2.91172 0)
(13.3095 -2.80656 0)
(12.9798 -2.69123 0)
(13.0272 -2.4843 0)
(12.7343 -2.39374 0)
(12.6141 -2.29103 0)
(12.3697 -2.12072 0)
(12.1188 -2.11643 0)
(11.9016 -2.01341 0)
(11.6857 -2.05916 0)
(11.4407 -2.0191 0)
(11.4121 -2.00715 0)
(11.1845 -2.04441 0)
(11.1296 -1.89531 0)
(11.1256 -1.88583 0)
(10.9662 -1.74443 0)
(11.133 -1.5266 0)
(10.9687 -1.39895 0)
(11.2549 -1.10067 0)
(11.1603 -0.813288 0)
(11.4089 -0.44424 0)
(11.4419 -0.0758094 0)
(11.6111 0.399378 0)
(11.6058 0.848722 0)
(11.7038 1.39986 0)
(11.7443 1.83931 0)
(11.7867 2.3174 0)
(11.8209 2.75882 0)
(11.941 3.17758 0)
(11.9174 3.55531 0)
(12.1465 3.97689 0)
(12.0274 4.27935 0)
(12.2575 4.58298 0)
(11.9846 4.86127 0)
(11.9211 4.97673 0)
(11.6266 5.15429 0)
(11.1927 5.02261 0)
(10.9676 4.99377 0)
(10.4405 4.74626 0)
(10.2479 4.62763 0)
(9.89267 4.16659 0)
(9.58557 4.01122 0)
(9.57503 3.73485 0)
(9.15016 3.31893 0)
(9.20362 3.12927 0)
(9.07301 2.71726 0)
(8.91948 2.43505 0)
(8.81628 2.11677 0)
(8.56743 1.72527 0)
(8.65212 1.50242 0)
(8.38141 1.26774 0)
(8.04426 0.870181 0)
(8.341 1.31751 0)
(7.63562 0.138652 0)
(8.40289 1.14032 0)
(7.6974 0.348021 0)
(8.63121 1.6483 0)
(7.47743 0.863665 0)
(8.31411 2.09137 0)
(8.25564 2.11858 0)
(7.47151 3.11177 0)
(10.2133 3.25909 0)
(6.57359 5.47045 0)
(12.038 2.65783 0)
(7.96018 8.99882 0)
(11.9428 2.88546 0)
(10.4329 10.9454 0)
(11.8602 -0.0294579 0)
(11.8378 -0.0332313 0)
(11.7571 -0.046411 0)
(11.7105 -0.0616733 0)
(11.7068 -0.106286 0)
(11.7622 -0.114351 0)
(11.7774 -0.123552 0)
(11.8341 -0.132565 0)
(11.808 -0.120243 0)
(11.8623 -0.137598 0)
(11.8198 -0.1247 0)
(11.8613 -0.11663 0)
(11.8232 -0.0996315 0)
(11.8668 -0.0767903 0)
(11.8337 -0.0562011 0)
(11.8498 -0.0552686 0)
(11.8365 -0.0470594 0)
(11.8088 -0.0541067 0)
(11.8162 -0.0684871 0)
(11.7731 -0.0723235 0)
(11.7933 -0.0888972 0)
(11.7857 -0.0914244 0)
(11.7964 -0.082198 0)
(11.8266 -0.0952984 0)
(11.8512 -0.0868348 0)
(11.8655 -0.0747013 0)
(11.9083 -0.0977641 0)
(11.8798 -0.074331 0)
(11.9173 -0.0921661 0)
(11.8731 -0.0908569 0)
(11.873 -0.065027 0)
(11.8381 -0.0840205 0)
(11.8324 -0.0571115 0)
(11.8051 -0.0491967 0)
(11.8155 -0.0498406 0)
(11.8029 -0.033176 0)
(11.815 -0.0284868 0)
(11.8315 -0.0287023 0)
(11.8362 -0.00812798 0)
(11.8514 -0.00692249 0)
(11.8661 -0.0135508 0)
(11.8757 0.00312845 0)
(11.8772 -0.015645 0)
(11.9014 -0.0310241 0)
(11.8743 -0.0241962 0)
(11.9041 -0.0626065 0)
(11.8936 -0.0689218 0)
(11.8686 -0.0576079 0)
(11.9054 -0.112674 0)
(11.8429 -0.0713699 0)
(11.8792 -0.104517 0)
(11.8488 -0.106815 0)
(11.8365 -0.0888609 0)
(11.8648 -0.097047 0)
(11.8252 -0.0942289 0)
(11.8851 -0.0607514 0)
(11.8365 -0.0614639 0)
(11.8928 -0.056791 0)
(11.8593 -0.0142525 0)
(11.8643 -0.0395847 0)
(11.8755 -0.0219649 0)
(11.8377 -0.00122927 0)
(11.8744 -0.0467564 0)
(11.8654 -0.0143188 0)
(11.8967 -0.0336428 0)
(11.9357 -0.0615902 0)
(11.9734 -0.0434841 0)
(12.0122 -0.0750767 0)
(12.0474 -0.0926376 0)
(12.0896 -0.0892097 0)
(12.1264 -0.106789 0)
(12.1376 -0.132997 0)
(12.1968 -0.123851 0)
(12.1961 -0.132051 0)
(12.2514 -0.164611 0)
(12.3406 -0.159741 0)
(12.3505 -0.174501 0)
(12.4812 -0.249298 0)
(12.5416 -0.246217 0)
(12.6572 -0.357999 0)
(12.7224 -0.436442 0)
(12.8036 -0.501151 0)
(12.8531 -0.615308 0)
(12.8561 -0.680435 0)
(12.8601 -0.73856 0)
(12.8538 -0.826131 0)
(12.7463 -0.845713 0)
(12.766 -0.909476 0)
(12.6766 -0.940871 0)
(12.6417 -0.970936 0)
(12.6122 -1.00066 0)
(12.5882 -1.02695 0)
(12.5469 -1.0556 0)
(12.5428 -1.05573 0)
(12.4884 -1.11757 0)
(12.4779 -1.13287 0)
(12.4345 -1.16442 0)
(12.4276 -1.22806 0)
(12.4223 -1.27213 0)
(12.3855 -1.3304 0)
(12.4407 -1.41333 0)
(12.3844 -1.48552 0)
(12.3973 -1.59608 0)
(12.3782 -1.7087 0)
(12.3626 -1.8132 0)
(12.2831 -1.9525 0)
(12.2587 -2.08388 0)
(12.1782 -2.18454 0)
(12.0982 -2.305 0)
(12.0514 -2.40909 0)
(11.9592 -2.47616 0)
(11.9255 -2.54855 0)
(11.8815 -2.59292 0)
(11.8362 -2.65907 0)
(11.8147 -2.7062 0)
(11.8255 -2.71378 0)
(11.8422 -2.83325 0)
(11.9064 -2.82991 0)
(11.9348 -2.92414 0)
(12.0293 -3.02162 0)
(12.1125 -3.07388 0)
(12.1668 -3.19158 0)
(12.2937 -3.2354 0)
(12.3181 -3.31054 0)
(12.4248 -3.38479 0)
(12.4302 -3.43862 0)
(12.4903 -3.47516 0)
(12.5342 -3.47949 0)
(12.5211 -3.42648 0)
(12.5503 -3.42694 0)
(12.4406 -3.25689 0)
(12.3916 -3.17636 0)
(12.2536 -3.01711 0)
(12.0937 -2.84481 0)
(11.9511 -2.68384 0)
(11.6052 -2.51133 0)
(11.5382 -2.35638 0)
(11.0639 -2.16244 0)
(10.9672 -2.0513 0)
(10.4491 -1.92837 0)
(10.2603 -1.8562 0)
(9.81232 -1.85558 0)
(9.66919 -1.81021 0)
(9.25634 -1.86231 0)
(9.31865 -1.82287 0)
(8.86257 -1.88465 0)
(9.08348 -1.79858 0)