/*--------------------------------*- C++ -*----------------------------------*\
| =========                 |                                                 |
| \\      /  F ield         | OpenFOAM: The Open Source CFD Toolbox           |
|  \\    /   O peration     | Version:  2.4.0                                 |
|   \\  /    A nd           | Web:      www.OpenFOAM.org                      |
|    \\/     M anipulation  |                                                 |
\*---------------------------------------------------------------------------*/
FoamFile
{
    version     2.0;
    format      ascii;
    class       volScalarField;
    location    "1.08";
    object      nuSgs;
}
// * * * * * * * * * * * * * * * * * * * * * * * * * * * * * * * * * * * * * //

dimensions      [0 2 -1 0 0 0 0];

internalField   nonuniform List<scalar> 
8800
(
0.0013443
0.001502
0.00140412
0.00121027
0.00114676
0.00101922
0.00102329
0.000936442
0.000956711
0.000876331
0.000917212
0.000841258
0.000886027
0.000810212
0.0008684
0.000780691
0.000853429
0.000751883
0.000859801
0.000728726
0.000576059
0.000967873
0.00109692
0.00106953
0.0010755
0.00101585
0.00102243
0.000961316
0.000973168
0.000913852
0.000935125
0.000879679
0.000904951
0.000851822
0.000886429
0.000827032
0.000871151
0.000808834
0.000858773
0.000824944
0.000142677
0.000371525
0.00061376
0.000644995
0.000727608
0.000730082
0.000765451
0.00074814
0.000776135
0.000748307
0.000768276
0.000742745
0.000763599
0.00073382
0.000753975
0.00072785
0.000744986
0.000723709
0.000732786
0.000732297
3.08963e-05
0.000118819
0.000261986
0.000299965
0.000378534
0.000399134
0.000449677
0.000458174
0.000495872
0.000496567
0.000513177
0.000517063
0.000541808
0.000541477
0.000548537
0.000562472
0.000561771
0.000572563
0.00056443
0.000585165
9.87253e-06
3.64819e-05
9.27236e-05
0.000112903
0.000148953
0.000179732
0.000195409
0.00022414
0.00024906
0.000266879
0.000270615
0.000287087
0.000299009
0.000323819
0.000326767
0.000354444
0.000352994
0.000370903
0.000366425
0.000385815
2.8639e-06
8.67619e-06
2.96794e-05
3.57544e-05
4.67375e-05
6.3514e-05
7.22291e-05
8.99626e-05
0.000104095
0.000120397
0.000122511
0.000131389
0.00013957
0.000156703
0.000161853
0.000183375
0.000185837
0.000194369
0.00019429
0.000204042
4.08968e-06
7.6369e-06
2.22407e-05
2.53554e-05
3.59138e-05
3.93037e-05
4.75997e-05
5.00412e-05
5.72362e-05
6.28622e-05
6.36682e-05
6.51359e-05
7.09342e-05
7.9087e-05
8.15409e-05
9.09777e-05
9.33617e-05
9.92786e-05
9.98672e-05
0.000106052
4.35194e-06
7.60363e-06
1.63412e-05
1.76877e-05
2.15461e-05
2.25482e-05
2.21503e-05
2.36548e-05
2.93844e-05
3.34111e-05
3.25541e-05
3.2562e-05
3.29464e-05
3.51371e-05
3.57035e-05
4.12981e-05
4.48049e-05
5.05171e-05
5.06866e-05
5.32547e-05
2.63006e-06
4.59215e-06
7.22624e-06
7.54907e-06
8.47834e-06
1.13652e-05
1.14262e-05
1.16302e-05
1.29437e-05
1.69643e-05
1.70083e-05
1.7234e-05
1.7743e-05
1.80966e-05
1.81136e-05
2.01705e-05
2.32269e-05
2.56415e-05
2.57573e-05
2.60546e-05
2.30394e-06
3.00468e-06
3.35559e-06
4.12482e-06
6.48204e-06
9.3282e-06
8.65313e-06
9.25405e-06
1.00661e-05
1.30032e-05
1.46345e-05
1.49041e-05
1.48318e-05
1.48314e-05
1.51001e-05
1.57491e-05
1.73099e-05
1.90495e-05
1.92928e-05
1.92787e-05
2.31237e-06
2.65923e-06
2.99988e-06
4.84848e-06
7.59006e-06
7.20339e-06
7.67516e-06
8.19996e-06
1.25268e-05
1.63562e-05
1.61833e-05
1.51849e-05
1.46982e-05
1.43706e-05
1.43608e-05
1.5258e-05
1.70862e-05
1.75004e-05
1.73421e-05
1.73091e-05
2.16321e-06
2.69715e-06
4.03948e-06
5.76477e-06
5.61231e-06
5.46389e-06
5.77007e-06
1.07786e-05
1.46515e-05
1.41953e-05
1.25824e-05
1.16078e-05
1.14772e-05
1.18993e-05
1.42515e-05
1.58889e-05
1.60222e-05
1.57601e-05
1.51162e-05
1.50241e-05
2.1316e-06
2.70107e-06
4.51517e-06
4.4946e-06
4.42835e-06
4.77956e-06
6.00693e-06
1.26357e-05
1.34527e-05
1.26336e-05
1.18625e-05
1.28498e-05
1.38579e-05
1.57187e-05
2.01052e-05
2.17336e-05
2.21611e-05
2.32629e-05
2.3729e-05
2.4753e-05
2.15293e-06
3.12521e-06
6.70335e-06
7.05204e-06
9.64622e-06
1.62655e-05
1.89488e-05
2.85545e-05
3.18943e-05
3.242e-05
3.36552e-05
3.98411e-05
4.26387e-05
4.7218e-05
5.78064e-05
6.29252e-05
6.46526e-05
6.95591e-05
7.22445e-05
7.93771e-05
2.35033e-06
8.00876e-06
2.19723e-05
2.61517e-05
3.87038e-05
5.93986e-05
6.51094e-05
8.60984e-05
9.55566e-05
9.91569e-05
0.000105817
0.000122894
0.000128104
0.000137387
0.000153077
0.00016288
0.000166544
0.000177858
0.000184331
0.000202656
5.34481e-06
3.23126e-05
7.91032e-05
9.75387e-05
0.000136321
0.000176308
0.000187796
0.000223276
0.000240103
0.000247084
0.000262494
0.00028679
0.000293327
0.000307121
0.000323444
0.000336231
0.000340676
0.000356118
0.000364968
0.000387841
2.76281e-05
0.000123126
0.000244343
0.000286125
0.00036246
0.000404961
0.00042191
0.000463509
0.000480092
0.00048692
0.000504941
0.00052196
0.000526788
0.00053528
0.000545387
0.000550742
0.000552646
0.0005625
0.000568098
0.000579419
0.000137423
0.000401028
0.000586219
0.00064529
0.000717189
0.000734553
0.000754022
0.000761197
0.000762016
0.000756255
0.000755095
0.000750809
0.000746664
0.000736582
0.000735652
0.000729469
0.000726103
0.00072321
0.0007222
0.000718108
0.000558358
0.000979029
0.00108089
0.00108015
0.00106622
0.00102817
0.00101212
0.000967755
0.000954337
0.000926324
0.000911568
0.0008885
0.000881113
0.000861288
0.000855281
0.000838989
0.000835364
0.000819084
0.000814019
0.000800281
0.00133798
0.0015044
0.00139085
0.00123184
0.00112218
0.00104391
0.00100652
0.000948616
0.000931893
0.00089651
0.000885971
0.000859486
0.000853172
0.000833774
0.000826156
0.000803469
0.000800501
0.000775831
0.000765988
0.000733946
0.000315887
0.000273585
0.000257529
0.000229323
0.000222015
0.000205887
0.000203726
0.00019652
0.000196908
0.000194191
0.000196271
0.000194192
0.000196244
0.000193834
0.000195648
0.000192787
0.000193648
0.000189764
0.000189813
0.00018542
0.000185063
0.000180383
0.000179978
0.000175406
0.000175267
0.000171418
0.000171857
0.000169534
0.000170936
0.000170786
0.000171916
0.000175457
0.000176748
0.000181526
0.000181785
0.000187068
0.000186516
0.00019199
0.000190776
0.000196187
0.000194087
0.000198441
0.000194878
0.000196138
0.000189382
0.000180987
0.000156344
0.00013994
0.000124403
0.000122361
0.000119209
0.000118067
0.000115676
0.000114198
0.000110666
0.000106346
0.000100346
9.52019e-05
9.0462e-05
8.711e-05
8.66108e-05
8.70698e-05
8.89096e-05
9.31188e-05
9.95391e-05
0.000104414
0.000108175
0.000110573
0.000111842
0.000112959
0.000112621
0.000110982
0.000105404
0.000102169
9.82861e-05
9.2053e-05
8.7502e-05
8.69323e-05
8.70194e-05
8.76478e-05
8.82403e-05
9.07432e-05
9.12806e-05
9.04243e-05
8.78574e-05
8.45602e-05
8.30623e-05
8.11998e-05
7.93385e-05
7.84645e-05
7.6954e-05
7.29836e-05
6.93292e-05
6.7379e-05
6.71923e-05
6.88198e-05
7.3464e-05
7.55388e-05
7.5864e-05
7.53862e-05
7.3794e-05
6.85145e-05
6.09895e-05
5.74135e-05
5.73325e-05
5.83377e-05
6.12262e-05
6.79844e-05
7.91485e-05
9.13795e-05
0.000121264
0.000144063
0.000146648
0.000146596
0.000142094
0.000143501
0.00013855
0.000131106
0.000121305
0.000106853
9.40962e-05
8.39966e-05
7.72224e-05
7.49163e-05
7.35343e-05
7.36702e-05
7.39249e-05
7.34799e-05
7.31189e-05
7.25132e-05
7.03937e-05
6.83328e-05
6.47719e-05
6.20755e-05
6.1012e-05
6.02075e-05
6.01793e-05
6.11605e-05
6.11827e-05
5.98335e-05
5.87002e-05
5.93348e-05
6.27287e-05
7.5192e-05
0.00010858
0.000143954
0.000152049
0.000150002
0.000144113
0.000129727
0.000114853
0.000103061
9.86301e-05
9.67008e-05
9.64494e-05
9.66161e-05
9.66459e-05
9.68062e-05
9.75416e-05
0.000101177
0.000104611
0.000105417
0.000104698
0.000102751
9.84707e-05
9.69592e-05
9.73911e-05
9.92425e-05
0.00010105
0.00010741
0.000111492
0.00011184
0.000109329
0.000103666
8.98188e-05
8.25503e-05
8.55395e-05
0.000114069
0.0001377
0.000140822
0.000138534
0.000132118
0.000120039
0.000108245
8.68739e-05
7.09876e-05
6.95305e-05
6.83993e-05
6.88353e-05
6.56477e-05
6.33437e-05
6.57158e-05
7.2483e-05
7.32865e-05
6.91423e-05
6.75135e-05
7.14515e-05
9.69203e-05
0.000115576
0.000119741
0.000404779
0.000364918
0.000336967
0.000312786
0.000294621
0.000280529
0.000268215
0.000260232
0.000251026
0.000246821
0.000239321
0.000236991
0.000231445
0.000229965
0.000225424
0.000224553
0.000220822
0.000220465
0.000217151
0.000217243
0.000214368
0.000214535
0.000211252
0.000211203
0.000206886
0.000206835
0.000202403
0.000202533
0.00019819
0.000199089
0.000195032
0.000196451
0.000193343
0.000194927
0.000192145
0.000193621
0.000191043
0.000191976
0.000189018
0.000189899
0.000187224
0.000188805
0.000187674
0.000191709
0.000191693
0.000194204
0.000192304
0.000190376
0.000181533
0.000173354
0.000163237
0.00015247
0.000140353
0.000131119
0.000121289
0.000113618
0.000109951
0.000108137
0.000107879
0.00010829
0.000109622
0.000114053
0.000115343
0.000116384
0.000116652
0.000116684
0.000116511
0.00011682
0.000116728
0.000116638
0.000116091
0.000113879
0.000106717
0.000100471
9.47499e-05
8.78739e-05
7.89288e-05
7.41671e-05
7.37474e-05
7.49737e-05
7.65765e-05
7.79828e-05
8.06433e-05
8.3869e-05
8.44704e-05
8.40232e-05
8.28419e-05
8.1872e-05
8.13614e-05
8.08735e-05
7.85736e-05
7.50342e-05
7.32961e-05
7.30125e-05
7.34411e-05
7.55352e-05
7.63005e-05
7.63645e-05
7.62458e-05
7.44555e-05
7.01245e-05
6.57407e-05
5.80401e-05
5.20953e-05
5.04103e-05
5.05227e-05
5.25848e-05
5.92281e-05
7.15244e-05
8.11799e-05
9.91357e-05
0.000130517
0.000142387
0.00014258
0.000139807
0.000135782
0.000133219
0.000124216
0.000113757
0.000104118
9.37815e-05
8.54368e-05
8.08527e-05
7.77937e-05
7.66286e-05
7.66957e-05
7.64861e-05
7.4835e-05
7.42622e-05
7.27674e-05
7.05219e-05
6.79378e-05
6.40408e-05
6.1926e-05
6.14781e-05
6.10494e-05
6.14841e-05
6.17932e-05
6.14522e-05
5.96267e-05
5.93386e-05
6.06845e-05
6.86396e-05
9.51987e-05
0.000143739
0.000157978
0.00015663
0.000149728
0.000129891
0.000108809
9.95752e-05
9.42907e-05
9.37045e-05
9.37891e-05
9.50458e-05
9.61451e-05
9.60933e-05
9.47317e-05
9.44045e-05
9.47955e-05
9.62126e-05
0.000100899
0.000103115
0.000102656
0.000100769
9.79908e-05
9.76677e-05
9.8621e-05
0.00010149
0.000109759
0.000113015
0.000112666
0.00011015
0.000104964
9.02526e-05
7.92259e-05
8.26407e-05
0.000103989
0.000129215
0.000136456
0.000134115
0.000127452
0.000111824
9.40536e-05
8.0449e-05
6.88174e-05
6.90581e-05
6.77154e-05
6.73981e-05
6.50415e-05
6.34251e-05
6.43436e-05
7.0144e-05
7.13492e-05
7.17096e-05
7.75565e-05
8.74831e-05
9.25798e-05
0.000111633
0.00011505
0.00038094
0.000360033
0.000333592
0.000320336
0.000298699
0.000290698
0.00027384
0.000268347
0.000255947
0.000252139
0.000242585
0.000239957
0.00023233
0.000230598
0.000224446
0.00022336
0.000218336
0.000217935
0.000213975
0.000214221
0.000211312
0.000212017
0.000209462
0.0002104
0.000207689
0.00020852
0.00020582
0.000206123
0.000203338
0.000203251
0.000200403
0.000199803
0.000196752
0.000195968
0.000192424
0.00019103
0.000186769
0.000185268
0.000180272
0.000178344
0.000173446
0.000172497
0.000168901
0.000169162
0.000169048
0.000170289
0.000170701
0.000174452
0.000174639
0.000173506
0.000171704
0.000167902
0.000163843
0.000160533
0.000155238
0.000150108
0.000144996
0.0001417
0.00013774
0.000133142
0.000128145
0.000126125
0.000122942
0.000119771
0.000116707
0.000114983
0.000111593
0.000108446
0.00010372
0.000100272
9.77369e-05
9.44291e-05
8.74702e-05
7.90452e-05
7.10941e-05
6.70307e-05
6.35604e-05
6.04769e-05
5.97124e-05
6.04451e-05
6.39587e-05
6.56498e-05
6.75721e-05
6.92475e-05
7.21851e-05
7.6614e-05
7.8623e-05
7.93009e-05
7.959e-05
7.95828e-05
7.94781e-05
7.85823e-05
7.76177e-05
7.73411e-05
7.72164e-05
7.71133e-05
7.68622e-05
7.63805e-05
7.37656e-05
6.92898e-05
6.17291e-05
5.62872e-05
5.28007e-05
4.93047e-05
4.87963e-05
4.92832e-05
5.04704e-05
5.28047e-05
6.24872e-05
7.16907e-05
8.36814e-05
0.00011013
0.000133841
0.000138121
0.0001366
0.000131258
0.000125752
0.000121334
0.00011128
0.000102751
9.51385e-05
8.87084e-05
8.47051e-05
8.14865e-05
7.95208e-05
7.88443e-05
7.68857e-05
7.52586e-05
7.45696e-05
7.25468e-05
7.06239e-05
6.66761e-05
6.32248e-05
6.24984e-05
6.21469e-05
6.23666e-05
6.24144e-05
6.19205e-05
6.15316e-05
5.95012e-05
5.93725e-05
6.23329e-05
8.1913e-05
0.000131634
0.000161195
0.000164792
0.000157926
0.000135238
0.000107375
9.80076e-05
9.30378e-05
9.1463e-05
9.20716e-05
9.28447e-05
9.60605e-05
9.7919e-05
9.83565e-05
9.67428e-05
9.42176e-05
9.36515e-05
9.40601e-05
9.55505e-05
9.95929e-05
0.000101087
0.000100934
9.8672e-05
9.85505e-05
9.92942e-05
0.00010137
0.000108916
0.000114187
0.000113385
0.000111942
0.00010672
9.23767e-05
8.07747e-05
8.13161e-05
0.000102765
0.000117452
0.000128733
0.0001268
0.000116166
0.000107555
8.7934e-05
7.91964e-05
6.88216e-05
6.83105e-05
6.74961e-05
6.68644e-05
6.53933e-05
6.38679e-05
6.36009e-05
6.56927e-05
6.85554e-05
7.00055e-05
7.52489e-05
9.59748e-05
0.000104378
0.000117734
0.000115187
0.000309377
0.000301026
0.00028355
0.000276701
0.000261883
0.000256151
0.000243544
0.00023889
0.000228385
0.000224605
0.000215814
0.000212777
0.000205465
0.00020309
0.000197158
0.00019534
0.000190559
0.000189321
0.000185606
0.000184798
0.000182125
0.000181832
0.000180228
0.000180826
0.000180145
0.000180802
0.000180564
0.000180979
0.000180137
0.000180154
0.000179169
0.000178166
0.000175005
0.000173347
0.000168981
0.000166377
0.000160387
0.000157762
0.000152202
0.000148083
0.000142418
0.00014054
0.000135572
0.000132915
0.000131174
0.000130661
0.000130499
0.000131299
0.000134808
0.000136339
0.000136816
0.000139005
0.000139178
0.000138526
0.000136895
0.000135168
0.000131422
0.000127219
0.00012324
0.000117857
0.000111371
0.000105775
0.000100785
9.34173e-05
8.69e-05
8.0868e-05
7.42755e-05
6.90754e-05
6.45098e-05
6.09204e-05
5.86199e-05
5.65388e-05
5.34782e-05
5.12686e-05
5.02116e-05
4.9643e-05
4.98056e-05
4.9633e-05
4.9608e-05
5.01216e-05
5.29439e-05
5.56692e-05
5.67056e-05
5.79273e-05
5.94118e-05
6.09583e-05
6.47311e-05
6.91902e-05
7.3202e-05
7.58227e-05
7.65914e-05
7.7051e-05
7.71211e-05
7.70509e-05
7.68509e-05
7.64459e-05
7.52213e-05
7.23533e-05
6.75255e-05
5.81499e-05
5.0784e-05
4.66367e-05
4.56705e-05
4.62493e-05
4.78567e-05
5.0529e-05
5.12579e-05
5.19838e-05
5.45763e-05
6.34831e-05
7.28223e-05
8.99782e-05
0.000117215
0.000130741
0.000131466
0.00012924
0.000120218
0.000115887
0.000109293
0.000101742
9.61136e-05
9.07933e-05
8.70489e-05
8.3636e-05
8.10572e-05
7.96272e-05
7.62016e-05
7.51598e-05
7.37317e-05
7.09894e-05
6.83235e-05
6.48083e-05
6.31341e-05
6.33171e-05
6.35403e-05
6.35586e-05
6.29015e-05
6.13676e-05
6.07632e-05
5.81563e-05
5.86715e-05
6.7415e-05
0.00010895
0.000157119
0.000172518
0.000167986
0.000145657
0.000111756
9.67838e-05
9.33484e-05
8.99719e-05
9.068e-05
9.13794e-05
9.27013e-05
9.59314e-05
9.76928e-05
9.83742e-05
9.74469e-05
9.55658e-05
9.41789e-05
9.45932e-05
9.55521e-05
9.96831e-05
0.000100873
0.000100857
9.93347e-05
9.91967e-05
0.00010009
0.000102215
0.000109005
0.000115295
0.000115264
0.000111975
0.000101954
9.35257e-05
8.41773e-05
8.21736e-05
9.23823e-05
0.000110324
0.000118278
0.000121331
0.00011092
0.000105464
8.78201e-05
8.08031e-05
7.034e-05
6.87094e-05
6.74283e-05
6.65438e-05
6.55699e-05
6.46954e-05
6.24885e-05
6.25507e-05
6.32863e-05
6.48219e-05
6.75378e-05
7.99468e-05
0.000100448
0.000117005
0.000117957
0.000207126
0.000203966
0.000196829
0.000193671
0.000186675
0.000183627
0.000176976
0.000174091
0.000167922
0.000165227
0.000159401
0.000156949
0.000151628
0.000149422
0.000144989
0.000143097
0.000139354
0.000138128
0.000135391
0.000134317
0.00013268
0.000132023
0.000130442
0.000130396
0.000130086
0.000129478
0.000129333
0.000129397
0.000128849
0.000128449
0.000127457
0.000126606
0.00012384
0.000121866
0.000119328
0.000115624
0.000109632
0.00010691
0.000102941
9.74439e-05
9.29345e-05
9.1408e-05
8.80335e-05
8.47291e-05
8.40867e-05
8.34997e-05
8.31544e-05
8.34427e-05
8.49652e-05
8.58253e-05
8.6107e-05
8.73542e-05
8.76745e-05
8.72608e-05
8.64327e-05
8.52525e-05
8.2872e-05
7.97315e-05
7.63273e-05
7.24947e-05
6.84433e-05
6.467e-05
6.1437e-05
5.83407e-05
5.57753e-05
5.38278e-05
5.20338e-05
5.01647e-05
4.84778e-05
4.67959e-05
4.54413e-05
4.41728e-05
4.31158e-05
4.27193e-05
4.27523e-05
4.31414e-05
4.34862e-05
4.38082e-05
4.46524e-05
4.68513e-05
4.84176e-05
5.02484e-05
5.17659e-05
5.24887e-05
5.38607e-05
5.48294e-05
5.60181e-05
5.73388e-05
5.92021e-05
6.45415e-05
6.94061e-05
7.20561e-05
7.33507e-05
7.33543e-05
7.30234e-05
7.20168e-05
6.93797e-05
6.18719e-05
5.28116e-05
4.68549e-05
4.40901e-05
4.33577e-05
4.35911e-05
4.50606e-05
4.85227e-05
5.33789e-05
5.5778e-05
5.47034e-05
5.34385e-05
5.42031e-05
5.86161e-05
7.01288e-05
9.50584e-05
0.000119596
0.00012538
0.000124947
0.000119914
0.000112109
0.000106172
9.97052e-05
9.51869e-05
9.04194e-05
8.71517e-05
8.32949e-05
8.14652e-05
7.88416e-05
7.48356e-05
7.36779e-05
7.05305e-05
6.8274e-05
6.62677e-05
6.42313e-05
6.41972e-05
6.45548e-05
6.47341e-05
6.41483e-05
6.1376e-05
6.05338e-05
5.80966e-05
5.60102e-05
5.86265e-05
7.91146e-05
0.000138326
0.000175627
0.000180458
0.000165654
0.000126707
0.000100295
9.29356e-05
8.95504e-05
8.88008e-05
9.0977e-05
9.14653e-05
9.53898e-05
9.5757e-05
9.69797e-05
9.73646e-05
9.64022e-05
9.63418e-05
9.56878e-05
9.61488e-05
9.65606e-05
9.84162e-05
0.000100526
0.000100561
0.000100612
0.000100836
0.000102349
0.000103461
0.00010984
0.000116651
0.000115905
0.000110592
0.000107038
9.57091e-05
8.58938e-05
8.50837e-05
9.64484e-05
0.000113425
0.000115092
0.000120173
0.00011056
0.000105991
8.88636e-05
8.31819e-05
7.20762e-05
6.94913e-05
6.71478e-05
6.56801e-05
6.4636e-05
6.4769e-05
6.38309e-05
6.14085e-05
6.07835e-05
6.1258e-05
6.414e-05
7.10323e-05
8.64152e-05
9.51706e-05
0.000111226
0.000110849
0.000109902
0.000107707
0.000106612
0.000104348
0.000103394
0.000101414
0.000100426
9.85469e-05
9.72509e-05
9.51289e-05
9.39066e-05
9.15768e-05
8.98e-05
8.8573e-05
8.66275e-05
8.49507e-05
8.43579e-05
8.30875e-05
8.18246e-05
8.14501e-05
8.10186e-05
8.01493e-05
8.00608e-05
7.99717e-05
7.93865e-05
7.93107e-05
7.92791e-05
7.87913e-05
7.82218e-05
7.76232e-05
7.69576e-05
7.48968e-05
7.32822e-05
7.19893e-05
6.96227e-05
6.63812e-05
6.46939e-05
6.26927e-05
5.94819e-05
5.72975e-05
5.65146e-05
5.49693e-05
5.33582e-05
5.31332e-05
5.3164e-05
5.31552e-05
5.33219e-05
5.40601e-05
5.49706e-05
5.52288e-05
5.57286e-05
5.64474e-05
5.6402e-05
5.61829e-05
5.58882e-05
5.53813e-05
5.45681e-05
5.35588e-05
5.22515e-05
5.07065e-05
4.9211e-05
4.77276e-05
4.64993e-05
4.55547e-05
4.45384e-05
4.40243e-05
4.27706e-05
4.16081e-05
4.08655e-05
3.98258e-05
3.88107e-05
3.85621e-05
3.86291e-05
3.88329e-05
3.96516e-05
4.03515e-05
4.09461e-05
4.32652e-05
4.67868e-05
4.87541e-05
4.97938e-05
5.01692e-05
5.02955e-05
5.03794e-05
5.10878e-05
5.19504e-05
5.26164e-05
5.3256e-05
5.39382e-05
5.70322e-05
6.01633e-05
6.10343e-05
6.0891e-05
6.01293e-05
5.77868e-05
5.27765e-05
4.81544e-05
4.44258e-05
4.22968e-05
4.15676e-05
4.17076e-05
4.25168e-05
4.4365e-05
4.84529e-05
5.25092e-05
5.99396e-05
6.20577e-05
6.0089e-05
5.60665e-05
5.56282e-05
5.79492e-05
6.75371e-05
9.24556e-05
0.000114094
0.000118557
0.000117494
0.00011232
0.000104887
9.97081e-05
9.37579e-05
8.99364e-05
8.65038e-05
8.25907e-05
8.1316e-05
7.72013e-05
7.45614e-05
7.30508e-05
6.90611e-05
6.77526e-05
6.59979e-05
6.55545e-05
6.59506e-05
6.57981e-05
6.52375e-05
6.2651e-05
6.01075e-05
5.86748e-05
5.37859e-05
5.40418e-05
6.19129e-05
0.000102097
0.000165845
0.00018902
0.000184515
0.000153819
0.000115238
9.49461e-05
9.10058e-05
8.68693e-05
8.8855e-05
9.03882e-05
9.22388e-05
9.81066e-05
9.74675e-05
0.000101631
9.99243e-05
9.9753e-05
9.79261e-05
9.79262e-05
9.75874e-05
9.88441e-05
9.85653e-05
0.000100056
9.99421e-05
0.000100529
0.00010154
0.000102438
0.000104563
0.00011209
0.000116946
0.000115813
0.000105796
0.000102071
0.000100609
0.000103101
0.000123007
0.00012405
0.000140029
0.000129514
0.000127988
0.0001138
0.000108058
9.13613e-05
8.49581e-05
7.37695e-05
7.01362e-05
6.6501e-05
6.45351e-05
6.42905e-05
6.42133e-05
6.38684e-05
6.19903e-05
6.03581e-05
6.00229e-05
6.19104e-05
6.60063e-05
7.51196e-05
7.75171e-05
8.6356e-05
5.77909e-05
5.72555e-05
5.61301e-05
5.5232e-05
5.45019e-05
5.41556e-05
5.39176e-05
5.3732e-05
5.36638e-05
5.35475e-05
5.31946e-05
5.29864e-05
5.24951e-05
5.18948e-05
5.16306e-05
5.09943e-05
5.02807e-05
5.00702e-05
4.96436e-05
4.92208e-05
4.91438e-05
4.90177e-05
4.89538e-05
4.90572e-05
4.91157e-05
4.90385e-05
4.90672e-05
4.90807e-05
4.89406e-05
4.86651e-05
4.83262e-05
4.79844e-05
4.69479e-05
4.60764e-05
4.5354e-05
4.40152e-05
4.22865e-05
4.10577e-05
3.98758e-05
3.81756e-05
3.69277e-05
3.64929e-05
3.63988e-05
3.64234e-05
3.66822e-05
3.77011e-05
3.82748e-05
3.91643e-05
4.02055e-05
4.14949e-05
4.28049e-05
4.38162e-05
4.47264e-05
4.56862e-05
4.61217e-05
4.61595e-05
4.60728e-05
4.57533e-05
4.49236e-05
4.37587e-05
4.237e-05
4.14037e-05
4.06803e-05
3.99003e-05
3.94734e-05
3.92719e-05
3.85984e-05
3.7912e-05
3.72622e-05
3.67963e-05
3.63034e-05
3.60854e-05
3.6119e-05
3.63297e-05
3.70166e-05
3.81802e-05
3.89261e-05
3.97581e-05
4.22998e-05
4.58293e-05
4.7304e-05
4.75172e-05
4.72776e-05
4.66301e-05
4.60227e-05
4.56765e-05
4.57767e-05
4.64109e-05
4.68849e-05
4.80335e-05
4.96731e-05
5.05066e-05
5.04799e-05
5.02269e-05
4.96726e-05
4.80508e-05
4.57625e-05
4.34646e-05
4.19021e-05
4.12866e-05
4.1323e-05
4.15977e-05
4.25004e-05
4.39764e-05
4.80441e-05
5.10881e-05
5.42194e-05
6.27751e-05
6.5709e-05
6.42346e-05
5.80426e-05
5.63248e-05
5.76108e-05
6.55607e-05
8.67359e-05
0.000106281
0.000111506
0.000110397
0.000105346
0.000100982
9.41206e-05
9.06538e-05
8.60648e-05
8.31419e-05
8.13492e-05
7.67373e-05
7.53341e-05
7.23817e-05
6.94541e-05
6.86742e-05
6.79977e-05
6.7685e-05
6.7053e-05
6.63391e-05
6.46677e-05
5.89993e-05
5.71048e-05
5.32858e-05
5.15157e-05
5.34306e-05
7.0696e-05
0.000133573
0.000188147
0.000196524
0.000185341
0.000142156
0.00010704
9.25731e-05
8.63162e-05
8.64911e-05
9.04954e-05
8.99344e-05
9.5824e-05
9.68425e-05
9.81305e-05
0.00010305
0.000101698
0.000106058
0.000103113
0.000105179
0.000101626
0.000103255
9.96912e-05
0.000100267
9.9347e-05
9.97026e-05
0.000101671
0.000102221
0.000109491
0.000115432
0.000116894
0.000115684
0.000100858
9.71899e-05
9.6694e-05
9.93907e-05
0.000114391
0.000119664
0.000139382
0.000141553
0.000145972
0.000133904
0.000116909
9.80041e-05
8.81694e-05
7.71404e-05
7.0991e-05
6.72024e-05
6.40304e-05
6.44713e-05
6.4319e-05
6.37713e-05
6.27557e-05
6.10019e-05
5.97979e-05
5.99485e-05
6.12499e-05
6.7171e-05
7.05886e-05
7.45909e-05
2.89661e-05
2.85405e-05
2.78912e-05
2.72832e-05
2.70513e-05
2.70579e-05
2.71641e-05
2.73294e-05
2.77677e-05
2.8086e-05
2.84055e-05
2.87269e-05
2.89288e-05
2.90909e-05
2.92645e-05
2.93572e-05
2.94006e-05
2.95242e-05
2.95775e-05
2.96293e-05
2.97215e-05
2.98399e-05
2.98888e-05
3.0005e-05
3.00601e-05
3.0033e-05
2.99633e-05
2.99005e-05
2.96783e-05
2.94078e-05
2.90044e-05
2.84385e-05
2.77993e-05
2.711e-05
2.64448e-05
2.56331e-05
2.48942e-05
2.43922e-05
2.42144e-05
2.41873e-05
2.42164e-05
2.44167e-05
2.54741e-05
2.62086e-05
2.74931e-05
2.92471e-05
3.0158e-05
3.10911e-05
3.26514e-05
3.40194e-05
3.46742e-05
3.57813e-05
3.67958e-05
3.73287e-05
3.7706e-05
3.78188e-05
3.77495e-05
3.76159e-05
3.73219e-05
3.68494e-05
3.65727e-05
3.63065e-05
3.60706e-05
3.58585e-05
3.56717e-05
3.54645e-05
3.50155e-05
3.48317e-05
3.46384e-05
3.44587e-05
3.44742e-05
3.45618e-05
3.47244e-05
3.50353e-05
3.57809e-05
3.66415e-05
3.70084e-05
3.73322e-05
3.83358e-05
4.07504e-05
4.24509e-05
4.29833e-05
4.29774e-05
4.25697e-05
4.20499e-05
4.17489e-05
4.17439e-05
4.21172e-05
4.28362e-05
4.39114e-05
4.48307e-05
4.54727e-05
4.55448e-05
4.54582e-05
4.52879e-05
4.45059e-05
4.33916e-05
4.22014e-05
4.15926e-05
4.16971e-05
4.24507e-05
4.36977e-05
4.68531e-05
5.01151e-05
5.30256e-05
5.7498e-05
5.91364e-05
6.08385e-05
6.47295e-05
6.59315e-05
6.44556e-05
5.87103e-05
5.628e-05
5.70826e-05
6.32398e-05
7.82894e-05
9.7239e-05
0.000103785
0.000103154
0.00010041
9.53996e-05
9.29358e-05
8.66786e-05
8.47266e-05
8.16467e-05
7.81372e-05
7.66596e-05
7.3385e-05
7.22865e-05
7.11479e-05
6.97664e-05
6.87173e-05
6.74653e-05
6.5559e-05
5.94385e-05
5.47752e-05
5.22313e-05
5.01363e-05
5.02955e-05
5.62799e-05
8.88883e-05
0.000167093
0.000199872
0.000203304
0.000184072
0.000137337
0.000104105
9.02839e-05
8.58181e-05
8.83272e-05
8.94222e-05
9.1008e-05
9.88338e-05
9.70086e-05
0.000105963
0.000102102
0.000103289
0.000103787
0.000104719
0.000105268
0.000102321
9.9691e-05
9.73289e-05
9.67974e-05
9.82498e-05
9.8799e-05
0.000103826
0.000104263
0.000110485
0.000119351
0.000117118
0.000117019
9.97252e-05
9.50655e-05
9.14391e-05
9.38426e-05
9.33178e-05
9.90356e-05
0.000107357
0.000129429
0.000142931
0.000143805
0.000138046
0.000118232
9.67772e-05
8.42978e-05
7.33902e-05
6.92786e-05
6.43978e-05
6.40238e-05
6.5246e-05
6.48549e-05
6.41784e-05
6.28659e-05
6.07666e-05
6.01666e-05
6.02089e-05
6.20204e-05
6.37383e-05
6.8019e-05
1.42016e-05
1.40962e-05
1.40157e-05
1.39327e-05
1.38983e-05
1.39179e-05
1.41388e-05
1.44261e-05
1.49079e-05
1.53807e-05
1.59142e-05
1.6443e-05
1.68926e-05
1.72741e-05
1.75908e-05
1.78351e-05
1.79848e-05
1.81207e-05
1.81802e-05
1.8253e-05
1.83025e-05
1.83807e-05
1.84305e-05
1.85631e-05
1.86911e-05
1.87726e-05
1.88318e-05
1.88323e-05
1.8686e-05
1.83707e-05
1.80252e-05
1.76619e-05
1.73174e-05
1.70567e-05
1.69516e-05
1.69455e-05
1.72419e-05
1.77808e-05
1.87069e-05
1.97471e-05
2.09118e-05
2.22074e-05
2.36268e-05
2.47206e-05
2.59649e-05
2.72324e-05
2.79093e-05
2.88416e-05
2.97655e-05
3.03942e-05
3.10027e-05
3.16466e-05
3.24174e-05
3.31203e-05
3.36745e-05
3.41683e-05
3.46083e-05
3.4926e-05
3.50208e-05
3.50086e-05
3.49064e-05
3.46435e-05
3.44414e-05
3.42355e-05
3.38715e-05
3.35263e-05
3.32815e-05
3.32812e-05
3.33478e-05
3.34925e-05
3.36939e-05
3.40889e-05
3.45078e-05
3.49034e-05
3.58497e-05
3.67378e-05
3.69121e-05
3.69774e-05
3.76571e-05
3.95072e-05
4.05954e-05
4.10129e-05
4.1049e-05
4.06383e-05
4.02567e-05
4.01474e-05
4.0234e-05
4.05921e-05
4.12833e-05
4.19378e-05
4.24147e-05
4.30784e-05
4.3394e-05
4.3385e-05
4.32763e-05
4.29761e-05
4.25305e-05
4.26317e-05
4.31935e-05
4.50243e-05
4.89819e-05
5.17062e-05
5.74255e-05
6.15357e-05
6.34185e-05
6.39596e-05
6.481e-05
6.48269e-05
6.56885e-05
6.63071e-05
6.61158e-05
6.38024e-05
5.81218e-05
5.5983e-05
5.65942e-05
6.08239e-05
7.14153e-05
8.54011e-05
9.53356e-05
9.5808e-05
9.46619e-05
9.20918e-05
8.81834e-05
8.62035e-05
8.22742e-05
8.0675e-05
7.7693e-05
7.5254e-05
7.33122e-05
7.21646e-05
7.03162e-05
6.85699e-05
6.61656e-05
5.94039e-05
5.32514e-05
5.06782e-05
4.9841e-05
4.93563e-05
5.09518e-05
6.44343e-05
0.00012104
0.000186715
0.00020928
0.000210206
0.000183344
0.000136332
0.000103118
8.98301e-05
8.81147e-05
9.22293e-05
9.28783e-05
9.8664e-05
9.94005e-05
9.93458e-05
0.000109236
0.000104526
0.000120911
0.000113836
0.000125042
0.00011407
0.000112486
0.000103697
0.000100704
9.74218e-05
0.000101127
0.000100337
0.000104804
0.00010951
0.000112107
0.000126421
0.000119573
0.000116599
9.71462e-05
8.94652e-05
8.50872e-05
8.45106e-05
8.96173e-05
9.80476e-05
0.000111338
0.000132282
0.000139589
0.000144698
0.000142401
0.00013812
0.000119195
9.88612e-05
8.05304e-05
7.38816e-05
6.75116e-05
6.48973e-05
6.5361e-05
6.61654e-05
6.58546e-05
6.51961e-05
6.33441e-05
6.22537e-05
6.07326e-05
5.97011e-05
5.96121e-05
6.01596e-05
1.05542e-05
1.0564e-05
1.0605e-05
1.06796e-05
1.07339e-05
1.07815e-05
1.08699e-05
1.10421e-05
1.12651e-05
1.1534e-05
1.17879e-05
1.20952e-05
1.23451e-05
1.26259e-05
1.28876e-05
1.31593e-05
1.34117e-05
1.36401e-05
1.37896e-05
1.39227e-05
1.40392e-05
1.41172e-05
1.41663e-05
1.41801e-05
1.40984e-05
1.38487e-05
1.36577e-05
1.35166e-05
1.34572e-05
1.34504e-05
1.34583e-05
1.34421e-05
1.3298e-05
1.31309e-05
1.32014e-05
1.44354e-05
1.64906e-05
1.86509e-05
2.02642e-05
2.16717e-05
2.31669e-05
2.43261e-05
2.52601e-05
2.61537e-05
2.68695e-05
2.73949e-05
2.79951e-05
2.87852e-05
2.94895e-05
3.04825e-05
3.14295e-05
3.22316e-05
3.31843e-05
3.41983e-05
3.48402e-05
3.51304e-05
3.51951e-05
3.51838e-05
3.50848e-05
3.48543e-05
3.42799e-05
3.38625e-05
3.33755e-05
3.28121e-05
3.25706e-05
3.25611e-05
3.26588e-05
3.29044e-05
3.3403e-05
3.41356e-05
3.4953e-05
3.60873e-05
3.75037e-05
3.81138e-05
3.84112e-05
3.86634e-05
3.89033e-05
3.89204e-05
3.89754e-05
3.9907e-05
4.08778e-05
4.11983e-05
4.12485e-05
4.08677e-05
4.03106e-05
4.01103e-05
4.01109e-05
4.04063e-05
4.06884e-05
4.08895e-05
4.12673e-05
4.16847e-05
4.18881e-05
4.20079e-05
4.22272e-05
4.2628e-05
4.35023e-05
4.54341e-05
4.88155e-05
5.71009e-05
6.35562e-05
7.02741e-05
7.80977e-05
8.03257e-05
7.99006e-05
7.80173e-05
7.37537e-05
7.04815e-05
6.90695e-05
6.8018e-05
6.74047e-05
6.61805e-05
6.22368e-05
5.74038e-05
5.57792e-05
5.64036e-05
5.89352e-05
6.61508e-05
7.56465e-05
8.31693e-05
8.81781e-05
8.78595e-05
8.68471e-05
8.50161e-05
8.22096e-05
8.0014e-05
7.78204e-05
7.53419e-05
7.3217e-05
7.16318e-05
6.89427e-05
6.38837e-05
5.7848e-05
5.2826e-05
5.003e-05
4.92877e-05
4.93471e-05
5.00896e-05
5.60901e-05
8.06422e-05
0.000150443
0.000200651
0.000217644
0.00021544
0.000188117
0.000140025
0.000103248
9.184e-05
9.14567e-05
9.6733e-05
0.000102314
0.000109755
0.000104731
0.000109372
0.000108991
0.000105679
0.000124116
0.000113547
0.000155029
0.000121435
0.000149934
0.000117142
0.000122987
0.000107525
0.00010873
0.000104296
0.000106852
0.000120103
0.000115171
0.000129277
0.000123223
0.000115373
9.52212e-05
8.4377e-05
8.53797e-05
8.38577e-05
9.74333e-05
0.000106677
0.000113997
0.000132242
0.000149174
0.000150195
0.000145626
0.00014389
0.000136413
0.00012289
9.83396e-05
8.16253e-05
7.53968e-05
6.99126e-05
6.75336e-05
6.76964e-05
6.72183e-05
6.67152e-05
6.52799e-05
6.42744e-05
6.24792e-05
6.03831e-05
5.85711e-05
5.78457e-05
9.4494e-06
9.41523e-06
9.41083e-06
9.40555e-06
9.41182e-06
9.42697e-06
9.5083e-06
9.82642e-06
1.02218e-05
1.05841e-05
1.09116e-05
1.1155e-05
1.1321e-05
1.14165e-05
1.14673e-05
1.14897e-05
1.15015e-05
1.14998e-05
1.14559e-05
1.13307e-05
1.11784e-05
1.10167e-05
1.08805e-05
1.08015e-05
1.07888e-05
1.08108e-05
1.08323e-05
1.0828e-05
1.08657e-05
1.11997e-05
1.15305e-05
1.16675e-05
1.16604e-05
1.15739e-05
1.16561e-05
1.32739e-05
1.66623e-05
1.95468e-05
2.25314e-05
2.49683e-05
2.72615e-05
2.88842e-05
3.04393e-05
3.15847e-05
3.25808e-05
3.34205e-05
3.41747e-05
3.473e-05
3.52462e-05
3.57402e-05
3.60812e-05
3.63146e-05
3.63597e-05
3.63348e-05