/*--------------------------------*- C++ -*----------------------------------*\
| =========                 |                                                 |
| \\      /  F ield         | OpenFOAM: The Open Source CFD Toolbox           |
|  \\    /   O peration     | Version:  2.4.0                                 |
|   \\  /    A nd           | Web:      www.OpenFOAM.org                      |
|    \\/     M anipulation  |                                                 |
\*---------------------------------------------------------------------------*/
FoamFile
{
    version     2.0;
    format      ascii;
    class       surfaceScalarField;
    location    "1.08";
    object      phi_0;
}
// * * * * * * * * * * * * * * * * * * * * * * * * * * * * * * * * * * * * * //

dimensions      [0 3 -1 0 0 0 0];

internalField   nonuniform List<scalar> 
17320
(
1.76336e-05
7.36636e-06
1.16293e-05
6.00429e-06
8.66473e-06
2.96462e-06
7.35092e-06
1.31381e-06
6.755e-06
5.95913e-07
6.30349e-06
4.5151e-07
6.08643e-06
2.17067e-07
5.91246e-06
1.73966e-07
5.68508e-06
2.27386e-07
5.56946e-06
1.15614e-07
5.51866e-06
5.08062e-08
5.4638e-06
5.48599e-08
5.27575e-06
1.88041e-07
5.22819e-06
4.75616e-08
5.20287e-06
2.53274e-08
5.09696e-06
1.05906e-07
4.92841e-06
1.68551e-07
5.07498e-06
-1.46571e-07
4.63918e-06
4.35795e-07
-1.01303e-06
5.65222e-06
2.54256e-05
6.9408e-06
2.32749e-05
8.15493e-06
2.09417e-05
5.29784e-06
1.93684e-05
2.88711e-06
1.81009e-05
1.86336e-06
1.70772e-05
1.47524e-06
1.63955e-05
8.98763e-07
1.58088e-05
7.60643e-07
1.52558e-05
7.80413e-07
1.49326e-05
4.3886e-07
1.4689e-05
2.94418e-07
1.4457e-05
2.86789e-07
1.40949e-05
5.50206e-07
1.40014e-05
1.41041e-07
1.37714e-05
2.55302e-07
1.36064e-05
2.70874e-07
1.32544e-05
5.20619e-07
1.33867e-05
-2.78944e-07
1.31185e-05
7.04017e-07
-1.14342e-06
1.32489e-05
2.6549e-05
5.39175e-06
2.72436e-05
7.46039e-06
2.66923e-05
5.84915e-06
2.63258e-05
3.25359e-06
2.56133e-05
2.57586e-06
2.48353e-05
2.25323e-06
2.42001e-05
1.53396e-06
2.35305e-05
1.43028e-06
2.28679e-05
1.44301e-06
2.24307e-05
8.76013e-07
2.20934e-05
6.31727e-07
2.17556e-05
6.24618e-07
2.12814e-05
1.0244e-06
2.11589e-05
2.63583e-07
2.08217e-05
5.92493e-07
2.05679e-05
5.24676e-07
2.02798e-05
8.08688e-07
2.01924e-05
-1.91514e-07
2.02589e-05
6.37439e-07
-8.76825e-07
1.99923e-05
2.62174e-05
4.17438e-06
2.7668e-05
6.00976e-06
2.79639e-05
5.55331e-06
2.84534e-05
2.764e-06
2.86403e-05
2.38896e-06
2.85601e-05
2.33343e-06
2.85352e-05
1.55888e-06
2.82125e-05
1.75295e-06
2.79312e-05
1.72436e-06
2.76024e-05
1.20479e-06
2.7501e-05
7.33098e-07
2.72386e-05
8.87046e-07
2.68973e-05
1.36576e-06
2.67342e-05
4.26646e-07
2.65843e-05
7.4234e-07
2.61479e-05
9.61117e-07
2.61623e-05
7.94278e-07
2.57807e-05
1.90108e-07
2.61057e-05
3.12398e-07
-2.71696e-07
2.55006e-05
2.59749e-05
3.19945e-06
2.73789e-05
4.60578e-06
2.80341e-05
4.89811e-06
2.83808e-05
2.41733e-06
2.90374e-05
1.73238e-06
2.92835e-05
2.08734e-06
2.99024e-05
9.39904e-07
2.97961e-05
1.85931e-06
3.00318e-05
1.48867e-06
2.97922e-05
1.44438e-06
3.01101e-05
4.15219e-07
3.00623e-05
9.34773e-07
3.02143e-05
1.21379e-06
3.00107e-05
6.30277e-07
3.02996e-05
4.53353e-07
2.98262e-05
1.43462e-06
3.00908e-05
5.29652e-07
2.96126e-05
6.68284e-07
2.97815e-05
1.43499e-07
3.41878e-07
2.91679e-05
2.59846e-05
2.21485e-06
2.68883e-05
3.70206e-06
2.81594e-05
3.62699e-06
2.81764e-05
2.40035e-06
2.89288e-05
9.7998e-07
2.89947e-05
2.02147e-06
2.99132e-05
2.13405e-08
3.00101e-05
1.76244e-06
3.04938e-05
1.00496e-06
3.01573e-05
1.78087e-06
3.0552e-05
2.05892e-08
3.06093e-05
8.77422e-07
3.11472e-05
6.75876e-07
3.09644e-05
8.13063e-07
3.15111e-05
-9.32941e-08
3.13043e-05
1.6414e-06
3.15643e-05
2.69666e-07
3.11281e-05
1.10443e-06
3.1163e-05
1.0862e-07
8.81367e-07
3.06235e-05
2.59491e-05
1.26574e-06
2.63238e-05
3.32741e-06
2.79641e-05
1.98669e-06
2.82325e-05
2.13194e-06
2.86815e-05
5.31002e-07
2.84579e-05
2.24498e-06
2.90968e-05
-6.17543e-07
2.95959e-05
1.26341e-06
3.01555e-05
4.45315e-07
2.99586e-05
1.97777e-06
3.02115e-05
-2.32342e-07
3.03284e-05
7.60605e-07
3.06695e-05
3.34714e-07
3.06225e-05
8.60051e-07
3.11156e-05
-5.86397e-07
3.13649e-05
1.39213e-06
3.1442e-05
1.92567e-07
3.10994e-05
1.44699e-06
3.08201e-05
3.87986e-07
1.54792e-06
3.01535e-05
2.56893e-05
5.76482e-07
2.61346e-05
2.88212e-06
2.77775e-05
3.43742e-07
2.83024e-05
1.60707e-06
2.82228e-05
6.10565e-07
2.82367e-05
2.23114e-06
2.87135e-05
-1.09435e-06
2.93375e-05
6.39351e-07
2.96803e-05
1.02493e-07
2.99015e-05
1.75664e-06
2.99849e-05
-3.15759e-07
3.02348e-05
5.10735e-07
3.01775e-05
3.91982e-07
3.0485e-05
5.52503e-07
3.07622e-05
-8.63579e-07
3.13392e-05
8.15184e-07
3.10692e-05
4.62505e-07
3.13809e-05
1.13535e-06
3.14607e-05
3.08125e-07
3.81684e-07
3.2627e-05
2.55127e-05
6.37976e-08
2.643e-05
1.96477e-06
2.77667e-05
-9.92894e-07
2.80208e-05
1.35296e-06
2.76762e-05
9.55106e-07
2.84663e-05
1.44111e-06
2.90256e-05
-1.6537e-06
2.94561e-05
2.0885e-07
2.92416e-05
3.17026e-07
2.95883e-05
1.40988e-06
2.97063e-05
-4.33755e-07
3.0116e-05
1.01083e-07
3.02512e-05
2.568e-07
3.08112e-05
-7.53347e-09
3.08447e-05
-8.97028e-07
3.11968e-05
4.63027e-07
3.08794e-05
7.79953e-07
3.11661e-05
8.4861e-07
3.13667e-05
1.07489e-07
-3.92706e-07
3.21411e-05
2.56239e-05
-5.60081e-07
2.66968e-05
8.91872e-07
2.72802e-05
-1.57631e-06
2.74401e-05
1.19306e-06
2.78728e-05
5.22363e-07
2.92165e-05
9.74776e-08
2.90315e-05
-1.4687e-06
2.88985e-05
3.4178e-07
2.86628e-05
5.52769e-07
2.93726e-05
7.00086e-07
2.97553e-05
-8.16517e-07
3.02943e-05
-4.37844e-07
3.05177e-05
3.34158e-08
3.07139e-05
-2.03812e-07
3.03877e-05
-5.70777e-07
3.05515e-05
2.99169e-07
3.08017e-05
5.29786e-07
3.13983e-05
2.51988e-07
3.18382e-05
-3.32414e-07
-5.98242e-07
3.20438e-05
2.56071e-05
-1.16721e-06
2.65636e-05
-6.45784e-08
2.68891e-05
-1.90188e-06
2.75215e-05
5.60726e-07
2.85007e-05
-4.56874e-07
2.93629e-05
-7.64653e-07
2.83186e-05
-4.24432e-07
2.82929e-05
3.67485e-07
2.8918e-05
-7.23168e-08
2.99441e-05
-3.26079e-07
3.00519e-05
-9.24267e-07
3.02368e-05
-6.2272e-07
3.0242e-05
2.81645e-08
3.0235e-05
-1.96822e-07
3.0104e-05
-4.3976e-07
3.04447e-05
-4.15365e-08
3.1027e-05
-5.2515e-08
3.16162e-05
-3.37155e-07
3.18028e-05
-5.19074e-07
-4.32854e-07
3.16374e-05
2.53942e-05
-1.56136e-06
2.64449e-05
-1.11532e-06
2.71146e-05
-2.57162e-06
2.79661e-05
-2.90731e-07
2.85881e-05
-1.07889e-06
2.8814e-05
-9.90567e-07
2.80788e-05
3.10843e-07
2.87696e-05
-3.23403e-07
2.96378e-05
-9.40441e-07
3.02081e-05
-8.96427e-07
2.99473e-05
-6.63458e-07
2.99953e-05
-6.70743e-07
3.00809e-05
-5.74548e-08
3.02745e-05
-3.90416e-07
3.04512e-05
-6.16402e-07
3.07431e-05
-3.3348e-07
3.10955e-05
-4.0485e-07
3.14885e-05
-7.30155e-07
3.16771e-05
-7.07694e-07
-5.32528e-07
3.17768e-05
2.5341e-05
-1.90237e-06
2.65726e-05
-2.34694e-06
2.74624e-05
-3.46141e-06
2.81881e-05
-1.01638e-06
2.83987e-05
-1.28953e-06
2.84584e-05
-1.0503e-06
2.85192e-05
2.50118e-07
2.96045e-05
-1.4087e-06
2.99535e-05
-1.28944e-06
2.99479e-05
-8.90919e-07
2.98501e-05
-5.65612e-07
3.00804e-05
-9.01048e-07
3.02134e-05
-1.90473e-07
3.04318e-05
-6.08781e-07
3.07197e-05
-9.04329e-07
3.10255e-05
-6.39276e-07
3.12556e-05
-6.34967e-07
3.15733e-05
-1.04783e-06
3.17415e-05
-8.75867e-07
-7.57213e-07
3.19662e-05
2.55106e-05
-2.413e-06
2.68417e-05
-3.67806e-06
2.76463e-05
-4.26595e-06
2.81027e-05
-1.47277e-06
2.83592e-05
-1.54605e-06
2.86559e-05
-1.347e-06
2.91638e-05
-2.57812e-07
2.99415e-05
-2.18634e-06
2.99148e-05
-1.26274e-06
2.98777e-05
-8.53876e-07
3.01442e-05
-8.32036e-07
3.03418e-05
-1.09872e-06
3.0485e-05
-3.33681e-07
3.06874e-05
-8.11183e-07
3.09513e-05
-1.16819e-06
3.11915e-05
-8.7946e-07
3.13121e-05
-7.55626e-07
3.15753e-05
-1.31101e-06
3.17582e-05
-1.0587e-06
-1.05263e-06
3.20536e-05
2.57493e-05
-3.16234e-06
2.70997e-05
-5.02841e-06
2.76598e-05
-4.82609e-06
2.80752e-05
-1.88811e-06
2.86379e-05
-2.1088e-06
2.91061e-05
-1.81519e-06
2.96527e-05
-8.04356e-07
2.9981e-05
-2.51464e-06
3.00123e-05
-1.29407e-06
3.00674e-05
-9.08994e-07
3.03498e-05
-1.1144e-06
3.04798e-05
-1.22876e-06
3.07234e-05
-5.77254e-07
3.08607e-05
-9.48549e-07
3.09733e-05
-1.28073e-06
3.10575e-05
-9.63717e-07
3.10584e-05
-7.56449e-07
3.12252e-05
-1.47781e-06
3.13909e-05
-1.22448e-06
-1.36305e-06
3.17014e-05
2.59981e-05
-4.16047e-06
2.72854e-05
-6.31569e-06
2.77116e-05
-5.25229e-06
2.84458e-05
-2.62235e-06
2.9022e-05
-2.68491e-06
2.93902e-05
-2.1834e-06
2.98316e-05
-1.24579e-06
2.97485e-05
-2.43155e-06
2.98196e-05
-1.36513e-06
2.98615e-05
-9.50943e-07
2.99476e-05
-1.20049e-06
2.99251e-05
-1.20624e-06
2.9999e-05
-6.51129e-07
2.9901e-05
-8.50576e-07
2.97789e-05
-1.1587e-06
2.96972e-05
-8.81989e-07
2.95881e-05
-6.47297e-07
2.95041e-05
-1.39388e-06
2.94466e-05
-1.16691e-06
-1.43235e-06
2.95159e-05
2.62589e-05
-5.41939e-06
2.75037e-05
-7.56049e-06
2.7898e-05
-5.64659e-06
2.85601e-05
-3.2844e-06
2.86355e-05
-2.76038e-06
2.86191e-05
-2.16694e-06
2.86573e-05
-1.28404e-06
2.81237e-05
-1.89788e-06
2.79553e-05
-1.19677e-06
2.77184e-05
-7.14014e-07
2.74117e-05
-8.93826e-07
2.71182e-05
-9.12737e-07
2.69265e-05
-4.59438e-07
2.66348e-05
-5.5886e-07
2.63083e-05
-8.32205e-07
2.6062e-05
-6.35681e-07
2.58426e-05
-4.27866e-07
2.54726e-05
-1.02392e-06
2.52286e-05
-9.22922e-07
-1.28482e-06
2.50811e-05
2.65623e-05
-6.98165e-06
2.71412e-05
-8.1394e-06
2.67166e-05
-5.22202e-06
2.63384e-05
-2.90615e-06
2.55554e-05
-1.97746e-06
2.48422e-05
-1.45373e-06
2.42812e-05
-7.23006e-07
2.33999e-05
-1.01662e-06
2.29057e-05
-7.0259e-07
2.2474e-05
-2.82239e-07
2.20171e-05
-4.36967e-07
2.16158e-05
-5.11456e-07
2.13522e-05
-1.95791e-07
2.10513e-05
-2.57945e-07
2.0685e-05
-4.6593e-07
2.04044e-05
-3.55124e-07
2.01813e-05
-2.04691e-07
1.97234e-05
-5.6603e-07
1.93399e-05
-5.3941e-07
-4.46333e-07
1.85014e-05
2.54127e-05
-7.39436e-06
2.32511e-05
-5.97776e-06
2.09754e-05
-2.94629e-06
1.93736e-05
-1.30436e-06
1.8049e-05
-6.5287e-07
1.70533e-05
-4.5805e-07
1.64539e-05
-1.23575e-07
1.57137e-05
-2.76419e-07
1.52466e-05
-2.35494e-07
1.49706e-05
-6.2903e-09
1.46408e-05
-1.07123e-07
1.43104e-05
-1.81057e-07
1.41459e-05
-3.1345e-08
1.39426e-05
-5.45913e-08
1.36406e-05
-1.64002e-07
1.3412e-05
-1.2649e-07
1.32465e-05
-3.91968e-08
1.28758e-05
-1.95338e-07
1.25792e-05
-2.42764e-07
-6.19864e-08
1.21948e-05
1.76056e-05
1.16279e-05
8.68158e-06
7.37722e-06
6.72435e-06
6.2663e-06
6.14272e-06
5.86631e-06
5.63081e-06
5.62452e-06
5.5174e-06
5.33634e-06
5.305e-06
5.2504e-06
5.0864e-06
4.95991e-06
4.92071e-06
4.72538e-06
4.48261e-06
4.42063e-06
6.00296e-06
-2.09113e-07
-1.41635e-07
6.22614e-06
8.44596e-08
-3.07633e-07
6.35239e-06
1.57443e-07
-2.83692e-07
6.58682e-06
1.74682e-07
-4.09119e-07
6.8765e-06
5.15624e-08
-3.4124e-07
7.17688e-06
-1.65961e-08
-2.83777e-07
7.43832e-06
-1.65654e-07
-9.57899e-08
7.64879e-06
-2.15589e-07
5.11761e-09
7.79402e-06
-3.41436e-07
1.96203e-07
7.91079e-06
-3.28194e-07
2.11423e-07
8.00896e-06
-3.91544e-07
2.93375e-07
8.09252e-06
-3.25318e-07
2.41764e-07
8.15104e-06
-3.86522e-07
3.27996e-07
8.22427e-06
-3.35803e-07
2.62572e-07
8.28085e-06
-4.1151e-07
3.54933e-07
8.32759e-06
-3.56461e-07
3.09724e-07
8.34272e-06
-4.29625e-07
4.14491e-07
8.35823e-06
-3.41561e-07
3.26058e-07
8.35871e-06
-3.87952e-07
3.87472e-07
8.40297e-06
-2.35626e-07
1.91364e-07
8.40902e-06
-2.10183e-07
2.04125e-07
8.47578e-06
-1.31267e-10
-6.66218e-08
8.4942e-06
7.28019e-08
-9.1226e-08
8.59496e-06
3.48831e-07
-4.49585e-07
8.65653e-06
4.48809e-07
-5.10386e-07
8.83406e-06
7.03014e-07
-8.80545e-07
8.96669e-06
8.49024e-07
-9.81648e-07
9.19339e-06
1.02928e-06
-1.25598e-06
9.40417e-06
1.11727e-06
-1.32806e-06
9.6657e-06
1.22498e-06
-1.4865e-06
9.91819e-06
1.19472e-06
-1.44722e-06
1.02221e-05
1.19004e-06
-1.49399e-06
1.05163e-05
9.89004e-07
-1.28313e-06
1.0806e-05
8.64108e-07
-1.15383e-06
1.1129e-05
4.95605e-07
-8.18558e-07
1.13829e-05
2.89351e-07
-5.43327e-07
1.16747e-05
-1.0989e-07
-1.8185e-07
1.19011e-05
-2.88004e-07
6.16055e-08
1.21489e-05
-6.0547e-07
3.57637e-07
1.23638e-05
-6.84817e-07
4.6991e-07
1.25283e-05
-8.76939e-07
7.1242e-07
1.26093e-05
-7.29093e-07
6.48156e-07
1.26398e-05
-6.3652e-07
6.06013e-07
1.2689e-05
-1.98268e-07
1.48988e-07
1.28368e-05
2.55783e-07
-4.03511e-07
1.31332e-05
8.52527e-07
-1.14899e-06
1.37911e-05
1.19176e-06
-1.84967e-06
1.45695e-05
1.89467e-06
-2.67299e-06
1.56009e-05
2.24386e-06
-3.27527e-06
1.6824e-05
2.61028e-06
-3.83337e-06
1.82534e-05
2.51217e-06
-3.94158e-06
1.96647e-05
2.7604e-06
-4.17174e-06
2.09514e-05
2.60038e-06
-3.88709e-06
2.22674e-05
2.08353e-06
-3.39955e-06
2.32641e-05
1.47676e-06
-2.47343e-06
2.40817e-05
5.2972e-07
-1.34726e-06
2.46915e-05
-5.32624e-07
-7.72212e-08
2.51074e-05
-1.7517e-06
1.33577e-06
2.51229e-05
-2.69197e-06
2.67654e-06
2.48737e-05
-3.80018e-06
4.04937e-06
2.44944e-05
-4.94345e-06
5.32268e-06
2.39281e-05
-5.56288e-06
6.12923e-06
2.32541e-05
-5.88903e-06
6.56302e-06
2.25129e-05
-6.41309e-06
7.15432e-06
2.2041e-05
-6.75289e-06
7.22478e-06
2.1718e-05
-6.69285e-06
7.01584e-06
2.13623e-05
-6.69463e-06
7.05034e-06
2.10288e-05
-6.49201e-06
6.82544e-06
2.10228e-05
-6.40466e-06
6.41073e-06
2.11718e-05
-5.87725e-06
5.7282e-06
2.14114e-05
-5.04816e-06
4.80858e-06
2.20311e-05
-4.75333e-06
4.13369e-06
2.27375e-05
-5.33463e-06
4.62823e-06
2.28899e-05
-5.63208e-06
5.47966e-06
2.26268e-05
-5.98857e-06
6.25161e-06
2.24759e-05
-6.13404e-06
6.28498e-06
2.24536e-05
-5.52026e-06
5.54252e-06
2.23604e-05
-4.27932e-06
4.37252e-06
2.21396e-05
-2.80997e-06
3.03084e-06
2.21612e-05
-1.31022e-06
1.28855e-06
2.25317e-05
2.86585e-07
-6.57093e-07
2.29692e-05
2.0174e-06
-2.45482e-06
2.35433e-05
2.92346e-06
-3.49756e-06
2.39677e-05
3.37649e-06
-3.8009e-06
2.4111e-05
3.76788e-06
-3.91124e-06
2.44501e-05
3.4503e-06
-3.78936e-06
2.52571e-05
2.70185e-06
-3.5089e-06
2.60228e-05
2.21035e-06
-2.97597e-06
2.6572e-05
1.85356e-06
-2.40282e-06
2.72684e-05
1.10454e-06
-1.80096e-06
2.78127e-05
2.26492e-07
-7.70736e-07
2.79072e-05
-9.98401e-07
9.03918e-07
2.76525e-05
-2.32738e-06
2.58207e-06
2.73574e-05
-3.61066e-06
3.90577e-06
2.72519e-05
-5.16745e-06
5.27293e-06
2.70444e-05
-7.06188e-06
7.26942e-06
2.66103e-05
-9.19276e-06
9.6268e-06
2.61021e-05
-1.13048e-05
1.18129e-05
2.53566e-05
-1.24696e-05
1.32151e-05
2.44218e-05
-1.29294e-05
1.38643e-05
2.31539e-05
-1.25992e-05
1.38671e-05
2.18272e-05
-1.20239e-05
1.33505e-05
2.07316e-05
-1.10204e-05
1.2116e-05
1.95534e-05
-9.68134e-06
1.08595e-05
1.83218e-05
-8.69223e-06
9.92383e-06
1.72535e-05
-7.74526e-06
8.81353e-06
1.62273e-05
-6.19888e-06
7.22514e-06
1.49772e-05
-4.31571e-06
5.56577e-06
1.34176e-05
-2.75799e-06
4.31755e-06
1.14795e-05
-1.63616e-06
3.57429e-06
9.22675e-06
-8.54277e-07
3.10705e-06
6.75782e-06
-6.75923e-08
2.53652e-06
4.44795e-06
9.65556e-07
1.34432e-06
2.44978e-06
2.69802e-06
-6.99851e-07
1.0605e-06
4.94642e-06
-3.55714e-06
3.20213e-07
7.71993e-06
-6.97965e-06
4.47897e-07
1.05667e-05
-1.06944e-05
1.17948e-06
1.32192e-05
-1.39508e-05
2.59269e-06
1.4967e-05
-1.63802e-05
4.31415e-06
1.60829e-05
-1.78044e-05
6.0659e-06
1.62129e-05
-1.79647e-05
7.83152e-06
1.571e-05
-1.74756e-05
9.37346e-06
1.48268e-05
-1.63688e-05
1.08592e-05
1.33858e-05
-1.48715e-05
1.22121e-05
1.17403e-05
-1.30932e-05
1.35776e-05
9.68401e-06
-1.10495e-05
1.49268e-05
7.5033e-06
-8.85248e-06
1.60939e-05
5.78252e-06
-6.9496e-06
1.73183e-05
3.55678e-06
-4.78121e-06
1.84246e-05
9.8648e-07
-2.09273e-06
1.92219e-05
-1.29228e-06
4.94982e-07
2.01441e-05
-3.91373e-06
2.99145e-06
2.06946e-05
-6.02284e-06
5.47237e-06
2.10354e-05
-7.53973e-06
7.19894e-06
2.17039e-05
-9.92924e-06
9.26072e-06
2.21264e-05
-1.19474e-05
1.15249e-05
2.22278e-05
-1.28277e-05
1.27264e-05
2.31189e-05
-1.54158e-05
1.45247e-05
2.39307e-05
-1.79127e-05
1.71008e-05
2.38427e-05
-1.87397e-05
1.88277e-05
2.37395e-05
-1.94582e-05
1.95615e-05
2.46892e-05
-2.18171e-05
2.08674e-05
2.58273e-05
-2.40742e-05
2.29361e-05
2.61529e-05
-2.48275e-05
2.45019e-05
2.60886e-05
-2.49137e-05
2.4978e-05
2.61018e-05
-2.49954e-05
2.49821e-05
2.67185e-05
-2.50371e-05
2.44205e-05
2.76402e-05
-2.49569e-05
2.40351e-05
2.87457e-05
-2.41318e-05
2.30264e-05
2.98543e-05
-2.28582e-05
2.17496e-05
3.064e-05
-2.07609e-05
1.99753e-05
3.13076e-05
-1.81392e-05
1.74716e-05
3.15755e-05
-1.44182e-05
1.41502e-05
3.19469e-05
-1.14843e-05
1.1113e-05
3.21102e-05
-8.37331e-06
8.20993e-06
3.25374e-05
-5.59197e-06
5.16483e-06
3.26049e-05
-2.28371e-06
2.21624e-06
3.25877e-05
8.47385e-07
-8.30246e-07
3.23149e-05
4.10268e-06
-3.82988e-06
3.23738e-05
6.49101e-06
-6.54993e-06
3.2539e-05
8.86335e-06
-9.02856e-06
3.30418e-05
1.08332e-05
-1.13359e-05
3.27332e-05
1.33134e-05
-1.30049e-05
3.23561e-05
1.50919e-05
-1.47148e-05
3.16798e-05
1.66295e-05
-1.59532e-05
3.06536e-05
1.68988e-05
-1.58726e-05
2.89636e-05
1.72649e-05
-1.55749e-05
2.65566e-05
1.58884e-05
-1.34814e-05
2.4919e-05
1.36658e-05
-1.20282e-05
2.27394e-05
1.2099e-05
-9.91943e-06
2.1138e-05
8.6734e-06
-7.072e-06
1.8897e-05
6.10715e-06
-3.86619e-06
1.71149e-05
4.03426e-06
-2.2522e-06
1.50853e-05
2.82372e-06
-7.94061e-07
1.36283e-05
2.24363e-07
1.23258e-06
1.19888e-05
-9.31564e-07
2.57104e-06
1.04987e-05
-1.0111e-06
2.50128e-06
8.56383e-06
6.81796e-07
1.25305e-06
6.47666e-06
2.32977e-06
-2.42602e-07
4.84703e-06
5.14661e-06
-3.51697e-06
3.59809e-06
9.09866e-06
-7.84972e-06
4.00893e-06
1.26532e-05
-1.3064e-05
4.52213e-06
1.63278e-05
-1.6841e-05
6.06058e-06
1.70114e-05
-1.85499e-05
7.7973e-06
1.77576e-05
-1.94943e-05
8.03918e-06
1.909e-05
-1.93319e-05
8.71993e-06
1.90793e-05
-1.976e-05
9.10023e-06
2.16628e-05
-2.20431e-05
9.34678e-06
2.13408e-05
-2.15874e-05
9.82891e-06
2.22484e-05
-2.27306e-05
1.01577e-05
2.1398e-05
-2.17268e-05
9.77107e-06
2.02269e-05
-1.98402e-05
8.93606e-06
1.66562e-05
-1.58212e-05
7.97837e-06
1.36085e-05
-1.26508e-05
6.83795e-06
8.82316e-06
-7.68274e-06
6.09159e-06
4.50549e-06
-3.75913e-06
5.67684e-06
2.06313e-06
-1.64838e-06
4.5751e-06
3.73978e-06
-2.63805e-06
5.23181e-06
5.17466e-06
-5.83137e-06
1.29458e-05
-1.3962e-05
6.24801e-06
1.33167e-05
-2.76877e-07
1.33838e-05
1.73857e-08
1.3439e-05
1.02226e-07
1.35162e-05
9.7489e-08
1.36305e-05
-6.28175e-08
1.37854e-05
-1.71498e-07
1.39479e-05
-3.28139e-07
1.40922e-05
-3.5981e-07
1.4191e-05
-4.40251e-07
1.42779e-05
-4.15171e-07
1.43492e-05
-4.62801e-07
1.44202e-05
-3.96353e-07
1.44738e-05
-4.40035e-07
1.45275e-05
-3.8951e-07
1.45395e-05
-4.23548e-07
1.45582e-05
-3.7518e-07
1.45418e-05
-4.13162e-07
1.45139e-05
-3.13711e-07
1.44601e-05
-3.34186e-07
1.44366e-05
-2.12138e-07
1.43635e-05
-1.37025e-07
1.43468e-05
1.66003e-08
1.43072e-05
1.12342e-07
1.42954e-05
3.60669e-07
1.43156e-05
4.28629e-07
1.43841e-05
6.34512e-07
1.44933e-05
7.398e-07
1.46256e-05
8.96952e-07
1.48673e-05
8.75607e-07
1.50738e-05
1.01844e-06
1.53785e-05
8.90047e-07
1.57079e-05
8.60641e-07
1.60574e-05
6.39505e-07
1.64004e-05
5.21097e-07
1.6716e-05
1.80001e-07
1.70752e-05
-6.98813e-08
1.73564e-05
-3.91039e-07
1.75857e-05
-5.17318e-07
1.78272e-05
-8.46978e-07
1.80879e-05
-9.45462e-07
1.81689e-05
-9.58021e-07
1.82254e-05
-7.85537e-07
1.83725e-05
-7.83617e-07
1.85073e-05
-3.33083e-07
1.86049e-05
1.58207e-07
1.88177e-05
6.3966e-07
1.91775e-05
8.32046e-07
1.95057e-05
1.56646e-06
1.98374e-05
1.91213e-06
2.05171e-05
1.93061e-06
2.12593e-05
1.76998e-06
2.206e-05
1.95967e-06
2.2886e-05
1.77435e-06
2.3851e-05
1.11856e-06
2.4561e-05
7.66773e-07
2.50393e-05
5.14181e-08
2.55661e-05
-1.05942e-06
2.59163e-05
-2.10193e-06
2.60028e-05
-2.77848e-06
2.59104e-05
-3.70782e-06
2.56719e-05
-4.70495e-06
2.53728e-05
-5.26371e-06
2.52442e-05
-5.76041e-06
2.51203e-05
-6.28921e-06
2.49294e-05
-6.56204e-06
2.48272e-05
-6.59066e-06
2.48253e-05
-6.6927e-06
2.48401e-05
-6.50681e-06
2.47911e-05
-6.35566e-06
2.4933e-05
-6.01909e-06
2.52401e-05
-5.35534e-06
2.55249e-05
-5.03806e-06
2.57688e-05
-5.57858e-06
2.59264e-05
-5.7897e-06
2.5695e-05
-5.75719e-06
2.50385e-05
-5.47746e-06
2.45486e-05
-5.03038e-06
2.42237e-05
-3.95439e-06
2.37803e-05
-2.36666e-06
2.31991e-05
-7.2902e-07
2.30767e-05
4.09042e-07
2.36789e-05
1.41521e-06
2.43002e-05
2.30211e-06
2.48522e-05
2.82454e-06
2.56109e-05
3.00918e-06
2.5946e-05
3.11516e-06
2.59686e-05
2.67927e-06
2.63965e-05
1.7824e-06
2.69751e-05
1.27502e-06
2.73962e-05
6.83382e-07
2.77997e-05
-1.76923e-07
2.79938e-05
-1.1925e-06
2.81203e-05
-2.45387e-06
2.81105e-05
-3.6009e-06
2.80334e-05
-5.09033e-06
2.80941e-05
-7.12256e-06
2.79038e-05
-9.0025e-06
2.71832e-05
-1.05842e-05
2.59803e-05
-1.12667e-05
2.45821e-05
-1.15312e-05
2.31352e-05
-1.11523e-05
2.15571e-05
-1.04457e-05
2.0444e-05
-9.9073e-06
1.97649e-05
-9.00227e-06
1.89047e-05
-7.83196e-06
1.79354e-05
-6.77599e-06
1.70438e-05
-5.30723e-06
1.60135e-05
-3.28543e-06
1.46844e-05
-1.42894e-06
1.30832e-05
-3.49e-08
1.12725e-05
9.56359e-07
9.21232e-06
1.99262e-06
7.10828e-06
3.06959e-06
5.35222e-06
4.45408e-06
4.08455e-06
6.21409e-06
3.50286e-06
8.30163e-06
3.46136e-06
1.06082e-05
4.18121e-06
1.24994e-05
5.28439e-06
1.38638e-05
6.84651e-06
1.45208e-05
8.42862e-06
1.46308e-05
9.97554e-06
1.41631e-05
1.15536e-05
1.32487e-05
1.2877e-05
1.20624e-05
1.42258e-05
1.03915e-05
1.55596e-05
8.3502e-06
1.68975e-05
6.16548e-06
1.80319e-05
4.64806e-06
1.93249e-05
2.26383e-06
2.02105e-05
1.00851e-07
2.08986e-05
-1.9804e-06
2.16528e-05
-4.66794e-06
2.17901e-05
-6.1601e-06
2.21419e-05
-7.89152e-06
2.29317e-05
-1.07191e-05
2.2883e-05
-1.18987e-05
2.30766e-05
-1.30213e-05
2.41075e-05
-1.64467e-05
2.4268e-05
-1.80732e-05
2.36227e-05
-1.80944e-05
2.38287e-05
-1.96643e-05
2.49887e-05
-2.29771e-05
2.51732e-05
-2.42587e-05
2.46168e-05
-2.42712e-05
2.42043e-05
-2.45012e-05
2.45969e-05
-2.53879e-05
2.57719e-05
-2.62121e-05
2.66537e-05
-2.58387e-05
2.75959e-05
-2.5074e-05
2.81068e-05
-2.33692e-05
2.85792e-05
-2.12332e-05
2.86347e-05
-1.81948e-05
2.88979e-05
-1.46814e-05
2.89349e-05
-1.15213e-05
2.94194e-05
-8.85787e-06
3.0118e-05
-6.29056e-06
3.0712e-05
-2.87769e-06
3.07194e-05
8.39936e-07
3.02968e-05
4.52533e-06
3.02442e-05
6.54366e-06
3.01329e-05
8.97465e-06
3.02833e-05
1.06827e-05
3.06225e-05
1.29742e-05
3.06237e-05
1.50908e-05
3.02433e-05
1.70098e-05
2.88866e-05
1.82554e-05
2.80183e-05
1.81333e-05
2.64237e-05
1.7483e-05
2.4335e-05
1.57545e-05
2.20075e-05
1.44265e-05
2.00333e-05
1.06476e-05
1.85735e-05
7.56698e-06
1.65442e-05
6.06353e-06
1.4768e-05
4.59995e-06
1.28937e-05
2.09863e-06
1.18826e-05
7.95376e-08
1.00216e-05
8.4986e-07
8.77515e-06
1.92827e-06
6.89045e-06
4.21447e-06
5.84631e-06
6.19075e-06
5.00995e-06
9.93502e-06
5.06914e-06
1.2594e-05
6.44752e-06
1.49494e-05
7.3839e-06
1.6075e-05
8.67058e-06
1.64709e-05
9.19454e-06
1.85661e-05
9.55682e-06
1.8717e-05
1.02433e-05
2.09763e-05
1.11034e-05
2.04808e-05
1.15587e-05
2.17931e-05
1.21202e-05
2.08365e-05
1.22169e-05
2.01302e-05
1.14781e-05
1.73949e-05
1.07465e-05
1.43401e-05
9.04309e-06
1.05266e-05
6.97836e-06
6.57022e-06
6.18376e-06
2.85773e-06
6.17613e-06
3.74741e-06
7.55612e-06
3.79467e-06
1.1094e-05
9.40795e-06
1.99257e-05
-2.1022e-07
1.99498e-05
-6.72018e-09
2.00271e-05
2.48769e-08
2.01085e-05
1.60848e-08
2.02256e-05
-1.79916e-07
2.03275e-05
-2.73383e-07
2.04344e-05
-4.34995e-07
2.05115e-05
-4.3697e-07
2.05729e-05
-5.01642e-07
2.061e-05
-4.52183e-07
2.06621e-05
-5.1499e-07
2.06971e-05
-4.31319e-07
2.075e-05
-4.92962e-07
2.078e-05
-4.19477e-07
2.0796e-05
-4.39563e-07
2.07968e-05
-3.75942e-07
2.07972e-05
-4.13594e-07
2.07459e-05
-2.62374e-07
2.07097e-05
-2.98035e-07
2.06699e-05
-1.72342e-07
2.06042e-05
-7.1335e-08
2.0552e-05
6.87856e-08
2.05413e-05
1.23044e-07
2.04829e-05
4.19117e-07
2.04793e-05
4.32186e-07
2.05519e-05
5.61957e-07
2.05798e-05
7.11937e-07
2.06817e-05
7.95028e-07
2.08585e-05
6.98768e-07
2.10628e-05
8.14123e-07
2.12393e-05
7.13582e-07
2.15498e-05
5.50103e-07
2.18551e-05
3.34262e-07
2.21327e-05
2.43478e-07
2.23857e-05
-7.30315e-08
2.27096e-05
-3.93706e-07
2.29858e-05
-6.67307e-07
2.317e-05
-7.0151e-07
2.33218e-05
-9.98753e-07
2.35223e-05
-1.14601e-06
2.36765e-05
-1.11222e-06
2.37002e-05
-8.09178e-07
2.37927e-05
-8.76132e-07
2.39918e-05
-5.32187e-07
2.40671e-05
8.29093e-08
2.42325e-05
4.74284e-07
2.45124e-05
5.52139e-07
2.48275e-05
1.25133e-06
2.50669e-05
1.67275e-06
2.55707e-05
1.42682e-06
2.59857e-05
1.35491e-06
2.64009e-05
1.54447e-06
2.69436e-05
1.23169e-06
2.75182e-05
5.44018e-07
2.79839e-05
3.01022e-07
2.83847e-05
-3.49348e-07
2.87568e-05
-1.43157e-06
2.8939e-05
-2.28408e-06
2.92312e-05
-3.07074e-06
2.94635e-05
-3.94008e-06
2.94775e-05
-4.71892e-06
2.94555e-05
-5.24172e-06
2.94724e-05
-5.77731e-06
2.9493e-05
-6.30985e-06
2.94978e-05
-6.56683e-06
2.95002e-05
-6.59302e-06
2.93874e-05
-6.57988e-06
2.93577e-05
-6.47713e-06
2.92733e-05
-6.27134e-06
2.90826e-05
-5.82835e-06
2.90763e-05
-5.34905e-06
2.91109e-05
-5.07267e-06
2.88653e-05
-5.33295e-06
2.84999e-05
-5.42435e-06
2.79273e-05
-5.18459e-06
2.69417e-05
-4.49178e-06
2.58811e-05
-3.96981e-06
2.51108e-05
-3.18414e-06
2.46023e-05
-1.85809e-06
2.44116e-05
-5.3832e-07
2.41074e-05
7.13216e-07
2.39311e-05
1.5915e-06
2.44571e-05
1.77617e-06
2.51808e-05
2.10079e-06
2.57751e-05
2.41489e-06
2.66582e-05
2.23204e-06
2.72816e-05
2.05591e-06
2.75446e-05
1.51932e-06
2.78277e-05
9.92002e-07
2.80035e-05
5.07539e-07
2.83787e-05
-5.52073e-07
2.85587e-05
-1.37258e-06
2.8555e-05
-2.45016e-06
2.88063e-05
-3.85215e-06
2.89494e-05
-5.23351e-06
2.87988e-05
-6.97188e-06
2.83863e-05
-8.59e-06
2.75969e-05
-9.79483e-06
2.65822e-05
-1.02519e-05
2.52372e-05
-1.01862e-05
2.39406e-05
-9.85575e-06
2.25496e-05
-9.05466e-06
2.11447e-05
-8.50241e-06
2.02225e-05
-8.08013e-06
1.9362e-05
-6.97138e-06
1.84914e-05
-5.90545e-06
1.7658e-05
-4.4738e-06
1.69363e-05
-2.56376e-06
1.59243e-05
-4.16959e-07
1.46206e-05
1.26883e-06
1.30244e-05
2.55256e-06
1.15059e-05
3.5111e-06
9.79424e-06
4.78128e-06
8.35001e-06
5.89831e-06
7.13811e-06
7.42599e-06
6.70571e-06
8.73403e-06
6.71747e-06
1.05964e-05
7.37973e-06
1.18371e-05
8.39041e-06
1.28531e-05
9.49937e-06
1.34118e-05
1.10409e-05
1.30893e-05
1.24022e-05
1.28018e-05
1.38601e-05
1.17908e-05
1.51688e-05
1.07537e-05
1.64064e-05
9.15381e-06
1.76487e-05
7.1079e-06
1.8729e-05
5.08523e-06
1.97909e-05
3.58616e-06
2.09402e-05
1.11456e-06
2.14486e-05
-4.07611e-07
2.22336e-05
-2.76535e-06
2.2731e-05
-5.16535e-06
2.26682e-05
-6.09732e-06
2.33728e-05
-8.59612e-06
2.38787e-05
-1.1225e-05
2.3408e-05
-1.1428e-05
2.41883e-05
-1.38015e-05
2.48438e-05
-1.71023e-05
2.39786e-05
-1.7208e-05
2.3311e-05
-1.74268e-05
2.41924e-05
-2.05456e-05
2.45499e-05
-2.33346e-05
2.35569e-05
-2.32657e-05
2.27484e-05
-2.34627e-05
2.25795e-05
-2.43323e-05
2.35065e-05
-2.63149e-05
2.43022e-05
-2.70077e-05
2.47373e-05
-2.62738e-05
2.49583e-05
-2.5295e-05
2.49471e-05
-2.3358e-05
2.50066e-05
-2.12927e-05
2.48121e-05
-1.80002e-05
2.49497e-05
-1.48189e-05
2.49408e-05
-1.15125e-05
2.5797e-05
-9.714e-06
2.67945e-05
-7.28812e-06
2.78388e-05
-3.92195e-06
2.81704e-05
5.08331e-07
2.80899e-05
4.60579e-06
2.77033e-05
6.93032e-06
2.76922e-05
8.98568e-06
2.7459e-05
1.09159e-05
2.76515e-05
1.27818e-05
2.76049e-05
1.51374e-05
2.78754e-05
1.67394e-05
2.71961e-05
1.89347e-05
2.60068e-05
1.93225e-05
2.47293e-05
1.87605e-05
2.30687e-05
1.74151e-05
2.16987e-05
1.57965e-05
1.96577e-05
1.26886e-05
1.81446e-05
9.08006e-06
1.57827e-05
8.4255e-06
1.40321e-05
6.35052e-06
1.20834e-05
4.04732e-06
1.0611e-05
1.55192e-06
9.44097e-06
2.01992e-06
8.56845e-06
2.8008e-06
7.90467e-06
4.87825e-06
7.03138e-06
7.06404e-06
6.95152e-06
1.00149e-05
6.73009e-06
1.28154e-05
8.02557e-06
1.36539e-05
8.94328e-06
1.51573e-05
9.73668e-06
1.56775e-05
1.04295e-05
1.78733e-05
1.10894e-05
1.80571e-05
1.14384e-05
2.06273e-05
1.25415e-05
1.93776e-05
1.36594e-05
2.06752e-05
1.42064e-05
2.02896e-05
1.44502e-05
1.98864e-05
1.44965e-05
1.73486e-05
1.3792e-05
1.50447e-05
1.31679e-05
1.11507e-05
1.1417e-05
8.32115e-06
9.17736e-06
5.09737e-06
7.12486e-06
5.79991e-06
7.33434e-06
3.58519e-06
8.70416e-06
9.72419e-06
2.54309e-05
-1.40517e-07
2.54358e-05
-1.15762e-08
2.55768e-05
-1.16139e-07
2.57202e-05
-1.27351e-07
2.58657e-05
-3.25436e-07
2.59433e-05
-3.50918e-07
2.59986e-05
-4.90375e-07
2.60243e-05
-4.62586e-07
2.60324e-05
-5.0983e-07
2.60381e-05
-4.57846e-07
2.60514e-05
-5.28292e-07
2.60576e-05
-4.37543e-07
2.60736e-05
-5.08909e-07
2.60976e-05
-4.43469e-07
2.60842e-05
-4.26142e-07
2.60995e-05
-3.91236e-07
2.60917e-05
-4.05891e-07
2.60584e-05
-2.29006e-07
2.60192e-05
-2.58902e-07
2.60237e-05
-1.7683e-07
2.59489e-05
3.48408e-09
2.59353e-05
8.24417e-08
2.59414e-05
1.16888e-07
2.59434e-05
4.17135e-07
2.59169e-05
4.58663e-07
2.60433e-05
4.35545e-07
2.60949e-05
6.60374e-07
2.61759e-05
7.14026e-07
2.63247e-05
5.50001e-07
2.65431e-05
5.95724e-07
2.66993e-05
5.5732e-07
2.68906e-05
3.58787e-07
2.71578e-05
6.7108e-08
2.73843e-05
1.69614e-08
2.75672e-05
-2.5595e-07
2.77616e-05
-5.88077e-07
2.79715e-05
-8.77226e-07
2.80996e-05
-8.29565e-07
2.81627e-05
-1.06191e-06
2.82402e-05
-1.22348e-06
2.83269e-05
-1.19891e-06
2.83448e-05
-8.27069e-07
2.82837e-05
-8.15016e-07
2.84197e-05
-6.68253e-07
2.85499e-05
-4.72427e-08
2.86691e-05
3.55079e-07
2.87951e-05
4.26173e-07
2.91424e-05
9.03971e-07
2.95347e-05
1.28049e-06
2.98445e-05
1.11701e-06
3.01515e-05
1.04794e-06
3.05817e-05
1.1142e-06
3.10262e-05
7.87196e-07
3.13332e-05
2.37035e-07
3.17103e-05
-7.60921e-08
3.21299e-05
-7.68962e-07
3.24267e-05
-1.72835e-06
3.25708e-05
-2.42819e-06
3.26957e-05
-3.19559e-06
3.27578e-05
-4.00224e-06
3.27949e-05
-4.75602e-06
3.28263e-05
-5.27312e-06
3.27446e-05
-5.69558e-06
3.26648e-05
-6.23008e-06
3.242e-05
-6.322e-06
3.21756e-05
-6.34863e-06
3.19732e-05
-6.37747e-06
3.17037e-05
-6.20766e-06
3.13221e-05
-5.88966e-06
3.09792e-05
-5.48554e-06
3.07124e-05
-5.08224e-06
3.03632e-05
-4.72344e-06
2.98919e-05
-4.86166e-06
2.91013e-05
-4.63376e-06
2.81083e-05
-4.1916e-06
2.71241e-05
-3.50756e-06
2.58722e-05
-2.71792e-06
2.50114e-05
-2.32328e-06
2.46102e-05
-1.4569e-06
2.43845e-05
-3.12685e-07
2.43534e-05
7.44389e-07
2.43341e-05
1.61076e-06
2.44233e-05
1.68694e-06
2.47985e-05
1.7256e-06
2.53337e-05
1.87969e-06
2.60079e-05
1.55789e-06
2.67077e-05
1.35611e-06
2.72893e-05
9.37709e-07
2.79845e-05
2.96811e-07
2.85695e-05
-7.74654e-08
2.88299e-05
-8.12461e-07
2.91616e-05
-1.70434e-06
2.94084e-05
-2.69698e-06
2.95096e-05
-3.95331e-06
2.95655e-05
-5.28943e-06
2.94347e-05
-6.84105e-06
2.88935e-05
-8.04886e-06
2.77122e-05
-8.61353e-06
2.63321e-05
-8.87176e-06
2.49817e-05
-8.83584e-06
2.38481e-05
-8.7221e-06
2.31701e-05
-8.37664e-06
2.23488e-05
-7.68114e-06
2.13522e-05
-7.08355e-06
2.03387e-05
-5.95791e-06
1.92086e-05
-4.7753e-06