/*--------------------------------*- C++ -*----------------------------------*\
| =========                 |                                                 |
| \\      /  F ield         | OpenFOAM: The Open Source CFD Toolbox           |
|  \\    /   O peration     | Version:  2.4.0                                 |
|   \\  /    A nd           | Web:      www.OpenFOAM.org                      |
|    \\/     M anipulation  |                                                 |
\*---------------------------------------------------------------------------*/
FoamFile
{
    version     2.0;
    format      ascii;
    class       volScalarField;
    location    "1.08";
    object      pMean;
}
// * * * * * * * * * * * * * * * * * * * * * * * * * * * * * * * * * * * * * //

dimensions      [0 2 -2 0 0 0 0];

internalField   nonuniform List<scalar> 
8800
(
87.8082
75.3409
67.9234
64.3428
62.4414
60.9863
59.7638
58.5901
57.5453
56.4869
55.5216
54.506
53.5872
52.6144
51.7613
50.8575
50.0914
49.2876
48.611
47.844
84.6983
74.9867
68.0916
64.4566
62.5012
61.0116
59.7713
58.5905
57.5431
56.4845
55.5187
54.5039
53.5844
52.6128
51.7589
50.8553
50.0921
49.2835
48.6142
47.8043
82.7339
75.063
68.692
64.8323
62.6682
61.0911
59.8178
58.6232
57.5672
56.5015
55.5287
54.5088
53.5857
52.6109
51.7567
50.8472
50.092
49.2702
48.6788
47.8555
81.1993
75.1254
69.2765
65.256
62.8511
61.1797
59.8799
58.6803
57.6152
56.5409
55.5554
54.5273
53.5956
52.6161
51.7564
50.8406
50.0823
49.2587
48.7445
48.0907
79.9519
75.0996
69.7501
65.6621
63.0191
61.2485
59.9282
58.7395
57.6701
56.5938
55.5894
54.5566
53.6069
52.6288
51.7514
50.8415
50.0565
49.2508
48.674
48.4162
78.9688
75.0036
70.1131
66.009
63.1689
61.2935
59.9552
58.7864
57.7187
56.6449
55.6228
54.5862
53.6165
52.6405
51.7436
50.8408
50.0303
49.248
48.6895
48.8793
78.2128
74.889
70.3791
66.2888
63.3034
61.3212
59.9628
58.8197
57.757
56.6869
55.6506
54.61
53.6235
52.6473
51.7355
50.8365
50.0133
49.2573
48.7711
49.1997
77.6606
74.788
70.5616
66.5
63.4222
61.3392
59.9581
58.842
57.7853
56.7197
55.6713
54.6287
53.6273
52.6525
51.728
50.8373
50.0058
49.282
48.8379
49.4393
77.3
74.7166
70.6772
66.6437
63.5061
61.3511
59.9509
58.8563
57.8052
56.7441
55.6861
54.6428
53.6305
52.6585
51.7253
50.8438
50.0093
49.3127
48.907
49.6242
77.1191
74.683
70.7351
66.7186
63.5492
61.3588
59.946
58.865
57.8164
56.7595
55.6948
54.6526
53.634
52.6659
51.7286
50.8554
50.0213
49.3441
48.9647
49.7426
77.1116
74.6918
70.7364
66.7221
63.5486
61.3611
59.9443
58.868
57.8164
56.7635
55.6957
54.6577
53.6367
52.6741
51.7359
50.8702
50.0374
49.3729
49.0046
49.8102
77.2796
74.7409
70.6806
66.6526
63.5041
61.3574
59.9463
58.8643
57.8056
56.7552
55.6888
54.6573
53.6388
52.6822
51.7472
50.8872
50.0585
49.397
49.0266
49.8244
77.6308
74.8233
70.5654
66.5108
63.4177
61.3479
59.9509
58.8534
57.7853
56.7363
55.6748
54.6513
53.6396
52.6902
51.7623
50.9079
50.0856
49.4206
49.0284
49.7805
78.1765
74.9298
70.3824
66.2985
63.2947
61.3304
59.9533
58.8323
57.7553
56.7064
55.6534
54.6385
53.6381
52.6968
51.7791
50.9322
50.1193
49.4502
49.0152
49.6596
78.9299
75.0462
70.1167
66.017
63.1564
61.3017
59.9456
58.7991
57.7157
56.6659
55.6255
54.6186
53.6338
52.6993
51.7963
50.9576
50.1614
49.49
49.0127
49.4562
79.9112
75.1444
69.7538
65.6708
63.0042
61.2568
59.9192
58.7537
57.6669
56.6171
55.5932
54.5939
53.6279
52.6979
51.8132
50.9811
50.2102
49.5407
49.0403
49.1906
81.1571
75.1719
69.2815
65.268
62.8349
61.1891
59.8715
58.6971
57.6122
56.5674
55.5606
54.5696
53.6209
52.6941
51.8275
50.9989
50.2575
49.5892
49.0978
48.914
82.6907
75.1092
68.6991
64.847
62.6516
61.101
59.8098
58.6409
57.5653
56.5291
55.5365
54.5531
53.6161
52.6927
51.838
51.0123
50.2912
49.6263
49.1554
48.77
84.6535
75.031
68.1003
64.4734
62.4849
61.0214
59.7635
58.6086
57.5419
56.5126
55.5275
54.5492
53.6167
52.6961
51.8449
51.0225
50.307
49.6479
49.1524
48.6922
87.7619
75.3834
67.9319
64.3601
62.4257
60.9961
59.7561
58.6086
57.544
56.5155
55.5303
54.552
53.6195
52.6986
51.8481
51.0259
50.3107
49.6536
49.1539
48.8114
47.8373
47.6926
47.3912
47.0836
46.8386
46.6579
46.5345
46.4489
46.3848
46.335
46.2949
46.2545
46.2122
46.1658
46.1134
46.0526
45.9844
45.9034
45.8133
45.7096
45.5983
45.4862
45.3807
45.2829
45.199
45.1313
45.0814
45.0405
45.003
44.9575
44.9025
44.8374
44.7705
44.708
44.6548
44.6067
44.5615
44.5075
44.4449
44.3712
44.2934
44.2127
44.1433
44.0921
44.0694
44.0728
44.1053
44.1553
44.2183
44.2783
44.3265
44.346
44.3356
44.2854
44.2068
44.0946
43.969
43.8275
43.6859
43.5324
43.3744
43.2028
43.0309
42.858
42.7003
42.568
42.4736
42.4255
42.4265
42.4652
42.5398
42.6346
42.7489
42.8641
42.985
43.0905
43.189
43.256
43.3004
43.3012
43.2698
43.1955
43.0996
42.971
42.843
42.7097
42.5964
42.5082
42.4524
42.4411
42.4783
42.5726
42.7208
42.9132
43.1414
43.389
43.647
43.8966
44.132
44.3408
44.5245
44.6773
44.8055
44.8895
44.9578
44.9926
45.0235
45.0357
45.06
45.0665
45.0771
45.0735
45.0688
45.0522
45.0316
45.0053
44.9795
44.9506
44.926
44.8968
44.8738
44.8445
44.8314
44.8121
44.8198
44.8108
44.8407
44.847
44.8973
44.9372
45.0175
45.0945
45.2007
45.3098
45.4459
45.5859
45.749
45.9117
46.0909
46.2663
46.4568
46.6501
46.858
47.0701
47.2962
47.5217
47.7591
47.9987
48.2444
48.4918
48.7384
48.9818
49.2261
49.4597
49.692
49.9152
50.1496
50.3634
50.5919
50.8001
51.025
51.2078
51.4111
51.5627
51.7329
51.8398
51.9705
52.032
52.1158
52.1304
52.1964
52.176
52.2453
52.2145
52.3195
52.2902
52.4501
52.4331
52.6327
52.6514
52.8702
52.936
53.1933
53.328
53.6241
53.8325
54.1619
54.4105
54.774
55.0286
55.394
55.598
55.856
55.8206
55.7106
54.9842
53.8193
50.667
46.66
26.6238
47.6397
47.5765
47.4379
47.1944
46.9324
46.7168
46.5753
46.4945
46.4527
46.4249
46.4007
46.3687
46.3305
46.2837
46.2317
46.1708
46.1031
46.0248
45.939
45.8427
45.7408
45.6376
45.5408
45.4508
45.3734
45.3074
45.2552
45.2106
45.1715
45.1287
45.0811
45.0252
44.9675
44.9096
44.8573
44.8066
44.7577
44.7026
44.6424
44.5727
44.5005
44.4271
44.3636
44.3143
44.2883
44.2836
44.3038
44.3392
44.386
44.4295
44.4638
44.4736
44.4592
44.41
44.336
44.2309
44.1108
43.9725
43.8299
43.6767
43.5198
43.3538
43.187
43.0229
42.8707
42.7415
42.6449
42.5868
42.5726
42.594
42.6503
42.7274
42.825
42.9275
43.0335
43.1285
43.2108
43.2667
43.2963
43.2884
43.2504
43.1762
43.0818
42.9667
42.848
42.7328
42.6301
42.5555
42.507
42.4993
42.5344
42.622
42.7574
42.933
43.1417
43.3716
43.6119
43.8482
44.0741
44.2808
44.4646
44.6214
44.7498
44.8377
44.9073
44.9466
44.9775
44.9897
45.0046
45.0065
45.0049
44.9931
44.9734
44.9414
44.8996
44.8525
44.8011
44.7503
44.7013
44.65
44.6092
44.5616
44.5355
44.502
44.4987
44.4798
44.4959
44.4961
44.5336
44.5657
44.6351
44.7035
44.8026
44.9043
45.0359
45.168
45.3253
45.4804
45.6528
45.8188
46.0038
46.1874
46.3895
46.5911
46.813
47.0273
47.2623
47.4925
47.738
47.9785
48.2235
48.4599
48.7058
48.9295
49.164
49.3816
49.6221
49.8313
50.072
50.2803
50.5144
50.6994
50.91
51.0592
51.2282
51.3281
51.4509
51.4931
51.5654
51.5526
51.6052
51.5464
51.6051
51.5311
51.6284
51.5601
51.703
51.6651
51.8355
51.8431
52.0295
52.0768
52.2865
52.3945
52.6379
52.7882
53.0702
53.227
53.523
53.6445
53.876
53.8637
53.9077
53.4896
53.0088
51.441
49.7741
44.1585
38.4306
19.992
47.5946
47.5995
47.6017
47.4113
47.0981
46.7968
46.598
46.5041
46.4842
46.4891
46.4927
46.4777
46.4469
46.4001
46.3452
46.2805
46.2108
46.1328
46.05
45.9597
45.8674
45.7739
45.6869
45.6055
45.5352
45.4731
45.4224
45.3777
45.3391
45.2989
45.2574
45.2094
45.1598
45.1073
45.0575
45.0063
44.9558
44.9004
44.8426
44.7786
44.7136
44.6485
44.5918
44.5462
44.5188
44.5081
44.5169
44.5374
44.5672
44.5936
44.6128
44.6112
44.5899
44.5394
44.4662
44.3663
44.2496
44.1158
43.9738
43.8235
43.6686
43.5098
43.3511
43.1973
43.055
42.9321
42.8379
42.7753
42.7498
42.757
42.7967
42.8584
42.9402
43.0295
43.1221
43.2049
43.2725
43.316
43.3314
43.3157
43.2712
43.2008
43.1096
43.0076
42.8986
42.7972
42.7058
42.6392
42.5945
42.5849
42.614
42.6908
42.8096
42.9675
43.1555
43.3678
43.5893
43.8128
44.0287
44.2313
44.4142
44.5733
44.7023
44.7949
44.8686
44.9147
44.9483
44.9636
44.9744
44.9756
44.9684
44.9527
44.9226
44.8783
44.82
44.7549
44.6853
44.6117
44.5451
44.4713
44.4191
44.3541
44.3209
44.275
44.2645
44.2408
44.246
44.2435
44.2694
44.2974
44.3563
44.4184
44.5114
44.6076
44.7342
44.8591
45.0098
45.1567
45.3218
45.4784
45.6585
45.8363
46.0365
46.234
46.4525
46.6614
46.8942
47.1185
47.3645
47.593
47.8335
48.0596
48.3024
48.5153
48.75
48.9632
49.2015
49.4098
49.6591
49.8735
50.1097
50.3015
50.5143
50.6595
50.8255
50.9117
51.0266
51.0421
51.1071
51.0684
51.1114
51.0189
51.0711
50.9619
51.0477
50.958
51.0634
51.0175
51.1385
51.1369
51.2727
51.3014
51.4628
51.5234
51.725
51.7935
52.0227
52.0709
52.2822
52.2479
52.3688
52.0748
51.9745
51.0093
50.4307
47.7031
45.8891
38.9136
31.9827
19.4209
47.7294
47.7027
47.6486
47.3724
47.0038
46.6923
46.5151
46.4632
46.4944
46.5482
46.5912
46.6022
46.584
46.539
46.4794
46.4077
46.3323
46.2514
46.17
46.0849
46.0011
45.9175
45.8407
45.7688
45.7067
45.6508
45.6041
45.5618
45.5252
45.4877
45.4506
45.4086
45.3649
45.3169
45.269
45.2184
45.1681
45.1141
45.0598
45.002
44.9455
44.889
44.8397
44.7974
44.7687
44.7513
44.7487
44.7537
44.7656
44.7742
44.7772
44.7644
44.7354
44.6833
44.6107
44.5156
44.4035
44.2763
44.1394
43.9954
43.8476
43.6982
43.5505
43.4085
43.2777
43.1636
43.0737
43.0097
42.9765
42.9717
42.9965
43.0432
43.1095
43.1846
43.2624
43.331
43.3839
43.4148
43.4184
43.3964
43.348
43.2802
43.1932
43.1
43.001
42.9095
42.8264
42.7615
42.7142
42.6972
42.7163
42.779
42.8804
43.0197
43.1894
43.3829
43.5885
43.7983
44.0068
44.2035
44.3854
44.5442
44.6744
44.7699
44.8481
44.902
44.9406
44.9631
44.9771
44.9823
44.9766
44.9589
44.9212
44.8663
44.796
44.7143
44.6337
44.5416
44.4642
44.3738
44.3113
44.2315
44.1921
44.1371
44.1226
44.0938
44.0939
44.0856
44.1072
44.1319
44.1876
44.2492
44.3385
44.4331
44.5546
44.6747
44.8187
44.9567
45.1139
45.2622
45.438
45.6104
45.8088
46.0049
46.2226
46.4323
46.6656
46.8867
47.131
47.3451
47.582
47.792
48.0284
48.2254
48.4606
48.6657
48.9053
49.1118
49.3716
49.58
49.8248
50.0079
50.2319
50.3585
50.5321
50.5939
50.7119
50.6926
50.7584
50.6848
50.7265
50.6035
50.6557
50.531
50.5895
50.4963
50.5531
50.4995
50.5684
50.5462
50.6358
50.6334
50.7538
50.7546
50.9095
50.8841
51.0604
50.9554
51.1472
50.8436
50.9928
50.2431
50.2154
48.5006
47.9345
44.344
41.9594
35.3979
28.0004
19.5844
49.1287
48.8225
47.8738
47.0685
46.5445
46.2929
46.2556
46.3393
46.473
46.5991
46.6917
46.735
46.7337
46.6937
46.6304
46.5515
46.4683
46.3824
46.2996
46.218
46.1416
46.0683
46.0024
45.9415
45.8889
45.8412
45.8006
45.7627
45.7291
45.6949
45.6611
45.6234
45.5841
45.5404
45.4959
45.4483
45.4007
45.3501
45.2999
45.2478
45.1976
45.1474
45.1024
45.0614
45.0295
45.0044
44.9891
44.9788
44.9734
44.9662
44.9547
44.932
44.8958
44.8422
44.7707
44.6815
44.5767
44.4592
44.3323
44.1992
44.0629
43.9255
43.791
43.6619
43.5439
43.4399
43.3562
43.2942
43.2575
43.2448
43.2576
43.2916
43.3427
43.4028
43.4636
43.5163
43.5536
43.5721
43.5664
43.5392
43.4889
43.4216
43.3388
43.2501
43.1572
43.0688
42.9873
42.9175
42.8624
42.8334
42.8398
42.8859
42.9714
43.0926
43.2476
43.425
43.6177
43.8175
44.0192
44.2115
44.393
44.5512
44.6833
44.7825
44.8661
44.9277
44.9725
45.005
45.0241
45.035
45.0316
45.0109
44.9673
44.9013
44.8229
44.7294
44.6424
44.54
44.4538
44.355
44.2827
44.1996
44.1545
44.1012
44.0808
44.0508
44.0458
44.034
44.0576
44.0787
44.1402
44.2008
44.2946
44.3871
44.5089
44.6239
44.7664
44.8949
45.0489
45.1883
45.3618
45.5249
45.7248
45.9177
46.1416
46.3524
46.5914
46.8084
47.0532
47.2506
47.4859
47.6737
47.9042
48.0788
48.314
48.5003
48.7499
48.9466
49.2186
49.4096
49.6694
49.8314
50.0685
50.1709
50.3554
50.3866
50.5116
50.4582
50.5251
50.4159
50.454
50.3136
50.3603
50.2398
50.2751
50.1751
50.2049
50.1231
50.1635
50.0981
50.1685
50.1025
50.212
50.114
50.2633
50.0671
50.2662
49.8913
50.1412
49.4598
49.663
48.4521
48.34
46.2015
45.181
41.6193
38.4505
33.2409
26.2699
20.0444
50.0982
49.6573
48.1505
46.9177
46.1828
45.9181
45.9809
46.1939
46.4398
46.6501
46.8005
46.8811
46.8994
46.866
46.7996
46.7128
46.6199
46.5264
46.4396
46.359
46.2876
46.223
46.1674
46.1176
46.075
46.0364
46.0027
45.9705
45.9406
45.9096
45.8785
45.8443
45.8085
45.7692
45.7284
45.6849
45.6407
45.5943
45.5481
45.5009
45.4548
45.4089
45.3657
45.3247
45.2888
45.2569
45.2307
45.2077
45.1874
45.1661
45.1412
45.1086
45.0656
45.0098
44.94
44.8567
44.7606
44.6541
44.5392
44.4187
44.2954
44.1722
44.0523
43.9383
43.8345
43.7429
43.6682
43.6117
43.5759
43.5604
43.5667
43.5926
43.6323
43.6788
43.7236
43.7614
43.7849
43.7918
43.7783
43.7461
43.6929
43.6238
43.5407
43.4503
43.3564
43.2651
43.1803
43.1025
43.0367
42.9911
42.9839
43.014
43.0846
43.1913
43.3348
43.5001
43.6818
43.875
44.0717
44.2617
44.4429
44.6042
44.7399
44.846
44.9363
45.0049
45.0575
45.0985
45.1239
45.137
45.1339
45.1065
45.0569
44.9784
44.8962
44.7963
44.7056
44.6004
44.5082
44.4089
44.3326
44.257
44.2107
44.1653
44.1402
44.1137
44.1034
44.0988
44.1248
44.1558
44.2249
44.2876
44.3895
44.4786
44.603
44.7121
44.8559
44.9771
45.1324
45.2658
45.4369
45.5934
45.7985
45.9866
46.2226
46.4345
46.6826
46.8965
47.1382
47.3216
47.5494
47.7153
47.9369
48.083
48.3212
48.4805
48.7373
48.9183
49.1993
49.3654
49.6463
49.7739
50.0322
50.0981
50.2998
50.2952
50.4318
50.3343
50.4111
50.2635
50.3112
50.1562
50.2115
50.078
50.1286
49.9923
50.0307
49.8929
49.938
49.794
49.8784
49.717
49.8374
49.6124
49.7561
49.3913
49.5606
48.9853
49.1428
48.2588
48.2264
46.8699
46.3332
44.227
42.7035
39.6307
36.1877
32.2677
26.2625
21.0973
50.7085
50.2495
48.4605
46.9441
46.0184
45.6793
45.7719
46.0689
46.4061
46.6943
46.9031
47.0244
47.0652
47.0398
46.9699
46.8743
46.7704
46.6684
46.5758
46.4944
46.4259
46.3684
46.3214
46.282
46.249
46.2198
46.1935
46.1679
46.1424
46.1151
46.0863
46.0547
46.0211
45.9848
45.9467
45.9067
45.8657
45.8234
45.7807
45.7373
45.6941
45.6508
45.6085
45.5671
45.5277
45.4904
45.4557
45.4229
45.3909
45.3581
45.3221
45.2809
45.2322
45.1748
45.1073
45.03
44.9427
44.8473
44.7449
44.6381
44.5291
44.4209
44.3158
44.217
44.1268
44.0477
43.9824
43.9332
43.9019
43.8898
43.8963
43.9197
43.9539
43.9907
44.023
44.0473
44.0594
44.058
44.0383
44.0002
43.9429
43.8698
43.7823
43.6852
43.5858
43.4889
43.3977
43.3093
43.2305
43.1681
43.1453
43.1626
43.2232
43.3217
43.4582
43.6161
43.7919
43.9808
44.1729
44.3635
44.5452
44.7103
44.8505
44.9664
45.0594
45.1325
45.192
45.2374
45.2669
45.2784
45.2754
45.2417
45.1869
45.0993
45.0122
44.9094
44.8165
44.7149
44.622
44.5315
44.461
44.401
44.3611
44.3264
44.303
44.2822
44.2726
44.2778
44.3101
44.3585
44.4329
44.511
44.613
44.7089
44.8309
44.9421
45.0848
45.2095
45.3676
45.5022
45.6731
45.8332
46.0403
46.2298
46.4685
46.6882
46.9416
47.1536
47.3863
47.5607
47.772
47.927
48.1309
48.2494
48.4847
48.6197
48.8626
49.0338
49.3182
49.4564
49.7574
49.854
50.123
50.1632
50.3722
50.3567
50.4933
50.3739
50.434
50.2753
50.316
50.1722
50.2237
50.0955
50.1407
49.995
50.0144
49.8474
49.8626
49.6746
49.7061
49.4936
49.5318
49.2452
49.2792
48.8312
48.8555
48.1904
48.1281
47.2185
46.8996
45.5307
44.746
42.7467
41.0608
38.5918
35.306
32.2639
27.2985
22.7127
51.1451
50.6934
48.7476
47.0523
45.9899
45.5615
45.6359
45.976
46.3782
46.7299
46.9891
47.1484
47.2119
47.196
47.1243
47.0219
46.9089
46.7997
46.7022
46.6201
46.5537
46.502
46.4623
46.4319
46.4075
46.3871
46.3679
46.3487
46.3277
46.3044
46.2781
46.2491
46.2172
46.1832
46.1471
46.1097
46.0708
46.0312
45.9904
45.9492
45.9071
45.865
45.8224
45.7801
45.7378
45.6965
45.6555
45.6154
45.5746
45.5332
45.4892
45.4424
45.3904
45.3334
45.2692
45.1986
45.1205
45.0368
44.9473
44.8548
44.7599
44.666
44.5745
44.4893
44.4114
44.3447
44.29
44.2504
44.2264
44.2205
44.2296
44.253
44.283
44.3127
44.3353
44.35
44.3537
44.347
44.3238
44.2817
44.22
44.1417
44.0471
43.9415
43.8348
43.7299
43.6327
43.5348
43.4437
43.369
43.334
43.3434
43.3986
43.4948
43.6251
43.7774
43.9482
44.1329
44.3236
44.5156
44.7013
44.8729
45.017
45.1385
45.2309
45.3092
45.3715
45.4155
45.4439
45.4513
45.4467
45.4114
45.3513
45.2603
45.1669
45.0676
44.9775
44.8865
44.8029
44.7303
44.6738
44.6345
44.6078
44.5891
44.5741
44.5641
44.5627
44.5825
44.6271
44.6905
44.7731
44.8608
44.9619
45.0705
45.1918
45.3125
45.4553
45.5915
45.7523
45.8975
46.0683
46.2386
46.4464
46.6398
46.8842
47.1054
47.3612
47.5705
47.8018
47.9599
48.1523
48.3085
48.4905
48.5953
48.8205
48.9226
49.1529
49.2972
49.5832
49.6952
50.0015
50.094
50.3568
50.3937
50.6075
50.5943
50.7262
50.5888
50.614
50.4633
50.4793
50.3615
50.4068
50.2936
50.3337
50.1829
50.1892
49.9979
49.9801
49.7555
49.7144
49.4534
49.3907
49.0383
48.9631
48.4136
48.3165
47.6002
47.3786
46.4642
46.0145
44.6504
43.804
42.0008
40.2851
38.3496
35.3821
32.8021
28.6959
24.5471
51.4007
50.9672
48.9692
47.1821
46.0347
45.5364
45.5786
45.9345
46.3763
46.7737
47.0712
47.2603
47.3426
47.3357
47.2635
47.1568
47.0375
46.9237
46.8231
46.741
46.6766
46.6296
46.5957
46.5726
46.5553
46.5421
46.529
46.5153
46.4984
46.4787
46.4549
46.4283
46.398
46.3658
46.3311
46.2953
46.2574
46.219
46.1788
46.1382
46.0961
46.0539
46.0102
45.9667
45.9219
45.8774
45.8317
45.7863
45.7395
45.6927
45.6439
45.5943
45.5415
45.4864
45.4266
45.3635
45.2948
45.2226
45.1453
45.0663
44.9851
44.9053
44.8271
44.7553
44.6904
44.6368
44.594
44.5655
44.55
44.5505
44.5634
44.5871
44.6128
44.6366
44.6514
44.6586
44.6572
44.6482
44.6229
44.5792
44.5155
44.4333
44.3317
44.2168
44.0993
43.9855
43.8808
43.7731
43.6778
43.5956
43.5563
43.5635
43.6192
43.7138
43.8387
43.9825
44.1495
44.3316
44.5253
44.7193
44.9121
45.0941
45.2463
45.3704
45.4645
45.5444
45.6036
45.641
45.6614
45.664
45.658
45.6208
45.5596
45.4716
45.3801
45.2897
45.2095
45.1331
45.0671
45.0155
44.9809
44.9656
44.9586
44.962
44.9618
44.9673
44.9812
45.0146
45.0723
45.1483
45.2419
45.3375
45.4443
45.5646
45.6877
45.8171
45.9645
46.1062
46.2728
46.43
46.6068
46.7915
47.002
47.2035
47.4535
47.676
47.9406
48.1369
48.3838
48.5072
48.6898
48.8396
48.9938
49.0942
49.313
49.3689
49.6058
49.7125
50.0063
50.0906
50.4018
50.4804
50.7524
50.7608
51.0097
50.9989
51.1375
50.9369
50.9351
50.808
50.8202
50.726
50.7639
50.6661
50.7159
50.5542
50.5583
50.3411
50.3031
50.0469
49.9526
49.6274
49.5004
49.0743
48.8623
48.3012
48.0631
47.4597
47.1596
46.2271
45.737
44.3926
43.4814
41.9121
40.2024
38.6251
36.0139
33.6323
30.1535
26.4142
51.5657
51.1468
49.1301
47.3008
46.1097
45.5726
45.5939
45.9556
46.4193
46.8429
47.1624
47.3677
47.4599
47.4571
47.3841
47.2746
47.1523
47.0369
46.9362
46.8557
46.7943
46.7516
46.7228
46.7054
46.6938
46.6861
46.6777
46.6683
46.6548
46.6381
46.6166
46.592
46.5633
46.5326
46.4987
46.4638
46.4263
46.3882
46.3478
46.307
46.2642
46.2211
46.176
46.1307
46.0836
46.0366
45.988
45.9397
45.8897
45.8403
45.7893
45.739
45.6873
45.6357
45.5817
45.5266
45.4676
45.4062
45.3408
45.2746
45.2066
45.1402
45.0754
45.0174
44.9658
44.9252
44.8955
44.879
44.8734
44.8823
44.9005
44.9244
44.9461
44.9653
44.9758
44.9774
44.9716
44.9612
44.9365
44.8943
44.8304
44.7444
44.6374
44.5157
44.3884
44.2621
44.1489
44.0324
43.9363
43.8514
43.8146
43.8221
43.885
43.9803
44.1031
44.2399
44.407
44.5882
44.7833
44.979
45.1829
45.3766
45.5399
45.6651
45.7592
45.8342
45.8862
45.9145
45.9272
45.9267
45.9208
45.8846
45.8285
45.7487
45.6669
45.5915
45.5279
45.4717
45.4273
45.3985
45.3908
45.4004
45.4208
45.4479
45.4696
45.4952
45.5291
45.5734
45.6431
45.7257
45.83
45.931
46.0499
46.1761
46.308
46.4407
46.5968
46.7388
46.9201
47.0853
47.2766
47.4764
47.7009
47.9102
48.1718
48.3873
48.6698
48.8468
49.1101
49.1761
49.3749
49.4908
49.6509
49.7289
49.9345
49.9434
50.2051
50.2706
50.5885
50.622
50.9765
51.01
51.3399
51.2671
51.588
51.5621
51.7454
51.4256
51.4502
51.319
51.3556
51.2752
51.3465
51.2373
51.3178
51.1218
51.1514
50.8836
50.8655
50.5707
50.4745
50.0532
49.8431
49.3521
49.1053
48.5804
48.3086
47.709
47.3843
46.4346
45.8765
44.6043
43.5582
42.2211
40.6069
39.1989
36.8895
34.6016
31.5552
28.2034
51.6638
51.2497
49.2252
47.3867
46.1898
45.6501
45.6737
46.041
46.5121
46.9413
47.2639
47.4699
47.5611
47.5561
47.4818
47.3721
47.2514
47.1389
47.0421
46.9658
46.909
46.8709
46.8469
46.834
46.8265
46.8223
46.817
46.8101
46.7989
46.7843
46.7647
46.7417
46.7145
46.685
46.6521
46.6176
46.5805
46.5422
46.5014
46.4598
46.4161
46.3717
46.3254
46.2786
46.23
46.1813
46.1311
46.0812
46.0303
45.9805
45.9302
45.8813
45.8322
45.7848
45.7372
45.6902
45.6414
45.5914
45.5388
45.4859
45.4316
45.3791
45.3292
45.2856
45.2474
45.2194
45.2034
45.1999
45.205
45.2216
45.2442
45.2677
45.287
45.3029
45.3098
45.3088
45.3022
45.2919
45.2695
45.2312
45.1696
45.0822
44.9713
44.8421
44.707
44.5698
44.4491
44.3272
44.2338
44.1495
44.1251
44.1344
44.2083
44.3049
44.4293
44.5596
44.7323
44.9127
45.1108
45.305
45.5218
45.7238
45.8968
46.0198
46.1102
46.1726
46.2145
46.2333
46.2452
46.2459
46.2425
46.2105
46.1681
46.1002
46.041
45.9839
45.9483
45.9093
45.8958
45.8894
45.9133
45.9441
45.9963
46.0429
46.0993
46.1445
46.2068
46.2619
46.3455
46.4258
46.5419
46.6385
46.7715
46.8919
47.038
47.1705
47.3392
47.4809
47.6818
47.8563
48.0733
48.285
48.5346
48.7444
49.0273
49.2245
49.5416
49.6758
49.9599
49.95
50.2001
50.2578
50.4553
50.4713
50.6909
50.6621
50.9624
50.9779
51.327
51.2949
51.6959
51.6982
52.0985
51.9623
52.3813
52.3044
52.5234
52.0927
52.2065
52.0369
52.1425
52.0095
52.1399
52.0226
52.1283
51.8977
51.9481
51.6439
51.6475
51.3266
51.1763
50.7074
50.5088
50.0469
49.7518
49.1659
48.8276
48.2303
47.9691
46.9616
46.2426
45.0717
43.949
42.7942
41.3449
39.955
37.8412
35.6326
32.891
29.8808
51.6905
51.2696
49.2496
47.4375
46.2743
45.7701
45.8207
46.1958
46.6595
47.0728
47.3789
47.5694
47.6481
47.6351
47.559
47.452
47.3375
47.2322
47.143
47.0737
47.0232
46.9902
46.9702
46.9602
46.955
46.9523
46.9485
46.9427
46.9329
46.9194
46.9012
46.8796
46.8538
46.8252
46.7934
46.7593
46.7226
46.6843
46.6438
46.6021
46.5582
46.513
46.466
46.4181
46.3688
46.3194
46.2692
46.2197
46.1704
46.1222
46.0744
46.0283
45.9837
45.9416
45.9007
45.8615
45.8227
45.7845
45.7455
45.7066
45.6668
45.6289
45.595
45.5668
45.5437
45.5297
45.5277
45.5359
45.5497
45.5709
45.5959
45.6192
45.6363
45.6468
45.6481
45.6446
45.6391
45.6326
45.6169
45.586
45.5305
45.4474
45.3367
45.2035
45.0611
44.9156
44.7881
44.6657
44.5774
44.5031
44.498
44.5104
44.5971
44.6923
44.819
44.9393
45.12
45.2987
45.5015
45.6921
45.9245
46.1314
46.3163
46.4343
46.5179
46.5552
46.592
46.5967
46.6154
46.6183
46.6246
46.6002
46.5804
46.531
46.5063
46.4701
46.4722
46.4538
46.4799
46.4932
46.5529
46.6034
46.694
46.7595
46.8481
46.9117
47.0062
47.0722
47.1731
47.2548
47.3723
47.4637
47.6059
47.721
47.8779
48.0158
48.1923
48.3505
48.5696
48.7543
48.9932
49.2157
49.4848
49.7026
49.9906
50.1686
50.4998
50.6205
50.861
50.8241
51.1469
51.1121
51.3691
51.2901
51.5443
51.4867
51.8138
51.832
52.1795
52.1238
52.5684
52.5551
52.9888
52.8529
53.2981
53.2161
53.4145
52.9462
53.1151
52.9312
53.1068
52.9808
53.1466
53.0169
53.129
52.8979
52.9472
52.6346
52.6067
52.2567
52.0493
51.6091
51.3713
50.9012
50.5282
50.0091
49.7357
49.1227
48.653
47.6382
46.8111
45.7231
44.6468
43.5501
42.2293
40.7902
38.8078
36.6917
34.1793
31.448
51.6178
51.1854
49.2019
47.4638
46.3788
45.9502
46.0476
46.4253
46.8614
47.2356
47.504
47.6621
47.717
47.6915
47.6143
47.5138
47.41
47.3163
47.2385
47.1788
47.1362
47.1087
47.0923
47.0839
47.0795
47.0767
47.0729
47.067
47.0577
47.0448
47.0278
47.0072
46.9828
46.9553
46.9247
46.8917
46.8562
46.8189
46.7792
46.7378
46.6942
46.6488
46.6017
46.5538
46.5052
46.4569
46.4089
46.3621
46.3159
46.2709
46.2273
46.1859
46.147
46.1116
46.0789
46.0486
46.0197
45.9926
45.9671
45.9429
45.9182
45.8951
45.8768
45.864
45.8567
45.8586
45.8706
45.889
45.9105
45.9361
45.9624
45.9832
45.9958
45.9999
45.9965
45.9919
45.988
45.9849
45.9774
45.9562
45.9102
45.836
45.7314
45.5992
45.4533
45.3072
45.1779
45.0598
44.9756
44.918
44.9311
44.9534
45.0495
45.1397
45.2624
45.3789
45.5721
45.7462
45.9511
46.1398
46.3909
46.599
46.7978
46.9067
46.984
46.9971
47.0277
47.021
47.0553
47.0582
47.0819
47.0669
47.0744
47.0498
47.0667
47.0573
47.1021
47.1134
47.1848
47.2239
47.3253
47.3949
47.5177
47.5977
47.719
47.7976
47.9238
48.0016
48.1205
48.1982
48.3178
48.405
48.5512
48.671
48.8417
48.9924
49.179
49.359
49.584
49.7838
50.0445
50.2706
50.5432
50.7716
51.0444
51.2264
51.5195
51.6666
51.8362
51.8119
52.1422
52.054
52.3081
52.2295
52.5287
52.4471
52.7663
52.8212
53.0899
53.0752
53.5368
53.5776
54.0164
53.9502
54.3281
54.2947
54.3986
53.9406
54.1939
53.9579
54.2113
54.0864
54.2766
54.2086
54.2826
54.0871
54.073
53.8088
53.7474
53.3244
53.0637
52.6746
52.3784
51.9563
51.5862
51.1931
50.726
50.0688
49.4308
48.4773
47.597
46.5812
45.5995
44.4487
43.1869
41.6577
39.7902
37.764
35.4374
32.9284
51.3973
50.9599
49.0845
47.4983
46.5478
46.228
46.3712
46.7292
47.1101
47.4201
47.6305
47.741
47.7648
47.726
47.6504
47.5607
47.4721
47.394
47.3303
47.2822
47.248
47.2256
47.2117
47.2036
47.1983
47.1941
47.189
47.182
47.1721
47.1592
47.1425
47.1226
47.0991
47.0727
47.0438
47.0126
46.979
46.9435
46.9058
46.8659
46.8235
46.7791
46.7327
46.6859
46.6401
46.5956
46.5517
46.5084
46.4663
46.4262
46.388
46.3524
46.3206
46.293
46.2689
46.2486
46.2318
46.219
46.2085
46.1977
46.1868
46.1791
46.1766
46.1791
46.1884
46.2056
46.2295
46.2565
46.285
46.3152
46.3431
46.363
46.372
46.3692
46.3592
46.3522
46.3502
46.3531
46.3546
46.345
46.3132
46.2533
46.1595
46.0355
45.8924
45.7528
45.6236
45.5151
45.4391
45.4038
45.424
45.4508
45.5474
45.6338
45.7517
45.8866
46.0956
46.2717
46.4764
46.6728
46.9313
47.133
47.336
47.4409
47.5171
47.5151
47.5429
47.5344
47.5821
47.5902
47.632
47.6276
47.6635
47.6682
47.7255
47.7501
47.8388
47.887
48.0027
48.0773
48.2154
48.3096
48.4566
48.5521
48.6991
48.7928
48.9434
49.0373
49.1692
49.2482
49.369
49.4577
49.6105
49.737
49.9243
50.0921
50.2924
50.496
50.7129
50.9309
51.1873
51.4255
51.6889
51.9361
52.1635
52.3575
52.6147
52.7722
52.8908
52.9875
53.2021
53.1166
53.3104
53.287
53.5558
53.5283
53.8004
53.934
54.0586
54.1634
54.5857
54.6753
55.1264
55.1972
55.4705
55.4773
55.5395
55.1247
55.3605
55.2076
55.4228
55.2899
55.516
55.5395
55.5794
55.4104
55.3335
55.0561
54.9318
54.4851
54.198
53.8796
53.4818
53.2022
52.7301
52.3544
51.7748
51.2186
50.2802
49.4529
48.5206
47.6346
46.6789
45.4531
44.188
42.5564
40.7854
38.8318
36.6536
34.3154
50.9237
50.5106
48.9031
47.5931
46.8481
46.6421
46.7971
47.095
47.3869
47.6084
47.7442
47.8
47.7926
47.7437
47.6737
47.5982
47.5272
47.4663
47.4172
47.38
47.3529
47.3339
47.3206
47.3112
47.3038
47.297
47.2897
47.2811
47.2702
47.2567
47.2402
47.2207
47.1983
47.1734
47.1462
47.1171
47.086
47.0532
47.0184
46.981
46.941
46.8992
46.8564
46.8132
46.7708
46.7309
46.6935
46.6574
46.6216
46.5866
46.5539
46.5256
46.5028
46.4846
46.4704
46.4615
46.4578
46.4587
46.4634
46.4696
46.4759
46.4834
46.495
46.5122
46.5356
46.5644
46.5977
46.633
46.6684
46.7028
46.7317
46.75
46.7551
46.7465
46.7303
46.7188
46.7183
46.7277
46.7397
46.7438
46.7297
46.6888
46.6113
46.501
46.3701
46.2457
46.1206
46.0297
45.9618
45.9428
45.9637
46.001
46.0929
46.1718
46.29
46.46
46.68
46.8633
47.065
47.2842
47.5321
47.7294
47.9248
48.0329
48.1092
48.118
48.1377
48.1391
48.1944
48.2207
48.2785
48.2958
48.3506
48.3862
48.4746
48.5471
48.668
48.7674
48.9124
49.0342
49.1893
49.316
49.4768
49.5949
49.756
49.8715
50.0333
50.1448
50.2929
50.3755
50.5077
50.6078
50.7626
50.9085
51.1019
51.2823
51.4922
51.7023
51.9119
52.1475
52.3921
52.6374
52.9008
53.1692
53.3548
53.5655
53.7618
53.91
54.057
54.2187
54.2928
54.3441
54.4025
54.4944
54.6982
54.7012
54.8881
55.0607
55.145
55.3974
55.6237
55.9401
56.3426
56.4366
56.6708
56.7312
56.7239
56.4747
56.673
56.5992
56.7105
56.661
56.8344
56.9407
56.8773
56.7841
56.6395
56.3927
56.1755
55.7697
55.4335
55.1346
54.6668
54.5014
53.9359
53.609
52.8
52.351
51.2254
50.568
49.5756
48.8397
47.8092
46.5433
45.2312
43.5157
41.8128
39.9041
37.8432
35.6336
50.1607
49.8407
48.7085
47.7989
47.2987
47.1766
47.2868
47.4756
47.6482
47.7676
47.8276
47.8351
47.8045
47.7518
47.6906
47.6303
47.5759
47.53
47.4928
47.4634
47.4405
47.4226
47.4085
47.397
47.387
47.3778
47.3684
47.3583
47.3467
47.3329
47.3164
47.2972
47.2757
47.2521
47.2266
47.2001
47.1729
47.1443
47.1131
47.0794
47.0435
47.0056
46.9673
46.9302
46.8945
46.8608
46.8303
46.8029
46.7767
46.7501
46.7251
46.7065
46.6954
46.6896
46.6879
46.6913
46.701
46.7161
46.7338
46.7517
46.7716
46.7951
46.8222
46.8535
46.8888
46.9264
46.9658
47.0058
47.0455
47.0828
47.1119
47.1287
47.1307
47.1184
47.0983
47.0838
47.085
47.0994
47.1184
47.1322
47.132
47.1095
47.0531
46.9635
46.8518
46.7496
46.632
46.5704
46.516
46.5115
46.5295
46.5873
46.6667
46.7551
46.8859
47.0767
47.2872
47.4852
47.696
47.9395
48.1675
48.3709
48.5482
48.6692
48.7403
48.7745
48.7902
48.8207
48.8723
48.9299
48.9936
49.0501
49.1134
49.1908
49.2925
49.4177
49.5607
49.7136
49.8734
50.0388
50.1934
50.3573
50.5118
50.6571
50.8167
50.9663
51.1273
51.2803
51.4254
51.543
51.6682
51.8024
51.9499
52.1274
52.3106
52.5191
52.7189
52.9428
53.1463
53.3985
53.621
53.8777
54.1227
54.3869
54.5601
54.8141
54.917
55.1293
55.1926
55.3852
55.4275
55.5604
55.5688
55.7687
55.7981
55.8989
56.0053
56.2104
56.2304
56.6496
56.8077
57.3447
57.4516
57.6726
57.8456
57.9948
57.9991
58.0119
58.038
58.0189
58.0085
58.1104
58.1668
58.2621
58.1613
58.1269
57.8459
57.7986
57.328
57.0934
56.6999
56.4354
55.9536
55.8578
55.1334
54.7491
53.8375
53.477
52.2589
51.7755
50.6914
50.0373
48.8452
47.6272
46.2582
44.5144
42.8559
40.9699
39.0024
36.8805
49.3272
49.1599
48.6066
48.1334
47.8491
47.7413
47.7465
47.7974
47.848
47.8763
47.876
47.8501
47.807
47.7558
47.7039
47.656
47.6139
47.5781
47.548
47.5227
47.5013
47.4831
47.4676
47.4541
47.4423
47.4313
47.4205
47.4092
47.3968
47.3827
47.3662
47.3472
47.3265
47.305
47.2826
47.2588
47.2342
47.2095
47.1837
47.1549
47.1236
47.0922
47.0616
47.0312
47.0026
46.9789
46.9596
46.9426
46.9265
46.911
46.8993
46.8941
46.8954
46.9016
46.9131
46.9302
46.9522
46.9782
47.0075
47.0384
47.0692
47.1007
47.1354
47.1743
47.2156
47.2576
47.3001
47.3425
47.3835
47.4192
47.4459
47.4626
47.4678
47.4596
47.4417
47.4278
47.4289
47.4435
47.4661
47.4863
47.4962
47.488
47.4498
47.3829
47.2984
47.2325
47.1398
47.1077
47.0632
47.0789
47.1031
47.1891
47.2549
47.3675
47.4922