/*--------------------------------*- C++ -*----------------------------------*\
| =========                 |                                                 |
| \\      /  F ield         | OpenFOAM: The Open Source CFD Toolbox           |
|  \\    /   O peration     | Version:  2.4.0                                 |
|   \\  /    A nd           | Web:      www.OpenFOAM.org                      |
|    \\/     M anipulation  |                                                 |
\*---------------------------------------------------------------------------*/
FoamFile
{
    version     2.0;
    format      ascii;
    class       volScalarField;
    location    "1.81";
    object      nuSgs;
}
// * * * * * * * * * * * * * * * * * * * * * * * * * * * * * * * * * * * * * //

dimensions      [0 2 -1 0 0 0 0];

internalField   nonuniform List<scalar> 
8800
(
0.00133837
0.00150692
0.00139282
0.00122949
0.00112005
0.00105183
0.000995617
0.000961694
0.000924257
0.000906489
0.000877434
0.000869296
0.000846004
0.000841669
0.000820248
0.000817783
0.000797807
0.000794593
0.000786466
0.00075495
0.000553936
0.000982031
0.001083
0.00108154
0.00106222
0.00103574
0.000999998
0.000979164
0.000947572
0.000933203
0.000905615
0.000896732
0.000875267
0.000869045
0.000851975
0.000847285
0.000832198
0.000828092
0.000814001
0.000814962
0.000135592
0.0004061
0.000583551
0.000659765
0.000703565
0.000738812
0.0007501
0.000761183
0.000759691
0.0007594
0.000754681
0.000751871
0.000744515
0.000741291
0.000735813
0.000731091
0.000726745
0.000722928
0.000714657
0.000712378
2.69126e-05
0.000125433
0.000231208
0.000312363
0.000354975
0.000396983
0.000427447
0.000454927
0.000475109
0.000490944
0.000508856
0.000516014
0.000529586
0.000534487
0.000545809
0.000548479
0.000557573
0.000558222
0.000562859
0.000561635
5.11586e-06
3.34317e-05
6.78986e-05
0.000109376
0.000141426
0.000161702
0.000190954
0.000210783
0.000234374
0.000246434
0.000269838
0.000278798
0.000296759
0.000304563
0.00032188
0.000328327
0.000345132
0.000350249
0.000363165
0.000370849
2.38352e-06
8.45578e-06
1.76083e-05
2.91489e-05
4.28755e-05
5.04562e-05
6.39555e-05
7.25359e-05
8.74581e-05
9.48452e-05
0.0001097
0.000116824
0.000128491
0.000136509
0.000145994
0.000152754
0.000165412
0.000170843
0.000179314
0.000195268
2.22594e-06
3.17587e-06
5.09575e-06
8.41934e-06
1.08652e-05
1.37064e-05
1.60472e-05
2.03344e-05
2.31878e-05
2.79418e-05
3.14591e-05
3.77308e-05
4.06469e-05
4.64661e-05
4.92166e-05
5.48366e-05
5.81764e-05
6.4326e-05
6.81448e-05
8.09445e-05
2.16427e-06
2.69541e-06
3.17765e-06
4.14558e-06
4.48294e-06
5.19846e-06
5.49192e-06
6.23899e-06
6.61918e-06
7.59177e-06
8.15919e-06
9.98738e-06
1.0619e-05
1.26588e-05
1.3275e-05
1.51595e-05
1.58312e-05
1.80711e-05
1.96779e-05
2.69029e-05
2.14238e-06
2.53165e-06
2.91881e-06
3.67002e-06
3.91798e-06
3.99646e-06
4.04046e-06
4.20928e-06
4.31419e-06
4.41601e-06
4.43042e-06
4.50729e-06
4.52091e-06
4.86322e-06
5.02299e-06
5.46308e-06
5.55675e-06
5.79825e-06
6.01624e-06
7.40253e-06
2.13445e-06
2.54316e-06
3.02652e-06
3.25346e-06
3.59456e-06
3.86542e-06
3.92504e-06
3.94176e-06
3.94037e-06
3.97049e-06
4.03039e-06
4.04525e-06
4.02499e-06
4.04579e-06
4.05617e-06
4.1019e-06
4.1919e-06
4.24622e-06
4.30542e-06
4.38688e-06
2.13034e-06
2.52119e-06
3.09535e-06
3.36398e-06
3.56705e-06
3.85021e-06
3.91622e-06
3.97563e-06
3.94653e-06
3.9292e-06
3.94496e-06
4.03936e-06
4.09494e-06
4.1508e-06
4.13564e-06
4.13572e-06
4.16231e-06
4.30351e-06
4.31921e-06
4.34788e-06
2.14261e-06
2.49633e-06
2.93626e-06
3.72236e-06
3.94547e-06
3.92189e-06
3.90951e-06
4.0273e-06
4.2134e-06
4.46203e-06
4.53336e-06
4.57603e-06
4.59206e-06
4.64578e-06
4.7185e-06
5.04833e-06
5.62037e-06
5.82958e-06
6.02734e-06
6.20437e-06
2.15659e-06
2.6576e-06
3.19237e-06
4.14108e-06
4.39948e-06
4.96228e-06
5.39146e-06
6.37601e-06
6.91895e-06
7.9934e-06
8.47626e-06
9.67075e-06
1.03054e-05
1.18569e-05
1.27948e-05
1.5092e-05
1.63671e-05
1.85322e-05
1.99899e-05
2.25117e-05
2.18503e-06
3.08911e-06
5.1175e-06
8.5407e-06
1.04574e-05
1.41587e-05
1.65646e-05
2.15295e-05
2.42458e-05
2.93224e-05
3.1752e-05
3.73197e-05
3.99807e-05
4.58893e-05
4.90113e-05
5.59423e-05
5.94916e-05
6.65826e-05
7.05766e-05
7.99509e-05
2.34782e-06
8.23277e-06
1.79252e-05
3.10192e-05
3.94419e-05
5.42969e-05
6.21814e-05
7.74384e-05
8.52055e-05
9.93977e-05
0.000105696
0.000119282
0.000125222
0.000137967
0.00014401
0.00015748
0.000163744
0.000177328
0.000184414
0.000202572
5.22976e-06
3.29315e-05
7.04515e-05
0.000108049
0.000137117
0.000170133
0.000186417
0.000214923
0.000230853
0.000252474
0.000262396
0.000282981
0.000291402
0.000309035
0.000316789
0.000334339
0.000341758
0.000359039
0.000367162
0.000387752
2.72963e-05
0.000123938
0.000239517
0.000302629
0.000360592
0.000394987
0.000428158
0.000453743
0.000476414
0.000491401
0.000504521
0.000519258
0.000526288
0.000537341
0.000542279
0.000552467
0.000556087
0.000565416
0.000569254
0.000578759
0.000136773
0.000401039
0.000588159
0.000653943
0.00071086
0.000732497
0.000754754
0.000757384
0.000761734
0.000757294
0.000755861
0.0007494
0.00074691
0.000739118
0.000737142
0.00073086
0.000729163
0.000724778
0.000723097
0.000719201
0.000557587
0.000979994
0.00108411
0.00108061
0.00106486
0.0010293
0.001007
0.00097144
0.000955185
0.000924621
0.000913732
0.000888902
0.000882049
0.000862553
0.000857921
0.000841173
0.000837572
0.000822354
0.000817318
0.000804097
0.00133938
0.00150551
0.00139386
0.00122707
0.00112347
0.00104649
0.00100165
0.000954887
0.000931336
0.000897968
0.000886594
0.000859989
0.000854485
0.000832658
0.000829131
0.000807268
0.000803491
0.000779827
0.000771718
0.000740934
0.000346986
0.000298602
0.000256533
0.00022106
0.000192781
0.000171486
0.000158257
0.000149049
0.00014716
0.000147876
0.000150131
0.000154912
0.000160397
0.000165043
0.000168622
0.000170453
0.000170575
0.000170164
0.000169076
0.000166713
0.000164543
0.000162891
0.000162458
0.000163035
0.000164068
0.000166665
0.000168143
0.000171186
0.000172448
0.000174639
0.000175513
0.000177292
0.00017771
0.000178655
0.000178539
0.000178437
0.000177998
0.000176964
0.000175777
0.000174573
0.00017129
0.00016931
0.000164607
0.000162688
0.000159502
0.000155897
0.00015018
0.000143301
0.000137797
0.000131704
0.000127919
0.000124601
0.000122273
0.000121869
0.000120821
0.000121038
0.000124147
0.000126799
0.000132784
0.000139677
0.000143266
0.000147284
0.00014808
0.000146976
0.000145227
0.000141626
0.000134502
0.000128224
0.000115788
0.000105792
9.32344e-05
8.07064e-05
6.76506e-05
5.56438e-05
5.16391e-05
5.226e-05
5.5267e-05
6.14533e-05
6.71508e-05
7.76684e-05
0.000101657
0.000135751
0.000147901
0.000148075
0.000145354
0.000139153
0.000134799
0.000129774
0.000124647
0.000122336
0.000119489
0.000115962
0.000113549
0.000110678
0.000107181
0.000102211
9.58871e-05
8.81745e-05
8.25978e-05
7.23491e-05
6.26396e-05
5.06847e-05
4.07984e-05
3.45719e-05
3.10856e-05
3.00399e-05
3.02586e-05
3.08123e-05
3.24576e-05
3.43309e-05
3.60691e-05
3.91152e-05
4.11637e-05
4.38743e-05
4.6923e-05
5.12224e-05
5.71003e-05
5.89005e-05
5.8384e-05
5.56198e-05
5.11977e-05
4.73698e-05
4.6038e-05
4.59113e-05
4.60646e-05
4.66583e-05
4.81714e-05
5.20018e-05
6.4426e-05
8.00805e-05
8.92239e-05
9.31818e-05
9.31511e-05
9.21505e-05
9.06863e-05
8.86059e-05
8.44767e-05
7.91117e-05
7.39224e-05
6.9629e-05
6.6081e-05
6.34758e-05
6.14648e-05
6.05917e-05
6.0614e-05
6.12401e-05
6.32074e-05
6.95305e-05
7.68853e-05
9.00362e-05
9.99907e-05
0.000102067
0.000101526
0.000100257
0.000100238
0.000100158
9.78727e-05
8.8626e-05
8.09473e-05
7.75201e-05
7.89482e-05
7.84189e-05
7.90495e-05
7.25345e-05
6.09411e-05
5.49024e-05
4.80297e-05
4.42494e-05
4.316e-05
4.09021e-05
4.10874e-05
4.05328e-05
4.27154e-05
4.18978e-05
4.52187e-05
4.45241e-05
4.91971e-05
4.79659e-05
4.86797e-05
4.76402e-05
5.15692e-05
5.19095e-05
5.97409e-05
6.37136e-05
7.1363e-05
7.44809e-05
7.51219e-05
7.29858e-05
6.97378e-05
6.98947e-05
7.35291e-05
7.39792e-05
7.52891e-05
7.55165e-05
7.67944e-05
8.28296e-05
0.000108329
0.000116861
0.000151588
0.000238053
0.000412208
0.00037391
0.000342072
0.000316431
0.000294547
0.000276317
0.000260873
0.000248916
0.000238735
0.000231471
0.000225191
0.000221282
0.000217682
0.000215416
0.00021317
0.000211467
0.000209571
0.000207746
0.000205738
0.000203907
0.000201309
0.000199834
0.000196571
0.000195485
0.000192994
0.000192117
0.000190304
0.000189688
0.00018882
0.000187881
0.000187647
0.000186793
0.000186636
0.000186167
0.000185935
0.000185726
0.000185179
0.00018521
0.000184863
0.000184956
0.000184787
0.000184865
0.000184812
0.000184403
0.000183755
0.000181255
0.000179361
0.000174922
0.000171775
0.000168019
0.000163149
0.000161896
0.000159361
0.000157434
0.000157246
0.000156044
0.000156218
0.0001567
0.000156341
0.000156812
0.000156684
0.000154814
0.00015294
0.000148899
0.000142452
0.000135008
0.000123564
0.000111074
9.54266e-05
7.80469e-05
6.24794e-05
5.02495e-05
4.41108e-05
3.87125e-05
3.51253e-05
3.36233e-05
3.35804e-05
3.5049e-05
3.93427e-05
4.44261e-05
5.43274e-05
7.09991e-05
9.872e-05
0.00012375
0.00013237
0.000132648
0.000132003
0.000130333
0.000126523
0.000123525
0.000120409
0.000114939
0.000110162
0.000104392
9.71752e-05
8.9119e-05
7.78583e-05
6.65095e-05
5.29421e-05
4.19247e-05
3.40532e-05
2.91995e-05
2.68768e-05
2.69648e-05
2.75507e-05
2.91868e-05
3.23782e-05
3.56955e-05
4.2535e-05
4.61772e-05
4.98929e-05
5.19659e-05
5.43366e-05
5.56899e-05
5.69925e-05
6.0455e-05
6.20328e-05
6.16008e-05
5.94361e-05
5.53488e-05
5.11411e-05
4.95748e-05
4.97544e-05
4.99642e-05
5.02625e-05
5.10574e-05
5.39009e-05
6.30648e-05
8.1073e-05
9.21997e-05
9.66049e-05
9.65593e-05
9.43917e-05
9.16926e-05
8.88797e-05
8.37145e-05
7.83824e-05
7.28364e-05
6.79218e-05
6.4413e-05
6.17538e-05
5.99952e-05
5.88053e-05
5.78318e-05
5.75336e-05
5.76962e-05
5.84395e-05
6.07679e-05
6.54595e-05
7.36472e-05
9.19028e-05
9.98674e-05
0.000100948
0.000100848
0.00010058
0.000100488
9.91403e-05
9.18094e-05
8.38421e-05
7.78726e-05
7.87725e-05
7.82688e-05
7.78265e-05
7.36192e-05
6.21275e-05
5.62325e-05
4.97705e-05
4.47538e-05
4.38702e-05
4.16533e-05
4.16346e-05
4.06372e-05
4.28768e-05
4.2289e-05
4.36407e-05
4.29633e-05
4.37045e-05
4.38808e-05
4.46854e-05
4.47383e-05
4.73642e-05
5.05046e-05
6.01882e-05
6.44195e-05
7.19167e-05
7.36707e-05
7.64318e-05
7.33033e-05
7.41325e-05
7.28281e-05
8.18897e-05
8.4617e-05
9.35351e-05
8.77246e-05
9.11684e-05
8.71017e-05
0.000113835
0.000117864
0.000170859
0.00020617
0.000371896
0.000351373
0.000331098
0.000313584
0.00029803
0.000285176
0.000273321
0.000263765
0.000254477
0.000247234
0.000240312
0.000234372
0.000229534
0.000224456
0.00022121
0.000216738
0.000214104
0.000210704
0.000207801
0.000205983
0.000202461
0.000201099
0.000198128
0.000196406
0.000193759
0.000191488
0.000189872
0.000186602
0.000185348
0.00018239
0.000180946
0.000178152
0.000176991
0.000175127
0.000173505
0.000173033
0.000171556
0.000171291
0.000170671
0.00017076
0.000170967
0.000171215
0.000172409
0.000173012
0.000174746
0.000175793
0.000176077
0.000176145
0.000175259
0.000174901
0.000174023
0.000172423
0.000172069
0.000170771
0.000169474
0.000168768
0.000166589
0.000165618
0.000163732
0.000160116
0.000157691
0.000152614
0.000144893
0.000137038
0.000125768
0.000111762
9.56814e-05
7.68246e-05
6.08213e-05
4.89352e-05
3.97176e-05
3.33602e-05
2.99079e-05
2.62997e-05
2.37645e-05
2.27392e-05
2.19785e-05
2.22154e-05
2.33572e-05
2.54644e-05
2.95191e-05
3.82399e-05
4.86692e-05
6.34169e-05
8.49093e-05
9.56738e-05
0.000104512
0.00010682
0.000105846
0.000103161
9.88898e-05
9.15974e-05
8.38373e-05
7.47682e-05
6.24721e-05
5.16168e-05
4.22049e-05
3.4152e-05
2.86223e-05
2.492e-05
2.37695e-05
2.40182e-05
2.51766e-05
2.77885e-05
3.27716e-05
4.10762e-05
4.88642e-05
5.74369e-05
6.54253e-05
6.93437e-05
7.26794e-05
7.36523e-05
7.42036e-05
7.3935e-05
7.28329e-05
7.16448e-05
7.01691e-05
6.71375e-05
6.30457e-05
5.82415e-05
5.54289e-05
5.54098e-05
5.57637e-05
5.58256e-05
5.62886e-05
5.82388e-05
6.53162e-05
8.33701e-05
9.51894e-05
9.97836e-05
0.000100067
9.81919e-05
9.26423e-05
8.76893e-05
8.32619e-05
7.8356e-05
7.31429e-05
6.75078e-05
6.3418e-05
6.0677e-05
5.90491e-05
5.8157e-05
5.7777e-05
5.71677e-05
5.65104e-05
5.63782e-05
5.6571e-05
5.7378e-05
5.94837e-05
6.42446e-05
7.57331e-05
9.42204e-05
9.90424e-05
0.000100409
0.000101205
0.000100885
9.98558e-05
9.40602e-05
8.54812e-05
7.83176e-05
7.7391e-05
7.75428e-05
7.67413e-05
7.44961e-05
6.44965e-05
5.68355e-05
5.23183e-05
4.64268e-05
4.51537e-05
4.23304e-05
4.19801e-05
4.07939e-05
4.15746e-05
4.13318e-05
4.1247e-05
4.10626e-05
4.12839e-05
4.1776e-05
4.35297e-05
4.4065e-05
4.64128e-05
5.2986e-05
6.10419e-05
6.85366e-05
6.86848e-05
6.90404e-05
6.74128e-05
6.80005e-05
6.99786e-05
7.16186e-05
8.42728e-05
8.67592e-05
0.000112877
0.000112952
0.000141487
0.000129383
0.000156139
0.000144472
0.00015738
0.000185524
0.000298276
0.000287906
0.00027694
0.00026729
0.000257299
0.000248855
0.000240722
0.000233423
0.000227447
0.000220993
0.000216653
0.000211054
0.000207099
0.000202449
0.000198215
0.000194278
0.000189625
0.000186543
0.00018193
0.000179776
0.000176162
0.000174433
0.000171902
0.000169593
0.000168335
0.000165219
0.000163575
0.000160528
0.000157982
0.000155038
0.000151638
0.000149034
0.00014538
0.000143458
0.000140484
0.000139397
0.000137763
0.000137137
0.000136996
0.000137016
0.000137432
0.000137861
0.000138635
0.000139969
0.000140953
0.000143622
0.000145129
0.000148615
0.000150214
0.000152084
0.00015464
0.00015499
0.000155788
0.000155687
0.000155051
0.000154308
0.000152717
0.000149343
0.000145973
0.000141123
0.000133803
0.000125413
0.000113865
0.000100672
8.46325e-05
6.8938e-05
5.60456e-05
4.48862e-05
3.64118e-05
3.01934e-05
2.49418e-05
2.20052e-05
1.9635e-05
1.77577e-05
1.69889e-05
1.60438e-05
1.50197e-05
1.49859e-05
1.53222e-05
1.60019e-05
1.74071e-05
2.06734e-05
2.54076e-05
3.03565e-05
4.32717e-05
4.96526e-05
5.74453e-05
6.08997e-05
6.03589e-05
5.85162e-05
5.51344e-05
4.96964e-05
4.41842e-05
3.85269e-05
3.29144e-05
2.78403e-05
2.40054e-05
2.14117e-05
2.08861e-05
2.1234e-05
2.25825e-05
2.60387e-05
3.35731e-05
4.23548e-05
5.54211e-05
6.79451e-05
7.94497e-05
8.91283e-05
9.52935e-05
9.87447e-05
9.86515e-05
9.73593e-05
9.53264e-05
9.18605e-05
8.75667e-05
8.4957e-05
8.27605e-05
7.74016e-05
6.95095e-05
6.42619e-05
6.30461e-05
6.3047e-05
6.25569e-05
6.28599e-05
6.41703e-05
6.85244e-05
8.46642e-05
9.73469e-05
0.000102708
0.000103628
0.000102153
9.61462e-05
8.79601e-05
8.39314e-05
7.96253e-05
7.5203e-05
6.92426e-05
6.36287e-05
6.00611e-05
5.83883e-05
5.74923e-05
5.70402e-05
5.69641e-05
5.67974e-05
5.62865e-05
5.5964e-05
5.60105e-05
5.61607e-05
5.69782e-05
5.92414e-05
6.54556e-05
8.23093e-05
9.43593e-05
9.85529e-05
0.000100993
0.000101693
0.000100831
9.60992e-05
8.68304e-05
7.91575e-05
7.57418e-05
7.6085e-05
7.5752e-05
7.43149e-05
6.67833e-05
5.81388e-05
5.38084e-05
4.83936e-05
4.6873e-05
4.41126e-05
4.25284e-05
4.08526e-05
4.06104e-05
4.06934e-05
4.08624e-05
4.10612e-05
4.18585e-05
4.25708e-05
4.45791e-05
4.57264e-05
5.3173e-05
6.08196e-05
6.72926e-05
6.91323e-05
6.87118e-05
6.70557e-05
6.38148e-05
6.39483e-05
6.46151e-05
6.81631e-05
7.98547e-05
8.28725e-05
9.70237e-05
0.000102254
0.000118349
0.000123843
0.000130643
0.000147999
0.000157823
0.000176481
0.000199835
0.000196095
0.000191417
0.000187248
0.000182415
0.00017756
0.00017361
0.000168401
0.000165578
0.000161386
0.000158689
0.00015647
0.000153275
0.000151881
0.000148635
0.000146694
0.000142939
0.000139741
0.000136252
0.000131653
0.000129374
0.000125062
0.00012336
0.000120215
0.000118424
0.000117109
0.000114301
0.000113281
0.000111112
0.00011
0.000107395
0.000105399
0.000103305
9.93262e-05
9.65609e-05
9.29298e-05
9.02038e-05
8.81623e-05
8.77045e-05
8.77521e-05
8.82325e-05
8.99375e-05
9.12373e-05
9.36653e-05
9.48412e-05
9.72553e-05
9.86762e-05
0.000100307
0.000102615
0.000103751
0.000104918
0.000106648
0.000107597
0.00010786
0.000107655
0.000106427
0.000105011
0.000101714
9.73423e-05
9.1496e-05
8.26854e-05
7.42074e-05
6.45662e-05
5.49086e-05
4.61281e-05
3.79967e-05
3.12807e-05
2.57218e-05
2.14808e-05
1.8385e-05
1.56938e-05
1.44988e-05
1.3532e-05
1.26709e-05
1.27595e-05
1.27327e-05
1.2245e-05
1.18871e-05
1.16751e-05
1.16375e-05
1.17949e-05
1.27169e-05
1.46111e-05
1.63832e-05
2.20004e-05
2.46316e-05
2.89122e-05
3.11243e-05
3.1103e-05
3.0555e-05
2.93259e-05
2.69442e-05
2.41747e-05
2.1881e-05
1.96669e-05
1.80308e-05
1.80379e-05
1.85166e-05
1.99734e-05
2.36418e-05
3.06771e-05
4.30237e-05
5.86136e-05
7.36561e-05
9.16394e-05
0.000105578
0.000117864
0.000126299
0.000129904
0.000129619
0.000127928
0.000124026
0.000117809
0.000107792
0.000100751
9.72991e-05
9.33759e-05
8.52183e-05
7.62434e-05
7.1772e-05
7.05001e-05
6.9374e-05
6.95957e-05
7.11029e-05
7.31202e-05
8.24232e-05
9.67812e-05
0.000104585
0.00010693
0.000106357
0.000102076
9.16898e-05
8.5618e-05
8.18577e-05
7.79461e-05
7.25833e-05
6.51489e-05
5.99934e-05
5.61224e-05
5.54719e-05
5.44503e-05
5.44828e-05
5.45836e-05
5.52363e-05
5.52891e-05
5.52966e-05
5.54992e-05
5.56829e-05
5.61609e-05
5.71458e-05
6.03521e-05
7.04839e-05
8.78929e-05
9.43195e-05
9.9527e-05
0.000101969
0.00010133
9.8216e-05
8.88801e-05
8.08937e-05
7.61085e-05
7.54748e-05
7.48899e-05
7.35611e-05
6.92711e-05
6.13652e-05
5.57545e-05
4.94303e-05
4.76136e-05
4.46516e-05
4.36769e-05
4.12683e-05
4.17489e-05
4.14935e-05
4.23056e-05
4.24668e-05
4.40058e-05
4.47201e-05
4.70152e-05
4.84414e-05
5.86301e-05
6.55731e-05
6.93469e-05
6.9496e-05
6.86914e-05
6.90768e-05
6.79625e-05
6.87314e-05
6.77105e-05
6.89051e-05
7.81794e-05
8.48922e-05
9.1483e-05
9.39486e-05
9.79591e-05
0.000114698
0.000119737
0.000139569
0.000143324
0.000158376
0.000106272
0.000105305
0.000103521
0.000101641
9.9753e-05
9.73422e-05
9.58319e-05
9.32663e-05
9.20523e-05
9.04067e-05
8.92465e-05
8.88394e-05
8.77577e-05
8.74798e-05
8.67406e-05
8.6278e-05
8.51574e-05
8.29613e-05
8.14071e-05
7.73747e-05
7.56922e-05
7.18614e-05
7.00688e-05
6.73842e-05
6.53183e-05
6.4433e-05
6.24513e-05
6.18986e-05
6.07786e-05
6.03459e-05
5.97394e-05
5.88132e-05
5.84615e-05
5.73583e-05
5.57842e-05
5.35965e-05
5.11305e-05
4.89211e-05
4.74696e-05
4.70322e-05
4.70633e-05
4.73141e-05
4.85432e-05
4.99501e-05
5.22159e-05
5.36287e-05
5.55627e-05
5.65301e-05
5.77852e-05
5.90004e-05
5.91733e-05
5.96681e-05
5.96053e-05
5.92257e-05
5.87151e-05
5.72969e-05
5.59246e-05
5.35169e-05
5.02232e-05
4.67463e-05
4.21589e-05
3.75301e-05
3.28023e-05
2.79849e-05
2.37939e-05
2.00784e-05
1.68469e-05
1.44351e-05
1.26308e-05
1.14857e-05
1.07692e-05
1.07281e-05
1.05699e-05
1.05322e-05
1.11147e-05
1.14217e-05
1.1441e-05
1.149e-05
1.13023e-05
1.05306e-05
1.01158e-05
1.01079e-05
1.02124e-05
1.05686e-05
1.19407e-05
1.33885e-05
1.46111e-05
1.58035e-05
1.62237e-05
1.61374e-05
1.58639e-05
1.53054e-05
1.4741e-05
1.47568e-05
1.51057e-05
1.58712e-05
1.74529e-05
2.09943e-05
2.80081e-05
3.9862e-05
5.51273e-05
7.77423e-05
9.70598e-05
0.000119091
0.00013603
0.000146512
0.000151402
0.000152158
0.000151663
0.000149687
0.000146815
0.000143761
0.000135839
0.000127708
0.000117117
0.000106735
0.000100785
9.42741e-05
8.75975e-05
8.00022e-05
7.62877e-05
7.59092e-05
7.81248e-05
7.85723e-05
8.07248e-05
9.41095e-05
0.000105671
0.000109965
0.00011007
0.000108016
9.92877e-05
8.97975e-05
8.44997e-05
7.95923e-05
7.62947e-05
6.81424e-05
6.20904e-05
5.7564e-05
5.45491e-05
5.28694e-05
5.26562e-05
5.28525e-05
5.40029e-05
5.45174e-05
5.45178e-05
5.4514e-05
5.51255e-05
5.59316e-05
5.59986e-05
5.65697e-05
5.81588e-05
6.36072e-05
7.88886e-05
9.05085e-05
9.59291e-05
0.00010163
0.000101303
9.94881e-05
9.14991e-05
8.17007e-05
7.81949e-05
7.56905e-05
7.4789e-05
7.25752e-05
6.83577e-05
6.41771e-05
5.97811e-05
5.13437e-05
4.94734e-05
4.54118e-05
4.4534e-05
4.28334e-05
4.37466e-05
4.36867e-05
4.47363e-05
4.49639e-05
4.64886e-05
4.73224e-05
5.09086e-05
5.34099e-05
6.36844e-05
6.63622e-05
6.8959e-05
6.84336e-05
6.80787e-05
6.87692e-05
6.97012e-05
6.90535e-05
6.84915e-05
6.92163e-05
7.33667e-05
9.16313e-05
0.000109178
0.000102932
9.50722e-05
0.000101351
0.000102353
0.000120967
0.000131209
0.000145554
4.41958e-05
4.3784e-05
4.29002e-05
4.19804e-05
4.13789e-05
4.07396e-05
4.04184e-05
3.98172e-05
3.96153e-05
3.92727e-05
3.90421e-05
3.89866e-05
3.88107e-05
3.88339e-05
3.87421e-05
3.86714e-05
3.85283e-05
3.79907e-05
3.75364e-05
3.60735e-05
3.52532e-05
3.3539e-05
3.22799e-05
3.1035e-05
2.96353e-05
2.90777e-05
2.81001e-05
2.77945e-05
2.74195e-05
2.71793e-05
2.71886e-05
2.70949e-05
2.71963e-05
2.72531e-05
2.7276e-05
2.70282e-05
2.54558e-05
2.40535e-05
2.26207e-05
2.18324e-05
2.16557e-05
2.16544e-05
2.19059e-05
2.27908e-05
2.42963e-05
2.58315e-05
2.71876e-05
2.80875e-05
2.89089e-05
2.92748e-05
2.92698e-05
2.91821e-05
2.88668e-05
2.81425e-05
2.73409e-05
2.64013e-05
2.51789e-05
2.38867e-05
2.22298e-05
2.05818e-05
1.86832e-05
1.67137e-05
1.48646e-05
1.29694e-05
1.13944e-05
1.02786e-05
9.29598e-06
8.93874e-06
9.01004e-06
9.15763e-06
9.44517e-06
9.94272e-06
1.00303e-05
1.00963e-05
1.07149e-05
1.12142e-05
1.14607e-05
1.15086e-05
1.14108e-05
1.07197e-05
1.00641e-05
9.34407e-06
8.77979e-06
8.69567e-06
8.70726e-06
8.90501e-06
9.10069e-06
9.46063e-06
9.87852e-06
1.02114e-05
1.09477e-05
1.16709e-05
1.24892e-05
1.36058e-05
1.55051e-05
1.90539e-05
2.51923e-05
3.53318e-05
5.10782e-05
7.20831e-05
0.00010014
0.000123715
0.000146488
0.000156171
0.000160256
0.000160918
0.000160037
0.000158147
0.000156688
0.000153305
0.000150507
0.000147555
0.000142091
0.000138505
0.000131445
0.000117389
0.000105823
9.90361e-05
9.08874e-05
8.4165e-05
8.34743e-05
8.39337e-05
8.25008e-05
8.15127e-05
9.08556e-05
0.000106657
0.000112602
0.000113417
0.000112901
0.000108786
9.77298e-05
8.88011e-05
8.20882e-05
7.84255e-05
7.30946e-05
6.52908e-05
6.08781e-05
5.66342e-05
5.44177e-05
5.18416e-05
5.09458e-05
5.06487e-05
5.24932e-05
5.34388e-05
5.39673e-05
5.38605e-05
5.4765e-05
5.605e-05
5.54657e-05
5.5793e-05
5.69385e-05
6.07977e-05
7.15985e-05
8.71669e-05
9.39019e-05
0.000101973
0.000101696
0.000100677
9.40235e-05
8.31359e-05
7.83028e-05
7.62505e-05
7.52307e-05
7.2659e-05
6.79663e-05
6.31128e-05
6.13891e-05
5.50802e-05
5.33367e-05
4.76539e-05
4.65977e-05
4.56836e-05
4.653e-05
4.62569e-05
4.71453e-05
4.7462e-05
4.95226e-05
5.07361e-05
5.75171e-05
6.15832e-05
6.91168e-05
6.87108e-05
6.9344e-05
6.89484e-05
6.97451e-05
6.96047e-05
6.91312e-05
6.50287e-05
6.54917e-05
6.38417e-05
6.47685e-05
6.90454e-05
7.88842e-05
9.1616e-05
9.14135e-05
9.72417e-05
9.7234e-05
0.000106294
0.000113304
0.000131199
1.4811e-05
1.47315e-05
1.45029e-05
1.42369e-05
1.40938e-05
1.39642e-05
1.39351e-05
1.38218e-05
1.37866e-05
1.37387e-05
1.36487e-05
1.35881e-05
1.35223e-05
1.35662e-05
1.36077e-05
1.36324e-05
1.36575e-05
1.36341e-05
1.36231e-05
1.34435e-05
1.31464e-05
1.26263e-05
1.19938e-05
1.14901e-05
1.08161e-05
1.03849e-05
9.90172e-06
9.59708e-06
9.41734e-06
9.34629e-06
9.43064e-06
9.59999e-06
1.00212e-05
1.03008e-05
1.05438e-05
1.06641e-05
1.05114e-05
9.86141e-06
9.0369e-06
8.37471e-06
8.06602e-06
7.90585e-06
7.89753e-06
8.07166e-06
8.90557e-06
1.02548e-05
1.11558e-05
1.18587e-05
1.22394e-05
1.22954e-05
1.22661e-05
1.18637e-05
1.13217e-05
1.07506e-05
1.01278e-05
9.68424e-06
9.12157e-06
8.58446e-06
8.15759e-06
7.57232e-06
7.27418e-06
6.80131e-06
6.57623e-06
6.62747e-06
6.76498e-06
7.07081e-06
7.45469e-06
7.99349e-06
8.98222e-06
9.944e-06
1.09393e-05
1.15977e-05
1.177e-05
1.19346e-05
1.26224e-05
1.3195e-05
1.3396e-05
1.33658e-05
1.31886e-05
1.26293e-05
1.14754e-05
1.01732e-05
9.31084e-06
8.5743e-06
8.20854e-06
8.20469e-06
8.28885e-06
8.6123e-06
9.03033e-06
9.97959e-06
1.09356e-05
1.26108e-05
1.50174e-05
1.82515e-05
2.35389e-05
3.20647e-05
4.4953e-05
6.47829e-05
9.15127e-05
0.000125353
0.000149533
0.000160376
0.000165346
0.000165537
0.000164906
0.000163083
0.000159491
0.000156313
0.000154657
0.000152363
0.00014928
0.000146831
0.000144913
0.000141232
0.000134265
0.000125911
0.000115254
0.000105854
9.9007e-05
9.66549e-05
9.01581e-05
8.45212e-05
8.2081e-05
8.67699e-05
0.000106623
0.000113654
0.000115888
0.000116569
0.000115868
0.000109418
9.71354e-05
8.62903e-05
7.99331e-05
7.66201e-05
6.95777e-05
6.40891e-05
6.04823e-05
5.65849e-05
5.49555e-05
5.20803e-05
5.01926e-05
4.92506e-05
5.02098e-05
5.1506e-05
5.24904e-05
5.36039e-05
5.47134e-05
5.61603e-05
5.51583e-05
5.51106e-05
5.62721e-05
5.88062e-05
6.5746e-05
8.42872e-05
9.01456e-05
0.000102612
0.000102524
0.000100824
9.73077e-05
8.62922e-05
7.91623e-05
7.54423e-05
7.59646e-05
7.40486e-05
6.99147e-05
6.32079e-05
6.14459e-05
5.6583e-05
5.5878e-05
5.29094e-05
5.23476e-05
5.0292e-05
5.06069e-05
4.97523e-05
5.14832e-05
5.21579e-05
5.58611e-05
5.78392e-05
6.60796e-05
6.90514e-05
7.21302e-05
7.31547e-05
7.3535e-05
7.51796e-05
7.3987e-05
7.47293e-05
7.4596e-05
7.2102e-05
7.27197e-05
7.30318e-05
8.02642e-05
7.88132e-05
7.91714e-05
8.08784e-05
8.09098e-05
8.54412e-05
8.60531e-05
9.39678e-05
9.81089e-05
0.000107712
4.06766e-06
4.0972e-06
4.17497e-06
4.23012e-06
4.2406e-06
4.24751e-06
4.26426e-06
4.28104e-06
4.28651e-06
4.28713e-06
4.27878e-06
4.27098e-06
4.24273e-06
4.24087e-06
4.2638e-06
4.29974e-06
4.33295e-06
4.33703e-06
4.34867e-06
4.34437e-06
4.27851e-06
4.15253e-06
3.97557e-06
3.83785e-06
3.68375e-06
3.54906e-06
3.46128e-06
3.37089e-06
3.3447e-06
3.33095e-06
3.34564e-06
3.45947e-06
3.5532e-06
3.67029e-06
3.73334e-06
3.7624e-06
3.7238e-06
3.62909e-06
3.50831e-06
3.42749e-06
3.37316e-06
3.31042e-06
3.28795e-06
3.3236e-06
3.60681e-06
4.08302e-06
4.3979e-06
4.60208e-06
4.6515e-06
4.58604e-06
4.49329e-06
4.36952e-06
4.31579e-06
4.30156e-06
4.23627e-06
4.21928e-06
4.22595e-06
4.23992e-06
4.28676e-06
4.37184e-06
4.60958e-06
4.89199e-06
5.38033e-06
6.22704e-06
7.01299e-06
8.65519e-06
1.02475e-05
1.2392e-05
1.45213e-05
1.63162e-05
1.7511e-05
1.79082e-05
1.81192e-05
1.87301e-05
1.93536e-05
1.94834e-05
1.93755e-05
1.90175e-05
1.85786e-05
1.75591e-05
1.61472e-05
1.46082e-05
1.31692e-05
1.18455e-05
1.11825e-05
1.1117e-05
1.12604e-05
1.17732e-05
1.25936e-05
1.43351e-05
1.65134e-05
1.96331e-05
2.39083e-05
3.0258e-05
4.05554e-05
5.68072e-05
8.0544e-05
0.000116479
0.000148454
0.000162815
0.00016771
0.000168906
0.000168023
0.000164731
0.000156718
0.000147961
0.000141327
0.000137988
0.000138294
0.000140902
0.000143278
0.000143958
0.000143508
0.000140265
0.000134804
0.000125592
0.000116567
0.000110603
0.000107127
9.95058e-05
8.83746e-05
8.346e-05
8.45216e-05
0.000102971
0.000114426
0.000116374
0.000119087
0.000122019
0.000120774
0.000111291
9.59578e-05
8.40616e-05
7.88512e-05
7.35774e-05
6.75928e-05
6.39968e-05
6.07085e-05
5.80878e-05
5.751e-05
5.59733e-05
5.36748e-05
5.06634e-05
5.01983e-05
5.04612e-05
5.1341e-05
5.43594e-05
5.50533e-05
5.60456e-05
5.47432e-05
5.38432e-05
5.48401e-05
5.81772e-05
6.36439e-05
8.01216e-05
8.92484e-05
0.00010155
0.00010466
0.000101338
9.68402e-05
9.02116e-05
8.35527e-05
7.62072e-05
7.61085e-05
7.45685e-05
7.43276e-05
6.84609e-05
6.35333e-05
5.8216e-05
5.76372e-05
5.62478e-05
5.60648e-05
5.50854e-05
5.56874e-05
5.54837e-05
5.82602e-05
5.93406e-05
6.48713e-05
6.736e-05
7.2072e-05
7.25899e-05
7.39557e-05
7.45034e-05
7.501e-05
7.48492e-05
7.35833e-05
7.18927e-05
7.21889e-05
7.147e-05
7.16113e-05
7.33828e-05
8.32948e-05
9.00494e-05
8.93419e-05
8.46503e-05
8.05102e-05
8.18866e-05
8.1763e-05
8.32649e-05
8.48206e-05
9.00648e-05
2.40957e-06
2.42044e-06
2.46711e-06
2.49744e-06
2.50568e-06
2.50471e-06
2.50523e-06
2.50656e-06
2.50709e-06
2.50955e-06
2.50994e-06
2.51455e-06
2.51602e-06
2.52141e-06
2.5314e-06
2.55486e-06
2.57517e-06
2.59009e-06
2.60263e-06
2.6059e-06
2.60397e-06
2.60262e-06
2.60269e-06
2.60564e-06
2.61579e-06
2.64073e-06
2.6522e-06
2.67118e-06
2.69055e-06
2.70292e-06
2.71509e-06
2.71904e-06
2.72341e-06
2.7182e-06
2.72171e-06
2.7084e-06
2.68272e-06
2.68163e-06
2.79023e-06
3.04198e-06
3.19977e-06
3.26711e-06
3.28372e-06
3.23127e-06
3.12098e-06
3.02394e-06
2.96157e-06
2.95972e-06
2.9482e-06
2.96537e-06
3.19448e-06
3.43293e-06
3.88502e-06
4.17541e-06
4.41542e-06
4.80045e-06
5.02979e-06
5.44872e-06
5.85268e-06
6.28327e-06
7.20546e-06
8.01338e-06
9.82198e-06
1.1836e-05
1.39703e-05
1.7408e-05
1.97937e-05
2.28716e-05
2.53075e-05
2.69402e-05
2.80726e-05
2.83288e-05
2.8703e-05
2.90287e-05
2.89597e-05
2.87369e-05
2.82174e-05
2.73869e-05
2.62839e-05
2.46862e-05
2.29112e-05
2.13824e-05
1.97402e-05
1.81847e-05
1.75115e-05
1.74998e-05
1.77636e-05
1.85424e-05
1.9986e-05
2.25634e-05
2.63841e-05
3.1097e-05
3.87737e-05
5.10972e-05
7.12992e-05
0.000101607
0.00014344
0.000162431
0.000169614
0.000171593
0.000170145
0.000164786
0.000152732
0.00013785
0.00013163
0.000129144
0.000128457
0.00012933
0.000131135
0.000134147
0.000136959
0.000139563
0.000140437
0.000139141
0.000135197
0.000125278
0.000115805
0.000110998
0.00010759
9.79849e-05
8.69833e-05
8.50885e-05
9.64219e-05
0.000114259
0.000116248
0.000117869
0.000125211
0.000128643
0.000125731
0.000111851
9.50344e-05
8.29288e-05
7.70271e-05
7.14096e-05
6.71858e-05
6.57504e-05
6.16057e-05
6.06507e-05
5.88956e-05
5.73505e-05
5.65203e-05
5.30359e-05
5.11892e-05
5.08934e-05
5.15395e-05
5.53665e-05
5.53594e-05
5.50032e-05
5.32418e-05
5.31635e-05
5.4646e-05
5.82933e-05
6.37019e-05
7.99736e-05
9.02832e-05
9.77829e-05
0.000105375
0.000102848
9.78597e-05
8.97764e-05
8.72568e-05
7.98518e-05
7.84183e-05
7.50339e-05
7.53729e-05
7.40631e-05
6.93326e-05
6.22167e-05
6.11334e-05
5.98109e-05
6.00129e-05
6.06386e-05
6.29154e-05
6.45926e-05
7.01823e-05
7.08323e-05
7.36489e-05
7.43866e-05
7.45681e-05
7.52811e-05
7.44337e-05
7.47624e-05
7.36787e-05
7.26413e-05
7.09549e-05
7.02182e-05
6.97758e-05
6.94274e-05
7.00026e-05
7.28171e-05
8.27576e-05
9.11429e-05
8.94151e-05
8.64769e-05
8.3395e-05
8.30738e-05
8.20527e-05
8.20195e-05
8.24833e-05
8.43966e-05
2.38097e-06
2.38753e-06
2.41612e-06
2.45262e-06
2.46677e-06
2.4752e-06
2.47583e-06
2.47639e-06
2.4777e-06
2.48238e-06
2.4904e-06
2.51969e-06
2.5462e-06
2.60948e-06
2.65815e-06
2.70624e-06
2.75619e-06
2.77987e-06
2.83093e-06
2.86806e-06
2.92431e-06
2.96782e-06
3.0147e-06
3.06337e-06
3.17788e-06
3.34287e-06
3.53414e-06
3.78013e-06
3.95862e-06
4.18232e-06
4.3209e-06
4.39658e-06
4.43677e-06
4.42448e-06
4.38095e-06
4.24603e-06
4.17038e-06
4.26917e-06
4.75605e-06
5.4724e-06
5.87951e-06
6.07767e-06
6.15268e-06
6.06665e-06
5.70324e-06
5.23741e-06
4.82855e-06
4.65016e-06
4.58508e-06
4.64631e-06
5.54374e-06