/*--------------------------------*- C++ -*----------------------------------*\
| =========                 |                                                 |
| \\      /  F ield         | OpenFOAM: The Open Source CFD Toolbox           |
|  \\    /   O peration     | Version:  2.4.0                                 |
|   \\  /    A nd           | Web:      www.OpenFOAM.org                      |
|    \\/     M anipulation  |                                                 |
\*---------------------------------------------------------------------------*/
FoamFile
{
    version     2.0;
    format      ascii;
    class       surfaceScalarField;
    location    "1.81";
    object      phi;
}
// * * * * * * * * * * * * * * * * * * * * * * * * * * * * * * * * * * * * * //

dimensions      [0 3 -1 0 0 0 0];

internalField   nonuniform List<scalar> 
17320
(
1.76382e-05
7.36185e-06
1.16188e-05
6.01938e-06
8.68335e-06
2.93542e-06
7.35389e-06
1.32947e-06
6.71831e-06
6.35572e-07
6.34511e-06
3.73207e-07
6.07615e-06
2.68957e-07
5.86807e-06
2.08081e-07
5.707e-06
1.61072e-07
5.58794e-06
1.19052e-07
5.47156e-06
1.1638e-07
5.38872e-06
8.2844e-08
5.30323e-06
8.54912e-08
5.22927e-06
7.3961e-08
5.11724e-06
1.12028e-07
5.08404e-06
3.31968e-08
4.9432e-06
1.40846e-07
4.98535e-06
-4.21551e-08
4.71986e-06
2.65492e-07
-5.84628e-07
5.30449e-06
2.54622e-05
6.89969e-06
2.32493e-05
8.2322e-06
2.09933e-05
5.19148e-06
1.93154e-05
3.00732e-06
1.80777e-05
1.87325e-06
1.71138e-05
1.33713e-06
1.63642e-05
1.01855e-06
1.57715e-05
8.00807e-07
1.53103e-05
6.22284e-07
1.49388e-05
4.90568e-07
1.46252e-05
4.29916e-07
1.43761e-05
3.3202e-07
1.41428e-05
3.18714e-07
1.39424e-05
2.74405e-07
1.37034e-05
3.51036e-07
1.35723e-05
1.6426e-07
1.32939e-05
4.19264e-07
1.32792e-05
-2.74534e-08
1.3099e-05
4.45693e-07
-5.44104e-07
1.30585e-05
2.66211e-05
5.27862e-06
2.71549e-05
7.69841e-06
2.67881e-05
5.55823e-06
2.62465e-05
3.54898e-06
2.56085e-05
2.51118e-06
2.48738e-05
2.0719e-06
2.41602e-05
1.73216e-06
2.3499e-05
1.46197e-06
2.29391e-05
1.1822e-06
2.24495e-05
9.80123e-07
2.20273e-05
8.52165e-07
2.16789e-05
6.80351e-07
2.13525e-05
6.45153e-07
2.10732e-05
5.53726e-07
2.07701e-05
6.54154e-07
2.05569e-05
3.77468e-07
2.02423e-05
7.33825e-07
2.01127e-05
1.02165e-07
2.00618e-05
4.96602e-07
-8.03151e-07
2.03208e-05
2.6325e-05
3.95363e-06
2.75326e-05
6.49081e-06
2.80957e-05
4.9951e-06
2.8457e-05
3.18767e-06
2.86526e-05
2.31559e-06
2.86258e-05
2.09872e-06
2.84773e-05
1.88061e-06
2.82264e-05
1.71296e-06
2.7973e-05
1.43555e-06
2.77007e-05
1.25244e-06
2.74241e-05
1.12879e-06
2.71744e-05
9.30021e-07
2.69168e-05
9.02692e-07
2.66638e-05
8.06758e-07
2.64232e-05
8.94753e-07
2.61719e-05
6.28735e-07
2.59338e-05
9.71998e-07
2.56637e-05
3.72248e-07
2.55048e-05
6.55541e-07
-2.9384e-07
2.49954e-05
2.60437e-05
2.90991e-06
2.72311e-05
5.30339e-06
2.80454e-05
4.18088e-06
2.85147e-05
2.71831e-06
2.89848e-05
1.84552e-06
2.9323e-05
1.76054e-06
2.95897e-05
1.61391e-06
2.97275e-05
1.5751e-06
2.98393e-05
1.3238e-06
2.99221e-05
1.16959e-06
2.99597e-05
1.09118e-06
2.99672e-05
9.22592e-07
2.99733e-05
8.96614e-07
2.99021e-05
8.77896e-07
2.98991e-05
8.97761e-07
2.97525e-05
7.75345e-07
2.96914e-05
1.03309e-06
2.94403e-05
6.23338e-07
2.93254e-05
7.70443e-07
4.41501e-07
2.85901e-05
2.58393e-05
2.07059e-06
2.69613e-05
4.18144e-06
2.78165e-05
3.32563e-06
2.82432e-05
2.29162e-06
2.87253e-05
1.36341e-06
2.90978e-05
1.38803e-06
2.947e-05
1.24178e-06
2.9698e-05
1.34705e-06
2.99773e-05
1.04456e-06
3.01493e-05
9.97561e-07
3.04274e-05
8.13018e-07
3.05209e-05
8.29107e-07
3.07655e-05
6.52084e-07
3.08028e-05
8.40564e-07
3.10501e-05
6.50437e-07
3.0973e-05
8.52424e-07
3.11909e-05
8.15208e-07
3.09306e-05
8.83668e-07
3.10134e-05
6.87636e-07
1.32214e-06
3.01328e-05
2.56931e-05
1.3775e-06
2.67209e-05
3.15363e-06
2.75921e-05
2.45446e-06
2.80509e-05
1.83276e-06
2.84966e-05
9.17755e-07
2.88316e-05
1.05297e-06
2.92299e-05
8.43483e-07
2.94746e-05
1.10241e-06
2.98121e-05
7.07087e-07
2.99207e-05
8.88941e-07
3.02959e-05
4.37751e-07
3.03214e-05
8.0367e-07
3.06797e-05
2.93795e-07
3.07313e-05
7.88972e-07
3.1029e-05
3.52657e-07
3.10277e-05
8.53792e-07
3.1368e-05
4.74866e-07
3.10975e-05
1.1542e-06
3.09758e-05
8.09298e-07
2.21205e-06
3.00859e-05
2.55471e-05
8.30375e-07
2.65877e-05
2.11301e-06
2.74461e-05
1.59611e-06
2.79786e-05
1.30028e-06
2.83136e-05
5.82771e-07
2.86825e-05
6.84049e-07
2.90379e-05
4.88061e-07
2.93113e-05
8.29011e-07
2.95878e-05
4.30581e-07
2.98473e-05
6.29466e-07
3.00495e-05
2.3556e-07
3.02285e-05
6.24629e-07
3.04541e-05
6.82693e-08
3.06541e-05
5.88921e-07
3.07753e-05
2.31468e-07
3.10286e-05
6.00514e-07
3.10635e-05
4.39971e-07
3.14891e-05
7.28544e-07
3.17792e-05
5.19214e-07
1.19997e-06
3.27913e-05
2.54663e-05
3.64052e-07
2.64845e-05
1.09483e-06
2.73168e-05
7.63814e-07
2.79228e-05
6.9423e-07
2.82616e-05
2.44059e-07
2.85724e-05
3.73209e-07
2.8874e-05
1.86426e-07
2.91961e-05
5.06945e-07
2.94746e-05
1.52079e-07
2.97808e-05
3.23231e-07
2.99193e-05
9.70838e-08
3.02009e-05
3.43015e-07
3.02497e-05
1.94838e-08
3.04895e-05
3.4917e-07
3.06241e-05
9.68229e-08
3.09543e-05
2.70327e-07
3.11145e-05
2.79763e-07
3.14315e-05
4.11542e-07
3.15568e-05
3.93871e-07
4.75049e-07
3.22818e-05
2.54194e-05
-5.53643e-08
2.64455e-05
6.87168e-08
2.72947e-05
-8.53118e-08
2.78894e-05
9.95095e-08
2.81868e-05
-5.33479e-08
2.85189e-05
4.10504e-08
2.8813e-05
-1.0761e-07
2.91554e-05
1.64519e-07
2.94197e-05
-1.12191e-07
2.96819e-05
6.10031e-08
2.98972e-05
-1.18241e-07
3.01518e-05
8.84494e-08
3.02177e-05
-4.64196e-08
3.04722e-05
9.46668e-08
3.06382e-05
-6.92202e-08
3.08627e-05
4.58388e-08
3.10697e-05
7.28197e-08
3.13031e-05
1.7816e-07
3.16535e-05
4.33804e-08
1.50682e-07
3.19779e-05
2.54082e-05
-4.6352e-07
2.64259e-05
-9.49068e-07
2.72791e-05
-9.38481e-07
2.79021e-05
-5.2351e-07
2.81855e-05
-3.36739e-07
2.85234e-05
-2.96793e-07
2.88011e-05
-3.85318e-07
2.92168e-05
-2.5117e-07
2.94173e-05
-3.12779e-07
2.96762e-05
-1.97831e-07
2.98455e-05
-2.87551e-07
3.01287e-05
-1.94716e-07
3.02293e-05
-1.47074e-07
3.05012e-05
-1.77219e-07
3.06189e-05
-1.86932e-07
3.08216e-05
-1.56878e-07
3.10384e-05
-1.43943e-07
3.13726e-05
-1.56055e-07
3.1707e-05
-2.91025e-07
-1.90172e-08
3.18767e-05
2.54596e-05
-9.23133e-07
2.64913e-05
-1.9808e-06
2.73004e-05
-1.74749e-06
2.79275e-05
-1.15062e-06
2.82676e-05
-6.76831e-07
2.85756e-05
-6.04827e-07
2.88318e-05
-6.41518e-07
2.92246e-05
-6.43971e-07
2.94832e-05
-5.71436e-07
2.97611e-05
-4.75682e-07
2.9923e-05
-4.49496e-07
3.01561e-05
-4.27763e-07
3.03153e-05
-3.06277e-07
3.05338e-05
-3.95693e-07
3.06575e-05
-3.10641e-07
3.08817e-05
-3.81094e-07
3.11876e-05
-4.49899e-07
3.14402e-05
-4.08646e-07
3.165e-05
-5.00826e-07
-2.63558e-07
3.18946e-05
2.5537e-05
-1.46009e-06
2.65981e-05
-3.04189e-06
2.74355e-05
-2.58492e-06
2.80246e-05
-1.7397e-06
2.83264e-05
-9.78652e-07
2.86836e-05
-9.62086e-07
2.89685e-05
-9.26371e-07
2.93093e-05
-9.84754e-07
2.95751e-05
-8.37261e-07
2.98775e-05
-7.78046e-07
3.00269e-05
-5.98927e-07
3.02597e-05
-6.60527e-07
3.04074e-05
-4.53987e-07
3.06088e-05
-5.97159e-07
3.07705e-05
-4.72281e-07
3.10544e-05
-6.65035e-07
3.12646e-05
-6.6011e-07
3.15268e-05
-6.70856e-07
3.17733e-05
-7.47323e-07
-5.54127e-07
3.20639e-05
2.56686e-05
-2.12872e-06
2.6748e-05
-4.12127e-06
2.75893e-05
-3.42625e-06
2.80555e-05
-2.20585e-06
2.84709e-05
-1.39402e-06
2.88582e-05
-1.34945e-06
2.91711e-05
-1.23925e-06
2.95071e-05
-1.32076e-06
2.97723e-05
-1.10241e-06
3.00108e-05
-1.01658e-06
3.01819e-05
-7.70072e-07
3.04238e-05
-9.02379e-07
3.05797e-05
-6.09912e-07
3.07847e-05
-8.02179e-07
3.09583e-05
-6.45902e-07
3.12005e-05
-9.07154e-07
3.13495e-05
-8.09168e-07
3.16688e-05
-9.90112e-07
3.18945e-05
-9.73035e-07
-8.93936e-07
3.22343e-05
2.58398e-05
-2.9685e-06
2.6963e-05
-5.24452e-06
2.77996e-05
-4.26278e-06
2.82279e-05
-2.63415e-06
2.87081e-05
-1.87425e-06
2.91052e-05
-1.74658e-06
2.94443e-05
-1.57834e-06
2.97258e-05
-1.60228e-06
2.99803e-05
-1.35691e-06
3.01667e-05
-1.203e-06
3.03675e-05
-9.70827e-07
3.05405e-05
-1.0754e-06
3.07037e-05
-7.73072e-07
3.08453e-05
-9.43845e-07
3.0981e-05
-7.81611e-07
3.11196e-05
-1.04568e-06
3.12011e-05
-8.90639e-07
3.14238e-05
-1.21282e-06
3.15673e-05
-1.11661e-06
-1.23599e-06
3.19094e-05
2.60403e-05
-4.00881e-06
2.72358e-05
-6.44003e-06
2.80115e-05
-5.03841e-06
2.8498e-05
-3.12069e-06
2.89868e-05
-2.36303e-06
2.93316e-05
-2.09137e-06
2.95946e-05
-1.84141e-06
2.97304e-05
-1.73807e-06
2.98458e-05
-1.4723e-06
2.98881e-05
-1.24529e-06
2.9954e-05
-1.03676e-06
2.9943e-05
-1.06438e-06
2.99672e-05
-7.97217e-07
2.99153e-05
-8.92012e-07
2.98881e-05
-7.5442e-07
2.97955e-05
-9.53051e-07
2.97095e-05
-8.04606e-07
2.96599e-05
-1.16326e-06
2.95852e-05
-1.04185e-06
-1.36577e-06
2.97149e-05
2.6306e-05
-5.3148e-06
2.75344e-05
-7.66842e-06
2.80686e-05
-5.57259e-06
2.84608e-05
-3.51294e-06
2.86431e-05
-2.54531e-06
2.86215e-05
-2.06975e-06
2.84797e-05
-1.69967e-06
2.82237e-05
-1.48205e-06
2.79583e-05
-1.20688e-06
2.7685e-05
-9.72029e-07
2.74348e-05
-7.8649e-07
2.71478e-05
-7.77433e-07
2.69263e-05
-5.75652e-07
2.66582e-05
-6.23998e-07
2.64351e-05
-5.31275e-07
2.61499e-05
-6.67817e-07
2.59171e-05
-5.71813e-07
2.56055e-05
-8.51728e-07
2.53751e-05
-8.1138e-07
-1.25447e-06
2.52638e-05
2.66037e-05
-6.9185e-06
2.71557e-05
-8.22041e-06
2.67752e-05
-5.19209e-06
2.62538e-05
-2.99156e-06
2.55968e-05
-1.88826e-06
2.487e-05
-1.34301e-06
2.41636e-05
-9.93205e-07
2.34966e-05
-8.15137e-07
2.29237e-05
-6.33962e-07
2.2445e-05
-4.93289e-07
2.20398e-05
-3.81272e-07
2.16574e-05
-3.95034e-07
2.13621e-05
-2.8039e-07
2.10553e-05
-3.17201e-07
2.07949e-05
-2.70856e-07
2.04868e-05
-3.59725e-07
2.02303e-05
-3.15273e-07
1.98382e-05
-4.59625e-07
1.94843e-05
-4.57567e-07
-4.31176e-07
1.86611e-05
2.54494e-05
-7.36786e-06
2.32457e-05
-6.01671e-06
2.09864e-05
-2.93285e-06
1.93204e-05
-1.32554e-06
1.80715e-05
-6.39322e-07
1.71085e-05
-3.80003e-07
1.63703e-05
-2.55076e-07
1.57694e-05
-2.14194e-07
1.53005e-05
-1.65064e-07
1.49333e-05
-1.26136e-07
1.46401e-05
-8.80819e-08
1.43581e-05
-1.13033e-07
1.41483e-05
-7.05463e-08
1.3923e-05
-9.19438e-08
1.37288e-05
-7.66678e-08
1.3487e-05
-1.17835e-07
1.32723e-05
-1.00589e-07
1.29642e-05
-1.51505e-07
1.27107e-05
-2.04097e-07
-5.89223e-08
1.23384e-05
1.76321e-05
1.16154e-05
8.68258e-06
7.35705e-06
6.71772e-06
6.33772e-06
6.08265e-06
5.86845e-06
5.70339e-06
5.57725e-06
5.48917e-06
5.37614e-06
5.30559e-06
5.21365e-06
5.13698e-06
5.01914e-06
4.91855e-06
4.76705e-06
4.56295e-06
4.50403e-06
5.50975e-06
-3.13084e-07
1.07822e-07
5.81703e-06
8.79303e-08
-3.9521e-07
6.19209e-06
3.78448e-07
-7.5351e-07
6.73189e-06
4.8729e-07
-1.02708e-06
7.3646e-06
4.64458e-07
-1.09717e-06
7.97138e-06
3.5417e-07
-9.60948e-07
8.4556e-06
1.89027e-07
-6.73251e-07
8.76199e-06
-2.57929e-08
-2.80595e-07
8.8632e-06
-2.01014e-07
9.97998e-08
8.84186e-06
-3.43225e-07
3.64566e-07
8.7214e-06
-4.15035e-07
5.35495e-07
8.59177e-06
-3.93533e-07
5.23163e-07
8.51955e-06
-3.21538e-07
3.93757e-07
8.51985e-06
-2.06072e-07
2.05774e-07
8.61341e-06
-1.09949e-07
1.63928e-08
8.76878e-06
-2.15452e-08
-1.33825e-07
8.96769e-06
3.18491e-08
-2.30768e-07
9.23718e-06
7.03533e-08
-3.39843e-07
9.53533e-06
9.80429e-08
-3.96191e-07
9.84431e-06
5.56648e-08
-3.64647e-07
1.01223e-05
-1.22296e-08
-2.65797e-07
1.03418e-05
-1.39434e-07
-8.00757e-08
1.04942e-05
-2.7718e-07
1.24799e-07
1.05953e-05
-4.17339e-07
3.1623e-07
1.06768e-05
-5.46464e-07
4.65033e-07
1.07354e-05
-6.1424e-07
5.55595e-07
1.08229e-05
-7.09641e-07
6.22112e-07
1.0915e-05
-7.31165e-07
6.39151e-07
1.10157e-05
-8.03471e-07
7.02727e-07
1.10972e-05
-8.27218e-07
7.4572e-07
1.11883e-05
-8.6011e-07
7.68998e-07
1.12855e-05
-8.76553e-07
7.79333e-07
1.13744e-05
-8.74789e-07
7.85946e-07
1.14688e-05
-9.00652e-07
8.06256e-07
1.15124e-05
-8.92349e-07
8.48755e-07
1.15667e-05
-9.00902e-07
8.46607e-07
1.15591e-05
-8.73584e-07
8.81114e-07
1.15473e-05
-8.61559e-07
8.73335e-07
1.14996e-05
-7.97669e-07
8.45426e-07
1.14436e-05
-7.15873e-07
7.7186e-07
1.13791e-05
-5.93569e-07
6.58041e-07
1.1326e-05
-4.18222e-07
4.71404e-07
1.13295e-05
-2.4713e-07
2.43625e-07
1.13678e-05
3.41389e-08
-7.25223e-08
1.15137e-05
2.84687e-07
-4.3051e-07
1.17265e-05
5.97663e-07
-8.10489e-07
1.19986e-05
7.48254e-07
-1.0204e-06
1.23378e-05
9.04119e-07
-1.24326e-06
1.25723e-05
1.00955e-06
-1.2441e-06
1.28408e-05
1.01957e-06
-1.28806e-06
1.31322e-05
1.07558e-06
-1.367e-06
1.33222e-05
1.17379e-06
-1.36372e-06
1.36852e-05
1.20397e-06
-1.56696e-06
1.41503e-05
1.26759e-06
-1.7327e-06
1.45344e-05
1.47307e-06
-1.85715e-06
1.51838e-05
1.39263e-06
-2.04204e-06
1.59701e-05
1.35618e-06
-2.14252e-06
1.66155e-05
1.42662e-06
-2.07204e-06
1.7644e-05
8.37816e-07
-1.86624e-06
1.87443e-05
5.43253e-07
-1.64364e-06
1.9705e-05
-1.19808e-07
-8.40836e-07
2.09636e-05
-1.36348e-06
1.04845e-07
2.21059e-05
-2.30161e-06
1.15932e-06
2.30117e-05
-3.8197e-06
2.91387e-06
2.40135e-05
-5.33275e-06
4.33099e-06
2.46071e-05
-6.57059e-06
5.97697e-06
2.519e-05
-8.1757e-06
7.59278e-06
2.54852e-05
-8.97797e-06
8.68275e-06
2.5554e-05
-1.0022e-05
9.95325e-06
2.54937e-05
-1.03334e-05
1.03938e-05
2.52539e-05
-1.01853e-05
1.0425e-05
2.49256e-05
-1.0122e-05
1.04503e-05
2.40883e-05
-8.79671e-06
9.63399e-06
2.34565e-05
-7.92681e-06
8.55858e-06
2.32144e-05
-6.85252e-06
7.09465e-06
2.28649e-05
-4.86316e-06
5.21269e-06
2.22978e-05
-3.51723e-06
4.08433e-06
2.18997e-05
-1.88639e-06
2.28446e-06
2.1748e-05
-2.47358e-07
3.99035e-07
2.19746e-05
8.27972e-07
-1.05455e-06
2.21706e-05
2.34317e-06
-2.53915e-06
2.21307e-05
3.56807e-06
-3.52821e-06
2.23873e-05
3.89113e-06
-4.14768e-06
2.29937e-05
4.32341e-06
-4.92989e-06
2.36324e-05
4.60192e-06
-5.24061e-06
2.4391e-05
3.84489e-06
-4.60345e-06
2.52039e-05
3.18089e-06
-3.99384e-06
2.59174e-05
2.29863e-06
-3.01209e-06
2.67536e-05
7.43896e-07
-1.58009e-06
2.74945e-05
-3.58119e-07
-3.82789e-07
2.8211e-05
-1.62552e-06
9.08984e-07
2.9088e-05
-3.37578e-06
2.49886e-06
2.99084e-05
-4.51118e-06
3.69075e-06
3.07712e-05
-6.04636e-06
5.18351e-06
3.16712e-05
-7.51728e-06
6.61734e-06
3.24779e-05
-8.62988e-06
7.82319e-06
3.32948e-05
-1.00538e-05
9.23692e-06
3.41412e-05
-1.11793e-05
1.03329e-05
3.48656e-05
-1.18316e-05
1.11071e-05
3.54818e-05
-1.28372e-05
1.22211e-05
3.611e-05
-1.34676e-05
1.28394e-05
3.66797e-05
-1.37033e-05
1.31336e-05
3.68682e-05
-1.3886e-05
1.36975e-05
3.70817e-05
-1.39541e-05
1.37406e-05
3.72356e-05
-1.36819e-05
1.3528e-05
3.69955e-05
-1.32169e-05
1.3457e-05
3.67029e-05
-1.25741e-05
1.28667e-05
3.63432e-05
-1.16737e-05
1.20335e-05
3.56558e-05
-1.07976e-05
1.1485e-05
3.49453e-05
-9.52878e-06
1.02392e-05
3.39705e-05
-8.33474e-06
9.3096e-06
3.25998e-05
-6.90848e-06
8.27913e-06
3.11411e-05
-5.74538e-06
7.20405e-06
2.92766e-05
-4.56256e-06
6.42706e-06
2.72587e-05
-3.53588e-06
5.55386e-06
2.54557e-05
-2.93457e-06
4.73755e-06
2.35864e-05
-2.48956e-06
4.35889e-06
2.17301e-05
-1.62509e-06
3.48138e-06
2.04113e-05
-1.25831e-06
2.57703e-06
1.9352e-05
-1.32038e-06
2.37973e-06
1.84856e-05
-1.46748e-06
2.33385e-06
1.80752e-05
-2.02146e-06
2.43189e-06
1.78902e-05
-2.9891e-06
3.17408e-06
1.76887e-05
-3.80827e-06
4.0098e-06
1.7491e-05
-4.33728e-06
4.53501e-06
1.72584e-05
-4.91322e-06
5.1458e-06
1.7047e-05
-5.61781e-06
5.82917e-06
1.71773e-05
-6.33255e-06
6.20224e-06
1.78299e-05
-7.03111e-06
6.37858e-06
1.89596e-05
-8.06715e-06
6.93743e-06
2.03112e-05
-9.32103e-06
7.96943e-06
2.1606e-05
-1.03502e-05
9.0554e-06
2.27725e-05
-1.06314e-05
9.46495e-06
2.39515e-05
-1.04985e-05
9.31951e-06
2.49853e-05
-1.02591e-05
9.22519e-06
2.6026e-05
-9.93847e-06
8.89781e-06
2.69613e-05
-8.921e-06
7.98567e-06
2.78737e-05
-7.65793e-06
6.7456e-06
2.83243e-05
-5.68827e-06
5.23768e-06
2.85985e-05
-3.23481e-06
2.96054e-06
2.85927e-05
-6.17698e-07
6.23539e-07
2.86106e-05
1.39087e-06
-1.40884e-06
2.84818e-05
4.42141e-06
-4.29257e-06
2.81631e-05
7.30826e-06
-6.98956e-06
2.80223e-05
9.49684e-06
-9.35607e-06
2.77321e-05
1.21084e-05
-1.18182e-05
2.76292e-05
1.46611e-05
-1.45582e-05
2.72164e-05
1.66409e-05
-1.62281e-05
2.68157e-05
1.83259e-05
-1.79252e-05
2.60235e-05
2.06557e-05
-1.98635e-05
2.42385e-05
2.13912e-05
-1.96062e-05
2.25462e-05
2.01449e-05
-1.84525e-05
2.10194e-05
1.95035e-05
-1.79768e-05
1.96835e-05
1.91453e-05
-1.78094e-05
1.81967e-05
1.84439e-05
-1.69572e-05
1.66977e-05
1.67026e-05
-1.52035e-05
1.56773e-05
1.50801e-05
-1.40597e-05
1.50814e-05
1.41907e-05
-1.35948e-05
1.487e-05
1.47064e-05
-1.4495e-05
1.46113e-05
1.61091e-05
-1.58504e-05
1.46918e-05
1.6882e-05
-1.69625e-05
1.42748e-05
1.93853e-05
-1.89683e-05
1.46651e-05
1.93935e-05
-1.97838e-05
1.51184e-05
2.19467e-05
-2.24e-05
1.51221e-05
2.09987e-05
-2.10024e-05
1.50699e-05
2.01299e-05
-2.00776e-05
1.49903e-05
1.73371e-05
-1.72575e-05
1.4937e-05
1.58538e-05
-1.58004e-05
1.54483e-05
1.27659e-05
-1.32772e-05
1.5079e-05
1.24331e-05
-1.20638e-05
1.55872e-05
8.03205e-06
-8.54025e-06
1.50107e-05
8.80532e-06
-8.2288e-06
1.64268e-05
2.88655e-06
-4.3026e-06
1.62273e-05
5.63008e-06
-5.4306e-06
1.731e-05
-1.18549e-06
1.02723e-07
1.64722e-05
2.43859e-06
-1.60071e-06
1.85363e-05
-6.70109e-06
4.63697e-06
1.84634e-05
2.66508e-07
-1.93624e-07
2.01641e-05
-8.5252e-06
6.82448e-06
1.89915e-05
-3.094e-06
4.2666e-06
2.11868e-05
-1.2013e-05
9.81773e-06
2.05324e-05
-6.30732e-06
6.96164e-06
2.17412e-05
-1.28289e-05
1.16202e-05
2.0176e-05
-7.52002e-06
9.08521e-06
2.08646e-05
-1.14312e-05
1.07426e-05
1.88406e-05
-6.89983e-06
8.92374e-06
1.91066e-05
-8.96395e-06
8.69801e-06
1.73411e-05
-4.80375e-06
6.5692e-06
1.78722e-05
-7.87572e-06
7.34469e-06
1.63883e-05
-5.54351e-06
7.02733e-06
1.733e-05
-7.42448e-06
6.48278e-06
1.72486e-05
-3.8154e-06
3.89683e-06
1.73288e-05
-1.76155e-06
1.68136e-06
1.62963e-05
1.16329e-06
-1.30781e-07
1.67221e-05
3.00763e-06
-3.43338e-06
1.48232e-05
7.55299e-06
-5.6541e-06
1.44504e-05
7.33603e-06
-6.96331e-06
1.31714e-05
1.37223e-05
-1.24433e-05
1.52799e-05
1.56517e-05
-1.77602e-05
3.01187e-05
-3.00086e-05
1.51698e-05
1.29528e-05
-2.07413e-07
1.29861e-05
5.46512e-08
1.31127e-05
2.51821e-07
1.32417e-05
3.58276e-07
1.34213e-05
2.84885e-07
1.3656e-05
1.19496e-07
1.38805e-05
-3.55296e-08
1.40523e-05
-1.97552e-07
1.41604e-05
-3.09161e-07
1.41958e-05
-3.78614e-07
1.41905e-05
-4.09671e-07
1.41708e-05
-3.73889e-07
1.41977e-05
-3.48377e-07
1.42413e-05
-2.49689e-07
1.43404e-05
-2.09033e-07
1.44695e-05
-1.50641e-07
1.46209e-05
-1.19613e-07
1.48287e-05
-1.37397e-07
1.50413e-05
-1.14602e-07
1.52851e-05
-1.8817e-07
1.54882e-05
-2.15321e-07
1.56761e-05
-3.27348e-07
1.58279e-05
-4.28975e-07
1.59337e-05
-5.23062e-07
1.60542e-05
-6.66975e-07
1.61375e-05
-6.97582e-07
1.62605e-05
-8.32589e-07
1.6369e-05
-8.39711e-07
1.64825e-05
-9.16998e-07
1.66079e-05
-9.52568e-07
1.66999e-05
-9.52135e-07
1.68377e-05
-1.01435e-06
1.69155e-05
-9.52546e-07
1.70159e-05
-1.00107e-06
1.70684e-05
-9.44877e-07
1.70973e-05
-9.29788e-07
1.7118e-05
-8.94243e-07
1.70726e-05
-8.16233e-07
1.70311e-05
-7.56088e-07
1.69438e-05
-6.28587e-07
1.68597e-05
-5.09512e-07
1.67537e-05
-3.12202e-07
1.66392e-05
-1.32649e-07
1.6587e-05
8.63875e-08
1.65337e-05
3.37939e-07
1.65983e-05
5.3305e-07
1.66523e-05
6.94287e-07
1.6725e-05
8.31363e-07
1.69222e-05
8.12401e-07
1.70027e-05
9.39023e-07
1.71998e-05
8.78529e-07
1.74871e-05
8.86494e-07
1.76864e-05
1.00463e-06
1.81435e-05
8.10511e-07
1.86663e-05
9.50287e-07
1.91956e-05
8.63297e-07
1.99847e-05
5.67067e-07
2.0871e-05
5.40376e-07
2.17155e-05
-6.74972e-09
2.28483e-05
-5.89483e-07
2.39701e-05
-1.24162e-06
2.49524e-05
-2.34576e-06
2.61169e-05
-3.46611e-06
2.69543e-05
-4.6571e-06
2.7679e-05
-6.05744e-06
2.83221e-05
-7.21376e-06
2.85449e-05
-8.39846e-06
2.86575e-05
-9.0906e-06
2.84637e-05
-9.8282e-06
2.80758e-05
-9.94554e-06
2.7397e-05
-9.50648e-06
2.66854e-05
-9.41045e-06
2.60532e-05
-8.16449e-06
2.53367e-05
-7.21024e-06
2.47068e-05
-6.22271e-06
2.41735e-05
-4.3298e-06
2.40612e-05
-3.40493e-06
2.42353e-05
-2.06052e-06
2.41241e-05
-1.36138e-07
2.42339e-05
7.18132e-07
2.46699e-05
1.90717e-06
2.4928e-05
3.31001e-06
2.52558e-05
3.56334e-06
2.57999e-05
3.77932e-06
2.63692e-05
4.03259e-06
2.70093e-05
3.2048e-06
2.76577e-05
2.53249e-06
2.82496e-05
1.7067e-06
2.9013e-05
-1.94661e-08
2.97818e-05
-1.12688e-06
3.05614e-05
-2.40515e-06
3.13878e-05
-4.20215e-06
3.21945e-05
-5.3179e-06
3.29957e-05
-6.84754e-06
3.38072e-05
-8.3288e-06
3.45123e-05
-9.33499e-06
3.51367e-05
-1.06782e-05
3.57323e-05
-1.17748e-05
3.62796e-05
-1.23789e-05
3.65732e-05
-1.31308e-05
3.67693e-05
-1.36637e-05
3.69895e-05
-1.39235e-05
3.69167e-05
-1.38132e-05
3.686e-05
-1.38974e-05
3.67934e-05
-1.36153e-05
3.65078e-05
-1.29313e-05
3.62096e-05
-1.22759e-05
3.59247e-05
-1.13888e-05
3.53217e-05
-1.01946e-05
3.45274e-05
-8.73449e-06
3.34556e-05
-7.26294e-06
3.213e-05
-5.58288e-06
3.0619e-05
-4.23438e-06
2.88122e-05
-2.7557e-06
2.6929e-05
-1.65274e-06
2.50011e-05
-1.00659e-06
2.2988e-05
-4.76481e-07
2.12632e-05
9.96826e-08
1.99482e-05
5.66863e-08
1.87956e-05
-1.67771e-07
1.80925e-05
-7.64438e-07
1.76729e-05
-1.60186e-06
1.72471e-05
-2.56326e-06
1.68941e-05
-3.45528e-06
1.67415e-05
-4.18464e-06
1.66102e-05
-4.78198e-06
1.6476e-05
-5.48356e-06
1.67385e-05
-6.59503e-06
1.75809e-05
-7.8736e-06
1.87836e-05
-9.26982e-06
2.00705e-05
-1.06079e-05
2.12124e-05
-1.14921e-05
2.22738e-05
-1.16929e-05
2.32718e-05
-1.14965e-05
2.42297e-05
-1.1217e-05
2.50368e-05
-1.07455e-05
2.58543e-05
-9.73845e-06
2.64752e-05
-8.27889e-06
2.6783e-05
-5.99601e-06
2.67841e-05
-3.23596e-06
2.68133e-05
-6.46858e-07
2.67268e-05
1.47736e-06
2.66502e-05
4.498e-06
2.6318e-05
7.64041e-06
2.62993e-05
9.5156e-06
2.61095e-05
1.22982e-05
2.59749e-05
1.47957e-05
2.59448e-05
1.66711e-05
2.57558e-05
1.8515e-05
2.56214e-05
2.079e-05
2.44304e-05
2.25822e-05
2.28149e-05
2.17604e-05
2.13837e-05
2.09347e-05
1.99541e-05
2.0575e-05
1.87641e-05
1.96339e-05
1.74158e-05
1.80509e-05
1.63316e-05
1.61643e-05
1.55687e-05
1.49536e-05
1.54754e-05
1.47997e-05
1.52469e-05
1.63375e-05
1.5687e-05
1.64419e-05
1.5778e-05
1.92943e-05
1.56509e-05
1.95206e-05
1.61666e-05
2.14311e-05
1.66955e-05
2.04697e-05
1.70555e-05
1.97699e-05
1.73892e-05
1.70034e-05
1.70069e-05
1.62361e-05
1.7831e-05
1.19418e-05
1.75683e-05
1.26958e-05
1.84166e-05
7.18383e-06
1.78726e-05
9.34931e-06
1.90527e-05
1.70647e-06
1.87027e-05
5.98006e-06
2.0546e-05
-3.02883e-06
2.00851e-05
2.89953e-06
2.11258e-05
-7.74183e-06
2.05981e-05
7.94231e-07
2.2209e-05
-1.01361e-05
2.12252e-05
-2.11022e-06
2.29072e-05
-1.3695e-05
2.18921e-05
-5.29215e-06
2.32893e-05
-1.42261e-05
2.13847e-05
-5.61552e-06
2.32291e-05
-1.32755e-05
2.07433e-05
-4.41404e-06
2.19429e-05
-1.01635e-05
1.99449e-05
-2.80577e-06
2.06454e-05
-8.57622e-06
1.9088e-05
-3.98607e-06
2.00224e-05
-8.35887e-06
1.9477e-05
-3.27007e-06
1.95839e-05
-1.86844e-06
1.79376e-05
2.80959e-06
1.85219e-05
2.42333e-06
1.81815e-05
7.89344e-06
1.87394e-05
6.77808e-06
1.68642e-05
1.55975e-05
2.38542e-05
8.6617e-06
3.00018e-05
2.39711e-05
2.00449e-05
6.85189e-08
1.97611e-05
3.38451e-07
1.96397e-05
3.73213e-07
1.97285e-05
2.69489e-07
1.98751e-05
1.38291e-07
2.00167e-05
-2.21279e-08
2.0144e-05
-1.6287e-07
2.02449e-05
-2.98404e-07
2.03012e-05
-3.65463e-07
2.0319e-05
-3.96423e-07
2.03145e-05
-4.05183e-07
2.02959e-05
-3.55247e-07
2.03059e-05
-3.58449e-07
2.03277e-05
-2.71502e-07
2.03816e-05
-2.629e-07
2.04687e-05
-2.37679e-07
2.05767e-05
-2.27678e-07
2.07263e-05
-2.86958e-07
2.08899e-05
-2.78184e-07
2.1073e-05
-3.71311e-07
2.12414e-05
-3.83704e-07
2.1392e-05
-4.77965e-07
2.15155e-05
-5.52434e-07
2.16073e-05
-6.14944e-07
2.16911e-05
-7.50751e-07
2.17613e-05
-7.67744e-07
2.18356e-05
-9.06894e-07
2.19217e-05
-9.25821e-07
2.19937e-05
-9.89021e-07
2.20856e-05
-1.04444e-06
2.21565e-05
-1.02303e-06
2.22368e-05
-1.09471e-06
2.23133e-05
-1.02905e-06
2.23557e-05
-1.04349e-06
2.24184e-05
-1.00748e-06
2.2413e-05
-9.24391e-07
2.24228e-05
-9.0406e-07
2.23853e-05
-7.78772e-07
2.2324e-05
-6.94808e-07
2.22773e-05
-5.81878e-07
2.21619e-05
-3.9405e-07
2.21286e-05
-2.78979e-07
2.20247e-05
-2.8676e-08
2.19735e-05
1.37577e-07
2.19658e-05
3.45647e-07
2.19234e-05
5.75426e-07
2.199e-05
6.27711e-07
2.19839e-05
8.3743e-07
2.20442e-05
7.52076e-07
2.21561e-05
8.27187e-07
2.22256e-05
8.09008e-07
2.24411e-05
6.70989e-07
2.26999e-05
7.45808e-07
2.29975e-05
5.12957e-07
2.3483e-05
4.64791e-07
2.40504e-05
2.95896e-07
2.46324e-05
-1.4952e-08
2.55129e-05
-3.40127e-07
2.63066e-05
-8.00454e-07
2.72224e-05
-1.50528e-06
2.82807e-05
-2.2999e-06
2.90585e-05
-3.12362e-06
2.99433e-05
-4.3509e-06
3.06492e-05
-5.363e-06
3.10116e-05
-6.41986e-06
3.13856e-05
-7.58774e-06
3.1255e-05
-8.2678e-06
3.10304e-05
-8.86605e-06
3.05062e-05
-9.30404e-06
2.96908e-05
-9.13014e-06
2.89233e-05
-8.73891e-06
2.80068e-05
-8.49397e-06
2.7038e-05
-7.19573e-06
2.60838e-05
-6.25605e-06
2.55357e-05
-5.67455e-06
2.50446e-05
-3.83871e-06
2.46181e-05
-2.97846e-06
2.46089e-05
-2.05129e-06
2.46697e-05
-1.96957e-07
2.49495e-05
4.38339e-07
2.5617e-05
1.23966e-06
2.62832e-05
2.64384e-06
2.70323e-05
2.8142e-06
2.77574e-05
3.05428e-06
2.84847e-05
3.30528e-06
2.92981e-05
2.39141e-06
3.00422e-05
1.78837e-06
3.06943e-05
1.05458e-06
3.13679e-05
-6.9304e-07
3.20311e-05
-1.79008e-06
3.27306e-05
-3.10469e-06
3.33257e-05
-4.79719e-06
3.39237e-05
-5.91594e-06
3.44762e-05
-7.39998e-06
3.49348e-05
-8.78747e-06
3.53384e-05
-9.73853e-06
3.56291e-05
-1.0969e-05
3.57354e-05
-1.18811e-05
3.59368e-05
-1.25803e-05
3.60099e-05
-1.32039e-05
3.58868e-05
-1.35406e-05
3.59493e-05
-1.3986e-05
3.60941e-05
-1.39581e-05
3.61079e-05
-1.39112e-05
3.61667e-05
-1.36741e-05
3.63145e-05
-1.3079e-05
3.62842e-05
-1.22456e-05
3.61374e-05
-1.12421e-05
3.57273e-05
-9.7845e-06
3.51112e-05
-8.11839e-06
3.41434e-05
-6.29514e-06
3.29206e-05
-4.3601e-06
3.12934e-05
-2.60709e-06
2.92801e-05
-7.42428e-07
2.71741e-05
4.53205e-07
2.50302e-05
1.13737e-06
2.30289e-05
1.52484e-06
2.13701e-05
1.75843e-06
1.99069e-05
1.51987e-06
1.87045e-05
1.03465e-06
1.78768e-05
6.32852e-08
1.7089e-05
-8.1409e-07
1.64862e-05
-1.96049e-06
1.61461e-05
-3.11515e-06
1.58021e-05
-3.84064e-06
1.54447e-05
-4.4246e-06
1.54891e-05
-5.5279e-06
1.60867e-05
-7.19264e-06
1.70997e-05
-8.88666e-06
1.82948e-05
-1.04649e-05
1.9421e-05
-1.17341e-05
2.04041e-05
-1.24752e-05
2.12931e-05
-1.25819e-05
2.21215e-05
-1.23249e-05
2.2938e-05
-1.20336e-05
2.35624e-05
-1.137e-05
2.4206e-05
-1.0382e-05
2.44737e-05
-8.54655e-06
2.458e-05
-6.10227e-06
2.44367e-05
-3.09266e-06
2.4657e-05
-8.67227e-07
2.46029e-05
1.53146e-06
2.4636e-05
4.46488e-06
2.44837e-05
7.79277e-06
2.4553e-05
9.44623e-06
2.45558e-05
1.22954e-05
2.42469e-05
1.51047e-05
2.43784e-05
1.65396e-05
2.43194e-05
1.85739e-05
2.435e-05
2.07595e-05
2.3968e-05
2.29642e-05
2.26932e-05
2.30351e-05
2.15102e-05
2.21177e-05
2.01546e-05
2.19305e-05
1.87867e-05
2.10018e-05
1.77081e-05
1.91296e-05
1.67695e-05
1.71029e-05
1.59068e-05
1.58163e-05
1.60349e-05
1.46716e-05
1.59332e-05
1.64392e-05
1.6203e-05
1.61721e-05
1.69235e-05
1.85738e-05
1.72383e-05
1.92058e-05
1.7815e-05
2.08544e-05
1.82138e-05
2.00709e-05
1.83721e-05
1.96116e-05
1.93472e-05
1.60283e-05
1.91018e-05
1.64814e-05
2.01727e-05
1.08708e-05
1.98578e-05
1.30107e-05
2.06791e-05
6.36248e-06
2.03469e-05
9.68153e-06
2.17846e-05
2.68781e-07
2.1093e-05
6.67161e-06
2.22231e-05
-4.15894e-06
2.19322e-05
3.1905e-06
2.26747e-05
-8.4844e-06
2.17872e-05
1.68179e-06
2.29346e-05
-1.12835e-05
2.28953e-05
-2.07086e-06
2.38071e-05
-1.46068e-05
2.32399e-05
-4.72501e-06
2.39925e-05
-1.49787e-05
2.19718e-05
-3.5948e-06
2.31437e-05
-1.44474e-05
2.15962e-05
-2.86654e-06
2.33682e-05
-1.19355e-05
2.1728e-05
-1.16564e-06
2.36136e-05
-1.04618e-05
2.15136e-05
-1.88612e-06
2.33892e-05
-1.02345e-05
2.17095e-05
-1.5904e-06
2.5169e-05
-5.32795e-06
2.19854e-05
5.99327e-06
2.29392e-05
1.46949e-06
1.89789e-05
1.18537e-05
2.17065e-05
4.05055e-06
1.81614e-05
1.91426e-05
2.30758e-05
3.74731e-06
2.48866e-05
2.8191e-05
2.4966e-05
9.79681e-08
2.50717e-05
2.32797e-07
2.52191e-05
2.25724e-07
2.53526e-05
1.36044e-07
2.55015e-05
-1.06648e-08
2.56284e-05
-1.49e-07
2.56934e-05
-2.27816e-07
2.57244e-05
-3.29463e-07
2.56921e-05
-3.33187e-07
2.56823e-05
-3.86534e-07
2.56542e-05
-3.77099e-07
2.5639e-05
-3.40122e-07
2.56565e-05
-3.75921e-07
2.56611e-05
-2.76061e-07
2.57254e-05
-3.27255e-07
2.576e-05
-2.72235e-07
2.58524e-05
-3.20101e-07
2.59284e-05
-3.62912e-07
2.60351e-05
-3.84915e-07
2.61606e-05
-4.96854e-07
2.62486e-05
-4.71667e-07
2.6399e-05
-6.2841e-07
2.64488e-05
-6.02169e-07
2.65692e-05
-7.35414e-07
2.66109e-05
-7.92446e-07
2.66645e-05
-8.21284e-07
2.67311e-05
-9.73465e-07
2.6733e-05
-9.27786e-07
2.68009e-05
-1.05687e-06
2.67833e-05
-1.02691e-06
2.68242e-05
-1.06392e-06
2.68129e-05
-1.08334e-06
2.6833e-05
-1.04923e-06
2.68366e-05
-1.04706e-06
2.68321e-05
-1.00296e-06
2.68583e-05
-9.50552e-07
2.68151e-05
-8.60867e-07
2.68309e-05
-7.94658e-07
2.67682e-05
-6.32045e-07
2.67362e-05
-5.49876e-07
2.66804e-05
-3.3828e-07
2.66148e-05
-2.13363e-07
2.66015e-05
-1.53407e-08
2.65561e-05
1.82917e-07
2.65763e-05
3.25433e-07
2.66112e-05
5.40576e-07
2.66539e-05
5.84963e-07
2.67641e-05
7.27243e-07
2.68252e-05
6.90994e-07
2.6959e-05
6.93432e-07
2.71334e-05
6.34547e-07
2.72646e-05
5.39761e-07
2.7599e-05
4.11469e-07
2.78623e-05
2.49646e-07
2.82193e-05
1.07783e-07
2.88188e-05
-3.03652e-07
2.92512e-05
-4.47325e-07
2.99616e-05
-1.05055e-06
3.06843e-05
-1.52315e-06
3.12793e-05
-2.10023e-06
3.20615e-05
-3.08205e-06
3.26245e-05
-3.68669e-06
3.30782e-05
-4.80453e-06
3.3435e-05
-5.71989e-06
3.34297e-05
-6.41453e-06
3.33195e-05
-7.47757e-06
3.2838e-05
-7.78625e-06
3.22013e-05
-8.22936e-06
3.13334e-05
-8.4361e-06
3.02731e-05
-8.06985e-06
2.93154e-05
-7.78119e-06
2.81565e-05
-7.33511e-06
2.72285e-05
-6.26776e-06
2.64805e-05
-5.50808e-06
2.57131e-05
-4.90708e-06
2.52421e-05
-3.3677e-06
2.49913e-05
-2.72768e-06
2.49723e-05
-2.03231e-06
2.5124e-05
-3.4867e-07
2.54489e-05
1.13466e-07
2.58844e-05
8.04103e-07
2.65654e-05
1.9629e-06
2.74263e-05
1.9533e-06
2.82076e-05
2.27294e-06
2.91067e-05
2.40621e-06
2.99501e-05
1.548e-06
3.07297e-05
1.00874e-06
3.15533e-05
2.30981e-07
3.20869e-05
-1.22663e-06
3.2638e-05
-2.34117e-06
3.32084e-05
-3.67511e-06
3.35375e-05
-5.12623e-06
3.39097e-05
-6.28815e-06
3.41697e-05
-7.66001e-06
3.42803e-05
-8.89805e-06
3.44771e-05
-9.93533e-06
3.45249e-05
-1.10168e-05
3.4493e-05
-1.18492e-05
3.46843e-05
-1.27716e-05
3.48488e-05
-1.33685e-05
3.50377e-05
-1.37295e-05
3.53997e-05
-1.4348e-05
3.58744e-05
-1.44328e-05
3.62222e-05
-1.42589e-05
3.65579e-05
-1.40098e-05
3.68568e-05