/*--------------------------------*- C++ -*----------------------------------*\
| =========                 |                                                 |
| \\      /  F ield         | OpenFOAM: The Open Source CFD Toolbox           |
|  \\    /   O peration     | Version:  2.4.0                                 |
|   \\  /    A nd           | Web:      www.OpenFOAM.org                      |
|    \\/     M anipulation  |                                                 |
\*---------------------------------------------------------------------------*/
FoamFile
{
    version     2.0;
    format      ascii;
    class       volScalarField;
    location    "1.81";
    object      pPrime2Mean;
}
// * * * * * * * * * * * * * * * * * * * * * * * * * * * * * * * * * * * * * //

dimensions      [0 4 -4 0 0 0 0];

internalField   nonuniform List<scalar> 
8800
(
357421
348408
338738
329149
319692
310372
301190
292145
283238
274467
265833
257333
248966
240727
232607
224593
216651
208723
200663
192024
357434
348409
338737
329149
319692
310372
301190
292145
283238
274467
265833
257334
248967
240729
232610
224598
216660
208742
200708
192171
357442
348409
338734
329147
319692
310372
301190
292145
283238
274468
265833
257334
248968
240731
232614
224606
216676
208777
200789
192455
357448
348409
338732
329146
319691
310372
301190
292145
283238
274468
265834
257335
248970
240734
232620
224618
216700
208826
200902
192787
357453
348409
338730
329144
319690
310372
301190
292145
283238
274468
265834
257337
248972
240739
232629
224634
216731
208888
201039
193130
357457
348409
338728
329143
319690
310371
301190
292145
283238
274468
265835
257338
248975
240744
232639
224653
216767
208959
201189
193464
357460
348409
338727
329142
319689
310371
301190
292145
283238
274469
265836
257340
248978
240750
232650
224674
216807
209037
201345
193782
357462
348410
338727
329141
319689
310371
301190
292145
283238
274469
265837
257342
248982
240757
232663
224697
216851
209118
201503
194078
357464
348410
338726
329140
319688
310371
301190
292145
283239
274470
265838
257344
248986
240764
232676
224721
216895
209201
201657
194350
357465
348410
338726
329140
319688
310372
301190
292145
283239
274470
265839
257346
248990
240771
232690
224745
216941
209283
201805
194598
357465
348410
338726
329140
319688
310372
301190
292146
283239
274471
265841
257348
248994
240779
232703
224770
216985
209363
201944
194822
357464
348410
338726
329140
319688
310372
301190
292146
283240
274472
265842
257350
248998
240786
232716
224794
217028
209439
202072
195022
357462
348410
338727
329141
319689
310372
301191
292146
283240
274472
265843
257353
249002
240793
232729
224816
217069
209509
202188
195198
357460
348410
338728
329142
319689
310372
301191
292146
283241
274473
265844
257355
249006
240800
232741
224837
217106
209572
202291
195352
357457
348409
338729
329143
319690
310372
301191
292147
283241
274474
265845
257356
249009
240805
232751
224856
217138
209628
202381
195482
357453
348409
338730
329145
319691
310372
301191
292147
283242
274474
265846
257358
249012
240811
232761
224873
217167
209675
202456
195591
357448
348409
338732
329146
319691
310373
301191
292147
283242
274475
265847
257359
249014
240815
232768
224886
217190
209714
202516
195678
357442
348409
338735
329148
319692
310373
301191
292148
283242
274475
265848
257361
249016
240818
232774
224896
217207
209743
202562
195742
357434
348409
338737
329149
319693
310373
301192
292148
283243
274476
265848
257361
249017
240820
232778
224903
217219
209763
202592
195785
357421
348408
338738
329150
319693
310373
301192
292148
283243
274476
265848
257362
249018
240822
232780
224907
217226
209773
202607
195805
184194
182086
180477
179086
177796
176569
175386
174235
173111
172007
170919
169845
168782
167730
166686
165649
164619
163594
162573
161557
160545
159538
158535
157537
156543
155553
154567
153584
152604
151628
150655
149686
148721
147762
146807
145857
144912
143972
143037
142105
141176
140250
139327
138407
137489
136574
135662
134753
133848
132947
132048
131152
130259
129368
128480
127595
126713
125834
124959
124086
123216
122349
121483
120620
119759
118901
118046
117194
116346
115501
114659
113819
112981
112146
111312
110481
109651
108825
108002
107184
106370
105561
104756
103957
103161
102370
101581
100796
100014
99234.8
98458.4
97684.3
96912.2
96142.1
95373.8
94607.7
93843.6
93082.1
92322.7
91566.5
90813
90063.6
89317.5
88575.9
87838.3
87105.5
86377
85653.3
84933.7
84218.8
83507.7
82801
82097.9
81398.7
80702.3
80009
79317.9
78629.6
77943.6
77260.8
76580.8
75904.5
75230.6
74560.1
73891.2
73225.6
72561.2
71900.4
71240.8
70584.4
69929.1
69276.2
68624.7
67974.9
67326.8
66680.4
66036.2
65394
64754.4
64117.9
63484.2
62854.2
62227.5
61604.5
60984.9
60369.1
59756.8
59148.1
58542.4
57939.8
57339.8
56742.5
56147.3
55554.3
54963.2
54374.5
53787.7
53204
52623
52045.3
51470.6
50900
50332.7
49770.6
49211.9
48659
48109.6
47566.9
47027.8
46496.3
45967.4
45447.4
44927.4
44418
43906.7
43407.1
42903.5
42413.3
41916.8
41434.1
40944.9
40468.7
39986.3
39513.7
39035.9
38562.9
38085.1
37608.1
37123.5
36635.8
36136.2
35628.1
35102
34559.9
33989.9
33393
32752.4
32055.3
31313
30408.7
185696
183449
181618
180040
178612
177278
176009
174786
173601
172444
171310
170196
169098
168014
166941
165880
164826
163781
162742
161710
160683
159662
158647
157638
156634
155634
154640
153649
152663
151681
150703
149729
148760
147796
146838
145884
144936
143992
143053
142118
141186
140258
139332
138410
137490
136574
135660
134750
133844
132941
132041
131144
130250
129359
128471
127585
126703
125824
124948
124076
123205
122338
121472
120609
119748
118890
118035
117183
116335
115489
114647
113807
112969
112134
111301
110470
109642
108817
107995
107178
106365
105558
104755
103957
103163
102373
101586
100802
100021
99243.2
98467.9
97694.8
96923.6
96154.3
95386.7
94621.1
93857.5
93096.3
92337.4
91581.6
90828.7
90079.5
89333.8
88592.5
87855.2
87122.2
86393.6
85669.4
84949.6
84234.2
83522.9
82815.9
82112.6
81412.8
80716
80021.9
79330.3
78641.2
77955
77272.4
76592.9
75917.2
75244.2
74574.5
73906.7
73242
72578.8
71918.4
71259.7
70603.2
69948.5
69295.4
68644.1
67994.3
67346.4
66700.4
66056.4
65414.9
64775.9
64140.1
63507.3
62878.2
62252.6
61630.7
61012.5
60397.8
59787
59179.4
58575
57973.3
57374.7
56778.3
56183.9
55591.3
55000.4
54411.3
53824
53239.4
52657.2
52077.9
51501.8
50929.4
50360.2
49795.5
49234.1
48677.6
48124.6
47577.4
47033.4
46496.5
45961.5
45434.8
44907.8
44390.1
43870.6
43361.7
42849.1
42347.5
41841.2
41345.1
40845.4
40353.3
39859.1
39368.5
38876.9
38385
37890.5
37392.9
36889.7
36378.5
35857.5
35321.2
34769
34191.4
33588.6
32939.1
32264.3
31469.8
30669.5
29775.6
186738
184509
182592
180903
179373
177950
176605
175318
174075
172869
171691
170538
169406
168291
167192
166105
165030
163964
162907
161859
160818
159784
158757
157736
156722
155714
154711
153713
152720
151732
150749
149771
148798
147830
146867
145910
144958
144010
143068
142129
141194
140263
139336
138411
137490
136572
135657
134746
133838
132934
132033
131135
130241
129349
128460
127575
126692
125813
124937
124064
123193
122326
121460
120598
119737
118879
118025
117173
116324
115479
114636
113796
112958
112123
111291
110461
109634
108810
107990
107174
106363
105557
104756
103959
103167
102378
101592
100810
100031
99254.1
98479.9
97707.9
96937.6
96169
95402.2
94637.2
93874.3
93113.6
92355.4
91600.2
90848.1
90099.3
89354.3
88613.1
87876
87142.7
86414
85689.2
84969.1
84253.2
83541.7
82834.1
82130.3
81429.7
80732.1
80037
79344.7
78655.2
77969.1
77286.9
76608.2
75933.2
75261.3
74592.4
73926.1
73262.1
72600.2
71940.3
71282.3
70625.7
69971.2
69317.8
68666.5
68016.6
67368.8
66723
66079.4
65438.4
64800.1
64165
63533.3
62905.2
62280.9
61660.4
61043.6
60430.4
59821
59214.5
58611.4
58010.8
57413.4
56818
56224.2
55632
55041.1
54451.3
53863.4
53277.5
52693.9
52112.8
51535.1
50960.8
50389.6
49822.4
49258.4
48698.2
48141.8
47590.3
47041.4
46498.9
45957.8
45423.6
44889.3
44362.7
43834.9
43315.4
42794.3
42280.4
41765.5
41255.3
40745.8
40237.9
39732
39224.4
38718.8
38208.3
37698.6
37179.8
36661
36125.9
35587.6
35022.9
34452
33836.4
33218.4
32513.7
31827.9
30988.7
30160.2
29305.3
187532
185362
183420
181669
180067
178576
177167
175823
174529
173277
172059
170870
169705
168561
167435
166324
165227
164142
163068
162004
160949
159902
158863
157832
156809
155791
154781
153776
152776
151783
150794
149811
148834
147862
146895
145934
144978
144028
143081
142140
141202
140269
139339
138412
137489
136570
135653
134741
133832
132927
132025
131126
130231
129339
128450
127564
126681
125802
124925
124052
123182
122314
121449
120586
119727
118869
118015
117163
116315
115469
114627
113787
112950
112115
111283
110454
109628
108805
107986
107172
106363
105558
104758
103963
103172
102385
101601
100820
100042
99267.2
98494.3
97723.2
96953.7
96185.9
95419.9
94655.6
93893.5
93133.5
92376.3
91621.9
90870.7
90122.5
89378.1
88636.9
87899.8
87166.2
86437
85711.7
84991.1
84274.6
83562.6
82854.1
82149.7
81448
80749.5
80053.2
79360.4
78670.5
77984.8
77302.9
76625.3
75951.1
75280.4
74612.5
73947.5
73284.3
72623.5
71964.3
71306.8
70650.2
69995.6
69341.9
68690.5
68040.4
67392.6
66746.8
66103.6
65462.9
64825.5
64191.1
63560.4
62933.4
62310.4
61691.2
61075.9
60464.1
59856.2
59250.9
58649.2
58049.9
57453.9
56859.1
56266.1
55673.8
55083
54492.2
53903.4
53315.7
52730.3
52147.5
51568.5
50991.8
50418.9
49849
49282.7
48719.1
48159.5
47603.5
47050.2
46501.7
45954.9
45412.7
44871.2
44334.7
43799.3
43268.7
42739.5
42213.4
41689.6
41166.2
40646.5
40123.9
39605.9
39081.9
38563.4
38034
37511.8
36971.1
36440
35879.3
35330.4
34733.8
34155.9
33499.3
32876.8
32131.5
31425
30599.5
29774
28952.8
188172
186061
184123
182343
180695
179151
177691
176298
174959
173666
172410
171187
169992
168820
167669
166536
165418
164315
163224
162145
161076
160017
158967
157926
156893
155867
154849
153837
152831
151832
150839
149851
148869
147893
146923
145958
144999
144045
143095
142151
141210
140274
139342
138414
137489
136568
135651
134737
133827
132920
132018
131118
130222
129330
128440
127554
126671
125791
124915
124041
123171
122303
121439
120577
119717
118860
118007
117156
116307
115462
114619
113780
112943
112108
111277
110448
109623
108802
107984
107172
106364
105561
104763
103969
103179
102393
101611
100832
100056
99281.9
98510.3
97740.1
96971.7
96204.7
95439.6
94675.9
93914.7
93155.6
92399.4
91645.8
90895.5
90147.8
89403.7
88662.5
87925
87191
86461.2
85735.3
85014.1
84296.9
83584.2
82874.9
82169.6
81466.8
80767.4
80070.2
79376.8
78686.6
78001.1
77319.5
76642.7
75969.3
75299.9
74632.9
73969
73306.8
72647
71988.2
71331
70674.3
70019.5
69365.6
68714.1
68063.9
67416.1
66770.3
66127.5
65487.1
64850.6
64216.6
63587
62960.8
62339.1
61720.8
61107.2
60496.6
59890.3
59286.5
58686.4
58088.4
57493.8
56899.2
56307
55714.4
55123.5
54531.5
53941.9
53352
52765.1
52180.1
51600
51020.5
50446.3
49873.5
49304.9
48738.3
48175.7
47615.3
47057.9
46503.2
45950.9
45400.4
44852.1
44305.7
43762.9
43221.8
42684.4
42147.1
41614.4
41078.4
40548.5
40011.6
39483
38942
38413.3
37864
37331.8
36768.8
36228.7
35642.2
35085.3
34460
33872.7
33190.1
32549.2
31800.8
31069.7
30281.5
29477.9
28678.5
188711
186650
184727
182934
181256
179675
178173
176739
175362
174033
172744
171490
170266
169069
167894
166739
165603
164482
163375
162282
161200
160129
159068
158017
156975
155941
154916
153897
152886
151881
150883
149891
148905
147925
146951
145983
145020
144063
143111
142163
141220
140282
139347
138417
137490
136568
135649
134734
133823
132916
132012
131112
130215
129322
128433
127546
126663
125783
124907
124033
123163
122295
121431
120569
119710
118854
118000
117150
116302
115456
114614
113774
112937
112103
111272
110444
109620
108800
107984
107173
106366
105565
104768
103976
103187
102403
101622
100845
100070
99297.7
98527.4
97758.3
96991
96225
95460.6
94697.8
93937.4
93179.2
92423.8
91670.9
90921
90173.7
89429.6
88688.1
87950.2
87215.5
86485.1
85758.6
85036.9
84318.9
83605.4
82895.3
82189.1
81485.5
80785.2
80087.2
79393.2
78702.6
78016.9
77335.3
76659
75986.2
75317.6
74651.4
73988.5
73327.2
72668.2
72009.8
71352.9
70696
70041.1
69387
68735.3
68084.9
67437.2
66791.5
66148.9
65508.7
64872.6
64239.2
63610.7
62985.4
62365
61747.8
61135.5
60525.9
59921.2
59318.7
58720.1
58123.4
57529.9
56935.3
56343.7
55750.8
55159.7
54566.5
53976.4
53384.4
52796.7
52209.7
51627.9
51045.7
50470.1
49894.4
49323.8
48753.9
48188.6
47623.9
47062.6
46501.6
45944.3
45385.1
44830.7
44275.1
43725.1
43174
42629.3
42080.7
41540.3
40991.8
40452.9
39901.8
39364.1
38807.4
38268.5
37702.7
37159.2
36579.6
36026.6
35423.9
34850.9
34211.9
33604.2
32917.5
32253.8
31522.6
30784.6
30024.7
29241
28454.3
189174
187155
185248
183451
181755
180146
178614
177147
175737
174376
173057
171776
170526
169305
168109
166934
165779
164642
163521
162413
161319
160237
159166
158106
157056
156014
154981
153957
152940
151930
150927
149931
148941
147958
146980
146009
145043
144082
143127
142177
141231
140291
139354
138422
137494
136570
135650
134734
133822
132914
132010
131109
130212
129318
128428
127541
126658
125778
124901
124028
123158
122290
121426
120564
119705
118849
117996
117145
116297
115452
114610
113770
112933
112099
111269
110442
109618
108799
107984
107174
106369
105569
104774
103983
103196
102413
101634
100857
100085
99313.9
98545
97777.1
97010.9
96245.7
95482.1
94719.9
93960.2
93202.6
92447.7
91695
90945.3
90198
89453.7
88711.8
87973.4
87238.2
86507.2
85780.1
85057.7
84339.1
83624.8
82914
82207.1
81502.8
80801.6
80103
79408.3
78717.1
78031
77349.1
76672.5
75999.7
75331.4
74665.8
74003.6
73343.1
72685
72027.2
71370.6
70713.7
70058.6
69404.3
68752.3
68101.7
67453.8
66808.2
66165.6
65525.6
64889.6
64257.1
63629.6
63005.6
62386.4
61770.6
61159.4
60550.7
59947.1
59345.6
58748.3
58152.4
57559.6
56965
56374.1
55780.7
55189.5
54595.5
54004.6
53410.5
52822
52233.8
51649.7
51065.6
50487.9
49909.6
49336.9
48764
48195.9
47627.4
47062.2
46495.9
45932.6
45366.7
44805.1
44242
43684.4
43125
42572.3
42014.8
41465.8
40907.7
40358.3
39797.5
39247.4
38681.2
38128
37552.6
36993.7
36405.7
35835.6
35226.5
34635.4
33992.7
33367.6
32686.2
32010.8
31297.2
30562.6
29817.1
29044.2
28265
189574
187590
185702
183905
182197
180569
179013
177520
176082
174694
173350
172043
170771
169528
168312
167119
165947
164795
163659
162539
161434
160341
159261
158192
157133
156085
155045
154015
152992
151978
150970
149970
148976
147989
147009
146034
145065
144102
143144
142192
141244
140301
139363
138429
137500
136575
135654
134737
133824
132915
132009
131108
130210
129316
128426
127539
126656
125775
124899
124025
123154
122287
121422
120560
119702
118845
117992
117141
116294
115448
114606
113766
112930
112096
111266
110440
109617
108799
107986
107177
106373
105574
104779
103990
103204
102422
101644
100870
100098
99329.2
98561.8
97795.2
97029.9
96265.4
95502.2
94740.4
93981
93223.6
92468.8
91716
90966
90218.6
89474.1
88731.7
87992.9
87257.3
86525.7
85798
85074.8
84355.4
83640.5
82929.1
82221.5
81516.6
80814.9
80115.9
79420.5
78728.7
78041.9
77359.4
76682.1
76008.7
75340
74674.4
74012.5
73352.6
72695.2
72037.9
71381.7
70725
70070
69415.4
68763.2
68112.2
67464.1
66818.4
66175.9
65536.4
64900.9
64269.3
63643
63020.4
62402.3
61788.3
61177.6
60570.1
59967.2
59366.3
58769.5
58174.3
57582
56986.6
56396.3
55802.8
55210.8
54616.7
54024.9
53429.9
52839.8
52250.3
51663.4
51078.3
50497.6
49917.5
49342
48767.2
48196.3
47624.7
47055.6
46485.6
45916.1
45345
44775.8
44206.4
43641.7
43075.5
42514.7
41951
41392.4
40827.7
40267.3
39699.9
39136.9
38564
37997.2
37415.3
36842.2
36249.8
35665.7
35053.3
34449
33806.9
33171.4
32498.4
31817.7
31116.2
30384.4
29643.9
28876.7
28103.2
189928
187971
186098
184304
182589
180948
179373
177858
176398
174987
173620
172292
170999
169736
168502
167293
166106
164939
163791
162659
161542
160440
159351
158273
157207
156152
155107
154070
153043
152023
151012
150008
149011
148021
147037
146059
145088
144122
143162
142208
141258
140314
139374
138438
137508
136581
135659
134741
133827
132917
132011
131109
130211
129317
128426
127538
126654
125774
124897
124023
123152
122284
121419
120557
119698
118842
117988
117137
116289
115444
114602
113762
112926
112094
111264
110439
109617
108800
107987
107179
106376
105578
104784
103995
103211
102431
101654
100881
100111
99342.9
98576.7
97811.1
97046.4
96282.3
95519.3
94757.6
93998
93240.3
92485
91731.8
90981.5
90233.8
89488.8
88746.2
88006.8
87270.7
86538.5
85810.1
85086.2
84366.1
83650.5
82938.5
82230.2
81524.9
80822.9
80123.4
79427.5
78735.2
78047.6
77364.3
76685.9
76011.5
75342.1
74676
74014
73354.3
72697.2
72040.6
71384.7
70728.5
70073.6
69419.1
68766.9
68115.6
67467.5
66822
66179.8
65541
64906.5
64275.8
63650.8
63029.6
62412.5
61800
61190.1
60583.2
59980.9
59380.4
58783.3
58188.7
57595.6
57000.2
56410.1
55815.9
55223.1
54629.6
54036.1
53441.4
52849.6
52260.5
51669
51083.9
50499.5
49918.3
49338.6
48764.2
48189
47616.8
47042.6
46470.9
45894
45319.2
44743.2
44168.7
43597.4
43026.5
42457.3
41891.3
41321.8
40753.5
40182.9
39610.1
39036.5
38458.6
37879.9
37294.4
36710.3
36115.6
35521.6
34908.9
34295.4
33656.3
33013.3
32348
31662.3
30966.5
30235.9
29496.6
28734.7
27966.6
190240
188305
186444
184654
182936
181284
179694
178163
176684
175254
173867
172520
171209
169929
168679
167454
166253
165074
163913
162771
161644
160533
159435
158350
157277
156216
155164
154123
153091
152067
151052
150044
149044
148051
147064
146084
145110
144142
143180
142224
141272
140326
139385
138448
137516
136589
135665
134746
133832
132921
132014
131112
130213
129318
128426
127538
126654
125773
124895
124021
123150
122281
121416
120554
119694
118837
117984
117132
116284
115439
114597
113758
112923
112090
111262
110437
109616
108800
107988
107180
106378
105580
104788
104000
103216
102437
101661
100889
100121
99354
98588.9
97823.8
97059.3
96295.1
95531.7
94769.5
94009.3
93251
92495
91741.1
90990.4
90242.4
89496.9
88753.8
88013.8
87277
86544.1
85814.9
85090.1
84369.3
83653
82940.5
82231.8
81526
80823.5
80123.8
79427.5
78734.8
78046.6
77362.5
76683.2
76007.8
75337.1
74669.9
74007.3
73347.4
72690.6
72034.7
71379.4
70724
70069.3
69415.2
68763.1
68112.2
67464.6
66819.7
66178.3
65540.7
64907.4
64277.8
63653.9
63033.8
62417.3
61805.6
61196.4
60589.8
59987.8
59386.8
58789.9
58195.7
57600.1
57007
56414.8
55820.8
55226.8
54634.4
54038.5
53444.2
52850.8
52263.8
51666.7
51083.8
50492.5
49914
49327.7
48755.3
48174.5
47603.8
47023.1
46451.9
45866.5
45289.5
44707.1
44129.9
43552.1
42980.2
42402.1
41836.8
41257.3
40686.3
40108.6
39531.5
38949.9
38368.8
37779.8
37191.6
36599
36004.4
35402.1
34792.4
34169.5
33534.7
32883.3
32222.4
31532.4
30837.1
30108.9
29371.5
28615.9
27853.5
190514
188596
186746
184961
183240
181581
179981
178435
176941
175495
174092
172728
171401
170106
168841
167603
166390
165198
164027
162874
161739
160619
159514
158422
157343
156275
155219
154172
153136
152108
151089
150078
149075
148079
147090
146108
145132
144162
143198
142240
141287
140339
139396
138458
137525
136596
135672
134752
133836
132925
132017
131114
130214
129319
128427
127538
126653
125772
124894
124019
123147
122278
121412
120549
119689
118832
117978
117127
116279
115434
114592
113753
112918
112087
111259
110435
109615
108800
107988
107181
106379
105582
104789
104001
103218
102440
101665
100894
100127
99361.3
98596.9
97831.7
97067
96302.3
95538.2
94774.8
94013.8
93254.6
92497.7
91743.1
90991.9
90243.5
89497.7
88753.9
88013.2
87275.6
86541.7
85811.7
85086.2
84364.8
83648.1
82935
82225.7
81519.4
80816.7
80116.8
79420.3
78727.3
78038.5
77353.7
76673.5
75997.1
75325.1
74656.9
73993.2
73332.9
72676.1
72020.1
71365.7
70711.3
70057.3
69404.1
68752.8
68102.8
67456.4
66812.6
66172.6
65536.1
64904.3
64275.9
63652.7
63033.5
62417.1
61805.3
61196.8
60589.2
59987.3
59385.8
58788.7
58194.5
57596.8
57005.8
56410.4
55818.2
55222.9
54630.7
54033.9
53440.1
52845.5
52258.4
51658.8
51077.4
50478.5
49903.1
49309.4
48739.4
48153.1
47585.4
46997.4
46427.6
45834.4
45257.7
44670
44091.6
43508
42935.5
42350.3
41787
41200.2
40627.4
40045.2
39462.4
38876.2
38293.2
37695.5
37109.4
36509.2
35916.4
35303.1
34696.7
34064.1
33431.3
32772.5
32112
31420.3
30725.3
30000.8
29267.4
28518.8
27762.3
190753
188850
187010
185228
183506
181842
180233
178676
177170
175710
174293
172916
171575
170267
168989
167739
166514
165312
164131
162969
161826
160698
159586
158488
157403
156330
155269
154218
153177
152146
151124
150110
149104
148106
147114
146130
145152
144180
143215
142255
141300
140351
139407
138468
137533
136604
135678
134757
133841
132928
132020
131116
130216
129319
128426
127537
126652
125770
124891
124016
123143
122274
121408
120544
119684
118827
117973
117121
116273
115428
114587
113749
112914
112084
111257
110434
109615
108799
107988
107181
106379
105581
104789
104001
103218
102439
101666
100895
100129
99363.2
98599
97833.4
97068.4
96302.9
95537.9
94773.1
94011.3
93250.9
92493.3
91737.8
90986.3
90237.3
89491.1
88746.5
88005.1
87266.4
86532
85801.3
85075.4
84353.5
83636.6
82922.9
82213.2
81506.4
80803.7
80103.5
79407.1
78713.8
78024.7
77339
76658
75980.3
75307.3
74637.9
73973.4
73312.4
72655.2
71999.3
71345.5
70691.7
70039.3
69387.2
68737.3
68088.9
67443.9
66801
66162.5
65526.9
64896.4
64268.9
63646.9
63028.4
62412.8
61799.9
61192.5
60583.1
59980.6
59377.1
58780.6
58184.5
57586
56995.9
56399.4
55808.4
55212.2
54620.1
54023
53428.5
52834.9
52247.1
51647.2
51063.3
50461.9
49886.2
49287.8
48717.7
48127.3
47561.3
46969.2
46399.4
45800.9
45223.3
44632.6
44053.2
43465.9
42891
42304.5
41739.5
41148.5
40576.7
39988.9
39403.3
38812.8
38227.6
37627.9
37042.1
36433.9
35842.2
35220.6
34612.4
33973.3
33338.5
32675.8
32015.2
31323.9
30631.1
29911.3
29183.2
28442
27691.6
190962
189070
187237
185459
183737
182068
180453
178888
177371
175900
174471
173082
171729
170410
169121
167860
166625
165414
164225
163055
161904
160770
159651
158548
157457
156380
155314
154260
153216
152181
151156
150139
149131
148130
147137
146150
145171
144197
143230
142269
141313
140362
139417
138477
137541
136610
135684
134762
133844
132931
132022
131117
130216
129319
128425
127535
126649
125767
124888
124012
123139
122269
121403
120539
119679
118822
117967
117116
116268
115423
114582
113745
112911
112081
111255
110433
109614
108799
107988
107181
106378
105580
104786
103998
103214
102436
101662
100892
100125
99358.9
98594
97827.7
97062.3
96295.8
95529.9
94764.2
94001.8
93240.4
92482.2
91725.8
90974.1
90224.2
89477.6
88732.2
87990.6
87251
86516.3
85785.1
85059.1
84337
83619.9
82905.7
82195.8
81488.6
80785.9
80085.4
79389.3
78695.6
78006.5
77319.9
76638.4
75959.4
75285.7
74615.3
73950.4
73288.5
72630.9
71974.8
71321.4
70668.2
70017.2
69366.4
68718.3
68071
67427.6
66785.7
66148.6
65513.5
64884
64257.6
63636.5
63018.5
62404.1
61790.3
61183
60571.3
59967.3
59361.6
58764.5
58165.7
57569.9
56977.6
56382.7
55790.1
55194.1
54602.6
54006.7
53410.3
52820.2
52229.3
51631.2
51044.1
50441.9
49862
49263.2
48688.1
48098.7
47531.4
46936.7
46370
45767.3
45189.2
44594.7
44012.9
43423.9
42847.4
42260
41693.8
41103.1
40532.8
39940.9
39353.7
38760.3
38171.3
37572.2
36979.1
36372.9
35775.8
35148.5
34536
33893.9
33255.7
32593.5
31932.8
31243.4
30554.8
29839.8
29117.7
28383.4
27639
191141
189258
187432
185656
183934
182263
180642
179070
177545
176065
174626
173227
171865
170536
169237
167968
166724
165505
164307
163131
161973
160833
159709
158601
157506
156424
155355
154297
153250
152212
151185
150166
149155
148152
147157
146169
145187
144213
143244
142281
141324
140372
139426
138484
137548
136616
135688
134765
133847
132933
132023
131117
130215
129317
128423
127532
126646
125763
124883
124007
123134
122264
121397
120534
119673
118816
117962
117111
116263
115419
114578
113741
112908
112079
111253
110432
109614
108799
107987
107179
106376
105576
104782
103992
103207
102428
101654
100883
100115
99348.2
98582.3
97815.4
97049.3
96282
95515.2
94749
93986.1
93224
92465.2
91708.6
90956.7
90206
89459.2
88713.3
87971.4
87231.4
86496.9
85765.4
85039.6
84317.2
83599.9
82885.4
82175.3
81467.7
80765.1
80064.9
79369.2
78675.2
77985.8
77298.4
76616.1
75936.1
75261.9
74590.7
73925.4
73263
72605.5
71949.3
71296.1
70643.4
69993.5
69344
68697.1
68051
67408.7
66767.8
66131.4
65497.2
64868.6
64242.9
63623.2
63005.2
62391.6
61777
61168.6
60555.3
59948.7
59340.9
58742.6
58139.7
57547.9
56954.2
56360.6
55765.6
55172.4
54578.9
53985.8
53386.7
52802.2
52205.4
51612.1
51022.5
50421.9
49832.1
49236.3
48656.3
48066.4
47497.5
46904
46329.7
45732.7
45153.7
44556.3
43969.9
43383.4
42803.4
42221.2
41654.1
41061.3
40492.5
39900.2
39310.3
38716.6
38122.9
37526
36924
36318.8
35710.5
35086.3
34466.6
33825.8
33184
32525.8
31865
31179.1
30494.8
29784.5
29068.7
28340.1
27601.4
191293
189418
187595
185822
184099
182426
180801
179224
177692
176205
174759
173352
171981
170644
169337
168060
166809
165583
164379
163197
162033
160888
159760
158647
157548
156463
155391
154330
153280
152240
151210
150189
149176
148171
147175
146185
145202
144226
143256
142292
141334
140381
139433
138491
137553
136620
135691
134768
133848
132933
132022
131115
130213
129314
128420
127529
126642
125759
124879
124002
123129
122259
121392
120529
119668
118811
117957
117106
116258
115414
114573
113737
112904
112076
111251
110430
109611
108796
107984
107176
106371
105571
104775
103984
103198
102418
101642
100870
100100
99332.4
98565.5
97798.4
97031.6
96263.5
95495.9
94729.6
93966
93203.4
92444.2
91688
90935.9
90185.1
89438
88692.1
87949.9
87210.4
86475.9
85744.4
85018.8
84296.1
83578.5
82863.6
82153.2
81446
80743.3
80043.6
79347.8
78654.5
77964.6
77276.8
76593.3
75912.7
75237.7
74566
73900.6
73238.2
72580.7
71924.6
71271.5
70619.2
69969.8
69321.1
68674.6
68029.8
67388.3
66748.4
66112.8
65479.8
64852.1
64227.3
63608.1
62989.5
62375.8
61760
61149.6
60534.6
59927
59319
58716.6
58113.4
57522.2
56925
56335.2
55737.9
55146.1
54552.2
53963.7
53364.3
52780
52179.1
51593.4
50992.8
50394.5
49799.7
49212.3
48629.2
48038.9
47461.5
46868.3
46285.8
45696.7
45111.4
44517.9
43928.5
43347.6
42763.9
42184.9
41611.3
41025.9
40453.1
39862.6
39271.5
38681.1
38082.7
37482.2
36875.2
36270.2
35652.8
35031
34405.6
33771.9
33126.6
32473.7
31811.7
31130.6
30447.8
29743.7
29033.1
28308.8
27575.8
191419
189549
187730
185957
184234
182559
180931
179350
177814
176321
174869
173456
172078
170734
169421
168137
166880
165648
164439
163252
162084
160935
159803
158686
157584
156496
155421
154357
153305
152263
151231
150208
149194
148188
147189
146198
145214
144237
143266
142300
141341
140387
139439
138495
137556
136623
135693
134768
133848
132932
132021
131113
130210
129311
128416
127525
126638
125754
124874
123997
123124
122254
121387
120524
119663
118806
117952
117101
116253
115409
114569
113732
112900
112072
111247
110426
109607
108792
107979
107169
106364
105563
104766
103974
103187
102406
101628
100854
100083
99313.6
98545.2
97777.7
97010
96241.8
95473.9
94707.7
93943.3
93181
92421.8
91666.5
90913.9
90163.7
89416.4
88671.1
87928.9
87190.1
86455
85724.3
84998
84275.6
83557
82842.3
82131.3
81424.6
80721.7
80023.1
79327.4
78635.2
77944.8
77257.3
76572.6
75892.1
75215.9
74544.2
73878.3
73216.6
72558.5
71902.9
71249
70597.4
69947.8
69299.5
68652.9
68009.2
67367.5
66728.9
66093.6
65461.8
64834.4
64210.4
63590.5
62971.3
62356
61739.4
61126.5
60511.2
59902
59294
58692.9
58090
57494.2
56897.2
56306.7
55709
55120.9
54525.4
53937.6
53340
52756.3
52153.6
51565
50957.7
50369.5
49771.7
49187.8
48601
48008.9
47420.5
46832.1
46247
45660.2
45067.1
44482.7
43893.1
43313.4
42728.8
42154.5
41572.5
40996.3
40411.4
39829.1
39237.8
38647.5
38045.2
37444.7
36835.1
36223.6
35605.4
34987
34360.2
33729.4
33085.7
32435.3
31773
31096.7
30412.8
29715
29007.3
28287
27559.4
191520
189654
187836
186064
184340
182664
181035
179451
177911
176414
174957
173539
172156
170806
169488
168200
166938
165701
164488
163296
162125
160972
159837
158717
157613
156523
155445
154380
153325
152282
151248
150223
149208
148200
147201
146209
145223
144245
143273
142307
141347
140392
139442
138498
137559
136624
135694
134769
133848
132931
132019
131111
130208
129309
128413
127522
126634
125750
124870
123993
123120
122250
121383
120519
119659
118801
117947
117096
116248
115404
114564
113728
112895
112067
111242
110420
109601
108785
107972
107162
106356
105554
104757
103964
103176
102393
101613
100838
100065
99294
98524.2
97755.9
96987
96219.2
95451.1
94685.6
93920.9
93159.6
92400.5
91645.9
90893.1
90143.8
89396.4
88651.9
87909.7
87171.7
86436.5
85706.3
84979.3
84257.2
83537.9
82823.5
82111.9
81405.8
80702.6
80004.8
79309.4
78618.5
77928
77241.1
76555.7
75875.3
75198.2
74526.8
73860.4
73198.9
72540.1
71884.9
71230.2
70579.2
69928.6
69280.6
68633.7
67990.4
67348.2
66710.5
66075.2
65444.4
64816.1
64192.4
63570.6
62951.1
62333.5
61716.6
61101.3
60487.8
59877.2
59272.1
58668.1
58065.6
57468.5
56871.6
56276.9
55683.5
55094.4
54497.5
53910.3
53314.8
52727.3
52123.5
51534.6
50932.5
50347
49741.2
49160.6
48564.3
47975.2
47388.9
46801.9
46209.9
45624.4
45029.8
44449.9
43858.8
43284.3
42701.3
42127.2
41538.6
40966.3
40374.1
39797.5
39204.5
38619.3
38013.3
37413.5
36800.4
36189
35573.3
34952.3
34328.7
33698.1
33059.4
32406.8
31747.4
31072.6
30389.2
29694.8
28988.8
28272.4
27548.8
191595
189732
187914
186142
184419
182742
181111
179526
177984
176483
175023
173601
172214
170861
169539
168246
166981
165741
164524
163330
162156
161000
159863
158741
157635
156542
155463
154396
153340
152295
151260
150235
149218
148210
147209
146216
145230
144251
143278
142311
141350
140395
139445
138500
137560
136625
135695
134769
133847
132930
132018
131110
130206
129307
128411
127519
126631
125747
124867
123990
123116
122246
121379
120515
119655
118797
117943
117092
116244
115400
114560
113723
112890
112061
111236
110413
109594
108778
107964
107154
106348
105546
104748
103955
103166
102381
101600
100823
100048
99276.5
98505.1
97736.7
96966.6
96199.5
95431.2
94666.5
93901.5
93141.6
92382.1
91628.5
90875.2
90127.4
89379.4
88636.6
87894
87157.3
86421.7
85692.2
84964.6
84243.1
83523.1
82809.3
82096.9
81391.6
80688.2
79991.3
79295.7
78605.7
77915.4
77229.8
76544.4
75865
75186.9
74515.9
73847.9
73186.3
72526.3
71871.4
71216.3
70566
69914.1
69266.3
68618.4
67974.9
67331.8
66694.7
66058.7
65428.4
64798.9