/*--------------------------------*- C++ -*----------------------------------*\
| =========                 |                                                 |
| \\      /  F ield         | OpenFOAM: The Open Source CFD Toolbox           |
|  \\    /   O peration     | Version:  2.4.0                                 |
|   \\  /    A nd           | Web:      www.OpenFOAM.org                      |
|    \\/     M anipulation  |                                                 |
\*---------------------------------------------------------------------------*/
FoamFile
{
    version     2.0;
    format      ascii;
    class       volScalarField;
    location    "1.74";
    object      k;
}
// * * * * * * * * * * * * * * * * * * * * * * * * * * * * * * * * * * * * * //

dimensions      [0 2 -2 0 0 0 0];

internalField   nonuniform List<scalar> 
8800
(
8.11083
10.2776
8.78579
6.83896
5.68424
5.00252
4.49342
4.17859
3.87494
3.71254
3.49006
3.41872
3.24492
3.19583
3.05642
3.01218
2.88377
2.84707
2.77498
2.62181
1.39064
4.36324
5.31212
5.29481
5.113
4.84837
4.53459
4.33089
4.0728
3.93573
3.71491
3.64104
3.47302
3.41222
3.2982
3.23716
3.13934
3.09955
2.99368
2.99138
0.083326
0.744241
1.54417
1.96731
2.24753
2.46482
2.55321
2.62052
2.61275
2.61049
2.57681
2.55733
2.51612
2.4792
2.46106
2.41564
2.39235
2.36735
2.30959
2.299
0.00328465
0.07102
0.243084
0.439472
0.574341
0.70924
0.830535
0.939073
1.01536
1.09772
1.1681
1.20014
1.27502
1.29676
1.34668
1.36578
1.4063
1.4128
1.43406
1.43179
0.000119066
0.00505003
0.020906
0.0542154
0.0920807
0.116992
0.164718
0.205562
0.242763
0.278544
0.329647
0.349371
0.397345
0.422846
0.461544
0.495856
0.541465
0.555297
0.59606
0.626112
2.56188e-05
0.000322101
0.00140547
0.00398829
0.00861543
0.011892
0.0167168
0.026887
0.032517
0.0402671
0.0559795
0.0616795
0.0728895
0.0869088
0.0935011
0.109427
0.124687
0.134936
0.146381
0.170888
2.2094e-05
4.44544e-05
0.000117577
0.000322344
0.000564936
0.00090259
0.00117346
0.00202052
0.00249613
0.00324729
0.00524042
0.00592776
0.00717937
0.0103512
0.0110872
0.0139794
0.0158583
0.0198201
0.0219025
0.0289452
2.11915e-05
3.34376e-05
4.62018e-05
7.85066e-05
8.98672e-05
0.000115846
0.000132787
0.000197991
0.000215055
0.000266752
0.000352083
0.00039002
0.000464796
0.000789495
0.000808844
0.00107281
0.00123131
0.00172631
0.00192904
0.00303884
2.08729e-05
2.80058e-05
4.43303e-05
6.61254e-05
6.78664e-05
6.62275e-05
6.6729e-05
8.34305e-05
8.86699e-05
9.65216e-05
9.56106e-05
9.56697e-05
9.61935e-05
0.000107985
0.000113049
0.000143616
0.000155346
0.000179216
0.000182187
0.000256919
2.06509e-05
2.7692e-05
3.62421e-05
5.88697e-05
6.83363e-05
6.71583e-05
6.3612e-05
6.50031e-05
7.06885e-05
7.49743e-05
7.81168e-05
7.8332e-05
7.8036e-05
7.61908e-05
7.49341e-05
7.78498e-05
8.56742e-05
8.6981e-05
8.72339e-05
8.91272e-05
2.05527e-05
2.99169e-05
3.67389e-05
5.26355e-05
7.03266e-05
7.11931e-05
6.70027e-05
6.5093e-05
6.52473e-05
7.50731e-05
7.96018e-05
8.00615e-05
8.01319e-05
7.76612e-05
7.56145e-05
7.79172e-05
8.38125e-05
8.75933e-05
8.79748e-05
8.99309e-05
2.07634e-05
2.79732e-05
4.19253e-05
6.77973e-05
6.83312e-05
6.53494e-05
6.58792e-05
7.53358e-05
9.34855e-05
9.63648e-05
9.40436e-05
9.56754e-05
9.92825e-05
0.000101038
0.000106644
0.000125287
0.000134473
0.000151946
0.000160762
0.000173885
2.0976e-05
2.94191e-05
5.58559e-05
7.79812e-05
8.09841e-05
0.000101964
0.000129408
0.00019607
0.000247535
0.000288299
0.000314514
0.000437351
0.000504719
0.000629605
0.000735474
0.000974867
0.00113448
0.00154378
0.00178248
0.00226189
2.15755e-05
4.36515e-05
0.000124487
0.000306682
0.000453275
0.000881826
0.00124295
0.00214618
0.00273733
0.00397472
0.00462772
0.00646834
0.00730856
0.0093145
0.0107406
0.0138781
0.0156382
0.0200538
0.0224348
0.0284836
2.49271e-05
0.000308134
0.00157701
0.00414552
0.00665487
0.0132283
0.0176314
0.0274608
0.0333686
0.0449971
0.0507334
0.0650682
0.0712199
0.0852017
0.0933271
0.111195
0.120061
0.14249
0.153674
0.184149
0.000123348
0.00492532
0.0255411
0.0501568
0.0818236
0.131846
0.158774
0.208702
0.24382
0.28802
0.311088
0.36459
0.385023
0.429568
0.452746
0.503681
0.526171
0.58429
0.609658
0.676785
0.00337164
0.0696994
0.263605
0.409383
0.585658
0.710161
0.82879
0.930352
1.03162
1.09201
1.15238
1.22315
1.2511
1.30376
1.33149
1.37864
1.39753
1.44821
1.46619
1.51208
0.084729
0.729063
1.56889
1.92985
2.28798
2.43074
2.57811
2.59688
2.62808
2.59604
2.5865
2.54178
2.5242
2.47175
2.45942
2.41737
2.40683
2.37845
2.36717
2.34013
1.40819
4.3494
5.31917
5.28469
5.13322
4.79469
4.59394
4.27177
4.12955
3.87094
3.78044
3.57412
3.52224
3.36988
3.33195
3.2056
3.17894
3.06198
3.0277
2.93237
8.12248
10.2622
8.79199
6.81754
5.71514
4.95524
4.54452
4.12737
3.92653
3.65029
3.55945
3.34681
3.30733
3.141
3.11336
2.95404
2.92836
2.75775
2.70389
2.49714
1.81258
1.28891
0.995051
0.819887
0.706202
0.631031
0.575373
0.537452
0.51106
0.493409
0.484393
0.484081
0.4856
0.489495
0.499135
0.50919
0.524202
0.543958
0.5626
0.575415
0.577758
0.580029
0.5799
0.577423
0.569725
0.553071
0.51615
0.445479
0.363217
0.311741
0.281658
0.2551
0.234008
0.216251
0.201774
0.188904
0.178782
0.16611
0.145726
0.133514
0.133695
0.139346
0.155181
0.191985
0.23526
0.277874
0.314042
0.336526
0.351043
0.361378
0.368094
0.370575
0.371213
0.368224
0.365778
0.361247
0.353362
0.34811
0.339654
0.334267
0.3225
0.31818
0.310763
0.30895
0.305033
0.304442
0.305551
0.307502
0.309513
0.312641
0.319303
0.324766
0.328222
0.330249
0.329633
0.328174
0.322075
0.316809
0.305356
0.297102
0.28012
0.266931
0.251513
0.224658
0.204599
0.170359
0.139852
0.10739
0.0748307
0.0513281
0.034122
0.0224894
0.0149031
0.0103744
0.00844453
0.0072148
0.00723307
0.00796995
0.00872791
0.0104409
0.0117304
0.0121923
0.013328
0.0159489
0.0215536
0.0336353
0.0583544
0.11185
0.259395
0.376525
0.380896
0.313679
0.2153
0.198042
0.205283
0.218576
0.217435
0.201207
0.179682
0.162154
0.147431
0.134104
0.12339
0.116528
0.114455
0.120273
0.16661
0.208331
0.220468
0.217116
0.195695
0.152009
0.129516
0.114772
0.107545
0.100959
0.0923695
0.0832184
0.0708804
0.0543845
0.0383587
0.0308142
0.0278254
0.0275252
0.02798
0.0292462
0.0321246
0.0403561
0.0478548
0.0588964
0.0700628
0.0737161
0.079413
0.0794037
0.0778874
0.0757912
0.071717
0.0684998
0.0617307
0.0585248
0.0562912
0.0512241
0.0482683
0.0414618
0.0391585
0.0339225
0.0319873
0.0280441
0.0270682
0.0256888
0.025288
0.0256581
0.0270397
0.0319499
0.0471019
0.0733918
0.0773846
0.0775109
0.0738655
0.0636432
0.0650383
0.0620208
0.0680449
0.0614824
0.0635162
0.0573286
0.0572226
0.0553025
0.0551865
0.0536693
0.0494098
0.0422975
0.0366365
0.0353908
0.0353939
0.0361906
0.038515
0.0452919
0.0664586
0.144022
2.55638
2.1051
1.75848
1.50764
1.32336
1.18373
1.07682
0.99336
0.92712
0.871849
0.828281
0.792594
0.763696
0.741438
0.717972
0.698538
0.680444
0.665321
0.650164
0.639337
0.628215
0.623296
0.62392
0.626753
0.634117
0.6453
0.653319
0.653638
0.645776
0.618514
0.560159
0.49417
0.428959
0.374156
0.332265
0.298812
0.270918
0.25322
0.250717
0.254697
0.266878
0.294819
0.319833
0.342061
0.358177
0.365288
0.373156
0.375857
0.37539
0.373705
0.369784
0.359095
0.35014
0.32994
0.318667
0.298452
0.285814
0.263071
0.247884
0.23114
0.207021
0.194348
0.182404
0.172161
0.167888
0.162566
0.157915
0.155639
0.155434
0.155658
0.156809
0.160667
0.164722
0.169397
0.171161
0.170447
0.168728
0.162331
0.152919
0.144111
0.124283
0.111489
0.0934476
0.0757834
0.0612514
0.0464888
0.0351117
0.025387
0.0181051
0.0129102
0.00917876
0.00714013
0.00580216
0.00555755
0.00565734
0.00586581
0.0064499
0.00772561
0.00861259
0.0107037
0.0117748
0.0136078
0.0184967
0.0250532
0.0359738
0.0569596
0.0938601
0.199109
0.367864
0.407495
0.337895
0.219224
0.205093
0.233267
0.273318
0.268648
0.23874
0.203564
0.180824
0.164402
0.153255
0.145638
0.135022
0.121605
0.113089
0.1109
0.116801
0.157834
0.197163
0.20692
0.203726
0.186654
0.151774
0.128865
0.115369
0.110649
0.101489
0.0961662
0.0885377
0.0772449
0.0659298
0.0455801
0.0349348
0.0304031
0.0289252
0.0293876
0.0303114
0.0324778
0.0373315
0.0408704
0.050287
0.0533637
0.0579914
0.0625793
0.062804
0.0636597
0.0617888
0.0610312
0.0590401
0.0578372
0.0559437
0.0502755
0.0442367
0.0397744
0.0350245
0.0338704
0.0303593
0.0287138
0.0266038
0.0266375
0.0261984
0.0261621
0.0264526
0.0276627
0.0320037
0.0454151
0.0703345
0.0751762
0.0785217
0.0720233
0.0758335
0.070789
0.07522
0.0704409
0.0706682
0.0658603
0.0642508
0.0604028
0.0590293
0.0576187
0.054955
0.0472588
0.0396274
0.0373508
0.0373769
0.0399636
0.0432564
0.0465714
0.0570463
0.0682768
2.0917
1.86473
1.6563
1.4798
1.33712
1.22243
1.12875
1.05265
0.987284
0.933469
0.883596
0.841415
0.803078
0.768037
0.738581
0.711414
0.685548
0.665738
0.64234
0.624635
0.60724
0.590813
0.581793
0.572173
0.570153
0.571291
0.575023
0.583914
0.595109
0.597117
0.594679
0.587452
0.570388
0.546071
0.525771
0.499323
0.474668
0.456151
0.438571
0.429448
0.415991
0.406072
0.398776
0.389251
0.379139
0.372201
0.357392
0.342052
0.324247
0.306171
0.27965
0.259276
0.234016
0.205735
0.186566
0.161666
0.141999
0.124472
0.105877
0.0915225
0.0785186
0.0690692
0.0615663
0.0556668
0.0524255
0.0505453
0.0489996
0.0479121
0.0472908
0.0455745
0.0448475
0.0449708
0.0448733
0.0452128
0.0454419
0.0450832
0.0446193
0.0424896
0.0397537
0.0353283
0.0299827
0.0259143
0.0211014
0.0173028
0.0138284
0.010854
0.00860643
0.006668
0.00559606
0.00473436
0.00435885
0.00437648
0.00445961
0.00491245
0.00532588
0.00589888
0.00773119
0.00929376
0.011736
0.01451
0.0167207
0.0220775
0.0318352
0.0411433
0.0591783
0.0838247
0.139132
0.320586
0.416027
0.382254
0.23403
0.20807
0.251903
0.308173
0.31334
0.282156
0.232812
0.194785
0.170727
0.156754
0.15064
0.145608
0.141244
0.132789
0.119509
0.110896
0.109119
0.114926
0.149426
0.184815
0.1935
0.190444
0.174277
0.152675
0.125828
0.120151
0.112746
0.105425
0.101693
0.0918056
0.0844781
0.0737504
0.0539352
0.0403279
0.0332892
0.031108
0.0312187
0.0319259
0.0353367
0.0368751
0.0401826
0.0460907
0.0469453
0.0533158
0.0544011
0.0566362
0.0563419
0.0558103
0.0566025
0.0544531
0.0530899
0.0489091
0.0477568
0.0452452
0.0413628
0.0398638
0.0371031
0.0341165
0.0301721
0.027706
0.0256834
0.0253938
0.0255579
0.0268052
0.0291031
0.0341572
0.0551401
0.065335
0.0847692
0.0836421
0.0860245
0.0814094
0.0807625
0.0772126
0.0741786
0.0721865
0.0681877
0.0654429
0.0619326
0.062334
0.0614137
0.0572875
0.0462908
0.0430625
0.0428596
0.043817
0.048703
0.0508538
0.055889
0.0604952
1.35033
1.25908
1.16454
1.08179
1.00374
0.933381
0.874283
0.82301
0.777476
0.742303
0.707455
0.675853
0.647142
0.617069
0.589383
0.565118
0.540352
0.518504
0.499505
0.478663
0.46121
0.443838
0.427422
0.414881
0.404
0.401543
0.402923
0.407978
0.416941
0.436179
0.448504
0.463755
0.470588
0.46961
0.465319
0.457937
0.444757
0.430437
0.413551
0.396348
0.374475
0.352888
0.331857
0.306488
0.283469
0.259156
0.230881
0.204626
0.176751
0.15148
0.126398
0.105258
0.0873968
0.0717709
0.0602752
0.0507433
0.0431674
0.0379327
0.0336295
0.0299493
0.026643
0.0231796
0.0199343
0.0175674
0.0154402
0.0144108
0.0138047
0.0131921
0.0129947
0.0123763
0.011725
0.0112643
0.0106437
0.0105286
0.010323
0.0101629
0.0100457
0.00960228
0.00918506
0.008059
0.00712093
0.00603471
0.00518677
0.00450318
0.0039336
0.00363638
0.00338054
0.00340292
0.00347728
0.00362317
0.00397929
0.00434848
0.00510451
0.00689201
0.00817738
0.0105221
0.0147414
0.0172295
0.0217184
0.0244281
0.0286259
0.0415005
0.0506656
0.0677552
0.0846069
0.115661
0.237275
0.394524
0.406097
0.27773
0.210327
0.243891
0.317364
0.332745
0.331398
0.288375
0.234413
0.193985
0.168895
0.154132
0.144524
0.139412
0.138116
0.135718
0.132167
0.119927
0.108693
0.107062
0.113046
0.144668
0.171897
0.181158
0.177501
0.168988
0.146889
0.126681
0.123687
0.113509
0.112714
0.108147
0.0987386
0.0930645
0.0775809
0.0618955
0.0453705
0.0361309
0.0351887
0.0338973
0.0346955
0.0374074
0.0389016
0.0468006
0.0470219
0.0482902
0.0520438
0.0521701
0.0579292
0.0577149
0.0607496
0.0583857
0.0610562
0.0595774
0.0600819
0.0583819
0.053454
0.0465062
0.0405587
0.0354652
0.0335092
0.0311727
0.0308494
0.0300317
0.030177
0.0306776
0.0320666
0.0351433
0.0442573
0.0530428
0.0758194
0.0844381
0.0891628
0.0878099
0.0872622
0.0861382
0.0806656
0.0777831
0.0710842
0.0697732
0.06578
0.0661715
0.0654469
0.0641178
0.0582058
0.0516751
0.0492912
0.0490392
0.0503877
0.0548567
0.0610694
0.0633073
0.606489
0.585874
0.55623
0.530471
0.508753
0.480395
0.461022
0.439838
0.418542
0.401637
0.385576
0.369152
0.356819
0.343222
0.327698
0.31567
0.299527
0.285541
0.27405
0.261192
0.252394
0.243731
0.234316
0.227906
0.217684
0.208329
0.20614
0.206727
0.209324
0.216092
0.228417
0.240108
0.250161
0.258472
0.260825
0.260425
0.257499
0.250403
0.239803
0.226567
0.213866
0.193922
0.176311
0.155758
0.133631
0.111693
0.0920904
0.0752029
0.0606159
0.0492731
0.0398295
0.0322013
0.0265622
0.0212839
0.0173305
0.0143141
0.0118079
0.0105154
0.00958354
0.00886555
0.0082714
0.00730148
0.00631594
0.00541031
0.00456515
0.0041241
0.00375885
0.00360518
0.00352348
0.00330147
0.00315897
0.00288661
0.00273526
0.00264562
0.00257971
0.00258347
0.00257917
0.00258136
0.00256139
0.00240278
0.00225321
0.00213715
0.00213398
0.00218325
0.00234366
0.00249522
0.00281042
0.00328644
0.0038382
0.00514871
0.00701404
0.00875254
0.0126434
0.0166127
0.0197389
0.0272264
0.0305941
0.0351195
0.0400327
0.0430884
0.0518666
0.0646439
0.0793384
0.0971233
0.114458
0.160091
0.341622
0.416147
0.356641
0.214831
0.22298
0.290495
0.339178
0.363965
0.370955
0.328027
0.258619
0.208555
0.17614
0.157011
0.144038
0.139027
0.136518
0.134008
0.133559
0.129748
0.117234
0.106974
0.10633
0.112199
0.136215
0.161849
0.170175
0.166008
0.160857
0.141022
0.131673
0.122804
0.114758
0.117672
0.109407
0.108337
0.101507
0.083281
0.0708989
0.0485129
0.0403008
0.0387374
0.0373974
0.0421296
0.0414943
0.0429767
0.049781
0.0495098
0.0603045
0.0597211
0.0634111
0.0619271
0.0593615
0.0611533
0.0689304
0.0733859
0.0860032
0.0797828
0.0823769
0.0715796
0.0726308
0.0621298
0.0633137
0.0525367
0.0509953
0.0426754
0.0416445
0.038123
0.0384923
0.0383216
0.0404963
0.0445512
0.0522487
0.0763421
0.0858941
0.0984895
0.0979617
0.0980192
0.0956204
0.0914645
0.0790835
0.0757565
0.0683532
0.0683938
0.0682695
0.0684208
0.066186
0.0596711
0.056895
0.0549051
0.0548263
0.0561035
0.060112
0.0619502
0.168333
0.165494
0.160557
0.154587
0.152176
0.14685
0.143947
0.140841
0.136094
0.132375
0.127514
0.121831
0.117083
0.113156
0.107114
0.103705
0.0988662
0.093687
0.0906032
0.0860594
0.0834346
0.0818053
0.0794268
0.07851
0.0772245
0.0739678
0.0713566
0.0707444
0.0711515
0.0724521
0.0747356
0.0801137
0.0851385
0.0900811
0.0926991
0.0928554
0.0919979
0.0898463
0.0852769
0.0794164
0.0733595
0.0650479
0.058762
0.0518769
0.0447974
0.0375195
0.0303236
0.0240311
0.018501
0.0144648
0.0113043
0.00893254
0.00718594
0.00567915
0.00452516
0.00362629
0.00300001
0.0026561
0.00249522
0.00243983
0.00234618
0.00217957
0.00192847
0.00164649
0.00141542
0.00123947
0.00111606
0.00107701
0.00104018
0.00100693
0.000982475
0.000941692
0.000938836
0.000943803
0.000964088
0.00102205
0.0011033
0.00118954
0.00127434
0.00137057
0.00145859
0.00165871
0.00183595
0.00218756
0.00287996
0.00360064
0.0052836
0.00720949
0.00971161
0.0153163
0.0195938
0.0264252
0.0351824
0.0407203
0.0510735
0.0595459
0.0622582
0.0668537
0.0701294
0.0737187
0.0852396
0.0981319
0.114836
0.127539
0.148655
0.229209
0.399667
0.424242
0.277436
0.193051
0.244262
0.311788
0.387435
0.426941
0.427778
0.383677
0.291506
0.237499
0.187739
0.160756
0.146505
0.140402
0.136708
0.132346
0.132014
0.130844
0.128254
0.114824
0.104115
0.104068
0.111493
0.133359
0.155181
0.158685
0.159134
0.155431
0.140856
0.136932
0.120501
0.121689
0.11847
0.110738
0.116211
0.10613
0.0975237
0.0771007
0.0507417
0.0508035
0.0446322
0.0430605
0.0509786
0.051486
0.0599334
0.0553853
0.0540145
0.0605239
0.0635204
0.0719681
0.0918032
0.0990828
0.137398
0.146178
0.173895
0.162827
0.175921
0.153148
0.150714
0.127842
0.123548
0.103394
0.0974889
0.0778267
0.0711849
0.0571983
0.0543902
0.0480297
0.0478847
0.0481821
0.0507782
0.0623544
0.0740128
0.0961491
0.100356
0.105197
0.104387
0.103301
0.0980169
0.0923109
0.076952
0.0727196
0.0705811
0.0706305
0.0699946
0.0664611
0.064036
0.0610439
0.0586135
0.0586626
0.0599244
0.0610306
0.0287308
0.0282768
0.0273749
0.0265629
0.0264968
0.0263781
0.0264194
0.0263879
0.026087
0.0257066
0.0249915
0.0239275
0.022965
0.0221501
0.0209645
0.0204164
0.0196479
0.019037
0.0187604
0.0182784
0.0180206
0.017769
0.0175787
0.0175439
0.0175612
0.0172447
0.0166583
0.0162697
0.016319
0.0165551
0.0169912
0.0177119
0.0193812
0.0213722
0.0227693
0.0229607
0.0226837
0.0218596
0.0197945
0.0180134
0.01653
0.0148357
0.0137851
0.0128922
0.0116605
0.00988004
0.00790886
0.00604572
0.0045172
0.00338014
0.00258496
0.00201189
0.00157125
0.00126924
0.00101923
0.000864
0.000758916
0.000710194
0.000709163
0.000726125
0.000750761
0.000757111
0.000737834
0.000707747
0.000683717
0.000656053
0.000634107
0.000635573
0.000632323
0.000635494
0.00065543
0.00067351
0.000725452
0.000781186
0.000839337
0.000992796
0.00109063
0.00126069
0.00153052
0.00179041
0.00233831
0.00320437
0.00402047
0.00600392
0.00837355
0.0110389
0.0172777
0.0219885
0.0327589
0.0429975
0.0545202
0.0722555
0.0846905
0.0988293
0.112959
0.117075
0.119075
0.120377
0.120237
0.121824
0.130816
0.136187
0.142696
0.154043
0.181825
0.320294
0.441991
0.373909
0.182357
0.198902
0.266663
0.350622
0.437855
0.472471
0.484256
0.445889
0.355574
0.283228
0.20039
0.163852
0.148521
0.140068
0.136281
0.132146
0.1316
0.130577
0.128107
0.124349
0.110369
0.105661
0.106567
0.111771
0.132355
0.14974
0.15591
0.156868
0.149112
0.144247
0.132565
0.121524
0.126595
0.116493
0.119097
0.116389
0.105466
0.105001
0.0809433
0.0581064
0.0614171
0.054519
0.0572053
0.0552729
0.0569183
0.0737353
0.0772161
0.0934988
0.103296
0.115491
0.133316
0.144247
0.146632
0.149218
0.146019
0.14811
0.146533
0.143939
0.138336
0.126274
0.119394
0.107245
0.101135
0.0888608
0.0828959
0.0713799
0.0678417
0.0612844
0.0608744
0.0585696
0.057453
0.0598045
0.0634555
0.0780561
0.0900094
0.103218
0.103575
0.105296
0.103994
0.102993
0.0969203
0.086168
0.0801275
0.0766022
0.0753944
0.0711065
0.0689688
0.0682185
0.0657849
0.064679
0.0637977
0.0640281
0.00330765
0.00329151
0.00325279
0.00317252
0.00317279
0.00318277
0.00318407
0.00318902
0.00317551
0.0031403
0.00305868
0.00292902
0.00283294
0.00274003
0.00262789
0.00256419
0.00249808
0.00246272
0.0024428
0.00242616
0.00241673
0.00241081
0.00238584
0.00236165
0.00236838
0.00237328
0.00238781
0.00240564
0.00243817
0.0025226
0.0026092
0.00273011
0.00303671
0.00329254
0.00336784
0.00333162
0.00320965
0.0028307
0.00247122
0.00228473
0.00228573
0.00228081
0.00226732
0.00221916
0.00213518
0.00187951
0.00145414
0.0010987
0.000838494
0.00064343
0.000532205
0.000448543
0.000403843
0.000385596
0.000385499
0.000392831
0.000401325
0.000428193
0.000456086
0.000510166
0.000556424
0.000592913
0.000636733
0.000663988
0.000736978
0.000777742
0.000822449
0.000883986
0.000916162
0.000979478
0.00109177
0.00118907
0.00146333
0.00170091
0.0019975
0.00253921
0.00291146
0.00369588
0.00456717
0.00555282
0.00799203
0.0103037
0.0130744
0.020225
0.0254615
0.0359822
0.049424
0.0617526
0.0924572
0.11039
0.142104
0.170782
0.191299
0.214014
0.220563
0.218595
0.212706
0.206064
0.197694
0.188229
0.179323
0.176591
0.176854
0.184761
0.260113
0.40346
0.41284
0.236847
0.172379
0.20805
0.269348
0.376897
0.474371
0.542555
0.572615
0.571641
0.48889
0.377694
0.246713
0.180115
0.150709
0.138852
0.133501
0.1315
0.128126
0.127672
0.122922
0.12648
0.119429
0.110483
0.109219
0.111268
0.117581
0.13657
0.146159
0.158682
0.154415
0.151965
0.145788
0.125685
0.126624
0.124961
0.118655
0.129072
0.117132
0.111881
0.105859
0.0749532
0.0804361
0.0705042
0.0617902
0.0879633
0.081298
0.09415
0.0865321
0.0864205
0.090987
0.0950126
0.110869
0.113808
0.124429
0.121787
0.12428
0.121395
0.118536
0.117803
0.116327
0.112792
0.110133
0.103314
0.099906
0.0915074
0.087628
0.0778718
0.0749404
0.0688347
0.0682928
0.0663067
0.063398
0.0632505
0.0642549
0.0678742
0.0720026
0.0870522
0.0942838
0.101507
0.101667
0.101982
0.101252
0.0976449
0.0927663
0.0896719
0.0879104
0.0824199
0.0760844
0.0742054
0.0721848
0.0700969
0.0690509
0.0669229
0.000262433
0.000265302
0.000274874
0.000278825
0.000285536
0.000292311
0.000296941
0.000303516
0.000306848
0.000307325
0.000306675
0.000304222
0.000296918
0.000288026
0.000275663
0.000267351
0.000258021
0.000251111
0.000246788
0.000244099
0.000243873
0.000247028
0.000255844
0.000264924
0.000275085
0.000280895
0.00028522
0.000285768
0.00028763
0.000295669
0.00030601
0.000327098
0.000335408
0.000334609
0.000317674
0.000306485
0.000298968
0.000290021
0.000279503
0.000278119
0.000295362
0.000309081
0.000314422
0.000314078
0.000313024
0.000294845
0.000294224
0.000287005
0.00028615
0.000288506
0.00029583
0.000310947
0.000345609
0.000376838
0.000435004
0.000517506
0.000574578
0.000734417
0.000829396
0.00100993
0.00115398
0.00132795
0.00156634
0.00173307
0.00206362
0.00228821
0.00244587
0.00274334
0.00291312
0.00322614
0.00364442
0.00404647
0.00500624
0.0056165
0.00676634
0.00803429
0.00931533
0.0119274
0.0144551
0.0182544
0.0242545
0.0298435
0.0403559
0.0566194
0.0697961
0.0991347
0.127893
0.168351
0.222671
0.263026
0.325203
0.363328
0.389906
0.401568
0.396461
0.380898
0.364446
0.331852
0.287451
0.249817
0.219637
0.215995
0.22081
0.249203
0.334094
0.38408
0.315813
0.173002
0.163759
0.193121
0.276733
0.382009
0.500645
0.630022
0.712766
0.732274
0.688474
0.549791
0.36165
0.224299
0.164953
0.140434
0.131798
0.127403
0.124528
0.123129
0.120751
0.123816
0.120023
0.118394
0.114308
0.115614
0.118508
0.131292
0.142235
0.156719
0.15465
0.151399
0.150868
0.135837
0.129777
0.129132
0.120842
0.12811
0.127087
0.113828
0.123716
0.103854
0.0818144
0.106128
0.0859697
0.0940791
0.0942565
0.09129
0.115513
0.10533
0.152091
0.136967
0.156532
0.139426
0.146345
0.134647
0.133738
0.120604
0.116517
0.107009
0.107096
0.10276
0.103293
0.0979787
0.0980425
0.0918707
0.0918198
0.086574
0.086784
0.0841015
0.0842276
0.0809072
0.0791185
0.073582
0.0687878
0.0687109
0.0688761
0.0710452
0.0745269
0.0835927
0.0898068
0.0945468
0.0981209
0.0974647
0.0958987
0.0946997
0.0940937
0.0926685
0.0895493
0.0836357
0.0804054
0.0758005
0.0740904
0.070247
8.95402e-05
9.02987e-05
9.3422e-05
9.64292e-05
9.68899e-05
9.71387e-05
9.78206e-05
9.92287e-05
9.98259e-05
0.00010035
0.000100609
0.000100693
0.000100631
9.97911e-05
9.87321e-05
9.79565e-05
9.76317e-05
9.75768e-05
9.97372e-05
0.000102531
0.000104327
0.000105682
0.000105698
0.000105494
0.000105383
0.000106027
0.000107994
0.000109338
0.000111287
0.000111299
0.000111008
0.000110841
0.00011118
0.000114996
0.000117459
0.000122638
0.000123707
0.000124955
0.000124494
0.000124705
0.000125347
0.000127508
0.00013494
0.00014372
0.000172768
0.000204686
0.00027751
0.00033992
0.000494028
0.000594228
0.000753511
0.000905098
0.00107735
0.00128889
0.00143316
0.00181006
0.0020784
0.00264422
0.00301235
0.0037635
0.00422068
0.00489375
0.00556741
0.00599055
0.00674264
0.00735188
0.00769521
0.00855369
0.00916963
0.0103972
0.0113423
0.0131236
0.0150658
0.0166297
0.0201594
0.0226272
0.0280743
0.0323945
0.0415744
0.0508835
0.063754
0.0854214
0.107296
0.140557
0.183166
0.245768
0.309531
0.402519
0.477714
0.524758
0.54754
0.544005
0.534421
0.517416
0.483588
0.462242
0.435471
0.38615
0.361118
0.339605
0.288687
0.256271
0.254392
0.279742
0.332457
0.340697
0.231187
0.149045
0.147327
0.186795
0.262891
0.356493
0.490754
0.645921
0.80569
0.92368
0.953602
0.830793
0.591513
0.334401
0.207064
0.152985
0.132587
0.125344
0.121347
0.117819
0.117033
0.118689
0.121548
0.121978
0.122953
0.126058
0.124137
0.133825
0.145525
0.154714
0.156301
0.151604
0.156974
0.144513
0.137883
0.133284
0.123215
0.131478
0.131805
0.119744
0.143607
0.132558
0.098289
0.11869
0.103977
0.0941229
0.116665
0.103488
0.135823
0.134274
0.166215
0.158799
0.167417
0.157212
0.156356
0.145939
0.137443
0.118955
0.112059
0.0995162
0.0970559
0.0866146
0.0856926
0.0839051
0.0853693
0.0852451
0.0870714
0.0853763
0.0885638
0.089377
0.0953207
0.0951583
0.101376
0.0994256
0.0921238
0.0809409
0.073967
0.0706504
0.068831
0.0692208
0.0707016
0.0737721
0.0830024
0.0886792
0.0912274
0.0932405
0.093512
0.0937419
0.093589
0.0928487
0.0912623
0.0865723
0.083203
0.0789993
9.00285e-05
9.08165e-05
9.27624e-05
9.78033e-05
9.92191e-05
9.91879e-05
9.91748e-05
9.9663e-05
9.98873e-05
0.000100487
0.000100791
0.000100897
0.000101139
0.000101351
0.000101832
0.000103243
0.00010496
0.000107211
0.000110438
0.000116373
0.000123844
0.000132977
0.000139132
0.000144178
0.000145118
0.000144572
0.000140242
0.000134901
0.000134185
0.000133941
0.000135871
0.000137968
0.000139732
0.000144255
0.00014836
0.000160578
0.00017071
0.000192109
0.00020668
0.000230274
0.000262118
0.000300055
0.000369514
0.00043953
0.000648963
0.000843822
0.00128085
0.00161019
0.00229788
0.00272083
0.00328637
0.00388039
0.004329
0.00517402
0.0056972
0.00683125
0.00767913
0.00944083
0.0105685
0.0124087
0.0138934
0.0152645
0.0170618
0.0179097
0.0193356
0.020677
0.0216872
0.0242146
0.025741
0.0289435
0.0313605
0.036568
0.0399199
0.0458386
0.0529653
0.0593506
0.0740886
0.0859687
0.107852
0.128836
0.169721
0.211879
0.256966
0.335743
0.428851
0.520589
0.581199
0.626418
0.630515
0.625459
0.609378
0.57332
0.55176
0.512788
0.485924
0.464929
0.4278
0.406693
0.384642
0.338232
0.29539
0.278262
0.280597
0.292259
0.317375
0.298546
0.168242
0.133434
0.134148
0.176749
0.229299
0.314701
0.436542
0.589702
0.793399
1.00094
1.15762
1.22521
0.993538
0.597337
0.314123
0.190736
0.142676
0.125036
0.118595
0.115671
0.115394
0.117925
0.125431
0.129104
0.131455
0.132868
0.140304
0.143994
0.153249
0.158352
0.165179
0.155282
0.157568
0.152825
0.139797
0.142874
0.129153
0.13065
0.142001
0.147932
0.141098
0.222575
0.152197
0.123309
0.154839
0.117536
0.153033
0.128115
0.138926
0.138269
0.140831
0.142044
0.13463
0.135301
0.133798
0.131521
0.117936
0.104141
0.099036
0.0908807
0.0926219
0.0842666
0.0793118
0.0722455
0.0696958
0.0702578
0.0728839
0.0757651
0.0835727
0.0856552
0.0884045
0.0904327
0.0992146
0.107625
0.109577
0.108298
0.0990304
0.0830707
0.0746206
0.0705394
0.0663833
0.0651908
0.0658598
0.0681198
0.0723083
0.0810305
0.0840878
0.088126
0.0899958
0.0906078
0.0903602
0.0888699
0.0869728
0.0826792
0.000185187
0.000201781
0.00021266
0.000219411
0.000232962
0.000237785
0.00024941
0.000264656
0.000272138
0.000282517
0.000288491
0.000291249
0.000297123
0.000303655
0.000311839
0.000331821
0.00035714
0.000401987
0.000463206
0.000535737
0.00061736
0.000689134
0.000724069
0.000735329
0.000732642
0.000710069
0.000656263
0.000601228
0.000586046
0.000593321
0.00065036
0.000730407
0.000794826
0.000852535
0.000888145
0.000964089
0.00101628
0.00113261
0.00126251
0.00139625
0.00174712
0.00198975
0.00247643
0.00291765
0.00400506
0.00483171
0.00659248
0.00782408
0.00974781
0.0114328
0.0126269
0.0148374
0.0160167
0.0183139
0.019966
0.02291
0.0254649
0.0291106
0.0322737
0.0356829
0.0393625
0.0413457
0.0451054
0.0469044
0.0505347
0.0527861
0.05681
0.0625576
0.0659691
0.0740274
0.0799354
0.0914787
0.10041
0.113945
0.129999
0.151869
0.176222
0.215925
0.251143
0.324257
0.387492
0.455646
0.527739
0.59496
0.646754
0.658422
0.670803
0.663004
0.633623
0.58367
0.509104
0.443012
0.40628
0.388276
0.391359
0.38933
0.387246
0.385444
0.359305
0.315694
0.309851
0.313837
0.30628
0.298444
0.299403
0.221857
0.128957
0.117559
0.12482
0.161189
0.192948
0.253189
0.330432
0.451217
0.650035
0.912983
1.20279
1.42364
1.5162
1.13699
0.582175
0.293035
0.176369
0.133326
0.119572
0.116532
0.116607
0.120126
0.126471
0.133033
0.139968
0.144133
0.153437
0.155967
0.164962
0.166305
0.174562
0.163094
0.159048
0.161677
0.144985
0.150373
0.139565
0.130753
0.155824
0.1515
0.152248
0.216037
0.339943
0.191641
0.428586
0.265713
0.3677
0.248042
0.22373
0.161092
0.148511
0.132274
0.111665
0.107618
0.105249
0.10055
0.0971851
0.0890057
0.0831656
0.0801992
0.0804244
0.078092
0.0709084
0.0666468
0.0607604
0.0591735
0.0594121
0.0607779
0.0677612
0.0685162
0.0652036
0.0659249
0.065829
0.073448
0.0932573
0.102521
0.102298
0.099567
0.0936066
0.0828371
0.0726858
0.067566
0.0642505
0.0615111
0.0611943
0.0618409
0.0628464
0.0672253
0.0700257
0.0730808
0.0766197
0.0778459
0.0778466
0.0766696
0.00247891
0.00256193
0.00259195
0.00263903
0.00270831
0.00274898
0.00283783
0.00297386
0.0031111
0.0031986
0.00329554
0.00334807
0.00339533
0.00350286
0.00360404
0.00392429
0.00418086
0.00444222
0.00487229
0.00520727
0.0056547
0.00605977
0.00624235
0.00631881
0.00631283
0.0061772
0.00593903
0.00569129
0.00560666
0.00570674
0.00598417
0.00628972
0.00659257
0.00681086
0.00697862
0.00738486
0.00771383
0.00823707
0.00911737
0.00973137
0.0112871
0.0124708
0.0145875
0.0162587
0.0198497
0.0224054
0.0268591
0.0305941
0.0342142
0.0393486
0.04184
0.0468493
0.0500142
0.0555315
0.0600205
0.0653807
0.0729852
0.0776162
0.0859804
0.0900024
0.097603
0.101265
0.108662
0.112678
0.120819
0.126916
0.136401
0.147883
0.156676
0.176555
0.189442
0.211592
0.238677
0.258279
0.29721
0.344089
0.389096
0.457997
0.517216
0.569046
0.603999
0.63122
0.647425
0.676886
0.677815
0.66328
0.615308
0.509457
0.383414
0.30317
0.269214
0.251737
0.251682
0.260415
0.284472
0.311147
0.33477
0.338878
0.327372
0.326585
0.330785
0.322216
0.301783
0.287514
0.245095
0.144036
0.103349
0.10362
0.113134
0.136912
0.148737
0.175665
0.205787
0.248327
0.338373
0.557131
0.944893
1.43084
1.70065
1.81374
1.22928
0.562242
0.278991
0.172156
0.134209
0.122117
0.119372
0.119246
0.122634
0.129779
0.137647
0.146818
0.157265
0.162096
0.172108
0.17453
0.177235
0.169674
0.165643
0.171603
0.149837
0.148304
0.158689
0.135548
0.153352
0.153985
0.183646
0.207409
0.669235
0.341497
0.486941
0.322355
0.312475
0.268042
0.223106
0.191136
0.171064
0.139305
0.108423
0.0948128
0.0876893
0.0820388
0.0797309
0.0741413
0.067491
0.0668666
0.0637907
0.0651465
0.0626456
0.0614044
0.0583097
0.0536976
0.0513408
0.0512243
0.052046
0.0517042
0.0491126
0.0470639
0.0444304
0.044553
0.0488669
0.0662545
0.0856525
0.0908997
0.0929953
0.0931037
0.0902601
0.0825088
0.0731961
0.0663972
0.0629682
0.0610526
0.0589032