/*--------------------------------*- C++ -*----------------------------------*\
| =========                 |                                                 |
| \\      /  F ield         | OpenFOAM: The Open Source CFD Toolbox           |
|  \\    /   O peration     | Version:  2.4.0                                 |
|   \\  /    A nd           | Web:      www.OpenFOAM.org                      |
|    \\/     M anipulation  |                                                 |
\*---------------------------------------------------------------------------*/
FoamFile
{
    version     2.0;
    format      ascii;
    class       volScalarField;
    location    "1.74";
    object      nuSgs;
}
// * * * * * * * * * * * * * * * * * * * * * * * * * * * * * * * * * * * * * //

dimensions      [0 2 -1 0 0 0 0];

internalField   nonuniform List<scalar> 
8800
(
0.00133854
0.00150676
0.00139312
0.00122912
0.00112056
0.00105122
0.000996291
0.000960755
0.000925189
0.000905594
0.00087804
0.000869019
0.000846642
0.000840214
0.000821684
0.000815714
0.000798138
0.000793044
0.000782939
0.000761024
0.000554249
0.000981754
0.00108326
0.00108149
0.00106276
0.00103489
0.00100085
0.000978107
0.000948515
0.000932418
0.000905883
0.000896831
0.000875894
0.000868193
0.000853565
0.000845629
0.000832755
0.00082746
0.000813206
0.000812893
0.000135671
0.000405466
0.000584044
0.000659226
0.000704612
0.000737888
0.000751002
0.000760837
0.000759708
0.000759379
0.000754465
0.000751608
0.000745527
0.000740038
0.000737325
0.000730489
0.00072696
0.000723151
0.000714275
0.000712635
2.69366e-05
0.000125253
0.000231727
0.000311576
0.000356191
0.000395817
0.000428328
0.000455457
0.000473595
0.000492428
0.00050797
0.00051489
0.000530709
0.000535214
0.000545419
0.000549273
0.000557361
0.000558648
0.000562836
0.000562391
5.12851e-06
3.33999e-05
6.79568e-05
0.000109436
0.000142621
0.00016076
0.000190752
0.000213093
0.000231574
0.000248053
0.00026985
0.000277806
0.000296266
0.000305625
0.000319304
0.00033096
0.000345846
0.000350236
0.000362863
0.000371898
2.37891e-06
8.43517e-06
1.76201e-05
2.96819e-05
4.36251e-05
5.12538e-05
6.07679e-05
7.70671e-05
8.47526e-05
9.43133e-05
0.000111202
0.000116726
0.000126891
0.000138557
0.000143716
0.000155475
0.000165962
0.000172648
0.000179821
0.000194292
2.2092e-06
3.13368e-06
5.09635e-06
8.43836e-06
1.11711e-05
1.41203e-05
1.61002e-05
2.11266e-05
2.34818e-05
2.67829e-05
3.40236e-05
3.61862e-05
3.98237e-05
4.78182e-05
4.94891e-05
5.55703e-05
5.9187e-05
6.61684e-05
6.95576e-05
7.99624e-05
2.16361e-06
2.71779e-06
3.19468e-06
4.16439e-06
4.45552e-06
5.05868e-06
5.41597e-06
6.61334e-06
6.89244e-06
7.6763e-06
8.81902e-06
9.28199e-06
1.01328e-05
1.3206e-05
1.33669e-05
1.53943e-05
1.64923e-05
1.9528e-05
2.06428e-05
2.59091e-05
2.14728e-06
2.48726e-06
3.12931e-06
3.82192e-06
3.87191e-06
3.82487e-06
3.83933e-06
4.29299e-06
4.42574e-06
4.61753e-06
4.59569e-06
4.59711e-06
4.60968e-06
4.88404e-06
4.99725e-06
5.63247e-06
5.85799e-06
6.29197e-06
6.34391e-06
7.53348e-06
2.13584e-06
2.47329e-06
2.82947e-06
3.60615e-06
3.88529e-06
3.85166e-06
3.74859e-06
3.78935e-06
3.95159e-06
4.06962e-06
4.15403e-06
4.15975e-06
4.15189e-06
4.1025e-06
4.06853e-06
4.14693e-06
4.35034e-06
4.38339e-06
4.38976e-06
4.43714e-06
2.13075e-06
2.57073e-06
2.84879e-06
3.40987e-06
3.94147e-06
3.96567e-06
3.84719e-06
3.79197e-06
3.79646e-06
4.0723e-06
4.19333e-06
4.20542e-06
4.20727e-06
4.1419e-06
4.08696e-06
4.14872e-06
4.30281e-06
4.39879e-06
4.40836e-06
4.4571e-06
2.14164e-06
2.48581e-06
3.04324e-06
3.86994e-06
3.88515e-06
3.79943e-06
3.8148e-06
4.07942e-06
4.54433e-06
4.61378e-06
4.55787e-06
4.59725e-06
4.68311e-06
4.72434e-06
4.85363e-06
5.26079e-06
5.45025e-06
5.79351e-06
5.95922e-06
6.19767e-06
2.15258e-06
2.54925e-06
3.51263e-06
4.15043e-06
4.22958e-06
4.74592e-06
5.34661e-06
6.58118e-06
7.39463e-06
7.98031e-06
8.33523e-06
9.82908e-06
1.0559e-05
1.17932e-05
1.27462e-05
1.46747e-05
1.58306e-05
1.84668e-05
1.98432e-05
2.23529e-05
2.18312e-06
3.10526e-06
5.24397e-06
8.23079e-06
1.00064e-05
1.39569e-05
1.65701e-05
2.17736e-05
2.45902e-05
2.96313e-05
3.19728e-05
3.78002e-05
4.01804e-05
4.53605e-05
4.87092e-05
5.53685e-05
5.87748e-05
6.65574e-05
7.03978e-05
7.93223e-05
2.34657e-06
8.25025e-06
1.86644e-05
3.02613e-05
3.83414e-05
5.40568e-05
6.24082e-05
7.78852e-05
8.58552e-05
9.96989e-05
0.000105863
0.00011989
0.000125429
0.00013719
0.000143583
0.000156726
0.000162854
0.000177415
0.000184246
0.000201689
5.21992e-06
3.29849e-05
7.51135e-05
0.00010526
0.000134443
0.00017066
0.000187278
0.000214715
0.000232077
0.000252237
0.000262144
0.000283792
0.000291636
0.000308045
0.000316246
0.000333561
0.000340927
0.000359263
0.000366979
0.000386655
2.72909e-05
0.000124083
0.00024131
0.00030072
0.000359683
0.000396074
0.000427878
0.000453337
0.000477374
0.000491147
0.000504539
0.000519801
0.000525708
0.000536658
0.000542334
0.000551852
0.000555621
0.000565605
0.000569105
0.000577943
0.000136809
0.00040131
0.000588699
0.00065292
0.000710925
0.00073277
0.000754655
0.000757397
0.000761934
0.000757275
0.000755882
0.000749319
0.000746723
0.000738924
0.000737079
0.000730751
0.000729157
0.000724844
0.000723124
0.000718981
0.000557735
0.000980195
0.00108398
0.00108046
0.00106486
0.00102915
0.00100737
0.000971408
0.0009551
0.000924711
0.000913838
0.000888551
0.000882079
0.00086279
0.00085792
0.000841497
0.00083799
0.000822431
0.000817814
0.000804836
0.0013395
0.00150563
0.00139361
0.00122719
0.0011236
0.00104624
0.00100194
0.000954848
0.000931328
0.00089797
0.000886725
0.000859831
0.000854745
0.000832974
0.000829302
0.000807804
0.000804285
0.000780504
0.000772844
0.00074271
0.000346583
0.00029226
0.000256792
0.000233096
0.000216333
0.000204496
0.000195269
0.000188724
0.000184032
0.000180826
0.000179167
0.000179109
0.00017939
0.000180108
0.000181873
0.000183695
0.000186384
0.000189863
0.000193089
0.000195276
0.000195673
0.000196057
0.000196036
0.000195617
0.000194308
0.000191447
0.000184947
0.000171819
0.000155146
0.000143733
0.000136622
0.000130021
0.00012453
0.000119712
0.000115635
0.000111887
0.000108848
0.000104919
9.82714e-05
9.40637e-05
9.41273e-05
9.60962e-05
0.000101409
0.000112796
0.000124863
0.000135701
0.000144262
0.000149337
0.000152524
0.000154753
0.000156184
0.00015671
0.000156845
0.000156212
0.000155692
0.000154725
0.000153027
0.000151886
0.00015003
0.000148835
0.000146192
0.000145209
0.000143507
0.000143088
0.000142178
0.00014204
0.000142298
0.000142752
0.000143218
0.00014394
0.000145465
0.000146705
0.000147483
0.000147938
0.0001478
0.000147472
0.000146096
0.000144896
0.000142253
0.000140317
0.000136248
0.000133002
0.000129104
0.000122017
0.000116442
0.000106253
9.62703e-05
8.43607e-05
7.04204e-05
5.83225e-05
4.75528e-05
3.86053e-05
3.14266e-05
2.62204e-05
2.36563e-05
2.18661e-05
2.18937e-05
2.29819e-05
2.40499e-05
2.63043e-05
2.78814e-05
2.8425e-05
2.97195e-05
3.25105e-05
3.77936e-05
4.72124e-05
6.21864e-05
8.60949e-05
0.000131111
0.000157963
0.000158877
0.000144179
0.000119448
0.000114561
0.000116637
0.000120354
0.000120039
0.000115473
0.000109122
0.000103663
9.88445e-05
9.42714e-05
9.0427e-05
8.78767e-05
8.70917e-05
8.92775e-05
0.000105077
0.000117499
0.000120874
0.000119951
0.00011388
0.000100368
9.26448e-05
8.7212e-05
8.44215e-05
8.17959e-05
7.82389e-05
7.42622e-05
6.85364e-05
6.00338e-05
5.04185e-05
4.51891e-05
4.29417e-05
4.27094e-05
4.30608e-05
4.40244e-05
4.61399e-05
5.17146e-05
5.63146e-05
6.24745e-05
6.814e-05
6.9894e-05
7.25445e-05
7.25402e-05
7.18443e-05
7.08709e-05
6.89397e-05
6.73757e-05
6.39601e-05
6.22771e-05
6.10771e-05
5.82634e-05
5.65574e-05
5.24182e-05
5.09415e-05
4.74135e-05
4.60413e-05
4.31101e-05
4.23534e-05
4.12601e-05
4.0937e-05
4.12354e-05
4.23311e-05
4.60144e-05
5.58699e-05
6.97401e-05
7.1612e-05
7.16704e-05
6.99647e-05
6.49433e-05
6.56512e-05
6.41102e-05
6.71516e-05
6.38314e-05
6.48785e-05
6.16374e-05
6.15804e-05
6.05384e-05
6.04749e-05
5.96378e-05
5.72223e-05
5.29439e-05
4.92737e-05
4.84288e-05
4.84309e-05
4.89729e-05
5.05212e-05
5.47859e-05
6.63643e-05
9.7695e-05
0.000411596
0.000373504
0.000341371
0.000316087
0.00029614
0.000280082
0.000267135
0.000256574
0.000247871
0.000240369
0.000234286
0.000229184
0.000224967
0.000221664
0.000218128
0.000215156
0.000212351
0.000209978
0.000207573
0.000205837
0.000204039
0.000203238
0.00020334
0.000203801
0.000204995
0.000206795
0.000208076
0.000208126
0.000206871
0.000202457
0.00019267
0.000180966
0.000168603
0.000157465
0.000148389
0.00014072
0.000133992
0.000129541
0.000128899
0.000129918
0.000132989
0.000139777
0.000145586
0.00015056
0.000154066
0.000155588
0.000157255
0.000157823
0.000157725
0.00015737
0.000156543
0.000154264
0.000152328
0.000147869
0.000145321
0.000140636
0.000137626
0.000132037
0.000128169
0.000123764
0.000117129
0.000113488
0.000109945
0.000106814
0.000105479
0.000103794
0.000102299
0.000101559
0.000101492
0.000101565
0.00010194
0.000103186
0.00010448
0.000105953
0.000106503
0.00010628
0.000105743
0.000103719
0.000100668
9.77254e-05
9.07538e-05
8.59556e-05
7.86942e-05
7.08672e-05
6.37113e-05
5.55051e-05
4.82374e-05
4.1017e-05
3.46385e-05
2.925e-05
2.46633e-05
2.17526e-05
1.96089e-05
1.91911e-05
1.93626e-05
1.97162e-05
2.06745e-05
2.26269e-05
2.38905e-05
2.66333e-05
2.79342e-05
3.00298e-05
3.50111e-05
4.07465e-05
4.88261e-05
6.14387e-05
7.88677e-05
0.000114869
0.000156136
0.000164331
0.000149641
0.000120532
0.000116583
0.000124333
0.000134584
0.000133429
0.000125783
0.000116147
0.000109468
0.000104379
0.000100778
9.82418e-05
9.45934e-05
8.97707e-05
8.65702e-05
8.57283e-05
8.79795e-05
0.000102272
0.000114307
0.000117101
0.000116193
0.000111218
0.00010029
9.24115e-05
8.74386e-05
8.56313e-05
8.20101e-05
7.98307e-05
7.65989e-05
7.15473e-05
6.60997e-05
5.49599e-05
4.81158e-05
4.48867e-05
4.37821e-05
4.41306e-05
4.48189e-05
4.6393e-05
4.97389e-05
5.20431e-05
5.7728e-05
5.94678e-05
6.19927e-05
6.43982e-05
6.45137e-05
6.49517e-05
6.39902e-05
6.35967e-05
6.25507e-05
6.19102e-05
6.08884e-05
5.77214e-05
5.41439e-05
5.13405e-05
4.81775e-05
4.73771e-05
4.48544e-05
4.36218e-05
4.19885e-05
4.20151e-05
4.16673e-05
4.16385e-05
4.1869e-05
4.2816e-05
4.60531e-05
5.48604e-05
6.8272e-05
7.05828e-05
7.21362e-05
6.90868e-05
7.08907e-05
6.84922e-05
7.06033e-05
6.83237e-05
6.84338e-05
6.60648e-05
6.52526e-05
6.32684e-05
6.2545e-05
6.17932e-05
6.03479e-05
5.59629e-05
5.12456e-05
4.97517e-05
4.97692e-05
5.14625e-05
5.35406e-05
5.55543e-05
6.14855e-05
6.72659e-05
0.000372313
0.000351533
0.000331305
0.000313155
0.000297676
0.000284623
0.0002735
0.00026412
0.000255788
0.000248719
0.000241983
0.000236137
0.000230695
0.000225605
0.000221237
0.00021713
0.000213146
0.000210044
0.00020632
0.000203457
0.000200604
0.000197872
0.000196355
0.000194725
0.000194381
0.000194575
0.00019521
0.000196713
0.00019859
0.000198924
0.000198518
0.000197308
0.000194421
0.000190232
0.000186662
0.000181907
0.000177359
0.000173865
0.000170482
0.0001687
0.000166035
0.000164044
0.000162563
0.00016061
0.00015851
0.000157053
0.000153897
0.000150558
0.000146587
0.000142443
0.000136134
0.000131081
0.000124532
0.000116765
0.000111192
0.000103507
9.70065e-05
9.08226e-05
8.37645e-05
7.78794e-05
7.21348e-05
6.76551e-05
6.38749e-05
6.07375e-05
5.89427e-05
5.7876e-05
5.69842e-05
5.63483e-05
5.59818e-05
5.49566e-05
5.45165e-05
5.45913e-05
5.45322e-05
5.4738e-05
5.48765e-05
5.46595e-05
5.43776e-05
5.3064e-05
5.13272e-05
4.8386e-05
4.45752e-05
4.14408e-05
3.7395e-05
3.38623e-05
3.02722e-05
2.68197e-05
2.3882e-05
2.10211e-05
1.92575e-05
1.77129e-05
1.69959e-05
1.70303e-05
1.71912e-05
1.80429e-05
1.87869e-05
1.97717e-05
2.26351e-05
2.48173e-05
2.7888e-05
3.10094e-05
3.32878e-05
3.82502e-05
4.59317e-05
5.22166e-05
6.26238e-05
7.45323e-05
9.60224e-05
0.000145757
0.000166043
0.00015916
0.000124536
0.000117426
0.000129204
0.000142908
0.000144101
0.000136742
0.000124211
0.000113615
0.000106368
0.000101922
9.99145e-05
9.82317e-05
9.67484e-05
9.3808e-05
8.89935e-05
8.57269e-05
8.50372e-05
8.72707e-05
9.95112e-05
0.000110669
0.00011324
0.000112342
0.000107468
0.000100587
9.13159e-05
8.92321e-05
8.64388e-05
8.35853e-05
8.20926e-05
7.79997e-05
7.48222e-05
6.99102e-05
5.97853e-05
5.16965e-05
4.69689e-05
4.5404e-05
4.54847e-05
4.59971e-05
4.83918e-05
4.94339e-05
5.16033e-05
5.52669e-05
5.57769e-05
5.9441e-05
6.0043e-05
6.1264e-05
6.11047e-05
6.08157e-05
6.12458e-05
6.00717e-05
5.9315e-05
5.69316e-05
5.62569e-05
5.47576e-05
5.23557e-05
5.13982e-05
4.95865e-05
4.75489e-05
4.47158e-05
4.28494e-05
4.12557e-05
4.10225e-05
4.11549e-05
4.21471e-05
4.39165e-05
4.75773e-05
6.04495e-05
6.58008e-05
7.4951e-05
7.44511e-05
7.55039e-05
7.34507e-05
7.31582e-05
7.15324e-05
7.01129e-05
6.9165e-05
6.7222e-05
6.58552e-05
6.40646e-05
6.42719e-05
6.37957e-05
6.16153e-05
5.53867e-05
5.34205e-05
5.32945e-05
5.38865e-05
5.68115e-05
5.80524e-05
6.08586e-05
6.33168e-05
0.000299143
0.000288859
0.000277802
0.000267751
0.000257911
0.000248707
0.000240705
0.00023354
0.000226988
0.000221794
0.000216525
0.000211634
0.00020709
0.000202221
0.000197632
0.000193521
0.000189233
0.000185368
0.00018194
0.000178104
0.000174827
0.000171503
0.000168301
0.000165814
0.000163625
0.000163126
0.000163407
0.000164428
0.000166225
0.000170016
0.000172402
0.000175308
0.000176595
0.000176412
0.000175604
0.000174205
0.00017168
0.000168894
0.000165548
0.000162068
0.000157532
0.000152925
0.000148298
0.000142517
0.00013706
0.000131051
0.000123695
0.00011645
0.000108228
0.000100193
9.15226e-05
8.35193e-05
7.61038e-05
6.89656e-05
6.32015e-05
5.79893e-05
5.34855e-05
5.01378e-05
4.72084e-05
4.45504e-05
4.20194e-05
3.91933e-05
3.63462e-05
3.41202e-05
3.19878e-05
3.09031e-05
3.02463e-05
2.95676e-05
2.93455e-05
2.86388e-05
2.7875e-05
2.73219e-05
2.65585e-05
2.64146e-05
2.61554e-05
2.59518e-05
2.58017e-05
2.52258e-05
2.46717e-05
2.31099e-05
2.17234e-05
1.9998e-05
1.85399e-05
1.7275e-05
1.61456e-05
1.55236e-05
1.49676e-05
1.5017e-05
1.51802e-05
1.54954e-05
1.62391e-05
1.69757e-05
1.83923e-05
2.13713e-05
2.32791e-05
2.64064e-05
3.12556e-05
3.37905e-05
3.79378e-05
4.02349e-05
4.3555e-05
5.24427e-05
5.79449e-05
6.70085e-05
7.48792e-05
8.75492e-05
0.000125396
0.000161694
0.000164049
0.000135666
0.000118061
0.000127132
0.000145023
0.000148496
0.000148195
0.000138241
0.000124638
0.000113382
0.000105795
0.000101066
9.78652e-05
9.61188e-05
9.56712e-05
9.48368e-05
9.35878e-05
8.9149e-05
8.4871e-05
8.42317e-05
8.65539e-05
9.7914e-05
0.000106732
0.000109569
0.000108457
0.000105825
9.86626e-05
9.16251e-05
9.05358e-05
8.6731e-05
8.64267e-05
8.46577e-05
8.08913e-05
7.85327e-05
7.17028e-05
6.40454e-05
5.48334e-05
4.89326e-05
4.82903e-05
4.73959e-05
4.79507e-05
4.97894e-05
5.07741e-05
5.56909e-05
5.58224e-05
5.65702e-05
5.87277e-05
5.87989e-05
6.19594e-05
6.18447e-05
6.34498e-05
6.22031e-05
6.36097e-05
6.28347e-05
6.31002e-05
6.2201e-05
5.95181e-05
5.55155e-05
5.18442e-05
4.84796e-05
4.71238e-05
4.54512e-05
4.5215e-05
4.46117e-05
4.47195e-05
4.50888e-05
4.60983e-05
4.82592e-05
5.41565e-05
5.92887e-05
7.08841e-05
7.48045e-05
7.68688e-05
7.62834e-05
7.60451e-05
7.55538e-05
7.31143e-05
7.17962e-05
6.86349e-05
6.7999e-05
6.60245e-05
6.62208e-05
6.58572e-05
6.5185e-05
6.21072e-05
5.85193e-05
5.71536e-05
5.70073e-05
5.77858e-05
6.02939e-05
6.36166e-05
6.47717e-05
0.000200479
0.000197043
0.000191993
0.000187495
0.000183617
0.000178426
0.000174791
0.000170728
0.000166544
0.000163146
0.00015985
0.000156409
0.000153774
0.000150816
0.000147365
0.000144636
0.000140889
0.00013756
0.000134764
0.000131565
0.00012933
0.000127091
0.000124612
0.000122896
0.000120108
0.000117499
0.00011688
0.000117046
0.000117779
0.000119668
0.000123033
0.000126143
0.000128756
0.000130877
0.000131472
0.000131371
0.000130631
0.000128819
0.000126062
0.000122534
0.00011905
0.000113363
0.000108093
0.000101598
9.41049e-05
8.60344e-05
7.81206e-05
7.05953e-05
6.338e-05
5.7143e-05
5.13761e-05
4.6195e-05
4.19557e-05
3.75564e-05
3.38894e-05
3.07993e-05
2.79734e-05
2.6398e-05
2.52012e-05
2.42388e-05
2.34125e-05
2.1997e-05
2.04587e-05
1.89352e-05
1.73935e-05
1.65319e-05
1.57829e-05
1.54569e-05
1.52807e-05
1.47915e-05
1.44688e-05
1.3831e-05
1.34635e-05
1.3241e-05
1.30751e-05
1.30846e-05
1.30737e-05
1.30793e-05
1.30285e-05
1.26187e-05
1.22197e-05
1.19008e-05
1.1892e-05
1.20285e-05
1.24625e-05
1.28592e-05
1.36472e-05
1.47578e-05
1.59486e-05
1.84717e-05
2.15597e-05
2.40838e-05
2.89461e-05
3.31802e-05
3.61677e-05
4.2477e-05
4.50275e-05
4.82428e-05
5.1507e-05
5.34366e-05
5.86276e-05
6.54519e-05
7.25104e-05
8.02269e-05
8.70926e-05
0.000103001
0.000150464
0.000166067
0.000153735
0.000119318
0.00012156
0.000138748
0.000149924
0.000155306
0.00015679
0.000147439
0.000130915
0.000117562
0.000108041
0.000102005
9.77005e-05
9.59859e-05
9.5116e-05
9.42375e-05
9.40795e-05
9.27275e-05
8.81423e-05
8.41971e-05
8.39434e-05
8.62288e-05
9.50104e-05
0.000103565
0.000106196
0.000104887
0.000103247
9.66723e-05
9.3413e-05
9.0212e-05
8.72069e-05
8.8307e-05
8.51493e-05
8.47321e-05
8.20175e-05
7.42902e-05
6.85454e-05
5.67005e-05
5.16792e-05
5.06668e-05
4.97828e-05
5.28387e-05
5.24388e-05
5.33673e-05
5.74368e-05
5.72801e-05
6.32169e-05
6.29104e-05
6.48248e-05
6.40617e-05
6.27207e-05
6.36602e-05
6.75871e-05
6.97373e-05
7.54946e-05
7.27132e-05
7.38859e-05
6.88736e-05
6.93775e-05
6.41665e-05
6.4775e-05
5.90052e-05
5.81331e-05
5.31799e-05
5.25336e-05
5.02634e-05
5.05063e-05
5.03942e-05
5.18044e-05
5.4336e-05
5.88432e-05
7.1128e-05
7.54467e-05
8.07892e-05
8.05725e-05
8.05961e-05
7.96038e-05
7.78547e-05
7.23938e-05
7.08547e-05
6.73035e-05
6.73235e-05
6.72623e-05
6.73368e-05
6.6228e-05
6.28841e-05
6.14038e-05
6.03205e-05
6.02772e-05
6.09752e-05
6.31159e-05
6.40737e-05
0.000105619
0.000104725
0.000103151
0.000101215
0.000100423
9.86497e-05
9.76697e-05
9.66103e-05
9.49682e-05
9.36616e-05
9.19259e-05
8.9854e-05
8.80857e-05
8.65959e-05
8.42521e-05
8.29008e-05
8.09436e-05
7.87949e-05
7.74872e-05
7.55192e-05
7.43586e-05
7.3629e-05
7.25508e-05
7.21309e-05
7.15379e-05
7.00132e-05
6.87663e-05
6.84707e-05
6.86674e-05
6.92922e-05
7.03756e-05
7.28638e-05
7.51141e-05
7.72637e-05
7.83784e-05
7.84444e-05
7.80814e-05
7.71629e-05
7.51752e-05
7.2546e-05
6.97247e-05
6.56561e-05
6.24032e-05
5.86334e-05
5.4486e-05
4.9864e-05
4.4828e-05
3.99066e-05
3.50152e-05
3.0961e-05
2.73703e-05
2.43302e-05
2.18223e-05
1.93999e-05
1.73171e-05
1.55021e-05
1.41e-05
1.32673e-05
1.28592e-05
1.27156e-05
1.24692e-05
1.20183e-05
1.13048e-05
1.04457e-05
9.68504e-06
9.06309e-06
8.60006e-06
8.44828e-06
8.30256e-06
8.16881e-06
8.06899e-06
7.89974e-06
7.88776e-06
7.90859e-06
7.99313e-06
8.22989e-06
8.55079e-06
8.87866e-06
9.18969e-06
9.53036e-06
9.83163e-06
1.04844e-05
1.10304e-05
1.20403e-05
1.3815e-05
1.54471e-05
1.87121e-05
2.1858e-05
2.5369e-05
3.18593e-05
3.60345e-05
4.18473e-05
4.8286e-05
5.19474e-05
5.81776e-05
6.2818e-05
6.42328e-05
6.65612e-05
6.81724e-05
6.98952e-05
7.51587e-05
8.06424e-05
8.72364e-05
9.19349e-05
9.92541e-05
0.000123246
0.000162745
0.000167674
0.000135594
0.000113108
0.000127229
0.000143743
0.000160235
0.000168206
0.000168371
0.000159456
0.00013899
0.000125455
0.000111541
0.000103215
9.85338e-05
9.64596e-05
9.51822e-05
9.36514e-05
9.35339e-05
9.31185e-05
9.21921e-05
8.72317e-05
8.30644e-05
8.30458e-05
8.59572e-05
9.40091e-05
0.000101409
0.000102548
0.000102693
0.000101491
9.66154e-05
9.52602e-05
8.93623e-05
8.98014e-05
8.86058e-05
8.56658e-05
8.77572e-05
8.38643e-05
8.03921e-05
7.14805e-05
5.79884e-05
5.80237e-05
5.43854e-05
5.34193e-05
5.81236e-05
5.84121e-05
6.30221e-05
6.05837e-05
5.98293e-05
6.33318e-05
6.48806e-05
6.90603e-05
7.79987e-05
8.10322e-05
9.54222e-05
9.84237e-05
0.00010735
0.000103877
0.000107974
0.000100743
9.99392e-05
9.2044e-05
9.04848e-05
8.27765e-05
8.03778e-05
7.18162e-05
6.86835e-05
6.15673e-05
6.0037e-05
5.64175e-05
5.63322e-05
5.65069e-05
5.80092e-05
6.42824e-05
7.00345e-05
7.98235e-05
8.15511e-05
8.34948e-05
8.31729e-05
8.27393e-05
8.05952e-05
7.82141e-05
7.14115e-05
6.94199e-05
6.83916e-05
6.84155e-05
6.81068e-05
6.63655e-05
6.51434e-05
6.36033e-05
6.23243e-05
6.23504e-05
6.30174e-05
6.35964e-05
4.36348e-05
4.32886e-05
4.25927e-05
4.19562e-05
4.1904e-05
4.181e-05
4.18428e-05
4.18178e-05
4.15787e-05
4.12744e-05
4.06962e-05
3.98205e-05
3.90114e-05
3.8313e-05
3.72736e-05
3.67831e-05
3.60842e-05
3.55188e-05
3.52598e-05
3.48039e-05
3.45575e-05
3.43154e-05
3.41312e-05
3.40974e-05
3.41142e-05
3.38054e-05
3.32257e-05
3.28359e-05
3.28855e-05
3.31226e-05
3.3556e-05
3.42603e-05
3.58384e-05
3.76343e-05
3.88449e-05
3.90077e-05
3.87718e-05
3.80609e-05
3.62185e-05
3.45506e-05
3.30975e-05
3.13554e-05
3.02248e-05
2.92296e-05
2.77982e-05
2.55881e-05
2.28937e-05
2.00162e-05
1.73019e-05
1.49667e-05
1.30884e-05
1.15468e-05
1.02042e-05
9.17128e-06
8.21852e-06
7.56685e-06
7.09178e-06
6.86036e-06
6.85538e-06
6.93688e-06
7.05358e-06
7.08334e-06
6.99259e-06
6.84853e-06
6.73126e-06
6.59368e-06
6.48246e-06
6.48995e-06
6.47333e-06
6.48954e-06
6.59055e-06
6.68083e-06
6.93366e-06
7.19508e-06
7.45807e-06
8.11126e-06
8.50152e-06
9.14035e-06
1.00711e-05
1.08927e-05
1.24483e-05
1.45724e-05
1.63229e-05
1.99469e-05
2.35566e-05
2.70472e-05
3.38377e-05
3.8173e-05
4.65933e-05
5.33802e-05
6.01087e-05
6.91981e-05
7.49162e-05
8.09285e-05
8.65206e-05
8.80826e-05
8.88319e-05
8.9316e-05
8.92643e-05
8.98514e-05
9.31086e-05
9.50007e-05
9.72442e-05
0.000101037
0.000109771
0.000145691
0.000171145
0.000157413
0.000109931
0.00011481
0.000132935
0.000152433
0.000170343
0.000176948
0.000179141
0.000171898
0.000153505
0.000137002
0.000115238
0.000104204
9.92093e-05
9.63447e-05
9.50332e-05
9.35804e-05
9.33868e-05
9.30233e-05
9.21394e-05
9.07778e-05
8.55228e-05
8.36789e-05
8.40368e-05
8.60643e-05
9.36545e-05
9.96154e-05
0.000101647
0.000101959
9.94065e-05
9.77715e-05
9.37289e-05
8.97409e-05
9.1594e-05
8.78635e-05
8.88401e-05
8.78243e-05
8.36016e-05
8.34173e-05
7.32401e-05
6.20541e-05
6.37974e-05
6.0108e-05
6.1571e-05
6.05222e-05
6.14164e-05
6.99031e-05
7.1534e-05
7.87157e-05
8.27372e-05
8.74849e-05
9.3994e-05
9.77714e-05
9.85763e-05
9.94418e-05
9.837e-05
9.90719e-05
9.8543e-05
9.76668e-05
9.57474e-05
9.14776e-05
8.89509e-05
8.43038e-05
8.18671e-05
7.67385e-05
7.41182e-05
6.87775e-05
6.70513e-05
6.37284e-05
6.3515e-05
6.23009e-05
6.17042e-05
6.29543e-05
6.48475e-05
7.1922e-05
7.72329e-05
8.2706e-05
8.28487e-05
8.35341e-05
8.30162e-05
8.26156e-05
8.01431e-05
7.55669e-05
7.28701e-05
7.12491e-05
7.06851e-05
6.86457e-05
6.7606e-05
6.72372e-05
6.6027e-05
6.54697e-05
6.50221e-05
6.51394e-05
1.48053e-05
1.47692e-05
1.4682e-05
1.44997e-05
1.45004e-05
1.45232e-05
1.45261e-05
1.45374e-05
1.45066e-05
1.44259e-05
1.42372e-05
1.39322e-05
1.37018e-05
1.34752e-05
1.31966e-05
1.30357e-05
1.28665e-05
1.27752e-05
1.27234e-05
1.268e-05
1.26553e-05
1.26398e-05
1.25742e-05
1.25103e-05
1.25281e-05
1.2541e-05
1.25794e-05
1.26262e-05
1.27113e-05
1.29295e-05
1.31496e-05
1.34508e-05
1.4186e-05
1.47715e-05
1.49394e-05
1.48589e-05
1.45844e-05
1.36964e-05
1.27972e-05
1.23048e-05
1.23075e-05
1.22943e-05
1.22579e-05
1.2127e-05
1.18953e-05
1.11604e-05
9.8166e-06
8.53292e-06
7.45433e-06
6.52994e-06
5.93879e-06
5.45206e-06
5.17327e-06
5.05504e-06
5.0544e-06
5.10224e-06
5.15711e-06
5.32694e-06
5.49771e-06
5.81453e-06
6.07241e-06
6.26836e-06
6.49587e-06
6.63344e-06
6.98853e-06
7.1792e-06
7.38266e-06
7.65387e-06
7.79192e-06
8.05667e-06
8.50596e-06
8.87694e-06
9.84757e-06
1.06169e-05
1.15054e-05
1.2972e-05
1.38904e-05
1.56501e-05
1.73973e-05
1.91829e-05
2.30137e-05
2.61309e-05
2.94353e-05
3.66103e-05
4.10772e-05
4.88318e-05
5.72305e-05
6.39715e-05
7.82761e-05
8.55309e-05
9.70426e-05
0.000106385
0.000112594
0.000119091
0.0001209
0.000120359
0.000118727
0.000116858
0.00011446
0.000111687
0.000109013
0.000108179
0.00010826
0.000110653
0.000131292
0.000163515
0.000165405
0.000125283
0.000106881
0.00011742
0.000133603
0.000158041
0.000177304
0.000189618
0.0001948
0.000194635
0.000179997
0.000158208
0.000127866
0.000109253
9.99373e-05
9.59257e-05
9.40592e-05
9.33517e-05
9.21462e-05
9.19828e-05
9.02556e-05
9.15523e-05
8.89637e-05
8.55671e-05
8.5076e-05
8.58703e-05
8.82727e-05
9.51343e-05
9.84172e-05
0.000102547
0.000101159
0.000100353
9.82923e-05
9.12642e-05
9.16043e-05
9.1001e-05
8.86751e-05
9.24856e-05
8.81041e-05
8.61068e-05
8.37572e-05
7.0478e-05
7.30103e-05
6.83543e-05
6.39909e-05
7.635e-05
7.34004e-05
7.89894e-05
7.57264e-05
7.56775e-05
7.76512e-05
7.93504e-05
8.57163e-05
8.6845e-05
9.08071e-05
8.98378e-05
9.07524e-05
8.9693e-05
8.86304e-05
8.8356e-05
8.7801e-05
8.64565e-05
8.54314e-05
8.27442e-05
8.13681e-05
7.78729e-05
7.62044e-05
7.18371e-05
7.0472e-05
6.75402e-05
6.72738e-05
6.62883e-05
6.48181e-05
6.47427e-05
6.52547e-05
6.70673e-05
6.90769e-05
7.59536e-05
7.90455e-05
8.20174e-05
8.2082e-05
8.22092e-05
8.19145e-05
8.04421e-05
7.84068e-05
7.7088e-05
7.63271e-05
7.39051e-05
7.10078e-05
7.01255e-05
6.91642e-05
6.81566e-05
6.76461e-05
6.65956e-05
4.1703e-06
4.19303e-06
4.26801e-06
4.29857e-06
4.35e-06
4.4013e-06
4.43602e-06
4.48486e-06
4.50942e-06
4.51292e-06
4.50814e-06
4.49008e-06
4.43585e-06
4.36892e-06
4.27413e-06
4.2092e-06
4.1351e-06
4.07935e-06
4.04409e-06
4.02199e-06
4.02013e-06
4.04605e-06
4.11762e-06
4.19005e-06
4.26964e-06
4.3145e-06
4.34759e-06
4.35176e-06
4.36592e-06
4.42651e-06
4.50325e-06
4.65583e-06
4.7146e-06
4.70898e-06
4.58828e-06
4.50675e-06
4.45114e-06
4.38403e-06
4.30379e-06
4.29312e-06
4.42421e-06
4.52579e-06
4.56473e-06
4.56223e-06
4.55457e-06
4.42034e-06
4.41568e-06
4.36117e-06
4.35467e-06
4.37256e-06
4.42771e-06
4.53943e-06
4.78576e-06
4.9973e-06
5.36915e-06
5.8562e-06
6.17068e-06
6.97638e-06
7.41377e-06
8.18096e-06
8.74497e-06
9.38101e-06
1.01883e-05
1.07168e-05
1.16943e-05
1.23142e-05
1.27314e-05
1.34834e-05
1.38943e-05
1.46218e-05
1.55408e-05
1.63756e-05
1.82144e-05
1.92926e-05
2.11756e-05
2.30745e-05
2.48461e-05
2.81145e-05
3.09506e-05
3.4781e-05
4.00917e-05
4.44716e-05
5.17145e-05
6.12549e-05
6.80102e-05
8.10534e-05
9.20624e-05
0.000105625
0.000121476
0.000132026
0.000146803
0.00015517
0.000160745
0.000163132
0.000162091
0.000158878
0.000155409
0.000148297
0.00013802
0.000128668
0.000120646
0.000119641
0.000120967
0.000128509
0.000148797
0.00015954
0.000144668
0.000107074
0.000104175
0.000113129
0.000135422
0.000159109
0.000182148
0.000204332
0.000217336
0.00022029
0.000213601
0.000190879
0.000154811
0.000121919
0.000104554
9.64704e-05
9.34572e-05
9.18859e-05
9.08433e-05
9.03315e-05
8.9455e-05
9.05831e-05
8.91847e-05
8.85775e-05
8.70357e-05
8.75313e-05
8.862e-05
9.32776e-05
9.7087e-05
0.00010191
0.000101236
0.000100166
9.99901e-05
9.48784e-05
9.27379e-05
9.25071e-05
8.94885e-05
9.21402e-05
9.17719e-05
8.68525e-05
9.05463e-05
8.29603e-05
7.36332e-05
8.38636e-05
7.54799e-05
7.89596e-05
7.9034e-05
7.77804e-05
8.74933e-05
8.35479e-05
0.000100395
9.52722e-05
0.00010185
9.61238e-05
9.84798e-05
9.44619e-05
9.41426e-05
8.94003e-05
8.78725e-05
8.42111e-05
8.4245e-05
8.2522e-05
8.27358e-05
8.05794e-05
8.06057e-05
7.80274e-05
7.80058e-05
7.57447e-05
7.58365e-05
7.46552e-05
7.47112e-05
7.32238e-05
7.24098e-05
6.98303e-05
6.75171e-05
6.74794e-05
6.75605e-05
6.86161e-05
7.02773e-05
7.44291e-05
7.7146e-05
7.91557e-05
8.06379e-05
8.03678e-05
7.97195e-05
7.92196e-05
7.89657e-05
7.83654e-05
7.70353e-05
7.44482e-05
7.29963e-05
7.08752e-05
7.00712e-05
6.82296e-05
2.43595e-06
2.44624e-06
2.48819e-06
2.52792e-06
2.53395e-06
2.5372e-06
2.54609e-06
2.56435e-06
2.57205e-06
2.57879e-06
2.58212e-06
2.58319e-06
2.5824e-06
2.57161e-06
2.55792e-06
2.54786e-06
2.54363e-06
2.54291e-06
2.57091e-06
2.60667e-06
2.6294e-06
2.64642e-06
2.64663e-06
2.64407e-06
2.64267e-06
2.65074e-06
2.67521e-06
2.69181e-06
2.71569e-06
2.71584e-06
2.71229e-06
2.71024e-06
2.71438e-06
2.76057e-06
2.78998e-06
2.85083e-06
2.86322e-06
2.87764e-06
2.87232e-06
2.87475e-06
2.88215e-06
2.90688e-06
2.99039e-06
3.08615e-06
3.38369e-06
3.68301e-06
4.28843e-06
4.74621e-06
5.72182e-06
6.27531e-06
7.06648e-06
7.74473e-06
8.44963e-06
9.24203e-06
9.74555e-06
1.09523e-05
1.17361e-05
1.32375e-05
1.4129e-05
1.57926e-05
1.67244e-05
1.80086e-05
1.92081e-05
1.99247e-05
2.11385e-05
2.20728e-05
2.25823e-05
2.38087e-05
2.4651e-05
2.62493e-05
2.74163e-05
2.94907e-05
3.15976e-05
3.31971e-05
3.65508e-05
3.87234e-05
4.31334e-05
4.63334e-05
5.24894e-05
5.80694e-05
6.49998e-05
7.52388e-05
8.43239e-05
9.65128e-05
0.000110174
0.000127621
0.000143222
0.000163325
0.000177927
0.000186482
0.000190488
0.000189872
0.000188192
0.000185173
0.000179018
0.000175022
0.000169878
0.000159969
0.000154698
0.000150019
0.000138316
0.000130319
0.00012984
0.000136156
0.000148432
0.00015026
0.000123777
9.93843e-05
9.88097e-05
0.00011126
0.000131992
0.000153704
0.000180339
0.000206894
0.000231069
0.000247411
0.000251387
0.000234642
0.000197989
0.000148865
0.000117142
0.000100689
9.37365e-05
9.11404e-05
8.96752e-05
8.83623e-05
8.80668e-05
8.86877e-05
8.97495e-05
8.99081e-05
9.02669e-05
9.13994e-05
9.07003e-05
9.41733e-05
9.82035e-05
0.000101256
0.000101775
0.000100234
0.000101994
9.78614e-05
9.55902e-05
9.39825e-05
9.03628e-05
9.33438e-05
9.34596e-05
8.9081e-05
9.75542e-05
9.37263e-05
8.0707e-05
8.86882e-05
8.30092e-05
7.8978e-05
8.79283e-05
8.2814e-05
9.48737e-05
9.43311e-05
0.000104953
0.000102585
0.000105331
0.000102071
0.000101792
9.83431e-05
9.54375e-05
8.87871e-05
8.61751e-05
8.12092e-05
8.01991e-05
7.57625e-05
7.53581e-05
7.4568e-05
7.52158e-05
7.51611e-05
7.5962e-05
7.52189e-05
7.66102e-05
7.69611e-05
7.9479e-05
7.94112e-05
8.19645e-05
8.11722e-05
7.81348e-05
7.3239e-05
7.00128e-05
6.84252e-05
6.75383e-05
6.77293e-05
6.845e-05
6.99205e-05
7.41658e-05
7.66601e-05
7.77537e-05
7.86069e-05
7.87213e-05
7.8818e-05
7.87537e-05
7.84416e-05
7.77686e-05
7.5744e-05
7.42554e-05
7.23552e-05
2.44258e-06
2.45324e-06
2.47939e-06
2.54586e-06
2.56422e-06
2.56382e-06
2.56365e-06
2.56995e-06
2.57285e-06
2.58055e-06
2.58446e-06
2.58582e-06
2.58892e-06
2.59163e-06
2.59777e-06
2.6157e-06
2.63737e-06
2.66549e-06
2.70531e-06
2.77705e-06
2.86481e-06
2.96856e-06
3.03649e-06
3.09106e-06
3.10112e-06
3.09528e-06
3.04858e-06
2.98996e-06
2.98202e-06
2.97931e-06
3.00069e-06
3.02376e-06
3.04303e-06
3.09189e-06
3.13558e-06
3.26213e-06
3.36347e-06
3.56806e-06
3.7009e-06
3.90644e-06
4.1678e-06
4.45922e-06
4.9485e-06
5.39701e-06
6.55796e-06
7.47797e-06
9.21314e-06
1.03299e-05
1.23402e-05
1.34279e-05
1.47576e-05
1.6036e-05