/*--------------------------------*- C++ -*----------------------------------*\
| =========                 |                                                 |
| \\      /  F ield         | OpenFOAM: The Open Source CFD Toolbox           |
|  \\    /   O peration     | Version:  2.4.0                                 |
|   \\  /    A nd           | Web:      www.OpenFOAM.org                      |
|    \\/     M anipulation  |                                                 |
\*---------------------------------------------------------------------------*/
FoamFile
{
    version     2.0;
    format      ascii;
    class       volScalarField;
    location    "1.74";
    object      p;
}
// * * * * * * * * * * * * * * * * * * * * * * * * * * * * * * * * * * * * * //

dimensions      [0 2 -2 0 0 0 0];

internalField   nonuniform List<scalar> 
8800
(
58.9053
46.5424
39.147
35.6225
33.7141
32.3396
31.1303
30.019
29.0018
28.0617
27.0813
26.1571
25.3135
24.3932
23.5387
22.8325
21.9701
21.3215
20.6443
19.9484
55.795
46.1871
39.3166
35.7372
33.7737
32.3646
31.1384
30.0188
28.9993
28.0606
27.0789
26.1516
25.3148
24.3907
23.5344
22.836
21.9711
21.3109
20.6429
19.854
53.8302
46.2611
39.9225
36.112
33.9422
32.4423
31.1846
30.0508
29.0235
28.0783
27.0893
26.1543
25.3192
24.3868
23.5322
22.8359
21.9787
21.3021
20.6557
19.8065
52.2952
46.3168
40.5147
36.5358
34.1282
32.5262
31.2469
30.1057
29.0747
28.1139
27.1197
26.17
25.3318
24.385
23.5407
22.8293
22.0003
21.3223
20.7782
19.7832
51.043
46.289
40.9988
36.9419
34.3007
32.5865
31.2978
30.16
29.1336
28.1605
27.159
26.1985
25.3447
24.3873
23.5501
22.8176
22.0216
21.3648
20.8861
19.7572
50.0556
46.1893
41.3723
37.2896
34.456
32.6251
31.3278
30.2033
29.1894
28.201
27.2072
26.2204
25.3563
24.3916
23.5562
22.7977
22.0273
21.3771
20.9739
19.8162
49.2994
46.0753
41.646
37.5693
34.5988
32.6452
31.3421
30.2315
29.2351
28.2386
27.2433
26.2479
25.3559
24.3995
23.5499
22.7764
22.0088
21.3394
21.0149
20.231
48.7446
45.9782
41.8239
37.7863
34.7199
32.6702
31.3263
30.2625
29.2596
28.2698
27.2694
26.271
25.3519
24.4099
23.5254
22.7658
21.9551
21.2677
20.726
20.7202
48.3836
45.9094
41.9324
37.9331
34.8111
32.6837
31.3159
30.282
29.2787
28.2894
27.2868
26.2877
25.3464
24.4139
23.5186
22.7404
21.9178
21.2223
20.76
21.2272
48.2082
45.8704
41.9832
38.0092
34.8584
32.6912
31.3077
30.2917
29.2891
28.2965
27.298
26.2868
25.3467
24.4155
23.5126
22.7161
21.9005
21.1993
20.8039
21.3271
48.2031
45.877
41.9776
38.0128
34.8593
32.6928
31.3031
30.2946
29.2873
28.2954
27.2994
26.2891
25.3287
24.4171
23.5099
22.6989
21.893
21.1949
20.8013
21.445
48.3775
45.9196
41.9213
37.9397
34.8167
32.6859
31.3095
30.2894
29.2751
28.2791
27.2971
26.2837
25.3224
24.4197
23.5093
22.6911
21.8915
21.1918
20.8046
21.4811
48.7313
45.9977
41.8043
37.7951
34.73
32.6735
31.3168
30.2788
29.2505
28.255
27.2831
26.2735
25.3128
24.4212
23.5169
22.6865
21.8986
21.1991
20.7797
21.4526
49.2819
46.0981
41.6195
37.5805
34.606
32.6531
31.322
30.2582
29.218
28.2189
27.2617
26.2581
25.2977
24.4271
23.5232
22.6923
21.9173
21.2107
20.7538
21.3416
50.0393
46.21
41.3503
37.2969
34.467
32.6211
31.3167
30.2289
29.1741
28.174
27.2355
26.2317
25.2812
24.4293
23.5319
22.7018
21.9429
21.2403
20.7296
21.1378
51.0242
46.3059
40.9824
36.9472
34.315
32.5733
31.2924
30.1888
29.1207
28.1189
27.2036
26.2049
25.2625
24.4265
23.5433
22.7083
21.9815
21.2809
20.7402
20.8698
52.2742
46.3326
40.504
36.5404
34.1471
32.5035
31.2452
30.1383
29.0628
28.0627
27.172
26.1778
25.2446
24.4208
23.554
22.7148
22.0191
21.3227
20.7897
20.5804
53.8116
46.2698
39.9165
36.1157
33.9643
32.4153
31.1839
30.0847
29.0142
28.0211
27.1451
26.16
25.2363
24.4152
23.562
22.7229
22.0458
21.356
20.8466
20.4327
55.7787
46.192
39.3134
35.739
33.7976
32.3371
31.1375
30.0519
28.9907
28.0044
27.1325
26.1559
25.2375
24.4145
23.5675
22.7326
22.0575
21.3758
20.8393
20.3432
58.8933
46.5454
39.144
35.6252
33.7374
32.3124
31.131
30.0494
28.993
28.0096
27.1324
26.1577
25.2434
24.4145
23.5696
22.7377
22.0593
21.3808
20.8415
20.468
20.0848
20.0396
19.8439
19.6173
19.3884
19.1478
18.8575
18.4871
18.0719
17.6448
17.2253
16.8403
16.4736
16.1029
15.7566
15.4703
15.3736
15.5148
15.8917
16.5666
17.5898
18.8787
20.3651
21.9429
23.4642
24.8067
25.8289
26.3913
26.285
25.5954
24.2549
22.4004
20.3013
18.1762
16.1054
14.1144
12.2406
10.628
9.33204
8.5225
8.15302
8.27577
8.66378
9.23756
9.85913
10.3724
10.8625
11.4008
11.9127
12.4678
13.1425
13.8412
14.5582
15.497
16.5496
17.5922
18.7261
19.947
21.1986
22.2821
23.4787
24.7078
25.5965
26.4733
27.2555
27.9112
28.4933
28.8035
28.9683
28.9786
28.8707
28.371
27.4844
26.5372
25.0773
23.3776
21.6853
19.6201
17.5873
15.6433
13.6756
11.8799
10.105
8.50917
7.11428
5.72239
4.56123
3.74858
3.23819
3.04302
3.33312
3.94109
5.06101
7.07876
9.5192
12.3369
15.7969
19.4533
23.1809
27.1662
30.9053
34.2238
37.3642
40.1734
42.5867
44.6694
46.2622
47.2392
47.3976
46.7717
45.4293
43.2959
40.256
36.3325
31.4134
25.3961
18.5758
11.216
3.81884
-3.14332
-9.42464
-14.9236
-19.6262
-23.5317
-26.5811
-28.8556
-30.3787
-30.8732
-30.2956
-28.9055
-26.6488
-23.6198
-20.4063
-17.134
-13.7692
-10.4718
-7.13024
-3.8501
-0.814902
2.25598
5.41232
8.3679
11.2667
14.2717
17.1008
19.8385
22.3904
24.698
26.797
28.7212
30.2842
31.5371
32.6756
33.8001
34.8581
35.9262
37.0224
38.1059
39.1171
40.2888
41.1778
42.0472
42.8372
43.4365
43.9119
44.3182
44.8031
45.025
45.1356
45.356
45.629
45.7123
45.5808
45.4701
45.2846
44.9614
44.6155
44.285
43.8165
43.386
42.8143
42.0002
41.0779
39.914
38.5913
36.8024
35.0347
32.6837
30.309
27.6817
24.5807
21.8211
18.7012
16.4999
15.4698
15.1202
16.0061
17.7434
19.2455
20.2888
19.7682
19.7375
19.6709
19.5429
19.3518
19.1161
18.8355
18.4587
18.0479
17.6302
17.2116
16.8266
16.468
16.1035
15.8101
15.6333
15.6197
15.8562
16.3316
17.0578
18.0709
19.2863
20.678
22.1322
23.493
24.6976
25.5917
26.0435
25.9613
25.2866
24.0475
22.3504
20.359
18.2947
16.2799
14.3393
12.5107
10.9301
9.68901
8.76549
8.50204
8.61844
8.98499
9.47636
10.0349
10.5561
11.0696
11.6893
12.2549
12.7538
13.4783
14.2557
14.9414
15.8896
16.9248
17.8867
18.9576
20.0942
21.2738
22.3266
23.4188
24.567
25.415
26.2065
26.9939
27.5935
28.0275
28.3438
28.5199
28.4321
28.314
27.8968
27.0402
26.1292
24.883
23.3572
21.8329
20.1004
18.2374
16.4915
14.6967
12.9285
11.3701
9.93225
8.61342
7.3901
6.25684
5.34712
4.72339
4.42576
4.74682
5.38682
6.28177
8.06085
10.3966
13.0809
16.3865
20.0022
23.7503
27.6615
31.4711
34.9968
38.2758
41.2823
43.9053
46.0298
47.6677
48.7026
48.8776
48.1417
46.6702
44.4731
41.4276
37.4125
32.0984
25.5831
18.0429
10.0347
2.04941
-5.41211
-11.9994
-17.7196
-22.4565
-26.161
-28.964
-30.993
-32.3127
-32.6911
-32.2327
-31.1188
-28.8701
-25.9077
-22.7384
-19.3266
-15.8426
-12.42
-8.84029
-5.5654
-2.18792
1.29084
4.64934
7.95772
11.3779
14.8094
18.0906
21.2338
24.2147
26.9953
29.4204
31.5524
33.3911
34.8451
36.1944
37.3195
38.1998
39.097
39.9726
40.7652
41.5333
42.1302
42.781
43.0932
43.6714
43.9406
44.2744
44.5096
44.9327
45.1273
45.1656
45.2971
45.5123
45.4776
45.4401
45.3259
45.2074
44.9232
44.619
44.2079
43.8609
43.2312
42.788
42.1347
41.2989
40.0982
38.8916
37.1983
35.4443
33.2049
30.7956
28.3121
25.6228
22.8028
19.6954
17.508
16.2311
15.5911
15.8735
16.8709
17.4789
17.9284
19.8054
19.7456
19.6089
19.5011
19.3374
19.1009
18.8028
18.4116
18.0125
17.6164
17.2234
16.8742
16.5591
16.2775
16.0722
15.9857
16.0291
16.3099
16.8212
17.5244
18.4881
19.5923
20.8383
22.1613
23.3348
24.3731
25.1406
25.4739
25.3599
24.7404
23.5744
22.0461
20.2498
18.2735
16.3644
14.5389
12.7893
11.3361
10.2299
9.45085
9.13841
9.23328
9.53944
9.94447
10.4763
11.0104
11.504
12.1232
12.7462
13.2372
13.9439
14.8152
15.4862
16.2872
17.2788
18.2217
19.2179
20.2488
21.3257
22.3877
23.3294
24.2803
25.1919
25.9054
26.5295
27.1496
27.5455
27.7687
27.9648
27.9174
27.7454
27.3953
26.6843
25.8324
24.7745
23.4601
22.1057
20.6224
18.9708
17.4631
15.921
14.2877
12.8031
11.4119
10.0631
8.82682
7.81111
6.9402
6.12092
5.6102
5.71546
6.20005
7.06325
8.5651
10.5524
13.1888
16.4346
20.0282
23.9312
27.8986
31.8996
35.7268
39.134
42.2308
44.9264
47.1026
48.7778
49.7764
49.9259
49.0702
47.483
45.2875
42.252
38.0772
32.4019
25.509
17.5609
9.16501
0.798093
-6.99579
-13.9073
-19.9156
-24.8399
-28.6081
-31.2672
-32.9551
-33.8596
-34.0763
-33.6474
-32.4325
-30.2745
-27.4932
-24.4904
-21.057
-17.5185
-14.0425
-10.4836
-6.96606
-3.41182
0.412611
3.9561
7.54009
11.4171
15.2528
18.9426
22.5821
26.0637
29.2105
31.882
34.2956
36.4254
37.937
39.1769
40.257
41.206
41.9073
42.5431
43.0686
43.5318
43.7665
44.0868
44.3025
44.467
44.6037
44.7228
44.9912
45.1924
45.2355
45.2689
45.2989
45.4607
45.4344
45.4314
45.3209
45.2445
44.883
44.6272
44.104
43.7038
43.22
42.8716
42.1223
41.3908
40.301
39.1661
37.4452
35.695
33.6918
31.2307
29.0874
26.3491
23.7087
20.9725
18.5902
17.3297
16.3004
15.6908
16.2866
16.6023
16.513
19.0908
19.1874
19.5743
19.762
19.6441
19.3069
18.8741
18.3776
17.9569
17.5944
17.2625
17.0053
16.7877
16.5905
16.4544
16.4251
16.5006
16.7988
17.2952
17.9405
18.8332
19.8164
20.903
22.0574
23.0374
23.907
24.5129
24.7293
24.6125
24.0398
22.9971
21.6517
20.0716
18.2726
16.526
14.888
13.3249
12.0111
11.0618
10.3607
10.0552
10.0971
10.3453
10.7196
11.1694
11.6891
12.1873
12.6864
13.3638
13.9641
14.5278
15.3753
16.1125
16.7393
17.6693
18.6286
19.4508
20.3855
21.3848
22.3325
23.1939
24.0286
24.9356
25.593
26.075
26.6858
27.0911
27.2529
27.4384
27.451
27.2659
26.9496
26.3437
25.6923
24.8198
23.656
22.5483
21.1644
19.6882
18.4375
17.0501
15.622
14.2845
12.8909
11.5123
10.1894
9.0013
8.14505
7.36621
6.5445
6.25103
6.43045
7.12829
8.49582
10.2559
12.8173
16.0421
19.6374
23.7124
27.8587
32.0465
36.1156
39.709
42.8663
45.4905
47.7015
49.4261
50.2924
50.1623
49.1946
47.5864
45.3488
42.1878
37.8841
32.2126
25.211
17.0827
8.46407
-0.159276
-8.04886
-15.1544
-21.2882
-26.3532
-30.2791
-32.9609
-34.5152
-35.2044
-35.175
-34.4634
-33.0686
-31.0243
-28.5421
-25.5425
-22.1763
-18.8346
-15.2868
-11.7582
-8.17059
-4.38745
-0.620309
3.26279
7.22631
11.3834
15.6092
19.7479
23.878
27.7103
31.2786
34.3852
36.8662
39.0997
40.6746
41.9424
43.0301
43.6967
44.2971
44.6203
44.9383
45.0964
45.2244
45.2617
45.3135
45.2945
45.1947
45.2462
45.2892
45.4746
45.4106
45.4881
45.4197
45.597
45.4622
45.4903
45.2612
45.2508
44.926
44.6908
44.14
43.6853
43.1952
42.7635
42.1205
41.4807
40.4048
39.2899
37.7806
36.0583
34.161
31.5803
29.6526
27.3635
24.8849
22.2746
19.821
18.3895
17.1077
15.9406
16.1199
16.1002
15.7599
18.7658
19.0416
19.8087
20.1615
20.0197
19.4894
18.8795
18.3098
17.8724
17.5626
17.3456
17.1791
17.0498
16.9474
16.872
16.8915
17.0067
17.2919
17.7572
18.3344
19.0964
19.9611
20.8842
21.8229
22.6421
23.3354
23.751
23.9082
23.7881
23.2554
22.4051
21.2404
19.8642
18.3739
16.8375
15.4095
14.143
13.0234
12.0942
11.5085
11.232
11.2068
11.3897
11.7336
12.1025
12.5359
13.0023
13.4528
14.1097
14.7192
15.1869
15.9642
16.731
17.2553
18.074
18.9651
19.6513
20.5157
21.4032
22.2376
23.1034
23.8551
24.6348
25.2958
25.7369
26.2449
26.6786
26.8375
26.9729
27.065
26.9395
26.6217
26.1213
25.6295
24.9039
23.9077
23.0059
21.8662
20.5423
19.3739
18.1002
16.6929
15.4809
14.3003
12.9074
11.4824
10.0891
8.92024
8.05051
7.18413
6.57292
6.37077
6.72238
7.86763
9.54566
11.9476
15.1043
18.8064
22.9068
27.2719
31.8646
36.0542
39.7602
43.0448
45.5573
47.6221
49.2834
49.9372
49.4464
48.3704
46.5797
44.1558
41.06
36.8803
31.4176
24.5129
16.4085
7.87851
-1.04028
-8.9441
-16.021
-22.0917
-27.1941
-31.0962
-33.8679
-35.4753
-36.0628
-35.8384
-34.8475
-33.3515
-31.3683
-28.8546
-25.9079
-22.8745
-19.715
-16.2034
-12.7124
-9.18311
-5.20861
-1.39976
2.71722
6.96278
11.3119
15.8629
20.5298
25.2431
29.376
33.1868
36.7563
39.2442
41.5104
43.3594
44.3187
45.3677
45.7944
46.246
46.574
46.3894
46.5437
46.2647
46.427
46.0531
46.1791
45.8695
45.9158
45.7899
45.9199
45.6734
45.7362
45.6461
45.7556
45.5999
45.5535
45.2896
45.2988
45.0279
44.7112
44.2897
43.7754
43.2709
42.8717
42.1391
41.3648
40.4405
39.4381
38.1016
36.201
34.6199
32.2004
30.2781
28.3234
25.8789
23.572
21.164
19.5133
18.1449
16.5433
16.314
16.2561
15.8195
18.7466
19.1783
20.0641
20.3884
20.1961
19.5368
18.8278
18.2797
17.8628
17.6033
17.5254
17.4205
17.3376
17.3591
17.3174
17.3624
17.499
17.7044
18.1473
18.6588
19.278
20.0521
20.7998
21.5425
22.222
22.7572
23.058
23.1663
23.0458
22.5835
21.8679
20.8769
19.7431
18.5503
17.2413
16.0622
15.0205
14.0231
13.2501
12.7416
12.5185
12.4708
12.5381
12.8524
13.1762
13.4693
13.8871
14.3412
14.8624
15.4082
15.8882
16.5467
17.2674
17.7427
18.4309
19.2532
19.8362
20.6287
21.4452
22.1727
23.007
23.7104
24.3412
25.0151
25.5081
25.8657
26.3075
26.563
26.629
26.7468
26.7328
26.4253
26.068
25.7036
25.0197
24.1674
23.4439
22.5246
21.4025
20.3495
19.1392
17.8103
16.5507
15.3675
14.1149
12.6773
11.1505
9.65126
8.389
7.33964
6.50468
6.05414
6.08696
6.76554
8.25665
10.5642
13.5137
17.2679
21.6046
26.15
30.9753
35.4192
39.2811
42.5747
44.8785
46.7705
48.2315
48.5639
47.8988
46.3457
44.2705
41.8127
38.6858
34.598
29.3474
22.795
15.0885
6.85519
-1.57178
-9.4141
-16.3436
-22.3528
-27.3384
-31.2307
-34.0831
-35.7146
-36.281
-36.0138
-34.8827
-33.2781
-31.1884
-28.6959
-26.0271
-23.2407
-20.1456
-16.7549
-13.5082
-9.95993
-5.99863
-1.91652
2.25871
6.8559
11.3633
16.2144
21.2961
26.3329
31.0641
35.0491
38.8703
41.9284
43.8723
45.8908
46.5751
47.0661
47.9228
47.4806
48.3225
47.3451
47.8404
47.1036
47.2746
46.72
46.7695
46.6276
46.3655
46.289
46.1301
45.9928
45.8528
45.8095
45.8261
45.7034
45.5468
45.4316
45.2912
45.0985
44.8331
44.4513
43.8934
43.431
42.8857
42.0421
41.3264
40.4957
39.4738
38.3441
36.4932
35.1199
32.8978
30.7797
29.1829
26.9563
24.8169
22.4828
20.5572
19.308
17.7106
17.1318
16.8636
16.2307
19.365
19.5749
19.9734
19.955
19.6872
19.1452
18.6163
18.2844
17.9595
17.773
17.8011
17.7258
17.6506
17.7369
17.7022
17.7553
17.9148
18.0428
18.4599
18.9226
19.3965
20.0724
20.6709
21.2565
21.8478
22.2577
22.4923
22.5571
22.4233
22.0593
21.4171
20.6043
19.7231
18.7309
17.665
16.7193
15.812
14.9919
14.3787
13.8989
13.7424
13.7029
13.6276
13.9268
14.2264
14.3481
14.7529
15.1889
15.5453
16.0673
16.5521
17.0621
17.725
18.2087
18.7356
19.508
20.0683
20.7167
21.5075
22.1509
22.8829
23.5804
24.1361
24.773
25.3136
25.5904
26.0039
26.3736
26.4075
26.4603
26.5664
26.3788
26.0391
25.7911
25.31
24.5394
23.8817
23.0949
22.1197
21.2609
20.2392
19.0665
17.7721
16.4435
15.1674
13.6842
12.093
10.4888
8.83156
7.19876
5.97881
5.23714
4.89844
5.18796
6.32446
8.45365
11.428
15.1741
19.558
24.4984
29.5125
34.0964
38.0581
41.2062
43.4786
45.1878
46.3072
46.1767
45.0016
43.1348
40.8543
38.0506
34.7188
30.6931
25.8202
19.8859
13.0917
5.68502
-2.02238
-9.43406
-16.1083
-21.8996
-26.747
-30.593
-33.4799
-35.1213
-35.7968
-35.5961
-34.4437
-32.7394
-30.6468
-28.2595
-25.7955
-23.1664
-20.223
-17.264
-14.1298
-10.6303
-6.44103
-2.39656
1.939
6.83237
11.594
16.5459
22.2179
27.2808
32.5259
37.3151
40.8245
44.0727
46.1658
47.4828
49.0544
48.4256
49.9648
49.2025
49.9629
49.2456
48.9532
48.3944
47.9453
47.66
47.0954
46.9174
46.511
46.4343
46.1722
46.0545
45.8581
45.7836
45.7871
45.6658
45.5088
45.4498
45.2028
45.152
44.8502
44.4946
44.0181
43.5405
42.8998
42.0724
41.2726
40.5119
39.5315
38.462
36.7281
35.5489
33.7196
31.4259
30.0626
28.0137
25.9253
23.7773
21.8066
20.5996
18.8885
17.963
17.5769
16.866
21.8164
21.4385
20.1364
19.0573
18.4923
18.1403
17.9527
18.0353
18.0344
18.0032
18.1107
18.0501
17.9867
18.0662
18.0323
18.108
18.2502
18.3154
18.6844
19.0976
19.4683
20.0567
20.5438
21.0113
21.538
21.8356
22.0131
22.084
21.9377
21.6607
21.1224
20.4444
19.7727
18.9442
18.0555
17.2575
16.5355
15.8644
15.3814
14.9497
14.8151
14.7678
14.6337
14.9022
15.161
15.1963
15.5582
15.9395
16.1977
16.6904
17.1127
17.5344
18.1736
18.6009
19.0378
19.758
20.2875
20.8094
21.5577
22.1758
22.7787
23.475
24.0296
24.5503
25.0927
25.4281
25.7471
26.1345
26.2649
26.3019
26.4576
26.3944
26.077
25.8965
25.6011
25.0015
24.434
23.7216
22.9213
22.1074
21.1538
20.243
19.1194
17.7845
16.3594
14.6762
12.904
11.1319
9.3126
7.16421
5.15569
4.00124
3.26808
3.05534
3.86022
5.73546
8.60602
12.5655
17.1048
22.0631
27.3451
32.1473
36.151
39.2051
41.452
43.0115
43.453
42.8033
41.2789
39.0273
36.1867
33.0226
29.482
25.4921
21.0802
15.9999
10.4272
4.20266
-2.44415
-9.13724
-15.2972
-20.7287
-25.4647
-29.2705
-32.0641
-33.7415
-34.5493
-34.4262
-33.3724
-31.7184
-29.7317
-27.4791
-25.1942
-22.7488
-20.1586
-17.5368
-14.553
-10.9632
-6.9748
-2.70282
1.76579
7.03184
11.8856
16.9114
23.228
28.712
33.6784
39.2068
43.1069
46.0027
49.2045
49.178
51.4006
50.6592
51.3444
51.3209
51.1794
51.046
50.0682
49.4741
48.7327
48.3514
47.5626
46.8348
46.4543
46.2212
46.0324
45.8941
45.6961
45.6021
45.4931
45.4202
45.3487
45.3846
45.1773
45.1953
44.9095
44.4476
44.1016
43.7105
42.947
42.1553
41.2685
40.5842
39.6869
38.4786
36.9882
36.0123
34.3816
32.1087
30.995
29.0417
26.8598
24.9944
23.0913
21.7268
20.1104
19.0364
18.4766
17.6907
22.5967
22.0381
20.1735
18.6393
17.8698
17.6118
17.6583
17.9895
18.1499
18.2284
18.4043
18.3878
18.3258
18.3643
18.3343
18.4007
18.5101
18.5437
18.8414
19.2142
19.5291
20.0059
20.4286
20.8171
21.2757
21.5263
21.6738
21.7454
21.5952
21.3736
20.9366
20.3705
19.852
19.1504
18.3564
17.8019
17.2089
16.6371
16.2658
15.8932
15.7456
15.7
15.5715
15.7605
15.9709
16.0042
16.267
16.6167
16.8706
17.2271
17.658
18.0384
18.5558
18.9629
19.3614
19.9819
20.4722
20.9385
21.5853
22.2289
22.7077
23.3578
23.9476
24.3764
24.9065
25.3202
25.5811
25.9056
26.1724
26.2298
26.3525
26.4261
26.2233
26.0511
25.8893
25.4412
24.9973
24.4822
23.8256
23.0806
22.147
21.2723
20.3474
19.212
17.7957
15.9109
13.6997
11.6392
9.5434
7.0431
4.52563
2.58963
1.31792
0.753672
1.13669
2.64211
5.35389
9.27555
14.1701
19.3931
24.6294
29.5511
33.6795
36.7915
38.8738
40.0514
40.0706
39.0694
37.0754
34.2961
30.9179
27.2305
23.4455
19.4509
15.3823
11.1787
6.90222
2.26637
-2.97196
-8.48442
-13.8051
-18.8366
-23.3522
-27.079
-29.8014
-31.5631
-32.5146
-32.5118
-31.6817
-30.1469
-28.3832
-26.3471
-24.3082
-22.1509
-19.8497
-17.5577
-14.7374
-11.1651
-7.36973
-2.85791
2.02672
7.03019
12.4809
17.757
23.7897
30.2996
35.4459
40.7534
45.5292
47.7219
51.948
51.7591
53.1372
53.1625
52.578
52.9606
52.8937
52.2299
51.1297
50.3663
49.6991
49.0663
48.1548
47.2107
46.8085
46.3587
46.1286
46.0136
45.6486
45.5843
45.3108
45.2234
45.2103
45.2674
45.2392
45.3596
45.0835
44.4723
44.2963
43.8609
42.8372
42.3358
41.5088
40.7942
39.9704
38.5728
37.3729
36.4287
34.7628
32.8407
31.8007
29.8437
27.8563
26.326
24.4537
22.9728
21.5128
20.2969
19.5218
18.6633
22.8861
22.4138
20.4614
18.7251
17.7699
17.435
17.4726
17.9045
18.2078
18.3704
18.6149
18.6635
18.6088
18.6231
18.5839
18.6323
18.7254
18.7399
18.9662
19.3039
19.5604
19.9566
20.3494
20.6579
21.041
21.2638
21.399
21.475
21.3442
21.1693
20.8318
20.3518
19.9467
19.3823
18.7327
18.3246
17.8347
17.3362
17.0426
16.7355
16.5517
16.528
16.4341
16.5419
16.7321
16.769
16.9619
17.2493
17.4975
17.7352
18.1561
18.5314
18.8853
19.3053
19.6899
20.1766
20.5997
21.0963
21.6257
22.2307
22.7151
23.2551
23.8544
24.24
24.7418
25.1754
25.4761
25.7753
26.1086
26.2523
26.3095
26.4704
26.4231
26.2851
26.2034
25.9011
25.5351
25.1878
24.7112
24.1237
23.2822
22.3835
21.5597
20.5248
19.2082
17.4077
14.8554
12.3371
9.79716
6.73793
3.94104
1.41651
-0.575132
-1.47296
-1.42967
-0.268982
2.33904
6.12673
10.9294
16.4094
21.8933
26.8203
30.8443
33.7788
35.7949
36.8298
36.6034
35.2151
32.7645
29.5532
25.7392
21.5927
17.4023
13.2805
9.37702
5.9531
2.94708
0.0235999
-3.41532
-7.34892
-11.7171
-16.2328
-20.383
-23.9212
-26.6548
-28.6559
-29.7596
-29.8867
-29.2626
-28.1333
-26.6339
-24.9313
-23.1844
-21.3176
-19.3438
-17.4376
-14.7141
-11.1808
-7.41834
-2.7191
2.42182
7.1803
13.2153
18.8362
24.3555
31.9042
37.7587
41.8236
48.2599
50.3355
53.4089
54.2364
54.2987
54.0284
53.6196
54.2458
54.2886
53.0165
52.0146
51.0745
50.3243
49.8133
48.7497
47.7788
47.2248
46.6105
46.4892
46.1799
45.8419
45.8405
45.43
45.3985
45.378
45.3288
45.4192
45.5782
45.1951
44.5217
44.581
44.001
42.8394
42.6084
41.7906
41.0801
40.2363
38.7559
37.95
36.8499
34.9663
33.5639
32.5269
30.5476
28.8811
27.5763
25.8049
24.3352
22.9413
21.5765
20.5967
19.6906
23.0997
22.6439
20.6748
18.8393
17.7452
17.3506
17.3748
17.8334
18.2575
18.4671
18.7564
18.8881
18.842
18.8403
18.7907
18.8218
18.9048
18.8927
19.0821
19.3743
19.5712
19.9167
20.2737
20.5269
20.846
21.0599
21.1918
21.2799
21.1556
21.0251
20.7866
20.38
20.0794
19.6475
19.1154
18.8002
18.3953
17.9691
17.7475
17.4939
17.331
17.3198
17.2368
17.2962
17.4511
17.4588
17.6249
17.8787
18.0584
18.2705
18.6175
18.945
19.1935
19.6135
19.9726
20.3438
20.7855
21.2245
21.6684
22.2108
22.737
23.1708
23.7604
24.1864
24.6032
25.0549
25.3769
25.6982
26.0389
26.2601
26.3695
26.5811
26.6131
26.5425
26.5416
26.4132
26.1448
25.838
25.5175
25.0521
24.3849
23.587
22.8102
21.796
20.4762
18.7079
16.1718
13.4348
10.331
6.64722
3.3964
0.56737
-1.76878
-3.01191
-3.32541
-2.47603
-0.0466477
3.77711
8.5295
13.8302
19.1678
24.0107
27.9532
30.8408
32.8044
33.6943
33.3091
31.569
28.8474
25.301
21.2321
16.7652
12.3818
8.05567
4.31638
1.45872
-0.484381
-1.79017
-3.30568
-5.68012
-8.96171
-12.7542
-16.6066
-20.0759
-22.9294
-25.0661
-26.2529
-26.5815
-26.3457
-25.6322
-24.515
-23.2707
-21.8309
-20.2817
-18.6636
-17.0579
-14.433
-10.8613
-7.24969
-2.35627
3.02342
7.57934
14.1179
20.2413
24.5331
32.792
40.2474
43.3181
51.4605
54.1202
55.0544
55.6021
55.3046
53.7507
53.8732
54.2507
53.9467
53.3644
52.3653
51.5622
50.8245
50.3356
49.1927
48.5989
47.7402
47.0351
46.8206
46.2826
46.1143
46.0986
45.7115
45.7998
45.6709
45.5591
45.6349
45.639
45.0885
44.6698
44.8655
43.9573
42.9609
42.8327
42.0242
41.4116
40.3725
39.0586
38.6135
37.1737
35.2626
34.3371
33.1849
31.3007
29.896
28.6298
26.8789
25.3972
24.0917
22.7184
21.6025
20.662
23.2099
22.7274
20.7311
18.9157
17.7736
17.3685
17.4233
17.8671
18.3523
18.5959
18.8775
19.0719
19.0276
19.0157
18.9658
18.9734
19.0622
19.0075
19.1784
19.452
19.5669
19.883
20.2226
20.4125
20.6958
20.8878
21.0073
21.1398
21.0256
20.9248
20.8009
20.4651
20.2278
19.9346
19.4841
19.2351
18.9386
18.5728
18.421
18.2181
18.0732
18.0462
17.9803
18.0287
18.1159
18.1402
18.2628
18.4493
18.5773
18.7779
19.0342
19.3137
19.5671
19.8617
20.215
20.533
20.9391
21.3264
21.7542
22.2334
22.7069
23.1354
23.6337
24.1378
24.4888
24.9603
25.3449
25.6219
25.9998
26.2781
26.4736
26.6939
26.8008
26.8089
26.8778
26.8805
26.7047
26.4885
26.2735
25.842
25.2172
24.5702
23.9889
23.1579
21.7004
19.6924
17.1716
14.4227
11.1709
7.12922
3.24643
0.0219167
-2.4818
-3.89999
-4.20216
-3.37351
-1.30703
2.19947
6.82726
12.0513
17.2273
21.8614
25.5854
28.3052
30.182
30.9587
30.4278
28.4748
25.6009
21.9031
17.8342
13.4583
9.04792
4.79575
1.31602
-1.08791
-2.32919
-2.4694
-2.49679
-3.28329
-5.18135
-8.29284
-11.9612
-15.4308
-18.4041
-20.6373
-22.0448
-22.7657
-22.9962
-22.7423
-22.1189
-21.2968
-20.243
-19.0774
-17.7693
-16.3165
-13.8685
-10.2867
-6.75584
-1.61357
4.00052
8.09606
15.0356
21.7298
25.2934
33.0722
42.4719
46.4821
53.2647
56.07
55.8568
54.9298
56.1461
52.3937
54.4278
54.3806
54.7319
53.9359
53.0993
52.0863
51.3907
50.8478
49.5994
49.2522
48.11
47.6367
47.184
46.495
46.5533
46.4812
46.0327
46.1582
45.9718
45.7977
45.8372
45.5691
44.887
44.8436
44.7154
43.6183
43.2335
43.0006
42.1019
41.6128
40.5012
39.5515
39.1402
37.4376
35.9247
35.2583
33.8768
32.0899
30.7975
29.464
27.694
26.2287
25.0031
23.6627
22.4522
21.438
23.2132
22.6897
20.6902
18.9737
17.86
17.4899
17.5983
17.9998
18.5012
18.7538
19.0005
19.2187
19.1708
19.142
19.1009
19.0874
19.1689
19.1199
19.2504
19.5122
19.5869
19.8453
20.1779
20.3258
20.5693
20.7505
20.8651
21.0253
20.9478
20.8711
20.8287
20.5926
20.4005
20.2037
19.8853
19.6707
19.4652
19.1915
19.0447
18.9005
18.7704
18.7377
18.6929
18.7174
18.7456
18.7853
18.8577
18.9743
19.1024
19.2226
19.4445
19.6635
19.8977
20.1284
20.4384
20.7357
21.0502
21.4294
21.8091
22.265
22.6607
23.1145
23.5693
24.0228
24.4378
24.8635
25.32
25.5984
25.989
26.3288
26.5176
26.7591
26.9489
27.0867
27.1767
27.2264
27.1622
27.0213
26.8701
26.4575
25.7677
25.122
24.6572
24.0604
22.7724
20.7228
18.1702
15.2253
11.707
7.57588
3.41349
-0.138709
-2.71981
-4.14238
-4.40951
-3.72711
-1.68809
1.77166
6.25465
11.2651
16.2383
20.606
24.0061
26.5451
28.3675
29.0758
28.3386
26.2326
23.1854
19.5315
15.5843
11.5208
7.46385
3.6194
0.643542
-1.33708
-2.15965
-1.56154
-0.545688
0.188539
-0.378697
-2.82172
-6.22299
-9.74101
-12.918
-15.4744
-17.3786
-18.5944
-19.2555
-19.4979
-19.3927
-18.984
-18.3325
-17.503
-16.5373
-15.197
-12.8171
-9.43885
-5.64594
-0.456153
5.21134
9.08104
16.1179
23.6594
26.0623
33.4205
44.3164
50.6806
54.0749
54.4547
54.3829
50.7139
55.0331
50.9178
54.6488
54.2628
54.8123
54.2185
53.5834
52.5988
52.0407
51.3253
50.1951
49.817
48.6184
48.2533
47.5425
46.9155
47.0532
46.7951
46.3714
46.5012
46.2453
45.9978
46.0914
45.6053
44.8714
45.0521
44.4393
43.4522
43.5758
42.9783
42.125
41.7065
40.7202
40.1376
39.3625
37.7555
36.8351
36.0925
34.5935
32.904
31.6113
30.2716
28.526
27.0615
25.8497
24.5002
23.1954
22.1171
23.0152
22.4841
20.5779
19.0152
18.0256
17.7325
17.8954
18.2632
18.6949
18.9417
19.133
19.2985
19.2753
19.2313
19.1971
19.1852
19.2365
19.2141
19.3202
19.5357
19.6194
19.8283
20.1143
20.2672
20.4608
20.6388
20.7665
20.9181
20.9046
20.8579
20.8733
20.7369
20.5982
20.4809
20.2793
20.1032
19.9624
19.788
19.6383
19.5565
19.4476
19.3912
19.3627
19.3519
19.3645
19.3909
19.4404
19.4848
19.5861
19.6585
19.816
20.0029
20.1691
20.3827
20.6336
20.9042
21.1548
21.5254
21.8678
22.2563
22.685
23.0746
23.5263
23.942
24.3667
24.7729
25.201
25.589
25.9702
26.3648
26.6134
26.8592
27.0226
27.1404
27.2995
27.3422
27.3428
27.3326
27.2085
26.7993
26.1394
25.4764
24.9557
24.3619
23.2152
21.3706
18.9696
16.0265
12.318
7.93114
3.52923
-0.204504
-2.75313
-3.95434
-3.95249
-3.05469
-1.04825
2.29092
6.69771
11.578
16.3246
20.3479
23.4533
25.8936
27.6041
28.1243
27.1277
24.8381
21.6611
18.1183
14.3683
10.647
6.98298
3.90329
1.54198
0.0255706
-0.30434
0.756349
2.6314
4.46896
5.02439
3.55778
0.532017
-3.19139
-6.82333
-9.95889
-12.3707
-14.0096
-15.1452
-15.9202
-16.2629
-16.2806
-16.0378
-15.4798
-14.7763
-13.5666
-11.2902
-8.02651
-4.00488
1.2129
6.60659
11.0749
17.9936
25.2808
27.3939
34.0674
44.856
50.3293
50.707
47.9123
49.964
47.1626
53.8587
52.3255
55.108
54.9249
55.3795
54.731
54.0539
53.0954
52.4302
51.601
50.7124
50.1477
49.0543
48.7914
47.9739
47.5973
47.586
46.9785
46.7265
46.7989
46.4703
46.3196
46.4471
45.8134
45.1329
45.2961
44.3803
43.6038
43.657
42.8395
42.3338
41.7721
40.9321
40.5731
39.4002
38.159
37.6231
36.7039
35.2745
33.6568
32.3871
31.1461
29.4457
27.9415
26.6956
25.2759
23.8857
22.7832
22.5544
22.0671
20.4259
19.1211
18.343
18.1402
18.3107
18.6078
18.9164
19.1196
19.2481
19.3366
19.3335
19.2855
19.2586
19.2569
19.2777
19.2998
19.3897
19.5434
19.6565
19.8245
20.0554
20.2172
20.3738
20.5479
20.6901
20.8258
20.8815
20.8876
20.9304
20.8872
20.8121
20.7546
20.6458
20.5412
20.441
20.3362
20.2267
20.1502
20.0751
20.0129
19.9815
19.9497
19.9313
19.9213
19.93
19.9393
20.0002
20.0682
20.1711
20.3014
20.4218
20.603
20.7915
21.0248
21.2994
21.592
21.91
22.2635
22.6408
23.0289
23.4636
23.9025
24.3204
24.7301
25.1341
25.5044
25.893
26.2792
26.5931
26.8739
27.0632
27.1699
27.2814
27.3184
27.2907
27.2956
27.1984
26.8034
26.1917
25.5659
25.0148
24.372
23.309
21.6876
19.482
16.6019
12.8977
8.4496
3.84481
0.0163139
-2.37459
-3.29067
-2.94544
-1.69693
0.509216
3.83958
8.19001
12.9681
17.441
21.1175
24.004
26.2729
27.7026
27.938
26.75
24.3028
21.0611
17.4717
13.8698
10.3518
6.89179
4.16987
2.35208
1.49221
1.85664
3.50946
6.07699
8.63582
10.2377
9.97693
7.53905
3.76646
-0.363287
-4.04951
-6.93145
-9.01805
-10.6535
-11.9252
-12.725
-13.1921
-13.2784
-13.0288
-12.5721
-11.4015
-9.07103
-5.96054
-1.93678
3.23464
8.28746
13.3575
20.4235
26.8538
29.1018
35.5113
44.2256
45.27
42.9714
42.8373
46.8014
47.6329
53.6434
54.325
55.5079
55.9595
55.8547
55.3392
54.5799
53.6828
52.8684
51.9165
51.271
50.4335
49.5279
49.2132
48.3324
48.1283
47.9103
47.2345
47.1482
47.0637
46.7728
46.7167
46.7413
46.1108
45.5324
45.3905
44.4639
43.9083
43.569
42.8473
42.5368
41.8164
41.2402
40.738
39.4826
38.7093
38.1107
37.0503
35.7466
34.2876
33.1734
31.8013
30.0917
28.684
27.3763
25.9486
24.6147
23.4757
21.7761
21.4095
20.254
19.3288
18.8032
18.6806
18.7855
18.9744
19.1471
19.2585
19.335
19.3619
19.3576
19.3291
19.2994
19.3076
19.3208
19.3635
19.4508
19.5523
19.6799
19.8318
20.0022
20.1674
20.3204
20.4789
20.6348
20.7697
20.8628
20.9367
20.9956
21.0209
21.0247
21.0021
20.971
20.9257
20.8521
20.7974
20.7175
20.6451
20.595
20.5244
20.4749
20.4392
20.3941
20.3652
20.3491
20.3169
20.3347
20.3758
20.4358
20.5369
20.6498
20.7762
20.9214
21.1218
21.3585
21.6413
21.9511
22.285
22.6405
23.0114
23.4227
23.8317
24.2477
24.6632
25.0496
25.4149
25.8036
26.1866
26.4974
26.77
26.9783
27.0921
27.158
27.1601
27.1149
27.057
26.9138
26.591
26.0827
25.49
24.8792
24.1491
23.1378
21.7063
19.7047
17.0283
13.5025
9.18942
4.6644
0.903896
-1.36396
-2.07631
-1.44417
0.161654
2.68696
6.21622
10.5971
15.1567
19.3007
22.747
25.4805
27.4878
28.5698
28.4419
27.0681
24.4692
21.0675
17.5065
14.0803
10.6105
7.36055
4.96965
3.47008
2.94549
3.78298
5.84932
8.47377
11.4393
13.9278
14.8909
13.5686
10.3317
6.06907
2.15162
-1.13221
-3.69798
-5.86192
-7.54748
-8.77126
-9.69317
-10.1471
-10.272
-10.0308
-8.76176
-6.53995
-3.59975
0.596745
5.68175
10.5275
16.0899
23.2149
28.629
31.2601
37.7815
44.8928
41.4001
36.4094
42.6658
47.0248
51.1018
55.1329
56.1105
56.5232
57.0228
56.4731
55.9587
54.9162
54.0998
52.9998
52.0471
51.3189
50.489
49.8703
49.4779
48.5851
48.4346
48.1117
47.553
47.5491
47.275
47.0151
46.9951
46.8811
46.2491
45.8125
45.4691
44.721
44.2628
43.5335
42.9924
42.6874
41.8492
41.4127
40.7941
39.6943
39.0474
38.3148
37.3132
36.0107
34.6837
33.6446
32.114
30.5424
29.2203
27.8667
26.5189
25.2222
24.0404
20.9284
20.7252
20.1621
19.6752
19.3806
19.2682
19.2497
19.293
19.3319
19.3582
19.3838
19.3708
19.3679
19.3537
19.3302
19.3443
19.3575
19.4093
19.4882
19.5674
19.6989
19.8369
19.9716
20.1323
20.2827
20.4397
20.5995
20.7339
20.8657
20.9737
21.0529
21.1265
21.1741
21.1883
21.2046
21.1987
21.1574
21.1308
21.0731
21.0112
20.9633
20.8871