/*--------------------------------*- C++ -*----------------------------------*\
| =========                 |                                                 |
| \\      /  F ield         | OpenFOAM: The Open Source CFD Toolbox           |
|  \\    /   O peration     | Version:  2.4.0                                 |
|   \\  /    A nd           | Web:      www.OpenFOAM.org                      |
|    \\/     M anipulation  |                                                 |
\*---------------------------------------------------------------------------*/
FoamFile
{
    version     2.0;
    format      ascii;
    class       volScalarField;
    location    "1.74";
    object      pPrime2Mean;
}
// * * * * * * * * * * * * * * * * * * * * * * * * * * * * * * * * * * * * * //

dimensions      [0 4 -4 0 0 0 0];

internalField   nonuniform List<scalar> 
8800
(
371786
362410
352351
342377
332540
322845
313293
303884
294619
285495
276513
267672
258968
250398
241951
233615
225353
217106
208722
199735
371799
362412
352350
342377
332539
322844
313293
303884
294619
285495
276513
267672
258969
250399
241953
233619
225362
217125
208768
199888
371808
362411
352348
342375
332539
322844
313293
303884
294619
285495
276514
267673
258970
250402
241958
233628
225379
217162
208853
200184
371814
362411
352345
342373
332538
322844
313293
303884
294619
285496
276514
267674
258972
250405
241965
233641
225404
217213
208971
200528
371819
362411
352343
342372
332537
322844
313293
303884
294619
285496
276515
267675
258974
250410
241974
233657
225436
217278
209113
200885
371823
362411
352341
342370
332537
322844
313293
303884
294619
285496
276516
267677
258977
250415
241984
233676
225474
217352
209268
201233
371827
362412
352340
342369
332536
322844
313293
303884
294619
285496
276517
267679
258981
250422
241996
233698
225516
217432
209431
201564
371829
362412
352339
342368
332536
322844
313293
303884
294619
285497
276518
267681
258985
250429
242009
233722
225561
217517
209595
201872
371831
362412
352339
342367
332535
322844
313293
303884
294619
285497
276519
267683
258989
250436
242023
233747
225607
217603
209755
202155
371831
362413
352339
342367
332535
322844
313293
303884
294619
285498
276520
267685
258993
250444
242037
233773
225654
217689
209909
202413
371831
362413
352339
342367
332535
322844
313293
303885
294620
285499
276521
267687
258997
250451
242051
233798
225701
217772
210054
202645
371830
362413
352339
342368
332535
322844
313293
303885
294620
285499
276523
267690
259001
250459
242065
233823
225745
217850
210187
202853
371829
362412
352340
342368
332536
322844
313293
303885
294621
285500
276524
267692
259005
250466
242078
233847
225787
217923
210308
203037
371827
362412
352340
342369
332536
322844
313293
303885
294621
285501
276525
267694
259009
250473
242090
233869
225826
217989
210416
203196
371823
362412
352342
342370
332537
322844
313293
303886
294622
285502
276526
267696
259013
250479
242101
233888
225860
218047
210509
203333
371819
362411
352343
342372
332538
322844
313294
303886
294622
285502
276527
267698
259016
250484
242111
233905
225889
218097
210587
203446
371814
362411
352345
342374
332538
322845
313294
303886
294623
285503
276528
267699
259018
250489
242118
233919
225913
218137
210649
203536
371807
362412
352348
342375
332539
322845
313294
303887
294623
285504
276529
267700
259020
250492
242125
233930
225932
218167
210697
203603
371799
362412
352350
342377
332540
322845
313294
303887
294623
285504
276529
267701
259021
250495
242129
233937
225944
218188
210728
203647
371786
362410
352351
342378
332540
322846
313295
303887
294623
285504
276529
267701
259022
250496
242131
233941
225950
218198
210744
203668
191590
189397
187723
186276
184935
183658
182427
181230
180060
178911
177780
176663
175557
174462
173377
172298
171227
170160
169099
168042
166990
165942
164900
163861
162828
161798
160772
159749
158730
157715
156703
155695
154692
153693
152700
151712
150729
149751
148777
147807
146841
145878
144917
143960
143005
142054
141105
140160
139219
138281
137346
136415
135485
134558
133633
132712
131793
130878
129967
129058
128151
127248
126346
125447
124550
123657
122766
121880
120997
120118
119242
118368
117497
116628
115762
114898
114037
113179
112325
111476
110631
109791
108956
108126
107300
106477
105658
104842
104029
103219
102412
101607
100804
100003
99203.1
98405.8
97610.5
96817.7
96027
95239.4
94454.5
93673.6
92895.9
92122.6
91353.2
90588.6
89828.2
89072.6
88321
87574.3
86831.7
86093.9
85360
84630.6
83904.7
83182.7
82463.6
81748
81035.4
80326.4
79620.6
78918.6
78219.2
77523.3
76829.1
76138.5
75449.1
74763.4
74078.8
73397.5
72717.1
72039.1
71362.3
70687.1
70013.3
69341.2
68671.1
68003.1
67337.5
66675.2
66015.8
65360.4
64708.4
64060.3
63416
62775.6
62139
61506.2
60876.7
60250.6
59627.4
59007
58388.9
57773.1
57159.3
56548
55938.5
55332.3
54728.5
54128.2
53530.5
52937.1
52346.7
51761.6
51179.7
50603.8
50031.3
49465.7
48903.9
48349.9
47798.7
47256.7
46714.9
46184.1
45651.3
45130.7
44606.2
44095.1
43578.1
43074.6
42565.2
42068.2
41565.5
41072.1
40573.9
40080.1
39581.7
39083.8
38578.3
38069.8
37549.2
37020.2
36473
35909.7
35318.7
34700.2
34038.1
33318.7
32552.5
31623.9
193153
190816
188910
187269
185784
184396
183075
181804
180570
179366
178187
177028
175885
174758
173642
172538
171442
170355
169274
168201
167133
166071
165016
163966
162922
161882
160848
159818
158792
157770
156753
155740
154732
153729
152732
151740
150753
149771
148794
147821
146851
145885
144923
143963
143007
142053
141104
140157
139214
138275
137339
136406
135476
134548
133623
132702
131783
130868
129956
129047
128140
127236
126335
125436
124540
123646
122756
121870
120987
120107
119231
118357
117486
116618
115752
114889
114028
113172
112319
111471
110627
109789
108956
108127
107302
106481
105663
104848
104037
103228
102422
101617
100815
100015
99216.1
98419.4
97624.6
96832.4
96042.3
95255.3
94471.2
93690.7
92913.6
92140.6
91371.6
90606.7
89846.1
89089.8
88337.9
87590.5
86847.6
86109.1
85374.9
84644.7
83918.1
83195
82475.2
81758.7
81045.6
80336.5
79630.8
78929.2
78230.5
77535.4
76842.4
76152.6
75464.5
74779.1
74095.4
73414
72734.1
72055.9
71379.3
70704.1
70030.6
69359
68689.3
68022.2
67357.6
66696.4
66038.4
65384.2
64733.8
64087.3
63444.6
62805.7
62170.8
61539.4
60911.3
60286.2
59664.2
59044.7
58427.3
57811.9
57198.2
56586.3
55976.3
55368.9
54763.8
54161.5
53562.2
52966.7
52374.1
51786.1
51201.3
50621.4
50045.1
49474.8
48907.8
48348.3
47790.8
47241.8
46692.9
46153.4
45612.4
45082.2
44548.6
44026
43499.2
42982.1
42461.9
41948.9
41434.2
40922.7
40410.2
39897.1
39381.4
38862.5
38337.9
37805.2
37262.6
36704.4
36130.4
35530.5
34905.3
34233
33534.5
32716
31888.6
30966.2
194237
191918
189923
188166
186575
185095
183696
182356
181064
179808
178583
177384
176206
175047
173903
172772
171654
170546
169446
168356
167273
166198
165130
164069
163014
161965
160922
159884
158851
157824
156801
155783
154771
153764
152762
151767
150776
149790
148809
147833
146860
145892
144926
143965
143006
142052
141100
140153
139208
138268
137331
136397
135466
134538
133613
132691
131772
130856
129944
129035
128128
127225
126323
125425
124529
123636
122747
121860
120977
120098
119221
118347
117477
116608
115743
114881
114021
113166
112314
111467
110625
109788
108956
108129
107305
106486
105669
104856
104046
103239
102433
101630
100829
100029
99231.5
98435.4
97641.4
96849.8
96060.7
95274.5
94491.5
93711.6
92935.3
92162.6
91393.7
90628.4
89867.5
89110.6
88358.3
87610.3
86866.9
86127.7
85392.8
84661.6
83934
83209.7
82489
81771.8
81058.4
80349.3
79644.1
78942.9
78245.2
77550.8
76859.2
76170.1
75483.3
74798.5
74115.6
73434
72754.3
72075.7
71399.1
70723.7
70050.4
69379.1
68710
68043.6
67380
66719.9
66063.4
65410.7
64762.1
64117.4
63476.6
62839.5
62206.3
61576.1
60949.4
60325.4
59704.6
59086
58469.2
57853.9
57240.2
56627.5
56016.7
55407.8
54801.1
54196.8
53595.6
52997.9
52403.2
51812.4
51224.7
50641
50061
49486.2
48914.1
48348.8
47785.1
47228.4
46672
46123.5
45574.1
45033.1
44491
43955.8
43420.2
42889
42358.8
41830
41303.3
40774.5
40247.7
39715.8
39184.5
38643.8
38103.2
37545.9
36985.5
36398.1
35804.5
35166
34524.3
33795.9
33085
32220.5
31363.9
30478.3
195062
192805
190785
188964
187297
185746
184280
182882
181536
180233
178966
177729
176517
175327
174155
173000
171859
170731
169614
168507
167410
166321
165241
164168
163104
162046
160994
159949
158910
157876
156848
155825
154808
153797
152792
151792
150798
149808
148824
147844
146869
145897
144930
143966
143006
142049
141097
140148
139202
138260
137322
136387
135455
134527
133602
132679
131760
130845
129932
129023
128117
127213
126312
125414
124519
123627
122738
121852
120969
120089
119213
118339
117469
116601
115736
114875
114016
113162
112311
111466
110625
109790
108959
108133
107311
106493
105678
104866
104057
103251
102447
101645
100845
100046
99248.7
98453.4
97660.4
96869.6
96081.8
95296.6
94514.7
93735.6
92960
92187.4
91418.4
90652.8
89891.4
89133.8
88381
87632.3
86888.4
86148.3
85412.5
84679.9
83951.2
83225.6
82504
81786
81072.6
80363.4
79658.9
78958.3
78261.7
77568.3
76877.9
76189.7
75503.9
74819.7
74137.4
73455.7
72776
72097.1
71420.3
70744.8
70071.5
69400.2
68731.7
68065.8
67403.5
66744.3
66089.2
65438.1
64791.3
64148.4
63509.4
62874.1
62242.7
61613.9
60988.7
60365.9
59746.5
59128.4
58512.2
57896.8
57283
56669.2
56057.3
55446.4
54837.6
54231.4
53628.8
53028.4
52431.8
51838.1
51248
50660.6
50077.4
49498
48921.4
48349.8
47780.3
47215.5
46651.7
46093.1
45536
44983.7
44433.5
43886
43341.5
42797
42256.4
41712.7
41173.6
40628.3
40088.2
39537.1
38993.1
38430.1
37876.9
37293.5
36721.8
36102.1
35500.7
34820.4
34173.8
33403.4
32671.1
31819.2
30965.5
30112.9
195728
193532
191517
189665
187950
186344
184825
183376
181983
180638
179332
178059
176816
175597
174399
173221
172058
170911
169776
168654
167542
166441
165349
164266
163191
162124
161065
160013
158967
157927
156894
155867
154846
153830
152821
151817
150819
149826
148839
147856
146877
145903
144934
143968
143006
142048
141094
140143
139197
138254
137314
136379
135446
134517
133592
132669
131750
130834
129922
129012
128106
127203
126303
125405
124511
123619
122730
121845
120962
120083
119206
118333
117463
116595
115731
114870
114012
113159
112310
111466
110626
109792
108963
108138
107318
106501
105687
104877
104070
103265
102462
101661
100862
100064
99267.4
98472.9
97680.9
96891.2
96104.6
95320.5
94539.6
93761.2
92986
92213.4
91444.2
90678
89916.1
89157.9
88404.6
87655.3
86910.7
86169.6
85432.8
84699
83969.1
83242.2
82519.7
81800.8
81087.3
80378
79674.2
78974.3
78278.8
77586
76896.7
76209.3
75524.5
74840.8
74158.8
73477.1
72797.2
72118.1
71441.2
70765.5
70092.3
69421.1
68753
68087.6
67426.3
66768
66114.4
65464.4
64819.4
64177.9
63541.1
62907.3
62277.8
61650.7
61027.1
60405.6
59787.5
59169.4
58553.9
57938.2
57324
56708.8
56095.9
55482.6
54872.1
54263.4
53659.6
53056.1
52458.1
51861.3
51268.8
50678.5
50092.2
49508.3
48927.6
48349.8
47774.7
47201.3
46630.8
46062
45497.5
44934.7
44376.1
43817.4
43263.8
42706.6
42155.7
41597.5
41047.4
40484.9
39934.4
39363
38808.8
38223.3
37660.6
37051
36470.9
35821.9
35211
34503.6
33838.1
33063.9
32306.3
31491
30658.9
29828.4
196288
194145
192144
190279
188534
186889
185327
183835
182402
181019
179679
178374
177101
175856
174634
173433
172250
171084
169933
168796
167671
166557
165454
164361
163277
162202
161135
160075
159023
157978
156940
155908
154883
153864
152850
151843
150841
149845
148854
147869
146888
145911
144939
143971
143008
142048
141093
140141
139193
138249
137309
136372
135439
134510
133584
132661
131742
130826
129914
129004
128098
127195
126295
125398
124504
123613
122725
121839
120957
120078
119202
118328
117458
116591
115727
114866
114010
113157
112309
111466
110629
109796
108968
108144
107325
106509
105698
104889
104083
103280
102478
101678
100880
100083
99287.2
98493.5
97702.4
96913.8
96128.1
95345
94564.8
93786.9
93011.9
92239
91469.3
90702.6
89940.2
89181.6
88427.8
87677.9
86932.5
86190.5
85452.8
84718
83986.9
83258.8
82535.2
81815.6
81101.6
80392.2
79688.7
78989.2
78294.4
77602.3
76913.8
76227.2
75543.3
74859.8
74178.1
73496.2
72816.2
72136.9
71459.9
70784
70110.9
69439.7
68771.9
68106.8
67446.1
66788.5
66136.3
65487.7
64844.3
64204.4
63569.4
62937
62309.4
61683.8
61061.8
60441.6
59824.6
59206.3
58591.3
57974.9
57360.4
56743.8
56130.1
55514.4
54903.1
54292
53686.4
53080
52480.5
51880.8
51286.3
50692.6
50103.8
49515.6
48931.1
48346.8
47766.6
47184.6
46607.8
46029.8
45458.1
44885
44319.1
43749
43187.6
42617.7
42057.6
41484.9
40925.5
40346.8
39785.9
39197.7
38632
38029.6
37453.9
36827.6
36231.3
35567.9
34936.2
34224.3
33535.3
32778
32013.1
31225.4
30412.8
29595.5
196770
194670
192687
190817
189053
187380
185785
184259
182792
181376
180005
178672
177372
176102
174857
173636
172434
171251
170085
168933
167795
166670
165556
164453
163360
162277
161203
160137
159079
158029
156986
155950
154920
153897
152880
151869
150865
149865
148872
147883
146900
145921
144947
143977
143012
142051
141094
140141
139192
138247
137306
136369
135435
134506
133579
132656
131737
130821
129909
128999
128093
127190
126291
125394
124500
123609
122721
121836
120954
120074
119198
118325
117454
116587
115724
114864
114008
113156
112310
111468
110631
109800
108973
108151
107332
106518
105708
104901
104097
103295
102494
101695
100898
100101
99306.7
98513.7
97723.4
96935.5
96150.5
95367.9
94588.1
93810.4
93035.3
92262
91491.9
90725
89962.1
89203.3
88449.1
87698.5
86952.3
86209.7
85471.1
84735.3
84003.2
83274
82549.3
81828.9
81114.4
80404.8
79701
79001.4
78306.7
77615
76927.2
76241.3
75558.1
74875.1
74193.5
73511.6
72831.4
72151.9
71474.5
70798.4
70125.1
69454.1
68786.3
68121.5
67460.9
66804.5
66153.4
65506.4
64864.7
64226.5
63593.1
62962
62335.7
61711
61090.5
60471.1
59854.7
59236.4
58622
58004.9
57390.1
56772.4
56157.7
55539.7
54927.3
54314.9
53706.8
53098.5
52496.8
51894.5
51298
50701.5
50110
49518
48929.7
48340.2
47753.9
47165.1
46581.1
45995.4
45415.9
44834.7
44260.6
43681.5
43111.4
42531.6
41960.9
41377.8
40805.9
40217.1
39641.7
39043.7
38462.4
37851.3
37258.4
36625.5
36010.8
35343.4
34693.7
33986.8
33285.6
32545.6
31783.8
31010.2
30208.2
29398.7
197187
195123
193158
191289
189513
187820
186200
184647
183152
181708
180309
178950
177626
176334
175068
173828
172609
171410
170229
169064
167914
166778
165654
164542
163441
162350
161269
160197
159134
158078
157031
155990
154957
153930
152910
151896
150888
149886
148890
147899
146913
145932
144956
143985
143018
142056
141098
140144
139194
138248
137306
136368
135434
134504
133577
132654
131735
130819
129906
128997
128090
127187
126287
125390
124497
123606
122718
121832
120950
120071
119194
118321
117451
116584
115721
114862
114007
113156
112311
111470
110634
109803
108978
108157
107340
106527
105717
104911
104109
103308
102509
101711
100915
100119
99324.5
98531.9
97741.9
96954.4
96169.7
95387.2
94607.3
93829.6
93054.3
92280.8
91510.5
90743.4
89980.3
89221.2
88466.5
87715.3
86968.5
86225.2
85485.7
84749.2
84016.2
83286.2
82560.5
81839.4
81124.3
80414.1
79709.5
79009.3
78314.2
77622.5
76934.9
76249.4
75566.8
74884.3
74203
73521.1
72840.9
72161
71483.4
70806.9
70133.4
69462.2
68794.5
68130.1
67470.2
66815
66165.1
65519.8
64879.6
64243.3
63610.7
62981
62355.6
61731.6
61111.7
60493.1
59877.3
59258.2
58644.3
58026.9
57411.1
56793
56177.3
55558
54943.9
54330.1
53719.1
53109.7
52505.1
51901
51301.9
50703.7
50109.5
49514.8
48922.5
48329.4
47737
47142.9
46551.1
45959.1
45372.4
44784.1
44201.8
43616.5
43036.5
42449.7
41868
41277.5
40692.7
40096.5
39507.3
38902.8
38307.1
37691.4
37084.4
36448
35819.6
35152.6
34492.2
33793.4
33086.6
32358.4
31599.1
30830.2
30033.9
29230.5
197555
195519
193570
191704
189921
188213
186574
184999
183480
182012
180590
179209
177863
176550
175267
174009
172774
171560
170366
169188
168027
166881
165748
164627
163518
162421
161333
160255
159186
158126
157074
156030
154992
153962
152939
151922
150912
149907
148909
147915
146928
145945
144967
143994
143026
142062
141103
140148
139197
138251
137308
136370
135435
134504
133577
132654
131734
130818
129905
128995
128088
127185
126285
125388
124493
123602
122714
121829
120946
120067
119191
118317
117448
116582
115719
114861
114006
113156
112312
111471
110637
109807
108982
108161
107345
106534
105725
104921
104119
103320
102522
101725
100929
100133
99339.2
98546.5
97756.5
96968.7
96183.8
95401
94620.9
93843.1
93067.4
92293.7
91523.3
90756
89992.8
89233.4
88478.2
87726.6
86979.1
86235.2
85494.9
84757.7
84023.9
83293.2
82566.9
81845.2
81129.3
80418.4
79712.8
79011.6
78315.7
77623.3
76935.4
76250.1
75567.7
74885.8
74204.7
73523.1
72842.9
72163
71485.4
70808.6
70135.1
69464.1
68796.7
68133.1
67474.1
66819.9
66171.4
65527.5
64888.7
64253.8
63622.1
62993.5
62368.5
61744.9
61124.9
60507.1
59890.6
59271.6
58657.8
58039.8
57423
56805.4
56187.7
55568.5
54952.7
54339.1
53723.4
53114
52505.6
51900.6
51297.5
50699.9
50101.8
49506.6
48909.3
48314.6
47714.6
47116.7
46518.1
45920.8
45327.3
44734.4
44143.4
43555.7
42964.7
42374
41781.6
41185.2
40589.8
39987.8
39387
38778.6
38171.6
37553.7
36936.3
36299.6
35661.6
34997.5
34329
33637.8
32925.8
32203
31444.7
30676.8
29885.8
29088.1
197879
195866
193930
192069
190281
188563
186909
185316
183778
182290
180848
179446
178082
176751
175451
174177
172928
171700
170493
169305
168133
166977
165835
164707
163591
162487
161393
160310
159236
158172
157115
156067
155027
153993
152967
151948
150935
149928
148927
147932
146943
145958
144979
144005
143035
142070
141110
140154
139202
138255
137312
136372
135437
134506
133578
132654
131734
130817
129903
128993
128086
127183
126282
125384
124490
123598
122710
121824
120941
120062
119186
118313
117444
116578
115716
114859
114005
113156
112312
111472
110638
109808
108984
108164
107349
106538
105731
104927
104128
103329
102533
101736
100940
100144
99349.3
98556.1
97765.5
96977.2
96191.6
95408.2
94627.8
93849.7
93073.7
92299.8
91529
90761.5
89998.1
89238.3
88482.6
87730.5
86982.6
86238.2
85497.3
84759.4
84025.1
83294
82567.3
81845.2
81128.6
80416.8
79710.2
79007.8
78310.4
77616.9
76928.2
76242.5
75560.2
74879
74198.4
73517.6
72837.5
72158
71480.4
70804
70131.1
69460.6
68794.2
68131.8
67473.8
66820.8
66173.4
65530.4
64892.5
64258.2
63627.1
62999.1
62374.1
61750.1
61130.3
60513.2
59894.3
59277.8
58661.9
58044
57426.1
56809.5
56189.3
55570.4
54952.8
54341.4
53719.9
53112.6
52497.5
51895.3
51285.8
50690.4
50087
49493.4
48889.8
48295.5
47687.2
47087
46481.9
45881.8
45281.8
44687.7
44087.7
43500.6
42899.4
42306.2
41705.5
41103.8
40500.7
39894.5
39284.3
38673
38057.2
37439.3
36813.3
36179.4
35531.8
34871.6
34194.5
33507.6
32790.9
32068.5
31312.4
30546.3
29761.6
28969.8
198164
196169
194245
192388
190598
188872
187207
185599
184045
182541
181081
179663
178282
176935
175620
174332
173069
171830
170612
169413
168232
167067
165917
164782
163659
162549
161450
160361
159283
158214
157154
156103
155059
154023
152994
151972
150957
149948
148946
147949
146957
145971
144991
144015
143044
142078
141117
140160
139207
138259
137315
136375
135439
134507
133579
132654
131733
130816
129902
128991
128084
127180
126278
125380
124485
123593
122704
121819
120936
120057
119181
118308
117439
116574
115714
114857
114004
113155
112311
111472
110638
109808
108984
108165
107350
106540
105734
104931
104132
103335
102539
101742
100946
100149
99353.7
98559.4
97767.9
96978.7
96192.3
95408.1
94627.2
93848.8
93072.6
92298.4
91527.3
90759.3
89995.4
89235.3
88479.3
87727
86978.9
86234.1
85492.8
84754.5
84020
83288.7
82561.7
81839.3
81122
80409.2
79701.5
78997.8
78298.9
77604.1
76914.1
76227.8
75545.3
74863.8
74184
73504.2
72824.9
72146.3
71469.5
70794
70122.2
69452.8
68787.9
68126.6
67470.2
66818.3
66171.5
65529.2
64891.5
64256.9
63626.2
62997.2
62371.9
61747.3
61127.5
60510.4
59889.8
59275.5
58656.6
58040.6
57421.4
56804.9
56183.8
55565.4
54946.4
54334.8
53710.8
53105
52482.4
51883.2
51266.8
50673.8
50065.3
49474.7
48864.1
48271.2
47655.2
47055.1
46445
45843.3
45237.6
44642.8
44035.7
43450.6
42841.9
42246.3
41640.3
41032.8
40425
39815.3
39197.9
38588.3
37964.8
37348.6
36711.1
36080.5
35422.7
34764.5
34079.6
33393.1
32674.3
31951.9
31199.3
30437.1
29659.5
28873.9
198413
196433
194519
192666
190875
189143
187469
185850
184283
182764
181291
179858
178463
177102
175773
174473
173199
171948
170720
169512
168322
167149
165992
164850
163721
162606
161502
160409
159326
158254
157190
156136
155089
154051
153019
151995
150978
149967
148963
147964
146972
145984
145002
144025
143053
142086
141124
140165
139212
138263
137318
136377
135440
134507
133579
132653
131732
130814
129899
128988
128080
127176
126274
125376
124480
123588
122699
121813
120930
120051
119175
118303
117435
116571
115711
114855
114002
113154
112310
111471
110637
109807
108983
108163
107348
106538
105733
104931
104133
103336
102540
101742
100946
100148
99351.9
98556.1
97763.8
96973.4
96186.1
95400.9
94619.6
93840.7
93064.4
92289.7
91518.4
90749.9
89985.8
89225.4
88469.5
87717.1
86969.1
86224
85482.6
84744
84009.7
83278.3
82551.4
81828.5
81110.5
80396.5
79687.7
78982.4
78282.2
77585.9
76894.8
76207.6
75524.6
74843
74163.7
73484.4
72806.7
72129.2
71453.8
70779.8
70109.4
69441.1
68777.6
68117.2
67462.2
66811.2
66165.6
65523.8
64886.4
64250.7
63620.7
62989.5
62363.2
61736.7
61117.7
60498.6
59877.2
59264
58644.2
58029.6
57409.7
56793.2
56171.9
55552.8
54934.6
54322.3
53698
53089.6
52464.5
51865.1
51244.3
50651.3
50039.1
49450.1
48835.9
48242.8
47622
47020.7
46407.9
45805.1
45195.8
44598.2
43989.8
43402.8
42789.3
42194.3
41582.7
40972.6
40360
39749.1
39128.9
38518.7
37887.3
37272.1
36625.8
35993.2
35328.6
34668.2
33979.3
33292.4
32573.7
31853.3
31105.1
30348.3
29578.2
28798.8
198630
196662
194755
192906
191114
189379
187698
186070
184492
182962
181476
180031
178624
177251
175911
174599
173315
172055
170817
169601
168403
167224
166060
164912
163778
162657
161549
160452
159366
158290
157224
156166
155117
154076
153043
152017
150998
149985
148979
147979
146985
145996
145013
144035
143061
142093
141129
140170
139216
138266
137320
136378
135441
134507
133577
132652
131730
130811
129896
128984
128076
127171
126269
125370
124475
123582
122693
121807
120925
120046
119170
118299
117431
116568
115708
114853
114001
113153
112310
111470
110635
109804
108979
108159
107343
106533
105728
104926
104128
103330
102534
101736
100938
100140
99343
98546.3
97753.3
96961.7
96173.6
95387.4
94606
93826.3
93050.1
92275
91503.8
90734.7
89970.8
89210.2
88454.6
87702.4
86954.5
86209.3
85468
84729.3
83995.1
83263.6
82536.9
81813.4
81095
80379.8
79670
78963.1
78262
77564.3
76872.6
76184.3
75500.8
74818.8
74139.9
73461.3
72784.9
72108.6
71435
70762.1
70093.1
69425.9
68763.8
68104.1
67450.1
66799.9
66155.2
65513.8
64877.1
64240.4
63610.3
62976.2
62348.3
61719.4
61099.8
60477.9
59859.2
59244.1
58625.9
58010
57390.1
56774.3
56154.3
55533.3
54918.7
54303.3
53680.6
53069.1
52443.3
51839.9
51218.7
50620.8
50009.8
49419.7
48803.2
48213.5
47588.7
46987
46370.5
45765.1
45154
44554.8
43945.2
43356.8
42743
42148.9
41532.9
40922
40306.7
39693.5
39072
38454.1
37824.7
37203.5
36551.1
35913.9
35246.1
34582.3
33893.5
33206.3
32489.3
31772.9
31029.4
30278.7
29515.6
28742.4
198816
196858
194958
193111
191319
189581
187895
186259
184673
183134
181638
180182
178765
177382
176032
174711
173417
172149
170904
169680
168475
167290
166121
164967
163829
162704
161591
160491
159401
158322
157253
156193
155142
154099
153064
152036
151015
150001
148994
147992
146997
146007
145022
144043
143068
142099
141134
140174
139218
138267
137321
136378
135440
134506
133575
132649
131726
130807
129892
128980
128071
127166
126264
125365
124469
123577
122688
121802
120919
120041
119165
118294
117427
116565
115706
114851
114000
113152
112308
111468
110632
109800
108974
108152
107336
106525
105719
104917
104117
103319
102521
101723
100925
100126
99328
98530.7
97737.1
96944.6
96155.8
95369.3
94587.8
93807.6
93031.5
92256.3
91485.3
90716.1
89952.7
89191.9
88436.8
87684.6
86936.9
86191.6
85450.4
84711.5
83977.6
83246.3
82520
81795.9
81076.9
80360.5
79649.6
78941.4
78239.5
77540.9
76848.7
76159.7
75476.1
74794.1
74115.3
73437.2
72761.8
72086.8
71414.4
70742.6
70074.8
69408.5
68747.3
68088.3
67435.3
66785.7
66142.1
65500.6
64864.2
64226.4
63594.9
62958.9
62328.5
61697.2
61076.4
60450
59835
59219.2
58601.9
57984.1
57366.5
56749.2
56131.9
55508.3
54899.5
54278.3
53660.3
53046.5
52422.1
51808.8
51191
50587.9
49976.9
49385.1
48770.3
48173.1
47554.1
46952.1
46332.3
45722.7
45113.9
44510.9
43906.3
43316.3
42699
42107.2
41491.6
40879
40262.6
39644.7
39024.6
38397.8
37768.9
37136
36486.6
35841.7
35175.5
34507.6
33822.7
33135.2
32421.5
31709.1
30970.4
30226.1
29468.8
28701.3
198975
197024
195128
193284
191491
189750
188060
186420
184827
183280
181776
180312
178886
177495
176136
174807
173506
172230
170978
169748
168538
167347
166173
165015
163873
162744
161628
160525
159433
158351
157279
156217
155164
154119
153082
152053
151030
150015
149006
148003
147006
146015
145030
144049
143074
142103
141137
140176
139220
138268
137320
136377
135438
134503
133572
132645
131722
130803
129887
128975
128066
127161
126259
125360
124464
123572
122682
121797
120914
120036
119161
118290
117424
116561
115703
114848
113997
113149
112304
111463
110626
109794
108966
108143
107326
106514
105707
104903
104102
103303
102504
101705
100907
100108
99308.9
98511.5
97717.2
96924.1
96134.7
95348.5
94566.9
93786.9
93010.9
92236.1
91465.1
90696.6
89933.3
89172.8
88417.9
87665.6
86917.8
86172.3
85430.9
84692.4
83958.5
83227.6
82501.2
81777.5
81057.8
80340.6
79628.3
78919.4
78216.5
77517.2
76824.9
76135.9
75452.4
74770.4
74091.8
73414
72739.3
72065.1
71393
70722.5
70055.4
69390.1
68729.6
68071.7
67419.5
66770.6
66127.4
65485
64848.1
64208.8
63575.1
62937.1
62305.9
61674.2
61048.6
60421.7
59807.5
59187.9
58574.5
57954.8
57338
56721.2
56108.4
55484.7
54876.5
54251.2
53641.1
53016.3
52393.8
51775.4
51166.4
50560.4
49948.9
49348.8
48734.3
48128.9
47518.1
46910
46294.2
45681.8
45078.5
44471.8
43870.1
43272.3
42661.5
42068.1
41454.1
40840.3
40226.7
39604
38979.7
38347.9
37718.7
37076.2
36429.1
35778.3
35119.2
34447.4
33767.8
33078.8
32369.8
31658.9
30926.5
30187.5
29434.5
28672.8
199106
197161
195268
193424
191632
189889
188196
186551
184954
183401
181890
180420
178987
177589
176223
174887
173580
172298
171041
169806
168591
167395
166217
165056
163910
162778
161660
160553
159459
158375
157301
156237
155182
154136
153097
152066
151043
150026
149016
148012
147014
146022
145035
144054
143078
142106
141139
140177
139220
138267
137319
136375
135435
134500
133569
132642
131718
130799
129883
128970
128062
127156
126254
125355
124459
123566
122677
121791
120909
120031
119156
118285
117419
116557
115699
114844
113993
113144
112299
111457
110619
109786
108957
108134
107315
106502
105692
104888
104084
103284
102484
101685
100886
100086
99287.4
98490.3
97695.1
96902.2
96112.8
95327.6
94545.7
93766.5
92990.4
92216.5
91445.7
90678.2
89914.2
89154.4
88398.9
87646.8
86898.2
86152.9
85410.8
84673
83938.8
83209.2
82482.6
81760
81039.6
80322.5
79608.7
78899.7
78195.6
77496.4
76803.6
76115.5
75431.4
74750.1
74070.8
73393.8
72718.9
72045.1
71372.9
70703.4
70036
69372.1
68711.6
68054.9
67402.8
66754.4
66110.2
65467.2
64828.2
64187.7
63551.2
62912.7
62279.8
61647.9
61023.1
60396.7
59778
59158.1
58544.2
57923.9
57311
56693.3
56080.7
55459.7
54852.1
54225.3
53612.4
52980.9
52368.6
51747.6
51141.4
50532
49918.4
49307.3
48697.5
48089.9
47481.5
46865.5
46259
45646.6
45044.1
44436.7
43839.4
43232.8
42631.6
42026.5
41421.2
40806.6
40192.7
39565.9
38941.1
38306.8
37670.4
37026.7
36383
35730.8
35074.6
34404.2
33726.9
33037.5
32333.3
31621.4
30895.3
30159.2
29410.3
28654.1
199211
197270
195378
193535
191742
189998
188303
186656
185055
183497
181982
180506
179067
177664
176293
174952
173640
172353
171091
169852
168633
167434
166253
165089
163940
162806
161685
160576
159480
158394
157319
156253
155197
154149
153109
152077
151053
150035
149024
148019
147020
146027
145039
144057
143080
142108
141140
140178
139220
138266
137317
136373
135433
134497
133566
132638
131715
130795
129879
128966
128057
127152
126249
125350
124454
123562
122672
121786
120904
120026
119151
118281
117414
116552
115693
114839
113987
113137
112291
111449
110611
109777
108948
108123
107303
106489
105678
104871
104066
103264
102463
101663
100863
100064
99265.4
98469
97673.5
96881.8
96092.5
95308.2
94526
93747.9
92971.7
92198.7
91428.1
90661.5
89897.3
89138
88381.6
87629.8
86880.3
86135.3
85392.7
84655.5
83921
83192.2
82466
81744.6
81023.9
80307.3
79592.7
78883.9
78178.8
77480
76786.7
76098.9
75414.1
74733.4
74053.4
73377.2
72701.3
72027.8
71355.2
70686.2
70018.2
69355
68694.4
68038.5
67385.3
66736.9
66090.8
65447.3
64805.5
64164.6
63525.5
62888.4
62253.9
61624.8
60996.5
60371
59751
59130.8
58512.7
57896.3
57283.2
56664.1
56052.1
55434
54822.5
54194.9
53582
52956
52346.6
51717.5
51114.2
50495.3
49884.2
49275.6
48666.7
48052.4
47445
46827.7
46225.7
45612.1
45014.7
44409.2
43811.4
43198.3
42603
41989.6
41389.7
40772.9
40163.9
39533.1
38908.9
38270.8
37633.9
36993.2
36346.6
35697.6
35041.4
34376
33696.3
33009.7
32307
31595.9
30873.2
30138.8
29393.9
28641.7
199289
197351
195460
193617
191824
190080
188383
186734
185130
183569
182050
180571
179128
177720
176345
175001
173684
172395
171129
169887
168665
167464
166280
165113
163963
162826
161704
160594
159496
158409
157332
156265
155208
154159
153118
152085
151059
150041
149029
148023
147024
146030
145042
144059
143081
142109
141141
140178
139219
138266
137316
136372
135431
134495
133563
132636
131712
130792
129876
128963
128054
127148
126245
125346
124450
123557
122668
121782
120900
120021
119147
118276
117409
116546
115687
114832
113979
113130
112284
111441
110603
109769
108939
108114
107293
106477
105664
104856
104050
103247
102444
101644
100843
100045
99246.1
98450.6
97654.9
96864.7
96075.1
95291.9
94509.4
93732.7
92956.1
92184.8
91413.7
90648.3
89883.7
89125.1
88367.9
87616.6
86866.3
86121.8
85378.4
84641.9
83907.2
83179.3
82452.8
81732.4
81011.9
80296.6
79582
78874.2
78168.1
77469.9
76775
76087.1
75401.2
74720.9
74040.4
73365
72687.9
72014.7
71341.1
70671.9
70002.9
69340.2
68678.6
68023
67368.4
66719.7
66071.8
65427.7
64783.4
64142.6
63501.7
62867.4