/*--------------------------------*- C++ -*----------------------------------*\
| =========                 |                                                 |
| \\      /  F ield         | OpenFOAM: The Open Source CFD Toolbox           |
|  \\    /   O peration     | Version:  2.4.0                                 |
|   \\  /    A nd           | Web:      www.OpenFOAM.org                      |
|    \\/     M anipulation  |                                                 |
\*---------------------------------------------------------------------------*/
FoamFile
{
    version     2.0;
    format      ascii;
    class       volScalarField;
    location    "1.46";
    object      p;
}
// * * * * * * * * * * * * * * * * * * * * * * * * * * * * * * * * * * * * * //

dimensions      [0 2 -2 0 0 0 0];

internalField   nonuniform List<scalar> 
4400
(
-20.4205
-20.2922
-20.6677
-20.8502
-20.5868
-21.0528
-21.1502
-21.0934
-21.3457
-21.315
-21.3581
-21.3242
-22.3325
-21.4398
-22.5227
-21.9019
-21.092
-21.0486
-22.2298
-16.8171
-20.48
-20.2877
-20.6584
-20.8894
-20.5958
-21.0689
-21.1566
-21.0888
-21.3582
-21.2744
-21.4404
-21.4327
-22.3371
-21.4759
-22.4831
-21.9475
-21.1125
-21.1521
-22.2612
-17.815
-20.508
-20.2814
-20.6505
-20.8924
-20.6279
-21.0945
-21.1504
-21.0753
-21.3804
-21.3047
-21.6308
-21.4628
-22.2758
-21.5385
-22.3721
-22.0921
-21.3349
-21.3806
-22.5205
-18.4203
-20.5358
-20.2842
-20.6449
-20.9661
-20.7005
-21.1287
-21.1562
-21.0992
-21.4297
-21.3353
-21.6918
-21.4771
-22.2039
-21.394
-22.2976
-22.2385
-21.5722
-21.7049
-22.3578
-19.5066
-20.5593
-20.2843
-20.6666
-21.0687
-20.7929
-21.152
-21.2057
-21.1741
-21.4946
-21.2987
-21.6973
-21.4948
-22.1503
-21.5147
-22.3089
-22.3802
-21.869
-21.9433
-22.3592
-20.4914
-20.5823
-20.2904
-20.6804
-21.1295
-20.8278
-21.1614
-21.2595
-21.2322
-21.506
-21.2685
-21.6195
-21.5353
-22.1904
-21.5055
-22.3407
-22.6423
-21.9013
-22.1574
-22.3917
-21.4118
-20.5927
-20.3654
-20.7033
-21.1476
-20.7875
-21.1579
-21.3081
-21.2189
-21.491
-21.2604
-21.7166
-21.5853
-22.2373
-21.8989
-22.3428
-22.9171
-22.0407
-22.3997
-22.6276
-22.2629
-20.5976
-20.3802
-20.6952
-21.1338
-20.7297
-21.0924
-21.3222
-21.1748
-21.4602
-21.2746
-21.6829
-21.6137
-22.2292
-21.9142
-22.2942
-23.0978
-22.1624
-22.6223
-22.8879
-22.9397
-20.5972
-20.3829
-20.6687
-21.1202
-20.6721
-21.0454
-21.3173
-21.1163
-21.4515
-21.2765
-21.6537
-21.6291
-22.1319
-21.9339
-22.2122
-23.0857
-22.2319
-22.7836
-23.1088
-23.3981
-20.5938
-20.3824
-20.6365
-21.1063
-20.6369
-21.0045
-21.3027
-21.0791
-21.462
-21.2726
-21.6245
-21.6443
-22.0018
-21.937
-22.1227
-22.9401
-22.2182
-22.879
-23.2974
-23.6597
-20.588
-20.3739
-20.6066
-21.1078
-20.6089
-20.9879
-21.3005
-21.0521
-21.4713
-21.2728
-21.5842
-21.6652
-21.8812
-21.9342
-22.0492
-22.7574
-22.2037
-22.9415
-23.4436
-23.8358
-20.5786
-20.3674
-20.5836
-21.115
-20.5907
-20.9704
-21.3034
-21.0325
-21.4849
-21.2779
-21.5669
-21.7087
-21.7919
-21.9531
-22.0007
-22.6003
-22.2201
-22.9795
-23.5925
-24.0138
-20.5689
-20.3567
-20.5589
-21.126
-20.5824
-20.9434
-21.3105
-21.0178
-21.4895
-21.2906
-21.5348
-21.7495
-21.735
-21.9684
-21.971
-22.4764
-22.2636
-23.0056
-23.722
-24.2068
-20.555
-20.3459
-20.5414
-21.1355
-20.5703
-20.923
-21.3158
-20.9982
-21.4981
-21.2983
-21.5011
-21.801
-21.6862
-21.9694
-21.9691
-22.389
-22.3101
-23.0177
-23.8783
-24.3637
-20.5399
-20.3355
-20.5247
-21.1463
-20.5634
-20.8989
-21.331
-20.9807
-21.4987
-21.3205
-21.4673
-21.8479
-21.6697
-21.9704
-21.994
-22.3364
-22.369
-23.0303
-24.0462
-24.5004
-20.5213
-20.3248
-20.5138
-21.1549
-20.5554
-20.8812
-21.3351
-20.9656
-21.5002
-21.3151
-21.4419
-21.8898
-21.6344
-21.9839
-22.0416
-22.2835
-22.4123
-23.0486
-24.1848
-24.5961
-20.4994
-20.3161
-20.5047
-21.1631
-20.5494
-20.8639
-21.3517
-20.9505
-21.4974
-21.3344
-21.4116
-21.9516
-21.6318
-21.9829
-22.078
-22.2319
-22.4493
-23.0529
-24.3383
-24.6584
-20.4739
-20.3084
-20.5002
-21.1689
-20.5452
-20.8506
-21.3553
-20.9567
-21.5005
-21.3344
-21.3915
-21.99
-21.6017
-21.9857
-22.0867
-22.1722
-22.5041
-23.0776
-24.4127
-24.6959
-20.4481
-20.3058
-20.5016
-21.177
-20.5425
-20.8388
-21.3649
-20.9437
-21.5032
-21.3476
-21.3667
-22.0237
-21.574
-21.9554
-22.117
-22.125
-22.5276
-23.1243
-24.6084
-24.7087
-20.3954
-20.2984
-20.4996
-21.1761
-20.545
-20.8323
-21.3555
-20.9469
-21.5005
-21.3449
-21.3602
-22.0247
-21.5533
-21.9414
-22.1159
-22.137
-22.5443
-23.1153
-24.6485
-24.7399
-15.4807
-29.3524
-43.081
-51.1396
-54.5807
-56.0772
-55.7865
-57.6024
-52.588
-40.2102
-28.9092
-20.9217
-14.1411
-8.57275
-4.68105
-2.19705
-0.591408
0.357854
0.880476
1.18825
1.37448
1.473
1.51489
1.53656
1.56989
1.5915
1.62006
1.64375
1.65856
1.66295
1.65785
1.64605
1.63045
1.61293
1.59446
1.57549
1.55622
1.53674
1.51709
1.49729
1.47735
1.45726
1.43704
1.41667
1.39615
1.3755
1.35469
1.33375
1.31265
1.29141
1.27001
1.24847
1.22678
1.20493
1.18293
1.16077
1.13846
1.116
1.09337
1.07059
1.04764
1.02454
1.00127
0.97784
0.954244
0.930482
0.906554
0.882457
0.858191
0.833754
0.809146
0.784365
0.75941
0.73428
0.708973
0.683489
0.657824
0.631981
0.605954
0.579746
0.553352
0.526774
0.50001
0.473056
0.445916
0.41858
0.391058
0.363336
0.335424
0.307317
0.279004
0.250505
0.221794
0.192887
0.16378
0.134458
0.104941
0.0752122
0.04527
0.0151251
-16.8029
-30.059
-43.1931
-49.949
-53.4281
-54.6085
-54.2624
-55.8259
-51.1452
-39.6413
-29.1965
-21.6725
-14.9059
-9.07777
-5.03849
-2.46249
-0.767165
0.249461
0.807533
1.13516
1.33936
1.45361
1.50679
1.53544
1.55515
1.58743
1.61787
1.64254
1.65809
1.66303
1.65818
1.6464
1.63073
1.61313
1.5946
1.57559
1.55629
1.53679
1.51712
1.49731
1.47736
1.45727
1.43704
1.41667
1.39615
1.3755
1.35469
1.33375
1.31265
1.29141
1.27001
1.24847
1.22678
1.20493
1.18293
1.16077
1.13846
1.116
1.09337
1.07059
1.04764
1.02454
1.00127
0.97784
0.954244
0.930483
0.906553
0.882457
0.858191
0.833754
0.809147
0.784365
0.75941
0.73428
0.708973
0.683489
0.657824
0.63198
0.605954
0.579746
0.553352
0.526775
0.50001
0.473056
0.445916
0.41858
0.391058
0.363336
0.335423
0.307317
0.279004
0.250505
0.221794
0.192887
0.16378
0.134458
0.10494
0.0752124
0.0452698
0.0151252
-18.7132
-30.709
-42.0867
-48.2807
-51.994
-52.8318
-52.7152
-54.1372
-49.5917
-39.1769
-29.648
-22.459
-15.6324
-9.57863
-5.38801
-2.72213
-0.946785
0.139561
0.739422
1.09092
1.3091
1.43613
1.49687
1.53005
1.57951
1.59775
1.62565
1.6472
1.66085
1.66485
1.65945
1.64725
1.63127
1.61346
1.59481
1.57571
1.55636
1.53683
1.51715
1.49733
1.47737
1.45728
1.43705
1.41667
1.39616
1.3755
1.35469
1.33375
1.31265
1.29141
1.27001
1.24847
1.22678
1.20493
1.18293
1.16077
1.13846
1.116
1.09337
1.07059
1.04764
1.02454
1.00127
0.97784
0.954244
0.930483
0.906553
0.882457
0.858191
0.833754
0.809147
0.784365
0.75941
0.73428
0.708973
0.683489
0.657824
0.63198
0.605954
0.579746
0.553352
0.526775
0.50001
0.473056
0.445916
0.41858
0.391058
0.363336
0.335423
0.307317
0.279004
0.250505
0.221794
0.192887
0.16378
0.134458
0.10494
0.0752124
0.0452699
0.0151252
-20.6202
-30.998
-41.1471
-46.7958
-50.3554
-50.9352
-51.1734
-52.2764
-47.8023
-38.6126
-30.3474
-23.4913
-16.3857
-10.018
-5.69847
-2.95903
-1.10778
0.0414175
0.673087
1.04389
1.27899
1.41953
1.49103
1.52948
1.55202
1.58632
1.61692
1.64199
1.65843
1.66407
1.6594
1.64742
1.63146
1.61362
1.59493
1.5758
1.55643
1.53688
1.51718
1.49735
1.47738
1.45728
1.43705
1.41667
1.39616
1.3755
1.3547
1.33375
1.31265
1.29141
1.27001
1.24847
1.22678
1.20493
1.18293
1.16077
1.13846
1.116
1.09337
1.07059
1.04764
1.02454
1.00127
0.97784
0.954244
0.930483
0.906553
0.882457
0.858191
0.833754
0.809147
0.784365
0.75941
0.73428
0.708973
0.683489
0.657824
0.63198
0.605954
0.579746
0.553352
0.526775
0.50001
0.473056
0.445916
0.41858
0.391058
0.363336
0.335423
0.307317
0.279004
0.250505
0.221794
0.192887
0.16378
0.134458
0.10494
0.0752124
0.0452699
0.0151252
-21.9573
-31.1763
-40.2564
-45.2345
-48.7374
-49.3585
-49.5606
-50.0735
-45.9013
-38.0018
-31.0081
-24.601
-17.2685
-10.5183
-5.99498
-3.17634
-1.26252
-0.052435
0.635009
1.02171
1.26085
1.4071
1.48429
1.5267
1.5569
1.60366
1.63233
1.65201
1.66432
1.66762
1.66158
1.64871
1.6322
1.61404
1.59517
1.57595
1.55651
1.53693
1.51721
1.49737
1.4774
1.45729
1.43705
1.41668
1.39616
1.3755
1.3547
1.33375
1.31265
1.29141
1.27001
1.24847
1.22678
1.20493
1.18293
1.16077
1.13846
1.116
1.09337
1.07059
1.04764
1.02454
1.00127
0.97784
0.954244
0.930483
0.906553
0.882457
0.858191
0.833754
0.809147
0.784365
0.75941
0.73428
0.708973
0.683489
0.657824
0.63198
0.605954
0.579746
0.553352
0.526775
0.50001
0.473056
0.445916
0.41858
0.391058
0.363336
0.335423
0.307317
0.279004
0.250505
0.221794
0.192887
0.16378
0.134458
0.10494
0.0752124
0.04527
0.0151252
-22.814
-31.1133
-39.2592
-43.9057
-47.279
-47.9574
-47.7936
-47.7674
-44.0027
-37.5575
-31.7007
-25.7393
-18.0657
-10.9898
-6.27501
-3.37149
-1.3951
-0.145831
0.552382
0.969468
1.2305
1.39466
1.48038
1.52778
1.55984
1.58679
1.61691
1.64203
1.65964
1.66601
1.66128
1.6488
1.63237
1.61419
1.59529
1.57603
1.55657
1.53697
1.51724
1.49738
1.47741
1.4573
1.43706
1.41668
1.39616
1.3755
1.3547
1.33375
1.31265
1.29141
1.27001
1.24847
1.22678
1.20493
1.18293
1.16077
1.13846
1.116
1.09337
1.07059
1.04764
1.02454
1.00127
0.97784
0.954244
0.930483
0.906554
0.882457
0.858191
0.833754
0.809146
0.784365
0.75941
0.73428
0.708973
0.683489
0.657824
0.63198
0.605954
0.579746
0.553352
0.526775
0.50001
0.473056
0.445916
0.41858
0.391058
0.363337
0.335423
0.307317
0.279004
0.250505
0.221794
0.192887
0.16378
0.134458
0.10494
0.0752124
0.04527
0.0151252
-23.5523
-30.9334
-38.3243
-42.7437
-45.8435
-46.5792
-45.992
-45.5807
-42.2737
-37.2242
-32.5901
-27.0131
-18.8838
-11.4508
-6.52156
-3.51884
-1.4982
-0.213418
0.551271
0.961981
1.22045
1.3864
1.47749
1.52936
1.56607
1.61222
1.63992
1.65742
1.66832
1.67086
1.66404
1.65032
1.63318
1.61462
1.59553
1.57618
1.55666
1.53702
1.51727
1.4974
1.47742
1.45731
1.43706
1.41668
1.39616
1.3755
1.3547
1.33375
1.31265
1.29141
1.27001
1.24847
1.22678
1.20493
1.18293
1.16077
1.13846
1.116
1.09337
1.07059
1.04764
1.02454
1.00127
0.97784
0.954244
0.930483
0.906554
0.882457
0.858191
0.833754
0.809146
0.784365
0.75941
0.73428
0.708973
0.683489
0.657824
0.63198
0.605954
0.579746
0.553352
0.526775
0.50001
0.473056
0.445916
0.41858
0.391058
0.363337
0.335423
0.307317
0.279004
0.250505
0.221794
0.192887
0.16378
0.134458
0.10494
0.0752124
0.0452701
0.0151252
-24.2788
-30.7961
-37.5572
-41.6946
-44.4689
-45.2129
-44.3563
-43.5863
-40.7509
-36.8853
-33.74
-28.4642
-19.7318
-11.9016
-6.78844
-3.65026
-1.56569
-0.249609
0.495766
0.917891
1.20026
1.38093
1.47593
1.53122
1.57197
1.59998
1.62597
1.64669
1.66293
1.66913
1.66393
1.65062
1.63348
1.61484
1.59569
1.57628
1.55672
1.53706
1.51729
1.49742
1.47743
1.45731
1.43707
1.41668
1.39616
1.3755
1.3547
1.33375
1.31265
1.29141
1.27001
1.24847
1.22678
1.20493
1.18293
1.16077
1.13846
1.116
1.09337
1.07059
1.04764
1.02454
1.00127
0.97784
0.954244
0.930483
0.906554
0.882457
0.858191
0.833754
0.809146
0.784365
0.75941
0.73428
0.708973
0.683489
0.657824
0.63198
0.605954
0.579746
0.553352
0.526775
0.50001
0.473056
0.445916
0.41858
0.391058
0.363337
0.335423
0.307317
0.279004
0.250505
0.221794
0.192887
0.16378
0.134458
0.10494
0.0752125
0.0452702
0.0151252
-24.8911
-30.6814
-36.9167
-40.7697
-43.2025
-43.859
-42.913
-41.7986
-39.2803
-36.679
-35.0551
-30.1226
-20.6092
-12.3186
-7.02643
-3.77046
-1.62966
-0.293766
0.487335
0.911445
1.18707
1.3726
1.47247
1.53238
1.5776
1.6201
1.64533
1.65896
1.67014
1.67337
1.66638
1.65189
1.63412
1.61516
1.59587
1.57639
1.55679
1.5371
1.51732
1.49743
1.47744
1.45732
1.43707
1.41669
1.39617
1.3755
1.3547
1.33375
1.31265
1.29141
1.27001
1.24847
1.22678
1.20493
1.18293
1.16077
1.13846
1.116
1.09337
1.07059
1.04764
1.02454
1.00127
0.97784
0.954244
0.930483
0.906554
0.882457
0.858191
0.833754
0.809146
0.784365
0.75941
0.73428
0.708973
0.683489
0.657824
0.63198
0.605954
0.579746
0.553352
0.526775
0.50001
0.473056
0.445916
0.418579
0.391058
0.363337
0.335423
0.307317
0.279004
0.250505
0.221794
0.192887
0.16378
0.134458
0.10494
0.0752125
0.0452703
0.0151251
-25.3242
-30.5493
-36.3143
-39.9205
-42.0557
-42.5608
-41.5122
-40.1933
-37.7867
-36.5757
-36.56
-32.0424
-21.5216
-12.7633
-7.26841
-3.8662
-1.65991
-0.293217
0.460426
0.878812
1.16857
1.37256
1.47481
1.53587
1.58465
1.61801
1.633
1.65097
1.66704
1.67343
1.66735
1.65292
1.63487
1.6156
1.59612
1.57653
1.55687
1.53715
1.51734
1.49745
1.47745
1.45732
1.43707
1.41669
1.39617
1.3755
1.3547
1.33375
1.31265
1.29141
1.27001
1.24847
1.22678
1.20493
1.18293
1.16077
1.13846
1.116
1.09337
1.07059
1.04764
1.02454
1.00127
0.97784
0.954244
0.930482
0.906554
0.882457
0.858191
0.833754
0.809146
0.784365
0.75941
0.73428
0.708973
0.683489
0.657824
0.63198
0.605954
0.579746
0.553352
0.526775
0.50001
0.473056
0.445916
0.418579
0.391058
0.363337
0.335423
0.307317
0.279004
0.250505
0.221794
0.192887
0.16378
0.134458
0.10494
0.0752125
0.0452704
0.0151251
-25.6295
-30.4057
-35.7206
-39.1502
-41.0179
-41.3509
-40.0586
-38.5403
-36.2633
-36.572
-38.4496
-34.2141
-22.4135
-13.138
-7.48612
-3.94268
-1.70615
-0.308872
0.465509
0.882249
1.15614
1.35437
1.46492
1.53481
1.59138
1.63173
1.6492
1.65923
1.67043
1.67578
1.66851
1.65323
1.63491
1.61561
1.59618
1.5766
1.55693
1.53718
1.51737
1.49746
1.47746
1.45733
1.43708
1.41669
1.39617
1.3755
1.3547
1.33375
1.31265
1.29141
1.27001
1.24847
1.22678
1.20493
1.18293
1.16077
1.13846
1.116
1.09337
1.07059
1.04764
1.02454
1.00127
0.97784
0.954244
0.930482
0.906554
0.882457
0.858191
0.833754
0.809146
0.784365
0.75941
0.73428
0.708973
0.683489
0.657824
0.63198
0.605954
0.579746
0.553352
0.526775
0.50001
0.473056
0.445916
0.418579
0.391058
0.363337
0.335423
0.307317
0.279004
0.250505
0.221794
0.192887
0.16378
0.134458
0.10494
0.0752126
0.0452705
0.0151251
-25.895
-30.2983
-35.1923
-38.4623
-40.0965
-40.1977
-38.5557
-36.8746
-34.7275
-36.6713
-40.8585
-36.6763
-23.3546
-13.5176
-7.69623
-4.0052
-1.71849
-0.277916
0.481181
0.884082
1.15155
1.36531
1.49191
1.55798
1.60304
1.62941
1.64002
1.64915
1.6705
1.67823
1.6717
1.65571
1.63644
1.6164
1.59656
1.57678
1.55701
1.53723
1.51739
1.49748
1.47746
1.45733
1.43708
1.41669
1.39617
1.37551
1.3547
1.33375
1.31265
1.29141
1.27001
1.24847
1.22678
1.20493
1.18293
1.16077
1.13846
1.116
1.09337
1.07059
1.04764
1.02454
1.00127
0.97784
0.954244
0.930482
0.906554
0.882457
0.858191
0.833754
0.809146
0.784365
0.75941
0.73428
0.708973
0.683489
0.657824
0.63198
0.605954
0.579746
0.553352
0.526775
0.50001
0.473056
0.445916
0.418579
0.391058
0.363337
0.335423
0.307317
0.279004
0.250505
0.221794
0.192887
0.16378
0.134459
0.10494
0.0752126
0.0452706
0.0151251
-26.1569
-30.2241
-34.7063
-37.8142
-39.2739
-39.0893
-37.063
-35.0928
-33.0976
-37.0568
-43.7377
-39.5189
-24.2392
-13.8806
-7.85214
-4.00403
-1.7102
-0.238859
0.517522
0.901508
1.15299
1.35967
1.48752
1.55888
1.60876
1.64496
1.65645
1.66377
1.6711
1.67764
1.67027
1.6543
1.63556
1.61588
1.59644
1.5768
1.55705
1.53726
1.51741
1.49749
1.47747
1.45734
1.43708
1.41669
1.39617
1.37551
1.3547
1.33375
1.31265
1.29141
1.27001
1.24847
1.22678
1.20493
1.18293
1.16077
1.13846
1.116
1.09337
1.07059
1.04764
1.02454
1.00127
0.97784
0.954244
0.930482
0.906554
0.882457
0.858191
0.833754
0.809146
0.784365
0.75941
0.73428
0.708973
0.683489
0.657824
0.63198
0.605954
0.579746
0.553352
0.526775
0.50001
0.473056
0.445916
0.418579
0.391058
0.363337
0.335423
0.307317
0.279004
0.250505
0.221794
0.192886
0.16378
0.134459
0.10494
0.0752127
0.0452707
0.0151251
-26.3798
-30.1711
-34.2549
-37.1855
-38.5679
-38.0323
-35.5992
-33.136
-31.3191
-37.5945
-47.0652
-42.7739
-25.069
-14.2272
-7.98071
-3.98948
-1.69066
-0.158277
0.552292
0.90246
1.15606
1.37131
1.5038
1.57147
1.61766
1.64211
1.63886
1.65312
1.67165
1.68332
1.67662
1.65871
1.63802
1.61739
1.59702
1.57702
1.55714
1.5373
1.51743
1.4975
1.47748
1.45734
1.43708
1.4167
1.39617
1.37551
1.3547
1.33375
1.31265
1.29141
1.27001
1.24847
1.22678
1.20493
1.18293
1.16077
1.13846
1.116
1.09337
1.07059
1.04764
1.02454
1.00127
0.97784
0.954244
0.930482
0.906554
0.882457
0.858191
0.833754
0.809146
0.784365
0.75941
0.73428
0.708973
0.683489
0.657824
0.63198
0.605954
0.579746
0.553352
0.526775
0.50001
0.473056
0.445916
0.418579
0.391058
0.363337
0.335423
0.307317
0.279004
0.250505
0.221795
0.192886
0.16378
0.134459
0.104939
0.0752128
0.0452708
0.0151251
-26.6029
-30.1412
-33.9583
-36.6198
-37.9696
-37.0885
-34.2428
-30.9495
-29.4549
-38.0587
-50.5431
-45.826
-25.7209
-14.613
-8.04934
-3.88273
-1.66068
-0.0940144
0.599484
0.933118
1.16496
1.36876
1.50344
1.57447
1.62159
1.65539
1.67083
1.66469
1.67223
1.67716
1.67026
1.65464
1.63591
1.61639
1.59665
1.57697
1.55715
1.53732
1.51745
1.49751
1.47748
1.45735
1.43709
1.4167
1.39617
1.37551
1.3547
1.33375
1.31265
1.29141
1.27001
1.24847
1.22678
1.20493
1.18293
1.16077
1.13846
1.116
1.09337
1.07059
1.04764
1.02454
1.00127
0.97784
0.954244
0.930482
0.906554
0.882457
0.858191
0.833754
0.809146
0.784365
0.75941
0.73428
0.708973
0.683489
0.657824
0.63198
0.605954
0.579746
0.553352
0.526774
0.50001
0.473056
0.445916
0.418579
0.391058
0.363337
0.335423
0.307317
0.279004
0.250505
0.221795
0.192886
0.16378
0.134459
0.104939
0.0752128
0.0452709
0.015125
-26.8039
-30.172
-33.6756
-36.1753
-37.4705
-36.2149
-32.9882
-28.5231
-27.3013
-38.0313
-53.4321
-48.2992
-26.1655
-14.9651
-8.02854
-3.74902
-1.62513
0.0149828
0.650332
0.93126
1.16715
1.38537
1.52427
1.58692
1.62531
1.64988
1.65589
1.66684
1.6776
1.68506
1.67737
1.65961
1.63888
1.61829
1.59758
1.57727
1.55725
1.53736
1.51747
1.49752
1.47749
1.45735
1.43709
1.4167
1.39617
1.37551
1.3547
1.33375
1.31265
1.29141
1.27001
1.24847
1.22678
1.20493
1.18293
1.16077
1.13846
1.116
1.09337
1.07059
1.04764
1.02454
1.00127
0.97784
0.954244
0.930482
0.906554
0.882457
0.858191
0.833754
0.809146
0.784365
0.75941
0.73428
0.708973
0.683489
0.657824
0.63198
0.605954
0.579746
0.553352
0.526774
0.50001
0.473056
0.445916
0.418579
0.391058
0.363337
0.335423
0.307317
0.279004
0.250505
0.221795
0.192886
0.163781
0.134459
0.104939
0.0752129
0.045271
0.015125
-26.947
-30.2269
-33.4952
-35.6747
-37.0343
-35.5105
-31.7332
-25.9414
-24.6461
-37.041
-55.026
-49.6452
-26.372
-15.302
-7.94015
-3.57672
-1.58883
0.116131
0.716648
0.979337
1.186
1.39202
1.5308
1.59669
1.64
1.6706
1.67729
1.67189
1.67577
1.67899
1.67143
1.6555
1.6365
1.61685
1.59696
1.57705
1.55723
1.53737
1.51748
1.49753
1.47749
1.45735
1.43709
1.4167
1.39617
1.37551
1.3547
1.33375
1.31265
1.29141
1.27002
1.24847
1.22678
1.20493
1.18293
1.16077
1.13846
1.116
1.09337
1.07059
1.04764
1.02454
1.00127
0.97784
0.954244
0.930482
0.906554
0.882457
0.858191
0.833754
0.809146
0.784365
0.75941
0.73428
0.708973
0.683489
0.657824
0.63198
0.605954
0.579746
0.553352
0.526774
0.50001
0.473056
0.445916
0.418579
0.391058
0.363337
0.335423
0.307317
0.279004
0.250505
0.221795
0.192886
0.163781
0.134459
0.104939
0.075213
0.045271
0.0151249
-27.0714
-30.3076
-33.3027
-35.4848
-36.7054
-34.8865
-30.3944
-23.5033
-21.6504
-35.3793
-55.1638
-49.8818
-26.4415
-15.4822
-7.78597
-3.41756
-1.55508
0.210861
0.750012
0.987719
1.19603
1.40456
1.54268
1.60574
1.63874
1.65862
1.67221
1.67458
1.68293
1.68725
1.67849
1.66053
1.63963
1.61866
1.59786
1.57744
1.55736
1.53742
1.5175
1.49754
1.4775
1.45735
1.43709
1.4167
1.39617
1.37551
1.3547
1.33375
1.31265
1.29141
1.27002
1.24847
1.22678
1.20493
1.18293
1.16077
1.13846
1.116
1.09337
1.07059
1.04764
1.02454
1.00127
0.97784
0.954244
0.930482
0.906554
0.882457
0.858191
0.833754
0.809146
0.784365
0.75941
0.73428
0.708973
0.683489
0.657824
0.63198
0.605954
0.579746
0.553352
0.526774
0.50001
0.473056
0.445916
0.418579
0.391058
0.363337
0.335423
0.307318
0.279004
0.250505
0.221795
0.192886
0.163781
0.134459
0.104939
0.0752132
0.0452711
0.0151249
-27.1306
-30.4099
-33.1753
-35.1365
-36.4449
-34.5454
-28.9803
-21.4613
-19.0915
-34.0156
-54.114
-49.3116
-26.3389
-15.5733
-7.62496
-3.31753
-1.52442
0.274565
0.781908
1.01688
1.21092
1.41282
1.54851
1.61297
1.65131
1.6756
1.67853
1.67697
1.68028
1.68199
1.67335
1.65673
1.63724
1.61727
1.59718
1.57715
1.55727
1.53739
1.5175
1.49754
1.4775
1.45736
1.43709
1.4167
1.39617
1.37551
1.3547
1.33375
1.31265
1.29141
1.27002
1.24847
1.22678
1.20493
1.18293
1.16077
1.13846
1.116
1.09337
1.07059
1.04764
1.02454
1.00127
0.97784
0.954244
0.930482
0.906554
0.882457
0.858191
0.833754
0.809146
0.784365
0.75941
0.73428
0.708973
0.683489
0.657824
0.63198
0.605954
0.579746
0.553352
0.526774
0.50001
0.473056
0.445916
0.418579
0.391058
0.363337
0.335423
0.307318
0.279003
0.250505
0.221795
0.192885
0.163781
0.134459
0.104939
0.0752133
0.0452712
0.0151248
-27.148
-30.3537
-33.0762
-35.1428
-36.3001
-34.2988
-28.1019
-20.4509
-18.0822
-33.4574
-53.271
-48.6252
-26.2138
-15.5754
-7.56597
-3.27663
-1.50139
0.302311
0.78187
1.02093
1.21618
1.4167
1.55195
1.61483
1.64852
1.66947
1.6785
1.67925
1.68512
1.68775
1.67855
1.66059
1.6397
1.61868
1.5979
1.5775
1.55741
1.53744
1.51752
1.49755
1.4775
1.45736
1.43709
1.4167
1.39617
1.37551
1.3547
1.33375
1.31265
1.29141
1.27002
1.24847
1.22678
1.20493
1.18293
1.16077
1.13846
1.116
1.09337
1.07059
1.04764
1.02454
1.00127
0.97784
0.954244
0.930482
0.906554
0.882457
0.858191
0.833754
0.809146
0.784365
0.75941
0.73428
0.708973
0.683489
0.657824
0.63198
0.605954
0.579746
0.553352
0.526774
0.50001
0.473056
0.445916
0.418579
0.391058
0.363337
0.335423
0.307318
0.279003
0.250505
0.221795
0.192885
0.163781
0.134459
0.104939
0.0752134
0.0452713
0.0151248
-26.164
-28.8518
-31.267
-45.8115
-56.0663
-61.7277
-63.9052
-58.9499
-45.8257
-32.9034
-20.7988
-11.6252
-3.7812
0.632899
2.19048
3.13099
3.09832
2.80453
2.45899
2.16626
1.94595
1.7915
1.69766
1.65074
1.63653
1.64128
1.65288
1.66288
1.66686
1.66398
1.65536
1.64266
1.62738
1.61053
1.59272
1.57428
1.5554
1.5362
1.51674
1.49707
1.47721
1.45717
1.43698
1.41663
1.39613
1.37548
1.35469
1.33374
1.31265
1.29141
1.27001
1.24847
1.22678
1.20493
1.18293
1.16077
1.13846
1.116
1.09337
1.07059
1.04764
1.02454
1.00127
0.97784
0.954244
0.930482
0.906554
0.882457
0.858191
0.833755
0.809146
0.784366
0.75941
0.73428
0.708973
0.683488
0.657824
0.631981
0.605954
0.579746
0.553352
0.526774
0.50001
0.473056
0.445916
0.418579
0.391058
0.363337
0.335423
0.307317
0.279004
0.250505
0.221795
0.192885
0.163781
0.134458
0.104939
0.0752131
0.0452714
0.0151247
-26.2931
-29.2958
-32.5674
-46.4927
-56.5239
-61.9398
-64.1174
-59.3592
-46.2264
-32.9877
-20.9009
-11.698
-3.8974
0.559315
2.14574
3.09684
3.0796
2.79296
2.45179
2.16177
1.94324
1.79045
1.69637
1.64985
1.63593
1.64091
1.65274
1.66282
1.66684
1.66399
1.65538
1.6427
1.62743
1.61057
1.59275
1.5743
1.55541
1.53621
1.51675
1.49707
1.47721
1.45718
1.43698
1.41663
1.39613
1.37548
1.35469
1.33374
1.31265
1.29141
1.27001
1.24847
1.22678
1.20493
1.18293
1.16077
1.13846
1.116
1.09337
1.07059
1.04764
1.02454
1.00127
0.97784
0.954244
0.930482
0.906554
0.882457
0.858191
0.833755
0.809146
0.784366
0.75941
0.73428
0.708973
0.683488
0.657824
0.631981
0.605954
0.579746
0.553352
0.526774
0.50001
0.473056
0.445916
0.418579
0.391058
0.363337
0.335423
0.307317
0.279004
0.250505
0.221795
0.192885
0.163781
0.134458
0.104939
0.0752131
0.0452714
0.0151248
-26.4415
-29.2245
-35.1869
-47.9216
-57.3026
-62.2769
-64.3986
-60.0166
-46.9007
-33.1974
-21.1067
-11.8509
-4.13449
0.433797
2.04698
3.02097
3.03555
2.76664
2.43613
2.15204
1.93655
1.78516
1.69209
1.64635
1.63353
1.6396
1.65249
1.66326
1.66752
1.66463
1.65586
1.64301
1.62761
1.61068
1.59281
1.57433
1.55543
1.53622
1.51675
1.49708
1.47721
1.45718
1.43698
1.41663
1.39613
1.37548
1.35469
1.33374
1.31265
1.29141
1.27001
1.24847
1.22678
1.20493
1.18293
1.16077
1.13846
1.116
1.09337
1.07059
1.04764
1.02454
1.00127
0.97784
0.954244
0.930482
0.906554
0.882457
0.858191
0.833755
0.809146
0.784366
0.75941
0.73428
0.708973
0.683488
0.657824
0.631981
0.605954
0.579746
0.553352
0.526774
0.50001
0.473056
0.445916
0.418579
0.391058
0.363337
0.335423
0.307317
0.279004
0.250505
0.221795
0.192885
0.163781
0.134458
0.104939
0.0752129
0.0452713
0.0151248
-26.2101
-29.5101
-38.0778
-49.8719
-58.2076
-62.8603
-64.7321
-60.8921
-47.7503
-33.5246
-21.4242
-12.0734
-4.44249
0.231408
1.90007
2.90413
2.96258
2.7218
2.41033
2.13715
1.92738
1.77876
1.68706
1.64214
1.6302
1.63737
1.65127
1.66273
1.66737
1.66463
1.65589
1.64304
1.62764
1.6107
1.59283
1.57435
1.55544
1.53623
1.51676
1.49708
1.47721
1.45718
1.43698
1.41663
1.39613
1.37548
1.35469
1.33374
1.31265
1.29141
1.27001
1.24847
1.22678
1.20493
1.18293
1.16077
1.13846
1.116
1.09337
1.07059
1.04764
1.02454
1.00127
0.97784
0.954244
0.930482
0.906554
0.882457
0.858191
0.833755
0.809146
0.784366
0.75941
0.73428
0.708973
0.683488
0.657824
0.631981
0.605954
0.579746
0.553352
0.526774
0.50001
0.473056
0.445916
0.418579
0.391058
0.363337
0.335423
0.307317
0.279004
0.250505
0.221795
0.192885
0.163781
0.134458
0.104939
0.0752128
0.0452712
0.0151249
-25.5725
-29.302
-40.7762
-51.9187
-59.1039
-63.4317
-65.0957
-61.7745
-48.7179
-34.0237
-21.807
-12.3171
-4.79305
-0.0317881
1.70881
2.74753
2.86149
2.65714
2.37184
2.11494
1.9144
1.77015
1.68032
1.63637
1.62541
1.63382
1.64905
1.66162
1.66698
1.66461
1.65601
1.64318
1.62775
1.61078
1.59288
1.57438
1.55547
1.53624
1.51677
1.49709
1.47722
1.45718
1.43698
1.41663
1.39613
1.37548
1.35469
1.33374
1.31265
1.29141
1.27001
1.24847
1.22678
1.20493
1.18293
1.16077
1.13846
1.116
1.09337
1.07059
1.04764
1.02454
1.00127
0.97784
0.954244
0.930482
0.906554
0.882457
0.858191
0.833755
0.809146
0.784366
0.75941
0.73428
0.708973
0.683488
0.657824
0.631981
0.605954
0.579746
0.553352
0.526774
0.50001
0.473056
0.445916
0.418579
0.391058
0.363337
0.335423
0.307317
0.279004
0.250505
0.221795
0.192886
0.163781
0.134458
0.10494
0.0752127
0.0452711
0.0151249
-25.0278
-29.079
-43.0673
-53.8184
-59.8617
-64.0199
-65.4735
-62.6952
-49.74
-34.6285
-22.2477
-12.6023
-5.2037
-0.352041
1.48468
2.5567
2.73329
2.57297
2.32069
2.08515
1.89736
1.76009
1.67334
1.63047
1.62027
1.62982
1.64642
1.6602
1.66638
1.66444
1.65602
1.64324
1.62781
1.61083
1.59292
1.57441
1.55548
1.53625
1.51678
1.49709
1.47722
1.45718
1.43699
1.41663
1.39613
1.37548
1.35469
1.33374
1.31265
1.29141
1.27001
1.24847
1.22678
1.20493
1.18293
1.16077
1.13846
1.116
1.09337
1.07059
1.04764
1.02454
1.00127
0.97784
0.954244
0.930482
0.906554
0.882457
0.858191
0.833755
0.809146
0.784366
0.75941
0.73428
0.708973
0.683488
0.657824
0.631981
0.605954
0.579746
0.553352
0.526774
0.50001
0.473056
0.445916
0.418579
0.391058
0.363337
0.335423
0.307317
0.279004
0.250505
0.221795
0.192886
0.163781
0.134458
0.10494
0.0752126
0.045271
0.015125
-24.3065
-29.1122
-44.9014
-55.5718
-60.6259
-64.6689
-65.8804
-63.5905
-50.676
-35.33
-22.7207
-12.9515
-5.65419
-0.720165
1.22357
2.33564
2.58255
2.47124
2.25685
2.04759
1.87614
1.74842
1.66602
1.62461
1.61502
1.62547
1.64334
1.65837
1.66548
1.6641
1.65596
1.64328
1.62788
1.6109
1.59297
1.57445
1.55551
1.53627
1.51679
1.4971
1.47723
1.45719
1.43699
1.41664
1.39613
1.37548
1.35469
1.33374
1.31265
1.29141
1.27001
1.24847
1.22678
1.20493
1.18293
1.16077
1.13846
1.116
1.09337
1.07059
1.04764
1.02454
1.00127
0.97784
0.954244
0.930482
0.906554
0.882457
0.858191
0.833755
0.809146
0.784366
0.75941
0.73428
0.708973
0.683488
0.657824
0.631981
0.605954
0.579746
0.553352
0.526774
0.50001
0.473056
0.445916
0.418579
0.391058
0.363337
0.335424
0.307317
0.279004
0.250505
0.221795
0.192886
0.163781
0.134458
0.10494
0.0752125
0.0452709
0.015125
-23.9343
-29.5073
-46.4056
-57.017
-61.1602
-65.2274
-66.2487
-64.2662
-51.5718
-36.0386
-23.1953
-13.3098
-6.1069
-1.16175
0.933523
2.08656
2.40933
2.35476
2.18205
2.00284
1.85089
1.73483
1.65837
1.61905
1.61005
1.62115
1.64014
1.65639
1.66447
1.6637
1.65587
1.64333
1.62796
1.61097
1.59303
1.57449
1.55554
1.53629
1.5168
1.49711
1.47723
1.45719
1.43699
1.41664
1.39614
1.37549
1.35469
1.33374
1.31265
1.29141
1.27001
1.24847
1.22678
1.20493
1.18293
1.16077
1.13846
1.116
1.09337
1.07059
1.04764
1.02454
1.00127
0.97784
0.954244
0.930482
0.906554
0.882457
0.858191
0.833755
0.809146
0.784366
0.75941
0.73428
0.708973
0.683488
0.657824
0.631981
0.605954
0.579746
0.553352
0.526774
0.50001
0.473056
0.445916
0.418579
0.391058
0.363337
0.335424
0.307317
0.279004
0.250505
0.221795
0.192886
0.163781
0.134458
0.10494
0.0752124
0.0452709
0.015125
-23.7338
-29.8795
-47.6062
-58.0781
-61.5873
-65.7499
-66.6021
-64.8481
-52.4301
-36.748
-23.6514
-13.6387
-6.54942
-1.68609
0.601553
1.82034
2.21735
2.22511
2.098
1.95164
1.82196
1.71943
1.65007
1.61352
1.60532
1.61698
1.63693
1.65432
1.66337
1.66325
1.65576
1.64336
1.62803
1.61105
1.59309
1.57454
1.55557
1.53631
1.51682
1.49712
1.47724
1.45719
1.43699
1.41664
1.39614
1.37549
1.35469
1.33374
1.31265
1.29141
1.27001
1.24847
1.22678
1.20493
1.18293
1.16077
1.13846
1.116
1.09337
1.07059
1.04764
1.02454
1.00127
0.97784
0.954244
0.930482
0.906554
0.882457
0.858191
0.833755
0.809146
0.784366
0.75941
0.73428
0.708973
0.683488
0.657824
0.631981
0.605954
0.579746
0.553352
0.526774
0.50001
0.473056
0.445916
0.418579
0.391058
0.363336
0.335424
0.307317
0.279004
0.250505
0.221795
0.192886
0.163781
0.134458
0.10494
0.0752123
0.0452708
0.015125
-23.5473
-30.219
-48.5049
-58.9089
-61.9209
-66.0613
-66.8186
-65.3778
-53.1793
-37.4266
-24.116
-14.0215
-6.98958
-2.21357
0.22107
1.53145
2.00973
2.08439
2.0067
1.89528
1.78987
1.70233
1.64087
1.6077
1.60067
1.61297
1.63383
1.6523
1.66227
1.66278
1.65564
1.6434
1.62812
1.61113
1.59316
1.57459
1.55561
1.53634
1.51683
1.49713
1.47724
1.4572
1.437
1.41664
1.39614
1.37549
1.35469
1.33374
1.31265
1.29141
1.27001
1.24847
1.22678
1.20493
1.18293
1.16077
1.13846
1.116
1.09337
1.07059
1.04764
1.02454
1.00127
0.97784
0.954244
0.930482
0.906554
0.882457
0.858191
0.833755
0.809146
0.784366
0.75941
0.73428
0.708973
0.683488
0.657824
0.631981
0.605954
0.579746
0.553352
0.526774
0.50001
0.473056
0.445916
0.418579
0.391058
0.363336
0.335424
0.307317
0.279004
0.250505
0.221795
0.192886
0.163781
0.134458
0.10494
0.0752123
0.0452707
0.015125
-23.3054
-30.4619
-49.055
-59.3793
-61.9532
-66.1835
-66.7879
-65.8
-53.8526
-38.1326
-24.5725
-14.4134
-7.49503
-2.76378
-0.191338
1.21834
1.78892
1.93463
1.90964
1.83493
1.75514
1.68379
1.6308
1.60121
1.59585
1.60901
1.63084
1.65034
1.66121
1.66234
1.65554