/*--------------------------------*- C++ -*----------------------------------*\
| =========                 |                                                 |
| \\      /  F ield         | OpenFOAM: The Open Source CFD Toolbox           |
|  \\    /   O peration     | Version:  2.4.0                                 |
|   \\  /    A nd           | Web:      www.OpenFOAM.org                      |
|    \\/     M anipulation  |                                                 |
\*---------------------------------------------------------------------------*/
FoamFile
{
    version     2.0;
    format      ascii;
    class       surfaceScalarField;
    location    "1.46";
    object      phi;
}
// * * * * * * * * * * * * * * * * * * * * * * * * * * * * * * * * * * * * * //

dimensions      [0 3 -1 0 0 0 0];

internalField   nonuniform List<scalar> 
8640
(
0.0503642
-0.000364242
0.0503036
6.06526e-05
0.0479437
0.00235987
0.0487581
-0.000814425
0.046838
0.00192016
0.0472207
-0.000382727
0.0459185
0.00130224
0.0477908
-0.00187238
0.0466657
0.00112514
0.0466901
-2.44392e-05
0.0484462
-0.00175609
0.0421851
0.00626114
0.0446439
-0.00245878
0.0414421
0.00320182
0.0392092
0.00223289
0.0424564
-0.00324726
0.0407877
0.00166872
0.0390759
0.00171182
0.039572
-0.000496087
0.00288357
0.0366884
0.0506686
-0.00103281
0.049854
0.000875198
0.0493847
0.0028292
0.0516319
-0.00306161
0.0495686
0.00398347
0.0511121
-0.0019263
0.0496671
0.00274727
0.0484659
-0.000671123
0.0496493
-5.83499e-05
0.0478329
0.001792
0.0528835
-0.00680666
0.0505637
0.00858093
0.0522317
-0.00412675
0.0521509
0.00328255
0.046149
0.00823482
0.0506121
-0.00771034
0.048578
0.0037028
0.0431396
0.00715023
0.0454384
-0.0027949
-0.000671174
0.0489931
0.0501911
-0.00122388
0.0508176
0.000248676
0.0507285
0.00291833
0.0517733
-0.00410645
0.0476228
0.00813401
0.0489596
-0.00326311
0.0512434
0.000463377
0.0479436
0.00262875
0.0512803
-0.00339506
0.0493644
0.00370785
0.0505452
-0.00798746
0.0503334
0.00879275
0.0517394
-0.00553277
0.0544784
0.000543554
0.0501512
0.0125621
0.054161
-0.0117202
0.0526324
0.00523145
0.047359
0.0124236
0.0479137
-0.00334958
-0.00500288
0.0522454
0.0509032
-0.00212705
0.0503951
0.000756723
0.0486349
0.00467858
0.0523228
-0.00779433
0.0488118
0.0116449
0.0480831
-0.00253437
0.0524849
-0.00393843
0.0485829
0.00653072
0.0508207
-0.00563277
0.0519169
0.00261164
0.0510022
-0.00707283
0.0507491
0.00904589
0.0519192
-0.00670291
0.0540897
-0.0016269
0.050785
0.0158668
0.0533515
-0.0142867
0.0539276
0.0046553
0.051512
0.0148392
0.0502509
-0.0020885
-0.00713409
0.0523822
0.0507409
-0.00286798
0.0505357
0.000961926
0.0487886
0.00642574
0.0513503
-0.0103561
0.0492088
0.0137865
0.0490035
-0.00232907
0.052416
-0.00735102
0.0493939
0.00955291
0.0500973
-0.00633626
0.0529726
-0.00026364
0.0495906
-0.00369082
0.0493967
0.00923983
0.0519647
-0.00927097
0.052539
-0.00220117
0.0498111
0.0185947
0.0523314
-0.016807
0.0531127
0.00387394
0.0518166
0.0161353
0.049897
-0.0001689
-0.00800648
0.0507694
0.0499737
-0.00284165
0.0511564
-0.000220833
0.05
0.00758214
0.0502704
-0.0106265
0.0502211
0.0138359
0.0492316
-0.00133962
0.0507846
-0.00890401
0.0502189
0.0101186
0.0495449
-0.00566231
0.0524343
-0.00315303
0.0490625
-0.000319024
0.0489041
0.00939827
0.0515346
-0.0119015
0.0500417
-0.000708293
0.0489399
0.0196966
0.0524174
-0.0202845
0.0512262
0.0050652
0.0500605
0.017301
0.0509382
-0.00104664
-0.00816977
0.0511015
0.0497514
-0.00259303
0.0509533
-0.00142279
0.0501087
0.00842674
0.0496116
-0.0101293
0.0509964
0.012451
0.0499715
-0.000314726
0.0507538
-0.00968627
0.0516972
0.00917522
0.0498127
-0.00377779
0.0519608
-0.00530116
0.0497446
0.00189718
0.0495128
0.00963012
0.0515604
-0.0139491
0.0496964
0.00115571
0.0495717
0.0198213
0.0528758
-0.0235886
0.0505362
0.00740475
0.0494501
0.0183871
0.0525308
-0.00412732
-0.00782161
0.0521826
0.0494147
-0.00200768
0.0500597
-0.00206786
0.0505963
0.00789017
0.049587
-0.00912001
0.051425
0.010613
0.0508814
0.000228878
0.0500232
-0.00882805
0.0517925
0.00740586
0.050421
-0.00240627
0.0508577
-0.0057379
0.050513
0.00224194
0.0509987
0.00914445
0.0508372
-0.0137877
0.0499354
0.00205748
0.050822
0.0189346
0.0519398
-0.0247064
0.0497122
0.0096324
0.0498791
0.0182201
0.0528332
-0.00708136
-0.00653925
0.0515508
0.0497511
-0.00175875
0.0498991
-0.00221588
0.0505979
0.00719134
0.049583
-0.00810507
0.0511356
0.00906043
0.0510468
0.000317684
0.0497925
-0.00757379
0.0511595
0.00603882
0.050705
-0.00195176
0.0501279
-0.00516078
0.0505857
0.00178416
0.0519421
0.00778804
0.0500069
-0.0118525
0.0505506
0.00151376
0.0519285
0.0175568
0.0502053
-0.0229832
0.0495876
0.01025
0.0509753
0.0168324
0.0520653
-0.00817131
-0.00430264
0.0498287
0.0499095
-0.00166822
0.0493655
-0.00167191
0.0504066
0.00615024
0.0495022
-0.00720064
0.0506063
0.00795627
0.0509361
-1.20897e-05
0.0496477
-0.00628539
0.0504879
0.00519861
0.050752
-0.00221582
0.0495311
-0.00393986
0.0502541
0.00106112
0.0521682
0.00587392
0.0492385
-0.00892271
0.0506867
6.54898e-05
0.052471
0.0157725
0.0491736
-0.0196857
0.0497954
0.00962822
0.0519127
0.0147151
0.0517196
-0.00797824
-0.00126552
0.0486825
0.0495712
-0.00123937
0.0495381
-0.00163891
0.050485
0.00520337
0.0495555
-0.00627116
0.050624
0.00688777
0.0507239
-0.000111949
0.0497083
-0.00526978
0.0504649
0.00444195
0.0507651
-0.00251596
0.0495963
-0.00277105
0.0504381
0.000219321
0.0519127
0.00439926
0.0490465
-0.00605645
0.0508002
-0.00168824
0.0524435
0.0141292
0.0489085
-0.0161507
0.0504736
0.00806313
0.0526533
0.0125354
0.0514495
-0.00677446
0.00127272
0.0489113
0.0498516
-0.001091
0.0496233
-0.00141056
0.0503267
0.00449997
0.0498987
-0.00584317
0.0505598
0.0062266
0.0509674
-0.000519473
0.0500658
-0.00436821
0.0505286
0.00397915
0.0509301
-0.0029175
0.049715
-0.00155587
0.0504109
-0.000476623
0.0517402
0.00306999
0.0493136
-0.00362986
0.0507362
-0.00311081
0.0524075
0.0124579
0.0491765
-0.0129198
0.0509662
0.0062734
0.052991
0.0105107
0.0513107
-0.00509423
0.00243492
0.0501485
0.0497694
-0.000860427
0.0495554
-0.00119656
0.0506445
0.00341089
0.0498006
-0.00499926
0.0505008
0.00552635
0.0508978
-0.00091642
0.0496775
-0.00314791
0.0503712
0.00328542
0.0505932
-0.00313946
0.0497401
-0.000702831
0.0502566
-0.000993063
0.0513904
0.00193617
0.0495558
-0.00179529
0.0503527
-0.0039077
0.0520957
0.010715
0.0492298
-0.0100539
0.0506245
0.0048787
0.0531869
0.00794824
0.0510332
-0.0029405
0.00314241
0.0503257
0.0498844
-0.000744824
0.0498413
-0.00115348
0.0504654
0.00278681
0.0497394
-0.0042733
0.0505339
0.00473188
0.0506537
-0.00103617
0.0498744
-0.00236868
0.0505807
0.00257914
0.0505606
-0.00311931
0.0500527
-0.000194971
0.0503169
-0.00125728
0.0513116
0.000941536
0.0499981
-0.000481852
0.0501958
-0.00410532
0.051855
0.00905576
0.0499275
-0.00812641
0.0500717
0.00473448
0.0526821
0.00533784
0.0518696
-0.00212793
0.00463894
0.050373
0.0498533
-0.000598166
0.0495827
-0.000882866
0.0505334
0.00183612
0.0497988
-0.00353869
0.0504543
0.00407637
0.0509032
-0.00148501
0.049744
-0.0012095
0.0506563
0.00166683
0.0504705
-0.00293356
0.050034
0.000241525
0.0505215
-0.00174469
0.0509152
0.000547757
0.0500816
0.00035182
0.0504709
-0.00449466
0.0510148
0.0085119
0.0499461
-0.00705774
0.050605
0.00407559
0.0517552
0.00418763
0.0515467
-0.00191941
0.00451281
0.0516728
0.049758
-0.000356194
0.0498642
-0.000989045
0.050595
0.00110529
0.0496961
-0.00263979
0.050663
0.0031095
0.0506933
-0.00151533
0.049683
-0.00019913
0.0508854
0.000464385
0.0502106
-0.00225879
0.0500591
0.000393074
0.0504784
-0.00216406
0.0509108
0.000115449
0.0498127
0.00144989
0.050441
-0.00512302
0.0513579
0.00759503
0.0497232
-0.00542308
0.0509145
0.00288436
0.0524248
0.00267731
0.0512982
-0.00079286
0.00391081
0.0519002
0.0498982
-0.000254436
0.0499273
-0.00101806
0.0505219
0.00051065
0.0498417
-0.00195959
0.0506247
0.00232654
0.0506425
-0.00153315
0.0499929
0.000450469
0.0506936
-0.000236288
0.0503809
-0.00194608
0.0503998
0.000374118
0.0502015
-0.00196572
0.0510673
-0.000750414
0.050262
0.00225518
0.0501307
-0.00499169
0.0519031
0.00582267
0.0504197
-0.00393967
0.0510443
0.00225976
0.0528789
0.000842671
0.0521834
-9.73784e-05
0.00431591
0.0517783
0.0499577
-0.000212172
0.0500966
-0.00115694
0.0505049
0.00010234
0.0497663
-0.00122098
0.050735
0.0013579
0.0503583
-0.00115653
0.0502399
0.000568883
0.050771
-0.000767361
0.0504156
-0.00159066
0.050481
0.000308665
0.0504064
-0.00189113
0.0506835
-0.00102744
0.0505227
0.00241591
0.0500195
-0.00448846
0.0520139
0.0038283
0.0502106
-0.00213635
0.0512777
0.00119258
0.0528531
-0.000732696
0.0524091
0.000346601
0.00471201
0.052013
0.0501343
-0.000346504
0.0500459
-0.00106851
0.0501689
-2.06787e-05
0.0497048
-0.000756876
0.0507019
0.000360767
0.0501433
-0.00059791
0.0507183
-6.07349e-06
0.0505762
-0.000625263
0.0503512
-0.00136571
0.0503692
0.000290715
0.0499184
-0.00144037
0.049881
-0.000990005
0.0504549
0.00184202
0.0489005
-0.00293407
0.0513816
0.00134723
0.0494097
-0.000164509
0.0506808
-7.85514e-05
0.0515569
-0.00160873
0.0510042
0.000899331
0.00309117
0.052625
0.0496535
0.048585
0.0485643
0.0478074
0.0481682
0.0475703
0.0475642
0.046939
0.0455732
0.045864
0.0444236
0.0434336
0.0452756
0.0423415
0.0436888
0.0435243
0.0434457
0.041837
0.0427363
0.0458275
0.019655
0.0268826
-0.00984915
0.0272202
0.0537331
-0.0612982
0.0328643
0.0236381
-0.0292822
0.0327927
0.00342009
-0.00334851
0.0417735
-0.00368982
-0.00529097
0.0483342
-0.0311629
0.0246022
0.0485487
-0.0126721
0.0124575
0.0497419
-0.0301997
0.0290065
0.0507755
-0.0837373
0.0827037
0.04836
-0.105321
0.107736
0.0449843
-0.0952709
0.0986466
0.0408396
-0.0730882
0.0772329
0.0375646
-0.049558
0.052833
0.0343391
-0.0304873
0.0337127
0.0321034
-0.0225828
0.0248186
0.0306141
-0.0162575
0.0177468
0.0285356
-0.0115954
0.0136739
0.0274988
-0.00911772
0.0101546
0.0274902
-0.00539921
0.00540775
0.0272424
-0.00154257
0.00179043
0.0267932
0.000933091
-0.000483928
0.0266393
0.00219399
-0.00204011
0.0267952
0.00232607
-0.00248197
0.0269776
0.00136165
-0.00154407
0.0269752
-0.000209145
0.000211576
0.0267769
-0.00176539
0.0019637
0.0264876
-0.0028986
0.00318789
0.0262077
-0.00343546
0.00371535
0.0259878
-0.00339784
0.00361772
0.0258345
-0.00294571
0.00309909
0.0257339
-0.00230345
0.00240398
0.02567
-0.00166327
0.00172724
0.0256301
-0.00113206
0.00117196
0.0256058
-0.000738556
0.000762853
0.0255914
-0.000467779
0.000482125
0.0255833
-0.000290334
0.000298495
0.0255788
-0.000177704
0.000182169
0.0255764
-0.000107681
0.000110037
0.0255752
-6.4753e-05
6.59571e-05
0.0255746
-3.86934e-05
3.92931e-05
0.0255743
-2.2997e-05
2.32911e-05
0.0255742
-1.35991e-05
1.37427e-05
0.0255741
-8.00705e-06
8.07657e-06
0.0255741
-4.69568e-06
4.72923e-06
0.0255741
-2.73913e-06
2.75642e-06
0.0255741
-1.5957e-06
1.60506e-06
0.0255741
-9.23325e-07
9.27739e-07
0.0255741
-5.3442e-07
5.36347e-07
0.0255741
-3.08319e-07
3.09526e-07
0.0255741
-1.73946e-07
1.75115e-07
0.0255741
-1.01855e-07
1.02786e-07
0.0255741
-5.6327e-08
5.65331e-08
0.0255741
-3.18584e-08
3.2026e-08
0.0255741
-1.98866e-08
2.04858e-08
0.0255741
-8.62262e-09
8.44982e-09
0.0255741
-7.39655e-09
6.37849e-09
0.0255741
-4.36482e-09
3.96433e-09
0.0255741
-1.06195e-11
7.57981e-10
0.0255741
-2.52418e-09
3.48049e-09
0.0255741
-4.69841e-10
5.25269e-10
0.0255741
3.64763e-10
-1.15124e-09
0.0255741
-2.33363e-09
1.79343e-09
0.0255741
1.23136e-09
-9.78377e-10
0.0255741
8.39008e-10
-5.53197e-10
0.0255741
-2.21249e-09
1.79026e-09
0.0255741
9.4531e-10
-1.6235e-09
0.0255741
1.96125e-10
-2.61458e-10
0.0255741
-1.68953e-09
2.22958e-09
0.0255741
2.0539e-09
-1.63974e-09
0.0255741
4.15478e-10
-7.38269e-10
0.0255741
-2.67154e-09
1.85364e-09
0.0255741
1.28863e-09
-1.56901e-09
0.0255741
2.13996e-09
-1.39653e-09
0.0255741
-1.79632e-09
2.83279e-09
0.0255741
4.3996e-10
-1.0779e-10
0.0255741
2.18091e-09
-2.5224e-09
0.0255741
-1.34452e-09
7.48287e-10
0.0255741
-1.16618e-09
1.1532e-09
0.0255741
1.65044e-09
-1.35263e-09
0.0255741
1.46565e-09
-8.01718e-10
0.0255741
-1.8293e-09
1.72362e-09
0.0255741
-3.98704e-10
6.12599e-13
0.0255741
7.94788e-10
-1.68905e-09
0.0255741
2.36224e-10
-8.93348e-10
0.0255741
-1.08785e-09
1.63189e-09
0.0255741
-9.50101e-10
8.02998e-10
0.0255741
2.78589e-09
-1.1398e-09
0.0255741
-3.75127e-11
-1.07357e-09
0.0255741
-8.84668e-10
1.11655e-09
0.0255741
-1.0815e-09
1.44204e-09
0.0255741
2.64225e-11
-1.66726e-09
0.0255741
4.08394e-09
-8.2751e-10
0.0255741
-3.287e-09
1.24625e-09
0.0255741
-3.43107e-09
2.84596e-09
0.0255741
2.15298e-09
-3.71416e-11
0.0255741
-2.43624e-09
-9.76396e-10
0.0255741
1.59716e-09
-1.85141e-10
0.0255741
3.34487e-10
1.41653e-09
0.0255741
-2.73504e-09
1.17179e-09
-5.64043e-10
2.4961e-10
0.0341117
0.041764
0.0431935
0.0446512
0.0505562
0.0162754
0.0450083
0.00896801
0.0497376
-0.00841912
0.0498526
-0.0312779
0.0483632
-0.0111827
0.0517625
-0.033599
0.053129
-0.0851038
0.0504552
-0.102647
0.0464881
-0.0913038
0.0414606
-0.0680607
0.0377491
-0.0458464
0.0352495
-0.0279877
0.0328432
-0.0201765
0.0312218
-0.0146361
0.0290664
-0.00944013
0.0273805
-0.00743176
0.0271844
-0.00520314
0.027328
-0.00168616
0.0271153
0.00114582
0.026867
0.00244229
0.0268044
0.00238862
0.0268039
0.00136215
0.0267373
-0.000142525
0.026587
-0.00161512
0.0263903
-0.00270191
0.0261903
-0.0032354
0.0260148
-0.00322236
0.0258747
-0.00280561
0.0257701
-0.00219888
0.0256965
-0.00158961
0.0256474
-0.00108299
0.0256164
-0.00070755
0.0255977
-0.000449098
0.0255869
-0.000279549
0.0255809
-0.000171699
0.0255777
-0.000104432
0.025576
-6.30293e-05
0.0255751
-3.77936e-05
0.0255746
-2.25255e-05
0.0255743
-1.33507e-05
0.0255742
-7.87825e-06
0.0255741
-4.62695e-06
0.0255741
-2.70106e-06
0.0255741
-1.57309e-06
0.0255741
-9.12542e-07
0.0255741
-5.29008e-07
0.0255741
-3.04793e-07
0.0255741
-1.71341e-07
0.0255741
-9.84119e-08
0.0255741
-5.6783e-08
0.0255741
-3.15244e-08
0.0255741
-1.78079e-08
0.0255741
-1.03015e-08
0.0255741
-8.17193e-09
0.0255741
-4.56368e-09
0.0255741
-6.47898e-12
0.0255741
1.22647e-10
0.0255741
-7.2115e-10
0.0255741
-2.14382e-09
0.0255741
-1.77774e-09
0.0255741
1.35267e-09
0.0255741
6.22042e-10
0.0255741
-1.73967e-09
0.0255741
-1.32911e-09
0.0255741
-3.45506e-10
0.0255741
1.16396e-09
0.0255741
1.68447e-09
0.0255741
-1.03155e-09
0.0255741
-2.41057e-09
0.0255741
-1.42354e-10
0.0255741
2.30278e-09
0.0255741
2.43814e-09
0.0255741
8.63682e-10
0.0255741
-6.23587e-10
0.0255741
-1.25296e-09
0.0255741
6.57356e-11
0.0255741
9.48189e-10
0.0255741
1.84227e-09
0.0255741
-3.91926e-10
0.0255741
-9.09299e-10
0.0255741
-2.06073e-09
0.0255741
-1.56674e-09
0.0255741
8.51528e-10
0.0255741
3.06359e-10
0.0255741
3.90751e-09
0.0255741
-2.19138e-09
0.0255741
-1.16165e-10
0.0255741
4.68226e-10
0.0255741
-2.50035e-09
0.0255741
6.80844e-09
0.0255741
-4.81967e-09
0.0255741
-2.86891e-09
0.0255741
3.19794e-09
0.0255741
-7.03183e-09
0.0255741
2.45449e-09
0.0255741
3.26118e-09
0.0255741
-3.60438e-09
-7.93767e-10
0.042324
0.0516854
0.050858
0.0361172
0.0588167
0.00831672
0.0579367
0.00984801
0.0600184
-0.0105008
0.0520863
-0.0233458
0.0487695
-0.00786584
0.0545138
-0.0393433
0.056308
-0.0868981
0.0526636
-0.0990024
0.0476429
-0.086283
0.0418183
-0.0622361
0.0377064
-0.0417345
0.0360802
-0.0263614
0.0339257
-0.0180221
0.031872
-0.0125824
0.0297129
-0.00728102
0.0276598
-0.00537865
0.0269905
-0.00453383
0.0272877
-0.00198339
0.0274368
0.000996682
0.0272287
0.00265042
0.0269426
0.0026747
0.0267409
0.00156386
0.0266084
-1.00388e-05
0.0264743
-0.00148101
0.0263264
-0.00255395
0.0261722
-0.00308125
0.026027
-0.00307716
0.0259002
-0.00267878
0.0257966
-0.00209533
0.025718
-0.00151098
0.0256626
-0.00102763
0.0256263
-0.000671201
0.0256038
-0.000426614
0.0255906
-0.000266309
0.0255831
-0.000164196
0.0255789
-0.000100297
0.0255767
-6.07881e-05
0.0255755
-3.65899e-05
0.0255748
-2.18789e-05
0.0255745
-1.30013e-05
0.0255743
-7.68816e-06
0.0255742
-4.5221e-06
0.0255741
-2.64256e-06
0.0255741
-1.54001e-06
0.0255741
-8.9462e-07
0.0255741
-5.18592e-07
0.0255741
-2.98729e-07
0.0255741
-1.6802e-07
0.0255741
-9.58171e-08
0.0255741
-5.59498e-08
0.0255741
-3.10925e-08
0.0255741
-1.68598e-08
0.0255741
-1.06365e-08
0.0255741
-8.3923e-09
0.0255741
-4.37808e-09
0.0255741
-3.11364e-11
0.0255741
8.12011e-10
0.0255741
-7.28623e-10
0.0255741
-2.73151e-09
0.0255741
-1.62072e-09
0.0255741
1.24937e-09
0.0255741
5.53205e-10
0.0255741
-1.56874e-09
0.0255741
-1.89385e-09
0.0255741
-4.84737e-10
0.0255741
1.80993e-09
0.0255741
1.50421e-09
0.0255741
-1.33215e-09
0.0255741
-2.2135e-09
0.0255741
-4.65467e-10
0.0255741
2.25944e-09
0.0255741
3.43408e-09
0.0255741
9.56609e-10
0.0255741
-1.24872e-09
0.0255741
-1.19333e-09
0.0255741
5.38647e-10
0.0255741
5.84921e-10
0.0255741
1.86548e-09
0.0255741
-1.22707e-10
0.0255741
-8.2393e-10
0.0255741
-2.81562e-09
0.0255741
-2.15602e-09
0.0255741
1.6363e-09
0.0255741
1.67856e-11
0.0255741
4.97662e-09
0.0255741
-3.56559e-09
0.0255741
5.6792e-10
0.0255741
1.39148e-09
0.0255741
-4.4931e-09
0.0255741
9.34516e-09
0.0255741
-6.75165e-09
0.0255741
-3.05847e-09
0.0255741
5.54928e-09
0.0255741
-1.04696e-08
0.0255741
3.65174e-09
0.0255741
5.17848e-09
0.0255741
-5.13334e-09
-1.2871e-09
0.0489666
0.055101
0.0530926
0.0319912
0.0559708
0.00543847
0.0602607
0.00555813
0.0645602
-0.0148003
0.0557035
-0.0144891
0.0538447
-0.00600702
0.0586357
-0.0441343
0.0573013
-0.0855637
0.0529556
-0.0946567
0.0497388
-0.0830662
0.0444256
-0.0569229
0.0382533
-0.0355622
0.0354479
-0.023556
0.0340209
-0.0165951
0.0324137
-0.0109752
0.0302746
-0.00514194
0.0279668
-0.0030709
0.0268196
-0.00338663
0.0269401
-0.00210386
0.0273456
0.000591161
0.0274651
0.00253099
0.0273387
0.00280102
0.0271151
0.00178748
0.0268611
0.000243942
0.0266277
-0.00124752
0.026416
-0.00234229
0.0262305
-0.00289575
0.0260706
-0.00291723
0.0259345
-0.00254271
0.0258228
-0.0019836
0.0257366
-0.00142485
0.0256751
-0.00096613
0.0256343
-0.00063037
0.0256088
-0.000401104
0.0255936
-0.00025113
0.0255849
-0.000155487
0.02558
-9.54238e-05
0.0255773
-5.81002e-05
0.0255759
-3.51165e-05
0.0255751
-2.10711e-05
0.0255746
-1.25561e-05
0.0255744
-7.44052e-06
0.0255742
-4.38308e-06
0.0255742
-2.56432e-06
0.0255741
-1.49595e-06
0.0255741
-8.69705e-07
0.0255741
-5.03891e-07
0.0255741
-2.90351e-07
0.0255741
-1.63634e-07
0.0255741
-9.31136e-08
0.0255741
-5.44386e-08
0.0255741
-3.04652e-08
0.0255741
-1.64046e-08
0.0255741
-1.04606e-08
0.0255741
-8.05464e-09
0.0255741
-4.04815e-09
0.0255741
-7.57125e-11
0.0255741
6.36636e-10
0.0255741
-7.22811e-10
0.0255741
-2.5123e-09
0.0255741
-1.54964e-09
0.0255741
1.08214e-09
0.0255741
4.21448e-10
0.0255741
-1.51442e-09
0.0255741
-1.80871e-09
0.0255741
-4.89722e-10
0.0255741
1.72292e-09
0.0255741
1.3566e-09
0.0255741
-1.29416e-09
0.0255741
-1.95077e-09
0.0255741
-3.60098e-10
0.0255741
2.06872e-09
0.0255741
3.30054e-09
0.0255741
8.81609e-10
0.0255741
-1.10791e-09
0.0255741
-9.80054e-10
0.0255741
7.06765e-10
0.0255741
2.2951e-10
0.0255741
1.79359e-09
0.0255741
-2.59393e-10
0.0255741
-5.39171e-10
0.0255741
-2.82696e-09
0.0255741
-2.27852e-09
0.0255741
2.02347e-09
0.0255741
-8.43502e-10
0.0255741
5.98485e-09
0.0255741
-4.70555e-09
0.0255741
1.33492e-09
0.0255741
2.09902e-09
0.0255741
-6.35051e-09
0.0255741
1.18542e-08
0.0255741
-8.96096e-09
0.0255741
-3.27678e-09
0.0255741
8.21215e-09
0.0255741
-1.34168e-08
0.0255741
4.89498e-09
0.0255741
6.73558e-09
0.0255741
-6.88442e-09
-1.82657e-09
0.0543516
0.0515188
0.0553931
0.0309497
0.0540645
0.00676698
0.0597814
-0.000158728
0.0639797
-0.0189986
0.0591336
-0.00964292
0.0593802
-0.00625365
0.0608758
-0.0456299
0.0579279
-0.0826158
0.0527479
-0.0894767
0.048672
-0.0789903
0.0448787
-0.0531297
0.0400533
-0.0307367
0.0360517
-0.0195545
0.0334581
-0.0140015
0.0321478
-0.00966485
0.0311549
-0.00414907
0.0292296
-0.00114554
0.0275055
-0.00166255
0.0270665
-0.00166487
0.0273373
0.000320403
0.0274929
0.00237537
0.0273637
0.00293019
0.0271161
0.00203513
0.0268826
0.000477453
0.026661
-0.00102596
0.0264544
-0.00213572
0.0262686
-0.00270987
0.0261083
-0.00275698
0.0259699
-0.00240433
0.0258524
-0.00186606
0.0257585
-0.00133098
0.0256897
-0.000897349
0.0256434
-0.000584006
0.0256142
-0.000371919
0.0255968
-0.000233706
0.0255867
-0.000145463
0.0255811
-8.97903e-05
0.025578
-5.4971e-05
0.0255763
-3.33838e-05
0.0255753
-2.01097e-05
0.0255748
-1.20194e-05
0.0255745
-7.13815e-06
0.0255743
-4.21175e-06
0.0255742
-2.46707e-06
0.0255741
-1.44073e-06
0.0255741
-8.38306e-07
0.0255741
-4.85303e-07
0.0255741
-2.79673e-07
0.0255741
-1.58024e-07
0.0255741
-8.99231e-08
0.0255741
-5.26694e-08
0.0255741
-2.9614e-08
0.0255741
-1.57658e-08
0.0255741
-1.00233e-08
0.0255741
-7.77964e-09
0.0255741
-3.71715e-09
0.0255741
-3.94806e-11
0.0255741
4.88928e-10
0.0255741
-6.79874e-10
0.0255741
-2.33866e-09
0.0255741
-1.51342e-09
0.0255741
9.19367e-10
0.0255741
3.55671e-10
0.0255741
-1.4534e-09
0.0255741
-1.71533e-09
0.0255741
-4.54767e-10
0.0255741
1.58451e-09
0.0255741
1.22478e-09
0.0255741
-1.1944e-09
0.0255741
-1.77341e-09
0.0255741
-2.60409e-10
0.0255741
1.94721e-09
0.0255741
3.06555e-09
0.0255741
7.94164e-10
0.0255741
-8.81334e-10
0.0255741
-8.79812e-10
0.0255741
8.02411e-10
0.0255741
-6.7115e-12
0.0255741
1.77135e-09
0.0255741
-4.80033e-10
0.0255741
-2.42053e-10
0.0255741
-2.78441e-09
0.0255741
-2.33532e-09
0.0255741
2.32739e-09
0.0255741
-1.7003e-09
0.0255741
7.02656e-09
0.0255741
-5.88108e-09
0.0255741
2.16905e-09
0.0255741
2.59811e-09
0.0255741
-8.11666e-09
0.0255741
1.44595e-08
0.0255741
-1.13417e-08
0.0255741
-3.25263e-09
0.0255741
1.07557e-08
0.0255741
-1.63621e-08
0.0255741
6.28475e-09
0.0255741
8.11901e-09
0.0255741
-8.64284e-09
-2.31807e-09
0.0565512
0.0460691
0.0566828
0.0308181
0.056455
0.00699483
0.0615905
-0.00529421
0.0628446
-0.0202527
0.0601585
-0.0069569
0.0614295
-0.00752463
0.0609505
-0.0451509
0.0569332
-0.0785985
0.0526012
-0.0851447
0.0486289
-0.075018
0.043999
-0.0484998
0.0395464
-0.0262842
0.0361098
-0.0161179
0.033581
-0.0114727
0.0314517
-0.00753553
0.0306353
-0.00333276
0.0297172
-0.000227441
0.0281062
-5.14785e-05
0.0271833
-0.000741953
0.0273406
0.000163073
0.0277101
0.00200586
0.0277687
0.00287156
0.0275964
0.00220744
0.0273073
0.000766556
0.0269594
-0.000678104
0.0266096
-0.00178591
0.026321
-0.0024212
0.0261121
-0.00254811
0.0259624
-0.00225461
0.0258485
-0.00175215
0.0257598
-0.00124231
0.0256936
-0.000831185
0.0256476
-0.000537948
0.0256176
-0.000341956
0.0255992
-0.00021529
0.0255883
-0.000134606
0.0255821
-8.35645e-05
0.0255786
-5.14553e-05
0.0255766
-3.14104e-05
0.0255755
-1.9002e-05
0.0255749
-1.13948e-05
0.0255745
-6.7834e-06
0.0255743
-4.00936e-06
0.0255742
-2.35167e-06
0.0255741
-1.37487e-06
0.0255741
-8.00516e-07
0.0255741
-4.62987e-07
0.0255741
-2.66886e-07
0.0255741
-1.51268e-07
0.0255741
-8.62011e-08
0.0255741
-5.05388e-08
0.0255741
-2.85413e-08
0.0255741
-1.50326e-08
0.0255741
-9.4873e-09
0.0255741
-7.33635e-09
0.0255741
-3.31695e-09
0.0255741
-3.63434e-11
0.0255741
2.77618e-10
0.0255741
-6.70348e-10
0.0255741
-2.11145e-09
0.0255741
-1.45472e-09
0.0255741
7.71254e-10
0.0255741
2.80036e-10
0.0255741
-1.40133e-09
0.0255741
-1.58434e-09
0.0255741
-4.02387e-10
0.0255741
1.40884e-09
0.0255741
1.0958e-09
0.0255741
-1.09843e-09
0.0255741
-1.57591e-09
0.0255741
-1.18474e-10
0.0255741
1.80417e-09
0.0255741
2.75941e-09
0.0255741
6.80847e-10
0.0255741
-6.27748e-10
0.0255741
-7.51099e-10
0.0255741
8.94628e-10
0.0255741
-2.68345e-10
0.0255741
1.74453e-09
0.0255741
-7.33451e-10
0.0255741
9.78025e-11
0.0255741
-2.74407e-09
0.0255741
-2.31468e-09
0.0255741
2.61587e-09
0.0255741
-2.58504e-09
0.0255741
8.06538e-09
0.0255741
-7.15614e-09
0.0255741
3.16695e-09
0.0255741
2.93028e-09
0.0255741
-9.76879e-09
0.0255741
1.70389e-08
0.0255741
-1.38887e-08
0.0255741
-2.90165e-09
0.0255741
1.31364e-08
0.0255741
-1.93086e-08
0.0255741
7.78697e-09
0.0255741
9.35562e-09
0.0255741
-1.03714e-08
-2.74978e-09
0.0557228
0.0425289
0.0558664
0.0306745
0.0591086
0.00375256
0.0626194
-0.00880498
0.0603627
-0.017996
0.0591283
-0.00572255
0.0608417
-0.00923799
0.0587457
-0.0430549
0.0562071
-0.0760599
0.0541941
-0.0831317
0.0507017
-0.0715255
0.0454869
-0.043285
0.0409704
-0.0217677
0.0366923
-0.0118397
0.0337618
-0.00854222
0.0316558
-0.00542949
0.0304571
-0.00213403
0.0302303
-6.82137e-07
0.0293001
0.000878747
0.0276547
0.000903376
0.0267779
0.00103992
0.0271145
0.00166928
0.0280349
0.00195117
0.0288133
0.00142899
0.0289923
0.000587542
0.028529
-0.000214796
0.0277505
-0.00100737
0.0270195
-0.00169023
0.0264924
-0.002021
0.0261526
-0.00191479
0.0259373
-0.0015369
0.0257991
-0.00110405
0.0257105
-0.000742574
0.0256549
-0.000482407
0.0256211
-0.000308143
0.0256011
-0.000195278
0.0255895
-0.000123003
0.0255829
-7.6921e-05
0.0255791
-4.76729e-05
0.0255769
-2.9259e-05
0.0255757
-1.77763e-05
0.025575
-1.06942e-05
0.0255746
-6.38112e-06
0.0255744
-3.77818e-06
0.0255742
-2.21907e-06
0.0255742
-1.29872e-06
0.0255741
-7.56654e-07
0.0255741
-4.37197e-07
0.0255741
-2.52103e-07
0.0255741
-1.43368e-07
0.0255741
-8.19091e-08
0.0255741
-4.81628e-08
0.0255741
-2.72028e-08
0.0255741
-1.41149e-08
0.0255741
-8.80181e-09
0.0255741
-6.90245e-09
0.0255741
-2.97023e-09
0.0255741
1.62826e-11
0.0255741
1.40034e-10
0.0255741
-6.27803e-10
0.0255741
-1.96631e-09
0.0255741
-1.41063e-09
0.0255741
6.58708e-10
0.0255741
2.25798e-10
0.0255741
-1.32851e-09
0.0255741
-1.48833e-09
0.0255741
-3.63798e-10
0.0255741
1.29986e-09
0.0255741
9.6654e-10
0.0255741
-1.00378e-09
0.0255741
-1.41753e-09
0.0255741
-3.61585e-11
0.0255741
1.69095e-09
0.0255741
2.5094e-09
0.0255741
5.7421e-10
0.0255741
-4.00539e-10
0.0255741
-6.89596e-10
0.0255741
9.5353e-10
0.0255741
-4.79821e-10
0.0255741
1.77422e-09
0.0255741
-9.84829e-10
0.0255741
4.31726e-10
0.0255741
-2.75875e-09
0.0255741
-2.25404e-09
0.0255741
2.86655e-09
0.0255741
-3.41877e-09
0.0255741
9.13517e-09
0.0255741
-8.52722e-09
0.0255741
4.31675e-09
0.0255741
3.00534e-09
0.0255741
-1.12941e-08
0.0255741
1.96793e-08
0.0255741
-1.66181e-08
0.0255741
-2.1725e-09
0.0255741
1.52733e-08
0.0255741
-2.23259e-08
0.0255741
9.48429e-09
0.0255741
1.04127e-08
0.0255741
-1.20597e-08
-3.10928e-09
0.0539503
0.0401294
0.055182
0.0294428
0.0595855
-0.000650887
0.0610221
-0.0102416
0.0578008
-0.0147747
0.0564217
-0.00434352
0.0584135
-0.0112298
0.057634
-0.0422754
0.0558569
-0.0742829
0.0538824
-0.0811571
0.0513033
-0.0689464
0.0457729
-0.0377546
0.0410749
-0.0170697
0.0376209
-0.00838575
0.0338972
-0.00481845
0.0313235
-0.0028558
0.0298182
-0.000628799
0.0294795
0.000338105
0.0296637
0.000694499
0.0291612
0.00140589
0.0280209
0.00218018
0.0271279
0.00256235
0.0268198
0.00225923
0.0268089
0.00143987
0.0267789
0.000617556
0.0266437
-7.95756e-05
0.0264652
-0.000828886
0.0262927
-0.00151767
0.0261438
-0.00187214
0.026012
-0.00178301
0.0258937
-0.00141862
0.0257931
-0.00100345
0.0257154
-0.000664829
0.0256608
-0.000427828
0.0256254
-0.000272721
0.0256037
-0.000173632
0.025591
-0.000110293
0.0255837
-6.96271e-05
0.0255796
-4.35268e-05
0.0255772
-2.69034e-05
0.0255759
-1.64326e-05
0.0255751
-9.92333e-06
0.0255747
-5.93639e-06
0.0255744
-3.52123e-06
0.0255743
-2.07097e-06
0.0255742
-1.21326e-06
0.0255741
-7.07134e-07
0.0255741
-4.08153e-07
0.0255741
-2.35504e-07
0.0255741
-1.34419e-07
0.0255741
-7.7081e-08
0.0255741
-4.54113e-08
0.0255741
-2.56171e-08
0.0255741
-1.31004e-08
0.0255741
-8.04959e-09
0.0255741
-6.37651e-09
0.0255741
-2.58821e-09
0.0255741
4.51169e-11
0.0255741
-2.62828e-11
0.0255741
-5.89182e-10
0.0255741
-1.80656e-09
0.0255741
-1.35308e-09
0.0255741
5.68809e-10
0.0255741
1.65883e-10
0.0255741
-1.25207e-09
0.0255741
-1.36875e-09
0.0255741
-3.14955e-10
0.0255741
1.16429e-09
0.0255741
8.44688e-10
0.0255741
-9.14498e-10
0.0255741
-1.25131e-09
0.0255741
6.47269e-11
0.0255741
1.57569e-09
0.0255741
2.22503e-09
0.0255741
4.42605e-10
0.0255741
-1.6889e-10
0.0255741
-6.21476e-10
0.0255741
1.01599e-09
0.0255741
-7.03578e-10
0.0255741
1.82284e-09
0.0255741
-1.27788e-09
0.0255741
8.01915e-10
0.0255741
-2.79765e-09
0.0255741
-2.10954e-09
0.0255741
3.07535e-09
0.0255741
-4.23722e-09
0.0255741
1.0207e-08
0.0255741
-1.00178e-08
0.0255741
5.67208e-09
0.0255741
2.82118e-09
0.0255741
-1.26314e-08
0.0255741
2.22983e-08
0.0255741
-1.95702e-08
0.0255741
-1.01167e-09
0.0255741
1.71304e-08
0.0255741
-2.53261e-08
0.0255741
1.1345e-08
0.0255741
1.12745e-08
0.0255741
-1.36989e-08
-3.39509e-09
0.0529117
0.0370464
0.055777
0.0265776
0.0588472
-0.00372111
0.0581395
-0.00953391
0.0554392
-0.0120744
0.0541348
-0.00303912
0.0559349
-0.01303
0.0565579
-0.0428984
0.0560553
-0.0737802
0.0552261
-0.080328
0.0528701
-0.0665904
0.0469322
-0.0318166
0.041428
-0.0115656
0.0380171
-0.00497488
0.0345047
-0.00130603
0.0310767
0.000572194
0.0296341
0.000813819
0.0297051
0.000267138
0.0295381
0.000861436
0.0287544
0.00218961
0.028106
0.00282863
0.0279299
0.00273837
0.0281255
0.00206362
0.0284222
0.00114318
0.0285095
0.000530263
0.0282298
0.000200149
0.0276651
-0.000264186
0.0270446
-0.00089715
0.0265368
-0.0013644
0.0261818
-0.00142793
0.0259513
-0.0011882
0.0258059
-0.000857997
0.0257152
-0.000574158
0.0256592
-0.00037182
0.0256249
-0.000238412
0.0256041
-0.000152867
0.0255917
-9.78681e-05
0.0255844
-6.22728e-05
0.02558
-3.92122e-05
0.0255775
-2.43879e-05
0.0255761
-1.49716e-05
0.0255752
-9.07605e-06
0.0255747
-5.44501e-06
0.0255744
-3.23679e-06
0.0255743
-1.90689e-06
0.0255742
-1.11842e-06
0.0255741
-6.52103e-07
0.0255741
-3.76081e-07
0.0255741
-2.17221e-07
0.0255741
-1.24448e-07
0.0255741
-7.16675e-08
0.0255741
-4.23515e-08
0.0255741
-2.37797e-08
0.0255741
-1.19508e-08
0.0255741
-7.2238e-09
0.0255741
-5.8326e-09
0.0255741
-2.25747e-09
0.0255741
8.3989e-11
0.0255741
-1.36057e-10
0.0255741
-5.25124e-10
0.0255741
-1.68705e-09
0.0255741
-1.30813e-09
0.0255741
5.15477e-10
0.0255741
1.24441e-10
0.0255741
-1.17294e-09
0.0255741
-1.25761e-09
0.0255741
-2.85444e-10
0.0255741
1.06976e-09
0.0255741
7.37972e-10
0.0255741
-8.32475e-10
0.0255741
-1.10539e-09
0.0255741
1.25964e-10
0.0255741
1.45357e-09
0.0255741
1.98693e-09
0.0255741
3.24837e-10
0.0255741
3.05302e-11
0.0255741
-5.88691e-10
0.0255741
1.05234e-09
0.0255741
-9.04331e-10
0.0255741
1.91328e-09
0.0255741
-1.56753e-09
0.0255741
1.18759e-09
0.0255741
-2.89542e-09
0.0255741
-1.90312e-09
0.0255741
3.22659e-09
0.0255741
-5.00464e-09
0.0255741
1.1295e-08
0.0255741
-1.16185e-08
0.0255741
7.24112e-09
0.0255741