/*--------------------------------*- C++ -*----------------------------------*\
| =========                 |                                                 |
| \\      /  F ield         | OpenFOAM: The Open Source CFD Toolbox           |
|  \\    /   O peration     | Version:  2.4.0                                 |
|   \\  /    A nd           | Web:      www.OpenFOAM.org                      |
|    \\/     M anipulation  |                                                 |
\*---------------------------------------------------------------------------*/
FoamFile
{
    version     2.0;
    format      ascii;
    class       volVectorField;
    location    "1.46";
    object      U;
}
// * * * * * * * * * * * * * * * * * * * * * * * * * * * * * * * * * * * * * //

dimensions      [0 1 -1 0 0 0 0];

internalField   nonuniform List<vector> 
4400
(
(8.58636 -0.0103767 0)
(11.5793 -0.0502997 0)
(8.42165 0.107884 0)
(10.8605 0.032572 0)
(8.60313 0.0723529 0)
(10.1069 -0.0347278 0)
(8.83446 -0.0265039 0)
(9.50025 -0.0893034 0)
(9.62523 0.06006 0)
(9.05358 -0.0575713 0)
(9.61492 0.175929 0)
(9.78303 0.0872071 0)
(6.93274 -0.0788578 0)
(11.2602 0.13209 0)
(4.92599 -0.0711054 0)
(11.0751 -0.0189715 0)
(5.74866 0.125023 0)
(10.6438 -0.0705765 0)
(4.56486 0.169974 0)
(11.9116 0.0401466 0)
(9.04374 -0.0240235 0)
(11.2578 0.055862 0)
(8.56016 0.0845593 0)
(11.2922 -0.105076 0)
(9.32482 0.0836801 0)
(10.4736 0.00294303 0)
(10.0324 0.128237 0)
(9.79322 -0.0632573 0)
(9.60941 0.0291275 0)
(10.269 0.0583246 0)
(8.83954 -0.313193 0)
(12.3412 0.384132 0)
(7.74424 -0.117568 0)
(13.4814 0.111136 0)
(6.96131 0.241821 0)
(11.83 -0.228598 0)
(8.23974 0.0241133 0)
(11.2608 0.210486 0)
(5.64098 -0.200244 0)
(13.1869 0.128516 0)
(9.28756 -0.0541153 0)
(10.8295 0.0133008 0)
(9.37004 0.141037 0)
(11.0239 -0.124325 0)
(9.64329 0.242967 0)
(9.37356 -0.151271 0)
(10.2838 0.0965775 0)
(10.1627 0.0124192 0)
(9.02988 -0.0332001 0)
(11.5245 0.0816439 0)
(8.14767 -0.263239 0)
(12.157 0.314503 0)
(7.7991 -0.220224 0)
(13.219 0.129605 0)
(8.17762 0.442312 0)
(12.1944 -0.40769 0)
(9.30966 0.253458 0)
(11.8058 0.352753 0)
(6.81724 -0.0640499 0)
(13.0129 -0.172042 0)
(9.55426 -0.0456108 0)
(10.8512 0.00794529 0)
(9.18626 0.0953433 0)
(10.3639 -0.213801 0)
(10.5343 0.411193 0)
(8.92819 -0.122125 0)
(10.4061 -0.0548812 0)
(10.5201 0.20333 0)
(8.93627 -0.236636 0)
(11.4303 0.204885 0)
(9.24722 -0.364297 0)
(11.2666 0.376374 0)
(8.83892 -0.209007 0)
(12.2384 -0.0655446 0)
(9.04037 0.582944 0)
(11.5424 -0.52325 0)
(9.66758 0.159689 0)
(11.9166 0.608621 0)
(8.55636 -0.161436 0)
(12.1307 -0.264069 0)
(9.65142 -0.122172 0)
(10.6912 0.04921 0)
(9.40268 0.273923 0)
(10.2079 -0.413194 0)
(10.2995 0.493059 0)
(9.31193 -0.0921301 0)
(10.3956 -0.264262 0)
(10.5068 0.305383 0)
(9.26363 -0.23342 0)
(10.8183 0.00878265 0)
(10.2634 -0.208605 0)
(9.72425 0.367959 0)
(9.80629 -0.333513 0)
(11.2819 -0.0797577 0)
(9.42643 0.693642 0)
(10.7126 -0.626424 0)
(10.119 0.175866 0)
(11.1318 0.601785 0)
(9.59008 -0.0133599 0)
(10.8374 -0.303737 0)
(9.71145 -0.111123 0)
(10.3233 0.0307623 0)
(10.0281 0.245316 0)
(10.0594 -0.420418 0)
(10.0271 0.601354 0)
(9.97096 -0.0986597 0)
(9.83599 -0.324136 0)
(10.4095 0.443918 0)
(9.6964 -0.274187 0)
(10.1482 -0.0303183 0)
(10.7313 -0.0687165 0)
(9.04006 0.362418 0)
(10.3019 -0.406651 0)
(10.5998 -0.0782662 0)
(9.14077 0.768124 0)
(10.6038 -0.734416 0)
(10.3211 0.169794 0)
(10.0853 0.676691 0)
(10.0737 0.0115006 0)
(10.5769 -0.335448 0)
(9.89686 -0.114381 0)
(10.0481 -0.0497205 0)
(10.2197 0.352213 0)
(9.90971 -0.425899 0)
(9.92618 0.517049 0)
(10.3679 -0.00708802 0)
(9.73732 -0.390117 0)
(10.497 0.370357 0)
(10.1999 -0.176677 0)
(9.75864 -0.215236 0)
(10.9174 0.0401382 0)
(9.13934 0.387171 0)
(10.4537 -0.546441 0)
(10.4287 0.0138025 0)
(9.21843 0.803181 0)
(10.73 -0.91461 0)
(10.4263 0.211444 0)
(9.63861 0.708806 0)
(10.3429 -0.112784 0)
(10.7527 -0.334094 0)
(10.0691 -0.093958 0)
(9.73931 -0.0630226 0)
(10.1798 0.326273 0)
(10.1327 -0.388028 0)
(9.7202 0.488745 0)
(10.7296 -0.00776285 0)
(9.73698 -0.388599 0)
(10.2101 0.365028 0)
(10.5262 -0.113561 0)
(9.67827 -0.218115 0)
(10.5541 0.115054 0)
(9.80568 0.381349 0)
(10.4029 -0.573059 0)
(10.1555 0.0801677 0)
(9.62689 0.77908 0)
(10.7852 -0.974428 0)
(10.0308 0.356341 0)
(9.66532 0.74572 0)
(10.5262 -0.237141 0)
(10.5686 -0.30103 0)
(10.1621 -0.0647043 0)
(9.77889 -0.102727 0)
(10.0777 0.30257 0)
(10.2292 -0.336783 0)
(9.64435 0.373952 0)
(10.6748 0.0287814 0)
(9.85985 -0.316299 0)
(9.99939 0.24119 0)
(10.4765 -0.0737573 0)
(9.85551 -0.238162 0)
(10.0746 0.0674925 0)
(10.3122 0.356005 0)
(10.2945 -0.521673 0)
(9.89527 0.0910913 0)
(10.1729 0.747893 0)
(10.6523 -0.975784 0)
(9.49916 0.417186 0)
(10.1299 0.717073 0)
(10.5163 -0.328776 0)
(10.223 -0.22441 0)
(10.3311 -0.0761491 0)
(9.66916 -0.0753918 0)
(9.98176 0.277425 0)
(10.2409 -0.30969 0)
(9.62288 0.347812 0)
(10.4695 -0.00318392 0)
(10.0253 -0.28761 0)
(9.77971 0.237779 0)
(10.4179 -0.0855167 0)
(9.94621 -0.176244 0)
(9.74049 0.0749215 0)
(10.5034 0.263935 0)
(10.2211 -0.4166 0)
(9.62473 0.0406152 0)
(10.5306 0.65575 0)
(10.491 -0.83924 0)
(9.28668 0.436248 0)
(10.4042 0.629017 0)
(10.6268 -0.314847 0)
(9.96262 -0.107306 0)
(10.2428 -0.0559239 0)
(9.61983 -0.0568011 0)
(10.1006 0.212012 0)
(10.151 -0.265323 0)
(9.75113 0.292581 0)
(10.334 0.000101544 0)
(10.0802 -0.213396 0)
(9.75337 0.182181 0)
(10.4212 -0.0925948 0)
(9.96358 -0.137301 0)
(9.74456 0.016197 0)
(10.5608 0.209301 0)
(10.0895 -0.294898 0)
(9.64358 -0.0292813 0)
(10.5906 0.607039 0)
(10.3974 -0.727563 0)
(9.31014 0.356609 0)
(10.6409 0.554648 0)
(10.6877 -0.306882 0)
(9.79111 0.011849 0)
(10.125 -0.0434553 0)
(9.84691 -0.0762751 0)
(9.91024 0.205184 0)
(10.2734 -0.238015 0)
(9.78328 0.254494 0)
(10.2647 -0.0116353 0)
(10.2482 -0.208865 0)
(9.73545 0.168679 0)
(10.4508 -0.11295 0)
(10.0162 -0.0833149 0)
(9.73218 -0.00296167 0)
(10.5535 0.138878 0)
(10.0564 -0.186502 0)
(9.74347 -0.109305 0)
(10.5048 0.518665 0)
(10.4426 -0.569799 0)
(9.397 0.288925 0)
(10.752 0.444516 0)
(10.702 -0.244425 0)
(9.73626 0.0981647 0)
(10.1456 -0.0448849 0)
(9.79284 -0.0349041 0)
(9.93583 0.156057 0)
(10.3724 -0.230835 0)
(9.65928 0.242789 0)
(10.3567 -0.0286859 0)
(10.1258 -0.144176 0)
(9.71339 0.151939 0)
(10.3939 -0.11899 0)
(9.95115 -0.0443469 0)
(9.80625 -0.03389 0)
(10.4033 0.10791 0)
(10.0975 -0.110953 0)
(9.75733 -0.137889 0)
(10.3798 0.47908 0)
(10.4217 -0.467294 0)
(9.44309 0.208283 0)
(10.5883 0.401377 0)
(10.924 -0.16202 0)
(9.42963 0.0908295 0)
(10.1296 -0.0233901 0)
(9.85285 -0.0620275 0)
(9.98946 0.115659 0)
(10.2447 -0.166299 0)
(9.77483 0.200135 0)
(10.2466 -0.0457061 0)
(10.1378 -0.103274 0)
(9.78659 0.108217 0)
(10.3917 -0.132444 0)
(9.95348 -0.00877474 0)
(9.92312 -0.0474789 0)
(10.3037 0.0467543 0)
(10.1901 -0.0278129 0)
(9.79978 -0.175964 0)
(10.32 0.380623 0)
(10.3629 -0.327517 0)
(9.77678 0.177962 0)
(10.0598 0.237223 0)
(11.223 -0.0708324 0)
(9.50586 0.171898 0)
(10.1712 -0.0367555 0)
(9.79799 -0.0291466 0)
(9.93898 0.108 0)
(10.3205 -0.178883 0)
(9.73404 0.178054 0)
(10.2507 -0.0372181 0)
(10.2282 -0.091157 0)
(9.65814 0.101714 0)
(10.5322 -0.119371 0)
(9.78984 -0.00868995 0)
(10.0789 -0.0502302 0)
(10.2148 0.0266724 0)
(10.1543 -0.0159012 0)
(9.8221 -0.147409 0)
(10.4486 0.340164 0)
(9.88363 -0.327366 0)
(10.2443 0.18874 0)
(9.84272 0.190063 0)
(11.0294 -0.107079 0)
(9.6284 0.191611 0)
(10.1096 -0.0112039 0)
(9.81999 -0.0415865 0)
(10.0267 0.0380133 0)
(10.2567 -0.101946 0)
(9.76495 0.14839 0)
(10.2991 -0.0802494 0)
(10.0937 -0.00166204 0)
(9.7738 0.0284719 0)
(10.4996 -0.111597 0)
(9.72571 0.0314832 0)
(10.1511 -0.0931309 0)
(10.118 0.0211465 0)
(10.2723 0.046373 0)
(9.56223 -0.219288 0)
(10.7198 0.342774 0)
(9.74814 -0.245244 0)
(10.2683 0.12989 0)
(9.97883 0.143935 0)
(11.122 -0.0396143 0)
(9.49757 0.162246 0)
(10.0691 -0.0173028 0)
(9.91408 -0.0374344 0)
(9.95679 0.0505797 0)
(10.296 -0.111346 0)
(9.79203 0.100104 0)
(10.2541 -0.0420158 0)
(10.113 -0.0156783 0)
(9.89067 0.0105829 0)
(10.291 -0.0711845 0)
(10.0133 -0.00291108 0)
(10.0002 -0.0746709 0)
(10.1418 -0.0148921 0)
(10.3451 0.0630322 0)
(9.63476 -0.183176 0)
(10.5403 0.250836 0)
(10.1513 -0.183957 0)
(10.1162 0.106731 0)
(10.2331 0.0713755 0)
(10.9943 -0.0312287 0)
(10.0638 0.161414 0)
(10.0259 -0.0026874 0)
(9.97769 -0.0427571 0)
(9.96023 -0.00911557 0)
(10.2859 -0.0433456 0)
(9.77613 0.085726 0)
(10.3127 -0.0788063 0)
(9.93821 0.0542203 0)
(10.1689 -0.0329252 0)
(10.0377 -0.0823395 0)
(10.2841 0.035159 0)
(9.76177 -0.0871288 0)
(10.4579 -0.0421768 0)
(9.88927 0.120871 0)
(10.1751 -0.226735 0)
(9.96892 0.229798 0)
(10.7715 -0.135319 0)
(9.38542 0.0686447 0)
(11.1119 -0.00236004 0)
(10.0491 0.0271061 0)
(11.153 0.177794 0)
(10.0659 -0.0163993 0)
(10.0027 -0.0524525 0)
(9.91676 0.0162848 0)
(10.1946 -0.0571335 0)
(9.84764 0.024299 0)
(10.2263 -0.0156224 0)
(9.93631 -0.0105791 0)
(10.3692 -0.0242369 0)
(9.74868 -0.0487299 0)
(10.5562 -0.0125938 0)
(9.44413 -0.0602246 0)
(10.5661 -0.0444688 0)
(9.49144 0.0764821 0)
(10.5169 -0.126204 0)
(9.19122 0.0657004 0)
(11.3062 -0.0247644 0)
(8.49609 0.0279953 0)
(11.8154 -0.063834 0)
(8.75421 -0.00903143 0)
(11.9363 0.211207 0)
(10.1664 -0.00672866 0)
(9.70135 -0.0301129 0)
(9.63882 -0.0177305 0)
(9.8287 -0.00119054 0)
(9.45621 0.00301335 0)
(9.60861 -0.0305683 0)
(9.51884 0.0104884 0)
(9.53082 -0.0280511 0)
(9.13019 -0.0568529 0)
(9.25964 0.0370649 0)
(8.94605 -0.0572084 0)
(8.859 -0.0301612 0)
(8.62364 0.0701287 0)
(9.31276 -0.10407 0)
(7.76541 0.0489911 0)
(9.66045 0.00803379 0)
(7.76993 -0.0354181 0)
(9.66344 -0.0557539 0)
(6.9918 0.0890863 0)
(10.3855 0.0259333 0)
(2.92336 0.634589 0)
(4.44971 2.06303 0)
(6.61895 0.757077 0)
(6.32429 -0.0915719 0)
(6.94873 0.00819237 0)
(9.64644 -1.1385 0)
(9.53028 -0.520779 0)
(9.55745 -1.08586 0)
(10.7157 -3.17989 0)
(10.0899 -4.13317 0)
(9.23924 -3.75944 0)
(8.59192 -2.88234 0)
(7.85627 -1.92065 0)
(7.18933 -1.18426 0)
(6.43641 -0.87138 0)
(6.29467 -0.614666 0)
(5.87239 -0.466802 0)
(5.47571 -0.366733 0)
(5.47796 -0.201929 0)
(5.49226 -0.0566336 0)
(5.38852 0.0250898 0)
(5.31525 0.0687732 0)
(5.33205 0.0788268 0)
(5.38355 0.0518685 0)
(5.40686 -0.000233185 0)
(5.38241 -0.0570663 0)
(5.32726 -0.0995309 0)
(5.26641 -0.119394 0)
(5.21532 -0.117744 0)
(5.17858 -0.101287 0)
(5.15427 -0.0785058 0)
(5.13873 -0.056197 0)
(5.12896 -0.0379328 0)
(5.12292 -0.0245497 0)
(5.11931 -0.0154264 0)
(5.11722 -0.00949856 0)
(5.11606 -0.00576682 0)
(5.11545 -0.0034658 0)
(5.11513 -0.00206703 0)
(5.11497 -0.00122501 0)
(5.11489 -0.000722212 0)
(5.11485 -0.000423705 0)
(5.11483 -0.000247508 0)
(5.11482 -0.000144055 0)
(5.11482 -8.34055e-05 0)
(5.11481 -4.82554e-05 0)
(5.11481 -2.76944e-05 0)
(5.11481 -1.59172e-05 0)
(5.11481 -9.11969e-06 0)
(5.11481 -5.10287e-06 0)
(5.11481 -3.00588e-06 0)
(5.11481 -1.62071e-06 0)
(5.11481 -9.12574e-07 0)
(5.11481 -5.99991e-07 0)
(5.11481 -2.14561e-07 0)
(5.11481 -2.08889e-07 0)
(5.11481 -1.24087e-07 0)
(5.11481 1.70427e-08 0)
(5.11481 -1.04323e-07 0)
(5.11481 -1.23084e-08 0)
(5.11481 3.57893e-08 0)
(5.11481 -8.01578e-08 0)
(5.11481 3.75546e-08 0)
(5.11481 3.06137e-08 0)
(5.11481 -7.8558e-08 0)
(5.11481 5.08715e-08 0)
(5.11481 1.39617e-08 0)
(5.11481 -7.94551e-08 0)
(5.11481 6.74341e-08 0)
(5.11481 2.41024e-08 0)
(5.11481 -8.91323e-08 0)
(5.11481 5.26026e-08 0)
(5.11481 6.78801e-08 0)
(5.11481 -9.38498e-08 0)
(5.11481 8.21988e-09 0)
(5.11481 9.03588e-08 0)
(5.11481 -4.24977e-08 0)
(5.11481 -5.04189e-08 0)
(5.11481 5.90176e-08 0)
(5.11481 4.24455e-08 0)
(5.11481 -6.7667e-08 0)
(5.11482 -1.06506e-08 0)
(5.1148 4.68846e-08 0)
(5.11482 2.19096e-08 0)
(5.1148 -4.87108e-08 0)
(5.11482 -2.9581e-08 0)
(5.1148 5.81404e-08 0)
(5.11481 2.51873e-08 0)
(5.11481 -3.36004e-08 0)
(5.1148 -4.97295e-08 0)
(5.11482 3.43811e-08 0)
(5.1148 6.9457e-08 0)
(5.11482 -6.07186e-08 0)
(5.11481 -8.01857e-08 0)
(5.11481 2.51424e-08 0)
(5.11482 -6.06631e-10 0)
(5.11481 2.52399e-08 0)
(5.11481 -2.80537e-08 0)
(5.11481 -4.76668e-08 0)
(5.11481 -4.07845e-09 0)
(6.55705 1.38742 0)
(6.44476 2.02864 0)
(11.1159 1.01097 0)
(8.88498 0.38903 0)
(9.17584 -0.319357 0)
(10.6406 -1.38824 0)
(9.10383 -0.499717 0)
(9.98583 -1.24946 0)
(11.1026 -3.30588 0)
(10.6147 -3.97831 0)
(9.51441 -3.5518 0)
(8.90809 -2.69287 0)
(7.82197 -1.82906 0)
(7.33576 -1.09836 0)
(6.65105 -0.812327 0)
(6.37366 -0.581632 0)
(6.0379 -0.375738 0)
(5.52038 -0.294723 0)
(5.38313 -0.190752 0)
(5.46352 -0.0564818 0)
(5.44987 0.0412965 0)
(5.38154 0.0889798 0)
(5.35582 0.0882208 0)
(5.36187 0.045226 0)
(5.35888 -0.0177749 0)
(5.33535 -0.0707244 0)
(5.29811 -0.104911 0)
(5.25659 -0.118791 0)
(5.21814 -0.114861 0)
(5.1865 -0.0983411 0)
(5.1624 -0.0762389 0)
(5.14505 -0.0546409 0)
(5.13322 -0.0369214 0)
(5.12559 -0.0239138 0)
(5.1209 -0.0150381 0)
(5.11815 -0.00926884 0)
(5.1166 -0.0056354 0)
(5.11576 -0.00339302 0)
(5.11531 -0.00202767 0)
(5.11507 -0.00120429 0)
(5.11495 -0.000711341 0)
(5.11488 -0.000418029 0)
(5.11485 -0.000244617 0)
(5.11483 -0.00014252 0)
(5.11482 -8.25941e-05 0)
(5.11482 -4.77703e-05 0)
(5.11481 -2.74803e-05 0)
(5.11481 -1.58002e-05 0)
(5.11481 -9.05024e-06 0)
(5.11481 -5.07228e-06 0)
(5.11481 -2.9111e-06 0)
(5.11481 -1.63033e-06 0)
(5.11481 -9.12895e-07 0)
(5.11481 -5.34856e-07 0)
(5.11481 -2.73008e-07 0)
(5.11481 -2.04826e-07 0)
(5.11481 -1.19057e-07 0)
(5.11481 -1.61609e-08 0)
(5.11481 -3.57331e-08 0)
(5.11481 -1.36134e-08 0)
(5.11481 -1.97895e-08 0)
(5.11481 -4.40503e-08 0)
(5.11481 2.80179e-08 0)
(5.11481 1.25115e-08 0)
(5.11481 -3.87028e-08 0)
(5.11481 -2.1801e-09 0)
(5.11481 -6.0412e-09 0)
(5.11481 -6.02342e-09 0)
(5.11481 3.8034e-08 0)
(5.11481 -4.73731e-09 0)
(5.11481 -4.66782e-08 0)
(5.11481 1.18665e-08 0)
(5.11481 3.90051e-08 0)
(5.11481 6.97032e-09 0)
(5.11481 1.25464e-08 0)
(5.11481 1.45904e-08 0)
(5.11481 -2.10637e-08 0)
(5.11481 -7.44112e-09 0)
(5.11481 2.02801e-08 0)
(5.11482 2.81164e-08 0)
(5.11481 -1.82651e-08 0)
(5.11482 -7.47595e-09 0)
(5.1148 -1.23648e-08 0)
(5.11482 -1.3522e-08 0)
(5.1148 -1.05586e-10 0)
(5.11482 -1.14854e-08 0)
(5.1148 6.61926e-08 0)
(5.11481 -2.53928e-08 0)
(5.11481 -6.00078e-09 0)
(5.1148 3.44103e-09 0)
(5.11482 -3.42118e-08 0)
(5.1148 1.08158e-07 0)
(5.11482 -8.29205e-08 0)
(5.11481 -6.40747e-08 0)
(5.11481 6.26859e-08 0)
(5.11482 -9.75264e-08 0)
(5.11481 3.60564e-08 0)
(5.11481 4.22077e-08 0)
(5.11481 -6.65832e-08 0)
(5.11481 -1.72337e-08 0)
(7.9434 1.9845 0)
(8.33572 1.6523 0)
(12.3504 0.441632 0)
(10.9099 0.384052 0)
(12.2223 -0.381115 0)
(11.7571 -1.08047 0)
(8.85096 -0.373918 0)
(10.4588 -1.46569 0)
(11.7598 -3.31288 0)
(11.177 -3.90546 0)
(9.79354 -3.39885 0)
(9.08652 -2.48385 0)
(7.81007 -1.68474 0)
(7.37382 -1.03754 0)
(6.94463 -0.707248 0)
(6.50743 -0.516395 0)
(6.1651 -0.328383 0)
(5.65113 -0.250328 0)
(5.35996 -0.183717 0)
(5.40786 -0.0623949 0)
(5.48896 0.0408592 0)
(5.47051 0.0829288 0)
(5.41019 0.0774473 0)
(5.36224 0.0483291 0)
(5.33282 0.0111905 0)
(5.30826 -0.0344193 0)
(5.28005 -0.0739583 0)
(5.24908 -0.0967567 0)
(5.21852 -0.100066 0)
(5.19106 -0.0883881 0)
(5.16804 -0.0695161 0)
(5.15 -0.0501941 0)
(5.13688 -0.0341037 0)
(5.12802 -0.0222172 0)
(5.12242 -0.0140655 0)
(5.11907 -0.00873496 0)
(5.11714 -0.00535234 0)
(5.11607 -0.00324667 0)
(5.11549 -0.00195311 0)
(5.11518 -0.0011666 0)
(5.11501 -0.000692122 0)
(5.11492 -0.00040808 0)
(5.11487 -0.000239489 0)
(5.11485 -0.000139825 0)
(5.11483 -8.10866e-05 0)
(5.11482 -4.68964e-05 0)
(5.11482 -2.70503e-05 0)
(5.11481 -1.55859e-05 0)
(5.11481 -8.90979e-06 0)
(5.11481 -4.95719e-06 0)
(5.11481 -2.80797e-06 0)
(5.11481 -1.64325e-06 0)
(5.11481 -8.9462e-07 0)
(5.11481 -4.75172e-07 0)
(5.11481 -3.09238e-07 0)
(5.11481 -2.54057e-07 0)
(5.11481 -1.33965e-07 0)
(5.11481 1.5319e-08 0)
(5.11481 4.24295e-08 0)
(5.11481 -2.46477e-08 0)
(5.11481 -9.59216e-08 0)
(5.11481 -5.19149e-08 0)
(5.11481 4.40813e-08 0)
(5.11481 1.9951e-08 0)
(5.11481 -5.23406e-08 0)
(5.11481 -6.67376e-08 0)
(5.11481 -1.1703e-08 0)
(5.11481 6.46721e-08 0)
(5.11481 4.75533e-08 0)
(5.11481 -4.55875e-08 0)
(5.11481 -7.43407e-08 0)
(5.11481 -1.76952e-08 0)
(5.11481 7.43589e-08 0)
(5.11481 1.11078e-07 0)
(5.11481 2.96028e-08 0)
(5.11481 -4.42842e-08 0)
(5.11481 -4.07402e-08 0)
(5.11481 1.12471e-08 0)
(5.11481 2.49282e-08 0)
(5.11481 5.64311e-08 0)
(5.11481 3.65206e-09 0)
(5.11482 -3.35088e-08 0)
(5.1148 -8.34707e-08 0)
(5.11482 -5.67766e-08 0)
(5.1148 3.87057e-08 0)
(5.11482 2.3039e-08 0)
(5.1148 1.10783e-07 0)
(5.11481 -7.38734e-08 0)
(5.11481 1.38303e-09 0)
(5.1148 1.6292e-08 0)
(5.11482 -7.26113e-08 0)
(5.1148 1.86283e-07 0)
(5.11482 -1.23292e-07 0)
(5.11481 -6.14959e-08 0)
(5.11481 7.6688e-08 0)
(5.11482 -2.01761e-07 0)
(5.11481 7.01645e-08 0)
(5.11481 9.0526e-08 0)
(5.11481 -8.27913e-08 0)
(5.11481 -1.51627e-08 0)
(8.98102 2.25837 0)
(9.97921 1.31996 0)
(11.5687 0.197412 0)
(10.5729 0.365762 0)
(13.4648 -0.419908 0)
(12.3041 -0.715817 0)
(9.73756 -0.269454 0)
(11.6887 -1.64115 0)
(12.2054 -3.38695 0)
(11.0467 -3.7869 0)
(9.99502 -3.245 0)
(9.72648 -2.23503 0)
(8.24432 -1.42577 0)
(7.18437 -0.925241 0)
(6.87723 -0.631262 0)
(6.61032 -0.410168 0)
(6.27976 -0.204334 0)
(5.76075 -0.147366 0)
(5.3702 -0.154666 0)
(5.32559 -0.0860563 0)
(5.43156 0.0289822 0)
(5.49102 0.107444 0)
(5.48401 0.114811 0)
(5.44602 0.0631768 0)
(5.39686 -0.0132663 0)
(5.34707 -0.0757097 0)
(5.30223 -0.11004 0)
(5.26257 -0.120397 0)
(5.22815 -0.113165 0)
(5.19869 -0.0947997 0)
(5.17403 -0.0722121 0)
(5.15441 -0.051022 0)
(5.1399 -0.0341163 0)
(5.12999 -0.0219586 0)
(5.12366 -0.013779 0)
(5.11983 -0.00850628 0)
(5.1176 -0.0051944 0)
(5.11635 -0.00314638 0)
(5.11566 -0.00189264 0)
(5.11528 -0.0011313 0)
(5.11507 -0.000671985 0)
(5.11496 -0.000396737 0)
(5.11489 -0.000233064 0)
(5.11486 -0.000136165 0)
(5.11484 -7.90545e-05 0)
(5.11483 -4.57771e-05 0)
(5.11482 -2.64053e-05 0)
(5.11482 -1.51852e-05 0)
(5.11481 -8.69283e-06 0)
(5.11481 -4.87227e-06 0)
(5.11481 -2.75751e-06 0)
(5.11481 -1.58726e-06 0)
(5.11481 -8.85788e-07 0)
(5.11481 -4.86384e-07 0)
(5.11481 -2.9391e-07 0)
(5.11481 -2.17265e-07 0)
(5.11481 -1.11271e-07 0)
(5.11481 -1.53487e-08 0)
(5.11481 2.2864e-09 0)
(5.11481 -1.65954e-08 0)
(5.11481 -5.38952e-08 0)
(5.11481 -3.59316e-08 0)
(5.11481 2.45306e-08 0)
(5.11481 8.79074e-09 0)
(5.11481 -3.21706e-08 0)
(5.11481 -3.42375e-08 0)
(5.11481 -1.18923e-08 0)
(5.11481 3.18299e-08 0)
(5.11481 3.03044e-08 0)
(5.11481 -2.44715e-08 0)
(5.11481 -3.86004e-08 0)
(5.11481 -5.40862e-09 0)
(5.11481 4.04882e-08 0)
(5.11481 6.23817e-08 0)
(5.11481 1.75393e-08 0)
(5.11481 -1.8357e-08 0)
(5.11481 -1.7207e-08 0)
(5.11481 1.40016e-08 0)
(5.11481 2.90416e-09 0)
(5.11481 3.40447e-08 0)
(5.11481 -7.95605e-09 0)
(5.11482 -7.11183e-09 0)
(5.1148 -4.95241e-08 0)
(5.11482 -4.3095e-08 0)
(5.1148 3.69366e-08 0)
(5.11482 -2.20392e-08 0)
(5.1148 1.15327e-07 0)
(5.11481 -8.76975e-08 0)
(5.11481 2.41994e-08 0)
(5.1148 4.47417e-08 0)
(5.11482 -1.23793e-07 0)
(5.1148 2.21569e-07 0)
(5.11482 -1.68645e-07 0)
(5.11481 -7.02932e-08 0)
(5.11481 1.58528e-07 0)
(5.11482 -2.43526e-07 0)
(5.11481 8.56935e-08 0)
(5.11481 1.26109e-07 0)
(5.11481 -1.28612e-07 0)
(5.11481 -3.74641e-08 0)
(9.67474 2.26961 0)
(11.4664 1.2876 0)
(10.9482 0.240819 0)
(10.4964 0.128695 0)
(13.2906 -0.730217 0)
(12.182 -0.470126 0)
(11.2944 -0.196968 0)
(12.4202 -1.7305 0)
(12.3609 -3.25166 0)
(11.0765 -3.50416 0)
(9.8178 -3.14836 0)
(9.48008 -2.13804 0)
(8.70691 -1.3045 0)
(7.47287 -0.845398 0)
(6.82076 -0.608635 0)
(6.43737 -0.406838 0)
(6.34688 -0.177255 0)
(6.0464 -0.0703144 0)
(5.58759 -0.0781922 0)
(5.3799 -0.057576 0)
(5.42545 0.0160054 0)
(5.49326 0.0712537 0)
(5.49204 0.080337 0)
(5.44725 0.060787 0)
(5.39726 0.032038 0)
(5.35257 -0.00285651 0)
(5.30985 -0.0415151 0)
(5.2703 -0.0693229 0)
(5.23584 -0.0791108 0)
(5.20623 -0.0729887 0)
(5.18072 -0.0584416 0)
(5.1596 -0.0424978 0)
(5.14349 -0.029015 0)
(5.13226 -0.0190289 0)
(5.12502 -0.0121625 0)
(5.12063 -0.0076442 0)
(5.11807 -0.00474597 0)
(5.11662 -0.00291642 0)
(5.11582 -0.00177516 0)
(5.11537 -0.00107099 0)
(5.11513 -0.000640602 0)
(5.11499 -0.000380102 0)
(5.11491 -0.00022411 0)
(5.11487 -0.000131284 0)
(5.11484 -7.6335e-05 0)
(5.11483 -4.42459e-05 0)
(5.11482 -2.55681e-05 0)
(5.11482 -1.47138e-05 0)
(5.11481 -8.41716e-06 0)
(5.11481 -4.70591e-06 0)
(5.11481 -2.65567e-06 0)
(5.11481 -1.55139e-06 0)
(5.11481 -8.60056e-07 0)
(5.11481 -4.46544e-07 0)
(5.11481 -2.95084e-07 0)
(5.11481 -2.33754e-07 0)
(5.11481 -1.13335e-07 0)
(5.11481 9.92823e-09 0)
(5.11481 3.17729e-08 0)
(5.11481 -2.14098e-08 0)
(5.11481 -8.03696e-08 0)
(5.11481 -4.66146e-08 0)
(5.11481 3.15375e-08 0)
(5.11481 1.36694e-08 0)
(5.11481 -4.58493e-08 0)
(5.11481 -5.88405e-08 0)
(5.11481 -1.38541e-08 0)
(5.11481 5.46059e-08 0)
(5.11481 3.80369e-08 0)
(5.11481 -3.93833e-08 0)
(5.11481 -5.8677e-08 0)
(5.11481 -1.26766e-08 0)
(5.11481 6.06115e-08 0)
(5.11481 9.76441e-08 0)
(5.11481 2.55672e-08 0)
(5.11481 -3.38929e-08 0)
(5.11481 -2.98199e-08 0)
(5.11481 1.96311e-08 0)
(5.11481 7.86637e-09 0)
(5.11481 4.95603e-08 0)
(5.11481 -5.36107e-09 0)
(5.11482 -1.65428e-08 0)
(5.1148 -7.92677e-08 0)
(5.11482 -6.10697e-08 0)
(5.1148 5.42163e-08 0)
(5.11482 -1.76847e-08 0)
(5.1148 1.53728e-07 0)
(5.11481 -1.21969e-07 0)
(5.11481 3.52051e-08 0)
(5.1148 4.83169e-08 0)
(5.11482 -1.55896e-07 0)
(5.1148 2.94533e-07 0)
(5.11482 -2.18706e-07 0)
(5.11481 -7.01685e-08 0)
(5.11481 1.92844e-07 0)
(5.11482 -3.22676e-07 0)
(5.11481 1.19267e-07 0)
(5.11481 1.54673e-07 0)
(5.11481 -1.57281e-07 0)
(5.11481 -3.8438e-08 0)
(10.1264 2.05311 0)
(11.9336 1.2953 0)
(10.9503 0.33405 0)
(11.4879 -0.143823 0)
(13.0021 -0.816921 0)
(11.9877 -0.309513 0)
(11.9764 -0.268954 0)
(12.6093 -1.75476 0)
(12.1797 -3.1404 0)
(10.7855 -3.39278 0)
(10.0131 -2.92679 0)
(9.26883 -1.89642 0)
(8.60332 -1.02948 0)
(7.39648 -0.638457 0)
(6.91364 -0.453472 0)
(6.38937 -0.324174 0)
(6.1187 -0.133797 0)
(6.06387 -0.0194003 0)
(5.76247 -0.0551625 0)
(5.44417 -0.0716554 0)
(5.40762 0.00437408 0)
(5.51195 0.098912 0)
(5.55993 0.128837 0)
(5.54082 0.0825526 0)
(5.49345 -0.000442053 0)
(5.42793 -0.0759429 0)
(5.35411 -0.115507 0)
(5.28799 -0.124505 0)
(5.23877 -0.113881 0)
(5.20451 -0.0925716 0)
(5.17925 -0.0683951 0)
(5.15942 -0.0469756 0)
(5.14414 -0.030709 0)
(5.13314 -0.0194789 0)
(5.1258 -0.0121444 0)
(5.1212 -0.0075008 0)
(5.11846 -0.00460408 0)
(5.11687 -0.00280985 0)
(5.11597 -0.00170387 0)
(5.11546 -0.00102612 0)
(5.11518 -0.000613424 0)
(5.11502 -0.000364021 0)
(5.11493 -0.000214673 0)
(5.11488 -0.000125784 0)
(5.11485 -7.31832e-05 0)
(5.11483 -4.24582e-05 0)
(5.11482 -2.45295e-05 0)
(5.11482 -1.40853e-05 0)
(5.11482 -8.06072e-06 0)
(5.11481 -4.5387e-06 0)
(5.11481 -2.56822e-06 0)
(5.11481 -1.48785e-06 0)
(5.11481 -8.36565e-07 0)
(5.11481 -4.5004e-07 0)
(5.11481 -2.73189e-07 0)
(5.11481 -2.03525e-07 0)
(5.11481 -9.42916e-08 0)
(5.11481 -1.07031e-08 0)
(5.11481 -3.60011e-09 0)
(5.11481 -1.71308e-08 0)
(5.11481 -4.80049e-08 0)
(5.11481 -3.57789e-08 0)
(5.11481 1.89222e-08 0)
(5.11481 5.22104e-09 0)
(5.11481 -3.2453e-08 0)
(5.11481 -3.22871e-08 0)
(5.11481 -9.7759e-09 0)
(5.11481 2.88306e-08 0)
(5.11481 2.58527e-08 0)
(5.11481 -2.30631e-08 0)
(5.11481 -3.23237e-08 0)
(5.11481 -1.40392e-10 0)
(5.11481 3.81686e-08 0)
(5.11481 5.67516e-08 0)
(5.11481 1.3776e-08 0)
(5.11481 -1.08584e-08 0)
(5.11481 -1.35159e-08 0)
(5.11481 1.97527e-08 0)
(5.11481 -8.11861e-09 0)
(5.11481 3.53628e-08 0)
(5.11481 -1.67471e-08 0)
(5.11482 4.01783e-09 0)
(5.1148 -5.2433e-08 0)
(5.11482 -4.74795e-08 0)
(5.1148 5.3779e-08 0)
(5.11482 -5.8241e-08 0)
(5.1148 1.64256e-07 0)
(5.11481 -1.42795e-07 0)
(5.11481 6.07862e-08 0)
(5.1148 6.65698e-08 0)
(5.11482 -1.98976e-07 0)
(5.1148 3.35267e-07 0)
(5.11482 -2.71766e-07 0)
(5.11481 -6.97869e-08 0)
(5.11481 2.64219e-07 0)
(5.11482 -3.70153e-07 0)
(5.11481 1.4445e-07 0)
(5.11481 1.84471e-07 0)
(5.11481 -1.99955e-07 0)
(5.11481 -5.6524e-08 0)
(10.4234 1.79189 0)
(11.3561 1.26592 0)
(11.1403 0.245039 0)
(12.3913 -0.297345 0)
(12.5114 -0.798692 0)
(11.475 -0.238882 0)
(12.1529 -0.285303 0)
(12.2171 -1.75684 0)
(11.667 -2.99556 0)
(10.9078 -3.23542 0)
(10.5009 -2.77877 0)
(9.59873 -1.78867 0)
(8.91591 -0.955406 0)
(7.66893 -0.565514 0)
(6.86766 -0.384328 0)
(6.50324 -0.231997 0)
(6.08343 -0.114661 0)
(6.02889 0.00386775 0)
(6.00337 0.0542486 0)
(5.67597 0.0247771 0)
(5.3618 0.00923079 0)
(5.33193 0.042987 0)
(5.50167 0.0743957 0)
(5.70595 0.0734516 0)
(5.81664 0.055859 0)
(5.77732 0.035492 0)
(5.63116 0.00253258 0)
(5.4668 -0.0317878 0)
(5.33942 -0.052509 0)
(5.25608 -0.0553691 0)
(5.20381 -0.0466294 0)
(5.17043 -0.0344106 0)
(5.14887 -0.0235539 0)
(5.13517 -0.0154856 0)
(5.12673 -0.00996794 0)
(5.12169 -0.00634267 0)
(5.11874 -0.00399968 0)
(5.11705 -0.00249822 0)
(5.11609 -0.00154368 0)
(5.11554 -0.000943336 0)
(5.11523 -0.000570069 0)
(5.11505 -0.000340886 0)
(5.11495 -0.000202096 0)
(5.11489 -0.000118849 0)
(5.11486 -6.93097e-05 0)
(5.11484 -4.02678e-05 0)
(5.11483 -2.33035e-05 0)
(5.11482 -1.33844e-05 0)
(5.11482 -7.66242e-06 0)
(5.11481 -4.31431e-06 0)
(5.11481 -2.44282e-06 0)
(5.11481 -1.42782e-06 0)
(5.11481 -7.98275e-07 0)
(5.11481 -4.06499e-07 0)
(5.11481 -2.61372e-07 0)
(5.11481 -2.07458e-07 0)
(5.11481 -9.03547e-08 0)
(5.11481 7.45603e-09 0)
(5.11481 1.75129e-08 0)
(5.11481 -1.81849e-08 0)
(5.11481 -6.48987e-08 0)
(5.11481 -4.14961e-08 0)
(5.11481 2.13246e-08 0)
(5.11481 9.31908e-09 0)
(5.11481 -3.9802e-08 0)
(5.11481 -4.94037e-08 0)
(5.11481 -1.11489e-08 0)
(5.11481 4.26555e-08 0)
(5.11481 2.92638e-08 0)
(5.11481 -3.14239e-08 0)
(5.11481 -4.59003e-08 0)
(5.11481 -6.10814e-09 0)
(5.11481 4.99434e-08 0)
(5.11481 7.73855e-08 0)
(5.11481 1.93612e-08 0)
(5.11481 -1.82313e-08 0)
(5.11481 -2.21845e-08 0)
(5.11481 2.24428e-08 0)
(5.11481 -5.01026e-09 0)
(5.11481 4.65639e-08 0)
(5.11481 -1.77535e-08 0)
(5.11482 8.49542e-10 0)
(5.1148 -7.29346e-08 0)
(5.11482 -5.85043e-08 0)
(5.1148 6.48879e-08 0)
(5.11482 -6.09555e-08 0)
(5.1148 1.98921e-07 0)
(5.11481 -1.77265e-07 0)
(5.11481 8.09767e-08 0)
(5.1148 6.29044e-08 0)
(5.11482 -2.30706e-07 0)
(5.1148 4.06167e-07 0)
(5.11482 -3.27717e-07 0)
(5.11481 -5.4427e-08 0)
(5.11481 2.9757e-07 0)
(5.11482 -4.46504e-07 0)
(5.11481 1.8197e-07 0)
(5.11481 2.0602e-07 0)
(5.11481 -2.30244e-07 0)
(5.11481 -5.72247e-08 0)
(10.3579 1.68713 0)
(10.7677 1.2298 0)
(11.387 0.0532409 0)
(12.3648 -0.416084 0)
(11.9057 -0.649106 0)
(11.0559 -0.209414 0)
(11.5542 -0.427465 0)
(11.8769 -1.64413 0)
(11.5369 -2.96171 0)
(10.8103 -3.17954 0)
(10.4125 -2.70404 0)
(9.93418 -1.48969 0)
(8.73991 -0.692162 0)
(7.89578 -0.340235 0)
(6.99966 -0.260638 0)
(6.42803 -0.161881 0)
(6.02338 -0.0355646 0)
(5.82707 -0.00352427 0)
(5.9031 0.00194265 0)
(5.92473 0.0339124 0)
(5.71648 0.0645453 0)
(5.47284 0.0785304 0)
(5.36422 0.0644799 0)
(5.35635 0.0265685 0)
(5.36283 -0.0159917 0)
(5.34536 -0.0537854 0)
(5.31054 -0.0789603 0)
(5.27388 -0.0910676 0)
(5.24177 -0.0901688 0)
(5.21419 -0.0770216 0)
(5.18937 -0.0579547 0)
(5.16738 -0.0397474 0)
(5.14952 -0.0257719 0)
(5.13647 -0.0162523 0)
(5.12777 -0.0101344 0)
(5.12235 -0.00629736 0)
(5.11913 -0.00390204 0)
(5.11727 -0.00240634 0)
(5.11622 -0.00147351 0)
(5.11562 -0.000894851 0)
(5.11527 -0.000538582 0)
(5.11508 -0.000321259 0)
(5.11497 -0.000190173 0)
(5.1149 -0.000111759 0)
(5.11486 -6.51767e-05 0)
(5.11484 -3.78892e-05 0)
(5.11483 -2.19168e-05 0)
(5.11482 -1.2562e-05 0)
(5.11482 -7.19245e-06 0)
(5.11481 -4.07387e-06 0)
(5.11481 -2.31671e-06 0)
(5.11481 -1.35023e-06 0)
(5.11481 -7.60205e-07 0)
(5.11481 -3.955e-07 0)
(5.11481 -2.3695e-07 0)
(5.11481 -1.80648e-07 0)
(5.11481 -7.51793e-08 0)
(5.11481 -5.0771e-09 0)
(5.11481 -8.97091e-09 0)
(5.11481 -1.71093e-08 0)
(5.11481 -4.31823e-08 0)
(5.11481 -3.5083e-08 0)
(5.11481 1.44164e-08 0)
(5.11481 3.13522e-09 0)
(5.11481 -3.14011e-08 0)
(5.11481 -2.97416e-08 0)
(5.11481 -7.64222e-09 0)
(5.11481 2.53845e-08 0)
(5.11481 2.10197e-08 0)
(5.11481 -2.07186e-08 0)
(5.11481 -2.70469e-08 0)
(5.11481 4.46865e-09 0)
(5.11481 3.60695e-08 0)
(5.11481 4.86932e-08 0)
(5.11481 9.23387e-09 0)
(5.11481 -2.56338e-09 0)
(5.11481 -1.18648e-08 0)
(5.11481 2.42183e-08 0)
(5.11481 -1.74453e-08 0)
(5.11481 3.82755e-08 0)
(5.11481 -2.90648e-08 0)
(5.11482 1.86131e-08 0)
(5.1148 -5.6948e-08 0)
(5.11482 -4.59625e-08 0)
(5.1148 6.70622e-08 0)
(5.11482 -9.28143e-08 0)
(5.1148 2.14298e-07 0)
(5.11481 -2.05279e-07 0)
(5.11481 1.10143e-07 0)
(5.1148 6.96627e-08 0)
(5.11482 -2.63661e-07 0)
(5.1148 4.51113e-07 0)
(5.11482 -3.90989e-07 0)
(5.11481 -3.9198e-08 0)
(5.11481 3.51845e-07 0)
(5.11482 -4.98173e-07 0)
(5.11481 2.16108e-07 0)
(5.11481 2.28714e-07 0)
(5.11481 -2.68482e-07 0)
(5.11481 -7.03563e-08 0)
(9.99308 1.60259 0)
(10.7723 1.1657 0)
(11.5525 -0.113924 0)
(11.9126 -0.423463 0)
(11.2275 -0.532533 0)
(10.7819 -0.141086 0)
(10.9495 -0.494584 0)
(11.5361 -1.6962 0)
(11.4312 -2.90896 0)
(10.9324 -3.07822 0)
(10.7622 -2.61498 0)
(10.2246 -1.35752 0)
(8.96994 -0.591416 0)
(7.80982 -0.275716 0)
(7.22724 -0.101088 0)
(6.44465 -0.0577741 0)
(5.90454 -0.0146715 0)
(5.8731 0.0251513 0)
(5.94541 0.0544707 0)
(5.82618 0.0751794 0)
(5.65277 0.0907773 0)
(5.57089 0.0994758 0)
(5.58732 0.0929771 0)
(5.65569 0.0741033 0)
(5.70908 0.0597889 0)
(5.69151 0.0501906 0)
(5.59692 0.0282707 0)
(5.4671 -0.00588211 0)
(5.34938 -0.0317181 0)
(5.26378 -0.0400957 0)
(5.20766 -0.0356022 0)
(5.17215 -0.0265535 0)
(5.14989 -0.0180451 0)
(5.13606 -0.0117704 0)
(5.12756 -0.00759211 0)
(5.12238 -0.00490122 0)
(5.11927 -0.00315874 0)
(5.11742 -0.00201948 0)
(5.11633 -0.00127424 0)
(5.11569 -0.000792001 0)
(5.11532 -0.000484791 0)
(5.11511 -0.000292552 0)
(5.11498 -0.000174525 0)
(5.11491 -0.000103085 0)
(5.11487 -6.03115e-05 0)
(5.11484 -3.51156e-05 0)
(5.11483 -2.03373e-05 0)
(5.11482 -1.16564e-05 0)
(5.11482 -6.68119e-06 0)
(5.11481 -3.79191e-06 0)
(5.11481 -2.16335e-06 0)
(5.11481 -1.27012e-06 0)
(5.11481 -7.07946e-07 0)
(5.11481 -3.51193e-07 0)
(5.11481 -2.16853e-07 0)
(5.11481 -1.76376e-07 0)
(5.11481 -6.92503e-08 0)
(5.11481 6.28085e-09 0)
(5.11481 7.07195e-09 0)
(5.11481 -1.43291e-08 0)
(5.11481 -5.34749e-08 0)
(5.11481 -3.70949e-08 0)
(5.11481 1.56993e-08 0)
(5.11481 5.41809e-09 0)
(5.11481 -3.357e-08 0)
(5.11481 -4.07335e-08 0)
(5.11481 -8.8641e-09 0)
(5.11481 3.38538e-08 0)
(5.11481 2.1694e-08 0)