/*--------------------------------*- C++ -*----------------------------------*\
| =========                 |                                                 |
| \\      /  F ield         | OpenFOAM: The Open Source CFD Toolbox           |
|  \\    /   O peration     | Version:  2.4.0                                 |
|   \\  /    A nd           | Web:      www.OpenFOAM.org                      |
|    \\/     M anipulation  |                                                 |
\*---------------------------------------------------------------------------*/
FoamFile
{
    version     2.0;
    format      ascii;
    class       volScalarField;
    location    "1";
    object      k;
}
// * * * * * * * * * * * * * * * * * * * * * * * * * * * * * * * * * * * * * //

dimensions      [0 2 -2 0 0 0 0];

internalField   nonuniform List<scalar> 
8800
(
8.14213
10.2451
8.79487
6.82062
5.71267
4.96587
4.54357
4.11573
3.93513
3.65761
3.55342
3.35497
3.31414
3.1517
3.11279
2.9775
2.94254
2.79835
2.77439
2.55068
1.41817
4.33995
5.31785
5.28318
5.1321
4.80392
4.5973
4.25969
4.13497
3.87689
3.77401
3.58174
3.52929
3.36546
3.33191
3.21462
3.18122
3.07234
3.03196
2.97549
0.0852221
0.732801
1.55852
1.9234
2.306
2.415
2.58887
2.60752
2.6214
2.58881
2.58799
2.53956
2.52485
2.46937
2.46279
2.40791
2.40146
2.36599
2.3474
2.30735
0.00339147
0.0703675
0.252724
0.397549
0.613927
0.697115
0.831696
0.954354
1.02096
1.066
1.17511
1.20825
1.2533
1.30148
1.34729
1.36131
1.38934
1.4295
1.44403
1.45397
0.000124598
0.00500173
0.0225897
0.0440107
0.0985049
0.126732
0.157327
0.220661
0.24813
0.268447
0.32164
0.360607
0.378515
0.430641
0.461115
0.50219
0.521942
0.57442
0.593902
0.639581
2.47296e-05
0.000318913
0.00138507
0.00319457
0.00926562
0.0140772
0.0183438
0.0301145
0.0365891
0.0407375
0.0519909
0.0641312
0.0692697
0.0861738
0.0974056
0.113605
0.121066
0.140058
0.148547
0.168092
2.1237e-05
4.69154e-05
0.000116727
0.000215701
0.000599802
0.00114077
0.0016173
0.00295855
0.00348955
0.00373164
0.00451328
0.00613997
0.00696636
0.00991436
0.0121793
0.0153658
0.0168185
0.0201247
0.0218043
0.0251114
2.12508e-05
3.85775e-05
7.38554e-05
6.91247e-05
7.22383e-05
9.26858e-05
0.000163951
0.000407772
0.000497447
0.000466054
0.000462679
0.000480115
0.000508502
0.000707457
0.00100254
0.00136282
0.0015033
0.00168303
0.00213392
0.0021957
2.10582e-05
2.75933e-05
5.3813e-05
8.83833e-05
8.9551e-05
8.30229e-05
7.56473e-05
8.88718e-05
0.000152615
0.00017577
0.000175114
0.000164475
0.000154535
0.000156314
0.000168259
0.000186039
0.000191123
0.000203096
0.000249032
0.000287315
2.07376e-05
2.64592e-05
3.56049e-05
7.11928e-05
9.16055e-05
8.95167e-05
7.44064e-05
6.76515e-05
7.10211e-05
9.48895e-05
0.000119883
0.000129792
0.000127447
0.00012456
0.000116764
0.000111819
0.000110342
0.000112267
0.000126896
0.000143349
2.05723e-05
2.84735e-05
4.5903e-05
6.57295e-05
6.5018e-05
6.07102e-05
5.93228e-05
6.45606e-05
9.08767e-05
0.000114329
0.00012462
0.00012167
0.000104445
9.54113e-05
9.42483e-05
9.47635e-05
9.61346e-05
0.000101277
0.000105219
0.000113387
2.05279e-05
2.78043e-05
7.0277e-05
8.22199e-05
6.97148e-05
5.92076e-05
6.06336e-05
8.15956e-05
0.00014231
0.000164351
0.000157857
0.000140373
0.000132287
0.000121385
0.000119521
0.000125208
0.000142872
0.000202178
0.000249476
0.000309669
2.10775e-05
3.29484e-05
8.78949e-05
8.38049e-05
7.56858e-05
9.97753e-05
0.00013765
0.000198529
0.00039388
0.000457001
0.000454606
0.00054397
0.00062385
0.000649271
0.000703342
0.000916319
0.00117558
0.00191439
0.00242409
0.0034141
2.13722e-05
4.77245e-05
0.000236419
0.000285129
0.000379146
0.000933803
0.00133505
0.0019101
0.00375349
0.00484111
0.00525389
0.00709853
0.00813729
0.00915551
0.0102907
0.0136556
0.0160837
0.022314
0.0260291
0.0345064
2.45857e-05
0.00033026
0.00266801
0.0037978
0.0059439
0.0138366
0.0182052
0.0241777
0.0400809
0.0481453
0.0521323
0.0667062
0.0739504
0.0834387
0.0910044
0.111598
0.122889
0.150212
0.164704
0.199803
0.000117961
0.00511351
0.03239
0.0475244
0.0738627
0.136721
0.159759
0.196871
0.264682
0.292465
0.309847
0.366243
0.389119
0.421221
0.446869
0.510587
0.536446
0.599773
0.630688
0.703072
0.00330684
0.0710347
0.287429
0.384727
0.564492
0.741175
0.810099
0.920667
1.05992
1.09921
1.14231
1.22628
1.25413
1.28891
1.33499
1.39303
1.41205
1.46445
1.48649
1.53381
0.0842573
0.737874
1.59103
1.89177
2.28957
2.45566
2.55683
2.59875
2.64049
2.59828
2.58279
2.54068
2.5242
2.46928
2.46183
2.42803
2.41493
2.38264
2.37111
2.34067
1.4036
4.3722
5.31021
5.2793
5.13415
4.78822
4.6068
4.27575
4.11914
3.87582
3.78184
3.56635
3.51721
3.37075
3.3272
3.19558
3.16529
3.03964
2.99568
2.88921
8.12485
10.2902
8.76532
6.83763
5.71599
4.94077
4.55413
4.13184
3.9167
3.64844
3.55878
3.34231
3.29542
3.13082
3.09542
2.92351
2.88632
2.70369
2.63081
2.41143
1.77278
1.31718
1.06617
0.917706
0.826279
0.766326
0.718704
0.683007
0.648388
0.621779
0.595275
0.576506
0.557401
0.545179
0.532308
0.524822
0.518144
0.516009
0.515697
0.517324
0.518794
0.523152
0.526039
0.533585
0.536002
0.53899
0.537065
0.533886
0.523207
0.516623
0.500409
0.489912
0.466826
0.453574
0.426141
0.411477
0.382428
0.36706
0.339651
0.324355
0.299317
0.286948
0.267896
0.259621
0.246498
0.243922
0.239098
0.240051
0.238899
0.242038
0.243631
0.252811
0.256039
0.268421
0.271434
0.284017
0.28719
0.298692
0.303317
0.315343
0.320068
0.330925
0.335747
0.346259
0.3487
0.356165
0.35445
0.355382
0.347783
0.335529
0.300286
0.263823
0.208576
0.170358
0.143576
0.134933
0.129818
0.130234
0.132067
0.140315
0.147336
0.163544
0.174326
0.193064
0.210326
0.225868
0.237975
0.2435
0.254043
0.262208
0.277168
0.283827
0.30618
0.311159
0.324498
0.32109
0.321888
0.312243
0.303252
0.275306
0.252205
0.197511
0.173365
0.139365
0.129079
0.11073
0.105628
0.0960638
0.0924737
0.0906243
0.091388
0.0917709
0.0962598
0.0959862
0.105055
0.105981
0.109666
0.107384
0.105354
0.101616
0.0985322
0.097214
0.0940331
0.0924868
0.0888796
0.0840031
0.0814689
0.075632
0.0746424
0.0710575
0.0725303
0.0721601
0.0778249
0.0795155
0.0897428
0.0935221
0.108791
0.114187
0.130755
0.133939
0.145454
0.146416
0.151332
0.156073
0.187592
0.199522
0.19941
0.189181
0.176391
0.14644
0.131806
0.114404
0.10842
0.0970149
0.0960996
0.0926349
0.0971127
0.0962554
0.107764
0.108875
0.129358
0.132785
0.153722
0.153348
0.165381
0.162651
0.170025
0.165716
0.171063
0.165808
0.17083
0.164429
0.166965
0.160672
0.161941
0.154677
0.155654
0.148361
0.148566
0.13974
0.141029
0.133186
0.13744
0.129684
0.135933
0.127072
0.1339
0.12263
0.128292
0.116288
0.124936
0.115336
0.132564
0.126872
0.157313
0.158616
0.20991
0.229006
0.342508
0.875816
2.50546
2.04472
1.70651
1.47589
1.3036
1.18604
1.08844
1.02087
0.954426
0.90947
0.858913
0.827278
0.789053
0.766899
0.738069
0.722855
0.698929
0.687637
0.666751
0.658867
0.643192
0.63782
0.626559
0.623149
0.615433
0.61296
0.605964
0.603731
0.596342
0.593829
0.586144
0.583737
0.57569
0.572617
0.562952
0.559141
0.547254
0.542223
0.52795
0.521704
0.505186
0.498663
0.481717
0.475658
0.460008
0.455295
0.442542
0.439306
0.429018
0.427034
0.41902
0.418359
0.412991
0.412899
0.409253
0.409947
0.408508
0.409096
0.409012
0.409202
0.411648
0.411196
0.412617
0.412207
0.413007
0.412944
0.414355
0.414502
0.416678
0.416576
0.414846
0.409955
0.400575
0.37977
0.331645
0.271508
0.225643
0.18897
0.169966
0.156973
0.155978
0.155205
0.158809
0.162196
0.173046
0.178167
0.191838
0.20123
0.229238
0.240849
0.265097
0.268649
0.270473
0.267088
0.264173
0.262468
0.262106
0.26361
0.26672
0.269134
0.267181
0.261552
0.251209
0.224959
0.18811
0.156161
0.129883
0.114049
0.100368
0.0956383
0.0913816
0.0897666
0.0893588
0.0879821
0.0869488
0.085883
0.0818533
0.0807317
0.0779714
0.0756455
0.0725454
0.0699775
0.0694595
0.068729
0.0694028
0.0691788
0.0700692
0.0694565
0.0702584
0.0687763
0.0707951
0.0704981
0.0764235
0.0774198
0.0873877
0.0897646
0.100776
0.101483
0.11299
0.114841
0.128837
0.128804
0.139778
0.139601
0.151466
0.160599
0.18794
0.184326
0.185499
0.174493
0.170297
0.149555
0.148268
0.136856
0.143661
0.138455
0.15084
0.148186
0.162233
0.160313
0.168223
0.164564
0.167704
0.162046
0.160185
0.150821
0.145737
0.132689
0.128687
0.118015
0.115931
0.109456
0.108369
0.102881
0.103301
0.0992482
0.101411
0.0984854
0.102897
0.101386
0.108806
0.107596
0.116351
0.114632
0.122637
0.119653
0.126147
0.120587
0.123904
0.116321
0.119828
0.11405
0.121943
0.122146
0.131849
0.143387
0.163464
0.212258
0.251808
0.444507
2.06013
1.80901
1.5892
1.42774
1.29093
1.19352
1.10029
1.03828
0.969878
0.924849
0.871902
0.837048
0.794965
0.768595
0.733025
0.715558
0.686733
0.674512
0.651789
0.642104
0.622582
0.613692
0.594716
0.587322
0.571537
0.56603
0.55462
0.551432
0.544371
0.542392
0.536143
0.534051
0.527056
0.524779
0.517998
0.516323
0.511531
0.510717
0.507376
0.50653
0.502047
0.500278
0.494392
0.492289
0.486475
0.48468
0.480386
0.479104
0.475876
0.474462
0.471275
0.467624
0.4655
0.459228
0.456439
0.448353
0.445786
0.436866
0.433892
0.423851
0.420139
0.408525
0.403689
0.39048
0.385463
0.372649
0.36958
0.3614
0.362535
0.362943
0.369206
0.373249
0.390236
0.395468
0.398549
0.39416
0.386126
0.359955
0.341451
0.305604
0.277637
0.249018
0.234852
0.227191
0.22554
0.226423
0.22884
0.244147
0.252259
0.25964
0.256513
0.256871
0.247082
0.243308
0.227398
0.223437
0.211938
0.210119
0.202724
0.202804
0.202263
0.209576
0.215504
0.216057
0.212905
0.207041
0.192737
0.170244
0.14245
0.121035
0.106838
0.0971663
0.0923685
0.0842649
0.0815999
0.0756507
0.0742175
0.0706588
0.0704825
0.069401
0.0698795
0.068761
0.0701321
0.0700324
0.0726267
0.0725268
0.0762003
0.0765446
0.0806192
0.0805001
0.0850067
0.085034
0.0906609
0.0910772
0.0969756
0.096624
0.0996294
0.0972108
0.0986874
0.0938926
0.0947761
0.0909521
0.0966201
0.097731
0.109572
0.114641
0.143655
0.154426
0.179853
0.173695
0.179519
0.1683
0.171524
0.160553
0.163454
0.154887
0.156518
0.151454
0.149329
0.146774
0.137861
0.133745
0.12035
0.115116
0.103341
0.0958278
0.0887333
0.0826547
0.0804291
0.0770739
0.0765996
0.0756662
0.0760345
0.0754346
0.075925
0.0756251
0.0761176
0.0763265
0.0769509
0.078509
0.079549
0.0825074
0.0829634
0.0860034
0.0848079
0.0875131
0.0841855
0.0864838
0.0811144
0.0818647
0.0740162
0.074499
0.0679203
0.0737315
0.0694489
0.084465
0.0857919
0.130735
0.145117
0.214027
1.35158
1.23564
1.11548
1.03176
0.951813
0.893827
0.835978
0.792472
0.748646
0.716478
0.680636
0.656845
0.623664
0.602566
0.571281
0.551354
0.526617
0.510871
0.492241
0.483169
0.467923
0.46123
0.446769
0.438893
0.424
0.414489
0.401426
0.394622
0.386129
0.383862
0.379464
0.379076
0.377978
0.377797
0.375525
0.373321
0.367933
0.366595
0.364928
0.365586
0.365968
0.368885
0.370451
0.374896
0.376195
0.378836
0.379083
0.380452
0.380606
0.381641
0.381898
0.382116
0.382192
0.381194
0.379756
0.375355
0.371493
0.3614
0.354536
0.339554
0.329826
0.313319
0.303705
0.288778
0.277513
0.266913
0.258393
0.251898
0.245794
0.245412
0.246045
0.248339
0.251997
0.263653
0.27146
0.291105
0.309703
0.321607
0.322193
0.323124
0.319416
0.317049
0.30806
0.305637
0.29625
0.293459
0.283952
0.281032
0.270559
0.264871
0.246865
0.236164
0.212403
0.196564
0.172595
0.15126
0.129869
0.117444
0.111241
0.11058
0.111716
0.116342
0.120389
0.130759
0.144261
0.16352
0.166428
0.166189
0.164013
0.156271
0.151496
0.137363
0.130115
0.109674
0.105088
0.0941085
0.0959993
0.0941952
0.0969306
0.097875
0.10034
0.101833
0.104974
0.1071
0.107251
0.110022
0.108535
0.111489
0.109022
0.110912
0.107512
0.111262
0.107861
0.110503
0.106372
0.106864
0.10258
0.100416
0.0904437
0.0857746
0.0730809
0.0673101
0.0575421
0.0574454
0.057641
0.0614911
0.0679856
0.0889838
0.105774
0.136996
0.146586
0.151199
0.149827
0.148124
0.141334
0.138933
0.129348
0.126497
0.115461
0.111844
0.101772
0.0987325
0.090028
0.0871739
0.0807534
0.0762239
0.0730841
0.0704315
0.0695319
0.0690634
0.0690201
0.0694754
0.0692868
0.0703366
0.069859
0.0716498
0.0707816
0.0735419
0.0722326
0.0756554
0.0736192
0.0768259
0.0737589
0.0757742
0.0719208
0.0721407
0.0681663
0.0675965
0.0642242
0.0641382
0.0595874
0.0565195
0.0531396
0.0538174
0.0536649
0.0576502
0.0586796
0.0726547
0.0775493
0.0989171
0.609684
0.574918
0.525707
0.492395
0.464558
0.437244
0.419711
0.399474
0.384221
0.373329
0.357576
0.350732
0.337915
0.329312
0.316584
0.303224
0.290518
0.277548
0.263942
0.256918
0.246761
0.243406
0.237263
0.235163
0.231099
0.226956
0.218702
0.211793
0.20147
0.195696
0.189844
0.189126
0.188797
0.190089
0.191586
0.194849
0.195232
0.195932
0.192921
0.19181
0.189746
0.190462
0.190355
0.192703
0.194192
0.200056
0.202091
0.20808
0.208895
0.211142
0.210802
0.211602
0.210311
0.210175
0.207356
0.206114
0.201449
0.198623
0.19107
0.18635
0.17483
0.168412
0.153711
0.146255
0.131268
0.124326
0.112288
0.106469
0.103182
0.103337
0.10483
0.110471
0.114788
0.125515
0.131193
0.142954
0.150195
0.166903
0.178678
0.195641
0.206794
0.220953
0.225212
0.228943
0.228527
0.225732
0.221158
0.209406
0.197424
0.1825
0.163653
0.139345
0.118868
0.0919527
0.0781339
0.0628079
0.0522496
0.0428082
0.0379399
0.0365095
0.0366412
0.0397551
0.0421378
0.0520086
0.0575989
0.0674573
0.0760857
0.105292
0.118409
0.132372
0.133573
0.135944
0.134175
0.13389
0.128805
0.128551
0.123502
0.126011
0.121204
0.124542
0.120378
0.123947
0.119656
0.122991
0.117687
0.121369
0.114946
0.118761
0.11131
0.115265
0.107687
0.11256
0.103902
0.108667
0.0996555
0.100856
0.0892178
0.0861724
0.0699326
0.0662284
0.0550816
0.0534666
0.0475556
0.0466533
0.0435548
0.0444601
0.045271
0.0532935
0.0588971
0.0792017
0.0863971
0.105198
0.107868
0.115015
0.111828
0.11196
0.107016
0.105237
0.0971076
0.0945921
0.0857773
0.0833239
0.0755683
0.0734623
0.0673125
0.0660773
0.0628736
0.0636454
0.0618292
0.0633438
0.0608299
0.0625339
0.0594804
0.0616888
0.0599037
0.0623692
0.0612993
0.0639653
0.0627334
0.0649749
0.0631524
0.064304
0.0624039
0.0625198
0.0612071
0.0599652
0.0572205
0.0545749
0.0525398
0.0511579
0.0476596
0.0453188
0.0390168
0.0381774
0.0369819
0.0391634
0.0397257
0.0468537
0.0506521
0.0598718
0.16391
0.159109
0.149777
0.141627
0.136201
0.128458
0.124627
0.11971
0.116285
0.114525
0.111741
0.110865
0.109236
0.10777
0.10645
0.102759
0.0997802
0.0948739
0.0897857
0.0865964
0.0831081
0.0816619
0.0803697
0.0795582
0.0795923
0.0794824
0.0792692
0.0775659
0.0740751
0.0698472
0.0661163
0.0634611
0.0626728
0.0623288
0.0628189
0.0641992
0.0670773
0.0688963
0.0700649
0.0700989
0.0697047
0.0682185
0.0679843
0.0677567
0.0678731
0.0686747
0.0710432
0.0750957
0.0782771
0.0809653
0.0826303
0.0833778
0.0832371
0.0827428
0.0802239
0.0787932
0.0753773
0.073752
0.0696407
0.0674625
0.0629089
0.0604747
0.0552591
0.0514637
0.0457488
0.0417891
0.0369725
0.0331394
0.0303965
0.0292133
0.0292844
0.029923
0.0317185
0.0351864
0.0403139
0.0453996
0.0510025
0.0546291
0.0619205
0.0669895
0.0712163
0.0770698
0.0809651
0.0849333
0.0864067
0.0852611
0.0834566
0.0789417
0.0724883
0.0645568
0.0565824
0.0466658
0.0402005
0.032117
0.0282251
0.0238428
0.0198626
0.0162977
0.0131423
0.012122
0.0116442
0.0125378
0.0134052
0.0176498
0.0198966
0.0257366
0.0286337
0.0388092
0.0438327
0.0621172
0.0686184
0.0902602
0.0943233
0.107814
0.105222
0.111108
0.106345
0.111247
0.105863
0.109231
0.103487
0.104736
0.0976337
0.0978854
0.0886528
0.0886125
0.0779391
0.0769373
0.0663389
0.0671363
0.056334
0.0574529
0.0487516
0.0507791
0.0432229
0.0441151
0.0373436
0.0374269
0.033295
0.0353152
0.0348263
0.0375594
0.0370993
0.037839
0.0369424
0.0366783
0.0368913
0.0381203
0.0413365
0.0506581
0.05823
0.0708482
0.0772502
0.0850121
0.084869
0.0853156
0.0832897
0.0822934
0.0786542
0.0770204
0.0732105
0.0713489
0.0670308
0.0653804
0.0611224
0.060211
0.0564974
0.0561286
0.051331
0.0504785
0.0472958
0.047458
0.048364
0.0491814
0.0521683
0.0529734
0.056405
0.0567834
0.0590741
0.0585511
0.0596324
0.0585073
0.059011
0.0578392
0.058515
0.0572365
0.0574695
0.0556708
0.0545404
0.0510762
0.0467555
0.0422266
0.0360894
0.0320192
0.0281642
0.0283563
0.0280349
0.0305248
0.0322643
0.0364055
0.0247725
0.0243941
0.0236746
0.0227616
0.0221941
0.0213757
0.0208979
0.0202287
0.0198388
0.0197841
0.0197295
0.0198207
0.0200578
0.0201326
0.0201496
0.0200847
0.0199487
0.0195805
0.0187043
0.0180444
0.0173736
0.0171093
0.0170665
0.0170908
0.0173511
0.0176738
0.0180952
0.0182711
0.0182146
0.0172609
0.015869
0.014618
0.0138821
0.0135147
0.0134458
0.0137167
0.0148786
0.01661
0.0177094
0.0183967
0.0186071
0.0183148
0.0180741
0.0175552
0.0174731
0.0173731
0.0175207
0.0181814
0.0205739
0.0218669
0.0239261
0.0246228
0.0252272
0.025141
0.0248138
0.0238444
0.0223329
0.0211335
0.0197329
0.0185644
0.0174049
0.016711
0.016135
0.0154965
0.0139548
0.0125493
0.0107462
0.00913964
0.00787524
0.00693945
0.00665846
0.00662657
0.00682235
0.00807651
0.00941768
0.0115283
0.0143436
0.0155884
0.0174946
0.0196283
0.0207611
0.0223135
0.0231493
0.0233885
0.0233924
0.0228225
0.0220272
0.0211222
0.0191017
0.017695
0.0157727
0.0140612
0.0125193
0.0108472
0.00961059
0.00879162
0.00736168
0.00645572
0.00510482
0.00479317
0.00446299
0.00470881
0.0050432
0.00678036
0.00792398
0.0107066
0.0119258
0.0154217
0.0172308
0.0236002
0.026494
0.0368046
0.0398523
0.0517339
0.0525607
0.0603052
0.0576297
0.0613208
0.0564717
0.0568938
0.051293
0.050112
0.0422976
0.0410152
0.0337273
0.0321921
0.0257842
0.0247706
0.0200359
0.0194319
0.0163158
0.0164511
0.0151584
0.0160063
0.0157203
0.0167247
0.0169146
0.0187182
0.0201445
0.0250168
0.0283464
0.0350354
0.0373539
0.037651
0.0374681
0.0358394
0.0361473
0.0354324
0.0367005
0.038474
0.0460416
0.0509922
0.0601581
0.067026
0.072614
0.0732306
0.0755127
0.0738372
0.0743713
0.0725016
0.0718066
0.0693461
0.0645802
0.0624239
0.0561807
0.0544106
0.046756
0.0453211
0.0402107
0.0407469
0.0423026
0.0442328
0.0504008
0.0533136
0.0641545
0.0672132
0.0787385
0.0800606
0.0876967
0.0848079
0.0872455
0.0817272
0.0814194
0.0749331
0.0738843
0.0686041
0.0685502
0.0641236
0.0625041
0.0550832
0.0520406
0.0437692
0.038257
0.0325916
0.0275778
0.0247437
0.02234
0.0224152
0.0227594
0.0237801
0.00216452
0.00212936
0.00209578
0.00202507
0.00197946
0.0019046
0.00184497
0.00178071
0.00173481
0.00172003
0.00171056
0.00170635
0.001737
0.00178732
0.00191037
0.00197241
0.00203954
0.00206464
0.00207801
0.00207843
0.00208433
0.00208418
0.00213061
0.00217311
0.00227308
0.00234181
0.00241975
0.00246003
0.00246413
0.00234302
0.002169
0.00196479
0.00187937
0.00181688
0.00181339
0.00184828
0.00202891
0.00244445
0.00268718
0.00288332
0.00291967
0.00290293
0.00277209
0.00268717
0.0025736
0.00254108
0.00251244
0.00266097
0.0032434
0.00397835
0.00464155
0.00510281
0.00537703
0.00543775
0.00537396
0.00508648
0.00451443
0.00427487
0.00394699
0.00384165
0.00370414
0.00362761
0.00357636
0.00344201
0.00299601
0.00255996
0.00211491
0.00174206
0.00146395
0.00125022
0.00115751
0.00114374
0.00117552
0.00157473
0.00193374
0.00244592
0.0031847
0.00371846
0.00429322
0.0048312
0.00517148
0.00550173
0.00550853
0.00544865
0.00514415
0.00475359
0.00453259
0.00440229
0.00421216
0.0041205
0.00391873
0.00378099
0.00351585
0.0033118
0.00292341
0.00280492
0.00247293
0.00238506
0.00210999
0.00210586
0.00204709
0.00221281
0.00235488
0.00312526
0.0035508
0.00467515
0.00508242
0.00631569
0.00674878
0.0085267
0.00918417
0.0122552
0.0132574
0.0174077
0.017928
0.021464
0.0211073
0.0224445
0.0211548
0.0212003
0.0194047
0.0189671
0.016547
0.0159385
0.0134413
0.0127431
0.0105804
0.0101509
0.00903907
0.00906402
0.00918022
0.00955438
0.0102592
0.0111914
0.0127742
0.0140274
0.0153121
0.0181443
0.0203611
0.0255171
0.0281115
0.0342241
0.0377597
0.0385996
0.0382778
0.0363607
0.035642
0.0328726
0.0330016
0.03279
0.0350301
0.0372245
0.0434021
0.0464285
0.0548306
0.0565432
0.0622603
0.0623616
0.0632469
0.0626094
0.0584874
0.0571803
0.0488709
0.047772
0.0388276
0.0378246
0.0335315
0.0353517
0.0366182
0.0400439
0.0513633
0.0594414
0.0841209
0.0943337
0.124498
0.132791
0.157681
0.161416
0.174679
0.16899
0.170156
0.158093
0.153541
0.13239
0.125178
0.105058
0.099697
0.0854448
0.0806503
0.0662124
0.0607382
0.0485264
0.0417847
0.034434
0.0290093
0.0247174
0.0219545
0.0201364
0.0198185
0.0197141
0.000284897
0.00028122
0.000282625
0.000281674
0.000278095
0.000269687
0.000256688
0.000246976
0.000237935
0.000232065
0.000227078
0.000222566
0.000221035
0.000219228
0.000218676
0.000219803
0.000223351
0.000235714
0.000241305
0.000249673
0.000254945
0.000261521
0.000270459
0.000280298
0.000288192
0.000299063
0.000303845
0.000313409
0.000317591
0.000320756
0.000319725
0.0003034
0.000291648
0.000283977
0.000283961
0.000287553
0.000303739
0.000326985
0.000339495
0.000345928
0.000346307
0.00033952
0.000336338
0.000330866
0.000333957
0.00033358
0.000337395
0.000353725
0.000421486
0.000522312
0.000631936
0.000712535
0.000790936
0.000797554
0.000802864
0.000787561
0.000767563
0.000742182
0.000711548
0.000696584
0.000673445
0.000643049
0.00058413
0.000516555
0.000454089
0.00040273
0.000368589
0.000354499
0.000348374
0.000352026
0.000354441
0.000355582
0.000356271
0.000365628
0.000388618
0.000453256
0.000518714
0.000614741
0.000721035
0.000778895
0.000855729
0.000988891
0.00102311
0.00105225
0.00104835
0.00100636
0.00095095
0.00091015
0.000890889
0.00086164
0.000828536
0.00082236
0.000822832
0.000860815
0.000883414
0.000926564
0.000938925
0.000982741
0.000999719
0.001063
0.00108165
0.00119759
0.00131886
0.00168641
0.0018159
0.00212167
0.00218942
0.00247315
0.00252367
0.00289399
0.00301983
0.00373199
0.00407968
0.00532895
0.00578313
0.00715983
0.00763006
0.00850673
0.00844336
0.00843059
0.00813282
0.00794955
0.00737993
0.00714044
0.00664433
0.00637281
0.00639627
0.00660937
0.00709535
0.00768939
0.00916263
0.0104718
0.0144141
0.0163685
0.0221978
0.0237478
0.0291111
0.0298736
0.03339
0.0345049
0.0381155
0.0400608
0.042982
0.0430809
0.0430352
0.0404887
0.038854
0.0340163
0.0330771
0.0312466
0.0316668
0.0317253
0.0327749
0.0350568
0.0378081
0.0422828
0.0424146
0.0431293
0.0408221
0.0406208
0.0350345
0.0341733
0.0279336
0.02768
0.0258227
0.0267423
0.0288158
0.0330595
0.0495582
0.0636735
0.104892
0.126568
0.184003
0.204379
0.257454
0.268183
0.298655
0.301432
0.308673
0.3013
0.299677
0.279173
0.267564
0.229787
0.212162
0.170065
0.154554
0.120734
0.109516
0.0860132
0.0753883
0.0585516
0.049342
0.0392414
0.0331899
0.027221
0.0239069
0.021091
0.0201103
0.019551
0.00014636
0.000147959
0.000153159
0.000159032
0.00015911
0.000158732
0.000157406
0.00015685
0.000154576
0.000153159
0.000150376
0.000147105
0.000144429
0.000141961
0.000139789
0.00013791
0.00013612
0.000134603
0.000133885
0.000133457
0.000133478
0.00013393
0.000136868
0.000139901
0.000143432
0.000147863
0.000151287
0.000154996
0.000156414
0.000157328
0.000158849
0.000159901
0.000164769
0.00016629
0.000168562
0.000167884
0.000168046
0.000167555
0.00016741
0.000167899
0.000167759
0.000168109
0.00016905
0.000169496
0.000172116
0.00017161
0.000173727
0.000173065
0.00017379
0.000176256
0.000180505
0.000189545
0.000201455
0.000211942
0.000232495
0.000241521
0.000251218
0.00025221
0.000252941
0.000247958
0.00023307
0.000222224
0.000216106
0.000215265
0.000221479
0.000233671
0.000251725
0.000254705
0.00025451
0.000250591
0.000247971
0.000248106
0.000257025
0.000273812
0.000277219
0.000282974
0.000280017
0.000271481
0.000270526
0.000267118
0.000271023
0.000291295
0.00032182
0.00035035
0.000375288
0.000385602
0.00039159
0.000393316
0.000395502
0.000398091
0.000402395
0.000412283
0.000446513
0.000507883
0.000597268
0.000634773
0.000687857
0.000708447
0.000791212
0.000841904
0.000997765
0.00104248
0.00114642
0.00122053
0.00129935
0.00144932
0.00152166
0.00173773
0.00179396
0.00204463
0.00209474
0.00240866
0.00249865
0.00296398
0.00308873
0.00359318
0.00373278
0.00405363
0.00413459
0.00417441
0.00426555
0.00428578
0.00446633
0.00454835
0.00488232
0.00514036
0.00595338
0.00680797
0.00953609
0.0120719
0.0195721
0.0242096
0.0376581
0.0430209
0.0586822
0.0617421
0.0708897
0.0691448
0.0696039
0.0657506
0.0645267
0.0603195
0.0585918
0.0540866
0.0539547
0.0524926
0.0500754
0.0432678
0.0376623
0.0347081
0.0317347
0.0317363
0.031139
0.032425
0.0318458
0.0328854
0.0313622
0.0309091
0.0279221
0.0264763
0.0221519
0.0212453
0.0205827
0.0210447
0.0231828
0.0281302
0.0489685
0.0671789
0.126835
0.162531
0.25244
0.292629
0.342901
0.353161
0.373794
0.374777
0.386314
0.385265
0.388817
0.386202
0.38445
0.367655
0.356995
0.31877
0.296328
0.244911
0.217939
0.171625
0.147145
0.11217
0.0970899
0.0765524
0.0652701
0.0516956
0.0433402
0.0352124
0.030718
0.0262459
0.0245862
0.0224515
0.000114622
0.000115528
0.00011813
0.000124538
0.000125533
0.000125359
0.00012494
0.000123302
0.000122831
0.00012292
0.00012274
0.000123005
0.000123288
0.000123753
0.000124614
0.000124932
0.000125626
0.000126418
0.000127341
0.000130405
0.000133192
0.000138625
0.00014062
0.000142781
0.00014351
0.00014397
0.000144434
0.000146101
0.000149543
0.000166632
0.000180183
0.000198778
0.000204839
0.000209018
0.000208124
0.000202355
0.000190412
0.000184808
0.000179847
0.000179893
0.000179307
0.000182211
0.000182818
0.000185299
0.000184949
0.000182186
0.000175611
0.00016958
0.00016514
0.000162313
0.000160847
0.000160628
0.000160776
0.000165731
0.000171771
0.000180338
0.000187062
0.000189085
0.000189651
0.000187596
0.000185816
0.000185534
0.00018636
0.000203589
0.000253686
0.00032191
0.000374668
0.000423035
0.000444119
0.000455914
0.000455652
0.000449568
0.000423792
0.000386813
0.000351281
0.000314568
0.000284593
0.000256894
0.000239303
0.000223903
0.000219904
0.00022062
0.000232214
0.00027012
0.000342533
0.000405362
0.000466447
0.000534431
0.000625812
0.000679254
0.000721774
0.000772498
0.000849342
0.000871415
0.000894944
0.000923165
0.00120225
0.00131971
0.00159567
0.00162626
0.00170566
0.00168676
0.00155102
0.0014522
0.00140247
0.00145342
0.00147313
0.00166241
0.00174325
0.00206314
0.00214316
0.00249732
0.00252774
0.00286423
0.00282963
0.00319208
0.00310503
0.00343612
0.00335106
0.00374115
0.00372713
0.00403919
0.0042066
0.0046786
0.00583835
0.00723836
0.011399
0.015153
0.0267509
0.0353173
0.0597203
0.0723784
0.107891
0.119082
0.151855
0.153739
0.158948
0.149625
0.143264
0.122776
0.110828
0.0925907
0.0849734
0.0731952
0.0682191
0.0644924
0.0572548
0.0525222
0.0427695
0.0395003
0.0331957
0.0320386
0.0289646
0.028651
0.0260837
0.0249789
0.0224901
0.0195918
0.0181208
0.018007
0.0183571
0.0198506
0.0232515
0.030021
0.0455413
0.0695095
0.133576
0.178014
0.293481
0.325664
0.389517
0.391986
0.402861
0.399656
0.400206
0.399452
0.406308
0.403273
0.408498
0.406452
0.405194
0.398768
0.392042
0.366911
0.350555
0.309504
0.275835
0.222463
0.189388
0.142947
0.124024
0.0968031
0.0788106
0.0620438
0.0526592
0.0444343
0.039829
0.0366544
0.0348763
0.0330419
0.000331887
0.000350748
0.000380395
0.000396344
0.000401017
0.000396981
0.000394701
0.000384083
0.000374179
0.000374225
0.000373118
0.000376601
0.000384408
0.000388956
0.000409367
0.000422938
0.000445758
0.000470572
0.000497255
0.000551241
0.000589928
0.000631243
0.000674399
0.000685765
0.000710282
0.000714585
0.000721188
0.000719255
0.000727548
0.000787173
0.000894796
0.000995333
0.00105881
0.00109619
0.00110447
0.00110382
0.00107474
0.000989254
0.000933083
0.000868249
0.000830664
0.000811812
0.000791557
0.000790641
0.000785522
0.000780813
0.000769455
0.000744988
0.000740349
0.000730804
0.000731321
0.000740512
0.000746059
0.000780184
0.000782909
0.000790116
0.000787987
0.000762103
0.000758561
0.000753459
0.000756271
0.000777681
0.000899564
0.00119791
0.00148892
0.00176936
0.00200409
0.00211123
0.00216179
0.0021587
0.00210635
0.00196887
0.00180928
0.00166878
0.00148478
0.00132035
0.00115389
0.00101575
0.000933407
0.000900029
0.000900867
0.000920488
0.00099712
0.00128389
0.0016456
0.00191735
0.00233533
0.00270155
0.00305203
0.00323673
0.00351332
0.00376545
0.003975
0.00401492
0.00408793
0.00431151
0.00483189
0.00489402
0.00497931
0.0048946
0.00489609
0.00454714
0.00388413
0.00310174
0.00257739
0.00226719
0.00215298
0.00217184
0.00220515
0.00240263
0.00242202
0.00254818
0.00249381
0.0026703
0.00257552
0.0028603
0.00279262
0.00325625
0.00324876
0.00389561
0.00417739
0.00564573
0.00687152
0.0102893
0.0148779
0.0222067
0.037216
0.0532496
0.0884262
0.116254
0.17705
0.210419
0.286774
0.304346
0.351143
0.340884
0.338495
0.305938
0.283061
0.226559
0.193345
0.142712
0.118881
0.0929442
0.0805596
0.0710937
0.0618478
0.05517
0.0463949
0.0418153
0.0355033
0.0332162
0.0291287
0.0271208
0.0238035
0.0229806
0.0230375
0.0239437
0.026717
0.0292763
0.0346786
0.0414247
0.0503689
0.071489
0.107654
0.199028
0.287743
0.348973
0.395219
0.399896
0.4218
0.409162
0.4177
0.402597
0.403873
0.39926
0.40055
0.393844
0.396621
0.388663
0.387094
0.384324
0.380297
0.363136
0.356275
0.32456
0.302907
0.249739
0.224927
0.165556
0.143093
0.111675
0.091842
0.0766887
0.0687716
0.0628614
0.058848
0.0578155
0.0558839
0.0547746
0.00367772
0.00388241
0.00394891
0.00394981
0.00394136
0.00384226
0.00380759
0.00372182
0.00364631
0.0036563
0.00365208
0.00369047
0.00378484
0.00384006
0.00409751
0.00428625
0.00455128
0.00497054
0.00521672
0.00561111
0.00586319
0.00602922
0.0061927
0.00622114
0.00623413
0.00622891
0.00618246
0.00617294
0.00622545
0.0065157
0.00705598
0.00745232
0.00778701
0.00796401
0.00799352
0.00799658
0.0078888
0.00745415
0.00715392
0.00666819
0.0064259
0.0061688
0.00594521
0.00588328
0.00575452
0.00571819
0.00569797
0.00566144
0.00567554
0.00565948
0.00567929
0.00570841
0.00572262
0.00579767
0.00582273
0.00586819
0.00592468
0.00597077
0.00607637
0.00615187
0.00633643
0.00693864
0.00747667
0.00826581
0.00887488
0.00941891
0.00983219
0.00991631
0.00995984
0.00993444
0.00973134
0.00929347
0.00853762
0.00795941
0.00724409
0.00659093
0.00607997
0.00569113
0.00558749
0.00559177
0.00567049
0.00607902
0.00703563
0.0080427
0.00931042
0.0104082
0.0116759
0.0125209
0.0134513
0.0146737
0.0154767
0.0158352
0.016647
0.0175505
0.0179787
0.0179259
0.0177746
0.0171073
0.0164531
0.0147311
0.0135817
0.01181
0.0103403
0.00858938
0.00731262
0.00614688
0.00558696
0.00523951
0.00515372
0.00508134
0.00488916
0.00480557
0.00449359
0.00424229
0.00391332
0.00393174
0.00396336
0.00428681
0.00476032
0.00635181
0.00816924
0.0132365
0.0182404
0.0324722
0.0456212
0.0834064
0.112598
0.18979
0.238865
0.359878
0.41726
0.509103
0.524958
0.548692
0.545016