/*--------------------------------*- C++ -*----------------------------------*\
| =========                 |                                                 |
| \\      /  F ield         | OpenFOAM: The Open Source CFD Toolbox           |
|  \\    /   O peration     | Version:  2.4.0                                 |
|   \\  /    A nd           | Web:      www.OpenFOAM.org                      |
|    \\/     M anipulation  |                                                 |
\*---------------------------------------------------------------------------*/
FoamFile
{
    version     2.0;
    format      ascii;
    class       volScalarField;
    location    "1";
    object      pMean;
}
// * * * * * * * * * * * * * * * * * * * * * * * * * * * * * * * * * * * * * //

dimensions      [0 2 -2 0 0 0 0];

internalField   nonuniform List<scalar> 
8800
(
88.4459
76.0026
68.5701
64.9908
63.0706
61.6194
60.382
59.2148
58.1554
57.1054
56.1237
55.1185
54.1807
53.2187
52.3429
51.4531
50.6628
49.8757
49.1809
48.4364
85.3373
75.6488
68.7386
65.1045
63.1301
61.6447
60.3895
59.2151
58.1533
57.103
56.1209
55.1163
54.1781
53.2169
52.3407
51.4507
50.6638
49.8718
49.1839
48.4011
83.3736
75.7251
69.3392
65.4796
63.2969
61.7237
60.4358
59.2476
58.1773
57.1201
56.131
55.1212
54.1795
53.2149
52.3385
51.4424
50.6635
49.8594
49.2482
48.4556
81.8394
75.7867
69.9244
65.9025
63.4799
61.8112
60.4978
59.3041
58.2255
57.1591
56.1581
55.1394
54.1897
53.2195
52.3382
51.4354
50.653
49.848
49.3116
48.701
80.592
75.7601
70.3992
66.3082
63.6482
61.8787
60.5458
59.3621
58.2808
57.2114
56.1931
55.1683
54.2018
53.2313
52.3339
51.4351
50.6267
49.8376
49.234
49.0394
79.6091
75.6635
70.7644
66.6552
63.7995
61.9231
60.5734
59.408
58.3305
57.2621
56.2285
55.1974
54.2133
53.2419
52.3279
51.4327
50.602
49.8319
49.2499
49.5173
78.8533
75.5488
71.0316
66.9357
63.936
61.951
60.5817
59.4408
58.37
57.3039
56.2586
55.2212
54.2226
53.2479
52.3222
51.4268
50.5889
49.84
49.3409
49.8335
78.3023
75.4471
71.2145
67.1472
64.057
61.9687
60.5778
59.4623
58.3995
57.3361
56.2816
55.2391
54.2286
53.2514
52.3174
51.4252
50.5862
49.864
49.4266
50.0598
77.9434
75.3733
71.3299
67.2909
64.1427
61.98
60.5717
59.4755
58.4201
57.3594
56.298
55.2521
54.2333
53.2554
52.3165
51.4293
50.5932
49.893
49.5003
50.2268
77.7646
75.3362
71.387
67.365
64.1869
61.987
60.5673
59.483
58.4315
57.3735
56.3074
55.2606
54.2374
53.2612
52.3205
51.439
50.6067
49.9219
49.5583
50.3363
77.7602
75.341
71.3872
67.3672
64.1867
61.9883
60.5661
59.4846
58.4318
57.376
56.3087
55.2642
54.2405
53.2678
52.3284
51.452
50.6241
49.948
49.5986
50.3954
77.9313
75.3865
71.3312
67.2967
64.1425
61.9839
60.5688
59.4803
58.4215
57.3668
56.3019
55.2627
54.2427
53.275
52.3401
51.4683
50.6456
49.9718
49.6194
50.4064
78.2856
75.4655
71.2162
67.1542
64.0562
61.9737
60.574
59.4689
58.4014
57.347
56.2874
55.2556
54.2433
53.2825
52.3549
51.4889
50.672
49.9963
49.6179
50.3614
78.8336
75.5689
71.0328
66.9417
63.9328
61.9558
60.5765
59.4477
58.3712
57.3165
56.2651
55.242
54.2408
53.2891
52.3711
51.514
50.7047
50.0277
49.6011
50.2407
79.5885
75.6837
70.7661
66.6599
63.7944
61.927
60.5687
59.4147
58.3313
57.2757
56.2361
55.2218
54.2357
53.2922
52.3879
51.5408
50.7459
50.0694
49.5964
50.0377
80.5707
75.7815
70.4014
66.313
63.6422
61.8826
60.5424
59.3698
58.2822
57.2267
56.2028
55.1969
54.2289
53.2914
52.4044
51.5655
50.7942
50.1213
49.6225
49.7719
81.8173
75.8093
69.9274
65.9092
63.4732
61.8158
60.4949
59.3137
58.2271
57.1768
56.1695
55.1725
54.2213
53.2882
52.4186
51.5843
50.8412
50.1704
49.6791
49.4952
83.3512
75.7474
69.3433
65.4874
63.2901
61.7287
60.4335
59.2579
58.18
57.1385
56.1448
55.1559
54.2162
53.2871
52.429
51.5984
50.8748
50.2079
49.736
49.3507
85.314
75.6701
68.7435
65.1134
63.1235
61.6498
60.3873
59.2258
58.1565
57.1219
56.1356
55.1521
54.2167
53.2907
52.436
51.6089
50.8906
50.2296
49.733
49.2728
88.4221
76.0231
68.5748
65
63.0643
61.6245
60.38
59.2256
58.1585
57.1248
56.1383
55.1547
54.2195
53.2932
52.4392
51.6124
50.8943
50.2354
49.7345
49.3918
48.4004
48.2383
47.9132
47.586
47.3285
47.1439
47.0221
46.9416
46.8813
46.8332
46.7908
46.7452
46.6951
46.6407
46.5804
46.5131
46.4369
46.346
46.2422
46.1227
45.9943
45.8671
45.7488
45.6416
45.5507
45.4786
45.4255
45.383
45.3439
45.2974
45.2414
45.1772
45.1133
45.0577
45.0145
44.9807
44.9517
44.9162
44.8712
44.815
44.7521
44.6839
44.6239
44.5793
44.5613
44.5681
44.6038
44.659
44.7293
44.8016
44.8654
44.9074
44.9217
44.9024
44.8523
44.7695
44.665
44.5384
44.3985
44.2351
44.0519
43.8429
43.6212
43.3909
43.1703
42.9758
42.8214
42.7234
42.6837
42.697
42.758
42.8574
42.9875
43.1389
43.3061
43.4783
43.6456
43.7898
43.8994
43.9561
43.9583
43.9011
43.7974
43.6462
43.4759
43.2936
43.12
42.972
42.8513
42.7802
42.759
42.8044
42.9105
43.0739
43.2842
43.5317
43.8057
44.0943
44.3864
44.6725
44.9443
45.1954
45.4171
45.5931
45.7402
45.8475
45.939
46.0065
46.0767
46.1265
46.1731
46.2074
46.2352
46.2552
46.2679
46.2785
46.2863
46.2941
46.3008
46.3024
46.3033
46.2959
46.2953
46.2851
46.2913
46.2762
46.292
46.2793
46.3065
46.3193
46.3717
46.4173
46.4928
46.5689
46.6737
46.7816
46.9141
47.0459
47.1955
47.3408
47.5034
47.6688
47.8521
48.0397
48.2449
48.4482
48.6673
48.8878
49.1175
49.3504
49.5842
49.8172
50.0512
50.2785
50.5016
50.7222
50.9497
51.1639
51.3886
51.6019
51.8283
52.0211
52.2326
52.4017
52.5889
52.7237
52.8807
52.9818
53.0983
53.1649
53.267
53.3088
53.4154
53.4533
53.5961
53.6356
53.8383
53.8841
54.1342
54.2137
54.4831
54.5982
54.8901
55.0547
55.3688
55.5864
55.9202
56.1561
56.4971
56.712
57.0191
57.1484
57.3026
57.1509
56.8943
56.0151
54.6544
51.2971
47.0626
26.5684
48.2102
48.1303
47.9686
47.705
47.4289
47.2085
47.0678
46.992
46.9544
46.9291
46.9031
46.867
46.8216
46.7674
46.7071
46.6383
46.5616
46.4733
46.3751
46.2649
46.1479
46.0308
45.9215
45.822
45.737
45.6659
45.6097
45.5629
45.5218
45.4782
45.4301
45.3757
45.321
45.2695
45.2262
45.1879
45.153
45.114
45.0694
45.015
44.956
44.894
44.8394
44.7971
44.7764
44.777
44.8016
44.8443
44.8997
44.9566
45.0064
45.0381
45.0469
45.0257
44.9775
44.8982
44.7961
44.67
44.5276
44.3645
44.1835
43.9834
43.7704
43.5541
43.3432
43.157
43.0042
42.8993
42.8458
42.8425
42.885
42.9654
43.0773
43.2116
43.3592
43.5104
43.6527
43.7731
43.8595
43.8994
43.891
43.8317
43.7313
43.5961
43.4406
43.2806
43.124
42.9942
42.8878
42.8254
42.8085
42.8524
42.9509
43.1022
43.297
43.5293
43.7867
44.0588
44.337
44.6119
44.8752
45.1186
45.333
45.504
45.6493
45.7572
45.8484
45.9145
45.9759
46.0202
46.0556
46.0792
46.0922
46.0925
46.0824
46.0662
46.0458
46.0243
46.0033
45.976
45.9561
45.9238
45.9089
45.8792
45.8759
45.8482
45.8535
45.8343
45.853
45.8595
45.9053
45.9453
46.0185
46.0918
46.1971
46.3027
46.4357
46.567
46.7169
46.8616
47.0272
47.1928
47.3787
47.5642
47.7722
47.9711
48.1927
48.4086
48.6403
48.8684
49.0997
49.3257
49.5581
49.7735
49.9962
50.2087
50.4419
50.6491
50.8873
51.0992
51.3366
51.5306
51.7516
51.9168
52.1033
52.2302
52.3789
52.4597
52.5645
52.6013
52.6913
52.6894
52.7873
52.7739
52.9125
52.8996
53.0899
53.1017
53.3211
53.3779
53.6133
53.7045
53.9531
54.0875
54.3541
54.5093
54.7996
54.9432
55.2223
55.3055
55.4874
55.4017
55.3567
54.8226
54.2156
52.4884
50.6686
44.8113
38.937
20.019
48.1791
48.1687
48.143
47.9281
47.5971
47.2902
47.0928
47.0053
46.9908
46.9991
47.0014
46.9826
46.9448
46.8906
46.8271
46.7542
46.6752
46.5878
46.4937
46.3916
46.2859
46.18
46.0811
45.9903
45.912
45.8446
45.7895
45.7424
45.7018
45.6613
45.6198
45.5738
45.5273
45.4808
45.4387
45.3982
45.3594
45.3178
45.2732
45.2228
45.1694
45.1153
45.0669
45.0293
45.0078
45.004
45.0184
45.0477
45.0867
45.1268
45.161
45.1796
45.1793
45.1527
45.1017
45.0227
44.9206
44.7958
44.6526
44.4922
44.3149
44.1248
43.9238
43.7228
43.5271
43.3525
43.2071
43.1014
43.0394
43.0228
43.0491
43.1125
43.2069
43.3232
43.4523
43.5824
43.7015
43.7987
43.8628
43.887
43.8684
43.8098
43.7143
43.594
43.4538
43.3123
43.174
43.0577
42.9616
42.903
42.8863
42.9249
43.0126
43.1506
43.3297
43.5465
43.7868
44.0437
44.3082
44.5711
44.8251
45.0605
45.2677
45.4351
45.58
45.6903
45.7818
45.8485
45.9048
45.9468
45.9764
45.9942
45.9959
45.9804
45.951
45.9118
45.8694
45.8192
45.7762
45.7208
45.6863
45.6316
45.6083
45.5633
45.5537
45.5208
45.5175
45.498
45.5085
45.5143
45.5537
45.5919
45.6637
45.7369
45.8428
45.9473
46.0801
46.2104
46.3605
46.5048
46.6738
46.8429
47.0341
47.2241
47.4343
47.6354
47.8586
48.074
48.3075
48.5238
48.7489
48.9616
49.1888
49.3886
49.6111
49.8151
50.0462
50.2493
50.497
50.7135
50.9552
51.1556
51.3813
51.542
51.7271
51.8381
51.9804
52.0313
52.1303
52.137
52.2179
52.176
52.2682
52.21
52.3421
52.297
52.4509
52.4461
52.6152
52.6521
52.8362
52.8998
53.1025
53.1846
53.414
53.4825
53.7206
53.7525
53.9502
53.8765
53.9588
53.5895
53.4209
52.3329
51.66
48.751
46.8347
39.5845
32.4948
19.5842
48.3381
48.2923
48.192
47.8784
47.4886
47.176
47.0066
46.9666
47.0064
47.0652
47.1071
47.1142
47.0888
47.0365
46.968
46.8884
46.8038
46.7144
46.6227
46.5274
46.4319
46.3376
46.2499
46.1694
46.0994
46.0383
45.9872
45.9426
45.9041
45.8668
45.83
45.7905
45.7498
45.7075
45.6662
45.6249
45.5844
45.5422
45.4991
45.4534
45.407
45.361
45.3196
45.2856
45.2633
45.2535
45.2572
45.2712
45.2923
45.3133
45.3298
45.3339
45.3222
45.2891
45.2341
45.1551
45.054
44.9327
44.7932
44.639
44.4707
44.2933
44.1086
43.9252
43.7479
43.5883
43.4534
43.3511
43.2852
43.2584
43.2707
43.3174
43.3943
43.4916
43.6007
43.7083
43.8044
43.8788
43.9228
43.9333
43.9068
43.8483
43.7579
43.649
43.5237
43.3975
43.274
43.1654
43.073
43.0128
42.9924
43.0223
43.0986
43.2221
43.3869
43.5865
43.8115
44.052
44.305
44.5551
44.8007
45.0266
45.2273
45.3901
45.5338
45.6466
45.7395
45.8097
45.8669
45.9102
45.94
45.9532
45.9452
45.9155
45.8711
45.8109
45.7538
45.6805
45.6231
45.5469
45.4997
45.4272
45.397
45.3419
45.3294
45.2925
45.2866
45.2634
45.2729
45.2794
45.32
45.3628
45.4362
45.514
45.6214
45.7284
45.862
45.9916
46.1423
46.2864
46.4591
46.6301
46.8263
47.0222
47.2372
47.4455
47.6729
47.8872
48.1207
48.3204
48.5416
48.7338
48.9535
49.1329
49.3554
49.5484
49.7799
49.9789
50.2375
50.4457
50.6981
50.8892
51.1286
51.2695
51.4644
51.5482
51.6949
51.7076
51.8073
51.7751
51.8526
51.7745
51.8669
51.7836
51.89
51.8369
51.9408
51.9233
52.0391
52.0486
52.184
52.209
52.371
52.3872
52.5701
52.5394
52.7256
52.596
52.7831
52.429
52.56
51.7226
51.655
49.8009
49.1656
45.3789
42.8966
36.0803
28.4822
19.8462
49.8146
49.4689
48.4195
47.5485
46.9989
46.7552
46.7375
46.8422
46.9896
47.123
47.2152
47.2545
47.2459
47.1984
47.1265
47.04
46.9482
46.8546
46.7627
46.6724
46.5861
46.5038
46.4284
46.36
46.3002
46.2476
46.2026
46.1627
46.1272
46.0933
46.0598
46.0247
45.9882
45.9497
45.9108
45.8711
45.8315
45.7908
45.7499
45.7081
45.6667
45.6259
45.5883
45.5551
45.5296
45.5119
45.503
45.501
45.5039
45.5072
45.5068
45.4973
45.4747
45.4356
45.3774
45.3
45.2027
45.0883
44.9576
44.8144
44.66
44.4985
44.3328
44.1687
44.0118
43.8693
43.7478
43.6529
43.5882
43.5561
43.5578
43.5908
43.6505
43.7284
43.8147
43.8985
43.9708
44.0237
44.0505
44.0491
44.0164
43.9562
43.8701
43.7681
43.6528
43.535
43.4186
43.311
43.2167
43.1502
43.1231
43.1417
43.207
43.3163
43.4693
43.654
43.8656
44.0939
44.3357
44.5752
44.8128
45.03
45.2244
45.3833
45.526
45.6413
45.736
45.8122
45.8717
45.9177
45.9475
45.9547
45.9381
45.8936
45.8379
45.7624
45.6958
45.6089
45.5401
45.453
45.394
45.3173
45.2811
45.2283
45.2104
45.1745
45.1649
45.1415
45.1563
45.1634
45.2144
45.2619
45.3462
45.4287
45.5441
45.6538
45.7947
45.9227
46.0789
46.2204
46.398
46.5645
46.7695
46.967
47.1946
47.4071
47.6438
47.8537
48.0885
48.2689
48.4882
48.6544
48.8675
49.0211
49.2427
49.4138
49.6545
49.8414
50.1134
50.3026
50.5725
50.7419
50.9971
51.1137
51.3206
51.3739
51.5249
51.5023
51.5989
51.5277
51.599
51.4971
51.5856
51.5014
51.5837
51.5209
51.5957
51.5471
51.632
51.5949
51.709
51.6639
51.8136
51.7213
51.9011
51.6869
51.9016
51.4861
51.7448
50.9987
51.2016
49.8968
49.7497
47.4793
46.376
42.6436
39.3442
33.9508
26.7661
20.3941
50.8252
50.3374
48.7056
47.3911
46.6246
46.369
46.4564
46.6955
46.9589
47.1786
47.33
47.4075
47.4193
47.379
47.3044
47.2105
47.1096
47.0091
46.9143
46.8263
46.7466
46.6745
46.6108
46.5545
46.5056
46.4626
46.4248
46.3904
46.3587
46.3277
46.2969
46.2648
46.2313
46.1962
46.1602
46.1231
46.0854
46.047
46.0083
45.9695
45.9309
45.8927
45.856
45.8217
45.7915
45.766
45.7457
45.7297
45.7165
45.7035
45.6877
45.6655
45.6331
45.5883
45.5285
45.4536
45.3626
45.2573
45.1384
45.0086
44.8701
44.7266
44.5811
44.4381
44.3025
44.1788
44.0729
43.9886
43.9297
43.8973
43.8942
43.9187
43.9651
44.0254
44.0906
44.1527
44.2035
44.2374
44.249
44.2368
44.1971
44.1332
44.0468
43.9447
43.8316
43.7152
43.6003
43.4898
43.3903
43.3121
43.2766
43.2838
43.3384
43.4363
43.5802
43.7539
43.9535
44.1727
44.4048
44.6363
44.8663
45.0792
45.269
45.4274
45.57
45.6864
45.7845
45.8659
45.929
45.9744
46.0018
45.999
45.9734
45.9132
45.8509
45.7664
45.6935
45.6013
45.5241
45.4348
45.3703
45.3011
45.2632
45.22
45.1974
45.1677
45.1541
45.1422
45.1623
45.1851
45.249
45.3051
45.4045
45.4907
45.6169
45.7281
45.8787
46.006
46.1705
46.3112
46.4922
46.657
46.8737
47.0701
47.3156
47.5308
47.7794
47.9854
48.2161
48.3811
48.5912
48.7327
48.9358
49.0569
49.2809
49.4199
49.6681
49.8357
50.118
50.2811
50.5752
50.7118
50.9899
51.0732
51.295
51.3153
51.4745
51.4056
51.5092
51.394
51.4767
51.3518
51.4525
51.3502
51.45
51.3444
51.4313
51.3207
51.4127
51.291
51.4214
51.2715
51.4309
51.2003
51.3736
50.982
51.1637
50.5431
50.7054
49.767
49.7235
48.2953
47.7009
45.4939
43.8743
40.666
37.0777
33.0342
26.8381
21.5453
51.4377
50.9419
49.04
47.4448
46.4827
46.143
46.2532
46.5726
46.9267
47.2251
47.437
47.5572
47.5933
47.562
47.485
47.3826
47.2715
47.1627
47.063
46.9751
46.8996
46.8356
46.782
46.7369
46.6987
46.6654
46.6356
46.6077
46.5805
46.5529
46.5243
46.4941
46.4625
46.4293
46.3952
46.3601
46.3246
46.2885
46.2519
46.215
46.178
46.1407
46.1038
46.0676
46.0331
46.0007
45.971
45.9436
45.9175
45.8913
45.8627
45.8294
45.789
45.7397
45.6797
45.6083
45.5247
45.4296
45.3237
45.2089
45.0875
44.9626
44.8368
44.7141
44.5983
44.4928
44.4019
44.3294
44.279
44.2525
44.251
44.2724
44.3115
44.3585
44.4064
44.4492
44.4822
44.5014
44.5009
44.478
44.431
44.3614
44.2705
44.1629
44.0471
43.9285
43.8118
43.695
43.5871
43.4962
43.4494
43.4475
43.4957
43.5884
43.7275
43.8942
44.0872
44.2997
44.5231
44.7502
44.9742
45.1839
45.3706
45.5322
45.6706
45.7858
45.8861
45.9678
46.0314
46.072
46.0965
46.0845
46.0503
45.9781
45.9079
45.8183
45.7407
45.6507
45.5707
45.4898
45.43
45.3773
45.3454
45.3147
45.2943
45.2732
45.2625
45.2648
45.2955
45.3425
45.4175
45.4966
45.603
45.7037
45.8349
45.955
46.111
46.2472
46.4199
46.5666
46.7529
46.9271
47.1511
47.353
47.6042
47.8285
48.0835
48.2859
48.5064
48.6601
48.8512
48.9806
49.1631
49.253
49.4729
49.5829
49.8163
49.9714
50.2573
50.3933
50.7066
50.8184
51.1014
51.1667
51.391
51.4042
51.5591
51.4674
51.5525
51.4214
51.4996
51.3835
51.4792
51.3802
51.4748
51.356
51.426
51.2823
51.3459
51.1778
51.2528
51.0481
51.1178
50.8215
50.8708
50.3948
50.4156
49.7121
49.637
48.6999
48.36
46.9461
46.1026
44.0171
42.246
39.6692
36.2464
33.1111
27.9887
23.2756
51.8031
51.3405
49.343
47.5975
46.5015
46.0584
46.1348
46.486
46.9
47.2608
47.525
47.6855
47.7469
47.7267
47.6494
47.5408
47.4213
47.3056
47.2016
47.1134
47.041
46.9836
46.9384
46.9032
46.8747
46.8506
46.8286
46.8071
46.7847
46.7608
46.7345
46.7063
46.676
46.6443
46.6114
46.5778
46.5435
46.5087
46.4731
46.4369
46.3999
46.3623
46.3241
46.2858
46.2475
46.21
46.173
46.137
46.1009
46.0645
46.0262
45.9853
45.9396
45.8884
45.8297
45.7633
45.6879
45.6042
45.5118
45.4128
45.308
45.2003
45.0921
44.9874
44.8888
44.8004
44.7249
44.6661
44.6263
44.6083
44.6106
44.6318
44.6651
44.7021
44.7359
44.7643
44.7835
44.7925
44.7839
44.7531
44.6986
44.622
44.5237
44.4082
44.2873
44.1635
44.0447
43.9221
43.8059
43.7065
43.6513
43.6452
43.6915
43.7846
43.9191
44.0809
44.2684
44.4749
44.6939
44.9183
45.1412
45.3516
45.5357
45.6963
45.8269
45.9415
46.0387
46.114
46.1717
46.2044
46.2236
46.2076
46.1645
46.0865
46.0065
45.9188
45.8416
45.7617
45.6896
45.6271
45.581
45.5503
45.5322
45.5197
45.5095
45.5019
45.5029
45.5246
45.573
45.6415
45.7313
45.8274
45.9396
46.0608
46.1977
46.3339
46.495
46.6484
46.8291
46.9922
47.184
47.3739
47.6028
47.8112
48.0697
48.2953
48.5517
48.7495
48.9669
49.0999
49.2694
49.3985
49.5561
49.6314
49.8382
49.9136
50.13
50.2586
50.5419
50.657
50.9697
51.0848
51.3546
51.4227
51.65
51.6698
51.8179
51.7065
51.7559
51.63
51.6816
51.5915
51.6794
51.5943
51.684
51.5579
51.6161
51.4464
51.4761
51.2691
51.2667
51.0114
50.9721
50.6073
50.5305
49.9504
49.8307
49.0873
48.8462
47.9322
47.4685
46.0732
45.1815
43.2924
41.4995
39.4791
36.3955
33.7321
29.497
25.2212
52.0322
51.5995
49.5757
47.7538
46.577
46.0572
46.0915
46.4497
46.899
47.3039
47.6074
47.7997
47.8827
47.8736
47.7976
47.6854
47.5603
47.4402
47.3337
47.2458
47.1761
47.124
47.0857
47.0584
47.0379
47.0216
47.0062
46.9905
46.9725
46.9521
46.9283
46.902
46.873
46.8425
46.8103
46.7774
46.7432
46.7085
46.6725
46.6358
46.5977
46.5589
46.5187
46.4781
46.4364
46.3947
46.3521
46.3096
46.2663
46.223
46.1787
46.1333
46.0853
46.0345
45.9791
45.919
45.8525
45.7801
45.7006
45.6163
45.5273
45.4364
45.3449
45.2573
45.1758
45.1047
45.0455
45.0014
44.9731
44.9637
44.9709
44.9924
45.0202
45.0489
45.0718
45.0886
45.0987
45.1011
45.0868
45.0509
44.9922
44.9099
44.804
44.6793
44.5488
44.4181
44.2951
44.1658
44.0492
43.946
43.8904
43.8856
43.936
44.0301
44.161
44.3151
44.4988
44.7019
44.9221
45.1453
45.371
45.5868
45.773
45.9293
46.0545
46.1638
46.2511
46.3137
46.3578
46.3813
46.3951
46.3742
46.3269
46.2498
46.169
46.0888
46.0197
45.954
45.899
45.8582
45.8348
45.8301
45.8331
45.8453
45.8526
45.8643
45.8848
45.9254
45.9928
46.0803
46.1879
46.2987
46.4232
46.5631
46.7071
46.8579
47.0291
47.1941
47.3864
47.568
47.7712
47.9805
48.2145
48.4324
48.6964
48.9221
49.1856
49.3673
49.5985
49.6914
49.8481
49.968
50.0946
50.1652
50.3636
50.3915
50.61
50.7031
50.986
51.082
51.3919
51.4981
51.7768
51.8195
52.0861
52.1132
52.2696
52.0896
52.1089
52.0048
52.0483
51.9782
52.0577
51.9864
52.0867
51.949
52.0034
51.8061
51.8144
51.5737
51.5128
51.1912
51.0787
50.6364
50.4094
49.8116
49.5481
48.9248
48.6069
47.7135
47.2144
45.8349
44.8813
43.2283
41.4472
39.8033
37.1004
34.6367
31.0473
27.1874
52.1862
51.7684
49.7358
47.8807
46.666
46.1082
46.1189
46.4779
46.9458
47.3747
47.6999
47.9094
48.0042
48.0009
47.9258
47.8118
47.6845
47.5632
47.457
47.371
47.3048
47.2574
47.225
47.2041
47.1901
47.1799
47.17
47.1589
47.1447
47.1272
47.1058
47.0812
47.0535
47.0238
46.992
46.959
46.9244
46.889
46.852
46.814
46.7743
46.7336
46.6911
46.6479
46.603
46.5578
46.5115
46.4651
46.4178
46.3708
46.3233
46.2762
46.2284
46.1802
46.1299
46.0774
46.0206
45.9592
45.8924
45.8223
45.7485
45.6735
45.5984
45.528
45.4637
45.4094
45.3669
45.3381
45.3226
45.3235
45.3372
45.3586
45.3812
45.4031
45.4191
45.4271
45.4294
45.4271
45.4105
45.3736
45.3128
45.2253
45.1134
44.9821
44.8427
44.7009
44.5717
44.4365
44.3231
44.2208
44.1719
44.1711
44.2327
44.3304
44.4614
44.6095
44.794
44.9958
45.2158
45.4378
45.671
45.8941
46.0856
46.2361
46.3536
46.4501
46.5223
46.5687
46.5989
46.6144
46.6241
46.6009
46.5559
46.4851
46.4121
46.3459
46.2924
46.2469
46.2136
46.1966
46.2017
46.2243
46.2573
46.2967
46.3295
46.3657
46.411
46.4676
46.5522
46.6516
46.7759
46.8978
47.0404
47.1918
47.3504
47.5105
47.697
47.8684
48.0823
48.2781
48.5006
48.7287
48.9783
49.2041
49.4786
49.6942
49.9736
50.131
50.3764
50.4051
50.577
50.6583
50.79
50.8355
51.0189
50.9965
51.2368
51.2913
51.5902
51.6452
51.9924
52.0624
52.3995
52.3664
52.7099
52.7232
52.9289
52.6174
52.6638
52.5472
52.6147
52.551
52.6657
52.5787
52.7125
52.5383
52.6181
52.3673
52.3955
52.1116
52.0463
51.6226
51.416
50.9021
50.642
50.072
49.7788
49.1726
48.8399
47.9591
47.3803
46.0546
44.9609
43.5513
41.879
40.4197
38.0364
35.6673
32.5232
29.0625
52.2703
51.8572
49.8256
47.9706
46.7565
46.199
46.2113
46.5728
47.045
47.477
47.8042
48.0143
48.1091
48.1049
48.0296
47.9165
47.7918
47.674
47.5722
47.4908
47.4297
47.3875
47.3605
47.3447
47.3355
47.3295
47.3232
47.3152
47.3036
47.2883
47.2688
47.2458
47.2193
47.1904
47.159
47.1259
47.0909
47.0546
47.0165
46.9769
46.9355
46.8929
46.8485
46.803
46.7561
46.7086
46.6602
46.6116
46.563
46.5152
46.4678
46.4215
46.3757
46.3311
46.2868
46.2425
46.1959
46.1464
46.0935
46.0382
45.9801
45.9215
45.8643
45.8117
45.7642
45.7259
45.7005
45.6877
45.6854
45.6956
45.7143
45.7352
45.754
45.7709
45.7806
45.7832
45.7818
45.7768
45.76
45.7252
45.6652
45.5753
45.459
45.3203
45.1738
45.0224
44.8877
44.7498
44.6429
44.5451
44.5133
44.5181
44.5948
44.6972
44.8323
44.9753
45.1665
45.3673
45.5889
45.8067
46.0497
46.2763
46.4717
46.6127
46.7183
46.7933
46.847
46.8761
46.8988
46.9103
46.9184
46.896
46.863
46.8026
46.7519
46.7036
46.6787
46.6503
46.6494
46.656
46.6949
46.7408
46.8089
46.871
46.943
47.0027
47.0812
47.1525
47.2556
47.3563
47.4972
47.6185
47.7809
47.9313
48.1106
48.2763
48.4822
48.6592
48.8994
49.1095
49.3623
49.6049
49.8811
50.1062
50.4009
50.5935
50.9062
51.0133
51.277
51.2208
51.4466
51.4642
51.6358
51.6129
51.8104
51.7464
52.0275
52.0287
52.3578
52.3497
52.7419
52.792
53.2005
53.1091
53.5535
53.5105
53.752
53.3153
53.4571
53.2915
53.4333
53.3087
53.4861
53.3869
53.5467
53.3353
53.4353
53.1448
53.1933
52.8788
52.7556
52.2766
52.0843
51.5955
51.2929
50.649
50.3187
49.7091
49.4301
48.5059
47.7465
46.5124
45.3478
44.1391
42.6496
41.2141
39.035
36.748
33.9165
30.8068
52.2791
51.8618
49.8441
48.0243
46.8497
46.3309
46.3703
46.7382
47.2003
47.6145
47.9235
48.1176
48.2
48.1885
48.1124
48.0032
47.8855
47.7759
47.6825
47.6087
47.5545
47.5179
47.4955
47.4832
47.4768
47.4728
47.4684
47.4618
47.4518
47.4379
47.4199
47.3981
47.3729
47.3447
47.3138
47.2807
47.2454
47.2085
47.1699
47.1296
47.0874
47.0433
46.9977
46.9507
46.9025
46.854
46.8051
46.7568
46.7094
46.6631
46.6178
46.5743
46.5327
46.4935
46.4558
46.4195
46.3833
46.3467
46.3086
46.2689
46.2273
46.186
46.1476
46.1137
46.0844
46.0634
46.055
46.0568
46.0649
46.081
46.1024
46.1228
46.1381
46.1476
46.1489
46.1464
46.1434
46.1399
46.1278
46.0992
46.0441
45.9582
45.8418
45.6995
45.5463
45.388
45.2483
45.1131
45.0147
44.9311
44.9233
44.935
45.0286
45.1325
45.2724
45.4066
45.6073
45.8063
46.0317
46.2433
46.4991
46.726
46.9279
47.0565
47.1472
47.1877
47.2282
47.235
47.2584
47.2668
47.2807
47.2632
47.2518
47.2093
47.1943
47.1671
47.1817
47.1748
47.2158
47.2431
47.3206
47.3879
47.4978
47.5811
47.6886
47.7698
47.8846
47.9697
48.0939
48.1995
48.3458
48.4659
48.643
48.7925
48.9882
49.1649
49.384
49.5831
49.8464
50.0698
50.3471
50.601
50.8968
51.1282
51.4254
51.5943
51.9189
52.0083
52.222
52.1337
52.4362
52.3526
52.5888
52.4644
52.6988
52.6003
52.9133
52.9149
53.2478
53.2182
53.6589
53.695
54.134
54.0495
54.5143
54.4625
54.676
54.1923
54.3949
54.2076
54.4245
54.3054
54.5177
54.4027
54.5654
54.3525
54.4475
54.1473
54.1594
53.8126
53.6288
53.1745
52.9473
52.441
52.079
51.4965
51.2275
50.5971
50.1306
49.1769
48.2753
47.1421
46.0488
44.9153
43.5675
42.0833
40.0386
37.8483
35.25
32.425
52.1986
51.7696
49.791
48.0502
46.9581
46.5185
46.6062
46.9769
47.4102
47.7839
48.054
48.2149
48.2729
48.2492
48.1725
48.0707
47.9647
47.8679
47.7866
47.7234
47.6776
47.6473
47.629
47.619
47.6137
47.6102
47.606
47.5997
47.5902
47.5772
47.5602
47.5394
47.5153
47.488
47.4579
47.4254
47.3907
47.3543
47.3158
47.2754
47.2326
47.188
47.1416
47.0943
47.0464
46.9987
46.9518
46.9062
46.8615
46.8184
46.7772
46.7384
46.7024
46.6701
46.6409
46.6139
46.5883
46.5638
46.5404
46.5174
46.493
46.4689
46.4488
46.4332
46.4226
46.4207
46.4289
46.443
46.4604
46.482
46.5047
46.5219
46.5311
46.5321
46.5261
46.5201
46.5163
46.5144
46.5088
46.4889
46.4427
46.3658
46.2558
46.1153
45.9594
45.8025
45.6632
45.5354
45.4443
45.382
45.3967
45.4221
45.5283
45.6294
45.767
45.8989
46.1138
46.3078
46.5342
46.7413
47.0136
47.2373
47.4487
47.5613
47.6386
47.6463
47.6733
47.6615
47.6956
47.6986
47.7269
47.7161
47.7316
47.7141
47.7427
47.7435
47.8034
47.8278
47.9173
47.972
48.0939
48.1818
48.3266
48.4255
48.5688
48.6667
48.8173
48.9173
49.0635
49.1682
49.3206
49.4401
49.6253
49.7834
49.9978
50.1917
50.4245
50.6493
50.9202
51.16
51.4603
51.7157
52.0127
52.2517
52.5289
52.6987
52.9793
53.0949
53.2301
53.1546
53.4652
53.3233
53.5577
53.4322
53.7201
53.5926
53.9035
53.9413
54.2054
54.2206
54.6807
54.7768
55.2138
55.2047
55.5837
55.5824
55.6911
55.21
55.5037
55.2549
55.5532
55.4316
55.6632
55.6135
55.7301
55.5518
55.5739
55.3258
55.2987
54.8724
54.6342
54.2288
53.9515
53.489
53.1447
52.6715
52.2312
51.5813
50.8978
49.9868
49.0182
47.9843
47.0068
45.8344
44.5531
42.979
41.0529
38.9566
36.5466
33.9462
51.9783
51.5421
49.6696
48.0822
47.1274
46.8003
46.9364
47.2887
47.6667
47.9758
48.1871
48.2995
48.3255
48.2883
48.2134
48.1231
48.0331
47.9529
47.8867
47.836
47.7995
47.775
47.7597
47.7505
47.7446
47.7399
47.7346
47.7275
47.7175
47.7044
47.6877
47.6676
47.6442
47.6178
47.589
47.5579
47.5247
47.4896
47.4525
47.4131
47.3711
47.327
47.2808
47.2342
47.1888
47.1449
47.1018
47.0597
47.0191
46.9809
46.9449
46.912
46.8832
46.8591
46.8388
46.8225
46.8097
46.8008
46.794
46.786
46.7772
46.7707
46.7688
46.7712
46.7798
46.7958
46.8181
46.8427
46.8683
46.8952
46.9192
46.9348
46.9388
46.9308
46.9159
46.9053
46.9013
46.9037
46.9058
46.8969
46.8649
46.8027
46.7042
46.5731
46.4212
46.2728
46.1355
46.0204
45.9404
45.9047
45.9298
45.9625
46.0715
46.1704
46.3043
46.4572
46.6896
46.8854
47.1102
47.3233
47.6004
47.813
48.024
48.1268
48.1973
48.1828
48.2011
48.1816
48.2252
48.2292
48.2732
48.2708
48.3148
48.3275
48.3987
48.4357
48.5428
48.6067
48.7439
48.8369
48.9982
49.112
49.2832
49.3992
49.5708
49.6857
49.8639
49.9835
50.1464
50.2552
50.4114
50.5351
50.7305
50.8982
51.1328
51.3463
51.5947
51.8452
52.1062
52.3629
52.6557
52.92
53.2029
53.457
53.6807
53.8587
54.0984
54.2244
54.3041
54.3591
54.546
54.409
54.5821
54.5171
54.7784
54.7113
54.9792
55.1047
55.2302
55.3626
55.794
55.9303
56.373
56.519
56.7648
56.8099
56.8665
56.4263
56.6966
56.5353
56.7831
56.645
56.9089
56.9546
57.0269
56.8724
56.8236
56.5597
56.4631
56.0126
55.7521
55.4232
55.0472
54.7294
54.2889
53.8453
53.2936
52.7158
51.7061
50.9514
49.9049
49.0268
48.0923
46.8477
45.5657
43.8949
42.07
40.0494
37.7905
35.3618
51.5045
51.0917
49.4853
48.1747
47.4271
47.2168
47.3672
47.6612
47.9508
48.1714
48.3075
48.3644
48.3585
48.3108
48.2414
48.1657
48.094
48.0318
47.9812
47.9422
47.9135
47.8931
47.8789
47.8688
47.861
47.8541
47.8467
47.838
47.8271
47.8135
47.7968
47.7771
47.7545
47.7294
47.702
47.6728
47.6418
47.6091
47.5745
47.5372
47.4971
47.4553
47.4124
47.3693
47.3271
47.2877
47.2514
47.2165
47.1822
47.149
47.1186
47.0931
47.0737
47.0593
47.0494
47.0451
47.0464
47.0523
47.0619
47.0727
47.083
47.0937
47.1079
47.1272
47.1521
47.1816
47.2149
47.2491
47.2825
47.314
47.339
47.3522
47.351
47.3355
47.3122
47.295
47.2907
47.2983
47.31
47.3143
47.3001
47.2577
47.1766
47.0604
46.9223
46.7912
46.6597
46.5651
46.4955
46.4792
46.5066
46.5525
46.6578
46.7498
46.8851
47.0765
47.321
47.5243
47.7447
47.9805
48.2433
48.4477
48.6463
48.7479
48.8136
48.8058
48.8105
48.7972
48.845
48.8651
48.9234
48.9422
49.0051
49.0502
49.1546
49.2435
49.3853
49.5047
49.6736
49.8176
49.9974
50.1464
50.3327
50.4732
50.6604
50.7996
50.9908
51.1306
51.313
51.4277
51.598
51.7361
51.9354
52.1255
52.3674
52.5937
52.851
53.1055
53.3547
53.6253
53.8999
54.1664
54.4448
54.7163
54.8891
55.0807
55.2536
55.3692
55.4821
55.6099
55.6472
55.6622
55.6932
55.7575
55.9562
55.925
56.1097
56.2853
56.3749
56.6591
56.8867
57.2452
57.6559
57.8017
57.9997
58.1037
58.0776
57.8149
58.0331
57.9517
58.0754
58.0177
58.219
58.348
58.3017
58.2253
58.1003
57.8677
57.6702
57.2732
56.961
56.6565
56.2108
56.0189
55.496
55.0908
54.3021
53.8259
52.6064
52.0339
50.9329
50.2247
49.2241
47.9354
46.6085
44.8628
43.1084
41.1346
38.9942
36.6962
50.7411
50.4212
49.2894
48.3793
47.8776
47.7532
47.8608
48.0473
48.2184
48.337
48.397
48.4051
48.3753
48.3234
48.2626
48.2023
48.1476
48.1011
48.0629
48.0325
48.0087
47.9901
47.9754
47.9635
47.9533
47.944
47.9347
47.9245
47.9129
47.899
47.8822
47.8628
47.841
47.817
47.7912
47.7644
47.7371
47.7084
47.6771
47.6432
47.607
47.5688
47.5304
47.4934
47.458
47.4249
47.3955
47.3697
47.3453
47.3207
47.2981
47.2826
47.2754
47.2741
47.2772
47.286
47.3015
47.3225
47.3462
47.3697
47.3949
47.4232
47.4547
47.4898
47.528
47.5676
47.6078
47.6474
47.6857
47.7203
47.7452
47.7562
47.751
47.7304
47.7018
47.6799
47.6759
47.6875
47.7053
47.7188
47.7186
47.6955
47.6366
47.5426
47.4254
47.3189
47.1961
47.1342
47.0802
47.0806
47.1058
47.1747
47.2675
47.3705
47.5198
47.7338
47.9681
48.1868
48.416
48.6765
48.9157
49.1237
49.2994
49.4114
49.4676
49.4835
49.4805
49.4954
49.5363
49.588
49.6507
49.7103
49.7817
49.8716
49.9904
50.1364
50.3028
50.4803
50.6655
50.8568
51.0362
51.2257
51.4055
51.5754
51.761
51.9372
52.1285
52.3141
52.4946
52.6485
52.8138
52.9902
53.1806
53.4036
53.6321
53.8852
54.1279
54.3925
54.6283
54.9095
55.1543
55.4281
55.6807
55.9418
56.0974
56.3346
56.4079
56.5943
56.6209
56.7856
56.7925
56.9011
56.8821
57.0696
57.0886
57.168
57.2778
57.4906
57.5109
57.972
58.1272
58.7063
58.8153
59.0548
59.2151
59.3902
59.3796
59.3895
59.4079
59.3796
59.3597
59.4611
59.5261
59.638
59.5485
59.5302
59.2584
59.2383
58.7726
58.5702
58.1954
57.9341
57.4777
57.3665
56.6654
56.211
55.3303
54.9273
53.6269
53.2132
52.0301
51.4339
50.2737
49.032
47.6437
45.8736
44.1563
42.2014
40.154
37.9475
49.9079
49.7403
49.1868
48.7131
48.4281
48.3194
48.3235
48.3732
48.4228
48.4506
48.45
48.4243
48.3816
48.3308
48.2792
48.2314
48.1892
48.1532
48.1226
48.0968
48.075
48.0564
48.0406
48.027
48.015
48.004
47.9931
47.9818
47.9694
47.9551
47.9383
47.9189
47.8978
47.8759
47.8532
47.829
47.8041
47.7793
47.7534
47.7243
47.6926
47.6611
47.6305
47.6002
47.5721
47.5495
47.5318
47.5168
47.503
47.49
47.4813
47.4799
47.4855
47.4967
47.5136
47.5368
47.5652
47.5977
47.6337
47.6711
47.7079
47.7449
47.7846
47.8279
47.8729
47.9174
47.9612
48.0036
48.0431
48.076
48.098
48.1087
48.1064
48.0895
48.0625
48.0403
48.0353
48.0461
48.0668
48.0865
48.0965
48.0881
48.0485
47.979
47.891
47.8239
47.7284
47.6987
47.6559
47.6788
47.7113
47.8106
47.8887
48.0179
48.1605
48.3793
48.5918
48.8518
49.0855
49.3579