/*--------------------------------*- C++ -*----------------------------------*\
| =========                 |                                                 |
| \\      /  F ield         | OpenFOAM: The Open Source CFD Toolbox           |
|  \\    /   O peration     | Version:  2.4.0                                 |
|   \\  /    A nd           | Web:      www.OpenFOAM.org                      |
|    \\/     M anipulation  |                                                 |
\*---------------------------------------------------------------------------*/
FoamFile
{
    version     2.0;
    format      ascii;
    class       surfaceScalarField;
    location    "2";
    object      phi;
}
// * * * * * * * * * * * * * * * * * * * * * * * * * * * * * * * * * * * * * //

dimensions      [0 3 -1 0 0 0 0];

internalField   nonuniform List<scalar> 
8640
(
0.000472675
1.48249e-05
0.000598571
-0.000125895
0.000860717
-0.000262146
0.0012071
-0.000346387
0.00151574
-0.000308638
0.00172648
-0.000210739
0.00183665
-0.000110174
0.00187968
-4.30219e-05
0.0018925
-1.28253e-05
0.00189673
-4.22973e-06
0.00189784
-1.10788e-06
0.00189943
-1.59382e-06
0.00190167
-2.23743e-06
0.00190275
-1.07539e-06
0.00192128
-1.85311e-05
0.00191627
5.01021e-06
0.00201032
-9.40518e-05
0.00202972
-1.93975e-05
0.00248152
-0.000451808
-0.000468532
0.00295006
0.00131388
8.84459e-05
0.00137636
-0.000188373
0.00164458
-0.000530369
0.00204399
-0.000745801
0.00246554
-0.000730187
0.00280839
-0.000553589
0.00302916
-0.000330941
0.00314623
-0.000160086
0.00320127
-6.78677e-05
0.00322276
-2.57189e-05
0.00323592
-1.42688e-05
0.00322969
4.63656e-06
0.00325346
-2.60119e-05
0.00321504
3.73452e-05
0.00328767
-9.11592e-05
0.00321191
8.07732e-05
0.00332199
-0.000204135
0.00335262
-5.00255e-05
0.00363585
-0.000735044
-0.000971527
0.00413885
0.00215663
0.00011932
0.00213138
-0.000163126
0.00222858
-0.000627573
0.00244458
-0.000961794
0.00274406
-0.00102967
0.00303632
-0.00084585
0.00325159
-0.000546204
0.00338014
-0.000288644
0.00344703
-0.000134754
0.00347618
-5.48685e-05
0.00349183
-2.99172e-05
0.00349014
6.32593e-06
0.00350673
-4.25991e-05
0.00348233
6.1739e-05
0.00353442
-0.000143245
0.00346835
0.000146844
0.00362197
-0.000357763
0.00353066
4.12914e-05
0.00384218
-0.00104657
-0.00113591
0.00400657
0.00288936
0.000117457
0.00285299
-0.000126757
0.00286169
-0.000636274
0.00291639
-0.00101649
0.00304354
-0.00115682
0.00320703
-0.00100935
0.0033469
-0.000686071
0.00343895
-0.000380697
0.00349048
-0.00018628
0.00351399
-7.83744e-05
0.00352715
-4.30786e-05
0.00352625
7.22905e-06
0.00353858
-5.49331e-05
0.00352471
7.56116e-05
0.00355138
-0.000169916
0.00354774
0.00015048
0.00356977
-0.000379795
0.003673
-6.19351e-05
0.00372274
-0.00109631
-0.00129053
0.00387736
0.00350514
9.98144e-05
0.00346856
-9.0173e-05
0.00342493
-0.00059265
0.0033726
-0.000964154
0.00335946
-0.00114368
0.0033949
-0.00104478
0.00344554
-0.000736714
0.00348657
-0.000421732
0.00351249
-0.000212196
0.00352515
-9.1031e-05
0.00353237
-5.03e-05
0.00353295
6.64845e-06
0.00353769
-5.96706e-05
0.00353676
7.65329e-05
0.00354377
-0.000176922
0.00355795
0.000136296
0.0035782
-0.000400044
0.00363529
-0.000119021
0.00365138
-0.0011124
-0.00140242
0.00376327
0.00401016
7.71514e-05
0.00397892
-5.89317e-05
0.00390006
-0.00051379
0.00377635
-0.000840439
0.00365637
-0.0010237
0.00358037
-0.000968782
0.003546
-0.000702348
0.00353519
-0.000410916
0.00353378
-0.00021079
0.00353408
-9.13273e-05
0.00353522
-5.14463e-05
0.00353535
6.52382e-06
0.00353628
-6.06045e-05
0.00353984
7.29695e-05
0.0035394
-0.000176474
0.00356127
0.000114421
0.003561
-0.000399773
0.0036342
-0.000192217
0.00358654
-0.00106474
-0.00144555
0.00362967
0.00441006
5.45871e-05
0.00438596
-3.48278e-05
0.00428045
-0.000408282
0.00410822
-0.000668207
0.00391149
-0.000826979
0.00374613
-0.000803416
0.00363844
-0.000594662
0.00358083
-0.000353305
0.00355398
-0.000183943
0.00354245
-7.97938e-05
0.00353787
-4.68623e-05
0.00353722
7.16802e-06
0.0035348
-5.81781e-05
0.00354277
6.49983e-05
0.00353339
-0.000167092
0.00356576
8.2046e-05
0.00354626
-0.000380274
0.00360811
-0.000254064
0.00355696
-0.00101359
-0.00145218
0.00356359
0.00470784
3.42512e-05
0.00469109
-1.80848e-05
0.00456596
-0.000283146
0.00436064
-0.000462892
0.00411167
-0.000578009
0.00388003
-0.000571774
0.0037148
-0.000429433
0.00361918
-0.000257686
0.00357117
-0.000135929
0.00354959
-5.82185e-05
0.00354021
-3.74819e-05
0.00353856
8.81851e-06
0.00353414
-5.37591e-05
0.00354334
5.58032e-05
0.00353151
-0.000155266
0.00356145
5.21123e-05
0.00353889
-0.000357714
0.00358789
-0.000303067
0.00351397
-0.000939666
-0.00143069
0.00349247
0.00490538
1.63676e-05
0.00489465
-7.35392e-06
0.00475639
-0.00014488
0.00453007
-0.000236574
0.00424879
-0.000296732
0.00397362
-0.000296608
0.00376902
-0.00022483
0.00364676
-0.000135419
0.00358363
-7.28047e-05
0.00355479
-2.93787e-05
0.00354194
-2.46348e-05
0.00353945
1.13113e-05
0.00353371
-4.802e-05
0.00354343
4.60824e-05
0.00352941
-0.000141247
0.00355782
2.37098e-05
0.00353117
-0.000331067
0.00356303
-0.000334926
0.00349511
-0.000871746
-0.00136707
0.00343149
0.00500387
-7.76963e-10
0.00499651
4.73617e-10
0.00485164
-4.03556e-09
0.00461505
1.01783e-08
0.00431836
-3.4627e-08
0.00402168
7.24383e-08
0.00379712
-2.71535e-07
0.00366115
5.43679e-07
0.00359016
-1.81456e-06
0.00355753
3.25194e-06
0.00354283
-9.93355e-06
0.00353986
1.42883e-05
0.00353347
-4.16387e-05
0.00354277
3.67879e-05
0.00352831
-0.000126792
0.00355235
-3.22383e-07
0.00352472
-0.000303443
0.00354227
-0.000352478
0.00346891
-0.00079838
-0.00128767
0.00338951
0.00500387
-1.63691e-05
0.00499651
7.35467e-06
0.00485164
0.000144872
0.00461505
0.000236594
0.00431836
0.000296663
0.00402168
0.00029675
0.00379711
0.000224293
0.00366116
0.000136496
0.00359014
6.92055e-05
0.00355755
3.58412e-05
0.00354275
4.8679e-06
0.00353979
1.72491e-05
0.00353327
-3.5119e-05
0.00354175
2.83099e-05
0.00352738
-0.000112425
0.0035466
-1.95384e-05
0.00351885
-0.000275695
0.00352183
-0.000355458
0.00345049
-0.000727042
-0.00118765
0.00335047
0.00490538
-3.42524e-05
0.00489465
1.80851e-05
0.00475639
0.000283139
0.00453007
0.000462912
0.00424879
0.000577942
0.00397363
0.000571911
0.00376901
0.000428914
0.00364678
0.000258729
0.00358356
0.000132422
0.00355485
6.45489e-05
0.00354168
1.80366e-05
0.00353928
1.96471e-05
0.00353305
-2.88885e-05
0.00354047
2.08943e-05
0.00352666
-9.86163e-05
0.00354071
-3.35903e-05
0.00351319
-0.000248169
0.00350407
-0.000346342
0.00343226
-0.000655234
-0.00107675
0.00332136
0.00470784
-5.4588e-05
0.00469109
3.48277e-05
0.00456596
0.000408275
0.00436064
0.000668226
0.00411167
0.000826916
0.00388004
0.000803544
0.00371478
0.000594172
0.00361922
0.000354289
0.00357104
0.000180601
0.00354971
8.58778e-05
0.00353972
2.8023e-05
0.00353841
2.09574e-05
0.00353278
-2.32508e-05
0.00353908
1.45871e-05
0.00352597
-8.54999e-05
0.00353506
-4.2688e-05
0.0035078
-0.000220903
0.00348835
-0.000326894
0.00341653
-0.00058341
-0.000957803
0.00329758
0.00441006
-7.71522e-05
0.00438596
5.89317e-05
0.00428045
0.000513784
0.00410822
0.000840455
0.00391149
0.00102365
0.00374614
0.000968898
0.00363841
0.000701902
0.00358089
0.000411809
0.00355379
0.000207699
0.00354266
9.7005e-05
0.00353707
3.3611e-05
0.00353728
2.07549e-05
0.00353244
-1.84175e-05
0.00353768
9.35426e-06
0.00352526
-7.30889e-05
0.00352985
-4.72693e-05
0.00350271
-0.00019377
0.00347488
-0.000299057
0.00340253
-0.000511068
-0.000834245
0.00327897
0.00401016
-9.98149e-05
0.00397892
9.01733e-05
0.00390006
0.000592644
0.00377635
0.000964166
0.00365636
0.00114364
0.00358038
0.00104488
0.00354595
0.000736328
0.00353526
0.000422498
0.0035335
0.000209463
0.00353443
9.60804e-05
0.00353399
3.40447e-05
0.00353598
1.87715e-05
0.00353204
-1.44814e-05
0.00353631
5.08255e-06
0.00352452
-6.12946e-05
0.00352516
-4.79105e-05
0.003498
-0.000166611
0.00346345
-0.000264512
0.00339039
-0.000438008
-0.000708132
0.00326428
0.00350514
-0.000117457
0.00346856
0.000126757
0.00342493
0.00063627
0.0033726
0.0010165
0.00335946
0.00115678
0.00339491
0.00100942
0.00344548
0.000685763
0.00348668
0.000381292
0.00351211
0.000184032
0.00352568
8.25108e-05
0.00353058
2.91496e-05
0.00353439
1.49594e-05
0.00353133
-1.14233e-05
0.00353478
1.63849e-06
0.00352345
-4.99702e-05
0.00352077
-4.523e-05
0.00349338
-0.000139221
0.00345353
-0.000224656
0.00337943
-0.000363907
-0.0005805
0.00325179
0.00288936
-0.00011932
0.00285299
0.000163126
0.00286169
0.000627569
0.00291639
0.000961798
0.00304353
0.00102965
0.00320705
0.000845894
0.00334682
0.000545994
0.00343911
0.000289007
0.00348996
0.000133178
0.00351486
5.76165e-05
0.00352437
1.96339e-05
0.00352969
9.64555e-06
0.00352734
-9.07732e-06
0.00353001
-1.03287e-06
0.00351892
-3.88791e-05
0.0035134
-3.9708e-05
0.00348523
-0.00011105
0.00344071
-0.000180137
0.00336422
-0.000287415
-0.000450078
0.00323379
0.00215663
-8.84461e-05
0.00213138
0.000188373
0.00222858
0.000530367
0.00244458
0.000745802
0.00274405
0.000730175
0.00303634
0.000553602
0.0032515
0.000330835
0.00338029
0.000160216
0.00344647
6.70004e-05
0.00347708
2.70039e-05
0.00348861
8.10758e-06
0.00349424
4.02143e-06
0.00349213
-6.97324e-06
0.00349374
-2.63789e-06
0.00348227
-2.74112e-05
0.00347364
-3.10756e-05
0.00344252
-7.99395e-05
0.00339154
-0.000129149
0.00330725
-0.000203125
-0.000309722
0.00316689
0.00131388
-1.48251e-05
0.00137636
0.000125895
0.00164458
0.000262146
0.002044
0.000346385
0.00246553
0.000308637
0.00280841
0.000210727
0.00302908
0.000110165
0.00314635
4.29427e-05
0.00320062
1.27283e-05
0.00322374
3.88971e-06
0.00323166
1.82652e-07
0.00323521
4.73517e-07
0.00323239
-4.14782e-06
0.00323202
-2.27373e-06
0.00321881
-1.4199e-05
0.00320524
-1.75109e-05
0.0031664
-4.10989e-05
0.00310331
-6.60566e-05
0.0030009
-0.000100708
-0.000147726
0.0028389
0.000472675
0.00059857
0.000860716
0.0012071
0.00151574
0.00172646
0.00183663
0.00187957
0.0018923
0.00189619
0.00189637
0.00189685
0.0018927
0.00189042
0.00187623
0.00185871
0.00181762
0.00175156
0.00165085
0.00150312
0.00287946
-0.0066377
0.00670829
0.00273725
-0.00617696
0.00631917
0.00226263
-0.00515543
0.00563005
0.00199353
-0.00419111
0.00446021
0.0018729
-0.00313906
0.00325969
0.00180213
-0.00220507
0.00227585
0.00176052
-0.0015262
0.00156781
0.00173948
-0.00104054
0.00106158
0.00172909
-0.000699116
0.000709502
0.00172376
-0.000466216
0.000471543
0.00172095
-0.000309629
0.000312442
0.00171943
-0.000204913
0.000206438
0.00171858
-0.00013516
0.000136011
0.00171809
-8.88676e-05
8.93547e-05
0.0017178
-5.82491e-05
5.85344e-05
0.00171763
-3.80623e-05
3.82332e-05
0.00171753
-2.47954e-05
2.48995e-05
0.00171746
-1.6103e-05
1.6167e-05
0.00171742
-1.0425e-05
1.04649e-05
0.0017174
-6.73031e-06
6.75538e-06
0.00171738
-4.33048e-06
4.34637e-06
0.00171737
-2.77693e-06
2.78705e-06
0.00171737
-1.7772e-06
1.78357e-06
0.00171736
-1.1326e-06
1.13683e-06
0.00171736
-7.19223e-07
7.21911e-07
0.00171736
-4.56498e-07
4.57946e-07
0.00171736
-2.8797e-07
2.8902e-07
0.00171736
-1.81128e-07
1.81799e-07
0.00171736
-1.14086e-07
1.14243e-07
0.00171736
-7.10477e-08
7.14276e-08
0.00171736
-4.41603e-08
4.45205e-08
0.00171736
-2.80537e-08
2.78106e-08
0.00171736
-1.72602e-08
1.718e-08
0.00171736
-1.03921e-08
1.07192e-08
0.00171736
-6.54703e-09
6.55702e-09
0.00171736
-4.05634e-09
3.9188e-09
0.00171736
-2.48077e-09
2.68661e-09
0.00171736
-1.61474e-09
1.72815e-09
0.00171736
-9.33538e-10
6.48688e-10
0.00171736
-5.79328e-10
5.09425e-10
0.00171736
2.09658e-11
2.00765e-10
0.00171736
-1.93085e-10
1.8055e-10
0.00171736
-2.77316e-10
-1.35566e-11
0.00171736
-1.42122e-10
2.42376e-12
0.00171736
1.2636e-10
8.8878e-11
0.00171736
3.11501e-11
1.32818e-10
0.00171736
1.04757e-10
-2.09878e-10
0.00171736
-3.04655e-10
2.55777e-10
0.00171736
2.22432e-10
-1.44919e-10
0.00171736
-9.61297e-11
1.06368e-10
0.00171736
-2.28356e-11
-1.25595e-10
0.00171736
1.46188e-10
-3.3928e-10
0.00171736
-2.33797e-10
2.84394e-10
0.00171736
4.42703e-10
-1.71529e-10
0.00171736
-3.45577e-10
4.03998e-10
0.00171736
1.49107e-10
-2.77802e-10
0.00171736
-1.56837e-10
1.31772e-10
0.00171736
8.08878e-11
3.90728e-11
0.00171736
2.8338e-10
-7.35195e-11
0.00171736
-4.28554e-10
4.84072e-10
0.00171736
3.2763e-10
-5.22923e-10
0.00171736
-2.36983e-10
1.23888e-10
0.00171736
-2.77952e-10
4.09714e-10
0.00171736
6.27272e-10
-4.53206e-10
0.00171736
-4.85859e-10
4.88602e-10
0.00171736
-1.89293e-10
-1.75264e-11
0.00171736
4.60986e-10
-6.80217e-10
0.00171736
-6.45479e-10
5.57433e-10
0.00171736
-2.50381e-11
1.69729e-10
0.00171736
6.41938e-10
-4.08209e-10
0.00171736
-4.09994e-10
4.97829e-10
0.00171736
-3.29467e-10
1.54437e-10
0.00171736
3.80934e-10
-6.68105e-10
0.00171736
-2.66056e-10
1.0483e-10
0.00171736
-4.04598e-10
5.3511e-10
0.00171736
5.67236e-10
-2.42588e-10
0.00171736
4.30078e-10
-1.59341e-10
0.00171736
-5.0356e-10
5.90109e-10
0.00171736
-2.28678e-10
1.52935e-10
0.00171736
3.93239e-10
-5.78348e-10
0.00171736
3.33899e-11
-2.01991e-10
0.00171736
-5.94533e-10
5.28114e-10
0.00171736
-3.23259e-10
3.03843e-10
0.00171736
4.41443e-10
-4.32938e-10
0.00171736
5.15508e-10
-4.87332e-10
0.00171736
-1.40095e-10
1.54376e-10
0.00171736
-3.49646e-10
3.62605e-10
0.00171736
-4.99029e-11
1.37346e-10
0.00171736
5.96058e-10
-4.46553e-10
0.00171736
6.49493e-10
-5.51638e-10
0.00171736
2.9281e-10
-3.54902e-10
0.00171736
-3.38463e-10
1.49658e-10
0.00171736
-3.62615e-10
1.02888e-10
0.00171736
-1.96978e-10
2.15374e-10
0.00171736
-2.78192e-10
1.02179e-10
0.00171736
5.73917e-10
9.8103e-11
0.00171736
-6.97162e-10
3.56828e-11
0.00171736
3.18357e-10
-1.58641e-11
0.00171736
-5.40654e-10
-2.40583e-10
-3.3616e-09
-2.50578e-10
0.00335943
-0.00585828
0.00294786
-0.00576539
0.00241274
-0.00462031
0.00207449
-0.00385286
0.00191451
-0.00297908
0.00183096
-0.00212152
0.0017811
-0.00147634
0.00175346
-0.0010129
0.00173844
-0.000684088
0.00172996
-0.000457743
0.00172504
-0.000304706
0.00172211
-0.000201985
0.00172033
-0.000133382
0.00171924
-8.777e-05
0.00171855
-5.75633e-05
0.00171812
-3.76287e-05
0.00171784
-2.45196e-05
0.00171767
-1.5928e-05
0.00171755
-1.03136e-05
0.00171748
-6.65796e-06
0.00171744
-4.2843e-06
0.00171741
-2.74811e-06
0.00171739
-1.75809e-06
0.00171738
-1.12018e-06
0.00171737
-7.11952e-07
0.00171736
-4.51777e-07
0.00171736
-2.84673e-07
0.00171736
-1.79526e-07
0.00171736
-1.13171e-07
0.00171736
-6.97782e-08
0.00171736
-4.36782e-08
0.00171736
-2.82921e-08
0.00171736
-1.70847e-08
0.00171736
-9.97859e-09
0.00171736
-6.44718e-09
0.00171736
-4.22144e-09
0.00171736
-2.29191e-09
0.00171736
-1.50796e-09
0.00171736
-1.403e-09
0.00171736
-5.57295e-10
0.00171736
3.88302e-10
0.00171736
-1.71628e-10
0.00171736
-6.48754e-10
0.00171736
-3.55613e-10
0.00171736
5.00331e-10
0.00171736
4.435e-10
0.00171736
-2.91307e-10
0.00171736
-3.16546e-10
0.00171736
2.0534e-10
0.00171736
-3.00858e-11
0.00171736
-1.62937e-10
0.00171736
-2.33591e-10
0.00171736
3.80124e-11
0.00171736
7.93184e-10
0.00171736
-1.26717e-10
0.00171736
-3.89958e-10
0.00171736
8.57514e-11
0.00171736
2.11416e-10
0.00171736
3.81312e-10
0.00171736
-4.25404e-11
0.00171736
-3.77212e-10
0.00171736
-2.7343e-10
0.00171736
2.42354e-10
0.00171736
4.37661e-10
0.00171736
-3.02388e-10
0.00171736
-4.13219e-10
0.00171736
-2.41886e-10
0.00171736
-3.65863e-10
0.00171736
2.6459e-10
0.00171736
6.04056e-10
0.00171736
-3.71616e-11
0.00171736
-4.75761e-10
0.00171736
-4.57395e-10
0.00171736
-3.48613e-10
0.00171736
1.71871e-10
0.00171736
7.55595e-10
0.00171736
5.9044e-10
0.00171735
6.04718e-11
0.00171735
-1.88476e-10
0.00171736
-3.2364e-10
0.00171736
-4.16497e-10
0.00171736
-3.9922e-10
0.00171736
-1.8144e-10
0.00171736
2.2768e-10
0.00171736
3.00218e-10
0.00171736
4.32755e-11
0.00171736
1.83825e-11
0.00171736
2.66645e-10
0.00171736
5.6184e-10
0.00171736
4.90866e-10
0.00171736
1.60542e-11
0.00171736
-3.82429e-10
0.00171736
-5.01204e-10
0.00171736
3.36537e-11
0.00171736
-4.3263e-10
0.00171736
1.32846e-09
0.00171736
-1.42567e-09
0.00171736
6.62132e-10
0.00171736
-1.382e-09
-7.0883e-09
0.00296995
-0.00482166
0.00265714
-0.00545258
0.00237798
-0.00434115
0.00211607
-0.00359096
0.00195035
-0.00281335
0.00185758
-0.00202876
0.0018005
-0.00141926
0.00176687
-0.000979276
0.00174749
-0.000664707
0.00173601
-0.000446265
0.00172905
-0.000297742
0.00172475
-0.00019769
0.00172207
-0.000130696
0.00172037
-8.60719e-05
0.00171929
-5.64819e-05
0.0017186
-3.69365e-05
0.00171815
-2.40752e-05
0.00171787
-1.56426e-05
0.00171768
-1.01304e-05
0.00171756
-6.53984e-06
0.00171749
-4.20851e-06
0.00171744
-2.70007e-06
0.00171741
-1.72703e-06
0.00171739
-1.10026e-06
0.00171738
-6.99538e-07
0.00171737
-4.43868e-07
0.00171736
-2.79618e-07
0.00171736
-1.76389e-07
0.00171736
-1.11219e-07
0.00171736
-6.84476e-08
0.00171736
-4.29476e-08
0.00171736
-2.79503e-08
0.00171736
-1.67941e-08
0.00171736
-9.68675e-09
0.00171736
-6.27764e-09
0.00171736
-4.26352e-09
0.00171736
-2.22571e-09
0.00171736
-1.38398e-09
0.00171736
-1.4913e-09
0.00171736
-5.20622e-10
0.00171736
4.33821e-10
0.00171736
-2.17186e-10
0.00171736
-7.64264e-10
0.00171736
-4.03102e-10
0.00171736
5.91615e-10
0.00171736
5.52629e-10
0.00171736
-4.12224e-10
0.00171736
-2.64842e-10
0.00171736
1.87092e-10
0.00171736
-3.92477e-11
0.00171736
-1.71302e-10
0.00171736
-3.4906e-10
0.00171736
1.10133e-10
0.00171736
8.3108e-10
0.00171736
-1.62185e-11
0.00171736
-5.5215e-10
0.00171736
2.03439e-10
0.00171736
2.53554e-10
0.00171736
3.28133e-10
0.00171736
1.81998e-10
0.00171736
-5.75371e-10
0.00171736
-3.155e-10
0.00171736
4.20322e-10
0.00171736
3.16646e-10
0.00171736
-2.04022e-10
0.00171736
-4.30277e-10
0.00171736
-4.9856e-10
0.00171736
-2.91956e-10
0.00171736
3.38663e-10
0.00171736
5.43559e-10
0.00171736
1.1402e-10
0.00171736
-4.75934e-10
0.00171736
-7.52002e-10
0.00171736
-3.56721e-10
0.00171736
3.92804e-10
0.00171736
7.66125e-10
0.00171736
6.06104e-10
0.00171736
2.57621e-10
0.00171736
-1.55004e-10
0.00171736
-5.6023e-10
0.00171736
-5.57219e-10
0.00171736
-2.9769e-10
0.00171736
-1.14338e-10
0.00171736
1.1021e-10
0.00171736
1.989e-10
0.00171736
1.08081e-10
0.00171736
1.58338e-10
0.00171736
3.82394e-10
0.00171736
5.63143e-10
0.00171736
4.15404e-10
0.00171736
-9.02568e-11
0.00171736
-4.32077e-10
0.00171736
-5.45417e-10
0.00171736
2.1395e-10
0.00171736
-5.91935e-10
0.00171736
1.90759e-09
0.00171736
-2.23152e-09
0.00171736
9.24479e-10
0.00171736
-2.14967e-09
-1.08222e-08
0.00326163
-0.00420594
0.00280712
-0.00499807
0.00247843
-0.00401245
0.0021785
-0.00329103
0.00198926
-0.00262411
0.00188386
-0.00192336
0.00181908
-0.00135448
0.00177969
-0.000939881
0.00175619
-0.00064121
0.00174186
-0.000431939
0.00173295
-0.000288824
0.00172733
-0.000192074
0.00172376
-0.000127127
0.00172148
-8.37884e-05
0.00172001
-5.50143e-05
0.00171907
-3.59912e-05
0.00171846
-2.34653e-05
0.00171806
-1.5249e-05
0.00171781
-9.87689e-06
0.00171764
-6.37667e-06
0.00171754
-4.1037e-06
0.00171747
-2.63308e-06
0.00171743
-1.68411e-06
0.0017174
-1.07286e-06
0.00171739
-6.82145e-07
0.00171737
-4.32849e-07
0.00171737
-2.72715e-07
0.00171736
-1.71894e-07
0.00171736
-1.0838e-07
0.00171736
-6.68454e-08
0.00171736
-4.19375e-08
0.00171736
-2.72155e-08
0.00171736
-1.63339e-08
0.00171736
-9.42581e-09
0.00171736
-6.10567e-09
0.00171736
-4.18448e-09
0.00171736
-2.22203e-09
0.00171736
-1.27981e-09
0.00171736
-1.39154e-09
0.00171736
-5.2787e-10
0.00171736
3.37297e-10
0.00171736
-2.6423e-10
0.00171736
-7.03793e-10
0.00171736
-3.67501e-10
0.00171736
5.48098e-10
0.00171736
5.53665e-10
0.00171736
-4.15247e-10
0.00171736
-2.28624e-10
0.00171736
1.70191e-10
0.00171736
-7.34977e-11
0.00171736
-1.34745e-10
0.00171736
-3.05084e-10
0.00171736
6.64647e-11
0.00171736
7.962e-10
0.00171736
1.19234e-11
0.00171736
-5.48362e-10
0.00171736
2.58964e-10
0.00171736
2.49701e-10
0.00171736
2.3803e-10
0.00171736
2.46212e-10
0.00171736
-5.23675e-10
0.00171736
-3.38635e-10
0.00171736
4.21451e-10
0.00171736
2.74198e-10
0.00171736
-1.98653e-10
0.00171736
-3.91588e-10
0.00171736
-5.06309e-10
0.00171736
-2.94052e-10
0.00171736
3.13609e-10
0.00171736
5.03506e-10
0.00171736
1.18583e-10
0.00171736
-4.49258e-10
0.00171736
-7.38962e-10
0.00171736
-3.30231e-10
0.00171736
4.23724e-10
0.00171736
7.45665e-10
0.00171736
5.64895e-10
0.00171736
2.64798e-10
0.00171736
-1.28635e-10
0.00171736
-5.54419e-10
0.00171736
-5.75722e-10
0.00171736
-2.9561e-10
0.00171736
-1.03956e-10
0.00171736
8.87321e-11
0.00171736
1.78329e-10
0.00171736
1.20415e-10
0.00171736
1.80627e-10
0.00171736
4.16284e-10
0.00171736
5.67258e-10
0.00171736
3.75176e-10
0.00171736
-1.41724e-10
0.00171736
-4.3871e-10
0.00171736
-5.64138e-10
0.00171736
3.84982e-10
0.00171736
-8.31067e-10
0.00171736
2.46815e-09
0.00171736
-3.12811e-09
0.00171736
1.25191e-09
0.00171736
-2.86377e-09
-1.46481e-08
0.00310165
-0.00354432
0.00261707
-0.00451349
0.00239093
-0.00378631
0.00217229
-0.00307239
0.00200942
-0.00246124
0.00190604
-0.00181997
0.00183682
-0.00128526
0.00179215
-0.000895216
0.00176462
-0.000613676
0.00174752
-0.000414841
0.00173672
-0.000278022
0.00172983
-0.000185185
0.00172541
-0.000122706
0.00172256
-8.0938e-05
0.00172071
-5.31719e-05
0.00171952
-3.47995e-05
0.00171875
-2.26943e-05
0.00171825
-1.47502e-05
0.00171793
-9.55508e-06
0.00171772
-6.16948e-06
0.00171759
-3.97053e-06
0.00171751
-2.54771e-06
0.00171745
-1.6295e-06
0.00171742
-1.03809e-06
0.00171739
-6.59951e-07
0.00171738
-4.18799e-07
0.00171737
-2.63933e-07
0.00171736
-1.66155e-07
0.00171736
-1.04784e-07
0.00171736
-6.48552e-08
0.00171736
-4.06287e-08
0.00171736
-2.62168e-08
0.00171736
-1.57291e-08
0.00171736
-9.12744e-09
0.00171736
-5.91902e-09
0.00171736
-4.05227e-09
0.00171736
-2.17735e-09
0.00171736
-1.16027e-09
0.00171736
-1.28257e-09
0.00171736
-5.69661e-10
0.00171736
2.10976e-10
0.00171736
-2.95511e-10
0.00171736
-6.0958e-10
0.00171736
-3.04973e-10
0.00171736
4.89163e-10
0.00171736
5.25586e-10
0.00171736
-3.9906e-10
0.00171736
-2.01268e-10
0.00171736
1.68716e-10
0.00171736
-1.13406e-10
0.00171736
-9.29908e-11
0.00171736
-2.51423e-10
0.00171736
2.56262e-11
0.00171736
7.31969e-10
0.00171736
4.01415e-11
0.00171736
-5.23608e-10
0.00171736
2.95305e-10
0.00171736
2.42465e-10
0.00171736
1.40902e-10
0.00171736
2.86733e-10
0.00171736
-4.38385e-10
0.00171736
-3.57459e-10
0.00171736
3.93347e-10
0.00171736
2.45637e-10
0.00171736
-1.98957e-10
0.00171736
-3.47945e-10
0.00171736
-4.76626e-10
0.00171736
-3.0114e-10
0.00171736
2.73286e-10
0.00171736
4.6466e-10
0.00171736
1.07498e-10
0.00171736
-4.16417e-10
0.00171736
-6.87481e-10
0.00171736
-2.93485e-10
0.00171736
4.26884e-10
0.00171736
7.10263e-10
0.00171736
5.14639e-10
0.00171736
2.36959e-10
0.00171736
-1.0543e-10
0.00171736
-5.04296e-10
0.00171736
-5.69194e-10
0.00171736
-3.09473e-10
0.00171736
-9.52058e-11
0.00171736
8.80495e-11
0.00171736
1.6624e-10
0.00171736
1.15296e-10
0.00171736
1.85252e-10
0.00171736
4.33273e-10
0.00171736
5.62514e-10
0.00171736
3.37662e-10
0.00171736
-1.78737e-10
0.00171736
-4.27321e-10
0.00171736
-5.74645e-10
0.00171736
5.55115e-10
0.00171736
-1.1029e-09
0.00171736
3.05641e-09
0.00171736
-4.09067e-09
0.00171736
1.65798e-09
0.00171736
-3.51612e-09
-1.86398e-08
0.00321034
-0.00312499
0.00280743
-0.00411058
0.00251368
-0.00349257
0.00222897
-0.00278768
0.00203437
-0.00226663
0.00192249
-0.00170809
0.00185089
-0.00121366
0.00180313
-0.000847455
0.00177244
-0.000582989
0.00175288
-0.000395283
0.00174033
-0.000265466
0.00173223
-0.000177088
0.00172699
-0.000117469
0.0017236
-7.75431e-05
0.00172139
-5.09688e-05
0.00171996
-3.33703e-05
0.00171904
-2.17677e-05
0.00171844
-1.415e-05
0.00171805
-9.16734e-06
0.0017178
-5.91967e-06
0.00171764
-3.8099e-06
0.00171754
-2.4446e-06
0.00171747
-1.56356e-06
0.00171743
-9.96154e-07
0.0017174
-6.33145e-07
0.00171738
-4.01791e-07
0.00171737
-2.53311e-07
0.00171737
-1.59259e-07
0.00171736
-1.0048e-07
0.00171736
-6.24435e-08
0.00171736
-3.90163e-08
0.00171736
-2.49931e-08
0.00171736
-1.50029e-08
0.00171736
-8.78236e-09
0.00171736
-5.71001e-09
0.00171736
-3.87248e-09
0.00171736
-2.07364e-09
0.00171736
-1.03508e-09
0.00171736
-1.19741e-09
0.00171736
-6.37816e-10
0.00171736
8.24565e-11
0.00171736
-3.11943e-10
0.00171736
-5.02316e-10
0.00171736
-2.30812e-10
0.00171736
4.30986e-10
0.00171736
4.87246e-10
0.00171736
-3.80676e-10
0.00171736
-1.74982e-10
0.00171736
1.69347e-10
0.00171736
-1.47023e-10
0.00171736
-6.6812e-11
0.00171736
-1.85305e-10
0.00171736
-1.97502e-11
0.00171736
6.67544e-10
0.00171736
6.5618e-11
0.00171736
-4.91408e-10
0.00171736
3.17335e-10
0.00171736
2.36117e-10
0.00171736
5.94042e-11
0.00171736
3.05329e-10
0.00171736
-3.48198e-10
0.00171736
-3.71451e-10
0.00171736
3.53963e-10
0.00171736
2.32324e-10
0.00171736
-1.97383e-10
0.00171736
-3.17513e-10
0.00171736
-4.38789e-10
0.00171736
-3.03655e-10
0.00171736
2.35266e-10
0.00171736
4.34516e-10
0.00171736
9.29538e-11
0.00171736
-3.94442e-10
0.00171736
-6.31503e-10
0.00171736
-2.53554e-10
0.00171736
4.26454e-10
0.00171736
6.76933e-10
0.00171736
4.62601e-10
0.00171736
1.97363e-10
0.00171736
-8.3428e-11
0.00171736
-4.47849e-10
0.00171736
-5.57555e-10
0.00171736
-3.23029e-10
0.00171736
-7.9219e-11
0.00171736
9.47569e-11
0.00171736
1.46846e-10
0.00171736
1.0274e-10
0.00171736
1.9124e-10
0.00171736
4.48704e-10
0.00171736
5.47235e-10
0.00171736
2.92631e-10
0.00171736
-2.08987e-10
0.00171736
-4.0187e-10
0.00171736
-5.81193e-10
0.00171736
7.30936e-10
0.00171736
-1.40992e-09
0.00171736
3.69949e-09
0.00171736
-5.12479e-09
0.00171736
2.16791e-09
0.00171736
-4.08746e-09
-2.28483e-08
0.0031373
-0.00269869
0.00271777
-0.00369105
0.0024984
-0.0032732
0.00227514
-0.00256443
0.00207887
-0.00207036
0.00194981
-0.00157903
0.00186784
-0.00113169
0.00181435
-0.000793966
0.00178001
-0.000548651
0.001758
-0.000373273
0.00174376
-0.000251232
0.00173452
-0.000167843
0.00172851
-0.000111456
0.00172459
-7.36292e-05
0.00172204
-4.84211e-05
0.00172039
-3.17137e-05
0.00171931
-2.06919e-05
0.00171861
-1.34525e-05
0.00171816
-8.7164e-06
0.00171787
-5.62893e-06
0.00171769
-3.6229e-06
0.00171757
-2.32448e-06
0.00171749
-1.48672e-06
0.00171744
-9.47349e-07
0.00171741
-6.01936e-07
0.00171739
-3.81921e-07
0.00171738
-2.40914e-07
0.00171737
-1.51288e-07
0.00171736
-9.54972e-08
0.00171736
-5.95968e-08
0.00171736
-3.71053e-08
0.00171736
-2.35678e-08
0.00171736
-1.41749e-08
0.00171736
-8.39444e-09
0.00171736
-5.46904e-09
0.00171736
-3.64036e-09
0.00171736
-1.92059e-09
0.00171736
-9.15361e-10
0.00171736
-1.13942e-09
0.00171736
-7.23093e-10
0.00171736
-3.59194e-11
0.00171736
-3.08118e-10
0.00171736
-3.89485e-10
0.00171736
-1.5566e-10
0.00171736
3.73309e-10
0.00171736
4.44697e-10
0.00171736
-3.58657e-10
0.00171736
-1.53781e-10
0.00171736
1.7317e-10
0.00171736
-1.7498e-10
0.00171736
-4.63112e-11
0.00171736
-1.26264e-10
0.00171736
-5.88762e-11
0.00171736
6.0015e-10
0.00171736
9.68507e-11
0.00171736
-4.59856e-10
0.00171736
3.25667e-10
0.00171736
2.33601e-10
0.00171736
-1.2007e-11
0.00171736
3.1646e-10
0.00171736
-2.63155e-10
0.00171736
-3.84138e-10
0.00171736
3.11877e-10
0.00171736
2.29562e-10
0.00171736
-1.93071e-10
0.00171736
-2.95761e-10
0.00171736
-4.02557e-10
0.00171736
-2.99733e-10
0.00171736
2.03643e-10
0.00171736
4.07903e-10
0.00171736
7.93181e-11
0.00171736
-3.78233e-10
0.00171736
-5.79835e-10
0.00171736
-2.12367e-10
0.00171736
4.27411e-10
0.00171736
6.40664e-10
0.00171736
4.07575e-10
0.00171736
1.61312e-10
0.00171736
-6.47342e-11
0.00171736
-3.92377e-10
0.00171736
-5.43489e-10
0.00171736
-3.32094e-10
0.00171736
-5.5593e-11
0.00171736
1.03196e-10
0.00171736
1.19502e-10
0.00171736
8.58299e-11
0.00171736
2.01662e-10
0.00171736
4.62229e-10
0.00171736
5.19464e-10
0.00171736
2.41937e-10
0.00171736
-2.30852e-10
0.00171736
-3.59934e-10
0.00171736
-5.90515e-10
0.00171736
9.08983e-10
0.00171736
-1.75312e-09
0.00171736
4.41234e-09
0.00171736
-6.23863e-09
0.00171736
2.8149e-09
0.00171736
-4.56592e-09
-2.7325e-08
0.00317851
-0.00238474
0.00276463
-0.00327716
0.00247912
-0.00298769
0.0022561
-0.0023414
0.00208041
-0.00189467
0.00196057
-0.00145919
0.00187963
-0.00105074
0.00182395
-0.000738289
0.00178694
-0.00051164
0.00176278
-0.000349114
0.001747
-0.000235452
0.00173668
-0.000157525
0.00172994
-0.000104713
0.00172554
-6.9225e-05
0.00172266
-4.55473e-05
0.00172079
-2.98414e-05
0.00171957
-1.94746e-05
0.00171878
-1.26627e-05
0.00171827
-8.20544e-06
0.00171794
-5.29925e-06
0.00171773
-3.41079e-06
0.00171759
-2.18823e-06
0.00171751
-1.39952e-06
0.00171745
-8.9199e-07
0.00171742
-5.66557e-07
0.00171739
-3.59323e-07
0.00171738
-2.26818e-07
0.00171737
-1.4232e-07
0.00171736
-8.98703e-08
0.00171736
-5.63066e-08
0.00171736
-3.49054e-08
0.00171736
-2.19688e-08
0.00171736
-1.32643e-08
0.00171736
-7.96369e-09
0.00171736
-5.18551e-09
0.00171736
-3.35717e-09
0.00171736
-1.7329e-09
0.00171736
-8.10067e-10
0.00171736
-1.10503e-09
0.00171736
-8.11565e-10
0.00171736
-1.36306e-10
0.00171736
-2.84794e-10
0.00171736
-2.76509e-10
0.00171736
-8.46578e-11
0.00171736
3.14803e-10
0.00171736
4.00062e-10
0.00171736
-3.31772e-10
0.00171736
-1.35758e-10
0.00171736
1.75819e-10
0.00171736
-1.95577e-10
0.00171736
-3.4131e-11
0.00171736
-6.89797e-11
0.00171736
-9.42178e-11
0.00171736
5.31653e-10
0.00171736
1.31064e-10
0.00171736
-4.27212e-10
0.00171736
3.20153e-10
0.00171736
2.32163e-10
0.00171736
-6.84446e-11
0.00171736
3.17903e-10
0.00171736
-1.85448e-10
0.00171736
-3.93797e-10
0.00171736
2.69345e-10
0.00171736
2.34002e-10
0.00171736
-1.8512e-10
0.00171736
-2.82176e-10
0.00171736
-3.68685e-10
0.00171736
-2.88152e-10
0.00171736
1.78583e-10
0.00171736
3.84089e-10
0.00171736
6.42677e-11
0.00171736
-3.67517e-10
0.00171736
-5.29953e-10
0.00171736
-1.66978e-10
0.00171736
4.25461e-10
0.00171736
5.98295e-10
0.00171736
3.54926e-10
0.00171736
1.27775e-10
0.00171736
-4.84486e-11
0.00171736
-3.41396e-10
0.00171736
-5.24527e-10
0.00171736
-3.33609e-10
0.00171736
-2.89182e-11
0.00171736
1.09949e-10
0.00171736
8.81464e-11
0.00171736
6.85894e-11
0.00171736
2.13916e-10
0.00171736
4.69571e-10
0.00171736
4.80582e-10
0.00171736
1.90045e-10
0.00171736
-2.41354e-10
0.00171736
-3.04181e-10
0.00171736
-6.06126e-10
0.00171736
1.0855e-09
0.00171736
-2.13677e-09
0.00171736
5.20939e-09
0.00171736
-7.44674e-09
0.00171736
3.63288e-09
0.00171736
-4.93905e-09
-3.21241e-08
0.00314771
-0.00210096
0.00278774
-0.00291719
0.00253095
-0.00273091
0.00230833
-0.00211878
0.00211531
-0.00170164
0.00198099