/*--------------------------------*- C++ -*----------------------------------*\
| =========                 |                                                 |
| \\      /  F ield         | OpenFOAM: The Open Source CFD Toolbox           |
|  \\    /   O peration     | Version:  2.4.0                                 |
|   \\  /    A nd           | Web:      www.OpenFOAM.org                      |
|    \\/     M anipulation  |                                                 |
\*---------------------------------------------------------------------------*/
FoamFile
{
    version     2.0;
    format      ascii;
    class       volScalarField;
    location    "0.67";
    object      k;
}
// * * * * * * * * * * * * * * * * * * * * * * * * * * * * * * * * * * * * * //

dimensions      [0 2 -2 0 0 0 0];

internalField   nonuniform List<scalar> 
8800
(
8.2939
10.191
9.00689
6.49215
6.05784
4.59647
4.97502
3.78763
4.513
3.31178
4.22807
3.04912
4.02559
2.84073
3.99902
2.63411
4.12095
2.4759
4.20304
2.52102
1.49785
4.2586
5.4951
5.1168
5.33192
4.5714
4.93121
4.05658
4.60728
3.69847
4.33148
3.47653
4.11598
3.28171
4.0567
3.09795
4.15565
3.01288
4.33718
3.32177
0.0893704
0.665316
1.71176
1.87575
2.45173
2.36675
2.77014
2.493
2.89383
2.52862
2.89596
2.51929
2.8859
2.47286
2.87787
2.42415
2.93304
2.40278
3.04439
2.63569
0.0038517
0.0727789
0.30237
0.411072
0.684911
0.734433
0.972025
0.976796
1.14059
1.12786
1.25777
1.22009
1.38722
1.31348
1.43669
1.38367
1.49042
1.4152
1.48977
1.47385
0.000378224
0.00790684
0.0319466
0.0602225
0.101588
0.149376
0.173006
0.241342
0.253415
0.320731
0.327783
0.360645
0.384405
0.449315
0.440522
0.516265
0.489644
0.599154
0.537771
0.64605
3.04968e-05
0.000585027
0.00402704
0.00752708
0.0152895
0.0271504
0.0366245
0.0560798
0.0696214
0.0979987
0.109292
0.127668
0.142677
0.168672
0.186135
0.228658
0.249071
0.31789
0.33809
0.389703
0.00167561
0.0109314
0.0355319
0.0494315
0.0866683
0.0922751
0.114014
0.108316
0.118412
0.117651
0.134952
0.136593
0.158858
0.16072
0.190381
0.193344
0.224133
0.235684
0.237792
0.254926
0.00220639
0.0122601
0.0387865
0.0515173
0.0866681
0.0981621
0.115812
0.114694
0.106428
0.104689
0.109082
0.112487
0.132501
0.134655
0.151718
0.153663
0.154127
0.166821
0.14983
0.156129
0.000118744
0.00124768
0.00292446
0.00640203
0.0113612
0.0187529
0.0222599
0.0501068
0.0399224
0.0499349
0.046573
0.0504964
0.0545679
0.0753709
0.0746303
0.0921492
0.0812954
0.103554
0.0898529
0.11109
0.000209728
0.000358678
0.00154875
0.00158965
0.00243814
0.0034247
0.0034704
0.00731809
0.00900831
0.0182814
0.0171277
0.0189957
0.0189512
0.0263472
0.0247093
0.0336216
0.0314568
0.0518736
0.045532
0.0601487
0.000435484
0.00266728
0.00852686
0.0118351
0.0233374
0.0246877
0.0316086
0.0302694
0.0296903
0.0286514
0.0280162
0.0258099
0.0326032
0.0304243
0.0414512
0.0385357
0.0433961
0.0446267
0.0472368
0.0478837
0.000104745
0.00135428
0.00165903
0.00385295
0.0048524
0.00738055
0.00911933
0.0149423
0.014667
0.019739
0.0191654
0.0216148
0.0235681
0.03059
0.0360247
0.0509648
0.0529473
0.0649546
0.0636814
0.0671559
2.22986e-05
5.4925e-05
0.00010706
0.000227752
0.000308755
0.000436389
0.000578418
0.00108359
0.00152579
0.00378939
0.00386927
0.00562513
0.00585085
0.00879343
0.00865513
0.0118268
0.0120725
0.0167953
0.0163901
0.017788
2.08921e-05
4.17891e-05
0.000413717
0.000504056
0.00104406
0.00128663
0.00164673
0.00216847
0.00425195
0.00416002
0.00717912
0.00777931
0.0100001
0.0130085
0.0135658
0.0168653
0.0180342
0.0207993
0.0242763
0.0378561
2.67818e-05
0.000258796
0.0035967
0.00515461
0.0107465
0.0142844
0.0180723
0.027721
0.0397102
0.0401634
0.060923
0.0653294
0.073854
0.0958528
0.100094
0.114575
0.121153
0.14299
0.159451
0.204772
0.000138488
0.00442628
0.034936
0.0523963
0.0971447
0.127023
0.151732
0.213243
0.25288
0.263631
0.341187
0.358838
0.381261
0.446692
0.46179
0.503182
0.519978
0.586121
0.625643
0.709391
0.00349943
0.0665597
0.284637
0.390894
0.600182
0.698317
0.811305
0.947047
1.01412
1.05455
1.20208
1.21381
1.24021
1.32425
1.33715
1.36803
1.38804
1.46038
1.50201
1.52219
0.0843571
0.719804
1.56132
1.91685
2.28211
2.42079
2.57416
2.58883
2.61227
2.59258
2.58791
2.53848
2.51859
2.48238
2.46553
2.40644
2.40076
2.39125
2.37944
2.33089
1.37901
4.36265
5.25309
5.27976
5.1068
4.79357
4.58121
4.25033
4.10936
3.90941
3.71097
3.63463
3.50608
3.34523
3.33284
3.19032
3.1606
3.04132
3.00651
2.8916
8.03554
10.2514
8.7028
6.87255
5.63207
4.96047
4.49817
4.12277
3.9077
3.68849
3.49793
3.39874
3.28462
3.11862
3.08695
2.92156
2.89564
2.69919
2.64496
2.42
1.47873
0.951029
0.8988
0.780602
0.837242
0.800866
0.857014
0.81208
0.847022
0.783881
0.801764
0.732459
0.739721
0.667676
0.668236
0.596763
0.597682
0.53065
0.531269
0.463733
0.4634
0.403908
0.411586
0.366718
0.388104
0.35859
0.391992
0.373305
0.4144
0.40163
0.445685
0.434829
0.477933
0.466243
0.506693
0.492376
0.529112
0.510364
0.539672
0.518234
0.542762
0.51939
0.538567
0.51441
0.529328
0.504791
0.513618
0.490659
0.492829
0.475187
0.470497
0.454042
0.448108
0.432415
0.427376
0.417839
0.41824
0.415988
0.422575
0.432878
0.474091
0.48789
0.513043
0.500297
0.475132
0.339148
0.280033
0.238896
0.247097
0.247531
0.267994
0.271131
0.281248
0.290006
0.290213
0.294182
0.293011
0.293517
0.293114
0.292454
0.288833
0.278895
0.264618
0.23078
0.201715
0.17583
0.163338
0.15558
0.154108
0.152134
0.150892
0.147623
0.142885
0.133876
0.113326
0.0862715
0.0598539
0.0395757
0.0262112
0.0181853
0.0144825
0.0123429
0.0108997
0.00997623
0.00903424
0.00778629
0.00700884
0.00650835
0.00642607
0.00664555
0.00745255
0.00957558
0.0142714
0.0264364
0.0591779
0.147792
0.183119
0.183362
0.177857
0.164188
0.160899
0.159152
0.155225
0.143643
0.130537
0.124208
0.120132
0.118874
0.118573
0.115923
0.110234
0.1075
0.107329
0.108976
0.115011
0.116605
0.116602
0.116293
0.116082
0.112483
0.0942912
0.0734037
0.0595151
0.0538733
0.0523288
0.0521638
0.0549546
0.0614404
0.0638778
0.0643023
0.0643286
0.0639728
0.0618198
0.0521342
0.044383
0.040755
0.0389747
0.0388692
0.040997
0.0438418
0.0454171
0.048587
0.0589953
0.0646323
0.0649048
0.0636816
0.0634521
0.060631
0.0550431
0.0546069
0.0622118
0.149214
0.251987
0.262966
0.219667
0.120542
0.0754498
0.0567387
0.0467533
0.0468772
0.0508813
0.0582556
0.080197
0.0717598
0.080841
0.080046
0.0803821
0.0936172
0.0923162
0.0972278
0.109502
0.108013
0.121441
0.130616
0.198339
0.220433
0.269433
0.250018
0.267167
0.6636
2.56532
1.98418
1.82189
1.48012
1.40838
1.23006
1.19851
1.08713
1.07085
0.991853
0.98459
0.925514
0.923386
0.87714
0.877184
0.83564
0.836749
0.797439
0.799686
0.758157
0.757141
0.705625
0.700831
0.648863
0.650068
0.610885
0.620592
0.592425
0.607566
0.586906
0.601713
0.584677
0.595272
0.57962
0.584262
0.569087
0.569327
0.556854
0.554783
0.545824
0.54253
0.538177
0.53038
0.529902
0.51893
0.518422
0.505346
0.504113
0.484399
0.480958
0.457248
0.450959
0.42397
0.418161
0.396295
0.391771
0.37407
0.36498
0.338695
0.322999
0.318538
0.324661
0.339633
0.408083
0.465442
0.472531
0.456029
0.368311
0.287898
0.260137
0.249523
0.254456
0.255709
0.27053
0.273134
0.280317
0.277747
0.277463
0.273215
0.266291
0.248308
0.222106
0.190864
0.170381
0.156547
0.150176
0.148037
0.147222
0.147079
0.14638
0.144455
0.139947
0.13037
0.109702
0.077494
0.0498659
0.0305847
0.0206194
0.0154716
0.0127384
0.011814
0.0110936
0.0102358
0.00965426
0.00858673
0.00760703
0.00709777
0.00705276
0.00726569
0.00827015
0.0106818
0.0152832
0.0246869
0.0510538
0.131629
0.190605
0.194235
0.184322
0.165236
0.161651
0.16311
0.161617
0.15465
0.136805
0.121041
0.114721
0.112334
0.112008
0.112526
0.11258
0.108273
0.105025
0.104408
0.104561
0.106776
0.11082
0.113232
0.115242
0.115946
0.115586
0.108689
0.0902149
0.0721279
0.0605212
0.0555906
0.054617
0.0564235
0.0607987
0.0627612
0.0638934
0.0663996
0.0683151
0.0674581
0.0564846
0.0450953
0.0400769
0.0377405
0.0373787
0.0406084
0.0459035
0.0482859
0.0521489
0.0606299
0.0657692
0.0673538
0.0673154
0.0686942
0.0679107
0.0603343
0.0572723
0.0613072
0.119756
0.229165
0.251038
0.231709
0.148954
0.0866314
0.0620556
0.0545507
0.0609392
0.0729572
0.0713014
0.0870484
0.0819388
0.0836827
0.0822513
0.0784209
0.0802924
0.0815254
0.0847338
0.0947485
0.0979919
0.157182
0.176314
0.231428
0.227157
0.257146
0.277401
0.31687
0.398345
2.19996
1.87276
1.76359
1.53506
1.45284
1.28209
1.22355
1.09925
1.05587
0.961607
0.929544
0.859649
0.838996
0.792446
0.781886
0.753884
0.751323
0.739044
0.743193
0.735083
0.739355
0.728518
0.728281
0.710528
0.701777
0.677842
0.662265
0.649786
0.625089
0.619517
0.59855
0.596003
0.570974
0.568248
0.540588
0.53792
0.506619
0.504452
0.47543
0.474188
0.444327
0.442632
0.41254
0.409043
0.376788
0.37192
0.344763
0.342063
0.32116
0.317272
0.298796
0.29477
0.2786
0.275525
0.263041
0.262393
0.253769
0.255493
0.249887
0.255989
0.250916
0.256685
0.251401
0.260247
0.267786
0.331203
0.37107
0.390398
0.370538
0.35073
0.29056
0.273633
0.246736
0.242755
0.232329
0.229578
0.221225
0.215235
0.201652
0.190602
0.175671
0.164032
0.151442
0.149256
0.14748
0.147308
0.147805
0.147459
0.146063
0.142902
0.13517
0.120923
0.0913533
0.0569101
0.0349549
0.0228104
0.0160249
0.0130687
0.0115175
0.0109389
0.0109513
0.0107045
0.0101193
0.00957384
0.00847089
0.00822631
0.00831236
0.00860757
0.0096827
0.0129777
0.0177158
0.0250422
0.042909
0.108151
0.197184
0.212861
0.200313
0.166281
0.160587
0.165559
0.168516
0.163014
0.14614
0.122006
0.113694
0.109812
0.107834
0.10787
0.109684
0.11205
0.111852
0.108392
0.105854
0.105627
0.107465
0.110319
0.112182
0.113465
0.115477
0.115736
0.111968
0.096777
0.0788629
0.0683228
0.0615333
0.0585532
0.0589948
0.0612901
0.063472
0.0661857
0.0691938
0.0700307
0.0667749
0.052148
0.041208
0.0373606
0.0369119
0.037867
0.0429426
0.0464795
0.0489672
0.0563262
0.0704383
0.076244
0.0764625
0.0730984
0.0723751
0.071814
0.0648266
0.0598318
0.0621945
0.102164
0.206286
0.240352
0.23175
0.172706
0.099639
0.0827506
0.0750724
0.0702502
0.0776394
0.0737446
0.0752033
0.077461
0.0728179
0.0740539
0.0700533
0.0694494
0.0722931
0.0757981
0.0850521
0.0967668
0.191977
0.20033
0.200561
0.283246
0.305211
0.393324
0.37277
0.394739
1.35135
1.25412
1.12453
1.07471
0.971336
0.924641
0.828572
0.788549
0.705317
0.672432
0.604195
0.581277
0.533486
0.521151
0.492974
0.487909
0.47232
0.474144
0.47072
0.482496
0.484557
0.507856
0.512189
0.53504
0.528648
0.54144
0.522415
0.526268
0.495773
0.488937
0.443649
0.432151
0.385116
0.373143
0.330994
0.322319
0.290567
0.287864
0.270649
0.273003
0.261413
0.266908
0.257345
0.260919
0.248696
0.243078
0.214683
0.201275
0.167482
0.153496
0.129622
0.122448
0.109445
0.105841
0.0978353
0.097555
0.095577
0.0986042
0.0999772
0.110294
0.114337
0.125727
0.129115
0.140955
0.145375
0.161679
0.180427
0.245012
0.293207
0.31604
0.309728
0.303203
0.281927
0.268129
0.250038
0.232856
0.222786
0.207367
0.197762
0.184092
0.174492
0.169518
0.167332
0.16428
0.160902
0.158248
0.153537
0.146448
0.134978
0.119046
0.0920085
0.0585851
0.0366262
0.0230612
0.0162892
0.0125685
0.010812
0.0104423
0.0103032
0.0105498
0.0108561
0.0107183
0.0108638
0.0104867
0.0102942
0.0105659
0.01096
0.0119388
0.015037
0.0208909
0.0264039
0.0383194
0.0748764
0.188641
0.229897
0.220589
0.175879
0.158213
0.16021
0.1712
0.16967
0.155832
0.129083
0.113491
0.110511
0.107775
0.107022
0.107541
0.112043
0.114592
0.115896
0.117345
0.116586
0.112355
0.112256
0.113169
0.113959
0.11418
0.11489
0.114304
0.110083
0.101716
0.0907193
0.0784721
0.0674871
0.064667
0.0645674
0.0643856
0.0649013
0.0671408
0.0700962
0.0699494
0.0618939
0.0475242
0.0395888
0.0374103
0.0379575
0.04297
0.0489097
0.0527625
0.0555686
0.0601045
0.0720215
0.0812137
0.0828368
0.081959
0.0763653
0.0729637
0.0651693
0.0611081
0.0623974
0.0995253
0.188709
0.225146
0.225896
0.189478
0.127098
0.0945217
0.0812852
0.0705923
0.0687251
0.0687974
0.0664677
0.0683779
0.0650361
0.0644719
0.060439
0.060063
0.0610945
0.0663908
0.0906309
0.11904
0.164528
0.192378
0.260847
0.374873
0.294054
0.257634
0.180299
0.18974
0.610988
0.587996
0.537036
0.520811
0.480674
0.463585
0.421698
0.403654
0.362022
0.345142
0.308144
0.295147
0.266867
0.258982
0.240867
0.237271
0.226768
0.227992
0.22468
0.231576
0.231398
0.242461
0.244702
0.261279
0.262366
0.273754
0.269418
0.275117
0.265993
0.265415
0.247778
0.237504
0.205552
0.191653
0.160606
0.14997
0.128859
0.122352
0.111517
0.110385
0.108359
0.110539
0.110545
0.115162
0.116861
0.12235
0.123004
0.123527
0.113106
0.0976851
0.0812934
0.0694211
0.0588476
0.0514658
0.0447479
0.0406925
0.0374211
0.0367211
0.036722
0.0389043
0.0431861
0.054985
0.0641436
0.0731224
0.077176
0.0816461
0.0865609
0.0960562
0.116157
0.151414
0.203814
0.236882
0.24762
0.247209
0.244264
0.234765
0.229896
0.219091
0.213919
0.202798
0.19627
0.184528
0.17658
0.162862
0.153592
0.140633
0.11961
0.0994219
0.0715113
0.0478071
0.0310095
0.0207333
0.0146675
0.0113133
0.0100237
0.0094665
0.00954368
0.00991529
0.0101525
0.0111374
0.0116957
0.0121561
0.0134267
0.013741
0.0144016
0.0152231
0.0158765
0.0179053
0.024453
0.0290635
0.035998
0.0569467
0.149266
0.240426
0.242917
0.201963
0.158743
0.154394
0.165659
0.17288
0.16636
0.144993
0.120133
0.110496
0.108511
0.10611
0.106696
0.107423
0.112023
0.113835
0.114398
0.1151
0.1171
0.124429
0.128008
0.125557
0.120716
0.1181
0.116618
0.11409
0.109678
0.105617
0.0983372
0.0861766
0.0789298
0.0724662
0.069213
0.0674255
0.0675263
0.0697215
0.0727641
0.071897
0.0622137
0.0476404
0.0397753
0.0377826
0.0385816
0.04483
0.0589173
0.0684807
0.0713488
0.0711305
0.0719698
0.0799828
0.0867153
0.0865038
0.0802056
0.0729448
0.0645272
0.0618426
0.0627304
0.0986172
0.190438
0.216384
0.226572
0.209024
0.154154
0.111503
0.0890174
0.0712969
0.0702217
0.068235
0.0664408
0.0622823
0.0608966
0.0609239
0.060752
0.0624908
0.0709924
0.079886
0.127419
0.140174
0.14806
0.246714
0.288267
0.25816
0.141776
0.108483
0.0986005
0.113713
0.373316
0.360708
0.333529
0.322762
0.300166
0.285744
0.26493
0.247625
0.230484
0.213992
0.20039
0.187103
0.175964
0.166484
0.157908
0.151375
0.145029
0.141452
0.1351
0.133521
0.131664
0.132755
0.133018
0.136197
0.137328
0.141544
0.141359
0.142476
0.141058
0.14082
0.139254
0.135497
0.123424
0.11159
0.0988932
0.0886292
0.0787536
0.0711808
0.0644699
0.0604407
0.0577395
0.0572086
0.0571126
0.0596255
0.0670806
0.0749865
0.0810218
0.0839336
0.0841924
0.0780656
0.0661531
0.0540534
0.044277
0.0355256
0.0288282
0.022981
0.0187738
0.0157503
0.0143832
0.0139199
0.0159043
0.0243034
0.035343
0.0444766
0.050656
0.051865
0.0516949
0.0520004
0.0537967
0.0583181
0.0688152
0.0876421
0.11348
0.132775
0.15086
0.162302
0.163155
0.161767
0.156251
0.149399
0.13879
0.125903
0.109633
0.094049
0.0767452
0.0580146
0.043266
0.0313732
0.0222638
0.016129
0.0119054
0.00994123
0.00881289
0.00872036
0.00883048
0.00917407
0.0103772
0.0113073
0.0126032
0.0148515
0.0156104
0.017467
0.0191285
0.019518
0.0207238
0.02141
0.0229703
0.028201
0.0340345
0.0379075
0.0483484
0.0927257
0.231232
0.274428
0.25329
0.173819
0.150082
0.150001
0.166689
0.16861
0.161579
0.13866
0.116193
0.109727
0.106223
0.104488
0.104931
0.106413
0.109141
0.1061
0.10619
0.106785
0.11206
0.123465
0.133841
0.135274
0.134298
0.129555
0.121284
0.116703
0.115437
0.11607
0.111068
0.0939138
0.084817
0.07811
0.0783109
0.0761915
0.07527
0.0769582
0.0805497
0.0786079
0.0642542
0.0490737
0.0431119
0.0430256
0.053799
0.0756874
0.0836269
0.0847437
0.0830417
0.0760567
0.0745059
0.0751292
0.0793478
0.0792824
0.0767657
0.0735473
0.0657185
0.0636377
0.065584
0.0919115
0.197799
0.222717
0.234909
0.215316
0.166509
0.116918
0.0989072
0.0739846
0.0750191
0.0704699
0.0701429
0.0635415
0.0633014
0.0689844
0.068769
0.0726508
0.0806424
0.10395
0.1176
0.152353
0.244915
0.28872
0.249054
0.143853
0.0929907
0.0804113
0.0816664
0.104637
0.247711
0.241526
0.229599
0.222506
0.213298
0.204233
0.195148
0.183917
0.175622
0.164172
0.15616
0.145796
0.138052
0.129546
0.123422
0.116515
0.112029
0.107564
0.103354
0.0998993
0.0970088
0.0954837
0.0949721
0.0949985
0.095256
0.0959148
0.0965626
0.0974056
0.099864
0.101967
0.103628
0.103712
0.0988005
0.0869488
0.0752257
0.0655932
0.0571059
0.0499914
0.0435779
0.0382323
0.0346316
0.0330133
0.0330555
0.0382679
0.049384
0.0593328
0.0662066
0.0692466
0.0697014
0.0653908
0.0564602
0.0456041
0.0371373
0.0284804
0.0224364
0.0168922
0.0130453
0.00984791
0.0079189
0.00689589
0.00738089
0.0142351
0.025429
0.0341943
0.0395447
0.0410914
0.0394054
0.0339851
0.0310129
0.0305924
0.0310355
0.0327161
0.0367086
0.0440471
0.04959
0.0577189
0.0614648
0.0613474
0.0595408
0.0562819
0.0500365
0.0442676
0.0374355
0.0313281
0.0253324
0.0197777
0.0153018
0.0116876
0.00951879
0.00824086
0.00790685
0.0079524
0.0082743
0.00947523
0.010851
0.0135685
0.0173178
0.0190063
0.0227405
0.0253186
0.0268191
0.0292356
0.0290547
0.0292312
0.0303297
0.0316353
0.0348894
0.0395566
0.041709
0.046087
0.0649002
0.168997
0.288483
0.294239
0.229144
0.158026
0.141168
0.144139
0.161469
0.163887
0.159199
0.135699
0.115216
0.107898
0.103738
0.104573
0.103349
0.106095
0.110923
0.106975
0.104178
0.104696
0.109843
0.122502
0.132773
0.134967
0.133452
0.13239
0.127213
0.124701
0.121206
0.119628
0.117935
0.105821
0.0979905
0.0952923
0.0897662
0.0816217
0.0810457
0.0870943
0.0881308
0.0832091
0.0655905
0.0574602
0.0582027
0.0762029
0.0974115
0.104307
0.104265
0.0991522
0.0873244
0.0795564
0.0761129
0.0751433
0.0765307
0.0768596
0.0738078
0.0718977
0.0676721
0.0656755
0.0719688
0.0952967
0.206111
0.224483
0.244854
0.225402
0.193826
0.127808
0.114218
0.0830825
0.0858954
0.0785143
0.0744444
0.0691327
0.0668695
0.0706618
0.0679942
0.0744649
0.0828792
0.0969385
0.103858
0.157459
0.195218
0.201946
0.155711
0.0999887
0.076161
0.0728746
0.0773245
0.141801
0.151318
0.147269
0.140711
0.138458
0.134562
0.132988
0.129591
0.128033
0.124517
0.122892
0.118324
0.115997
0.109921
0.107268
0.100607
0.0975544
0.0907326
0.0867896
0.079118
0.075098
0.0703157
0.0682851
0.0667461
0.0663767
0.0662005
0.0663432
0.0683141
0.0713183
0.0742043
0.07583
0.0764272
0.0753165
0.0688964
0.0603279
0.0538908
0.0470222
0.0419036
0.0357196
0.0309845
0.0261508
0.0233582
0.0220593
0.02308
0.0301586
0.0395593
0.0468468
0.0521303
0.0544655
0.0548639
0.0506683
0.0421214
0.0333696
0.0265083
0.0209027
0.0167894
0.0135286
0.0108407
0.00851824
0.00680475
0.00614459
0.00664207
0.0116649
0.0181808
0.0233866
0.0265599
0.0276299
0.026758
0.023705
0.0200326
0.0178168
0.0161829
0.0156151
0.0155602
0.0155653
0.0160211
0.0162951
0.0170355
0.017281
0.0171451
0.0167184
0.0157494
0.0144902
0.012776
0.011081
0.00923721
0.00786621
0.00682813
0.00671956
0.00681117
0.00718678
0.00825707
0.00994437
0.013234
0.0195014
0.0235093
0.0313373
0.0361871
0.0403357
0.0452274
0.0457005
0.0458753
0.0456973
0.0441913
0.0443056
0.0452768
0.0450373
0.0448294
0.0454307
0.0469848
0.0556324
0.0954328
0.257391
0.331731
0.308768
0.205639
0.153133
0.137188
0.137395
0.151935
0.163706
0.158917
0.134835
0.116896
0.107308
0.103497
0.104313
0.0992293
0.102875
0.106733
0.105142
0.104607
0.105151
0.108925
0.118334
0.121895
0.129188
0.129501
0.132575
0.12632
0.123719
0.128126
0.126093
0.12663
0.115466
0.109428
0.104656
0.0914514
0.0904886
0.0968205
0.102405
0.0970481
0.0804847
0.0684331
0.0689796
0.0851563
0.0979404
0.0995025
0.0981953
0.0961441
0.0896882
0.0805105
0.0794165
0.0794209
0.0797401
0.0783813
0.0747311
0.0701066
0.0697769
0.070577
0.0701355
0.0854479
0.107122
0.204333
0.217864
0.241994
0.229177
0.210202
0.147684
0.132465
0.0922794
0.0902715
0.0863558
0.08292
0.0799118
0.0725034
0.0665732
0.064724
0.0720903
0.0778549
0.0843227
0.109022
0.151149
0.1519
0.129713
0.102277
0.0807967
0.0702339
0.0689834
0.0846796
0.192377
0.107199
0.104478
0.0984186
0.0969763
0.0939629
0.0936515
0.0927324
0.0928231
0.0920396
0.0921874
0.0909854
0.0902494
0.0868293
0.0847214
0.0791419
0.0761276
0.0700657
0.0656906
0.0599209
0.0558559
0.0528268
0.0508882
0.0497856
0.0491199
0.0489213
0.0491205
0.0512194
0.0533595
0.0560131
0.0576501
0.0591792
0.0595464
0.0594334
0.0550683
0.0494162
0.0415209
0.0354546
0.0289639
0.0244709
0.0206997
0.0188213
0.0180076
0.0195145
0.0272013
0.0367341
0.043712
0.0485198
0.0501434
0.0494219
0.0425912
0.0338603
0.0267349
0.0211009
0.0174076
0.0144527
0.0123073
0.0103858
0.00902829
0.0078536
0.00721915
0.0070551
0.00807654
0.0108346
0.0136013
0.0153411
0.0160701
0.0158409
0.0141513
0.0117575
0.0101876
0.00861583
0.00776982
0.00698063
0.00650541
0.00607173
0.00567212
0.00515121
0.00464234
0.0045619
0.00460922
0.00469863
0.00469974
0.00467241
0.00469806
0.00481188
0.005046
0.00549309
0.0064762
0.00820855
0.0118552
0.0187563
0.0253188
0.0391169
0.0498486
0.0621875
0.07141
0.0772857
0.0801298
0.0796768
0.0767097
0.0741626
0.0699939
0.0643848
0.0622979
0.0592715
0.0530939
0.0528411
0.0534562
0.055876
0.0691513
0.148455
0.332889
0.363752
0.305982
0.198566
0.154782
0.133876
0.135333
0.147991
0.167703
0.159712
0.136495
0.122563
0.109923
0.107115
0.105069
0.0995167
0.102513
0.0998941
0.106309
0.104524
0.11071
0.107967
0.108706
0.103192
0.109579
0.11341
0.121012
0.122375
0.123306
0.132758
0.129397
0.126074
0.125431
0.115015
0.111459
0.100268
0.10672
0.106232
0.102744
0.0846621
0.075338
0.0751219
0.0888153
0.109314
0.115168
0.113442
0.107326
0.09934
0.0887019
0.0793051
0.0785634
0.0776665
0.0786835
0.0764099
0.0738182
0.0701894
0.0701041
0.0786823
0.0830888
0.118203
0.133993
0.217875
0.218773
0.227649
0.225302
0.212757
0.168183
0.141671
0.103612
0.0982835
0.0953762
0.0918622
0.0818828
0.0716249
0.069681
0.0712382
0.0830168
0.0885934
0.101151
0.131558
0.143325
0.126768
0.100466
0.0861665
0.0732678
0.0674834
0.0690627
0.111777
0.245945
0.0614249
0.0614453
0.0617833
0.0622682
0.0629535
0.0628304
0.0624948
0.0609927
0.0597359
0.0569238
0.0550035
0.0511698
0.0494007
0.0457506
0.0442708
0.0411093
0.0397996
0.0369199
0.0358676
0.0335122
0.0328193
0.0313266
0.0310533
0.0304632
0.0306438
0.0313151
0.0354488
0.038608
0.0432293
0.0452977
0.0471579
0.0472869
0.0459175
0.0394241
0.0332457
0.0277132
0.0236726
0.0206887
0.0185132
0.0169284
0.0158311
0.0152413
0.0151481
0.0172077
0.0223769
0.0263611
0.0280324
0.0282051
0.0263331
0.0231755
0.0202135
0.0182879
0.0164689
0.0150373
0.0134241
0.0120619
0.0104759
0.0093723
0.00834824
0.00788822
0.00767469
0.00777423
0.00838868
0.00938211
0.00995148
0.0100509
0.00969408
0.00810887
0.00681528
0.00555931
0.00469527
0.00397953
0.003461
0.0031593
0.00282992
0.00273184
0.00261981
0.00257315
0.00255889
0.00257674
0.00277859
0.00310722
0.00339529
0.00400816
0.00475033
0.00631016
0.00906391
0.0153202
0.0227665
0.0392266
0.0565989
0.080345
0.10398
0.123144
0.140996
0.147895
0.147176
0.144142
0.136485
0.123106
0.11658
0.102159
0.091521
0.0858083
0.0712712
0.0641928
0.0640396
0.0638076
0.0681692
0.0940319
0.254541
0.387852
0.382152
0.29772
0.203465
0.162065
0.138913
0.135605
0.14068
0.166229
0.152414
0.143305
0.132553
0.114171
0.109726
0.109399
0.109679
0.107227
0.104578
0.11019
0.107574
0.11228
0.10226
0.0988025
0.0927447
0.0951279
0.102179
0.108305
0.123542
0.121859
0.131111
0.133802
0.126433
0.12825
0.115629
0.112686
0.107898
0.107128
0.101309
0.0789266
0.0692012
0.0690106
0.0877604
0.114633
0.121051
0.119784
0.114981
0.108421
0.102984
0.0951105
0.0799219
0.0773622
0.0755499
0.0776582
0.0736618
0.0755866
0.0716789
0.073891
0.0840282
0.0941361
0.129379
0.147599
0.213326
0.221275
0.219878
0.223657
0.211257
0.18426
0.16366
0.115854
0.108743
0.105697
0.0979204
0.0860864
0.0752461
0.0751693
0.0897984
0.129486
0.143874
0.143957
0.144439
0.130333
0.098818
0.0826417
0.0771169
0.0694285
0.066418
0.0779934
0.176714
0.29953
0.047547
0.0468581
0.0470106
0.0466894
0.0469802
0.0464952
0.0464173
0.0454781
0.0449993
0.0436961
0.0430331
0.0415458
0.0407801
0.0393744
0.0385829
0.0370846
0.0361439
0.0344016
0.033393
0.0315582
0.0300512
0.0280644
0.0267863
0.0258366
0.0256765
0.0256411
0.0261375
0.0272291
0.0286401
0.029123
0.0290829
0.0272995
0.0245517
0.0224756
0.0207775
0.0199987
0.0193079
0.0185825
0.0174406
0.016126
0.0149982
0.014357
0.0142493
0.0146393
0.0153208
0.0157182
0.0159273
0.0160222
0.0160894
0.0161034
0.0159302
0.0154222
0.0150577
0.0147879
0.014309
0.0133878
0.0119416
0.0102381
0.00875646
0.00744667
0.00682897
0.00628134
0.00608133
0.00583864
0.00548554
0.00505673
0.00450288
0.00401078
0.00358322
0.00322293
0.00302273
0.00281486
0.00276655
0.00276615
0.00279214
0.00289023
0.00295445
0.00310784
0.00328835
0.00352233
0.00400123
0.00460907
0.005735
0.00803233
0.0117386
0.0196397
0.031617
0.0512081
0.0803462
0.118781
0.161503
0.202715
0.237584
0.264884
0.275498
0.273894
0.264539
0.250359
0.218461
0.193553
0.17387
0.140801
0.121705
0.104263
0.087107
0.0833459
0.0778989
0.0739605
0.0799557
0.143755
0.35615
0.415696
0.382102
0.317094
0.252841
0.205029
0.165564
0.134881
0.138935
0.157618
0.152137
0.163022
0.143212
0.119844
0.114282
0.112864
0.11395
0.113768
0.112501
0.112371
0.110746
0.110443
0.0991915
0.098301
0.0915917
0.0948425
0.1015
0.105398
0.12461
0.121272
0.128279
0.140138
0.126066
0.126529
0.114965
0.11084
0.107518
0.0938278
0.078858
0.0711363
0.0751939
0.0926531
0.118204
0.121824
0.123118
0.118842
0.113627
0.10336
0.0910157
0.0772148
0.0733898
0.0730567
0.0696537
0.0724666
0.0702043
0.0714917
0.0685107
0.0728225
0.0817584
0.0928587
0.135181
0.148694
0.193966
0.215154
0.224083
0.214201
0.211524
0.189311
0.175623
0.123381
0.121475
0.116495
0.113583
0.116565
0.110102
0.101987
0.102586
0.125336
0.137701
0.135298
0.12263
0.0934895
0.0767631
0.0717652
0.0709547
0.067747
0.0688129
0.119977
0.252849
0.351166
0.0658967
0.0654465
0.0641344
0.0636455
0.0622958
0.0619248
0.0610254
0.060659
0.0593347
0.0583881
0.0558726
0.0543519
0.0509568
0.0487568
0.0452456
0.0427471
0.03937
0.036973
0.0340904
0.0321174
0.0299056
0.0281212
0.0262144
0.0247323
0.0234725
0.022749
0.0223442
0.0221325
0.0219351
0.0216524
0.0207786
0.0196459
0.0188189
0.0186302
0.0187474
0.0189995
0.0191097
0.0189136
0.0178678
0.0162265
0.0143297
0.0127756
0.0118473
0.0116806
0.0122284
0.013462
0.0142441
0.0144442
0.0142172
0.0137439
0.0136217
0.0136249
0.0136599
0.0140182
0.0147724
0.015297
0.0153904
0.0141985
0.0113626
0.00891631
0.00714921
0.0059386
0.00522126
0.00468851
0.00428604
0.00391249
0.00360984
0.00338465
0.00327922
0.00324246
0.00336569
0.00354899
0.00396656
0.00442349
0.0051563
0.00572709
0.00614876
0.00689468
0.00743545
0.00852994
0.0100851
0.0126609
0.0180932
0.0262134
0.0426103
0.069437
0.10624
0.164621
0.226314
0.305775
0.373067
0.423118
0.4574
0.464985
0.460636
0.445949
0.421019
0.385913
0.325804
0.289526
0.237684
0.19135
0.169077
0.138477
0.117593
0.106064
0.0902957
0.0854928
0.093272
0.181034
0.400398
0.433903
0.419273
0.387156
0.333558
0.282976
0.217783
0.149588
0.143799
0.147811
0.154924
0.166987
0.147635
0.13457
0.126277
0.118204
0.117541
0.117871
0.117783
0.115414
0.109728
0.110654
0.101469
0.0978167
0.0933127
0.0988458
0.10413
0.106019
0.126668
0.125299
0.121881
0.141912
0.125349
0.118935
0.113164
0.106412
0.0946494
0.0737966
0.0714281
0.0755018
0.101695
0.117007
0.127997
0.126191
0.121074
0.104792
0.0966757
0.0881112
0.0862301
0.0781507
0.0718639
0.0643395
0.0652102
0.0663606
0.0664844
0.064714
0.067979
0.0736434
0.0959892
0.0966572
0.13315
0.150728
0.179496
0.211798
0.231637
0.210187
0.227883
0.194545
0.183043
0.135947
0.149289
0.150955
0.147937
0.146321
0.130603
0.108822
0.0893504
0.0911205
0.0909761
0.0878704
0.0826335
0.072747
0.0668652
0.0675146
0.0685106
0.0678336
0.0859957
0.20793
0.337622
0.401718
0.0187141
0.0194682
0.0202458
0.0209158
0.0209199
0.0209594
0.0207533
0.0205595
0.0198863
0.0194667
0.0186917
0.0182991
0.01778
0.0174565
0.0169242
0.0164642
0.0160036
0.0155421
0.0148921
0.0140161
0.013043
0.0123152
0.0118857
0.0116657
0.0116056
0.0116295
0.0117009
0.0117205
0.0115227
0.0113345
0.0113354
0.0113884
0.0116455
0.0135443
0.0171513
0.0208884
0.024141
0.0264433
0.0275749
0.027724
0.0255968
0.0210921
0.016969
0.0138423
0.0119468
0.0108805
0.010452
0.0103262
0.010286
0.0105318
0.0134033
0.0183556
0.0231251
0.0267516
0.0290185
0.0299438
0.0298567
0.0269812
0.0214737
0.016504
0.0125111
0.00957477
0.00751733
0.00613409
0.00517684
0.00458735
0.00435924
0.00440776
0.00498648
0.00619438
0.00705148
0.00784932
0.00945385
0.0104866
0.0124084
0.0134427
0.0150285
0.0167464
0.0188
0.0230005
0.0287422
0.0412353
0.0579061
0.0905982
0.141061
0.213125
0.311287
0.416396
0.50135
0.551293
0.575951
0.576533
0.573138
0.558047
0.534536
0.508209
0.479981
0.444713
0.400783
0.355404
0.294861
0.25679
0.217853
0.177116
0.150722
0.127261
0.108122
0.107756
0.129811
0.272918
0.414855
0.435427
0.458608
0.485833
0.461209
0.406086
0.30523
0.195138
0.157525
0.142514
0.15467
0.165011
0.150923
0.158106
0.154153
0.134845
0.127118
0.123844
0.124078
0.122486
0.112201
0.110919
0.114343
0.107637
0.0977486
0.112577
0.11339
0.10793
0.133988
0.147585
0.121192
0.136331
0.121886
0.111847
0.110957
0.0896365
0.0756562
0.0694024
0.0741077
0.0944522
0.114808
0.123868
0.124578
0.119458
0.113129
0.100721
0.0922386
0.082402
0.0767118
0.0680694
0.0631451
0.0600621
0.0610412
0.0621819
0.0665537
0.0636974
0.0707179
0.0817679
0.0974305
0.108943
0.120718
0.157595
0.172643
0.251496
0.235113
0.233253
0.244393
0.228966
0.200178
0.175688
0.185892
0.184912
0.159951
0.135943
0.114627
0.0935348
0.0745951
0.0688493
0.067515
0.070868
0.0713549
0.0680592
0.0648355
0.0660436
0.0692687
0.0756187
0.168899
0.31572
0.416266
0.446605
0.0386461
0.0380169
0.0374056
0.0358712
0.0351247
0.0336283
0.0322965
0.0320317
0.0321328
0.0325522
0.0333446
0.0356978
0.0382037
0.0402624
0.0414636
0.0417036
0.0416704
0.0412644
0.0407539
0.0395388
0.0384736
0.0360056
0.0335276
0.0303333
0.0276269
0.0256909
0.0246626
0.0244982
0.0247403
0.0257144
0.0272162
0.031995
0.0419346
0.0518081
0.0608011
0.0680436
0.0725063
0.0744559
0.0748946
0.0734299
0.0651817
0.055878
0.0478813
0.0419955
0.0387176
0.0372161
0.0368704
0.0373861
0.0425753
0.0515722
0.0591716
0.0646824
0.0678023
0.0687787
0.0688413
0.0680388
0.061417
0.0522765
0.0434042
0.0359076
0.0296678
0.0248186
0.0210892
0.0187399
0.0175508
0.0171958
0.0177126
0.0192794
0.020918
0.0226553
0.0237297
0.0261487
0.0282167
0.0304795
0.0332881
0.0355126
0.0400573
0.0444678
0.0551722
0.067612
0.0931315
0.130358
0.184948
0.285837
0.397715
0.511591
0.578047
0.613009
0.630253
0.630307
0.624908