/*--------------------------------*- C++ -*----------------------------------*\
| =========                 |                                                 |
| \\      /  F ield         | OpenFOAM: The Open Source CFD Toolbox           |
|  \\    /   O peration     | Version:  2.4.0                                 |
|   \\  /    A nd           | Web:      www.OpenFOAM.org                      |
|    \\/     M anipulation  |                                                 |
\*---------------------------------------------------------------------------*/
FoamFile
{
    version     2.0;
    format      ascii;
    class       volScalarField;
    location    "0.67";
    object      nuSgs;
}
// * * * * * * * * * * * * * * * * * * * * * * * * * * * * * * * * * * * * * //

dimensions      [0 2 -1 0 0 0 0];

internalField   nonuniform List<scalar> 
8800
(
0.00135356
0.0015004
0.00141054
0.00119755
0.0011568
0.00100765
0.00104832
0.000914706
0.00099846
0.00085532
0.000966426
0.000820701
0.000943002
0.00079216
0.000939885
0.000762807
0.000954106
0.000739545
0.000963562
0.000746252
0.000575218
0.00096991
0.00110176
0.00106316
0.00108527
0.0010049
0.0010437
0.000946625
0.00100883
0.000903876
0.000978173
0.000876336
0.000953531
0.000851428
0.000946639
0.000827247
0.000958115
0.000815809
0.000978818
0.000856609
0.000140506
0.000383364
0.000614921
0.000643703
0.000735927
0.000723059
0.000782256
0.000742094
0.000799529
0.000747376
0.000799824
0.000745997
0.000798434
0.00073909
0.000797321
0.000731774
0.000804928
0.000728542
0.000820064
0.000763036
2.91692e-05
0.000126795
0.000258444
0.00030134
0.000388969
0.000402786
0.000463379
0.000464515
0.000501953
0.000499142
0.000527106
0.000519151
0.000553568
0.000538653
0.000563351
0.000552859
0.000573789
0.000559122
0.000573664
0.000570591
9.14055e-06
4.17926e-05
8.4006e-05
0.000115339
0.000149802
0.000181651
0.000195492
0.000230895
0.0002366
0.000266176
0.000269086
0.000282252
0.000291402
0.000315046
0.000311948
0.000337702
0.000328881
0.000363804
0.000344665
0.000377773
2.59552e-06
1.1368e-05
2.98257e-05
4.07766e-05
5.81158e-05
7.74437e-05
8.99464e-05
0.000111302
0.000124014
0.000147132
0.000155379
0.000167934
0.000177531
0.000193027
0.000202774
0.000224745
0.000234563
0.000264994
0.000273284
0.000293403
1.92391e-05
4.914e-05
8.85946e-05
0.000104496
0.000138366
0.000142771
0.0001587
0.000154683
0.000161732
0.000161211
0.000172658
0.000173705
0.000187328
0.000188422
0.000205074
0.000206663
0.000222511
0.000228172
0.00022919
0.000237304
2.2077e-05
5.2041e-05
9.25632e-05
0.000106678
0.000138365
0.000147255
0.000159947
0.000159173
0.00015333
0.000152071
0.000155229
0.000157634
0.000171083
0.000172468
0.00018307
0.00018424
0.000184517
0.000191965
0.000181927
0.000185712
5.12158e-06
1.66016e-05
2.54168e-05
3.7606e-05
5.00968e-05
6.43623e-05
7.01228e-05
0.000105207
9.39088e-05
0.000105027
0.00010143
0.000105616
0.000109791
0.000129033
0.000128397
0.000142674
0.000134008
0.000151245
0.000140885
0.000156652
6.80653e-06
8.90124e-06
1.84964e-05
1.87391e-05
2.32075e-05
2.75049e-05
2.76877e-05
4.02065e-05
4.46087e-05
6.3548e-05
6.15103e-05
6.47776e-05
6.47018e-05
7.62895e-05
7.38803e-05
8.61801e-05
8.33595e-05
0.000107046
0.00010029
0.000115269
9.80808e-06
2.42735e-05
4.34003e-05
5.11309e-05
7.18e-05
7.38479e-05
8.35604e-05
8.17711e-05
8.09851e-05
7.95556e-05
7.86688e-05
7.55076e-05
8.48649e-05
8.19801e-05
9.56899e-05
9.22635e-05
9.79092e-05
9.92876e-05
0.00010215
0.000102847
4.81023e-06
1.72962e-05
1.91437e-05
2.91739e-05
3.27398e-05
4.03777e-05
4.48827e-05
5.74522e-05
5.69205e-05
6.6033e-05
6.50664e-05
6.90993e-05
7.21539e-05
8.2203e-05
8.92069e-05
0.000106104
0.000108148
0.000119785
0.000118605
0.000121798
2.21941e-06
3.48323e-06
4.86308e-06
7.09298e-06
8.25857e-06
9.81827e-06
1.13037e-05
1.54714e-05
1.83588e-05
2.89323e-05
2.92356e-05
3.52504e-05
3.59507e-05
4.40734e-05
4.37255e-05
5.11131e-05
5.16413e-05
6.09105e-05
6.01712e-05
6.26847e-05
2.14827e-06
3.03829e-06
9.55981e-06
1.05521e-05
1.51866e-05
1.68587e-05
1.90726e-05
2.18864e-05
3.06473e-05
3.03142e-05
3.98229e-05
4.14542e-05
4.70003e-05
5.36059e-05
5.4742e-05
6.10373e-05
6.31169e-05
6.77832e-05
7.32301e-05
9.14463e-05
2.4323e-06
7.56096e-06
2.81871e-05
3.37439e-05
4.87227e-05
5.61732e-05
6.31836e-05
7.82532e-05
9.36589e-05
9.41918e-05
0.000116008
0.00012013
0.000127728
0.000145513
0.000148697
0.00015909
0.000163593
0.000177726
0.000187677
0.000212683
5.53101e-06
3.12693e-05
8.78485e-05
0.000107584
0.00014649
0.000167509
0.000183078
0.000217038
0.00023635
0.000241322
0.000274533
0.000281545
0.000290208
0.000314125
0.000319389
0.000333396
0.000338915
0.000359825
0.000371759
0.000395859
2.78033e-05
0.000121256
0.000250751
0.000293851
0.000364116
0.000392757
0.000423341
0.000457387
0.000473307
0.000482649
0.000515306
0.000517813
0.000523414
0.000540857
0.000543486
0.000549725
0.00055373
0.000567976
0.000576016
0.000579873
0.000136508
0.000398754
0.000587278
0.000650717
0.000710012
0.000731268
0.000754076
0.000756222
0.000759639
0.00075677
0.000756088
0.000748832
0.000745892
0.000740512
0.000737994
0.000729097
0.000728237
0.000726792
0.000724996
0.000717561
0.000551926
0.000981686
0.00107722
0.00107995
0.00106212
0.00102903
0.00100598
0.000968968
0.000952763
0.000929294
0.000905402
0.000896041
0.000880053
0.000859628
0.000858035
0.000839489
0.000835569
0.00081965
0.000814947
0.000799221
0.00133231
0.00150484
0.00138652
0.00123213
0.0011154
0.00104679
0.000996818
0.000954317
0.000929092
0.000902655
0.000879029
0.000866476
0.000851806
0.000830002
0.000825777
0.000803351
0.00079978
0.000772173
0.000764377
0.000731149
0.000313042
0.000251047
0.000244056
0.000227443
0.00023555
0.000230377
0.000238316
0.000231984
0.000236922
0.000227921
0.000230506
0.000220318
0.000221408
0.00021035
0.000210438
0.000198865
0.000199019
0.000187526
0.000187636
0.000175304
0.000175241
0.000163606
0.000165154
0.000155892
0.000160373
0.000154155
0.000161175
0.000157286
0.000165717
0.000163144
0.000171859
0.000169753
0.000177968
0.000175778
0.000183245
0.000180637
0.000187255
0.000183907
0.000189114
0.00018532
0.000189654
0.000185526
0.00018892
0.000184635
0.000187293
0.0001829
0.000184493
0.000180322
0.00018072
0.000177456
0.000176578
0.000173463
0.000172326
0.000169281
0.000168292
0.000166404
0.000166484
0.000166035
0.000167344
0.000169372
0.000177251
0.000179812
0.000184389
0.000182084
0.000177446
0.000149918
0.000136227
0.000125824
0.000127965
0.000128078
0.000133267
0.000134044
0.000136522
0.000138632
0.000138681
0.000139626
0.000139348
0.000139468
0.000139373
0.000139215
0.000138351
0.00013595
0.000132424
0.000123668
0.000115619
0.000107946
0.00010404
0.00010154
0.000101058
0.000100409
9.99981e-05
9.8909e-05
9.73087e-05
9.41911e-05
8.66608e-05
7.56123e-05
6.29803e-05
5.12121e-05
4.16776e-05
3.47151e-05
3.098e-05
2.86001e-05
2.68761e-05
2.57123e-05
2.44683e-05
2.27156e-05
2.15517e-05
2.0768e-05
2.06363e-05
2.09857e-05
2.22234e-05
2.51907e-05
3.07533e-05
4.18562e-05
6.26237e-05
9.89656e-05
0.00011016
0.000110233
0.000108566
0.000104311
0.000103261
0.000102699
0.000101424
9.75666e-05
9.3009e-05
9.07261e-05
8.92252e-05
8.8757e-05
8.86443e-05
8.76483e-05
8.54706e-05
8.44041e-05
8.43369e-05
8.49813e-05
8.73027e-05
8.79055e-05
8.79047e-05
8.77881e-05
8.77085e-05
8.6338e-05
7.90486e-05
6.97457e-05
6.28018e-05
5.9751e-05
5.88883e-05
5.87954e-05
6.03477e-05
6.38095e-05
6.50629e-05
6.52787e-05
6.52921e-05
6.51113e-05
6.40063e-05
5.87787e-05
5.42334e-05
5.19696e-05
5.08218e-05
5.0753e-05
5.21236e-05
5.39017e-05
5.48615e-05
5.67438e-05
6.25269e-05
6.5446e-05
6.55838e-05
6.49629e-05
6.48457e-05
6.33878e-05
6.03962e-05
6.01565e-05
6.42089e-05
9.94404e-05
0.000129225
0.00013201
0.000120654
8.93775e-05
7.07111e-05
6.13195e-05
5.56627e-05
5.57365e-05
5.80681e-05
6.21337e-05
7.29017e-05
6.89603e-05
7.31938e-05
7.2833e-05
7.29858e-05
7.87656e-05
7.82163e-05
8.02701e-05
8.51861e-05
8.4605e-05
8.97101e-05
9.30372e-05
0.000114647
0.000120864
0.000133624
0.000128719
0.000133061
0.000209706
0.000412315
0.000362618
0.000347472
0.000313189
0.000305505
0.00028551
0.000281825
0.000268411
0.000266393
0.000256379
0.000255438
0.000247657
0.000247372
0.000241098
0.000241104
0.000235325
0.000235481
0.000229883
0.000230207
0.00022415
0.000223999
0.000216245
0.000215509
0.000207365
0.000207557
0.000201205
0.000202797
0.000198141
0.000200657
0.000197216
0.000199689
0.000196841
0.000198617
0.000195988
0.000196772
0.000194199
0.00019424
0.000192101
0.000191743
0.000190189
0.000189614
0.000188852
0.000187479
0.000187394
0.000185444
0.000185353
0.000183001
0.000182777
0.000179168
0.00017853
0.000174074
0.000172873
0.00016762
0.000166468
0.000162057
0.000161129
0.000157447
0.000155522
0.000149818
0.000146305
0.000145291
0.000146681
0.000150025
0.00016445
0.000175627
0.000176959
0.000173842
0.00015623
0.000138127
0.000131299
0.000128592
0.000129857
0.000130176
0.000133896
0.000134538
0.000136296
0.00013567
0.0001356
0.000134558
0.000132842
0.000128278
0.000121322
0.000112466
0.00010626
0.000101855
9.97604e-05
9.90474e-05
9.87744e-05
9.87264e-05
9.84916e-05
9.78419e-05
9.63029e-05
9.29495e-05
8.52639e-05
7.16626e-05
5.74858e-05
4.50205e-05
3.69655e-05
3.20204e-05
2.90546e-05
2.79806e-05
2.71141e-05
2.60447e-05
2.5294e-05
2.38546e-05
2.24526e-05
2.1688e-05
2.16191e-05
2.1943e-05
2.34107e-05
2.66061e-05
3.18248e-05
4.04475e-05
5.81664e-05
9.33972e-05
0.000112389
0.000113455
0.000110522
0.000104643
0.000103502
0.000103968
0.000103491
0.000101236
9.52159e-05
8.95622e-05
8.71928e-05
8.62809e-05
8.61553e-05
8.63543e-05
8.63751e-05
8.47067e-05
8.34267e-05
8.31813e-05
8.32422e-05
8.41192e-05
8.56974e-05
8.66249e-05
8.73903e-05
8.76571e-05
8.75206e-05
8.48695e-05
7.7321e-05
6.91369e-05
6.33304e-05
6.06959e-05
6.0162e-05
6.11489e-05
6.34754e-05
6.44918e-05
6.50708e-05
6.63348e-05
6.72848e-05
6.68614e-05
6.1182e-05
5.46668e-05
5.15354e-05
5.00107e-05
4.97704e-05
5.1876e-05
5.51546e-05
5.65677e-05
5.87869e-05
6.33872e-05
6.60191e-05
6.68097e-05
6.67906e-05
6.74712e-05
6.70853e-05
6.32326e-05
6.16071e-05
6.37403e-05
8.90854e-05
0.000123235
0.000128982
0.000123917
9.93537e-05
7.57698e-05
6.41282e-05
6.01255e-05
6.35487e-05
6.95333e-05
6.87397e-05
7.5952e-05
7.36891e-05
7.44691e-05
7.38295e-05
7.20899e-05
7.2945e-05
7.3503e-05
7.49354e-05
7.924e-05
8.05849e-05
0.000102061
0.000108094
0.000123841
0.000122693
0.000130541
0.000135585
0.00014491
0.000162476
0.000381826
0.00035229
0.000341867
0.000318948
0.00031029
0.000291487
0.000284754
0.000269903
0.000264523
0.000252439
0.000248195
0.000238682
0.000235797
0.000229162
0.00022763
0.000223517
0.000223137
0.000221306
0.000221927
0.000220712
0.000221353
0.000219725
0.000219689
0.000216995
0.000215654
0.000211945
0.000209495
0.000207512
0.00020353
0.000202621
0.000199163
0.000198739
0.000194521
0.000194056
0.000189274
0.000188807
0.000183231
0.000182839
0.000177501
0.000177269
0.000171597
0.00017127
0.000165345
0.000164643
0.000158018
0.000156994
0.000151154
0.000150561
0.000145888
0.000145002
0.000140717
0.000139765
0.000135878
0.000135126
0.000132029
0.000131866
0.000129681
0.000130121
0.000128686
0.000130247
0.000128951
0.000130424
0.000129075
0.000131326
0.000133215
0.000148151
0.000156815
0.000160847
0.000156702
0.000152456
0.000138764
0.000134661
0.000127872
0.000126836
0.000124083
0.000123345
0.000121081
0.00011943
0.000115601
0.000112389
0.000107897
0.000104261
0.00010018
9.94546e-05
9.88611e-05
9.88035e-05
9.89699e-05
9.88541e-05
9.83848e-05
9.73144e-05
9.46453e-05
8.95185e-05
7.78073e-05
6.1412e-05
4.81296e-05
3.88799e-05
3.25879e-05
2.94289e-05
2.76273e-05
2.69244e-05
2.69396e-05
2.66343e-05
2.58961e-05
2.51885e-05
2.36932e-05
2.33486e-05
2.34704e-05
2.38835e-05
2.53313e-05
2.93263e-05
3.42641e-05
4.07376e-05
5.33252e-05
8.46589e-05
0.000114313
0.00011877
0.000115216
0.000104974
0.00010316
0.000104745
0.000105677
0.000103937
9.84109e-05
8.99184e-05
8.68014e-05
8.53066e-05
8.45348e-05
8.45492e-05
8.52569e-05
8.61717e-05
8.60953e-05
8.47536e-05
8.37551e-05
8.36654e-05
8.43901e-05
8.55034e-05
8.62225e-05
8.67139e-05
8.74795e-05
8.75775e-05
8.61403e-05
8.00838e-05
7.22928e-05
6.72886e-05
6.38577e-05
6.22922e-05
6.25267e-05
6.37314e-05
6.48559e-05
6.62278e-05
6.77161e-05
6.81244e-05
6.6522e-05
5.87864e-05
5.22575e-05
4.97583e-05
4.94586e-05
5.00944e-05
5.33461e-05
5.54995e-05
5.69654e-05
6.10961e-05
6.83224e-05
7.10823e-05
7.1184e-05
6.96005e-05
6.92553e-05
6.89863e-05
6.55443e-05
6.29687e-05
6.41999e-05
8.22825e-05
0.000116921
0.000126207
0.000123928
0.000106982
8.12593e-05
7.40532e-05
7.0534e-05
6.82311e-05
7.17298e-05
6.99075e-05
7.05955e-05
7.16473e-05
6.94668e-05
7.00539e-05
6.81354e-05
6.78411e-05
6.92161e-05
7.08741e-05
7.5076e-05
8.00795e-05
0.000112793
0.000115221
0.000115287
0.000137006
0.000142219
0.000161448
0.000157173
0.000161738
0.000299255
0.000288289
0.000272988
0.000266872
0.000253713
0.00024754
0.000234328
0.000228598
0.000216197
0.000211097
0.0002001
0.000196268
0.000188027
0.00018584
0.000180747
0.000179816
0.00017692
0.000177261
0.00017662
0.000178816
0.000179197
0.000183455
0.000184236
0.000188301
0.000187172
0.000189423
0.000186066
0.000186751
0.000181259
0.000180005
0.000171466
0.00016923
0.000159755
0.000157252
0.000148105
0.000146151
0.000138765
0.000138118
0.000133925
0.000134506
0.00013162
0.000132996
0.000130592
0.000131496
0.000128379
0.00012692
0.000119277
0.000115493
0.000105352
0.000100857
9.26826e-05
9.00812e-05
8.5164e-05
8.37499e-05
8.05205e-05
8.0405e-05
7.95857e-05
8.08362e-05
8.13971e-05
8.54938e-05
8.70467e-05
9.12795e-05
9.25011e-05
9.66491e-05
9.8153e-05
0.000103511
0.000109348
0.000127424
0.000139395
0.00014472
0.000143268
0.000141751
0.000136687
0.0001333
0.000128725
0.000124223
0.000121507
0.000117227
0.00011448
0.000110453
0.000107534
0.00010599
0.000105305
0.00010434
0.000103262
0.000102407
0.000100871
9.85144e-05
9.45779e-05
8.88209e-05
7.80859e-05
6.23092e-05
4.92668e-05
3.90931e-05
3.28555e-05
2.88602e-05
2.67677e-05
2.63061e-05
2.61303e-05
2.64411e-05
2.68222e-05
2.66515e-05
2.68318e-05
2.6362e-05
2.61189e-05
2.64614e-05
2.69503e-05
2.8128e-05
3.15674e-05
3.72081e-05
4.18304e-05
5.03927e-05
7.04419e-05
0.000111809
0.000123431
0.000120907
0.000107961
0.000102395
0.00010304
0.000106515
0.000106038
0.000101622
9.24897e-05
8.67239e-05
8.55778e-05
8.45118e-05
8.4216e-05
8.44198e-05
8.61689e-05
8.71435e-05
8.76382e-05
8.81843e-05
8.78987e-05
8.62889e-05
8.62507e-05
8.66008e-05
8.69024e-05
8.69866e-05
8.72568e-05
8.70342e-05
8.54119e-05
8.21021e-05
7.75369e-05
7.21134e-05
6.68758e-05
6.54636e-05
6.54132e-05
6.5321e-05
6.55821e-05
6.6704e-05
6.81563e-05
6.80848e-05
6.40446e-05
5.61198e-05
5.12206e-05
4.97914e-05
5.01542e-05
5.33631e-05
5.69319e-05
5.91318e-05
6.06839e-05
6.3112e-05
6.90859e-05
7.33623e-05
7.40918e-05
7.36982e-05
7.11388e-05
6.95363e-05
6.57173e-05
6.36368e-05
6.43045e-05
8.1213e-05
0.000111829
0.000122149
0.000122353
0.000112057
9.17758e-05
7.91451e-05
7.33946e-05
6.8397e-05
6.74864e-05
6.75219e-05
6.63688e-05
6.73157e-05
6.56501e-05
6.53647e-05
6.32874e-05
6.30902e-05
6.36296e-05
6.63304e-05
7.74991e-05
8.88189e-05
0.000104419
0.000112911
0.000131477
0.000157616
0.000139596
0.000130665
0.000109309
0.000112134
0.000201222
0.000197399
0.000188651
0.00018578
0.000178478
0.000175276
0.00016717
0.000163555
0.000154891
0.000151237
0.000142901
0.000139855
0.000132986
0.000131007
0.000126342
0.000125395
0.000122589
0.000122919
0.000122023
0.000123881
0.000123834
0.000126759
0.000127344
0.000131586
0.00013186
0.000134691
0.00013362
0.000135026
0.000132768
0.000132624
0.000128142
0.000125457
0.000116713
0.000112698
0.000103167
9.96922e-05
9.24094e-05
9.0046e-05
8.59664e-05
8.55289e-05
8.47407e-05
8.55888e-05
8.55912e-05
8.73601e-05
8.80022e-05
9.00451e-05
9.02855e-05
9.04773e-05
8.65769e-05
8.04586e-05
7.33983e-05
6.78273e-05
6.24486e-05
5.84007e-05
5.44559e-05
5.19297e-05
4.97986e-05
4.93306e-05
4.93312e-05
5.07759e-05
5.34971e-05
6.03644e-05
6.51981e-05
6.96119e-05
7.15154e-05
7.35574e-05
7.5739e-05
7.9785e-05
8.77366e-05
0.000100171
0.000116218
0.000125292
0.000128101
0.000127994
0.00012723
0.000124731
0.000123431
0.000120496
0.000119065
0.000115929
0.000114047
0.000110583
0.000108176
0.000103889
0.000100889
9.6539e-05
8.90313e-05
8.11707e-05
6.88408e-05
5.62865e-05
4.53321e-05
3.70675e-05
3.11772e-05
2.73812e-05
2.57735e-05
2.50469e-05
2.51487e-05
2.56337e-05
2.59385e-05
2.71675e-05
2.78402e-05
2.83828e-05
2.98292e-05
3.01764e-05
3.08932e-05
3.17622e-05
3.24366e-05
3.44468e-05
4.02554e-05
4.38867e-05
4.88425e-05
6.14317e-05
9.94579e-05
0.000126226
0.000126878
0.00011569
0.000102566
0.000101152
0.000104777
0.000107036
0.000104998
9.8024e-05
8.92255e-05
8.55719e-05
8.47998e-05
8.38564e-05
8.40878e-05
8.43737e-05
8.61613e-05
8.68552e-05
8.70698e-05
8.73365e-05
8.80923e-05
9.08071e-05
9.21038e-05
9.12175e-05
8.94417e-05
8.84673e-05
8.79106e-05
8.69524e-05
8.52545e-05
8.36613e-05
8.07267e-05
7.55706e-05
7.23234e-05
6.92989e-05
6.77255e-05
6.68452e-05
6.68952e-05
6.79738e-05
6.94412e-05
6.90262e-05
6.42098e-05
5.61883e-05
5.13411e-05
5.00385e-05
5.05648e-05
5.45058e-05
6.24856e-05
6.73663e-05
6.87625e-05
6.86573e-05
6.90611e-05
7.28042e-05
7.58065e-05
7.5714e-05
7.29056e-05
6.95273e-05
6.53928e-05
6.40181e-05
6.44759e-05
8.08416e-05
0.00011234
0.000119749
0.000122535
0.000117694
0.000101073
8.5961e-05
7.68061e-05
6.87375e-05
6.82173e-05
6.72453e-05
6.63554e-05
6.42452e-05
6.35265e-05
6.35408e-05
6.34511e-05
6.43527e-05
6.85906e-05
7.27602e-05
9.18915e-05
9.63812e-05
9.90552e-05
0.000127866
0.000138215
0.000130799
9.69304e-05
8.47888e-05
8.08348e-05
8.68088e-05
0.000157288
0.00015461
0.000148671
0.000146251
0.000141039
0.000137609
0.000132503
0.000128102
0.000123589
0.000119085
0.000115238
0.000111352
0.000107987
0.000105038
0.000102296
0.000100158
9.8036e-05
9.68195e-05
9.46208e-05
9.40661e-05
9.34097e-05
9.37961e-05
9.38888e-05
9.5004e-05
9.53979e-05
9.68511e-05
9.67876e-05
9.71695e-05
9.66845e-05
9.6603e-05
9.60644e-05
9.47596e-05
9.04394e-05
8.59944e-05
8.09546e-05
7.66385e-05
7.22426e-05
6.86815e-05
6.53638e-05
6.32883e-05
6.18579e-05
6.15729e-05
6.15211e-05
6.286e-05
6.66741e-05
7.04937e-05
7.32756e-05
7.45807e-05
7.46956e-05
7.19264e-05
6.62115e-05
5.98508e-05
5.41686e-05
4.85209e-05
4.37086e-05
3.9025e-05
3.52724e-05
3.23075e-05
3.08736e-05
3.03723e-05
3.2465e-05
4.01321e-05
4.83961e-05
5.42905e-05
5.79394e-05
5.86268e-05
5.85305e-05
5.87032e-05
5.97085e-05
6.21671e-05
6.75306e-05
7.62105e-05
8.67199e-05
9.3803e-05
9.99873e-05
0.00010371
0.000103982
0.000103539
0.000101758
9.9502e-05
9.59041e-05
9.13431e-05
8.52373e-05
7.8947e-05
7.13155e-05
6.20051e-05
5.35466e-05
4.55971e-05
3.84113e-05
3.26936e-05
2.80886e-05
2.56672e-05
2.41667e-05
2.40395e-05
2.41908e-05
2.4657e-05
2.6224e-05
2.7374e-05
2.89001e-05
3.13721e-05
3.21637e-05
3.40227e-05
3.5604e-05
3.59646e-05
3.70589e-05
3.76675e-05
3.90159e-05
4.32306e-05
4.74918e-05
5.01212e-05
5.66043e-05
7.83896e-05
0.000123789
0.000134857
0.000129559
0.000107326
9.97294e-05
9.97024e-05
0.000105102
0.000105706
0.000103479
9.58593e-05
8.77503e-05
8.52736e-05
8.39013e-05
8.32129e-05
8.33895e-05
8.3976e-05
8.50457e-05
8.38524e-05
8.38882e-05
8.41227e-05
8.61755e-05
9.04546e-05
9.41788e-05
9.46816e-05
9.43393e-05
9.26587e-05
8.9652e-05
8.79427e-05
8.74642e-05
8.7704e-05
8.57931e-05
7.88902e-05
7.49722e-05
7.19469e-05
7.20393e-05
7.10578e-05
7.06268e-05
7.14144e-05
7.30618e-05
7.21758e-05
6.52543e-05
5.70273e-05
5.34511e-05
5.33977e-05
5.97098e-05
7.08223e-05
7.44443e-05
7.49397e-05
7.41834e-05
7.09949e-05
7.02674e-05
7.05607e-05
7.25147e-05
7.24848e-05
7.13251e-05
6.98139e-05
6.59937e-05
6.49405e-05
6.59261e-05
7.80447e-05
0.000114491
0.000121489
0.000124769
0.000119453
0.000105045
8.80235e-05
8.09604e-05
7.00211e-05
7.0509e-05
6.83377e-05
6.8179e-05
6.48914e-05
6.47687e-05
6.76136e-05
6.75079e-05
6.93871e-05
7.31038e-05
8.29986e-05
8.82799e-05
0.000100481
0.000127399
0.000138324
0.000128471
9.76378e-05
7.85016e-05
7.2999e-05
7.35665e-05
8.32725e-05
0.000128124
0.000126515
0.000123351
0.000121431
0.000118892
0.000116338
0.000113721
0.0001104
0.000107882
0.000104306
0.000101729
9.82949e-05
9.56487e-05
9.26553e-05
9.0439e-05
8.78718e-05
8.61636e-05
8.4429e-05
8.27601e-05
8.13654e-05
8.01796e-05
7.95469e-05
7.93335e-05
7.93445e-05
7.9452e-05
7.97263e-05
7.9995e-05
8.03435e-05
8.1351e-05
8.22032e-05
8.28701e-05
8.29034e-05
8.09167e-05
7.59085e-05
7.0606e-05
6.59307e-05
6.15175e-05
5.75581e-05
5.37392e-05
5.03354e-05
4.79065e-05
4.67738e-05
4.68037e-05
5.03588e-05
5.72073e-05
6.27055e-05
6.62383e-05
6.77419e-05
6.7964e-05
6.5829e-05
6.11688e-05
5.49744e-05
4.96094e-05
4.34442e-05
3.85598e-05
3.34581e-05
2.94026e-05
2.55464e-05
2.29082e-05
2.13773e-05
2.21163e-05
3.07142e-05
4.10509e-05
4.76031e-05
5.11921e-05
5.21836e-05
5.11018e-05
4.74573e-05
4.53346e-05
4.50262e-05
4.53511e-05
4.65628e-05
4.93222e-05
5.40278e-05
5.73265e-05
6.18469e-05
6.38222e-05
6.37612e-05
6.28154e-05
6.10721e-05
5.7584e-05
5.41629e-05
4.98081e-05
4.55644e-05
4.09729e-05
3.62032e-05
3.18442e-05
2.78305e-05
2.51159e-05
2.33692e-05
2.28908e-05
2.29566e-05
2.34166e-05
2.50584e-05
2.6816e-05
2.99864e-05
3.3877e-05
3.54901e-05
3.88203e-05
4.09617e-05
4.2158e-05
4.40164e-05
4.388e-05
4.40131e-05
4.48325e-05
4.57872e-05
4.80845e-05
5.11998e-05
5.25743e-05
5.52647e-05
6.55815e-05
0.000105828
0.000138267
0.00013964
0.000123229
0.000102335
9.67224e-05
9.77349e-05
0.000103443
0.000104215
0.000102714
9.48303e-05
8.73805e-05
8.45601e-05
8.29141e-05
8.32468e-05
8.27583e-05
8.38506e-05
8.57371e-05
8.41977e-05
8.30895e-05
8.32959e-05
8.53187e-05
9.01009e-05
9.38024e-05
9.45739e-05
9.40418e-05
9.36668e-05
9.18172e-05
9.09061e-05
8.96233e-05
8.9038e-05
8.84057e-05
8.37424e-05
8.05843e-05
7.94671e-05
7.71285e-05
7.35464e-05
7.32864e-05
7.5972e-05
7.64227e-05
7.42581e-05
6.59294e-05
6.17081e-05
6.21055e-05
7.10631e-05
8.03459e-05
8.31408e-05
8.31244e-05
8.10606e-05
7.60723e-05
7.26099e-05
7.10211e-05
7.05673e-05
7.12158e-05
7.13687e-05
6.99374e-05
6.90265e-05
6.69674e-05
6.59721e-05
6.90606e-05
7.94689e-05
0.000116872
0.000121969
0.000127383
0.000122219
0.000113335
9.20317e-05
8.70012e-05
7.42016e-05
7.54472e-05
7.21328e-05
7.02384e-05
6.76862e-05
6.65691e-05
6.84307e-05
6.71266e-05
7.02481e-05
7.41107e-05
8.01506e-05
8.29617e-05
0.000102151
0.000113741
0.000115685
0.000101582
8.14018e-05
7.10436e-05
6.94939e-05
7.15842e-05
9.6939e-05
0.000100139
9.87902e-05
9.65658e-05
9.57893e-05
9.44322e-05
9.38781e-05
9.26714e-05
9.21125e-05
9.0839e-05
9.02445e-05
8.85513e-05
8.76761e-05
8.53489e-05
8.43129e-05
8.16529e-05
8.04048e-05
7.75426e-05
7.5839e-05
7.24096e-05
7.0546e-05
6.82629e-05
6.727e-05
6.65076e-05
6.63233e-05
6.62352e-05
6.63066e-05
6.72843e-05
6.87478e-05
7.0125e-05
7.0889e-05
7.11676e-05
7.06486e-05
6.75705e-05
6.32292e-05
5.97607e-05
5.58226e-05
5.26968e-05
4.86532e-05
4.53138e-05
4.16295e-05
3.9344e-05
3.82344e-05
3.91089e-05
4.47058e-05
5.12015e-05
5.57184e-05
5.87765e-05
6.00785e-05
6.02978e-05
5.79464e-05
5.28335e-05
4.70256e-05
4.1913e-05
3.72186e-05
3.33562e-05
2.99423e-05
2.68032e-05
2.37593e-05
2.12356e-05
2.01792e-05
2.09802e-05
2.78034e-05
3.47108e-05
3.93679e-05
4.19539e-05
4.27905e-05
4.211e-05
3.96349e-05
3.64357e-05
3.43616e-05
3.27481e-05
3.21685e-05
3.21119e-05
3.21171e-05
3.2584e-05
3.28615e-05
3.35997e-05
3.3841e-05
3.37077e-05
3.32856e-05
3.23065e-05
3.09882e-05
2.90975e-05
2.70987e-05
2.47417e-05
2.28319e-05
2.1272e-05
2.11022e-05
2.12456e-05
2.18236e-05
2.33922e-05
2.56713e-05
2.96145e-05
3.59494e-05
3.9471e-05
4.55711e-05
4.89706e-05
5.17015e-05
5.47469e-05
5.50325e-05
5.51376e-05
5.50305e-05
5.41162e-05
5.41861e-05
5.47768e-05
5.46317e-05
5.45055e-05
5.48698e-05
5.58004e-05
6.07187e-05
7.95257e-05
0.000130604
0.000148269
0.000143046
0.000116738
0.000100738
9.5349e-05
9.5421e-05
0.000100343
0.000104157
0.000102623
9.45279e-05
8.80154e-05
8.43284e-05
8.28175e-05
8.31435e-05
8.10921e-05
8.25685e-05
8.41025e-05
8.3473e-05
8.32606e-05
8.34767e-05
8.49615e-05
8.85551e-05
8.98776e-05
9.25272e-05
9.26394e-05
9.37324e-05
9.14946e-05
9.05474e-05
9.2146e-05
9.14123e-05
9.16065e-05
8.74751e-05
8.51574e-05
8.32802e-05
7.78491e-05
7.74382e-05
8.01018e-05
8.23793e-05
8.01959e-05
7.30323e-05
6.73428e-05
6.76112e-05
7.51219e-05
8.05637e-05
8.12036e-05
8.06685e-05
7.98215e-05
7.7095e-05
7.3044e-05
7.25461e-05
7.25481e-05
7.26937e-05
7.20717e-05
7.03735e-05
6.81613e-05
6.80008e-05
6.83896e-05
6.81754e-05
7.52505e-05
8.42553e-05
0.000116366
0.000120158
0.000126637
0.000123238
0.000118026
9.89295e-05
9.36935e-05
7.82007e-05
7.73453e-05
7.56492e-05
7.4129e-05
7.27719e-05
6.93167e-05
6.64214e-05
6.54925e-05
6.91189e-05
7.18293e-05
7.47534e-05
8.49994e-05
0.000100083
0.000100332
9.27152e-05
8.2328e-05
7.31738e-05
6.82232e-05
6.76131e-05
7.49114e-05
0.000112911
8.42857e-05
8.32092e-05
8.07601e-05
8.01662e-05
7.89109e-05
7.878e-05
7.83924e-05
7.84308e-05
7.80991e-05
7.81618e-05
7.76505e-05
7.73358e-05
7.58563e-05
7.49299e-05
7.24206e-05
7.1028e-05
6.81414e-05
6.59797e-05
6.30155e-05
6.08405e-05
5.91678e-05
5.8072e-05
5.74394e-05
5.70541e-05
5.69387e-05
5.70545e-05
5.82607e-05
5.94654e-05
6.09261e-05
6.181e-05
6.26243e-05
6.28183e-05
6.27587e-05
6.04101e-05
5.7226e-05
5.24556e-05
4.84724e-05
4.38114e-05
4.02701e-05
3.70374e-05
3.53169e-05
3.45451e-05
3.59615e-05
4.24574e-05
4.93393e-05
5.38219e-05
5.67046e-05
5.76455e-05
5.72293e-05
5.31274e-05
4.73701e-05
4.20918e-05
3.73946e-05
3.39647e-05
3.0948e-05
2.85587e-05
2.62348e-05
2.44603e-05
2.28135e-05
2.18727e-05
2.16227e-05
2.31351e-05
2.67957e-05
3.00227e-05
3.18851e-05
3.26338e-05
3.24003e-05
3.06236e-05
2.79136e-05
2.59833e-05
2.3895e-05
2.26915e-05
2.15083e-05
2.07633e-05
2.00592e-05
1.93879e-05
1.84762e-05
1.75399e-05
1.73873e-05
1.74772e-05
1.76459e-05
1.7648e-05
1.75966e-05
1.76448e-05
1.78573e-05
1.82866e-05
1.90795e-05
2.07166e-05
2.33234e-05
2.80293e-05
3.52559e-05
4.09619e-05
5.09144e-05
5.74758e-05
6.41963e-05
6.8792e-05
7.15662e-05
7.28711e-05
7.26649e-05
7.1299e-05
7.01053e-05
6.81065e-05
6.53206e-05
6.42533e-05
6.26731e-05
5.93172e-05
5.91758e-05
5.95193e-05
6.08515e-05
6.76953e-05
9.91873e-05
0.000148528
0.000155261
0.000142399
0.000114712
0.000101279
9.41913e-05
9.47021e-05
9.90323e-05
0.000105421
0.000102879
9.51081e-05
9.01237e-05
8.53499e-05
8.42527e-05
8.34443e-05
8.12094e-05
8.24229e-05
8.13633e-05
8.39351e-05
8.32274e-05
8.56547e-05
8.45872e-05
8.48759e-05
8.26955e-05
8.52161e-05
8.66931e-05
8.95515e-05
9.00544e-05
9.03963e-05
9.37968e-05
9.26022e-05
9.14054e-05
9.11717e-05
8.73044e-05
8.5944e-05
8.15153e-05
8.40973e-05
8.39047e-05
8.25159e-05
7.49037e-05
7.06587e-05
7.05573e-05
7.67189e-05
8.5113e-05
8.73625e-05
8.67052e-05
8.43356e-05
8.11373e-05
7.66699e-05
7.24951e-05
7.21554e-05
7.17423e-05
7.22105e-05
7.11596e-05
6.99424e-05
6.82015e-05
6.81601e-05
7.22099e-05
7.42044e-05
8.85059e-05
9.42323e-05
0.000120161
0.000120408
0.000122826
0.000122192
0.000118741
0.000105572
9.68945e-05
8.28637e-05
8.07047e-05
7.95021e-05
7.80238e-05
7.36639e-05
6.88954e-05
6.79541e-05
6.87092e-05
7.41722e-05
7.6623e-05
8.18736e-05
9.33722e-05
9.74585e-05
9.16564e-05
8.15959e-05
7.55662e-05
6.96811e-05
6.68739e-05
6.76519e-05
8.60667e-05
0.000127667
6.38015e-05
6.38121e-05
6.39873e-05
6.4238e-05
6.45905e-05
6.45273e-05
6.43547e-05
6.35766e-05
6.29182e-05
6.14194e-05
6.03745e-05
5.82325e-05
5.7217e-05
5.50626e-05
5.41648e-05
5.2195e-05
5.13568e-05
4.94639e-05
4.87539e-05
4.7126e-05
4.66362e-05
4.55633e-05
4.53641e-05
4.4931e-05
4.5064e-05
4.55549e-05
4.84685e-05
5.05821e-05
5.35239e-05
5.47894e-05
5.59031e-05
5.59795e-05
5.5163e-05
5.11139e-05
4.69382e-05
4.2855e-05
3.96079e-05
3.70275e-05
3.50267e-05
3.3494e-05
3.23903e-05
3.17811e-05
3.16839e-05
3.37692e-05
3.85086e-05
4.17966e-05
4.31011e-05
4.32337e-05
4.17743e-05
3.91898e-05
3.65999e-05
3.48129e-05
3.30362e-05
3.15678e-05
2.98265e-05
2.82727e-05
2.63484e-05
2.49219e-05
2.3521e-05
2.28638e-05
2.25522e-05
2.2698e-05
2.35779e-05
2.4935e-05
2.56804e-05
2.58084e-05
2.53461e-05
2.31814e-05
2.1252e-05
1.91941e-05
1.76396e-05
1.62396e-05
1.51447e-05
1.44695e-05
1.36945e-05
1.34551e-05
1.31763e-05
1.30584e-05
1.30222e-05
1.30675e-05
1.35697e-05
1.43498e-05
1.50002e-05
1.62979e-05
1.77427e-05
2.04493e-05
2.45085e-05
3.18633e-05
3.88424e-05
5.09857e-05
6.12438e-05
7.29689e-05
8.30105e-05
9.03368e-05
9.66632e-05
9.9e-05
9.87589e-05
9.77357e-05
9.51044e-05
9.03228e-05
8.78965e-05
8.22806e-05
7.78787e-05
7.5409e-05
6.87251e-05
6.52231e-05
6.51453e-05
6.50272e-05
6.72129e-05
7.89398e-05
0.000129878
0.000160321
0.000159139
0.000140463
0.000116119
0.000103634
9.59467e-05
9.47976e-05
9.65549e-05
0.000104957
0.000100501
9.74517e-05
9.37247e-05
8.69834e-05
8.52732e-05
8.51462e-05
8.52552e-05
8.42968e-05
8.3249e-05
8.54535e-05
8.44328e-05
8.62602e-05
8.2321e-05
8.09175e-05
7.83977e-05
7.93985e-05
8.22886e-05
8.47193e-05
9.04829e-05
8.98642e-05
9.32132e-05
9.41651e-05
9.15354e-05
9.21909e-05
8.75372e-05
8.64159e-05
8.45599e-05
8.42576e-05
8.19374e-05
7.2322e-05
6.77197e-05
6.76264e-05
7.62619e-05
8.71594e-05
8.95659e-05
8.90959e-05
8.72912e-05
8.47647e-05
8.26119e-05
7.93912e-05
7.27765e-05
7.16016e-05
7.0758e-05
7.17385e-05
6.98682e-05
7.07752e-05
6.89214e-05
6.99768e-05
7.46227e-05
7.89835e-05
9.25957e-05
9.89007e-05
0.0001189
0.000121095
0.000120712
0.000121745
0.000118322
0.000110503
0.000104143
8.76223e-05
8.48906e-05
8.3693e-05
8.05555e-05
7.55311e-05
7.06156e-05
7.05795e-05
7.71423e-05
9.2634e-05
9.76451e-05
9.7673e-05
9.78365e-05
9.29364e-05
8.09238e-05
7.40045e-05
7.1488e-05
6.78309e-05
6.63439e-05
7.18932e-05
0.000108217
0.00014089
5.61332e-05
5.57251e-05
5.58157e-05
5.56247e-05
5.57976e-05
5.55089e-05
5.54624e-05
5.48984e-05
5.46086e-05
5.38121e-05
5.34023e-05
5.24713e-05
5.19856e-05
5.10817e-05
5.05657e-05
4.95742e-05
4.89414e-05
4.77472e-05
4.70421e-05
4.57314e-05
4.46261e-05
4.31257e-05
4.21323e-05
4.13786e-05
4.12502e-05
4.12218e-05
4.16189e-05
4.24791e-05
4.35658e-05
4.39315e-05
4.39013e-05
4.2534e-05
4.03366e-05
3.85935e-05
3.71069e-05
3.64048e-05
3.57706e-05
3.50922e-05
3.39969e-05
3.26905e-05
3.15266e-05
3.08454e-05
3.07295e-05
3.11472e-05
3.18639e-05
3.22746e-05
3.24885e-05
3.25851e-05
3.26534e-05
3.26676e-05
3.24915e-05