/*--------------------------------*- C++ -*----------------------------------*\
| =========                 |                                                 |
| \\      /  F ield         | OpenFOAM: The Open Source CFD Toolbox           |
|  \\    /   O peration     | Version:  2.4.0                                 |
|   \\  /    A nd           | Web:      www.OpenFOAM.org                      |
|    \\/     M anipulation  |                                                 |
\*---------------------------------------------------------------------------*/
FoamFile
{
    version     2.0;
    format      ascii;
    class       volScalarField;
    location    "0.67";
    object      p;
}
// * * * * * * * * * * * * * * * * * * * * * * * * * * * * * * * * * * * * * //

dimensions      [0 2 -2 0 0 0 0];

internalField   nonuniform List<scalar> 
8800
(
60.7355
47.3965
40.5375
36.8125
35.3625
33.6054
32.8548
31.4437
30.6097
29.5731
28.5134
27.6063
26.8067
25.2311
25.4515
23.2724
24.0723
22.2152
22.1467
21.5868
57.6066
47.0212
40.6984
36.9308
35.4235
33.6328
32.8595
31.4545
30.591
29.5875
28.5006
27.609
26.8276
25.209
25.4592
23.2713
24.0445
22.253
22.0931
21.3939
55.6267
47.0749
41.3302
37.3112
35.5854
33.7157
32.9147
31.4961
30.6107
29.6155
28.4964
27.624
26.8464
25.1975
25.4865
23.2527
24.0309
22.2548
22.0688
21.5309
54.0636
47.157
41.948
37.7335
35.7493
33.8242
32.9812
31.5662
30.656
29.6586
28.5012
27.6536
26.8605
25.231
25.5091
23.2941
23.9997
22.2827
21.946
21.8591
52.8085
47.1848
42.4223
38.123
35.8926
33.9218
33.0313
31.6528
30.6988
29.7077
28.5128
27.6683
26.8595
25.3232
25.4834
23.42
23.9414
22.3682
21.6901
22.2085
51.8218
47.1658
42.7477
38.4665
36.0105
34.0054
33.032
31.7156
30.7042
29.7281
28.5259
27.6779
26.8429
25.429
25.4093
23.5936
23.8327
22.4432
21.5264
22.626
51.0535
47.116
43.0012
38.7457
36.1118
34.0714
33.0089
31.7277
30.6506
29.7402
28.5079
27.7002
26.8189
25.5094
25.3047
23.7288
23.6872
22.4617
21.4059
23.071
50.479
47.0635
43.2079
38.9566
36.1917
34.137
32.9896
31.7272
30.5806
29.7371
28.4758
27.726
26.7842
25.5678
25.19
23.8025
23.5656
22.5045
21.3782
23.5363
50.0496
47.0421
43.3597
39.1192
36.2439
34.1614
32.998
31.7758
30.5561
29.7501
28.4382
27.7187
26.7676
25.6191
25.093
23.8598
23.5679
22.6667
21.3672
23.922
49.7503
47.0545
43.4223
39.2523
36.2711
34.1654
32.932
31.8519
30.5878
29.7919
28.4136
27.6823
26.7479
25.6951
25.028
23.9316
23.604
22.9331
21.3831
23.9074
49.596
47.1192
43.3923
39.3186
36.294
34.1748
32.8214
31.9013
30.595
29.8694
28.4228
27.6384
26.7585
25.7585
25.0351
24.0641
23.563
23.0472
21.5786
23.637
49.6613
47.2684
43.288
39.2972
36.2586
34.1849
32.7469
31.9148
30.5677
29.9321
28.4711
27.6142
26.8074
25.8134
25.0858
24.136
23.5284
23.0172
21.8614
23.2854
49.9585
47.4484
43.1303
39.1672
36.1804
34.18
32.7241
31.9203
30.5356
29.9632
28.516
27.5961
26.8892
25.8445
25.087
24.1845
23.5343
22.9543
22.0003
23.0104
50.4624
47.6451
42.9217
38.9481
36.0669
34.1622
32.7342
31.9052
30.5216
29.9559
28.5421
27.5649
26.9543
25.8432
25.0658
24.2167
23.5584
22.9065
22.0854
22.828
51.1805
47.8295
42.6589
38.6476
35.9322
34.124
32.7504
31.8651
30.4866
29.9327
28.557
27.5097
27.0143
25.8163
25.0318
24.2651
23.5891
22.8887
22.1334
22.6753
52.1376
47.9642
42.3247
38.2805
35.7815
34.0586
32.7456
31.8148
30.4283
29.8824
28.5672
27.4252
27.0617
25.8022
24.991
24.3184
23.6301
22.8977
22.1842
22.5025
53.3666
47.998
41.8901
37.8713
35.6128
33.968
32.7051
31.7605
30.3645
29.8338
28.5713
27.376
27.0824
25.8014
24.9605
24.3549
23.6753
22.916
22.2529
22.2716
54.889
47.9216
41.3492
37.447
35.4234
33.863
32.6416
31.7045
30.3248
29.7777
28.5683
27.3642
27.0701
25.8084
24.9516
24.3741
23.7062
22.93
22.3256
22.1197
56.8505
47.8182
40.7793
37.0772
35.2471
33.7771
32.5977
31.6639
30.3169
29.7454
28.5643
27.3834
27.0472
25.819
24.9592
24.3809
23.7169
22.9384
22.3379
22.0106
59.9614
48.1572
40.6121
36.9695
35.1818
33.7506
32.5987
31.6495
30.333
29.7433
28.5556
27.4135
27.0313
25.819
24.9744
24.3766
23.7158
22.9395
22.3501
22.136
21.694
21.2483
20.6409
19.9876
19.5013
19.1951
19.152
19.2606
19.4918
19.7817
20.1408
20.5047
20.8515
21.1555
21.4173
21.6787
21.9557
22.2522
22.5517
22.7926
22.9119
22.9004
22.6864
22.2894
21.7072
20.9788
20.1684
19.2963
18.439
17.5905
16.8632
16.2017
15.7381
15.3951
15.2869
15.3203
15.5714
15.9149
16.3424
16.8006
17.268
17.6888
18.0087
18.2297
18.2791
18.1493
17.8202
17.3379
16.7417
16.173
15.6985
15.4923
15.6046
16.2276
17.1688
18.4842
19.9939
21.7541
23.7764
25.9208
27.9567
29.8564
31.4911
32.6455
33.1571
33.1328
32.399
30.9694
28.9058
26.2711
23.2158
19.7351
16.0155
12.1806
8.32285
4.63554
1.18029
-1.83666
-4.48126
-6.61815
-8.29341
-9.55874
-10.2847
-10.8404
-11.1316
-11.1045
-11.1578
-11.1136
-10.8048
-10.3438
-9.64367
-8.56798
-6.86707
-4.74487
-2.05228
1.09172
4.23022
7.54401
10.7541
13.756
16.7653
19.5175
22.1032
24.5876
26.8821
28.9762
30.9398
32.6335
34.0974
35.2867
36.1375
36.5557
36.496
35.8528
34.4171
32.4785
30.0221
26.9621
23.2982
18.9865
13.9712
7.76636
0.711609
-6.79213
-13.9198
-20.3002
-26.0012
-29.466
-30.3173
-29.7591
-28.2142
-25.4846
-22.1132
-18.2244
-13.5834
-8.53229
-2.76338
4.0738
11.0307
17.4748
23.3758
28.4261
32.5112
35.9397
38.7637
41.0149
42.8315
44.2171
45.2078
45.7737
46.0985
46.1397
45.954
45.6937
45.3981
45.1053
44.6911
44.0114
43.2505
42.74
42.7948
43.3743
44.0638
44.4977
44.6004
44.4378
44.16
43.7481
43.5691
43.4206
42.9099
41.6545
39.3926
36.0851
31.9982
27.3467
22.4624
18.3517
14.2696
9.87264
9.38738
3.43551
5.41678
1.14996
0.964117
-0.619785
-1.93322
-1.90367
-3.04894
-2.65529
-2.87943
-0.764155
0.574461
4.10654
6.10325
9.63793
15.4861
21.5614
29.2505
37.0368
21.4002
21.3502
20.8257
20.0213
19.3236
18.9463
18.9113
19.0472
19.3354
19.7024
20.1269
20.5535
20.9455
21.2997
21.5871
21.8626
22.129
22.4056
22.68
22.9083
23.0106
22.977
22.7457
22.3056
21.6964
20.8991
20.0505
19.1238
18.2402
17.376
16.6605
16.0434
15.6153
15.3351
15.2523
15.3267
15.5604
15.9434
16.3642
16.8332
17.2857
17.7178
18.0112
18.2383
18.2333
18.1553
17.809
17.4099
16.8294
16.3691
15.999
15.9057
16.1038
16.7256
17.7069
18.9149
20.3937
22.1289
24.1561
26.2853
28.2446
29.8479
31.084
32.1384
32.8123
32.9767
32.2626
30.7839
28.7538
26.1702
23.2146
19.9053
16.2587
12.6013
8.91609
5.35492
2.05394
-0.880198
-3.46917
-5.52039
-7.01422
-8.27795
-9.00549
-9.42177
-9.70854
-9.84663
-9.82879
-9.72776
-9.50663
-8.93304
-8.17051
-7.10468
-5.31594
-3.17836
-0.537836
2.50645
5.52084
8.71511
11.8381
14.8201
17.732
20.4522
23.0474
25.5299
27.7846
29.9136
31.9271
33.6788
35.2507
36.5176
37.4205
37.8129
37.5981
36.6697
35.0752
32.8816
30.0957
26.9082
22.9942
18.3014
12.5633
5.38039
-2.67213
-10.9561
-18.628
-25.6192
-31.7473
-35.5243
-36.3593
-35.4673
-33.352
-30.1551
-26.4302
-22.1184
-17.2511
-12.2599
-6.32812
1.00878
8.51998
15.6809
22.3185
27.9084
32.3665
36.1074
39.182
41.5548
43.475
44.8444
45.8464
46.4459
46.7822
46.7893
46.5239
46.0723
45.5599
45.0757
44.5635
43.8343
43.0334
42.4426
42.4026
42.9003
43.4986
43.8305
43.8682
43.7343
43.4708
43.0764
42.6837
42.1942
41.4571
40.0806
38.1001
35.2377
31.4098
27.3771
22.6142
18.3472
15.8871
9.32328
10.6387
5.26648
4.89705
2.94589
0.94871
0.335149
-1.12325
-0.992005
-2.06213
-1.69273
-1.41928
0.267556
1.23282
3.95408
5.02542
7.11379
11.0047
20.782
26.3733
36.9721
21.2449
21.2902
21.013
20.2804
19.4714
18.919
18.7926
18.9404
19.2655
19.6939
20.1645
20.6285
21.037
21.4051
21.6921
21.9585
22.1997
22.4128
22.6445
22.8215
22.9277
22.8652
22.6143
22.1462
21.5275
20.7251
19.8564
18.9636
18.0693
17.2814
16.5929
16.0635
15.6777
15.4589
15.3828
15.5003
15.6885
16.0707
16.4441
16.9142
17.3253
17.7436
18.0026
18.2146
18.199
18.1215
17.8384
17.4861
17.0316
16.6711
16.4433
16.4358
16.7372
17.3027
18.298
19.4767
20.9123
22.6067
24.4081
26.2053
27.8163
29.3273
30.6972
31.8775
32.2891
32.1673
31.4288
30.1141
28.2131
25.862
23.0714
19.9602
16.6492
13.2705
9.85256
6.55541
3.50211
0.711305
-1.70078
-3.62407
-5.19289
-6.39443
-7.15049
-7.65483
-7.9458
-8.22201
-8.27917
-8.12573
-7.98242
-7.42435
-6.564
-5.47387
-3.72915
-1.6336
0.901506
3.7694
6.65889
9.72176
12.6976
15.639
18.5765
21.2677
23.8929
26.3816
28.6897
30.9898
33.0693
34.9272
36.6476
38.0887
39.0359
39.3375
38.964
37.7562
35.9828
33.5505
30.5251
27.1288
23.0423
18.036
11.4526
3.39389
-5.72981
-15.0337
-23.1677
-30.5279
-36.9222
-40.8598
-41.4593
-40.0469
-37.6722
-34.2455
-29.9847
-25.2411
-20.4209
-15.325
-9.00044
-1.52481
6.20227
14.0396
21.343
27.4049
32.4244
36.4821
39.6956
42.1576
44.1594
45.6364
46.6738
47.2983
47.5208
47.4152
47.0182
46.4319
45.7774
45.1613
44.5854
43.8149
42.912
42.0583
41.8502
42.2946
42.9921
43.3494
43.3084
43.1729
42.8745
42.4987
41.8777
41.1207
40.2123
38.9378
37.1587
34.6131
30.823
27.5784
23.4277
17.4772
17.2136
10.38
10.0966
7.31259
4.77775
3.61155
1.7891
1.52416
0.754427
1.20263
0.882344
0.372837
0.90559
2.19082
3.17942
3.34023
4.45887
5.79517
7.84971
18.8257
26.2426
34.4865
21.0976
20.8701
20.8571
20.4059
19.6381
18.9935
18.7353
18.8765
19.2435
19.7441
20.2383
20.6651
21.0248
21.3471
21.6502
21.9088
22.1371
22.2721
22.4622
22.5978
22.6644
22.5895
22.279
21.8428
21.2609
20.5449
19.7091
18.8904
18.0441
17.3737
16.733
16.2924
15.9335
15.7478
15.672
15.7931
15.9388
16.2585
16.5894
17.0083
17.3882
17.757
17.9949
18.1706
18.176
18.0795
17.8908
17.6043
17.298
17.0326
16.9301
16.9986
17.3728
17.9757
18.9151
20.0686
21.3163
22.8073
24.2999
25.8797
27.4584
28.8309
29.9104
30.5126
31.0787
31.0455
30.4283
29.267
27.5293
25.3792
22.8898
20.085
17.1091
13.9984
10.9216
7.87384
5.04717
2.57555
0.338712
-1.57005
-3.07786
-4.21641
-5.06627
-5.71227
-6.07023
-6.37967
-6.53846
-6.48517
-6.27076
-5.76144
-4.99425
-3.83468
-2.20587
-0.233091
2.17764
4.76646
7.53901
10.4846
13.3482
16.3534
19.2696
21.8774
24.6447
27.2416
29.6146
32.0744
34.3027
36.3481
38.2478
39.7849
40.7141
40.9099
40.3579
39.0753
37.0332
34.2673
31.1551
27.5332
23.2684
17.9583
10.864
2.31568
-7.57396
-17.5703
-26.3097
-34.0068
-40.4886
-44.5711
-45.2295
-43.4652
-40.5636
-37.0512
-32.8161
-27.8148
-22.6494
-17.4395
-11.2787
-3.79439
4.4552
12.8283
20.5189
27.0537
32.5671
36.8375
40.187
42.9027
45.05
46.5948
47.522
48.089
48.1863
47.9546
47.423
46.7978
46.0995
45.3957
44.6748
43.7599
42.7182
41.7809
41.5104
41.8518
42.4528
42.8734
42.8474
42.6432
42.228
41.7273
41.0543
40.2613
39.2565
37.9116
36.1779
34.3636
31.0764
27.1606
24.8582
17.9358
17.4472
12.6521
9.80305
7.8396
6.09497
5.554
4.08151
3.86191
3.90405
3.85624
3.50454
3.12856
2.33435
2.96385
3.37677
0.320659
-4.05315
0.0773565
4.36237
13.7328
23.0106
29.3922
22.266
21.7323
20.7822
20.0058
19.4125
18.9021
18.6305
18.8152
19.2515
19.825
20.3042
20.6817
20.9584
21.2109
21.516
21.7848
21.9775
22.0326
22.1377
22.2556
22.2914
22.219
21.8948
21.5115
21.0283
20.4304
19.6823
18.9158
18.1665
17.593
17.032
16.642
16.3017
16.134
16.0606
16.1544
16.2731
16.5088
16.7905
17.1359
17.4815
17.7539
17.9839
18.0957
18.1178
18.0482
17.9536
17.7638
17.5607
17.3952
17.3809
17.5202
17.9355
18.5855
19.4292
20.4596
21.5683
22.8197
24.222
25.5945
26.9255
27.965
28.8846
29.5332
29.9873
29.8874
29.277
28.2562
26.7499
24.8647
22.7535
20.2819
17.6273
14.8482
12.1527
9.37012
6.72634
4.47679
2.50389
0.768779
-0.665085
-1.88074
-2.80158
-3.44787
-3.96375
-4.31345
-4.51106
-4.6221
-4.45076
-4.02636
-3.45446
-2.37098
-0.939063
0.811939
3.0763
5.41577
8.06998
11.023
13.7962
16.7351
19.6841
22.4299
25.3053
28.012
30.5776
33.1615
35.5952
37.8417
39.8292
41.3508
42.2552
42.4824
41.8387
40.4201
38.1348
35.1302
31.8602
28.2102
23.7984
18.0061
10.5864
1.72005
-8.64258
-18.8593
-27.925
-35.6235
-41.9584
-45.9913
-46.712
-45.183
-42.212
-38.3951
-33.9649
-29.0582
-24.0985
-18.8785
-12.5614
-5.10822
3.19911
11.7751
19.9098
26.9327
32.7699
37.312
40.8503
43.8163
45.9009
47.3168
48.236
48.9271
49.0587
48.702
47.9919
47.1709
46.3618
45.5519
44.6906
43.6654
42.4928
41.5982
41.1156
41.3452
41.6602
41.8124
41.9908
41.9118
41.5201
40.9079
40.2111
39.5044
38.5536
37.1847
35.7421
34.2011
32.3352
26.9792
26.7116
20.6264
18.4759
14.9155
10.8688
9.35971
8.3374
8.33711
7.10868
6.50425
5.83776
6.18704
5.29684
5.19521
3.90772
2.40538
1.54344
-2.0923
-7.50355
-4.19814
2.88227
11.0823
19.019
25.217
22.4607
21.7682
20.6141
19.8195
19.3089
18.8791
18.5863
18.7984
19.287
19.9244
20.4044
20.7379
20.8993
21.067
21.357
21.6558
21.7923
21.8025
21.8089
21.9171
21.9691
21.8645
21.5403
21.1971
20.8333
20.3629
19.7013
19.0042
18.3753
17.9204
17.5102
17.0664
16.737
16.5378
16.4648
16.4976
16.5676
16.7152
16.9438
17.2159
17.5381
17.7591
17.9649
18.0319
18.0593
18.0472
18.028
17.9384
17.8103
17.712
17.7826
17.9302
18.3618
18.9812
19.7495
20.673
21.7459
22.8705
24.1177
25.2263
26.2613
27.1953
28.0296
28.5771
28.8915
28.7179
28.1779
27.309
26.0271
24.5041
22.6671
20.5808
18.3767
15.9406
13.6108
11.2273
8.89824
7.08419
5.10816
3.38449
2.03144
0.83601
-0.116188
-0.81339
-1.53137
-1.98276
-2.28971
-2.67216
-2.67623
-2.43331
-2.16071
-1.27499
-0.104874
1.36294
3.44834
5.68479
8.24068
11.1159
13.8921
16.9044
19.9399
22.8481
25.8248
28.6786
31.4762
34.0893
36.676
39.183
41.1895
42.7694
43.8304
44.0803
43.4285
41.7815
39.2275
36.1321
32.6671
28.9435
24.4025
18.4421
10.719
1.38729
-9.00675
-19.3016
-28.6868
-36.1603
-41.9887
-45.6995
-46.4505
-45.0529
-42.2379
-38.4587
-33.9578
-29.0825
-24.1554
-19.0899
-13.1109
-5.87575
2.65417
11.4221
19.7359
27.0975
33.2054
37.9744
41.654
44.6946
46.7443
48.2588
49.3938
50.0574
50.0487
49.4686
48.5877
47.6093
46.6571
45.6623
44.6135
43.4732
42.2084
41.1507
40.4699
40.4929
40.6865
41.0287
41.2293
41.1553
40.7363
40.1582
39.6514
39.0314
38.3037
37.02
36.237
33.9276
34.0154
28.2129
28.0307
23.3224
20.095
17.3048
13.7347
12.3878
10.6622
10.9143
9.42103
8.63695
7.43406
8.16587
7.11719
5.48106
3.86349
1.44899
0.646968
-3.07097
-8.12263
-4.457
2.72517
9.69011
16.3153
21.6403
22.8023
21.844
20.5178
19.7033
19.2776
18.82
18.527
18.7125
19.2515
19.9602
20.4665
20.761
20.8386
20.9476
21.2231
21.5553
21.6518
21.6167
21.5475
21.6611
21.734
21.5807
21.2536
20.9514
20.7027
20.3505
19.7535
19.1033
18.5588
18.1714
17.8532
17.4418
17.1053
16.8644
16.7611
16.7409
16.7729
16.853
17.0485
17.2697
17.5924
17.8031
17.9855
18.0159
18.0398
18.0537
18.0807
18.0282
17.9915
17.9328
18.053
18.255
18.668
19.2729
19.9977
20.8907
21.893
22.8714
23.9085
24.857
25.7469
26.6138
27.2166
27.6588
27.8818
27.7273
27.3317
26.6125
25.5151
24.3267
22.7096
21.0287
19.2652
17.1869
15.2417
13.2947
11.2191
9.46005
7.73457
6.13875
4.82826
3.68234
2.65714
1.80293
0.950248
0.310576
-0.230815
-0.875841
-1.15508
-1.19114
-1.14883
-0.587998
0.315311
1.64905
3.52077
5.63984
8.07607
10.8538
13.7197
16.8401
19.9422
22.9529
26.0557
29.0356
31.9663
34.8754
37.6538
40.1145
42.1685
44.022
45.2586
45.5013
44.8437
43.0523
40.2044
36.8982
33.4811
29.6657
25.0131
19.1857
11.4965
2.07776
-8.1668
-18.4029
-27.7369
-35.171
-40.8392
-44.2641
-45.194
-44.1597
-41.3256
-37.4733
-32.9011
-28.1397
-23.3987
-18.5181
-12.6669
-5.50136
2.8517
11.4602
19.9733
27.7015
33.819
38.7168
42.6125
45.68
47.8226
49.3511
50.4938
50.9669
50.855
50.172
49.1857
48.035
46.9497
45.711
44.3999
43.1187
41.7026
40.5241
39.7393
39.6033
39.6986
40.0946
40.4342
40.4583
40.0773
39.445
39.2132
38.4653
38.2521
36.7601
37.2552
33.9894
35.2922
30.957
29.2577
25.5083
22.0703
20.2743
17.4591
15.3517
13.0118
13.1389
11.2255
10.3079
9.18013
9.10416
7.90877
4.97352
2.74357
0.286067
-0.0768541
-2.01574
-6.30753
-3.57798
3.01853
8.81047
14.0568
18.4636
23.0171
21.8528
20.4073
19.6138
19.2714
18.8407
18.5133
18.6383
19.2046
19.9634
20.5115
20.7772
20.7948
20.8605
21.1025
21.4443
21.5367
21.4428
21.3544
21.4614
21.5611
21.3802
21.0424
20.7931
20.6243
20.3565
19.816
19.1821
18.711
18.365
18.1013
17.7074
17.3274
16.9961
16.922
16.9066
16.962
17.0029
17.1696
17.3778
17.6815
17.8979
18.0634
18.0947
18.0987
18.1265
18.1628
18.1205
18.1227
18.1079
18.2763
18.5567
18.9409
19.5638
20.2454
21.0943
21.9503
22.8189
23.7113
24.6011
25.3495
26.0224
26.5172
26.9245
27.1444
27.0239
26.7716
26.1401
25.227
24.2875
22.9085
21.5744
20.0607
18.3527
16.7464
15.0288
13.2794
11.5921
10.142
8.79596
7.4643
6.34202
5.24434
4.23105
3.25911
2.33063
1.53078
0.681337
0.168246
-0.166615
-0.335327
-0.0132873
0.612283
1.68671
3.23571
5.14526
7.52966
10.2664
13.1731
16.3023
19.5435
22.759
26.0457
29.3003
32.2783
35.232
38.0837
40.5444
42.9192
45.0157
46.337
46.705
46.0078
44.0478
41.0039
37.486
34.0608
30.2153
25.752
19.976
12.5686
3.65486
-6.53148
-16.7414
-25.6478
-32.7716
-38.2512
-41.591
-42.8815
-42.335
-39.4536
-35.6331
-31.0727
-26.4682
-21.9297
-17.0994
-11.4116
-4.45482
3.64506
12.2801
20.6896
28.4086
34.4748
39.5629
43.6372
46.5258
48.697
50.1782
51.3672
51.7587
51.5711
50.8487
49.7994
48.512
47.0764
45.3838
43.6619
42.0732
40.7186
39.4816
38.6572
38.4851
38.5691
39.075
39.7285
39.7133
39.566
38.8271
39.1389
37.9504
38.3922
36.1587
37.7726
34.991
36.1633
34.0502
31.1244
28.3157
25.3101
23.6633
20.3816
17.6732
15.3482
15.0068
13.0458
11.6943
10.9203
10.1058
8.15414
4.9683
1.99417
0.16373
0.425733
-0.648633
-3.44061
-1.84759
3.42554
8.46955
12.6927
15.9426
23.309
21.9926
20.348
19.4689
19.2108
18.8509
18.5373
18.5922
19.1317
19.9436
20.5273
20.8002
20.7886
20.7971
21.0026
21.3117
21.4445
21.3134
21.2086
21.2759
21.3943
21.2407
20.8925
20.6498
20.5539
20.3635
19.9363
19.3108
18.8578
18.5312
18.292
17.9301
17.5216
17.1458
17.0441
17.0648
17.1408
17.1768
17.2747
17.4963
17.7799
18.0298
18.1936
18.2323
18.2283
18.2633
18.2807
18.2369
18.1999
18.2707
18.457
18.7812
19.1797
19.7846
20.4269
21.228
21.9939
22.8183
23.6291
24.3821
25.0202
25.6362
26.0733
26.44
26.6257
26.5465
26.3772
25.7818
25.1263
24.3162
23.2274
22.1263
20.7925
19.4797
18.0474
16.5678
15.1832
13.6632
12.473
11.1768
9.88924
8.76077
7.55604
6.41916
5.27519
4.20292
3.18376
2.18535
1.38655
0.720006
0.347952
0.230829
0.455274
1.24811
2.50139
4.27262
6.59344
9.2537
12.2764
15.5439
18.9594
22.3673
25.6561
28.9323
32.1046
35.1127
37.9442
40.7242
43.4178
45.6577
47.1237
47.6484
46.9475
44.7917
41.545
37.9164
34.3073
30.5063
26.3505
20.8461
13.8761
5.40579
-4.28711
-14.1042
-22.7789
-29.744
-34.7661
-37.8743
-39.2811
-38.5335
-36.2578
-32.8515
-28.5468
-24.3044
-20.0252
-15.3004
-9.80045
-2.8688
4.93188
13.5892
21.7457
29.3325
35.4247
40.4053
44.462
47.2345
49.5239
51.0518
52.131
52.4187
52.1295
51.3595
50.1931
48.8446
47.1086
45.1039
42.8323
40.7314
39.3492
38.1262
37.1006
36.4476
37.2009
38.0544
39.0909
38.9959
39.2139
38.2154
39.1162
37.4495
38.8658
35.6871
38.0788
36.4094
36.6259
35.9113
33.0947
31.7235
28.8693
27.2157
23.0013
20.5589
18.3488
16.988
15.0334
12.9573
12.7288
12.5302
9.36957
6.29704
2.47721
1.21123
2.08938
0.862259
-0.577291
0.366515
4.5865
8.95323
12.0162
14.1593
24.1601
22.7189
20.5741
19.3251
19.048
18.8641
18.5906
18.6209
19.0806
19.8949
20.5494
20.8349
20.816
20.7591
20.9153
21.1453
21.3053
21.182
21.0746
21.0945
21.2278
21.146
20.8099
20.5357
20.4757
20.3776
20.0822
19.5023
19.0087
18.6761
18.4593
18.1718
17.7738
17.377
17.2447
17.3189
17.418
17.4308
17.4344
17.5906
17.8084
18.028
18.1635
18.2291
18.2652
18.334
18.3751
18.3788
18.3543
18.4814
18.7068
19.06
19.4451
19.9713
20.5523
21.2546
21.9551
22.6958
23.44
24.0883
24.7241
25.2765
25.695
26.0604
26.2059
26.1928
26.0674
25.5887
25.1331
24.4175
23.6105
22.6446
21.5731
20.5707
19.2722
18.2139
17.0148
15.689
14.6509
13.3141
12.1559
11.0121
9.73602
8.56351
7.28812
6.10146
4.8464
3.63405
2.451
1.3403
0.591684
0.0545853
-0.0433315
0.428321
1.41918
3.02654
5.21305
7.9006
11.0625
14.4348
17.8604
21.3784
24.8709
28.2195
31.4704
34.5642
37.6352
40.5514
43.2984
45.7958
47.5198
48.0219
47.2051
44.832
41.4666
37.8705
34.2325
30.5257
26.5709
21.6895
15.4497
7.6093
-1.11176
-10.2235
-18.8419
-25.7526
-30.6064
-33.7762
-35.1345
-34.3392
-32.64
-29.6125
-25.8612
-22.014
-17.8339
-13.1065
-7.84063
-0.677166
6.83801
15.3987
23.3555
30.4053
36.5152
41.2425
45.1737
47.9695
50.1418
51.6527
52.4838
52.6869
52.401
51.6964
50.4819
48.9078
46.6573
44.1476
41.6632
39.5775
37.9231
36.6138
35.7382
35.4559
36.2194
37.4025
38.7185
38.5557
38.8262
37.8309
38.4737
37.0524
38.906
35.3106
37.1227
35.746
36.3902
37.2669
35.5583
36.5923
33.196
31.1953
26.5165
24.1542
21.8316
19.5802
17.0772
14.2576
14.7291
15.4668
11.8215
8.33508
4.02261
3.47814
4.24106
2.62962
2.31393
2.93358
6.51048
10.2952
12.0895
13.2292
25.1414
23.7319
21.019
19.2518
18.7995
18.8137
18.6721
18.7189
19.1232
19.9177
20.5855
20.8703
20.8756
20.7736
20.8814
21.0395
21.145
21.0634
20.9245
20.8999
21.0123
21.0119
20.7545
20.4525
20.3676
20.3351
20.1355
19.6574
19.1496
18.8241
18.6591
18.5155
18.1147
17.7118
17.5295
17.6411
17.7398
17.6879
17.6059
17.6726
17.845
18.0111
18.1035
18.1453
18.1716
18.3306
18.4392
18.5016
18.5277
18.6787
18.9441
19.2664
19.6314
20.1024
20.642
21.2605
21.9024
22.5258
23.1853
23.7512
24.3703
24.878
25.284
25.6324
25.8252
25.9034
25.7977
25.5366
25.1572
24.6099
24.091
23.1931
22.4617
21.689
20.584
19.8518
18.704
17.6463
16.655
15.4096
14.4252
13.2295
12.0229
10.7808
9.30648
7.95249
6.35279
4.83396
3.28866
1.77699
0.698505
-0.279462
-0.743916
-0.634228
0.0239723
1.45442
3.51236
6.18901
9.36327
12.8183
16.5492
20.202
23.7077
27.1845
30.4677
33.6449
36.7332
39.7282
42.8329
45.491
47.0804
47.135
46.2234
43.8315
40.6667
37.3069
33.8136
30.2333
26.7016
22.5225
17.0174
10.2559
2.54972
-5.95929
-14.0781
-20.6844
-25.7258
-29.2491
-30.7246
-30.3293
-29.0289
-26.4115
-22.9357
-19.4296
-15.3216
-10.4815
-5.01294
2.08846
9.34419
17.326
25.2294
31.606
37.5209
41.9658
45.5888
48.426
50.3398
51.827
52.5938
52.9128
52.7158
51.899
50.5531
48.6862
46.2211
43.2498
40.1484
37.9893
36.8263
35.688
34.7535
34.8195
35.8888
37.2529
38.5268
38.6172
38.8507
38.4282
37.8123
37.0886
36.9211
34.5868
34.5647
32.9849
36.5871
38.3699
39.3248
41.3845
38.0402
34.9422
29.8197
26.9788
24.6569
22.5185
19.4912
16.2076
16.5129
17.4207
14.0137
10.2271
6.57442
6.42383
6.31262
4.9598
5.14087
5.57944
8.93145
11.9863
12.9574
13.3878
25.4209
24.1873
21.368
19.4091
18.7417
18.835
18.8215
18.9221
19.3109
20.021
20.6395
20.8772
20.8673
20.7616
20.8177
20.9004
20.9533
20.9292
20.8174
20.7794
20.8392
20.8892
20.7236
20.4477
20.3106
20.3156
20.1832
19.8124
19.3307
18.993
18.8907
18.8002
18.4434
18.0351
17.7779
17.8657
17.9584
17.838
17.7306
17.7507
17.8978
18.0528
18.1077
18.1335
18.2049
18.3705
18.5377
18.613
18.6598
18.8138
19.0804
19.3847
19.7113
20.1369
20.6356
21.1879
21.7713
22.3485
22.9502
23.5077
24.053
24.5112
24.9298
25.2722
25.5077
25.6886
25.6396
25.5724
25.265
24.8987
24.6313
23.9261
23.4632
22.7998
21.9902
21.3518
20.3691
19.5198
18.6098
17.6382
16.6588
15.4387
14.2418
12.8481
11.2606
9.66252
7.7796
5.98754
4.18234
2.30811
0.7511
-0.656147
-1.48791
-1.75406
-1.42367
-0.225021
1.66664
4.34605
7.66077
11.1908
14.9809
18.7654
22.3358
25.8636
29.1654
32.3085
35.4414
38.4798
41.4004
44.0207
45.6675
45.855
44.1397
41.7257
38.7942
35.8723
32.9057
29.8157
27.0237
23.2229
18.43
12.7858
5.9628
-1.4586
-8.53538
-14.9899
-20.3297
-24.0588
-25.7816
-25.8815
-25.1841
-22.9692
-19.5107
-16.4576
-12.274
-7.21597
-1.82775
5.21534
12.2067
19.5609
26.9925
32.9796
38.238
42.5243
45.8612
48.6405
50.4146
51.8802
52.6482
53.015
52.8428
52.0583
50.6128
48.3028
45.4439
42.3079
39.2797
36.9196
35.357
34.4646
34.3415
34.8141
35.9953
37.466
38.7209
39.0689
39.113
39.3678
38.5798
37.7671
35.2925
34.5314
34.0968
32.5999
38.9697
39.9955
43.7157
44.5302
42.2164
38.0827
32.76
28.9995
27.0559
25.3577
22.0145
18.9824
18.2904
18.5231
15.6627
12.0829
9.75114
9.46431
8.25149
7.48316
7.72546
8.60881
11.7259
13.5245
14.2376
14.4413
25.2126
24.2735
21.6039
19.6535
18.8424
18.8889
18.9803
19.1765
19.5416
20.1083
20.6272
20.8042
20.8145
20.7507
20.7562
20.7876
20.8023
20.8334
20.7615
20.6947
20.7215
20.7852
20.7057
20.4834
20.3052
20.3127
20.2317
19.9519
19.5345
19.1659
19.0906
19.0023
18.6623
18.257
17.9735
18.0051
18.077
17.9422
17.836
17.8218
17.9512
18.0993
18.1342
18.164
18.2392
18.3939
18.556
18.6421
18.7197
18.8723
19.1399
19.4278
19.7312
20.1337
20.5855
21.0919
21.6406
22.1617
22.7049
23.2272
23.7452
24.2106
24.6353
24.9999
25.2728
25.5236
25.5944
25.5897
25.483
25.3081
25.0974
24.7316
24.3501
23.8925
23.3669
22.6808
22.1141
21.407
20.556
19.7963
18.6884
17.6075
16.3579
14.7831
13.2304
11.4333
9.37648
7.2352
5.02358
2.88076
0.905266
-0.800198
-1.99462
-2.564
-2.39658
-1.4609
0.348053
2.99293
6.09314
9.81741
13.7497
17.4028
20.9921
24.4943
27.6715
30.7275
33.8134
36.8352
39.6614
41.9926
43.1121
42.5084
40.3652
37.9021
35.5422
33.5666
31.5408
29.2811
26.9293
23.8706
20.0377
15.2473
9.33456
3.25093
-3.01239
-9.22011
-14.2902
-18.1291
-20.3853
-20.9551
-20.7057
-18.8313
-15.2605
-12.6707
-8.94664
-3.24205
1.80598
8.57034
15.3933
22.081
28.8279
34.4219
38.8335
43.1379
46.2314
48.7548
50.4799
51.8393
52.6059
52.9421
52.7314
51.9248
50.3356
47.8806
44.8834
41.4857
38.3494
36.2448
34.9905
34.2044
34.2926
35.0856
36.4014
37.9401
38.9652
39.5033
39.6484
39.9218
40.0208
39.2525
36.7279
35.1981
37.3299
40.0449
45.0963
46.2932
48.5385
48.2149
46.3861
41.8878
36.5428
31.5357
29.8471
27.9085
24.5562
22.0956
20.6338
19.6595
17.4115
14.2879
12.4445
12.0488
10.5057
9.69878
10.0909
11.9757
14.5148
15.263
15.9601
15.7491
24.7067
24.0066
21.6691
19.9084
19.0736
19.0597
19.2241
19.4699
19.7944
20.2089
20.5971
20.7282
20.7501
20.7163
20.6911
20.675
20.6737
20.723
20.6941
20.6374
20.654
20.7244
20.7136
20.5321
20.3614
20.3314
20.2557
20.056
19.6905
19.3537
19.2305
19.1108
18.8314
18.4707
18.1946
18.1621
18.1718
18.0252
17.9123
17.8689
17.9558
18.0803
18.1124
18.1644
18.2625
18.4133
18.5815
18.6894
18.7889
18.9476
19.1799
19.4522
19.7335
20.0928
20.5026
20.941
21.4574
21.9425
22.4402
22.9596
23.4676
23.9495
24.3782
24.7674
25.1264
25.4205
25.6016
25.723
25.7633
25.7323
25.6419
25.5193
25.2247
24.9333
24.645
24.1174
23.694
23.1549
22.4644
21.7179
20.6662
19.6539
18.4064
16.799
15.1047
13.0765
10.8283
8.43528
5.91297
3.57494
1.30653
-0.586093
-1.87466
-2.68661
-2.64836
-1.87728
-0.239876
2.33757
5.36366
8.95178
12.7834
16.361
19.8853
23.2173
26.2033
29.1977
32.1595
35.0032
37.6579
39.5825
39.9213
38.2019
35.2736
32.9125
31.2971
30.5139
30.0034
28.9082
27.1883
24.7611
21.6125
17.5431
12.6389
7.64599
1.93881
-3.63923
-8.20991
-12.1561
-14.6618
-15.4521
-15.7113
-14.2506
-10.8999
-8.81761
-5.51402
0.868072
5.69439
11.8179
18.4084
24.5584
30.4689
35.5651
39.7917
43.6924
46.5276
48.7536
50.4353
51.6462
52.4142
52.8329
52.5911
51.7621
50.0243
47.3671
44.2203
40.9145
37.992
35.9022
34.7768
34.4956
34.8601
35.8165
37.0207
38.4607
39.0626
39.8926
40.0068
40.6304
40.6201
40.6872
40.1566
39.6016
44.4686
52.0115
53.1001
55.0481
53.9848
52.6526
50.201
46.1252
40.7393
35.1384
33.0773
30.5212
27.3898
24.6721
22.4639
21.1
19.0829
16.3415
14.477
14.188
13.2257
11.8284
12.1124
14.8699
16.9024
17.6081
18.2055
17.0705
23.9544
23.4025
21.5787
20.1561
19.4497
19.3813
19.5902
19.8128
20.0636
20.3347
20.5648
20.6544
20.6556
20.6295
20.5854
20.5612
20.5775
20.6295
20.6234
20.5988
20.6152
20.686
20.711
20.5969
20.4815
20.4195
20.3555
20.1717
19.8508
19.5663
19.392
19.2014
18.9551
18.6182
18.3652
18.2775
18.2013
18.0722
17.9686
17.9196
17.9797
18.0741
18.1231
18.2096
18.3099
18.4408
18.584
18.6796
18.7919
18.9451
19.1519
19.407
19.6858
20.0245
20.4019
20.8291
21.2763
21.7522
22.2415
22.722
23.239
23.7015
24.1589
24.6066
24.961
25.3693
25.6349
25.8524
26.0479
26.0996
26.2366
26.1841
26.0898
26.0002
25.7732
25.5145
25.1069
24.7093
24.2126
23.4226
22.5731
21.4854
20.1564
18.523
16.5407
14.4387
12.0202
9.46208
6.88237
4.37409
2.00703
0.0248649
-1.38859
-2.23482
-2.2814
-1.64213
-0.0841252
2.29905
5.19005
8.64225
12.2005
15.65
19.0602
22.1371
25.0191
27.9325
30.6297
33.1758
35.6709
37.3664
36.9758
34.2108
30.4068
27.6852
27.2692
28.4867
29.5953
29.3252
28.1924
26.0821
23.2115
19.6579
15.578
11.2286
6.00158
1.18727
-3.07349
-7.06713
-9.3728
-10.5508
-11.4154
-9.81361
-7.66247
-5.66244
-1.03038
4.21259
9.01992
14.6424
21.0248
26.5582
31.9619
36.6276
40.5304
44.01
46.6608
48.7067
50.2764
51.3322
51.99
52.265
52.1751
51.4009
49.6702
47.0551
43.8374
40.5933
37.8699
35.9703
34.9362
34.8976
35.4279
36.4928
37.5976
38.8694
39.2707
40.5927
40.131
42.2213
40.4708
43.0678
45.2975
50.1724
52.8465
59.5667
59.4597
60.6382
58.6098
56.1336
53.3668
49.9517
44.9457
39.2826
35.954
32.9619
29.9428
26.818
24.6188
22.7279
20.8344
18.3704
16.3585
15.9523
15.2071
14.0093
14.173
16.7189
18.7074
19.6913
20.1266
18.622
23.0578
22.591
21.3987
20.4192
19.9247
19.8306
20.0023
20.1534
20.2934
20.4322
20.5218
20.5734
20.5559
20.5271
20.4912
20.4859
20.5217
20.5618
20.5766
20.5865
20.613
20.6662
20.702
20.6414
20.5735
20.489
20.3872
20.2271
19.9532
19.7229
19.5155
19.2812
19.0461
18.7522
18.5321
18.3887
18.2446
18.1286
18.031
17.9718
17.9946
18.0447
18.094
18.1934
18.3016
18.4363
18.5765
18.6875
18.8282
18.9781
19.1552
19.3956
19.6569
19.9614
20.3172
20.7045
21.1416
21.5742
22.0451
22.5285
23.0214
23.505
23.9755
24.4626
24.89
25.3233
25.6861
25.9974
26.2982
26.5009
26.7066
26.8275
26.8241
26.854
26.7944
26.5607
26.2761
25.9689
25.5473
24.83
23.9003
22.7967
21.3914
19.6711
17.6614
15.4833
12.987
10.37
7.73585
5.1941
2.86535
0.848059
-0.599124
-1.46292
-1.54931
-0.955676
0.511236
2.79518
5.51977
8.69382
12.0031
15.301
18.4942
21.3726
24.2071
26.9887
29.4444
31.9086
34.4214
35.9869
35.1771
31.8261
27.5387
25.31
26.3139
28.5376
30.281
30.7064
30.4442
28.5249
25.6088
22.1061
18.2888
14.1204
9.42829
5.10372
0.988625
-2.75017
-5.01294
-6.5759
-7.56011
-6.13122
-4.94696
-2.31149
3.25912
5.44316
11.4665
16.9451
23.1336
28.1112
33.1216
37.4093
40.9818
44.2386
46.6666
48.5607
49.9628
50.9035
51.476
51.6619
51.6836
50.9926
49.3461
46.8408
43.7512
40.7059
38.0994
36.3252
35.5511
35.4693
36.0888
37.1054
38.1404
39.3833
39.8665
41.6491
40.7123
44.1281
42.3424
47.5941
50.5592
59.0143
58.9832
62.5696
63.037
63.6513
62.0648
59.2468
56.6117
53.1753
48.536
42.7532
38.6144
35.2378
31.6794
28.5875
26.3695
23.9434
22.6785
20.4953
18.4767
17.9986
17.1426
15.8947
15.685
17.6776
19.8179
20.9006
21.1246
19.8825
22.2104
21.8691
21.2932
20.7764
20.4988
20.3819
20.3985
20.4321
20.4595
20.4872
20.4898
20.4994
20.4724
20.448
20.4386
20.4444
20.4713
20.4999
20.5333
20.5806
20.6252
20.6912
20.7247
20.6997
20.6627
20.5715
20.4349
20.2603
20.0142
19.7943
19.5623
19.3083
19.0888
18.8478