/*--------------------------------*- C++ -*----------------------------------*\
| =========                 |                                                 |
| \\      /  F ield         | OpenFOAM: The Open Source CFD Toolbox           |
|  \\    /   O peration     | Version:  2.4.0                                 |
|   \\  /    A nd           | Web:      www.OpenFOAM.org                      |
|    \\/     M anipulation  |                                                 |
\*---------------------------------------------------------------------------*/
FoamFile
{
    version     2.0;
    format      ascii;
    class       surfaceScalarField;
    location    "0.67";
    object      phi;
}
// * * * * * * * * * * * * * * * * * * * * * * * * * * * * * * * * * * * * * //

dimensions      [0 3 -1 0 0 0 0];

internalField   nonuniform List<scalar> 
17320
(
1.77291e-05
7.27087e-06
1.1536e-05
6.19317e-06
8.71067e-06
2.82528e-06
7.29471e-06
1.41596e-06
6.79505e-06
4.99654e-07
6.26862e-06
5.2643e-07
6.19382e-06
7.48032e-08
5.82562e-06
3.68198e-07
5.81694e-06
8.68329e-09
5.61765e-06
1.99294e-07
5.56012e-06
5.75305e-08
5.47747e-06
8.26414e-08
5.4748e-06
2.67728e-09
5.20131e-06
2.73489e-07
5.5179e-06
-3.16589e-07
5.00853e-06
5.09364e-07
5.44289e-06
-4.34361e-07
4.89686e-06
5.4603e-07
5.02667e-06
-1.29805e-07
-2.23631e-07
5.2503e-06
2.55569e-05
6.714e-06
2.3131e-05
8.61904e-06
2.10424e-05
4.91392e-06
1.92991e-05
3.15922e-06
1.81527e-05
1.64604e-06
1.70756e-05
1.60357e-06
1.65086e-05
6.41813e-07
1.57681e-05
1.10863e-06
1.55107e-05
2.66133e-07
1.50301e-05
6.79871e-07
1.486e-05
2.2764e-07
1.45797e-05
3.62983e-07
1.44339e-05
1.48411e-07
1.4128e-05
5.79443e-07
1.43296e-05
-5.18247e-07
1.3766e-05
1.07303e-06
1.42846e-05
-9.53041e-07
1.35637e-05
1.26699e-06
1.39996e-05
-5.65729e-07
3.67497e-08
1.37392e-05
2.66629e-05
5.05109e-06
2.71127e-05
8.16924e-06
2.68791e-05
5.14752e-06
2.62951e-05
3.74329e-06
2.56594e-05
2.28173e-06
2.48758e-05
2.38713e-06
2.42931e-05
1.22454e-06
2.35116e-05
1.89006e-06
2.32089e-05
5.68922e-07
2.25514e-05
1.33729e-06
2.23796e-05
3.99499e-07
2.19784e-05
7.6413e-07
2.16803e-05
4.46501e-07
2.14474e-05
8.12424e-07
2.14195e-05
-4.90435e-07
2.09637e-05
1.52887e-06
2.14275e-05
-1.41678e-06
2.07442e-05
1.95029e-06
2.13449e-05
-1.16644e-06
6.91679e-07
2.06899e-05
2.61909e-05
3.86021e-06
2.76274e-05
6.73275e-06
2.81138e-05
4.66114e-06
2.85218e-05
3.33525e-06
2.86842e-05
2.1193e-06
2.85938e-05
2.47753e-06
2.86411e-05
1.17728e-06
2.81208e-05
2.41035e-06
2.83831e-05
3.0664e-07
2.77203e-05
2.00001e-06
2.78738e-05
2.46046e-07
2.75466e-05
1.09137e-06
2.7281e-05
7.12105e-07
2.71202e-05
9.73192e-07
2.70512e-05
-4.21425e-07
2.66936e-05
1.88646e-06
2.71104e-05
-1.83363e-06
2.64076e-05
2.65307e-06
2.73306e-05
-2.08938e-06
2.12591e-06
2.58964e-05
2.55432e-05
3.31698e-06
2.71769e-05
5.09904e-06
2.77404e-05
4.09768e-06
2.83332e-05
2.74248e-06
2.89826e-05
1.46989e-06
2.9073e-05
2.38708e-06
2.999e-05
2.60276e-07
2.93602e-05
3.04016e-06
3.04523e-05
-7.85455e-07
2.9873e-05
2.57929e-06
3.02669e-05
-1.47797e-07
3.02249e-05
1.13337e-06
3.04255e-05
5.11482e-07
3.02073e-05
1.19138e-06
3.03207e-05
-5.34784e-07
3.01519e-05
2.05526e-06
3.06776e-05
-2.35936e-06
2.95602e-05
3.77044e-06
3.11335e-05
-3.66263e-06
2.77948e-06
3.04799e-05
2.54935e-05
2.82349e-06
2.65113e-05
4.08125e-06
2.75849e-05
3.02404e-06
2.77991e-05
2.52826e-06
2.87268e-05
5.42197e-07
2.85498e-05
2.56414e-06
3.00893e-05
-1.27924e-06
2.91226e-05
4.00688e-06
3.03404e-05
-2.00334e-06
3.00918e-05
2.82794e-06
3.01349e-05
-1.90888e-07
3.01841e-05
1.08415e-06
3.10132e-05
-3.17603e-07
3.05319e-05
1.67267e-06
3.07647e-05
-7.6761e-07
3.0495e-05
2.32503e-06
3.17009e-05
-3.56526e-06
2.99596e-05
5.51167e-06
3.07831e-05
-4.48616e-06
3.12656e-06
3.04361e-05
2.58427e-05
1.98076e-06
2.64027e-05
3.52126e-06
2.75915e-05
1.83523e-06
2.79496e-05
2.17019e-06
2.83336e-05
1.5825e-07
2.84071e-05
2.4906e-06
2.95166e-05
-2.38872e-06
2.86742e-05
4.84926e-06
2.98073e-05
-3.13647e-06
2.96902e-05
2.94505e-06
2.9526e-05
-2.66912e-08
2.95899e-05
1.02026e-06
3.05221e-05
-1.24975e-06
2.98307e-05
2.36405e-06
3.01747e-05
-1.11159e-06
2.9668e-05
2.83171e-06
3.09578e-05
-4.85509e-06
2.97736e-05
6.69587e-06
2.94321e-05
-4.14468e-06
2.31907e-06
3.02396e-05
2.57348e-05
1.24596e-06
2.64536e-05
2.80241e-06
2.74068e-05
8.82041e-07
2.82811e-05
1.29591e-06
2.79158e-05
5.23534e-07
2.88118e-05
1.5946e-06
2.88894e-05
-2.46631e-06
2.84891e-05
5.24954e-06
2.97309e-05
-4.37825e-06
2.89784e-05
3.69752e-06
2.92318e-05
-2.80047e-07
2.93459e-05
9.06207e-07
2.98534e-05
-1.75726e-06
2.93151e-05
2.90235e-06
2.95121e-05
-1.30861e-06
2.9387e-05
2.95683e-06
2.97511e-05
-5.21921e-06
2.97713e-05
6.67563e-06
2.92477e-05
-3.62109e-06
1.8471e-06
2.97197e-05
2.59493e-05
2.9662e-07
2.62675e-05
2.48425e-06
2.74338e-05
-2.84209e-07
2.79421e-05
7.8755e-07
2.76622e-05
8.03463e-07
2.92596e-05
-2.81131e-09
2.80104e-05
-1.21707e-06
2.8978e-05
4.28188e-06
2.92836e-05
-4.6838e-06
2.81438e-05
4.8373e-06
2.94762e-05
-1.61247e-06
2.89475e-05
1.43492e-06
2.90317e-05
-1.84149e-06
2.91553e-05
2.77882e-06
2.89706e-05
-1.12392e-06
2.99245e-05
2.00293e-06
2.8813e-05
-4.10774e-06
2.96658e-05
5.82281e-06
2.97529e-05
-3.70813e-06
1.93544e-06
2.96645e-05
2.61761e-05
-8.79438e-07
2.63406e-05
2.31968e-06
2.76882e-05
-1.6318e-06
2.77498e-05
7.25921e-07
2.80435e-05
5.09797e-07
2.89603e-05
-9.19547e-07
2.80555e-05
-3.1233e-07
2.9721e-05
2.6164e-06
2.88703e-05
-3.83312e-06
2.89619e-05
4.7457e-06
3.01584e-05
-2.809e-06
2.92326e-05
2.36071e-06
2.95485e-05
-2.15741e-06
2.99392e-05
2.38821e-06
2.9688e-05
-8.72781e-07
3.14906e-05
2.00323e-07
2.97329e-05
-2.34997e-06
3.10823e-05
4.47334e-06
3.08412e-05
-3.46697e-06
7.12734e-07
3.20639e-05
2.59046e-05
-1.78402e-06
2.68111e-05
1.41315e-06
2.79779e-05
-2.79856e-06
2.81058e-05
5.98034e-07
2.88696e-05
-2.5401e-07
2.87714e-05
-8.21427e-07
2.90202e-05
-5.6113e-07
2.99608e-05
1.6758e-06
2.93111e-05
-3.18335e-06
3.04301e-05
3.62667e-06
3.06317e-05
-3.01057e-06
3.05013e-05
2.4911e-06
3.08905e-05
-2.54665e-06
3.14105e-05
1.86824e-06
3.12857e-05
-7.4796e-07
3.24358e-05
-9.49773e-07
3.13073e-05
-1.22153e-06
3.3364e-05
2.4167e-06
3.19632e-05
-2.06615e-06
-1.15676e-06
3.38327e-05
2.55495e-05
-2.33355e-06
2.67281e-05
2.34557e-07
2.76662e-05
-3.73661e-06
2.80461e-05
2.18108e-07
2.88584e-05
-1.06632e-06
2.86486e-05
-6.11661e-07
2.92493e-05
-1.16174e-06
2.97661e-05
1.15896e-06
2.96874e-05
-3.10466e-06
3.08058e-05
2.50827e-06
3.04426e-05
-2.64737e-06
3.13239e-05
1.60981e-06
3.0983e-05
-2.20578e-06
3.18979e-05
9.53399e-07
3.18823e-05
-7.32437e-07
3.21598e-05
-1.22722e-06
3.1677e-05
-7.38704e-07
3.33617e-05
7.31926e-07
3.2124e-05
-8.28468e-07
-2.23233e-06
3.31996e-05
2.54098e-05
-2.74335e-06
2.67715e-05
-1.12715e-06
2.73911e-05
-4.35616e-06
2.80265e-05
-4.17303e-07
2.84789e-05
-1.51873e-06
2.87093e-05
-8.42125e-07
2.8886e-05
-1.33839e-06
2.98059e-05
2.39089e-07
2.94748e-05
-2.77362e-06
3.03213e-05
1.6618e-06
3.02237e-05
-2.54974e-06
3.09718e-05
8.61714e-07
3.03257e-05
-1.55973e-06
3.15331e-05
-2.54032e-07
3.12548e-05
-4.54056e-07
3.1379e-05
-1.35146e-06
3.13075e-05
-6.67227e-07
3.22615e-05
-2.22061e-07
3.20938e-05
-6.60751e-07
-2.20144e-06
3.20629e-05
2.54213e-05
-3.16461e-06
2.68497e-05
-2.55561e-06
2.74294e-05
-4.93579e-06
2.80805e-05
-1.06847e-06
2.85465e-05
-1.98468e-06
2.88982e-05
-1.19389e-06
2.88967e-05
-1.3369e-06
2.9946e-05
-8.10191e-07
2.93394e-05
-2.16703e-06
3.01478e-05
8.5346e-07
3.01775e-05
-2.57948e-06
3.06833e-05
3.55953e-07
3.02782e-05
-1.15464e-06
3.11406e-05
-1.11641e-06
3.10301e-05
-3.43579e-07
3.10941e-05
-1.41544e-06
3.10797e-05
-6.52837e-07
3.18115e-05
-9.53884e-07
3.20153e-05
-8.64513e-07
-2.14972e-06
3.19635e-05
2.55457e-05
-3.71033e-06
2.70639e-05
-4.07377e-06
2.7517e-05
-5.38889e-06
2.83042e-05
-1.85568e-06
2.87125e-05
-2.39301e-06
2.90841e-05
-1.56551e-06
2.9253e-05
-1.50573e-06
2.99536e-05
-1.51082e-06
2.95462e-05
-1.75964e-06
3.03647e-05
3.49955e-08
3.02572e-05
-2.47201e-06
3.06594e-05
-4.6276e-08
3.04907e-05
-9.8593e-07
3.09468e-05
-1.57248e-06
3.09774e-05
-3.742e-07
3.0903e-05
-1.34103e-06
3.09914e-05
-7.41187e-07
3.14466e-05
-1.40912e-06
3.17056e-05
-1.12351e-06
-1.92978e-06
3.14856e-05
2.57681e-05
-4.47839e-06
2.73791e-05
-5.68483e-06
2.76923e-05
-5.70211e-06
2.85876e-05
-2.75097e-06
2.8886e-05
-2.69138e-06
2.92906e-05
-1.9701e-06
2.95158e-05
-1.73091e-06
2.97333e-05
-1.72836e-06
2.96012e-05
-1.62755e-06
3.0135e-05
-4.98729e-07
2.97493e-05
-2.08638e-06
3.00367e-05
-3.33633e-07
2.98977e-05
-8.47007e-07
2.98533e-05
-1.528e-06
2.986e-05
-3.80902e-07
2.9624e-05
-1.10507e-06
2.96158e-05
-7.32969e-07
2.96412e-05
-1.43452e-06
2.95824e-05
-1.06476e-06
-1.53371e-06
2.91864e-05
2.61257e-05
-5.60407e-06
2.76612e-05
-7.22032e-06
2.78722e-05
-5.91316e-06
2.85033e-05
-3.38209e-06
2.85044e-05
-2.69241e-06
2.85798e-05
-2.04551e-06
2.84506e-05
-1.60176e-06
2.81498e-05
-1.42749e-06
2.78798e-05
-1.35759e-06
2.78551e-05
-4.74076e-07
2.72176e-05
-1.44879e-06
2.72616e-05
-3.7763e-07
2.69144e-05
-4.99868e-07
2.65174e-05
-1.13098e-06
2.64256e-05
-2.89083e-07
2.6031e-05
-7.10504e-07
2.58538e-05
-5.55791e-07
2.55063e-05
-1.08704e-06
2.52299e-05
-7.88277e-07
-1.20154e-06
2.48977e-05
2.64832e-05
-7.08726e-06
2.72248e-05
-7.96193e-06
2.665e-05
-5.33835e-06
2.62531e-05
-2.98523e-06
2.54894e-05
-1.92868e-06
2.48081e-05
-1.3642e-06
2.41301e-05
-9.23795e-07
2.34517e-05
-7.49044e-07
2.28768e-05
-7.82746e-07
2.25559e-05
-1.53185e-07
2.18853e-05
-7.78114e-07
2.17335e-05
-2.25895e-07
2.13724e-05
-1.38744e-07
2.09145e-05
-6.7303e-07
2.07687e-05
-1.43361e-07
2.03961e-05
-3.37906e-07
2.0162e-05
-3.21695e-07
1.96928e-05
-6.1781e-07
1.93297e-05
-4.25164e-07
-3.8771e-07
1.85159e-05
2.53504e-05
-7.43763e-06
2.32946e-05
-5.90616e-06
2.09325e-05
-2.97622e-06
1.92961e-05
-1.34888e-06
1.80023e-05
-6.34877e-07
1.70422e-05
-4.04129e-07
1.63411e-05
-2.22674e-07
1.57658e-05
-1.737e-07
1.52418e-05
-2.58772e-07
1.50428e-05
4.58086e-08
1.45276e-05
-2.62943e-07
1.43781e-05
-7.63071e-08
1.41964e-05
4.28963e-08
1.37924e-05
-2.68973e-07
1.36791e-05
-3.01066e-08
1.34274e-05
-8.62198e-08
1.32107e-05
-1.04959e-07
1.28179e-05
-2.25038e-07
1.25691e-05
-1.76378e-07
-3.13813e-08
1.22128e-05
1.75624e-05
1.16562e-05
8.67999e-06
7.33111e-06
6.69624e-06
6.29211e-06
6.06943e-06
5.89573e-06
5.63696e-06
5.68277e-06
5.41983e-06
5.34352e-06
5.38642e-06
5.11744e-06
5.08734e-06
5.00112e-06
4.89616e-06
4.67112e-06
4.49474e-06
4.46336e-06
5.5117e-06
7.56225e-08
-3.37027e-07
5.81533e-06
2.76582e-07
-5.80203e-07
6.20547e-06
1.53967e-07
-5.4411e-07
6.54741e-06
2.32093e-07
-5.7403e-07
6.90721e-06
-4.22025e-08
-3.17598e-07
7.17613e-06
-5.58536e-08
-2.13071e-07
7.46242e-06
-3.57917e-07
7.163e-08
7.7105e-06
-2.80324e-07
3.22455e-08
7.9456e-06
-5.27101e-07
2.91999e-07
8.14319e-06
-4.81025e-07
2.8343e-07
8.36261e-06
-7.51543e-07
5.32125e-07
8.52882e-06
-6.39586e-07
4.73376e-07
8.69036e-06
-8.16928e-07
6.55388e-07
8.75809e-06
-6.19617e-07
5.51888e-07
8.79853e-06
-7.65639e-07
7.25198e-07
8.74852e-06
-5.59478e-07
6.09487e-07
8.70316e-06
-7.11365e-07
7.56723e-07
8.59967e-06
-4.55722e-07
5.59212e-07
8.56167e-06
-5.64598e-07
6.026e-07
8.48105e-06
-1.80372e-07
2.60988e-07
8.52161e-06
-2.09845e-07
1.6929e-07
8.4892e-06
2.79907e-07
-2.47496e-07
8.57548e-06
3.0346e-07
-3.89744e-07
8.59198e-06
8.44351e-07
-8.60852e-07
8.73365e-06
8.20445e-07
-9.62114e-07
8.79322e-06
1.29432e-06
-1.35389e-06
9.00225e-06
1.11746e-06
-1.32649e-06
9.12972e-06
1.47232e-06
-1.59979e-06
9.41459e-06
1.1431e-06
-1.42796e-06
9.63223e-06
1.35749e-06
-1.57513e-06
9.99746e-06
8.78609e-07
-1.24384e-06
1.02971e-05
9.87232e-07
-1.28691e-06
1.07115e-05
3.98082e-07
-8.12493e-07
1.10226e-05
4.70774e-07
-7.81832e-07
1.14044e-05
-1.52856e-07
-2.28914e-07
1.1703e-05
-5.25589e-08
-2.46069e-07
1.20691e-05
-6.2628e-07
2.60173e-07
1.23209e-05
-4.40033e-07
1.88266e-07
1.26529e-05
-9.40017e-07
6.08018e-07
1.28652e-05
-6.28301e-07
4.16024e-07
1.31411e-05
-1.04922e-06
7.73223e-07
1.33267e-05
-6.28033e-07
4.42491e-07
1.35826e-05
-9.82133e-07
7.26185e-07
1.37821e-05
-4.92475e-07
2.93012e-07
1.40554e-05
-7.91377e-07
5.18118e-07
1.42871e-05
-3.19736e-07
8.79995e-08
1.46383e-05
-6.70215e-07
3.19021e-07
1.49137e-05
-2.19951e-07
-5.54146e-08
1.53397e-05
-7.09795e-07
2.83772e-07
1.5634e-05
-4.01228e-07
1.0691e-07
1.60138e-05
-1.09899e-06
7.1917e-07
1.62228e-05
-9.83995e-07
7.74987e-07
1.64826e-05
-1.81555e-06
1.55576e-06
1.64957e-05
-1.74282e-06
1.72971e-06
1.65266e-05
-2.56809e-06
2.5372e-06
1.63775e-05
-2.3174e-06
2.46654e-06
1.63456e-05
-3.03517e-06
3.06702e-06
1.62059e-05
-2.8631e-06
3.00283e-06
1.62063e-05
-3.45746e-06
3.45705e-06
1.59413e-05
-2.84928e-06
3.11426e-06
1.53236e-05
-2.74083e-06
3.35858e-06
1.43464e-05
-1.74788e-06
2.72508e-06
1.32508e-05
-1.70029e-06
2.79583e-06
1.23386e-05
-8.7751e-07
1.78978e-06
1.20514e-05
-8.64292e-07
1.15145e-06
1.2222e-05
3.18921e-07
-4.89528e-07
1.28937e-05
9.06551e-07
-1.57825e-06
1.34277e-05
2.61878e-06
-3.15274e-06
1.38665e-05
3.38037e-06
-3.81919e-06
1.40576e-05
4.71559e-06
-4.90669e-06
1.41669e-05
4.9463e-06
-5.05564e-06
1.42289e-05
5.67322e-06
-5.73514e-06
1.44618e-05
5.30166e-06
-5.53459e-06
1.48169e-05
5.5368e-06
-5.8919e-06
1.52725e-05
4.79234e-06
-5.24801e-06
1.59833e-05
4.54238e-06
-5.25317e-06
1.65998e-05
3.63811e-06
-4.25454e-06
1.75002e-05
2.8792e-06
-3.77961e-06
1.83164e-05
1.88841e-06
-2.70468e-06
1.94019e-05
7.53666e-07
-1.83915e-06
2.03336e-05
-2.69454e-07
-6.62255e-07
2.14596e-05
-1.53954e-06
4.13526e-07
2.2518e-05
-2.57473e-06
1.51633e-06
2.35706e-05
-3.61581e-06
2.56324e-06
2.45062e-05
-4.53616e-06
3.6006e-06
2.54215e-05
-5.19351e-06
4.27819e-06
2.61884e-05
-5.97432e-06
5.20737e-06
2.70011e-05
-6.75333e-06
5.94067e-06
2.7729e-05
-7.32853e-06
6.60066e-06
2.84942e-05
-8.2146e-06
7.44934e-06
2.91503e-05
-8.97134e-06
8.31523e-06
2.99035e-05
-9.92773e-06
9.17456e-06
3.04706e-05
-1.10358e-05
1.04687e-05
3.08507e-05
-1.18118e-05
1.14318e-05
3.1088e-05
-1.26873e-05
1.24499e-05
3.09035e-05
-1.29829e-05
1.31675e-05
3.0509e-05
-1.29786e-05
1.33731e-05
2.98714e-05
-1.27989e-05
1.34366e-05
2.90621e-05
-1.23513e-05
1.31606e-05
2.8082e-05
-1.18937e-05
1.28738e-05
2.70796e-05
-1.14227e-05
1.24251e-05
2.60253e-05
-1.09042e-05
1.19586e-05
2.50453e-05
-1.05206e-05
1.15005e-05
2.4097e-05
-1.03408e-05
1.1289e-05
2.31197e-05
-9.87174e-06
1.08491e-05
2.25586e-05
-1.00749e-05
1.06359e-05
2.21038e-05
-1.03816e-05
1.08365e-05
2.18579e-05
-1.07745e-05
1.10204e-05
2.17732e-05
-1.15436e-05
1.16283e-05
2.17829e-05
-1.24453e-05
1.24356e-05
2.161e-05
-1.32262e-05
1.33991e-05
2.15526e-05
-1.40228e-05
1.40801e-05
2.1485e-05
-1.50363e-05
1.5104e-05
2.13045e-05
-1.57929e-05
1.59734e-05
2.12103e-05
-1.65884e-05
1.66826e-05
2.11458e-05
-1.7114e-05
1.71786e-05
2.10921e-05
-1.74654e-05
1.7519e-05
2.09269e-05
-1.74913e-05
1.76566e-05
2.08045e-05
-1.74932e-05
1.76155e-05
2.10702e-05
-1.78649e-05
1.75993e-05
2.17887e-05
-1.84522e-05
1.77337e-05
2.28564e-05
-1.89697e-05
1.7902e-05
2.40633e-05
-1.87143e-05
1.75074e-05
2.51165e-05
-1.72475e-05
1.61943e-05
2.59798e-05
-1.52057e-05
1.43425e-05
2.68291e-05
-1.31218e-05
1.22725e-05
2.72884e-05
-1.01038e-05
9.64462e-06
2.74162e-05
-5.95593e-06
5.82807e-06
2.7429e-05
-2.3254e-06
2.31264e-06
2.7409e-05
4.2428e-07
-4.04322e-07
2.7207e-05
3.24977e-06
-3.04778e-06
2.69856e-05
5.77767e-06
-5.55624e-06
2.67249e-05
7.37377e-06
-7.11306e-06
2.65736e-05
9.09406e-06
-8.94277e-06
2.6769e-05
1.10023e-05
-1.11977e-05
2.70023e-05
1.29279e-05
-1.31612e-05
2.69488e-05
1.54004e-05
-1.5347e-05
2.671e-05
1.70469e-05
-1.68081e-05
2.58627e-05
1.76434e-05
-1.6796e-05
2.47465e-05
1.77743e-05
-1.66581e-05
2.3719e-05
1.71412e-05
-1.61138e-05
2.26289e-05
1.5734e-05
-1.46439e-05
2.18348e-05
1.4704e-05
-1.39099e-05
2.12271e-05
1.37111e-05
-1.31034e-05
2.08459e-05
1.23673e-05
-1.1986e-05
2.02532e-05
1.15298e-05
-1.09371e-05
1.98174e-05
1.05462e-05
-1.01104e-05
1.92843e-05
9.70801e-06
-9.17497e-06
1.89682e-05
8.06099e-06
-7.74487e-06
1.85574e-05
6.92673e-06
-6.5159e-06
1.83294e-05
5.63945e-06
-5.41145e-06
1.83278e-05
4.11722e-06
-4.11561e-06
1.85604e-05
1.60955e-06
-1.84213e-06
1.84354e-05
-6.72008e-08
1.92129e-07
1.81116e-05
-4.80805e-07
8.04636e-07
1.77439e-05
1.32944e-06
-9.61715e-07
1.76213e-05
3.56655e-06
-3.44403e-06
1.76757e-05
4.54833e-06
-4.60272e-06
1.76188e-05
3.46869e-06
-3.41175e-06
1.75771e-05
1.34228e-06
-1.30059e-06
1.75088e-05
-9.60538e-07
1.02886e-06
1.74696e-05
-2.33103e-06
2.37025e-06
1.73389e-05
-2.17139e-06
2.30207e-06
1.72101e-05
-1.59965e-06
1.72838e-06
1.70893e-05
-1.45566e-06
1.57648e-06
1.69721e-05
-1.3611e-06
1.4783e-06
1.70634e-05
4.8361e-07
-5.74931e-07
1.76326e-05
4.85222e-06
-5.42134e-06
1.82774e-05
8.74226e-06
-9.3871e-06
1.86115e-05
1.07772e-05
-1.11113e-05
1.88977e-05
1.29267e-05
-1.32129e-05
1.92886e-05
1.68359e-05
-1.72268e-05
1.96823e-05
2.15491e-05
-2.19428e-05
1.92594e-05
2.58436e-05
-2.54207e-05
1.82266e-05
2.74987e-05
-2.64658e-05
1.84922e-05
2.5441e-05
-2.57066e-05
1.80945e-05
2.49226e-05
-2.45249e-05
1.55545e-05
2.32913e-05
-2.07512e-05
1.72946e-05
1.70326e-05
-1.87728e-05
1.61979e-05
1.98257e-05
-1.8729e-05
1.65746e-05
1.17593e-05
-1.2136e-05
1.68037e-05
1.4621e-05
-1.48502e-05
1.86026e-05
5.6708e-06
-7.46964e-06
1.75079e-05
1.20164e-05
-1.09217e-05
2.07864e-05
4.94759e-07
-3.77326e-06
1.87544e-05
1.09256e-05
-8.89364e-06
2.0375e-05
-2.09094e-06
4.70361e-07
1.88631e-05
9.26705e-06
-7.75517e-06
1.92377e-05
-3.04431e-06
2.66979e-06
1.80676e-05
6.81031e-06
-5.64028e-06
1.75545e-05
-5.7459e-06
6.25907e-06
1.6419e-05
1.58872e-06
-4.53277e-07
1.6052e-05
-8.29629e-06
8.66327e-06
1.36593e-05
1.878e-06
5.14762e-07
1.27575e-05
-6.59123e-06
7.49297e-06
9.42866e-06
3.05944e-06
2.69444e-07
9.78889e-06
-8.35553e-06
7.9953e-06
8.4427e-06
-7.556e-07
2.10179e-06
1.07831e-05
-8.88864e-06
6.54824e-06
5.344e-07
-4.48283e-06
1.47315e-05
1.38881e-05
-7.32124e-08
1.38882e-05
2.76476e-07
1.3934e-05
1.0809e-07
1.40187e-05
1.47463e-07
1.42325e-05
-2.5599e-07
1.43893e-05
-2.12682e-07
1.46028e-05
-5.7139e-07
1.47829e-05
-4.60469e-07
1.50173e-05
-7.6154e-07
1.51629e-05
-6.26563e-07
1.53401e-05
-9.28725e-07
1.54269e-05
-7.26417e-07
1.55487e-05
-9.3877e-07
1.55306e-05
-6.01471e-07
1.55057e-05
-7.40793e-07
1.53415e-05
-3.95213e-07
1.51929e-05
-5.62836e-07
1.49342e-05
-1.96934e-07
1.4741e-05
-3.71456e-07
1.44757e-05
8.49822e-08
1.43271e-05
-6.13049e-08
1.41556e-05
4.51477e-07
1.41017e-05
3.57358e-07
1.40509e-05
8.95093e-07
1.40974e-05
7.73983e-07
1.41614e-05
1.2303e-06
1.43184e-05
9.6044e-07
1.44995e-05
1.29128e-06
1.47617e-05
8.80822e-07
1.50441e-05
1.07508e-06
1.54025e-05
5.20265e-07
1.57502e-05
6.39477e-07
1.61691e-05
-2.0756e-08
1.6518e-05
1.21878e-07
1.69352e-05
-5.70086e-07
1.72551e-05
-3.72464e-07
1.76492e-05
-1.02033e-06
1.79262e-05
-7.17058e-07
1.82783e-05
-1.29215e-06
1.85112e-05
-8.61221e-07
1.88381e-05
-1.37609e-06
1.90147e-05
-8.04614e-07
1.93062e-05
-1.2736e-06
1.94539e-05
-6.40172e-07
1.9732e-05
-1.06949e-06
1.98661e-05
-4.53868e-07
2.01264e-05
-9.30534e-07
2.02862e-05
-3.79752e-07
2.05423e-05
-9.65916e-07
2.07528e-05
-6.11675e-07
2.09708e-05
-1.31695e-06
2.1131e-05
-1.14421e-06
2.12188e-05
-1.90335e-06
2.13272e-05
-1.8512e-06
2.12536e-05
-2.49455e-06
2.12798e-05
-2.34361e-06
2.10943e-05
-2.84963e-06
2.08441e-05
-2.61294e-06
2.02404e-05
-2.8537e-06
1.96529e-05
-2.26181e-06
1.92e-05
-2.28793e-06
1.89761e-05
-1.52396e-06
1.88004e-05
-1.52456e-06
1.83201e-05
-3.97213e-07
1.75572e-05
-1.0144e-07
1.67012e-05
1.17495e-06
1.6166e-05
1.44171e-06
1.62473e-05
2.53747e-06
1.67435e-05
2.88424e-06
1.74743e-05
3.98477e-06
1.81474e-05
4.27313e-06
1.88143e-05
5.00641e-06
1.92797e-05
4.83625e-06
1.99296e-05
4.8869e-06
2.03265e-05
4.39542e-06
2.10405e-05
3.82837e-06
2.16086e-05
3.07001e-06
2.24313e-05
2.05648e-06
2.3219e-05
1.10078e-06
2.41269e-05
-1.5429e-07
2.49365e-05
-1.07899e-06
2.58218e-05
-2.42482e-06
2.65963e-05
-3.34925e-06
2.73194e-05
-4.33895e-06
2.79944e-05
-5.21116e-06
2.86014e-05
-5.80051e-06
2.9221e-05
-6.59385e-06
2.97935e-05
-7.32588e-06
3.0432e-05
-7.96703e-06
3.11858e-05
-8.96842e-06
3.17577e-05
-9.54318e-06
3.24131e-05
-1.05831e-05
3.27677e-05
-1.13904e-05
3.29086e-05
-1.19528e-05
3.27867e-05
-1.25653e-05
3.21907e-05
-1.23869e-05
3.14242e-05
-1.22121e-05
3.0476e-05
-1.18508e-05
2.93509e-05
-1.12262e-05
2.82727e-05
-1.08155e-05
2.72038e-05
-1.03538e-05
2.60287e-05
-9.72912e-06
2.51094e-05
-9.60129e-06
2.40676e-05
-9.29894e-06
2.33748e-05
-9.17902e-06
2.30001e-05
-9.70016e-06
2.2556e-05
-9.93753e-06
2.23182e-05
-1.05367e-05
2.21348e-05
-1.13602e-05
2.18304e-05
-1.21409e-05
2.13212e-05
-1.2717e-05
2.09761e-05
-1.36776e-05
2.05756e-05
-1.46359e-05
2.02436e-05
-1.54609e-05
2.00122e-05
-1.6357e-05
1.97089e-05
-1.68107e-05
1.92584e-05
-1.70149e-05
1.8726e-05
-1.69589e-05
1.86272e-05
-1.73944e-05
1.91131e-05
-1.83509e-05
2.01026e-05
-1.94418e-05
2.12308e-05
-2.00978e-05
2.23126e-05
-1.97962e-05
2.31386e-05
-1.80735e-05
2.37185e-05
-1.57857e-05
2.42513e-05
-1.36546e-05
2.45883e-05
-1.04409e-05
2.48854e-05
-6.25299e-06
2.48632e-05
-2.30318e-06
2.45982e-05
6.89227e-07
2.44048e-05
3.4432e-06
2.45888e-05
5.59369e-06
2.44458e-05
7.51677e-06
2.42059e-05
9.33398e-06
2.42947e-05
1.09135e-05
2.45712e-05
1.26514e-05
2.46079e-05
1.53637e-05
2.44419e-05
1.72129e-05
2.38405e-05
1.82448e-05
2.29689e-05
1.86459e-05
2.21521e-05
1.79581e-05
2.12648e-05
1.66212e-05
2.06394e-05
1.53294e-05
2.00478e-05
1.43027e-05
1.97234e-05
1.26917e-05
1.93409e-05
1.19123e-05
1.89073e-05
1.09798e-05
1.87947e-05
9.82067e-06
1.85252e-05
8.33048e-06
1.8177e-05
7.27492e-06
1.77876e-05
6.02888e-06
1.81139e-05
3.79084e-06
1.83782e-05
1.34527e-06
1.84271e-05
-1.16029e-07
1.80368e-05
-9.05496e-08
1.80492e-05
1.31703e-06
1.81808e-05
3.43501e-06
1.85005e-05
4.22863e-06
1.83726e-05
3.59652e-06
1.81765e-05
1.53838e-06
1.79846e-05
-7.68614e-07
1.80208e-05
-2.36719e-06
1.80107e-05
-2.16129e-06
1.78668e-05
-1.45583e-06
1.74663e-05
-1.05514e-06
1.7087e-05
-9.81767e-07
1.6877e-05
6.93644e-07
1.7345e-05
4.38419e-06
1.80466e-05
8.04064e-06
1.85919e-05
1.02319e-05
1.91871e-05
1.23316e-05
1.97146e-05
1.63084e-05
2.00296e-05
2.12341e-05
2.05891e-05
2.52841e-05
1.96594e-05
2.84285e-05
1.80544e-05
2.7046e-05
1.94062e-05
2.35707e-05
1.76686e-05
2.50289e-05
1.73918e-05
1.73095e-05
1.75124e-05
1.97051e-05
1.90336e-05
1.02381e-05
1.71552e-05
1.64994e-05
2.12991e-05
1.52699e-06
1.94521e-05
1.38634e-05
2.09163e-05
-9.69536e-07
2.02708e-05
1.15711e-05
1.95852e-05
-1.4054e-06
2.04172e-05
8.43507e-06
1.86945e-05
-1.32156e-06
1.89972e-05
6.50759e-06
1.68118e-05
-3.56053e-06
1.72498e-05
1.15074e-06
1.44179e-05
-5.46436e-06
1.20795e-05
4.21636e-06
7.84485e-06
-2.35656e-06
7.78201e-06
3.12228e-06
6.6254e-06
-7.19892e-06
9.80993e-06
-3.94013e-06
1.01718e-05
-9.25052e-06
-4.69294e-06
1.53991e-05
2.09209e-05
-3.04221e-07
2.12014e-05
-4.02803e-09
2.14543e-05
-1.44773e-07
2.15284e-05
7.33844e-08
2.16513e-05
-3.78949e-07
2.16651e-05
-2.26478e-07
2.17275e-05
-6.33755e-07
2.1717e-05
-4.50008e-07
2.18086e-05
-8.53117e-07
2.18343e-05
-6.52218e-07
2.19107e-05
-1.00512e-06
2.18901e-05
-7.05803e-07
2.19314e-05
-9.80056e-07
2.18774e-05
-5.4752e-07
2.18691e-05
-7.32537e-07
2.1766e-05
-2.92111e-07
2.16848e-05
-4.81566e-07
2.15253e-05
-3.75064e-08
2.13656e-05
-2.11675e-07
2.11342e-05
3.16304e-07
2.09112e-05
1.61759e-07
2.06812e-05
6.8148e-07
2.04916e-05
5.46905e-07
2.03519e-05
1.03482e-06
2.03109e-05
8.14933e-07
2.03262e-05
1.21503e-06
2.0478e-05
8.08666e-07
2.06287e-05
1.14058e-06
2.08978e-05
6.11682e-07
2.11356e-05
8.37271e-07
2.14778e-05
1.78092e-07
2.1742e-05
3.75277e-07
2.21128e-05
-3.9151e-07
2.23738e-05
-1.39201e-07
2.2705e-05
-9.01289e-07
2.29239e-05
-5.91344e-07
2.32054e-05
-1.30178e-06
2.34003e-05
-9.11943e-07
2.36345e-05
-1.52639e-06
2.38016e-05
-1.02828e-06
2.4022e-05
-1.59656e-06
2.41727e-05
-9.55276e-07
2.43436e-05
-1.44447e-06
2.45023e-05
-7.98901e-07
2.46222e-05
-1.18941e-06
2.48016e-05
-6.33285e-07
2.48752e-05
-1.00407e-06
2.50798e-05
-5.84351e-07
2.51256e-05
-1.01172e-06
2.53459e-05
-8.32041e-07
2.53393e-05
-1.31033e-06
2.55439e-05
-1.3488e-06
2.54913e-05
-1.8507e-06
2.56012e-05
-1.96112e-06
2.54859e-05
-2.37925e-06
2.5443e-05
-2.30069e-06
2.51942e-05
-2.60085e-06
2.4931e-05
-2.34982e-06
2.44932e-05
-2.41584e-06
2.41847e-05
-1.95332e-06
2.37719e-05
-1.87514e-06
2.33916e-05
-1.14362e-06
2.27514e-05
-8.8442e-07
2.24125e-05
-5.82318e-08
2.18461e-05
4.64918e-07
2.15096e-05
1.51142e-06
2.08502e-05
2.10109e-06
2.04849e-05
2.90279e-06
2.01031e-05
3.26607e-06
2.03662e-05
3.72164e-06
2.06935e-05
3.94586e-06
2.15659e-05
4.13406e-06
2.22069e-05
4.19524e-06
2.3186e-05
3.90773e-06
2.39057e-05
3.67575e-06
2.4794e-05
2.94004e-06
2.55194e-05
2.34462e-06
2.63041e-05
1.27181e-06
2.70434e-05
3.61452e-07
2.77559e-05
-8.66788e-07
2.83956e-05
-1.7187e-06
2.90128e-05
-3.04198e-06
2.94722e-05
-3.80872e-06
3.00081e-05
-4.87484e-06
3.0482e-05
-5.685e-06
3.09777e-05
-6.29628e-06
3.16568e-05
-7.27287e-06
3.22288e-05
-7.89796e-06
3.29414e-05
-8.67961e-06
3.36084e-05
-9.63541e-06
3.40936e-05
-1.00284e-05
3.45474e-05
-1.10369e-05
3.45342e-05
-1.13772e-05
3.42874e-05
-1.1706e-05
3.36375e-05
-1.19154e-05
3.26668e-05
-1.14162e-05
3.16391e-05
-1.11844e-05
3.04553e-05
-1.0667e-05
2.92859e-05
-1.00569e-05
2.82389e-05
-9.7685e-06
2.69958e-05
-9.11068e-06
2.60143e-05
-8.74759e-06
2.52747e-05
-8.86167e-06
2.44456e-05
-8.46988e-06
2.41006e-05
-8.83399e-06
2.36558e-05
-9.25538e-06
2.31294e-05
-9.41113e-06
2.27018e-05
-1.01091e-05
2.22027e-05
-1.0861e-05
2.13645e-05
-1.13027e-05
2.06117e-05
-1.19642e-05
1.99996e-05
-1.30655e-05
1.93945e-05
-1.40309e-05
1.89597e-05
-1.5026e-05
1.83719e-05
-1.57692e-05
1.7693e-05
-1.61318e-05
1.69914e-05
-1.63133e-05
1.6582e-05
-1.65494e-05
1.68235e-05
-1.76359e-05
1.74695e-05
-1.89969e-05
1.83329e-05
-2.03052e-05
1.91478e-05
-2.09127e-05
1.98825e-05
-2.05309e-05
2.04077e-05
-1.85987e-05
2.07525e-05
-1.61304e-05
2.1048e-05
-1.39501e-05
2.13182e-05
-1.07111e-05
2.15296e-05
-6.46445e-06
2.15104e-05
-2.28395e-06
2.14439e-05
7.55761e-07
2.14603e-05
3.42679e-06
2.15473e-05
5.50666e-06
2.14121e-05
7.65194e-06
2.15e-05
9.24617e-06
2.16514e-05
1.0762e-05
2.16179e-05
1.26849e-05
2.18011e-05
1.51805e-05
2.20256e-05
1.69883e-05
2.18279e-05
1.84425e-05
2.12403e-05
1.92335e-05
2.06932e-05
1.85052e-05
1.97978e-05
1.75166e-05
1.91109e-05
1.60163e-05
1.88122e-05
1.46014e-05
1.84489e-05
1.3055e-05
1.82321e-05
1.21291e-05
1.79683e-05
1.12435e-05
1.81877e-05
9.60126e-06
1.78547e-05
8.66352e-06
1.75471e-05
7.58255e-06
1.73281e-05
6.24785e-06
1.78076e-05
3.31138e-06
1.79137e-05
1.23908e-06
1.77667e-05
3.10593e-08
1.73114e-05
3.64723e-07
1.74717e-05
1.15666e-06
1.80172e-05
2.88953e-06
1.87111e-05
3.53477e-06
1.90907e-05
3.21685e-06
1.91967e-05
1.43245e-06
1.92184e-05
-7.90373e-07
1.89901e-05
-2.13882e-06
1.8762e-05
-1.93322e-06
1.83457e-05
-1.03957e-06
1.77855e-05
-4.94899e-07
1.7158e-05
-3.5427e-07
1.69156e-05
9.36091e-07
1.72596e-05
4.04017e-06
1.80643e-05
7.23593e-06
1.85971e-05
9.69914e-06
1.91451e-05
1.17835e-05
2.00444e-05
1.5409e-05
1.99974e-05
2.12811e-05
2.0458e-05
2.48235e-05
2.15365e-05
2.73499e-05
1.93307e-05
2.92518e-05
1.89207e-05
2.39806e-05
1.88505e-05
2.50991e-05
1.96255e-05
1.65345e-05
1.74546e-05
2.1876e-05
2.11633e-05
6.52938e-06
1.88398e-05
1.88229e-05
1.9473e-05
8.93807e-07
2.03899e-05
1.29465e-05
1.98012e-05
-3.80823e-07
2.13506e-05
1.00217e-05
2.00939e-05
-1.48617e-07
2.18823e-05
6.64667e-06
1.95665e-05
9.94242e-07
2.02491e-05
5.82497e-06
1.93738e-05
-2.68524e-06
1.92206e-05
1.30393e-06
1.4853e-05
-1.09677e-06
1.18529e-05
7.21644e-06
7.91233e-06
1.58404e-06
1.00879e-05
9.467e-07
1.08889e-05
-7.99994e-06
1.48901e-05
-7.94135e-06
1.62056e-05
-1.0566e-05
-8.05444e-06
1.95671e-05
2.6417e-05
-8.24903e-07
2.68362e-05
-4.23171e-07
2.73653e-05
-6.73891e-07
2.74996e-05
-6.0961e-08
2.75396e-05
-4.18924e-07
2.7471e-05
-1.57861e-07
2.74631e-05
-6.25826e-07
2.73757e-05
-3.62608e-07
2.73394e-05
-8.16859e-07
2.7254e-05
-5.66818e-07
2.72245e-05
-9.75624e-07
2.71489e-05
-6.30222e-07
2.71083e-05
-9.39461e-07
2.70271e-05
-4.66296e-07
2.69507e-05
-6.56142e-07
2.68688e-05
-2.10152e-07
2.67993e-05
-4.12119e-07
2.66879e-05
7.39255e-08
2.6644e-05
-1.67814e-07
2.64986e-05
4.61703e-07
2.64668e-05
1.93538e-07
2.63469e-05
8.01419e-07
2.63306e-05
5.63163e-07
2.62181e-05
1.14734e-06
2.62312e-05
8.01874e-07
2.61612e-05
1.28503e-06
2.62315e-05
7.38379e-07
2.62579e-05
1.11411e-06
2.63857e-05
4.83905e-07
2.65067e-05
7.1631e-07
2.66859e-05
-1.1625e-09
2.68769e-05
1.84361e-07
2.70546e-05
-5.69214e-07
2.72737e-05
-3.58368e-07
2.74314e-05
-1.05893e-06
2.76364e-05
-7.96379e-07
2.77648e-05
-1.43012e-06
2.79804e-05
-1.12755e-06
2.80728e-05
-1.61882e-06
2.8296e-05
-1.25154e-06
2.83338e-05
-1.63434e-06
2.85248e-05
-1.14624e-06
2.84584e-05
-1.37803e-06
2.85652e-05
-9.05722e-07
2.84022e-05
-1.02643e-06
2.84344e-05
-6.65471e-07
2.8245e-05
-8.14684e-07
2.8252e-05
-5.91376e-07
2.80893e-05
-8.49006e-07
2.81341e-05
-8.76841e-07
2.80243e-05
-1.20054e-06
2.81275e-05
-1.45201e-06
2.80708e-05
-1.794e-06
2.81502e-05
-2.04055e-06
2.81016e-05
-2.33065e-06
2.81243e-05
-2.32331e-06
2.79974e-05
-2.47397e-06
2.79063e-05
-2.25871e-06
2.75828e-05
-2.09232e-06
2.73398e-05
-1.71031e-06
2.67884e-05
-1.32378e-06
2.64615e-05
-8.16752e-07
2.59392e-05
-3.62077e-07
2.56696e-05
2.11316e-07
2.52293e-05
9.05273e-07
2.51267e-05
1.614e-06
2.48349e-05
2.39289e-06
2.48062e-05
2.9315e-06
2.44868e-05
3.58545e-06
2.45269e-05
3.68153e-06
2.44303e-05
4.04248e-06
2.47508e-05
3.81355e-06
2.51116e-05
3.83446e-06
2.57217e-05
3.29764e-06
2.64084e-05
2.98905e-06
2.71276e-05
2.22075e-06
2.79052e-05
1.56712e-06
2.85561e-05
6.20857e-07
2.93244e-05
-4.06849e-07
2.9923e-05
-1.46537e-06
3.05422e-05
-2.33793e-06
3.1095e-05
-3.59479e-06
3.16007e-05
-4.31441e-06
3.22245e-05
-5.49865e-06
3.27636e-05
-6.22409e-06
3.34212e-05
-6.9539e-06
3.41728e-05
-8.02446e-06
3.4765e-05
-8.49009e-06
3.5441e-05
-9.35565e-06
3.57874e-05
-9.98184e-06
3.6032e-05
-1.0273e-05
3.60054e-05
-1.10103e-05
3.55032e-05
-1.08751e-05
3.48877e-05
-1.10905e-05
3.38144e-05
-1.08421e-05
3.27406e-05
-1.03424e-05
3.17174e-05
-1.01612e-05
3.0519e-05
-9.46862e-06
2.94885e-05
-9.02636e-06
2.84362e-05
-8.71622e-06
2.73227e-05
-7.99715e-06
2.6697e-05
-8.1219e-06
2.58168e-05
-7.98147e-06
2.51421e-05
-7.79518e-06
2.46695e-05
-8.36139e-06