/*--------------------------------*- C++ -*----------------------------------*\
| =========                 |                                                 |
| \\      /  F ield         | OpenFOAM: The Open Source CFD Toolbox           |
|  \\    /   O peration     | Version:  2.4.0                                 |
|   \\  /    A nd           | Web:      www.OpenFOAM.org                      |
|    \\/     M anipulation  |                                                 |
\*---------------------------------------------------------------------------*/
FoamFile
{
    version     2.0;
    format      ascii;
    class       volScalarField;
    location    "0.67";
    object      pMean;
}
// * * * * * * * * * * * * * * * * * * * * * * * * * * * * * * * * * * * * * //

dimensions      [0 2 -2 0 0 0 0];

internalField   nonuniform List<scalar> 
8800
(
91.1415
78.6812
71.2208
67.6193
65.6744
64.1997
62.9387
61.7447
60.661
59.5822
58.5765
57.542
56.5803
55.5887
54.6911
53.7674
52.9589
52.1308
51.4143
50.5976
88.0363
78.3275
71.389
67.7327
65.7338
64.2249
62.9461
61.745
60.6589
59.5797
58.5737
57.5399
56.5777
55.5869
54.689
53.7648
52.9601
52.1278
51.4183
50.5793
86.0748
78.4032
71.9886
68.1066
65.9006
64.3036
62.9924
61.7772
60.6828
59.5966
58.5836
57.5447
56.5789
55.5849
54.6867
53.7567
52.9592
52.1159
51.4806
50.6274
84.5421
78.4641
72.5728
68.5283
66.0835
64.3909
63.0545
61.8335
60.7308
59.6354
58.6103
57.5628
56.5887
55.5896
54.6859
53.7498
52.9475
52.1032
51.5342
50.8519
83.2958
78.437
73.047
68.9331
66.2516
64.4584
63.1026
61.8914
60.786
59.6876
58.6449
57.5914
56.6005
55.6012
54.6809
53.7491
52.9203
52.0898
51.456
51.1847
82.3137
78.3402
73.4117
69.2797
66.4026
64.5031
63.1301
61.9377
60.8354
59.7383
58.6797
57.6206
56.6115
55.6118
54.6741
53.7466
52.8936
52.0819
51.4673
51.6449
81.5587
78.2253
73.6787
69.5597
66.5391
64.5314
63.1388
61.9709
60.8749
59.7801
58.7094
57.6443
56.6204
55.6178
54.6673
53.7405
52.8775
52.0885
51.5502
51.9646
81.0092
78.1225
73.8612
69.7708
66.6603
64.5492
63.1354
61.9925
60.9045
59.8119
58.7319
57.6621
56.626
55.6212
54.6612
53.7386
52.872
52.1112
51.6317
52.1991
80.6523
78.0476
73.9758
69.9139
66.7459
64.5607
63.1295
62.0059
60.925
59.8353
58.7478
57.6751
56.6299
55.6251
54.6589
53.7426
52.8767
52.1401
51.7041
52.3734
80.4755
78.0095
74.0325
69.9876
66.7899
64.5677
63.1254
62.0133
60.9359
59.8494
58.7564
57.6836
56.6328
55.6306
54.6612
53.7519
52.888
52.1698
51.7617
52.4904
80.4727
78.0134
74.0327
69.9897
66.7897
64.5691
63.1241
62.0149
60.9354
59.852
58.7568
57.6871
56.6347
55.6365
54.6675
53.7644
52.9038
52.197
51.8027
52.5559
80.645
78.0579
73.9768
69.9192
66.7455
64.5645
63.1262
62.0106
60.9244
59.8429
58.7493
57.6854
56.6361
55.6432
54.6783
53.7803
52.9246
52.2212
51.826
52.573
80.9996
78.1363
73.8618
69.7772
66.6592
64.5541
63.1304
61.999
60.9039
59.8231
58.7344
57.6781
56.6363
55.6501
54.6927
53.8003
52.9508
52.2455
51.8279
52.5336
81.5473
78.2396
73.6783
69.5657
66.536
64.5363
63.1321
61.9779
60.8737
59.7929
58.712
57.6645
56.6337
55.6562
54.7086
53.8245
52.9834
52.2764
51.8146
52.4188
82.3016
78.3547
73.4114
69.285
66.3979
64.5077
63.1239
61.9449
60.8338
59.7523
58.6831
57.6441
56.6286
55.6585
54.7251
53.8504
53.0245
52.3178
51.8127
52.2215
83.2829
78.453
73.0467
68.9389
66.2459
64.4635
63.0974
61.8999
60.7847
59.7035
58.6499
57.6191
56.6218
55.657
54.7415
53.8742
53.0724
52.3696
51.841
51.9621
84.5283
78.4816
72.5729
68.5357
66.0772
64.3969
63.0498
61.8437
60.7296
59.6537
58.6167
57.5947
56.6143
55.6533
54.7554
53.8925
53.1192
52.4189
51.8989
51.6906
86.0608
78.4206
71.9897
68.1146
65.8943
64.3099
62.9884
61.7879
60.6826
59.6155
58.5921
57.5781
56.6091
55.652
54.7657
53.9064
53.1528
52.4568
51.9568
51.5483
88.0217
78.3441
71.3909
67.7411
65.728
64.2311
62.9425
61.7559
60.6592
59.5989
58.5831
57.5741
56.6097
55.6556
54.7725
53.9168
53.1688
52.4789
51.9548
51.4698
91.1266
78.6971
71.2226
67.6278
65.6688
64.2058
62.9351
61.7557
60.6613
59.6017
58.5858
57.5768
56.6124
55.6581
54.7757
53.9204
53.1725
52.4849
51.9568
51.5887
50.4517
50.2
49.7369
49.2758
48.9079
48.6375
48.4537
48.3274
48.2314
48.1559
48.092
48.0284
47.9622
47.893
47.8166
47.7313
47.6335
47.5145
47.3772
47.2203
47.057
46.9056
46.7773
46.6761
46.6065
46.5657
46.5462
46.5294
46.5002
46.4425
46.3577
46.2537
46.1489
46.0597
45.9955
45.9541
45.9306
45.9091
45.8855
45.8573
45.8288
45.7979
45.7754
45.7635
45.7712
45.7938
45.8391
45.9001
45.9782
46.0614
46.1412
46.2037
46.2437
46.2546
46.2426
46.2102
46.1766
46.1463
46.1317
46.1201
46.1124
46.0899
46.0519
45.9888
45.9078
45.8172
45.7357
45.6841
45.6702
45.6887
45.7337
45.7967
45.8723
45.9545
46.0396
46.1219
46.1957
46.2512
46.2847
46.2868
46.265
46.218
46.1678
46.1038
46.0612
46.0256
46.014
46.0309
46.0711
46.1506
46.2643
46.4277
46.6352
46.881
47.1569
47.4507
47.7553
48.0585
48.3528
48.6295
48.8841
49.1096
49.2991
49.4276
49.5229
49.5653
49.5943
49.5925
49.6058
49.5941
49.591
49.5766
49.565
49.5477
49.5293
49.5154
49.5071
49.5096
49.5203
49.5326
49.5478
49.5505
49.5601
49.5512
49.5637
49.5456
49.5774
49.5732
49.6325
49.6706
49.7653
49.8482
49.9744
50.0984
50.261
50.4245
50.6215
50.8175
51.0342
51.2473
51.4759
51.7011
51.9429
52.1844
52.4427
52.7005
52.9756
53.2553
53.5419
53.8329
54.1152
54.3875
54.6511
54.8963
55.12
55.3222
55.5141
55.6716
55.8249
55.9447
56.0696
56.1407
56.2302
56.2574
56.3064
56.2863
56.2943
56.238
56.216
56.1345
56.1113
56.0333
56.0324
55.9705
56.0164
55.9875
56.1043
56.1079
56.3025
56.3543
56.6082
56.7266
57.0179
57.2055
57.5249
57.7597
58.0997
58.3387
58.6738
58.8694
59.1512
59.2318
59.3305
59.0842
58.7183
57.6908
56.1446
52.5806
48.1059
27.0452
50.2714
50.1185
49.8407
49.4464
49.0581
48.7545
48.5558
48.4388
48.3694
48.3174
48.2694
48.2142
48.1523
48.0829
48.0072
47.9206
47.8228
47.7091
47.5822
47.4412
47.2956
47.1579
47.0404
46.9454
46.8776
46.8312
46.802
46.7763
46.7453
46.6958
46.6271
46.5415
46.453
46.3717
46.3082
46.2603
46.2276
46.1993
46.1733
46.1426
46.1121
46.08
46.0559
46.0401
46.0409
46.0554
46.0889
46.1366
46.1971
46.2613
46.3235
46.3723
46.4051
46.4135
46.4046
46.3764
46.3437
46.3078
46.2801
46.2535
46.2281
46.1928
46.1441
46.0775
45.9951
45.9058
45.8201
45.7546
45.7189
45.7129
45.7338
45.7735
45.8295
45.8952
45.9647
46.0312
46.0872
46.124
46.1393
46.1252
46.0907
46.0337
45.9739
45.9096
45.8581
45.8223
45.8034
45.8162
45.8494
45.9194
46.0248
46.1792
46.3761
46.6105
46.8758
47.163
47.4633
47.763
48.0597
48.3402
48.6031
48.8348
49.0307
49.1651
49.2721
49.3291
49.3728
49.3859
49.4045
49.4054
49.4048
49.3956
49.3798
49.3565
49.3262
49.3006
49.2777
49.2674
49.265
49.2613
49.267
49.2512
49.2527
49.2268
49.2348
49.2092
49.2347
49.2306
49.2821
49.3138
49.3975
49.4714
49.589
49.7044
49.8639
50.0219
50.2208
50.4171
50.6369
50.8502
51.0824
51.3073
51.5526
51.7927
52.0546
52.3092
52.5899
52.8673
53.1599
53.447
53.728
53.9946
54.2595
54.4904
54.715
54.9067
55.105
55.2458
55.4088
55.5164
55.6466
55.7112
55.8045
55.8226
55.8666
55.8338
55.8306
55.7542
55.7192
55.6069
55.5691
55.4478
55.4272
55.3095
55.3307
55.2433
55.3325
55.2853
55.447
55.4675
55.674
55.7627
56.0062
56.15
56.4283
56.5935
56.8972
57.0438
57.3206
57.3849
57.5438
57.4144
57.3085
56.6984
55.974
54.1298
52.1601
46.0616
40.1006
20.6124
50.2686
50.1891
50.0546
49.7174
49.2775
48.8894
48.6366
48.5104
48.4663
48.4487
48.4285
48.3894
48.3344
48.2642
48.1857
48.0959
47.9982
47.8887
47.7707
47.6435
47.5154
47.3926
47.2868
47.1989
47.1336
47.0853
47.052
47.0228
46.9928
46.9509
46.8969
46.8287
46.7566
46.6857
46.6259
46.5753
46.5361
46.5016
46.4721
46.4412
46.4115
46.3819
46.3584
46.343
46.3402
46.3496
46.3727
46.4067
46.4498
46.4947
46.5381
46.5702
46.5905
46.5914
46.5781
46.5483
46.5111
46.4687
46.4274
46.3865
46.3438
46.2961
46.2377
46.1682
46.0866
46.0003
45.9169
45.8465
45.7974
45.7732
45.7748
45.7964
45.8364
45.8872
45.944
45.9957
46.0358
46.0556
46.0522
46.0226
45.9736
45.91
45.8403
45.7743
45.715
45.6741
45.6495
45.6527
45.6749
45.7297
45.8206
45.9594
46.1395
46.3595
46.6131
46.8935
47.1885
47.4872
47.7865
48.0722
48.3433
48.5835
48.7876
48.9358
49.0607
49.1412
49.2053
49.2403
49.2712
49.289
49.2973
49.2964
49.2799
49.2506
49.2114
49.1748
49.1446
49.1176
49.1069
49.0819
49.0817
49.0449
49.0433
49.0036
49.0103
48.9854
49.0048
49.006
49.0485
49.079
49.1502
49.2168
49.3254
49.4351
49.59
49.7454
49.9431
50.1388
50.359
50.573
50.8073
51.0368
51.287
51.5317
51.7958
52.0518
52.3372
52.6161
52.9112
53.1865
53.4609
53.7166
53.9767
54.1919
54.4182
54.6007
54.7939
54.9272
55.0926
55.2011
55.3239
55.3941
55.4799
55.4901
55.5241
55.4716
55.4592
55.3564
55.3121
55.174
55.1225
54.9594
54.9225
54.7525
54.7557
54.6146
54.667
54.5811
54.6898
54.6779
54.8285
54.8695
55.0729
55.1525
55.3945
55.4752
55.7223
55.7671
55.959
55.8853
55.9272
55.5371
55.2912
54.1385
53.3825
50.3201
48.392
40.808
33.6659
20.3606
50.4459
50.3399
50.1384
49.7178
49.2321
48.8418
48.6162
48.5359
48.5462
48.5799
48.6003
48.5873
48.5445
48.4757
48.3924
48.2968
48.1958
48.0879
47.9776
47.8628
47.7504
47.6429
47.5496
47.4708
47.4103
47.3634
47.3293
47.2997
47.2716
47.2366
47.194
47.1408
47.0825
47.0214
46.9652
46.914
46.8711
46.833
46.801
46.7707
46.7435
46.7176
46.6965
46.6808
46.6739
46.6754
46.6866
46.7042
46.7278
46.7513
46.7736
46.7878
46.7932
46.7844
46.7634
46.7292
46.6864
46.6378
46.5864
46.5344
46.4795
46.4218
46.357
46.286
46.2078
46.127
46.0486
45.9788
45.9239
45.888
45.8753
45.882
45.9082
45.9451
45.9885
46.0245
46.0488
46.052
46.0318
45.9896
45.9284
45.8569
45.7777
45.7055
45.6391
45.5902
45.5566
45.5434
45.5466
45.5799
45.6521
45.7724
45.9362
46.1415
46.3856
46.6572
46.9491
47.246
47.551
47.8418
48.123
48.373
48.5899
48.7549
48.9006
49.0081
49.0961
49.1572
49.2079
49.244
49.2671
49.2726
49.2558
49.2196
49.1757
49.1266
49.0958
49.0537
49.04
48.9975
48.9895
48.9339
48.9293
48.8802
48.8894
48.8648
48.887
48.887
48.9283
48.9568
49.024
49.0892
49.1918
49.3014
49.4526
49.6101
49.8072
50.0024
50.2244
50.4375
50.6755
50.9047
51.161
51.4069
51.6742
51.9325
52.2246
52.499
52.7951
53.0495
53.3237
53.5586
53.8141
54.0102
54.2408
54.4114
54.5998
54.7285
54.8979
54.9956
55.1205
55.1768
55.2668
55.2487
55.2872
55.1997
55.1965
55.056
55.0127
54.835
54.7805
54.5759
54.5263
54.3199
54.291
54.1173
54.114
54.0042
54.0506
53.9986
54.0976
54.0919
54.2433
54.2645
54.4433
54.438
54.6252
54.512
54.7095
54.3461
54.4893
53.5844
53.5261
51.5223
50.8995
46.871
44.4184
37.2887
29.5362
20.6947
51.8999
51.5094
50.3872
49.4321
48.8046
48.4926
48.4207
48.4831
48.5991
48.7071
48.7783
48.7985
48.773
48.7097
48.6236
48.5229
48.4174
48.3095
48.2039
48.0999
48.0018
47.9101
47.8306
47.7632
47.71
47.6678
47.6354
47.6075
47.5816
47.5521
47.5175
47.4752
47.4278
47.3765
47.3263
47.2782
47.2351
47.1958
47.1616
47.1305
47.1029
47.0769
47.0542
47.0342
47.0196
47.0095
47.0052
47.0047
47.0083
47.0124
47.0156
47.0137
47.0046
46.9861
46.9571
46.9186
46.8716
46.8195
46.7629
46.7044
46.6428
46.5787
46.5111
46.4398
46.3659
46.2906
46.2187
46.1532
46.0993
46.0595
46.0394
46.0372
46.0525
46.0768
46.1043
46.1234
46.1303
46.1178
46.0843
46.0315
45.9611
45.8802
45.7928
45.7104
45.6337
45.5702
45.52
45.4839
45.4634
45.4719
45.5236
45.6234
45.7727
45.9653
46.2032
46.4687
46.7587
47.0592
47.3696
47.6695
47.9635
48.2272
48.4607
48.6462
48.8148
48.9486
49.0594
49.1479
49.2175
49.2704
49.3046
49.3117
49.2943
49.2495
49.2054
49.1489
49.1203
49.0703
49.0507
48.9988
48.9803
48.9229
48.9138
48.8722
48.8802
48.8629
48.8862
48.8873
48.9339
48.9576
49.0322
49.0935
49.202
49.3095
49.4671
49.6255
49.8309
50.0226
50.2523
50.457
50.701
50.9188
51.1833
51.4219
51.699
51.9559
52.2602
52.5224
52.8216
53.0511
53.3301
53.5361
53.7932
53.9685
54.2032
54.3498
54.5435
54.656
54.8351
54.9055
55.0441
55.0691
55.1681
55.1131
55.1612
55.0363
55.0476
54.8673
54.8313
54.6146
54.5554
54.3206
54.2549
54.0255
53.9681
53.7559
53.7198
53.5586
53.5708
53.4561
53.5301
53.45
53.5837
53.4789
53.679
53.4513
53.7179
53.265
53.6093
52.7954
53.0746
51.6661
51.548
49.1194
48.0031
44.0599
40.6913
35.1116
27.695
21.2446
52.8884
52.3712
50.693
49.316
48.4867
48.1708
48.2077
48.4057
48.6381
48.8328
48.9636
49.0229
49.019
48.9645
48.8776
48.7717
48.66
48.5491
48.445
48.3483
48.2611
48.1834
48.1173
48.062
48.0178
47.982
47.9534
47.9284
47.9049
47.8792
47.85
47.8155
47.7764
47.7338
47.69
47.6464
47.6048
47.5657
47.5298
47.4967
47.4661
47.4369
47.4091
47.3826
47.3584
47.3364
47.3175
47.3007
47.2861
47.2723
47.2579
47.2406
47.2182
47.1896
47.1536
47.1109
47.0616
47.0075
46.9488
46.8868
46.8222
46.756
46.6884
46.6197
46.5515
46.4835
46.4201
46.3623
46.3146
46.2779
46.2583
46.2552
46.2648
46.2792
46.2919
46.2961
46.2871
46.2611
46.2163
46.1548
46.0754
45.9844
45.8856
45.7871
45.6936
45.6106
45.5406
45.4807
45.4357
45.4148
45.4464
45.5271
45.6627
45.8459
46.0813
46.3454
46.6349
46.9422
47.2607
47.5735
47.8816
48.1653
48.4174
48.6262
48.8166
48.9719
49.1047
49.2152
49.3015
49.3647
49.4057
49.4091
49.3907
49.3351
49.294
49.2348
49.2063
49.1544
49.1273
49.0756
49.0528
49.0091
49.0006
48.977
48.9846
48.9814
49.0034
49.0201
49.0698
49.1057
49.1874
49.2487
49.3684
49.473
49.6403
49.7961
50.0089
50.1944
50.4291
50.6253
50.8683
51.0788
51.3507
51.5796
51.8733
52.1303
52.4484
52.7019
52.9982
53.21
53.4832
53.665
53.921
54.0686
54.3088
54.4229
54.6249
54.7093
54.8986
54.928
55.0928
55.0681
55.1845
55.0808
55.1469
54.9808
55.0143
54.7796
54.7678
54.5077
54.4693
54.1879
54.1393
53.8509
53.8244
53.5201
53.5027
53.2458
53.2701
53.0494
53.1459
52.9314
53.0929
52.809
53.0284
52.5913
52.8377
52.1921
52.419
51.4617
51.4356
49.9566
49.3139
46.9929
45.2971
41.9527
38.2302
34.1269
27.7188
22.3714
53.5032
52.9789
51.0421
49.3996
48.3873
47.9965
48.0617
48.3441
48.6696
48.9448
49.1372
49.2405
49.2625
49.2192
49.1319
49.02
48.9004
48.7844
48.6788
48.5862
48.5069
48.4406
48.3864
48.3431
48.3087
48.281
48.258
48.2376
48.2175
48.1954
48.1697
48.14
48.1062
48.0693
48.0303
47.9906
47.9512
47.913
47.8761
47.8407
47.8064
47.7727
47.7392
47.7057
47.6725
47.6398
47.6083
47.5779
47.5486
47.5195
47.4899
47.4587
47.4246
47.3871
47.3453
47.2993
47.2486
47.194
47.1357
47.0742
47.0109
46.9465
46.8816
46.8175
46.7552
46.6951
46.6395
46.5904
46.5517
46.5254
46.514
46.5166
46.5275
46.537
46.539
46.5304
46.5094
46.4748
46.4223
46.3518
46.2633
46.1614
46.0483
45.9299
45.8169
45.7142
45.6243
45.5395
45.4684
45.4186
45.427
45.4921
45.6199
45.8012
46.0387
46.3055
46.6011
46.9178
47.2445
47.5734
47.8957
48.1975
48.4673
48.7019
48.9049
49.0755
49.2259
49.3499
49.4493
49.5167
49.5643
49.5652
49.5452
49.4826
49.4383
49.3777
49.346
49.3001
49.2701
49.2323
49.2156
49.1958
49.1974
49.1949
49.2084
49.2197
49.2459
49.2788
49.3349
49.3922
49.4763
49.5565
49.6746
49.791
49.9568
50.1178
50.3308
50.5181
50.7492
50.9449
51.1821
51.3957
51.6661
51.8964
52.1973
52.4633
52.7885
53.0378
53.3229
53.5224
53.7841
53.9546
54.1961
54.3134
54.5466
54.6338
54.8244
54.8953
55.0823
55.0808
55.2639
55.2015
55.3094
55.175
55.2347
55.0561
55.0843
54.8341
54.8137
54.549
54.5105
54.2102
54.1643
53.8479
53.8109
53.47
53.4168
53.1226
53.0956
52.8258
52.8507
52.568
52.6258
52.2717
52.3257
51.8237
51.8521
51.1815
51.1241
50.2206
49.8765
48.4196
47.5426
45.3307
43.4931
40.8497
37.3019
34.1712
28.8936
24.1035
53.8744
53.382
51.3545
49.5732
48.4387
47.9559
47.9948
48.314
48.7017
49.0412
49.2872
49.4323
49.4809
49.4508
49.3652
49.2497
49.124
49.0037
48.8964
48.8063
48.7329
48.6758
48.632
48.5996
48.5749
48.5557
48.5392
48.5241
48.5079
48.4894
48.4668
48.4406
48.4105
48.3775
48.3419
48.3049
48.267
48.229
48.1906
48.1523
48.1138
48.075
48.0354
47.9951
47.954
47.9128
47.8711
47.8299
47.7884
47.7473
47.7059
47.6644
47.6218
47.5785
47.533
47.4859
47.4359
47.3837
47.3284
47.271
47.211
47.1501
47.0887
47.0296
46.9729
46.9213
46.8755
46.8382
46.8113
46.7984
46.7974
46.808
46.8214
46.829
46.824
46.8076
46.7788
46.74
46.6843
46.6071
46.5094
46.3949
46.2648
46.1256
45.9934
45.8695
45.7628
45.656
45.5609
45.4891
45.4789
45.5347
45.6604
45.8466
46.0857
46.3568
46.6589
46.9831
47.3216
47.6652
48.0059
48.3282
48.6133
48.8647
49.0734
49.2581
49.4184
49.5459
49.6493
49.716
49.7675
49.7737
49.7517
49.6886
49.6351
49.5799
49.5481
49.5151
49.4946
49.4815
49.4824
49.4932
49.5129
49.5356
49.5616
49.5891
49.6263
49.6773
49.7446
49.8167
49.9074
49.9966
50.1117
50.2441
50.4093
50.581
50.7927
50.9903
51.2185
51.4222
51.6508
51.87
52.1341
52.3688
52.6758
52.9485
53.2809
53.5206
53.7996
53.9778
54.2316
54.3988
54.6243
54.7178
54.9339
54.9895
55.1667
55.2173
55.4055
55.3785
55.5551
55.4794
55.5665
55.4284
55.4753
55.2988
55.2989
55.0556
55.0143
54.7605
54.6963
54.398
54.3364
54.0281
53.9596
53.6136
53.5158
53.2075
53.1168
52.8089
52.7327
52.3897
52.3186
51.8853
51.7745
51.184
51.0375
50.3479
50.1438
49.2771
48.8245
47.3663
46.4518
44.446
42.6082
40.5778
37.4
34.7584
30.417
26.0374
54.1132
53.651
51.6005
49.7521
48.5459
47.9951
47.9981
48.3286
48.7543
49.14
49.4269
49.6055
49.6776
49.6608
49.5788
49.4621
49.333
49.2103
49.1025
49.0147
48.946
48.896
48.8606
48.8373
48.8209
48.8095
48.7992
48.7892
48.7768
48.7615
48.7417
48.7181
48.6904
48.66
48.6265
48.5911
48.5533
48.5143
48.4736
48.4321
48.3889
48.3448
48.299
48.2524
48.2043
48.1556
48.1053
48.055
48.004
47.9541
47.9046
47.8566
47.8093
47.7635
47.7175
47.672
47.6249
47.577
47.526
47.4739
47.4196
47.3649
47.3097
47.2579
47.21
47.1697
47.1366
47.1135
47.0998
47.0992
47.1089
47.1261
47.1403
47.1461
47.1363
47.114
47.082
47.0422
46.9845
46.904
46.8014
46.6768
46.5309
46.3707
46.2147
46.0694
45.9446
45.8165
45.7107
45.6249
45.6082
45.663
45.795
45.986
46.2257
46.4939
46.8011
47.1327
47.4875
47.8452
48.2075
48.5552
48.8607
49.1219
49.3384
49.5304
49.6904
49.8124
49.9084
49.9731
50.0284
50.0376
50.0184
49.9616
49.9082
49.8618
49.84
49.8239
49.8235
49.8375
49.8676
49.9118
49.9573
50.0095
50.0529
50.0976
50.1528
50.2184
50.2969
50.3774
50.4777
50.5696
50.6919
50.8357
51.0038
51.1816
51.4001
51.5964
51.8319
52.0383
52.268
52.4988
52.7561
52.9961
53.3056
53.5854
53.9222
54.1431
54.4324
54.5831
54.8277
54.9842
55.189
55.2606
55.4705
55.4782
55.6669
55.6754
55.885
55.819
55.9961
55.8797
55.9733
55.8171
55.8798
55.7114
55.6837
55.4218
55.3815
55.1407
55.0537
54.7715
54.6718
54.3934
54.288
53.9504
53.8127
53.5108
53.359
53.0424
52.8611
52.4805
52.2745
51.7908
51.5387
50.902
50.6416
50.0511
49.7865
48.9642
48.4524
46.9886
46.0095
44.2579
42.4218
40.821
38.0817
35.6167
31.9412
27.9665
54.277
53.8326
51.7777
49.903
48.6659
48.0839
48.0686
48.4042
48.8511
49.2629
49.5735
49.771
49.8568
49.8477
49.7684
49.6518
49.5223
49.4003
49.2944
49.2101
49.1464
49.1025
49.0741
49.0581
49.049
49.0439
49.039
49.0333
49.0245
49.0122
48.9948
48.9732
48.9471
48.918
48.8854
48.8501
48.8114
48.7707
48.7271
48.6819
48.6341
48.5848
48.5331
48.4804
48.4257
48.3704
48.3137
48.2573
48.2003
48.1449
48.0905
48.0391
47.9901
47.9447
47.9014
47.8604
47.8188
47.7766
47.7319
47.687
47.6402
47.5934
47.5468
47.5052
47.4686
47.441
47.4228
47.4153
47.4164
47.4301
47.4511
47.4724
47.4854
47.4889
47.4775
47.451
47.4156
47.376
47.3205
47.2422
47.1381
47.0044
46.8459
46.6698
46.4926
46.3218
46.1779
46.0312
45.9209
45.8287
45.8157
45.8725
46.0193
46.2161
46.4589
46.7234
47.0395
47.379
47.7453
48.1148
48.5028
48.8773
49.2073
49.4764
49.6968
49.884
50.0349
50.1461
50.2341
50.299
50.3595
50.3755
50.365
50.3184
50.2751
50.2445
50.2383
50.2462
50.2747
50.3202
50.3879
50.4669
50.5499
50.63
50.695
50.7568
50.8293
50.8989
50.9874
51.0697
51.1773
51.2669
51.4037
51.5485
51.7299
51.9079
52.1417
52.3314
52.5917
52.7967
53.0408
53.2751
53.5452
53.786
54.1067
54.3793
54.7293
54.914
55.2109
55.324
55.5692
55.698
55.906
55.9309
56.144
56.0827
56.3178
56.27
56.5249
56.3787
56.6115
56.4124
56.5777
56.3578
56.467
56.2788
56.2745
55.9637
55.9708
55.6981
55.6331
55.3652
55.2651
54.9798
54.8567
54.5119
54.376
54.0595
53.883
53.5472
53.3145
52.8896
52.5947
52.0296
51.6833
51.0497
50.7669
50.2601
49.9814
49.1585
48.5178
47.0793
45.9478
44.4736
42.7583
41.3638
38.9816
36.5755
33.3495
29.7823
54.3708
53.9348
51.8862
50.0169
48.7862
48.2097
48.2006
48.5422
48.9962
49.4134
49.728
49.928
50.0153
50.0069
49.9293
49.8154
49.6904
49.5736
49.4739
49.3956
49.3384
49.3008
49.2788
49.2687
49.2653
49.2649
49.264
49.2612
49.2549
49.2446
49.2291
49.2089
49.1839
49.1554
49.1229
49.087
49.0472
49.0043
48.9581
48.9094
48.8576
48.8036
48.7471
48.6892
48.6296
48.5696
48.5084
48.4477
48.3877
48.3301
48.2746
48.2227
48.1742
48.1308
48.0915
48.0563
48.0221
47.9882
47.9533
47.9184
47.882
47.846
47.8123
47.7841
47.7602
47.7455
47.7435
47.7529
47.769
47.7945
47.8232
47.846
47.8579
47.8595
47.8458
47.8184
47.7843
47.7471
47.696
47.6244
47.5228
47.3849
47.2169
47.025
46.8307
46.6376
46.477
46.3175
46.208
46.1145
46.12
46.1798
46.3459
46.5482
46.7977
47.0571
47.3884
47.7342
48.113
48.4883
48.9046
49.2992
49.6503
49.9199
50.1365
50.3062
50.4437
50.5424
50.631
50.7026
50.7708
50.7934
50.802
50.7696
50.7521
50.7392
50.7661
50.7931
50.8642
50.9407
51.0569
51.1658
51.2953
51.3954
51.4966
51.5681
51.6627
51.7278
51.8233
51.8909
52.0069
52.0829
52.2337
52.3656
52.5657
52.7401
52.9963
53.1824
53.4766
53.682
53.9624
54.2012
54.4998
54.7233
55.0766
55.3066
55.6918
55.8106
56.1457
56.1812
56.4607
56.529
56.7712
56.7084
56.9537
56.8307
57.1352
57.0175
57.3298
57.077
57.3745
57.0965
57.3632
57.1008
57.2848
57.0342
57.1006
56.7214
56.8206
56.512
56.5074
56.1546
56.1019
55.8199
55.6999
55.3184
55.2113
54.8702
54.7011
54.3068
54.052
53.5904
53.2183
52.6642
52.2961
51.6545
51.3625
50.9039
50.5328
49.6588
48.7685
47.4166
46.1996
44.9551
43.4689
42.0825
39.9092
37.5612
34.6539
31.4547
54.3928
53.9552
51.9243
50.0936
48.9067
48.3731
48.3956
48.7472
49.1945
49.5963
49.8951
50.0812
50.1582
50.1441
50.0672
49.9588
49.8427
49.7357
49.6457
49.5763
49.5271
49.496
49.4793
49.4733
49.4732
49.4753
49.4765
49.4753
49.4705
49.4615
49.4473
49.428
49.4038
49.3754
49.3428
49.3061
49.2651
49.2205
49.1726
49.1218
49.0674
49.0101
48.9501
48.8884
48.8254
48.7621
48.6987
48.6368
48.5771
48.5202
48.4659
48.4158
48.3706
48.3314
48.2971
48.268
48.2421
48.2188
48.1962
48.1739
48.1507
48.1287
48.1113
48.0991
48.0915
48.0926
48.1075
48.1317
48.1583
48.1898
48.2218
48.2451
48.2547
48.2499
48.2291
48.2
48.1696
48.1401
48.1004
48.0409
47.9476
47.8153
47.645
47.4437
47.2338
47.0235
46.8473
46.6834
46.5782
46.498
46.532
46.5956
46.7817
46.9834
47.2389
47.4862
47.8346
48.1833
48.5755
48.952
49.3995
49.8072
50.1807
50.4451
50.6533
50.7857
50.9174
50.9966
51.0997
51.1774
51.2602
51.2916
51.3278
51.3131
51.338
51.3459
51.4212
51.4712
51.599
51.702
51.8711
52.0065
52.1878
52.3043
52.4404
52.5194
52.6387
52.6946
52.7957
52.8505
52.961
53.0248
53.184
53.3062
53.5162
53.6985
53.9596
54.168
54.4884
54.7015
55.0203
55.2617
55.5911
55.8103
56.1774
56.3588
56.7519
56.8255
57.1498
57.1464
57.4927
57.441
57.7216
57.5381
57.8259
57.6698
58.0358
57.8924
58.2193
57.9281
58.2981
57.9838
58.3006
58.0264
58.2432
57.9875
58.0752
57.693
57.8403
57.5618
57.5787
57.2263
57.1973
56.874
56.7743
56.3771
56.2997
55.9152
55.7213
55.2868
54.9928
54.5393
54.1359
53.6587
53.1672
52.6275
52.306
51.7889
51.1972
50.2793
49.1769
47.94
46.7934
45.6345
44.328
42.8691
40.8099
38.549
35.8894
32.9967
54.3262
53.8802
51.8916
50.1424
49.0407
48.5896
48.6642
49.0221
49.4439
49.8082
50.0708
50.2261
50.2807
50.2559
50.1798
50.0802
49.9774
49.8845
49.808
49.7502
49.7104
49.6864
49.6745
49.6711
49.6726
49.6757
49.6775
49.6768
49.6725
49.664
49.6506
49.6319
49.6081
49.5799
49.5472
49.5104
49.4693
49.4244
49.3759
49.3238
49.2678
49.2085
49.1463
49.0827
49.0186
48.9551
48.8931
48.8335
48.7761
48.7218
48.6713
48.6254
48.5853
48.5524
48.5259
48.505
48.4883
48.4755
48.4663
48.4594
48.4518
48.4451
48.4442
48.449
48.4594
48.4797
48.5113
48.5473
48.583
48.6196
48.6521
48.6709
48.6729
48.6585
48.6308
48.6013
48.5745
48.5516
48.5255
48.4814
48.4024
48.2832
48.1202
47.9179
47.6988
47.4841
47.3015
47.1406
47.0382
46.9816
47.042
47.1205
47.321
47.5149
47.7641
48.0067
48.3776
48.7223
49.1222
49.5008
49.9828
50.3963
50.7952
51.0483
51.2487
51.3442
51.4667
51.528
51.6558
51.7331
51.8419
51.8817
51.9499
51.9598
52.0341
52.0666
52.1948
52.2797
52.4691
52.6037
52.83
52.9898
53.2144
53.3441
53.5189
53.6004
53.7438
53.7922
53.8989
53.9313
54.0339
54.0826
54.2436
54.3676
54.5948
54.7929
55.0643
55.3072
55.6279
55.8683
56.2066
56.4513
56.7921
57.0127
57.3737
57.5317
57.8701
57.9559
58.2378
58.2047
58.5566
58.4469
58.684
58.4924
58.8175
58.6436
59.0002
58.9043
59.1516
58.8892
59.2951
59.0357
59.3649
59.1409
59.3545
59.1661
59.2058
58.846
59.0204
58.7207
58.7724
58.3961
58.39
58.1341
58.0443
57.641
57.5167
57.1425
56.9269
56.4456
56.1021
55.6755
55.242
54.8142
54.3455
53.8491
53.3558
52.7884
51.8865
50.9689
49.7761
48.6603
47.6528
46.4705
45.2381
43.6805
41.7037
39.5383
37.0871
34.4401
54.1199
53.6708
51.7919
50.1985
49.236
48.8994
49.0248
49.3674
49.7373
50.0402
50.2468
50.3562
50.3809
50.3442
50.2714
50.1847
50.0991
50.0241
49.9638
49.9194
49.8897
49.8722
49.8637
49.8614
49.8626
49.8647
49.8656
49.8641
49.859
49.85
49.8362
49.8174
49.7935
49.7653
49.7331
49.6972
49.6571
49.6133
49.5659
49.5145
49.4588
49.3993
49.3364
49.2729
49.2113
49.1521
49.0942
49.038
48.9847
48.9354
48.8902
48.8502
48.8172
48.7925
48.7749
48.7644
48.7607
48.7641
48.7721
48.7793
48.7859
48.7962
48.8129
48.835
48.8648
48.9033
48.9483
48.9934
49.036
49.0767
49.109
49.1247
49.1199
49.094
49.0558
49.0228
48.9995
48.9863
48.9748
48.949
48.8922
48.7944
48.6465
48.4548
48.2369
48.0294
47.8434
47.6949
47.6027
47.5798
47.6509
47.7364
47.9369
48.123
48.3637
48.6368
49.0348
49.385
49.7873
50.1811
50.6772
51.0825
51.489
51.734
51.9301
51.9987
52.1133
52.1678
52.3151
52.397
52.5261
52.5708
52.6698
52.7083
52.8293
52.8992
53.0808
53.2075
53.4506
53.627
53.9003
54.092
54.3509
54.5018
54.7077
54.7974
54.9565
55.0053
55.1091
55.1256
55.2132
55.2515
55.4128
55.5411
55.7928
56.0161
56.3093
56.5866
56.8944
57.161
57.4851
57.7517
58.0731
58.3187
58.602
58.7574
59.0578
59.1523
59.379
59.4113
59.6586
59.5472
59.6586
59.5905
59.8482
59.7696
60.015
60.054
60.1118
59.9749
60.3727
60.139
60.5281
60.4498
60.6143
60.4896
60.4679
60.1654
60.266
60.0137
59.9749
59.5868
59.6872
59.4975
59.3768
59.0126
58.8392
58.4243
58.1547
57.6801
57.3139
56.9058
56.4757
56.1305
55.5609
55.084
54.4227
53.8542
52.6038
51.7912
50.5085
49.572
48.6574
47.4032
46.1558
44.5139
42.594
40.5207
38.2359
35.7699
53.6612
53.2398
51.6285
50.312
49.5577
49.3402
49.4833
49.7712
50.0561
50.2734
50.4077
50.4638
50.4586
50.413
50.3471
50.2762
50.21
50.1538
50.1096
50.0775
50.0559
50.0426
50.0355
50.0323
50.0314
50.031
50.0297
50.0263
50.0198
50.0096
49.995
49.9758
49.952
49.9243
49.8931
49.8586
49.8207
49.7795
49.7349
49.6858
49.6321
49.5753
49.5166
49.4573
49.3994
49.3455
49.2963
49.2493
49.2033
49.1593
49.1197
49.088
49.0658
49.0518
49.0451
49.0477
49.0593
49.0786
49.1042
49.132
49.1592
49.1867
49.2191
49.2579
49.3038
49.3547
49.409
49.4622
49.5116
49.5553
49.5867
49.5977
49.5852
49.5493
49.5008
49.4607
49.4399
49.4375
49.4426
49.4388
49.4098
49.3414
49.2184
49.0469
48.8468
48.6616
48.48
48.358
48.2764
48.2774
48.3485
48.4505
48.6425
48.8159
49.0554
49.3832
49.7974
50.1584
50.5569
50.989
51.4693
51.8671
52.2564
52.4998
52.687
52.7618
52.8534
52.9164
53.0658
53.1615
53.2996
53.3636
53.479
53.5521
53.7045
53.8319
54.0468
54.2371
54.5086
54.747
55.039
55.2787
55.556
55.7401
55.9629
56.0773
56.2363
56.2909
56.399
56.4035
56.4932
56.5405
56.6964
56.8523
57.1119
57.356
57.6626
57.9533
58.2486
58.539
58.8288
59.1
59.4062
59.6745
59.8758
60.0321
60.2802
60.3686
60.5897
60.6776
60.7334
60.7445
60.7244
60.7913
60.9245
60.9829
61.0941
61.1846
61.1557
61.207
61.421
61.4733
61.7975
61.7465
61.9182
61.7922
61.7151
61.5328
61.5549
61.3772
61.229
60.95
60.9657
60.8649
60.6282
60.3663
60.1195
59.7092
59.4325
59.0187
58.5762
58.2069
57.7508
57.3919
56.7879
56.3537
55.4515
54.8974
53.3519
52.6923
51.4145
50.6781
49.7357
48.4151
47.0981
45.395
43.5255
41.5286
39.3597
37.0275
52.9139
52.5874
51.449
50.5331
50.0264
49.8978
50.0019
50.1855
50.3547
50.4723
50.5323
50.5415
50.5141
50.4657
50.4096
50.3547
50.3061
50.2659
50.2344
50.2108
50.1938
50.182
50.1741
50.1689
50.1653
50.1621
50.1585
50.1533
50.1456
50.1345
50.119
50.0993
50.0757
50.0486
50.0184
49.9864
49.953
49.917
49.8767
49.832
49.7835
49.7315
49.6787
49.6277
49.579
49.5335
49.4932
49.4582
49.4253
49.3921
49.3619
49.3425
49.3357
49.3378
49.3469
49.3648
49.3929
49.4296
49.4703
49.5109
49.5537
49.6007
49.6518
49.7074
49.7664
49.826
49.885
49.9415
49.9942
50.0397
50.069
50.0763
50.058
50.0158
49.9611
49.9164
49.8988
49.9051
49.922
49.9341
49.9273
49.8885
49.7986
49.6589
49.4882
49.3375
49.1668
49.0906
49.0283
49.0506
49.115
49.2472
49.4163
49.6018
49.8579
50.2157
50.6122
50.9961
51.4086
51.8781
52.323
52.7239
53.0753
53.3292
53.4925
53.591
53.6582
53.751
53.8745
53.997
54.1218
54.2306
54.3502
54.4863
54.6517
54.8465
55.0733
55.3278
55.6064
55.9036
56.1883
56.485
56.7501
56.9751
57.189
57.3512
57.4947
57.5975
57.6822
57.7309
57.8042
57.9048
58.044
58.2474
58.4805
58.7642
59.047
59.3551
59.6289
59.936
60.1774
60.4651
60.7093
60.9712
61.1191
61.3389
61.4635
61.619
61.7447
61.8491
61.8064
61.9207
61.8377
61.9938
62.0126
62.1369
62.1559
62.3194
62.1666
62.4959
62.5843
62.9543
62.9734
63.0233
63.1261
63.0123
62.9305
62.8976
62.8171
62.6958
62.4198
62.3665
62.2282
62.1146
61.8337
61.6521
61.2606
61.06
60.6009
60.2878
59.8744
59.5202
59.0171
58.6426
57.9459
57.4494
56.3857
55.833
54.2339
53.7831
52.4713
51.866
50.7539
49.4577
48.0574
46.3223
44.5018
42.5503
40.4686
38.2378
52.0922
51.9185
51.3575
50.8782
50.59
50.4799
50.4835
50.5331
50.5828
50.6113
50.6122
50.5889
50.5496
50.5032
50.4567
50.4146
50.3785
50.3486
50.3244
50.305
50.2895
50.2773
50.2679
50.2606
50.2548
50.2496
50.244
50.2372
50.2283
50.2163
50.2002
50.1798
50.1565
50.1317
50.1054
50.0763
50.046
50.0151
49.9823
49.9443
49.902
49.8594
49.8178
49.7763
49.7377
49.7069
49.6832
49.6632
49.6447
49.6273
49.6161
49.6158
49.6259
49.6442
49.6711
49.7072
49.7511
49.801
49.8559
49.9126
49.9679
50.0228
50.0813
50.1441
50.2085
50.2711
50.3317
50.3891
50.4411
50.4822
50.5064
50.513
50.4997
50.4643
50.4137
50.3705
50.3535
50.3611
50.3846
50.4077
50.4173
50.4016
50.3409
50.2368
50.1073
50.0135
49.8813
49.8495
49.8017
49.8564
49.928
50.1004
50.2414
50.4608