/*--------------------------------*- C++ -*----------------------------------*\
| =========                 |                                                 |
| \\      /  F ield         | OpenFOAM: The Open Source CFD Toolbox           |
|  \\    /   O peration     | Version:  2.4.0                                 |
|   \\  /    A nd           | Web:      www.OpenFOAM.org                      |
|    \\/     M anipulation  |                                                 |
\*---------------------------------------------------------------------------*/
FoamFile
{
    version     2.0;
    format      ascii;
    class       volScalarField;
    location    "0.67";
    object      pPrime2Mean;
}
// * * * * * * * * * * * * * * * * * * * * * * * * * * * * * * * * * * * * * //

dimensions      [0 4 -4 0 0 0 0];

internalField   nonuniform List<scalar> 
8800
(
965043
940695
914571
888670
863122
837944
813139
788705
764643
740949
717624
694663
672060
649803
627869
606217
584764
563346
541575
518235
965077
940699
914569
888668
863121
837944
813139
788705
764643
740950
717625
694664
672062
649806
627875
606229
584788
563395
541695
518630
965099
940698
914563
888664
863119
837943
813139
788705
764643
740950
717626
694666
672065
649812
627887
606252
584833
563490
541914
519399
965116
940697
914556
888660
863118
837943
813138
788705
764643
740950
717627
694668
672070
649822
627904
606285
584898
563624
542221
520293
965129
940697
914551
888655
863116
837942
813138
788705
764643
740951
717629
694672
672077
649834
627927
606328
584981
563791
542589
521218
965140
940698
914547
888652
863114
837942
813138
788705
764643
740952
717631
694676
672085
649848
627954
606378
585078
563983
542994
522121
965148
940699
914544
888649
863113
837942
813138
788705
764643
740953
717633
694681
672094
649865
627985
606436
585186
564193
543415
522979
965154
940700
914542
888646
863112
837942
813139
788705
764644
740954
717636
694686
672103
649883
628018
606498
585303
564414
543840
523780
965158
940701
914541
888645
863111
837942
813139
788705
764645
740956
717639
694691
672114
649903
628054
606563
585423
564638
544257
524517
965160
940701
914540
888644
863110
837942
813139
788706
764645
740957
717642
694697
672125
649923
628090
606630
585546
564860
544656
525188
965160
940701
914540
888644
863110
837942
813140
788706
764646
740959
717645
694703
672136
649943
628127
606696
585666
565076
545031
525794
965158
940701
914541
888645
863111
837942
813140
788707
764648
740961
717648
694709
672147
649962
628163
606761
585782
565280
545378
526334
965154
940700
914542
888647
863112
837943
813140
788708
764649
740963
717652
694715
672157
649981
628197
606822
585891
565469
545692
526810
965148
940699
914544
888649
863114
837943
813140
788708
764650
740965
717655
694721
672167
649999
628229
606879
585991
565641
545971
527225
965140
940698
914547
888652
863115
837943
813141
788709
764651
740967
717658
694726
672176
650015
628257
606930
586080
565791
546213
527578
965129
940697
914552
888656
863117
837944
813141
788710
764652
740969
717661
694731
672184
650029
628282
606974
586156
565920
546416
527871
965115
940697
914557
888661
863119
837945
813142
788711
764654
740970
717663
694734
672190
650040
628303
607010
586219
566024
546579
528105
965099
940698
914563
888665
863121
837946
813142
788712
764654
740972
717665
694737
672195
650049
628319
607038
586267
566103
546702
528278
965077
940699
914570
888670
863123
837947
813143
788712
764655
740972
717666
694739
672199
650055
628329
607057
586299
566156
546784
528393
965043
940695
914571
888671
863124
837947
813143
788713
764655
740973
717666
694740
672200
650058
628335
607067
586315
566183
546825
528450
497086
491391
487047
483291
479809
476494
473298
470190
467151
464167
461227
458325
455454
452610
449790
446989
444204
441434
438677
435932
433198
430477
427767
425069
422381
419702
417034
414376
411727
409088
406460
403842
401236
398642
396060
393490
390932
388385
385850
383324
380808
378300
375801
373308
370822
368342
365870
363405
360947
358496
356052
353615
351184
348760
346342
343933
341531
339139
336755
334381
332014
329656
327307
324967
322635
320314
318003
315703
313414
311134
308864
306603
304349
302104
299866
297636
295413
293199
290992
288795
286607
284430
282263
280105
277956
275814
273680
271553
269433
267321
265215
263116
261024
258937
256856
254781
252712
250650
248594
246546
244506
242475
240453
238441
236438
234446
232465
230494
228531
226580
224636
222702
220776
218858
216949
215049
213157
211273
209399
207534
205677
203831
201993
200166
198346
196539
194738
192949
191165
189393
187626
185869
184117
182373
180634
178903
177177
175458
173746
172041
170342
168652
166968
165293
163624
161964
160310
158664
157026
155395
153772
152157
150549
148950
147360
145779
144206
142643
141089
139545
138009
136485
134969
133465
131968
130484
129008
127544
126089
124646
123212
121790
120375
118973
117575
116193
114811
113447
112081
110733
109382
108047
106710
105384
104056
102735
101409
100087
98754.7
97422
96073.5
94716.1
93335
91932.1
90489.6
89003
87443.4
85779.3
83967.6
81786.9
501143
495075
490128
485868
482013
478410
474980
471678
468474
465347
462283
459272
456305
453376
450479
447609
444764
441939
439132
436342
433569
430812
428069
425340
422625
419923
417233
414554
411888
409233
406591
403961
401343
398738
396145
393566
390998
388443
385899
383366
380843
378329
375824
373326
370836
368353
365878
363410
360950
358497
356051
353613
351182
348758
346341
343933
341532
339140
336758
334384
332018
329662
327314
324975
322645
320325
318015
315715
313426
311146
308876
306614
304361
302115
299877
297647
295424
293210
291004
288808
286621
284445
282279
280122
277974
275834
273700
271574
269456
267344
265239
263141
261048
258961
256880
254805
252737
250675
248620
246573
244534
242503
240481
238469
236467
234474
232491
230518
228554
226600
224654
222717
220789
218869
216958
215056
213164
211280
209406
207542
205686
203840
202003
200178
198360
196553
194754
192965
191183
189412
187646
185889
184137
182393
180654
178922
177195
175476
173763
172057
170359
168668
166984
165308
163639
161977
160322
158675
157036
155404
153780
152165
150557
148958
147368
145785
144212
142647
141091
139545
138007
136479
134960
133451
131950
130460
128978
127507
126044
124592
123147
121714
120286
118871
117458
116060
114661
113278
111892
110522
109149
107787
106425
105069
103711
102355
100993
99629.4
98256
96873.1
95474
94053.9
92606.5
91120.6
89588
87979.8
86299.7
84425
82419.1
80066.8
503958
497938
492760
488198
484066
480224
476590
473112
469755
466494
463313
460197
457138
454125
451154
448218
445312
442434
439579
436746
433933
431140
428365
425607
422866
420140
417428
414730
412047
409376
406720
404077
401447
398832
396229
393640
391064
388500
385948
383407
380877
378357
375846
373344
370849
368363
365885
363414
360951
358497
356050
353611
351179
348756
346340
343932
341533
339142
336760
334387
332023
329668
327322
324984
322656
320338
318029
315730
313441
311161
308890
306628
304374
302128
299889
297659
295436
293222
291016
288821
286635
284461
282296
280140
277993
275853
273721
271596
269479
267369
265265
263166
261074
258987
256906
254832
252764
250703
248650
246603
244565
242535
240514
238502
236499
234505
232521
230546
228580
226623
224675
222734
220803
218881
216969
215065
213172
211289
209415
207551
205696
203852
202017
200192
198376
196571
194773
192985
191205
189433
187668
185911
184159
182414
180675
178942
177214
175494
173780
172074
170375
168684
167000
165324
163654
161991
160335
158686
157046
155413
153790
152174
150567
148968
147377
145794
144219
142653
141095
139546
138006
136475
134952
133439
131934
130438
128950
127472
126001
124540
123084
121639
120198
118769
117341
115926
114512
113108
111705
110311
108918
107530
106143
104757
103370
101979
100585
99179.7
97768.5
96336.8
94891.4
93411.4
91907.8
90342.1
88746.6
87025.1
85272.3
83281.4
81181.9
78859.1
506101
500240
494998
490268
485942
481913
478108
474475
470980
467597
464305
461092
457944
454853
451810
448810
445846
442915
440014
437139
434288
431460
428654
425868
423101
420352
417619
414903
412202
409517
406846
404191
401550
398924
396311
393713
391128
388556
385996
383448
380911
378384
375868
373361
370862
368372
365891
363418
360953
358497
356049
353609
351178
348754
346339
343932
341534
339144
336764
334392
332029
329676
327331
324996
322669
320352
318045
315746
313457
311177
308906
306643
304388
302142
299902
297671
295448
293233
291028
288833
286649
284475
282312
280158
278012
275873
273743
271619
269504
267394
265291
263193
261101
259014
256934
254861
252794
250734
248682
246637
244600
242570
240550
238537
236534
234539
232554
230577
228608
226648
224696
222753
220819
218894
216980
215075
213181
211297
209424
207560
205707
203864
202031
200209
198395
196591
194795
193008
191229
189457
187693
185935
184183
182437
180696
178961
177233
175511
173797
172090
170391
168699
167015
165338
163668
162004
160347
158697
157056
155423
153800
152184
150577
148979
147387
145803
144228
142660
141100
139549
138006
136471
134945
133427
131918
130417
128923
127438
125959
124489
123023
121566
120112
118668
117226
115794
114365
112942
111522
110105
108692
107278
105867
104450
103036
101611
100187
98740.7
97296.5
95815.3
94334.9
92791.4
91252.1
89605.6
87968.5
86161.9
84343.3
82327.8
80212.4
77965.7
507823
502124
496897
492088
487636
483466
479521
475757
472140
468646
465255
461950
458720
455554
452444
449382
446363
443382
440436
437520
434633
431772
428936
426122
423330
420559
417806
415072
412355
409655
406971
404304
401652
399015
396393
393785
391192
388611
386044
383489
380945
378412
375891
373378
370876
368383
365899
363423
360957
358499
356050
353610
351178
348755
346340
343934
341537
339149
336770
334399
332038
329686
327343
325009
322684
320368
318061
315764
313475
311195
308923
306660
304403
302155
299915
297682
295458
293244
291039
288845
286662
284489
282327
280174
278029
275892
273764
271642
269528
267419
265317
263220
261128
259042
256963
254890
252824
250765
248714
246671
244635
242607
240587
238574
236570
234574
232587
230607
228636
226672
224718
222771
220835
218907
216991
215085
213190
211306
209433
207570
205719
203877
202046
200225
198414
196611
194817
193031
191254
189482
187718
185959
184206
182459
180717
178980
177251
175527
173812
172104
170405
168712
167028
165350
163680
162015
160358
158708
157067
155433
153811
152194
150588
148988
147397
145812
144236
142666
141104
139550
138005
136466
134937
133414
131901
130395
128895
127403
125917
124437
122962
121492
120028
118568
117114
115665
114221
112779
111342
109903
108470
107029
105597
104149
102713
101250
99802.6
98313.4
96844.7
95312
93804.1
92204.5
90628.5
88927.9
87238.4
85400
83526.2
81530.7
79440.5
77260.3
509274
503713
498526
493683
489151
484878
480823
476950
473229
469637
466155
462767
459461
456225
453051
449932
446861
443833
440844
437889
434967
432075
429209
426370
423554
420761
417989
415238
412505
409791
407094
404415
401752
399105
396474
393857
391255
388667
386092
383530
380980
378442
375915
373398
370892
368395
365908
363431
360962
358503
356054
353613
351181
348758
346344
343939
341543
339156
336778
334409
332049
329698
327356
325023
322700
320385
318079
315782
313493
311213
308940
306674
304417
302167
299924
297691
295466
293251
291047
288853
286671
284500
282338
280187
278044
275909
273782
271662
269550
267444
265343
263246
261156
259071
256992
254919
252854
250796
248746
246704
244670
242642
240623
238610
236605
234607
232617
230635
228662
226695
224737
222787
220848
218919
217001
215094
213198
211314
209441
207579
205729
203889
202060
200240
198431
196630
194838
193053
191277
189505
187741
185982
184228
182479
180736
178997
177266
175541
173825
172115
170416
168722
167038
165360
163690
162024
160368
158717
157077
155443
153821
152202
150597
148995
147404
145818
144242
142669
141106
139549
138001
136458
134926
133399
131882
130369
128865
127366
125874
124383
122900
121417
119944
118469
117004
115538
114082
112618
111168
109704
108254
106785
105335
103856
102399
100903
99431.5
97908.2
96409.1
94841.9
93294.4
91662.9
90039.2
88314.5
86576.5
84735.5
82837.3
80864
78804.2
76673.7
510523
505075
499933
495080
490497
486152
482012
478049
474240
470563
467001
463538
460162
456863
453631
450458
447338
444266
441236
438245
435290
432367
429474
426610
423772
420958
418168
415400
412652
409924
407215
404525
401851
399194
396554
393929
391319
388724
386142
383573
381017
378473
375941
373420
370910
368410
365921
363441
360971
358511
356060
353619
351187
348764
346351
343946
341551
339165
336788
334420
332061
329711
327370
325038
322715
320401
318095
315798
313508
311226
308952
306685
304425
302174
299930
297695
295470
293255
291051
288858
286677
284506
282346
280196
278055
275922
273797
271679
269569
267465
265366
263272
261182
259098
257019
254946
252881
250824
248775
246733
244700
242674
240655
238641
236635
234636
232645
230660
228684
226713
224752
222800
220858
218927
217008
215100
213205
211320
209448
207586
205737
203898
202071
200252
198445
196646
194856
193072
191297
189526
187762
186002
184248
182496
180752
179011
177278
175551
173834
172123
170423
168729
167045
165367
163697
162031
160375
158723
157083
155449
153826
152206
150601
148999
147407
145819
144242
142666
141102
139543
137991
136445
134910
133379
131858
130339
128831
127325
125826
124327
122835
121342
119857
118370
116892
115412
113941
112461
110993
109510
108040
106550
105075
103575
102090
100575
99072.2
97527.7
95993.4
94405.2
92819.7
91167.4
89508
87770
86002.9
84165.6
82261.6
80301.9
78264.1
76170.9
511613
506255
501156
496305
491692
487295
483090
479056
475173
471423
467790
464261
460822
457465
454179
450957
447792
444678
441611
438585
435599
432648
429729
426841
423982
421149
418341
415557
412795
410054
407333
404631
401948
399282
396633
394000
391382
388780
386191
383617
381055
378506
375970
373445
370931
368429
365937
363455
360983
358522
356070
353628
351196
348773
346360
343956
341561
339176
336799
334432
332073
329724
327383
325051
322728
320413
318107
315809
313518
311235
308959
306690
304429
302176
299931
297696
295470
293255
291052
288859
286678
284509
282350
280201
278061
275930
273807
271691
269584
267483
265387
263293
261205
259121
257042
254969
252903
250846
248798
246757
244725
242699
240680
238666
236659
234659
232666
230679
228699
226726
224762
222807
220864
218932
217013
215105
213209
211325
209453
207591
205743
203904
202077
200260
198454
196656
194868
193085
191311
189541
187776
186016
184261
182509
180762
179020
177285
175557
173838
172127
170427
168733
167049
165372
163701
162035
160377
158725
157085
155450
153827
152206
150600
148997
147404
145816
144237
142659
141093
139531
137976
136428
134888
133354
131828
130305
128791
127280
125774
124268
122768
121267
119771
118273
116782
115290
113804
112310
110823
109324
107832
106326
104825
103309
101799
100267
98737.7
97176.3
95613
94006.6
92393
90724.7
89040.8
87297.6
85513
83677.4
81771.2
79818.4
77798.7
75735.6
512571
507285
502225
497381
492750
488316
484061
479969
476025
472213
468519
464931
461437
458027
454693
451426
448219
445067
441965
438908
435892
432914
429971
427061
424182
421331
418506
415707
412931
410178
407446
404734
402041
399366
396709
394069
391444
388835
386241
383661
381094
378541
376000
373472
370955
368449
365955
363471
360998
358535
356082
353640
351207
348784
346370
343966
341571
339186
336809
334442
332083
329733
327392
325060
322736
320420
318113
315813
313521
311236
308959
306689
304426
302172
299927
297692
295466
293251
291048
288855
286675
284506
282348
280201
278063
275933
273812
271699
269594
267495
265401
263310
261222
259137
257058
254985
252919
250862
248813
246773
244740
242715
240695
238681
236674
234673
232678
230689
228707
226731
224765
222809
220864
218932
217013
215105
213210
211326
209455
207593
205745
203906
202079
200262
198457
196660
194873
193091
191317
189547
187783
186023
184267
182514
180767
179023
177287
175558
173838
172126
170426
168732
167049
165372
163701
162034
160376
158723
157082
155446
153822
152200
150594
148991
147395
145808
144226
142649
141078
139516
137956
136407
134861
133324
131791
130266
128745
127235
125719
124208
122698
121192
119684
118179
116674
115175
113672
112168
110662
109150
107638
106116
104594
103062
101532
99987.9
98435.8
96861.4
95273.9
93652.3
92017.5
90338.4
88636.9
86890.2
85090
83251.8
81345.5
79398.3
77396.5
75359.2
513413
508185
503160
498326
493685
489223
484930
480792
476797
472933
469187
465548
462005
458549
455170
451862
448618
445431
442296
439209
436167
433164
430199
427269
424370
421502
418662
415849
413061
410296
407553
404831
402129
399447
396782
394135
391504
388889
386289
383704
381133
378576
376032
373500
370980
368471
365975
363489
361014
358549
356095
353651
351217
348793
346379
343974
341579
339193
336816
334448
332089
329738
327396
325063
322737
320420
318111
315810
313516
311231
308952
306681
304418
302164
299918
297683
295457
293242
291039
288846
286666
284498
282341
280194
278058
275931
273812
271701
269599
267502
265410
263319
261231
259146
257067
254993
252927
250869
248820
246779
244747
242721
240702
238688
236680
234677
232681
230690
228706
226729
224762
222805
220860
218928
217009
215102
213207
211325
209453
207593
205743
203904
202076
200259
198453
196657
194870
193089
191316
189546
187782
186021
184265
182512
180764
179021
177284
175555
173834
172122
170421
168728
167044
165366
163695
162027
160369
158714
157073
155437
153811
152191
150581
148980
147382
145798
144211
142635
141058
139500
137930
136385
134829
133294
131751
130226
128696
127188
125659
124150
122627
121118
119598
118089
116572
115067
113548
112037
110514
108993
107462
105924
104388
102844
101298
99742.8
98169
96582.6
94975.3
93340.9
91689.3
90003.6
88284
86531.8
84718.2
82875.2
80973
79033.5
77049.6
75034.9
514154
508973
503976
499154
494506
490025
485702
481528
477491
473583
469793
466109
462523
459026
455609
452264
448985
445767
442603
439489
436422
433396
430411
427461
424546
421662
418808
415982
413182
410406
407653
404923
402213
399522
396851
394197
391561
388941
386336
383747
381171
378610
376062
373527
371004
368493
365994
363506
361029
358562
356107
353661
351226
348801
346386
343980
341584
339197
336819
334450
332089
329738
327394
325059
322733
320414
318104
315801
313506
311219
308940
306668
304405
302150
299905
297669
295444
293229
291025
288833
286652
284483
282327
280182
278047
275922
273806
271698
269598
267503
265411
263320
261231
259146
257066
254991
252924
250866
248817
246775
244742
242716
240697
238683
236674
234671
232673
230681
228697
226719
224752
222796
220851
218919
217001
215095
213201
211320
209449
207588
205738
203898
202068
200250
198443
196647
194860
193079
191306
189536
187772
186012
184256
182504
180757
179014
177277
175549
173827
172116
170413
168719
167034
165354
163683
162014
160355
158699
157056
155422
153794
152177
150565
148966
147366
145784
144191
142618
141035
139482
137904
136362
134794
133261
131706
130185
128644
127139
125596
124088
122554
121048
119515
118002
116476
114968
113435
111917
110381
108849
107306
105752
104207
102652
101089
99532.5
97935.8
96340.3
94713.3
93070
91401.8
89710.1
87972.3
86210.6
84390
82544.2
80648.7
78718.7
76751.7
74757.1
514802
509659
504687
499875
495225
490729
486383
482179
478109
474164
470336
466615
462992
459458
456007
452629
449320
446073
442883
439745
436655
433609
430605
427639
424708
421810
418943
416104
413293
410508
407746
405007
402290
399593
396915
394256
391614
388989
386380
383786
381208
378643
376091
373553
371027
368513
366011
363521
361042
358573
356116
353669
351232
348805
346389
343981
341584
339196
336816
334446
332084
329731
327387
325050
322722
320403
318091
315787
313492
311204
308924
306652
304388
302134
299889
297654
295429
293213
291009
288815
286634
284465
282309
280164
278031
275908
273795
271689
269590
267495
265403
263310
261222
259136
257055
254978
252912
250853
248803
246760
244727
242701
240682
238667
236659
234654
232657
230665
228681
226705
224739
222783
220840
218908
216991
215086
213193
211312
209442
207581
205730
203888
202058
200237
198429
196631
194843
193062
191288
189518
187754
185994
184240
182489
180744
179002
177267
175539
173816
172105
170400
168705
167018
165336
163665
161994
160336
158678
157034
155401
153771
152159
150547
148951
147350
145768
144172
142598
141015
139460
137877
136334
134760
133226
131664
130140
128596
127087
125538
124025
122484
120974
119434
117920
116385
114875
113329
111806
110258
108719
107166
105604
104046
102483
100910
99342
97727.3
96126.2
94483.1
92832.6
91152.3
89448
87695.6
85925.4
84102.6
82257.9
80369.9
78449.8
76498.1
74521.1
515365
510253
505302
500499
495847
491341
486976
482748
478651
474676
470817
467064
463409
459844
456363
452957
449621
446349
443135
439975
436865
433802
430780
427799
424854
421943
419064
416216
413395
410601
407831
405085
402361
399658
396974
394310
391663
389034
386421
383823
381240
378672
376118
373576
371047
368531
366026
363533
361051
358581
356122
353673
351234
348806
346387
343979
341580
339190
336809
334438
332075
329720
327374
325037
322708
320388
318075
315770
313474
311186
308906
306633
304370
302116
299872
297638
295413
293197
290992
288797
286615
284445
282288
280143
278011
275889
273777
271673
269575
267478
265385
263291
261202
259115
257034
254957
252892
250832
248781
246737
244705
242678
240659
238644
236636
234631
232634
230643
228661
226687
224723
222769
220827
218896
216980
215075
213183
211302
209433
207571
205720
203876
202045
200222
198413
196612
194823
193040
191265
189495
187731
185971
184218
182468
180725
178984
177251
175521
173800
172087
170381
168685
166996
165314
163642
161970
160312
158652
157009
155377
153748
152136
150527
148931
147330
145748
144153
142576
140997
139437
137852
136301
134727
133185
131620
130088
128546
127031
125478
123966
122420
120905
119359
117837
116294
114780
113226
111701
110145
108601
107040
105471
103905
102337
100748
99167.6
97548.3
95933.8
94283
92621.5
90932.6
89214.1
87453.1
85677.8
83855.8
82013.9
80132.7
78222.5
76284.4
74322.8
515849
510763
505827
501032
496379
491864
487486
483239
479120
475121
471236
467456
463774
460184
456676
453246
449886
446592
443358
440179
437052
433972
430936
427941
424984
422062
419173
416315
413486
410684
407907
405155
402424
399716
397027
394358
391707
389073
386456
383855
381269
378698
376140
373595
371064
368544
366037
363542
361058
358585
356123
353672
351232
348802
346381
343971
341571
339180
336798
334425
332061
329706
327359
325021
322691
320370
318057
315752
313456
311167
308887
306615
304352
302099
299856
297621
295396
293180
290974
288779
286595
284424
282266
280120
277988
275867
273755
271651
269550
267453
265358
263263
261175
259087
257005
254929
252864
250803
248753
246708
244677
242649
240631
238616
236609
234604
232609
230619
228639
226667
224706
222753
220813
218883
216967
215062
213172
211290
209421
207559
205708
203862
202030
200205
198393
196590
194799
193014
191238
189467
187704
185945
184193
182443
180701
178961
177228
175498
173777
172062
170357
168659
166970
165287
163614
161943
160284
158624
156985
155349
153723
152112
150507
148907
147307
145722
144134
142548
140979
139411
137823
136269
134694
133132
131571
130033
128491
126969
125421
123901
122359
120841
119284
117751
116208
114683
113127
111600
110037
108491
106924
105354
103779
102205
100608
99017.1
97391.1
95759.1
94108.8
92432.3
90738.8
89009
87245.4
85467.6
83647.7
81807.9
79932.8
78032.5
76106.1
74158
516260
511193
506270
501479
496825
492305
487915
483654
479518
475500
471594
467792
464088
460475
456946
453495
450115
446802
443551
440356
437214
434120
431072
428065
425097
422166
419268
416402
413566
410757
407974
405215
402480
399766
397073
394400
391745
389107
386487
383882
381293
378718
376158
373610
371076
368554
366044
363546
361060
358585
356121
353668
351226
348794
346373
343961
341560
339168
336785
334411
332046
329690
327343
325004
322674
320352
318039
315734
313437
311148
308868
306597
304335
302082
299839
297606
295380
293163
290956
288760
286576
284404
282244
280098
277964
275842
273728
271623
269520
267421
265325
263231
261142
259054
256972
254896
252831
250770
248719
246677
244645
242618
240601
238587
236580
234577
232583
230595
228617
226646
224688
222737
220798
218870
216954
215049
213157
211276
209407
207544
205692
203846
202013
200186
198373
196567
194774
192987
191209
189437
187674
185915
184162
182413
180671
178932
177200
175470
173750
172035
170330
168631
166942
165258
163585
161914
160255
158599
156958
155322
153701
152087
150483
148880
147284
145694
144110
142523
140954
139373
137796
136224
134649
133079
131525
129984
128438
126905
125360
123828
122297
120766
119213
117669
116130
114590
113039
111504
109940
108388
106821
105251
103673
102094
100485
98882.4
97250.6
95607.5
93957.2
92267.6
90572.9
88835.5
87072.1
85292.8
83474.5
81636.9
79767.7
77875.5
75958.9
74022.9
516601
511549
506633
501845
497190
492664
488268
483996
479847
475814
471891
468072
464350
460718
457172
453703
450307
446979
443713
440504
437350
434245
431186
428169
425193
422253
419348
416476
413633
410818
408030
405267
402527
399809
397112
394434
391776
389135
386511
383904
381312
378734
376171
373621
371084
368559
366047
363547
361058
358582
356116
353661
351218
348785
346362
343950
341548
339155
336771
334397
332032
329675
327327
324988
322657
320335
318021
315716
313419
311130
308851
306580
304318
302066
299824
297591
295365
293148
290941
288744
286559
284385
282225
280076
277940
275816
273699
271591
269486
267385
265288
263195
261105
259018
256937
254862
252795
250735
248685
246645
244613
242588
240571
238558
236552
234552
232558
230572
228596
226628
224670
222721
220783
218856
216939
215035
213141
211261
209390
207528
205675
203830
201994
200167
198352
196546
194749
192961
191180
189408
187642
185882
184127
182380
180636
178899
177167
175440
173720
172006
170300
168601
166912
165229
163555
161884
160227
158575
156935
155303
153680
152063
150457
148853
147261
145667
144084
142493
140927
139334
137756
136167
134606
133031
131481
129936
128387
126842
125301
123762
122234
120684
119148
117598
116055
114510
112964
111416
109856
108298
106731
105161
103582
101995
100380
98768.8
97128.9
95480.8
93827.3
92132.1
90432.7
88693.6
86931.9
85150.2
83333.1
81497.9
79633.4
77747.9
75839.2
73913.3
516873
511832
506919
502132
497476
492948
488546
484268
480108
476064
472128
468295
464559
460913
457353
453871
450462
447121
443843
440624
437460
434345
431278
428254
425270
422324
419413
416535
413687
410867
408075
405307
402563
399842
397142
394461
391800
389156
386530
383920
381325
378745
376180
373628
371089
368562
366048
363546
361056
358577
356110
353655
351210
348776
346353
343940
341536
339143
336759
334384
332019
329662
327313
324973
322642
320320
318005
315700
313403
311115
308835
306565
304304
302052
299810
297577
295353
293136
290928
288731
286545
284370
282208
280058
277919
275792
273672
271561
269453
267351
265252
263159
261068
258983
256902
254830
252762
250704
248653
246615
244582
242559
240542
238531
236526
234528
232535
230553
228577
226612
224654
222708
220769
218842
216924
215020
213125
211245
209371
207511
205656
203812
201976
200150
198333
196527
194727
192938
191154
189380
187610
185849
184092
182345
180600
178865
177133
175409
173689
171976
170270
168572
166882
165200
163525
161857
160201
158554
156915
155281
153659
152037
150429
148824
147234
145634
144053
142461
140888
139284
137713
136128
134575
132985
131439
129881
128332
126786
125247
123700
122169
120616
119085
117528
115990
114445
112899
111342
109788
108218
106655
105084
103507
101907
100292
98671.2
97030.1
95380
93721.8
92024.8
90320
88584.7
86822.6
85038.1
83221.9
81387.8
79526.6
77646.6
75744.6
73826.4
517076
512043
507131
502345
497688
493158
488753
484470
480304
476251
472305
468462
464716
461060
457489
453996
450578
447228
443942
440714
437542
434421
431347
428317
425328
422377
419462
416579
413727
410904
408108
405337
402591
399866
397163
394481
391817
389171
386543
383931
381334
378753
376185
373632
371091
368564
366048
363545
361054
358574
356106
353650
351204
348770
346346
343932
341528
339134
336749
334374
332008
329651
327302
324962
322631
320308
317993
315687
313390
311102
308823
306553
304292
302041
299799
297567
295342
293125
290918
288720
286534
284359
282196
280044
277902
275772
273648
271534
269424
267322
265222
263130
261038
258955
256873
254803
252734
250679
248627
246590
244556
242536
240517
238510
236503
234509
232516
230536
228561
226599
224641
222696
220756
218830
216910
215006
213109
211229
209354
207494
205639
203798
201960
200137
198319
196513
194711
192921
191134
189358
187584
185821
184061
182313
180567
178833
177101
175380
173660
171949
170243
168548
166856
165175
163500
161836
160179
158533
156892
155259
153634
152010
150402
148794
147202
145599
144019
142424
140846
139250
137682
136088
134536
132945
131399
129831
128287
126736
125197
123649
122116
120561
119030
117473
115940
114390
112848
111287
109734
108159
106600
105021
103443
101835
100224
98596.1
96958.8
95303.5
93642.2
91949.1
90237.6
88508
86742.2
84956.9
83140.4
81305.8
79448.4
77571.6
75674.3
73761.5
517206
512178
507271
502486
497830
493299
488892
484604
480434
476375
472424
468574
464820
461157
457579
454080
450655
447299
444007
440775
437598
434472
431394
428360
425367
422413
419494
416608
413754
410928
408130
405357
402608
399882
397178
394493
391828
389181
386551
383938
381340
378757
376189
373634
371093
368564
366048
363544
361052
358572
356104
353646
351200
348765
346341
343926
341522
339128
336743
334367
332001
329643
327294
324953
322621
320298
317983
315677
313380
311092
308813
306543
304283
302032
299790
297557
295333
293117
290909
288713
286527
284352
282186
280032
277890
275757
273629
271513
269400
267299
265198
263108
261015
258934
256851
254782
252713
250660
248608
246572
244537
242519
240499
238494
236487
234495
232502
230524
228549
226589
224630
222687
220746
218820
216898
214993
213095
211214
209340
207481
205626
203787
201948
200128
198308
196504
194699
192909
191119
189342
187565
185801
184038