/*--------------------------------*- C++ -*----------------------------------*\
| =========                 |                                                 |
| \\      /  F ield         | OpenFOAM: The Open Source CFD Toolbox           |
|  \\    /   O peration     | Version:  2.4.0                                 |
|   \\  /    A nd           | Web:      www.OpenFOAM.org                      |
|    \\/     M anipulation  |                                                 |
\*---------------------------------------------------------------------------*/
FoamFile
{
    version     2.0;
    format      ascii;
    class       volVectorField;
    location    "0.67";
    object      U;
}
// * * * * * * * * * * * * * * * * * * * * * * * * * * * * * * * * * * * * * //

dimensions      [0 1 -1 0 0 0 0];

internalField   nonuniform List<vector> 
8800
(
(8.11419 0.383639 0)
(5.44785 0.248535 0)
(3.94781 0.0371067 0)
(3.07282 -0.0111915 0)
(2.89945 -0.0248561 0)
(2.45519 -0.00294263 0)
(2.66461 -0.0145549 0)
(2.19231 0.00767339 0)
(2.55241 -0.00706808 0)
(2.04228 0.00468772 0)
(2.48488 -0.00157953 0)
(1.9496 0.000184361 0)
(2.45609 -0.00318949 0)
(1.83724 0.0107814 0)
(2.48276 -0.0182919 0)
(1.71786 0.0248147 0)
(2.51547 -0.0236136 0)
(1.6144 0.0278102 0)
(2.47377 -0.000803231 0)
(1.42896 -0.0599273 0)
(10.1814 0.824926 0)
(9.56517 0.894247 0)
(9.08235 0.48808 0)
(7.78529 0.274907 0)
(7.87781 0.118603 0)
(6.5181 0.103199 0)
(7.309 0.026725 0)
(5.74014 0.0620109 0)
(7.01602 0.00806418 0)
(5.28766 0.0347577 0)
(6.80534 0.0115778 0)
(5.04372 0.0166746 0)
(6.6645 0.00459592 0)
(4.76691 0.0399115 0)
(6.75575 -0.0448572 0)
(4.39339 0.0773279 0)
(6.97523 -0.0688104 0)
(4.09238 0.0902202 0)
(7.06521 -0.0308024 0)
(3.87649 -0.000768408 0)
(10.3006 0.606082 0)
(10.3687 0.912417 0)
(11.3763 0.565379 0)
(10.0457 0.393958 0)
(11.2688 0.228454 0)
(9.10866 0.226554 0)
(11.0032 0.108886 0)
(8.23573 0.157838 0)
(10.7525 0.0478787 0)
(7.67974 0.0986183 0)
(10.4527 0.0338767 0)
(7.39733 0.0546775 0)
(10.241 0.0250744 0)
(6.97313 0.0715747 0)
(10.4358 -0.0552426 0)
(6.33264 0.124695 0)
(10.8657 -0.11393 0)
(5.83585 0.147843 0)
(11.1462 -0.0679447 0)
(5.59449 0.0149625 0)
(10.5148 0.428932 0)
(9.85646 0.758844 0)
(12.1856 0.499941 0)
(10.1013 0.37807 0)
(13.0357 0.237076 0)
(9.74642 0.262955 0)
(13.3921 0.143459 0)
(9.28411 0.226683 0)
(13.4347 0.0713982 0)
(9.09687 0.170804 0)
(13.2055 0.0477527 0)
(9.01143 0.103351 0)
(13.1013 0.0639277 0)
(8.57592 0.0920403 0)
(13.3988 -0.0370089 0)
(7.83259 0.172788 0)
(14.0054 -0.163826 0)
(7.18171 0.231178 0)
(14.3762 -0.16636 0)
(7.11955 0.144266 0)
(11.181 0.353286 0)
(8.76734 0.576181 0)
(12.8377 0.436271 0)
(9.05753 0.301382 0)
(13.9343 0.191175 0)
(9.09691 0.23339 0)
(14.4678 0.0987927 0)
(9.26192 0.266015 0)
(14.4772 -0.00466154 0)
(9.68014 0.241553 0)
(14.3708 0.0022079 0)
(9.733 0.119043 0)
(14.542 0.079727 0)
(9.64092 0.108226 0)
(14.8062 -0.0480328 0)
(9.0378 0.217747 0)
(15.5777 -0.200232 0)
(8.45151 0.316778 0)
(15.6107 -0.283579 0)
(8.81882 0.26579 0)
(11.8202 0.322897 0)
(8.17633 0.426421 0)
(12.8552 0.355727 0)
(8.88661 0.258355 0)
(13.641 0.0968286 0)
(9.22599 0.240924 0)
(13.9305 -0.0517315 0)
(9.89365 0.354682 0)
(13.6453 -0.153369 0)
(10.43 0.282409 0)
(13.7905 -0.0276616 0)
(10.2058 0.102301 0)
(14.0356 0.0216187 0)
(10.6342 0.133017 0)
(14.0349 -0.0625289 0)
(10.2182 0.209845 0)
(14.6148 -0.282234 0)
(10.2833 0.46666 0)
(14.0113 -0.445992 0)
(10.2208 0.307453 0)
(10.8224 0.246513 0)
(9.52782 0.373289 0)
(11.4062 0.235952 0)
(10.332 0.252577 0)
(12.2589 0.0114377 0)
(10.326 0.267396 0)
(12.7052 -0.205128 0)
(10.7057 0.438096 0)
(12.4413 -0.261856 0)
(11.2443 0.27597 0)
(12.6166 -0.0166283 0)
(10.9281 0.112006 0)
(12.8015 -0.0851843 0)
(11.5303 0.203196 0)
(12.5007 -0.0971342 0)
(11.3782 0.258208 0)
(12.6925 -0.443754 0)
(11.6897 0.62147 0)
(12.313 -0.473724 0)
(10.9637 0.295203 0)
(8.90373 0.159758 0)
(11.4192 0.315933 0)
(9.55674 0.139919 0)
(12.0209 0.175636 0)
(10.7645 0.0219854 0)
(11.5013 0.231467 0)
(11.8422 -0.27053 0)
(11.1251 0.527184 0)
(11.8451 -0.381474 0)
(11.8132 0.29584 0)
(11.4338 0.00689276 0)
(11.922 0.0887755 0)
(11.5579 -0.168322 0)
(12.3176 0.274948 0)
(11.1954 -0.136185 0)
(12.2839 0.299402 0)
(11.4219 -0.541227 0)
(12.0899 0.677201 0)
(11.7367 -0.356329 0)
(11.5694 0.176398 0)
(7.69498 0.0941008 0)
(12.851 0.240359 0)
(7.96483 0.0458086 0)
(13.6264 0.0835007 0)
(8.82401 0.0813493 0)
(13.2726 0.0796694 0)
(10.4143 -0.20696 0)
(11.9396 0.522329 0)
(11.4009 -0.469298 0)
(11.9318 0.440807 0)
(10.5829 -0.0669467 0)
(13.0346 0.0963952 0)
(10.0373 -0.184025 0)
(13.2752 0.295479 0)
(9.99096 -0.122909 0)
(13.1999 0.280296 0)
(10.7758 -0.492207 0)
(12.1289 0.645676 0)
(11.4414 -0.337186 0)
(12.5068 0.231959 0)
(7.67791 -0.0361901 0)
(13.1003 0.248686 0)
(7.73815 -0.106517 0)
(14.075 0.0720755 0)
(8.13646 0.0794653 0)
(14.3403 -0.0789856 0)
(9.05722 -0.0434199 0)
(13.4702 0.335747 0)
(10.3955 -0.454015 0)
(12.7077 0.544996 0)
(10.3182 -0.245545 0)
(13.9696 0.195231 0)
(9.21669 -0.18562 0)
(14.605 0.263023 0)
(9.19621 -0.112763 0)
(14.6693 0.122966 0)
(10.4428 -0.318046 0)
(13.3661 0.570886 0)
(11.1741 -0.429099 0)
(13.9061 0.177555 0)
(8.58765 -0.149394 0)
(12.0207 0.203163 0)
(9.14034 -0.232063 0)
(12.946 0.0702964 0)
(9.4789 0.0269836 0)
(13.7225 -0.101651 0)
(9.47061 -0.0209217 0)
(13.9049 0.1849 0)
(10.0317 -0.32733 0)
(13.5539 0.419018 0)
(10.5567 -0.316847 0)
(14.1911 0.282963 0)
(9.97265 -0.250081 0)
(14.9443 0.215207 0)
(10.0103 -0.0552378 0)
(15.1753 -0.0762949 0)
(10.624 -0.169238 0)
(14.535 0.342232 0)
(11.7687 -0.270936 0)
(14.1756 -0.0453073 0)
(9.66912 -0.210361 0)
(10.6858 0.0898678 0)
(10.3483 -0.335417 0)
(11.5469 0.0585592 0)
(10.7778 -0.0828701 0)
(12.4711 -0.0599357 0)
(10.5693 -0.0924064 0)
(13.0338 0.149779 0)
(10.65 -0.31968 0)
(13.3016 0.299343 0)
(11.0693 -0.285932 0)
(13.5519 0.212879 0)
(11.2667 -0.250611 0)
(13.714 0.162739 0)
(11.6396 -0.0802988 0)
(14.0199 -0.117818 0)
(11.5604 -0.0764307 0)
(13.8643 0.120358 0)
(12.4933 -0.109827 0)
(13.2925 -0.203749 0)
(9.90483 -0.253509 0)
(10.3383 -0.0406007 0)
(10.6787 -0.401611 0)
(11.0575 -0.0137964 0)
(11.234 -0.131037 0)
(11.7467 -0.0642839 0)
(11.2974 -0.13408 0)
(12.0253 0.0833199 0)
(11.6576 -0.298928 0)
(12.1489 0.201833 0)
(11.8205 -0.24631 0)
(12.6281 0.113396 0)
(11.9254 -0.178681 0)
(12.5018 0.0321922 0)
(12.5888 -0.0590916 0)
(12.547 -0.13003 0)
(12.4278 -0.0691518 0)
(12.6542 0.0189135 0)
(12.8755 -0.0618757 0)
(12.527 -0.22455 0)
(9.99813 -0.297578 0)
(10.2178 -0.176653 0)
(10.8232 -0.460292 0)
(11.0113 -0.0711351 0)
(11.3556 -0.178658 0)
(11.6966 -0.101529 0)
(11.4579 -0.127481 0)
(11.8546 -0.0359851 0)
(11.9491 -0.24472 0)
(11.7403 0.128628 0)
(12.1062 -0.254279 0)
(12.2816 0.0555154 0)
(12.079 -0.131714 0)
(12.2622 -0.0827139 0)
(12.5642 -0.0323746 0)
(12.3481 -0.149028 0)
(12.4376 -0.061956 0)
(12.4066 -0.062746 0)
(12.8187 -0.0769047 0)
(12.4326 -0.231835 0)
(9.96111 -0.342952 0)
(10.2881 -0.3174 0)
(10.901 -0.511874 0)
(11.1018 -0.148287 0)
(11.5348 -0.224177 0)
(11.6453 -0.13523 0)
(11.6303 -0.130943 0)
(11.9195 -0.131571 0)
(11.9277 -0.185754 0)
(11.8939 0.0408889 0)
(12.1662 -0.259774 0)
(12.2391 0.0125577 0)
(12.164 -0.100005 0)
(12.2716 -0.14899 0)
(12.4759 -0.0360479 0)
(12.3292 -0.137009 0)
(12.354 -0.0716542 0)
(12.3835 -0.12409 0)
(12.6147 -0.105914 0)
(12.3992 -0.209896 0)
(9.86297 -0.408284 0)
(10.4697 -0.473755 0)
(10.974 -0.548995 0)
(11.3013 -0.233104 0)
(11.6665 -0.254828 0)
(11.6177 -0.177617 0)
(11.8281 -0.16173 0)
(11.8636 -0.175729 0)
(11.8565 -0.169192 0)
(11.9641 -0.0354432 0)
(11.9648 -0.239495 0)
(11.9765 -0.0236195 0)
(12.0001 -0.0941602 0)
(11.879 -0.170975 0)
(12.0662 -0.0404629 0)
(11.7896 -0.124992 0)
(11.9107 -0.0774013 0)
(11.7253 -0.149547 0)
(11.9066 -0.121566 0)
(11.5106 -0.182455 0)
(9.83203 -0.494201 0)
(10.673 -0.649966 0)
(11.0434 -0.590922 0)
(11.4202 -0.329093 0)
(11.5239 -0.285546 0)
(11.3956 -0.223004 0)
(11.5016 -0.188207 0)
(11.2788 -0.174592 0)
(11.2055 -0.164369 0)
(11.2066 -0.066886 0)
(10.9386 -0.183884 0)
(10.9329 -0.0454159 0)
(10.8751 -0.074176 0)
(10.5692 -0.137362 0)
(10.7352 -0.0370399 0)
(10.3607 -0.0932623 0)
(10.4775 -0.064559 0)
(10.1564 -0.1336 0)
(10.2543 -0.086123 0)
(9.7853 -0.148432 0)
(9.96313 -0.656789 0)
(10.7225 -0.829027 0)
(10.7507 -0.621734 0)
(10.7433 -0.368506 0)
(10.4018 -0.265053 0)
(10.0487 -0.197604 0)
(9.83932 -0.143507 0)
(9.46189 -0.116531 0)
(9.26951 -0.112627 0)
(9.12461 -0.0335778 0)
(8.80693 -0.107197 0)
(8.76994 -0.0309651 0)
(8.6409 -0.0298347 0)
(8.35817 -0.0857437 0)
(8.46067 -0.0215902 0)
(8.11799 -0.0486379 0)
(8.20855 -0.0441627 0)
(7.87851 -0.0827644 0)
(7.92378 -0.0609661 0)
(7.52304 -0.0787758 0)
(10.0387 -0.849158 0)
(9.66882 -0.85064 0)
(8.80472 -0.514645 0)
(8.11756 -0.263726 0)
(7.44462 -0.139746 0)
(6.98722 -0.0848746 0)
(6.68374 -0.0478623 0)
(6.38295 -0.0356477 0)
(6.20052 -0.0437153 0)
(6.07439 0.00169469 0)
(5.86411 -0.0449166 0)
(5.81083 -0.0130089 0)
(5.72196 0.000622941 0)
(5.54265 -0.0441427 0)
(5.56588 -0.00728834 0)
(5.35116 -0.01839 0)
(5.39468 -0.0215072 0)
(5.14304 -0.0403089 0)
(5.15513 -0.0315732 0)
(4.84974 -0.0129785 0)
(8.07852 -0.390695 0)
(5.43598 -0.238263 0)
(3.90048 -0.04568 0)
(3.16701 0.0137923 0)
(2.77968 0.0198213 0)
(2.58952 0.00927268 0)
(2.47075 0.00779417 0)
(2.38272 0.0031441 0)
(2.30476 -0.00349625 0)
(2.27091 0.00896413 0)
(2.20488 -0.00735414 0)
(2.16142 -0.000149271 0)
(2.14969 0.00733401 0)
(2.08424 -0.00903971 0)
(2.0606 0.0022256 0)
(1.99771 -0.000773727 0)
(2.00135 -0.000896444 0)
(1.89375 -0.00589272 0)
(1.86327 -0.00243107 0)
(1.72669 0.0129831 0)
(2.42593 -0.0264207 0)
(1.83501 0.0625845 0)
(2.765 0.0550099 0)
(2.14459 0.105042 0)
(3.13569 0.0292489 0)
(2.4055 0.0139837 0)
(3.40625 -0.0799843 0)
(2.59043 -0.0492621 0)
(3.60672 -0.125892 0)
(2.72657 -0.119796 0)
(3.80367 -0.209105 0)
(2.85709 -0.18853 0)
(3.97653 -0.250006 0)
(2.9394 -0.206598 0)
(4.07114 -0.261478 0)
(2.94182 -0.211488 0)
(4.08311 -0.259526 0)
(2.87712 -0.186667 0)
(4.04111 -0.206936 0)
(2.79815 -0.0909673 0)
(4.01694 -0.0712041 0)
(2.76447 0.079354 0)
(4.04731 0.117991 0)
(2.76641 0.277495 0)
(4.12738 0.298907 0)
(2.8074 0.438263 0)
(4.2626 0.406447 0)
(2.89481 0.513299 0)
(4.45112 0.426778 0)
(3.04225 0.497238 0)
(4.70313 0.353397 0)
(3.25691 0.392301 0)
(5.00593 0.206341 0)
(3.52132 0.225395 0)
(5.32207 0.0287134 0)
(3.78438 0.0445028 0)
(5.62641 -0.136517 0)
(4.01141 -0.0934215 0)
(5.89358 -0.256567 0)
(4.21369 -0.171736 0)
(6.11393 -0.308322 0)
(4.38075 -0.176478 0)
(6.3041 -0.295381 0)
(4.53619 -0.143606 0)
(6.48932 -0.233751 0)
(4.70481 -0.0882078 0)
(6.71737 -0.17813 0)
(4.95286 -0.0494462 0)
(6.98169 -0.180823 0)
(5.26973 -0.0989094 0)
(7.24751 -0.297894 0)
(5.59132 -0.297743 0)
(7.4369 -0.56433 0)
(5.81476 -0.566043 0)
(7.41161 -0.877317 0)
(5.88108 -0.784851 0)
(7.23605 -1.06419 0)
(5.90358 -0.97353 0)
(7.1191 -1.18845 0)
(5.91712 -0.944787 0)
(6.86794 -0.905115 0)
(5.45028 -0.612156 0)
(6.02514 -0.696241 0)
(4.56177 -0.522111 0)
(5.25014 -0.505728 0)
(4.33961 0.00842644 0)
(5.35767 0.38216 0)
(4.86997 1.05144 0)
(5.8397 1.34113 0)
(5.19597 1.70618 0)
(6.05476 1.72455 0)
(5.23958 1.89742 0)
(6.13898 1.70835 0)
(5.47678 1.83109 0)
(6.28789 1.57578 0)
(6.0285 1.53528 0)
(6.6593 1.25378 0)
(6.71093 1.06156 0)
(7.23773 0.732843 0)
(7.48137 0.409651 0)
(7.99676 0.0602885 0)
(8.30843 -0.366627 0)
(8.83521 -0.709304 0)
(9.15462 -1.0546 0)
(9.68354 -1.39296 0)
(9.9221 -1.61475 0)
(10.3212 -1.87599 0)
(10.6535 -2.14209 0)
(10.9006 -2.32098 0)
(11.2931 -2.59582 0)
(11.4774 -2.87531 0)
(11.8857 -3.17317 0)
(12.0581 -3.56511 0)
(12.3498 -3.86396 0)
(12.3968 -4.18788 0)
(12.4991 -4.36839 0)
(12.2748 -4.38989 0)
(12.168 -4.36492 0)
(11.7756 -4.25228 0)
(11.4995 -4.14084 0)
(11.0531 -3.96967 0)
(10.638 -3.8204 0)
(10.2773 -3.68109 0)
(9.82631 -3.63844 0)
(9.49971 -3.47782 0)
(9.05801 -3.46966 0)
(9.00147 -3.55526 0)
(8.7174 -3.66587 0)
(8.74209 -3.91317 0)
(8.73732 -4.21104 0)
(8.65271 -4.48115 0)
(8.68749 -4.69117 0)
(8.49603 -5.0683 0)
(8.61006 -5.33432 0)
(8.37153 -5.59477 0)
(8.53093 -5.74781 0)
(8.35837 -5.88452 0)
(8.37525 -5.95131 0)
(8.31698 -5.88958 0)
(8.2652 -5.90141 0)
(8.48084 -5.97042 0)
(8.76642 -6.10182 0)
(9.31848 -6.00776 0)
(9.82465 -5.56833 0)
(10.2198 -4.97361 0)
(10.5675 -4.29358 0)
(10.9402 -3.37051 0)
(11.1079 -2.02971 0)
(10.9788 -0.814079 0)
(11.0394 0.0950931 0)
(10.9989 0.99664 0)
(10.873 1.85672 0)
(10.8001 2.37954 0)
(10.6961 2.9878 0)
(10.6419 3.66955 0)
(10.8394 4.31933 0)
(10.8929 5.14359 0)
(10.7992 5.67819 0)
(10.5936 5.75962 0)
(10.0938 5.72437 0)
(9.68527 5.49935 0)
(9.21093 5.04185 0)
(8.83888 4.79753 0)
(8.56282 4.45334 0)
(8.40079 4.068 0)
(8.21003 3.74058 0)
(7.99726 3.43966 0)
(7.79902 3.1679 0)
(7.6286 2.65988 0)
(7.49042 2.249 0)
(7.36207 1.80987 0)
(7.25297 1.39772 0)
(7.40715 0.626414 0)
(7.41902 0.0332846 0)
(7.34249 -0.196362 0)
(7.1412 0.395121 0)
(7.03032 1.16598 0)
(7.05412 1.57047 0)
(7.09101 1.17547 0)
(7.04199 0.474668 0)
(7.06432 -0.32924 0)
(7.00231 -0.816118 0)
(6.98 -0.786769 0)
(6.90626 -0.538052 0)
(6.84908 -0.463527 0)
(6.86066 -0.442792 0)
(6.73733 0.203817 0)
(6.92567 1.77909 0)
(7.25129 3.10154 0)
(7.38539 3.73453 0)
(7.4848 4.37055 0)
(7.53418 5.67812 0)
(7.79749 7.30367 0)
(7.83589 8.58349 0)
(7.42935 8.85843 0)
(7.25951 8.56875 0)
(7.46051 8.37336 0)
(6.90088 7.32205 0)
(5.94324 5.95888 0)
(7.04323 6.24063 0)
(7.08098 4.20165 0)
(4.78432 4.69172 0)
(10.0937 2.54544 0)
(3.48236 4.00541 0)
(11.4884 0.596444 0)
(4.39013 3.52037 0)
(11.0011 -0.678924 0)
(5.19824 2.82723 0)
(9.62532 -1.30985 0)
(5.96425 1.96399 0)
(8.31702 -2.54567 0)
(5.83291 0.362305 0)
(7.31196 -3.66829 0)
(5.28524 0.30098 0)
(5.98085 -3.38606 0)
(3.64473 0.613139 0)
(4.46237 -3.73916 0)
(2.86437 -0.199972 0)
(4.48944 -3.70497 0)
(4.97833 1.29717 0)
(6.19254 0.048459 0)
(4.87453 0.130651 0)
(6.15295 0.0458679 0)
(4.86796 0.0325951 0)
(6.37909 -0.0727624 0)
(5.01127 -0.066436 0)
(6.57303 -0.161264 0)
(5.12915 -0.13107 0)
(6.75637 -0.215791 0)
(5.24044 -0.187815 0)
(6.90799 -0.276643 0)
(5.32583 -0.223833 0)
(7.02568 -0.281553 0)
(5.37716 -0.193346 0)
(7.05835 -0.236876 0)
(5.31726 -0.150706 0)
(6.98356 -0.205325 0)
(5.15905 -0.108505 0)
(6.83135 -0.166548 0)
(4.94612 -0.0278856 0)
(6.66339 -0.0722676 0)
(4.76832 0.108156 0)
(6.56938 0.0823072 0)
(4.66994 0.280379 0)
(6.5832 0.242535 0)
(4.64857 0.409829 0)
(6.70869 0.330085 0)
(4.70814 0.446709 0)
(6.92895 0.323248 0)
(4.84899 0.38409 0)
(7.22368 0.222424 0)
(5.06432 0.250958 0)
(7.56448 0.0530665 0)
(5.33347 0.0829225 0)
(7.90549 -0.128177 0)
(5.6194 -0.0768059 0)
(8.2244 -0.278731 0)
(5.88509 -0.192471 0)
(8.48781 -0.369731 0)
(6.1341 -0.247553 0)
(8.70155 -0.393332 0)
(6.36511 -0.240456 0)
(8.85305 -0.361358 0)
(6.58436 -0.187436 0)
(8.95604 -0.306359 0)
(6.81506 -0.120427 0)
(9.01911 -0.27759 0)
(7.09634 -0.088925 0)
(9.07255 -0.30334 0)
(7.42769 -0.157363 0)
(9.12489 -0.427814 0)
(7.73143 -0.330573 0)
(9.16823 -0.639292 0)
(7.90611 -0.588968 0)
(9.16001 -0.834323 0)
(7.9253 -0.768754 0)
(9.11946 -0.934632 0)
(7.82689 -0.895798 0)
(8.89153 -1.03031 0)
(7.34796 -0.881751 0)
(8.38198 -0.907267 0)
(6.98274 -0.610661 0)
(8.20934 -0.553867 0)
(6.84492 -0.144807 0)
(7.79 -0.0891879 0)
(6.19512 0.245595 0)
(7.05327 0.278708 0)
(5.84992 0.753458 0)
(7.06275 0.953346 0)
(6.34678 1.47775 0)
(7.56334 1.58962 0)
(7.00326 1.91262 0)
(7.94024 1.7999 0)
(7.60332 1.85427 0)
(8.20861 1.62408 0)
(8.15636 1.46076 0)
(8.61454 1.14533 0)
(8.72066 0.819116 0)
(9.19403 0.494624 0)
(9.44496 0.0897158 0)
(9.82686 -0.230248 0)
(10.1146 -0.658098 0)
(10.5531 -0.988194 0)
(10.684 -1.31712 0)
(11.14 -1.61734 0)
(11.2342 -1.83104 0)
(11.6036 -2.06329 0)
(11.7486 -2.31724 0)
(12.059 -2.5221 0)
(12.3037 -2.82808 0)
(12.6076 -3.055 0)
(12.8476 -3.38648 0)
(13.1024 -3.72733 0)
(13.1535 -3.94122 0)
(13.2252 -4.20056 0)
(13.0574 -4.22024 0)
(12.733 -4.19344 0)
(12.488 -4.10858 0)
(11.9355 -3.92799 0)
(11.6038 -3.75301 0)
(11.0885 -3.63469 0)
(10.7004 -3.43474 0)
(10.2108 -3.35548 0)
(9.89773 -3.29125 0)
(9.4204 -3.16885 0)
(9.30406 -3.32085 0)
(9.13729 -3.4432 0)
(8.92319 -3.59681 0)
(8.9865 -3.83511 0)
(8.76209 -4.13173 0)
(8.6799 -4.31139 0)
(8.39314 -4.6481 0)
(8.26876 -5.01368 0)
(8.14587 -5.2481 0)
(7.96517 -5.53753 0)
(8.02207 -5.71557 0)
(7.66932 -5.82515 0)
(7.65613 -5.7353 0)
(7.33696 -5.73641 0)
(7.46953 -5.95834 0)
(7.7008 -6.27398 0)
(8.1077 -6.52959 0)
(8.70404 -6.43344 0)
(9.03987 -5.89759 0)
(9.41119 -5.17506 0)
(9.56975 -4.4888 0)
(9.85633 -3.42648 0)
(10.0434 -2.0317 0)
(10.0556 -0.797558 0)
(9.96529 0.111028 0)
(9.82785 1.08421 0)
(9.80526 1.91137 0)
(9.92329 2.42312 0)
(9.7438 2.95631 0)
(9.66361 3.55426 0)
(9.8436 4.21237 0)
(9.96868 5.08785 0)
(9.86612 5.6684 0)
(9.72548 5.99732 0)
(9.35659 6.1005 0)
(8.99314 5.92205 0)
(8.62977 5.4072 0)
(8.32915 4.9995 0)
(8.11982 4.67347 0)
(7.88285 4.1947 0)
(7.84348 3.93595 0)
(7.59518 3.59175 0)
(7.51369 3.2994 0)
(7.47662 2.72613 0)
(7.35217 2.39323 0)
(7.12986 1.97504 0)
(7.11452 1.37288 0)
(7.30985 0.46089 0)
(7.41227 -0.0768105 0)
(7.29481 -0.123717 0)
(7.17407 0.50099 0)
(7.21078 1.2298 0)
(7.35078 1.50131 0)
(7.42487 1.17863 0)
(7.32 0.455055 0)
(7.2528 -0.273309 0)
(7.1872 -0.741596 0)
(7.2234 -0.688385 0)
(7.19852 -0.552719 0)
(7.07677 -0.503731 0)
(6.95369 -0.446747 0)
(6.72947 0.151945 0)
(6.78534 1.50225 0)
(7.11702 2.76103 0)
(7.35532 3.50244 0)
(7.511 4.27269 0)
(7.77737 5.57263 0)
(7.91953 7.09804 0)
(8.0435 8.61678 0)
(8.16229 9.28304 0)
(7.59011 8.52617 0)
(7.00876 8.08459 0)
(7.87179 7.95186 0)
(7.2922 5.84045 0)
(5.2469 6.44833 0)
(10.2439 3.84042 0)
(3.59246 5.443 0)
(11.1733 0.954406 0)
(5.14959 4.36053 0)
(10.5741 -0.312984 0)
(6.29244 3.69431 0)
(9.50792 -0.794021 0)
(6.72592 3.07983 0)
(8.93455 -0.899971 0)
(6.59082 2.36881 0)
(8.02001 -1.49561 0)
(6.02695 0.699609 0)
(7.25852 -2.18491 0)
(4.40778 0.8737 0)
(5.15223 -1.28234 0)
(1.37902 1.25754 0)
(4.3064 -2.44273 0)
(1.8555 -0.145002 0)
(5.11694 -2.59709 0)
(4.06543 -0.624394 0)
(9.41133 -0.0938487 0)
(7.60858 0.0646408 0)
(9.40955 0.0443331 0)
(7.59388 0.0827362 0)
(9.56005 -0.0687722 0)
(7.71918 -0.0559119 0)
(9.68461 -0.193789 0)
(7.72538 -0.156553 0)
(9.72672 -0.278502 0)
(7.72284 -0.22046 0)
(9.76844 -0.326269 0)
(7.72231 -0.241669 0)
(9.79142 -0.323034 0)
(7.71799 -0.193056 0)
(9.79005 -0.251142 0)
(7.68053 -0.108905 0)
(9.74925 -0.173796 0)
(7.58736 -0.0254915 0)
(9.6719 -0.0822815 0)
(7.4045 0.0758632 0)
(9.53686 0.0314776 0)
(7.1563 0.177946 0)
(9.40702 0.147195 0)
(6.94366 0.293738 0)
(9.35184 0.2522 0)
(6.85611 0.384824 0)
(9.42245 0.287318 0)
(6.93702 0.398793 0)
(9.57953 0.244938 0)
(7.13755 0.327092 0)
(9.77328 0.114147 0)
(7.41329 0.17634 0)
(9.97497 -0.0650756 0)
(7.71624 -0.000143746 0)
(10.1756 -0.248597 0)
(7.99555 -0.160799 0)
(10.3445 -0.401094 0)
(8.24895 -0.279441 0)
(10.4614 -0.490709 0)
(8.48639 -0.317526 0)
(10.5357 -0.527775 0)
(8.72479 -0.289933 0)
(10.5689 -0.491867 0)
(8.94604 -0.234279 0)
(10.5836 -0.409651 0)
(9.15615 -0.179434 0)
(10.5883 -0.331825 0)
(9.37013 -0.158381 0)
(10.6078 -0.315495 0)
(9.58127 -0.234592 0)
(10.6398 -0.420178 0)
(9.72788 -0.411543 0)
(10.6825 -0.601949 0)
(9.79975 -0.631848 0)
(10.6926 -0.785766 0)
(9.74815 -0.765304 0)
(10.6265 -0.924203 0)
(9.58234 -0.845167 0)
(10.3826 -0.916064 0)
(9.26037 -0.699837 0)
(10.0969 -0.684559 0)
(8.99083 -0.389629 0)
(9.69412 -0.384931 0)
(8.56633 -0.0751086 0)
(9.25052 0.0265647 0)
(8.26089 0.465171 0)
(8.81857 0.613312 0)
(7.90915 0.91409 0)
(8.33807 0.967675 0)
(7.82909 1.22128 0)
(8.31983 1.2858 0)
(8.33891 1.48887 0)
(8.79279 1.52399 0)
(9.05924 1.49641 0)
(9.40976 1.4056 0)
(9.7743 1.19864 0)
(10.0282 0.991455 0)
(10.4112 0.614699 0)
(10.6241 0.28546 0)
(11.0287 -0.146864 0)
(11.1702 -0.4321 0)
(11.5395 -0.87576 0)
(11.6675 -1.17405 0)
(11.8738 -1.51399 0)
(12.1086 -1.79243 0)
(12.2264 -1.99154 0)
(12.5552 -2.27936 0)
(12.7233 -2.51364 0)
(13.0437 -2.74557 0)
(13.3239 -3.09545 0)
(13.5483 -3.24285 0)
(13.7567 -3.61117 0)
(13.9245 -3.80663 0)
(13.7402 -3.96786 0)
(13.7503 -4.1211 0)
(13.2118 -3.99017 0)
(12.9621 -3.91701 0)
(12.436 -3.77492 0)
(11.9543 -3.55683 0)
(11.5704 -3.45956 0)
(11.0644 -3.28311 0)
(10.5799 -3.09417 0)
(10.299 -3.11073 0)
(9.94469 -2.97138 0)
(9.6666 -3.00853 0)
(9.64771 -3.18631 0)
(9.32872 -3.2323 0)
(9.20183 -3.42118 0)
(9.04835 -3.68181 0)
(8.70775 -3.88881 0)
(8.38225 -4.11706 0)
(8.03554 -4.5161 0)
(7.8609 -4.80055 0)
(7.61099 -5.121 0)
(7.49706 -5.37027 0)
(7.17306 -5.46984 0)
(6.87642 -5.50909 0)
(6.75871 -5.46638 0)
(6.50822 -5.7562 0)
(6.85205 -6.23507 0)
(6.93972 -6.72853 0)
(7.41947 -6.99648 0)
(7.74374 -6.92129 0)
(8.01325 -6.32719 0)
(8.30039 -5.50017 0)
(8.27813 -4.76824 0)
(8.5864 -3.68031 0)
(8.7013 -2.23551 0)
(8.78574 -0.759124 0)
(8.56944 0.285644 0)
(8.64946 1.07058 0)
(8.65464 1.70047 0)
(8.66085 2.52198 0)
(8.50797 3.14497 0)
(8.66987 3.55033 0)
(8.74013 4.08513 0)
(8.74813 5.05914 0)
(8.84074 5.69966 0)
(8.8836 6.10168 0)
(8.62484 6.29619 0)
(8.34789 6.03849 0)
(8.11289 5.66499 0)
(7.66795 5.23432 0)
(7.55589 4.85231 0)
(7.42599 4.24102 0)
(7.32299 3.9975 0)
(7.182 3.72641 0)
(7.22067 3.28282 0)
(7.24073 2.83949 0)
(7.07439 2.4702 0)
(6.88028 2.03933 0)
(7.01003 1.1511 0)
(7.16549 0.432822 0)
(7.18355 -0.00220725 0)
(6.99119 0.0649407 0)
(6.89512 0.390361 0)
(7.03514 1.06035 0)
(7.38771 1.31093 0)
(7.57412 1.19568 0)
(7.71555 0.524725 0)
(7.72071 -0.256137 0)
(7.67513 -0.819034 0)
(7.55331 -0.707131 0)
(7.41047 -0.395301 0)
(7.30475 -0.190334 0)
(6.93064 -0.200545 0)
(6.83489 0.334463 0)
(6.70633 1.4323 0)
(7.0967 2.57609 0)
(7.3943 3.30158 0)
(7.49668 3.97641 0)
(7.82555 5.31562 0)
(8.07833 7.00317 0)
(7.97157 8.34109 0)
(8.2344 9.48821 0)
(8.66845 9.34152 0)
(7.44306 7.85346 0)
(6.53603 8.14986 0)
(9.95982 5.76626 0)
(4.28145 7.07258 0)
(10.7986 2.60516 0)
(5.41615 5.8239 0)
(9.76406 -0.00644695 0)
(6.06966 4.44532 0)
(9.72925 -0.418618 0)
(6.60811 3.68781 0)
(9.93193 -0.185625 0)
(6.73412 2.47429 0)
(10.2307 0.169321 0)
(5.80056 2.08801 0)
(9.95514 -0.61206 0)
(5.96921 0.218998 0)
(9.24157 -0.991445 0)
(2.48644 2.18214 0)
(6.50182 0.112337 0)
(0.400351 1.10926 0)
(6.69419 -1.87399 0)
(3.18833 -2.15324 0)
(7.7784 -2.78897 0)
(6.02191 -2.23574 0)
(11.8625 -0.16948 0)
(9.77061 -0.0889856 0)
(11.8919 -0.161459 0)
(9.83175 -0.0199328 0)
(12.0041 -0.144555 0)
(9.9517 -0.0735395 0)
(12.0976 -0.228865 0)
(9.9351 -0.147406 0)
(12.0582 -0.299166 0)
(9.83907 -0.221578 0)
(11.9828 -0.357884 0)
(9.76649 -0.245103 0)
(11.9415 -0.341691 0)
(9.71914 -0.183179 0)
(11.897 -0.238892 0)
(9.64322 -0.0899595 0)
(11.8513 -0.145016 0)
(9.57576 -0.000677145 0)
(11.8099 -0.0571352 0)
(9.49253 0.121244 0)
(11.7336 0.063317 0)
(9.41595 0.255501 0)
(11.6623 0.192459 0)
(9.39224 0.38355 0)
(11.5694 0.276079 0)
(9.40857 0.430655 0)
(11.4961 0.251992 0)
(9.50936 0.376375 0)
(11.4691 0.168327 0)
(9.68357 0.249597 0)
(11.4769 0.00709033 0)
(9.91974 0.0831435 0)
(11.5338 -0.18401 0)
(10.156 -0.0832195 0)
(11.619 -0.342001 0)
(10.3715 -0.221877 0)
(11.6928 -0.460454 0)
(10.5804 -0.322637 0)
(11.7597 -0.520108 0)
(10.7645 -0.363992 0)
(11.8192 -0.530009 0)
(10.9172 -0.346881 0)
(11.8323 -0.46825 0)
(11.0026 -0.299562 0)
(11.7614 -0.378911 0)
(11.0262 -0.246888 0)
(11.6316 -0.321697 0)
(11.0236 -0.222776 0)
(11.5051 -0.330676 0)
(11.0359 -0.300461 0)
(11.4342 -0.421372 0)
(11.0601 -0.459544 0)
(11.4317 -0.592179 0)
(11.0923 -0.637031 0)
(11.4438 -0.77501 0)
(11.0883 -0.756066 0)
(11.4263 -0.846531 0)
(11.0416 -0.743526 0)
(11.2841 -0.733728 0)
(10.8705 -0.574612 0)
(10.9775 -0.527966 0)
(10.5287 -0.361516 0)
(10.5773 -0.238097 0)
(10.2333 0.0125603 0)
(10.2212 0.229206 0)
(10.0102 0.511967 0)
(9.96442 0.760001 0)
(9.94454 0.980601 0)
(9.77059 1.16569 0)
(9.87815 1.20813 0)
(9.65045 1.32771 0)
(9.9327 1.23348 0)
(9.83022 1.26496 0)
(10.2635 1.09766 0)
(10.3282 1.04318 0)
(10.7783 0.767895 0)
(10.9659 0.601596 0)
(11.3426 0.264919 0)
(11.5058 -0.046066 0)
(11.9551 -0.431884 0)
(11.9934 -0.703994 0)
(12.4241 -1.14782 0)
(12.4369 -1.3777 0)
(12.8143 -1.7428 0)
(12.9493 -1.98672 0)
(13.2132 -2.19332 0)
(13.5211 -2.54832 0)
(13.784 -2.71267 0)
(14.028 -2.97331 0)
(14.3198 -3.2715 0)
(14.3243 -3.36267 0)
(14.5303 -3.66913 0)
(14.3148 -3.70219 0)
(14.1288 -3.7791 0)
(13.8432 -3.78111 0)
(13.2462 -3.60767 0)
(13.0177 -3.53651 0)
(12.4196 -3.35397 0)
(12.0349 -3.16579 0)
(11.6516 -3.09015 0)
(11.1048 -2.85709 0)
(10.8096 -2.80212 0)
(10.5966 -2.8239 0)
(10.0847 -2.70373 0)
(10.0844 -2.88361 0)
(9.73403 -2.94242 0)
(9.35646 -2.9738 0)
(9.16826 -3.20273 0)
(8.7615 -3.44835 0)
(8.30539 -3.5827 0)
(7.84931 -3.86917 0)
(7.60156 -4.23063 0)
(7.31045 -4.51602 0)
(7.00293 -4.84169 0)
(6.69485 -5.06815 0)
(6.28955 -5.23458 0)
(6.21511 -5.28593 0)
(5.98671 -5.49847 0)
(5.91761 -5.98929 0)
(5.97435 -6.46454 0)
(5.86177 -6.95067 0)
(6.35693 -7.12778 0)
(6.32701 -6.97578 0)
(6.70427 -6.32342 0)
(6.91644 -5.51156 0)
(6.79703 -4.76461 0)
(6.92903 -3.65144 0)
(6.93908 -2.2233 0)
(7.08662 -0.838743 0)
(6.95858 0.234209 0)
(6.9846 1.216 0)
(7.02266 1.86097 0)
(7.23053 2.46168 0)
(7.28709 2.98725 0)
(7.33313 3.59771 0)
(7.45499 4.25221 0)
(7.73537 4.89632 0)
(7.90396 5.52471 0)
(7.7511 6.14851 0)
(7.68239 6.48886 0)
(7.52132 6.25542 0)
(7.37959 5.99376 0)
(7.12131 5.39681 0)
(7.01567 4.86205 0)
(6.96016 4.4289 0)
(6.7617 4.09832 0)
(6.73411 3.7547 0)
(6.84047 3.08514 0)
(6.81369 2.86712 0)
(6.77827 2.51471 0)
(6.78945 2.07324 0)
(6.9865 1.02137 0)
(7.05333 0.387456 0)
(7.06179 0.0229012 0)
(6.86546 0.201831 0)
(6.83801 0.389402 0)
(6.93603 0.862937 0)
(7.3978 1.05173 0)
(7.71038 0.967299 0)
(8.13845 0.463259 0)
(8.3321 -0.205634 0)
(8.46564 -0.550654 0)
(8.28012 -0.536472 0)
(8.10512 -0.25087 0)
(7.72029 -0.102603 0)
(7.35089 -0.0357001 0)
(7.05784 0.286182 0)
(6.95038 1.24387 0)
(7.07494 2.27229 0)
(7.24283 3.14689 0)
(7.5117 3.83857 0)
(7.60101 4.97868 0)
(8.10058 7.0475 0)
(8.30581 8.26991 0)
(7.75956 8.9358 0)
(8.36495 9.73484 0)
(9.73987 8.35625 0)
(5.50359 8.84001 0)
(10.7555 4.82702 0)
(5.47584 7.76641 0)
(10.1423 1.56242 0)
(5.92652 6.14156 0)
(9.93416 0.587778 0)
(5.91772 3.96778 0)
(10.6134 0.232976 0)
(6.12192 3.14373 0)
(10.6468 0.184723 0)
(6.30861 2.18988 0)
(10.6095 0.539068 0)
(5.88974 2.05042 0)
(10.5081 -1.04114 0)
(5.25662 0.749402 0)
(8.27946 0.284245 0)
(1.50069 2.79037 0)
(6.36439 0.736632 0)
(3.96366 -0.555597 0)
(7.26218 -3.20173 0)
(7.24222 -3.67176 0)
(8.93621 -4.23798 0)
(8.80125 -3.51744 0)
(12.6125 -0.237943 0)
(10.886 -0.111612 0)
(12.7682 -0.256683 0)
(11.0508 -0.0397706 0)
(12.8973 -0.180273 0)
(11.1531 -0.0533198 0)
(12.9883 -0.216938 0)
(11.156 -0.10894 0)
(12.9307 -0.262969 0)
(11.0519 -0.168508 0)
(12.8204 -0.3141 0)
(10.9787 -0.189673 0)
(12.7382 -0.304416 0)
(10.9533 -0.139117 0)
(12.6676 -0.214341 0)
(10.9313 -0.055394 0)
(12.6228 -0.142939 0)
(10.9663 0.037893 0)
(12.6069 -0.063932 0)
(11.0192 0.166127 0)
(12.5685 0.0505252 0)
(11.1111 0.274081 0)
(12.5666 0.176139 0)
(11.2967 0.389474 0)
(12.5518 0.261578 0)
(11.4758 0.438101 0)
(12.5297 0.250185 0)
(11.6359 0.371092 0)
(12.4804 0.162405 0)
(11.7568 0.230738 0)
(12.3792 -0.00176142 0)
(11.8122 0.0385281 0)
(12.2786 -0.172901 0)
(11.8108 -0.135519 0)
(12.1773 -0.33661 0)
(11.8029 -0.284905 0)
(12.0993 -0.466721 0)
(11.8363 -0.413213 0)
(12.0959 -0.544113 0)
(11.9542 -0.469484 0)
(12.207 -0.557824 0)
(12.1834 -0.427947 0)
(12.3718 -0.450502 0)
(12.3649 -0.314028 0)
(12.3997 -0.29879 0)
(12.3431 -0.193064 0)
(12.1815 -0.207099 0)
(12.1246 -0.156316 0)
(11.8233 -0.217411 0)
(11.8381 -0.260216 0)
(11.5185 -0.356202 0)
(11.6092 -0.479503 0)
(11.3513 -0.587685 0)
(11.5072 -0.707126 0)
(11.3006 -0.799143 0)
(11.5179 -0.810551 0)
(11.357 -0.830798 0)
(11.6115 -0.774485 0)
(11.4106 -0.65476 0)
(11.6237 -0.588949 0)
(11.3753 -0.394543 0)
(11.5197 -0.233512 0)
(11.1909 -0.0285524 0)
(11.255 0.122306 0)
(10.8553 0.345494 0)
(10.9752 0.505328 0)
(10.7027 0.765817 0)
(10.9615 0.905386 0)
(10.8212 1.17004 0)
(11.1626 1.19026 0)
(11.0596 1.32685 0)
(11.3835 1.24838 0)
(11.3783 1.22752 0)
(11.6517 1.04939 0)
(11.7926 0.892529 0)
(11.991 0.654204 0)
(12.3218 0.386561 0)
(12.4311 0.120779 0)
(12.7554 -0.255075 0)
(12.968 -0.55753 0)
(13.1539 -0.880847 0)
(13.4865 -1.26477 0)
(13.5824 -1.485 0)
(13.9416 -1.88562 0)
(14.0635 -2.11259 0)
(14.3254 -2.35998 0)
(14.577 -2.70308 0)
(14.6316 -2.8402 0)
(14.8579 -3.1507 0)
(14.8184 -3.27659 0)
(14.6979 -3.39532 0)
(14.7299 -3.59505 0)
(14.2083 -3.49655 0)
(14.1036 -3.59031 0)
(13.6119 -3.44166 0)
(13.2261 -3.30209 0)
(13.0542 -3.24298 0)
(12.4618 -2.97772 0)
(12.2557 -2.89173 0)
(11.9379 -2.75629 0)
(11.4439 -2.47165 0)
(11.3615 -2.58446 0)
(10.9315 -2.46382 0)
(10.474 -2.43458 0)
(10.3087 -2.59643 0)
(9.5841 -2.55192 0)
(9.28389 -2.67051 0)
(8.85524 -2.97352 0)
(8.34327 -3.10775 0)
(7.72003 -3.22017 0)
(7.39813 -3.58074 0)
(7.05015 -3.91678 0)
(6.63512 -4.27826 0)
(6.2429 -4.58226 0)
(5.82588 -4.83863 0)
(5.71641 -5.06326 0)
(5.49027 -5.16137 0)
(5.10782 -5.42742 0)
(5.00848 -5.85518 0)
(4.82606 -6.43028 0)
(4.90818 -6.99318 0)
(5.15834 -7.15454 0)
(5.02465 -7.05944 0)
(5.50215 -6.36186 0)
(5.42337 -5.40464 0)
(5.39488 -4.4564 0)
(5.31829 -3.47863 0)
(5.19447 -2.1578 0)
(5.23782 -0.772313 0)
(5.13353 0.274075 0)
(5.31813 1.08529 0)
(5.2853 1.76977 0)
(5.37096 2.47609 0)
(5.49638 3.01557 0)
(5.76133 3.42512 0)
(6.12317 4.01006 0)
(6.30921 4.84287 0)
(6.5411 5.71325 0)
(6.73628 6.11797 0)
(6.86654 6.42885 0)
(6.74921 6.28458 0)
(6.66242 6.02042 0)
(6.50355 5.63168 0)
(6.35232 5.01403 0)
(6.3987 4.61426 0)
(6.19014 4.06431 0)
(6.2324 3.7306 0)
(6.49288 3.15468 0)
(6.49483 3.03087 0)
(6.54802 2.58712 0)
(6.63894 1.97336 0)
(6.97306 1.00109 0)
(7.07016 0.377519 0)
(7.2145 0.134377 0)
(7.0351 0.211515 0)
(7.05238 0.328116 0)
(7.11856 0.582086 0)
(7.60951 0.731611 0)
(8.059 0.547043 0)
(8.39912 0.0753043 0)
(8.6521 -0.616498 0)
(8.76245 -0.777665 0)
(8.68886 -0.564319 0)
(8.49948 0.0992701 0)
(7.95969 0.280632 0)
(7.52696 0.443976 0)
(7.03866 0.5922 0)
(6.96468 1.39324 0)
(7.06719 2.28083 0)
(7.04377 2.93095 0)
(7.31979 3.78591 0)
(7.65334 4.69837 0)
(7.57613 6.70384 0)
(8.43453 8.64714 0)
(8.53831 8.54581 0)