/*--------------------------------*- C++ -*----------------------------------*\
| =========                 |                                                 |
| \\      /  F ield         | OpenFOAM: The Open Source CFD Toolbox           |
|  \\    /   O peration     | Version:  2.4.0                                 |
|   \\  /    A nd           | Web:      www.OpenFOAM.org                      |
|    \\/     M anipulation  |                                                 |
\*---------------------------------------------------------------------------*/
FoamFile
{
    version     2.0;
    format      ascii;
    class       surfaceScalarField;
    location    "26";
    object      phi;
}
// * * * * * * * * * * * * * * * * * * * * * * * * * * * * * * * * * * * * * //

dimensions      [0 3 -1 0 0 0 0];

internalField   nonuniform List<scalar> 
8640
(
0.000508535
-2.10347e-05
0.000468721
3.98132e-05
0.000484529
-1.58072e-05
0.000563695
-7.91662e-05
0.000463959
9.97358e-05
0.000430174
3.37852e-05
0.000545424
-0.00011525
0.000505247
4.01765e-05
0.000460983
4.4264e-05
0.000535466
-7.44824e-05
0.000482712
5.27536e-05
0.000484875
-2.16266e-06
0.000531945
-4.70706e-05
0.000521084
1.0861e-05
0.000479935
4.11489e-05
0.000509719
-2.97833e-05
0.000580535
-7.08166e-05
0.000480874
9.96614e-05
0.00055406
-7.31867e-05
0.000169366
0.000384694
0.00139929
-3.28218e-05
0.00136239
7.67101e-05
0.00139714
-5.05545e-05
0.00146196
-0.000143988
0.00133376
0.000227937
0.00133778
2.97651e-05
0.00144883
-0.0002263
0.00139377
9.52355e-05
0.00136486
7.31682e-05
0.00143697
-0.00014659
0.00137246
0.000117265
0.00139741
-2.71133e-05
0.00143583
-8.54879e-05
0.00141214
3.45527e-05
0.00140673
4.65549e-05
0.00140639
-2.94385e-05
0.00152614
-0.000190574
0.00136002
0.000265783
0.00147245
-0.000185611
9.3999e-05
0.00154781
0.00218994
-3.52623e-05
0.00216101
0.000105637
0.00220186
-9.13984e-05
0.0022468
-0.00018893
0.00213239
0.000342345
0.00215739
4.76538e-06
0.00223985
-0.000308761
0.002194
0.000141091
0.00218547
8.16973e-05
0.00222741
-0.00018853
0.00218722
0.000157452
0.0022019
-4.17936e-05
0.00225318
-0.000136766
0.00219682
9.09114e-05
0.00223546
7.92001e-06
0.00221812
-1.20986e-05
0.00229034
-0.000262796
0.00224565
0.000310468
0.00226489
-0.000204848
-4.65342e-05
0.00240542
0.00288049
-2.82557e-05
0.00285203
0.000134105
0.00292358
-0.000162949
0.00292708
-0.000192431
0.00282377
0.000445651
0.00287921
-5.06771e-05
0.00293347
-0.000363013
0.0028802
0.000194359
0.00292308
3.8816e-05
0.00292149
-0.000186944
0.00289688
0.00018206
0.00291264
-5.75526e-05
0.00296032
-0.000184445
0.00290377
0.000147468
0.00291918
-7.49223e-06
0.0029702
-6.3123e-05
0.00295097
-0.000243563
0.00296152
0.000299913
0.00301281
-0.000256137
-0.0001058
0.00307208
0.00348073
-2.14899e-05
0.00342075
0.000194093
0.00355356
-0.000295767
0.00353458
-0.00017345
0.00339605
0.000584182
0.00348564
-0.000140263
0.00352991
-0.000407288
0.00343801
0.000286265
0.00353788
-6.10537e-05
0.00352651
-0.000175576
0.0034799
0.000228673
0.00351912
-9.67813e-05
0.00354665
-0.000211975
0.003512
0.00018212
0.00348238
2.21308e-05
0.0035911
-0.00017184
0.00353932
-0.000191787
0.0035244
0.000314829
0.00362106
-0.000352793
-0.000128652
0.00364391
0.00399883
-3.28163e-05
0.00389114
0.000301782
0.00404931
-0.000453937
0.00405816
-0.000182306
0.00388344
0.000758904
0.00398059
-0.000237411
0.00403428
-0.000460977
0.00390045
0.000420091
0.00401132
-0.000171923
0.00402209
-0.00018634
0.00395377
0.000296987
0.00401174
-0.000154747
0.00402435
-0.000224583
0.00401477
0.0001917
0.00394557
9.13273e-05
0.00407659
-0.000302856
0.00402585
-0.000141055
0.00398497
0.00035571
0.00410696
-0.000474781
-0.000126159
0.00410447
0.0044167
-6.20151e-05
0.00428981
0.000428666
0.00442737
-0.000591496
0.00446569
-0.000220627
0.00429164
0.000932956
0.00437921
-0.000324976
0.00443985
-0.000521622
0.00429549
0.000564456
0.00438461
-0.000261049
0.00441071
-0.00021244
0.00433269
0.000375015
0.00439916
-0.000221217
0.00439972
-0.000225144
0.00441454
0.000176881
0.0043273
0.000178567
0.00445296
-0.000428524
0.00441472
-0.000102806
0.00435382
0.000416607
0.00448343
-0.000604388
-0.000108706
0.00446597
0.00472166
-9.61725e-05
0.00460878
0.000541545
0.00471092
-0.000693641
0.00475578
-0.000265486
0.00461001
0.00107873
0.00467976
-0.000394735
0.00473354
-0.000575397
0.00461243
0.000685566
0.00467197
-0.000320585
0.00470259
-0.000243069
0.00462512
0.000452491
0.00468806
-0.000284156
0.00467776
-0.000214848
0.0047069
0.000147746
0.00462563
0.000259832
0.00472716
-0.000530053
0.00470674
-8.23864e-05
0.00463836
0.000484983
0.00475428
-0.000720303
-8.78496e-05
0.00473342
0.00491518
-0.00012385
0.00483657
0.000620154
0.0049017
-0.000758777
0.00493386
-0.00029764
0.00483451
0.00117808
0.00487978
-0.000439998
0.00491314
-0.000608758
0.00483749
0.000761209
0.00486543
-0.000348518
0.00489442
-0.000272062
0.00483051
0.000516402
0.00487929
-0.000332938
0.00486228
-0.000197834
0.00489221
0.000117814
0.00483421
0.000317833
0.00489836
-0.0005942
0.00489498
-7.90133e-05
0.00483627
0.0005437
0.00491932
-0.000803361
-7.32738e-05
0.00490475
0.0050018
-0.000138155
0.00496847
0.000653492
0.00499556
-0.000785865
0.00500392
-0.000306005
0.00496449
0.00121751
0.00497939
-0.000454897
0.00498431
-0.000613672
0.00496524
0.000780272
0.00496103
-0.000344306
0.0049826
-0.000293632
0.00494511
0.000553895
0.0049713
-0.000359136
0.00495412
-0.000180645
0.00497422
9.77096e-05
0.00494932
0.000342729
0.00496965
-0.000614525
0.00497703
-8.63947e-05
0.00494343
0.000577297
0.00497974
-0.000839669
-7.04766e-05
0.00497694
0.00498569
-0.000136344
0.00500229
0.000636891
0.00498814
-0.000771716
0.00497131
-0.000289178
0.00499787
0.00119095
0.00497833
-0.000435358
0.00495455
-0.00058989
0.00499198
0.000742835
0.00495965
-0.000311973
0.00496777
-0.000301756
0.00496628
0.000555392
0.00496415
-0.000357013
0.00495192
-0.000168414
0.00495766
9.19689e-05
0.00496784
0.000332558
0.00494511
-0.000591796
0.00495526
-9.65491e-05
0.0049584
0.000574161
0.00494053
-0.000821798
-8.18575e-05
0.00495191
0.00487101
-0.000119857
0.00493414
0.000573766
0.00487848
-0.000716062
0.0048396
-0.000250297
0.004929
0.00110156
0.00487722
-0.000383582
0.00483039
-0.000543058
0.00491575
0.000657471
0.004862
-0.000258218
0.00485396
-0.00029372
0.00489032
0.000519031
0.00485952
-0.00032621
0.00485243
-0.000161323
0.00484675
9.76465e-05
0.00488625
0.000293064
0.0048272
-0.000532751
0.00483574
-0.000105091
0.00487931
0.000530594
0.00480762
-0.000750106
-0.000106667
0.00483243
0.0046621
-9.44622e-05
0.00476107
0.000474797
0.00466491
-0.000619895
0.00461154
-0.000196927
0.00475435
0.00095874
0.004675
-0.000304231
0.00461754
-0.000485599
0.00473666
0.000538355
0.00466753
-0.000189089
0.0046444
-0.000270589
0.0047111
0.000452334
0.00465871
-0.000273828
0.00465093
-0.000153536
0.00464558
0.000102996
0.00470153
0.000237111
0.00461762
-0.000448843
0.00462497
-0.000112439
0.00470156
0.000454008
0.00458501
-0.000633561
-0.000140223
0.00461857
0.0043627
-6.96638e-05
0.00447908
0.000358414
0.00434338
-0.000484189
0.00429381
-0.000147358
0.0044727
0.000779843
0.00437382
-0.000205343
0.0043215
-0.000433283
0.00445425
0.00040561
0.00437333
-0.000108172
0.00434013
-0.000237389
0.00442594
0.000366518
0.00436014
-0.000208022
0.00435005
-0.000143449
0.00435708
9.59691e-05
0.00441271
0.000181481
0.00431848
-0.000354614
0.00432587
-0.000119834
0.0044169
0.00036298
0.00427549
-0.000492148
-0.000173662
0.00430893
0.00397322
-5.53824e-05
0.00407849
0.00025314
0.00391719
-0.000322888
0.00390002
-0.000130181
0.00408624
0.000593617
0.00398068
-9.97859e-05
0.00394529
-0.000397893
0.00406327
0.000287632
0.00397627
-2.1165e-05
0.00394607
-0.000207192
0.00403877
0.000273818
0.00396628
-0.000135537
0.00396091
-0.000138079
0.00397947
7.74148e-05
0.00401925
0.000141697
0.00392942
-0.000264787
0.00393588
-0.000126294
0.00402106
0.000277804
0.00387873
-0.000349815
-0.000202068
0.00390713
0.00348299
-5.0874e-05
0.00355197
0.000184157
0.00341147
-0.00018238
0.00343685
-0.000155566
0.00358884
0.000441626
0.00350016
-1.11055e-05
0.00347373
-0.000371463
0.0035512
0.000210166
0.00348285
4.71797e-05
0.00346784
-0.00019218
0.00354763
0.000194028
0.00347943
-6.73374e-05
0.00348032
-0.00013897
0.00349471
6.30258e-05
0.00351814
0.000118269
0.00344551
-0.000192151
0.00344621
-0.000126996
0.00351499
0.000209026
0.00339179
-0.000226621
-0.000217126
0.00340685
0.00288005
-4.3424e-05
0.00292517
0.00013904
0.00284361
-0.000100818
0.00286084
-0.000172801
0.0029682
0.00033427
0.00292524
3.1854e-05
0.00287456
-0.00032079
0.00292371
0.000161022
0.00290172
6.91706e-05
0.00288134
-0.000171808
0.00293693
0.000138443
0.00288966
-2.00654e-05
0.00288273
-0.000132047
0.00288952
5.62391e-05
0.00291324
9.45474e-05
0.00285757
-0.000136474
0.00284382
-0.000113251
0.0028976
0.000155243
0.0028032
-0.000132212
-0.00020431
0.00279038
0.0021752
-3.11283e-05
0.0022186
9.56393e-05
0.00217084
-5.30556e-05
0.00214218
-0.000144137
0.00224994
0.000226506
0.00224189
3.9906e-05
0.00215003
-0.000228929
0.00220539
0.000105659
0.0022132
6.13681e-05
0.00216863
-0.000127241
0.00221754
8.95349e-05
0.00219336
4.114e-06
0.00216721
-0.000105899
0.00217946
4.39916e-05
0.00220752
6.64818e-05
0.00215617
-8.51262e-05
0.00212705
-8.41307e-05
0.00217694
0.000105357
0.0021083
-6.35748e-05
-0.000155382
0.00205937
0.00137179
-1.54224e-05
0.00141782
4.96153e-05
0.00138149
-1.6732e-05
0.00131922
-8.18631e-05
0.00144406
0.000101667
0.00144865
3.53169e-05
0.00133264
-0.000112924
0.00139721
4.10913e-05
0.00141773
4.08517e-05
0.00135672
-6.62304e-05
0.00140727
3.89768e-05
0.00139844
1.29436e-05
0.00135134
-5.87941e-05
0.00137457
2.0764e-05
0.0014039
3.71484e-05
0.00135457
-3.57972e-05
0.00131533
-4.48926e-05
0.00136845
5.22444e-05
0.00131873
-1.38642e-05
-7.78484e-05
0.0012412
0.000472078
0.000521693
0.000504961
0.000423098
0.000524765
0.000560082
0.000447159
0.00048825
0.000529102
0.000462871
0.000501848
0.000514792
0.000455998
0.000476762
0.00051391
0.000478113
0.00043322
0.000485465
0.0004716
0.000393752
0.000653954
0.000264007
-0.000533267
0.00101268
-0.00101721
0.000658493
0.0011905
0.00105479
-0.00123261
0.00165202
0.00139897
-0.00186049
0.00196729
8.53194e-05
-0.000400586
0.0026111
-0.00208502
0.00144121
0.00290709
-0.00277065
0.00247466
0.00281881
-0.00365067
0.00373895
0.00330599
-0.00294949
0.00246231
0.00370835
0.000624222
-0.00102658
0.00374346
-0.0010082
0.000973086
0.00373796
-0.0046022
0.0046077
0.00357824
-0.00383955
0.00399927
0.00364607
-0.00250331
0.00243548
0.00366304
-0.00652301
0.00650604
0.00313436
-0.00871481
0.0092435
0.00237556
-0.00629603
0.00705483
0.00205289
-0.0077529
0.00807557
0.00213006
-0.0114054
0.0113283
0.00233335
-0.00756468
0.00736139
0.00254444
-0.00152035
0.00130926
0.00260955
0.00218613
-0.00225124
0.00279886
0.00683811
-0.00702741
0.00296482
0.0111776
-0.0113435
0.00287871
0.0112671
-0.011181
0.00260371
0.00831807
-0.00804306
0.00233178
0.00522649
-0.00495456
0.00219282
0.00259761
-0.00245864
0.00218067
0.000115233
-0.000103079
0.00221065
-0.00175464
0.00172466
0.00221775
-0.00251856
0.00251147
0.00218634
-0.00236935
0.00240076
0.00212904
-0.00182259
0.00187989
0.00206508
-0.00125835
0.00132232
0.00200901
-0.000821515
0.000877579
0.00196725
-0.000520344
0.000562102
0.00193964
-0.000322371
0.000349982
0.00192294
-0.000195326
0.000212034
0.00191347
-0.000115501
0.000124962
0.00190838
-6.65398e-05
7.16346e-05
0.00190574
-3.72981e-05
3.99366e-05
0.00190442
-2.03112e-05
2.16353e-05
0.00190377
-1.07192e-05
1.13662e-05
0.00190346
-5.46044e-06
5.76904e-06
0.00190332
-2.66706e-06
2.81099e-06
0.00190325
-1.23584e-06
1.30149e-06
0.00190322
-5.32465e-07
5.61681e-07
0.00190321
-2.04666e-07
2.17319e-07
0.0019032
-6.21308e-08
6.75077e-08
0.0019032
-6.70629e-09
8.95564e-09
0.0019032
1.05586e-08
-9.68349e-09
0.0019032
1.28605e-08
-1.25637e-08
0.0019032
1.05338e-08
-1.04228e-08
0.0019032
7.22403e-09
-7.17599e-09
0.0019032
4.70542e-09
-4.7124e-09
0.0019032
2.68294e-09
-2.70677e-09
0.0019032
1.34073e-09
-1.3278e-09
0.0019032
6.84615e-10
-6.51129e-10
0.0019032
3.59841e-10
-3.41699e-10
0.0019032
1.22516e-10
-9.44337e-11
0.0019032
2.21767e-10
-1.59993e-10
0.0019032
1.515e-10
-1.14315e-10
0.0019032
-1.26311e-10
6.90034e-11
0.0019032
2.60232e-10
-3.1513e-10
0.0019032
5.64707e-11
-9.31841e-11
0.0019032
1.12862e-10
-6.03041e-11
0.0019032
1.11881e-10
-1.37794e-10
0.0019032
1.39943e-11
2.53455e-11
0.0019032
-1.23313e-10
-1.97433e-12
0.0019032
1.25445e-10
2.04462e-11
0.0019032
-2.13293e-10
2.69944e-11
0.0019032
3.12738e-10
-4.54814e-11
0.0019032
-3.63037e-10
-3.23241e-11
0.0019032
4.51653e-10
-4.20885e-11
0.0019032
-4.34907e-10
-7.70699e-11
0.0019032
4.6189e-10
2.12754e-10
0.0019032
-4.40917e-10
-1.44629e-10
0.0019032
5.01759e-10
5.86534e-11
0.0019032
-3.72524e-10
-1.23434e-10
0.0019032
3.22582e-12
2.55405e-10
0.0019032
4.28183e-10
-2.43973e-10
0.0019032
-7.84346e-10
3.53944e-10
0.0019032
1.16382e-09
-2.70242e-10
0.0019032
-1.65633e-09
2.5995e-10
0.0019032
1.79927e-09
-3.04419e-10
0.0019032
-1.74157e-09
1.75258e-10
0.0019032
1.35494e-09
1.47403e-11
0.0019032
-9.04443e-10
2.26277e-10
0.0019032
-1.17318e-12
-1.95406e-10
0.0019032
8.94286e-10
-4.16853e-11
0.0019032
-1.60377e-09
9.58285e-11
0.0019032
1.21117e-09
2.27448e-11
0.0019032
-3.73617e-10
1.76968e-11
0.0019032
-4.77298e-10
9.30543e-11
0.0019032
1.09272e-09
-1.3272e-10
0.0019032
-6.93854e-10
1.32278e-10
0.0019032
-2.4661e-10
1.15911e-10
0.0019032
5.65272e-10
-1.65443e-10
0.0019032
-2.42059e-10
6.96903e-11
-1.42877e-10
-3.09065e-11
0.00147545
0.000336369
0.00150654
-0.00104831
0.00167118
0.000890151
0.0022321
0.000838046
0.00258884
-0.000271421
0.00321138
-0.00270755
0.00356218
-0.00312146
0.00336384
-0.00345232
0.00380624
-0.00339189
0.00423545
0.000195007
0.00412611
-0.000898858
0.00400386
-0.00447995
0.00388783
-0.00372351
0.00391063
-0.00252612
0.00376233
-0.00637471
0.00308299
-0.00803547
0.00223773
-0.00545078
0.00185603
-0.0073712
0.0018913
-0.0114407
0.00207179
-0.00774517
0.00228948
-0.00173803
0.00237728
0.00209833
0.00258059
0.0066348
0.00279808
0.0109601
0.00279356
0.0112716
0.00259528
0.00851635
0.00237768
0.00544408
0.00227242
0.00270286
0.00227322
0.000114433
0.00229686
-0.00177828
0.00228695
-0.00250865
0.00223737
-0.00231977
0.00216532
-0.00175055
0.00209041
-0.00118343
0.00202627
-0.000757374
0.00197858
-0.000472654
0.00194676
-0.00029055
0.00192722
-0.000175786
0.00191595
-0.000104239
0.00190977
-6.03556e-05
0.0019065
-3.40273e-05
0.00190482
-1.8632e-05
0.00190398
-9.8784e-06
0.00190357
-5.04851e-06
0.00190337
-2.46951e-06
0.00190328
-1.14297e-06
0.00190323
-4.89902e-07
0.00190321
-1.85547e-07
0.00190321
-5.38243e-08
0.0019032
-3.14974e-09
0.0019032
1.18172e-08
0.0019032
1.31918e-08
0.0019032
1.04771e-08
0.0019032
7.22967e-09
0.0019032
4.69322e-09
0.0019032
2.80566e-09
0.0019032
1.49361e-09
0.0019032
8.61769e-10
0.0019032
3.82552e-10
0.0019032
7.17872e-11
0.0019032
9.89541e-11
0.0019032
-1.57411e-10
0.0019032
-3.39759e-10
0.0019032
-1.35678e-10
0.0019032
-4.84477e-11
0.0019032
9.24884e-11
0.0019032
4.19154e-11
0.0019032
1.92902e-10
0.0019032
-1.98516e-10
0.0019032
3.85294e-10
0.0019032
-2.35546e-10
0.0019032
6.38047e-10
0.0019032
-6.39494e-10
0.0019032
9.90728e-10
0.0019032
-9.94979e-10
0.0019032
1.33268e-09
0.0019032
-1.1356e-09
0.0019032
1.24084e-09
0.0019032
-1.01401e-09
0.0019032
5.17682e-10
0.0019032
3.12416e-10
0.0019032
-8.64569e-10
0.0019032
1.71425e-09
0.0019032
-2.73709e-09
0.0019032
3.05803e-09
0.0019032
-3.14746e-09
0.0019032
2.57629e-09
0.0019032
-1.44008e-09
0.0019032
-3.09652e-10
0.0019032
1.76206e-09
0.0019032
-3.0115e-09
0.0019032
2.36045e-09
0.0019032
-7.59293e-10
0.0019032
-7.11768e-10
0.0019032
1.86312e-09
0.0019032
-1.19204e-09
0.0019032
-2.81332e-10
0.0019032
8.21271e-10
0.0019032
-3.34749e-10
-3.28426e-10
0.00239479
0.000347001
0.0023087
-0.000962213
0.00241905
0.000779798
0.00291639
0.000340709
0.00324096
-0.000595993
0.00372021
-0.0031868
0.00407281
-0.00347405
0.00380461
-0.00318413
0.00413135
-0.00371862
0.0046101
-0.000283748
0.0044399
-0.000728652
0.00422327
-0.00426332
0.0041341
-0.00363435
0.00410583
-0.00249784
0.00380624
-0.00607513
0.00299295
-0.00722217
0.0020795
-0.00453733
0.00163841
-0.00693011
0.0016303
-0.0114326
0.00179732
-0.00791219
0.00201761
-0.00195832
0.0021303
0.00198564
0.00235013
0.00641496
0.00261522
0.010695
0.00268932
0.0111975
0.00256901
0.00863666
0.00240957
0.00560352
0.00234108
0.00277135
0.00235597
9.9543e-05
0.00237296
-0.00179527
0.00234593
-0.00248162
0.00227888
-0.00225273
0.00219357
-0.00166524
0.00210964
-0.0010995
0.00203935
-0.000687082
0.0019873
-0.000420602
0.00195237
-0.000255618
0.00193068
-0.000154099
0.00191801
-9.15687e-05
0.00191095
-5.32932e-05
0.00190715
-3.02324e-05
0.00190517
-1.66517e-05
0.00190416
-8.86982e-06
0.00190366
-4.54576e-06
0.00190342
-2.22396e-06
0.0019033
-1.02548e-06
0.00190324
-4.34999e-07
0.00190322
-1.60571e-07
0.00190321
-4.27773e-08
0.0019032
1.53839e-09
0.0019032
1.36829e-08
0.0019032
1.38604e-08
0.0019032
1.06861e-08
0.0019032
7.28172e-09
0.0019032
4.66107e-09
0.0019032
2.7393e-09
0.0019032
1.48762e-09
0.0019032
8.61667e-10
0.0019032
3.75947e-10
0.0019032
1.07202e-10
0.0019032
1.21467e-10
0.0019032
-1.17408e-10
0.0019032
-3.67453e-10
0.0019032
-1.88173e-10
0.0019032
-7.36833e-11
0.0019032
1.37439e-10
0.0019032
3.84669e-12
0.0019032
2.44062e-10
0.0019032
-3.1515e-10
0.0019032
5.31681e-10
0.0019032
-4.37043e-10
0.0019032
9.05154e-10
0.0019032
-1.02424e-09
0.0019032
1.40098e-09
0.0019032
-1.51961e-09
0.0019032
2.00975e-09
0.0019032
-1.74404e-09
0.0019032
1.80502e-09
0.0019032
-1.49583e-09
0.0019032
7.789e-10
0.0019032
4.69367e-10
0.0019032
-1.32039e-09
0.0019032
2.62941e-09
0.0019032
-4.11106e-09
0.0019032
4.56672e-09
0.0019032
-4.7371e-09
0.0019032
3.95327e-09
0.0019032
-2.12805e-09
0.0019032
-4.8411e-10
0.0019032
2.61716e-09
0.0019032
-4.47267e-09
0.0019032
3.59327e-09
0.0019032
-1.14469e-09
0.0019032
-1.1082e-09
0.0019032
2.78225e-09
0.0019032
-1.72888e-09
0.0019032
-3.87404e-10
0.0019032
1.19634e-09
0.0019032
-5.04944e-10
-4.89484e-10
0.0030775
0.000341576
0.00304125
-0.000925956
0.00322003
0.000601017
0.00360964
-4.89046e-05
0.00384393
-0.000830279
0.0041491
-0.00349198
0.00445833
-0.00378328
0.00417094
-0.00289674
0.0043631
-0.00391078
0.00484911
-0.000769753
0.00467059
-0.00055014
0.00438358
-0.00397631
0.00429041
-0.00354118
0.00421589
-0.00242332
0.00379348
-0.00565272
0.00287062
-0.00629931
0.00190734
-0.00357404
0.00140996
-0.00643273
0.00135759
-0.0113802
0.0015166
-0.00807121
0.00173413
-0.00217586
0.00187095
0.00184882
0.0021083
0.00617761
0.00241799
0.0103853
0.00256809
0.0110474
0.00252623
0.00867852
0.00242781
0.00570194
0.00239843
0.00280074
0.00242823
6.97452e-05
0.00243802
-0.00180506
0.00239393
-0.00243752
0.00231032
-0.00216912
0.00221338
-0.00156829
0.00212244
-0.00100856
0.00204797
-0.000612616
0.00199319
-0.000365822
0.00195632
-0.000218743
0.00193323
-0.000131011
0.00191959
-7.79254e-05
0.00191188
-4.55903e-05
0.00190769
-2.60372e-05
0.00190547
-1.4432e-05
0.00190432
-7.72353e-06
0.00190374
-3.96643e-06
0.00190346
-1.93719e-06
0.00190332
-8.86507e-07
0.00190325
-3.69271e-07
0.00190322
-1.30336e-07
0.00190321
-2.93082e-08
0.0019032
7.26233e-09
0.0019032
1.59671e-08
0.0019032
1.46866e-08
0.0019032
1.09326e-08
0.0019032
7.32387e-09
0.0019032
4.60483e-09
0.0019032
2.66098e-09
0.0019032
1.46173e-09
0.0019032
8.44907e-10
0.0019032
3.64122e-10
0.0019032
1.30496e-10
0.0019032
1.33189e-10
0.0019032
-8.64597e-11
0.0019032
-3.75497e-10
0.0019032
-2.13564e-10
0.0019032
-1.02911e-10
0.0019032
1.81339e-10
0.0019032
-4.37264e-11
0.0019032
2.95771e-10
0.0019032
-4.17775e-10
0.0019032
6.7078e-10
0.0019032
-6.49254e-10
0.0019032
1.17725e-09
0.0019032
-1.40922e-09
0.0019032
1.82306e-09
0.0019032
-2.05431e-09
0.0019032
2.67517e-09
0.0019032
-2.36915e-09
0.0019032
2.3826e-09
0.0019032
-1.97831e-09
0.0019032
1.04981e-09
0.0019032
5.92114e-10
0.0019032
-1.78682e-09
0.0019032
3.55131e-09
0.0019032
-5.46709e-09
0.0019032
6.10095e-09
0.0019032
-6.34487e-09
0.0019032
5.32786e-09
0.0019032
-2.83369e-09
0.0019032
-6.26043e-10
0.0019032
3.47722e-09
0.0019032
-5.89569e-09
0.0019032
4.82796e-09
0.0019032
-1.56942e-09
0.0019032
-1.5031e-09
0.0019032
3.67108e-09
0.0019032
-2.26433e-09
0.0019032
-4.72998e-10
0.0019032
1.56213e-09
0.0019032
-6.72496e-10
-6.38192e-10
0.003643
0.000342494
0.00363217
-0.000915131
0.0038603
0.000372884
0.00418244
-0.000371043
0.00434879
-0.000996627
0.00450098
-0.00364417
0.00474302
-0.00402531
0.00446872
-0.00262244
0.00453981
-0.00398187
0.00499166
-0.00122161
0.00482636
-0.000384834
0.00448195
-0.00363191
0.00435704
-0.00341627
0.00424637
-0.00231264
0.0037279
-0.00513425
0.00271878
-0.00529018
0.00172219
-0.00257746
0.00117753
-0.00588807
0.0010819
-0.0112846
0.00123579
-0.0082251
0.00144354
-0.0023836
0.00160225
0.0016901
0.00185701
0.00592285
0.0022081
0.0100342
0.00243154
0.0108239
0.00246811
0.00864194
0.00243289
0.00573716
0.00244474
0.00278888
0.0024891
2.53824e-05
0.00249129
-0.00180725
0.00243038
-0.00237661
0.00233137
-0.00207011
0.00222454
-0.00146147
0.00212863
-0.000912653
0.00205197
-0.000535954
0.00199611
-0.00030996
0.00195849
-0.000181124
0.00193478
-0.000107303
0.00192063
-6.37742e-05
0.00191254
-3.75058e-05
0.00190808
-2.15781e-05
0.00190569
-1.20421e-05
0.00190444
-6.47342e-06
0.0019038
-3.32677e-06
0.00190348
-1.61685e-06
0.00190333
-7.29622e-07
0.00190325
-2.94361e-07
0.00190322
-9.55987e-08
0.0019032
-1.37638e-08
0.00190319
1.38684e-08
0.00190319
1.85976e-08
0.00190319
1.56321e-08
0.00190319
1.11979e-08
0.00190319
7.34799e-09
0.00190319
4.53127e-09
0.00190319
2.57884e-09
0.00190319
1.4267e-09
0.00190319
8.2183e-10
0.00190319
3.54461e-10
0.00190319
1.4724e-10
0.00190319
1.31911e-10
0.00190319
-6.82085e-11
0.00190319
-3.73918e-10
0.00190319
-2.21801e-10
0.00190319
-1.2981e-10
0.00190319
2.18544e-10
0.00190319
-9.64793e-11
0.00190319
3.52987e-10
0.00190319
-5.1529e-10
0.00190319
8.09312e-10
0.00190319
-8.68761e-10
0.00190319
1.45311e-09
0.00190319
-1.78968e-09
0.00190319
2.25915e-09
0.00190319
-2.60148e-09
0.00190319
3.32845e-09
0.00190319
-3.01565e-09
0.00190319
2.9788e-09
0.00190319
-2.4647e-09
0.00190319
1.32972e-09
0.00190319
6.83336e-10
0.00190319
-2.26629e-09
0.00190319
4.47858e-09
0.00190319
-6.80648e-09
0.00190319
7.66495e-09
0.00190319
-7.9699e-09
0.00190319
6.69829e-09
0.00190319
-3.56574e-09
0.00190319
-7.31472e-10
0.00190319
4.33967e-09
0.00190319
-7.2733e-09
0.00190319
6.06291e-09
0.00190319
-2.03176e-09
0.00190319
-1.89261e-09
0.00190319
4.52215e-09
0.00190319
-2.79853e-09
0.00190319
-5.44137e-10
0.00190319
1.91881e-09
0.00190319
-8.29639e-10
-7.74065e-10
0.00411452
0.000332447
0.00412611
-0.000926722
0.00433492
0.000164069
0.00459486
-0.000630985
0.00473092
-0.00113268
0.00475632
-0.00366957
0.00490755
-0.00417654
0.00467614
-0.00239103
0.00465096
-0.00395669
0.00504203
-0.00161268
0.00490238
-0.000245185
0.00451256
-0.00324208
0.00434283
-0.00324654
0.00420343
-0.00217325
0.00361107
-0.00454189
0.00254314
-0.00422225
0.00153228
-0.0015666
0.000953365
-0.00530916
0.000812471
-0.0111437
0.000958945
-0.00837157
0.00114952
-0.00257418
0.00132622
0.0015134
0.00159674
0.00565234
0.00198732
0.00964363
0.00228188
0.0105294
0.00239625
0.00852758
0.00242571
0.0057077
0.00248004
0.00273455
0.00253822
-3.2799e-05
0.00253219
-0.00180122
0.00245493
-0.00229935
0.00234192
-0.0019571
0.00222709
-0.00134663
0.00212823
-0.000813797
0.0020513
-0.000459026
0.00199597
-0.000254629
0.0019588
-0.000143951
0.00193526
-8.37646e-05
0.00192108
-4.95973e-05
0.00191289
-2.93133e-05
0.00190832
-1.7002e-05
0.00190583
-9.55752e-06
0.00190451
-5.15717e-06
0.00190383
-2.64511e-06
0.00190349
-1.2717e-06
0.00190332
-5.58961e-07
0.00190323
-2.12207e-07
0.0019032
-5.72633e-08
0.00190318
3.43949e-09
0.00190317
2.11682e-08
0.00190317
2.1488e-08
0.00190317
1.66535e-08
0.00190317
1.14635e-08
0.00190317
7.34608e-09
0.00190317
4.44097e-09
0.00190317
2.49397e-09
0.00190317
1.38592e-09
0.00190317
7.97295e-10
0.00190317
3.48635e-10
0.00190317
1.59082e-10
0.00190317
1.19744e-10
0.00190317
-6.12338e-11
0.00190317
-3.67674e-10
0.00190317
-2.15302e-10
0.00190317
-1.52857e-10
0.00190317
2.48421e-10
0.00190317
-1.52543e-10
0.00190317
4.16493e-10
0.00190317
-6.11169e-10
0.00190317
9.49436e-10
0.00190317
-1.09209e-09
0.00190317
1.73196e-09
0.00190317
-2.16711e-09
0.00190317
2.71203e-09
0.00190317
-3.16187e-09
0.00190317
3.97334e-09
0.00190317
-3.68539e-09
0.00190317
3.59722e-09
0.00190317
-2.96094e-09
0.00190317
1.62026e-09
0.00190317
7.44845e-10
0.00190317
-2.75629e-09
0.00190317
5.40964e-09
0.00190317
-8.13615e-09
0.00190317
9.26203e-09
0.00190317
-9.61351e-09
0.00190317
8.06868e-09
0.00190317
-4.32692e-09
0.00190317
-8.00737e-10
0.00190317
5.19805e-09
0.00190317
-8.60285e-09
0.00190317
7.29288e-09
0.00190317
-2.52721e-09
0.00190317
-2.27002e-09
0.00190317
5.33171e-09
0.00190317
-3.33004e-09
0.00190317
-6.05843e-10
0.00190317
2.26696e-09
0.00190317
-9.71686e-10
-8.97649e-10
0.00447845
0.000319964
0.00450843
-0.000956702
0.00467948
-6.97639e-06
0.00487044
-0.000821941
0.00499948
-0.00126172
0.00493096
-0.00360105
0.00497618
-0.00422176
0.00480463
-0.00221947
0.00470146
-0.00385353
0.00500461
-0.00191582
0.00489401
-0.000134584
0.00447475
-0.00282282
0.00425629
-0.00302808
0.00409068
-0.00200764
0.00344349
-0.0038947
0.00234498
-0.00312374
0.00134436
-0.000565979
0.000745755
-0.00471055
0.000552684
-0.0109506
0.000685627
-0.00850451
0.000852831
-0.00274138
0.00104495
0.00132129
0.0013299
0.00536739
0.00175727
0.00921626
0.00212081
0.0101658
0.00231202
0.00833636
0.00240732
0.0056124
0.00250442
0.00263745
0.00257529
-0.000103667
0.00256032
-0.00178626
0.00246749
-0.00220652
0.00234213
-0.00183174
0.00222123
-0.00122573
0.0021214
-0.000713974
0.00204604
-0.000383664
0.00199277
-0.000201358
0.00195719
-0.000108372
0.0019346
-6.11767e-05
0.00192089
-3.5881e-05
0.00191287
-2.12955e-05
0.00190833
-1.24645e-05
0.00190584
-7.06014e-06
0.0019045
-3.81647e-06
0.00190379
-1.94217e-06
0.00190343
-9.11873e-07
0.00190325
-3.79409e-07
0.00190317
-1.25145e-07
0.00190312
-1.64448e-08
0.00190311
2.17725e-08
0.0019031
2.89212e-08
0.0019031
2.45252e-08
0.00190309
1.76969e-08
0.00190309
1.17064e-08
0.00190309
7.3094e-09
0.00190309
4.33064e-09
0.00190309
2.40373e-09
0.00190309
1.3391e-09
0.00190309
7.7183e-10
0.00190309
3.44945e-10
0.00190309
1.65708e-10
0.00190309
9.93755e-11
0.00190309
-6.24071e-11
0.00190309
-3.58826e-10
0.00190309
-1.96542e-10
0.00190309
-1.7167e-10
0.00190309
2.7246e-10
0.00190309
-2.10753e-10
0.00190309
4.85072e-10
0.00190309
-7.0739e-10
0.00190309
1.0921e-09
0.00190309
-1.31723e-09
0.00190309
2.01416e-09
0.00190309
-2.54501e-09
0.00190309
3.18269e-09
0.0019031
-3.73524e-09
0.00190309
4.61578e-09
0.0019031
-4.3791e-09
0.00190309
4.24007e-09
0.00190309
-3.47228e-09
0.00190309
1.92346e-09
0.00190309
7.79375e-10
0.0019031
-3.25315e-09
0.00190309
6.34477e-09
0.0019031
-9.46494e-09
0.00190309
1.08921e-08
0.0019031
-1.12763e-08
0.00190309
9.44404e-09
0.00190309
-5.1159e-09
0.00190309
-8.35415e-10
0.00190309
6.04319e-09
0.0019031
-9.88277e-09
0.00190309
8.51102e-09
0.00190309
-3.05102e-09
0.0019031
-2.62691e-09
0.00190309
6.09863e-09
0.00190309
-3.85653e-09
0.00190309
-6.62129e-10
0.00190309
2.60752e-09
0.00190309
-1.097e-09
-1.01076e-09
0.00474168
0.000311705
0.00477375
-0.000988766
0.00491624
-0.000149471
0.0050307
-0.000936397
0.00516
-0.00139103
0.00501941
-0.00346046
0.0049513
-0.00415366
0.00484753
-0.0021157
0.00468307
-0.00368907
0.00488009
-0.00211284
0.00479716
-5.16525e-05
0.00436725
-0.00239291
0.00410251
-0.00276334
0.00390873
-0.00181386
0.00322624
-0.00321221
0.00213081
-0.00202831
0.00117041
0.000394421
0.000563263
-0.0041034
0.000297502
-0.0106849
0.000409444
-0.00861646
0.000552844
-0.00288478
0.000758739
0.00111539
0.00105681
0.00506931
0.00151967
0.0087534
0.00195062
0.00973489
0.00221741
0.00806957
0.00237891
0.0054509
0.00251846
0.00249791
0.00260013
-0.000185334
0.00257558
-0.0017617
0.00246822
-0.00209917
0.00233233
-0.00169585
0.00220733
-0.00110073
0.00210842
-0.000615063
0.00203631
-0.000311555
0.00198651
-0.00015155
0.00195359
-7.54549e-05
0.00193269
-4.02825e-05
0.00191992
-2.31027e-05
0.00191236
-1.37391e-05
0.00190802
-8.12818e-06
0.0019056
-4.63827e-06
0.00190428
-2.49771e-06
0.00190358
-1.24175e-06
0.00190322
-5.49351e-07
0.00190304
-1.96937e-07
0.00190295
-3.61291e-08
0.00190291
2.541e-08
0.00190289
4.05331e-08
0.00190288
3.67954e-08
0.00190288
2.75517e-08
0.00190288
1.8686e-08
0.00190288
1.18928e-08
0.00190288
7.22552e-09
0.00190288
4.19417e-09
0.00190288
2.30362e-09
0.00190288
1.28456e-09
0.00190288
7.43349e-10
0.00190288
3.39787e-10
0.00190288
1.65944e-10
0.00190288
7.30757e-11
0.00190288
-6.83204e-11
0.00190288
-3.48059e-10
0.00190288
-1.68285e-10
0.00190288
-1.86537e-10
0.00190288
2.92918e-10
0.00190288
-2.70304e-10
0.00190288
5.57047e-10
0.00190288
-8.05212e-10
0.00190288
1.23789e-09
0.00190288
-1.54356e-09
0.00190288
2.30056e-09
0.00190288
-2.92691e-09
0.00190288
3.67051e-09
0.00190288
-4.32142e-09
0.00190288
5.26199e-09
0.00190288
-5.09724e-09
0.00190288
4.90828e-09
0.00190288
-4.00175e-09
0.00190288
2.24001e-09
0.00190288
7.91098e-10
0.00190288
-3.75443e-09
0.00190288
7.28653e-09
0.00190288
-1.0801e-08
0.00190288
1.25517e-08
0.00190288
-1.29555e-08
0.00190288
1.08255e-08
0.00190288
-5.9271e-09
0.00190288
-8.37648e-10
0.00190288
6.86416e-09
0.00190288
-1.11089e-08
0.00190288
9.70792e-09
0.00190288
-3.5982e-09
0.00190288
-2.95413e-09
0.00190288
6.82137e-09
0.00190288
-4.37477e-09
0.00190288
-7.15438e-10
0.00190288
2.94116e-09
0.00190288
-1.20578e-09
-1.11579e-09
0.00490981
0.00030664
0.00492993
-0.00100889
0.00505114
-0.000270683
0.00509193
-0.000977187
0.00521493
-0.00151402
0.00502303
-0.00326856
0.00484527
-0.00397589
0.00480798
-0.00207842
0.00459043
-0.00347152
0.00466944
-0.00219185
0.00461008
7.70604e-06
0.00418759
-0.00197042
0.00388197
-0.00245773
0.00365697
-0.00158886
0.00296023
-0.00251547
0.00190427
-0.000972348
0.00101869
0.00128
0.000412702
-0.00349741
2.21697e-05
-0.0102943
0.000124275
-0.00871856
0.00024682
-0.00300733
0.000468166
0.000894044
0.000780343
0.00475713
0.00127629
0.00825746
0.00177311