/*--------------------------------*- C++ -*----------------------------------*\
| =========                 |                                                 |
| \\      /  F ield         | OpenFOAM: The Open Source CFD Toolbox           |
|  \\    /   O peration     | Version:  2.4.0                                 |
|   \\  /    A nd           | Web:      www.OpenFOAM.org                      |
|    \\/     M anipulation  |                                                 |
\*---------------------------------------------------------------------------*/
FoamFile
{
    version     2.0;
    format      ascii;
    class       volScalarField;
    location    "1.77";
    object      pPrime2Mean;
}
// * * * * * * * * * * * * * * * * * * * * * * * * * * * * * * * * * * * * * //

dimensions      [0 4 -4 0 0 0 0];

internalField   nonuniform List<scalar> 
8800
(
365491
356274
346385
336580
326909
317378
307989
298739
289631
280662
271832
263141
254584
246160
237856
229661
221539
213432
205190
196356
365504
356275
346384
336579
326909
317378
307989
298740
289631
280662
271833
263141
254585
246161
237858
229665
221548
213451
205235
196505
365512
356275
346382
336578
326908
317378
307989
298739
289631
280662
271833
263142
254586
246163
237863
229674
221565
213487
205319
196797
365518
356274
346379
336576
326908
317378
307989
298739
289631
280662
271833
263143
254588
246167
237869
229686
221590
213537
205435
197135
365523
356274
346377
336575
326907
317378
307988
298739
289631
280663
271834
263144
254591
246171
237878
229702
221621
213601
205574
197486
365527
356275
346375
336573
326906
317378
307988
298739
289631
280663
271835
263146
254594
246177
237888
229722
221658
213673
205727
197828
365530
356275
346374
336572
326906
317378
307988
298739
289631
280663
271836
263147
254597
246183
237900
229743
221699
213753
205887
198153
365533
356275
346374
336571
326905
317378
307989
298739
289631
280664
271837
263149
254601
246190
237913
229767
221743
213836
206048
198456
365534
356276
346373
336571
326905
317378
307989
298739
289631
280664
271838
263152
254605
246197
237926
229791
221789
213921
206206
198734
365535
356276
346373
336570
326905
317378
307989
298740
289632
280665
271839
263154
254609
246205
237940
229816
221835
214005
206357
198988
365535
356276
346373
336570
326905
317378
307989
298740
289632
280666
271840
263156
254613
246212
237954
229841
221881
214086
206499
199217
365534
356276
346373
336571
326905
317378
307989
298740
289633
280666
271842
263158
254617
246220
237968
229866
221925
214164
206631
199421
365533
356276
346374
336571
326905
317378
307989
298740
289633
280667
271843
263160
254621
246227
237981
229889
221966
214235
206749
199601
365530
356275
346375
336572
326906
317378
307989
298741
289634
280668
271844
263163
254625
246233
237993
229911
222004
214300
206855
199758
365527
356275
346376
336573
326907
317378
307989
298741
289634
280669
271845
263164
254628
246239
238003
229930
222038
214357
206946
199892
365523
356275
346377
336575
326907
317378
307989
298741
289635
280669
271846
263166
254631
246245
238013
229947
222066
214406
207023
200003
365518
356275
346379
336577
326908
317379
307990
298742
289635
280670
271847
263168
254634
246249
238021
229960
222090
214445
207085
200092
365512
356275
346382
336578
326909
317379
307990
298742
289635
280670
271848
263169
254636
246252
238026
229971
222108
214475
207131
200157
365503
356275
346384
336580
326910
317379
307990
298742
289636
280671
271848
263169
254637
246255
238031
229978
222120
214495
207162
200201
365491
356274
346385
336580
326910
317379
307990
298742
289636
280671
271848
263170
254638
246256
238033
229982
222127
214506
207178
200222
188349
186192
184547
183125
181806
180551
179341
178165
177015
175886
174774
173675
172588
171512
170445
169385
168331
167283
166239
165200
164165
163135
162110
161089
160072
159059
158051
157045
156043
155045
154050
153059
152072
151091
150115
149144
148178
147217
146260
145308
144358
143412
142469
141528
140589
139654
138722
137793
136867
135945
135027
134110
133197
132285
131376
130470
129567
128668
127771
126878
125987
125098
124212
123328
122447
121569
120694
119823
118955
118091
117230
116371
115515
114661
113808
112959
112112
111269
110429
109593
108763
107937
107116
106300
105487
104678
103873
103070
102271
101475
100681
99889.1
99099.5
98311.8
97525.8
96742
95960
95180.6
94403.2
93628.9
92857.3
92089.6
91325.2
90565.2
89809
89057.6
88310.4
87568
86829.7
86096.2
85366.6
84641.9
83920.9
83204.4
82491.1
81781.4
81074.5
80370.9
79670.4
78973.6
78280.3
77591.1
76904.6
76221.7
75540.5
74862.8
74186.2
73513.1
72841
72171.8
71503.5
70837.1
70171.6
69507.5
68844.6
68183.1
67523.3
66865.3
66209.7
65557.2
64907.5
64261.7
63619.4
62981.1
62346.7
61716.2
61089.7
60467.1
59847.9
59232.2
58619.4
58009.6
57402.1
56797.1
56194.1
55593.4
54994.6
54399
53805.8
53216
52628.7
52045.7
51465.5
50890.5
50318.6
49752.7
49190
48634.2
48082
47537.7
46996
46463.6
45931.3
45409.9
44886.8
44375.7
43860.7
43359.2
42851.5
42357.7
41857.3
41370.1
40876.3
40392.4
39903.1
39418.4
38928.8
38439.8
37943.1
37443.3
36931.4
36411
35872.6
35318
34735.8
34126.2
33473.3
32763.5
32007.8
31089.9
189884
187587
185714
184100
182641
181277
179978
178729
177516
176333
175174
174034
172911
171802
170706
169620
168543
167474
166411
165356
164306
163262
162224
161192
160165
159143
158125
157112
156104
155099
154099
153103
152112
151127
150146
149172
148202
147237
146277
145321
144369
143420
142474
141531
140591
139654
138720
137790
136863
135940
135019
134102
133188
132276
131366
130460
129557
128657
127761
126867
125976
125087
124201
123317
122436
121558
120684
119812
118944
118080
117218
116360
115503
114649
113798
112949
112103
111261
110422
109588
108759
107934
107115
106300
105489
104681
103877
103076
102278
101483
100690
99899.9
99111.2
98324.3
97539.1
96755.8
95974.4
95195.5
94418.7
93644.9
92873.9
92106.6
91342.6
90582.7
89826.7
89074.9
88327.4
87584.2
86845.5
86111.2
85381.3
84655.9
83934.6
83217.2
82503.2
81792.4
81084.8
80380.4
79679.7
78983.1
78290.3
77601.9
76916.5
76234.6
75554.8
74878.1
74203
73530.4
72859.3
72190.1
71522.3
70855.9
70190.6
69526.6
68863.8
68202.6
67543.1
66885.8
66230.9
65579.1
64930.5
64285.7
63644.8
63007.8
62374.8
61745.8
61120.8
60499.6
59881.7
59266.9
58655.5
58046.6
57439.9
56835.1
56232.2
55631
55031.7
54434.9
53840.4
53248.7
52659.9
52074.8
51492.6
50914.8
50340.1
49770.2
49203.8
48643.3
48086
47536.1
46988.2
46448.8
45909.4
45379.5
44848.1
44327.6
43803.5
43290.8
42773.3
42266.1
41755.2
41252
40746.5
40244.5
39741.3
39237.5
38731.1
38221.2
37705.8
37182
36648.6
36099.4
35534.6
34943.8
34328
33665.1
32976.8
32168.6
31353
30442.7
190950
188671
186710
184983
183418
181964
180588
179272
178001
176767
175563
174384
173226
172086
170962
169850
168751
167661
166580
165508
164443
163386
162336
161292
160255
159224
158198
157178
156162
155152
154146
153146
152151
151161
150177
149198
148224
147256
146292
145333
144377
143426
142477
141532
140590
139652
138717
137785
136857
135932
135011
134093
133177
132265
131356
130449
129546
128646
127749
126855
125964
125076
124190
123306
122426
121548
120674
119803
118935
118070
117208
116349
115493
114640
113789
112941
112096
111254
110417
109584
108756
107933
107115
106302
105492
104686
103884
103084
102288
101494
100703
99913.2
99125.4
98339.3
97554.9
96772.4
95991.7
95213.4
94437.5
93664.4
92894.3
92127.4
91364.1
90604.3
89848.3
89096
88348
87604.1
86864.8
86129.9
85399.6
84673.4
83951.3
83232.8
82517.8
81805.8
81097.4
80392.5
79691.8
78995.7
78303.7
77616
76931.9
76251
75572.8
74897
74223.3
73551.4
72881.1
72211.9
71544.4
70877.6
70212.4
69548.1
68885.4
68224.4
67565.2
66908.5
66254.3
65603.3
64955.9
64312.3
63672.9
63037.5
62406.2
61778.8
61155.5
60535.4
59919
59305.4
58695.2
58087.2
57481.1
56876.6
56273.5
55671.6
55071.5
54473.3
53877.2
53283.6
52693
52105.8
51521.5
50940.9
50363.5
49789.7
49219.7
48654.7
48092.4
47536.7
46982.5
46435.4
45888.5
45349.7
44809.8
44278.7
43746.1
43221
42694.9
42173.6
41653
41134
40616.9
40097.8
39580.5
39058.1
38536.3
38005
37473.9
36925.8
36374.9
35796.8
35212.8
34583.7
33952
33233.4
32533.1
31679.8
30835.3
29962.9
191762
189543
187557
185766
184129
182604
181163
179788
178465
177185
175939
174723
173532
172362
171210
170074
168953
167843
166745
165657
164578
163507
162445
161391
160343
159303
158269
157242
156220
155203
154193
153187
152188
151194
150206
149223
148246
147274
146307
145344
144386
143431
142480
141533
140590
139650
138713
137780
136851
135925
135002
134083
133167
132255
131345
130438
129535
128634
127737
126843
125952
125064
124179
123296
122416
121539
120665
119794
118926
118061
117200
116341
115485
114632
113781
112934
112090
111250
110414
109582
108756
107934
107118
106306
105498
104693
103892
103094
102299
101507
100717
99928.4
99141.6
98356.4
97572.9
96791.1
96011.4
95233.9
94459.1
93686.9
92917.9
92151.6
91388.7
90628.9
89872.7
89119.8
88371.3
87626.6
86886.7
86151
85420.1
84692.9
83969.9
83250
82533.9
81820.7
81111.5
80406.2
79705.8
79010
78319.1
77632.2
76949.4
76269.5
75592.7
74917.9
74245.4
73574.2
72904.6
72235.5
71567.9
70900.7
70235.4
69570.9
68908.2
68247.1
67588.3
66931.8
66278.6
65628.3
64982
64339.7
63701.7
63067.9
62438.3
61812.5
61191
60572.3
59957.4
59345.1
58736.3
58128.9
57523.5
56919
56315.9
55712.8
55111.7
54511.6
53913.6
53318
52726
52136.2
51550.1
50966.7
50386.8
49809.5
49236.2
48666.6
48099.7
47537.7
46977.7
46422.5
45868.2
45319.2
44771.7
44229.4
43688.8
43151.3
42616.5
42082
41551.2
41017.5
40488.3
39952.8
39422.6
38881.2
38346.9
37793.5
37250
36676.1
36114.3
35504.1
34912.7
34242.2
33605.7
32845.8
32124.4
31284.2
30442.9
29603.7
192417
190258
188276
186455
184770
183192
181698
180274
178905
177582
176299
175048
173825
172627
171450
170291
169148
168020
166905
165801
164708
163625
162551
161486
160430
159381
158339
157304
156276
155254
154238
153228
152225
151227
150234
149248
148267
147292
146321
145355
144394
143437
142484
141535
140589
139648
138710
137776
136845
135918
134995
134075
133158
132245
131335
130428
129524
128624
127727
126833
125942
125054
124169
123287
122407
121531
120657
119786
118919
118054
117193
116334
115478
114625
113776
112929
112086
111247
110412
109582
108757
107937
107122
106311
105504
104701
103902
103106
102312
101522
100733
99945.3
99159.6
98375.2
97592.7
96811.7
96033
95256.5
94482.8
93711.6
92943.4
92177.6
91415
90655
89898.3
89144.9
88395.6
87650.3
86909.8
86173.3
85441.6
84713.3
83989.3
83268.2
82551
81836.7
81126.9
80421.2
79721
79025.4
78335.3
77649.1
76967.4
76288.5
75612.8
74938.9
74267.5
73596.9
72927.6
72258.5
71590.8
70923.4
70257.9
69593.2
68930.5
68269.3
67610.8
66954.6
66302.3
65652.5
65007.4
64366
63729.4
63096.8
62469.2
61844.8
61225.2
60608.1
59994.9
59384.1
58776.7
58169.5
57564.8
56959.9
56356.5
55752.2
55150.1
54547.7
53948
53350.1
52757
52164.2
51576.7
50990.2
50408
49827.6
49251.2
48677.1
48106
47537.7
46972
46408.2
45847.1
45288.1
44733.1
44180.2
43631.4
43082.7
42539
41991.9
41451
40903
40363
39810.5
39270.1
38708.6
38164.5
37588.7
37036
36436.3
35866.2
35227.2
34626.3
33929.4
33274.2
32511
31764.5
30961.2
30141.5
29324.2
192968
190861
188893
187060
185344
183727
182192
180726
179317
177958
176640
175357
174106
172881
171680
170499
169337
168191
167059
165941
164834
163739
162655
161580
160514
159457
158408
157366
156332
155305
154284
153269
152261
151259
150264
149274
148289
147310
146337
145368
144404
143444
142489
141538
140591
139648
138708
137773
136841
135913
134989
134068
133151
132237
131327
130420
129516
128616
127719
126825
125934
125046
124162
123280
122401
121525
120651
119781
118914
118049
117188
116329
115473
114621
113771
112925
112083
111245
110411
109582
108759
107940
107126
106317
105512
104710
103913
103118
102326
101537
100750
99963.4
99178.8
98395.6
97613.9
96833.8
96056
95280.5
94507.7
93737.2
92969.6
92204.1
91441.5
90681
89923.7
89169.6
88419.7
87673.7
86932.7
86195.5
85462.9
84733.8
84008.8
83286.7
82568.5
81853.3
81142.9
80436.7
79736.3
79040.7
78350.9
77665.2
76984.2
76305.9
75631.2
74958.2
74287.6
73617.3
72948.4
72279.1
71611.2
70943.7
70278
69613
68950.2
68289
67630.7
66974.6
66322.7
65673.5
65029.5
64389.2
63754.1
63122.7
62496.7
61873.7
61255.8
60640.3
60028.9
59419.4
58813.2
58205.9
57601.8
56996.3
56392.8
55787.1
55184.4
54579.7
53979.2
53379.1
52784.2
52188.6
51599.5
51010.2
50425.9
49842.1
49263.1
48684.6
48109.6
47534.9
46964
46391.5
45824
45255.7
44693.6
44130.5
43574.3
43014.3
42463
41903.2
41353.4
40790.9
40241.9
39673.4
39122.8
38544.8
37989.3
37397
36831.4
36215.4
35629.2
34976.2
34354.8
33653.7
32975.2
32229.3
31475.7
30700
29899.8
29095.5
193441
191377
189427
187589
185854
184209
182642
181142
179700
178309
176960
175650
174372
173123
171900
170699
169518
168355
167208
166075
164956
163850
162755
161671
160596
159531
158475
157427
156387
155354
154329
153310
152298
151292
150293
149300
148312
147330
146354
145382
144416
143454
142496
141543
140595
139650
138709
137773
136840
135911
134986
134065
133147
132233
131322
130415
129511
128611
127714
126820
125929
125041
124157
123275
122396
121520
120647
119777
118910
118045
117184
116325
115469
114617
113768
112922
112081
111244
110411
109584
108761
107944
107131
106323
105519
104719
103923
103130
102341
101553
100767
99982
99198.6
98416.3
97635.4
96856
96079
95304.2
94531.9
93761.8
92994.4
92229
91466
90704.9
89947
89192.4
88442
87695.6
86954
86216.1
85482.7
84752.8
84027
83304.2
82585.1
81869.2
81158.1
80451.3
79750.5
79054.6
78364.5
77678.6
76997.7
76319.8
75645.7
74973.3
74303.5
73633.7
72965
72295.6
71627.6
70959.8
70293.7
69628.4
68965.4
68304.2
67645.8
66990
66338.1
65689.9
65046.9
64407.9
63774.2
63144.4
62519.8
61897.8
61281.3
60666.9
60056.9
59448.3
58842.9
58235.6
57632.1
57026.2
56422.4
55815.8
55212.2
54605.3
54003.9
53402.5
52805.3
52207.6
51616.6
51024.6
50438.1
49851.4
49269.6
48687.2
48108.3
47528.3
46951.3
46371.9
45797.3
45221.4
44651.5
44080.1
43515.9
42946.8
42386.9
41817.3
41257.1
40684.4
40123
39544.6
38979.8
38392.2
37821.2
37220.6
36638
36015.6
35411.2
34754.5
34115.4
33419.5
32729.1
32000.5
31250.3
30488.6
29698.9
28902.3
193851
191822
189890
188053
186307
184642
183050
181523
180054
178634
177259
175923
174622
173351
172107
170888
169689
168511
167350
166204
165074
163956
162851
161758
160676
159603
158540
157486
156441
155403
154373
153350
152334
151325
150322
149326
148335
147351
146371
145397
144429
143465
142505
141551
140600
139654
138713
137775
136841
135912
134986
134064
133146
132231
131320
130413
129509
128608
127711
126817
125926
125038
124154
123272
122393
121517
120644
119774
118906
118042
117180
116322
115466
114614
113765
112920
112080
111243
110412
109585
108764
107948
107136
106329
105527
104728
103933
103142
102354
101568
100784
99999.9
99217.5
98435.9
97655.5
96876.6
96100
95325.4
94553.4
93783.3
93015.5
92249.9
91486.5
90724.9
89966.6
89211.6
88460.8
87714
86971.8
86233.2
85499.1
84768.7
84042.1
83318.6
82599
81882.7
81170.9
80463.5
79761.9
79065.2
78374.2
77687.7
77006.3
76328.3
75654.3
74982.3
74313
73643.7
72975.2
72305.9
71637.9
70969.7
70303.3
69637.6
68974.3
68313.1
67654.7
66999.2
66347.7
65700.5
65058.8
64421.3
63788.7
63160.9
62536.8
61916.2
61300.6
60687
60077.7
59469.9
58865.1
58257.1
57654.2
57048.1
56443.5
55836.6
55232.1
54624.1
54021.1
53418.4
52818.3
52219.7
51625.6
51031.7
50442.6
49854
49269.5
48684.1
48101.2
47517.5
46934.4
46349.7
45767.3
45185
44607.9
44029.6
43457.1
42881.9
42312.2
41735.8
41164.6
40584.7
40010.6
39425
38846.4
38252.5
37667.4
37062.4
36465.8
35840.1
35222.3
34566.2
33916.5
33228.8
32533.1
31816.4
31068.7
30311.9
29527.9
28737.2
194212
192211
190295
188461
186708
185029
183418
181869
180376
178933
177535
176177
174855
173564
172302
171065
169851
168658
167484
166326
165185
164057
162943
161842
160752
159672
158603
157543
156493
155450
154416
153389
152370
151357
150351
149352
148359
147371
146390
145414
144443
143477
142516
141560
140608
139661
138718
137779
136845
135914
134988
134065
133146
132231
131320
130412
129508
128607
127709
126815
125924
125036
124151
123269
122390
121514
120640
119770
118902
118038
117176
116318
115463
114611
113763
112919
112079
111243
110413
109587
108766
107951
107140
106334
105533
104736
103942
103152
102366
101581
100798
100016
99233.9
98452.7
97672.6
96893.8
96117.1
95342.4
94570
93799.4
93031.3
92265.2
91501.3
90739.3
89980.6
89225.2
88474.1
87726.9
86984.1
86245
85510.3
84779.2
84052.1
83328.2
82608.2
81891.4
81178.9
80470.9
79768.4
79070.7
78378.4
77690.7
77008.4
76329.6
75655.3
74983.5
74314.4
73645.6
72977.4
72308.4
71640.4
70972.2
70305.8
69639.8
68976.5
68315.4
67657.2
67002.5
66352
65705.5
65065.1
64428.9
63797.5
63171.2
62548
61928.1
61313.1
60700.1
60090.8
59483.8
58878.3
58270.3
57667.7
57060.9
56455.4
55849.2
55242.9
54635.2
54030.6
53428.2
52823.5
52224.9
51627.1
51032.1
50438.9
49850.7
49262
48676.2
48088.1
47502.7
46912
46323.7
45734.4
45146.8
44563
43980
43398.9
42821.4
42240.8
41660.5
41078.7
40493
39908.4
39317.2
38727.1
38129.5
37533.2
36926
36319.4
35693.4
35066.2
34413
33755.6
33075.5
32374.8
31663.5
30917.1
30161.3
29382.6
28597.5
194531
192552
190649
188819
187062
185373
183747
182181
180669
179206
177788
176411
175070
173762
172483
171231
170002
168796
167609
166441
165289
164152
163030
161920
160823
159737
158662
157597
156542
155495
154457
153426
152403
151388
150379
149377
148381
147392
146408
145430
144457
143490
142527
141570
140617
139668
138724
137785
136849
135918
134991
134067
133148
132232
131321
130412
129507
128606
127708
126813
125922
125033
124148
123266
122386
121510
120636
119765
118898
118033
117172
116313
115459
114608
113760
112917
112078
111243
110413
109588
108768
107953
107143
106338
105537
104741
103949
103160
102375
101592
100810
100028
99246.7
98465.5
97685.1
96905.7
96128.6
95353.3
94580.2
93809
93040.3
92273.8
91509.3
90746.8
89987.6
89231.9
88480.3
87732.6
86989.3
86249.8
85514.5
84783.1
84055.5
83331.3
82610.8
81893.6
81180.7
80472.1
79768.5
79069.8
78376.3
77687.3
77003.4
76323.4
75648.2
74976
74307
73638.8
72971.1
72303
71635
70967.1
70300.8
69635.2
68972.4
68312
67654.7
67001.1
66351.7
65706.3
65066.9
64431.9
63800.9
63175.4
62552.8
61933.3
61318.7
60705.3
60096.3
59489.8
58881.9
58276.4
57671.7
57065.2
56458.6
55853.5
55244.9
54637.6
54031.4
53431.2
52820.9
52224.5
51619.9
51027.7
50427.9
49841.9
49247.7
48663.3
48068.8
47483.9
46884.7
46294.1
45698.4
45108.1
44517.6
43933.5
43343.5
42766.6
42175.8
41593.1
41003.2
40412.1
39819.9
39224.5
38625.3
38024.8
37419.9
36812.7
36197.7
35574.5
34937.9
34288.7
33622.8
32947.2
32242
31531.3
30787.1
30033.1
29260.8
28481.5
194811
192850
190959
189133
187373
185677
184040
182460
180932
179453
178018
176624
175266
173942
172649
171383
170142
168923
167726
166547
165386
164241
163110
161994
160890
159798
158718
157648
156588
155537
154495
153461
152435
151417
150406
149401
148403
147412
146426
145446
144472
143503
142539
141580
140626
139676
138731
137790
136854
135922
134994
134070
133150
132233
131321
130412
129507
128605
127707
126811
125919
125030
124145
123262
122382
121505
120631
119760
118892
118028
117166
116308
115454
114604
113757
112915
112076
111242
110413
109588
108768
107953
107143
106338
105539
104743
103952
103165
102381
101599
100818
100036
99254.3
98472.7
97691.6
96911.2
96133.3
95357.1
94583.1
93811
93041.7
92274.6
91509.7
90746.8
89987.1
89230.8
88478.7
87730.5
86986.8
86247
85511.7
84779.9
84052
83327.4
82606.7
81889.3
81175.9
80466.7
79762.2
79062.4
78367.6
77677.1
76991.6
76310.2
75633.8
74960.9
74291.7
73623.3
72956.4
72289.1
71621.9
70955
70289.4
69624.8
68963.2
68303.9
67648.1
66995.6
66347.8
65703.5
65064.8
64430.5
63799.7
63173.9
62552
61931.4
61316.8
60702.8
60093.6
59487.2
58877.4
58274.1
57666.4
57061.8
56454
55849.1
55239.8
54633.1
54025.6
53425.5
52812.7
52218.1
51605.7
51016.7
50409.7
49826.3
49226.5
48645.3
48043.4
47460
46852.9
46262.6
45661.5
45069.8
44473.6
43888.8
43291.7
42716.8
42118.7
41533.6
40938.4
40341.8
39744.9
39146
38539.6
37940.8
37328.3
36722.8
36096.5
35476.7
34830.1
34182.9
33509.6
32834.3
32127.3
31416.6
30676
29926
29160.7
28387.6
195056
193110
191228
189406
187645
185943
184298
182706
181166
179673
178224
176815
175444
174106
172800
171521
170269
169040
167832
166644
165474
164321
163184
162061
160952
159855
158769
157695
156631
155576
154531
153494
152465
151444
150430
149424
148424
147430
146443
145462
144486
143515
142550
141590
140634
139683
138737
137796
136858
135925
134996
134072
133151
132234
131321
130411
129505
128603
127704
126808
125916
125027
124140
123257
122377
121500
120625
119754
118887
118022
117161
116304
115450
114600
113755
112913
112075
111241
110412
109587
108767
107952
107142
106337
105537
104742
103952
103165
102382
101600
100820
100037
99255.7
98473.3
97691.4
96909.7
96131
95353.6
94578.7
93805.5
93035.7
92268
91502.8
90739.3
89979.3
89222.2
88469.9
87721.4
86977.7
86237.8
85502.6
84770.6
84042.5
83317.5
82596.9
81879.2
81165.6
80455.8
79750.7
79049.4
78353.4
77661.2
76974.3
76291.5
75613.9
74940.1
74270.3
73601.8
72935.3
72268.5
71602.9
70937.1
70273
69609.9
68949.8
68291.5
67637.3
66985.7
66339.4
65696.1
65058.5
64424.8
63794.7
63167.6
62546.6
61924
61308.7
60692.6
60083.9
59475.4
58865
58262.6
57653.9
57050.6
56442.3
55837.6
55228.2
54620.8
54014.5
53413.8
52800.9
52203.9
51589
51000
50388.2
49804.9
49201.1
48621.6
48015.7
47432.3
46820
46228.7
45624.6
45031.9
44431.9
43844.5
43246.1
42669.3
42066.5
41482
40881.3
40282.1
39680.4
39080.4
38471.2
37871.8
37251.6
36647.1
36012.1
35390.3
34737.1
34087.9
33410.6
32735.1
32028.3
31319.7
30583.5
29839
29081.1
28314.2
195269
193334
191460
189642
187881
186175
184523
182922
181371
179867
178406
176985
175602
174253
172935
171646
170383
169144
167928
166732
165554
164395
163251
162122
161007
159906
158816
157737
156670
155612
154563
153524
152493
151469
150453
149445
148443
147448
146459
145476
144499
143527
142560
141599
140642
139690
138743
137800
136862
135928
134998
134073
133151
132233
131320
130409
129503
128600
127701
126805
125912
125022
124135
123252
122371
121494
120620
119749
118881
118017
117156
116299
115446
114597
113752
112911
112074
111240
110411
109586
108765
107949
107138
106333
105532
104737
103947
103161
102378
101596
100814
100032
99249.5
98466.3
97683.6
96901
96121.6
95343.1
94567.4
93793.1
93023.1
92254.5
91489.3
90725.2
89965.2
89207.6
88455.3
87706.6
86963.2
86223.5
85488.4
84756.2
84028.2
83302.9
82582.4
81864.3
81151
80440.4
79734.8
79032.2
78335.2
77641.3
76953.3
76269.1
75590.8
74915.8
74245.5
73576.6
72910.5
72244.3
71580
70915.5
70253.2
69591.3
68932.9
68275.6
67622.9
66972
66326.6
65684.3
65047.8
64414.5
63785.4
63157.4
62536.3
61911.1
61294
60675.6
60065.9
59454.7
58847
58242.4
57635.6
57030.8
56422.8
55818.9
55210.8
54601.8
53999.3
53395.6
52784.7
52184.6
51569.2
50976.1
50363.8
49775.6
49172.7
48592.1
47983.6
47403.6
46787
46195.3
45587.4
44992.2
44390.4
43801.4
43201.8
42623.7
42020.6
41437
40831.9
40231.9
39627.5
39025.2
38414.8
37807.9
37189.6
36579.2
35938.3
35312
34655.7
34003.2
33326.2
32650.4
31945.3
31240.7
30509.3
29770.8
29019.9
28259.1
195452
193527
191659
189844
188083
186373
184716
183108
181549
180035
178565
177134
175741
174381
173054
171755
170484
169237
168012
166809
165625
164460
163310
162177
161057
159951
158858
157776
156705
155644
154593
153551
152517
151492
150474
149464
148460
147463
146473
145489
144510
143537
142569
141606
140649
139696
138747
137804
136864
135929
134999
134072
133150
132232
131317
130407
129500
128596
127697
126800
125907
125017
124130
123247
122366
121489
120615
119744
118876
118012
117152
116295
115443
114594
113750
112910
112072
111239
110409
109583
108762
107945
107133
106326
105525
104729
103939
103152
102368
101585
100802
100019
99236.5
98452.5
97669
96885.9
96105.9
95326.5
94550
93775.3
93005.2
92236.1
91471
90706.7
89946.8
89189
88437.2
87688.4
86945.4
86205.6
85470.8
84738.5
84010.5
83285
82564.6
81846.7
81133.6
80422.4
79716.2
79012.4
78314.1
77618.8
76930
76244.6
75565.8
74890.1
74219.6
73550.5
72884.5
72218.8
71555.5
70892.4
70231.4
69570.7
68913.5
68257.3
67605.4
66955.4
66311
65669.6
65034.3
64401.1
63772.6
63143.6
62521.3
61894.2
61274.3
60653.4
60042.5
59426.9
58823
58217
57611.7
57004.5
56399.6
55793.8
55188.7
54577.2
53980.5
53371.1
52765.2
52162.9
51549.3
50946.4
50337.2
49744
49140.8
48558.6
47951.5
47363.8
46753
46160.6
45549.7
44950.1
44350.6
43757.8
43163.3
42583.6
41977
41395.7
40791
40189.3
39583.9
38977
38367.9
37752.2
37134.4
36512.6
35874.5
35240.8
34586.1
33929.6
33256.5
32580.5
31878.8
31178.1
30451.5
29719.3
28974.2
28219
195608
193690
191827
190013
188252
186540
184879
183266
181700
180179
178700
177261
175860
174492
173156
171850
170571
169317
168086
166876
165687
164516
163362
162224
161101
159991
158894
157809
156735
155672
154619
153574
152539
151512
150492
149480
148475
147477
146485
145499
144520
143545
142576
141613
140654
139700
138750
137806
136866
135930
134998
134071
133148
132229
131314
130403
129496
128592
127692
126795
125902
125012
124125
123241
122361
121484
120609
119739
118871
118007
117147
116291
115439
114591
113747
112907
112070
111236
110406
109579
108757
107939
107126
106318
105516
104719
103927
103139
102353
101569
100785
100002
99218.6
98434
97649.7
96866.4
96085.7
95305.6
94528.5
93754.2
92984
92215.1
91450
90686.1
89926.2
89169.1
88417.4
87668.8
86926.1
86186.3
85451.3
84718.9
83990.7
83265.7
82545.1
81827.6
81114.3
80403.5
79696.5
78992
78292.2
77596
76906.1
76220
75540.8
74865
74194.4
73525.3
72859.3
72193.9
71531.3
70868.9
70208.4
69549.1
68892.8
68237.7
67586.6
66937.9
66294.4
65653.9
65019.2
64385.2
63756.7
63126.4
62501.9
61873
61251.8
60630.4
60015.1
59399
58795.3
58185.9
57584.4
56974.9
56371.5
55765.6
55165.4
54553.8
53957.6
53344.3
52746.2
52133
51521.9
50914
50313.6
49717.3
49113.6
48523
47916.2
47320.3
46717.5
46119
45511.9
44909.5
44315.6
43719
43127.4
42540.1
41939.9
41357
40753.9
40151
39548.4
38936.7
38323.5
37703
37084.8
36453.6
35817.7
35178.4
34530.7
33870.5
33202.5
32525.2
31828
31128.9
30408.6
29681.6
28940.8
28191.3
195737
193825
191964
190152
188390
186677
185012
183395
181825
180298
178813
177368
175959
174584
173242
171929
170644
169384
168147
166933
165739
164564
163406
162264
161137
160024
158925
157837
156761
155696
154640
153594
152557
151528
150507
149494
148488
147488
146495
145508
144527
143552
142582
141617
140657
139702
138752
137807
136866
135929
134997
134069
133146
132226
131311
130399
129492
128588
127688
126791
125897
125007
124120
123237
122356
121479
120604
119734
118866
118002
117142
116287
115435
114587
113743
112903
112066
111232
110400
109573
108750
107931
107117
106308
105505
104706
103912
103123
102335
101549
100765
99980.8
99196.7
98412
97627.5
96844.4
96062.8
95282.8
94505.8
93732.5
92961.9
92193.8
91428.7
90665.8
89906.1
89150
88397.7
87649.9
86906.6
86167.1
85431.3
84699
83970.2
83245.7
82524.9
81808.6
81095.1
80385.4
79677.7
78973.2
78272
77575.7
76884.4
76198.2
75518.3
74843.1
74171.8
73503.2
72836.3
72171.6
71508.7
70846.8
70186.3
69528.2
68871.7
68217.9
67567.2
66919.9
66276.7
65637.1
65001.6
64367.2
63736.8
63105.7
62478.5
61849.2
61226.2
60604.6
59990.2
59374.2
58765.7
58156.5
57554.1
56944.5
56344.7
55737.5
55138.1
54528.7
53933.1
53318.2
52717.4
52097.6
51496.8
50886.1
50289.2
49689.3
49083.9
48482.2
47880.2
47281.8
46681.5
46075.1
45477.2
44874.6
44281.6
43684.4
43097.1
42501
41910.4
41315.9
40721.4
40117.7
39514.7
38899.2
38285.4
37662.4
37037.1
36405
35772.4
35131.8
34486.8
33828.1
33162.4
32484.7
31792.4
31092.2
30378.1
29654
28917.2
28173.2
195840
193932
192072
190260
188498
186784
185118
183498
181924
180393
178903
177452
176038
174658
173311
171993
170702
169438
168197
166979
165781
164602
163441
162296
161167
160051
158950
157860
156782
155715
154658
153610
152571
151541
150519
149504
148497
147496
146502
145515
144533
143557
142586
141620
140660
139704
138753
137807
136865
135928
134995
134067
133143
132223
131308
130396
129488
128584
127684
126787
125893
125003
124116
123232
122351
121474
120600
119729
118861
117998
117138
116282
115430
114582
113738
112898
112060
111225
110394
109566
108742
107923
107108
106298
105493
104694
103898
103106
102316
101529
100743
99958.7
99173.4
98389.1
97604.4
96822
96040
95261.2
94484.2
93711.8
92941.2
92174.2
91409.1
90647.2
89887.8
89132.7
88380.2
87633
86888.9
86149.6
85413.1
84681.1
83951.7
83227.7
82506.5
81790.8
81077.7
80369.2
79661.2
78957.2
78255.3
77559.1
76866.8
76180.8
75500.3
74825.2
74153.1
73484.8
72817
72152.9
71489
70827.5
70166.6
69509.1
68852.1
68199.4
67548.8
66902.5
66258.5
65619.2
64981.9
64347.1
63714.4
63082.9
62453.1
61825.5
61200.9
60582.1
59964.5
59348.6
58738.7
58129.6
57522.8
56917.7
56316.9
55708.6
55109.9
54502.7
53903.4
53287.6
52686.5
52072.1
51474
50855.4
50262
49652.6
49050.3
48450.7
47850.2
47244.8
46645.8
46037.9
45444.6
44840.7
44252.7
43657.3
43069.6
42467.1
41882.2
41279.5
40690.3
40084.5
39486.3
38866.9
38253.6
37627
37001.2
36372
35736.6
35099.3
34454.3
33800.6
33132.5
32457.6
31766.8
31067.3
30356.7
29634.2
28901.4
28161.4
195917
194012
192153
190341
188578
186864
185196
183575
181998
180464
178970
177516
176098
174714
173362
172040
170746
169478
168234
167013
165812
164631
163467
162320
161189
160072
158968
157877
156797
155729
154670
153622
152582
151551
150527
149512
148504
147502
146508
145519
144537
143560
142588
141622
140661
139705
138754
137807
136865
135927
134994
134066
133141
132221
131305
130394
129486
128581
127681
126783
125890
124999
124112
123228
122348
121470
120596
119725
118857
117993
117133
116277
115425
114577
113732
112891
112053
111218
110386
109558
108734
107915
107100
106289
105483
104682
103884
103091
102299
101512
100724
99939.1
99152.6
98369.1
97584.1
96802.5
96020.3
95243
94465.8
93694.4
92923.5
92158
91392.6
90632.5
89872.7
89118.9
88366.1
87619.6
86874.9
86136.2
85398.8
84667.3
83937
83213.6
82492.2
81777.3
81063.9
80356.3
79648.6
78946
78244.2
77549.1
76855.7
76170.1
75487.9
74812.6
74139
73471.1
72802.8
72139.4
71474.1
70812.8
70150.9
69493.2
68835.4
68183.5
67532.2
66886.5
66241.4
65601.9
64962.8
64327.5
63692.4
63061
62429.4