/*--------------------------------*- C++ -*----------------------------------*\
| =========                 |                                                 |
| \\      /  F ield         | OpenFOAM: The Open Source CFD Toolbox           |
|  \\    /   O peration     | Version:  2.4.0                                 |
|   \\  /    A nd           | Web:      www.OpenFOAM.org                      |
|    \\/     M anipulation  |                                                 |
\*---------------------------------------------------------------------------*/
FoamFile
{
    version     2.0;
    format      ascii;
    class       volVectorField;
    location    "1.77";
    object      UMean;
}
// * * * * * * * * * * * * * * * * * * * * * * * * * * * * * * * * * * * * * //

dimensions      [0 1 -1 0 0 0 0];

internalField   nonuniform List<vector> 
8800
(
(8.09334 0.387323 0)
(5.45587 0.242639 0)
(3.92381 0.0429733 0)
(3.15994 -0.0152211 0)
(2.81716 -0.0184503 0)
(2.59973 -0.0108509 0)
(2.50637 -0.00587666 0)
(2.38178 -0.00198969 0)
(2.34715 -0.00177519 0)
(2.25226 -0.000196788 0)
(2.2499 -0.00102966 0)
(2.1689 0.000433939 0)
(2.18153 -0.000530976 0)
(2.10218 0.00093615 0)
(2.11959 -0.000190673 0)
(2.03837 0.0012772 0)
(2.058 -0.000369013 0)
(1.97048 0.000566166 0)
(2.02963 0.00817159 0)
(1.73161 -0.0643043 0)
(10.0887 0.836555 0)
(9.65138 0.86696 0)
(8.894 0.50586 0)
(8.06785 0.261882 0)
(7.52584 0.137141 0)
(6.98507 0.0821889 0)
(6.74303 0.05277 0)
(6.37366 0.0407352 0)
(6.28665 0.0282467 0)
(5.99733 0.0247378 0)
(6.00207 0.0169385 0)
(5.7521 0.0183431 0)
(5.80813 0.0132732 0)
(5.56955 0.0170873 0)
(5.65209 0.0131418 0)
(5.40962 0.0164741 0)
(5.51308 0.0162411 0)
(5.24501 0.00724777 0)
(5.42072 0.0303857 0)
(5.02375 -0.0424785 0)
(10.0833 0.629941 0)
(10.6306 0.862341 0)
(10.9104 0.599567 0)
(10.6471 0.373513 0)
(10.512 0.254185 0)
(10.0305 0.19652 0)
(9.90734 0.150813 0)
(9.43234 0.12274 0)
(9.40292 0.0910993 0)
(8.96756 0.0765622 0)
(9.03396 0.0555204 0)
(8.63025 0.0529082 0)
(8.76802 0.0396452 0)
(8.37299 0.0433807 0)
(8.55915 0.0349403 0)
(8.15293 0.0387348 0)
(8.37919 0.0380823 0)
(7.93951 0.0280123 0)
(8.23076 0.0411475 0)
(7.73975 -0.050426 0)
(10.0605 0.456417 0)
(10.5008 0.704281 0)
(11.2475 0.543715 0)
(11.2899 0.352726 0)
(11.6473 0.259766 0)
(11.3636 0.228059 0)
(11.5942 0.197021 0)
(11.1945 0.176231 0)
(11.4148 0.143358 0)
(10.9657 0.126369 0)
(11.2162 0.0997694 0)
(10.742 0.0936819 0)
(11.0323 0.0755027 0)
(10.5343 0.0769735 0)
(10.8628 0.0646209 0)
(10.3355 0.0690211 0)
(10.7007 0.0618522 0)
(10.1355 0.0627119 0)
(10.5376 0.0473524 0)
(9.94742 0.019688 0)
(10.1696 0.345933 0)
(10.2796 0.567006 0)
(11.1767 0.45783 0)
(11.176 0.295851 0)
(11.7904 0.205677 0)
(11.5415 0.194903 0)
(12.0212 0.174045 0)
(11.6849 0.171729 0)
(12.1319 0.1397 0)
(11.7508 0.135443 0)
(12.1895 0.103221 0)
(11.7748 0.109912 0)
(12.2115 0.0815071 0)
(11.7649 0.0994064 0)
(12.2005 0.0703926 0)
(11.7228 0.0986224 0)
(12.1564 0.0639842 0)
(11.6476 0.103597 0)
(12.0721 0.0424127 0)
(11.5375 0.082098 0)
(10.1979 0.249237 0)
(10.1949 0.456602 0)
(11.0236 0.37181 0)
(11.0706 0.250243 0)
(11.6469 0.155996 0)
(11.5018 0.154636 0)
(11.9182 0.136571 0)
(11.7219 0.145267 0)
(12.0953 0.113098 0)
(11.8956 0.116896 0)
(12.2483 0.0833866 0)
(12.0476 0.0961049 0)
(12.3804 0.0668786 0)
(12.1756 0.0895994 0)
(12.4861 0.0610776 0)
(12.2756 0.0921993 0)
(12.56 0.060589 0)
(12.3401 0.100679 0)
(12.5852 0.0511408 0)
(12.3336 0.0548508 0)
(10.0835 0.169077 0)
(10.2489 0.358787 0)
(10.8033 0.280826 0)
(11.0758 0.211596 0)
(11.4316 0.109106 0)
(11.5239 0.123426 0)
(11.7118 0.0947515 0)
(11.7425 0.124746 0)
(11.889 0.0764868 0)
(11.9218 0.103463 0)
(12.0537 0.0507811 0)
(12.0899 0.0880195 0)
(12.2072 0.0352045 0)
(12.2425 0.0857716 0)
(12.3441 0.0288775 0)
(12.3761 0.0927383 0)
(12.4604 0.0265197 0)
(12.4827 0.107218 0)
(12.5318 0.0222526 0)
(12.497 0.101868 0)
(9.97791 0.103565 0)
(10.2982 0.263642 0)
(10.6405 0.190639 0)
(11.0749 0.165386 0)
(11.2761 0.0674009 0)
(11.5311 0.0939321 0)
(11.5684 0.0569053 0)
(11.7418 0.100626 0)
(11.7429 0.0442906 0)
(11.9139 0.0851315 0)
(11.9087 0.024894 0)
(12.0786 0.0740695 0)
(12.0656 0.0127672 0)
(12.2293 0.0728576 0)
(12.2074 0.00778405 0)
(12.3625 0.0787729 0)
(12.3311 0.00604824 0)
(12.4716 0.0910939 0)
(12.4155 0.00315092 0)
(12.4637 0.0879056 0)
(9.91104 0.0560437 0)
(10.3283 0.160959 0)
(10.5348 0.111233 0)
(11.0711 0.103762 0)
(11.1742 0.0363196 0)
(11.5331 0.0585779 0)
(11.475 0.0302268 0)
(11.7392 0.0645933 0)
(11.6467 0.0233248 0)
(11.9072 0.0543719 0)
(11.813 0.0111706 0)
(12.0709 0.0470637 0)
(11.9713 0.00403878 0)
(12.222 0.0452443 0)
(12.1145 0.00112015 0)
(12.3562 0.04714 0)
(12.24 0.000305922 0)
(12.4665 0.0504241 0)
(12.3198 -0.0075926 0)
(12.4377 0.0112502 0)
(9.89984 0.00866883 0)
(10.3225 0.0665551 0)
(10.5022 0.0259407 0)
(11.0495 0.0475956 0)
(11.1452 0.000146058 0)
(11.5153 0.0327696 0)
(11.4529 -0.00241975 0)
(11.7198 0.036298 0)
(11.6252 -0.00525373 0)
(11.8867 0.0328949 0)
(11.7931 -0.0104186 0)
(12.0513 0.030513 0)
(11.9532 -0.0140071 0)
(12.2041 0.0295732 0)
(12.0981 -0.0170167 0)
(12.3407 0.028854 0)
(12.2249 -0.0204422 0)
(12.4531 0.0256162 0)
(12.3019 -0.0315292 0)
(12.4221 -0.00357079 0)
(9.91963 -0.0300282 0)
(10.3034 -0.0353148 0)
(10.5223 -0.0540414 0)
(11.0344 -0.0184402 0)
(11.1675 -0.029784 0)
(11.5028 -0.00289698 0)
(11.4774 -0.0287111 0)
(11.7103 -0.00340571 0)
(11.6509 -0.0275682 0)
(11.8802 0.000325341 0)
(11.8205 -0.0250611 0)
(12.0477 0.00274903 0)
(11.9821 -0.025505 0)
(12.2038 0.00207933 0)
(12.1284 -0.0289461 0)
(12.3442 -0.00158431 0)
(12.2568 -0.0352896 0)
(12.4605 -0.00897869 0)
(12.3343 -0.0467143 0)
(12.4302 -0.0277916 0)
(9.95103 -0.0749537 0)
(10.2873 -0.134394 0)
(10.5761 -0.136618 0)
(11.0353 -0.0795706 0)
(11.2215 -0.0619758 0)
(11.5009 -0.0338715 0)
(11.5281 -0.0571766 0)
(11.7111 -0.0375052 0)
(11.7043 -0.0517147 0)
(11.884 -0.0269068 0)
(11.875 -0.0418507 0)
(12.0531 -0.0196319 0)
(12.0376 -0.0389598 0)
(12.2106 -0.0198323 0)
(12.1852 -0.0426895 0)
(12.3523 -0.0263701 0)
(12.3154 -0.0518595 0)
(12.4699 -0.0384376 0)
(12.3951 -0.0635616 0)
(12.4398 -0.0476476 0)
(9.9772 -0.122636 0)
(10.2896 -0.238715 0)
(10.6459 -0.216073 0)
(11.0646 -0.142033 0)
(11.2889 -0.0928999 0)
(11.5202 -0.0689236 0)
(11.5876 -0.0844739 0)
(11.7318 -0.0731307 0)
(11.7668 -0.074384 0)
(11.9065 -0.0562438 0)
(11.9379 -0.0583237 0)
(12.0751 -0.0442176 0)
(12.1002 -0.0521264 0)
(12.2315 -0.0432708 0)
(12.2478 -0.0563871 0)
(12.3719 -0.0520297 0)
(12.3783 -0.0695688 0)
(12.4881 -0.0690854 0)
(12.4606 -0.0858593 0)
(12.46 -0.067631 0)
(10.0129 -0.182234 0)
(10.2998 -0.343077 0)
(10.7473 -0.298241 0)
(11.115 -0.197404 0)
(11.3851 -0.12686 0)
(11.5578 -0.107469 0)
(11.6719 -0.113336 0)
(11.7734 -0.108567 0)
(11.854 -0.0970625 0)
(11.9515 -0.0862651 0)
(12.0238 -0.0748911 0)
(12.12 -0.0703509 0)
(12.183 -0.0649531 0)
(12.2745 -0.0683907 0)
(12.3263 -0.0684086 0)
(12.4113 -0.0786809 0)
(12.4501 -0.0844733 0)
(12.5219 -0.101554 0)
(12.5258 -0.107581 0)
(12.4943 -0.0991039 0)
(10.0553 -0.257513 0)
(10.317 -0.447702 0)
(10.8912 -0.381958 0)
(11.1806 -0.243384 0)
(11.5216 -0.165719 0)
(11.6058 -0.146947 0)
(11.7964 -0.145338 0)
(11.822 -0.140029 0)
(11.9748 -0.122008 0)
(11.9937 -0.11284 0)
(12.1289 -0.0939195 0)
(12.145 -0.0941259 0)
(12.2619 -0.0799356 0)
(12.2726 -0.0912462 0)
(12.3675 -0.0802667 0)
(12.3712 -0.101949 0)
(12.4389 -0.0952648 0)
(12.4296 -0.129844 0)
(12.4463 -0.124056 0)
(12.3481 -0.139038 0)
(10.051 -0.351437 0)
(10.3927 -0.560194 0)
(11.046 -0.464387 0)
(11.2968 -0.290193 0)
(11.655 -0.212846 0)
(11.6641 -0.188311 0)
(11.8788 -0.181021 0)
(11.8106 -0.166786 0)
(11.9804 -0.147478 0)
(11.8802 -0.131332 0)
(12.0275 -0.112517 0)
(11.9079 -0.10749 0)
(12.0356 -0.0931194 0)
(11.9005 -0.100535 0)
(12.0046 -0.0875193 0)
(11.8566 -0.10792 0)
(11.9272 -0.0964985 0)
(11.7651 -0.136544 0)
(11.7694 -0.124816 0)
(11.5442 -0.162313 0)
(10.0041 -0.459718 0)
(10.5596 -0.700597 0)
(11.168 -0.546427 0)
(11.367 -0.350431 0)
(11.5578 -0.263718 0)
(11.4482 -0.225255 0)
(11.4941 -0.200965 0)
(11.2849 -0.174261 0)
(11.3032 -0.147774 0)
(11.06 -0.125163 0)
(11.0913 -0.104575 0)
(10.8381 -0.0947706 0)
(10.8896 -0.0806117 0)
(10.629 -0.0834165 0)
(10.6926 -0.070848 0)
(10.4215 -0.0877424 0)
(10.4795 -0.0742346 0)
(10.1907 -0.115703 0)
(10.1972 -0.0954044 0)
(9.86194 -0.160776 0)
(10.0598 -0.633032 0)
(10.655 -0.859303 0)
(10.8662 -0.600921 0)
(10.6901 -0.372112 0)
(10.4581 -0.256856 0)
(10.0817 -0.19487 0)
(9.8431 -0.153571 0)
(9.48776 -0.121 0)
(9.32987 -0.0943925 0)
(9.02344 -0.0750407 0)
(8.95241 -0.0593863 0)
(8.68236 -0.0525199 0)
(8.67493 -0.0443126 0)
(8.4159 -0.0461042 0)
(8.44513 -0.0410757 0)
(8.17697 -0.050363 0)
(8.21651 -0.0482116 0)
(7.91959 -0.0697037 0)
(7.92252 -0.0708886 0)
(7.57582 -0.0896954 0)
(10.0811 -0.838103 0)
(9.6563 -0.865166 0)
(8.87407 -0.506253 0)
(8.08867 -0.261181 0)
(7.49859 -0.138644 0)
(7.01138 -0.0815179 0)
(6.7068 -0.0540087 0)
(6.40288 -0.0399216 0)
(6.24457 -0.0297757 0)
(6.02537 -0.024048 0)
(5.95553 -0.018745 0)
(5.77421 -0.0182572 0)
(5.75533 -0.0154514 0)
(5.57988 -0.0185614 0)
(5.58552 -0.0163578 0)
(5.39688 -0.0229013 0)
(5.40664 -0.0219624 0)
(5.18426 -0.0327077 0)
(5.17341 -0.0383684 0)
(4.87832 -0.0197179 0)
(8.09142 -0.387718 0)
(5.45401 -0.242092 0)
(3.9198 -0.0432164 0)
(3.16701 0.015293 0)
(2.80965 0.0180347 0)
(2.60686 0.0111425 0)
(2.49473 0.00560745 0)
(2.38976 0.00228648 0)
(2.33341 0.00146612 0)
(2.25948 0.000442289 0)
(2.23396 0.000696879 0)
(2.17306 -0.000236978 0)
(2.16239 0.000186829 0)
(2.09948 -0.00107764 0)
(2.09284 -0.000321479 0)
(2.02005 -0.00225673 0)
(2.00808 -0.00111469 0)
(1.91677 -0.00383147 0)
(1.87898 -0.00427309 0)
(1.72731 0.0112608 0)
(2.27717 -0.113324 0)
(2.32483 -0.0223826 0)
(2.55839 -0.00243934 0)
(2.61771 -0.0050671 0)
(2.84564 -0.0225544 0)
(2.87497 -0.0276207 0)
(3.0824 -0.0371005 0)
(3.08068 -0.0335176 0)
(3.2645 -0.0409101 0)
(3.2377 -0.0402218 0)
(3.40998 -0.0495252 0)
(3.36605 -0.0493003 0)
(3.53713 -0.0597127 0)
(3.48551 -0.0592597 0)
(3.65992 -0.0692095 0)
(3.60491 -0.0673611 0)
(3.78669 -0.0756406 0)
(3.73106 -0.0718228 0)
(3.92563 -0.0788763 0)
(3.872 -0.0730219 0)
(4.07786 -0.0822339 0)
(4.02393 -0.0800432 0)
(4.23721 -0.0936501 0)
(4.17812 -0.0952 0)
(4.3933 -0.113376 0)
(4.32465 -0.118269 0)
(4.53784 -0.138516 0)
(4.45833 -0.142065 0)
(4.66971 -0.159606 0)
(4.58497 -0.159285 0)
(4.79887 -0.175083 0)
(4.71725 -0.173584 0)
(4.93874 -0.189475 0)
(4.86103 -0.187114 0)
(5.08772 -0.202868 0)
(5.00995 -0.199744 0)
(5.24269 -0.215873 0)
(5.16193 -0.212438 0)
(5.40322 -0.22994 0)
(5.31694 -0.228157 0)
(5.56891 -0.248587 0)
(5.47438 -0.2514 0)
(5.73699 -0.278336 0)
(5.6314 -0.286386 0)
(5.89846 -0.318181 0)
(5.77965 -0.328189 0)
(6.04774 -0.362402 0)
(5.91954 -0.36977 0)
(6.18731 -0.403114 0)
(6.05422 -0.405696 0)
(6.32411 -0.436227 0)
(6.18731 -0.433433 0)
(6.46597 -0.460803 0)
(6.32371 -0.454794 0)
(6.61773 -0.481291 0)
(6.46575 -0.473429 0)
(6.77898 -0.500839 0)
(6.61498 -0.493132 0)
(6.94647 -0.521758 0)
(6.76815 -0.514497 0)
(7.1155 -0.54677 0)
(6.92818 -0.54217 0)
(7.28779 -0.580926 0)
(7.09909 -0.581077 0)
(7.46055 -0.628147 0)
(7.27214 -0.632561 0)
(7.6234 -0.684518 0)
(7.42888 -0.690549 0)
(7.76713 -0.741891 0)
(7.56133 -0.745573 0)
(7.89348 -0.79648 0)
(7.67554 -0.794853 0)
(8.00689 -0.842098 0)
(7.77665 -0.834588 0)
(8.11992 -0.879421 0)
(7.87976 -0.866329 0)
(8.24005 -0.908887 0)
(7.99689 -0.891024 0)
(8.37246 -0.935283 0)
(8.12656 -0.912942 0)
(8.51472 -0.957942 0)
(8.26217 -0.931246 0)
(8.65916 -0.973407 0)
(8.39458 -0.944765 0)
(8.79604 -0.986557 0)
(8.52495 -0.956645 0)
(8.91553 -1.00238 0)
(8.6515 -0.972227 0)
(9.01897 -1.02027 0)
(8.76345 -0.987768 0)
(9.1069 -1.03429 0)
(8.86129 -1.00116 0)
(9.1841 -1.04719 0)
(8.94225 -1.01231 0)
(9.2489 -1.05647 0)
(9.00863 -1.01653 0)
(9.30322 -1.05979 0)
(9.06088 -1.01681 0)
(9.34787 -1.05874 0)
(9.11031 -1.01333 0)
(9.39544 -1.05879 0)
(9.1617 -1.0118 0)
(9.44989 -1.0609 0)
(9.2119 -1.00788 0)
(9.50039 -1.05581 0)
(9.25367 -0.994622 0)
(9.53633 -1.04709 0)
(9.2778 -0.981948 0)
(9.54944 -1.03799 0)
(9.2838 -0.964476 0)
(9.54464 -1.01943 0)
(9.27107 -0.940281 0)
(9.51953 -0.993138 0)
(9.2417 -0.909875 0)
(9.48353 -0.963602 0)
(9.21233 -0.873698 0)
(9.44996 -0.924659 0)
(9.19446 -0.831842 0)
(9.42146 -0.883061 0)
(9.17771 -0.790011 0)
(9.39581 -0.841533 0)
(9.16733 -0.748381 0)
(9.38022 -0.804348 0)
(9.16106 -0.707824 0)
(9.36708 -0.766863 0)
(9.14423 -0.669583 0)
(9.35544 -0.726107 0)
(9.12502 -0.624668 0)
(9.34464 -0.673723 0)
(9.11421 -0.566592 0)
(9.33151 -0.608669 0)
(9.11226 -0.500235 0)
(9.31439 -0.541446 0)
(9.10674 -0.436868 0)
(9.29273 -0.48188 0)
(9.09404 -0.38047 0)
(9.26645 -0.422556 0)
(9.08044 -0.315771 0)
(9.24232 -0.357797 0)
(9.07366 -0.254887 0)
(9.2204 -0.300297 0)
(9.0653 -0.202973 0)
(9.19289 -0.243333 0)
(9.05838 -0.15071 0)
(9.168 -0.193633 0)
(9.05327 -0.104737 0)
(9.13352 -0.133913 0)
(9.03546 -0.0500516 0)
(9.09361 -0.0738204 0)
(9.01314 0.00960712 0)
(9.04254 -0.0131687 0)
(8.97611 0.0786846 0)
(8.98666 0.064581 0)
(8.93244 0.158231 0)
(8.9359 0.139829 0)
(8.89514 0.240726 0)
(8.88999 0.227984 0)
(8.83837 0.329092 0)
(8.84669 0.311483 0)
(8.78766 0.4194 0)
(8.80421 0.382447 0)
(8.72289 0.502193 0)
(8.76716 0.45728 0)
(8.64562 0.578689 0)
(8.72404 0.533278 0)
(8.56022 0.662854 0)
(8.68312 0.607858 0)
(8.47851 0.747653 0)
(8.63716 0.688222 0)
(8.39148 0.846393 0)
(8.57904 0.761496 0)
(8.28525 0.93955 0)
(8.52446 0.846398 0)
(8.14413 1.04961 0)
(8.45716 0.933729 0)
(8.00346 1.19067 0)
(8.38376 1.03634 0)
(7.856 1.33949 0)
(8.32856 1.14637 0)
(7.71831 1.49818 0)
(8.27131 1.27049 0)
(7.59108 1.66516 0)
(8.20133 1.41176 0)
(7.47099 1.83682 0)
(8.09352 1.56833 0)
(7.35405 2.0195 0)
(7.93602 1.75443 0)
(7.21811 2.21802 0)
(7.74695 1.98317 0)
(7.04676 2.44402 0)
(7.5273 2.25625 0)
(6.81311 2.71889 0)
(7.24701 2.60691 0)
(6.513 3.11657 0)
(6.84939 3.08112 0)
(6.14246 3.78384 0)
(6.34712 3.81961 0)
(5.45698 4.92801 0)
(6.43138 5.45453 0)
(4.11579 8.44771 0)
(5.34344 -0.0753815 0)
(5.262 -0.0409955 0)
(5.38593 -0.040633 0)
(5.32246 -0.0533313 0)
(5.50251 -0.07954 0)
(5.45729 -0.088842 0)
(5.64699 -0.0991224 0)
(5.58098 -0.0926468 0)
(5.75716 -0.0951348 0)
(5.6656 -0.0885961 0)
(5.83742 -0.0957454 0)
(5.73302 -0.0937178 0)
(5.91259 -0.104845 0)
(5.80401 -0.104127 0)
(5.99529 -0.115499 0)
(5.884 -0.113594 0)
(6.08659 -0.124015 0)
(5.97167 -0.120268 0)
(6.1845 -0.130215 0)
(6.06617 -0.125595 0)
(6.28845 -0.136825 0)
(6.16606 -0.13446 0)
(6.39587 -0.149084 0)
(6.26743 -0.149375 0)
(6.5029 -0.167286 0)
(6.36667 -0.169426 0)
(6.60644 -0.18867 0)
(6.46207 -0.190003 0)
(6.70554 -0.208703 0)
(6.55412 -0.208237 0)
(6.80345 -0.226359 0)
(6.64768 -0.224751 0)
(6.90618 -0.243477 0)
(6.74674 -0.241289 0)
(7.0149 -0.260132 0)
(6.84963 -0.256679 0)
(7.12758 -0.275476 0)
(6.95538 -0.271367 0)
(7.24291 -0.291408 0)
(7.06379 -0.28831 0)
(7.36048 -0.311783 0)
(7.17623 -0.311268 0)
(7.47999 -0.340237 0)
(7.29163 -0.343052 0)
(7.59942 -0.376669 0)
(7.40545 -0.380637 0)
(7.71495 -0.416443 0)
(7.51359 -0.419469 0)
(7.82544 -0.454753 0)
(7.6142 -0.454884 0)
(7.93256 -0.48775 0)
(7.70835 -0.483708 0)
(8.03821 -0.514373 0)
(7.79978 -0.506809 0)
(8.14489 -0.536851 0)
(7.89271 -0.526984 0)
(8.25399 -0.557988 0)
(7.9912 -0.548187 0)
(8.36702 -0.582014 0)
(8.09762 -0.573276 0)
(8.48416 -0.610963 0)
(8.21119 -0.604022 0)
(8.60359 -0.647084 0)
(8.32941 -0.6431 0)
(8.72212 -0.691904 0)
(8.44777 -0.689965 0)
(8.83498 -0.741501 0)
(8.55824 -0.740262 0)
(8.94065 -0.793662 0)
(8.65891 -0.791715 0)
(9.0391 -0.843217 0)
(8.7489 -0.836028 0)
(9.13171 -0.885708 0)
(8.83317 -0.873693 0)
(9.22118 -0.923887 0)
(8.91757 -0.906046 0)
(9.3091 -0.956738 0)
(9.00398 -0.933845 0)
(9.39732 -0.984816 0)
(9.09037 -0.958606 0)
(9.48706 -1.00813 0)
(9.17512 -0.975845 0)
(9.57334 -1.02396 0)
(9.2586 -0.986814 0)
(9.6492 -1.03431 0)
(9.33888 -0.995509 0)
(9.71657 -1.04602 0)
(9.41686 -1.00665 0)
(9.7739 -1.05746 0)
(9.4844 -1.01743 0)
(9.82523 -1.06885 0)
(9.54437 -1.02696 0)
(9.86688 -1.07726 0)
(9.58772 -1.03194 0)
(9.89315 -1.07984 0)
(9.61443 -1.03013 0)
(9.90925 -1.07718 0)
(9.6293 -1.02528 0)
(9.92002 -1.07388 0)
(9.64309 -1.02342 0)
(9.93549 -1.0772 0)
(9.65722 -1.02308 0)
(9.94924 -1.07892 0)
(9.66295 -1.01609 0)
(9.95541 -1.06856 0)
(9.66203 -0.998502 0)
(9.94835 -1.05242 0)
(9.64897 -0.978016 0)
(9.9227 -1.03643 0)
(9.61658 -0.95498 0)
(9.87943 -1.01163 0)
(9.56753 -0.920219 0)
(9.82205 -0.979623 0)
(9.51206 -0.886441 0)
(9.76146 -0.949388 0)
(9.4643 -0.853949 0)
(9.70769 -0.916345 0)
(9.42355 -0.815742 0)
(9.66258 -0.876673 0)
(9.38494 -0.776732 0)
(9.6267 -0.838421 0)
(9.35292 -0.737601 0)
(9.59702 -0.801495 0)
(9.31941 -0.693656 0)
(9.56542 -0.760453 0)
(9.27942 -0.650659 0)
(9.53132 -0.720404 0)
(9.24026 -0.607505 0)
(9.49384 -0.669379 0)
(9.20729 -0.552007 0)
(9.45842 -0.608597 0)
(9.17981 -0.487996 0)
(9.42624 -0.539341 0)
(9.15147 -0.423351 0)
(9.39367 -0.47554 0)
(9.11233 -0.362619 0)
(9.3539 -0.415954 0)
(9.07826 -0.304971 0)
(9.31991 -0.356091 0)
(9.05893 -0.247534 0)
(9.29157 -0.298302 0)
(9.03974 -0.193265 0)
(9.25993 -0.244106 0)
(9.01828 -0.138241 0)
(9.23104 -0.192151 0)
(8.98747 -0.086529 0)
(9.20048 -0.128512 0)
(8.95734 -0.031199 0)
(9.16598 -0.0687757 0)
(8.93809 0.0317059 0)
(9.12027 0.000804769 0)
(8.90504 0.102486 0)
(9.06672 0.074625 0)
(8.86914 0.181402 0)
(9.02214 0.1491 0)
(8.83187 0.265197 0)
(8.98157 0.235651 0)
(8.78739 0.357159 0)
(8.95159 0.311133 0)
(8.74736 0.453591 0)
(8.93006 0.381347 0)
(8.68628 0.540164 0)
(8.91322 0.455876 0)
(8.62987 0.622477 0)
(8.88793 0.525921 0)
(8.58091 0.709623 0)
(8.86267 0.593145 0)
(8.5264 0.806973 0)
(8.81663 0.669055 0)
(8.45932 0.916941 0)
(8.78127 0.739554 0)
(8.36611 1.028 0)
(8.7402 0.826483 0)
(8.25214 1.15565 0)
(8.68484 0.910801 0)
(8.11753 1.28891 0)
(8.65543 1.00362 0)
(7.98037 1.43139 0)
(8.6448 1.10694 0)
(7.85518 1.58953 0)
(8.62854 1.23867 0)
(7.75724 1.7582 0)
(8.58079 1.3924 0)
(7.67112 1.9346 0)
(8.49716 1.56137 0)
(7.57588 2.11545 0)
(8.39864 1.76271 0)
(7.4491 2.31666 0)
(8.2755 1.9973 0)
(7.31414 2.57398 0)
(8.10874 2.28058 0)
(7.17943 2.91124 0)
(7.87767 2.62736 0)
(7.01805 3.38683 0)
(7.61836 3.11422 0)
(6.73314 4.08781 0)
(7.60626 3.91321 0)
(6.08054 5.3499 0)
(8.51283 4.77418 0)
(6.53189 8.91437 0)
(8.03433 -0.0820307 0)
(7.90663 -0.0570592 0)
(8.0407 -0.0670804 0)
(7.92805 -0.0796696 0)
(8.11509 -0.105373 0)
(8.0219 -0.110978 0)
(8.21891 -0.120705 0)
(8.10184 -0.111206 0)
(8.2841 -0.113934 0)
(8.13985 -0.10453 0)
(8.31973 -0.112905 0)
(8.16487 -0.10967 0)
(8.35565 -0.123955 0)
(8.1984 -0.123585 0)
(8.40312 -0.139339 0)
(8.24413 -0.137803 0)
(8.46086 -0.152231 0)
(8.29793 -0.14814 0)
(8.52354 -0.161293 0)
(8.35507 -0.156004 0)
(8.58809 -0.169979 0)
(8.41394 -0.165868 0)
(8.6538 -0.182452 0)
(8.47357 -0.180384 0)
(8.71973 -0.199688 0)
(8.53283 -0.199039 0)
(8.78476 -0.219786 0)
(8.59052 -0.218965 0)
(8.84792 -0.239803 0)
(8.64518 -0.237822 0)
(8.90884 -0.258475 0)
(8.69747 -0.255616 0)
(8.96931 -0.276781 0)
(8.74925 -0.273427 0)
(9.03037 -0.295132 0)
(8.80158 -0.290779 0)
(9.09258 -0.312954 0)
(8.85674 -0.307591 0)
(9.157 -0.331292 0)
(8.91663 -0.325938 0)
(9.22453 -0.352963 0)
(8.98268 -0.349409 0)
(9.29629 -0.381029 0)
(9.05331 -0.38012 0)
(9.37062 -0.415641 0)
(9.12424 -0.416208 0)
(9.44392 -0.453349 0)
(9.19007 -0.453053 0)
(9.51285 -0.48961 0)
(9.2479 -0.486342 0)
(9.57648 -0.521155 0)
(9.29879 -0.513958 0)
(9.6358 -0.547293 0)
(9.34581 -0.536669 0)
(9.69273 -0.570187 0)
(9.39398 -0.557561 0)
(9.74992 -0.593458 0)
(9.44807 -0.580687 0)
(9.81005 -0.620432 0)
(9.50927 -0.608294 0)
(9.87252 -0.651237 0)
(9.57404 -0.640168 0)
(9.93494 -0.686313 0)
(9.63752 -0.677612 0)
(9.99553 -0.727228 0)
(9.69644 -0.720651 0)
(10.0534 -0.773851 0)
(9.75212 -0.768729 0)
(10.1112 -0.825043 0)
(9.80512 -0.818478 0)
(10.1645 -0.873933 0)
(9.85292 -0.862348 0)
(10.214 -0.915513 0)
(9.89664 -0.900152 0)
(10.2592 -0.953237 0)
(9.9362 -0.933257 0)
(10.2983 -0.985976 0)
(9.97231 -0.960659 0)
(10.3332 -1.01341 0)
(10.0085 -0.984178 0)
(10.3654 -1.03497 0)
(10.0428 -0.999425 0)
(10.3948 -1.04923 0)
(10.0779 -1.00711 0)
(10.4194 -1.05637 0)
(10.1127 -1.01317 0)
(10.4413 -1.06358 0)
(10.1417 -1.01928 0)
(10.4568 -1.07182 0)
(10.1652 -1.02919 0)
(10.4689 -1.08155 0)
(10.1806 -1.03428 0)
(10.4668 -1.08457 0)
(10.1788 -1.03194 0)
(10.4477 -1.08023 0)
(10.1617 -1.02466 0)
(10.4129 -1.07427 0)
(10.1341 -1.01874 0)
(10.3804 -1.07376 0)
(10.1101 -1.01874 0)
(10.3495 -1.0776 0)
(10.0814 -1.01631 0)
(10.3106 -1.07697 0)
(10.0439 -1.00643 0)
(10.2665 -1.06335 0)
(10.002 -0.986305 0)
(10.2142 -1.0435 0)
(9.95192 -0.959366 0)
(10.1501 -1.01703 0)
(9.88369 -0.925414 0)
(10.0657 -0.984552 0)
(9.80359 -0.886833 0)
(9.97739 -0.951059 0)
(9.73222 -0.85508 0)
(9.89996 -0.924469 0)
(9.66829 -0.824301 0)
(9.82201 -0.893614 0)
(9.60164 -0.78785 0)
(9.75268 -0.860551 0)
(9.54439 -0.751209 0)
(9.70049 -0.826791 0)
(9.4961 -0.711356 0)
(9.65088 -0.787373 0)
(9.44425 -0.666481 0)
(9.5982 -0.743953 0)
(9.39267 -0.621858 0)
(9.54082 -0.704006 0)
(9.33648 -0.578486 0)
(9.477 -0.655892 0)
(9.28039 -0.523278 0)
(9.4157 -0.595969 0)
(9.22247 -0.458751 0)
(9.36918 -0.530661 0)
(9.16817 -0.3943 0)
(9.32462 -0.46342 0)
(9.10985 -0.330549 0)
(9.2738 -0.405506 0)
(9.06229 -0.280118 0)
(9.22754 -0.350975 0)
(9.02418 -0.224405 0)
(9.18785 -0.297315 0)
(8.99443 -0.16644 0)
(9.1413 -0.24023 0)
(8.95951 -0.110954 0)
(9.1055 -0.187005 0)
(8.92248 -0.0560271 0)
(9.07493 -0.124346 0)
(8.89186 0.00429448 0)
(9.04537 -0.0680736 0)
(8.8639 0.0672229 0)
(9.00862 -0.000295143 0)
(8.84857 0.144749 0)
(8.96975 0.0653293 0)
(8.82465 0.220835 0)
(8.93652 0.140146 0)
(8.78616 0.311981 0)
(8.90418 0.218889 0)
(8.7501 0.402668 0)
(8.88298 0.292522 0)
(8.70818 0.498671 0)
(8.8701 0.3737 0)
(8.66417 0.586126 0)
(8.8615 0.440924 0)
(8.63782 0.670289 0)
(8.84805 0.503059 0)
(8.6054 0.757323 0)
(8.82927 0.568916 0)
(8.56683 0.866651 0)
(8.8105 0.648468 0)
(8.50384 0.977652 0)
(8.81744 0.72091 0)
(8.40923 1.10148 0)
(8.81919 0.812021 0)
(8.28838 1.24403 0)
(8.8364 0.90534 0)
(8.15162 1.38193 0)
(8.8619 0.988406 0)
(8.0327 1.52051 0)
(8.87198 1.08256 0)
(7.93488 1.66868 0)
(8.85892 1.20284 0)
(7.86573 1.83997 0)
(8.82522 1.35464 0)
(7.79795 2.02691 0)
(8.78229 1.53101 0)
(7.71331 2.22755 0)
(8.72186 1.72825 0)
(7.63944 2.46467 0)
(8.61379 1.9453 0)
(7.58598 2.74184 0)
(8.48565 2.21574 0)
(7.52945 3.09873 0)
(8.39895 2.57281 0)
(7.40438 3.57227 0)
(8.49886 3.0637 0)
(7.10356 4.32112 0)
(9.02902 3.59013 0)
(6.80796 5.87211 0)
(9.76505 3.68243 0)
(8.17229 8.19273 0)
(10.2934 -0.0922593 0)
(10.1406 -0.121797 0)
(10.2821 -0.153966 0)
(10.1414 -0.153849 0)
(10.3334 -0.162264 0)
(10.2114 -0.146218 0)
(10.4094 -0.145619 0)
(10.2621 -0.126415 0)
(10.445 -0.129009 0)
(10.2732 -0.115172 0)
(10.4542 -0.12583 0)
(10.2735 -0.119372 0)
(10.464 -0.137159 0)
(10.282 -0.134419 0)
(10.485 -0.154432 0)
(10.3018 -0.150748 0)
(10.5149 -0.169488 0)
(10.3281 -0.162994 0)
(10.5487 -0.18015 0)
(10.3568 -0.171896 0)
(10.5841 -0.189305 0)
(10.3865 -0.181446 0)
(10.6198 -0.201044 0)
(10.4163 -0.194821 0)
(10.6548 -0.217059 0)
(10.445 -0.212122 0)
(10.6879 -0.236049 0)
(10.4713 -0.231011 0)
(10.7183 -0.255371 0)
(10.4947 -0.249258 0)
(10.7454 -0.273512 0)
(10.5149 -0.266249 0)
(10.7698 -0.290809 0)
(10.533 -0.282999 0)
(10.7926 -0.308432 0)
(10.5503 -0.300167 0)
(10.8151 -0.32676 0)
(10.5687 -0.318457 0)
(10.8394 -0.346996 0)
(10.5902 -0.339379 0)
(10.8669 -0.370785 0)
(10.6153 -0.365168 0)
(10.8977 -0.400336 0)
(10.6424 -0.396895 0)
(10.9295 -0.435234 0)
(10.6684 -0.432499 0)
(10.9589 -0.472177 0)
(10.6903 -0.467729 0)
(10.9837 -0.506767 0)
(10.7071 -0.498591 0)
(11.0034 -0.536025 0)
(10.7202 -0.523811 0)
(11.0193 -0.559899 0)
(10.7318 -0.544761 0)
(11.0333 -0.581467 0)
(10.7458 -0.565478 0)
(11.0486 -0.604907 0)
(10.7634 -0.58925 0)
(11.0652 -0.63184 0)
(10.7815 -0.616509 0)
(11.0803 -0.662058 0)
(10.7971 -0.64768 0)
(11.092 -0.696436 0)
(10.8088 -0.683692 0)
(11.0997 -0.73572 0)
(10.8164 -0.725983 0)
(11.1063 -0.783161 0)
(10.8228 -0.776519 0)
(11.1133 -0.834987 0)
(10.826 -0.826063 0)
(11.1168 -0.883583 0)
(10.8229 -0.869875 0)
(11.115 -0.924459 0)
(10.8172 -0.907023 0)
(11.1078 -0.959713 0)
(10.805 -0.938172 0)
(11.0938 -0.989507 0)
(10.791 -0.964432 0)
(11.0779 -1.01624 0)
(10.7807 -0.986583 0)
(11.0615 -1.03597 0)
(10.7723 -1.00218 0)
(11.0449 -1.04883 0)
(10.7637 -1.00884 0)
(11.0288 -1.05582 0)
(10.7555 -1.0135 0)
(11.0105 -1.05994 0)
(10.7415 -1.01918 0)
(10.9912 -1.06905 0)
(10.7269 -1.02708 0)
(10.964 -1.07392 0)
(10.6972 -1.02377 0)
(10.9178 -1.06831 0)
(10.6497 -1.0129 0)
(10.8556 -1.05756 0)
(10.5888 -0.999338 0)
(10.7796 -1.0506 0)
(10.5242 -0.996407 0)
(10.7081 -1.05406 0)
(10.458 -0.995554 0)
(10.631 -1.05394 0)
(10.3861 -0.990736 0)
(10.5512 -1.05366 0)
(10.3141 -0.981636 0)
(10.4722 -1.0406 0)
(10.2378 -0.960182 0)
(10.3837 -1.01721 0)
(10.1504 -0.926258 0)
(10.2825 -0.982443 0)
(10.0502 -0.885091 0)
(10.1658 -0.942609 0)
(9.94391 -0.846833 0)
(10.0567 -0.916333 0)
(9.85614 -0.822765 0)
(9.95877 -0.890883 0)
(9.76615 -0.788779 0)
(9.85792 -0.85897 0)
(9.67362 -0.753614 0)
(9.76104 -0.83356 0)
(9.59506 -0.720343 0)
(9.68267 -0.804609 0)
(9.52467 -0.681652 0)
(9.61443 -0.763409 0)
(9.45453 -0.639608 0)
(9.54833 -0.720533 0)
(9.38521 -0.597743 0)
(9.47413 -0.677847 0)
(9.31111 -0.549535 0)
(9.39391 -0.625847 0)
(9.23237 -0.493817 0)
(9.31456 -0.567579 0)
(9.15517 -0.433095 0)
(9.24718 -0.507668 0)
(9.08584 -0.367529 0)
(9.18546 -0.442199 0)
(9.01592 -0.3059 0)
(9.12533 -0.386863 0)
(8.95268 -0.257961 0)
(9.06349 -0.337483 0)
(8.89693 -0.202585 0)
(9.01415 -0.287754 0)
(8.84188 -0.14038 0)
(8.96601 -0.226064 0)
(8.79153 -0.0878053 0)
(8.93337 -0.180099 0)
(8.75637 -0.0287535 0)
(8.90148 -0.123897 0)
(8.7258 0.0289831 0)
(8.8843 -0.0696925 0)
(8.69345 0.0906243 0)
(8.86611 -0.0123804 0)
(8.67239 0.168604 0)
(8.86217 0.0596505 0)
(8.63474 0.249291 0)
(8.8548 0.137193 0)
(8.59855 0.347531 0)
(8.83325 0.213916 0)
(8.57074 0.442713 0)
(8.81956 0.291909 0)
(8.52804 0.523571 0)
(8.81293 0.357389 0)
(8.51 0.612604 0)
(8.81991 0.412213 0)
(8.47588 0.699405 0)
(8.85516 0.478719 0)
(8.42226 0.794952 0)
(8.87479 0.54392 0)
(8.35966 0.914123 0)
(8.90809 0.620279 0)
(8.29783 1.03082 0)
(8.94798 0.692864 0)
(8.21705 1.17102 0)
(8.9866 0.775636 0)
(8.11829 1.31252 0)
(9.03201 0.852172 0)
(8.04492 1.44392 0)
(9.05162 0.938041 0)
(7.99744 1.58346 0)
(9.03872 1.04079 0)
(7.96279 1.73797 0)
(9.01208 1.16013 0)
(7.934 1.92125 0)
(8.99171 1.30476 0)
(7.9116 2.11771 0)
(8.97649 1.47132 0)
(7.89987 2.33334 0)
(8.94143 1.6533 0)
(7.89956 2.57788 0)
(8.92194 1.88024 0)
(7.86385 2.8665 0)
(8.95568 2.14768 0)
(7.78379 3.23937 0)
(9.11628 2.46364 0)
(7.62535 3.77014 0)
(9.49818 2.76658 0)
(7.46243 4.67785 0)
(10.1026 2.90484 0)
(7.77928 6.11586 0)
(10.3643 3.10481 0)
(9.17154 7.18565 0)
(11.7957 -0.0783511 0)
(11.6728 -0.145209 0)
(11.8303 -0.199203 0)
(11.7274 -0.193312 0)
(11.897 -0.194161 0)
(11.7866 -0.161127 0)
(11.947 -0.155613 0)
(11.8101 -0.12816 0)
(11.9562 -0.13429 0)
(11.8004 -0.117349 0)
(11.9442 -0.133927 0)
(11.7822 -0.124531 0)
(11.9336 -0.147494 0)
(11.7727 -0.14091 0)
(11.9348 -0.165474 0)
(11.7746 -0.157747 0)
(11.9452 -0.1811 0)
(11.7831 -0.170691 0)
(11.9598 -0.192529 0)
(11.7938 -0.180269 0)
(11.975 -0.202189 0)
(11.8038 -0.189905 0)
(11.9887 -0.213667 0)
(11.8117 -0.202561 0)
(11.9997 -0.2287 0)
(11.8168 -0.218596 0)
(12.0076 -0.24643 0)
(11.8188 -0.236163 0)
(12.0125 -0.264664 0)
(11.8187 -0.253224 0)
(12.0153 -0.281731 0)
(11.8174 -0.268892 0)
(12.0167 -0.297792 0)
(11.816 -0.284133 0)
(12.0174 -0.314055 0)
(11.8151 -0.300224 0)
(12.0181 -0.331814 0)
(11.815 -0.3186 0)
(12.0196 -0.352421 0)
(11.8156 -0.340602 0)
(12.0217 -0.377281 0)
(11.8158 -0.367444 0)
(12.0236 -0.407227 0)
(11.8142 -0.399036 0)
(12.0236 -0.441335 0)
(11.8093 -0.433344 0)
(12.0196 -0.476606 0)
(11.8 -0.466892 0)
(12.0105 -0.509455 0)
(11.7864 -0.496346 0)
(11.9959 -0.537359 0)
(11.7699 -0.520556 0)
(11.9778 -0.560805 0)
(11.7539 -0.541876 0)
(11.9596 -0.583167 0)
(11.7404 -0.563666 0)
(11.9425 -0.606592 0)
(11.7269 -0.5871 0)
(11.9243 -0.63173 0)
(11.71 -0.613257 0)
(11.9042 -0.660395 0)
(11.6884 -0.643235 0)
(11.8816 -0.692804 0)
(11.6617 -0.677006 0)
(11.8569 -0.730554 0)
(11.6329 -0.718447 0)
(11.832 -0.777212 0)
(11.6015 -0.766933 0)
(11.8006 -0.826921 0)
(11.5633 -0.81396 0)
(11.7619 -0.872496 0)
(11.5185 -0.8554 0)
(11.7169 -0.912179 0)
(11.4714 -0.890631 0)
(11.6651 -0.944846 0)
(11.419 -0.919852 0)
(11.6078 -0.973803 0)
(11.3675 -0.947364 0)
(11.5535 -1.00166 0)
(11.3205 -0.970962 0)
(11.5023 -1.02268 0)
(11.2754 -0.98734 0)
(11.451 -1.03361 0)
(11.23 -0.994746 0)
(11.4034 -1.04102 0)
(11.1814 -0.998704 0)
(11.3543 -1.04556 0)
(11.1332 -1.00595 0)
(11.305 -1.05481 0)
(11.0806 -1.0068 0)
(11.2412 -1.05026 0)
(11.0085 -0.994562 0)
(11.1615 -1.03851 0)
(10.9225 -0.977846 0)
(11.0687 -1.02453 0)
(10.8306 -0.962254 0)
(10.9703 -1.01942 0)
(10.7403 -0.958531 0)
(10.8653 -1.02009 0)
(10.6412 -0.954704 0)
(10.7578 -1.01912 0)
(10.5469 -0.952211 0)
(10.6553 -1.01962 0)
(10.4496 -0.942282 0)
(10.5458 -1.00187 0)
(10.3404 -0.915718 0)
(10.4219 -0.972759 0)
(10.2203 -0.877516 0)
(10.2861 -0.934492 0)
(10.0933 -0.830735 0)
(10.144 -0.891959 0)
(9.97548 -0.799947 0)
(10.0183 -0.87533 0)
(9.86305 -0.776612 0)
(9.89165 -0.84696 0)
(9.74791 -0.738233 0)
(9.76901 -0.813635 0)
(9.63355 -0.703376 0)
(9.65637 -0.792324 0)
(9.53127 -0.675765 0)
(9.55674 -0.769234 0)
(9.43435 -0.642876 0)
(9.47303 -0.732098 0)
(9.34517 -0.603476 0)
(9.39074 -0.690913 0)
(9.25621 -0.559212 0)
(9.29981 -0.64578 0)
(9.16483 -0.506673 0)
(9.20527 -0.592462 0)
(9.07015 -0.449999 0)
(9.11403 -0.537024 0)
(8.97992 -0.394076 0)
(9.02722 -0.479449 0)
(8.89977 -0.329559 0)
(8.94825 -0.41821 0)
(8.82824 -0.268727 0)
(8.87783 -0.363026 0)
(8.75043 -0.217683 0)
(8.80517 -0.318016 0)
(8.67431 -0.164374 0)
(8.74656 -0.267414 0)
(8.59479 -0.106445 0)
(8.70154 -0.212923 0)
(8.54413 -0.0609903 0)
(8.65949 -0.175963 0)
(8.50909 0.00453633 0)
(8.62947 -0.128068 0)
(8.47721 0.0558839 0)