/*--------------------------------*- C++ -*----------------------------------*\
| =========                 |                                                 |
| \\      /  F ield         | OpenFOAM: The Open Source CFD Toolbox           |
|  \\    /   O peration     | Version:  2.4.0                                 |
|   \\  /    A nd           | Web:      www.OpenFOAM.org                      |
|    \\/     M anipulation  |                                                 |
\*---------------------------------------------------------------------------*/
FoamFile
{
    version     2.0;
    format      ascii;
    class       volScalarField;
    location    "1.02";
    object      pMean;
}
// * * * * * * * * * * * * * * * * * * * * * * * * * * * * * * * * * * * * * //

dimensions      [0 2 -2 0 0 0 0];

internalField   nonuniform List<scalar> 
8800
(
88.2131
75.7717
68.3398
64.7615
62.8419
61.3916
60.155
58.9892
57.9304
56.8818
55.9011
54.8972
53.9599
52.9996
52.1245
51.2359
50.4465
49.6613
48.967
48.2263
85.1044
75.4178
68.5083
64.8752
62.9014
61.4169
60.1625
58.9896
57.9283
56.8793
55.8983
54.8951
53.9574
52.9978
52.1223
51.2335
50.4474
49.6572
48.97
48.1906
83.1407
75.4941
69.1089
65.2503
63.0682
61.4959
60.2088
59.022
57.9523
56.8964
55.9084
54.8999
53.9587
52.9959
52.1202
51.2252
50.4472
49.6449
49.0344
48.2454
81.6064
75.5558
69.6942
65.6733
63.2512
61.5834
60.2708
59.0785
58.0005
56.9355
55.9355
54.9182
53.9689
53.0005
52.1199
51.2181
50.4368
49.6336
49.0984
48.4915
80.359
75.5292
70.1691
66.079
63.4196
61.6509
60.3188
59.1364
58.0559
56.9878
55.9706
54.947
53.9812
53.0122
52.1156
51.2179
50.4105
49.6233
49.0209
48.8299
79.376
75.4325
70.5343
66.4261
63.5708
61.6953
60.3463
59.1823
58.1056
57.0385
56.006
54.9762
53.9927
53.0228
52.1096
51.2156
50.3859
49.6177
49.0371
49.3085
78.6203
75.3179
70.8016
66.7065
63.7074
61.7231
60.3547
59.2151
58.1452
57.0804
56.0362
54.9999
54.0022
53.0286
52.1041
51.2095
50.3731
49.6257
49.1286
49.6241
78.0693
75.2161
70.9846
66.9181
63.8285
61.7409
60.3508
59.2365
58.1747
57.1126
56.0592
55.0179
54.0082
53.0323
52.0992
51.2082
50.3703
49.6501
49.2139
49.8511
77.7104
75.1423
71.1
67.0618
63.9143
61.7523
60.3447
59.2497
58.1954
57.1359
56.0756
55.0309
54.0131
53.0361
52.0985
51.2122
50.3776
49.6787
49.2881
50.017
77.5317
75.1051
71.157
67.1359
63.9585
61.7592
60.3404
59.2571
58.2068
57.1499
56.0851
55.0394
54.0172
53.0419
52.1025
51.222
50.3912
49.7076
49.3461
50.1257
77.5273
75.1098
71.1572
67.1381
63.9583
61.7605
60.3392
59.2587
58.2071
57.1524
56.0862
55.043
54.0203
53.0485
52.1103
51.2351
50.4084
49.7339
49.3859
50.1851
77.6986
75.1552
71.1012
67.0674
63.9142
61.756
60.3419
59.2543
58.1969
57.1432
56.0795
55.0415
54.0227
53.0556
52.1221
51.2513
50.4301
49.7574
49.4069
50.1954
78.0529
75.2341
70.9863
66.9249
63.8278
61.7459
60.347
59.2429
58.1767
57.1234
56.065
55.0344
54.0232
53.0632
52.1369
51.272
50.4563
49.782
49.4051
50.1501
78.6009
75.3375
70.8029
66.7124
63.7043
61.728
60.3495
59.2217
58.1466
57.0929
56.0426
55.0208
54.0207
53.0699
52.1531
51.2971
50.489
49.8134
49.3881
50.0292
79.3558
75.4523
70.536
66.4306
63.5659
61.6992
60.3417
59.1887
58.1067
57.052
56.0136
55.0005
54.0156
53.0729
52.1698
51.324
50.5303
49.855
49.3833
49.8259
80.3381
75.5501
70.1714
66.0836
63.4137
61.6548
60.3154
59.1438
58.0577
57.003
55.9802
54.9756
54.0088
53.0721
52.1864
51.3488
50.5786
49.9069
49.4093
49.5598
81.5847
75.5779
69.6972
65.6796
63.2446
61.5882
60.2679
59.0878
58.0027
56.9531
55.9468
54.9512
54.0012
53.0689
52.2006
51.3676
50.6255
49.956
49.4658
49.2828
83.1187
75.516
69.1131
65.2578
63.0615
61.5011
60.2065
59.0319
57.9555
56.9148
55.9221
54.9346
53.9961
53.0679
52.211
51.3817
50.6592
49.9934
49.5227
49.1383
85.0816
75.4388
68.5132
64.8838
62.895
61.4222
60.1603
58.9998
57.932
56.8982
55.9128
54.9308
53.9967
53.0715
52.218
51.3921
50.675
50.0151
49.5196
49.0603
88.1898
75.7917
68.3445
64.7703
62.8358
61.3969
60.153
58.9996
57.9341
56.9011
55.9156
54.9334
53.9994
53.074
52.2212
51.3956
50.6786
50.0209
49.521
49.1793
48.1947
48.0371
47.7187
47.3975
47.1444
46.9623
46.8415
46.7608
46.6997
46.6504
46.6067
46.5599
46.509
46.454
46.3937
46.3269
46.2526
46.1653
46.0668
45.9537
45.8322
45.7111
45.5976
45.4939
45.4052
45.3347
45.2831
45.242
45.2042
45.159
45.104
45.0406
44.9771
44.9214
44.8774
44.842
44.8108
44.7725
44.7244
44.6651
44.5991
44.5284
44.4666
44.4208
44.4023
44.4089
44.4443
44.4988
44.568
44.6383
44.6993
44.7371
44.7462
44.7202
44.6625
44.5711
44.458
44.3228
44.1758
44.0067
43.8212
43.6125
43.395
43.1717
42.9613
42.7785
42.6371
42.5507
42.5216
42.5423
42.6079
42.7075
42.835
42.9795
43.1377
43.2971
43.4518
43.5811
43.6796
43.7245
43.721
43.6575
43.5547
43.4037
43.2407
43.0638
42.9016
42.7619
42.6538
42.5916
42.5806
42.6321
42.744
42.9095
43.1226
43.3683
43.6406
43.9193
44.2011
44.4647
44.7156
44.9346
45.1297
45.2728
45.3933
45.4713
45.5388
45.5805
45.6299
45.6571
45.6862
45.7007
45.713
45.7149
45.7124
45.7061
45.6982
45.6903
45.6817
45.6693
45.6569
45.6388
45.6292
45.6137
45.6175
45.6048
45.6265
45.6249
45.6671
45.6995
45.775
45.8476
45.9534
46.0624
46.2027
46.3476
46.519
46.6904
46.8804
47.0666
47.2691
47.4733
47.692
47.9124
48.1453
48.3724
48.6091
48.8419
49.0771
49.309
49.536
49.7543
49.9706
50.1719
50.3696
50.5559
50.7526
50.9272
51.1178
51.2888
51.48
51.6307
51.8077
51.9359
52.0906
52.1862
52.3147
52.3783
52.4719
52.5035
52.5867
52.5985
52.6868
52.7018
52.8258
52.8484
53.0337
53.0681
53.3052
53.3781
53.6407
53.7547
54.0473
54.2168
54.5405
54.77
55.1241
55.3812
55.7555
56.0036
56.36
56.5374
56.7618
56.6778
56.52
55.7326
54.513
51.2757
47.2003
26.8623
48.0048
47.9281
47.7716
47.5138
47.2422
47.0244
46.8847
46.8086
46.7702
46.7437
46.7167
46.6796
46.6335
46.5789
46.5188
46.451
46.3763
46.2914
46.1977
46.0931
45.9819
45.8701
45.7655
45.6695
45.5871
45.5179
45.4634
45.418
45.3782
45.3357
45.2885
45.2346
45.1801
45.1283
45.0842
45.0443
45.0074
44.9658
44.9184
44.8611
44.7994
44.7349
44.6786
44.635
44.6136
44.6137
44.638
44.6798
44.734
44.7887
44.8358
44.8633
44.8673
44.8397
44.7846
44.6971
44.5874
44.4533
44.3049
44.1367
43.9538
43.7539
43.545
43.3347
43.1333
42.9573
42.8166
42.7223
42.679
42.6825
42.7298
42.8103
42.9205
43.048
43.1881
43.3272
43.4589
43.5652
43.6424
43.6713
43.6583
43.5932
43.4938
43.3589
43.2094
43.0548
42.9075
42.7859
42.6897
42.6356
42.6273
42.6764
42.7806
42.933
43.1302
43.3588
43.6137
43.8746
44.1421
44.3967
44.6393
44.8552
45.0433
45.1852
45.304
45.385
45.452
45.494
45.5341
45.5574
45.5745
45.5799
45.5764
45.5607
45.5347
45.504
45.4681
45.4332
45.3981
45.359
45.3276
45.2867
45.2643
45.2311
45.2264
45.2019
45.2135
45.2053
45.2384
45.2635
45.3311
45.3963
45.4976
45.6013
45.7395
45.8793
46.0483
46.216
46.4036
46.5856
46.7885
46.9896
47.2087
47.4243
47.6583
47.879
48.1173
48.3441
48.5819
48.8082
49.0345
49.2463
49.464
49.6551
49.8554
50.0363
50.2408
50.4118
50.6172
50.7903
50.9933
51.1481
51.335
51.4616
51.6164
51.7058
51.8267
51.8728
51.9532
51.9601
52.027
52.0014
52.0768
52.0446
52.1619
52.1349
52.3066
52.3085
52.514
52.5652
52.7925
52.8831
53.1302
53.2697
53.5427
53.7107
54.0169
54.183
54.4896
54.6072
54.8312
54.7946
54.8096
54.3431
53.8176
52.181
50.4573
44.7214
38.9007
20.1797
47.9725
47.965
47.944
47.7343
47.4076
47.1034
46.907
46.8194
46.8042
46.8116
46.813
46.7935
46.7552
46.7009
46.6378
46.566
46.4891
46.4046
46.3144
46.2168
46.1161
46.015
45.9204
45.8332
45.7576
45.6924
45.639
45.5933
45.5539
45.5142
45.4734
45.4277
45.3812
45.3342
45.2913
45.2493
45.2087
45.1647
45.1178
45.0646
45.0089
44.9524
44.9024
44.8632
44.8409
44.8361
44.8501
44.8781
44.9161
44.9537
44.9855
44.9999
44.9953
44.9626
44.9056
44.8192
44.7106
44.5787
44.4305
44.2655
44.0869
43.8967
43.6996
43.5036
43.3165
43.1506
43.016
42.9196
42.8671
42.8566
42.8879
42.9513
43.0445
43.1545
43.2772
43.3962
43.5061
43.5911
43.6467
43.6617
43.6387
43.5759
43.4805
43.3612
43.2256
43.0892
42.9583
42.8491
42.7617
42.71
42.7009
42.7437
42.8362
42.9747
43.155
43.3676
43.6037
43.8502
44.1029
44.3479
44.5818
44.7931
44.975
45.1165
45.2354
45.3211
45.3888
45.4332
45.4684
45.4909
45.5019
45.5029
45.4878
45.4578
45.4127
45.3608
45.3039
45.2419
45.1863
45.121
45.0764
45.0149
44.9854
44.9378
44.9276
44.8983
44.9013
44.8921
44.9163
44.9395
44.9991
45.0605
45.1583
45.2595
45.3956
45.5313
45.6973
45.8607
46.0456
46.2233
46.4266
46.6272
46.849
47.0652
47.2999
47.5193
47.7589
47.9827
48.2231
48.4376
48.6596
48.8603
49.0746
49.2542
49.4557
49.6329
49.8367
50.0086
50.2252
50.4074
50.6162
50.7811
50.9734
51.0988
51.2522
51.3298
51.4429
51.4645
51.5362
51.5185
51.5733
51.5117
51.5791
51.5051
51.6141
51.5571
51.6912
51.6781
51.8317
51.8641
52.0376
52.1016
52.2998
52.3887
52.6208
52.7042
52.9538
53.0105
53.2305
53.1938
53.3105
52.9935
52.8723
51.8565
51.2402
48.4286
46.562
39.446
32.4082
19.6479
48.1308
48.0876
47.9914
47.682
47.2959
46.9858
46.8177
46.778
46.8174
46.8756
46.9168
46.9234
46.8978
46.8455
46.7777
46.6992
46.6165
46.5296
46.4412
46.3496
46.2583
46.168
46.0842
46.0071
45.9399
45.8809
45.8316
45.7883
45.7509
45.7142
45.6781
45.6386
45.5979
45.5548
45.5128
45.4698
45.4279
45.3834
45.3385
45.2901
45.2419
45.1934
45.1506
45.1149
45.0917
45.0805
45.0837
45.0961
45.1162
45.1346
45.149
45.1489
45.1337
45.0949
45.0348
44.9493
44.8428
44.7153
44.5718
44.4136
44.2444
44.0669
43.8855
43.7062
43.5362
43.3838
43.2583
43.1637
43.1063
43.0847
43.1015
43.1483
43.2242
43.3162
43.4194
43.5178
43.6055
43.67
43.7063
43.7094
43.6787
43.6171
43.5266
43.4188
43.2972
43.1751
43.0578
42.9549
42.87
42.8155
42.8013
42.8347
42.9144
43.038
43.2027
43.3984
43.6181
43.8491
44.0897
44.3239
44.55
44.7546
44.9314
45.0709
45.19
45.2801
45.3503
45.3997
45.4367
45.4616
45.4732
45.4707
45.4462
45.4034
45.344
45.2725
45.2019
45.1185
45.0498
44.9653
44.9093
44.8313
44.7959
44.7393
44.7265
44.6936
44.6935
44.6803
44.7022
44.7248
44.7836
44.8478
44.9447
45.0479
45.1828
45.3179
45.4812
45.6404
45.8222
45.996
46.1992
46.3977
46.6212
46.8396
47.0765
47.3005
47.5427
47.7646
48.0044
48.2036
48.4218
48.6051
48.8133
48.9766
49.1802
49.3508
49.5578
49.7303
49.9608
50.1395
50.362
50.5223
50.7306
50.8411
51.005
51.0601
51.1765
51.1645
51.2353
51.1824
51.2323
51.1372
51.2036
51.1063
51.1888
51.1246
51.2079
51.1821
51.2813
51.2862
51.4097
51.4349
51.5907
51.6137
51.7976
51.7825
51.978
51.8747
52.08
51.7659
51.9245
51.1436
51.1123
49.3366
48.7418
45.0589
42.6202
35.9295
28.4063
19.8549
49.608
49.2642
48.2176
47.3498
46.8029
46.5614
46.545
46.6505
46.7979
46.9311
47.0229
47.062
47.0533
47.0062
46.935
46.8496
46.7594
46.6679
46.5787
46.4914
46.4085
46.3294
46.2574
46.1918
46.1347
46.0841
46.041
46.0022
45.9679
45.9344
45.9016
45.8662
45.8297
45.7902
45.7507
45.7093
45.6685
45.6256
45.5832
45.539
45.4961
45.453
45.4141
45.3791
45.3527
45.3334
45.324
45.3201
45.3221
45.3227
45.3204
45.3071
45.2813
45.2373
45.1749
45.0919
44.9901
44.8706
44.7366
44.5902
44.4351
44.2735
44.1105
43.9497
43.7986
43.6619
43.5479
43.4592
43.4015
43.3736
43.3789
43.4122
43.4709
43.5445
43.6257
43.7019
43.767
43.8119
43.832
43.8246
43.7883
43.7257
43.6397
43.5385
43.4265
43.3119
43.2008
43.0979
43.0097
42.948
42.9258
42.9469
43.0145
43.1237
43.2755
43.4564
43.6619
43.8814
44.1106
44.3356
44.5547
44.7528
44.9252
45.063
45.183
45.2773
45.3509
45.4079
45.4481
45.477
45.4891
45.4819
45.4496
45.3932
45.3238
45.238
45.1594
45.0635
44.9848
44.8905
44.8243
44.7429
44.7025
44.6489
44.631
44.599
44.5951
44.581
44.6067
44.6286
44.6959
44.7624
44.8673
44.9723
45.1116
45.2461
45.4128
45.5671
45.75
45.9178
46.1216
46.3126
46.5409
46.7589
47.005
47.2322
47.481
47.6991
47.9386
48.1203
48.3368
48.4969
48.7002
48.8413
49.0466
49.1996
49.4191
49.5836
49.8306
49.9951
50.2381
50.3821
50.609
50.7004
50.8782
50.9073
51.0295
50.9852
51.0534
50.9632
51.0071
50.8887
50.9511
50.852
50.9109
50.8352
50.8899
50.8307
50.8993
50.855
50.9572
50.91
51.0532
50.9661
51.1459
50.9471
51.169
50.7815
51.0548
50.3517
50.577
49.3326
49.2164
47.0254
45.9632
42.3256
39.0826
33.7795
26.6762
20.3514
50.6194
50.1328
48.5027
47.1903
46.4258
46.1721
46.2608
46.5008
46.7646
46.9844
47.1358
47.2133
47.2252
47.1852
47.1114
47.0184
46.919
46.8202
46.7275
46.6419
46.5648
46.4953
46.4344
46.3805
46.334
46.2926
46.2567
46.2233
46.1928
46.1622
46.1321
46.0996
46.0662
46.03
45.9933
45.9544
45.9157
45.8751
45.8351
45.794
45.7542
45.7139
45.6762
45.6402
45.6091
45.582
45.5609
45.5431
45.5287
45.5134
45.4956
45.4702
45.4349
45.386
45.3225
45.2431
45.1483
45.039
44.9173
44.7851
44.6458
44.5022
44.3588
44.2183
44.087
43.9678
43.8676
43.7883
43.7345
43.7055
43.705
43.7298
43.7751
43.832
43.8927
43.9488
43.9936
44.0209
44.027
44.0099
43.9673
43.9015
43.8153
43.7142
43.6039
43.4905
43.38
43.2736
43.179
43.1048
43.0729
43.0821
43.1378
43.2353
43.3769
43.5466
43.7396
43.9502
44.1702
44.3882
44.6012
44.7964
44.9665
45.1054
45.2276
45.3248
45.4034
45.4671
45.5121
45.5419
45.5527
45.5367
45.4968
45.4258
45.3512
45.2574
45.174
45.0739
44.9883
44.8928
44.8222
44.7492
44.7077
44.6639
44.6418
44.6155
44.6071
44.6035
44.6333
44.6687
44.7466
44.8189
44.9357
45.0412
45.1875
45.3201
45.4922
45.6423
45.829
45.9929
46.196
46.3827
46.6192
46.8342
47.0953
47.3244
47.5832
47.7977
48.0329
48.2009
48.4092
48.5476
48.7427
48.8554
49.0657
49.1914
49.4214
49.5715
49.8315
49.9748
50.2441
50.36
50.6117
50.6745
50.8697
50.87
51.0022
50.9149
50.9913
50.8584
50.9141
50.7723
50.8469
50.728
50.8038
50.6828
50.7488
50.6251
50.6998
50.5689
50.686
50.5322
50.6833
50.4565
50.6279
50.2509
50.4382
49.8446
50.0205
49.1232
49.1031
47.7302
47.1707
45.0323
43.4597
40.3263
36.8004
32.8155
26.6943
21.441
51.2318
50.737
48.8361
47.2423
46.2817
45.9436
46.055
46.3753
46.73
47.0288
47.2409
47.3612
47.3976
47.3667
47.2903
47.1888
47.0788
46.9715
46.8735
46.7873
46.7138
46.6518
46.6005
46.5573
46.5212
46.4894
46.4613
46.4344
46.4083
46.3811
46.353
46.3226
46.2908
46.2567
46.2218
46.1851
46.1483
46.1103
46.0724
46.0336
45.9952
45.9563
45.9182
45.8806
45.8451
45.8114
45.7806
45.7516
45.7242
45.696
45.6654
45.6294
45.5863
45.5337
45.4705
45.3954
45.3086
45.2102
45.102
44.9852
44.8631
44.738
44.6136
44.4928
44.38
44.2779
44.1911
44.1224
44.0756
44.0517
44.0519
44.0734
44.1113
44.1555
44.1996
44.2377
44.2657
44.2796
44.2745
44.2478
44.1982
44.1274
44.0368
43.9305
43.8171
43.7014
43.5883
43.4752
43.3712
43.2838
43.2396
43.2393
43.2875
43.3792
43.515
43.6774
43.8634
44.0676
44.2796
44.494
44.7024
44.8958
45.0647
45.2086
45.3285
45.4265
45.5089
45.5746
45.6215
45.6479
45.6575
45.6334
45.5866
45.5045
45.4236
45.3256
45.2389
45.1419
45.0547
44.9684
44.9033
44.8471
44.8121
44.7807
44.7609
44.7427
44.7364
44.7458
44.7847
44.8417
44.9281
45.0204
45.1409
45.2575
45.4049
45.5427
45.7161
45.8714
46.0624
46.2288
46.4336
46.6267
46.8675
47.0858
47.3506
47.5877
47.8517
48.0629
48.2881
48.4462
48.6368
48.7659
48.943
49.0289
49.2381
49.3396
49.5586
49.701
49.9679
50.0886
50.3798
50.4747
50.7339
50.7821
50.9821
50.9781
51.1082
51.0001
51.0607
50.9122
50.9654
50.8306
50.9011
50.7827
50.8528
50.7156
50.7638
50.6043
50.6495
50.4693
50.5298
50.3182
50.3786
50.0832
50.1298
49.6654
49.6916
49.0116
48.9507
48.0485
47.7332
46.3666
45.558
43.5304
41.8052
39.2835
35.9204
32.8267
27.7693
23.099
51.597
51.1352
49.1383
47.3936
46.2987
45.8569
45.9343
46.2864
46.701
47.0623
47.3269
47.4878
47.5495
47.5298
47.4529
47.3451
47.2265
47.1119
47.0093
46.9223
46.8515
46.7957
46.7522
46.7186
46.6916
46.669
46.6483
46.6279
46.6064
46.5829
46.5571
46.5288
46.4982
46.4657
46.4319
46.3969
46.3613
46.3248
46.2878
46.2499
46.2116
46.1727
46.1334
46.094
46.0545
46.0159
45.9777
45.9404
45.9028
45.8647
45.8245
45.7813
45.7331
45.6791
45.6177
45.5482
45.4701
45.3836
45.2891
45.1884
45.0827
44.9749
44.8674
44.7641
44.6675
44.5816
44.5089
44.4529
44.4155
44.3993
44.4025
44.4236
44.4556
44.4903
44.5209
44.5456
44.5606
44.5654
44.5529
44.5191
44.4626
44.3852
44.2872
44.1733
44.0545
43.9335
43.8177
43.6985
43.5853
43.4892
43.4357
43.4306
43.4759
43.5673
43.6979
43.8551
44.0355
44.234
44.4421
44.6545
44.863
45.0584
45.2263
45.371
45.4851
45.584
45.6652
45.726
45.7689
45.7886
45.7947
45.7674
45.7135
45.6264
45.5373
45.4419
45.3569
45.2704
45.1922
45.1245
45.0737
45.0397
45.0187
45.0052
44.9954
44.9903
44.9948
45.0221
45.0767
45.1529
45.2514
45.3577
45.4809
45.6143
45.7636
45.9136
46.0882
46.2565
46.4517
46.6306
46.8375
47.043
47.2859
47.5085
47.7785
48.0156
48.2802
48.4866
48.7089
48.8475
49.0183
49.1494
49.3046
49.3793
49.5792
49.6506
49.8571
49.9774
50.2463
50.3504
50.6449
50.7463
50.9958
51.0489
51.2544
51.2585
51.3845
51.2581
51.2862
51.1432
51.1722
51.0621
51.1255
51.019
51.0833
50.9367
50.9713
50.7835
50.793
50.5712
50.5525
50.2873
50.2367
49.8699
49.7888
49.2176
49.1018
48.3778
48.1497
47.2645
46.8227
45.4686
44.6077
42.7669
41.0164
39.0368
36.0067
33.379
29.2002
24.9707
51.8255
51.3937
49.3704
47.5491
46.373
45.854
45.8892
46.2481
46.698
47.1035
47.4074
47.6002
47.6836
47.6749
47.5993
47.4878
47.3633
47.2441
47.1386
47.0517
46.9831
46.9323
46.8952
46.8693
46.8499
46.835
46.8206
46.806
46.7886
46.7687
46.7451
46.7189
46.6895
46.6584
46.6252
46.5912
46.5557
46.5196
46.482
46.444
46.4046
46.3648
46.3234
46.282
46.2392
46.1966
46.1527
46.1091
46.0643
46.0196
45.9734
45.9261
45.8758
45.8227
45.7648
45.7022
45.6331
45.5584
45.4769
45.3911
45.301
45.2099
45.1185
45.0319
44.9515
44.8823
44.8247
44.7826
44.7557
44.7475
44.7548
44.7761
44.8024
44.8294
44.8494
44.8634
44.8697
44.869
44.8512
44.8132
44.7525
44.6701
44.5644
44.4416
44.3128
44.1851
44.0642
43.9383
43.824
43.7235
43.6687
43.6644
43.7129
43.8048
43.9312
44.0806
44.257
44.4523
44.6619
44.874
45.0862
45.2883
45.4596
45.6016
45.712
45.8073
45.8804
45.9299
45.9612
45.9728
45.9752
45.944
45.8872
45.8019
45.7133
45.626
45.5502
45.4783
45.4179
45.3723
45.3446
45.3365
45.3368
45.3478
45.3549
45.3684
45.3913
45.4358
45.5075
45.6004
45.7141
45.832
45.9642
46.1126
46.2652
46.4258
46.6066
46.7822
46.9849
47.1781
47.3927
47.614
47.8591
48.0887
48.3622
48.5979
48.8688
49.059
49.2951
49.3952
49.555
49.6789
49.8063
49.8793
50.0746
50.1028
50.3156
50.4049
50.6779
50.7669
51.0629
51.1589
51.4208
51.4514
51.6986
51.7116
51.8484
51.656
51.6565
51.5357
51.5579
51.4672
51.5227
51.4286
51.5026
51.343
51.3719
51.1549
51.1406
50.8828
50.8033
50.4696
50.3431
49.8961
49.6636
49.0708
48.8096
48.1988
47.891
47.0212
46.5399
45.1963
44.2702
42.6565
40.9144
39.3023
36.6462
34.2179
30.6789
26.8671
51.9786
51.5618
49.5299
47.6752
46.4609
45.9037
45.9151
46.2746
46.743
47.1724
47.4981
47.708
47.8033
47.8004
47.7256
47.6121
47.4853
47.3647
47.2592
47.174
47.1086
47.0622
47.0306
47.0109
46.9977
46.9887
46.9794
46.9693
46.9555
46.9387
46.9172
46.8929
46.8647
46.8346
46.8018
46.768
46.732
46.6955
46.657
46.6179
46.5768
46.5354
46.4918
46.448
46.4021
46.3563
46.3087
46.2614
46.2126
46.1645
46.1152
46.0663
46.0164
45.9662
45.9135
45.8589
45.7995
45.7363
45.6674
45.596
45.5208
45.4455
45.37
45.3002
45.2363
45.1832
45.1414
45.114
45.0989
45.1005
45.1136
45.1348
45.1557
45.1763
45.1896
45.1955
45.1946
45.1898
45.1701
45.1316
45.069
44.9817
44.87
44.7407
44.6028
44.4639
44.3365
44.2044
44.0925
43.9924
43.9434
43.9424
44.0012
44.0962
44.2222
44.3654
44.5425
44.7364
44.9463
45.1578
45.3784
45.5887
45.7666
45.9043
46.0087
46.0928
46.1528
46.1876
46.2067
46.2117
46.2114
46.179
46.1257
46.0475
45.9677
45.8951
45.8356
45.7844
45.7463
45.7248
45.7258
45.7449
45.7753
45.8129
45.845
45.8819
45.9284
45.9872
46.0743
46.177
46.3047
46.4308
46.5777
46.7338
46.8973
47.0629
47.2546
47.4321
47.6519
47.8548
48.0847
48.321
48.5786
48.8133
49.0955
49.32
49.6061
49.7721
50.0228
50.0607
50.2374
50.3252
50.4603
50.5112
50.6952
50.6774
50.9152
50.9705
51.2634
51.3161
51.6527
51.7167
52.0399
51.9991
52.3252
52.3269
52.5147
52.1948
52.2235
52.0914
52.1377
52.0538
52.1435
52.0334
52.1391
51.9423
51.9945
51.7234
51.7261
51.4234
51.3366
50.8993
50.6773
50.1566
49.8876
49.3183
49.0238
48.4256
48.0991
47.2373
46.6735
45.3784
44.3108
42.9326
41.2947
39.8627
37.521
35.1886
32.0915
28.6789
52.062
51.6497
49.6186
47.7641
46.5503
45.9932
46.006
46.368
46.8405
47.273
47.6007
47.8112
47.9064
47.9026
47.8276
47.7149
47.5904
47.4732
47.3719
47.2911
47.2304
47.189
47.1625
47.1477
47.139
47.1339
47.1281
47.1209
47.1095
47.0948
47.0753
47.0525
47.0255
46.9963
46.964
46.9302
46.894
46.8567
46.8172
46.7769
46.7342
46.691
46.6455
46.5996
46.5517
46.5038
46.4542
46.4049
46.3549
46.306
46.2568
46.209
46.1612
46.1149
46.0682
46.022
45.9728
45.9218
45.8666
45.8102
45.7505
45.6913
45.6332
45.5808
45.533
45.4954
45.4699
45.4578
45.4551
45.4655
45.4832
45.5035
45.5207
45.5363
45.5438
45.5446
45.5404
45.5334
45.5139
45.4778
45.4163
45.3268
45.2106
45.0739
44.9289
44.7802
44.6471
44.5118
44.4058
44.3094
44.2767
44.2805
44.3537
44.4525
44.5822
44.7197
44.9035
45.0962
45.3082
45.5159
45.747
45.9618
46.1449
46.2744
46.3688
46.4331
46.4764
46.4958
46.509
46.5114
46.5106
46.4804
46.44
46.3732
46.3163
46.2623
46.2319
46.1986
46.1929
46.1953
46.2302
46.2725
46.3377
46.3975
46.4681
46.5273
46.6057
46.6778
46.7815
46.8835
47.0251
47.1479
47.3111
47.4626
47.6425
47.8092
48.0155
48.1938
48.4352
48.6476
48.9036
49.1504
49.4316
49.6633
49.964
50.1649
50.4834
50.6001
50.8698
50.8254
51.0568
51.0839
51.2609
51.247
51.4483
51.3929
51.6745
51.6816
52.0081
52.0032
52.3882
52.4365
52.8337
52.7391
53.1674
53.1162
53.3417
52.9004
53.0242
52.8449
52.9645
52.8214
52.9721
52.8495
52.9798
52.745
52.8159
52.5042
52.5249
52.1902
52.044
51.5498
51.339
50.8398
50.5257
49.8804
49.5459
48.9403
48.6626
47.7544
47.0097
45.8012
44.6609
43.4772
42.017
40.6078
38.4669
36.2173
33.4306
30.3676
52.07
51.6534
49.6361
47.8167
46.6424
46.1239
46.1637
46.5319
46.9945
47.4089
47.7183
47.9128
47.9955
47.9843
47.9084
47.7995
47.682
47.5728
47.4796
47.4063
47.3523
47.3163
47.2942
47.2826
47.2766
47.2733
47.2692
47.2632
47.2533
47.2399
47.2217
47.2001
47.1744
47.146
47.1143
47.0806
47.0443
47.0067
46.9668
46.9258
46.8824
46.838
46.7913
46.744
46.6949
46.6459
46.5961
46.547
46.4983
46.451
46.4041
46.359
46.3155
46.2747
46.2347
46.1966
46.158
46.1197
46.0794
46.0383
45.995
45.9527
45.9132
45.8787
45.8487
45.8276
45.8186
45.8202
45.8275
45.8432
45.8634
45.8829
45.8967
45.9049
45.9045
45.9004
45.8951
45.8898
45.8753
45.8454
45.789
45.7032
45.5873
45.4466
45.295
45.139
45.0008
44.8674
44.7696
44.6864
44.6769
44.6866
44.776
44.8755
45.0097
45.1381
45.3311
45.522
45.7381
45.9402
46.1848
46.4006
46.5914
46.7099
46.7911
46.8229
46.8547
46.8535
46.8688
46.8695
46.8758
46.8516
46.8336
46.7855
46.7647
46.7326
46.7417
46.7304
46.7666
46.7899
46.8631
46.9268
47.0333
47.1138
47.2191
47.2987
47.4121
47.4965
47.6194
47.7242
47.8689
47.9877
48.1622
48.3092
48.5012
48.6744
48.8892
49.0848
49.3444
49.5657
49.8421
50.0966
50.3945
50.6303
50.9322
51.1091
51.439
51.5385
51.76
51.6852
51.9935
51.9234
52.1662
52.0554
52.2963
52.2105
52.5276
52.5389
52.8736
52.852
53.289
53.3277
53.7586
53.6742
54.1255
54.0682
54.2685
53.7825
53.9674
53.7675
53.9614
53.8239
54.0083
53.8699
54.0017
53.7645
53.8295
53.507
53.4905
53.1224
52.9146
52.4426
52.1952
51.676
51.3009
50.7129
50.4351
49.8062
49.3415
48.401
47.5139
46.4014
45.3286
44.2166
42.8941
41.4365
39.4279
37.2748
34.7194
31.9394
51.9891
51.5606
49.5822
47.8417
46.7497
46.3104
46.3985
46.7695
47.203
47.5769
47.8473
48.0085
48.0666
48.0432
47.9666
47.865
47.7591
47.6625
47.5813
47.5184
47.4728
47.4428
47.4247
47.4151
47.41
47.4069
47.4029
47.397
47.3876
47.3748
47.3576
47.337
47.3124
47.2849
47.2541
47.2211
47.1857
47.1485
47.1091
47.068
47.0244
46.9793
46.9321
46.8843
46.8357
46.7874
46.7397
46.6932
46.6475
46.6032
46.5605
46.5201
46.4823
46.4484
46.417
46.3881
46.3603
46.3339
46.3083
46.2835
46.2574
46.2317
46.2102
46.1934
46.1817
46.1789
46.1859
46.1993
46.2154
46.2361
46.2575
46.2736
46.2815
46.2812
46.2738
46.2664
46.2606
46.2569
46.2493
46.2279
46.1806
46.1035
45.994
45.8547
45.7005
45.5453
45.4073
45.2806
45.1895
45.1266
45.1388
45.1613
45.2627
45.359
45.4906
45.6163
45.8232
46.0091
46.2265
46.4247
46.6863
46.8998
47.101
47.205
47.2743
47.2752
47.2952
47.2771
47.3041
47.3008
47.3225
47.306
47.3156
47.2931
47.316
47.3123
47.3666
47.3867
47.4711
47.5219
47.6392
47.7234
47.8642
47.9602
48.1004
48.1961
48.3437
48.4416
48.5849
48.6871
48.8356
48.9514
49.131
49.2833
49.4903
49.6767
49.901
50.1178
50.3807
50.6145
50.9097
51.1628
51.4591
51.7007
51.9817
52.1586
52.4451
52.5703
52.7153
52.6539
52.9713
52.8455
53.0889
52.9795
53.2759
53.1652
53.4843
53.5351
53.8068
53.8332
54.2938
54.3952
54.8281
54.821
55.1913
55.1861
55.2856
54.804
55.0793
54.8199
55.0942
54.9542
55.1575
55.0821
55.1677
54.9638
54.9562
54.6837
54.6274
54.1797
53.917
53.4912
53.193
52.7145
52.3546
51.871
51.4227
50.7719
50.0918
49.1907
48.2358
47.2187
46.2574
45.1053
43.8467
42.3002
40.4081
38.3484
35.9796
33.4226
51.7681
51.3324
49.4599
47.8726
46.9179
46.5911
46.7275
47.0801
47.4583
47.7675
47.9789
48.0915
48.1176
48.0805
48.0056
47.9154
47.8254
47.7453
47.6791
47.6285
47.5919
47.5677
47.5524
47.5434
47.5376
47.5332
47.5279
47.5209
47.511
47.4979
47.4811
47.461
47.4372
47.4105
47.3812
47.3498
47.3159
47.2802
47.2423
47.2023
47.1596
47.115
47.0682
47.0211
46.975
46.9305
46.8866
46.8435
46.8019
46.7625
46.7251
46.6906
46.66
46.6341
46.6118
46.5934
46.5785
46.5674
46.5583
46.5483
46.5375
46.5291
46.5254
46.5261
46.5331
46.5475
46.5682
46.5915
46.6155
46.641
46.6635
46.6778
46.6807
46.6715
46.6555
46.6436
46.638
46.6387
46.6389
46.6284
46.5952
46.5325
46.4342
46.304
46.1534
46.0063
45.87
45.7552
45.6746
45.6373
45.6592
45.6884
45.7921
45.8857
46.0134
46.1594
46.3834
46.5713
46.7873
46.9918
47.2587
47.4622
47.664
47.7596
47.8233
47.8038
47.8165
47.7922
47.8297
47.8286
47.8669
47.8597
47.8983
47.9063
47.972
48.0044
48.1058
48.1653
48.297
48.3858
48.5422
48.6524
48.8191
48.9319
49.0996
49.2117
49.3858
49.502
49.6604
49.7652
49.9157
50.0337
50.2208
50.3804
50.6045
50.8073
51.044
51.2832
51.5331
51.781
52.0659
52.3255
52.6059
52.8611
53.0885
53.2729
53.5189
53.6541
53.745
53.8119
54.0089
53.8886
54.0733
54.0248
54.2973
54.2485
54.5287
54.6689
54.8086
54.9535
55.3898
55.5341
55.9764
56.1244
56.3673
56.4097
56.4604
56.0204
56.274
56.101
56.3262
56.1699
56.4045
56.422
56.4636
56.2826
56.2049
55.9159
55.7902
55.3177
55.0314
54.6797
54.2835
53.9455
53.4895
53.0326
52.4733
51.8905
50.8891
50.1395
49.1061
48.24
47.3186
46.094
44.8338
43.1921
41.3993
39.4144
37.1948
34.8081
51.2935
50.881
49.2748
47.9643
47.2168
47.0067
47.1573
47.4515
47.7412
47.9618
48.0979
48.1549
48.149
48.1013
48.0318
47.9561
47.8843
47.8221
47.7713
47.7323
47.7035
47.6832
47.6689
47.6589
47.6511
47.6441
47.6367
47.628
47.617
47.6033
47.5865
47.5667
47.5438
47.5184
47.4907
47.4611
47.4296
47.3964
47.3611
47.3233
47.2826
47.2403
47.1969
47.1532
47.1104
47.0702
47.033
46.9972
46.9617
46.9273
46.8955
46.8684
46.8472
46.831
46.8189
46.8126
46.8115
46.815
46.8223
46.8306
46.8386
46.8471
46.8591
46.8763
46.8991
46.9266
46.9578
46.9901
47.0217
47.0515
47.0748
47.0866
47.0843
47.0678
47.0437
47.0253
47.0197
47.0256
47.0354
47.0381
47.0224
46.9792
46.8979
46.7822
46.645
46.5146
46.3835
46.2884
46.2177
46.1989
46.2227
46.2644
46.364
46.4505
46.5792
46.7628
46.9986
47.1938
47.4057
47.6328
47.8864
48.0825
48.2731
48.3686
48.4288
48.417
48.4176
48.4005
48.4433
48.4592
48.5125
48.5271
48.5852
48.6259
48.7249
48.8089
48.9451
49.0595
49.2227
49.3618
49.5367
49.6818
49.8635
50.0003
50.183
50.3185
50.5048
50.64
50.8165
50.9257
51.0887
51.2193
51.4088
51.5886
51.818
52.0319
52.2754
52.5169
52.7533
53.0133
53.2783
53.5389
53.8135
54.0849
54.2615
54.4588
54.639
54.7641
54.8872
55.0255
55.076
55.1051
55.1515
55.2306
55.4433
55.4313
55.6323
55.8244
55.932
56.2289
56.4686
56.8337
57.2473
57.3977
57.596
57.6981
57.6693
57.4044
57.6079
57.5139
57.6179
57.5404
57.7132
57.812
57.7373
57.6328
57.4802
57.2214
56.9961
56.5747
56.2363
55.9079
55.4422
55.2264
54.6881
54.2675
53.4746
52.9886
51.7813
51.2085
50.121
49.4199
48.4312
47.1631
45.8577
44.1417
42.4184
40.4789
38.3762
36.1191
50.5295
50.2097
49.0782
48.1682
47.6667
47.5424
47.65
47.8366
48.0076
48.1262
48.1861
48.1942
48.1643
48.1123
48.0515
47.991
47.9362
47.8895
47.8512
47.8207
47.7967
47.778
47.7632
47.7512
47.7409
47.7315
47.722
47.7117
47.6999
47.6858
47.6689
47.6493
47.6273
47.6031
47.5769
47.5498
47.5221
47.4929
47.4611
47.4267
47.39
47.3513
47.3123
47.2746
47.2385
47.2046
47.1742
47.1473
47.1217
47.0957
47.0717
47.0545
47.0454
47.042
47.0429
47.0494
47.0624
47.0809
47.1019
47.1229
47.1455
47.1712
47.2001
47.2327
47.2684
47.3056
47.3435
47.3809
47.4171
47.4497
47.4728
47.4825
47.4761
47.4546
47.4253
47.4025
47.3973
47.4072
47.4232
47.435
47.4332
47.4089
47.3494
47.2554
47.1385
47.0319
46.9091
46.8459
46.79
46.7873
46.8085
46.8724
46.9595
47.0564
47.1987
47.4043
47.63
47.8403
48.0612
48.3128
48.5436
48.7441
48.9129
49.0194
49.0713
49.0839
49.0778
49.0894
49.1265
49.1743
49.2326
49.2882
49.3554
49.4406
49.5544
49.695
49.8557
50.0276
50.2072
50.393
50.5676
50.7523
50.9277
51.0934
51.2743
51.4456
51.6312
51.8108
51.9846
52.1313
52.2885
52.4555
52.6353
52.8463
53.0617
53.3009
53.5293
53.78
54.0027
54.2723
54.5072
54.7746
55.0232
55.2839
55.4427
55.6842
55.766
55.9603
55.9984
56.1729
56.1936
56.3144
56.3119
56.5124
56.5503
56.6482
56.7782
57.0088
57.0507
57.5232
57.6942
58.278
58.3977
58.6417
58.8042
58.9774
58.9647
58.9681
58.9763
58.9347
58.8983
58.9768
59.0157
59.0979
58.9811
58.9338
58.637
58.5864
58.0977
57.8661
57.4658
57.1797
56.7016
56.5639
55.8498
55.38
54.4955
54.0808
52.7935
52.3733
51.2075
50.613
49.4675
48.2452
46.8777
45.1389
43.4514
41.53
39.5197
37.3528
49.6958
49.5284
48.9751
48.5016
48.2167
48.1079
48.112
48.1617
48.2112
48.2389
48.2383
48.2125
48.1696
48.1187
48.0669
48.0189
47.9766
47.9403
47.9096
47.8836
47.8615
47.8428
47.8268
47.813
47.8009
47.7896
47.7786
47.767
47.7544
47.7399
47.723
47.7034
47.682
47.6598
47.6369
47.6123
47.5871
47.5618
47.5354
47.5058
47.4736
47.4415
47.4102
47.3792
47.3503
47.3266
47.3078
47.2915
47.2762
47.2618
47.2514
47.2481
47.2517
47.2606
47.2752
47.2958
47.3216
47.3514
47.3846
47.4191
47.4531
47.4874
47.5243
47.5649
47.6071
47.649
47.6903
47.7303
47.7676
47.7984
47.8186
47.8278
47.8243
47.8065
47.7788
47.7557
47.7496
47.7589
47.7779
47.7958
47.804
47.7941
47.7535
47.6835
47.5952
47.527
47.4308
47.3988
47.3537
47.3727
47.4009
47.4944