/*--------------------------------*- C++ -*----------------------------------*\
| =========                 |                                                 |
| \\      /  F ield         | OpenFOAM: The Open Source CFD Toolbox           |
|  \\    /   O peration     | Version:  2.4.0                                 |
|   \\  /    A nd           | Web:      www.OpenFOAM.org                      |
|    \\/     M anipulation  |                                                 |
\*---------------------------------------------------------------------------*/
FoamFile
{
    version     2.0;
    format      ascii;
    class       volVectorField;
    location    "1.02";
    object      UMean;
}
// * * * * * * * * * * * * * * * * * * * * * * * * * * * * * * * * * * * * * //

dimensions      [0 1 -1 0 0 0 0];

internalField   nonuniform List<vector> 
8800
(
(8.09308 0.387118 0)
(5.45937 0.24242 0)
(3.92859 0.0430446 0)
(3.16908 -0.0152081 0)
(2.82322 -0.018303 0)
(2.61009 -0.0108927 0)
(2.51255 -0.0058223 0)
(2.39297 -0.00202469 0)
(2.35347 -0.00175849 0)
(2.26378 -0.000196774 0)
(2.25639 -0.00103614 0)
(2.18046 0.000437767 0)
(2.18813 -0.000573918 0)
(2.11404 0.00103915 0)
(2.12537 -0.000205392 0)
(2.0494 0.0017117 0)
(2.05722 -7.19504e-05 0)
(1.97518 0.00146703 0)
(2.00035 0.00652791 0)
(1.75032 -0.0555634 0)
(10.085 0.836224 0)
(9.65295 0.865545 0)
(8.89081 0.505236 0)
(8.07707 0.261061 0)
(7.52413 0.137057 0)
(6.99887 0.0818402 0)
(6.74156 0.0527827 0)
(6.39018 0.0405418 0)
(6.2854 0.0283023 0)
(6.01496 0.0246859 0)
(6.0012 0.0168969 0)
(5.76993 0.018508 0)
(5.80661 0.0129049 0)
(5.58874 0.0177272 0)
(5.64732 0.012624 0)
(5.43103 0.0188764 0)
(5.49416 0.0169112 0)
(5.26531 0.0149063 0)
(5.3517 0.0316045 0)
(5.03994 -0.0419497 0)
(10.0751 0.630238 0)
(10.6365 0.860659 0)
(10.8974 0.598987 0)
(10.6586 0.372159 0)
(10.4973 0.253939 0)
(10.0461 0.195639 0)
(9.89206 0.150802 0)
(9.45053 0.12221 0)
(9.38716 0.0910986 0)
(8.98761 0.0764069 0)
(9.01725 0.0553334 0)
(8.65166 0.0532478 0)
(8.74893 0.0388848 0)
(8.39695 0.0446106 0)
(8.53473 0.0337133 0)
(8.18073 0.0428859 0)
(8.33921 0.0385822 0)
(7.96609 0.042492 0)
(8.13828 0.0507549 0)
(7.73872 -0.0313478 0)
(10.0425 0.457019 0)
(10.517 0.702603 0)
(11.2234 0.54369 0)
(11.3102 0.351053 0)
(11.6193 0.259737 0)
(11.3856 0.22673 0)
(11.5632 0.197104 0)
(11.2181 0.175691 0)
(11.3807 0.143309 0)
(10.9912 0.126422 0)
(11.1784 0.099365 0)
(10.7698 0.0946074 0)
(10.9897 0.0739543 0)
(10.5654 0.0795491 0)
(10.8135 0.0615976 0)
(10.371 0.0762129 0)
(10.638 0.0586168 0)
(10.1704 0.086626 0)
(10.4298 0.0575058 0)
(9.93511 0.0905871 0)
(10.1347 0.347062 0)
(10.3118 0.564701 0)
(11.1371 0.459001 0)
(11.2111 0.293649 0)
(11.7471 0.206509 0)
(11.5769 0.192837 0)
(11.9741 0.174538 0)
(11.7214 0.170915 0)
(12.0803 0.139957 0)
(11.7892 0.135601 0)
(12.133 0.103232 0)
(11.8155 0.110929 0)
(12.1494 0.0804732 0)
(11.8094 0.101718 0)
(12.1322 0.0685052 0)
(11.7726 0.104328 0)
(12.0794 0.0632109 0)
(11.7022 0.121335 0)
(11.9687 0.0591022 0)
(11.5476 0.141023 0)
(10.1461 0.251717 0)
(10.2407 0.453895 0)
(10.9717 0.374068 0)
(11.1149 0.248063 0)
(11.5941 0.157899 0)
(11.5448 0.1525 0)
(11.8642 0.137674 0)
(11.7645 0.144379 0)
(12.0391 0.113951 0)
(11.9385 0.116833 0)
(12.1897 0.0846423 0)
(12.0911 0.0962969 0)
(12.3197 0.0679952 0)
(12.2208 0.0897535 0)
(12.4243 0.0629498 0)
(12.324 0.0930599 0)
(12.4985 0.0654716 0)
(12.3947 0.103531 0)
(12.5193 0.0643165 0)
(12.3449 0.0649176 0)
(10.0352 0.170945 0)
(10.2885 0.356095 0)
(10.759 0.283696 0)
(11.1105 0.208303 0)
(11.3891 0.112684 0)
(11.5554 0.119169 0)
(11.6705 0.0990242 0)
(11.7721 0.119663 0)
(11.8479 0.082261 0)
(11.9502 0.0976181 0)
(12.0123 0.0582134 0)
(12.1176 0.0806162 0)
(12.1657 0.0447746 0)
(12.2709 0.0758409 0)
(12.3036 0.0417033 0)
(12.4065 0.0795542 0)
(12.4231 0.0436796 0)
(12.5176 0.0848101 0)
(12.4971 0.032739 0)
(12.4957 0.0283841 0)
(9.95472 0.110412 0)
(10.3141 0.255197 0)
(10.6201 0.199376 0)
(11.0862 0.156147 0)
(11.2573 0.0767673 0)
(11.5396 0.0834981 0)
(11.5506 0.0678346 0)
(11.7485 0.0880968 0)
(11.7254 0.0571913 0)
(11.9191 0.0717358 0)
(11.8912 0.0390356 0)
(12.0825 0.0588385 0)
(12.0479 0.0290056 0)
(12.234 0.0552784 0)
(12.1895 0.0267962 0)
(12.3697 0.0571665 0)
(12.3135 0.0261274 0)
(12.4805 0.05592 0)
(12.389 0.00915851 0)
(12.4476 0.00478999 0)
(9.90979 0.059425 0)
(10.326 0.156397 0)
(10.5331 0.116507 0)
(11.0676 0.0991653 0)
(11.1725 0.0421172 0)
(11.529 0.0536596 0)
(11.4725 0.0369885 0)
(11.7354 0.0580701 0)
(11.6428 0.0314319 0)
(11.9036 0.0476786 0)
(11.8069 0.0197561 0)
(12.0679 0.0393403 0)
(11.9639 0.013275 0)
(12.22 0.0367043 0)
(12.1067 0.0107261 0)
(12.3565 0.0360367 0)
(12.2313 0.00682931 0)
(12.4684 0.0294151 0)
(12.3028 -0.0111337 0)
(12.4293 -0.0132754 0)
(9.90051 0.0161634 0)
(10.3212 0.0571689 0)
(10.506 0.0350691 0)
(11.049 0.0378929 0)
(11.1508 0.00978335 0)
(11.5153 0.0226384 0)
(11.4592 0.00767371 0)
(11.7209 0.0249122 0)
(11.6315 0.00564682 0)
(11.8887 0.021301 0)
(11.7989 0.000912262 0)
(12.0552 0.0179633 0)
(11.9588 -0.00215727 0)
(12.2108 0.0158871 0)
(12.104 -0.00531699 0)
(12.3505 0.0123164 0)
(12.2319 -0.0120861 0)
(12.4641 0.00242906 0)
(12.305 -0.0294139 0)
(12.4235 -0.0296299 0)
(9.93537 -0.0261789 0)
(10.2894 -0.0411126 0)
(10.5419 -0.0481189 0)
(11.0219 -0.0234753 0)
(11.1878 -0.0236994 0)
(11.4922 -0.00796782 0)
(11.4978 -0.0222539 0)
(11.7008 -0.00887627 0)
(11.6727 -0.0209204 0)
(11.8709 -0.00562692 0)
(11.8431 -0.0181833 0)
(12.0387 -0.00365051 0)
(12.0061 -0.0183672 0)
(12.1952 -0.00520868 0)
(12.1543 -0.0222801 0)
(12.3355 -0.0116045 0)
(12.2839 -0.0313862 0)
(12.4492 -0.0244385 0)
(12.3578 -0.0475572 0)
(12.406 -0.0448021 0)
(9.97788 -0.0693623 0)
(10.2613 -0.141931 0)
(10.6045 -0.129254 0)
(11.0091 -0.0862419 0)
(11.2496 -0.0552873 0)
(11.4747 -0.0404321 0)
(11.5561 -0.0504474 0)
(11.6842 -0.0438835 0)
(11.7328 -0.0454849 0)
(11.8558 -0.0338713 0)
(11.9031 -0.0357019 0)
(12.0233 -0.0267667 0)
(12.0656 -0.0326245 0)
(12.1786 -0.0276436 0)
(12.2134 -0.0373053 0)
(12.3172 -0.0362968 0)
(12.3422 -0.0494968 0)
(12.4289 -0.052228 0)
(12.415 -0.0657312 0)
(12.3853 -0.0599278 0)
(9.99772 -0.11922 0)
(10.2685 -0.243937 0)
(10.6675 -0.210876 0)
(11.0411 -0.146525 0)
(11.3099 -0.0880484 0)
(11.4954 -0.0734279 0)
(11.6077 -0.0795653 0)
(11.7055 -0.0774861 0)
(11.7863 -0.0698199 0)
(11.8778 -0.0612253 0)
(11.956 -0.0537314 0)
(12.0439 -0.0492495 0)
(12.1168 -0.0474177 0)
(12.1978 -0.0488307 0)
(12.2627 -0.0526537 0)
(12.3348 -0.059271 0)
(12.3898 -0.0684119 0)
(12.4457 -0.07906 0)
(12.4647 -0.0882599 0)
(12.4073 -0.0752263 0)
(10.0202 -0.178729 0)
(10.2908 -0.347408 0)
(10.7565 -0.293514 0)
(11.1026 -0.20053 0)
(11.3942 -0.122505 0)
(11.5438 -0.110643 0)
(11.6802 -0.109247 0)
(11.7575 -0.111444 0)
(11.8613 -0.0933818 0)
(11.9337 -0.0895997 0)
(12.0297 -0.071342 0)
(12.1002 -0.0736046 0)
(12.1874 -0.0615823 0)
(12.2526 -0.0720108 0)
(12.3289 -0.0661795 0)
(12.3869 -0.0834474 0)
(12.4497 -0.0847439 0)
(12.4933 -0.108197 0)
(12.5195 -0.110841 0)
(12.458 -0.103484 0)
(10.0575 -0.254833 0)
(10.314 -0.450624 0)
(10.8951 -0.378478 0)
(11.175 -0.245142 0)
(11.525 -0.162417 0)
(11.5988 -0.149008 0)
(11.799 -0.142321 0)
(11.8136 -0.141882 0)
(11.9765 -0.119272 0)
(11.9839 -0.115009 0)
(12.1296 -0.091304 0)
(12.1337 -0.0961676 0)
(12.2612 -0.077586 0)
(12.2599 -0.0935436 0)
(12.3653 -0.0790189 0)
(12.3566 -0.105149 0)
(12.4338 -0.0962171 0)
(12.4111 -0.134372 0)
(12.4357 -0.127182 0)
(12.3227 -0.141537 0)
(10.0537 -0.349341 0)
(10.3897 -0.561936 0)
(11.05 -0.462022 0)
(11.2919 -0.290844 0)
(11.6575 -0.21027 0)
(11.6583 -0.18925 0)
(11.8805 -0.178851 0)
(11.804 -0.167696 0)
(11.9813 -0.145436 0)
(11.8731 -0.132476 0)
(12.0275 -0.110629 0)
(11.9003 -0.108559 0)
(12.0346 -0.0915057 0)
(11.8926 -0.101856 0)
(12.0023 -0.0868953 0)
(11.8478 -0.109992 0)
(11.9221 -0.0977261 0)
(11.7528 -0.139571 0)
(11.7588 -0.127299 0)
(11.5255 -0.163364 0)
(10.0064 -0.458122 0)
(10.5566 -0.701374 0)
(11.1718 -0.544751 0)
(11.3619 -0.350194 0)
(11.5606 -0.261603 0)
(11.4431 -0.225392 0)
(11.497 -0.199359 0)
(11.2803 -0.174541 0)
(11.3063 -0.146237 0)
(11.0566 -0.125672 0)
(11.0944 -0.103242 0)
(10.836 -0.0952881 0)
(10.8927 -0.0795649 0)
(10.6281 -0.0841786 0)
(10.695 -0.070664 0)
(10.4205 -0.089105 0)
(10.4794 -0.0755674 0)
(10.1864 -0.117568 0)
(10.192 -0.0975785 0)
(9.85171 -0.160323 0)
(10.0604 -0.631649 0)
(10.653 -0.859293 0)
(10.8695 -0.599576 0)
(10.687 -0.37148 0)
(10.4626 -0.255305 0)
(10.0808 -0.194704 0)
(9.84987 -0.152562 0)
(9.48911 -0.121086 0)
(9.33837 -0.0934699 0)
(9.02709 -0.0753357 0)
(8.96189 -0.058631 0)
(8.68811 -0.0528501 0)
(8.68484 -0.0437477 0)
(8.42326 -0.046641 0)
(8.45447 -0.0411043 0)
(8.18415 -0.0513634 0)
(8.2231 -0.0491751 0)
(7.92317 -0.0710494 0)
(7.92411 -0.0721027 0)
(7.57359 -0.0898051 0)
(10.0806 -0.836943 0)
(9.65692 -0.864704 0)
(8.87845 -0.505386 0)
(8.0907 -0.260725 0)
(7.50655 -0.137863 0)
(7.01684 -0.0814618 0)
(6.71781 -0.053624 0)
(6.41055 -0.0400278 0)
(6.2572 -0.0294201 0)
(6.03484 -0.0242335 0)
(5.9689 -0.0184563 0)
(5.78514 -0.0184441 0)
(5.76895 -0.0152518 0)
(5.59179 -0.018867 0)
(5.59836 -0.0164718 0)
(5.40803 -0.0234486 0)
(5.41668 -0.0225254 0)
(5.19164 -0.0333979 0)
(5.17895 -0.0389178 0)
(4.88052 -0.0204997 0)
(8.0922 -0.387331 0)
(5.45861 -0.242145 0)
(3.92612 -0.043182 0)
(3.17325 0.0152531 0)
(2.81844 0.0180772 0)
(2.61512 0.0110442 0)
(2.50483 0.00561472 0)
(2.39859 0.00222396 0)
(2.34394 0.00151578 0)
(2.26882 0.000377244 0)
(2.24462 0.000737381 0)
(2.18278 -0.000298117 0)
(2.17299 0.00020728 0)
(2.1093 -0.00116272 0)
(2.10268 -0.000348274 0)
(2.02888 -0.00236453 0)
(2.01594 -0.00118595 0)
(1.92308 -0.00390676 0)
(1.88436 -0.00436392 0)
(1.73083 0.0115412 0)
(2.23252 -0.102149 0)
(2.31618 -0.0187695 0)
(2.55957 -0.0135723 0)
(2.68365 -0.0302717 0)
(2.91286 -0.0517094 0)
(2.99298 -0.0559285 0)
(3.17778 -0.0590392 0)
(3.20991 -0.0502901 0)
(3.35733 -0.053105 0)
(3.3655 -0.0530774 0)
(3.5057 -0.0612081 0)
(3.50495 -0.0637016 0)
(3.64861 -0.0745415 0)
(3.6455 -0.0778468 0)
(3.79052 -0.0886435 0)
(3.78502 -0.0919094 0)
(3.93518 -0.10196 0)
(3.92951 -0.104822 0)
(4.0936 -0.114159 0)
(4.09075 -0.114645 0)
(4.26302 -0.126839 0)
(4.25575 -0.132333 0)
(4.43002 -0.148222 0)
(4.41398 -0.156135 0)
(4.58798 -0.174981 0)
(4.56136 -0.185346 0)
(4.73429 -0.205039 0)
(4.69691 -0.212803 0)
(4.8708 -0.228991 0)
(4.83002 -0.233573 0)
(5.01021 -0.250382 0)
(4.97423 -0.257067 0)
(5.16301 -0.27722 0)
(5.12919 -0.285829 0)
(5.31964 -0.30638 0)
(5.28183 -0.313962 0)
(5.47196 -0.333281 0)
(5.42961 -0.338568 0)
(5.62188 -0.358047 0)
(5.57484 -0.363632 0)
(5.77082 -0.385105 0)
(5.71593 -0.393356 0)
(5.91625 -0.419784 0)
(5.84875 -0.431774 0)
(6.0511 -0.460715 0)
(5.96758 -0.472269 0)
(6.17171 -0.500036 0)
(6.07725 -0.506521 0)
(6.2844 -0.531067 0)
(6.18775 -0.531261 0)
(6.39744 -0.552688 0)
(6.30489 -0.54716 0)
(6.51784 -0.566434 0)
(6.42998 -0.55802 0)
(6.64813 -0.577643 0)
(6.5596 -0.568876 0)
(6.78728 -0.590103 0)
(6.69073 -0.580817 0)
(6.9304 -0.602731 0)
(6.81975 -0.593018 0)
(7.07565 -0.618576 0)
(6.95742 -0.612309 0)
(7.2289 -0.645547 0)
(7.11523 -0.644325 0)
(7.38735 -0.685941 0)
(7.28213 -0.688753 0)
(7.5357 -0.733347 0)
(7.42862 -0.736963 0)
(7.66111 -0.777585 0)
(7.548 -0.778852 0)
(7.77023 -0.820364 0)
(7.65311 -0.816389 0)
(7.8654 -0.855665 0)
(7.74689 -0.84523 0)
(7.95858 -0.883695 0)
(7.8426 -0.866728 0)
(8.05876 -0.901288 0)
(7.94782 -0.878531 0)
(8.17714 -0.910862 0)
(8.06767 -0.88061 0)
(8.31978 -0.911208 0)
(8.20514 -0.875015 0)
(8.48097 -0.901877 0)
(8.35525 -0.867616 0)
(8.64834 -0.897324 0)
(8.5186 -0.866856 0)
(8.80241 -0.908182 0)
(8.68723 -0.882226 0)
(8.93799 -0.932011 0)
(8.84007 -0.909335 0)
(9.05437 -0.960599 0)
(8.96547 -0.935499 0)
(9.14349 -0.983403 0)
(9.05345 -0.956011 0)
(9.20697 -1.0018 0)
(9.115 -0.967782 0)
(9.25224 -1.00964 0)
(9.15562 -0.969368 0)
(9.28825 -1.01003 0)
(9.19726 -0.968158 0)
(9.33644 -1.01161 0)
(9.25292 -0.965689 0)
(9.40585 -1.01685 0)
(9.32932 -0.963475 0)
(9.48582 -1.01251 0)
(9.4069 -0.946027 0)
(9.5566 -1.00053 0)
(9.45997 -0.930619 0)
(9.60458 -0.990298 0)
(9.48528 -0.912801 0)
(9.62325 -0.974275 0)
(9.48026 -0.891171 0)
(9.59736 -0.947855 0)
(9.44123 -0.858327 0)
(9.54203 -0.913918 0)
(9.40269 -0.821155 0)
(9.49406 -0.875109 0)
(9.38033 -0.781834 0)
(9.45336 -0.833762 0)
(9.35153 -0.73783 0)
(9.41181 -0.785147 0)
(9.3231 -0.689444 0)
(9.38093 -0.737535 0)
(9.30012 -0.641043 0)
(9.35661 -0.691522 0)
(9.26884 -0.595519 0)
(9.33778 -0.642426 0)
(9.22621 -0.540689 0)
(9.31472 -0.580076 0)
(9.18395 -0.475195 0)
(9.28537 -0.510279 0)
(9.1503 -0.407617 0)
(9.24805 -0.445271 0)
(9.12447 -0.34598 0)
(9.21218 -0.390583 0)
(9.10126 -0.292535 0)
(9.1754 -0.336496 0)
(9.07416 -0.236392 0)
(9.13869 -0.274693 0)
(9.04031 -0.17402 0)
(9.09633 -0.215589 0)
(9.00829 -0.120287 0)
(9.04941 -0.154533 0)
(8.97625 -0.0660023 0)
(9.00851 -0.102713 0)
(8.95036 -0.0169764 0)
(8.96015 -0.0398391 0)
(8.91762 0.0483871 0)
(8.9029 0.0238245 0)
(8.88906 0.113483 0)
(8.8443 0.0869705 0)
(8.85608 0.181885 0)
(8.79576 0.162465 0)
(8.82554 0.257481 0)
(8.75449 0.237099 0)
(8.7982 0.343686 0)
(8.7254 0.329187 0)
(8.75493 0.431783 0)
(8.70387 0.420631 0)
(8.72084 0.521544 0)
(8.69093 0.489439 0)
(8.68031 0.592557 0)
(8.67695 0.553477 0)
(8.62094 0.666266 0)
(8.64974 0.61927 0)
(8.53736 0.738697 0)
(8.63268 0.684551 0)
(8.45568 0.807711 0)
(8.59177 0.750946 0)
(8.36245 0.89165 0)
(8.52824 0.815392 0)
(8.23588 0.96422 0)
(8.44451 0.881785 0)
(8.08003 1.05443 0)
(8.35109 0.945972 0)
(7.92933 1.16657 0)
(8.27408 1.02336 0)
(7.77438 1.28076 0)
(8.22876 1.10543 0)
(7.63832 1.41818 0)
(8.17307 1.20932 0)
(7.51834 1.5693 0)
(8.09562 1.33179 0)
(7.40524 1.72777 0)
(7.97403 1.46972 0)
(7.29773 1.90012 0)
(7.8106 1.64554 0)
(7.15848 2.09231 0)
(7.63739 1.87994 0)
(6.97139 2.32014 0)
(7.46271 2.17715 0)
(6.73316 2.61175 0)
(7.21968 2.54832 0)
(6.45695 3.03067 0)
(6.84868 3.02156 0)
(6.13903 3.72757 0)
(6.37733 3.75271 0)
(5.47703 4.86435 0)
(6.48681 5.3994 0)
(4.15226 8.38474 0)
(5.27247 -0.066004 0)
(5.22038 -0.0339137 0)
(5.32504 -0.0483943 0)
(5.33312 -0.080291 0)
(5.50517 -0.112926 0)
(5.52534 -0.121143 0)
(5.67969 -0.122498 0)
(5.65883 -0.111062 0)
(5.78204 -0.108595 0)
(5.73453 -0.104359 0)
(5.85523 -0.112131 0)
(5.80457 -0.115322 0)
(5.93724 -0.127611 0)
(5.88951 -0.131747 0)
(6.03354 -0.143349 0)
(5.98557 -0.14634 0)
(6.13859 -0.157419 0)
(6.08802 -0.159454 0)
(6.24885 -0.171189 0)
(6.1965 -0.173096 0)
(6.36427 -0.186437 0)
(6.30867 -0.190986 0)
(6.48003 -0.207119 0)
(6.41781 -0.213397 0)
(6.59213 -0.231713 0)
(6.52273 -0.239143 0)
(6.70102 -0.258055 0)
(6.62521 -0.264235 0)
(6.80786 -0.282571 0)
(6.72719 -0.287689 0)
(6.91628 -0.306818 0)
(6.83296 -0.312722 0)
(7.02933 -0.334407 0)
(6.94227 -0.341029 0)
(7.14266 -0.363427 0)
(7.04901 -0.367869 0)
(7.25105 -0.389228 0)
(7.15041 -0.391181 0)
(7.35435 -0.412773 0)
(7.24741 -0.414729 0)
(7.45488 -0.438641 0)
(7.34249 -0.442539 0)
(7.55415 -0.470114 0)
(7.43662 -0.476299 0)
(7.65113 -0.506388 0)
(7.52839 -0.512238 0)
(7.74306 -0.542442 0)
(7.61636 -0.545374 0)
(7.82986 -0.573546 0)
(7.70063 -0.572115 0)
(7.9146 -0.596957 0)
(7.78217 -0.59079 0)
(8.00015 -0.613179 0)
(7.86208 -0.603536 0)
(8.08785 -0.625638 0)
(7.94157 -0.614366 0)
(8.17823 -0.63781 0)
(8.0232 -0.626893 0)
(8.27208 -0.652942 0)
(8.11134 -0.643479 0)
(8.37008 -0.67359 0)
(8.20872 -0.667262 0)
(8.47107 -0.703507 0)
(8.31373 -0.700613 0)
(8.57054 -0.741915 0)
(8.42132 -0.740398 0)
(8.66412 -0.781935 0)
(8.52165 -0.78043 0)
(8.75235 -0.822694 0)
(8.6135 -0.821418 0)
(8.8366 -0.861032 0)
(8.69435 -0.854239 0)
(8.91587 -0.892255 0)
(8.76946 -0.881278 0)
(8.99293 -0.920537 0)
(8.84421 -0.903227 0)
(9.07221 -0.941927 0)
(8.92197 -0.91846 0)
(9.15677 -0.955576 0)
(9.00343 -0.926976 0)
(9.25223 -0.961551 0)
(9.09366 -0.925956 0)
(9.35477 -0.960235 0)
(9.19821 -0.920428 0)
(9.45556 -0.956426 0)
(9.31282 -0.919266 0)
(9.55164 -0.963509 0)
(9.42799 -0.930358 0)
(9.63517 -0.980402 0)
(9.52733 -0.950734 0)
(9.70541 -0.999446 0)
(9.60357 -0.965401 0)
(9.75281 -1.01172 0)
(9.64846 -0.974952 0)
(9.77649 -1.01906 0)
(9.66709 -0.977079 0)
(9.78526 -1.02007 0)
(9.67299 -0.975942 0)
(9.79654 -1.02273 0)
(9.68646 -0.979487 0)
(9.81793 -1.03324 0)
(9.71508 -0.986083 0)
(9.8533 -1.04615 0)
(9.74693 -0.986664 0)
(9.88903 -1.03585 0)
(9.77199 -0.965803 0)
(9.913 -1.01413 0)
(9.78222 -0.940504 0)
(9.9115 -0.995643 0)
(9.7669 -0.913813 0)
(9.87817 -0.964347 0)
(9.71817 -0.871021 0)
(9.81119 -0.920877 0)
(9.6453 -0.830121 0)
(9.73982 -0.888091 0)
(9.58507 -0.800461 0)
(9.68122 -0.85928 0)
(9.53923 -0.765273 0)
(9.63321 -0.817257 0)
(9.49144 -0.721581 0)
(9.59208 -0.771071 0)
(9.44241 -0.676342 0)
(9.55993 -0.726263 0)
(9.39862 -0.625442 0)
(9.53348 -0.679511 0)
(9.34736 -0.571623 0)
(9.50491 -0.628886 0)
(9.28807 -0.514432 0)
(9.47006 -0.565293 0)
(9.22758 -0.448942 0)
(9.42645 -0.500787 0)
(9.17113 -0.383728 0)
(9.37896 -0.437752 0)
(9.12452 -0.324413 0)
(9.33232 -0.380932 0)
(9.07191 -0.26899 0)
(9.28062 -0.325828 0)
(9.02117 -0.21565 0)
(9.22667 -0.26429 0)
(8.97694 -0.157619 0)
(9.18289 -0.206331 0)
(8.93327 -0.099488 0)
(9.13695 -0.144585 0)
(8.88883 -0.0413628 0)
(9.09944 -0.0956656 0)
(8.8458 0.0140454 0)
(9.05622 -0.0315162 0)
(8.80917 0.0769941 0)
(9.01882 0.0313151 0)
(8.78721 0.138304 0)
(8.97667 0.0941013 0)
(8.76353 0.204173 0)
(8.93149 0.161257 0)
(8.73894 0.278148 0)
(8.89516 0.235896 0)
(8.7087 0.364749 0)
(8.87303 0.322782 0)
(8.67668 0.457285 0)
(8.86741 0.406526 0)
(8.65686 0.549674 0)
(8.87226 0.470939 0)
(8.62343 0.629956 0)
(8.86659 0.543131 0)
(8.58129 0.707287 0)
(8.85478 0.605145 0)
(8.54603 0.778684 0)
(8.83553 0.65916 0)
(8.50624 0.86941 0)
(8.7838 0.727453 0)
(8.44612 0.970142 0)
(8.74003 0.793541 0)
(8.34608 1.0634 0)
(8.68678 0.862833 0)
(8.21378 1.16642 0)
(8.62151 0.924393 0)
(8.07147 1.26974 0)
(8.58866 0.987408 0)
(7.93528 1.38202 0)
(8.56091 1.06359 0)
(7.82045 1.51648 0)
(8.52542 1.17814 0)
(7.73171 1.66703 0)
(8.46826 1.31439 0)
(7.6467 1.82169 0)
(8.38843 1.47222 0)
(7.54041 1.98261 0)
(8.31069 1.66557 0)
(7.3968 2.17554 0)
(8.21522 1.89784 0)
(7.25246 2.43977 0)
(8.07148 2.17689 0)
(7.14782 2.80896 0)
(7.85451 2.5199 0)
(7.0239 3.31427 0)
(7.61081 3.01305 0)
(6.74534 4.0144 0)
(7.64463 3.84247 0)
(6.09041 5.28241 0)
(8.55918 4.69696 0)
(6.57742 8.85114 0)
(7.92919 -0.0956959 0)
(7.85373 -0.0977589 0)
(7.95519 -0.11959 0)
(7.92859 -0.133841 0)
(8.09314 -0.146285 0)
(8.07718 -0.139585 0)
(8.22004 -0.135538 0)
(8.15715 -0.121949 0)
(8.26777 -0.121106 0)
(8.17884 -0.116576 0)
(8.28974 -0.126914 0)
(8.20174 -0.130927 0)
(8.3274 -0.146977 0)
(8.24458 -0.152825 0)
(8.3831 -0.168965 0)
(8.30157 -0.172947 0)
(8.44875 -0.1876 0)
(8.36479 -0.189524 0)
(8.51692 -0.203636 0)
(8.42917 -0.205247 0)
(8.58526 -0.220726 0)
(8.49399 -0.223921 0)
(8.65376 -0.24165 0)
(8.5586 -0.24621 0)
(8.72219 -0.265689 0)
(8.62344 -0.270888 0)
(8.79113 -0.291067 0)
(8.68887 -0.295748 0)
(8.86025 -0.315935 0)
(8.75299 -0.319964 0)
(8.92775 -0.340886 0)
(8.81467 -0.345335 0)
(8.99318 -0.368004 0)
(8.87304 -0.37275 0)
(9.05489 -0.396098 0)
(8.92684 -0.399247 0)
(9.11261 -0.421776 0)
(8.97812 -0.422554 0)
(9.16848 -0.444997 0)
(9.02989 -0.444879 0)
(9.22474 -0.46947 0)
(9.0855 -0.470498 0)
(9.28294 -0.49897 0)
(9.14463 -0.501809 0)
(9.34148 -0.533391 0)
(9.20345 -0.536529 0)
(9.397 -0.56862 0)
(9.25642 -0.569589 0)
(9.44687 -0.599576 0)
(9.30064 -0.596458 0)
(9.49186 -0.623068 0)
(9.33751 -0.61535 0)
(9.53424 -0.639519 0)
(9.37043 -0.628152 0)
(9.57616 -0.652224 0)
(9.4046 -0.639246 0)
(9.62015 -0.666173 0)
(9.44595 -0.653802 0)
(9.66791 -0.684939 0)
(9.4966 -0.673679 0)
(9.71714 -0.707436 0)
(9.55144 -0.697813 0)
(9.76368 -0.73421 0)
(9.60297 -0.727936 0)
(9.8048 -0.766834 0)
(9.64613 -0.763093 0)
(9.84151 -0.804879 0)
(9.68557 -0.803439 0)
(9.88211 -0.848186 0)
(9.72398 -0.845572 0)
(9.92068 -0.888068 0)
(9.75741 -0.879517 0)
(9.95897 -0.918104 0)
(9.78768 -0.906283 0)
(9.99696 -0.945098 0)
(9.81517 -0.92798 0)
(10.0314 -0.96645 0)
(9.84227 -0.942708 0)
(10.0653 -0.982678 0)
(9.87646 -0.954188 0)
(10.1044 -0.99222 0)
(9.92073 -0.956313 0)
(10.1496 -0.993537 0)
(9.97567 -0.949765 0)
(10.1943 -0.98849 0)
(10.0368 -0.947501 0)
(10.2354 -0.989594 0)
(10.0888 -0.952944 0)
(10.2666 -1.00083 0)
(10.1266 -0.967415 0)
(10.2835 -1.01188 0)
(10.1448 -0.973604 0)
(10.2781 -1.01735 0)
(10.1399 -0.975548 0)
(10.2541 -1.01788 0)
(10.1207 -0.973535 0)
(10.2186 -1.01915 0)
(10.0974 -0.975644 0)
(10.1952 -1.02787 0)
(10.0854 -0.984252 0)
(10.1835 -1.04352 0)
(10.0809 -0.994455 0)
(10.1715 -1.05603 0)
(10.0658 -0.990896 0)
(10.153 -1.04163 0)
(10.0468 -0.966172 0)
(10.1258 -1.01617 0)
(10.0221 -0.932759 0)
(10.0782 -0.983231 0)
(9.97288 -0.888959 0)
(9.99647 -0.936214 0)
(9.89567 -0.832989 0)
(9.90119 -0.88741 0)
(9.82641 -0.795764 0)
(9.82765 -0.861116 0)
(9.76243 -0.769165 0)
(9.75193 -0.834387 0)
(9.68842 -0.736077 0)
(9.68123 -0.797731 0)
(9.62042 -0.693867 0)
(9.62673 -0.756415 0)
(9.55809 -0.647632 0)
(9.5806 -0.714433 0)
(9.4946 -0.596995 0)
(9.5353 -0.666051 0)
(9.42779 -0.539902 0)
(9.48572 -0.614096 0)
(9.35638 -0.480094 0)
(9.42634 -0.552082 0)
(9.28382 -0.409662 0)
(9.36018 -0.48548 0)
(9.20306 -0.341975 0)
(9.30168 -0.425489 0)
(9.12859 -0.283399 0)
(9.24335 -0.364728 0)
(9.0518 -0.225934 0)
(9.1806 -0.310635 0)
(8.98121 -0.177897 0)
(9.11654 -0.255946 0)
(8.92228 -0.125095 0)
(9.06334 -0.204842 0)
(8.87606 -0.0610884 0)
(9.00557 -0.145381 0)
(8.83852 -0.00486567 0)
(8.96406 -0.0974158 0)
(8.80506 0.0525253 0)
(8.92773 -0.0328622 0)
(8.77982 0.113096 0)
(8.90732 0.0254551 0)
(8.76553 0.175354 0)
(8.88216 0.0868171 0)
(8.76483 0.248214 0)
(8.85301 0.148741 0)
(8.7469 0.321608 0)
(8.83277 0.224386 0)
(8.72023 0.413541 0)
(8.80839 0.296167 0)
(8.70081 0.500378 0)
(8.79887 0.369961 0)
(8.6797 0.587247 0)
(8.79384 0.447705 0)
(8.65483 0.674258 0)
(8.7805 0.519192 0)
(8.63786 0.751743 0)
(8.7674 0.574493 0)
(8.62794 0.83062 0)
(8.74237 0.632037 0)
(8.59441 0.928886 0)
(8.72561 0.71289 0)
(8.53404 1.0339 0)
(8.73067 0.786798 0)
(8.43512 1.14242 0)
(8.74139 0.86478 0)
(8.3055 1.2529 0)
(8.76042 0.92667 0)
(8.16152 1.35819 0)
(8.78106 0.97931 0)
(8.03435 1.46422 0)
(8.78195 1.05005 0)
(7.92799 1.58467 0)
(8.76322 1.15168 0)
(7.84907 1.73765 0)
(8.73233 1.28892 0)
(7.7644 1.90797 0)
(8.68732 1.44489 0)
(7.66645 2.09633 0)
(8.62561 1.6224 0)
(7.59346 2.32894 0)
(8.51288 1.82708 0)
(7.55741 2.61587 0)
(8.36985 2.09253 0)
(7.5205 2.99234 0)
(8.30742 2.46731 0)
(7.38852 3.47072 0)
(8.4663 2.98251 0)
(7.07342 4.2346 0)
(9.03592 3.49709 0)
(6.81593 5.82777 0)
(9.77262 3.60788 0)
(8.20002 8.11597 0)
(10.1307 -0.128618 0)
(10.0618 -0.23389 0)
(10.1865 -0.280794 0)
(10.1565 -0.262322 0)
(10.3087 -0.231924 0)
(10.2645 -0.187648 0)
(10.3858 -0.164172 0)
(10.2989 -0.139318 0)
(10.3961 -0.137297 0)
(10.292 -0.129961 0)
(10.3921 -0.142185 0)
(10.2909 -0.144461 0)
(10.4033 -0.163392 0)
(10.307 -0.168227 0)
(10.4292 -0.187869 0)
(10.3338 -0.190807 0)
(10.4614 -0.208571 0)
(10.3637 -0.208785 0)
(10.4946 -0.22529 0)
(10.3939 -0.22444 0)
(10.5282 -0.241736 0)
(10.4248 -0.24175 0)
(10.5622 -0.261306 0)
(10.4558 -0.262692 0)
(10.5958 -0.284358 0)
(10.4866 -0.286455 0)
(10.6282 -0.309184 0)
(10.5162 -0.310855 0)
(10.6587 -0.333827 0)
(10.5435 -0.334803 0)
(10.6859 -0.358098 0)
(10.5671 -0.358818 0)
(10.7092 -0.382889 0)
(10.5865 -0.383812 0)
(10.7288 -0.40849 0)
(10.6022 -0.408856 0)
(10.7461 -0.433431 0)
(10.6166 -0.433072 0)
(10.7645 -0.458083 0)
(10.6333 -0.457523 0)
(10.7863 -0.484225 0)
(10.6538 -0.484905 0)
(10.811 -0.514595 0)
(10.6763 -0.516613 0)
(10.8354 -0.54857 0)
(10.6961 -0.550364 0)
(10.8554 -0.58236 0)
(10.709 -0.581351 0)
(10.8687 -0.6112 0)
(10.7145 -0.60547 0)
(10.8762 -0.632421 0)
(10.7148 -0.621878 0)
(10.8798 -0.646679 0)
(10.7132 -0.633103 0)
(10.8831 -0.658546 0)
(10.7155 -0.644852 0)
(10.8896 -0.673729 0)
(10.7238 -0.660936 0)
(10.8979 -0.692812 0)
(10.7333 -0.680015 0)
(10.9023 -0.714072 0)
(10.7389 -0.701727 0)
(10.8998 -0.738429 0)
(10.738 -0.72772 0)
(10.8891 -0.766995 0)
(10.7297 -0.760495 0)
(10.8759 -0.805859 0)
(10.719 -0.804475 0)
(10.8645 -0.850338 0)
(10.704 -0.846077 0)
(10.8503 -0.890153 0)
(10.6809 -0.880045 0)
(10.8324 -0.920047 0)
(10.6572 -0.90671 0)
(10.8125 -0.945235 0)
(10.6276 -0.92776 0)
(10.7886 -0.965269 0)
(10.6015 -0.944948 0)
(10.7714 -0.985625 0)
(10.5911 -0.960511 0)
(10.7622 -0.997616 0)
(10.5926 -0.966604 0)
(10.7566 -0.998991 0)
(10.5976 -0.96066 0)
(10.7522 -0.995154 0)
(10.6027 -0.955804 0)
(10.7422 -0.99208 0)
(10.5996 -0.9605 0)
(10.7267 -1.00111 0)
(10.5893 -0.967674 0)
(10.6957 -1.00442 0)
(10.5603 -0.963159 0)
(10.6457 -1.00096 0)
(10.5161 -0.957278 0)
(10.5875 -0.998269 0)
(10.4673 -0.953056 0)
(10.5251 -1.00245 0)
(10.4204 -0.960617 0)
(10.4729 -1.01718 0)
(10.3764 -0.972062 0)
(10.4258 -1.03247 0)
(10.3297 -0.980176 0)
(10.3716 -1.04357 0)
(10.2794 -0.975884 0)
(10.3168 -1.03196 0)
(10.2281 -0.951782 0)
(10.2536 -1.0037 0)
(10.1667 -0.909106 0)
(10.1711 -0.95758 0)
(10.0849 -0.851984 0)
(10.0604 -0.896176 0)
(9.98777 -0.794254 0)
(9.9609 -0.860132 0)
(9.91931 -0.769066 0)
(9.87396 -0.835438 0)
(9.83949 -0.736185 0)
(9.77907 -0.802711 0)
(9.74085 -0.697527 0)
(9.68076 -0.771369 0)
(9.64882 -0.655167 0)
(9.60189 -0.737116 0)
(9.56512 -0.610473 0)
(9.53946 -0.694576 0)
(9.47543 -0.561554 0)
(9.4793 -0.64667 0)
(9.38463 -0.509513 0)
(9.4106 -0.593138 0)
(9.29399 -0.443726 0)
(9.33329 -0.527032 0)
(9.20204 -0.370682 0)
(9.25357 -0.459076 0)
(9.10737 -0.304562 0)
(9.17921 -0.40111 0)
(9.01523 -0.244109 0)
(9.10854 -0.34061 0)
(8.92495 -0.187385 0)
(9.04157 -0.287428 0)
(8.83781 -0.14067 0)
(8.97319 -0.237592 0)
(8.76357 -0.09094 0)
(8.91419 -0.191757 0)
(8.70108 -0.0277711 0)
(8.8634 -0.13936 0)
(8.66128 0.0219541 0)
(8.83507 -0.098639 0)
(8.63347 0.0799771 0)
(8.80981 -0.0425388 0)
(8.62129 0.135329 0)
(8.80602 0.00711785 0)
(8.6143 0.194019 0)
(8.81382 0.062431 0)
(8.6127 0.268938 0)
(8.83012 0.131983 0)
(8.58825 0.343176 0)
(8.83898 0.210261 0)
(8.57361 0.438157 0)
(8.82631 0.285466 0)
(8.55215 0.534803 0)
(8.82392 0.367488 0)
(8.50532 0.609702 0)
(8.82738 0.431583 0)
(8.48404 0.699285 0)
(8.83805 0.487378 0)
(8.44789 0.775517 0)
(8.86574 0.54554 0)
(8.4025 0.867683 0)
(8.87795 0.611488 0)
(8.33692 0.966872 0)
(8.9118 0.684947 0)
(8.27409 1.07644 0)
(8.95435 0.751715 0)
(8.20444 1.19555 0)
(8.99221 0.827597 0)
(8.12446 1.31128 0)
(9.03408 0.883831 0)
(8.05142 1.41282 0)
(9.03594 0.943013 0)
(7.99532 1.52463 0)
(9.00758 1.01655 0)
(7.95643 1.65788 0)
(8.9666 1.1092 0)
(7.92769 1.82256 0)
(8.93055 1.23631 0)
(7.90657 2.0112 0)
(8.88369 1.38467 0)
(7.89284 2.21409 0)
(8.82924 1.55396 0)
(7.8845 2.44955 0)
(8.80669 1.77147 0)
(7.83374 2.7393 0)
(8.86634 2.03783 0)
(7.71429 3.11858 0)
(9.08598 2.36428 0)
(7.53219 3.67854 0)
(9.50049 2.64993 0)
(7.40206 4.62578 0)
(10.0911 2.77948 0)
(7.76807 6.03886 0)
(10.3614 3.02269 0)
(9.18082 7.10184 0)
(11.6031 -0.11017 0)
(11.5763 -0.246564 0)
(11.7506 -0.310927 0)
(11.7697 -0.291182 0)
(11.8964 -0.255293 0)
(11.8497 -0.198406 0)
(11.9252 -0.169401 0)
(11.8397 -0.138443 0)
(11.8999 -0.137958 0)
(11.8079 -0.128993 0)
(11.874 -0.144569 0)
(11.7877 -0.145516 0)
(11.8641 -0.167479 0)
(11.784 -0.170744 0)
(11.868 -0.193266 0)
(11.7904 -0.194678 0)
(11.8782 -0.215205 0)
(11.8 -0.213806 0)
(11.8899 -0.23276 0)
(11.8098 -0.23001 0)
(11.901 -0.249407 0)
(11.8182 -0.247252 0)
(11.9102 -0.268675 0)
(11.8239 -0.267784 0)
(11.9162 -0.291283 0)
(11.8262 -0.291037 0)
(11.9189 -0.315679 0)
(11.8254 -0.314932 0)
(11.919 -0.339933 0)
(11.823 -0.338109 0)
(11.9174 -0.363185 0)
(11.8197 -0.360446 0)
(11.9144 -0.386209 0)
(11.8159 -0.383153 0)
(11.9104 -0.409821 0)
(11.8114 -0.406627 0)
(11.9059 -0.434306 0)
(11.807 -0.431288 0)
(11.9021 -0.460102 0)
(11.803 -0.457794 0)
(11.8996 -0.488262 0)
(11.799 -0.48725 0)
(11.8975 -0.519469 0)
(11.7932 -0.519243 0)
(11.8935 -0.552428 0)
(11.7835 -0.551224 0)
(11.8851 -0.583745 0)
(11.7684 -0.579422 0)
(11.8705 -0.609764 0)
(11.7473 -0.600662 0)
(11.8491 -0.628472 0)
(11.7217 -0.614794 0)
(11.823 -0.641769 0)
(11.696 -0.62629 0)
(11.7973 -0.655146 0)
(11.6735 -0.639857 0)
(11.7723 -0.670741 0)
(11.6504 -0.655507 0)
(11.7438 -0.687476 0)
(11.6213 -0.672893 0)
(11.7104 -0.706729 0)
(11.5849 -0.692739 0)
(11.6717 -0.727998 0)
(11.5405 -0.714479 0)
(11.6287 -0.753776 0)
(11.4933 -0.745185 0)
(11.5856 -0.791172 0)
(11.4419 -0.785146 0)
(11.5325 -0.832191 0)
(11.3802 -0.822379 0)
(11.4701 -0.867416 0)
(11.3098 -0.853049 0)
(11.4025 -0.896802 0)
(11.2396 -0.878448 0)
(11.3312 -0.920151 0)
(11.1667 -0.899976 0)
(11.2604 -0.943653 0)
(11.1048 -0.924913 0)
(11.2059 -0.971029 0)
(11.0586 -0.946216 0)
(11.159 -0.987141 0)
(11.0188 -0.955159 0)
(11.1125 -0.988163 0)
(10.9814 -0.951815 0)
(11.07 -0.984628 0)
(10.9404 -0.945281 0)
(11.0279 -0.981484 0)
(10.9002 -0.948156 0)
(10.9808 -0.986978 0)
(10.8531 -0.944722 0)
(10.9178 -0.979878 0)
(10.7875 -0.93337 0)
(10.8478 -0.975345 0)
(10.7179 -0.926678 0)
(10.7771 -0.975401 0)
(10.6495 -0.923345 0)
(10.7034 -0.983208 0)
(10.5843 -0.930695 0)
(10.6255 -0.998807 0)
(10.5163 -0.943229 0)
(10.5503 -1.01358 0)
(10.4491 -0.950758 0)
(10.4765 -1.02412 0)
(10.3816 -0.946163 0)
(10.3961 -1.00688 0)
(10.3016 -0.916988 0)
(10.2976 -0.970473 0)
(10.2078 -0.866265 0)
(10.1786 -0.9154 0)
(10.095 -0.797739 0)
(10.0432 -0.850206 0)
(9.99746 -0.753162 0)
(9.93715 -0.828198 0)
(9.90428 -0.725819 0)
(9.81912 -0.796413 0)
(9.79512 -0.682557 0)
(9.69416 -0.75846 0)
(9.67075 -0.638004 0)
(9.57735 -0.732648 0)
(9.55196 -0.601988 0)
(9.4783 -0.70746 0)
(9.44002 -0.561778 0)
(9.3937 -0.665801 0)
(9.33045 -0.513056 0)
(9.30987 -0.617803 0)
(9.2204 -0.45968 0)
(9.21196 -0.564319 0)
(9.11271 -0.392914 0)
(9.11661 -0.497273 0)
(9.00647 -0.318817 0)
(9.02966 -0.428645 0)
(8.90527 -0.256726 0)
(8.94275 -0.369862 0)
(8.80529 -0.196156 0)
(8.86218 -0.3154 0)
(8.71138 -0.140372 0)
(8.78947 -0.262683 0)
(8.61473 -0.0895893 0)
(8.71621 -0.220907 0)
(8.52729 -0.0415769 0)
(8.65815 -0.178883 0)
(8.45236 0.00932013 0)
(8.62419 -0.140759 0)
(8.41675 0.0471712 0)
(8.59869 -0.104819 0)
(8.38911 0.110116 0)