/*--------------------------------*- C++ -*----------------------------------*\
| =========                 |                                                 |
| \\      /  F ield         | OpenFOAM: The Open Source CFD Toolbox           |
|  \\    /   O peration     | Version:  2.4.0                                 |
|   \\  /    A nd           | Web:      www.OpenFOAM.org                      |
|    \\/     M anipulation  |                                                 |
\*---------------------------------------------------------------------------*/
FoamFile
{
    version     2.0;
    format      ascii;
    class       volScalarField;
    location    "0.38";
    object      pPrime2Mean;
}
// * * * * * * * * * * * * * * * * * * * * * * * * * * * * * * * * * * * * * //

dimensions      [0 4 -4 0 0 0 0];

internalField   nonuniform List<scalar> 
8800
(
1.70117e+06
1.65824e+06
1.61218e+06
1.56651e+06
1.52147e+06
1.47708e+06
1.43335e+06
1.39027e+06
1.34784e+06
1.30607e+06
1.26494e+06
1.22446e+06
1.18461e+06
1.14537e+06
1.1067e+06
1.06852e+06
1.0307e+06
992936
954554
913405
1.70123e+06
1.65825e+06
1.61218e+06
1.56651e+06
1.52147e+06
1.47708e+06
1.43335e+06
1.39027e+06
1.34784e+06
1.30607e+06
1.26494e+06
1.22446e+06
1.18461e+06
1.14537e+06
1.10671e+06
1.06854e+06
1.03074e+06
993023
954765
914101
1.70127e+06
1.65824e+06
1.61217e+06
1.5665e+06
1.52147e+06
1.47708e+06
1.43334e+06
1.39027e+06
1.34784e+06
1.30607e+06
1.26495e+06
1.22447e+06
1.18462e+06
1.14539e+06
1.10673e+06
1.06858e+06
1.03082e+06
993189
955153
915455
1.70129e+06
1.65824e+06
1.61215e+06
1.5665e+06
1.52146e+06
1.47708e+06
1.43334e+06
1.39027e+06
1.34784e+06
1.30607e+06
1.26495e+06
1.22447e+06
1.18463e+06
1.1454e+06
1.10676e+06
1.06864e+06
1.03094e+06
993426
955694
917032
1.70132e+06
1.65824e+06
1.61215e+06
1.56649e+06
1.52146e+06
1.47708e+06
1.43334e+06
1.39027e+06
1.34784e+06
1.30607e+06
1.26495e+06
1.22448e+06
1.18464e+06
1.14542e+06
1.1068e+06
1.06872e+06
1.03108e+06
993721
956343
918662
1.70134e+06
1.65825e+06
1.61214e+06
1.56648e+06
1.52146e+06
1.47708e+06
1.43334e+06
1.39027e+06
1.34784e+06
1.30607e+06
1.26495e+06
1.22448e+06
1.18465e+06
1.14545e+06
1.10685e+06
1.06881e+06
1.03125e+06
994060
957056
920254
1.70135e+06
1.65825e+06
1.61213e+06
1.56648e+06
1.52145e+06
1.47707e+06
1.43334e+06
1.39027e+06
1.34784e+06
1.30607e+06
1.26496e+06
1.22449e+06
1.18467e+06
1.14548e+06
1.1069e+06
1.06891e+06
1.03144e+06
994431
957799
921767
1.70136e+06
1.65825e+06
1.61213e+06
1.56647e+06
1.52145e+06
1.47707e+06
1.43334e+06
1.39027e+06
1.34784e+06
1.30608e+06
1.26496e+06
1.2245e+06
1.18469e+06
1.14551e+06
1.10696e+06
1.06902e+06
1.03165e+06
994819
958548
923180
1.70137e+06
1.65825e+06
1.61213e+06
1.56647e+06
1.52145e+06
1.47708e+06
1.43334e+06
1.39027e+06
1.34784e+06
1.30608e+06
1.26497e+06
1.22451e+06
1.1847e+06
1.14554e+06
1.10702e+06
1.06913e+06
1.03186e+06
995215
959282
924480
1.70137e+06
1.65825e+06
1.61213e+06
1.56647e+06
1.52145e+06
1.47708e+06
1.43335e+06
1.39027e+06
1.34785e+06
1.30608e+06
1.26497e+06
1.22452e+06
1.18472e+06
1.14558e+06
1.10709e+06
1.06925e+06
1.03208e+06
995607
959985
925664
1.70137e+06
1.65825e+06
1.61213e+06
1.56647e+06
1.52145e+06
1.47708e+06
1.43335e+06
1.39027e+06
1.34785e+06
1.30609e+06
1.26498e+06
1.22453e+06
1.18474e+06
1.14561e+06
1.10715e+06
1.06937e+06
1.03229e+06
995987
960647
926731
1.70137e+06
1.65825e+06
1.61213e+06
1.56647e+06
1.52145e+06
1.47708e+06
1.43335e+06
1.39027e+06
1.34785e+06
1.30609e+06
1.26499e+06
1.22454e+06
1.18476e+06
1.14565e+06
1.10722e+06
1.06948e+06
1.03249e+06
996347
961258
927684
1.70136e+06
1.65825e+06
1.61213e+06
1.56647e+06
1.52145e+06
1.47708e+06
1.43335e+06
1.39027e+06
1.34785e+06
1.30609e+06
1.26499e+06
1.22455e+06
1.18478e+06
1.14568e+06
1.10728e+06
1.06959e+06
1.03269e+06
996681
961812
928523
1.70135e+06
1.65825e+06
1.61213e+06
1.56648e+06
1.52146e+06
1.47708e+06
1.43335e+06
1.39027e+06
1.34785e+06
1.3061e+06
1.265e+06
1.22456e+06
1.1848e+06
1.14571e+06
1.10733e+06
1.06969e+06
1.03286e+06
996983
962304
929253
1.70134e+06
1.65825e+06
1.61214e+06
1.56648e+06
1.52146e+06
1.47708e+06
1.43335e+06
1.39027e+06
1.34786e+06
1.3061e+06
1.265e+06
1.22457e+06
1.18481e+06
1.14574e+06
1.10738e+06
1.06978e+06
1.03302e+06
997249
962731
929875
1.70132e+06
1.65824e+06
1.61215e+06
1.56649e+06
1.52146e+06
1.47708e+06
1.43335e+06
1.39027e+06
1.34786e+06
1.3061e+06
1.26501e+06
1.22458e+06
1.18483e+06
1.14577e+06
1.10743e+06
1.06986e+06
1.03315e+06
997475
963088
930391
1.70129e+06
1.65824e+06
1.61216e+06
1.5665e+06
1.52146e+06
1.47708e+06
1.43335e+06
1.39028e+06
1.34786e+06
1.30611e+06
1.26501e+06
1.22459e+06
1.18484e+06
1.14579e+06
1.10746e+06
1.06992e+06
1.03326e+06
997658
963376
930803
1.70127e+06
1.65824e+06
1.61217e+06
1.56651e+06
1.52147e+06
1.47708e+06
1.43335e+06
1.39028e+06
1.34786e+06
1.30611e+06
1.26502e+06
1.22459e+06
1.18485e+06
1.1458e+06
1.10749e+06
1.06997e+06
1.03335e+06
997798
963592
931109
1.70123e+06
1.65825e+06
1.61218e+06
1.56651e+06
1.52147e+06
1.47708e+06
1.43335e+06
1.39028e+06
1.34786e+06
1.30611e+06
1.26502e+06
1.2246e+06
1.18485e+06
1.14581e+06
1.10751e+06
1.07e+06
1.03341e+06
997891
963737
931312
1.70117e+06
1.65824e+06
1.61218e+06
1.56652e+06
1.52147e+06
1.47708e+06
1.43335e+06
1.39028e+06
1.34786e+06
1.30611e+06
1.26502e+06
1.2246e+06
1.18486e+06
1.14582e+06
1.10752e+06
1.07002e+06
1.03343e+06
997939
963809
931411
876121
866083
858427
851809
845672
839830
834197
828719
823363
818102
812921
807805
802745
797732
792761
787824
782917
778035
773174
768335
763517
758719
753941
749182
744441
739718
735012
730324
725654
721000
716365
711749
707153
702577
698022
693486
688970
684473
679996
675536
671093
666666
662253
657853
653465
649090
644726
640375
636037
631713
627400
623101
618813
614538
610275
606027
601795
597578
593377
589192
585020
580864
576721
572592
568477
564378
560293
556224
552171
548134
544113
540109
536120
532148
528191
524251
520326
516417
512525
508649
504791
500951
497128
493322
489531
485754
481990
478238
474499
470773
467059
463355
459663
455981
452310
448651
445004
441370
437750
434144
430552
426976
423415
419870
416341
412829
409332
405852
402386
398937
395503
392084
388681
385294
381924
378568
375228
371903
368594
365299
362020
358756
355508
352276
349061
345863
342682
339518
336370
333238
330121
327019
323929
320853
317789
314736
311696
308666
305650
302645
299654
296676
293711
290760
287821
284896
281984
279086
276203
273334
270481
267643
264821
262015
259224
256449
253688
250943
248213
245499
242799
240115
237445
234792
232154
229533
226927
224340
221768
219214
216674
214154
211645
209158
206677
204220
201764
199335
196901
194497
192086
189701
187315
184946
182580
180224
177868
175518
173163
170807
168436
166053
163642
161204
158714
156166
153515
150716
147645
144016
883272
872577
863858
856350
849557
843207
837161
831341
825693
820181
814781
809474
804244
799081
793974
788917
783902
778922
773975
769058
764169
759307
754470
749659
744870
740104
735360
730637
725935
721254
716594
711954
707337
702742
698169
693616
689085
684574
680082
675610
671155
666717
662294
657886
653491
649109
644741
640386
636044
631716
627401
623100
618812
614537
610276
606030
601799
597584
593384
589200
585031
580876
576735
572609
568498
564401
560319
556252
552201
548165
544146
540143
536155
532184
528228
524288
520363
516455
512564
508690
504835
500998
497179
493376
489588
485813
482052
478303
474566
470842
467130
463428
459736
456054
452383
448723
445076
441442
437821
434214
430621
427044
423481
419935
416405
412890
409391
405907
402438
398984
395546
392123
388716
385325
381952
378594
375252
371927
368617
365323
362044
358780
355533
352302
349089
345892
342713
339551
336404
333273
330157
327054
323964
320887
317821
314767
311724
308693
305674
302668
299675
296695
293728
290774
287832
284903
281988
279086
276199
273327
270470
267630
264804
261995
259200
256422
253657
250908
248173
245453
242747
240057
237381
234721
232075
229444
226829
224230
221645
219079
216524
213989
211462
208957
206455
203978
201497
199043
196583
194146
191706
189282
186858
184443
182029
179618
177205
174789
172363
169927
167468
164984
162458
159884
157237
154489
151612
148474
145043
140995
888234
877622
868497
860456
853174
846404
839999
833868
827950
822203
816595
811103
805710
800401
795164
789989
784867
779793
774761
769767
764808
759884
754990
750127
745292
740485
735702
730945
726212
721503
716818
712157
707519
702905
698314
693745
689199
684673
680168
675683
671217
666768
662335
657919
653516
649129
644755
640395
636050
631719
627402
623100
618812
614538
610278
606034
601805
597591
593393
589211
585044
580892
576754
572631
568523
564429
560350
556285
552236
548202
544184
540182
536195
532224
528268
524328
520404
516496
512606
508734
504881
501047
497231
493431
489646
485874
482115
478368
474635
470914
467203
463502
459810
456129
452458
448798
445151
441517
437896
434289
430697
427118
423554
420006
416473
412956
409453
405965
402492
399033
395589
392161
388749
385354
381977
378617
375274
371948
368638
365344
362066
358803
355557
352328
349116
345921
342744
339583
336437
333307
330190
327086
323996
320916
317848
314791
311746
308712
305692
302684
299689
296708
293739
290782
287837
284905
281985
279079
276188
273313
270453
267610
264782
261969
259171
256388
253620
250866
248127
245402
242691
239995
237312
234645
231991
229353
226727
224118
221521
218942
216371
213822
211276
208754
206232
203733
201231
198749
196266
193796
191328
188865
186405
183946
181487
179022
176554
174075
171582
169069
166529
163950
161324
158622
155855
152930
149901
146563
142956
138895
892012
881681
872441
864105
856481
849379
842672
836269
830109
824145
818343
812679
807131
801682
796319
791030
785806
780640
775525
770457
765431
760446
755498
750584
745704
740856
736037
731247
726484
721748
717039
712355
707697
703064
698456
693872
689311
684771
680253
675756
671278
666818
662376
657951
653542
649148
644769
640405
636057
631723
627405
623102
618814
614541
610283
606041
601813
597602
593406
589226
585061
580911
576777
572657
568551
564460
560384
556322
552275
548243
544227
540225
536238
532266
528310
524370
520445
516537
512648
508778
504927
501096
497282
493485
489702
485933
482177
478434
474704
470985
467276
463575
459885
456204
452534
448875
445229
441595
437974
434368
430775
427195
423630
420080
416544
413022
409515
406022
402544
399080
395631
392197
388780
385381
382000
378637
375293
371965
368655
365360
362083
358822
355578
352350
349140
345947
342772
339612
336467
333336
330220
327114
324022
320939
317868
314808
311759
308723
305700
302690
299694
296711
293741
290781
287834
284898
281975
279065
276170
273292
270430
267584
264753
261937
259136
256348
253576
250818
248074
245344
242629
239927
237239
234565
231903
229257
226622
224003
221393
218802
216217
213652
211091
208549
206009
203487
200967
198458
195952
193451
190954
188456
185960
183458
180956
178440
175921
173379
170827
168237
165630
162953
160254
157429
154572
151513
148362
144945
141296
137344
895050
885004
875790
867314
859465
852115
845162
838527
832153
825994
820015
814190
808496
802916
797433
792036
786715
781460
776266
771126
766036
760992
755990
751029
746106
741218
736364
731542
726750
721989
717256
712551
707873
703222
698597
693997
689421
684869
680338
675828
671339
666869
662418
657985
653569
649169
644786
640418
636067
631731
627412
623108
618820
614548
610292
606051
601825
597616
593422
589244
585082
580935
576803
572685
568583
564495
560421
556362
552317
548286
544270
540269
536281
532308
528350
524409
520483
516576
512687
508819
504970
501140
497329
493534
489755
485989
482236
478497
474769
471053
467346
463647
459957
456277
452608
448949
445304
441670
438050
434444
430851
427270
423704
420151
416612
413086
409574
406076
402592
399122
395667
392227
388806
385402
382018
378652
375306
371977
368666
365372
362095
358835
355593
352367
349159
345967
342794
339635
336491
333360
330243
327135
324041
320955
317880
314816
311764
308724
305700
302687
299690
296705
293733
290771
287821
284882
281956
279043
276146
273265
270401
267551
264718
261898
259094
256303
253527
250764
248015
245281
242561
239853
237160
234480
231812
229158
226514
223885
221265
218661
216063
213482
210906
208345
205790
203243
200705
198169
195641
193110
190586
188051
185524
182978
180439
177870
175309
172701
170103
167433
164772
162007
159238
156324
153375
150246
147006
143576
139953
136113
897607
887806
878662
870125
862134
854603
847455
840628
834069
827737
821599
815628
809799
804096
798502
793003
787590
782252
776982
771773
766621
761521
756469
751462
746497
741571
736683
731831
727012
722225
717470
712744
708047
703379
698737
694122
689532
684966
680422
675901
671402
666922
662463
658022
653599
649194
644806
640436
636082
631744
627423
623119
618831
614560
610304
606065
601842
597634
593443
589267
585107
580962
576832
572717
568616
564530
560459
556401
552358
548328
544311
540308
536319
532344
528384
524441
520515
516608
512720
508853
505006
501178
497369
493577
489800
486038
482289
478553
474829
471116
467411
463714
460026
456346
452678
449019
445373
441740
438120
434514
430921
427340
423772
420216
416673
413142
409626
406122
402633
399156
395695
392250
388824
385417
382030
378662
375313
371983
368672
365377
362101
358842
355601
352376
349170
345980
342808
339650
336507
333375
330256
327148
324050
320960
317882
314814
311759
308716
305689
302673
299675
296688
293714
290750
287798
284856
281929
279013
276115
273232
270366
267513
264678
261853
259047
256251
253473
250704
247952
245213
242488
239776
237077
234392
231717
229055
226404
223764
221135
218517
215909
213310
210723
208140
205572
203002
200447
197883
195336
192772
190225
187653
185098
182509
179937
177318
174716
172053
169403
166674
163949
161124
158280
155312
152287
149125
145842
142417
138833
135085
899810
890206
881142
872586
864507
856846
849549
842564
835850
829369
823089
816985
811034
805218
799520
793927
788428
783011
777670
772397
767186
762033
756932
751882
746877
741915
736995
732113
727267
722457
717679
712933
708218
703533
698875
694245
689641
685063
680508
675976
671466
666978
662510
658062
653634
649224
644832
640458
636101
631762
627440
623135
618847
614576
610322
606083
601862
597656
593466
589292
585133
580989
576861
572747
568648
564563
560493
556436
552392
548362
544344
540339
536347
532370
528409
524465
520538
516631
512744
508878
505033
501207
497400
493610
489836
486077
482331
478599
474879
471170
467469
463774
460087
456408
452738
449079
445432
441798
438179
434573
430979
427398
423828
420269
416722
413188
409667
406158
402663
399180
395712
392262
388832
385423
382033
378664
375314
371983
368672
365377
362101
358842
355601
352377
349172
345984
342813
339654
336511
333379
330259
327149
324048
320956
317874
314802
311743
308697
305667
302650
299651
296662
293687
290721
287768
284823
281894
278976
276078
273192
270326
267469
264631
261804
258995
256196
253414
250642
247885
245143
242410
239695
236990
234300
231619
228949
226290
223641
221003
218371
215753
213138
210538
207937
205353
202763
200188
197602
195032
192442
189868
187267
184679
182059
179446
176792
174141
171438
168733
165963
163178
160309
157405
154401
151325
148143
144843
141424
137874
134200
901731
892286
883297
874745
866613
858860
851448
844337
837492
830882
824478
818256
812195
806277
800484
794804
789224
783735
778327
772993
767727
762523
757378
752285
747243
742248
737296
732386
727515
722681
717883
713118
708385
703683
699011
694367
689750
685159
680593
676051
671533
667036
662561
658107
653672
649257
644861
640484
636125
631784
627461
623155
618867
614596
610342
606104
601883
597678
593489
589316
585158
581015
576887
572773
568675
564590
560519
556461
552416
548384
544364
540358
536365
532386
528424
524479
520552
516645
512758
508893
505048
501224
497419
493632
489860
486104
482361
478632
474917
471212
467515
463822
460137
456458
452787
449126
445478
441843
438223
434616
431022
427439
423868
420306
416757
413219
409694
406180
402679
399191
395718
392264
388831
385419
382029
378659
375309
371978
368667
365372
362095
358835
355593
352370
349164
345976
342806
339647
336503
333369
330248
327136
324034
320939
317854
314779
311717
308669
305636
302618
299617
296629
293653
290686
287729
284784
281852
278933
276035
273148
270280
267420
264580
261751
258939
256138
253352
250578
247815
245071
242333
239612
236902
234207
231519
228843
226176
223518
220870
218228
215597
212970
210355
207739
205137
202530
199935
197330
194735
192125
189522
186898
184277
181630
178979
176294
173600
170864
168112
165306
162472
159570
156621
153592
150484
147284
143975
140563
137043
133430
903419
894100
885180
876641
868477
860659
853158
845945
838992
832273
825761
819436
813277
807266
801387
795627
789974
784417
778948
773557
768240
762990
757801
752670
747592
742565
737584
732647
727752
722897
718078
713295
708546
703828
699142
694485
689856
685254
680678
676127
671600
667096
662614
658154
653714
649295
644895
640514
636153
631810
627485
623178
618889
614617
610362
606124
601903
597697
593508
589335
585177
581033
576905
572791
568691
564605
560532
556473
552426
548393
544371
540363
536369
532390
528427
524482
520555
516648
512761
508896
505052
501228
497425
493640
489871
486118
482379
478653
474942
471241
467547
463856
460171
456491
452819
449157
445508
441872
438250
434642
431047
427462
423889
420325
416773
413232
409704
406186
402681
399188
395712
392254
388819
385407
382017
378647
375298
371968
368656
365361
362083
358821
355577
352351
349145
345957
342785
339626
336480
333346
330223
327111
324008
320911
317825
314749
311684
308634
305598
302579
299577
296587
293611
290644
287685
284738
281805
278886
275987
273098
270229
267367
264524
261695
258879
256078
253287
250513
247744
244998
242255
239531
236814
234118
231419
228739
226062
223400
220740
218090
215445
212807
210176
207548
204927
202307
199691
197071
194452
191824
189195
186551
183900
181228
178545
175834
173104
170339
167547
164713
161839
158913
155929
152879
149743
146528
143214
139812
136322
132758
904904
895687
886826
878306
870123
862258
854689
847395
840353
833541
826937
820521
814275
808182
802226
796394
790674
785055
779529
774086
768721
763427
758199
753032
747921
742863
737855
732894
727977
723101
718263
713463
708698
703967
699267
694598
689958
685346
680761
676202
671667
667156
662668
658202
653758
649334
644930
640546
636182
631836
627509
623200
618909
614636
610379
606140
601918
597711
593521
589347
585187
581042
576912
572796
568695
564607
560532
556471
552422
548387
544364
540355
536360
532381
528418
524473
520547
516640
512753
508887
505043
501220
497417
493634
489868
486118
482383
478662
474955
471256
467565
463874
460188
456507
452834
449170
445520
441882
438259
434649
431052
427466
423891
420325
416771
413228
409696
406175
402667
399172
395694
392235
388799
385386
381996
378628
375280
371951
368641
365346
362066
358801
355553
352324
349115
345925
342751
339592
336444
333310
330185
327074
323970
320874
317787
314710
311644
308595
305556
302537
299532
296542
293563
290597
287635
284688
281755
278834
275936
273048
270174
267314
264465
261640
258816
256022
253219
250451
247671
244931
242177
239457
236725
234034
231319
228640
225950
223287
220613
217959
215298
212653
210005
207367
204730
202098
199462
196830
194189
191546
188892
186230
183553
180861
178150
175415
172655
169865
167040
164182
161277
158331
155316
152246
149085
145859
142546
139158
135696
132174
906209
897075
888265
879764
871571
863671
856049
848690
841574
834685
828003
821509
815187
809021
802996
797099
791319
785644
780066
774576
769167
763833
758568
753368
748227
743142
738109
733125
728187
723291
718437
713621
708842
704097
699386
694706
690056
685435
680841
676274
671733
667215
662722
658250
653801
649372
644964
640577
636209
631860
627530
623218
618925
614650
610391
606150
601925
597717
593525
589349
585187
581041
576908
572790
568686
564596
560519
556456
552406
548369
544345
540335
536340
532361
528400
524455
520529
516621
512734
508867
505022
501198
497397
493615
489852
486105
482375
478657
474954
471257
467566
463874
460186
456503
452828
449162
445511
441872
438247
434635
431037
427449
423873
420305
416750
413204
409670
406148
402639
399143
395666
392207
388771
385358
381969
378603
375257
371930
368621
365325
362043
358774
355522
352289
349075
345882
342705
339545
336396
333262
330137
327027
323922
320829
317742
314667
311599
308552
305510
302493
299484
296494
293511
290545
287581
284634
281699
278781
275876
272997
270116
267261
264405
261589
258753
255967
253150
250390
247601
244869
242101
239390
236643
233956
231223
228548
225842
223181
220490
217837
215158
212511
209845
207202
204547
201907
199254
196609
193949
191293
188617
185939
183239
180529
177794
175039
172253
169441
166589
163709
160780
157813
154770
151681
148503
145271
141964
138591
135155
131668
907351
898284
889518
881035
872836
864910
857248
849836
842661
835707
828958
822398
816010
809781
803695
797741
791906
786181
780556
775024
769575
764205
758907
753677
748508
743398
738342
733337
728380
723468
718598
713768
708975
704219
699496
694806
690147
685518
680917
676342
671794
667271
662772
658295
653840
649407
644995
640603
636231
631879
627546
623232
618935
614657
610396
606152
601925
597714
593520
589341
585177
581027
576893
572772
568666
564575
560496
556431
552380
548342
544318
540308
536313
532335
528375
524432
520505
516597
512708
508839
504992
501167
497365
493584
489823
486080
482354
478640
474938
471240
467548
463853
460164
456478
452802
449134
445482
441842
438216
434601
431001
427411
423835
420265
416710
413162
409629
406107
402600
399106
395631
392174
388739
385327
381939
378574
375230
371906
368596
365299
362015
358742
355486
352248
349029
345832
342651
339488
336339
333204
330080
326971
323867
320776
317690
314617
311552
308505
305463
302446
299435
296444
293458
290490
287524
284580
281643
278728
275822
272947
270056
267212
264351
261545
258699
255918
253094
250337
247544
244813
242035
239327
236569
233883
231137
228464
225746
223080
220379
217719
215031
212377
209700
207050
204383
201733
199067
196410
193734
191065
188372
185680
182959
180233
177475
174703
171894
169062
166190
163290
160340
157349
154283
151179
147993
144760
141461
138102
134689
131232
908343
899331
890601
882133
873932
865987
858292
850839
843615
836608
829804
823187
816743
810459
804321
798316
792434
786664
780998
775427
769943
764541
759213
753956
748763
743630
738554
733530
728556
723628
718744
713901
709097
704330
699597
694898
690231
685594
680986
676405
671850
667321
662816
658334
653875
649437
645020
640624
636248
631892
627555
623237
618938
614656
610392
606145
601915
597702
593505
589323
585156
581005
576868
572746
568638
564545
560465
556399
552347
548309
544285
540276
536282
532306
528347
524404
520478
516569
512678
508807
504958
501131
497328
493546
489786
486045
482321
478609
474906
471206
467510
463811
460121
456434
452757
449088
445437
441795
438168
434551
430951
427358
423781
420210
416655
413107
409577
406056
402553
399061
395589
392133
388701
385290
381905
378541
375199
371875
368566
365268
361981
358705
355445
352202
348979
345776
342592
339426
336275
333140
330017
326907
323806
320717
317633
314563
311501
308454
305415
302397
299385
296394
293406
290437
287471
284527
281591
278676
275771
272903
270008
267169
264313
261504
258654
255876
253052
250291
247498
244765
241981
239266
236505
233811
231063
228385
225660
222986
220279
217611
214917
212256
209572
206913
204239
201577
198901
196233
193545
190862
188155
185449
182711
179969
177193
174404
171578
168726
165839
162916
159950
156936
153855
150739
147550
144320
141027
137682
134290
130858
909197
900229
891527
883072
874869
866909
859190
851703
844440
837391
830540
823876
817385
811054
804870
798822
792899
787090
781388
775783
770269
764838
759485
754203
748989
743837
738742
733702
728713
723772
718875
714021
709206
704429
699688
694981
690306
685662
681047
676459
671899
667364
662854
658367
653902
649460
645038
640638
636257
631897
627556
623235
618932
614647
610380
606130
601897
597681
593481
589297
585129
580975
576837
572713
568605
564510
560429
556363
552311
548273
544250
540241
536249
532275
528317
524375
520449
516539
512647
508773
504921
501092
497286
493503
489742
486002
482277
478564
474857
471154
467454
463754
460063
456375
452697
449028
445376
441733
438106
434488
430888
427294
423716
420145
416590
413044
409517
405999
402499
399011
395542
392089
388659
385249
381866
378503
375163
371839
368529
365230
361941
358663
355400
352154
348927
345720
342532
339362
336210
333073
329950
326841
323742
320654
317574
314506
311447
308400
305365
302346
299335
296342
293356
290385
287424
284481
281545
278630
275732
272855
269968
267134
264285
261465
258619
255836
253022
250247
247464
244717
241935
239206
236451
233740
230996
228308
225581
222902
220191
217516
214819
212149
209462
206795
204112
201441
198756
196077
193379
190685
187966
185245
182495
179737
176949
174141
171303
168433
165534
162588
159608
156573
153485
150362
147173
143945
140659
137326
133951
130541
909920
900988
892306
883860
875655
867684
859945
852434
845141
838056
831169
824466
817936
811566
805344
799258
793300
787458
781725
776092
770551
765096
759720
754419
749186
744016
738907
733853
728851
723897
718990
714125
709302
704516
699767
695052
690370
685719
681098
676505
671939
667399
662883
658391
653922
649475
645049
640644
636259
631895
627550
623225
618919
614631
610361
606109
601874
597655
593453
589267
585097
580942
576803
572678
568568
564473
560392
556325
552273
548236
544214
540207
536216
532243
528287
524346
520420
516509
512615
508739
504885
501053
497243
493458
489694
485952
482223
478507
474795
471088
467386
463686
459994
456307
452627
448959
445305
441662
438034
434418
430817
427225
423646
420076
416521
412978
409453
405940
402444
398959
395493
392043
388615
385207
381824
378462
375121
371797
368487
365186
361896
358617
355353
352103
348874
345664
342474
339302
336147
333009
329886
326776
323678
320591
317513
314447
311392
308346
305314
302294
299287
296292
293308
290337
287382
284442
281509
278598
275697
272817
269946
267101
264257
261427
258595
255798
252996
250211
247435
244670
241897
239146
236400
233676
230932
228234
225513
222827
220113
217432
214732
212056
209366
206689
204002
201322
198631
195940
193236
190531
187802
185070
182310
179539
176740
173916
171068
168179
165273
162305
159317
156267
153175
150047
146860
143632
140353
137030
133669
130276
910521
901615
892946
884504
876297
868318
860566
853035
845719
838608
831691
824957
818395
811993
805739
799623
793636
787767
782008
776351
770788
765313
759919
754601
749352
744169
739046
733980
728967
724003
719087
714214
709382
704589
699833
695111
690423
685766
681139
676541
671970
667425
662904
658408
653934
649483
645052
640643
636255
631887
627539
623210
618901
614610
610338
606084
601847
597627
593424
589237
585065
580909
576769
572643
568532
564436
560355
556288
552236
548199
544178
540172
536183
532212
528257
524318
520392
516480
512584
508707
504850
501015
497203
493414
489646
485899
482164
478443
474725
471015
467309
463611
459918
456232
452553
448886
445230
441587
437958
434344
430742
427152
423573
420005
416451
412913
409390
405882
402388
398909
395445
391998
388570
385165
381781
378420
375077
371753
368440
365139
361848
358570
355305
352056
348827
345617
342425
339251
336094
332954
329830
326718
323619
320532
317456
314391
311338
308295
305265
302245
299241
296247
293266
290298
287347
284404
281479
278571
275676
272797
269933
267075
264233
261398
258576
255767
252970
250170
247409
244620
241860
239094
236360
233615
230883
228168
225452
222757
220047
217357
214660
211974
209283
206597
203908
201220
198523
195824
193114
190398
187664
184922
182155
179374
176565
173728
170869
167966
165054
162072
159072
156017
152922
149790
146605
143377
140103
136789
133439
130060
911000
902113
893450
885010
876801
868817
861056
853512
846179
839047
832108
825350
818763
812335
806056
799917
793906
788016
782236
776560
770980
765489
760080
754748
749486
744291
739158
734082
729060
724089
719164
714284
709445
704646
699884
695157
690464
685802
681170
676567
671992
667443
662918
658418
653941
649485
645051
640639
636247
631876
627526
623195
618883
614591
610317
606061
601822
597601
593396
589208
585036
580879
576737
572611
568499
564403
560321
556254
552203
548166
544146
540141
536153
532182
528228
524290
520365
516453
512557
508678
504820
500983
497167
493374
489600
485846
482105
478378
474656
470943
467234
463535
459840
456156
452477
448813
445156
441515
437884
434271
430669
427081
423502
419938
416385
412851
409330
405827
402337
398862
395400
391956
388530
385125
381740
378377
375032
371706
368392
365091
361802
358525
355263
352015
348788
345578
342386
339211
336052
332910
329783
326669
323568
320481
317404
314340
311289
308249
305220
302202
299200
296208
293230
290264
287318
284374
281456
278546
275662
272775
269918
267049
264206
261370
258557
255733
252942
250133
247371
244570
241834
239060
236327
233566
230839
228116
225405
222697
219991
217291
214598
211904
209213
206519
203829
201134
198433
195728
193015
190290
187552
184802
182031
179240
176423
173577
170710
167798
164881
161887
158876
155823
152724
149589
146404
143176
139907
136598
133257
129889
911357
902483
893823
885384
877174
869188
861421
853868
846523
839376
832420
825644
819038
812592
806295
800137
794110
788203
782409
776718
771125
765621
760201
754859
749588
744384
739243
734159
729130
724152
719222
714336
709492
704688
699922
695191
690493
685828
681192
676586
672007
667454
662927
658424
653943
649485
645049
640634
636240
631867
627515
623182
618869
614574
610299
606041
601801
597579
593373
589184
585011
580853
576711
572584
568473
564375
560293
556226
552175
548139
544119
540115
536127
532157
528203
524265
520340
516429
512532
508653
504794
500957
497139
493340
489561
485801
482052
478318
474591
470878
467167
463469
459772
456090
452411
448748
445090
441451
437819
434208
430604
427020
423441
419880
416328
412797
409278
405779
402290
398819
395360
391919
388494
385090
381703
378338
374991
371663
368350
365049
361763
358489