/*--------------------------------*- C++ -*----------------------------------*\
| =========                 |                                                 |
| \\      /  F ield         | OpenFOAM: The Open Source CFD Toolbox           |
|  \\    /   O peration     | Version:  2.4.0                                 |
|   \\  /    A nd           | Web:      www.OpenFOAM.org                      |
|    \\/     M anipulation  |                                                 |
\*---------------------------------------------------------------------------*/
FoamFile
{
    version     2.0;
    format      ascii;
    class       volVectorField;
    location    "0.38";
    object      UMean;
}
// * * * * * * * * * * * * * * * * * * * * * * * * * * * * * * * * * * * * * //

dimensions      [0 1 -1 0 0 0 0];

internalField   nonuniform List<vector> 
8800
(
(8.09409 0.385994 0)
(5.47597 0.241934 0)
(3.95054 0.0433435 0)
(3.20098 -0.0150118 0)
(2.84916 -0.0180579 0)
(2.64931 -0.0108885 0)
(2.53972 -0.00563297 0)
(2.43773 -0.00218411 0)
(2.38202 -0.00154361 0)
(2.31316 -0.000407557 0)
(2.28552 -0.000786347 0)
(2.23354 0.000169413 0)
(2.21708 -0.000283996 0)
(2.17053 0.000764516 0)
(2.15356 0.00010806 0)
(2.10904 0.00150585 0)
(2.08428 0.000101662 0)
(2.03847 0.00190664 0)
(2.02454 0.0026918 0)
(1.86363 -0.0386012 0)
(10.0745 0.833301 0)
(9.6609 0.861225 0)
(8.88891 0.502431 0)
(8.10769 0.259076 0)
(7.52676 0.135996 0)
(7.04638 0.0805586 0)
(6.74697 0.0522288 0)
(6.45262 0.0393169 0)
(6.29329 0.0281052 0)
(6.09062 0.0235894 0)
(6.01005 0.017038 0)
(5.85674 0.017445 0)
(5.81431 0.0133205 0)
(5.68592 0.0165483 0)
(5.65168 0.0134912 0)
(5.53867 0.0174919 0)
(5.49176 0.0184169 0)
(5.38713 0.0136291 0)
(5.33282 0.0311813 0)
(5.20452 -0.0366627 0)
(10.054 0.628143 0)
(10.6527 0.856296 0)
(10.8671 0.595127 0)
(10.6906 0.36897 0)
(10.4616 0.25143 0)
(10.0926 0.192935 0)
(9.85407 0.148947 0)
(9.51364 0.119528 0)
(9.34857 0.0898383 0)
(9.06774 0.0740112 0)
(8.97769 0.0548126 0)
(8.74733 0.0511651 0)
(8.70646 0.0389139 0)
(8.50706 0.0427679 0)
(8.48701 0.0340925 0)
(8.30453 0.0418757 0)
(8.28271 0.0384601 0)
(8.10423 0.0442468 0)
(8.06519 0.0488713 0)
(7.89297 -0.0154708 0)
(9.99545 0.455004 0)
(10.562 0.69994 0)
(11.163 0.540113 0)
(11.3643 0.34808 0)
(11.546 0.256996 0)
(11.4448 0.223735 0)
(11.4803 0.194606 0)
(11.2858 0.172311 0)
(11.2907 0.141264 0)
(11.0697 0.123048 0)
(11.0827 0.0981959 0)
(10.8597 0.091432 0)
(10.8879 0.0737006 0)
(10.6671 0.0763778 0)
(10.7045 0.0625303 0)
(10.484 0.0732171 0)
(10.5199 0.0610447 0)
(10.2931 0.0839963 0)
(10.3001 0.0633528 0)
(10.0635 0.0914052 0)
(10.0385 0.345084 0)
(10.3978 0.563059 0)
(11.0418 0.456298 0)
(11.2937 0.290901 0)
(11.6444 0.204711 0)
(11.654 0.189796 0)
(11.8641 0.172853 0)
(11.7955 0.167187 0)
(11.9635 0.138801 0)
(11.8621 0.131565 0)
(12.01 0.103081 0)
(11.8885 0.106658 0)
(12.0204 0.0815262 0)
(11.8834 0.0968194 0)
(11.9979 0.0714835 0)
(11.8481 0.098675 0)
(11.9407 0.0693097 0)
(11.7787 0.114272 0)
(11.8278 0.0709357 0)
(11.6217 0.127446 0)
(10.0499 0.251404 0)
(10.3148 0.451734 0)
(10.8942 0.373463 0)
(11.1713 0.244959 0)
(11.5189 0.158366 0)
(11.5889 0.149045 0)
(11.7891 0.138177 0)
(11.7988 0.140075 0)
(11.9636 0.115005 0)
(11.9652 0.112177 0)
(12.1134 0.0867687 0)
(12.1113 0.0912074 0)
(12.2427 0.0713849 0)
(12.2357 0.0837844 0)
(12.3476 0.0683006 0)
(12.3352 0.0863496 0)
(12.4237 0.0738663 0)
(12.4039 0.0956023 0)
(12.4507 0.0769605 0)
(12.3586 0.0540674 0)
(10.0064 0.173959 0)
(10.2977 0.350952 0)
(10.7496 0.286546 0)
(11.1053 0.203254 0)
(11.3826 0.116464 0)
(11.5404 0.113676 0)
(11.6641 0.10273 0)
(11.7497 0.113233 0)
(11.8418 0.0864487 0)
(11.922 0.0907052 0)
(12.0064 0.0636478 0)
(12.0843 0.0729482 0)
(12.1604 0.0515203 0)
(12.2341 0.0669815 0)
(12.2996 0.0504804 0)
(12.3681 0.0694756 0)
(12.4222 0.0554274 0)
(12.4806 0.0726974 0)
(12.504 0.0477001 0)
(12.47 0.011949 0)
(9.99827 0.114321 0)
(10.26 0.248814 0)
(10.6745 0.203659 0)
(11.0283 0.150898 0)
(11.3121 0.0817361 0)
(11.4758 0.0778128 0)
(11.6048 0.0726856 0)
(11.6809 0.0810837 0)
(11.78 0.0626481 0)
(11.8488 0.0642254 0)
(11.9454 0.0456417 0)
(12.0101 0.0505085 0)
(12.1023 0.0367796 0)
(12.1598 0.0457707 0)
(12.2451 0.0363276 0)
(12.2947 0.0465533 0)
(12.3723 0.0375937 0)
(12.407 0.0429561 0)
(12.4545 0.022092 0)
(12.3838 -0.016004 0)
(9.98488 0.0639765 0)
(10.2458 0.148458 0)
(10.6157 0.121665 0)
(10.9892 0.0923764 0)
(11.2541 0.0479625 0)
(11.4478 0.0465504 0)
(11.554 0.04276 0)
(11.652 0.0495924 0)
(11.7253 0.0376007 0)
(11.8182 0.0389407 0)
(11.89 0.0267889 0)
(11.9798 0.0299946 0)
(12.047 0.0213093 0)
(12.1296 0.026622 0)
(12.1892 0.0200677 0)
(12.2644 0.0251194 0)
(12.3141 0.0172322 0)
(12.3741 0.0165173 0)
(12.3887 -0.00172257 0)
(12.3386 -0.0346764 0)
(9.99068 0.0206968 0)
(10.2272 0.0491791 0)
(10.5988 0.0406214 0)
(10.9579 0.0309055 0)
(11.2378 0.015856 0)
(11.4218 0.0153648 0)
(11.5414 0.0141475 0)
(11.6254 0.0164773 0)
(11.7113 0.0125235 0)
(11.7906 0.0126385 0)
(11.8758 0.00848985 0)
(11.9523 0.00913969 0)
(12.0328 0.00600581 0)
(12.1024 0.00685841 0)
(12.1751 0.0036104 0)
(12.2361 0.00286689 0)
(12.2989 -0.00291685 0)
(12.3436 -0.00879284 0)
(12.3687 -0.0232443 0)
(12.2998 -0.0485934 0)
(9.99084 -0.0223563 0)
(10.227 -0.0471604 0)
(10.5985 -0.0426572 0)
(10.9581 -0.028836 0)
(11.2376 -0.0180879 0)
(11.4218 -0.0134663 0)
(11.5413 -0.0163728 0)
(11.6256 -0.0148224 0)
(11.7111 -0.0149192 0)
(11.7908 -0.0115589 0)
(11.8755 -0.0119038 0)
(11.9525 -0.00943668 0)
(12.0323 -0.011532 0)
(12.1025 -0.010703 0)
(12.1742 -0.0150964 0)
(12.2356 -0.0169087 0)
(12.2972 -0.0249466 0)
(12.3412 -0.0308789 0)
(12.365 -0.0454878 0)
(12.2934 -0.0579988 0)
(9.98749 -0.0653347 0)
(10.2431 -0.146818 0)
(10.6178 -0.123297 0)
(10.9867 -0.090829 0)
(11.2564 -0.0495809 0)
(11.4451 -0.0453598 0)
(11.5564 -0.0444401 0)
(11.6492 -0.0487096 0)
(11.7276 -0.0392879 0)
(11.8154 -0.0386992 0)
(11.8922 -0.0295075 0)
(11.9768 -0.0312418 0)
(12.0484 -0.0260677 0)
(12.1263 -0.0314461 0)
(12.1897 -0.030533 0)
(12.259 -0.0399115 0)
(12.3119 -0.043571 0)
(12.3643 -0.0568897 0)
(12.3793 -0.0646343 0)
(12.3175 -0.0716951 0)
(9.99552 -0.115956 0)
(10.2627 -0.246656 0)
(10.6711 -0.205762 0)
(11.0313 -0.148657 0)
(11.3084 -0.0838511 0)
(11.4793 -0.0756958 0)
(11.6008 -0.0750616 0)
(11.6847 -0.0790041 0)
(11.7752 -0.0653071 0)
(11.8528 -0.0626971 0)
(11.9402 -0.0494091 0)
(12.014 -0.0502317 0)
(12.0959 -0.0428502 0)
(12.1629 -0.0489954 0)
(12.2369 -0.0480019 0)
(12.295 -0.0590452 0)
(12.359 -0.0647459 0)
(12.4005 -0.0798841 0)
(12.4288 -0.0890234 0)
(12.359 -0.0836936 0)
(10.0114 -0.175324 0)
(10.2926 -0.349264 0)
(10.7542 -0.288345 0)
(11.1003 -0.20146 0)
(11.3871 -0.118351 0)
(11.5356 -0.111768 0)
(11.6685 -0.104879 0)
(11.7451 -0.111551 0)
(11.8462 -0.0889676 0)
(11.9171 -0.0895789 0)
(12.0106 -0.0672052 0)
(12.0789 -0.073106 0)
(12.1638 -0.0573369 0)
(12.2268 -0.0707141 0)
(12.3009 -0.0618089 0)
(12.3563 -0.0818021 0)
(12.4171 -0.0810756 0)
(12.4574 -0.107434 0)
(12.4815 -0.110986 0)
(12.4177 -0.110184 0)
(10.0489 -0.252114 0)
(10.3157 -0.450898 0)
(10.8924 -0.374316 0)
(11.1726 -0.244457 0)
(11.517 -0.159147 0)
(11.5906 -0.148515 0)
(11.7867 -0.138867 0)
(11.8008 -0.140367 0)
(11.9607 -0.115678 0)
(11.967 -0.113279 0)
(12.11 -0.0879657 0)
(12.1124 -0.0939423 0)
(12.2379 -0.0742422 0)
(12.2347 -0.0906033 0)
(12.3388 -0.0755422 0)
(12.3277 -0.101794 0)
(12.4045 -0.0932346 0)
(12.3787 -0.131788 0)
(12.4034 -0.127182 0)
(12.2865 -0.145878 0)
(10.0445 -0.346587 0)
(10.392 -0.561137 0)
(11.0455 -0.458086 0)
(11.2897 -0.289223 0)
(11.6473 -0.206813 0)
(11.6505 -0.187759 0)
(11.8661 -0.17525 0)
(11.7925 -0.165328 0)
(11.9643 -0.141691 0)
(11.8595 -0.12988 0)
(12.0088 -0.10714 0)
(11.8855 -0.105585 0)
(12.0156 -0.0881368 0)
(11.878 -0.0983269 0)
(11.9846 -0.0835473 0)
(11.8346 -0.10616 0)
(11.9072 -0.0949556 0)
(11.7417 -0.136459 0)
(11.7473 -0.127183 0)
(11.5146 -0.166066 0)
(9.9997 -0.45555 0)
(10.5563 -0.699162 0)
(11.1677 -0.540778 0)
(11.358 -0.347484 0)
(11.5517 -0.257969 0)
(11.4372 -0.222911 0)
(11.4874 -0.195733 0)
(11.276 -0.171652 0)
(11.2992 -0.142688 0)
(11.0567 -0.122834 0)
(11.0919 -0.100164 0)
(10.8419 -0.0923922 0)
(10.8961 -0.0768358 0)
(10.6407 -0.0809644 0)
(10.7057 -0.0682619 0)
(10.4404 -0.0856592 0)
(10.4982 -0.074084 0)
(10.2134 -0.114552 0)
(10.2179 -0.0990451 0)
(9.88103 -0.160738 0)
(10.0544 -0.628671 0)
(10.6508 -0.855742 0)
(10.8685 -0.595513 0)
(10.6876 -0.368557 0)
(10.4646 -0.252097 0)
(10.0878 -0.192359 0)
(9.85895 -0.149785 0)
(9.50535 -0.11893 0)
(9.3564 -0.0910879 0)
(9.05358 -0.0735279 0)
(8.98891 -0.0567493 0)
(8.72405 -0.0511577 0)
(8.72045 -0.042141 0)
(8.46792 -0.0447995 0)
(8.49904 -0.0397206 0)
(8.23687 -0.0494396 0)
(8.27686 -0.0484476 0)
(7.98223 -0.0697022 0)
(7.98489 -0.0734949 0)
(7.63136 -0.0923548 0)
(10.0743 -0.833443 0)
(9.66003 -0.861024 0)
(8.88916 -0.502506 0)
(8.10664 -0.258959 0)
(7.52792 -0.136262 0)
(7.04395 -0.0804104 0)
(6.74915 -0.0524942 0)
(6.44773 -0.0392199 0)
(6.2973 -0.0285324 0)
(6.08101 -0.0235982 0)
(6.01636 -0.0177724 0)
(5.83877 -0.0178177 0)
(5.82298 -0.0146332 0)
(5.65213 -0.0181321 0)
(5.65921 -0.0159405 0)
(5.47425 -0.0226873 0)
(5.48463 -0.0224487 0)
(5.26091 -0.0330292 0)
(5.25206 -0.0403396 0)
(4.94134 -0.0246534 0)
(8.09386 -0.386046 0)
(5.47561 -0.241876 0)
(3.95054 -0.0433631 0)
(3.20095 0.0150167 0)
(2.84931 0.0179934 0)
(2.64851 0.0109369 0)
(2.54014 0.0055956 0)
(2.43601 0.00218503 0)
(2.38272 0.00152755 0)
(2.30962 0.000353781 0)
(2.28606 0.000744814 0)
(2.22636 -0.000291639 0)
(2.21689 0.000218885 0)
(2.15554 -0.00114059 0)
(2.1492 -0.000348236 0)
(2.07749 -0.00237065 0)
(2.06491 -0.00126953 0)
(1.97206 -0.00401729 0)
(1.93433 -0.00514903 0)
(1.76999 0.0122014 0)
(2.23393 -0.0770244 0)
(2.3998 0.0212222 0)
(2.69521 0.0190048 0)
(2.95401 -0.0111107 0)
(3.19276 -0.0398674 0)
(3.37199 -0.0558558 0)
(3.54633 -0.0673053 0)
(3.67354 -0.0708288 0)
(3.80585 -0.0879354 0)
(3.92266 -0.107963 0)
(4.04967 -0.128725 0)
(4.1622 -0.147518 0)
(4.28611 -0.168543 0)
(4.39819 -0.188067 0)
(4.51458 -0.211201 0)
(4.63033 -0.231763 0)
(4.74766 -0.253958 0)
(4.87579 -0.27656 0)
(5.01613 -0.30021 0)
(5.16422 -0.323168 0)
(5.30981 -0.357362 0)
(5.45472 -0.394569 0)
(5.5843 -0.431699 0)
(5.70985 -0.466609 0)
(5.82355 -0.498031 0)
(5.93071 -0.525739 0)
(6.03843 -0.55177 0)
(6.13976 -0.571451 0)
(6.25382 -0.587599 0)
(6.36687 -0.604027 0)
(6.50103 -0.627026 0)
(6.64102 -0.655614 0)
(6.79335 -0.692762 0)
(6.9469 -0.73331 0)
(7.09373 -0.775586 0)
(7.24139 -0.818014 0)
(7.37335 -0.857395 0)
(7.51238 -0.896692 0)
(7.63318 -0.936984 0)
(7.76827 -0.981078 0)
(7.88316 -1.02575 0)
(8.0084 -1.07508 0)
(8.11302 -1.12634 0)
(8.21911 -1.17907 0)
(8.30781 -1.22985 0)
(8.39321 -1.27752 0)
(8.47038 -1.32266 0)
(8.54564 -1.36226 0)
(8.61915 -1.39989 0)
(8.69343 -1.42936 0)
(8.76764 -1.4586 0)
(8.84641 -1.47742 0)
(8.92182 -1.49993 0)
(9.00376 -1.51339 0)
(9.07783 -1.53469 0)
(9.1557 -1.54852 0)
(9.22542 -1.5712 0)
(9.28941 -1.58565 0)
(9.34956 -1.60616 0)
(9.39785 -1.61881 0)
(9.45222 -1.64113 0)
(9.49668 -1.65636 0)
(9.54622 -1.6839 0)
(9.5978 -1.70028 0)
(9.6317 -1.72503 0)
(9.68503 -1.73713 0)
(9.69881 -1.74699 0)
(9.73711 -1.74494 0)
(9.74218 -1.74082 0)
(9.76887 -1.73257 0)
(9.77673 -1.72822 0)
(9.797 -1.71328 0)
(9.79055 -1.70571 0)
(9.81143 -1.6871 0)
(9.79918 -1.68146 0)
(9.8259 -1.66395 0)
(9.81252 -1.66004 0)
(9.84584 -1.65097 0)
(9.83725 -1.65207 0)
(9.86492 -1.64321 0)
(9.86291 -1.63794 0)
(9.87295 -1.61174 0)
(9.8657 -1.5851 0)
(9.85212 -1.54236 0)
(9.83947 -1.49344 0)
(9.79798 -1.43606 0)
(9.78007 -1.37896 0)
(9.73004 -1.31686 0)
(9.69873 -1.25631 0)
(9.64319 -1.18744 0)
(9.59836 -1.11967 0)
(9.53737 -1.03465 0)
(9.47263 -0.957567 0)
(9.40108 -0.870169 0)
(9.32544 -0.794608 0)
(9.25481 -0.70846 0)
(9.17071 -0.63608 0)
(9.10333 -0.556734 0)
(9.02237 -0.496691 0)
(8.98142 -0.434422 0)
(8.9009 -0.39449 0)
(8.89174 -0.340579 0)
(8.81911 -0.324783 0)
(8.83461 -0.278859 0)
(8.76128 -0.245876 0)
(8.77994 -0.19297 0)
(8.70182 -0.154528 0)
(8.7127 -0.0956483 0)
(8.6235 -0.051137 0)
(8.61595 0.00822296 0)
(8.50961 0.0548079 0)
(8.48323 0.113603 0)
(8.35363 0.154698 0)
(8.32528 0.213164 0)
(8.18097 0.240724 0)
(8.19766 0.295025 0)
(8.05176 0.310843 0)
(8.09715 0.367436 0)
(7.9332 0.387064 0)
(7.97002 0.453051 0)
(7.80861 0.471546 0)
(7.85544 0.526736 0)
(7.7165 0.526543 0)
(7.78156 0.570614 0)
(7.64689 0.549784 0)
(7.72469 0.585662 0)
(7.59573 0.554245 0)
(7.67368 0.595284 0)
(7.55929 0.572611 0)
(7.62812 0.612036 0)
(7.52346 0.596059 0)
(7.59404 0.638009 0)
(7.48646 0.630595 0)
(7.55979 0.681654 0)
(7.44585 0.665567 0)
(7.5271 0.72165 0)
(7.40735 0.701856 0)
(7.49569 0.768257 0)
(7.37075 0.740741 0)
(7.47247 0.802195 0)
(7.33356 0.761199 0)
(7.43524 0.815043 0)
(7.30022 0.772227 0)
(7.40703 0.811817 0)
(7.28092 0.761633 0)
(7.40666 0.788946 0)
(7.24797 0.735249 0)
(7.42384 0.764509 0)
(7.21667 0.698961 0)
(7.42832 0.726763 0)
(7.1939 0.662055 0)
(7.40479 0.690883 0)
(7.17868 0.628157 0)
(7.36692 0.653715 0)
(7.16227 0.590404 0)
(7.31939 0.616494 0)
(7.15496 0.564552 0)
(7.27539 0.589021 0)
(7.15329 0.538839 0)
(7.25442 0.570153 0)
(7.16205 0.50291 0)
(7.22944 0.536848 0)
(7.17049 0.476206 0)
(7.19739 0.521425 0)
(7.141 0.473166 0)
(7.13998 0.52107 0)
(7.12829 0.485246 0)
(7.0707 0.522276 0)
(7.12448 0.509878 0)
(6.9763 0.556066 0)
(7.10693 0.542311 0)
(6.85863 0.610612 0)
(7.05231 0.581953 0)
(6.74853 0.693006 0)
(6.99645 0.622176 0)
(6.64353 0.810757 0)
(6.97945 0.686355 0)
(6.53742 0.950989 0)
(7.0066 0.777416 0)
(6.42718 1.11604 0)
(7.0149 0.895863 0)
(6.36949 1.31053 0)
(6.95529 1.03512 0)
(6.36345 1.52208 0)
(6.84525 1.23339 0)
(6.35267 1.75189 0)
(6.73449 1.50414 0)
(6.29668 1.99063 0)
(6.61447 1.83434 0)
(6.15464 2.24456 0)
(6.50123 2.22884 0)
(5.92291 2.56691 0)
(6.32817 2.6882 0)
(5.68917 3.06815 0)
(6.03128 3.2408 0)
(5.5694 3.95405 0)
(5.66719 4.09643 0)
(5.20268 5.35142 0)
(6.12101 6.1126 0)
(3.85933 9.033 0)
(5.30083 -0.0531434 0)
(5.29399 -0.0204059 0)
(5.34917 -0.0398683 0)
(5.45608 -0.086684 0)
(5.58688 -0.126546 0)
(5.70208 -0.147309 0)
(5.80177 -0.157834 0)
(5.87787 -0.16392 0)
(5.94253 -0.174885 0)
(6.00182 -0.191619 0)
(6.06465 -0.212917 0)
(6.13086 -0.235404 0)
(6.20586 -0.25862 0)
(6.28542 -0.280607 0)
(6.37168 -0.30246 0)
(6.46181 -0.325425 0)
(6.55766 -0.349015 0)
(6.65559 -0.374126 0)
(6.7596 -0.4022 0)
(6.86723 -0.431089 0)
(6.97622 -0.463973 0)
(7.08694 -0.499727 0)
(7.18982 -0.534068 0)
(7.29171 -0.56709 0)
(7.38785 -0.595992 0)
(7.48196 -0.622305 0)
(7.57875 -0.644412 0)
(7.67249 -0.665285 0)
(7.77517 -0.685135 0)
(7.87332 -0.707087 0)
(7.98647 -0.732789 0)
(8.09258 -0.763182 0)
(8.21467 -0.799578 0)
(8.32229 -0.837853 0)
(8.44098 -0.878603 0)
(8.54098 -0.915979 0)
(8.64677 -0.954957 0)
(8.73846 -0.989332 0)
(8.8295 -1.02853 0)
(8.91664 -1.06543 0)
(8.99815 -1.10949 0)
(9.08399 -1.15136 0)
(9.15956 -1.19999 0)
(9.24224 -1.24477 0)
(9.31368 -1.29284 0)
(9.38983 -1.33567 0)
(9.45891 -1.3792 0)
(9.52692 -1.41707 0)
(9.59436 -1.4539 0)
(9.65335 -1.48405 0)
(9.7182 -1.51194 0)
(9.76782 -1.53257 0)
(9.82838 -1.55238 0)
(9.86875 -1.56586 0)
(9.92348 -1.58179 0)
(9.95592 -1.59288 0)
(10.0037 -1.60871 0)
(10.0309 -1.62201 0)
(10.0729 -1.63905 0)
(10.0969 -1.65666 0)
(10.1369 -1.67563 0)
(10.1526 -1.69646 0)
(10.19 -1.71583 0)
(10.1887 -1.73282 0)
(10.2173 -1.74607 0)
(10.1997 -1.75035 0)
(10.209 -1.74948 0)
(10.1856 -1.74222 0)
(10.1849 -1.73844 0)
(10.1673 -1.73383 0)
(10.1585 -1.72195 0)
(10.1381 -1.70972 0)
(10.1245 -1.69503 0)
(10.1046 -1.68339 0)
(10.0843 -1.67564 0)
(10.0722 -1.66194 0)
(10.042 -1.65986 0)
(10.0399 -1.64743 0)
(9.99402 -1.64681 0)
(9.99514 -1.63448 0)
(9.9405 -1.62429 0)
(9.93074 -1.59295 0)
(9.87226 -1.56584 0)
(9.85013 -1.51201 0)
(9.78466 -1.4615 0)
(9.75233 -1.39788 0)
(9.68748 -1.34189 0)
(9.64646 -1.27027 0)
(9.57147 -1.21237 0)
(9.52277 -1.1351 0)
(9.44413 -1.06629 0)
(9.37877 -0.973402 0)
(9.29075 -0.898982 0)
(9.20858 -0.806199 0)
(9.11647 -0.732189 0)
(9.0255 -0.640555 0)
(8.94297 -0.572491 0)
(8.85541 -0.495117 0)
(8.80668 -0.445623 0)
(8.73487 -0.390759 0)
(8.71169 -0.361854 0)
(8.66502 -0.319222 0)
(8.65839 -0.307232 0)
(8.61035 -0.260753 0)
(8.6097 -0.222803 0)
(8.55047 -0.168241 0)
(8.54567 -0.120786 0)
(8.46783 -0.0592024 0)
(8.45191 -0.00571208 0)
(8.35021 0.0599126 0)
(8.33189 0.117446 0)
(8.20223 0.183085 0)
(8.17939 0.233468 0)
(8.03468 0.28214 0)
(8.03974 0.301945 0)
(7.90872 0.34125 0)
(7.91866 0.362263 0)
(7.78603 0.416751 0)
(7.79182 0.445648 0)
(7.65208 0.499262 0)
(7.68402 0.518466 0)
(7.54721 0.553582 0)
(7.61541 0.557741 0)
(7.48534 0.58677 0)
(7.57824 0.574804 0)
(7.44668 0.601672 0)
(7.55905 0.578007 0)
(7.40883 0.608991 0)
(7.53869 0.594705 0)
(7.37874 0.624355 0)
(7.5133 0.609161 0)
(7.35592 0.650163 0)
(7.48828 0.637844 0)
(7.33421 0.692422 0)
(7.47118 0.679411 0)
(7.29678 0.731219 0)
(7.46098 0.716713 0)
(7.2595 0.764829 0)
(7.45644 0.755114 0)
(7.23614 0.791585 0)
(7.46067 0.781979 0)
(7.20779 0.812197 0)
(7.45042 0.791733 0)
(7.19766 0.811679 0)
(7.43288 0.771945 0)
(7.2003 0.79512 0)
(7.41111 0.737449 0)
(7.19816 0.769143 0)
(7.42099 0.698574 0)
(7.19285 0.732698 0)
(7.4279 0.657424 0)
(7.18199 0.693403 0)
(7.41313 0.620369 0)
(7.17183 0.664984 0)
(7.39796 0.58252 0)
(7.15445 0.634828 0)
(7.3917 0.539559 0)
(7.13895 0.614519 0)
(7.41821 0.506032 0)
(7.12792 0.596326 0)
(7.47186 0.473103 0)
(7.11569 0.571319 0)
(7.48646 0.45422 0)
(7.10876 0.56901 0)
(7.46395 0.443267 0)
(7.09977 0.57177 0)
(7.45401 0.431374 0)
(7.07448 0.599943 0)
(7.41633 0.435423 0)
(7.03586 0.655699 0)
(7.36312 0.458639 0)
(6.98422 0.731785 0)
(7.31367 0.487586 0)
(6.91811 0.821057 0)
(7.27902 0.524388 0)
(6.83271 0.923812 0)
(7.30436 0.592907 0)
(6.74277 1.04954 0)
(7.34157 0.698379 0)
(6.67917 1.20382 0)
(7.333 0.831973 0)
(6.64827 1.36983 0)
(7.29695 1.02007 0)
(6.60575 1.5438 0)
(7.28181 1.26592 0)
(6.53496 1.7382 0)
(7.28854 1.55545 0)
(6.444 1.97897 0)
(7.28335 1.86766 0)
(6.35538 2.31598 0)
(7.20692 2.1956 0)
(6.32013 2.78742 0)
(6.99809 2.57101 0)
(6.31074 3.41215 0)
(6.7252 3.14342 0)
(6.16787 4.2166 0)
(6.88988 4.18703 0)
(5.57576 5.57986 0)
(8.32447 5.27982 0)
(6.29176 9.65474 0)
(7.9149 -0.0804867 0)
(7.92017 -0.0889223 0)
(7.95295 -0.111182 0)
(8.02936 -0.139274 0)
(8.12269 -0.161215 0)
(8.20622 -0.17372 0)
(8.26322 -0.181342 0)
(8.29889 -0.188249 0)
(8.31709 -0.199276 0)
(8.3355 -0.216528 0)
(8.35526 -0.239688 0)
(8.38707 -0.2665 0)
(8.4236 -0.294976 0)
(8.47141 -0.323785 0)
(8.52154 -0.352073 0)
(8.5807 -0.38019 0)
(8.64017 -0.40798 0)
(8.70511 -0.436157 0)
(8.76695 -0.465418 0)
(8.83426 -0.496532 0)
(8.89574 -0.529396 0)
(8.96482 -0.564326 0)
(9.02436 -0.597967 0)
(9.09327 -0.630862 0)
(9.15157 -0.659929 0)
(9.22251 -0.687358 0)
(9.28273 -0.710556 0)
(9.35851 -0.734007 0)
(9.42188 -0.755044 0)
(9.49937 -0.779578 0)
(9.56499 -0.804349 0)
(9.64062 -0.83559 0)
(9.70739 -0.867854 0)
(9.77555 -0.905641 0)
(9.83958 -0.9418 0)
(9.8965 -0.980104 0)
(9.95727 -1.01497 0)
(10.0055 -1.05058 0)
(10.0645 -1.08474 0)
(10.1086 -1.12043 0)
(10.1678 -1.15833 0)
(10.2145 -1.19804 0)
(10.2732 -1.24174 0)
(10.3237 -1.28522 0)
(10.3772 -1.33129 0)
(10.4283 -1.37448 0)
(10.4717 -1.41772 0)
(10.5182 -1.45602 0)
(10.5487 -1.49187 0)
(10.5873 -1.52169 0)
(10.6064 -1.54691 0)
(10.6354 -1.56718 0)
(10.6467 -1.58285 0)
(10.6657 -1.59545 0)
(10.6736 -1.60676 0)
(10.6861 -1.61658 0)
(10.6945 -1.63041 0)
(10.7066 -1.64296 0)
(10.7144 -1.66105 0)
(10.7273 -1.67554 0)
(10.7243 -1.69148 0)
(10.731 -1.7043 0)
(10.7081 -1.71383 0)
(10.6979 -1.72261 0)
(10.6551 -1.72295 0)
(10.6224 -1.72325 0)
(10.5711 -1.71754 0)
(10.531 -1.71482 0)
(10.4885 -1.71046 0)
(10.4433 -1.70637 0)
(10.3993 -1.69599 0)
(10.3507 -1.68396 0)
(10.3091 -1.66634 0)
(10.2544 -1.65722 0)
(10.2149 -1.64446 0)
(10.1498 -1.63503 0)
(10.1046 -1.62638 0)
(10.0362 -1.61373 0)
(9.98325 -1.61183 0)
(9.92276 -1.59797 0)
(9.86354 -1.58629 0)
(9.80491 -1.55442 0)
(9.74891 -1.52559 0)
(9.68292 -1.46398 0)
(9.62792 -1.41856 0)
(9.56062 -1.34762 0)
(9.50005 -1.29104 0)
(9.41931 -1.2128 0)
(9.35873 -1.1572 0)
(9.26619 -1.07443 0)
(9.20723 -1.00231 0)
(9.10068 -0.903581 0)
(9.0313 -0.830665 0)
(8.91726 -0.730568 0)
(8.8462 -0.659626 0)
(8.73826 -0.567174 0)
(8.66593 -0.510769 0)
(8.57999 -0.439909 0)
(8.54304 -0.40517 0)
(8.47622 -0.355955 0)
(8.46673 -0.342175 0)
(8.41839 -0.302495 0)
(8.4043 -0.296605 0)
(8.35851 -0.238898 0)
(8.33355 -0.203281 0)
(8.28475 -0.132656 0)
(8.23791 -0.0902968 0)
(8.18857 -0.00894288 0)
(8.11855 0.036609 0)
(8.0648 0.126919 0)
(7.97624 0.173655 0)
(7.90989 0.266683 0)
(7.81832 0.292062 0)
(7.78451 0.344933 0)
(7.71186 0.347472 0)
(7.66913 0.40573 0)
(7.57702 0.416089 0)
(7.53545 0.485631 0)
(7.43037 0.493202 0)
(7.42303 0.5594 0)
(7.32522 0.546646 0)
(7.34853 0.595386 0)
(7.26937 0.565179 0)
(7.31393 0.61017 0)
(7.2474 0.571218 0)
(7.30706 0.622687 0)
(7.23868 0.575592 0)
(7.30411 0.635226 0)
(7.2305 0.586881 0)
(7.30713 0.652109 0)
(7.22224 0.59953 0)
(7.29883 0.682888 0)
(7.21353 0.62729 0)
(7.28664 0.727891 0)
(7.2067 0.675513 0)
(7.2607 0.77357 0)
(7.1973 0.719275 0)
(7.23486 0.797376 0)
(7.19076 0.746802 0)
(7.23639 0.814316 0)
(7.18927 0.764163 0)
(7.2607 0.839162 0)
(7.17564 0.771706 0)
(7.2858 0.838785 0)
(7.16693 0.753191 0)
(7.29677 0.822784 0)
(7.15846 0.724354 0)
(7.30596 0.79562 0)
(7.15913 0.680732 0)
(7.32415 0.766209 0)
(7.14749 0.63922 0)
(7.3522 0.741065 0)
(7.11831 0.595249 0)
(7.3648 0.721369 0)
(7.10726 0.553075 0)
(7.36829 0.703754 0)
(7.11663 0.499716 0)
(7.35902 0.665985 0)
(7.16796 0.451548 0)
(7.35787 0.627745 0)
(7.22494 0.426035 0)
(7.37476 0.618902 0)
(7.22296 0.41534 0)
(7.39082 0.631623 0)
(7.22735 0.396976 0)
(7.39931 0.639922 0)
(7.21696 0.391402 0)
(7.37836 0.686985 0)
(7.20748 0.412873 0)
(7.32502 0.745263 0)
(7.21503 0.445976 0)
(7.23058 0.813373 0)
(7.28324 0.475446 0)
(7.08813 0.888695 0)
(7.402 0.519729 0)
(6.92799 0.981352 0)
(7.5276 0.584061 0)
(6.79184 1.10403 0)
(7.61881 0.687614 0)
(6.69984 1.24454 0)
(7.67047 0.835222 0)
(6.61839 1.40124 0)
(7.69251 1.02229 0)
(6.54437 1.59001 0)
(7.68101 1.23054 0)
(6.50819 1.83248 0)
(7.62355 1.4571 0)
(6.53446 2.14702 0)
(7.49762 1.70412 0)
(6.63028 2.52375 0)
(7.33286 2.02469 0)
(6.73743 2.96305 0)
(7.27391 2.48266 0)
(6.70126 3.46612 0)
(7.56001 3.11446 0)
(6.38363 4.29866 0)
(8.44943 3.71434 0)
(6.13604 6.17124 0)
(9.5258 3.68781 0)
(7.94379 8.83469 0)
(10.0711 -0.115748 0)
(10.092 -0.22739 0)
(10.1429 -0.273123 0)
(10.2125 -0.268771 0)
(10.2844 -0.24666 0)
(10.3384 -0.225021 0)
(10.3696 -0.21292 0)
(10.382 -0.210711 0)
(10.3845 -0.218632 0)
(10.3868 -0.234632 0)
(10.3926 -0.258173 0)
(10.4054 -0.286212 0)
(10.4224 -0.317673 0)
(10.445 -0.349358 0)
(10.4692 -0.38141 0)
(10.4968 -0.411707 0)
(10.5238 -0.441973 0)
(10.5527 -0.470809 0)
(10.5805 -0.500889 0)
(10.6104 -0.530795 0)
(10.6398 -0.562895 0)
(10.6706 -0.594878 0)
(10.7006 -0.628261 0)
(10.7314 -0.659464 0)
(10.761 -0.690509 0)
(10.7928 -0.717978 0)
(10.8214 -0.744667 0)
(10.8554 -0.768289 0)
(10.8827 -0.792447 0)
(10.919 -0.815946 0)
(10.9426 -0.841608 0)
(10.9793 -0.869065 0)
(10.9976 -0.899067 0)
(11.0323 -0.932346 0)
(11.0451 -0.965862 0)
(11.0756 -1.00214 0)
(11.0861 -1.03598 0)
(11.1131 -1.07359 0)
(11.1275 -1.10778 0)
(11.1524 -1.14678 0)
(11.1741 -1.1834 0)
(11.1975 -1.22628 0)
(11.2248 -1.26746 0)
(11.2438 -1.31303 0)
(11.2698 -1.35603 0)
(11.2807 -1.39988 0)
(11.2987 -1.43923 0)
(11.2999 -1.47607 0)
(11.3067 -1.50707 0)
(11.3 -1.5336 0)
(11.2958 -1.55427 0)
(11.2832 -1.57072 0)
(11.2702 -1.58228 0)
(11.2537 -1.59244 0)
(11.2382 -1.60108 0)
(11.2219 -1.61192 0)
(11.2088 -1.62347 0)
(11.1904 -1.63622 0)
(11.1755 -1.64865 0)
(11.1449 -1.65805 0)
(11.1188 -1.66719 0)
(11.071 -1.67059 0)
(11.0268 -1.67486 0)
(10.9636 -1.67125 0)
(10.8951 -1.66854 0)
(10.825 -1.66404 0)
(10.7435 -1.66516 0)
(10.6797 -1.66699 0)
(10.5926 -1.66214 0)
(10.531 -1.65736 0)
(10.4378 -1.64673 0)
(10.3703 -1.6336 0)
(10.2781 -1.61517 0)
(10.2134 -1.6046 0)
(10.1155 -1.58642 0)
(10.0393 -1.57781 0)
(9.94029 -1.56069 0)
(9.86566 -1.55716 0)
(9.77867 -1.55031 0)
(9.7179 -1.54288 0)
(9.63212 -1.52322 0)
(9.5811 -1.50035 0)
(9.48781 -1.45851 0)
(9.43593 -1.40645 0)
(9.34124 -1.35602 0)
(9.28464 -1.28564 0)
(9.18261 -1.22405 0)
(9.12043 -1.15911 0)
(9.02486 -1.09616 0)
(8.96096 -1.01636 0)
(8.85431 -0.935343 0)
(8.78595 -0.832778 0)
(8.66874 -0.752747 0)
(8.60459 -0.651083 0)
(8.49571 -0.582992 0)
(8.44098 -0.491811 0)
(8.33753 -0.451322 0)
(8.30567 -0.387294 0)
(8.22725 -0.371527 0)
(8.20486 -0.319724 0)
(8.15199 -0.318783 0)
(8.123 -0.268315 0)
(8.07309 -0.27363 0)
(8.03945 -0.198568 0)
(7.98727 -0.177652 0)
(7.94424 -0.0870505 0)
(7.87541 -0.0564559 0)
(7.82668 0.0484056 0)
(7.74441 0.0821794 0)
(7.68349 0.195408 0)
(7.58073 0.233438 0)
(7.51847 0.3304 0)
(7.45582 0.31937 0)
(7.42827 0.385677 0)
(7.35733 0.385925 0)
(7.32191 0.466987 0)
(7.22997 0.46765 0)
(7.18977 0.54954 0)
(7.09393 0.534679 0)
(7.0939 0.605539 0)
(7.01089 0.561668 0)
(7.04097 0.619967 0)
(6.98374 0.56068 0)
(7.01697 0.622406 0)
(6.99184 0.555732 0)
(7.01825 0.625237 0)
(7.00387 0.558381 0)
(7.03688 0.641228 0)
(7.02649 0.563286 0)
(7.06192 0.662695 0)
(7.05574 0.580685 0)
(7.07652 0.697782 0)
(7.07015 0.615878 0)
(7.08478 0.743356 0)
(7.07702 0.666358 0)
(7.08656 0.790295 0)
(7.07587 0.712699 0)
(7.08549 0.809194 0)
(7.07147 0.731211 0)
(7.11058 0.820575 0)
(7.08029 0.740096 0)
(7.15357 0.84282 0)
(7.10762 0.748993 0)
(7.18306 0.845715 0)
(7.14965 0.73964 0)
(7.19764 0.832752 0)
(7.17834 0.714601 0)
(7.21723 0.800823 0)
(7.20938 0.671126 0)
(7.21983 0.763888 0)
(7.23876 0.625207 0)
(7.22048 0.746572 0)
(7.28457 0.587366 0)
(7.20026 0.719262 0)
(7.32454 0.535834 0)
(7.19514 0.697096 0)
(7.36686 0.487202 0)
(7.19436 0.658241 0)
(7.42364 0.444296 0)
(7.18931 0.619365 0)
(7.45923 0.405629 0)
(7.20249 0.627369 0)
(7.50062 0.383925 0)
(7.16633 0.628695 0)
(7.59689 0.374868 0)
(7.10001 0.65417 0)
(7.66337 0.374864 0)
(7.01242 0.705463 0)
(7.73891 0.380044 0)
(6.91993 0.777344 0)
(7.83277 0.390319 0)
(6.81371 0.851231 0)
(7.94933 0.414939 0)
(6.69782 0.931094 0)
(8.039 0.450975 0)
(6.61155 1.02957 0)
(8.05903 0.512423 0)
(6.5862 1.1548 0)
(8.03663 0.611756 0)
(6.60712 1.31003 0)
(7.99698 0.753066 0)
(6.66925 1.50437 0)
(7.92665 0.919491 0)
(6.7744 1.72723 0)
(7.81201 1.11243 0)
(6.90594 1.98167 0)
(7.70283 1.35112 0)
(7.01137 2.27591 0)
(7.67495 1.65358 0)
(7.01127 2.61463 0)
(7.80102 2.00258 0)
(6.86788 3.05674 0)
(8.16271 2.37982 0)
(6.5957 3.723 0)
(8.80436 2.63768 0)
(6.44178 4.83995 0)
(9.63031 2.63299 0)
(7.03153 6.48152 0)
(9.98748 2.86819 0)
(8.76271 7.68191 0)
(11.5455 -0.102597 0)
(11.586 -0.242607 0)
(11.7042 -0.301095 0)
(11.7988 -0.296769 0)
(11.8644 -0.266004 0)
(11.893 -0.23358 0)
(11.9022 -0.214031 0)
(11.8928 -0.209583 0)
(11.8836 -0.21875 0)
(11.8693 -0.237264 0)
(11.8633 -0.263217 0)
(11.856 -0.29295 0)
(11.8571 -0.325459 0)
(11.8564 -0.357908 0)
(11.8621 -0.390508 0)
(11.8649 -0.421517 0)
(11.8722 -0.452019 0)
(11.8764 -0.481376 0)
(11.8841 -0.51112 0)
(11.8887 -0.541 0)
(11.8961 -0.572237 0)
(11.8987 -0.603961 0)
(11.9042 -0.636703 0)
(11.9024 -0.668413 0)
(11.905 -0.699964 0)
(11.8986 -0.728766 0)
(11.8995 -0.756973 0)
(11.8906 -0.781699 0)
(11.8921 -0.807405 0)
(11.884 -0.830033 0)
(11.8865 -0.85593 0)
(11.8808 -0.879715 0)
(11.8825 -0.909378 0)
(11.8801 -0.937019 0)
(11.8785 -0.970991 0)
(11.8795 -1.00243 0)
(11.8735 -1.03989 0)
(11.878 -1.07462 0)
(11.8684 -1.11451 0)
(11.8756 -1.15237 0)
(11.8634 -1.19476 0)
(11.8703 -1.23606 0)
(11.8555 -1.27995 0)
(11.8579 -1.32263 0)
(11.8393 -1.365 0)
(11.8327 -1.4045 0)
(11.8092 -1.44096 0)
(11.7917 -1.47267 0)
(11.7623 -1.49988 0)
(11.7333 -1.52081 0)
(11.6969 -1.53811 0)
(11.6588 -1.54923 0)
(11.6179 -1.56073 0)
(11.5778 -1.56875 0)
(11.5363 -1.58049 0)
(11.4971 -1.5895 0)
(11.4508 -1.60062 0)
(11.4055 -1.60797 0)
(11.3466 -1.61513 0)
(11.2887 -1.61968 0)
(11.2181 -1.62327 0)
(11.1433 -1.62197 0)
(11.0634 -1.61854 0)
(10.9696 -1.60886 0)
(10.8868 -1.60398 0)
(10.7861 -1.59764 0)
(10.7062 -1.59951 0)
(10.5958 -1.59393 0)
(10.5032 -1.59135 0)
(10.3886 -1.57658 0)
(10.2866 -1.56649 0)
(10.1689 -1.54663 0)
(10.0691 -1.53516 0)
(9.95669 -1.51505 0)
(9.85104 -1.50157 0)
(9.73838 -1.48804 0)
(9.63732 -1.48279 0)
(9.54497 -1.48318 0)
(9.46505 -1.48615 0)
(9.38403 -1.47628 0)
(9.30566 -1.4636 0)
(9.22775 -1.43362 0)
(9.1376 -1.39337 0)
(9.06704 -1.3433 0)
(8.97304 -1.29139 0)
(8.89383 -1.22055 0)
(8.81136 -1.1648 0)
(8.73157 -1.09751 0)
(8.64993 -1.03716 0)
(8.57084 -0.93825 0)
(8.47005 -0.860073 0)
(8.38603 -0.749288 0)
(8.29902 -0.685916 0)
(8.21491 -0.575954 0)
(8.15191 -0.532319 0)
(8.06807 -0.426292 0)
(8.02013 -0.417429 0)
(7.94711 -0.327558 0)
(7.89981 -0.346664 0)
(7.83441 -0.268034 0)
(7.80389 -0.296315 0)
(7.72748 -0.213511 0)
(7.712 -0.247798 0)
(7.6175 -0.138428 0)
(7.60617 -0.140989 0)
(7.49049 -0.0226443 0)
(7.48004 -0.0113616 0)
(7.34999 0.120635 0)
(7.32795 0.136134 0)
(7.17866 0.283316 0)
(7.15553 0.286468 0)
(7.05404 0.381845 0)
(7.06767 0.337341 0)
(6.96357 0.443454 0)
(6.96775 0.414235 0)
(6.86462 0.539493 0)
(6.84424 0.509891 0)
(6.74422 0.62721 0)
(6.74631 0.559699 0)
(6.66021 0.658023 0)
(6.69066 0.559558 0)
(6.61971 0.65594 0)
(6.68186 0.548087 0)
(6.61249 0.646038 0)
(6.70645 0.538479 0)
(6.62785 0.639881 0)
(6.73475 0.528934 0)
(6.67121 0.649473 0)
(6.77673 0.52992 0)
(6.72492 0.676047 0)
(6.83044 0.552471 0)
(6.76719 0.713568 0)
(6.86487 0.592877 0)
(6.79996 0.765335 0)
(6.89436 0.639536 0)
(6.82809 0.81575 0)
(6.91821 0.683497 0)
(6.84926 0.838771 0)
(6.93643 0.691258 0)
(6.8827 0.846845 0)
(6.97843 0.692487 0)
(6.9162 0.861342 0)
(7.04445 0.697308 0)
(6.96439 0.85966 0)
(7.10487 0.69321 0)
(7.00835 0.851389 0)
(7.15552 0.669867 0)
(7.03398 0.826383 0)
(7.2038 0.62988 0)
(7.04577 0.807029 0)
(7.25366 0.577197 0)
(7.03869 0.791063 0)
(7.32623 0.543346 0)
(7.03861 0.77689 0)
(7.36979 0.489829 0)
(7.05736 0.743422 0)
(7.40743 0.431571 0)
(7.08072 0.704265 0)
(7.43239 0.381122 0)
(7.113 0.691102 0)
(7.43245 0.331197 0)
(7.13107 0.705682 0)
(7.50799 0.317078 0)
(7.09043 0.705155 0)
(7.59794 0.303101 0)
(7.05112 0.765896 0)