/*--------------------------------*- C++ -*----------------------------------*\
| =========                 |                                                 |
| \\      /  F ield         | OpenFOAM: The Open Source CFD Toolbox           |
|  \\    /   O peration     | Version:  2.4.0                                 |
|   \\  /    A nd           | Web:      www.OpenFOAM.org                      |
|    \\/     M anipulation  |                                                 |
\*---------------------------------------------------------------------------*/
FoamFile
{
    version     2.0;
    format      ascii;
    class       volSymmTensorField;
    location    "0.38";
    object      UPrime2Mean;
}
// * * * * * * * * * * * * * * * * * * * * * * * * * * * * * * * * * * * * * //

dimensions      [0 2 -2 0 0 0 0];

internalField   nonuniform List<symmTensor> 
8800
(
(0.00436534 0.000279653 0 0.000498619 0 0)
(0.0839143 -0.00329862 0 0.000179572 0 0)
(0.164233 -0.00028814 0 3.72637e-05 0 0)
(0.204584 0.000519004 0 1.01727e-05 0 0)
(0.233939 0.000428598 0 2.52218e-06 0 0)
(0.257067 0.000320862 0 1.62993e-06 0 0)
(0.271363 0.000241351 0 1.77818e-06 0 0)
(0.284028 0.000127239 0 1.79925e-06 0 0)
(0.291097 9.59062e-05 0 2.24775e-06 0 0)
(0.29994 2.27837e-05 0 2.11242e-06 0 0)
(0.303482 4.35244e-05 0 2.20678e-06 0 0)
(0.311609 -5.08715e-05 0 2.42443e-06 0 0)
(0.313601 -2.00942e-05 0 2.54206e-06 0 0)
(0.324376 -0.000158102 0 2.83787e-06 0 0)
(0.327116 -0.000273178 0 3.56387e-06 0 0)
(0.345073 -0.000148496 0 4.8231e-06 0 0)
(0.364769 -0.00236556 0 3.20048e-05 0 0)
(0.380466 0.00489944 0 0.000180042 0 0)
(0.595589 -0.0445867 0 0.00451958 0 0)
(0.614866 0.0690825 0 0.0136687 0 0)
(0.0228987 0.00758239 0 0.00296416 0 0)
(0.00198114 -0.00262456 0 0.00387925 0 0)
(0.0200526 -0.00533297 0 0.00155288 0 0)
(0.0409774 -0.00467607 0 0.000559485 0 0)
(0.0646888 -0.0041123 0 0.000281681 0 0)
(0.0977415 -0.00375731 0 0.000200926 0 0)
(0.126585 -0.00302167 0 0.000147203 0 0)
(0.159785 -0.00252074 0 0.000105575 0 0)
(0.180653 -0.00185023 0 6.25533e-05 0 0)
(0.208924 -0.00178755 0 5.13498e-05 0 0)
(0.218924 -0.00130682 0 2.52592e-05 0 0)
(0.249574 -0.0017108 0 3.29051e-05 0 0)
(0.247768 -0.00131893 0 2.43279e-05 0 0)
(0.291002 -0.00257566 0 5.94701e-05 0 0)
(0.276842 -0.00135933 0 3.18201e-05 0 0)
(0.346504 -0.00701091 0 0.00021465 0 0)
(0.333689 0.000531307 0 0.000125093 0 0)
(0.444224 -0.02786 0 0.00201758 0 0)
(0.539602 -0.011835 0 0.00125434 0 0)
(0.771844 -0.15776 0 0.0501585 0 0)
(0.0227012 0.00559264 0 0.00161684 0 0)
(0.00196652 0.00252965 0 0.00410885 0 0)
(0.00204835 0.00133423 0 0.00251562 0 0)
(0.00295732 0.000568897 0 0.00131963 0 0)
(0.00222018 -0.000181228 0 0.000978114 0 0)
(0.00430772 -0.00159959 0 0.000910995 0 0)
(0.00931651 -0.00229496 0 0.000780653 0 0)
(0.0221709 -0.00305477 0 0.000612244 0 0)
(0.0322027 -0.00278164 0 0.000428365 0 0)
(0.0517689 -0.00313922 0 0.000303462 0 0)
(0.0574406 -0.0025801 0 0.00016291 0 0)
(0.0854896 -0.00299062 0 0.000186276 0 0)
(0.082462 -0.00283158 0 0.000135485 0 0)
(0.119179 -0.00370026 0 0.000271812 0 0)
(0.115319 -0.0038094 0 0.000263333 0 0)
(0.155634 -0.00652368 0 0.000563095 0 0)
(0.17208 -0.00830318 0 0.000845233 0 0)
(0.219865 -0.0163605 0 0.00181972 0 0)
(0.290007 -0.0412645 0 0.00873763 0 0)
(0.415139 -0.10613 0 0.0531989 0 0)
(0.0219916 0.00383993 0 0.000797558 0 0)
(0.00203363 0.00169464 0 0.00270442 0 0)
(0.0048857 0.00267226 0 0.00217801 0 0)
(0.0103869 0.00293217 0 0.001221 0 0)
(0.017125 0.00351002 0 0.00102262 0 0)
(0.0152964 0.00317822 0 0.00118453 0 0)
(0.0164945 0.00309697 0 0.0012302 0 0)
(0.0110925 0.00179235 0 0.00118853 0 0)
(0.0116172 0.00140613 0 0.000949441 0 0)
(0.00811488 4.908e-05 0 0.000771724 0 0)
(0.008059 0.000280984 0 0.000433711 0 0)
(0.00880716 -0.00103873 0 0.000607016 0 0)
(0.00767939 -0.000429808 0 0.000308449 0 0)
(0.0121668 -0.00221799 0 0.000754524 0 0)
(0.0125634 -0.00103696 0 0.00042744 0 0)
(0.0198837 -0.00399968 0 0.00126249 0 0)
(0.024687 -0.0032496 0 0.000906439 0 0)
(0.0403108 -0.00936276 0 0.00417929 0 0)
(0.0602952 -0.0192127 0 0.0102895 0 0)
(0.0973492 -0.045433 0 0.0491136 0 0)
(0.0236698 0.00295896 0 0.000464422 0 0)
(0.00193889 0.000816657 0 0.00175945 0 0)
(0.00436127 0.00195609 0 0.00161647 0 0)
(0.00980569 0.00231899 0 0.0009137 0 0)
(0.0205317 0.00308097 0 0.000703297 0 0)
(0.022042 0.00341348 0 0.000899273 0 0)
(0.0312637 0.00420918 0 0.00104276 0 0)
(0.0278731 0.00386508 0 0.00114386 0 0)
(0.036745 0.00393425 0 0.000968933 0 0)
(0.031348 0.00302509 0 0.00101152 0 0)
(0.0397478 0.00315896 0 0.00050721 0 0)
(0.0328874 0.00266291 0 0.000906676 0 0)
(0.0402357 0.00255641 0 0.000420632 0 0)
(0.031832 0.00293647 0 0.00113795 0 0)
(0.0371359 0.00250194 0 0.000624496 0 0)
(0.0275636 0.00373812 0 0.00194964 0 0)
(0.0290175 0.00375785 0 0.00145223 0 0)
(0.019223 0.00619869 0 0.00691273 0 0)
(0.0187636 0.00788342 0 0.0117413 0 0)
(0.0203552 0.0114402 0 0.0668819 0 0)
(0.0242597 0.00210484 0 0.000275051 0 0)
(0.00177679 0.000449775 0 0.00122253 0 0)
(0.00312352 0.00121538 0 0.00116446 0 0)
(0.00788176 0.00167781 0 0.000704291 0 0)
(0.0168188 0.00204794 0 0.000450618 0 0)
(0.0198042 0.00244596 0 0.00059641 0 0)
(0.0277973 0.00314559 0 0.000743631 0 0)
(0.0281072 0.00338227 0 0.000898158 0 0)
(0.0366538 0.00322498 0 0.000762038 0 0)
(0.0372544 0.00309795 0 0.000836455 0 0)
(0.0462254 0.0028833 0 0.000452385 0 0)
(0.0472349 0.00334521 0 0.000747254 0 0)
(0.0562446 0.00290983 0 0.000459278 0 0)
(0.0564891 0.0043726 0 0.000879996 0 0)
(0.0640611 0.00420738 0 0.000703586 0 0)
(0.0627638 0.00662544 0 0.00152714 0 0)
(0.0663272 0.00905849 0 0.00197474 0 0)
(0.0628107 0.0149194 0 0.00603281 0 0)
(0.0634311 0.0261707 0 0.0158703 0 0)
(0.0686875 0.0453827 0 0.0514853 0 0)
(0.0231098 0.00137134 0 0.000169063 0 0)
(0.00192609 0.000335919 0 0.000847069 0 0)
(0.00250795 0.000597832 0 0.000785219 0 0)
(0.00729554 0.00128478 0 0.000566943 0 0)
(0.0138367 0.00131052 0 0.00030307 0 0)
(0.0188718 0.00177926 0 0.000429162 0 0)
(0.0231182 0.00208983 0 0.000557226 0 0)
(0.0265922 0.0026772 0 0.000661028 0 0)
(0.0307902 0.00213263 0 0.000466604 0 0)
(0.0354511 0.00256949 0 0.000691676 0 0)
(0.0400014 0.00181793 0 0.000322955 0 0)
(0.0460619 0.00307611 0 0.000659097 0 0)
(0.0509332 0.00180872 0 0.000344264 0 0)
(0.0574722 0.00427407 0 0.000808661 0 0)
(0.0613755 0.00301122 0 0.000557326 0 0)
(0.0678743 0.00756997 0 0.00157682 0 0)
(0.0698916 0.0081747 0 0.00189965 0 0)
(0.0761099 0.0186932 0 0.00666887 0 0)
(0.0786945 0.0274543 0 0.0145258 0 0)
(0.0961667 0.055269 0 0.0458343 0 0)
(0.023096 0.000922488 0 0.000100733 0 0)
(0.00225333 0.000232659 0 0.000500096 0 0)
(0.00258044 0.000319363 0 0.000473172 0 0)
(0.00674735 0.000825532 0 0.000370406 0 0)
(0.012619 0.000856099 0 0.000216504 0 0)
(0.0173815 0.00117127 0 0.000306655 0 0)
(0.0215717 0.00140704 0 0.000375923 0 0)
(0.0243656 0.00177613 0 0.000415837 0 0)
(0.0284827 0.0014309 0 0.000320292 0 0)
(0.0321431 0.00164443 0 0.000439335 0 0)
(0.0372291 0.00123196 0 0.000287014 0 0)
(0.0417568 0.00190657 0 0.000448803 0 0)
(0.0476054 0.00138519 0 0.000329599 0 0)
(0.0524795 0.00274126 0 0.000555136 0 0)
(0.0583313 0.00274848 0 0.000482184 0 0)
(0.0628876 0.00574571 0 0.00121919 0 0)
(0.0684456 0.00809787 0 0.00185097 0 0)
(0.0735962 0.0168439 0 0.00596628 0 0)
(0.0829471 0.0271537 0 0.0133541 0 0)
(0.100964 0.0534272 0 0.0396271 0 0)
(0.0224421 0.000405523 0 7.84185e-05 0 0)
(0.00181755 -5.36371e-05 0 0.000291608 0 0)
(0.00219827 -3.91852e-05 0 0.000283599 0 0)
(0.00604795 0.000303977 0 0.000223607 0 0)
(0.0113239 0.000303707 0 0.000163148 0 0)
(0.0165073 0.000475771 0 0.000235255 0 0)
(0.0195952 0.000580521 0 0.000297452 0 0)
(0.0230318 0.000864035 0 0.000309956 0 0)
(0.0257697 0.000607616 0 0.000241469 0 0)
(0.0303456 0.00083352 0 0.000341987 0 0)
(0.0338239 0.000484418 0 0.000280347 0 0)
(0.039616 0.00114223 0 0.000374453 0 0)
(0.0437429 0.000764531 0 0.000274 0 0)
(0.0502633 0.00192116 0 0.000429044 0 0)
(0.0538962 0.00215519 0 0.000417065 0 0)
(0.0610352 0.0046934 0 0.00103407 0 0)
(0.0649248 0.00763545 0 0.00168026 0 0)
(0.0743166 0.0148671 0 0.00514912 0 0)
(0.0837001 0.0269097 0 0.0118429 0 0)
(0.106789 0.0488217 0 0.0325415 0 0)
(0.0220916 0.000126769 0 5.22645e-05 0 0)
(0.00120475 -6.12458e-05 0 0.000155797 0 0)
(0.00174369 -7.32974e-05 0 0.000165685 0 0)
(0.00517027 6.92854e-05 0 0.000115506 0 0)
(0.0103553 7.43018e-05 0 0.000109355 0 0)
(0.0151238 8.48256e-05 0 0.00017734 0 0)
(0.0186207 8.9484e-05 0 0.000213348 0 0)
(0.0213566 0.000224679 0 0.000186045 0 0)
(0.0245014 0.000148468 0 0.000156552 0 0)
(0.0283134 0.00023159 0 0.000208364 0 0)
(0.03263 4.67423e-05 0 0.000221788 0 0)
(0.0373637 0.000483433 0 0.0002449 0 0)
(0.042205 0.000333709 0 0.000220648 0 0)
(0.0476228 0.00123793 0 0.000281932 0 0)
(0.0528091 0.00150552 0 0.000330195 0 0)
(0.0589594 0.00415666 0 0.000721504 0 0)
(0.0651652 0.00650433 0 0.00149056 0 0)
(0.0746625 0.0145217 0 0.00416123 0 0)
(0.0872596 0.0243611 0 0.0103025 0 0)
(0.112427 0.0468515 0 0.0262229 0 0)
(0.0218579 -0.000239564 0 5.73195e-05 0 0)
(0.000847248 -0.000166653 0 0.000160123 0 0)
(0.00134828 -0.00016417 0 0.000171429 0 0)
(0.00471438 -0.000226201 0 0.000133807 0 0)
(0.00995975 -0.000246782 0 0.000133581 0 0)
(0.0147451 -0.000304638 0 0.00018434 0 0)
(0.0182799 -0.000421016 0 0.000218084 0 0)
(0.0210239 -0.000392156 0 0.000204551 0 0)
(0.0242864 -0.000442657 0 0.000183224 0 0)
(0.028059 -0.000342902 0 0.000191652 0 0)
(0.0322994 -0.00046194 0 0.000230317 0 0)
(0.0369694 -0.000138645 0 0.000260888 0 0)
(0.0419286 -0.000152262 0 0.000215313 0 0)
(0.0474127 0.000490751 0 0.00025363 0 0)
(0.0528424 0.0010284 0 0.000253562 0 0)
(0.0594338 0.00301546 0 0.000642358 0 0)
(0.0668939 0.00590742 0 0.0011466 0 0)
(0.0777464 0.0125549 0 0.00359081 0 0)
(0.0935514 0.0230231 0 0.00822755 0 0)
(0.119464 0.0423244 0 0.0213382 0 0)
(0.0217304 -0.000561346 0 5.60444e-05 0 0)
(0.000807803 -0.000225856 0 0.00023364 0 0)
(0.00136447 -0.000236107 0 0.000231137 0 0)
(0.00494034 -0.000518667 0 0.000173238 0 0)
(0.010224 -0.000530038 0 0.000129474 0 0)
(0.0151954 -0.000742457 0 0.000196541 0 0)
(0.0185306 -0.00091762 0 0.000249032 0 0)
(0.0216887 -0.00109836 0 0.000267071 0 0)
(0.0247083 -0.000954873 0 0.000238871 0 0)
(0.0289794 -0.000994098 0 0.000234364 0 0)
(0.0330073 -0.000880413 0 0.000254896 0 0)
(0.0383468 -0.000785412 0 0.000262096 0 0)
(0.0430231 -0.000567231 0 0.000222141 0 0)
(0.0493966 -0.000296001 0 0.000224014 0 0)
(0.054633 0.000443604 0 0.000261027 0 0)
(0.0625542 0.00202538 0 0.000468499 0 0)
(0.0703716 0.00491619 0 0.00101547 0 0)
(0.0839067 0.0108271 0 0.00269969 0 0)
(0.101056 0.0206213 0 0.00666883 0 0)
(0.130579 0.0383575 0 0.0160812 0 0)
(0.0218215 -0.000967342 0 8.7321e-05 0 0)
(0.000709991 -0.00031064 0 0.000442997 0 0)
(0.00137194 -0.000393131 0 0.000415845 0 0)
(0.0053122 -0.000881127 0 0.00031121 0 0)
(0.0111513 -0.000938242 0 0.000190071 0 0)
(0.0160427 -0.00123479 0 0.000262534 0 0)
(0.0200095 -0.00155633 0 0.000344821 0 0)
(0.023012 -0.00181647 0 0.000394311 0 0)
(0.0267906 -0.00163609 0 0.000345494 0 0)
(0.0307561 -0.00164932 0 0.00031926 0 0)
(0.0356381 -0.00147223 0 0.000285413 0 0)
(0.0405762 -0.00145582 0 0.000304588 0 0)
(0.0463604 -0.00118451 0 0.000230898 0 0)
(0.05233 -0.00109667 0 0.000234657 0 0)
(0.0591456 -0.000319657 0 0.000249537 0 0)
(0.0668363 0.000949403 0 0.000406885 0 0)
(0.0770567 0.00366493 0 0.000814073 0 0)
(0.091071 0.00878955 0 0.0020282 0 0)
(0.112241 0.0176157 0 0.00510338 0 0)
(0.142692 0.0336162 0 0.012118 0 0)
(0.0220969 -0.00147997 0 0.000149005 0 0)
(0.000649192 -0.000468691 0 0.000777969 0 0)
(0.00157685 -0.000722579 0 0.000716586 0 0)
(0.00612644 -0.00132942 0 0.00049259 0 0)
(0.0128679 -0.00142758 0 0.000273633 0 0)
(0.0176217 -0.00187668 0 0.000371346 0 0)
(0.0223858 -0.0022605 0 0.000473942 0 0)
(0.0254218 -0.00269973 0 0.000589292 0 0)
(0.0301461 -0.00238161 0 0.000490851 0 0)
(0.0341162 -0.00251391 0 0.000490153 0 0)
(0.0398251 -0.00210202 0 0.000347105 0 0)
(0.04484 -0.0023836 0 0.000411196 0 0)
(0.051343 -0.00181061 0 0.000262269 0 0)
(0.0575529 -0.00222891 0 0.00032414 0 0)
(0.0653055 -0.00103261 0 0.000262554 0 0)
(0.0737257 -0.00058185 0 0.000417811 0 0)
(0.0850297 0.0024533 0 0.000623034 0 0)
(0.100572 0.00600111 0 0.00151004 0 0)
(0.123733 0.0143327 0 0.00361705 0 0)
(0.1565 0.0272899 0 0.00878595 0 0)
(0.0231447 -0.00220167 0 0.000267834 0 0)
(0.000818111 -0.000591935 0 0.00119802 0 0)
(0.00242683 -0.00133336 0 0.00114441 0 0)
(0.00722245 -0.00177744 0 0.000684343 0 0)
(0.0162191 -0.00219726 0 0.000446531 0 0)
(0.0193074 -0.00261255 0 0.000576822 0 0)
(0.0271659 -0.00328517 0 0.000726755 0 0)
(0.0276306 -0.00352482 0 0.000877914 0 0)
(0.0361212 -0.0034782 0 0.000753874 0 0)
(0.0366403 -0.00327745 0 0.000726802 0 0)
(0.0461972 -0.00301768 0 0.000486772 0 0)
(0.0469188 -0.00317149 0 0.000576876 0 0)
(0.0571214 -0.00263597 0 0.000347034 0 0)
(0.0580244 -0.00316138 0 0.000460041 0 0)
(0.0690115 -0.00180545 0 0.000312977 0 0)
(0.0714184 -0.00190317 0 0.000470899 0 0)
(0.0850119 0.00122854 0 0.000518456 0 0)
(0.0937412 0.00310762 0 0.00106786 0 0)
(0.117091 0.0105882 0 0.00247062 0 0)
(0.142433 0.0190526 0 0.00560494 0 0)
(0.0231293 -0.00304737 0 0.000473847 0 0)
(0.00127873 -0.000894631 0 0.00175395 0 0)
(0.00373579 -0.0020975 0 0.00164271 0 0)
(0.00901423 -0.00238338 0 0.000905798 0 0)
(0.0199769 -0.00324453 0 0.000720026 0 0)
(0.0212941 -0.00351073 0 0.00088585 0 0)
(0.0306903 -0.00441006 0 0.00105769 0 0)
(0.027042 -0.00395615 0 0.00114836 0 0)
(0.0361591 -0.00418978 0 0.00101013 0 0)
(0.0304869 -0.00318985 0 0.000880505 0 0)
(0.0393962 -0.00331111 0 0.000608686 0 0)
(0.0324824 -0.00265754 0 0.000653923 0 0)
(0.0407452 -0.0025685 0 0.000397334 0 0)
(0.0330935 -0.00222807 0 0.000525818 0 0)
(0.040871 -0.00153263 0 0.000312341 0 0)
(0.034302 -0.00116779 0 0.00049123 0 0)
(0.0429347 0.000766185 0 0.00039118 0 0)
(0.0413182 0.00186707 0 0.000796062 0 0)
(0.0561536 0.00659543 0 0.00159962 0 0)
(0.068673 0.0107463 0 0.00333625 0 0)
(0.0218044 -0.00387388 0 0.000800386 0 0)
(0.00172455 -0.0017005 0 0.00269789 0 0)
(0.00450814 -0.00274054 0 0.00219253 0 0)
(0.0097473 -0.00293355 0 0.00122579 0 0)
(0.0166859 -0.00360174 0 0.00104177 0 0)
(0.014424 -0.00319008 0 0.00118914 0 0)
(0.0160169 -0.00319943 0 0.00125634 0 0)
(0.0100905 -0.00177267 0 0.00118006 0 0)
(0.0108474 -0.00159458 0 0.000943261 0 0)
(0.00705504 -0.000195732 0 0.000722839 0 0)
(0.00724732 -0.000405149 0 0.000478211 0 0)
(0.00754887 0.000675375 0 0.000463283 0 0)
(0.00652455 0.000258931 0 0.000279677 0 0)
(0.0110211 0.00126762 0 0.000352143 0 0)
(0.00927036 0.000570615 0 0.00019807 0 0)
(0.0167927 0.00168637 0 0.000318848 0 0)
(0.0153417 0.000768942 0 0.000271608 0 0)
(0.0244699 0.00236784 0 0.000468954 0 0)
(0.0271725 0.0023571 0 0.00111547 0 0)
(0.0394319 0.00550722 0 0.00155392 0 0)
(0.0226606 -0.00560601 0 0.0016199 0 0)
(0.00190286 -0.00252421 0 0.00409896 0 0)
(0.00189393 -0.00134914 0 0.00251964 0 0)
(0.00275588 -0.000561547 0 0.0013153 0 0)
(0.00194938 0.000153127 0 0.000982759 0 0)
(0.0040535 0.00159578 0 0.000906464 0 0)
(0.00875192 0.00225854 0 0.000785287 0 0)
(0.0220676 0.00307735 0 0.000616634 0 0)
(0.030713 0.00272465 0 0.000416782 0 0)
(0.0512885 0.00300015 0 0.000280021 0 0)
(0.0562803 0.0023571 0 0.000161314 0 0)
(0.0818202 0.00271056 0 0.000150938 0 0)
(0.0803649 0.00196763 0 9.42095e-05 0 0)
(0.109853 0.00252416 0 0.00011638 0 0)
(0.102645 0.00123135 0 7.16706e-05 0 0)
(0.132152 0.00213486 0 0.000121712 0 0)
(0.12122 -0.000389118 0 0.000126618 0 0)
(0.142756 0.00170683 0 0.000236969 0 0)
(0.133791 -0.00196566 0 0.000516928 0 0)
(0.1393 0.00379318 0 0.00102546 0 0)
(0.0228879 -0.0075837 0 0.0029653 0 0)
(0.00198641 0.00262738 0 0.00387591 0 0)
(0.0200107 0.00533224 0 0.00155329 0 0)
(0.0409714 0.00467537 0 0.000558405 0 0)
(0.0645361 0.00411369 0 0.000281994 0 0)
(0.097829 0.00374991 0 0.000199902 0 0)
(0.126184 0.00301789 0 0.000146583 0 0)
(0.160104 0.0025088 0 0.000102983 0 0)
(0.17951 0.00184627 0 6.23149e-05 0 0)
(0.208771 0.00166297 0 4.29187e-05 0 0)
(0.21775 0.00124093 0 2.50317e-05 0 0)
(0.245342 0.00134919 0 2.74643e-05 0 0)
(0.245847 0.000931052 0 2.1698e-05 0 0)
(0.273862 0.00116499 0 2.45622e-05 0 0)
(0.26718 0.000406402 0 2.01753e-05 0 0)
(0.292992 0.000686206 0 2.82324e-05 0 0)
(0.279458 -0.000917974 0 4.16482e-05 0 0)
(0.292972 0.000180859 0 6.90756e-05 0 0)
(0.280925 -0.00302979 0 0.000175016 0 0)
(0.262443 0.00178742 0 0.000620097 0 0)
(0.00436586 -0.000279076 0 0.000498723 0 0)
(0.0839307 0.00329772 0 0.000179502 0 0)
(0.164222 0.000289818 0 3.71903e-05 0 0)
(0.204578 -0.000520188 0 1.01271e-05 0 0)
(0.233896 -0.000426484 0 2.43107e-06 0 0)
(0.257117 -0.000323595 0 1.5834e-06 0 0)
(0.271243 -0.000241443 0 1.72378e-06 0 0)
(0.284098 -0.000130391 0 1.723e-06 0 0)
(0.290714 -0.000106352 0 1.77928e-06 0 0)
(0.299762 -3.68852e-05 0 1.65228e-06 0 0)
(0.30249 -6.3895e-05 0 1.93103e-06 0 0)
(0.31 -4.34932e-06 0 1.84476e-06 0 0)
(0.310261 -6.78933e-05 0 1.67248e-06 0 0)
(0.317178 -1.02025e-05 0 1.31013e-06 0 0)
(0.31477 -0.000149783 0 1.39021e-06 0 0)
(0.319603 -0.000121554 0 1.29447e-06 0 0)
(0.312402 -0.000387507 0 2.19941e-06 0 0)
(0.310457 -0.000316448 0 3.60636e-06 0 0)
(0.301052 -0.00108234 0 1.10558e-05 0 0)
(0.273298 0.0014599 0 0.000100097 0 0)
(1.22506 -0.626528 0 0.385168 0 0)
(1.3814 -0.746936 0 0.543588 0 0)
(1.36948 -0.719128 0 0.650557 0 0)
(1.34837 -0.630482 0 0.725465 0 0)
(1.36662 -0.526229 0 0.768757 0 0)
(1.47844 -0.454157 0 0.79977 0 0)
(1.64918 -0.432984 0 0.829441 0 0)
(1.90966 -0.467096 0 0.871796 0 0)
(2.16257 -0.528026 0 0.921514 0 0)
(2.40236 -0.590097 0 0.970023 0 0)
(2.57456 -0.646513 0 1.02365 0 0)
(2.73814 -0.693433 0 1.08914 0 0)
(2.85785 -0.723124 0 1.15927 0 0)
(2.99125 -0.755245 0 1.21855 0 0)
(3.12966 -0.788204 0 1.25553 0 0)
(3.2575 -0.84108 0 1.27932 0 0)
(3.38854 -0.917258 0 1.31467 0 0)
(3.49622 -1.00805 0 1.36986 0 0)
(3.57248 -1.09116 0 1.45621 0 0)
(3.68787 -1.17369 0 1.56279 0 0)
(3.86036 -1.22484 0 1.64637 0 0)
(4.04503 -1.297 0 1.72677 0 0)
(4.31403 -1.38763 0 1.80715 0 0)
(4.54017 -1.48474 0 1.89137 0 0)
(4.86371 -1.60893 0 1.98033 0 0)
(5.11961 -1.72061 0 2.07977 0 0)
(5.45986 -1.85581 0 2.17987 0 0)
(5.71758 -1.99505 0 2.28237 0 0)
(6.04437 -2.16568 0 2.39201 0 0)
(6.26985 -2.33049 0 2.51126 0 0)
(6.53805 -2.50277 0 2.63799 0 0)
(6.72126 -2.65021 0 2.7571 0 0)
(6.93573 -2.80189 0 2.87391 0 0)
(7.15345 -2.94726 0 2.97555 0 0)
(7.36576 -3.1076 0 3.081 0 0)
(7.64071 -3.28217 0 3.16798 0 0)
(7.81544 -3.44426 0 3.25502 0 0)
(8.06294 -3.62109 0 3.32346 0 0)
(8.14566 -3.75335 0 3.39107 0 0)
(8.26964 -3.86956 0 3.44445 0 0)
(8.22714 -3.92245 0 3.49564 0 0)
(8.20511 -3.94201 0 3.53212 0 0)
(8.10788 -3.91891 0 3.55549 0 0)
(8.04172 -3.87563 0 3.5774 0 0)
(8.00396 -3.84476 0 3.59361 0 0)
(7.98563 -3.80347 0 3.62397 0 0)
(8.04406 -3.80352 0 3.65738 0 0)
(8.10195 -3.79538 0 3.71436 0 0)
(8.24091 -3.83863 0 3.78725 0 0)
(8.36719 -3.87614 0 3.88795 0 0)
(8.52918 -3.95486 0 4.00915 0 0)
(8.66833 -4.01937 0 4.15546 0 0)
(8.75838 -4.0835 0 4.30775 0 0)
(8.83165 -4.10958 0 4.46036 0 0)
(8.76886 -4.08281 0 4.58281 0 0)
(8.73075 -4.01808 0 4.68958 0 0)
(8.52917 -3.8782 0 4.72618 0 0)
(8.42121 -3.73493 0 4.76723 0 0)
(8.20865 -3.56908 0 4.74657 0 0)
(8.12481 -3.4134 0 4.7567 0 0)
(7.98504 -3.29658 0 4.7448 0 0)
(7.99388 -3.18071 0 4.77243 0 0)
(7.91997 -3.10734 0 4.81315 0 0)
(8.00732 -3.05972 0 4.89632 0 0)
(7.95106 -2.96668 0 4.96081 0 0)
(8.01761 -2.93702 0 5.05524 0 0)
(7.93617 -2.78119 0 5.06593 0 0)
(7.92551 -2.66596 0 5.08368 0 0)
(7.83101 -2.49694 0 5.06985 0 0)
(7.8353 -2.36083 0 5.17046 0 0)
(7.7646 -2.23519 0 5.3069 0 0)
(7.83582 -2.08577 0 5.4333 0 0)
(7.87045 -1.94338 0 5.54769 0 0)
(8.03702 -1.8471 0 5.65003 0 0)
(8.13207 -1.73267 0 5.84345 0 0)
(8.35608 -1.68631 0 6.05156 0 0)
(8.54335 -1.5953 0 6.35515 0 0)
(8.74394 -1.56005 0 6.67026 0 0)
(8.91255 -1.46159 0 7.0444 0 0)
(9.02909 -1.37162 0 7.4099 0 0)
(9.05969 -1.25219 0 7.78491 0 0)
(9.10264 -1.14826 0 8.07801 0 0)
(9.13097 -1.0558 0 8.35748 0 0)
(9.15527 -0.984028 0 8.57242 0 0)
(9.20635 -0.924437 0 8.73479 0 0)
(9.26791 -0.841289 0 8.89855 0 0)
(9.3429 -0.773439 0 9.05987 0 0)
(9.38774 -0.682215 0 9.3055 0 0)
(9.5247 -0.581062 0 9.54416 0 0)
(9.59273 -0.466588 0 9.8461 0 0)
(9.76508 -0.388505 0 10.065 0 0)
(9.85756 -0.341069 0 10.2882 0 0)
(10.1136 -0.25384 0 10.4515 0 0)
(10.2098 -0.186208 0 10.635 0 0)
(10.4193 -0.0630061 0 10.78 0 0)
(10.376 0.0743483 0 10.9646 0 0)
(10.5238 0.221149 0 11.1418 0 0)
(10.3605 0.461687 0 11.3785 0 0)
(10.2982 0.629038 0 11.6323 0 0)
(9.88716 0.929496 0 11.9458 0 0)
(9.67924 1.16182 0 12.3153 0 0)
(9.12654 1.36375 0 12.6815 0 0)
(8.8508 1.57184 0 13.2184 0 0)
(8.32462 1.68176 0 13.6646 0 0)
(8.1421 1.72768 0 13.9706 0 0)
(7.68711 1.7595 0 14.2757 0 0)
(7.61918 1.81624 0 14.4766 0 0)
(7.15351 1.83674 0 14.6725 0 0)
(7.13304 1.90874 0 14.7337 0 0)
(6.63297 1.9824 0 14.8311 0 0)
(6.60215 2.02398 0 14.7147 0 0)
(6.06225 2.09199 0 14.6939 0 0)
(6.04466 2.11822 0 14.4928 0 0)
(5.52767 2.18993 0 14.4708 0 0)
(5.57395 2.26129 0 14.3484 0 0)
(5.06742 2.23947 0 14.4359 0 0)
(5.17035 2.33387 0 14.4301 0 0)
(4.77278 2.2748 0 14.5359 0 0)
(5.03492 2.3949 0 14.5034 0 0)
(4.81576 2.39018 0 14.5451 0 0)
(5.23252 2.45434 0 14.5727 0 0)
(4.99908 2.45581 0 14.7129 0 0)
(5.36579 2.54057 0 14.9262 0 0)
(4.95676 2.44409 0 15.0769 0 0)
(5.24995 2.53985 0 15.2701 0 0)
(4.68343 2.33203 0 15.3195 0 0)
(4.93814 2.3986 0 15.4994 0 0)
(4.32381 2.10576 0 15.5707 0 0)
(4.66371 2.20961 0 15.7043 0 0)
(4.03094 1.82918 0 15.678 0 0)
(4.50067 1.97467 0 15.8097 0 0)
(3.86468 1.59327 0 15.7385 0 0)
(4.41628 1.7508 0 15.7291 0 0)
(3.77156 1.41163 0 15.6284 0 0)
(4.32818 1.48867 0 15.503 0 0)
(3.6556 1.26559 0 15.4548 0 0)
(4.21925 1.34246 0 15.3246 0 0)
(3.54119 1.18858 0 15.475 0 0)
(4.07781 1.31775 0 15.4553 0 0)
(3.36774 1.17604 0 15.6585 0 0)
(3.87066 1.24079 0 15.6687 0 0)
(3.15356 1.1 0 15.729 0 0)
(3.71555 1.22338 0 15.7979 0 0)
(2.95773 1.0433 0 15.884 0 0)
(3.56722 1.19163 0 16.1133 0 0)
(2.80489 0.959348 0 16.0787 0 0)
(3.4272 1.13109 0 16.2543 0 0)
(2.75427 0.984854 0 16.2335 0 0)
(3.28334 1.05916 0 16.3895 0 0)
(2.75317 0.881123 0 16.2563 0 0)
(3.19593 1.03918 0 16.428 0 0)
(2.72547 0.705858 0 16.1377 0 0)
(3.15312 1.05777 0 16.2138 0 0)
(2.68424 0.578169 0 15.7885 0 0)
(3.13453 1.01059 0 15.7851 0 0)
(2.67608 0.47343 0 15.2998 0 0)
(3.11289 0.920707 0 15.2698 0 0)
(2.70523 0.469912 0 14.8729 0 0)
(3.01916 0.68931 0 14.726 0 0)
(2.73518 0.391597 0 14.4459 0 0)
(2.86808 0.37857 0 14.3058 0 0)
(2.69216 0.0524876 0 14.0853 0 0)
(2.84037 0.104272 0 13.9708 0 0)
(2.67071 -0.227406 0 13.665 0 0)
(2.80753 -0.214951 0 13.4736 0 0)
(2.72293 -0.344804 0 13.2137 0 0)
(2.78561 -0.524444 0 13.0836 0 0)
(2.75221 -0.663294 0 12.8558 0 0)
(2.78258 -0.736807 0 12.7242 0 0)
(2.76334 -0.998705 0 12.4387 0 0)
(2.80459 -0.94626 0 12.1496 0 0)
(2.75721 -1.32206 0 11.776 0 0)
(2.77614 -1.17578 0 11.2186 0 0)
(2.72799 -1.68971 0 10.9321 0 0)
(2.87599 -1.35022 0 10.241 0 0)
(2.78154 -1.82184 0 10.1075 0 0)
(3.1147 -1.38679 0 9.34747 0 0)
(2.98024 -1.80451 0 9.27551 0 0)
(3.28734 -1.26538 0 8.65312 0 0)
(3.29961 -1.64863 0 8.31074 0 0)
(3.53029 -1.08447 0 8.03778 0 0)
(3.4691 -1.24742 0 7.44203 0 0)
(3.60356 -0.969744 0 7.50246 0 0)
(3.45674 -0.660249 0 6.68321 0 0)
(3.51107 -0.819131 0 7.16209 0 0)
(3.39456 -0.0832444 0 6.14925 0 0)
(3.31577 -0.616698 0 7.07835 0 0)
(3.20263 0.382938 0 5.85747 0 0)
(3.08508 -0.376329 0 7.19961 0 0)
(2.95361 0.770417 0 5.79317 0 0)
(2.69157 -0.154667 0 7.51685 0 0)
(2.66928 1.06502 0 5.84822 0 0)
(2.21598 0.023981 0 7.99848 0 0)
(2.32403 1.42116 0 6.25919 0 0)
(1.86094 0.333072 0 9.01793 0 0)
(2.26895 2.21058 0 7.44764 0 0)
(1.59603 0.727763 0 10.9888 0 0)
(2.2343 3.49655 0 10.482 0 0)
(1.87393 2.58883 0 16.0739 0 0)
(0.643676 1.27039 0 18.1169 0 0)
(1.02383 -0.517852 0 0.438035 0 0)
(1.0313 -0.548418 0 0.570408 0 0)
(0.985781 -0.505085 0 0.603205 0 0)
(0.94812 -0.44748 0 0.617454 0 0)
(0.938202 -0.395882 0 0.615092 0 0)
(0.969437 -0.379315 0 0.610855 0 0)
(1.04262 -0.403747 0 0.624131 0 0)
(1.14803 -0.453658 0 0.657611 0 0)
(1.26509 -0.508446 0 0.697193 0 0)
(1.36704 -0.555348 0 0.734964 0 0)
(1.44999 -0.59791 0 0.777552 0 0)
(1.5216 -0.634884 0 0.829273 0 0)
(1.58899 -0.670716 0 0.884859 0 0)
(1.67416 -0.70328 0 0.936825 0 0)
(1.76982 -0.743172 0 0.983209 0 0)
(1.90472 -0.792999 0 1.02623 0 0)
(2.04546 -0.865546 0 1.07767 0 0)
(2.23303 -0.959577 0 1.13838 0 0)
(2.39167 -1.05096 0 1.20668 0 0)
(2.57355 -1.14952 0 1.28438 0 0)
(2.72324 -1.225 0 1.36002 0 0)
(2.8976 -1.30586 0 1.43606 0 0)
(3.07227 -1.38154 0 1.51467 0 0)
(3.27108 -1.47152 0 1.59879 0 0)
(3.47193 -1.55965 0 1.69154 0 0)
(3.70453 -1.66574 0 1.79784 0 0)
(3.94277 -1.76907 0 1.91427 0 0)
(4.21026 -1.89477 0 2.03655 0 0)
(4.50091 -2.03001 0 2.16267 0 0)
(4.77625 -2.1793 0 2.29203 0 0)
(5.09002 -2.34163 0 2.42004 0 0)
(5.32385 -2.49005 0 2.54196 0 0)
(5.61124 -2.65053 0 2.65718 0 0)
(5.78534 -2.77876 0 2.76121 0 0)
(6.02358 -2.92679 0 2.86007 0 0)
(6.14518 -3.03784 0 2.94839 0 0)
(6.30104 -3.15786 0 3.03201 0 0)
(6.36181 -3.23835 0 3.09986 0 0)
(6.41414 -3.31359 0 3.16337 0 0)
(6.4274 -3.35694 0 3.21017 0 0)
(6.39199 -3.3706 0 3.24701 0 0)
(6.38001 -3.37115 0 3.27451 0 0)
(6.32263 -3.34296 0 3.29243 0 0)
(6.33776 -3.32899 0 3.3181 0 0)
(6.33668 -3.30846 0 3.34263 0 0)
(6.40479 -3.31503 0 3.39541 0 0)
(6.48472 -3.33043 0 3.45315 0 0)
(6.58668 -3.36383 0 3.54403 0 0)
(6.72041 -3.40472 0 3.64028 0 0)
(6.80058 -3.44204 0 3.76452 0 0)
(6.93227 -3.47854 0 3.88698 0 0)
(6.93752 -3.48406 0 4.02308 0 0)
(7.00576 -3.47434 0 4.1484 0 0)
(6.9208 -3.41573 0 4.26182 0 0)
(6.8958 -3.32376 0 4.35897 0 0)
(6.77119 -3.20657 0 4.42708 0 0)
(6.70106 -3.04257 0 4.47762 0 0)
(6.62017 -2.91737 0 4.52028 0 0)
(6.5945 -2.75018 0 4.55825 0 0)
(6.60327 -2.67856 0 4.631 0 0)
(6.66547 -2.56872 0 4.68957 0 0)
(6.76208 -2.54097 0 4.78464 0 0)
(6.87617 -2.47976 0 4.84601 0 0)
(7.04073 -2.43155 0 4.92165 0 0)
(7.12493 -2.35141 0 4.95855 0 0)
(7.29816 -2.24555 0 4.96442 0 0)
(7.34664 -2.11466 0 4.95604 0 0)
(7.52584 -2.0203 0 4.97065 0 0)
(7.58424 -1.90416 0 5.0288 0 0)
(7.7627 -1.84875 0 5.15299 0 0)
(7.8847 -1.77074 0 5.28627 0 0)
(8.15607 -1.71685 0 5.4686 0 0)
(8.32253 -1.65813 0 5.60737 0 0)
(8.68338 -1.62997 0 5.78491 0 0)
(8.88779 -1.5971 0 5.99463 0 0)
(9.27147 -1.62144 0 6.25538 0 0)
(9.47478 -1.56879 0 6.59475 0 0)
(9.72613 -1.55184 0 6.93352 0 0)
(9.85521 -1.40671 0 7.30017 0 0)
(9.88193 -1.3012 0 7.6518 0 0)
(9.89715 -1.14802 0 7.98388 0 0)
(9.89364 -1.07301 0 8.27285 0 0)
(9.8969 -0.96969 0 8.54182 0 0)
(9.89718 -0.942925 0 8.71657 0 0)
(9.95568 -0.883335 0 8.86348 0 0)
(9.97853 -0.821604 0 9.04636 0 0)
(10.0413 -0.792301 0 9.22719 0 0)
(10.0927 -0.683633 0 9.48984 0 0)
(10.2291 -0.618361 0 9.71842 0 0)
(10.2683 -0.480682 0 10.0264 0 0)
(10.4197 -0.441757 0 10.2082 0 0)
(10.4913 -0.361967 0 10.4054 0 0)
(10.5934 -0.238633 0 10.5678 0 0)
(10.6721 -0.121149 0 10.7563 0 0)
(10.6462 0.0462035 0 10.8901 0 0)
(10.6733 0.183741 0 11.0684 0 0)
(10.564 0.38487 0 11.2608 0 0)
(10.5154 0.600245 0 11.5153 0 0)
(10.2249 0.806465 0 11.7846 0 0)
(10.0185 1.08951 0 12.1364 0 0)
(9.62658 1.31758 0 12.525 0 0)
(9.27972 1.48815 0 12.9831 0 0)
(8.81928 1.71854 0 13.5523 0 0)
(8.54613 1.77376 0 13.9319 0 0)
(8.0621 1.90047 0 14.2086 0 0)
(7.87694 1.89977 0 14.4136 0 0)
(7.38893 2.08788 0 14.5666 0 0)
(7.27277 2.11365 0 14.6579 0 0)
(6.77357 2.3454 0 14.7022 0 0)
(6.76047 2.44084 0 14.7137 0 0)
(6.21837 2.62846 0 14.6089 0 0)
(6.34549 2.76771 0 14.5734 0 0)
(5.77763 2.85867 0 14.3862 0 0)
(5.98537 3.00053 0 14.4627 0 0)
(5.28642 2.89321 0 14.4088 0 0)
(5.48655 2.92718 0 14.5377 0 0)
(4.91614 2.82757 0 14.482 0 0)
(5.27361 2.85041 0 14.5166 0 0)
(4.92136 2.87786 0 14.4814 0 0)
(5.40159 2.85949 0 14.5372 0 0)
(5.1066 2.87384 0 14.6394 0 0)
(5.50329 2.90645 0 14.8193 0 0)
(5.10933 2.91356 0 15.0752 0 0)
(5.45044 2.95592 0 15.3247 0 0)
(4.88377 2.96954 0 15.5967 0 0)
(5.17361 2.87034 0 15.7229 0 0)
(4.52576 2.85456 0 15.9304 0 0)
(4.78615 2.60592 0 15.9395 0 0)
(4.18078 2.575 0 16.1183 0 0)
(4.45951 2.28337 0 16.0596 0 0)
(3.8669 2.17603 0 16.1899 0 0)
(4.23669 1.9437 0 16.0757 0 0)
(3.66578 1.83213 0 16.0336 0 0)
(4.11923 1.67218 0 15.9456 0 0)
(3.49259 1.50901 0 15.8001 0 0)
(4.04835 1.44501 0 15.7196 0 0)
(3.34606 1.262 0 15.4714 0 0)
(3.9932 1.30775 0 15.5899 0 0)
(3.26459 1.17911 0 15.5255 0 0)
(3.87572 1.25533 0 15.7773 0 0)
(3.13468 1.1643 0 15.7863 0 0)
(3.69312 1.15238 0 15.8602 0 0)
(2.94966 1.03952 0 15.9121 0 0)
(3.54568 1.09653 0 16.0417 0 0)
(2.70541 0.84453 0 16.2184 0 0)
(3.45055 1.04278 0 16.2567 0 0)
(2.53597 0.711761 0 16.375 0 0)
(3.38374 0.930208 0 16.376 0 0)
(2.41164 0.673687 0 16.5746 0 0)
(3.35284 0.75909 0 16.3852 0 0)
(2.37623 0.734509 0 16.5451 0 0)
(3.34534 0.628437 0 16.1768 0 0)
(2.32005 0.79262 0 16.2833 0 0)
(3.40112 0.575666 0 15.8276 0 0)
(2.27992 0.821393 0 15.8491 0 0)
(3.45388 0.460394 0 15.2948 0 0)
(2.27115 0.756908 0 15.2737 0 0)
(3.53076 0.424103 0 14.9443 0 0)
(2.27927 0.5646 0 14.8183 0 0)
(3.52109 0.291626 0 14.6872 0 0)
(2.29682 0.367505 0 14.5759 0 0)
(3.32824 -0.000323158 0 14.2824 0 0)
(2.31014 0.0859376 0 14.1443 0 0)
(3.26184 -0.108351 0 13.709 0 0)
(2.27796 -0.102052 0 13.6411 0 0)
(3.12131 -0.377858 0 13.2927 0 0)
(2.33862 -0.249974 0 13.3068 0 0)
(2.98743 -0.642625 0 13.0431 0 0)
(2.45249 -0.405752 0 12.7259 0 0)
(2.86579 -0.894983 0 12.6853 0 0)
(2.57953 -0.610801 0 12.1345 0 0)
(2.71676 -1.07499 0 12.1005 0 0)
(2.76995 -0.905015 0 11.3644 0 0)
(2.55373 -1.45415 0 11.3116 0 0)
(3.11111 -1.15184 0 10.4746 0 0)
(2.50238 -1.87253 0 10.3311 0 0)
(3.47764 -1.28658 0 9.66882 0 0)
(2.53073 -2.09732 0 9.42375 0 0)
(3.79129 -1.3326 0 8.90755 0 0)
(2.59261 -1.98174 0 8.47815 0 0)
(3.91788 -1.43474 0 8.27582 0 0)
(2.59941 -1.55966 0 7.60567 0 0)
(3.84219 -1.49521 0 7.85117 0 0)
(2.72041 -0.978304 0 6.73945 0 0)
(3.73476 -1.44329 0 7.62811 0 0)
(2.86793 -0.353369 0 6.08522 0 0)
(3.4952 -1.30184 0 7.64872 0 0)
(2.91813 0.194879 0 5.66397 0 0)
(3.0813 -1.0684 0 7.79559 0 0)