/*--------------------------------*- C++ -*----------------------------------*\
| =========                 |                                                 |
| \\      /  F ield         | OpenFOAM: The Open Source CFD Toolbox           |
|  \\    /   O peration     | Version:  2.4.0                                 |
|   \\  /    A nd           | Web:      www.OpenFOAM.org                      |
|    \\/     M anipulation  |                                                 |
\*---------------------------------------------------------------------------*/
FoamFile
{
    version     2.0;
    format      ascii;
    class       volVectorField;
    location    "0.74";
    object      UMean;
}
// * * * * * * * * * * * * * * * * * * * * * * * * * * * * * * * * * * * * * //

dimensions      [0 1 -1 0 0 0 0];

internalField   nonuniform List<vector> 
8800
(
(8.09352 0.386807 0)
(5.46316 0.242375 0)
(3.93495 0.0430938 0)
(3.17387 -0.0151149 0)
(2.83127 -0.0183146 0)
(2.615 -0.0108495 0)
(2.52273 -0.00586935 0)
(2.39854 -0.00193645 0)
(2.36545 -0.00182409 0)
(2.26999 -8.81426e-05 0)
(2.26981 -0.00112229 0)
(2.18689 0.000567382 0)
(2.20251 -0.000677708 0)
(2.12031 0.00119438 0)
(2.14059 -0.000344862 0)
(2.05553 0.00191706 0)
(2.07338 -0.000272877 0)
(1.98135 0.00191582 0)
(2.01731 0.00562194 0)
(1.76294 -0.0531784 0)
(10.0847 0.835351 0)
(9.65181 0.864714 0)
(8.89728 0.504625 0)
(8.07581 0.260828 0)
(7.53457 0.136711 0)
(6.99716 0.081671 0)
(6.75638 0.0523024 0)
(6.38921 0.0404288 0)
(6.30467 0.0278049 0)
(6.01512 0.0246967 0)
(6.02456 0.0164509 0)
(5.77071 0.0186981 0)
(5.83327 0.0124737 0)
(5.58955 0.0180093 0)
(5.67668 0.012148 0)
(5.43202 0.0192011 0)
(5.52578 0.0164276 0)
(5.26736 0.0154786 0)
(5.38367 0.0313744 0)
(5.04682 -0.0390974 0)
(10.0786 0.6296 0)
(10.6295 0.859718 0)
(10.9068 0.598081 0)
(10.6483 0.371701 0)
(10.5099 0.253345 0)
(10.0335 0.195227 0)
(9.90886 0.149846 0)
(9.43754 0.121772 0)
(9.40933 0.0900194 0)
(8.97519 0.0761575 0)
(9.04501 0.0543335 0)
(8.63967 0.053376 0)
(8.78167 0.0378897 0)
(8.38498 0.0450593 0)
(8.57175 0.0324719 0)
(8.16907 0.0437524 0)
(8.37987 0.0367906 0)
(7.95574 0.044532 0)
(8.18107 0.0488577 0)
(7.73041 -0.0229372 0)
(10.0544 0.456651 0)
(10.5013 0.701726 0)
(11.241 0.542716 0)
(11.2898 0.350641 0)
(11.6385 0.259176 0)
(11.3616 0.226356 0)
(11.5846 0.195981 0)
(11.1921 0.175084 0)
(11.406 0.14177 0)
(10.9645 0.125909 0)
(11.2083 0.0978008 0)
(10.7428 0.0945631 0)
(11.0242 0.07237 0)
(10.5385 0.0799211 0)
(10.8521 0.0597711 0)
(10.3448 0.0769977 0)
(10.68 0.0564398 0)
(10.1462 0.0881435 0)
(10.4749 0.0559278 0)
(9.91388 0.0955005 0)
(10.1609 0.346978 0)
(10.284 0.56385 0)
(11.1664 0.458111 0)
(11.1815 0.293405 0)
(11.7758 0.205992 0)
(11.5453 0.192855 0)
(12.0027 0.173405 0)
(11.6882 0.170648 0)
(12.1099 0.138128 0)
(11.755 0.135291 0)
(12.1644 0.101203 0)
(11.7806 0.111119 0)
(12.1826 0.0783157 0)
(11.774 0.102375 0)
(12.1671 0.0659976 0)
(11.7372 0.105406 0)
(12.1159 0.0603926 0)
(11.6673 0.123069 0)
(12.0077 0.0567287 0)
(11.5144 0.143619 0)
(10.1778 0.251143 0)
(10.2113 0.4536 0)
(11.0016 0.372644 0)
(11.0888 0.248203 0)
(11.6204 0.156716 0)
(11.5183 0.153072 0)
(11.8882 0.136065 0)
(11.7378 0.144662 0)
(12.0618 0.111696 0)
(11.9113 0.117028 0)
(12.2114 0.0820696 0)
(12.0628 0.0970291 0)
(12.3405 0.0652476 0)
(12.191 0.091071 0)
(12.4435 0.0597257 0)
(12.2925 0.0949898 0)
(12.5162 0.0617463 0)
(12.3614 0.106481 0)
(12.5363 0.0604168 0)
(12.3118 0.0699609 0)
(10.048 0.169828 0)
(10.2782 0.356606 0)
(10.7672 0.281952 0)
(11.1048 0.20881 0)
(11.3919 0.111109 0)
(11.5495 0.12038 0)
(11.6692 0.0971877 0)
(11.7667 0.120668 0)
(11.8436 0.0798423 0)
(11.9449 0.0986069 0)
(12.0054 0.0554754 0)
(12.1113 0.0821998 0)
(12.1563 0.0417915 0)
(12.2628 0.0781992 0)
(12.2907 0.038222 0)
(12.3965 0.0826288 0)
(12.4066 0.0398155 0)
(12.5061 0.0890121 0)
(12.4775 0.0284459 0)
(12.4841 0.0343204 0)
(9.93512 0.10861 0)
(10.3339 0.256968 0)
(10.5984 0.19685 0)
(11.1076 0.157433 0)
(11.2308 0.0744339 0)
(11.5598 0.0854126 0)
(11.52 0.0654019 0)
(11.7681 0.089731 0)
(11.692 0.0545094 0)
(11.9385 0.0732671 0)
(11.8547 0.0361795 0)
(12.1014 0.0607972 0)
(12.0083 0.0260793 0)
(12.2513 0.0579482 0)
(12.1465 0.0236029 0)
(12.3842 0.0606522 0)
(12.2678 0.0226674 0)
(12.4938 0.0603477 0)
(12.3409 0.00560803 0)
(12.461 0.00958744 0)
(9.87 0.0576567 0)
(10.3631 0.158858 0)
(10.4953 0.114104 0)
(11.102 0.101037 0)
(11.1325 0.0398689 0)
(11.5598 0.055951 0)
(11.4302 0.0345882 0)
(11.7633 0.0605722 0)
(11.5991 0.028695 0)
(11.9296 0.0504446 0)
(11.7618 0.0166801 0)
(12.0922 0.0425432 0)
(11.9165 0.0100912 0)
(12.243 0.0406854 0)
(12.0563 0.00755569 0)
(12.3781 0.0405866 0)
(12.1787 0.00337774 0)
(12.4892 0.034911 0)
(12.2491 -0.0149016 0)
(12.452 -0.00768209 0)
(9.8685 0.0142977 0)
(10.3503 0.0601749 0)
(10.4764 0.0327655 0)
(11.0764 0.0405238 0)
(11.1195 0.00742305 0)
(11.5404 0.0254379 0)
(11.4253 0.00531535 0)
(11.7446 0.0279447 0)
(11.5961 0.00323657 0)
(11.9119 0.0243834 0)
(11.7626 -0.00166194 0)
(12.0779 0.0212881 0)
(11.9214 -0.00488023 0)
(12.2324 0.0198301 0)
(12.0658 -0.00792049 0)
(12.3722 0.0165318 0)
(12.1927 -0.0146558 0)
(12.4865 0.0069594 0)
(12.266 -0.0321951 0)
(12.4496 -0.0256405 0)
(9.91595 -0.0277782 0)
(10.3068 -0.0384349 0)
(10.5259 -0.050249 0)
(11.039 -0.0210335 0)
(11.1714 -0.0260649 0)
(11.5074 -0.0055013 0)
(11.4805 -0.0246906 0)
(11.7151 -0.00605299 0)
(11.6553 -0.0233549 0)
(11.8855 -0.00266874 0)
(11.8258 -0.0207916 0)
(12.0539 -0.000652342 0)
(11.9886 -0.0208721 0)
(12.2103 -0.00197184 0)
(12.1369 -0.024598 0)
(12.3511 -0.00808399 0)
(12.267 -0.0334589 0)
(12.4653 -0.0207591 0)
(12.3424 -0.0496646 0)
(12.4253 -0.0428059 0)
(9.9692 -0.0709086 0)
(10.2689 -0.13948 0)
(10.598 -0.131133 0)
(11.0175 -0.0839412 0)
(11.2421 -0.0572655 0)
(11.482 -0.0383852 0)
(11.5475 -0.0522905 0)
(11.6909 -0.0415058 0)
(11.7243 -0.0470091 0)
(11.8626 -0.0314211 0)
(11.8952 -0.0372233 0)
(12.0299 -0.0243879 0)
(12.0578 -0.0340999 0)
(12.185 -0.0251769 0)
(12.2054 -0.0384444 0)
(12.3233 -0.0337663 0)
(12.3339 -0.050073 0)
(12.4351 -0.0498455 0)
(12.4077 -0.0664104 0)
(12.3928 -0.0599228 0)
(9.99639 -0.120654 0)
(10.2682 -0.241599 0)
(10.6674 -0.212598 0)
(11.0413 -0.144286 0)
(11.3083 -0.0898225 0)
(11.4941 -0.0715625 0)
(11.6046 -0.0812016 0)
(11.7032 -0.0752689 0)
(11.7825 -0.0710559 0)
(11.8755 -0.0588527 0)
(11.9518 -0.0548693 0)
(12.0412 -0.0470877 0)
(12.112 -0.0485331 0)
(12.1942 -0.0467642 0)
(12.2571 -0.0534116 0)
(12.3306 -0.0570273 0)
(12.3834 -0.0686768 0)
(12.4409 -0.0770548 0)
(12.4578 -0.088593 0)
(12.4025 -0.075757 0)
(10.0187 -0.179822 0)
(10.2899 -0.345432 0)
(10.7564 -0.294691 0)
(11.1016 -0.198828 0)
(11.3924 -0.123755 0)
(11.5408 -0.10936 0)
(11.6768 -0.11027 0)
(11.7533 -0.109831 0)
(11.8571 -0.0939607 0)
(11.9289 -0.0877449 0)
(12.0249 -0.0717551 0)
(12.0947 -0.0719743 0)
(12.1817 -0.0620321 0)
(12.2462 -0.0704606 0)
(12.3222 -0.0662989 0)
(12.3795 -0.081729 0)
(12.4421 -0.0843503 0)
(12.485 -0.10653 0)
(12.5111 -0.110742 0)
(12.4491 -0.103932 0)
(10.0545 -0.255598 0)
(10.3142 -0.448909 0)
(10.8934 -0.379016 0)
(11.1746 -0.243771 0)
(11.5218 -0.163288 0)
(11.5964 -0.147834 0)
(11.7942 -0.14287 0)
(11.8097 -0.140361 0)
(11.9709 -0.119339 0)
(11.9792 -0.113181 0)
(12.1234 -0.0912316 0)
(12.1282 -0.0945665 0)
(12.2544 -0.0775838 0)
(12.2535 -0.0920572 0)
(12.3579 -0.078762 0)
(12.3494 -0.103471 0)
(12.4261 -0.0955481 0)
(12.4035 -0.132736 0)
(12.428 -0.126888 0)
(12.3148 -0.141623 0)
(10.05 -0.349629 0)
(10.3908 -0.560599 0)
(11.0471 -0.461805 0)
(11.2922 -0.289911 0)
(11.6532 -0.210652 0)
(11.6566 -0.188334 0)
(11.8747 -0.178809 0)
(11.8011 -0.166359 0)
(11.975 -0.144974 0)
(11.8698 -0.13086 0)
(12.0213 -0.110144 0)
(11.8969 -0.107145 0)
(12.0289 -0.0911757 0)
(11.8892 -0.10053 0)
(11.9973 -0.0864164 0)
(11.8448 -0.108523 0)
(11.9184 -0.0969527 0)
(11.7508 -0.138151 0)
(11.757 -0.126959 0)
(11.5244 -0.163358 0)
(10.0034 -0.458166 0)
(10.5573 -0.700076 0)
(11.169 -0.544117 0)
(11.3623 -0.349447 0)
(11.5565 -0.261624 0)
(11.4423 -0.224542 0)
(11.4924 -0.198921 0)
(11.2796 -0.173328 0)
(11.3025 -0.145557 0)
(11.0571 -0.124343 0)
(11.0925 -0.102671 0)
(10.8381 -0.0941748 0)
(10.8928 -0.079205 0)
(10.6316 -0.0831313 0)
(10.6972 -0.0702746 0)
(10.4258 -0.0878999 0)
(10.4842 -0.0750538 0)
(10.1939 -0.116392 0)
(10.1997 -0.0976163 0)
(9.86066 -0.16008 0)
(10.0581 -0.631391 0)
(10.6529 -0.857932 0)
(10.8678 -0.598825 0)
(10.6883 -0.370835 0)
(10.4612 -0.255116 0)
(10.0827 -0.194001 0)
(9.84968 -0.152076 0)
(9.49299 -0.120212 0)
(9.34062 -0.0929495 0)
(9.03374 -0.0745026 0)
(8.9671 -0.0582725 0)
(8.69728 -0.0522225 0)
(8.69268 -0.0435588 0)
(8.43431 -0.0460593 0)
(8.4647 -0.040875 0)
(8.19705 -0.0506553 0)
(8.23617 -0.0488798 0)
(7.93816 -0.0704151 0)
(7.93999 -0.0722394 0)
(7.58928 -0.0901593 0)
(10.0786 -0.836324 0)
(9.65757 -0.863587 0)
(8.88007 -0.50483 0)
(8.09504 -0.260374 0)
(7.50994 -0.137776 0)
(7.02282 -0.081129 0)
(6.72307 -0.0534076 0)
(6.41897 -0.0396488 0)
(6.26502 -0.0292301 0)
(6.04587 -0.0239064 0)
(5.97922 -0.0183575 0)
(5.79828 -0.0182219 0)
(5.7812 -0.0152235 0)
(5.60633 -0.0186329 0)
(5.61236 -0.0163876 0)
(5.42392 -0.0231234 0)
(5.43297 -0.0224209 0)
(5.20884 -0.033141 0)
(5.19748 -0.0391622 0)
(4.8966 -0.0213031 0)
(8.09235 -0.387083 0)
(5.46221 -0.242004 0)
(3.93152 -0.0432804 0)
(3.1797 0.0151796 0)
(2.82463 0.0180155 0)
(2.6223 0.011056 0)
(2.51194 0.00559125 0)
(2.40703 0.00223682 0)
(2.35231 0.00148293 0)
(2.27842 0.00038768 0)
(2.25403 0.000701594 0)
(2.19319 -0.00029444 0)
(2.18304 0.000178304 0)
(2.12019 -0.00113481 0)
(2.11337 -0.000354107 0)
(2.04037 -0.00231991 0)
(2.02758 -0.0011929 0)
(1.93506 -0.00390914 0)
(1.89677 -0.00455392 0)
(1.74087 0.0116712 0)
(2.24078 -0.0883714 0)
(2.31937 0.000705226 0)
(2.59731 0.000745301 0)
(2.73375 -0.0206804 0)
(2.98971 -0.0471905 0)
(3.07152 -0.0547875 0)
(3.27648 -0.0622463 0)
(3.30619 -0.0555387 0)
(3.47186 -0.0629841 0)
(3.47957 -0.0661947 0)
(3.63993 -0.0784919 0)
(3.63994 -0.0833848 0)
(3.80427 -0.0977993 0)
(3.80204 -0.103021 0)
(3.96631 -0.117577 0)
(3.96242 -0.123446 0)
(4.13243 -0.137415 0)
(4.13081 -0.142975 0)
(4.31863 -0.156412 0)
(4.32431 -0.159967 0)
(4.52137 -0.178447 0)
(4.5236 -0.189499 0)
(4.719 -0.212863 0)
(4.71051 -0.226808 0)
(4.90092 -0.251905 0)
(4.87913 -0.265388 0)
(5.06548 -0.288028 0)
(5.03335 -0.295585 0)
(5.22168 -0.312105 0)
(5.19112 -0.316724 0)
(5.39084 -0.336659 0)
(5.37202 -0.346924 0)
(5.58332 -0.373923 0)
(5.56984 -0.389059 0)
(5.78054 -0.418152 0)
(5.76248 -0.433224 0)
(5.96809 -0.461129 0)
(5.94356 -0.473294 0)
(6.146 -0.501096 0)
(6.11497 -0.512896 0)
(6.31684 -0.541182 0)
(6.27567 -0.55298 0)
(6.47883 -0.583243 0)
(6.42427 -0.59619 0)
(6.62984 -0.626857 0)
(6.56195 -0.638694 0)
(6.77229 -0.669135 0)
(6.69821 -0.677746 0)
(6.91204 -0.707603 0)
(6.84022 -0.711552 0)
(7.05348 -0.739729 0)
(6.98954 -0.738483 0)
(7.20065 -0.765401 0)
(7.14418 -0.762849 0)
(7.35453 -0.79195 0)
(7.29744 -0.791816 0)
(7.50868 -0.824533 0)
(7.43924 -0.825855 0)
(7.65192 -0.858066 0)
(7.56271 -0.856771 0)
(7.78235 -0.888205 0)
(7.68147 -0.884823 0)
(7.91082 -0.917431 0)
(7.81244 -0.913545 0)
(8.04486 -0.947823 0)
(7.95468 -0.945147 0)
(8.17441 -0.979733 0)
(8.0819 -0.978276 0)
(8.28514 -1.00795 0)
(8.18812 -1.00421 0)
(8.38284 -1.03386 0)
(8.28693 -1.02612 0)
(8.46765 -1.05352 0)
(8.37687 -1.04196 0)
(8.55013 -1.07023 0)
(8.46904 -1.05719 0)
(8.63833 -1.08457 0)
(8.56835 -1.07233 0)
(8.74085 -1.10103 0)
(8.67378 -1.08581 0)
(8.85927 -1.11359 0)
(8.77957 -1.09196 0)
(8.98168 -1.11187 0)
(8.87656 -1.08824 0)
(9.09329 -1.10373 0)
(8.9738 -1.07549 0)
(9.17686 -1.09721 0)
(9.07558 -1.06761 0)
(9.23934 -1.09284 0)
(9.16071 -1.06339 0)
(9.28588 -1.08479 0)
(9.21698 -1.05066 0)
(9.30626 -1.06456 0)
(9.23355 -1.02838 0)
(9.30085 -1.03869 0)
(9.2268 -0.997424 0)
(9.27754 -1.00308 0)
(9.20211 -0.959383 0)
(9.24502 -0.96419 0)
(9.18569 -0.924182 0)
(9.22988 -0.931715 0)
(9.19136 -0.891191 0)
(9.24742 -0.905606 0)
(9.22544 -0.860683 0)
(9.28743 -0.867594 0)
(9.26333 -0.810062 0)
(9.32509 -0.822146 0)
(9.27639 -0.76337 0)
(9.34271 -0.781816 0)
(9.26702 -0.715477 0)
(9.33307 -0.737683 0)
(9.23125 -0.665589 0)
(9.27702 -0.687215 0)
(9.16473 -0.607358 0)
(9.19296 -0.632421 0)
(9.10813 -0.547558 0)
(9.12672 -0.572358 0)
(9.06894 -0.47953 0)
(9.06262 -0.499184 0)
(9.00874 -0.397909 0)
(8.99265 -0.415359 0)
(8.94783 -0.317444 0)
(8.94229 -0.344075 0)
(8.90385 -0.250188 0)
(8.90946 -0.287826 0)
(8.86003 -0.197718 0)
(8.89515 -0.235891 0)
(8.80807 -0.140552 0)
(8.87675 -0.173133 0)
(8.75248 -0.075364 0)
(8.84251 -0.105418 0)
(8.7003 -0.00986455 0)
(8.79222 -0.0472827 0)
(8.65557 0.0400026 0)
(8.7435 -0.0111699 0)
(8.61756 0.0724638 0)
(8.69852 0.0167265 0)
(8.58111 0.100364 0)
(8.66206 0.0455765 0)
(8.54656 0.125831 0)
(8.62517 0.0655749 0)
(8.51195 0.14176 0)
(8.57651 0.0944146 0)
(8.47552 0.163182 0)
(8.53479 0.114415 0)
(8.44966 0.179258 0)
(8.48345 0.145261 0)
(8.42523 0.217304 0)
(8.42555 0.180231 0)
(8.40662 0.254304 0)
(8.36868 0.215498 0)
(8.38585 0.297188 0)
(8.32195 0.268803 0)
(8.36707 0.351928 0)
(8.28153 0.325032 0)
(8.3538 0.417638 0)
(8.25543 0.398924 0)
(8.33036 0.485607 0)
(8.24327 0.473431 0)
(8.31787 0.554717 0)
(8.24363 0.518573 0)
(8.30319 0.601893 0)
(8.25339 0.560934 0)
(8.26564 0.65301 0)
(8.25058 0.609584 0)
(8.20373 0.705175 0)
(8.25265 0.656312 0)
(8.13593 0.755033 0)
(8.22742 0.703751 0)
(8.04427 0.814266 0)
(8.18368 0.750114 0)
(7.91432 0.873199 0)
(8.11119 0.802763 0)
(7.75321 0.947184 0)
(8.02715 0.853113 0)
(7.60448 1.0502 0)
(7.95255 0.919883 0)
(7.4597 1.16548 0)
(7.88874 1.00532 0)
(7.3442 1.31303 0)
(7.80507 1.10618 0)
(7.23474 1.46723 0)
(7.69911 1.21974 0)
(7.11651 1.62791 0)
(7.56252 1.36769 0)
(6.99593 1.80436 0)
(7.39856 1.56766 0)
(6.83839 2.00345 0)
(7.22092 1.82924 0)
(6.63825 2.24686 0)
(7.03604 2.15201 0)
(6.38239 2.55872 0)
(6.78946 2.5552 0)
(6.09973 3.00643 0)
(6.43614 3.06724 0)
(5.83158 3.75959 0)
(6.00163 3.84027 0)
(5.26094 4.94974 0)
(6.2029 5.57732 0)
(3.95804 8.49668 0)
(5.29518 -0.0590689 0)
(5.22427 -0.0243582 0)
(5.3433 -0.0416675 0)
(5.34733 -0.0773163 0)
(5.5402 -0.114756 0)
(5.554 -0.126049 0)
(5.72614 -0.131992 0)
(5.69665 -0.123671 0)
(5.83708 -0.125955 0)
(5.78145 -0.124972 0)
(5.92128 -0.13731 0)
(5.86376 -0.143199 0)
(6.01755 -0.159541 0)
(5.96415 -0.165875 0)
(6.13072 -0.181256 0)
(6.0781 -0.186666 0)
(6.25528 -0.201979 0)
(6.20133 -0.206875 0)
(6.38791 -0.223867 0)
(6.33415 -0.229697 0)
(6.52869 -0.249716 0)
(6.47281 -0.259735 0)
(6.66986 -0.283111 0)
(6.60633 -0.294463 0)
(6.80478 -0.31865 0)
(6.73272 -0.328974 0)
(6.93459 -0.351211 0)
(6.85611 -0.358133 0)
(7.06354 -0.378684 0)
(6.98196 -0.384871 0)
(7.19874 -0.408074 0)
(7.11717 -0.417619 0)
(7.34327 -0.446294 0)
(7.2588 -0.458707 0)
(7.48798 -0.48952 0)
(7.39556 -0.500007 0)
(7.62343 -0.529709 0)
(7.52181 -0.536946 0)
(7.74797 -0.566229 0)
(7.63786 -0.572535 0)
(7.86472 -0.602939 0)
(7.74784 -0.609396 0)
(7.97706 -0.641262 0)
(7.85521 -0.647946 0)
(8.08695 -0.680854 0)
(7.96241 -0.686802 0)
(8.19451 -0.720704 0)
(8.06977 -0.725354 0)
(8.29983 -0.759123 0)
(8.17552 -0.761271 0)
(8.40375 -0.792873 0)
(8.27709 -0.791372 0)
(8.50665 -0.821004 0)
(8.3738 -0.816989 0)
(8.60839 -0.847292 0)
(8.46574 -0.843347 0)
(8.70729 -0.875761 0)
(8.55345 -0.873412 0)
(8.8024 -0.90733 0)
(8.63984 -0.905281 0)
(8.89441 -0.939549 0)
(8.72676 -0.936699 0)
(8.98324 -0.971008 0)
(8.81355 -0.966411 0)
(9.06555 -0.999939 0)
(8.90013 -0.992576 0)
(9.13904 -1.02284 0)
(8.98073 -1.01484 0)
(9.2071 -1.04618 0)
(9.05546 -1.04006 0)
(9.27073 -1.06774 0)
(9.11949 -1.05695 0)
(9.32849 -1.08348 0)
(9.17874 -1.07172 0)
(9.38273 -1.10198 0)
(9.23744 -1.08741 0)
(9.43728 -1.12035 0)
(9.29701 -1.10397 0)
(9.493 -1.13783 0)
(9.353 -1.11983 0)
(9.55347 -1.15056 0)
(9.40625 -1.12443 0)
(9.61058 -1.15096 0)
(9.46169 -1.11596 0)
(9.65274 -1.13772 0)
(9.517 -1.10005 0)
(9.68142 -1.12466 0)
(9.56805 -1.08715 0)
(9.69459 -1.11262 0)
(9.60106 -1.07688 0)
(9.69635 -1.09546 0)
(9.61149 -1.05296 0)
(9.67535 -1.06547 0)
(9.59101 -1.02054 0)
(9.63079 -1.02913 0)
(9.54665 -0.980647 0)
(9.57482 -0.987961 0)
(9.49425 -0.941835 0)
(9.53046 -0.954247 0)
(9.4579 -0.91501 0)
(9.50817 -0.935652 0)
(9.44581 -0.895791 0)
(9.51368 -0.923464 0)
(9.44341 -0.870539 0)
(9.52826 -0.881574 0)
(9.44093 -0.817969 0)
(9.53654 -0.826431 0)
(9.43038 -0.761209 0)
(9.52155 -0.778698 0)
(9.39838 -0.705365 0)
(9.4718 -0.717172 0)
(9.33345 -0.633559 0)
(9.3865 -0.647517 0)
(9.24443 -0.570611 0)
(9.29951 -0.597742 0)
(9.17513 -0.523545 0)
(9.22316 -0.546042 0)
(9.11213 -0.455496 0)
(9.15202 -0.467105 0)
(9.04068 -0.372504 0)
(9.09243 -0.388327 0)
(8.97209 -0.30015 0)
(9.0555 -0.327073 0)
(8.9223 -0.237014 0)
(9.03838 -0.276967 0)
(8.8737 -0.178386 0)
(9.02398 -0.225317 0)
(8.813 -0.115372 0)
(8.99408 -0.15546 0)
(8.7426 -0.0436049 0)
(8.94363 -0.0888574 0)
(8.67185 0.0208958 0)
(8.88672 -0.035503 0)
(8.61003 0.0659672 0)
(8.83346 0.00274177 0)
(8.54205 0.0978514 0)
(8.77794 0.0293884 0)
(8.48394 0.116456 0)
(8.7321 0.0551249 0)
(8.4415 0.134098 0)
(8.70277 0.076725 0)
(8.39896 0.157707 0)
(8.66434 0.109199 0)
(8.35867 0.185612 0)
(8.62994 0.122993 0)
(8.32475 0.208386 0)
(8.58932 0.153436 0)
(8.29961 0.241454 0)
(8.56204 0.185942 0)
(8.2924 0.271714 0)
(8.52292 0.21788 0)
(8.28962 0.31323 0)
(8.47847 0.263877 0)
(8.28534 0.365845 0)
(8.44401 0.316554 0)
(8.27425 0.43226 0)
(8.4315 0.382086 0)
(8.25824 0.501308 0)
(8.4467 0.44523 0)
(8.2579 0.573589 0)
(8.47672 0.489038 0)
(8.2437 0.633994 0)
(8.49497 0.540076 0)
(8.22154 0.687194 0)
(8.50576 0.585359 0)
(8.20809 0.734413 0)
(8.50634 0.622102 0)
(8.18456 0.811418 0)
(8.46929 0.674469 0)
(8.12426 0.892646 0)
(8.43077 0.723518 0)
(8.03149 0.975675 0)
(8.37507 0.776954 0)
(7.91171 1.06027 0)
(8.30137 0.819718 0)
(7.79305 1.1477 0)
(8.2513 0.878383 0)
(7.68403 1.26401 0)
(8.21194 0.963678 0)
(7.58745 1.40501 0)
(8.17621 1.08303 0)
(7.48823 1.55306 0)
(8.11879 1.22701 0)
(7.37024 1.69862 0)
(8.04495 1.4001 0)
(7.23554 1.86211 0)
(7.96919 1.61116 0)
(7.08002 2.07313 0)
(7.86578 1.85923 0)
(6.92891 2.36565 0)
(7.71428 2.15506 0)
(6.8103 2.7623 0)
(7.48613 2.51882 0)
(6.68161 3.30162 0)
(7.22398 3.03857 0)
(6.42532 4.04054 0)
(7.2811 3.93639 0)
(5.79517 5.32441 0)
(8.31368 4.84279 0)
(6.33121 9.0008 0)
(7.95116 -0.0904313 0)
(7.85872 -0.0914038 0)
(7.9792 -0.114728 0)
(7.94035 -0.130953 0)
(8.12632 -0.148665 0)
(8.09614 -0.145907 0)
(8.25831 -0.147555 0)
(8.1784 -0.137415 0)
(8.30794 -0.141559 0)
(8.20188 -0.13998 0)
(8.33388 -0.155213 0)
(8.23006 -0.162107 0)
(8.37928 -0.183032 0)
(8.28163 -0.191633 0)
(8.44559 -0.212637 0)
(8.34994 -0.219431 0)
(8.52425 -0.239271 0)
(8.4266 -0.244395 0)
(8.60693 -0.264396 0)
(8.50568 -0.270073 0)
(8.6907 -0.292409 0)
(8.58599 -0.300557 0)
(8.77505 -0.32539 0)
(8.66588 -0.334496 0)
(8.85892 -0.359982 0)
(8.74556 -0.368139 0)
(8.94334 -0.392467 0)
(8.82647 -0.398543 0)
(9.02917 -0.421951 0)
(8.9075 -0.427435 0)
(9.11514 -0.4527 0)
(8.98773 -0.460484 0)
(9.20024 -0.489677 0)
(9.06454 -0.499623 0)
(9.28018 -0.530764 0)
(9.13412 -0.539547 0)
(9.3528 -0.569706 0)
(9.19787 -0.575335 0)
(9.42 -0.604462 0)
(9.25934 -0.607902 0)
(9.48481 -0.637998 0)
(9.32367 -0.641112 0)
(9.55043 -0.673859 0)
(9.39198 -0.677508 0)
(9.61659 -0.712661 0)
(9.46126 -0.716545 0)
(9.68097 -0.752694 0)
(9.52558 -0.755654 0)
(9.74058 -0.790883 0)
(9.58044 -0.791301 0)
(9.79466 -0.823982 0)
(9.62545 -0.820738 0)
(9.84376 -0.851451 0)
(9.66327 -0.845287 0)
(9.88901 -0.876647 0)
(9.69948 -0.869844 0)
(9.93276 -0.90485 0)
(9.74023 -0.899223 0)
(9.97625 -0.937865 0)
(9.78613 -0.93195 0)
(10.0156 -0.969567 0)
(9.82912 -0.961405 0)
(10.0454 -0.995874 0)
(9.86084 -0.98623 0)
(10.0633 -1.01762 0)
(9.87885 -1.00657 0)
(10.0735 -1.03808 0)
(9.89398 -1.02888 0)
(10.0897 -1.06366 0)
(9.91088 -1.05425 0)
(10.1032 -1.08633 0)
(9.92235 -1.0718 0)
(10.1154 -1.1 0)
(9.92999 -1.08555 0)
(10.1258 -1.11631 0)
(9.93259 -1.09996 0)
(10.1292 -1.13304 0)
(9.931 -1.11343 0)
(10.1283 -1.15076 0)
(9.93218 -1.12942 0)
(10.1286 -1.1638 0)
(9.93751 -1.13407 0)
(10.1292 -1.16342 0)
(9.9472 -1.12108 0)
(10.1218 -1.1458 0)
(9.95836 -1.10286 0)
(10.1056 -1.12485 0)
(9.9558 -1.08338 0)
(10.0767 -1.1074 0)
(9.93903 -1.06753 0)
(10.0334 -1.08272 0)
(9.90458 -1.03562 0)
(9.96762 -1.04719 0)
(9.84841 -0.997037 0)
(9.88649 -1.00525 0)
(9.78168 -0.955343 0)
(9.80032 -0.967563 0)
(9.71598 -0.923611 0)
(9.74152 -0.944459 0)
(9.67101 -0.905267 0)
(9.70835 -0.935491 0)
(9.64123 -0.892674 0)
(9.68296 -0.925844 0)
(9.60345 -0.864069 0)
(9.6561 -0.88166 0)
(9.56883 -0.808824 0)
(9.62498 -0.82472 0)
(9.53607 -0.744467 0)
(9.57168 -0.760659 0)
(9.47605 -0.669505 0)
(9.47566 -0.682392 0)
(9.38657 -0.58612 0)
(9.36472 -0.608783 0)
(9.31174 -0.533018 0)
(9.2825 -0.56563 0)
(9.23932 -0.484685 0)
(9.18636 -0.508837 0)
(9.14926 -0.417143 0)
(9.09632 -0.435911 0)
(9.07117 -0.339761 0)
(9.03409 -0.368614 0)
(9.01006 -0.273287 0)
(8.995 -0.319039 0)
(8.95833 -0.216766 0)
(8.96517 -0.269039 0)
(8.9055 -0.151541 0)
(8.92473 -0.209205 0)
(8.83697 -0.0775594 0)
(8.86289 -0.138086 0)
(8.75918 0.00340548 0)
(8.78995 -0.0697127 0)
(8.67018 0.0698841 0)
(8.72708 -0.0204201 0)
(8.58806 0.114897 0)
(8.66856 0.0203423 0)
(8.50203 0.146641 0)
(8.61038 0.0428906 0)
(8.43377 0.153628 0)
(8.55982 0.0580289 0)
(8.38642 0.163558 0)
(8.52444 0.0739978 0)
(8.35494 0.19497 0)
(8.47866 0.105804 0)
(8.33515 0.219863 0)
(8.44977 0.118569 0)
(8.31881 0.241777 0)
(8.42771 0.151546 0)
(8.31288 0.270329 0)
(8.41553 0.178685 0)
(8.32097 0.302518 0)
(8.39202 0.210028 0)
(8.3409 0.350825 0)
(8.36315 0.248027 0)
(8.34065 0.404332 0)
(8.34931 0.302267 0)
(8.33321 0.47683 0)
(8.34394 0.34972 0)
(8.33428 0.540398 0)
(8.36041 0.399096 0)
(8.33417 0.602597 0)
(8.38998 0.454901 0)
(8.33622 0.669003 0)
(8.40604 0.504879 0)
(8.34208 0.724889 0)
(8.42319 0.544537 0)
(8.34457 0.785819 0)
(8.41768 0.58897 0)
(8.32124 0.876473 0)
(8.41124 0.649706 0)
(8.27178 0.963738 0)
(8.41447 0.709968 0)
(8.18227 1.05362 0)
(8.42059 0.773582 0)
(8.06268 1.14242 0)
(8.44903 0.829225 0)
(7.91857 1.22932 0)
(8.47413 0.876857 0)
(7.78291 1.33552 0)
(8.50122 0.954158 0)
(7.66998 1.46284 0)
(8.51755 1.06922 0)
(7.57396 1.62019 0)
(8.49964 1.21385 0)
(7.46399 1.79569 0)
(8.43287 1.37061 0)
(7.36116 1.99795 0)
(8.33487 1.55236 0)
(7.29263 2.25108 0)
(8.19421 1.77226 0)
(7.25082 2.56093 0)
(8.03905 2.06353 0)
(7.20939 2.9553 0)
(7.96625 2.45808 0)
(7.07949 3.44726 0)
(8.13409 2.99926 0)
(6.76463 4.22006 0)
(8.76037 3.54636 0)
(6.51853 5.8658 0)
(9.57968 3.62536 0)
(7.9857 8.25949 0)
(10.152 -0.12474 0)
(10.0615 -0.227981 0)
(10.2105 -0.276854 0)
(10.1606 -0.259318 0)
(10.3378 -0.2343 0)
(10.2724 -0.193789 0)
(10.4184 -0.176773 0)
(10.3081 -0.155226 0)
(10.4305 -0.158785 0)
(10.3024 -0.154059 0)
(10.4295 -0.171764 0)
(10.3045 -0.176721 0)
(10.4453 -0.201386 0)
(10.3249 -0.208968 0)
(10.4766 -0.234445 0)
(10.3566 -0.240119 0)
(10.5148 -0.263877 0)
(10.3916 -0.267042 0)
(10.5542 -0.290013 0)
(10.4276 -0.292694 0)
(10.5949 -0.317121 0)
(10.4649 -0.321203 0)
(10.6364 -0.348158 0)
(10.5026 -0.353359 0)
(10.6773 -0.381711 0)
(10.5398 -0.386473 0)
(10.7167 -0.414501 0)
(10.5757 -0.417536 0)
(10.7542 -0.44489 0)
(10.61 -0.447035 0)
(10.7888 -0.475163 0)
(10.6408 -0.47825 0)
(10.8193 -0.508551 0)
(10.6669 -0.513478 0)
(10.8446 -0.545467 0)
(10.6871 -0.550636 0)
(10.8654 -0.582505 0)
(10.7038 -0.586797 0)
(10.8853 -0.618309 0)
(10.7215 -0.621471 0)
(10.9076 -0.653515 0)
(10.743 -0.656885 0)
(10.9327 -0.69092 0)
(10.7667 -0.694732 0)
(10.9574 -0.730412 0)
(10.7877 -0.733742 0)
(10.9776 -0.769557 0)
(10.8018 -0.770561 0)
(10.9908 -0.804979 0)
(10.8076 -0.802051 0)
(10.997 -0.834391 0)
(10.8067 -0.827368 0)
(10.9969 -0.858082 0)
(10.8015 -0.84882 0)
(10.9938 -0.880877 0)
(10.7983 -0.872594 0)
(10.9918 -0.908747 0)
(10.7986 -0.901643 0)
(10.9879 -0.939677 0)
(10.7945 -0.930602 0)
(10.9738 -0.967421 0)
(10.7792 -0.954848 0)
(10.9453 -0.989479 0)
(10.7508 -0.973915 0)
(10.9021 -1.00634 0)
(10.711 -0.992344 0)
(10.855 -1.02916 0)
(10.6704 -1.02075 0)
(10.8124 -1.05684 0)
(10.6276 -1.04559 0)
(10.7685 -1.07957 0)
(10.5762 -1.06301 0)
(10.7209 -1.09281 0)
(10.5251 -1.07597 0)
(10.6709 -1.10577 0)
(10.4655 -1.08832 0)
(10.6147 -1.11895 0)
(10.408 -1.10276 0)
(10.5656 -1.13961 0)
(10.3673 -1.12066 0)
(10.5232 -1.15273 0)
(10.337 -1.12694 0)
(10.48 -1.14982 0)
(10.306 -1.11235 0)
(10.433 -1.13285 0)
(10.2716 -1.09054 0)
(10.3761 -1.10726 0)
(10.2265 -1.07202 0)
(10.3137 -1.08929 0)
(10.1765 -1.04928 0)
(10.2356 -1.05713 0)
(10.1085 -1.00637 0)
(10.1395 -1.01279 0)
(10.0273 -0.960757 0)
(10.0418 -0.969798 0)
(9.94706 -0.919014 0)
(9.94799 -0.93889 0)
(9.87507 -0.896874 0)
(9.8773 -0.926287 0)
(9.81201 -0.884128 0)
(9.82104 -0.918738 0)
(9.74932 -0.870266 0)
(9.76069 -0.908997 0)
(9.68612 -0.842374 0)
(9.70344 -0.870593 0)
(9.62604 -0.789785 0)
(9.63705 -0.812181 0)
(9.55485 -0.71499 0)
(9.54432 -0.732594 0)
(9.45883 -0.625229 0)
(9.41656 -0.638945 0)
(9.34826 -0.542599 0)
(9.30517 -0.584031 0)
(9.27788 -0.503138 0)
(9.2076 -0.536778 0)
(9.19008 -0.442632 0)
(9.10038 -0.471579 0)
(9.08291 -0.370639 0)
(8.99205 -0.408914 0)
(8.99273 -0.300363 0)
(8.91838 -0.357209 0)
(8.92494 -0.243303 0)
(8.87572 -0.310568 0)
(8.85367 -0.188924 0)
(8.83574 -0.255665 0)
(8.77552 -0.122952 0)
(8.7749 -0.186118 0)
(8.69193 -0.0400811 0)
(8.6995 -0.110599 0)
(8.60519 0.0408626 0)
(8.62445 -0.0425041 0)
(8.51521 0.104876 0)
(8.55796 0.00587328 0)
(8.4313 0.149982 0)
(8.49812 0.045851 0)
(8.35048 0.178729 0)
(8.45096 0.0659594 0)
(8.28098 0.181406 0)
(8.40682 0.0723894 0)
(8.22928 0.189374 0)
(8.37015 0.081538 0)
(8.18891 0.220453 0)
(8.34375 0.104774 0)
(8.17269 0.233708 0)
(8.34747 0.112101 0)
(8.16893 0.254253 0)
(8.35066 0.139003 0)
(8.17743 0.277836 0)
(8.36809 0.15773 0)
(8.18471 0.308117 0)
(8.38972 0.188931 0)
(8.19489 0.362084 0)
(8.41563 0.233898 0)
(8.17956 0.414689 0)
(8.44411 0.28879 0)
(8.17902 0.483573 0)
(8.44819 0.3327 0)
(8.18649 0.556693 0)
(8.46865 0.39121 0)
(8.17099 0.604152 0)
(8.49813 0.430029 0)
(8.18767 0.674102 0)
(8.53428 0.462027 0)
(8.1759 0.730844 0)
(8.59703 0.504021 0)
(8.14394 0.81089 0)
(8.63266 0.561692 0)
(8.08839 0.911603 0)
(8.68157 0.615321 0)
(8.03151 1.00528 0)
(8.74008 0.672803 0)
(7.96223 1.10773 0)
(8.78187 0.729532 0)
(7.88601 1.19031 0)
(8.82543 0.78338 0)
(7.80567 1.28131 0)
(8.8286 0.84411 0)
(7.73719 1.39005 0)
(8.80345 0.911837 0)
(7.69327 1.53074 0)
(8.76786 1.01065 0)
(7.67778 1.71944 0)
(8.71661 1.14434 0)
(7.67303 1.9239 0)
(8.62829 1.2979 0)
(7.66242 2.13741 0)
(8.54182 1.48346 0)
(7.63089 2.38207 0)
(8.51497 1.72754 0)
(7.54398 2.6851 0)
(8.58035 2.01596 0)
(7.39705 3.0942 0)
(8.80667 2.35614 0)
(7.19122 3.67799 0)
(9.23671 2.64812 0)
(7.05682 4.65384 0)
(9.855 2.75655 0)
(7.46115 6.11309 0)
(10.1587 2.9756 0)
(8.9504 7.23407 0)
(11.619 -0.107842 0)
(11.5687 -0.240479 0)
(11.7685 -0.306895 0)
(11.7642 -0.287288 0)
(11.9182 -0.257041 0)
(11.8468 -0.20299 0)
(11.9503 -0.181065 0)
(11.8385 -0.153126 0)
(11.9273 -0.159439 0)
(11.8075 -0.152989 0)
(11.9029 -0.175143 0)
(11.7877 -0.178352 0)
(11.8941 -0.206802 0)
(11.7839 -0.212193 0)
(11.8986 -0.241198 0)
(11.7898 -0.244724 0)
(11.9092 -0.271871 0)
(11.7989 -0.272797 0)
(11.9215 -0.298787 0)
(11.8085 -0.298857 0)
(11.9335 -0.325878 0)
(11.8167 -0.327015 0)
(11.9432 -0.356344 0)
(11.8215 -0.358611 0)
(11.9485 -0.389506 0)
(11.8216 -0.391519 0)
(11.9494 -0.422462 0)
(11.818 -0.422811 0)
(11.9472 -0.453268 0)
(11.8131 -0.452032 0)
(11.9436 -0.482608 0)
(11.8082 -0.481007 0)
(11.939 -0.513271 0)
(11.8033 -0.512527 0)
(11.9328 -0.546692 0)
(11.7973 -0.546703 0)
(11.9247 -0.582216 0)
(11.7899 -0.582647 0)
(11.9158 -0.618839 0)
(11.7816 -0.619555 0)
(11.907 -0.656475 0)
(11.7721 -0.657798 0)
(11.8979 -0.695366 0)
(11.7601 -0.696796 0)
(11.8867 -0.734418 0)
(11.7437 -0.73449 0)
(11.8711 -0.771035 0)
(11.7218 -0.768157 0)
(11.849 -0.802699 0)
(11.6933 -0.795615 0)
(11.8185 -0.82806 0)
(11.6586 -0.817239 0)
(11.7811 -0.849469 0)
(11.6222 -0.838093 0)
(11.7418 -0.873023 0)
(11.5872 -0.86288 0)
(11.7002 -0.899668 0)
(11.5471 -0.889244 0)
(11.6496 -0.92524 0)
(11.4942 -0.913701 0)
(11.5879 -0.948451 0)
(11.4275 -0.934098 0)
(11.5156 -0.965796 0)
(11.3474 -0.947709 0)
(11.4357 -0.979867 0)
(11.2637 -0.964983 0)
(11.3572 -1.00247 0)
(11.1773 -0.989682 0)
(11.269 -1.02686 0)
(11.0814 -1.00979 0)
(11.1731 -1.0443 0)
(10.9777 -1.02357 0)
(11.0746 -1.05763 0)
(10.8773 -1.03506 0)
(10.9739 -1.06829 0)
(10.7744 -1.04755 0)
(10.8745 -1.08554 0)
(10.686 -1.07109 0)
(10.7962 -1.11406 0)
(10.6166 -1.0943 0)
(10.7247 -1.13044 0)
(10.5522 -1.10164 0)
(10.6487 -1.12501 0)
(10.4871 -1.08875 0)
(10.5736 -1.10775 0)
(10.4147 -1.0646 0)
(10.4969 -1.08288 0)
(10.3437 -1.0452 0)
(10.415 -1.06208 0)
(10.2666 -1.01031 0)
(10.3162 -1.01833 0)
(10.1694 -0.96056 0)
(10.2141 -0.97541 0)
(10.0728 -0.916067 0)
(10.1183 -0.938801 0)
(9.98358 -0.877194 0)
(10.0257 -0.914998 0)
(9.90298 -0.855764 0)
(9.93308 -0.905244 0)
(9.82183 -0.845145 0)
(9.84868 -0.898051 0)
(9.74304 -0.830919 0)
(9.7687 -0.888606 0)
(9.66478 -0.803207 0)
(9.68066 -0.843883 0)
(9.56987 -0.745414 0)
(9.56794 -0.776621 0)
(9.45732 -0.66218 0)
(9.43101 -0.688223 0)
(9.32502 -0.560852 0)
(9.27881 -0.592639 0)
(9.21766 -0.496107 0)
(9.16686 -0.554447 0)
(9.11882 -0.450691 0)
(9.04218 -0.498844 0)
(9.00775 -0.379518 0)
(8.91469 -0.430332 0)
(8.88387 -0.30354 0)
(8.80336 -0.379998 0)
(8.77757 -0.247969 0)
(8.72215 -0.343061 0)
(8.6875 -0.19997 0)
(8.66062 -0.293875 0)
(8.59975 -0.142027 0)
(8.59739 -0.232056 0)
(8.5096 -0.0721929 0)
(8.51447 -0.163015 0)
(8.42473 0.00789256 0)
(8.43444 -0.085918 0)
(8.34376 0.0877232 0)
(8.36609 -0.0156064 0)
(8.26932 0.145651 0)
(8.30091 0.0327626 0)
(8.19808 0.189816 0)
(8.24368 0.065984 0)
(8.13853 0.216308 0)
(8.20157 0.0809012 0)
(8.0767 0.222974 0)
(8.16001 0.079538 0)
(8.0179 0.230849 0)
(8.13534 0.0818943 0)
(7.96793 0.249019 0)
(8.14314 0.0853819 0)
(7.96367 0.246208 0)
(8.16637 0.0859915 0)
(7.96668 0.273485 0)
(8.18228 0.103771 0)
(7.97905 0.296039 0)
(8.21917 0.116594 0)
(7.98613 0.335984 0)
(8.26074 0.147607 0)
(7.98566 0.393023 0)