/*--------------------------------*- C++ -*----------------------------------*\
| =========                 |                                                 |
| \\      /  F ield         | OpenFOAM: The Open Source CFD Toolbox           |
|  \\    /   O peration     | Version:  2.4.0                                 |
|   \\  /    A nd           | Web:      www.OpenFOAM.org                      |
|    \\/     M anipulation  |                                                 |
\*---------------------------------------------------------------------------*/
FoamFile
{
    version     2.0;
    format      ascii;
    class       volScalarField;
    location    "1.22";
    object      k_0;
}
// * * * * * * * * * * * * * * * * * * * * * * * * * * * * * * * * * * * * * //

dimensions      [0 2 -2 0 0 0 0];

internalField   nonuniform List<scalar> 
8800
(
8.11776
10.274
8.77971
6.84487
5.68091
5.00611
4.49262
4.18108
3.87285
3.71014
3.49743
3.41745
3.2438
3.20222
3.05677
3.02152
2.89016
2.86072
2.80048
2.64384
1.39487
4.36305
5.30753
5.29294
5.11089
4.85375
4.53349
4.33283
4.0731
3.93121
3.72203
3.64002
3.46989
3.41703
3.29077
3.24616
3.13888
3.10157
3.00716
2.99765
0.0835768
0.748584
1.54181
1.95883
2.25114
2.4675
2.54997
2.62328
2.6179
2.60923
2.57497
2.55693
2.51356
2.48316
2.45231
2.42131
2.39081
2.36341
2.30693
2.29145
0.00329016
0.0716016
0.244041
0.429107
0.578258
0.713087
0.828014
0.937087
1.02876
1.09093
1.16285
1.20579
1.27055
1.29247
1.34485
1.36384
1.40764
1.41224
1.42571
1.41711
0.000119145
0.00510914
0.0217139
0.0482811
0.0927189
0.121223
0.165819
0.200997
0.252245
0.276999
0.324182
0.34795
0.398441
0.419308
0.465482
0.488535
0.54003
0.557225
0.595144
0.610308
2.57481e-05
0.00032726
0.00141525
0.00341743
0.00833329
0.0119084
0.0194217
0.0246101
0.035028
0.0423856
0.0523518
0.0595166
0.075093
0.0840503
0.0932988
0.108518
0.123396
0.136377
0.145665
0.164707
2.21418e-05
4.53708e-05
0.000115023
0.00024471
0.000522452
0.000916996
0.00128754
0.0020461
0.002609
0.00387898
0.00454005
0.00599628
0.00713427
0.00959168
0.0107463
0.0138499
0.0156378
0.0198024
0.0217975
0.0275834
2.1169e-05
3.1684e-05
4.49656e-05
7.13567e-05
8.56617e-05
0.000122189
0.000142528
0.000197423
0.000223812
0.000312121
0.000336648
0.000426387
0.000483128
0.000687305
0.000743135
0.00103077
0.00117289
0.00168772
0.00190133
0.0029308
2.09277e-05
2.83098e-05
3.8378e-05
6.44395e-05
7.41756e-05
7.38485e-05
7.25761e-05
7.84245e-05
8.6014e-05
9.47059e-05
9.47309e-05
9.73715e-05
0.000100749
0.000111781
0.000111611
0.000125704
0.000136081
0.00016665
0.000177144
0.000248204
2.05303e-05
2.97697e-05
4.61187e-05
5.08475e-05
6.07032e-05
6.43353e-05
6.33359e-05
6.37135e-05
6.91359e-05
7.88089e-05
8.05038e-05
7.94831e-05
7.7982e-05
7.82998e-05
7.72995e-05
7.73305e-05
7.83028e-05
8.41216e-05
8.66263e-05
8.94638e-05
2.04985e-05
3.10213e-05
4.48414e-05
4.84283e-05
5.51744e-05
6.6212e-05
6.85725e-05
7.03283e-05
7.3915e-05
7.91366e-05
7.89526e-05
7.77285e-05
7.71326e-05
7.68196e-05
7.53224e-05
7.50987e-05
7.52598e-05
8.07817e-05
8.49036e-05
9.02526e-05
2.06751e-05
2.79694e-05
5.04216e-05
6.11362e-05
6.16409e-05
6.42525e-05
6.73994e-05
8.01392e-05
9.09394e-05
9.35171e-05
9.23152e-05
9.24088e-05
9.29677e-05
9.70731e-05
0.000103779
0.000111961
0.000130206
0.000160756
0.000170473
0.000185705
2.09487e-05
3.0346e-05
6.09459e-05
7.04328e-05
7.82631e-05
0.000109689
0.000130915
0.000184925
0.00021523
0.000277671
0.000323842
0.000442873
0.000501731
0.000667998
0.000776593
0.000998149
0.00115109
0.00156064
0.00180938
0.00237507
2.15398e-05
4.33001e-05
0.000177199
0.000281519
0.00042858
0.000907537
0.00122929
0.00205286
0.00260302
0.0038474
0.00466901
0.00656747
0.00744473
0.00971696
0.011024
0.0138793
0.0156117
0.0200532
0.0225564
0.0292495
2.48923e-05
0.000306079
0.00222861
0.00393415
0.00648211
0.0133903
0.0174378
0.0268626
0.0324954
0.0445762
0.0512722
0.0656159
0.0716982
0.0865566
0.0941596
0.111202
0.120224
0.14297
0.154563
0.187024
0.000122647
0.00492161
0.0289624
0.0491636
0.082135
0.131055
0.156586
0.208995
0.239636
0.287698
0.31567
0.364663
0.384637
0.432263
0.454493
0.503908
0.526881
0.585673
0.612412
0.683316
0.00335798
0.0695855
0.268407
0.408742
0.584737
0.709052
0.824641
0.93379
1.02512
1.09199
1.1616
1.22002
1.25088
1.30811
1.33213
1.37961
1.39896
1.45089
1.47062
1.51888
0.0845079
0.728118
1.57361
1.93102
2.28556
2.42881
2.57839
2.59459
2.62687
2.59869
2.58898
2.54153
2.52429
2.47284
2.46015
2.41776
2.40728
2.38017
2.36928
2.34214
1.40486
4.35383
5.3201
5.28561
5.13237
4.79237
4.59563
4.26737
4.13313
3.87235
3.77796
3.57705
3.52261
3.36548
3.33037
3.20455
3.1758
3.0574
3.02154
2.92318
8.11825
10.2696
8.78993
6.81885
5.71342
4.95545
4.54438
4.12448
3.93136
3.64909
3.55515
3.34914
3.30592
3.13646
3.10827
2.9481
2.92046
2.74511
2.68695
2.47629
1.83716
1.32613
1.04433
0.876022
0.76891
0.704787
0.661174
0.634592
0.612075
0.596349
0.58075
0.567455
0.553205
0.540767
0.526146
0.514225
0.499765
0.48778
0.473688
0.463182
0.450069
0.442443
0.431906
0.427292
0.418402
0.414791
0.406908
0.403634
0.396036
0.393731
0.388221
0.388513
0.389037
0.392401
0.395343
0.402823
0.40657
0.415308
0.418268
0.424684
0.424745
0.424001
0.419692
0.413474
0.401012
0.386812
0.369565
0.347787
0.332347
0.305926
0.289844
0.262523
0.245042
0.214542
0.187813
0.164374
0.146425
0.130502
0.122083
0.114494
0.113961
0.115488
0.12118
0.12746
0.141086
0.151013
0.172124
0.184364
0.209803
0.225159
0.250384
0.264265
0.28755
0.294558
0.308023
0.312853
0.32058
0.321232
0.323363
0.322071
0.320289
0.317108
0.313086
0.30515
0.303348
0.303292
0.301252
0.295605
0.288966
0.280033
0.261398
0.246843
0.241399
0.242067
0.243482
0.255182
0.267884
0.274209
0.274041
0.266956
0.25961
0.239589
0.217224
0.202528
0.187012
0.176268
0.169218
0.164905
0.155171
0.14746
0.141036
0.123616
0.112028
0.0990633
0.0718182
0.0554006
0.0341291
0.020493
0.0138885
0.00932555
0.00660144
0.00626752
0.00559704
0.00512325
0.0056401
0.00627093
0.00717946
0.00965437
0.016247
0.0326242
0.070656
0.22608
0.388565
0.42948
0.414521
0.359933
0.266147
0.191394
0.14476
0.126403
0.108882
0.100479
0.101943
0.109548
0.139642
0.171282
0.178252
0.171713
0.130482
0.0893381
0.0870429
0.112215
0.191147
0.238465
0.245357
0.219729
0.140505
0.0914926
0.0667354
0.0523237
0.0441345
0.038547
0.0353998
0.0325188
0.0314355
0.0297916
0.0296164
0.0291802
0.0294945
0.0295518
0.0304209
0.0329851
0.0431683
0.0618501
0.0693488
0.0744629
0.074921
0.0769577
0.076756
0.0775516
0.0752013
0.0633733
0.0595545
0.0530671
0.0534114
0.0558747
0.0545039
0.0550675
0.053675
0.048144
0.0450126
0.0428778
0.0431797
0.0424069
0.0441495
0.0503504
0.0584702
0.0655745
0.151112
1.0523
2.56032
2.11037
1.76552
1.5167
1.33217
1.19629
1.09271
1.01592
0.952576
0.904698
0.859779
0.826472
0.79287
0.769963
0.743367
0.726614
0.704419
0.691624
0.671332
0.661268
0.643668
0.635376
0.620267
0.613727
0.60078
0.595061
0.583137
0.577605
0.565971
0.560592
0.549644
0.544613
0.535351
0.530982
0.524996
0.520988
0.51872
0.515209
0.514649
0.512944
0.512879
0.511719
0.511464
0.50966
0.508032
0.503074
0.499497
0.491177
0.484642
0.476696
0.463116
0.454408
0.436186
0.425026
0.402738
0.379297
0.362369
0.340711
0.321502
0.312206
0.303028
0.301376
0.302628
0.308062
0.313812
0.321089
0.330198
0.336195
0.341975
0.34738
0.351323
0.352559
0.354415
0.354301
0.353909
0.351276
0.348239
0.341314
0.334937
0.323393
0.317142
0.303048
0.293993
0.277002
0.258498
0.244304
0.230183
0.209224
0.196793
0.180948
0.168391
0.159413
0.151339
0.150262
0.150594
0.15331
0.158778
0.168074
0.185354
0.202491
0.209128
0.210948
0.209843
0.204408
0.199733
0.189072
0.177357
0.169356
0.14968
0.135417
0.113079
0.0829533
0.0630366
0.0394971
0.024521
0.0167005
0.0106229
0.00761801
0.00585468
0.00460936
0.00415556
0.00432255
0.00427011
0.00446521
0.00550566
0.00664412
0.00925202
0.0154072
0.0304508
0.0609629
0.151754
0.373652
0.466067
0.456617
0.402993
0.276657
0.19561
0.145005
0.113085
0.102216
0.0927277
0.0856391
0.0857942
0.0891801
0.0997192
0.137246
0.16301
0.164824
0.145391
0.0988117
0.0888497
0.0999654
0.162881
0.216561
0.230572
0.219058
0.155964
0.102361
0.0727246
0.0571798
0.0475268
0.0405722
0.0383281
0.034339
0.0328337
0.0308368
0.0303242
0.0303174
0.0305991
0.0312365
0.0329465
0.0370062
0.053207
0.0689287
0.0753235
0.0774394
0.0780023
0.081353
0.0802729
0.0822075
0.0772852
0.0704878
0.0624666
0.0595117
0.0644723
0.0661577
0.0680288
0.0674716
0.0659815
0.0622164
0.052622
0.0504632
0.0465598
0.0474784
0.0469792
0.0495053
0.0650147
0.0702581
0.149761
0.510645
2.08188
1.85763
1.64787
1.47151
1.32696
1.2101
1.1154
1.04222
0.977371
0.928857
0.88031
0.845384
0.806138
0.780025
0.749124
0.728517
0.705661
0.688864
0.671528
0.656167
0.643224
0.62796
0.617872
0.604735
0.596128
0.586983
0.578919
0.571989
0.564997
0.556659
0.551571
0.540919
0.536183
0.526235
0.521861
0.512547
0.509003
0.501788
0.4991
0.49334
0.491443
0.487745
0.48641
0.484525
0.483508
0.483172
0.482385
0.482333
0.480925
0.480501
0.478838
0.477637
0.474469
0.472191
0.465617
0.460944
0.450081
0.444143
0.432112
0.425578
0.416107
0.411663
0.404124
0.400765
0.394228
0.390816
0.386006
0.380712
0.375115
0.370455
0.361943
0.3574
0.34866
0.340934
0.330287
0.317297
0.303072
0.289622
0.269017
0.255411
0.23411
0.216044
0.193182
0.171387
0.148483
0.128646
0.11234
0.0961598
0.0842297
0.0720362
0.0660888
0.06067
0.055289
0.054359
0.0544285
0.0550985
0.0593702
0.0632362
0.0704825
0.0821575
0.0862365
0.103129
0.110243
0.110426
0.110143
0.104306
0.0957729
0.0852976
0.0645072
0.0494513
0.0352458
0.0244455
0.0173099
0.0115065
0.00847627
0.00618732
0.00437958
0.00377377
0.00326421
0.00309921
0.00331623
0.00367939
0.003952
0.00484782
0.0076581
0.0106909
0.0169512
0.030562
0.0596184
0.114919
0.32418
0.499471
0.506315
0.459401
0.307969
0.196338
0.138576
0.109437
0.0921539
0.0859105
0.0800754
0.0756307
0.0756699
0.0775791
0.083019
0.10546
0.141985
0.154667
0.147782
0.107923
0.0908521
0.0953067
0.138026
0.194752
0.215479
0.212015
0.171204
0.112471
0.0788907
0.0603577
0.05087
0.0422748
0.0398326
0.0353088
0.0339209
0.0321159
0.0321792
0.0321061
0.0327762
0.0336119
0.0368635
0.0468261
0.0645626
0.0763383
0.0781803
0.0810809
0.0825625
0.082209
0.0818363
0.0830319
0.0816801
0.0786867
0.0667638
0.0643252
0.0652545
0.0713811
0.078153
0.0786315
0.0766278
0.0735159
0.0640497
0.0629268
0.0607281
0.0528588
0.0540209
0.0514173
0.0793051
0.0764847
0.1335
0.287251
1.33185
1.24125
1.15134
1.0662
0.986436
0.914381
0.854665
0.801773
0.758895
0.725168
0.691325
0.666313
0.639286
0.612597
0.594228
0.568213
0.55422
0.534711
0.524448
0.508055
0.501089
0.48655
0.479393
0.464479
0.457194
0.444719
0.438225
0.428631
0.424874
0.417129
0.414044
0.407363
0.40377
0.395685
0.39146
0.38275
0.377796
0.370932
0.366319
0.362213
0.358408
0.356768
0.353835
0.352036
0.352221
0.352706
0.354317
0.356879
0.361535
0.365911
0.373936
0.378156
0.385795
0.389892
0.394556
0.396454
0.395872
0.394236
0.391677
0.385197
0.381144
0.373333
0.366811
0.357145
0.347089
0.337794
0.325129
0.312593
0.300967
0.283671
0.271954
0.25572
0.237696
0.22331
0.202979
0.184115
0.167986
0.147268
0.130021
0.114037
0.0956405
0.0818635
0.0685063
0.0576224
0.0484401
0.040993
0.0350202
0.029716
0.0262702
0.0223613
0.02017
0.0188731
0.0174215
0.0170263
0.0168791
0.016928
0.017677
0.0182601
0.0194799
0.0228824
0.0239704
0.0275074
0.0301524
0.0316669
0.0317061
0.0302057
0.0282571
0.0239847
0.0198171
0.0156267
0.0117578
0.00890968
0.00647466
0.00476145
0.00384175
0.0029939
0.00253644
0.0025364
0.00259446
0.00271854
0.00328455
0.0038486
0.0048878
0.00843508
0.0151647
0.0212211
0.0329351
0.060566
0.107311
0.237969
0.509613
0.571128
0.529001
0.364737
0.216058
0.144259
0.111404
0.094225
0.0837262
0.0794709
0.0751646
0.0705521
0.0700116
0.070908
0.0740829
0.0849776
0.122422
0.142296
0.141926
0.115262
0.0922485
0.0928605
0.119501
0.172903
0.20122
0.203147
0.183715
0.125955
0.090907
0.0661935
0.0577994
0.0449333
0.0427209
0.0372605
0.0370587
0.0354707
0.0371158
0.0367569
0.0394273
0.0404158
0.0480548
0.0612749
0.0743785
0.0773092
0.0774497
0.0772201
0.0759107
0.0820223
0.0821104
0.0825003
0.0842246
0.0761652
0.0681379
0.0662324
0.0675115
0.0779545
0.0861178
0.0928684
0.0981841
0.0878528
0.0818294
0.0667971
0.07207
0.0612392
0.0808033
0.064564
0.115824
0.0970887
0.109099
0.188712
0.589945
0.569517
0.542595
0.519059
0.497113
0.46447
0.444959
0.418112
0.397555
0.385125
0.369435
0.359464
0.352733
0.338678
0.332022
0.320957
0.308998
0.301014
0.290258
0.282881
0.277019
0.27086
0.268237
0.263699
0.258419
0.253085
0.244771
0.237489
0.232411
0.225177
0.222601
0.21838
0.216439
0.214278
0.21027
0.208198
0.202842
0.198476
0.19475
0.19012
0.188086
0.185809
0.185142
0.184479
0.184495
0.184569
0.185049
0.186071
0.188279
0.190908
0.194127
0.199503
0.204358
0.208727
0.215794
0.219496
0.223649
0.226737
0.226771
0.225926
0.223272
0.217995
0.213241
0.203773
0.194842
0.185058
0.171691
0.160804
0.146628
0.132767
0.119761
0.105073
0.0925298
0.0811309
0.070136
0.0607767
0.0522568
0.0445201
0.0379048
0.0320542
0.027036
0.0226961
0.0191878
0.0162557
0.0136733
0.0118015
0.00998928
0.00851573
0.00756112
0.00645674
0.00587023
0.00550883
0.00528081
0.0052351
0.00504372
0.00504256
0.00511538
0.0051718
0.00540243
0.0057927
0.0062039
0.00651963
0.00699876
0.00823853
0.00872381
0.00879694
0.00864809
0.00806906
0.00719178
0.005894
0.00468601
0.00376219
0.0029456
0.00251059
0.00222721
0.00207425
0.00210746
0.00233724
0.0025646
0.00307368
0.0048413
0.00641213
0.00937716
0.0199106
0.0299875
0.039664
0.0611853
0.110077
0.182685
0.450191
0.623852
0.606762
0.460937
0.255944
0.162462
0.118628
0.0987667
0.0866489
0.0792452
0.0761776
0.0721151
0.0675755
0.0666626
0.0670735
0.0689298
0.0751811
0.104162
0.130752
0.134383
0.118829
0.0932157
0.0917946
0.105339
0.155019
0.185446
0.193114
0.185575
0.143422
0.108289
0.0718567
0.066261
0.0515173
0.0498128
0.0433149
0.0428953
0.0405876
0.0410833
0.0405927
0.0423323
0.0444291
0.0552114
0.071222
0.0772604
0.0822986
0.0797754
0.0791796
0.0731438
0.0706504
0.0634766
0.0612403
0.0623014
0.0612987
0.0686099
0.0653773
0.0760491
0.0804603
0.103373
0.105587
0.134229
0.131462
0.138069
0.100176
0.103011
0.0823698
0.11792
0.0953681
0.0997722
0.103622
0.104643
0.139088
0.161745
0.158928
0.153854
0.14926
0.146971
0.140136
0.136052
0.130214
0.123795
0.120448
0.117756
0.115237
0.11454
0.113283
0.111828
0.110616
0.107127
0.105481
0.101426
0.0985487
0.0959427
0.0935401
0.0927819
0.0918833
0.0912182
0.0911811
0.0903279
0.0880894
0.0848297
0.0806298
0.0784428
0.0761678
0.0747057
0.0741486
0.0730727
0.0726555
0.0721013
0.0707881
0.0698927
0.0672237
0.0660567
0.0646227
0.0637953
0.0637186
0.0638767
0.0644482
0.0651477
0.0660382
0.0667183
0.0680526
0.0690643
0.0712521
0.0729925
0.075668
0.0780589
0.0804824
0.0823376
0.0835371
0.0835023
0.082972
0.0817033
0.0787616
0.0761085
0.071937
0.0672817
0.0627718
0.0569826
0.0518565
0.0464093
0.0409884
0.036405
0.0314767
0.0273957
0.0233927
0.0197907
0.0167979
0.0138682
0.0117191
0.00959196
0.00801683
0.00673876
0.00558147
0.00486724
0.00410117
0.00360538
0.00312155
0.00268174
0.0024269
0.00209422
0.00195239
0.00181915
0.00173969
0.00174819
0.00172432
0.00170112
0.00168632
0.0016788
0.00168825
0.00171495
0.00176883
0.00191626
0.0019854
0.0021105
0.00246324
0.00299024
0.00322673
0.00322014
0.00310758
0.00282715
0.00244481
0.00218798
0.00199314
0.00185468
0.00188068
0.0018965
0.00198154
0.00242653
0.00306666
0.00389436
0.0059801
0.0105322
0.0142479
0.02158
0.0426869
0.0534578
0.0689679
0.114281
0.177777
0.32065
0.637836
0.690858
0.601225
0.33035
0.187342
0.130657
0.104885
0.0922133
0.0818368
0.0761298
0.0729205
0.0695735
0.0656083
0.0643024
0.0645528
0.0658103
0.0701855
0.0920474
0.119916
0.126576
0.118743
0.094489
0.0903617
0.0967523
0.133991
0.17009
0.183479
0.181884
0.151665
0.132709
0.0842298
0.0763631
0.0593374
0.0560203
0.0486961
0.04735
0.0443817
0.0455975
0.0457625
0.0514529
0.0555575
0.071789
0.0777237
0.0813892
0.081212
0.076356
0.0727029
0.0654039
0.0639794
0.0595027
0.0545177
0.0465195
0.0447167
0.0449074
0.0466051
0.0585726
0.0690751
0.109663
0.121239
0.144102
0.155551
0.251162
0.209668
0.212116
0.14104
0.121756
0.102608
0.0899417
0.0980231
0.0969028
0.108665
0.027184
0.0266558
0.0256682
0.025008
0.0250009
0.0246758
0.0243837
0.0239609
0.0229272
0.0223645
0.0218371
0.0215005
0.0215581
0.0215787
0.0216817
0.0218877
0.0218311
0.0218701
0.021639
0.0209788
0.0205494
0.0200722
0.0200591
0.0200635
0.0200815
0.0202941
0.0202896
0.0202291
0.0198456
0.0186425
0.0179235
0.0172726
0.0168672
0.016789
0.0167484
0.0167713
0.0168046
0.0167917
0.0168251
0.0165853
0.0162376
0.0158342
0.0156296
0.0156382
0.0157391
0.0159776
0.0164483
0.0169852
0.0172713
0.0178234
0.0181134
0.0187511
0.0191927
0.0198419
0.0206305
0.0214857
0.0221233
0.0228234
0.0229247
0.0227748
0.0224036
0.0214786
0.0205422
0.019162
0.0175828
0.0161433
0.0145005
0.0130042
0.0115719
0.0102442
0.00902702
0.00781486
0.00675304
0.00563718
0.00473348
0.00387026
0.00315915
0.00260116
0.00207835
0.0017599
0.00146171
0.00127094
0.00113364
0.00100575
0.000933733
0.000841675
0.00081121
0.000783
0.000776546
0.000785708
0.00079127
0.000806394
0.000806906
0.000803566
0.00079063
0.000781474
0.000767755
0.000761777
0.000757537
0.000762517
0.000773988
0.000829113
0.000872331
0.000934412
0.00111543
0.00116836
0.00128123
0.00131706
0.00134605
0.00140039
0.00154022
0.00160368
0.00168918
0.00188949
0.00222697
0.00296051
0.00484524
0.00621298
0.00866101
0.0156077
0.0239481
0.0316387
0.0518769
0.0787297
0.0927102
0.119647
0.193666
0.269251
0.526827
0.757329
0.727725
0.486928
0.251311
0.15329
0.115803
0.0979154
0.0880753
0.0797309
0.0739954
0.0706271
0.0680047
0.064484
0.0628932
0.0630492
0.0641367
0.0673081
0.0842777
0.111852
0.120142
0.116319
0.0947406
0.0900113
0.0920542
0.118196
0.153933
0.172046
0.1789
0.158484
0.150638
0.107521
0.0936841
0.0693454
0.0657363
0.0561148
0.0565569
0.0537696
0.0591415
0.060592
0.0731233
0.0770903
0.0852861
0.0865771
0.0862645
0.0840897
0.0762764
0.069846
0.0638173
0.0606746
0.0554115
0.0514977
0.0426841
0.0407028
0.0401886
0.0410033
0.0502085
0.061716
0.0725908
0.0998935
0.100679
0.11263
0.129039
0.188292
0.2549
0.226752
0.203037
0.138152
0.108335
0.104235
0.0955152
0.0968195
0.00305464
0.00303476
0.00298933
0.0029103
0.00290636
0.00286716
0.00285318
0.00282414
0.00271874
0.00265937
0.00259138
0.00253753
0.00253521
0.00253987
0.00259961
0.00275174
0.00278943
0.00287066
0.00288129
0.00284957
0.00282035
0.00272873
0.00270442
0.00269954
0.00269019
0.00270665
0.00270808
0.00270696
0.0026841
0.0025544
0.00245546
0.00236622
0.00230552
0.00229148
0.00230449
0.00237777
0.00245475
0.00249146
0.0025328
0.00253781
0.00252533
0.00248235
0.00246022
0.00246979
0.0025027
0.0025505
0.00269073
0.00279563
0.00287987
0.0030238
0.00310211
0.00325168
0.00332997
0.00355268
0.00373649
0.00401429
0.00431193
0.00454257
0.00457395
0.00453161
0.00442341
0.00418918
0.00382047
0.00348959
0.00315524
0.00284028
0.00261398
0.00235282
0.00215147
0.00194785
0.00171741
0.00150515
0.00126506
0.00106514
0.000883325
0.000726189
0.000627963
0.000537116
0.00048597
0.000452824
0.000448279
0.000451091
0.000453421
0.000457859
0.000463039
0.000480838
0.000506235
0.00056645
0.000613842
0.000655384
0.000714821
0.000733758
0.000747711
0.000743782
0.000732242
0.000709011
0.000674967
0.000639851
0.000631748
0.000627584
0.000631692
0.00066383
0.000682366
0.000734948
0.000785773
0.00082811
0.000935545
0.00108396
0.00117448
0.00138869
0.00159345
0.00181143
0.0023448
0.00353142
0.0046496
0.00734644
0.010633
0.0142173
0.0213333
0.0402442
0.0530154
0.0701313
0.114269
0.141276
0.15648
0.200564
0.281851
0.387953
0.723634
0.820942
0.708422
0.388447
0.20736
0.135515
0.106998
0.0937042
0.087068
0.0790606
0.0720548
0.0693319
0.0669428
0.0630357
0.0615356
0.0619015
0.0633659
0.0665507
0.0790684
0.107157
0.115132
0.113392
0.0951573
0.0898587
0.0904158
0.104081
0.145149
0.157524
0.18107
0.164297
0.165234
0.136357
0.127053
0.0953931
0.0914221
0.0779568
0.0818773
0.0804593
0.0859916
0.0871802
0.0920149
0.0919619
0.0926128
0.0915273
0.0882286
0.0829458
0.0739979
0.0642149
0.0586391
0.053366
0.0462642
0.0444697
0.0404983
0.0410935
0.0419909
0.0447794
0.0600351
0.0681415
0.0734492
0.0842146
0.0841652
0.0939658
0.0924019
0.132461
0.156773
0.2098
0.20158
0.179581
0.136258
0.124009
0.102507
0.0963548
0.000248838
0.000250651
0.000255188
0.000260096
0.000264276
0.000265979
0.00027006
0.000274247
0.00027364
0.000268602
0.000259937
0.000249477
0.000243756
0.000240221
0.000240192
0.00025266
0.00026357
0.000276808
0.000283729
0.000284389
0.000284448
0.000277987
0.000271122
0.000268219
0.000265078
0.000265418
0.000265908
0.000265856
0.000266285
0.000263681
0.000257363
0.00025124
0.000246408
0.000244574
0.000245457
0.000251607
0.000261528
0.000267511
0.000272169
0.000273628
0.000271648
0.000267278
0.000265307
0.000266518
0.000272016
0.000277658
0.00029516
0.000307826
0.00032729
0.000344669
0.000360686
0.000389726
0.000400587
0.000430333
0.000453955
0.000507813
0.000575891
0.000605299
0.000605075
0.000598117
0.000568603
0.000529588
0.000470674
0.000442669
0.000410643
0.000388406
0.000375166
0.00035242
0.000340448
0.000319594
0.000302976
0.000285531
0.000278923
0.000277294
0.000279634
0.000285847
0.000298303
0.000333907
0.000358014
0.000396876
0.000446353
0.00051453
0.000583926
0.000625042
0.000702491
0.000795538
0.000938888
0.00106804
0.00116387
0.00135648
0.00148171
0.00154178
0.00154176
0.00152081
0.00144779
0.00137039
0.00121917
0.00114191
0.00105128
0.000978376
0.000968003
0.000971207
0.000988715
0.00104993
0.00115988
0.00126743
0.00153178
0.00180197
0.00199586
0.0024686
0.00291086
0.00369566
0.00590676
0.00829754
0.0111685
0.0169699
0.0232989
0.0331973
0.0588645
0.0924958
0.113487
0.162501
0.214372
0.227251
0.238101
0.287673
0.357233
0.528636
0.836099
0.855116
0.663353
0.348372
0.187326
0.126165
0.101834
0.0929774
0.088013
0.0778757
0.0713253
0.0694884
0.0657101
0.0621968
0.0613758
0.0623115
0.0639143
0.0672565
0.0798806
0.102558
0.112677
0.11152
0.0959695
0.0885665
0.088517
0.095226
0.133526
0.146926
0.179669
0.166223
0.170787
0.152638
0.149244
0.129301
0.124469
0.111503
0.110273
0.104809
0.104488
0.100966
0.101269
0.0994683
0.0972297
0.0917188
0.0873104
0.0757831
0.0715398
0.0596543
0.0537898
0.0485377
0.044112
0.0404359
0.0400133
0.0402563
0.0416504
0.045454
0.0603967
0.0785628
0.0810242
0.0862842
0.0825968
0.0843897
0.0859816
0.101868
0.103306
0.169754
0.179499
0.186545
0.16527
0.136535
0.111953
0.0983065
8.96584e-05
9.04454e-05
9.29228e-05
9.54334e-05
9.63767e-05
9.67842e-05
9.73401e-05
9.80658e-05
9.85346e-05
9.86219e-05
9.82346e-05
9.7067e-05
9.62112e-05
9.58098e-05
9.59414e-05
9.59792e-05
9.68484e-05
9.77828e-05
0.000100378
0.000100802
0.000100943
0.000100777
9.98892e-05
9.89057e-05
9.81057e-05
9.74704e-05
9.71181e-05
9.70275e-05
9.73365e-05
9.86253e-05
9.97599e-05
0.000101065
0.000101391
0.00010162
0.000101375
0.000100931
0.000100183
9.99266e-05
9.98084e-05
9.9925e-05
0.000100477
0.000100776
0.000101007
0.00010094
0.000101392
0.000101807
0.000102927
0.000104535
0.000105273
0.000107765
0.000109391
0.000111774
0.000114529
0.000117548
0.000120128
0.00012264
0.000125007
0.000129113
0.000130194
0.000133274
0.000134557
0.000137111
0.000139008
0.000139879
0.000141854
0.000146909
0.000152057
0.000164766
0.000175038
0.000192182
0.000224765
0.000248232
0.000311162
0.000366756
0.000488006
0.000578171
0.000751386
0.000969306
0.00112315
0.00137736
0.0016185
0.00197503
0.00214946
0.00246861
0.00270393
0.00310212
0.00351331
0.00373828
0.00414767
0.00455283
0.00469623
0.00471609
0.00468333
0.00449148
0.00429606
0.00387171
0.0034651
0.00318824
0.00294108
0.00274961
0.0026301
0.00262746
0.00267175
0.00278171
0.00304482
0.00332394
0.00379495
0.00424603
0.00481406
0.00584748
0.00722254
0.00996183
0.014822
0.0187015
0.0260991
0.0387657
0.055179
0.0857565
0.153784
0.197832
0.237736
0.27645
0.281447
0.270213
0.277891
0.355255
0.442524
0.686505
0.896112
0.877491
0.643829
0.334049
0.1799
0.122251
0.100512
0.0964175
0.0873119
0.0759554
0.0733575
0.0710651
0.065553
0.0623297
0.0617761
0.0641573
0.0661633
0.0691387
0.0822455
0.10219
0.112064
0.111448
0.0988382
0.0871856
0.0874893
0.0891759
0.110198
0.130997
0.165933
0.162635
0.166025
0.154861
0.154526
0.143719
0.138989
0.129693
0.121693
0.118892
0.113371
0.111564
0.107675
0.103843
0.097559
0.0874772
0.0830217
0.0718186
0.0670266
0.0552781
0.0510389
0.0476644
0.0435375
0.042085
0.0439029
0.0452968
0.0473331
0.0502237
0.0625988
0.0788668
0.0852195
0.0861258
0.0820657
0.0801095
0.0798805
0.0907382
0.0959227
0.1363
0.142839
0.172083
0.167878
0.150366
0.127733
0.104155
9.03351e-05
9.10348e-05
9.28374e-05
9.60369e-05
9.63016e-05
9.67183e-05
9.66143e-05
9.66882e-05
9.75146e-05
9.87515e-05
0.000101174
0.000102622
0.00010249
0.000102648
0.000102159
0.000101327
0.00010113
0.000100855
0.00010134
0.00010397
0.00010607
0.000109497
0.000111028
0.000111313
0.000111895
0.000111936
0.000112232
0.000112849
0.000114449
0.000119625
0.00012462
0.00012997
0.000131794
0.000133013
0.000132809
0.00013192
0.000131463
0.000130951
0.000129878
0.000129865
0.000131544
0.000135127
0.000136905
0.000137783
0.000137397
0.00013532
0.00013438
0.000135229
0.000139441
0.000145974
0.000149087
0.000151413
0.000153163
0.000153875
0.000153011
0.000150381
0.000143564
0.000143025
0.000143766
0.000146159
0.000155458
0.000167382
0.000191329
0.000227045
0.000261773
0.000332243
0.000379738
0.000489488
0.000575807
0.000724494
0.000943013
0.00109866
0.0015262
0.00182751
0.00228606
0.0029234
0.00335069
0.00431779
0.00483068
0.00567695
0.00657282
0.00755757
0.00813647
0.00917097
0.0100524
0.0109138
0.0117034
0.0123565
0.0132141
0.0134336
0.0133765
0.0131942
0.0127045
0.0118971
0.0112846
0.0101218
0.00915093
0.00845385
0.00780607
0.00734698
0.00703512
0.00700516
0.00707401
0.00725662
0.00775294
0.00827279
0.00889352
0.0104582
0.0119407
0.0139274
0.0189743
0.0254867
0.0327743
0.0426799
0.0630537
0.0929443
0.143016
0.241336
0.295143
0.302233
0.303453
0.309027
0.297179
0.275911
0.297374
0.389933
0.483272
0.737907
0.91296
0.902386
0.669697
0.34493
0.180907
0.121923
0.105017
0.0970813
0.0857328
0.0796282
0.0767453
0.0691727
0.0654726
0.0640221
0.0643638
0.0685436
0.0690882
0.0720398
0.0870203
0.104577
0.112047
0.113905
0.106885
0.0883655
0.0890256
0.0863442
0.0923031
0.109968
0.124506
0.150087
0.153862
0.150943
0.15082
0.144734
0.136975
0.135487
0.125111
0.12424
0.117937
0.115794
0.110989
0.10163
0.0926148
0.082274
0.0780109
0.0658532
0.0594497
0.0519376
0.0497109
0.0477225
0.0459409
0.0458429
0.0501086
0.0545907
0.057345
0.0608306
0.0809953
0.0859241
0.096737
0.0938999
0.0933844
0.0860654
0.085452
0.0873315
0.0916611
0.11079
0.115286
0.135789
0.148995
0.143807
0.141782
0.122719
0.000201867
0.000213452
0.000224032
0.00022844
0.000227215
0.000221691
0.000220001
0.000221667
0.000250932
0.00028878
0.000335697
0.000372882
0.000380842
0.000387763
0.000385887
0.000373159
0.000370538
0.000362639
0.000362242
0.000377458
0.000388635
0.00042849
0.000461087
0.000473848
0.000493884
0.000494031
0.000494625
0.000495788
0.00049749
0.000525591
0.000579526
0.000659828
0.000702334
0.000737926
0.000749445
0.00074955
0.000740018
0.000735516
0.00071635
0.00071404
0.000713402
0.000724427
0.000757207
0.000766692
0.000777422
0.000774431
0.000777438
0.000788442
0.000808701
0.000829099
0.000833578
0.000840822
0.000842118
0.000844497
0.000825458
0.000803368
0.000798503
0.000804172
0.000830071
0.000867145
0.000969978
0.00106205
0.00126513
0.00140273
0.0017195
0.00205293
0.00230772
0.00298141
0.00343248
0.0041251
0.00507377
0.00583136
0.00749388
0.00840889
0.0102031
0.0120385
0.0133039
0.0161299
0.017734
0.0200225
0.0226201
0.0248284
0.0270228
0.0298486
0.0319621
0.033174
0.0351586
0.0360397
0.0361103
0.0359023
0.0348904
0.0338852
0.0317852
0.0294735
0.0274457
0.0249018
0.0223258
0.0207329
0.0189389
0.0175634
0.0168684
0.0167879
0.0169418
0.0173981
0.0184949
0.0197731
0.0216982
0.0253759
0.0289211
0.0356464
0.0469699
0.0587101
0.0745911
0.109808
0.149027
0.235752
0.335349
0.358508
0.347874
0.324379
0.311325
0.260585
0.217282
0.227717
0.326115
0.390414
0.482635
0.717913
0.89786
0.954717
0.764048
0.415004
0.211642
0.134376
0.109206
0.0979265
0.0903903
0.0874393
0.0790874
0.0730155
0.0732831
0.0693498
0.0725814
0.0733805
0.0759474
0.0805377
0.0913304
0.112594
0.113297
0.11638
0.113515
0.09259
0.0951677
0.087487
0.092159
0.0996657
0.10397
0.124928
0.128225
0.138504
0.138147
0.138711
0.133257
0.13448
0.125222
0.124635
0.118177
0.112816
0.102739
0.0927155
0.0844221
0.0752072
0.0688686
0.0585121
0.0543375
0.051232
0.0505011
0.0492345
0.0490173
0.0506021
0.0617507
0.0662288
0.0706424
0.0803161
0.106654
0.113722
0.118143
0.110735
0.104945
0.09316
0.0946221
0.0927121
0.0951474
0.0996352
0.100621
0.106944
0.115503
0.120907
0.136755
0.132546
0.00269405
0.00276007
0.00275917
0.00274123
0.00269447
0.00267855
0.00270494
0.00284522
0.00318682
0.00340672
0.00366708
0.0038904
0.00394509
0.00404212
0.00404614
0.00402964
0.00404465
0.00403563
0.0040608
0.00417994
0.00426101
0.00453828
0.0047247
0.00485907
0.00503876
0.00508415
0.00514073
0.00518214
0.00521421
0.00539735
0.0056046
0.00591883
0.00607472
0.00619621
0.00622268
0.00621812
0.00617102
0.00613119
0.00606863
0.00607046
0.00614949
0.00627327
0.00640876
0.00640846
0.00641536
0.00636291
0.00633666
0.00630793
0.00629837
0.00631366
0.006306
0.00632014
0.00630695
0.00632411
0.00623359
0.00619572
0.00620792
0.00626764
0.00646253
0.00664989
0.00717434
0.00757919
0.00843169
0.00900881
0.0103431
0.0115004
0.0126607
0.0150977
0.0164617
0.019202
0.0216625
0.024716
0.0288431
0.0311742
0.0368106
0.0403886
0.0450549
0.0506332
0.0551844
0.061381
0.0674461
0.0731107
0.0792115
0.0850093
0.0880699
0.0918955
0.0942269
0.0940649
0.0931788
0.0914117
0.0863547
0.0830753
0.0769651
0.0702071
0.065994
0.0586179
0.0536086
0.0499781
0.045039
0.0429294
0.0411234
0.0408419
0.0412552
0.0423123
0.0449825
0.0481214
0.0528286
0.0614889
0.0722826
0.086644
0.106287
0.140552
0.175004
0.242228
0.353241
0.411696
0.410996
0.38451
0.304205
0.213738
0.164782
0.143527
0.146628
0.222526
0.343301
0.375653
0.461556
0.619464
0.831131
1.02768
0.917751
0.539588