/*--------------------------------*- C++ -*----------------------------------*\
| =========                 |                                                 |
| \\      /  F ield         | OpenFOAM: The Open Source CFD Toolbox           |
|  \\    /   O peration     | Version:  2.4.0                                 |
|   \\  /    A nd           | Web:      www.OpenFOAM.org                      |
|    \\/     M anipulation  |                                                 |
\*---------------------------------------------------------------------------*/
FoamFile
{
    version     2.0;
    format      ascii;
    class       volVectorField;
    location    "1.22";
    object      U_0;
}
// * * * * * * * * * * * * * * * * * * * * * * * * * * * * * * * * * * * * * //

dimensions      [0 1 -1 0 0 0 0];

internalField   nonuniform List<vector> 
8800
(
(8.09328 0.387766 0)
(5.45107 0.242741 0)
(3.90763 0.0430587 0)
(3.1625 -0.015979 0)
(2.79465 -0.017752 0)
(2.60689 -0.011329 0)
(2.47473 -0.00578465 0)
(2.39134 -0.00209822 0)
(2.3064 -0.00128953 0)
(2.26199 -0.00108098 0)
(2.20301 -0.000272907 0)
(2.18268 -0.000675143 0)
(2.12612 0.000813121 0)
(2.11712 -0.000515823 0)
(2.05974 0.000792647 0)
(2.05641 -0.000371112 0)
(1.99393 0.00116709 0)
(1.99575 -0.00303952 0)
(1.98372 0.010801 0)
(1.78925 -0.066985 0)
(10.0852 0.837782 0)
(9.66431 0.869339 0)
(8.85769 0.506347 0)
(8.10467 0.26043 0)
(7.46837 0.139885 0)
(7.03746 0.0810494 0)
(6.66717 0.0538665 0)
(6.43147 0.0416565 0)
(6.1905 0.0303676 0)
(6.06105 0.0231091 0)
(5.88485 0.0196055 0)
(5.82726 0.016001 0)
(5.66645 0.0181531 0)
(5.65132 0.0129329 0)
(5.49674 0.0176311 0)
(5.49199 0.0118215 0)
(5.34441 0.0212997 0)
(5.33684 -0.0055232 0)
(5.27891 0.0284053 0)
(5.1475 -0.0230395 0)
(10.055 0.629249 0)
(10.6779 0.867351 0)
(10.835 0.599059 0)
(10.733 0.371989 0)
(10.4105 0.258541 0)
(10.1422 0.19495 0)
(9.78468 0.153254 0)
(9.55421 0.124838 0)
(9.25381 0.0948337 0)
(9.10012 0.0750839 0)
(8.85279 0.0602572 0)
(8.78182 0.0500798 0)
(8.55155 0.0484691 0)
(8.53428 0.0363727 0)
(8.32241 0.0444599 0)
(8.31453 0.0317263 0)
(8.11656 0.0489453 0)
(8.11402 0.00303941 0)
(7.98869 0.0373457 0)
(7.9501 -0.0724317 0)
(9.96756 0.453764 0)
(10.6176 0.714377 0)
(11.0996 0.540409 0)
(11.4465 0.350544 0)
(11.481 0.263965 0)
(11.5484 0.224355 0)
(11.4121 0.200777 0)
(11.3896 0.179645 0)
(11.2133 0.148863 0)
(11.1688 0.124837 0)
(10.9809 0.10618 0)
(10.9657 0.0905433 0)
(10.7659 0.0903191 0)
(10.7633 0.06571 0)
(10.576 0.0814551 0)
(10.5681 0.057511 0)
(10.3771 0.0862123 0)
(10.3784 0.0202999 0)
(10.2192 0.059069 0)
(10.2334 -0.0864976 0)
(9.96613 0.338577 0)
(10.4901 0.583408 0)
(10.9396 0.452439 0)
(11.392 0.294703 0)
(11.5649 0.211356 0)
(11.7791 0.189507 0)
(11.7983 0.177328 0)
(11.9188 0.172927 0)
(11.9106 0.147504 0)
(11.9749 0.135302 0)
(11.9442 0.110805 0)
(12.0095 0.10408 0)
(11.9619 0.100418 0)
(11.9937 0.0852634 0)
(11.941 0.0909975 0)
(11.962 0.0897041 0)
(11.8767 0.0916273 0)
(11.8782 0.068001 0)
(11.7957 0.0622309 0)
(11.793 -0.0110981 0)
(9.99236 0.246011 0)
(10.3937 0.472682 0)
(10.8143 0.368022 0)
(11.2183 0.242094 0)
(11.4698 0.161879 0)
(11.6754 0.14397 0)
(11.7585 0.149761 0)
(11.8846 0.142629 0)
(11.9751 0.126824 0)
(12.0342 0.112828 0)
(12.0972 0.09557 0)
(12.1817 0.0864373 0)
(12.2583 0.0923262 0)
(12.2968 0.0716241 0)
(12.3597 0.079831 0)
(12.4115 0.0822962 0)
(12.4492 0.0954751 0)
(12.4647 0.0726719 0)
(12.4789 0.100674 0)
(12.4927 0.0112764 0)
(9.99974 0.165279 0)
(10.333 0.374294 0)
(10.7452 0.288304 0)
(11.0808 0.201921 0)
(11.3751 0.115567 0)
(11.5811 0.110451 0)
(11.6446 0.100508 0)
(11.7995 0.116689 0)
(11.8909 0.0901968 0)
(11.9729 0.114255 0)
(12.0267 0.0553675 0)
(12.1209 0.079211 0)
(12.2128 0.0510881 0)
(12.2627 0.0816201 0)
(12.3151 0.0370714 0)
(12.4241 0.0965443 0)
(12.4868 0.041977 0)
(12.5094 0.119012 0)
(12.5182 0.0760517 0)
(12.6473 0.169106 0)
(9.98164 0.0990846 0)
(10.2879 0.275618 0)
(10.6652 0.198673 0)
(11.0065 0.166883 0)
(11.3278 0.0557978 0)
(11.522 0.0945542 0)
(11.5917 0.0605103 0)
(11.7283 0.0942901 0)
(11.8191 0.0435004 0)
(11.9102 0.101319 0)
(11.9234 0.0279278 0)
(12.0486 0.0764448 0)
(12.1523 0.0218627 0)
(12.1793 0.0837184 0)
(12.2602 -0.00326957 0)
(12.3823 0.082384 0)
(12.3966 0.0274772 0)
(12.4522 0.120204 0)
(12.5594 0.0475953 0)
(12.5502 0.174933 0)
(9.99154 0.0542427 0)
(10.2724 0.16788 0)
(10.5826 0.135295 0)
(10.996 0.085085 0)
(11.2786 0.0346923 0)
(11.4725 0.0475434 0)
(11.5732 0.0371995 0)
(11.6628 0.0390436 0)
(11.7769 0.0391122 0)
(11.8346 0.0736991 0)
(11.8754 0.0253576 0)
(12.0325 0.0131431 0)
(12.08 0.0317732 0)
(12.1572 0.0413693 0)
(12.2683 0.00121401 0)
(12.2902 0.0365492 0)
(12.34 0.0441608 0)
(12.4745 0.039194 0)
(12.475 0.0439707 0)
(12.392 0.03466 0)
(10.0041 0.00103685 0)
(10.1976 0.0807777 0)
(10.6229 0.0381459 0)
(10.9865 0.0321717 0)
(11.2194 -0.0133578 0)
(11.4626 0.0319808 0)
(11.5806 0.00938262 0)
(11.6223 0.0166685 0)
(11.702 -0.00477681 0)
(11.8016 0.0568208 0)
(11.9143 -0.0114873 0)
(12.0151 0.0167409 0)
(12.0228 0.00445431 0)
(12.1514 0.0220269 0)
(12.2413 -0.0206074 0)
(12.2737 0.0394741 0)
(12.3493 -0.00943488 0)
(12.3949 0.0291503 0)
(12.418 0.0215963 0)
(12.3898 0.00863465 0)
(9.99106 -0.0275084 0)
(10.2174 -0.0319624 0)
(10.6233 -0.0440958 0)
(10.9758 -0.0274307 0)
(11.2327 -0.0302499 0)
(11.4223 -0.0238439 0)
(11.5728 -0.011373 0)
(11.6332 -0.0165022 0)
(11.7152 -0.0119693 0)
(11.7974 0.00764963 0)
(11.9307 -0.0227423 0)
(11.9863 -0.0161431 0)
(12.0667 0.00563341 0)
(12.1506 -0.0162986 0)
(12.2305 -0.0239243 0)
(12.2967 -0.00326902 0)
(12.3393 0.00289724 0)
(12.3714 -0.0139275 0)
(12.4376 -0.0198407 0)
(12.4112 -0.0189779 0)
(10.0099 -0.0761232 0)
(10.2106 -0.130365 0)
(10.6319 -0.129433 0)
(11.0083 -0.0878169 0)
(11.2588 -0.065291 0)
(11.4703 -0.0437038 0)
(11.5741 -0.0420118 0)
(11.6368 -0.0528188 0)
(11.7482 -0.045686 0)
(11.8519 -0.0206422 0)
(11.9461 -0.0441719 0)
(12.0043 -0.0267873 0)
(12.0793 -0.0216357 0)
(12.1844 -0.0320331 0)
(12.2317 -0.0445202 0)
(12.2863 -0.0125688 0)
(12.3585 -0.0322342 0)
(12.4397 -0.039917 0)
(12.4609 -0.0348775 0)
(12.3638 -0.0264529 0)
(10.0034 -0.11787 0)
(10.2394 -0.234271 0)
(10.6889 -0.218396 0)
(11.0603 -0.147967 0)
(11.3091 -0.0920182 0)
(11.4934 -0.0872133 0)
(11.6089 -0.0630553 0)
(11.7105 -0.084185 0)
(11.7952 -0.0696828 0)
(11.887 -0.0574846 0)
(11.963 -0.0541028 0)
(12.0455 -0.0534948 0)
(12.1391 -0.0329959 0)
(12.2061 -0.0560231 0)
(12.2743 -0.0474156 0)
(12.3382 -0.0484071 0)
(12.419 -0.0500591 0)
(12.475 -0.0718496 0)
(12.495 -0.0638516 0)
(12.4488 -0.0365588 0)
(10.023 -0.176458 0)
(10.2765 -0.34286 0)
(10.7747 -0.304993 0)
(11.1191 -0.199808 0)
(11.3864 -0.123817 0)
(11.5509 -0.115412 0)
(11.6897 -0.0987954 0)
(11.7544 -0.122982 0)
(11.877 -0.0928388 0)
(11.9437 -0.0808856 0)
(12.0381 -0.0752606 0)
(12.1204 -0.0765667 0)
(12.2057 -0.0532519 0)
(12.2735 -0.0747551 0)
(12.3522 -0.0666163 0)
(12.4105 -0.0697031 0)
(12.4829 -0.0722071 0)
(12.5272 -0.09875 0)
(12.5555 -0.0847341 0)
(12.498 -0.0801858 0)
(10.0581 -0.251017 0)
(10.313 -0.447228 0)
(10.9203 -0.392048 0)
(11.1703 -0.240736 0)
(11.5234 -0.16347 0)
(11.6088 -0.160978 0)
(11.807 -0.128713 0)
(11.8196 -0.148758 0)
(11.9925 -0.120218 0)
(11.993 -0.11153 0)
(12.144 -0.0955121 0)
(12.1575 -0.0999741 0)
(12.2843 -0.067881 0)
(12.2789 -0.0978182 0)
(12.3906 -0.0763477 0)
(12.381 -0.0951642 0)
(12.4641 -0.0838185 0)
(12.4458 -0.126771 0)
(12.484 -0.107738 0)
(12.3814 -0.121869 0)
(10.0544 -0.346146 0)
(10.4019 -0.563705 0)
(11.0629 -0.473545 0)
(11.2831 -0.283731 0)
(11.6735 -0.213851 0)
(11.6553 -0.196131 0)
(11.8943 -0.167927 0)
(11.8053 -0.17797 0)
(11.9961 -0.148078 0)
(11.8865 -0.127305 0)
(12.0427 -0.116269 0)
(11.9141 -0.112338 0)
(12.0572 -0.0839232 0)
(11.9027 -0.104642 0)
(12.0231 -0.0861826 0)
(11.8699 -0.10114 0)
(11.9505 -0.0877778 0)
(11.7854 -0.134471 0)
(11.8085 -0.111169 0)
(11.5838 -0.148976 0)
(10.0087 -0.45711 0)
(10.5708 -0.703174 0)
(11.1727 -0.552216 0)
(11.3612 -0.346538 0)
(11.5751 -0.264111 0)
(11.4308 -0.231662 0)
(11.5184 -0.19342 0)
(11.275 -0.180418 0)
(11.3141 -0.149201 0)
(11.0644 -0.124132 0)
(11.0963 -0.107207 0)
(10.8324 -0.0981331 0)
(10.9045 -0.0738172 0)
(10.6211 -0.0857105 0)
(10.7018 -0.0699399 0)
(10.4271 -0.0828564 0)
(10.4958 -0.0668263 0)
(10.2043 -0.114266 0)
(10.2298 -0.0853314 0)
(9.89788 -0.152543 0)
(10.0636 -0.632105 0)
(10.6629 -0.861892 0)
(10.8653 -0.605111 0)
(10.6879 -0.370078 0)
(10.4667 -0.25631 0)
(10.0656 -0.199505 0)
(9.86068 -0.149131 0)
(9.47155 -0.12466 0)
(9.33365 -0.0971881 0)
(9.01658 -0.0734694 0)
(8.94513 -0.0601116 0)
(8.66758 -0.0554377 0)
(8.67582 -0.0393957 0)
(8.39902 -0.0466273 0)
(8.4438 -0.0411592 0)
(8.17255 -0.0466464 0)
(8.22273 -0.0429597 0)
(7.92653 -0.0688387 0)
(7.94403 -0.0644883 0)
(7.60606 -0.083683 0)
(10.0839 -0.83873 0)
(9.66011 -0.86692 0)
(8.86822 -0.508306 0)
(8.08221 -0.260413 0)
(7.49757 -0.137815 0)
(6.99558 -0.0845151 0)
(6.71022 -0.0517121 0)
(6.3843 -0.0411418 0)
(6.23853 -0.0318112 0)
(6.00898 -0.022464 0)
(5.94203 -0.0188281 0)
(5.75414 -0.0201439 0)
(5.74542 -0.0121841 0)
(5.56169 -0.018574 0)
(5.57692 -0.0168198 0)
(5.38622 -0.020664 0)
(5.40669 -0.019015 0)
(5.18687 -0.032575 0)
(5.18539 -0.0351543 0)
(4.90184 -0.015162 0)
(8.09087 -0.38807 0)
(5.4505 -0.242274 0)
(3.91 -0.0432747 0)
(3.15655 0.0156393 0)
(2.8032 0.0185018 0)
(2.59456 0.0102111 0)
(2.48692 0.00647502 0)
(2.3766 0.00219432 0)
(2.32251 0.000907351 0)
(2.24397 0.00124293 0)
(2.22256 0.000724746 0)
(2.15716 -0.000822067 0)
(2.1507 0.00115246 0)
(2.08827 -0.00115193 0)
(2.08375 -0.00063075 0)
(2.01023 -0.00182144 0)
(2.00576 -0.000542271 0)
(1.91672 -0.00414282 0)
(1.88252 -0.00370403 0)
(1.73736 0.0110159 0)
(2.21725 -0.106178 0)
(2.34056 -0.0163724 0)
(2.4743 0.0164458 0)
(2.57047 0.0209345 0)
(2.65048 0.00942077 0)
(2.71711 -0.00838978 0)
(2.78547 -0.0205542 0)
(2.84993 -0.0270477 0)
(2.91548 -0.0264448 0)
(2.9733 -0.0189359 0)
(3.02038 -0.0098468 0)
(3.06201 4.05224e-05 0)
(3.09702 0.00856685 0)
(3.13384 0.012506 0)
(3.17425 0.0174693 0)
(3.21584 0.0207706 0)
(3.26274 0.0236863 0)
(3.31112 0.0265249 0)
(3.36248 0.0277132 0)
(3.41135 0.0270381 0)
(3.46228 0.0267041 0)
(3.5062 0.0248417 0)
(3.54934 0.0266893 0)
(3.58725 0.0273085 0)
(3.62814 0.0311465 0)
(3.66708 0.0365124 0)
(3.70675 0.0404533 0)
(3.75373 0.0393422 0)
(3.79325 0.0363727 0)
(3.84396 0.0206407 0)
(3.87487 0.00318499 0)
(3.91817 -0.0238688 0)
(3.92843 -0.0484566 0)
(3.95804 -0.0695813 0)
(3.94616 -0.0879379 0)
(3.96837 -0.0974886 0)
(3.94143 -0.1027 0)
(3.96413 -0.100214 0)
(3.9248 -0.0881944 0)
(3.9523 -0.0698196 0)
(3.90878 -0.0470905 0)
(3.95189 -0.0202619 0)
(3.90578 0.0079131 0)
(3.97831 0.0364192 0)
(3.93211 0.0634243 0)
(4.02536 0.088693 0)
(3.9817 0.112474 0)
(4.0715 0.137669 0)
(4.0465 0.178696 0)
(4.10748 0.212474 0)
(4.13067 0.284535 0)
(4.16667 0.337153 0)
(4.2884 0.411445 0)
(4.3225 0.49191 0)
(4.54687 0.520218 0)
(4.72525 0.541491 0)
(4.89161 0.52056 0)
(5.10433 0.468824 0)
(5.28737 0.398945 0)
(5.3763 0.310498 0)
(5.5223 0.202934 0)
(5.55832 0.0836035 0)
(5.62305 -0.0136442 0)
(5.61188 -0.0889174 0)
(5.67131 -0.172969 0)
(5.6983 -0.22554 0)
(5.72506 -0.266415 0)
(5.80046 -0.306068 0)
(5.84195 -0.330885 0)
(5.92208 -0.335919 0)
(6.02121 -0.347671 0)
(6.14708 -0.348807 0)
(6.26813 -0.375322 0)
(6.48523 -0.369061 0)
(6.6765 -0.41444 0)
(6.9116 -0.454284 0)
(7.11233 -0.45814 0)
(7.38276 -0.532811 0)
(7.50722 -0.60464 0)
(7.74055 -0.62776 0)
(7.87704 -0.737494 0)
(8.10493 -0.851279 0)
(8.22943 -0.876384 0)
(8.43495 -0.968237 0)
(8.52552 -1.00588 0)
(8.65288 -0.936431 0)
(8.7435 -0.849745 0)
(8.98612 -0.845965 0)
(8.99669 -0.740993 0)
(9.17337 -0.767971 0)
(9.24528 -0.743162 0)
(9.19451 -0.617461 0)
(9.21395 -0.577164 0)
(9.19223 -0.442142 0)
(9.3052 -0.270341 0)
(9.28307 -0.203081 0)
(9.27665 0.0299387 0)
(9.4095 0.0716346 0)
(9.42188 0.138757 0)
(9.4724 0.27191 0)
(9.74436 0.0550923 0)
(9.64711 0.141366 0)
(9.987 0.0307471 0)
(10.1489 -0.41216 0)
(10.1304 -0.356711 0)
(10.5169 -0.801474 0)
(10.6609 -1.21315 0)
(10.5586 -1.26011 0)
(11.1375 -1.97643 0)
(11.0646 -2.22815 0)
(11.0958 -2.37946 0)
(11.6013 -3.10251 0)
(11.4878 -3.19955 0)
(11.4839 -3.26772 0)
(11.9683 -3.94471 0)
(11.8004 -3.86079 0)
(11.6309 -3.87234 0)
(12.0001 -4.40411 0)
(11.5711 -4.29048 0)
(11.407 -4.13059 0)
(11.1178 -4.54442 0)
(10.9774 -4.42778 0)
(10.0622 -3.92318 0)
(10.1607 -4.26613 0)
(9.69621 -4.43795 0)
(9.40529 -3.79992 0)
(9.1844 -3.93432 0)
(9.79787 -4.72589 0)
(9.78517 -5.27694 0)
(9.23271 -4.45354 0)
(8.6399 -3.99799 0)
(8.68012 -4.29282 0)
(9.42641 -4.85719 0)
(10.3219 -5.54063 0)
(11.2295 -5.86142 0)
(11.5415 -5.69937 0)
(11.9487 -4.79357 0)
(11.8128 -3.94865 0)
(11.8308 -3.36414 0)
(12.1139 -1.89914 0)
(11.7543 -0.814931 0)
(11.4248 -0.117898 0)
(11.7614 1.53605 0)
(11.4715 2.86202 0)
(11.0917 3.53982 0)
(10.8182 4.78688 0)
(10.506 5.82356 0)
(9.80839 6.10572 0)
(9.49113 6.69904 0)
(9.11554 7.60635 0)
(8.69342 7.78579 0)
(8.0466 7.14308 0)
(7.38993 6.70571 0)
(7.26124 7.10743 0)
(7.29921 7.86459 0)
(7.49203 8.47128 0)
(7.51078 8.59368 0)
(7.60792 8.31529 0)
(7.65907 8.08836 0)
(7.62546 7.72049 0)
(8.18106 6.58266 0)
(7.36446 6.31758 0)
(8.39855 4.4787 0)
(7.49669 4.53134 0)
(8.1399 2.4054 0)
(7.56726 2.78987 0)
(8.21097 0.59403 0)
(7.67356 0.775778 0)
(8.13158 -1.15766 0)
(7.83646 -0.659397 0)
(8.10361 -2.87656 0)
(8.03557 -2.37105 0)
(7.57088 -3.6992 0)
(7.60612 -3.20324 0)
(7.28528 -3.78871 0)
(7.17739 -4.26568 0)
(7.49413 -4.32514 0)
(6.3573 -4.52365 0)
(7.34701 -4.46309 0)
(6.1453 -4.10768 0)
(6.2383 -3.70319 0)
(6.34726 -3.42772 0)
(5.60627 -2.56075 0)
(6.31198 -2.25327 0)
(5.48143 -1.5721 0)
(6.463 -1.12603 0)
(6.31017 -1.04795 0)
(6.72007 -0.173877 0)
(6.55494 0.342486 0)
(6.82453 1.01305 0)
(6.72645 1.57417 0)
(6.73739 1.66746 0)
(6.80643 2.60912 0)
(6.84739 3.40493 0)
(6.74394 4.34653 0)
(6.16069 4.18569 0)
(5.91597 5.66172 0)
(6.05054 7.6474 0)
(6.65884 8.79506 0)
(4.14809 12.0125 0)
(5.29202 -0.0772353 0)
(5.32273 -0.051016 0)
(5.32867 -0.0301496 0)
(5.3248 -0.026805 0)
(5.33324 -0.0373156 0)
(5.36031 -0.0568923 0)
(5.39556 -0.0656983 0)
(5.44056 -0.0718572 0)
(5.47573 -0.0666305 0)
(5.51477 -0.0528569 0)
(5.53419 -0.0381386 0)
(5.55684 -0.0246357 0)
(5.56668 -0.0157235 0)
(5.58486 -0.0122216 0)
(5.59805 -0.00815025 0)
(5.62347 -0.00711255 0)
(5.64084 -0.00764502 0)
(5.67298 -0.00377076 0)
(5.69292 -0.0026731 0)
(5.72805 -0.00298317 0)
(5.74583 0.00130574 0)
(5.78151 -0.00168569 0)
(5.79384 0.00398077 0)
(5.83034 0.00403194 0)
(5.83684 0.00540278 0)
(5.87876 0.0123203 0)
(5.88143 0.00986583 0)
(5.93251 0.0102283 0)
(5.93051 0.00461032 0)
(5.99107 -0.00824815 0)
(5.97954 -0.0215203 0)
(6.04463 -0.0418235 0)
(6.01851 -0.0608578 0)
(6.07854 -0.0760311 0)
(6.04367 -0.0904964 0)
(6.09525 -0.0972451 0)
(6.05476 -0.099787 0)
(6.09995 -0.0981731 0)
(6.05673 -0.0832061 0)
(6.09356 -0.0721071 0)
(6.05387 -0.0464517 0)
(6.08265 -0.0249075 0)
(6.04884 0.00905098 0)
(6.07725 0.0276207 0)
(6.04781 0.0668822 0)
(6.06638 0.0819314 0)
(6.05036 0.121319 0)
(6.03914 0.140838 0)
(6.04732 0.176223 0)
(6.01399 0.218752 0)
(6.03355 0.249886 0)
(6.01081 0.318828 0)
(6.07018 0.344061 0)
(6.06047 0.398339 0)
(6.18791 0.43453 0)
(6.23913 0.416716 0)
(6.40609 0.407508 0)
(6.46126 0.372086 0)
(6.63911 0.289846 0)
(6.6997 0.235553 0)
(6.81864 0.135141 0)
(6.87949 0.043473 0)
(6.98623 -0.0421825 0)
(7.01652 -0.139203 0)
(7.11067 -0.207908 0)
(7.2002 -0.263057 0)
(7.28274 -0.347686 0)
(7.37603 -0.379034 0)
(7.52651 -0.411123 0)
(7.61207 -0.460431 0)
(7.7604 -0.486027 0)
(7.90586 -0.488493 0)
(8.09717 -0.539353 0)
(8.24626 -0.547029 0)
(8.51789 -0.56285 0)
(8.71158 -0.613914 0)
(8.93949 -0.660421 0)
(9.14156 -0.694194 0)
(9.34686 -0.797353 0)
(9.46606 -0.849554 0)
(9.69836 -0.91757 0)
(9.82951 -0.96335 0)
(10.0496 -1.00015 0)
(10.1308 -1.0049 0)
(10.2646 -1.06757 0)
(10.3431 -1.01437 0)
(10.3785 -0.955634 0)
(10.5745 -0.992862 0)
(10.5268 -0.869201 0)
(10.6649 -0.837711 0)
(10.6458 -0.811707 0)
(10.6349 -0.62445 0)
(10.7395 -0.5703 0)
(10.6398 -0.413089 0)
(10.6563 -0.245972 0)
(10.7926 -0.213711 0)
(10.5441 0.0214642 0)
(10.8143 -0.0051575 0)
(10.794 0.094948 0)
(10.7185 0.196744 0)
(11.1328 -0.0350798 0)
(10.8758 0.0855137 0)
(11.1439 -0.108419 0)
(11.4501 -0.445517 0)
(11.1482 -0.409607 0)
(11.7094 -0.940799 0)
(11.7497 -1.2065 0)
(11.586 -1.32869 0)
(12.2542 -1.99907 0)
(12.0135 -2.16699 0)
(12.1591 -2.40131 0)
(12.4914 -3.06815 0)
(12.2928 -3.02858 0)
(12.2383 -3.31023 0)
(12.4927 -3.8513 0)
(12.0798 -3.66645 0)
(11.8946 -3.86858 0)
(11.8506 -4.2315 0)
(11.3464 -3.95742 0)
(11.0913 -3.98157 0)
(10.7394 -4.29732 0)
(10.4563 -3.8789 0)
(9.85044 -3.69321 0)
(10.1296 -4.13469 0)
(9.62073 -4.06266 0)
(9.54371 -3.67312 0)
(9.4842 -4.14738 0)
(9.81732 -4.82525 0)
(9.29161 -4.86505 0)
(8.61614 -4.03221 0)
(8.29651 -3.88889 0)
(8.67029 -4.67467 0)
(9.56496 -5.56837 0)
(10.348 -6.14952 0)
(11.1646 -6.26562 0)
(11.1852 -5.9771 0)
(11.3856 -4.92759 0)
(11.2959 -4.03009 0)
(11.146 -3.44483 0)
(11.4853 -1.88315 0)
(11.189 -0.581671 0)
(10.7231 -0.0337528 0)
(10.9999 1.57229 0)
(10.8008 2.98076 0)
(10.4625 3.78898 0)
(10.364 4.97747 0)
(10.1616 6.10984 0)
(9.52537 6.49599 0)
(9.2049 6.97225 0)
(9.01387 7.80921 0)
(8.51243 8.22197 0)
(8.08097 7.62138 0)
(7.43634 7.09601 0)
(7.3538 7.1182 0)
(7.30745 7.81935 0)
(7.68183 8.35322 0)
(7.72965 8.45473 0)
(7.85775 8.27089 0)
(8.22608 7.81969 0)
(7.89203 7.68987 0)
(8.97263 6.33389 0)
(7.87451 6.41066 0)
(9.01965 4.11769 0)
(8.2698 4.71463 0)
(8.8083 2.27041 0)
(8.32121 2.85828 0)
(9.15469 0.296734 0)
(8.2229 0.991237 0)
(9.10934 -1.47351 0)
(8.37007 -0.384474 0)
(8.95902 -3.18945 0)
(8.50532 -2.02274 0)
(8.29198 -3.98592 0)
(8.29112 -2.64425 0)
(7.60571 -4.4052 0)
(8.35231 -3.66706 0)
(7.11283 -4.80734 0)
(7.95006 -4.19501 0)
(7.00343 -4.33693 0)
(6.56306 -3.76598 0)
(7.06953 -3.56111 0)
(5.55545 -2.89367 0)
(6.44671 -2.55454 0)
(5.68143 -2.13276 0)
(6.01212 -1.84514 0)
(6.51333 -1.64933 0)
(6.597 -1.00126 0)
(6.87819 -0.446782 0)
(7.21236 0.325033 0)
(7.04488 0.912914 0)
(7.45735 1.65743 0)
(7.09095 1.80307 0)
(7.22062 2.50346 0)
(7.2777 3.32027 0)
(7.46155 4.16373 0)
(7.39722 5.24856 0)
(6.97935 5.10498 0)
(6.53952 7.38381 0)
(9.83555 8.01861 0)
(6.96557 12.9322 0)
(7.97993 -0.0511977 0)
(7.97995 0.0125046 0)
(7.97157 0.025746 0)
(7.93857 0.00158354 0)
(7.9198 -0.0331873 0)
(7.92948 -0.0763816 0)
(7.9489 -0.0873342 0)
(7.99733 -0.0907499 0)
(8.01059 -0.0808476 0)
(8.04839 -0.060129 0)
(8.04145 -0.0467219 0)
(8.05814 -0.0322596 0)
(8.04484 -0.0225212 0)
(8.05969 -0.0248003 0)
(8.04843 -0.0195161 0)
(8.07759 -0.0192392 0)
(8.07045 -0.0235301 0)
(8.10636 -0.0144104 0)
(8.10046 -0.0206583 0)
(8.13493 -0.0175492 0)
(8.12669 -0.0145879 0)
(8.16304 -0.0175503 0)
(8.14781 -0.0122965 0)
(8.19085 -0.0111593 0)
(8.17058 -0.00961119 0)
(8.2176 -0.00592745 0)
(8.19835 -0.00615137 0)
(8.24714 -0.0139254 0)
(8.2289 -0.00980275 0)
(8.27792 -0.0330111 0)
(8.25439 -0.0341527 0)
(8.30386 -0.0541128 0)
(8.27612 -0.0706626 0)
(8.31197 -0.0761719 0)
(8.29213 -0.0963815 0)
(8.30805 -0.0974983 0)
(8.29691 -0.0971719 0)
(8.30233 -0.105619 0)
(8.2897 -0.0775573 0)
(8.29169 -0.0789177 0)
(8.27737 -0.0473003 0)
(8.27854 -0.0210455 0)
(8.25885 -0.00191024 0)
(8.26556 0.0381277 0)
(8.23922 0.0626642 0)
(8.25283 0.0882931 0)
(8.21245 0.12758 0)
(8.22996 0.150652 0)
(8.18351 0.188681 0)
(8.19623 0.225956 0)
(8.15884 0.258245 0)
(8.16411 0.302282 0)
(8.16213 0.332363 0)
(8.17553 0.359191 0)
(8.21141 0.379275 0)
(8.26605 0.365882 0)
(8.33287 0.339965 0)
(8.414 0.301947 0)
(8.47952 0.229394 0)
(8.57238 0.157604 0)
(8.65438 0.0842587 0)
(8.71009 -0.0305815 0)
(8.79891 -0.104398 0)
(8.90385 -0.190415 0)
(8.9454 -0.287871 0)
(9.07414 -0.352224 0)
(9.18544 -0.405019 0)
(9.2747 -0.489199 0)
(9.4139 -0.520614 0)
(9.55589 -0.574773 0)
(9.66109 -0.60725 0)
(9.81978 -0.644648 0)
(10.0027 -0.67346 0)
(10.1347 -0.687672 0)
(10.3758 -0.729499 0)
(10.5335 -0.778307 0)
(10.7015 -0.814226 0)
(10.9066 -0.888967 0)
(11.0329 -0.943537 0)
(11.141 -0.975027 0)
(11.358 -1.0422 0)
(11.3994 -1.0352 0)
(11.5692 -1.09963 0)
(11.5972 -1.1143 0)
(11.6505 -1.14188 0)
(11.6813 -1.12546 0)
(11.6971 -1.06328 0)
(11.7781 -1.049 0)
(11.7141 -0.922161 0)
(11.7851 -0.860046 0)
(11.7363 -0.793224 0)
(11.6977 -0.595894 0)
(11.7418 -0.598185 0)
(11.5801 -0.39002 0)
(11.6084 -0.271633 0)
(11.7182 -0.268147 0)
(11.4615 0.0340467 0)
(11.8337 -0.0623848 0)
(11.6567 0.060743 0)
(11.7691 0.16894 0)
(12.0795 -0.137488 0)
(11.8243 0.0551795 0)
(12.2233 -0.245575 0)
(12.3049 -0.52207 0)
(12.1639 -0.471239 0)
(12.6564 -1.0724 0)
(12.5106 -1.18931 0)
(12.5661 -1.46834 0)
(12.9087 -2.03693 0)
(12.6093 -2.11626 0)
(12.7532 -2.57331 0)
(12.7697 -3.00714 0)
(12.395 -3.00871 0)
(12.354 -3.45523 0)
(12.2108 -3.69236 0)
(11.691 -3.59072 0)
(11.6087 -3.8735 0)
(11.2622 -3.98614 0)
(10.9175 -3.73087 0)
(10.7824 -3.85856 0)
(10.5136 -3.9925 0)
(10.2496 -3.528 0)
(10.0611 -3.61626 0)
(10.2266 -4.04546 0)
(9.75548 -3.86109 0)
(9.63869 -3.64155 0)
(9.38616 -4.21433 0)
(9.54471 -4.72874 0)
(8.6532 -4.3507 0)
(8.06446 -3.6565 0)
(7.90486 -4.05129 0)
(8.63683 -5.23594 0)
(9.55504 -6.26242 0)
(10.0847 -6.66341 0)
(10.6902 -6.39525 0)
(10.4428 -5.96258 0)
(10.5301 -4.97685 0)
(10.6175 -3.98975 0)
(10.3792 -3.53363 0)
(10.6342 -1.92989 0)
(10.3348 -0.500297 0)
(10.0116 0.128871 0)
(10.1999 1.60404 0)
(10.0164 3.14217 0)
(9.69001 3.95271 0)
(9.7361 5.16635 0)
(9.59698 6.40535 0)
(9.14696 6.87248 0)
(8.76738 7.2116 0)
(8.68488 8.03999 0)
(8.39748 8.54795 0)
(7.97416 8.02751 0)
(7.43411 7.40205 0)
(7.36271 7.19823 0)
(7.31869 7.66581 0)
(7.6535 8.20178 0)
(8.03715 8.1974 0)
(7.80966 8.2487 0)
(8.79445 7.60056 0)
(8.08274 7.80854 0)
(9.3978 5.93102 0)
(8.45435 6.72658 0)
(9.40098 3.7721 0)
(8.83306 4.89186 0)
(9.51156 2.22199 0)
(8.86326 2.89037 0)
(10.0553 0.199295 0)
(8.47832 1.29141 0)
(10.071 -1.4831 0)
(8.26941 -0.22516 0)
(10.119 -3.06091 0)
(7.94302 -1.72024 0)
(9.62223 -3.60926 0)
(7.39648 -2.41695 0)
(9.25268 -4.12161 0)
(7.74592 -3.57042 0)
(8.40277 -4.62348 0)
(8.44053 -4.06457 0)
(7.02792 -4.20163 0)
(8.16317 -3.66314 0)
(6.2856 -3.0897 0)
(6.56524 -2.64911 0)
(6.34391 -2.32119 0)
(5.60357 -1.90387 0)
(6.49887 -2.10416 0)
(6.22942 -1.77074 0)
(6.78004 -1.4618 0)
(6.96115 -0.628997 0)
(7.28124 -0.0245276 0)
(7.77064 1.00715 0)
(7.58137 1.29816 0)
(8.18799 2.15789 0)
(7.27792 2.42883 0)
(8.10362 3.72297 0)
(7.62406 3.84014 0)
(7.654 5.13328 0)
(9.09958 5.54695 0)
(6.21751 7.70988 0)
(11.3962 5.39221 0)
(9.44456 12.3922 0)
(10.2928 -0.035978 0)
(10.2491 0.0481046 0)
(10.1922 0.0650608 0)
(10.1246 0.0225103 0)
(10.1068 -0.0253172 0)
(10.1328 -0.0816232 0)
(10.1349 -0.0964246 0)
(10.1931 -0.107377 0)
(10.1762 -0.0985267 0)
(10.2189 -0.0707957 0)
(10.1942 -0.0494305 0)
(10.2145 -0.025852 0)
(10.1881 -0.0143538 0)
(10.2065 -0.0133348 0)
(10.1782 -0.0172592 0)
(10.2038 -0.0162312 0)
(10.1887 -0.0297302 0)
(10.2078 -0.0203802 0)
(10.2198 -0.0206991 0)
(10.2255 -0.0277328 0)
(10.245 -0.00510459 0)
(10.2528 -0.0245423 0)
(10.2472 -0.00586302 0)
(10.2713 -0.0135013 0)
(10.2483 -0.0197933 0)
(10.2757 -0.00342003 0)
(10.2605 -0.0239516 0)
(10.2922 -0.0166206 0)
(10.2784 -0.018228 0)
(10.319 -0.037071 0)
(10.2967 -0.0318484 0)
(10.3343 -0.0559576 0)
(10.3124 -0.0590569 0)
(10.3234 -0.0760072 0)
(10.3196 -0.0837121 0)
(10.3029 -0.0896666 0)
(10.3058 -0.0929811 0)
(10.2931 -0.0884211 0)
(10.2753 -0.0788033 0)
(10.2834 -0.0612381 0)
(10.2488 -0.0466729 0)
(10.2626 -0.0118971 0)
(10.2316 0.0107356 0)
(10.2367 0.0342419 0)
(10.2135 0.0820259 0)
(10.2217 0.0992593 0)
(10.1854 0.135922 0)
(10.2137 0.174762 0)
(10.1673 0.199531 0)
(10.192 0.240071 0)
(10.1693 0.271979 0)
(10.1645 0.29873 0)
(10.188 0.329806 0)
(10.1903 0.343086 0)
(10.2102 0.346485 0)
(10.2831 0.346048 0)
(10.3027 0.29838 0)
(10.3799 0.257129 0)
(10.4522 0.201738 0)
(10.4923 0.106007 0)
(10.5876 0.0324951 0)
(10.6434 -0.0655626 0)
(10.6988 -0.158216 0)
(10.7947 -0.247783 0)
(10.8636 -0.336727 0)
(10.939 -0.409343 0)
(11.0543 -0.486602 0)
(11.1255 -0.554149 0)
(11.2243 -0.605619 0)
(11.3591 -0.681193 0)
(11.4231 -0.700994 0)
(11.5532 -0.749428 0)
(11.6967 -0.798094 0)
(11.7739 -0.799941 0)
(11.952 -0.867699 0)
(12.0661 -0.919565 0)
(12.1475 -0.920771 0)
(12.3353 -1.02606 0)
(12.3477 -1.02667 0)
(12.465 -1.05909 0)
(12.5681 -1.10703 0)
(12.5323 -1.10712 0)
(12.6468 -1.16871 0)
(12.5869 -1.16093 0)
(12.5808 -1.16493 0)
(12.5789 -1.11953 0)
(12.4995 -1.03156 0)
(12.5408 -1.00311 0)
(12.4319 -0.856063 0)
(12.4211 -0.839247 0)
(12.3895 -0.725701 0)
(12.2001 -0.578863 0)
(12.3391 -0.591164 0)
(12.0878 -0.30551 0)
(12.1613 -0.308932 0)
(12.2238 -0.203745 0)
(11.9771 0.007099 0)
(12.3548 -0.147993 0)
(12.1264 0.0884102 0)
(12.319 -0.00696215 0)
(12.5662 -0.155166 0)
(12.347 -0.02658 0)
(12.7944 -0.403424 0)
(12.7363 -0.466008 0)
(12.7207 -0.65587 0)
(13.0674 -1.08169 0)
(12.783 -1.18916 0)
(13.0037 -1.61064 0)
(12.9234 -1.97386 0)
(12.7357 -2.12234 0)
(12.7195 -2.57351 0)
(12.4558 -2.81233 0)
(12.2284 -2.90821 0)
(12.0601 -3.31574 0)
(11.7445 -3.34342 0)
(11.4181 -3.31356 0)
(11.3533 -3.61699 0)
(11.0471 -3.65998 0)
(10.91 -3.41781 0)
(10.7801 -3.6404 0)
(10.656 -3.73663 0)
(10.3217 -3.31214 0)
(10.2707 -3.5671 0)
(10.3146 -3.93039 0)
(9.71649 -3.57621 0)
(9.36104 -3.42336 0)
(9.19344 -4.11069 0)
(9.10821 -4.28994 0)
(7.88867 -3.59938 0)
(7.46197 -3.41463 0)
(7.55111 -4.46053 0)
(8.59967 -5.9149 0)
(9.19009 -6.81138 0)
(9.57362 -6.90091 0)
(9.87348 -6.36444 0)
(9.40277 -5.75321 0)
(9.64308 -4.82603 0)
(9.64256 -3.89255 0)
(9.45817 -3.31062 0)
(9.70313 -1.78308 0)
(9.18896 -0.408291 0)
(9.0779 0.302579 0)
(9.21815 1.67521 0)
(9.1877 3.21672 0)
(8.7739 4.03429 0)
(9.03445 5.2118 0)
(8.91393 6.50785 0)
(8.64535 7.09454 0)
(8.28093 7.43306 0)
(8.34059 8.09868 0)
(8.10071 8.74876 0)
(7.87056 8.40399 0)
(7.36522 7.70667 0)
(7.26418 7.21125 0)
(7.28844 7.466 0)
(7.49369 8.02838 0)
(8.24882 7.81002 0)
(7.87136 8.31041 0)
(9.14832 7.0787 0)
(8.32606 7.9087 0)
(9.72018 5.44363 0)
(9.02555 6.79658 0)
(9.83157 3.73851 0)
(9.43065 4.7285 0)
(9.94222 2.26886 0)
(9.45679 2.68066 0)
(10.201 0.358362 0)
(9.05353 1.33279 0)
(10.0422 -1.49279 0)
(8.88245 -0.252044 0)
(10.1298 -2.96395 0)
(7.76229 -1.35992 0)
(10.0159 -3.64365 0)
(6.67111 -1.8502 0)
(10.4758 -4.7834 0)
(6.41048 -2.74253 0)
(10.2773 -5.24781 0)
(7.07585 -3.31397 0)
(8.71093 -4.32214 0)
(7.91426 -3.26871 0)
(6.85914 -3.02222 0)
(7.74924 -2.49614 0)
(5.89146 -2.20021 0)
(7.1198 -1.97799 0)
(6.21824 -2.22693 0)
(6.6892 -1.60294 0)
(6.47516 -1.57979 0)
(6.76919 -0.980832 0)
(7.1126 -0.32352 0)
(7.95606 0.916414 0)
(7.89154 1.01408 0)
(8.56384 2.01178 0)
(8.55997 2.32982 0)
(7.97547 3.3288 0)
(9.98454 4.09867 0)
(6.90184 5.89957 0)
(11.2546 3.67271 0)
(7.12521 9.2104 0)
(10.9468 3.00314 0)
(10.1186 10.7525 0)
(11.8996 -0.0163898 0)
(11.8417 0.0168741 0)
(11.7764 0.00143447 0)
(11.7102 -0.0348299 0)
(11.6915 -0.0668727 0)
(11.7311 -0.105935 0)
(11.7287 -0.100249 0)
(11.7855 -0.107847 0)
(11.766 -0.0968085 0)
(11.8085 -0.0727727 0)
(11.7796 -0.0619362 0)
(11.7866 -0.0489482 0)
(11.7718 -0.0301253 0)
(11.7609 -0.0420665 0)
(11.7643 -0.0299943 0)
(11.7453 -0.0325022 0)
(11.7749 -0.0440543 0)
(11.7395 -0.0301024 0)
(11.7919 -0.0383177 0)
(11.7589 -0.0396383 0)
(11.8024 -0.031256 0)
(11.7965 -0.0290334 0)
(11.808 -0.0268556 0)
(11.8097 -0.015734 0)
(11.8175 -0.0277448 0)
(11.7947 -0.0143383 0)
(11.8178 -0.0322607 0)
(11.7875 -0.0381946 0)
(11.8206 -0.0301038 0)
(11.8044 -0.0599446 0)
(11.8253 -0.0459791 0)
(11.8298 -0.0611283 0)
(11.8377 -0.0719962 0)
(11.8259 -0.0633788 0)
(11.8417 -0.0890619 0)
(11.8038 -0.0772524 0)
(11.8125 -0.0901857 0)
(11.7882 -0.086526 0)
(11.766 -0.0711714 0)
(11.772 -0.0619562 0)
(11.7433 -0.0440284 0)
(11.7406 -0.00493979 0)
(11.7414 0.0114641 0)
(11.7168 0.0392907 0)
(11.7192 0.0808434 0)
(11.7235 0.099054 0)
(11.6912 0.1292 0)
(11.7204 0.171021 0)
(11.7101 0.187483 0)
(11.7096 0.239063 0)
(11.7545 0.247974 0)
(11.7227 0.297597 0)
(11.7926 0.296844 0)
(11.8038 0.316145 0)
(11.8359 0.323866 0)
(11.8984 0.289379 0)
(11.9449 0.263722 0)
(11.9976 0.214118 0)
(12.0826 0.139114 0)
(12.0946 0.0736412 0)
(12.2005 -0.0286004 0)
(12.237 -0.116005 0)
(12.2761 -0.195999 0)
(12.3692 -0.304742 0)
(12.3909 -0.377862 0)
(12.4574 -0.458971 0)
(12.5381 -0.558857 0)
(12.5532 -0.594558 0)
(12.6386 -0.689334 0)
(12.7054 -0.746986 0)
(12.7289 -0.766413 0)
(12.8165 -0.848288 0)
(12.8727 -0.859251 0)
(12.9053 -0.900125 0)
(13.0081 -0.960964 0)
(13.0355 -0.967278 0)
(13.0872 -1.02278 0)
(13.1602 -1.05642 0)
(13.1234 -1.06779 0)
(13.2231 -1.10522 0)
(13.1235 -1.10612 0)
(13.153 -1.15263 0)
(13.1145 -1.14809 0)
(13.0006 -1.11923 0)
(13.0375 -1.11357 0)
(12.8397 -1.02156 0)
(12.8399 -0.955992 0)
(12.7684 -0.947356 0)
(12.5645 -0.777286 0)
(12.6503 -0.802801 0)
(12.4034 -0.668315 0)
(12.3648 -0.533716 0)
(12.4276 -0.515047 0)
(12.0776 -0.270217 0)
(12.3512 -0.300689 0)
(12.0925 -0.14678 0)
(12.1451 -0.0817011 0)
(12.3126 -0.151932 0)
(12.0971 0.0255683 0)
(12.4282 -0.144583 0)
(12.3989 -0.157046 0)
(12.4194 -0.202393 0)
(12.7445 -0.463414 0)
(12.5701 -0.495446 0)
(12.7912 -0.809926 0)
(12.8195 -1.04656 0)
(12.7095 -1.22946 0)
(12.7839 -1.62633 0)
(12.6289 -1.83716 0)
(12.516 -2.10817 0)
(12.3733 -2.47023 0)
(12.1429 -2.57779 0)
(11.9397 -2.80915 0)
(11.8159 -3.13212 0)
(11.4453 -3.07491 0)
(11.3056 -3.18937 0)
(11.3201 -3.53033 0)
(11.0626 -3.43079 0)
(10.8814 -3.29912 0)
(10.8937 -3.63448 0)
(10.669 -3.51455 0)
(10.2576 -3.21097 0)
(10.4224 -3.56174 0)
(10.0856 -3.65911 0)
(9.38062 -3.13727 0)
(9.07 -3.25547 0)
(8.98412 -3.92988 0)
(8.32311 -3.56502 0)
(6.93536 -2.92231 0)
(6.82774 -3.53087 0)
(7.15285 -5.10131 0)
(8.14429 -6.52747 0)
(8.51345 -7.20017 0)
(8.76817 -7.02624 0)
(8.75828 -6.39258 0)
(8.52528 -5.74451 0)
(8.65233 -4.88297 0)
(8.50747 -4.04186 0)
(8.56752 -3.22396 0)
(8.51028 -1.59397 0)
(8.12978 -0.273437 0)
(7.99115 0.385672 0)
(8.25025 1.72719 0)
(8.09684 3.33047 0)
(7.8591 4.15493 0)
(8.12369 5.23262 0)
(8.16658 6.6585 0)
(7.91626 7.28972 0)
(7.77182 7.53054 0)
(7.75333 8.22794 0)
(7.83947 8.80504 0)
(7.58829 8.65352 0)
(7.29274 7.88104 0)
(7.06223 7.39632 0)