/*--------------------------------*- C++ -*----------------------------------*\
| =========                 |                                                 |
| \\      /  F ield         | OpenFOAM: The Open Source CFD Toolbox           |
|  \\    /   O peration     | Version:  2.4.0                                 |
|   \\  /    A nd           | Web:      www.OpenFOAM.org                      |
|    \\/     M anipulation  |                                                 |
\*---------------------------------------------------------------------------*/
FoamFile
{
    version     2.0;
    format      ascii;
    class       volVectorField;
    location    "1.22";
    object      UMean;
}
// * * * * * * * * * * * * * * * * * * * * * * * * * * * * * * * * * * * * * //

dimensions      [0 1 -1 0 0 0 0];

internalField   nonuniform List<vector> 
8800
(
(8.09336 0.387144 0)
(5.45799 0.242567 0)
(3.92799 0.0429835 0)
(3.16341 -0.0151747 0)
(2.8231 -0.0184321 0)
(2.60291 -0.0108132 0)
(2.51385 -0.00593601 0)
(2.38499 -0.00188795 0)
(2.35568 -0.0018879 0)
(2.25534 -4.65825e-05 0)
(2.25941 -0.00117225 0)
(2.17165 0.00061411 0)
(2.19179 -0.0007179 0)
(2.10481 0.00119679 0)
(2.1299 -0.000385209 0)
(2.04039 0.00176481 0)
(2.06461 -0.000389802 0)
(1.96868 0.00135803 0)
(2.0189 0.00706218 0)
(1.73546 -0.0599353 0)
(10.0884 0.836172 0)
(9.64966 0.866262 0)
(8.89801 0.50545 0)
(8.0663 0.261549 0)
(7.53348 0.136861 0)
(6.98339 0.0821443 0)
(6.75391 0.0524161 0)
(6.37186 0.0408733 0)
(6.3005 0.0278292 0)
(5.99492 0.0250496 0)
(6.01882 0.0164039 0)
(5.74887 0.018914 0)
(5.82675 0.0124463 0)
(5.56652 0.0180592 0)
(5.67059 0.0120963 0)
(5.40791 0.0186401 0)
(5.52418 0.0159053 0)
(5.24281 0.0127323 0)
(5.40142 0.0310996 0)
(5.01773 -0.0431125 0)
(10.0855 0.629969 0)
(10.6251 0.861448 0)
(10.9161 0.599134 0)
(10.6393 0.372924 0)
(10.5203 0.253713 0)
(10.0215 0.196269 0)
(9.91925 0.150186 0)
(9.42214 0.122796 0)
(9.41868 0.0902537 0)
(8.95646 0.0770032 0)
(9.05314 0.0543988 0)
(8.61857 0.0538763 0)
(8.78932 0.0379611 0)
(8.36199 0.0451258 0)
(8.58027 0.0326818 0)
(8.14427 0.0425141 0)
(8.39318 0.0367376 0)
(7.9306 0.038602 0)
(8.21355 0.046174 0)
(7.71371 -0.036515 0)
(10.0685 0.456784 0)
(10.4894 0.703154 0)
(11.2585 0.54349 0)
(11.2759 0.352049 0)
(11.6593 0.259297 0)
(11.3477 0.227685 0)
(11.608 0.196206 0)
(11.1773 0.176405 0)
(11.4308 0.142037 0)
(10.9479 0.12711 0)
(11.234 0.0979335 0)
(10.7244 0.0952849 0)
(11.0511 0.0726098 0)
(10.518 0.0799584 0)
(10.8811 0.0603373 0)
(10.3219 0.0752373 0)
(10.714 0.0570654 0)
(10.1224 0.0799992 0)
(10.5257 0.0514116 0)
(9.90569 0.0677359 0)
(10.1866 0.346753 0)
(10.2626 0.565362 0)
(11.1929 0.458069 0)
(11.1608 0.295123 0)
(11.8048 0.205467 0)
(11.5264 0.194463 0)
(12.0345 0.173139 0)
(11.6701 0.17217 0)
(12.1441 0.138019 0)
(11.7367 0.136705 0)
(12.2007 0.100974 0)
(11.7617 0.112087 0)
(12.2211 0.0781516 0)
(11.7536 0.102823 0)
(12.2082 0.0658903 0)
(11.7146 0.104559 0)
(12.1606 0.0596365 0)
(11.6426 0.117726 0)
(12.0622 0.0490971 0)
(11.505 0.123118 0)
(10.2065 0.249992 0)
(10.1877 0.455475 0)
(11.0283 0.371484 0)
(11.0671 0.250057 0)
(11.648 0.155329 0)
(11.4986 0.154816 0)
(11.9171 0.135047 0)
(11.7194 0.146335 0)
(12.0916 0.110805 0)
(11.8934 0.118685 0)
(12.2423 0.0809311 0)
(12.0454 0.0984831 0)
(12.3722 0.0638905 0)
(12.1737 0.092453 0)
(12.476 0.0578894 0)
(12.2745 0.0960064 0)
(12.5488 0.0585536 0)
(12.3413 0.106426 0)
(12.5706 0.053708 0)
(12.3053 0.0668964 0)
(10.0779 0.168662 0)
(10.253 0.358767 0)
(10.7952 0.280234 0)
(11.0801 0.211166 0)
(11.4212 0.10896 0)
(11.5264 0.122919 0)
(11.7 0.0948153 0)
(11.7443 0.123821 0)
(11.8756 0.0769846 0)
(11.9226 0.102197 0)
(12.0386 0.0519311 0)
(12.0895 0.0862276 0)
(12.1904 0.037295 0)
(12.2411 0.0829272 0)
(12.3259 0.0323617 0)
(12.3744 0.0883328 0)
(12.4417 0.0320307 0)
(12.4819 0.0976982 0)
(12.5121 0.0222852 0)
(12.4707 0.0617848 0)
(9.97293 0.10568 0)
(10.3006 0.261244 0)
(10.6341 0.193262 0)
(11.0755 0.162082 0)
(11.2683 0.0704142 0)
(11.5297 0.090428 0)
(11.5594 0.0608116 0)
(11.7391 0.0959231 0)
(11.7324 0.0491392 0)
(11.91 0.0799448 0)
(11.8965 0.0301453 0)
(12.0735 0.0681583 0)
(12.0512 0.0190368 0)
(12.2234 0.0660324 0)
(12.191 0.0150999 0)
(12.3563 0.0701014 0)
(12.3128 0.0132483 0)
(12.4648 0.0747108 0)
(12.3886 0.000270555 0)
(12.4392 0.0427484 0)
(9.90541 0.0557512 0)
(10.3318 0.161578 0)
(10.5279 0.111304 0)
(11.0733 0.103581 0)
(11.1662 0.0367654 0)
(11.5338 0.0586178 0)
(11.4655 0.0311823 0)
(11.7389 0.0639235 0)
(11.6356 0.0248087 0)
(11.9059 0.0538213 0)
(11.7998 0.0125161 0)
(12.0689 0.0462966 0)
(11.9558 0.00552497 0)
(12.2194 0.0444743 0)
(12.0969 0.0023712 0)
(12.3536 0.0453788 0)
(12.2199 -0.000885363 0)
(12.4631 0.0433736 0)
(12.2923 -0.0159239 0)
(12.4262 0.00352743 0)
(9.88775 0.0109729 0)
(10.3334 0.0643704 0)
(10.4921 0.0285416 0)
(11.06 0.0444015 0)
(11.1347 0.0031458 0)
(11.5253 0.0295801 0)
(11.4411 0.000915811 0)
(11.7297 0.0324134 0)
(11.6125 -0.00151085 0)
(11.8966 0.0290606 0)
(11.7791 -0.00660149 0)
(12.0614 0.0263914 0)
(11.938 -0.0101585 0)
(12.2148 0.025125 0)
(12.0817 -0.0134758 0)
(12.3523 0.0231218 0)
(12.2073 -0.0191805 0)
(12.4653 0.0163395 0)
(12.2799 -0.0347145 0)
(12.4288 -0.0137596 0)
(9.91194 -0.0298891 0)
(10.3111 -0.0352877 0)
(10.5178 -0.0532034 0)
(11.0416 -0.0182968 0)
(11.1625 -0.0288062 0)
(11.5101 -0.00258368 0)
(11.4713 -0.0274812 0)
(11.7175 -0.00313955 0)
(11.6449 -0.0263238 0)
(11.8878 0.000522674 0)
(11.8139 -0.0237812 0)
(12.056 0.0028114 0)
(11.9753 -0.0242021 0)
(12.213 0.00175772 0)
(12.1217 -0.0279913 0)
(12.3546 -0.00321881 0)
(12.25 -0.0361393 0)
(12.4715 -0.0137388 0)
(12.325 -0.050562 0)
(12.437 -0.0331581 0)
(9.95211 -0.0735595 0)
(10.2865 -0.135833 0)
(10.5791 -0.134723 0)
(11.0346 -0.0806804 0)
(11.224 -0.0605285 0)
(11.5004 -0.0349442 0)
(11.5302 -0.055705 0)
(11.7108 -0.0383413 0)
(11.7068 -0.0505775 0)
(11.8842 -0.0279919 0)
(11.8778 -0.0408295 0)
(12.0539 -0.0208522 0)
(12.041 -0.0379575 0)
(12.212 -0.0214476 0)
(12.1893 -0.0422153 0)
(12.3541 -0.0292546 0)
(12.3198 -0.0530948 0)
(12.471 -0.0438033 0)
(12.3973 -0.0672135 0)
(12.4359 -0.0521984 0)
(9.98224 -0.122356 0)
(10.2847 -0.239294 0)
(10.6523 -0.215337 0)
(11.0601 -0.142293 0)
(11.2953 -0.0922441 0)
(11.5157 -0.0692737 0)
(11.5941 -0.0836917 0)
(11.7275 -0.0733365 0)
(11.774 -0.0737321 0)
(11.9023 -0.0567903 0)
(11.9456 -0.0576016 0)
(12.0708 -0.0449654 0)
(12.1083 -0.0513505 0)
(12.2268 -0.044498 0)
(12.2562 -0.0560232 0)
(12.3663 -0.0543939 0)
(12.3861 -0.0704663 0)
(12.4805 -0.0734339 0)
(12.4653 -0.0882039 0)
(12.4472 -0.0712566 0)
(10.0165 -0.1817 0)
(10.2952 -0.34362 0)
(10.752 -0.29741 0)
(11.11 -0.197406 0)
(11.3897 -0.126077 0)
(11.5521 -0.107602 0)
(11.6762 -0.112607 0)
(11.7671 -0.108482 0)
(11.8582 -0.0964787 0)
(11.9447 -0.0864576 0)
(12.0279 -0.0743358 0)
(12.1123 -0.0707061 0)
(12.1866 -0.0645144 0)
(12.2658 -0.0691272 0)
(12.3291 -0.0684624 0)
(12.4012 -0.0802769 0)
(12.4514 -0.085636 0)
(12.5093 -0.104502 0)
(12.5237 -0.109886 0)
(12.4772 -0.101246 0)
(10.056 -0.257092 0)
(10.3148 -0.447977 0)
(10.8929 -0.381155 0)
(11.1773 -0.243227 0)
(11.5228 -0.165098 0)
(11.6013 -0.146983 0)
(11.7969 -0.144712 0)
(11.8166 -0.139861 0)
(11.9748 -0.121449 0)
(11.9875 -0.11286 0)
(12.1285 -0.0933837 0)
(12.1379 -0.0942968 0)
(12.2608 -0.079557 0)
(12.2644 -0.0917384 0)
(12.3656 -0.0803595 0)
(12.3617 -0.103133 0)
(12.4354 -0.0963003 0)
(12.4178 -0.131964 0)
(12.4397 -0.125891 0)
(12.3322 -0.140179 0)
(10.0508 -0.351004 0)
(10.3917 -0.56023 0)
(11.0466 -0.463662 0)
(11.2948 -0.289956 0)
(11.6548 -0.212309 0)
(11.6611 -0.188175 0)
(11.8779 -0.180434 0)
(11.8069 -0.166493 0)
(11.9792 -0.146884 0)
(11.8761 -0.131154 0)
(12.026 -0.112001 0)
(11.9033 -0.107458 0)
(12.0339 -0.0928019 0)
(11.8954 -0.100783 0)
(12.0024 -0.0876522 0)
(11.8507 -0.108725 0)
(11.9236 -0.097438 0)
(11.757 -0.137985 0)
(11.7629 -0.126196 0)
(11.5325 -0.162659 0)
(10.0038 -0.459304 0)
(10.5589 -0.700378 0)
(11.1682 -0.545754 0)
(11.3654 -0.350043 0)
(11.5574 -0.263141 0)
(11.4462 -0.224945 0)
(11.4936 -0.200365 0)
(11.2829 -0.17389 0)
(11.3031 -0.147179 0)
(11.0587 -0.124925 0)
(11.0917 -0.104126 0)
(10.8374 -0.0946856 0)
(10.8905 -0.0803784 0)
(10.6286 -0.083559 0)
(10.6934 -0.0710324 0)
(10.4207 -0.0882917 0)
(10.4791 -0.0751047 0)
(10.1879 -0.116581 0)
(10.1942 -0.0965757 0)
(9.85588 -0.160297 0)
(10.0591 -0.632562 0)
(10.6543 -0.858835 0)
(10.8665 -0.600283 0)
(10.6895 -0.37166 0)
(10.4589 -0.256339 0)
(10.082 -0.194551 0)
(9.84508 -0.15313 0)
(9.48932 -0.120712 0)
(9.33325 -0.0940007 0)
(9.02648 -0.0748987 0)
(8.95694 -0.0591405 0)
(8.68655 -0.0525076 0)
(8.68013 -0.0442152 0)
(8.42067 -0.0462603 0)
(8.45025 -0.0412557 0)
(8.18128 -0.0508098 0)
(8.22031 -0.0488083 0)
(7.92177 -0.0703542 0)
(7.92379 -0.07151 0)
(7.57494 -0.0896204 0)
(10.0803 -0.837558 0)
(9.65664 -0.864638 0)
(8.87583 -0.505804 0)
(8.09073 -0.2609 0)
(7.50212 -0.138381 0)
(7.01506 -0.0813787 0)
(6.71189 -0.053829 0)
(6.40803 -0.0398159 0)
(6.25105 -0.0296372 0)
(6.03181 -0.0240247 0)
(5.9629 -0.0186804 0)
(5.78148 -0.0182909 0)
(5.76308 -0.0154579 0)
(5.58741 -0.0186753 0)
(5.59295 -0.0164988 0)
(5.4037 -0.0231446 0)
(5.41268 -0.0222899 0)
(5.18891 -0.0330321 0)
(5.17719 -0.0386341 0)
(4.88029 -0.0201061 0)
(8.09169 -0.387519 0)
(5.4566 -0.242055 0)
(3.92353 -0.0432408 0)
(3.17113 0.0152592 0)
(2.81446 0.0180255 0)
(2.61183 0.011123 0)
(2.50021 0.00560392 0)
(2.39533 0.00227493 0)
(2.33945 0.00146302 0)
(2.26551 0.000421176 0)
(2.24026 0.000688602 0)
(2.17928 -0.000261465 0)
(2.16866 0.000170682 0)
(2.10558 -0.00111033 0)
(2.09869 -0.000348357 0)
(2.02549 -0.00229239 0)
(2.01291 -0.00115435 0)
(1.92081 -0.00385773 0)
(1.88262 -0.00432276 0)
(1.7299 0.0114477 0)
(2.25913 -0.103373 0)
(2.31505 -0.0147726 0)
(2.56611 -0.00625456 0)
(2.65443 -0.0200969 0)
(2.89746 -0.0425046 0)
(2.94558 -0.0480898 0)
(3.15243 -0.0546362 0)
(3.15547 -0.0474793 0)
(3.32945 -0.0518867 0)
(3.30645 -0.0499833 0)
(3.47313 -0.0577331 0)
(3.43825 -0.0573736 0)
(3.60918 -0.0676979 0)
(3.57023 -0.0683178 0)
(3.74526 -0.0787833 0)
(3.7029 -0.0793376 0)
(3.8848 -0.0899311 0)
(3.84058 -0.0905587 0)
(4.03569 -0.10091 0)
(3.99119 -0.0991416 0)
(4.19397 -0.111748 0)
(4.14337 -0.113769 0)
(4.34911 -0.129516 0)
(4.28923 -0.133372 0)
(4.49621 -0.151666 0)
(4.42563 -0.157381 0)
(4.63321 -0.176385 0)
(4.55176 -0.179668 0)
(4.76176 -0.19567 0)
(4.67562 -0.19576 0)
(4.8926 -0.212047 0)
(4.80886 -0.213542 0)
(5.03553 -0.233085 0)
(4.95236 -0.236388 0)
(5.18354 -0.256688 0)
(5.09476 -0.258801 0)
(5.3295 -0.277859 0)
(5.23417 -0.278094 0)
(5.47573 -0.297343 0)
(5.37449 -0.298606 0)
(5.62298 -0.320345 0)
(5.5152 -0.324779 0)
(5.76767 -0.351695 0)
(5.65054 -0.359371 0)
(5.90218 -0.388996 0)
(5.77271 -0.395934 0)
(6.02363 -0.425104 0)
(5.88466 -0.42731 0)
(6.13784 -0.45469 0)
(5.99475 -0.451067 0)
(6.25286 -0.4758 0)
(6.10783 -0.466347 0)
(6.37692 -0.487921 0)
(6.22698 -0.474865 0)
(6.51392 -0.496459 0)
(6.35332 -0.482708 0)
(6.66106 -0.505822 0)
(6.4843 -0.492095 0)
(6.811 -0.515824 0)
(6.61467 -0.501765 0)
(6.95882 -0.528029 0)
(6.75157 -0.515692 0)
(7.11055 -0.548496 0)
(6.90652 -0.540277 0)
(7.26869 -0.58198 0)
(7.07411 -0.579135 0)
(7.42491 -0.626889 0)
(7.22935 -0.627222 0)
(7.56538 -0.674315 0)
(7.36014 -0.673192 0)
(7.69139 -0.721726 0)
(7.47398 -0.715032 0)
(7.80562 -0.760978 0)
(7.57477 -0.74762 0)
(7.92089 -0.791983 0)
(7.67956 -0.773096 0)
(8.04614 -0.815827 0)
(7.80225 -0.792751 0)
(8.18862 -0.8386 0)
(7.9436 -0.810468 0)
(8.34968 -0.857897 0)
(8.09814 -0.824722 0)
(8.52307 -0.86971 0)
(8.25975 -0.836829 0)
(8.69906 -0.884381 0)
(8.43084 -0.853665 0)
(8.86285 -0.911669 0)
(8.60684 -0.884526 0)
(9.01048 -0.950355 0)
(8.76959 -0.925789 0)
(9.14034 -0.992923 0)
(8.90847 -0.96626 0)
(9.24562 -1.03074 0)
(9.0149 -1.00188 0)
(9.32701 -1.06434 0)
(9.09866 -1.0297 0)
(9.39106 -1.08838 0)
(9.16871 -1.04958 0)
(9.45008 -1.106 0)
(9.24618 -1.06688 0)
(9.51927 -1.12572 0)
(9.33171 -1.08528 0)
(9.59979 -1.14993 0)
(9.41941 -1.104 0)
(9.67601 -1.16555 0)
(9.49172 -1.10646 0)
(9.73051 -1.16968 0)
(9.53019 -1.10308 0)
(9.75363 -1.16697 0)
(9.53621 -1.08953 0)
(9.7449 -1.15134 0)
(9.51201 -1.06602 0)
(9.69739 -1.122 0)
(9.45888 -1.02851 0)
(9.62607 -1.08274 0)
(9.40574 -0.982264 0)
(9.56351 -1.03164 0)
(9.36841 -0.927203 0)
(9.51227 -0.972966 0)
(9.33409 -0.864519 0)
(9.46885 -0.905553 0)
(9.30673 -0.797063 0)
(9.43969 -0.839943 0)
(9.28234 -0.732273 0)
(9.41458 -0.778713 0)
(9.24597 -0.671528 0)
(9.39241 -0.716024 0)
(9.20136 -0.603285 0)
(9.36687 -0.64142 0)
(9.15887 -0.526428 0)
(9.33367 -0.561387 0)
(9.12447 -0.449078 0)
(9.29091 -0.485246 0)
(9.09317 -0.374713 0)
(9.24255 -0.414236 0)
(9.05906 -0.303566 0)
(9.18784 -0.339991 0)
(9.01793 -0.227864 0)
(9.13777 -0.263291 0)
(8.98372 -0.157784 0)
(9.09164 -0.198064 0)
(8.95427 -0.0990298 0)
(9.03984 -0.133544 0)
(8.92804 -0.0449064 0)
(8.9915 -0.08132 0)
(8.90547 -0.000313483 0)
(8.93504 -0.0241855 0)
(8.87737 0.0543658 0)
(8.87516 0.0309715 0)
(8.85192 0.108033 0)
(8.81457 0.0840456 0)
(8.82237 0.165755 0)
(8.764 0.151854 0)
(8.79273 0.234484 0)
(8.72166 0.218355 0)
(8.76601 0.311595 0)
(8.69373 0.300915 0)
(8.72165 0.388836 0)
(8.67198 0.380959 0)
(8.68314 0.470477 0)
(8.65146 0.44146 0)
(8.63796 0.538397 0)
(8.63555 0.500226 0)
(8.5766 0.602345 0)
(8.60479 0.560917 0)
(8.50224 0.675234 0)
(8.57363 0.624615 0)
(8.42305 0.746464 0)
(8.53297 0.695287 0)
(8.33139 0.833315 0)
(8.46758 0.760799 0)
(8.21136 0.917797 0)
(8.39485 0.834914 0)
(8.04428 1.01644 0)
(8.3132 0.913006 0)
(7.8715 1.14538 0)
(8.23179 1.00491 0)
(7.70229 1.27964 0)
(8.16834 1.10333 0)
(7.56308 1.43381 0)
(8.09954 1.2253 0)
(7.44462 1.6013 0)
(8.02494 1.37038 0)
(7.33379 1.77944 0)
(7.91126 1.52949 0)
(7.22291 1.96518 0)
(7.74537 1.71863 0)
(7.08724 2.16701 0)
(7.56474 1.96135 0)
(6.90584 2.39805 0)
(7.37646 2.25594 0)
(6.66323 2.68601 0)
(7.1177 2.61592 0)
(6.36732 3.09278 0)
(6.73322 3.0836 0)
(6.03212 3.77458 0)
(6.25074 3.81366 0)
(5.38097 4.91052 0)
(6.36472 5.46736 0)
(4.0759 8.41105 0)
(5.31253 -0.0679818 0)
(5.232 -0.0322276 0)
(5.35776 -0.0418922 0)
(5.32197 -0.0680126 0)
(5.51617 -0.10102 0)
(5.49425 -0.110739 0)
(5.68145 -0.11677 0)
(5.62316 -0.106594 0)
(5.78563 -0.106047 0)
(5.69908 -0.0993455 0)
(5.85965 -0.106455 0)
(5.76543 -0.105937 0)
(5.93845 -0.117648 0)
(5.84392 -0.118599 0)
(6.03017 -0.130559 0)
(5.93351 -0.13093 0)
(6.13062 -0.14293 0)
(6.02957 -0.142515 0)
(6.23593 -0.155058 0)
(6.13058 -0.154065 0)
(6.34483 -0.167633 0)
(6.23369 -0.168403 0)
(6.45304 -0.18425 0)
(6.33345 -0.186351 0)
(6.55761 -0.204197 0)
(6.4291 -0.207194 0)
(6.65907 -0.225674 0)
(6.52215 -0.22742 0)
(6.75849 -0.245441 0)
(6.61437 -0.24592 0)
(6.85916 -0.264539 0)
(6.70967 -0.265389 0)
(6.96399 -0.286352 0)
(6.80848 -0.287957 0)
(7.06983 -0.309813 0)
(6.9059 -0.309729 0)
(7.17206 -0.33078 0)
(6.99991 -0.328741 0)
(7.27047 -0.35038 0)
(7.09209 -0.348668 0)
(7.36716 -0.373196 0)
(7.1845 -0.373479 0)
(7.46354 -0.402022 0)
(7.27658 -0.404197 0)
(7.55874 -0.435203 0)
(7.36553 -0.436775 0)
(7.6503 -0.468123 0)
(7.44926 -0.466949 0)
(7.73779 -0.496957 0)
(7.52736 -0.492019 0)
(7.82365 -0.519342 0)
(7.60078 -0.509968 0)
(7.91053 -0.534865 0)
(7.67293 -0.521599 0)
(8.00029 -0.546009 0)
(7.74817 -0.530727 0)
(8.0941 -0.556213 0)
(7.82978 -0.540841 0)
(8.19266 -0.568818 0)
(7.92031 -0.553926 0)
(8.29583 -0.585429 0)
(8.02029 -0.572014 0)
(8.40301 -0.609014 0)
(8.12895 -0.598385 0)
(8.51212 -0.641428 0)
(8.24313 -0.633624 0)
(8.62033 -0.680057 0)
(8.35393 -0.674346 0)
(8.72634 -0.723995 0)
(8.45726 -0.718967 0)
(8.82857 -0.767249 0)
(8.54952 -0.756622 0)
(8.92553 -0.803602 0)
(8.63649 -0.788121 0)
(9.01975 -0.83677 0)
(8.72634 -0.815266 0)
(9.11523 -0.865787 0)
(8.82353 -0.839566 0)
(9.21571 -0.891793 0)
(8.92634 -0.862717 0)
(9.32561 -0.914617 0)
(9.03488 -0.880221 0)
(9.44014 -0.93245 0)
(9.15201 -0.893956 0)
(9.55145 -0.947842 0)
(9.27528 -0.910608 0)
(9.6579 -0.971707 0)
(9.39815 -0.937329 0)
(9.75327 -1.00378 0)
(9.50724 -0.97199 0)
(9.83624 -1.03771 0)
(9.59584 -1.00196 0)
(9.8982 -1.06604 0)
(9.65779 -1.02791 0)
(9.9378 -1.09008 0)
(9.6984 -1.04779 0)
(9.96172 -1.1084 0)
(9.72896 -1.06541 0)
(9.98527 -1.1283 0)
(9.76481 -1.08661 0)
(10.0151 -1.15358 0)
(9.80688 -1.10902 0)
(10.0517 -1.17965 0)
(9.84017 -1.12417 0)
(10.0786 -1.18414 0)
(9.85418 -1.11795 0)
(10.0843 -1.17499 0)
(9.84393 -1.10276 0)
(10.0619 -1.16334 0)
(9.80765 -1.08096 0)
(10.0108 -1.13569 0)
(9.74562 -1.04012 0)
(9.93076 -1.09291 0)
(9.66622 -0.99661 0)
(9.8474 -1.05372 0)
(9.59734 -0.955796 0)
(9.77529 -1.01166 0)
(9.53948 -0.905492 0)
(9.71532 -0.95484 0)
(9.48375 -0.845804 0)
(9.66701 -0.891324 0)
(9.43232 -0.781728 0)
(9.62796 -0.827787 0)
(9.38586 -0.71288 0)
(9.59121 -0.764036 0)
(9.33126 -0.645601 0)
(9.55104 -0.702071 0)
(9.27117 -0.578324 0)
(9.50691 -0.628447 0)
(9.21206 -0.502015 0)
(9.45547 -0.552034 0)
(9.15535 -0.42485 0)
(9.39806 -0.473973 0)
(9.10194 -0.348764 0)
(9.3371 -0.39814 0)
(9.03793 -0.272864 0)
(9.27059 -0.322885 0)
(8.97817 -0.203522 0)
(9.21264 -0.252798 0)
(8.9343 -0.138561 0)
(9.16535 -0.189099 0)
(8.8943 -0.0779131 0)
(9.12096 -0.127418 0)
(8.85613 -0.0206596 0)
(9.08069 -0.0749119 0)
(8.81638 0.0303192 0)
(9.03465 -0.0163747 0)
(8.78158 0.0822459 0)
(8.99054 0.0365007 0)
(8.76611 0.133288 0)
(8.94305 0.0914417 0)
(8.74865 0.188144 0)
(8.89162 0.150975 0)
(8.72787 0.255427 0)
(8.85275 0.217596 0)
(8.69963 0.331685 0)
(8.82757 0.295135 0)
(8.66627 0.414286 0)
(8.81824 0.369735 0)
(8.64029 0.499611 0)
(8.81659 0.428549 0)
(8.60179 0.573038 0)
(8.80843 0.490544 0)
(8.56273 0.642835 0)
(8.78977 0.548184 0)
(8.52585 0.716792 0)
(8.7662 0.603799 0)
(8.48128 0.804046 0)
(8.71598 0.671861 0)
(8.41947 0.910526 0)
(8.67497 0.741892 0)
(8.30696 1.01097 0)
(8.6354 0.824736 0)
(8.16293 1.12736 0)
(8.57095 0.897634 0)
(8.00791 1.25004 0)
(8.52333 0.97744 0)
(7.85844 1.3785 0)
(8.48661 1.06804 0)
(7.7272 1.52681 0)
(8.45465 1.1976 0)
(7.62481 1.69252 0)
(8.40242 1.35428 0)
(7.54248 1.86875 0)
(8.32334 1.53112 0)
(7.44998 2.05018 0)
(8.23437 1.73716 0)
(7.31694 2.25471 0)
(8.13624 1.97738 0)
(7.17834 2.5252 0)
(7.99289 2.25773 0)
(7.06442 2.88679 0)
(7.77871 2.60312 0)
(6.92271 3.37476 0)
(7.52312 3.08506 0)
(6.6402 4.06527 0)
(7.53158 3.89989 0)
(5.99614 5.3145 0)
(8.44458 4.76099 0)
(6.47796 8.87979 0)
(7.98868 -0.0905387 0)
(7.87084 -0.0816572 0)
(8.00551 -0.0999376 0)
(7.92271 -0.113129 0)
(8.12057 -0.132169 0)
(8.05146 -0.12998 0)
(8.24064 -0.132422 0)
(8.13083 -0.119471 0)
(8.29456 -0.120472 0)
(8.15627 -0.112443 0)
(8.32053 -0.122128 0)
(8.17771 -0.121536 0)
(8.35714 -0.137163 0)
(8.2158 -0.139046 0)
(8.41008 -0.155719 0)
(8.26781 -0.156419 0)
(8.47307 -0.172129 0)
(8.32639 -0.170911 0)
(8.53883 -0.186022 0)
(8.38596 -0.184072 0)
(8.60423 -0.200046 0)
(8.44503 -0.199 0)
(8.66883 -0.216746 0)
(8.50299 -0.216667 0)
(8.73262 -0.235994 0)
(8.56037 -0.236384 0)
(8.7963 -0.256452 0)
(8.61763 -0.256281 0)
(8.85965 -0.27643 0)
(8.67329 -0.2755 0)
(8.92126 -0.296309 0)
(8.72669 -0.295563 0)
(8.98091 -0.318026 0)
(8.77743 -0.317569 0)
(9.03748 -0.340962 0)
(8.82473 -0.339256 0)
(9.09083 -0.362346 0)
(8.87039 -0.358695 0)
(9.14287 -0.382241 0)
(8.91696 -0.378009 0)
(9.19588 -0.404072 0)
(8.96706 -0.401093 0)
(9.25148 -0.431029 0)
(9.01998 -0.429687 0)
(9.30821 -0.462429 0)
(9.07217 -0.461137 0)
(9.36291 -0.494299 0)
(9.11903 -0.490866 0)
(9.41284 -0.522355 0)
(9.1581 -0.515214 0)
(9.45796 -0.54411 0)
(9.19059 -0.532669 0)
(9.49974 -0.559806 0)
(9.22006 -0.544697 0)
(9.5403 -0.572197 0)
(9.25223 -0.55516 0)
(9.58334 -0.58563 0)
(9.29327 -0.568418 0)
(9.63207 -0.602972 0)
(9.34528 -0.585735 0)
(9.68561 -0.62274 0)
(9.40392 -0.605815 0)
(9.7409 -0.645434 0)
(9.46298 -0.631212 0)
(9.79574 -0.674378 0)
(9.51799 -0.663414 0)
(9.85001 -0.7114 0)
(9.57175 -0.703942 0)
(9.90844 -0.756545 0)
(9.62485 -0.748649 0)
(9.96383 -0.800405 0)
(9.67335 -0.787024 0)
(10.0168 -0.835925 0)
(9.71956 -0.818928 0)
(10.0677 -0.868705 0)
(9.7652 -0.847024 0)
(10.115 -0.89787 0)
(9.81259 -0.871618 0)
(10.1624 -0.925412 0)
(9.86681 -0.89681 0)
(10.2149 -0.95041 0)
(9.92817 -0.916371 0)
(10.2717 -0.969847 0)
(9.99606 -0.928949 0)
(10.3271 -0.983648 0)
(10.0672 -0.94429 0)
(10.3786 -1.00189 0)
(10.1294 -0.965574 0)
(10.4209 -1.02847 0)
(10.1787 -0.994467 0)
(10.4499 -1.05503 0)
(10.2106 -1.01652 0)
(10.458 -1.07692 0)
(10.2221 -1.03493 0)
(10.4476 -1.09423 0)
(10.2203 -1.04982 0)
(10.4227 -1.11135 0)
(10.2113 -1.06792 0)
(10.4021 -1.13429 0)
(10.2049 -1.09122 0)
(10.3856 -1.16244 0)
(10.1967 -1.11494 0)
(10.3643 -1.18656 0)
(10.1723 -1.12458 0)
(10.3325 -1.18423 0)
(10.1369 -1.11156 0)
(10.2893 -1.16816 0)
(10.0921 -1.08718 0)
(10.2289 -1.1429 0)
(10.0249 -1.05026 0)
(10.1398 -1.10206 0)
(9.93507 -0.999872 0)
(10.0381 -1.05576 0)
(9.85377 -0.960219 0)
(9.95312 -1.02175 0)
(9.77826 -0.921617 0)
(9.86424 -0.981305 0)
(9.69501 -0.872997 0)
(9.78124 -0.930212 0)
(9.61724 -0.815104 0)
(9.71392 -0.872308 0)
(9.54729 -0.750981 0)
(9.65362 -0.810473 0)
(9.48075 -0.682463 0)
(9.59524 -0.745318 0)
(9.41383 -0.613369 0)
(9.53321 -0.68216 0)
(9.34068 -0.544521 0)
(9.45973 -0.608904 0)
(9.26406 -0.463943 0)
(9.38165 -0.529607 0)
(9.18009 -0.383597 0)
(9.31067 -0.453601 0)
(9.09894 -0.307788 0)
(9.24024 -0.374349 0)
(9.01547 -0.230587 0)
(9.17019 -0.30414 0)
(8.94667 -0.169637 0)
(9.10749 -0.241203 0)
(8.88874 -0.108401 0)
(9.05653 -0.185186 0)
(8.84546 -0.0444856 0)
(9.003 -0.124642 0)
(8.8058 0.0132378 0)
(8.96203 -0.0731165 0)
(8.7716 0.0662379 0)
(8.92705 -0.0140051 0)
(8.74362 0.117426 0)
(8.90276 0.0333562 0)
(8.73272 0.166647 0)
(8.87217 0.0850071 0)
(8.73526 0.230471 0)
(8.83618 0.138094 0)
(8.71896 0.295537 0)
(8.81194 0.206344 0)
(8.69186 0.378956 0)
(8.78642 0.270638 0)
(8.66872 0.458015 0)
(8.77418 0.33737 0)
(8.6445 0.538122 0)
(8.76519 0.408971 0)
(8.61997 0.616035 0)
(8.74871 0.468627 0)
(8.60621 0.687365 0)
(8.73336 0.522312 0)
(8.58379 0.765577 0)
(8.71222 0.582027 0)
(8.54948 0.863885 0)
(8.69427 0.658605 0)
(8.48559 0.971898 0)
(8.70386 0.737008 0)
(8.37536 1.08905 0)
(8.70648 0.824622 0)
(8.23827 1.22337 0)
(8.7108 0.905593 0)
(8.08129 1.34547 0)
(8.72328 0.975282 0)
(7.93723 1.46715 0)
(8.71817 1.05826 0)
(7.81746 1.6019 0)
(8.69338 1.17129 0)
(7.7385 1.76836 0)
(8.65337 1.32172 0)
(7.66535 1.95697 0)
(8.60883 1.49688 0)
(7.57998 2.1634 0)
(8.55484 1.68909 0)
(7.5078 2.40633 0)
(8.45581 1.89961 0)
(7.4726 2.70058 0)
(8.33249 2.17135 0)
(7.42888 3.07155 0)
(8.26761 2.54311 0)
(7.30628 3.54925 0)
(8.39746 3.04756 0)
(7.00184 4.29299 0)
(8.93958 3.56257 0)
(6.73713 5.85077 0)
(9.68634 3.66183 0)
(8.113 8.15866 0)
(10.2174 -0.115369 0)
(10.0879 -0.192121 0)
(10.2485 -0.235318 0)
(10.1468 -0.222277 0)
(10.3451 -0.207729 0)
(10.2406 -0.172642 0)
(10.4226 -0.159299 0)
(10.2799 -0.135098 0)
(10.4421 -0.136038 0)
(10.2775 -0.12425 0)
(10.4421 -0.136739 0)
(10.2749 -0.13341 0)
(10.4526 -0.152783 0)
(10.2869 -0.152555 0)
(10.4768 -0.173525 0)
(10.3101 -0.172069 0)
(10.5086 -0.191743 0)
(10.3375 -0.187756 0)
(10.5418 -0.206198 0)
(10.3653 -0.200826 0)
(10.575 -0.21964 0)
(10.3929 -0.21454 0)
(10.6076 -0.235069 0)
(10.4198 -0.230858 0)
(10.639 -0.253178 0)
(10.446 -0.249449 0)
(10.6689 -0.272807 0)
(10.4707 -0.268612 0)
(10.6966 -0.292314 0)
(10.4932 -0.287386 0)
(10.7212 -0.311494 0)
(10.5123 -0.306216 0)
(10.7421 -0.331201 0)
(10.5277 -0.326079 0)
(10.7597 -0.351951 0)
(10.5397 -0.346457 0)
(10.7753 -0.372714 0)
(10.5502 -0.366749 0)
(10.7918 -0.393916 0)
(10.5623 -0.387986 0)
(10.8113 -0.417221 0)
(10.5772 -0.41256 0)
(10.8334 -0.444936 0)
(10.5934 -0.44146 0)
(10.8553 -0.476149 0)
(10.6077 -0.472184 0)
(10.8733 -0.50708 0)
(10.6173 -0.500145 0)
(10.8855 -0.533363 0)
(10.6218 -0.52181 0)
(10.8924 -0.552793 0)
(10.6231 -0.536663 0)
(10.8956 -0.566124 0)
(10.6234 -0.54707 0)
(10.8981 -0.577484 0)
(10.6274 -0.558083 0)
(10.9039 -0.591965 0)
(10.6371 -0.573145 0)
(10.9127 -0.610127 0)
(10.6487 -0.591084 0)
(10.9206 -0.630303 0)
(10.6585 -0.611344 0)
(10.9256 -0.653216 0)
(10.665 -0.635695 0)
(10.927 -0.680778 0)
(10.6677 -0.667439 0)
(10.9285 -0.719408 0)
(10.6706 -0.71128 0)
(10.9322 -0.765386 0)
(10.6708 -0.755358 0)
(10.9324 -0.808945 0)
(10.6644 -0.793844 0)
(10.9281 -0.844329 0)
(10.6582 -0.82619 0)
(10.9213 -0.875659 0)
(10.6484 -0.854246 0)
(10.9114 -0.903509 0)
(10.6433 -0.880779 0)
(10.9082 -0.933803 0)
(10.6521 -0.908493 0)
(10.9123 -0.959674 0)
(10.6698 -0.930309 0)
(10.9191 -0.978046 0)
(10.6884 -0.942648 0)
(10.9258 -0.992135 0)
(10.7049 -0.955584 0)
(10.9265 -1.00655 0)
(10.7128 -0.976188 0)
(10.921 -1.03097 0)
(10.713 -0.998773 0)
(10.9007 -1.05055 0)
(10.6958 -1.01129 0)
(10.8617 -1.06404 0)
(10.6633 -1.02204 0)
(10.8118 -1.07724 0)
(10.6232 -1.03339 0)
(10.7527 -1.095 0)
(10.5789 -1.05378 0)
(10.6962 -1.12068 0)
(10.5305 -1.07699 0)
(10.6393 -1.14639 0)
(10.4741 -1.09631 0)
(10.5731 -1.16686 0)
(10.4098 -1.10241 0)
(10.5036 -1.16515 0)
(10.3424 -1.08918 0)
(10.4275 -1.14723 0)
(10.2665 -1.05735 0)
(10.3355 -1.11079 0)
(10.1722 -1.00936 0)
(10.2191 -1.05757 0)
(10.0626 -0.95692 0)
(10.1107 -1.0206 0)
(9.9753 -0.925482 0)
(10.0086 -0.986314 0)
(9.87692 -0.880965 0)
(9.89493 -0.940557 0)
(9.76354 -0.82936 0)
(9.77739 -0.895086 0)
(9.6555 -0.772405 0)
(9.67748 -0.844216 0)
(9.55611 -0.710936 0)
(9.596 -0.78398 0)
(9.46162 -0.647552 0)
(9.52191 -0.721308 0)
(9.37207 -0.583192 0)
(9.44075 -0.654557 0)
(9.2796 -0.50715 0)
(9.34788 -0.575821 0)
(9.18373 -0.4247 0)
(9.25574 -0.49686 0)
(9.08663 -0.346393 0)
(9.17186 -0.423283 0)
(8.99124 -0.269338 0)
(9.09445 -0.34501 0)
(8.89953 -0.196005 0)
(9.02802 -0.279885 0)
(8.81832 -0.13832 0)
(8.96263 -0.222769 0)
(8.74877 -0.0809268 0)
(8.90826 -0.171462 0)
(8.68661 -0.0144814 0)
(8.85887 -0.113313 0)
(8.64162 0.0394734 0)
(8.83264 -0.0717405 0)
(8.61214 0.092441 0)
(8.81079 -0.0198417 0)
(8.59574 0.138104 0)
(8.80727 0.0204117 0)
(8.58474 0.185471 0)
(8.80609 0.0660648 0)
(8.57603 0.251394 0)
(8.817 0.127536 0)
(8.54763 0.318471 0)
(8.82216 0.195332 0)
(8.52757 0.405356 0)
(8.80796 0.26035 0)
(8.50857 0.494333 0)
(8.80038 0.331629 0)
(8.47122 0.562662 0)
(8.79874 0.390075 0)
(8.45801 0.640511 0)
(8.80645 0.43625 0)
(8.42766 0.714445 0)
(8.83057 0.497082 0)
(8.37764 0.799478 0)
(8.84275 0.560252 0)
(8.31623 0.903941 0)
(8.87307 0.635694 0)
(8.24679 1.02024 0)
(8.90551 0.70876 0)
(8.16904 1.15687 0)
(8.93052 0.788789 0)
(8.06678 1.2893 0)
(8.9688 0.863169 0)
(7.97339 1.40952 0)
(8.96861 0.938523 0)
(7.90891 1.53501 0)
(8.93082 1.02719 0)
(7.86352 1.67754 0)
(8.87346 1.13144 0)
(7.83065 1.85487 0)
(8.83118 1.2685 0)
(7.80467 2.05641 0)
(8.79829 1.43179 0)
(7.78889 2.27906 0)
(8.76237 1.6106 0)
(7.78627 2.52807 0)
(8.75041 1.83223 0)
(7.74447 2.8208 0)
(8.81101 2.10824 0)
(7.65209 3.203 0)
(9.00391 2.43449 0)
(7.49028 3.74814 0)
(9.3993 2.72951 0)
(7.35514 4.66862 0)
(9.99041 2.86039 0)
(7.69147 6.07081 0)
(10.2822 3.07053 0)
(9.09963 7.15605 0)
(11.6992 -0.0995038 0)
(11.6061 -0.208053 0)
(11.8047 -0.271186 0)
(11.7472 -0.254204 0)
(11.9216 -0.234284 0)
(11.8189 -0.183777 0)
(11.9586 -0.165986 0)
(11.8198 -0.133821 0)
(11.9457 -0.138154 0)
(11.7943 -0.123325 0)
(11.9242 -0.14133 0)
(11.7731 -0.135171 0)
(11.9139 -0.159515 0)
(11.7658 -0.15582 0)
(11.9169 -0.18135 0)
(11.7695 -0.176263 0)
(11.9276 -0.200382 0)
(11.7776 -0.192667 0)
(11.9402 -0.215362 0)
(11.786 -0.206024 0)
(11.9521 -0.22887 0)
(11.7928 -0.219526 0)
(11.9617 -0.243935 0)
(11.7968 -0.235311 0)
(11.9678 -0.261461 0)
(11.7976 -0.253213 0)
(11.9708 -0.280447 0)
(11.7957 -0.271682 0)
(11.9713 -0.299365 0)
(11.7924 -0.289596 0)
(11.9703 -0.317497 0)
(11.7884 -0.30685 0)
(11.9681 -0.335539 0)
(11.7838 -0.324589 0)
(11.9648 -0.354359 0)
(11.7787 -0.343364 0)
(11.961 -0.374411 0)
(11.7733 -0.363719 0)
(11.9575 -0.396269 0)
(11.7679 -0.386334 0)
(11.9547 -0.420966 0)
(11.7621 -0.412252 0)
(11.9515 -0.449102 0)
(11.7545 -0.441052 0)
(11.9461 -0.479334 0)
(11.7434 -0.470265 0)
(11.9362 -0.508357 0)
(11.7282 -0.496296 0)
(11.9207 -0.532672 0)
(11.7086 -0.516244 0)
(11.8993 -0.550427 0)
(11.6862 -0.52989 0)
(11.8743 -0.563234 0)
(11.6645 -0.540978 0)
(11.8501 -0.575847 0)
(11.6462 -0.553657 0)
(11.8271 -0.5904 0)
(11.6275 -0.568335 0)
(11.8021 -0.606348 0)
(11.6036 -0.584996 0)
(11.7739 -0.62502 0)
(11.5737 -0.604332 0)
(11.7426 -0.646132 0)
(11.5378 -0.626154 0)
(11.709 -0.672331 0)
(11.501 -0.657062 0)
(11.6764 -0.71024 0)
(11.4622 -0.697924 0)
(11.6359 -0.7533 0)
(11.4161 -0.738466 0)
(11.5872 -0.792861 0)
(11.3633 -0.774458 0)
(11.5336 -0.827937 0)
(11.3114 -0.806282 0)
(11.4767 -0.858127 0)
(11.2581 -0.835361 0)
(11.4207 -0.889306 0)
(11.2151 -0.868786 0)
(11.3793 -0.925545 0)
(11.1854 -0.901315 0)
(11.3447 -0.954477 0)
(11.1599 -0.925281 0)
(11.3099 -0.972106 0)
(11.1344 -0.939591 0)
(11.2774 -0.986108 0)
(11.1038 -0.95094 0)
(11.2435 -0.999999 0)
(11.072 -0.969573 0)
(11.2037 -1.02052 0)
(11.0329 -0.9823 0)
(11.1487 -1.02986 0)
(10.976 -0.987664 0)
(11.0849 -1.04058 0)
(10.9126 -0.996099 0)
(11.0166 -1.05417 0)
(10.8463 -1.00649 0)
(10.9416 -1.07325 0)
(10.7785 -1.02504 0)
(10.8595 -1.09801 0)
(10.7049 -1.04703 0)
(10.7767 -1.12088 0)
(10.6273 -1.06294 0)
(10.6915 -1.13842 0)
(10.5458 -1.06734 0)
(10.5997 -1.13259 0)
(10.4529 -1.05088 0)
(10.4915 -1.10882 0)
(10.346 -1.01256 0)
(10.3631 -1.06493 0)
(10.2214 -0.954897 0)
(10.2187 -1.00775 0)
(10.1073 -0.911368 0)
(10.0963 -0.980189 0)
(9.99289 -0.875374 0)
(9.9594 -0.937465 0)
(9.8614 -0.820848 0)
(9.81262 -0.887007 0)
(9.71607 -0.764741 0)
(9.66792 -0.845162 0)
(9.57563 -0.71382 0)
(9.53904 -0.802866 0)
(9.44449 -0.659767 0)
(9.43339 -0.748538 0)
(9.32582 -0.60053 0)
(9.33506 -0.687041 0)
(9.21448 -0.534979 0)
(9.22654 -0.6199 0)
(9.1049 -0.456723 0)
(9.1203 -0.541179 0)
(8.99654 -0.374561 0)
(9.02353 -0.462951 0)
(8.89399 -0.299409 0)
(8.92983 -0.388477 0)
(8.7939 -0.221679 0)
(8.84589 -0.31735 0)
(8.70368 -0.153084 0)
(8.77893 -0.254329 0)
(8.61243 -0.0933846 0)
(8.71248 -0.203967 0)
(8.52928 -0.0367702 0)
(8.65474 -0.154059 0)
(8.45176 0.0216999 0)
(8.61863 -0.109293 0)
(8.41281 0.0620691 0)
(8.59583 -0.0751992 0)
(8.38285 0.1217 0)
(8.58155 -0.0371588 0)
(8.37176 0.165987 0)
(8.58984 -0.00477597 0)