/*--------------------------------*- C++ -*----------------------------------*\
| =========                 |                                                 |
| \\      /  F ield         | OpenFOAM: The Open Source CFD Toolbox           |
|  \\    /   O peration     | Version:  2.4.0                                 |
|   \\  /    A nd           | Web:      www.OpenFOAM.org                      |
|    \\/     M anipulation  |                                                 |
\*---------------------------------------------------------------------------*/
FoamFile
{
    version     2.0;
    format      ascii;
    class       volScalarField;
    location    "0.92";
    object      k_0;
}
// * * * * * * * * * * * * * * * * * * * * * * * * * * * * * * * * * * * * * //

dimensions      [0 2 -2 0 0 0 0];

internalField   nonuniform List<scalar> 
8800
(
8.11914
10.2655
8.793
6.82124
5.7093
4.96854
4.53092
4.14005
3.91803
3.6645
3.54467
3.37366
3.29032
3.16834
3.09481
2.99814
2.91219
2.82309
2.75585
2.55149
1.40365
4.35204
5.31834
5.28766
5.13185
4.80655
4.57858
4.28361
4.12123
3.88193
3.77001
3.59678
3.50946
3.38709
3.32219
3.22212
3.16773
3.08592
3.01712
2.96121
0.084364
0.732083
1.56177
1.94207
2.27699
2.43632
2.57789
2.59876
2.62412
2.60186
2.58579
2.54373
2.5236
2.47371
2.4584
2.41051
2.40473
2.36027
2.35429
2.29546
0.00335017
0.0699398
0.258136
0.418334
0.586316
0.699816
0.840204
0.927475
1.02492
1.09649
1.15735
1.20831
1.26826
1.29164
1.34177
1.36223
1.40694
1.41749
1.4682
1.45147
0.000122691
0.00494736
0.0222229
0.0530146
0.087722
0.12266
0.162863
0.210208
0.237564
0.290363
0.313896
0.358264
0.387076
0.429605
0.451225
0.500718
0.523579
0.571509
0.596222
0.65115
2.49325e-05
0.000309806
0.00144389
0.00439035
0.0070758
0.0127189
0.0172437
0.0275226
0.0328227
0.0450393
0.0509551
0.063458
0.0707521
0.0859623
0.0930394
0.110177
0.11902
0.138592
0.146637
0.173989
2.18474e-05
4.45613e-05
0.000119485
0.000334361
0.000496335
0.000863723
0.00120662
0.00214264
0.00265039
0.00397798
0.00465018
0.00611804
0.0071812
0.00957699
0.010739
0.0135795
0.0160633
0.0176269
0.0209037
0.0258642
2.11368e-05
3.06511e-05
4.915e-05
6.92895e-05
0.000101751
0.000114888
0.000134994
0.000189575
0.000217167
0.000290708
0.000337394
0.000384011
0.000480811
0.000668792
0.000739257
0.00099073
0.00114876
0.00140084
0.0016025
0.00202251
2.07124e-05
2.79528e-05
4.71508e-05
5.18549e-05
5.78217e-05
7.27462e-05
8.41538e-05
8.96316e-05
8.75694e-05
8.61425e-05
8.75939e-05
9.00464e-05
9.77892e-05
0.000108667
0.000113654
0.000119913
0.000126144
0.000135369
0.000146918
0.000181193
2.05889e-05
2.83563e-05
4.15977e-05
5.83212e-05
6.0253e-05
5.97493e-05
6.07437e-05
7.08776e-05
7.62491e-05
7.68457e-05
7.59875e-05
7.55598e-05
7.47775e-05
7.50612e-05
7.6594e-05
7.95017e-05
8.17862e-05
8.24676e-05
8.56506e-05
8.80702e-05
2.06457e-05
2.67933e-05
3.84043e-05
6.03927e-05
6.5625e-05
6.49801e-05
6.20182e-05
6.35142e-05
7.1581e-05
7.59634e-05
7.59745e-05
7.42997e-05
7.34487e-05
7.40599e-05
7.51537e-05
7.68441e-05
7.97223e-05
8.04717e-05
8.21851e-05
8.73289e-05
2.07707e-05
2.80048e-05
4.28762e-05
6.44554e-05
6.84648e-05
6.69534e-05
6.71291e-05
7.57229e-05
8.50543e-05
9.12578e-05
9.2071e-05
9.55017e-05
9.6474e-05
0.000100249
0.000105626
0.000121738
0.000133835
0.000166098
0.000190139
0.00021629
2.10609e-05
3.08113e-05
4.50952e-05
7.81206e-05
8.9367e-05
0.000114306
0.000132258
0.000175548
0.000209779
0.000285688
0.000328485
0.000452957
0.000509371
0.000659917
0.000779765
0.00105373
0.00125035
0.00177537
0.00208221
0.00276006
2.16678e-05
4.32937e-05
0.000120207
0.00033698
0.000489582
0.00088971
0.00122537
0.00205871
0.00264527
0.00392189
0.00463411
0.00650657
0.0074222
0.00973576
0.0112007
0.0145021
0.0164894
0.0214768
0.0243208
0.0313159
2.49125e-05
0.000309605
0.00146637
0.00444032
0.00693794
0.013185
0.0174542
0.0269009
0.0327644
0.0448657
0.0509356
0.0654045
0.0718662
0.0870815
0.0952674
0.113689
0.123493
0.147887
0.160506
0.194906
0.000123182
0.00493379
0.0225766
0.0541139
0.0823402
0.130772
0.158723
0.207368
0.242109
0.28899
0.312696
0.365233
0.386628
0.434522
0.457827
0.50988
0.534405
0.595878
0.624181
0.697393
0.00336182
0.0696716
0.26112
0.414802
0.585057
0.707353
0.832086
0.928052
1.02931
1.09448
1.15658
1.22392
1.25449
1.31096
1.33725
1.38703
1.40823
1.46224
1.48262
1.53094
0.0845858
0.728635
1.56783
1.93496
2.28502
2.43106
2.58021
2.59551
2.62826
2.59878
2.58933
2.54372
2.527
2.47608
2.46313
2.42126
2.41141
2.38306
2.37056
2.3405
1.40676
4.34942
5.32147
5.28612
5.13369
4.79647
4.59079
4.27439
4.12988
3.87172
3.77997
3.57449
3.52028
3.3648
3.32533
3.19605
3.16443
3.04031
2.99856
2.8929
8.12226
10.2634
8.79598
6.81547
5.7166
4.95701
4.54117
4.12936
3.92553
3.64946
3.5546
3.34202
3.29789
3.12599
3.0924
2.92592
2.88823
2.70374
2.63501
2.41774
1.76158
1.30307
1.06494
0.920055
0.836182
0.775417
0.73591
0.698126
0.672042
0.64181
0.623297
0.59949
0.588645
0.569995
0.562476
0.546676
0.537686
0.519169
0.5058
0.478938
0.459179
0.430745
0.412386
0.397877
0.38901
0.386629
0.387554
0.39046
0.39382
0.397809
0.400681
0.407188
0.408647
0.411773
0.411437
0.411928
0.410653
0.409646
0.40667
0.40479
0.40289
0.398226
0.397549
0.390976
0.389891
0.382715
0.382666
0.377591
0.378593
0.374967
0.37625
0.374434
0.374879
0.375267
0.373982
0.374264
0.368763
0.367423
0.351424
0.347336
0.315942
0.308769
0.27788
0.26856
0.247851
0.23786
0.236225
0.224517
0.23168
0.228604
0.240346
0.237571
0.248628
0.247221
0.255953
0.256484
0.259312
0.266129
0.267388
0.285183
0.286554
0.30148
0.301779
0.319254
0.321947
0.330816
0.332138
0.331353
0.332024
0.332624
0.332142
0.333522
0.337727
0.342442
0.345818
0.35283
0.346567
0.351479
0.336426
0.328651
0.298731
0.258569
0.197336
0.164124
0.126439
0.1175
0.0980456
0.0958463
0.0888409
0.0888521
0.0853194
0.0864601
0.0842157
0.0851064
0.084456
0.0856855
0.08679
0.0914521
0.0967835
0.110331
0.127537
0.154449
0.165886
0.174559
0.174441
0.173869
0.168903
0.157417
0.133848
0.101155
0.0621196
0.037352
0.0226062
0.0143759
0.00988713
0.00781862
0.00688867
0.00678247
0.00687481
0.00722306
0.00830039
0.00990062
0.0140581
0.0192515
0.0261215
0.0358785
0.0473488
0.0545478
0.064813
0.0702072
0.0707255
0.0689508
0.0652607
0.0563935
0.0487022
0.0397483
0.0305348
0.0226033
0.0178979
0.0147697
0.013837
0.0138083
0.0148766
0.018048
0.0262841
0.039938
0.057517
0.0862609
0.110005
0.150761
0.16441
0.18059
0.177621
0.177916
0.177424
0.172157
0.181938
0.17252
0.187393
0.174905
0.192527
0.179676
0.193303
0.184594
0.190409
0.189373
0.18956
0.194583
0.191292
0.200272
0.192868
0.203525
0.189938
0.196205
0.176106
0.179455
0.15429
0.187966
0.177878
0.664413
2.50232
2.04031
1.71584
1.46899
1.31318
1.17625
1.09733
1.01062
0.965133
0.902274
0.872004
0.824504
0.803402
0.767892
0.752695
0.726678
0.714672
0.694812
0.682954
0.667304
0.651132
0.641357
0.619426
0.61208
0.594325
0.588366
0.573198
0.569865
0.559427
0.556622
0.548456
0.545976
0.539968
0.536718
0.532163
0.526764
0.525662
0.518129
0.517473
0.510747
0.511219
0.503708
0.504764
0.497038
0.497901
0.490436
0.490442
0.484361
0.482605
0.478676
0.473203
0.473767
0.465761
0.470645
0.459444
0.470026
0.455233
0.4669
0.450943
0.459091
0.443001
0.443753
0.43071
0.426044
0.414133
0.406572
0.399162
0.392257
0.386099
0.382843
0.37554
0.375991
0.368757
0.37308
0.362023
0.372409
0.35657
0.372135
0.353974
0.368863
0.35089
0.362832
0.347486
0.358089
0.3446
0.349953
0.336354
0.339439
0.323975
0.327313
0.310524
0.316456
0.298515
0.308465
0.291088
0.309664
0.296501
0.322704
0.313089
0.335822
0.323704
0.335522
0.314989
0.313758
0.282973
0.262035
0.211093
0.178745
0.142632
0.129952
0.112989
0.109343
0.105391
0.105967
0.107742
0.115678
0.123088
0.143206
0.153129
0.175198
0.179406
0.183218
0.181379
0.17861
0.169688
0.155509
0.128781
0.0933217
0.0575769
0.0350661
0.0215173
0.0135671
0.00928334
0.00719536
0.00622587
0.00612902
0.00623089
0.00663321
0.00753131
0.0100041
0.0146262
0.0191286
0.0310678
0.0409337
0.0579333
0.0791543
0.0983237
0.115115
0.132263
0.137473
0.136239
0.129876
0.121037
0.100741
0.0871534
0.0668847
0.0564255
0.0422281
0.0324404
0.0221127
0.0168853
0.0144958
0.0136578
0.0138512
0.0155155
0.0202919
0.0271618
0.0436535
0.0545833
0.0764436
0.0980645
0.115431
0.150077
0.155142
0.172991
0.168399
0.180047
0.173955
0.183196
0.179198
0.183816
0.183484
0.182804
0.187418
0.182529
0.189131
0.181745
0.188218
0.179517
0.183041
0.172782
0.17221
0.160703
0.157021
0.140184
0.133951
0.118841
0.116179
0.119003
0.180123
2.04725
1.78846
1.59821
1.41254
1.30296
1.1795
1.11064
1.02395
0.974668
0.914323
0.874604
0.834024
0.797858
0.773164
0.738976
0.72535
0.696654
0.686031
0.663518
0.655446
0.636521
0.629253
0.611425
0.604969
0.589253
0.583071
0.56886
0.562849
0.552113
0.543683
0.53882
0.526058
0.523118
0.513551
0.511344
0.501078
0.500242
0.492478
0.492515
0.485794
0.486462
0.481277
0.481162
0.478928
0.475737
0.476153
0.470826
0.473124
0.465499
0.470322
0.460323
0.466462
0.455502
0.46239
0.451353
0.458502
0.447676
0.454193
0.443868
0.448516
0.438579
0.440467
0.430063
0.429933
0.419582
0.418676
0.407339
0.408333
0.396398
0.39993
0.386187
0.394071
0.377368
0.389975
0.370296
0.387129
0.365191
0.382522
0.360287
0.373717
0.352783
0.360957
0.340481
0.343059
0.323339
0.323174
0.301037
0.301085
0.275646
0.27574
0.250828
0.25419
0.232958
0.241964
0.225773
0.239716
0.229599
0.24856
0.24492
0.267634
0.267264
0.290107
0.287495
0.302043
0.29518
0.300531
0.289311
0.287345
0.270018
0.261339
0.237732
0.230206
0.212991
0.210934
0.206333
0.208522
0.204894
0.205293
0.201123
0.199023
0.19026
0.182946
0.166013
0.144298
0.114202
0.077642
0.0492996
0.0306367
0.0194117
0.0123916
0.00858481
0.00651879
0.00559581
0.00545132
0.00556442
0.00592758
0.00694738
0.00975781
0.0130577
0.0215817
0.0307538
0.0430237
0.0668492
0.0879393
0.132334
0.164795
0.208556
0.234448
0.256044
0.255777
0.251241
0.239549
0.214111
0.187862
0.154544
0.120593
0.0888442
0.0664873
0.0469942
0.0384629
0.0267686
0.0197223
0.0156453
0.0140772
0.0138401
0.0142371
0.0155844
0.0200808
0.0271158
0.0355692
0.0539477
0.0640794
0.0892319
0.0994349
0.121762
0.138897
0.146709
0.157844
0.159503
0.166746
0.164411
0.171224
0.166134
0.172691
0.16632
0.171297
0.163689
0.165674
0.157645
0.156088
0.145524
0.141374
0.128019
0.122793
0.111172
0.107557
0.0931463
0.0893078
0.0879594
0.0982958
1.34151
1.21678
1.11504
1.01902
0.952233
0.888554
0.836033
0.793841
0.746594
0.71944
0.677021
0.658229
0.6215
0.606187
0.575439
0.562944
0.537845
0.527781
0.507965
0.499555
0.484538
0.476564
0.465903
0.455194
0.44963
0.437257
0.43225
0.420675
0.416129
0.404815
0.400072
0.389395
0.384759
0.375737
0.369085
0.364545
0.356273
0.353389
0.347077
0.345673
0.340515
0.34031
0.337063
0.338889
0.335794
0.339041
0.335646
0.34007
0.336361
0.341399
0.337458
0.34218
0.338342
0.342393
0.338929
0.342234
0.339021
0.341631
0.338074
0.33999
0.335432
0.336469
0.330095
0.329944
0.321645
0.320931
0.310121
0.309754
0.297257
0.298298
0.284726
0.288505
0.273788
0.279539
0.26456
0.270259
0.256488
0.259191
0.247542
0.246517
0.235264
0.232497
0.218546
0.214301
0.196504
0.19232
0.172246
0.167705
0.146308
0.141784
0.121725
0.118827
0.103683
0.104015
0.0964545
0.101113
0.0988306
0.107603
0.109076
0.123875
0.129261
0.152988
0.162185
0.193503
0.203764
0.233184
0.238499
0.252968
0.251732
0.253222
0.250064
0.249031
0.244399
0.24109
0.232197
0.226154
0.212816
0.203847
0.18675
0.169181
0.140568
0.115466
0.0832739
0.056475
0.0377282
0.0244437
0.0163032
0.0106662
0.00761596
0.00573435
0.0049403
0.00479238
0.00491229
0.00525503
0.00641014
0.00855996
0.0135696
0.0208935
0.0296633
0.0479767
0.0647416
0.0988367
0.136505
0.204955
0.274104
0.332101
0.357503
0.357474
0.352588
0.336656
0.32982
0.313549
0.302033
0.278488
0.243707
0.203156
0.154773
0.115074
0.077928
0.0551035
0.040996
0.0313051
0.0219917
0.0166063
0.014429
0.0148453
0.0150192
0.0179984
0.0197046
0.0241454
0.0282642
0.0363783
0.0423811
0.0550501
0.0611747
0.0780423
0.0821693
0.100865
0.102832
0.117529
0.116606
0.125982
0.121964
0.128447
0.122581
0.125429
0.118103
0.117647
0.110693
0.108641
0.0994655
0.096759
0.0865482
0.0828943
0.0718358
0.0700976
0.0634112
0.0611599
0.0550152
0.057261
0.620377
0.586102
0.531989
0.502714
0.46464
0.445267
0.418756
0.404885
0.385961
0.37352
0.36099
0.348947
0.339643
0.327924
0.320451
0.307919
0.302203
0.289326
0.284172
0.272997
0.268668
0.258733
0.254946
0.246487
0.243334
0.235763
0.232928
0.225913
0.223236
0.216651
0.213961
0.207605
0.20472
0.199044
0.194867
0.191653
0.185384
0.183245
0.178527
0.177121
0.172815
0.172123
0.169516
0.169557
0.168446
0.168848
0.168775
0.169033
0.170117
0.170291
0.171796
0.171487
0.173252
0.17252
0.174215
0.1732
0.174744
0.173222
0.174597
0.172369
0.173256
0.170258
0.170115
0.166859
0.165248
0.162119
0.156449
0.154989
0.147298
0.145409
0.137162
0.135892
0.128685
0.126183
0.119368
0.116562
0.111848
0.105765
0.10303
0.0967546
0.091457
0.0876494
0.0795665
0.0759826
0.0678286
0.0644191
0.0561964
0.0531152
0.0460103
0.043508
0.0375595
0.0357553
0.03166
0.0306875
0.0280959
0.0281481
0.027913
0.0292289
0.0301071
0.0339783
0.0367511
0.0441212
0.049274
0.0615512
0.0700938
0.0821493
0.0989662
0.112106
0.127682
0.138144
0.148896
0.150957
0.150532
0.147747
0.141316
0.131351
0.116626
0.102538
0.0820359
0.0648674
0.0485825
0.0359975
0.0256885
0.0178724
0.012568
0.00857259
0.00631376
0.00481727
0.00419357
0.00411214
0.00424841
0.00459825
0.00574578
0.00779249
0.0133268
0.0190611
0.0330016
0.0446178
0.0710498
0.09673
0.139195
0.200544
0.303322
0.393116
0.424353
0.425699
0.406766
0.393337
0.366699
0.34875
0.339909
0.323646
0.318237
0.308914
0.298787
0.269834
0.223702
0.173083
0.127817
0.086538
0.0599865
0.0424443
0.033858
0.0264727
0.0191207
0.0172179
0.0154038
0.0156443
0.0161979
0.0170872
0.0191285
0.0221237
0.0246116
0.0308925
0.0338907
0.0428827
0.0458397
0.056028
0.0581067
0.0675639
0.0685198
0.0757451
0.0749979
0.0788745
0.0768032
0.0781762
0.0748416
0.0738408
0.0700853
0.0681217
0.0625855
0.0603417
0.0548766
0.0521069
0.044941
0.0439992
0.0419532
0.0410257
0.0380041
0.037354
0.169411
0.164369
0.152634
0.147235
0.136619
0.132023
0.12623
0.12175
0.119819
0.115699
0.114339
0.111758
0.110712
0.10861
0.106786
0.10508
0.103612
0.100489
0.0993071
0.0962307
0.0947439
0.0912125
0.0897895
0.0869654
0.0853271
0.0829713
0.0805362
0.0794811
0.0769477
0.075744
0.0733567
0.0724302
0.0702667
0.0692822
0.0669226
0.066147
0.0640245
0.0632812
0.0612588
0.0608194
0.0593071
0.0590529
0.0578702
0.0577563
0.0571702
0.0571773
0.0571023
0.0571277
0.0575405
0.0576042
0.0583651
0.0583385
0.0592739
0.0591774
0.0600962
0.0598091
0.0607399
0.0599956
0.0609791
0.0596704
0.0605089
0.0586791
0.0590297
0.0570775
0.0564512
0.0549819
0.0527502
0.0519177
0.0486378
0.0474065
0.0445876
0.0434464
0.0414656
0.0386054
0.0377921
0.0352949
0.034343
0.0316477
0.0307753
0.0287911
0.0272533
0.0254417
0.0234133
0.0217629
0.0197314
0.0180198
0.0163614
0.0147298
0.0134497
0.0121885
0.0112968
0.0103298
0.00977046
0.00911656
0.00864996
0.00835832
0.00836657
0.00846261
0.00878248
0.0093172
0.0106206
0.011754
0.0143175
0.016293
0.0206574
0.0233897
0.0291449
0.0331484
0.0392507
0.0427886
0.0474614
0.0501262
0.0502702
0.0496115
0.0470907
0.0442794
0.0378945
0.0338416
0.0264712
0.0220073
0.016061
0.0124364
0.00876667
0.00644102
0.00479946
0.00384381
0.00339924
0.00341258
0.003553
0.00395416
0.0051249
0.00714047
0.0124278
0.0181761
0.0325404
0.0447286
0.0726618
0.0947762
0.144685
0.191079
0.297403
0.403931
0.475324
0.482349
0.469974
0.448179
0.391343
0.371119
0.324939
0.320154
0.30669
0.308048
0.304983
0.3061
0.301424
0.293375
0.274582
0.233927
0.180602
0.134539
0.0916393
0.0629519
0.0448741
0.0349276
0.0262965
0.0212552
0.0179244
0.0158475
0.0163518
0.0157709
0.0170511
0.0174894
0.0188975
0.0208979
0.022277
0.0260179
0.0274825
0.0321435
0.0337147
0.0389363
0.0395506
0.0438758
0.0436094
0.0456069
0.0447773
0.0453775
0.0442205
0.0432299
0.0418945
0.03896
0.0368956
0.0357962
0.0321935
0.0300651
0.0290318
0.0288005
0.0269864
0.0256554
0.0259982
0.026453
0.0254922
0.0250673
0.0240301
0.0234606
0.0223487
0.0217196
0.021261
0.0207387
0.0207072
0.0205962
0.020665
0.0206227
0.0206611
0.0206801
0.0206112
0.0206122
0.0204929
0.0203999
0.0201459
0.0198141
0.0196375
0.0190203
0.0187269
0.018268
0.0179329
0.0176489
0.0171889
0.0170399
0.0167185
0.0165988
0.0162668
0.0161515
0.015881
0.0157707
0.0154021
0.0152504
0.0148462
0.0147028
0.0142773
0.0141659
0.0138474
0.0138238
0.0136356
0.0136824
0.0136036
0.0137082
0.0136863
0.0138404
0.0138692
0.0140644
0.0141195
0.0143719
0.0144283
0.0147129
0.0147551
0.0149385
0.0150161
0.0150285
0.0151828
0.0150511
0.0151194
0.0148639
0.0148163
0.0146159
0.0140789
0.0138971
0.0131953
0.0129447
0.012074
0.0117725
0.0110761
0.0107067
0.0102005
0.00952291
0.00930231
0.00871101
0.00827326
0.00799956
0.00735352
0.00709934
0.00649876
0.00627549
0.005668
0.00538549
0.00477824
0.00456539
0.00405208
0.00387335
0.00349988
0.00336434
0.00313182
0.00305536
0.00294019
0.00283941
0.00283676
0.00284766
0.00290673
0.0030376
0.00320527
0.00357518
0.00387032
0.00452524
0.00497583
0.00603273
0.00672307
0.00835333
0.00926943
0.011463
0.0123982
0.0146211
0.0151987
0.0166127
0.0165603
0.0164592
0.0154196
0.0146236
0.012358
0.0111789
0.00846197
0.00731887
0.00511741
0.00426838
0.00314391
0.00277763
0.00260745
0.00272364
0.00293178
0.00348562
0.00457621
0.00692584
0.0119292
0.0180031
0.031384
0.0447606
0.0739315
0.0975711
0.145493
0.184633
0.271894
0.381693
0.503969
0.510544
0.525354
0.499561
0.45067
0.384688
0.308865
0.279922
0.240956
0.240988
0.236711
0.243952
0.248861
0.270341
0.279894
0.289907
0.283866
0.271412
0.224642
0.189235
0.132644
0.101378
0.0694508
0.0499058
0.03894
0.0273913
0.0236885
0.0177939
0.0171176
0.0154388
0.0153839
0.0147258
0.0148328
0.0152765
0.0156579
0.0167636
0.0170176
0.0189722
0.0193095
0.0214959
0.0216765
0.0238795
0.0236533
0.0246218
0.02432
0.0242163
0.0239302
0.0232502
0.02299
0.0218
0.0216752
0.0212426
0.0199964
0.0200081
0.020023
0.0196545
0.0186963
0.0185364
0.0198473
0.0199277
0.00202241
0.00201761
0.00200538
0.0019756
0.00193685
0.00188277
0.00186633
0.00182523
0.00182681
0.00182395
0.00183472
0.00184302
0.00185959
0.00188677
0.00190012
0.00194444
0.00195055
0.00195975
0.00195949
0.00195159
0.00194684
0.00191607
0.00189956
0.00187449
0.00186095
0.00185756
0.00184314
0.00184147
0.00182656
0.00182483
0.00180815
0.00180133
0.00177835
0.00176423
0.00172319
0.00170205
0.00166079
0.00163294
0.00160579
0.00160015
0.00159932
0.00160586
0.00161702
0.00163906
0.00166171
0.0016928
0.00173069
0.00177819
0.00180409
0.00187599
0.00190316
0.001975
0.00199504
0.0020771
0.00210255
0.00215893
0.00220336
0.00221466
0.00226199
0.00225185
0.00224397
0.00223482
0.00216566
0.00215688
0.0020583
0.00203665
0.00191088
0.00186886
0.00175248
0.00170567
0.00160589
0.00154891
0.00146355
0.0014205
0.00133337
0.00129598
0.00120385
0.00117026
0.00108294
0.00105196
0.000969501
0.000938543
0.000863228
0.000834839
0.000768879
0.000739203
0.000683546
0.000660685
0.000635046
0.000616743
0.000611911
0.000609909
0.00061955
0.000624788
0.00065323
0.000664379
0.000705284
0.000726519
0.00078124
0.000884573
0.000974831
0.00117036
0.00130194
0.00160226
0.00178892
0.0022375
0.00247391
0.00306343
0.00330338
0.00387344
0.00400814
0.00432758
0.00429537
0.0042707
0.00399475
0.0037951
0.0032209
0.00295681
0.00234309
0.00218093
0.00181587
0.00183503
0.00185852
0.00204715
0.00232412
0.00315949
0.00433685
0.00754644
0.01125
0.0208048
0.0296584
0.0485599
0.0712698
0.106975
0.148738
0.204353
0.260609
0.34317
0.49213
0.544132
0.567937
0.519381
0.487296
0.374594
0.344897
0.277124
0.229837
0.198003
0.186159
0.198153
0.200938
0.199366
0.197573
0.209911
0.238651
0.2722
0.276377
0.276245
0.264971
0.222009
0.179911
0.123329
0.103407
0.0669736
0.0584636
0.0394904
0.0349573
0.023834
0.0208136
0.0167192
0.0156177
0.0145708
0.0136461
0.0134532
0.0130343
0.0131278
0.0130001
0.0135176
0.0132803
0.0141066
0.0140561
0.0147069
0.0145935
0.0149757
0.014927
0.0147524
0.0148497
0.0145541
0.0144238
0.0137954
0.0137628
0.0133029
0.0132063
0.0132255
0.0131776
0.0127404
0.0124558
0.0136587
0.0157699
0.0154324
0.000179044
0.000176551
0.000176793
0.000175835
0.000173965
0.000169732
0.00016815
0.000165064
0.000164623
0.000163652
0.000163601
0.000164258
0.000164921
0.000167942
0.000169174
0.000172862
0.000174061
0.000176796
0.000177956
0.000178098
0.000178596
0.000178035
0.000177979
0.000177656
0.000177274
0.000177562
0.000177411
0.000178241
0.000178335
0.000178812
0.000178622
0.000178575
0.000177933
0.000177006
0.000174152
0.000172755
0.000169946
0.000169242
0.00016792
0.000168163
0.000168042
0.00016851
0.000168687
0.000169221
0.000170017
0.000171356
0.000173573
0.000178749
0.000182223
0.000190257
0.00019461
0.000202236
0.000208471
0.000211486
0.00022184
0.000223104
0.000231313
0.000229928
0.000235898
0.000233572
0.000235512
0.000233721
0.000232667
0.000229654
0.000229983
0.0002252
0.000226393
0.000220515
0.000220943
0.000214082
0.000213106
0.00020688
0.000205196
0.000199516
0.000197839
0.000193675
0.000192794
0.00019106
0.000191982
0.000192705
0.000195417
0.000197518
0.000199842
0.000203708
0.000206659
0.000213235
0.000217294
0.000226754
0.000232851
0.000243643
0.00025248
0.000264863
0.000273897
0.000284499
0.000293243
0.000300478
0.000302503
0.00030759
0.000313222
0.000320354
0.00033541
0.000351694
0.000388419
0.000421456
0.00047427
0.000532551
0.000609755
0.000661968
0.000777876
0.000822457
0.000891604
0.000934104
0.00100788
0.00102707
0.00105193
0.0010557
0.00107034
0.00110809
0.00115267
0.0012518
0.001362
0.00162951
0.00204035
0.00298879
0.00448879
0.00813182
0.0119739
0.0214326
0.0307709
0.0536542
0.0728156
0.119901
0.153177
0.230307
0.277681
0.371922
0.454839
0.538547
0.594371
0.584735
0.467195
0.374941
0.341753
0.29618
0.279601
0.21137
0.169865
0.161213
0.169393
0.197456
0.199656
0.193653
0.184764
0.183937
0.201231
0.236041
0.271845
0.272482
0.274874
0.247278
0.228285
0.162242
0.142506
0.0920006
0.0815749
0.0564521
0.0500129
0.0352571
0.0309673
0.0219727
0.0190837
0.0163591
0.0145055
0.0139965
0.0130125
0.0129434
0.0124338
0.0126203
0.012285
0.0123687
0.0121621
0.012157
0.0119962
0.0120061
0.0120175
0.0116404
0.0115296
0.0113412
0.0112426
0.0109927
0.0108096
0.0104221
0.0104977
0.0104525
0.01047
0.0103937
0.0103679
0.0108185
0.0138061
0.0144231
8.77338e-05
8.80576e-05
8.98851e-05
9.1254e-05
9.20736e-05
9.24197e-05
9.24341e-05
9.28239e-05
9.32325e-05
9.42782e-05
9.469e-05
9.56165e-05
9.59216e-05
9.6331e-05
9.62873e-05
9.64322e-05
9.64364e-05
9.62573e-05
9.60397e-05
9.51829e-05
9.4797e-05
9.41028e-05
9.37956e-05
9.32502e-05
9.29627e-05
9.26369e-05
9.25729e-05
9.25532e-05
9.27071e-05
9.30226e-05
9.40665e-05
9.4658e-05
9.61447e-05
9.6759e-05
9.79257e-05
9.80984e-05
9.82194e-05
9.78313e-05
9.73181e-05
9.67877e-05
9.671e-05
9.66513e-05
9.6952e-05
9.69371e-05
9.73174e-05
9.70344e-05
9.72215e-05
9.65341e-05
9.65914e-05
9.65028e-05
9.68252e-05
9.80781e-05
9.93067e-05
0.000100584
0.000102411
0.00010274
0.000103663
0.000103681
0.00010407
0.00010393
0.000104082
0.000103726
0.000103989
0.000103874
0.000104767
0.000105183
0.000107504
0.000108601
0.000112079
0.000113747
0.000118568
0.000121317
0.000127864
0.000131441
0.000139453
0.000145385
0.000153656
0.00016442
0.00017298
0.000190449
0.000201316
0.00022544
0.000240619
0.000274718
0.000296136
0.000344468
0.000372315
0.000434753
0.000464533
0.000531823
0.000557259
0.000612952
0.00062774
0.000660512
0.000661678
0.000665381
0.000657117
0.00065098
0.00062842
0.000612653
0.000575098
0.000549641
0.000524357
0.000505303
0.000501305
0.000499444
0.000505726
0.000506965
0.000519336
0.000525972
0.000557416
0.000572957
0.000630764
0.000660389
0.000746755
0.000803635
0.000950754
0.0010734
0.00134953
0.00179794
0.0024799
0.00383477
0.0058532
0.00883625
0.0147366
0.0242763
0.0348236
0.0571053
0.0788629
0.127388
0.165233
0.254706
0.305889
0.412808
0.449638
0.523511
0.557788
0.600575
0.521488
0.371165
0.285019
0.32667
0.24221
0.267444
0.236366
0.176688
0.14385
0.151645
0.174795
0.222486
0.217883
0.199107
0.184901
0.178767
0.1875
0.200324
0.256179
0.262142
0.283858
0.258257
0.260232
0.20969
0.194255
0.133929
0.11731
0.0781651
0.0692853
0.0492338
0.0437651
0.03216
0.0284719
0.022262
0.0190014
0.017567
0.0150029
0.0145265
0.0134241
0.01333
0.0128591
0.0124824
0.012353
0.0121069
0.0120025
0.0117916
0.0119677
0.0117509
0.0117933
0.0117039
0.0115411
0.0114328
0.0111393
0.0110073
0.0109658
0.010786
0.0107965
0.0107595
0.010968
0.0115781
0.0123261
0.0123835
8.80365e-05
8.90047e-05
9.19768e-05
9.39236e-05
9.4901e-05
9.52544e-05
9.57137e-05
9.61289e-05
9.6636e-05
9.67814e-05
9.73685e-05
9.77055e-05
9.84147e-05
9.99934e-05
0.000100918
0.000103919
0.00010494
0.000107578
0.000108568
0.000110854
0.000111459
0.000112707
0.000114148
0.000114786
0.000116756
0.00011773
0.00012062
0.000121858
0.00012471
0.000127159
0.000128465
0.000131478
0.000132608
0.000134468
0.000136915
0.000137941
0.000141519
0.000143751
0.000147914
0.000150875
0.000155579
0.00016361
0.000167147
0.000169888
0.000169736
0.000169187
0.000166171
0.000162137
0.000158964
0.000157351
0.000156861
0.000158395
0.000163362
0.000169865
0.000174657
0.000178561
0.000181997
0.000183305
0.000186219
0.000187492
0.000192941
0.000195987
0.000204907
0.0002118
0.000224583
0.000235924
0.000247242
0.000262253
0.000279767
0.000298564
0.000324067
0.000344785
0.000388002
0.000416469
0.000465122
0.000521768
0.000562934
0.000654574
0.000710082
0.000809341
0.000892422
0.00099662
0.00110341
0.00124363
0.00137765
0.00151958
0.00172766
0.00188064
0.00205073
0.0022232
0.00232919
0.00245026
0.0025047
0.00250778
0.0024811
0.00244183
0.00234763
0.00226301
0.00212095
0.00198987
0.0018137
0.00167951
0.00150852
0.00137956
0.0012584
0.00113642
0.00107806
0.00101303
0.000981199
0.000983822
0.00100157
0.00103891
0.00113683
0.00123918
0.00146211
0.00169891
0.00226111
0.0028306
0.00410345
0.00560432
0.00868389
0.0124239
0.0199095
0.0270543
0.0459523
0.0629542
0.098556
0.133476
0.192727
0.269457
0.349695
0.437777
0.472241
0.505795
0.522078
0.570394
0.532563
0.404579
0.240731
0.244789
0.2343
0.234531
0.178681
0.233093
0.219163
0.170526
0.13218
0.15148
0.183964
0.23672
0.218951
0.193417
0.184905
0.186418
0.192501
0.18882
0.222508
0.238469
0.279051
0.256643
0.271298
0.236034
0.232465
0.185185
0.169922
0.122453
0.109365
0.0775673
0.0692516
0.0501118
0.0460438
0.035799
0.0323832
0.0275139
0.0227668
0.0216659
0.01935
0.0178245
0.0175461
0.0167192
0.0167703
0.0160246
0.0165667
0.0162673
0.0173749
0.0170757
0.0181193
0.0183477
0.0185789
0.0185976
0.0181793
0.018759
0.0181708
0.0178399
0.0166645
0.016083
0.0155188
0.0153271
0.0141796
0.0136836
0.000237914
0.000241836
0.000251076
0.000257462
0.000263121
0.000273151
0.000280001
0.000289552
0.00030397
0.000310762
0.000325118
0.000333954
0.000355118
0.000366975
0.000392758
0.0004224
0.000434467
0.000468103
0.000480426
0.000506698
0.000515786
0.000528118
0.000547827
0.000556095
0.000580413
0.000596089
0.00063054
0.000660374
0.000680671
0.000726439
0.000738368
0.000765073
0.000772256
0.000783344
0.000804263
0.00080979
0.000838355
0.00085929
0.000910083
0.00093447
0.000970815
0.001022
0.00104564
0.00106317
0.00106338
0.00106091
0.00104608
0.00103632
0.00103166
0.00104031
0.00106104
0.00110484
0.00113079
0.00116734
0.00118098
0.00119743
0.00120199
0.00120601
0.00121423
0.00122838
0.00126848
0.00131134
0.00135341
0.00143524
0.0014779
0.00155755
0.00162525
0.00169069
0.00182427
0.00190812
0.00206415
0.00215433
0.00235577
0.00248616
0.0027554
0.00293099
0.00324019
0.00349377
0.0038627
0.00410361
0.00457329
0.00483869
0.00538068
0.00577228
0.00631052
0.00683292
0.00741274
0.00792901
0.00842829
0.00877167
0.00911593
0.00922677
0.00920238
0.00910696
0.00885636
0.0085516
0.00812801
0.00770157
0.00718502
0.00666992
0.00606788
0.0056147
0.00500125
0.00460705
0.00419162
0.00380952
0.00357608
0.0033832
0.0032661
0.0032777
0.00333443
0.00349913
0.00373257
0.00427111
0.00484343
0.00589215
0.00783816
0.0100206
0.0136154
0.019875
0.0261293
0.0414972
0.0559498
0.0771168
0.121375
0.156503
0.229155
0.305477
0.390542
0.450706
0.486259
0.507282
0.52294
0.519916
0.494601
0.395976
0.22263
0.179209
0.14992
0.145866
0.136832
0.132183
0.162382
0.185524
0.217926
0.17684
0.131681
0.142137
0.164021
0.244304
0.205235
0.186557
0.199012
0.214501
0.251035
0.205205
0.197294
0.210851
0.250913
0.246237
0.263187
0.241168
0.245602
0.223659
0.212954
0.188023
0.169992
0.141354
0.131604
0.0985332
0.092863
0.0751822
0.0714542
0.0583282
0.0518943
0.0485551
0.0413183
0.0374461
0.0377831
0.0371114
0.0384634
0.0380247
0.0420973
0.0420269
0.0471216
0.0469483
0.0524198
0.0537398
0.055429
0.0560099
0.0551282
0.0567182
0.053188
0.0523562
0.0468617
0.0451261
0.0408573
0.0342704
0.026314
0.0231494
0.00309228
0.00313286
0.00317083
0.00319744
0.00323023
0.00327924
0.00334226
0.00341793
0.0035879
0.00366935
0.00382619
0.00390396
0.00407735
0.00418966
0.00431662
0.00455656
0.00464791
0.00486526
0.00496314
0.00513005
0.00525125
0.0052942
0.00544803
0.00552089
0.00569076
0.00577136
0.00593886
0.00616021
0.00622798
0.00639485
0.00643964
0.00654006
0.00657126
0.00659209
0.00670476
0.00675581
0.00693563
0.0070863
0.00730213
0.00746836
0.00756533
0.00771531
0.0077477
0.00774691
0.00773832
0.00767524
0.00762726
0.00759354
0.00757671
0.00762757
0.00771197
0.00779963
0.00785895
0.00788458
0.00789944
0.00790236
0.00792003
0.00793514
0.00797525
0.00813031
0.00822591
0.008439
0.00856389
0.00878378
0.00893447
0.00916091
0.00937203
0.00959571
0.0100268
0.010281
0.0108007
0.0110994
0.0117595
0.0121612
0.0129535
0.0135619
0.014446
0.015171
0.0164141
0.0170834
0.0184115
0.0195633
0.0206699
0.0223879
0.0235599
0.0249763
0.0267316
0.0277496
0.0288885
0.0298308
0.0300312
0.0299497
0.0296268
0.0287726
0.0278008
0.0262984
0.0248114
0.0232035
0.0215569
0.0197549
0.0182045
0.0165396
0.0150149
0.0138191
0.0126494
0.0116899
0.0111183
0.010551
0.0104052
0.0104862
0.010758
0.0114377
0.0123728
0.0144841
0.0165658
0.0211131
0.0255606
0.0354848
0.0442411
0.0619434
0.0791056
0.117177
0.146185
0.208727
0.271215
0.357982
0.425234
0.469592
0.486588
0.51273
0.515084
0.499268
0.440222
0.30429
0.181103
0.129332
0.10873