/*--------------------------------*- C++ -*----------------------------------*\
| =========                 |                                                 |
| \\      /  F ield         | OpenFOAM: The Open Source CFD Toolbox           |
|  \\    /   O peration     | Version:  2.4.0                                 |
|   \\  /    A nd           | Web:      www.OpenFOAM.org                      |
|    \\/     M anipulation  |                                                 |
\*---------------------------------------------------------------------------*/
FoamFile
{
    version     2.0;
    format      ascii;
    class       volScalarField;
    location    "0.92";
    object      p;
}
// * * * * * * * * * * * * * * * * * * * * * * * * * * * * * * * * * * * * * //

dimensions      [0 2 -2 0 0 0 0];

internalField   nonuniform List<scalar> 
8800
(
61.0769
48.7235
41.3293
37.7994
35.907
34.5039
33.309
32.2026
31.1782
30.2084
29.258
28.3442
27.445
26.5341
25.713
24.9128
24.1498
23.3838
22.9112
22.2412
57.9633
48.3693
41.4992
37.9138
35.9666
34.5289
33.3165
32.2035
31.1758
30.2064
29.2549
28.3419
27.4441
26.5307
25.7109
24.9107
24.1527
23.3701
22.9098
22.1642
55.9972
48.4467
42.1027
38.2894
36.134
34.6075
33.3624
32.2357
31.1997
30.2242
29.2654
28.3474
27.4465
26.5272
25.7096
24.9019
24.1561
23.3488
22.986
22.2128
54.4599
48.5075
42.6925
38.7145
36.3177
34.694
33.4244
32.291
31.249
30.2628
29.2933
28.3665
27.4577
26.5315
25.7116
24.8925
24.1483
23.3363
23.0669
22.4412
53.211
48.4806
43.1703
39.1223
36.4883
34.7609
33.4701
32.3464
31.3051
30.3154
29.3323
28.3945
27.4704
26.5447
25.7102
24.8891
24.1249
23.3346
22.9884
22.7828
52.2242
48.3849
43.5402
39.4716
36.641
34.8054
33.4984
32.3906
31.3547
30.3631
29.3729
28.4226
27.4857
26.5566
25.7095
24.8819
24.1044
23.3433
22.9952
23.3216
51.4685
48.2701
43.8108
39.7541
36.7827
34.8332
33.5054
32.423
31.3951
30.4056
29.41
28.4438
27.4981
26.5667
25.7085
24.8721
24.1013
23.3638
23.0772
23.6867
50.9164
48.1707
43.9947
39.9677
36.9075
34.8515
33.504
32.4447
31.4256
30.4371
29.4376
28.4631
27.5093
26.5719
25.7086
24.8705
24.1019
23.4038
23.1514
23.9359
50.5606
48.0945
44.11
40.1112
36.9976
34.8634
33.4962
32.4571
31.4472
30.4597
29.4602
28.4729
27.5142
26.58
25.7101
24.8713
24.1147
23.4449
23.2046
24.0942
50.3862
48.0528
44.1656
40.1846
37.0434
34.8677
33.4933
32.4618
31.4586
30.4714
29.4723
28.4805
27.5198
26.5851
25.7155
24.8815
24.1246
23.4808
23.2488
24.1757
50.3859
48.0526
44.165
40.1846
37.0449
34.8674
33.4916
32.4704
31.4609
30.4718
29.4772
28.481
27.5212
26.5967
25.7227
24.8906
24.1459
23.5114
23.2783
24.2019
50.5623
48.0922
44.1087
40.1131
36.9997
34.8617
33.4959
32.4662
31.4512
30.4598
29.4718
28.4775
27.5217
26.6062
25.7336
24.9095
24.1622
23.5373
23.288
24.1765
50.918
48.1681
43.9925
39.9684
36.9138
34.8506
33.4999
32.4561
31.4315
30.4376
29.4597
28.4677
27.5183
26.6181
25.7478
24.9276
24.1873
23.5687
23.2691
24.1017
51.4707
48.2671
43.8077
39.7566
36.7851
34.832
33.5023
32.4379
31.4026
30.4041
29.4386
28.4532
27.5114
26.6298
25.7625
24.9534
24.2242
23.597
23.2366
23.9631
52.227
48.3814
43.5373
39.4721
36.6478
34.8032
33.4937
32.4074
31.3618
30.3619
29.413
28.4309
27.5021
26.638
25.778
24.9793
24.2638
23.6398
23.2228
23.7427
53.2136
48.4765
43.168
39.1247
36.4932
34.7582
33.4673
32.366
31.3144
30.3083
29.3823
28.4055
27.4886
26.6423
25.7952
25.0007
24.3162
23.6914
23.2367
23.4556
54.4618
48.5049
42.6904
38.7153
36.3251
34.6937
33.4179
32.3125
31.2591
30.2552
29.3512
28.3803
27.4771
26.642
25.8094
25.0186
24.3627
23.7393
23.2874
23.1644
56.0002
48.4431
42.1006
38.2908
36.1413
34.6064
33.3568
32.2578
31.2129
30.2154
29.3252
28.3643
27.4704
26.6408
25.8209
25.0326
24.3951
23.7758
23.3409
23.0107
57.9663
48.3659
41.4972
37.9144
35.9745
34.529
33.3112
32.2249
31.1894
30.1991
29.3141
28.3608
27.4717
26.643
25.8281
25.0438
24.4093
23.7962
23.3356
22.9301
61.0808
48.72
41.3274
37.8004
35.9147
34.5034
33.3046
32.2234
31.191
30.2038
29.3149
28.363
27.4764
26.6441
25.8311
25.0488
24.4117
23.801
23.3365
23.049
22.3713
22.3954
22.3744
22.3528
22.3618
22.4091
22.4695
22.5262
22.562
22.5775
22.5842
22.5809
22.5823
22.5779
22.5621
22.515
22.4069
22.2314
21.9655
21.6356
21.2659
20.8964
20.5861
20.3726
20.2593
20.2152
20.263
20.3724
20.5129
20.6395
20.7555
20.8523
20.9388
21.0061
21.0781
21.1466
21.2311
21.315
21.4252
21.5506
21.68
21.7991
21.9027
22.0124
22.0948
22.1801
22.2438
22.3003
22.3178
22.3104
22.2937
22.2255
22.1525
22.026
21.8315
21.5648
21.1145
20.5753
19.8422
18.9418
17.8992
16.722
15.5679
14.4411
13.5794
12.7374
12.4552
12.1432
12.345
12.5154
13.0141
13.5184
14.1067
14.807
15.4367
16.1838
16.6731
17.3335
17.5976
17.8472
17.9786
17.9488
17.8995
17.7311
17.8469
17.5664
17.5839
17.3931
17.6347
18.0147
18.5476
19.2496
19.9558
20.6456
21.2308
21.9524
22.2194
22.8171
22.7467
22.6138
22.4537
21.6834
20.9342
19.938
18.7796
17.5581
15.9515
14.5604
13.1541
11.545
9.99296
8.72276
7.41327
6.11595
5.03956
4.29632
3.52586
3.09509
2.6807
2.66467
2.81656
3.07512
3.51412
4.15695
4.85053
5.75376
6.83835
7.95068
9.20613
10.4819
11.7145
13.2107
14.5716
15.8654
17.1547
18.4179
19.5112
20.5703
21.5002
22.2887
22.9275
23.3052
23.4977
23.494
23.1567
22.6646
21.9422
21.1886
20.3445
19.476
18.7381
18.3213
17.9778
17.4951
17.6797
18.2455
18.9186
19.722
20.4268
21.2219
22.1349
22.836
23.2985
23.6635
23.9108
23.7291
23.4621
22.9721
22.246
21.4445
20.5162
19.5621
18.3551
17.2184
16.026
14.574
13.1201
11.4432
10.0042
7.83731
6.50799
4.25728
3.20485
1.36736
0.572255
-0.243631
-0.608757
-0.487003
-0.200775
0.938683
2.28212
4.54188
6.93431
10.7183
14.5416
20.2227
26.636
33.9444
41.2389
43.4371
22.1893
22.2386
22.3048
22.3477
22.3521
22.3721
22.4048
22.4618
22.519
22.5584
22.5855
22.58
22.5736
22.5509
22.5099
22.4504
22.329
22.1608
21.9165
21.6196
21.2935
20.9578
20.671
20.4478
20.3342
20.2824
20.3064
20.3846
20.4947
20.6153
20.7205
20.8247
20.9234
21.0042
21.0891
21.1605
21.2596
21.3445
21.4659
21.5737
21.7095
21.8257
21.9277
22.0311
22.1019
22.1856
22.2199
22.2767
22.2646
22.261
22.205
22.124
22.013
21.857
21.6187
21.3329
20.8514
20.3292
19.5938
18.7447
17.8288
16.6849
15.7445
14.5963
13.9179
13.0758
12.8136
12.5783
12.6478
12.9357
13.2394
13.8388
14.2783
14.9472
15.4654
16.1451
16.5485
17.0842
17.3248
17.5671
17.7395
17.7092
17.6349
17.4445
17.7473
17.5361
17.5935
17.5304
17.6302
18.0878
18.5468
19.2689
19.9138
20.7729
21.2058
21.9305
22.1965
22.5434
22.7113
22.364
22.1734
21.5807
20.7599
19.8632
18.7786
17.5936
16.1565
14.7517
13.3925
11.9847
10.4978
9.26709
8.0618
6.94051
5.84105
5.10518
4.43391
4.01231
3.71437
3.57353
3.78355
4.0724
4.59264
5.22081
6.05383
6.93728
8.05004
9.18582
10.4225
11.5843
12.8138
14.0779
15.3354
16.4897
17.5535
18.6832
19.7
20.5647
21.3668
22.0046
22.49
22.7012
22.6148
22.3057
21.6532
20.6299
19.4392
18.1684
16.8407
15.5352
14.3239
13.4751
12.5021
12.0748
12.2194
12.938
13.8881
14.9331
16.103
17.3532
18.6869
19.6994
20.6195
21.3433
21.9671
22.2662
22.2185
22.202
21.7966
21.3141
20.5524
19.7653
18.8241
17.6039
16.674
15.1074
14.0372
12.2489
11.0033
8.98121
7.6834
5.92301
4.51197
3.27563
2.07776
1.66274
1.05281
1.49619
1.65341
2.89995
4.02608
6.42265
8.66902
12.2475
15.8538
20.9478
25.2363
30.4762
33.7552
35.255
22.093
22.2313
22.4102
22.4708
22.401
22.3404
22.3122
22.3507
22.4316
22.4987
22.5641
22.5614
22.5575
22.5147
22.4484
22.3782
22.2335
22.087
21.853
21.6011
21.3156
21.0216
20.7681
20.5527
20.4309
20.3592
20.3718
20.4163
20.5088
20.607
20.7222
20.8136
20.9314
21.0043
21.1076
21.1729
21.2806
21.368
21.4819
21.5899
21.7033
21.8281
21.9077
22.0172
22.0575
22.1387
22.1461
22.1991
22.1557
22.1629
22.0604
21.9838
21.8195
21.6493
21.3829
21.0634
20.6144
20.057
19.4026
18.5707
17.7793
16.7339
15.9307
14.8894
14.2893
13.5607
13.2536
13.0945
13.0609
13.3635
13.5691
14.1462
14.4771
15.1285
15.4794
16.1145
16.4438
16.8512
17.147
17.2871
17.5272
17.4549
17.4604
17.3117
17.6491
17.6281
17.5861
17.5958
17.6746
18.2178
18.5581
19.293
19.864
20.6471
21.1592
21.6483
22.008
22.1648
22.3874
22.1715
21.8425
21.4133
20.67
19.7652
18.7592
17.6817
16.3224
15.0277
13.7115
12.4412
11.0982
9.85702
8.74112
7.74657
6.83357
6.0229
5.513
5.06669
4.88623
4.80577
5.02141
5.45171
6.021
6.67431
7.55104
8.48796
9.51419
10.5823
11.7105
12.7745
13.9181
14.8885
15.983
17.0507
17.9482
18.965
19.8763
20.6704
21.3959
21.9127
22.2498
22.2729
21.9765
21.3019
20.3389
18.8375
17.1516
15.2887
13.4872
11.6915
10.0114
8.68376
7.51099
6.67648
6.59157
7.22864
8.4008
9.77693
11.4142
13.3209
15.1848
16.7153
18.0771
19.3422
20.1325
20.8855
21.276
21.6998
21.5463
21.1964
21.0049
20.2797
19.5291
18.2973
17.6182
16.2451
15.2434
13.5532
12.3446
10.7055
9.27677
7.91155
6.3431
5.41189
4.245
3.85878
3.32577
3.81665
4.17629
5.20572
6.47175
8.71296
10.8288
13.9331
17.2143
21.186
24.8623
28.5374
31.0371
31.8574
22.2453
22.3587
22.4478
22.3509
22.1538
22.0682
22.0674
22.1657
22.297
22.4085
22.5111
22.5295
22.5303
22.4827
22.3883
22.3081
22.1432
22.0038
21.7952
21.5704
21.3418
21.0749
20.879
20.6592
20.5528
20.4559
20.4575
20.4804
20.5493
20.6329
20.7368
20.8222
20.9377
21.0074
21.1143
21.1845
21.2821
21.3772
21.4673
21.5863
21.659
21.8022
21.838
21.9693
21.9612
22.0503
22.0278
22.0682
22.0225
21.9928
21.9078
21.776
21.6271
21.4046
21.1353
20.8111
20.3579
19.8487
19.2186
18.4897
17.7574
16.8593
16.1706
15.2444
14.7421
14.0914
13.799
13.6343
13.534
13.8692
13.9256
14.4951
14.702
15.2854
15.5591
16.0504
16.4106
16.656
17.0343
17.0623
17.3387
17.2755
17.3665
17.3498
17.5423
17.7183
17.5393
17.6991
17.7963
18.3015
18.6477
19.1654
19.7136
20.2977
20.8754
21.2975
21.6398
21.7905
21.915
21.8399
21.4717
21.0678
20.5122
19.69
18.7593
17.8154
16.645
15.386
14.2403
13.0075
11.8274
10.6976
9.68521
8.77918
8.02408
7.30618
6.83249
6.49837
6.4071
6.51155
6.73213
7.19157
7.79854
8.4961
9.29563
10.1484
11.0922
12.049
12.9409
13.916
14.8637
15.7044
16.6509
17.5993
18.45
19.335
20.1488
20.946
21.6344
22.0481
22.261
22.1664
21.707
20.7408
19.4629
17.6571
15.4549
13.0673
10.8694
8.67672
6.64485
4.70129
3.02412
1.71403
1.36938
1.67522
2.78156
4.4312
6.58445
9.16951
11.455
13.7839
15.7148
17.3657
18.5818
19.7532
20.6705
21.0936
21.5446
21.4173
21.5805
20.7958
20.3875
19.574
18.9285
17.6267
16.6219
15.2997
14.1693
12.7639
11.2019
10.1542
8.74638
7.902
6.91985
6.57479
6.10243
6.65359
6.88641
7.85257
9.03546
10.9838
12.8881
15.3599
18.2558
21.1568
24.1228
26.4066
28.1505
28.1374
23.7516
23.558
22.6542
21.9648
21.5355
21.4803
21.6012
21.8612
22.108
22.2819
22.4359
22.4718
22.4943
22.4361
22.3389
22.2435
22.071
21.9355
21.7417
21.5431
21.3603
21.1113
20.9767
20.7594
20.6729
20.5729
20.5445
20.5751
20.5954
20.6919
20.7552
20.8479
20.9454
21.0114
21.1171
21.1849
21.2758
21.3629
21.4354
21.5456
21.6003
21.7152
21.7498
21.8522
21.8495
21.9169
21.8919
21.9009
21.8641
21.7908
21.7261
21.5623
21.4076
21.1791
20.8857
20.5861
20.1248
19.6848
19.0862
18.4605
17.8154
17.0173
16.4852
15.6245
15.2576
14.604
14.362
14.2489
14.0305
14.4175
14.3097
14.8699
14.9694
15.4399
15.7381
15.9867
16.4621
16.5236
16.9339
16.9433
17.1413
17.2331
17.2695
17.4358
17.4673
17.6654
17.6207
17.7933
17.9775
18.3016
18.6416
18.9649
19.461
19.9498
20.4346
20.8927
21.1502
21.2896
21.3894
21.3221
21.0844
20.688
20.2512
19.6032
18.7989
17.9306
17.0145
15.9072
14.8739
13.8308
12.8219
11.8284
10.9434
10.1354
9.51152
8.953
8.58194
8.36328
8.34098
8.49614
8.75892
9.20017
9.71971
10.4093
11.0861
11.7966
12.5521
13.4073
14.1403
14.903
15.7469
16.5301
17.3319
18.1858
18.9998
19.8
20.5638
21.3265
22.0076
22.4277
22.5633
22.4339
21.8921
20.763
19.2457
17.1758
14.4879
11.7949
9.27546
6.66849
4.34879
1.87684
-0.426505
-2.2416
-3.09347
-3.28774
-2.42887
-0.655894
1.85388
4.93905
7.85217
10.8742
13.3469
15.3879
17.4802
18.7608
20.0711
20.6675
21.7008
21.7877
21.9876
21.5596
21.4714
20.9012
20.1701
19.3109
18.4392
17.2298
15.9755
14.8383
13.462
12.6706
11.4301
10.6128
9.78439
9.46941
9.09911
9.41945
9.75943
10.4738
11.5624
12.7117
14.4757
16.3168
18.8376
20.9775
23.1874
24.6994
25.8639
25.7938
24.7914
24.4271
22.8971
21.7353
21.0551
20.9352
21.1273
21.5147
21.8962
22.144
22.3548
22.4189
22.4683
22.4061
22.3193
22.1901
22.0331
21.8834
21.6978
21.5333
21.3494
21.1585
21.037
20.8601
20.7784
20.6899
20.6488
20.6635
20.6725
20.7441
20.796
20.877
20.9553
21.0247
21.106
21.1841
21.2524
21.34
21.3796
21.4928
21.525
21.6177
21.6589
21.7195
21.7278
21.7679
21.7471
21.7137
21.7038
21.5739
21.5304
21.362
21.1678
20.9846
20.6577
20.3857
19.9561
19.545
19.0387
18.4535
17.9493
17.2104
16.8043
16.0697
15.6786
15.2803
14.8828
14.927
14.5967
14.8968
14.825
15.1447
15.3534
15.5624
15.9592
16.017
16.4598
16.5369
16.7743
16.9285
16.992
17.2134
17.2486
17.4187
17.4569
17.5706
17.7543
17.866
18.0449
18.2323
18.5059
18.7928
19.1734
19.6058
19.9742
20.4186
20.6631
20.7893
20.9104
20.8273
20.6797
20.3781
19.9956
19.5069
18.8602
18.1182
17.4047
16.5353
15.6448
14.8288
14.0163
13.1769
12.4035
11.7175
11.208
10.8112
10.537
10.379
10.3784
10.5322
10.7892
11.1825
11.6233
12.1224
12.7187
13.3485
13.8882
14.5689
15.272
15.9313
16.5952
17.3512
18.0443
18.7406
19.5396
20.2769
20.9575
21.7687
22.4027
22.8909
23.1316
22.9608
22.4168
21.3034
19.6163
17.2343
14.1238
11.2269
8.46172
5.64539
3.01252
-0.117222
-2.93453
-5.01687
-6.36438
-7.15757
-6.83021
-5.20187
-2.40723
0.998565
4.51596
7.86606
11.1783
13.7806
16.3413
17.8528
19.6386
20.739
21.7868
22.1028
22.4704
22.539
22.4455
22.0224
21.5229
20.9673
19.9934
19.0331
18.0742
17.0872
15.8182
14.9865
14.0274
13.3622
12.7034
12.2423
11.9028
11.8426
12.0462
12.5731
13.6691
14.602
15.8922
17.279
19.0873
20.5772
22.1285
23.3552
24.1701
24.1961
25.37
24.986
23.1747
21.7172
20.8424
20.5846
20.7745
21.2136
21.6982
22.0126
22.2784
22.3794
22.4461
22.4144
22.3088
22.1818
21.9984
21.8537
21.6677
21.5327
21.3476
21.1957
21.0881
20.9376
20.8664
20.7932
20.7381
20.7517
20.7415
20.7918
20.8364
20.8961
20.971
21.0251
21.0981
21.1651
21.2301
21.2973
21.3283
21.4212
21.453
21.5087
21.5669
21.5939
21.5966
21.6374
21.585
21.5545
21.5298
21.3919
21.3352
21.1841
20.9565
20.8013
20.4896
20.1982
19.8563
19.4291
19.0361
18.4904
18.0883
17.4422
17.0848
16.5195
16.0629
15.856
15.4086
15.4359
15.1812
15.2909
15.3431
15.4182
15.7088
15.738
16.1167
16.1393
16.4202
16.6208
16.6635
16.9326
16.9452
17.1509
17.2576
17.3141
17.4393
17.5408
17.7875
17.8491
17.9553
18.1095
18.3381
18.6239
18.9111
19.2495
19.5751
19.9757
20.2386
20.3748
20.4879
20.439
20.3163
20.1461
19.8482
19.4596
19.0009
18.4159
17.8222
17.1781
16.4762
15.8228
15.1462
14.4348
13.8233
13.3114
12.8973
12.5883
12.4015
12.2959
12.3247
12.4344
12.6345
12.9302
13.3015
13.7035
14.1599
14.7159
15.1941
15.6944
16.3911
16.9766
17.4806
18.1411
18.7157
19.3121
19.9881
20.6719
21.3423
22.1273
22.7626
23.3605
23.6833
23.6089
23.1853
22.0046
20.2269
17.4915
14.0081
11.1016
8.1451
5.24401
2.21655
-1.54377
-4.75501
-7.21591
-9.12864
-10.2396
-10.1971
-8.81156
-5.91559
-2.53511
1.55835
5.29589
9.28634
12.2916
15.1671
17.2972
19.36
20.6754
21.8006
22.4874
22.9398
23.2549
23.1998
23.1374
22.9021
22.349
21.5098
20.8771
20.1168
19.2764
18.3114
17.52
16.6355
15.8833
15.139
14.5897
14.3217
14.0419
14.1418
14.1765
14.6849
15.625
16.7117
18.0137
19.341
20.4485
21.5804
22.5686
23.1117
23.013
25.7286
25.34
23.4195
21.7921
20.7934
20.3883
20.5258
20.9631
21.5107
21.8892
22.195
22.3419
22.4215
22.413
22.3007
22.178
21.9742
21.832
21.6455
21.5203
21.3524
21.2078
21.1253
20.9823
20.9354
20.8656
20.8131
20.8292
20.7998
20.8496
20.8697
20.9252
20.9878
21.021
21.094
21.1355
21.2062
21.2511
21.2764
21.3556
21.3794
21.4075
21.4792
21.4657
21.4876
21.5067
21.4452
21.4205
21.3622
21.2513
21.1541
21.0336
20.7802
20.6449
20.364
20.0492
19.7882
19.3605
19.0385
18.5738
18.1862
17.6998
17.2978
16.92
16.4345
16.3142
15.925
15.8255
15.7181
15.6569
15.7698
15.7322
15.9683
15.9701
16.236
16.2894
16.4404
16.6788
16.6587
16.9027
16.9472
17.0666
17.207
17.2292
17.3896
17.5365
17.6769
17.745
17.8086
17.9715
18.1983
18.4038
18.6622
18.9108
19.2232
19.5871
19.8525
20.0047
20.1419
20.162
20.051
19.9942
19.7969
19.4986
19.1887
18.766
18.2807
17.7762
17.2726
16.7337
16.1614
15.6303
15.1903
14.8119
14.4558
14.2373
14.1111
14.0236
14.0305
14.1219
14.2882
14.4869
14.8235
15.1526
15.5571
16.0367
16.4718
16.9179
17.4406
17.9104
18.3813
18.8589
19.3254
19.8039
20.3112
20.9608
21.6688
22.3359
23.0103
23.6924
23.9711
24.0634
23.6857
22.4004
20.7535
17.4125
13.8856
11.1352
8.05887
5.28508
1.7227
-2.62294
-6.11627
-8.81884
-10.6669
-12.4747
-12.6255
-11.6142
-8.70614
-5.43181
-0.840336
3.07982
7.47995
11.0243
14.3816
16.9029
19.0068
20.5827
21.9858
22.8786
23.3703
24.0533
24.1938
24.4143
24.2167
23.7865
23.3826
22.855
22.1945
21.4536
20.7024
19.9324
18.9926
18.2866
17.5604
16.9004
16.3569
15.846
15.9224
15.9969
16.3047
16.8238
17.5273
18.2691
19.3472
20.2346
21.1217
21.9688
22.3828
22.2851
25.9679
25.5681
23.593
21.8696
20.8018
20.2994
20.3736
20.7923
21.3504
21.7938
22.114
22.3051
22.3916
22.3945
22.2858
22.1687
21.9591
21.8064
21.6401
21.4997
21.377
21.2216
21.1572
21.0294
20.9879
20.9293
20.8773
20.8907
20.8497
20.8981
20.8942
20.9484
20.9957
21.0171
21.0833
21.1066
21.1758
21.2076
21.2208
21.2989
21.2976
21.3324
21.3822
21.3681
21.3792
21.3852
21.3345
21.2812
21.2356
21.1072
21.0238
20.8823
20.6566
20.5079
20.266
19.9533
19.7201
19.3568
19.0282
18.6841
18.2752
17.9268
17.521
17.2333
16.7989
16.6585
16.3677
16.1815
16.1553
16.02
16.115
16.0559
16.1844
16.2267
16.3494
16.4485
16.5041
16.7147
16.7145
16.8519
16.9482
16.9859
17.13
17.1847
17.3189
17.4725
17.5131
17.5932
17.6948
17.8316
17.9953
18.1662
18.3943
18.6136
18.9008
19.2263
19.4752
19.6564
19.8602
19.9301
19.8866
19.8837
19.7986
19.5934
19.3972
19.1337
18.7327
18.3577
17.9914
17.5579
17.1717
16.7957
16.4477
16.1744
15.8978
15.6978
15.6381
15.5665
15.5468
15.6772
15.807
15.9877
16.288
16.5723
16.9756
17.3537
17.6991
18.0704
18.4235
18.8206
19.18
19.493
19.8422
20.1241
20.6115
21.0907
21.7521
22.3744
22.9574
23.7114
23.8582
23.853
23.4192
22.2749
20.8945
17.0095
13.7299
11.093
8.1127
5.5631
1.2949
-3.34975
-7.00927
-9.54253
-11.6259
-14.0346
-14.2665
-13.7085
-10.6503
-7.52752
-2.77032
1.25999
5.94655
9.81213
13.5106
16.3458
18.9484
20.747
22.2347
23.3815
24.2111
25.3304
25.4822
25.9588
25.8047
25.6023
25.5246
24.866
24.4535
23.6639
22.9115
22.1787
21.2008
20.3832
19.554
18.8261
18.2003
17.7714
17.5555
17.1804
17.4081
17.8391
18.3411
18.9485
19.593
20.2381
20.8192
21.4059
21.6688
21.5468
26.1225
25.7156
23.7029
21.9244
20.8114
20.2714
20.3025
20.7006
21.2454
21.7305
22.0636
22.2822
22.3699
22.376
22.2652
22.1614
21.9492
21.7838
21.6361
21.4761
21.3976
21.2301
21.1738
21.0697
21.0164
20.9901
20.9238
20.9452
20.8983
20.9333
20.9325
20.959
21.0162
21.0119
21.0744
21.086
21.139
21.1721
21.1652
21.2388
21.229
21.244
21.2931
21.265
21.2756
21.2797
21.2147
21.1808
21.1061
21.001
20.9062
20.7563
20.566
20.3892
20.2052
19.8747
19.6861
19.3567
19.0453
18.7708
18.3853
18.1011
17.7491
17.4852
17.1349
16.9498
16.7428
16.5227
16.5001
16.3768
16.3962
16.3691
16.3968
16.4722
16.4806
16.6046
16.5876
16.7536
16.7825
16.8076
16.9496
16.9376
17.0776
17.1429
17.2327
17.331
17.3664
17.4544
17.5517
17.6317
17.7326
17.9198
18.0805
18.3261
18.5764
18.8828
19.1349
19.3435
19.6038
19.7399
19.7839
19.8148
19.8312
19.7148
19.6142
19.4898
19.2121
18.9315
18.6906
18.4062
18.1482
17.8891
17.6093
17.4064
17.195
17.0613
17.0263
16.9606
17.0081
17.1238
17.2575
17.4643
17.7068
17.9804
18.3091
18.618
18.8329
19.1345
19.4148
19.6745
19.9282
20.032
20.2971
20.3848
20.667
21.1503
21.5378
22.1902
22.793
23.0326
23.0664
23.2629
22.7223
21.3389
19.8952
16.3768
13.3887
10.8899
8.24602
5.6452
0.636338
-4.19286
-7.57748
-9.25692
-11.9319
-14.6026
-15.0933
-14.7803
-12.0139
-8.88584
-4.23842
-0.239384
4.83985
8.69757
12.8529
16.0258
19.1358
21.1105
22.9029
24.3692
25.5306
26.7835
26.9877
27.834
27.4987
27.6009
27.5425
26.815
26.7437
25.7525
24.9807
24.1546
23.1947
22.2924
21.5122
20.5941
19.6593
19.2301
18.8826
18.5185
18.6118
18.6337
18.7234
19.2716
19.6683
20.1061
20.6683
21.1138
21.1519
21.0918
26.1744
25.7761
23.7495
21.9515
20.8256
20.2864
20.3195
20.6989
21.2221
21.7043
22.0375
22.2567
22.3415
22.3344
22.2299
22.128
21.936
21.7607
21.6255
21.4681
21.4068
21.2589
21.1885
21.1184
21.0482
21.0432
20.9728
20.985
20.9504
20.9523
20.969
20.9578
21.0245
21.0022
21.051
21.07
21.0893
21.1421
21.1068
21.1861
21.1656
21.1658
21.2148
21.1697
21.1866
21.1778
21.1219
21.0705
20.997
20.905
20.802
20.659
20.4794
20.3179
20.1346
19.8546
19.6447
19.395
19.0717
18.8446
18.5235
18.2228
17.9824
17.6847
17.4268
17.226
17.0547
16.8435
16.8029
16.6962
16.6658
16.6505
16.6232
16.6801
16.6609
16.7192
16.7206
16.7966
16.8347
16.825
16.9231
16.9476
17.0183
17.0801
17.1086
17.1737
17.2236
17.2701
17.3312
17.3688
17.4588
17.6285
17.7822
18.0091
18.2576
18.5383
18.8274
19.076
19.3451
19.5896
19.6985
19.7747
19.8834
19.8678
19.851
19.8501
19.7009
19.5333
19.4064
19.2565
19.0704
18.9039
18.711
18.5293
18.4119
18.3558
18.3129
18.3036
18.385
18.5194
18.6859
18.8413
19.0105
19.2998
19.5454
19.7636
19.9197
20.1593
20.3523
20.4067
20.6335
20.579
20.4962
20.6418
20.602
20.9633
21.4725
21.7063
21.9693
22.2602
22.2284
21.5609
21.0827
19.9765
18.4202
15.8846
13.2423
10.8338
8.40239
5.32979
-0.173723
-5.04752
-7.85586
-8.2679
-11.7505
-13.962
-14.7469
-14.4882
-12.4553
-9.37108
-5.25642
-1.03093
4.14932
8.24544
12.755
16.2481
19.6921
21.7448
24.085
25.4744
27.1062
28.19
28.6048
29.5699
28.9595
29.7047
29.1803
28.7695
28.7453
27.4903
26.8695
26.0493
25.0853
23.9236
23.2204
22.0406
21.3619
20.901
20.182
19.6102
19.5578
19.5009
19.2908
19.794
19.8175
19.9959
20.4374
20.6198
20.7074
20.7507
26.1536
25.7589
23.7364
21.9579
20.841
20.3405
20.394
20.7702
21.2657
21.7204
22.0362
22.2397
22.3166
22.2863
22.1881
22.0823
21.9154
21.7419
21.6128
21.4655
21.4095
21.288
21.1989
21.1633
21.0706
21.0864
21.0108
21.0165
20.9946
20.9672
20.9994
20.9636
21.0265
21.0009
21.0278
21.0524
21.052
21.0939
21.0686
21.1148
21.1118
21.0891
21.133
21.0891
21.0905
21.0883
21.019
20.9834
20.9031
20.8164
20.7245
20.5675
20.4256
20.2544
20.0904
19.847
19.6184
19.4427
19.1042
18.9344
18.6416
18.3609
18.1654
17.8899
17.667
17.488
17.3227
17.1375
17.0784
16.9781
16.9283
16.9002
16.8533
16.8767
16.8516
16.8471
16.871
16.8622
16.9045
16.8849
16.9093
16.9734
16.9558
16.9821
16.9719
17.0163
17.0187
17.0278
17.0598
17.0726
17.179
17.3005
17.4622
17.6661
17.9471
18.2108
18.5267
18.8188
19.1236
19.4415
19.6234
19.7867
19.9653
20.0641
20.133
20.2303
20.2065
20.1418
20.1321
20.072
19.9351
19.8557
19.7562
19.6099
19.5908
19.5824
19.5668
19.6411
19.7114
19.809
19.9767
20.1289
20.2461
20.5249
20.7075
20.7827
20.9607
21.0585
21.0838
21.0231
21.0419
21.0542
20.6973
20.5631
20.7615
20.8593
21.0654
21.3944
21.6695
21.4276
21.0329
20.345
19.2702
18.7029
17.3227
15.4592
13.5987
11.2446
8.82283
5.46307
-0.316908
-4.97935
-7.12067
-6.75955
-11.3011
-13.1532
-13.8235
-12.5566
-10.898
-8.60894
-5.15167
-0.767326
4.2897
8.57176
13.1253
17.2898
20.3243
22.8285
25.2107
26.504
28.7134
29.0762
30.3783
30.811
30.3447
31.6691
30.4695
30.8274
30.4811
29.3083
28.7465
27.802
26.6732
25.5984
25.0954
23.3949
22.8858
21.9892
21.2409
20.7749
20.5699
20.1322
19.6085
20.1516
19.8164
20.0757
20.3477
20.1956
20.4605
20.5841
26.0405
25.6342
23.6487
21.9346
20.8801
20.4554
20.5555
20.9302
21.3792
21.786
22.0516
22.2256
22.2771
22.2228
22.1271
22.0165
21.8793
21.7154
21.6001
21.4642
21.4198
21.318
21.2294
21.2031
21.1137
21.1193
21.0608
21.0416
21.0327
20.9859
21.009
20.98
21.0037
21.0039
20.9925
21.0306
21.0115
21.0439
21.0294
21.0467
21.0599
21.0205
21.0593
21.0182
21.0089
21.0039
20.9396
20.8964
20.8194
20.7432
20.648
20.5054
20.3685
20.2175
20.0565
19.8421
19.6352
19.4602
19.1949
18.9871
18.7798
18.4933
18.3274
18.0976
17.8744
17.7385
17.5574
17.4142
17.3205
17.2382
17.1684
17.1338
17.0779
17.0725
17.0414
17.0151
17.01
16.9838
16.9905
16.957
16.942
16.9584
16.9063
16.8608
16.8589
16.813
16.7848
16.7626
16.7526
16.7726
16.8461
16.9607
17.075
17.3098
17.5805
17.8562
18.2138
18.5562
18.9161
19.2747
19.5773
19.8321
20.0743
20.2974
20.4654
20.6351
20.7262
20.7633
20.8282
20.8247
20.8065
20.8019
20.7696
20.7108
20.7009
20.7388
20.7711
20.8557
20.948
21.0257
21.127
21.2535
21.4235
21.6299
21.6949
21.6661
21.7371
21.6919
21.579
21.4873
21.2825
21.1516
20.9906
20.7268
20.6214
20.855
21.1212
21.0512
20.9823
20.7695
20.0621
19.4535
18.5481
17.0313
15.9014
14.9189
13.8438
11.8675
9.6342
6.81378
0.974337
-3.33429
-5.45512
-4.72647
-10.6592
-11.9433
-12.5447
-10.606
-10.7219
-6.64124
-4.1744
0.625936
5.43397
9.37754
14.0264
18.2923
20.8384
24.1929
25.7267
27.7335
29.7862
29.8826
31.9369
31.5015
32.105
33.0189
31.9023
32.8113
31.925
31.1005
30.3758
29.5323
28.2362
27.2209
26.4388
24.7315
24.7026
23.0153
22.408
21.6236
21.2683
20.5675
20.0314
20.485
19.8258
20.2797
20.1039
19.8078
20.4346
20.5078
25.7822
25.3604
23.4845
21.9088
20.9682
20.6486
20.8072
21.1615
21.5447
21.8714
22.0781
22.1988
22.2184
22.1507
22.055
21.9543
21.8339
21.7045
21.5855
21.4832
21.4255
21.3493
21.2656
21.2275
21.162
21.1344
21.103
21.0584
21.0546
21.0066
21.0103
20.9922
20.9864
20.9938
20.9728
20.9957
20.9826
20.9927
20.9894
20.9906
20.9965
20.9711
20.9776
20.9579
20.9307
20.9229
20.8689
20.814
20.7538
20.6694
20.5876
20.4518
20.3278
20.19
20.0347
19.8543
19.6559
19.4954
19.2647
19.068
18.8819
18.6372
18.4759
18.2708
18.087
17.9366
17.788
17.6554
17.5458
17.4793
17.3917
17.3512
17.294
17.2616
17.2337
17.185
17.1624
17.1207
17.0884
17.0427
16.99
16.9434
16.8645
16.7858
16.7152
16.6287
16.5523
16.4894
16.4581
16.4361
16.4882
16.5675
16.6847
16.9382
17.1992
17.5133
17.907
18.3021
18.7025
19.1436
19.5384
19.8736
20.2244
20.5376
20.8038
21.0568
21.2488
21.3861
21.5047
21.5928
21.6671
21.7276
21.7284
21.7301
21.7322
21.7771
21.8456
21.9188
22.0494
22.1279
22.1242
22.1563
22.3051
22.4546
22.4034
22.2823
22.2248
22.0472
21.8103
21.6904
21.517
21.2589
20.9962
20.8543
20.8154
20.8573
20.8899
20.7743
20.5983
20.2136
19.4762
18.4147
17.0646
15.2895
14.8527
14.9874
14.2417
12.5816
10.6317
8.72694
3.03876
-0.804516
-3.21918
-3.21105
-8.97851
-9.35119
-10.2245
-8.89917
-9.43459
-4.39173
-3.73337
2.71401
6.66369
10.2032
15.1283
18.5344
21.3339
24.8662
25.8225
28.9073
29.9189
30.9778
32.9958
32.2514
33.637
33.9356
33.504
34.25
33.3332
32.7006
31.8571
30.9838
29.4961
28.664
27.5238
26.1754
25.6879
23.793
23.5377
22.3214
22.0584
21.1577
20.744
20.7489
19.905
20.2801
19.756
19.9143
20.6675
20.5422
25.2543
24.851
23.2531
21.9506
21.2105
21.0116
21.1732
21.4644
21.7491
21.9733
22.1064
22.1627
22.1503
22.069
21.982
21.8839
21.7871
21.6835
21.5732
21.4998
21.4291
21.37
21.2997
21.2484
21.203
21.1578
21.13
21.0866
21.065
21.0322
21.0108
21.0009
20.9778
20.9776
20.9609
20.9563
20.9551
20.9399
20.9469
20.9341
20.933
20.9216
20.9082
20.8966
20.8707
20.848
20.8062
20.7532
20.6874
20.6192
20.5198
20.4185
20.2946
20.1683
20.0262
19.8576
19.6934
19.5217
19.3374
19.1531
18.9669
18.7813
18.6014
18.4343
18.2685
18.1183
17.9906
17.8598
17.7635
17.6789
17.6075
17.5436
17.4952
17.4465
17.4057
17.354
17.3048
17.2557
17.1918
17.1247
17.0384
16.9387
16.8357
16.7161
16.5822
16.4702
16.3416
16.2441
16.1711
16.1193
16.1452
16.2105
16.3554
16.594
16.8704
17.2122
17.6413
18.0696
18.5298
19.0406
19.4923
19.933
20.3818
20.7652
21.1288
21.4772
21.7447
21.9662
22.1491
22.2949
22.4363
22.5386
22.5765
22.5946
22.6242
22.6398
22.6677
22.7666
22.9035
22.9259
22.8493
22.8024
22.8184
22.8576
22.7594
22.5606
22.4573
22.2616
21.9451
21.7121
21.5456
21.3434
21.1332
20.9231
20.83
20.824
20.8009
20.6156
20.312
19.7877
19.039
18.1136
16.5891
15.7543
15.8197
16.2256
15.4236
13.4806
11.6761
9.93661
5.58483
2.06928
-0.730722
-1.56104
-5.30611
-6.69596
-8.38676
-7.56079
-6.86056
-3.16783
-3.06398
4.78364
7.24976
10.6842
15.8079
18.455
21.9856
24.724
26.0938
29.3784
29.9003
32.1681
33.4179
33.3545
34.8073
34.8354
34.9865
35.4468
34.6642
34.1123
33.1087
32.1415
30.8928
29.7445
28.4757
27.4746
26.1864
24.8585
24.4039
22.8048
22.5655
21.442
21.3791
20.8925
20.3449
20.57
19.7465
20.2819
20.7317
20.4406
24.4566
24.1464
23.0249
22.1193
21.615
21.4922
21.5921
21.7772
21.9434
22.0536
22.1134
22.1145
22.0733
21.9963
21.9134
21.8281
21.7454
21.6626
21.5731
21.514
21.4467
21.3898
21.335
21.2713
21.2356
21.1812
21.1485
21.1099
21.072
21.0488
21.0102
20.9991
20.9679
20.9562
20.944
20.9233
20.9251
20.9043
20.9047
20.8955
20.8783
20.8803
20.8549
20.8426
20.8247
20.7858
20.7574
20.6997
20.6413
20.5719
20.481
20.3866
20.2733
20.1543
20.0189
19.87
19.7205
19.5537
19.393
19.2234
19.0483
18.8866
18.7198
18.5592
18.4164
18.2736
18.1445
18.0397
17.9309
17.852
17.7746
17.7068
17.6521
17.5959
17.5437
17.4835
17.4239
17.3584
17.2751
17.1827
17.0742
16.9381
16.807
16.655
16.4882
16.3414
16.185
16.0553
15.9602
15.8848
15.8971
15.9712
16.1114
16.3526
16.631
16.9942
17.4461
17.9116
18.4283
18.9757
19.4913
20.0119
20.5275
20.9665
21.4029
21.8099
22.1317
22.4133
22.643
22.8295
23.0254
23.1494
23.2005
23.2384
23.2554
23.236
23.2382
23.2962
23.3519
23.329
23.2396
23.1233
23.0287
22.9698
22.8482
22.6674
22.4974
22.2769
21.9959
21.79
21.6223
21.4244
21.2169
21.0568
20.9551
20.8982
20.7664
20.543
20.1656
19.705
18.9757
18.2191
17.4457
16.8906
17.4157
17.6056
16.654
14.5597
12.6841
10.6402
7.45473
4.40979
1.3539
-0.0290161
-2.77425
-4.39173
-6.1381
-5.67315
-4.95962
-2.4666
-1.42015
5.68242
7.50312
10.8829
15.9528
18.2378
22.3573
24.1647
26.406
29.2088
30.2089
32.9008
33.5791
34.4355
35.6417
35.7746
36.2513
36.5112
35.8465
35.314
34.175
33.1585
31.8532
30.5735
29.4599
28.2157
26.7967
25.781
24.8463
23.5109
23.0404
21.8693
21.8324
20.7809
20.667
20.5509
20.0397
20.8188
20.903
20.7247
23.5917
23.4297
22.8925
22.4195
22.1289
22.0161
22.0068
22.0516
22.0923
22.1079
22.1038
22.0668
22.0101
21.9402
21.8681
21.7933
21.7209
21.6537
21.5775
21.5239
21.4579
21.4019
21.3522
21.288
21.2514
21.1971
21.16
21.1215
21.0806
21.0555
21.0148
20.9966
20.9645
20.9448
20.93
20.9042
20.9002
20.8779
20.8726
20.8607
20.8432
20.8415
20.8171
20.8041
20.7831
20.746
20.7151
20.6643
20.6043
20.5391
20.4515
20.3627
20.2569
20.1409
20.0163
19.8769
19.7383
19.5813
19.431
19.2761
19.1085
18.9628
18.8041
18.6521
18.5219
18.3814
18.2634
18.1589
18.0553
17.9711
17.8955
17.8224
17.7613
17.6987
17.6355
17.5703
17.498
17.418