/*--------------------------------*- C++ -*----------------------------------*\
| =========                 |                                                 |
| \\      /  F ield         | OpenFOAM: The Open Source CFD Toolbox           |
|  \\    /   O peration     | Version:  2.4.0                                 |
|   \\  /    A nd           | Web:      www.OpenFOAM.org                      |
|    \\/     M anipulation  |                                                 |
\*---------------------------------------------------------------------------*/
FoamFile
{
    version     2.0;
    format      ascii;
    class       volScalarField;
    location    "0.92";
    object      pPrime2Mean;
}
// * * * * * * * * * * * * * * * * * * * * * * * * * * * * * * * * * * * * * //

dimensions      [0 4 -4 0 0 0 0];

internalField   nonuniform List<scalar> 
8800
(
702903
685172
666146
647283
628677
610341
592276
574481
556957
539702
522715
505993
489532
473322
457348
441580
425956
410358
394503
377505
702928
685174
666145
647282
628676
610341
592276
574481
556957
539702
522715
505994
489533
473325
457353
441588
425973
410394
394590
377793
702944
685174
666140
647279
628675
610340
592276
574481
556957
539702
522716
505995
489535
473329
457361
441605
426006
410462
394750
378352
702956
685173
666135
647275
628674
610340
592275
574481
556957
539703
522717
505997
489539
473336
457374
441629
426054
410560
394973
379003
702966
685173
666131
647272
628672
610339
592275
574481
556957
539703
522718
505999
489544
473345
457391
441660
426114
410682
395241
379677
702974
685174
666128
647270
628671
610339
592275
574481
556957
539704
522719
506002
489550
473355
457410
441697
426185
410822
395536
380334
702980
685174
666126
647267
628670
610339
592275
574481
556958
539704
522721
506006
489556
473368
457433
441739
426264
410975
395843
380959
702984
685175
666125
647266
628669
610339
592275
574481
556958
539705
522723
506009
489563
473381
457457
441784
426348
411135
396152
381542
702987
685176
666124
647265
628669
610339
592276
574481
556959
539706
522725
506014
489571
473395
457483
441832
426436
411299
396455
382079
702988
685176
666123
647264
628668
610339
592276
574482
556959
539708
522728
506018
489579
473409
457510
441880
426525
411461
396746
382568
702988
685176
666123
647264
628669
610339
592276
574482
556960
539709
522730
506022
489587
473424
457536
441929
426613
411618
397020
383009
702987
685176
666124
647265
628669
610339
592276
574483
556961
539710
522732
506027
489595
473438
457562
441976
426697
411766
397272
383403
702984
685175
666125
647266
628670
610339
592276
574483
556962
539712
522735
506031
489602
473452
457587
442021
426777
411904
397501
383750
702980
685174
666126
647268
628671
610340
592277
574484
556962
539713
522737
506035
489609
473465
457610
442062
426850
412029
397704
384051
702974
685174
666129
647270
628672
610340
592277
574484
556963
539715
522739
506039
489616
473477
457631
442099
426914
412139
397880
384309
702966
685173
666132
647273
628673
610340
592277
574485
556964
539716
522741
506042
489622
473487
457649
442131
426970
412232
398028
384522
702956
685173
666135
647276
628675
610341
592278
574485
556965
539717
522743
506045
489626
473495
457664
442157
427015
412308
398147
384692
702944
685173
666140
647280
628676
610342
592278
574486
556966
539718
522744
506047
489630
473502
457676
442178
427050
412366
398236
384819
702928
685174
666145
647283
628678
610342
592279
574486
556966
539719
522745
506048
489632
473506
457684
442191
427074
412404
398296
384903
702904
685171
666146
647283
628678
610343
592279
574487
556966
539719
522745
506049
489634
473508
457688
442198
427086
412424
398326
384944
362101
357953
354788
352051
349515
347100
344772
342508
340295
338121
335980
333867
331776
329705
327651
325611
323583
321565
319557
317557
315567
313585
311611
309646
307689
305738
303795
301859
299930
298009
296095
294189
292291
290402
288522
286651
284788
282933
281086
279247
277415
275589
273768
271953
270143
268339
266540
264747
262959
261178
259403
257633
255868
254108
252353
250603
248860
247123
245392
243667
241947
240232
238522
236817
235117
233423
231735
230054
228381
226715
225056
223403
221757
220117
218483
216855
215234
213620
212013
210414
208823
207241
205667
204100
202541
200987
199439
197897
196359
194826
193298
191775
190255
188739
187226
185717
184211
182709
181211
179718
178231
176749
175274
173806
172345
170892
169447
168011
166582
165161
163747
162340
160940
159546
158158
156777
155401
154032
152668
151311
149961
148618
147281
145952
144629
143315
142005
140705
139408
138120
136835
135556
134281
133011
131745
130483
129226
127973
126726
125484
124247
123017
121791
120572
119358
118151
116949
115753
114563
113378
112199
111025
109857
108694
107537
106385
105239
104099
102965
101837
100716
99601.9
98494.6
97396
96303.5
95219.9
94142
93073.5
92011.7
90958.7
89912.1
88874.6
87842.4
86820.4
85801.6
84795.8
83788.5
82798.3
81802.7
80825.3
79843.2
78877.2
77907.3
76949.7
75988.1
75033.8
74074.2
73118.6
72153.4
71188.3
70208.2
69220.3
68210.3
67180.4
66115.4
65012
63847.2
62598.4
61244.5
59612.7
365056
360636
357032
353928
351120
348496
345997
343592
341258
338981
336750
334557
332396
330263
328153
326063
323990
321933
319889
317857
315837
313829
311831
309844
307867
305899
303940
301990
300048
298115
296191
294275
292369
290472
288584
286706
284836
282975
281123
279278
277441
275610
273785
271967
270154
268347
266546
264751
262962
261179
259402
257631
255865
254105
252350
250601
248857
247120
245389
243664
241945
240231
238521
236817
235119
233425
231738
230058
228385
226719
225059
223407
221760
220120
218486
216859
215238
213625
212018
210420
208830
207248
205674
204108
202549
200995
199448
197905
196367
194835
193307
191783
190262
188745
187232
185723
184217
182716
181219
179727
178241
176761
175287
173820
172361
170909
169465
168029
166601
165179
163765
162358
160956
159562
158173
156791
155415
154045
152682
151326
149976
148635
147299
145971
144649
143336
142028
140728
139433
138145
136861
135582
134307
133037
131771
130509
129252
128000
126752
125510
124274
123043
121817
120598
119384
118176
116974
115778
114587
113402
112223
111049
109880
108717
107559
106406
105259
104117
102981
101851
100728
99611
98500.7
97398.2
96302.1
95213.4
94131
93056.3
91988
90927.3
89872.1
88825.4
87782.6
86750
85718.3
84700.3
83679
82673.2
81663.3
80667.3
79668.6
78681.2
77691.9
76709
75724.7
74742.3
73755
72767
71769.8
70765.4
69747.1
68710.7
67651.4
66559
65428.3
64234.5
62986.9
61577.8
60091.2
58362.1
367106
362721
358949
355626
352615
349817
347170
344637
342192
339817
337500
335231
333003
330809
328645
326507
324390
322294
320215
318151
316103
314069
312048
310039
308043
306058
304083
302119
300164
298220
296285
294360
292446
290541
288646
286760
284884
283017
281158
279308
277466
275630
273802
271980
270164
268355
266551
264754
262963
261178
259400
257628
255861
254101
252346
250597
248854
247117
245386
243661
241942
240229
238520
236817
235120
233428
231742
230063
228390
226724
225065
223412
221765
220125
218492
216864
215244
213630
212024
210426
208837
207256
205683
204117
202558
201005
199457
197914
196377
194845
193316
191792
190271
188754
187240
185731
184226
182725
181230
179739
178255
176776
175305
173839
172382
170931
169488
168052
166624
165203
163788
162379
160977
159581
158192
156808
155432
154063
152700
151345
149996
148656
147321
145995
144674
143362
142056
140756
139462
138174
136890
135611
134336
133065
131799
130537
129279
128026
126779
125537
124300
123069
121844
120625
119411
118203
117000
115803
114612
113427
112247
111074
109905
108742
107583
106429
105280
104137
102998
101865
100739
99619.6
98506.4
97400.2
96300.7
95207.4
94120.1
93040
91964.9
90896.6
89832.4
88776.6
87722.7
86679.2
85635.2
84603.1
83569.8
82547.1
81524.3
80509.2
79495.2
78485.5
77477.5
76470
75463.1
74453.1
73440.7
72419.8
71394.7
70351.6
69299.3
68216.5
67116.6
65962.9
64789.9
63508.2
62215.6
60720.8
59168.9
57474.6
368667
364398
360579
357134
353982
351048
348276
345630
343085
340621
338224
335883
333591
331339
329123
326938
324780
322645
320532
318438
316362
314303
312259
310230
308215
306212
304223
302245
300278
298323
296378
294444
292521
290608
288706
286814
284931
283058
281194
279338
277491
275651
273818
271993
270174
268362
266556
264757
262964
261178
259398
257625
255858
254097
252342
250593
248850
247114
245383
243659
241940
240227
238520
236818
235122
233431
231747
230068
228396
226730
225071
223419
221772
220132
218498
216871
215250
213637
212031
210434
208845
207264
205692
204126
202567
201014
199467
197925
196388
194855
193327
191802
190281
188763
187250
185741
184237
182738
181244
179755
178273
176796
175326
173863
172407
170957
169515
168080
166652
165230
163814
162405
161001
159604
158214
156830
155453
154083
152721
151367
150020
148680
147347
146021
144702
143391
142086
140787
139493
138204
136920
135640
134365
133093
131826
130563
129305
128052
126805
125562
124326
123094
121870
120650
119436
118228
117026
115829
114638
113452
112273
111099
109931
108767
107608
106452
105301
104155
103013
101878
100749
99626
98509.9
97400.3
96297.4
95199.6
94108.1
93022.5
91941.1
90865.2
89792.8
88727.5
87663.2
86607.5
85553
84506.3
83462
82422.9
81387
80353.6
79323.8
78292.9
77265.6
76234.2
75205.8
74168.1
73133.5
72079.7
71030.5
69948.3
68871.2
67738.3
66615.6
65398
64199.9
62852.6
61514
60011
58450.3
56815.2
369921
365770
361963
358460
355216
352179
349306
346564
343930
341386
338915
336509
334156
331850
329585
327355
325157
322986
320840
318716
316614
314530
312464
310416
308382
306364
304360
302368
300390
298424
296469
294527
292595
290675
288766
286867
284978
283099
281229
279368
277516
275672
273835
272006
270185
268370
266562
264761
262966
261179
259398
257624
255856
254094
252339
250591
248848
247112
245381
243657
241939
240227
238521
236820
235125
233436
231752
230075
228404
226739
225080
223427
221780
220140
218505
216877
215257
213643
212038
210441
208852
207272
205700
204135
202577
201024
199477
197935
196399
194866
193338
191813
190292
188775
187262
185754
184251
182753
181261
179774
178294
176820
175352
173890
172435
170987
169545
168110
166682
165259
163843
162432
161027
159629
158238
156853
155476
154107
152745
151391
150045
148706
147374
146049
144731
143420
142116
140817
139524
138234
136949
135668
134392
133119
131852
130588
129330
128076
126828
125585
124348
123117
121892
120673
119460
118252
117050
115853
114663
113478
112299
111125
109957
108792
107632
106474
105321
104171
103026
101887
100755
99628.8
98510
97396.6
96290.5
95188.9
94093.3
93002.4
91915.4
90832.1
89752.4
88677.1
87604.3
86536.2
85472
84411.7
83356.3
82301.8
81252.8
80201.2
79155.6
78103.4
77058.9
76002.1
74956.5
73888.7
72836.8
71748.5
70681.4
69558.5
68462.4
67285.4
66137.7
64879
63643.1
62276.8
60896.1
59420.7
57882.8
56295.9
370977
366927
363149
359622
356320
353208
350255
347433
344723
342107
339571
337104
334696
332340
330028
327757
325520
323315
321138
318986
316858
314751
312665
310597
308546
306512
304494
302490
300500
298523
296560
294608
292669
290742
288825
286920
285025
283140
281265
279399
277542
275694
273854
272021
270197
268379
266569
264766
262970
261181
259399
257624
255856
254094
252339
250590
248848
247112
245382
243658
241941
240229
238524
236824
235130
233442
231759
230083
228412
226748
225088
223435
221788
220146
218511
216883
215262
213648
212043
210447
208858
207279
205707
204142
202584
201032
199486
197945
196409
194878
193350
191825
190305
188788
187276
185768
184266
182770
181279
179795
178317
176845
175379
173919
172465
171017
169576
168141
166713
165289
163871
162459
161054
159655
158263
156878
155501
154131
152769
151415
150070
148731
147400
146074
144758
143446
142143
140844
139551
138260
136975
135693
134416
133142
131873
130608
129350
128095
126847
125602
124366
123135
121911
120692
119480
118272
117071
115875
114685
113500
112323
111147
109979
108812
107652
106491
105337
104183
103036
101893
100758
99626.9
98505.4
97387.9
96279.4
95173.2
94074.4
92978.3
91886.5
90795.2
89709.6
88623.8
87544.1
86464.3
85391.7
84317.8
83252.9
82181.9
81121.9
80050.8
78991.7
77917.1
76857.9
75776.5
74714.4
73621.2
72550.2
71435.3
70345.3
69196
68070.1
66869.9
65685.4
64412.4
63139
61778.3
60380.6
58929.9
57418.4
55866
371887
367919
364174
360639
357301
354136
351121
348235
345460
342783
340188
337666
335208
332805
330451
328140
325868
323631
321424
319246
317093
314965
312858
310772
308705
306657
304625
302609
300608
298621
296648
294689
292742
290807
288884
286973
285072
283182
281301
279431
277570
275717
273873
272038
270210
268391
266579
264774
262977
261187
259404
257628
255859
254097
252341
250593
248850
247115
245385
243662
241945
240234
238528
236829
235136
233448
231766
230090
228420
226755
225096
223442
221794
220151
218516
216887
215265
213652
212047
210450
208863
207283
205712
204148
202590
201039
199494
197954
196419
194889
193362
191838
190318
188802
187291
185783
184282
182786
181298
179816
178340
176870
175406
173947
172494
171047
169606
168171
166742
165317
163898
162485
161078
159679
158286
156901
155524
154154
152792
151438
150092
148753
147421
146096
144780
143469
142165
140866
139572
138281
136995
135712
134434
133158
131889
130623
129363
128108
126859
125615
124378
123148
121924
120706
119495
118288
117087
115891
114702
113517
112339
111162
109995
108827
107664
106502
105346
104189
103039
101892
100754
99619.1
98494.5
97373.8
96261.9
95151.6
94049.4
92948.6
91852.1
90753.8
89661.4
88567.6
87479.9
86390.6
85308.8
84224.3
83148.7
82064.5
80991.2
79904.7
78829.2
77737.9
76659.2
75561.5
74477.6
73368.6
72273.8
71142.8
70025.4
68861.7
67706
66493
65280.9
64001.8
62707
61355.5
59955.8
58519.3
57026.1
55498.7
372681
368779
365065
361532
358172
354969
351906
348968
346140
343409
340763
338193
335689
333244
330851
328504
326199
323931
321697
319494
317319
315170
313045
310941
308859
306796
304751
302724
300712
298716
296735
294767
292813
290871
288942
287025
285119
283223
281338
279463
277598
275742
273895
272057
270226
268405
266591
264784
262985
261194
259410
257634
255864
254102
252346
250597
248855
247119
245390
243666
241949
240238
238533
236834
235141
233454
231772
230096
228425
226759
225099
223445
221796
220154
218517
216888
215267
213653
212048
210452
208865
207286
205715
204151
202594
201044
199499
197960
196428
194899
193374
191851
190332
188816
187304
185797
184296
182802
181314
179834
178360
176891
175429
173971
172519
171073
169632
168197
166766
165340
163920
162506
161099
159699
158306
156921
155544
154174
152812
151457
150111
148771
147438
146113
144796
143484
142181
140881
139586
138295
137008
135723
134444
133168
131897
130630
129370
128114
126864
125620
124384
123154
121931
120715
119504
118298
117097
115901
114711
113526
112349
111171
110002
108834
107669
106506
105348
104188
103036
101885
100743
99604.9
98476.3
97353.4
96236.8
95124.2
94018.4
92913.6
91811.4
90708.1
89609.3
88509.6
87413.4
86316.2
85225.2
84132.1
83045
81951.2
80863.1
79765.1
78672.4
77567.7
76469.1
75358.6
74255.2
73133.4
72017.6
70874.9
69734.8
68559.2
67381.8
66159.3
64929.4
63650
62342.7
60997.1
59598.2
58168.2
56688.7
55181.4
373379
369529
365844
362316
358943
355713
352614
349634
346761
343985
341295
338682
336137
333654
331226
328846
326511
324215
321956
319730
317533
315365
313222
311102
309005
306929
304872
302834
300812
298807
296818
294843
292881
290934
288998
287076
285164
283264
281375
279496
277627
275768
273918
272077
270244
268420
266604
264796
262996
261204
259419
257641
255871
254108
252352
250602
248860
247124
245394
243671
241953
240242
238537
236837
235144
233456
231774
230097
228426
226760
225099
223444
221795
220152
218516
216887
215265
213652
212047
210451
208864
207285
205715
204152
202596
201046
199503
197965
196434
194907
193383
191861
190343
188827
187315
185808
184308
182814
181327
179847
178374
176907
175446
173989
172538
171092
169652
168215
166784
165357
163936
162521
161114
159713
158321
156935
155558
154188
152826
151471
150124
148782
147449
146122
144803
143491
142187
140887
139591
138298
137010
135726
134446
133168
131897
130630
129369
128113
126863
125619
124383
123154
121933
120717
119506
118301
117100
115903
114714
113528
112351
111171
110003
108833
107665
106503
105342
104181
103025
101873
100726
99585.8
98451.7
97327.6
96205.4
95091.3
93981.8
92875.3
91766.1
90659.6
89552.6
88449.1
87345.4
86242.8
85142.2
84044.3
82944.4
81845.6
80741.1
79635.8
78526.1
77410.3
76294.9
75172.2
74052.5
72922.1
71788.3
70637.3
69478.7
68293.3
67100.1
65871.7
64628.5
63349.9
62032.1
60687.3
59289.9
57864.3
56397.9
54908.1
373992
370185
366524
363004
359624
356374
353247
350234
347324
344510
341782
339132
336551
334034
331574
329165
326802
324481
322198
319950
317734
315547
313388
311254
309143
307055
304987
302938
300907
298894
296896
294914
292947
290993
289052
287124
285208
283304
281411
279528
277656
275794
273941
272097
270263
268436
266619
264809
263007
261213
259427
257649
255878
254114
252357
250607
248863
247127
245397
243673
241955
240243
238537
236837
235143
233454
231771
230094
228422
226756
225095
223440
221790
220147
218511
216882
215261
213648
212043
210447
208860
207281
205711
204149
202594
201045
199504
197968
196438
194912
193389
191868
190349
188833
187322
185814
184314
182820
181334
179855
178383
176916
175456
174000
172549
171103
169663
168225
166793
165366
163944
162529
161121
159720
158328
156943
155566
154196
152834
151478
150130
148787
147451
146122
144802
143489
142183
140883
139586
138293
137004
135719
134438
133161
131890
130623
129362
128106
126857
125614
124379
123149
121928
120713
119503
118297
117097
115898
114709
113524
112343
111165
109994
108824
107655
106495
105329
104169
103008
101859
100703
99564.5
98421.6
97299.3
96169.1
95056.2
93940.3
92834.5
91715.9
90610.4
89494
88388.3
87276
86171.7
85061.2
83963.8
82849.5
81750.1
80629.9
79519.9
78395
77268.3
76140.4
75009
73875.9
72738.4
71588.1
70429.2
69255.8
68062.3
66856.4
65624.8
64368
63088
61761.4
60414.2
59020.6
57601.1
56148.1
54674
374531
370758
367119
363607
360222
356959
353810
350770
347830
344984
342223
339541
336929
334382
331893
329458
327070
324726
322422
320154
317920
315717
313543
311395
309272
307172
305094
303035
300996
298975
296970
294981
293008
291049
289103
287171
285250
283342
281446
279560
277685
275819
273964
272118
270281
268453
266633
264821
263018
261223
259435
257655
255883
254118
252360
250609
248865
247127
245397
243672
241953
240241
238534
236833
235138
233449
231765
230087
228415
226748
225087
223432
221782
220140
218504
216875
215254
213641
212036
210440
208852
207274
205704
204142
202588
201041
199501
197967
196439
194913
193391
191870
190350
188834
187322
185814
184313
182820
181333
179854
178382
176917
175457
174001
172551
171104
169663
168225
166793
165365
163944
162528
161120
159719
158327
156942
155566
154196
152834
151478
150128
148784
147446
146115
144792
143477
142171
140869
139572
138279
136990
135704
134424
133147
131877
130611
129351
128096
126848
125605
124370
123141
121920
120703
119493
118286
117086
115886
114697
113512
112329
111154
109979
108811
107641
106482
105312
104153
102989
101841
100679
99540.9
98389.5
97268.7
96128
95017.5
93894.4
92791.5
91662.1
90558.2
89432.8
88329.8
87209.4
86104.5
84985.4
83890.3
82763.5
81663
80531.2
79415.5
78279.8
77141.8
76006.2
74866.6
73720.5
72582.3
71414.5
70250.7
69062.7
67863.6
66645
65410.1
64140.5
62854.8
61523.8
60175.2
58787.2
57375.2
55935.2
54475.4
375003
371258
367637
364133
360746
357472
354306
351244
348280
345407
342619
339909
337271
334698
332184
329724
327314
324950
322626
320341
318091
315873
313685
311525
309390
307280
305192
303125
301078
299049
297038
295044
293065
291101
289151
287214
285290
283378
281478
279589
277711
275843
273986
272137
270298
268467
266646
264832
263027
261231
259442
257660
255887
254120
252361
250609
248864
247125
245393
243668
241948
240235
238527
236825
235130
233440
231756
230077
228405
226738
225077
223421
221772
220130
218495
216867
215247
213633
212028
210431
208843
207264
205694
204132
202579
201034
199495
197962
196435
194909
193387
191864
190345
188828
187315
185806
184306
182811
181325
179845
178373
176908
175449
173993
172542
171095
169653
168216
166784
165356
163935
162520
161112
159711
158319
156935
155559
154189
152827
151470
150119
148773
147434
146100
144776
143459
142151
140847
139550
138256
136968
135682
134403
133127
131859
130594
129336
128081
126834
125592
124357
123128
121906
120687
119479
118269
117069
115867
114679
113492
112308
111135
109960
108794
107624
106466
105294
104134
102968
101819
100654
99514.1
98358.5
97235.8
96089.7
94976.3
93849.8
92746.1
91612.3
90505
89375.1
88269.7
87143.6
86039.5
84915.6
83819.8
82685.6
81581.7
80441.4
79321.9
78177.4
77033
75888.5
74741.3
73588.6
72441.9
71261.2
70095
68894.6
67691.4
66463.7
65220.3
63940.9
62649.6
61317.1
59970
58588.2
57184.2
55756
54309
375414
371691
368085
364587
361199
357917
354739
351659
348675
345781
342970
340237
337575
334979
332444
329963
327534
325151
322810
320509
318245
316014
313813
311642
309497
307378
305281
303207
301153
299118
297101
295101
293117
291148
289194
287254
285326
283411
281508
279617
277736
275865
274005
272154
270313
268480
266657
264841
263035
261236
259445
257663
255888
254120
252359
250606
248860
247120
245387
243660
241940
240226
238517
236815
235119
233429
231745
230066
228393
226726
225065
223410
221762
220120
218486
216859
215238
213625
212019
210421
208833
207253
205682
204120
202567
201022
199485
197953
196425
194899
193375
191851
190331
188813
187300
185791
184291
182796
181309
179828
178357
176891
175432
173976
172525
171077
169636
168198
166767
165341
163921
162506
161099
159697
158306
156920
155545
154175
152813
151455
150104
148756
147416
146081
144755
143436
142125
140820
139522
138227
136940
135654
134377
133102
131836
130571
129315
128061
126815
125573
124338
123109
121888
120668
119460
118248
117047
115843
114655
113468
112285
111112
109939
108771
107602
106445
105274
104112
102949
101795
100628
99481.3
98327.7
97196.1
96050.5
94931.1
93804.4
92698.2
91559.6
90455.9
89321.7
88213.4
87082
85972.5
84846.7
83746
82610.7
81504.1
80359.3
79236.8
78085.5
76935.8
75785.4
74633.3
73471
72314.6
71131
69956.8
68749.9
67540
66306.3
65053.4
63768.3
62473.7
61141.5
59797.4
58421.1
57024.8
55607.1
54171.3
375766
372062
368468
364976
361587
358299
355110
352017
349017
346105
343276
340523
337842
335227
332672
330174
327728
325329
322973
320659
318381
316138
313927
311746
309593
307465
305361
303280
301220
299179
297157
295152
293164
291191
289233
287289
285359
283441
281535
279641
277757
275884
274022
272169
270325
268491
266665
264848
263039
261239
259446
257662
255885
254116
252355
250600
248853
247112
245378
243651
241930
240215
238506
236804
235107
233417
231732
230054
228381
226714
225054
223399
221751
220110
218477
216850
215229
213616
212009
210411
208821
207241
205669
204106
202553
201008
199470
197938
196408
194881
193356
191832
190312
188793
187279
185770
184270
182774
181287
179806
178335
176869
175410
173953
172503
171054
169614
168176
166746
165320
163902
162487
161080
159679
158287
156901
155526
154156
152794
151435
150083
148734
147393
146056
144730
143408
142097
140790
139491
138196
136908
135624
134348
133074
131809
130546
129290
128037
126791
125549
124316
123085
121865
120645
119438
118224
117022
115816
114629
113436
112259
111086
109916
108745
107578
106420
105250
104083
102928
101769
100601
99451.9
98300.5
97149.1
96010.8
94882.1
93752.7
92647.8
91511.5
90400.1
89269
88158.4
87021.3
85902.5
84780.1
83669.7
82538.2
81430
80280.7
79156.7
78001.6
76849.1
75694.8
74537.6
73369.5
72205.2
71018
69831.7
68625.6
67405.1
66169.6
64909.3
63622.5
62326.8
60996.3
59654.5
58282.7
56893.9
55484.9
54058.9
376066
372376
368790
365302
361912
358620
355423
352320
349308
346381
343537
340768
338071
335439
332869
330356
327895
325482
323114
320788
318499
316247
314027
311837
309676
307541
305431
303344
301278
299232
297206
295197
293205
291229
289267
287320
285387
283466
281558
279661
277775
275900
274035
272180
270334
268498
266670
264851
263041
261239
259445
257659
255881
254110
252348
250592
248844
247103
245368
243640
241919
240203
238495
236792
235095
233405
231720
230042
228369
226703
225043
223389
221741
220101
218467
216841
215220
213606
212000
210400
208810
207228
205655
204092
202537
200991
199452
197918
196387
194858
193332
191808
190288
188769
187254
185746
184245
182749
181262
179781
178311
176844
175385
173929
172478
171030
169590
168152
166724
165298
163880
162465
161059
159657
158265
156879
155503
154133
152771
151412
150059
148709
147368
146030
144703
143381
142068
140759
139459
138164
136876
135593
134317
133045
131779
130518
129263
128011
126767
125525
124292
123061
121841
120620
119412
118197
116997
115792
114598
113406
112232
111054
109888
108716
107549
106390
105225
104056
102901
101731
100578
99418.8
98259.9
97103.9
95975.6
94839.8
93710.5
92595.1
91459.3
90340.2
89217
88096.3
86963.6
85836.4
84719.9
83598.4
82472
81353.1
80208.3
79079.4
77925.8
76773.7
75619.3
74457.6
73280
72109.5
70918.4
69723.6
68517.2
67288.4
66054.8
64789.7
63503.4
62207.2
60878.4
59538.4
58171.3
56788.4
55386
53968.7
376314
372636
369055
365568
362178
358882
355680
352569
349548
346610
343753
340972
338262
335617
333034
330508
328035
325611
323233
320896
318599
316338
314110
311914
309746
307605
305490
303398
301327
299278
297247
295235
293239
291260
289296
287346
285410
283487
281576
279677
277789
275912
274045
272188
270341
268502
266673
264852
263040
261236
259441
257654
255875
254104
252340
250584
248835
247094
245359
243630
241908
240193
238484
236781
235084
233393
231709
230030
228358
226692
225032
223378
221731
220091
218458
216832
215212
213597
211990
210390
208799
207216
205642
204077
202521
200974
199431
197896
196362
194833
193305
191781
190260
188742
187228
185720
184219
182723
181236
179757
178286
176820
175361
173905
172454
171008
169566
168130
166700
165275
163856
162443
161035
159635
158241
156857
155479
154111
152746
151388
150034
148685
147343
146006
144677
143355
142041
140732
139431
138135
136846
135564
134286
133015
131749
130490
129235
127986
126741
125500
124266
123036
121814
120593
119383
118168
116967
115762
114573
113382
112203
111025
109858
108683
107521
106359
105195
104025
102873
101697
100542
99369.4
98226.1
97069.4
95938.8
94800.6
93667.2
92533.4
91408.1
90287.5
89165.1
88032
86913.3
85783.9
84663.8
83537.2
82413.7
81281.9
80147.5
79007.3
77859.4
76708.3
75552.4
74385.1
73204.9
72029.9
70831.2
69631.2
68425.2
67194.2
65959.1
64694.1
63409.3
62112.3
60785.4
59446.5
58083.7
56704.6
55307.6
53897.7
376513
372842
369263
365777
362386
359089
355883
352767
349738
346793
343926
341135
338414
335759
333166
330630
328148
325715
323328
320984
318679
316411
314177
311975
309803
307657
305537
303441
301367
299314
297280
295265
293266
291284
289318
287366
285427
283502
281590
279689
277799
275920
274052
272193
270344
268505
266674
264852
263039
261234
259438
257650
255870
254098
252334
250577
248828
247086
245350
243622
241900
240184
238475
236771
235074
233384
231699
230020
228348
226682
225022
223369
221722
220083
218450
216824
215204
213589
211982
210381
208789
207206
205631
204064
202506
200956
199411
197874
196338
194808
193279
191756
190234
188717
187203
185697
184194
182700
181212
179735
178263
176798
175338
173884
172432
170987
169544
168109
166678
165255
163835
162422
161014
159614
158219
156835
155456
154089
152723
151366
150011
148663
147320
145984
144655
143334
142018
140710
139406
138111
136820
135537
134258
132988
131721
130463
129208
127960
126714
125474
124239
123009
121785
120565
119351
118140
116938
115738
114546
113354
112176
110994
109824
108653
107491
106322
105160
103991
102835
101656
100505
99337.4
98199.7
97027.6
95901.8
94752.5
93618.1
92492.9
91369.5
90235.3
89113.4
87979.3
86865.5
85733.1
84616.6
83487.8
82363.2
81225.3
80095.2
78944.8
77802.5
76649.6
75498.1
74321.9
73143.9
71960.4
70762
69559.2
68350.8
67119.6
65883.9
64622.1
63337.6
62039.9
60714.4
59375.8
58016.1
56639.9
55247.6
53843
376661
372995
369418
365932
362541
359242
356034
352915
349881
346929
344056
341257
338529
335866
333265
330722
328233
325793
323400
321050
318740
316467
314228
312022
309845
307696
305573
303473
301396
299341
297304
295287
293286
291302
289334
287380
285440
283513
281599
279697
277806
275926
274056
272197
270347
268506
266674
264852
263038
261232
259435
257647
255866
254094
252329
250572
248822
247080
245344
243615
241893
240177
238467
236764
235067
233376
231691
230012
228340
226674
225014
223361
221715
220075
218443
216817
215197
213582
211975
210374
208782
207198
205622
204054
202494
200942
199394
197855
196317
194787
193258
191735
190212
188697
187183
185678
184175
182683
181194
179717
178244
176781
175319
173866
172414
170970
169526
168093
166661
165238
163817
162406
160996
159597
158201
156817
155438
154070
152704
151348
149993
148648
147303
145969
144639
143319
142001
140694
139388
138093
136799
135515
134234
132963
131695
130438
129182
127935
126688
125450
124213
122985
121758
120539
119322
118116
116911
115715
114520
113330
112147
110965
109794
108621
107455
106287
105126
103956
102798
101626
100475
99303.6
98168.5
96992.8
95866.7
94708.3
93584
92451.1
91324.9
90191.6
89073.2
87938.1
86824.4
85692
84578.9
83444.7
82321.8
81181.7
80051.9
78898.8
77760.2
76603.5
75450.4
74269.5
73099.4
71905.5
70709.9
69504.1
68294.7
67069.1
65829.5
64571.6
63285.8
61988.8
60662.9
59324.9
57967.3
56593.2
55204
53802.8
376755
373094
369520
366035
362644
359345
356135
353013
349975
347020
344142
341338
338605
335937
333332
330784
328289
325845
323448
321094
318780
316504
314262
312053
309873
307722
305596
303495
301416
299358
297320
295301
293299
291314
289344
287389
285448
283521
281605
279702
277810
275930
274059
272199
270348
268507
266675
264852
263037
261231
259434
257645
255864
254092
252327
250569
248819
247076
245340
243611
241888
240172
238462
236758
235061
233369
231684
230005
228333
226667
225007
223355
221709
220069
218437
216810
215190
213576
211969
210369