/*--------------------------------*- C++ -*----------------------------------*\
| =========                 |                                                 |
| \\      /  F ield         | OpenFOAM: The Open Source CFD Toolbox           |
|  \\    /   O peration     | Version:  2.4.0                                 |
|   \\  /    A nd           | Web:      www.OpenFOAM.org                      |
|    \\/     M anipulation  |                                                 |
\*---------------------------------------------------------------------------*/
FoamFile
{
    version     2.0;
    format      ascii;
    class       volVectorField;
    location    "0.72";
    object      U;
}
// * * * * * * * * * * * * * * * * * * * * * * * * * * * * * * * * * * * * * //

dimensions      [0 1 -1 0 0 0 0];

internalField   nonuniform List<vector> 
4400
(
(9.21916 0.0116933 0)
(10.77 -0.00584856 0)
(8.55661 -0.0023173 0)
(11.3266 0.0664387 0)
(7.16026 -0.017055 0)
(12.1821 0.0650042 0)
(5.53077 0.0194412 0)
(12.7964 0.120686 0)
(5.13607 -0.189599 0)
(11.5785 0.287083 0)
(7.85306 0.0149852 0)
(7.53646 -0.124389 0)
(10.3401 0.396099 0)
(6.76819 -0.0177747 0)
(7.76987 -0.14633 0)
(10.4925 0.506606 0)
(4.2197 -0.0471171 0)
(10.0724 -0.148965 0)
(7.38119 0.268616 0)
(7.03878 0.183487 0)
(8.87145 -0.0189682 0)
(11.785 0.15757 0)
(7.06677 -0.0941284 0)
(13.267 0.201021 0)
(5.16919 -0.119071 0)
(14.4259 0.206881 0)
(4.37329 -0.0505382 0)
(14.0657 -0.139752 0)
(7.55432 0.532506 0)
(8.78911 -0.834661 0)
(12.3225 0.61179 0)
(5.85794 -0.170685 0)
(11.7772 -0.421708 0)
(8.9271 0.583365 0)
(8.6329 -0.546919 0)
(11.0786 -0.0270528 0)
(8.26688 0.285509 0)
(10.4291 -0.47567 0)
(9.35932 0.190405 0)
(9.17126 -0.0161513 0)
(9.06575 -0.124566 0)
(11.6593 0.343586 0)
(7.55504 -0.316316 0)
(13.2181 0.386446 0)
(6.17831 -0.241519 0)
(13.7625 0.115287 0)
(7.86674 0.2269 0)
(10.7591 -0.637319 0)
(10.9072 0.811982 0)
(8.96297 -0.712564 0)
(10.4756 0.42918 0)
(10.446 0.171053 0)
(10.6695 -0.35201 0)
(9.18451 0.651991 0)
(11.1044 -0.479724 0)
(10.6628 0.374656 0)
(9.45862 0.307788 0)
(11.0863 -0.459315 0)
(10.0203 0.407448 0)
(10.202 0.469967 0)
(9.41946 -0.175046 0)
(11.0605 0.451026 0)
(8.71981 -0.392926 0)
(11.8792 0.445405 0)
(8.89521 -0.162302 0)
(11.4853 -0.156696 0)
(10.2921 0.600776 0)
(10.0517 -0.871094 0)
(10.4251 0.953001 0)
(11.0262 -0.578188 0)
(9.80455 0.310463 0)
(10.9224 0.0616147 0)
(10.8263 -0.441852 0)
(9.95796 0.690143 0)
(11.1005 -0.615873 0)
(10.2996 0.089664 0)
(10.7823 0.351106 0)
(10.2107 -0.52309 0)
(10.9981 0.262995 0)
(10.9058 0.312722 0)
(9.72244 -0.214471 0)
(10.4128 0.498501 0)
(9.79548 -0.43824 0)
(10.6566 0.369832 0)
(10.1277 -0.0901036 0)
(10.2047 -0.274926 0)
(10.8863 0.632135 0)
(9.64511 -0.760617 0)
(10.6744 0.806531 0)
(10.7658 -0.511686 0)
(9.64755 0.248642 0)
(11.26 0.0890119 0)
(10.064 -0.27707 0)
(10.0472 0.566497 0)
(11.2098 -0.520978 0)
(10.0973 0.220647 0)
(10.2345 0.476746 0)
(10.711 -0.609916 0)
(11.1595 0.093509 0)
(10.3215 0.87673 0)
(9.9725 -0.197694 0)
(9.99414 0.424432 0)
(10.1507 -0.382767 0)
(9.89712 0.322407 0)
(10.4896 -0.0386218 0)
(9.62037 -0.337612 0)
(10.6419 0.733963 0)
(10.1747 -0.818805 0)
(9.92421 0.714319 0)
(11.3125 -0.351097 0)
(9.3627 0.0394055 0)
(11.2859 0.216602 0)
(10.026 -0.354562 0)
(10.1661 0.522681 0)
(11.2377 -0.428602 0)
(9.83558 0.109321 0)
(10.2644 0.382342 0)
(11.3082 -0.584048 0)
(9.76438 0.22734 0)
(10.376 0.737418 0)
(9.91171 -0.200086 0)
(9.96814 0.433335 0)
(10.2094 -0.383068 0)
(9.76971 0.242761 0)
(10.4016 0.0247468 0)
(9.78693 -0.388208 0)
(10.1913 0.664691 0)
(10.3774 -0.713407 0)
(9.75105 0.588181 0)
(10.8172 -0.32859 0)
(9.42434 0.0889598 0)
(10.8639 0.0932406 0)
(9.90094 -0.189943 0)
(9.98019 0.362539 0)
(10.9147 -0.390341 0)
(9.67476 0.205358 0)
(10.3463 0.310175 0)
(10.6387 -0.533339 0)
(9.68784 0.176886 0)
(10.26 0.686795 0)
(9.99024 -0.169534 0)
(9.93055 0.330811 0)
(10.2438 -0.305486 0)
(9.70169 0.228134 0)
(10.4431 0.00273429 0)
(9.74348 -0.325885 0)
(10.1012 0.627682 0)
(10.3833 -0.720321 0)
(9.54564 0.559599 0)
(10.5981 -0.207609 0)
(9.76204 -0.0950637 0)
(10.0951 0.264454 0)
(10.3471 -0.250142 0)
(9.81795 0.275402 0)
(10.4951 -0.237199 0)
(9.7922 0.0870554 0)
(10.2873 0.263853 0)
(10.463 -0.409853 0)
(9.64366 0.154637 0)
(9.91231 0.564206 0)
(9.99079 -0.173503 0)
(9.87015 0.348656 0)
(10.2703 -0.287469 0)
(9.65058 0.153883 0)
(10.4557 0.0740112 0)
(9.69881 -0.379583 0)
(10.1546 0.575499 0)
(10.2862 -0.629152 0)
(9.66228 0.493997 0)
(10.3907 -0.25172 0)
(10.0079 0.0314737 0)
(9.87222 0.147809 0)
(10.3805 -0.260933 0)
(9.92035 0.34737 0)
(10.2442 -0.269483 0)
(10.019 0.0618736 0)
(10.1327 0.280702 0)
(10.4824 -0.374596 0)
(9.7046 0.164946 0)
(10.1025 0.441756 0)
(9.96163 -0.129826 0)
(9.95163 0.238492 0)
(10.1833 -0.219271 0)
(9.7613 0.140875 0)
(10.3267 0.0370306 0)
(9.82902 -0.311614 0)
(10.0444 0.544585 0)
(10.3501 -0.633666 0)
(9.69329 0.500093 0)
(10.3623 -0.185222 0)
(10.1543 -0.106609 0)
(9.80364 0.283096 0)
(10.5071 -0.306578 0)
(9.94024 0.261622 0)
(10.1922 -0.150778 0)
(10.2935 -0.00844342 0)
(10.0562 0.234489 0)
(10.5084 -0.278919 0)
(9.87275 0.111431 0)
(10.2606 0.33589 0)
(9.9885 -0.144284 0)
(9.932 0.262161 0)
(10.1602 -0.198106 0)
(9.81383 0.0778642 0)
(10.2688 0.102715 0)
(9.89543 -0.349963 0)
(10.0099 0.480456 0)
(10.3617 -0.528431 0)
(9.64342 0.413537 0)
(10.4573 -0.212047 0)
(9.95055 -0.000909798 0)
(9.95935 0.21399 0)
(10.4655 -0.35948 0)
(9.69685 0.392068 0)
(10.4148 -0.199696 0)
(10.1191 -0.0480352 0)
(9.94354 0.306311 0)
(10.427 -0.275157 0)
(9.97064 0.0910034 0)
(10.1563 0.335737 0)
(9.97909 -0.100492 0)
(9.9324 0.172236 0)
(10.164 -0.156006 0)
(9.82111 0.0788543 0)
(10.2434 0.059084 0)
(9.93529 -0.291168 0)
(9.97337 0.461773 0)
(10.3424 -0.530633 0)
(9.69969 0.401127 0)
(10.3512 -0.145498 0)
(10.0219 -0.106582 0)
(9.95289 0.251886 0)
(10.3656 -0.292547 0)
(9.90963 0.247845 0)
(10.2383 -0.143268 0)
(10.1362 -0.0246488 0)
(10.1574 0.222309 0)
(10.2364 -0.233929 0)
(10.152 0.0644966 0)
(10.1423 0.284924 0)
(9.98731 -0.111478 0)
(9.94861 0.1802 0)
(10.1175 -0.128142 0)
(9.87382 0.0247383 0)
(10.194 0.107698 0)
(9.96259 -0.304965 0)
(9.9691 0.392108 0)
(10.3404 -0.432993 0)
(9.69882 0.332217 0)
(10.3629 -0.164952 0)
(10.0327 -0.0401087 0)
(9.91733 0.23738 0)
(10.4483 -0.370031 0)
(9.82771 0.336404 0)
(10.275 -0.123207 0)
(10.3156 -0.131258 0)
(9.84141 0.298308 0)
(10.4826 -0.199362 0)
(10.2773 0.00734013 0)
(9.92178 0.282657 0)
(9.98995 -0.0765663 0)
(9.93539 0.117164 0)
(10.1281 -0.107526 0)
(9.88414 0.0332278 0)
(10.1623 0.0653845 0)
(10.017 -0.254041 0)
(9.92643 0.365147 0)
(10.3359 -0.416771 0)
(9.74907 0.300511 0)
(10.2888 -0.112142 0)
(10.0866 -0.0967523 0)
(9.91108 0.220019 0)
(10.4096 -0.286213 0)
(9.8868 0.242122 0)
(10.2425 -0.140958 0)
(10.2214 -0.0368465 0)
(10.0311 0.228877 0)
(10.3678 -0.241428 0)
(10.0415 0.0602404 0)
(10.272 0.258064 0)
(9.99321 -0.080696 0)
(9.9476 0.111529 0)
(10.1025 -0.0807199 0)
(9.90843 -0.00603716 0)
(10.1452 0.0912842 0)
(10.0169 -0.245051 0)
(9.93558 0.297556 0)
(10.3214 -0.337777 0)
(9.75452 0.252415 0)
(10.2797 -0.130771 0)
(10.1086 -0.0563556 0)
(9.88128 0.218672 0)
(10.426 -0.339938 0)
(9.88793 0.271833 0)
(10.2205 -0.0822808 0)
(10.2909 -0.151727 0)
(9.93457 0.245862 0)
(10.3798 -0.128679 0)
(10.3162 -0.0460325 0)
(9.93082 0.201264 0)
(9.99669 -0.0553358 0)
(9.93979 0.0689542 0)
(10.1071 -0.0731012 0)
(9.9203 0.00801236 0)
(10.1209 0.0501081 0)
(10.0532 -0.193695 0)
(9.91424 0.257592 0)
(10.315 -0.303306 0)
(9.79176 0.213321 0)
(10.2421 -0.0934025 0)
(10.1334 -0.0725829 0)
(9.88741 0.174649 0)
(10.4115 -0.253797 0)
(9.91505 0.209681 0)
(10.1871 -0.120414 0)
(10.3134 -0.057836 0)
(9.96909 0.215467 0)
(10.3346 -0.219673 0)
(10.2311 0.0430135 0)
(10.1702 0.225522 0)
(9.99837 -0.053876 0)
(9.94797 0.0546812 0)
(10.095 -0.0510263 0)
(9.93435 -0.0188078 0)
(10.1128 0.0550768 0)
(10.0551 -0.167619 0)
(9.91765 0.186973 0)
(10.3065 -0.233337 0)
(9.79953 0.168347 0)
(10.2272 -0.107451 0)
(10.1603 -0.0490796 0)
(9.8642 0.163542 0)
(10.4045 -0.27431 0)
(9.94278 0.197013 0)
(10.1636 -0.061891 0)
(10.3204 -0.143548 0)
(9.96281 0.191265 0)
(10.3453 -0.0947807 0)
(10.2742 -0.0786598 0)
(10.0618 0.15357 0)
(10.0039 -0.0361155 0)
(9.94052 0.0276801 0)
(10.1039 -0.0502584 0)
(9.93197 0.00260938 0)
(10.1179 0.0123155 0)
(10.0494 -0.109698 0)
(9.93278 0.139643 0)
(10.28 -0.193139 0)
(9.81202 0.140275 0)
(10.2308 -0.0937987 0)
(10.1191 -0.0318253 0)
(9.90757 0.10647 0)
(10.3687 -0.198738 0)
(9.91412 0.165258 0)
(10.1789 -0.109308 0)
(10.295 -0.0660654 0)
(9.94544 0.178775 0)
(10.3237 -0.179062 0)
(10.2463 0.0104202 0)
(10.1161 0.167412 0)
(10.0156 -0.0358734 0)
(9.93012 0.00541719 0)
(10.1199 -0.034566 0)
(9.88097 -0.0212621 0)
(10.1956 0.00769652 0)
(9.90191 -0.0830205 0)
(10.0727 0.0696427 0)
(10.1381 -0.123119 0)
(9.82962 0.0795806 0)
(10.2821 -0.0832205 0)
(9.87829 -0.021103 0)
(10.1029 0.0780646 0)
(10.1378 -0.173065 0)
(9.86665 0.111573 0)
(10.251 -0.0385291 0)
(9.99879 -0.116509 0)
(9.94331 0.121886 0)
(10.29 -0.0507562 0)
(9.99763 -0.0998824 0)
(10.0165 0.103892 0)
(9.95656 -0.0102858 0)
(9.80882 -0.0106099 0)
(9.84441 -0.0236023 0)
(9.57707 -0.00419448 0)
(9.7462 -0.0212723 0)
(9.34766 -0.0213182 0)
(9.51486 0.00809881 0)
(9.3513 -0.0470944 0)
(9.10346 0.0191936 0)
(9.39061 -0.0392457 0)
(8.8108 -0.00987592 0)
(9.1712 0.000410128 0)
(8.9143 -0.0464383 0)
(8.59951 0.0329686 0)
(9.07697 -0.0578268 0)
(8.45628 -0.00860413 0)
(8.4447 0.0408425 0)
(8.90321 -0.0783172 0)
(8.24653 0.00535669 0)
(8.16244 0.0508868 0)
(6.88513 0.491891 0)
(7.54989 -0.696287 0)
(7.80903 1.47399 0)
(6.85657 2.81022 0)
(9.86562 -0.380404 0)
(10.5838 -3.93775 0)
(8.58804 -4.95853 0)
(7.81151 -4.06403 0)
(6.25137 -2.77819 0)
(5.06955 -1.84403 0)
(5.31661 -1.17777 0)
(5.52743 -0.883657 0)
(5.46101 -0.773511 0)
(5.33793 -0.658222 0)
(5.25274 -0.511862 0)
(5.19574 -0.368799 0)
(5.15254 -0.251186 0)
(5.11982 -0.16437 0)
(5.09692 -0.104969 0)
(5.08224 -0.0662339 0)
(5.07355 -0.0415401 0)
(5.0687 -0.0259271 0)
(5.06611 -0.0160971 0)
(5.06477 -0.00993623 0)
(5.06409 -0.00609606 0)
(5.06375 -0.00371667 0)
(5.06357 -0.00225217 0)
(5.06349 -0.00135611 0)
(5.06344 -0.000811482 0)
(5.06342 -0.000482388 0)
(5.0634 -0.000284736 0)
(5.0634 -0.000166886 0)
(5.06339 -9.69983e-05 0)
(5.06339 -5.58864e-05 0)
(5.06339 -3.19177e-05 0)
(5.06339 -1.79981e-05 0)
(5.06339 -1.00244e-05 0)
(5.06339 -5.54004e-06 0)
(5.06339 -2.95732e-06 0)
(5.06339 -1.61536e-06 0)
(5.06339 -7.80345e-07 0)
(5.06339 -4.1298e-07 0)
(5.06339 -1.99955e-07 0)
(5.06339 -8.56442e-08 0)
(5.06339 -2.04946e-08 0)
(5.06339 -3.38874e-08 0)
(5.06339 6.93531e-10 0)
(5.06339 5.37583e-08 0)
(5.06339 -9.80492e-08 0)
(5.06339 1.1374e-07 0)
(5.06339 -8.36429e-08 0)
(5.06339 1.64588e-08 0)
(5.06339 4.06202e-08 0)
(5.06339 -7.48062e-08 0)
(5.06339 9.66969e-08 0)
(5.06339 -9.92233e-08 0)
(5.06339 7.20673e-08 0)
(5.06339 -1.90098e-08 0)
(5.06339 -6.35743e-08 0)
(5.06339 1.195e-07 0)
(5.06339 -8.74716e-08 0)
(5.06339 1.26023e-09 0)
(5.06339 9.83687e-08 0)
(5.06339 -1.12062e-07 0)
(5.06339 5.3729e-08 0)
(5.06339 5.85017e-08 0)
(5.06339 -9.70296e-08 0)
(5.06339 5.92839e-08 0)
(5.06339 4.48589e-08 0)
(5.06339 -1.08243e-07 0)
(5.06339 7.86429e-08 0)
(5.06339 5.81521e-08 0)
(5.06339 -1.54381e-07 0)
(5.06339 8.44222e-08 0)
(5.06339 8.39283e-08 0)
(5.06339 -1.21796e-07 0)
(5.06339 -3.64448e-08 0)
(5.06339 1.59663e-07 0)
(5.06339 -3.76697e-08 0)
(5.06339 -1.31935e-07 0)
(5.06339 8.62835e-08 0)
(5.06339 6.97749e-08 0)
(5.06339 -5.25485e-08 0)
(5.06339 -7.46279e-08 0)
(5.06339 1.95074e-08 0)
(5.06339 4.77777e-08 0)
(5.06339 -1.51278e-08 0)
(5.06339 -8.27379e-08 0)
(5.06338 -5.38329e-08 0)
(5.06339 7.16201e-08 0)
(5.06338 6.09616e-08 0)
(5.0634 -7.86436e-08 0)
(5.06337 -8.4049e-08 0)
(5.0634 3.27472e-08 0)
(5.06338 7.04634e-08 0)
(5.06338 1.47704e-08 0)
(5.0634 -5.38834e-09 0)
(5.06338 -1.61466e-08 0)
(5.06339 -1.36405e-08 0)
(5.06339 1.11703e-08 0)
(8.5146 0.221362 0)
(10.2713 -0.365801 0)
(10.372 1.22948 0)
(8.40533 2.58021 0)
(10.8665 -0.591273 0)
(10.8637 -4.03574 0)
(8.83693 -4.71382 0)
(7.37068 -3.94842 0)
(7.03279 -2.72907 0)
(6.03369 -1.82265 0)
(5.80404 -1.2583 0)
(5.82628 -0.929471 0)
(5.6547 -0.762633 0)
(5.44746 -0.637414 0)
(5.31332 -0.499054 0)
(5.23313 -0.359287 0)
(5.17755 -0.242651 0)
(5.13634 -0.157769 0)
(5.10728 -0.100687 0)
(5.08852 -0.0637483 0)
(5.07733 -0.0401704 0)
(5.071 -0.0251862 0)
(5.06753 -0.0156992 0)
(5.06565 -0.00972397 0)
(5.06463 -0.00598316 0)
(5.06408 -0.00365667 0)
(5.06378 -0.0022199 0)
(5.06361 -0.00133862 0)
(5.06351 -0.000801861 0)
(5.06346 -0.000477035 0)
(5.06343 -0.000281701 0)
(5.06341 -0.000165129 0)
(5.0634 -9.60061e-05 0)
(5.0634 -5.5373e-05 0)
(5.06339 -3.15915e-05 0)
(5.06339 -1.77867e-05 0)
(5.06339 -9.93781e-06 0)
(5.06339 -5.4429e-06 0)
(5.06339 -2.95904e-06 0)
(5.06339 -1.59347e-06 0)
(5.06339 -7.43427e-07 0)
(5.06339 -3.87726e-07 0)
(5.06339 -1.46707e-07 0)
(5.06339 -5.99482e-08 0)
(5.06339 -1.16966e-07 0)
(5.06339 -5.35076e-09 0)
(5.06339 3.60709e-08 0)
(5.06339 -2.31578e-08 0)
(5.06339 -1.39205e-08 0)
(5.06339 4.52376e-08 0)
(5.06339 -3.36341e-08 0)
(5.06339 2.98842e-08 0)
(5.06339 8.6701e-09 0)
(5.06339 -6.63916e-08 0)
(5.06339 5.14433e-08 0)
(5.06339 -5.69113e-09 0)
(5.06339 3.08319e-09 0)
(5.06339 -3.5581e-09 0)
(5.06339 -2.68592e-08 0)
(5.06339 3.54682e-08 0)
(5.06339 3.17922e-09 0)
(5.06339 4.36301e-09 0)
(5.06339 1.38819e-08 0)
(5.06339 -3.49085e-08 0)
(5.06339 2.94559e-08 0)
(5.06339 3.68883e-08 0)
(5.06339 -6.71986e-09 0)
(5.06339 9.71778e-09 0)
(5.06339 -1.32592e-09 0)
(5.06339 -3.44547e-08 0)
(5.06339 2.52021e-08 0)
(5.06339 2.99261e-08 0)
(5.06339 -3.39189e-08 0)
(5.06339 9.04296e-09 0)
(5.06339 -4.15279e-09 0)
(5.06339 -2.66507e-08 0)
(5.06339 -5.78086e-09 0)
(5.06339 3.86742e-08 0)
(5.06339 5.26183e-09 0)
(5.06339 -7.73943e-09 0)
(5.06339 2.09009e-08 0)
(5.06339 -4.8574e-09 0)
(5.06339 -1.62268e-08 0)
(5.06339 -9.28078e-09 0)
(5.06339 4.83172e-09 0)
(5.06339 -1.98021e-09 0)
(5.06339 -2.58048e-08 0)
(5.06339 -3.40624e-08 0)
(5.06338 -2.55861e-08 0)
(5.06339 2.07361e-08 0)
(5.06338 2.4755e-08 0)
(5.0634 -1.67197e-08 0)
(5.06337 -1.24179e-08 0)
(5.0634 -7.79078e-09 0)
(5.06338 1.60486e-08 0)
(5.06338 2.55532e-08 0)
(5.0634 -6.1637e-09 0)
(5.06338 2.3764e-08 0)
(5.06339 1.26692e-08 0)
(5.06339 -5.62736e-09 0)
(9.33986 0.413584 0)
(11.8286 -0.897271 0)
(10.7941 1.44949 0)
(9.07769 2.80575 0)
(11.6536 -0.684328 0)
(11.2492 -3.77624 0)
(9.16323 -4.36444 0)
(7.16507 -3.53346 0)
(6.77993 -2.48871 0)
(6.51873 -1.64658 0)
(6.33494 -1.12064 0)
(6.22294 -0.827859 0)
(5.91929 -0.680993 0)
(5.59477 -0.577477 0)
(5.38851 -0.464834 0)
(5.27434 -0.34333 0)
(5.2026 -0.233801 0)
(5.15225 -0.151079 0)
(5.11734 -0.0956114 0)
(5.09474 -0.0603549 0)
(5.0811 -0.0381426 0)
(5.07328 -0.0240586 0)
(5.06892 -0.0150945 0)
(5.0665 -0.00940259 0)
(5.06515 -0.00581086 0)
(5.0644 -0.00356307 0)
(5.06397 -0.00216798 0)
(5.06373 -0.00130929 0)
(5.06359 -0.000785279 0)
(5.0635 -0.00046754 0)
(5.06346 -0.000276045 0)
(5.06343 -0.000161831 0)
(5.06341 -9.42355e-05 0)
(5.0634 -5.4301e-05 0)
(5.06339 -3.08509e-05 0)
(5.06339 -1.74503e-05 0)
(5.06339 -9.81469e-06 0)
(5.06339 -5.24058e-06 0)
(5.06339 -2.80739e-06 0)
(5.06339 -1.57296e-06 0)
(5.06339 -7.39746e-07 0)
(5.06339 -2.76554e-07 0)
(5.06339 -1.46419e-08 0)
(5.06339 -8.53105e-08 0)
(5.06339 -2.56786e-07 0)
(5.06339 3.17736e-08 0)
(5.06339 1.14002e-07 0)
(5.06339 -8.23673e-08 0)
(5.06339 -3.34584e-09 0)
(5.06339 7.27148e-08 0)
(5.06339 3.53512e-08 0)
(5.06339 2.90499e-08 0)
(5.06339 -1.03063e-07 0)
(5.06339 -1.65434e-07 0)
(5.06339 7.96028e-08 0)
(5.06339 1.01766e-07 0)
(5.06339 -3.87139e-08 0)
(5.06339 -6.80839e-08 0)
(5.06339 -5.68407e-08 0)
(5.06339 5.27687e-08 0)
(5.06339 9.799e-08 0)
(5.06339 -1.57568e-09 0)
(5.06339 -8.32553e-08 0)
(5.06339 -4.34445e-08 0)
(5.06339 7.85953e-08 0)
(5.06339 1.47392e-07 0)
(5.06339 7.31996e-08 0)
(5.06339 -4.39443e-08 0)
(5.06339 -1.01129e-07 0)
(5.06339 -5.0513e-08 0)
(5.06339 4.63951e-08 0)
(5.06339 8.75404e-08 0)
(5.06339 2.83003e-08 0)
(5.06339 -6.80235e-08 0)
(5.06339 -9.65405e-08 0)
(5.06339 -5.30862e-08 0)
(5.06339 7.76465e-09 0)
(5.06339 4.52135e-08 0)
(5.06339 8.40233e-08 0)
(5.06339 6.50542e-08 0)
(5.06339 -1.96132e-08 0)
(5.06339 -6.51771e-08 0)
(5.06339 -3.25433e-08 0)
(5.06339 2.84545e-08 0)
(5.06339 3.6397e-08 0)
(5.06339 1.35555e-09 0)
(5.06339 -6.4005e-08 0)
(5.06339 -7.16714e-08 0)
(5.06338 -4.89769e-08 0)
(5.06339 1.23802e-08 0)
(5.06338 3.84154e-08 0)
(5.0634 3.58748e-08 0)
(5.06337 2.27871e-08 0)
(5.0634 -2.01517e-08 0)
(5.06338 1.9993e-08 0)
(5.06338 2.56693e-08 0)
(5.0634 -2.93282e-08 0)
(5.06338 -2.43065e-08 0)
(5.06339 -2.93334e-08 0)
(5.06339 -1.00415e-08 0)
(8.90911 -0.0242785 0)
(13.2915 -0.841461 0)
(10.6507 1.70295 0)
(9.26462 2.66315 0)
(12.6557 -0.799122 0)
(12.0308 -3.51907 0)
(9.35477 -4.27023 0)
(7.34318 -3.60419 0)
(6.56079 -2.43974 0)
(5.99014 -1.674 0)
(5.73646 -1.23779 0)
(5.83901 -0.898278 0)
(5.82008 -0.683666 0)
(5.62602 -0.554363 0)
(5.43453 -0.436118 0)
(5.30809 -0.319541 0)
(5.22502 -0.218959 0)
(5.16638 -0.142984 0)
(5.12602 -0.0911955 0)
(5.10013 -0.0577861 0)
(5.08451 -0.0365742 0)
(5.07544 -0.023095 0)
(5.07027 -0.0145135 0)
(5.06733 -0.00905925 0)
(5.06567 -0.00561079 0)
(5.06472 -0.00344671 0)
(5.06417 -0.00210023 0)
(5.06385 -0.00126988 0)
(5.06366 -0.000762108 0)
(5.06355 -0.000453803 0)
(5.06348 -0.000268098 0)
(5.06344 -0.000157196 0)
(5.06342 -9.13659e-05 0)
(5.06341 -5.26558e-05 0)
(5.0634 -3.00042e-05 0)
(5.06339 -1.68611e-05 0)
(5.06339 -9.38573e-06 0)
(5.06339 -5.10522e-06 0)
(5.06339 -2.79202e-06 0)
(5.06339 -1.4993e-06 0)
(5.06339 -6.70789e-07 0)
(5.06339 -3.61418e-07 0)
(5.06339 -1.38915e-07 0)
(5.06339 -6.83702e-08 0)
(5.06339 -1.76509e-07 0)
(5.06339 6.64997e-09 0)
(5.06339 7.28264e-08 0)
(5.06339 -5.89912e-08 0)
(5.06339 7.67353e-09 0)
(5.06339 4.43212e-08 0)
(5.06339 -2.50984e-08 0)
(5.06339 3.10778e-08 0)
(5.06339 -2.10681e-08 0)
(5.06339 -8.54183e-08 0)
(5.06339 4.53564e-08 0)
(5.06339 3.63966e-08 0)
(5.06339 -2.31348e-08 0)
(5.06339 -1.43188e-08 0)
(5.06339 -1.958e-08 0)
(5.06339 2.31793e-08 0)
(5.06339 3.45012e-08 0)
(5.06339 3.5764e-09 0)
(5.06339 -1.44177e-08 0)
(5.06339 -1.75309e-08 0)
(5.06339 3.57116e-08 0)
(5.06339 5.79493e-08 0)
(5.06339 1.72088e-08 0)
(5.06339 -7.8656e-09 0)
(5.06339 -2.40684e-08 0)
(5.06339 -2.37461e-08 0)
(5.06339 2.33291e-08 0)
(5.06339 2.81738e-08 0)
(5.06339 -5.91677e-09 0)
(5.06339 -2.29084e-08 0)
(5.06339 -2.56712e-08 0)
(5.06339 -2.10303e-08 0)
(5.06339 4.17448e-09 0)
(5.06339 1.83803e-08 0)
(5.06339 2.66834e-08 0)
(5.06339 2.75446e-08 0)
(5.06339 1.5738e-09 0)
(5.06339 -1.94471e-08 0)
(5.06339 -1.43951e-08 0)
(5.06339 6.16957e-09 0)
(5.06339 4.88062e-09 0)
(5.06339 -1.16449e-08 0)
(5.06339 -4.72585e-08 0)
(5.06339 -3.34272e-08 0)
(5.06338 -1.85642e-08 0)
(5.06339 2.44295e-08 0)
(5.06338 2.28831e-08 0)
(5.0634 -6.76603e-09 0)
(5.06337 1.23661e-08 0)
(5.0634 -3.86277e-08 0)
(5.06338 1.66423e-08 0)
(5.06338 4.64206e-08 0)
(5.0634 -3.63872e-08 0)
(5.06338 3.23008e-08 0)
(5.06339 2.59875e-08 0)
(5.06339 -2.20944e-08 0)
(10.1065 -0.0277754 0)
(12.2697 -1.17735 0)
(9.70035 1.7784 0)
(10.0849 2.52187 0)
(13.059 -0.950599 0)
(12.436 -3.00977 0)
(10.4206 -3.27385 0)
(7.52655 -3.15866 0)
(7.32915 -2.42904 0)
(7.69338 -1.45864 0)
(6.98276 -0.985518 0)
(6.36336 -0.753656 0)
(6.03847 -0.585968 0)
(5.7556 -0.491658 0)
(5.5129 -0.407064 0)
(5.35068 -0.300552 0)
(5.24933 -0.200381 0)
(5.18107 -0.127082 0)
(5.1345 -0.0802248 0)
(5.10482 -0.0513018 0)
(5.08719 -0.0330658 0)
(5.0771 -0.0212625 0)
(5.07135 -0.0135555 0)
(5.06804 -0.00854881 0)
(5.06613 -0.00533188 0)
(5.06501 -0.00329076 0)
(5.06435 -0.00201143 0)
(5.06396 -0.00121837 0)
(5.06373 -0.000731999 0)
(5.06359 -0.000436215 0)
(5.06351 -0.000257637 0)
(5.06346 -0.000150959 0)
(5.06343 -8.78105e-05 0)
(5.06341 -5.05881e-05 0)
(5.0634 -2.86604e-05 0)
(5.06339 -1.61124e-05 0)
(5.06339 -9.07648e-06 0)
(5.06339 -4.89554e-06 0)
(5.06339 -2.62957e-06 0)
(5.06339 -1.42233e-06 0)
(5.06339 -6.47923e-07 0)
(5.06339 -2.98878e-07 0)
(5.06339 -3.68266e-08 0)
(5.06339 -3.09942e-08 0)
(5.06339 -2.19805e-07 0)
(5.06339 2.65241e-08 0)
(5.06339 1.17256e-07 0)
(5.06339 -7.90837e-08 0)
(5.06339 7.62793e-09 0)
(5.06339 6.73129e-08 0)
(5.06339 1.76517e-08 0)
(5.06339 2.58991e-08 0)
(5.06339 -7.33069e-08 0)
(5.06339 -1.4365e-07 0)
(5.06339 5.1721e-08 0)
(5.06339 9.30532e-08 0)
(5.06339 -4.35766e-08 0)
(5.06339 -4.95513e-08 0)
(5.06339 -4.07932e-08 0)
(5.06339 3.16884e-08 0)
(5.06339 8.12832e-08 0)
(5.06339 5.36329e-11 0)
(5.06339 -6.24656e-08 0)
(5.06339 -3.23022e-08 0)
(5.06339 6.1532e-08 0)
(5.06339 1.21361e-07 0)
(5.06339 5.88243e-08 0)
(5.06339 -3.11719e-08 0)
(5.06339 -7.3484e-08 0)
(5.06339 -3.88658e-08 0)
(5.06339 3.4971e-08 0)
(5.06339 6.52586e-08 0)
(5.06339 1.52752e-08 0)
(5.06339 -5.51013e-08 0)
(5.06339 -7.40993e-08 0)
(5.06339 -4.42311e-08 0)
(5.06339 3.79395e-09 0)
(5.06339 3.54833e-08 0)
(5.06339 6.62449e-08 0)
(5.06339 5.85398e-08 0)
(5.06339 -6.80508e-09 0)
(5.06339 -5.08063e-08 0)
(5.06339 -2.73244e-08 0)
(5.06339 2.29776e-08 0)
(5.06339 2.50943e-08 0)
(5.06339 -6.70122e-09 0)
(5.06339 -6.30515e-08 0)
(5.06339 -5.61487e-08 0)
(5.06338 -4.00157e-08 0)
(5.06339 2.21261e-08 0)
(5.06338 3.58974e-08 0)
(5.0634 1.37736e-08 0)
(5.06337 3.67177e-08 0)
(5.0634 -4.68522e-08 0)
(5.06338 3.15802e-08 0)
(5.06338 4.67886e-08 0)
(5.0634 -5.57048e-08 0)
(5.06338 -1.84439e-09 0)
(5.06339 -1.03249e-08 0)
(5.06339 -2.70704e-08 0)
(11.0055 -0.273154 0)
(10.7167 -0.860367 0)
(9.18423 2.12427 0)
(11.114 2.21585 0)
(13.1655 -0.975558 0)
(11.6978 -3.26944 0)
(11.0064 -3.44933 0)
(8.27462 -2.76364 0)
(5.34608 -2.3931 0)
(5.44136 -1.71652 0)
(5.74681 -1.12592 0)
(5.73607 -0.82851 0)
(5.72252 -0.614447 0)
(5.65895 -0.454877 0)
(5.52154 -0.364511 0)
(5.37646 -0.284472 0)
(5.26684 -0.200594 0)
(5.19283 -0.129928 0)
(5.14339 -0.0812288 0)
(5.11118 -0.0508248 0)
(5.09125 -0.0321327 0)
(5.07948 -0.0204145 0)
(5.0727 -0.0129367 0)
(5.06883 -0.00813797 0)
(5.06659 -0.00507122 0)
(5.06529 -0.00312942 0)
(5.06452 -0.00191294 0)
(5.06406 -0.00115893 0)
(5.06379 -0.000696396 0)
(5.06363 -0.000414804 0)
(5.06353 -0.00024492 0)
(5.06347 -0.000143557 0)
(5.06344 -8.33466e-05 0)
(5.06342 -4.78804e-05 0)
(5.0634 -2.71899e-05 0)
(5.0634 -1.52838e-05 0)
(5.06339 -8.5109e-06 0)
(5.06339 -4.59009e-06 0)
(5.06339 -2.48107e-06 0)
(5.06339 -1.28457e-06 0)
(5.06339 -5.3577e-07 0)
(5.06339 -3.20213e-07 0)
(5.06339 -1.32476e-07 0)
(5.06339 -3.50838e-08 0)
(5.06339 -1.59269e-07 0)
(5.06339 1.74657e-08 0)
(5.06339 9.19649e-08 0)
(5.06339 -6.68939e-08 0)
(5.06339 7.11965e-09 0)
(5.06339 4.90277e-08 0)
(5.06339 -3.52982e-08 0)
(5.06339 2.47155e-08 0)
(5.06339 -1.39361e-08 0)
(5.06339 -9.45546e-08 0)
(5.06339 3.85335e-08 0)
(5.06339 4.33083e-08 0)
(5.06339 -3.0623e-08 0)
(5.06339 -1.3606e-08 0)
(5.06339 -1.43627e-08 0)
(5.06339 1.75471e-08 0)
(5.06339 3.52168e-08 0)
(5.06339 6.74348e-09 0)
(5.06339 -1.32904e-08 0)
(5.06339 -1.28973e-08 0)
(5.06339 3.80511e-08 0)
(5.06339 5.97859e-08 0)
(5.06339 1.69189e-08 0)
(5.06339 -1.06284e-08 0)
(5.06339 -2.23184e-08 0)
(5.06339 -2.00703e-08 0)
(5.06339 2.30012e-08 0)
(5.06339 2.43007e-08 0)
(5.06339 -1.18438e-08 0)
(5.06339 -2.41054e-08 0)
(5.06339 -2.5161e-08 0)
(5.06339 -2.15612e-08 0)
(5.06339 5.97408e-09 0)
(5.06339 1.92136e-08 0)
(5.06339 2.64008e-08 0)
(5.06339 2.95658e-08 0)
(5.06339 4.33292e-09 0)
(5.06339 -1.92437e-08 0)
(5.06339 -1.36934e-08 0)
(5.06339 8.95115e-09 0)
(5.06339 1.77708e-09 0)
(5.06339 -1.64981e-08 0)
(5.06339 -5.80443e-08 0)
(5.06339 -3.08062e-08 0)
(5.06338 -1.58901e-08 0)
(5.06339 3.66861e-08 0)
(5.06338 2.64298e-08 0)
(5.0634 -1.96775e-08 0)
(5.06337 2.62414e-08 0)
(5.0634 -6.20524e-08 0)
(5.06338 2.45459e-08 0)
(5.06338 6.31913e-08 0)
(5.0634 -7.33722e-08 0)
(5.06338 4.83128e-08 0)
(5.06339 3.95205e-08 0)
(5.06339 -3.57912e-08 0)
(10.8673 -0.108721 0)
(10.5829 -0.844204 0)
(8.93258 1.62329 0)
(11.6519 1.82414 0)
(13.2093 -0.905567 0)
(11.51 -2.65085 0)
(9.54767 -2.95244 0)
(10.1796 -2.26552 0)
(8.28159 -1.68315 0)
(6.71899 -1.27558 0)
(6.37933 -0.850912 0)
(6.03796 -0.637598 0)
(5.7743 -0.550319 0)
(5.63817 -0.4445 0)
(5.52785 -0.325465 0)
(5.40529 -0.222011 0)
(5.28748 -0.144133 0)
(5.19845 -0.0920687 0)
(5.14222 -0.0597663 0)
(5.10972 -0.0396915 0)
(5.0911 -0.0265668 0)
(5.08012 -0.0176407 0)
(5.07348 -0.0115331 0)
(5.06946 -0.00740938 0)
(5.06702 -0.0046807 0)
(5.06556 -0.00291299 0)
(5.06469 -0.00178959 0)
(5.06417 -0.00108713 0)
(5.06385 -0.000653946 0)
(5.06366 -0.000389676 0)
(5.06355 -0.000230082 0)
(5.06348 -0.000134673 0)
(5.06344 -7.80706e-05 0)
(5.06342 -4.48684e-05 0)
(5.06341 -2.5385e-05 0)
(5.0634 -1.41798e-05 0)
(5.06339 -7.93248e-06 0)
(5.06339 -4.25721e-06 0)
(5.06339 -2.26108e-06 0)
(5.06339 -1.17663e-06 0)
(5.06339 -5.23412e-07 0)
(5.06339 -3.17592e-07 0)
(5.06339 -7.74786e-08 0)
(5.06339 1.17761e-08 0)
(5.06339 -1.64667e-07 0)
(5.06339 2.96462e-08 0)
(5.06339 1.16265e-07 0)
(5.06339 -7.61326e-08 0)
(5.06339 1.24821e-08 0)
(5.06339 5.97558e-08 0)
(5.06339 1.1737e-09 0)
(5.06339 2.4675e-08 0)
(5.06339 -5.15485e-08 0)
(5.06339 -1.2246e-07 0)
(5.06339 3.1081e-08 0)
(5.06339 8.18461e-08 0)
(5.06339 -4.0616e-08 0)
(5.06339 -3.92502e-08 0)
(5.06339 -2.50969e-08 0)
(5.06339 1.58528e-08 0)
(5.06339 6.43948e-08 0)
(5.06339 3.69516e-09 0)
(5.06339 -4.68067e-08 0)
(5.06339 -2.2777e-08 0)
(5.06339 4.77461e-08 0)
(5.06339 9.75855e-08 0)
(5.06339 4.68216e-08 0)
(5.06339 -2.28662e-08 0)
(5.06339 -5.0493e-08 0)
(5.06339 -2.89936e-08 0)
(5.06339 2.49202e-08 0)
(5.06339 4.74894e-08 0)
(5.06339 5.21254e-09 0)
(5.06339 -4.41368e-08 0)
(5.06339 -5.31219e-08 0)
(5.06339 -3.68913e-08 0)
(5.06339 -1.42079e-09 0)
(5.06339 2.82442e-08 0)
(5.06339 5.16147e-08 0)
(5.06339 4.98642e-08 0)
(5.06339 5.12216e-10 0)
(5.06339 -3.73996e-08 0)
(5.06339 -2.23242e-08 0)
(5.06339 1.81045e-08 0)
(5.06339 1.5326e-08 0)
(5.06339 -9.25065e-09 0)
(5.06339 -6.0544e-08 0)
(5.06339 -4.00091e-08 0)
(5.06338 -3.32311e-08 0)
(5.06339 2.94842e-08 0)
(5.06338 3.1033e-08 0)
(5.0634 -5.69971e-09 0)
(5.06337 4.90495e-08 0)
(5.0634 -7.1917e-08 0)
(5.06338 4.4669e-08 0)
(5.06338 6.60605e-08 0)
(5.0634 -8.96571e-08 0)
(5.06338 3.17672e-08 0)
(5.06339 6.9324e-09 0)
(5.06339 -4.66492e-08 0)
(11.3877 -0.194751 0)
(9.84033 -0.55063 0)
(8.97452 1.55051 0)
(11.551 1.33686 0)
(12.6236 -0.878837 0)
(11.9896 -2.36615 0)
(8.504 -2.86205 0)
(7.26742 -2.60247 0)
(7.42774 -2.06321 0)
(6.94848 -1.57463 0)
(6.80963 -1.116 0)
(6.4075 -0.748888 0)
(5.92414 -0.525048 0)
(5.64247 -0.430423 0)
(5.49316 -0.3655 0)
(5.39576 -0.278204 0)
(5.31049 -0.186138 0)
(5.22955 -0.114713 0)
(5.16422 -0.0695857 0)
(5.12085 -0.043066 0)
(5.09568 -0.0272461 0)
(5.08187 -0.0173906 0)
(5.07425 -0.0110774 0)
(5.0699 -0.00700269 0)
(5.06733 -0.00438304 0)
(5.06577 -0.00271462 0)
(5.06483 -0.00166389 0)
(5.06426 -0.00100959 0)
(5.06391 -0.000606899 0)
(5.0637 -0.00036139 0)
(5.06357 -0.000213103 0)
(5.0635 -0.000124611 0)
(5.06345 -7.21589e-05 0)
(5.06342 -4.13077e-05 0)
(5.06341 -2.32968e-05 0)
(5.0634 -1.3022e-05 0)
(5.06339 -7.25076e-06 0)
(5.06339 -3.85571e-06 0)
(5.06339 -2.05223e-06 0)
(5.06339 -1.05037e-06 0)
(5.06339 -4.19229e-07 0)
(5.06339 -2.84956e-07 0)
(5.06339 -1.17808e-07 0)
(5.06339 2.10026e-08 0)
(5.06339 -1.13087e-07 0)
(5.06339 3.18407e-08 0)
(5.06339 1.02705e-07 0)
(5.06339 -6.91315e-08 0)
(5.06339 8.39904e-09 0)
(5.06339 5.14965e-08 0)
(5.06339 -4.27851e-08 0)
(5.06339 1.60744e-08 0)
(5.06339 -5.42612e-09 0)
(5.06339 -9.31319e-08 0)
(5.06339 2.66133e-08 0)
(5.06339 4.88976e-08 0)
(5.06339 -3.46445e-08 0)
(5.06339 -1.31875e-08 0)
(5.06339 -7.45162e-09 0)
(5.06339 1.04914e-08 0)
(5.06339 3.36125e-08 0)
(5.06339 9.3679e-09 0)
(5.06339 -1.1996e-08 0)
(5.06339 -8.86566e-09 0)
(5.06339 3.77748e-08 0)
(5.06339 5.96104e-08 0)
(5.06339 1.5169e-08 0)
(5.06339 -1.26308e-08 0)
(5.06339 -1.87783e-08 0)
(5.06339 -1.67126e-08 0)
(5.06339 2.11057e-08 0)
(5.06339 2.16609e-08 0)
(5.06339 -1.74979e-08 0)
(5.06339 -2.50201e-08 0)
(5.06339 -2.18667e-08 0)
(5.06339 -2.18705e-08 0)
(5.06339 5.58264e-09 0)
(5.06339 2.14968e-08 0)
(5.06339 2.63233e-08 0)
(5.06339 2.81136e-08 0)
(5.06339 6.15348e-09 0)
(5.06339 -1.76163e-08 0)
(5.06339 -1.29496e-08 0)
(5.06339 1.08844e-08 0)
(5.06339 -1.72724e-09 0)
(5.06339 -1.88308e-08 0)
(5.06339 -6.41772e-08 0)
(5.06339 -2.4248e-08 0)
(5.06338 -1.64072e-08 0)
(5.06339 4.7287e-08 0)
(5.06338 2.51334e-08 0)
(5.0634 -3.09429e-08 0)
(5.06337 4.61454e-08 0)
(5.0634 -8.97167e-08 0)
(5.06338 4.02986e-08 0)
(5.06338 7.67408e-08 0)
(5.0634 -1.13048e-07 0)
(5.06338 7.01516e-08 0)
(5.06339 4.93094e-08 0)
(5.06339 -5.12975e-08 0)
(11.0377 -0.101679 0)
(9.72161 -0.387668 0)
(9.61793 1.14882 0)
(11.1594 1.16328 0)
(12.2606 -0.765424 0)
(11.4237 -2.15298 0)
(9.7833 -2.35341 0)
(7.35839 -1.94843 0)
(6.79434 -1.48806 0)
(6.43267 -1.10347 0)
(6.55779 -0.731186 0)
(6.62284 -0.516823 0)
(6.2059 -0.419228 0)
(5.81141 -0.309151 0)
(5.56459 -0.214801 0)
(5.38284 -0.141794 0)
(5.25711 -0.0878476 0)
(5.18431 -0.0544056 0)
(5.14245 -0.036262 0)
(5.11535 -0.0260258 0)
(5.0966 -0.0189794 0)
(5.08392 -0.0134863 0)
(5.0758 -0.00922838 0)
(5.07082 -0.00609517 0)
(5.06783 -0.00391106 0)
(5.06605 -0.00245428 0)
(5.06499 -0.00151396 0)
(5.06435 -0.000921118 0)
(5.06396 -0.000554091 0)
(5.06373 -0.000329742 0)
(5.06359 -0.000194248 0)
(5.06351 -0.000113443 0)
(5.06346 -6.54692e-05 0)
(5.06343 -3.73568e-05 0)
(5.06341 -2.10274e-05 0)
(5.0634 -1.16941e-05 0)
(5.06339 -6.49118e-06 0)
(5.06339 -3.41402e-06 0)
(5.06339 -1.77812e-06 0)
(5.06339 -8.92139e-07 0)
(5.06339 -3.60848e-07 0)
(5.06339 -2.89359e-07 0)
(5.06339 -9.50712e-08 0)
(5.06339 6.11121e-08 0)
(5.06339 -9.73464e-08 0)
(5.06339 3.93121e-08 0)
(5.06339 1.10144e-07 0)
(5.06339 -7.38274e-08 0)
(5.06339 1.26524e-08 0)
(5.06339 5.20204e-08 0)
(5.06339 -1.40675e-08 0)
(5.06339 2.3491e-08 0)
(5.06339 -3.14804e-08 0)
(5.06339 -1.05014e-07 0)
(5.06339 1.61431e-08 0)
(5.06339 7.02659e-08 0)
(5.06339 -3.44256e-08 0)
(5.06339 -3.20578e-08 0)
(5.06339 -1.32837e-08 0)
(5.06339 5.81634e-09 0)
(5.06339 4.8622e-08 0)
(5.06339 7.8857e-09 0)
(5.06339 -3.48669e-08 0)