/*--------------------------------*- C++ -*----------------------------------*\
| =========                 |                                                 |
| \\      /  F ield         | OpenFOAM: The Open Source CFD Toolbox           |
|  \\    /   O peration     | Version:  2.4.0                                 |
|   \\  /    A nd           | Web:      www.OpenFOAM.org                      |
|    \\/     M anipulation  |                                                 |
\*---------------------------------------------------------------------------*/
FoamFile
{
    version     2.0;
    format      ascii;
    class       volScalarField;
    location    "0.27";
    object      p;
}
// * * * * * * * * * * * * * * * * * * * * * * * * * * * * * * * * * * * * * //

dimensions      [0 2 -2 0 0 0 0];

internalField   nonuniform List<scalar> 
8800
(
98.8942
86.524
79.1403
75.611
73.7169
72.3159
71.1292
70.0102
69.008
68.0275
67.1057
66.1855
65.2911
64.4417
63.6627
62.8521
62.1996
61.6503
61.0193
60.8222
95.7804
86.1697
79.3101
75.7256
73.7762
72.3409
71.1372
70.0104
69.0059
68.0253
67.1024
66.1841
65.2873
64.4387
63.6615
62.8472
62.196
61.6548
61.0143
60.6712
93.8135
86.2461
79.9147
76.1017
73.9429
72.4189
71.1834
70.0421
69.0299
68.0423
67.1118
66.1889
65.2862
64.4341
63.6575
62.833
62.1847
61.6356
61.0178
60.5017
92.2763
86.3072
80.5044
76.5263
74.1272
72.5048
71.2438
70.0972
69.0783
68.0804
67.1374
66.2059
65.2926
64.4331
63.6498
62.8113
62.1553
61.5842
60.9883
60.5145
91.0257
86.2806
80.9835
76.9338
74.2966
72.5712
71.2894
70.1531
69.1325
68.1315
67.1704
66.2316
65.3016
64.435
63.6329
62.7902
62.0965
61.5029
60.8212
60.6694
90.0398
86.1848
81.3517
77.2832
74.4504
72.6146
71.3143
70.1979
69.181
68.1811
67.2024
66.2589
65.31
64.435
63.6086
62.7613
62.0354
61.4036
60.7227
60.9576
89.2814
86.0736
81.6208
77.5654
74.59
72.6439
71.3212
70.2301
69.2191
68.2218
67.2315
66.279
65.3195
64.4267
63.5879
62.727
61.9739
61.3341
60.7049
61.0765
88.7295
85.9752
81.8035
77.7791
74.7159
72.6628
71.3159
70.2517
69.2489
68.2522
67.2525
66.2948
65.3235
64.4179
63.563
62.6966
61.9318
61.2707
60.7367
61.2066
88.371
85.9023
81.918
77.923
74.8042
72.6753
71.3087
70.2636
69.2685
68.2728
67.2673
66.302
65.3251
64.4064
63.5443
62.6719
61.8958
61.2333
60.7359
61.2929
88.1954
85.8636
81.9729
77.9955
74.8497
72.6809
71.3035
70.2684
69.2792
68.2825
67.2733
66.3044
65.3236
64.3957
63.5289
62.6525
61.8709
61.1958
60.7511
61.3677
88.1944
85.8655
81.9723
77.9952
74.8498
72.6814
71.3021
70.268
69.2789
68.2807
67.2715
66.3008
65.319
64.3865
63.5159
62.6422
61.8503
61.1712
60.7124
61.4132
88.3681
85.9078
81.9158
77.9225
74.806
72.676
71.3036
70.2634
69.2681
68.2673
67.2599
66.2937
65.3134
64.3772
63.508
62.6362
61.8334
61.1522
60.686
61.3683
88.7244
85.9836
81.8007
77.778
74.7181
72.6646
71.3085
70.2515
69.2471
68.2434
67.2407
66.2806
65.3046
64.3695
63.5033
62.6373
61.8262
61.1315
60.6445
61.3146
89.2741
86.0844
81.617
77.5635
74.5922
72.6466
71.3099
70.2317
69.2162
68.2098
67.2122
66.2613
65.2944
64.3613
63.5024
62.6441
61.8246
61.1269
60.59
61.1583
90.0308
86.1976
81.3483
77.279
74.4528
72.6176
71.3016
70.2004
69.1761
68.1656
67.1778
66.236
65.2806
64.3497
63.5028
62.656
61.837
61.1304
60.5466
60.9533
91.015
86.2943
80.9811
76.9278
74.2995
72.5739
71.2738
70.1574
69.1264
68.1123
67.1383
66.2069
65.2673
64.3344
63.5039
62.6679
61.8581
61.1532
60.5393
60.6621
92.2636
86.3213
80.504
76.5193
74.13
72.5081
71.2247
70.1027
69.0714
68.058
67.1
66.1784
65.2536
64.3192
63.5056
62.6762
61.8872
61.177
60.5751
60.3674
93.8008
86.2582
79.9166
76.0943
73.9459
72.4218
71.1628
70.0472
69.0233
68.0167
67.0726
66.1579
65.2442
64.3122
63.5077
62.6823
61.9109
61.1992
60.6292
60.2184
95.7675
86.1799
79.3136
75.7183
73.7785
72.3431
71.1168
70.0148
68.9989
67.9991
67.0625
66.1513
65.2421
64.3152
63.5103
62.6886
61.9234
61.2133
60.618
60.1152
98.8818
86.5334
79.1436
75.6043
73.7192
72.3173
71.1099
70.0144
68.9999
68.002
67.0659
66.1526
65.2435
64.319
63.5125
62.6903
61.927
61.2175
60.6229
60.2429
61.0352
60.6329
59.1864
57.1287
55.2189
53.8537
53.2817
53.5618
54.4575
55.4784
56.3327
56.9345
57.3081
57.4979
57.5756
57.5781
57.5672
57.6032
57.7183
57.949
58.2852
58.7314
59.2935
59.9334
60.6065
61.2365
61.6852
61.8181
61.5682
60.8097
59.4455
57.7096
56.0581
54.6605
53.5828
52.8844
52.5109
52.5155
52.7906
53.2581
53.877
54.4895
55.0151
55.3109
55.4376
55.4558
55.6226
56.2725
57.3924
59.1857
61.2784
63.2674
64.9394
65.7869
65.7395
64.8036
63.2701
61.3907
59.2362
57.0662
54.9111
52.582
50.4506
48.3632
46.2134
44.4493
42.8499
41.289
40.0929
39.1484
38.5122
38.3106
38.2466
38.4387
39.2146
40.2549
41.3278
42.7811
44.6014
46.4621
48.2859
50.0222
51.7422
53.0071
53.6583
54.2187
54.5264
54.1098
53.3064
52.0466
50.4459
48.8863
46.3868
43.8345
42.0541
39.8439
37.6411
36.5641
35.8452
35.2288
35.6407
36.6572
37.9104
39.7634
42.5153
45.6491
49.3123
54.1772
59.7108
65.1178
69.7627
73.499
76.333
78.763
80.7988
82.4133
83.6066
84.6162
85.4771
86.3438
86.9243
86.8984
86.327
85.5984
85.0256
84.8433
84.9108
84.7314
83.7069
81.5105
78.1301
74.4105
70.3795
66.0435
62.1858
59.8149
58.9033
59.0094
59.7901
60.6672
61.9199
63.6106
65.1633
66.2113
67.6757
69.1785
69.7842
69.9831
69.5815
68.2961
65.5081
61.6753
58.2572
54.471
50.0297
45.3073
41.9492
39.2545
36.7156
34.9997
33.8198
33.1097
33.2106
33.8421
34.682
36.6814
39.2881
41.9235
44.7818
48.9916
53.8904
59.3254
65.5524
70.8459
74.874
77.8262
79.7681
81.2097
82.0412
82.6255
83.0828
83.1749
83.5387
83.6613
83.7496
83.8122
83.95
84.2714
84.5126
84.4486
83.9059
82.9962
81.6497
79.7056
76.8136
72.5867
65.8993
56.4471
42.9591
1.63393
60.4903
60.2182
59.2178
57.4299
55.5671
54.1728
53.5037
53.7358
54.519
55.4787
56.2997
56.8785
57.247
57.4296
57.5283
57.5523
57.5507
57.6133
57.7207
57.953
58.2944
58.7116
59.2701
59.8609
60.4738
61.0517
61.3869
61.4983
61.2366
60.5299
59.4269
57.8708
56.3543
55.0776
53.9931
53.3562
52.989
52.894
53.125
53.4774
53.9514
54.4924
54.9526
55.2195
55.4389
55.5569
55.7789
56.4875
57.4577
58.9605
60.7877
62.5159
64.0576
64.7897
64.8192
64.3219
63.065
61.3611
59.3031
57.2556
55.3359
53.169
51.1535
49.3097
47.3683
45.7722
44.4136
43.0503
42.0559
41.2829
40.683
40.6241
40.7858
41.045
41.7947
43.0129
44.3243
45.7442
47.4997
49.349
50.9556
52.2187
53.4828
54.6984
55.1415
55.0844
54.9498
54.2509
53.0103
51.2333
48.9139
46.6089
43.7048
40.4804
37.9856
35.5466
33.1264
31.837
31.0871
30.5425
31.048
32.0722
33.4727
35.6323
38.5028
41.4214
44.9543
50.2633
56.5031
62.7016
68.2145
72.7163
75.888
78.6146
80.7045
82.271
83.416
84.5601
85.6127
86.711
87.3941
87.422
86.9315
86.368
86.1228
86.2439
86.5472
86.4301
85.4232
83.4867
80.582
76.3199
71.3834
65.9791
61.2999
57.9659
55.7805
54.7008
54.2789
54.2608
55.1419
56.8964
58.6069
60.0831
62.1779
64.4724
65.9592
67.1219
67.5915
66.7833
64.7983
61.9101
59.1214
55.6869
51.7269
47.5993
44.3412
41.5974
38.7851
37.2307
36.1389
35.4644
35.5218
36.1483
36.7238
38.4512
40.9572
43.4338
46.1044
50.1177
54.7866
60.3066
66.0711
70.8702
74.5927
77.0205
78.5697
79.5871
80.0834
80.2902
80.4065
80.1977
79.8724
79.6351
79.7128
79.5911
79.6727
80.1281
80.5915
80.6862
80.1972
79.1375
77.4596
75.1471
71.3001
65.9618
57.9234
45.0067
30.5283
-9.56245
60.1623
59.8956
59.1663
57.7754
56.1078
54.772
54.0551
54.0584
54.6475
55.5002
56.2813
56.8508
57.2175
57.3912
57.4979
57.5511
57.5673
57.6612
57.7685
57.9925
58.3365
58.7045
59.2328
59.7559
60.2621
60.7615
60.9971
61.0684
60.8351
60.1981
59.314
58.0065
56.6843
55.5052
54.4819
53.8836
53.475
53.3568
53.4974
53.7344
54.1446
54.5603
54.9732
55.2526
55.5369
55.7866
56.0392
56.7682
57.589
58.7961
60.3875
61.7653
63.0978
63.8257
63.9202
63.6205
62.4735
61.035
59.3475
57.3555
55.653
53.8492
52.025
50.4627
48.8184
47.3767
46.229
45.0716
44.2254
43.7437
43.3008
43.2647
43.7001
44.2142
44.9727
46.176
47.5815
48.9874
50.3967
51.9589
53.5211
54.7256
55.5447
56.2546
56.5698
56.2994
55.7945
54.8016
53.1069
50.735
47.8135
44.6836
41.347
37.8266
34.672
31.9269
29.4216
27.8192
26.9871
26.6442
27.1264
28.2542
30.0452
32.4394
35.1887
37.9261
41.3158
46.4493
53.0218
60.1923
66.7849
71.8286
75.2364
78.1764
80.418
82.0667
83.4086
84.7173
85.9377
87.1107
87.8796
88.0281
87.6648
87.2523
87.2928
87.5412
87.8675
87.8062
87.0141
85.3948
82.208
77.2384
71.2927
64.9497
59.4028
55.2946
52.1071
50.047
48.8518
48.1991
48.7796
50.5991
52.5778
54.5116
57.1756
60.1991
62.8118
64.7431
66.0638
66.007
65.0248
63.1557
60.6064
57.8384
54.403
50.5488
47.2396
44.4424
41.7236
40.1292
39.029
38.2807
38.3934
38.9172
39.3583
40.9302
43.2838
45.4049
47.9448
51.8044
56.2911
61.7642
66.8362
71.299
74.698
76.4773
77.8065
78.2624
78.4154
78.2903
77.8599
77.1741
76.172
75.3779
74.7446
74.8994
75.0167
75.4623
76.2917
76.5205
76.2191
75.3991
73.2413
70.2681
65.8218
59.5822
51.8798
35.96
21.9116
-6.59483
59.9271
59.6117
58.9943
57.8889
56.5076
55.3171
54.5753
54.4468
54.836
55.5619
56.2784
56.8348
57.2511
57.4171
57.5463
57.611
57.6187
57.757
57.8394
58.0569
58.3873
58.6712
59.1676
59.5884
59.9735
60.4091
60.5214
60.5988
60.3949
59.825
59.1978
58.1003
57.0039
56.0057
55.0022
54.4902
54.0445
53.8453
53.9906
54.0935
54.4197
54.798
55.1341
55.427
55.7754
56.1037
56.3645
57.084
57.7912
58.6954
60.0829
61.1139
62.1671
62.947
62.9209
62.6733
61.8342
60.6248
59.3026
57.596
56.0009
54.5439
52.9998
51.6574
50.3651
49.137
48.1909
47.3356
46.6416
46.3694
46.2563
46.224
46.707
47.4776
48.2449
49.3294
50.6912
52.0641
53.3481
54.6558
55.9359
56.8546
57.5101
58.1531
58.4795
58.13
57.172
55.6889
53.5621
50.5618
47.1517
43.4689
39.5909
35.721
32.0257
28.832
26.1652
24.3801
23.3337
23.011
23.5712
24.8972
27.0776
29.6576
32.4597
35.1893
38.4636
43.2773
50.0461
57.6923
65.0966
70.6164
74.6642
77.8904
80.363
81.9206
83.3127
84.7572
86.1844
87.3955
88.2245
88.4719
88.2674
88.1327
88.2788
88.5223
88.8805
89.1204
88.6084
86.883
83.0005
76.9963
69.9946
62.9699
56.7803
52.0193
48.24
45.494
43.7098
42.7751
43.264
45.1097
47.3597
49.7199
52.9779
56.8388
60.5371
63.2595
65.3953
66.3674
66.1331
65.0683
62.9546
60.7067
57.4996
53.7475
50.6348
47.9274
45.3108
43.5779
42.483
41.6613
41.6415
42.135
42.5968
43.937
46.0805
47.9415
50.2739
53.9704
58.492
63.4648
68.1457
72.4385
75.0744
76.4327
77.3294
77.2896
77.146
76.3764
75.3761
74.1096
72.4783
71.125
70.5341
70.326
70.3097
70.8861
71.8281
72.3065
72.0911
71.4593
69.1912
65.4835
60.4719
52.7896
47.08
30.0612
15.9137
-2.81696
61.2132
60.5213
58.9857
57.5182
56.3207
55.4196
54.8989
54.8545
55.1606
55.7675
56.3801
56.9052
57.3322
57.4996
57.6488
57.7063
57.7071
57.8688
57.9393
58.1479
58.4427
58.637
59.0658
59.3684
59.6579
60.015
60.0286
60.1337
59.9506
59.459
59.0719
58.1471
57.3083
56.5207
55.5497
55.1565
54.6893
54.3932
54.5695
54.534
54.8045
55.1684
55.3944
55.7538
56.0714
56.447
56.7804
57.3303
58.0224
58.7211
59.7552
60.6223
61.3961
62.0408
62.0217
61.8183
61.2536
60.2259
59.1545
57.8351
56.4568
55.1954
53.9238
52.8794
51.9477
50.9192
50.1723
49.652
49.118
48.9327
49.126
49.2648
49.6153
50.4836
51.4014
52.2989
53.5575
54.8825
55.9382
56.9774
58.2046
59.3139
59.9978
60.4221
60.6164
60.1715
58.9432
57.0422
54.4699
50.9575
47.0078
42.8302
38.3841
33.8839
29.621
25.8313
22.6709
20.603
19.389
19.0403
19.57
21.1129
23.7108
26.8628
30.084
33.0194
36.2223
40.8194
47.6395
55.5637
63.6271
69.6108
74.1799
77.4706
80.0203
81.6656
83.3332
84.9091
86.3921
87.6512
88.4074
88.7314
88.7786
88.8165
88.9155
89.3278
89.9012
90.3868
89.8386
87.4797
82.437
75.3703
67.5444
60.1882
53.7932
48.6001
44.4212
41.3725
39.2849
38.1834
38.7604
40.7568
43.2501
45.9639
49.8888
54.5375
59.1102
62.8232
65.6358
67.5648
68.0452
67.5404
65.7871
63.5997
60.6106
57.2989
54.5425
51.9018
49.2859
47.5374
46.4326
45.5414
45.3443
45.758
46.1625
47.2793
49.1837
50.744
52.9441
56.5549
61.2335
65.8204
70.1297
73.8516
75.7424
76.9763
77.2541
76.8314
76.2045
74.8408
73.1727
71.2542
68.9151
66.9629
66.2084
65.7955
65.7617
66.4854
67.6308
68.4143
68.7996
67.8361
65.2455
60.5462
56.154
46.1674
41.8768
27.4026
12.717
-0.69981
62.0203
61.1217
59.0686
57.3443
56.1457
55.4467
55.1148
55.226
55.5204
56.036
56.5875
57.0271
57.4515
57.6411
57.803
57.8765
57.8494
57.9813
58.0475
58.2085
58.4554
58.5847
58.9208
59.1699
59.3683
59.66
59.637
59.7035
59.6023
59.1745
58.8986
58.2133
57.5176
56.9879
56.1267
55.7175
55.3915
54.9807
55.1072
55.108
55.2165
55.5862
55.7815
56.0828
56.4307
56.7812
57.1283
57.5877
58.1994
58.7327
59.4734
60.2208
60.7516
61.2283
61.3457
61.1389
60.6959
59.9278
59.0611
58.0593
56.9357
55.8701
54.8562
54.0739
53.4197
52.5906
52.0165
51.7904
51.4589
51.3316
51.6912
52.0337
52.3367
53.1591
54.1999
55.0011
55.996
57.294
58.431
59.467
60.6444
61.728
62.4836
62.9272
63.0845
62.5867
61.1168
58.8503
55.803
51.8544
47.418
42.5782
37.4159
32.1692
27.1165
22.5951
18.7961
16.2828
14.9378
14.5566
14.9414
16.6712
19.9081
23.8893
27.7538
31.0686
34.3716
39.0369
45.9525
54.1148
62.2971
68.7248
73.5981
77.1846
79.7178
81.482
83.3104
85.0033
86.5256
87.8596
88.5984
89.0719
89.2795
89.4171
89.629
90.1479
90.9637
91.3497
90.2437
86.8003
80.5782
72.6381
64.4163
56.9742
50.6636
45.3947
41.1451
37.985
35.8027
34.8508
35.5367
37.6178
40.3304
43.4195
47.8183
53.1841
58.6967
63.3679
66.8291
69.5183
70.4915
70.1211
68.4549
66.4696
64.0879
61.2711
58.6652
56.0969
53.6269
51.8315
50.647
49.7458
49.4473
49.6378
49.8752
50.8919
52.6262
54.0542
56.0914
59.4202
63.7309
68.3564
72.6393
75.4701
76.883
77.7153
77.4959
76.844
75.6479
73.9479
71.6265
69.0093
65.9811
63.5391
62.3774
61.6783
61.5278
62.3796
64.2805
64.9306
66.3132
64.7561
62.4308
54.8003
51.4378
41.4363
35.3061
25.832
12.1779
1.6907
62.6163
61.8591
59.5187
57.5485
56.1702
55.5442
55.3064
55.4631
55.8559
56.2624
56.8159
57.2165
57.567
57.8101
57.934
58.0367
57.9875
58.0425
58.1348
58.2333
58.4428
58.5428
58.7637
59.0068
59.126
59.3439
59.3586
59.3469
59.3373
58.9999
58.7484
58.2994
57.6879
57.3149
56.6592
56.2084
56.0012
55.5901
55.6092
55.6591
55.664
55.9877
56.1703
56.4272
56.7842
57.0546
57.4162
57.7936
58.245
58.7275
59.2397
59.8216
60.2641
60.6198
60.7931
60.6144
60.2571
59.7541
59.0751
58.2524
57.4291
56.6327
55.7732
55.1708
54.7771
54.1641
53.7107
53.7044
53.6264
53.527
53.9481
54.4958
54.8118
55.5248
56.5894
57.4318
58.2986
59.5653
60.8255
61.8725
63.0888
64.3213
65.1913
65.6714
65.7067
65.1423
63.5897
61.0218
57.5366
53.1111
48.1259
42.6552
36.7606
30.8675
25.1154
19.7784
15.4112
12.4287
10.8877
10.2376
10.3191
12.3127
16.2114
20.9616
25.4567
29.1435
32.6876
37.8076
44.9589
53.2937
61.3853
68.2218
73.1793
76.9238
79.4043
81.3699
83.265
85.0902
86.6744
87.9157
88.7136
89.2667
89.6203
89.8821
90.3566
91.0079
91.7764
91.8128
89.7762
85.015
77.8319
69.2596
61.0078
53.7172
47.7137
42.5986
38.5405
35.5205
33.5226
32.787
33.5572
35.7528
38.595
42.0542
46.8669
53.1833
59.5656
64.845
68.9552
71.8514
73.0886
72.8233
71.6047
70.1836
68.1916
65.4291
62.9289
60.5232
58.1932
56.3593
55.0564
54.122
53.7035
53.7246
53.8658
54.7247
56.1065
57.3451
59.4272
62.8396
66.7439
70.9519
74.8604
77.0508
78.255
78.5908
78.0618
76.907
75.3772
73.384
70.5568
67.4422
63.7044
61.1668
59.6402
58.5045
58.3092
58.9782
61.3926
61.8679
66.1519
59.6338
60.1756
49.5866
44.4837
37.4809
30.3815
25.3019
14.1528
5.27205
62.8867
62.2309
59.7855
57.7324
56.3598
55.6181
55.5011
55.6515
56.1155
56.5385
56.9931
57.4571
57.69
57.9485
58.0831
58.1344
58.1439
58.0961
58.1935
58.2733
58.3858
58.5065
58.6167
58.8428
58.9489
59.0743
59.1601
59.097
59.1305
58.9222
58.6406
58.3777
57.8749
57.5466
57.1153
56.6468
56.4817
56.1708
56.0637
56.1485
56.1299
56.3528
56.5441
56.7583
57.0632
57.2835
57.6098
57.9066
58.2489
58.6837
59.0415
59.5126
59.9439
60.1781
60.3276
60.2663
59.9753
59.6181
59.1559
58.5036
57.9032
57.365
56.6647
56.1823
56.0209
55.6454
55.2907
55.4371
55.5998
55.5495
55.975
56.6736
57.0502
57.6608
58.6929
59.6495
60.527
61.7329
63.1383
64.3305
65.5162
66.7379
67.7131
68.3797
68.5384
67.9293
66.22
63.3524
59.3906
54.5618
49.1375
43.1643
36.7461
30.3023
24.0921
18.2763
13.5416
10.0418
8.1072
7.2631
7.23218
9.23719
13.1676
18.264
23.2663
27.5126
31.5211
37.0974
44.5612
53.08
61.1058
67.9866
72.9639
76.5824
79.1432
81.2713
83.2976
85.118
86.7168
87.9017
88.7845
89.4094
89.9112
90.2802
90.8817
91.8198
92.452
91.8354
88.6432
82.6425
74.7189
65.8753
57.7143
50.7092
45.1074
40.3929
36.7182
33.914
32.2771
31.8161
32.6522
34.9716
37.9552
41.7549
47.2149
54.5388
61.4143
67.0665
71.6539
74.5584
76.3811
76.4937
75.9097
74.6974
72.5799
69.9294
67.5068
65.1286
62.8416
60.9723
59.5622
58.6162
58.0464
57.9487
58.026
58.6086
59.5923
60.7905
62.8751
66.1059
69.9955
73.9507
77.0769
78.6892
79.5189
79.3669
78.6292
77.0542
75.2635
72.8297
69.8907
66.4303
62.1653
59.4966
57.5673
55.8454
55.8928
56.1267
59.8731
58.4238
66.2302
52.7525
54.4786
42.3629
37.1796
34.0296
28.8281
26.0789
17.5483
9.62636
63.0625
62.468
60.0403
57.9426
56.5476
55.773
55.6485
55.8356
56.3192
56.7773
57.1837
57.6435
57.8507
58.0708
58.2134
58.2361
58.2579
58.1731
58.232
58.2985
58.3413
58.4555
58.5226
58.7096
58.8123
58.8931
59.0004
58.9444
58.9837
58.8593
58.6067
58.4328
58.0464
57.7551
57.4522
57.0457
56.8919
56.6547
56.5128
56.573
56.5482
56.7061
56.8708
57.0394
57.3124
57.4785
57.7328
58.0117
58.2541
58.625
58.95
59.2934
59.683
59.8635
59.9775
60.0143
59.7884
59.5182
59.2589
58.7813
58.3222
58.0189
57.5606
57.154
57.1452
57.0509
56.7975
57.0226
57.3781
57.4368
57.824
58.5923
59.1017
59.6668
60.6593
61.7
62.6645
63.8396
65.2308
66.4852
67.716
69.0367
70.2656
71.0809
71.2544
70.6198
68.7794
65.5301
61.2082
56.0671
50.311
44.03
37.2924
30.3591
23.563
17.3082
12.2967
8.43144
6.05876
5.18992
5.44324
7.58105
11.3993
16.406
21.4377
26.0498
30.7655
37.1481
44.9824
53.461
61.3006
67.9918
72.8854
76.3635
79.0615
81.2491
83.3123
85.005
86.5312
87.6422
88.6037
89.4241
90.0537
90.6216
91.3144
92.1273
92.715
91.5071
87.1995
80.2654
71.7795
63.019
54.9727
48.3381
42.9997
38.7157
35.5731
33.1384
31.8388
31.5442
32.5915
35.0232
38.2031
42.4858
48.8513
56.8015
63.899
70.0461
74.8744
78.1502
80.3871
80.82
80.5302
79.2332
77.1402
74.6788
72.1943
69.8511
67.6281
65.6783
64.1831
63.1512
62.434
62.1936
62.0742
62.4565
63.2328
64.3172
66.3248
69.2441
72.8587
76.5945
79.2063
80.4033
80.6412
80.1301
79.0277
77.1178
75.0782
72.3063
69.5172
65.7861
61.735
58.8444
55.8171
54.1209
54.8629
53.9732
57.4406
57.4442
57.1789
40.8987
42.4844
29.7706
29.8964
31.8022
29.991
27.6587
21.1115
14.2307
63.0654
62.5565
60.2017
58.136
56.771
55.954
55.8674
56.0609
56.5589
57.0492
57.3895
57.8248
58.0107
58.1878
58.3106
58.2987
58.3229
58.2358
58.262
58.322
58.322
58.4194
58.4741
58.608
58.7179
58.7655
58.8704
58.8464
58.8581
58.8093
58.6024
58.4741
58.2128
57.9397
57.735
57.4071
57.2358
57.0783
56.9124
56.9393
56.9431
57.0211
57.1741
57.3062
57.5168
57.6643
57.8508
58.1097
58.2798
58.5907
58.8975
59.1108
59.4448
59.6314
59.69
59.7829
59.6719
59.4557
59.3377
59.0641
58.7302
58.6165
58.4071
58.1046
58.2068
58.3532
58.2305
58.503
58.9545
59.1874
59.5916
60.2963
60.9879
61.5969
62.5275
63.5848
64.599
65.737
67.0532
68.3885
69.7464
71.1487
72.5063
73.4306
73.5939
72.8881
70.8394
67.3801
62.8912
57.5842
51.5837
45.1161
38.2676
31.1181
23.8203
17.0043
11.5625
7.52905
4.87107
3.68329
4.08607
6.38369
10.2876
15.2923
20.4145
25.3653
30.7679
37.9549
46.0659
54.4503
61.9892
68.3367
72.9527
76.3069
79.0075
81.2099
83.2301
84.9351
86.4278
87.6085
88.6172
89.473
90.1146
90.7879
91.5949
92.4548
92.7316
90.9114
85.7538
78.3293
69.4819
60.9227
53.0377
46.7949
41.7821
37.7808
34.9982
32.9677
32.0229
31.9344
33.2769
35.898
39.5411
44.4269
51.5899
59.7836
67.1274
73.6564
78.5117
82.185
84.3491
85.0028
84.9238
83.7729
81.9115
79.5296
77.0219
74.7326
72.6152
70.5254
68.8785
67.6368
66.8018
66.463
66.1251
66.2468
66.6489
67.5491
69.7425
72.7133
75.6657
78.4823
80.6191
81.558
81.5388
80.7807
79.3121
77.231
74.9738
72.1756
69.2776
65.5008
61.892
58.6581
55.0206
53.7911
53.1015
52.8442
53.3865
53.6123
42.399
28.6092
30.5468
19.4805
26.6281
32.0443
32.0417
29.3365
24.4186
18.9161
63.1371
62.5951
60.318
58.2216
56.9426
56.1684
56.0451
56.3243
56.7715
57.3237
57.613
57.9605
58.1887
58.2788
58.4149
58.3506
58.3537
58.3136
58.2773
58.3483
58.3177
58.3822
58.4508
58.5235
58.6459
58.6795
58.7643
58.787
58.7738
58.7783
58.624
58.5228
58.3591
58.1189
57.9779
57.7241
57.5503
57.4496
57.288
57.2938
57.3009
57.3337
57.4674
57.5475
57.7074
57.8423
57.9689
58.1921
58.3254
58.5545
58.8179
58.9583
59.219
59.4198
59.4526
59.5693
59.5714
59.4213
59.4109
59.3551
59.1532
59.1522
59.1945
59.0334
59.204
59.5353
59.5563
59.8905
60.4143
60.7786
61.2964
61.9194
62.7249
63.4445
64.2361
65.2835
66.2759
67.3967
68.6304
69.9558
71.3308
72.8057
74.1318
75.0132
75.1909
74.4192
72.3017
68.7918
64.2162
58.9327
53.0039
46.5297
39.7322
32.6389
25.3026
18.1834
12.2252
7.84273
5.03915
3.77129
4.31518
6.28667
10.0272
14.8687
20.0182
25.4801
31.7284
39.6583
47.8193
55.9526
63.0925
68.902
73.2326
76.4793
79.1507
81.3942
83.369
85.0014
86.283
87.3989
88.4816
89.486
90.2056
90.9258
91.7733
92.6391
92.6359
90.2755
84.6148
76.9715
68.217
59.889
52.2458
46.1743
41.4443
37.8405
35.2433
33.5152
32.8639
33.1975
35.0327
37.9625
42.1118
47.6874
55.3968
63.3972
71.0477
77.4132
82.2831
85.9531
87.9793
88.9933
89.2662
88.1751
86.4964
84.3909
82.0984
79.7993
77.5318
75.2298
73.4722
72.0652
71.091
70.5877
69.9602
69.8546
70.2231
70.9264
72.6824
75.3922
78.1795
80.3375
81.7152
82.1816
82.0014
81.0461
79.4697
77.4429
74.9515
72.285
69.4119
65.8826
62.1273
58.5893
54.7856
53.6241
51.3533
51.0066
49.3583
43.9306
33.9356
26.0736
27.5136
23.0412
30.1159
35.6388
34.4932
31.1434
27.6239
23.5274
63.159
62.6391
60.3582
58.3455
57.1035
56.4484
56.3269
56.6066
57.0739
57.5847
57.8553
58.086
58.2919
58.3731
58.4604
58.4003
58.3642
58.3619
58.3133
58.3459
58.3352
58.3644
58.4365
58.4926
58.5881
58.6277
58.6991
58.7352
58.736
58.7571
58.6489
58.5862
58.4776
58.29
58.1964
57.997
57.8527
57.7845
57.6444
57.6384
57.6391
57.649
57.7486
57.7954
57.9048
58.026
58.1058
58.2607
58.3667
58.5011
58.7092
58.8194
58.9997
59.1965
59.2591
59.3742
59.4597
59.4305
59.488
59.5956
59.5553
59.6735
59.8863
59.9113
60.1664
60.564
60.8132
61.1921
61.783
62.2836
62.8601
63.5199
64.2789
65.127
65.762
66.7595
67.7418
68.6937
69.8654
70.9965
72.3289
73.6707
74.9072
75.6914
75.8902
75.2043
73.0771
69.6226
65.1978
60.0692
54.2999
47.9691
41.3592
34.5237
27.4805
20.4646
14.3513
9.58029
6.44005
5.01462
5.57549
7.34473
10.9396
15.6091
20.9109
26.9306
33.8751
42.0602
50.064
57.8386
64.4909
69.6965
73.7165
76.8588
79.4673
81.6487
83.4925
85.0375
86.3108
87.4253
88.4794
89.3912
90.1049
90.8629
91.6882
92.655
92.559
89.9052
84.1353
76.4757
68.1457
60.1726
52.7813
46.9185
42.2246
38.8462
36.4629
35.041
34.6917
35.5353
37.9444
41.2679
45.8726
51.9131
59.826
67.6029
75.22
81.0448
85.825
89.1561
91.1886
92.5567
92.8542
91.9955
90.8687
89.0573
86.7358
84.417
82.0957
79.7574
77.8456
76.2303
75.1929
74.4619
73.493
73.253
73.5958
74.1821
75.7085
77.8397
79.7737
81.3899
82.4399
82.605
82.149
81.1075
79.5854
77.5826
75.0194
72.2874
69.3541
66.3398
62.4594
58.9992
54.9631
53.6736
49.2842
49.1422
44.5367
36.0587
31.3046
29.5194
33.1594
32.1426
36.9968
40.181
36.5089
33.2537
31.1586
28.2161
63.0693
62.4786
60.2855
58.3447
57.2264
56.7008
56.6462
56.9494
57.3935
57.8659
58.0967
58.2358
58.3897
58.4527
58.5006
58.4238
58.3737
58.382
58.3467
58.3587
58.3513
58.3684
58.4302
58.4771
58.5485
58.5994
58.652
58.6989
58.7184
58.7391
58.6879
58.6441
58.5835
58.4581
58.3775
58.2546
58.1379
58.0841
58.0039
57.9683
57.9749
57.9843
58.0277
58.0637
58.1218
58.1932
58.2391
58.3202
58.3849
58.4563
58.5965
58.6891
58.8094
58.9759
59.0752
59.1804
59.333
59.4248
59.5466
59.7863
59.9116
60.1592
60.4905
60.7028
61.0816
61.506
61.9837
62.4475
63.0221
63.7119
64.2278
64.9692
65.6789
66.471
67.1501
67.8731
68.9403
69.5873
70.5425
71.5545
72.5303
73.7646
74.7555
75.5781
75.8183
75.0829
73.1005
69.9554
65.792
60.8949
55.4524
49.5346
43.2348
36.6535
29.9158
23.3234
17.4184
12.6295
9.27289
7.56027
7.37433
9.55724
13.1324
17.7661
23.347
29.7768
37.0239
45.0142
52.686
59.8884
65.9104
70.5534
74.2931
77.324
79.822
81.9052
83.6715
85.0686
86.1544
87.2641
88.4108
89.3317
90.0459
90.7461
91.6577
92.6168
92.5911
90.0013
84.4088
76.9757
69.2033
61.6654
54.4761
48.9384
44.3088
41.0542
38.8061
37.8563
37.7342
39.0163
41.8828
45.4723
50.4879
56.6729
64.6516
72.2525
79.0614
84.5501
88.8541
91.8252
93.8759
95.3741
95.7466
95.421
94.5887
92.9738
90.8484
88.5167
85.9711
83.8012
81.9719
80.0401
78.7584
78.0106
76.8648
76.3089
76.7501
77.4374
78.2003
79.6071
80.9003
81.7573
82.497
82.6469
82.1299
81.0959
79.5614
77.7872
75.106
72.0375
69.025
65.9589
62.3078
59.433
55.3859
53.7826
48.2737
47.3793
40.4289
35.7017
32.9127
35.8295
43.0734
38.2228
42.773
42.8855
38.1613
35.7997
34.8825
32.6595
62.8533
62.3002
60.1878
58.4383
57.4235
57.0615
57.0627
57.3473
57.7616
58.1196
58.3331
58.379
58.4607
58.5141
58.5013
58.456
58.3786
58.3934
58.3882
58.3619
58.3829
58.3842
58.4278
58.4743
58.5157
58.574
58.6147
58.6731
58.7101
58.7333
58.7347
58.7049
58.6826
58.6211
58.5506
58.4939
58.4102
58.3679
58.3334
58.2863
58.297
58.297
58.3055
58.3297
58.3425
58.3687
58.3806
58.3943
58.4076
58.4436
58.4983
58.5578
58.6464
58.7533
58.8815
59.0106
59.1868
59.3833
59.6055
59.9221
60.2184
60.5854
61.0214
61.3968
61.8929
62.3779
62.9562
63.5775
64.1059
64.8918
65.4398
66.0993
66.8738
67.377
68.2222
68.7411
69.4309
70.2232
70.5969
71.4692
72.3192
73.0824
74.0091
74.6737
74.943
74.3319
72.5465
69.6109
65.8608
61.5072
56.5868
51.2064
45.4082
39.2866
32.9641
26.7589
21.1626
16.5988
13.3418
11.6632
11.8043
13.4971
16.844
21.3528
27.007
33.5017
40.6566
48.2131
55.3591
61.8318
67.1907
71.3903
74.894
77.7656
80.1461
82.1595
83.8558
85.1372
86.1838
87.289
88.4
89.2485
89.9282
90.6286
91.5025
92.4833
92.6012
90.3947
85.2917
78.305
71.2651
64.1142
57.2844
51.981
47.4759
44.3348
42.3412
41.8449
41.7343
43.4436
46.562
50.2437
55.6933
62.0689
69.6261
76.7482
82.8129
87.7782
91.3616
94.1148
96.209
97.6981
98.2571
98.205
97.5398
96.0306
94.1008
91.9951
89.5328
87.1311
85.1485
83.5166
82.0904
80.9434
79.9571
79.4873
79.5652
80.2627
80.4949
80.5577
81.0998
81.7572
82.3726
82.4029
81.7478
80.7866
79.397
77.803
75.2496
72.1635
68.9047
65.4333
61.8623
59.0583
55.2679
54.2474
46.646
47.5055
38.2199
37.7556
39.1573
42.4692
49.6656
43.0245
46.1344
44.2661
39.6733
38.3432
37.8206
35.7806
62.3758
61.8177
59.9985
58.5549
57.7428
57.5163
57.589
57.8348
58.1474
58.391
58.5255
58.5178
58.52
58.5449
58.5049
58.4632
58.4085
58.4016
58.4086
58.377
58.3956
58.4041
58.428
58.476
58.5042
58.5599
58.6047
58.6571
58.711
58.7377
58.764
58.767
58.7653
58.7551
58.7181
58.6973
58.6668
58.6358
58.6271
58.6017
58.5963
58.5974
58.5832
58.574
58.5594
58.5342
58.5071
58.4681
58.4372
58.4325
58.4209
58.452
58.503
58.5699
58.7076
58.8595
59.0573
59.3363
59.6476
60.0263
60.4624
60.9323
61.4493
61.9664
62.5285
63.0897
63.7217
64.3928
64.961
65.6756
66.3267
66.9423
67.6222
67.9993
68.6436
69.3214
69.5531
70.0939
70.6707
71.0773
71.7913
72.5313
73.2176
73.6706
73.6446
72.898
71.2928
68.7945
65.616
61.8391
57.5702
52.8656
47.74
42.2071
36.3742
30.5874
25.3213
20.9817
17.8752
16.2868
16.3757
18.1071
21.2994
25.6798
31.2366
37.5569
44.3709
51.3149
57.7509
63.49
68.3207
72.1853
75.4769
78.2124
80.4978
82.4328
83.9567
85.0185
86.001
87.2438
88.4867
89.3268
89.9051
90.5982
91.4308
92.4672
92.7144
91.0087
86.6416
80.4579
73.9937
67.2613
61.0848
55.8832
51.4714
48.318
46.4965
46.5166
46.4683
48.3207
51.5016
55.2697
61.0501
67.3262
74.3164
80.6201
86.1581
90.2913
93.4993
96.1129
98.1473
99.5714
100.256
100.351
99.8237
98.4768
96.8231
94.6707
92.2427
89.901
87.7407
86.1471
84.9697
83.9067
82.9875
82.5554
82.3618
82.3988
82.0284
81.3312
80.9989
81.2446
81.8242
81.9069
81.3784
80.3193
79.0939
77.6897
75.3413
72.4065
69.095
65.7186
61.8683
59.008
54.5206
53.8629
45.4415
49.6465
38.2025
40.1432
43.2517
45.6169
52.0008
46.7834
47.2567
45.3022
41.0953
40.7039
39.9723
38.0604
61.6451
61.1663
59.8317
58.8241
58.2188
58.0802
58.1512
58.3087
58.5124
58.6097
58.6641
58.6216
58.5622
58.5598
58.4908
58.4699
58.4396
58.419
58.4373
58.4007
58.4178
58.4226
58.4264
58.4725
58.4889
58.5435
58.5934
58.645
58.7151
58.7462
58.798
58.8306
58.8407
58.8719
58.863
58.8671
58.8788
58.8579
58.8703
58.8618
58.844
58.8463
58.8119
58.7794
58.739
58.6726
58.6041
58.5272
58.4583
58.4117
58.3712
58.3655
58.3995
58.4556
58.5868
58.7671
58.9887
59.313
59.691
60.1232
60.6393
61.1876
61.7552
62.3475
62.9723
63.5669
64.2126
64.886
65.4825
66.1508
66.7718
67.3867
67.9319
68.267
68.7263
69.277
69.6728
69.9703
70.3864
70.9514
71.5102
72.0467
72.459
72.5441
72.1814
71.2547
69.7087
67.6675
65.1508
62.1305
58.583
54.4815
49.9066
44.9201
39.6205
34.3386
29.4648
25.376
22.4394
20.9486
21.1177
22.7073
25.7262
29.9568
35.2837
41.2681
47.5884
53.8583
59.6139
64.7752
69.1967
72.8979
75.9301
78.4962
80.6661
82.5138
83.9577
85.0052
85.9796
87.2739
88.6459
89.5556
90.0224
90.6813
91.6194
92.3516
92.711
91.5109
88.0761
82.8445
76.9395
70.7591
65.1121
59.9006
55.7295
52.6956
51.1924
51.088
50.908
52.8058
56.1856
59.9687
65.6865
71.5885
77.9339
83.4805
88.4552
92.1809
95.2469
97.7253
99.763
101.205
101.892
102.096
101.651
100.471
98.858
96.7124
94.3417
91.9511
89.7561
87.8436
87.0492
86.5008
85.9268
85.3997
84.9453
84.1708
82.7384
81.5565
80.9855
80.9403
81.3095
81.2737
80.7516
79.6836
78.6155
77.3511
75.2369
72.5829
69.3516
66.2435
62.2524
59.7522
53.8345
54.5468
45.5099
52.1833
38.7336
40.5088
45.8245
48.8463
53.4999
49.2568
48.1316
45.9569
42.5636
43.3827
41.8573
40.1164
60.7613
60.4543
59.7392
59.1799
58.8201
58.7092
58.714
58.7316
58.7859
58.773
58.7427
58.6835
58.6071
58.5719
58.5053
58.4783
58.4554
58.4246
58.4356
58.4181
58.4286
58.4373
58.4379
58.471
58.4887
58.533
58.5867
58.6422
58.7097
58.7579
58.8211
58.8699
58.902
58.9517
58.9706
58.9964
59.0247
59.0246
59.0439
59.0401
59.021
59.0045
58.9589
58.9073
58.8441
58.7598
58.6709
58.5762
58.4855
58.4121
58.3511
58.3254
58.3457
58.4049
58.536
58.7325
58.9834
59.3311
59.7433
60.2107
60.7667
61.346
61.9333
62.5585
63.1992
63.8213
64.4318
65.061
65.6843
66.298
66.8737
67.4336
67.9242
68.313
68.7944
69.2256
69.5593
69.9701
70.3752
70.8561
71.3225
71.6762
71.8727
71.6601
70.8499
69.5358
68.1681
66.362
64.3697
62.2516
59.7177