/*--------------------------------*- C++ -*----------------------------------*\
| =========                 |                                                 |
| \\      /  F ield         | OpenFOAM: The Open Source CFD Toolbox           |
|  \\    /   O peration     | Version:  2.4.0                                 |
|   \\  /    A nd           | Web:      www.OpenFOAM.org                      |
|    \\/     M anipulation  |                                                 |
\*---------------------------------------------------------------------------*/
FoamFile
{
    version     2.0;
    format      ascii;
    class       volScalarField;
    location    "0.11";
    object      p;
}
// * * * * * * * * * * * * * * * * * * * * * * * * * * * * * * * * * * * * * //

dimensions      [0 2 -2 0 0 0 0];

internalField   nonuniform List<scalar> 
8800
(
85.0182
72.6918
65.2929
61.7429
59.8768
58.4513
57.2406
56.1925
55.1392
54.1175
53.2379
52.3023
51.3805
50.4835
49.653
48.8963
48.0975
47.3841
46.8458
46.3933
81.906
72.3389
65.4635
61.856
59.9372
58.4771
57.2451
56.1952
55.1387
54.1112
53.2366
52.3014
51.3772
50.4812
49.6491
48.8962
48.0977
47.3747
46.8371
46.3165
79.9406
72.4145
66.0654
62.2324
60.1058
58.5559
57.2907
56.2289
55.1628
54.127
53.2493
52.3066
51.3783
50.4787
49.6456
48.8899
48.0951
47.3608
46.8811
46.3448
78.4067
72.4781
66.6515
62.6548
60.2892
58.6424
57.3544
56.2835
55.2088
54.168
53.2809
52.322
51.3903
50.4859
49.6455
48.8793
48.0856
47.3482
46.9754
46.6099
77.1548
72.4471
67.1323
63.0653
60.4546
58.7127
57.4047
56.3357
55.2623
54.2253
53.3189
52.3475
51.4039
50.5034
49.6425
48.8719
48.0632
47.3371
46.8833
46.9312
76.177
72.3481
67.5022
63.4174
60.6072
58.7552
57.4356
56.3766
55.3093
54.2831
53.3593
52.3707
51.4182
50.5225
49.6394
48.856
48.0482
47.3325
46.8962
47.3819
75.4173
72.2249
67.7829
63.6989
60.7465
58.7891
57.4428
56.4064
55.3511
54.3289
53.3947
52.3934
51.4306
50.5332
49.6421
48.8378
48.0459
47.3387
46.9995
47.6306
74.8746
72.1236
67.9628
63.9132
60.8671
58.806
57.444
56.4278
55.3762
54.3699
53.4235
52.4073
51.4403
50.5447
49.6377
48.8274
48.0512
47.3657
47.0743
47.809
74.5193
72.0384
68.0848
64.0583
60.9549
58.8214
57.4389
56.4364
55.3981
54.3961
53.4426
52.4193
51.4484
50.5501
49.6406
48.8274
48.0589
47.3946
47.1313
47.9199
74.3466
71.998
68.1374
64.1331
60.9981
58.8263
57.4366
56.4425
55.4074
54.4109
53.456
52.4217
51.4563
50.5557
49.6535
48.8195
48.0768
47.4178
47.1829
47.9578
74.3498
71.9914
68.1376
64.1314
60.9928
58.8314
57.4378
56.4405
55.4085
54.4146
53.4555
52.4246
51.4586
50.5778
49.6613
48.8303
48.0868
47.4426
47.2056
47.9742
74.5252
72.035
68.0786
64.0617
60.9472
58.8221
57.4448
56.4336
55.401
54.4033
53.4492
52.4213
51.4611
50.5873
49.676
48.84
48.1023
47.4741
47.211
47.9157
74.8855
72.1068
67.958
63.9251
60.8539
58.8127
57.4543
56.4173
55.3837
54.3845
53.4313
52.4135
51.4637
50.5948
49.6925
48.8562
48.1289
47.4978
47.193
47.812
75.437
72.2069
67.7697
63.7163
60.7274
58.7931
57.4596
56.3936
55.3555
54.3571
53.4025
52.4048
51.4563
50.6072
49.7137
48.8764
48.1567
47.5366
47.1633
47.6394
76.1966
72.3185
67.4975
63.4376
60.5846
58.7631
57.461
56.3519
55.3207
54.3199
53.3676
52.3855
51.4505
50.6145
49.7344
48.8957
48.2
47.5928
47.1501
47.356
77.182
72.4169
67.1234
63.0957
60.4285
58.7188
57.4417
56.2991
55.2728
54.2778
53.3279
52.3625
51.4416
50.6154
49.7569
48.9146
48.2465
47.6571
47.172
47.0563
78.4333
72.4433
66.6411
62.6922
60.2572
58.6508
57.4016
56.2374
55.2183
54.2346
53.2888
52.3382
51.4327
50.613
49.7755
48.9295
48.2921
47.7164
47.2226
46.7799
79.9703
72.385
66.0486
62.2688
60.0743
58.5619
57.3445
56.1801
55.17
54.1994
53.2606
52.3213
51.4284
50.6107
49.787
48.9442
48.3239
47.7555
47.2675
46.6641
81.9376
72.3093
65.4428
61.8924
59.9091
58.4826
57.2987
56.1485
55.1458
54.1834
53.2501
52.3169
51.4307
50.6119
49.7928
48.9572
48.3385
47.7748
47.2557
46.6265
85.0514
72.6647
65.2736
61.7773
59.8498
58.4586
57.2894
56.1488
55.1484
54.1854
53.2525
52.3191
51.4353
50.6129
49.7941
48.9636
48.3427
47.7756
47.2488
46.75
46.298
46.1866
46.1999
46.2998
46.248
45.9795
45.611
45.1527
44.7629
44.6433
44.8875
45.5923
46.4644
47.3382
47.8761
47.9581
47.4872
46.5038
45.5547
44.4798
43.5843
42.9143
42.3828
42.1262
41.7361
41.3038
40.6616
39.8061
38.9593
37.6712
36.2321
34.6227
32.6739
30.8832
28.9179
26.661
24.7804
22.9439
21.0802
19.7263
18.6163
17.9919
18.1757
18.5217
19.3268
20.9719
22.7809
25.0156
27.9344
30.7229
33.6124
36.7297
39.6611
42.5279
45.1714
47.626
50.0736
52.1465
53.9206
55.5157
56.8155
57.6949
58.015
58.0534
57.3685
55.842
53.6511
50.6097
46.8446
42.4259
37.7099
32.7874
27.7864
23.3775
19.2588
15.5128
12.5319
10.9473
10.0749
9.921
10.6612
12.2177
14.2819
17.0474
20.2499
23.4729
26.9147
30.703
34.5539
38.3819
42.1865
45.8946
49.5845
53.1195
56.3597
59.529
62.6183
65.3847
67.9648
70.4312
72.4962
74.0135
75.0704
75.7808
76.1473
76.366
76.466
76.4658
76.4219
76.4535
76.4547
76.3398
76.105
75.7632
75.5062
75.2866
75.08
74.6317
73.9344
72.9205
70.6012
66.8632
61.4621
54.8303
48.6169
42.1018
35.8765
31.1397
27.4604
24.1339
22.5007
23.4925
25.0522
27.2253
31.3433
36.6033
41.6413
46.307
50.8632
55.0944
58.0261
59.8349
60.7077
60.6014
59.8065
58.3778
56.3657
53.9715
51.0258
48.2062
45.4803
42.7992
40.6314
38.6406
37.1058
35.5552
34.5616
33.9004
34.386
35.5214
37.4339
39.4027
41.6078
43.7215
45.9391
47.7247
49.548
51.3972
54.0447
56.8966
59.7376
61.9425
63.5622
64.9018
66.1968
67.5983
68.919
70.2449
71.1782
71.9532
72.3919
72.8065
72.8497
72.8816
72.5573
72.3781
71.9243
71.4326
70.9214
70.3015
69.7038
68.9041
68.1805
67.0786
65.8794
64.1565
61.7659
57.2395
52.4074
28.5693
46.148
46.0729
46.1004
46.1401
46.0747
45.8815
45.5486
45.2347
44.9652
44.9531
45.1536
45.6591
46.3478
46.9694
47.4509
47.4987
47.1095
46.3381
45.472
44.4944
43.6069
42.9305
42.2876
41.8982
41.4876
41.0139
40.3952
39.577
38.8205
37.6867
36.2502
34.7991
33.0653
31.3684
29.5918
27.5588
25.8079
24.1401
22.5974
21.4723
20.4609
19.9178
20.066
20.4315
21.2995
22.8197
24.4946
26.6132
29.3964
32.1744
34.8432
37.7515
40.5812
43.1676
45.6433
48.023
50.3365
52.3732
54.1909
55.8373
57.1604
58.1104
58.5113
58.3541
57.4876
55.7043
52.9142
49.1458
44.4598
39.0618
33.1004
27.2679
21.7596
16.892
12.5608
8.75327
5.92891
4.18586
3.36495
3.53602
4.65733
6.84271
9.79888
13.3104
17.3777
21.6398
25.9244
30.5109
35.1309
39.6091
44.0966
48.2484
52.186
55.9107
59.2485
62.2351
64.9738
67.4958
69.7583
71.7665
73.2921
74.4364
75.3452
75.958
76.2723
76.453
76.5469
76.5816
76.5241
76.5813
76.6512
76.6533
76.5011
76.3615
76.3613
76.3198
76.1957
75.8456
75.2231
74.0757
71.6319
67.3283
61.1324
54.268
47.1662
40.447
34.2405
28.9499
24.7687
21.0261
19.5682
20.525
22.0067
24.2224
28.4863
34.1344
39.3361
44.3153
49.0305
53.3296
56.7982
58.6868
59.7132
59.9207
59.2005
58.2117
56.2007
53.8992
51.392
48.6454
46.0935
43.3549
41.3363
39.3123
37.8152
36.2103
35.3177
34.7028
35.143
36.2216
37.9704
39.8466
41.8434
43.7604
45.908
47.7551
49.6696
51.5375
54.1386
56.8257
59.6535
61.6346
63.3281
64.4719
65.9884
67.2888
68.7619
69.7459
70.6623
71.151
71.7469
71.9874
72.172
72.0316
71.9346
71.5141
71.1328
70.4814
69.9391
69.1661
68.3788
67.4256
66.2668
64.8895
63.3219
60.4356
58.5855
50.3642
44.23
22.0312
46.1427
46.1159
46.1871
46.1695
46.0552
45.8533
45.5786
45.3469
45.1699
45.1832
45.3546
45.6978
46.2026
46.6474
46.9872
46.985
46.6579
46.067
45.3172
44.4602
43.6292
42.949
42.2712
41.7815
41.3204
40.7986
40.2049
39.4633
38.7488
37.7251
36.4409
35.0877
33.5094
32.0131
30.3473
28.5673
27.1018
25.5463
24.255
23.415
22.4711
22.0569
22.2972
22.6204
23.5292
25.1001
26.7882
28.7926
31.2817
33.8038
36.2188
38.8058
41.3594
43.732
46.0268
48.3251
50.5939
52.6492
54.5251
56.3617
57.891
58.9185
59.3966
59.1067
57.9916
55.8469
52.5243
47.9572
42.2228
35.674
28.5446
21.6292
15.3677
9.99482
5.329
1.59666
-1.03782
-2.78689
-3.54658
-2.89624
-1.16934
1.65097
5.35869
9.67536
14.5452
19.5247
24.6671
30.0882
35.4474
40.6717
45.6703
50.1673
54.3674
58.1991
61.4076
64.3102
66.9522
69.0715
70.9517
72.6564
73.9627
74.8323
75.5695
76.0915
76.402
76.5547
76.6822
76.6979
76.6494
76.7158
76.8825
76.963
76.94
76.9181
77.0708
77.1293
77.1121
76.8794
76.355
75.122
72.6737
68.0231
61.7157
54.2952
46.5723
39.6491
33.1445
27.7808
23.0705
18.9222
17.6262
18.46
19.8818
22.12
26.5796
32.4179
37.9255
42.9074
48.0259
52.3948
55.9764
58.3209
59.2409
59.7748
59.3147
58.3466
56.7165
54.5003
52.3332
49.5653
47.0969
44.4815
42.5604
40.4595
38.9414
37.3003
36.456
35.9741
36.2957
37.3018
38.7711
40.5172
42.2855
44.1065
46.0742
48.0245
49.8756
51.8266
54.1054
56.7927
59.319
61.2828
62.763
63.8966
65.2985
66.7421
68.2844
69.3771
70.172
70.4706
70.9359
71.1363
71.3488
71.1473
70.9249
70.5402
70.0259
69.3907
68.7531
68.0184
67.189
65.8933
65.0615
62.3264
62.2335
56.0563
55.2774
45.2793
36.2684
21.5581
46.0957
46.0957
46.1917
46.0238
45.8001
45.6002
45.4148
45.3559
45.2923
45.3474
45.5113
45.7247
46.0602
46.2965
46.464
46.4673
46.187
45.7346
45.1148
44.3746
43.6626
43.0013
42.3569
41.8127
41.2961
40.783
40.1626
39.4213
38.7682
37.8333
36.7006
35.4855
34.069
32.7893
31.302
29.73
28.5478
27.2369
26.1295
25.5201
24.8096
24.4767
24.8209
25.2646
26.1653
27.7253
29.2866
30.9472
33.1255
35.4004
37.4312
39.6224
42.0382
44.1996
46.2564
48.5427
50.8513
53.0196
55.0998
57.1406
58.9146
60.1115
60.6269
60.3294
58.998
56.4127
52.422
46.8638
40.0293
32.3541
24.3834
16.7004
9.79572
3.96018
-1.04322
-5.20612
-8.07555
-9.67216
-10.1089
-9.1937
-7.02688
-3.55784
1.00089
6.24768
11.8226
17.4678
23.2577
29.4076
35.5178
41.3244
46.696
51.613
56.0385
59.9071
63.1295
65.9562
68.4452
70.358
71.9144
73.3264
74.4072
75.1369
75.749
76.225
76.5392
76.708
76.8548
76.8718
76.8729
76.9448
77.1189
77.2865
77.3685
77.4071
77.6398
77.8018
77.8686
77.7145
77.2514
76.1801
73.5776
69.0823
62.7409
54.8817
47.2072
39.6372
32.8257
27.1819
22.0643
18.0827
16.6768
17.2936
18.6334
20.9804
25.7028
31.5324
37.3503
42.4664
47.5328
52.338
55.8665
58.3595
59.5891
60.1328
60.0487
59.2031
57.7669
55.8482
53.7582
50.951
48.7274
46.0573
44.188
41.9889
40.4579
38.9049
38.0057
37.7477
37.9396
38.7834
40.0377
41.452
43.0581
44.6186
46.4773
48.2517
50.162
52.0906
54.1837
56.5404
58.7862
60.7686
62.0912
63.1864
64.4225
65.8323
67.178
68.4025
69.2031
69.6593
70.0925
70.2308
70.5236
70.3873
70.2714
69.6275
69.2671
68.1083
67.6852
65.9595
66.0424
63.2274
63.7441
59.3887
59.3052
52.8021
49.6251
41.8096
31.5437
22.156
47.6221
47.2617
46.3909
45.6335
45.1857
45.0504
45.0231
45.1854
45.2914
45.4289
45.6006
45.709
45.9162
46.0131
46.069
46.0547
45.7979
45.435
44.9341
44.2962
43.702
43.0726
42.4321
41.9391
41.3674
40.8101
40.2425
39.495
38.8306
38.0349
37.0508
35.9878
34.7627
33.6477
32.4116
31.0105
30.0487
29.1064
28.132
27.7046
27.2915
27.0011
27.4092
27.9747
28.7676
30.153
31.5252
32.9141
34.7845
36.6968
38.3921
40.3137
42.5172
44.4671
46.3921
48.7179
51.0417
53.2982
55.7369
58.0702
59.9956
61.466
62.2564
62.0814
60.5641
57.4723
52.6357
45.9699
37.9319
29.2548
20.6642
12.5621
5.53341
-0.474782
-5.77931
-10.3777
-13.658
-15.3487
-15.5088
-14.6358
-12.4905
-8.51167
-3.10991
2.92489
9.16642
15.5218
21.8933
28.5257
35.1056
41.5093
47.5141
52.7547
57.3294
61.2722
64.5301
67.2634
69.5746
71.2954
72.6364
73.8623
74.7757
75.4111
75.9229
76.3609
76.6627
76.8913
77.053
77.1376
77.184
77.2942
77.4173
77.5742
77.6023
77.8165
78.086
78.3488
78.4432
78.3922
77.9577
76.995
74.4839
70.2678
63.7609
56.0915
48.0952
40.1866
33.3622
27.1808
21.8887
18.1644
16.8158
17.2926
18.3794
20.9004
25.7008
31.6927
37.5551
42.9077
47.8916
52.7942
56.5353
59.0695
60.4171
61.2591
61.2164
60.5575
59.5559
57.4007
55.7379
52.743
50.706
48.0403
46.0379
43.9927
42.4006
41.1644
40.2313
39.9973
40.0359
40.69
41.5097
42.5158
43.7916
45.1405
46.855
48.5702
50.3721
52.2188
54.3066
56.4327
58.3995
60.0297
61.4029
62.5489
63.7353
64.7963
65.813
66.6562
67.555
67.8306
68.6429
68.4832
69.0192
68.4885
69.0276
67.6488
68.3718
66.3234
67.0951
64.3713
64.6311
61.4307
60.5317
57.0769
54.3067
50.3145
44.6825
39.4394
29.9685
22.9992
48.6893
48.1937
46.664
45.4099
44.6963
44.5402
44.6498
44.9365
45.2078
45.4488
45.6422
45.7192
45.8141
45.8385
45.7851
45.7318
45.5133
45.1642
44.7964
44.2403
43.7074
43.1863
42.5467
42.0577
41.5095
40.8971
40.3652
39.6833
39.0055
38.3297
37.4958
36.5727
35.5278
34.561
33.5189
32.3345
31.5762
30.866
30.1304
29.8846
29.5918
29.4097
29.8539
30.3776
31.0363
32.2188
33.5001
34.6599
36.0705
37.7219
39.2636
40.8876
42.7808
44.6111
46.4987
48.7238
51.0387
53.5042
56.2636
58.8949
61.1573
63.0288
64.2085
64.2088
62.5928
59.0011
53.2967
45.6276
36.4895
26.7743
17.4741
9.00701
1.82187
-4.25796
-9.75746
-14.484
-17.7551
-19.4614
-19.7003
-18.8651
-16.7589
-12.6674
-6.82835
-0.0521921
6.94169
13.8297
20.6155
27.5572
34.6401
41.6005
48.0295
53.5599
58.4076
62.4832
65.6825
68.2953
70.452
72.0522
73.2394
74.2693
75.0629
75.6524
76.1483
76.5527
76.8563
77.038
77.2385
77.3392
77.3865
77.4916
77.684
77.8794
78.0394
78.2344
78.5044
78.793
78.9463
78.9031
78.5257
77.553
75.2772
71.1632
64.9096
57.7073
49.3165
41.4661
34.4494
28.1296
23.1036
19.3289
18.0697
18.16
19.1298
21.8693
26.7286
32.8987
38.7365
44.0432
49.1024
53.9958
57.6438
60.4832
61.8157
62.6388
63.1553
62.0789
61.7316
59.4133
57.8941
55.2411
52.9663
50.5432
48.2801
46.4565
44.7406
43.6072
42.5592
42.1984
41.987
42.0766
42.6594
43.4433
44.5179
45.8844
47.391
49.2487
50.9652
52.6974
54.3824
56.3322
58.1659
59.4852
60.6106
61.6481
62.7602
63.8935
64.8304
65.358
66.1343
66.1641
66.7732
66.264
66.5673
65.4611
65.7902
64.4028
64.8505
63.2594
63.4135
61.4144
60.6357
58.5888
56.7682
54.4288
51.3112
48.6601
43.3121
39.5133
31.7632
25.2234
49.2931
48.8477
46.9973
45.411
44.4776
44.2165
44.3884
44.7142
45.0858
45.4274
45.6348
45.7383
45.7691
45.7502
45.6406
45.5347
45.3293
45.0028
44.6826
44.1862
43.7066
43.2345
42.6419
42.1624
41.6445
41.0482
40.5328
39.9472
39.3009
38.667
37.9815
37.1955
36.291
35.4901
34.6165
33.6393
33.0326
32.5121
32.0022
31.8495
31.7205
31.6301
31.936
32.415
33.0335
34.0102
35.0701
36.0777
37.2834
38.6372
39.9713
41.4408
43.0461
44.6038
46.3959
48.534
50.7929
53.4767
56.5455
59.5125
62.3862
64.8014
66.2277
66.33
64.6038
60.4852
53.9758
45.4855
35.7151
25.3962
15.4705
6.63338
-0.897117
-7.29793
-12.986
-17.8089
-21.1223
-22.8667
-23.1045
-22.2018
-19.9467
-15.7243
-9.60203
-2.34167
5.20648
12.4953
19.5993
26.8539
34.2995
41.5894
48.4223
54.3526
59.3235
63.4054
66.6037
69.2056
71.1913
72.5942
73.6843
74.6691
75.4284
75.9475
76.3497
76.7208
77.0365
77.2798
77.4674
77.6068
77.6834
77.7665
77.9471
78.1469
78.3615
78.5853
78.8815
79.2242
79.3557
79.2894
78.9331
78.0138
75.9574
72.0932
66.3429
59.3724
51.4111
43.8109
36.5376
30.3428
25.5411
21.8297
20.5904
19.8425
20.9251
23.7106
28.7899
35.0237
40.8034
46.0571
50.963
55.9214
59.4379
62.0808
64
64.2696
65.2783
64.2053
63.837
62.0468
60.2891
58.0536
55.6112
53.319
51.0078
49.145
47.3198
45.9854
44.8152
44.1079
43.7019
43.3625
43.9973
44.7391
45.7527
47.1674
48.5736
50.2019
51.6744
53.37
54.7949
56.2189
57.578
58.8538
59.9679
60.9777
61.7247
62.5297
63.4891
63.956
64.7045
64.6917
65.0278
64.8341
64.7086
64.0356
63.5969
62.5581
61.9156
60.8242
59.9551
58.6122
57.2981
55.8029
54.0915
52.4222
49.77
47.6329
43.235
39.7979
33.6262
27.5485
49.648
49.2697
47.3097
45.5421
44.4512
44.0772
44.2135
44.5366
44.9576
45.3519
45.6194
45.723
45.7434
45.6997
45.5355
45.4011
45.1506
44.8752
44.5753
44.1148
43.7502
43.2567
42.7127
42.3106
41.7548
41.2119
40.7628
40.2097
39.6168
39.0673
38.5152
37.7957
37.0408
36.423
35.672
34.8707
34.4015
34.0847
33.7159
33.556
33.6219
33.594
33.6814
34.2101
34.8777
35.5381
36.3962
37.4202
38.4486
39.4878
40.655
41.8864
43.098
44.4161
45.9994
47.9495
50.2332
53.0494
56.4123
59.9418
63.387
66.2385
67.8512
67.9393
65.9306
61.3533
54.3153
45.2683
35.1165
24.6693
14.5452
5.48673
-2.26007
-8.97978
-14.8803
-19.9033
-23.5501
-25.4268
-25.6329
-24.6705
-22.1981
-17.7412
-11.3318
-3.78022
4.02761
11.6039
19.0251
26.5191
34.0743
41.648
48.8162
55.0012
60.1196
64.2787
67.4341
69.9487
71.8644
73.1858
74.1764
75.0258
75.7006
76.1963
76.642
77.0495
77.3174
77.4896
77.6464
77.7996
77.9479
78.1056
78.2326
78.3985
78.5819
78.8232
79.1511
79.4685
79.589
79.5183
79.1899
78.4005
76.6782
73.4394
68.3734
61.6556
54.3138
47.0342
39.9042
34.0172
29.0194
25.3279
24.0936
22.8823
23.7364
26.5939
31.9129
38.0496
43.5735
48.8185
53.5712
58.185
61.9682
64.1096
66.381
66.4583
67.3508
66.6825
66.0835
64.6189
62.8055
60.7231
58.3675
56.1446
53.8774
51.872
49.9814
48.4421
47.1658
46.2492
45.8314
45.8354
45.8629
46.645
47.4773
48.6608
49.884
51.3284
52.4563
53.7221
54.9638
56.2477
57.3232
58.3948
59.3009
60.369
61.1992
61.781
62.5153
62.8179
63.4041
63.5774
63.6513
63.6297
63.1237
62.6515
61.8411
61.2096
60.3473
59.8057
58.7039
57.9467
56.6684
55.5365
53.7655
52.2917
49.7018
47.4881
43.7248
40.1688
35.073
29.5531
49.8815
49.5537
47.5466
45.6698
44.4636
44.0213
44.1123
44.4164
44.8569
45.2799
45.6014
45.7038
45.7245
45.6919
45.4658
45.3207
45.0541
44.7447
44.5143
44.0685
43.7258
43.316
42.7562
42.429
41.9465
41.3663
41.0112
40.5314
39.9293
39.5251
39.0583
38.3528
37.8254
37.3264
36.6507
36.1252
35.7122
35.4304
35.2719
35.128
35.2083
35.3285
35.423
35.8234
36.4296
37.0837
37.8092
38.6118
39.4213
40.2541
41.2131
42.1324
42.8994
43.9302
45.3075
46.867
49.1005
52.1612
55.7898
59.7792
63.6788
66.8937
68.7456
68.8065
66.4845
61.5261
54.1999
45.0189
34.7518
24.2813
14.2127
5.13247
-2.69218
-9.54899
-15.614
-20.7639
-24.6383
-26.7892
-27.1359
-26.0846
-23.3251
-18.616
-12.0347
-4.35361
3.60244
11.3277
18.8906
26.5152
34.197
41.968
49.2952
55.6486
60.9349
65.0704
68.198
70.6933
72.526
73.7117
74.6282
75.457
76.1334
76.5881
76.978
77.3314
77.5703
77.7656
77.909
78.0765
78.26
78.4036
78.4764
78.617
78.7915
79.0469
79.3815
79.6019
79.6693
79.5939
79.3712
78.8124
77.4831
74.9632
70.7254
64.7107
57.9026
50.8039
43.9915
38.3527
33.1435
29.5044
28.0102
26.0142
27.4008
30.0077
36.0206
41.5401
47.0872
52.173
56.9706
61.0832
65.0152
66.7974
68.9187
69.1022
69.6779
69.1076
68.3416
66.9563
65.2374
63.2712
61.0331
58.856
56.575
54.5082
52.6219
50.9278
49.5568
48.5383
47.9863
47.8833
47.8925
48.6204
49.3473
50.358
51.1883
52.266
53.2418
54.275
55.1704
56.1545
57.1309
58.1285
58.9727
59.7827
60.6774
61.3378
62.0139
62.3588
62.5766
62.9992
63.0152
63.1511
62.7498
62.3388
61.6639
61.1307
60.2794
59.8004
58.5593
58.018
56.4893
55.7246
53.7326
52.4011
49.7886
47.4564
44.0924
40.5304
36.1148
31.2906
49.9903
49.7096
47.7052
45.7743
44.5433
44.0397
44.0832
44.3637
44.8012
45.2769
45.5728
45.7054
45.7218
45.6422
45.4616
45.2346
44.99
44.7008
44.4209
44.1061
43.726
43.3351
42.9042
42.5022
42.1198
41.5958
41.1984
40.8556
40.3199
39.9456
39.5779
39.0004
38.5328
38.1573
37.6693
37.2363
36.9377
36.7117
36.6472
36.6133
36.6839
36.9511
37.1014
37.2985
37.9023
38.6222
39.1097
39.7509
40.4825
40.9436
41.5929
42.2742
42.5539
43.0234
44.1252
45.3866
47.242
50.5199
54.5771
58.837
63.0934
66.5522
68.3698
68.1311
65.5992
60.6471
53.4699
44.6486
34.7849
24.6041
14.7621
5.70236
-2.21571
-9.07409
-15.1466
-20.364
-24.3477
-26.7305
-27.3932
-26.1464
-23.1713
-18.2296
-11.5632
-3.96333
3.86227
11.6029
19.2819
26.9551
34.683
42.5294
49.9598
56.4277
61.8132
65.8817
68.9882
71.4238
73.1319
74.2557
75.1746
76.0142
76.6007
76.9264
77.2879
77.6858
77.9352
78.0484
78.1475
78.3283
78.5877
78.7496
78.7373
78.8565
78.9388
79.1984
79.4955
79.6617
79.7265
79.698
79.585
79.2596
78.2962
76.4346
72.9127
67.7984
61.6843
54.8974
48.4712
42.7414
37.4442
33.8396
31.9945
30.1254
32.2083
33.4873
41.2657
44.5977
51.6881
55.6118
60.8505
64.3717
68.4456
70.0276
71.968
72.1805
72.3369
71.6771
70.7052
69.4103
67.6732
65.7882
63.6316
61.4516
59.208
57.105
55.1532
53.4284
51.9212
50.8297
50.2659
50.1745
50.2027
50.7368
51.2121
51.9846
52.6426
53.3872
54.0236
54.8147
55.5372
56.3324
57.0506
57.853
58.6533
59.4516
60.1707
60.7408
61.3097
61.9846
62.3148
62.7732
62.7787
62.6477
62.4285
62.2186
61.6199
61.4286
60.6652
60.4165
59.2851
58.6551
57.1467
56.0851
53.9922
52.4541
49.8939
47.4363
44.3192
40.8561
36.9081
32.7142
49.9978
49.7752
47.7778
45.8128
44.6019
44.1155
44.1137
44.4117
44.825
45.2843
45.5976
45.6845
45.7371
45.6241
45.4215
45.2099
44.9093
44.68
44.3766
44.1093
43.7859
43.3469
43.0537
42.6093
42.252
41.8832
41.3949
41.162
40.7404
40.3015
40.0926
39.641
39.169
38.9609
38.6694
38.2377
38.0713
38.0069
37.881
38.0114
38.177
38.3311
38.6043
38.8444
39.3402
40.0257
40.4752
40.9785
41.5744
41.7352
41.9624
42.3818
42.2206
42.0171
42.4203
43.2327
44.7839
47.8073
52.2523
57.1892
61.6124
64.8336
66.2211
65.6859
63.151
58.6927
52.261
44.2081
35.0623
25.476
16.0484
7.17607
-0.755821
-7.62229
-13.6192
-18.7096
-22.6609
-25.1005
-25.7089
-24.5287
-21.5072
-16.5413
-10.0977
-2.798
4.79597
12.4661
20.1044
27.7629
35.5724
43.4944
50.8872
57.3461
62.6926
66.6835
69.7997
72.1643
73.7475
74.7831
75.6735
76.5135
77.0597
77.3972
77.7755
78.0919
78.2398
78.2679
78.36
78.605
78.9148
78.9875
78.8686
78.6187
78.8733
79.226
79.6031
79.8239
79.8811
79.9055
79.8549
79.7299
79.0867
77.7591
74.9442
70.7024
65.2055
58.9359
52.7512
47.4123
41.8602
38.2613
36.1374
33.672
37.6968
37.3863
47.3046
46.9435
57.0938
58.4969
64.9824
67.8223
72.1142
73.7773
75.5323
75.7076
75.4101
74.6631
73.4664
72.1655
70.2962
68.4145
66.2223
64.1054
61.8667
59.795
57.7729
56.1214
54.6584
53.835
52.9311
52.6631
52.5464
52.8047
53.0609
53.455
53.8912
54.4194
54.8613
55.3184
55.7693
56.4452
57.0826
57.7794
58.3805
59.0962
59.7347
60.4868
60.9771
61.5776
61.9632
62.3631
62.574
62.8227
62.6858
62.538
61.9107
61.6991
60.7405
60.4359
59.093
58.5395
56.9696
55.813
53.8685
52.1573
49.7701
47.2896
44.3465
41.1042
37.5655
33.8434
50.0765
49.8366
47.8062
45.87
44.67
44.2244
44.224
44.5003
44.955
45.3193
45.6338
45.7204
45.6825
45.6494
45.3702
45.1716
44.9492
44.6036
44.4025
44.1181
43.7703
43.4633
43.1046
42.7814
42.4315
42.0657
41.7386
41.4004
41.1213
40.8088
40.5004
40.233
39.9137
39.658
39.4982
39.3158
39.1062
39.1247
39.1964
39.2495
39.5003
39.6946
40.0219
40.3742
40.728
41.4065
41.8456
42.1193
42.6074
42.7817
42.6186
42.4639
41.902
41.1169
40.6417
40.4785
41.5226
44.6441
48.9191
53.7213
58.504
61.8787
62.9029
62.052
59.4451
55.7966
50.7377
44.0667
35.9985
27.1563
18.1307
9.52579
1.66704
-5.27691
-11.2525
-16.1839
-19.9698
-22.3106
-22.8666
-21.7045
-18.6764
-13.9661
-7.93118
-1.02451
6.26339
13.753
21.3292
29.0091
36.9053
44.7343
51.9998
58.441
63.6321
67.5412
70.5653
72.8153
74.315
75.3392
76.2631
77.0304
77.3854
77.6555
78.107
78.5319
78.6825
78.5976
78.5912
78.8351
79.1243
79.1931
79.0645
78.9729
79.1071
79.4667
79.7871
79.9826
80.0635
80.1038
80.2011
80.3442
80.0083
79.0448
77.0064
73.6921
69.111
63.0996
57.0563
52.0218
46.1362
43.1891
40.5164
38.7192
42.5629
42.316
51.9746
49.2863
62.2139
60.7485
69.0266
71.4202
75.798
77.8315
79.3314
79.5676
78.9855
78.2092
76.759
75.3808
73.3133
71.4105
69.0873
67.0014
64.7062
62.6795
60.6174
58.9778
57.4563
56.4282
55.5156
55.0745
54.7508
54.6455
54.6216
54.7564
54.9835
55.2478
55.4999
55.7651
56.03
56.4563
56.9352
57.4974
58.0841
58.7937
59.4394
60.1696
60.7696
61.4188
61.9015
62.3102
62.3683
62.667
62.4448
62.3782
61.8694
61.6058
60.896
60.3974
59.3548
58.4361
56.9316
55.5612
53.715
51.8282
49.5604
47.1207
44.363
41.372
38.1581
34.757
49.9809
49.7695
47.7475
45.9097
44.7852
44.3666
44.4435
44.6627
45.1022
45.4517
45.6228
45.776
45.6654
45.6
45.4166
45.0844
44.9715
44.6193
44.3482
44.2212
43.7806
43.5514
43.2634
42.8622
42.6603
42.2774
41.99
41.7315
41.42
41.2434
40.9396
40.759
40.6023
40.3309
40.3082
40.2829
40.1201
40.227
40.4276
40.4339
40.7215
41.0635
41.2413
41.6761
42.1508
42.5862
43.0263
43.4127
43.6714
43.7554
43.5838
42.8041
41.5945
40.3937
39.1493
37.8564
38.1918
41.284
45.621
50.1718
54.7776
57.9051
58.2551
56.4629
54.6194
52.3629
49.1934
44.407
37.6937
29.8731
21.4562
13.0893
5.23947
-1.80716
-7.86883
-12.8386
-16.55
-18.8047
-19.4178
-18.3111
-15.4582
-11.0641
-5.44436
1.11568
8.12282
15.4276
22.9675
30.7014
38.5947
46.2557
53.4098
59.6137
64.5094
68.3339
71.2794
73.4213
74.7718
75.7397
76.7053
77.4388
77.8213
78.1528
78.5599
78.8485
78.8619
78.7975
78.8731
79.1558
79.4153
79.4444
79.2793
79.117
79.2401
79.5744
79.9714
80.2755
80.3987
80.4094
80.7217
81.1655
81.1478
80.4898
79.0368
76.6951
73.3448
67.4749
62.4543
56.7714
51.0759
48.5871
44.8611
43.5916
46.7777
46.8335
57.0544
52.7111
66.2841
62.9335
72.1971
74.1119
78.6607
81.2634
82.7914
83.4641
82.8997
82.1916
80.5507
79.0511
76.8368
74.7765
72.3222
70.0845
67.7281
65.5969
63.4948
61.7158
60.096
58.8494
57.8174
57.1165
56.5582
56.2655
56.0974
56.023
55.9868
56.0025
56.0387
56.1169
56.1735
56.3491
56.6604
57.1514
57.7163
58.4185
59.0628
59.8138
60.4778
61.1336
61.5783
62.1782
62.4076
62.5601
62.2587
62.141
61.5558
61.2059
60.4002
59.8007
58.8508
57.8852
56.5435
55.0901
53.3801
51.4937
49.3596
47.0408
44.4771
41.6969
38.7079
35.5429
49.731
49.5104
47.5975
45.9051
44.9647
44.6457
44.7303
44.9434
45.317
45.5681
45.709
45.7758
45.6536
45.5988
45.3622
45.1215
44.9707
44.6224
44.414
44.2052
43.8489
43.6345
43.3548
43.0243
42.8125
42.5059
42.2205
42.0265
41.775
41.5938
41.4364
41.2539
41.1546
41.0661
41.0403
41.1075
41.1406
41.2453
41.4563
41.6231
41.8308
42.1188
42.3787
42.81
43.3815
43.6764
43.9113
44.5133
44.7711
44.5088
44.3799
43.6145
41.799
39.8227
37.8682
36.1272
36.2533
38.8138
42.7304
47.1301
51.4762
53.9916
53.531
51.5342
49.9705
49.2685
48.1439
45.2656
40.0436
33.2684
25.6223
17.6452
9.86616
2.72076
-3.51148
-8.63093
-12.459
-14.806
-15.5288
-14.596
-12.0228
-7.93197
-2.66273
3.51001
10.305
17.5073
25.01
32.7605
40.5216
47.9911
54.8606
60.6894
65.3809
69.0877
71.8933
73.8467
75.1582
76.2242
77.1839
77.7534
78.0788
78.4559
78.9237
79.2247
79.2228
79.093
79.1318
79.4023
79.6491
79.6523
79.4355
79.3644
79.4751
79.8764
80.3035
80.6516
80.8305
80.9991
81.2732
81.8959
82.2103
81.8535
80.7755
79.0971
76.3468
72.4286
67.6447
62.2856
57.8682
54.1847
49.7592
49.5665
50.9071
50.9402
60.0849
57.0634
68.28
65.2839
74.1997
74.8931
80.4008
83.3804
85.6747
87.0259
86.8034
86.1862
84.5126
82.8098
80.4374
78.1239
75.5473
73.0741
70.578
68.2585
66.1152
64.142
62.4121
60.9764
59.7752
58.7894
58.0445
57.637
57.3409
57.1066
56.9049
56.7289
56.5024
56.283
56.1994
56.2103
56.3573
56.7063
57.2511
57.8923
58.5431
59.3336
60.0844
60.788
61.2415
61.7305
61.9248
62.0389
61.9249
61.8042
61.4397
61.0084
60.3541
59.595
58.6505
57.5714
56.2607
54.7907
53.1515
51.308
49.2643
47.0453
44.6212
41.9991
39.2047
36.2488
49.2294
49.0819
47.4282
46.0542
45.3046
45.048
45.143
45.2637
45.5589
45.6874
45.7519
45.7954
45.6167
45.5936
45.3455
45.1156
44.9938
44.6278
44.4914
44.2358
43.9122
43.7742
43.4179
43.204
42.993
42.6515
42.5209
42.2427
42.0544
42.0004
41.7557
41.7244
41.6958
41.5999
41.7389
41.8504
41.9675
42.1768
42.3535
42.5655
42.7969
42.9758
43.2726
43.7019
44.1678
44.5529
44.6685
44.9563
45.3957
45.3108
44.9339
44.2145
42.5021
39.9829
37.1769
34.936
34.659
36.7476
40.5293
45.1301
49.3768
51.2224
50.175
48.1572
47.0942
47.5992
48.2259
47.1007
43.1764
37.3139
30.2997
22.7888
15.2294
8.06194
1.64349
-3.73104
-7.79321
-10.3474
-11.3091
-10.6997
-8.39926
-4.60861
0.351376
6.25002
12.8514
19.9562
27.364
34.9828
42.509
49.7558
56.2217
61.6926
66.1863
69.6936
72.3555
74.1882
75.4898
76.5639
77.4271
78.0009
78.4547
78.8858
79.2579
79.4094
79.4473
79.4488
79.5413
79.7519
79.8753
79.7951
79.5871
79.437
79.6077
80.0903
80.4873
80.8558
81.1495
81.2771
81.5903
82.4028
83.0078
82.6639
81.7266
80.314
78.384
76.0433
71.3621
67.7813
64.1368
59.2424
56.6605
56.536
54.6097
57.3479
62.2527
61.3337
69.2341
65.8734
74.5267
74.8826
81.7951
85.2415
88.4832
90.2474
90.3539
89.7421
88.0242
86.1139
83.5929
81.0713
78.3398
75.6751
73.0504
70.5669
68.3082
66.207
64.3791
62.7433
61.4103
60.2779
59.3452
58.6905
58.2492
57.9751
57.6545
57.3667
56.9789
56.4721
56.112
55.9273
56.0059
56.2289
56.7103
57.3026
57.9728
58.8331
59.5744
60.289
60.8613
61.3794
61.6186
61.7639
61.739
61.4984
61.0855
60.5945
59.9798
59.2231
58.2962
57.2326
55.9977
54.5621
52.9682
51.1851
49.2231
47.1031
44.793
42.3219
39.7046
36.9253
48.3699
48.3537
47.2494
46.2934
45.8
45.5809
45.5849
45.6409
45.7631
45.7946
45.809
45.7727
45.616
45.5659
45.3386
45.1484
44.9978
44.6829
44.5302
44.2882
43.9987
43.8303
43.5309
43.2963
43.1174
42.843
42.6793
42.5011
42.31
42.2454
42.1074
42.0632
42.1074
42.0884
42.2488
42.4261
42.5713
42.8546
43.0533
43.2181
43.443
43.5775
43.8312
44.2086
44.5102
44.9193
45.2461
45.3275
45.5241
45.7003
45.4601
44.5992
42.8694
40.3218
37.285
34.6844
33.622
35.4945
39.5415
44.5265
48.7466
50.225
49.2766
47.5932
46.6027
47.7508
49.5604
49.8603
46.8645
41.8143
35.3264
28.1905
20.8936
13.794
7.25667
1.64512
-2.73466
-5.60532
-6.83452
-6.50627
-4.51476
-1.03416
3.61272
9.22027
15.613
22.5339
29.7624
37.1601
44.4044
51.2545
57.3025
62.4638
66.7344
70.0827
72.5966
74.3723
75.7076
76.8016
77.6065
78.213
78.7456
79.2368
79.6089
79.7817
79.7848
79.7088
79.7792
79.9923
80.1655
80.1035
79.8323
79.6815
79.8683
80.4235
80.7385
80.9389
81.1784
81.4126
81.9159
82.6394
83.4598
82.9379
82.1195
80.997
79.5706
77.2629
74.2981
71.3472
68.0517
63.747
61.4039
59.0298
58.3718
61.6931
62.5161
63.3524
67.1286
68.4459
73.7528
78.7955
83.9853
88.2837
91.4623
93.1201
93.2018
92.4978
90.7527
88.6941
86.0919
83.4232
80.5883
77.8121
75.0615
72.4484
70.0529
67.8535
65.9313
64.1742
62.7533
61.4866
60.4741
59.6637
59.0852
58.7041
58.3194
57.9198
57.3225
56.5821
55.9104
55.5056
55.547
55.7106
56.1794
56.7769
57.5242
58.3832
59.164
59.9136
60.5743
61.0951
61.3599
61.4816
61.4605
61.2187
60.8605
60.4063
59.7826
59.0036
58.1204
57.061
55.8316
54.418
52.8689
51.1493
49.2652
47.2261
45.0132
42.6653
40.1744
37.5296
47.5001
47.6103
47.1475
46.6748
46.3591
46.1089
46.0037
45.9353
45.9175
45.8721
45.829
45.7615
45.6125
45.5367
45.3348
45.157
44.9973
44.7083
44.5628
44.3232
44.0518
43.8993
43.6012
43.3979
43.2304
42.9655
42.8348
42.6561
42.493
42.445
42.3378
42.3226
42.3634
42.4122
42.5891
42.7812
42.9967
43.2661
43.4614
43.5896
43.7156
43.8457
44.1347
44.4736
44.5773
44.8224
45.3347
45.6332
45.6302
45.6217
45.4918
44.8614
43.3541
40.9395
38.0513
35.7581
35.0903
37.097
41.4811
46.4746
50.1922
51.2334
50.499
49.1744
48.5639
49.3441
51.4239
52.4008
50.4783
46.1125
40.2953
33.6046
26.5189