/*--------------------------------*- C++ -*----------------------------------*\
| =========                 |                                                 |
| \\      /  F ield         | OpenFOAM: The Open Source CFD Toolbox           |
|  \\    /   O peration     | Version:  2.4.0                                 |
|   \\  /    A nd           | Web:      www.OpenFOAM.org                      |
|    \\/     M anipulation  |                                                 |
\*---------------------------------------------------------------------------*/
FoamFile
{
    version     2.0;
    format      ascii;
    class       surfaceScalarField;
    location    "0.11";
    object      phi_0;
}
// * * * * * * * * * * * * * * * * * * * * * * * * * * * * * * * * * * * * * //

dimensions      [0 3 -1 0 0 0 0];

internalField   nonuniform List<scalar> 
17320
(
1.76312e-05
7.36875e-06
1.16178e-05
6.01343e-06
8.68537e-06
2.93244e-06
7.35472e-06
1.33065e-06
6.72618e-06
6.28547e-07
6.33351e-06
3.92665e-07
6.07812e-06
2.55393e-07
5.88406e-06
1.94057e-07
5.70631e-06
1.77753e-07
5.57279e-06
1.33516e-07
5.49849e-06
7.42979e-08
5.39311e-06
1.05381e-07
5.31875e-06
7.43632e-08
5.2262e-06
9.25537e-08
5.16406e-06
6.21361e-08
5.0885e-06
7.55568e-08
4.96965e-06
1.18858e-07
4.89322e-06
7.64212e-08
4.7108e-06
1.82429e-07
-3.08611e-07
5.01941e-06
2.54507e-05
6.91801e-06
2.32491e-05
8.21509e-06
2.09859e-05
5.19566e-06
1.93238e-05
2.99272e-06
1.80795e-05
1.87286e-06
1.71017e-05
1.3705e-06
1.63728e-05
9.84249e-07
1.57857e-05
7.81109e-07
1.53055e-05
6.58001e-07
1.493e-05
5.08964e-07
1.4659e-05
3.45333e-07
1.43822e-05
3.822e-07
1.41686e-05
2.87926e-07
1.39495e-05
3.11721e-07
1.37876e-05
2.24046e-07
1.35817e-05
2.81372e-07
1.33678e-05
3.32796e-07
1.31868e-05
2.57396e-07
1.30179e-05
3.51392e-07
-2.69627e-07
1.29789e-05
2.66082e-05
5.30985e-06
2.71583e-05
7.66499e-06
2.67588e-05
5.59508e-06
2.62602e-05
3.49138e-06
2.56044e-05
2.52859e-06
2.48631e-05
2.11184e-06
2.41721e-05
1.67522e-06
2.35104e-05
1.44283e-06
2.29316e-05
1.23684e-06
2.2443e-05
9.9749e-07
2.20572e-05
7.31209e-07
2.16855e-05
7.53891e-07
2.13831e-05
5.90333e-07
2.10807e-05
6.14105e-07
2.08718e-05
4.32918e-07
2.05721e-05
5.81055e-07
2.03399e-05
5.6498e-07
2.00457e-05
5.51632e-07
1.99435e-05
4.53634e-07
6.49818e-08
1.96089e-05
2.63062e-05
4.00361e-06
2.75694e-05
6.40184e-06
2.80379e-05
5.1266e-06
2.84621e-05
3.06717e-06
2.86503e-05
2.34033e-06
2.86168e-05
2.14538e-06
2.84943e-05
1.79775e-06
2.82369e-05
1.70023e-06
2.79659e-05
1.50778e-06
2.76919e-05
1.27157e-06
2.74384e-05
9.84668e-07
2.71736e-05
1.01871e-06
2.6949e-05
8.14944e-07
2.66681e-05
8.94977e-07
2.65129e-05
5.88132e-07
2.62175e-05
8.76471e-07
2.60365e-05
7.45978e-07
2.56781e-05
9.09982e-07
2.54252e-05
7.06589e-07
1.15319e-06
2.4337e-05
2.60007e-05
3.00294e-06
2.72693e-05
5.13316e-06
2.79884e-05
4.40755e-06
2.84815e-05
2.57403e-06
2.89778e-05
1.84406e-06
2.93197e-05
1.80349e-06
2.96035e-05
1.51395e-06
2.97514e-05
1.55237e-06
2.98379e-05
1.42124e-06
2.99226e-05
1.18685e-06
2.99395e-05
9.67791e-07
2.99535e-05
1.00475e-06
2.99824e-05
7.85977e-07
2.99243e-05
9.5305e-07
2.99262e-05
5.8625e-07
2.98538e-05
9.48919e-07
2.97675e-05
8.32253e-07
2.97417e-05
9.35839e-07
2.98352e-05
6.13083e-07
8.16348e-07
3.0172e-05
2.5744e-05
2.25894e-06
2.70176e-05
3.85954e-06
2.77997e-05
3.6255e-06
2.82734e-05
2.10032e-06
2.87391e-05
1.37831e-06
2.90981e-05
1.44449e-06
2.95008e-05
1.11132e-06
2.97625e-05
1.29061e-06
2.99783e-05
1.20547e-06
3.02259e-05
9.3921e-07
3.03761e-05
8.17575e-07
3.05202e-05
8.60686e-07
3.07184e-05
5.87821e-07
3.08534e-05
8.1802e-07
3.09781e-05
4.61576e-07
3.11464e-05
7.80627e-07
3.12407e-05
7.37859e-07
3.14967e-05
6.79917e-07
3.16201e-05
4.89684e-07
3.98456e-07
3.2038e-05
2.5826e-05
1.43296e-06
2.67763e-05
2.90924e-06
2.76282e-05
2.77355e-06
2.80835e-05
1.64504e-06
2.84251e-05
1.03677e-06
2.88161e-05
1.05349e-06
2.91791e-05
7.48317e-07
2.945e-05
1.0197e-06
2.97683e-05
8.87146e-07
2.9997e-05
7.10475e-07
3.01952e-05
6.19393e-07
3.04242e-05
6.31677e-07
3.0584e-05
4.28076e-07
3.07527e-05
6.49293e-07
3.09546e-05
2.59692e-07
3.12088e-05
5.26385e-07
3.13987e-05
5.47962e-07
3.16594e-05
4.1923e-07
3.18849e-05
2.64152e-07
3.93976e-08
3.2244e-05
2.5344e-05
1.08894e-06
2.64825e-05
1.77079e-06
2.74504e-05
1.80562e-06
2.79199e-05
1.17555e-06
2.84009e-05
5.55777e-07
2.86745e-05
7.79818e-07
2.89723e-05
4.50546e-07
2.93676e-05
6.24425e-07
2.95938e-05
6.60913e-07
2.98235e-05
4.80751e-07
3.01072e-05
3.35766e-07
3.02906e-05
4.48192e-07
3.03907e-05
3.28055e-07
3.06379e-05
4.0202e-07
3.08082e-05
8.94737e-08
3.1031e-05
3.03548e-07
3.12362e-05
3.42743e-07
3.15229e-05
1.32511e-07
3.17684e-05
1.87222e-08
-1.89771e-07
3.19975e-05
2.5597e-05
4.91969e-07
2.65706e-05
7.97159e-07
2.7302e-05
1.07426e-06
2.80166e-05
4.6097e-07
2.82415e-05
3.3088e-07
2.85907e-05
4.30602e-07
2.89018e-05
1.39405e-07
2.91648e-05
3.61454e-07
2.9445e-05
3.80693e-07
2.97697e-05
1.56065e-07
2.9934e-05
1.71417e-07
3.01663e-05
2.15929e-07
3.03329e-05
1.61423e-07
3.05475e-05
1.87417e-07
3.06737e-05
-3.66439e-08
3.08945e-05
8.27425e-08
3.11186e-05
1.18641e-07
3.14247e-05
-1.73651e-07
3.16545e-05
-2.11095e-07
-2.86828e-07
3.17516e-05
2.54246e-05
6.73487e-08
2.63238e-05
-1.02004e-07
2.7301e-05
9.70222e-08
2.77639e-05
-1.90729e-09
2.82039e-05
-1.09089e-07
2.85893e-05
4.52005e-08
2.87737e-05
-4.50249e-08
2.91108e-05
2.4352e-08
2.94523e-05
3.92111e-08
2.96456e-05
-3.72692e-08
2.99013e-05
-8.42737e-08
3.01407e-05
-2.35006e-08
3.02758e-05
2.63798e-08
3.04658e-05
-2.5674e-09
3.06731e-05
-2.44032e-07
3.08381e-05
-8.21749e-08
3.10537e-05
-9.69749e-08
3.13146e-05
-4.3461e-07
3.16405e-05
-5.36997e-07
-2.81817e-07
3.16355e-05
2.53518e-05
-2.845e-07
2.64994e-05
-1.24959e-06
2.73159e-05
-7.19413e-07
2.78744e-05
-5.60457e-07
2.82436e-05
-4.78309e-07
2.84995e-05
-2.10702e-07
2.88591e-05
-4.04613e-07
2.92027e-05
-3.1924e-07
2.93592e-05
-1.17265e-07
2.97129e-05
-3.90957e-07
2.99175e-05
-2.88925e-07
3.00937e-05
-1.99682e-07
3.02681e-05
-1.47978e-07
3.05229e-05
-2.57442e-07
3.06352e-05
-3.56314e-07
3.08437e-05
-2.90596e-07
3.10709e-05
-3.24221e-07
3.13587e-05
-7.22442e-07
3.15525e-05
-7.30743e-07
-2.68673e-07
3.15393e-05
2.55277e-05
-8.12238e-07
2.64438e-05
-2.16565e-06
2.73684e-05
-1.64401e-06
2.79646e-05
-1.15666e-06
2.81657e-05
-6.79451e-07
2.85394e-05
-5.84357e-07
2.89036e-05
-7.68835e-07
2.91946e-05
-6.10248e-07
2.9461e-05
-3.8368e-07
2.97616e-05
-6.91504e-07
2.99203e-05
-4.47657e-07
3.0163e-05
-4.42354e-07
3.03518e-05
-3.3682e-07
3.04798e-05
-3.854e-07
3.06808e-05
-5.57288e-07
3.09656e-05
-5.75405e-07
3.1136e-05
-4.94686e-07
3.13326e-05
-9.18984e-07
3.15795e-05
-9.77669e-07
-5.54679e-07
3.18655e-05
2.55059e-05
-1.31815e-06
2.65709e-05
-3.2306e-06
2.74399e-05
-2.51302e-06
2.79964e-05
-1.71322e-06
2.83978e-05
-1.08078e-06
2.8674e-05
-8.60627e-07
2.8933e-05
-1.02781e-06
2.93305e-05
-1.00777e-06
2.96147e-05
-6.67824e-07
2.98699e-05
-9.46756e-07
3.0038e-05
-6.1573e-07
3.02685e-05
-6.72832e-07
3.04057e-05
-4.74072e-07
3.06044e-05
-5.84113e-07
3.08128e-05
-7.65679e-07
3.10398e-05
-8.02359e-07
3.12272e-05
-6.82053e-07
3.1467e-05
-1.15879e-06
3.17478e-05
-1.25852e-06
-9.14649e-07
3.21078e-05
2.5728e-05
-2.04611e-06
2.67577e-05
-4.26034e-06
2.75688e-05
-3.32408e-06
2.80672e-05
-2.21171e-06
2.84827e-05
-1.49626e-06
2.88506e-05
-1.22847e-06
2.91567e-05
-1.33394e-06
2.9475e-05
-1.32609e-06
2.97943e-05
-9.87068e-07
3.00339e-05
-1.18636e-06
3.01565e-05
-7.38384e-07
3.04007e-05
-9.16975e-07
3.05883e-05
-6.61724e-07
3.08158e-05
-8.11626e-07
3.09389e-05
-8.88755e-07
3.11844e-05
-1.04786e-06
3.13529e-05
-8.50496e-07
3.15953e-05
-1.40127e-06
3.17629e-05
-1.42613e-06
-1.32808e-06
3.21764e-05
2.58493e-05
-2.89542e-06
2.69408e-05
-5.35187e-06
2.78139e-05
-4.1971e-06
2.82289e-05
-2.62679e-06
2.87031e-05
-1.97045e-06
2.91056e-05
-1.63092e-06
2.94514e-05
-1.67977e-06
2.9737e-05
-1.61165e-06
2.99925e-05
-1.24259e-06
3.01393e-05
-1.33319e-06
3.03622e-05
-9.61268e-07
3.05325e-05
-1.08731e-06
3.07081e-05
-8.37259e-07
3.08588e-05
-9.62328e-07
3.09618e-05
-9.91754e-07
3.10756e-05
-1.16165e-06
3.11674e-05
-9.42327e-07
3.13083e-05
-1.54222e-06
3.1391e-05
-1.50882e-06
-1.70612e-06
3.17691e-05
2.60635e-05
-3.95891e-06
2.72301e-05
-6.51843e-06
2.80231e-05
-4.99014e-06
2.85179e-05
-3.12161e-06
2.89775e-05
-2.43007e-06
2.93368e-05
-1.99018e-06
2.95826e-05
-1.92556e-06
2.97205e-05
-1.7496e-06
2.98509e-05
-1.37294e-06
2.98742e-05
-1.35651e-06
2.99606e-05
-1.04762e-06
2.99401e-05
-1.06681e-06
2.99515e-05
-8.48667e-07
2.99043e-05
-9.15172e-07
2.9832e-05
-9.19451e-07
2.97226e-05
-1.05218e-06
2.96333e-05
-8.53068e-07
2.94987e-05
-1.40765e-06
2.93556e-05
-1.36568e-06
-1.78192e-06
2.94314e-05
2.6327e-05
-5.2859e-06
2.75236e-05
-7.71506e-06
2.80819e-05
-5.54839e-06
2.84682e-05
-3.50793e-06
2.86234e-05
-2.58524e-06
2.86381e-05
-2.00494e-06
2.84677e-05
-1.75519e-06
2.82131e-05
-1.495e-06
2.7978e-05
-1.13784e-06
2.76702e-05
-1.0487e-06
2.74266e-05
-8.03972e-07
2.71331e-05
-7.7334e-07
2.68989e-05
-6.14427e-07
2.66252e-05
-6.41463e-07
2.63524e-05
-6.46651e-07
2.60488e-05
-7.48655e-07
2.57976e-05
-6.0181e-07
2.53996e-05
-1.00966e-06
2.50888e-05
-1.05489e-06
-1.52381e-06
2.48307e-05
2.66172e-05
-6.90312e-06
2.71468e-05
-8.24465e-06
2.67825e-05
-5.18411e-06
2.62574e-05
-2.98284e-06
2.55842e-05
-1.91194e-06
2.48886e-05
-1.30941e-06
2.41513e-05
-1.0179e-06
2.34875e-05
-8.31168e-07
2.29415e-05
-5.91841e-07
2.24257e-05
-5.32919e-07
2.20217e-05
-3.99912e-07
2.16379e-05
-3.89609e-07
2.13265e-05
-3.03018e-07
2.10096e-05
-3.24527e-07
2.07034e-05
-3.40433e-07
2.0369e-05
-4.14263e-07
2.00881e-05
-3.20935e-07
1.96248e-05
-5.46382e-07
1.91773e-05
-6.07411e-07
-5.89385e-07
1.82429e-05
2.5459e-05
-7.36209e-06
2.32392e-05
-6.02493e-06
2.0988e-05
-2.93288e-06
1.93239e-05
-1.31872e-06
1.80628e-05
-6.5086e-07
1.71206e-05
-3.67156e-07
1.63629e-05
-2.6023e-07
1.57592e-05
-2.2744e-07
1.53123e-05
-1.44958e-07
1.49177e-05
-1.38381e-07
1.46188e-05
-1.00948e-07
1.43377e-05
-1.08528e-07
1.41137e-05
-7.90043e-08
1.38802e-05
-9.10248e-08
1.36448e-05
-1.05032e-07
1.33728e-05
-1.42295e-07
1.31449e-05
-9.29985e-08
1.27777e-05
-1.79197e-07
1.24295e-05
-2.59259e-07
-1.19238e-07
1.19594e-05
1.76379e-05
1.1613e-05
8.6801e-06
7.36138e-06
6.71052e-06
6.34336e-06
6.08313e-06
5.85569e-06
5.71074e-06
5.57235e-06
5.47141e-06
5.36288e-06
5.28387e-06
5.19285e-06
5.08782e-06
4.94552e-06
4.85252e-06
4.67333e-06
4.41407e-06
4.29483e-06
5.62815e-06
-2.125e-07
-3.96239e-07
5.93359e-06
-2.02954e-07
-1.0249e-07
6.12652e-06
-2.27539e-07
3.46096e-08
6.42602e-06
-1.78324e-07
-1.21175e-07
6.78667e-06
-9.44504e-08
-2.66205e-07
7.15215e-06
-4.03033e-08
-3.25179e-07
7.62601e-06
1.0938e-08
-4.84798e-07
8.08808e-06
6.76894e-08
-5.2976e-07
8.40339e-06
-8.34389e-10
-3.1447e-07
8.57679e-06
-1.61372e-07
-1.20252e-08
8.58614e-06
-2.97401e-07
2.88043e-07
8.4423e-06
-3.5103e-07
4.94874e-07
8.30192e-06
-3.04212e-07
4.44591e-07
8.2132e-06
-1.68282e-07
2.57002e-07
8.18605e-06
1.32547e-07
-1.05397e-07
8.30976e-06
4.59727e-07
-5.83435e-07
8.5815e-06
8.40194e-07
-1.11193e-06
8.95686e-06
8.67608e-07
-1.24297e-06
9.40205e-06
1.04173e-06
-1.48692e-06
9.90555e-06
1.01098e-06
-1.51448e-06
1.04396e-05
8.04923e-07
-1.33902e-06
1.08487e-05
8.20431e-07
-1.22953e-06
1.12933e-05
4.93086e-07
-9.37674e-07
1.17845e-05
5.77678e-07
-1.0688e-06
1.2258e-05
3.94686e-07
-8.68193e-07
1.28525e-05
4.15081e-07
-1.00959e-06
1.33817e-05
4.95104e-07
-1.02432e-06
1.39658e-05
2.96187e-07
-8.80316e-07
1.46533e-05
4.02659e-07
-1.09011e-06
1.53284e-05
4.53536e-07
-1.12869e-06
1.61559e-05
4.97589e-07
-1.3251e-06
1.69719e-05
5.83424e-07
-1.39942e-06
1.78908e-05
2.93184e-07
-1.21201e-06
1.88861e-05
2.78729e-07
-1.2741e-06
1.97315e-05
3.61046e-07
-1.2064e-06
2.0575e-05
-7.27073e-08
-7.70849e-07
2.15375e-05
-5.70457e-07
-3.91969e-07
2.23522e-05
-7.35381e-07
-7.93972e-08
2.31397e-05
-1.49878e-06
7.11306e-07
2.38425e-05
-2.15818e-06
1.45535e-06
2.44482e-05
-2.80101e-06
2.19538e-06
2.49631e-05
-3.86018e-06
3.34527e-06
2.53824e-05
-4.67648e-06
4.2572e-06
2.57273e-05
-5.61615e-06
5.27122e-06
2.60671e-05
-6.84827e-06
6.50848e-06
2.63403e-05
-7.60549e-06
7.33225e-06
2.68482e-05
-8.72777e-06
8.21986e-06
2.74969e-05
-9.9021e-06
9.25345e-06
2.81214e-05
-1.05496e-05
9.92511e-06
2.88291e-05
-1.15171e-05
1.08094e-05
2.94151e-05
-1.23373e-05
1.17514e-05
2.95817e-05
-1.25904e-05
1.24237e-05
2.96279e-05
-1.27596e-05
1.27135e-05
2.95142e-05
-1.30657e-05
1.31793e-05
2.87869e-05
-1.27127e-05
1.344e-05
2.79254e-05
-1.22703e-05
1.31317e-05
2.70275e-05
-1.2098e-05
1.2996e-05
2.60256e-05
-1.17172e-05
1.27191e-05
2.50935e-05
-1.1205e-05
1.2137e-05
2.44984e-05
-1.12146e-05
1.18097e-05
2.42407e-05
-1.15684e-05
1.18262e-05
2.41742e-05
-1.1674e-05
1.17405e-05
2.43507e-05
-1.22135e-05
1.2037e-05
2.49225e-05
-1.29184e-05
1.23466e-05
2.5765e-05
-1.37743e-05
1.29317e-05
2.66723e-05
-1.43166e-05
1.34093e-05
2.75737e-05
-1.45727e-05
1.36713e-05
2.84564e-05
-1.46329e-05
1.37503e-05
2.96014e-05
-1.45754e-05
1.34304e-05
3.08441e-05
-1.39964e-05
1.27536e-05
3.21944e-05
-1.32148e-05
1.18645e-05
3.34062e-05
-1.16571e-05
1.04454e-05
3.44964e-05
-9.77379e-06
8.68355e-06
3.55371e-05
-7.65505e-06
6.61432e-06
3.63884e-05
-5.47501e-06
4.62369e-06
3.71824e-05
-3.04292e-06
2.24899e-06
3.77582e-05
-5.7398e-07
-1.85355e-09
3.82959e-05
1.72567e-06
-2.26334e-06
3.86741e-05
4.12916e-06
-4.50743e-06
3.89268e-05
6.23767e-06
-6.49028e-06
3.90224e-05
8.22352e-06
-8.31919e-06
3.89559e-05
9.94278e-06
-9.87623e-06
3.86601e-05
1.13804e-05
-1.10846e-05
3.8128e-05
1.24375e-05
-1.19054e-05
3.74704e-05
1.30878e-05
-1.24301e-05
3.66497e-05
1.3379e-05
-1.25583e-05
3.59443e-05
1.31513e-05
-1.24459e-05
3.52919e-05
1.28086e-05
-1.21562e-05
3.48115e-05
1.19603e-05
-1.14799e-05
3.41176e-05
1.12732e-05
-1.05792e-05
3.3447e-05
9.89557e-06
-9.22496e-06
3.25899e-05
8.62984e-06
-7.7728e-06
3.15994e-05
7.02565e-06
-6.03511e-06
3.05377e-05
5.24315e-06
-4.18151e-06
2.94195e-05
3.47092e-06
-2.35269e-06
2.80556e-05
2.01257e-06
-6.48677e-07
2.66312e-05
3.69351e-07
1.05503e-06
2.53802e-05
-1.12461e-06
2.37564e-06
2.39656e-05
-1.96388e-06
3.37852e-06
2.23461e-05
-2.74491e-06
4.36431e-06
2.07244e-05
-3.07106e-06
4.6928e-06
1.91876e-05
-2.44907e-06
3.98588e-06
1.79387e-05
-1.92364e-06
3.1725e-06
1.68548e-05
-1.82075e-06
2.90469e-06
1.63479e-05
-1.43563e-06
1.94255e-06
1.60987e-05
-3.6732e-07
6.16512e-07
1.58241e-05
9.50354e-07
-6.75765e-07
1.54006e-05
7.11345e-07
-2.87824e-07
1.49702e-05
-3.69462e-07
7.99864e-07
1.50586e-05
-1.50628e-06
1.41784e-06
1.54522e-05
-1.22697e-06
8.33407e-07
1.61759e-05
-1.58096e-07
-5.65623e-07
1.66886e-05
9.54551e-07
-1.46729e-06
1.71409e-05
1.95538e-06
-2.40768e-06
1.74517e-05
1.00255e-06
-1.31336e-06
1.75718e-05
-1.28824e-06
1.16814e-06
1.74849e-05
-4.26739e-06
4.35428e-06
1.72457e-05
-6.57882e-06
6.81801e-06
1.73621e-05
-9.64732e-06
9.53094e-06
1.77329e-05
-1.42153e-05
1.38445e-05
1.82403e-05
-1.98921e-05
1.93848e-05
1.85716e-05
-2.45231e-05
2.41918e-05
1.87036e-05
-2.69021e-05
2.67701e-05
1.90407e-05
-2.68437e-05
2.65066e-05
1.92056e-05
-2.48838e-05
2.47188e-05
1.91862e-05
-2.28126e-05
2.28321e-05
1.89132e-05
-1.96414e-05
1.99144e-05
1.9107e-05
-1.5415e-05
1.52211e-05
1.94118e-05
-1.19992e-05
1.16944e-05
1.95318e-05
-7.56264e-06
7.44263e-06
1.94555e-05
-1.92973e-06
2.00598e-06
1.9595e-05
2.81921e-06
-2.95864e-06
1.95397e-05
6.54526e-06
-6.49003e-06
1.98499e-05
1.16432e-05
-1.19534e-05
1.95015e-05
1.70799e-05
-1.67315e-05
1.94694e-05
1.97626e-05
-1.97305e-05
1.92511e-05
2.22128e-05
-2.19946e-05
1.89296e-05
2.49041e-05
-2.45826e-05
1.90208e-05
2.71853e-05
-2.72766e-05
1.79625e-05
2.81065e-05
-2.70481e-05
1.68793e-05
2.60154e-05
-2.49322e-05
1.63284e-05
2.37462e-05
-2.31952e-05
1.53226e-05
2.26348e-05
-2.16289e-05
1.51716e-05
2.17517e-05
-2.16007e-05
1.49125e-05
2.21591e-05
-2.19001e-05
1.44829e-05
2.17718e-05
-2.13421e-05
1.47744e-05
2.05615e-05
-2.08531e-05
1.44327e-05
2.00115e-05
-1.96698e-05
1.46255e-05
1.79052e-05
-1.8098e-05
1.46744e-05
1.70736e-05
-1.71225e-05
1.47683e-05
1.43585e-05
-1.44524e-05
1.47979e-05
1.32396e-05
-1.32691e-05
1.48921e-05
1.01422e-05
-1.02365e-05
1.47786e-05
9.7397e-06
-9.62622e-06
1.52292e-05
6.5105e-06
-6.96113e-06
1.52399e-05
6.74023e-06
-6.75089e-06
1.59861e-05
2.86634e-06
-3.61257e-06
1.58486e-05
2.91408e-06
-2.7766e-06
1.64766e-05
-1.61413e-06
9.86209e-07
1.63464e-05
-1.43775e-06
1.56792e-06
1.70272e-05
-4.90509e-06
4.22424e-06
1.67219e-05
-3.63784e-06
3.94322e-06
1.69805e-05
-6.19e-06
5.93137e-06
1.66194e-05
-5.0083e-06
5.36936e-06
1.71984e-05
-6.96874e-06
6.38982e-06
1.74012e-05
-5.6819e-06
5.47901e-06
1.7953e-05
-7.29584e-06
6.74408e-06
1.80191e-05
-7.28214e-06
7.21603e-06
1.82106e-05
-9.14173e-06
8.95025e-06
1.82829e-05
-8.85685e-06
8.78451e-06
1.81858e-05
-8.63753e-06
8.73463e-06
1.80526e-05
-7.24237e-06
7.37565e-06
1.75664e-05
-6.60441e-06
7.09059e-06
1.74668e-05
-6.29657e-06
6.39612e-06
1.71125e-05
-6.43986e-06
6.79417e-06
1.72202e-05
-6.39855e-06
6.29088e-06
1.67356e-05
-6.00629e-06
6.49089e-06
1.67342e-05
-5.5528e-06
5.55419e-06
1.60255e-05
-4.68942e-06
5.39812e-06
1.60912e-05
-4.28283e-06
4.21711e-06
1.54681e-05
-3.40688e-06
4.02996e-06
1.58822e-05
-2.82725e-06
2.41317e-06
1.52108e-05
-1.31731e-06
1.9887e-06
1.57756e-05
-8.10749e-07
2.45932e-07
1.5021e-05
8.35616e-07
-8.10077e-08
1.55906e-05
1.18942e-06
-1.75899e-06
1.50436e-05
2.85297e-06
-2.30598e-06
1.56105e-05
2.99448e-06
-3.56139e-06
1.51623e-05
4.80532e-06
-4.35713e-06
1.53345e-05
4.98363e-06
-5.15581e-06
1.52891e-05
6.50979e-06
-6.46443e-06
1.47723e-05
7.13645e-06
-6.61962e-06
1.53463e-05
7.86375e-06
-8.4377e-06
1.4214e-05
9.62475e-06
-8.49245e-06
1.44829e-05
1.03827e-05
-1.06517e-05
1.32887e-05
1.30006e-05
-1.18064e-05
1.36471e-05
1.32509e-05
-1.36093e-05
1.31317e-05
1.80842e-05
-1.75689e-05
1.42625e-05
1.8865e-05
-1.99958e-05
2.88386e-05
-2.85015e-05
1.39255e-05
1.30253e-05
-2.58936e-07
1.31118e-05
-2.89422e-07
1.32406e-05
-3.56343e-07
1.34301e-05
-3.67874e-07
1.36731e-05
-3.37365e-07
1.38591e-05
-2.26375e-07
1.40384e-05
-1.68333e-07
1.42301e-05
-1.23999e-07
1.43624e-05
-1.33106e-07
1.4408e-05
-2.06994e-07
1.4386e-05
-2.75384e-07
1.43716e-05
-3.36669e-07
1.43176e-05
-2.50207e-07
1.43354e-05
-1.86118e-07
1.43962e-05
7.1801e-08
1.46085e-05
2.4739e-07
1.49246e-05
5.24107e-07
1.52122e-05
5.79966e-07
1.56238e-05
6.30177e-07
1.59997e-05
6.3512e-07
1.63493e-05
4.55297e-07
1.67396e-05
4.30097e-07
1.705e-05
1.82736e-07
1.74864e-05
1.41207e-07
1.78199e-05
6.1208e-08
1.8267e-05
-3.19853e-08
1.87308e-05
3.1289e-08
1.90899e-05
-6.29461e-08
1.951e-05
-1.73763e-08
1.99687e-05
-5.25176e-09
2.05085e-05
-4.21283e-08
2.10429e-05
4.90327e-08
2.14683e-05
-1.32218e-07
2.21063e-05
-3.59263e-07
2.27816e-05
-3.14301e-07
2.34411e-05
-7.32231e-07
2.40305e-05
-1.15984e-06
2.47283e-05
-1.43321e-06
2.546e-05
-2.23043e-06
2.60293e-05
-2.72751e-06
2.6696e-05
-3.46768e-06
2.73771e-05
-4.54132e-06
2.78744e-05
-5.17378e-06
2.84981e-05
-6.23985e-06
2.91104e-05
-7.46057e-06
2.96318e-05
-8.12689e-06
3.03292e-05
-9.4251e-06
3.08154e-05
-1.03883e-05
3.10912e-05
-1.08254e-05
3.13367e-05
-1.17626e-05
3.12677e-05
-1.22684e-05
3.0717e-05
-1.20397e-05
3.02702e-05
-1.23128e-05
2.94802e-05
-1.22757e-05
2.82447e-05
-1.14772e-05
2.73049e-05
-1.13304e-05
2.63845e-05
-1.11776e-05
2.53091e-05
-1.06418e-05
2.45737e-05
-1.04696e-05
2.43588e-05
-1.09996e-05
2.41527e-05
-1.13623e-05
2.41112e-05
-1.16325e-05
2.42817e-05
-1.23841e-05
2.48629e-05
-1.34995e-05
2.54126e-05
-1.4324e-05
2.57601e-05
-1.4664e-05
2.63105e-05
-1.51231e-05
2.71568e-05
-1.54793e-05
2.85079e-05
-1.59266e-05
2.9957e-05
-1.54455e-05
3.14102e-05
-1.46679e-05
3.26222e-05
-1.28691e-05
3.36734e-05
-1.0825e-05
3.45577e-05
-8.53935e-06
3.53513e-05
-6.26864e-06
3.60099e-05
-3.7015e-06
3.66516e-05
-1.21569e-06
3.70027e-05
1.37459e-06
3.73426e-05
3.78925e-06
3.74928e-05
6.08746e-06
3.75919e-05
8.12439e-06
3.75638e-05
9.97084e-06
3.76068e-05
1.13374e-05
3.73954e-05
1.26489e-05
3.70449e-05
1.34383e-05
3.63256e-05
1.40984e-05
3.54486e-05
1.40283e-05
3.45604e-05
1.36968e-05
3.36958e-05
1.28248e-05
3.29983e-05
1.19707e-05
3.21669e-05
1.0727e-05
3.15373e-05
9.2594e-06
3.05183e-05
8.04469e-06
2.95309e-05
6.23054e-06
2.83124e-05
4.68942e-06
2.72732e-05
3.05176e-06
2.59194e-05
1.72315e-06
2.47479e-05
4.68327e-08
2.32139e-05
-4.29879e-07
2.18669e-05
-1.3979e-06
2.02788e-05
-1.48295e-06
1.91037e-05
-1.27393e-06
1.77955e-05
-6.1546e-07
1.70303e-05
-1.05551e-06
1.64586e-05
-8.63972e-07
1.64405e-05
-3.49231e-07
1.61093e-05
1.28158e-06
1.57785e-05
1.04217e-06
1.51589e-05
2.50096e-07
1.52437e-05
-1.59102e-06
1.53235e-05
-1.3068e-06
1.60789e-05
-9.13506e-07
1.63529e-05
6.80557e-07
1.68843e-05
1.42399e-06
1.69294e-05
9.5745e-07
1.70741e-05
-1.43294e-06
1.67885e-05
-3.98182e-06
1.65996e-05
-6.38989e-06
1.6547e-05
-9.5947e-06
1.68468e-05
-1.45151e-05
1.71004e-05
-2.01458e-05
1.715e-05
-2.45727e-05
1.73985e-05
-2.71505e-05
1.73328e-05
-2.6778e-05
1.74821e-05
-2.50331e-05
1.72989e-05
-2.26293e-05
1.69217e-05
-1.92643e-05
1.72275e-05
-1.57207e-05
1.74229e-05
-1.21946e-05
1.7709e-05
-7.84876e-06
1.75707e-05
-1.79148e-06
1.78597e-05
2.53026e-06
1.78514e-05
6.55355e-06
1.81689e-05
1.13257e-05
1.83894e-05
1.68594e-05
1.8116e-05
2.0036e-05
1.8396e-05
2.19328e-05
1.82501e-05
2.505e-05
1.79913e-05
2.74442e-05
1.78865e-05
2.82113e-05
1.67374e-05
2.71645e-05
1.61077e-05
2.43759e-05
1.58597e-05
2.28827e-05
1.52624e-05
2.2349e-05
1.56552e-05
2.17663e-05
1.55132e-05
2.19138e-05
1.55469e-05
2.05279e-05
1.57267e-05
1.98317e-05
1.57781e-05
1.78538e-05
1.58792e-05
1.69725e-05
1.64737e-05
1.37641e-05
1.62359e-05
1.34773e-05
1.69868e-05
9.39136e-06
1.64898e-05
1.02367e-05
1.73462e-05
5.65405e-06
1.70239e-05
7.06256e-06
1.81285e-05
1.76173e-06
1.79217e-05
3.12087e-06
1.88336e-05
-2.52607e-06
1.84507e-05
-1.05482e-06
1.92108e-05
-5.66519e-06
1.86157e-05
-3.04274e-06
1.92022e-05
-6.77651e-06
1.85339e-05
-4.34003e-06
1.94106e-05
-7.84542e-06
1.92444e-05
-5.51564e-06
2.03184e-05
-8.36987e-06
1.99158e-05
-6.87954e-06
2.04691e-05
-9.69499e-06
1.98483e-05
-8.2361e-06
2.01758e-05
-8.96505e-06
1.94759e-05
-6.54241e-06
1.96242e-05
-6.75277e-06
1.90354e-05
-5.70776e-06
1.91646e-05
-6.56905e-06
1.87436e-05
-5.97751e-06
1.87537e-05
-6.0164e-06
1.8181e-05
-4.98009e-06
1.78093e-05
-4.31773e-06
1.71631e-05
-3.63668e-06
1.69053e-05
-3.14911e-06
1.64856e-05
-2.40746e-06
1.65693e-05
-1.40103e-06
1.62825e-05
-5.24005e-07
1.64702e-05
6.4798e-07
1.59949e-05
1.66469e-06
1.63399e-05
2.50795e-06
1.55584e-05
3.77601e-06
1.62624e-05
4.10125e-06
1.55186e-05
5.72743e-06
1.62353e-05
5.79317e-06
1.58424e-05
7.52931e-06
1.65571e-05
7.14901e-06
1.64717e-05
9.71017e-06
1.76806e-05
9.17388e-06
1.73345e-05
1.33467e-05
1.86077e-05
1.19777e-05
1.73979e-05
1.92941e-05
2.281e-05
1.34529e-05
2.90737e-05
2.25749e-05
1.95567e-05
-2.06795e-07
1.96518e-05
-3.84472e-07
1.984e-05
-5.4461e-07
2.00515e-05
-5.79286e-07
2.0234e-05
-5.19942e-07
2.03609e-05
-3.53259e-07
2.04353e-05
-2.42752e-07
2.05166e-05
-2.05291e-07
2.05648e-05
-1.8132e-07
2.06033e-05
-2.45481e-07
2.05849e-05
-2.56926e-07
2.05667e-05
-3.18534e-07
2.05513e-05
-2.3474e-07
2.05417e-05
-1.76514e-07
2.06398e-05
-2.63068e-08
2.0794e-05
9.31172e-08
2.10471e-05
2.70997e-07
2.13486e-05
2.78528e-07
2.16454e-05
3.33321e-07
2.19749e-05
3.05686e-07
2.2287e-05
1.43213e-07
2.26143e-05
1.02804e-07
2.28492e-05
-5.21715e-08
2.31921e-05
-2.01773e-07
2.34988e-05
-2.45469e-07
2.37811e-05
-3.14283e-07
2.41265e-05
-3.14123e-07
2.44569e-05
-3.93353e-07
2.47629e-05
-3.23344e-07
2.51078e-05
-3.50129e-07
2.55087e-05
-4.43035e-07
2.59505e-05
-3.92768e-07
2.63765e-05
-5.58221e-07
2.67958e-05
-7.78553e-07
2.72746e-05
-7.93132e-07
2.78742e-05
-1.33179e-06
2.82617e-05
-1.54733e-06
2.88508e-05
-2.0224e-06
2.94471e-05
-2.82674e-06
2.98929e-05
-3.17331e-06
3.05173e-05
-4.09201e-06
3.1077e-05
-5.10101e-06
3.14597e-05
-5.5565e-06
3.21061e-05
-6.88629e-06
3.24209e-05
-7.77536e-06
3.26592e-05
-8.36518e-06
3.29264e-05
-9.6923e-06
3.2727e-05
-1.01889e-05
3.24501e-05
-1.05484e-05
3.21559e-05
-1.14684e-05
3.12734e-05
-1.13859e-05
3.03501e-05
-1.11164e-05
2.9682e-05
-1.16447e-05
2.84898e-05
-1.10835e-05
2.7467e-05
-1.04544e-05
2.6878e-05
-1.07414e-05
2.61076e-05
-1.04072e-05
2.52728e-05
-9.80707e-06
2.50531e-05
-1.02499e-05
2.48835e-05
-1.083e-05
2.42978e-05
-1.07767e-05
2.3955e-05
-1.12897e-05
2.40428e-05
-1.24718e-05
2.41983e-05
-1.36551e-05
2.3932e-05
-1.40577e-05
2.38574e-05
-1.45894e-05
2.43989e-05
-1.56646e-05
2.5737e-05
-1.68174e-05
2.72983e-05
-1.74878e-05
2.88942e-05
-1.70414e-05
3.01906e-05
-1.59644e-05
3.12509e-05
-1.39294e-05
3.21381e-05
-1.17122e-05
3.28264e-05
-9.22758e-06
3.35487e-05
-6.99093e-06
3.41871e-05
-4.3399e-06
3.48937e-05
-1.92233e-06
3.53413e-05
9.26983e-07
3.58251e-05
3.30541e-06
3.60338e-05
5.87884e-06
3.60188e-05
8.13932e-06
3.58105e-05
1.01791e-05
3.56613e-05
1.14866e-05
3.56246e-05
1.26856e-05
3.55152e-05
1.35477e-05
3.53125e-05
1.43011e-05
3.4579e-05
1.47618e-05
3.37709e-05
1.4505e-05
3.26416e-05
1.39542e-05
3.17788e-05
1.28335e-05
3.07367e-05
1.17692e-05
2.98776e-05
1.01185e-05
2.88453e-05
9.07692e-06
2.80123e-05
7.06354e-06
2.69923e-05
5.70942e-06
2.58828e-05
4.1613e-06
2.47996e-05
2.80633e-06
2.37455e-05
1.10092e-06
2.24927e-05
8.22935e-07
2.10198e-05
7.50064e-08
1.97897e-05
-2.52832e-07
1.88415e-05
-3.25753e-07
1.79674e-05
2.58674e-07
1.70161e-05
-1.04228e-07
1.6577e-05
-4.24893e-07
1.63588e-05
-1.31046e-07
1.64485e-05
1.19194e-06
1.59978e-05
1.4929e-06
1.57287e-05
5.19134e-07
1.53741e-05
-1.23642e-06
1.56028e-05
-1.5355e-06
1.57795e-05
-1.09018e-06
1.61751e-05
2.84973e-07
1.63452e-05
1.25381e-06
1.65855e-05
7.17178e-07
1.64091e-05
-1.2565e-06
1.62257e-05
-3.79842e-06
1.58476e-05
-6.01179e-06
1.58333e-05
-9.58046e-06
1.58285e-05
-1.45102e-05
1.57008e-05
-2.00181e-05
1.59049e-05
-2.47768e-05
1.5696e-05
-2.69416e-05
1.56374e-05
-2.67194e-05
1.57501e-05
-2.51459e-05
1.53507e-05
-2.22299e-05
1.51979e-05
-1.91115e-05
1.53297e-05
-1.58525e-05
1.56138e-05
-1.24787e-05
1.55252e-05
-7.76018e-06
1.57141e-05
-1.98036e-06
1.58699e-05
2.37453e-06
1.62246e-05
6.19885e-06
1.62247e-05
1.13256e-05
1.67083e-05
1.63758e-05
1.66797e-05
2.00647e-05
1.68906e-05
2.17218e-05
1.75062e-05
2.44345e-05
1.7387e-05
2.75634e-05
1.72027e-05
2.83956e-05
1.69996e-05
2.73675e-05
1.6058e-05
2.53175e-05
1.59227e-05
2.3018e-05
1.59327e-05
2.2339e-05
1.58885e-05
2.18106e-05
1.63615e-05
2.14408e-05
1.6586e-05
2.03033e-05
1.65232e-05
1.98945e-05
1.73631e-05
1.70139e-05
1.69613e-05
1.73743e-05
1.80035e-05
1.27218e-05
1.76629e-05
1.3818e-05
1.85009e-05
8.55337e-06
1.82681e-05
1.04696e-05
1.89289e-05
4.99322e-06
1.90902e-05
6.9013e-06
1.993e-05
9.21847e-07
2.02077e-05
2.84319e-06
2.08862e-05
-3.20457e-06
2.06939e-05
-8.62467e-07
2.11132e-05
-6.08453e-06
2.0722e-05
-2.65152e-06
2.12449e-05
-7.29945e-06
2.08846e-05
-3.97972e-06
2.15355e-05
-8.49631e-06
2.13528e-05
-5.33293e-06
2.22192e-05
-9.23624e-06
2.18353e-05
-6.49567e-06
2.22345e-05
-1.00942e-05
2.15111e-05
-7.51264e-06
2.18734e-05
-9.32743e-06
2.11322e-05
-5.80119e-06
2.15392e-05
-7.15976e-06
2.09062e-05
-5.07479e-06
2.13665e-05
-7.02935e-06
2.06055e-05
-5.2165e-06
2.07119e-05
-6.12272e-06
1.94533e-05
-3.72153e-06
1.94028e-05
-4.26727e-06
1.81916e-05
-2.42544e-06
1.83646e-05
-3.32208e-06
1.72929e-05
-1.33582e-06
1.76179e-05
-1.726e-06
1.66674e-05
4.26495e-07
1.71228e-05
1.92539e-07
1.65249e-05
2.26268e-06
1.70168e-05
2.01601e-06
1.65641e-05
4.22871e-06
1.69423e-05
3.72301e-06
1.64944e-05
6.17542e-06
1.69525e-05
5.335e-06
1.60387e-05
8.44317e-06
1.63932e-05
6.79445e-06
1.52575e-05
1.08459e-05
1.68432e-05
7.58823e-06
1.56607e-05
1.45291e-05
1.98051e-05
7.83325e-06
1.80265e-05
2.10727e-05
2.31446e-05
8.33478e-06
2.58308e-05
2.63875e-05
2.45821e-05
-4.51915e-07
2.50951e-05
-8.97542e-07
2.55131e-05
-9.62606e-07
2.56933e-05
-7.59405e-07
2.58206e-05
-6.47327e-07
2.58828e-05
-4.15419e-07
2.59446e-05
-3.0458e-07
2.59545e-05
-2.15197e-07
2.59673e-05
-1.94116e-07
2.59477e-05
-2.25804e-07
2.59364e-05
-2.45631e-07
2.5893e-05
-2.75131e-07
2.58914e-05
-2.33157e-07
2.59008e-05
-1.85939e-07
2.59799e-05
-1.0545e-07
2.60917e-05
-1.8602e-08
2.63052e-05
5.74152e-08
2.65154e-05
6.84001e-08
2.67903e-05
5.83567e-08
2.70656e-05
3.03821e-08
2.72919e-05
-8.30414e-08
2.75672e-05
-1.72527e-07
2.78012e-05
-2.86126e-07
2.7978e-05
-3.78579e-07
2.82321e-05
-4.99572e-07
2.84191e-05
-5.01306e-07
2.86305e-05
-5.25556e-07
2.88686e-05
-6.31443e-07
2.90963e-05
-5.5097e-07
2.9359e-05
-6.12829e-07
2.96866e-05
-7.70701e-07
2.99425e-05
-6.48613e-07
3.03617e-05
-9.77461e-07
3.06493e-05
-1.06617e-06
3.10281e-05
-1.1719e-06
3.14755e-05
-1.77922e-06
3.1791e-05
-1.86276e-06
3.22699e-05
-2.50132e-06
3.26771e-05
-3.234e-06
3.29989e-05
-3.49504e-06
3.34933e-05
-4.58641e-06
3.36794e-05
-5.28713e-06
3.39213e-05
-5.79841e-06
3.41674e-05
-7.13243e-06
3.39516e-05
-7.55949e-06
3.38552e-05
-8.26884e-06
3.35476e-05
-9.3847e-06
3.28023e-05
-9.44356e-06
3.22795e-05
-1.00256e-05
3.15693e-05
-1.07583e-05
3.03572e-05
-1.01737e-05
2.97449e-05
-1.05041e-05
2.90544e-05
-1.09542e-05
2.79963e-05
-1.00254e-05
2.75079e-05
-9.96607e-06
2.71153e-05
-1.03487e-05
2.62185e-05
-9.51048e-06
2.56554e-05
-9.24394e-06
2.55408e-05
-1.01353e-05
2.47006e-05
-9.98979e-06
2.37462e-05
-9.82224e-06
2.34787e-05
-1.10223e-05
2.34132e-05
-1.24063e-05
2.26514e-05
-1.28932e-05
2.18939e-05
-1.33002e-05
2.20559e-05
-1.47515e-05
2.31143e-05
-1.6723e-05
2.46472e-05
-1.83503e-05
2.59828e-05
-1.88234e-05
2.72337e-05
-1.82923e-05
2.80294e-05
-1.676e-05
2.87315e-05
-1.46315e-05
2.9196e-05
-1.21768e-05
2.97879e-05
-9.81944e-06
3.03976e-05
-7.60061e-06
3.11675e-05
-5.10985e-06
3.17792e-05
-2.53406e-06
3.24406e-05
2.65602e-07
3.31313e-05
2.61477e-06
3.37848e-05
5.22526e-06
3.40265e-05
7.89769e-06
3.40099e-05
1.01957e-05
3.36503e-05
1.18462e-05
3.34601e-05
1.28759e-05
3.33029e-05
1.37049e-05
3.33253e-05
1.42786e-05
3.30166e-05
1.50705e-05
3.24511e-05
1.50705e-05
3.14617e-05
1.49436e-05
3.04778e-05
1.38173e-05
2.95128e-05
1.27342e-05
2.83992e-05
1.12321e-05
2.74991e-05
9.97697e-06
2.64458e-05
8.11691e-06
2.56841e-05
6.47113e-06
2.45782e-05
5.26722e-06
2.3739e-05
3.64548e-06
2.24585e-05
2.38147e-06
2.16002e-05
1.68114e-06
2.02216e-05
1.45362e-06
1.93343e-05
6.34511e-07
1.82987e-05
7.09866e-07
1.78147e-05
7.4261e-07
1.68949e-05
8.15596e-07