/*--------------------------------*- C++ -*----------------------------------*\
| =========                 |                                                 |
| \\      /  F ield         | OpenFOAM: The Open Source CFD Toolbox           |
|  \\    /   O peration     | Version:  2.4.0                                 |
|   \\  /    A nd           | Web:      www.OpenFOAM.org                      |
|    \\/     M anipulation  |                                                 |
\*---------------------------------------------------------------------------*/
FoamFile
{
    version     2.0;
    format      ascii;
    class       volVectorField;
    location    "0.11";
    object      U_0;
}
// * * * * * * * * * * * * * * * * * * * * * * * * * * * * * * * * * * * * * //

dimensions      [0 1 -1 0 0 0 0];

internalField   nonuniform List<vector> 
8800
(
(8.09153 0.38806 0)
(5.44879 0.242197 0)
(3.9101 0.0429801 0)
(3.15939 -0.0151289 0)
(2.80133 -0.0188584 0)
(2.59788 -0.0101808 0)
(2.48327 -0.00600454 0)
(2.38236 -0.00304682 0)
(2.32095 -0.000536812 0)
(2.24793 -0.000484353 0)
(2.2189 -0.00165814 0)
(2.17058 0.000467055 0)
(2.14817 -0.000288546 0)
(2.10179 0.000899489 0)
(2.08397 -0.000179732 0)
(2.04677 0.000406357 0)
(2.0123 0.00223862 0)
(1.9707 1.43134e-08 0)
(1.94245 0.00916479 0)
(1.78105 -0.0597582 0)
(10.081 0.839129 0)
(9.66143 0.867423 0)
(8.86138 0.506707 0)
(8.09124 0.261801 0)
(7.49295 0.137232 0)
(7.00322 0.0842012 0)
(6.70097 0.0527921 0)
(6.4005 0.0385586 0)
(6.22629 0.0329574 0)
(6.02359 0.0243884 0)
(5.93096 0.0149984 0)
(5.78418 0.0193214 0)
(5.72795 0.0140991 0)
(5.59984 0.0170629 0)
(5.56606 0.0119905 0)
(5.46109 0.0157175 0)
(5.39238 0.0214299 0)
(5.31042 0.0144845 0)
(5.2436 0.0223068 0)
(5.09381 -0.0133875 0)
(10.0507 0.632396 0)
(10.6735 0.861116 0)
(10.8452 0.601877 0)
(10.6998 0.372873 0)
(10.4607 0.255511 0)
(10.0775 0.200303 0)
(9.84775 0.150244 0)
(9.49549 0.120883 0)
(9.31351 0.0992677 0)
(9.03815 0.0763574 0)
(8.92767 0.0526989 0)
(8.70418 0.055498 0)
(8.65254 0.0414688 0)
(8.44455 0.0430668 0)
(8.42934 0.0321687 0)
(8.26053 0.0393009 0)
(8.19048 0.0460399 0)
(8.07622 0.0360617 0)
(7.98958 0.0470048 0)
(7.84351 -0.0502048 0)
(9.9652 0.46045 0)
(10.6059 0.70597 0)
(11.1431 0.547652 0)
(11.3723 0.345592 0)
(11.5698 0.261913 0)
(11.4469 0.231513 0)
(11.508 0.194822 0)
(11.3004 0.174798 0)
(11.2963 0.153806 0)
(11.0831 0.127016 0)
(11.0833 0.0971061 0)
(10.85 0.0961793 0)
(10.9021 0.0799034 0)
(10.6424 0.0784034 0)
(10.7068 0.0567354 0)
(10.4882 0.074171 0)
(10.4854 0.0693191 0)
(10.3085 0.0737261 0)
(10.2861 0.059972 0)
(10.077 0.069115 0)
(10.0108 0.341916 0)
(10.414 0.562411 0)
(11.05 0.479182 0)
(11.2685 0.284537 0)
(11.6784 0.208075 0)
(11.6471 0.202402 0)
(11.9108 0.166883 0)
(11.8121 0.171886 0)
(12.0042 0.153382 0)
(11.8785 0.133107 0)
(12.0675 0.103016 0)
(11.8691 0.112436 0)
(12.1041 0.0836755 0)
(11.8703 0.104912 0)
(12.0773 0.0588475 0)
(11.8559 0.105197 0)
(12.0114 0.0744696 0)
(11.7845 0.10638 0)
(11.9201 0.0586451 0)
(11.6393 0.143968 0)
(9.90698 0.272741 0)
(10.3959 0.435762 0)
(10.8656 0.3933 0)
(11.1987 0.237915 0)
(11.5447 0.157092 0)
(11.6113 0.152562 0)
(11.8114 0.136487 0)
(11.8633 0.136732 0)
(11.9801 0.135445 0)
(12.0178 0.10836 0)
(12.1666 0.093137 0)
(12.1168 0.0908021 0)
(12.3067 0.0762044 0)
(12.2574 0.08728 0)
(12.4254 0.0560305 0)
(12.3568 0.0849917 0)
(12.5213 0.0893564 0)
(12.4346 0.0764206 0)
(12.5649 0.0680963 0)
(12.3565 0.0482138 0)
(10.0029 0.176801 0)
(10.4367 0.321777 0)
(10.6434 0.325393 0)
(11.2358 0.182186 0)
(11.2947 0.124773 0)
(11.604 0.132462 0)
(11.6181 0.0805659 0)
(11.8322 0.123049 0)
(11.7692 0.105115 0)
(12.0718 0.0796632 0)
(11.9108 0.0736552 0)
(12.2286 0.0819302 0)
(12.1025 0.0421054 0)
(12.361 0.074863 0)
(12.2273 0.0393813 0)
(12.539 0.0658335 0)
(12.3686 0.0615319 0)
(12.6647 0.0562934 0)
(12.4418 0.0425097 0)
(12.6086 0.0190347 0)
(10.1531 0.118202 0)
(9.9556 0.249784 0)
(10.9008 0.213864 0)
(10.8137 0.149536 0)
(11.479 0.0861238 0)
(11.3776 0.077819 0)
(11.745 0.0666754 0)
(11.5602 0.0784725 0)
(11.9796 0.0699419 0)
(11.7234 0.0665253 0)
(12.1042 0.047476 0)
(11.9617 0.0455877 0)
(12.2513 0.043234 0)
(12.0596 0.0552105 0)
(12.4245 0.0094238 0)
(12.2255 0.0422452 0)
(12.5191 0.0480828 0)
(12.3687 0.0308676 0)
(12.6053 0.00812873 0)
(12.332 -0.0120906 0)
(9.7943 0.0971406 0)
(10.5547 0.0998939 0)
(10.3837 0.146152 0)
(11.1974 0.0834995 0)
(11.1439 0.0305876 0)
(11.5597 0.0767318 0)
(11.5029 0.0207119 0)
(11.7572 0.0448018 0)
(11.624 0.0641465 0)
(11.9538 0.0272547 0)
(11.8253 0.021505 0)
(12.0946 0.0436311 0)
(12.0202 0.0207821 0)
(12.2322 0.024925 0)
(12.1864 0.00809596 0)
(12.3358 0.0209135 0)
(12.3042 0.0175856 0)
(12.4713 -0.00244423 0)
(12.416 -0.00521914 0)
(12.4317 -0.0234968 0)
(10.1569 0.00431697 0)
(10.0713 0.0564346 0)
(10.6764 0.06292 0)
(10.8996 0.0115012 0)
(11.2256 0.0337447 0)
(11.4369 0.00842163 0)
(11.6247 0.00779855 0)
(11.5405 0.0264004 0)
(11.7964 0.0110111 0)
(11.7883 0.0051417 0)
(11.8838 0.0133465 0)
(12.011 -0.00297641 0)
(12.0811 0.0134475 0)
(12.1247 0.0112701 0)
(12.2282 -0.0142933 0)
(12.2859 -0.00702639 0)
(12.3188 0.00832208 0)
(12.3851 -0.0347599 0)
(12.4265 -0.0341602 0)
(12.4021 -0.0404577 0)
(9.9277 0.00879586 0)
(10.2411 -0.078439 0)
(10.6479 -0.0418975 0)
(10.939 -0.0123061 0)
(11.2742 -0.0565406 0)
(11.4231 0.0020481 0)
(11.5634 -0.0176613 0)
(11.6736 -0.0214461 0)
(11.7332 -0.00291027 0)
(11.7807 -0.0127797 0)
(11.9418 -0.0313625 0)
(11.9711 -0.00135794 0)
(12.0757 -0.00890981 0)
(12.1327 -0.0109914 0)
(12.2538 -0.0366263 0)
(12.2443 -0.0076283 0)
(12.3501 -0.0304831 0)
(12.379 -0.0505428 0)
(12.4612 -0.0736483 0)
(12.3023 -0.0114112 0)
(10.0019 -0.0669973 0)
(10.2876 -0.16453 0)
(10.5517 -0.102967 0)
(11.0836 -0.100116 0)
(11.2125 -0.0396622 0)
(11.4384 -0.0464824 0)
(11.5765 -0.0600832 0)
(11.6905 -0.0429486 0)
(11.7097 -0.0199453 0)
(11.8867 -0.0674079 0)
(11.8835 -0.0245919 0)
(12.0248 -0.0406365 0)
(12.0862 -0.0191903 0)
(12.1782 -0.0408459 0)
(12.1832 -0.034718 0)
(12.3424 -0.0527783 0)
(12.3563 -0.0324805 0)
(12.4286 -0.0929977 0)
(12.3855 -0.0764953 0)
(12.4005 -0.0419209 0)
(10.0195 -0.0983251 0)
(10.2121 -0.263938 0)
(10.7207 -0.218591 0)
(10.984 -0.13272 0)
(11.3673 -0.100209 0)
(11.4964 -0.0665883 0)
(11.6159 -0.0931556 0)
(11.6656 -0.076973 0)
(11.8394 -0.0571386 0)
(11.8849 -0.0708388 0)
(11.9759 -0.0656462 0)
(12.0351 -0.0472689 0)
(12.1594 -0.0463868 0)
(12.1563 -0.0391132 0)
(12.3018 -0.0742992 0)
(12.3387 -0.0632368 0)
(12.4263 -0.06625 0)
(12.4421 -0.0974734 0)
(12.4829 -0.116794 0)
(12.4419 -0.0628071 0)
(10.0043 -0.169096 0)
(10.3479 -0.370965 0)
(10.7244 -0.27468 0)
(11.1074 -0.209649 0)
(11.4071 -0.123509 0)
(11.5494 -0.10422 0)
(11.6896 -0.108375 0)
(11.7494 -0.120958 0)
(11.8705 -0.0792008 0)
(11.992 -0.115605 0)
(12.0118 -0.0600456 0)
(12.1028 -0.0839095 0)
(12.1995 -0.0520717 0)
(12.2733 -0.0728923 0)
(12.3469 -0.0807422 0)
(12.4164 -0.0946066 0)
(12.4709 -0.0740585 0)
(12.5334 -0.132574 0)
(12.5055 -0.143399 0)
(12.4576 -0.113866 0)
(10.0762 -0.245857 0)
(10.3021 -0.463751 0)
(10.9076 -0.378107 0)
(11.1644 -0.238334 0)
(11.5395 -0.174441 0)
(11.5974 -0.138817 0)
(11.8227 -0.152027 0)
(11.8143 -0.146849 0)
(12.0159 -0.114267 0)
(11.9835 -0.126507 0)
(12.1318 -0.0860168 0)
(12.1403 -0.102965 0)
(12.289 -0.0776701 0)
(12.2687 -0.0918289 0)
(12.4023 -0.0951325 0)
(12.3704 -0.113044 0)
(12.4595 -0.0918399 0)
(12.425 -0.149461 0)
(12.4296 -0.149221 0)
(12.2983 -0.162881 0)
(10.0648 -0.343066 0)
(10.4004 -0.579017 0)
(11.0443 -0.45267 0)
(11.2908 -0.291302 0)
(11.6775 -0.219198 0)
(11.66 -0.180866 0)
(11.9024 -0.184873 0)
(11.8007 -0.175557 0)
(12.0067 -0.137794 0)
(11.8696 -0.1428 0)
(12.0411 -0.109977 0)
(11.9122 -0.116421 0)
(12.0499 -0.0917459 0)
(11.9016 -0.10121 0)
(12.0146 -0.101515 0)
(11.8473 -0.117089 0)
(11.9268 -0.0924073 0)
(11.7483 -0.151273 0)
(11.733 -0.149376 0)
(11.4914 -0.196674 0)
(10.0216 -0.455882 0)
(10.5577 -0.70898 0)
(11.1682 -0.542943 0)
(11.3737 -0.350815 0)
(11.5636 -0.268619 0)
(11.4467 -0.219422 0)
(11.5133 -0.204504 0)
(11.2709 -0.180778 0)
(11.3247 -0.142106 0)
(11.049 -0.133862 0)
(11.0994 -0.104175 0)
(10.8298 -0.100649 0)
(10.8869 -0.080099 0)
(10.6233 -0.0840395 0)
(10.674 -0.0815327 0)
(10.398 -0.0942334 0)
(10.4548 -0.07299 0)
(10.1526 -0.125217 0)
(10.1345 -0.114946 0)
(9.78709 -0.18449 0)
(10.0724 -0.630591 0)
(10.6523 -0.866651 0)
(10.87 -0.599785 0)
(10.6938 -0.371732 0)
(10.4538 -0.259858 0)
(10.0837 -0.191961 0)
(9.85083 -0.155724 0)
(9.46954 -0.125747 0)
(9.34167 -0.0914921 0)
(9.00305 -0.0798977 0)
(8.94707 -0.0593311 0)
(8.66133 -0.0562195 0)
(8.65755 -0.0442353 0)
(8.3963 -0.0458207 0)
(8.40996 -0.0477071 0)
(8.14097 -0.0557596 0)
(8.17289 -0.0463896 0)
(7.86802 -0.0752629 0)
(7.84501 -0.0848962 0)
(7.47958 -0.102932 0)
(10.0888 -0.838131 0)
(9.65485 -0.868673 0)
(8.87243 -0.506424 0)
(8.08479 -0.260613 0)
(7.48913 -0.140271 0)
(7.00778 -0.0803744 0)
(6.70241 -0.0542409 0)
(6.38353 -0.0429767 0)
(6.24186 -0.0282886 0)
(6.00054 -0.0255834 0)
(5.94123 -0.019065 0)
(5.74666 -0.0199175 0)
(5.73074 -0.015158 0)
(5.55387 -0.0177136 0)
(5.54888 -0.0200956 0)
(5.35599 -0.0259163 0)
(5.35965 -0.0199473 0)
(5.13454 -0.0348882 0)
(5.09985 -0.0452969 0)
(4.79204 -0.0253727 0)
(8.09251 -0.387779 0)
(5.44967 -0.242794 0)
(3.9105 -0.0429231 0)
(3.15809 0.0159335 0)
(2.79978 0.0175545 0)
(2.59762 0.0114998 0)
(2.48605 0.00590811 0)
(2.37514 0.00139153 0)
(2.32198 0.00227916 0)
(2.24199 0.000311999 0)
(2.21993 0.00069554 0)
(2.15253 -0.000408091 0)
(2.14288 0.000326153 0)
(2.08096 -0.000507691 0)
(2.07094 -0.00113429 0)
(1.99152 -0.00280321 0)
(1.97846 7.11806e-05 0)
(1.89001 -0.00354035 0)
(1.84008 -0.00527994 0)
(1.67994 0.0103216 0)
(2.11972 -0.0929766 0)
(2.33794 -0.0725545 0)
(2.46226 -0.079105 0)
(2.5279 -0.0431184 0)
(2.60145 -0.00313331 0)
(2.75185 0.00823336 0)
(2.93583 0.0322429 0)
(3.09572 0.0477771 0)
(3.26608 0.0276471 0)
(3.36814 -0.0536941 0)
(3.4747 -0.104364 0)
(3.45267 -0.136702 0)
(3.38458 -0.141029 0)
(3.41749 -0.0763571 0)
(3.23677 0.0439169 0)
(3.41733 0.195684 0)
(3.21465 0.336639 0)
(3.55382 0.339481 0)
(3.6019 0.422434 0)
(3.74637 0.414094 0)
(4.13671 0.340386 0)
(4.13799 0.370494 0)
(4.5869 0.244749 0)
(4.56645 0.262456 0)
(4.83887 0.200255 0)
(5.06795 0.233462 0)
(5.19287 0.240503 0)
(5.55255 0.146391 0)
(5.615 0.2099 0)
(6.01806 0.221545 0)
(6.27117 0.238544 0)
(6.55793 0.268981 0)
(6.96028 0.176798 0)
(7.35196 0.214062 0)
(7.6516 0.253386 0)
(8.08757 0.0961488 0)
(8.37971 -0.0734243 0)
(8.75912 -0.126134 0)
(9.09813 -0.366621 0)
(9.43396 -0.613756 0)
(9.65195 -0.838647 0)
(9.98541 -1.2272 0)
(10.0425 -1.53113 0)
(10.2688 -1.85231 0)
(10.4285 -2.26328 0)
(10.5059 -2.53201 0)
(10.6226 -2.84013 0)
(10.9818 -3.20236 0)
(11.1064 -3.38993 0)
(11.4158 -3.69864 0)
(11.7359 -4.02025 0)
(11.8209 -4.15647 0)
(11.86 -4.22353 0)
(11.8397 -4.41701 0)
(11.7285 -4.42 0)
(11.3115 -4.28996 0)
(10.9805 -4.23256 0)
(10.5988 -4.13259 0)
(10.1766 -3.94691 0)
(9.87575 -3.86172 0)
(9.65792 -3.93419 0)
(9.68276 -3.92346 0)
(9.6179 -4.09364 0)
(9.81317 -4.25368 0)
(10.0328 -4.51882 0)
(10.5058 -4.7259 0)
(10.7656 -4.82481 0)
(11.1804 -4.80149 0)
(11.5502 -4.66809 0)
(12.0475 -4.44689 0)
(12.6091 -4.12795 0)
(13.0923 -3.60075 0)
(13.654 -3.01665 0)
(13.9775 -2.30255 0)
(14.4395 -1.63974 0)
(14.7277 -0.877272 0)
(15.0869 -0.0967995 0)
(15.2196 0.62848 0)
(15.4801 1.36002 0)
(15.5378 2.05306 0)
(15.6993 2.70552 0)
(15.5892 3.29955 0)
(15.6503 3.78028 0)
(15.3729 4.09848 0)
(15.1781 4.31094 0)
(14.8408 4.32436 0)
(14.5624 4.2562 0)
(14.2453 4.15068 0)
(14.0348 3.89244 0)
(13.8438 3.65313 0)
(13.4835 3.23503 0)
(13.2968 2.79041 0)
(12.8097 2.20881 0)
(12.4712 1.60224 0)
(11.9678 0.975978 0)
(11.5919 0.469103 0)
(10.8455 -0.105639 0)
(10.4593 -0.538513 0)
(9.83535 -0.899934 0)
(9.31 -1.17292 0)
(8.51732 -1.32062 0)
(8.01366 -1.05602 0)
(7.31778 -0.875407 0)
(7.0016 -0.759297 0)
(6.46635 -0.581803 0)
(6.61202 -0.122961 0)
(6.26896 0.280423 0)
(6.39927 0.210067 0)
(5.93258 -0.222039 0)
(6.09098 -0.459801 0)
(5.96119 -0.399352 0)
(6.43874 0.0974969 0)
(6.51317 0.347437 0)
(6.88587 0.748536 0)
(6.85869 0.332668 0)
(7.16377 -0.377289 0)
(6.9096 -1.50119 0)
(7.0716 -2.19879 0)
(6.72142 -3.23423 0)
(7.11128 -4.65029 0)
(6.97215 -6.59642 0)
(7.41165 -8.20283 0)
(7.37636 -8.90442 0)
(7.42646 -8.99053 0)
(7.76033 -8.25572 0)
(7.49683 -7.67735 0)
(7.88765 -6.66911 0)
(7.4872 -5.1163 0)
(7.63194 -4.02549 0)
(7.93896 -2.43945 0)
(7.94506 -0.713755 0)
(7.79467 1.00006 0)
(7.85052 2.14153 0)
(7.91985 4.01382 0)
(8.13348 5.61194 0)
(7.56695 6.56103 0)
(7.92314 7.41186 0)
(7.58183 8.15617 0)
(7.53494 9.14212 0)
(7.65792 9.2435 0)
(6.65768 8.48573 0)
(6.69841 7.92104 0)
(6.32786 7.40974 0)
(5.8226 7.25138 0)
(6.23036 7.4029 0)
(5.65807 7.1785 0)
(5.87045 6.88078 0)
(5.84318 6.64893 0)
(5.77631 5.98223 0)
(5.77545 5.72915 0)
(6.11445 4.80818 0)
(5.51699 4.35739 0)
(6.51819 3.45773 0)
(5.23386 3.12522 0)
(6.75233 2.32265 0)
(5.25217 2.15132 0)
(7.12323 1.21537 0)
(5.55867 0.90331 0)
(7.3353 -0.268815 0)
(5.77772 -0.569044 0)
(7.44731 -1.38441 0)
(6.08305 -1.38315 0)
(7.40329 -1.89866 0)
(6.09916 -1.89344 0)
(7.24723 -2.08262 0)
(6.45717 -1.98377 0)
(7.50739 -2.14713 0)
(6.92959 -2.52803 0)
(7.50601 -2.85888 0)
(7.15579 -3.04291 0)
(7.35945 -2.76396 0)
(7.25686 -2.48913 0)
(7.04705 -2.17001 0)
(7.12286 -2.13153 0)
(6.73425 -2.1331 0)
(7.09592 -2.15581 0)
(6.55013 -2.11819 0)
(6.97803 -1.89016 0)
(6.24717 -1.7072 0)
(6.71812 -1.40103 0)
(5.98283 -1.26765 0)
(6.57339 -0.855224 0)
(5.90746 -0.563799 0)
(6.49064 -0.186417 0)
(5.89204 0.197342 0)
(6.3227 0.435021 0)
(5.97922 1.01395 0)
(6.17023 0.940099 0)
(6.25203 1.82817 0)
(5.89485 1.4947 0)
(6.50513 2.55909 0)
(5.57813 2.22426 0)
(6.46563 3.06218 0)
(5.6629 3.40303 0)
(5.90297 3.51981 0)
(5.83809 4.89726 0)
(5.19541 4.41203 0)
(5.23917 5.99606 0)
(6.7334 7.2364 0)
(3.86105 9.93729 0)
(5.20049 -0.0704453 0)
(5.24351 -0.0831111 0)
(5.318 -0.0933423 0)
(5.33074 -0.0976519 0)
(5.4191 -0.0771434 0)
(5.46034 -0.0438149 0)
(5.5504 -0.0319703 0)
(5.61371 -0.0163625 0)
(5.67844 -0.0346061 0)
(5.74823 -0.060527 0)
(5.75256 -0.105254 0)
(5.84473 -0.119758 0)
(5.73574 -0.0855337 0)
(5.85729 -0.0563481 0)
(5.74847 0.0508288 0)
(5.86023 0.107709 0)
(5.88475 0.218524 0)
(5.96862 0.255926 0)
(6.16438 0.256973 0)
(6.18594 0.274244 0)
(6.52288 0.215101 0)
(6.50193 0.19739 0)
(6.84806 0.0991078 0)
(6.88578 0.113416 0)
(7.10577 0.0570057 0)
(7.22095 0.0318405 0)
(7.39997 0.0799736 0)
(7.60131 0.0418499 0)
(7.68194 0.0440318 0)
(7.84301 0.0634169 0)
(8.12424 0.0597315 0)
(8.25687 0.106506 0)
(8.49489 0.0130521 0)
(8.67085 -0.0538686 0)
(8.94071 -0.0360253 0)
(9.22127 -0.156597 0)
(9.52125 -0.344754 0)
(9.67525 -0.412512 0)
(10.0847 -0.68319 0)
(10.2804 -0.882569 0)
(10.5414 -1.10881 0)
(10.892 -1.46228 0)
(11.0585 -1.71173 0)
(11.277 -1.99167 0)
(11.6098 -2.3972 0)
(11.7587 -2.60127 0)
(12.007 -2.97293 0)
(12.3805 -3.32525 0)
(12.3737 -3.52331 0)
(12.5154 -3.83265 0)
(12.621 -4.07224 0)
(12.4149 -4.10121 0)
(12.1676 -4.1887 0)
(12.0194 -4.26816 0)
(11.5569 -4.03208 0)
(11.0169 -3.91861 0)
(10.808 -3.88642 0)
(10.2626 -3.74522 0)
(9.97209 -3.594 0)
(9.67319 -3.70818 0)
(9.76278 -3.86746 0)
(9.54367 -3.93764 0)
(9.65613 -4.14115 0)
(9.73838 -4.45032 0)
(10.0382 -4.74631 0)
(10.229 -4.87336 0)
(10.2587 -4.94306 0)
(10.6997 -4.93578 0)
(10.9477 -5.01267 0)
(11.7483 -4.83819 0)
(12.1924 -4.62319 0)
(12.9035 -4.06698 0)
(13.2225 -3.37667 0)
(13.7217 -2.6746 0)
(13.9574 -1.87025 0)
(14.3864 -1.04609 0)
(14.5203 -0.250022 0)
(14.8477 0.500274 0)
(14.859 1.32857 0)
(15.0955 2.00751 0)
(15.0237 2.68048 0)
(15.1411 3.25108 0)
(15.0069 3.75416 0)
(15.1489 4.16233 0)
(14.8654 4.45757 0)
(14.7937 4.61075 0)
(14.3633 4.54525 0)
(14.0534 4.39364 0)
(13.6397 4.11467 0)
(13.3647 3.87497 0)
(13.0524 3.38859 0)
(12.7096 2.96985 0)
(12.5206 2.50091 0)
(11.9298 1.92183 0)
(11.6497 1.35583 0)
(11.0319 0.864933 0)
(10.7421 0.360584 0)
(10.03 -0.167279 0)
(9.71157 -0.399646 0)
(8.87033 -0.693372 0)
(8.54188 -0.766326 0)
(7.71355 -0.582149 0)
(7.50478 -0.400121 0)
(6.76146 -0.447867 0)
(6.79757 -0.383452 0)
(6.42372 -0.125613 0)
(6.6801 0.346401 0)
(6.27159 0.264743 0)
(6.30408 -0.0245317 0)
(5.92372 -0.535028 0)
(6.21588 -0.42076 0)
(6.14807 -0.191101 0)
(6.6576 0.269053 0)
(6.54778 0.576589 0)
(6.92665 0.331906 0)
(6.70363 -0.468887 0)
(6.95898 -1.38735 0)
(6.49928 -2.16265 0)
(6.73681 -3.25648 0)
(6.4945 -4.80273 0)
(6.75933 -6.78277 0)
(6.83171 -8.1615 0)
(6.67658 -9.13236 0)
(7.08234 -9.0087 0)
(6.77446 -8.34787 0)
(7.05133 -7.66546 0)
(6.93985 -6.43753 0)
(6.66684 -5.27187 0)
(6.95561 -4.03196 0)
(7.07969 -2.60465 0)
(7.31191 -0.575992 0)
(6.95485 0.814171 0)
(7.23828 2.13468 0)
(7.22472 3.69688 0)
(7.46617 5.67955 0)
(7.33502 6.53676 0)
(7.11744 7.35754 0)
(7.5802 8.32986 0)
(7.13685 9.02735 0)
(7.15169 9.45756 0)
(7.13747 8.86904 0)
(6.17675 7.9963 0)
(6.5902 7.65806 0)
(6.10894 7.35613 0)
(6.02071 7.37144 0)
(6.41204 7.33543 0)
(6.05563 6.86585 0)
(6.15826 6.67448 0)
(6.64562 6.02183 0)
(5.68907 5.63954 0)
(7.25312 4.76753 0)
(5.65025 4.47163 0)
(7.60185 3.30894 0)
(5.7269 3.35807 0)
(7.69949 2.00536 0)
(5.9159 2.34576 0)
(7.9391 0.720092 0)
(6.37538 1.05361 0)
(8.21609 -0.802972 0)
(6.70111 -0.416625 0)
(8.28442 -1.91936 0)
(6.87724 -1.11273 0)
(8.24063 -2.26421 0)
(6.90303 -1.53878 0)
(8.13671 -2.54807 0)
(7.15155 -1.86683 0)
(8.47216 -2.64112 0)
(7.60272 -2.35833 0)
(8.60064 -3.12505 0)
(7.58835 -2.89557 0)
(8.46514 -2.87983 0)
(7.47296 -2.34703 0)
(8.23808 -2.09666 0)
(7.34376 -2.05241 0)
(8.00357 -2.00721 0)
(7.25638 -2.13563 0)
(7.78936 -1.83505 0)
(7.15257 -1.92322 0)
(7.42254 -1.40302 0)
(6.78016 -1.53594 0)
(6.99343 -0.964876 0)
(6.45511 -1.07469 0)
(6.81672 -0.292548 0)
(6.31405 -0.379656 0)
(6.85079 0.421837 0)
(6.15212 0.316751 0)
(6.83946 0.958977 0)
(6.00265 0.986558 0)
(6.67349 1.33979 0)
(6.15384 1.73705 0)
(6.40234 1.61915 0)
(6.65065 2.49333 0)
(6.05741 1.9052 0)
(7.21648 3.14691 0)
(6.36314 3.01958 0)
(7.17022 3.90197 0)
(7.76209 4.79876 0)
(5.94455 5.5042 0)
(9.63612 5.2152 0)
(7.29037 10.4626 0)
(7.87294 -0.0781457 0)
(7.89672 -0.0861425 0)
(7.91589 -0.116151 0)
(7.99111 -0.113732 0)
(8.02085 -0.115183 0)
(8.09926 -0.0854056 0)
(8.1102 -0.0639805 0)
(8.17126 -0.0605925 0)
(8.18407 -0.053042 0)
(8.24588 -0.0825849 0)
(8.22611 -0.0752368 0)
(8.31306 -0.108535 0)
(8.23277 -0.0766109 0)
(8.32483 -0.0555996 0)
(8.24987 -0.00314602 0)
(8.33826 0.0556216 0)
(8.36209 0.118148 0)
(8.43432 0.124228 0)
(8.57584 0.157415 0)
(8.63908 0.14018 0)
(8.83946 0.0901259 0)
(8.92238 0.0886916 0)
(9.11582 0.0229372 0)
(9.19541 -0.0216671 0)
(9.36991 -0.0199081 0)
(9.46958 -0.060292 0)
(9.57641 -0.0605946 0)
(9.7415 -0.0801204 0)
(9.82387 -0.0574194 0)
(9.9267 -0.0671036 0)
(10.1326 -0.0837351 0)
(10.2465 -0.0803853 0)
(10.4568 -0.109223 0)
(10.612 -0.189183 0)
(10.765 -0.192347 0)
(11.0325 -0.341326 0)
(11.2279 -0.441785 0)
(11.3584 -0.580329 0)
(11.7369 -0.840627 0)
(11.8015 -0.981044 0)
(12.1025 -1.24869 0)
(12.395 -1.58967 0)
(12.5021 -1.74925 0)
(12.7249 -2.13756 0)
(13.0589 -2.47936 0)
(12.9644 -2.66744 0)
(13.2099 -3.12497 0)
(13.2461 -3.41517 0)
(13.0015 -3.53545 0)
(12.9937 -3.86472 0)
(12.7602 -3.99877 0)
(12.2995 -3.87193 0)
(11.9804 -4.02063 0)
(11.7523 -3.93 0)
(11.0408 -3.67948 0)
(10.9224 -3.71027 0)
(10.5921 -3.65285 0)
(10.26 -3.43751 0)
(9.98693 -3.46548 0)
(10.0338 -3.69613 0)
(9.85772 -3.77345 0)
(9.53396 -3.90281 0)
(9.57081 -4.18434 0)
(9.60703 -4.62088 0)
(9.66331 -4.8135 0)
(9.40315 -4.86417 0)
(9.53901 -5.07132 0)
(9.88728 -5.3234 0)
(10.5507 -5.61841 0)
(11.1968 -5.51612 0)
(11.8479 -5.2738 0)
(12.3215 -4.64568 0)
(12.7069 -3.97774 0)
(13.0359 -3.12535 0)
(13.2874 -2.34717 0)
(13.6185 -1.40446 0)
(13.8146 -0.564288 0)
(14.1189 0.356763 0)
(14.307 1.1534 0)
(14.4508 2.01711 0)
(14.5058 2.69333 0)
(14.4039 3.3139 0)
(14.354 3.73149 0)
(14.2554 4.193 0)
(14.3255 4.43889 0)
(14.1454 4.74504 0)
(14.1707 4.79307 0)
(13.5853 4.71883 0)
(13.4217 4.41317 0)
(12.7749 4.09224 0)
(12.5949 3.71548 0)
(12.053 3.17709 0)
(11.8026 2.82145 0)
(11.3002 2.19601 0)
(11.0567 1.75034 0)
(10.5654 1.18447 0)
(10.0931 0.800758 0)
(9.72669 0.177453 0)
(9.2499 0.0903933 0)
(8.72239 -0.231501 0)
(8.05101 -0.210952 0)
(7.76213 -0.2706 0)
(7.33244 -0.0169082 0)
(7.02774 -0.258018 0)
(6.62949 -0.195654 0)
(6.626 -0.117119 0)
(6.51649 0.492178 0)
(6.62788 0.410154 0)
(6.24849 0.19053 0)
(6.34111 -0.533234 0)
(6.03228 -0.432754 0)
(6.4454 -0.417567 0)
(6.2449 0.201437 0)
(6.72323 0.362358 0)
(6.44631 0.309411 0)
(6.79307 -0.51932 0)
(6.44595 -1.24614 0)
(6.47251 -2.14599 0)
(6.27047 -3.13794 0)
(6.27329 -4.96339 0)
(6.26845 -6.65981 0)
(6.10438 -8.31871 0)
(6.35191 -9.12402 0)
(6.13441 -8.92772 0)
(6.23334 -8.50175 0)
(6.36767 -7.44893 0)
(6.05931 -6.42034 0)
(6.00451 -5.2617 0)
(6.17509 -4.10288 0)
(6.36742 -2.68091 0)
(6.40796 -0.59826 0)
(6.20922 0.865486 0)
(6.45567 2.26904 0)
(6.66962 3.79647 0)
(6.58306 5.56064 0)
(6.76975 6.71889 0)
(6.62176 7.21805 0)
(6.83839 8.3141 0)
(7.2193 9.15321 0)
(6.74489 9.39378 0)
(6.86523 9.18811 0)
(6.74075 8.2896 0)
(6.0442 7.68689 0)
(6.60817 7.56273 0)
(6.25836 7.2911 0)
(6.19386 7.31151 0)
(7.09063 6.90429 0)
(5.89356 6.65783 0)
(7.55665 5.88564 0)
(6.02579 5.75827 0)
(7.79764 4.44146 0)
(6.33194 4.59112 0)
(8.05375 2.97218 0)
(6.5001 3.48457 0)
(8.30918 1.741 0)
(6.67617 2.35661 0)
(8.73458 0.445842 0)
(7.16203 1.01997 0)
(9.13862 -0.953632 0)
(7.53611 -0.296734 0)
(9.12882 -1.95314 0)
(7.67929 -0.878569 0)
(9.00744 -2.30499 0)
(7.90198 -1.27601 0)
(8.9057 -2.70302 0)
(8.21661 -1.72292 0)
(8.99247 -2.96457 0)
(8.67803 -2.16503 0)
(8.99656 -3.36011 0)
(8.62795 -2.54659 0)
(8.76983 -3.10917 0)
(8.4666 -1.98382 0)
(8.65643 -2.39375 0)
(8.3396 -1.6921 0)
(8.65874 -2.29743 0)
(8.19822 -1.74203 0)
(8.54935 -2.03834 0)
(7.73919 -1.31873 0)
(8.06033 -1.45478 0)
(7.19208 -0.919826 0)
(7.63079 -1.15759 0)
(6.80947 -0.552225 0)
(7.24984 -0.663522 0)
(6.63117 0.017496 0)
(6.86012 -0.0469585 0)
(6.71416 0.823927 0)
(6.586 0.696902 0)
(7.03194 1.65052 0)
(6.27399 1.4045 0)
(7.31188 2.31639 0)
(6.07559 2.22704 0)
(7.14989 2.79372 0)
(6.23982 3.01997 0)
(6.07765 3.16572 0)
(7.20078 3.60036 0)
(4.97404 4.5225 0)
(8.9721 3.65614 0)
(5.54375 7.4356 0)
(9.8975 3.15478 0)
(8.52531 9.59041 0)
(10.0589 -0.117855 0)
(10.098 -0.23471 0)
(10.1156 -0.281244 0)
(10.2075 -0.255586 0)
(10.2632 -0.209476 0)
(10.3232 -0.13629 0)
(10.3506 -0.0860878 0)
(10.3717 -0.0641446 0)
(10.3643 -0.0595057 0)
(10.4144 -0.0738317 0)
(10.3515 -0.0886287 0)
(10.4519 -0.0972711 0)
(10.3522 -0.0849149 0)
(10.4581 -0.0726854 0)
(10.3851 -0.0225538 0)
(10.4665 0.000474901 0)
(10.4616 0.0523131 0)
(10.5672 0.0523321 0)
(10.5928 0.0579908 0)
(10.7564 0.0622372 0)
(10.8109 0.00814337 0)
(10.9416 -0.0186771 0)
(11.0599 -0.0484567 0)
(11.154 -0.102946 0)
(11.2318 -0.129074 0)
(11.3689 -0.139757 0)
(11.3778 -0.158065 0)
(11.5466 -0.189774 0)
(11.5548 -0.161891 0)
(11.6664 -0.176593 0)
(11.8019 -0.206184 0)
(11.9006 -0.178119 0)
(12.0284 -0.255939 0)
(12.2195 -0.311252 0)
(12.2433 -0.314592 0)
(12.5717 -0.52242 0)
(12.5968 -0.554121 0)
(12.7988 -0.727529 0)
(13.0607 -1.00389 0)
(13.0735 -1.07695 0)
(13.3293 -1.39844 0)
(13.5403 -1.71002 0)
(13.469 -1.81967 0)
(13.7145 -2.29177 0)
(13.735 -2.52747 0)
(13.4887 -2.73966 0)
(13.6338 -3.20072 0)
(13.2924 -3.28041 0)
(13.0264 -3.42291 0)
(12.8174 -3.77508 0)
(12.4451 -3.62306 0)
(11.9036 -3.58455 0)
(11.8881 -3.79569 0)
(11.3535 -3.54104 0)
(11.0635 -3.3626 0)
(10.9885 -3.49214 0)
(10.707 -3.31312 0)
(10.2843 -3.11546 0)
(10.2647 -3.39292 0)
(10.1849 -3.52465 0)
(9.56714 -3.4271 0)
(9.37589 -3.648 0)
(9.38014 -4.12231 0)
(9.28721 -4.44532 0)
(8.76117 -4.50309 0)
(8.63269 -4.81939 0)
(8.86038 -5.35809 0)
(9.47272 -5.97111 0)
(10.0748 -6.1814 0)
(10.6352 -6.04058 0)
(11.0836 -5.58899 0)
(11.3706 -4.89735 0)
(11.6334 -4.10597 0)
(11.8097 -3.27335 0)
(12.0342 -2.54182 0)
(12.3519 -1.68383 0)
(12.6535 -0.809908 0)
(12.8687 0.133764 0)
(13.2063 0.899191 0)
(13.4348 1.78311 0)
(13.7043 2.6345 0)
(13.6583 3.38205 0)
(13.6374 3.83352 0)
(13.3964 4.1808 0)
(13.411 4.48589 0)
(13.3327 4.70505 0)
(13.3698 4.95206 0)
(13.1662 4.89276 0)
(12.7903 4.79995 0)
(12.4328 4.36162 0)
(11.9455 4.03829 0)
(11.6634 3.49169 0)
(11.0632 3.15655 0)
(10.8689 2.44993 0)
(10.313 2.01366 0)
(10.1565 1.55895 0)
(9.53449 1.05086 0)
(9.33739 0.55185 0)
(8.69472 0.437596 0)
(8.4943 0.275541 0)
(7.7403 0.0294137 0)
(7.63137 0.0491852 0)
(7.09813 0.185911 0)
(7.05746 0.193397 0)
(6.54664 -0.0851607 0)
(6.61503 0.0296091 0)
(6.49932 0.304067 0)
(6.75826 0.57675 0)
(6.56815 0.147377 0)
(6.58292 -0.286543 0)
(6.35691 -0.597582 0)
(6.53832 -0.302435 0)
(6.2922 0.00586631 0)
(6.57458 0.459729 0)
(6.38495 0.177526 0)
(6.53357 -0.316621 0)
(6.21049 -1.29414 0)
(6.2106 -1.88635 0)
(5.96858 -3.23602 0)
(5.97884 -4.73248 0)
(5.61991 -6.69831 0)
(5.81256 -8.29633 0)
(5.45502 -8.83421 0)
(5.45419 -8.94946 0)
(5.55261 -8.29384 0)
(5.48523 -7.32113 0)
(5.40597 -6.37319 0)
(5.42561 -5.26349 0)
(5.30047 -4.21714 0)
(5.74318 -2.51014 0)
(5.3287 -0.755857 0)
(5.56255 0.703617 0)
(5.55401 1.91458 0)
(6.05826 3.78232 0)
(5.91873 5.38614 0)
(6.07233 6.6902 0)
(6.2681 7.22156 0)
(6.29228 7.99719 0)
(6.67106 9.15985 0)
(6.83419 9.4537 0)
(6.42061 9.11166 0)
(6.56821 8.54341 0)
(6.52941 7.71011 0)
(5.9296 7.44051 0)
(7.02362 7.2635 0)
(6.0223 7.15977 0)
(7.38935 6.67964 0)
(6.49986 6.69698 0)
(7.70775 5.54044 0)
(6.70968 5.817 0)
(8.39221 4.12828 0)
(6.63071 4.59129 0)
(9.09783 2.74933 0)
(6.62948 3.47657 0)
(9.66114 1.57542 0)
(6.8708 2.25818 0)
(10.2023 0.179394 0)
(7.45099 0.87655 0)
(10.6625 -1.10707 0)
(7.70013 -0.239691 0)
(10.5357 -1.98334 0)
(7.54177 -0.819755 0)
(10.3024 -2.46619 0)
(7.59631 -1.32957 0)
(10.2021 -2.95378 0)
(8.01186 -1.83026 0)
(10.1584 -3.24715 0)
(8.667 -2.21081 0)
(10.0154 -3.50549 0)
(9.10635 -2.49981 0)
(9.48778 -3.2246 0)
(9.39109 -1.89301 0)
(9.21145 -2.49231 0)
(9.77156 -1.68817 0)
(9.02866 -2.45614 0)
(9.85148 -1.67647 0)
(8.52862 -2.01543 0)
(9.48499 -1.04207 0)
(7.73528 -1.26572 0)
(8.92682 -0.556976 0)
(7.04062 -0.955645 0)
(8.59664 -0.261762 0)
(6.61184 -0.412805 0)
(8.30594 0.346021 0)
(6.04104 0.214422 0)
(7.70476 0.777233 0)
(5.64345 0.579337 0)
(7.13514 1.06943 0)
(6.02401 0.92852 0)
(6.74918 1.52031 0)
(7.34147 1.50465 0)
(6.45007 2.46878 0)
(9.1238 1.86491 0)
(6.13627 3.81245 0)
(10.5321 1.65427 0)
(6.47573 5.43542 0)
(11.0901 1.11532 0)
(7.72848 6.93641 0)
(10.9339 2.4997 0)
(9.35684 7.76758 0)
(11.5816 -0.0830262 0)
(11.6024 -0.258752 0)
(11.7149 -0.327719 0)
(11.775 -0.301801 0)
(11.8785 -0.271991 0)
(11.8605 -0.174593 0)
(11.933 -0.142492 0)
(11.89 -0.0921034 0)
(11.9231 -0.0790056 0)
(11.9308 -0.078256 0)
(11.9297 -0.0773376 0)
(11.9621 -0.0862323 0)
(11.9598 -0.0703567 0)
(11.9668 -0.053809 0)
(11.9684 -0.0432264 0)
(11.9806 -0.010746 0)
(11.9721 -0.0136644 0)
(12.0469 -0.00724415 0)
(12.0392 -0.0206157 0)
(12.1546 -0.0437593 0)
(12.2048 -0.0678645 0)
(12.2724 -0.102844 0)
(12.3938 -0.138549 0)
(12.4338 -0.147445 0)
(12.5106 -0.207537 0)
(12.6176 -0.190149 0)
(12.6006 -0.196468 0)
(12.7349 -0.246772 0)
(12.7244 -0.213329 0)
(12.767 -0.23421 0)
(12.8845 -0.302941 0)
(12.8754 -0.237832 0)
(13.0457 -0.377975 0)
(13.1261 -0.378022 0)
(13.136 -0.433153 0)
(13.462 -0.634294 0)
(13.3516 -0.636775 0)
(13.5751 -0.874087 0)
(13.7181 -1.08766 0)
(13.6622 -1.15739 0)
(13.8655 -1.54897 0)
(13.9265 -1.69917 0)
(13.733 -1.90881 0)
(13.9845 -2.33765 0)
(13.6034 -2.4288 0)
(13.531 -2.71426 0)
(13.3867 -3.02964 0)
(13.0019 -3.0063 0)
(12.7199 -3.29674 0)
(12.6121 -3.45791 0)
(12.0145 -3.20575 0)
(11.9531 -3.45578 0)
(11.8081 -3.5245 0)
(11.2899 -3.13632 0)
(11.2552 -3.22486 0)
(11.1272 -3.33923 0)
(10.6791 -2.95674 0)
(10.3963 -2.96705 0)
(10.4377 -3.28061 0)
(9.7816 -3.07357 0)
(9.21376 -3.07594 0)
(9.11024 -3.63163 0)
(8.9828 -4.08153 0)
(8.20855 -4.11717 0)
(7.75501 -4.4115 0)
(7.79448 -5.12646 0)
(8.24316 -5.96843 0)
(8.72275 -6.47659 0)
(9.18388 -6.55016 0)
(9.5246 -6.27694 0)
(9.80041 -5.64069 0)
(9.95769 -4.86878 0)
(10.1391 -3.99064 0)
(10.2658 -3.27121 0)
(10.607 -2.55444 0)
(10.8629 -1.77265 0)
(11.2315 -0.902291 0)
(11.3417 -0.0215922 0)
(11.6984 0.720333 0)
(11.8918 1.52177 0)
(12.4185 2.45523 0)
(12.4852 3.28492 0)
(12.613 3.92805 0)
(12.4411 4.27073 0)
(12.4627 4.53688 0)
(12.326 4.71481 0)
(12.4129 4.99559 0)
(12.3198 5.04573 0)
(12.1438 5.08761 0)
(11.802 4.79586 0)
(11.3522 4.40693 0)
(10.8879 3.92543 0)
(10.6224 3.43972 0)
(10.1546 2.91395 0)
(9.89412 2.25352 0)
(9.39615 1.91408 0)
(9.2075 1.33849 0)
(8.68359 1.02817 0)
(8.47774 0.67584 0)
(7.96013 0.699884 0)
(7.75755 0.37947 0)
(7.33281 0.423533 0)
(7.22355 0.293422 0)
(6.91152 0.353484 0)
(6.83738 0.00909143 0)
(6.63525 0.111029 0)
(6.77343 0.237046 0)
(6.68635 0.579683 0)
(6.78045 0.215477 0)
(6.46397 -0.195493 0)
(6.57665 -0.569192 0)
(6.34672 -0.230324 0)
(6.48359 0.0287174 0)
(6.27806 0.418327 0)
(6.47439 0.186889 0)
(6.21244 -0.248852 0)
(6.22583 -1.09002 0)
(5.78816 -1.78426 0)
(5.90062 -3.12709 0)
(5.35434 -4.55819 0)
(5.44094 -6.69759 0)
(5.01475 -7.9537 0)
(4.77684 -8.77769 0)
(4.80649 -8.8799 0)
(4.71807 -8.21179 0)
(4.54305 -7.36342 0)
(4.7672 -6.34362 0)
(4.52639 -5.25449 0)
(4.71465 -4.22999 0)
(4.62213 -2.41572 0)
(4.54028 -0.701376 0)
(4.55561 0.79896 0)
(4.90146 1.91907 0)
(5.12001 3.69452 0)
(5.26682 5.31878 0)
(5.20599 6.41337 0)
(5.65246 7.21013 0)
(5.86186 7.83037 0)
(6.20419 8.8633 0)
(6.5125 9.50037 0)
(6.64522 9.21041 0)
(6.24688 8.50574 0)
(6.67273 7.86065 0)
(6.20153 7.38312 0)
(6.7078 6.95208 0)
(6.56135 7.19405 0)
(7.51328 6.2128 0)
(6.50309 6.74657 0)
(8.80007 5.19986 0)
(6.30444 5.82422 0)
(9.8539 3.91628 0)
(6.39197 4.60488 0)
(10.3303 2.59381 0)
(6.82619 3.47286 0)
(10.5983 1.39222 0)
(7.5059 2.1308 0)
(10.889 -0.0590808 0)
(7.949 0.789696 0)
(10.9012 -1.19609 0)
(7.58477 -0.069521 0)
(10.5092 -2.00225 0)
(6.99604 -0.655622 0)
(10.473 -2.60563 0)
(6.92298 -1.22613 0)
(10.8654 -3.20974 0)
(7.26766 -1.75227 0)
(11.3986 -3.55588 0)
(7.75599 -2.02659 0)
(11.654 -3.64401 0)
(8.09079 -2.09538 0)
(11.499 -3.39305 0)
(8.32645 -1.62138 0)
(11.2839 -2.76956 0)