/*--------------------------------*- C++ -*----------------------------------*\
| =========                 |                                                 |
| \\      /  F ield         | OpenFOAM: The Open Source CFD Toolbox           |
|  \\    /   O peration     | Version:  2.4.0                                 |
|   \\  /    A nd           | Web:      www.OpenFOAM.org                      |
|    \\/     M anipulation  |                                                 |
\*---------------------------------------------------------------------------*/
FoamFile
{
    version     2.0;
    format      ascii;
    class       volScalarField;
    location    "0.21";
    object      k;
}
// * * * * * * * * * * * * * * * * * * * * * * * * * * * * * * * * * * * * * //

dimensions      [0 2 -2 0 0 0 0];

internalField   nonuniform List<scalar> 
8800
(
8.12196
10.2638
8.80557
6.8028
5.72741
4.9452
4.55261
4.12341
3.93006
3.65738
3.55452
3.35603
3.30407
3.14926
3.10554
2.96903
2.91606
2.79771
2.69938
2.61321
1.40663
4.34705
5.3292
5.28568
5.13562
4.78604
4.59912
4.27425
4.12563
3.88101
3.77833
3.58135
3.52315
3.37143
3.33087
3.20929
3.17514
3.06732
3.02693
2.95017
0.0845665
0.722945
1.57488
1.93704
2.28764
2.42592
2.57968
2.59925
2.62295
2.60062
2.58974
2.5421
2.5261
2.47131
2.46058
2.41482
2.40668
2.36824
2.35966
2.31787
0.00336651
0.0691706
0.262769
0.421113
0.581566
0.707926
0.827537
0.9328
1.02468
1.08922
1.16471
1.21404
1.26208
1.30096
1.33454
1.37631
1.39648
1.4321
1.4719
1.48189
0.000124038
0.00490614
0.0220099
0.0592078
0.0822024
0.129279
0.15563
0.209698
0.240398
0.28573
0.314252
0.364101
0.385295
0.433538
0.454245
0.504055
0.525514
0.57785
0.603187
0.671343
2.47796e-05
0.000305063
0.00146569
0.00500024
0.00730551
0.0131708
0.0170817
0.0268425
0.0326189
0.0443395
0.0508118
0.0651756
0.0714875
0.0872748
0.0943336
0.111938
0.120421
0.140346
0.149963
0.184153
2.1489e-05
4.2733e-05
0.000120615
0.000381279
0.000527675
0.000922591
0.00120687
0.00203412
0.0026082
0.00382219
0.00462256
0.00645546
0.00735757
0.00991247
0.0111685
0.0142106
0.0158988
0.0192405
0.022046
0.0292885
2.10098e-05
3.15503e-05
4.51136e-05
8.17616e-05
9.44918e-05
0.000122097
0.000134251
0.000172198
0.000203543
0.000276461
0.000330037
0.00044407
0.000503743
0.000712284
0.000805526
0.00101832
0.00121929
0.00154546
0.00173331
0.00221796
2.08978e-05
3.10404e-05
3.88704e-05
5.29464e-05
7.18603e-05
8.0086e-05
8.04101e-05
7.90202e-05
7.82363e-05
8.04524e-05
8.85263e-05
9.66552e-05
0.000100789
0.000111247
0.000113074
0.000121303
0.0001442
0.000152329
0.000154864
0.00018111
2.06582e-05
2.78234e-05
4.22095e-05
4.81407e-05
5.55768e-05
6.87701e-05
7.44459e-05
7.46679e-05
7.1488e-05
7.01843e-05
7.08062e-05
7.41592e-05
7.79958e-05
7.86754e-05
7.8162e-05
7.95585e-05
8.12571e-05
8.12214e-05
8.32913e-05
8.80005e-05
2.06324e-05
2.97997e-05
4.37485e-05
4.79591e-05
5.535e-05
6.87687e-05
7.49579e-05
7.49107e-05
7.1718e-05
7.09764e-05
7.12673e-05
7.32654e-05
7.55704e-05
7.62036e-05
7.69064e-05
8.02854e-05
8.08263e-05
8.05829e-05
8.19823e-05
9.06287e-05
2.07812e-05
3.03209e-05
3.79555e-05
5.34245e-05
6.98613e-05
8.09599e-05
8.17811e-05
7.95704e-05
7.89179e-05
8.45458e-05
9.05775e-05
9.27569e-05
9.86541e-05
0.000103729
0.000108136
0.000126497
0.000135679
0.000144561
0.000183213
0.000219627
2.11657e-05
2.86888e-05
4.26663e-05
7.92714e-05
0.000117084
0.000137444
0.000147563
0.000172273
0.000197974
0.000300996
0.000350623
0.000404744
0.000539868
0.00065162
0.000717076
0.00102714
0.00128776
0.00149242
0.00190291
0.00281624
2.17309e-05
4.24985e-05
0.000119959
0.000399291
0.000587511
0.000983135
0.00130832
0.00207945
0.00258917
0.00406743
0.0047585
0.00628943
0.007355
0.0095691
0.0107147
0.0142933
0.016306
0.0201849
0.0230969
0.031281
2.50884e-05
0.000304538
0.00144706
0.0050835
0.00771518
0.0133144
0.0177175
0.0271667
0.0324755
0.0456725
0.0515469
0.0640736
0.0712038
0.0861814
0.0933816
0.112932
0.122609
0.143634
0.156427
0.190461
0.000124163
0.00489572
0.0216927
0.0588415
0.0857841
0.125325
0.16149
0.209212
0.236605
0.293629
0.315357
0.359555
0.384311
0.432246
0.453408
0.508639
0.532082
0.586801
0.616618
0.689449
0.0033636
0.0692558
0.257707
0.423395
0.583692
0.700737
0.839179
0.931739
1.01985
1.10454
1.15343
1.21122
1.2609
1.30635
1.32959
1.38522
1.40527
1.45274
1.47478
1.52239
0.0844188
0.725004
1.56758
1.9386
2.28446
2.42966
2.58386
2.598
2.62532
2.59962
2.58747
2.53816
2.52483
2.47493
2.4609
2.41996
2.41036
2.38051
2.36887
2.33856
1.40411
4.34719
5.32291
5.2861
5.13409
4.79786
4.58883
4.2764
4.13007
3.86687
3.77913
3.57929
3.51895
3.36734
3.33144
3.19703
3.17032
3.05394
3.01194
2.90871
8.11884
10.2606
8.79937
6.81251
5.71787
4.95744
4.54055
4.12792
3.92815
3.64728
3.55554
3.34967
3.30008
3.13282
3.10491
2.93768
2.90474
2.72993
2.66911
2.457
1.69936
1.13757
0.909241
0.82911
0.797893
0.802442
0.816283
0.819734
0.795922
0.758724
0.716942
0.674411
0.598221
0.493553
0.353813
0.241432
0.186128
0.173832
0.174406
0.176519
0.176537
0.171951
0.162677
0.144571
0.125898
0.112332
0.0979923
0.0939385
0.0963857
0.102773
0.117663
0.143883
0.177912
0.21635
0.258452
0.307623
0.332049
0.338929
0.359829
0.376887
0.378712
0.379377
0.380747
0.38044
0.377905
0.371579
0.366266
0.356571
0.330831
0.308175
0.290493
0.27214
0.242651
0.202542
0.168878
0.14007
0.114826
0.0887633
0.0662403
0.0501683
0.0366201
0.0277512
0.0223757
0.0172462
0.0141035
0.0124891
0.0103565
0.00923575
0.00864815
0.00757441
0.00714641
0.00712793
0.00677633
0.00623329
0.00616138
0.00600043
0.00576182
0.0058464
0.00587416
0.00575603
0.00522096
0.00478418
0.00475756
0.00487846
0.00486302
0.00470621
0.00469803
0.00469565
0.00491179
0.00573707
0.00793897
0.0109922
0.0128262
0.0126923
0.0125268
0.014458
0.0203418
0.0450758
0.244917
0.451537
0.488241
0.462675
0.326393
0.195621
0.12228
0.0936718
0.0830786
0.07119
0.0605305
0.0565455
0.056464
0.0592658
0.0597767
0.0570913
0.0546226
0.0542705
0.053906
0.0539108
0.0547107
0.0584047
0.0695067
0.103395
0.247451
0.367372
0.386455
0.342931
0.209555
0.12058
0.0821359
0.0705932
0.068657
0.0683393
0.067471
0.0572878
0.0484384
0.0436992
0.0427679
0.0445131
0.0474993
0.0507518
0.0508239
0.0522618
0.0580796
0.061568
0.0636137
0.0646603
0.0644703
0.0638666
0.0631012
0.0613921
0.0563453
0.0515472
0.0464209
0.0421299
0.0384876
0.0362098
0.0332257
0.0299497
0.026907
0.0246628
0.0227619
0.0220861
0.0217399
0.0210762
0.0198876
0.0191995
0.0188194
0.0182279
0.0176371
0.0174809
0.0176463
0.020361
0.0252995
0.0268739
0.0282668
0.0305805
0.0328249
0.0346164
0.0358977
0.0360619
0.0357898
0.0323421
0.0254006
0.022478
0.0222381
0.0230025
0.0277342
0.030231
0.0341426
0.0375239
0.0454243
0.0495268
0.0544771
0.0610903
0.076757
0.0931236
0.130196
0.131512
0.241445
1.2122
2.4762
2.01627
1.66755
1.44609
1.26954
1.16884
1.06801
1.01078
0.949443
0.919019
0.881062
0.864202
0.853288
0.830275
0.803363
0.74463
0.624175
0.495192
0.37633
0.293496
0.242731
0.209347
0.19445
0.174719
0.159344
0.160308
0.169234
0.185641
0.227808
0.255951
0.295408
0.330253
0.34973
0.369785
0.376532
0.375135
0.381148
0.379984
0.372671
0.368157
0.360315
0.34109
0.327814
0.304717
0.274084
0.250804
0.232578
0.20177
0.167766
0.142619
0.120676
0.100604
0.0795765
0.0621593
0.0498558
0.0392181
0.031377
0.0244899
0.0187503
0.0150363
0.0115739
0.00924411
0.00808597
0.00694914
0.0064748
0.00622888
0.00578767
0.00570147
0.00568823
0.00551614
0.00540344
0.00540848
0.00518848
0.00507312
0.00514141
0.0050259
0.00477544
0.00473572
0.0046239
0.00428183
0.00410748
0.00409555
0.0041762
0.00450629
0.00454642
0.00456308
0.00465744
0.00465021
0.00484966
0.00607197
0.00716445
0.00851135
0.0100597
0.0105519
0.0111873
0.0139971
0.0210043
0.0537663
0.286409
0.469007
0.488001
0.440053
0.283921
0.170326
0.110582
0.0901565
0.0788275
0.0648429
0.0560379
0.054343
0.0552918
0.0585006
0.0586683
0.0561738
0.0545964
0.054437
0.0539423
0.0538439
0.0544734
0.0575996
0.067302
0.0943154
0.2138
0.32565
0.349616
0.331627
0.235472
0.147449
0.101766
0.0816078
0.0767869
0.073944
0.0659838
0.0548937
0.045024
0.0403086
0.0381643
0.0385736
0.0403582
0.0472162
0.0495128
0.0554629
0.0622633
0.0654553
0.066031
0.0654884
0.064321
0.063527
0.0619345
0.0598974
0.0554961
0.0511701
0.0456918
0.0407632
0.0368629
0.0344129
0.0317617
0.0287507
0.0254596
0.0230503
0.02188
0.021097
0.020809
0.0206689
0.0202392
0.0194134
0.0189076
0.0182896
0.0175205
0.0168512
0.0167621
0.0170286
0.0180393
0.0206917
0.0274205
0.0324172
0.0327795
0.0337608
0.0339767
0.0342032
0.0335879
0.0290051
0.0236415
0.0215374
0.0214683
0.0217557
0.0233899
0.0274101
0.0302813
0.037583
0.0403115
0.045271
0.046749
0.0533299
0.0698668
0.0824054
0.14216
0.150282
0.288074
0.663538
2.07327
1.82078
1.58244
1.42801
1.28235
1.18962
1.09486
1.02092
0.965114
0.902105
0.868251
0.833515
0.811905
0.801212
0.790286
0.783197
0.762009
0.736715
0.692145
0.634636
0.571111
0.505348
0.471403
0.437884
0.421472
0.415834
0.415069
0.413185
0.41128
0.409799
0.40423
0.40289
0.399175
0.389485
0.38219
0.364104
0.345734
0.329851
0.296404
0.262585
0.237341
0.203964
0.167542
0.135876
0.107482
0.0891711
0.0737278
0.0585568
0.0469773
0.0380556
0.030848
0.0251221
0.0196865
0.0154131
0.0125426
0.0100141
0.00820223
0.00686383
0.00576333
0.00510463
0.00462534
0.0043185
0.00420056
0.00420939
0.00429752
0.00430536
0.00431667
0.00434179
0.00444782
0.00465096
0.0046863
0.00467154
0.00459421
0.00448495
0.00444118
0.00433607
0.0041453
0.00408882
0.00399524
0.00395842
0.00396406
0.00399627
0.00411239
0.00448625
0.00460416
0.0047742
0.00528961
0.00546227
0.00569125
0.00689348
0.00759843
0.00782523
0.00881672
0.0097563
0.010972
0.0146673
0.0227203
0.0694874
0.330453
0.477827
0.483255
0.405026
0.251713
0.151452
0.101602
0.0844936
0.0718144
0.0572813
0.0519426
0.0521698
0.056003
0.0589012
0.0584039
0.0553744
0.0544307
0.0546728
0.0542255
0.0539187
0.0545642
0.057626
0.066539
0.0887442
0.187371
0.289412
0.315297
0.307423
0.250286
0.169128
0.12011
0.0943945
0.0844593
0.077264
0.0628947
0.0510776
0.0420099
0.0376882
0.0355505
0.0352679
0.0356572
0.0377716
0.0435053
0.0529487
0.0607454
0.0662114
0.0678389
0.0675614
0.0661505
0.0642237
0.0618232
0.0594204
0.0553064
0.0511712
0.0456506
0.040421
0.0362037
0.0329247
0.0299748
0.0272171
0.0242452
0.0223371
0.0217445
0.0212376
0.0212154
0.0211026
0.0207165
0.0193346
0.0188176
0.0176028
0.0164806
0.0156436
0.015455
0.0155249
0.0157375
0.0175016
0.0247752
0.032499
0.0329013
0.0333422
0.0332779
0.0328805
0.0315225
0.0265916
0.0226187
0.0208908
0.0208897
0.021695
0.0231197
0.0267068
0.0352154
0.0395052
0.0455755
0.0458875
0.0504037
0.0505286
0.0815285
0.0868408
0.215964
0.187174
0.31165
0.492042
1.37875
1.25967
1.1273
1.03316
0.95721
0.897982
0.851939
0.796933
0.760692
0.711063
0.675082
0.648736
0.623314
0.621259
0.622849
0.631958
0.643374
0.643216
0.639317
0.62792
0.600316
0.57509
0.544228
0.522335
0.505526
0.480551
0.460416
0.444842
0.418323
0.401063
0.382068
0.353701
0.329234
0.306052
0.268182
0.233111
0.200952
0.168215
0.131586
0.101982
0.0818115
0.0628411
0.0481907
0.0380945
0.0288651
0.0226668
0.0182257
0.0140834
0.0111421
0.00912873
0.00734165
0.00604103
0.00499467
0.004222
0.00369459
0.00330273
0.0030562
0.00294152
0.00294722
0.00298572
0.00313875
0.00326594
0.00347071
0.00368389
0.00369407
0.00370382
0.00383702
0.00404749
0.00432466
0.00442166
0.00428038
0.00422528
0.00436413
0.00439824
0.00439899
0.00436061
0.00413005
0.00402645
0.00404497
0.00419531
0.00439703
0.00451726
0.00477555
0.0053654
0.00555621
0.00581427
0.00694017
0.00740035
0.00750726
0.00805637
0.00850378
0.00837359
0.00867709
0.00998774
0.0121396
0.0168036
0.026129
0.0938959
0.368901
0.481207
0.476344
0.368622
0.22383
0.135475
0.0943301
0.0765331
0.0626046
0.0532382
0.050007
0.0508376
0.0561453
0.0591705
0.0584479
0.0547839
0.0542319
0.054535
0.0541874
0.0537703
0.0547866
0.0584857
0.0670099
0.085957
0.170338
0.261756
0.285506
0.282527
0.249492
0.182507
0.13551
0.105502
0.0899969
0.078071
0.0608912
0.0474748
0.0399731
0.0370992
0.0354086
0.0350828
0.035135
0.0358549
0.0419857
0.0550001
0.0639089
0.068507
0.0692783
0.0685994
0.0662648
0.0649959
0.0628847
0.0598106
0.056357
0.0515152
0.0458531
0.0404145
0.0350183
0.0307614
0.0279968
0.0257123
0.0234127
0.022588
0.0218003
0.0213104
0.0209868
0.0205003
0.0182388
0.0155435
0.013563
0.0127556
0.0127432
0.0133079
0.0138493
0.0141698
0.0142459
0.0148861
0.0218981
0.028529
0.0319749
0.0323232
0.0324028
0.031496
0.0279549
0.023191
0.0209204
0.0207983
0.0214868
0.0236235
0.035704
0.0360792
0.0579334
0.052753
0.0720065
0.0599436
0.0945858
0.0757575
0.152304
0.12423
0.261226
0.25518
0.275382
0.391383
0.642629
0.597963
0.549614
0.49995
0.463955
0.446324
0.433655
0.422508
0.413014
0.396757
0.375693
0.359571
0.341722
0.339423
0.341547
0.34708
0.364607
0.379248
0.396938
0.41374
0.41411
0.410266
0.398958
0.381452
0.359146
0.334975
0.306508
0.283193
0.249668
0.223904
0.195418
0.164022
0.138108
0.115241
0.0924154
0.0753846
0.0612212
0.0485675
0.0378545
0.0294323
0.0229298
0.0171258
0.0127646
0.00982791
0.00723585
0.00548749
0.00447648
0.0036448
0.00309343
0.00277118
0.00259186
0.00248173
0.00238985
0.00235388
0.00235209
0.00237045
0.00245493
0.00255751
0.00276611
0.00290923
0.00326098
0.00366537
0.00388718
0.00402892
0.0041647
0.00457065
0.00488498
0.00488067
0.00483178
0.00471942
0.00461333
0.00474374
0.00538072
0.00549202
0.00549631
0.00531695
0.00510028
0.00510894
0.00539447
0.00593912
0.00614729
0.00631053
0.00676407
0.00767616
0.00800258
0.00856119
0.0102239
0.010474
0.0104031
0.0105381
0.0104847
0.0100614
0.0105618
0.0133152
0.0164291
0.0213114
0.0319881
0.125407
0.397957
0.48193
0.465701
0.334719
0.203418
0.124952
0.0878148
0.0681681
0.0569147
0.0518528
0.0497901
0.0508976
0.0545998
0.0570926
0.0564781
0.0529429
0.0528897
0.0538082
0.0537837
0.0535405
0.0563243
0.0610205
0.0676652
0.0841799
0.158623
0.243074
0.265686
0.264749
0.245327
0.18851
0.144463
0.113209
0.093035
0.0765794
0.0582285
0.044841
0.038441
0.0370669
0.0361319
0.0361872
0.0361337
0.0371992
0.0474985
0.0606489
0.0682172
0.0711672
0.0713581
0.0697182
0.0681064
0.0674828
0.0659992
0.0614243
0.0570283
0.0518506
0.0453736
0.0396133
0.0333191
0.0289536
0.0267227
0.0246416
0.0231743
0.0225722
0.0212545
0.0203415
0.0187034
0.0157732
0.0125255
0.0108209
0.00970366
0.00929885
0.00923881
0.0101653
0.0117411
0.012852
0.0130587
0.0133215
0.0141114
0.020646
0.023339
0.0288602
0.0296785
0.0292751
0.025942
0.0222581
0.0214043
0.0221199
0.028867
0.0319544
0.0512942
0.0568012
0.0985784
0.0848717
0.11125
0.0873268
0.112881
0.1009
0.15969
0.16832
0.193985
0.253476
0.263547
0.318761
0.18093
0.17115
0.159345
0.144296
0.13222
0.129764
0.129941
0.132305
0.136333
0.137902
0.137124
0.130689
0.121161
0.119128
0.119616
0.121296
0.128993
0.137324
0.149941
0.16365
0.169735
0.16987
0.167827
0.161155
0.151502
0.137339
0.118814
0.104258
0.0870045
0.0716945
0.059144
0.0474501
0.0379379
0.0310364
0.0251455
0.0201904
0.0163863
0.013052
0.0100505
0.00767688
0.00580939
0.00428595
0.00315319
0.00245576
0.00200201
0.00171203
0.00171342
0.00176452
0.00186801
0.00196751
0.00219396
0.00237629
0.00256194
0.00300621
0.00325931
0.00377369
0.00437754
0.00496396
0.00553523
0.00574719
0.0061057
0.00704965
0.00755139
0.00807944
0.00825393
0.00824145
0.00822967
0.007691
0.00705517
0.00683925
0.00679421
0.00714227
0.0075978
0.0075323
0.00748572
0.00753061
0.00762389
0.00793613
0.00903064
0.00944741
0.0096373
0.0100178
0.0113743
0.0130612
0.0138012
0.0158685
0.0173264
0.0170872
0.0160919
0.0156965
0.014635
0.0137786
0.0145935
0.019367
0.022774
0.0268028
0.0392111
0.162047
0.417131
0.481767
0.452159
0.301104
0.183602
0.115067
0.0817757
0.0629216
0.0544277
0.0517115
0.051259
0.0526148
0.0537948
0.0539972
0.0529185
0.0501153
0.0501302
0.0514993
0.0521977
0.0532064
0.0577477
0.0639732
0.0692383
0.083607
0.146537
0.226942
0.247436
0.246211
0.234687
0.19109
0.149375
0.117642
0.0937681
0.0733952
0.0550743
0.0432858
0.0379165
0.0367798
0.0365849
0.0370681
0.0380841
0.0425895
0.0568394
0.0668016
0.0715083
0.0728527
0.072538
0.0710671
0.0706726
0.0704992
0.0681214
0.0625324
0.0562638
0.050966
0.0443187
0.0377359
0.0309899
0.0274836
0.0251556
0.0235773
0.0224847
0.020448
0.0180311
0.0161533
0.0138179
0.0117219
0.0101333
0.00930001
0.00874756
0.00866709
0.00860763
0.00882897
0.00950623
0.0103827
0.0109091
0.0118343
0.0122885
0.0159871
0.0174573
0.0226919
0.0232726
0.0241672
0.0215343
0.0211734
0.0210582
0.0223206
0.0299512
0.0346243
0.0702355
0.0755321
0.142063
0.129179
0.167572
0.138415
0.153011
0.13562
0.152905
0.166239
0.194694
0.280021
0.283576
0.302549
0.0286902
0.0269555
0.0244776
0.0223091
0.02157
0.0222115
0.024085
0.0271609
0.0295426
0.0304921
0.030678
0.028838
0.0250119
0.0238016
0.0235542
0.0237584
0.0257174
0.0285083
0.0350542
0.042738
0.047949
0.0496883
0.0493806
0.0474202
0.0439664
0.0381581
0.0320774
0.0266323
0.0212713
0.0168318
0.0130518
0.0102318
0.00790343
0.00637633
0.0052325
0.00422538
0.0034724
0.00277231
0.00215649
0.00167764
0.00136576
0.00113122
0.00106867
0.00108584
0.00115639
0.00128797
0.00160357
0.00214434
0.0028032
0.00345068
0.00472851
0.00560502
0.00680988
0.00864365
0.00978099
0.0112565
0.0128273
0.0138654
0.0144304
0.0148314
0.0156425
0.0159629
0.0159315
0.0159787
0.0158327
0.0152041
0.0145096
0.0126696
0.0115443
0.0111523
0.0109971
0.0111774
0.0114575
0.0113267
0.0113378
0.011533
0.0118994
0.0130776
0.0139251
0.0142622
0.0148971
0.0162494
0.0206878
0.024207
0.0276315
0.0324389
0.0334765
0.0321669
0.0289703
0.0270023
0.0231108
0.0212034
0.0223763
0.0282783
0.0313871
0.0345009
0.049663
0.190044
0.430829
0.47928
0.433157
0.269233
0.167025
0.109555
0.0790396
0.0605543
0.0535463
0.0535922
0.0558036
0.057355
0.0549752
0.0520711
0.0494556
0.0478835
0.0479207
0.0487967
0.050518
0.0538391
0.0594504
0.0656935
0.0721234
0.0847008
0.135644
0.208325
0.231526
0.23036
0.222225
0.191495
0.151461
0.118184
0.0921581
0.0697685
0.0524848
0.0428497
0.0380899
0.0370038
0.0371671
0.0384123
0.0425705
0.0545202
0.0666725
0.0740753
0.0764371
0.0766323
0.0756476
0.0753191
0.0754897
0.0747373
0.0692449
0.061937
0.0532963
0.0469368
0.0401641
0.0337809
0.0276924
0.0245387
0.0223755
0.021297
0.0197073
0.0178173
0.0159478
0.0140145
0.0117777
0.0103133
0.00922588
0.00901537
0.00865305
0.00877308
0.00868475
0.00894667
0.00884969
0.00879446
0.00896696
0.00932913
0.00975211
0.0111472
0.0118754
0.0154096
0.0158369
0.0171871
0.0166069
0.0188272
0.0207114
0.026072
0.0408682
0.0448341
0.0752563
0.0893924
0.108328
0.121571
0.126706
0.132369
0.12316
0.125311
0.133566
0.157156
0.198271
0.283903
0.347966
0.360867
0.00219012
0.00217083
0.00215277
0.00214789
0.00215516
0.00243505
0.00271448
0.0032417
0.00355289
0.00354358
0.00326964
0.00272048
0.00237764
0.00235152
0.00236728
0.00250434
0.00301096
0.00371408
0.0054527
0.00766136
0.00895958
0.00929496
0.00914429
0.00853782
0.00720935
0.00589684
0.00480506
0.00374575
0.00298987
0.00231058
0.0017391
0.00139052
0.00109998
0.000938392
0.000809944
0.000739837
0.000676
0.000625356
0.000630562
0.000646646
0.000687171
0.000811938
0.00097928
0.00130529
0.00200335
0.00269805
0.0047396
0.00640061
0.00878634
0.0116972
0.0144712
0.0176779
0.0223543
0.0263313
0.0292976
0.0324289
0.0347987
0.0366781
0.0368887
0.0365223
0.035683
0.0334023
0.0318217
0.0310458
0.028382
0.0266537
0.0242621
0.0211737
0.0195939
0.0186944
0.0182677
0.0183431
0.0176981
0.0166846
0.0167399
0.017575
0.0186234
0.0198269
0.0205692
0.0215974
0.0239101
0.0297092
0.041032
0.0525032
0.0630698
0.0677129
0.0671973
0.0625147
0.052542
0.0481424
0.0415212
0.0358894
0.0355613
0.0374641
0.0385083
0.0395599
0.0564917
0.206586
0.439266
0.477511
0.410977
0.249707
0.159334
0.106958
0.0779555
0.0597903
0.053534
0.0555464
0.0638629
0.0661273
0.0596929
0.0524
0.0486844
0.0476093
0.0475725
0.0486184
0.0505627
0.0586437
0.0632474
0.0671344
0.0746447
0.0885739
0.136474
0.191856
0.217346
0.21737
0.211709
0.190045
0.152592
0.116755
0.0889034
0.0664641
0.0510925
0.0432321
0.0392622
0.0386838
0.0393611
0.0431162
0.0547857
0.0685103
0.0774523
0.0806265
0.0809313
0.0798652
0.0795105
0.0797894
0.0793239
0.076672
0.0678622
0.0550893
0.0469856
0.0405963
0.0329773
0.0261872
0.0210095
0.0190457
0.0184122
0.0182057
0.0175695
0.0160557
0.014366
0.0127962
0.0111538
0.00989711
0.00923005
0.0090449
0.00857791
0.00856164
0.00874863
0.00955003
0.00946871
0.00925427
0.00939945
0.00940253
0.00953827
0.0100488
0.0103651
0.0118666
0.0127375
0.0144676
0.0149397
0.0160192
0.0186089
0.0239933
0.0464336
0.0528406
0.0757108
0.095479
0.103302
0.113032
0.114295
0.120836
0.119394
0.127427
0.126149
0.153875
0.170995
0.248014
0.282931
0.357675
0.000201346
0.000202954
0.000195877
0.000193295
0.000208951
0.00025143
0.000266149
0.000265914
0.000249064
0.000242625
0.000265478
0.000315952
0.00032897
0.000328769
0.000325368
0.000327931
0.000369512
0.000480017
0.000743663
0.000981045
0.00101883
0.00100953
0.000916518
0.000782178
0.000647787
0.000571638
0.000510358
0.000448178
0.000388451
0.000335299
0.000310921
0.00030546
0.000310974
0.00032501
0.000346066
0.000398947
0.000462719
0.000533794
0.000711963
0.00092417
0.00133978
0.00219041
0.00298925
0.00486071
0.00697334
0.00963644
0.0164882
0.0205443
0.0265967
0.0337462
0.0413071
0.0515463
0.0620082
0.0699297
0.07627
0.082998
0.0856177
0.0853356
0.0837628
0.0805407
0.0737569
0.0670245
0.0616466
0.0544102
0.0493438
0.0454035
0.0391269
0.0340484
0.0322516
0.0310302
0.0291715
0.0272199
0.0247302
0.024075
0.0247478
0.026245
0.0269785
0.0282106
0.0298944
0.0336296
0.0426434
0.0647162
0.0949201
0.123316
0.13766
0.137845
0.133283
0.114908
0.0972935
0.0837161
0.0627971
0.0479768
0.0462195
0.0483969
0.0484716
0.0483361
0.065757
0.221227
0.44937
0.4793
0.394971
0.240117
0.155839
0.106091
0.0781125
0.0600883
0.0545545
0.0582751
0.0679591
0.0726307
0.0651118
0.0566113
0.0498466
0.0488764
0.0482393
0.0505894
0.0529447
0.0627485
0.0678903
0.0704693
0.0772064
0.0926457
0.140115
0.187112
0.208179
0.209537
0.205309
0.188456
0.152589
0.114562
0.0861205
0.0642691
0.0507285
0.0450998
0.043138
0.0433224
0.0459761
0.0547658
0.0680805
0.0788113
0.0834367
0.0840878
0.0833063
0.0829081
0.0836676
0.0837268
0.0816184
0.0740639
0.0597904
0.0459135
0.0370429
0.0288448
0.0229083
0.0186683
0.0158701
0.0144937
0.0138355
0.0136748
0.013619
0.0131715
0.0128049
0.0119407
0.0114264
0.0107391
0.010231
0.00949391
0.00902695
0.00883345
0.0088565
0.00940326
0.00953837
0.00987058
0.0104304
0.0109769
0.0107144
0.0107041
0.0109383
0.0119231
0.0121579
0.0132445
0.0150021
0.0164054
0.0197359
0.0250891
0.0450413
0.059144
0.083605
0.0905977
0.107206
0.106333
0.117457
0.120733
0.1245
0.140648
0.138011
0.156039
0.169382
0.201473
0.214627
0.246167
8.90272e-05
9.08228e-05
9.68943e-05
0.000104034
0.000104427
9.9907e-05
9.86503e-05
0.000114249
0.000142713
0.000154744
0.000150767
0.000133725
0.000126756
0.000133962
0.000158356
0.000177487
0.000180519
0.000173782
0.000161119
0.000156427
0.000157347
0.000157004
0.000162087
0.000169618
0.000168778
0.000171211
0.000171589
0.00017204
0.000177882
0.000202337
0.000257386
0.000326814
0.000503219
0.00065767
0.000857152
0.00116974
0.00151154
0.00195054
0.00295391
0.00382821
0.00595552
0.00858665
0.0117793
0.016685
0.022423
0.0325432
0.0466134
0.0554928
0.0697771
0.0886906
0.106796
0.1311
0.15115
0.165654
0.182186
0.188293
0.187463
0.183865
0.175082
0.160989
0.145081
0.125395
0.108777
0.0943094
0.080917
0.0707861
0.0616718
0.052806
0.0488201
0.0459202
0.0408325
0.0366334
0.0351089
0.0353341
0.0365467
0.0368624
0.0379279
0.0406322
0.0463678
0.0613929
0.102013
0.162591
0.193757
0.203236
0.202722
0.19943
0.192821
0.178874
0.151268
0.123727
0.0923681
0.0734862
0.0705995
0.0671798
0.0575397
0.0563596
0.0767065
0.250147
0.464292
0.481809
0.386933
0.23701
0.155406
0.109489
0.082147
0.0636895
0.0565191
0.0593734
0.0689168
0.0765816
0.0751713
0.0673538
0.0599403
0.0561898
0.0533824
0.0605838
0.0622252
0.0663559
0.0774616
0.0761538
0.079382
0.0946643
0.140713
0.183584
0.196929
0.198763
0.195428
0.183023
0.149629
0.113172
0.084655
0.063551
0.0521977
0.0492892
0.0488377
0.050422
0.0585837
0.0697821
0.0803343
0.0854985
0.0866478
0.0864809
0.0862345
0.0870816
0.0877924
0.0861932
0.0793601
0.0637235
0.0464206
0.0344765
0.0266748
0.0212344
0.0179027
0.0156887
0.0143302
0.0134322
0.0126557
0.0122543
0.0121017
0.0120545
0.0122249
0.0123203
0.0123942
0.0123479
0.0122725
0.0115733
0.0109542
0.0104351
0.0103166
0.0101507
0.0101904
0.0108193
0.0117556
0.0119772
0.0119328
0.0114997
0.0116745
0.0118938
0.0129544
0.0133437
0.0151989
0.0165993
0.0186045
0.0232185
0.0460884
0.0615131
0.0821117
0.0923195
0.0974125
0.10438
0.126538
0.132079
0.135148
0.157539
0.154121
0.157249
0.162105
0.192612
0.192332
0.192338
9.02287e-05
9.08625e-05
9.30829e-05
9.78837e-05
0.00010145
0.000104809
0.000105428
0.000103522
9.89879e-05
9.91136e-05
0.000115518
0.000137158
0.000147418
0.000149502
0.000139546
0.000125104
0.000116856
0.000115838
0.000115806
0.000116438
0.000118055
0.000120415
0.000130118
0.000142655
0.000154858
0.000165176
0.000186501
0.000221847
0.00028933
0.000529293
0.000912836
0.00153078
0.00241733
0.00305065
0.0042338
0.00526405
0.00677174
0.00859225
0.0117919
0.0148079
0.022028
0.0292752
0.0378016
0.049097
0.0676962
0.0904289
0.113116
0.136224
0.174558
0.213359
0.254506
0.301505
0.334831
0.364688
0.379019
0.377677
0.371382
0.358374
0.329425
0.300564
0.265078
0.225844
0.190807
0.157975
0.130986
0.108297
0.0909506
0.0802889
0.0724985
0.0644196
0.0588268
0.0570985
0.0539249
0.0512527
0.0503528
0.0507695
0.0541631
0.0626745
0.0839732
0.150767
0.227697
0.235687
0.230814
0.221734
0.215507
0.209315
0.204499
0.19835
0.184731
0.159841
0.12579
0.0993167
0.0875299
0.0739531
0.0607967
0.0598978
0.0849909
0.276269
0.475687
0.485208
0.384134
0.245215
0.167037
0.115579
0.0860221
0.0682614
0.0595359
0.0596081
0.0674842
0.0780044
0.0808749
0.0807324
0.0773441
0.0754008
0.0737667
0.0724886
0.0813156
0.0758658
0.0808594
0.0813104
0.0838363
0.0973537
0.139623
0.177142
0.188331
0.189496
0.184673
0.169817
0.145474
0.112198
0.0836265
0.0646523
0.0576787
0.0579974
0.0603803
0.06456
0.0735374
0.082125
0.0881858
0.0897942
0.0898789
0.089931
0.090706
0.0918423
0.0906167
0.0841282
0.0648095
0.0483165
0.0350754
0.0277434
0.0219231
0.0181172
0.0158916
0.0148493
0.0138362
0.013287
0.0124445
0.0122062
0.0120659
0.0120647
0.012268
0.0127443
0.0132936
0.0134939
0.0135627
0.0134333
0.0133514
0.0131205
0.0131261
0.0129566
0.0131494
0.0137928
0.0149191
0.0146317
0.0146144
0.0135229
0.0139631
0.0136089
0.0147008
0.0142627
0.0153185
0.0167089
0.0190716
0.0230799
0.0571578
0.0660593
0.088004
0.0942111
0.103681
0.116123
0.124792
0.155762
0.152418
0.167506
0.164082
0.159388
0.141977
0.142882
0.16739
0.17514
0.000215984
0.000212145
0.000211929
0.000210914
0.000210228
0.000210984
0.000228262
0.000248676
0.00027019
0.000283766
0.000315144
0.000353236
0.000386924
0.00040244
0.000400953
0.000365803
0.000321714
0.000299033
0.000295312
0.000315733
0.000363027
0.00042293
0.000482157
0.000532764
0.000628789
0.00073844
0.000941101
0.00122844
0.00175694
0.00335425
0.00532797
0.00815432
0.0108296
0.013615
0.017499
0.0203699
0.0257594
0.0305429
0.0393717
0.0505662
0.0657744
0.0836375
0.101941
0.132839
0.1711
0.211321
0.258365
0.324423
0.396411
0.463536
0.509225
0.534808
0.540976
0.539807
0.534965
0.523815
0.514187
0.494792
0.471781
0.446879
0.39937
0.352967
0.307972
0.255286
0.21296
0.173922
0.142011
0.118253
0.103205
0.0903168
0.080492
0.0740095
0.0687931
0.0684397
0.0689812
0.0726889
0.0847547
0.11227
0.200578
0.271337
0.270298
0.247148
0.209367
0.188488
0.186353
0.193191
0.198407
0.197668
0.191522
0.17243
0.131903
0.114491
0.108971
0.0906621
0.068728
0.0672526
0.0972679
0.297689
0.480542
0.492901
0.406827
0.269501
0.18335
0.127495
0.0923811
0.0729065
0.0621726
0.0598418
0.064966
0.0768653
0.08262
0.0850418
0.0858248
0.0899894
0.0920438
0.0876636
0.0924431
0.0813188
0.0829066
0.0905123
0.0938995
0.101884
0.14124
0.174912
0.183529
0.184612
0.178919
0.1633
0.142862
0.110432
0.0846266
0.0741258
0.0739691
0.0781465
0.0801025
0.0830902
0.0888873
0.0932724
0.094316
0.0940382
0.0939071
0.0946217
0.0956652
0.09491
0.0889217
0.0657255
0.0485377
0.0374151
0.0293275
0.0242129
0.0197742
0.0169625
0.0154291
0.0147579
0.0140128
0.0132668
0.0126985
0.0124518
0.0123724
0.0125146
0.01353
0.0141917
0.0150438
0.0152708
0.0155207
0.0155376
0.0157151
0.0157915
0.0162149
0.0164084
0.0178473
0.0186968
0.0193738
0.0186124
0.0186441
0.0173311
0.0183235
0.016832
0.0182316
0.0166827
0.0185047
0.0184904
0.0205259
0.0248087
0.0617445
0.0745956
0.10629
0.103326
0.116645
0.15192
0.157765
0.169649
0.153985
0.149518
0.14171
0.148495
0.14294
0.128304
0.129093
0.137627
0.00279604
0.00280132
0.00287645
0.00294394
0.00295865
0.0029623
0.00292214
0.00282259
0.00278037
0.00276759
0.00278298
0.00280891
0.00295678
0.0034863
0.00395913
0.00428262
0.00443607
0.00448385
0.00459924
0.00474864
0.00481075
0.00489054
0.00501781
0.00525096
0.00576683
0.00644762
0.00780167
0.00953286
0.0135102
0.0186643
0.0261894
0.0330294
0.0405209
0.0488677
0.055665
0.06709
0.0763921
0.0914215
0.112289
0.138844
0.163396
0.20644
0.242481
0.305115
0.373076
0.452533
0.5371
0.585724
0.616854
0.618259
0.615322
0.60642
0.58939
0.577204
0.564814
0.557439
0.542512
0.529136
0.519541
0.498233
0.470541
0.438595
0.390493
0.345963
0.295197
0.24849
0.214713
0.17965
0.156413
0.138426
0.124063
0.107672
0.103489
0.105232
0.108553
0.118983
0.152998
0.240871
0.300434
0.294649
0.231259
0.157338
0.137774
0.136185
0.142723
0.168689
0.190264
0.196252
0.195241
0.185059
0.151554
0.129885
0.113685
0.0886468
0.0730103
0.0737752
0.109436
0.305549
0.476066
0.50497
0.445845
0.316681
0.21436
0.145125
0.103507
0.0804799
0.0675564
0.0644069
0.0649969
0.0732055
0.0801128
0.0854126
0.0893858
0.0942204
0.0970098
0.0942461
0.0947425
0.0911289
0.0892226
0.0953695
0.098849
0.114374
0.149166
0.173625
0.180306
0.178696
0.170236
0.156082
0.136706
0.1125
0.0986916
0.0973832
0.0987992
0.0987219
0.0984862
0.0997537
0.101302
0.101403
0.100284
0.099732
0.100174
0.10054
0.0996054
0.0930887
0.0699343
0.052318
0.0411294
0.0333265
0.0274862
0.022933
0.0191279
0.017002
0.0159983
0.0156881
0.0151255
0.0148765
0.0144893
0.0143349
0.0143578
0.0147806
0.0162115