/*--------------------------------*- C++ -*----------------------------------*\
| =========                 |                                                 |
| \\      /  F ield         | OpenFOAM: The Open Source CFD Toolbox           |
|  \\    /   O peration     | Version:  2.4.0                                 |
|   \\  /    A nd           | Web:      www.OpenFOAM.org                      |
|    \\/     M anipulation  |                                                 |
\*---------------------------------------------------------------------------*/
FoamFile
{
    version     2.0;
    format      ascii;
    class       surfaceScalarField;
    location    "0.21";
    object      phi_0;
}
// * * * * * * * * * * * * * * * * * * * * * * * * * * * * * * * * * * * * * //

dimensions      [0 3 -1 0 0 0 0];

internalField   nonuniform List<scalar> 
17320
(
1.76359e-05
7.36415e-06
1.16165e-05
6.01939e-06
8.68377e-06
2.9327e-06
7.35065e-06
1.33312e-06
6.72253e-06
6.28119e-07
6.34109e-06
3.81439e-07
6.07668e-06
2.6441e-07
5.87181e-06
2.04874e-07
5.70793e-06
1.63886e-07
5.58058e-06
1.27343e-07
5.49013e-06
9.04497e-08
5.37168e-06
1.18454e-07
5.31776e-06
5.39201e-08
5.21442e-06
1.03339e-07
5.13919e-06
7.52317e-08
5.03091e-06
1.08276e-07
4.94275e-06
8.81598e-08
4.82113e-06
1.21621e-07
4.68059e-06
1.40538e-07
-2.23883e-08
4.70298e-06
2.54534e-05
6.91075e-06
2.32505e-05
8.2223e-06
2.0987e-05
5.19622e-06
1.93133e-05
3.00675e-06
1.80816e-05
1.85989e-06
1.71065e-05
1.35655e-06
1.6369e-05
1.00189e-06
1.57722e-05
8.01617e-07
1.5311e-05
6.25138e-07
1.49377e-05
5.00595e-07
1.46419e-05
3.86253e-07
1.4357e-05
4.0335e-07
1.41663e-05
2.44665e-07
1.39214e-05
3.4819e-07
1.37382e-05
2.58434e-07
1.35001e-05
3.46395e-07
1.33052e-05
2.83086e-07
1.30227e-05
4.04086e-07
1.2886e-05
2.77249e-07
2.76272e-07
1.25873e-05
2.6606e-05
5.3047e-06
2.71679e-05
7.66046e-06
2.67794e-05
5.58469e-06
2.62462e-05
3.53993e-06
2.56111e-05
2.49503e-06
2.48606e-05
2.10702e-06
2.41686e-05
1.69393e-06
2.34954e-05
1.47485e-06
2.29368e-05
1.18373e-06
2.24545e-05
9.82827e-07
2.20389e-05
8.01876e-07
2.16625e-05
7.79738e-07
2.13795e-05
5.27677e-07
2.10541e-05
6.73627e-07
2.08064e-05
5.06124e-07
2.04994e-05
6.53374e-07
2.02581e-05
5.24392e-07
1.98726e-05
7.89539e-07
1.97384e-05
4.11542e-07
8.18024e-07
1.91966e-05
2.63032e-05
4.00147e-06
2.75537e-05
6.40998e-06
2.80893e-05
5.04914e-06
2.84519e-05
3.17733e-06
2.8662e-05
2.28493e-06
2.8602e-05
2.16694e-06
2.84917e-05
1.80427e-06
2.82178e-05
1.74871e-06
2.79668e-05
1.43481e-06
2.77051e-05
1.24453e-06
2.74311e-05
1.07583e-06
2.71597e-05
1.05113e-06
2.69434e-05
7.44047e-07
2.66524e-05
9.64537e-07
2.64507e-05
7.07853e-07
2.61526e-05
9.51456e-07
2.59554e-05
7.21669e-07
2.5558e-05
1.18691e-06
2.52065e-05
7.63042e-07
1.74231e-06
2.42822e-05
2.60307e-05
2.97074e-06
2.72447e-05
5.19598e-06
2.8059e-05
4.23491e-06
2.84991e-05
2.73722e-06
2.90049e-05
1.77907e-06
2.93058e-05
1.86604e-06
2.95985e-05
1.51162e-06
2.97246e-05
1.62256e-06
2.98395e-05
1.31994e-06
2.99229e-05
1.16108e-06
2.99562e-05
1.04255e-06
2.99675e-05
1.03981e-06
2.99879e-05
7.2368e-07
2.9911e-05
1.04148e-06
2.98921e-05
7.26669e-07
2.97945e-05
1.04906e-06
2.96916e-05
8.24573e-07
2.96978e-05
1.1808e-06
2.96786e-05
7.82217e-07
1.67732e-06
2.97436e-05
2.58369e-05
2.13381e-06
2.69423e-05
4.09062e-06
2.7831e-05
3.34618e-06
2.82429e-05
2.32531e-06
2.87278e-05
1.29418e-06
2.9088e-05
1.50582e-06
2.94475e-05
1.15218e-06
2.97178e-05
1.35223e-06
2.99655e-05
1.07224e-06
3.01928e-05
9.3381e-07
3.03711e-05
8.64201e-07
3.05681e-05
8.42856e-07
3.07455e-05
5.46233e-07
3.08577e-05
9.29323e-07
3.09781e-05
6.06256e-07
3.11156e-05
9.11581e-07
3.11578e-05
7.82393e-07
3.14772e-05
8.61333e-07
3.15515e-05
7.07995e-07
1.57217e-06
3.16566e-05
2.56734e-05
1.46036e-06
2.67281e-05
3.03598e-06
2.76022e-05
2.47211e-06
2.80799e-05
1.8476e-06
2.84989e-05
8.75161e-07
2.88588e-05
1.1459e-06
2.91585e-05
8.52534e-07
2.94722e-05
1.03846e-06
2.97504e-05
7.94024e-07
3.00172e-05
6.67053e-07
3.01907e-05
6.90696e-07
3.04561e-05
5.77477e-07
3.0638e-05
3.64298e-07
3.07787e-05
7.88623e-07
3.0958e-05
4.27001e-07
3.1244e-05
6.25542e-07
3.13538e-05
6.72639e-07
3.15806e-05
6.34493e-07
3.17444e-05
5.44174e-07
9.44513e-07
3.23721e-05
2.55379e-05
9.22441e-07
2.66093e-05
1.96459e-06
2.74322e-05
1.64919e-06
2.79951e-05
1.2847e-06
2.83444e-05
5.25877e-07
2.87095e-05
7.80811e-07
2.89684e-05
5.93585e-07
2.93075e-05
6.99377e-07
2.95724e-05
5.29115e-07
2.98602e-05
3.79254e-07
3.00442e-05
5.06677e-07
3.02864e-05
3.35328e-07
3.04158e-05
2.34933e-07
3.05889e-05
6.15452e-07
3.08072e-05
2.08776e-07
3.11026e-05
3.30051e-07
3.11756e-05
5.99677e-07
3.14268e-05
3.83288e-07
3.1844e-05
1.26977e-07
3.01958e-07
3.24866e-05
2.54812e-05
4.41278e-07
2.65228e-05
9.23006e-07
2.73071e-05
8.64887e-07
2.7914e-05
6.77795e-07
2.82486e-05
1.91235e-07
2.85709e-05
4.58531e-07
2.88718e-05
2.92686e-07
2.92428e-05
3.28338e-07
2.94535e-05
3.18422e-07
2.97274e-05
1.05376e-07
2.99464e-05
2.87682e-07
3.01199e-05
1.61788e-07
3.03098e-05
4.50446e-08
3.05386e-05
3.86706e-07
3.06775e-05
6.98327e-08
3.09219e-05
8.56094e-08
3.11232e-05
3.98443e-07
3.14494e-05
5.71174e-08
3.17414e-05
-1.65026e-07
1.76458e-07
3.18669e-05
2.54369e-05
4.3685e-09
2.64306e-05
-7.06655e-08
2.72867e-05
8.80053e-09
2.78966e-05
6.78942e-08
2.81575e-05
-6.96891e-08
2.84812e-05
1.34869e-07
2.88343e-05
-6.04109e-08
2.92064e-05
-4.37832e-08
2.94018e-05
1.23044e-07
2.9651e-05
-1.43877e-07
2.98944e-05
4.42414e-08
3.00811e-05
-2.48843e-08
3.0318e-05
-1.91828e-07
3.05107e-05
1.93958e-07
3.05782e-05
2.36303e-09
3.08597e-05
-1.95859e-07
3.11547e-05
1.0341e-07
3.1348e-05
-1.36201e-07
3.14503e-05
-2.67251e-07
1.19419e-08
3.16148e-05
2.54096e-05
-4.05219e-07
2.64414e-05
-1.10245e-06
2.72932e-05
-8.43064e-07
2.78882e-05
-5.27048e-07
2.81572e-05
-3.38739e-07
2.84928e-05
-2.00661e-07
2.88496e-05
-4.17299e-07
2.91924e-05
-3.86535e-07
2.94198e-05
-1.04329e-07
2.96703e-05
-3.94442e-07
2.99056e-05
-1.91012e-07
3.0102e-05
-2.21334e-07
3.02866e-05
-3.7638e-07
3.04712e-05
9.30524e-09
3.05956e-05
-1.22014e-07
3.08936e-05
-4.93885e-07
3.11479e-05
-1.50875e-07
3.12106e-05
-1.98851e-07
3.149e-05
-5.46627e-07
-4.74079e-07
3.1976e-05
2.54769e-05
-8.82109e-07
2.65055e-05
-2.1311e-06
2.73124e-05
-1.6499e-06
2.79301e-05
-1.14474e-06
2.82174e-05
-6.26097e-07
2.85785e-05
-5.61731e-07
2.8899e-05
-7.37787e-07
2.91947e-05
-6.82273e-07
2.94678e-05
-3.77449e-07
2.97581e-05
-6.84688e-07
2.99723e-05
-4.0523e-07
3.01331e-05
-3.82142e-07
3.02651e-05
-5.08327e-07
3.05517e-05
-2.77305e-07
3.07038e-05
-2.7414e-07
3.09086e-05
-6.98692e-07
3.1165e-05
-4.07247e-07
3.13323e-05
-3.66144e-07
3.16514e-05
-8.65712e-07
-7.04079e-07
3.18814e-05
2.55901e-05
-1.47218e-06
2.65775e-05
-3.11853e-06
2.73839e-05
-2.45634e-06
2.79879e-05
-1.74871e-06
2.83317e-05
-9.6993e-07
2.87177e-05
-9.47685e-07
2.89872e-05
-1.00726e-06
2.92744e-05
-9.69487e-07
2.95916e-05
-6.94611e-07
2.98938e-05
-9.86902e-07
3.00526e-05
-5.64087e-07
3.02275e-05
-5.56994e-07
3.03802e-05
-6.6104e-07
3.06656e-05
-5.62735e-07
3.07972e-05
-4.05683e-07
3.09845e-05
-8.86047e-07
3.12802e-05
-7.0289e-07
3.15455e-05
-6.31503e-07
3.16583e-05
-9.78485e-07
-8.49798e-07
3.1804e-05
2.56953e-05
-2.16744e-06
2.67105e-05
-4.13374e-06
2.75581e-05
-3.30401e-06
2.80702e-05
-2.26079e-06
2.85026e-05
-1.40227e-06
2.88603e-05
-1.30539e-06
2.9168e-05
-1.31498e-06
2.94895e-05
-1.291e-06
2.97897e-05
-9.94845e-07
3.0011e-05
-1.20816e-06
3.01814e-05
-7.34461e-07
3.04248e-05
-8.00458e-07
3.05742e-05
-8.10411e-07
3.07845e-05
-7.7303e-07
3.09545e-05
-5.75733e-07
3.11631e-05
-1.09459e-06
3.13429e-05
-8.82731e-07
3.16653e-05
-9.53879e-07
3.18005e-05
-1.11367e-06
-1.12545e-06
3.20761e-05
2.58406e-05
-3.00807e-06
2.69245e-05
-5.21759e-06
2.7811e-05
-4.1905e-06
2.82593e-05
-2.70913e-06
2.87031e-05
-1.84602e-06
2.91014e-05
-1.70371e-06
2.94536e-05
-1.66719e-06
2.97303e-05
-1.5677e-06
3.00044e-05
-1.26893e-06
3.01664e-05
-1.37014e-06
3.0367e-05
-9.35124e-07
3.05466e-05
-9.80014e-07
3.06833e-05
-9.47154e-07
3.08295e-05
-9.19202e-07
3.09829e-05
-7.29144e-07
3.10833e-05
-1.19495e-06
3.11565e-05
-9.55987e-07
3.14116e-05
-1.209e-06
3.15284e-05
-1.23039e-06
-1.37508e-06
3.1778e-05
2.60209e-05
-4.02895e-06
2.7215e-05
-6.41169e-06
2.80427e-05
-5.01818e-06
2.85038e-05
-3.17024e-06
2.89824e-05
-2.32464e-06
2.93494e-05
-2.07072e-06
2.95958e-05
-1.91356e-06
2.97351e-05
-1.70707e-06
2.98688e-05
-1.4026e-06
2.98772e-05
-1.37852e-06
2.99523e-05
-1.01024e-06
2.99492e-05
-9.7692e-07
2.99373e-05
-9.35258e-07
2.99013e-05
-8.83163e-07
2.98821e-05
-7.09946e-07
2.97583e-05
-1.0712e-06
2.96678e-05
-8.65462e-07
2.96224e-05
-1.16361e-06
2.95181e-05
-1.1261e-06
-1.43962e-06
2.95826e-05
2.62903e-05
-5.31927e-06
2.75375e-05
-7.65886e-06
2.80843e-05
-5.56498e-06
2.84519e-05
-3.53785e-06
2.86521e-05
-2.52481e-06
2.86362e-05
-2.05482e-06
2.84703e-05
-1.7477e-06
2.82304e-05
-1.46718e-06
2.79778e-05
-1.14994e-06
2.76625e-05
-1.06325e-06
2.74312e-05
-7.78926e-07
2.71578e-05
-7.03502e-07
2.68948e-05
-6.72311e-07
2.66452e-05
-6.33527e-07
2.64257e-05
-4.90429e-07
2.61056e-05
-7.51182e-07
2.58655e-05
-6.25277e-07
2.55489e-05
-8.47081e-07
2.52846e-05
-8.61749e-07
-1.29283e-06
2.51378e-05
2.65984e-05
-6.91772e-06
2.716e-05
-8.22044e-06
2.67804e-05
-5.18536e-06
2.62478e-05
-3.00522e-06
2.56048e-05
-1.88181e-06
2.48774e-05
-1.32749e-06
2.41537e-05
-1.02399e-06
2.34979e-05
-8.11361e-07
2.29387e-05
-5.90687e-07
2.24256e-05
-5.50207e-07
2.20321e-05
-3.8539e-07
2.16675e-05
-3.38875e-07
2.1336e-05
-3.40838e-07
2.10363e-05
-3.33819e-07
2.07815e-05
-2.35604e-07
2.04412e-05
-4.10943e-07
2.017e-05
-3.5403e-07
1.97727e-05
-4.49855e-07
1.93881e-05
-4.77122e-07
-4.55999e-07
1.85513e-05
2.5449e-05
-7.36675e-06
2.32473e-05
-6.01868e-06
2.09905e-05
-2.92856e-06
1.93167e-05
-1.33143e-06
1.80741e-05
-6.39274e-07
1.71156e-05
-3.68945e-07
1.63616e-05
-2.7002e-07
1.57657e-05
-2.15442e-07
1.53161e-05
-1.41116e-07
1.49179e-05
-1.51996e-07
1.46275e-05
-9.49271e-08
1.43706e-05
-8.1997e-08
1.41272e-05
-9.74606e-08
1.3898e-05
-1.04589e-07
1.37174e-05
-5.5015e-08
1.34455e-05
-1.39083e-07
1.32112e-05
-1.19722e-07
1.29032e-05
-1.41778e-07
1.26347e-05
-2.08701e-07
-6.95315e-08
1.22483e-05
1.76333e-05
1.16146e-05
8.68601e-06
7.35458e-06
6.71531e-06
6.34636e-06
6.07634e-06
5.8609e-06
5.71978e-06
5.56779e-06
5.47286e-06
5.39086e-06
5.2934e-06
5.18882e-06
5.1338e-06
4.99472e-06
4.875e-06
4.73322e-06
4.52452e-06
4.45498e-06
5.42468e-06
3.93854e-07
-1.11555e-06
6.03136e-06
1.69165e-07
-7.75845e-07
6.4363e-06
-2.37974e-07
-1.66963e-07
6.73518e-06
-5.55585e-07
2.56707e-07
6.9544e-06
-7.4433e-07
5.25104e-07
7.01619e-06
-7.41641e-07
6.79856e-07
6.98973e-06
-7.78229e-07
8.04689e-07
7.00551e-06
-5.96921e-07
5.81139e-07
6.76759e-06
-6.58398e-07
8.96319e-07
6.47603e-06
-7.26211e-07
1.01777e-06
6.2006e-06
-6.9023e-07
9.65665e-07
5.98209e-06
-4.72945e-07
6.91452e-07
5.82985e-06
-2.72229e-07
4.24469e-07
5.86402e-06
2.23141e-07
-2.57316e-07
6.25927e-06
7.83615e-07
-1.17886e-06
7.23397e-06
1.59977e-06
-2.57447e-06
8.68917e-06
2.48931e-06
-3.94451e-06
1.04795e-05
3.22998e-06
-5.02029e-06
1.25022e-05
4.03685e-06
-6.05957e-06
1.44765e-05
4.41231e-06
-6.38655e-06
1.61575e-05
4.17833e-06
-5.85938e-06
1.7507e-05
3.63379e-06
-4.98333e-06
1.85289e-05
2.7457e-06
-3.76758e-06
1.90577e-05
1.82343e-06
-2.35226e-06
1.91929e-05
7.02149e-07
-8.37331e-07
1.91956e-05
-5.06241e-07
5.03531e-07
1.89742e-05
-1.21558e-06
1.437e-06
1.83577e-05
-1.87979e-06
2.49632e-06
1.78528e-05
-2.67472e-06
3.17956e-06
1.74938e-05
-2.87176e-06
3.23085e-06
1.69975e-05
-3.10451e-06
3.60079e-06
1.67726e-05
-3.40962e-06
3.63447e-06
1.6924e-05
-3.57761e-06
3.42623e-06
1.70011e-05
-3.43984e-06
3.36274e-06
1.72657e-05
-3.74121e-06
3.47659e-06
1.80271e-05
-4.19126e-06
3.42985e-06
1.86697e-05
-3.73926e-06
3.09665e-06
1.92142e-05
-3.93475e-06
3.39028e-06
2.01102e-05
-4.30783e-06
3.41189e-06
2.11046e-05
-4.31177e-06
3.31733e-06
2.19856e-05
-4.24263e-06
3.36167e-06
2.28423e-05
-4.27282e-06
3.4161e-06
2.37769e-05
-4.39996e-06
3.46532e-06
2.47449e-05
-4.48401e-06
3.516e-06
2.56004e-05
-4.48273e-06
3.62725e-06
2.65491e-05
-4.32159e-06
3.3729e-06
2.75524e-05
-3.99619e-06
2.99285e-06
2.85073e-05
-4.08524e-06
3.13041e-06
2.94644e-05
-4.27709e-06
3.31996e-06
3.0402e-05
-4.06662e-06
3.12899e-06
3.11941e-05
-3.7774e-06
2.98534e-06
3.20391e-05
-3.74958e-06
2.90456e-06
3.29784e-05
-4.00162e-06
3.06233e-06
3.36251e-05
-4.1568e-06
3.51008e-06
3.39416e-05
-4.05796e-06
3.74145e-06
3.42846e-05
-4.0709e-06
3.72787e-06
3.45801e-05
-3.91809e-06
3.62263e-06
3.47823e-05
-4.1829e-06
3.98066e-06
3.48237e-05
-4.45791e-06
4.41656e-06
3.45384e-05
-4.28353e-06
4.56886e-06
3.41266e-05
-4.5269e-06
4.93868e-06
3.37057e-05
-4.31773e-06
4.73865e-06
3.32413e-05
-4.16454e-06
4.6289e-06
3.29097e-05
-4.57233e-06
4.90392e-06
3.24086e-05
-4.22608e-06
4.72719e-06
3.16864e-05
-4.23999e-06
4.96215e-06
3.09801e-05
-4.78462e-06
5.49096e-06
3.02111e-05
-4.47589e-06
5.24483e-06
2.94722e-05
-4.74988e-06
5.48883e-06
2.88537e-05
-5.2072e-06
5.82566e-06
2.80957e-05
-4.69207e-06
5.45006e-06
2.7272e-05
-5.21035e-06
6.03411e-06
2.66286e-05
-6.02487e-06
6.66825e-06
2.60581e-05
-5.76257e-06
6.33305e-06
2.55512e-05
-6.19954e-06
6.70644e-06
2.52218e-05
-6.73172e-06
7.06115e-06
2.49423e-05
-6.30034e-06
6.57982e-06
2.45063e-05
-6.33891e-06
6.7749e-06
2.40035e-05
-6.98379e-06
7.48666e-06
2.33451e-05
-6.79024e-06
7.44862e-06
2.27383e-05
-6.5241e-06
7.1309e-06
2.21785e-05
-6.91285e-06
7.47268e-06
2.15855e-05
-6.96329e-06
7.55624e-06
2.09294e-05
-6.09543e-06
6.75153e-06
2.04799e-05
-5.57357e-06
6.02312e-06
2.03214e-05
-5.7476e-06
5.90608e-06
2.05032e-05
-4.9833e-06
4.8015e-06
2.05877e-05
-4.05055e-06
3.96606e-06
2.03544e-05
-4.3596e-06
4.59291e-06
1.99446e-05
-4.69805e-06
5.10781e-06
1.94893e-05
-3.39785e-06
3.85313e-06
1.90079e-05
-2.01073e-06
2.4921e-06
1.84825e-05
-2.74374e-06
3.26917e-06
1.81297e-05
-5.06687e-06
5.41967e-06
1.77947e-05
-5.83507e-06
6.17005e-06
1.7477e-05
-3.69584e-06
4.01359e-06
1.71546e-05
-7.24842e-07
1.04718e-06
1.74615e-05
-7.58244e-07
4.51389e-07
1.85399e-05
-5.61492e-06
4.53652e-06
1.98373e-05
-1.31624e-05
1.1865e-05
2.09167e-05
-2.0219e-05
1.91397e-05
2.15512e-05
-2.51168e-05
2.44823e-05
2.18545e-05
-2.82499e-05
2.79466e-05
2.17441e-05
-2.96589e-05
2.97693e-05
2.11954e-05
-2.88972e-05
2.94459e-05
2.03065e-05
-2.63343e-05
2.72233e-05
1.91824e-05
-2.29042e-05
2.40283e-05
1.82346e-05
-1.94577e-05
2.04055e-05
1.7843e-05
-1.57086e-05
1.61002e-05
1.77249e-05
-1.14375e-05
1.15556e-05
1.7445e-05
-7.11838e-06
7.39826e-06
1.68746e-05
-1.88788e-06
2.45834e-06
1.65828e-05
3.49038e-06
-3.19857e-06
1.65718e-05
7.21968e-06
-7.20868e-06
1.6868e-05
1.02566e-05
-1.05529e-05
1.7235e-05
1.44441e-05
-1.4811e-05
1.76211e-05
1.8672e-05
-1.90581e-05
1.80358e-05
2.23286e-05
-2.27432e-05
1.82195e-05
2.60479e-05
-2.62317e-05
1.83501e-05
3.02515e-05
-3.03821e-05
1.84972e-05
3.45302e-05
-3.46772e-05
1.83029e-05
3.72431e-05
-3.70489e-05
1.78126e-05
3.70755e-05
-3.65852e-05
1.69292e-05
3.45558e-05
-3.36723e-05
1.55704e-05
3.06099e-05
-2.92511e-05
1.43857e-05
2.65146e-05
-2.53299e-05
1.38028e-05
2.35822e-05
-2.29994e-05
1.34175e-05
2.15644e-05
-2.11791e-05
1.34673e-05
1.83891e-05
-1.84389e-05
1.33661e-05
1.53365e-05
-1.52353e-05
1.30626e-05
1.24056e-05
-1.21021e-05
1.26998e-05
1.13537e-05
-1.09909e-05
1.21061e-05
1.10464e-05
-1.04526e-05
1.17808e-05
1.13024e-05
-1.0977e-05
1.15404e-05
1.08496e-05
-1.06092e-05
1.15892e-05
1.01298e-05
-1.01786e-05
1.17681e-05
8.80405e-06
-8.9829e-06
1.23456e-05
7.19199e-06
-7.7695e-06
1.29519e-05
5.39408e-06
-6.00044e-06
1.38567e-05
4.16871e-06
-5.07349e-06
1.43464e-05
2.36434e-06
-2.85403e-06
1.52037e-05
-2.33932e-07
-6.23385e-07
1.61584e-05
-2.19424e-06
1.23951e-06
1.70456e-05
-4.34735e-06
3.46023e-06
1.80656e-05
-6.09599e-06
5.07594e-06
1.91109e-05
-8.13896e-06
7.09365e-06
2.00062e-05
-8.84112e-06
7.94589e-06
2.10167e-05
-9.75962e-06
8.74909e-06
2.19309e-05
-1.00476e-05
9.13337e-06
2.25568e-05
-9.49799e-06
8.87206e-06
2.28386e-05
-9.10778e-06
8.82606e-06
2.32739e-05
-8.58937e-06
8.15398e-06
2.34438e-05
-7.75975e-06
7.58993e-06
2.38011e-05
-6.89971e-06
6.54234e-06
2.39012e-05
-6.37866e-06
6.27863e-06
2.36379e-05
-4.93664e-06
5.1999e-06
2.3463e-05
-4.34553e-06
4.52049e-06
2.32219e-05
-3.90745e-06
4.14851e-06
2.30801e-05
-3.28054e-06
3.42233e-06
2.29443e-05
-2.4529e-06
2.58872e-06
2.28339e-05
-3.15657e-06
3.26691e-06
2.23362e-05
-2.40546e-06
2.9032e-06
2.18641e-05
-2.40562e-06
2.87767e-06
2.13827e-05
-2.43209e-06
2.91351e-06
2.12065e-05
-3.08456e-06
3.26075e-06
2.10626e-05
-2.65775e-06
2.80166e-06
2.10835e-05
-3.24307e-06
3.22219e-06
2.11856e-05
-3.26051e-06
3.15846e-06
2.11526e-05
-2.7577e-06
2.79068e-06
2.102e-05
-1.8891e-06
2.02163e-06
2.06093e-05
-1.03518e-06
1.44595e-06
1.97965e-05
-7.3324e-07
1.54601e-06
1.87123e-05
-1.21523e-06
2.29944e-06
1.77909e-05
-2.26603e-06
3.18741e-06
1.71712e-05
-2.50395e-06
3.12367e-06
1.65297e-05
-1.2302e-06
1.87169e-06
1.5976e-05
-3.87923e-07
9.41601e-07
1.58636e-05
9.4409e-07
-8.31652e-07
1.56573e-05
2.26478e-06
-2.05849e-06
1.57593e-05
2.66085e-06
-2.76282e-06
1.56529e-05
3.11474e-06
-3.00841e-06
1.54757e-05
2.81132e-06
-2.63405e-06
1.54576e-05
1.66307e-06
-1.64501e-06
1.52608e-05
1.42119e-06
-1.22438e-06
1.51379e-05
1.33409e-06
-1.21119e-06
1.5289e-05
2.43574e-06
-2.58682e-06
1.55084e-05
4.02072e-06
-4.24016e-06
1.56123e-05
4.81532e-06
-4.91918e-06
1.60423e-05
5.28199e-06
-5.71204e-06
1.63173e-05
6.24135e-06
-6.51636e-06
1.58146e-05
7.50399e-06
-7.0013e-06
1.54804e-05
7.43131e-06
-7.09712e-06
1.43989e-05
8.51207e-06
-7.43053e-06
1.33789e-05
7.91446e-06
-6.8945e-06
1.34108e-05
8.88583e-06
-8.91774e-06
1.25084e-05
1.15362e-05
-1.06338e-05
1.40527e-05
1.23583e-05
-1.39026e-05
1.40408e-05
2.05335e-05
-2.05216e-05
1.58572e-05
2.40327e-05
-2.58491e-05
3.56145e-05
-3.59384e-05
1.61811e-05
1.28343e-05
1.46887e-07
1.30567e-05
-5.32584e-08
1.3278e-05
-4.59252e-07
1.34635e-05
-7.41067e-07
1.36178e-05
-8.98664e-07
1.3684e-05
-8.07826e-07
1.36471e-05
-7.4134e-07
1.3638e-05
-5.87836e-07
1.34926e-05
-5.1298e-07
1.32451e-05
-4.78741e-07
1.29663e-05
-4.11343e-07
1.272e-05
-2.26645e-07
1.24297e-05
1.80289e-08
1.22224e-05
4.30413e-07
1.21062e-05
8.99821e-07
1.22397e-05
1.46624e-06
1.26455e-05
2.08357e-06
1.33688e-05
2.50669e-06
1.44442e-05
2.96139e-06
1.57164e-05
3.14018e-06
1.69167e-05
2.97799e-06
1.78904e-05
2.66008e-06
1.87242e-05
1.91196e-06
1.94124e-05
1.13522e-06
1.97241e-05
3.90429e-07
1.97339e-05
-5.16044e-07
1.98453e-05
-1.32701e-06
1.98684e-05
-1.90288e-06
1.97725e-05
-2.5788e-06
1.9892e-05
-2.99128e-06
2.0148e-05
-3.36051e-06
2.03883e-05
-3.64994e-06
2.08691e-05
-4.05832e-06
2.15519e-05
-4.12268e-06
2.21001e-05
-4.28947e-06
2.27466e-05
-4.83774e-06
2.3638e-05
-4.63061e-06
2.43893e-05
-4.68611e-06
2.52222e-05
-5.14066e-06
2.60841e-05
-5.17374e-06
2.67982e-05
-4.95665e-06
2.76517e-05
-5.12639e-06
2.8503e-05
-5.25122e-06
2.92492e-05
-5.23024e-06
3.00003e-05
-5.23379e-06
3.06694e-05
-4.9907e-06
3.15167e-05
-4.84347e-06
3.23619e-05
-4.93045e-06
3.29498e-05
-4.86506e-06
3.35432e-05
-4.66001e-06
3.42109e-05
-4.44508e-06
3.48229e-05
-4.36157e-06
3.5368e-05
-4.54674e-06
3.56614e-05
-4.4502e-06
3.57331e-05
-4.12966e-06
3.58733e-05
-4.21105e-06
3.59779e-05
-4.02268e-06
3.58357e-05
-4.0407e-06
3.54126e-05
-4.0348e-06
3.4877e-05
-3.74801e-06
3.43815e-05
-4.03134e-06
3.38254e-05
-3.76161e-06
3.31376e-05
-3.47675e-06
3.24314e-05
-3.8662e-06
3.16907e-05
-3.48535e-06
3.10026e-05
-3.55186e-06
3.01934e-05
-3.97548e-06
2.92735e-05
-3.55592e-06
2.84662e-05
-3.94259e-06
2.77861e-05
-4.52714e-06
2.71779e-05
-4.08387e-06
2.66592e-05
-4.69158e-06
2.60835e-05
-5.44926e-06
2.53821e-05
-5.06113e-06
2.46774e-05
-5.49487e-06
2.41406e-05
-6.19487e-06
2.37029e-05
-5.86262e-06
2.33008e-05
-5.93682e-06
2.30209e-05
-6.7039e-06
2.28509e-05
-6.6203e-06
2.26573e-05
-6.33045e-06
2.23315e-05
-6.58706e-06
2.18913e-05
-6.52309e-06
2.13989e-05
-5.60301e-06
2.10257e-05
-5.20039e-06
2.07151e-05
-5.43702e-06
2.06036e-05
-4.87178e-06
2.03032e-05
-3.75012e-06
1.9803e-05
-3.8594e-06
1.92515e-05
-4.14658e-06
1.88073e-05
-2.95363e-06
1.84139e-05
-1.61737e-06
1.80484e-05
-2.37815e-06
1.77581e-05
-4.77663e-06
1.74744e-05
-5.55136e-06
1.70954e-05
-3.31687e-06
1.67893e-05
-4.18668e-07
1.72288e-05
-1.19776e-06
1.82217e-05
-6.60787e-06
1.92942e-05
-1.42349e-05
2.00529e-05
-2.09778e-05
2.04e-05
-2.54639e-05
2.04245e-05
-2.82745e-05
2.00313e-05
-2.92658e-05
1.91917e-05
-2.80576e-05
1.80132e-05
-2.51558e-05
1.67835e-05
-2.16744e-05
1.58521e-05
-1.85264e-05
1.54158e-05
-1.52723e-05
1.53485e-05
-1.13702e-05
1.51667e-05
-6.93651e-06
1.48098e-05
-1.53104e-06
1.46794e-05
3.62077e-06
1.47841e-05
7.11504e-06
1.50911e-05
9.94956e-06
1.5518e-05
1.40172e-05
1.58958e-05
1.82941e-05
1.6357e-05
2.18674e-05
1.66677e-05
2.57372e-05
1.68485e-05
3.00708e-05
1.72145e-05
3.41641e-05
1.73966e-05
3.7061e-05
1.71736e-05
3.72985e-05
1.67571e-05
3.49723e-05
1.60743e-05
3.12927e-05
1.51264e-05
2.74625e-05
1.47456e-05
2.3963e-05
1.46334e-05
2.16766e-05
1.46865e-05
1.8336e-05
1.47127e-05
1.53103e-05
1.43111e-05
1.28072e-05
1.39825e-05
1.16823e-05
1.35715e-05
1.14574e-05
1.34586e-05
1.14153e-05
1.34403e-05
1.08679e-05
1.343e-05
1.01401e-05
1.34254e-05
8.80857e-06
1.38722e-05
6.74518e-06
1.44234e-05
4.84291e-06
1.5248e-05
3.34413e-06
1.58248e-05
1.78754e-06
1.66714e-05
-1.08051e-06
1.76983e-05
-3.22116e-06
1.86918e-05
-5.34082e-06
1.98133e-05
-7.21755e-06
2.05163e-05
-8.84198e-06
2.12893e-05
-9.61411e-06
2.21487e-05
-1.0619e-05
2.27744e-05
-1.06732e-05
2.33768e-05
-1.01004e-05
2.35841e-05
-9.31504e-06
2.36537e-05
-8.65894e-06
2.35699e-05
-7.67601e-06
2.36907e-05
-7.02046e-06
2.3709e-05
-6.39703e-06
2.35611e-05
-4.78871e-06
2.34021e-05
-4.18648e-06
2.30297e-05
-3.53513e-06
2.26818e-05
-2.93258e-06
2.25004e-05
-2.27156e-06
2.22506e-05
-2.90676e-06
2.19539e-05
-2.10869e-06
2.17101e-05
-2.16185e-06
2.13895e-05
-2.11148e-06
2.12207e-05
-2.91578e-06
2.10322e-05
-2.46922e-06
2.08558e-05
-3.06667e-06
2.0524e-05
-2.92874e-06
2.02262e-05
-2.45984e-06
2.02732e-05
-1.9361e-06
2.0038e-05
-8.00027e-07
1.96064e-05
-3.01683e-07
1.88884e-05
-4.97156e-07
1.80862e-05
-1.46389e-06
1.71595e-05
-1.57726e-06
1.6124e-05
-1.94655e-07
1.58426e-05
-1.06558e-07
1.55097e-05
1.27705e-06
1.57542e-05
2.02026e-06
1.51524e-05
3.26267e-06
1.57106e-05
2.55648e-06
1.53056e-05
3.21641e-06
1.5636e-05
1.33262e-06
1.56679e-05
1.3893e-06
1.57091e-05
1.29286e-06
1.55725e-05
2.57239e-06
1.58873e-05
3.70591e-06
1.60922e-05
4.61037e-06
1.62589e-05
5.11529e-06
1.69314e-05
5.56888e-06
1.72491e-05
7.18632e-06
1.65864e-05
8.09401e-06
1.70927e-05
8.0057e-06
1.49808e-05
1.00264e-05
1.60149e-05
7.85176e-06
1.46166e-05
1.29345e-05
1.63495e-05
1.06254e-05
1.69031e-05
1.99799e-05
2.4008e-05
1.69278e-05
3.62462e-05
2.33763e-05
1.92506e-05
9.28848e-08
1.94818e-05
-2.84458e-07
1.97235e-05
-7.00989e-07
1.98935e-05
-9.1099e-07
2.00382e-05
-1.04339e-06
2.00709e-05
-8.40571e-07
2.00353e-05
-7.05752e-07
1.99822e-05
-5.3469e-07
1.97891e-05
-3.19897e-07
1.96036e-05
-2.93235e-07
1.93479e-05
-1.55656e-07
1.90854e-05
3.58502e-08
1.89238e-05
1.79695e-07
1.87457e-05
6.08471e-07
1.86845e-05
9.61052e-07
1.87409e-05
1.40984e-06
1.88465e-05
1.97793e-06
1.91902e-05
2.16297e-06
1.96509e-05
2.50074e-06
2.0206e-05
2.5851e-06
2.09157e-05
2.26827e-06
2.15981e-05
1.97769e-06
2.21089e-05
1.40116e-06
2.2591e-05
6.53048e-07
2.30331e-05
-5.1582e-08
2.33703e-05
-8.53296e-07
2.36239e-05
-1.58062e-06
2.39353e-05
-2.21428e-06
2.42738e-05
-2.91728e-06
2.45926e-05
-3.31013e-06
2.50091e-05
-3.77693e-06
2.55524e-05
-4.1933e-06
2.59875e-05
-4.49336e-06
2.65567e-05
-4.69195e-06
2.72388e-05
-4.9715e-06
2.76848e-05
-5.28375e-06
2.83591e-05
-5.30498e-06
2.9016e-05
-5.34299e-06
2.95767e-05
-5.7013e-06
3.01717e-05
-5.7688e-06
3.06929e-05
-5.47784e-06
3.13448e-05
-5.77829e-06
3.19351e-05
-5.84153e-06
3.23506e-05
-5.64574e-06
3.29099e-05
-5.79305e-06
3.34328e-05
-5.51357e-06
3.39737e-05
-5.38438e-06
3.45332e-05
-5.48995e-06
3.48654e-05
-5.19728e-06
3.51751e-05
-4.96974e-06
3.57104e-05
-4.98032e-06
3.60353e-05
-4.6865e-06
3.61681e-05
-4.67958e-06
3.62512e-05
-4.53324e-06
3.6283e-05
-4.16145e-06
3.62224e-05
-4.1505e-06
3.59814e-05
-3.78163e-06
3.55926e-05
-3.65197e-06
3.50913e-05
-3.53343e-06
3.44624e-05
-3.11918e-06
3.37407e-05
-3.30962e-06
3.30339e-05
-3.05478e-06
3.24051e-05
-2.84794e-06
3.15958e-05
-3.05697e-06
3.07257e-05
-2.61523e-06
2.99585e-05
-2.78461e-06
2.91674e-05
-3.18438e-06
2.8494e-05
-2.88253e-06
2.78321e-05
-3.28069e-06
2.69411e-05
-3.6362e-06
2.62005e-05
-3.34322e-06
2.56326e-05
-4.12371e-06
2.50486e-05
-4.86528e-06
2.45518e-05
-4.56431e-06
2.41275e-05
-5.07054e-06
2.37582e-05
-5.82563e-06
2.33575e-05
-5.46186e-06
2.30052e-05
-5.58451e-06
2.28138e-05
-6.51258e-06
2.27356e-05
-6.54206e-06
2.25359e-05
-6.13078e-06
2.22266e-05
-6.27776e-06
2.19903e-05
-6.28673e-06
2.1876e-05
-5.48876e-06
2.16598e-05
-4.98415e-06
2.13853e-05
-5.16252e-06
2.11e-05
-4.58647e-06
2.06028e-05
-3.25301e-06
1.99029e-05
-3.15948e-06
1.91659e-05
-3.40955e-06
1.86321e-05
-2.41979e-06
1.82798e-05
-1.26513e-06
1.80061e-05
-2.10447e-06
1.76649e-05
-4.43541e-06
1.72629e-05
-5.14937e-06
1.6714e-05
-2.76791e-06
1.64561e-05
-1.60792e-07
1.68375e-05
-1.57922e-06
1.77011e-05
-7.47139e-06
1.8547e-05
-1.50808e-05
1.89786e-05
-2.14094e-05
1.91245e-05
-2.56097e-05
1.88705e-05
-2.80205e-05
1.82082e-05
-2.86034e-05
1.72376e-05
-2.7087e-05
1.58873e-05
-2.38055e-05
1.45935e-05
-2.03807e-05
1.3772e-05
-1.77049e-05
1.33966e-05
-1.48969e-05
1.33701e-05
-1.13437e-05
1.32191e-05
-6.78557e-06
1.31274e-05
-1.43932e-06
1.32033e-05
3.54486e-06
1.3526e-05
6.79235e-06
1.36759e-05
9.79965e-06
1.39474e-05
1.37457e-05
1.4246e-05
1.79956e-05
1.46456e-05
2.14678e-05
1.51553e-05
2.52275e-05
1.54539e-05
2.97722e-05
1.58354e-05
3.37826e-05
1.63842e-05
3.65123e-05
1.6528e-05
3.71546e-05
1.63584e-05
3.5142e-05
1.62458e-05
3.14053e-05
1.58011e-05
2.79072e-05
1.55499e-05
2.42142e-05
1.56097e-05
2.16168e-05
1.56394e-05
1.83063e-05
1.56848e-05
1.5265e-05
1.5267e-05
1.32249e-05
1.49295e-05
1.20198e-05
1.46553e-05
1.17316e-05
1.47072e-05
1.13634e-05
1.50142e-05
1.05609e-05
1.53229e-05
9.83145e-06
1.54762e-05
8.65523e-06
1.58613e-05
6.36011e-06
1.63096e-05
4.39455e-06
1.6847e-05
2.80678e-06
1.74376e-05
1.1969e-06
1.82668e-05
-1.90974e-06
1.91128e-05
-4.06709e-06
2.00761e-05
-6.30419e-06
2.11827e-05
-8.32406e-06
2.18563e-05
-9.51564e-06
2.26489e-05
-1.04067e-05
2.33321e-05
-1.13022e-05
2.35972e-05
-1.09383e-05
2.38225e-05
-1.03258e-05
2.39362e-05
-9.42872e-06
2.3732e-05
-8.45478e-06
2.35777e-05
-7.52168e-06
2.35955e-05
-7.03824e-06
2.33841e-05
-6.1857e-06
2.31786e-05
-4.58319e-06
2.30544e-05
-4.06224e-06
2.26837e-05
-3.1644e-06
2.25726e-05
-2.82153e-06
2.23917e-05
-2.09065e-06
2.20385e-05
-2.55362e-06
2.14976e-05
-1.56775e-06
2.11158e-05
-1.78004e-06
2.0765e-05
-1.76071e-06
2.06355e-05
-2.78625e-06
2.02764e-05
-2.11012e-06
1.99962e-05
-2.78647e-06
1.95765e-05
-2.50899e-06
1.96298e-05
-2.51315e-06
1.95886e-05
-1.89492e-06
1.97072e-05
-9.18621e-07
1.92848e-05
1.20658e-07
1.91562e-05
-3.68509e-07
1.81298e-05
-4.37525e-07
1.75339e-05
-9.81309e-07
1.62322e-05
1.10706e-06
1.61597e-05
-3.40915e-08
1.55366e-05
1.90016e-06
1.58795e-05
1.67731e-06
1.55259e-05
3.61631e-06
1.60756e-05
2.00676e-06
1.62681e-05
3.02393e-06
1.63208e-05
1.27991e-06
1.63154e-05
1.39467e-06
1.63147e-05
1.29354e-06
1.54627e-05
3.42441e-06
1.64101e-05
2.75852e-06
1.57086e-05
5.3119e-06
1.74442e-05
3.37963e-06
1.69441e-05
6.06901e-06
1.92459e-05
4.88451e-06
1.73887e-05
9.95119e-06
1.913e-05
6.26447e-06
1.7125e-05
1.20314e-05
1.83737e-05
6.60302e-06
1.71996e-05
1.41086e-05
2.08398e-05
6.98512e-06
1.94067e-05
2.14131e-05
2.77731e-05
8.56137e-06
3.40039e-05
3.00155e-05
2.45201e-05
-1.44981e-07
2.50772e-05
-8.41546e-07
2.54729e-05
-1.09677e-06
2.56166e-05
-1.05461e-06
2.56228e-05
-1.04963e-06
2.55506e-05
-7.68359e-07
2.54143e-05
-5.69414e-07
2.53221e-05
-4.42545e-07
2.51439e-05
-1.4166e-07
2.49564e-05
-1.05737e-07
2.48292e-05
-2.84265e-08
2.45734e-05
2.91618e-07
2.44926e-05
2.60467e-07
2.44221e-05
6.78973e-07
2.43701e-05
1.01311e-06
2.4551e-05
1.22888e-06
2.46922e-05
1.83676e-06
2.49243e-05
1.93088e-06
2.53125e-05
2.11254e-06
2.57356e-05
2.162e-06
2.61319e-05
1.87193e-06
2.66125e-05
1.49708e-06
2.70667e-05
9.4704e-07
2.73948e-05
3.24863e-07
2.77882e-05
-4.44976e-07
2.81343e-05
-1.19941e-06
2.8444e-05
-1.89032e-06
2.87528e-05
-2.52304e-06
2.90849e-05
-3.24941e-06
2.93761e-05
-3.60133e-06
2.96952e-05
-4.09603e-06
3.01371e-05
-4.63517e-06
3.04062e-05
-4.7625e-06
3.07553e-05
-5.04097e-06
3.12713e-05
-5.48758e-06
3.14647e-05
-5.47713e-06
3.17738e-05
-5.61403e-06
3.22684e-05
-5.83764e-06
3.25274e-05
-5.96029e-06
3.26691e-05
-5.91051e-06
3.30601e-05
-5.86881e-06
3.34643e-05
-6.18249e-06
3.36076e-05
-5.98479e-06
3.38066e-05
-5.84479e-06
3.42277e-05
-6.21419e-06
3.45485e-05
-5.83437e-06
3.46842e-05
-5.52003e-06
3.49917e-05
-5.79745e-06
3.5271e-05
-5.47664e-06
3.54315e-05
-5.13016e-06
3.56995e-05
-5.2484e-06
3.58775e-05
-4.86444e-06
3.59311e-05
-4.73318e-06
3.59003e-05
-4.50249e-06
3.5817e-05
-4.07814e-06
3.5642e-05
-3.9755e-06
3.53475e-05
-3.48705e-06
3.48969e-05
-3.20146e-06
3.43704e-05
-3.00692e-06
3.38485e-05
-2.59723e-06
3.31905e-05
-2.65164e-06
3.24941e-05
-2.35833e-06
3.17206e-05
-2.07443e-06
3.08607e-05
-2.19708e-06
3.0184e-05
-1.9386e-06
2.95197e-05
-2.12026e-06
2.86936e-05
-2.35826e-06
2.79334e-05
-2.12234e-06
2.71574e-05
-2.50472e-06
2.63295e-05
-2.80827e-06
2.58604e-05
-2.87417e-06
2.53979e-05
-3.66113e-06
2.47905e-05
-4.25794e-06
2.43533e-05
-4.12709e-06
2.39681e-05
-4.68531e-06
2.35643e-05
-5.4218e-06
2.33525e-05
-5.25007e-06
2.3293e-05
-5.52502e-06
2.32711e-05
-6.49068e-06
2.31844e-05
-6.45536e-06
2.29772e-05
-5.92366e-06
2.27345e-05
-6.03501e-06
2.26106e-05
-6.16284e-06
2.25902e-05
-5.46833e-06
2.24294e-05
-4.82337e-06
2.21136e-05
-4.84675e-06
2.16293e-05
-4.10211e-06
2.10357e-05
-2.65944e-06
2.02708e-05
-2.39456e-06
1.94772e-05
-2.61592e-06
1.88629e-05
-1.80552e-06
1.84372e-05
-8.39409e-07
1.80381e-05
-1.70541e-06
1.75762e-05
-3.97352e-06
1.69464e-05
-4.51958e-06
1.6214e-05
-2.03546e-06
1.59149e-05
1.3825e-07
1.62434e-05
-1.90773e-06
1.69958e-05
-8.22379e-06
1.76013e-05
-1.56863e-05
1.77869e-05
-2.15949e-05
1.76263e-05
-2.54492e-05
1.71044e-05
-2.74985e-05