/*--------------------------------*- C++ -*----------------------------------*\
| =========                 |                                                 |
| \\      /  F ield         | OpenFOAM: The Open Source CFD Toolbox           |
|  \\    /   O peration     | Version:  2.4.0                                 |
|   \\  /    A nd           | Web:      www.OpenFOAM.org                      |
|    \\/     M anipulation  |                                                 |
\*---------------------------------------------------------------------------*/
FoamFile
{
    version     2.0;
    format      ascii;
    class       volScalarField;
    location    "1.42";
    object      p;
}
// * * * * * * * * * * * * * * * * * * * * * * * * * * * * * * * * * * * * * //

dimensions      [0 2 -2 0 0 0 0];

internalField   nonuniform List<scalar> 
4400
(
-19.7096
-19.8079
-20.3407
-20.1382
-20.1027
-20.4754
-20.3394
-20.5649
-20.689
-20.6105
-20.8351
-21.0412
-21.3298
-20.6698
-22.5455
-20.9962
-20.6814
-20.5639
-19.391
-13.7939
-19.7756
-19.8073
-20.3284
-20.1586
-20.1054
-20.4888
-20.3517
-20.5755
-20.6868
-20.6092
-20.9124
-21.0958
-21.3519
-20.7899
-22.5222
-21.0153
-20.7222
-20.705
-19.4155
-15.4039
-19.8124
-19.8129
-20.2966
-20.1364
-20.1081
-20.5194
-20.3781
-20.5842
-20.6925
-20.6068
-21.0118
-21.1152
-21.504
-20.8965
-22.3764
-21.1256
-20.8536
-21.0403
-20.0147
-16.8133
-19.8477
-19.8171
-20.2976
-20.1919
-20.1321
-20.6412
-20.4211
-20.5755
-20.7252
-20.6255
-21.0814
-21.1193
-21.566
-20.9164
-22.0771
-21.2968
-21.0617
-21.3426
-20.3537
-18.2158
-19.8711
-19.8376
-20.3029
-20.1836
-20.1968
-20.7792
-20.4757
-20.5881
-20.807
-20.6783
-21.1188
-21.0399
-21.614
-20.9764
-21.8445
-21.54
-21.3306
-21.527
-20.7279
-19.5018
-19.8981
-19.8477
-20.3066
-20.2102
-20.2352
-20.8495
-20.4946
-20.6131
-20.8747
-20.7125
-21.1212
-21.0088
-21.5453
-21.0603
-21.941
-21.7045
-21.5353
-21.8984
-21.0646
-20.6172
-19.9134
-19.8542
-20.3089
-20.2389
-20.2233
-20.8401
-20.4869
-20.6324
-20.9061
-20.6873
-21.1394
-21.0063
-21.4561
-21.1836
-21.9167
-21.7861
-21.7483
-22.2965
-21.4253
-21.5965
-19.921
-19.8471
-20.3091
-20.2825
-20.1726
-20.773
-20.4908
-20.6357
-20.8929
-20.6559
-21.1482
-21.0213
-21.3837
-21.2658
-21.8678
-21.7906
-21.8933
-22.6381
-21.7305
-22.4125
-19.9142
-19.8402
-20.3206
-20.3063
-20.0927
-20.7058
-20.4869
-20.6088
-20.871
-20.6175
-21.1422
-21.0226
-21.3243
-21.2877
-21.7588
-21.7635
-21.9059
-22.8261
-21.9652
-23.0261
-19.9038
-19.8363
-20.3243
-20.3236
-20.0246
-20.6539
-20.4926
-20.5806
-20.8606
-20.6026
-21.1291
-21.0334
-21.2664
-21.269
-21.6531
-21.7463
-21.7958
-22.8892
-22.16
-23.4252
-19.8881
-19.8282
-20.3347
-20.3369
-19.9627
-20.6221
-20.492
-20.5445
-20.8627
-20.5947
-21.1101
-21.0478
-21.2137
-21.2605
-21.5652
-21.742
-21.673
-22.8714
-22.3537
-23.7005
-19.8763
-19.8202
-20.3358
-20.3496
-19.9171
-20.5998
-20.4979
-20.5162
-20.873
-20.5868
-21.1063
-21.0733
-21.1569
-21.2815
-21.5114
-21.7323
-21.5992
-22.8436
-22.5759
-23.8955
-19.8654
-19.8082
-20.3392
-20.3629
-19.8763
-20.5824
-20.508
-20.4841
-20.8808
-20.5836
-21.0957
-21.1095
-21.1103
-21.3172
-21.4815
-21.7121
-21.5909
-22.8171
-22.7953
-24.0561
-19.8522
-19.7975
-20.3389
-20.3727
-19.8417
-20.5671
-20.5109
-20.4651
-20.8917
-20.5729
-21.1002
-21.1294
-21.0549
-21.368
-21.4657
-21.6672
-21.6354
-22.8199
-22.9759
-24.177
-19.8381
-19.7844
-20.3414
-20.3862
-19.8131
-20.5518
-20.52
-20.4357
-20.9039
-20.5685
-21.0949
-21.1853
-21.0105
-21.414
-21.4643
-21.6338
-21.7221
-22.8326
-23.2035
-24.3025
-19.8213
-19.7729
-20.332
-20.395
-19.7898
-20.5366
-20.5229
-20.4254
-20.9093
-20.5596
-21.0953
-21.1934
-20.9677
-21.4671
-21.4614
-21.6097
-21.82
-22.8306
-23.3363
-24.4071
-19.8013
-19.7621
-20.3341
-20.4055
-19.7722
-20.5251
-20.5286
-20.4091
-20.9241
-20.55
-21.0865
-21.2452
-20.9238
-21.5047
-21.4915
-21.5723
-21.888
-22.8276
-23.4604
-24.4575
-19.778
-19.7533
-20.3331
-20.4121
-19.7606
-20.5142
-20.5313
-20.4021
-20.9312
-20.549
-21.0894
-21.2556
-20.9488
-21.5528
-21.4813
-21.5354
-21.9532
-22.8116
-23.571
-24.5142
-19.7518
-19.7498
-20.3359
-20.4202
-19.7529
-20.5098
-20.5311
-20.3913
-20.9495
-20.5305
-21.0878
-21.2819
-20.8207
-21.5783
-21.4797
-21.4672
-22.0218
-22.8333
-23.6383
-24.5447
-19.7036
-19.742
-20.3334
-20.4214
-19.7522
-20.5019
-20.533
-20.3883
-20.9415
-20.5481
-21.0912
-21.2807
-20.878
-21.5806
-21.4603
-21.452
-22.0523
-22.8284
-23.6648
-24.5751
-20.6155
-31.7222
-38.0748
-46.3595
-52.2963
-57.3147
-62.1594
-60.9162
-49.4566
-36.2288
-26.7761
-19.9439
-13.342
-7.70908
-3.93238
-1.61381
-0.208308
0.577145
1.01812
1.28241
1.43383
1.5084
1.54289
1.57011
1.60461
1.63851
1.66699
1.68594
1.69418
1.69206
1.68204
1.66729
1.65013
1.63177
1.6128
1.59348
1.57394
1.55421
1.53434
1.51431
1.49414
1.47384
1.45338
1.43279
1.41205
1.39116
1.37013
1.34896
1.32763
1.30616
1.28453
1.26275
1.24082
1.21874
1.1965
1.1741
1.15155
1.12884
1.10597
1.08293
1.05974
1.03638
1.01286
0.989168
0.965311
0.941286
0.917092
0.892726
0.868188
0.843477
0.818591
0.79353
0.768291
0.742875
0.717278
0.691501
0.665541
0.639399
0.613071
0.586559
0.559859
0.532972
0.505895
0.478627
0.45117
0.423513
0.395669
0.367621
0.339381
0.310942
0.282296
0.253461
0.22441
0.195164
0.165713
0.136045
0.106181
0.0761
0.0458045
0.0153041
-21.7741
-32.583
-37.853
-45.3742
-51.0081
-55.5761
-60.3028
-59.0382
-48.1451
-35.9307
-27.233
-20.638
-13.946
-8.19598
-4.30634
-1.87796
-0.376878
0.469275
0.942177
1.22916
1.40249
1.49259
1.53713
1.56879
1.59873
1.63537
1.6653
1.68513
1.69407
1.69233
1.68241
1.66761
1.65037
1.63195
1.61292
1.59356
1.57399
1.55425
1.53436
1.51433
1.49415
1.47384
1.45339
1.43279
1.41205
1.39117
1.37013
1.34896
1.32763
1.30616
1.28453
1.26275
1.24082
1.21874
1.1965
1.1741
1.15155
1.12884
1.10597
1.08293
1.05974
1.03638
1.01286
0.989168
0.965311
0.941287
0.917091
0.892726
0.868188
0.843477
0.818591
0.79353
0.768292
0.742874
0.717278
0.691501
0.665541
0.639399
0.613071
0.586559
0.559859
0.532972
0.505895
0.478627
0.45117
0.423513
0.39567
0.367621
0.339382
0.310941
0.282297
0.25346
0.224411
0.195163
0.165714
0.136043
0.106182
0.076099
0.0458052
0.0153039
-22.6112
-32.6507
-37.5122
-44.449
-49.7996
-53.9986
-58.4933
-57.1212
-46.7168
-35.5081
-27.5978
-21.3863
-14.6458
-8.71207
-4.66546
-2.13926
-0.548093
0.365734
0.875582
1.18447
1.37408
1.47603
1.52773
1.56591
1.60926
1.64461
1.67101
1.6883
1.69609
1.69376
1.68339
1.66825
1.65078
1.63221
1.61308
1.59367
1.57405
1.55429
1.53438
1.51434
1.49416
1.47385
1.45339
1.43279
1.41205
1.39117
1.37014
1.34896
1.32763
1.30616
1.28453
1.26275
1.24082
1.21874
1.1965
1.1741
1.15155
1.12884
1.10597
1.08293
1.05974
1.03638
1.01286
0.989168
0.965311
0.941286
0.917091
0.892726
0.868188
0.843477
0.818591
0.79353
0.768291
0.742874
0.717278
0.691501
0.665541
0.639399
0.613071
0.586559
0.559859
0.532972
0.505895
0.478627
0.45117
0.423513
0.395669
0.367621
0.339382
0.310941
0.282297
0.25346
0.224411
0.195163
0.165714
0.136043
0.106182
0.0760991
0.0458051
0.0153039
-23.2815
-32.7224
-37.3518
-43.5064
-47.9047
-52.4159
-56.5837
-54.9617
-45.1956
-35.2251
-27.9969
-22.0847
-15.2742
-9.19017
-5.01725
-2.38357
-0.703598
0.270554
0.811067
1.13967
1.34708
1.46306
1.52417
1.56554
1.59508
1.6333
1.66394
1.68474
1.69476
1.6935
1.68352
1.66846
1.65097
1.63236
1.6132
1.59374
1.57411
1.55433
1.53441
1.51436
1.49417
1.47385
1.45339
1.4328
1.41205
1.39117
1.37014
1.34896
1.32763
1.30616
1.28453
1.26275
1.24082
1.21874
1.1965
1.1741
1.15155
1.12884
1.10597
1.08293
1.05974
1.03638
1.01286
0.989168
0.965311
0.941286
0.917091
0.892726
0.868188
0.843477
0.818591
0.793529
0.768291
0.742874
0.717278
0.691501
0.665541
0.639399
0.613071
0.586559
0.559859
0.532972
0.505895
0.478627
0.45117
0.423513
0.395669
0.367621
0.339382
0.310941
0.282297
0.25346
0.224411
0.195163
0.165714
0.136043
0.106182
0.0760991
0.0458051
0.0153039
-23.9685
-32.2837
-36.9822
-42.4216
-46.4649
-50.8069
-54.3248
-52.4537
-43.6398
-34.9716
-28.6212
-22.9077
-15.9496
-9.62698
-5.34863
-2.62777
-0.859268
0.191446
0.769873
1.11178
1.3262
1.45024
1.51772
1.56353
1.61574
1.65213
1.67669
1.69205
1.69907
1.69613
1.6851
1.66937
1.6515
1.63267
1.61338
1.59385
1.57417
1.55437
1.53443
1.51437
1.49418
1.47386
1.4534
1.4328
1.41205
1.39117
1.37014
1.34896
1.32763
1.30616
1.28453
1.26275
1.24082
1.21874
1.1965
1.1741
1.15155
1.12884
1.10597
1.08293
1.05974
1.03638
1.01286
0.989168
0.965311
0.941286
0.917091
0.892726
0.868188
0.843477
0.818591
0.793529
0.768291
0.742874
0.717278
0.691501
0.665541
0.639399
0.613071
0.586559
0.559859
0.532972
0.505895
0.478627
0.451169
0.423513
0.395669
0.367621
0.339382
0.310941
0.282297
0.25346
0.224411
0.195163
0.165714
0.136044
0.106182
0.0760992
0.045805
0.0153039
-24.5128
-31.8427
-36.6225
-41.5231
-45.1744
-48.9594
-51.801
-49.8496
-42.0983
-34.7046
-29.3701
-23.8831
-16.6523
-10.056
-5.65408
-2.85454
-1.00245
0.085222
0.696842
1.06961
1.305
1.44051
1.51569
1.56576
1.5925
1.63282
1.66331
1.68518
1.69644
1.69546
1.6851
1.66954
1.65168
1.63282
1.61349
1.59393
1.57423
1.5544
1.53446
1.51439
1.49419
1.47387
1.4534
1.4328
1.41206
1.39117
1.37014
1.34896
1.32763
1.30616
1.28453
1.26275
1.24082
1.21874
1.1965
1.1741
1.15155
1.12884
1.10597
1.08293
1.05974
1.03638
1.01286
0.989168
0.965311
0.941286
0.917091
0.892726
0.868188
0.843477
0.818591
0.793529
0.768291
0.742874
0.717277
0.691501
0.665541
0.639399
0.613071
0.586559
0.559859
0.532972
0.505895
0.478627
0.451169
0.423513
0.395669
0.367621
0.339382
0.310941
0.282297
0.25346
0.224411
0.195163
0.165714
0.136044
0.106181
0.0760992
0.045805
0.0153039
-24.9297
-31.5073
-36.3749
-40.769
-43.9464
-47.0191
-49.2229
-47.3937
-40.6796
-34.5451
-30.0825
-24.9555
-17.3793
-10.4714
-5.91463
-3.03661
-1.12107
0.0379685
0.681517
1.05155
1.29014
1.43265
1.51368
1.56866
1.62016
1.66038
1.68312
1.69635
1.70258
1.69893
1.68702
1.67057
1.65224
1.63313
1.61367
1.59404
1.57429
1.55444
1.53448
1.5144
1.4942
1.47387
1.45341
1.4328
1.41206
1.39117
1.37014
1.34896
1.32763
1.30616
1.28453
1.26275
1.24082
1.21874
1.1965
1.1741
1.15155
1.12884
1.10597
1.08293
1.05974
1.03638
1.01286
0.989168
0.965311
0.941286
0.917091
0.892725
0.868188
0.843476
0.818591
0.793529
0.768291
0.742874
0.717277
0.6915
0.665541
0.639399
0.613071
0.586559
0.559859
0.532972
0.505895
0.478627
0.451169
0.423513
0.395669
0.367621
0.339381
0.310941
0.282297
0.253461
0.224411
0.195163
0.165714
0.136044
0.106181
0.0760993
0.045805
0.0153039
-25.3242
-31.3171
-36.1369
-40.067
-42.8028
-45.2703
-46.901
-45.1304
-39.3849
-34.4192
-30.9622
-26.1025
-18.1108
-10.8881
-6.1808
-3.17864
-1.20495
-0.0393928
0.617945
1.01642
1.27713
1.42779
1.51248
1.5722
1.61963
1.64358
1.66919
1.68844
1.69968
1.69843
1.68726
1.6709
1.65251
1.63333
1.6138
1.59412
1.57434
1.55447
1.5345
1.51442
1.49421
1.47388
1.45341
1.4328
1.41206
1.39117
1.37014
1.34896
1.32763
1.30616
1.28453
1.26275
1.24082
1.21874
1.1965
1.1741
1.15155
1.12884
1.10597
1.08293
1.05974
1.03638
1.01286
0.989168
0.965311
0.941286
0.917091
0.892725
0.868187
0.843476
0.818591
0.793529
0.768291
0.742874
0.717277
0.6915
0.66554
0.639398
0.613071
0.586559
0.559859
0.532972
0.505895
0.478627
0.451169
0.423513
0.395669
0.367621
0.339381
0.310941
0.282297
0.253461
0.224411
0.195163
0.165714
0.136044
0.106181
0.0760993
0.0458051
0.0153039
-25.7153
-31.12
-35.8162
-39.384
-41.7266
-43.7561
-44.9222
-43.0449
-38.1977
-34.3631
-32.0606
-27.4092
-18.8556
-11.2722
-6.4378
-3.32531
-1.2957
-0.0771146
0.619433
0.995687
1.262
1.41981
1.51044
1.57562
1.62853
1.67029
1.68569
1.69757
1.70498
1.7015
1.68888
1.67171
1.65292
1.63357
1.61395
1.59421
1.5744
1.55451
1.53452
1.51443
1.49422
1.47388
1.45341
1.43281
1.41206
1.39117
1.37014
1.34896
1.32763
1.30616
1.28453
1.26275
1.24082
1.21874
1.1965
1.1741
1.15155
1.12884
1.10597
1.08293
1.05974
1.03638
1.01286
0.989167
0.965311
0.941286
0.917091
0.892725
0.868187
0.843476
0.818591
0.793529
0.768291
0.742874
0.717277
0.6915
0.66554
0.639398
0.613071
0.586559
0.559859
0.532972
0.505895
0.478627
0.451169
0.423513
0.395669
0.367621
0.339381
0.310941
0.282297
0.253461
0.224411
0.195163
0.165714
0.136044
0.106181
0.0760994
0.0458051
0.0153039
-26.0939
-30.8927
-35.4359
-38.6916
-40.7396
-42.3619
-43.1663
-41.1755
-36.9036
-34.3901
-33.2567
-28.9238
-19.6403
-11.6676
-6.67455
-3.41228
-1.32046
-0.107116
0.553697
0.967041
1.2545
1.41968
1.5112
1.58089
1.62882
1.64695
1.67385
1.69224
1.70417
1.70243
1.69004
1.67264
1.65349
1.63389
1.61412
1.59431
1.57446
1.55454
1.53454
1.51444
1.49423
1.47389
1.45342
1.43281
1.41206
1.39117
1.37014
1.34896
1.32763
1.30616
1.28453
1.26275
1.24082
1.21874
1.1965
1.1741
1.15155
1.12884
1.10597
1.08293
1.05974
1.03638
1.01286
0.989167
0.965311
0.941286
0.917091
0.892725
0.868187
0.843476
0.818591
0.793529
0.768291
0.742874
0.717277
0.6915
0.66554
0.639398
0.613071
0.586559
0.559859
0.532972
0.505895
0.478627
0.451169
0.423513
0.395669
0.367621
0.339381
0.310941
0.282297
0.253461
0.224411
0.195163
0.165714
0.136044
0.106181
0.0760995
0.0458051
0.0153038
-26.4399
-30.671
-34.6524
-38.0197
-39.8304
-41.0974
-41.3575
-39.3522
-35.5853
-34.5198
-34.6095
-30.6154
-20.3997
-12.0365
-6.92795
-3.51902
-1.37157
-0.112712
0.568398
0.956261
1.22892
1.40338
1.50699
1.58592
1.64098
1.67309
1.68971
1.69685
1.70683
1.70399
1.69052
1.67269
1.65352
1.63398
1.61421
1.59438
1.57451
1.55458
1.53457
1.51446
1.49424
1.47389
1.45342
1.43281
1.41206
1.39117
1.37014
1.34896
1.32763
1.30616
1.28453
1.26275
1.24082
1.21874
1.1965
1.1741
1.15155
1.12884
1.10597
1.08293
1.05974
1.03638
1.01286
0.989167
0.96531
0.941286
0.917091
0.892725
0.868187
0.843476
0.81859
0.793529
0.76829
0.742874
0.717277
0.6915
0.66554
0.639398
0.613071
0.586559
0.559859
0.532972
0.505895
0.478626
0.451169
0.423513
0.395669
0.367621
0.339381
0.310941
0.282297
0.253461
0.224411
0.195163
0.165714
0.136044
0.106181
0.0760995
0.0458051
0.0153038
-26.767
-30.4997
-34.2752
-37.426
-39.0067
-39.9483
-39.5998
-37.5059
-34.2431
-34.76
-36.3917
-32.5184
-21.1757
-12.4156
-7.20077
-3.59672
-1.36935
-0.0917041
0.550639
0.949325
1.2311
1.42779
1.53377
1.59924
1.64311
1.65941
1.67219
1.69618
1.70881
1.7074
1.69348
1.67459
1.65457
1.63448
1.61443
1.59448
1.57456
1.55461
1.53458
1.51447
1.49424
1.4739
1.45342
1.43281
1.41206
1.39117
1.37014
1.34896
1.32763
1.30616
1.28453
1.26275
1.24082
1.21874
1.1965
1.1741
1.15155
1.12884
1.10597
1.08293
1.05974
1.03638
1.01286
0.989167
0.96531
0.941285
0.91709
0.892725
0.868187
0.843476
0.81859
0.793529
0.76829
0.742873
0.717277
0.6915
0.66554
0.639398
0.613071
0.586559
0.559859
0.532972
0.505895
0.478626
0.451169
0.423512
0.395669
0.367621
0.339381
0.310941
0.282297
0.253461
0.224411
0.195163
0.165714
0.136044
0.10618
0.0760996
0.0458052
0.0153038
-27.0457
-30.3656
-33.9445
-36.8959
-38.2877
-38.8164
-37.9458
-35.6887
-32.9242
-35.1293
-38.6151
-34.7403
-21.8971
-12.7327
-7.43414
-3.62567
-1.35716
-0.0546944
0.613344
0.954909
1.22254
1.41881
1.53146
1.60396
1.65535
1.68024
1.68487
1.69678
1.70857
1.70601
1.69187
1.67348
1.65397
1.63431
1.61444
1.59453
1.5746
1.55464
1.5346
1.51448
1.49425
1.4739
1.45342
1.43281
1.41206
1.39117
1.37014
1.34896
1.32763
1.30616
1.28453
1.26275
1.24082
1.21874
1.1965
1.1741
1.15155
1.12884
1.10597
1.08293
1.05974
1.03638
1.01286
0.989167
0.96531
0.941285
0.91709
0.892725
0.868187
0.843476
0.81859
0.793529
0.76829
0.742873
0.717277
0.6915
0.66554
0.639398
0.613071
0.586559
0.559859
0.532972
0.505895
0.478626
0.451169
0.423512
0.395669
0.367621
0.339381
0.310942
0.282297
0.253461
0.224411
0.195162
0.165714
0.136044
0.10618
0.0760997
0.0458052
0.0153038
-27.2916
-30.2785
-33.5684
-36.4002
-37.6022
-37.6454
-36.366
-33.8244
-31.6075
-35.6794
-41.1495
-37.2447
-22.6013
-13.0304
-7.67538
-3.62295
-1.30089
0.00938417
0.609332
0.956298
1.23224
1.43497
1.54591
1.61341
1.65686
1.66426
1.67258
1.69547
1.71351
1.71309
1.69726
1.67662
1.65559
1.63515
1.61474
1.59465
1.57466
1.55467
1.53462
1.51449
1.49425
1.4739
1.45343
1.43281
1.41207
1.39118
1.37014
1.34896
1.32763
1.30616
1.28453
1.26275
1.24082
1.21874
1.1965
1.1741
1.15155
1.12884
1.10597
1.08293
1.05974
1.03638
1.01286
0.989167
0.96531
0.941285
0.91709
0.892725
0.868187
0.843476
0.81859
0.793529
0.76829
0.742873
0.717277
0.6915
0.66554
0.639398
0.613071
0.586559
0.559859
0.532972
0.505895
0.478626
0.451169
0.423512
0.395669
0.367621
0.339381
0.310942
0.282297
0.253461
0.224411
0.195162
0.165714
0.136044
0.10618
0.0760998
0.0458053
0.0153037
-27.5126
-30.2518
-33.3615
-35.9566
-37.1428
-36.5445
-34.8687
-31.7458
-30.2007
-36.3153
-43.8904
-39.7728
-23.21
-13.337
-7.83531
-3.53557
-1.27086
0.066619
0.661608
0.972761
1.23128
1.43077
1.54789
1.61694
1.66649
1.69182
1.69243
1.69855
1.70803
1.70578
1.69219
1.67389
1.65439
1.63448
1.61463
1.59466
1.57469
1.55469
1.53463
1.5145
1.49426
1.47391
1.45343
1.43282
1.41207
1.39118
1.37014
1.34896
1.32763
1.30616
1.28453
1.26275
1.24082
1.21874
1.1965
1.1741
1.15155
1.12884
1.10597
1.08293
1.05974
1.03638
1.01286
0.989167
0.96531
0.941285
0.91709
0.892725
0.868187
0.843476
0.81859
0.793529
0.76829
0.742873
0.717277
0.6915
0.66554
0.639398
0.61307
0.586559
0.559859
0.532972
0.505895
0.478626
0.451169
0.423512
0.395669
0.367621
0.339381
0.310942
0.282296
0.253461
0.224411
0.195162
0.165714
0.136044
0.10618
0.0760999
0.0458053
0.0153037
-27.7059
-30.2349
-33.131
-35.6027
-36.7174
-35.5782
-33.4839
-29.3953
-28.5207
-36.8311
-46.437
-41.9916
-23.5958
-13.6055
-7.95149
-3.41341
-1.20778
0.156848
0.680823
0.974858
1.2415
1.45415
1.56422
1.62437
1.66281
1.67651
1.68855
1.70255
1.7162
1.71395
1.69822
1.67762
1.65643
1.6355
1.61512
1.59479
1.57474
1.55471
1.53465
1.51451
1.49427
1.47391
1.45343
1.43282
1.41207
1.39118
1.37014
1.34896
1.32763
1.30616
1.28453
1.26275
1.24082
1.21874
1.1965
1.1741
1.15155
1.12884
1.10597
1.08293
1.05974
1.03638
1.01286
0.989167
0.96531
0.941285
0.91709
0.892725
0.868187
0.843476
0.81859
0.793529
0.76829
0.742873
0.717277
0.6915
0.66554
0.639398
0.61307
0.586559
0.559859
0.532972
0.505895
0.478626
0.451169
0.423512
0.395669
0.367621
0.339381
0.310942
0.282296
0.253461
0.224412
0.195162
0.165714
0.136044
0.10618
0.0761001
0.0458054
0.0153037
-27.8529
-30.2516
-32.9485
-35.2669
-36.3999
-34.7667
-32.1281
-26.8907
-26.3707
-36.7719
-48.1863
-43.5043
-23.7972
-13.8616
-7.95951
-3.24706
-1.1654
0.246945
0.749843
1.00791
1.25417
1.45747
1.57281
1.63781
1.68255
1.70104
1.6953
1.70273
1.71037
1.70722
1.69326
1.67464
1.65479
1.63461
1.61459
1.59475
1.57476
1.55473
1.53466
1.51451
1.49427
1.47391
1.45343
1.43282
1.41207
1.39118
1.37014
1.34896
1.32763
1.30616
1.28453
1.26275
1.24082
1.21874
1.1965
1.1741
1.15155
1.12884
1.10597
1.08293
1.05974
1.03638
1.01286
0.989167
0.96531
0.941285
0.91709
0.892725
0.868187
0.843476
0.81859
0.793529
0.76829
0.742873
0.717277
0.6915
0.66554
0.639398
0.61307
0.586559
0.559859
0.532972
0.505895
0.478626
0.451169
0.423512
0.395669
0.367621
0.339381
0.310942
0.282296
0.253461
0.224412
0.195162
0.165714
0.136044
0.10618
0.0761003
0.0458054
0.0153036
-27.9408
-30.2726
-32.7868
-35.1417
-35.8886
-34.1249
-30.7462
-24.4027
-23.792
-36.021
-48.8478
-44.0727
-23.8321
-14.0111
-7.88148
-3.07964
-1.12509
0.324744
0.768986
1.02143
1.26657
1.47176
1.58448
1.64064
1.67278
1.69032
1.69743
1.70942
1.71929
1.71534
1.6993
1.67849
1.65703
1.63589
1.61527
1.59497
1.57482
1.55476
1.53467
1.51452
1.49427
1.47391
1.45343
1.43282
1.41207
1.39118
1.37014
1.34896
1.32763
1.30616
1.28453
1.26275
1.24082
1.21874
1.1965
1.1741
1.15155
1.12884
1.10597
1.08293
1.05974
1.03638
1.01286
0.989167
0.96531
0.941285
0.91709
0.892725
0.868187
0.843476
0.81859
0.793529
0.76829
0.742873
0.717277
0.6915
0.66554
0.639398
0.61307
0.586559
0.559859
0.532972
0.505895
0.478626
0.451169
0.423512
0.395669
0.367621
0.339381
0.310942
0.282296
0.253461
0.224412
0.195162
0.165714
0.136044
0.106179
0.0761002
0.0458054
0.0153036
-28.1207
-30.3027
-32.5844
-35.0025
-35.9648
-33.7053
-29.3126
-22.2872
-21.2071
-35.0139
-48.0775
-43.8626
-23.7134
-14.1
-7.75171
-2.96393
-1.09617
0.380732
0.805203
1.04392
1.27818
1.47834
1.59076
1.65185
1.69039
1.70146
1.70168
1.70801
1.71415
1.70968
1.69485
1.67562
1.65535
1.635
1.61486
1.59483
1.5748
1.55476
1.53468
1.51452
1.49428
1.47392
1.45343
1.43282
1.41207
1.39118
1.37014
1.34896
1.32763
1.30616
1.28453
1.26275
1.24082
1.21874
1.1965
1.1741
1.15155
1.12884
1.10597
1.08293
1.05974
1.03638
1.01286
0.989167
0.96531
0.941285
0.91709
0.892725
0.868187
0.843476
0.81859
0.793529
0.76829
0.742873
0.717277
0.6915
0.66554
0.639398
0.61307
0.586559
0.559859
0.532972
0.505895
0.478626
0.451169
0.423512
0.395669
0.367621
0.339381
0.310942
0.282296
0.253461
0.224412
0.195162
0.165715
0.136044
0.106179
0.0761007
0.0458055
0.0153035
-28.1762
-30.2871
-32.4657
-34.9377
-35.7532
-33.4938
-28.3022
-21.229
-19.9489
-34.5383
-47.5381
-43.2715
-23.5836
-14.114
-7.67369
-2.92417
-1.07659
0.397928
0.805279
1.05069
1.28346
1.48234
1.59392
1.65082
1.68415
1.69986
1.70337
1.71255
1.72022
1.71552
1.69941
1.67861
1.65711
1.63594
1.61531
1.59502
1.57487
1.55478
1.53469
1.51453
1.49428
1.47392
1.45343
1.43282
1.41207
1.39118
1.37014
1.34896
1.32763
1.30616
1.28453
1.26275
1.24082
1.21874
1.1965
1.1741
1.15155
1.12884
1.10597
1.08293
1.05974
1.03638
1.01286
0.989167
0.96531
0.941285
0.91709
0.892725
0.868187
0.843476
0.81859
0.793529
0.76829
0.742873
0.717277
0.6915
0.66554
0.639398
0.61307
0.586559
0.559859
0.532972
0.505895
0.478626
0.451169
0.423512
0.395669
0.367621
0.339381
0.310942
0.282296
0.253461
0.224412
0.195162
0.165714
0.136044
0.106179
0.0761007
0.0458055
0.0153035
-26.3137
-29.5201
-31.2403
-46.0629
-56.8595
-62.2464
-63.5143
-57.7414
-44.8168
-31.1639
-18.4451
-10.2909
-3.03916
1.4168
2.77509
3.40986
3.22608
2.83834
2.44934
2.14756
1.93314
1.79367
1.71637
1.68416
1.67951
1.68735
1.69638
1.70064
1.69847
1.6906
1.67853
1.66369
1.64714
1.62952
1.61119
1.59237
1.57319
1.55372
1.53402
1.51411
1.49401
1.47375
1.45333
1.43276
1.41203
1.39115
1.37013
1.34895
1.32763
1.30616
1.28453
1.26275
1.24082
1.21874
1.1965
1.1741
1.15155
1.12884
1.10597
1.08293
1.05974
1.03638
1.01286
0.989167
0.96531
0.941285
0.91709
0.892725
0.868187
0.843476
0.81859
0.793529
0.76829
0.742873
0.717277
0.6915
0.66554
0.639398
0.61307
0.586559
0.559858
0.532972
0.505895
0.478626
0.451169
0.423512
0.395668
0.367621
0.33938
0.310943
0.282295
0.253462
0.22441
0.195163
0.165713
0.136046
0.106178
0.0761017
0.0458048
0.0153037
-26.388
-29.8372
-32.533
-46.8348
-57.3579
-62.4682
-63.704
-58.135
-45.1795
-31.2966
-18.5624
-10.3516
-3.15104
1.34386
2.73297
3.38066
3.20984
2.82807
2.44267
2.14328
1.9305
1.79207
1.71504
1.68324
1.67896
1.68705
1.69626
1.7006
1.69847
1.69063
1.67858
1.66375
1.64719
1.62956
1.61122
1.59239
1.5732
1.55373
1.53402
1.51411
1.49402
1.47375
1.45333
1.43276
1.41203
1.39115
1.37013
1.34895
1.32763
1.30616
1.28453
1.26275
1.24082
1.21874
1.1965
1.1741
1.15155
1.12884
1.10597
1.08293
1.05974
1.03638
1.01286
0.989167
0.96531
0.941285
0.91709
0.892725
0.868187
0.843476
0.81859
0.793529
0.76829
0.742873
0.717277
0.6915
0.66554
0.639398
0.61307
0.586559
0.559858
0.532972
0.505895
0.478626
0.451169
0.423512
0.395668
0.367621
0.33938
0.310943
0.282295
0.253462
0.22441
0.195163
0.165713
0.136046
0.106178
0.0761018
0.0458047
0.0153037
-26.5174
-29.6491
-35.1257
-48.4194
-58.1881
-62.8564
-64.0331
-58.7452
-45.7621
-31.5636
-18.8174
-10.4997
-3.38066
1.21049
2.64163
3.31433
3.17224
2.80548
2.42861
2.13389
1.92367
1.7866
1.71051
1.67981
1.67682
1.68614
1.69634
1.70119
1.69917
1.69122
1.679
1.66402
1.64735
1.62965
1.61128
1.59243
1.57322
1.55374
1.53403
1.51411
1.49402
1.47376
1.45333
1.43276
1.41203
1.39115
1.37013
1.34895
1.32763
1.30616
1.28453
1.26275
1.24082
1.21874
1.1965
1.1741
1.15155
1.12884
1.10597
1.08293
1.05974
1.03638
1.01286
0.989167
0.96531
0.941285
0.91709
0.892725
0.868187
0.843476
0.81859
0.793529
0.76829
0.742873
0.717277
0.6915
0.66554
0.639398
0.61307
0.586559
0.559858
0.532972
0.505895
0.478626
0.451169
0.423512
0.395668
0.367621
0.33938
0.310943
0.282295
0.253462
0.22441
0.195164
0.165712
0.136046
0.106178
0.0761014
0.0458047
0.0153038
-26.1706
-29.705
-37.6435
-50.3043
-59.0777
-63.5163
-64.5613
-59.6175
-46.5046
-31.9129
-19.1861
-10.7463
-3.70539
1.00371
2.50509
3.20951
3.10809
2.76732
2.40615
2.12012
1.91454
1.7798
1.70502
1.67543
1.67367
1.6843
1.69548
1.70091
1.69916
1.69129
1.67907
1.66407
1.6474
1.62969
1.6113
1.59245
1.57324
1.55375
1.53403
1.51412
1.49402
1.47376
1.45333
1.43276
1.41203
1.39115
1.37013
1.34895
1.32763
1.30616
1.28453
1.26275
1.24082
1.21874
1.1965
1.1741
1.15155
1.12884
1.10597
1.08293
1.05974
1.03638
1.01286
0.989167
0.96531
0.941285
0.91709
0.892725
0.868187
0.843476
0.81859
0.793529
0.76829
0.742873
0.717277
0.6915
0.66554
0.639398
0.61307
0.586559
0.559858
0.532972
0.505895
0.478626
0.451169
0.423512
0.395668
0.367621
0.33938
0.310943
0.282295
0.253462
0.22441
0.195164
0.165712
0.136046
0.106178
0.0761014
0.0458046
0.0153039
-25.1934
-29.4507
-39.8219
-52.1084
-59.9627
-64.1604
-65.1213
-60.5017
-47.247
-32.3796
-19.6717
-11.0443
-4.07172
0.724766
2.32281
3.06788
3.01744
2.71119
2.37276
2.10038
1.90227
1.77095
1.69769
1.66935
1.66901
1.68123
1.6938
1.70021
1.69902
1.6914
1.67924
1.66423
1.64751
1.62977
1.61136
1.59248
1.57326
1.55377
1.53404
1.51412
1.49402
1.47376
1.45334
1.43276
1.41203
1.39115
1.37013
1.34895
1.32763
1.30616
1.28453
1.26275
1.24082
1.21874
1.1965
1.1741
1.15155
1.12884
1.10597
1.08293
1.05974
1.03638
1.01286
0.989167
0.96531
0.941285
0.91709
0.892725
0.868187
0.843476
0.81859
0.793529
0.76829
0.742873
0.717277
0.6915
0.66554
0.639398
0.61307
0.586559
0.559858
0.532972
0.505895
0.478626
0.451169
0.423513
0.395668
0.367621
0.33938
0.310943
0.282295
0.253462
0.22441
0.195164
0.165712
0.136046
0.106178
0.0761013
0.0458046
0.0153039
-25.0494
-29.5289
-41.6535
-53.6952
-60.7656
-64.8408
-65.7526
-61.3839
-48.0314
-32.9185
-20.2233
-11.3702
-4.46396
0.385241
2.10393
2.89209
2.90044
2.63714
2.32835
2.07419
1.88694
1.76111
1.68998
1.66282
1.66377
1.67763
1.69174
1.69927
1.69872
1.69139
1.67933
1.66432
1.64759
1.62983
1.6114
1.59251
1.57328
1.55378
1.53405
1.51413
1.49403
1.47376
1.45334
1.43276
1.41203
1.39115
1.37013
1.34895
1.32763
1.30616
1.28453
1.26275
1.24082
1.21874
1.1965
1.1741
1.15155
1.12884
1.10597
1.08293
1.05974
1.03638
1.01286
0.989167
0.96531
0.941285
0.91709
0.892725
0.868187
0.843476
0.81859
0.793529
0.76829
0.742873
0.717277
0.6915
0.66554
0.639398
0.61307
0.586559
0.559858
0.532972
0.505895
0.478626
0.451169
0.423513
0.395668
0.367621
0.33938
0.310943
0.282295
0.253462
0.22441
0.195164
0.165712
0.136046
0.106178
0.0761012
0.0458045
0.0153039
-24.7169
-30.0002
-43.1669
-55.0173
-61.4949
-65.6543
-66.4605
-62.4085
-48.757
-33.5033
-20.8056
-11.7793
-4.91346
0.000755751
1.85028
2.68856
2.76095
2.54568
2.27262
2.0415
1.86848
1.75022
1.68205
1.65613
1.65818
1.67355
1.68922
1.69796
1.69819
1.69126
1.67937
1.66441
1.64768
1.6299
1.61146
1.59255
1.57331
1.5538
1.53406
1.51414
1.49403
1.47376
1.45334
1.43276
1.41203
1.39115
1.37013
1.34895
1.32763
1.30616
1.28453
1.26275
1.24082
1.21874
1.1965
1.1741
1.15155
1.12884
1.10597
1.08293
1.05974
1.03638
1.01286
0.989167
0.96531
0.941285
0.917091
0.892725
0.868187
0.843476
0.81859
0.793529
0.76829
0.742873
0.717277
0.6915
0.66554
0.639398
0.61307
0.586559
0.559858
0.532972
0.505895
0.478626
0.451169
0.423513
0.395668
0.367621
0.33938
0.310942
0.282295
0.253462
0.22441
0.195164
0.165712
0.136046
0.106179
0.0761011
0.0458044
0.015304
-24.5953
-30.4684
-44.4127
-56.1936
-62.004
-66.3256
-67.1939
-63.3421
-49.3964
-34.0535
-21.4071
-12.2668
-5.39351
-0.407562
1.56742
2.45508
2.60151
2.43981
2.20662
2.00267
1.8468
1.73823
1.67407
1.64967
1.65262
1.66933
1.6865
1.6965
1.69756
1.6911
1.6794
1.66451
1.64778
1.62998
1.61152
1.59259
1.57334
1.55382
1.53408
1.51415
1.49404
1.47377
1.45334
1.43276
1.41203
1.39116
1.37013
1.34895
1.32763
1.30616
1.28453
1.26275
1.24082
1.21874
1.1965
1.1741
1.15155
1.12884
1.10597
1.08293
1.05974
1.03638
1.01286
0.989167
0.965311
0.941285
0.917091
0.892725
0.868187
0.843476
0.81859
0.793529
0.76829
0.742873
0.717277
0.6915
0.66554
0.639398
0.61307
0.586559
0.559858
0.532972
0.505895
0.478626
0.451169
0.423513
0.395668
0.367621
0.33938
0.310942
0.282295
0.253462
0.22441
0.195164
0.165712
0.136046
0.106179
0.076101
0.0458044
0.015304
-24.6108
-30.8079
-45.2934
-56.9185
-62.4192
-66.9946
-67.9635
-64.1842
-49.9594
-34.5603
-21.9802
-12.7311
-5.89432
-0.894047
1.26463
2.20246
2.42304
2.32153
2.13178
1.95825
1.82215
1.72493
1.66574
1.64335
1.6472
1.66512
1.6837
1.69492
1.69685
1.69088
1.67941
1.6646
1.64788
1.63007
1.61158
1.59264
1.57337
1.55384
1.53409
1.51415
1.49404
1.47377
1.45334
1.43276
1.41203
1.39116
1.37013
1.34895
1.32763
1.30616
1.28453
1.26275
1.24082
1.21874
1.1965
1.1741
1.15155
1.12884
1.10597
1.08293
1.05974
1.03638
1.01286
0.989167
0.965311
0.941285
0.917091
0.892725
0.868187
0.843476
0.81859
0.793529
0.76829
0.742874
0.717277
0.6915
0.66554
0.639398
0.613071
0.586559
0.559859
0.532972
0.505895
0.478626
0.451169
0.423513
0.395668
0.367621
0.33938
0.310942
0.282296
0.253462
0.22441
0.195164
0.165712
0.136046
0.106179
0.0761009
0.0458043
0.0153041
-24.6608
-31.2388
-45.7912
-57.2377
-62.6421
-67.4569
-68.6339
-64.9772
-50.3962
-35.0062
-22.4984
-13.2102
-6.36346
-1.42454
0.922061
1.93401
2.22925
2.19302
2.05003
1.90914
1.79491
1.71024
1.65869
1.63694
1.64191
1.66103
1.68094
1.69335
1.69613
1.69066
1.67942
1.66469
1.64799
1.63016
1.61165
1.59269
1.5734
1.55386
1.53411
1.51416
1.49405
1.47378
1.45335
1.43277
1.41203
1.39116
1.37013
1.34895
1.32763
1.30616
1.28453
1.26275
1.24082
1.21874
1.1965
1.1741
1.15155
1.12884
1.10597
1.08293
1.05974
1.03638
1.01286
0.989167
0.965311
0.941285
0.917091
0.892725
0.868187
0.843476
0.81859
0.793529
0.76829
0.742874
0.717277
0.6915
0.66554
0.639398
0.613071
0.586559
0.559859
0.532972
0.505895
0.478627
0.451169
0.423513
0.395668
0.367621
0.33938
0.310942
0.282296
0.253462
0.22441
0.195165
0.165712
0.136046
0.106179
0.0761009
0.0458042
0.0153041
-24.7744
-31.7274
-45.8786
-57.1904
-62.5577
-67.7264
-69.1474
-65.6336
-50.6834
-35.3958
-23.0066
-13.7195
-6.84164
-1.94621
0.545753
1.65218
2.02354
2.05594
1.96297
1.85626
1.76545
1.69427
1.64893
1.63013
1.63655
1.65702