/*--------------------------------*- C++ -*----------------------------------*\
| =========                 |                                                 |
| \\      /  F ield         | OpenFOAM: The Open Source CFD Toolbox           |
|  \\    /   O peration     | Version:  2.4.0                                 |
|   \\  /    A nd           | Web:      www.OpenFOAM.org                      |
|    \\/     M anipulation  |                                                 |
\*---------------------------------------------------------------------------*/
FoamFile
{
    version     2.0;
    format      ascii;
    class       volVectorField;
    location    "1.42";
    object      U;
}
// * * * * * * * * * * * * * * * * * * * * * * * * * * * * * * * * * * * * * //

dimensions      [0 1 -1 0 0 0 0];

internalField   nonuniform List<vector> 
4400
(
(8.96066 -0.0603663 0)
(11.3307 0.0817085 0)
(8.04145 0.111658 0)
(11.129 -0.037407 0)
(8.09889 0.0195497 0)
(10.4738 -0.099113 0)
(8.64055 -0.0151783 0)
(10.1918 -0.0090927 0)
(9.27444 0.0922818 0)
(9.40159 0.0324975 0)
(9.72046 0.154675 0)
(8.56275 -0.0874828 0)
(8.26383 0.0150728 0)
(10.094 0.0897779 0)
(5.27511 -0.10818 0)
(11.4518 0.104807 0)
(5.22225 0.0454545 0)
(10.5872 -0.0471746 0)
(5.89659 0.199873 0)
(11.2178 0.00163333 0)
(9.22577 -0.00928096 0)
(10.8609 0.0933948 0)
(8.89344 -0.0382421 0)
(11.5358 -0.0273419 0)
(8.68175 0.151389 0)
(11.0001 -0.0228495 0)
(9.26104 0.063033 0)
(9.83598 -0.100799 0)
(9.94256 0.053955 0)
(10.2088 -0.117681 0)
(10.512 -0.00583204 0)
(11.4656 0.37304 0)
(8.72576 -0.2576 0)
(12.3814 0.364555 0)
(6.02509 -0.0222458 0)
(12.5726 -0.234274 0)
(7.13202 0.230977 0)
(10.6066 -0.164743 0)
(7.96608 -0.120454 0)
(12.4938 0.596053 0)
(9.45097 -0.0698208 0)
(10.8433 0.134097 0)
(9.46892 0.0196362 0)
(10.8236 -0.0315715 0)
(8.73906 0.16701 0)
(10.429 -0.208756 0)
(10.3057 0.206449 0)
(9.51053 -0.125107 0)
(10.1747 -0.00149921 0)
(10.67 -0.0627323 0)
(8.87393 -0.0921504 0)
(11.8332 0.273596 0)
(8.71343 -0.174011 0)
(12.7132 0.511923 0)
(7.7639 0.0246548 0)
(12.97 -0.27547 0)
(8.23933 0.56604 0)
(10.8934 -0.324787 0)
(8.46777 -0.0849692 0)
(12.4196 0.642665 0)
(9.8478 -0.0736661 0)
(10.3696 0.0841556 0)
(9.24236 -0.00305355 0)
(11.0147 0.054202 0)
(9.29796 0.276641 0)
(9.64689 -0.375874 0)
(11.0464 0.226867 0)
(9.38641 -0.0441002 0)
(10.1195 -0.190769 0)
(11.0677 0.141051 0)
(8.82811 -0.232139 0)
(11.0225 0.384341 0)
(9.49657 -0.328736 0)
(11.7175 0.466063 0)
(9.02225 0.100711 0)
(12.441 -0.470947 0)
(9.43709 0.727405 0)
(11.1887 -0.223849 0)
(9.09994 -0.245225 0)
(11.7991 0.735411 0)
(9.92247 -0.111038 0)
(10.293 0.233298 0)
(9.35105 -0.0659042 0)
(10.6852 -0.0800833 0)
(9.47203 0.452065 0)
(9.87374 -0.551631 0)
(10.8233 0.20321 0)
(9.56178 0.0875473 0)
(10.0236 -0.375361 0)
(10.8627 0.18221 0)
(9.09469 -0.0809007 0)
(9.92387 0.148247 0)
(10.6047 -0.304607 0)
(10.2919 0.520174 0)
(9.6056 0.0150031 0)
(11.5682 -0.546168 0)
(9.84024 0.886289 0)
(10.5494 -0.223875 0)
(9.70287 -0.202875 0)
(10.8889 0.670948 0)
(9.84139 -0.121275 0)
(10.4029 0.192093 0)
(9.77161 -0.050959 0)
(10.1468 -0.0252066 0)
(9.89056 0.482054 0)
(9.9043 -0.628944 0)
(10.1716 0.276697 0)
(10.1583 0.150417 0)
(9.7532 -0.464727 0)
(10.5523 0.325448 0)
(9.66154 -0.0145182 0)
(9.38078 0.0160112 0)
(10.9538 -0.279936 0)
(9.35655 0.536224 0)
(9.83179 -0.0490317 0)
(11.1395 -0.582221 0)
(9.44825 1.0215 0)
(10.194 -0.262888 0)
(10.4917 -0.270227 0)
(10.3672 0.654427 0)
(9.92586 -0.160716 0)
(10.1706 0.224907 0)
(9.96974 0.0301327 0)
(9.89005 -0.141542 0)
(10.2071 0.512289 0)
(10.0749 -0.589393 0)
(10.0343 0.141738 0)
(10.5362 0.205538 0)
(9.69328 -0.488701 0)
(10.3024 0.236028 0)
(10.2326 0.165819 0)
(9.3429 -0.147912 0)
(11.0743 -0.256988 0)
(9.3949 0.626868 0)
(10.1107 -0.214434 0)
(11.0261 -0.604119 0)
(9.32418 1.13228 0)
(10.2517 -0.400664 0)
(10.9252 -0.334294 0)
(10.0677 0.759313 0)
(9.91823 -0.142615 0)
(9.90836 0.187582 0)
(10.2649 0.0420625 0)
(9.87515 -0.130672 0)
(10.1811 0.47211 0)
(10.387 -0.56214 0)
(9.61141 0.142229 0)
(10.6444 0.250837 0)
(9.90694 -0.44709 0)
(9.91481 0.231966 0)
(10.5419 0.209035 0)
(9.78172 -0.211525 0)
(10.5957 -0.219199 0)
(9.76634 0.65017 0)
(10.3914 -0.263331 0)
(10.6421 -0.504021 0)
(9.29702 1.21072 0)
(10.6027 -0.50413 0)
(10.7205 -0.316449 0)
(9.71984 0.92807 0)
(10.0883 -0.126639 0)
(9.79749 0.136974 0)
(10.2609 0.0732714 0)
(9.95935 -0.15466 0)
(10.062 0.419124 0)
(10.4869 -0.45068 0)
(9.52112 0.060577 0)
(10.4715 0.186384 0)
(10.0763 -0.369679 0)
(9.7773 0.125092 0)
(10.4516 0.211321 0)
(10.2213 -0.184389 0)
(10.0666 -0.196936 0)
(10.1296 0.597305 0)
(10.5458 -0.265183 0)
(10.0854 -0.471471 0)
(9.63791 1.17545 0)
(10.8881 -0.543545 0)
(10.0412 -0.274619 0)
(9.64648 1.03214 0)
(10.2574 -0.123021 0)
(9.53188 0.149662 0)
(10.3448 0.0464481 0)
(9.94609 -0.141457 0)
(9.95903 0.372799 0)
(10.4556 -0.42294 0)
(9.58086 0.0860688 0)
(10.2092 0.173205 0)
(10.2181 -0.336203 0)
(9.63662 0.139829 0)
(10.3327 0.146095 0)
(10.4132 -0.18123 0)
(9.71277 -0.141115 0)
(10.2506 0.46975 0)
(10.6429 -0.177691 0)
(9.65021 -0.384662 0)
(9.97597 1.04063 0)
(10.9734 -0.491244 0)
(9.71175 -0.179352 0)
(9.68657 0.994094 0)
(10.1044 -0.0863949 0)
(9.65767 0.107547 0)
(10.3592 0.0250015 0)
(9.86543 -0.108894 0)
(10.0411 0.317283 0)
(10.297 -0.343156 0)
(9.73162 0.0672396 0)
(10.1438 0.107392 0)
(10.2673 -0.283141 0)
(9.65087 0.103803 0)
(10.3366 0.0953943 0)
(10.3581 -0.109049 0)
(9.61212 -0.11429 0)
(10.3453 0.355773 0)
(10.5214 -0.0844636 0)
(9.58227 -0.386301 0)
(10.1936 0.88728 0)
(11.016 -0.395567 0)
(9.59858 -0.150785 0)
(9.944 0.915225 0)
(10.0594 -0.0823613 0)
(9.78188 0.0920085 0)
(10.1662 0.0461247 0)
(10.1017 -0.121466 0)
(9.89632 0.278226 0)
(10.3836 -0.317348 0)
(9.85776 0.0511553 0)
(10.0499 0.100963 0)
(10.3735 -0.25951 0)
(9.62723 0.112241 0)
(10.2984 0.0332235 0)
(10.3703 -0.0816835 0)
(9.61171 -0.090978 0)
(10.3597 0.227845 0)
(10.455 0.0166646 0)
(9.71786 -0.345809 0)
(10.1806 0.708478 0)
(11.0372 -0.294083 0)
(9.62968 -0.101071 0)
(10.2085 0.765681 0)
(10.057 -0.05817 0)
(9.77918 0.0807852 0)
(10.2662 -0.0050866 0)
(10.0789 -0.0890121 0)
(9.82772 0.255625 0)
(10.4475 -0.280101 0)
(9.67966 0.0785718 0)
(10.1024 0.0542867 0)
(10.2955 -0.21859 0)
(9.64444 0.104325 0)
(10.271 -0.00300651 0)
(10.2678 -0.0292388 0)
(9.71394 -0.0725467 0)
(10.2159 0.164227 0)
(10.4181 0.0665501 0)
(9.76862 -0.335208 0)
(10.0895 0.596766 0)
(10.9781 -0.180899 0)
(9.7204 -0.110664 0)
(10.0413 0.64617 0)
(10.0967 -0.0542132 0)
(9.82053 0.0396715 0)
(10.1938 0.0292776 0)
(10.0499 -0.0694194 0)
(9.91372 0.186282 0)
(10.311 -0.229753 0)
(9.83316 0.0645608 0)
(10.0912 0.0109252 0)
(10.278 -0.174024 0)
(9.71718 0.0939208 0)
(10.2817 -0.0480143 0)
(10.2271 -0.00722382 0)
(9.85793 -0.045041 0)
(10.1247 0.0592787 0)
(10.4517 0.125143 0)
(9.8889 -0.267139 0)
(10.0494 0.419307 0)
(10.7167 -0.126381 0)
(10.2719 -0.00849435 0)
(9.61052 0.432524 0)
(10.1037 -0.0461046 0)
(9.74289 0.0563797 0)
(10.2505 -0.012177 0)
(10.0776 -0.0712052 0)
(9.85484 0.187163 0)
(10.3827 -0.208208 0)
(9.81109 0.0584365 0)
(10.0354 0.00964439 0)
(10.3838 -0.162116 0)
(9.58396 0.0777497 0)
(10.4342 -0.0485747 0)
(10.0353 -0.00109407 0)
(9.97826 -0.0242402 0)
(10.1135 0.0434545 0)
(10.3465 0.0991832 0)
(9.81285 -0.232112 0)
(10.3965 0.385518 0)
(10.1516 -0.157271 0)
(10.5788 0.00691808 0)
(9.71057 0.390671 0)
(10.0438 -0.0295044 0)
(9.85058 0.000612298 0)
(10.2292 0.00859798 0)
(10.0327 -0.0214851 0)
(9.93474 0.100574 0)
(10.3128 -0.151694 0)
(9.79239 0.0753637 0)
(10.1533 -0.073198 0)
(10.2497 -0.0748813 0)
(9.64164 0.0438217 0)
(10.4534 -0.0794316 0)
(9.95768 0.0457066 0)
(10.0184 -0.0443285 0)
(10.0078 -0.00627906 0)
(10.5632 0.177739 0)
(9.47439 -0.261523 0)
(10.6374 0.31071 0)
(10.1927 -0.0910892 0)
(10.5313 0.014272 0)
(9.77681 0.288063 0)
(10.0434 -0.0296086 0)
(9.89376 0.00900702 0)
(10.1537 -0.00551919 0)
(10.1254 -0.0496085 0)
(9.87807 0.105506 0)
(10.3191 -0.119659 0)
(9.86136 0.0314569 0)
(10.1151 -0.0426842 0)
(10.226 -0.0690319 0)
(9.84888 0.00275878 0)
(10.1911 -0.0522832 0)
(10.1968 0.0252249 0)
(9.97126 -0.0127483 0)
(9.94604 -0.0442877 0)
(10.6034 0.150786 0)
(9.70285 -0.194107 0)
(10.4099 0.209125 0)
(10.5471 -0.0796043 0)
(10.4676 0.0350872 0)
(10.0238 0.202494 0)
(10.0288 -0.0234924 0)
(9.96026 -0.0300427 0)
(10.0971 0.00971125 0)
(10.1389 0.00271067 0)
(9.88057 0.0344586 0)
(10.3082 -0.0768532 0)
(9.85376 0.0528898 0)
(10.267 -0.116414 0)
(10.0084 -0.00760332 0)
(10.1224 0.00102716 0)
(9.93684 -0.0862032 0)
(10.4042 0.0592773 0)
(9.67849 8.52484e-06 0)
(10.3411 -0.103522 0)
(10.1155 0.205172 0)
(10.2747 -0.208709 0)
(9.85595 0.136232 0)
(11.2097 -0.058116 0)
(9.68505 0.0763746 0)
(10.9644 0.0691473 0)
(10.0997 -0.0364958 0)
(9.88943 -0.0167661 0)
(10.0352 0.00470655 0)
(10.1533 -0.0431915 0)
(9.91656 0.0410954 0)
(10.2516 -0.0507535 0)
(9.99881 -0.0166032 0)
(10.2332 -0.044894 0)
(9.84887 -0.0385922 0)
(10.2956 -0.0249593 0)
(9.52398 -0.0456399 0)
(10.5648 0.0212839 0)
(9.39908 0.00947489 0)
(10.5268 -0.0945137 0)
(9.60368 0.106977 0)
(10.7939 -0.0769907 0)
(9.05878 -0.0152186 0)
(11.6701 -0.040464 0)
(8.62638 0.0870681 0)
(11.8555 0.0285064 0)
(10.1474 -0.0198452 0)
(9.49767 -0.0220033 0)
(9.9083 0.0068712 0)
(9.78897 -0.00379619 0)
(9.50397 -0.0178533 0)
(9.74262 -0.0172013 0)
(9.49605 -0.00502028 0)
(9.35712 -0.0566487 0)
(9.10585 -0.0011737 0)
(9.2098 0.0062992 0)
(8.76887 -0.0702202 0)
(8.94939 0.0510512 0)
(8.91563 -0.00622184 0)
(8.92528 -0.0819079 0)
(8.2693 0.0974372 0)
(9.63603 -0.079231 0)
(7.65322 -0.030866 0)
(9.39604 0.0326482 0)
(7.57439 0.0476554 0)
(10.1459 -0.0996767 0)
(1.38983 1.29484 0)
(6.86605 0.721104 0)
(6.90186 0.189555 0)
(5.80053 0.505826 0)
(8.86531 0.446353 0)
(10.1113 0.147692 0)
(9.11543 0.0300425 0)
(9.99341 -2.24984 0)
(10.4346 -4.01661 0)
(9.9433 -4.03994 0)
(8.9218 -3.51052 0)
(8.02585 -2.68017 0)
(7.78176 -1.67071 0)
(6.89377 -1.20111 0)
(6.49245 -0.950557 0)
(6.24705 -0.677915 0)
(5.64917 -0.522103 0)
(5.48346 -0.335829 0)
(5.54909 -0.138294 0)
(5.46591 -0.0201835 0)
(5.3433 0.0399716 0)
(5.32024 0.0680961 0)
(5.36864 0.0587115 0)
(5.40939 0.016234 0)
(5.40109 -0.040932 0)
(5.35088 -0.0897759 0)
(5.2867 -0.11735 0)
(5.22929 -0.121786 0)
(5.18681 -0.108559 0)
(5.1585 -0.0863287 0)
(5.14044 -0.0629254 0)
(5.12908 -0.0430067 0)
(5.12202 -0.0280729 0)
(5.11774 -0.017748 0)
(5.11525 -0.010978 0)
(5.11384 -0.0066896 0)
(5.11309 -0.00403358 0)
(5.11269 -0.0024128 0)
(5.11249 -0.0014342 0)
(5.1124 -0.000847767 0)
(5.11235 -0.000498805 0)
(5.11233 -0.000292096 0)
(5.11231 -0.000170393 0)
(5.11231 -9.90292e-05 0)
(5.11231 -5.72541e-05 0)
(5.1123 -3.31187e-05 0)
(5.1123 -1.8947e-05 0)
(5.1123 -1.09161e-05 0)
(5.1123 -6.2178e-06 0)
(5.1123 -3.47369e-06 0)
(5.1123 -2.07697e-06 0)
(5.1123 -1.07056e-06 0)
(5.1123 -6.45311e-07 0)
(5.1123 -4.11528e-07 0)
(5.1123 -1.17609e-07 0)
(5.1123 -1.84167e-07 0)
(5.1123 -6.04451e-08 0)
(5.1123 1.30039e-08 0)
(5.1123 -1.07316e-07 0)
(5.1123 2.74331e-08 0)
(5.1123 1.34015e-08 0)
(5.1123 -7.34713e-08 0)
(5.1123 6.37594e-08 0)
(5.1123 -1.6508e-09 0)
(5.1123 -6.70641e-08 0)
(5.1123 7.15631e-08 0)
(5.1123 -1.74939e-08 0)
(5.1123 -5.92641e-08 0)
(5.1123 8.85482e-08 0)
(5.1123 -1.8145e-08 0)
(5.1123 -7.25101e-08 0)
(5.1123 8.68389e-08 0)
(5.1123 2.46386e-08 0)
(5.1123 -9.80711e-08 0)
(5.1123 5.1286e-08 0)
(5.1123 7.01684e-08 0)
(5.1123 -7.1714e-08 0)
(5.1123 -2.19235e-08 0)
(5.1123 7.49463e-08 0)
(5.11231 1.06313e-08 0)
(5.1123 -7.67984e-08 0)
(5.11231 1.74479e-08 0)
(5.1123 5.05223e-08 0)
(5.11231 2.16272e-09 0)
(5.11229 -6.02183e-08 0)
(5.11231 4.37702e-09 0)
(5.11229 5.65283e-08 0)
(5.11231 1.0985e-08 0)
(5.1123 -5.86815e-08 0)
(5.1123 -1.2323e-08 0)
(5.11231 3.36441e-08 0)
(5.11229 7.0051e-08 0)
(5.11231 -1.17566e-07 0)
(5.1123 -2.76734e-08 0)
(5.1123 7.08041e-09 0)
(5.11231 3.50923e-08 0)
(5.1123 -1.8991e-08 0)
(5.1123 -1.55755e-08 0)
(5.1123 -4.90453e-08 0)
(5.1123 7.41487e-09 0)
(4.84846 1.57462 0)
(11.2423 0.726917 0)
(10.4416 0.749861 0)
(7.2293 0.543507 0)
(9.88675 -0.168423 0)
(9.69097 0.114182 0)
(9.17131 0.0326166 0)
(11.0352 -2.43566 0)
(10.7284 -4.04955 0)
(10.1138 -3.88115 0)
(9.5871 -3.28297 0)
(8.4397 -2.50891 0)
(7.88306 -1.59106 0)
(7.15804 -1.09544 0)
(6.51606 -0.908471 0)
(6.33579 -0.597722 0)
(5.78057 -0.411638 0)
(5.40829 -0.300737 0)
(5.467 -0.140626 0)
(5.50915 -0.00788957 0)
(5.42796 0.0636889 0)
(5.36416 0.0836958 0)
(5.35889 0.0573338 0)
(5.3644 0.00110045 0)
(5.35003 -0.0563407 0)
(5.31643 -0.0967396 0)
(5.27333 -0.117022 0)
(5.23091 -0.11838 0)
(5.19509 -0.104956 0)
(5.16757 -0.0835526 0)
(5.14769 -0.0610362 0)
(5.13404 -0.0417891 0)
(5.12513 -0.0273104 0)
(5.11961 -0.0172818 0)
(5.11634 -0.010701 0)
(5.11448 -0.00653018 0)
(5.11345 -0.00394473 0)
(5.11291 -0.00236467 0)
(5.11262 -0.00140861 0)
(5.11247 -0.000834489 0)
(5.11239 -0.00049182 0)
(5.11235 -0.000288482 0)
(5.11233 -0.00016856 0)
(5.11232 -9.80191e-05 0)
(5.11231 -5.67135e-05 0)
(5.11231 -3.2793e-05 0)
(5.11231 -1.88291e-05 0)
(5.1123 -1.08318e-05 0)
(5.1123 -6.16813e-06 0)
(5.1123 -3.4364e-06 0)
(5.1123 -1.99855e-06 0)
(5.1123 -1.1018e-06 0)
(5.1123 -6.23965e-07 0)
(5.1123 -3.68104e-07 0)
(5.1123 -1.89815e-07 0)
(5.1123 -1.59744e-07 0)
(5.1123 -6.65493e-08 0)
(5.1123 -2.17023e-09 0)
(5.1123 -3.587e-08 0)
(5.1123 -9.24873e-09 0)
(5.1123 -2.50159e-08 0)
(5.1123 -2.79561e-08 0)
(5.1123 3.96843e-08 0)
(5.1123 -5.83513e-09 0)
(5.1123 -3.92865e-08 0)
(5.1123 7.60806e-09 0)
(5.1123 -6.67553e-09 0)
(5.1123 4.31816e-09 0)
(5.1123 3.47926e-08 0)
(5.1123 -2.64151e-08 0)
(5.1123 -3.64406e-08 0)
(5.1123 3.28293e-08 0)
(5.1123 3.305e-08 0)
(5.1123 9.93011e-10 0)
(5.1123 1.36356e-08 0)
(5.1123 5.31433e-09 0)
(5.1123 -2.27853e-08 0)
(5.1123 4.28499e-09 0)
(5.1123 2.55569e-08 0)
(5.11231 1.66998e-08 0)
(5.1123 -2.71079e-08 0)
(5.11231 -4.69827e-09 0)
(5.1123 -1.26171e-08 0)
(5.11231 -9.4444e-09 0)
(5.11229 1.00781e-09 0)
(5.11231 5.5279e-09 0)
(5.11229 5.31192e-08 0)
(5.11231 -3.33387e-08 0)
(5.1123 -7.43869e-09 0)
(5.1123 1.0321e-08 0)
(5.11231 -2.50344e-08 0)
(5.11229 9.88462e-08 0)
(5.11231 -1.20296e-07 0)
(5.1123 -2.47846e-08 0)
(5.1123 3.96307e-08 0)
(5.11231 -7.63108e-08 0)
(5.1123 3.45518e-08 0)
(5.1123 3.6473e-08 0)
(5.1123 -7.12788e-08 0)
(5.1123 -5.64042e-09 0)
(6.84245 1.69775 0)
(11.7323 0.0348607 0)
(11.5723 0.785029 0)
(10.2972 0.619431 0)
(10.9408 -0.161145 0)
(8.80483 0.317347 0)
(9.37223 -0.187684 0)
(11.9332 -2.54535 0)
(11.2111 -3.88394 0)
(10.007 -3.76784 0)
(9.26114 -3.2112 0)
(8.56619 -2.39817 0)
(8.01698 -1.53716 0)
(7.58742 -0.984646 0)
(6.76107 -0.808414 0)
(6.37919 -0.560294 0)
(5.93186 -0.359065 0)
(5.45713 -0.271604 0)
(5.39206 -0.147812 0)
(5.50419 -0.01017 0)
(5.51522 0.0640998 0)
(5.4445 0.0760934 0)
(5.37868 0.0547153 0)
(5.34183 0.0200368 0)
(5.318 -0.0211352 0)
(5.29174 -0.0634151 0)
(5.26084 -0.0923501 0)
(5.2286 -0.101654 0)
(5.19873 -0.093695 0)
(5.1733 -0.0759069 0)
(5.1531 -0.0559186 0)
(5.13818 -0.0384974 0)
(5.12794 -0.0252994 0)
(5.12137 -0.0161146 0)
(5.1174 -0.010054 0)
(5.11511 -0.00618467 0)
(5.11382 -0.0037653 0)
(5.11312 -0.00227311 0)
(5.11275 -0.00136224 0)
(5.11254 -0.000811012 0)
(5.11244 -0.000479692 0)
(5.11238 -0.00028215 0)
(5.11234 -0.000165293 0)
(5.11233 -9.62462e-05 0)
(5.11232 -5.5678e-05 0)
(5.11231 -3.22097e-05 0)
(5.11231 -1.85723e-05 0)
(5.11231 -1.06851e-05 0)
(5.1123 -6.04874e-06 0)
(5.1123 -3.33552e-06 0)
(5.1123 -1.93544e-06 0)
(5.1123 -1.13054e-06 0)
(5.1123 -5.85041e-07 0)
(5.1123 -3.31287e-07 0)
(5.1123 -2.54127e-07 0)
(5.1123 -1.96291e-07 0)
(5.1123 -5.70772e-08 0)
(5.1123 5.43311e-08 0)
(5.1123 2.2125e-08 0)
(5.1123 -6.04656e-08 0)
(5.1123 -9.35857e-08 0)
(5.1123 -1.18914e-08 0)
(5.1123 5.6521e-08 0)
(5.1123 -1.01079e-08 0)
(5.1123 -7.11773e-08 0)
(5.1123 -4.93595e-08 0)
(5.1123 1.8669e-08 0)
(5.1123 7.18426e-08 0)
(5.1123 1.47307e-08 0)
(5.1123 -7.25704e-08 0)
(5.1123 -5.93118e-08 0)
(5.1123 2.31785e-08 0)
(5.1123 1.00289e-07 0)
(5.1123 9.19691e-08 0)
(5.1123 -8.76532e-09 0)
(5.1123 -5.72825e-08 0)
(5.1123 -2.3452e-08 0)
(5.1123 2.85138e-08 0)
(5.1123 3.2513e-08 0)
(5.11231 4.63591e-08 0)
(5.1123 -1.88986e-08 0)
(5.11231 -5.29847e-08 0)
(5.1123 -8.39643e-08 0)
(5.11231 -2.65391e-08 0)
(5.11229 5.84702e-08 0)
(5.11231 3.42629e-08 0)
(5.11229 8.25152e-08 0)
(5.11231 -9.02258e-08 0)
(5.1123 1.68787e-08 0)
(5.1123 6.8367e-09 0)
(5.11231 -3.61041e-08 0)
(5.11229 1.58221e-07 0)
(5.11231 -1.53722e-07 0)
(5.1123 -3.49517e-08 0)
(5.1123 5.02791e-08 0)
(5.11231 -1.82268e-07 0)
(5.1123 1.05196e-07 0)
(5.1123 5.90728e-08 0)
(5.1123 -7.93608e-08 0)
(5.1123 -6.73379e-10 0)
(8.96365 1.61418 0)
(10.9406 -0.13236 0)
(10.8414 0.774928 0)
(12.0681 0.751834 0)
(12.1603 0.115577 0)
(8.90765 0.471805 0)
(10.7412 -0.517669 0)
(12.7831 -2.6687 0)
(11.4466 -3.75224 0)
(10.1507 -3.60692 0)
(9.3886 -2.93807 0)
(8.70573 -2.16958 0)
(7.71454 -1.39721 0)
(7.52413 -0.892632 0)
(7.02805 -0.659697 0)
(6.53178 -0.420088 0)
(6.02601 -0.239315 0)
(5.50431 -0.207434 0)
(5.3242 -0.155148 0)
(5.42022 -0.0316963 0)
(5.50846 0.0776029 0)
(5.50938 0.115082 0)
(5.46745 0.0816617 0)
(5.41543 0.00978054 0)
(5.36387 -0.0608059 0)
(5.31713 -0.103334 0)
(5.27549 -0.120024 0)
(5.23872 -0.117365 0)
(5.20683 -0.101535 0)
(5.17983 -0.0793281 0)
(5.15803 -0.0570801 0)
(5.14161 -0.0386336 0)
(5.13019 -0.0250625 0)
(5.1228 -0.0158099 0)
(5.11828 -0.00979793 0)
(5.11564 -0.00600282 0)
(5.11415 -0.00364782 0)
(5.11332 -0.00220158 0)
(5.11286 -0.00132021 0)
(5.11261 -0.00078688 0)
(5.11248 -0.000466077 0)
(5.1124 -0.00027449 0)
(5.11236 -0.000160921 0)
(5.11233 -9.37646e-05 0)
(5.11232 -5.43228e-05 0)
(5.11231 -3.14525e-05 0)
(5.11231 -1.81154e-05 0)
(5.11231 -1.0402e-05 0)
(5.1123 -5.91817e-06 0)
(5.1123 -3.29188e-06 0)
(5.1123 -1.89108e-06 0)
(5.1123 -1.08778e-06 0)
(5.1123 -5.94597e-07 0)
(5.1123 -3.37463e-07 0)
(5.1123 -2.23889e-07 0)
(5.1123 -1.61685e-07 0)
(5.1123 -5.67311e-08 0)
(5.1123 8.30646e-09 0)
(5.1123 -2.98951e-09 0)
(5.1123 -3.099e-08 0)
(5.1123 -5.33293e-08 0)
(5.1123 -1.32931e-08 0)
(5.1123 3.21834e-08 0)
(5.1123 -8.28079e-09 0)
(5.1123 -4.08399e-08 0)
(5.1123 -2.50043e-08 0)
(5.1123 5.54234e-09 0)
(5.1123 3.75159e-08 0)
(5.1123 1.30445e-08 0)
(5.1123 -3.91379e-08 0)
(5.1123 -2.87355e-08 0)
(5.1123 1.65799e-08 0)
(5.1123 5.30201e-08 0)
(5.1123 5.11482e-08 0)
(5.1123 -2.02292e-09 0)
(5.1123 -2.36239e-08 0)
(5.1123 -7.67738e-09 0)
(5.1123 1.95133e-08 0)
(5.1123 6.02537e-09 0)
(5.11231 2.85225e-08 0)
(5.1123 -1.68108e-08 0)
(5.11231 -1.69399e-08 0)
(5.1123 -5.28778e-08 0)
(5.11231 -2.17275e-08 0)
(5.11229 4.28735e-08 0)
(5.11231 -7.50946e-09 0)
(5.11229 9.36605e-08 0)
(5.11231 -9.84521e-08 0)
(5.1123 4.49127e-08 0)
(5.1123 2.19755e-08 0)
(5.11231 -8.62229e-08 0)
(5.11229 1.91597e-07 0)
(5.11231 -2.00492e-07 0)
(5.1123 -2.37238e-08 0)
(5.1123 1.24247e-07 0)
(5.11231 -2.30416e-07 0)
(5.1123 1.28515e-07 0)
(5.1123 8.35673e-08 0)
(5.1123 -1.28234e-07 0)
(5.1123 -1.91176e-08 0)
(10.2375 1.64807 0)
(10.7307 -0.091718 0)
(10.2505 0.524199 0)
(12.6713 0.508844 0)
(12.4906 0.366668 0)
(10.3461 0.67411 0)
(12.2215 -0.757658 0)
(12.9437 -2.66494 0)
(11.8392 -3.50712 0)
(10.6581 -3.44688 0)
(9.81163 -2.90077 0)
(9.37213 -2.03667 0)
(8.02897 -1.33299 0)
(7.39778 -0.876845 0)
(6.90738 -0.633431 0)
(6.56139 -0.373426 0)
(6.30083 -0.161762 0)
(5.78937 -0.120038 0)
(5.42077 -0.111631 0)
(5.40709 -0.0360549 0)
(5.49952 0.0467454 0)
(5.5185 0.0781947 0)
(5.47352 0.0672486 0)
(5.41594 0.0409217 0)
(5.36689 0.0101394 0)
(5.32317 -0.029072 0)
(5.28237 -0.0619471 0)
(5.24607 -0.0779097 0)
(5.21453 -0.0761124 0)
(5.18705 -0.063188 0)
(5.16386 -0.0469959 0)
(5.14573 -0.03253 0)
(5.13284 -0.0215199 0)
(5.1244 -0.0138391 0)
(5.11922 -0.00874134 0)
(5.11618 -0.00545179 0)
(5.11446 -0.00336527 0)
(5.1135 -0.00205754 0)
(5.11297 -0.00124648 0)
(5.11268 -0.000748724 0)
(5.11252 -0.000445943 0)
(5.11242 -0.00026366 0)
(5.11237 -0.000155029 0)
(5.11234 -9.05135e-05 0)
(5.11233 -5.24842e-05 0)
(5.11232 -3.04199e-05 0)
(5.11231 -1.75585e-05 0)
(5.11231 -1.00775e-05 0)
(5.11231 -5.72198e-06 0)
(5.1123 -3.17292e-06 0)
(5.1123 -1.82542e-06 0)
(5.1123 -1.06925e-06 0)
(5.1123 -5.66725e-07 0)
(5.1123 -3.07777e-07 0)
(5.1123 -2.39748e-07 0)
(5.1123 -1.75688e-07 0)
(5.1123 -4.65363e-08 0)
(5.1123 4.11338e-08 0)
(5.1123 1.65222e-08 0)
(5.1123 -5.12255e-08 0)
(5.1123 -7.92741e-08 0)
(5.1123 -1.4389e-08 0)
(5.1123 4.13929e-08 0)
(5.1123 -8.79092e-09 0)
(5.1123 -6.15726e-08 0)
(5.1123 -4.51151e-08 0)
(5.1123 1.55441e-08 0)
(5.1123 6.03669e-08 0)
(5.1123 9.97217e-09 0)
(5.1123 -6.00729e-08 0)
(5.1123 -4.54279e-08 0)
(5.1123 2.10029e-08 0)
(5.1123 8.3065e-08 0)
(5.1123 8.14074e-08 0)
(5.1123 -5.95289e-09 0)
(5.1123 -4.3199e-08 0)
(5.1123 -1.44682e-08 0)
(5.1123 2.97527e-08 0)
(5.1123 1.36813e-08 0)
(5.11231 4.21527e-08 0)
(5.1123 -2.19544e-08 0)
(5.11231 -3.43849e-08 0)
(5.1123 -8.27691e-08 0)
(5.11231 -2.85877e-08 0)
(5.11229 6.51688e-08 0)
(5.11231 1.13616e-10 0)
(5.11229 1.22159e-07 0)
(5.11231 -1.36029e-07 0)
(5.1123 6.10841e-08 0)
(5.1123 1.99114e-08 0)
(5.11231 -1.03956e-07 0)
(5.11229 2.56429e-07 0)
(5.11231 -2.58818e-07 0)
(5.1123 -1.27697e-08 0)
(5.1123 1.42136e-07 0)
(5.11231 -3.01228e-07 0)
(5.1123 1.74306e-07 0)
(5.1123 1.01159e-07 0)
(5.1123 -1.54189e-07 0)
(5.1123 -1.48337e-08 0)
(10.2174 1.57026 0)
(11.0515 0.00687857 0)
(10.8476 0.228336 0)
(12.8145 0.30329 0)
(12.0172 0.583846 0)
(11.4589 0.658372 0)
(12.9607 -0.920788 0)
(13.0003 -2.57511 0)
(11.5777 -3.3712 0)
(10.268 -3.24869 0)
(9.74976 -2.73712 0)
(9.47263 -1.74932 0)
(8.22573 -1.08671 0)
(7.34549 -0.749631 0)
(6.95848 -0.517963 0)
(6.36822 -0.315118 0)
(6.20113 -0.107277 0)
(5.98026 -0.0684733 0)
(5.56857 -0.105558 0)
(5.39603 -0.0529491 0)
(5.488 0.0598964 0)
(5.57392 0.126284 0)
(5.56789 0.104621 0)
(5.51672 0.0267571 0)
(5.44684 -0.0584548 0)
(5.36927 -0.109272 0)
(5.29952 -0.125832 0)
(5.24706 -0.119558 0)
(5.21072 -0.100155 0)
(5.18411 -0.0757474 0)
(5.16294 -0.0528592 0)
(5.14614 -0.0348844 0)
(5.13372 -0.0222444 0)
(5.12525 -0.0139135 0)
(5.11987 -0.00861579 0)
(5.11663 -0.00530274 0)
(5.11475 -0.00324668 0)
(5.11368 -0.001976 0)
(5.11308 -0.00119437 0)
(5.11274 -0.000716782 0)
(5.11255 -0.000426925 0)
(5.11245 -0.000252499 0)
(5.11238 -0.000148491 0)
(5.11235 -8.67285e-05 0)
(5.11233 -5.03348e-05 0)
(5.11232 -2.91928e-05 0)
(5.11231 -1.68272e-05 0)
(5.11231 -9.63502e-06 0)
(5.11231 -5.49078e-06 0)
(5.1123 -3.07491e-06 0)
(5.1123 -1.76298e-06 0)
(5.1123 -1.02366e-06 0)
(5.1123 -5.61445e-07 0)
(5.1123 -3.08834e-07 0)
(5.1123 -2.07551e-07 0)
(5.1123 -1.49695e-07 0)
(5.1123 -4.41744e-08 0)
(5.1123 8.5369e-09 0)
(5.1123 -8.67274e-09 0)
(5.1123 -2.90982e-08 0)
(5.1123 -4.86827e-08 0)
(5.1123 -1.62605e-08 0)
(5.1123 2.59515e-08 0)
(5.1123 -9.66951e-09 0)
(5.1123 -3.94444e-08 0)
(5.1123 -2.3815e-08 0)
(5.1123 5.6447e-09 0)
(5.1123 3.34858e-08 0)
(5.1123 1.00222e-08 0)
(5.1123 -3.50622e-08 0)
(5.1123 -2.21188e-08 0)
(5.1123 1.94364e-08 0)
(5.1123 4.85974e-08 0)
(5.1123 4.59196e-08 0)
(5.1123 -2.60046e-09 0)
(5.1123 -1.50346e-08 0)
(5.1123 -5.02225e-09 0)
(5.1123 2.19356e-08 0)
(5.1123 -4.87073e-09 0)
(5.11231 3.0184e-08 0)
(5.1123 -2.42314e-08 0)
(5.11231 -5.359e-09 0)
(5.1123 -5.8126e-08 0)
(5.11231 -2.27134e-08 0)
(5.11229 5.33478e-08 0)
(5.11231 -3.70686e-08 0)
(5.11229 1.36883e-07 0)
(5.11231 -1.51572e-07 0)
(5.1123 9.09583e-08 0)
(5.1123 2.60342e-08 0)
(5.11231 -1.43332e-07 0)
(5.11229 2.92242e-07 0)
(5.11231 -3.12301e-07 0)
(5.1123 7.04763e-09 0)
(5.1123 2.0424e-07 0)
(5.11231 -3.51823e-07 0)
(5.1123 2.0594e-07 0)
(5.1123 1.19715e-07 0)
(5.1123 -1.99195e-07 0)
(5.1123 -2.85659e-08 0)
(9.94654 1.37724 0)
(11.1446 -0.068272 0)
(11.683 0.00807384 0)
(12.2929 0.280363 0)
(11.2319 0.612147 0)
(11.9024 0.567019 0)
(13.0202 -0.996639 0)
(12.5381 -2.47621 0)
(11.5826 -3.07978 0)
(10.189 -3.14033 0)
(9.81238 -2.67704 0)
(9.46167 -1.70029 0)
(8.69158 -0.935484 0)
(7.30773 -0.665047 0)
(6.92913 -0.416689 0)
(6.48672 -0.216898 0)
(6.12616 -0.0815083 0)
(6.1045 0.0200818 0)
(5.86993 0.0221176 0)
(5.46833 -0.0102119 0)
(5.31419 0.0141216 0)
(5.43979 0.0612207 0)
(5.66037 0.0770713 0)
(5.81554 0.0651248 0)
(5.81781 0.0468658 0)
(5.68698 0.0169249 0)
(5.51353 -0.0207068 0)
(5.37006 -0.0478598 0)
(5.27427 -0.0561104 0)
(5.21447 -0.0498009 0)
(5.17653 -0.0377774 0)
(5.15192 -0.0262254 0)
(5.13613 -0.0173725 0)
(5.12632 -0.0112414 0)
(5.12041 -0.00718812 0)
(5.11695 -0.00455656 0)
(5.11495 -0.0028624 0)
(5.11381 -0.00177914 0)
(5.11317 -0.00109309 0)
(5.1128 -0.000664059 0)
(5.11259 -0.000398955 0)
(5.11247 -0.000237348 0)
(5.1124 -0.000140149 0)
(5.11236 -8.20819e-05 0)
(5.11233 -4.77135e-05 0)
(5.11232 -2.77029e-05 0)
(5.11231 -1.59963e-05 0)
(5.11231 -9.15367e-06 0)
(5.11231 -5.21894e-06 0)
(5.1123 -2.92308e-06 0)
(5.1123 -1.68075e-06 0)
(5.1123 -9.84543e-07 0)
(5.1123 -5.26932e-07 0)
(5.1123 -2.74224e-07 0)
(5.1123 -2.08121e-07 0)
(5.1123 -1.54138e-07 0)
(5.1123 -3.4063e-08 0)
(5.1123 3.00347e-08 0)
(5.1123 7.38993e-09 0)
(5.1123 -4.04046e-08 0)
(5.1123 -6.56837e-08 0)
(5.1123 -1.64128e-08 0)
(5.1123 2.98359e-08 0)
(5.1123 -8.12032e-09 0)
(5.1123 -5.18561e-08 0)
(5.1123 -3.84779e-08 0)
(5.1123 1.25377e-08 0)
(5.1123 4.73692e-08 0)
(5.1123 6.80733e-09 0)
(5.1123 -4.71135e-08 0)
(5.1123 -3.41945e-08 0)
(5.1123 2.03294e-08 0)
(5.1123 6.69937e-08 0)
(5.1123 6.40222e-08 0)
(5.1123 -4.15803e-09 0)
(5.1123 -2.51897e-08 0)
(5.1123 -1.05519e-08 0)
(5.1123 2.73859e-08 0)
(5.1123 3.08564e-10 0)
(5.11231 4.00773e-08 0)
(5.1123 -2.94434e-08 0)
(5.11231 -1.30714e-08 0)
(5.1123 -7.90179e-08 0)
(5.11231 -2.65607e-08 0)
(5.11229 6.66345e-08 0)
(5.11231 -3.53873e-08 0)
(5.11229 1.63655e-07 0)
(5.11231 -1.86853e-07 0)
(5.1123 1.14509e-07 0)
(5.1123 1.49946e-08 0)
(5.11231 -1.60506e-07 0)
(5.11229 3.55042e-07 0)
(5.11231 -3.7313e-07 0)
(5.1123 3.28868e-08 0)
(5.1123 2.20339e-07 0)
(5.11231 -4.2061e-07 0)
(5.1123 2.53942e-07 0)
(5.1123 1.30512e-07 0)
(5.1123 -2.26494e-07 0)
(5.1123 -2.4084e-08 0)
(10.0499 1.17124 0)
(11.1497 -0.231004 0)
(11.7752 -0.0942207 0)
(11.4863 0.369468 0)
(10.7509 0.576225 0)
(11.6362 0.336612 0)
(12.6802 -1.01039 0)
(12.1371 -2.31409 0)
(11.3549 -2.96404 0)
(10.2987 -2.9825 0)
(10.1069 -2.51111 0)
(9.484 -1.44331 0)
(8.72588 -0.721195 0)
(7.69564 -0.494952 0)
(6.80949 -0.361422 0)
(6.39357 -0.140513 0)
(6.02896 -0.0325107 0)
(5.9367 -0.0293233 0)
(5.99175 -0.00111601 0)
(5.84839 0.0419303 0)
(5.56334 0.069476 0)
(5.38295 0.0690919 0)
(5.34627 0.0387488 0)
(5.35842 -0.00299217 0)
(5.35241 -0.0416898 0)
(5.32174 -0.0730654 0)
(5.28418 -0.0894718 0)
(5.25018 -0.0929285 0)
(5.22123 -0.0827844 0)
(5.19538 -0.0642207 0)
(5.17202 -0.0448455 0)
(5.15239 -0.0293218 0)
(5.13762 -0.0185433 0)
(5.12756 -0.011577 0)
(5.12121 -0.00720456 0)
(5.11741 -0.004475 0)
(5.11521 -0.00276944 0)
(5.11396 -0.00170305 0)
(5.11325 -0.00103862 0)
(5.11285 -0.000627867 0)
(5.11262 -0.000376083 0)
(5.11249 -0.000223349 0)
(5.11241 -0.000131749 0)
(5.11236 -7.71479e-05 0)
(5.11234 -4.48659e-05 0)
(5.11232 -2.60623e-05 0)
(5.11231 -1.5026e-05 0)
(5.11231 -8.58022e-06 0)
(5.11231 -4.90701e-06 0)
(5.1123 -2.7726e-06 0)
(5.1123 -1.59483e-06 0)
(5.1123 -9.30486e-07 0)
(5.1123 -5.07072e-07 0)
(5.1123 -2.64845e-07 0)
(5.1123 -1.78509e-07 0)
(5.1123 -1.32332e-07 0)
(5.1123 -3.15518e-08 0)
(5.1123 8.65165e-09 0)
(5.1123 -1.3489e-08 0)
(5.1123 -2.65063e-08 0)
(5.1123 -4.49321e-08 0)
(5.1123 -1.85016e-08 0)
(5.1123 2.11345e-08 0)
(5.1123 -9.25091e-09 0)
(5.1123 -3.70683e-08 0)
(5.1123 -2.19613e-08 0)
(5.1123 6.00117e-09 0)
(5.1123 2.90946e-08 0)
(5.1123 6.91464e-09 0)
(5.1123 -3.02874e-08 0)
(5.1123 -1.66995e-08 0)
(5.1123 2.17391e-08 0)
(5.1123 4.41295e-08 0)
(5.1123 3.84604e-08 0)
(5.1123 -3.37726e-09 0)
(5.1123 -5.77573e-09 0)
(5.1123 -4.45045e-09 0)
(5.1123 2.36262e-08 0)
(5.1123 -1.40018e-08 0)
(5.11231 3.2928e-08 0)
(5.1123 -3.42174e-08 0)
(5.11231 9.50306e-09 0)
(5.1123 -6.43764e-08 0)
(5.11231 -1.85715e-08 0)
(5.11229 5.96432e-08 0)
(5.11231 -6.37569e-08 0)
(5.11229 1.79982e-07 0)
(5.11231 -2.09935e-07 0)
(5.1123 1.47174e-07 0)
(5.1123 1.17427e-08 0)
(5.11231 -1.87678e-07 0)
(5.11229 3.9205e-07 0)
(5.11231 -4.35358e-07 0)
(5.1123 6.46056e-08 0)
(5.1123 2.63537e-07 0)
(5.11231 -4.71549e-07 0)
(5.1123 2.93914e-07 0)
(5.1123 1.42389e-07 0)
(5.1123 -2.65848e-07 0)
(5.1123 -3.34429e-08 0)
(10.367 0.93611 0)
(11.2438 -0.293543 0)
(11.2064 -0.121121 0)
(10.792 0.483674 0)
(10.5135 0.5368 0)
(11.3275 0.218738 0)
(12.1314 -1.09209 0)
(11.8909 -2.1978 0)
(11.1926 -2.89051 0)
(10.4379 -2.88593 0)
(10.082 -2.53095 0)
(9.92615 -1.32082 0)
(8.6557 -0.617937 0)
(7.79125 -0.353113 0)
(7.03182 -0.187036 0)
(6.24152 -0.0892661 0)
(5.981 -0.00733591 0)
(6.03881 0.0347303 0)
(5.95662 0.0553186 0)
(5.74463 0.073439 0)
(5.6054 0.0911425 0)
(5.58611 0.09586 0)
(5.64427 0.0814913 0)
(5.70987 0.066054 0)
(5.71487 0.0567079 0)
(5.63656 0.0415666 0)
(5.50751 0.00706253 0)
(5.37977 -0.0244899 0)
(5.283 -0.0388008 0)
(5.21881 -0.0373241 0)
(5.17819 -0.0288793 0)
(5.15275 -0.0199412 0)
(5.13691 -0.0130731 0)
(5.12713 -0.00845317 0)
(5.12114 -0.00547908 0)
(5.11752 -0.00355361 0)
(5.11536 -0.00229021 0)
(5.11409 -0.00145721 0)
(5.11334 -0.000912506 0)
(5.11291 -0.0005624 0)
(5.11265 -0.000341392 0)
(5.11251 -0.000204534 0)
(5.11242 -0.000121342 0)
(5.11237 -7.13174e-05 0)
(5.11234 -4.15635e-05 0)
(5.11233 -2.41613e-05 0)
(5.11232 -1.39443e-05 0)
(5.11231 -7.95929e-06 0)
(5.11231 -4.56232e-06 0)
(5.11231 -2.58516e-06 0)
(5.1123 -1.49284e-06 0)
(5.1123 -8.75552e-07 0)
(5.1123 -4.64331e-07 0)
(5.1123 -2.30102e-07 0)
(5.1123 -1.68949e-07 0)
(5.1123 -1.31026e-07 0)
(5.1123 -2.34724e-08 0)
(5.1123 2.20917e-08 0)
(5.1123 -1.02949e-09 0)
(5.1123 -3.05803e-08 0)
(5.1123 -5.55527e-08 0)
(5.1123 -1.74138e-08 0)
(5.1123 2.30528e-08 0)
(5.1123 -8.34927e-09 0)
(5.1123 -4.25654e-08 0)
(5.1123 -3.20875e-08 0)
(5.1123 9.89522e-09 0)
(5.1123 3.74913e-08 0)
(5.1123 3.80069e-09 0)
(5.1123 -3.65312e-08 0)
(5.1123 -2.46812e-08 0)
(5.1123 1.86837e-08 0)
(5.1123 5.32507e-08 0)
(5.1123 4.8722e-08 0)
(5.1123 -4.34567e-09 0)
(5.1123 -1.00689e-08 0)
(5.1123 -9.16631e-09 0)
(5.1123 2.49135e-08 0)
(5.1123 -1.10219e-08 0)
(5.11231 4.13837e-08 0)
(5.1123 -3.80982e-08 0)
(5.11231 7.3013e-09 0)