/*--------------------------------*- C++ -*----------------------------------*\
| =========                 |                                                 |
| \\      /  F ield         | OpenFOAM: The Open Source CFD Toolbox           |
|  \\    /   O peration     | Version:  2.4.0                                 |
|   \\  /    A nd           | Web:      www.OpenFOAM.org                      |
|    \\/     M anipulation  |                                                 |
\*---------------------------------------------------------------------------*/
FoamFile
{
    version     2.0;
    format      ascii;
    class       volVectorField;
    location    "73";
    object      U;
}
// * * * * * * * * * * * * * * * * * * * * * * * * * * * * * * * * * * * * * //

dimensions      [0 1 -1 0 0 0 0];

internalField   nonuniform List<vector> 
4400
(
(0.085169 0.000990568 0)
(0.0961069 -0.00114581 0)
(0.111417 -0.0017094 0)
(0.0978349 0.00266664 0)
(0.0835572 0.000717784 0)
(0.102353 -0.00247031 0)
(0.0978755 0.00159834 0)
(0.10336 -0.000720271 0)
(0.0993218 -0.000511357 0)
(0.0972058 0.0018215 0)
(0.0954353 -0.00186337 0)
(0.106774 0.00085252 0)
(0.0874163 0.00095067 0)
(0.113043 -0.00177498 0)
(0.0827735 0.00176937 0)
(0.117865 -0.00135153 0)
(0.081919 0.000235523 0)
(0.116317 0.000895853 0)
(0.0815836 -0.00177825 0)
(0.116234 0.00472686 0)
(0.260133 0.00328243 0)
(0.285549 -0.00403519 0)
(0.28734 -0.00500789 0)
(0.272009 0.00874793 0)
(0.266037 0.000737395 0)
(0.28587 -0.00778378 0)
(0.26777 0.00484045 0)
(0.301058 -0.002548 0)
(0.26275 -0.000972639 0)
(0.292429 0.00558227 0)
(0.266227 -0.00638107 0)
(0.295395 0.00317833 0)
(0.253022 0.00160196 0)
(0.317008 -0.00470952 0)
(0.227414 0.00468428 0)
(0.346145 -0.00344272 0)
(0.212651 -0.000231563 0)
(0.346632 0.00537346 0)
(0.226334 -0.00800899 0)
(0.307226 0.00931574 0)
(0.415292 0.00539 0)
(0.458375 -0.00744651 0)
(0.438295 -0.00718513 0)
(0.431754 0.0154162 0)
(0.434381 -0.000933765 0)
(0.452721 -0.0120544 0)
(0.412975 0.00761669 0)
(0.490148 -0.00452124 0)
(0.39915 -0.000676312 0)
(0.476771 0.00907603 0)
(0.419217 -0.0113985 0)
(0.462502 0.00692832 0)
(0.412955 0.000188895 0)
(0.492503 -0.00621036 0)
(0.369924 0.00690585 0)
(0.53585 -0.00652045 0)
(0.355594 0.00173189 0)
(0.5207 0.00489878 0)
(0.411519 -0.00722357 0)
(0.435901 0.00538549 0)
(0.545775 0.00654619 0)
(0.616408 -0.0101051 0)
(0.573853 -0.00816253 0)
(0.565871 0.02113 0)
(0.578861 -0.00294753 0)
(0.604138 -0.013971 0)
(0.529793 0.00879876 0)
(0.662199 -0.00584032 0)
(0.5233 0.000614031 0)
(0.625231 0.0106893 0)
(0.576629 -0.0142987 0)
(0.587852 0.00981179 0)
(0.577044 -0.000624003 0)
(0.631506 -0.00694821 0)
(0.512362 0.00948742 0)
(0.686859 -0.0107192 0)
(0.501134 0.00616621 0)
(0.649607 0.00088682 0)
(0.590718 -0.00403001 0)
(0.538539 0.0021493 0)
(0.65372 0.00698858 0)
(0.744645 -0.0147459 0)
(0.705997 -0.00587293 0)
(0.679033 0.0272704 0)
(0.690121 -0.0084697 0)
(0.73578 -0.0133192 0)
(0.6211 0.00872773 0)
(0.791168 -0.0101776 0)
(0.650882 0.00595346 0)
(0.722468 0.00839483 0)
(0.728955 -0.0153725 0)
(0.681451 0.0133352 0)
(0.7108 -0.00440858 0)
(0.750356 -0.00508265 0)
(0.627731 0.0111363 0)
(0.806455 -0.016221 0)
(0.634459 0.0138924 0)
(0.740319 -0.00647269 0)
(0.741226 -0.00061297 0)
(0.635061 0.00496361 0)
(0.750274 0.00872974 0)
(0.834435 -0.0228619 0)
(0.818433 -0.00393826 0)
(0.783128 0.0364548 0)
(0.777765 -0.0159399 0)
(0.844032 -0.0115697 0)
(0.707617 0.0108709 0)
(0.869195 -0.0200095 0)
(0.768752 0.0139165 0)
(0.787045 0.00453089 0)
(0.84608 -0.0183083 0)
(0.765678 0.0199347 0)
(0.804422 -0.0113381 0)
(0.847299 -0.00236125 0)
(0.72111 0.0136358 0)
(0.888476 -0.024693 0)
(0.747548 0.0234282 0)
(0.808502 -0.0136116 0)
(0.849102 -0.000311975 0)
(0.728285 0.0124239 0)
(0.835989 0.0117772 0)
(0.900256 -0.0314954 0)
(0.899334 -0.0042709 0)
(0.871842 0.0474331 0)
(0.852501 -0.0229604 0)
(0.925762 -0.0103329 0)
(0.796889 0.0167744 0)
(0.920598 -0.0319348 0)
(0.863262 0.0223384 0)
(0.841691 0.00138209 0)
(0.924815 -0.0238564 0)
(0.840124 0.0284679 0)
(0.874286 -0.0191476 0)
(0.919747 0.000282733 0)
(0.80251 0.0173769 0)
(0.94469 -0.0339899 0)
(0.835117 0.0327564 0)
(0.868179 -0.0184518 0)
(0.920908 -0.00354859 0)
(0.810392 0.02244 0)
(0.905694 0.0149527 0)
(0.950759 -0.0385352 0)
(0.952837 -0.00562641 0)
(0.938854 0.0577696 0)
(0.913563 -0.0286683 0)
(0.97907 -0.0105258 0)
(0.876814 0.0243526 0)
(0.959355 -0.0428438 0)
(0.932494 0.030088 0)
(0.893443 -0.000351431 0)
(0.975074 -0.0300471 0)
(0.900202 0.0372206 0)
(0.927726 -0.0267398 0)
(0.968044 0.0025193 0)
(0.87168 0.0211479 0)
(0.983615 -0.0419087 0)
(0.898601 0.0406127 0)
(0.921462 -0.02123 0)
(0.965028 -0.00772595 0)
(0.877937 0.0321251 0)
(0.956705 0.0174387 0)
(0.985555 -0.0434084 0)
(0.983712 -0.0068914 0)
(0.983028 0.0656924 0)
(0.957986 -0.0324384 0)
(1.00606 -0.0115081 0)
(0.938094 0.0313332 0)
(0.984783 -0.0510989 0)
(0.976335 0.0364177 0)
(0.938824 -0.000839609 0)
(1.0018 -0.0352198 0)
(0.944593 0.0448373 0)
(0.965237 -0.0330355 0)
(0.9931 0.00466172 0)
(0.925746 0.02363 0)
(1.00478 -0.047057 0)
(0.939775 0.0460883 0)
(0.963989 -0.0222509 0)
(0.984974 -0.0113932 0)
(0.930071 0.0396055 0)
(0.988084 0.0187963 0)
(1.00254 -0.0459168 0)
(0.994226 -0.00758475 0)
(1.00501 0.0701021 0)
(0.983927 -0.0338355 0)
(1.00996 -0.0123908 0)
(0.978217 0.0360069 0)
(0.994511 -0.0556027 0)
(0.995461 0.0405284 0)
(0.972812 -0.000520363 0)
(1.00573 -0.0382656 0)
(0.972875 0.049987 0)
(0.985555 -0.0369585 0)
(0.996657 0.00698095 0)
(0.963076 0.0241361 0)
(1.00665 -0.0484902 0)
(0.960778 0.0484989 0)
(0.9907 -0.0219575 0)
(0.983268 -0.0136824 0)
(0.965574 0.0437055 0)
(0.999163 0.0187781 0)
(1.00037 -0.0459211 0)
(0.984971 -0.00725319 0)
(1.0059 0.0705127 0)
(0.990217 -0.0326708 0)
(0.99289 -0.0128068 0)
(0.997384 0.037052 0)
(0.986859 -0.0555533 0)
(0.991536 0.0417062 0)
(0.991369 -1.36632e-05 0)
(0.986762 -0.0381162 0)
(0.984773 0.0515651 0)
(0.986405 -0.0377255 0)
(0.980817 0.0093142 0)
(0.982211 0.0223994 0)
(0.988787 -0.0459665 0)
(0.964235 0.0475672 0)
(0.998067 -0.0208022 0)
(0.963432 -0.013823 0)
(0.98287 0.0436196 0)
(0.989173 0.0173893 0)
(0.978402 -0.043379 0)
(0.955421 -0.00572162 0)
(0.987028 0.0669106 0)
(0.975778 -0.0292779 0)
(0.956532 -0.0125572 0)
(0.99661 0.0342214 0)
(0.959721 -0.0510025 0)
(0.967196 0.0397289 0)
(0.990457 0.000155609 0)
(0.945696 -0.0345431 0)
(0.979968 0.0488349 0)
(0.965495 -0.0351224 0)
(0.948227 0.010906 0)
(0.981526 0.0189064 0)
(0.951842 -0.0401924 0)
(0.952428 0.0435253 0)
(0.984101 -0.0187563 0)
(0.928826 -0.0120692 0)
(0.980965 0.0395069 0)
(0.957717 0.0148491 0)
(0.935679 -0.0384278 0)
(0.904591 -0.00339748 0)
(0.950367 0.0596871 0)
(0.938744 -0.0240973 0)
(0.903778 -0.0120933 0)
(0.976447 0.0283673 0)
(0.910654 -0.0428565 0)
(0.926624 0.0348515 0)
(0.965402 0.000325083 0)
(0.885388 -0.02858 0)
(0.958272 0.0420618 0)
(0.921372 -0.0296446 0)
(0.903005 0.0107313 0)
(0.959885 0.0145612 0)
(0.897591 -0.0325629 0)
(0.927352 0.0367494 0)
(0.94793 -0.0157043 0)
(0.882229 -0.0095674 0)
(0.959808 0.0327321 0)
(0.904977 0.0115235 0)
(0.869566 -0.0313484 0)
(0.833955 -0.00112107 0)
(0.898612 0.0496769 0)
(0.877225 -0.0176206 0)
(0.84067 -0.0123629 0)
(0.935027 0.0210577 0)
(0.838615 -0.0324922 0)
(0.874521 0.027532 0)
(0.91177 0.00126027 0)
(0.8118 -0.0220897 0)
(0.919897 0.0326453 0)
(0.85453 -0.0221846 0)
(0.850792 0.00828951 0)
(0.915708 0.0104371 0)
(0.82885 -0.0243218 0)
(0.889939 0.0279984 0)
(0.888628 -0.0114536 0)
(0.826632 -0.00759426 0)
(0.918941 0.0251107 0)
(0.829856 0.00819914 0)
(0.777415 -0.0226749 0)
(0.752306 -0.000851199 0)
(0.83259 0.0381387 0)
(0.792118 -0.0108091 0)
(0.77276 -0.0141207 0)
(0.864956 0.0148211 0)
(0.746371 -0.0217267 0)
(0.81221 0.0187337 0)
(0.828003 0.00351362 0)
(0.733656 -0.017107 0)
(0.86209 0.0226 0)
(0.767681 -0.0140195 0)
(0.79313 0.00365344 0)
(0.843955 0.00795087 0)
(0.748889 -0.0169197 0)
(0.835742 0.0186626 0)
(0.805347 -0.00611823 0)
(0.763432 -0.00692509 0)
(0.854122 0.0181565 0)
(0.72796 0.00614106 0)
(0.665642 -0.0144056 0)
(0.669244 -0.00399665 0)
(0.74251 0.0276546 0)
(0.687523 -0.00488865 0)
(0.693359 -0.0162608 0)
(0.756023 0.0119362 0)
(0.642932 -0.0130432 0)
(0.732128 0.00999403 0)
(0.717249 0.00649065 0)
(0.65337 -0.0147235 0)
(0.772152 0.0144775 0)
(0.663807 -0.00672734 0)
(0.718593 -0.0013625 0)
(0.738182 0.00767239 0)
(0.659534 -0.0118045 0)
(0.752388 0.0107528 0)
(0.699088 -0.000695565 0)
(0.686303 -0.00754745 0)
(0.757128 0.0130879 0)
(0.599344 0.00550045 0)
(0.548586 -0.00937643 0)
(0.570025 -0.00739055 0)
(0.612592 0.0210946 0)
(0.568724 -0.000889048 0)
(0.584635 -0.016039 0)
(0.612808 0.0111995 0)
(0.535748 -0.00828174 0)
(0.617158 0.00387638 0)
(0.585396 0.00864509 0)
(0.556497 -0.0133148 0)
(0.637962 0.0100193 0)
(0.547082 -0.00179609 0)
(0.609875 -0.00466608 0)
(0.601558 0.00827317 0)
(0.556227 -0.00899591 0)
(0.628138 0.00588785 0)
(0.573578 0.00316663 0)
(0.582787 -0.0082244 0)
(0.624826 0.0100782 0)
(0.452814 0.00439805 0)
(0.420064 -0.0064177 0)
(0.431728 -0.00692625 0)
(0.454469 0.0158416 0)
(0.437839 0.00059202 0)
(0.441311 -0.0126543 0)
(0.453894 0.00912785 0)
(0.412672 -0.00563033 0)
(0.4627 0.00132625 0)
(0.440467 0.0081023 0)
(0.428273 -0.0106537 0)
(0.471907 0.00723205 0)
(0.418629 9.38645e-05 0)
(0.46231 -0.00517164 0)
(0.446999 0.00763572 0)
(0.42914 -0.00691149 0)
(0.46824 0.00357535 0)
(0.434668 0.0041173 0)
(0.44707 -0.00750498 0)
(0.466294 0.00776129 0)
(0.288603 0.00272953 0)
(0.268959 -0.00325448 0)
(0.264894 -0.00504756 0)
(0.284001 0.00902681 0)
(0.286958 0.00148871 0)
(0.274644 -0.00785074 0)
(0.284048 0.00528527 0)
(0.264593 -0.00305664 0)
(0.285849 -0.000379873 0)
(0.282152 0.00556288 0)
(0.271995 -0.00653058 0)
(0.29112 0.00391893 0)
(0.271326 0.00097331 0)
(0.287929 -0.00384054 0)
(0.281916 0.00505178 0)
(0.275655 -0.0042687 0)
(0.289164 0.0016737 0)
(0.281063 0.00317584 0)
(0.282988 -0.00503707 0)
(0.292463 0.00470168 0)
(0.105066 0.000923171 0)
(0.0994769 -0.000929748 0)
(0.0827871 -0.00182543 0)
(0.0963537 0.00265809 0)
(0.112084 0.000742217 0)
(0.0955285 -0.00254012 0)
(0.0989538 0.00156017 0)
(0.0952333 -0.000938128 0)
(0.0953777 -0.000492725 0)
(0.104402 0.00189267 0)
(0.0964168 -0.00206955 0)
(0.0983888 0.00113955 0)
(0.101033 0.000545889 0)
(0.0988523 -0.00139864 0)
(0.101665 0.00162389 0)
(0.0994392 -0.00137435 0)
(0.0981046 0.000419102 0)
(0.104767 0.00111188 0)
(0.0991052 -0.00165641 0)
(0.103008 0.00140138 0)
(0.0609737 -0.0195402 0)
(0.0701367 0.016899 0)
(0.275493 0.0151683 0)
(0.0133765 0.00452012 0)
(0.34205 0.0393963 0)
(0.110566 0.0133908 0)
(0.443101 -0.0430434 0)
(0.191262 0.00649412 0)
(0.532918 -0.0744178 0)
(0.361847 0.00426993 0)
(0.443112 -0.0400639 0)
(0.596162 -0.0738442 0)
(0.53633 -0.062529 0)
(0.650725 -0.060344 0)
(0.608673 -0.018908 0)
(0.698481 -0.101964 0)
(0.816739 -0.142698 0)
(0.666773 -0.0443282 0)
(0.705726 -0.043062 0)
(0.927673 -0.250435 0)
(0.884371 -0.399082 0)
(0.732908 -0.4076 0)
(0.661456 -0.310114 0)
(0.607825 -0.1646 0)
(0.723672 -0.0307486 0)
(0.676683 0.0131976 0)
(0.79109 0.0169102 0)
(0.673588 -0.00548183 0)
(0.575484 0.0340432 0)
(0.606006 0.0536816 0)
(0.320981 -0.0868669 0)
(0.501551 -0.0881099 0)
(0.641774 0.0232219 0)
(0.582313 0.11115 0)
(0.633792 0.255884 0)
(0.666453 0.329857 0)
(0.565251 0.317313 0)
(0.465413 0.294065 0)
(0.460052 0.218059 0)
(0.462569 0.140784 0)
(0.468806 0.0680725 0)
(0.525443 -0.0825057 0)
(0.561332 -0.21068 0)
(0.575636 -0.22958 0)
(0.549922 -0.215657 0)
(0.530742 -0.210414 0)
(0.500883 -0.184257 0)
(0.458187 -0.0921258 0)
(0.484968 0.0356246 0)
(0.519038 0.126255 0)
(0.476713 0.198115 0)
(0.46231 0.209217 0)
(0.486951 0.156585 0)
(0.494723 0.0699103 0)
(0.551443 -0.0725151 0)
(0.56876 -0.186716 0)
(0.538647 -0.200424 0)
(0.507399 -0.140949 0)
(0.486022 -0.0470189 0)
(0.495564 0.0563965 0)
(0.506063 0.122626 0)
(0.494502 0.116567 0)
(0.500885 0.038425 0)
(0.520918 -0.0536053 0)
(0.518123 -0.101559 0)
(0.502509 -0.0850606 0)
(0.512869 -0.00782611 0)
(0.533185 0.0708002 0)
(0.53484 0.0960383 0)
(0.524945 0.0743448 0)
(0.513058 0.0387823 0)
(0.504276 0.00775396 0)
(0.501311 -0.0140856 0)
(0.501188 -0.0253757 0)
(0.499623 -0.0266065 0)
(0.495638 -0.0209146 0)
(0.490124 -0.0127445 0)
(0.483552 -0.00578528 0)
(0.475963 -0.0016572 0)
(0.467558 -7.81551e-05 0)
(0.458812 4.74152e-05 0)
(0.450323 -0.000323613 0)
(0.442634 -0.000680466 0)
(0.436113 -0.000863842 0)
(0.43091 -0.000884264 0)
(0.426984 -0.000800059 0)
(0.424168 -0.000665708 0)
(0.422241 -0.000519127 0)
(0.420977 -0.000382989 0)
(0.420181 -0.00026864 0)
(0.419698 -0.000179683 0)
(0.419416 -0.000114857 0)
(0.419256 -7.02746e-05 0)
(0.419169 -4.1245e-05 0)
(0.419123 -2.32388e-05 0)
(0.419099 -1.2602e-05 0)
(0.419087 -6.59072e-06 0)
(0.419082 -3.2958e-06 0)
(0.419079 -1.67774e-06 0)
(0.419078 -6.36948e-07 0)
(0.296588 -0.00678966 0)
(0.15406 -0.00569561 0)
(0.399824 0.0154246 0)
(0.156236 -0.0047202 0)
(0.414363 0.0256692 0)
(0.3158 0.0125125 0)
(0.538787 -0.0550183 0)
(0.339666 -0.00162074 0)
(0.644663 -0.0837618 0)
(0.502779 -0.00206841 0)
(0.572148 -0.0458665 0)
(0.699934 -0.0835224 0)
(0.652894 -0.0721885 0)
(0.748425 -0.0729626 0)
(0.717286 -0.024578 0)
(0.789449 -0.102149 0)
(0.873142 -0.148519 0)
(0.730013 -0.0435135 0)
(0.780669 -0.053899 0)
(0.9487 -0.255686 0)
(0.855729 -0.38583 0)
(0.682331 -0.386519 0)
(0.594613 -0.296953 0)
(0.552117 -0.167204 0)
(0.649495 -0.0413745 0)
(0.607078 0.00756812 0)
(0.712481 0.0189733 0)
(0.573238 0.010332 0)
(0.528685 0.0499172 0)
(0.507471 0.069952 0)
(0.231388 -0.0908715 0)
(0.453214 -0.108376 0)
(0.609453 0.0158974 0)
(0.543149 0.10941 0)
(0.590363 0.252405 0)
(0.640303 0.331821 0)
(0.562325 0.327211 0)
(0.478565 0.302424 0)
(0.483297 0.21879 0)
(0.490699 0.139123 0)
(0.502617 0.066085 0)
(0.56322 -0.0872724 0)
(0.592754 -0.215433 0)
(0.598798 -0.229378 0)
(0.55993 -0.21188 0)
(0.524095 -0.20657 0)
(0.487904 -0.177967 0)
(0.442671 -0.0890215 0)
(0.466187 0.0327934 0)
(0.501375 0.125717 0)
(0.467037 0.199961 0)
(0.465115 0.206696 0)
(0.495318 0.154355 0)
(0.504941 0.0672228 0)
(0.566648 -0.0765681 0)
(0.577442 -0.18691 0)
(0.535273 -0.196793 0)
(0.496701 -0.136224 0)
(0.471871 -0.0447541 0)
(0.481714 0.0550623 0)
(0.49532 0.121527 0)
(0.48849 0.116319 0)
(0.500164 0.037013 0)
(0.518633 -0.054753 0)
(0.511404 -0.100592 0)
(0.49244 -0.0839154 0)
(0.499803 -0.0089855 0)
(0.520855 0.0689532 0)
(0.527377 0.0956837 0)
(0.523255 0.0753306 0)
(0.515805 0.0400112 0)
(0.509311 0.0084793 0)
(0.507037 -0.0138522 0)
(0.506561 -0.0252167 0)
(0.503805 -0.0261991 0)
(0.498198 -0.0202526 0)
(0.49121 -0.011939 0)
(0.483691 -0.00489163 0)
(0.475701 -0.000687777 0)
(0.467253 0.000938355 0)
(0.45862 0.00106052 0)
(0.450272 0.000623805 0)
(0.442698 0.000149561 0)
(0.43625 -0.000180565 0)
(0.431079 -0.000353248 0)
(0.42715 -0.000408469 0)
(0.424307 -0.000390397 0)
(0.422339 -0.000333854 0)
(0.421031 -0.000263263 0)
(0.420194 -0.000194162 0)
(0.419679 -0.000134999 0)
(0.419371 -8.89577e-05 0)
(0.419194 -5.57626e-05 0)
(0.419096 -3.33656e-05 0)
(0.419043 -1.91002e-05 0)
(0.419015 -1.04875e-05 0)
(0.419001 -5.5471e-06 0)
(0.418994 -2.79504e-06 0)
(0.41899 -1.4359e-06 0)
(0.418989 -5.4806e-07 0)
(0.513776 0.00134452 0)
(0.320199 -0.00595564 0)
(0.544525 0.0178613 0)
(0.387405 -0.0047735 0)
(0.484675 0.00901807 0)
(0.494136 0.00191629 0)
(0.659625 -0.0606829 0)
(0.507251 -0.00935829 0)
(0.734606 -0.0910696 0)
(0.633987 -0.0131276 0)
(0.697426 -0.0491996 0)
(0.796063 -0.0881306 0)
(0.757052 -0.0804044 0)
(0.835076 -0.0837411 0)
(0.802761 -0.029042 0)
(0.860317 -0.0988887 0)
(0.917155 -0.149409 0)
(0.778916 -0.0437072 0)
(0.830151 -0.0627719 0)
(0.950399 -0.253131 0)
(0.814264 -0.36595 0)
(0.62295 -0.362063 0)
(0.520627 -0.282554 0)
(0.481022 -0.16832 0)
(0.555578 -0.0502788 0)
(0.521184 0.00257939 0)
(0.616594 0.0227451 0)
(0.480048 0.022693 0)
(0.47921 0.0649656 0)
(0.406799 0.0887813 0)
(0.16688 -0.0987148 0)
(0.418524 -0.133059 0)
(0.574164 0.00844782 0)
(0.507359 0.10887 0)
(0.546996 0.24764 0)
(0.609872 0.330326 0)
(0.554762 0.33391 0)
(0.487532 0.308436 0)
(0.503795 0.218025 0)
(0.51611 0.136688 0)
(0.533375 0.0632382 0)
(0.597726 -0.0920429 0)
(0.621166 -0.218902 0)
(0.61827 -0.22741 0)
(0.566149 -0.206032 0)
(0.513573 -0.201093 0)
(0.471797 -0.170974 0)
(0.425 -0.085445 0)
(0.445436 0.0300803 0)
(0.481261 0.124643 0)
(0.454493 0.200321 0)
(0.465536 0.202837 0)
(0.500495 0.151658 0)
(0.512524 0.0638812 0)
(0.579141 -0.0805801 0)
(0.582312 -0.185764 0)
(0.527975 -0.191687 0)
(0.482531 -0.130752 0)
(0.455221 -0.0423397 0)
(0.465479 0.05356 0)
(0.48153 0.119889 0)
(0.479711 0.115253 0)
(0.496721 0.0352664 0)
(0.513114 -0.0554831 0)
(0.501292 -0.0990519 0)
(0.47916 -0.0822532 0)
(0.483742 -0.00995812 0)
(0.505308 0.0667303 0)
(0.516384 0.0945974 0)
(0.517934 0.0756321 0)
(0.514964 0.0408042 0)
(0.510902 0.00902499 0)
(0.509567 -0.0136449 0)
(0.508948 -0.0249642 0)
(0.5051 -0.0256179 0)
(0.497913 -0.0194036 0)
(0.489495 -0.0109917 0)
(0.481098 -0.00392247 0)
(0.47282 0.000295939 0)
(0.464503 0.00193803 0)
(0.456222 0.00204338 0)
(0.448308 0.00153864 0)
(0.441171 0.000950127 0)
(0.435119 0.000478908 0)
(0.430272 0.000160531 0)
(0.426586 -2.78388e-05 0)
(0.423909 -0.000120907 0)
(0.422044 -0.000150786 0)
(0.420793 -0.000143588 0)
(0.419984 -0.000118717 0)
(0.419478 -8.90659e-05 0)
(0.419173 -6.19158e-05 0)
(0.418994 -4.03628e-05 0)
(0.418893 -2.48656e-05 0)
(0.418838 -1.45614e-05 0)
(0.418808 -8.13099e-06 0)
(0.418793 -4.36396e-06 0)
(0.418786 -2.21924e-06 0)
(0.418782 -1.15332e-06 0)
(0.41878 -4.42897e-07 0)
(0.680453 0.00373151 0)
(0.492714 -0.0026994 0)
(0.649229 0.00825485 0)
(0.601897 -0.00398718 0)
(0.597366 0.00548367 0)
(0.647582 -0.0116698 0)
(0.750157 -0.0679302 0)
(0.65514 -0.0172482 0)
(0.817375 -0.0924273 0)
(0.744346 -0.0257706 0)
(0.803381 -0.0514258 0)
(0.868359 -0.089631 0)
(0.838256 -0.0890164 0)
(0.898844 -0.0931606 0)
(0.8614 -0.0323488 0)
(0.912277 -0.0940772 0)
(0.942774 -0.146127 0)
(0.804202 -0.044183 0)
(0.857702 -0.0693351 0)
(0.934368 -0.24449 0)
(0.761492 -0.340456 0)
(0.556489 -0.334302 0)
(0.440326 -0.265814 0)
(0.394608 -0.166215 0)
(0.444366 -0.0568868 0)
(0.424456 -0.0025919 0)
(0.515239 0.0257456 0)
(0.400974 0.0312823 0)
(0.424994 0.0800161 0)
(0.312996 0.107943 0)
(0.131856 -0.110387 0)
(0.389649 -0.158386 0)
(0.5305 0.00223085 0)
(0.470269 0.109217 0)
(0.503475 0.242395 0)
(0.575605 0.326153 0)
(0.542839 0.337773 0)
(0.492569 0.312155 0)
(0.521624 0.215944 0)
(0.538839 0.133683 0)
(0.56092 0.0598403 0)
(0.628774 -0.0968024 0)
(0.646427 -0.221032 0)
(0.633782 -0.223589 0)
(0.568381 -0.198129 0)
(0.499135 -0.19406 0)
(0.452613 -0.163413 0)
(0.405181 -0.081538 0)
(0.422743 0.0275252 0)
(0.458774 0.123085 0)
(0.439112 0.199145 0)
(0.463759 0.1977 0)
(0.502367 0.148496 0)
(0.517862 0.0598809 0)
(0.588956 -0.0844543 0)
(0.583246 -0.183194 0)
(0.51678 -0.185139 0)
(0.465022 -0.124635 0)
(0.436203 -0.0398371 0)
(0.446932 0.0519175 0)
(0.464804 0.117754 0)
(0.468353 0.113359 0)
(0.490609 0.0332154 0)
(0.504437 -0.055757 0)
(0.487931 -0.0969347 0)
(0.462818 -0.0801445 0)
(0.464812 -0.0106971 0)
(0.486704 0.0641793 0)
(0.502033 0.0928109 0)
(0.50913 0.0752628 0)
(0.510614 0.041153 0)
(0.509089 0.00936631 0)
(0.508951 -0.0134923 0)
(0.508379 -0.0246355 0)
(0.503496 -0.0248706 0)
(0.494748 -0.0183718 0)
(0.484946 -0.00990907 0)
(0.475758 -0.00289386 0)
(0.467326 0.00127647 0)
(0.459326 0.00289683 0)
(0.451642 0.00296493 0)
(0.444456 0.00238514 0)
(0.438074 0.0016842 0)
(0.432726 0.00107963 0)
(0.428482 0.00062668 0)
(0.42527 0.000317225 0)
(0.422939 0.000124038 0)
(0.421309 1.65934e-05 0)
(0.420208 -3.32071e-05 0)
(0.419489 -4.83605e-05 0)
(0.419033 -4.56888e-05 0)
(0.418755 -3.60353e-05 0)
(0.418589 -2.54139e-05 0)
(0.418495 -1.65044e-05 0)
(0.418442 -1.0031e-05 0)
(0.418414 -5.7525e-06 0)
(0.418399 -3.15023e-06 0)
(0.418391 -1.62572e-06 0)
(0.418388 -8.55312e-07 0)
(0.418386 -3.31807e-07 0)
(0.792659 -0.00426138 0)
(0.6481 0.00713107 0)
(0.734457 0.000491413 0)
(0.748649 -0.0086176 0)
(0.705517 0.0074788 0)
(0.775898 -0.0221602 0)
(0.827831 -0.070797 0)
(0.773753 -0.0246101 0)
(0.8858 -0.0911658 0)
(0.829309 -0.039083 0)
(0.884919 -0.0534212 0)
(0.920039 -0.0874889 0)
(0.901612 -0.0956645 0)
(0.942733 -0.0991469 0)
(0.896315 -0.0343095 0)
(0.946272 -0.0884636 0)
(0.950668 -0.138499 0)
(0.811701 -0.0439877 0)
(0.869303 -0.0742331 0)
(0.903362 -0.230036 0)
(0.699232 -0.309843 0)
(0.484531 -0.303793 0)
(0.355571 -0.246605 0)
(0.300124 -0.160964 0)
(0.32975 -0.0622781 0)
(0.33084 -0.00906142 0)
(0.420824 0.0260379 0)
(0.336812 0.0364443 0)
(0.365226 0.0962033 0)
(0.231485 0.126032 0)
(0.119718 -0.127205 0)
(0.342486 -0.181828 0)
(0.475045 -0.00223541 0)
(0.426183 0.109754 0)
(0.45946 0.236754 0)
(0.538296 0.319314 0)
(0.526897 0.338612 0)
(0.493615 0.313187 0)
(0.536352 0.212151 0)
(0.558582 0.130047 0)
(0.585117 0.0556588 0)
(0.656337 -0.101677 0)
(0.668397 -0.221781 0)
(0.645046 -0.217816 0)
(0.566447 -0.188184 0)
(0.480792 -0.185517 0)
(0.43041 -0.155456 0)
(0.38326 -0.0773792 0)
(0.398167 0.0251856 0)
(0.433951 0.121104 0)
(0.420943 0.196419 0)
(0.459954 0.191346 0)
(0.500818 0.144851 0)
(0.521405 0.0551349 0)
(0.596061 -0.0880338 0)
(0.580105 -0.179103 0)
(0.501756 -0.177195 0)
(0.444348 -0.117999 0)
(0.414918 -0.0372623 0)
(0.426092 0.0501985 0)
(0.445267 0.115133 0)
(0.454655 0.110629 0)
(0.481909 0.0309759 0)
(0.492691 -0.0555182 0)
(0.471494 -0.0942813 0)
(0.443578 -0.0776085 0)
(0.443164 -0.0112494 0)
(0.465216 0.0613313 0)
(0.484525 0.090359 0)
(0.497029 0.0742263 0)
(0.502862 0.0410619 0)
(0.503967 0.00946026 0)
(0.505304 -0.0134235 0)
(0.504921 -0.024242 0)
(0.498997 -0.0239592 0)
(0.488683 -0.0171611 0)
(0.477559 -0.00870217 0)
(0.467695 -0.00181611 0)
(0.459268 0.00223897 0)
(0.451794 0.00378876 0)
(0.444964 0.00379314 0)
(0.438801 0.00312781 0)
(0.43348 0.00231609 0)
(0.429122 0.00158883 0)
(0.425727 0.0010174 0)
(0.423187 0.000604651 0)
(0.421353 0.000327884 0)
(0.420067 0.000156463 0)
(0.419192 5.98012e-05 0)
(0.418613 1.15966e-05 0)
(0.418241 -8.23007e-06 0)
(0.418009 -1.33633e-05 0)
(0.41787 -1.21267e-05 0)
(0.417789 -8.96669e-06 0)
(0.417743 -5.89084e-06 0)
(0.417718 -3.55171e-06 0)
(0.417705 -2.01404e-06 0)
(0.417698 -1.06414e-06 0)
(0.417695 -5.70593e-07 0)
(0.417693 -2.24881e-07 0)
(0.869424 -0.0167007 0)
(0.764213 0.0158656 0)
(0.811605 -0.00370414 0)
(0.850078 -0.0161503 0)
(0.79474 0.0104467 0)
(0.872939 -0.0310512 0)
(0.887998 -0.0733638 0)
(0.865378 -0.0318777 0)
(0.937849 -0.0883365 0)
(0.892846 -0.0508451 0)
(0.9429 -0.0550487 0)
(0.952312 -0.0836229 0)
(0.94566 -0.100943 0)
(0.964768 -0.102281 0)
(0.912181 -0.0353343 0)
(0.963144 -0.0826272 0)
(0.941998 -0.12713 0)
(0.808702 -0.0435755 0)
(0.86938 -0.0769757 0)
(0.858315 -0.210211 0)
(0.628861 -0.275233 0)
(0.410184 -0.271353 0)
(0.272371 -0.22579 0)
(0.210699 -0.154357 0)
(0.229753 -0.0684452 0)
(0.251746 -0.01769 0)
(0.339081 0.0234114 0)
(0.281846 0.0397393 0)
(0.300221 0.112957 0)
(0.163543 0.141509 0)
(0.112988 -0.146953 0)
(0.257962 -0.201421 0)
(0.405042 -0.00687751 0)
(0.373245 0.109063 0)
(0.413161 0.230606 0)
(0.498053 0.310541 0)
(0.506985 0.336743 0)
(0.490772 0.311547 0)
(0.548098 0.20694 0)
(0.57542 0.125988 0)
(0.60616 0.0507154 0)
(0.680559 -0.106604 0)
(0.686861 -0.221055 0)
(0.651721 -0.210016 0)
(0.560127 -0.176233 0)
(0.458606 -0.175574 0)
(0.405194 -0.147243 0)
(0.359282 -0.0731093 0)
(0.371789 0.0230759 0)
(0.406811 0.118744 0)
(0.400137 0.192072 0)
(0.454262 0.183882 0)
(0.495782 0.140719 0)
(0.523627 0.0495244 0)
(0.600348 -0.0911375 0)
(0.572757 -0.173413 0)
(0.483034 -0.167945 0)
(0.420696 -0.110966 0)
(0.391416 -0.0347049 0)
(0.402923 0.0484201 0)
(0.423076 0.112025 0)
(0.438858 0.107074 0)
(0.470712 0.0285222 0)
(0.478041 -0.0547693 0)
(0.452201 -0.091118 0)
(0.421631 -0.0746739 0)
(0.418964 -0.0115967 0)
(0.441037 0.0582314 0)
(0.464084 0.087281 0)
(0.481839 0.0725443 0)
(0.491843 0.0405232 0)
(0.495695 0.00928966 0)
(0.498797 -0.0134628 0)
(0.498656 -0.0237896 0)
(0.491605 -0.0228806 0)
(0.479708 -0.0157763 0)
(0.467352 -0.00738323 0)
(0.456973 -0.000708658 0)
(0.448751 0.00315818 0)
(0.44204 0.00458505 0)
(0.436338 0.00449507 0)
(0.43149 0.00373204 0)
(0.427509 0.00281286 0)
(0.424387 0.00197788 0)
(0.422034 0.00130958 0)
(0.420313 0.000816864 0)
(0.41908 0.000477879 0)
(0.418211 0.000259917 0)
(0.417611 0.000129416 0)
(0.417205 5.72111e-05 0)
(0.416938 2.08032e-05 0)
(0.416767 4.54959e-06 0)
(0.416662 -1.43179e-06 0)
(0.416599 -2.79133e-06 0)
(0.416563 -2.44399e-06 0)
(0.416543 -1.69316e-06 0)
(0.416532 -1.04227e-06 0)
(0.416527 -5.78741e-07 0)
(0.416524 -3.22062e-07 0)
(0.416522 -1.30744e-07 0)
(0.926966 -0.0294768 0)
(0.84701 0.0220418 0)
(0.879799 -0.0040529 0)
(0.918517 -0.0245725 0)
(0.86579 0.013203 0)
(0.942311 -0.0375673 0)
(0.932376 -0.0747105 0)
(0.932585 -0.0375279 0)
(0.971793 -0.0844358 0)
(0.937234 -0.0597809 0)
(0.977222 -0.0558909 0)
(0.968201 -0.0786559 0)
(0.971394 -0.10387 0)
(0.965777 -0.102054 0)
(0.912623 -0.0359274 0)
(0.963854 -0.0764584 0)
(0.918107 -0.113161 0)
(0.799881 -0.0432632 0)
(0.857304 -0.076968 0)
(0.798886 -0.185648 0)
(0.552871 -0.237763 0)
(0.337173 -0.238357 0)
(0.19815 -0.20523 0)
(0.138299 -0.148495 0)
(0.153436 -0.0763027 0)
(0.187081 -0.0278277 0)
(0.26728 0.018871 0)
(0.228173 0.0425545 0)
(0.230241 0.130286 0)
(0.105708 0.153307 0)
(0.0942215 -0.162307 0)
(0.14297 -0.217529 0)
(0.323963 -0.0141472 0)
(0.310546 0.106271 0)
(0.364241 0.223071 0)
(0.455211 0.299549 0)
(0.483659 0.332125 0)
(0.484489 0.307037 0)
(0.556706 0.200055 0)
(0.589042 0.121385 0)
(0.624207 0.0448446 0)
(0.701594 -0.111623 0)
(0.701479 -0.218746 0)
(0.653398 -0.200128 0)
(0.549187 -0.162356 0)
(0.432739 -0.164318 0)
(0.37696 -0.138927 0)
(0.333315 -0.0688606 0)
(0.343705 0.02122 0)
(0.377268 0.116051 0)
(0.37694 0.186087 0)
(0.446712 0.175404 0)
(0.487235 0.136012 0)
(0.524964 0.0432224 0)
(0.60161 -0.0934851 0)
(0.561077 -0.166059 0)
(0.460795 -0.157495 0)
(0.394268 -0.10364 0)
(0.365689 -0.0322119 0)
(0.377342 0.0466047 0)
(0.398426 0.108414 0)
(0.421216 0.102682 0)
(0.457142 0.0259872 0)
(0.46068 -0.0534791 0)
(0.430287 -0.0874434 0)
(0.397189 -0.0713938 0)
(0.392379 -0.0117557 0)
(0.414359 0.0549073 0)
(0.440962 0.083609 0)
(0.463787 0.0702473 0)
(0.477708 0.0395373 0)
(0.484507 0.00882478 0)
(0.489646 -0.0136273 0)
(0.489654 -0.0232682 0)
(0.481297 -0.0216254 0)
(0.467808 -0.0142234 0)
(0.454373 -0.0059693 0)
(0.443704 0.000396415 0)
(0.435941 0.00400455 0)
(0.430267 0.00525364 0)
(0.425981 0.00503702 0)
(0.422724 0.00416545 0)
(0.420317 0.00314652 0)
(0.418604 0.0022248 0)
(0.417413 0.00148728 0)
(0.416582 0.000942912 0)
(0.415993 0.000566718 0)
(0.415568 0.000322146 0)
(0.415258 0.000172485 0)
(0.415035 8.64255e-05 0)
(0.414879 4.00817e-05 0)
(0.414774 1.68581e-05 0)
(0.414706 6.14885e-06 0)
(0.414664 1.70473e-06 0)
(0.414639 1.23578e-07 0)
(0.414625 -2.82501e-07 0)
(0.414617 -2.92669e-07 0)
(0.414613 -1.99502e-07 0)
(0.414611 -1.25551e-07 0)
(0.41461 -5.5633e-08 0)
(0.968276 -0.0401423 0)
(0.903481 0.0253902 0)
(0.936222 -0.0021107 0)
(0.960359 -0.0323392 0)
(0.920559 0.0149743 0)
(0.987501 -0.0415574 0)
(0.962919 -0.0753669 0)
(0.977096 -0.0417187 0)
(0.988948 -0.0803333 0)
(0.96481 -0.0657229 0)
(0.989325 -0.0556315 0)
(0.970193 -0.0736684 0)
(0.978167 -0.104397 0)
(0.947958 -0.0992315 0)
(0.902051 -0.0366882 0)
(0.948863 -0.0697429 0)
(0.882022 -0.0978759 0)
(0.786574 -0.0428039 0)
(0.830007 -0.0733217 0)
(0.726234 -0.156811 0)
(0.474491 -0.199027 0)
(0.269576 -0.206499 0)
(0.13795 -0.186445 0)
(0.0848893 -0.143991 0)
(0.0948356 -0.0842247 0)
(0.128087 -0.0376485 0)
(0.198497 0.0141125 0)
(0.169753 0.046017 0)
(0.156561 0.14593 0)
(0.0546246 0.160437 0)
(0.0599844 -0.168482 0)
(0.024591 -0.231864 0)
(0.240743 -0.0247302 0)
(0.241595 0.10044 0)
(0.312043 0.213759 0)
(0.40955 0.286853 0)
(0.456432 0.324874 0)
(0.474533 0.299614 0)
(0.562117 0.191674 0)
(0.599432 0.116377 0)
(0.639694 0.0383334 0)
(0.719638 -0.116515 0)
(0.711729 -0.214628 0)
(0.649577 -0.188083 0)
(0.533361 -0.146694 0)
(0.403481 -0.151885 0)
(0.345653 -0.130666 0)
(0.305365 -0.064693 0)
(0.314003 0.0196547 0)
(0.345176 0.11301 0)
(0.351835 0.178422 0)
(0.437199 0.16602 0)
(0.47534 0.130592 0)
(0.525786 0.0361467 0)
(0.599528 -0.0948465 0)
(0.544964 -0.157021 0)
(0.435293 -0.145973 0)
(0.365281 -0.0961004 0)
(0.337666 -0.0298174 0)
(0.349249 0.0447503 0)
(0.371571 0.104236 0)
(0.401983 0.0974936 0)
(0.441348 0.023414 0)
(0.440869 -0.051655 0)
(0.406021 -0.0832835 0)
(0.370484 -0.0677994 0)
(0.363582 -0.0117537 0)
(0.385381 0.0513783 0)
(0.415449 0.07938 0)
(0.443095 0.0673625 0)
(0.460642 0.038107 0)
(0.470723 0.0080361 0)
(0.478083 -0.0139197 0)
(0.477931 -0.0226521 0)
(0.468002 -0.0201808 0)
(0.452959 -0.0125134 0)
(0.438692 -0.00448854 0)
(0.428052 0.00147488 0)
(0.421071 0.0047447 0)
(0.416749 0.00575979 0)
(0.414168 0.00538612 0)
(0.412733 0.00440059 0)
(0.412053 0.00329738 0)
(0.411822 0.00231766 0)
(0.411805 0.00154452 0)
(0.411846 0.000980486 0)
(0.411872 0.000593918 0)
(0.41186 0.000343323 0)
(0.411819 0.000189269 0)
(0.411765 9.93959e-05 0)
(0.411713 4.96445e-05 0)
(0.411669 2.35329e-05 0)
(0.411636 1.05582e-05 0)
(0.411614 4.46393e-06 0)
(0.411599 1.76615e-06 0)
(0.411591 6.49319e-07 0)
(0.411586 2.14518e-07 0)
(0.411584 6.17615e-08 0)
(0.411582 1.199e-08 0)
(0.411581 -2.48405e-09 0)
(0.99225 -0.047015 0)
(0.937888 0.026273 0)
(0.977229 0.000323164 0)
(0.979949 -0.038159 0)
(0.958755 0.0152462 0)
(1.01141 -0.0435407 0)
(0.979722 -0.0753423 0)
(0.999448 -0.0442215 0)
(0.991151 -0.0761912 0)
(0.974786 -0.0685705 0)
(0.980781 -0.0542855 0)
(0.960291 -0.0691145 0)
(0.965555 -0.102219 0)
(0.914752 -0.0944329 0)
(0.882636 -0.0377776 0)
(0.917541 -0.0622111 0)
(0.835938 -0.0824503 0)
(0.76543 -0.0416269 0)
(0.784376 -0.0653578 0)
(0.641897 -0.124973 0)
(0.397168 -0.161059 0)
(0.210893 -0.177352 0)
(0.092571 -0.16998 0)
(0.0427325 -0.139907 0)
(0.0424625 -0.0895167 0)
(0.0671981 -0.045761 0)
(0.127803 0.00974453 0)
(0.105199 0.0499875 0)
(0.0805418 0.159556 0)
(0.00857994 0.163616 0)
(0.0212847 -0.166855 0)
(-0.0707185 -0.242723 0)
(0.166859 -0.0381281 0)