/*--------------------------------*- C++ -*----------------------------------*\
| =========                 |                                                 |
| \\      /  F ield         | OpenFOAM: The Open Source CFD Toolbox           |
|  \\    /   O peration     | Version:  2.4.0                                 |
|   \\  /    A nd           | Web:      www.OpenFOAM.org                      |
|    \\/     M anipulation  |                                                 |
\*---------------------------------------------------------------------------*/
FoamFile
{
    version     2.0;
    format      ascii;
    class       volScalarField;
    location    "0.47";
    object      k;
}
// * * * * * * * * * * * * * * * * * * * * * * * * * * * * * * * * * * * * * //

dimensions      [0 2 -2 0 0 0 0];

internalField   nonuniform List<scalar> 
8800
(
8.11786
10.2675
8.7954
6.81669
5.71423
4.96434
4.53228
4.13978
3.92026
3.66068
3.5461
3.36908
3.29642
3.15521
3.09837
2.98512
2.91064
2.80575
2.72746
2.54879
1.40307
4.35235
5.32098
5.28703
5.13214
4.80398
4.57957
4.28531
4.1218
3.87975
3.77352
3.5905
3.5181
3.375
3.32679
3.21634
3.17038
3.08
3.00304
2.95979
0.0843346
0.729316
1.56678
1.94183
2.27404
2.4377
2.57785
2.59765
2.62454
2.6038
2.58852
2.53851
2.52386
2.47505
2.45956
2.41108
2.40514
2.37
2.35181
2.3071
0.0033506
0.0696863
0.260961
0.420919
0.579382
0.703272
0.838837
0.925884
1.02462
1.0972
1.16654
1.20045
1.26651
1.29979
1.33996
1.36049
1.40619
1.42721
1.46746
1.4675
0.00012303
0.00495616
0.0223418
0.0582119
0.0818858
0.123545
0.162116
0.207945
0.238207
0.291162
0.318194
0.356503
0.384044
0.434108
0.454437
0.497226
0.522248
0.576806
0.602803
0.658827
2.49062e-05
0.000310488
0.00149175
0.00488599
0.00714542
0.0124549
0.0169564
0.0267951
0.0324559
0.045535
0.0517775
0.0641608
0.070847
0.0867137
0.0937111
0.109606
0.118334
0.139645
0.149634
0.175403
2.16641e-05
4.3768e-05
0.000122931
0.00036567
0.000507266
0.000847356
0.00117779
0.0020139
0.00257276
0.00401109
0.00477218
0.00635968
0.00730044
0.00969849
0.0108785
0.0135798
0.0152509
0.0192577
0.0212991
0.0266075
2.10979e-05
2.98557e-05
4.5007e-05
8.07713e-05
9.22922e-05
0.000113311
0.000129466
0.00017259
0.000204044
0.000293446
0.000350375
0.000429437
0.00048591
0.000657297
0.000758729
0.000994457
0.00111543
0.00141601
0.00157548
0.0019899
2.07683e-05
2.8706e-05
4.69798e-05
5.53744e-05
6.00768e-05
7.12415e-05
7.61651e-05
8.08021e-05
8.21543e-05
8.56959e-05
8.95079e-05
9.1192e-05
9.27953e-05
0.000102934
0.000109559
0.000126663
0.000128779
0.000130233
0.000136398
0.0001699
2.06403e-05
2.68564e-05
4.03524e-05
6.05619e-05
6.26236e-05
6.19503e-05
6.20626e-05
6.66489e-05
7.17392e-05
7.32152e-05
7.30379e-05
7.33044e-05
7.37248e-05
7.55473e-05
7.68124e-05
7.78533e-05
7.84545e-05
7.88415e-05
8.18279e-05
8.70724e-05
2.06061e-05
2.69101e-05
4.20588e-05
5.98078e-05
6.10287e-05
6.19654e-05
6.27941e-05
6.58124e-05
7.01651e-05
7.48684e-05
7.66582e-05
7.58109e-05
7.23136e-05
7.20195e-05
7.51222e-05
7.96409e-05
8.10088e-05
8.14291e-05
8.25319e-05
8.62636e-05
2.07926e-05
2.95419e-05
3.92153e-05
5.84284e-05
6.3745e-05
7.03305e-05
7.281e-05
7.75807e-05
8.14345e-05
8.80331e-05
8.90543e-05
9.10981e-05
9.42558e-05
0.000104075
0.000108819
0.000119669
0.000129158
0.000166477
0.000191254
0.000230195
2.10721e-05
3.00952e-05
4.55296e-05
7.92253e-05
8.97098e-05
0.000113404
0.000131786
0.00018164
0.000217389
0.000296687
0.000331853
0.00043401
0.000494949
0.000636111
0.0007518
0.00105134
0.00126316
0.00178268
0.00208313
0.00273257
2.16173e-05
4.34024e-05
0.00012098
0.000329846
0.000481808
0.000882092
0.00123265
0.00213336
0.00272685
0.00400753
0.00463207
0.0063178
0.00727328
0.00951461
0.0109994
0.0146423
0.0166443
0.0213414
0.0239842
0.0309734
2.49979e-05
0.000309313
0.00148292
0.00434316
0.00686431
0.0131788
0.017559
0.0273928
0.0332054
0.045093
0.0507184
0.0645219
0.0713399
0.0863585
0.0945526
0.114112
0.123773
0.146714
0.158561
0.191099
0.000123097
0.00493179
0.0231454
0.0528674
0.0823596
0.131047
0.159207
0.208775
0.242485
0.289148
0.311711
0.363016
0.385827
0.433284
0.456313
0.510662
0.534191
0.592007
0.619296
0.690366
0.00336475
0.0696854
0.260806
0.413264
0.586272
0.707583
0.832431
0.929789
1.02932
1.0944
1.15163
1.22298
1.2575
1.30752
1.33493
1.38815
1.40704
1.45599
1.47638
1.52563
0.0846219
0.728947
1.56684
1.93414
2.28674
2.43107
2.58034
2.59632
2.6278
2.59717
2.58771
2.54374
2.52737
2.47497
2.46212
2.42137
2.41057
2.3802
2.36897
2.34
1.40725
4.34882
5.32087
5.28624
5.13388
4.7971
4.5915
4.27323
4.1299
3.87051
3.78063
3.5754
3.52004
3.36781
3.32783
3.19631
3.16772
3.04674
3.00615
2.90287
8.12253
10.2626
8.79559
6.81661
5.71561
4.95779
4.54182
4.12844
3.92583
3.64916
3.55702
3.34375
3.2986
3.13112
3.09871
2.93153
2.89748
2.71873
2.65459
2.44079
1.77067
1.28661
1.01565
0.863896
0.77327
0.715552
0.672778
0.638872
0.612658
0.588438
0.573496
0.555378
0.547614
0.533607
0.52938
0.519906
0.519757
0.520254
0.524
0.531667
0.544072
0.573292
0.572864
0.5726
0.55761
0.520824
0.468218
0.424344
0.370122
0.323271
0.28002
0.245583
0.216475
0.197129
0.1816
0.173759
0.169045
0.167671
0.168529
0.170785
0.17699
0.180479
0.188174
0.190285
0.194878
0.19487
0.194176
0.19192
0.189841
0.187795
0.188985
0.190519
0.196263
0.199265
0.206826
0.2107
0.221109
0.227236
0.241924
0.250053
0.269786
0.280122
0.30321
0.312471
0.330967
0.336614
0.347261
0.349196
0.353262
0.352728
0.355602
0.353968
0.359735
0.357957
0.367354
0.364002
0.379596
0.377201
0.402487
0.405517
0.433652
0.434609
0.436563
0.425623
0.395732
0.327957
0.293977
0.228064
0.209717
0.17508
0.166242
0.149752
0.142224
0.132224
0.128452
0.121212
0.120925
0.120935
0.123585
0.126678
0.135537
0.143263
0.159852
0.174298
0.194155
0.20491
0.211113
0.210315
0.208207
0.203249
0.192983
0.179202
0.15215
0.119246
0.0798271
0.0487853
0.0297718
0.0182056
0.0114725
0.00771306
0.00571545
0.00481993
0.0044851
0.00449218
0.00460149
0.00492741
0.00546409
0.00638949
0.00842748
0.0105796
0.0132345
0.0162441
0.0206019
0.026482
0.0318398
0.0384739
0.0494577
0.0589429
0.072167
0.0849851
0.0995667
0.11011
0.120621
0.121575
0.119309
0.112957
0.103803
0.0897615
0.0756038
0.061649
0.0490899
0.039709
0.0301174
0.024336
0.0175427
0.0139908
0.0128771
0.0130486
0.0141129
0.017964
0.0270307
0.0477533
0.0837837
0.127851
0.150353
0.157582
0.15515
0.149024
0.14214
0.133135
0.129526
0.121845
0.117456
0.111506
0.106098
0.0939388
0.0878755
0.0819963
0.0731572
0.0675212
0.0652734
0.0708979
0.0837992
0.0891251
0.0841147
0.0797249
0.0768562
0.090253
0.105997
0.139976
0.159533
0.209626
0.225374
0.235222
0.229922
0.210043
0.227809
0.236878
0.379119
0.715186
2.49876
2.03988
1.70377
1.46513
1.29511
1.16958
1.07815
1.00294
0.945753
0.892301
0.852376
0.814223
0.783174
0.757979
0.731155
0.715492
0.690973
0.68132
0.661876
0.656793
0.645121
0.644001
0.638892
0.634699
0.633303
0.62967
0.618477
0.60947
0.597105
0.580558
0.562128
0.541827
0.521265
0.501218
0.483318
0.467429
0.453461
0.44119
0.432191
0.421813
0.418354
0.412519
0.410296
0.405574
0.403525
0.398361
0.395122
0.387911
0.383759
0.375922
0.372634
0.366799
0.365956
0.363124
0.364345
0.363282
0.36624
0.36656
0.370827
0.372333
0.376033
0.376545
0.376947
0.376794
0.37616
0.374349
0.372599
0.367345
0.365776
0.359117
0.359265
0.353347
0.356041
0.350079
0.356817
0.353628
0.365368
0.367267
0.381483
0.387002
0.40391
0.410143
0.428842
0.425215
0.435919
0.411987
0.412823
0.378222
0.36624
0.320015
0.302759
0.262832
0.251589
0.226904
0.221778
0.20997
0.211014
0.211808
0.21864
0.222335
0.233259
0.235189
0.23919
0.235535
0.233227
0.227644
0.221591
0.207576
0.193488
0.168859
0.135632
0.0985816
0.061812
0.0383917
0.0235172
0.0145021
0.00930463
0.00634456
0.00488182
0.00418143
0.00408117
0.00412545
0.00432688
0.00475769
0.00591327
0.00754694
0.00954854
0.0129095
0.0168506
0.0222761
0.0257612
0.0336754
0.0398809
0.0501618
0.0622565
0.0728781
0.0971626
0.114902
0.151397
0.172849
0.202467
0.213369
0.212446
0.207331
0.198104
0.187295
0.172796
0.158166
0.140092
0.119778
0.0967661
0.0726564
0.05238
0.0381476
0.0286482
0.0202513
0.015933
0.0139692
0.0139844
0.0145694
0.0169434
0.0232167
0.0381128
0.0613131
0.0933829
0.116092
0.13284
0.135908
0.134661
0.130164
0.125552
0.118774
0.112344
0.107685
0.100557
0.0860199
0.076008
0.072003
0.0627004
0.0560486
0.0558994
0.0652383
0.0845628
0.0868479
0.079088
0.0725263
0.0720013
0.0825663
0.100164
0.116181
0.16191
0.18098
0.239163
0.24296
0.270205
0.241159
0.287968
0.257212
0.347453
0.547638
2.05938
1.80815
1.59509
1.42917
1.29659
1.19146
1.10359
1.03248
0.970043
0.920512
0.87334
0.838153
0.800824
0.773591
0.743446
0.720244
0.695414
0.676259
0.655921
0.642433
0.628797
0.620081
0.613116
0.605546
0.599135
0.592835
0.58656
0.577184
0.572768
0.563679
0.558486
0.548852
0.543132
0.532803
0.526424
0.517667
0.511643
0.502287
0.498203
0.489987
0.485798
0.480829
0.47876
0.474737
0.47317
0.471633
0.467486
0.465754
0.460562
0.457597
0.451452
0.448488
0.442325
0.438736
0.432745
0.42951
0.422617
0.419291
0.410917
0.407117
0.396332
0.391391
0.378902
0.372738
0.359208
0.349478
0.338623
0.322375
0.313943
0.298525
0.289939
0.27776
0.269533
0.262978
0.257089
0.257544
0.258014
0.264326
0.268857
0.283526
0.294417
0.307614
0.337248
0.347846
0.37708
0.377657
0.38933
0.379452
0.380233
0.369705
0.364981
0.349127
0.343503
0.327871
0.323309
0.31135
0.307347
0.295927
0.291699
0.280553
0.275155
0.262189
0.254333
0.237545
0.221668
0.202663
0.172864
0.138046
0.103141
0.0678204
0.0435273
0.0276543
0.0173061
0.0110487
0.00722223
0.00513203
0.00411492
0.0036364
0.00364496
0.00371943
0.00403406
0.00470922
0.00647551
0.00832169
0.012573
0.0160914
0.0219147
0.0283116
0.0356124
0.0448512
0.0519737
0.066218
0.0759029
0.0971906
0.112427
0.147908
0.182838
0.243375
0.28335
0.286546
0.278225
0.263775
0.245833
0.231412
0.216385
0.206024
0.191583
0.180989
0.168979
0.156639
0.141273
0.122319
0.0993648
0.0726965
0.0496997
0.0334714
0.023284
0.0176566
0.0151315
0.0147896
0.0151355
0.0165604
0.0206732
0.0301278
0.0473562
0.0660127
0.08229
0.0956765
0.10499
0.108213
0.107289
0.104286
0.0949632
0.0901831
0.0841319
0.0717212
0.0626
0.0587272
0.0540953
0.0504244
0.0509257
0.0534394
0.0835113
0.0906199
0.0890496
0.0745128
0.0754192
0.0829996
0.133033
0.148502
0.190738
0.188844
0.237497
0.236381
0.31201
0.287505
0.35338
0.312548
0.322839
0.402128
1.36459
1.24777
1.13081
1.04226
0.967177
0.901529
0.848889
0.800886
0.758088
0.724342
0.687522
0.662105
0.634377
0.610289
0.590169
0.567483
0.547083
0.529512
0.507912
0.494584
0.480456
0.46917
0.463729
0.457963
0.452563
0.450379
0.444189
0.439064
0.433141
0.42644
0.421327
0.417423
0.411315
0.408625
0.403326
0.400159
0.394117
0.391377
0.3856
0.383054
0.377754
0.376229
0.373105
0.372361
0.370216
0.370496
0.369672
0.370698
0.369794
0.370593
0.369462
0.369473
0.367182
0.366355
0.361396
0.359031
0.350232
0.345723
0.332989
0.326539
0.310816
0.302372
0.283945
0.274056
0.254731
0.241653
0.224084
0.209444
0.191421
0.178919
0.161352
0.153752
0.13864
0.134915
0.12641
0.126231
0.125382
0.129407
0.132086
0.143049
0.149996
0.167305
0.177966
0.199978
0.215218
0.240956
0.259281
0.283492
0.294881
0.307429
0.309884
0.309363
0.306719
0.30316
0.29566
0.287541
0.279494
0.26666
0.252493
0.238579
0.218867
0.198143
0.17197
0.142737
0.11485
0.0826703
0.0582949
0.0401267
0.0268542
0.0179932
0.0116693
0.00789164
0.00533781
0.00407841
0.00330283
0.00315603
0.00318053
0.00335775
0.00376925
0.00476412
0.0069921
0.00957164
0.0151671
0.0199781
0.0294536
0.0360484
0.0496752
0.0573677
0.0745551
0.083223
0.103979
0.115541
0.142148
0.165519
0.204492
0.278763
0.355539
0.35838
0.3437
0.321134
0.281872
0.263216
0.224808
0.209623
0.188047
0.182377
0.174302
0.171103
0.164067
0.158683
0.149343
0.141631
0.129049
0.110028
0.0896437
0.0628587
0.0399164
0.0265822
0.0193917
0.0162796
0.0154362
0.0158812
0.0168104
0.0200338
0.0258184
0.0380457
0.0480153
0.060771
0.0674819
0.073072
0.0741076
0.0734912
0.0714984
0.0663729
0.0627127
0.0594409
0.0544772
0.049643
0.048248
0.0488388
0.0499075
0.0532298
0.0780541
0.0889207
0.0882101
0.0760124
0.0779381
0.0960786
0.182546
0.192929
0.202264
0.196145
0.21724
0.220978
0.259875
0.269952
0.2854
0.306575
0.299878
0.33193
0.629186
0.595026
0.548393
0.512002
0.487008
0.454036
0.43571
0.416794
0.395614
0.386758
0.368732
0.358038
0.347718
0.335573
0.328677
0.319874
0.309191
0.303337
0.289129
0.278627
0.266991
0.256367
0.24893
0.244425
0.243094
0.243781
0.244608
0.245042
0.244457
0.240883
0.235015
0.229899
0.224118
0.220754
0.217587
0.21502
0.213827
0.212196
0.210263
0.209208
0.205182
0.203789
0.200853
0.199937
0.198968
0.199404
0.19978
0.201046
0.201553
0.201966
0.201791
0.201408
0.198721
0.19736
0.193495
0.191394
0.185177
0.181217
0.173235
0.166309
0.158182
0.146644
0.137806
0.126283
0.115056
0.104295
0.0927916
0.0830131
0.0734907
0.0660306
0.0585023
0.0535824
0.0477994
0.0455693
0.0419086
0.0408287
0.0404664
0.0413775
0.0425096
0.0463805
0.0492836
0.0567573
0.0616449
0.0730652
0.079656
0.0947377
0.102069
0.118859
0.125598
0.141362
0.146654
0.157205
0.159604
0.159535
0.156293
0.151736
0.141971
0.131225
0.116591
0.101363
0.083613
0.0677548
0.0530414
0.0403756
0.0300319
0.0215549
0.0153195
0.0106426
0.00737459
0.00521284
0.00376365
0.00304563
0.00261206
0.00263835
0.00270625
0.00297428
0.00354484
0.00510202
0.00708943
0.0118991
0.0167453
0.0246977
0.0356044
0.0489152
0.0624121
0.0795219
0.0986117
0.113935
0.138053
0.150739
0.179931
0.196648
0.24136
0.282128
0.407463
0.431408
0.426845
0.385818
0.348766
0.272847
0.226172
0.187082
0.164658
0.156441
0.147982
0.13955
0.133621
0.133789
0.135569
0.141353
0.141749
0.1393
0.135237
0.124908
0.116237
0.0969848
0.0734811
0.0461219
0.0295741
0.0215297
0.0174004
0.0166131
0.0165861
0.0172832
0.019159
0.0240495
0.0304029
0.0382652
0.0449482
0.0495415
0.0544399
0.0544775
0.0539023
0.0520649
0.0522298
0.0514971
0.0481355
0.0455432
0.0479462
0.0559589
0.055949
0.0558254
0.0634437
0.0830997
0.0825195
0.078125
0.0990115
0.146806
0.206196
0.207299
0.199972
0.182701
0.180002
0.189773
0.191619
0.219107
0.219597
0.265561
0.264716
0.282724
0.172011
0.168031
0.160871
0.152254
0.148281
0.138725
0.133943
0.129538
0.123965
0.12207
0.118432
0.115584
0.114024
0.111011
0.110002
0.108909
0.107492
0.106896
0.105775
0.103012
0.0991167
0.0927461
0.0873829
0.0836869
0.0825098
0.0825794
0.0833032
0.086443
0.0892815
0.0905981
0.0908101
0.0895177
0.0860535
0.0820978
0.079509
0.0773837
0.0767588
0.0764001
0.0763542
0.0764306
0.0762608
0.076086
0.0751481
0.0736811
0.0726202
0.0719201
0.0721249
0.0722544
0.0731416
0.07362
0.0742152
0.0742449
0.0733752
0.072431
0.0694792
0.0674525
0.0633743
0.0606005
0.057512
0.0525972
0.0501994
0.045498
0.0421045
0.0383166
0.0345192
0.0313335
0.0281535
0.0253151
0.0226726
0.0202844
0.0181695
0.0162757
0.0145993
0.0134376
0.0124664
0.0116385
0.0114209
0.0114653
0.0117385
0.0122552
0.0135091
0.0146247
0.0170703
0.0192429
0.0223285
0.0262745
0.0290488
0.0342282
0.0374284
0.0419302
0.0444807
0.0476709
0.0487297
0.0484379
0.0473214
0.0448275
0.0414475
0.0370853
0.0322213
0.0272402
0.0224502
0.0178033
0.0139481
0.0104403
0.00786747
0.00565463
0.00422402
0.00307874
0.00248652
0.00203582
0.00202928
0.00208057
0.00224426
0.00261264
0.00336978
0.005335
0.00768932
0.0134062
0.0186435
0.0308201
0.0404883
0.0623144
0.0772175
0.108445
0.127282
0.165933
0.181563
0.21384
0.226573
0.251527
0.272509
0.302864
0.372842
0.499983
0.521557
0.481163
0.433367
0.306142
0.246591
0.178194
0.16903
0.150169
0.148363
0.143593
0.14008
0.133877
0.131993
0.126507
0.123122
0.121153
0.122948
0.125763
0.129498
0.126755
0.121036
0.115296
0.0995413
0.0825007
0.0502253
0.0334878
0.0229796
0.0191643
0.017376
0.0173382
0.0176855
0.0193296
0.0216202
0.0270744
0.0326995
0.0340393
0.0385417
0.0414541
0.0438828
0.0438282
0.0439821
0.0432741
0.0439013
0.047545
0.0508188
0.0486551
0.0474579
0.0581901
0.068029
0.0731302
0.0729215
0.080474
0.16549
0.210539
0.217283
0.2003
0.182609
0.173044
0.171451
0.176159
0.177287
0.190907
0.187317
0.217002
0.221961
0.246408
0.0267179
0.0267116
0.0265692
0.025938
0.0255464
0.0244472
0.0234986
0.0228587
0.0222527
0.0221771
0.022066
0.0217615
0.0216058
0.0211174
0.0209345
0.0209019
0.0209499
0.0215699
0.022128
0.022492
0.0226612
0.0220622
0.0200193
0.0182078
0.0169159
0.0165973
0.0165772
0.0171553
0.0196785
0.0219129
0.0233977
0.0237964
0.0235624
0.0220554
0.0203709
0.0188512
0.0179672
0.0175978
0.0176709
0.0185133
0.018994
0.0195073
0.0196898
0.019679
0.0194198
0.0188325
0.0187531
0.0187002
0.0188234
0.019252
0.0198174
0.0200928
0.0200826
0.0200171
0.019332
0.0184226
0.0168464
0.0154795
0.0142772
0.012794
0.0117884
0.0106881
0.00970558
0.00895901
0.00809525
0.00752489
0.00691098
0.00639857
0.00584034
0.00528629
0.0047804
0.00422538
0.00378904
0.00344204
0.00314084
0.00290723
0.00281677
0.00282121
0.00287521
0.00300168
0.0032581
0.00362003
0.00431142
0.00471777
0.00564887
0.00640866
0.00742631
0.00833136
0.00933377
0.0103197
0.0109749
0.0116961
0.0117756
0.0116538
0.0112602
0.0107366
0.00970117
0.0088421
0.00753161
0.00642783
0.005236
0.00421109
0.00329864
0.00255465
0.0020078
0.00163996
0.00141321
0.00139426
0.00144028
0.00155843
0.0018888
0.00242178
0.00364322
0.00564578
0.00868924
0.0149727
0.0213288
0.0357743
0.0473174
0.0728861
0.0938778
0.133552
0.169274
0.217245
0.256735
0.296471
0.314856
0.334882
0.340775
0.366221
0.381583
0.476049
0.588596
0.60705
0.534769
0.439671
0.276393
0.208797
0.176743
0.148729
0.15118
0.143473
0.146482
0.139926
0.139904
0.135609
0.133913
0.127107
0.125005
0.120505
0.118557
0.11687
0.117465
0.121854
0.119152
0.119673
0.113817
0.10625
0.087331
0.0590855
0.0366574
0.0257135
0.0207376
0.0184641
0.0182705
0.0185917
0.0194563
0.0218399
0.0235482
0.0271253
0.030935
0.0325628
0.0367812
0.0377371
0.037415
0.0379771
0.0445121
0.0456821
0.0441968
0.0443634
0.0492642
0.0546016
0.0763576
0.0838996
0.0978832
0.142331
0.19508
0.213714
0.191449
0.17838
0.173535
0.170467
0.172904
0.175067
0.178719
0.1987
0.18617
0.191866
0.187282
0.202179
0.00219074
0.00230901
0.00234883
0.00234427
0.00232469
0.0022372
0.00215224
0.00208774
0.00204164
0.00203637
0.00202203
0.00198775
0.00196346
0.00191358
0.00188969
0.00188363
0.00192458
0.00212336
0.00232479
0.00246553
0.0025513
0.00252786
0.00227948
0.00197348
0.00172544
0.00158842
0.00153812
0.00158524
0.00220421
0.00305521
0.00371333
0.00397221
0.003969
0.00355409
0.00288905
0.00236625
0.00202895
0.00184929
0.00182643
0.00204526
0.0024663
0.00283007
0.00307261
0.0031735
0.00318753
0.00305284
0.00290153
0.00281061
0.00278352
0.00285145
0.00306514
0.00329758
0.00339807
0.00344164
0.00341672
0.00321323
0.00286545
0.00250232
0.00217233
0.00191419
0.00166954
0.00155107
0.00140861
0.00135265
0.00126283
0.00121453
0.00116285
0.00111676
0.00106801
0.000964467
0.00090156
0.000790038
0.000728821
0.000664393
0.000615384
0.00058003
0.000562148
0.000562754
0.000568346
0.000589188
0.000622084
0.000704384
0.000780213
0.000938432
0.00104472
0.00126706
0.00140291
0.00161847
0.00180725
0.0019644
0.00211331
0.00220277
0.00219079
0.00215636
0.0020557
0.00197139
0.00177378
0.00165307
0.00141048
0.0012615
0.00105335
0.00095082
0.000835938
0.000837895
0.000852821
0.000907568
0.00105722
0.00128992
0.00174381
0.0025455
0.00441084
0.0065088
0.0113583
0.0161811
0.0272379
0.0378756
0.0561326
0.0848372
0.108711
0.160492
0.200575
0.278837
0.33972
0.393034
0.404946
0.403312
0.396553
0.400915
0.409912
0.431052
0.493106
0.698161
0.66866
0.606573
0.396216
0.324028
0.201137
0.187119
0.148833
0.145886
0.146278
0.141635
0.145718
0.138069
0.13791
0.132438
0.131132
0.126564
0.125575
0.122409
0.118566
0.117421
0.113817
0.117634
0.115679
0.119132
0.117789
0.113397
0.107106
0.0909426
0.06823
0.0417688
0.0294368
0.0225844
0.0202976
0.0196503
0.0201926
0.0210738
0.0231188
0.0256714
0.0265485
0.0277997
0.0318657
0.0329742
0.0332465
0.0379892
0.0386511
0.0375986
0.0378499
0.0417772
0.0695312
0.0901594
0.118031
0.124837
0.133225
0.179977
0.194131
0.18941
0.171825
0.171748
0.17279
0.175315
0.182413
0.189311
0.204245
0.240187
0.237633
0.228818
0.188185
0.177893
0.000182687
0.000190481
0.000200486
0.000201408
0.000200045
0.000196247
0.000190603
0.000186795
0.000183132
0.00017975
0.000178188
0.000176491
0.000174285
0.000170472
0.000165568
0.000163068
0.000163951
0.000178237
0.000195188
0.00020984
0.000218482
0.000220114
0.000214592
0.000200217
0.000186909
0.000172984
0.000164744
0.000162869
0.000207709
0.000329454
0.000432828
0.000475389
0.000473494
0.000401193
0.000305064
0.000238144
0.000194812
0.000168317
0.00015943
0.000172224
0.000242881
0.000312393
0.000365929
0.000386586
0.000389562
0.000361527
0.000317071
0.000284272
0.000266189
0.000262806
0.000277826
0.000314671
0.000347987
0.000364794
0.000370702
0.000361271
0.000332925
0.000288187
0.000256799
0.000226072
0.000207191
0.00019538
0.00019026
0.000189647
0.000191667
0.000193338
0.000197264
0.000199428
0.00020226
0.000204097
0.000205012
0.000206525
0.00020675
0.000207818
0.00020721
0.000208868
0.0002066
0.000208035
0.000204822
0.000204938
0.000203057
0.000204635
0.000208105
0.000218163
0.000227809
0.000246624
0.000274236
0.000289797
0.00032025
0.000339639
0.000364316
0.00036505
0.000362681
0.000354836
0.00035157
0.000346802
0.000349505
0.000354554
0.000371543
0.000397782
0.000436731
0.000479274
0.000597321
0.000746111
0.000987071
0.00139263
0.00229651
0.00355076
0.00527351
0.00876924
0.0140033
0.0204723
0.031876
0.0447622
0.0676343
0.0917151
0.135079
0.17796
0.237462
0.324326
0.415386
0.473857
0.480314
0.470434
0.449695
0.422591
0.41553
0.420197
0.432963
0.493429
0.731869
0.726536
0.560386
0.443308
0.337361
0.258909
0.179125
0.167741
0.137301
0.150776
0.139625
0.144885
0.1447
0.139043
0.14161
0.135168
0.135386
0.132777
0.131804
0.128331
0.120643
0.120905
0.115413
0.117689
0.11734
0.117394
0.120284
0.117294
0.116603
0.109059
0.0971198
0.0771958
0.0565685
0.0379124
0.0280316
0.0236978
0.0224428
0.0221984
0.0234322
0.0248599
0.0252952
0.0265197
0.0306985
0.0309973
0.0308549
0.0312008
0.0309741
0.0316807
0.03703
0.0717656
0.100839
0.106465
0.116401
0.123876
0.146178
0.187396
0.185096
0.167405
0.16453
0.168203
0.171821
0.182012
0.187978
0.221814
0.232087
0.278888
0.304272
0.315741
0.296691
0.213097
8.74474e-05
8.82876e-05
9.1539e-05
9.43472e-05
9.42521e-05
9.36685e-05
9.31639e-05
9.3231e-05
9.31665e-05
9.34214e-05
9.34551e-05
9.35229e-05
9.34477e-05
9.31918e-05
9.26871e-05
9.18576e-05
9.1373e-05
9.12468e-05
9.36545e-05
9.95698e-05
0.000103424
0.000105545
0.000105658
0.000105589
0.000105665
0.000105814
0.00010466
0.000103049
0.000103068
0.000110566
0.000121943
0.000128042
0.000128451
0.00012163
0.000112722
0.000108092
0.000105836
0.000104647
0.000104206
0.000104871
0.000110071
0.000116265
0.000120316
0.000120934
0.000119433
0.000113459
0.000108882
0.000104791
0.000103001
0.000102183
0.000102236
0.000104465
0.000106336
0.000110269
0.000111841
0.000114251
0.000115673
0.000116973
0.000120915
0.000122466
0.000127383
0.000130767
0.000138611
0.000142146
0.000150923
0.000157713
0.000164275
0.000177449
0.000183925
0.000198771
0.000209126
0.00022736
0.000242124
0.00025855
0.000270781
0.000284522
0.000287229
0.00028584
0.000282646
0.000272579
0.000261293
0.000249733
0.000236619
0.000225815
0.000220987
0.000211027
0.000208637
0.000202234
0.000201869
0.000199521
0.000198926
0.000200537
0.000204396
0.000215709
0.000228226
0.000256992
0.000287755
0.000348525
0.000415786
0.000562198
0.000783204
0.00102659
0.00167959
0.00232452
0.00378876
0.00523981
0.00865894
0.0125664
0.0171057
0.0292046
0.0386433
0.0600645
0.0774824
0.117564
0.148358
0.215076
0.273994
0.363219
0.464817
0.52612
0.541315
0.533038
0.508281
0.44578
0.380187
0.365155
0.378978
0.396315
0.462605
0.697046
0.700552
0.524778
0.460338
0.400172
0.32655
0.237411
0.175089
0.1542
0.13085
0.146096
0.13321
0.155567
0.143055
0.146345
0.150325
0.142356
0.146783
0.140127
0.139698
0.142029
0.130733
0.128032
0.1235
0.119167
0.122682
0.120404
0.123569
0.119593
0.120652
0.11484
0.107552
0.0884136
0.0766581
0.0524083
0.0391725
0.0306309
0.0269941
0.0251517
0.0250562
0.025226
0.0257359
0.0266236
0.0298858
0.0301162
0.0297755
0.0298998
0.0308286
0.0345694
0.0485278
0.0704284
0.0919497
0.119181
0.134204
0.157504
0.193296
0.211044
0.187793
0.164274
0.157823
0.163599
0.166269
0.182503
0.183892
0.213934
0.22784
0.264556
0.273334
0.304105
0.318181
0.301649
8.69123e-05
8.74243e-05
9.16934e-05
9.62587e-05
9.74867e-05
9.68895e-05
9.55981e-05
9.52967e-05
9.57259e-05
9.64174e-05
9.83521e-05
9.98935e-05
0.000102515
0.000103932
0.00010536
0.000106462
0.000107434
0.00010729
0.000106653
0.000106602
0.000109832
0.000114139
0.000115543
0.000116684
0.0001197
0.000122684
0.000125777
0.000127106
0.000128236
0.00012867
0.000127437
0.000124127
0.000120218
0.000119369
0.000123314
0.000135882
0.000145877
0.000150694
0.000150096
0.000146562
0.00013849
0.000135679
0.000131789
0.000130345
0.000130276
0.000129844
0.000133632
0.000137081
0.000145613
0.000149464
0.000154656
0.000161518
0.00016401
0.000171899
0.000179762
0.000198199
0.000211111
0.000236867
0.00027914
0.000298097
0.000343429
0.000373633
0.000430289
0.000458908
0.000507975
0.000570765
0.000599625
0.000683323
0.000729678
0.000807339
0.000868813
0.000953172
0.00103391
0.00107823
0.00114432
0.00116772
0.0011693
0.00115451
0.00113278
0.00108542
0.00102531
0.000989198
0.000910525
0.000854075
0.000795748
0.000733728
0.000687722
0.000641257
0.000617792
0.000582287
0.000580786
0.00058984
0.000612546
0.000679076
0.000748313
0.000902719
0.00107041
0.00141804
0.00175727
0.00249547
0.00324764
0.00463341
0.00688409
0.00912115
0.0137353
0.0185438
0.0282804
0.0379473
0.0532194
0.0780982
0.0994547
0.146152
0.184125
0.255943
0.323182
0.418764
0.486036
0.542788
0.576733
0.575824
0.555745
0.474173
0.340606
0.271332
0.252989
0.260211
0.283277
0.372822
0.601388
0.665149
0.522929
0.461313
0.429671
0.395515
0.323439
0.238318
0.183523
0.152745
0.133423
0.135528
0.126409
0.152269
0.133819
0.16231
0.152996
0.136399
0.148395
0.143399
0.147379
0.138344
0.142983
0.137271
0.136675
0.125571
0.142755
0.128133
0.142116
0.127846
0.136746
0.129494
0.125951
0.111077
0.104254
0.0849953
0.0723163
0.0487109
0.0383358
0.032389
0.0310394
0.0295931
0.030292
0.0299586
0.0312797
0.0313454
0.0318868
0.0352256
0.0383604
0.0397121
0.0428308
0.0489547
0.0745448
0.125582
0.173746
0.234865
0.244789
0.233776
0.172796
0.138616
0.123356
0.127335
0.130407
0.147806
0.161214
0.201462
0.213115
0.232123
0.236052
0.237521
0.254967
0.275491
0.000229099
0.000228071
0.000233129
0.00023488
0.00023457
0.0002316
0.000224842
0.000225463
0.000227398
0.000234095
0.000265389
0.000302712
0.000354777
0.000383679
0.000405146
0.00041863
0.000424811
0.00042727
0.000430075
0.000447802
0.000487504
0.000533587
0.000562075
0.000583745
0.000588424
0.000586833
0.000565419
0.000517778
0.000472401
0.000433233
0.000406242
0.000394324
0.000399247
0.000437322
0.000510779
0.000575272
0.000641246
0.000689161
0.000708949
0.000712683
0.000682429
0.000662211
0.000634481
0.000629712
0.000632103
0.000637392
0.000699227
0.000733074
0.000794184
0.000828798
0.000877306
0.00094679
0.000972964
0.00105686
0.00113643
0.00128567
0.00138155
0.00154211
0.00176524
0.00186036
0.00207369
0.00224946
0.00248817
0.00267695
0.00285101
0.00320478
0.00334867
0.00364081
0.00384387
0.00412082
0.00438766
0.0045656
0.00482823
0.0049312
0.00502566
0.00501472
0.00496586
0.00486296
0.0046881
0.00457409
0.00430169
0.00416996
0.00392044
0.00372111
0.00354293
0.00329122
0.00316889
0.00301716
0.00291386
0.00289382
0.00291426
0.00298955
0.00311727
0.00341093
0.00378653
0.00423773
0.00540076
0.00628483
0.00814553
0.0103888
0.0131098
0.0186874
0.0234759
0.0337548
0.0423076
0.0605703
0.0772096
0.107203
0.140428
0.183317
0.246096
0.305977
0.394534
0.460325
0.513718
0.547952
0.567981
0.588326
0.581692
0.513325
0.333804
0.232932
0.21945
0.220303
0.224725
0.241198
0.3298
0.514218
0.586826
0.497647
0.429033
0.4301
0.450061
0.461419
0.408674
0.300179
0.21512
0.165184
0.142411
0.132583
0.125209
0.137114
0.130471
0.166068
0.140599
0.16942
0.164318
0.142798
0.157645
0.139984
0.166323
0.138887
0.168005
0.147931
0.185425
0.154733
0.186978
0.155569
0.155288
0.137707
0.136597
0.124138
0.122704
0.106043
0.0999099
0.0875457
0.0723392
0.0527445
0.0491433
0.0415333
0.0379462
0.0354535
0.0358164
0.0372266
0.0419983
0.0421362
0.041222
0.0403366
0.0410013
0.0439861
0.0549728
0.0997292
0.151428
0.194974
0.194722
0.159362
0.106531
0.0894358
0.0913397
0.107091
0.11427
0.121718
0.152179
0.200202
0.221748
0.231635
0.232106
0.217623
0.209174
0.218126
0.00289206
0.00289332
0.0029037
0.00289541
0.00288228
0.00284249
0.00282773
0.00284986
0.00291037
0.00306823
0.00343982
0.00371228
0.00402236
0.00425573
0.00439948
0.00449119
0.00452866
0.00453512
0.0045855
0.00478455
0.00504393
0.00532041
0.00546852
0.0055498
0.0055574
0.00547105
0.00519044
0.00487178
0.0046034
0.0044466
0.00440046
0.004477
0.00479928
0.00506932
0.00534236
0.00554213
0.005662
0.00568584
0.00563844
0.00556479
0.00550093
0.00550218
0.00550307
0.00558426
0.00578964
0.00589623
0.00621514
0.00632407
0.00653522
0.00664434
0.006812
0.00712613
0.00726971
0.00770774
0.00807567
0.0086743
0.00906617
0.009517
0.0103124
0.010657
0.0113047
0.0118044
0.012582
0.0132269
0.0136664
0.0147462
0.0151788
0.0160154
0.0165142
0.0172218
0.0177806
0.0181065
0.0185577
0.0185518
0.0184862
0.0182555
0.0178647
0.0174813
0.0166436
0.0162387
0.0154152
0.0149481
0.0141789
0.01371
0.0131866
0.012567
0.0123219
0.0118789
0.0117627
0.0118147
0.0119855
0.0124425
0.0132031
0.0140727
0.0162722
0.0179962
0.0216231
0.0247406
0.0318333
0.0374649
0.048984
0.0593854
0.0776015
0.0978366
0.12317
0.161808
0.196501
0.258879
0.319987
0.394007
0.458885
0.502356
0.537249
0.548372
0.567669
0.573242
0.566136
0.520241
0.355188
0.208193
0.167156
0.176166
0.211948
0.246193
0.273441
0.350533
0.457927
0.506335
0.454758
0.384955
0.38237
0.427901
0.493192
0.544851
0.551773
0.427122
0.292211
0.220562
0.166183
0.137417
0.130665
0.13032
0.1318
0.152648
0.14764
0.176245
0.155531
0.153931
0.170466
0.13662
0.174759
0.132611
0.219024
0.15034
0.229803
0.160625
0.204557
0.165137
0.196632
0.157637
0.159746
0.13487
0.13969
0.122114
0.113184
0.0949645
0.090174
0.0727339
0.0631663