/*--------------------------------*- C++ -*----------------------------------*\
| =========                 |                                                 |
| \\      /  F ield         | OpenFOAM: The Open Source CFD Toolbox           |
|  \\    /   O peration     | Version:  2.4.0                                 |
|   \\  /    A nd           | Web:      www.OpenFOAM.org                      |
|    \\/     M anipulation  |                                                 |
\*---------------------------------------------------------------------------*/
FoamFile
{
    version     2.0;
    format      ascii;
    class       volVectorField;
    location    "0.47";
    object      UMean;
}
// * * * * * * * * * * * * * * * * * * * * * * * * * * * * * * * * * * * * * //

dimensions      [0 1 -1 0 0 0 0];

internalField   nonuniform List<vector> 
8800
(
(8.09367 0.386368 0)
(5.47089 0.24205 0)
(3.94306 0.0432634 0)
(3.19252 -0.0151007 0)
(2.84002 -0.0180976 0)
(2.63947 -0.0109118 0)
(2.52921 -0.00564698 0)
(2.42654 -0.00219627 0)
(2.37019 -0.00155238 0)
(2.3008 -0.000423142 0)
(2.27263 -0.000791143 0)
(2.22039 0.000147991 0)
(2.20344 -0.00028248 0)
(2.1568 0.000742104 0)
(2.13915 0.000141601 0)
(2.09468 0.00144372 0)
(2.06859 0.000234129 0)
(2.02319 0.00159205 0)
(2.00665 0.00384331 0)
(1.83733 -0.0432444 0)
(10.0766 0.834304 0)
(9.6601 0.862477 0)
(8.88572 0.503277 0)
(8.10282 0.259573 0)
(7.5205 0.136377 0)
(7.03869 0.0808907 0)
(6.73779 0.0525618 0)
(6.44193 0.0396448 0)
(6.28101 0.0283897 0)
(6.0771 0.0238251 0)
(5.99496 0.0172422 0)
(5.84105 0.0175914 0)
(5.79702 0.0134753 0)
(5.66849 0.0167187 0)
(5.63248 0.01363 0)
(5.51949 0.0177561 0)
(5.4704 0.0185547 0)
(5.3651 0.0139729 0)
(5.30979 0.0315544 0)
(5.17311 -0.0376408 0)
(10.056 0.628854 0)
(10.6536 0.857638 0)
(10.8674 0.596301 0)
(10.6905 0.369824 0)
(10.4611 0.252196 0)
(10.0912 0.193687 0)
(9.85147 0.14973 0)
(9.50973 0.120353 0)
(9.34284 0.0905927 0)
(9.06075 0.0746985 0)
(8.96851 0.0554067 0)
(8.73767 0.05163 0)
(8.69428 0.0394085 0)
(8.49514 0.0431282 0)
(8.47217 0.0346781 0)
(8.29048 0.0420607 0)
(8.265 0.0395768 0)
(8.08716 0.0438151 0)
(8.04517 0.0505974 0)
(7.87134 -0.0197258 0)
(9.9974 0.455535 0)
(10.5628 0.700982 0)
(11.164 0.541242 0)
(11.3661 0.348895 0)
(11.5484 0.257763 0)
(11.4477 0.224544 0)
(11.4831 0.195561 0)
(11.2886 0.173396 0)
(11.2925 0.142355 0)
(11.0712 0.124124 0)
(11.0824 0.0991717 0)
(10.8595 0.0922799 0)
(10.8856 0.0745264 0)
(10.6651 0.0771479 0)
(10.7003 0.0633212 0)
(10.4799 0.0739635 0)
(10.5135 0.0621305 0)
(10.286 0.0847379 0)
(10.2911 0.0644375 0)
(10.0524 0.0910587 0)
(10.0411 0.345386 0)
(10.3979 0.563975 0)
(11.0428 0.457166 0)
(11.2952 0.291652 0)
(11.6474 0.205234 0)
(11.6575 0.190471 0)
(11.8686 0.173596 0)
(11.8003 0.168269 0)
(11.9689 0.139758 0)
(11.8676 0.132774 0)
(12.0156 0.104033 0)
(11.8942 0.107695 0)
(12.0262 0.0823654 0)
(11.8889 0.097873 0)
(12.0036 0.0722373 0)
(11.8532 0.0998579 0)
(11.9456 0.070251 0)
(11.7823 0.115827 0)
(11.831 0.0719028 0)
(11.6226 0.131141 0)
(10.0513 0.251719 0)
(10.3159 0.452348 0)
(10.8941 0.374284 0)
(11.173 0.245447 0)
(11.5209 0.158903 0)
(11.5929 0.149355 0)
(11.7927 0.138899 0)
(11.8044 0.140771 0)
(11.9685 0.116013 0)
(11.9719 0.11293 0)
(12.1195 0.0878913 0)
(12.1191 0.0917136 0)
(12.25 0.0724963 0)
(12.2447 0.0842956 0)
(12.3559 0.0694639 0)
(12.3453 0.0868692 0)
(12.4326 0.0754603 0)
(12.4141 0.0963297 0)
(12.459 0.0791827 0)
(12.3667 0.0560687 0)
(10.0098 0.174043 0)
(10.2969 0.351582 0)
(10.7512 0.287041 0)
(11.1049 0.203852 0)
(11.386 0.11669 0)
(11.5423 0.11404 0)
(11.6693 0.103073 0)
(11.7531 0.113927 0)
(11.8484 0.0869854 0)
(11.9265 0.0915348 0)
(12.014 0.0641944 0)
(12.09 0.0736764 0)
(12.1694 0.0519283 0)
(12.2408 0.067832 0)
(12.3103 0.0508055 0)
(12.3759 0.0704939 0)
(12.4341 0.0561374 0)
(12.4889 0.0742519 0)
(12.5159 0.049092 0)
(12.4761 0.0151224 0)
(9.99818 0.114362 0)
(10.2624 0.249192 0)
(10.6726 0.20416 0)
(11.0311 0.15121 0)
(11.312 0.082012 0)
(11.4809 0.0779217 0)
(11.6063 0.0730781 0)
(11.6875 0.0814351 0)
(11.7823 0.0632297 0)
(11.8567 0.0646042 0)
(11.9487 0.0463032 0)
(12.0192 0.0506077 0)
(12.1067 0.0375041 0)
(12.1703 0.0459454 0)
(12.2509 0.0369959 0)
(12.3062 0.0468083 0)
(12.3787 0.0387423 0)
(12.4199 0.04365 0)
(12.4608 0.0242802 0)
(12.3954 -0.012688 0)
(9.9887 0.0641652 0)
(10.2442 0.148482 0)
(10.6176 0.122208 0)
(10.9882 0.0923301 0)
(11.2578 0.0482889 0)
(11.4486 0.0463852 0)
(11.5595 0.0431709 0)
(11.6541 0.0496399 0)
(11.732 0.0381203 0)
(11.8214 0.0390568 0)
(11.8975 0.0273097 0)
(11.9841 0.0300592 0)
(12.0554 0.0217447 0)
(12.1355 0.0267799 0)
(12.1991 0.0204343 0)
(12.2709 0.0255025 0)
(12.3253 0.0178811 0)
(12.3815 0.0176016 0)
(12.4003 0.000197566 0)
(12.3445 -0.0302334 0)
(9.99426 0.0205919 0)
(10.2256 0.0493689 0)
(10.6002 0.0406946 0)
(10.9574 0.0309298 0)
(11.2407 0.0158918 0)
(11.4232 0.01541 0)
(11.5463 0.0141146 0)
(11.6281 0.0165729 0)
(11.7172 0.012529 0)
(11.7943 0.0128 0)
(11.8825 0.00856454 0)
(11.9571 0.0091319 0)
(12.0408 0.00607536 0)
(12.1084 0.00685795 0)
(12.1843 0.00380438 0)
(12.2434 0.00296681 0)
(12.3091 -0.00225907 0)
(12.3521 -0.00800944 0)
(12.379 -0.0209552 0)
(12.3079 -0.0444724 0)
(9.99151 -0.0220366 0)
(10.2284 -0.0475875 0)
(10.5975 -0.0423627 0)
(10.9601 -0.0293935 0)
(11.2379 -0.0176079 0)
(11.426 -0.0139764 0)
(11.5434 -0.0159498 0)
(11.6309 -0.0153745 0)
(11.7141 -0.0145899 0)
(11.7971 -0.0120743 0)
(11.8795 -0.0115312 0)
(11.9599 -0.0100078 0)
(12.0373 -0.0112002 0)
(12.111 -0.0111991 0)
(12.1806 -0.0147673 0)
(12.2455 -0.0170853 0)
(12.3047 -0.0242185 0)
(12.3523 -0.0301421 0)
(12.3729 -0.0430715 0)
(12.3043 -0.0539684 0)
(9.99069 -0.0654409 0)
(10.242 -0.146992 0)
(10.6194 -0.123603 0)
(10.986 -0.0910129 0)
(11.2597 -0.0497271 0)
(11.4465 -0.0453653 0)
(11.5614 -0.0446822 0)
(11.6519 -0.0488665 0)
(11.7338 -0.0397993 0)
(11.819 -0.038875 0)
(11.8993 -0.0299268 0)
(11.9815 -0.0314545 0)
(12.0568 -0.0264569 0)
(12.1321 -0.0316694 0)
(12.1995 -0.0308656 0)
(12.2662 -0.0398838 0)
(12.3231 -0.0434637 0)
(12.3729 -0.0559892 0)
(12.3913 -0.0628517 0)
(12.3264 -0.0670426 0)
(9.99604 -0.115626 0)
(10.2645 -0.247547 0)
(10.67 -0.205661 0)
(11.0335 -0.149598 0)
(11.3091 -0.0835324 0)
(11.4835 -0.0764159 0)
(11.6033 -0.0748522 0)
(11.6902 -0.0799887 0)
(11.7789 -0.065358 0)
(11.8593 -0.0637075 0)
(11.945 -0.0494286 0)
(12.0217 -0.0512503 0)
(12.102 -0.0427598 0)
(12.1718 -0.0499259 0)
(12.2443 -0.0479331 0)
(12.3055 -0.0597468 0)
(12.368 -0.0643325 0)
(12.4126 -0.0796736 0)
(12.4392 -0.0868688 0)
(12.3719 -0.0799214 0)
(10.0142 -0.175486 0)
(10.2924 -0.34985 0)
(10.755 -0.28883 0)
(11.1011 -0.202055 0)
(11.3896 -0.118553 0)
(11.5386 -0.112174 0)
(11.6727 -0.105189 0)
(11.7494 -0.112258 0)
(11.8516 -0.0895993 0)
(11.9226 -0.0903872 0)
(12.017 -0.0678108 0)
(12.0856 -0.0739011 0)
(12.1716 -0.0577749 0)
(12.2349 -0.0714215 0)
(12.3101 -0.0622961 0)
(12.3661 -0.0823711 0)
(12.4278 -0.0812285 0)
(12.4688 -0.107218 0)
(12.4941 -0.109538 0)
(12.4307 -0.106485 0)
(10.0522 -0.252135 0)
(10.3151 -0.451815 0)
(10.894 -0.37479 0)
(11.1731 -0.24531 0)
(11.5203 -0.159254 0)
(11.5934 -0.149281 0)
(11.7917 -0.139131 0)
(11.8052 -0.141453 0)
(11.9669 -0.116296 0)
(11.9726 -0.114466 0)
(12.1171 -0.0885575 0)
(12.1193 -0.0951727 0)
(12.2462 -0.0746236 0)
(12.2428 -0.0917196 0)
(12.3481 -0.0759712 0)
(12.3373 -0.102776 0)
(12.4148 -0.0933725 0)
(12.3896 -0.132081 0)
(12.415 -0.125867 0)
(12.2992 -0.143058 0)
(10.0484 -0.34698 0)
(10.3909 -0.561972 0)
(11.048 -0.458977 0)
(11.2897 -0.289968 0)
(11.6517 -0.207289 0)
(11.6527 -0.188531 0)
(11.872 -0.175897 0)
(11.7961 -0.166452 0)
(11.971 -0.14267 0)
(11.8637 -0.131096 0)
(12.0158 -0.108035 0)
(11.8901 -0.106819 0)
(12.0226 -0.0887689 0)
(11.8827 -0.0994481 0)
(11.9912 -0.0841453 0)
(11.8392 -0.10717 0)
(11.9132 -0.0952224 0)
(11.7463 -0.136863 0)
(11.753 -0.126178 0)
(11.5205 -0.163868 0)
(10.0027 -0.455992 0)
(10.556 -0.700267 0)
(11.17 -0.541859 0)
(11.3584 -0.348366 0)
(11.5557 -0.258653 0)
(11.4386 -0.223831 0)
(11.4918 -0.1966 0)
(11.2771 -0.172827 0)
(11.3027 -0.14372 0)
(11.0564 -0.123983 0)
(11.0938 -0.101011 0)
(10.8397 -0.0934775 0)
(10.896 -0.0773836 0)
(10.6367 -0.0819324 0)
(10.7035 -0.0686684 0)
(10.4348 -0.0865649 0)
(10.494 -0.074078 0)
(10.2066 -0.115052 0)
(10.2127 -0.0977679 0)
(9.87529 -0.15962 0)
(10.0568 -0.629365 0)
(10.6513 -0.857124 0)
(10.8696 -0.596677 0)
(10.6868 -0.369431 0)
(10.465 -0.252804 0)
(10.0854 -0.193168 0)
(9.85749 -0.150536 0)
(9.50022 -0.119783 0)
(9.35198 -0.0918188 0)
(9.04515 -0.0742502 0)
(8.9814 -0.0572635 0)
(8.71254 -0.0517725 0)
(8.71024 -0.042439 0)
(8.4541 -0.0453106 0)
(8.48636 -0.0399297 0)
(8.22131 -0.0499062 0)
(8.26199 -0.048366 0)
(7.96582 -0.0698172 0)
(7.96912 -0.0725111 0)
(7.61745 -0.0908682 0)
(10.0766 -0.834421 0)
(9.65911 -0.862301 0)
(8.88631 -0.503338 0)
(8.10137 -0.259468 0)
(7.52218 -0.136609 0)
(7.03571 -0.080783 0)
(6.74062 -0.0528055 0)
(6.43635 -0.0395625 0)
(6.28578 -0.0288057 0)
(6.06663 -0.0238578 0)
(6.00228 -0.0179317 0)
(5.82195 -0.0180374 0)
(5.8069 -0.0147103 0)
(5.63362 -0.0183163 0)
(5.64141 -0.0159956 0)
(5.4546 -0.0228553 0)
(5.46525 -0.0223243 0)
(5.24133 -0.0329937 0)
(5.23226 -0.0396082 0)
(4.92636 -0.0229868 0)
(8.09347 -0.386417 0)
(5.47054 -0.242001 0)
(3.94313 -0.0432779 0)
(3.19238 0.0151006 0)
(2.8403 0.0180411 0)
(2.6385 0.0109509 0)
(2.52983 0.00561683 0)
(2.42459 0.00218974 0)
(2.37112 0.00154048 0)
(2.29698 0.000360177 0)
(2.27349 0.000766468 0)
(2.21285 -0.000295759 0)
(2.20363 0.000238741 0)
(2.14148 -0.00114835 0)
(2.13544 -0.000334003 0)
(2.06307 -0.00236983 0)
(2.05075 -0.00122637 0)
(1.95809 -0.00396841 0)
(1.92057 -0.00487352 0)
(1.76004 0.0119959 0)
(2.22417 -0.0843819 0)
(2.37688 0.0110052 0)
(2.64157 0.0123914 0)
(2.87446 -0.013975 0)
(3.09417 -0.0403213 0)
(3.2599 -0.054193 0)
(3.42005 -0.0637041 0)
(3.53585 -0.0656499 0)
(3.65367 -0.0791827 0)
(3.75484 -0.0945799 0)
(3.86297 -0.111833 0)
(3.95916 -0.126601 0)
(4.06248 -0.144236 0)
(4.15929 -0.159124 0)
(4.25388 -0.175361 0)
(4.35324 -0.189846 0)
(4.45028 -0.203794 0)
(4.56168 -0.218269 0)
(4.68286 -0.231337 0)
(4.81447 -0.244177 0)
(4.94639 -0.266252 0)
(5.07983 -0.293699 0)
(5.20534 -0.323974 0)
(5.32514 -0.354263 0)
(5.43735 -0.385317 0)
(5.54041 -0.413621 0)
(5.64065 -0.439533 0)
(5.73114 -0.460232 0)
(5.83125 -0.477933 0)
(5.92714 -0.495738 0)
(6.03994 -0.518247 0)
(6.1549 -0.544182 0)
(6.27997 -0.575617 0)
(6.40525 -0.60827 0)
(6.5262 -0.641057 0)
(6.64908 -0.673277 0)
(6.76179 -0.703017 0)
(6.88245 -0.733289 0)
(6.99098 -0.765036 0)
(7.11101 -0.800582 0)
(7.21569 -0.837145 0)
(7.32694 -0.878013 0)
(7.42191 -0.920517 0)
(7.51526 -0.964135 0)
(7.59473 -1.00519 0)
(7.66818 -1.04212 0)
(7.73703 -1.07483 0)
(7.80147 -1.1009 0)
(7.8692 -1.12459 0)
(7.93588 -1.14037 0)
(8.00915 -1.15747 0)
(8.08628 -1.16802 0)
(8.16689 -1.18482 0)
(8.25195 -1.19732 0)
(8.3342 -1.21886 0)
(8.41664 -1.23693 0)
(8.49376 -1.2636 0)
(8.56259 -1.28458 0)
(8.62835 -1.31071 0)
(8.68124 -1.33017 0)
(8.73993 -1.35681 0)
(8.78719 -1.37737 0)
(8.8425 -1.40671 0)
(8.89465 -1.42688 0)
(8.93945 -1.45295 0)
(8.99421 -1.46815 0)
(9.02445 -1.48139 0)
(9.07004 -1.48405 0)
(9.0947 -1.48482 0)
(9.13411 -1.48184 0)
(9.16338 -1.4816 0)
(9.20055 -1.4728 0)
(9.22091 -1.47018 0)
(9.26181 -1.45796 0)
(9.27918 -1.45756 0)
(9.32954 -1.44618 0)
(9.34675 -1.44751 0)
(9.4079 -1.44343 0)
(9.43006 -1.44953 0)
(9.49125 -1.44624 0)
(9.5207 -1.44933 0)
(9.57087 -1.43234 0)
(9.59828 -1.42134 0)
(9.63281 -1.39138 0)
(9.65645 -1.36534 0)
(9.67287 -1.32472 0)
(9.69053 -1.29406 0)
(9.70394 -1.25193 0)
(9.70864 -1.21921 0)
(9.71894 -1.17433 0)
(9.71134 -1.13637 0)
(9.71707 -1.08004 0)
(9.69107 -1.0355 0)
(9.68893 -0.977967 0)
(9.64943 -0.935065 0)
(9.65027 -0.879266 0)
(9.5966 -0.838373 0)
(9.60345 -0.788704 0)
(9.54309 -0.756758 0)
(9.5749 -0.720866 0)
(9.50467 -0.704047 0)
(9.56501 -0.674332 0)
(9.49067 -0.67572 0)
(9.57213 -0.651398 0)
(9.48715 -0.637387 0)
(9.56949 -0.60561 0)
(9.47216 -0.58553 0)
(9.54274 -0.546161 0)
(9.43002 -0.519119 0)
(9.4768 -0.475718 0)
(9.34606 -0.444173 0)
(9.36616 -0.396759 0)
(9.21514 -0.366343 0)
(9.22153 -0.313987 0)
(9.05951 -0.291192 0)
(9.09151 -0.23683 0)
(8.93093 -0.220347 0)
(8.97822 -0.159836 0)
(8.80701 -0.137014 0)
(8.84268 -0.0655007 0)
(8.67814 -0.0413656 0)
(8.7196 0.0243395 0)
(8.57806 0.0350631 0)
(8.6326 0.0929668 0)
(8.4988 0.0887206 0)
(8.56076 0.141093 0)
(8.4358 0.128778 0)
(8.49355 0.185387 0)
(8.38231 0.182675 0)
(8.42663 0.239804 0)
(8.32422 0.242335 0)
(8.36649 0.298985 0)
(8.26134 0.304865 0)
(8.30581 0.366539 0)
(8.1927 0.363972 0)
(8.24599 0.428814 0)
(8.12466 0.4238 0)
(8.18638 0.498902 0)
(8.05825 0.488129 0)
(8.13329 0.559853 0)
(7.99223 0.539909 0)
(8.0686 0.607875 0)
(7.92446 0.59049 0)
(8.00594 0.649066 0)
(7.87539 0.616594 0)
(7.9744 0.658802 0)
(7.82936 0.629972 0)
(7.95575 0.675468 0)
(7.77789 0.634364 0)
(7.93874 0.679296 0)
(7.73733 0.631316 0)
(7.90083 0.679502 0)
(7.70861 0.641621 0)
(7.85816 0.682519 0)
(7.68113 0.634252 0)
(7.82307 0.683168 0)
(7.6669 0.641805 0)
(7.78712 0.688789 0)
(7.67062 0.655783 0)
(7.76597 0.702447 0)
(7.68772 0.655941 0)
(7.7481 0.700761 0)
(7.69351 0.657935 0)
(7.71325 0.712376 0)
(7.6578 0.676552 0)
(7.64351 0.729648 0)
(7.62553 0.703811 0)
(7.56413 0.744359 0)
(7.57668 0.72503 0)
(7.45649 0.77703 0)
(7.51921 0.753578 0)
(7.30105 0.815963 0)
(7.42923 0.787269 0)
(7.14037 0.879367 0)
(7.3315 0.818532 0)
(6.99085 0.97788 0)
(7.25765 0.873878 0)
(6.84854 1.10068 0)
(7.23527 0.965918 0)
(6.71245 1.24853 0)
(7.20241 1.08284 0)
(6.62429 1.42625 0)
(7.10554 1.20971 0)
(6.59043 1.62566 0)
(6.96445 1.38228 0)
(6.54563 1.83605 0)
(6.84691 1.62433 0)
(6.4482 2.06629 0)
(6.76871 1.94245 0)
(6.26623 2.32562 0)
(6.69237 2.30973 0)
(6.01987 2.65149 0)
(6.528 2.73666 0)
(5.7963 3.13912 0)
(6.21829 3.2541 0)
(5.65512 3.95674 0)
(5.81639 4.03603 0)
(5.22461 5.22464 0)
(6.16139 5.90552 0)
(3.90468 8.79629 0)
(5.27499 -0.0555931 0)
(5.27305 -0.023351 0)
(5.32267 -0.0399185 0)
(5.41965 -0.0826505 0)
(5.54084 -0.119393 0)
(5.64937 -0.137376 0)
(5.74221 -0.144611 0)
(5.81239 -0.14698 0)
(5.86943 -0.15372 0)
(5.92067 -0.165886 0)
(5.97289 -0.182704 0)
(6.02875 -0.200856 0)
(6.09047 -0.219517 0)
(6.1573 -0.236751 0)
(6.22796 -0.252461 0)
(6.3026 -0.268334 0)
(6.38119 -0.283441 0)
(6.46218 -0.299452 0)
(6.54887 -0.317428 0)
(6.63927 -0.336338 0)
(6.73259 -0.359414 0)
(6.82818 -0.386134 0)
(6.91963 -0.41408 0)
(7.01048 -0.442492 0)
(7.09698 -0.469806 0)
(7.18118 -0.496103 0)
(7.26613 -0.519116 0)
(7.34701 -0.540655 0)
(7.43397 -0.561109 0)
(7.51681 -0.582792 0)
(7.61101 -0.606962 0)
(7.69956 -0.634073 0)
(7.80014 -0.66503 0)
(7.88977 -0.696527 0)
(7.98754 -0.729189 0)
(8.07209 -0.758626 0)
(8.16094 -0.789172 0)
(8.24114 -0.816319 0)
(8.32071 -0.847716 0)
(8.39946 -0.877743 0)
(8.47244 -0.913642 0)
(8.55039 -0.947977 0)
(8.61796 -0.987443 0)
(8.69236 -1.02346 0)
(8.75504 -1.06124 0)
(8.82265 -1.09369 0)
(8.88244 -1.12553 0)
(8.94321 -1.15159 0)
(9.00284 -1.17611 0)
(9.05872 -1.19505 0)
(9.11988 -1.21297 0)
(9.17242 -1.22691 0)
(9.23461 -1.24248 0)
(9.28375 -1.25553 0)
(9.34362 -1.27284 0)
(9.38805 -1.28815 0)
(9.44193 -1.30856 0)
(9.48145 -1.32799 0)
(9.5296 -1.35037 0)
(9.56455 -1.37371 0)
(9.61098 -1.39732 0)
(9.63762 -1.4223 0)
(9.68297 -1.44562 0)
(9.69596 -1.4663 0)
(9.73541 -1.48399 0)
(9.73704 -1.49357 0)
(9.76202 -1.4988 0)
(9.76133 -1.49845 0)
(9.77985 -1.50022 0)
(9.78589 -1.50138 0)
(9.80007 -1.49607 0)
(9.80544 -1.49052 0)
(9.81818 -1.48305 0)
(9.82575 -1.47782 0)
(9.83493 -1.47606 0)
(9.85105 -1.46946 0)
(9.85411 -1.47246 0)
(9.88024 -1.46722 0)
(9.87317 -1.4725 0)
(9.90274 -1.46764 0)
(9.89181 -1.46716 0)
(9.91278 -1.44737 0)
(9.90167 -1.43549 0)
(9.91307 -1.39851 0)
(9.89798 -1.36976 0)
(9.90189 -1.32631 0)
(9.88782 -1.29474 0)
(9.88471 -1.24644 0)
(9.86241 -1.21449 0)
(9.85183 -1.16287 0)
(9.82577 -1.1233 0)
(9.79996 -1.05966 0)
(9.76378 -1.01655 0)
(9.72319 -0.953315 0)
(9.6789 -0.910949 0)
(9.63098 -0.848842 0)
(9.58742 -0.811083 0)
(9.5433 -0.76041 0)
(9.51785 -0.73697 0)
(9.48894 -0.704025 0)
(9.4728 -0.69604 0)
(9.46783 -0.672311 0)
(9.45196 -0.676258 0)
(9.45027 -0.648574 0)
(9.42507 -0.629324 0)
(9.41858 -0.593596 0)
(9.37612 -0.564176 0)
(9.35762 -0.520509 0)
(9.29413 -0.483336 0)
(9.25752 -0.433316 0)
(9.18343 -0.389571 0)
(9.1231 -0.335907 0)
(9.04151 -0.29442 0)
(8.96567 -0.250478 0)
(8.90797 -0.230832 0)
(8.83789 -0.190128 0)
(8.78994 -0.167259 0)
(8.71247 -0.110652 0)
(8.66892 -0.0788875 0)
(8.57991 -0.0202004 0)
(8.56508 0.00568798 0)
(8.47276 0.0523198 0)
(8.49243 0.0678343 0)
(8.40058 0.111268 0)
(8.44149 0.116185 0)
(8.34347 0.159841 0)
(8.39956 0.156462 0)
(8.28054 0.204982 0)
(8.34812 0.212685 0)
(8.21493 0.261934 0)
(8.28483 0.268659 0)
(8.14979 0.323538 0)
(8.21809 0.329122 0)
(8.08477 0.392371 0)
(8.15626 0.394687 0)
(8.01039 0.454751 0)
(8.10083 0.454888 0)
(7.93997 0.512237 0)
(8.05554 0.514573 0)
(7.88464 0.565156 0)
(8.01997 0.568878 0)
(7.82192 0.621886 0)
(7.96914 0.619675 0)
(7.77147 0.661602 0)
(7.92726 0.629404 0)
(7.74251 0.675057 0)
(7.88884 0.638799 0)
(7.71107 0.686814 0)
(7.87203 0.641472 0)
(7.69481 0.688056 0)
(7.84714 0.635637 0)
(7.67428 0.688128 0)
(7.81896 0.639324 0)
(7.65395 0.689337 0)
(7.79958 0.62939 0)
(7.63749 0.69701 0)
(7.7983 0.6223 0)
(7.61095 0.707489 0)
(7.83203 0.628563 0)
(7.60427 0.720447 0)
(7.88656 0.624939 0)
(7.60732 0.729952 0)
(7.90282 0.639549 0)
(7.60234 0.753977 0)
(7.88172 0.653533 0)
(7.58715 0.774844 0)
(7.85687 0.660656 0)
(7.55226 0.820053 0)
(7.80661 0.682907 0)
(7.48126 0.875142 0)
(7.7454 0.711953 0)
(7.39211 0.939586 0)
(7.66377 0.735225 0)
(7.28225 1.00867 0)
(7.58577 0.764044 0)
(7.15743 1.09088 0)
(7.55911 0.820026 0)
(7.03399 1.19642 0)
(7.55209 0.91404 0)
(6.95774 1.34047 0)
(7.50037 1.03141 0)
(6.91721 1.50153 0)
(7.43395 1.19956 0)
(6.84492 1.66515 0)
(7.41674 1.41701 0)
(6.71615 1.84054 0)
(7.43941 1.66699 0)
(6.57236 2.07203 0)
(7.46516 1.94955 0)
(6.47293 2.41491 0)
(7.40212 2.25421 0)
(6.44205 2.87196 0)
(7.19261 2.61441 0)
(6.43368 3.46124 0)
(6.92801 3.17101 0)
(6.28171 4.22055 0)
(7.04833 4.14652 0)
(5.66389 5.50037 0)
(8.30224 5.1265 0)
(6.29542 9.37412 0)
(7.89542 -0.0818127 0)
(7.90008 -0.0893514 0)
(7.92857 -0.110169 0)
(7.99882 -0.135087 0)
(8.08724 -0.15289 0)
(8.16715 -0.161057 0)
(8.22216 -0.164322 0)
(8.25578 -0.167 0)
(8.27214 -0.173741 0)
(8.2868 -0.1864 0)
(8.30214 -0.204555 0)
(8.32717 -0.225966 0)
(8.3566 -0.248629 0)
(8.39517 -0.271071 0)
(8.43614 -0.292305 0)
(8.4839 -0.31252 0)
(8.53247 -0.331775 0)
(8.58507 -0.350783 0)
(8.63628 -0.370616 0)
(8.69195 -0.392044 0)
(8.74449 -0.415763 0)
(8.80331 -0.442235 0)
(8.85601 -0.469468 0)
(8.91602 -0.497717 0)
(8.96813 -0.524509 0)
(9.02935 -0.550928 0)
(9.08188 -0.574415 0)
(9.14538 -0.597762 0)
(9.19872 -0.618934 0)
(9.26233 -0.642259 0)
(9.31664 -0.665468 0)
(9.37837 -0.693064 0)
(9.43327 -0.720935 0)
(9.48896 -0.752377 0)
(9.54177 -0.781978 0)
(9.58893 -0.812756 0)
(9.64002 -0.840599 0)
(9.68147 -0.869039 0)
(9.73243 -0.896588 0)
(9.77206 -0.925615 0)
(9.82391 -0.956598 0)
(9.8664 -0.988901 0)
(9.91762 -1.02429 0)
(9.96303 -1.05891 0)
(10.0097 -1.09511 0)
(10.055 -1.12802 0)
(10.0935 -1.16028 0)
(10.1353 -1.18759 0)
(10.1649 -1.21277 0)
(10.2017 -1.23286 0)
(10.2248 -1.25049 0)
(10.2567 -1.26498 0)
(10.2767 -1.27829 0)
(10.3035 -1.29067 0)
(10.3231 -1.30451 0)
(10.3464 -1.31851 0)
(10.367 -1.33722 0)
(10.3899 -1.35563 0)
(10.4103 -1.37911 0)
(10.4326 -1.39942 0)
(10.4449 -1.42137 0)
(10.4616 -1.43954 0)
(10.4583 -1.45586 0)
(10.462 -1.46991 0)
(10.4432 -1.47803 0)
(10.4303 -1.48463 0)
(10.4055 -1.48694 0)
(10.3882 -1.49047 0)
(10.3717 -1.49309 0)
(10.3516 -1.4948 0)
(10.3353 -1.49212 0)
(10.3134 -1.4869 0)
(10.3005 -1.4781 0)
(10.2746 -1.47511 0)
(10.2649 -1.47007 0)
(10.2311 -1.46702 0)
(10.2188 -1.46563 0)
(10.1822 -1.46022 0)
(10.1658 -1.46522 0)
(10.135 -1.45938 0)
(10.1157 -1.45765 0)
(10.0857 -1.4384 0)
(10.0703 -1.42405 0)
(10.0337 -1.38233 0)
(10.0198 -1.35579 0)
(9.98107 -1.30822 0)
(9.96277 -1.27384 0)
(9.91123 -1.22182 0)
(9.89263 -1.18938 0)
(9.82886 -1.13452 0)
(9.81071 -1.08981 0)
(9.7325 -1.0224 0)
(9.70427 -0.977859 0)
(9.61684 -0.909326 0)
(9.58485 -0.866876 0)
(9.49941 -0.804128 0)
(9.46298 -0.773628 0)
(9.39333 -0.727544 0)
(9.38062 -0.714379 0)
(9.32591 -0.684645 0)
(9.32871 -0.687868 0)
(9.29023 -0.664462 0)
(9.2805 -0.672962 0)
(9.2476 -0.633441 0)
(9.21813 -0.616113 0)
(9.18865 -0.56441 0)
(9.12888 -0.539201 0)
(9.10684 -0.476634 0)
(9.01529 -0.446062 0)
(8.9986 -0.373355 0)
(8.88021 -0.338916 0)
(8.86223 -0.26096 0)
(8.73203 -0.240526 0)
(8.74776 -0.192097 0)
(8.62763 -0.187376 0)
(8.6397 -0.130958 0)
(8.50348 -0.117707 0)
(8.51538 -0.0487091 0)
(8.37143 -0.035005 0)
(8.4054 0.0342721 0)
(8.2714 0.0343135 0)
(8.32095 0.09265 0)
(8.20525 0.0816504 0)
(8.26177 0.13928 0)
(8.15618 0.124928 0)
(8.21631 0.189834 0)
(8.10665 0.170587 0)
(8.16442 0.244721 0)
(8.04648 0.227426 0)
(8.10815 0.307536 0)
(7.97897 0.284891 0)
(8.03933 0.375326 0)
(7.91093 0.345073 0)
(7.96879 0.445557 0)
(7.84965 0.413148 0)
(7.89539 0.510375 0)
(7.79165 0.472755 0)
(7.83327 0.555554 0)
(7.74274 0.518662 0)
(7.79366 0.600983 0)
(7.7006 0.566979 0)
(7.76519 0.665447 0)
(7.64624 0.616056 0)
(7.7492 0.69662 0)
(7.61409 0.621663 0)
(7.73465 0.710825 0)
(7.5816 0.637413 0)
(7.71977 0.718839 0)
(7.56541 0.634163 0)
(7.72049 0.723337 0)
(7.53672 0.626745 0)
(7.7346 0.734084 0)
(7.50481 0.617387 0)
(7.73439 0.735336 0)
(7.50207 0.606566 0)
(7.73606 0.751459 0)
(7.51004 0.586371 0)
(7.72957 0.747906 0)
(7.55739 0.572996 0)
(7.74581 0.742461 0)
(7.61426 0.576972 0)
(7.77212 0.767295 0)
(7.6246 0.604085 0)
(7.78714 0.81028 0)
(7.63059 0.617745 0)
(7.7863 0.8426 0)
(7.61897 0.629583 0)
(7.74701 0.895572 0)
(7.61451 0.664494 0)
(7.67901 0.958956 0)
(7.60868 0.7043 0)
(7.57432 1.02707 0)
(7.6351 0.739676 0)
(7.41966 1.08774 0)
(7.69178 0.777711 0)
(7.25264 1.16468 0)
(7.74553 0.827882 0)
(7.12082 1.26715 0)
(7.77318 0.913058 0)
(7.03718 1.39858 0)
(7.79812 1.04532 0)
(6.93005 1.54402 0)
(7.83449 1.21071 0)
(6.80199 1.72593 0)
(7.85758 1.38549 0)
(6.71817 1.95661 0)
(7.82702 1.56951 0)
(6.70627 2.25003 0)
(7.72236 1.79017 0)
(6.78997 2.61687 0)
(7.57732 2.10452 0)
(6.88432 3.03872 0)
(7.51706 2.55006 0)
(6.83731 3.51842 0)
(7.76003 3.1523 0)
(6.53595 4.31819 0)
(8.56075 3.72393 0)
(6.29288 6.0835 0)
(9.51638 3.7031 0)
(7.94026 8.58719 0)
(10.0628 -0.116064 0)
(10.0821 -0.227483 0)
(10.1292 -0.271628 0)
(10.1951 -0.264426 0)
(10.2642 -0.237843 0)
(10.3159 -0.211146 0)
(10.3458 -0.193983 0)
(10.3566 -0.187189 0)
(10.3577 -0.190651 0)
(10.3569 -0.201906 0)
(10.3595 -0.220134 0)
(10.3675 -0.242175 0)
(10.3802 -0.267052 0)
(10.3971 -0.291676 0)
(10.4165 -0.316129 0)
(10.438 -0.338431 0)
(10.4602 -0.36015 0)
(10.483 -0.380153 0)
(10.5066 -0.401135 0)
(10.5313 -0.422067 0)
(10.5573 -0.445586 0)
(10.584 -0.469934 0)
(10.6117 -0.496937 0)
(10.6392 -0.523492 0)
(10.6669 -0.551377 0)
(10.6948 -0.577122 0)
(10.7209 -0.602905 0)
(10.7493 -0.626027 0)
(10.773 -0.649483 0)
(10.8019 -0.671796 0)
(10.8217 -0.695498 0)
(10.8503 -0.720004 0)
(10.8655 -0.746074 0)
(10.8923 -0.774134 0)
(10.9032 -0.801951 0)
(10.9268 -0.831494 0)
(10.9365 -0.858954 0)
(10.9581 -0.889264 0)
(10.9718 -0.917024 0)
(10.9928 -0.948725 0)
(11.013 -0.978632 0)
(11.0333 -1.0135 0)
(11.0583 -1.04682 0)
(11.075 -1.08327 0)
(11.0995 -1.11713 0)
(11.1094 -1.15094 0)
(11.1283 -1.18065 0)
(11.1307 -1.20749 0)
(11.142 -1.22991 0)
(11.1392 -1.24832 0)
(11.1438 -1.26341 0)
(11.1384 -1.27559 0)
(11.1382 -1.28603 0)
(11.1319 -1.29669 0)
(11.1314 -1.30823 0)
(11.1266 -1.32301 0)
(11.1288 -1.33972 0)
(11.1224 -1.35819 0)
(11.1233 -1.37721 0)
(11.1063 -1.39349 0)
(11.0982 -1.41021 0)
(11.0667 -1.42127 0)
(11.0441 -1.43351 0)
(11.0002 -1.43821 0)
(10.9583 -1.444 0)
(10.9093 -1.44724 0)
(10.8576 -1.45541 0)
(10.8141 -1.46294 0)
(10.7586 -1.46569 0)
(10.7174 -1.4671 0)
(10.6575 -1.46468 0)
(10.6122 -1.45881 0)
(10.5533 -1.44966 0)
(10.5109 -1.44568 0)
(10.4474 -1.43654 0)
(10.3962 -1.43421 0)
(10.3322 -1.42625 0)
(10.2823 -1.42829 0)
(10.2283 -1.42934 0)
(10.1894 -1.42893 0)
(10.1363 -1.4204 0)
(10.1051 -1.40886 0)
(10.0455 -1.38317 0)
(10.0132 -1.3497 0)
(9.95153 -1.31793 0)
(9.91446 -1.27136 0)
(9.84582 -1.23149 0)
(9.80257 -1.19072 0)
(9.73813 -1.15066 0)
(9.69134 -1.09885 0)
(9.61691 -1.04484 0)
(9.56396 -0.975244 0)
(9.4802 -0.922401 0)
(9.42769 -0.853742 0)
(9.35029 -0.810744 0)
(9.30219 -0.750294 0)
(9.22899 -0.729631 0)
(9.1963 -0.690408 0)
(9.14292 -0.689618 0)
(9.11534 -0.65909 0)
(9.08149 -0.669953 0)
(9.04701 -0.638862 0)
(9.01318 -0.654071 0)
(8.9752 -0.601111 0)
(8.9353 -0.593828 0)
(8.89268 -0.52615 0)
(8.83274 -0.509126 0)
(8.79154 -0.427411 0)
(8.71192 -0.405554 0)
(8.66961 -0.31419 0)
(8.56297 -0.286358 0)
(8.53023 -0.205305 0)
(8.44443 -0.214123 0)
(8.45071 -0.154953 0)
(8.3469 -0.151715 0)
(8.35495 -0.0768048 0)
(8.22494 -0.0706677 0)
(8.23205 0.00905409 0)
(8.09201 0.00562678 0)
(8.12898 0.0805889 0)
(7.9953 0.0566296 0)
(8.04846 0.126209 0)
(7.93471 0.0925085 0)
(7.97867 0.168338 0)
(7.89131 0.132355 0)
(7.91814 0.216234 0)
(7.83976 0.181946 0)
(7.86282 0.278623 0)
(7.7874 0.237637 0)
(7.80658 0.348263 0)
(7.73706 0.299528 0)
(7.74443 0.418681 0)
(7.67885 0.36305 0)
(7.68733 0.484693 0)
(7.62609 0.427809 0)
(7.63647 0.5446 0)
(7.57638 0.485768 0)
(7.59298 0.58301 0)
(7.52501 0.525489 0)
(7.57135 0.626679 0)
(7.48294 0.570318 0)
(7.5592 0.689028 0)
(7.46349 0.613551 0)
(7.55628 0.711188 0)
(7.47241 0.624198 0)
(7.54663 0.731784 0)
(7.4707 0.639407 0)
(7.54264 0.731815 0)
(7.48599 0.630069 0)
(7.52737 0.727734 0)
(7.50826 0.618061 0)
(7.5219 0.741449 0)
(7.54212 0.609168 0)
(7.509 0.733174 0)
(7.58484 0.596611 0)
(7.51146 0.743766 0)
(7.60788 0.577706 0)
(7.53456 0.743299 0)
(7.65649 0.560816 0)
(7.54392 0.730035 0)
(7.70731 0.553969 0)
(7.5605 0.772044 0)
(7.76256 0.565942 0)
(7.53409 0.803831 0)
(7.85787 0.586521 0)
(7.47724 0.858116 0)
(7.92216 0.615305 0)
(7.39057 0.927031 0)
(7.9877 0.633428 0)
(7.30277 1.00184 0)
(8.06387 0.65789 0)
(7.19629 1.07516 0)
(8.14311 0.691743 0)
(7.08823 1.14272 0)
(8.18517 0.72726 0)
(7.00203 1.21839 0)
(8.16882 0.775166 0)
(6.9587 1.31806 0)
(8.13946 0.850011 0)
(6.9293 1.45664 0)
(8.14122 0.972482 0)
(6.92369 1.64951 0)
(8.11965 1.10417 0)
(6.97425 1.87206 0)
(8.0462 1.25112 0)
(7.07088 2.11535 0)
(7.96334 1.44404 0)
(7.15173 2.38499 0)
(7.93741 1.71696 0)
(7.15115 2.70432 0)
(8.05685 2.06892 0)
(7.03608 3.13054 0)
(8.38311 2.45379 0)
(6.81114 3.76337 0)
(8.94873 2.7251 0)
(6.67574 4.82165 0)
(9.68785 2.75189 0)
(7.1997 6.3602 0)
(10.0203 2.96649 0)
(8.80993 7.50135 0)
(11.5447 -0.101138 0)
(11.5848 -0.242656 0)
(11.7002 -0.300498 0)
(11.7929 -0.293611 0)
(11.8558 -0.258546 0)
(11.8833 -0.221022 0)
(11.8902 -0.195971 0)
(11.8801 -0.186211 0)
(11.8684 -0.189974 0)
(11.8532 -0.203004 0)
(11.8447 -0.223011 0)
(11.8363 -0.246458 0)
(11.835 -0.272212 0)
(11.8333 -0.297678 0)
(11.837 -0.322797 0)
(11.8392 -0.346114 0)
(11.8449 -0.368463 0)
(11.8488 -0.389481 0)
(11.8557 -0.410698 0)
(11.8608 -0.432172 0)
(11.8683 -0.455331 0)
(11.8728 -0.479757 0)
(11.8797 -0.506091 0)
(11.8812 -0.532855 0)
(11.8859 -0.560519 0)
(11.8834 -0.586902 0)
(11.8859 -0.613219 0)
(11.8802 -0.636962 0)
(11.882 -0.661271 0)
(11.8756 -0.682827 0)
(11.8769 -0.706481 0)
(11.8717 -0.72806 0)
(11.8717 -0.753762 0)
(11.8689 -0.777479 0)
(11.8661 -0.805759 0)
(11.8662 -0.831776 0)
(11.8601 -0.862261 0)
(11.8638 -0.890644 0)
(11.8552 -0.922875 0)
(11.8619 -0.953918 0)
(11.8518 -0.988166 0)
(11.859 -1.02203 0)
(11.8472 -1.05729 0)
(11.8509 -1.09178 0)
(11.8367 -1.1252 0)
(11.8336 -1.15611 0)
(11.8161 -1.18389 0)
(11.805 -1.20768 0)
(11.7838 -1.22761 0)
(11.7647 -1.24291 0)
(11.7394 -1.25566 0)
(11.7148 -1.26477 0)
(11.6874 -1.27507 0)
(11.6628 -1.28465 0)
(11.6361 -1.29817 0)
(11.613 -1.31165 0)
(11.5827 -1.32737 0)
(11.5545 -1.3416 0)
(11.5136 -1.35573 0)
(11.4743 -1.36858 0)
(11.4232 -1.38011 0)
(11.3693 -1.38824 0)
(11.3102 -1.39348 0)
(11.2401 -1.39425 0)
(11.1784 -1.39752 0)
(11.102 -1.40011 0)
(11.043 -1.4082 0)
(10.9581 -1.41052 0)
(10.8893 -1.41445 0)
(10.8004 -1.4086 0)
(10.7243 -1.4059 0)
(10.6326 -1.39542 0)
(10.5585 -1.39117 0)
(10.471 -1.38023 0)
(10.392 -1.37426 0)
(10.3043 -1.36857 0)
(10.2289 -1.36956 0)
(10.1577 -1.37538 0)
(10.0992 -1.38363 0)
(10.037 -1.38176 0)
(9.97947 -1.37824 0)
(9.91979 -1.36108 0)
(9.85208 -1.3363 0)
(9.79832 -1.30411 0)
(9.7265 -1.27104 0)
(9.66562 -1.22339 0)
(9.602 -1.18832 0)
(9.54025 -1.14478 0)
(9.47621 -1.10693 0)
(9.41449 -1.03882 0)
(9.33406 -0.987228 0)
(9.26755 -0.910216 0)
(9.19775 -0.870867 0)
(9.13004 -0.79495 0)
(9.07968 -0.771477 0)
(9.01062 -0.698761 0)
(8.97305 -0.703118 0)
(8.91053 -0.643055 0)
(8.87462 -0.669604 0)
(8.8156 -0.617711 0)
(8.79457 -0.650999 0)
(8.72377 -0.594293 0)
(8.71614 -0.631481 0)
(8.62812 -0.551299 0)
(8.6244 -0.561632 0)
(8.51796 -0.471792 0)
(8.51365 -0.469313 0)
(8.39654 -0.365687 0)
(8.37874 -0.357821 0)
(8.24967 -0.238835 0)
(8.2235 -0.238574 0)
(8.13922 -0.158399 0)
(8.1313 -0.193475 0)
(8.05309 -0.101416 0)
(8.02269 -0.120532 0)
(7.95321 -0.00899479 0)
(7.88713 -0.0249041 0)
(7.82588 0.0844665 0)
(7.76341 0.04173 0)
(7.71594 0.140172 0)
(7.66507 0.075692 0)
(7.62797 0.177726 0)
(7.59626 0.108029 0)
(7.55332 0.215858 0)
(7.54611 0.148604 0)
(7.48506 0.26151 0)
(7.49117 0.192721 0)
(7.4334 0.321279 0)
(7.4414 0.24764 0)
(7.39152 0.393675 0)
(7.40549 0.310909 0)
(7.35011 0.46104 0)
(7.36622 0.372592 0)
(7.31653 0.525495 0)
(7.334 0.428441 0)
(7.28962 0.584919 0)
(7.30427 0.482404 0)
(7.26204 0.626173 0)
(7.27092 0.514284 0)
(7.24583 0.666416 0)
(7.25434 0.552599 0)
(7.23302 0.718741 0)
(7.2692 0.582489 0)
(7.25099 0.729482 0)
(7.29541 0.597935 0)
(7.26559 0.756576 0)
(7.31937 0.607359 0)
(7.26865 0.75822 0)
(7.35708 0.59352 0)
(7.26681 0.765229 0)
(7.40301 0.576431 0)
(7.259 0.774046 0)
(7.46276 0.563769 0)
(7.27864 0.776693 0)
(7.50035 0.554308 0)
(7.3094 0.775196 0)
(7.52967 0.52097 0)
(7.35767 0.779592 0)
(7.56508 0.49446 0)
(7.39166 0.789263 0)
(7.5929 0.481152 0)
(7.40557 0.842238 0)
(7.67927 0.501288 0)