/*--------------------------------*- C++ -*----------------------------------*\
| =========                 |                                                 |
| \\      /  F ield         | OpenFOAM: The Open Source CFD Toolbox           |
|  \\    /   O peration     | Version:  2.4.0                                 |
|   \\  /    A nd           | Web:      www.OpenFOAM.org                      |
|    \\/     M anipulation  |                                                 |
\*---------------------------------------------------------------------------*/
FoamFile
{
    version     2.0;
    format      ascii;
    class       volScalarField;
    location    "1.85";
    object      k;
}
// * * * * * * * * * * * * * * * * * * * * * * * * * * * * * * * * * * * * * //

dimensions      [0 2 -2 0 0 0 0];

internalField   nonuniform List<scalar> 
8800
(
8.10963
10.2838
8.77373
6.85087
5.67515
5.01094
4.48647
4.19001
3.86208
3.72359
3.48345
3.42227
3.24041
3.21041
3.04882
3.03336
2.89063
2.86857
2.82094
2.61534
1.38884
4.36996
5.30502
5.29411
5.10588
4.85992
4.52774
4.3426
4.05999
3.94533
3.7119
3.63845
3.46945
3.42093
3.28457
3.25166
3.13752
3.1037
3.00576
3.00246
0.0831986
0.75054
1.54224
1.96256
2.24079
2.47614
2.54431
2.62427
2.61544
2.61073
2.57607
2.55661
2.51088
2.48633
2.44806
2.42292
2.38987
2.3595
2.30919
2.28729
0.00326998
0.0716595
0.248115
0.430158
0.569123
0.719497
0.826092
0.932848
1.03318
1.08884
1.16862
1.20243
1.26877
1.29269
1.34665
1.36118
1.40907
1.40934
1.42342
1.4125
0.000117979
0.00509564
0.0247877
0.0475379
0.0862387
0.122994
0.167352
0.198744
0.253652
0.277738
0.327435
0.34924
0.396229
0.418086
0.467307
0.487148
0.538623
0.556084
0.593167
0.608384
2.54961e-05
0.000326195
0.00177417
0.00349958
0.00744525
0.0112054
0.0191544
0.0245944
0.0362423
0.0420154
0.0543398
0.0607824
0.0729375
0.0828449
0.0968284
0.104325
0.122528
0.136437
0.145261
0.164324
2.2096e-05
4.66551e-05
0.000149443
0.00027528
0.000424858
0.000763364
0.0011902
0.00208793
0.00273785
0.00372351
0.00475884
0.00629868
0.00710681
0.00925133
0.0105855
0.0133241
0.0152247
0.0195823
0.0213608
0.0278062
2.14235e-05
3.18456e-05
4.66213e-05
7.8103e-05
8.68128e-05
0.000108641
0.000129841
0.000190992
0.000221386
0.000302688
0.000347088
0.000468312
0.000486708
0.000649176
0.0007262
0.000962153
0.00110415
0.00160446
0.00182345
0.00312662
2.09377e-05
2.79339e-05
4.13482e-05
6.82322e-05
7.05069e-05
7.23924e-05
7.16917e-05
7.41712e-05
7.84239e-05
9.3605e-05
9.88489e-05
0.00010852
0.000107797
0.00011241
0.000113242
0.000118606
0.000122826
0.000153815
0.000168945
0.000252852
2.06166e-05
2.75318e-05
4.49173e-05
4.97041e-05
5.58264e-05
6.86382e-05
7.25433e-05
7.22615e-05
7.09346e-05
7.04153e-05
7.01972e-05
7.2462e-05
7.9184e-05
8.28223e-05
8.24808e-05
8.21089e-05
8.14121e-05
8.09452e-05
8.14645e-05
8.52543e-05
2.05658e-05
2.83073e-05
3.89687e-05
5.72125e-05
6.56236e-05
6.78917e-05
6.64151e-05
6.65784e-05
6.63622e-05
6.67549e-05
7.06148e-05
8.18028e-05
8.39391e-05
8.4207e-05
8.26312e-05
7.99658e-05
7.75444e-05
7.71082e-05
7.71828e-05
8.2925e-05
2.07498e-05
2.77493e-05
4.87947e-05
6.47214e-05
6.39332e-05
6.22319e-05
6.5145e-05
7.97421e-05
8.41758e-05
9.26058e-05
0.000100303
0.000100847
0.000100164
0.000100764
0.000101965
0.000108152
0.000118598
0.000140947
0.000161772
0.000219206
2.10413e-05
3.05609e-05
4.49422e-05
8.0384e-05
9.134e-05
0.00011181
0.000128994
0.000170373
0.000203585
0.000302411
0.000348259
0.00044651
0.000506864
0.000647004
0.000730255
0.000961703
0.00114319
0.00157154
0.00185294
0.00257944
2.16271e-05
4.26834e-05
0.000123263
0.00037166
0.000509186
0.00083691
0.00116597
0.00198775
0.00258388
0.00407759
0.00480301
0.00645814
0.00740789
0.00956961
0.0107318
0.0137494
0.0156892
0.0202403
0.0228862
0.03012
2.49481e-05
0.000307054
0.0015217
0.00493229
0.00712349
0.0124305
0.0169343
0.026774
0.0326262
0.0458988
0.0518274
0.0647687
0.0713954
0.0861415
0.0932781
0.111092
0.120738
0.143663
0.155626
0.189231
0.000123747
0.00493175
0.0228247
0.058616
0.0807893
0.124842
0.16057
0.208071
0.238826
0.293463
0.315653
0.361541
0.383934
0.431955
0.452884
0.504533
0.528837
0.587505
0.614601
0.686652
0.00337056
0.0694329
0.262766
0.418839
0.579065
0.703699
0.837835
0.927118
1.02282
1.1041
1.1549
1.21413
1.25587
1.30703
1.32987
1.3811
1.40184
1.45265
1.47234
1.52181
0.0846216
0.726559
1.57083
1.9355
2.27979
2.43102
2.58269
2.59515
2.62661
2.60025
2.5879
2.5382
2.52393
2.47425
2.46016
2.41902
2.40956
2.38119
2.37008
2.3439
1.4062
4.3496
5.3212
5.28459
5.1324
4.79625
4.58993
4.27478
4.13205
3.86724
3.7789
3.57817
3.52081
3.36737
3.33198
3.20268
3.17485
3.05796
3.02079
2.92135
8.11923
10.263
8.79512
6.81315
5.71829
4.95653
4.53974
4.12992
3.92906
3.64588
3.55626
3.34986
3.30415
3.13483
3.10849
2.94615
2.91476
2.7392
2.68028
2.4657
1.84447
1.38028
1.07982
0.881372
0.7463
0.667288
0.613671
0.579774
0.553878
0.53411
0.511926
0.489433
0.457755
0.421088
0.374113
0.327337
0.27965
0.242696
0.216427
0.196935
0.191318
0.193719
0.20095
0.215671
0.237463
0.259057
0.284232
0.301288
0.322448
0.332865
0.349698
0.355999
0.364928
0.367778
0.373669
0.375719
0.377939
0.378099
0.378011
0.376371
0.375109
0.370717
0.367286
0.359364
0.352192
0.339721
0.332986
0.321182
0.31833
0.319238
0.322208
0.329365
0.338614
0.348307
0.360116
0.368999
0.378225
0.386534
0.391226
0.400681
0.420319
0.457314
0.53407
0.554686
0.543922
0.511814
0.445195
0.376151
0.315549
0.266472
0.22862
0.205795
0.190283
0.180143
0.17098
0.168646
0.169915
0.174396
0.185525
0.198548
0.212278
0.221241
0.224214
0.222504
0.218348
0.212782
0.20549
0.189928
0.173473
0.143384
0.112854
0.0749757
0.0475949
0.0302647
0.0193631
0.0127722
0.00855092
0.00599393
0.00445998
0.00356439
0.00308023
0.00283616
0.00278946
0.00281635
0.00293921
0.0033622
0.00427215
0.00560836
0.00915146
0.0118634
0.0163113
0.0194625
0.0224329
0.023893
0.0236656
0.0225519
0.0207027
0.0173133
0.0147044
0.0123651
0.0108876
0.010556
0.0107244
0.0112944
0.0124081
0.0156516
0.0188045
0.023555
0.0312015
0.0362482
0.0437195
0.049555
0.0537972
0.0562884
0.05617
0.0550069
0.0521557
0.0482873
0.0448179
0.0414511
0.0370945
0.0348901
0.034351
0.0346047
0.0358421
0.0374574
0.0368549
0.0301967
0.0240024
0.0217968
0.0210623
0.0204608
0.0168475
0.0144372
0.0138831
0.0168338
0.0277242
0.0343957
0.0477632
0.0665389
0.0959119
0.190724
0.296845
0.33115
0.333536
0.318826
0.275788
0.225127
0.173326
0.130894
0.111745
0.105623
0.106615
0.126452
0.136854
0.128317
0.107614
0.107751
0.114751
0.134399
0.201645
0.243556
0.268901
0.27827
0.258867
0.181864
0.123226
0.0788382
0.0617911
0.0577175
0.0480658
0.0484314
0.0544886
0.0548677
0.0920823
0.082337
0.141405
0.150061
0.235517
0.335246
2.56325
2.11036
1.76828
1.52197
1.33569
1.19504
1.08634
1.00489
0.938504
0.888615
0.845013
0.811658
0.780276
0.753285
0.722002
0.691391
0.657631
0.622546
0.587647
0.55594
0.533455
0.514727
0.505372
0.496623
0.495778
0.495093
0.49655
0.497161
0.498716
0.498711
0.498101
0.497608
0.495798
0.494975
0.492396
0.490718
0.488255
0.485582
0.484534
0.481413
0.480234
0.47744
0.475334
0.469497
0.465334
0.456614
0.448879
0.441346
0.428405
0.422356
0.410253
0.401827
0.393538
0.384092
0.380041
0.374369
0.367291
0.366606
0.368521
0.376323
0.391079
0.410842
0.42873
0.460047
0.496455
0.498268
0.492256
0.474462
0.450189
0.414185
0.387687
0.351897
0.33104
0.306265
0.292159
0.281322
0.277692
0.272594
0.267547
0.260486
0.255497
0.246728
0.237386
0.223979
0.205
0.186704
0.15207
0.120093
0.0827623
0.0531935
0.0342315
0.0219403
0.0142989
0.00950333
0.00656109
0.0047267
0.00360738
0.00299975
0.00268409
0.00261031
0.00262052
0.00267467
0.00286768
0.00328644
0.00415438
0.00630571
0.00904583
0.0144972
0.0222642
0.030916
0.0413577
0.0492571
0.0557711
0.0586876
0.0579786
0.0555227
0.0514615
0.0437936
0.0368817
0.0291775
0.0224882
0.0176853
0.0146167
0.0128277
0.0124386
0.012583
0.0130324
0.013841
0.0162667
0.0183476
0.0214597
0.0260683
0.0282813
0.0318487
0.0336185
0.0342027
0.0347671
0.0348463
0.034721
0.0342943
0.0327549
0.032535
0.0329285
0.0340485
0.0341771
0.0349771
0.0337033
0.0259667
0.0195693
0.0171438
0.0164238
0.0160923
0.0139274
0.0119394
0.011253
0.0114508
0.0162184
0.0231938
0.0419843
0.0629184
0.106398
0.22849
0.329767
0.369195
0.36364
0.33266
0.256968
0.189446
0.137538
0.107621
0.0932839
0.094648
0.095454
0.110144
0.123964
0.122782
0.105277
0.102804
0.108601
0.121981
0.166639
0.231119
0.263551
0.276704
0.27692
0.238519
0.146381
0.107302
0.0695134
0.058391
0.0561954
0.0537183
0.0734132
0.0689032
0.0896849
0.0950261
0.11534
0.153372
0.182834
0.249574
2.07158
1.84379
1.63238
1.46143
1.31777
1.20616
1.11041
1.03762
0.971512
0.921264
0.875465
0.838479
0.805906
0.779883
0.753936
0.7317
0.709764
0.686821
0.667727
0.644583
0.627385
0.607089
0.593091
0.576447
0.566177
0.555052
0.544779
0.539516
0.528188
0.523926
0.51419
0.510283
0.501749
0.497781
0.490621
0.485843
0.481476
0.474251
0.471152
0.466165
0.461676
0.458694
0.455909
0.452138
0.448125
0.444377
0.435517
0.429207
0.419044
0.405632
0.39751
0.37975
0.368585
0.352761
0.336268
0.324206
0.308039
0.299113
0.290366
0.284571
0.285029
0.288348
0.298863
0.310177
0.333152
0.359121
0.386781
0.406757
0.40719
0.403082
0.39179
0.378758
0.361521
0.347455
0.333661
0.319196
0.306037
0.28949
0.273479
0.25655
0.23406
0.213084
0.181246
0.146476
0.113267
0.0779047
0.052604
0.0351602
0.0232321
0.0152929
0.0101586
0.00695425
0.00490824
0.003649
0.00293003
0.00249998
0.00232731
0.00233941
0.00239088
0.00255589
0.00287009
0.00343062
0.0047462
0.00625638
0.00970449
0.0141336
0.0235086
0.0384313
0.0576139
0.0816855
0.103782
0.12
0.132517
0.135111
0.132722
0.126126
0.11557
0.0988907
0.0837936
0.0673096
0.052434
0.0398807
0.0297985
0.0225756
0.0178008
0.0152667
0.0139593
0.0139063
0.0141281
0.0147689
0.0155627
0.0179383
0.0193816
0.0214089
0.0237867
0.0254743
0.0276589
0.0296885
0.0308541
0.0309297
0.0307379
0.0312312
0.0328122
0.0324199
0.0308009
0.0295694
0.0258037
0.0198952
0.0166421
0.0153315
0.0141525
0.0126822
0.0115065
0.0109195
0.0106642
0.0108529
0.0131438
0.0186757
0.0337228
0.0580159
0.124166
0.251568
0.36794
0.385924
0.372358
0.316116
0.216829
0.142218
0.105974
0.0856812
0.0804208
0.0806548
0.083553
0.0948021
0.112034
0.113442
0.102714
0.0990745
0.102573
0.114883
0.141252
0.208173
0.25964
0.279007
0.283516
0.277043
0.202282
0.12739
0.0961493
0.0716549
0.0787467
0.071402
0.0755622
0.0765207
0.0799609
0.0929415
0.0977932
0.125479
0.128029
0.140099
1.32369
1.22992
1.13379
1.0482
0.968347
0.90092
0.84218
0.793282
0.75197
0.715803
0.685298
0.657538
0.632772
0.612627
0.595858
0.581416
0.569045
0.554606
0.540514
0.525167
0.507966
0.492799
0.476782
0.464772
0.449319
0.441207
0.428042
0.420137
0.409559
0.401374
0.391628
0.382231
0.374543
0.365495
0.360394
0.352101
0.348855
0.343714
0.338179
0.335924
0.329028
0.325886
0.319958
0.316767
0.311668
0.308174
0.301765
0.296077
0.287685
0.278912
0.265749
0.254194
0.237685
0.223423
0.205868
0.189684
0.175427
0.161524
0.1519
0.144921
0.142957
0.144365
0.148216
0.156474
0.164993
0.181236
0.191778
0.211921
0.230873
0.245768
0.261703
0.266007
0.264177
0.259213
0.247969
0.23255
0.215188
0.193083
0.167932
0.142992
0.114042
0.0863086
0.0635167
0.0456201
0.0320824
0.022205
0.0151915
0.0103706
0.00707766
0.00490632
0.00355307
0.00274771
0.0022922
0.00204503
0.00200739
0.00204272
0.00214341
0.00236485
0.00283723
0.00399011
0.00514947
0.00734369
0.0109253
0.0149782
0.0234643
0.0358452
0.0651699
0.102572
0.156938
0.207776
0.242385
0.26565
0.265523
0.261745
0.251602
0.240248
0.222456
0.20084
0.18079
0.152661
0.125757
0.0982544
0.0705929
0.0505298
0.0358869
0.0262924
0.0204055
0.0171578
0.0157586
0.0156029
0.0158413
0.0167188
0.017563
0.0189776
0.0216077
0.0228267
0.0249081
0.0276525
0.0296384
0.0297129
0.029204
0.0291529
0.0302531
0.0295038
0.0272058
0.0226411
0.0184813
0.0151313
0.0138712
0.013
0.011954
0.0111894
0.0108988
0.0108086
0.010983
0.0114115
0.0135726
0.0178774
0.0284018
0.0673817
0.131326
0.288967
0.384716
0.388954
0.367871
0.263704
0.168927
0.119409
0.0941551
0.0805383
0.0769435
0.0754385
0.0770384
0.0853956
0.100671
0.104449
0.0968423
0.0936584
0.0995949
0.110049
0.128117
0.17012
0.244461
0.282135
0.286938
0.283039
0.257102
0.168586
0.140673
0.0988328
0.0886607
0.0791967
0.0766205
0.0782604
0.078528
0.0852168
0.086249
0.0962391
0.0975727
0.10135
0.587558
0.562123
0.536726
0.506011
0.479983
0.452365
0.431026
0.408553
0.394233
0.377011
0.36686
0.35509
0.344836
0.335915
0.327892
0.321146
0.315122
0.311418
0.304262
0.299578
0.291505
0.281878
0.272203
0.262835
0.25076
0.242148
0.234799
0.225278
0.221322
0.214262
0.210557
0.203568
0.196875
0.190724
0.182782
0.176084
0.172228
0.167706
0.164468
0.163456
0.16116
0.158942
0.155709
0.150658
0.147161
0.141175
0.137939
0.131871
0.127468
0.121103
0.114352
0.107656
0.0972866
0.0884668
0.0793935
0.0698728
0.0634651
0.0560365
0.0515702
0.0476307
0.0460247
0.0463393
0.0475314
0.0506978
0.0548351
0.0602382
0.0665647
0.0717767
0.0810026
0.0862503
0.0913602
0.096523
0.0968659
0.095722
0.0922368
0.0853408
0.0762752
0.0655279
0.0546467
0.0443117
0.034667
0.0262653
0.0193286
0.0138692
0.00980624
0.00686086
0.00482066
0.00341615
0.00250659
0.00200068
0.00174288
0.00169064
0.0017141
0.00177247
0.00192321
0.00230816
0.00289821
0.0039853
0.00592427
0.00896837
0.0118903
0.0177573
0.0252283
0.0364624
0.0559801
0.0943431
0.18286
0.272609
0.347739
0.360614
0.353498
0.338252
0.3194
0.303958
0.286516
0.276175
0.262921
0.250238
0.238723
0.221233
0.201521
0.177798
0.148498
0.11693
0.08233
0.0556251
0.0388872
0.0282405
0.0223526
0.0195174
0.0181135
0.0181243
0.0184878
0.0193761
0.0211478
0.0221819
0.0241175
0.0247986
0.0265971
0.0273634
0.0272685
0.02681
0.0264857
0.0235848
0.0200267
0.0168067
0.0152588
0.013352
0.012641
0.0118802
0.0110976
0.0109689
0.0110284
0.0115106
0.0124605
0.0136277
0.0163287
0.0189669
0.0269733
0.0818057
0.143099
0.316857
0.382991
0.389773
0.339699
0.229431
0.152204
0.110969
0.0894441
0.0798787
0.0758331
0.0742678
0.0748414
0.082969
0.0940111
0.0961069
0.0946001
0.0891798
0.0955712
0.111909
0.12224
0.145024
0.209142
0.272929
0.286095
0.295789
0.290094
0.241199
0.186224
0.125763
0.101173
0.0867105
0.0792392
0.0794326
0.0785108
0.0811141
0.0808958
0.0852649
0.0859331
0.0886021
0.161613
0.157048
0.152183
0.144761
0.138809
0.133259
0.128738
0.124082
0.121917
0.118306
0.116833
0.115179
0.113368
0.112094
0.110613
0.109594
0.108358
0.107851
0.106755
0.105727
0.104433
0.102243
0.0983474
0.0956321
0.0900436
0.0856112
0.0821419
0.0769543
0.0748243
0.0716753
0.0702753
0.0690812
0.066521
0.0652705
0.0621408
0.0585485
0.0561012
0.0530803
0.0513367
0.050248
0.0494922
0.0492197
0.0489754
0.0483615
0.0469276
0.0440856
0.0424041
0.0393414
0.0372536
0.0348947
0.032214
0.0306091
0.0279658
0.0260645
0.0237127
0.0209987
0.0190995
0.0167078
0.0150944
0.013691
0.0126896
0.0126324
0.012788
0.0133632
0.0147669
0.0160853
0.0182373
0.0194228
0.0214033
0.0234477
0.0245555
0.0253463
0.0252172
0.0246608
0.023499
0.021713
0.0197006
0.0174349
0.014997
0.0124658
0.00995168
0.00759768
0.00561741
0.0041291
0.0030025
0.00220559
0.00172747
0.00139193
0.00134027
0.00136345
0.00143014
0.00161003
0.00186634
0.00230532
0.00331297
0.00480602
0.00661621
0.0097583
0.0148539
0.019985
0.028078
0.0404322
0.0553271
0.0833814
0.143125
0.281314
0.415119
0.4435
0.431452
0.404315
0.365239
0.339895
0.308526
0.283506
0.268109
0.256468
0.247117
0.243486
0.23833
0.232636
0.227771
0.221061
0.205073
0.185288
0.156234
0.11794
0.0843617
0.0563735
0.0394341
0.0301221
0.0247505
0.022609
0.0216122
0.0216404
0.0219469
0.0224714
0.0235622
0.024679
0.0250911
0.0250532
0.0241657
0.0237784
0.0231742
0.0200849
0.0164296
0.0140466
0.0132987
0.0124725
0.0121213
0.0114745
0.0108837
0.0109774
0.0113126
0.0138128
0.0157017
0.0178722
0.020306
0.0220309
0.0341936
0.0820706
0.157552
0.328811
0.380557
0.375923
0.321837
0.222515
0.145459
0.107773
0.0879828
0.0815819
0.0761682
0.0746015
0.0774237
0.0811033
0.0959976
0.09499
0.0902954
0.0894442
0.0912673
0.115199
0.123463
0.135439
0.166218
0.245028
0.282943
0.302506
0.295728
0.267786
0.224711
0.160342
0.125691
0.0999598
0.086712
0.0829197
0.0798369
0.0808277
0.0802257
0.081746
0.0824298
0.0848894
0.0275792
0.026878
0.0256332
0.0244068
0.0233693
0.0228473
0.0223076
0.0220645
0.0220005
0.0219333
0.0219683
0.0219689
0.0219256
0.0217796
0.021758
0.0217943
0.0218158
0.0220974
0.0221877
0.0221724
0.0221012
0.0218339
0.021362
0.0210215
0.0200521
0.0193094
0.0183312
0.0172262
0.0166794
0.015901
0.0154646
0.0152997
0.0150647
0.0149732
0.0146114
0.0136864
0.0129671
0.0120742
0.0115659
0.0112588
0.0111012
0.011079
0.0110649
0.0110589
0.0110101
0.0105362
0.00986862
0.00903982
0.0083708
0.00782494
0.00717281
0.00671128
0.0062684
0.00596878
0.00557608
0.00504719
0.00457398
0.00404313
0.00363791
0.00324422
0.00296419
0.00292951
0.00295923
0.00306659
0.00348461
0.00384067
0.00432298
0.00470698
0.00493782
0.00531268
0.00563258
0.00565789
0.00552648
0.00517693
0.00494239
0.00471676
0.00447823
0.00417001
0.00375102
0.00314307
0.00254359
0.00198719
0.00157844
0.00131727
0.00110912
0.00104521
0.00104547
0.00107871
0.0012336
0.00151476
0.00200666
0.00301471
0.00398501
0.00568928
0.0089411
0.0119232
0.016883
0.0250223
0.0317604
0.044471
0.0627121
0.0813911
0.118077
0.198157
0.408808
0.523287
0.520745
0.490051
0.434879
0.365789
0.312158
0.267618
0.24284
0.226637
0.219992
0.211022
0.200616
0.200067
0.202169
0.211094
0.217886
0.218614
0.217621
0.213665
0.201832
0.180014
0.145936
0.109208
0.0782055
0.0559411
0.0408576
0.0335981
0.0286026
0.026512
0.0247597
0.0240619
0.0240342
0.0244415
0.0245221
0.0244284
0.0224583
0.0212566
0.0199082
0.0176673
0.0148462
0.0131857
0.0125381
0.012306
0.0120979
0.0115221
0.0113097
0.0115356
0.0122037
0.0165937
0.0189591
0.0221342
0.0238052
0.0252973
0.0415071
0.0827588
0.17694
0.331132
0.365081
0.358358
0.318524
0.222093
0.143356
0.106747
0.087884
0.0817683
0.0749062
0.0739727
0.0795683
0.0832
0.0886373
0.0998605
0.0914195
0.0929937
0.0919022
0.111352
0.13145
0.13609
0.148925
0.206182
0.267965
0.297408
0.293598
0.275464
0.251159
0.191578
0.159406
0.125698
0.106015
0.0931324
0.0845047
0.082931
0.0814177
0.0822789
0.0831093
0.0844198
0.00314814
0.00309902
0.00298504
0.0028219
0.00269637
0.0026359
0.00256741
0.00255554
0.00255367
0.0025559
0.0025705
0.00257504
0.0025839
0.00259562
0.00260684
0.00264053
0.00268571
0.00278797
0.00284131
0.00285036
0.00285149
0.00282572
0.00278421
0.00273339
0.00263805
0.00258713
0.00247407
0.00235599
0.00228613
0.00219492
0.00213775
0.00211724
0.00209313
0.0020914
0.00208489
0.00200115
0.00192724
0.00179878
0.00170995
0.00165585
0.0016084
0.00159828
0.00159101
0.00158636
0.00158112
0.00156153
0.00149727
0.00139727
0.00128664
0.00120955
0.00111104
0.00103502
0.000967576
0.00092907
0.000884688
0.000825024
0.000770554
0.000709081
0.000658978
0.000603609
0.000562756
0.000556017
0.000558883
0.000572477
0.000640794
0.000731198
0.000804648
0.000882818
0.000912103
0.000960906
0.000980922
0.000972007
0.000920072
0.000871714
0.000877201
0.000886019
0.000878621
0.000860769
0.000828273
0.00076551
0.0007589
0.000767669
0.000791033
0.000820914
0.000871445
0.000994166
0.00121909
0.00165088
0.00269085
0.00371522
0.00573868
0.00807569
0.0106235
0.0166945
0.0213401
0.0289295
0.0417546
0.0516176
0.0684025
0.0953586
0.11813
0.159889
0.260205
0.518365
0.6114
0.596205
0.540641
0.436837
0.34335
0.281947
0.246173
0.226382
0.218266
0.214509
0.211154
0.207728
0.201916
0.18758
0.179745
0.180159
0.18423
0.198151
0.210934
0.213081
0.211502
0.20541
0.190556
0.156662
0.122019
0.0931405
0.0710077
0.0544863
0.0423179
0.0364421
0.0313972
0.0281717
0.0263316
0.0257135
0.0253343
0.0247713
0.0217555
0.0202518
0.0185127
0.0171414
0.0148338
0.0138832
0.0132465
0.0132676
0.0133849
0.0131706
0.0129267
0.0130611
0.0139195
0.0184446
0.0217488
0.0258872
0.0270889
0.0284491
0.0447372
0.0831314
0.186043
0.317195
0.354824
0.357154
0.337661
0.226115
0.142864
0.106128
0.0892275
0.0801544
0.0694651
0.0714344
0.0724035
0.09652
0.0905895
0.102465
0.0948337
0.0925319
0.0983322
0.109616
0.141562
0.140965
0.147075
0.185342
0.239035
0.280202
0.284127
0.273769
0.259307
0.220667
0.19019
0.158999
0.131823
0.114937
0.0988844
0.0942194
0.0902229
0.0894626
0.0896765
0.0903448
0.000259246
0.000265358
0.000272078
0.000271126
0.000267359
0.000263314
0.000258568
0.000256333
0.000254284
0.000253908
0.000253663
0.000254039
0.000254437
0.000256543
0.000257685
0.00025989
0.000261158
0.000262989
0.000266217
0.000266497
0.000266887
0.000266512
0.000264506
0.000263102
0.000259318
0.000256881
0.000252339
0.000247391
0.000243216
0.000239158
0.000237237
0.000237168
0.000236955
0.000237999
0.000239557
0.000239173
0.000236067
0.000224451
0.000214471
0.000208207
0.000201998
0.000200134
0.000199512
0.000200897
0.000205342
0.000207384
0.000208137
0.000205952
0.000197464
0.000189383
0.000186259
0.000186467
0.000187797
0.000191049
0.000197659
0.00020436
0.000211397
0.000213394
0.000216556
0.00021774
0.000217404
0.000218146
0.000217774
0.000218008
0.000220978
0.000231391
0.000245273
0.000256496
0.000265046
0.000267489
0.000267183
0.000267794
0.000274013
0.000279827
0.00029424
0.000312352
0.000351663
0.000384501
0.00046575
0.000532155
0.000680981
0.000797868
0.00104547
0.00131825
0.00169132
0.00267935
0.00354225
0.0055829
0.00749535
0.0110754
0.0158266
0.0202903
0.0291556
0.0396244
0.0486762
0.0699712
0.085726
0.107221
0.143689
0.177355
0.218504
0.321391
0.604427
0.682731
0.657313
0.570213
0.451195
0.354092
0.286535
0.244965
0.222185
0.212481
0.211738
0.212612
0.216022
0.216321
0.215244
0.208356
0.190771
0.180571
0.178692
0.180514
0.189817
0.204561
0.208573
0.207834
0.203009
0.189698
0.159982
0.126106
0.0985999
0.0753975
0.0597932
0.0496574
0.0437686
0.0379574
0.0335896
0.0305281
0.0289339
0.026276
0.022419
0.0200878
0.0187615
0.0180727
0.0164373
0.0157003
0.0152818
0.0154481
0.0154251
0.0151482
0.0151448
0.0156737
0.0182204
0.0231096
0.0260798
0.0288302
0.0300503
0.0319227
0.044237
0.0767681
0.194764
0.281616
0.354097
0.395833
0.347526
0.217002
0.138256
0.101507
0.0883539
0.0706946
0.0665248
0.0736275
0.0727394
0.0889478
0.100404
0.0954208
0.119946
0.100383
0.109471
0.113982
0.138161
0.155568
0.152838
0.166063
0.203222
0.253449
0.272091
0.267609
0.258557
0.23495
0.206336
0.180754
0.151314
0.134474
0.119604
0.115099
0.108084
0.101069
0.0990046
0.0992224
8.81038e-05
8.99255e-05
9.42675e-05
9.72401e-05
9.85188e-05
9.95222e-05
0.000101372
0.000103152
0.000104313
0.000105503
0.000106353
0.000106719
0.00010667
0.000105701
0.000104617
0.000102781
0.000102005
0.000100763
9.96636e-05
9.89126e-05
9.80337e-05
9.77117e-05
9.7413e-05
9.73842e-05
9.74189e-05
9.75177e-05
9.77563e-05
9.83329e-05
9.89784e-05
0.000100407
0.00010125
0.00010284
0.000104093
0.000105422
0.000107043
0.000108803
0.00011019
0.000110771
0.000111965
0.000112858
0.000115402
0.000117726
0.000120254
0.00012221
0.000124317
0.000126257
0.00012818
0.000130273
0.000133667
0.000139359
0.000150802
0.000174616
0.000189784
0.000211777
0.000237402
0.000251382
0.000274389
0.000296117
0.000329108
0.000350889
0.000366724
0.000374391
0.000373419
0.000365581
0.000355645
0.000354082
0.000363387
0.000371219
0.000377867
0.00038815
0.000395967
0.000407491
0.000426094
0.000446818
0.000491782
0.000549073
0.000667619
0.00079503
0.00113653
0.00141988
0.00201348
0.00248148
0.00354178
0.00451417
0.0061394
0.00883768
0.0109559
0.0165969
0.0208175
0.0303533
0.0382132
0.0525939
0.0691304
0.0866336
0.113904
0.146228
0.174715
0.220883
0.268353
0.301423
0.383983
0.645862
0.745569
0.680656
0.592155
0.517056
0.415332
0.322866
0.260459
0.224447
0.207209
0.197594
0.196368
0.19691
0.202687
0.213106
0.220196
0.220659
0.215001
0.193847
0.186054
0.183741
0.18522
0.189766
0.201754
0.204775
0.203179
0.198154
0.185133
0.152122
0.127347
0.101102
0.0805636
0.0647778
0.0544078
0.0450032
0.0392827
0.035433
0.0336803
0.0301196
0.0255487
0.022134
0.0212111
0.0204543
0.0198567
0.0196962
0.0196303
0.0197876
0.0196022
0.0194912
0.0197605
0.0210613
0.0257874
0.0273304
0.0291766
0.029615
0.0307835
0.0335426
0.041696
0.0667067
0.180356
0.261026
0.410532
0.418577
0.323761
0.210367
0.132877
0.0973297
0.0809912
0.0685415
0.062882
0.0623107
0.0736127
0.0743106
0.18993
0.125096
0.183518
0.135771
0.134571
0.137817
0.145449
0.160964
0.160995
0.164763
0.183337
0.215917
0.257598
0.256428
0.253102
0.237801
0.210852
0.188161
0.164329
0.149443
0.135216
0.126499
0.120588
0.11377
0.109678
0.105328
8.76349e-05
8.98742e-05
9.49748e-05
9.86049e-05
0.000100747
0.000101477
0.00010281
0.000104844
0.000105137
0.000105388
0.000105145
0.000104519
0.000104182
0.000103802
0.000103853
0.00010404
0.000104404
0.000105854
0.000107215
0.000108802
0.000110148
0.00011186
0.000113699
0.000118104
0.000122628
0.000125473
0.000131616
0.000134045
0.000138248
0.000142301
0.000144782
0.000151095
0.000157411
0.000172468
0.00018528
0.00020705
0.00022156
0.000233188
0.00025529
0.000266572
0.000293629
0.000319061
0.00034098
0.000363446
0.000374078
0.00038706
0.000398198
0.000411707
0.000443986
0.000504561
0.000590041
0.00075206
0.000833854
0.000974935
0.00108977
0.00118913
0.00132126
0.00142596
0.00154945
0.00163224
0.00165001
0.00165528
0.00167254
0.0016646
0.00165632
0.00164815
0.00164193
0.00164194
0.00164413
0.00166035
0.0016953
0.00176585
0.00187651
0.00199423
0.00226459
0.00249385
0.00296903
0.00340861
0.00448465
0.0053268
0.00710728
0.00852776
0.0115068
0.0147098
0.018362
0.0259739
0.0313196
0.0442881
0.0539337
0.0750895
0.0922113
0.121306
0.153879
0.186568
0.248428
0.280756
0.346433
0.384358
0.406123
0.457599
0.659986
0.761608
0.663958
0.590074
0.568831
0.508048
0.404505
0.310401
0.248112
0.21501
0.198505
0.192549
0.191046
0.191546
0.193076
0.19873
0.212017
0.218737
0.221408
0.215992
0.203377
0.192178
0.191454
0.189472
0.19249
0.198186
0.20053
0.198731
0.192328
0.167689
0.147943
0.123607
0.0997836
0.0820817
0.0676306
0.0576711
0.0507461
0.0427312
0.0382422
0.0334379
0.0288865
0.0266073
0.0263137
0.0256793
0.0250239
0.0237747
0.0232624
0.0229849
0.0224781
0.0225926
0.0229583
0.0252444
0.0286473
0.0292399
0.0311686
0.0307753
0.031109
0.0329269
0.03898
0.060803
0.134657
0.263846
0.433372
0.421243
0.306589
0.225163
0.135098
0.0958869
0.0788699
0.0693982
0.061998
0.0611081
0.0872944
0.0907933
0.211488
0.140297
0.216359
0.158522
0.171166
0.162003
0.168883
0.170961
0.172294
0.168056
0.184684
0.194672
0.230629
0.234501
0.236404
0.230051
0.211147
0.188954
0.170499
0.156104
0.143237
0.130615
0.126158
0.120006
0.115247
0.108239
0.000243649
0.000246766
0.000250839
0.000250411
0.000247979
0.000247982
0.000253306
0.000277424
0.000286539
0.000301582
0.000307918
0.000309127
0.000313926
0.00031497
0.000319817
0.000343521
0.000355764
0.000391837
0.000408942
0.000422353
0.000446917
0.000460371
0.000479603
0.000532297
0.000575452
0.000623492
0.000701675
0.000737954
0.000791417
0.000840443
0.000867429
0.000924147
0.000971047
0.00107206
0.00118569
0.00132184
0.00147094
0.00157269
0.00174276
0.00184189
0.0019665
0.00208993
0.002171
0.00228494
0.00234799
0.00244343
0.0025406
0.00262602
0.00286018
0.00320005
0.00358985
0.00422748
0.00455014
0.0050142
0.00551445
0.00579903
0.00629159
0.00667219
0.00690976
0.00713549
0.00718751
0.00720327
0.00722167
0.00718328
0.00714574
0.00711711
0.00710253
0.00710506
0.00711803
0.00718388
0.00731484
0.00756976
0.00785383
0.00823879
0.00905791
0.00975265
0.0112793
0.0126202
0.0155907
0.017867
0.0225784
0.0267431
0.0334593
0.0436438
0.0507674
0.0691194
0.0828844
0.109539
0.131464
0.169913
0.208767
0.252061
0.319098
0.37119
0.42511
0.449099
0.459081
0.471221
0.497816
0.629605
0.697241
0.625858
0.549274
0.570951
0.573821
0.518491
0.411909
0.309724
0.244215
0.211396
0.196156
0.191681
0.189332
0.190382
0.191398
0.19533
0.200659
0.212097
0.218307
0.219439
0.214535
0.203496
0.195282
0.191022
0.192568
0.192619
0.195785
0.196507
0.194599
0.184112
0.160038
0.137247
0.112981
0.0960775
0.0791756
0.0670569
0.0557298
0.0480528
0.0453204
0.0406841
0.0352153
0.0328055
0.0321204
0.0305608
0.0288662
0.0270414
0.0265017
0.0260262
0.0249879
0.0248684
0.0248564
0.0279403
0.0309707
0.0326753
0.0365539
0.0355254
0.033278
0.0328051
0.0346927
0.0501188
0.094625
0.279536
0.440047
0.392645
0.31976
0.257571
0.137059
0.0956601
0.0816539
0.0733128
0.0699938
0.0777351
0.0936765
0.0916352
0.168127
0.177535
0.477243
0.270693
0.455058
0.246314
0.198746
0.176164
0.18595
0.175871
0.191835
0.193594
0.210712
0.20954
0.20895
0.205896
0.19958
0.185044
0.170239
0.155644
0.144641
0.131797
0.126306
0.117805
0.113593
0.105009
0.00292788
0.00294442
0.00291895
0.00286212
0.00283709
0.00284235
0.00293371
0.00314535
0.00326783
0.00340951
0.00348027
0.00349053
0.00352684
0.00352384
0.00359501
0.00391634
0.00410606
0.00442289
0.00452847
0.00459853
0.00469285
0.00474064
0.00484906
0.00523074
0.0055268
0.00597969
0.00639924
0.00659214
0.00690413
0.00712005
0.00723029
0.00746033
0.00768125
0.00819012
0.00881286
0.00934104
0.0100279
0.0104054
0.0109392
0.0113268
0.0115854
0.0119707
0.0121639
0.0125195
0.0128936
0.0133834
0.013905
0.0143384
0.0153512
0.0161891
0.0172203
0.0186854
0.0194267
0.0206029
0.0218992
0.0226831
0.0238825
0.0247132
0.0250292
0.0254836
0.025611
0.0255346
0.0254787
0.0254042
0.025283
0.0251086
0.0249071
0.0248276
0.024718
0.0247666
0.0249541
0.0254128
0.0261313
0.0275718
0.0295031
0.0319979
0.0366755
0.0402004
0.0471513
0.0543509
0.064244
0.0777084
0.0898487
0.115083
0.132458
0.167421
0.196422
0.239768
0.294172
0.340222
0.408704
0.447345
0.484012
0.493604
0.492908
0.498301
0.491999
0.496905
0.541826
0.579877
0.531083
0.474845
0.508577
0.56965
0.611516
0.601608
0.504938
0.367543
0.26624
0.216291
0.1969
0.190867
0.188836
0.189693
0.189432
0.190992
0.197385
0.204919
0.209222
0.213728
0.210206
0.207529
0.198097
0.196005
0.193534
0.194608
0.196127
0.196518
0.194902
0.188172
0.171301
0.150927
0.125975
0.109485
0.0910565
0.0798848
0.0644895
0.0564373
0.0529992
0.0457536
0.0402542
0.0387019
0.0378847
0.0345624
0.0305571
0.0294316
0.0293952
0.0293514
0.0282441
0.0275468
0.0275939
0.0330986
0.0347256
0.0368981
0.0413678
0.0420427
0.0415278
0.0379343
0.0383779
0.048527
0.084373
0.28645
0.420965
0.383604
0.39267
0.265445
0.129369
0.102711
0.095645
0.0952638
0.113869