/*--------------------------------*- C++ -*----------------------------------*\
| =========                 |                                                 |
| \\      /  F ield         | OpenFOAM: The Open Source CFD Toolbox           |
|  \\    /   O peration     | Version:  2.4.0                                 |
|   \\  /    A nd           | Web:      www.OpenFOAM.org                      |
|    \\/     M anipulation  |                                                 |
\*---------------------------------------------------------------------------*/
FoamFile
{
    version     2.0;
    format      ascii;
    class       volScalarField;
    location    "1.85";
    object      k_0;
}
// * * * * * * * * * * * * * * * * * * * * * * * * * * * * * * * * * * * * * //

dimensions      [0 2 -2 0 0 0 0];

internalField   nonuniform List<scalar> 
8800
(
8.10989
10.2835
8.7737
6.85109
5.67493
5.01111
4.4864
4.18993
3.86212
3.72359
3.48338
3.42231
3.24042
3.21033
3.04885
3.03326
2.89043
2.86855
2.82069
2.61455
1.38901
4.36979
5.30492
5.29415
5.10584
4.86014
4.52766
4.34247
4.0601
3.94535
3.71172
3.63848
3.46955
3.42085
3.28472
3.25165
3.13729
3.10376
3.00549
3.00233
0.0832078
0.750671
1.54192
1.96251
2.24117
2.47603
2.54428
2.62436
2.6154
2.61066
2.57602
2.5566
2.51098
2.48615
2.44835
2.42293
2.38964
2.3598
2.3091
2.28716
0.00327033
0.0716735
0.247877
0.429867
0.56975
0.719439
0.825888
0.933249
1.03307
1.0886
1.16857
1.20237
1.2689
1.29274
1.34662
1.36129
1.40904
1.40933
1.42362
1.41258
0.000117986
0.00509563
0.0246441
0.0473104
0.0866813
0.123102
0.167216
0.198888
0.253609
0.27766
0.327346
0.349147
0.396269
0.418151
0.467266
0.487173
0.538776
0.556151
0.593305
0.608517
2.54786e-05
0.000326231
0.00175034
0.00347556
0.00748194
0.0112478
0.0191868
0.0246237
0.0362198
0.0419714
0.0542938
0.0607108
0.0729871
0.0829644
0.0966009
0.104311
0.122848
0.13628
0.145382
0.164441
2.2119e-05
4.67345e-05
0.000147913
0.000270646
0.000423946
0.000772231
0.00120454
0.00209314
0.0027234
0.0037227
0.00476136
0.00627259
0.00708958
0.0092637
0.0105899
0.0133445
0.0152539
0.0195712
0.0213735
0.027841
2.14403e-05
3.16964e-05
4.65965e-05
7.78414e-05
8.65991e-05
0.000109257
0.000130849
0.00019169
0.000221545
0.000302914
0.000347066
0.000464574
0.000483668
0.000650657
0.000726587
0.000964365
0.00110825
0.00160453
0.00182896
0.00313369
2.09268e-05
2.79251e-05
4.19495e-05
6.81372e-05
7.01014e-05
7.18198e-05
7.12931e-05
7.42753e-05
7.89154e-05
9.44924e-05
9.9284e-05
0.000108219
0.000107317
0.000111997
0.000112727
0.000118135
0.000122897
0.000154748
0.000170111
0.00025376
2.06142e-05
2.77309e-05
4.45509e-05
4.92271e-05
5.64762e-05
6.91704e-05
7.24433e-05
7.19489e-05
7.06525e-05
7.01767e-05
7.00901e-05
7.29601e-05
7.97155e-05
8.28467e-05
8.23561e-05
8.19283e-05
8.11628e-05
8.07702e-05
8.14194e-05
8.56188e-05
2.05638e-05
2.83281e-05
3.90645e-05
5.74238e-05
6.56521e-05
6.75844e-05
6.61127e-05
6.63393e-05
6.61738e-05
6.67629e-05
7.15888e-05
8.23268e-05
8.39563e-05
8.40856e-05
8.21796e-05
7.95045e-05
7.72603e-05
7.69197e-05
7.7156e-05
8.37046e-05
2.07443e-05
2.78152e-05
4.92638e-05
6.40645e-05
6.30862e-05
6.18246e-05
6.57534e-05
8.06342e-05
8.46074e-05
9.30709e-05
0.000100056
0.000100265
9.95165e-05
0.000100151
0.000101461
0.000108297
0.000119079
0.000141768
0.00016332
0.000221077
2.10355e-05
3.05585e-05
4.49991e-05
8.03664e-05
9.11643e-05
0.000111735
0.000128916
0.000170512
0.000204365
0.000303481
0.000348189
0.00044515
0.000505438
0.000644587
0.000728716
0.000963805
0.00114596
0.0015734
0.00185488
0.00259577
2.16237e-05
4.26963e-05
0.000123575
0.000369793
0.000506335
0.000836102
0.00116665
0.0019922
0.0025914
0.00408177
0.00480005
0.00645138
0.0073998
0.00955125
0.0107201
0.0137633
0.0157053
0.020246
0.0228957
0.0301779
2.49469e-05
0.000307096
0.00152839
0.00491001
0.00709213
0.0124439
0.0169537
0.026794
0.0326646
0.0459101
0.0518013
0.0647373
0.071366
0.0860825
0.0932497
0.111149
0.120787
0.143657
0.155635
0.189236
0.00012372
0.00493156
0.0230149
0.0583739
0.0805521
0.125107
0.160574
0.208009
0.239128
0.293416
0.3155
0.361467
0.383893
0.431851
0.45286
0.504691
0.528927
0.587449
0.614573
0.686593
0.00337048
0.069442
0.262925
0.418439
0.57904
0.704157
0.837584
0.92696
1.02334
1.10396
1.15444
1.21432
1.25591
1.30689
1.32985
1.38128
1.4019
1.45253
1.47228
1.52172
0.084624
0.726644
1.57085
1.93517
2.27999
2.43121
2.58251
2.59509
2.62677
2.60018
2.58778
2.53826
2.52399
2.4742
2.46016
2.4191
2.40956
2.3811
2.37005
2.34383
1.40624
4.34965
5.3211
5.28456
5.13245
4.79619
4.59009
4.27478
4.13188
3.8673
3.77898
3.57807
3.52081
3.36751
3.33201
3.20264
3.17489
3.05804
3.02086
2.92137
8.11928
10.263
8.79497
6.81334
5.71826
4.95637
4.53992
4.12994
3.92888
3.64591
3.55641
3.34982
3.30411
3.13496
3.1086
2.94614
2.91484
2.73947
2.68052
2.4659
1.84362
1.38028
1.08019
0.881485
0.745936
0.666273
0.612312
0.57814
0.552096
0.532133
0.509904
0.487328
0.455617
0.418915
0.372137
0.325661
0.278343
0.241928
0.215947
0.196716
0.191606
0.194148
0.20155
0.216645
0.238509
0.260364
0.285382
0.30252
0.323547
0.333951
0.350795
0.356935
0.365764
0.36854
0.37438
0.37626
0.378309
0.378391
0.378198
0.376463
0.375137
0.370635
0.367187
0.359272
0.352006
0.339845
0.333146
0.321541
0.319211
0.320204
0.323252
0.33078
0.339731
0.349711
0.361313
0.369896
0.379008
0.386731
0.391401
0.401428
0.42192
0.461367
0.537081
0.554805
0.543222
0.509772
0.442158
0.373733
0.314034
0.265555
0.228858
0.206474
0.191051
0.180683
0.171642
0.169831
0.171293
0.176065
0.187783
0.200467
0.213657
0.221962
0.224303
0.222441
0.218117
0.212485
0.205032
0.188841
0.172117
0.141781
0.110975
0.0730579
0.0465402
0.0296152
0.0190237
0.0125641
0.00841394
0.00591497
0.00441245
0.00353061
0.00305777
0.00281861
0.00277972
0.00280961
0.00294809
0.00343771
0.00434072
0.00583534
0.00945642
0.0120497
0.0163812
0.0192847
0.0222003
0.0233384
0.0230195
0.0219011
0.019894
0.0166456
0.0141817
0.0119756
0.0106767
0.0104714
0.0106832
0.0112957
0.0124445
0.0159082
0.0187827
0.0239365
0.0311628
0.03613
0.0437846
0.0491874
0.0533427
0.0555546
0.0553471
0.0540109
0.0511502
0.0474809
0.0441542
0.0405278
0.0363406
0.0345543
0.0343038
0.0347698
0.0362547
0.0374986
0.0363161
0.0284835
0.0233908
0.021659
0.0210394
0.0201001
0.0161617
0.0143133
0.0142816
0.0199702
0.0306235
0.0372306
0.0526259
0.0733389
0.108616
0.215788
0.307317
0.327577
0.324379
0.308199
0.269367
0.2195
0.167017
0.125832
0.110002
0.105109
0.108493
0.131229
0.137114
0.123427
0.105304
0.106457
0.114973
0.138855
0.212473
0.25216
0.27364
0.27965
0.258845
0.178506
0.119299
0.0777077
0.0608875
0.0569155
0.0479522
0.0484209
0.0552732
0.0554084
0.094396
0.0841917
0.146016
0.155686
0.241455
0.344954
2.56317
2.11004
1.76804
1.52201
1.33591
1.19517
1.08639
1.00465
0.938235
0.888271
0.84465
0.8113
0.779731
0.75261
0.721113
0.69051
0.656767
0.621813
0.586994
0.555714
0.533335
0.514885
0.505497
0.496956
0.496155
0.495495
0.497002
0.497558
0.499122
0.499055
0.49847
0.49794
0.496139
0.495348
0.492591
0.490979
0.48839
0.485866
0.484701
0.481501
0.480394
0.47762
0.4754
0.469412
0.465272
0.45632
0.448968
0.440835
0.428349
0.422441
0.409924
0.402089
0.393445
0.384357
0.380472
0.374394
0.367757
0.36735
0.369434
0.377764
0.39233
0.412223
0.430279
0.462671
0.497551
0.498379
0.491934
0.473232
0.448348
0.412489
0.385912
0.350807
0.330518
0.305784
0.292456
0.281884
0.278383
0.272803
0.267456
0.260366
0.255341
0.246006
0.236709
0.222474
0.203975
0.184456
0.149718
0.117946
0.0804424
0.0517708
0.0333635
0.0214424
0.0140166
0.00933979
0.00646184
0.00466044
0.00356867
0.00297987
0.00267651
0.00260652
0.00261397
0.00266851
0.00286473
0.00330329
0.00424374
0.0065736
0.00933679
0.0152132
0.0228241
0.0313934
0.0415459
0.0489245
0.0552615
0.0575437
0.0566984
0.0542469
0.0498641
0.0423343
0.0355466
0.0279639
0.0216628
0.0171483
0.0143022
0.0126416
0.012357
0.0125297
0.0129801
0.0137989
0.0163985
0.0182782
0.0216918
0.0259913
0.0282001
0.0317996
0.0332712
0.0339282
0.0345728
0.0346387
0.0345027
0.0337741
0.0324184
0.0323738
0.0330278
0.0341052
0.0343136
0.0349674
0.0328762
0.0242304
0.0188734
0.0169332
0.0164193
0.0159901
0.0134122
0.0116983
0.011264
0.0120837
0.0184875
0.0261896
0.0478868
0.0707322
0.125495
0.252486
0.338352
0.363898
0.357393
0.323465
0.249845
0.18764
0.136466
0.107653
0.0945204
0.0956156
0.0966976
0.114875
0.125191
0.120006
0.102473
0.101866
0.108514
0.12405
0.176408
0.24087
0.271979
0.281325
0.279692
0.235666
0.142702
0.104982
0.0685745
0.0579
0.0570037
0.0544884
0.0751366
0.0704294
0.0908552
0.0968218
0.117278
0.157189
0.184574
0.250916
2.07157
1.84381
1.63241
1.46133
1.31803
1.2065
1.11085
1.03803
0.971665
0.921603
0.875451
0.838581
0.806144
0.779978
0.753878
0.731639
0.70929
0.686628
0.66737
0.644348
0.627246
0.607085
0.593009
0.576474
0.566342
0.554814
0.544986
0.539212
0.528059
0.523791
0.514084
0.510216
0.50163
0.497814
0.490581
0.486104
0.481243
0.474125
0.471139
0.465902
0.461517
0.458827
0.455888
0.452157
0.448328
0.444176
0.435337
0.429032
0.418338
0.405487
0.397059
0.378988
0.36839
0.351862
0.336093
0.323797
0.307792
0.299349
0.290428
0.284925
0.285465
0.288977
0.299844
0.311192
0.335002
0.360876
0.388798
0.406995
0.406935
0.402391
0.390473
0.377459
0.359963
0.346277
0.332268
0.318029
0.304458
0.287741
0.271952
0.254307
0.231908
0.210362
0.177515
0.14337
0.110049
0.0756042
0.0510548
0.0341422
0.0225777
0.0148895
0.00993489
0.00683102
0.00483362
0.00361062
0.00290152
0.0024854
0.00232933
0.0023433
0.00239859
0.00256754
0.00288045
0.00346893
0.00477773
0.00633447
0.0100701
0.0147917
0.0247855
0.0398019
0.0588406
0.082551
0.103681
0.119244
0.130787
0.132411
0.129859
0.12329
0.112049
0.0957336
0.0809882
0.0647476
0.0505105
0.0383587
0.0287598
0.0218704
0.0173828
0.0150019
0.0138129
0.0138025
0.0140885
0.0147134
0.0155866
0.018078
0.0193556
0.0215088
0.0238697
0.0256085
0.0278474
0.0297332
0.0306197
0.03061
0.0304558
0.0314279
0.032679
0.0321186
0.0305184
0.0292515
0.0246394
0.0190952
0.0163146
0.0151284
0.0139354
0.0124496
0.0113279
0.0108175
0.0106676
0.0110412
0.0139116
0.021429
0.0391611
0.0671014
0.14815
0.275589
0.373662
0.385896
0.368396
0.307495
0.213493
0.140994
0.105274
0.0855089
0.0813436
0.0821259
0.0854442
0.0994259
0.113478
0.11297
0.0998854
0.0982492
0.102927
0.117043
0.146266
0.218913
0.26933
0.286611
0.288255
0.278255
0.198309
0.124859
0.0973452
0.07297
0.0804144
0.0727873
0.0764096
0.077857
0.0808002
0.0943359
0.0989435
0.125887
0.127631
0.13916
1.32368
1.22986
1.13366
1.04804
0.968133
0.901061
0.842518
0.793994
0.75265
0.716443
0.685717
0.65762
0.633043
0.613098
0.596462
0.582144
0.569358
0.554523
0.540201
0.52448
0.507269
0.492324
0.476547
0.464482
0.44939
0.441316
0.427932
0.420129
0.409326
0.400925
0.390945
0.381678
0.373962
0.365253
0.360173
0.352221
0.349152
0.343608
0.338399
0.33588
0.328286
0.325333
0.319549
0.316563
0.311559
0.308094
0.301782
0.296042
0.287652
0.278468
0.265219
0.253531
0.236882
0.222674
0.20494
0.189189
0.175001
0.161421
0.152312
0.14564
0.143765
0.145185
0.149015
0.157005
0.165908
0.181762
0.192658
0.213341
0.231382
0.246441
0.261912
0.264973
0.262899
0.257681
0.245372
0.22998
0.212159
0.189461
0.164494
0.139374
0.110125
0.0832404
0.0611418
0.0438929
0.0308792
0.0213947
0.0146598
0.010036
0.00686571
0.00478649
0.00349259
0.00271761
0.00227541
0.00203508
0.00201015
0.00204897
0.00215667
0.00240058
0.0028934
0.00405757
0.00521862
0.00752844
0.0110356
0.0152491
0.0245275
0.0376892
0.0683075
0.1058
0.159829
0.208508
0.241768
0.263294
0.263002
0.259036
0.248782
0.237092
0.218184
0.19725
0.176397
0.147934
0.121735
0.0938754
0.0674241
0.0483053
0.0343991
0.0253676
0.0198643
0.0168543
0.0156297
0.0155365
0.0158133
0.0167438
0.0175764
0.0192575
0.0217245
0.0228673
0.0251862
0.0278767
0.0294221
0.029336
0.028892
0.0291751
0.0300954
0.0291508
0.0263636
0.0217764
0.0176965
0.0147393
0.0137603
0.0127827
0.0117924
0.0111041
0.0108365
0.0107585
0.0109552
0.0115594
0.0140545
0.0194846
0.0331447
0.0810135
0.154961
0.311246
0.39203
0.391583
0.363163
0.255217
0.162717
0.116016
0.0923958
0.079737
0.077194
0.0762313
0.0783759
0.0894668
0.10252
0.104354
0.0948683
0.0930202
0.101046
0.112248
0.131296
0.177032
0.253457
0.289355
0.291518
0.285446
0.256453
0.165822
0.140638
0.0991313
0.0888393
0.0798877
0.0770915
0.0789436
0.079173
0.0856682
0.0867354
0.0966771
0.0978188
0.101383
0.587582
0.562065
0.536637
0.505709
0.479922
0.452347
0.431079
0.408988
0.3947
0.377572
0.367649
0.355254
0.345093
0.336071
0.328135
0.321568
0.315914
0.311971
0.304705
0.299911
0.291062
0.281302
0.271705
0.261903
0.249995
0.242104
0.23446
0.225498
0.221768
0.214569
0.210608
0.203004
0.196291
0.189752
0.181696
0.175762
0.17209
0.167687
0.165036
0.164114
0.161208
0.158855
0.155042
0.150074
0.146426
0.140772
0.13774
0.131829
0.127678
0.121272
0.114736
0.107507
0.0968911
0.0881433
0.0787122
0.0694596
0.0630182
0.0556615
0.0514392
0.0476459
0.0463903
0.0467785
0.0480518
0.0513313
0.0552681
0.0605978
0.0666191
0.0722034
0.0812127
0.0859516
0.0913703
0.0962385
0.0964029
0.095135
0.0913063
0.0843019
0.0750177
0.0642153
0.053416
0.0431323
0.0335702
0.0253258
0.0185634
0.0132948
0.00940291
0.00659094
0.00463698
0.00330529
0.00244043
0.00197402
0.00173223
0.00168751
0.00171115
0.0017715
0.00193405
0.0023426
0.00295135
0.00411672
0.00613105
0.00911953
0.012111
0.018216
0.0258305
0.0376365
0.0584784
0.0995517
0.19133
0.277967
0.348789
0.358608
0.351336
0.336415
0.317818
0.302277
0.285248
0.275201
0.261377
0.249153
0.23698
0.218636
0.198558
0.174002
0.144097
0.112052
0.077891
0.0529049
0.0372308
0.0272798
0.0219011
0.0192399
0.0180172
0.0180878
0.0184926
0.0195306
0.0211772
0.0222455
0.0240472
0.0247801
0.0266504
0.0271747
0.0270327
0.026588
0.0260856
0.022668
0.0193427
0.0163859
0.014842
0.0131514
0.012557
0.0117114
0.01102
0.0109643
0.0110364
0.0116078
0.0124625
0.0137954
0.0165075
0.0200282
0.0308804
0.0986122
0.163696
0.339397
0.391706
0.392253
0.328108
0.21757
0.144926
0.107153
0.0876904
0.0789703
0.0758636
0.074795
0.0761092
0.0861702
0.095641
0.0963176
0.0931061
0.0890376
0.0977445
0.114604
0.124866
0.148533
0.215546
0.279216
0.291791
0.299739
0.291353
0.238705
0.183557
0.12401
0.100439
0.0866903
0.0794049
0.0797614
0.0788511
0.0814762
0.0813173
0.0860014
0.0867169
0.0891888
0.161633
0.156939
0.152121
0.144506
0.138798
0.133268
0.128711
0.124339
0.122116
0.118581
0.117268
0.115426
0.113583
0.112212
0.110707
0.109682
0.108565
0.108079
0.106989
0.106015
0.104634
0.102063
0.0981952
0.0951426
0.0893498
0.0852687
0.081607
0.0767233
0.0748281
0.0718771
0.070675
0.0692136
0.0666218
0.0651984
0.0613563
0.0580415
0.0556105
0.0527716
0.0513415
0.0504061
0.0498079
0.0495863
0.0492937
0.0483361
0.0465328
0.0437371
0.042057
0.0390418
0.0371615
0.0347746
0.0323392
0.0307584
0.0280862
0.0261776
0.0236005
0.0208958
0.0189363
0.0165064
0.0149633
0.0135738
0.0127447
0.0127442
0.0129425
0.0136483
0.0149751
0.0162896
0.0182647
0.01937
0.0214481
0.0233453
0.0243094
0.0250715
0.0249425
0.0244015
0.0232777
0.0215307
0.0195527
0.0172723
0.0147944
0.012211
0.00966132
0.00731794
0.00539644
0.0039605
0.00287706
0.00212568
0.00166891
0.00136425
0.0013401
0.00136529
0.00143633
0.00161588
0.00186723
0.00232681
0.00342267
0.00487876
0.00676151
0.0101105
0.0152671
0.0203595
0.0288283
0.0414581
0.0570284
0.0878406
0.150845
0.295355
0.420636
0.441614
0.429027
0.401012
0.362719
0.338325
0.306641
0.283314
0.268318
0.256721
0.247705
0.244179
0.238788
0.233087
0.22806
0.220169
0.202952
0.182261
0.151258
0.113001
0.0804213
0.0537664
0.0380735
0.0293198
0.0243639
0.0224515
0.0214969
0.0215361
0.0218478
0.0223934
0.0235609
0.0246093
0.024902
0.0248066
0.0238723
0.0235348
0.0227506
0.0191644
0.0158249
0.0137754
0.01312
0.0123928
0.0120392
0.0113354
0.0108395
0.0110067
0.0114005
0.0142736
0.0159101
0.0180775
0.0203362
0.0227053
0.0410452
0.0964391
0.181808
0.348293
0.388621
0.378139
0.308811
0.208576
0.137556
0.103935
0.086282
0.0808404
0.0760719
0.0750146
0.0788082
0.0828835
0.0970926
0.094868
0.0896122
0.0893141
0.0922726
0.118911
0.126404
0.138242
0.170027
0.250891
0.288773
0.3047
0.296152
0.265023
0.221346
0.157899
0.124048
0.0993812
0.0865809
0.082956
0.0801323
0.0812603
0.0807922
0.0826483
0.0835018
0.0859795
0.0275851
0.0268325
0.0256064
0.024328
0.0233509
0.0228408
0.0223152
0.0221259
0.0220674
0.0220166
0.0220482
0.0220297
0.021935
0.0217929
0.0217841
0.0218223
0.0218747
0.0222066
0.0222498
0.0222256
0.022132
0.0218025
0.0213658
0.0209829
0.019878
0.0191734
0.0181406
0.0171396
0.0166208
0.0158893
0.0155463
0.0154023
0.0151897
0.0150533
0.0144422
0.0135012
0.0127716
0.01194
0.0115344
0.0112908
0.0111876
0.0111843
0.0111786
0.0111725
0.0110391
0.0103804
0.00970752
0.00890718
0.00830763
0.00777776
0.00715934
0.00674748
0.00634312
0.00604475
0.00559196
0.00503244
0.00453162
0.00399228
0.00358506
0.00319339
0.00296555
0.00295509
0.0029945
0.00314414
0.00358193
0.00389945
0.00434291
0.00465629
0.00488118
0.00527186
0.00554571
0.00555167
0.00536572
0.00508473
0.00491804
0.00473458
0.00451329
0.00419035
0.00372418
0.00308287
0.0024724
0.00192044
0.00153324
0.00127717
0.00107514
0.00102879
0.00103208
0.0010751
0.00125809
0.00153892
0.00206421
0.00304137
0.00402218
0.00585793
0.00913377
0.0121036
0.017429
0.0255101
0.0324171
0.0459415
0.0641696
0.0836793
0.123457
0.213298
0.426671
0.524294
0.517773
0.484721
0.42881
0.361267
0.309087
0.26636
0.24241
0.226873
0.22049
0.210073
0.201082
0.201119
0.203741
0.213755
0.219181
0.219397
0.218124
0.213277
0.199732
0.176319
0.140735
0.104398
0.0748485
0.0537154
0.0398681
0.032984
0.0280986
0.0260901
0.0243706
0.0238218
0.0238679
0.0243407
0.0243622
0.024131
0.0218855
0.0208727
0.019462
0.0170763
0.0143836
0.0129757
0.0124703
0.0122667
0.0120007
0.0114282
0.0113052
0.0116125
0.0125153
0.0173693
0.0193826
0.0223894
0.0239237
0.0259284
0.0494479
0.0960924
0.201198
0.349737
0.372304
0.358289
0.304365
0.207106
0.135316
0.103038
0.0862637
0.0811449
0.0752231
0.0746581
0.0813016
0.0844904
0.0894606
0.0993157
0.0908005
0.0923165
0.0928083
0.115203
0.135121
0.138686
0.151757
0.214097
0.273267
0.29886
0.293834
0.273103
0.247826
0.188128
0.157586
0.124844
0.105592
0.0929246
0.0847636
0.0835432
0.0823218
0.0833624
0.0842995
0.0857828
0.00314386
0.00309337
0.00297613
0.00280642
0.00268993
0.00262666
0.00256318
0.00255605
0.00255538
0.00255972
0.00257513
0.00257881
0.00258938
0.00260156
0.0026144
0.00265973
0.00271477
0.00281186
0.00284919
0.00285276
0.00285086
0.0028167
0.00277589
0.00271922
0.00262977
0.00257442
0.00244883
0.00234377
0.00227639
0.00219091
0.00214586
0.0021289
0.00211067
0.00210812
0.0020869
0.00197739
0.00189968
0.00177239
0.00169771
0.00165031
0.00161414
0.00160933
0.00160453
0.00160042
0.00159412
0.00155797
0.00148102
0.00137581
0.00127319
0.00119911
0.00110439
0.00103574
0.000976791
0.000941492
0.000890856
0.000826624
0.000767699
0.000703586
0.00065071
0.000594187
0.000560633
0.000557754
0.000561859
0.000582141
0.000663874
0.000740752
0.000805275
0.00086839
0.000893401
0.000942186
0.000956966
0.000944925
0.00088908
0.000862816
0.00088688
0.000896575
0.000888348
0.000866608
0.000825399
0.000762495
0.000754512
0.0007619
0.000781427
0.000808459
0.000861355
0.000992471
0.00123321
0.00172151
0.00279125
0.00379664
0.00588788
0.00811227
0.0108732
0.0170381
0.021597
0.029761
0.0424954
0.0524414
0.0707374
0.0974511
0.120825
0.1662
0.283139
0.533993
0.609866
0.591265
0.531535
0.42792
0.337285
0.278894
0.245017
0.226458
0.219093
0.215149
0.211422
0.207677
0.20056
0.185731
0.179675
0.180795
0.185565
0.201543
0.212588
0.213703
0.211634
0.204421
0.186553
0.151559
0.117516
0.0895246
0.0681449
0.0519237
0.0408295
0.0354656
0.0306511
0.0276394
0.0260508
0.0255326
0.0251416
0.0243099
0.0210803
0.0198373
0.0181721
0.0166941
0.0144994
0.0137275
0.0132152
0.0132684
0.0133613
0.0130649
0.0128944
0.0130955
0.0143387
0.0193535
0.0223809
0.0260754
0.0272397
0.029066
0.0520499
0.0957919
0.210111
0.334639
0.359636
0.355222
0.325493
0.209114
0.135123
0.103179
0.0879044
0.0800463
0.0697352
0.0718934
0.0731513
0.0970736
0.0906501
0.10181
0.0941997
0.0924517
0.10087
0.113382
0.14262
0.142621
0.149462
0.191845
0.243633
0.279902
0.283062
0.271375
0.256618
0.217673
0.187533
0.157218
0.130285
0.114274
0.0995027
0.0955698
0.0917003
0.0908965
0.0910887
0.0918869
0.000259787
0.000265856
0.000271886
0.000270762
0.000266857
0.000262645
0.00025785
0.000255551
0.000253803
0.000253611
0.000253502
0.000254121
0.000254734
0.00025722
0.000258275
0.000260388
0.000261582
0.000263733
0.000266466
0.000266562
0.000266807
0.000266268
0.000264189
0.000262857
0.000258916
0.000256606
0.00025168
0.000247014
0.000242977
0.000239547
0.000238374
0.000238431
0.000238355
0.000239866
0.00024086
0.000239424
0.000233369
0.000221079
0.000212225
0.000206514
0.000201492
0.000200474
0.000200407
0.000203275
0.000207243
0.0002087
0.000208823
0.000203905
0.000195082
0.000188156
0.000186298
0.000186728
0.00018828
0.00019261
0.000199258
0.000205738
0.000211351
0.000212788
0.000215394
0.000215996
0.000215688
0.000216521
0.00021636
0.000217283
0.000220963
0.000233604
0.000245644
0.000255126
0.00026183
0.0002634
0.000263311
0.000264618
0.00027162
0.000277108
0.000295235
0.000315143
0.000357225
0.000393127
0.000476477
0.000543477
0.000690371
0.000804712
0.00104882
0.00130966
0.00173322
0.00273714
0.00360554
0.00575789
0.00771139
0.0113794
0.0159985
0.0206293
0.0299242
0.0398546
0.049592
0.0715919
0.0864883
0.110168
0.147262
0.18024
0.224588
0.349432
0.622933
0.68077
0.650906
0.556717
0.439668
0.346315
0.282326
0.243212
0.221916
0.213697
0.213282
0.214282
0.21717
0.217139
0.215475
0.205775
0.188782
0.179681
0.178696
0.181019
0.192504
0.206141
0.209037
0.207902
0.202045
0.186117
0.155059
0.121045
0.0944859
0.0721955
0.0578259
0.0483684
0.0427241
0.0369849
0.0329008
0.0301079
0.028435
0.0254528
0.0217339
0.0196733
0.0185522
0.0178213
0.0161864
0.0155756
0.0152559
0.0154157
0.0153735
0.0150625
0.0151263
0.0157985
0.0189786
0.0238333
0.0264962
0.028961
0.0303575
0.0326087
0.050103
0.087845
0.218278
0.300137
0.359505
0.391159
0.335643
0.204474
0.132713
0.100225
0.0876006
0.0707728
0.0666565
0.0749818
0.0732002
0.0905096
0.0997277
0.0948984
0.118087
0.100114
0.111403
0.117737
0.139599
0.157571
0.155022
0.169471
0.208559
0.254262
0.271307
0.265742
0.256239
0.231752
0.202885
0.177679
0.149018
0.13358
0.120114
0.115515
0.107903
0.101295
0.0998791
0.10023
8.85234e-05
9.03086e-05
9.46462e-05
9.74539e-05
9.884e-05
0.000100088
0.00010198
0.000103641
0.000104743
0.000105822
0.000106498
0.000106687
0.000106367
0.00010508
0.000103956
0.000102228
0.000101524
0.000100254
9.92602e-05
9.85438e-05
9.77695e-05
9.75295e-05
9.7307e-05
9.73064e-05
9.73447e-05
9.7476e-05
9.78204e-05
9.84571e-05
9.92813e-05
0.000100713
0.000101572
0.000103269
0.000104394
0.000105814
0.000107449
0.000109061
0.000110134
0.000110673
0.000111922
0.000112975
0.000115803
0.000117913
0.000120171
0.000121971
0.000123952
0.000125689
0.000127557
0.000129617
0.000133711
0.000140451
0.000154509
0.000177357
0.000191246
0.000213621
0.000236673
0.000249635
0.000273677
0.000297096
0.000329202
0.000348399
0.000363045
0.00036915
0.000367923
0.000358843
0.00035252
0.000354608
0.000367282
0.000373596
0.00038102
0.000389894
0.000396244
0.00040629
0.000422767
0.000443518
0.000492586
0.000552178
0.000678191
0.000819753
0.00118427
0.00146286
0.00204703
0.00252512
0.00361083
0.00455001
0.00635271
0.00883632
0.0111492
0.0169827
0.0210622
0.0311003
0.0388241
0.0537386
0.0696832
0.0881566
0.115858
0.148051
0.177413
0.226373
0.271231
0.306607
0.40477
0.671839
0.742185
0.666883
0.583465
0.505539
0.4039
0.315094
0.25647
0.22312
0.207377
0.19858
0.19789
0.198798
0.205984
0.215828
0.221489
0.221362
0.212615
0.191759
0.185287
0.183711
0.185408
0.191391
0.203022
0.204967
0.203069
0.197077
0.18108
0.147154
0.123382
0.0974331
0.077511
0.0625093
0.0524051
0.0435593
0.0384855
0.0349925
0.0330721
0.029229
0.0247108
0.0217714
0.0210632
0.0203639
0.0198115
0.0196734
0.0196361
0.0197696
0.0195418
0.0194498
0.0198394
0.0215909
0.0263777
0.0276916
0.0292538
0.0296944
0.0312046
0.0344795
0.0452448
0.0763723
0.203689
0.281417
0.41599
0.417324
0.312063
0.198543
0.127553
0.0962263
0.0806263
0.0683221
0.0629719
0.0632799
0.0740287
0.0744735
0.185267
0.122688
0.17845
0.134434
0.134423
0.142321
0.147731
0.162177
0.162819
0.167
0.187772
0.217536
0.255702
0.254497
0.250733
0.23421
0.206722
0.184545
0.162068
0.147797
0.134241
0.125843
0.120025
0.113066
0.109332
0.104983
8.82311e-05
9.03221e-05
9.52728e-05
9.8738e-05
0.000100846
0.000101519
0.000103084
0.000104748
0.000104896
0.000105031
0.00010466
0.000104108
0.000103784
0.000103534
0.000103637
0.000103894
0.000104364
0.000106148
0.000107354
0.000108898
0.000110183
0.000111943
0.000114178
0.000118805
0.000122734
0.000125705
0.000131248
0.000133397
0.000137536
0.000141166
0.000143775
0.000151558
0.000158809
0.000175234
0.000188665
0.000209862
0.000222194
0.000235197
0.000256105
0.000267941
0.000298029
0.000320369
0.000340843
0.000359494
0.000368329
0.000379834
0.000390647
0.00040502
0.000450576
0.00051576
0.000615186
0.000768309
0.000843382
0.000984523
0.00108798
0.0011894
0.00131937
0.00142424
0.00154393
0.00161117
0.00162294
0.00163722
0.00165944
0.00165307
0.00165307
0.00164822
0.0016466
0.00164758
0.00165104
0.00166981
0.00170493
0.00178037
0.0018839
0.00201209
0.00228075
0.00251034
0.00299978
0.00347032
0.00459208
0.00542888
0.0072124
0.00865246
0.0118056
0.0147216
0.0189465
0.0261315
0.0316905
0.0450867
0.0545394
0.076753
0.0932739
0.123755
0.154837
0.19094
0.250258
0.284324
0.3521
0.386052
0.411473
0.470031
0.68901
0.757587
0.646769
0.584822
0.562324
0.49638
0.392677
0.301958
0.244081
0.213592
0.198575
0.193169
0.192076
0.192617
0.194349
0.201396
0.214535
0.220273
0.221826
0.214252
0.201443
0.191278
0.190776
0.189288
0.19339
0.198883
0.200558
0.198419
0.19026
0.163712
0.14419
0.119347
0.0959588
0.0792412
0.0653699
0.0562088
0.0492573
0.0415405
0.0372856
0.0325062
0.0282702
0.0264954
0.0262598
0.0255996
0.0248378
0.0236504
0.0231748
0.0229165
0.0224699
0.022611
0.0231444
0.0259616
0.0289821
0.0294886
0.0311071
0.0307763
0.0313422
0.0336416
0.0415205
0.069118
0.156837
0.287068
0.443
0.420879
0.291885
0.210502
0.129568
0.0948096
0.078367
0.0690185
0.0619544
0.0607571
0.0879687
0.0902301
0.212342
0.13971
0.207806
0.156504
0.167859
0.165367
0.174104
0.172803
0.173775
0.169994
0.187364
0.196331
0.228632
0.23121
0.23219
0.225877
0.206712
0.185221
0.167797
0.153589
0.140827
0.129253
0.125375
0.11865
0.11406
0.106681
0.00024166
0.000243672
0.000246761
0.000246361
0.000244896
0.000246209
0.000256689
0.000279079
0.000286504
0.000299625
0.00030374
0.000305023
0.000309686
0.000311397
0.000320815
0.000345757
0.000359393
0.000395641
0.00040831
0.000422361
0.000445143
0.000458317
0.000483892
0.000539168
0.000579701
0.000631486
0.000703614
0.000735797
0.000788126
0.000832027
0.000858857
0.000923028
0.000976133
0.00109107
0.00120806
0.00134762
0.00148711
0.00159287
0.00175587
0.0018463
0.00197103
0.00208208
0.00215941
0.00226422
0.00232261
0.00241688
0.00250854
0.00260177
0.00291593
0.00325386
0.00368607
0.00428541
0.00457255
0.00505592
0.00551157
0.00580062
0.00630472
0.00664394
0.00686818
0.00707355
0.00711334
0.0071507
0.00718526
0.00715
0.00713933
0.0071301
0.00712487
0.00712861
0.00714499
0.00722236
0.00735314
0.00759936
0.00786539
0.00829178
0.00909205
0.00978892
0.0114012
0.0127949
0.0157941
0.0180692
0.0229145
0.0269746
0.0343552
0.0436699
0.0512007
0.0707462
0.0839089
0.111136
0.132929
0.172765
0.210198
0.256112
0.322391
0.375075
0.42838
0.450278
0.461025
0.47498
0.506288
0.647804
0.695434
0.607004
0.545507
0.569917
0.568368
0.505746
0.397823
0.300273
0.239876
0.210025
0.196225
0.192357
0.190241
0.191321
0.192449
0.196903
0.202654
0.213894
0.219064
0.219425
0.212889
0.201875
0.193964
0.1908
0.192627
0.193038
0.196391
0.196652
0.193892
0.181156
0.156112
0.132943
0.109227
0.0930072
0.0765043
0.0649067
0.0539214
0.0471747
0.0446265
0.0397605
0.0345857
0.0326246
0.0319687
0.0302636
0.0285267
0.0268953
0.0263777
0.0259024
0.0249205
0.0248548
0.0249948
0.0287432
0.031425
0.0332208
0.0362326
0.0350839
0.0330667
0.0329134
0.0358398
0.0558077
0.109035
0.312054
0.450965
0.388451
0.301308
0.246346
0.133645
0.0945898
0.080643
0.0723881
0.0684721
0.0752345
0.0922487
0.0917995
0.161297
0.176778
0.467979
0.263048
0.410093
0.236342
0.199945
0.177734
0.187506
0.177255
0.194131
0.194536
0.208976
0.20688
0.205736
0.201894
0.195186
0.181175
0.167077
0.152759
0.141841
0.129839
0.124496
0.116108
0.112072
0.102748
0.00290852
0.00291289
0.00287725
0.00283283
0.00282215
0.00284457
0.0029746
0.0031613
0.00326468
0.00338631
0.00343568
0.00344774
0.0034807
0.00349023
0.00365118
0.00396771
0.00416267
0.00443813
0.00450953
0.0045712
0.00465208
0.00470486
0.00488737
0.00528961
0.00559137
0.00604594
0.00640489
0.00658377
0.00688242
0.00706427
0.00717057
0.00744766
0.00771115
0.00831418
0.00891806
0.00945762
0.0100995
0.0104545
0.0109734
0.0113086
0.0115616
0.0119206
0.0121072
0.0124968
0.0128809
0.0133775
0.0138733
0.0143923
0.0154496
0.0162728
0.0173964
0.0187581
0.019451
0.0207128
0.0219163
0.022711
0.0239115
0.0246058
0.0249079
0.0253678
0.0254762
0.0254139
0.0254259
0.025378
0.025286
0.0251202
0.0249483
0.0248604
0.0247278
0.0247743
0.024964
0.0254383
0.0261875
0.0276997
0.0296237
0.0323857
0.0369091
0.0403815
0.0478309
0.0547981
0.0651964
0.0780856
0.0915546
0.116282
0.13343
0.170036
0.198022
0.243377
0.296035
0.343792
0.411674
0.449601
0.485843
0.493424
0.493932
0.499332
0.493371
0.501257
0.549114
0.57746
0.514664
0.471142
0.513178
0.572503
0.608898
0.58905
0.484661
0.351004
0.257946
0.21352
0.196569
0.19141
0.189613
0.190584
0.190368
0.192198
0.19908
0.206551
0.210436
0.213928
0.209491
0.206561
0.197217
0.195734
0.193639
0.195207
0.196553
0.196728
0.19422
0.186226
0.168139
0.146613
0.122485
0.106208
0.0885764
0.0776375
0.0627401
0.0557138
0.0520556
0.0446999
0.0398087
0.0385859
0.0376243
0.033718
0.0301829
0.0294038
0.0293997
0.0293302
0.0280276
0.0275402
0.0278648
0.0339165
0.0352038
0.0374498
0.0413803
0.0419889
0.0410146
0.0378368
0.0391504
0.0520327
0.0958393
0.319261
0.431575
0.378512
0.383386
0.255698
0.126796
0.100404
0.0934177
0.0919938
0.107107
0.134902