/*--------------------------------*- C++ -*----------------------------------*\
| =========                 |                                                 |
| \\      /  F ield         | OpenFOAM: The Open Source CFD Toolbox           |
|  \\    /   O peration     | Version:  2.4.0                                 |
|   \\  /    A nd           | Web:      www.OpenFOAM.org                      |
|    \\/     M anipulation  |                                                 |
\*---------------------------------------------------------------------------*/
FoamFile
{
    version     2.0;
    format      ascii;
    class       surfaceScalarField;
    location    "1.85";
    object      phi;
}
// * * * * * * * * * * * * * * * * * * * * * * * * * * * * * * * * * * * * * //

dimensions      [0 3 -1 0 0 0 0];

internalField   nonuniform List<scalar> 
17320
(
1.76391e-05
7.36088e-06
1.16203e-05
6.01885e-06
8.67842e-06
2.94184e-06
7.35742e-06
1.321e-06
6.72156e-06
6.35858e-07
6.33859e-06
3.82977e-07
6.07852e-06
2.60061e-07
5.87536e-06
2.03166e-07
5.70123e-06
1.74131e-07
5.58539e-06
1.15837e-07
5.4789e-06
1.06489e-07
5.39172e-06
8.71807e-08
5.29886e-06
9.28636e-08
5.24078e-06
5.80733e-08
5.12863e-06
1.12155e-07
5.09264e-06
3.59926e-08
4.97673e-06
1.15908e-07
5.01844e-06
-4.17079e-08
4.78104e-06
2.37391e-07
-6.13908e-07
5.39495e-06
2.54665e-05
6.89438e-06
2.32486e-05
8.23678e-06
2.09856e-05
5.20478e-06
1.93235e-05
2.9831e-06
1.80779e-05
1.88151e-06
1.71084e-05
1.35247e-06
1.63702e-05
9.98264e-07
1.57756e-05
7.97732e-07
1.53028e-05
6.46931e-07
1.49395e-05
4.7918e-07
1.46308e-05
4.15155e-07
1.4379e-05
3.39002e-07
1.41411e-05
3.30737e-07
1.39565e-05
2.42684e-07
1.37161e-05
3.52595e-07
1.35885e-05
1.63549e-07
1.33327e-05
3.71712e-07
1.33258e-05
-3.48363e-08
1.31816e-05
3.8167e-07
-7.49405e-07
1.33171e-05
2.66308e-05
5.26361e-06
2.71527e-05
7.71483e-06
2.67746e-05
5.58288e-06
2.62562e-05
3.50155e-06
2.56069e-05
2.53082e-06
2.48701e-05
2.08925e-06
2.4169e-05
1.69931e-06
2.35022e-05
1.46457e-06
2.29302e-05
1.2189e-06
2.24526e-05
9.56766e-07
2.20288e-05
8.3902e-07
2.16795e-05
6.88265e-07
2.13549e-05
6.55312e-07
2.10852e-05
5.12411e-07
2.07818e-05
6.56051e-07
2.05764e-05
3.6895e-07
2.02791e-05
6.69009e-07
2.01567e-05
8.75642e-08
2.01492e-05
3.89131e-07
-1.11678e-06
2.05166e-05
2.63406e-05
3.92301e-06
2.75355e-05
6.51995e-06
2.80702e-05
5.04811e-06
2.84588e-05
3.11299e-06
2.86512e-05
2.33841e-06
2.86255e-05
2.11501e-06
2.84865e-05
1.83822e-06
2.8236e-05
1.71512e-06
2.79644e-05
1.49054e-06
2.77034e-05
1.21772e-06
2.74221e-05
1.12035e-06
2.71673e-05
9.43025e-07
2.69226e-05
9.0005e-07
2.66734e-05
7.61588e-07
2.64287e-05
9.00731e-07
2.62014e-05
5.96254e-07
2.59634e-05
9.07049e-07
2.56968e-05
3.5417e-07
2.56251e-05
4.60807e-07
-6.32351e-07
2.51407e-05
2.60553e-05
2.86771e-06
2.72633e-05
5.31194e-06
2.80234e-05
4.28803e-06
2.84852e-05
2.65123e-06
2.89712e-05
1.85234e-06
2.93316e-05
1.75463e-06
2.95974e-05
1.57239e-06
2.975e-05
1.56256e-06
2.98539e-05
1.38667e-06
2.99206e-05
1.15101e-06
2.9947e-05
1.09393e-06
2.99461e-05
9.43858e-07
2.99774e-05
8.6884e-07
2.99048e-05
8.34169e-07
2.98931e-05
9.12384e-07
2.97914e-05
6.97933e-07
2.97369e-05
9.61636e-07
2.9447e-05
6.44045e-07
2.93663e-05
5.4146e-07
1.62033e-08
2.87178e-05
2.58293e-05
2.0384e-06
2.69677e-05
4.17356e-06
2.78173e-05
3.43842e-06
2.82164e-05
2.2521e-06
2.8702e-05
1.36682e-06
2.91093e-05
1.34731e-06
2.94717e-05
1.21002e-06
2.96894e-05
1.34479e-06
3.0003e-05
1.07308e-06
3.01751e-05
9.78909e-07
3.04123e-05
8.56775e-07
3.04892e-05
8.66968e-07
3.07753e-05
5.82683e-07
3.07753e-05
8.34208e-07
3.10292e-05
6.58429e-07
3.10018e-05
7.25401e-07
3.12313e-05
7.32112e-07
3.09617e-05
9.13688e-07
3.10328e-05
4.70302e-07
8.44723e-07
3.02043e-05
2.56486e-05
1.38975e-06
2.67685e-05
3.05375e-06
2.7685e-05
2.52185e-06
2.79985e-05
1.93859e-06
2.84384e-05
9.2698e-07
2.88567e-05
9.28993e-07
2.92076e-05
8.59112e-07
2.9423e-05
1.12943e-06
2.98663e-05
6.29733e-07
2.99972e-05
8.48058e-07
3.02705e-05
5.83453e-07
3.02971e-05
8.40367e-07
3.06974e-05
1.82359e-07
3.07005e-05
8.31149e-07
3.10048e-05
3.54118e-07
3.10396e-05
6.906e-07
3.13797e-05
3.9196e-07
3.1142e-05
1.15139e-06
3.10852e-05
5.27095e-07
1.84598e-06
3.0084e-05
2.55674e-05
8.22369e-07
2.66237e-05
1.99743e-06
2.74254e-05
1.72015e-06
2.79355e-05
1.42846e-06
2.83706e-05
4.91863e-07
2.87199e-05
5.79738e-07
2.89877e-05
5.91312e-07
2.93159e-05
8.0124e-07
2.96186e-05
3.26985e-07
2.97939e-05
6.72821e-07
3.00141e-05
3.63244e-07
3.03171e-05
5.37313e-07
3.04466e-05
5.2863e-08
3.06706e-05
6.07226e-07
3.07881e-05
2.36601e-07
3.09484e-05
5.30251e-07
3.11143e-05
2.26039e-07
3.14915e-05
7.74264e-07
3.17441e-05
2.74452e-07
7.91108e-07
3.2799e-05
2.54793e-05
3.43032e-07
2.64529e-05
1.02385e-06
2.72981e-05
8.7497e-07
2.79637e-05
7.62891e-07
2.82911e-05
1.64431e-07
2.85403e-05
3.30486e-07
2.88894e-05
2.42297e-07
2.92227e-05
4.67892e-07
2.93938e-05
1.5587e-07
2.97333e-05
3.33344e-07
2.99663e-05
1.30273e-07
3.01983e-05
3.05316e-07
3.02891e-05
-3.7983e-08
3.05494e-05
3.46966e-07
3.06511e-05
1.34869e-07
3.09047e-05
2.7669e-07
3.09913e-05
1.39371e-07
3.14635e-05
3.02101e-07
3.16127e-05
1.25296e-07
2.17603e-07
3.21862e-05
2.5417e-05
-7.39995e-08
2.6417e-05
2.39329e-08
2.72909e-05
9.90925e-10
2.79025e-05
1.51274e-07
2.81551e-05
-8.81105e-08
2.85083e-05
-2.27354e-08
2.88695e-05
-1.18869e-07
2.91564e-05
1.80965e-07
2.94188e-05
-1.06567e-07
2.97338e-05
1.8335e-08
2.98753e-05
-1.11762e-08
3.00586e-05
1.2204e-07
3.024e-05
-2.19442e-07
3.05056e-05
8.13645e-08
3.06312e-05
9.30663e-09
3.0845e-05
6.28628e-08
3.11161e-05
-1.3168e-07
3.13621e-05
5.61168e-08
3.15671e-05
-7.97769e-08
-2.0356e-07
3.19883e-05
2.54164e-05
-4.90415e-07
2.64198e-05
-9.79435e-07
2.72568e-05
-8.36051e-07
2.78897e-05
-4.81596e-07
2.82044e-05
-4.02789e-07
2.85586e-05
-3.76948e-07
2.88052e-05
-3.65531e-07
2.91893e-05
-2.03121e-07
2.9433e-05
-3.50226e-07
2.96729e-05
-2.21526e-07
2.98001e-05
-1.3843e-07
3.01125e-05
-1.90384e-07
3.02458e-05
-3.52672e-07
3.04927e-05
-1.6554e-07
3.06405e-05
-1.38557e-07
3.0898e-05
-1.94625e-07
3.10909e-05
-3.24532e-07
3.1388e-05
-2.41012e-07
3.14943e-05
-1.86121e-07
-4.24637e-07
3.17154e-05
2.54429e-05
-9.33301e-07
2.64508e-05
-1.98734e-06
2.73325e-05
-1.71774e-06
2.79819e-05
-1.13096e-06
2.8266e-05
-6.86977e-07
2.85507e-05
-6.61571e-07
2.88396e-05
-6.54427e-07
2.92382e-05
-6.01714e-07
2.94304e-05
-5.42463e-07
2.97193e-05
-5.10434e-07
2.99798e-05
-3.98917e-07
3.01966e-05
-4.07162e-07
3.02885e-05
-4.44637e-07
3.05126e-05
-3.89578e-07
3.07044e-05
-3.30408e-07
3.09403e-05
-4.30502e-07
3.11165e-05
-5.00729e-07
3.1353e-05
-4.77515e-07
3.16278e-05
-4.60923e-07
-6.16878e-07
3.182e-05
2.55462e-05
-1.47949e-06
2.65798e-05
-3.02093e-06
2.74058e-05
-2.54381e-06
2.80386e-05
-1.7637e-06
2.83441e-05
-9.92493e-07
2.8674e-05
-9.91523e-07
2.89821e-05
-9.62458e-07
2.93181e-05
-9.37734e-07
2.95452e-05
-7.69541e-07
2.98656e-05
-8.30875e-07
3.0056e-05
-5.8932e-07
3.02816e-05
-6.32787e-07
3.04019e-05
-5.64922e-07
3.06142e-05
-6.01807e-07
3.07738e-05
-4.9002e-07
3.10333e-05
-6.90027e-07
3.12035e-05
-6.70975e-07
3.15177e-05
-7.91688e-07
3.17894e-05
-7.32596e-07
-8.03573e-07
3.19761e-05
2.5673e-05
-2.15249e-06
2.67221e-05
-4.07007e-06
2.75858e-05
-3.40748e-06
2.80907e-05
-2.26855e-06
2.84838e-05
-1.38562e-06
2.88501e-05
-1.35786e-06
2.91649e-05
-1.2772e-06
2.94799e-05
-1.25273e-06
2.97539e-05
-1.04359e-06
3.00271e-05
-1.10409e-06
3.02054e-05
-7.67581e-07
3.04219e-05
-8.49257e-07
3.05784e-05
-7.21437e-07
3.07943e-05
-8.17704e-07
3.09348e-05
-6.30535e-07
3.11746e-05
-9.2988e-07
3.13445e-05
-8.40822e-07
3.16517e-05
-1.09886e-06
3.18935e-05
-9.74479e-07
-1.09434e-06
3.21843e-05
2.58288e-05
-2.98124e-06
2.69507e-05
-5.19206e-06
2.78239e-05
-4.28061e-06
2.82478e-05
-2.69248e-06
2.86927e-05
-1.83047e-06
2.90908e-05
-1.75601e-06
2.94403e-05
-1.62673e-06
2.97152e-05
-1.52756e-06
2.99891e-05
-1.31758e-06
3.01921e-05
-1.30704e-06
3.03815e-05
-9.56929e-07
3.05427e-05
-1.01052e-06
3.06942e-05
-8.72973e-07
3.083e-05
-9.53422e-07
3.09525e-05
-7.53048e-07
3.11004e-05
-1.0778e-06
3.11925e-05
-9.32876e-07
3.14037e-05
-1.31015e-06
3.1558e-05
-1.12873e-06
-1.36495e-06
3.18286e-05
2.60289e-05
-4.01017e-06
2.7246e-05
-6.40912e-06
2.80373e-05
-5.07192e-06
2.84923e-05
-3.14753e-06
2.89721e-05
-2.3102e-06
2.93271e-05
-2.1111e-06
2.95838e-05
-1.8834e-06
2.97275e-05
-1.67124e-06
2.98641e-05
-1.4542e-06
2.98962e-05
-1.33911e-06
2.99557e-05
-1.01643e-06
2.99455e-05
-1.00038e-06
2.99496e-05
-8.77021e-07
2.99012e-05
-9.04996e-07
2.98739e-05
-7.25746e-07
2.97839e-05
-9.87831e-07
2.9696e-05
-8.45034e-07
2.96272e-05
-1.24129e-06
2.9554e-05
-1.05554e-06
-1.45122e-06
2.96403e-05
2.63044e-05
-5.31455e-06
2.75515e-05
-7.65622e-06
2.80714e-05
-5.59184e-06
2.84443e-05
-3.52037e-06
2.86443e-05
-2.51029e-06
2.86217e-05
-2.08847e-06
2.84685e-05
-1.7302e-06
2.82334e-05
-1.43609e-06
2.79731e-05
-1.19396e-06
2.76743e-05
-1.04023e-06
2.74313e-05
-7.73507e-07
2.71546e-05
-7.23667e-07
2.69095e-05
-6.31899e-07
2.66456e-05
-6.41138e-07
2.64281e-05
-5.08197e-07
2.61356e-05
-6.95306e-07
2.58934e-05
-6.02893e-07
2.55617e-05
-9.09541e-07
2.53302e-05
-8.24046e-07
-1.31278e-06
2.51917e-05
2.66042e-05
-6.91876e-06
2.71633e-05
-8.21533e-06
2.67708e-05
-5.19935e-06
2.62465e-05
-2.99606e-06
2.56058e-05
-1.86957e-06
2.48691e-05
-1.35179e-06
2.41535e-05
-1.01462e-06
2.35066e-05
-7.89145e-07
2.29334e-05
-6.20782e-07
2.243e-05
-5.36794e-07
2.20342e-05
-3.7777e-07
2.16659e-05
-3.55373e-07
2.1349e-05
-3.14934e-07
2.10418e-05
-3.33985e-07
2.07878e-05
-2.54188e-07
2.04689e-05
-3.76395e-07
2.02012e-05
-3.35144e-07
1.97879e-05
-4.96248e-07
1.94302e-05
-4.66414e-07
-4.6487e-07
1.85823e-05
2.54494e-05
-7.36817e-06
2.32491e-05
-6.01501e-06
2.09839e-05
-2.93412e-06
1.93168e-05
-1.32901e-06
1.80792e-05
-6.31921e-07
1.71084e-05
-3.80979e-07
1.63609e-05
-2.67149e-07
1.57758e-05
-2.04088e-07
1.53098e-05
-1.54714e-07
1.49196e-05
-1.46594e-07
1.46321e-05
-9.0262e-08
1.43683e-05
-9.15868e-08
1.41386e-05
-8.52843e-08
1.39074e-05
-1.02719e-07
1.37209e-05
-6.77472e-08
1.34687e-05
-1.24211e-07
1.32425e-05
-1.08909e-07
1.2914e-05
-1.67793e-07
1.26537e-05
-2.06108e-07
-7.45645e-08
1.22634e-05
1.76318e-05
1.16168e-05
8.6827e-06
7.35369e-06
6.72177e-06
6.34079e-06
6.07364e-06
5.86955e-06
5.71484e-06
5.56824e-06
5.47798e-06
5.38639e-06
5.30111e-06
5.19839e-06
5.13064e-06
5.00643e-06
4.89752e-06
4.72973e-06
4.52362e-06
4.44906e-06
5.77917e-06
-3.78354e-07
-5.8596e-09
6.14075e-06
-1.25737e-07
-2.35844e-07
6.43874e-06
-3.88772e-09
-2.9411e-07
6.70649e-06
2.56062e-08
-2.93352e-07
6.94753e-06
-6.67459e-08
-1.743e-07
7.14976e-06
-2.07154e-07
4.93003e-09
7.316e-06
-3.17295e-07
1.51052e-07
7.43641e-06
-3.84527e-07
2.64121e-07
7.50996e-06
-3.92326e-07
3.18777e-07
7.55064e-06
-3.56874e-07
3.16192e-07
7.58095e-06
-2.66365e-07
2.36057e-07
7.63331e-06
-1.50392e-07
9.80314e-08
7.75294e-06
1.28995e-09
-1.20918e-07
7.93504e-06
1.69279e-07
-3.51387e-07
8.22724e-06
3.38151e-07
-6.30344e-07
8.61484e-06
5.06175e-07
-8.9378e-07
9.0554e-06
5.90981e-07
-1.03154e-06
9.54522e-06
6.18527e-07
-1.10835e-06
9.97262e-06
5.37544e-07
-9.64941e-07
1.02765e-05
3.56675e-07
-6.60546e-07
1.0467e-05
1.34933e-07
-3.25451e-07
1.05117e-05
-7.06583e-08
2.59545e-08
1.04788e-05
-2.5274e-07
2.85646e-07
1.04001e-05
-3.6687e-07
4.45617e-07
1.03179e-05
-4.31877e-07
5.1407e-07
1.02567e-05
-4.30801e-07
4.92016e-07
1.02361e-05
-3.98662e-07
4.19261e-07
1.02724e-05
-3.4974e-07
3.13375e-07
1.03339e-05
-2.90299e-07
2.28796e-07
1.04364e-05
-2.63533e-07
1.61046e-07
1.05442e-05
-2.09053e-07
1.0129e-07
1.06638e-05
-1.75766e-07
5.61646e-08
1.07973e-05
-1.58315e-07
2.47695e-08
1.09207e-05
-1.4807e-07
2.46658e-08
1.104e-05
-1.37947e-07
1.86259e-08
1.11521e-05
-1.31025e-07
1.90041e-08
1.12638e-05
-1.03977e-07
-7.71215e-09
1.13688e-05
-7.51563e-08
-2.98657e-08
1.14937e-05
-3.6051e-08
-8.88724e-08
1.16162e-05
5.04506e-08
-1.72977e-07
1.17912e-05
1.18229e-07
-2.9322e-07
1.19942e-05
2.30861e-07
-4.33892e-07
1.22751e-05
3.23892e-07
-6.04729e-07
1.26046e-05
3.98971e-07
-7.28465e-07
1.29639e-05
4.28262e-07
-7.87598e-07
1.33791e-05
3.7617e-07
-7.9133e-07
1.37849e-05
2.91026e-07
-6.96806e-07
1.41936e-05
7.25653e-08
-4.8131e-07
1.45851e-05
-1.84886e-07
-2.06597e-07
1.48957e-05
-5.20273e-07
2.09679e-07
1.51564e-05
-9.70773e-07
7.1005e-07
1.52866e-05
-1.41658e-06
1.28635e-06
1.53158e-05
-1.95183e-06
1.92262e-06
1.52671e-05
-2.402e-06
2.45076e-06
1.51513e-05
-2.78262e-06
2.89843e-06
1.49738e-05
-3.10463e-06
3.28207e-06
1.4665e-05
-3.21157e-06
3.52039e-06
1.42464e-05
-3.14827e-06
3.56682e-06
1.37172e-05
-2.90722e-06
3.43643e-06
1.3188e-05
-2.3497e-06
2.87896e-06
1.28677e-05
-1.65372e-06
1.97404e-06
1.27632e-05
-7.21889e-07
8.26329e-07
1.28591e-05
2.64478e-07
-3.6036e-07
1.30946e-05
1.22616e-06
-1.46166e-06
1.36438e-05
2.04808e-06
-2.59727e-06
1.42714e-05
2.5946e-06
-3.22218e-06
1.49161e-05
2.89114e-06
-3.53588e-06
1.57436e-05
3.18471e-06
-4.01222e-06
1.6759e-05
3.41015e-06
-4.42557e-06
1.76953e-05
3.4396e-06
-4.37589e-06
1.85521e-05
3.24484e-06
-4.10163e-06
1.93873e-05
2.87366e-06
-3.70886e-06
2.01582e-05
2.34121e-06
-3.11206e-06
2.08163e-05
1.65808e-06
-2.31621e-06
2.13611e-05
9.07315e-07
-1.45213e-06
2.18126e-05
1.94338e-08
-4.709e-07
2.21298e-05
-7.26973e-07
4.09708e-07
2.24736e-05
-1.60076e-06
1.25699e-06
2.2795e-05
-2.38838e-06
2.06698e-06
2.31833e-05
-3.07103e-06
2.6827e-06
2.36339e-05
-3.89238e-06
3.44182e-06
2.41491e-05
-4.58733e-06
4.07213e-06
2.47758e-05
-5.31956e-06
4.69283e-06
2.54231e-05
-6.10069e-06
5.45346e-06
2.61451e-05
-6.83657e-06
6.11455e-06
2.69361e-05
-7.53973e-06
6.74868e-06
2.7697e-05
-8.28451e-06
7.52366e-06
2.84696e-05
-8.8713e-06
8.09867e-06
2.91403e-05
-9.47592e-06
8.8052e-06
2.97417e-05
-9.97989e-06
9.37853e-06
3.02376e-05
-1.02817e-05
9.78575e-06
3.05322e-05
-1.06895e-05
1.03949e-05
3.06944e-05
-1.07577e-05
1.05954e-05
3.07138e-05
-1.0792e-05
1.07726e-05
3.05326e-05
-1.08466e-05
1.10278e-05
3.03275e-05
-1.05546e-05
1.07597e-05
2.99732e-05
-1.04717e-05
1.0826e-05
2.96187e-05
-1.02862e-05
1.06406e-05
2.92907e-05
-9.96969e-06
1.02977e-05
2.89722e-05
-9.87281e-06
1.01914e-05
2.88024e-05
-9.65966e-06
9.82944e-06
2.86767e-05
-9.45684e-06
9.58255e-06
2.87564e-05
-9.28875e-06
9.20905e-06
2.89194e-05
-9.1738e-06
9.01076e-06
2.92891e-05
-9.03176e-06
8.66213e-06
2.98717e-05
-8.70121e-06
8.11861e-06
3.05754e-05
-8.70949e-06
8.0057e-06
3.13489e-05
-8.00519e-06
7.23172e-06
3.22553e-05
-7.65139e-06
6.74505e-06
3.30948e-05
-6.67125e-06
5.83176e-06
3.39421e-05
-5.75033e-06
4.90302e-06
3.46752e-05
-4.66501e-06
3.93191e-06
3.53544e-05
-3.12405e-06
2.44487e-06
3.59194e-05
-2.07276e-06
1.50768e-06
3.64115e-05
-4.36245e-07
-5.57925e-08
3.66843e-05
9.06288e-07
-1.17911e-06
3.69498e-05
2.06844e-06
-2.33395e-06
3.69951e-05
3.84394e-06
-3.88921e-06
3.70347e-05
4.49216e-06
-4.53176e-06
3.69584e-05
6.0116e-06
-5.93533e-06
3.68166e-05
6.69258e-06
-6.55081e-06
3.66807e-05
7.43001e-06
-7.29403e-06
3.64641e-05
8.23812e-06
-8.02159e-06
3.62482e-05
8.42129e-06
-8.20533e-06
3.60045e-05
8.74731e-06
-8.50359e-06
3.56994e-05
8.99445e-06
-8.68934e-06
3.53613e-05
8.64728e-06
-8.3092e-06
3.49433e-05
8.55673e-06
-8.13872e-06
3.44292e-05
8.14552e-06
-7.63145e-06
3.39006e-05
7.3072e-06
-6.77862e-06
3.32624e-05
6.71989e-06
-6.08164e-06
3.25826e-05
5.71635e-06
-5.03654e-06
3.185e-05
4.54852e-06
-3.81596e-06
3.10978e-05
3.52518e-06
-2.77294e-06
3.0306e-05
2.31003e-06
-1.51827e-06
2.95193e-05
9.9975e-07
-2.13018e-07
2.86528e-05
-1.90805e-07
1.05728e-06
2.78126e-05
-1.40948e-06
2.24973e-06
2.68906e-05
-2.40132e-06
3.3233e-06
2.58511e-05
-3.35613e-06
4.39563e-06
2.48842e-05
-4.28874e-06
5.2556e-06
2.38363e-05
-4.1387e-06
5.18663e-06
2.28889e-05
-5.1011e-06
6.04848e-06
2.1831e-05
-5.59964e-06
6.65753e-06
2.08359e-05
-4.63236e-06
5.62746e-06
1.97036e-05
-3.74335e-06
4.87569e-06
1.8696e-05
-4.39179e-06
5.39942e-06
1.81409e-05
-4.805e-06
5.3601e-06
1.78592e-05
-4.28044e-06
4.56212e-06
1.78145e-05
-1.73698e-06
1.78165e-06
1.76906e-05
-8.40417e-07
9.64338e-07
1.71693e-05
-1.08863e-06
1.60991e-06
1.6991e-05
-3.02555e-06
3.20382e-06
1.69441e-05
-3.90699e-06
3.95395e-06
1.75725e-05
-5.93342e-06
5.30499e-06
1.80981e-05
-6.33981e-06
5.81418e-06
1.84688e-05
-4.08801e-06
3.71741e-06
1.89542e-05
-2.63862e-06
2.15317e-06
1.86889e-05
-2.30498e-06
2.57028e-06
1.86912e-05
-2.50408e-06
2.5018e-06
1.85141e-05
-4.24534e-06
4.42245e-06
1.82173e-05
-5.7901e-06
6.08687e-06
1.92069e-05
-1.0826e-05
9.83634e-06
2.06968e-05
-1.68675e-05
1.53776e-05
2.21887e-05
-2.18025e-05
2.03106e-05
2.2698e-05
-2.38791e-05
2.33698e-05
2.25068e-05
-2.41785e-05
2.43697e-05
2.24432e-05
-2.2994e-05
2.30576e-05
2.24326e-05
-1.96649e-05
1.96754e-05
2.20204e-05
-1.62401e-05
1.66523e-05
2.19013e-05
-1.28126e-05
1.29317e-05
2.20271e-05
-7.70692e-06
7.58113e-06
2.1748e-05
-2.49116e-06
2.77021e-06
2.18324e-05
2.34373e-06
-2.42807e-06
2.19013e-05
7.99017e-06
-8.0591e-06
2.13094e-05
1.17061e-05
-1.11141e-05
2.13885e-05
1.32706e-05
-1.33497e-05
2.20015e-05
1.66479e-05
-1.7261e-05
2.34414e-05
2.16976e-05
-2.31375e-05
2.44559e-05
2.77272e-05
-2.87417e-05
2.36439e-05
3.21647e-05
-3.13527e-05
2.25019e-05
3.2875e-05
-3.1733e-05
2.13886e-05
3.16455e-05
-3.05322e-05
1.88382e-05
2.92412e-05
-2.66907e-05
1.65257e-05
2.50517e-05
-2.27391e-05
1.59348e-05
2.1314e-05
-2.07232e-05
1.41495e-05
2.0161e-05
-1.83757e-05
1.32299e-05
1.71778e-05
-1.62582e-05
1.3128e-05
1.62412e-05
-1.61393e-05
1.13628e-05
1.59915e-05
-1.42262e-05
1.15813e-05
1.31526e-05
-1.33711e-05
1.10017e-05
1.34377e-05
-1.28581e-05
1.01943e-05
1.09175e-05
-1.01102e-05
9.48621e-06
1.08722e-05
-1.0164e-05
8.17203e-06
8.71354e-06
-7.39936e-06
7.0484e-06
8.77466e-06
-7.65102e-06
7.32312e-06
5.93491e-06
-6.20963e-06
5.70124e-06
7.38806e-06
-5.76618e-06
6.50894e-06
3.39683e-06
-4.20454e-06
6.83309e-06
-6.90192e-06
6.57778e-06
1.32768e-05
-3.38118e-07
1.33206e-05
-1.69492e-07
1.33708e-05
-5.41286e-08
1.34514e-05
-5.49345e-08
1.35345e-05
-1.49942e-07
1.36096e-05
-2.82182e-07
1.36854e-05
-3.93091e-07
1.37368e-05
-4.35993e-07
1.3759e-05
-4.14523e-07
1.37523e-05
-3.50121e-07
1.37361e-05
-2.50183e-07
1.37241e-05
-1.38423e-07
1.37484e-05
-2.29423e-08
1.37966e-05
1.21049e-07
1.38924e-05
2.42323e-07
1.40493e-05
3.49314e-07
1.42382e-05
4.02046e-07
1.44615e-05
3.9522e-07
1.4677e-05
3.22031e-07
1.48461e-05
1.87633e-07
1.49585e-05
2.24766e-08
1.50387e-05
-1.5081e-07
1.50813e-05
-2.95317e-07
1.51059e-05
-3.91501e-07
1.51326e-05
-4.58624e-07
1.51736e-05
-4.7178e-07
1.52253e-05
-4.50305e-07
1.53182e-05
-4.42645e-07
1.54074e-05
-3.79515e-07
1.55164e-05
-3.7253e-07
1.56398e-05
-3.32499e-07
1.57578e-05
-2.9377e-07
1.59021e-05
-3.02547e-07
1.60119e-05
-2.57942e-07
1.61349e-05
-2.60935e-07
1.6252e-05
-2.4812e-07
1.63513e-05
-2.03307e-07
1.64682e-05
-1.91985e-07
1.65703e-05
-1.38208e-07
1.66975e-05
-7.66999e-08
1.68493e-05
-3.35599e-08
1.70151e-05
6.50554e-08
1.72376e-05
1.01413e-07
1.74973e-05
1.39208e-07
1.77787e-05
1.46929e-07
1.8099e-05
5.57852e-08
1.84334e-05
-4.3333e-08
1.87537e-05
-2.47714e-07
1.90972e-05
-5.28424e-07
1.93831e-05
-8.06169e-07
1.96368e-05
-1.22443e-06
1.98252e-05
-1.60499e-06
1.99028e-05
-2.02942e-06
1.99482e-05
-2.44747e-06
1.98516e-05
-2.68594e-06
1.96812e-05
-2.93426e-06
1.94376e-05
-2.96802e-06
1.9152e-05
-2.86266e-06
1.88884e-05
-2.64356e-06
1.86409e-05
-2.1022e-06
1.84682e-05
-1.48105e-06
1.84145e-05
-6.68167e-07
1.8469e-05
2.09912e-07
1.86692e-05
1.02604e-06
1.8933e-05
1.7842e-06
1.92374e-05
2.29023e-06
1.95576e-05
2.57096e-06
1.99675e-05
2.77477e-06
2.05141e-05
2.86359e-06
2.11383e-05
2.81541e-06
2.17605e-05
2.62263e-06
2.2391e-05
2.24315e-06
2.30444e-05
1.68778e-06
2.35786e-05
1.12391e-06
2.41464e-05
3.39487e-07
2.46275e-05
-4.61694e-07
2.50752e-05
-1.17467e-06
2.55555e-05
-2.08101e-06
2.60368e-05
-2.86971e-06
2.66124e-05
-3.64661e-06
2.71944e-05
-4.47436e-06
2.78141e-05
-5.20706e-06
2.8498e-05
-6.00348e-06
2.91623e-05
-6.76491e-06
2.98005e-05
-7.47479e-06
3.0406e-05
-8.14525e-06
3.0901e-05
-8.77955e-06
3.1334e-05
-9.30427e-06
3.15958e-05
-9.73774e-06
3.17067e-05
-1.00908e-05
3.17241e-05
-1.02991e-05
3.15237e-05
-1.04891e-05
3.12244e-05
-1.04583e-05
3.08669e-05
-1.04345e-05
3.03555e-05
-1.03353e-05
2.98815e-05
-1.00806e-05
2.94167e-05
-1.00068e-05
2.9e-05
-9.8695e-06
2.87015e-05
-9.67118e-06
2.85208e-05
-9.69206e-06
2.84113e-05
-9.5502e-06
2.84455e-05
-9.49105e-06
2.87094e-05
-9.55264e-06
2.90253e-05
-9.48964e-06
2.96005e-05
-9.60701e-06
3.03986e-05
-9.49927e-06
3.11673e-05
-9.47817e-06
3.21389e-05
-8.97677e-06
3.30598e-05
-8.57233e-06
3.39924e-05
-7.60388e-06
3.48249e-05
-6.58281e-06
3.55477e-05
-5.3878e-06
3.62554e-05
-3.83179e-06
3.68053e-05
-2.62263e-06
3.72588e-05
-8.89729e-07
3.75758e-05
5.89274e-07
3.77358e-05
1.90842e-06
3.78159e-05
3.76383e-06
3.76599e-05
4.64816e-06
3.75302e-05
6.14128e-06
3.71811e-05
7.04168e-06
3.68611e-05
7.75007e-06
3.64678e-05
8.63136e-06
3.60324e-05
8.85674e-06
3.55692e-05
9.21046e-06
3.51047e-05
9.45893e-06
3.45907e-05
9.16129e-06
3.40855e-05
9.06194e-06
3.35831e-05
8.64791e-06
3.30352e-05
7.85511e-06
3.25108e-05
7.2443e-06
3.19318e-05
6.29534e-06
3.13143e-05
5.16602e-06
3.06112e-05
4.22833e-06
2.98971e-05
3.02413e-06
2.91417e-05
1.75507e-06
2.82782e-05
6.72784e-07
2.73697e-05
-5.01003e-07
2.63987e-05
-1.43039e-06
2.54103e-05
-2.36768e-06
2.43586e-05
-3.23701e-06
2.3359e-05
-3.13913e-06
2.23045e-05
-4.04658e-06
2.11379e-05
-4.43306e-06
2.01044e-05
-3.59889e-06
1.89307e-05
-2.56961e-06
1.80082e-05
-3.46928e-06
1.73782e-05
-4.175e-06
1.7204e-05
-4.1063e-06
1.74125e-05
-1.94547e-06
1.73304e-05
-7.58324e-07
1.72063e-05
-9.64551e-07
1.69633e-05
-2.78248e-06
1.69118e-05
-3.85555e-06
1.74372e-05
-6.45878e-06
1.73562e-05
-6.25879e-06
1.79356e-05
-4.66745e-06
1.80441e-05
-2.74709e-06
1.76018e-05
-1.86273e-06
1.79257e-05
-2.82796e-06
1.74654e-05
-3.78508e-06
1.75614e-05
-5.88601e-06
1.88634e-05
-1.2128e-05
2.05051e-05
-1.85092e-05
2.17815e-05
-2.30789e-05
2.20068e-05
-2.41044e-05
2.18033e-05
-2.3975e-05
2.15234e-05
-2.27141e-05
2.15955e-05
-1.97369e-05
2.14605e-05
-1.61051e-05
2.1279e-05
-1.26311e-05
2.12113e-05
-7.63922e-06
2.11115e-05
-2.39134e-06
2.0814e-05
2.64124e-06
2.11874e-05
7.61673e-06
2.08576e-05
1.20359e-05
2.06634e-05
1.34648e-05
2.14479e-05
1.58634e-05
2.25344e-05
2.06111e-05
2.41141e-05
2.61475e-05
2.45884e-05
3.16904e-05
2.3033e-05
3.44304e-05
2.17317e-05
3.29468e-05
2.04548e-05
3.0518e-05
1.75961e-05
2.79104e-05
1.60538e-05
2.28563e-05
1.57393e-05
2.04756e-05
1.34966e-05
1.94204e-05
1.36907e-05
1.60471e-05
1.34316e-05
1.62505e-05
1.28727e-05
1.37115e-05
1.26525e-05
1.3658e-05
1.23567e-05
1.12132e-05
1.14423e-05
1.17866e-05
1.23497e-05
7.80618e-06
1.10908e-05
1.00336e-05
1.1655e-05
5.37069e-06
1.14514e-05
7.59167e-06
1.13272e-05
3.521e-06
5.60988e-06
1.25504e-05
2.02658e-05
-8.73094e-08
1.99967e-05
9.95326e-08
1.98454e-05
9.71605e-08
1.98433e-05
-5.28068e-08
1.99284e-05
-2.35025e-07
2.00169e-05
-3.7065e-07
2.00595e-05
-4.35714e-07
2.00617e-05
-4.38227e-07
2.00324e-05
-3.8521e-07
2.00004e-05
-3.18076e-07
1.99651e-05
-2.14885e-07
1.9945e-05
-1.18349e-07
1.99392e-05
-1.71872e-08
1.99652e-05
9.50511e-08
2.00216e-05
1.86002e-07
2.01072e-05
2.63695e-07
2.02167e-05
2.92524e-07
2.0338e-05
2.73875e-07
2.04475e-05
2.12559e-07
2.05372e-05
9.79441e-08
2.06039e-05
-4.42164e-08
2.0643e-05
-1.89878e-07
2.06792e-05
-3.31525e-07
2.06925e-05
-4.04812e-07
2.07255e-05
-4.91639e-07
2.07683e-05
-5.14615e-07
2.08116e-05
-4.9357e-07
2.08888e-05
-5.19861e-07
2.09675e-05
-4.58202e-07
2.10459e-05
-4.50977e-07
2.11532e-05
-4.39755e-07
2.12403e-05
-3.80866e-07
2.13496e-05
-4.11893e-07
2.14529e-05
-3.61159e-07
2.15245e-05
-3.32601e-07
2.16488e-05
-3.72348e-07
2.17137e-05
-2.68223e-07
2.18152e-05
-2.93484e-07
2.19234e-05
-2.46416e-07
2.20049e-05
-1.58191e-07
2.21565e-05
-1.85233e-07
2.23005e-05
-7.88711e-08
2.24716e-05
-6.97089e-08
2.26973e-05
-8.65357e-08
2.29263e-05
-8.19859e-08
2.31732e-05
-1.91179e-07
2.34422e-05
-3.12353e-07
2.36985e-05
-5.03939e-07
2.39403e-05
-7.70255e-07
2.41882e-05
-1.05412e-06
2.43514e-05
-1.38756e-06
2.45058e-05
-1.75944e-06
2.45623e-05
-2.0859e-06
2.45453e-05
-2.43047e-06
2.4472e-05
-2.61262e-06
2.43224e-05
-2.78467e-06
2.41392e-05
-2.78479e-06
2.39169e-05
-2.6404e-06
2.36748e-05
-2.4014e-06
2.34661e-05
-1.89354e-06
2.33284e-05
-1.34332e-06
2.3304e-05
-6.43789e-07
2.33808e-05
1.33062e-07
2.3542e-05
8.649e-07
2.38069e-05
1.51932e-06
2.40825e-05
2.01462e-06
2.43535e-05
2.29993e-06
2.46891e-05
2.43914e-06
2.50452e-05
2.50748e-06
2.5509e-05
2.35164e-06
2.5972e-05
2.15963e-06
2.64485e-05
1.76669e-06
2.69493e-05
1.187e-06
2.74197e-05
6.53477e-07
2.79117e-05
-1.52504e-07
2.83628e-05
-9.12841e-07
2.88491e-05
-1.66097e-06
2.93155e-05
-2.54732e-06
2.9789e-05
-3.34321e-06
3.02778e-05
-4.13546e-06
3.07702e-05
-4.96674e-06
3.12476e-05
-5.6845e-06
3.16878e-05
-6.44364e-06
3.20619e-05
-7.13905e-06
3.23755e-05
-7.78842e-06
3.25883e-05
-8.35798e-06
3.26701e-05
-8.86136e-06
3.26543e-05
-9.28846e-06
3.24885e-05
-9.57197e-06
3.21967e-05
-9.79903e-06
3.18658e-05
-9.96816e-06
3.13771e-05
-1.00004e-05
3.08971e-05
-9.97833e-06
3.03569e-05
-9.89425e-06
2.97886e-05
-9.76702e-06
2.9387e-05
-9.67902e-06
2.89927e-05
-9.61253e-06
2.86999e-05
-9.5767e-06
2.85555e-05
-9.52675e-06
2.84449e-05
-9.58144e-06
2.84242e-05
-9.5295e-06
2.85694e-05
-9.6363e-06
2.88604e-05
-9.84364e-06
2.92575e-05
-9.88676e-06
2.98761e-05
-1.02256e-05
3.06779e-05
-1.03011e-05
3.14379e-05
-1.02382e-05
3.24116e-05
-9.95046e-06
3.32148e-05
-9.37555e-06
3.41142e-05
-8.50323e-06
3.48355e-05
-7.30408e-06
3.55326e-05
-6.08494e-06
3.62053e-05
-4.50451e-06
3.67398e-05
-3.15707e-06
3.72215e-05
-1.37142e-06
3.76621e-05
1.48672e-07
3.78515e-05
1.71898e-06
3.80473e-05
3.56799e-06
3.79878e-05
4.70767e-06
3.7903e-05
6.22609e-06
3.76114e-05
7.33329e-06
3.72877e-05
8.07378e-06
3.68288e-05
9.09024e-06
3.62367e-05
9.44884e-06
3.55661e-05
9.88105e-06
3.48528e-05
1.01723e-05
3.40845e-05
9.92955e-06
3.33172e-05
9.8293e-06
3.25879e-05
9.37719e-06
3.18904e-05
8.55261e-06
3.12294e-05
7.90532e-06
3.05968e-05
6.92788e-06
3.00028e-05
5.75999e-06
2.93863e-05
4.84487e-06
2.87645e-05
3.64595e-06
2.80436e-05
2.47595e-06
2.72031e-05
1.51328e-06
2.63291e-05
3.72979e-07
2.53834e-05
-4.84676e-07
2.45076e-05
-1.49192e-06
2.34511e-05
-2.18042e-06
2.24252e-05
-2.11326e-06
2.13272e-05
-2.94855e-06
2.03814e-05
-3.4873e-06
1.95932e-05
-2.81068e-06
1.88285e-05
-1.80489e-06
1.80167e-05
-2.65751e-06
1.72122e-05
-3.37052e-06
1.68314e-05
-3.72547e-06
1.69155e-05
-2.02961e-06
1.69112e-05
-7.53974e-07
1.72068e-05
-1.26013e-06
1.69223e-05
-2.49802e-06
1.73634e-05
-4.29666e-06
1.73625e-05
-6.45783e-06
1.71226e-05
-6.01887e-06
1.78058e-05
-5.35068e-06
1.70683e-05
-2.0096e-06
1.7114e-05
-1.90843e-06
1.71849e-05
-2.89889e-06
1.65401e-05
-3.14025e-06
1.71943e-05
-6.54019e-06
1.85936e-05
-1.35274e-05
1.96955e-05
-1.96111e-05
1.99636e-05
-2.3347e-05
2.0188e-05
-2.43289e-05
2.02053e-05
-2.39923e-05
1.99308e-05
-2.24395e-05
1.99663e-05
-1.97724e-05
1.99924e-05
-1.61313e-05
2.00004e-05
-1.26391e-05
1.98724e-05
-7.51119e-06
1.97438e-05
-2.26272e-06
1.96791e-05
2.70588e-06
1.98478e-05
7.44806e-06
2.0314e-05
1.15696e-05
1.99834e-05
1.37955e-05
2.08021e-05
1.50446e-05
2.1984e-05
1.94292e-05
2.31726e-05
2.49589e-05
2.4684e-05
3.0179e-05
2.44209e-05
3.46935e-05
2.22119e-05
3.51559e-05
2.08772e-05
3.18527e-05
1.96275e-05
2.91601e-05
1.67143e-05
2.57694e-05
1.61799e-05
2.101e-05
1.53844e-05
2.0216e-05
1.46518e-05
1.67797e-05
1.45362e-05
1.6366e-05
1.4875e-05
1.33727e-05
1.40089e-05
1.45241e-05
1.54102e-05
9.81201e-06
1.45257e-05
1.2671e-05
1.47185e-05
7.6134e-06
1.47306e-05
1.00215e-05
1.43316e-05
5.76975e-06
1.49515e-05
6.97172e-06
1.42973e-05
4.17518e-06
4.71821e-06
1.5189e-05
2.51275e-05
-7.41376e-08
2.51887e-05
3.8359e-08
2.52836e-05
2.19356e-09
2.53854e-05
-1.5457e-07
2.54709e-05
-3.20511e-07
2.55167e-05
-4.1642e-07
2.55172e-05
-4.36284e-07
2.54941e-05
-4.1507e-07
2.54406e-05
-3.31723e-07
2.54049e-05
-2.82388e-07
2.536e-05
-1.69996e-07
2.53276e-05
-8.59563e-08
2.53314e-05
-2.09256e-08
2.53446e-05
8.17673e-08
2.53925e-05
1.38094e-07
2.54675e-05
1.88739e-07
2.55514e-05
2.08594e-07
2.56299e-05
1.95388e-07
2.57044e-05
1.38119e-07
2.57503e-05
5.20522e-08
2.57909e-05
-8.48744e-08
2.57999e-05
-1.98865e-07
2.58208e-05
-3.52458e-07
2.58223e-05
-4.06248e-07
2.58487e-05
-5.18022e-07
2.58726e-05
-5.38551e-07
2.59013e-05
-5.22252e-07
2.59546e-05
-5.73175e-07
2.59948e-05
-4.98438e-07
2.60601e-05
-5.16272e-07
2.61051e-05
-4.84783e-07
2.61763e-05
-4.52026e-07
2.62368e-05
-4.72395e-07
2.63039e-05
-4.28215e-07
2.63714e-05
-4.00106e-07
2.64431e-05
-4.44105e-07
2.65233e-05
-3.48361e-07
2.65861e-05
-3.5632e-07
2.66811e-05
-3.41452e-07
2.67612e-05
-2.38228e-07
2.68595e-05
-2.83543e-07
2.69943e-05
-2.13655e-07
2.71258e-05
-2.01287e-07
2.7293e-05
-2.53689e-07
2.74861e-05
-2.7511e-07
2.76727e-05
-3.77761e-07
2.78692e-05
-5.08866e-07
2.80684e-05
-7.0316e-07
2.82322e-05
-9.34048e-07
2.83741e-05
-1.19598e-06
2.84985e-05
-1.51198e-06
2.85146e-05
-1.77556e-06
2.85443e-05
-2.1156e-06
2.84349e-05
-2.321e-06
2.83104e-05
-2.48818e-06
2.81547e-05
-2.62899e-06
2.78989e-05
-2.529e-06
2.77006e-05
-2.44209e-06
2.74404e-05
-2.14119e-06
2.72713e-05
-1.7244e-06
2.71648e-05
-1.23679e-06
2.71254e-05
-6.04428e-07
2.72313e-05
2.71901e-08
2.73845e-05
7.11659e-07
2.76434e-05
1.26039e-06
2.79525e-05
1.70552e-06
2.82608e-05
1.99168e-06
2.86154e-05
2.08449e-06
2.89816e-05
2.14132e-06
2.9388e-05
1.94525e-06
2.98206e-05
1.72703e-06
3.02625e-05
1.32474e-06
3.06477e-05
8.01852e-07
3.10645e-05
2.36688e-07
3.14557e-05
-5.43697e-07
3.18058e-05
-1.26295e-06
3.21866e-05
-2.04178e-06
3.25068e-05
-2.86755e-06
3.28224e-05
-3.65882e-06
3.31007e-05
-4.41377e-06
3.33209e-05
-5.18691e-06
3.35222e-05
-5.88577e-06
3.36064e-05
-6.52787e-06
3.36286e-05
-7.16126e-06
3.35714e-05
-7.7312e-06
3.34157e-05
-8.20226e-06
3.31185e-05
-8.56419e-06
3.2739e-05
-8.90899e-06
3.22914e-05
-9.12436e-06
3.18282e-05
-9.33581e-06
3.13172e-05
-9.45711e-06
3.07866e-05
-9.46981e-06
3.02993e-05
-9.49102e-06
2.97984e-05
-9.39337e-06
2.94069e-05
-9.37548e-06
2.91172e-05
-9.38936e-06
2.88536e-05
-9.34893e-06
2.86737e-05
-9.3968e-06
2.85571e-05
-9.41018e-06
2.84387e-05
-9.46302e-06
2.84544e-05
-9.54516e-06
2.85509e-05
-9.73286e-06
2.8753e-05
-1.00457e-05
2.9121e-05
-1.02548e-05