/*--------------------------------*- C++ -*----------------------------------*\
| =========                 |                                                 |
| \\      /  F ield         | OpenFOAM: The Open Source CFD Toolbox           |
|  \\    /   O peration     | Version:  2.4.0                                 |
|   \\  /    A nd           | Web:      www.OpenFOAM.org                      |
|    \\/     M anipulation  |                                                 |
\*---------------------------------------------------------------------------*/
FoamFile
{
    version     2.0;
    format      ascii;
    class       volScalarField;
    location    "1.85";
    object      pMean;
}
// * * * * * * * * * * * * * * * * * * * * * * * * * * * * * * * * * * * * * //

dimensions      [0 2 -2 0 0 0 0];

internalField   nonuniform List<scalar> 
8800
(
86.7091
74.2718
66.8682
63.309
61.4172
59.9857
58.7774
57.6297
56.6001
55.57
54.6191
53.6333
52.7274
51.7859
50.9434
50.0722
49.3078
48.5234
47.8206
47.0408
83.5979
73.9174
67.0368
63.4229
61.4772
60.0109
58.7849
57.6301
56.598
55.5676
54.6162
53.6312
52.7249
51.7841
50.9417
50.0702
49.3097
48.5174
47.8213
46.9989
81.633
73.9932
67.6386
63.7985
61.6449
60.09
58.8315
57.6627
56.6224
55.5846
54.6266
53.6358
52.7265
51.7822
50.9409
50.0641
49.3148
48.5087
47.8707
47.0291
80.0976
74.0545
68.2253
64.2219
61.8289
60.1776
58.8942
57.7191
56.6711
55.6233
54.6544
53.6529
52.7378
51.7856
50.9444
50.0586
49.3207
48.5135
47.9651
47.1875
78.8487
74.0277
68.701
64.6276
61.9977
60.2448
58.9436
57.7765
56.7271
55.6749
54.6901
53.6796
52.7511
51.795
50.9444
50.059
49.3157
48.5354
47.9781
47.399
77.8633
73.9308
69.0664
64.9736
62.1483
60.2872
58.9724
57.8207
56.7776
55.7243
54.7257
53.706
52.7629
51.8032
50.9408
50.0573
49.3026
48.5507
48.031
47.7065
77.1069
73.8141
69.3342
65.2531
62.2839
60.3126
58.9814
57.8517
56.8172
55.7659
54.7548
53.7288
52.7701
51.8093
50.9329
50.0541
49.2824
48.5531
48.104
48.082
76.5532
73.714
69.5147
65.4658
62.4019
60.3325
58.9737
57.876
56.844
55.8001
54.7738
53.7501
52.7706
51.8175
50.9198
50.0567
49.2566
48.5465
48.0373
48.4251
76.1928
73.6437
69.628
65.6108
62.487
60.3462
58.9644
57.8921
56.8641
55.8247
54.7887
53.7653
52.7744
51.8237
50.9157
50.0579
49.244
48.5567
48.1048
48.7522
76.0136
73.6116
69.6854
65.6878
62.5323
60.356
58.9596
57.9027
56.8771
55.8409
54.7987
53.7761
52.7796
51.8309
50.9181
50.0637
49.2502
48.5761
48.1679
48.8659
76.0067
73.622
69.6858
65.6929
62.5319
60.3597
58.9568
57.9067
56.8771
55.8454
54.7992
53.7814
52.7815
51.8385
50.9223
50.0741
49.2584
48.5979
48.2037
48.9616
76.176
73.6703
69.6297
65.6214
62.4873
60.3546
58.9593
57.9009
56.8654
55.8352
54.7916
53.7794
52.7823
51.8437
50.9299
50.0854
49.2728
48.6135
48.2271
48.9947
76.527
73.7525
69.5145
65.4787
62.4009
60.3455
58.9646
57.8895
56.8444
55.8162
54.7773
53.7733
52.7821
51.8507
50.9421
50.1029
49.2944
48.6335
48.2306
48.9637
77.0734
73.8583
69.3322
65.2661
62.2775
60.328
58.968
57.8682
56.8139
55.7862
54.7554
53.7603
52.7795
51.8564
50.9566
50.1248
49.3241
48.6605
48.2184
48.8528
77.8272
73.9743
69.0667
64.9838
62.1385
60.299
58.9608
57.8349
56.7736
55.7452
54.7266
53.7397
52.7741
51.8578
50.9719
50.1481
49.3631
48.698
48.2173
48.6569
78.8093
74.0722
68.7035
64.6365
61.9856
60.254
58.9348
57.7897
56.7244
55.6959
54.6933
53.7143
52.7671
51.8553
50.9872
50.1696
49.4095
48.7472
48.2463
48.3961
80.0561
74.0993
68.2306
64.2325
61.816
60.1865
58.8874
57.7334
56.6694
55.6456
54.66
53.6893
52.7593
51.8506
51.0004
50.1859
49.4553
48.7946
48.3056
48.1212
81.5908
74.0362
67.6472
63.8107
61.6324
60.0986
58.8258
57.6773
56.6222
55.6069
54.6354
53.6722
52.754
51.8485
51.0102
50.1983
49.4882
48.8311
48.3648
47.979
83.5551
73.9574
67.0474
63.4364
61.4656
60.0191
58.7795
57.6449
56.5986
55.5901
54.6261
53.6682
52.7544
51.8517
51.0167
50.208
49.5037
48.8525
48.3615
47.9024
86.6659
74.3099
66.8786
63.323
61.4063
59.9937
58.7721
57.6448
56.6006
55.593
54.6289
53.6708
52.7571
51.8541
51.0198
50.2114
49.5072
48.8582
48.3628
48.0228
47.119
47.0558
46.8484
46.605
46.3883
46.2107
46.0773
45.9829
45.9231
45.8933
45.888
45.8938
45.9023
45.9045
45.8963
45.8732
45.8347
45.7762
45.7003
45.6046
45.4956
45.3797
45.2662
45.1595
45.0676
44.9939
44.9408
44.9031
44.8765
44.852
44.8241
44.7879
44.7436
44.6907
44.6296
44.5571
44.4734
44.3728
44.2581
44.1267
43.9853
43.834
43.688
43.5528
43.4411
43.3524
43.2932
43.2577
43.2454
43.2451
43.2494
43.2436
43.2236
43.1799
43.1175
43.027
42.9191
42.79
42.6514
42.4946
42.3256
42.1375
41.9399
41.7327
41.5326
41.3495
41.2006
41.096
41.045
41.0406
41.0846
41.1622
41.2718
41.3943
41.5319
41.6637
41.795
41.9054
42.0027
42.0711
42.1206
42.1441
42.1567
42.1491
42.1419
42.1286
42.1252
42.1315
42.1528
42.1916
42.2502
42.3287
42.4268
42.537
42.6598
42.7873
42.9245
43.0609
43.2013
43.3339
43.4637
43.5786
43.6876
43.7705
43.8496
43.9049
43.9589
43.9961
44.0385
44.0647
44.0927
44.1056
44.1186
44.1156
44.1134
44.1001
44.0916
44.0757
44.0681
44.0573
44.061
44.0672
44.095
44.1233
44.1763
44.2214
44.2972
44.3622
44.4605
44.5585
44.6866
44.8181
44.9681
45.1154
45.2738
45.4261
45.5889
45.7432
45.9018
46.0507
46.2075
46.3616
46.526
46.6908
46.8654
47.0371
47.2173
47.3969
47.5801
47.7592
47.9369
48.1075
48.2778
48.4391
48.6007
48.7568
48.9215
49.0734
49.2372
49.388
49.5578
49.6973
49.8631
49.9886
50.1411
50.2532
50.3967
50.4944
50.627
50.6992
50.8328
50.8819
51.0322
51.0757
51.2552
51.3037
51.5207
51.5777
51.8363
51.9201
52.2126
52.3399
52.6706
52.8668
53.2318
53.4978
53.8918
54.1952
54.6099
54.913
55.3104
55.5349
55.8015
55.7567
55.6259
54.8511
53.6166
50.3515
46.184
25.8604
46.8835
46.8585
46.7965
46.6441
46.4503
46.2642
46.1201
46.0233
45.9706
45.9492
45.9506
45.96
45.9703
45.972
45.9634
45.9392
45.9004
45.8437
45.772
45.6839
45.5855
45.4807
45.3784
45.282
45.1992
45.1307
45.0796
45.0419
45.0156
44.9926
44.969
44.9377
44.8991
44.85
44.7927
44.7226
44.6417
44.545
44.4363
44.3124
44.1805
44.0417
43.9073
43.7819
43.6757
43.5896
43.5288
43.489
43.4691
43.4587
43.4541
43.4415
43.4194
43.3761
43.3169
43.2327
43.1318
43.0093
42.875
42.7239
42.5618
42.3843
42.1984
42.0068
41.8214
41.6518
41.5119
41.409
41.3534
41.3396
41.37
41.432
41.525
41.6326
41.7529
41.8708
41.9844
42.0805
42.1608
42.2164
42.2541
42.2687
42.2723
42.2618
42.2488
42.234
42.224
42.2248
42.237
42.265
42.3106
42.375
42.4579
42.5536
42.6633
42.78
42.9053
43.03
43.1573
43.2782
43.3962
43.5018
43.5988
43.6731
43.7411
43.7902
43.8348
43.8652
43.8962
43.9155
43.9331
43.9397
43.9423
43.9321
43.9165
43.8952
43.8734
43.8499
43.8303
43.8102
43.8054
43.8041
43.8259
43.8491
43.8971
43.9411
44.0118
44.0771
44.1674
44.2593
44.3759
44.4958
44.6335
44.7679
44.9147
45.054
45.2051
45.3484
45.4946
45.6323
45.7784
45.9212
46.0732
46.2254
46.3896
46.5455
46.717
46.882
47.0581
47.2258
47.3967
47.5586
47.7303
47.8862
48.0544
48.2087
48.3847
48.5338
48.7068
48.8538
49.0252
49.1538
49.3149
49.4279
49.5739
49.672
49.8072
49.881
50.0068
50.046
50.1711
50.1827
50.3235
50.3259
50.498
50.5062
50.7151
50.7379
50.9807
51.0419
51.3033
51.4138
51.6979
51.8689
52.185
52.3966
52.7444
52.9562
53.3066
53.466
53.7435
53.7367
53.7924
53.3491
52.8462
51.2211
49.4772
43.7622
37.8931
19.1625
46.8665
46.8683
46.8759
46.7757
46.5798
46.3534
46.1652
46.0419
45.9877
45.9787
45.9963
46.0183
46.0363
46.04
46.0303
46.0028
45.9614
45.9036
45.8342
45.7521
45.6635
45.5698
45.4794
45.3937
45.3198
45.2572
45.2097
45.1729
45.1472
45.1245
45.1031
45.0748
45.0406
44.9954
44.942
44.8753
44.7983
44.7068
44.6054
44.4917
44.3719
44.2473
44.1263
44.0129
43.9149
43.8333
43.7725
43.7287
43.702
43.6828
43.6692
43.6492
43.6224
43.5784
43.5201
43.4406
43.3449
43.2296
43.1007
42.957
42.8026
42.6372
42.466
42.2922
42.1249
41.9714
41.8437
41.7466
41.6888
41.6684
41.687
41.7359
41.8129
41.9055
42.0088
42.1105
42.206
42.2861
42.3488
42.3909
42.4152
42.4223
42.4167
42.4024
42.3827
42.3638
42.3477
42.3408
42.3424
42.3575
42.3883
42.4375
42.504
42.5866
42.6839
42.7914
42.9051
43.0198
43.135
43.2445
43.3499
43.4454
43.5296
43.5954
43.6539
43.6986
43.7371
43.7651
43.7908
43.8087
43.8212
43.8266
43.8225
43.8076
43.7834
43.756
43.7259
43.6943
43.6678
43.6413
43.6357
43.6309
43.6525
43.6744
43.7222
43.77
43.8377
43.9053
43.9897
44.0792
44.1853
44.2951
44.4205
44.5433
44.6787
44.8066
44.9444
45.0765
45.21
45.3364
45.4723
45.6048
45.7475
45.8908
46.0463
46.1933
46.3585
46.5122
46.681
46.8329
46.9944
47.1439
47.3131
47.4637
47.64
47.7942
47.9794
48.1292
48.3117
48.4607
48.6295
48.7514
48.906
49.004
49.1445
49.2202
49.3487
49.3903
49.5116
49.5175
49.6361
49.6121
49.75
49.7151
49.8834
49.8598
50.0454
50.0506
50.2486
50.2979
50.5057
50.5935
50.8289
50.9512
51.2271
51.3577
51.6606
51.7557
52.0346
52.0197
52.1867
51.8909
51.7903
50.8097
50.1809
47.4321
45.505
38.4482
31.3942
18.6316
46.6745
46.7044
46.8976
46.8736
46.6688
46.3961
46.1663
46.027
45.9812
45.995
46.0399
46.0854
46.1186
46.1285
46.1179
46.0854
46.0383
45.9765
45.9068
45.8284
45.7478
45.6646
45.586
45.5118
45.4481
45.393
45.3504
45.3158
45.2905
45.2675
45.2464
45.2198
45.1882
45.1462
45.096
45.0334
44.9615
44.8771
44.7846
44.6827
44.5766
44.4671
44.361
44.26
44.1712
44.0944
44.0343
43.9868
43.9532
43.9256
43.9033
43.8767
43.8451
43.8004
43.7431
43.6683
43.5782
43.4711
43.3507
43.2172
43.0745
42.9234
42.7688
42.6135
42.465
42.3286
42.2138
42.1241
42.0665
42.0403
42.0479
42.0829
42.1429
42.2179
42.3023
42.385
42.4612
42.524
42.5702
42.5997
42.6123
42.611
42.5969
42.5767
42.5512
42.5266
42.5038
42.4868
42.4757
42.4756
42.4907
42.5246
42.5771
42.6477
42.7347
42.8321
42.9354
43.0389
43.1429
43.2406
43.3331
43.4161
43.4871
43.5426
43.5933
43.6355
43.6726
43.7029
43.7291
43.7497
43.7635
43.7697
43.7626
43.745
43.7184
43.6858
43.6538
43.6174
43.591
43.5655
43.5629
43.5588
43.5834
43.608
43.6605
43.7114
43.7801
43.8474
43.932
44.0195
44.1215
44.2241
44.338
44.4517
44.5756
44.6939
44.8203
44.9401
45.061
45.1758
45.3029
45.4258
45.5631
45.7013
45.8518
45.9977
46.159
46.3038
46.4636
46.5979
46.7494
46.8839
47.0506
47.1926
47.3768
47.5337
47.7279
47.8824
48.0757
48.2195
48.3862
48.496
48.6514
48.7198
48.8656
48.9037
49.0366
49.0375
49.1616
49.1294
49.2474
49.1912
49.3298
49.2757
49.4235
49.3921
49.5303
49.5307
49.6695
49.6992
49.8539
49.9047
50.0933
50.149
50.3796
50.4095
50.6663
50.6085
50.8544
50.5861
50.7336
50.0144
49.9291
48.2434
47.5948
43.9945
41.5311
34.8804
27.3936
18.8451
47.3822
47.3154
47.1389
46.8732
46.562
46.2605
46.0499
45.9491
45.9433
45.9962
46.0785
46.155
46.2086
46.2281
46.2181
46.1809
46.1271
46.0597
45.9874
45.9109
45.8364
45.7629
45.6959
45.6339
45.5812
45.5353
45.499
45.4682
45.4442
45.4217
45.4006
45.3752
45.3457
45.3073
45.2616
45.2052
45.1406
45.0656
44.9839
44.8949
44.8028
44.7079
44.6156
44.5261
44.4455
44.3732
44.313
44.2624
44.2225
44.1883
44.1586
44.1268
44.091
44.0458
43.9899
43.9203
43.8374
43.7405
43.6315
43.5112
43.3829
43.2479
43.1108
42.9738
42.8435
42.7234
42.6212
42.5394
42.4833
42.4527
42.45
42.471
42.513
42.5684
42.6312
42.6933
42.7495
42.7952
42.8267
42.8441
42.8467
42.8369
42.8161
42.789
42.757
42.7237
42.6909
42.6599
42.633
42.6155
42.615
42.6338
42.6748
42.7348
42.8138
42.9031
42.998
43.0932
43.1873
43.2743
43.3549
43.4248
43.4835
43.5306
43.5761
43.6175
43.6553
43.6908
43.7199
43.7454
43.7625
43.77
43.7634
43.7447
43.7194
43.6864
43.6582
43.6243
43.6038
43.5866
43.5898
43.5947
43.6251
43.6593
43.7159
43.7719
43.8433
43.9132
44.0021
44.0869
44.1898
44.2855
44.3935
44.4966
44.6121
44.7204
44.8411
44.9471
45.0612
45.1648
45.2856
45.3987
45.5355
45.6701
45.8227
45.9702
46.1299
46.2652
46.4184
46.5331
46.6786
46.7967
46.9619
47.0961
47.2858
47.442
47.6474
47.7992
48.0073
48.1342
48.3063
48.3934
48.5529
48.5882
48.7442
48.737
48.8773
48.8361
48.9635
48.8955
49.0065
48.9374
49.0649
49.0183
49.1354
49.1031
49.2037
49.1824
49.2777
49.2649
49.384
49.3727
49.5326
49.4887
49.6967
49.5776
49.8216
49.5451
49.7904
49.2031
49.3478
48.201
48.0335
45.8937
44.865
41.2386
38.0435
32.7434
25.6953
19.374
47.9731
47.8667
47.3966
46.8759
46.4134
46.0694
45.8913
45.8545
45.9132
46.0224
46.1471
46.2524
46.321
46.3457
46.3334
46.2905
46.2289
46.1554
46.0792
46.0032
45.9328
45.8676
45.8106
45.7601
45.7179
45.6816
45.6523
45.6267
45.6052
45.5842
45.5637
45.5397
45.5123
45.4779
45.4374
45.3882
45.332
45.2676
45.1975
45.1216
45.0428
44.9615
44.8813
44.8029
44.7298
44.6625
44.6033
44.5513
44.5068
44.4671
44.4307
44.3938
44.3538
44.3075
44.2529
44.1883
44.1128
44.0261
43.9291
43.8226
43.7092
43.5908
43.4711
43.3524
43.2397
43.1355
43.0457
42.972
42.9187
42.8856
42.8749
42.8842
42.91
42.9466
42.9884
43.0305
43.0678
43.097
43.115
43.1216
43.1151
43.0974
43.0691
43.0328
42.9909
42.9457
42.8995
42.8521
42.8076
42.7713
42.7562
42.7622
42.7932
42.8456
42.9195
43.0032
43.0912
43.1804
43.2664
43.3447
43.415
43.4758
43.5262
43.5695
43.6133
43.6555
43.6966
43.7384
43.773
43.8031
43.8239
43.8322
43.827
43.8071
43.7855
43.7576
43.7365
43.7137
43.7044
43.701
43.7152
43.7366
43.7778
43.8269
43.8901
43.9556
44.0305
44.1092
44.2014
44.2916
44.3956
44.4876
44.5922
44.6848
44.7946
44.8931
45.0096
45.105
45.2172
45.313
45.4291
45.5362
45.6748
45.8076
45.9692
46.1185
46.2792
46.4077
46.5509
46.6494
46.7856
46.8914
47.0521
47.1743
47.3727
47.5191
47.7385
47.8778
48.1001
48.2033
48.393
48.4466
48.6206
48.615
48.7832
48.7348
48.8806
48.7963
48.9255
48.8226
48.9312
48.8565
48.9788
48.9338
49.0454
48.9913
49.0808
49.016
49.0903
49.0064
49.1132
49.0089
49.1493
48.9875
49.1565
48.896
49.0847
48.6385
48.7784
47.9907
47.9388
46.5923
46.0901
43.9266
42.419
39.2794
35.8107
31.8044
25.7271
20.4919
48.6157
48.4122
47.5619
46.7279
46.102
45.7498
45.6596
45.7379
45.8966
46.0778
46.2452
46.3724
46.4473
46.4693
46.4485
46.396
46.3247
46.2444
46.1644
46.089
46.0221
45.9641
45.9158
45.8756
45.843
45.816
45.7937
45.7738
45.7558
45.7374
45.7181
45.6958
45.6702
45.6395
45.6036
45.5614
45.5134
45.4592
45.4
45.3363
45.2696
45.2007
45.1316
45.0632
44.9975
44.9354
44.8783
44.8262
44.7792
44.736
44.695
44.6544
44.6115
44.5648
44.5121
44.4523
44.384
44.3072
44.2218
44.1289
44.0303
43.9281
43.8248
43.723
43.6259
43.5362
43.4571
43.3914
43.3415
43.309
43.2939
43.2951
43.3089
43.33
43.3538
43.3777
43.3981
43.4134
43.4198
43.4162
43.4009
43.3747
43.337
43.2892
43.235
43.1767
43.1162
43.052
42.99
42.9362
42.9062
42.9023
42.9272
42.9776
43.0502
43.1315
43.216
43.3009
43.3793
43.4517
43.5142
43.5691
43.6164
43.6626
43.7068
43.7521
43.799
43.8465
43.8867
43.9204
43.9461
43.956
43.9526
43.9329
43.9149
43.8947
43.8841
43.879
43.8849
43.9014
43.9347
43.9793
44.0388
44.1079
44.1842
44.2622
44.3441
44.4312
44.528
44.6261
44.7291
44.8247
44.924
45.0152
45.1192
45.2147
45.3261
45.4199
45.5288
45.6236
45.7376
45.8461
45.9864
46.121
46.2873
46.4436
46.6031
46.7302
46.8587
46.9453
47.0683
47.1658
47.3195
47.4239
47.6312
47.7659
47.9898
48.1289
48.3596
48.4385
48.6461
48.673
48.8542
48.822
48.984
48.914
49.0498
48.949
49.0563
48.9389
49.037
48.9774
49.0875
49.0511
49.1472
49.0901
49.1562
49.0616
49.0952
48.9612
49.0162
48.8432
48.896
48.6565
48.7142
48.3662
48.4263
47.8744
47.8341
46.9549
46.6822
45.2818
44.5271
42.5093
40.804
38.2787
34.953
31.8332
26.7902
22.148
49.8783
49.4407
47.8104
46.4593
45.626
45.2924
45.3378
45.5817
45.8784
46.1482
46.3593
46.5024
46.5764
46.5894
46.5551
46.4896
46.4075
46.3212
46.2386
46.1651
46.1026
46.0518
46.0116
45.9806
45.9565
45.9377
45.9219
45.9076
45.8933
45.8779
45.8603
45.8401
45.8163
45.7888
45.7568
45.7204
45.6791
45.6333
45.583
45.5291
45.4722
45.4134
45.3533
45.2935
45.2345
45.178
45.1239
45.0735
45.0259
44.9814
44.9384
44.8964
44.8531
44.8079
44.7584
44.7044
44.6437
44.5769
44.5029
44.4234
44.3384
44.2507
44.1615
44.0742
43.9901
43.9128
43.8438
43.7861
43.7406
43.7098
43.6921
43.6874
43.6912
43.6997
43.7085
43.7173
43.7233
43.727
43.7237
43.711
43.6868
43.6513
43.603
43.5438
43.4781
43.4071
43.3342
43.2557
43.1782
43.1108
43.0697
43.0606
43.0842
43.137
43.2092
43.2897
43.3717
43.4527
43.5264
43.5942
43.6534
43.709
43.7592
43.8124
43.8602
43.9123
43.9654
44.0168
44.0605
44.0965
44.1253
44.1389
44.138
44.1228
44.1087
44.0994
44.1038
44.1205
44.1471
44.1903
44.2498
44.3242
44.4078
44.5008
44.5942
44.6873
44.7815
44.8789
44.983
45.0858
45.1886
45.2853
45.3809
45.4774
45.5807
45.6785
45.7892
45.8868
45.9921
46.0937
46.2039
46.318
46.464
46.5988
46.7749
46.9385
47.0958
47.217
47.3444
47.4114
47.5263
47.6148
47.7632
47.8584
48.0662
48.1932
48.4091
48.5458
48.7859
48.8506
49.0642
49.0726
49.2565
49.2119
49.3648
49.2968
49.4118
49.3027
49.3804
49.2578
49.3361
49.2986
49.4036
49.3803
49.4613
49.4027
49.4525
49.3189
49.3134
49.1333
49.1265
48.8762
48.8311
48.5059
48.4606
48.0227
47.9909
47.3342
47.1787
46.2275
45.8281
44.4535
43.5949
41.8234
40.0936
38.094
35.0741
32.4248
28.2453
24.0459
50.3861
49.8948
47.9863
46.3767
45.4003
45.0461
45.156
45.5
45.8884
46.226
46.4767
46.6363
46.709
46.7102
46.6591
46.5786
46.4853
46.3933
46.3094
46.2384
46.1807
46.1369
46.1043
46.0815
46.065
46.0533
46.0431
46.0337
46.0227
46.0101
45.9943
45.976
45.954
45.9292
45.9003
45.8685
45.8322
45.7928
45.7492
45.703
45.6536
45.6027
45.5499
45.4971
45.444
45.3924
45.3417
45.2936
45.2469
45.203
45.16
45.1188
45.0767
45.0344
44.9891
44.9412
44.8881
44.8308
44.7673
44.6996
44.6272
44.5527
44.4764
44.402
44.3303
44.2649
44.206
44.1566
44.1161
44.0875
44.0683
44.0586
44.0528
44.0497
44.0446
44.0394
44.0331
44.0273
44.0155
43.9962
43.9656
43.9233
43.8665
43.7977
43.7207
43.6388
43.5544
43.463
43.3763
43.2999
43.2537
43.244
43.271
43.3274
43.4012
43.4806
43.5617
43.64
43.7122
43.7778
43.8395
43.903
43.964
44.0262
44.0821
44.1428
44.2014
44.2539
44.2977
44.3345
44.3667
44.3842
44.3881
44.3811
44.3774
44.3852
44.4091
44.4487
44.5018
44.5748
44.666
44.774
44.886
45.0067
45.1205
45.232
45.3408
45.4483
45.5603
45.6645
45.7688
45.8654
45.9603
46.0644
46.1692
46.273
46.3878
46.4865
46.5949
46.702
46.8096
46.9336
47.0891
47.2268
47.4122
47.5867
47.7536
47.8514
48.0051
48.0345
48.1594
48.2326
48.3662
48.4669
48.6693
48.7802
49.0053
49.1251
49.3844
49.4149
49.6628
49.634
49.837
49.7543
49.9303
49.8504
49.981
49.8255
49.8954
49.769
49.8512
49.826
49.9253
49.9136
49.9878
49.9258
49.9673
49.7671
49.747
49.5143
49.4476
49.1108
49.0054
48.5736
48.4509
47.9763
47.8636
47.1987
46.9852
45.9677
45.5128
44.1957
43.2927
41.7856
40.0918
38.4325
35.7449
33.3157
29.7802
25.9938
50.6352
50.1853
48.199
46.4721
45.398
44.9819
45.0856
45.4693
45.9115
46.2957
46.5773
46.7516
46.8243
46.8162
46.7514
46.6583
46.5559
46.4596
46.3751
46.3071
46.2546
46.2175
46.1921
46.1767
46.1668
46.1608
46.1552
46.1495
46.1413
46.131
46.1171
46.1007
46.0805
46.0582
46.0322
46.0039
45.9718
45.9374
45.8994
45.8592
45.816
45.7716
45.7248
45.6778
45.6297
45.5827
45.5357
45.4906
45.4463
45.4044
45.3632
45.324
45.2848
45.2464
45.2062
45.1648
45.1194
45.0707
45.0168
44.96
44.8989
44.8362
44.7718
44.7096
44.6494
44.595
44.546
44.5051
44.4704
44.445
44.4252
44.4099
44.3943
44.3798
44.3631
44.346
44.3294
44.3162
44.2994
44.2765
44.2427
44.1965
44.1354
44.0613
43.9762
43.8832
43.7883
43.6858
43.593
43.5109
43.4642
43.4557
43.4904
43.5527
43.6315
43.7114
43.7949
43.872
43.944
44.0092
44.0783
44.1535
44.2299
44.304
44.3716
44.4393
44.5018
44.5552
44.6006
44.6398
44.6752
44.696
44.7085
44.7143
44.7272
44.7575
44.8068
44.8741
44.9572
45.0622
45.1873
45.3294
45.4746
45.623
45.7602
45.8927
46.017
46.1333
46.2495
46.3533
46.4584
46.5523
46.6522
46.7625
46.8735
46.9837
47.1071
47.2079
47.3257
47.4362
47.5493
47.6798
47.8497
47.993
48.1882
48.3695
48.5619
48.6264
48.8242
48.7975
48.9485
48.9928
49.1338
49.2222
49.4274
49.5059
49.7609
49.8486
50.1502
50.1169
50.4399
50.3241
50.6151
50.4327
50.6936
50.5795
50.7695
50.5181
50.6138
50.4485
50.5775
50.5474
50.6754
50.6431
50.7315
50.6353
50.6894
50.394
50.3932
50.1132
49.9855
49.5365
49.387
48.8689
48.757
48.2756
48.1496
47.3985
47.1838
46.0865
45.6135
44.3722
43.4423
42.1574
40.5484
39.0567
36.6728
34.362
31.2761
27.8774
50.7899
50.3628
48.3517
46.5686
45.4445
44.9892
45.084
45.4852
45.9558
46.3657
46.6643
46.8463
46.9173
46.901
46.8263
46.7251
46.6181
46.5208
46.4383
46.3743
46.3274
46.2967
46.2778
46.2684
46.2636
46.2619
46.2595
46.2562
46.25
46.2414
46.2291
46.2145
46.1964
46.1763
46.153
46.1279
46.0996
46.0695
46.0361
46.0009
45.9629
45.9236
45.8823
45.8404
45.7973
45.7548
45.7118
45.6704
45.6295
45.5908
45.5529
45.517
45.4814
45.4472
45.4124
45.3775
45.3397
45.2997
45.2557
45.2094
45.1594
45.1081
45.0557
45.0053
44.956
44.9115
44.8723
44.8398
44.8108
44.7876
44.7661
44.7445
44.7198
44.6951
44.668
44.6416
44.6181
44.5998
44.5809
44.5591
44.5273
44.4819
44.4208
44.3446
44.2557
44.1546
44.0513
43.9405
43.8445
43.7593
43.7186
43.7112
43.7548
43.8226
43.9073
43.9879
44.0777
44.1563
44.2316
44.2975
44.3789
44.4673
44.561
44.6465
44.7251
44.7969
44.8625
44.9175
44.9683
45.0124
45.0536
45.0815
45.1094
45.1307
45.1691
45.2246
45.3079
45.4037
45.5231
45.6608
45.8232
45.9955
46.1759
46.3462
46.5132
46.6632
46.8056
46.9283
47.0482
47.1462
47.2511
47.3385
47.4486
47.5595
47.6846
47.8013
47.9351
48.0431
48.1726
48.2875
48.4158
48.551
48.7401
48.8864
49.0937
49.2711
49.4943
49.534
49.7659
49.6833
49.8798
49.8735
50.058
50.099
50.3371
50.3789
50.6696
50.7157
51.0397
50.9467
51.3386
51.1569
51.5248
51.2702
51.6541
51.4781
51.7436
51.3865
51.5506
51.3118
51.5334
51.4433
51.6334
51.557
51.676
51.5491
51.6181
51.2018
51.2103
50.8803
50.6566
50.1892
50.009
49.4972
49.4306
48.8442
48.6905
47.8488
47.6868
46.5179
46.0145
44.8554
43.9151
42.7739
41.2994
39.8462
37.6932
35.4839
32.7122
29.6522
50.8478
50.4198
48.4059
46.6237
45.5053
45.0583
45.1645
45.5755
46.0517
46.4609
46.7549
46.9288
46.99
46.9641
46.883
46.7789
46.6728
46.5785
46.501
46.4428
46.4022
46.3773
46.3638
46.3585
46.3571
46.3577
46.3572
46.3554
46.3505
46.3432
46.3326
46.3197
46.3038
46.2861
46.2657
46.2436
46.2188
46.1924
46.1634
46.1327
46.0995
46.0648
46.0282
45.9909
45.9524
45.9142
45.8758
45.8388
45.8025
45.768
45.7343
45.7024
45.6714
45.6421
45.6129
45.584
45.5538
45.5224
45.4885
45.4525
45.4136
45.3737
45.3337
45.2952
45.2576
45.2237
45.1947
45.1696
45.1451
45.122
45.0977
45.0696
45.036
45
44.962
44.9275
44.8995
44.8806
44.8659
44.8505
44.8259
44.7882
44.7335
44.6603
44.5701
44.4639
44.3544
44.2403
44.1448
44.064
44.0342
44.0288
44.0811
44.1492
44.2365
44.3131
44.4105
44.4918
44.5751
44.6469
44.7487
44.8529
44.967
45.0618
45.1481
45.2149
45.2852
45.3381
45.3995
45.4509
45.5033
45.5418
45.591
45.6345
45.7079
45.7925
45.9159
46.0414
46.2027
46.3715
46.5728
46.7729
46.9903
47.1819
47.3754
47.5381
47.7003
47.827
47.952
48.0465
48.1474
48.232
48.3494
48.4599
48.5983
48.7272
48.8705
48.9916
49.1331
49.2555
49.3976
49.5382
49.7373
49.8979
50.1074
50.2782
50.5249
50.5804
50.7628
50.6602
50.937
50.845
51.0993
51.0705
51.3643
51.3845
51.6891
51.7371
52.0216
51.9085
52.3469
52.1441
52.5378
52.2761
52.7466
52.5348
52.8297
52.4085
52.6148
52.325
52.6705
52.5367
52.7736
52.6454
52.7925
52.6607
52.6373
52.1942
52.1822
51.7289
51.5279
51.0883
50.8718
50.3503
50.2133
49.5885
49.4371
48.61
48.2902
47.1932
46.6543
45.5792
44.6769
43.5547
42.2063
40.7276
38.7578
36.6531
34.1094
31.3257
50.7981
50.3617
48.3793
46.6577
45.6006
45.2106
45.3488
45.7578
46.2107
46.5888
46.8529
47.0002
47.0415
47.0044
46.9206
46.8196
46.7201
46.6337
46.5647
46.5143
46.4806
46.4611
46.4515
46.4486
46.4487
46.45
46.4501
46.4487
46.4448
46.4386
46.4296
46.4186
46.4052
46.39
46.3727
46.3538
46.3328
46.3103
46.2855
46.2591
46.2304
46.2001
46.168
46.1351
46.1015
46.0682
46.0352
46.0034
45.9723
45.9426
45.914
45.8871
45.8615
45.8379
45.815
45.7928
45.77
45.7467
45.7225
45.6973
45.6697
45.6411
45.6132
45.5868
45.5616
45.5395
45.5206
45.5024
45.4819
45.4594
45.4315
45.3954
45.3523
45.3059
45.2599
45.221
45.1917
45.1745
45.1663
45.1606
45.1478
45.1236
45.0813
45.0156
44.9274
44.822
44.7114
44.5991
44.506
44.4351
44.4166
44.4182
44.4764
44.5392
44.6219
44.696
44.8042
44.8896
44.9838
45.0683
45.1977
45.3192
45.4558
45.5568
45.6483
45.707
45.778
45.8298
45.9064
45.9621
46.0293
46.0815
46.159
46.2317
46.3455
46.463
46.6289
46.789
46.9946
47.1943
47.4342
47.658
47.905
48.1131
48.3318
48.5056
48.6869
48.8186
48.9513
49.0415
49.1448
49.2303
49.3529
49.4707
49.6237
49.7644
49.9183
50.0548
50.2032
50.3337
50.4916
50.6388
50.8395
51.0178
51.2238
51.4071
51.6377
51.7454
51.8336
51.7512
52.0486
51.8915
52.2176
52.171
52.5267
52.5305
52.8087
52.8858
53.1109
53.0324
53.4233
53.2429
53.6955
53.4941
53.9433
53.7977
53.9975
53.5733
53.8382
53.4768
53.9362
53.7587
54.0335
53.8996
54.0315
53.8618
53.7954
53.3447
53.2729
52.7299
52.575
52.1064
51.8435
51.4318
51.1798
50.7084
50.2644
49.543
49.04
48.0718
47.5034
46.4871
45.6428
44.4682
43.224
41.6784
39.8676
37.8513
35.4834
32.923
50.5949
50.154
48.275
46.6963
45.7636
45.4706
45.6431
46.0257
46.4221
46.7388
46.9488
47.0531
47.0675
47.0197
46.938
46.8462
46.7591
46.6855
46.6281
46.5872
46.5607
46.5455
46.5381
46.5356
46.5354
46.5358
46.5354
46.5338
46.5303
46.5249
46.5175
46.5084
46.4975
46.485
46.471
46.4557
46.4388
46.4203
46.4001
46.3781
46.3539
46.328
46.3004
46.2722
46.2443
46.2171
46.1901
46.1638
46.1383
46.1142
46.0912
46.0699
46.0504
46.033
46.017
46.0022
45.9882
45.9752
45.9618
45.9467
45.9297
45.9128
45.8974
45.8833
45.8708
45.8603
45.8506
45.839
45.8228
45.8006
45.7696
45.729
45.6795
45.6247
45.5714
45.5291
45.5021
45.4919
45.4942
45.5015
45.505
45.4979
45.4707
45.416
45.3331
45.2342
45.1256
45.0198
44.9345
44.8804
44.8696
44.8747
44.9325
44.9916
45.0693
45.1538
45.2742
45.3698
45.4804
45.5892
45.7425
45.8772
46.0295
46.1369
46.2328
46.2857
46.3586
46.4133
46.5015
46.565
46.6505
46.7197
46.8269
46.931
47.0832
47.2355
47.442
47.6383
47.8844
48.117
48.389
48.6364
48.9045
49.1276
49.3635
49.5469
49.7426
49.8854
50.0259
50.1185
50.2275
50.3196
50.4525
50.5796
50.7501
50.905
51.0718
51.2222
51.3676
51.5099
51.6705
51.8325
52.0309
52.2354
52.4237
52.6296
52.8335
52.9657
52.9763
53.0054
53.2122
53.0445
53.4237
53.3953
53.7725
53.7802
54.0342
54.1663
54.281
54.3207
54.5632
54.4707
54.9531
54.8846
55.2514
55.1399
55.2781
54.9151
55.1562
54.9149
55.2791
55.0788
55.3562
55.2609
55.3487
55.1591
54.974
54.5257
54.4366
53.8583
53.6796
53.2809
52.9602
52.7058
52.2302
51.9427
51.2131
50.7227
49.9203
49.1383
48.4864
47.5754
46.7628
45.5122
44.335
42.6982
41.0131
39.0471
36.8282
34.4446
50.131
49.7147
48.1009
46.7937
46.06
45.8727
46.0484
46.3637
46.6674
46.895
47.0319
47.0847
47.0717
47.0169
46.9422
46.8644
46.7938
46.7355
46.691
46.6593
46.6384
46.6257
46.6186
46.6148
46.6128
46.6115
46.6099
46.6077
46.6044
46.6
46.5941
46.587
46.5785
46.569
46.5583
46.5466
46.5337
46.5195
46.5039
46.4864
46.4668
46.4458
46.4237
46.401
46.3785
46.3573
46.3375
46.3183
46.2992
46.2806
46.2632
46.2482
46.236
46.2259
46.2174
46.2111
46.2065
46.2034
46.201
46.1981
46.1937
46.1886
46.1844
46.182
46.1812
46.1806
46.1788
46.1732
46.1613
46.1412
46.1094
46.0652
46.0117
45.9523
45.8947
45.8524
45.8321
45.8331
45.8493
45.8727
45.8939
45.904
45.8909
45.8473
45.7749
45.6879
45.5855
45.4961
45.4223
45.3853
45.3821
45.3984
45.4533
45.5036
45.5788
45.686
45.8217
45.9365
46.065
46.2087
46.3756
46.5237
46.683
46.7976
46.8946
46.9553
47.0273
47.0919
47.1886
47.2691
47.3745
47.4711
47.6053
47.7408
47.9224
48.1113
48.3448
48.5787
48.8498
49.1176
49.4074
49.679
49.9588
50.2007
50.4467
50.6434
50.8461
51.0006
51.1518
51.2515
51.3762
51.4821
51.6241
51.7688
51.947
52.1126
52.2887
52.4446
52.5887
52.7451
52.9102
53.0903
53.2959
53.528
53.699
53.9343
54.0814
54.1951
54.2207
54.3311
54.3987
54.4217
54.7175
54.7484
55.1108
55.1147
55.3331
55.4971
55.5632
55.6966
55.7668
55.9338
56.3221
56.3252
56.5746
56.4829
56.5731
56.3717
56.575
56.4827
56.6562
56.5539
56.6962
56.6487
56.6151
56.4167
56.1964
55.8597
55.6469
55.1643
54.9214
54.6001
54.1847
54.0311
53.424
53.2072
52.2138
51.9646
50.9302
50.3618
49.5691
48.8338
47.9352
46.6662
45.5172
43.8024
42.1885
40.2405
38.1598
35.9087
49.371
49.0484
47.9121
47.004
46.5108
46.4
46.5227
46.7223
46.9027
47.0267
47.0883
47.0949
47.0615
47.0054
46.9414
46.8795
46.8254
46.7814
46.7476
46.7227
46.705
46.6928
46.6843
46.6785
46.6743
46.6712
46.6685
46.666
46.6631
46.6596
46.6551
46.6497
46.6435
46.6364
46.6285
46.6203
46.6117
46.6021
46.5909
46.5779
46.5633
46.5471
46.5304
46.514
46.4981
46.4831
46.4697
46.458
46.4468
46.4352
46.4242
46.4167
46.4131
46.4119
46.4122
46.4147
46.4197
46.4266
46.4336
46.4395
46.4453
46.4526
46.4609
46.4695
46.4778
46.4847
46.4892
46.4883
46.4802
46.4627
46.4326
46.3903
46.3372
46.2775
46.2231
46.1882
46.1795
46.1938
46.2225
46.2583
46.2926
46.3154
46.3143
46.2836
46.2271
46.1599
46.0696
46.0081
45.9548
45.938
45.9393
45.9682
46.0154
46.0718
46.1572
46.2828
46.4263
46.5683
46.7232
46.9016
47.0721
47.2334
47.3878
47.514
47.6129
47.6929
47.7658
47.8499
47.9486
48.0554
48.1762
48.3106
48.4657
48.6394
48.8387
49.0636
49.3118
49.5765
49.8569
50.1506
50.4414
50.7364
51.0151
51.274
51.5194
51.7385
51.9439
52.126
52.2793
52.4093
52.5401
52.6714
52.8164
52.9828
53.155
53.3419
53.5149
53.6848
53.8332
54.0093
54.1786
54.3861
54.5934
54.835
55.0019
55.2803
55.3491
55.4899
55.4651
55.6368
55.6879
55.8973
56.0438
56.197
56.4121
56.4772
56.6808
56.8572
56.8471
57.1048
57.1103
57.5076
57.6213
57.7299
57.8327
57.8421
57.9101
57.9187
57.9834
57.9656
57.9867
58.0316
57.9996
58.0052
57.8499
57.7055
57.3639
57.2384
56.81
56.5768
56.177
55.9587
55.4755
55.3934
54.5586
54.3361
53.2868
53.1535
51.9633
51.6857
50.6796
50.0863
49.0141
47.8642
46.6625
44.9292
43.332
41.4139
39.4478
37.2826
48.5365
48.3689
47.8156
47.3444
47.0637
46.9606
46.9714
47.0277
47.0831
47.1149
47.1163
47.0907
47.0466
46.994
46.9411
46.8927
46.8514
46.8175
46.7905
46.7691
46.7524
46.7393
46.7291
46.7214
46.7156
46.7113
46.7079
46.7051
46.7026
46.6998
46.6964
46.6922
46.6876
46.683
46.6783
46.6729
46.6672
46.6615
46.655
46.6466
46.6364
46.6259
46.6155
46.6048
46.5949
46.5875
46.5825
46.5785
46.5748
46.5711
46.5694
46.5711
46.576
46.583
46.5923
46.6039
46.6174
46.6324
46.6483
46.6638
46.6778
46.6916
46.7065
46.7225
46.7375
46.7489
46.7562
46.7586
46.7543
46.7405
46.7155
46.6809
46.6375
46.5896
46.5476
46.5255
46.5296
46.5552
46.5934
46.6348
46.6735
46.7038
46.7143
46.7009
46.6653
46.6286
46.5665
46.5376
46.5039
46.5086
46.5198
46.5688
46.6096
46.6827
46.7709