/*--------------------------------*- C++ -*----------------------------------*\
| =========                 |                                                 |
| \\      /  F ield         | OpenFOAM: The Open Source CFD Toolbox           |
|  \\    /   O peration     | Version:  2.4.0                                 |
|   \\  /    A nd           | Web:      www.OpenFOAM.org                      |
|    \\/     M anipulation  |                                                 |
\*---------------------------------------------------------------------------*/
FoamFile
{
    version     2.0;
    format      ascii;
    class       volScalarField;
    location    "1.85";
    object      pPrime2Mean;
}
// * * * * * * * * * * * * * * * * * * * * * * * * * * * * * * * * * * * * * //

dimensions      [0 4 -4 0 0 0 0];

internalField   nonuniform List<scalar> 
8800
(
349699
340881
331420
322039
312786
303668
294684
285835
277120
268539
260091
251775
243589
235528
227584
219743
211972
204216
196330
187878
349712
340882
331419
322038
312786
303668
294684
285835
277120
268539
260091
251776
243590
235529
227586
219747
211981
204234
196374
188021
349719
340882
331417
322037
312785
303667
294684
285835
277120
268539
260092
251776
243591
235532
227590
219755
211997
204268
196453
188300
349726
340881
331414
322035
312785
303667
294684
285834
277120
268539
260092
251777
243593
235535
227597
219768
212021
204317
196564
188624
349731
340882
331412
322034
312784
303667
294684
285834
277120
268539
260093
251778
243595
235540
227605
219783
212051
204377
196698
188960
349734
340882
331411
322032
312783
303667
294684
285834
277120
268540
260093
251780
243598
235545
227615
219801
212086
204447
196844
189287
349737
340882
331410
322031
312783
303667
294684
285834
277120
268540
260094
251782
243601
235551
227626
219822
212125
204523
196997
189598
349740
340883
331409
322030
312782
303667
294684
285834
277120
268541
260095
251784
243605
235557
227638
219844
212168
204603
197152
189888
349741
340883
331408
322030
312782
303667
294684
285835
277120
268541
260096
251786
243608
235564
227651
219868
212212
204684
197303
190154
349742
340883
331408
322029
312782
303667
294684
285835
277121
268542
260097
251788
243612
235571
227664
219892
212256
204764
197447
190397
349742
340883
331408
322029
312782
303667
294684
285835
277121
268542
260099
251790
243616
235579
227678
219916
212299
204842
197583
190615
349741
340883
331409
322030
312782
303667
294684
285835
277122
268543
260100
251792
243620
235586
227691
219939
212342
204916
197709
190811
349740
340883
331409
322030
312783
303667
294684
285836
277122
268544
260101
251794
243624
235593
227703
219961
212381
204985
197822
190984
349737
340882
331410
322031
312783
303667
294684
285836
277122
268544
260102
251796
243628
235599
227715
219982
212417
205047
197923
191134
349734
340882
331411
322033
312784
303667
294684
285836
277123
268545
260103
251798
243631
235605
227725
220000
212449
205101
198011
191262
349730
340882
331412
322034
312784
303667
294685
285836
277123
268546
260104
251800
243634
235610
227734
220016
212477
205148
198084
191368
349725
340882
331414
322036
312785
303668
294685
285837
277124
268546
260105
251801
243636
235614
227741
220030
212500
205186
198143
191453
349719
340882
331417
322037
312786
303668
294685
285837
277124
268547
260106
251802
243638
235617
227747
220040
212517
205214
198188
191516
349712
340882
331419
322039
312787
303668
294685
285837
277124
268547
260106
251803
243639
235619
227751
220047
212529
205234
198218
191557
349699
340881
331420
322039
312787
303669
294685
285837
277124
268547
260106
251803
243640
235620
227753
220050
212535
205243
198233
191578
180217
178154
176580
175219
173957
172757
171599
170474
169374
168294
167230
166179
165139
164109
163088
162074
161066
160063
159065
158071
157081
156095
155114
154137
153164
152195
151230
150268
149309
148354
147402
146454
145510
144571
143637
142708
141784
140864
139948
139037
138128
137222
136319
135419
134521
133626
132733
131845
130959
130077
129198
128322
127448
126577
125708
124842
123980
123120
122264
121411
120560
119712
118865
118021
117179
116340
115504
114672
113843
113017
112193
111372
110553
109736
108920
108106
107295
106486
105680
104878
104081
103288
102501
101717
100938
100162
99390.2
98621.3
97855.6
97092.9
96332.9
95575.4
94819.9
94066.5
93314.9
92565.5
91818.1
91073.2
90330.5
89590.8
88853.9
88120.9
87391.3
86666.1
85944.8
85228.3
84516
83808.6
83105.2
82406.5
81711.5
81020.9
80333.8
79650.5
78970
78292.5
77617.1
76944.4
76273.9
75606.5
74941.7
74280.4
73621.4
72965.5
72311
71659.8
71009.5
70362.6
69716.9
69074.1
68432.4
67793
67154.8
66518.3
65883.6
65250.9
64620.5
63992.5
63367.2
62745.3
62126.4
61511.1
60898.9
60290.3
59684.8
59082.4
58483.2
57887
57293.5
56702.9
56114.7
55529.1
54945.5
54364.1
53784.8
53207.7
52632.7
52061
51492
50926.5
50363.9
49805.6
49250.5
48700.6
48154.1
47613.4
47076.1
46545.2
46018
45498.3
44981
44472.6
43964.1
43466.3
42966.2
42478.3
41986.1
41507.5
41022.4
40551.4
40073.6
39609.1
39137.9
38676.6
38210
37747.9
37281.1
36814.7
36340.7
35863.4
35374.2
34876.5
34360.7
33829.3
33270
32684.5
32055.6
31370.8
30642
29752.6
181687
179489
177696
176153
174756
173451
172209
171013
169853
168721
167612
166522
165448
164387
163338
162299
161269
160246
159230
158220
157215
156216
155223
154235
153253
152275
151301
150332
149367
148406
147449
146496
145548
144605
143667
142734
141806
140883
139964
139049
138138
137229
136324
135421
134522
133625
132732
131842
130955
130072
129192
128314
127440
126568
125699
124833
123970
123111
122254
121401
120549
119701
118854
118010
117169
116330
115494
114661
113831
113005
112181
111360
110541
109723
108908
108095
107284
106477
105672
104872
104076
103285
102499
101717
100939
100165
99394.4
98626.9
97862.6
97101.1
96342.3
95585.7
94831
94078.3
93327.3
92578.4
91831.3
91086.8
90344.5
89605.1
88868.8
88136.1
87406.9
86682
85961.2
85244.7
84532.6
83824.9
83121.6
82422.6
81727.8
81037
80349.9
79666.2
78985.4
78307.2
77631.4
76958.1
76287.4
75620.1
74955.7
74295
73636.7
72981.5
72328
71677.3
71028
70381.3
69736.1
69093.1
68451.7
67811.8
67173.6
66537
65902.4
65270.1
64640.1
64013
63388.6
62767.7
62150
61535.8
60925.2
60317.7
59713.6
59112.5
58514.6
57919.5
57327.2
56737.3
56150.2
55565.4
54982.4
54401.2
53821.8
53244.3
52668.8
52096.1
51526
50958.8
50394.9
49834.9
49278
48725.8
48176.7
47632.4
47091.7
46556.5
46024.5
45499.5
44976.3
44461.2
43945.7
43439.6
42931.4
42434.2
41933
41443.1
40948.3
40464
39975.8
39495.3
39012.7
38533.5
38053.4
37572.6
37089.4
36602.7
36110.5
35610.2
35099.8
34574.7
34033.2
33467.1
32875.8
32238.3
31576.5
30795.4
30010.2
29133.3
182706
180525
178650
176997
175500
174108
172792
171533
170318
169137
167985
166857
165749
164659
163583
162519
161467
160425
159391
158365
157347
156335
155330
154332
153339
152353
151371
150395
149423
148457
147494
146537
145585
144638
143696
142759
141828
140901
139979
139061
138146
137235
136327
135423
134522
133624
132729
131837
130949
130065
129184
128306
127430
126558
125689
124823
123959
123100
122243
121389
120538
119689
118843
117999
117158
116319
115483
114650
113821
112994
112170
111348
110529
109712
108897
108085
107276
106469
105666
104867
104073
103284
102499
101719
100943
100170
99400.8
98634.8
97872
97111.9
96354.2
95598.6
94844.8
94092.7
93342.5
92594
91847.6
91103.5
90361.8
89623.1
88887.5
88155.3
87426.9
86702.3
85981.9
85265.3
84553.3
83845.4
83142
82442.8
81747.9
81056.8
80369.4
79685.1
79003.7
78324.6
77648.1
76974.3
76303.7
75636.7
74973.1
74312.8
73655.5
73000.9
72348.5
71698.3
71050
70403.5
69758.8
69115.4
68473.8
67833.4
67195
66558.2
65923.7
65291.7
64662.3
64035.9
63412.6
62792.7
62176.4
61563.6
60954.5
60348.7
59746.1
59146.5
58549.9
57955.8
57364.6
56775.7
56189.6
55605.4
55022.9
54441.8
53862.2
53283.9
52707.8
52133.7
51562.3
50993.4
50428
49866.2
49307.6
48752.9
48201.4
47653.6
47109.5
46570.1
46033.3
45502.8
44973.5
44451.1
43928.2
43413.3
42896.9
42389.1
41879.5
41377.3
40874
40375.5
39877.7
39381.5
38887.5
38391.4
37897.6
37398.5
36900.2
36392.8
35885
35361.5
34834.2
34281
33721.6
33117.8
32512.1
31819.9
31147.7
30322.9
29510.1
28672.7
183483
181360
179460
177747
176180
174720
173342
172027
170762
169537
168345
167181
166042
164922
163820
162734
161661
160599
159549
158507
157475
156451
155435
154426
153424
152429
151439
150456
149478
148506
147539
146577
145620
144669
143724
142784
141848
140918
139992
139071
138154
137240
136331
135424
134521
133622
132725
131833
130944
130058
129176
128297
127421
126548
125678
124812
123948
123088
122231
121377
120526
119677
118831
117988
117147
116308
115473
114640
113811
112984
112160
111338
110519
109703
108889
108077
107269
106463
105662
104864
104072
103284
102501
101723
100948
100177
99409.4
98645
97883.7
97125
96368.4
95613.8
94860.8
94109.4
93359.9
92612.1
91866.4
91122.9
90382.2
89644.3
88909.7
88178.2
87450.4
86726.1
86005.8
85289.2
84577.1
83868.9
83165.3
82465.7
81770.6
81078.9
80391
79705.8
79023.5
78343.3
77666.2
76992
76321.7
75654.9
74992.2
74332.6
73676.2
73022.3
72371
71721.3
71073.7
70427.6
69783
69139.2
68497.3
67856.3
67217.6
66580.6
65946.3
65314.5
64685.7
64059.9
63437.8
62819
62204
61592.7
60985.2
60380.9
59780
59181.7
58586.7
57993.6
57403.7
56815.8
56230.8
55647
55064.8
54483.5
53903.7
53324.3
52747.1
52171.3
51598.1
51027.7
50461.2
49897.2
49337.1
48779.8
48226.1
47675
47127.9
46584.1
46043
45506.4
44971.4
44441
43911
43386.1
42862.3
42343.3
41825.8
41311.4
40799.4
40287.7
39779.8
39269
38763
38250.8
37744.1
37226.7
36715.9
36187.1
35667.4
35118.4
34581.1
33996.2
33430.3
32785.9
32176.1
31444.1
30751.4
29941
29131.7
28327.7
184110
182044
180148
178406
176793
175283
173854
172492
171182
169917
168689
167492
166323
165176
164050
162941
161848
160768
159701
158645
157600
156563
155536
154517
153506
152503
151506
150516
149532
148554
147582
146616
145656
144701
143751
142807
141869
140935
140006
139082
138162
137246
136334
135426
134521
133620
132723
131829
130939
130052
129169
128289
127412
126539
125669
124802
123938
123078
122221
121366
120515
119667
118821
117978
117137
116299
115464
114632
113802
112976
112152
111330
110511
109695
108882
108071
107263
106459
105659
104864
104073
103287
102505
101728
100955
100186
99419.6
98656.8
97897.1
97139.6
96384.4
95630.6
94878.6
94128
93379.3
92632.1
91887.3
91144.7
90405
89668
88934.3
88203.3
87476
86751.8
86031.6
85314.8
84602.3
83893.8
83190
82490
81794.4
81102.1
80413.5
79727.2
79044
78362.9
77685.2
77010.6
76340.4
75673.8
75011.7
74352.7
73697.3
73043.9
72393.3
71744.1
71097.2
70451.2
69806.6
69162.4
68520
67878.6
67239.8
66602.7
65968.7
65337.1
64708.9
64083.7
63462.8
62844.8
62231.2
61621.1
61015.2
60412.2
59813
59215.9
58622.5
58030.8
57442.2
56855.3
56271.5
55687.5
55105.7
54523.8
53943.7
53362.8
52784.8
52206.8
51632.1
51059.6
50492.3
49925.8
49364.6
48804.5
48248.7
47694.7
47144.7
46596.6
46051.3
45508.6
44968.1
44429.3
43892.7
43357.9
42826.7
42297.3
41771.7
41246.1
40725.3
40201.1
39683.2
39158.2
38641.6
38112.8
37596
37058.9
36538.5
35987.6
35459.2
34884.7
34339.8
33726.7
33151.6
32481.8
31853.7
31119.3
30402.3
29629.5
28841.9
28059.4
184638
182621
180738
178984
177342
175795
174326
172924
171576
170276
169015
167788
166591
165419
164270
163140
162028
160932
159849
158779
157720
156673
155635
154607
153587
152575
151572
150575
149586
148603
147626
146655
145691
144732
143779
142832
141890
140953
140021
139094
138172
137253
136339
135429
134523
133620
132721
131826
130935
130047
129163
128283
127406
126532
125661
124794
123931
123070
122212
121358
120507
119658
118813
117970
117130
116292
115458
114626
113796
112970
112145
111324
110505
109689
108876
108066
107260
106457
105658
104864
104075
103290
102510
101734
100963
100195
99430.7
98669.5
97911.4
97155.4
96401.5
95648.8
94897.8
94148.3
93400.3
92653.9
91909.9
91168.2
90429.3
89693
88959.9
88229.3
87502.3
86778
86057.4
85340.3
84627.5
83918.6
83214.4
82514
81817.9
81124.9
80435.5
79748.5
79064.5
78382.6
77704.3
77029.2
76358.7
75692
75030.1
74371.3
73716.3
73063.3
72413.3
71764.6
71118.1
70472.1
69827.5
69182.9
68540.2
67898.5
67259.7
66622.6
65988.8
65357.5
64729.7
64105
63484.8
62867.7
62255.6
61646.9
61042.6
60440.8
59843.1
59247.2
58655.2
58064.7
57477.4
56891.6
56308.5
55724.1
55142.5
54559.8
53979.4
53397
52818.4
52238.2
51662.8
51088.5
50519.7
49950.8
49388.3
48825.6
48267.9
47710.7
47158
46605.7
46056.5
45507.5
44961.9
44414.6
43871.8
43327.9
42789.7
42250.4
41717.5
41180.8
40652.3
40115.7
39588.9
39049.8
38524.3
37979.9
37453.1
36899.7
36368.2
35800.9
35260.1
34669.6
34108.9
33482.4
32887.2
32213.9
31563.4
30846.3
30122.8
29378.1
28610.3
27840.1
185090
183115
181249
179490
177830
176257
174757
173322
171943
170612
169322
168068
166845
165651
164480
163331
162201
161088
159991
158908
157837
156779
155731
154693
153666
152647
151636
150633
149638
148650
147669
146694
145726
144764
143807
142857
141912
140972
140037
139108
138183
137262
136346
135434
134526
133623
132723
131826
130934
130046
129161
128279
127402
126528
125657
124790
123925
123065
122207
121353
120501
119653
118807
117965
117125
116287
115453
114621
113791
112965
112141
111319
110501
109685
108872
108063
107257
106455
105658
104865
104078
103294
102516
101741
100971
100205
99442.1
98682.5
97926
97171.7
96419.1
95667.7
94917.8
94169
93421.8
92676
91932.7
91191.6
90453.3
89717.3
88984.3
88254.1
87526.9
86802.3
86081.5
85364
84650.9
83941.6
83237.1
82536.1
81839.3
81145.8
80455.9
79768.2
79083.5
78401
77721.9
77046.1
76375.1
75707.8
75045.4
74386.3
73731.1
73078.2
72428.5
71780.2
71134.3
70488.5
69844.1
69199.2
68556.4
67914.6
67275.6
66638.5
66004.8
65373.7
64746
64121.8
63502
62886.2
62275.5
61668.4
61065.7
60465.5
59869.1
59273.9
58683.1
58093.3
57507.2
56921.9
56339.2
55754.3
55173
54589.5
54008.5
53425.1
52845.5
52263.3
51687
51111.7
50541
49970.3
49406
48840.8
48281.1
47721
47165.5
46609.3
46056.3
45502
44950.4
44396.3
43846.6
43295.4
42749.6
42202.1
41661.4
41115.9
40579
40032.9
39495.7
38947.1
38409.2
37855.4
37314.5
36751.6
36205
35629.4
35071.7
34475.2
33896.5
33266.8
32654.4
31986.7
31324.7
30625.4
29905.4
29175.1
28417.9
27654.9
185482
183541
181692
179934
178263
176671
175148
173687
172281
170923
169608
168330
167085
165869
164679
163512
162366
161238
160127
159031
157949
156880
155823
154777
153742
152716
151699
150690
149690
148697
147711
146733
145761
144795
143835
142882
141934
140992
140055
139123
138196
137273
136355
135442
134532
133627
132726
131829
130936
130046
129161
128279
127401
126526
125655
124787
123923
123062
122204
121350
120498
119649
118804
117961
117121
116283
115449
114617
113787
112960
112136
111315
110497
109681
108869
108061
107256
106455
105659
104867
104081
103299
102521
101748
100979
100214
99453
98694.8
97940
97187.2
96436.1
95685.9
94937
94188.9
93442.1
92696.8
91953.8
91213
90474.7
89738.7
89005.5
88275.2
87547.9
86823.1
86102
85384.2
84670.7
83961
83255.8
82554.2
81857
81163
80472.5
79784.4
79099.1
78416.1
77736.4
77059.8
76387.9
75719.7
75056.2
74396.1
73740.2
73087
72437.2
71789.1
71143.6
70498.2
69854
69209.3
68566.6
67924.8
67285.9
66648.7
66014.8
65383.7
64756.3
64132.7
63513.8
62899.3
62290.2
61684.9
61083.4
60485.3
59889.4
59295.3
58705.2
58115.7
57530
56945
56362.5
55776.6
55195.4
54611.4
54029.5
53445.5
52864.9
52281.6
51703.8
51127.3
50554.1
49982.6
49415.4
48848.4
48286.2
47724.2
47165.9
46606.7
46049.7
45491.6
44934
44374.8
43817.6
43260.2
42707.6
42153.3
41604.7
41053
40506.8
39954.2
39406
38851
38300.2
37739.8
37185.4
36616.2
36055.6
35475.8
34904.3
34304.7
33713
33084.1
32461.7
31802.4
31135.4
30448.3
29731.1
29005.8
28254.3
27496.8
185828
183913
182080
180325
178647
177041
175500
174018
172590
171209
169872
168573
167307
166073
164865
163682
162520
161379
160255
159148
158056
156977
155911
154857
153814
152782
151759
150745
149739
148742
147752
146770
145794
144826
143863
142907
141956
141012
140072
139138
138209
137285
136365
135450
134540
133633
132731
131833
130939
130049
129163
128280
127401
126526
125655
124787
123922
123061
122202
121347
120496
119647
118800
117957
117117
116279
115444
114612
113783
112956
112132
111311
110493
109678
108867
108059
107255
106455
105660
104869
104084
103302
102526
101754
100987
100223
99462.7
98705.9
97952.4
97201.1
96451.4
95702.2
94953.9
94206.2
93459.7
92714.4
91971.3
91230.2
90491.5
89755
89021.6
88291.1
87563.5
86838.5
86117
85398.9
84684.9
83974.7
83268.8
82566.7
81868.9
81174.4
80483.3
79794.8
79109.1
78425.6
77745.1
77067.9
76394.8
75725.5
75060.6
74399.2
73742.4
73088.4
72438.1
71790.2
71144.8
70500
69856
69211.9
68569.6
67928.1
67289.5
66652.2
66018.4
65387.5
64760.5
64137.8
63520
62906.6
62299.3
61695.5
61095.3
60498.8
59903.6
59310.4
58720.6
58131.4
57545.2
56960.5
56377
55790.8
55209.5
54624.5
54041.4
53457.7
52875.3
52292.1
51712.8
51136.8
50559.3
49987.7
49416.7
48848.8
48282.4
47720.8
47158.4
46598.6
46036.5
45476.7
44911.8
44349
43785.2
43222.8
42663.7
42105
41548.1
40994.3
40437.1
39881.2
39322.9
38762.5
38201.2
37635.9
37069.8
36497
35925.5
35343.6
34762.3
34162.6
33561.9
32936.2
32306.5
31654.9
30983.3
30301.7
29585.9
28861.8
28115.5
27363.4
186132
184239
182419
180668
178986
177370
175815
174316
172870
171470
170114
168796
167513
166261
165038
163840
162665
161511
160375
159257
158155
157068
155994
154932
153883
152844
151815
150796
149786
148785
147791
146805
145827
144855
143890
142931
141978
141031
140090
139154
138223
137297
136376
135460
134548
133641
132737
131838
130943
130052
129165
128282
127403
126527
125655
124787
123921
123059
122201
121345
120493
119644
118797
117954
117113
116275
115439
114607
113777
112951
112127
111306
110489
109675
108864
108057
107254
106455
105661
104871
104086
103305
102530
101759
100992
100229
99470.3
98714.8
97962.8
97212.7
96463.9
95715.3
94967.3
94219.6
93472.7
92726.9
91983.3
91241.5
90502.2
89765.1
89031.3
88300.5
87572.6
86847.2
86125.3
85406.7
84692.1
83981.1
83274.4
82571.6
81873.1
81178.1
80486.5
79797.4
79111.2
78427.2
77746.2
77068.3
76394.4
75724
75058
74395.3
73737
73081.8
72430.9
71782.6
71137.4
70493.2
69849.9
69207
68565.2
67924.4
67286.2
66649.3
66016
65385.7
64759.6
64138
63521.5
62909.4
62303.4
61700.8
61101.4
60505.7
59911.2
59318.5
58728.8
58139
57552.7
56968.2
56382
55798
55214.4
54629.3
54044.9
53462
52877.1
52294.2
51713.3
51139.5
50556.8
49986.9
49409.1
48843.9
48270.9
47711.5
47143.6
46585.3
46016.9
45457.5
44884.4
44319.4
43749.4
43184.4
42618.8
42059.4
41493.5
40940.8
40373.4
39815.1
39249.6
38685.1
38115.9
37547.4
36971.2
36395.7
35815.9
35234
34644.7
34047.9
33438.2
32816.7
32178.9
31531.8
30855.9
30175.1
29461.8
28739.6
27999.4
27252.9
186400
184524
182715
180968
179284
177661
176095
174583
173121
171706
170334
169000
167701
166434
165197
163986
162798
161632
160487
159359
158248
157152
156071
155003
153947
152902
151868
150845
149830
148825
147828
146839
145857
144883
143915
142954
141999
141050
140107
139169
138237
137310
136388
135470
134557
133648
132744
131844
130948
130056
129168
128285
127405
126528
125655
124786
123920
123058
122199
121343
120490
119640
118793
117949
117108
116270
115434
114601
113772
112945
112121
111301
110484
109671
108861
108055
107253
106455
105661
104871
104087
103307
102531
101761
100995
100233
99474.9
98720.5
97969.8
97220.5
96472.5
95723.9
94975.7
94227.5
93479.9
92733.1
91988.6
91246
90505.8
89768
89033.8
88302.7
87574.6
86848.7
86126.1
85406.7
84691.1
83979.3
83271.9
82568.4
81869.4
81173.6
80481.3
79791.6
79105
78420.6
77739.2
77060.8
76386.1
75714.9
75047.7
74383.9
73724.2
73067.9
72415.9
71767.2
71122
70478
69835.9
69194.2
68553.6
67914.2
67276.9
66641
66008.7
65379.4
64754.5
64134
63519
62908.1
62302.8
61701.2
61101.9
60505.9
59912.5
59318.7
58729.2
58138.8
57552.2
56967.2
56379.1
55797.1
55210.1
54626.8
54040.7
53457.9
52872.2
52289.9
51707.4
51133.8
50548.4
49979.7
49394.6
48832
48252.1
47695.1
47121.6
46566.6
45991
45433.1
44852.4
44287.8
43712.4
43146.5
42575.1
42015.6
41442.2
40891.8
40317
39757
39187.2
38617
38043.3
37472.9
36888.1
36314.8
35727.4
35147.4
34547.2
33953.8
33334.6
32715.2
32070.2
31423.5
30746.2
30065.6
29356.1
28637.8
27904.6
27163.9
186635
184773
182972
181229
179545
177916
176342
174819
173345
171917
170530
169183
167871
166591
165341
164118
162920
161744
160588
159452
158333
157230
156141
155067
154005
152956
151917
150889
149871
148862
147862
146870
145886
144909
143939
142976
142019
141068
140124
139184
138251
137322
136398
135479
134565
133656
132750
131849
130952
130060
129171
128286
127406
126529
125655
124785
123919
123056
122196
121340
120486
119636
118789
117944
117103
116264
115428
114595
113766
112939
112116
111296
110480
109667
108859
108054
107252
106455
105661
104872
104087
103307
102531
101760
100994
100233
99475.9
98722.3
97972.2
97223.1
96475.4
95726.3
94977.9
94228.9
93480.5
92732.3
91987.1
91243.4
90502.4
89763.7
89029.3
88297.7
87569.3
86842.7
86119.5
85399
84682.7
83970.1
83262.1
82558
81858.5
81162
80469.1
79778.6
79091.8
78406.9
77725.3
77046.4
76371.3
75699
75031
74365.9
73705.2
73047.8
72395.1
71745.9
71100.6
70456.9
69815.8
69175.2
68536.5
67898.6
67262.9
66628.5
65997.5
65368.8
64745.2
64125.4
63511.6
62901.5
62297.2
61696.2
61097.7
60500.6
59908.2
59312.7
58722.6
58130.5
57544.3
56957.2
56368.5
55787
55198.8
54617.1
54029.8
53447.2
52861.2
52278.4
51696.7
51122.3
50536.4
49964.8
49377.2
48814.3
48229.9
47672.7
47095.4
46542.2
45962.5
45404.8
44819
44253.6
43675.4
43108.7
42533.6
41971.8
41397.1
40845.3
40266
39707.4
39131.8
38558.8
37981
37408.5
36821.7
36248.5
35653.4
35074.5
34466.1
33870.9
33245.4
32624
31975.3
31328.6
30651.8
29973.4
29268.5
28555.6
27829.7
27095
186839
184988
183195
181455
179770
178138
176557
175026
173542
172102
170705
169346
168022
166731
165470
164237
163029
161844
160680
159536
158409
157300
156205
155125
154059
153005
151962
150930
149909
148897
147893
146899
145912
144933
143961
142996
142037
141085
140139
139198
138263
137333
136408
135488
134573
133662
132756
131854
130956
130062
129173
128287
127406
126528
125654
124783
123917
123053
122193
121336
120482
119631
118783
117939
117097
116258
115423
114590
113760
112934
112111
111292
110476
109664
108857
108052
107252
106454
105661
104871
104086
103305
102529
101758
100991
100230
99472.6
98719.2
97968.9
97219.5
96471.2
95721.4
94972.5
94222.6
93473.4
92724.4
91978.6
91233.8
90492.3
89752.9
89018.4
88286
87557.2
86829.9
86106.3
85384.7
84668.1
83954.7
83246.4
82541.8
81841.9
81144.7
80451.3
79760.1
79073.1
78387.8
77706.3
77026.9
76351.5
75678.4
75009.8
74343.4
73682.1
73023.8
72370.9
71721.1
71075.9
70432.4
69792.2
69152.7
68515.9
67879.6
67245.8
66612.5
65982.8
65355
64732.4
64112.8
63499.6
62890.3
62286.7
61685.9
61088.3
60490.5
59898.2
59300.4
58708.9
58114.7
57527.8
56938.1
56352.2
55768.3
55182
54598.9
54011.6
53429.9
52845
52260.5
51682
51104.4
50519.8
49945.7
49356.7
48790
48204.6
47642.5
47066.3
46511.8
45929.7
45375.4
44785.5
44219.6
43637.9
43068.6
42492
41928.4
41353.5
40800.6
40221.6
39665.1
39084.6
38510.1
37929.4
37353.2
36767
36186.7
35593.5
35009.2
34395.2
33795.9
33167.3
32542.8
31894.5
31247.8
30572.9
29898.8
29198.7
28491.7
27772.7
27043.8
187014
185172
183385
181648
179963
178328
176742
175204
173712
172264
170857
169488
168155
166854
165584
164342
163125
161932
160761
159610
158477
157362
156262
155177
154106
153048
152002
150967
149942
148927
147922
146925
145936
144955
143981
143014
142054
141100
140152
139211
138274
137343
136417
135496
134579
133667
132760
131857
130958
130064
129174
128287
127405
126526
125652
124781
123913
123049
122189
121331
120477
119626
118778
117933
117092
116253
115417
114584
113755
112929
112107
111288
110473
109662
108855
108051
107251
106454
105660
104870
104084
103302
102525
101752
100985
100223
99465.1
98711.1
97959.6
97209.5
96460.2
95709.8
94960.4
94209.7
93459.6
92710
91963.8
91218.4
90476.5
89736.8
89002.2
88269.2
87540.2
86812.2
86088.3
85366.1
84649.4
83935.4
83227
82521.8
81821.5
81123.8
80429.9
79738.3
79051.2
78365.9
77684.7
77004.9
76329.2
75655.2
74985.9
74318.6
73656.9
72998
72345
71695.1
71050.3
70407.1
69767.6
69129.1
68493.8
67859.2
67226.8
66594.7
65965.9
65338.7
64716.5
64097.3
63484.6
62875.5
62272.7
61671.7
61074.6
60476
59882.6
59283.3
58689.4
58093.3
57505.2
56911.9
56329.7
55744.4
55159.9
54574.4
53989.9
53406.6
52824.7
52237.2
51664.2
51080.5
50500.5
49924.9
49336.8
48760.6
48177.5
47610.3
47033.7
46477.4
45896.8
45335.2
44750.8
44184.4
43599.7
43025.9
42452.2
41884.8
41315.7
40761.7
40180.8
39626.7
39044.6
38467.7
37886.6
37305.8
36721.8
36132.7
35540.6
34945.2
34334.3
33727.8
33100.6
32472.5
31828.3
31181.5
30510.1
29840.1
29144.8
28444
27730.6
27007.4
187163
185328
183545
181810
180125
178487
176898
175354
173856
172401
170987
169610
168269
166960
165682
164432
163208
162009
160831
159674
158536
157416
156312
155223
154148
153086
152037
150999
149971
148954
147946
146947
145956
144974
143998
143030
142068
141113
140164
139221
138283
137351
136424
135502
134584
133672
132763
131859
130960
130064
129173
128286
127403
126524
125649
124777
123909
123045
122184
121326
120472
119621
118773
117928
117086
116247
115412
114579
113750
112924
112102
111284
110469
109659
108852
108049
107249
106451
105657
104866
104079
103297
102518
101745
100976
100213
99453.9
98698.8
97945.7
97194.4
96444.1
95693.5
94943.4
94191.9
93440.9
92691.3
91944.5
91198.7
90456.4
89717.3
88982.6
88249.5
87520.2
86792.1
86067.6
85345.6
84628.5
83914.4
83205.9
82500.2
81799.4
81101.1
80406.9
79715.5
79028.1
78343.2
77661.9
76982.6
76306.5
75632.1
74961.7
74293.9
73631.5
72972.3
72319.5
71669.9
71025.5
70382.9
69743.8
69106.1
68471.8
67838.2
67206.5
66575.7
65947.6
65321
64699.1
64080.6
63468.2
62859.5
62256.8
61654.6
61057.1
60457.2
59861.8
59261
58666.3
58070.1
57478.2
56885.1
56303.2
55714.9
55134.5
54546.5
53963.8
53380.4
52803.3
52215
51642.7
51054.8
50482.2
49895.6
49309.4
48728.5
48153.1
47582.9
47005.7
46441.1
45861.1
45291.3
44714.9
44142.4
43561.6
42985.2
42417.3
41846.3
41280.2
40719.3
40146.5
39587.3
39007.6
38429.7
37851.8
37266.4
36678.9
36085
35493
34888.8
34280.2
33668.1
33047.9
32416.3
31777.4
31129.4
30462.8
29794.3
29105.1
28409.4
27700.3
26982.6
187286
185457
183677
181943
180257
178618
177025
175478
173976
172515
171094
169711
168363
167049
165764
164508
163278
162073
160890
159728
158586
157461
156353
155261
154183
153118
152066
151026
149996
148977
147967
146966
145974
144989
144013
143043
142080
141124
140174
139229
138291
137358
136429
135506
134588
133674
132765
131860
130960
130064
129172
128284
127401
126521
125645
124773
123905
123041
122180
121322
120467
119616
118768
117923
117081
116242
115407
114574
113745
112920
112098
111279
110465
109655
108848
108045
107245
106447
105652
104860
104073
103289
102510
101736
100966
100201
99440.2
98683.6
97928.7
97176.1
96424.4
95673.5
94922.3
94170.8
93419.5
92670.1
91922.5
91177.1
90435
89696.8
88961.7
88229.1
87499.5
86771.8
86047
85325.3
84607.3
83893.5
83184.3
82478.7
81777
81078.7
80383.8
79692.9
79005.3
78321.5
77640.2
76962.1
76285.4
75611.4
74939.8
74272.2
73608.8
72949.8
72296.7
71648
71003.3
70361.6
69722.1
69085.4
68451.1
67818.2
67186.5
66556.9
65928.5
65302.9
64680.9
64063.2
63450.6
62842.1
62237.9
61634.8
61035.3
60434.4
59836.5
59235.6
58639.4
58043.5
57453.2
56860.8
56274.6
55686.9
55106
54517.5
53939.1
53354.2
52777.8
52191.5
51619.9
51030
50454.5
49860.5
49284.7
48700.1
48128.4
47554.4
46975.5
46400.1
45824.8
45252.5
44678.8
44098.6
43526.9
42950.6
42384
41812.3
41250.7
40681.2
40117.6
39545.1
38974.9
38396.4
37818.8
37229.6
36642.3
36045.9
35447.5
34842.5
34237.2
33623.8
33006.4
32376.5
31739.9
31091.7
30429.9
29760.3
29077.2
28384.4
27679.2
26966.9
187385
185559
183780
182047
180360
178720
177126
175577
174071
172606
171180
169792
168439
167119
165830
164569
163334
162124
160938
159772
158626
157498
156387
155292
154211
153144
152090
151048
150016
148995
147984
146981
145988
145002
144024
143053
142089
141132
140181
139236
138296
137362
136433
135509
134590
133676
132766
131860
130959
130063
129170
128282
127398
126518
125642
124770
123902
123037
122176
121318
120463
119612
118764
117919
117077
116238
115402
114570
113741
112915
112093
111275
110460
109650
108843
108040
107239
106440
105645
104853
104065
103281
102501
101726
100955
100189
99426
98667.8
97911
97157.1
96403.9
95652.2
94899.9
94148.7
93397.4
92648.6
91900.7
91156.4
90414.3
89677
88941.6
88209.8
87479.8
86752.6
86027.4
85306.2
84587.7
83874.4
83164.3
82459
81756.5
81058.6
80363.1
79672.9
78985
78302.1
77621.2
76944.3
76267.5
75594
74921.9
74254.5
73590.3
72931.8
72278.4
71630.3
70985.1
70343.9
69703.8
69067.9
68432.7
67800.2
67168.2
66539.1
65910.2
65285.5
64663.3
64046.2
63432.3
62823.4
62216.9
61612.8
61010.6
60409.2
59808.8
59209.7
58612.4
58019.8
57427.1
56835.5
56248.2
55661.1
55076.1
54491.9
53913.1
53326.9
52751.1
52166.9
51592.2
51000.9
50424.6
49835.4
49262.4
48669.4
48101.3
47517.8
46941.9
46368.5
45794.6
45215.5
44643.3
44061.7
43494.8
42917
42355.9
41785.4
41223.9
40648
40088
39507.8
38943.7
38363.6
37791.2
37198.4
36611.9
36012.1
35413.8
34811.3
34203.5
33593.2
32976
32351
31712.2
31066.9
30406.5
29737.5
29057.8
28366.6
27665.3
26956.8
187459
185636
183857
182124
180437
178797
177201
175650
174141
172674
171245
169853
168496
167172
165879
164614
163376
162163
160973
159805
158656
157525
156412
155315
154232
153164
152108
151064
150031
149009
147996
146992
145998
145011
144032
143061
142096
141138
140186
139240
138300
137365
136436
135511
134592
133677
132766
131860
130959
130062
129169
128281
127397
126516
125640
124768
123899
123034
122173
121315
120460
119608
118760
117915
117073
116234
115398
114565
113736
112911
112089
111270
110456
109645
108837
108033
107232
106433
105638
104845
104057
103273
102493
101716
100945
100177
99413.1
98653.2
97894.8
97140.1
96385.3
95633.5
94880.1
94129.6
93378
92630
91881.8
91138.9
90396.4
89660
88924
88193.3
87462.5
86736.6
86010.7
85290.6
84571.5
83858.8
83148
82443.3
81740.1
81042.9
80346.9
79657.5
78969.6
78287.6
77606.5
76930.6
76254
75581.9
74909.8
74243.6
73578.5
72920.6
72265.8
71617.7
70971.4
70330.8
69690.3
69055
68418.6
67786.1