/*--------------------------------*- C++ -*----------------------------------*\
| =========                 |                                                 |
| \\      /  F ield         | OpenFOAM: The Open Source CFD Toolbox           |
|  \\    /   O peration     | Version:  2.4.0                                 |
|   \\  /    A nd           | Web:      www.OpenFOAM.org                      |
|    \\/     M anipulation  |                                                 |
\*---------------------------------------------------------------------------*/
FoamFile
{
    version     2.0;
    format      ascii;
    class       volVectorField;
    location    "1.85";
    object      U_0;
}
// * * * * * * * * * * * * * * * * * * * * * * * * * * * * * * * * * * * * * //

dimensions      [0 1 -1 0 0 0 0];

internalField   nonuniform List<vector> 
8800
(
(8.09254 0.387913 0)
(5.45283 0.242532 0)
(3.90694 0.0433169 0)
(3.1624 -0.0158059 0)
(2.79406 -0.0183414 0)
(2.60833 -0.0107753 0)
(2.47209 -0.00578922 0)
(2.39416 -0.00270547 0)
(2.30367 -0.000610847 0)
(2.26598 -0.0014818 0)
(2.19882 -0.000244789 0)
(2.18659 -0.000357545 0)
(2.12251 0.000410812 0)
(2.12427 -0.000760149 0)
(2.05481 0.00159948 0)
(2.06376 -0.00119899 0)
(1.99533 0.000710957 0)
(2.00154 -0.00190094 0)
(2.00746 0.0102279 0)
(1.73543 -0.0734733 0)
(10.0809 0.837836 0)
(9.67169 0.868172 0)
(8.852 0.507802 0)
(8.10869 0.26072 0)
(7.46568 0.138382 0)
(7.03911 0.0827846 0)
(6.66253 0.0536201 0)
(6.43952 0.0400087 0)
(6.17917 0.0321226 0)
(6.07565 0.0221659 0)
(5.87 0.0198316 0)
(5.83941 0.0164984 0)
(5.65706 0.0169638 0)
(5.66598 0.0122225 0)
(5.4811 0.0201548 0)
(5.51294 0.00812541 0)
(5.33865 0.0217882 0)
(5.34733 -0.00793132 0)
(5.30566 0.0322084 0)
(5.12939 -0.0538914 0)
(10.0445 0.629335 0)
(10.6936 0.865141 0)
(10.8241 0.602168 0)
(10.7417 0.371575 0)
(10.4052 0.256319 0)
(10.1455 0.197951 0)
(9.77642 0.151918 0)
(9.56841 0.123137 0)
(9.23315 0.0974228 0)
(9.1252 0.0731386 0)
(8.83029 0.0614984 0)
(8.7976 0.0499508 0)
(8.53952 0.0467827 0)
(8.55368 0.035774 0)
(8.29738 0.0482437 0)
(8.34627 0.0245105 0)
(8.10283 0.0509441 0)
(8.12838 -0.000795889 0)
(8.00937 0.0360249 0)
(7.95042 -0.0991842 0)
(9.94695 0.45272 0)
(10.6452 0.710709 0)
(11.0832 0.547121 0)
(11.4599 0.349177 0)
(11.4704 0.261814 0)
(11.5565 0.229546 0)
(11.398 0.197559 0)
(11.4087 0.177732 0)
(11.1863 0.151886 0)
(11.1987 0.121819 0)
(10.9597 0.110192 0)
(10.9785 0.0884829 0)
(10.754 0.0873393 0)
(10.785 0.0660423 0)
(10.5461 0.0859163 0)
(10.5993 0.0480116 0)
(10.3699 0.0877047 0)
(10.3742 0.0179611 0)
(10.2621 0.0517313 0)
(10.2214 -0.110823 0)
(9.92895 0.3385 0)
(10.5317 0.577262 0)
(10.9352 0.461316 0)
(11.4021 0.290792 0)
(11.5407 0.208418 0)
(11.7859 0.196331 0)
(11.7818 0.173718 0)
(11.9319 0.172063 0)
(11.891 0.151759 0)
(12.0024 0.126753 0)
(11.9341 0.118212 0)
(12.0137 0.103988 0)
(11.9519 0.0945492 0)
(12.0158 0.0894433 0)
(11.9169 0.0947357 0)
(11.9737 0.0733918 0)
(11.8886 0.100513 0)
(11.8516 0.0577523 0)
(11.8469 0.046614 0)
(11.7947 -0.0153633 0)
(9.96079 0.242595 0)
(10.4028 0.461077 0)
(10.8271 0.387077 0)
(11.2459 0.243343 0)
(11.4511 0.159889 0)
(11.6771 0.148686 0)
(11.7619 0.142845 0)
(11.8684 0.139028 0)
(11.94 0.130527 0)
(12.0493 0.106955 0)
(12.1142 0.105024 0)
(12.1744 0.083275 0)
(12.2548 0.0841362 0)
(12.3183 0.074234 0)
(12.3447 0.0918864 0)
(12.4155 0.0641599 0)
(12.4427 0.0960179 0)
(12.462 0.0784935 0)
(12.5056 0.0619086 0)
(12.5162 0.0144398 0)
(9.97198 0.173606 0)
(10.3173 0.353636 0)
(10.7703 0.293863 0)
(11.1467 0.205442 0)
(11.3257 0.118998 0)
(11.5826 0.112295 0)
(11.6865 0.103389 0)
(11.7528 0.12458 0)
(11.8698 0.0873726 0)
(11.9867 0.0878791 0)
(12.0507 0.0721861 0)
(12.0983 0.0868183 0)
(12.1949 0.0346878 0)
(12.3004 0.0933774 0)
(12.3168 0.0378678 0)
(12.4109 0.0807283 0)
(12.4827 0.0515098 0)
(12.5024 0.0973096 0)
(12.5979 0.0556404 0)
(12.5904 0.191601 0)
(9.97288 0.10458 0)
(10.3103 0.251227 0)
(10.662 0.199242 0)
(11.0279 0.185971 0)
(11.2804 0.0681737 0)
(11.5629 0.0789759 0)
(11.5939 0.0629916 0)
(11.715 0.10539 0)
(11.8026 0.0325778 0)
(11.895 0.0892833 0)
(11.9125 0.041364 0)
(12.075 0.0827404 0)
(12.1543 -0.000795477 0)
(12.1973 0.079066 0)
(12.3134 0.0268896 0)
(12.3201 0.0641685 0)
(12.3968 0.0198493 0)
(12.509 0.116986 0)
(12.4593 0.0200763 0)
(12.483 0.192346 0)
(10.0025 0.0617042 0)
(10.2487 0.143143 0)
(10.5916 0.140212 0)
(10.9966 0.100729 0)
(11.2919 0.0314132 0)
(11.4622 0.0391603 0)
(11.551 0.0542022 0)
(11.7059 0.0517909 0)
(11.7166 0.0347412 0)
(11.8228 0.0450681 0)
(11.9296 0.0326046 0)
(12.0355 0.0210934 0)
(12.0792 0.0135884 0)
(12.1747 0.0438263 0)
(12.2296 0.0191388 0)
(12.3258 0.0362656 0)
(12.3187 0.0256705 0)
(12.4136 0.0377377 0)
(12.4945 0.0541715 0)
(12.3748 0.00527338 0)
(10.0084 0.00852377 0)
(10.2156 0.0577941 0)
(10.6014 0.0342042 0)
(10.9772 0.0498477 0)
(11.2402 0.00146802 0)
(11.3963 0.0263137 0)
(11.5957 -0.00422502 0)
(11.6543 0.0389146 0)
(11.7135 -0.00306713 0)
(11.8396 0.0208185 0)
(11.909 -0.00609091 0)
(11.9644 0.0363221 0)
(12.0472 -0.0197202 0)
(12.1501 0.0242784 0)
(12.2349 0.00749231 0)
(12.2613 0.0165443 0)
(12.3525 0.00253876 0)
(12.4392 0.0266079 0)
(12.3926 -0.0286798 0)
(12.3888 0.0222631 0)
(10.0066 -0.025165 0)
(10.2206 -0.0510337 0)
(10.593 -0.033222 0)
(10.9618 -0.0193835 0)
(11.2418 -0.022285 0)
(11.4438 -0.0305211 0)
(11.5761 -0.0187844 0)
(11.6289 -0.00135789 0)
(11.7551 -0.0204076 0)
(11.8184 -0.015189 0)
(11.8713 0.00473607 0)
(11.9722 -0.0136401 0)
(12.0793 -0.0260741 0)
(12.1404 -0.00396626 0)
(12.2245 -0.00582215 0)
(12.3025 -0.00610531 0)
(12.3422 -0.0277419 0)
(12.4285 -0.0148701 0)
(12.4149 0.0106487 0)
(12.297 -0.0502665 0)
(10.0058 -0.073542 0)
(10.2226 -0.14148 0)
(10.6115 -0.128885 0)
(11.0118 -0.0809025 0)
(11.2803 -0.0588287 0)
(11.4589 -0.0465959 0)
(11.5525 -0.0490099 0)
(11.6748 -0.0413136 0)
(11.7547 -0.0495998 0)
(11.8077 -0.0290718 0)
(11.9362 -0.0317589 0)
(12.0343 -0.0280735 0)
(12.0849 -0.042312 0)
(12.1495 -0.0276799 0)
(12.2416 -0.020881 0)
(12.3122 -0.0345866 0)
(12.3702 -0.0380493 0)
(12.4086 -0.030695 0)
(12.4162 -0.0437837 0)
(12.4062 -0.042483 0)
(10.0033 -0.11749 0)
(10.2704 -0.247811 0)
(10.6549 -0.208597 0)
(11.0367 -0.147266 0)
(11.3316 -0.0832614 0)
(11.4926 -0.0826915 0)
(11.6123 -0.0795757 0)
(11.715 -0.0766748 0)
(11.7786 -0.0612177 0)
(11.8822 -0.0714136 0)
(11.982 -0.0494603 0)
(12.0548 -0.0528528 0)
(12.1346 -0.0473647 0)
(12.1986 -0.046582 0)
(12.2697 -0.044771 0)
(12.3524 -0.0527481 0)
(12.4081 -0.0613441 0)
(12.4517 -0.0656672 0)
(12.5119 -0.0535428 0)
(12.4457 -0.075419 0)
(10.0301 -0.181192 0)
(10.2872 -0.346921 0)
(10.7435 -0.289623 0)
(11.1147 -0.206534 0)
(11.4081 -0.123186 0)
(11.5477 -0.114085 0)
(11.6871 -0.107198 0)
(11.762 -0.108761 0)
(11.8663 -0.0930967 0)
(11.9564 -0.095929 0)
(12.0486 -0.0683261 0)
(12.1083 -0.0750683 0)
(12.2034 -0.0652104 0)
(12.2706 -0.0713738 0)
(12.3458 -0.0530977 0)
(12.4098 -0.082193 0)
(12.4747 -0.0754137 0)
(12.5257 -0.0924097 0)
(12.559 -0.097409 0)
(12.5048 -0.0920819 0)
(10.0666 -0.255353 0)
(10.304 -0.449412 0)
(10.9027 -0.380943 0)
(11.1878 -0.251803 0)
(11.5284 -0.156252 0)
(11.5959 -0.153094 0)
(11.8118 -0.142172 0)
(11.8218 -0.140464 0)
(11.9906 -0.11802 0)
(12.0068 -0.125273 0)
(12.1503 -0.0870549 0)
(12.1451 -0.097105 0)
(12.2787 -0.0808583 0)
(12.2774 -0.0902231 0)
(12.3794 -0.0711744 0)
(12.3828 -0.102709 0)
(12.4652 -0.0895149 0)
(12.4466 -0.126279 0)
(12.4827 -0.107795 0)
(12.378 -0.134454 0)
(10.0627 -0.350279 0)
(10.3828 -0.562329 0)
(11.065 -0.465795 0)
(11.2896 -0.293522 0)
(11.6635 -0.206134 0)
(11.6611 -0.194175 0)
(11.8979 -0.179848 0)
(11.8092 -0.165773 0)
(12.0009 -0.148736 0)
(11.8861 -0.140944 0)
(12.0451 -0.106444 0)
(11.9076 -0.108939 0)
(12.0496 -0.0950707 0)
(11.9042 -0.100682 0)
(12.0212 -0.078978 0)
(11.8674 -0.110012 0)
(11.9498 -0.0934252 0)
(11.7835 -0.130309 0)
(11.8 -0.116336 0)
(11.5733 -0.157804 0)
(10.0125 -0.458919 0)
(10.5557 -0.702885 0)
(11.1828 -0.548537 0)
(11.3546 -0.352086 0)
(11.5719 -0.259044 0)
(11.4443 -0.229999 0)
(11.5079 -0.20101 0)
(11.2828 -0.174003 0)
(11.3202 -0.149295 0)
(11.0521 -0.132166 0)
(11.103 -0.100456 0)
(10.8319 -0.0954242 0)
(10.8947 -0.0824325 0)
(10.6242 -0.0829354 0)
(10.7033 -0.065019 0)
(10.4216 -0.0893024 0)
(10.4921 -0.0711649 0)
(10.2001 -0.112592 0)
(10.2191 -0.0874795 0)
(9.88605 -0.160015 0)
(10.0655 -0.633047 0)
(10.6539 -0.862122 0)
(10.8734 -0.602277 0)
(10.6794 -0.372928 0)
(10.4694 -0.254572 0)
(10.0738 -0.197987 0)
(9.84931 -0.154126 0)
(9.48108 -0.12109 0)
(9.33455 -0.0955695 0)
(9.00576 -0.0795243 0)
(8.95267 -0.0567177 0)
(8.66653 -0.052165 0)
(8.66875 -0.0454442 0)
(8.40164 -0.0459725 0)
(8.44406 -0.0369673 0)
(8.1673 -0.0508475 0)
(8.21764 -0.0468234 0)
(7.91984 -0.0670148 0)
(7.93298 -0.0662747 0)
(7.59177 -0.088389 0)
(10.0849 -0.838931 0)
(9.65496 -0.867196 0)
(8.87331 -0.507016 0)
(8.07726 -0.261783 0)
(7.50038 -0.137431 0)
(6.99939 -0.0829089 0)
(6.70345 -0.0546421 0)
(6.38999 -0.0397315 0)
(6.23824 -0.0299304 0)
(6.00342 -0.0264208 0)
(5.94506 -0.0172231 0)
(5.75395 -0.017438 0)
(5.74246 -0.0161681 0)
(5.56044 -0.0184923 0)
(5.57641 -0.0139281 0)
(5.3835 -0.0232258 0)
(5.4001 -0.0215754 0)
(5.17844 -0.0314001 0)
(5.17516 -0.0359152 0)
(4.88734 -0.0179291 0)
(8.09126 -0.388067 0)
(5.44854 -0.242418 0)
(3.91173 -0.0429301 0)
(3.15568 0.0153346 0)
(2.8031 0.0184608 0)
(2.59621 0.0108988 0)
(2.4856 0.00546025 0)
(2.37658 0.00261889 0)
(2.32376 0.00168945 0)
(2.24301 -0.000150381 0)
(2.2204 0.0011708 0)
(2.15838 0.000129022 0)
(2.15094 -8.85981e-05 0)
(2.08427 -0.00113599 0)
(2.08286 0.000216494 0)
(2.01013 -0.00253333 0)
(1.99995 -0.00129833 0)
(1.90893 -0.0037184 0)
(1.87528 -0.00383443 0)
(1.72704 0.0107493 0)
(2.3259 -0.186733 0)
(2.38679 -0.0377193 0)
(2.49568 0.02722 0)
(2.5938 0.0396689 0)
(2.7089 0.00703454 0)
(2.80934 -0.0365964 0)
(2.89715 -0.0778945 0)
(2.96512 -0.105192 0)
(3.01123 -0.112988 0)
(3.03915 -0.10474 0)
(3.05143 -0.0774549 0)
(3.06639 -0.0413096 0)
(3.08861 0.0123765 0)
(3.13821 0.0730948 0)
(3.22174 0.137476 0)
(3.33408 0.203382 0)
(3.49679 0.234561 0)
(3.68324 0.244443 0)
(3.86575 0.208939 0)
(4.04585 0.136889 0)
(4.15923 0.0570259 0)
(4.24142 -0.0168874 0)
(4.23887 -0.0842326 0)
(4.22392 -0.12569 0)
(4.16507 -0.140819 0)
(4.13789 -0.131637 0)
(4.09931 -0.117264 0)
(4.09677 -0.0972161 0)
(4.10377 -0.0780823 0)
(4.14647 -0.0632066 0)
(4.18451 -0.042073 0)
(4.23735 -0.0339811 0)
(4.27243 -0.0315881 0)
(4.34305 -0.0363629 0)
(4.38733 -0.0335949 0)
(4.44769 -0.0336118 0)
(4.4924 -0.0212795 0)
(4.53941 -0.0148452 0)
(4.58107 0.0065319 0)
(4.63509 0.0338019 0)
(4.67749 0.0622643 0)
(4.75222 0.10673 0)
(4.83096 0.140292 0)
(4.94494 0.177436 0)
(5.0787 0.186817 0)
(5.24433 0.177766 0)
(5.41335 0.15081 0)
(5.58105 0.0756565 0)
(5.7609 -0.00785274 0)
(5.88627 -0.135936 0)
(6.01497 -0.288413 0)
(6.09325 -0.453025 0)
(6.15303 -0.651929 0)
(6.13471 -0.798376 0)
(6.108 -0.928598 0)
(6.05179 -1.00228 0)
(5.9947 -1.02962 0)
(5.8495 -1.05743 0)
(5.70032 -1.03019 0)
(5.41387 -0.877136 0)
(5.23251 -0.627209 0)
(5.12222 -0.251622 0)
(5.08864 0.160586 0)
(5.09087 0.456078 0)
(5.21299 0.72256 0)
(5.49024 0.914187 0)
(5.80858 1.00869 0)
(6.15147 1.10071 0)
(6.4721 1.21982 0)
(6.92651 1.24507 0)
(7.23517 1.1675 0)
(7.66343 1.03076 0)
(7.93273 0.858078 0)
(8.2692 0.604854 0)
(8.47595 0.342845 0)
(8.6967 0.0448755 0)
(8.78849 -0.224189 0)
(8.97791 -0.531661 0)
(9.0741 -0.812446 0)
(9.18538 -1.00795 0)
(9.38812 -1.27882 0)
(9.57073 -1.50883 0)
(9.78696 -1.72995 0)
(10.0672 -1.9554 0)
(10.3261 -2.19651 0)
(10.6426 -2.40399 0)
(10.959 -2.64294 0)
(11.2659 -2.81042 0)
(11.5598 -3.05328 0)
(11.8104 -3.21608 0)
(12.024 -3.33168 0)
(12.2014 -3.50828 0)
(12.2665 -3.55898 0)
(12.3015 -3.61054 0)
(12.3002 -3.66053 0)
(12.1556 -3.58047 0)
(12.0947 -3.57427 0)
(11.923 -3.50131 0)
(11.7879 -3.38832 0)
(11.6451 -3.3446 0)
(11.5486 -3.25156 0)
(11.5136 -3.14945 0)
(11.4013 -3.04804 0)
(11.5658 -2.9868 0)
(11.6094 -2.8583 0)
(11.7791 -2.72435 0)
(12.1253 -2.69487 0)
(12.3144 -2.44523 0)
(12.7934 -2.30134 0)
(13.0454 -1.96289 0)
(13.4527 -1.68678 0)
(13.7794 -1.32531 0)
(14.0627 -0.839104 0)
(14.2932 -0.528997 0)
(14.5462 -0.00088704 0)
(14.6326 0.403519 0)
(14.8271 0.796538 0)
(14.7762 1.37349 0)
(14.8946 1.56471 0)
(14.7871 2.08487 0)
(14.8329 2.23187 0)
(14.6375 2.49995 0)
(14.7391 2.70213 0)
(14.48 2.72944 0)
(14.5231 2.86693 0)
(14.3276 2.92209 0)
(14.1996 2.81407 0)
(14.0709 2.79976 0)
(13.8599 2.63669 0)
(13.642 2.34796 0)
(13.417 2.16028 0)
(13.1878 1.7886 0)
(12.7867 1.39526 0)
(12.625 1.04555 0)
(12.2104 0.600399 0)
(11.9456 0.15943 0)
(11.5942 -0.229645 0)
(11.2436 -0.636299 0)
(10.852 -0.997026 0)
(10.4881 -1.34502 0)
(10.0437 -1.59772 0)
(9.69412 -1.53268 0)
(9.24605 -1.871 0)
(8.9269 -1.97178 0)
(8.41797 -1.59185 0)
(8.11904 -1.42807 0)
(7.4669 -1.65534 0)
(7.38686 -1.66229 0)
(7.12079 -1.31311 0)
(7.23676 -0.413945 0)
(7.02749 -0.293764 0)
(6.95962 -0.51658 0)
(6.77054 -1.15245 0)
(6.82658 -1.43937 0)
(6.70679 -1.90417 0)
(7.45504 -1.96369 0)
(7.18413 -1.14089 0)
(7.72349 -0.715143 0)
(7.56697 -0.848328 0)
(7.48049 -0.84203 0)
(7.37779 -1.58265 0)
(7.44974 -2.13912 0)
(7.21237 -3.76146 0)
(8.01889 -5.68325 0)
(8.62398 -7.21549 0)
(8.90647 -8.08688 0)
(8.95763 -8.15768 0)
(8.76499 -7.63402 0)
(9.06788 -6.37569 0)
(8.63512 -5.36409 0)
(8.78389 -4.1018 0)
(8.77577 -2.28096 0)
(8.90487 -0.599482 0)
(8.58038 1.00592 0)
(8.99823 2.91647 0)
(8.5956 3.84404 0)
(8.48592 4.49034 0)
(8.83695 5.78025 0)
(9.07625 7.68978 0)
(9.87826 9.67098 0)
(9.91174 10.7197 0)
(9.01225 10.7622 0)
(8.77558 10.2568 0)
(8.23307 9.19185 0)
(6.67601 7.80182 0)
(6.35773 6.79755 0)
(6.36324 6.40492 0)
(4.90011 5.53163 0)
(5.48126 5.25259 0)
(5.05171 5.16457 0)
(4.07754 4.29589 0)
(5.0708 4.24104 0)
(4.07513 3.71279 0)
(3.72248 3.11658 0)
(4.32572 2.83528 0)
(1.79586 2.55597 0)
(4.23594 1.9272 0)
(1.39806 2.22026 0)
(3.56843 0.88896 0)
(2.08013 2.3838 0)
(5.33766 -0.109437 0)
(5.35914 -0.0729716 0)
(5.35403 -0.0374367 0)
(5.34869 -0.0298023 0)
(5.3646 -0.0521921 0)
(5.40391 -0.0919093 0)
(5.44883 -0.123205 0)
(5.49134 -0.139217 0)
(5.51631 -0.135995 0)
(5.52883 -0.121524 0)
(5.52229 -0.0904946 0)
(5.51441 -0.0534905 0)
(5.50616 -0.00836576 0)
(5.51046 0.0410994 0)
(5.52469 0.0847229 0)
(5.56356 0.126804 0)
(5.61481 0.147117 0)
(5.70357 0.146846 0)
(5.78478 0.124161 0)
(5.89236 0.0780367 0)
(5.96411 0.017291 0)
(6.03334 -0.0406975 0)
(6.05851 -0.0961024 0)
(6.07643 -0.129534 0)
(6.08429 -0.151282 0)
(6.0769 -0.155178 0)
(6.10011 -0.146963 0)
(6.09546 -0.138573 0)
(6.15133 -0.117817 0)
(6.16637 -0.1117 0)
(6.23524 -0.0939301 0)
(6.26495 -0.0879564 0)
(6.32477 -0.0810531 0)
(6.37577 -0.0709792 0)
(6.43156 -0.0675206 0)
(6.48463 -0.0588891 0)
(6.5271 -0.0539111 0)
(6.57982 -0.0382442 0)
(6.61252 -0.030731 0)
(6.66196 -0.00268496 0)
(6.71444 0.0172578 0)
(6.75031 0.0441321 0)
(6.84894 0.0718185 0)
(6.90276 0.0803998 0)
(7.04137 0.089004 0)
(7.13286 0.0632461 0)
(7.30129 0.0299817 0)
(7.41771 -0.0361355 0)
(7.56728 -0.129381 0)
(7.71037 -0.22682 0)
(7.79115 -0.373684 0)
(7.91911 -0.499427 0)
(7.96506 -0.657411 0)
(7.99985 -0.795893 0)
(8.00619 -0.893145 0)
(7.94314 -1.00012 0)
(7.88246 -1.04185 0)
(7.78077 -1.03939 0)
(7.67327 -0.951441 0)
(7.57818 -0.750713 0)
(7.45979 -0.504165 0)
(7.38523 -0.192843 0)
(7.30903 0.0737889 0)
(7.34942 0.371957 0)
(7.41622 0.620432 0)
(7.53437 0.777934 0)
(7.70982 0.889936 0)
(7.87958 0.970696 0)
(8.09832 0.978249 0)
(8.32074 0.980542 0)
(8.58914 0.914228 0)
(8.84681 0.778406 0)
(9.15465 0.592735 0)
(9.34619 0.396574 0)
(9.59285 0.15668 0)
(9.82698 -0.112698 0)
(9.93986 -0.354795 0)
(10.179 -0.640484 0)
(10.3469 -0.898423 0)
(10.5583 -1.14763 0)
(10.7868 -1.39523 0)
(11.0211 -1.62694 0)
(11.2952 -1.88106 0)
(11.5644 -2.13233 0)
(11.8239 -2.349 0)
(12.0706 -2.59059 0)
(12.3025 -2.815 0)
(12.4661 -3.02436 0)
(12.6343 -3.18664 0)
(12.6561 -3.3479 0)
(12.733 -3.44939 0)
(12.6549 -3.54204 0)
(12.5488 -3.55946 0)
(12.4292 -3.57624 0)
(12.2688 -3.55208 0)
(12.0191 -3.45831 0)
(11.8681 -3.43725 0)
(11.6884 -3.36796 0)
(11.5423 -3.28807 0)
(11.416 -3.27302 0)
(11.4016 -3.20248 0)
(11.3681 -3.14704 0)
(11.3608 -3.12321 0)
(11.5843 -3.0891 0)
(11.6737 -3.09046 0)
(11.9971 -3.0215 0)
(12.2893 -3.03796 0)
(12.6439 -2.80261 0)
(13.0902 -2.70802 0)
(13.4211 -2.34912 0)
(13.7908 -2.03954 0)
(14.154 -1.63567 0)
(14.4161 -1.13607 0)
(14.6448 -0.752944 0)
(14.8845 -0.170693 0)
(14.9929 0.265117 0)
(15.1541 0.709621 0)
(15.1508 1.29205 0)
(15.1518 1.57566 0)
(15.0406 2.10479 0)
(14.9936 2.31897 0)
(14.7755 2.59041 0)
(14.7369 2.85051 0)
(14.456 2.88392 0)
(14.378 3.00753 0)
(14.1103 3.05514 0)
(13.9249 2.92576 0)
(13.7281 2.91507 0)
(13.5012 2.74627 0)
(13.3155 2.5049 0)
(13.0708 2.32351 0)
(12.9023 1.96503 0)
(12.5773 1.60563 0)
(12.3938 1.28033 0)
(12.0474 0.867582 0)
(11.7774 0.424925 0)
(11.4376 0.0562506 0)
(11.0515 -0.348902 0)
(10.6571 -0.67963 0)
(10.2783 -0.972768 0)
(9.88583 -1.23629 0)
(9.45244 -1.20381 0)
(9.11162 -1.56026 0)
(8.57123 -1.62406 0)
(8.22692 -1.28748 0)
(7.71873 -1.06456 0)
(7.27392 -1.39851 0)
(7.0167 -1.55128 0)
(6.88977 -1.32166 0)
(6.98611 -0.488281 0)
(6.94646 -0.247454 0)
(6.87336 -0.38726 0)
(6.87198 -1.0823 0)
(6.69776 -1.37157 0)
(6.79577 -2.15683 0)
(7.16806 -2.04666 0)
(6.83948 -1.24703 0)
(7.63608 -0.871935 0)
(6.89135 -0.631526 0)
(7.23848 -0.943462 0)
(7.07575 -1.46146 0)
(6.89324 -2.16844 0)
(7.1758 -4.28135 0)
(7.94196 -6.24502 0)
(8.55425 -7.79901 0)
(8.95542 -8.12073 0)
(8.58432 -8.13172 0)
(8.6876 -7.62021 0)
(8.55639 -6.46421 0)
(8.58743 -5.29748 0)
(8.52835 -4.06594 0)
(8.55854 -2.33823 0)
(8.51868 -0.517503 0)
(8.42038 1.03906 0)
(8.38225 2.79322 0)
(8.6692 4.05912 0)
(8.09955 4.47497 0)
(8.50355 5.62374 0)
(9.01988 7.26907 0)
(9.29999 9.24988 0)
(10.1268 10.8878 0)
(9.73102 11.2569 0)
(8.65616 10.6384 0)
(8.40954 9.81413 0)
(7.85122 8.64281 0)
(6.19734 7.20521 0)
(6.39551 6.59101 0)
(6.23418 6.04992 0)
(4.61636 5.24466 0)
(6.07891 5.09871 0)
(5.25562 4.56821 0)
(4.50002 4.26801 0)
(6.2988 3.67375 0)
(3.02698 3.80795 0)
(6.74299 2.60461 0)
(2.83706 3.27073 0)
(6.33281 1.66548 0)
(3.42764 2.46264 0)
(5.5359 0.99605 0)
(4.13958 2.0609 0)
(8.00746 -0.0561458 0)
(8.00519 -0.00372336 0)
(7.97774 0.00909767 0)
(7.95189 -0.0195888 0)
(7.94037 -0.0652156 0)
(7.96171 -0.107804 0)
(7.98736 -0.132506 0)
(8.02294 -0.140531 0)
(8.02847 -0.131918 0)
(8.03739 -0.110412 0)
(8.01234 -0.0796294 0)
(8.00833 -0.043828 0)
(7.98494 -0.00728926 0)
(7.98811 0.0335228 0)
(7.98144 0.0689694 0)
(8.00663 0.0955475 0)
(8.02442 0.108783 0)
(8.07951 0.105975 0)
(8.11947 0.0814374 0)
(8.18049 0.0439851 0)
(8.23114 -0.0066564 0)
(8.26328 -0.063272 0)
(8.30508 -0.105562 0)
(8.29608 -0.139766 0)
(8.33188 -0.165313 0)
(8.30316 -0.169391 0)
(8.34884 -0.169079 0)
(8.32722 -0.167664 0)
(8.37927 -0.144623 0)
(8.39717 -0.14615 0)
(8.42355 -0.13371 0)
(8.48977 -0.118836 0)
(8.48914 -0.128363 0)
(8.57578 -0.0980787 0)
(8.5807 -0.109249 0)
(8.64873 -0.10183 0)
(8.67595 -0.0786101 0)
(8.71164 -0.0943519 0)
(8.76065 -0.0557415 0)
(8.77986 -0.0525001 0)
(8.84549 -0.0400214 0)
(8.86588 0.000529867 0)
(8.95653 -0.0105276 0)
(8.99197 0.0123365 0)
(9.11613 0.00360033 0)
(9.18714 -0.0287723 0)
(9.30214 -0.0596598 0)
(9.43581 -0.131053 0)
(9.49861 -0.218706 0)
(9.6581 -0.30975 0)
(9.70396 -0.437475 0)
(9.7812 -0.555289 0)
(9.86286 -0.677336 0)
(9.82542 -0.812791 0)
(9.87305 -0.881075 0)
(9.77989 -0.971852 0)
(9.74233 -0.972136 0)
(9.67156 -0.921919 0)
(9.5742 -0.840292 0)
(9.48961 -0.6523 0)
(9.40578 -0.465451 0)
(9.28917 -0.224588 0)
(9.31353 0.0710772 0)
(9.29101 0.297204 0)
(9.39406 0.546965 0)
(9.48678 0.711475 0)
(9.63235 0.804822 0)
(9.77168 0.880575 0)
(9.93697 0.891345 0)
(10.104 0.832264 0)
(10.3204 0.776779 0)
(10.467 0.641421 0)
(10.7508 0.438438 0)
(10.8904 0.266139 0)
(11.1273 0.00522211 0)
(11.287 -0.248817 0)
(11.4848 -0.492011 0)
(11.6696 -0.786585 0)
(11.8637 -1.03126 0)
(12.0412 -1.3052 0)
(12.2462 -1.58375 0)
(12.439 -1.80199 0)
(12.605 -2.07827 0)
(12.7913 -2.32046 0)
(12.9099 -2.5498 0)
(13.0229 -2.75316 0)
(13.0593 -2.95838 0)
(13.0958 -3.10013 0)
(13.0492 -3.22706 0)
(12.9124 -3.32565 0)
(12.8528 -3.3915 0)
(12.6389 -3.43695 0)
(12.4363 -3.40433 0)
(12.2643 -3.40066 0)
(12.0144 -3.3601 0)
(11.8235 -3.30334 0)
(11.6917 -3.29072 0)
(11.5284 -3.24346 0)
(11.4729 -3.21397 0)
(11.3764 -3.23524 0)
(11.3908 -3.18283 0)
(11.3897 -3.2184 0)
(11.4634 -3.25868 0)
(11.616 -3.26179 0)
(11.7926 -3.36718 0)
(12.1305 -3.36793 0)
(12.3732 -3.32631 0)
(12.7878 -3.21232 0)
(13.1577 -3.04829 0)
(13.513 -2.71305 0)
(13.7979 -2.35523 0)
(14.1887 -1.91612 0)
(14.3852 -1.39411 0)
(14.6559 -0.946328 0)
(14.8552 -0.321979 0)
(15.0455 0.145443 0)
(15.1642 0.638617 0)
(15.2744 1.22374 0)
(15.2472 1.56529 0)
(15.2329 2.08267 0)
(15.1113 2.41307 0)
(15.0131 2.66474 0)
(14.8688 2.9853 0)
(14.5929 3.07098 0)
(14.4047 3.21772 0)
(14.0346 3.24358 0)
(13.7804 3.14036 0)
(13.4451 3.09148 0)
(13.1299 2.90881 0)
(12.8748 2.66857 0)
(12.5824 2.45746 0)
(12.3325 2.14392 0)
(12.0728 1.76572 0)
(11.8626 1.46907 0)
(11.5958 1.04519 0)
(11.3158 0.66449 0)
(10.989 0.323215 0)
(10.6137 -0.0644856 0)
(10.267 -0.340195 0)
(9.87587 -0.657664 0)
(9.56032 -0.890724 0)
(9.06207 -0.90941 0)
(8.7491 -1.25172 0)
(8.17512 -1.29517 0)
(8.06319 -0.973132 0)
(7.56461 -0.648401 0)
(7.39472 -1.01673 0)
(6.88106 -1.22137 0)
(6.83114 -1.18252 0)
(6.7057 -0.524107 0)
(6.77859 -0.218976 0)
(6.83194 -0.421797 0)
(6.86446 -1.01963 0)
(6.76399 -1.4391 0)
(7.03957 -2.27131 0)
(6.8509 -1.91435 0)
(6.92866 -1.50681 0)
(7.35453 -0.734314 0)
(6.39973 -0.590733 0)
(7.35348 -1.06975 0)
(6.38636 -1.26866 0)
(6.69935 -2.44193 0)
(7.22678 -4.68388 0)
(7.63888 -6.79757 0)
(8.14644 -8.00173 0)
(7.99039 -8.09818 0)
(8.0959 -8.06564 0)
(8.07233 -7.4962 0)
(7.82137 -6.54033 0)
(8.12713 -5.27403 0)
(7.89795 -4.0933 0)
(8.27397 -2.27417 0)
(7.78151 -0.546431 0)
(8.0817 1.14206 0)
(7.84325 2.66725 0)
(8.18044 4.07135 0)
(8.16214 4.50697 0)
(7.93898 5.23223 0)
(8.89429 6.90231 0)
(9.1289 8.74161 0)
(9.59435 10.6123 0)
(10.1791 11.7235 0)
(9.51864 11.2854 0)
(8.1796 10.2824 0)
(8.26213 9.35565 0)
(7.60296 7.97698 0)
(5.76339 6.75292 0)
(6.84628 6.38714 0)
(6.10571 5.48487 0)
(5.04295 5.27367 0)
(7.44116 4.37146 0)
(3.77799 4.83943 0)
(8.13073 3.32471 0)
(3.98839 4.17975 0)
(7.67725 2.39091 0)
(4.43822 3.32915 0)
(7.06551 1.72154 0)
(4.93655 2.44606 0)
(6.67343 1.29011 0)
(5.19517 1.54756 0)
(10.2843 -0.0301808 0)
(10.2638 0.0403309 0)
(10.1736 0.0390485 0)
(10.1371 -0.0099871 0)
(10.1088 -0.0718949 0)
(10.1484 -0.117212 0)
(10.158 -0.140296 0)
(10.2023 -0.139324 0)
(10.1955 -0.120075 0)
(10.207 -0.0990727 0)
(10.1794 -0.0590473 0)
(10.1674 -0.0323864 0)
(10.1383 -0.00152836 0)
(10.1427 0.0312514 0)
(10.1293 0.0539943 0)
(10.1546 0.0797779 0)
(10.1731 0.0873834 0)
(10.2034 0.0786774 0)
(10.2424 0.0628629 0)
(10.2675 0.0214522 0)
(10.3076 -0.0222096 0)
(10.3215 -0.0607601 0)
(10.3617 -0.113924 0)
(10.3453 -0.128986 0)
(10.3826 -0.164389 0)
(10.3543 -0.172302 0)
(10.3782 -0.168213 0)
(10.3828 -0.183246 0)
(10.372 -0.165232 0)
(10.4388 -0.162031 0)
(10.3866 -0.162764 0)
(10.4845 -0.142375 0)
(10.4526 -0.149047 0)
(10.5121 -0.140852 0)
(10.5361 -0.115485 0)
(10.5573 -0.146791 0)
(10.6027 -0.100811 0)
(10.6272 -0.109966 0)
(10.6531 -0.106892 0)
(10.6921 -0.0601791 0)
(10.7313 -0.0876134 0)
(10.7402 -0.0500196 0)
(10.8409 -0.0418073 0)
(10.8316 -0.0650944 0)
(10.9558 -0.0548465 0)
(11.0106 -0.0948966 0)
(11.0773 -0.13631 0)
(11.2068 -0.199702 0)
(11.2381 -0.277006 0)
(11.3378 -0.37647 0)
(11.4033 -0.466818 0)
(11.3929 -0.589775 0)
(11.4685 -0.689368 0)
(11.4149 -0.783328 0)
(11.3767 -0.866066 0)
(11.3525 -0.902017 0)
(11.2163 -0.901698 0)
(11.1962 -0.852399 0)
(11.0571 -0.766487 0)
(10.9867 -0.611395 0)
(10.9184 -0.446008 0)
(10.8311 -0.205641 0)
(10.8476 0.0260252 0)
(10.8534 0.263139 0)
(10.9264 0.444676 0)
(11.0596 0.614945 0)
(11.1566 0.712172 0)
(11.3637 0.753727 0)
(11.4795 0.789522 0)
(11.6923 0.724426 0)
(11.8418 0.653988 0)
(12.0319 0.516312 0)
(12.212 0.331053 0)
(12.3821 0.125541 0)
(12.5391 -0.140143 0)
(12.6933 -0.371464 0)
(12.8349 -0.63249 0)
(12.9921 -0.909934 0)
(13.0862 -1.16048 0)
(13.2217 -1.42116 0)
(13.3101 -1.68212 0)
(13.4068 -1.92098 0)
(13.4329 -2.14743 0)
(13.4573 -2.36885 0)
(13.4699 -2.5755 0)
(13.3943 -2.74838 0)
(13.311 -2.88819 0)
(13.1784 -3.02208 0)
(13.0114 -3.10496 0)
(12.7908 -3.18097 0)
(12.6611 -3.24568 0)
(12.3857 -3.24065 0)
(12.2346 -3.25563 0)
(11.9869 -3.21819 0)
(11.8555 -3.19562 0)
(11.7026 -3.19455 0)
(11.6109 -3.17055 0)
(11.5095 -3.18477 0)
(11.4731 -3.19205 0)
(11.3832 -3.21102 0)
(11.393 -3.22823 0)
(11.4017 -3.3021 0)
(11.4535 -3.39151 0)
(11.5339 -3.44648 0)
(11.7328 -3.59378 0)
(11.9701 -3.63022 0)
(12.1924 -3.60913 0)
(12.4949 -3.53771 0)
(12.844 -3.31138 0)
(13.0733 -3.03307 0)
(13.3406 -2.59708 0)
(13.673 -2.17987 0)
(13.8177 -1.63378 0)
(14.1006 -1.13613 0)
(14.2948 -0.503935 0)
(14.4896 0.00659801 0)
(14.6546 0.560019 0)
(14.8445 1.14843 0)
(14.8615 1.53844 0)
(15.0015 2.05404 0)
(14.91 2.4351 0)
(14.9339 2.74083 0)
(14.8112 3.0957 0)
(14.634 3.2476 0)
(14.4155 3.42728 0)
(14.0737 3.51237 0)
(13.7393 3.42731 0)
(13.3391 3.40914 0)
(12.9298 3.22234 0)
(12.5475 2.92685 0)
(12.1512 2.70021 0)
(11.835 2.31761 0)
(11.5461 1.95473 0)
(11.2638 1.6625 0)
(10.9683 1.25197 0)
(10.7052 0.885265 0)
(10.3821 0.602911 0)
(10.0324 0.236115 0)
(9.71853 -0.064441 0)
(9.3496 -0.427289 0)
(9.06224 -0.577888 0)
(8.75306 -0.548714 0)
(8.36274 -0.816984 0)
(7.90269 -0.968513 0)
(7.6931 -0.721217 0)
(7.3373 -0.511535 0)
(7.30726 -0.851244 0)
(6.82742 -1.06857 0)
(6.92923 -1.16274 0)
(6.78261 -0.592614 0)
(6.86985 -0.232551 0)
(7.08773 -0.544146 0)
(6.96695 -0.878024 0)
(7.12724 -1.66627 0)
(7.15113 -2.10128 0)
(6.70557 -1.92899 0)
(7.30225 -1.69837 0)
(6.78222 -0.325855 0)
(6.5221 -0.753664 0)
(7.14082 -0.938202 0)
(5.82146 -1.14997 0)
(6.88326 -2.69249 0)
(6.94569 -5.17353 0)
(7.40427 -7.04138 0)
(7.10345 -7.87269 0)
(6.98567 -8.25413 0)
(7.55802 -8.0044 0)
(7.23217 -7.41772 0)
(7.32196 -6.5267 0)
(7.18189 -5.28385 0)
(7.31842 -4.06394 0)
(7.22075 -2.22872 0)
(7.3008 -0.457458 0)
(6.96376 1.09759 0)
(7.45948 2.61791 0)
(7.36829 3.85343 0)
(7.90574 4.72784 0)
(7.57868 4.97057 0)
(8.22999 6.49444 0)
(9.1663 8.38133 0)
(9.2354 9.98054 0)
(9.66799 11.5832 0)
(10.2862 11.9658 0)
(9.17842 10.9535 0)
(7.95725 9.77403 0)
(8.43974 8.70465 0)
(7.11299 7.22133 0)
(5.97917 6.68455 0)
(8.27327 5.41338 0)
(4.45634 5.6766 0)
(8.87421 4.04884 0)
(4.50577 4.96149 0)
(8.50884 3.12686 0)
(5.12639 4.17388 0)
(7.95249 2.51522 0)
(5.56109 3.23536 0)
(7.54041 2.02613 0)
(5.78794 2.11771 0)
(7.25619 1.40636 0)
(6.27852 1.48965 0)
(11.8501 -0.0112776 0)
(11.8302 -0.00886649 0)
(11.7221 -0.0345371 0)
(11.6925 -0.0737914 0)
(11.6759 -0.116514 0)
(11.7221 -0.139248 0)
(11.7436 -0.142085 0)
(11.7792 -0.143419 0)
(11.7734 -0.11259 0)
(11.7832 -0.10184 0)
(11.7523 -0.0617084 0)
(11.7518 -0.035552 0)
(11.7162 -0.0141815 0)
(11.7247 0.0180996 0)
(11.7162 0.0333851 0)
(11.7287 0.0475347 0)
(11.7596 0.0527631 0)
(11.7829 0.0518552 0)
(11.8168 0.0265328 0)
(11.8438 0.00708089 0)
(11.8692 -0.0367492 0)
(11.8709 -0.0720096 0)
(11.9058 -0.116213 0)
(11.867 -0.137282 0)
(11.9079 -0.181436 0)
(11.8686 -0.181492 0)
(11.8823 -0.186041 0)
(11.8935 -0.203679 0)
(11.8569 -0.172509 0)
(11.9271 -0.194798 0)
(11.8662 -0.163615 0)
(11.9186 -0.172719 0)
(11.915 -0.174032 0)
(11.9164 -0.151619 0)
(11.9466 -0.165155 0)
(11.9579 -0.155098 0)
(11.98 -0.137747 0)
(12.0238 -0.13603 0)
(12.0218 -0.123036 0)
(12.0805 -0.0993766 0)
(12.0858 -0.109194 0)
(12.1176 -0.0895881 0)
(12.162 -0.0952317 0)
(12.1822 -0.105241 0)
(12.2387 -0.121954 0)
(12.3172 -0.14846 0)
(12.3178 -0.192796 0)
(12.4619 -0.250815 0)
(12.4326 -0.325189 0)
(12.531 -0.397283 0)
(12.5391 -0.512003 0)
(12.5144 -0.569397 0)
(12.53 -0.698938 0)
(12.4523 -0.747957 0)
(12.3709 -0.800533 0)
(12.3204 -0.857653 0)
(12.1534 -0.796447 0)
(12.1257 -0.798362 0)
(11.9674 -0.671617 0)
(11.9072 -0.568842 0)
(11.8591 -0.395198 0)
(11.7758 -0.198956 0)
(11.8184 0.000924623 0)
(11.8099 0.199481 0)
(11.9007 0.369631 0)
(12.0129 0.496617 0)
(12.1523 0.598059 0)
(12.3068 0.631371 0)
(12.5171 0.644479 0)
(12.6625 0.589521 0)
(12.8503 0.502409 0)
(13.0251 0.35998 0)
(13.1884 0.201874 0)
(13.333 -0.00912017 0)
(13.493 -0.242203 0)
(13.5869 -0.459682 0)
(13.6915 -0.711573 0)
(13.7475 -0.974678 0)
(13.7985 -1.23242 0)
(13.7986 -1.46097 0)
(13.7885 -1.71875 0)
(13.7571 -1.94511 0)
(13.6776 -2.14354 0)
(13.5613 -2.3473 0)
(13.4676 -2.52772 0)
(13.2689 -2.67502 0)
(13.094 -2.79191 0)
(12.8933 -2.91735 0)
(12.7023 -2.99115 0)
(12.5155 -3.0638 0)
(12.338 -3.08787 0)
(12.157 -3.10822 0)
(12.0382 -3.10838 0)
(11.8341 -3.07551 0)
(11.835 -3.08932 0)
(11.6872 -3.09549 0)
(11.6581 -3.10187 0)
(11.572 -3.13073 0)
(11.5246 -3.13713 0)
(11.4307 -3.1604 0)
(11.3695 -3.21809 0)
(11.3533 -3.30291 0)
(11.2871 -3.43322 0)
(11.3295 -3.54248 0)
(11.4083 -3.71595 0)
(11.5245 -3.77477 0)
(11.6468 -3.7956 0)
(11.7851 -3.68888 0)
(12.03 -3.44617 0)
(12.074 -3.142 0)
(12.376 -2.73275 0)
(12.5645 -2.29492 0)
(12.699 -1.78406 0)
(13.0073 -1.29265 0)
(13.1878 -0.710262 0)
(13.3658 -0.156136 0)
(13.5878 0.425648 0)
(13.8144 0.975894 0)
(13.8817 1.4435 0)
(14.1328 1.97635 0)
(14.1522 2.38414 0)
(14.3194 2.70096 0)
(14.3218 3.13679 0)
(14.3259 3.31967 0)
(14.1931 3.55463 0)
(13.9693 3.7688 0)
(13.6673 3.74436 0)
(13.2942 3.75602 0)
(12.8099 3.59981 0)
(12.3857 3.28174 0)
(11.8508 3.03378 0)
(11.506 2.61477 0)
(11.0551 2.22124 0)
(10.7504 1.88082 0)
(10.4298 1.50159 0)
(10.1315 1.14573 0)
(9.75567 0.852588 0)
(9.49821 0.460253 0)
(9.19777 0.245119 0)
(8.93238 -0.109991 0)
(8.53441 -0.307613 0)
(8.41936 -0.323258 0)
(7.87344 -0.513484 0)
(7.77143 -0.742925 0)
(7.45552 -0.469625 0)
(7.3781 -0.4461 0)
(7.19521 -0.622055 0)
(6.84966 -0.942817 0)
(6.95977 -1.09783 0)
(6.82703 -0.602886 0)
(6.93364 -0.332832 0)
(7.10675 -0.624849 0)
(7.06858 -0.877587 0)
(7.31807 -1.7676 0)
(6.97697 -1.82106 0)
(6.88554 -2.12357 0)
(7.32795 -1.49324 0)
(6.22491 -0.0838247 0)
(6.96078 -0.801014 0)
(6.25927 -0.659536 0)
(5.87741 -1.08237 0)