/*--------------------------------*- C++ -*----------------------------------*\
| =========                 |                                                 |
| \\      /  F ield         | OpenFOAM: The Open Source CFD Toolbox           |
|  \\    /   O peration     | Version:  2.4.0                                 |
|   \\  /    A nd           | Web:      www.OpenFOAM.org                      |
|    \\/     M anipulation  |                                                 |
\*---------------------------------------------------------------------------*/
FoamFile
{
    version     2.0;
    format      ascii;
    class       volVectorField;
    location    "1.85";
    object      UMean;
}
// * * * * * * * * * * * * * * * * * * * * * * * * * * * * * * * * * * * * * //

dimensions      [0 1 -1 0 0 0 0];

internalField   nonuniform List<vector> 
8800
(
(8.09331 0.387348 0)
(5.45569 0.24264 0)
(3.92316 0.0429785 0)
(3.16 -0.0152379 0)
(2.81616 -0.018443 0)
(2.60009 -0.0108644 0)
(2.50492 -0.00585555 0)
(2.38225 -0.00201734 0)
(2.34531 -0.0017444 0)
(2.25282 -0.000237926 0)
(2.24772 -0.000989985 0)
(2.16961 0.000384694 0)
(2.17902 -0.000481266 0)
(2.10302 0.000876314 0)
(2.11676 -0.00012856 0)
(2.03929 0.00119018 0)
(2.05508 -0.000308919 0)
(1.97156 0.000437768 0)
(2.02792 0.00830234 0)
(1.73131 -0.0645871 0)
(10.0884 0.836615 0)
(9.65212 0.867013 0)
(8.89243 0.50591 0)
(8.06942 0.261879 0)
(7.52334 0.137187 0)
(6.98737 0.0821693 0)
(6.73955 0.0528594 0)
(6.37642 0.0407069 0)
(6.28217 0.0283574 0)
(6.00053 0.0246706 0)
(5.99652 0.0170772 0)
(5.75577 0.0182261 0)
(5.80162 0.013459 0)
(5.57356 0.0169248 0)
(5.64474 0.0133992 0)
(5.41372 0.0161943 0)
(5.50536 0.0165118 0)
(5.24908 0.006629 0)
(5.41462 0.0306082 0)
(5.02762 -0.0424032 0)
(10.0817 0.629937 0)
(10.633 0.862447 0)
(10.9071 0.599618 0)
(10.6509 0.373536 0)
(10.5076 0.254238 0)
(10.0354 0.196521 0)
(9.90168 0.150953 0)
(9.43808 0.12274 0)
(9.39585 0.0912933 0)
(8.97405 0.0764926 0)
(9.02541 0.0557769 0)
(8.63743 0.0527412 0)
(8.7581 0.0399967 0)
(8.38065 0.043119 0)
(8.54802 0.0354466 0)
(8.16069 0.0382685 0)
(8.36732 0.0386677 0)
(7.94714 0.0268641 0)
(8.22024 0.0412732 0)
(7.748 -0.0517106 0)
(10.0558 0.456329 0)
(10.5065 0.704493 0)
(11.241 0.543732 0)
(11.297 0.352762 0)
(11.6399 0.259791 0)
(11.3717 0.228064 0)
(11.5858 0.197181 0)
(11.2035 0.176233 0)
(11.4052 0.143637 0)
(10.9754 0.126286 0)
(11.2053 0.100167 0)
(10.7524 0.0934448 0)
(11.0202 0.0760833 0)
(10.545 0.0765576 0)
(10.8496 0.0655045 0)
(10.3461 0.0682595 0)
(10.6865 0.0630736 0)
(10.1458 0.0608625 0)
(10.5242 0.0480798 0)
(9.95915 0.0151562 0)
(10.1597 0.345714 0)
(10.2896 0.567371 0)
(11.1665 0.457775 0)
(11.186 0.29593 0)
(11.7802 0.205677 0)
(11.5517 0.194897 0)
(12.011 0.174226 0)
(11.6953 0.171686 0)
(12.1213 0.140058 0)
(11.7614 0.135298 0)
(12.1786 0.103741 0)
(11.7855 0.109587 0)
(12.2002 0.0822462 0)
(11.7755 0.0989096 0)
(12.1889 0.0714538 0)
(11.733 0.0978566 0)
(12.1445 0.0653969 0)
(11.657 0.102095 0)
(12.0607 0.0433248 0)
(11.5486 0.0783826 0)
(10.1878 0.249153 0)
(10.2038 0.456779 0)
(11.0149 0.371968 0)
(11.0781 0.250127 0)
(11.6392 0.156242 0)
(11.5089 0.154402 0)
(11.9112 0.137006 0)
(11.7286 0.144984 0)
(12.0887 0.113726 0)
(11.9019 0.116511 0)
(12.2421 0.0841714 0)
(12.0537 0.0955397 0)
(12.3747 0.0678548 0)
(12.1816 0.0889087 0)
(12.4808 0.0623277 0)
(12.2813 0.0913778 0)
(12.5551 0.0621643 0)
(12.3453 0.0997201 0)
(12.5808 0.0530362 0)
(12.3415 0.0536254 0)
(10.0794 0.169292 0)
(10.2522 0.358643 0)
(10.8003 0.281149 0)
(11.0779 0.211419 0)
(11.4295 0.109435 0)
(11.5258 0.123187 0)
(11.7102 0.0951052 0)
(11.7442 0.124585 0)
(11.8879 0.076888 0)
(11.9232 0.103321 0)
(12.0529 0.0512527 0)
(12.0913 0.0878134 0)
(12.2069 0.0356925 0)
(12.244 0.0856046 0)
(12.3441 0.0294406 0)
(12.3777 0.0927186 0)
(12.4609 0.0272883 0)
(12.4844 0.107763 0)
(12.5328 0.0242761 0)
(12.5016 0.105701 0)
(9.97833 0.103614 0)
(10.2976 0.263632 0)
(10.6412 0.190778 0)
(11.0738 0.165489 0)
(11.2774 0.0675027 0)
(11.5301 0.0939499 0)
(11.5701 0.0569489 0)
(11.7408 0.100762 0)
(11.7449 0.0443152 0)
(11.913 0.0853216 0)
(11.911 0.025002 0)
(12.0778 0.0742042 0)
(12.0681 0.0128786 0)
(12.2287 0.0730264 0)
(12.2103 0.00799489 0)
(12.362 0.0790983 0)
(12.3343 0.00666158 0)
(12.4716 0.0922505 0)
(12.4196 0.00542205 0)
(12.4659 0.0921242 0)
(9.91459 0.0564248 0)
(10.3249 0.160495 0)
(10.5383 0.11171 0)
(11.0678 0.103407 0)
(11.1781 0.0367844 0)
(11.53 0.0581134 0)
(11.4793 0.0306479 0)
(11.7363 0.0641908 0)
(11.6512 0.0237678 0)
(11.9044 0.0539547 0)
(11.8177 0.0117429 0)
(12.0683 0.0465704 0)
(11.9762 0.00470052 0)
(12.2196 0.0447015 0)
(12.1196 0.00196196 0)
(12.354 0.0466938 0)
(12.2455 0.0017049 0)
(12.4647 0.0506047 0)
(12.326 -0.00494616 0)
(12.4371 0.011709 0)
(9.90425 0.00877373 0)
(10.3183 0.066331 0)
(10.5064 0.0260928 0)
(11.0457 0.0474646 0)
(11.1496 0.000280094 0)
(11.5119 0.0325585 0)
(11.4576 -0.00234 0)
(11.7166 0.0361698 0)
(11.6299 -0.00516407 0)
(11.8836 0.0327325 0)
(11.7979 -0.0102313 0)
(12.0484 0.03032 0)
(11.9582 -0.0137478 0)
(12.2014 0.0293897 0)
(12.1032 -0.0165799 0)
(12.3381 0.0288253 0)
(12.2303 -0.019544 0)
(12.4508 0.0260808 0)
(12.3077 -0.0298495 0)
(12.4208 -0.00277086 0)
(9.9232 -0.029722 0)
(10.3 -0.0357458 0)
(10.5257 -0.0536486 0)
(11.0311 -0.0187926 0)
(11.1709 -0.0293769 0)
(11.4999 -0.00328941 0)
(11.481 -0.028318 0)
(11.7074 -0.00377637 0)
(11.6545 -0.0271733 0)
(11.8774 -6.37668e-05 0)
(11.8241 -0.0245805 0)
(12.045 0.00233938 0)
(11.9858 -0.0249315 0)
(12.201 0.00171886 0)
(12.1322 -0.0282138 0)
(12.3414 -0.00177254 0)
(12.2608 -0.0342131 0)
(12.4578 -0.00872751 0)
(12.3388 -0.0450478 0)
(12.428 -0.0272438 0)
(9.95316 -0.0748059 0)
(10.2852 -0.134679 0)
(10.5781 -0.13638 0)
(11.0331 -0.0798266 0)
(11.2236 -0.0617057 0)
(11.4989 -0.0341516 0)
(11.5303 -0.056911 0)
(11.7091 -0.0378361 0)
(11.7065 -0.0514395 0)
(11.882 -0.0272444 0)
(11.8772 -0.0415076 0)
(12.051 -0.0199684 0)
(12.0397 -0.0385397 0)
(12.2085 -0.0200913 0)
(12.1874 -0.0421352 0)
(12.3502 -0.0264468 0)
(12.3177 -0.0510536 0)
(12.4678 -0.0381277 0)
(12.3977 -0.0623193 0)
(12.4382 -0.0471413 0)
(9.97821 -0.122428 0)
(10.2887 -0.23905 0)
(10.6468 -0.215791 0)
(11.0636 -0.14234 0)
(11.2899 -0.0926029 0)
(11.5192 -0.0692066 0)
(11.5888 -0.0841935 0)
(11.7309 -0.0734487 0)
(11.768 -0.0741146 0)
(11.9056 -0.0565674 0)
(11.9391 -0.0580104 0)
(12.0741 -0.0445092 0)
(12.1014 -0.0517396 0)
(12.2305 -0.0434522 0)
(12.2491 -0.055902 0)
(12.3709 -0.0520293 0)
(12.3798 -0.068879 0)
(12.4874 -0.0687298 0)
(12.4624 -0.0848467 0)
(12.4597 -0.0670403 0)
(10.0134 -0.18208 0)
(10.2994 -0.343356 0)
(10.7477 -0.298019 0)
(11.1145 -0.197674 0)
(11.3856 -0.126591 0)
(11.5575 -0.107696 0)
(11.6727 -0.113086 0)
(11.7731 -0.108838 0)
(11.8547 -0.0968448 0)
(11.9512 -0.0865461 0)
(12.0246 -0.0746466 0)
(12.1198 -0.0705814 0)
(12.1839 -0.0646436 0)
(12.2743 -0.0684893 0)
(12.3273 -0.06801 0)
(12.4113 -0.0786012 0)
(12.4513 -0.0839237 0)
(12.5221 -0.101164 0)
(12.5274 -0.106804 0)
(12.4951 -0.0984598 0)
(10.0557 -0.257393 0)
(10.3168 -0.44793 0)
(10.8916 -0.381827 0)
(11.1804 -0.243574 0)
(11.522 -0.165501 0)
(11.6058 -0.147124 0)
(11.797 -0.145152 0)
(11.8221 -0.140252 0)
(11.9754 -0.121876 0)
(11.9939 -0.113082 0)
(12.1296 -0.0937461 0)
(12.1452 -0.0943083 0)
(12.2627 -0.0796965 0)
(12.2729 -0.0913021 0)
(12.3685 -0.0799495 0)
(12.3718 -0.101851 0)
(12.44 -0.0948211 0)
(12.4306 -0.129494 0)
(12.4479 -0.123422 0)
(12.3497 -0.138508 0)
(10.0515 -0.351373 0)
(10.3924 -0.560364 0)
(11.0465 -0.464359 0)
(11.2965 -0.290309 0)
(11.6555 -0.212698 0)
(11.664 -0.188441 0)
(11.8795 -0.180922 0)
(11.8107 -0.166965 0)
(11.9811 -0.147443 0)
(11.8804 -0.131525 0)
(12.0282 -0.112425 0)
(11.908 -0.107624 0)
(12.0363 -0.0929617 0)
(11.9008 -0.10056 0)
(12.0054 -0.0872877 0)
(11.8572 -0.107819 0)
(11.9283 -0.0961634 0)
(11.7662 -0.136241 0)
(11.771 -0.124339 0)
(11.5461 -0.16189 0)
(10.0046 -0.459687 0)
(10.5594 -0.700742 0)
(11.1684 -0.546448 0)
(11.3667 -0.350491 0)
(11.5584 -0.26363 0)
(11.4481 -0.225352 0)
(11.4948 -0.200932 0)
(11.2848 -0.174404 0)
(11.3038 -0.147786 0)
(11.0598 -0.125302 0)
(11.0917 -0.104524 0)
(10.8379 -0.094858 0)
(10.89 -0.0804998 0)
(10.6289 -0.0834222 0)
(10.693 -0.0706685 0)
(10.4218 -0.0876643 0)
(10.4802 -0.0739685 0)
(10.1915 -0.11549 0)
(10.1985 -0.0950296 0)
(9.86367 -0.160539 0)
(10.0601 -0.633031 0)
(10.6548 -0.859436 0)
(10.8665 -0.600954 0)
(10.6897 -0.372153 0)
(10.4584 -0.256815 0)
(10.0814 -0.194939 0)
(9.84343 -0.153572 0)
(9.48738 -0.121098 0)
(9.33 -0.0944112 0)
(9.02286 -0.0751246 0)
(8.95235 -0.0593504 0)
(8.6817 -0.0525598 0)
(8.67479 -0.0442353 0)
(8.41537 -0.0460889 0)
(8.4451 -0.0409564 0)
(8.17679 -0.0502934 0)
(8.21681 -0.048041 0)
(7.92003 -0.0695477 0)
(7.92348 -0.0706619 0)
(7.57721 -0.0895013 0)
(10.0813 -0.838136 0)
(9.65621 -0.865262 0)
(8.87404 -0.506279 0)
(8.08825 -0.261199 0)
(7.49855 -0.138622 0)
(7.01091 -0.0815508 0)
(6.7067 -0.0540116 0)
(6.40226 -0.0399661 0)
(6.24426 -0.0297801 0)
(6.02455 -0.0240804 0)
(5.95506 -0.0187167 0)
(5.77334 -0.018266 0)
(5.75485 -0.0154047 0)
(5.57916 -0.0185452 0)
(5.5852 -0.0162922 0)
(5.3965 -0.0228641 0)
(5.40664 -0.0218777 0)
(5.18444 -0.0326306 0)
(5.17402 -0.0382581 0)
(4.87935 -0.019571 0)
(8.09142 -0.387733 0)
(5.45377 -0.242107 0)
(3.91945 -0.0432038 0)
(3.16655 0.0152988 0)
(2.80933 0.0180435 0)
(2.6064 0.0111375 0)
(2.49437 0.00561166 0)
(2.38919 0.00228408 0)
(2.33294 0.00147307 0)
(2.25882 0.000439981 0)
(2.23344 0.000708238 0)
(2.17241 -0.000237182 0)
(2.16191 0.000197394 0)
(2.09895 -0.00107607 0)
(2.09249 -0.000310413 0)
(2.01972 -0.00225663 0)
(2.00795 -0.00110444 0)
(1.91677 -0.00382597 0)
(1.87919 -0.0042567 0)
(1.72773 0.0112412 0)
(2.27703 -0.11567 0)
(2.32463 -0.0210367 0)
(2.55178 0.00199034 0)
(2.61464 0.00111562 0)
(2.84076 -0.0156866 0)
(2.87721 -0.0217962 0)
(3.08354 -0.0328229 0)
(3.08787 -0.0316108 0)
(3.26811 -0.0407072 0)
(3.24462 -0.0415466 0)
(3.41059 -0.0510406 0)
(3.36849 -0.0506336 0)
(3.5326 -0.0597938 0)
(3.48379 -0.058354 0)
(3.65251 -0.0668534 0)
(3.60211 -0.064319 0)
(3.77951 -0.0717644 0)
(3.72971 -0.0679027 0)
(3.92001 -0.0748302 0)
(3.87221 -0.0697851 0)
(4.0729 -0.0793921 0)
(4.02403 -0.0783124 0)
(4.2312 -0.0923137 0)
(4.17661 -0.0946019 0)
(4.38511 -0.112684 0)
(4.32108 -0.117936 0)
(4.52766 -0.137984 0)
(4.45331 -0.142016 0)
(4.65829 -0.159469 0)
(4.57888 -0.159652 0)
(4.78608 -0.175112 0)
(4.70933 -0.173583 0)
(4.92365 -0.18846 0)
(4.85069 -0.185515 0)
(5.07025 -0.199862 0)
(4.99771 -0.196086 0)
(5.22355 -0.210982 0)
(5.14859 -0.20722 0)
(5.38282 -0.223742 0)
(5.3028 -0.22168 0)
(5.54718 -0.240925 0)
(5.45936 -0.243204 0)
(5.71404 -0.26867 0)
(5.6159 -0.276054 0)
(5.87506 -0.306333 0)
(5.76449 -0.315854 0)
(6.02486 -0.348862 0)
(5.90555 -0.356228 0)
(6.16571 -0.388684 0)
(6.04173 -0.391603 0)
(6.30396 -0.421353 0)
(6.17654 -0.419085 0)
(6.44752 -0.445938 0)
(6.31543 -0.440787 0)
(6.60171 -0.467139 0)
(6.46096 -0.460573 0)
(6.76591 -0.488039 0)
(6.61377 -0.481703 0)
(6.93607 -0.510103 0)
(6.77029 -0.503672 0)
(7.10798 -0.534923 0)
(6.93424 -0.530555 0)
(7.28436 -0.56766 0)
(7.1106 -0.568005 0)
(7.46387 -0.61351 0)
(7.29202 -0.61899 0)
(7.63648 -0.670524 0)
(7.45948 -0.678746 0)
(7.79161 -0.730987 0)
(7.60392 -0.738166 0)
(7.92987 -0.79104 0)
(7.73021 -0.793729 0)
(8.05491 -0.843394 0)
(7.8432 -0.84057 0)
(8.17918 -0.887851 0)
(7.95818 -0.879664 0)
(8.31077 -0.9247 0)
(8.08735 -0.912108 0)
(8.45509 -0.958931 0)
(8.22943 -0.942453 0)
(8.60954 -0.990324 0)
(8.37747 -0.970241 0)
(8.76594 -1.01568 0)
(8.52161 -0.99387 0)
(8.91357 -1.03883 0)
(8.66176 -1.01551 0)
(9.04187 -1.06383 0)
(8.79512 -1.03959 0)
(9.15109 -1.08938 0)
(8.91035 -1.06177 0)
(9.24077 -1.10913 0)
(9.00717 -1.07956 0)
(9.31531 -1.12516 0)
(9.08317 -1.09242 0)
(9.37409 -1.13499 0)
(9.14229 -1.09595 0)
(9.42142 -1.13658 0)
(9.18788 -1.09359 0)
(9.46073 -1.13213 0)
(9.23246 -1.08606 0)
(9.50407 -1.12704 0)
(9.27917 -1.07798 0)
(9.55185 -1.11994 0)
(9.32104 -1.06244 0)
(9.59307 -1.10241 0)
(9.35549 -1.03819 0)
(9.62244 -1.08347 0)
(9.37276 -1.01512 0)
(9.62751 -1.0629 0)
(9.36987 -0.986137 0)
(9.61348 -1.03309 0)
(9.34804 -0.951902 0)
(9.57928 -0.997643 0)
(9.30981 -0.913933 0)
(9.53429 -0.96167 0)
(9.27099 -0.872832 0)
(9.49117 -0.918981 0)
(9.24305 -0.827359 0)
(9.45259 -0.874231 0)
(9.21576 -0.782138 0)
(9.41626 -0.829802 0)
(9.19384 -0.737212 0)
(9.39022 -0.789892 0)
(9.17651 -0.69522 0)
(9.36746 -0.751438 0)
(9.14958 -0.657052 0)
(9.34423 -0.71016 0)
(9.11857 -0.611523 0)
(9.32056 -0.658099 0)
(9.09713 -0.554929 0)
(9.29783 -0.595348 0)
(9.08535 -0.489772 0)
(9.2721 -0.529369 0)
(9.07277 -0.428586 0)
(9.24657 -0.474324 0)
(9.05813 -0.378703 0)
(9.22227 -0.42161 0)
(9.04644 -0.320415 0)
(9.20122 -0.361131 0)
(9.04229 -0.261356 0)
(9.18403 -0.3035 0)
(9.0392 -0.207588 0)
(9.16264 -0.242331 0)
(9.03677 -0.147792 0)
(9.14177 -0.182989 0)
(9.03484 -0.0912835 0)
(9.10999 -0.113553 0)
(9.01927 -0.026949 0)
(9.07333 -0.0455726 0)
(8.99544 0.0385157 0)
(9.02427 0.0206465 0)
(8.95637 0.110849 0)
(8.96476 0.101341 0)
(8.90956 0.193567 0)
(8.90965 0.178669 0)
(8.86702 0.276757 0)
(8.85994 0.265431 0)
(8.81247 0.362546 0)
(8.81462 0.345461 0)
(8.76195 0.450124 0)
(8.77651 0.414398 0)
(8.6981 0.530485 0)
(8.74309 0.485729 0)
(8.6241 0.606447 0)
(8.70555 0.562858 0)
(8.54772 0.692716 0)
(8.66659 0.640491 0)
(8.47687 0.780957 0)
(8.62543 0.723969 0)
(8.39629 0.881873 0)
(8.57512 0.798859 0)
(8.29595 0.978144 0)
(8.52901 0.885365 0)
(8.1589 1.08869 0)
(8.47218 0.972919 0)
(8.02322 1.22857 0)
(8.40287 1.0714 0)
(7.88263 1.3747 0)
(8.34728 1.17738 0)
(7.74408 1.52798 0)
(8.28964 1.29822 0)
(7.61105 1.68957 0)
(8.21421 1.43297 0)
(7.48591 1.85607 0)
(8.10266 1.58675 0)
(7.36008 2.03165 0)
(7.94169 1.76977 0)
(7.21772 2.22632 0)
(7.74481 1.99214 0)
(7.04467 2.45176 0)
(7.51602 2.26126 0)
(6.80372 2.72233 0)
(7.23266 2.60904 0)
(6.49346 3.1166 0)
(6.83731 3.07985 0)
(6.11616 3.78196 0)
(6.3396 3.8155 0)
(5.43217 4.91973 0)
(6.41617 5.43607 0)
(4.10042 8.42306 0)
(5.34109 -0.0759303 0)
(5.26363 -0.0407243 0)
(5.38126 -0.0374907 0)
(5.32025 -0.048007 0)
(5.49421 -0.0731335 0)
(5.45405 -0.0833713 0)
(5.63933 -0.0950473 0)
(5.57966 -0.0906831 0)
(5.7511 -0.0945747 0)
(5.66537 -0.0893679 0)
(5.83089 -0.0966932 0)
(5.73145 -0.094705 0)
(5.90376 -0.104882 0)
(5.80048 -0.103536 0)
(5.98476 -0.113714 0)
(5.87986 -0.111315 0)
(6.07604 -0.120902 0)
(5.96858 -0.117196 0)
(6.17522 -0.126873 0)
(6.06478 -0.122906 0)
(6.28045 -0.134299 0)
(6.16588 -0.132827 0)
(6.38851 -0.14765 0)
(6.26782 -0.148695 0)
(6.49561 -0.166533 0)
(6.36725 -0.169184 0)
(6.59911 -0.188187 0)
(6.46295 -0.190013 0)
(6.69841 -0.208431 0)
(6.55543 -0.208385 0)
(6.7964 -0.225948 0)
(6.64904 -0.224341 0)
(6.89867 -0.241946 0)
(6.74773 -0.239293 0)
(7.00671 -0.256705 0)
(6.85037 -0.252769 0)
(7.11894 -0.27026 0)
(6.95619 -0.265902 0)
(7.23415 -0.284777 0)
(7.0649 -0.281501 0)
(7.35172 -0.303684 0)
(7.17749 -0.302868 0)
(7.47117 -0.330343 0)
(7.29299 -0.332791 0)
(7.59068 -0.364905 0)
(7.40714 -0.368678 0)
(7.70659 -0.403204 0)
(7.51602 -0.406409 0)
(7.81779 -0.440721 0)
(7.61778 -0.441359 0)
(7.92579 -0.473483 0)
(7.71344 -0.470194 0)
(8.0326 -0.500355 0)
(7.80687 -0.493901 0)
(8.14091 -0.523685 0)
(7.9023 -0.515305 0)
(8.25205 -0.546158 0)
(8.00343 -0.537829 0)
(8.36731 -0.571213 0)
(8.11257 -0.563581 0)
(8.48705 -0.600341 0)
(8.2295 -0.594182 0)
(8.61036 -0.635989 0)
(8.35268 -0.63278 0)
(8.73489 -0.680649 0)
(8.47828 -0.680182 0)
(8.85613 -0.731777 0)
(8.59817 -0.733051 0)
(8.97183 -0.787507 0)
(8.70959 -0.789034 0)
(9.08118 -0.842529 0)
(8.81103 -0.839697 0)
(9.18493 -0.891765 0)
(8.90692 -0.884529 0)
(9.28572 -0.937129 0)
(9.00309 -0.924358 0)
(9.38523 -0.977449 0)
(9.10149 -0.959967 0)
(9.48518 -1.01341 0)
(9.19973 -0.992922 0)
(9.5861 -1.04506 0)
(9.29533 -1.01898 0)
(9.68211 -1.06974 0)
(9.3874 -1.039 0)
(9.76525 -1.08882 0)
(9.47284 -1.05621 0)
(9.83626 -1.10826 0)
(9.5517 -1.07446 0)
(9.89306 -1.12594 0)
(9.61588 -1.09056 0)
(9.93973 -1.14162 0)
(9.6689 -1.10326 0)
(9.97403 -1.15214 0)
(9.70409 -1.10937 0)
(9.99297 -1.15498 0)
(9.72403 -1.10698 0)
(10.0039 -1.15114 0)
(9.73463 -1.10014 0)
(10.0112 -1.14496 0)
(9.74436 -1.09417 0)
(10.0217 -1.14224 0)
(9.75117 -1.08525 0)
(10.0259 -1.13268 0)
(9.74769 -1.06673 0)
(10.0244 -1.1123 0)
(9.74089 -1.04012 0)
(10.0106 -1.08623 0)
(9.72067 -1.00849 0)
(9.97762 -1.05829 0)
(9.68143 -0.973798 0)
(9.92774 -1.02252 0)
(9.62621 -0.929124 0)
(9.86412 -0.981205 0)
(9.56415 -0.887113 0)
(9.79607 -0.943596 0)
(9.50683 -0.848272 0)
(9.73097 -0.905357 0)
(9.45274 -0.805801 0)
(9.67178 -0.862111 0)
(9.39988 -0.763136 0)
(9.62239 -0.820605 0)
(9.35474 -0.721477 0)
(9.58112 -0.78202 0)
(9.31002 -0.677265 0)
(9.53863 -0.740239 0)
(9.25905 -0.633502 0)
(9.49247 -0.698685 0)
(9.20881 -0.589755 0)
(9.44404 -0.649214 0)
(9.16613 -0.536357 0)
(9.39966 -0.590771 0)
(9.12994 -0.474537 0)
(9.36073 -0.524399 0)
(9.09717 -0.413898 0)
(9.32674 -0.467672 0)
(9.06004 -0.361912 0)
(9.29159 -0.416031 0)
(9.03065 -0.31097 0)
(9.26269 -0.360582 0)
(9.01648 -0.256073 0)
(9.24076 -0.303531 0)
(9.00339 -0.200515 0)
(9.21494 -0.244797 0)
(8.98682 -0.137303 0)
(9.19045 -0.182865 0)
(8.95986 -0.0745959 0)
(9.1643 -0.109262 0)
(8.93305 -0.00966098 0)
(9.1342 -0.0405699 0)
(8.91501 0.059536 0)
(9.09024 0.0351987 0)
(8.88169 0.135808 0)
(9.03463 0.113616 0)
(8.84108 0.218725 0)
(8.98374 0.1903 0)
(8.80116 0.303182 0)
(8.93678 0.273475 0)
(8.75631 0.389901 0)
(8.90669 0.345769 0)
(8.71386 0.482388 0)
(8.89042 0.411368 0)
(8.65418 0.566862 0)
(8.87755 0.482749 0)
(8.60265 0.647795 0)
(8.85476 0.553006 0)
(8.56316 0.736597 0)
(8.83406 0.623899 0)
(8.5168 0.83666 0)
(8.79742 0.703036 0)
(8.45681 0.94918 0)
(8.77166 0.776442 0)
(8.36964 1.06114 0)
(8.74132 0.86464 0)
(8.26351 1.19119 0)
(8.69409 0.946571 0)
(8.13945 1.32593 0)
(8.66998 1.03707 0)
(8.00633 1.466 0)
(8.66524 1.13965 0)
(7.87888 1.62124 0)
(8.64724 1.26778 0)
(7.77644 1.78626 0)
(8.59614 1.41689 0)
(7.68174 1.95456 0)
(8.50715 1.5815 0)
(7.58461 2.13229 0)
(8.39762 1.77775 0)
(7.45865 2.33067 0)
(8.26533 2.00772 0)
(7.31601 2.58157 0)
(8.10197 2.28913 0)
(7.16719 2.91616 0)
(7.87514 2.63129 0)
(6.99516 3.38964 0)
(7.6182 3.11249 0)
(6.7087 4.08554 0)
(7.60477 3.90556 0)
(6.06659 5.34306 0)
(8.49991 4.75937 0)
(6.51745 8.88543 0)
(8.03136 -0.0798297 0)
(7.90866 -0.0531523 0)
(8.0359 -0.061332 0)
(7.92725 -0.0734328 0)
(8.10638 -0.0992404 0)
(8.01887 -0.106392 0)
(8.20974 -0.117427 0)
(8.10022 -0.109767 0)
(8.27645 -0.113388 0)
(8.13966 -0.105053 0)
(8.3122 -0.113352 0)
(8.16423 -0.110254 0)
(8.34674 -0.123661 0)
(8.19664 -0.122932 0)
(8.39305 -0.137584 0)
(8.24206 -0.13579 0)
(8.4508 -0.1494 0)
(8.29677 -0.145527 0)
(8.51456 -0.158351 0)
(8.35557 -0.153765 0)
(8.58055 -0.167732 0)
(8.41605 -0.164525 0)
(8.64746 -0.181117 0)
(8.47695 -0.179897 0)
(8.71423 -0.19904 0)
(8.53719 -0.199069 0)
(8.77992 -0.219484 0)
(8.5958 -0.219244 0)
(8.84376 -0.239624 0)
(8.65145 -0.238107 0)
(8.90533 -0.258039 0)
(8.70465 -0.255326 0)
(8.96625 -0.275336 0)
(8.75718 -0.271761 0)
(9.0277 -0.292022 0)
(8.81033 -0.287345 0)
(9.09046 -0.308044 0)
(8.86648 -0.302489 0)
(9.15569 -0.324755 0)
(8.92745 -0.319334 0)
(9.22414 -0.344877 0)
(8.99447 -0.341234 0)
(9.2967 -0.371263 0)
(9.06594 -0.370246 0)
(9.37179 -0.404163 0)
(9.13778 -0.40478 0)
(9.44593 -0.440496 0)
(9.20479 -0.440576 0)
(9.51593 -0.476004 0)
(9.26416 -0.473473 0)
(9.58089 -0.507417 0)
(9.31694 -0.50129 0)
(9.64182 -0.533961 0)
(9.36617 -0.524744 0)
(9.70071 -0.557782 0)
(9.4168 -0.546837 0)
(9.76017 -0.582281 0)
(9.47338 -0.571223 0)
(9.82272 -0.610305 0)
(9.53716 -0.599686 0)
(9.88813 -0.641677 0)
(9.60526 -0.631958 0)
(9.9547 -0.677061 0)
(9.67357 -0.669834 0)
(10.0211 -0.718772 0)
(9.73926 -0.714267 0)
(10.0867 -0.767539 0)
(9.80332 -0.765319 0)
(10.1533 -0.82251 0)
(9.86576 -0.819739 0)
(10.2162 -0.876811 0)
(9.92363 -0.869831 0)
(10.2757 -0.925092 0)
(9.97754 -0.914713 0)
(10.3309 -0.970031 0)
(10.0271 -0.955247 0)
(10.3797 -1.01021 0)
(10.0727 -0.990266 0)
(10.4233 -1.04525 0)
(10.1169 -1.02148 0)
(10.4625 -1.07455 0)
(10.1571 -1.04465 0)
(10.4962 -1.09664 0)
(10.1949 -1.06024 0)
(10.5218 -1.11135 0)
(10.2288 -1.07351 0)
(10.541 -1.12508 0)
(10.2532 -1.08561 0)
(10.5507 -1.13839 0)
(10.2697 -1.09975 0)
(10.5554 -1.15143 0)
(10.2772 -1.10752 0)
(10.5466 -1.15636 0)
(10.2693 -1.10667 0)
(10.5231 -1.15283 0)
(10.2484 -1.09978 0)
(10.4859 -1.1465 0)
(10.2175 -1.0925 0)
(10.4495 -1.14313 0)
(10.1876 -1.08772 0)
(10.4114 -1.13929 0)
(10.1493 -1.07525 0)
(10.3644 -1.12804 0)
(10.106 -1.05636 0)
(10.3165 -1.10614 0)
(10.0599 -1.02674 0)
(10.2595 -1.07517 0)
(10.0051 -0.987999 0)
(10.1909 -1.03673 0)
(9.93211 -0.942515 0)
(10.1014 -0.993254 0)
(9.8461 -0.893581 0)
(10.0062 -0.950032 0)
(9.76542 -0.852573 0)
(9.91814 -0.914458 0)
(9.68881 -0.813453 0)
(9.82671 -0.876193 0)
(9.60754 -0.771211 0)
(9.74221 -0.838605 0)
(9.53485 -0.731494 0)
(9.67553 -0.802665 0)
(9.4727 -0.691062 0)
(9.61314 -0.762692 0)
(9.40844 -0.646218 0)
(9.54782 -0.718553 0)
(9.345 -0.600411 0)
(9.47914 -0.677875 0)
(9.27828 -0.557268 0)
(9.40584 -0.63161 0)
(9.21314 -0.504928 0)
(9.33703 -0.574917 0)
(9.14777 -0.443842 0)
(9.28488 -0.513698 0)
(9.09119 -0.385813 0)
(9.24133 -0.455879 0)
(9.03789 -0.332052 0)
(9.19736 -0.406868 0)
(8.99801 -0.288956 0)
(9.15959 -0.35778 0)
(8.96844 -0.236553 0)
(9.12834 -0.304604 0)
(8.94548 -0.176561 0)
(9.08792 -0.242086 0)
(8.91524 -0.11233 0)
(9.05676 -0.178525 0)
(8.88216 -0.0467287 0)
(9.0309 -0.105824 0)
(8.85597 0.0226505 0)
(9.0054 -0.0404112 0)
(8.83214 0.0931823 0)
(8.97091 0.0344821 0)
(8.81692 0.17793 0)
(8.93023 0.106596 0)
(8.79111 0.259672 0)
(8.88852 0.183738 0)
(8.74952 0.349769 0)
(8.85435 0.25934 0)
(8.70685 0.4352 0)
(8.83488 0.327896 0)
(8.66404 0.526918 0)
(8.82326 0.401983 0)
(8.62266 0.61107 0)
(8.81916 0.465687 0)
(8.60437 0.693185 0)
(8.8093 0.529034 0)
(8.57922 0.779939 0)
(8.79823 0.597882 0)
(8.54812 0.890908 0)
(8.78957 0.680171 0)
(8.493 1.00394 0)
(8.80635 0.755695 0)
(8.40688 1.13083 0)
(8.81584 0.844157 0)
(8.29856 1.27623 0)
(8.83949 0.93523 0)
(8.16943 1.41506 0)
(8.87346 1.01878 0)
(8.05291 1.55368 0)
(8.88921 1.11366 0)
(7.95493 1.70295 0)
(8.87633 1.233 0)
(7.87941 1.86855 0)
(8.84146 1.38288 0)
(7.81045 2.05057 0)
(8.78656 1.55171 0)
(7.72847 2.24527 0)
(8.72061 1.7453 0)
(7.64947 2.4774 0)
(8.61895 1.96088 0)
(7.58112 2.75127 0)
(8.4965 2.22464 0)
(7.51659 3.107 0)
(8.41082 2.57547 0)
(7.38748 3.57729 0)
(8.50412 3.06063 0)
(7.08768 4.32141 0)
(9.02053 3.58058 0)
(6.79799 5.86222 0)
(9.74874 3.67942 0)
(8.15469 8.16616 0)
(10.2925 -0.0882188 0)
(10.1447 -0.113159 0)
(10.2765 -0.143423 0)
(10.1401 -0.144648 0)
(10.3238 -0.154761 0)
(10.2088 -0.141314 0)
(10.4004 -0.142125 0)
(10.2616 -0.124728 0)
(10.4379 -0.12784 0)
(10.2744 -0.115015 0)
(10.4475 -0.125437 0)
(10.2745 -0.119366 0)
(10.4564 -0.136351 0)
(10.2823 -0.133638 0)
(10.4766 -0.152629 0)
(10.302 -0.149018 0)
(10.5067 -0.166917 0)
(10.3293 -0.160863 0)
(10.5416 -0.177552 0)
(10.3596 -0.170142 0)
(10.5784 -0.187352 0)
(10.391 -0.180523 0)
(10.6153 -0.19996 0)
(10.4221 -0.194728 0)
(10.6513 -0.216679 0)
(10.4519 -0.212605 0)
(10.6852 -0.236058 0)
(10.4792 -0.231779 0)
(10.7163 -0.25548 0)
(10.5035 -0.24999 0)
(10.7441 -0.273352 0)
(10.5247 -0.266462 0)
(10.7693 -0.289795 0)
(10.5438 -0.282055 0)
(10.7928 -0.305949 0)
(10.5621 -0.297605 0)
(10.8163 -0.322504 0)
(10.5818 -0.314145 0)
(10.8417 -0.340982 0)
(10.6047 -0.333385 0)
(10.8706 -0.363097 0)
(10.6313 -0.357523 0)
(10.9027 -0.390948 0)
(10.66 -0.387596 0)
(10.9358 -0.424192 0)
(10.6877 -0.421722 0)
(10.9668 -0.459819 0)
(10.7114 -0.45595 0)
(10.9933 -0.493682 0)
(10.7302 -0.486489 0)
(11.015 -0.522897 0)
(10.7456 -0.512051 0)
(11.033 -0.547345 0)
(10.7596 -0.53388 0)
(11.0494 -0.569948 0)
(10.7759 -0.555821 0)
(11.0671 -0.594622 0)
(10.7958 -0.580882 0)
(11.0863 -0.62271 0)
(10.8166 -0.609243 0)
(11.1045 -0.653857 0)
(10.8357 -0.641315 0)
(11.1204 -0.689135 0)
(10.8521 -0.678434 0)
(11.1337 -0.729842 0)
(10.8658 -0.722634 0)
(11.147 -0.77972 0)
(10.8793 -0.776255 0)
(11.1614 -0.835382 0)
(10.8903 -0.83049 0)
(11.1728 -0.889354 0)
(10.8951 -0.880398 0)
(11.1787 -0.936849 0)
(10.8967 -0.924532 0)
(11.1785 -0.979275 0)
(10.8911 -0.962993 0)
(11.1704 -1.01637 0)
(10.882 -0.996542 0)
(11.1585 -1.0502 0)
(10.8745 -1.02577 0)
(11.144 -1.07697 0)
(10.8663 -1.04829 0)
(11.1266 -1.09668 0)
(10.8555 -1.06175 0)
(11.1072 -1.11014 0)
(10.8428 -1.07246 0)
(11.0835 -1.11989 0)
(10.8229 -1.08313 0)
(11.0579 -1.13324 0)
(10.8025 -1.09476 0)
(11.0251 -1.14138 0)
(10.7683 -1.09459 0)
(10.9754 -1.13852 0)
(10.718 -1.08623 0)
(10.9109 -1.12967 0)
(10.6546 -1.07405 0)
(10.8322 -1.12254 0)
(10.5856 -1.06936 0)
(10.7555 -1.12182 0)
(10.5124 -1.06183 0)
(10.6708 -1.11247 0)
(10.4338 -1.04759 0)
(10.5882 -1.10379 0)
(10.36 -1.03082 0)
(10.5079 -1.08165 0)
(10.2813 -0.998618 0)
(10.417 -1.04648 0)
(10.1901 -0.952645 0)
(10.3114 -0.99966 0)
(10.0842 -0.900007 0)
(10.1882 -0.948737 0)
(9.96913 -0.85079 0)
(10.0683 -0.911292 0)
(9.8679 -0.81544 0)
(9.9566 -0.875067 0)
(9.7631 -0.772078 0)
(9.84204 -0.835084 0)
(9.65676 -0.730917 0)
(9.73184 -0.804996 0)
(9.56395 -0.695297 0)
(9.63888 -0.774936 0)
(9.47885 -0.656467 0)
(9.55603 -0.733146 0)
(9.39543 -0.613748 0)
(9.4763 -0.689727 0)
(9.31417 -0.571317 0)
(9.39066 -0.647211 0)
(9.2297 -0.524273 0)
(9.30262 -0.598113 0)
(9.14314 -0.472616 0)
(9.21586 -0.543098 0)
(9.05941 -0.416607 0)
(9.14471 -0.490316 0)
(8.98987 -0.360485 0)
(9.08649 -0.437076 0)
(8.9276 -0.310978 0)
(9.03595 -0.391843 0)
(8.87495 -0.270724 0)
(8.9857 -0.348294 0)
(8.83049 -0.218133 0)
(8.94691 -0.298117 0)
(8.7843 -0.153277 0)
(8.90566 -0.230197 0)
(8.73918 -0.0915189 0)
(8.87724 -0.173078 0)
(8.70682 -0.0221792 0)
(8.84848 -0.10634 0)
(8.68023 0.0450421 0)
(8.83355 -0.0431546 0)
(8.65361 0.116472 0)
(8.81599 0.0231087 0)
(8.63442 0.203795 0)
(8.80929 0.103353 0)
(8.59587 0.289977 0)
(8.79874 0.18451 0)
(8.55385 0.385541 0)
(8.77772 0.255779 0)
(8.51975 0.475633 0)
(8.76262 0.325413 0)
(8.48021 0.552526 0)
(8.75421 0.384404 0)
(8.46591 0.634327 0)
(8.76569 0.435998 0)
(8.43931 0.717012 0)
(8.80748 0.504665 0)
(8.39344 0.812779 0)
(8.83568 0.571454 0)
(8.33914 0.933576 0)
(8.87763 0.64963 0)
(8.28628 1.05414 0)
(8.92531 0.721882 0)
(8.21683 1.19927 0)
(8.97092 0.802898 0)
(8.12704 1.34195 0)
(9.02644 0.880605 0)
(8.05718 1.47482 0)
(9.05606 0.967529 0)
(8.01152 1.61642 0)
(9.04861 1.07188 0)
(7.9746 1.77163 0)
(9.02561 1.19414 0)
(7.94434 1.94912 0)
(8.99882 1.33453 0)
(7.92501 2.14135 0)
(8.98218 1.4971 0)
(7.90526 2.3509 0)
(8.95586 1.67289 0)
(7.8915 2.59195 0)
(8.94507 1.89162 0)
(7.85239 2.88031 0)
(8.97703 2.15245 0)
(7.77162 3.25016 0)
(9.13025 2.46547 0)
(7.61546 3.77653 0)
(9.49932 2.76641 0)
(7.45748 4.67596 0)
(10.09 2.90754 0)
(7.76949 6.09826 0)
(10.3494 3.10795 0)
(9.15481 7.1656 0)
(11.7988 -0.0743232 0)
(11.6797 -0.137499 0)
(11.8267 -0.189776 0)
(11.7263 -0.185495 0)
(11.889 -0.187811 0)
(11.7852 -0.157357 0)
(11.941 -0.152838 0)
(11.8118 -0.127098 0)
(11.9527 -0.133363 0)
(11.8039 -0.117497 0)
(11.9412 -0.133644 0)
(11.7857 -0.124897 0)
(11.9301 -0.147008 0)
(11.7757 -0.140774 0)
(11.9307 -0.164286 0)
(11.7776 -0.156904 0)
(11.9413 -0.179316 0)
(11.787 -0.169518 0)
(11.9568 -0.190702 0)
(11.7989 -0.179385 0)
(11.9731 -0.200879 0)
(11.8102 -0.189726 0)
(11.9878 -0.213108 0)
(11.8192 -0.203128 0)
(11.9996 -0.228782 0)
(11.8251 -0.21969 0)
(12.008 -0.246864 0)
(11.8278 -0.237495 0)
(12.0134 -0.265137 0)
(11.8283 -0.254475 0)
(12.0166 -0.281898 0)
(11.8275 -0.269656 0)
(12.0183 -0.297186 0)
(11.8266 -0.283885 0)
(12.0193 -0.312156 0)
(11.8261 -0.298512 0)
(12.0206 -0.328264 0)
(11.8268 -0.315189 0)
(12.0228 -0.347121 0)
(11.8284 -0.335468 0)
(12.0261 -0.370256 0)
(11.83 -0.360636 0)
(12.0294 -0.398529 0)
(11.8301 -0.390635 0)
(12.031 -0.431098 0)
(11.8271 -0.423576 0)
(12.0289 -0.465164 0)
(11.8199 -0.4562 0)
(12.0219 -0.497344 0)
(11.8086 -0.485348 0)
(12.0095 -0.525235 0)
(11.7945 -0.509903 0)
(11.9938 -0.549263 0)
(11.7806 -0.532064 0)
(11.978 -0.572594 0)
(11.7693 -0.555002 0)
(11.9633 -0.59721 0)
(11.7581 -0.579739 0)
(11.9476 -0.623624 0)
(11.7438 -0.607197 0)
(11.9304 -0.653515 0)
(11.7255 -0.638469 0)
(11.9115 -0.687299 0)
(11.7028 -0.673869 0)
(11.8912 -0.726932 0)
(11.6791 -0.717593 0)
(11.8713 -0.776266 0)
(11.6531 -0.769383 0)
(11.8454 -0.829889 0)
(11.6206 -0.821097 0)
(11.8122 -0.880781 0)
(11.5812 -0.868478 0)
(11.7721 -0.926821 0)
(11.5383 -0.910443 0)
(11.7241 -0.966378 0)
(11.4889 -0.94664 0)
(11.6693 -1.00219 0)
(11.4387 -0.980856 0)
(11.6156 -1.03649 0)
(11.3911 -1.01084 0)
(11.5634 -1.06377 0)
(11.3439 -1.03339 0)
(11.5098 -1.08087 0)
(11.2953 -1.04677 0)
(11.4589 -1.09398 0)
(11.2432 -1.05617 0)
(11.4063 -1.10366 0)
(11.1918 -1.06797 0)
(11.3539 -1.11709 0)
(11.1366 -1.07296 0)
(11.2877 -1.1166 0)
(11.063 -1.06472 0)
(11.2061 -1.1084 0)
(10.9754 -1.05108 0)
(11.1109 -1.09657 0)
(10.8804 -1.03634 0)
(11.0082 -1.09014 0)
(10.7846 -1.02927 0)
(10.897 -1.08472 0)
(10.6781 -1.0175 0)
(10.7838 -1.07553 0)
(10.5809 -1.00828 0)
(10.6804 -1.06941 0)
(10.4821 -0.990666 0)
(10.5694 -1.04192 0)
(10.3701 -0.953006 0)
(10.442 -1.00053 0)
(10.2444 -0.902275 0)
(10.3003 -0.949638 0)
(10.1092 -0.843251 0)
(10.1494 -0.894561 0)
(9.97967 -0.799343 0)
(10.0115 -0.864247 0)
(9.85366 -0.763236 0)
(9.87143 -0.824641 0)
(9.72431 -0.716039 0)
(9.73566 -0.784355 0)
(9.59632 -0.676292 0)
(9.60982 -0.758707 0)
(9.48013 -0.645929 0)
(9.49536 -0.733586 0)
(9.36858 -0.611874 0)
(9.39581 -0.696072 0)
(9.26555 -0.571787 0)
(9.29938 -0.654754 0)
(9.16392 -0.52767 0)
(9.197 -0.610839 0)
(9.06367 -0.478128 0)
(9.09557 -0.561267 0)
(8.96157 -0.425308 0)
(8.99747 -0.510267 0)
(8.8675 -0.376379 0)
(8.90895 -0.462356 0)
(8.78958 -0.32447 0)
(8.83616 -0.416842 0)
(8.72672 -0.27831 0)
(8.77716 -0.372416 0)
(8.66052 -0.23616 0)
(8.71816 -0.333144 0)
(8.5983 -0.185018 0)
(8.67152 -0.281033 0)
(8.5301 -0.122481 0)
(8.63411 -0.218521 0)
(8.48579 -0.0662269 0)
(8.59628 -0.16879 0)
(8.45346 0.00922446 0)
(8.56729 -0.111152 0)
(8.42545 0.0701556 0)
(8.5657 -0.0548615 0)