/*--------------------------------*- C++ -*----------------------------------*\
| =========                 |                                                 |
| \\      /  F ield         | OpenFOAM: The Open Source CFD Toolbox           |
|  \\    /   O peration     | Version:  2.4.0                                 |
|   \\  /    A nd           | Web:      www.OpenFOAM.org                      |
|    \\/     M anipulation  |                                                 |
\*---------------------------------------------------------------------------*/
FoamFile
{
    version     2.0;
    format      ascii;
    class       volSymmTensorField;
    location    "1.85";
    object      UPrime2Mean;
}
// * * * * * * * * * * * * * * * * * * * * * * * * * * * * * * * * * * * * * //

dimensions      [0 2 -2 0 0 0 0];

internalField   nonuniform List<symmTensor> 
8800
(
(0.00093657 4.9459e-05 0 0.000104521 0 0)
(0.0174517 -0.000677436 0 3.95233e-05 0 0)
(0.034286 -6.32966e-05 0 1.08468e-05 0 0)
(0.0433199 8.77806e-05 0 6.06179e-06 0 0)
(0.0491406 5.83726e-05 0 5.10918e-06 0 0)
(0.0552005 2.13072e-05 0 6.55268e-06 0 0)
(0.0582714 -1.06089e-05 0 7.67173e-06 0 0)
(0.0612669 -5.27295e-05 0 9.97525e-06 0 0)
(0.0639093 -7.10671e-05 0 1.05875e-05 0 0)
(0.0650368 -9.86277e-05 0 1.3134e-05 0 0)
(0.0679862 -0.000112492 0 1.31747e-05 0 0)
(0.0681376 -0.000142691 0 1.63812e-05 0 0)
(0.0714217 -0.000165527 0 1.58728e-05 0 0)
(0.0715167 -0.000189203 0 1.96844e-05 0 0)
(0.0757483 -0.000268811 0 1.89127e-05 0 0)
(0.0761063 -0.000202893 0 2.43256e-05 0 0)
(0.0852379 -0.000738525 0 2.6323e-05 0 0)
(0.0834281 0.000814764 0 6.95383e-05 0 0)
(0.136161 -0.0091755 0 0.000955931 0 0)
(0.14347 0.0162522 0 0.00322839 0 0)
(0.00563343 0.00144024 0 0.000636824 0 0)
(0.00161669 -0.000660062 0 0.000846426 0 0)
(0.0111572 -0.00110839 0 0.000368567 0 0)
(0.0176637 -0.00132943 0 0.000159616 0 0)
(0.0264631 -0.00121154 0 0.000101271 0 0)
(0.0391355 -0.00114877 0 8.66293e-05 0 0)
(0.0500883 -0.00145165 0 0.000101286 0 0)
(0.0588303 -0.00101507 0 7.81236e-05 0 0)
(0.0751218 -0.00154467 0 0.000103255 0 0)
(0.0747414 -0.00115449 0 8.75479e-05 0 0)
(0.0981812 -0.00171166 0 0.000116315 0 0)
(0.0891611 -0.00149031 0 0.000111009 0 0)
(0.119052 -0.00219537 0 0.000151884 0 0)
(0.103316 -0.00193295 0 0.000148813 0 0)
(0.140697 -0.00301323 0 0.000218867 0 0)
(0.117444 -0.0030088 0 0.0002497 0 0)
(0.169327 -0.0033473 0 0.000338661 0 0)
(0.139858 -0.00719393 0 0.000889166 0 0)
(0.235646 -0.00383863 0 0.000680889 0 0)
(0.229248 -0.0302205 0 0.0113925 0 0)
(0.0141372 0.00057545 0 0.000432462 0 0)
(0.0140381 0.000106577 0 0.00102366 0 0)
(0.0361632 -8.37455e-05 0 0.000674493 0 0)
(0.0392663 -0.00107567 0 0.000393535 0 0)
(0.0554352 -0.00107615 0 0.000322881 0 0)
(0.0645168 -0.00162849 0 0.000308519 0 0)
(0.084212 -0.00325252 0 0.000369791 0 0)
(0.0890861 -0.00202893 0 0.000261317 0 0)
(0.12515 -0.0046312 0 0.000353627 0 0)
(0.113633 -0.00298198 0 0.000243544 0 0)
(0.171126 -0.00571069 0 0.000365533 0 0)
(0.138153 -0.00417471 0 0.000290282 0 0)
(0.218314 -0.00759904 0 0.000507821 0 0)
(0.159961 -0.00535084 0 0.000421536 0 0)
(0.269426 -0.0108914 0 0.000860234 0 0)
(0.17403 -0.00659415 0 0.000735272 0 0)
(0.329858 -0.0147915 0 0.00150522 0 0)
(0.187478 -0.00876736 0 0.00186112 0 0)
(0.412538 -0.019416 0 0.00342815 0 0)
(0.23341 -0.0265354 0 0.0139723 0 0)
(0.0692657 -0.000364199 0 0.000353451 0 0)
(0.0808956 -0.000106222 0 0.000845282 0 0)
(0.125566 -0.00114754 0 0.000702144 0 0)
(0.130912 -0.00219854 0 0.000497536 0 0)
(0.162113 -0.00145455 0 0.000510257 0 0)
(0.16836 -0.00267114 0 0.000539977 0 0)
(0.20407 -0.00513395 0 0.00072176 0 0)
(0.200191 -0.00265715 0 0.000545951 0 0)
(0.257015 -0.00865425 0 0.000835474 0 0)
(0.229061 -0.00468438 0 0.00055166 0 0)
(0.317205 -0.0115488 0 0.000920019 0 0)
(0.256514 -0.00746381 0 0.000670634 0 0)
(0.381938 -0.015741 0 0.00128782 0 0)
(0.280648 -0.0101064 0 0.00094911 0 0)
(0.453428 -0.0225561 0 0.00214273 0 0)
(0.29337 -0.0125766 0 0.00154761 0 0)
(0.536695 -0.0305758 0 0.00344751 0 0)
(0.291237 -0.0160354 0 0.0038013 0 0)
(0.642459 -0.0368366 0 0.00578827 0 0)
(0.286247 -0.030977 0 0.021227 0 0)
(0.270344 -0.0012341 0 0.000590904 0 0)
(0.267677 0.000133984 0 0.00113029 0 0)
(0.299343 -0.00403522 0 0.0013552 0 0)
(0.288268 -0.00412306 0 0.00101509 0 0)
(0.312281 -0.00428654 0 0.00111355 0 0)
(0.304394 -0.00581677 0 0.00102576 0 0)
(0.334687 -0.00866595 0 0.00158075 0 0)
(0.319654 -0.00529811 0 0.00116255 0 0)
(0.367479 -0.013417 0 0.00199592 0 0)
(0.335465 -0.00743557 0 0.00134225 0 0)
(0.403833 -0.017344 0 0.00233347 0 0)
(0.352278 -0.0110381 0 0.00160526 0 0)
(0.440914 -0.0226634 0 0.00307823 0 0)
(0.369758 -0.0145249 0 0.00205841 0 0)
(0.479607 -0.031192 0 0.00449815 0 0)
(0.383214 -0.0181836 0 0.00281755 0 0)
(0.523812 -0.0418676 0 0.00655263 0 0)
(0.386563 -0.0230158 0 0.00527607 0 0)
(0.582105 -0.0520926 0 0.0100461 0 0)
(0.373821 -0.0320754 0 0.0242534 0 0)
(0.338936 -0.00537013 0 0.00194069 0 0)
(0.290635 -0.00107131 0 0.00264136 0 0)
(0.283681 -0.00744516 0 0.00334351 0 0)
(0.243329 -0.00583467 0 0.00216534 0 0)
(0.251955 -0.00819448 0 0.00295556 0 0)
(0.231551 -0.00771159 0 0.0024243 0 0)
(0.236859 -0.0108471 0 0.00350661 0 0)
(0.221976 -0.00722992 0 0.00254563 0 0)
(0.232171 -0.0138301 0 0.00420528 0 0)
(0.219543 -0.00912159 0 0.00282432 0 0)
(0.230362 -0.0166401 0 0.00476164 0 0)
(0.222057 -0.0122162 0 0.00337406 0 0)
(0.228798 -0.019753 0 0.0058039 0 0)
(0.230474 -0.0152132 0 0.00407259 0 0)
(0.225195 -0.024477 0 0.00782846 0 0)
(0.244334 -0.0188459 0 0.00508008 0 0)
(0.218765 -0.0300177 0 0.0109697 0 0)
(0.263645 -0.0237403 0 0.00767365 0 0)
(0.211794 -0.0344789 0 0.0178272 0 0)
(0.290853 -0.0320451 0 0.021869 0 0)
(0.157475 -0.0087546 0 0.00362366 0 0)
(0.139924 -0.00750703 0 0.00535704 0 0)
(0.13067 -0.00693744 0 0.00522761 0 0)
(0.120975 -0.00989003 0 0.00444048 0 0)
(0.118152 -0.00887904 0 0.00540431 0 0)
(0.119774 -0.00913726 0 0.00482233 0 0)
(0.115442 -0.00949671 0 0.00543158 0 0)
(0.117532 -0.00920683 0 0.00492469 0 0)
(0.117871 -0.0101106 0 0.00600197 0 0)
(0.119926 -0.0100394 0 0.00531472 0 0)
(0.118153 -0.0115853 0 0.00672597 0 0)
(0.126532 -0.0110779 0 0.00602424 0 0)
(0.121489 -0.0121532 0 0.00792782 0 0)
(0.136134 -0.012493 0 0.00710578 0 0)
(0.123664 -0.0123187 0 0.0100333 0 0)
(0.149997 -0.0142026 0 0.0086279 0 0)
(0.12515 -0.0110086 0 0.0134695 0 0)
(0.170471 -0.0159972 0 0.0125119 0 0)
(0.127654 -0.0048533 0 0.021513 0 0)
(0.202072 -0.0144278 0 0.0327927 0 0)
(0.1385 -0.0102811 0 0.00447705 0 0)
(0.168911 -0.0164727 0 0.00895762 0 0)
(0.135348 -0.00753478 0 0.00703671 0 0)
(0.171296 -0.012363 0 0.00609927 0 0)
(0.148449 -0.0103012 0 0.00708094 0 0)
(0.168774 -0.0101113 0 0.00702149 0 0)
(0.165937 -0.00864357 0 0.00650479 0 0)
(0.172697 -0.0102615 0 0.00711951 0 0)
(0.178507 -0.0081082 0 0.00727059 0 0)
(0.17755 -0.00973075 0 0.00735407 0 0)
(0.190273 -0.00780428 0 0.00786562 0 0)
(0.183469 -0.00923439 0 0.00837793 0 0)
(0.206242 -0.00610612 0 0.00897613 0 0)
(0.1929 -0.0091648 0 0.00961288 0 0)
(0.218227 -0.00324525 0 0.010963 0 0)
(0.205298 -0.00864657 0 0.0114771 0 0)
(0.234276 0.00186927 0 0.0140638 0 0)
(0.222173 -0.00704512 0 0.0166554 0 0)
(0.250773 0.0131019 0 0.0220663 0 0)
(0.246496 -0.000280531 0 0.0383717 0 0)
(0.236873 -0.00735526 0 0.00429442 0 0)
(0.264798 -0.0156683 0 0.0114409 0 0)
(0.228589 -0.00489863 0 0.00799919 0 0)
(0.235505 -0.00780182 0 0.00708986 0 0)
(0.259764 -0.0058687 0 0.00704958 0 0)
(0.223706 -0.00588227 0 0.00787506 0 0)
(0.290781 -0.00375799 0 0.00658462 0 0)
(0.222314 -0.0057171 0 0.00794256 0 0)
(0.306803 -0.00173152 0 0.0070501 0 0)
(0.225998 -0.00559033 0 0.00847743 0 0)
(0.317033 0.000178764 0 0.00758333 0 0)
(0.23454 -0.00444478 0 0.00931455 0 0)
(0.330568 0.00279177 0 0.00868683 0 0)
(0.246125 -0.00379878 0 0.0106567 0 0)
(0.346224 0.00662156 0 0.00997809 0 0)
(0.260743 -0.00234705 0 0.0125058 0 0)
(0.361334 0.0128688 0 0.0124218 0 0)
(0.28188 0.000520129 0 0.017244 0 0)
(0.378044 0.024786 0 0.0187489 0 0)
(0.320808 0.00566468 0 0.0319117 0 0)
(0.265301 -0.00359265 0 0.00312303 0 0)
(0.29441 -0.00727632 0 0.00872547 0 0)
(0.284435 -0.000729681 0 0.00523236 0 0)
(0.244411 -0.00148856 0 0.00536544 0 0)
(0.305672 -0.00065498 0 0.00479138 0 0)
(0.23584 -0.000830588 0 0.00578353 0 0)
(0.316153 0.00121175 0 0.00447286 0 0)
(0.235828 -0.000553561 0 0.00598777 0 0)
(0.31616 0.00325833 0 0.00480473 0 0)
(0.240162 -0.000326853 0 0.00626727 0 0)
(0.32236 0.00430831 0 0.00524755 0 0)
(0.254145 0.000825915 0 0.00673032 0 0)
(0.329974 0.00681442 0 0.00586249 0 0)
(0.270339 0.00161356 0 0.00759069 0 0)
(0.338753 0.0100468 0 0.00648681 0 0)
(0.292171 0.00382675 0 0.00872227 0 0)
(0.35065 0.0151361 0 0.00762927 0 0)
(0.326814 0.00821752 0 0.0115355 0 0)
(0.367936 0.0242878 0 0.0112509 0 0)
(0.396645 0.0136786 0 0.0209073 0 0)
(0.179687 -0.00123624 0 0.00233364 0 0)
(0.20579 -0.00118526 0 0.00541842 0 0)
(0.195379 0.00189095 0 0.00369696 0 0)
(0.174345 0.00293685 0 0.00341956 0 0)
(0.2033 0.00186301 0 0.00409486 0 0)
(0.176231 0.00270792 0 0.00414768 0 0)
(0.204457 0.00314541 0 0.0039791 0 0)
(0.179567 0.00376338 0 0.00438693 0 0)
(0.204344 0.00446182 0 0.0041564 0 0)
(0.187686 0.00455253 0 0.00460174 0 0)
(0.203937 0.00558077 0 0.00446528 0 0)
(0.204105 0.00567777 0 0.00482356 0 0)
(0.208618 0.00750206 0 0.00478347 0 0)
(0.217912 0.00724665 0 0.0052625 0 0)
(0.214244 0.00972325 0 0.00515071 0 0)
(0.238172 0.0102826 0 0.00585806 0 0)
(0.220071 0.0128879 0 0.00586139 0 0)
(0.270784 0.0158183 0 0.00723829 0 0)
(0.225193 0.0188642 0 0.00820011 0 0)
(0.331918 0.0233486 0 0.0131025 0 0)
(0.0780333 -0.000302786 0 0.00205901 0 0)
(0.08774 0.000612404 0 0.00447013 0 0)
(0.0788722 0.00124731 0 0.00347024 0 0)
(0.0829151 0.00239447 0 0.00339649 0 0)
(0.0839221 0.00133678 0 0.00374048 0 0)
(0.0874989 0.00216263 0 0.00397175 0 0)
(0.0875625 0.00147469 0 0.00380857 0 0)
(0.0923444 0.00337128 0 0.00421214 0 0)
(0.0884256 0.0022031 0 0.00380355 0 0)
(0.101458 0.00412612 0 0.00425738 0 0)
(0.0877266 0.00292787 0 0.00392992 0 0)
(0.112934 0.00491895 0 0.00435373 0 0)
(0.0911716 0.0037363 0 0.00404279 0 0)
(0.124275 0.00597026 0 0.00452436 0 0)
(0.094487 0.00431221 0 0.0040768 0 0)
(0.139505 0.00803321 0 0.00470668 0 0)
(0.0961411 0.00532476 0 0.00430775 0 0)
(0.162332 0.0115447 0 0.00544993 0 0)
(0.0974712 0.00835946 0 0.00559858 0 0)
(0.204372 0.0165009 0 0.00911953 0 0)
(0.0258802 -9.82468e-05 0 0.00168875 0 0)
(0.0282726 0.000217163 0 0.00369673 0 0)
(0.0256988 -0.000293012 0 0.00302963 0 0)
(0.0334957 0.000649177 0 0.00279672 0 0)
(0.0308745 0.000245322 0 0.00284444 0 0)
(0.0351116 0.000803837 0 0.00299752 0 0)
(0.033786 9.2816e-05 0 0.00299354 0 0)
(0.0393907 0.00138999 0 0.0033093 0 0)
(0.0350783 0.000206716 0 0.00293015 0 0)
(0.0449923 0.00194998 0 0.00315165 0 0)
(0.0355382 0.000830085 0 0.00288115 0 0)
(0.049683 0.00230499 0 0.00316528 0 0)
(0.0376922 0.00112727 0 0.00297737 0 0)
(0.0554676 0.00269867 0 0.00307831 0 0)
(0.0405792 0.00130197 0 0.00278923 0 0)
(0.0622873 0.00370684 0 0.00293016 0 0)
(0.0432543 0.00198804 0 0.00274838 0 0)
(0.0725622 0.00556992 0 0.00318385 0 0)
(0.0482065 0.00430008 0 0.00349382 0 0)
(0.0924389 0.0090633 0 0.00536613 0 0)
(0.00785164 -0.000217746 0 0.00122402 0 0)
(0.00570763 -0.000560085 0 0.00277655 0 0)
(0.00675753 -0.00122606 0 0.00247334 0 0)
(0.0100234 -0.000512723 0 0.00192359 0 0)
(0.0101015 -0.000201281 0 0.00198741 0 0)
(0.0113456 -0.000254854 0 0.00192465 0 0)
(0.0127691 -0.000285654 0 0.00205788 0 0)
(0.0139549 -0.000275871 0 0.00220617 0 0)
(0.0153217 -0.000584063 0 0.00199518 0 0)
(0.0173137 -3.21517e-06 0 0.0019703 0 0)
(0.016641 -0.000125693 0 0.00184887 0 0)
(0.0195093 0.000142344 0 0.00190007 0 0)
(0.0185075 -0.000116935 0 0.00190679 0 0)
(0.0228476 2.14872e-06 0 0.00181569 0 0)
(0.0213946 -3.11236e-05 0 0.00168794 0 0)
(0.0268848 0.000451855 0 0.00158714 0 0)
(0.0251601 0.0006153 0 0.00152995 0 0)
(0.0337052 0.00175958 0 0.00170965 0 0)
(0.0328902 0.00281312 0 0.00200186 0 0)
(0.0471475 0.00592949 0 0.00335692 0 0)
(0.00657309 -0.000329642 0 0.000907681 0 0)
(0.00282604 -0.000779301 0 0.00218181 0 0)
(0.00396862 -0.00133779 0 0.0020149 0 0)
(0.00527965 -0.000888053 0 0.00146024 0 0)
(0.00679549 -0.000438021 0 0.00152571 0 0)
(0.0066374 -0.000430197 0 0.00146213 0 0)
(0.00823354 -0.000516194 0 0.0016652 0 0)
(0.00849646 -0.000859933 0 0.00178062 0 0)
(0.0107621 -0.000883306 0 0.00164565 0 0)
(0.0109404 -0.000622633 0 0.00154995 0 0)
(0.0126573 -0.000436041 0 0.00142897 0 0)
(0.0126657 -0.000404084 0 0.00141116 0 0)
(0.0144471 -0.000385874 0 0.00139834 0 0)
(0.0149852 -0.0005972 0 0.00129547 0 0)
(0.0170733 -0.00039754 0 0.00117301 0 0)
(0.0178804 -0.00032745 0 0.00103944 0 0)
(0.0205321 0.000209933 0 0.000940247 0 0)
(0.0230428 0.000768674 0 0.000962131 0 0)
(0.0275932 0.00221481 0 0.00113481 0 0)
(0.0342653 0.00442035 0 0.00186581 0 0)
(0.00804623 -0.00032081 0 0.000540437 0 0)
(0.00452013 -0.000222897 0 0.00143725 0 0)
(0.00466033 -0.000799325 0 0.00138029 0 0)
(0.00561683 -0.000602614 0 0.0010251 0 0)
(0.00741713 -0.000307851 0 0.00115578 0 0)
(0.00687757 -0.000136227 0 0.0010482 0 0)
(0.00887119 -0.000271023 0 0.00115772 0 0)
(0.00805463 -0.000325429 0 0.00124916 0 0)
(0.00984932 -0.000450928 0 0.00118533 0 0)
(0.00850858 -0.00013239 0 0.00110552 0 0)
(0.0102102 -0.000119476 0 0.000981924 0 0)
(0.00855991 7.20527e-05 0 0.000921824 0 0)
(0.0100008 1.27393e-05 0 0.00087285 0 0)
(0.00825719 -6.94133e-06 0 0.000806096 0 0)
(0.00970175 -5.16986e-06 0 0.000710562 0 0)
(0.00819781 2.96987e-05 0 0.00064032 0 0)
(0.00997129 0.000334953 0 0.000534521 0 0)
(0.00973195 0.000605486 0 0.000541603 0 0)
(0.0130369 0.00159009 0 0.000622837 0 0)
(0.0165204 0.00265923 0 0.00103532 0 0)
(0.00696453 -0.000513566 0 0.000336094 0 0)
(0.00367647 2.80722e-07 0 0.000987998 0 0)
(0.00402018 -0.000291514 0 0.000842976 0 0)
(0.00537665 -0.000254182 0 0.000576147 0 0)
(0.00666978 -8.56131e-05 0 0.000689675 0 0)
(0.00581545 6.92537e-05 0 0.000655534 0 0)
(0.00655998 0.000131901 0 0.00068185 0 0)
(0.00515352 0.000407304 0 0.000693312 0 0)
(0.00499339 0.000409145 0 0.000630159 0 0)
(0.0040467 0.000701863 0 0.00056775 0 0)
(0.00367644 0.00061428 0 0.000497145 0 0)
(0.00358379 0.000816152 0 0.000459252 0 0)
(0.00292083 0.000670022 0 0.000426956 0 0)
(0.00360328 0.000784111 0 0.000396231 0 0)
(0.00289002 0.000529639 0 0.000343645 0 0)
(0.00426117 0.000667478 0 0.000322375 0 0)
(0.00381923 0.000392571 0 0.000273853 0 0)
(0.00573383 0.000696543 0 0.000278592 0 0)
(0.00647784 0.000673936 0 0.000381654 0 0)
(0.00946626 0.00137901 0 0.000529594 0 0)
(0.00557725 -0.00103234 0 0.000394666 0 0)
(0.00174994 -0.000301774 0 0.00100313 0 0)
(0.00190431 -4.29226e-05 0 0.000653232 0 0)
(0.00258443 0.000126044 0 0.000383008 0 0)
(0.00269008 0.000483183 0 0.000365777 0 0)
(0.00281661 0.00076421 0 0.000327802 0 0)
(0.00438898 0.0009282 0 0.000309773 0 0)
(0.00689672 0.0010996 0 0.000291357 0 0)
(0.00860111 0.00102337 0 0.000250821 0 0)
(0.0127468 0.00105713 0 0.00021938 0 0)
(0.0135321 0.000898107 0 0.00019053 0 0)
(0.0187512 0.000927228 0 0.000177079 0 0)
(0.0181879 0.000755676 0 0.000170246 0 0)
(0.0241752 0.000801774 0 0.000158081 0 0)
(0.0224887 0.00048798 0 0.000141502 0 0)
(0.0285573 0.000614561 0 0.000133842 0 0)
(0.0262389 4.52799e-05 0 0.000121062 0 0)
(0.0307553 0.00046338 0 0.000129169 0 0)
(0.0291396 -0.000326057 0 0.000180248 0 0)
(0.0304538 0.000893127 0 0.000336924 0 0)
(0.00492016 -0.00153926 0 0.000623717 0 0)
(0.000847956 0.000594681 0 0.000834871 0 0)
(0.00462255 0.00118001 0 0.000354597 0 0)
(0.00919798 0.00103647 0 0.0001479 0 0)
(0.0144182 0.00101373 0 0.000102817 0 0)
(0.0211196 0.000915718 0 8.25007e-05 0 0)
(0.0274737 0.000767888 0 7.53099e-05 0 0)
(0.0343117 0.000659385 0 7.0504e-05 0 0)
(0.0384289 0.000528286 0 6.55775e-05 0 0)
(0.0444528 0.000472489 0 6.25636e-05 0 0)
(0.0463252 0.000383787 0 5.99771e-05 0 0)
(0.0520499 0.000382191 0 5.76407e-05 0 0)
(0.0521468 0.000299857 0 5.73898e-05 0 0)
(0.0579534 0.000320423 0 5.25285e-05 0 0)
(0.056569 0.000153545 0 4.84515e-05 0 0)
(0.0619547 0.00019183 0 4.36303e-05 0 0)
(0.0592061 -0.000157687 0 4.17193e-05 0 0)
(0.0619948 7.13573e-05 0 4.16256e-05 0 0)
(0.0598268 -0.000617414 0 6.16911e-05 0 0)
(0.055759 0.000367911 0 0.000182339 0 0)
(0.000911765 -5.37987e-05 0 0.000103668 0 0)
(0.0174459 0.000678622 0 3.8332e-05 0 0)
(0.03404 6.22169e-05 0 9.78212e-06 0 0)
(0.0423941 -0.000103721 0 4.52915e-06 0 0)
(0.0485911 -7.62788e-05 0 3.89096e-06 0 0)
(0.0533586 -5.83937e-05 0 4.26645e-06 0 0)
(0.0564007 -3.87431e-05 0 5.16128e-06 0 0)
(0.0590153 -1.69091e-05 0 5.53806e-06 0 0)
(0.0604497 -9.66807e-06 0 6.1215e-06 0 0)
(0.0623255 5.03394e-07 0 6.17534e-06 0 0)
(0.0629299 -3.77475e-06 0 6.28571e-06 0 0)
(0.0644941 5.45619e-06 0 5.95488e-06 0 0)
(0.0645804 -6.44309e-06 0 5.79118e-06 0 0)
(0.0660268 2.204e-06 0 5.12137e-06 0 0)
(0.0655463 -2.7145e-05 0 4.70738e-06 0 0)
(0.0665669 -2.37641e-05 0 3.92014e-06 0 0)
(0.065086 -7.93843e-05 0 3.57701e-06 0 0)
(0.0646833 -6.49246e-05 0 3.15247e-06 0 0)
(0.0628296 -0.000233369 0 4.00404e-06 0 0)
(0.0568921 0.000315921 0 2.27278e-05 0 0)
(0.270569 -0.130379 0 0.0813648 0 0)
(0.29431 -0.154521 0 0.11413 0 0)
(0.30102 -0.147907 0 0.1364 0 0)
(0.316779 -0.130488 0 0.152872 0 0)
(0.325876 -0.111338 0 0.16267 0 0)
(0.38142 -0.0975167 0 0.168881 0 0)
(0.412668 -0.0932328 0 0.174592 0 0)
(0.500846 -0.102481 0 0.183219 0 0)
(0.545681 -0.115975 0 0.193806 0 0)
(0.635964 -0.135213 0 0.205052 0 0)
(0.669572 -0.148229 0 0.217132 0 0)
(0.751155 -0.165425 0 0.232319 0 0)
(0.778442 -0.173096 0 0.248244 0 0)
(0.86087 -0.189242 0 0.262955 0 0)
(0.893909 -0.198822 0 0.273122 0 0)
(0.98307 -0.222365 0 0.28181 0 0)
(1.01858 -0.242431 0 0.292922 0 0)
(1.11517 -0.277839 0 0.310016 0 0)
(1.15079 -0.303212 0 0.33406 0 0)
(1.26837 -0.341026 0 0.364966 0 0)
(1.32 -0.363089 0 0.393528 0 0)
(1.46493 -0.403318 0 0.424357 0 0)
(1.52376 -0.427201 0 0.454346 0 0)
(1.69165 -0.473639 0 0.485732 0 0)
(1.75982 -0.498054 0 0.515292 0 0)
(1.94437 -0.554237 0 0.549388 0 0)
(2.02482 -0.580278 0 0.582862 0 0)
(2.21631 -0.654201 0 0.62187 0 0)
(2.31203 -0.687513 0 0.662598 0 0)
(2.50104 -0.777569 0 0.713099 0 0)
(2.61356 -0.814912 0 0.767274 0 0)
(2.8108 -0.911305 0 0.827155 0 0)
(2.94034 -0.949144 0 0.88556 0 0)
(3.16867 -1.05455 0 0.948669 0 0)
(3.30536 -1.09816 0 1.00779 0 0)
(3.5639 -1.21708 0 1.07196 0 0)
(3.67488 -1.25898 0 1.12776 0 0)
(3.94851 -1.387 0 1.18974 0 0)
(4.01609 -1.41901 0 1.243 0 0)
(4.29531 -1.55119 0 1.3067 0 0)
(4.31305 -1.56051 0 1.36311 0 0)
(4.58809 -1.69028 0 1.4266 0 0)
(4.56164 -1.67309 0 1.48016 0 0)
(4.84812 -1.79989 0 1.54428 0 0)
(4.7981 -1.77143 0 1.59797 0 0)
(5.12118 -1.90417 0 1.66271 0 0)
(5.0648 -1.87329 0 1.71289 0 0)
(5.44032 -2.01623 0 1.78448 0 0)
(5.38098 -1.99544 0 1.83817 0 0)
(5.81914 -2.14952 0 1.92022 0 0)
(5.73582 -2.13906 0 1.98266 0 0)
(6.23527 -2.3048 0 2.07928 0 0)
(6.08514 -2.28559 0 2.15288 0 0)
(6.62866 -2.45671 0 2.25745 0 0)
(6.37146 -2.40071 0 2.32756 0 0)
(6.94535 -2.57565 0 2.42973 0 0)
(6.5768 -2.47199 0 2.48094 0 0)
(7.18559 -2.65296 0 2.56703 0 0)
(6.71463 -2.51902 0 2.60419 0 0)
(7.39194 -2.72068 0 2.6842 0 0)
(6.81162 -2.58249 0 2.72343 0 0)
(7.58296 -2.80716 0 2.81034 0 0)
(6.86759 -2.65886 0 2.85788 0 0)
(7.7164 -2.88684 0 2.95245 0 0)
(6.85951 -2.69977 0 2.99246 0 0)
(7.76291 -2.90537 0 3.07567 0 0)
(6.8072 -2.67254 0 3.0756 0 0)
(7.78377 -2.83792 0 3.11749 0 0)
(6.76434 -2.59509 0 3.09321 0 0)
(7.87699 -2.77375 0 3.14224 0 0)
(6.78976 -2.53748 0 3.13952 0 0)
(8.06561 -2.75473 0 3.19768 0 0)
(6.88521 -2.50748 0 3.19971 0 0)
(8.34676 -2.79725 0 3.27361 0 0)
(7.03663 -2.53131 0 3.31076 0 0)
(8.65396 -2.90252 0 3.43486 0 0)
(7.22735 -2.60091 0 3.51422 0 0)
(8.91022 -3.02148 0 3.69469 0 0)
(7.38751 -2.67494 0 3.79063 0 0)
(9.09231 -3.09465 0 3.99817 0 0)
(7.45025 -2.71471 0 4.08909 0 0)
(9.2039 -3.12065 0 4.27967 0 0)
(7.42439 -2.71233 0 4.33587 0 0)
(9.25447 -3.12236 0 4.50248 0 0)
(7.36142 -2.677 0 4.53138 0 0)
(9.19302 -3.07087 0 4.69025 0 0)
(7.31179 -2.59335 0 4.71204 0 0)
(9.08999 -2.97067 0 4.90083 0 0)
(7.28586 -2.50097 0 4.9348 0 0)
(9.04144 -2.85099 0 5.12002 0 0)
(7.29525 -2.41907 0 5.16246 0 0)
(9.0582 -2.79643 0 5.37283 0 0)
(7.37355 -2.39179 0 5.44894 0 0)
(9.14333 -2.78517 0 5.68212 0 0)
(7.49147 -2.36429 0 5.75928 0 0)
(9.22379 -2.76165 0 6.00952 0 0)
(7.61521 -2.32123 0 6.09481 0 0)
(9.28039 -2.71548 0 6.38305 0 0)
(7.70155 -2.25884 0 6.47663 0 0)
(9.2242 -2.6306 0 6.79507 0 0)
(7.6847 -2.16236 0 6.92958 0 0)
(9.12877 -2.54274 0 7.285 0 0)
(7.55927 -2.04698 0 7.41929 0 0)
(9.02101 -2.43139 0 7.7615 0 0)
(7.3789 -1.92172 0 7.83522 0 0)
(8.87369 -2.33891 0 8.16824 0 0)
(7.17158 -1.77945 0 8.20984 0 0)
(8.68695 -2.19041 0 8.47339 0 0)
(7.01769 -1.59163 0 8.45792 0 0)
(8.51433 -2.01282 0 8.72622 0 0)
(6.95865 -1.43315 0 8.7009 0 0)
(8.40985 -1.86922 0 8.95564 0 0)
(7.00691 -1.31141 0 8.91143 0 0)
(8.34472 -1.74553 0 9.17619 0 0)
(7.07056 -1.17708 0 9.13395 0 0)
(8.2669 -1.60488 0 9.40417 0 0)
(7.14382 -1.07614 0 9.40859 0 0)
(8.17443 -1.48893 0 9.71684 0 0)
(7.23361 -1.02157 0 9.77447 0 0)
(8.14038 -1.40496 0 10.1065 0 0)
(7.33324 -1.00554 0 10.2077 0 0)
(8.09442 -1.36462 0 10.5224 0 0)
(7.35299 -1.00157 0 10.6487 0 0)
(7.99859 -1.34564 0 10.9444 0 0)
(7.32372 -1.00221 0 11.0351 0 0)
(7.9126 -1.31013 0 11.274 0 0)
(7.25071 -0.96809 0 11.3573 0 0)
(7.82929 -1.26153 0 11.573 0 0)
(7.22374 -0.959448 0 11.6515 0 0)
(7.71211 -1.24182 0 11.8365 0 0)
(7.26659 -1.02789 0 11.9714 0 0)
(7.64155 -1.26004 0 12.1853 0 0)
(7.39021 -1.12066 0 12.352 0 0)
(7.65361 -1.24758 0 12.5257 0 0)
(7.49141 -1.15592 0 12.6851 0 0)
(7.66062 -1.17807 0 12.859 0 0)
(7.54712 -1.1013 0 12.9974 0 0)
(7.6517 -1.08844 0 13.2322 0 0)
(7.58117 -1.01646 0 13.4407 0 0)
(7.64423 -0.993433 0 13.6376 0 0)
(7.57888 -0.957914 0 13.8474 0 0)
(7.58596 -0.885918 0 13.9787 0 0)
(7.58413 -0.882041 0 14.1715 0 0)
(7.48203 -0.766117 0 14.3155 0 0)
(7.46108 -0.769906 0 14.5615 0 0)
(7.28343 -0.606028 0 14.6732 0 0)
(7.29787 -0.592659 0 14.7995 0 0)
(7.10493 -0.47294 0 14.8732 0 0)
(7.13158 -0.377409 0 15.0473 0 0)
(6.94431 -0.341579 0 15.0903 0 0)
(6.95681 -0.203588 0 15.15 0 0)
(6.78418 -0.201587 0 15.0779 0 0)
(6.79428 -0.0391292 0 15.1028 0 0)
(6.65365 -0.0720681 0 15.0032 0 0)
(6.66895 0.103954 0 15.0849 0 0)
(6.54201 0.0157577 0 14.9871 0 0)
(6.59521 0.174198 0 15.0839 0 0)
(6.49068 0.0803152 0 14.9393 0 0)
(6.54895 0.1817 0 15.0496 0 0)
(6.37022 0.0590192 0 14.9029 0 0)
(6.42501 0.117507 0 15.0021 0 0)
(6.24774 0.0065838 0 14.8951 0 0)
(6.29435 0.0653656 0 14.9136 0 0)
(6.17292 -0.0673134 0 14.8019 0 0)
(6.25092 -0.00874396 0 14.753 0 0)
(6.13916 -0.167027 0 14.6075 0 0)
(6.24559 -0.121443 0 14.5653 0 0)
(6.06656 -0.359049 0 14.436 0 0)
(6.20444 -0.228349 0 14.3167 0 0)
(6.06478 -0.538441 0 14.1387 0 0)
(6.10831 -0.407465 0 13.9762 0 0)
(6.12616 -0.763032 0 13.8271 0 0)
(5.95649 -0.560855 0 13.4998 0 0)
(6.25132 -1.01338 0 13.2071 0 0)
(5.89774 -0.616452 0 12.8708 0 0)
(6.27633 -1.08858 0 12.5443 0 0)
(5.93939 -0.655708 0 12.2307 0 0)
(6.30558 -1.08611 0 11.7962 0 0)
(5.95802 -0.71741 0 11.6127 0 0)
(6.33933 -1.03858 0 11.0051 0 0)
(5.94462 -0.798239 0 10.9716 0 0)
(6.30195 -0.966381 0 10.1128 0 0)
(5.81445 -0.948113 0 10.3642 0 0)
(6.12458 -0.806317 0 9.24178 0 0)
(5.64904 -1.0365 0 9.90337 0 0)
(5.8373 -0.544653 0 8.51786 0 0)
(5.44618 -1.08004 0 9.6002 0 0)
(5.4651 -0.238024 0 8.01917 0 0)
(5.15447 -1.01935 0 9.53879 0 0)
(5.10034 0.223297 0 7.84906 0 0)
(4.77206 -0.848283 0 9.80462 0 0)
(4.74788 0.778866 0 7.94266 0 0)
(4.34905 -0.530413 0 10.5822 0 0)
(4.25696 1.42998 0 8.55645 0 0)
(3.98912 -0.015239 0 12.1152 0 0)
(3.73005 2.38249 0 10.1242 0 0)
(3.52866 0.36561 0 14.4937 0 0)
(2.95863 3.61454 0 13.0838 0 0)
(3.29267 2.34971 0 19.9076 0 0)
(1.06177 0.615083 0 21.7087 0 0)
(0.253791 -0.107768 0 0.0914751 0 0)
(0.225757 -0.115 0 0.119152 0 0)
(0.241747 -0.103198 0 0.125802 0 0)
(0.211905 -0.0945324 0 0.129945 0 0)
(0.234826 -0.0850048 0 0.130428 0 0)
(0.228752 -0.0842681 0 0.129535 0 0)
(0.267476 -0.0888193 0 0.131913 0 0)
(0.275754 -0.101552 0 0.139167 0 0)
(0.323562 -0.111912 0 0.147916 0 0)
(0.331481 -0.127098 0 0.157334 0 0)
(0.377525 -0.135235 0 0.167398 0 0)
(0.381312 -0.150691 0 0.180338 0 0)
(0.429762 -0.157628 0 0.193435 0 0)
(0.440716 -0.174607 0 0.207047 0 0)
(0.49955 -0.182914 0 0.218945 0 0)
(0.527509 -0.206978 0 0.232044 0 0)
(0.600033 -0.22384 0 0.246502 0 0)
(0.647536 -0.261093 0 0.265257 0 0)
(0.727352 -0.284875 0 0.285897 0 0)
(0.785817 -0.328123 0 0.311232 0 0)
(0.863996 -0.350394 0 0.336611 0 0)
(0.934278 -0.39525 0 0.364769 0 0)
(1.01148 -0.414558 0 0.391781 0 0)
(1.09945 -0.464613 0 0.42169 0 0)
(1.17787 -0.481676 0 0.450297 0 0)
(1.28967 -0.540795 0 0.484817 0 0)
(1.37717 -0.558783 0 0.518769 0 0)
(1.51728 -0.63157 0 0.560044 0 0)
(1.61929 -0.656656 0 0.600374 0 0)
(1.78379 -0.745681 0 0.650307 0 0)
(1.89294 -0.778259 0 0.698174 0 0)
(2.07566 -0.879613 0 0.754976 0 0)
(2.17462 -0.912591 0 0.806731 0 0)
(2.3734 -1.02265 0 0.866669 0 0)
(2.44376 -1.04981 0 0.919023 0 0)
(2.65984 -1.16799 0 0.979291 0 0)
(2.67938 -1.17988 0 1.03105 0 0)
(2.9119 -1.30417 0 1.08961 0 0)
(2.87053 -1.29549 0 1.14084 0 0)
(3.12651 -1.42771 0 1.19943 0 0)
(3.03289 -1.39569 0 1.25055 0 0)
(3.3152 -1.53287 0 1.31319 0 0)
(3.18889 -1.48547 0 1.36328 0 0)
(3.5095 -1.62725 0 1.43089 0 0)
(3.37076 -1.57444 0 1.48043 0 0)
(3.73656 -1.72593 0 1.55752 0 0)
(3.59524 -1.67666 0 1.60944 0 0)
(4.00888 -1.83947 0 1.69286 0 0)
(3.85126 -1.79108 0 1.74737 0 0)
(4.3141 -1.96541 0 1.83576 0 0)
(4.10665 -1.90377 0 1.89338 0 0)
(4.62258 -2.09175 0 1.98612 0 0)
(4.33338 -1.99674 0 2.04394 0 0)
(4.89998 -2.19728 0 2.13678 0 0)
(4.51373 -2.05377 0 2.18921 0 0)
(5.13095 -2.27172 0 2.27685 0 0)
(4.66005 -2.08403 0 2.31947 0 0)
(5.3289 -2.32531 0 2.40374 0 0)
(4.80046 -2.11824 0 2.4387 0 0)
(5.52052 -2.38181 0 2.53393 0 0)
(4.93863 -2.18186 0 2.57062 0 0)
(5.70745 -2.44773 0 2.67489 0 0)
(5.05215 -2.25564 0 2.70805 0 0)
(5.8627 -2.48919 0 2.80336 0 0)
(5.10335 -2.28043 0 2.81951 0 0)
(5.96168 -2.4704 0 2.88493 0 0)
(5.09384 -2.22995 0 2.87361 0 0)
(6.04749 -2.4136 0 2.92192 0 0)
(5.09598 -2.15943 0 2.91257 0 0)
(6.18236 -2.38592 0 2.98178 0 0)
(5.1613 -2.11762 0 2.98031 0 0)
(6.39563 -2.3981 0 3.06769 0 0)
(5.30543 -2.11045 0 3.07298 0 0)
(6.67141 -2.46662 0 3.18308 0 0)
(5.50951 -2.15152 0 3.21639 0 0)
(6.95321 -2.58014 0 3.37246 0 0)
(5.72761 -2.2258 0 3.44374 0 0)
(7.17465 -2.6808 0 3.64638 0 0)
(5.88272 -2.26966 0 3.72559 0 0)
(7.30225 -2.71379 0 3.93845 0 0)
(5.93036 -2.26938 0 4.00749 0 0)
(7.36984 -2.70668 0 4.20162 0 0)
(5.93713 -2.24053 0 4.24479 0 0)
(7.3851 -2.67031 0 4.41334 0 0)
(5.95104 -2.20714 0 4.4246 0 0)
(7.37085 -2.59515 0 4.59561 0 0)
(5.97467 -2.15952 0 4.62 0 0)
(7.36574 -2.50385 0 4.81312 0 0)
(6.03644 -2.0865 0 4.84223 0 0)
(7.42477 -2.41188 0 5.05016 0 0)
(6.13293 -2.042 0 5.11441 0 0)
(7.54622 -2.40154 0 5.35029 0 0)
(6.27481 -2.02511 0 5.42908 0 0)
(7.72021 -2.40428 0 5.66962 0 0)
(6.46348 -2.00081 0 5.7297 0 0)
(7.90212 -2.41265 0 5.98573 0 0)
(6.66696 -1.96504 0 6.06217 0 0)
(8.05865 -2.37809 0 6.35109 0 0)
(6.84052 -1.90492 0 6.44478 0 0)
(8.14241 -2.31579 0 6.78819 0 0)
(6.91946 -1.8048 0 6.90709 0 0)
(8.15541 -2.21665 0 7.26861 0 0)
(6.89664 -1.65728 0 7.36323 0 0)
(8.1183 -2.07389 0 7.71883 0 0)
(6.75301 -1.50905 0 7.76708 0 0)
(7.96943 -1.93283 0 8.11942 0 0)
(6.56732 -1.32655 0 8.13401 0 0)
(7.81318 -1.74699 0 8.44154 0 0)
(6.46594 -1.14641 0 8.41232 0 0)
(7.78155 -1.58973 0 8.69846 0 0)
(6.52093 -1.01132 0 8.65687 0 0)
(7.8719 -1.4499 0 8.93698 0 0)
(6.68691 -0.885956 0 8.888 0 0)
(7.96824 -1.29813 0 9.1793 0 0)
(6.89132 -0.791814 0 9.14827 0 0)
(8.03141 -1.20133 0 9.42795 0 0)
(7.12861 -0.761814 0 9.44854 0 0)
(8.11488 -1.1471 0 9.74988 0 0)
(7.35294 -0.745884 0 9.84187 0 0)
(8.2002 -1.10716 0 10.1778 0 0)
(7.46022 -0.760411 0 10.293 0 0)
(8.19282 -1.1073 0 10.6332 0 0)
(7.43135 -0.782789 0 10.7439 0 0)
(8.14012 -1.12098 0 11.0499 0 0)
(7.37245 -0.77203 0 11.1491 0 0)
(8.0992 -1.11109 0 11.3797 0 0)
(7.36979 -0.775369 0 11.459 0 0)
(8.07547 -1.117 0 11.6643 0 0)
(7.46493 -0.863865 0 11.7649 0 0)
(8.07078 -1.17771 0 11.9429 0 0)
(7.5841 -1.04251 0 12.0848 0 0)
(8.08449 -1.2519 0 12.272 0 0)
(7.72147 -1.17388 0 12.4606 0 0)
(8.11743 -1.25977 0 12.6465 0 0)
(7.82602 -1.19958 0 12.8466 0 0)
(8.20399 -1.1981 0 12.9883 0 0)
(7.9409 -1.17295 0 13.1406 0 0)
(8.25874 -1.11964 0 13.3461 0 0)
(8.00793 -1.13322 0 13.5955 0 0)
(8.23512 -1.02878 0 13.7795 0 0)
(7.96801 -1.04887 0 14.0405 0 0)
(8.1347 -0.9147 0 14.1455 0 0)
(7.8656 -0.950864 0 14.3399 0 0)
(7.94821 -0.748404 0 14.479 0 0)
(7.63746 -0.777019 0 14.7503 0 0)
(7.71043 -0.54169 0 14.7951 0 0)
(7.37174 -0.58478 0 15.0209 0 0)
(7.47617 -0.370184 0 15.0451 0 0)
(7.06867 -0.390207 0 15.2409 0 0)
(7.19184 -0.185481 0 15.2649 0 0)
(6.87981 -0.130125 0 15.3549 0 0)
(6.96663 -0.0310825 0 15.2209 0 0)
(6.7787 0.0463066 0 15.2785 0 0)
(6.86527 0.0605195 0 15.2424 0 0)
(6.71845 0.143724 0 15.2984 0 0)
(6.79716 0.105465 0 15.203 0 0)
(6.72405 0.216208 0 15.3006 0 0)
(6.72988 0.155117 0 15.2464 0 0)
(6.67729 0.227277 0 15.2815 0 0)
(6.56229 0.102359 0 15.2568 0 0)
(6.59094 0.229235 0 15.2444 0 0)
(6.43158 0.011183 0 15.1566 0 0)
(6.47875 0.164143 0 15.1826 0 0)
(6.34524 -0.0670694 0 15.0403 0 0)
(6.39269 0.0540713 0 15.0335 0 0)
(6.2349 -0.17708 0 14.9122 0 0)
(6.31915 -0.0354266 0 14.9618 0 0)
(6.15897 -0.323171 0 14.8189 0 0)
(6.26123 -0.136352 0 14.6498 0 0)
(6.13724 -0.49332 0 14.6024 0 0)
(6.11053 -0.234489 0 14.4064 0 0)
(6.10643 -0.745409 0 14.2509 0 0)
(6.02681 -0.319292 0 13.9202 0 0)
(6.00699 -0.962488 0 13.6182 0 0)
(6.08629 -0.438067 0 13.1827 0 0)
(5.92841 -1.11059 0 12.7704 0 0)
(6.1861 -0.557383 0 12.5466 0 0)
(5.95546 -1.20781 0 11.9987 0 0)
(6.21534 -0.764664 0 11.9665 0 0)
(6.03374 -1.18922 0 11.1643 0 0)
(6.17693 -1.00747 0 11.4548 0 0)
(5.98606 -1.08372 0 10.3005 0 0)
(6.05375 -1.29291 0 10.9455 0 0)
(5.764 -0.927938 0 9.36438 0 0)
(5.87678 -1.55026 0 10.4708 0 0)
(5.54733 -0.632323 0 8.55373 0 0)
(5.60969 -1.69149 0 10.2042 0 0)