/*--------------------------------*- C++ -*----------------------------------*\
| =========                 |                                                 |
| \\      /  F ield         | OpenFOAM: The Open Source CFD Toolbox           |
|  \\    /   O peration     | Version:  2.4.0                                 |
|   \\  /    A nd           | Web:      www.OpenFOAM.org                      |
|    \\/     M anipulation  |                                                 |
\*---------------------------------------------------------------------------*/
FoamFile
{
    version     2.0;
    format      ascii;
    class       surfaceScalarField;
    location    "87";
    object      phi;
}
// * * * * * * * * * * * * * * * * * * * * * * * * * * * * * * * * * * * * * //

dimensions      [0 3 -1 0 0 0 0];

internalField   nonuniform List<scalar> 
8640
(
0.000557354
-6.98537e-05
0.000464221
9.31328e-05
0.000388778
7.54425e-05
0.00053634
-0.000147561
0.000537237
-8.96991e-07
0.000503913
3.33238e-05
0.000485933
1.79797e-05
0.000453016
3.29172e-05
0.000456614
-3.59767e-06
0.000533147
-7.65329e-05
0.000520806
1.23407e-05
0.000451882
6.89234e-05
0.000522211
-7.03284e-05
0.000491132
3.10783e-05
0.000471977
1.91555e-05
0.000569905
-9.79278e-05
0.000469084
0.000100821
0.000536285
-6.72017e-05
0.000261235
0.00027505
-0.000332995
0.00059423
0.00145165
-0.000134006
0.00133526
0.000209526
0.00128977
0.000120928
0.00145848
-0.000316263
0.00142534
3.22372e-05
0.0013978
6.08684e-05
0.00135973
5.6047e-05
0.0013492
4.34446e-05
0.00136366
-1.80548e-05
0.00144313
-0.000156002
0.0014055
4.99704e-05
0.00135527
0.000119156
0.00142887
-0.000143932
0.001394
6.59475e-05
0.00138927
2.38861e-05
0.00148833
-0.000196987
0.00134253
0.000246616
0.00145551
-0.000180173
0.00147069
0.000259863
-0.000240459
0.00137816
0.00222822
-0.000174728
0.00213854
0.000299208
0.00212903
0.000130441
0.00226429
-0.000451522
0.00223296
6.35656e-05
0.00220803
8.58002e-05
0.00216523
9.8844e-05
0.00215795
5.07277e-05
0.00218427
-4.43776e-05
0.00225038
-0.000222112
0.00221693
8.3414e-05
0.00218966
0.000146434
0.00224176
-0.000196035
0.00220625
0.000101457
0.00223594
-5.80812e-06
0.00227895
-0.000239998
0.00222853
0.000297044
0.00226075
-0.000212394
0.00243108
8.95289e-05
-0.000101488
0.00229211
0.00289426
-0.000181492
0.00280286
0.000390613
0.00287977
5.35347e-05
0.00297559
-0.00054735
0.00295714
8.2019e-05
0.00293811
0.000104832
0.00289158
0.000145372
0.00286023
8.20758e-05
0.00289427
-7.84187e-05
0.00295634
-0.000284176
0.00291263
0.000127127
0.00293345
0.00012561
0.00297215
-0.000234735
0.00289641
0.0001772
0.00301251
-0.000121909
0.00295793
-0.000185423
0.0029805
0.000274476
0.00301416
-0.000246049
0.00310453
-8.43842e-07
-3.83081e-05
0.00304135
0.00349613
-0.000190123
0.00332321
0.000563531
0.00347488
-9.81323e-05
0.00356424
-0.000636716
0.00355761
8.86579e-05
0.00357207
9.03627e-05
0.00353071
0.000186741
0.00347323
0.000139556
0.00347865
-8.38402e-05
0.00355141
-0.000356937
0.00346628
0.000212255
0.0035148
7.70891e-05
0.00360151
-0.000321447
0.00345158
0.000327131
0.00364674
-0.000317072
0.00355335
-9.20279e-05
0.00354364
0.000284184
0.00363689
-0.000339299
0.00363853
-2.48621e-06
-4.87525e-05
0.00364898
0.00403496
-0.000237584
0.00378453
0.000813962
0.00393294
-0.000246545
0.00402156
-0.00072533
0.00401146
9.87548e-05
0.00406546
3.63678e-05
0.00404385
0.000208351
0.0039954
0.000188005
0.00396734
-5.57868e-05
0.00404756
-0.000437152
0.00393165
0.000328162
0.00395076
5.79844e-05
0.00408821
-0.0004589
0.00389147
0.000523865
0.00410492
-0.000530513
0.00403777
-2.48811e-05
0.00398348
0.000338472
0.00412341
-0.000479232
0.00405353
6.7402e-05
-0.00011814
0.00412291
0.00446446
-0.000314541
0.00419889
0.00107953
0.00431571
-0.000363361
0.00438982
-0.000799449
0.00436263
0.00012595
0.00443283
-3.38357e-05
0.00442335
0.000217833
0.00439866
0.000212692
0.00435918
-1.63e-05
0.00444232
-0.000520293
0.00432819
0.000442288
0.0043121
7.40763e-05
0.00445691
-0.000603705
0.00425083
0.000729938
0.00443638
-0.000716057
0.00440223
9.2689e-06
0.00432483
0.000415865
0.00448655
-0.000640944
0.00437681
0.000177141
-0.000217457
0.00447612
0.00476717
-0.000394211
0.0045379
0.0013088
0.0046241
-0.000449555
0.00467519
-0.000850539
0.00463802
0.000163111
0.00470113
-9.69368e-05
0.00469478
0.00022418
0.00468677
0.0002207
0.00464676
2.3708e-05
0.00472454
-0.000598067
0.00463182
0.000535007
0.00460455
0.00010134
0.00472391
-0.00072306
0.00454506
0.000908781
0.00468068
-0.000851676
0.0046665
2.34494e-05
0.00458231
0.000500058
0.00473513
-0.000793765
0.00461792
0.000294355
-0.00031778
0.00471824
0.0049476
-0.000454315
0.00478676
0.00146964
0.00484225
-0.000505039
0.00486481
-0.000873105
0.00483577
0.00019215
0.00487796
-0.000139127
0.00487194
0.000230206
0.00487175
0.000220887
0.00483663
5.88283e-05
0.00489653
-0.000657963
0.0048313
0.000600239
0.00481157
0.000121063
0.00488424
-0.000795723
0.00476438
0.00102863
0.00484115
-0.000928444
0.0048386
2.60035e-05
0.0047655
0.000573153
0.00487976
-0.000908023
0.00477968
0.000394433
-0.000396612
0.00485852
0.0050137
-0.000480511
0.00494263
0.00154071
0.00496336
-0.000525768
0.00495344
-0.000863185
0.00494835
0.000197235
0.00496238
-0.00015316
0.00495844
0.000234149
0.00495846
0.000220864
0.00493433
8.29592e-05
0.00496439
-0.00068802
0.00493016
0.000634464
0.0049265
0.000124723
0.00493922
-0.00080844
0.0048991
0.00106876
0.00491208
-0.000941429
0.00491753
2.05494e-05
0.00487372
0.000616964
0.00492718
-0.000961483
0.00486401
0.000457605
-0.000440325
0.00490772
0.00497297
-0.000465985
0.00500408
0.0015096
0.00498415
-0.000505837
0.00494867
-0.000827701
0.0049673
0.000178602
0.00495296
-0.000138818
0.0049521
0.000235006
0.00494892
0.000224044
0.00494115
9.07271e-05
0.00493304
-0.000679904
0.00493451
0.000632989
0.00494746
0.000111778
0.00489814
-0.000759124
0.00494403
0.00102286
0.00489336
-0.000890757
0.00490269
1.12238e-05
0.00490237
0.000617279
0.00488178
-0.000940885
0.0048707
0.000468685
-0.000442685
0.00487306
0.00483584
-0.000414326
0.0049634
0.00138204
0.00490809
-0.000450525
0.00485153
-0.000771149
0.00488623
0.000143904
0.00484684
-9.94287e-05
0.00484956
0.00023229
0.0048437
0.000229897
0.00485609
7.83457e-05
0.00480766
-0.000631477
0.00484981
0.00059084
0.00487224
8.93489e-05
0.00477424
-0.000661131
0.00489313
0.000903978
0.00478828
-0.000785914
0.00479708
2.43017e-06
0.00484362
0.000570739
0.00474884
-0.000846112
0.00479627
0.000421261
-0.000404158
0.00475774
0.00461323
-0.00034006
0.00481844
0.00117684
0.00473056
-0.000362643
0.00465648
-0.00069707
0.00469991
0.000100475
0.00464193
-4.145e-05
0.00464688
0.000227344
0.00464379
0.000232983
0.00467687
4.52663e-05
0.00459521
-0.000549811
0.00468086
0.000505181
0.00469973
7.04803e-05
0.00457437
-0.000535768
0.00474365
0.0007347
0.00459347
-0.00063573
0.00460577
-9.87445e-06
0.00468411
0.000492399
0.00453773
-0.000699727
0.00463202
0.000326969
-0.000337516
0.00456538
0.00431345
-0.00026601
0.00456466
0.000925627
0.00444498
-0.000242965
0.00436261
-0.000614702
0.00440202
6.1072e-05
0.00433451
2.60575e-05
0.00434223
0.000219619
0.00435701
0.000218205
0.00440396
-1.67723e-06
0.0043066
-0.000452455
0.00443001
0.000381774
0.00442654
7.39426e-05
0.00429891
-0.000408133
0.00448736
0.000546255
0.00430458
-0.000452952
0.00433123
-3.65269e-05
0.00441944
0.000404184
0.00425512
-0.000535405
0.00437951
0.000202581
-0.000253562
0.00429556
0.0039386
-0.000217106
0.00418908
0.000675138
0.00404502
-9.88998e-05
0.0039672
-0.00053688
0.00399054
3.77245e-05
0.00392834
8.82587e-05
0.0039537
0.000194267
0.00399837
0.000173528
0.00403975
-4.30561e-05
0.0039473
-0.000360001
0.0040826
0.000246475
0.00404194
0.000114603
0.00393959
-0.000305789
0.00411112
0.000374721
0.00392576
-0.000267587
0.00397804
-8.88057e-05
0.00405387
0.000328356
0.0039064
-0.000387943
0.00403418
7.48096e-05
-0.000156941
0.00393756
0.00347184
-0.000201445
0.00366716
0.000479817
0.00353169
3.65692e-05
0.00347026
-0.000475448
0.00347686
3.11289e-05
0.00344756
0.000117556
0.00350269
0.000139138
0.00355759
0.000118625
0.00356881
-5.42737e-05
0.00349013
-0.000281325
0.00359461
0.000142001
0.00353955
0.000169663
0.00348224
-0.000248481
0.00361074
0.000246215
0.00346746
-0.000124304
0.00352988
-0.000151226
0.00358118
0.000277057
0.00346756
-0.000274321
0.00356121
-1.88471e-05
-6.26394e-05
0.00346691
0.00287276
-0.0001867
0.0030019
0.00035067
0.0029338
0.000104676
0.00287134
-0.000412988
0.00287232
3.01404e-05
0.00288793
0.000101945
0.00294376
8.33141e-05
0.0029766
8.57822e-05
0.00296202
-3.96928e-05
0.00289214
-0.000211446
0.00295464
7.95032e-05
0.00294055
0.000183749
0.00290762
-0.00021555
0.00299061
0.000163225
0.00290864
-4.23354e-05
0.00293521
-0.00017779
0.00297693
0.000235332
0.00289286
-0.000190246
0.00293485
-6.08443e-05
3.71642e-06
0.0028685
0.00214027
-0.000139469
0.00226229
0.000228651
0.00226382
0.000103141
0.00215073
-0.000299898
0.0021595
2.13744e-05
0.00219534
6.61091e-05
0.00223085
4.77958e-05
0.00225426
6.23761e-05
0.00223549
-2.09268e-05
0.0021678
-0.000143751
0.00221051
3.6787e-05
0.00224708
0.000147182
0.00219288
-0.000161346
0.00225449
0.000101615
0.00221605
-3.89958e-06
0.00218836
-0.0001501
0.00225204
0.000171648
0.00217963
-0.00011783
0.002181
-6.2212e-05
3.41108e-05
0.0021506
0.00131731
-6.92757e-05
0.0014495
9.64586e-05
0.00148149
7.11515e-05
0.0013218
-0.000140207
0.00134298
1.9656e-07
0.00137911
2.99761e-05
0.00140928
1.76266e-05
0.00143636
3.52951e-05
0.00141893
-3.50043e-06
0.00134695
-7.17683e-05
0.00137785
5.89097e-06
0.001445
8.00254e-05
0.00136251
-7.88473e-05
0.00142314
4.09784e-05
0.00140703
1.2209e-05
0.00133995
-8.30188e-05
0.00143021
8.13898e-05
0.00135662
-4.42387e-05
0.00133462
-4.0213e-05
3.29638e-05
0.00133577
0.000418224
0.000514683
0.000585834
0.000445627
0.000445823
0.0004758
0.000493426
0.000528721
0.000525221
0.000453453
0.000459344
0.000539369
0.000460522
0.0005015
0.000513709
0.00043069
0.00051208
0.000467841
0.000427628
0.000460592
0.00105199
-0.000413905
-4.38546e-05
0.00075986
0.000144876
0.000147253
0.00114543
-0.000244759
-0.000140813
0.00128149
0.000223207
-0.00035926
0.00139483
-0.000277943
0.000164599
0.00151948
1.68085e-05
-0.000141457
0.0015504
4.54962e-05
-7.64236e-05
0.00185667
-0.00132108
0.00101482
0.00193451
-1.48424e-05
-6.29969e-05
0.0019695
-0.00150069
0.0014657
0.00195835
-0.000860669
0.000871821
0.00201014
0.00015917
-0.000210961
0.00218328
-0.00111513
0.000941988
0.00230501
0.000904292
-0.00102602
0.00272951
0.000428096
-0.000852598
0.00330948
-0.00400303
0.00342306
0.00364226
-0.00199856
0.00166578
0.00390087
-0.000955328
0.000696711
0.00427257
-0.00472203
0.00435033
0.00431739
-0.00682809
0.00678326
0.00401937
-0.00714176
0.00743978
0.00365564
-0.00633968
0.00670342
0.003232
-0.00636121
0.00678484
0.00292278
-0.0080022
0.00831142
0.00267557
-0.00615779
0.006405
0.00290855
0.00112158
-0.00135455
0.00327978
0.00847499
-0.00884623
0.00333312
0.0115515
-0.0116048
0.00343993
0.00591665
-0.00602345
0.00320014
-0.00238622
0.002626
0.00260227
-0.00464005
0.00523793
0.00217626
-0.00699512
0.00742113
0.00212236
-0.0104197
0.0104736
0.00236423
-0.00682446
0.00658258
0.00255541
-0.0016171
0.00142592
0.00264215
0.0016315
-0.00171825
0.00294872
0.00657843
-0.00688501
0.00324896
0.00953723
-0.00983747
0.00340583
0.00788943
-0.0080463
0.00351943
0.00443027
-0.00454387
0.00349735
0.00136588
-0.0013438
0.00343354
-0.00152311
0.00158693
0.00330749
-0.00101987
0.00114592
0.00300427
0.00214278
-0.00183956
0.00266545
0.00314457
-0.00280576
0.00241887
0.00494032
-0.00469373
0.00243465
0.00524315
-0.00525894
0.00253646
0.00149099
-0.0015928
0.00253171
-0.000255861
0.000260611
0.00270917
-0.00281359
0.00263613
0.002912
-0.00685536
0.00665253
0.0028171
-0.00823089
0.00832578
0.00257636
-0.00752835
0.00776909
0.00243056
-0.00571972
0.00586552
0.00232731
-0.00387069
0.00397394
0.00232664
-0.00148279
0.00148346
0.00248104
0.00192323
-0.00207763
0.00264824
0.00444916
-0.00461637
0.00270292
0.00569693
-0.0057516
0.00268947
0.00594934
-0.00593589
0.0026538
0.00515304
-0.00511737
0.0026089
0.00370123
-0.00365633
0.0026232
0.000839601
-0.000853898
0.00262919
-0.00305525
0.00304926
0.00257334
-0.00558632
0.00564217
0.00250083
-0.00556189
0.0056344
0.00242903
-0.00407045
0.00414225
0.00243784
-0.00146144
0.00145263
0.00251854
0.002078
-0.00215871
0.00256423
0.00447101
-0.0045167
0.00255769
0.00421263
-0.00420608
0.00255673
0.00178998
-0.00178902
0.00256168
-0.00107164
0.0010667
0.00253884
-0.0026017
0.00262454
0.00253824
-0.00190613
0.00190673
0.00258192
0.000303443
-0.000347123
0.00260405
0.0021724
-0.00219453
0.00258019
0.00268113
-0.00265728
0.00256444
0.00187151
-0.00185576
0.00258265
0.000352812
-0.00037102
0.00260726
-0.000921778
0.00089717
0.00261148
-0.00135524
0.00135102
0.00259347
-0.0010935
0.00111151
0.00256257
-0.000600858
0.000631764
0.0025272
-0.000202704
0.000238068
0.00249251
1.01118e-05
2.4581e-05
0.00246092
7.78008e-05
-4.62149e-05
0.00243258
6.92648e-05
-4.09194e-05
0.00240607
3.5917e-05
-9.40694e-06
0.00237948
5.35787e-06
2.12339e-05
0.00235133
-1.31557e-05
4.13025e-05
0.00232133
-2.01755e-05
5.01727e-05
0.00229025
-2.12593e-05
5.23415e-05
0.00225988
-1.97086e-05
5.00807e-05
0.00223176
-1.96101e-05
4.77315e-05
0.00220776
-1.84666e-05
4.2467e-05
0.00218782
-1.98236e-05
3.97588e-05
0.00217324
-1.71815e-05
3.17635e-05
0.00216153
-1.80025e-05
2.97125e-05
-1.30362e-05
1.9595e-05
0.00170652
-0.000742264
0.00155712
0.000294269
0.00169916
-0.000386797
0.00188014
4.22327e-05
0.00196177
-0.000359578
0.00218942
-0.000210837
0.00223779
-2.88259e-06
0.00243922
-0.00152251
0.00253244
-0.000108064
0.00258753
-0.00155578
0.00259393
-0.000867072
0.00254048
0.000212627
0.00275182
-0.00132647
0.00289961
0.000756501
0.00321725
0.000110466
0.00374094
-0.00452672
0.00411873
-0.00237635
0.00431383
-0.00115043
0.00451288
-0.00492107
0.00442156
-0.00673677
0.00402758
-0.00674777
0.00356889
-0.00588099
0.00305064
-0.00584295
0.00277171
-0.00772327
0.00257509
-0.00596118
0.0028301
0.000866566
0.00322236
0.00808273
0.0033459
0.011428
0.00348215
0.00578039
0.00317375
-0.00207782
0.00249158
-0.00395788
0.00201009
-0.00651364
0.00193547
-0.0103451
0.00214164
-0.00703063
0.00233605
-0.00181151
0.00242584
0.00154171
0.002743
0.00626128
0.0030971
0.00918313
0.00332751
0.00765902
0.00349639
0.00426139
0.00350691
0.00135536
0.0034609
-0.0014771
0.00333992
-0.000898889
0.00306851
0.00241419
0.00277122
0.00344186
0.0025327
0.00517884
0.00255183
0.00522403
0.00263558
0.00140724
0.00264197
-0.000262245
0.00283459
-0.00300622
0.00298412
-0.00700489
0.00280811
-0.00805488
0.00249971
-0.00721995
0.00231986
-0.00553986
0.00219921
-0.00375004
0.00218331
-0.00146689
0.00233913
0.00176742
0.00253115
0.00425714
0.00263018
0.0055979
0.00266905
0.00591046
0.00266923
0.00515286
0.00264322
0.00372724
0.00266716
0.000815658
0.00265847
-0.00304655
0.00256226
-0.00549011
0.00245319
-0.00545282
0.0023579
-0.00397516
0.00234938
-0.00145293
0.00243601
0.00199137
0.00250924
0.00439779
0.00253165
0.00419021
0.0025484
0.00177324
0.00255321
-0.00107646
0.00251916
-0.00256765
0.00250568
-0.00189265
0.00254729
0.000261833
0.0025835
0.00213619
0.00258229
0.00268234
0.00258517
0.00186862
0.00260892
0.000329062
0.00262752
-0.000940376
0.00262188
-0.00134959
0.00259552
-0.00106715
0.00255963
-0.000564962
0.00252229
-0.000165365
0.00248748
4.49203e-05
0.00245651
0.000108766
0.00242883
9.69443e-05
0.00240276
6.19875e-05
0.0023764
3.17242e-05
0.0023484
1.48447e-05
0.00231862
9.59941e-06
0.0022879
9.46139e-06
0.00225802
1.0168e-05
0.00223042
7.99125e-06
0.0022069
5.0577e-06
0.00218728
-2.09173e-07
0.00217289
-2.78371e-06
0.00216121
-6.32608e-06
-6.40329e-06
0.00242376
-0.00087392
0.0024665
0.000251534
0.00248275
-0.000403051
0.00261386
-8.88696e-05
0.0026575
-0.000403227
0.00286413
-0.00041746
0.00290362
-4.23753e-05
0.0030412
-0.00166009
0.00311367
-0.000180536
0.00313241
-0.00157452
0.00320925
-0.000943914
0.00308784
0.000334042
0.00330048
-0.00153911
0.00352315
0.000533831
0.00373274
-9.91279e-05
0.0041196
-0.00491357
0.00450156
-0.00275831
0.00463661
-0.00128548
0.00466535
-0.00494981
0.00445014
-0.00652156
0.00398157
-0.00627921
0.00343178
-0.0053312
0.0028443
-0.00525547
0.00260181
-0.00748078
0.00246886
-0.00582824
0.00273608
0.000599352
0.00314342
0.00767539
0.00334226
0.0112291
0.00349822
0.00562443
0.00311623
-0.00169583
0.00236239
-0.00320403
0.0018323
-0.00598355
0.00173083
-0.0102436
0.00190004
-0.00719985
0.00208786
-0.00199932
0.0021907
0.00143888
0.00251954
0.00593243
0.00291408
0.00878859
0.00320957
0.00736353
0.00343386
0.0040371
0.00349074
0.00129848
0.0034616
-0.00144795
0.00334539
-0.000782688
0.00310982
0.00264976
0.00285601
0.00369567
0.00263046
0.00540439
0.00265876
0.00519572
0.00272471
0.00134129
0.00274541
-0.000282944
0.00294927
-0.00321008
0.00303613
-0.00709175
0.00277586
-0.00779461
0.00240462
-0.00684872
0.00219559
-0.00533083
0.00206078
-0.00361524
0.00203113
-0.00143725
0.00218677
0.00161178
0.00239984
0.00404406
0.00254012
0.00545762
0.00263006
0.00582052
0.00266622
0.0051167
0.00266104
0.00373242
0.0026954
0.000781302
0.00267145
-0.0030226
0.00253516
-0.00535382
0.00239016
-0.00530782
0.00227351
-0.00385851
0.0022496
-0.00142902
0.00234075
0.00190022
0.00243882
0.00429972
0.0024898
0.00413924
0.00252524
0.00173779
0.00252982
-0.00108103
0.0024844
-0.00252223
0.0024586
-0.00186685
0.0024976
0.000222828
0.0025464
0.00208739
0.00256716
0.00266158
0.00258852
0.00184726
0.00261744
0.000300141
0.00263003
-0.000952968
0.00261515
-0.00133471
0.00258129
-0.00103329
0.00254119
-0.000524853
0.00250256
-0.000126743
0.00246828
7.92038e-05
0.00243852
0.000138523
0.00241202
0.000123444
0.00238683
8.7176e-05
0.00236113
5.74297e-05
0.00233381
4.21593e-05
0.002305
3.8418e-05
0.00227562
3.884e-05
0.00224742
3.83673e-05
0.00222166
3.37533e-05
0.0021999
2.68112e-05
0.00218185
1.78481e-05
0.00216862
1.044e-05
0.00215786
4.43151e-06
-2.35556e-07
0.00307068
-0.000903248
0.00319022
0.000131992
0.00319498
-0.000407812
0.00328095
-0.000174836
0.00329698
-0.000419264
0.00346565
-0.000586125
0.0035083
-8.50311e-05
0.00355976
-0.00171154
0.00361957
-0.000240347
0.0036041
-0.00155905
0.00371265
-0.00105246
0.00357606
0.00047063
0.00376615
-0.0017292
0.00405157
0.000248409
0.00418592
-0.000233486
0.00441695
-0.0051446
0.00475099
-0.00309235
0.00484165
-0.00137615
0.00473365
-0.00484181
0.00441498
-0.0062029
0.00388646
-0.00575068
0.00324965
-0.00469439
0.00261699
-0.00462281
0.00239413
-0.00725792
0.00232753
-0.00576163
0.0026114
0.000315481
0.00303749
0.00724929
0.00331708
0.0109496
0.00348158
0.00545993
0.00302767
-0.00124192
0.00221951
-0.00239588
0.00164719
-0.00541123
0.00150895
-0.0101053
0.00164551
-0.00733641
0.00182418
-0.00217799
0.00194389
0.00131916
0.00228192
0.00559441
0.00270373
0.00836678
0.00305377
0.00701349
0.0033337
0.00375717
0.00344761
0.00118457
0.00343442
-0.00143476
0.00332073
-0.000669001
0.00312593
0.00284457
0.00291814
0.00390346
0.00271143
0.00561111
0.00275472
0.00515242
0.00280361
0.00129241
0.00284156
-0.000320894
0.00305096
-0.00341948
0.00306596
-0.00710676
0.00272001
-0.00744865
0.0022921
-0.00642081
0.00205919
-0.00509791
0.00191346
-0.00346951
0.00187154
-0.00139533
0.00202552
0.0014578
0.00225585
0.00381373
0.00243406
0.00527941
0.00257332
0.00568126
0.00264502
0.005045
0.00266271
0.00371473
0.0027083
0.000735713
0.00266821
-0.00298252
0.00249236
-0.00517797
0.00231243
-0.0051279
0.00217671
-0.00372279
0.0021396
-0.0013919
0.00223404
0.00180579
0.00235411
0.00417965
0.00243317
0.00406017
0.00248774
0.00168322
0.00249193
-0.00108522
0.0024348
-0.00246509
0.00239713
-0.00182918
0.00243316
0.0001868
0.00249323
0.00202732
0.00253525
0.00261957
0.00257461
0.0018079
0.00260827
0.000266476
0.00261506
-0.000959755
0.00259181
-0.00131146
0.00255138
-0.000992864
0.00250782
-0.000481296
0.00246854
-8.74606e-05
0.00243531
0.000112427
0.00240723
0.000166606
0.0023823
0.000148371
0.00235836
0.000111119
0.00233373
8.20592e-05
0.00230767
6.82171e-05
0.0022806
6.54877e-05
0.0022536
6.58478e-05
0.00222826
6.36985e-05
0.00220562
5.64004e-05
0.00218684
4.55842e-05
0.00217147
3.32269e-05
0.0021603
2.16091e-05
0.00215123
1.34948e-05
4.99646e-06
0.00360431
-0.000858581
0.00372753
8.77666e-06
0.00375941
-0.000439695
0.00379955
-0.000214973
0.00382181
-0.000441527
0.0039316
-0.000695916
0.00400057
-0.000153997
0.00398701
-0.00169799
0.00402569
-0.00027903
0.00400197
-0.00153533
0.00409446
-0.00114496
0.00398025
0.000584844
0.00412378
-0.00187273
0.00442298
-5.0786e-05
0.00452628
-0.000336787
0.00461579
-0.00523411
0.00487163
-0.00334818
0.00493824
-0.00144276
0.00473
-0.00463358
0.00432658
-0.00579947
0.00374736
-0.00517147
0.00303339
-0.00398042
0.00236969
-0.0039591
0.002147
-0.00703524
0.0021519
-0.00576653
0.00245062
1.67682e-05
0.0028922
0.00680771
0.00326002
0.0105817
0.00342602
0.00529393
0.00290895
-0.000724849
0.00206558
-0.00155251
0.00145733
-0.00480299
0.00127713
-0.00992514
0.00138894
-0.00744821
0.0015622
-0.00235125
0.00169604
0.00118532
0.00203384
0.00525661
0.00247024
0.00793037
0.00286263
0.0066211
0.00319817
0.00342164
0.00337696
0.00100578
0.00337591
-0.00143371
0.00326208
-0.000555173
0.00311342
0.00299323
0.00295414
0.00406274
0.00277399
0.00579125
0.00283824
0.00508818
0.00287102
0.00125963
0.00292948
-0.000379357
0.00313703
-0.00362702
0.00307139
-0.00704112
0.00264025
-0.00701751
0.00216319
-0.00594376
0.001912
-0.00484673
0.00175882
-0.00331632
0.00170623
-0.00134273
0.00185703
0.001307
0.00210074
0.00357003
0.00231343
0.00506671
0.00249977
0.00549493
0.0026062
0.00493857
0.00264876
0.00367218
0.00270636
0.000678114
0.00264895
-0.00292511
0.00243429
-0.0049633
0.00222084
-0.00491445
0.00206845
-0.0035704
0.00202051
-0.00134396
0.00211715
0.00170914
0.0022564
0.00404041
0.00236306
0.00395351
0.00243698
0.0016093
0.00244008
-0.00108833
0.00237067
-0.00239569
0.00232156
-0.00178007
0.00235432
0.000154042
0.00242455
0.00195709
0.00248716
0.00255696
0.00254383
0.00175123
0.00258167
0.000228632
0.00258321
-0.000961297
0.0025526
-0.00128084
0.00250646
-0.000946725
0.00246011
-0.000434954
0.0024207
-4.80461e-05
0.00238896
0.000144164
0.0023629
0.000192672
0.00233984
0.000171425
0.00231747
0.000133492
0.00229437
0.000105158
0.00227024
9.23468e-05
0.00224583
8.99e-05
0.0022223
8.938e-05
0.00220102
8.49701e-05
0.00218268
7.47478e-05
0.00216794
6.0322e-05
0.00215616
4.50086e-05
0.00214774
3.00315e-05
0.00214095
2.02783e-05
8.94321e-06
0.00403765
-0.000773313
0.00412687
-8.0448e-05
0.00418747
-0.000500291
0.00418177
-0.000209275
0.00422189
-0.000481649
0.00426474
-0.000738767
0.0043618
-0.000251057
0.00431451
-0.0016507
0.00432621
-0.000290728
0.00431503
-0.00152414
0.00436009
-0.00119003
0.00429474
0.000650201
0.00437863
-0.00195662
0.00464704
-0.0003192
0.00475683
-0.00044658
0.00472399
-0.00520126
0.00488825
-0.00351245
0.0049466
-0.00150111
0.00466382
-0.00435079
0.00419014
-0.00532579
0.00356384
-0.00454517
0.00278564
-0.00320223
0.00209946
-0.00327293
0.00187469
-0.00681047
0.00195812
-0.00584996
0.00225748
-0.000282592
0.00270212
0.00636307
0.00316021
0.0101236
0.00332706
0.00512708
0.00276258
-0.000160367
0.00190595
-0.000695881
0.00127142
-0.00416845
0.0010508
-0.00970453
0.00114265
-0.00754006
0.00131257
-0.00252117
0.00145534
0.00104256
0.00177957
0.00493238
0.00221842
0.00749152
0.00263952
0.00620001
0.00303097
0.00303018
0.0032771
0.000759643
0.00328094
-0.00143755
0.00316477
-0.000438998
0.00306872
0.00308928
0.00296093
0.00417053
0.00281727
0.00593491
0.00290758
0.00499787
0.00292577
0.00124144
0.00300827
-0.000461856
0.00320454
-0.00382329
0.00305016
-0.00688675
0.00253688
-0.00650423
0.00201953
-0.00542641
0.0017555
-0.00458269
0.00159847
-0.0031593
0.00153728
-0.00128154
0.00168324
0.00116103
0.00193614
0.00331714
0.00217971
0.00482313
0.0024105
0.00526414
0.00255033
0.00479874
0.00262005
0.00360245
0.00269009
0.000608078
0.00261394
-0.00284896
0.00236152
-0.00471088
0.00211634
-0.00466927
0.00194968
-0.00340373
0.00189344
-0.00128772
0.00199131
0.00161127
0.00214704
0.00388467
0.00228093
0.00381963
0.00237408
0.00151615
0.0023748
-0.00108905
0.00229245
-0.00231334
0.00223224
-0.00171987
0.00226147
0.000124812
0.002341
0.00187756
0.00242363
0.00247433
0.00249662
0.00167825
0.00253824
0.000187008
0.00253541
-0.000958462
0.00249834
-0.00124378
0.00244712
-0.000895498
0.00239849
-0.000386323
0.00235935
-8.91525e-06
0.00232945
0.000174069
0.00230568
0.000216442
0.00228477
0.000192335
0.00226435
0.000153917
0.00224337
0.000126134
0.00222202
0.000113694
0.00220134
0.000110585
0.00218246
0.000108261
0.00216638
0.000101043
0.00215334
8.77886e-05
0.00214344
7.02229e-05
0.00213588
5.25755e-05
0.00213062
3.52832e-05
0.00212644
2.44573e-05
1.14195e-05
0.00438262
-0.000679806
0.00442781
-0.00012564
0.00450732
-0.000579799
0.00447053
-0.000172484
0.00451609
-0.000527212
0.00450107
-0.000723745
0.00461382
-0.000363807
0.00454554
-0.00158242
0.00453549
-0.000280679
0.0045365
-0.00152515
0.00452614
-0.00117966
0.004519
0.000657334
0.00453455
-0.00197216
0.00475117
-0.000535826
0.00489066
-0.000586063
0.00474976
-0.00506037
0.00482264
-0.00358534
0.00488003
-0.00155849
0.00453859
-0.00400936
0.00400755
-0.00479475
0.00333806
-0.00387568
0.00251042
-0.00237458
0.00181793
-0.00258044
0.00159783
-0.00659036
0.0017487
-0.00600083
0.00203437
-0.000568269
0.0024722
0.00592523
0.00301398
0.00958188
0.00318421
0.00495685
0.00259146
0.000432376
0.00174281
0.000152774
0.00109789
-0.00352353
0.000842863
-0.0094495
0.000910683
-0.00760788
0.00107092
-0.0026814
0.00121907
0.000894402
0.00152187
0.00462958
0.00195017
0.00706321
0.0023878
0.00576238
0.00283847
0.00257951
0.00314376
0.000454361
0.00314357
-0.00143736
0.00302479
-0.000320221
0.00298727
0.0031268
0.00293398
0.00422382
0.00283943
0.00602946
0.00295986
0.00487745
0.00296648
0.00123482
0.0030766
-0.000571977
0.00324997
-0.00399666
0.00299999
-0.00663677
0.0024105
-0.00591474
0.00186298
-0.00487888
0.00159109
-0.0043108
0.00143407
-0.00300229
0.00136691
-0.00121438
0.00150626
0.00102168
0.00176368
0.00305972
0.00203451
0.00455231
0.00230679
0.00499186
0.00247821
0.00462732
0.00257743
0.00350323
0.00266025
0.000525255
0.00256354
-0.00275225
0.00227481
-0.00442215
0.002
-0.00439446
0.00182133
-0.00322506
0.00175937
-0.00122577
0.00185751
0.00151313
0.00202741
0.00371477
0.00218846
0.00365858
0.00230012
0.00140449
0.00229665
-0.00108557
0.00220057
-0.00221726
0.00212946
-0.00164876
0.00215489
9.93819e-05
0.00224334
0.00178912
0.00234548
0.00237219
0.00243357
0.00159015
0.00247896
0.000141627
0.00247273
-0.000952238
0.00242966
-0.00120071
0.00237352
-0.000839358
0.0023229
-0.000335704
0.00228445
2.95386e-05
0.00225673
0.000201788
0.00223558
0.000237597
0.00221719
0.000210724
0.00219929
0.000171819
0.00218129
0.00014413
0.00216384
0.000131148
0.00214811
0.000126315
0.00213505
0.00012132
0.00212514
0.000110948
0.0021181
9.48287e-05
0.00211346
7.48612e-05
0.00211033
5.57104e-05
0.00210833
3.72769e-05
0.00210677
2.60171e-05
1.24296e-05
0.00463575
-0.000597312
0.00464335
-0.000133241
0.00472529
-0.000661744
0.00467999
-0.000127186
0.0047138
-0.000561017
0.00466512
-0.000675066
0.00477499
-0.000473675
0.00468789
-0.00149532
0.0046708
-0.000263595
0.00466564
-0.00151999
0.00460602
-0.00112004
0.00465539
0.000607964
0.00459562
-0.0019124
0.00476126
-0.000701465
0.00493798
-0.000762783
0.0046977
-0.00482008
0.00468894
-0.00357657
0.0047455
-0.00161506
0.0043552
-0.00361906
0.0037758
-0.00421534
0.00307142
-0.0031713
0.00221323
-0.00151639
0.00153582
-0.00190303
0.00131601
-0.00637056
0.00150287
-0.00618768
0.00177613
-0.000841532
0.00220737
0.00549399
0.00282098
0.00896827
0.00299937
0.00477846
0.0023998
0.00103195
0.00158371
0.00096886
0.00094888
-0.0028887
0.000657135
-0.00915776
0.000684192
-0.00763494
0.000818772
-0.00281598
0.000970177
0.000742998
0.00126292
0.00433683
0.00167029
0.00665584
0.00211494
0.00531773
0.00262657
0.00206788
0.00296823
0.000112698
0.00295908
-0.00142821
0.00284049
-0.000201627
0.00286623
0.00310106
0.00286981
0.00422024
0.00283858
0.00606069
0.00299189
0.00472414
0.00299217
0.00123453
0.00313311
-0.000712912
0.00326928
-0.00413283
0.00291874
-0.00628622
0.00226236
-0.00525837
0.00169598
-0.0043125
0.00142015
-0.00403498
0.00126665
-0.00284879
0.00119743
-0.00114516
0.00132824
0.00089087
0.00158493
0.00280303
0.00187956
0.00425767
0.00218997
0.00468146
0.00239072
0.00442657
0.00252198
0.00337197
0.00261752
0.000429713
0.00249816
-0.00263288
0.00217506
-0.00409906
0.00187297
-0.00409237
0.00168416
-0.00303626
0.00161892
-0.00116053
0.00171641
0.00141564
0.00189892
0.00353227
0.00208745
0.00347005
0.00221608
0.00127586
0.00220617
-0.00107567
0.00209556
-0.00210665
0.00201331
-0.00156651
0.00203475
7.79432e-05
0.00213248
0.00169139
0.00225352
0.00225115
0.00235548
0.00148819
0.00240518
9.19256e-05
0.00239614
-0.000943198
0.00234657
-0.00115113
0.00228517
-0.000777954
0.00223277
-0.00028331
0.0021955
6.68085e-05
0.00217049
0.000226795
0.00215249
0.000255601
0.00213729
0.000225921
0.00212285
0.000186257
0.00210906
0.000157923
0.00209686
0.000143347
0.00208737
0.000135812
0.00208112
0.000127565
0.00207798
0.000114087
0.00207715
9.56592e-05
0.0020777
7.43118e-05
0.00207874
5.46695e-05
0.00207972
3.62969e-05
0.00208048
2.52599e-05
1.21635e-05
0.00479319
-0.000531985
0.00477594
-0.000115996
0.00484077
-0.000726575
0.00480706
-9.34719e-05
0.00481644
-0.000570393
0.004757
-0.000615627
0.00485321
-0.000569884
0.00474727
-0.00138939
0.00473899
-0.000255318
0.00470501
-0.00148601
0.0046119
-0.00102693
0.00470657
0.000513293
0.00457001
-0.00177584
0.00470007
-0.000831529
0.00490423
-0.000966942
0.00457199
-0.00448784
0.00449488
-0.00349946
0.00454053
-0.0016607
0.00410735
-0.00318588
0.00348973
-0.00359773
0.00276348
-0.00244505
0.00189791
-0.000650822
0.00125832
-0.00126344
0.0010183
-0.00613054
0.00119815
-0.00636753
0.00147375
-0.00111713
0.00190637
0.00506137
0.00258338
0.00829126
0.00277671
0.00458512
0.00219191
0.00161675
0.00143528
0.0017255
0.000831035
-0.00228446
0.000483486
-0.00881021
0.000450983
-0.00760244
0.000540861
-0.00290586
0.000690729
0.00059313
0.00100388
0.00402369
0.001394
0.00626571