/*--------------------------------*- C++ -*----------------------------------*\
| =========                 |                                                 |
| \\      /  F ield         | OpenFOAM: The Open Source CFD Toolbox           |
|  \\    /   O peration     | Version:  2.4.0                                 |
|   \\  /    A nd           | Web:      www.OpenFOAM.org                      |
|    \\/     M anipulation  |                                                 |
\*---------------------------------------------------------------------------*/
FoamFile
{
    version     2.0;
    format      ascii;
    class       volVectorField;
    location    "0.8";
    object      UMean;
}
// * * * * * * * * * * * * * * * * * * * * * * * * * * * * * * * * * * * * * //

dimensions      [0 1 -1 0 0 0 0];

internalField   nonuniform List<vector> 
8800
(
(8.09339 0.386894 0)
(5.46213 0.242385 0)
(3.93317 0.043083 0)
(3.17264 -0.0151422 0)
(2.82899 -0.0183108 0)
(2.61381 -0.0108634 0)
(2.51979 -0.0058519 0)
(2.39721 -0.00196635 0)
(2.36197 -0.00180406 0)
(2.26854 -0.000121282 0)
(2.26585 -0.00109575 0)
(2.18547 0.000520004 0)
(2.19824 -0.000642445 0)
(2.11908 0.00113944 0)
(2.13603 -0.000293582 0)
(2.05456 0.00184052 0)
(2.06853 -0.000201535 0)
(1.98069 0.00176028 0)
(2.01232 0.0058885 0)
(1.76062 -0.0538228 0)
(10.0847 0.835594 0)
(9.65225 0.864933 0)
(8.89526 0.504795 0)
(8.07647 0.260892 0)
(7.53133 0.136808 0)
(6.99811 0.0817104 0)
(6.75179 0.0524425 0)
(6.39013 0.0404541 0)
(6.29867 0.0279424 0)
(6.01591 0.0246936 0)
(6.01721 0.0165738 0)
(5.7716 0.018623 0)
(5.82478 0.0125951 0)
(5.5908 0.0179004 0)
(5.66721 0.012284 0)
(5.43378 0.0190465 0)
(5.51542 0.0165867 0)
(5.26959 0.0151763 0)
(5.3731 0.0314387 0)
(5.04881 -0.0402394 0)
(10.0773 0.629776 0)
(10.6319 0.859969 0)
(10.9036 0.598327 0)
(10.6518 0.371829 0)
(10.5057 0.253502 0)
(10.0379 0.195342 0)
(9.90323 0.150108 0)
(9.44229 0.121892 0)
(9.40196 0.0903123 0)
(8.98005 0.0762389 0)
(9.03578 0.0546006 0)
(8.64478 0.0533184 0)
(8.77071 0.0381573 0)
(8.39057 0.0448922 0)
(8.55924 0.0327997 0)
(8.17527 0.0434134 0)
(8.36597 0.0372887 0)
(7.96249 0.0437557 0)
(8.16633 0.0493097 0)
(7.73784 -0.0258919 0)
(10.0502 0.45674 0)
(10.5066 0.701983 0)
(11.235 0.542981 0)
(11.2966 0.350761 0)
(11.6318 0.259307 0)
(11.3696 0.226469 0)
(11.5772 0.196285 0)
(11.2009 0.175251 0)
(11.3973 0.142181 0)
(10.9737 0.126081 0)
(11.1981 0.098212 0)
(10.7523 0.0945606 0)
(11.0125 0.0727839 0)
(10.5484 0.0797774 0)
(10.839 0.0602229 0)
(10.3549 0.0766743 0)
(10.6658 0.0569808 0)
(10.1564 0.0874871 0)
(10.4599 0.0561869 0)
(9.92385 0.0935622 0)
(10.1519 0.346967 0)
(10.2933 0.564109 0)
(11.1568 0.458357 0)
(11.1912 0.293502 0)
(11.7664 0.206097 0)
(11.5554 0.192858 0)
(11.9935 0.173712 0)
(11.6987 0.170709 0)
(12.1005 0.138623 0)
(11.7657 0.135406 0)
(12.1546 0.101764 0)
(11.7914 0.111042 0)
(12.1724 0.0789028 0)
(11.7849 0.102129 0)
(12.1565 0.0666564 0)
(11.7481 0.104934 0)
(12.1051 0.0611444 0)
(11.6781 0.122214 0)
(11.9968 0.0572773 0)
(11.5247 0.142136 0)
(10.1684 0.251338 0)
(10.2197 0.453613 0)
(10.9933 0.373092 0)
(11.0958 0.248114 0)
(11.6135 0.157105 0)
(11.5251 0.152806 0)
(11.8823 0.13662 0)
(11.7444 0.14443 0)
(12.0565 0.112414 0)
(11.9178 0.116878 0)
(12.2067 0.0828988 0)
(12.0693 0.0966789 0)
(12.3363 0.0661306 0)
(12.1977 0.0904879 0)
(12.44 0.0607085 0)
(12.2995 0.094138 0)
(12.5134 0.0628367 0)
(12.3686 0.105146 0)
(12.5343 0.0614128 0)
(12.3186 0.0677325 0)
(10.0461 0.170245 0)
(10.2794 0.35632 0)
(10.7663 0.282549 0)
(11.1049 0.208575 0)
(11.3923 0.111675 0)
(11.5499 0.119938 0)
(11.6705 0.097841 0)
(11.767 0.120252 0)
(11.8457 0.080615 0)
(11.9452 0.0982443 0)
(12.0083 0.0563854 0)
(12.1117 0.0816536 0)
(12.1598 0.0426981 0)
(12.2636 0.077422 0)
(12.2954 0.0391932 0)
(12.3979 0.0815994 0)
(12.4121 0.0408628 0)
(12.5078 0.0874708 0)
(12.4838 0.0294174 0)
(12.486 0.0320333 0)
(9.94001 0.109149 0)
(10.3292 0.256402 0)
(10.6034 0.197587 0)
(11.1028 0.157022 0)
(11.2368 0.0751541 0)
(11.5556 0.0847554 0)
(11.527 0.0662422 0)
(11.7641 0.0890402 0)
(11.6994 0.0554431 0)
(11.9349 0.0725971 0)
(11.8628 0.0371807 0)
(12.0983 0.0599935 0)
(12.0166 0.0271084 0)
(12.2487 0.05682 0)
(12.1561 0.0246152 0)
(12.3826 0.0593128 0)
(12.278 0.0237292 0)
(12.4922 0.058538 0)
(12.3516 0.00646842 0)
(12.4596 0.00740393 0)
(9.87951 0.058252 0)
(10.3541 0.158036 0)
(10.5048 0.114857 0)
(11.0933 0.100382 0)
(11.143 0.0406185 0)
(11.5518 0.0551477 0)
(11.4417 0.0354272 0)
(11.7557 0.0597427 0)
(11.6111 0.0295032 0)
(11.9224 0.0495508 0)
(11.7746 0.0175782 0)
(12.0852 0.0416328 0)
(11.9299 0.0110166 0)
(12.2365 0.0393865 0)
(12.0705 0.00829659 0)
(12.3723 0.039202 0)
(12.1935 0.00426803 0)
(12.4835 0.0330812 0)
(12.2642 -0.0143056 0)
(12.4459 -0.00985503 0)
(9.87823 0.0148676 0)
(10.3414 0.0592542 0)
(10.4853 0.0334787 0)
(11.0681 0.0397528 0)
(11.1287 0.00814719 0)
(11.533 0.0245855 0)
(11.4349 0.00615858 0)
(11.7378 0.0269914 0)
(11.6061 0.00403332 0)
(11.9053 0.0233558 0)
(11.7726 -0.000781355 0)
(12.0713 0.0203142 0)
(11.9319 -0.00401841 0)
(12.2262 0.0185387 0)
(12.0765 -0.00717718 0)
(12.3656 0.0152157 0)
(12.2037 -0.013852 0)
(12.48 0.00531121 0)
(12.277 -0.0316594 0)
(12.4419 -0.0274064 0)
(9.92225 -0.0272426 0)
(10.301 -0.0392779 0)
(10.5313 -0.0495666 0)
(11.0333 -0.021788 0)
(11.177 -0.02537 0)
(11.502 -0.00624854 0)
(11.4864 -0.0239282 0)
(11.71 -0.00687987 0)
(11.6613 -0.022743 0)
(11.8804 -0.00352217 0)
(11.8315 -0.0200798 0)
(12.0487 -0.00150521 0)
(11.9945 -0.0202389 0)
(12.2052 -0.00297439 0)
(12.1426 -0.0240858 0)
(12.3456 -0.00913514 0)
(12.2727 -0.0331293 0)
(12.4599 -0.0220146 0)
(12.3476 -0.0496185 0)
(12.4187 -0.0437594 0)
(9.97143 -0.0704346 0)
(10.267 -0.140228 0)
(10.5996 -0.130548 0)
(11.0153 -0.0846369 0)
(11.244 -0.0566626 0)
(11.4801 -0.0390363 0)
(11.5498 -0.0516533 0)
(11.6893 -0.0422399 0)
(11.7266 -0.0465373 0)
(11.8607 -0.0321844 0)
(11.8974 -0.0367404 0)
(12.0281 -0.0251204 0)
(12.0601 -0.0336464 0)
(12.1831 -0.0259834 0)
(12.2076 -0.0380992 0)
(12.3215 -0.034663 0)
(12.3363 -0.0499693 0)
(12.4333 -0.0508837 0)
(12.4096 -0.0665294 0)
(12.3904 -0.0604214 0)
(9.99693 -0.120191 0)
(10.2681 -0.242305 0)
(10.6676 -0.212072 0)
(11.0411 -0.144927 0)
(11.3089 -0.0893233 0)
(11.4944 -0.0720949 0)
(11.6055 -0.0806921 0)
(11.7038 -0.0758732 0)
(11.7836 -0.0707225 0)
(11.8761 -0.0595132 0)
(11.953 -0.0545853 0)
(12.0419 -0.0477055 0)
(12.1133 -0.0482484 0)
(12.1952 -0.0473694 0)
(12.2585 -0.0532651 0)
(12.3317 -0.0577675 0)
(12.3851 -0.0687745 0)
(12.4422 -0.0778992 0)
(12.4596 -0.0888412 0)
(12.4037 -0.0761302 0)
(10.0192 -0.179479 0)
(10.29 -0.346027 0)
(10.7566 -0.294335 0)
(11.1017 -0.199329 0)
(11.3932 -0.123373 0)
(11.5414 -0.109748 0)
(11.678 -0.109919 0)
(11.7543 -0.110321 0)
(11.8585 -0.0937822 0)
(11.93 -0.0883012 0)
(12.0264 -0.0716563 0)
(12.096 -0.0724811 0)
(12.1835 -0.061927 0)
(12.2478 -0.0709355 0)
(12.3242 -0.0663015 0)
(12.3813 -0.0823336 0)
(12.4443 -0.0846175 0)
(12.487 -0.107231 0)
(12.5135 -0.111137 0)
(12.4512 -0.10424 0)
(10.0553 -0.255345 0)
(10.3141 -0.449424 0)
(10.894 -0.37885 0)
(11.1746 -0.244152 0)
(11.5227 -0.163029 0)
(11.597 -0.148168 0)
(11.7957 -0.142684 0)
(11.8108 -0.140808 0)
(11.9726 -0.119315 0)
(11.9805 -0.113714 0)
(12.1252 -0.0912578 0)
(12.1296 -0.0950572 0)
(12.2564 -0.0775949 0)
(12.2551 -0.0925177 0)
(12.36 -0.078861 0)
(12.3512 -0.104074 0)
(12.4283 -0.0958424 0)
(12.4054 -0.133436 0)
(12.43 -0.127237 0)
(12.3165 -0.142063 0)
(10.051 -0.349522 0)
(10.3905 -0.561002 0)
(11.0479 -0.461857 0)
(11.2921 -0.290168 0)
(11.6544 -0.210536 0)
(11.6571 -0.188607 0)
(11.8764 -0.178798 0)
(11.8019 -0.166758 0)
(11.9768 -0.145107 0)
(11.8707 -0.131325 0)
(12.0231 -0.110289 0)
(11.8978 -0.107573 0)
(12.0305 -0.0912922 0)
(11.8901 -0.100933 0)
(11.9987 -0.086592 0)
(11.8455 -0.109035 0)
(11.9192 -0.0972841 0)
(11.751 -0.138735 0)
(11.7571 -0.127306 0)
(11.524 -0.163733 0)
(10.0042 -0.458135 0)
(10.5571 -0.700455 0)
(11.1698 -0.544287 0)
(11.3622 -0.349647 0)
(11.5577 -0.261614 0)
(11.4426 -0.224789 0)
(11.4937 -0.199027 0)
(11.2798 -0.173684 0)
(11.3036 -0.145749 0)
(11.0569 -0.124721 0)
(11.093 -0.102834 0)
(10.8375 -0.0945121 0)
(10.8927 -0.079322 0)
(10.6305 -0.0834477 0)
(10.6965 -0.0704168 0)
(10.4241 -0.088317 0)
(10.4826 -0.0752929 0)
(10.1914 -0.116864 0)
(10.1969 -0.0978115 0)
(9.85727 -0.16041 0)
(10.0588 -0.631449 0)
(10.6529 -0.858319 0)
(10.8682 -0.599028 0)
(10.688 -0.371009 0)
(10.4616 -0.255164 0)
(10.0822 -0.194202 0)
(9.84978 -0.1522 0)
(9.49192 -0.120467 0)
(9.34001 -0.0930985 0)
(9.0319 -0.07474 0)
(8.96564 -0.0583744 0)
(8.69471 -0.0524148 0)
(8.69044 -0.0436228 0)
(8.43117 -0.0462384 0)
(8.46172 -0.0409641 0)
(8.19327 -0.0509104 0)
(8.23221 -0.0490304 0)
(7.93354 -0.0706928 0)
(7.93485 -0.0723403 0)
(7.58391 -0.0902502 0)
(10.0792 -0.836488 0)
(9.6574 -0.863899 0)
(8.87964 -0.504982 0)
(8.09384 -0.260468 0)
(7.50904 -0.137798 0)
(7.02118 -0.0812242 0)
(6.72167 -0.0534619 0)
(6.41665 -0.0397604 0)
(6.26288 -0.029285 0)
(6.04282 -0.0239987 0)
(5.97636 -0.0183831 0)
(5.79461 -0.0182912 0)
(5.77775 -0.0152352 0)
(5.60223 -0.0187065 0)
(5.60836 -0.0164249 0)
(5.41934 -0.0232462 0)
(5.42815 -0.0224872 0)
(5.20363 -0.0332646 0)
(5.19168 -0.039167 0)
(4.89117 -0.0211893 0)
(8.09232 -0.38715 0)
(5.46124 -0.242045 0)
(3.93005 -0.0432528 0)
(3.17793 0.0152005 0)
(2.82295 0.0180326 0)
(2.62035 0.0110518 0)
(2.51001 0.00560059 0)
(2.40471 0.00223345 0)
(2.35002 0.00149333 0)
(2.27577 0.00038534 0)
(2.25143 0.000713902 0)
(2.1903 -0.000295461 0)
(2.18023 0.00018701 0)
(2.11713 -0.00114427 0)
(2.11035 -0.000354382 0)
(2.03708 -0.00233835 0)
(2.02417 -0.0011958 0)
(1.93148 -0.00391438 0)
(1.89294 -0.00450761 0)
(1.73756 0.0116377 0)
(2.23941 -0.0929454 0)
(2.32121 -0.00516779 0)
(2.58841 -0.00349403 0)
(2.72349 -0.0234981 0)
(2.9706 -0.048349 0)
(3.05419 -0.0552625 0)
(3.25217 -0.0619933 0)
(3.28485 -0.0555548 0)
(3.44359 -0.0622452 0)
(3.45326 -0.0648492 0)
(3.60545 -0.0757857 0)
(3.60706 -0.0794712 0)
(3.76273 -0.0923075 0)
(3.76291 -0.0964713 0)
(3.91879 -0.109534 0)
(3.91799 -0.114521 0)
(4.07935 -0.127099 0)
(4.08073 -0.131818 0)
(4.2585 -0.143964 0)
(4.26668 -0.146891 0)
(4.45286 -0.163724 0)
(4.4578 -0.173613 0)
(4.64236 -0.195028 0)
(4.63748 -0.207681 0)
(4.81733 -0.230794 0)
(4.80017 -0.2432 0)
(4.97618 -0.264281 0)
(4.94945 -0.271501 0)
(5.12708 -0.287212 0)
(5.10168 -0.292024 0)
(5.28955 -0.311094 0)
(5.27464 -0.321152 0)
(5.47282 -0.346659 0)
(5.46252 -0.360997 0)
(5.65984 -0.388127 0)
(5.64507 -0.401952 0)
(5.83774 -0.42757 0)
(5.81737 -0.438222 0)
(6.00761 -0.463286 0)
(5.98206 -0.47319 0)
(6.17257 -0.49852 0)
(6.13906 -0.508845 0)
(6.33207 -0.536799 0)
(6.28752 -0.549317 0)
(6.4835 -0.579156 0)
(6.42649 -0.592024 0)
(6.62591 -0.622358 0)
(6.56181 -0.632183 0)
(6.76312 -0.661189 0)
(6.69965 -0.665432 0)
(6.89943 -0.691415 0)
(6.84313 -0.689373 0)
(7.04212 -0.71297 0)
(6.99445 -0.709068 0)
(7.19534 -0.73506 0)
(7.15057 -0.734646 0)
(7.35661 -0.765666 0)
(7.30421 -0.768417 0)
(7.51386 -0.80063 0)
(7.44337 -0.802102 0)
(7.65811 -0.833743 0)
(7.57549 -0.832804 0)
(7.7979 -0.864865 0)
(7.71729 -0.862635 0)
(7.94273 -0.895322 0)
(7.87098 -0.893842 0)
(8.08636 -0.927086 0)
(8.01447 -0.927038 0)
(8.21399 -0.955851 0)
(8.13839 -0.955955 0)
(8.32885 -0.987447 0)
(8.25285 -0.985112 0)
(8.42801 -1.01557 0)
(8.3559 -1.01035 0)
(8.52351 -1.04192 0)
(8.46036 -1.03507 0)
(8.62466 -1.0653 0)
(8.57211 -1.05837 0)
(8.74031 -1.08871 0)
(8.69058 -1.07739 0)
(8.8724 -1.10542 0)
(8.81177 -1.08689 0)
(9.011 -1.10665 0)
(8.92832 -1.08634 0)
(9.14307 -1.10234 0)
(9.0485 -1.07895 0)
(9.25225 -1.10223 0)
(9.17488 -1.07951 0)
(9.34297 -1.10821 0)
(9.28588 -1.08746 0)
(9.41753 -1.11435 0)
(9.36792 -1.09039 0)
(9.46445 -1.111 0)
(9.40892 -1.08547 0)
(9.48276 -1.10273 0)
(9.42262 -1.07216 0)
(9.47892 -1.08457 0)
(9.41378 -1.05073 0)
(9.46069 -1.06157 0)
(9.40725 -1.02982 0)
(9.45341 -1.04215 0)
(9.41692 -1.00875 0)
(9.47196 -1.02641 0)
(9.44934 -0.987303 0)
(9.50786 -0.997085 0)
(9.4827 -0.944625 0)
(9.5387 -0.957855 0)
(9.49017 -0.902779 0)
(9.54712 -0.920895 0)
(9.47163 -0.857189 0)
(9.52558 -0.877185 0)
(9.42411 -0.806228 0)
(9.45677 -0.822375 0)
(9.34264 -0.741802 0)
(9.35719 -0.758861 0)
(9.26605 -0.673254 0)
(9.27278 -0.690911 0)
(9.20997 -0.60117 0)
(9.19653 -0.616319 0)
(9.14087 -0.519682 0)
(9.11746 -0.531905 0)
(9.07109 -0.435123 0)
(9.05414 -0.453744 0)
(9.01275 -0.358505 0)
(9.00498 -0.387268 0)
(8.9527 -0.297454 0)
(8.97153 -0.329602 0)
(8.88626 -0.236405 0)
(8.93832 -0.264135 0)
(8.82048 -0.167697 0)
(8.89639 -0.192293 0)
(8.76287 -0.0998202 0)
(8.84292 -0.132139 0)
(8.71647 -0.045309 0)
(8.79308 -0.0897122 0)
(8.67543 -0.00543595 0)
(8.74442 -0.0545136 0)
(8.63187 0.0292709 0)
(8.70075 -0.0192943 0)
(8.58731 0.0621232 0)
(8.65412 0.0101924 0)
(8.54351 0.0890225 0)
(8.59639 0.0494272 0)
(8.49732 0.122297 0)
(8.54518 0.0807403 0)
(8.45885 0.149908 0)
(8.48273 0.124156 0)
(8.41588 0.197434 0)
(8.41399 0.169168 0)
(8.38204 0.241332 0)
(8.34234 0.2082 0)
(8.35134 0.286925 0)
(8.28608 0.265369 0)
(8.32545 0.344439 0)
(8.239 0.323307 0)
(8.30905 0.414995 0)
(8.21129 0.40166 0)
(8.28171 0.486662 0)
(8.19983 0.482296 0)
(8.27009 0.564769 0)
(8.20103 0.540264 0)
(8.2581 0.626213 0)
(8.20696 0.594459 0)
(8.22671 0.689858 0)
(8.20329 0.655262 0)
(8.16693 0.755326 0)
(8.21015 0.719461 0)
(8.10205 0.820324 0)
(8.19045 0.786118 0)
(8.01688 0.902111 0)
(8.14774 0.850426 0)
(7.89847 0.980995 0)
(8.08129 0.921865 0)
(7.7465 1.07792 0)
(8.01015 0.993849 0)
(7.59986 1.19452 0)
(7.95073 1.07732 0)
(7.45741 1.31764 0)
(7.90145 1.1682 0)
(7.34354 1.46827 0)
(7.83529 1.27078 0)
(7.23968 1.62082 0)
(7.74315 1.38062 0)
(7.12651 1.77268 0)
(7.61447 1.51353 0)
(7.01023 1.93198 0)
(7.45272 1.68831 0)
(6.86356 2.11149 0)
(7.27816 1.91977 0)
(6.67862 2.33036 0)
(7.09849 2.20987 0)
(6.44401 2.61614 0)
(6.85932 2.57817 0)
(6.17581 3.03558 0)
(6.51878 3.05988 0)
(5.90259 3.74532 0)
(6.10188 3.80009 0)
(5.30584 4.89015 0)
(6.27785 5.46725 0)
(4.01725 8.39341 0)
(5.28915 -0.06143 0)
(5.22601 -0.0275479 0)
(5.33904 -0.0439376 0)
(5.34693 -0.0785802 0)
(5.53161 -0.114635 0)
(5.55016 -0.125349 0)
(5.71481 -0.130264 0)
(5.69102 -0.12154 0)
(5.82378 -0.122696 0)
(5.77381 -0.120975 0)
(5.90484 -0.131822 0)
(5.85277 -0.136737 0)
(5.99679 -0.151472 0)
(5.94896 -0.156944 0)
(6.10519 -0.170852 0)
(6.05841 -0.175499 0)
(6.22464 -0.189325 0)
(6.1767 -0.193457 0)
(6.35156 -0.208809 0)
(6.30376 -0.213813 0)
(6.48589 -0.231992 0)
(6.43607 -0.240912 0)
(6.62042 -0.262271 0)
(6.56353 -0.272542 0)
(6.74912 -0.294793 0)
(6.68436 -0.304294 0)
(6.87307 -0.324951 0)
(6.8024 -0.331557 0)
(6.99621 -0.350899 0)
(6.92264 -0.357048 0)
(7.12504 -0.379021 0)
(7.05138 -0.388332 0)
(7.26228 -0.415304 0)
(7.18578 -0.427111 0)
(7.39948 -0.455811 0)
(7.31553 -0.465491 0)
(7.52816 -0.492804 0)
(7.43595 -0.499118 0)
(7.64743 -0.525784 0)
(7.54792 -0.531065 0)
(7.76072 -0.558754 0)
(7.65574 -0.564515 0)
(7.87168 -0.594201 0)
(7.76288 -0.601101 0)
(7.98174 -0.63279 0)
(7.87062 -0.639829 0)
(8.08959 -0.672871 0)
(7.97777 -0.678744 0)
(8.19414 -0.711217 0)
(8.08193 -0.71395 0)
(8.29625 -0.743302 0)
(8.18188 -0.741497 0)
(8.39799 -0.768356 0)
(8.27882 -0.763965 0)
(8.50101 -0.791731 0)
(8.37452 -0.788248 0)
(8.60517 -0.819303 0)
(8.46994 -0.818842 0)
(8.70836 -0.852793 0)
(8.56535 -0.853421 0)
(8.80824 -0.887919 0)
(8.65994 -0.887541 0)
(8.90408 -0.921534 0)
(8.75406 -0.91908 0)
(8.99473 -0.952138 0)
(8.85014 -0.94698 0)
(9.08042 -0.977307 0)
(8.94447 -0.971946 0)
(9.1645 -1.00349 0)
(9.03589 -1.00082 0)
(9.2465 -1.0304 0)
(9.11798 -1.02435 0)
(9.32234 -1.05368 0)
(9.19399 -1.04705 0)
(9.39333 -1.08024 0)
(9.26854 -1.07095 0)
(9.46376 -1.10643 0)
(9.34375 -1.09503 0)
(9.53526 -1.1306 0)
(9.4158 -1.11661 0)
(9.61185 -1.14831 0)
(9.4864 -1.12584 0)
(9.68689 -1.15316 0)
(9.56093 -1.12253 0)
(9.74991 -1.1455 0)
(9.63699 -1.11331 0)
(9.80176 -1.13967 0)
(9.70972 -1.10929 0)
(9.83964 -1.13782 0)
(9.76482 -1.11063 0)
(9.86492 -1.13395 0)
(9.79597 -1.10143 0)
(9.86487 -1.11959 0)
(9.79376 -1.08519 0)
(9.83789 -1.09946 0)
(9.76411 -1.06153 0)
(9.7951 -1.07372 0)
(9.72156 -1.03739 0)
(9.75849 -1.05339 0)
(9.68918 -1.02252 0)
(9.73849 -1.0452 0)
(9.67582 -1.01275 0)
(9.74078 -1.04073 0)
(9.66888 -0.995007 0)
(9.74854 -1.00654 0)
(9.65924 -0.949479 0)
(9.74679 -0.957657 0)
(9.63798 -0.897585 0)
(9.71827 -0.913194 0)
(9.59306 -0.843517 0)
(9.65354 -0.852108 0)
(9.51356 -0.769632 0)
(9.55107 -0.776946 0)
(9.40657 -0.697569 0)
(9.44289 -0.715748 0)
(9.3168 -0.641122 0)
(9.35141 -0.659223 0)
(9.24166 -0.572899 0)
(9.27087 -0.581885 0)
(9.16121 -0.491769 0)
(9.19968 -0.501371 0)
(9.08111 -0.413373 0)
(9.14531 -0.430022 0)
(9.01437 -0.338208 0)
(9.10686 -0.368035 0)
(8.94666 -0.270507 0)
(9.07126 -0.310804 0)
(8.87131 -0.205891 0)
(9.02639 -0.240854 0)
(8.79143 -0.133437 0)
(8.9686 -0.173854 0)
(8.714 -0.0688583 0)
(8.90727 -0.117463 0)
(8.64782 -0.01917 0)
(8.85016 -0.0723465 0)
(8.57564 0.0212974 0)
(8.79026 -0.0368635 0)
(8.51028 0.0482114 0)
(8.73408 -0.00405033 0)
(8.45795 0.0750149 0)
(8.69082 0.0266875 0)
(8.40534 0.108649 0)
(8.63991 0.0685059 0)
(8.35261 0.14772 0)
(8.59568 0.0961243 0)
(8.30176 0.183799 0)
(8.54185 0.13996 0)
(8.26215 0.227137 0)
(8.49692 0.181008 0)
(8.24172 0.263814 0)
(8.44852 0.217343 0)
(8.22564 0.305347 0)
(8.39814 0.262284 0)
(8.21418 0.36003 0)
(8.36124 0.318148 0)
(8.19901 0.427753 0)
(8.34913 0.388409 0)
(8.1857 0.504078 0)
(8.36234 0.458633 0)
(8.18679 0.583757 0)
(8.39177 0.511406 0)
(8.17696 0.6541 0)
(8.41258 0.574078 0)
(8.15817 0.719622 0)
(8.42753 0.633546 0)
(8.14544 0.781744 0)
(8.43752 0.687257 0)
(8.12458 0.870939 0)
(8.40791 0.758187 0)
(8.07709 0.97614 0)
(8.37848 0.821802 0)
(7.99378 1.07666 0)
(8.34489 0.89648 0)
(7.87346 1.18077 0)
(8.29378 0.961954 0)
(7.75631 1.28732 0)
(8.25681 1.0323 0)
(7.65118 1.41608 0)
(8.22531 1.11824 0)
(7.56224 1.55951 0)
(8.19489 1.23652 0)
(7.47798 1.705 0)
(8.14543 1.37659 0)
(7.37891 1.84544 0)
(8.07613 1.53684 0)
(7.26042 1.99506 0)
(7.99841 1.72337 0)
(7.11828 2.18321 0)
(7.89411 1.94482 0)
(6.97954 2.4473 0)
(7.74641 2.21288 0)
(6.87184 2.81246 0)
(7.53556 2.55026 0)
(6.74339 3.31423 0)
(7.29744 3.04164 0)
(6.48089 4.02328 0)
(7.36147 3.88855 0)
(5.86087 5.28558 0)
(8.34795 4.75386 0)
(6.39008 8.87483 0)
(7.94519 -0.0922694 0)
(7.86023 -0.0937182 0)
(7.97289 -0.116589 0)
(7.9405 -0.132461 0)
(8.11772 -0.148652 0)
(8.09475 -0.145051 0)
(8.24854 -0.145167 0)
(8.17688 -0.134442 0)
(8.29787 -0.137255 0)
(8.20023 -0.13512 0)
(8.32269 -0.148799 0)
(8.22709 -0.154884 0)
(8.3658 -0.174015 0)
(8.27638 -0.181733 0)
(8.42918 -0.200923 0)
(8.34196 -0.206904 0)
(8.50453 -0.224929 0)
(8.41555 -0.229289 0)
(8.58368 -0.247394 0)
(8.49133 -0.252238 0)
(8.66371 -0.272524 0)
(8.56809 -0.279709 0)
(8.74414 -0.302397 0)
(8.64434 -0.31061 0)
(8.82403 -0.334052 0)
(8.72037 -0.341593 0)
(8.9044 -0.364165 0)
(8.79748 -0.370011 0)
(8.98606 -0.39195 0)
(8.87465 -0.397436 0)
(9.0678 -0.421237 0)
(8.95102 -0.428918 0)
(9.14865 -0.456334 0)
(9.02414 -0.465886 0)
(9.22469 -0.494916 0)
(9.09062 -0.503123 0)
(9.29416 -0.530955 0)
(9.15207 -0.535999 0)
(9.35919 -0.562689 0)
(9.21222 -0.565683 0)
(9.42297 -0.593354 0)
(9.27615 -0.596342 0)
(9.48868 -0.627013 0)
(9.34494 -0.631152 0)
(9.55584 -0.664781 0)
(9.41521 -0.669782 0)
(9.62152 -0.704677 0)
(9.48059 -0.708927 0)
(9.68213 -0.742664 0)
(9.53646 -0.743926 0)
(9.73702 -0.774522 0)
(9.58302 -0.771644 0)
(9.78772 -0.799848 0)
(9.62396 -0.794045 0)
(9.83652 -0.823038 0)
(9.66536 -0.817319 0)
(9.88597 -0.850748 0)
(9.71291 -0.847338 0)
(9.93651 -0.885317 0)
(9.7657 -0.882348 0)
(9.98313 -0.919608 0)
(9.81508 -0.914524 0)
(10.02 -0.948643 0)
(9.85351 -0.941905 0)
(10.0462 -0.97322 0)
(9.88025 -0.96537 0)
(10.0669 -0.997235 0)
(9.90639 -0.991634 0)
(10.0955 -1.02716 0)
(9.93616 -1.02216 0)
(10.1233 -1.056 0)
(9.96254 -1.04694 0)
(10.1508 -1.07764 0)
(9.98555 -1.06871 0)
(10.1764 -1.10185 0)
(10.0037 -1.09096 0)
(10.1951 -1.12598 0)
(10.0182 -1.11171 0)
(10.2096 -1.15006 0)
(10.0353 -1.13343 0)
(10.2254 -1.16838 0)
(10.0565 -1.14328 0)
(10.2422 -1.17334 0)
(10.0824 -1.13612 0)
(10.2521 -1.16215 0)
(10.1103 -1.1248 0)
(10.2542 -1.14905 0)
(10.1253 -1.11412 0)
(10.2437 -1.14123 0)
(10.1252 -1.1091 0)
(10.2179 -1.12894 0)
(10.1056 -1.09084 0)
(10.1674 -1.10767 0)
(10.0618 -1.06685 0)
(10.0982 -1.08038 0)
(10.0039 -1.03964 0)
(10.0201 -1.05618 0)
(9.94324 -1.02059 0)
(9.96404 -1.04415 0)
(9.89839 -1.01242 0)
(9.92909 -1.04347 0)
(9.86426 -1.00767 0)
(9.89871 -1.04028 0)
(9.81986 -0.985975 0)
(9.86364 -1.00295 0)
(9.77502 -0.937582 0)
(9.82054 -0.951308 0)
(9.7277 -0.877791 0)
(9.75392 -0.890271 0)
(9.65284 -0.804137 0)
(9.64402 -0.810852 0)
(9.54645 -0.716028 0)
(9.51465 -0.728452 0)
(9.44962 -0.650617 0)
(9.41111 -0.675525 0)
(9.36193 -0.59838 0)
(9.30371 -0.619239 0)
(9.26174 -0.532556 0)
(9.20211 -0.548237 0)
(9.17068 -0.455176 0)
(9.12376 -0.475938 0)
(9.0922 -0.379643 0)
(9.06299 -0.412558 0)
(9.01974 -0.309571 0)
(9.00987 -0.350962 0)
(8.94685 -0.237226 0)
(8.95093 -0.28945 0)
(8.8637 -0.164984 0)
(8.87641 -0.219369 0)
(8.77735 -0.0854844 0)
(8.79443 -0.151475 0)
(8.68047 -0.0181012 0)
(8.72338 -0.0995146 0)
(8.59157 0.0304745 0)
(8.65776 -0.0514075 0)
(8.50348 0.0708615 0)
(8.59211 -0.0184544 0)
(8.42867 0.0881984 0)
(8.53203 0.00598962 0)
(8.37046 0.108214 0)
(8.48369 0.0303576 0)
(8.32571 0.149425 0)
(8.42469 0.0716846 0)
(8.28941 0.186654 0)
(8.38019 0.0989618 0)
(8.25588 0.223538 0)
(8.33908 0.144543 0)
(8.23275 0.263156 0)
(8.31459 0.179551 0)
(8.22356 0.298727 0)
(8.28715 0.214647 0)
(8.23449 0.346808 0)
(8.2555 0.250745 0)
(8.23032 0.39736 0)
(8.2423 0.305845 0)
(8.2233 0.470157 0)
(8.23206 0.354076 0)
(8.22729 0.537558 0)
(8.24706 0.410604 0)
(8.22992 0.610045 0)
(8.2774 0.478156 0)
(8.23142 0.687188 0)
(8.30211 0.539408 0)
(8.23833 0.754153 0)
(8.3285 0.591797 0)
(8.24275 0.829482 0)
(8.33764 0.649473 0)
(8.22634 0.933316 0)
(8.34356 0.727042 0)
(8.18818 1.04334 0)
(8.36786 0.799934 0)
(8.10572 1.14906 0)
(8.39955 0.887695 0)
(7.99737 1.25957 0)
(8.43603 0.959582 0)
(7.87155 1.36946 0)
(8.46281 1.02025 0)
(7.74806 1.48824 0)
(8.48646 1.1034 0)
(7.64255 1.61547 0)
(8.49944 1.21764 0)
(7.55581 1.76765 0)
(8.48312 1.35498 0)
(7.46514 1.93427 0)
(8.42491 1.50103 0)
(7.38366 2.12072 0)
(8.33727 1.66657 0)
(7.32913 2.34779 0)
(8.20801 1.86342 0)
(7.29422 2.62698 0)
(8.06623 2.12721 0)
(7.25125 2.98958 0)
(8.01239 2.49406 0)
(7.12232 3.45842 0)
(8.18506 2.99584 0)
(6.8185 4.21277 0)
(8.7907 3.50954 0)
(6.58369 5.80976 0)
(9.58099 3.59261 0)
(8.01907 8.1314 0)
(10.1462 -0.126168 0)
(10.0639 -0.230265 0)
(10.2042 -0.278547 0)
(10.1621 -0.261074 0)
(10.3303 -0.234508 0)
(10.2732 -0.193287 0)
(10.4101 -0.174432 0)
(10.3088 -0.152326 0)
(10.4217 -0.154257 0)
(10.3029 -0.149092 0)
(10.4199 -0.165017 0)
(10.3042 -0.169338 0)
(10.4344 -0.191953 0)
(10.3235 -0.19878 0)
(10.4643 -0.222115 0)
(10.354 -0.227095 0)
(10.501 -0.248728 0)
(10.3881 -0.251281 0)
(10.5392 -0.272103 0)
(10.423 -0.274151 0)
(10.5784 -0.296337 0)
(10.4591 -0.299724 0)
(10.6183 -0.324349 0)
(10.4954 -0.32893 0)
(10.6576 -0.354997 0)
(10.5312 -0.359406 0)
(10.6954 -0.385367 0)
(10.5659 -0.388402 0)
(10.7314 -0.413948 0)
(10.5989 -0.41631 0)
(10.7647 -0.442729 0)
(10.6287 -0.446008 0)
(10.7941 -0.47445 0)
(10.6541 -0.479364 0)
(10.8189 -0.509195 0)
(10.6741 -0.514176 0)
(10.8396 -0.543666 0)
(10.6912 -0.547662 0)
(10.86 -0.576732 0)
(10.7099 -0.579654 0)
(10.8832 -0.609387 0)
(10.733 -0.612753 0)
(10.91 -0.644726 0)
(10.7588 -0.649079 0)
(10.937 -0.683059 0)
(10.7826 -0.687492 0)
(10.9599 -0.72193 0)
(10.7997 -0.724257 0)
(10.9759 -0.757242 0)
(10.8086 -0.75552 0)
(10.985 -0.785954 0)
(10.8111 -0.779926 0)
(10.9886 -0.808393 0)
(10.8103 -0.800108 0)
(10.9904 -0.830004 0)
(10.8125 -0.823156 0)
(10.9943 -0.857544 0)
(10.8192 -0.85275 0)
(10.9974 -0.889764 0)
(10.822 -0.883827 0)
(10.9908 -0.920112 0)
(10.8139 -0.91113 0)
(10.9702 -0.945333 0)
(10.7934 -0.933441 0)
(10.9362 -0.965581 0)
(10.7628 -0.955334 0)
(10.8992 -0.99196 0)
(10.7323 -0.987394 0)
(10.8674 -1.0241 0)
(10.7005 -1.01771 0)
(10.8348 -1.05309 0)
(10.6611 -1.04258 0)
(10.7991 -1.0745 0)
(10.6221 -1.06397 0)
(10.761 -1.09583 0)
(10.5747 -1.08453 0)
(10.7171 -1.1169 0)
(10.5291 -1.10637 0)
(10.6795 -1.14383 0)
(10.4992 -1.13031 0)
(10.6482 -1.16254 0)
(10.4792 -1.1421 0)
(10.6164 -1.16536 0)
(10.4586 -1.13372 0)
(10.5813 -1.15506 0)
(10.4353 -1.11892 0)
(10.5368 -1.13752 0)
(10.4018 -1.1085 0)
(10.4864 -1.12851 0)
(10.3627 -1.0958 0)
(10.4199 -1.10788 0)
(10.3047 -1.06568 0)
(10.3344 -1.07689 0)
(10.2317 -1.0335 0)
(10.2447 -1.04723 0)
(10.1571 -1.00475 0)
(10.1559 -1.02823 0)
(10.0876 -0.993445 0)
(10.0857 -1.02524 0)
(10.0238 -0.989682 0)
(10.026 -1.02523 0)
(9.9576 -0.983259 0)
(9.96028 -1.02128 0)
(9.88751 -0.961425 0)
(9.89464 -0.988817 0)
(9.81734 -0.914366 0)
(9.81718 -0.934302 0)
(9.73475 -0.843683 0)
(9.71352 -0.856425 0)
(9.62525 -0.753579 0)
(9.57204 -0.759237 0)
(9.49577 -0.663108 0)
(9.44135 -0.692786 0)
(9.40332 -0.613747 0)
(9.3283 -0.641909 0)
(9.30135 -0.553919 0)
(9.20763 -0.578026 0)
(9.18036 -0.482691 0)
(9.08375 -0.514536 0)
(9.07281 -0.408706 0)
(8.98883 -0.454166 0)
(8.9829 -0.339551 0)
(8.92056 -0.392458 0)
(8.88932 -0.272831 0)
(8.8559 -0.328699 0)
(8.79308 -0.204249 0)
(8.7772 -0.261412 0)
(8.69466 -0.124425 0)
(8.689 -0.187093 0)
(8.59704 -0.044104 0)
(8.60123 -0.117741 0)
(8.49699 0.0208486 0)
(8.52297 -0.0690132 0)
(8.40371 0.0692753 0)
(8.45436 -0.0237897 0)
(8.31819 0.107035 0)
(8.39687 0.00546185 0)
(8.24292 0.121159 0)
(8.34133 0.0232946 0)
(8.18019 0.139575 0)
(8.2927 0.0432341 0)
(8.12546 0.180888 0)
(8.25078 0.0784402 0)
(8.09088 0.208885 0)
(8.23236 0.100074 0)
(8.06643 0.246156 0)
(8.21436 0.138044 0)
(8.05872 0.278039 0)
(8.21971 0.164418 0)
(8.0566 0.3079 0)
(8.23536 0.192399 0)
(8.06444 0.356978 0)
(8.25888 0.238441 0)
(8.04695 0.406467 0)
(8.28115 0.292395 0)
(8.05128 0.479957 0)
(8.28539 0.343062 0)
(8.05588 0.557352 0)
(8.30886 0.406084 0)
(8.03451 0.611164 0)
(8.34668 0.453507 0)
(8.0457 0.690491 0)
(8.39126 0.49638 0)
(8.03753 0.760673 0)
(8.46254 0.549136 0)
(8.01571 0.854712 0)
(8.51109 0.614396 0)
(7.971 0.968199 0)
(8.57803 0.686224 0)
(7.92462 1.07857 0)
(8.65829 0.75711 0)
(7.87193 1.19615 0)
(8.71637 0.837311 0)
(7.8187 1.30554 0)
(8.77164 0.909915 0)
(7.75877 1.41702 0)
(8.78735 0.988458 0)
(7.70484 1.53647 0)
(8.76945 1.06718 0)
(7.66676 1.67873 0)
(8.73536 1.16638 0)
(7.65833 1.86191 0)
(8.68356 1.29306 0)
(7.66354 2.05271 0)
(8.6033 1.43562 0)
(7.66605 2.24451 0)
(8.53147 1.60377 0)
(7.64595 2.46411 0)
(8.51972 1.82298 0)
(7.56887 2.73989 0)
(8.59706 2.08193 0)
(7.42985 3.1212 0)
(8.82583 2.38699 0)
(7.24199 3.6835 0)
(9.25105 2.65293 0)
(7.11948 4.62279 0)
(9.86005 2.75573 0)
(7.51839 6.03892 0)
(10.1565 2.96866 0)
(8.97668 7.11463 0)
(11.6155 -0.108989 0)
(11.5719 -0.242923 0)
(11.7645 -0.308664 0)
(11.767 -0.289344 0)
(11.9133 -0.257454 0)
(11.849 -0.202976 0)
(11.9446 -0.17898 0)
(11.8402 -0.150563 0)
(11.9209 -0.154822 0)
(11.8089 -0.147984 0)
(11.896 -0.168008 0)
(11.7889 -0.17077 0)
(11.8868 -0.196988 0)
(11.785 -0.201871 0)
(11.8912 -0.228592 0)
(11.7911 -0.231635 0)
(11.9019 -0.256505 0)
(11.8006 -0.256994 0)
(11.9144 -0.280674 0)
(11.8106 -0.280295 0)
(11.9265 -0.304912 0)
(11.8193 -0.305542 0)
(11.9365 -0.332388 0)
(11.8247 -0.334204 0)
(11.9424 -0.36266 0)
(11.8257 -0.36446 0)
(11.9441 -0.393163 0)
(11.8234 -0.393644 0)
(11.9429 -0.422091 0)
(11.8197 -0.421261 0)
(11.9404 -0.449952 0)
(11.816 -0.448842 0)
(11.9369 -0.479106 0)
(11.8122 -0.478751 0)
(11.932 -0.510679 0)
(11.8074 -0.510887 0)
(11.9254 -0.543943 0)
(11.8017 -0.544407 0)
(11.9184 -0.578043 0)
(11.7956 -0.578788 0)
(11.9121 -0.613232 0)
(11.7889 -0.614764 0)
(11.9061 -0.65014 0)
(11.7805 -0.652194 0)
(11.8985 -0.688024 0)
(11.7681 -0.689206 0)
(11.8867 -0.724335 0)
(11.7503 -0.722842 0)
(11.8685 -0.756051 0)
(11.7259 -0.750383 0)
(11.842 -0.781219 0)
(11.6955 -0.771688 0)
(11.8091 -0.802024 0)
(11.6638 -0.791814 0)
(11.7751 -0.824804 0)
(11.6341 -0.816055 0)
(11.7397 -0.851285 0)
(11.6004 -0.84302 0)
(11.6964 -0.87825 0)
(11.555 -0.869554 0)
(11.6426 -0.90412 0)
(11.4964 -0.893115 0)
(11.5785 -0.92486 0)
(11.4251 -0.910467 0)
(11.5073 -0.942652 0)
(11.3505 -0.931377 0)
(11.4376 -0.968867 0)
(11.2738 -0.960006 0)
(11.3592 -0.997895 0)
(11.1882 -0.985719 0)
(11.2733 -1.02178 0)
(11.0951 -1.00686 0)
(11.1843 -1.04288 0)
(11.0042 -1.02665 0)
(11.0925 -1.06188 0)
(10.9099 -1.04725 0)
(11.0012 -1.0867 0)
(10.8282 -1.07744 0)
(10.929 -1.12104 0)
(10.7639 -1.10631 0)
(10.863 -1.14286 0)
(10.7044 -1.11947 0)
(10.7933 -1.14362 0)
(10.6446 -1.11331 0)
(10.725 -1.13326 0)
(10.5785 -1.09666 0)
(10.6558 -1.11636 0)
(10.5143 -1.08516 0)
(10.5819 -1.10419 0)
(10.4447 -1.06065 0)
(10.492 -1.07209 0)
(10.356 -1.02345 0)
(10.3983 -1.04165 0)
(10.2667 -0.991581 0)
(10.3089 -1.01724 0)
(10.1824 -0.965033 0)
(10.2206 -1.00449 0)
(10.104 -0.953941 0)
(10.1301 -1.00391 0)
(10.0229 -0.951474 0)
(10.0442 -1.00396 0)
(9.94184 -0.944122 0)
(9.95979 -0.999416 0)
(9.85835 -0.921638 0)
(9.8656 -0.959842 0)
(9.75617 -0.867415 0)
(9.7458 -0.895246 0)
(9.63446 -0.785817 0)
(9.59756 -0.80566 0)
(9.48715 -0.681572 0)
(9.42786 -0.703883 0)
(9.35888 -0.60748 0)
(9.29652 -0.6563 0)
(9.24131 -0.55663 0)
(9.15613 -0.598471 0)
(9.11213 -0.485641 0)
(9.0122 -0.529427 0)
(8.9702 -0.409191 0)
(8.88115 -0.475106 0)
(8.84265 -0.347355 0)
(8.77526 -0.427788 0)
(8.72943 -0.286278 0)
(8.68759 -0.365396 0)
(8.61961 -0.218204 0)
(8.5996 -0.298209 0)
(8.5104 -0.148563 0)
(8.49514 -0.231084 0)
(8.40801 -0.0712091 0)
(8.39812 -0.155651 0)
(8.31147 0.00832652 0)
(8.31485 -0.0851124 0)
(8.22475 0.0651366 0)
(8.23547 -0.0361213 0)
(8.14217 0.111712 0)
(8.16923 0.00038188 0)
(8.07164 0.145649 0)
(8.11938 0.0259944 0)
(7.99926 0.164697 0)
(8.06689 0.0354805 0)
(7.92957 0.185227 0)
(8.02733 0.0513005 0)
(7.86602 0.214236 0)
(8.01372 0.070357 0)
(7.84231 0.228568 0)
(8.00717 0.0891004 0)
(7.82261 0.270751 0)
(8.00403 0.112993 0)
(7.82118 0.298779 0)
(8.0271 0.127817 0)
(7.8311 0.334844 0)
(8.06549 0.156805 0)
(7.82979 0.386294 0)