/*--------------------------------*- C++ -*----------------------------------*\
| =========                 |                                                 |
| \\      /  F ield         | OpenFOAM: The Open Source CFD Toolbox           |
|  \\    /   O peration     | Version:  2.4.0                                 |
|   \\  /    A nd           | Web:      www.OpenFOAM.org                      |
|    \\/     M anipulation  |                                                 |
\*---------------------------------------------------------------------------*/
FoamFile
{
    version     2.0;
    format      ascii;
    class       volVectorField;
    location    "0.16";
    object      U;
}
// * * * * * * * * * * * * * * * * * * * * * * * * * * * * * * * * * * * * * //

dimensions      [0 1 -1 0 0 0 0];

internalField   nonuniform List<vector> 
4400
(
(10.0141 0.0112509 0)
(9.75299 0.0117623 0)
(9.80511 0.0124026 0)
(9.86028 0.0170045 0)
(9.60338 0.0156459 0)
(9.42254 0.0089662 0)
(9.45146 0.00415672 0)
(9.49823 0.00217333 0)
(9.46295 0.00128212 0)
(9.4689 0.00142707 0)
(9.40019 -0.00486942 0)
(9.54574 0.0190962 0)
(9.25611 -0.0554553 0)
(9.82404 0.134091 0)
(8.79143 -0.250333 0)
(10.4193 0.366571 0)
(8.26153 -0.388816 0)
(10.4753 0.227917 0)
(9.38971 -0.315437 0)
(10.253 0.151173 0)
(10.0705 0.017421 0)
(9.89943 0.0183266 0)
(10.0241 0.0180183 0)
(10.1901 0.0244653 0)
(10.0581 0.0220612 0)
(9.95469 0.012342 0)
(10.0164 0.00553908 0)
(10.087 0.0037748 0)
(10.0508 0.000992829 0)
(10.0966 0.00231153 0)
(9.93505 -0.00217503 0)
(10.3006 0.0020246 0)
(9.54793 0.00730173 0)
(10.9455 -0.0277062 0)
(8.66116 0.0810502 0)
(11.7985 -0.135965 0)
(8.42758 0.177284 0)
(11.2688 -0.195717 0)
(10.0154 -0.0441284 0)
(11.3209 -0.136681 0)
(10.0708 0.0113208 0)
(9.89755 0.0132589 0)
(10.0231 0.0121791 0)
(10.1937 0.0165095 0)
(10.0658 0.0146939 0)
(9.96384 0.00820447 0)
(10.027 0.00336925 0)
(10.0943 0.00407767 0)
(10.0692 -0.00310114 0)
(10.0805 0.0132339 0)
(10.0167 -0.0311805 0)
(10.1343 0.0730169 0)
(9.95219 -0.143473 0)
(10.2361 0.253706 0)
(9.8797 -0.352296 0)
(10.3981 0.367364 0)
(9.82578 -0.290766 0)
(10.7383 -0.0223315 0)
(9.73348 -0.374614 0)
(10.9239 -0.278155 0)
(10.0708 0.00926481 0)
(9.89533 0.0126383 0)
(10.0211 0.0118483 0)
(10.1918 0.0159903 0)
(10.0633 0.0151504 0)
(9.96163 0.00937371 0)
(10.0255 0.00435696 0)
(10.0946 0.00382585 0)
(10.0661 -0.000634031 0)
(10.0895 0.00620826 0)
(9.99112 -0.0103759 0)
(10.1985 0.0211704 0)
(9.80841 -0.0324813 0)
(10.499 0.0513493 0)
(9.44751 -0.0689003 0)
(10.8506 0.0813852 0)
(9.46302 -0.152924 0)
(10.606 0.115591 0)
(10.324 -0.55185 0)
(10.247 -0.364925 0)
(10.0709 0.0072954 0)
(9.89354 0.0108465 0)
(10.0192 0.00988836 0)
(10.19 0.0128379 0)
(10.061 0.0119586 0)
(9.95947 0.00745594 0)
(10.0248 0.00295755 0)
(10.0927 0.00438439 0)
(10.07 -0.00424985 0)
(10.0774 0.0153665 0)
(10.0234 -0.0341438 0)
(10.1199 0.0757829 0)
(9.98496 -0.140997 0)
(10.1634 0.226405 0)
(10.0188 -0.291741 0)
(10.1424 0.222955 0)
(10.1227 -0.131766 0)
(10.3785 -0.222057 0)
(10.031 -0.196284 0)
(10.5741 -0.495462 0)
(10.0709 0.00558492 0)
(9.89213 0.00885854 0)
(10.0177 0.00796575 0)
(10.1886 0.0102692 0)
(10.0593 0.00985233 0)
(9.95785 0.00648943 0)
(10.0239 0.00280972 0)
(10.0923 0.0035996 0)
(10.0695 -0.00224074 0)
(10.0785 0.00922858 0)
(10.0187 -0.0170202 0)
(10.1342 0.0352568 0)
(9.94523 -0.0599921 0)
(10.2484 0.0969501 0)
(9.83234 -0.152741 0)
(10.3687 0.193119 0)
(9.85446 -0.351389 0)
(10.2634 0.218711 0)
(10.2989 -0.73236 0)
(10.1161 -0.516067 0)
(10.0709 0.00409582 0)
(9.89107 0.00688909 0)
(10.0165 0.00620816 0)
(10.1876 0.00795699 0)
(10.0579 0.00767495 0)
(9.9565 0.00524641 0)
(10.0234 0.00196854 0)
(10.0912 0.00370345 0)
(10.0712 -0.00402765 0)
(10.0736 0.0133861 0)
(10.0302 -0.0279667 0)
(10.1083 0.0597511 0)
(9.99873 -0.107149 0)
(10.1473 0.161358 0)
(10.0074 -0.203885 0)
(10.1223 0.110982 0)
(10.1038 -0.0499527 0)
(10.2118 -0.274311 0)
(9.90629 -0.304334 0)
(10.3795 -0.345452 0)
(10.071 0.00280066 0)
(9.89031 0.00493186 0)
(10.0156 0.00445336 0)
(10.1868 0.00564952 0)
(10.0569 0.00545307 0)
(9.95552 0.0038549 0)
(10.023 0.00135285 0)
(10.0907 0.00298061 0)
(10.0718 -0.00318079 0)
(10.072 0.010232 0)
(10.0331 -0.0195944 0)
(10.1032 0.0404865 0)
(10.0052 -0.0703333 0)
(10.1385 0.109162 0)
(9.99756 -0.169775 0)
(10.1346 0.182716 0)
(10.0469 -0.330491 0)
(10.1018 0.124671 0)
(10.2233 -0.548605 0)
(9.68579 -0.768836 0)
(10.071 0.00163299 0)
(9.88982 0.00296277 0)
(10.015 0.00267298 0)
(10.1862 0.00338489 0)
(10.0563 0.00324066 0)
(9.95484 0.00245587 0)
(10.0228 0.000586512 0)
(10.09 0.00260502 0)
(10.0728 -0.00364768 0)
(10.0696 0.0107234 0)
(10.0381 -0.0211675 0)
(10.0938 0.0435854 0)
(10.0202 -0.0751564 0)
(10.1144 0.10682 0)
(10.0249 -0.13946 0)
(10.0914 0.0640575 0)
(10.0649 -0.0803407 0)
(10.081 -0.235929 0)
(9.94557 -0.367592 0)
(10.1528 -0.342607 0)
(10.071 0.000536376 0)
(9.88959 0.000990859 0)
(10.0147 0.000887959 0)
(10.186 0.00115208 0)
(10.056 0.0010399 0)
(9.95449 0.00100269 0)
(10.0228 -0.000135407 0)
(10.0896 0.00196305 0)
(10.0736 -0.00338853 0)
(10.0679 0.00918447 0)
(10.0415 -0.0176666 0)
(10.0873 0.0360141 0)
(10.0302 -0.0620361 0)
(10.0974 0.0908902 0)
(10.0404 -0.136981 0)
(10.0626 0.10879 0)
(10.0716 -0.220507 0)
(10.0322 -0.0167911 0)
(10.0211 -0.386001 0)
(9.72956 -0.685916 0)
(10.071 -0.000537055 0)
(9.88959 -0.000980378 0)
(10.0147 -0.000898201 0)
(10.186 -0.00107141 0)
(10.056 -0.00116123 0)
(9.95444 -0.000458995 0)
(10.0229 -0.000884249 0)
(10.0893 0.00137758 0)
(10.0743 -0.00337013 0)
(10.0664 0.00831572 0)
(10.0445 -0.015947 0)
(10.082 0.031999 0)
(10.0373 -0.0537852 0)
(10.0865 0.0735834 0)
(10.0456 -0.103844 0)
(10.0506 0.0462535 0)
(10.0579 -0.10666 0)
(9.99996 -0.167465 0)
(9.94196 -0.354865 0)
(9.82994 -0.435104 0)
(10.071 -0.00163373 0)
(9.88982 -0.00295236 0)
(10.015 -0.00268308 0)
(10.1862 -0.00330598 0)
(10.0564 -0.00336102 0)
(9.95471 -0.00191804 0)
(10.0232 -0.00160832 0)
(10.0891 0.000745579 0)
(10.0751 -0.0032309 0)
(10.0651 0.00715655 0)
(10.047 -0.0136877 0)
(10.0776 0.0272915 0)
(10.0432 -0.0457931 0)
(10.0769 0.0624349 0)
(10.051 -0.0933166 0)
(10.037 0.0483274 0)
(10.0494 -0.132018 0)
(9.97788 -0.11008 0)
(9.91539 -0.289246 0)
(9.72059 -0.530826 0)
(10.071 -0.00280145 0)
(9.89031 -0.004922 0)
(10.0156 -0.00446258 0)
(10.1867 -0.005575 0)
(10.057 -0.005566 0)
(9.95529 -0.0033497 0)
(10.0237 -0.0023024 0)
(10.0891 0.000129118 0)
(10.0757 -0.00310848 0)
(10.0641 0.00607239 0)
(10.0491 -0.0116353 0)
(10.0741 0.0229072 0)
(10.0475 -0.037862 0)
(10.0702 0.0495438 0)
(10.0525 -0.0740476 0)
(10.0288 0.0255877 0)
(10.0381 -0.0987607 0)
(9.95588 -0.126814 0)
(9.87866 -0.27748 0)
(9.69195 -0.43692 0)
(10.0709 -0.00409637 0)
(9.89106 -0.00688008 0)
(10.0165 -0.00621745 0)
(10.1875 -0.00788636 0)
(10.0581 -0.00778565 0)
(9.95619 -0.00475165 0)
(10.0244 -0.00295315 0)
(10.0892 -0.000465522 0)
(10.0764 -0.00296369 0)
(10.0633 0.00500982 0)
(10.0508 -0.00969298 0)
(10.0713 0.0189129 0)
(10.0508 -0.0310272 0)
(10.0649 0.0395574 0)
(10.0529 -0.060766 0)
(10.0226 0.0164007 0)
(10.0261 -0.0860298 0)
(9.93901 -0.120176 0)
(9.84806 -0.232285 0)
(9.65053 -0.409191 0)
(10.0709 -0.00558556 0)
(9.89212 -0.00885003 0)
(10.0177 -0.00797361 0)
(10.1886 -0.0102089 0)
(10.0595 -0.00994293 0)
(9.95744 -0.00607793 0)
(10.0252 -0.00357862 0)
(10.0894 -0.00106799 0)
(10.077 -0.0028355 0)
(10.0627 0.00398887 0)
(10.0522 -0.00789219 0)
(10.0691 0.0152318 0)
(10.0531 -0.0247727 0)
(10.061 0.030578 0)
(10.0523 -0.048079 0)
(10.0179 0.00785983 0)
(10.0151 -0.0713802 0)
(9.92455 -0.108525 0)
(9.82097 -0.200224 0)
(9.61953 -0.350211 0)
(10.0709 -0.00729605 0)
(9.89353 -0.0108397 0)
(10.0192 -0.00989485 0)
(10.19 -0.012782 0)
(10.0612 -0.0120516 0)
(9.95902 -0.00704374 0)
(10.0262 -0.00384009 0)
(10.0897 -0.00144022 0)
(10.0776 -0.00260773 0)
(10.0623 0.00306483 0)
(10.0532 -0.00622016 0)
(10.0674 0.0119051 0)
(10.0549 -0.019241 0)
(10.0581 0.0230488 0)
(10.0513 -0.0372775 0)
(10.0143 0.00247817 0)
(10.0053 -0.0578069 0)
(9.91284 -0.0944051 0)
(9.79813 -0.164047 0)
(9.59334 -0.293685 0)
(10.0708 -0.00926508 0)
(9.89533 -0.012633 0)
(10.0211 -0.0118531 0)
(10.1917 -0.0159498 0)
(10.0636 -0.0152086 0)
(9.96103 -0.00910134 0)
(10.0274 -0.00485515 0)
(10.0901 -0.00219084 0)
(10.0781 -0.00255027 0)
(10.062 0.00213099 0)
(10.0541 -0.00470368 0)
(10.0662 0.00886826 0)
(10.0561 -0.0142945 0)
(10.056 0.0166246 0)
(10.0501 -0.0277568 0)
(10.0115 -0.000588899 0)
(9.99704 -0.0448822 0)
(9.9035 -0.0767514 0)
(9.77973 -0.12885 0)
(9.57259 -0.232207 0)
(10.0708 -0.0113212 0)
(9.89754 -0.0132547 0)
(10.0232 -0.012183 0)
(10.1936 -0.0164778 0)
(10.066 -0.0147483 0)
(9.96329 -0.0079498 0)
(10.0288 -0.00395809 0)
(10.0907 -0.00202469 0)
(10.0786 -0.00207366 0)
(10.0618 0.00141955 0)
(10.0546 -0.00321359 0)
(10.0652 0.00608641 0)
(10.0567 -0.00980397 0)
(10.0545 0.0111081 0)
(10.0488 -0.0192418 0)
(10.0095 -0.00178126 0)
(9.99045 -0.0323292 0)
(9.89613 -0.0569014 0)
(9.76557 -0.0930826 0)
(9.55569 -0.16857 0)
(10.0705 -0.0174211 0)
(9.89942 -0.0183246 0)
(10.0241 -0.0180192 0)
(10.1901 -0.0244489 0)
(10.0584 -0.0220824 0)
(9.95395 -0.0122312 0)
(10.0189 -0.005735 0)
(10.0807 -0.00310857 0)
(10.0687 -0.00226881 0)
(10.0521 0.000494747 0)
(10.0448 -0.00195203 0)
(10.0557 0.00353558 0)
(10.0463 -0.00572722 0)
(10.0455 0.00629106 0)
(10.0361 -0.0113021 0)
(9.99921 -0.00175279 0)
(9.97387 -0.0196113 0)
(9.87663 -0.0351406 0)
(9.73935 -0.0565377 0)
(9.51766 -0.10253 0)
(10.0141 -0.0112508 0)
(9.75298 -0.0117616 0)
(9.80514 -0.0124022 0)
(9.86023 -0.0170032 0)
(9.60364 -0.0156409 0)
(9.42209 -0.00896501 0)
(9.45299 -0.00412323 0)
(9.49504 -0.00219151 0)
(9.47163 -0.00133689 0)
(9.45035 -5.58217e-05 0)
(9.44314 -0.000647702 0)
(9.45306 0.00108841 0)
(9.44401 -0.00181831 0)
(9.44266 0.00192456 0)
(9.43158 -0.0037918 0)
(9.39506 -0.000792734 0)
(9.36537 -0.00708276 0)
(9.26445 -0.0123333 0)
(9.12153 -0.0201252 0)
(8.89046 -0.0361226 0)
(10.5687 -2.3925 0)
(7.534 -4.29356 0)
(7.07245 -3.22001 0)
(6.3651 -2.53377 0)
(5.54446 -2.03802 0)
(5.28867 -1.47438 0)
(5.18967 -1.026 0)
(5.11702 -0.705756 0)
(5.07082 -0.479905 0)
(5.04558 -0.323789 0)
(5.03229 -0.217406 0)
(5.02514 -0.145441 0)
(5.02119 -0.0969919 0)
(5.01894 -0.0644941 0)
(5.01762 -0.0427629 0)
(5.01684 -0.0282742 0)
(5.01635 -0.0186418 0)
(5.01605 -0.012256 0)
(5.01586 -0.00803456 0)
(5.01574 -0.00525289 0)
(5.01567 -0.00342423 0)
(5.01562 -0.00222521 0)
(5.01558 -0.00144275 0)
(5.01556 -0.000932382 0)
(5.01555 -0.000600432 0)
(5.01554 -0.000386161 0)
(5.01554 -0.000247242 0)
(5.01553 -0.000157823 0)
(5.01553 -0.000100692 0)
(5.01553 -6.37311e-05 0)
(5.01553 -4.05468e-05 0)
(5.01553 -2.54307e-05 0)
(5.01553 -1.60463e-05 0)
(5.01553 -1.0093e-05 0)
(5.01553 -6.44114e-06 0)
(5.01553 -3.96183e-06 0)
(5.01553 -2.45671e-06 0)
(5.01553 -1.52401e-06 0)
(5.01553 -9.23062e-07 0)
(5.01553 -5.50747e-07 0)
(5.01553 -3.78021e-07 0)
(5.01553 -1.87648e-07 0)
(5.01553 -1.52679e-07 0)
(5.01553 -8.45686e-08 0)
(5.01553 -9.49972e-09 0)
(5.01553 -9.89899e-08 0)
(5.01553 3.35937e-08 0)
(5.01553 -6.16853e-09 0)
(5.01553 -5.36633e-08 0)
(5.01553 2.39195e-08 0)
(5.01553 2.27942e-08 0)
(5.01553 -8.59089e-08 0)
(5.01553 7.15439e-08 0)
(5.01553 4.96552e-09 0)
(5.01553 -7.05228e-08 0)
(5.01553 1.18091e-07 0)
(5.01553 -8.37188e-08 0)
(5.01553 6.08005e-08 0)
(5.01553 -2.4362e-08 0)
(5.01553 1.8255e-08 0)
(5.01553 1.5748e-08 0)
(5.01553 -7.22524e-08 0)
(5.01553 1.09721e-07 0)
(5.01553 -7.79298e-08 0)
(5.01553 -2.03707e-08 0)
(5.01553 1.25831e-07 0)
(5.01553 -1.3024e-07 0)
(5.01553 2.68702e-08 0)
(5.01553 9.34068e-08 0)
(5.01553 -1.27596e-07 0)
(5.01553 8.05602e-08 0)
(5.01553 5.59325e-08 0)
(5.01553 -1.49762e-07 0)
(5.01553 9.194e-08 0)
(5.01553 1.20609e-07 0)
(5.01553 -2.04721e-07 0)
(5.01553 6.91412e-09 0)
(5.01553 2.03545e-07 0)
(5.01553 -1.15272e-07 0)
(5.01553 -1.82248e-07 0)
(5.01553 1.21459e-07 0)
(5.01553 1.02783e-07 0)
(5.01553 -1.33716e-07 0)
(5.01553 -9.32923e-08 0)
(5.01553 6.02589e-08 0)
(5.01553 9.36315e-08 0)
(5.01553 -6.21171e-09 0)
(5.01553 -1.18259e-07 0)
(5.01553 -5.20182e-08 0)
(5.01553 1.05542e-07 0)
(5.01553 1.29288e-07 0)
(5.01553 -2.21547e-08 0)
(5.01553 -9.05374e-08 0)
(5.01553 -2.7427e-08 0)
(5.01552 3.40479e-08 0)
(5.01554 4.63343e-08 0)
(5.01551 -1.72701e-08 0)
(5.01555 1.73866e-08 0)
(5.01552 -2.33813e-08 0)
(5.01552 -3.61992e-08 0)
(11.1684 -2.45774 0)
(9.43597 -4.29504 0)
(8.17091 -3.68453 0)
(7.72932 -2.56447 0)
(6.44243 -1.88309 0)
(5.61104 -1.39796 0)
(5.30124 -0.997103 0)
(5.1747 -0.690841 0)
(5.10842 -0.471232 0)
(5.07092 -0.318863 0)
(5.04934 -0.214647 0)
(5.03658 -0.143872 0)
(5.02883 -0.0960759 0)
(5.02403 -0.0639459 0)
(5.021 -0.042428 0)
(5.01907 -0.0280658 0)
(5.01783 -0.0185104 0)
(5.01702 -0.0121725 0)
(5.0165 -0.00798143 0)
(5.01616 -0.00521848 0)
(5.01593 -0.00340197 0)
(5.01579 -0.00221128 0)
(5.0157 -0.00143345 0)
(5.01564 -0.00092637 0)
(5.0156 -0.000596867 0)
(5.01557 -0.000383563 0)
(5.01555 -0.000245716 0)
(5.01554 -0.000156995 0)
(5.01554 -9.99152e-05 0)
(5.01553 -6.34102e-05 0)
(5.01553 -4.02008e-05 0)
(5.01553 -2.53221e-05 0)
(5.01553 -1.59868e-05 0)
(5.01553 -1.01193e-05 0)
(5.01553 -6.20822e-06 0)
(5.01553 -3.87127e-06 0)
(5.01553 -2.4937e-06 0)
(5.01553 -1.58694e-06 0)
(5.01553 -9.61231e-07 0)
(5.01553 -5.56743e-07 0)
(5.01553 -3.3359e-07 0)
(5.01553 -2.15911e-07 0)
(5.01553 -1.46883e-07 0)
(5.01553 -9.49297e-08 0)
(5.01553 -4.45438e-08 0)
(5.01553 -1.99331e-08 0)
(5.01553 -9.07216e-10 0)
(5.01553 -5.33012e-08 0)
(5.01553 2.18856e-10 0)
(5.01553 7.09732e-09 0)
(5.01553 -9.40364e-09 0)
(5.01553 -6.07177e-09 0)
(5.01553 1.69084e-08 0)
(5.01553 -1.21923e-08 0)
(5.01552 3.23277e-08 0)
(5.01553 2.53668e-08 0)
(5.01553 -3.54468e-08 0)
(5.01553 3.62097e-08 0)
(5.01553 3.19561e-09 0)
(5.01552 4.79387e-09 0)
(5.01553 2.42844e-08 0)
(5.01552 -1.46983e-08 0)
(5.01553 -4.16167e-09 0)
(5.01553 -4.85034e-10 0)
(5.01553 -2.1278e-09 0)
(5.01553 1.96539e-08 0)
(5.01553 -1.55244e-08 0)
(5.01552 -4.46682e-09 0)
(5.01553 -3.85281e-09 0)
(5.01553 -2.17175e-08 0)
(5.01553 2.61737e-08 0)
(5.01553 1.27774e-08 0)
(5.01553 -9.28124e-09 0)
(5.01552 7.43984e-09 0)
(5.01553 9.72466e-09 0)
(5.01553 -3.43378e-08 0)
(5.01552 -9.16814e-09 0)
(5.01553 6.82431e-09 0)
(5.01553 -1.61828e-08 0)
(5.01552 -1.75281e-08 0)
(5.01552 -4.42588e-09 0)
(5.01553 -2.21568e-08 0)
(5.01553 -3.7611e-08 0)
(5.01553 5.18924e-09 0)
(5.01553 2.68688e-08 0)
(5.01553 2.28047e-08 0)
(5.01553 -8.92402e-09 0)
(5.01553 -3.44116e-08 0)
(5.01552 -9.72175e-09 0)
(5.01553 1.78993e-08 0)
(5.01553 2.45067e-08 0)
(5.01553 4.6859e-09 0)
(5.01553 1.44746e-08 0)
(5.01553 1.42258e-08 0)
(5.01552 8.43451e-09 0)
(5.01554 4.50992e-09 0)
(5.01551 -1.49847e-08 0)
(5.01555 -2.61791e-08 0)
(5.01552 -3.32654e-08 0)
(5.01552 -1.62515e-08 0)
(12.4265 -1.61938 0)
(9.19664 -2.95303 0)
(5.25788 -2.90545 0)
(5.26925 -2.3097 0)
(5.70724 -1.70869 0)
(5.56825 -1.27897 0)
(5.35717 -0.94005 0)
(5.22363 -0.665138 0)
(5.14383 -0.45832 0)
(5.09546 -0.311721 0)
(5.06601 -0.210509 0)
(5.04781 -0.141402 0)
(5.03636 -0.0945622 0)
(5.02905 -0.063 0)
(5.02434 -0.0418287 0)
(5.02128 -0.0276823 0)
(5.01928 -0.0182635 0)
(5.01798 -0.012013 0)
(5.01713 -0.00787825 0)
(5.01657 -0.00515134 0)
(5.0162 -0.0033585 0)
(5.01597 -0.00218346 0)
(5.01581 -0.00141515 0)
(5.01571 -0.000914609 0)
(5.01564 -0.000589512 0)
(5.0156 -0.000378589 0)
(5.01557 -0.000242619 0)
(5.01556 -0.000155149 0)
(5.01555 -9.86651e-05 0)
(5.01554 -6.25162e-05 0)
(5.01553 -3.95384e-05 0)
(5.01553 -2.53257e-05 0)
(5.01553 -1.5629e-05 0)
(5.01553 -9.57268e-06 0)
(5.01553 -6.13461e-06 0)
(5.01553 -3.83842e-06 0)
(5.01553 -2.23081e-06 0)
(5.01553 -1.4733e-06 0)
(5.01553 -1.15742e-06 0)
(5.01553 -6.12711e-07 0)
(5.01553 -1.44406e-07 0)
(5.01553 -1.25813e-07 0)
(5.01553 -2.04749e-07 0)
(5.01553 -1.37218e-07 0)
(5.01553 1.72292e-09 0)
(5.01553 3.11306e-08 0)
(5.01553 -1.78512e-07 0)
(5.01553 -1.76881e-07 0)
(5.01553 1.02218e-07 0)
(5.01553 1.27291e-07 0)
(5.01553 -4.28389e-08 0)
(5.01553 -8.21044e-08 0)
(5.01553 -1.08313e-07 0)
(5.01553 5.72061e-08 0)
(5.01553 1.84828e-07 0)
(5.01553 1.21833e-08 0)
(5.01553 -1.05193e-07 0)
(5.01553 -3.24722e-08 0)
(5.01553 1.08653e-07 0)
(5.01553 1.48959e-07 0)
(5.01553 1.17759e-07 0)
(5.01553 -7.07675e-08 0)
(5.01553 -1.81668e-07 0)
(5.01553 -4.64652e-08 0)
(5.01553 5.72661e-08 0)
(5.01553 9.50449e-08 0)
(5.01553 7.90545e-08 0)
(5.01553 -8.85909e-08 0)
(5.01553 -1.4331e-07 0)
(5.01553 -5.89552e-08 0)
(5.01553 -3.82875e-09 0)
(5.01553 9.7636e-08 0)
(5.01553 1.17823e-07 0)
(5.01553 2.80161e-08 0)
(5.01553 -3.75211e-09 0)
(5.01553 -8.63523e-09 0)
(5.01553 -8.90298e-08 0)
(5.01553 -5.18718e-08 0)
(5.01553 5.80861e-08 0)
(5.01553 5.64275e-08 0)
(5.01553 -3.64831e-08 0)
(5.01553 -9.2455e-08 0)
(5.01553 -8.1155e-08 0)
(5.01553 -2.38211e-08 0)
(5.01553 3.11722e-08 0)
(5.01553 6.21424e-08 0)
(5.01553 5.01763e-08 0)
(5.01553 1.43707e-08 0)
(5.01553 -1.88503e-08 0)
(5.01553 -5.13354e-09 0)
(5.01553 1.10755e-08 0)
(5.01553 7.59436e-09 0)
(5.01553 -3.49089e-08 0)
(5.01553 -5.06136e-08 0)
(5.01552 -2.52735e-08 0)
(5.01554 4.00145e-08 0)
(5.01551 6.69916e-08 0)
(5.01555 6.93722e-08 0)
(5.01552 1.68055e-08 0)
(5.01552 -2.16411e-08 0)
(10.4399 -1.99238 0)
(11.177 -3.25654 0)
(9.19812 -3.02233 0)
(6.82076 -2.48989 0)
(6.01636 -1.84608 0)
(5.66738 -1.30488 0)
(5.42242 -0.921781 0)
(5.26944 -0.645798 0)
(5.1765 -0.445195 0)
(5.11857 -0.303367 0)
(5.08201 -0.205258 0)
(5.05871 -0.138103 0)
(5.0437 -0.0924747 0)
(5.03396 -0.0616664 0)
(5.02761 -0.0409701 0)
(5.02345 -0.0271266 0)
(5.02072 -0.0179028 0)
(5.01892 -0.0117785 0)
(5.01775 -0.0077256 0)
(5.01697 -0.00505209 0)
(5.01647 -0.00329419 0)
(5.01614 -0.00214165 0)
(5.01592 -0.0013881 0)
(5.01578 -0.000897258 0)
(5.01569 -0.000578207 0)
(5.01563 -0.000371392 0)
(5.01559 -0.000238078 0)
(5.01557 -0.000152119 0)
(5.01555 -9.67441e-05 0)
(5.01554 -6.13162e-05 0)
(5.01554 -3.9022e-05 0)
(5.01553 -2.45582e-05 0)
(5.01553 -1.53751e-05 0)
(5.01553 -9.71816e-06 0)
(5.01553 -6.13448e-06 0)
(5.01553 -3.75227e-06 0)
(5.01553 -2.43716e-06 0)
(5.01553 -1.58519e-06 0)
(5.01553 -9.23428e-07 0)
(5.01553 -5.00202e-07 0)
(5.01553 -2.90747e-07 0)
(5.01553 -2.33917e-07 0)
(5.01553 -1.63693e-07 0)
(5.01553 -9.908e-08 0)
(5.01553 -5.95814e-08 0)
(5.01553 -5.15426e-09 0)
(5.01553 -3.49568e-08 0)
(5.01553 -7.64785e-08 0)
(5.01553 3.13848e-08 0)
(5.01553 3.19478e-08 0)
(5.01553 -3.06566e-08 0)
(5.01553 -9.01272e-09 0)
(5.01553 3.26368e-09 0)
(5.01553 1.67869e-08 0)
(5.01553 6.48826e-08 0)
(5.01553 2.27234e-08 0)
(5.01553 -3.22563e-08 0)
(5.01553 3.41985e-08 0)
(5.01553 3.98876e-08 0)
(5.01553 1.69106e-08 0)
(5.01553 1.87794e-08 0)
(5.01553 -3.1226e-08 0)
(5.01553 -3.81998e-08 0)
(5.01553 -1.19575e-09 0)
(5.01553 1.50866e-08 0)
(5.01553 2.46222e-08 0)
(5.01553 -1.06141e-08 0)
(5.01553 -3.21456e-08 0)
(5.01553 -2.17382e-08 0)
(5.01553 -7.3817e-09 0)
(5.01553 2.58508e-08 0)
(5.01553 3.38553e-08 0)
(5.01553 1.76359e-08 0)
(5.01553 5.91776e-09 0)
(5.01553 7.27435e-09 0)
(5.01553 -2.37931e-08 0)
(5.01553 -1.66203e-08 0)
(5.01553 -6.26141e-09 0)
(5.01553 -6.5185e-10 0)
(5.01553 -7.68752e-09 0)
(5.01553 -2.50891e-08 0)
(5.01553 -4.29123e-08 0)
(5.01553 -2.825e-08 0)
(5.01553 9.7491e-09 0)
(5.01553 4.98566e-08 0)
(5.01553 3.14017e-08 0)
(5.01553 -8.94774e-09 0)
(5.01553 -3.78075e-08 0)
(5.01553 -2.11958e-08 0)
(5.01553 1.07011e-08 0)
(5.01553 2.40827e-08 0)
(5.01553 1.19612e-08 0)
(5.01553 8.81876e-09 0)
(5.01553 1.53419e-08 0)
(5.01552 1.15806e-08 0)
(5.01554 1.59808e-08 0)
(5.01551 -1.43079e-09 0)
(5.01555 -1.90403e-08 0)
(5.01552 -4.16537e-08 0)
(5.01552 -3.15056e-08 0)
(10.2408 -1.90098 0)
(8.80302 -2.55977 0)
(7.74145 -2.06679 0)
(6.82777 -1.66857 0)
(6.20069 -1.43825 0)
(5.80741 -1.14389 0)
(5.52419 -0.851065 0)
(5.33374 -0.61063 0)
(5.21535 -0.426464 0)
(5.14293 -0.292584 0)
(5.09796 -0.198672 0)
(5.06938 -0.133957 0)
(5.05086 -0.0898231 0)
(5.03875 -0.0599544 0)
(5.0308 -0.0398588 0)
(5.02556 -0.0264029 0)
(5.02212 -0.0174308 0)
(5.01985 -0.0114705 0)
(5.01835 -0.00752477 0)
(5.01737 -0.00492131 0)
(5.01673 -0.00320915 0)
(5.01631 -0.00208651 0)
(5.01603 -0.00135242 0)
(5.01585 -0.000874144 0)
(5.01574 -0.000563378 0)
(5.01566 -0.000361906 0)
(5.01561 -0.00023192 0)
(5.01558 -0.000148207 0)
(5.01556 -9.42801e-05 0)
(5.01555 -5.98093e-05 0)
(5.01554 -3.79171e-05 0)
(5.01553 -2.40022e-05 0)
(5.01553 -1.50488e-05 0)
(5.01553 -9.35464e-06 0)
(5.01553 -5.86847e-06 0)
(5.01553 -3.71422e-06 0)
(5.01553 -2.26913e-06 0)
(5.01553 -1.40352e-06 0)
(5.01553 -9.93e-07 0)
(5.01553 -6.09834e-07 0)
(5.01553 -2.07184e-07 0)
(5.01553 -1.2595e-07 0)
(5.01553 -1.50829e-07 0)
(5.01553 -1.12791e-07 0)
(5.01553 -3.90315e-08 0)
(5.01553 2.84061e-08 0)
(5.01553 -1.14243e-07 0)
(5.01553 -1.7443e-07 0)
(5.01553 6.20253e-08 0)
(5.01553 1.06032e-07 0)
(5.01553 -4.29064e-08 0)
(5.01553 -5.23071e-08 0)
(5.01553 -7.07528e-08 0)
(5.01553 1.4517e-08 0)
(5.01553 1.4866e-07 0)
(5.01553 1.73702e-08 0)
(5.01553 -8.67854e-08 0)
(5.01553 -2.31039e-08 0)
(5.01553 7.19261e-08 0)
(5.01553 1.14472e-07 0)
(5.01553 9.8278e-08 0)
(5.01553 -3.4898e-08 0)
(5.01553 -1.27904e-07 0)
(5.01553 -4.32683e-08 0)
(5.01553 3.6126e-08 0)
(5.01553 6.09926e-08 0)
(5.01553 5.45949e-08 0)
(5.01553 -5.73007e-08 0)
(5.01553 -1.09103e-07 0)
(5.01553 -4.74058e-08 0)
(5.01553 -9.2755e-09 0)
(5.01553 5.41771e-08 0)
(5.01553 8.49156e-08 0)
(5.01553 3.67279e-08 0)
(5.01553 1.18226e-09 0)
(5.01553 1.39206e-09 0)
(5.01553 -6.85468e-08 0)
(5.01553 -5.11514e-08 0)
(5.01553 3.26046e-08 0)
(5.01553 4.18122e-08 0)
(5.01553 -2.37301e-08 0)
(5.01553 -7.64715e-08 0)
(5.01553 -6.91065e-08 0)
(5.01553 -1.56426e-08 0)
(5.01553 2.5543e-08 0)
(5.01553 4.54177e-08 0)
(5.01553 2.97473e-08 0)
(5.01553 8.27008e-09 0)
(5.01553 -9.59466e-09 0)
(5.01553 4.31095e-09 0)
(5.01553 1.93282e-08 0)
(5.01553 1.19961e-08 0)
(5.01553 -2.78735e-08 0)
(5.01553 -4.69583e-08 0)
(5.01552 -2.8215e-08 0)
(5.01554 2.42652e-08 0)
(5.01551 4.30245e-08 0)
(5.01555 4.80715e-08 0)
(5.01552 2.38915e-08 0)
(5.01552 -1.11709e-08 0)
(10.1981 -1.25812 0)
(9.13657 -2.68132 0)
(7.51143 -2.87153 0)
(6.54322 -2.29165 0)
(5.9749 -1.68071 0)
(5.64232 -1.1955 0)
(5.46075 -0.838867 0)
(5.33448 -0.587968 0)
(5.2352 -0.408672 0)
(5.16227 -0.28071 0)
(5.11249 -0.191012 0)
(5.0795 -0.129026 0)
(5.05774 -0.0866314 0)
(5.04337 -0.0578774 0)
(5.03388 -0.0385027 0)
(5.02761 -0.0255161 0)
(5.02347 -0.0168505 0)
(5.02074 -0.0110911 0)
(5.01894 -0.00727701 0)
(5.01775 -0.00475979 0)
(5.01698 -0.00310405 0)
(5.01647 -0.00201832 0)
(5.01614 -0.00130824 0)
(5.01592 -0.000845582 0)
(5.01578 -0.000545033 0)
(5.01569 -0.000350115 0)
(5.01563 -0.000224337 0)
(5.01559 -0.000143376 0)
(5.01557 -9.12178e-05 0)
(5.01555 -5.78475e-05 0)
(5.01554 -3.67077e-05 0)
(5.01554 -2.32298e-05 0)
(5.01553 -1.4504e-05 0)
(5.01553 -9.04178e-06 0)
(5.01553 -5.73091e-06 0)
(5.01553 -3.57344e-06 0)
(5.01553 -2.23228e-06 0)
(5.01553 -1.42352e-06 0)
(5.01553 -8.77249e-07 0)
(5.01553 -4.89405e-07 0)
(5.01553 -2.71813e-07 0)
(5.01553 -2.1575e-07 0)
(5.01553 -1.59299e-07 0)
(5.01553 -8.68311e-08 0)
(5.01553 -7.01755e-08 0)
(5.01553 -5.01131e-09 0)
(5.01553 -3.86486e-08 0)
(5.01553 -8.82954e-08 0)
(5.01553 4.52197e-08 0)
(5.01553 5.51733e-08 0)
(5.01553 -4.73185e-08 0)
(5.01553 -1.305e-08 0)
(5.01553 -2.04127e-09 0)
(5.01553 1.88886e-08 0)
(5.01553 7.08754e-08 0)
(5.01553 2.60484e-08 0)
(5.01553 -3.32101e-08 0)
(5.01553 3.70035e-08 0)
(5.01553 5.89845e-08 0)
(5.01553 2.50636e-08 0)
(5.01553 2.17518e-08 0)
(5.01553 -3.64056e-08 0)
(5.01553 -5.62275e-08 0)
(5.01553 -2.87037e-09 0)
(5.01553 2.46967e-08 0)
(5.01553 2.7305e-08 0)
(5.01553 -7.16419e-09 0)
(5.01553 -4.36512e-08 0)
(5.01553 -2.98775e-08 0)
(5.01553 -2.30997e-09 0)
(5.01553 2.73942e-08 0)
(5.01553 4.29394e-08 0)
(5.01553 3.12623e-08 0)
(5.01553 8.77169e-09 0)
(5.01553 7.70798e-09 0)
(5.01553 -2.16074e-08 0)
(5.01553 -2.46141e-08 0)
(5.01553 -1.34679e-08 0)
(5.01553 4.33329e-09 0)
(5.01553 -3.72696e-09 0)
(5.01553 -3.77803e-08 0)
(5.01553 -4.89523e-08 0)
(5.01553 -2.66575e-08 0)
(5.01553 1.66909e-08 0)
(5.01553 6.00522e-08 0)
(5.01553 3.76314e-08 0)
(5.01553 -1.21516e-08 0)
(5.01553 -4.49834e-08 0)
(5.01553 -2.81297e-08 0)
(5.01553 7.94321e-09 0)
(5.01553 2.76794e-08 0)
(5.01553 1.60417e-08 0)
(5.01553 4.32574e-09 0)
(5.01553 1.20747e-08 0)
(5.01552 1.12292e-08 0)
(5.01554 2.67626e-08 0)
(5.01551 4.37064e-09 0)
(5.01555 -1.45591e-08 0)
(5.01552 -4.06655e-08 0)
(5.01552 -4.56249e-08 0)
(10.2695 -1.68521 0)
(9.1234 -2.12907 0)
(7.77847 -1.69089 0)
(7.30773 -1.33039 0)
(6.86969 -1.18171 0)
(6.20552 -0.9931 0)
(5.70335 -0.760614 0)
(5.42674 -0.55196 0)
(5.2758 -0.388027 0)
(5.18502 -0.267527 0)
(5.12712 -0.182378 0)
(5.08931 -0.12337 0)
(5.06435 -0.0829291 0)
(5.04781 -0.0554512 0)
(5.03685 -0.0369112 0)
(5.02958 -0.024472 0)
(5.02478 -0.0161659 0)
(5.0216 -0.0106427 0)
(5.0195 -0.00698391 0)
(5.01812 -0.00456859 0)
(5.01722 -0.00297956 0)
(5.01663 -0.00193747 0)
(5.01624 -0.00125588 0)
(5.01599 -0.000811736 0)
(5.01582 -0.000523255 0)
(5.01572 -0.000336145 0)
(5.01565 -0.000215352 0)
(5.0156 -0.000137627 0)
(5.01558 -8.75806e-05 0)
(5.01556 -5.55586e-05 0)
(5.01555 -3.52489e-05 0)
(5.01554 -2.22819e-05 0)
(5.01553 -1.39184e-05 0)
(5.01553 -8.69845e-06 0)
(5.01553 -5.51229e-06 0)
(5.01553 -3.45425e-06 0)
(5.01553 -2.14474e-06 0)
(5.01553 -1.30989e-06 0)
(5.01553 -8.32411e-07 0)
(5.01553 -5.36141e-07 0)
(5.01553 -2.48025e-07 0)
(5.01553 -1.59687e-07 0)
(5.01553 -1.24252e-07 0)
(5.01553 -8.19138e-08 0)
(5.01553 -6.49027e-08 0)
(5.01553 1.2259e-08 0)
(5.01553 -6.43994e-08 0)
(5.01553 -1.58499e-07 0)
(5.01553 3.2758e-08 0)
(5.01553 8.94752e-08 0)
(5.01553 -4.15438e-08 0)
(5.01553 -3.57428e-08 0)
(5.01553 -3.72535e-08 0)
(5.01553 -5.78187e-09 0)
(5.01553 1.14487e-07 0)
(5.01553 2.30149e-08 0)
(5.01553 -6.83202e-08 0)
(5.01553 -1.53914e-08 0)
(5.01553 5.11353e-08 0)
(5.01553 8.23292e-08 0)
(5.01553 7.43774e-08 0)
(5.01553 -1.24627e-08 0)
(5.01553 -8.83736e-08 0)
(5.01553 -3.646e-08 0)
(5.01553 2.14656e-08 0)
(5.01553 3.81819e-08 0)
(5.01553 3.25764e-08 0)
(5.01553 -3.92201e-08 0)
(5.01553 -7.80261e-08 0)
(5.01553 -3.52984e-08 0)
(5.01553 -6.99383e-09 0)
(5.01553 2.68095e-08 0)
(5.01553 5.98724e-08 0)
(5.01553 3.9568e-08 0)
(5.01553 7.87929e-09 0)
(5.01553 4.54842e-09 0)
(5.01553 -4.85192e-08 0)
(5.01553 -4.47845e-08 0)
(5.01553 1.64683e-08 0)
(5.01553 2.89057e-08 0)
(5.01553 -1.66432e-08 0)
(5.01553 -6.28815e-08 0)
(5.01553 -5.42023e-08 0)
(5.01553 -4.68045e-09 0)
(5.01553 2.8209e-08 0)
(5.01553 3.35859e-08 0)
(5.01553 1.5543e-08 0)
(5.01553 -8.12737e-10 0)
(5.01553 -3.78844e-09 0)
(5.01553 1.25081e-08 0)
(5.01553 2.06955e-08 0)
(5.01553 1.13463e-08 0)
(5.01553 -2.13101e-08 0)
(5.01553 -3.68998e-08 0)
(5.01552 -2.62589e-08 0)
(5.01554 1.37381e-08 0)
(5.01551 2.40725e-08 0)
(5.01555 3.28211e-08 0)
(5.01552 2.16403e-08 0)
(5.01552 -1.22563e-08 0)
(9.86487 -0.932887 0)
(9.74 -1.92469 0)
(7.79749 -2.35238 0)
(6.14706 -2.00165 0)
(5.74683 -1.46321 0)
(5.6847 -1.02258 0)
(5.56529 -0.721413 0)
(5.41824 -0.515159 0)
(5.2938 -0.363809 0)
(5.20277 -0.252264 0)
(5.14034 -0.172569 0)
(5.09852 -0.116973 0)
(5.07063 -0.0787319 0)
(5.05204 -0.0526909 0)
(5.03968 -0.035095 0)
(5.03147 -0.0232777 0)
(5.02602 -0.0153814 0)
(5.02242 -0.0101283 0)
(5.02004 -0.00664734 0)
(5.01848 -0.0043489 0)
(5.01745 -0.00283644 0)
(5.01678 -0.00184449 0)
(5.01634 -0.00119568 0)
(5.01605 -0.000772813 0)
(5.01586 -0.000498191 0)
(5.01574 -0.000320076 0)
(5.01566 -0.000205016 0)
(5.01561 -0.000131008 0)
(5.01558 -8.34062e-05 0)
(5.01556 -5.2925e-05 0)
(5.01555 -3.3558e-05 0)
(5.01554 -2.11998e-05 0)
(5.01553 -1.32496e-05 0)
(5.01553 -8.29441e-06 0)
(5.01553 -5.27379e-06 0)
(5.01553 -3.29891e-06 0)
(5.01553 -2.02209e-06 0)
(5.01553 -1.23512e-06 0)
(5.01553 -7.79554e-07 0)
(5.01553 -4.80148e-07 0)
(5.01553 -2.66828e-07 0)
(5.01553 -1.94256e-07 0)
(5.01553 -1.3152e-07 0)
(5.01553 -6.42931e-08 0)
(5.01553 -7.3772e-08 0)
(5.01553 -1.35225e-08 0)
(5.01553 -3.13178e-08 0)
(5.01553 -9.51198e-08 0)
(5.01553 3.97453e-08 0)
(5.01553 7.18259e-08 0)
(5.01553 -5.48702e-08 0)
(5.01553 -1.78138e-08 0)
(5.01553 8.27512e-10 0)
(5.01553 1.19175e-08 0)
(5.01553 6.9201e-08 0)
(5.01553 2.89859e-08 0)
(5.01553 -3.3842e-08 0)
(5.01553 2.8626e-08 0)
(5.01553 6.3491e-08 0)
(5.01553 3.11577e-08 0)
(5.01553 2.61465e-08 0)
(5.01553 -3.51651e-08 0)
(5.01553 -6.20248e-08 0)
(5.01553 -6.52143e-09 0)
(5.01553 2.84914e-08 0)
(5.01553 2.56668e-08 0)
(5.01553 -4.46411e-09 0)
(5.01553 -4.63675e-08 0)
(5.01553 -3.49503e-08 0)
(5.01553 1.05595e-10 0)
(5.01553 1.87011e-08 0)
(5.01553 4.13506e-08 0)
(5.01553 3.74826e-08 0)
(5.01553 1.40863e-08 0)
(5.01553 6.30835e-09 0)
(5.01553 -1.67775e-08 0)
(5.01553 -2.97894e-08 0)
(5.01553 -1.79847e-08 0)
(5.01553 6.54277e-09 0)
(5.01553 -1.31817e-09 0)
(5.01553 -4.16881e-08 0)
(5.01553 -5.24344e-08 0)
(5.01553 -2.47647e-08 0)
(5.01553 1.78319e-08 0)
(5.01553 5.32304e-08 0)
(5.01553 3.38145e-08 0)
(5.01553 -1.56026e-08 0)
(5.01553 -4.07726e-08 0)
(5.01553 -2.57873e-08 0)
(5.01553 6.62379e-09 0)
(5.01553 2.74765e-08 0)
(5.01553 1.76863e-08 0)
(5.01553 -4.48137e-10 0)
(5.01553 6.73549e-09 0)
(5.01552 6.59403e-09 0)
(5.01554 3.40814e-08 0)
(5.01551 6.58871e-09 0)
(5.01555 -1.26557e-08 0)
(5.01552 -2.93954e-08 0)
(5.01552 -4.84881e-08 0)
(9.63887 -1.38356 0)
(8.67746 -1.83799 0)
(8.20955 -1.41424 0)
(7.66009 -1.12419 0)
(6.85888 -1.04369 0)
(6.16601 -0.884555 0)
(5.73097 -0.6695 0)
(5.47877 -0.483329 0)
(5.32373 -0.341186 0)
(5.22159 -0.236618 0)
(5.15309 -0.162019 0)
(5.10723 -0.109948 0)
(5.07655 -0.07408 0)
(5.05603 -0.0496167 0)
(5.04235 -0.0330661 0)
(5.03325 -0.0219407 0)
(5.0272 -0.014502 0)
(5.0232 -0.00955108 0)
(5.02055 -0.00626943 0)
(5.01881 -0.0041021 0)
(5.01767 -0.0026756 0)
(5.01692 -0.00173997 0)
(5.01643 -0.001128 0)
(5.01611 -0.000729062 0)
(5.0159 -0.000469998 0)
(5.01577 -0.000301998 0)
(5.01568 -0.000193399 0)
(5.01562 -0.000123566 0)
(5.01559 -7.87117e-05 0)
(5.01557 -4.99624e-05 0)
(5.01555 -3.16528e-05 0)
(5.01554 -1.99813e-05 0)
(5.01554 -1.24991e-05 0)
(5.01553 -7.84772e-06 0)
(5.01553 -5.00067e-06 0)
(5.01553 -3.11307e-06 0)
(5.01553 -1.88929e-06 0)
(5.01553 -1.14477e-06 0)