/*--------------------------------*- C++ -*----------------------------------*\
| =========                 |                                                 |
| \\      /  F ield         | OpenFOAM: The Open Source CFD Toolbox           |
|  \\    /   O peration     | Version:  2.4.0                                 |
|   \\  /    A nd           | Web:      www.OpenFOAM.org                      |
|    \\/     M anipulation  |                                                 |
\*---------------------------------------------------------------------------*/
FoamFile
{
    version     2.0;
    format      ascii;
    class       volVectorField;
    location    "0.69";
    object      U;
}
// * * * * * * * * * * * * * * * * * * * * * * * * * * * * * * * * * * * * * //

dimensions      [0 1 -1 0 0 0 0];

internalField   nonuniform List<vector> 
8800
(
(8.08349 0.387774 0)
(5.46987 0.240808 0)
(3.94717 0.048325 0)
(3.09266 -0.0187635 0)
(2.85534 -0.0168849 0)
(2.49969 -0.0101776 0)
(2.59706 -0.0106208 0)
(2.26752 0.00265926 0)
(2.4403 -0.000976228 0)
(2.15179 -0.0052285 0)
(2.35852 0.00401304 0)
(2.06379 -0.000579688 0)
(2.28037 -0.000810263 0)
(1.99781 0.000843328 0)
(2.20968 0.00327569 0)
(1.92735 -0.00436223 0)
(2.16698 0.00345102 0)
(1.81886 0.00350355 0)
(2.16606 0.0153404 0)
(1.33277 -0.111388 0)
(10.1154 0.835754 0)
(9.60934 0.854955 0)
(9.06068 0.531493 0)
(7.88624 0.251387 0)
(7.71623 0.14389 0)
(6.69851 0.0818311 0)
(7.05787 0.0402145 0)
(6.00954 0.0530657 0)
(6.62129 0.0252002 0)
(5.689 0.00971736 0)
(6.31639 0.03085 0)
(5.46508 0.015686 0)
(6.1268 0.0130387 0)
(5.26198 0.0166268 0)
(5.96603 0.0251765 0)
(5.11211 -0.00266305 0)
(5.83856 0.0367078 0)
(4.8602 0.00194851 0)
(5.83572 0.0674577 0)
(4.4152 -0.101747 0)
(10.3176 0.632164 0)
(10.3551 0.828538 0)
(11.3377 0.653099 0)
(10.281 0.35155 0)
(10.9312 0.276276 0)
(9.50873 0.185088 0)
(10.4666 0.131597 0)
(8.83498 0.145421 0)
(9.95855 0.0755857 0)
(8.49541 0.0577566 0)
(9.5114 0.0753823 0)
(8.22533 0.0438254 0)
(9.25021 0.0450881 0)
(7.95529 0.0389997 0)
(9.00163 0.0547384 0)
(7.83551 0.00421509 0)
(8.76223 0.0787519 0)
(7.61521 0.0177213 0)
(8.61388 0.0790778 0)
(7.43232 -0.0832172 0)
(10.8708 0.473425 0)
(9.72319 0.644986 0)
(12.0561 0.600334 0)
(10.6021 0.319333 0)
(12.4029 0.312627 0)
(10.5779 0.207875 0)
(12.3652 0.174836 0)
(10.4645 0.218263 0)
(12.0849 0.099912 0)
(10.4513 0.108829 0)
(11.7316 0.12083 0)
(10.4003 0.0755665 0)
(11.4939 0.0796022 0)
(10.2586 0.0813731 0)
(11.1803 0.0699964 0)
(10.2993 0.0394598 0)
(10.8757 0.0929375 0)
(10.1709 0.0747662 0)
(10.6323 0.0519896 0)
(10.0945 0.0686691 0)
(11.9455 0.330291 0)
(9.14781 0.552377 0)
(12.4899 0.510364 0)
(10.2672 0.245389 0)
(12.7619 0.278484 0)
(10.7942 0.185532 0)
(12.669 0.120385 0)
(11.2356 0.26018 0)
(12.6625 0.0645463 0)
(11.5468 0.137614 0)
(12.4595 0.107076 0)
(11.8485 0.103811 0)
(12.4286 0.0693269 0)
(11.8603 0.129934 0)
(12.2257 0.0475191 0)
(12.021 0.0707985 0)
(12.1489 0.0998649 0)
(11.9239 0.108128 0)
(12.0202 0.035485 0)
(11.8542 0.130036 0)
(11.798 0.105354 0)
(9.30945 0.487543 0)
(12.2353 0.394943 0)
(10.6854 0.249299 0)
(12.1578 0.193926 0)
(11.5245 0.208768 0)
(11.764 0.031046 0)
(11.7333 0.235629 0)
(12.1383 -0.00669966 0)
(12.1441 0.157214 0)
(11.9953 0.0533259 0)
(12.4092 0.0791414 0)
(12.4996 0.0669104 0)
(12.335 0.135658 0)
(12.4182 0.0400192 0)
(12.5006 0.0301996 0)
(12.6403 0.133683 0)
(12.4931 0.0850126 0)
(12.5224 0.0401206 0)
(12.4196 0.0222929 0)
(10.8049 -0.0306625 0)
(9.68596 0.430272 0)
(11.1107 0.24588 0)
(11.1616 0.28423 0)
(11.2677 0.0903161 0)
(12.061 0.262048 0)
(10.9119 0.0360432 0)
(11.8206 0.170189 0)
(11.5591 -0.0670029 0)
(12.0669 0.182026 0)
(11.5107 0.0299993 0)
(12.1959 -0.0161008 0)
(12.4231 0.0813923 0)
(11.9894 0.150598 0)
(12.2453 0.0152547 0)
(12.3005 -0.0121125 0)
(12.4971 0.1226 0)
(12.3588 0.101172 0)
(12.2883 0.0139473 0)
(12.274 -0.0132588 0)
(10.0456 -0.0907705 0)
(10.1124 0.422698 0)
(10.2318 0.0955972 0)
(11.5768 0.229703 0)
(10.8591 0.0115826 0)
(12.0469 0.285607 0)
(10.8172 0.0779521 0)
(11.7804 0.0761659 0)
(11.4433 -0.073528 0)
(11.8626 0.180943 0)
(11.7049 0.0168676 0)
(11.988 -0.138314 0)
(12.3745 0.1062 0)
(11.7803 0.172724 0)
(12.1098 -0.0278513 0)
(12.1094 -0.0508839 0)
(12.203 0.11678 0)
(12.1717 0.10983 0)
(12.0615 -0.0108642 0)
(12.0791 -0.0281896 0)
(9.51392 -0.126374 0)
(10.7462 0.362075 0)
(9.92403 -0.0599145 0)
(11.6569 0.147009 0)
(10.6533 0.0299102 0)
(11.5456 0.264784 0)
(11.1353 0.093883 0)
(11.9548 -0.0165946 0)
(11.6392 -0.0912556 0)
(11.9174 0.110877 0)
(12.1402 0.00863789 0)
(11.8929 -0.181579 0)
(11.949 0.142133 0)
(11.7405 0.199956 0)
(12.0187 -0.0442953 0)
(11.9819 -0.0598164 0)
(11.9282 0.0978955 0)
(12.127 0.121353 0)
(12.1483 -0.0267623 0)
(12.1279 -0.0511662 0)
(9.53242 -0.203266 0)
(11.0041 0.269431 0)
(9.74846 -0.089579 0)
(11.1415 0.072305 0)
(10.7574 0.123989 0)
(11.2575 0.160626 0)
(11.6834 -0.0100259 0)
(12.2421 -0.0923588 0)
(11.8533 -0.0455938 0)
(11.9349 0.0439795 0)
(12.208 0.0324996 0)
(11.8542 -0.0852373 0)
(11.5672 0.156417 0)
(11.8227 0.14017 0)
(12.1865 -0.0803579 0)
(12.1463 -0.0324258 0)
(11.9572 0.0577613 0)
(12.2694 0.0462538 0)
(12.4694 -0.0665053 0)
(12.4477 -0.0536737 0)
(9.94652 -0.283 0)
(10.3903 0.250236 0)
(10.0125 -0.0445587 0)
(10.8529 -0.109097 0)
(11.1048 0.0780391 0)
(11.3505 0.00654453 0)
(11.8901 -0.130597 0)
(11.9888 -0.133288 0)
(11.7579 0.00766537 0)
(11.945 0.0041479 0)
(12.1103 0.03415 0)
(12.0318 -0.0258652 0)
(11.95 0.154862 0)
(12.2376 0.0417363 0)
(12.5321 -0.127559 0)
(12.4203 -0.0152649 0)
(12.4137 0.0470407 0)
(12.5508 -0.0339697 0)
(12.7097 -0.114133 0)
(12.6395 -0.0835906 0)
(10.1337 -0.296873 0)
(9.92038 0.184753 0)
(10.5985 -0.133254 0)
(11.0226 -0.226151 0)
(11.1595 0.0769734 0)
(11.3968 -0.0779639 0)
(11.7829 -0.139074 0)
(11.5789 -0.132741 0)
(11.6075 -0.00141849 0)
(11.9332 -0.0558891 0)
(11.9671 0.0130943 0)
(12.0036 -0.0334246 0)
(12.251 0.0916804 0)
(12.5023 -0.00511728 0)
(12.5484 -0.125902 0)
(12.4752 -0.0160947 0)
(12.6451 0.0194093 0)
(12.7279 -0.0690635 0)
(12.7837 -0.140382 0)
(12.5629 -0.0878499 0)
(10.1522 -0.311912 0)
(9.97373 0.0204022 0)
(10.9156 -0.22095 0)
(11.0603 -0.248679 0)
(11.1202 0.0752179 0)
(11.5262 -0.159156 0)
(11.8497 -0.134627 0)
(11.5805 -0.152176 0)
(11.6522 -0.0567751 0)
(11.9864 -0.0846026 0)
(11.8567 0.00218314 0)
(11.9298 -0.0626609 0)
(12.1961 0.00915959 0)
(12.3986 -0.0209115 0)
(12.3364 -0.120317 0)
(12.3938 -0.0553813 0)
(12.49 -0.0172217 0)
(12.7053 -0.11102 0)
(12.5839 -0.126548 0)
(12.3227 -0.0633901 0)
(10.1744 -0.352987 0)
(10.0672 -0.106405 0)
(10.7332 -0.299084 0)
(11.24 -0.297148 0)
(11.2701 0.0281378 0)
(11.659 -0.280209 0)
(11.9531 -0.13655 0)
(11.6296 -0.151179 0)
(11.7148 -0.0880601 0)
(11.9706 -0.101173 0)
(11.8865 -0.0017918 0)
(11.94 -0.0765913 0)
(12.2068 -0.0568598 0)
(12.291 -0.0361616 0)
(12.3445 -0.122987 0)
(12.3538 -0.0763044 0)
(12.4354 -0.0587069 0)
(12.5909 -0.132137 0)
(12.4891 -0.122464 0)
(12.4309 -0.139939 0)
(10.146 -0.398256 0)
(10.0117 -0.204318 0)
(10.974 -0.413607 0)
(11.3618 -0.370493 0)
(11.5214 -0.00142234 0)
(11.6732 -0.33528 0)
(11.8573 -0.126715 0)
(11.6383 -0.128712 0)
(11.8217 -0.144667 0)
(11.9609 -0.109857 0)
(11.9953 -0.0289601 0)
(12.0489 -0.1001 0)
(12.2971 -0.101187 0)
(12.279 -0.0551041 0)
(12.3574 -0.12032 0)
(12.3349 -0.10758 0)
(12.415 -0.0708691 0)
(12.434 -0.159091 0)
(12.4141 -0.145661 0)
(12.2774 -0.150503 0)
(10.0356 -0.443943 0)
(10.1508 -0.369216 0)
(11.3256 -0.526945 0)
(11.3116 -0.390131 0)
(11.726 -0.055264 0)
(11.6344 -0.345376 0)
(11.8488 -0.157351 0)
(11.7284 -0.139638 0)
(11.855 -0.182113 0)
(11.8475 -0.120254 0)
(11.9409 -0.0630089 0)
(11.8657 -0.114868 0)
(12.0454 -0.125511 0)
(11.9062 -0.0651055 0)
(11.9821 -0.116663 0)
(11.8337 -0.114446 0)
(11.9179 -0.0774649 0)
(11.7544 -0.160126 0)
(11.726 -0.133088 0)
(11.4815 -0.177962 0)
(9.90757 -0.514389 0)
(10.4655 -0.579054 0)
(11.4161 -0.592658 0)
(11.2152 -0.424649 0)
(11.7513 -0.150891 0)
(11.3295 -0.329185 0)
(11.4894 -0.191578 0)
(11.2836 -0.142586 0)
(11.1796 -0.170553 0)
(11.0569 -0.118636 0)
(11.0532 -0.0690263 0)
(10.8297 -0.102197 0)
(10.8824 -0.11182 0)
(10.6403 -0.0566556 0)
(10.6639 -0.0900415 0)
(10.3979 -0.0973876 0)
(10.4712 -0.0591759 0)
(10.1629 -0.130661 0)
(10.1517 -0.104666 0)
(9.8093 -0.172019 0)
(9.96083 -0.660375 0)
(10.6475 -0.796431 0)
(11.0081 -0.624444 0)
(10.5293 -0.426714 0)
(10.6546 -0.189112 0)
(9.92142 -0.245877 0)
(9.86421 -0.158726 0)
(9.47347 -0.0919271 0)
(9.23262 -0.106372 0)
(9.0334 -0.0779343 0)
(8.92663 -0.0339516 0)
(8.69012 -0.0587651 0)
(8.6545 -0.0684025 0)
(8.41737 -0.0269324 0)
(8.4137 -0.0526556 0)
(8.14642 -0.0584262 0)
(8.19711 -0.0372169 0)
(7.88313 -0.0786252 0)
(7.87492 -0.0777313 0)
(7.52053 -0.0993492 0)
(10.0271 -0.848364 0)
(9.65951 -0.841397 0)
(8.94966 -0.513204 0)
(7.9766 -0.294276 0)
(7.60048 -0.102748 0)
(6.89347 -0.100804 0)
(6.71383 -0.067123 0)
(6.36366 -0.0173087 0)
(6.19598 -0.0365437 0)
(6.01908 -0.0304317 0)
(5.93582 -0.00229253 0)
(5.78795 -0.022834 0)
(5.72727 -0.0294696 0)
(5.5719 -0.0077186 0)
(5.55693 -0.0216945 0)
(5.36366 -0.0279508 0)
(5.38095 -0.0153037 0)
(5.15028 -0.0369118 0)
(5.12758 -0.0428897 0)
(4.82425 -0.0234446 0)
(8.07949 -0.390635 0)
(5.44145 -0.238867 0)
(3.95309 -0.0431466 0)
(3.11474 0.00578008 0)
(2.81421 0.02835 0)
(2.57286 0.00706043 0)
(2.4792 -0.00045192 0)
(2.35938 0.0106029 0)
(2.32746 -0.0025026 0)
(2.24232 -0.00223621 0)
(2.22218 0.00516992 0)
(2.18323 -0.00148839 0)
(2.14251 -0.003435 0)
(2.08469 0.00222153 0)
(2.07682 -0.00121689 0)
(1.9969 -0.00368593 0)
(1.98636 0.000969604 0)
(1.89675 -0.00465012 0)
(1.84975 -0.00495377 0)
(1.68947 0.0100329 0)
(2.53033 -0.067725 0)
(2.07115 -0.018282 0)
(2.77593 -0.0595776 0)
(2.28181 -0.0824525 0)
(3.02722 -0.115823 0)
(2.44918 -0.0776391 0)
(3.19799 -0.0775506 0)
(2.58275 -0.00570068 0)
(3.31697 0.0150994 0)
(2.70046 0.0641759 0)
(3.47677 0.0703625 0)
(2.86171 0.10243 0)
(3.65913 0.0931949 0)
(3.03864 0.113672 0)
(3.84643 0.0876414 0)
(3.22175 0.0962381 0)
(4.03837 0.0586417 0)
(3.4029 0.0582967 0)
(4.23678 -0.000159763 0)
(3.59551 -0.0197197 0)
(4.43191 -0.100561 0)
(3.77824 -0.142674 0)
(4.58622 -0.238402 0)
(3.8866 -0.284245 0)
(4.62262 -0.366733 0)
(3.83501 -0.383786 0)
(4.50254 -0.431327 0)
(3.65395 -0.399598 0)
(4.33786 -0.379735 0)
(3.54772 -0.257419 0)
(4.35766 -0.0879783 0)
(3.7654 0.194365 0)
(4.7163 0.480899 0)
(4.40207 0.842878 0)
(5.34676 1.10199 0)
(5.28253 1.33401 0)
(6.09076 1.38025 0)
(6.24419 1.30778 0)
(6.79944 1.04161 0)
(7.06435 0.640718 0)
(7.39922 0.144731 0)
(7.59701 -0.41463 0)
(7.72419 -1.01406 0)
(7.91984 -1.55463 0)
(7.98707 -2.08209 0)
(8.18535 -2.61339 0)
(8.26982 -3.10102 0)
(8.32714 -3.46629 0)
(8.42327 -3.57748 0)
(8.30532 -3.35994 0)
(8.27381 -2.92458 0)
(7.88956 -2.54945 0)
(7.71297 -2.17649 0)
(7.44787 -1.6162 0)
(7.62663 -1.01612 0)
(7.23967 -0.461226 0)
(6.65749 -0.279455 0)
(5.8661 -0.100036 0)
(5.60228 0.299248 0)
(5.42933 0.684969 0)
(5.6508 1.09553 0)
(5.79156 1.60327 0)
(6.11868 1.97664 0)
(6.30587 2.27338 0)
(6.71347 2.56758 0)
(7.08744 2.77756 0)
(7.54158 2.75125 0)
(7.93152 2.62965 0)
(8.34203 2.45702 0)
(8.72374 2.21769 0)
(9.13191 1.94489 0)
(9.49291 1.58363 0)
(9.98869 1.11137 0)
(10.4029 0.480188 0)
(10.7435 -0.490854 0)
(10.9524 -1.30993 0)
(11.0379 -1.95583 0)
(10.7937 -2.7446 0)
(10.6196 -3.08708 0)
(10.6614 -3.27035 0)
(10.4021 -3.87604 0)
(10.6443 -4.73537 0)
(10.6245 -5.72255 0)
(10.3831 -6.23823 0)
(9.8491 -6.31148 0)
(9.20366 -5.68605 0)
(8.95736 -4.87376 0)
(8.1014 -4.36149 0)
(8.01789 -3.5588 0)
(7.57749 -3.21052 0)
(6.80556 -3.18276 0)
(6.42733 -2.54557 0)
(6.1361 -1.97315 0)
(5.40395 -1.8148 0)
(5.04005 -1.08585 0)
(5.16738 0.53423 0)
(5.65444 2.49034 0)
(6.18174 3.93181 0)
(6.63906 4.825 0)
(7.04923 5.09077 0)
(7.39387 4.92967 0)
(7.74823 4.56509 0)
(8.09501 3.88533 0)
(8.39253 3.19137 0)
(8.63815 2.39451 0)
(8.89415 1.46778 0)
(9.17447 0.567323 0)
(9.45934 -0.275815 0)
(9.66766 -1.06761 0)
(10.0377 -1.89193 0)
(10.4116 -2.7358 0)
(10.8067 -3.62545 0)
(11.3526 -4.74733 0)
(11.9816 -5.96614 0)
(12.2315 -6.86226 0)
(12.1946 -7.4075 0)
(12.1585 -7.84694 0)
(12.2411 -8.27254 0)
(12.2684 -8.56451 0)
(12.1563 -8.53967 0)
(11.9274 -8.3545 0)
(11.764 -8.08684 0)
(11.5813 -7.56661 0)
(11.3113 -6.89078 0)
(10.9827 -6.20463 0)
(10.7851 -5.4812 0)
(10.4804 -4.58151 0)
(9.93373 -3.73843 0)
(9.36364 -3.06127 0)
(8.66176 -2.6139 0)
(8.26154 -2.22463 0)
(7.99639 -1.88437 0)
(7.78603 -1.11914 0)
(7.3806 -0.346204 0)
(7.13471 0.279483 0)
(6.9721 0.627174 0)
(6.58143 0.676557 0)
(6.69632 0.619102 0)
(6.29941 0.254509 0)
(6.75941 0.0959143 0)
(6.5578 -0.305554 0)
(7.32095 -0.544345 0)
(7.54999 -0.885503 0)
(8.49599 -1.06162 0)
(8.93192 -1.39225 0)
(9.69684 -1.16138 0)
(9.92633 -1.04847 0)
(10.6798 -0.831055 0)
(10.735 -0.377222 0)
(11.3886 0.0475674 0)
(11.2209 0.634168 0)
(11.7303 1.30748 0)
(11.4994 1.85268 0)
(11.6591 2.5314 0)
(11.6538 3.12632 0)
(11.4921 3.56695 0)
(11.4218 4.08752 0)
(11.2384 4.68424 0)
(11.0194 4.9605 0)
(10.5696 5.29885 0)
(10.4466 5.70229 0)
(9.931 5.80604 0)
(9.4396 5.86659 0)
(9.30328 5.87599 0)
(9.26574 5.84495 0)
(9.3344 6.01278 0)
(9.42255 5.9745 0)
(9.16487 5.76075 0)
(9.03846 5.60885 0)
(8.86935 5.5885 0)
(8.95476 5.72528 0)
(8.90791 5.5435 0)
(8.45954 5.13894 0)
(8.17867 4.71285 0)
(7.62877 4.20165 0)
(7.35204 3.80964 0)
(7.29837 3.42476 0)
(6.9305 2.96384 0)
(6.94182 2.56791 0)
(6.49084 2.0932 0)
(6.48087 1.51454 0)
(6.13925 1.24667 0)
(6.62961 0.753931 0)
(5.89496 0.510718 0)
(6.1995 -0.201668 0)
(5.04347 -0.71617 0)
(5.57129 -0.754293 0)
(5.05373 -1.18163 0)
(4.6429 -1.16471 0)
(4.98864 -0.88897 0)
(4.37853 -0.590594 0)
(4.3483 -0.263464 0)
(4.25846 0.467642 0)
(3.64377 0.467229 0)
(3.48706 1.70198 0)
(3.80456 3.38558 0)
(3.89966 5.40152 0)
(4.00996 6.56538 0)
(4.99434 8.02516 0)
(3.47546 11.2646 0)
(5.55446 -0.0818795 0)
(5.03644 -0.0254178 0)
(5.58421 -0.0535582 0)
(5.09842 -0.0772029 0)
(5.72655 -0.125685 0)
(5.23365 -0.105132 0)
(5.85107 -0.113457 0)
(5.33234 -0.0597639 0)
(5.92079 -0.0458883 0)
(5.39815 0.00890517 0)
(5.98693 0.0134018 0)
(5.49373 0.0416684 0)
(6.07949 0.0320628 0)
(5.6185 0.0439022 0)
(6.19899 0.0171387 0)
(5.77386 0.0207551 0)
(6.34247 -0.0271864 0)
(5.95045 -0.0248707 0)
(6.51602 -0.0961033 0)
(6.14932 -0.105775 0)
(6.69817 -0.189193 0)
(6.33673 -0.218564 0)
(6.84796 -0.298489 0)
(6.46145 -0.333166 0)
(6.91124 -0.371682 0)
(6.49527 -0.369755 0)
(6.89313 -0.364192 0)
(6.45519 -0.296054 0)
(6.75192 -0.246149 0)
(6.28442 -0.101526 0)
(6.48522 -0.0293123 0)
(6.08815 0.154862 0)
(6.31652 0.292984 0)
(6.1698 0.51672 0)
(6.57113 0.68375 0)
(6.75667 0.871917 0)
(7.24527 0.922438 0)
(7.64594 0.860196 0)
(8.06697 0.664084 0)
(8.46886 0.320255 0)
(8.80008 -0.0957511 0)
(9.09664 -0.589707 0)
(9.28196 -1.14075 0)
(9.51869 -1.69587 0)
(9.61001 -2.1528 0)
(9.81842 -2.71047 0)
(9.83518 -3.13624 0)
(9.83162 -3.39938 0)
(9.61177 -3.43932 0)
(9.24227 -3.32154 0)
(8.94362 -3.00958 0)
(8.81119 -2.31815 0)
(8.63051 -1.88342 0)
(8.29838 -1.53123 0)
(8.1974 -0.984653 0)
(8.10649 -0.277033 0)
(7.96278 0.362655 0)
(7.37277 0.476626 0)
(6.83551 0.484355 0)
(6.48345 0.71368 0)
(6.37965 1.00084 0)
(6.439 1.37168 0)
(6.71162 1.75744 0)
(6.98384 2.02495 0)
(7.34581 2.22785 0)
(7.7256 2.34145 0)
(8.18181 2.32333 0)
(8.65728 2.3308 0)
(9.02145 2.19732 0)
(9.41394 1.8635 0)
(9.84324 1.55512 0)
(10.2369 1.31359 0)
(10.6706 0.76095 0)
(11.1037 0.107926 0)
(11.5252 -0.597068 0)
(11.5162 -1.38622 0)
(11.4279 -2.02275 0)
(11.4973 -2.51014 0)
(11.0703 -3.05241 0)
(11.2294 -3.3341 0)
(11.4807 -3.87022 0)
(11.5746 -4.82562 0)
(11.6814 -5.65164 0)
(11.2448 -6.04724 0)
(10.878 -5.78147 0)
(9.99216 -5.20017 0)
(9.64312 -4.25733 0)
(8.90224 -3.65823 0)
(8.51972 -3.22693 0)
(8.32971 -2.59152 0)
(7.64458 -2.56273 0)
(7.0849 -2.28103 0)
(6.80169 -1.59279 0)
(6.19719 -1.30126 0)
(5.53815 -0.961203 0)
(5.46263 0.300313 0)
(5.8418 2.03782 0)
(6.46127 3.48873 0)
(6.93285 4.43103 0)
(7.46275 4.75986 0)
(7.82047 4.63696 0)
(8.1773 4.26121 0)
(8.52407 3.59961 0)
(8.75183 2.90211 0)
(9.12158 2.08512 0)
(9.39872 1.15469 0)
(9.6932 0.308709 0)
(9.90194 -0.471684 0)
(10.2086 -1.2969 0)
(10.5686 -2.16776 0)
(10.8903 -3.00495 0)
(11.3063 -3.99816 0)
(11.8586 -5.24837 0)
(12.2495 -6.2882 0)
(12.1077 -6.89596 0)
(11.9873 -7.36129 0)
(11.9876 -7.90029 0)
(12.0279 -8.3123 0)
(11.8493 -8.43628 0)
(11.5206 -8.28158 0)
(11.2175 -8.07766 0)
(11.0579 -7.81746 0)
(10.8578 -7.28956 0)
(10.6428 -6.5732 0)
(10.2697 -5.94685 0)
(10.1194 -5.20668 0)
(9.71137 -4.19458 0)
(9.1207 -3.21213 0)
(8.19516 -2.41296 0)
(7.45286 -2.03773 0)
(6.99137 -1.8916 0)
(6.59013 -1.47073 0)
(6.10086 -0.773499 0)
(5.81106 -0.108757 0)
(5.33994 0.469942 0)
(5.33238 0.832724 0)
(4.86746 0.770794 0)
(5.25579 0.673913 0)
(4.81416 0.221043 0)
(5.63046 -0.0292636 0)
(5.70606 -0.787962 0)
(6.8425 -1.06394 0)
(7.13848 -1.53708 0)
(8.28777 -1.67023 0)
(8.48194 -1.7826 0)
(9.33092 -1.64215 0)
(9.42134 -1.37406 0)
(10.1243 -1.11028 0)
(10.2653 -0.690574 0)
(10.55 0.0721772 0)
(10.7281 0.411907 0)
(10.8309 1.34751 0)
(10.9499 1.82365 0)
(10.8969 2.46136 0)
(11.0943 3.21877 0)
(10.8731 3.62614 0)
(10.8942 4.0944 0)
(10.9519 4.70025 0)
(10.792 5.20594 0)
(10.4045 5.45931 0)
(10.1241 5.81044 0)
(10.016 6.11915 0)
(9.53886 5.9507 0)
(9.12451 5.80468 0)
(8.97479 5.81109 0)
(8.80921 6.01549 0)
(9.03824 6.1845 0)
(8.90798 6.1406 0)
(8.84635 6.01452 0)
(8.81931 5.89943 0)
(8.75635 5.78583 0)
(8.95724 5.72494 0)
(8.89856 5.55663 0)
(8.69772 5.0858 0)
(8.49848 4.51112 0)
(7.91886 3.89791 0)
(7.74131 3.44137 0)
(7.35472 3.04735 0)
(7.21334 2.71891 0)
(7.00802 2.29507 0)
(7.17814 1.67963 0)
(6.57847 1.28237 0)
(6.96744 0.784035 0)
(6.40228 0.436191 0)
(6.95756 0.0729719 0)
(6.0869 -0.3545 0)
(5.99346 -0.723917 0)
(5.91604 -0.902688 0)
(5.51875 -0.920331 0)
(5.17717 -0.740142 0)
(5.45675 -0.447187 0)
(4.55357 -0.00323944 0)
(5.07093 0.508817 0)
(4.54788 1.24816 0)
(4.03023 1.4405 0)
(4.40319 3.41443 0)
(4.90714 4.99493 0)
(4.94255 6.67658 0)
(7.28597 6.85698 0)
(5.80446 11.9009 0)
(8.10552 -0.140682 0)
(7.82992 -0.105354 0)
(8.10234 -0.126475 0)
(7.88277 -0.123886 0)
(8.20665 -0.154202 0)
(8.00823 -0.120861 0)
(8.30974 -0.124276 0)
(8.07704 -0.0723418 0)
(8.35152 -0.0640745 0)
(8.12026 -0.0230735 0)
(8.38121 -0.00959111 0)
(8.19483 0.00599736 0)
(8.43387 0.00884623 0)
(8.31101 0.00668159 0)
(8.51437 -0.0190254 0)
(8.44499 -0.01966 0)
(8.62672 -0.0784382 0)
(8.57573 -0.0755504 0)
(8.77185 -0.154105 0)
(8.70502 -0.170546 0)
(8.91775 -0.238757 0)
(8.82084 -0.286122 0)
(9.02197 -0.325621 0)
(8.89611 -0.373462 0)
(9.04099 -0.376656 0)
(8.92443 -0.37799 0)
(8.9749 -0.350302 0)
(8.87936 -0.290084 0)
(8.8403 -0.209551 0)
(8.77574 -0.0854009 0)
(8.72121 0.0577544 0)
(8.64116 0.226661 0)
(8.6548 0.337912 0)
(8.57383 0.529529 0)
(8.72987 0.56474 0)
(8.78416 0.643792 0)
(9.11225 0.651982 0)
(9.34439 0.507431 0)
(9.74885 0.351298 0)
(10.0429 0.0210272 0)
(10.3751 -0.349734 0)
(10.7002 -0.80121 0)
(10.8889 -1.31721 0)
(11.1332 -1.79215 0)
(11.1363 -2.31769 0)
(11.2592 -2.69866 0)
(11.1247 -3.13634 0)
(10.8616 -3.32637 0)
(10.4426 -3.24282 0)
(10.0781 -2.83137 0)
(9.56651 -2.55628 0)
(9.1459 -2.33904 0)
(9.02284 -1.7765 0)
(8.75456 -1.33607 0)
(8.53371 -0.848623 0)
(8.35593 -0.330197 0)
(8.56652 0.268666 0)
(8.67677 0.899331 0)
(8.31166 1.08221 0)
(7.73222 1.0842 0)
(7.22159 1.12676 0)
(7.03222 1.16542 0)
(7.1101 1.43129 0)
(7.3839 1.72864 0)
(7.7883 1.86175 0)
(8.18802 2.0431 0)
(8.5865 2.05092 0)
(9.06832 1.91954 0)
(9.49188 1.76513 0)
(9.91892 1.58444 0)
(10.3401 1.25517 0)
(10.6935 0.87311 0)
(11.1044 0.381814 0)
(11.5053 -0.207116 0)
(11.7196 -0.830879 0)
(11.8681 -1.34234 0)
(11.7499 -1.97012 0)
(11.8404 -2.47538 0)
(11.9928 -2.91013 0)
(11.9012 -3.53043 0)
(12.4563 -4.08809 0)
(12.6271 -4.91294 0)
(12.5835 -5.5177 0)
(12.1247 -5.70094 0)
(11.437 -5.27434 0)
(10.6474 -4.50463 0)
(10.0661 -3.81816 0)
(9.61333 -3.16893 0)
(9.06424 -2.92006 0)
(8.7817 -2.42029 0)
(8.55005 -1.97884 0)
(7.90179 -1.7831 0)
(7.39546 -1.26159 0)
(6.93479 -0.776584 0)
(6.21071 -0.54226 0)
(5.75725 0.295948 0)
(5.99355 1.67114 0)
(6.56023 3.05482 0)
(7.12277 4.02862 0)
(7.71026 4.41547 0)
(8.12191 4.34682 0)
(8.5366 3.95181 0)
(8.9339 3.38543 0)
(9.15608 2.71882 0)
(9.60326 1.89257 0)
(9.86927 0.994816 0)
(10.1175 0.201073 0)
(10.3207 -0.642777 0)
(10.7171 -1.56519 0)
(10.9976 -2.43347 0)
(11.2373 -3.32555 0)
(11.7369 -4.48095 0)
(12.1368 -5.59032 0)
(12.0788 -6.25548 0)
(11.7565 -6.71016 0)
(11.7433 -7.29351 0)
(11.7466 -7.8691 0)
(11.5743 -8.11599 0)
(11.1161 -8.06579 0)
(10.7345 -7.95286 0)
(10.5208 -7.88388 0)
(10.3938 -7.71293 0)
(10.2259 -7.16887 0)
(9.89478 -6.42942 0)
(9.44349 -5.79991 0)
(9.19324 -4.99401 0)
(8.62829 -3.79388 0)
(7.74619 -2.50068 0)
(6.70965 -1.7425 0)
(6.14984 -1.52944 0)
(5.38814 -1.38199 0)
(5.05217 -0.989825 0)
(4.39597 -0.426974 0)
(4.08337 0.265574 0)
(3.4238 0.681099 0)
(3.58789 0.890017 0)
(3.04751 0.742697 0)
(3.69541 0.642252 0)
(3.6467 -0.123523 0)
(4.88959 -0.603855 0)
(5.24169 -1.44163 0)
(6.2389 -1.73242 0)
(6.89083 -2.10325 0)
(7.32362 -2.23767 0)
(8.23095 -2.17158 0)
(8.08304 -1.98604 0)
(9.08867 -1.68259 0)
(8.8866 -1.36977 0)
(9.57276 -0.735546 0)
(9.5063 -0.199144 0)
(9.83673 0.498776 0)
(10.0113 0.930169 0)
(10.033 1.98535 0)
(10.0441 2.35564 0)
(10.2466 3.12715 0)
(10.0521 3.75378 0)
(10.1939 4.17893 0)
(10.149 4.76449 0)
(10.2234 5.27167 0)
(10.2247 5.68784 0)
(9.83972 6.11658 0)
(9.69236 6.42466 0)
(9.27901 6.49555 0)
(8.85939 6.28269 0)
(8.87881 5.93813 0)
(8.65095 5.80683 0)
(8.84451 5.86889 0)
(8.91086 5.86454 0)
(8.76814 5.76656 0)
(8.85456 5.62773 0)
(8.80777 5.58949 0)
(8.84255 5.49297 0)
(8.97152 5.36789 0)
(8.74736 5.15918 0)
(8.76073 4.73092 0)
(8.44556 4.26025 0)
(8.17197 3.82177 0)
(7.98684 3.26124 0)
(7.6532 2.70942 0)
(7.59267 2.15071 0)
(7.38946 1.67664 0)
(7.22075 1.38633 0)
(7.00021 0.74478 0)
(7.1511 0.437208 0)
(6.80243 0.128869 0)
(7.56918 0.129828 0)
(6.45453 -0.689827 0)
(6.86949 -0.582677 0)
(6.05714 -0.814754 0)
(6.2016 -0.54897 0)
(5.78277 -0.376356 0)
(5.78065 0.452989 0)
(5.24976 0.329984 0)
(5.68994 1.50715 0)
(5.13811 1.56505 0)
(4.83898 2.96457 0)
(6.49155 3.9705 0)
(5.33096 7.10025 0)
(9.59672 4.54961 0)
(7.73457 11.0625 0)
(10.207 -0.152463 0)
(10.2012 -0.249551 0)
(10.2418 -0.287533 0)
(10.2625 -0.263609 0)
(10.3502 -0.233352 0)
(10.3533 -0.175992 0)
(10.4344 -0.144179 0)
(10.3848 -0.0979944 0)
(10.4512 -0.0761071 0)
(10.4117 -0.0552894 0)
(10.4496 -0.0350621 0)
(10.4746 -0.0359425 0)
(10.4694 -0.0196154 0)
(10.5574 -0.0388989 0)
(10.5378 -0.0513412 0)
(10.6305 -0.0708817 0)
(10.6565 -0.115483 0)
(10.6735 -0.131786 0)
(10.7904 -0.19753 0)
(10.7155 -0.227588 0)
(10.8816 -0.278164 0)
(10.7702 -0.336386 0)
(10.8939 -0.344355 0)
(10.8201 -0.406174 0)
(10.8155 -0.373148 0)
(10.8375 -0.387777 0)
(10.6962 -0.334617 0)
(10.7838 -0.25951 0)
(10.6154 -0.196432 0)
(10.6704 -0.0214812 0)
(10.61 0.0516272 0)
(10.5628 0.236215 0)
(10.7021 0.340793 0)
(10.5771 0.452059 0)
(10.8741 0.57107 0)
(10.8217 0.501634 0)
(11.1516 0.542728 0)
(11.2944 0.386775 0)
(11.604 0.0925395 0)
(11.8505 -0.111033 0)
(12.0196 -0.56017 0)
(12.3664 -0.913664 0)
(12.3425 -1.47803 0)
(12.4846 -1.83067 0)
(12.3888 -2.23947 0)
(12.2456 -2.73329 0)
(11.916 -2.80987 0)
(11.3889 -2.83913 0)
(10.8928 -2.72264 0)
(10.3372 -2.59903 0)
(9.99881 -2.11839 0)
(9.32626 -1.73006 0)
(8.89354 -1.45529 0)
(8.58157 -1.05609 0)
(8.51537 -0.714808 0)
(8.45411 -0.208925 0)
(8.49012 0.12533 0)
(8.75857 0.599004 0)
(8.99184 1.18306 0)
(9.05287 1.42988 0)
(8.84741 1.58603 0)
(8.37643 1.61245 0)
(8.01459 1.38679 0)
(7.90283 1.41657 0)
(7.96152 1.6016 0)
(8.31243 1.51939 0)
(8.66727 1.49987 0)
(9.0993 1.5783 0)
(9.58883 1.38838 0)
(9.97864 1.162 0)
(10.4127 0.881868 0)
(10.8533 0.593381 0)
(11.2164 0.178838 0)
(11.6256 -0.390179 0)
(11.8209 -0.928309 0)
(11.9834 -1.39453 0)
(12.3202 -2.01494 0)
(12.3597 -2.68731 0)
(12.8122 -3.10152 0)
(13.0904 -3.67184 0)
(13.317 -4.35312 0)
(13.6344 -4.97751 0)
(13.2231 -5.41268 0)
(12.721 -5.14615 0)
(11.891 -4.65548 0)
(11.1983 -4.0241 0)
(10.709 -3.44329 0)
(10.2755 -2.96439 0)
(9.98867 -2.58789 0)
(9.52511 -2.28154 0)
(9.24709 -1.87743 0)
(8.82132 -1.40149 0)
(8.12866 -0.741116 0)
(7.54954 -0.216321 0)
(6.88627 0.0247058 0)
(6.17791 0.450374 0)
(6.15995 1.38023 0)
(6.54601 2.56579 0)
(7.16578 3.51819 0)
(7.78564 3.98936 0)
(8.27308 4.02868 0)
(8.7771 3.65857 0)
(9.18659 3.168 0)
(9.51195 2.48601 0)
(9.94278 1.61433 0)
(10.1344 0.779707 0)
(10.3942 -0.0125504 0)
(10.7342 -0.948939 0)
(11.0392 -1.83995 0)
(11.235 -2.66206 0)
(11.5405 -3.66543 0)
(11.9822 -4.78454 0)
(11.9452 -5.54714 0)
(11.5868 -5.99461 0)
(11.385 -6.61945 0)
(11.4703 -7.33165 0)
(11.2441 -7.74731 0)
(10.7903 -7.75848 0)
(10.2318 -7.69952 0)
(9.96818 -7.74355 0)
(9.81228 -7.83021 0)
(9.68164 -7.66221 0)
(9.44145 -7.03032 0)
(8.86092 -6.19599 0)
(8.2796 -5.48009 0)
(7.66889 -4.51849 0)
(6.87986 -3.0919 0)
(5.91032 -1.79283 0)
(5.09083 -1.13523 0)
(4.53781 -0.972877 0)
(3.91386 -0.93905 0)
(3.45522 -0.568013 0)
(2.67157 0.0839896 0)
(2.23899 0.668269 0)
(1.7375 0.9103 0)
(1.65633 1.05783 0)
(1.7832 0.659901 0)
(2.38896 0.0883763 0)
(3.28283 -0.718428 0)
(3.92764 -1.40942 0)
(4.83005 -1.94962 0)
(5.33978 -2.34142 0)
(6.16439 -2.57126 0)
(6.41798 -2.67303 0)
(7.17887 -2.4553 0)
(7.22393 -2.43578 0)
(7.81778 -1.8682 0)
(7.99502 -1.62618 0)
(8.39356 -0.870788 0)
(8.45905 -0.294484 0)
(8.99204 0.206116 0)
(8.71435 1.12166 0)
(9.20606 1.70067 0)
(8.74494 2.5935 0)
(9.19023 3.09084 0)
(8.97623 3.65738 0)
(9.07139 4.24744 0)
(9.42808 4.72514 0)
(9.16136 5.24481 0)
(9.40123 5.66208 0)
(9.59019 6.06438 0)
(9.39512 6.53559 0)
(9.26765 6.53184 0)
(8.58224 6.34657 0)
(8.40049 6.22119 0)
(8.22545 6.15097 0)
(8.10409 6.13194 0)
(8.42077 6.11007 0)
(8.44032 6.00809 0)
(8.42222 5.8845 0)
(8.66013 5.76084 0)
(8.61686 5.61297 0)
(8.94561 5.56167 0)
(9.00658 5.27751 0)
(8.94274 4.88975 0)
(9.11644 4.4779 0)
(8.69693 4.01568 0)
(8.89663 3.48552 0)
(8.4602 2.98198 0)
(8.31676 2.52894 0)
(7.93307 1.85835 0)
(8.01538 1.65424 0)
(7.62893 0.864758 0)
(7.73612 0.711814 0)
(7.16707 -0.404075 0)
(7.7684 0.0716101 0)
(7.86663 -0.238638 0)
(7.31626 -0.496901 0)
(7.32672 -0.639549 0)
(6.96413 -0.148501 0)
(7.00578 -0.269974 0)
(6.48007 0.512494 0)
(7.00681 0.601468 0)
(5.40204 1.75087 0)
(7.54413 1.41056 0)
(4.6015 3.87477 0)
(8.7685 1.68535 0)
(5.74445 7.53409 0)
(10.4926 2.67366 0)
(9.05797 9.5536 0)
(11.7303 -0.0693854 0)
(11.7731 -0.241471 0)
(11.868 -0.282902 0)
(11.918 -0.29085 0)
(11.993 -0.24637 0)
(11.9662 -0.186846 0)
(12.0004 -0.165631 0)
(11.952 -0.0991837 0)
(11.9479 -0.102802 0)
(11.9516 -0.0625438 0)
(11.9193 -0.0530365 0)
(11.9774 -0.0642464 0)
(11.9422 -0.025185 0)
(11.9995 -0.0788262 0)
(12.021 -0.0565146 0)
(12.0214 -0.10008 0)
(12.1318 -0.130946 0)
(12.0378 -0.138019 0)
(12.2063 -0.225209 0)
(12.0652 -0.210116 0)
(12.197 -0.301461 0)
(12.1018 -0.305056 0)
(12.103 -0.344725 0)
(12.1151 -0.371173 0)
(11.9566 -0.345574 0)
(12.0622 -0.355147 0)
(11.8289 -0.279386 0)
(11.9297 -0.236603 0)
(11.7944 -0.147864 0)
(11.7548 -0.0313859 0)
(11.8486 0.0632039 0)
(11.6973 0.178087 0)
(11.9656 0.314186 0)
(11.8629 0.374339 0)
(12.1683 0.433517 0)
(12.2285 0.450002 0)
(12.4458 0.33899 0)
(12.7058 0.254126 0)
(12.8211 -0.0617494 0)
(13.1027 -0.257768 0)
(13.1555 -0.66834 0)
(13.3048 -1.05311 0)
(13.2279 -1.37453 0)
(13.098 -1.88218 0)
(12.9429 -2.11109 0)
(12.4697 -2.37806 0)
(12.0382 -2.42763 0)
(11.4788 -2.50792 0)
(10.9587 -2.26479 0)
(10.165 -1.96243 0)
(9.61152 -1.77894 0)
(9.24127 -1.37649 0)
(8.95484 -1.20319 0)
(8.70252 -0.909547 0)
(8.60857 -0.637582 0)
(8.52654 -0.346598 0)
(8.60359 0.0578081 0)
(8.79328 0.426225 0)
(9.08274 0.899298 0)
(9.39543 1.3425 0)
(9.64292 1.55477 0)
(9.6858 1.77807 0)
(9.6876 1.7874 0)
(9.44885 1.62344 0)
(9.21403 1.57231 0)
(9.29753 1.41398 0)
(9.28582 1.28019 0)
(9.45617 1.16746 0)
(9.78882 0.937391 0)
(10.1695 0.747896 0)
(10.5352 0.578517 0)
(10.9137 0.16868 0)
(11.3812 -0.310569 0)
(11.7963 -0.712458 0)
(12.2293 -1.14894 0)
(12.5714 -1.74454 0)
(13.0116 -2.37126 0)
(13.4451 -2.89753 0)
(13.6948 -3.44668 0)
(14.078 -3.96357 0)
(14.1694 -4.60369 0)
(14.1909 -4.87013 0)
(13.6305 -4.8696 0)
(12.8175 -4.69274 0)
(12.3569 -4.08195 0)
(11.6988 -3.58776 0)
(11.2902 -3.14263 0)
(11.0251 -2.59325 0)
(10.7029 -2.26251 0)
(10.2631 -1.88975 0)
(9.74216 -1.38989 0)
(9.28459 -0.965244 0)
(8.8068 -0.37975 0)
(8.33551 0.230153 0)
(7.70584 0.625172 0)
(6.89593 0.875155 0)
(6.46775 1.38103 0)
(6.56545 2.20201 0)
(7.05974 2.97313 0)
(7.63298 3.46381 0)
(8.25271 3.54137 0)
(8.80925 3.24977 0)
(9.19067 2.76909 0)
(9.66662 2.0596 0)
(10.0535 1.27733 0)
(10.3025 0.551657 0)
(10.6468 -0.287711 0)
(10.9794 -1.16995 0)
(11.153 -1.96822 0)
(11.3843 -2.86734 0)
(11.6853 -3.95458 0)
(11.7969 -4.80991 0)
(11.358 -5.29117 0)
(11.0775 -5.85307 0)
(11.0935 -6.65232 0)
(10.9899 -7.19686 0)
(10.4898 -7.28326 0)
(9.84313 -7.25839 0)
(9.43897 -7.39018 0)
(9.24257 -7.60532 0)
(9.02797 -7.71062 0)
(8.74616 -7.35789 0)
(8.27429 -6.55208 0)
(7.51495 -5.65177 0)
(6.67701 -4.76095 0)
(5.77427 -3.66323 0)
(4.87247 -2.28829 0)
(4.00215 -1.17064 0)
(3.46758 -0.715477 0)
(3.06502 -0.622713 0)
(2.44173 -0.406796 0)
(1.65133 0.126415 0)
(0.843553 0.669142 0)
(0.325409 1.06723 0)
(0.0729682 1.10013 0)
(0.316836 0.77749 0)
(1.01956 0.0892786 0)
(1.74964 -0.696688 0)
(2.55966 -1.4164 0)
(3.21987 -2.04364 0)
(3.89934 -2.55298 0)
(4.38063 -2.87575 0)
(5.09103 -3.02568 0)
(5.24484 -3.02797 0)
(6.18107 -2.81692 0)
(5.779 -2.73039 0)
(7.05574 -2.15342 0)
(6.46427 -1.88748 0)
(7.45669 -1.09811 0)
(7.42327 -0.586713 0)
(7.55639 0.126093 0)
(7.91064 0.928771 0)
(7.52415 1.89351 0)
(7.99983 2.2219 0)
(7.59554 3.24704 0)
(8.11256 3.69119 0)
(7.60958 3.98109 0)
(8.3367 4.6802 0)
(8.47274 5.3017 0)
(8.44072 5.71457 0)
(8.60547 6.10407 0)
(8.80994 6.69295 0)
(8.81877 7.0382 0)
(8.51711 6.731 0)
(8.24437 6.19251 0)
(8.17531 5.88249 0)
(7.9778 5.71422 0)
(8.11334 5.67264 0)
(8.31615 5.71936 0)
(8.31196 5.56872 0)
(8.6606 5.4338 0)
(8.64344 5.31627 0)
(8.69758 5.21061 0)
(9.09474 5.11828 0)
(8.81127 4.80376 0)
(9.15226 4.45986 0)
(9.00895 3.98892 0)