/*--------------------------------*- C++ -*----------------------------------*\
| =========                 |                                                 |
| \\      /  F ield         | OpenFOAM: The Open Source CFD Toolbox           |
|  \\    /   O peration     | Version:  2.4.0                                 |
|   \\  /    A nd           | Web:      www.OpenFOAM.org                      |
|    \\/     M anipulation  |                                                 |
\*---------------------------------------------------------------------------*/
FoamFile
{
    version     2.0;
    format      ascii;
    class       volVectorField;
    location    "0.69";
    object      UMean;
}
// * * * * * * * * * * * * * * * * * * * * * * * * * * * * * * * * * * * * * //

dimensions      [0 1 -1 0 0 0 0];

internalField   nonuniform List<vector> 
8800
(
(8.09379 0.386707 0)
(5.46443 0.242393 0)
(3.93617 0.0430972 0)
(3.17565 -0.0150982 0)
(2.83278 -0.0183373 0)
(2.61736 -0.010807 0)
(2.52451 -0.00590088 0)
(2.40108 -0.00188336 0)
(2.36759 -0.00188119 0)
(2.27255 -2.41056e-05 0)
(2.27212 -0.00116844 0)
(2.1892 0.000618311 0)
(2.20498 -0.00073915 0)
(2.1225 0.00126263 0)
(2.14323 -0.000417592 0)
(2.05779 0.00199307 0)
(2.07604 -0.000330556 0)
(1.98388 0.00205489 0)
(2.01833 0.00520039 0)
(1.77214 -0.0509798 0)
(10.0842 0.83504 0)
(9.65308 0.864634 0)
(8.89698 0.504432 0)
(8.07781 0.26077 0)
(7.53459 0.136528 0)
(6.99999 0.0816631 0)
(6.75728 0.0521545 0)
(6.39225 0.0404889 0)
(6.30684 0.0276071 0)
(6.01805 0.0248502 0)
(6.02757 0.0163171 0)
(5.7732 0.0188556 0)
(5.83682 0.0122805 0)
(5.59166 0.0182189 0)
(5.68074 0.0118525 0)
(5.43432 0.0194859 0)
(5.52968 0.0160555 0)
(5.27077 0.0161575 0)
(5.38507 0.0305392 0)
(5.05396 -0.0370413 0)
(10.0764 0.629101 0)
(10.6322 0.859857 0)
(10.9046 0.597749 0)
(10.6507 0.371639 0)
(10.508 0.253019 0)
(10.0358 0.195155 0)
(9.90837 0.149574 0)
(9.43918 0.121773 0)
(9.41089 0.0896397 0)
(8.9761 0.0763714 0)
(9.04814 0.0540429 0)
(8.6397 0.0536612 0)
(8.78595 0.0375042 0)
(8.38398 0.045473 0)
(8.57727 0.0318432 0)
(8.16752 0.0443563 0)
(8.38619 0.035993 0)
(7.95391 0.0456487 0)
(8.18734 0.0480178 0)
(7.72733 -0.0200173 0)
(10.0478 0.455962 0)
(10.5067 0.702069 0)
(11.237 0.542359 0)
(11.293 0.350637 0)
(11.6359 0.258883 0)
(11.3627 0.226245 0)
(11.5843 0.195728 0)
(11.1909 0.175021 0)
(11.4082 0.141296 0)
(10.9614 0.12618 0)
(11.2126 0.0974261 0)
(10.7379 0.0949078 0)
(11.0302 0.071929 0)
(10.5318 0.080374 0)
(10.8598 0.0590739 0)
(10.3368 0.0775783 0)
(10.689 0.0557526 0)
(10.1373 0.0890552 0)
(10.4848 0.0555855 0)
(9.90352 0.0976638 0)
(10.1506 0.34666 0)
(10.288 0.563937 0)
(11.1621 0.457845 0)
(11.1808 0.293171 0)
(11.7748 0.205893 0)
(11.5412 0.192497 0)
(12.0046 0.173313 0)
(11.6819 0.170429 0)
(12.1141 0.137654 0)
(11.7467 0.135538 0)
(12.1701 0.100836 0)
(11.7709 0.111472 0)
(12.189 0.0778742 0)
(11.763 0.102854 0)
(12.1741 0.0652428 0)
(11.7255 0.106059 0)
(12.1231 0.0597066 0)
(11.6552 0.124069 0)
(12.0149 0.0564269 0)
(11.5021 0.145291 0)
(10.1735 0.251696 0)
(10.2094 0.453304 0)
(11.0021 0.37279 0)
(11.0825 0.247791 0)
(11.6225 0.156874 0)
(11.5103 0.152663 0)
(11.8907 0.13597 0)
(11.7299 0.144521 0)
(12.0646 0.111119 0)
(11.9031 0.117494 0)
(12.2138 0.0814985 0)
(12.0547 0.0977259 0)
(12.3418 0.0645685 0)
(12.1821 0.0919015 0)
(12.4443 0.0586264 0)
(12.2834 0.096088 0)
(12.5162 0.0607583 0)
(12.3517 0.107989 0)
(12.5357 0.0597362 0)
(12.3023 0.0726306 0)
(10.0481 0.170796 0)
(10.2761 0.356049 0)
(10.7693 0.282262 0)
(11.1017 0.208501 0)
(11.3929 0.111282 0)
(11.5468 0.120202 0)
(11.6681 0.096872 0)
(11.7657 0.120638 0)
(11.8418 0.0791403 0)
(11.9446 0.0992448 0)
(12.0026 0.0546908 0)
(12.1119 0.0830812 0)
(12.1522 0.0410811 0)
(12.2622 0.0790964 0)
(12.2864 0.0370483 0)
(12.3957 0.0838152 0)
(12.4013 0.0388808 0)
(12.5044 0.0905648 0)
(12.4717 0.0277586 0)
(12.4831 0.0370073 0)
(9.93398 0.109507 0)
(10.3351 0.256489 0)
(10.5976 0.196854 0)
(11.11 0.157416 0)
(11.2273 0.0743606 0)
(11.563 0.0856495 0)
(11.5141 0.0647902 0)
(11.7729 0.0900573 0)
(11.685 0.0537529 0)
(11.9438 0.0742686 0)
(11.847 0.0352401 0)
(12.1066 0.0620671 0)
(11.9994 0.0255303 0)
(12.255 0.059174 0)
(12.138 0.022483 0)
(12.3879 0.0622712 0)
(12.2587 0.0219406 0)
(12.4969 0.0622812 0)
(12.3316 0.00486792 0)
(12.4651 0.0122007 0)
(9.866 0.058274 0)
(10.3682 0.158763 0)
(10.49 0.113805 0)
(11.1085 0.101505 0)
(11.1245 0.0395508 0)
(11.5669 0.0565514 0)
(11.4209 0.0337428 0)
(11.7709 0.0611257 0)
(11.5883 0.0278096 0)
(11.9368 0.051527 0)
(11.7498 0.0157119 0)
(12.098 0.0438925 0)
(11.9035 0.00961884 0)
(12.2483 0.0418013 0)
(12.0435 0.00646101 0)
(12.3834 0.0421737 0)
(12.1659 0.00288875 0)
(12.4951 0.0367116 0)
(12.2366 -0.0156807 0)
(12.459 -0.00555334 0)
(9.86324 0.0145732 0)
(10.3564 0.060705 0)
(10.4695 0.0321895 0)
(11.0842 0.0413705 0)
(11.1118 0.00678607 0)
(11.5486 0.0260683 0)
(11.4176 0.00436083 0)
(11.7523 0.0287421 0)
(11.5869 0.00235604 0)
(11.9191 0.025362 0)
(11.7525 -0.00254203 0)
(12.0837 0.0223558 0)
(11.911 -0.00548191 0)
(12.2394 0.0204701 0)
(12.0558 -0.00888681 0)
(12.3788 0.0176618 0)
(12.1828 -0.0151612 0)
(12.4946 0.00817335 0)
(12.2568 -0.0328169 0)
(12.4582 -0.0242975 0)
(9.91085 -0.0277781 0)
(10.3117 -0.0374002 0)
(10.5211 -0.0512453 0)
(11.0452 -0.019989 0)
(11.1669 -0.0268891 0)
(11.5136 -0.00463029 0)
(11.4761 -0.0255037 0)
(11.7205 -0.00471563 0)
(11.6504 -0.0240184 0)
(11.8912 -0.00140249 0)
(11.8206 -0.0213967 0)
(12.059 0.000532284 0)
(11.9834 -0.0213495 0)
(12.2159 -0.00117788 0)
(12.1315 -0.0250437 0)
(12.3559 -0.00679854 0)
(12.2617 -0.0336297 0)
(12.4708 -0.0195405 0)
(12.3373 -0.0497698 0)
(12.4306 -0.0415832 0)
(9.96629 -0.0709357 0)
(10.2712 -0.138486 0)
(10.5966 -0.132304 0)
(11.02 -0.0829302 0)
(11.2403 -0.0581682 0)
(11.4846 -0.0377144 0)
(11.5459 -0.0530209 0)
(11.6931 -0.0404604 0)
(11.723 -0.0476217 0)
(11.8652 -0.0305419 0)
(11.8938 -0.0378026 0)
(12.0325 -0.0237128 0)
(12.0563 -0.0345268 0)
(12.1869 -0.0247081 0)
(12.203 -0.0387033 0)
(12.3247 -0.0328945 0)
(12.3315 -0.0501375 0)
(12.4361 -0.0490398 0)
(12.4046 -0.0662978 0)
(12.3931 -0.0591997 0)
(9.9954 -0.120797 0)
(10.2685 -0.240522 0)
(10.6678 -0.213749 0)
(11.0412 -0.143171 0)
(11.3081 -0.0907429 0)
(11.4942 -0.0709133 0)
(11.6042 -0.0817717 0)
(11.7027 -0.0743599 0)
(11.7822 -0.0713909 0)
(11.8752 -0.058078 0)
(11.9511 -0.0552188 0)
(12.041 -0.0465486 0)
(12.1112 -0.0486931 0)
(12.1935 -0.0461438 0)
(12.2555 -0.053392 0)
(12.3295 -0.0560622 0)
(12.3818 -0.0684076 0)
(12.4398 -0.0760646 0)
(12.4556 -0.0881049 0)
(12.4011 -0.074965 0)
(10.0181 -0.179932 0)
(10.2896 -0.344364 0)
(10.7569 -0.29573 0)
(11.1014 -0.197729 0)
(11.3921 -0.124498 0)
(11.5405 -0.108758 0)
(11.6759 -0.110428 0)
(11.7522 -0.109144 0)
(11.8563 -0.0939254 0)
(11.928 -0.0871928 0)
(12.0237 -0.0718258 0)
(12.0938 -0.071739 0)
(12.1806 -0.0619938 0)
(12.2449 -0.0699588 0)
(12.3207 -0.0661281 0)
(12.3781 -0.0809061 0)
(12.4407 -0.0839523 0)
(12.4837 -0.105675 0)
(12.5095 -0.110178 0)
(12.4478 -0.103249 0)
(10.0534 -0.255629 0)
(10.3144 -0.448016 0)
(10.8939 -0.379987 0)
(11.1745 -0.242813 0)
(11.5211 -0.163834 0)
(11.5959 -0.1474 0)
(11.7931 -0.142739 0)
(11.8089 -0.140002 0)
(11.9701 -0.119191 0)
(11.9786 -0.112828 0)
(12.1223 -0.0912138 0)
(12.1277 -0.0944789 0)
(12.2533 -0.0775246 0)
(12.2525 -0.0915874 0)
(12.3566 -0.0785876 0)
(12.3484 -0.102698 0)
(12.425 -0.0951192 0)
(12.4027 -0.131934 0)
(12.4272 -0.126324 0)
(12.3143 -0.140884 0)
(10.0485 -0.349578 0)
(10.3916 -0.559941 0)
(11.047 -0.462492 0)
(11.2922 -0.289139 0)
(11.6525 -0.21096 0)
(11.6561 -0.188059 0)
(11.8739 -0.178477 0)
(11.8005 -0.166152 0)
(11.9743 -0.144738 0)
(11.8695 -0.130592 0)
(12.0205 -0.110017 0)
(11.8967 -0.107089 0)
(12.0281 -0.0910373 0)
(11.8889 -0.100089 0)
(11.9966 -0.0861845 0)
(11.8447 -0.107825 0)
(11.9184 -0.0965068 0)
(11.7513 -0.137441 0)
(11.7579 -0.126436 0)
(11.5258 -0.162726 0)
(10.002 -0.458074 0)
(10.5583 -0.699551 0)
(11.1682 -0.544437 0)
(11.3626 -0.348879 0)
(11.5559 -0.261722 0)
(11.4419 -0.22433 0)
(11.4921 -0.19856 0)
(11.2794 -0.173142 0)
(11.3024 -0.145351 0)
(11.0575 -0.124129 0)
(11.0926 -0.102546 0)
(10.8389 -0.0941279 0)
(10.8932 -0.0790735 0)
(10.6327 -0.0827611 0)
(10.6981 -0.0700692 0)
(10.4275 -0.0873405 0)
(10.4863 -0.0747075 0)
(10.1967 -0.115827 0)
(10.2032 -0.0972813 0)
(9.86473 -0.159548 0)
(10.0571 -0.63126 0)
(10.6535 -0.857477 0)
(10.867 -0.598865 0)
(10.689 -0.370481 0)
(10.4611 -0.255071 0)
(10.0831 -0.193851 0)
(9.85046 -0.151801 0)
(9.49395 -0.120074 0)
(9.34201 -0.0928428 0)
(9.03561 -0.0743708 0)
(8.96895 -0.0581959 0)
(8.69966 -0.0522083 0)
(8.69477 -0.0434632 0)
(8.43719 -0.0458179 0)
(8.4675 -0.0407252 0)
(8.20074 -0.050298 0)
(8.24031 -0.0486497 0)
(7.94301 -0.0700788 0)
(7.94558 -0.0720361 0)
(7.59527 -0.0899191 0)
(10.078 -0.836142 0)
(9.65813 -0.863243 0)
(8.88034 -0.504788 0)
(8.09644 -0.260211 0)
(7.51101 -0.137725 0)
(7.02446 -0.081082 0)
(6.72507 -0.0532757 0)
(6.42125 -0.0395923 0)
(6.26765 -0.0292116 0)
(6.04878 -0.0238465 0)
(5.98221 -0.0183316 0)
(5.80151 -0.0182218 0)
(5.7843 -0.0151745 0)
(5.61 -0.0185095 0)
(5.6161 -0.0163103 0)
(5.42837 -0.0229581 0)
(5.43786 -0.0223175 0)
(5.21421 -0.0329911 0)
(5.20361 -0.039101 0)
(4.90259 -0.0213248 0)
(8.09238 -0.387017 0)
(5.46333 -0.241961 0)
(3.93294 -0.0433255 0)
(3.18149 0.0151736 0)
(2.82642 0.0180139 0)
(2.6243 0.0110393 0)
(2.51405 0.00561149 0)
(2.40933 0.00223533 0)
(2.35468 0.00147754 0)
(2.28087 0.000397474 0)
(2.25653 0.000704964 0)
(2.19574 -0.000294315 0)
(2.18555 0.000184313 0)
(2.12296 -0.00111375 0)
(2.11626 -0.000353569 0)
(2.04361 -0.00230585 0)
(2.03104 -0.00118748 0)
(1.93877 -0.0039016 0)
(1.9008 -0.00458941 0)
(1.74452 0.0117143 0)
(2.23383 -0.0867715 0)
(2.32355 0.00471375 0)
(2.59777 0.00483448 0)
(2.75033 -0.0177923 0)
(3.00008 -0.0448868 0)
(3.09528 -0.0544667 0)
(3.293 -0.0625658 0)
(3.33377 -0.0570974 0)
(3.49221 -0.0655911 0)
(3.51084 -0.0701765 0)
(3.66455 -0.0831052 0)
(3.67477 -0.0889055 0)
(3.83285 -0.103793 0)
(3.83981 -0.109937 0)
(3.99819 -0.124905 0)
(4.00236 -0.131527 0)
(4.16738 -0.145683 0)
(4.17342 -0.151797 0)
(4.35843 -0.165388 0)
(4.37205 -0.169504 0)
(4.56806 -0.188718 0)
(4.57746 -0.200993 0)
(4.77257 -0.225516 0)
(4.7696 -0.240835 0)
(4.96017 -0.267095 0)
(4.94192 -0.28174 0)
(5.12904 -0.305191 0)
(5.09888 -0.313318 0)
(5.28913 -0.330084 0)
(5.25999 -0.334947 0)
(5.46329 -0.355325 0)
(5.44587 -0.36637 0)
(5.66216 -0.394679 0)
(5.64926 -0.411597 0)
(5.86537 -0.44297 0)
(5.84576 -0.460409 0)
(6.05665 -0.491064 0)
(6.02796 -0.505848 0)
(6.23571 -0.536732 0)
(6.19809 -0.550872 0)
(6.40526 -0.58161 0)
(6.35547 -0.594751 0)
(6.56415 -0.626623 0)
(6.49939 -0.640057 0)
(6.71053 -0.671751 0)
(6.63082 -0.683316 0)
(6.84647 -0.713945 0)
(6.75863 -0.721119 0)
(6.97708 -0.750315 0)
(6.88968 -0.751723 0)
(7.10668 -0.779187 0)
(7.0268 -0.775478 0)
(7.24109 -0.802175 0)
(7.16892 -0.797395 0)
(7.38172 -0.826622 0)
(7.30858 -0.824578 0)
(7.52225 -0.857615 0)
(7.43721 -0.85672 0)
(7.65399 -0.889025 0)
(7.54989 -0.885817 0)
(7.77523 -0.917543 0)
(7.6596 -0.912529 0)
(7.89595 -0.946061 0)
(7.78416 -0.940876 0)
(8.02523 -0.976722 0)
(7.92321 -0.973879 0)
(8.15086 -1.0112 0)
(8.045 -1.01056 0)
(8.25311 -1.04348 0)
(8.13951 -1.04071 0)
(8.33565 -1.07319 0)
(8.22035 -1.06504 0)
(8.39919 -1.09365 0)
(8.28695 -1.07925 0)
(8.45597 -1.10603 0)
(8.35284 -1.08665 0)
(8.51676 -1.10877 0)
(8.42565 -1.08685 0)
(8.59401 -1.10702 0)
(8.50727 -1.07915 0)
(8.69164 -1.09626 0)
(8.59345 -1.0596 0)
(8.79787 -1.06634 0)
(8.67503 -1.02622 0)
(8.89802 -1.02739 0)
(8.76315 -0.982559 0)
(8.97526 -0.991593 0)
(8.86299 -0.947039 0)
(9.03725 -0.961872 0)
(8.95224 -0.919548 0)
(9.08893 -0.932574 0)
(9.01807 -0.887256 0)
(9.11943 -0.895366 0)
(9.04801 -0.851157 0)
(9.12896 -0.858722 0)
(9.05966 -0.813356 0)
(9.12463 -0.822145 0)
(9.05572 -0.780656 0)
(9.11283 -0.79428 0)
(9.06146 -0.760884 0)
(9.11867 -0.779415 0)
(9.08664 -0.746729 0)
(9.15269 -0.772318 0)
(9.13299 -0.734502 0)
(9.20335 -0.752456 0)
(9.18023 -0.702257 0)
(9.25238 -0.727087 0)
(9.20557 -0.676656 0)
(9.28321 -0.708077 0)
(9.20446 -0.646473 0)
(9.27964 -0.680422 0)
(9.17378 -0.614054 0)
(9.2268 -0.649258 0)
(9.10814 -0.573493 0)
(9.13958 -0.609621 0)
(9.04813 -0.527084 0)
(9.06676 -0.562564 0)
(9.00356 -0.471235 0)
(8.99647 -0.500882 0)
(8.93713 -0.400134 0)
(8.92074 -0.427009 0)
(8.87441 -0.330076 0)
(8.87133 -0.367619 0)
(8.83401 -0.275462 0)
(8.84447 -0.324288 0)
(8.79733 -0.235778 0)
(8.84488 -0.287998 0)
(8.76378 -0.198062 0)
(8.85539 -0.248129 0)
(8.73949 -0.157602 0)
(8.86104 -0.20526 0)
(8.72768 -0.11433 0)
(8.85364 -0.16249 0)
(8.71852 -0.0707152 0)
(8.83544 -0.124689 0)
(8.71056 -0.0343376 0)
(8.81439 -0.0864678 0)
(8.69764 0.00929108 0)
(8.7914 -0.0411729 0)
(8.68005 0.0539156 0)
(8.76165 0.00406917 0)
(8.64408 0.100098 0)
(8.71907 0.0603781 0)
(8.60156 0.152597 0)
(8.67291 0.1126 0)
(8.57483 0.19565 0)
(8.61413 0.166615 0)
(8.55058 0.250339 0)
(8.54451 0.216542 0)
(8.52853 0.296405 0)
(8.48138 0.258903 0)
(8.49654 0.338549 0)
(8.4249 0.309824 0)
(8.46192 0.384403 0)
(8.36896 0.35145 0)
(8.42857 0.432904 0)
(8.3227 0.40542 0)
(8.38399 0.482165 0)
(8.29071 0.459772 0)
(8.35246 0.535182 0)
(8.27804 0.492459 0)
(8.32149 0.57362 0)
(8.27651 0.530951 0)
(8.26832 0.623933 0)
(8.26281 0.580697 0)
(8.19521 0.675406 0)
(8.25077 0.627754 0)
(8.12069 0.723331 0)
(8.21559 0.669239 0)
(8.01738 0.778475 0)
(8.16492 0.716638 0)
(7.8635 0.834279 0)
(8.07551 0.763817 0)
(7.69422 0.907349 0)
(7.9704 0.810255 0)
(7.53311 1.01078 0)
(7.88372 0.880207 0)
(7.37074 1.12695 0)
(7.82079 0.968406 0)
(7.24211 1.27495 0)
(7.7408 1.06772 0)
(7.13815 1.43745 0)
(7.64367 1.18546 0)
(7.04308 1.61425 0)
(7.52122 1.3425 0)
(6.95146 1.80659 0)
(7.37564 1.55445 0)
(6.81657 2.0149 0)
(7.22049 1.82909 0)
(6.63036 2.26007 0)
(7.06106 2.15804 0)
(6.38143 2.56756 0)
(6.83809 2.56295 0)
(6.11271 3.01253 0)
(6.50029 3.06845 0)
(5.8744 3.76479 0)
(6.06917 3.82656 0)
(5.33868 4.95018 0)
(6.25406 5.52363 0)
(3.99328 8.42416 0)
(5.29446 -0.0566344 0)
(5.22485 -0.0218702 0)
(5.34199 -0.0395472 0)
(5.35017 -0.0763494 0)
(5.54265 -0.114558 0)
(5.55954 -0.126978 0)
(5.73118 -0.133795 0)
(5.70368 -0.126593 0)
(5.8439 -0.129824 0)
(5.78973 -0.12996 0)
(5.93034 -0.143135 0)
(5.8736 -0.149907 0)
(6.02923 -0.166892 0)
(5.97587 -0.173931 0)
(6.14529 -0.189825 0)
(6.09191 -0.19583 0)
(6.273 -0.211609 0)
(6.21758 -0.217014 0)
(6.40926 -0.234626 0)
(6.35358 -0.241102 0)
(6.55447 -0.262096 0)
(6.49599 -0.273125 0)
(6.70015 -0.297747 0)
(6.63278 -0.31012 0)
(6.83892 -0.335486 0)
(6.76169 -0.346594 0)
(6.97192 -0.369723 0)
(6.8872 -0.377055 0)
(7.10385 -0.398327 0)
(7.01546 -0.404835 0)
(7.24266 -0.42902 0)
(7.15416 -0.439167 0)
(7.39192 -0.469421 0)
(7.30003 -0.482941 0)
(7.54144 -0.51595 0)
(7.44024 -0.527858 0)
(7.68011 -0.560189 0)
(7.56786 -0.568862 0)
(7.80534 -0.600862 0)
(7.68298 -0.608356 0)
(7.92054 -0.641031 0)
(7.79018 -0.647988 0)
(8.02982 -0.681473 0)
(7.89372 -0.687883 0)
(8.1358 -0.721726 0)
(7.99642 -0.726665 0)
(8.23868 -0.760775 0)
(8.09848 -0.763451 0)
(8.33833 -0.796724 0)
(8.19827 -0.7961 0)
(8.43629 -0.826925 0)
(8.29373 -0.822579 0)
(8.53288 -0.851978 0)
(8.38355 -0.845308 0)
(8.62789 -0.875471 0)
(8.46794 -0.869071 0)
(8.71944 -0.901924 0)
(8.54743 -0.897695 0)
(8.80715 -0.932235 0)
(8.6265 -0.928447 0)
(8.89257 -0.963789 0)
(8.70652 -0.959509 0)
(8.97441 -0.995458 0)
(8.78595 -0.990018 0)
(9.04902 -1.02566 0)
(8.86503 -1.01787 0)
(9.11394 -1.05075 0)
(8.93646 -1.04258 0)
(9.1705 -1.07676 0)
(8.99836 -1.07044 0)
(9.21838 -1.09992 0)
(9.04451 -1.08741 0)
(9.25589 -1.1144 0)
(9.08172 -1.09876 0)
(9.28631 -1.12733 0)
(9.11608 -1.10596 0)
(9.31594 -1.13431 0)
(9.15216 -1.1082 0)
(9.34892 -1.13485 0)
(9.18769 -1.1046 0)
(9.39138 -1.12603 0)
(9.22451 -1.08526 0)
(9.43477 -1.10051 0)
(9.26891 -1.04892 0)
(9.46793 -1.05838 0)
(9.31987 -1.00459 0)
(9.49369 -1.01833 0)
(9.37293 -0.96687 0)
(9.50963 -0.983414 0)
(9.4126 -0.935906 0)
(9.51893 -0.947555 0)
(9.43381 -0.895003 0)
(9.50977 -0.903072 0)
(9.42784 -0.851407 0)
(9.4812 -0.858406 0)
(9.40248 -0.806401 0)
(9.44522 -0.816546 0)
(9.37052 -0.771944 0)
(9.42042 -0.792017 0)
(9.35178 -0.757442 0)
(9.41245 -0.788037 0)
(9.35115 -0.75411 0)
(9.42722 -0.793455 0)
(9.3571 -0.747701 0)
(9.45339 -0.771529 0)
(9.36694 -0.716011 0)
(9.47669 -0.73709 0)
(9.36877 -0.678301 0)
(9.47075 -0.706343 0)
(9.34306 -0.637945 0)
(9.43032 -0.662015 0)
(9.28745 -0.584335 0)
(9.35182 -0.609369 0)
(9.20149 -0.535686 0)
(9.26468 -0.572938 0)
(9.13018 -0.501273 0)
(9.18391 -0.533343 0)
(9.06266 -0.444502 0)
(9.10553 -0.465607 0)
(8.98353 -0.372536 0)
(9.04148 -0.398863 0)
(8.9121 -0.31334 0)
(9.00546 -0.351885 0)
(8.86353 -0.26371 0)
(8.99502 -0.316587 0)
(8.82341 -0.222272 0)
(8.99932 -0.287251 0)
(8.78442 -0.18481 0)
(9.00025 -0.245163 0)
(8.74783 -0.142386 0)
(8.98839 -0.206161 0)
(8.7164 -0.0997387 0)
(8.96704 -0.164343 0)
(8.68485 -0.0559452 0)
(8.94145 -0.122098 0)
(8.64531 -0.0179603 0)
(8.91277 -0.0818461 0)
(8.60563 0.0204066 0)
(8.88336 -0.0361241 0)
(8.57222 0.0627907 0)
(8.85514 0.015414 0)
(8.52448 0.118898 0)
(8.8095 0.0772464 0)
(8.475 0.176069 0)
(8.76077 0.123553 0)
(8.43663 0.224669 0)
(8.71035 0.177382 0)
(8.40452 0.274703 0)
(8.67559 0.224105 0)
(8.39143 0.314869 0)
(8.6347 0.262807 0)
(8.38001 0.357226 0)
(8.58776 0.306981 0)
(8.3683 0.403139 0)
(8.54648 0.347675 0)
(8.34732 0.45617 0)
(8.52111 0.395654 0)
(8.31543 0.507918 0)
(8.51978 0.439105 0)
(8.29466 0.563938 0)
(8.53594 0.469497 0)
(8.2587 0.614002 0)
(8.53834 0.515587 0)
(8.22163 0.6649 0)
(8.53223 0.556167 0)
(8.20032 0.712029 0)
(8.51952 0.592661 0)
(8.16763 0.782075 0)
(8.48026 0.64395 0)
(8.09574 0.861255 0)
(8.42856 0.699453 0)
(7.99708 0.946707 0)
(8.35061 0.743825 0)
(7.86865 1.02662 0)
(8.26411 0.785234 0)
(7.72407 1.11086 0)
(8.20608 0.844674 0)
(7.59867 1.22855 0)
(8.15668 0.928088 0)
(7.49962 1.37204 0)
(8.10516 1.03927 0)
(7.40506 1.51941 0)
(8.04731 1.18426 0)
(7.30011 1.67273 0)
(7.99406 1.37214 0)
(7.17888 1.84744 0)
(7.95048 1.60079 0)
(7.03489 2.06687 0)
(7.87869 1.86012 0)
(6.89852 2.36767 0)
(7.74719 2.15558 0)
(6.8036 2.76935 0)
(7.52023 2.51253 0)
(6.70797 3.31126 0)
(7.2464 3.02605 0)
(6.48559 4.04268 0)
(7.29886 3.92272 0)
(5.86494 5.30464 0)
(8.35285 4.84221 0)
(6.37006 8.93858 0)
(7.95318 -0.087615 0)
(7.8568 -0.0885462 0)
(7.98157 -0.112325 0)
(7.93961 -0.129324 0)
(8.13082 -0.148325 0)
(8.09646 -0.146701 0)
(8.26362 -0.149733 0)
(8.17834 -0.140559 0)
(8.31313 -0.145904 0)
(8.20109 -0.145115 0)
(8.33925 -0.161499 0)
(8.22913 -0.169067 0)
(8.38547 -0.191063 0)
(8.2811 -0.200181 0)
(8.45297 -0.22217 0)
(8.35018 -0.229328 0)
(8.53313 -0.250103 0)
(8.42791 -0.255491 0)
(8.61747 -0.276519 0)
(8.50822 -0.282543 0)
(8.70307 -0.306181 0)
(8.58995 -0.314896 0)
(8.78935 -0.341216 0)
(8.67122 -0.350915 0)
(8.87501 -0.377817 0)
(8.75216 -0.386379 0)
(8.96105 -0.411913 0)
(8.8343 -0.418124 0)
(9.04851 -0.442626 0)
(8.91661 -0.448215 0)
(9.13621 -0.474787 0)
(8.99823 -0.483039 0)
(9.22321 -0.514055 0)
(9.07635 -0.524886 0)
(9.30489 -0.55837 0)
(9.1467 -0.568179 0)
(9.37844 -0.60086 0)
(9.21021 -0.607451 0)
(9.44523 -0.638945 0)
(9.27018 -0.643069 0)
(9.50823 -0.675188 0)
(9.33209 -0.678408 0)
(9.57101 -0.712697 0)
(9.39736 -0.715739 0)
(9.6337 -0.751871 0)
(9.46316 -0.754404 0)
(9.69412 -0.790934 0)
(9.52341 -0.791722 0)
(9.74964 -0.826706 0)
(9.57411 -0.824478 0)
(9.79994 -0.856898 0)
(9.61509 -0.85092 0)
(9.84586 -0.881328 0)
(9.64915 -0.872513 0)
(9.8883 -0.903822 0)
(9.68206 -0.89456 0)
(9.92944 -0.93007 0)
(9.71965 -0.922481 0)
(9.96961 -0.962381 0)
(9.76263 -0.954566 0)
(10.006 -0.993234 0)
(9.80331 -0.983019 0)
(10.0321 -1.01821 0)
(9.83082 -1.00695 0)
(10.0438 -1.03962 0)
(9.84128 -1.02744 0)
(10.0447 -1.06105 0)
(9.84618 -1.05122 0)
(10.0492 -1.08821 0)
(9.84989 -1.07784 0)
(10.0477 -1.11129 0)
(9.84482 -1.0943 0)
(10.0423 -1.12227 0)
(9.83316 -1.10351 0)
(10.0329 -1.13217 0)
(9.81492 -1.109 0)
(10.0158 -1.13782 0)
(9.79353 -1.10876 0)
(9.99626 -1.13989 0)
(9.77801 -1.10704 0)
(9.98165 -1.13317 0)
(9.77036 -1.08961 0)
(9.97112 -1.10897 0)
(9.77179 -1.05062 0)
(9.95696 -1.06495 0)
(9.7807 -1.00676 0)
(9.93925 -1.01959 0)
(9.78074 -0.964863 0)
(9.91331 -0.981643 0)
(9.77056 -0.93056 0)
(9.87729 -0.940085 0)
(9.74635 -0.88373 0)
(9.82255 -0.891832 0)
(9.70447 -0.834992 0)
(9.7563 -0.842115 0)
(9.65542 -0.787989 0)
(9.68697 -0.802249 0)
(9.6062 -0.75829 0)
(9.64191 -0.785655 0)
(9.57219 -0.750218 0)
(9.61793 -0.791048 0)
(9.55179 -0.754845 0)
(9.60375 -0.801946 0)
(9.52786 -0.748017 0)
(9.5932 -0.779219 0)
(9.50848 -0.712251 0)
(9.57492 -0.739491 0)
(9.48589 -0.66353 0)
(9.53068 -0.691798 0)
(9.43847 -0.607112 0)
(9.44784 -0.63334 0)
(9.36088 -0.54069 0)
(9.34512 -0.572873 0)
(9.29359 -0.499507 0)
(9.26602 -0.541221 0)
(9.22203 -0.461564 0)
(9.16641 -0.494103 0)
(9.1254 -0.403674 0)
(9.06693 -0.432008 0)
(9.03965 -0.33837 0)
(8.99963 -0.379202 0)
(8.97377 -0.286564 0)
(8.95905 -0.3448 0)
(8.92111 -0.245494 0)
(8.93507 -0.313656 0)
(8.87849 -0.203222 0)
(8.91268 -0.281444 0)
(8.83343 -0.159627 0)
(8.88052 -0.24369 0)
(8.79016 -0.111034 0)
(8.84302 -0.203191 0)
(8.73464 -0.0626574 0)
(8.80898 -0.161429 0)
(8.67554 -0.0172419 0)
(8.77938 -0.117641 0)
(8.61392 0.0227022 0)
(8.74736 -0.0769488 0)
(8.561 0.0540618 0)
(8.71202 -0.0373157 0)
(8.52346 0.0950721 0)
(8.66951 0.0156003 0)
(8.49046 0.161769 0)
(8.60783 0.0809967 0)
(8.45957 0.218039 0)
(8.56389 0.124862 0)
(8.43012 0.264887 0)
(8.53241 0.178774 0)
(8.40934 0.308499 0)
(8.51235 0.216932 0)
(8.40892 0.349367 0)
(8.4838 0.253208 0)
(8.42143 0.398676 0)
(8.45259 0.288436 0)
(8.4175 0.446087 0)
(8.4384 0.332133 0)
(8.40636 0.5062 0)
(8.43237 0.364539 0)
(8.40144 0.554776 0)
(8.44375 0.398476 0)
(8.38736 0.602653 0)
(8.46007 0.443776 0)
(8.37269 0.660792 0)
(8.45673 0.487842 0)
(8.36664 0.714661 0)
(8.45438 0.518715 0)
(8.35495 0.76833 0)
(8.43896 0.562293 0)
(8.31636 0.846301 0)
(8.42222 0.622737 0)
(8.25877 0.935494 0)
(8.39884 0.68816 0)
(8.16235 1.02607 0)
(8.39862 0.7504 0)
(8.02084 1.10953 0)
(8.42236 0.807124 0)
(7.86027 1.19837 0)
(8.42935 0.848401 0)
(7.72156 1.30621 0)
(8.44083 0.922761 0)
(7.60167 1.43386 0)
(8.45365 1.03739 0)
(7.48275 1.58276 0)
(8.44835 1.17947 0)
(7.36041 1.75677 0)
(8.40753 1.34179 0)
(7.26727 1.97022 0)
(8.32938 1.53242 0)
(7.22792 2.23846 0)
(8.19143 1.75838 0)
(7.22973 2.55909 0)
(8.02543 2.05476 0)
(7.23316 2.95366 0)
(7.93891 2.45542 0)
(7.13226 3.43837 0)
(8.10341 3.00592 0)
(6.81998 4.20056 0)
(8.74496 3.55807 0)
(6.5564 5.83659 0)
(9.58521 3.62371 0)
(8.02365 8.21116 0)
(10.1544 -0.122646 0)
(10.0568 -0.225207 0)
(10.2131 -0.2747 0)
(10.1566 -0.257333 0)
(10.3416 -0.233819 0)
(10.2688 -0.194128 0)
(10.4226 -0.178873 0)
(10.3041 -0.157961 0)
(10.4345 -0.16305 0)
(10.2979 -0.158729 0)
(10.4334 -0.177918 0)
(10.2996 -0.183217 0)
(10.4493 -0.209365 0)
(10.3198 -0.217193 0)
(10.4806 -0.244079 0)
(10.351 -0.249838 0)
(10.5186 -0.274926 0)
(10.3856 -0.278055 0)
(10.5579 -0.302395 0)
(10.4212 -0.305065 0)
(10.5987 -0.331048 0)
(10.4584 -0.33526 0)
(10.6406 -0.363939 0)
(10.496 -0.369332 0)
(10.6818 -0.399393 0)
(10.5332 -0.404238 0)
(10.7212 -0.433814 0)
(10.5691 -0.436729 0)
(10.7586 -0.465542 0)
(10.6031 -0.467516 0)
(10.7929 -0.497303 0)
(10.6335 -0.50042 0)
(10.823 -0.532799 0)
(10.6587 -0.538126 0)
(10.8476 -0.572583 0)
(10.6774 -0.578462 0)
(10.8669 -0.612882 0)
(10.692 -0.617958 0)
(10.8846 -0.651905 0)
(10.7069 -0.655474 0)
(10.9039 -0.6897 0)
(10.725 -0.692916 0)
(10.9255 -0.728693 0)
(10.7448 -0.73163 0)
(10.9462 -0.768545 0)
(10.7617 -0.770331 0)
(10.9624 -0.806684 0)
(10.7716 -0.805583 0)
(10.972 -0.840178 0)
(10.7741 -0.834779 0)
(10.9755 -0.867078 0)
(10.7706 -0.857517 0)
(10.9738 -0.888259 0)
(10.7642 -0.876404 0)
(10.9702 -0.908698 0)
(10.7608 -0.897943 0)
(10.9683 -0.934771 0)
(10.7614 -0.925247 0)
(10.9642 -0.964223 0)
(10.7568 -0.953049 0)
(10.9484 -0.990775 0)
(10.74 -0.976019 0)
(10.9176 -1.01137 0)
(10.7094 -0.993148 0)
(10.8708 -1.02635 0)
(10.6653 -1.01026 0)
(10.8176 -1.0485 0)
(10.6176 -1.03871 0)
(10.7662 -1.0764 0)
(10.5642 -1.06323 0)
(10.7103 -1.09807 0)
(10.4989 -1.07843 0)
(10.6479 -1.10762 0)
(10.432 -1.08631 0)
(10.5817 -1.11381 0)
(10.3551 -1.08984 0)
(10.5089 -1.11641 0)
(10.2811 -1.09166 0)
(10.4447 -1.12278 0)
(10.2268 -1.09338 0)
(10.3896 -1.11749 0)
(10.1859 -1.07919 0)
(10.3361 -1.09209 0)
(10.1473 -1.04045 0)
(10.283 -1.05122 0)
(10.1102 -0.995104 0)
(10.2245 -1.00324 0)
(10.067 -0.956197 0)
(10.165 -0.966539 0)
(10.0235 -0.916221 0)
(10.0937 -0.918298 0)
(9.96528 -0.858411 0)
(10.0073 -0.861265 0)
(9.89659 -0.802431 0)
(9.92165 -0.810593 0)
(9.82987 -0.755324 0)
(9.83979 -0.777502 0)
(9.76998 -0.735211 0)
(9.78 -0.772099 0)
(9.71827 -0.734424 0)
(9.73749 -0.781525 0)
(9.67192 -0.740496 0)
(9.69583 -0.793647 0)
(9.62712 -0.732935 0)
(9.65492 -0.773509 0)
(9.58044 -0.696427 0)
(9.60054 -0.731331 0)
(9.52346 -0.639001 0)
(9.52367 -0.670888 0)
(9.44576 -0.568898 0)
(9.41062 -0.595129 0)
(9.34887 -0.500873 0)
(9.31048 -0.552531 0)
(9.28869 -0.471767 0)
(9.21774 -0.513031 0)
(9.2029 -0.417646 0)
(9.10608 -0.454346 0)
(9.08767 -0.353005 0)
(8.98856 -0.402267 0)
(8.98925 -0.29597 0)
(8.90649 -0.366605 0)
(8.91362 -0.254459 0)
(8.85992 -0.336821 0)
(8.83953 -0.219628 0)
(8.82451 -0.306277 0)
(8.7697 -0.182209 0)
(8.77961 -0.269129 0)
(8.70798 -0.134232 0)
(8.73078 -0.230138 0)
(8.64986 -0.0856137 0)
(8.68618 -0.187874 0)
(8.58597 -0.0369989 0)
(8.64399 -0.145565 0)
(8.5235 0.00692676 0)
(8.61283 -0.10305 0)
(8.46362 0.047022 0)
(8.58469 -0.0612541 0)
(8.40667 0.0779588 0)
(8.54853 -0.0235631 0)
(8.36083 0.123431 0)
(8.50688 0.0278577 0)
(8.32007 0.192938 0)
(8.47282 0.0865252 0)
(8.29636 0.239233 0)
(8.4701 0.122567 0)
(8.28002 0.285597 0)
(8.4665 0.170663 0)
(8.27256 0.321615 0)
(8.47537 0.198777 0)
(8.26758 0.358301 0)
(8.48828 0.232951 0)
(8.26589 0.411223 0)
(8.50906 0.273575 0)
(8.24246 0.456223 0)
(8.53779 0.31564 0)
(8.23854 0.511558 0)
(8.54627 0.345388 0)
(8.24809 0.572556 0)
(8.56733 0.392416 0)
(8.23115 0.610208 0)
(8.59 0.424506 0)
(8.24093 0.675495 0)
(8.61056 0.451806 0)
(8.21824 0.727958 0)
(8.65902 0.490212 0)
(8.1636 0.798576 0)
(8.6904 0.547547 0)
(8.08729 0.887026 0)
(8.72019 0.600253 0)
(8.01432 0.985485 0)
(8.75727 0.657978 0)
(7.92322 1.0757 0)
(8.79635 0.713625 0)
(7.82965 1.15773 0)
(8.81288 0.763683 0)
(7.74922 1.25534 0)
(8.79613 0.819397 0)
(7.67093 1.36287 0)
(8.77051 0.886234 0)
(7.60256 1.49955 0)
(8.74381 0.98232 0)
(7.56858 1.682 0)
(8.68803 1.10623 0)
(7.57014 1.88525 0)
(8.58989 1.25994 0)
(7.59459 2.10739 0)
(8.49214 1.45571 0)
(7.60954 2.36064 0)
(8.45546 1.71516 0)
(7.55984 2.66565 0)
(8.5169 2.01904 0)
(7.43152 3.07196 0)
(8.74952 2.37078 0)
(7.22994 3.65393 0)
(9.19959 2.6648 0)
(7.09098 4.62987 0)
(9.84585 2.75877 0)
(7.49508 6.0905 0)
(10.1545 2.95045 0)
(8.98591 7.19192 0)
(11.6191 -0.10648 0)
(11.5624 -0.237868 0)
(11.7687 -0.304934 0)
(11.7583 -0.285084 0)
(11.9193 -0.256389 0)
(11.8413 -0.202734 0)
(11.952 -0.182719 0)
(11.833 -0.155195 0)
(11.9291 -0.163388 0)
(11.8017 -0.1572 0)
(11.9044 -0.181177 0)
(11.7813 -0.184516 0)
(11.8949 -0.214711 0)
(11.7765 -0.220099 0)
(11.8985 -0.250735 0)
(11.7812 -0.254126 0)
(11.9082 -0.282821 0)
(11.7892 -0.283517 0)
(11.9196 -0.311098 0)
(11.7977 -0.310932 0)
(11.931 -0.339728 0)
(11.8051 -0.340711 0)
(11.9401 -0.372001 0)
(11.809 -0.374147 0)
(11.9446 -0.407035 0)
(11.8081 -0.408845 0)
(11.9444 -0.441661 0)
(11.8032 -0.441651 0)
(11.9409 -0.473888 0)
(11.797 -0.472206 0)
(11.9362 -0.504675 0)
(11.7908 -0.502727 0)
(11.9303 -0.537211 0)
(11.7844 -0.536439 0)
(11.9226 -0.573168 0)
(11.7765 -0.573407 0)
(11.9123 -0.611732 0)
(11.7667 -0.612389 0)
(11.9005 -0.651381 0)
(11.7552 -0.652005 0)
(11.8881 -0.691467 0)
(11.7418 -0.692223 0)
(11.8748 -0.731793 0)
(11.7255 -0.732115 0)
(11.8595 -0.771086 0)
(11.7048 -0.769453 0)
(11.8402 -0.806851 0)
(11.6794 -0.801806 0)
(11.8153 -0.836819 0)
(11.6484 -0.827347 0)
(11.783 -0.860227 0)
(11.6125 -0.846775 0)
(11.7447 -0.879599 0)
(11.5756 -0.865538 0)
(11.7052 -0.901236 0)
(11.5409 -0.888408 0)
(11.6638 -0.92601 0)
(11.5011 -0.912957 0)
(11.6125 -0.949726 0)
(11.4472 -0.9358 0)
(11.5487 -0.971518 0)
(11.3777 -0.954712 0)
(11.4731 -0.98736 0)
(11.2936 -0.966551 0)
(11.3894 -0.999479 0)
(11.2058 -0.982097 0)
(11.3067 -1.02072 0)
(11.114 -1.00547 0)
(11.2122 -1.0438 0)
(11.01 -1.02356 0)
(11.107 -1.05857 0)
(10.8954 -1.03388 0)
(10.9967 -1.06732 0)
(10.7823 -1.03957 0)
(10.8824 -1.07063 0)
(10.665 -1.04324 0)
(10.7687 -1.07769 0)
(10.5627 -1.055 0)
(10.6773 -1.09303 0)
(10.4813 -1.06291 0)
(10.5938 -1.09192 0)
(10.4065 -1.05081 0)
(10.5078 -1.06507 0)
(10.3345 -1.0158 0)
(10.4276 -1.0256 0)
(10.2594 -0.969734 0)
(10.3509 -0.97997 0)
(10.1909 -0.931132 0)
(10.2728 -0.941444 0)
(10.1201 -0.879085 0)
(10.1803 -0.881591 0)
(10.0308 -0.814789 0)
(10.0864 -0.826827 0)
(9.94294 -0.760671 0)
(9.99968 -0.783992 0)
(9.86378 -0.718074 0)
(9.91843 -0.760312 0)
(9.79826 -0.700619 0)
(9.84307 -0.75991 0)
(9.73817 -0.703661 0)
(9.78156 -0.770368 0)
(9.68262 -0.708215 0)
(9.72233 -0.779753 0)
(9.62244 -0.697981 0)
(9.65048 -0.752481 0)
(9.5446 -0.658433 0)
(9.55663 -0.704973 0)
(9.45294 -0.594591 0)
(9.43954 -0.6357 0)
(9.34115 -0.511942 0)
(9.30501 -0.556668 0)
(9.25141 -0.460499 0)
(9.20551 -0.528239 0)
(9.16213 -0.420711 0)
(9.08487 -0.475877 0)
(9.05012 -0.351221 0)
(8.95017 -0.410086 0)
(8.91713 -0.280435 0)
(8.82929 -0.370322 0)
(8.79896 -0.237943 0)
(8.73608 -0.349317 0)
(8.69756 -0.206859 0)
(8.66739 -0.320403 0)
(8.60479 -0.172987 0)
(8.60574 -0.287865 0)
(8.52161 -0.137348 0)
(8.53647 -0.257274 0)
(8.45479 -0.096006 0)
(8.47714 -0.217172 0)
(8.3956 -0.0483072 0)
(8.43221 -0.171006 0)
(8.33941 -0.00445262 0)
(8.38806 -0.1297 0)
(8.29165 0.0367422 0)
(8.35484 -0.0924611 0)
(8.24784 0.0794618 0)
(8.32388 -0.0511255 0)
(8.19441 0.118677 0)
(8.28667 -0.0169016 0)
(8.13795 0.165651 0)
(8.26048 0.0276937 0)
(8.08657 0.225372 0)
(8.2699 0.0663562 0)
(8.08005 0.255671 0)
(8.29307 0.0986637 0)
(8.07906 0.312483 0)
(8.30915 0.140087 0)
(8.0793 0.347859 0)
(8.34197 0.162837 0)
(8.0749 0.395869 0)