/*--------------------------------*- C++ -*----------------------------------*\
| =========                 |                                                 |
| \\      /  F ield         | OpenFOAM: The Open Source CFD Toolbox           |
|  \\    /   O peration     | Version:  2.4.0                                 |
|   \\  /    A nd           | Web:      www.OpenFOAM.org                      |
|    \\/     M anipulation  |                                                 |
\*---------------------------------------------------------------------------*/
FoamFile
{
    version     2.0;
    format      ascii;
    class       volScalarField;
    location    "1.4";
    object      k_0;
}
// * * * * * * * * * * * * * * * * * * * * * * * * * * * * * * * * * * * * * //

dimensions      [0 2 -2 0 0 0 0];

internalField   nonuniform List<scalar> 
8800
(
8.10709
10.2843
8.77907
6.84325
5.68346
5.00133
4.49089
4.18816
3.86645
3.71775
3.49309
3.41978
3.2463
3.20541
3.0595
3.02968
2.90239
2.86926
2.82802
2.64847
1.38709
4.36941
5.3088
5.2931
5.11302
4.8483
4.53092
4.34094
4.06278
3.93998
3.72095
3.63828
3.47157
3.41818
3.29067
3.2481
3.14513
3.10276
3.01966
3.00214
0.083097
0.746722
1.54789
1.96179
2.24347
2.47219
2.54665
2.62004
2.61651
2.61081
2.57671
2.55643
2.51486
2.48109
2.4527
2.41392
2.39673
2.35022
2.31926
2.28454
0.00327009
0.0712851
0.249599
0.434765
0.56589
0.717913
0.830803
0.924315
1.03092
1.09284
1.16656
1.20498
1.27178
1.29262
1.34632
1.35786
1.4077
1.40433
1.42445
1.40687
0.000117269
0.00508415
0.0237646
0.0551711
0.0813009
0.121135
0.169473
0.19576
0.25164
0.278268
0.326621
0.350116
0.398381
0.418968
0.467391
0.486855
0.536212
0.553079
0.591128
0.602904
2.54531e-05
0.000325556
0.00177745
0.00433051
0.00701915
0.0108788
0.0190807
0.0239383
0.0353777
0.0420101
0.0530891
0.0633429
0.0732991
0.0815332
0.0971369
0.107821
0.116747
0.136162
0.144413
0.162333
2.24443e-05
4.63256e-05
0.000138191
0.000371263
0.00048854
0.000762846
0.00118016
0.00167236
0.00281335
0.00386274
0.00453682
0.00636366
0.00740479
0.00941888
0.0107392
0.0136294
0.0150774
0.0190133
0.0209571
0.026956
2.12457e-05
3.28687e-05
4.60441e-05
7.53853e-05
8.85857e-05
0.000122075
0.000132939
0.000166176
0.000202118
0.000300328
0.000328555
0.000465425
0.000518836
0.000687346
0.000758302
0.00108393
0.00116153
0.0015895
0.00178829
0.00292125
2.07694e-05
2.96286e-05
4.97083e-05
5.57992e-05
5.8175e-05
7.44014e-05
7.8195e-05
8.11765e-05
8.06009e-05
8.21834e-05
8.6271e-05
0.000103599
0.000107432
0.000122393
0.000124162
0.000141546
0.000141883
0.000159688
0.000166395
0.000234006
2.061e-05
2.70684e-05
4.35595e-05
6.11769e-05
6.18461e-05
6.09458e-05
6.33059e-05
7.2545e-05
7.69914e-05
7.58331e-05
7.51578e-05
7.50226e-05
7.48188e-05
7.47498e-05
7.95096e-05
9.15888e-05
9.69048e-05
0.000101515
0.000102145
0.000102545
2.06555e-05
2.78675e-05
3.66876e-05
5.56753e-05
6.83874e-05
6.89186e-05
6.62171e-05
6.63164e-05
6.87175e-05
7.23236e-05
7.69849e-05
7.88423e-05
7.88592e-05
8.16027e-05
8.37776e-05
8.37928e-05
8.22776e-05
8.35529e-05
8.33911e-05
8.62458e-05
2.07661e-05
2.95943e-05
4.60654e-05
5.83492e-05
5.94817e-05
6.10021e-05
7.18383e-05
9.18553e-05
9.62068e-05
9.41936e-05
9.39069e-05
9.17304e-05
9.26666e-05
9.49887e-05
0.000105056
0.0001222
0.000137871
0.000158735
0.000179078
0.000223184
2.11089e-05
3.17508e-05
4.56719e-05
6.14801e-05
8.86375e-05
0.000135359
0.000159307
0.000220527
0.000234556
0.000280563
0.000314589
0.000416618
0.000482484
0.00065632
0.000782077
0.00106735
0.00123322
0.00165329
0.00194126
0.00259818
2.16567e-05
4.33911e-05
0.000116139
0.000260474
0.000615395
0.000991053
0.00133365
0.00225659
0.00273614
0.00385351
0.00458857
0.00637422
0.0072961
0.00963376
0.011053
0.0141898
0.0159935
0.0205906
0.0233299
0.0306692
2.49838e-05
0.000309304
0.00141801
0.00365033
0.00868479
0.0132907
0.0174028
0.0281015
0.0333106
0.0444093
0.0506831
0.0645102
0.0709186
0.086498
0.0945825
0.112379
0.121361
0.144569
0.157238
0.191592
0.000124112
0.00492739
0.0219932
0.0487074
0.0970646
0.12412
0.155178
0.215895
0.240588
0.285681
0.314531
0.363045
0.383032
0.431568
0.455482
0.506236
0.529204
0.589292
0.618062
0.692252
0.00337722
0.0697357
0.253324
0.414538
0.601708
0.695234
0.829814
0.944882
1.0183
1.08916
1.16285
1.21793
1.247
1.30856
1.33637
1.38229
1.40172
1.45558
1.47701
1.52617
0.0847764
0.729605
1.56027
1.93893
2.29285
2.42095
2.58269
2.60178
2.62349
2.59587
2.58823
2.54046
2.52278
2.47438
2.46228
2.4193
2.40872
2.38221
2.37145
2.34367
1.40946
4.34472
5.32005
5.28727
5.13219
4.80006
4.58877
4.26784
4.13544
3.86851
3.77588
3.57709
3.52246
3.36589
3.32889
3.20244
3.17286
3.05207
3.01407
2.91331
8.12527
10.2553
8.7969
6.818
5.70807
4.96473
4.53891
4.12348
3.93078
3.64873
3.55385
3.34592
3.30482
3.1348
3.10255
2.94107
2.91098
2.73151
2.66801
2.45249
1.86415
1.38459
1.11689
0.94505
0.833304
0.757916
0.708705
0.670572
0.643658
0.616682
0.595937
0.573669
0.559044
0.544373
0.538708
0.531222
0.528526
0.522708
0.51962
0.512871
0.509443
0.503023
0.500488
0.495334
0.492422
0.487969
0.48607
0.48209
0.479603
0.474206
0.471672
0.466139
0.463469
0.458062
0.454903
0.448879
0.444953
0.437027
0.431175
0.423971
0.415752
0.407855
0.400726
0.396635
0.387807
0.384618
0.377827
0.373465
0.363737
0.359043
0.349759
0.34551
0.339351
0.338261
0.337978
0.339388
0.339747
0.340268
0.33854
0.335804
0.328701
0.321792
0.312457
0.303639
0.29716
0.282838
0.275369
0.260077
0.253764
0.239975
0.235278
0.225537
0.22081
0.215886
0.213741
0.213902
0.215148
0.220723
0.227493
0.242811
0.253004
0.270126
0.285125
0.303292
0.310438
0.316296
0.317969
0.32424
0.332
0.348947
0.370537
0.423038
0.485146
0.491944
0.482396
0.431427
0.349925
0.253681
0.217495
0.165723
0.153288
0.125971
0.120128
0.104872
0.102601
0.0924272
0.0932115
0.0860515
0.0890905
0.0817466
0.0861241
0.0793338
0.0837338
0.078213
0.0822665
0.0791367
0.0835975
0.081063
0.083806
0.082113
0.0837019
0.0827248
0.0902502
0.0901093
0.104631
0.10786
0.128846
0.136042
0.165874
0.172501
0.199646
0.199458
0.214668
0.210512
0.219504
0.210887
0.213705
0.199758
0.199247
0.182787
0.178137
0.156347
0.152396
0.133579
0.135606
0.125236
0.130466
0.125416
0.135483
0.134569
0.151128
0.152833
0.17806
0.18207
0.214788
0.216339
0.250443
0.245784
0.279855
0.269373
0.300972
0.285023
0.310831
0.290975
0.313543
0.293036
0.314515
0.295089
0.314042
0.298105
0.308679
0.296613
0.297214
0.294007
0.282502
0.281269
0.26803
0.267832
0.253628
0.25159
0.237056
0.23389
0.220395
0.216754
0.205498
0.201348
0.191275
0.186868
0.17655
0.171882
0.161137
0.15696
0.1446
0.142137
0.132289
0.138572
0.137871
0.16684
0.193207
0.682665
2.56184
2.10681
1.77407
1.53138
1.35543
1.21281
1.112
1.025
0.967266
0.909133
0.872558
0.828871
0.804175
0.769058
0.751272
0.722762
0.710971
0.689221
0.680582
0.66341
0.656203
0.641738
0.635758
0.623756
0.618823
0.609305
0.60521
0.596835
0.592816
0.584948
0.580512
0.573601
0.568418
0.563845
0.557607
0.554427
0.547297
0.543913
0.536567
0.533074
0.525363
0.521322
0.513736
0.510227
0.504227
0.499494
0.496444
0.489713
0.486939
0.478163
0.474851
0.466084
0.462927
0.453717
0.451842
0.445533
0.445031
0.441731
0.44225
0.439944
0.44004
0.43783
0.435829
0.430378
0.424978
0.419063
0.407976
0.403236
0.391845
0.387013
0.373521
0.368887
0.355462
0.351562
0.339996
0.337054
0.329088
0.328096
0.325585
0.327926
0.327516
0.329354
0.326963
0.326217
0.320567
0.319666
0.315685
0.318579
0.321871
0.329612
0.339031
0.342277
0.353174
0.369679
0.419972
0.421364
0.421544
0.394867
0.374
0.303053
0.269471
0.188349
0.171782
0.133163
0.126366
0.105732
0.102156
0.0906549
0.0882402
0.0817757
0.0775999
0.0742818
0.0713065
0.0686956
0.0691
0.068496
0.0694083
0.0700285
0.0720476
0.073161
0.0784009
0.0802889
0.0907382
0.094574
0.109474
0.117439
0.140375
0.149915
0.175555
0.184329
0.205033
0.211171
0.216641
0.216847
0.214984
0.210375
0.196753
0.184909
0.157821
0.147776
0.118612
0.108051
0.0891364
0.0795857
0.0671447
0.059978
0.0533928
0.0512321
0.0489319
0.0490637
0.0501233
0.0514615
0.0552605
0.058637
0.0644063
0.073052
0.0850647
0.0966107
0.120783
0.134795
0.164263
0.178552
0.21136
0.222069
0.251191
0.256021
0.275465
0.277833
0.288628
0.291362
0.293087
0.297435
0.291985
0.294621
0.285423
0.28513
0.275705
0.272731
0.261621
0.255769
0.241845
0.234878
0.220521
0.213955
0.200647
0.193951
0.183581
0.173842
0.165922
0.155802
0.148782
0.13974
0.134037
0.127865
0.123776
0.123864
0.12663
0.139764
0.151242
0.248128
2.06444
1.83217
1.63026
1.45324
1.32582
1.20675
1.12687
1.03977
0.986492
0.919498
0.883355
0.832189
0.807625
0.767244
0.750378
0.717225
0.70342
0.676409
0.663816
0.643414
0.631762
0.617367
0.606589
0.596964
0.585984
0.579989
0.569175
0.565288
0.556932
0.553708
0.545814
0.542741
0.535679
0.53262
0.525537
0.522557
0.516428
0.513138
0.508707
0.502642
0.500578
0.49334
0.490505
0.481845
0.479638
0.470005
0.467432
0.457961
0.455759
0.446539
0.444254
0.436064
0.434474
0.428168
0.427256
0.424273
0.424887
0.425164
0.425532
0.428995
0.429659
0.434277
0.43328
0.436888
0.433664
0.43645
0.43175
0.433265
0.427814
0.427822
0.422116
0.420607
0.413669
0.41055
0.402206
0.398495
0.388406
0.384989
0.37372
0.370199
0.35671
0.352007
0.336054
0.330257
0.312065
0.305466
0.286405
0.279937
0.2636
0.257775
0.252409
0.254967
0.25935
0.271796
0.282149
0.301977
0.334341
0.349998
0.35607
0.34379
0.341771
0.312554
0.302139
0.258784
0.243507
0.19563
0.183745
0.147034
0.140868
0.117338
0.115139
0.099594
0.100441
0.0903438
0.0932177
0.085871
0.0897875
0.0849899
0.0909617
0.0882644
0.0981256
0.0977167
0.110769
0.117578
0.139747
0.156065
0.185344
0.210732
0.222475
0.244567
0.239249
0.250208
0.235535
0.239749
0.218568
0.213863
0.17786
0.165803
0.123
0.111566
0.0772277
0.0697217
0.0486869
0.0442095
0.0324625
0.0302934
0.0243336
0.0237493
0.0213427
0.0215588
0.0205588
0.0210137
0.0205363
0.0216275
0.0214892
0.02367
0.0240138
0.0279387
0.0287398
0.0353752
0.037295
0.0481216
0.0519777
0.0679863
0.0750984
0.101353
0.109678
0.142392
0.149408
0.182263
0.186679
0.215937
0.216154
0.233924
0.230348
0.240146
0.233644
0.237973
0.229861
0.229764
0.220008
0.218428
0.206364
0.203941
0.191239
0.188259
0.175586
0.172129
0.158415
0.154609
0.141724
0.138464
0.128101
0.126775
0.121707
0.124659
0.12524
0.136874
0.1397
0.163011
1.31559
1.21794
1.12858
1.03594
0.965983
0.895684
0.850115
0.796734
0.763547
0.717067
0.68696
0.647676
0.623738
0.594618
0.57678
0.555996
0.539666
0.525195
0.504987
0.495309
0.474854
0.466725
0.450941
0.445153
0.433091
0.428697
0.419549
0.41652
0.409432
0.406331
0.399729
0.396813
0.390936
0.387376
0.38353
0.37954
0.376902
0.371479
0.369325
0.363628
0.361253
0.354874
0.352793
0.346679
0.344924
0.339157
0.337018
0.330254
0.326957
0.318596
0.314322
0.305771
0.300474
0.295873
0.289567
0.289166
0.28778
0.290331
0.290544
0.295528
0.297315
0.305058
0.308311
0.318767
0.323041
0.334067
0.337917
0.347698
0.350262
0.356997
0.357423
0.359545
0.357074
0.357013
0.351638
0.349912
0.339417
0.336038
0.320449
0.314895
0.294825
0.286968
0.262455
0.252945
0.225543
0.215933
0.18892
0.180351
0.155738
0.151836
0.138046
0.142623
0.140807
0.151731
0.156043
0.175467
0.185669
0.217308
0.233205
0.26618
0.287656
0.29151
0.291756
0.289616
0.287205
0.278628
0.275576
0.258399
0.254934
0.227509
0.226667
0.202205
0.204489
0.183773
0.187491
0.169978
0.177234
0.162369
0.173935
0.164358
0.177642
0.175944
0.186073
0.205939
0.222683
0.246145
0.247844
0.262084
0.255108
0.267607
0.250399
0.254316
0.227203
0.221372
0.175802
0.159309
0.104622
0.0904003
0.0532559
0.0465196
0.0294471
0.0271519
0.0197317
0.0188988
0.0150338
0.014684
0.0123257
0.0124944
0.0112646
0.0117155
0.0110344
0.0115899
0.0113211
0.0118443
0.0117342
0.0123462
0.0124527
0.0133918
0.0138268
0.015564
0.0161878
0.0188458
0.0201646
0.0243128
0.0265874
0.0340267
0.037296
0.0491795
0.0534413
0.0689357
0.0737569
0.0910153
0.095075
0.109641
0.111843
0.123272
0.123676
0.130692
0.129845
0.133957
0.131309
0.132894
0.128174
0.127535
0.122594
0.120968
0.114573
0.113602
0.108517
0.107822
0.103269
0.103304
0.0989214
0.0995504
0.0959894
0.0998415
0.099425
0.109567
0.112969
0.129741
0.581756
0.559515
0.526096
0.502966
0.470383
0.449732
0.426999
0.411723
0.394617
0.383154
0.364706
0.352773
0.332568
0.321923
0.305279
0.297892
0.286514
0.282058
0.273256
0.26955
0.261617
0.256622
0.245358
0.239647
0.229895
0.226602
0.220026
0.218566
0.215517
0.215013
0.213294
0.212306
0.208545
0.206663
0.201627
0.199949
0.195967
0.194951
0.192225
0.191296
0.187569
0.185643
0.179553
0.176664
0.169902
0.167771
0.162977
0.162135
0.159838
0.159897
0.158001
0.157282
0.153141
0.15075
0.143862
0.141156
0.13492
0.134696
0.134252
0.13595
0.137553
0.142728
0.145666
0.153192
0.15685
0.165555
0.169467
0.178828
0.18232
0.191728
0.193725
0.200665
0.199737
0.202019
0.197806
0.197586
0.189662
0.186639
0.173547
0.167974
0.151047
0.144065
0.1249
0.117816
0.0987573
0.0926564
0.0760364
0.0720908
0.0597317
0.0586897
0.0516849
0.0542794
0.052058
0.0582529
0.0594805
0.0704129
0.0748802
0.0936378
0.100713
0.128091
0.137205
0.177699
0.185138
0.220761
0.223265
0.241401
0.241687
0.245938
0.246566
0.248326
0.247015
0.24958
0.246007
0.249724
0.246128
0.248057
0.246809
0.249044
0.247064
0.255516
0.251338
0.262593
0.25941
0.26801
0.264585
0.271589
0.261383
0.265062
0.248412
0.243225
0.210391
0.194816
0.142303
0.122422
0.0746534
0.0611471
0.0364224
0.0306112
0.0198974
0.0176728
0.0130544
0.0122634
0.0101656
0.00990391
0.00865732
0.00849363
0.00747732
0.00733615
0.00661365
0.00673008
0.00617157
0.00648963
0.00605558
0.00649
0.00615801
0.00666735
0.00642624
0.00720301
0.00713657
0.00813252
0.00823092
0.00940292
0.00977965
0.0114652
0.012201
0.0148386
0.0159758
0.0199115
0.0219094
0.0276705
0.0306173
0.0380823
0.0416347
0.0487358
0.0535684
0.0575924
0.06261
0.0644909
0.0685104
0.0695792
0.0724633
0.0735884
0.0745678
0.0757685
0.0766621
0.0763615
0.075592
0.0743316
0.0717491
0.069721
0.0652695
0.0631115
0.0587103
0.0572019
0.0537909
0.0531109
0.051347
0.0530484
0.0540411
0.0591605
0.159247
0.155763
0.147811
0.143424
0.135119
0.131593
0.126579
0.124426
0.121764
0.120386
0.116874
0.11462
0.109077
0.105644
0.100219
0.0964911
0.0937247
0.0910291
0.0901431
0.0886904
0.0883635
0.0872447
0.0863317
0.0831424
0.08065
0.0766816
0.0739602
0.0717637
0.0713928
0.0711957
0.0718178
0.0720824
0.0727183
0.072539
0.0721369
0.0704682
0.0687891
0.0672829
0.065992
0.0656109
0.0646644
0.0643879
0.062854
0.0614227
0.0575285
0.0557499
0.052298
0.0515177
0.0498097
0.0499971
0.049597
0.0499658
0.049805
0.0499615
0.0496645
0.0492215
0.0475634
0.0454537
0.0441939
0.0438158
0.0440558
0.0445948
0.0461241
0.0476371
0.0495419
0.0524366
0.0544122
0.0584311
0.0602642
0.0654332
0.0671652
0.071845
0.0724501
0.0732055
0.0721423
0.0712638
0.0673385
0.064784
0.0581537
0.0547716
0.0473399
0.0441209
0.0371448
0.0344969
0.0287762
0.0269856
0.022933
0.0219982
0.019256
0.0190462
0.0170676
0.0175272
0.0165467
0.0188533
0.0186983
0.0232341
0.0241386
0.0329974
0.0348252
0.0487554
0.0512716
0.0715803
0.0748189
0.100443
0.104191
0.135597
0.138999
0.171777
0.173061
0.199366
0.196537
0.217573
0.21372
0.229937
0.226779
0.238723
0.235692
0.247338
0.242414
0.254613
0.248531
0.256336
0.24778
0.251346
0.235264
0.236678
0.212695
0.203486
0.163323
0.146826
0.100907
0.0847782
0.0530724
0.0415731
0.027528
0.0213395
0.016235
0.0131733
0.0115277
0.00991894
0.00936693
0.00844959
0.00820461
0.00759219
0.00739427
0.00677206
0.00655672
0.00596733
0.00576108
0.00528948
0.00505749
0.00489225
0.00469787
0.0047437
0.00467351
0.00483356
0.00481554
0.0051219
0.0051014
0.00573059
0.00568424
0.00648301
0.00646585
0.00736094
0.00731837
0.00834724
0.00837517
0.00952149
0.00971003
0.0112967
0.0118624
0.0142018
0.0153264
0.018351
0.0197431
0.022802
0.0241281
0.0262379
0.028173
0.0292662
0.0307449
0.0336542
0.0346774
0.036886
0.0378878
0.0405007
0.0410517
0.0429144
0.043314
0.0432305
0.043024
0.0428373
0.0423445
0.0415053
0.0405605
0.039253
0.0379779
0.0369589
0.0358433
0.0360887
0.0266454
0.0260152
0.0245826
0.0237933
0.0226689
0.0221316
0.0217743
0.0215707
0.0215424
0.0215232
0.0214443
0.0213758
0.0211187
0.0207947
0.0198096
0.0189201
0.0180651
0.0174939
0.0172948
0.0172671
0.0175862
0.0180107
0.0184907
0.0186533
0.018574
0.0176301
0.0163858
0.0155075
0.0149908
0.0148584
0.0149276
0.0154905
0.0164378
0.0169698
0.0172864
0.0172201
0.0168397
0.0160845
0.0156731
0.0154492
0.0153812
0.0154003
0.0154384
0.0153889
0.0150473
0.0140047
0.0128855
0.0121073
0.0113362
0.0111768
0.0111625
0.0117075
0.0123283
0.0128815
0.0131503
0.0132522
0.0130962
0.012251
0.0116853
0.0112937
0.0113004
0.0113885
0.0116648
0.0121916
0.0127683
0.0133858
0.0141141
0.0148108
0.0152235
0.0164414
0.0170909
0.0185353
0.0197003
0.020321
0.0203582
0.0202226
0.0194565
0.0186592
0.0164637
0.0151428
0.0122453
0.0111507
0.00895874
0.00827279
0.00692897
0.00659348
0.0059211
0.00580108
0.0055171
0.00552212
0.00516653
0.00513859
0.004659
0.00523315
0.0051961
0.00690971
0.00728111
0.0111886
0.0121047
0.0186563
0.020016
0.0297749
0.0315041
0.0448992
0.0468308
0.064393
0.0661606
0.0868703
0.0877149
0.108162
0.10885
0.13047
0.130656
0.15076
0.14945
0.16774
0.162826
0.178971
0.170252
0.179908
0.167447
0.170141
0.151965
0.152407
0.127337
0.121698
0.0936458
0.0841433
0.0596962
0.0505317
0.0348444
0.0277044
0.0205855
0.0166143
0.0138427
0.01193
0.011289
0.0100524
0.00977824
0.00900065
0.00894076
0.00846276
0.00855497
0.00811512
0.00824714
0.00777199
0.00788761
0.00737389
0.00740227
0.00686994
0.0068583
0.00638921
0.00645099
0.00612929
0.00634914
0.00617527
0.00651358
0.00643826
0.00684452
0.0068979
0.00726323
0.00747711
0.0078728
0.00839416
0.00850317
0.00904511
0.00904545
0.00940982
0.00937851
0.00969974
0.00967183
0.00998719
0.0100629
0.0104672
0.0106532
0.0112171
0.0114665
0.0121457
0.0124772
0.0133263
0.0138503
0.0152288
0.0158639
0.0173285
0.0177079
0.0184261
0.0185692
0.0190056
0.0195635
0.0198461
0.0209274
0.0218519
0.0230454
0.0236278
0.0245863
0.0247547
0.0250422
0.0249672
0.0248098
0.0248999
0.0029502
0.00290635
0.00279392
0.00266486
0.00254345
0.00247822
0.00246932
0.00247167
0.00250605
0.00253492
0.00261274
0.00262582
0.00262819
0.00258463
0.00245545
0.00230732
0.00220927
0.00214318
0.00214237
0.00216425
0.00232891
0.00244743
0.0025704
0.00260324
0.0025891
0.00241809
0.00221426
0.00206038
0.00198147
0.00195938
0.00198237
0.00216879
0.00238221
0.00256042
0.00264041
0.00265269
0.00258507
0.0024841
0.00237851
0.0023579
0.00234014
0.00236027
0.00236989
0.00237303
0.00229406
0.00217567
0.00196076
0.00188741
0.00178712
0.00179376
0.0018113
0.00195143
0.00207798
0.00220957
0.00224983
0.00228159
0.00226373
0.00219252
0.0021409
0.00213958
0.00214827
0.00221683
0.0022877
0.00247317
0.0025217
0.0025881
0.00259063
0.00262995
0.00261161
0.00266545
0.00272177
0.00321444
0.00375054
0.00462409
0.00484266
0.00506346
0.00494031
0.00480805
0.00403989
0.00360216
0.00257326
0.00228489
0.00170256
0.00159247
0.00139297
0.00141399
0.00138187
0.00143354
0.00145256
0.0015594
0.00156292
0.00160419
0.00148583
0.00156654
0.00153076
0.00195086
0.00205526
0.00342596
0.00379694
0.00677471
0.00727585
0.0119724
0.0123613
0.0192027
0.0194089
0.0289646
0.0288627
0.0401245
0.0393472
0.0509791
0.0499902
0.0608078
0.059519
0.0691337
0.066639
0.0754047
0.0710542
0.0776877
0.0718949
0.0740655
0.0671832
0.0669221
0.057686
0.0561725
0.0458415
0.0428428
0.0334848
0.0296713
0.0226251
0.0191614
0.0158163
0.0136577
0.0124636
0.0116642
0.011363
0.0109845
0.0109259
0.0109859
0.0115446
0.011764
0.0127276
0.0127073
0.0133505
0.0131607
0.0136995
0.0132856
0.0137324
0.0129673
0.0132789
0.0123903
0.0125985
0.0119349
0.0123413
0.0119971
0.0127253
0.012636
0.0136044
0.0135681
0.0149701
0.0149232
0.0163812
0.0164848
0.017424
0.0171637
0.0173768
0.016715
0.0164201
0.0152486
0.0146516
0.0133178
0.0125342
0.0117316
0.011138
0.0107173
0.010518
0.0102913
0.0100695
0.0100479
0.0100052
0.0100944
0.0102071
0.0105394
0.0107844
0.0113949
0.0116874
0.0120129
0.0124909
0.0128982
0.0131808
0.0135065
0.0143876
0.0148004
0.0151791
0.0152862
0.0153204
0.0152708
0.0149317
0.0147271
0.0147091
0.0147993
0.000246882
0.000255993
0.000261965
0.000261678
0.000260116
0.000259503
0.000259871
0.00026128
0.000262633
0.000263764
0.00026428
0.000265289
0.000264465
0.000263043
0.000257126
0.000254669
0.000251354
0.000248846
0.000247628
0.000247341
0.000251179
0.000256185
0.000260333
0.000260723
0.000259678
0.000256804
0.000250523
0.000246407
0.000240571
0.000237859
0.000236973
0.000239335
0.000252936
0.000266128
0.000283134
0.000286462
0.000289905
0.000287366
0.000286075
0.000282883
0.000283292
0.000283378
0.000287223
0.00028852
0.000295173
0.000295414
0.000297642
0.000295055
0.000284081
0.000276135
0.000269503
0.000267553
0.000267225
0.000269957
0.000280378
0.000294692
0.000302102
0.000309747
0.000311236
0.000314785
0.000318788
0.000338782
0.000351552
0.000372211
0.000373463
0.000377247
0.000374515
0.000378229
0.000374687
0.00037742
0.000380805
0.000484105
0.000643395
0.000829673
0.000895023
0.00093371
0.00090969
0.000833265
0.000628461
0.000542242
0.000398885
0.000368014
0.000315309
0.00031977
0.000318163
0.000333891
0.000363748
0.000390189
0.000464243
0.000500505
0.000607548
0.000645662
0.000764681
0.000771211
0.00078337
0.000836287
0.000825477
0.00102634
0.00104941
0.00165778
0.00174589
0.00303916
0.00313612
0.00561682
0.00572635
0.0102632
0.0101688
0.0164528
0.0158452
0.0222866
0.0210385
0.0266295
0.0251121
0.0296325
0.0278732
0.0314558
0.0294146
0.0313569
0.0290137
0.0291074
0.0266594
0.0259796
0.0226896
0.021643
0.0185566
0.0168113
0.014753
0.0132937
0.0123431
0.0115742
0.0113532
0.0110206
0.011056
0.0111709
0.0116827
0.0123565
0.0140426
0.0151714
0.0175229
0.0186075
0.0207731
0.0216321
0.0230794
0.023738
0.0249943
0.0256056
0.0261719
0.0256451
0.0257126
0.0250226
0.0249457
0.0246679
0.0249064
0.0250452
0.0262376
0.026958
0.0292937
0.0301246
0.0335407
0.0347047
0.0390439
0.0402139
0.043439
0.0432942
0.0433838
0.0416089
0.0401696
0.036057
0.0338514
0.028718
0.0257621
0.0216451
0.0188906
0.0162113
0.0144699
0.013131
0.0121083
0.0116993
0.0110614
0.0107239
0.0106682
0.0106718
0.0107957
0.0110511
0.0114062
0.0117711
0.0123753
0.0127051
0.0130021
0.0131904
0.0132449
0.0132071
0.0130384
0.0129501
0.0126806
0.0126824
0.0126085
0.0128168
0.0127975
0.0129239
0.000102314
0.000103353
0.000105275
0.000107602
0.000107655
0.000107313
0.000107137
0.000106721
0.000106862
0.00010696
0.000107705
0.000110902
0.000113144
0.000118575
0.000120052
0.000122405
0.000123069
0.000123546
0.000124016
0.000123679
0.000123699
0.000124025
0.000124772
0.000128379
0.0001292
0.000130742
0.000130188
0.000128854
0.000128199
0.000126759
0.000126571
0.000126116
0.00012593
0.000126397
0.000128155
0.000129584
0.000133615
0.000134869
0.000136886
0.000136354
0.000136374
0.000136917
0.000138637
0.000141941
0.000143065
0.000144169
0.000147122
0.000149961
0.000151467
0.000151823
0.000149953
0.000149136
0.0001496
0.000150728
0.00015216
0.000152782
0.000153385
0.00015756
0.000162119
0.000165265
0.000164529
0.00016315
0.000161639
0.000163668
0.000170118
0.000174405
0.000176369
0.000176597
0.000176787
0.00017867
0.000192182
0.000210813
0.000229504
0.000238361
0.000242137
0.000240565
0.000227782
0.000209238
0.00019706
0.000193812
0.000197599
0.000205561
0.000237215
0.000251331
0.000284668
0.000298368
0.00033126
0.000357582
0.000421079
0.000460675
0.0005959
0.000640905
0.00095075
0.000996516
0.00134858
0.00130378
0.0015302
0.00146154
0.00157364
0.0015622
0.00158999
0.00176219
0.00182889
0.00222447
0.00232155
0.00313148
0.00327661
0.00482569
0.00503566
0.00728387
0.0074659
0.00975059
0.00989936
0.0116854
0.0117806
0.0129284
0.0129623
0.0133786
0.0132941
0.0131318
0.0128625
0.0123212
0.0120217
0.0113503
0.0111979
0.0107944
0.0107741
0.0106128
0.0107384
0.0108072
0.0113636
0.0118648
0.0138094
0.0150512
0.0186819
0.0206156
0.0251099
0.0271131
0.0309709
0.0322775
0.0349806
0.0355756
0.0374625
0.0377524
0.0391065
0.0387557
0.0393184
0.038519
0.0390073
0.0385443
0.0390467
0.0393219
0.0403709
0.0414215
0.0440104
0.0456722
0.0504379
0.0532678
0.0620621
0.065762
0.077825
0.0809407
0.0905952
0.0914351
0.0921752
0.0907032
0.0881113
0.0808292
0.0755247
0.0642113
0.0564822
0.0470174
0.0395108
0.0326663
0.0274032
0.0232559
0.0201533
0.0180036
0.0163568
0.0148035
0.0138603
0.0128544
0.0128043
0.012728
0.0129011
0.0131116
0.013664
0.0138193
0.0138647
0.0138338
0.0134644
0.0132121
0.0128982
0.0127319
0.0126561
0.0127225
0.0127718
0.0130171
0.0130981
0.0133318
8.74561e-05
8.90931e-05
9.28199e-05
9.69078e-05
0.000100354
0.000103071
0.000104932
0.000107087
0.000109589
0.000111371
0.000112766
0.000115511
0.000118279
0.000125657
0.00013074
0.000138077
0.000139818
0.000140987
0.00013986
0.000137608
0.000133447
0.000131622
0.000130378
0.000131172
0.000133205
0.000141683
0.00014474
0.000148037
0.00014812
0.000147452
0.000144581
0.000143187
0.000142638
0.000151609
0.000166587
0.000184611
0.000193129
0.000196329
0.000196101
0.000187641
0.000174799
0.000162903
0.000155661
0.000153492
0.000160978
0.000185545
0.000211104
0.000229155
0.000237106
0.000238466
0.000228085
0.000208273
0.000189966
0.000180633
0.000180118
0.000203649
0.000248961
0.000285465
0.000304547
0.000308751
0.0003002
0.000261276
0.000223793
0.000195384
0.000178299
0.000173133
0.000179246
0.000211193
0.000241965
0.000261816
0.0002704
0.000269149
0.000255094
0.000230424
0.000210906
0.000198362
0.000194281
0.000194748
0.000231926
0.000286712
0.000434936
0.00050956
0.000676502
0.0007324
0.000819746
0.000809506
0.000819051
0.000765214
0.000777157
0.000739318
0.000849522
0.000867605
0.00117665
0.00126937
0.00170074
0.00177187
0.00217625
0.00226293
0.00260515
0.00283888
0.00310991
0.0037074
0.00397405
0.00490628
0.0051552
0.00634028
0.00648396
0.00764522
0.0076992
0.00861797
0.00872092
0.00947867
0.00967552
0.0101656
0.0105754
0.0106913
0.0111706
0.0110427
0.0111459
0.0108901
0.0109269
0.0106422
0.0108034
0.0105477
0.0108695
0.0108156
0.0113805
0.0118206
0.0135849
0.015027
0.0192724
0.0219353
0.0294069
0.0329661
0.0423408
0.0461426
0.0549653
0.0581638
0.0641307
0.0658227
0.0690863
0.0691901
0.070743
0.0689024
0.0694494
0.0667056
0.067007
0.0647002
0.0661465
0.0646008
0.0683772
0.0684628
0.0733144
0.0765078
0.0849534
0.0910351
0.107146
0.11791
0.143667
0.156526
0.193342
0.203546
0.229368
0.230482
0.23271
0.226593
0.219764
0.202461
0.183655
0.154599
0.131715
0.107506
0.0868679
0.070728
0.057082
0.046563
0.0390776
0.0330046
0.0293299
0.02485
0.0229603
0.0198323
0.019041
0.0176085
0.0174866
0.0171341
0.017043
0.0166957
0.0164583
0.0157957
0.015371
0.0153257
0.0153238
0.0154851
0.0156215
0.0162794
0.0166691
0.0177357
0.018001
0.0190033
0.000252984
0.000259139
0.000271705
0.000282539
0.000291383
0.000295319
0.000296384
0.000296394
0.000297596
0.000300883
0.00030899
0.000328348
0.000366386
0.000438711
0.000494919
0.000551957
0.00057391
0.000578878
0.000574418
0.000553137
0.000541377
0.000532069
0.000531931
0.000539982
0.000575101
0.00060401
0.000638106
0.000651263
0.000659407
0.000656816
0.000658953
0.000713413
0.000797328
0.000914305
0.000990995
0.00105535
0.00108222
0.00108242
0.00104895
0.000951417
0.000870832
0.000818744
0.00079701
0.000804282
0.000891952
0.00104187
0.00116068
0.00125632
0.0012906
0.00129256
0.00125165
0.00118087
0.00114611
0.00112831
0.00114213
0.00124748
0.00139011
0.00148324
0.00153553
0.00153461
0.00145184
0.00126056
0.00108839
0.000958148
0.000879459
0.000856131
0.000872881
0.000980434
0.00108661
0.00117845
0.00122355
0.00122656
0.00119643
0.00115457
0.00115651
0.00117015
0.0012103
0.00129134
0.00165619
0.00188204
0.00237535
0.00257854
0.00297001
0.003094
0.00332722
0.00336403
0.00343498
0.00338349
0.0034561
0.00342206
0.00365665
0.00358698
0.00366933
0.0034887
0.00353333
0.00331342
0.00331747
0.00312043
0.00298831
0.00285211
0.00278436
0.00296174
0.00304542
0.00361296
0.00382914
0.00489389
0.00520381
0.00665549
0.00692201
0.00853412
0.00857235
0.00994872
0.00966436
0.0106396
0.0100481
0.0107073
0.0100175
0.0104062
0.00982477
0.0101354
0.00998496
0.0101366
0.0105073
0.0110343
0.0125549
0.0139654
0.0177018
0.0208237
0.0283029
0.0334106
0.0461652
0.0531871
0.071384
0.0786366
0.0980333
0.103806
0.119449
0.123171
0.132036
0.133594
0.135027
0.134041
0.133706
0.129347
0.128425
0.124071
0.124232
0.123237
0.124621
0.124479
0.133394
0.135286
0.151953
0.159195
0.18636
0.202662
0.242896
0.288851
0.334468
0.375321
0.398528
0.407162
0.408106
0.402609
0.402094
0.392425
0.386676
0.369065
0.357495
0.326029
0.303789
0.258006
0.212411
0.175158
0.135838
0.105459
0.0840714
0.0677658
0.0590949
0.0474258
0.0437817
0.0361242
0.0340902
0.0300268
0.0292238
0.0269265
0.0262809
0.0246869
0.0243221
0.0238449
0.0238014
0.0243794
0.0250058
0.0269015
0.0277977
0.031517
0.0328573
0.037288
0.0389265
0.0443936
0.00303824
0.00307586
0.00310696
0.0031038
0.00307756
0.00308224
0.00310149
0.00314021
0.00325049
0.00335943
0.00351769
0.00378261
0.00407427
0.00454618
0.00489257
0.00527369
0.00551801
0.00560508
0.00562711
0.00558089
0.00552016
0.00543493
0.00539292
0.00538112
0.00538949
0.00547474
0.00560198
0.00566923
0.00585092
0.00604305
0.00637127
0.00679838
0.00715464
0.00752867
0.0077673
0.0078805
0.00792398
0.00780007
0.00752612
0.00712466
0.00684096
0.00666766
0.00660785
0.00666881
0.00699337
0.0074854
0.00783033
0.00813619
0.00825387
0.00826438
0.00822268
0.00801462
0.0079431
0.00788211
0.00788712
0.00807518
0.00824572
0.00834245
0.00836433
0.00831903
0.00799845
0.0075233
0.00705094
0.00667954
0.00645612
0.00637064
0.0063799
0.00659021
0.00676039
0.00696132
0.00711062
0.0071786
0.00733934
0.00743438
0.00765883
0.00784798
0.00826241
0.00874047
0.00982284
0.0103503
0.0113781
0.0118289
0.0126497
0.0129872
0.0135507
0.0137237
0.0139834
0.0140026
0.0144723
0.01442
0.0143752
0.0139213
0.0136038
0.0125336
0.0119522
0.010457
0.00977514
0.00812069
0.00742283
0.00594798
0.00538408
0.00457644
0.00403797
0.00388049
0.00348769
0.00349189
0.00340498
0.00353614
0.0034951
0.00375825
0.00379494
0.00411525
0.00420183
0.00461081
0.00474708
0.00542114
0.00567361
0.00687736
0.00736581
0.00931336
0.0102283
0.013499
0.0155096
0.0214977
0.0254722
0.0348571
0.0444416
0.0584408
0.0770624
0.0907747
0.121927
0.137695
0.174407
0.18655
0.220593
0.226331