/*--------------------------------*- C++ -*----------------------------------*\
| =========                 |                                                 |
| \\      /  F ield         | OpenFOAM: The Open Source CFD Toolbox           |
|  \\    /   O peration     | Version:  2.4.0                                 |
|   \\  /    A nd           | Web:      www.OpenFOAM.org                      |
|    \\/     M anipulation  |                                                 |
\*---------------------------------------------------------------------------*/
FoamFile
{
    version     2.0;
    format      ascii;
    class       surfaceScalarField;
    location    "1.4";
    object      phi_0;
}
// * * * * * * * * * * * * * * * * * * * * * * * * * * * * * * * * * * * * * //

dimensions      [0 3 -1 0 0 0 0];

internalField   nonuniform List<scalar> 
17320
(
1.76389e-05
7.36108e-06
1.16207e-05
6.01819e-06
8.6814e-06
2.93933e-06
7.35303e-06
1.32837e-06
6.72338e-06
6.29655e-07
6.3419e-06
3.81476e-07
6.06924e-06
2.72663e-07
5.88048e-06
1.8876e-07
5.70805e-06
1.72426e-07
5.57497e-06
1.33083e-07
5.48572e-06
8.92508e-08
5.39789e-06
8.78275e-08
5.29749e-06
1.00405e-07
5.23664e-06
6.08434e-08
5.14203e-06
9.46071e-08
5.09063e-06
5.14069e-08
4.98688e-06
1.03745e-07
5.02133e-06
-3.445e-08
4.81658e-06
2.0475e-07
-4.72618e-07
5.2892e-06
2.54647e-05
6.89642e-06
2.32528e-05
8.23003e-06
2.09877e-05
5.20445e-06
1.9318e-05
2.9981e-06
1.80822e-05
1.86538e-06
1.71058e-05
1.35788e-06
1.6362e-05
1.01646e-06
1.57853e-05
7.65456e-07
1.53048e-05
6.52953e-07
1.49323e-05
5.05624e-07
1.4642e-05
3.79559e-07
1.4383e-05
3.46813e-07
1.41403e-05
3.43122e-07
1.39562e-05
2.44917e-07
1.3733e-05
3.17753e-07
1.35872e-05
1.97283e-07
1.33528e-05
3.38072e-07
1.33344e-05
-1.60043e-08
1.32085e-05
3.30611e-07
-6.39688e-07
1.33756e-05
2.66257e-05
5.2707e-06
2.71614e-05
7.69431e-06
2.67764e-05
5.58949e-06
2.62508e-05
3.52368e-06
2.56152e-05
2.501e-06
2.48621e-05
2.11098e-06
2.41601e-05
1.71852e-06
2.35143e-05
1.41123e-06
2.29266e-05
1.24062e-06
2.24482e-05
9.8407e-07
2.20442e-05
7.83527e-07
2.16811e-05
7.09952e-07
2.13537e-05
6.70451e-07
2.10889e-05
5.0972e-07
2.07958e-05
6.10912e-07
2.05763e-05
4.16805e-07
2.02963e-05
6.18031e-07
2.0181e-05
9.9296e-08
2.01704e-05
3.41215e-07
-1.02388e-06
2.05546e-05
2.63294e-05
3.94133e-06
2.75549e-05
6.46874e-06
2.80806e-05
5.06386e-06
2.84511e-05
3.15315e-06
2.86595e-05
2.29258e-06
2.86137e-05
2.15675e-06
2.8474e-05
1.85831e-06
2.82479e-05
1.6373e-06
2.7958e-05
1.5305e-06
2.76987e-05
1.24342e-06
2.74402e-05
1.04198e-06
2.71695e-05
9.80631e-07
2.69193e-05
9.20669e-07
2.66829e-05
7.46144e-07
2.6435e-05
8.58798e-07
2.62028e-05
6.48988e-07
2.59749e-05
8.45903e-07
2.57219e-05
3.5238e-07
2.56033e-05
4.598e-07
-6.39004e-07
2.52184e-05
2.60304e-05
2.91096e-06
2.72609e-05
5.23821e-06
2.80536e-05
4.27114e-06
2.85035e-05
2.70326e-06
2.89866e-05
1.80951e-06
2.9314e-05
1.82937e-06
2.95747e-05
1.59757e-06
2.97363e-05
1.47572e-06
2.98358e-05
1.43102e-06
2.99229e-05
1.15631e-06
2.99749e-05
9.89896e-07
2.99615e-05
9.94087e-07
2.99723e-05
9.09854e-07
2.99237e-05
7.94761e-07
2.98862e-05
8.96265e-07
2.97843e-05
7.50931e-07
2.9737e-05
8.93198e-07
2.94814e-05
6.07989e-07
2.93346e-05
6.06566e-07
-8.64634e-08
2.87821e-05
2.58115e-05
2.09948e-06
2.69748e-05
4.07492e-06
2.78262e-05
3.4197e-06
2.82372e-05
2.29225e-06
2.87248e-05
1.32188e-06
2.90873e-05
1.46688e-06
2.9458e-05
1.22694e-06
2.96966e-05
1.23712e-06
2.99751e-05
1.15245e-06
3.01582e-05
9.73216e-07
3.04348e-05
7.13343e-07
3.05253e-05
9.03584e-07
3.07673e-05
6.67816e-07
3.08295e-05
7.32614e-07
3.1048e-05
6.77764e-07
3.09874e-05
8.1148e-07
3.12314e-05
6.49236e-07
3.09526e-05
8.86804e-07
3.10204e-05
5.38697e-07
7.4275e-07
3.01912e-05
2.56727e-05
1.42679e-06
2.67287e-05
3.01888e-06
2.76015e-05
2.54698e-06
2.80416e-05
1.85206e-06
2.85328e-05
8.30756e-07
2.88125e-05
1.18719e-06
2.92345e-05
8.04901e-07
2.94646e-05
1.00702e-06
2.98021e-05
8.14939e-07
2.99166e-05
8.58731e-07
3.02799e-05
3.50019e-07
3.0377e-05
8.06475e-07
3.06937e-05
3.51181e-07
3.07346e-05
6.91713e-07
3.11196e-05
2.92734e-07
3.09813e-05
9.49812e-07
3.13463e-05
2.84212e-07
3.10558e-05
1.17728e-06
3.09697e-05
6.24813e-07
1.56092e-06
3.01515e-05
2.55572e-05
8.69627e-07
2.66202e-05
1.95589e-06
2.74713e-05
1.6958e-06
2.79863e-05
1.33711e-06
2.83338e-05
4.83263e-07
2.86529e-05
8.68083e-07
2.90407e-05
4.17129e-07
2.92712e-05
7.76453e-07
2.94992e-05
5.86974e-07
2.98889e-05
4.69062e-07
3.01025e-05
1.36387e-07
3.01952e-05
7.13778e-07
3.04277e-05
1.18715e-07
3.06629e-05
4.56506e-07
3.079e-05
1.65605e-07
3.10331e-05
7.06658e-07
3.10882e-05
2.29138e-07
3.15433e-05
7.22181e-07
3.18556e-05
3.12487e-07
4.88183e-07
3.29284e-05
2.54425e-05
4.27174e-07
2.64563e-05
9.42009e-07
2.73585e-05
7.93649e-07
2.79532e-05
7.4236e-07
2.81938e-05
2.42656e-07
2.85892e-05
4.7275e-07
2.89345e-05
7.18276e-08
2.92086e-05
5.02341e-07
2.94432e-05
3.52406e-07
2.97597e-05
1.52515e-07
2.9889e-05
7.09383e-09
3.01814e-05
4.21364e-07
3.03592e-05
-5.90787e-08
3.06016e-05
2.1413e-07
3.06136e-05
1.53618e-07
3.09142e-05
4.0605e-07
3.10956e-05
4.77268e-08
3.13935e-05
4.24303e-07
3.15093e-05
1.96624e-07
-6.81638e-08
3.20657e-05
2.54136e-05
1.35487e-08
2.64153e-05
-5.96635e-08
2.72609e-05
-5.19716e-08
2.78988e-05
1.04476e-07
2.82298e-05
-8.83547e-08
2.85277e-05
1.74856e-07
2.87746e-05
-1.75048e-07
2.91477e-05
1.29186e-07
2.949e-05
1.00985e-08
2.96987e-05
-5.61489e-08
2.98509e-05
-1.45083e-07
3.0172e-05
1.002e-07
3.02314e-05
-1.18444e-07
3.0379e-05
6.65437e-08
3.05685e-05
-3.59109e-08
3.08677e-05
1.06919e-07
3.10411e-05
-1.25733e-07
3.13646e-05
1.00863e-07
3.16663e-05
-1.05068e-07
-3.53027e-07
3.19511e-05
2.54396e-05
-4.26068e-07
2.64285e-05
-1.04857e-06
2.72591e-05
-8.8254e-07
2.78477e-05
-4.84146e-07
2.82164e-05
-4.57058e-07
2.85639e-05
-1.72655e-07
2.87866e-05
-3.97726e-07
2.91746e-05
-2.58767e-07
2.94099e-05
-2.25211e-07
2.97173e-05
-3.63541e-07
2.98375e-05
-2.65329e-07
3.01134e-05
-1.75721e-07
3.02135e-05
-2.18501e-07
3.0444e-05
-1.63955e-07
3.06726e-05
-2.64513e-07
3.0942e-05
-1.62492e-07
3.10423e-05
-2.26021e-07
3.14294e-05
-2.86286e-07
3.15754e-05
-2.51057e-07
-5.60024e-07
3.17824e-05
2.54391e-05
-8.65168e-07
2.65098e-05
-2.11922e-06
2.73271e-05
-1.69987e-06
2.79635e-05
-1.12051e-06
2.82467e-05
-7.40271e-07
2.85442e-05
-4.70184e-07
2.87864e-05
-6.39941e-07
2.92339e-05
-7.06247e-07
2.95321e-05
-5.2346e-07
2.97345e-05
-5.65895e-07
2.99835e-05
-5.14292e-07
3.01641e-05
-3.56356e-07
3.03054e-05
-3.59836e-07
3.05222e-05
-3.80724e-07
3.06343e-05
-3.7663e-07
3.09179e-05
-4.46065e-07
3.11216e-05
-4.29693e-07
3.13489e-05
-5.13668e-07
3.17211e-05
-6.23196e-07
-5.90441e-07
3.17515e-05
2.55561e-05
-1.42123e-06
2.66055e-05
-3.16863e-06
2.7438e-05
-2.53244e-06
2.80009e-05
-1.68336e-06
2.83024e-05
-1.04173e-06
2.86483e-05
-8.16141e-07
2.89811e-05
-9.72707e-07
2.93732e-05
-1.09836e-06
2.95897e-05
-7.39983e-07
2.98727e-05
-8.48931e-07
2.99944e-05
-6.35975e-07
3.02742e-05
-6.36141e-07
3.03752e-05
-4.60848e-07
3.05937e-05
-5.99217e-07
3.08011e-05
-5.8396e-07
3.10128e-05
-6.57762e-07
3.1241e-05
-6.57978e-07
3.15751e-05
-8.47706e-07
3.17481e-05
-7.96217e-07
-8.40682e-07
3.19983e-05
2.56852e-05
-2.10638e-06
2.67625e-05
-4.24599e-06
2.75665e-05
-3.33645e-06
2.80395e-05
-2.15631e-06
2.84728e-05
-1.47504e-06
2.88733e-05
-1.21666e-06
2.91872e-05
-1.28665e-06
2.9514e-05
-1.42514e-06
2.97641e-05
-9.90063e-07
2.99777e-05
-1.06256e-06
3.0197e-05
-8.55257e-07
3.04213e-05
-8.60384e-07
3.05635e-05
-6.03058e-07
3.07977e-05
-8.33433e-07
3.09526e-05
-7.38892e-07
3.11879e-05
-8.93065e-07
3.13313e-05
-8.01376e-07
3.16669e-05
-1.18325e-06
3.189e-05
-1.0194e-06
-1.11965e-06
3.2169e-05
2.58566e-05
-2.96297e-06
2.69466e-05
-5.33604e-06
2.77669e-05
-4.15671e-06
2.82241e-05
-2.61348e-06
2.87147e-05
-1.96568e-06
2.91152e-05
-1.61719e-06
2.94641e-05
-1.63552e-06
2.97452e-05
-1.70626e-06
2.99828e-05
-1.22763e-06
3.01582e-05
-1.23796e-06
3.03777e-05
-1.07481e-06
3.05299e-05
-1.01256e-06
3.06726e-05
-7.45701e-07
3.0844e-05
-1.00491e-06
3.0963e-05
-8.57845e-07
3.10927e-05
-1.0228e-06
3.11881e-05
-8.96731e-07
3.1393e-05
-1.38814e-06
3.15642e-05
-1.19064e-06
-1.39539e-06
3.18399e-05
2.60479e-05
-4.01085e-06
2.71983e-05
-6.48646e-06
2.80002e-05
-4.95858e-06
2.85197e-05
-3.13302e-06
2.89888e-05
-2.43473e-06
2.93491e-05
-1.97753e-06
2.96085e-05
-1.89488e-06
2.97211e-05
-1.8189e-06
2.98453e-05
-1.3518e-06
2.98845e-05
-1.27724e-06
2.99439e-05
-1.13416e-06
2.99344e-05
-1.00309e-06
2.99559e-05
-7.67212e-07
2.99074e-05
-9.56361e-07
2.98654e-05
-8.1589e-07
2.97767e-05
-9.34023e-07
2.96918e-05
-8.11895e-07
2.96176e-05
-1.31391e-06
2.95418e-05
-1.11484e-06
-1.43127e-06
2.95777e-05
2.63026e-05
-5.31346e-06
2.75109e-05
-7.69476e-06
2.80828e-05
-5.53049e-06
2.8471e-05
-3.52123e-06
2.86269e-05
-2.59062e-06
2.86429e-05
-1.99346e-06
2.84812e-05
-1.73322e-06
2.82042e-05
-1.54194e-06
2.79746e-05
-1.12218e-06
2.76854e-05
-9.87988e-07
2.74131e-05
-8.61854e-07
2.71442e-05
-7.34238e-07
2.69263e-05
-5.49291e-07
2.66421e-05
-6.72144e-07
2.64061e-05
-5.79942e-07
2.61302e-05
-6.58068e-07
2.58897e-05
-5.71459e-07
2.55381e-05
-9.62243e-07
2.52941e-05
-8.7088e-07
-1.27381e-06
2.51366e-05
2.66033e-05
-6.91681e-06
2.71432e-05
-8.23462e-06
2.67853e-05
-5.17262e-06
2.62547e-05
-2.99064e-06
2.55827e-05
-1.91856e-06
2.489e-05
-1.30079e-06
2.41607e-05
-1.00387e-06
2.34776e-05
-8.58889e-07
2.29399e-05
-5.84415e-07
2.24446e-05
-4.92757e-07
2.20168e-05
-4.33993e-07
2.16551e-05
-3.72539e-07
2.13633e-05
-2.5754e-07
2.10373e-05
-3.46145e-07
2.07644e-05
-3.0705e-07
2.04604e-05
-3.54028e-07
2.0196e-05
-3.0708e-07
1.97638e-05
-5.30079e-07
1.93899e-05
-4.96885e-07
-4.36983e-07
1.8553e-05
2.54498e-05
-7.36658e-06
2.32375e-05
-6.02237e-06
2.09922e-05
-2.92733e-06
1.9323e-05
-1.32139e-06
1.80597e-05
-6.55243e-07
1.7122e-05
-3.6311e-07
1.63712e-05
-2.53088e-07
1.57515e-05
-2.39212e-07
1.53115e-05
-1.44359e-07
1.49374e-05
-1.18704e-07
1.46192e-05
-1.15784e-07
1.43525e-05
-1.05831e-07
1.4151e-05
-5.60571e-08
1.39083e-05
-1.0341e-07
1.3697e-05
-9.57729e-08
1.34578e-05
-1.14849e-07
1.32423e-05
-9.15523e-08
1.28946e-05
-1.82351e-07
1.26172e-05
-2.19489e-07
-5.76118e-08
1.22378e-05
1.76334e-05
1.1611e-05
8.68371e-06
7.36233e-06
6.70708e-06
6.34397e-06
6.09089e-06
5.85167e-06
5.70731e-06
5.58861e-06
5.47283e-06
5.367e-06
5.31094e-06
5.20753e-06
5.11176e-06
4.99691e-06
4.90535e-06
4.723e-06
4.50351e-06
4.4459e-06
5.73662e-06
-3.22594e-07
-1.24824e-07
6.08684e-06
-1.92762e-07
-1.57459e-07
6.34087e-06
-9.5757e-08
-1.58277e-07
6.52715e-06
-4.04835e-08
-1.4579e-07
6.70184e-06
-4.46603e-08
-1.30031e-07
6.89333e-06
-6.38252e-08
-1.2767e-07
7.09766e-06
-8.8006e-08
-1.1632e-07
7.30812e-06
-9.61293e-08
-1.14331e-07
7.51483e-06
-8.36011e-08
-1.2311e-07
7.70426e-06
-6.997e-08
-1.19464e-07
7.87704e-06
-7.69008e-08
-9.58758e-08
8.0188e-06
-9.39754e-08
-4.7787e-08
8.13463e-06
-1.29833e-07
1.40081e-08
8.22348e-06
-1.52751e-07
6.3896e-08
8.30923e-06
-1.71075e-07
8.53226e-08
8.40437e-06
-1.7473e-07
7.95968e-08
8.50526e-06
-1.69385e-07
6.84964e-08
8.61689e-06
-1.69697e-07
5.80651e-08
8.7297e-06
-1.75252e-07
6.24385e-08
8.82264e-06
-1.90372e-07
9.74391e-08
8.8928e-06
-2.04881e-07
1.34712e-07
8.95447e-06
-2.17171e-07
1.55504e-07
9.00939e-06
-2.11685e-07
1.56768e-07
9.06079e-06
-1.92345e-07
1.40942e-07
9.12135e-06
-1.56186e-07
9.56281e-08
9.18807e-06
-1.16096e-07
4.93746e-08
9.25866e-06
-7.80256e-08
7.43738e-09
9.31865e-06
-3.98894e-08
-2.01024e-08
9.36563e-06
-8.25417e-09
-3.87223e-08
9.41064e-06
1.64469e-08
-6.146e-08
9.45682e-06
5.1754e-08
-9.79333e-08
9.5082e-06
8.28519e-08
-1.3423e-07
9.56492e-06
1.16729e-07
-1.73455e-07
9.62435e-06
1.51505e-07
-2.10929e-07
9.69741e-06
1.91323e-07
-2.6438e-07
9.78383e-06
2.2548e-07
-3.119e-07
9.88905e-06
2.65067e-07
-3.70288e-07
1.00017e-05
2.8198e-07
-3.94624e-07
1.01368e-05
2.93618e-07
-4.28763e-07
1.02669e-05
2.97354e-07
-4.27402e-07
1.04005e-05
2.57043e-07
-3.90611e-07
1.05246e-05
2.18081e-07
-3.42187e-07
1.06568e-05
1.65199e-07
-2.97462e-07
1.07612e-05
1.2012e-07
-2.24464e-07
1.08779e-05
4.38585e-08
-1.60544e-07
1.10014e-05
-3.79206e-09
-1.19707e-07
1.11318e-05
-6.71207e-08
-6.33684e-08
1.12366e-05
-1.23609e-07
1.88388e-08
1.1359e-05
-2.29648e-07
1.0727e-07
1.14484e-05
-2.92865e-07
2.03492e-07
1.1528e-05
-4.07609e-07
3.27974e-07
1.15582e-05
-4.98354e-07
4.68123e-07
1.15658e-05
-6.04882e-07
5.97333e-07
1.15213e-05
-6.77437e-07
7.21937e-07
1.14503e-05
-7.43595e-07
8.14562e-07
1.13454e-05
-7.49897e-07
8.54807e-07
1.12431e-05
-7.35385e-07
8.37716e-07
1.11315e-05
-6.68317e-07
7.79882e-07
1.10423e-05
-5.71589e-07
6.60826e-07
1.09708e-05
-4.34664e-07
5.06161e-07
1.09195e-05
-2.7842e-07
3.29641e-07
1.08884e-05
-1.08114e-07
1.39216e-07
1.08706e-05
6.58028e-08
-4.7941e-08
1.08725e-05
2.48385e-07
-2.50262e-07
1.08791e-05
4.14434e-07
-4.21036e-07
1.09198e-05
5.79919e-07
-6.20625e-07
1.09693e-05
7.38371e-07
-7.87895e-07
1.10755e-05
8.99215e-07
-1.00541e-06
1.11865e-05
1.03573e-06
-1.14679e-06
1.13545e-05
1.17894e-06
-1.34694e-06
1.15951e-05
1.26139e-06
-1.50191e-06
1.18653e-05
1.43569e-06
-1.70596e-06
1.22342e-05
1.40233e-06
-1.77115e-06
1.25502e-05
1.50698e-06
-1.82299e-06
1.29815e-05
1.2899e-06
-1.72126e-06
1.3311e-05
1.32366e-06
-1.6531e-06
1.3721e-05
9.27512e-07
-1.33759e-06
1.40149e-05
7.96895e-07
-1.0908e-06
1.43178e-05
2.61426e-07
-5.64257e-07
1.45704e-05
9.37056e-09
-2.6204e-07
1.47876e-05
-6.60775e-07
4.43608e-07
1.49425e-05
-1.00016e-06
8.4524e-07
1.50494e-05
-1.75605e-06
1.64917e-06
1.50574e-05
-2.08806e-06
2.08008e-06
1.50238e-05
-2.83433e-06
2.86794e-06
1.48054e-05
-3.07595e-06
3.29431e-06
1.44901e-05
-3.58105e-06
3.89641e-06
1.39547e-05
-3.44395e-06
3.97934e-06
1.3484e-05
-3.4816e-06
3.95226e-06
1.31086e-05
-2.82156e-06
3.19699e-06
1.30171e-05
-2.46552e-06
2.55698e-06
1.28231e-05
-1.47542e-06
1.66941e-06
1.27697e-05
-9.52558e-07
1.00597e-06
1.2536e-05
2.17317e-07
1.63656e-08
1.27239e-05
4.92138e-07
-6.79981e-07
1.28763e-05
1.43432e-06
-1.58673e-06
1.33255e-05
1.29671e-06
-1.7459e-06
1.36964e-05
1.96003e-06
-2.33091e-06
1.43683e-05
1.48811e-06
-2.16007e-06
1.46281e-05
2.34743e-06
-2.60718e-06
1.53286e-05
1.31053e-06
-2.01101e-06
1.52311e-05
2.4528e-06
-2.35538e-06
1.57062e-05
8.76713e-07
-1.35178e-06
1.54245e-05
2.22668e-06
-1.945e-06
1.55901e-05
4.81961e-07
-6.47487e-07
1.52666e-05
1.97175e-06
-1.64832e-06
1.53346e-05
2.68264e-07
-3.36251e-07
1.49365e-05
1.98293e-06
-1.5848e-06
1.52502e-05
1.5493e-07
-4.68666e-07
1.47555e-05
2.30611e-06
-1.81143e-06
1.5386e-05
9.93977e-08
-7.29909e-07
1.49055e-05
2.80635e-06
-2.32584e-06
1.57217e-05
2.41158e-07
-1.05729e-06
1.54291e-05
3.21884e-06
-2.92624e-06
1.62588e-05
5.56544e-07
-1.38623e-06
1.60445e-05
3.78579e-06
-3.57159e-06
1.72714e-05
4.83991e-07
-1.7108e-06
1.687e-05
4.35876e-06
-3.95739e-06
1.81098e-05
3.54877e-07
-1.59469e-06
1.78741e-05
4.23053e-06
-3.9948e-06
1.8563e-05
9.19574e-08
-7.80896e-07
1.82482e-05
3.70401e-06
-3.38919e-06
1.89275e-05
-5.982e-07
-8.11224e-08
1.83805e-05
3.38381e-06
-2.83679e-06
1.92366e-05
-1.46451e-06
6.08374e-07
1.87374e-05
3.02122e-06
-2.52198e-06
1.956e-05
-2.03561e-06
1.21294e-06
1.93084e-05
2.33576e-06
-2.08409e-06
2.02236e-05
-2.7318e-06
1.81659e-06
2.01233e-05
1.43333e-06
-1.33301e-06
2.13031e-05
-3.9289e-06
2.74911e-06
2.12287e-05
2.05593e-07
-1.31251e-07
2.25183e-05
-5.16163e-06
3.87201e-06
2.25937e-05
-1.43331e-06
1.35797e-06
2.37813e-05
-6.19872e-06
5.01115e-06
2.39745e-05
-2.92846e-06
2.73524e-06
2.51758e-05
-6.95461e-06
5.75324e-06
2.52683e-05
-3.9093e-06
3.81684e-06
2.64548e-05
-7.38253e-06
6.19603e-06
2.64392e-05
-4.0821e-06
4.09773e-06
2.74753e-05
-7.31243e-06
6.27631e-06
2.72942e-05
-4.01556e-06
4.19669e-06
2.81527e-05
-6.39159e-06
5.53311e-06
2.78573e-05
-3.81848e-06
4.11387e-06
2.85428e-05
-5.41244e-06
4.72687e-06
2.81432e-05
-3.02136e-06
3.42102e-06
2.87428e-05
-4.70943e-06
4.10978e-06
2.82752e-05
-2.12343e-06
2.59106e-06
2.87563e-05
-3.6217e-06
3.14063e-06
2.83376e-05
-1.53284e-06
1.95153e-06
2.86528e-05
-2.44021e-06
2.12501e-06
2.82993e-05
-7.80612e-07
1.13408e-06
2.85666e-05
-1.54411e-06
1.27683e-06
2.81445e-05
2.17165e-07
2.04888e-07
2.85024e-05
-8.1735e-07
4.59525e-07
2.80001e-05
1.12819e-06
-6.25879e-07
2.83719e-05
9.86789e-08
-4.70469e-07
2.79127e-05
1.90043e-06
-1.44125e-06
2.82456e-05
9.08201e-07
-1.24114e-06
2.77623e-05
2.7803e-06
-2.29704e-06
2.81591e-05
1.57507e-06
-1.97186e-06
2.76755e-05
3.59068e-06
-3.10702e-06
2.80172e-05
2.31453e-06
-2.6562e-06
2.75907e-05
4.21769e-06
-3.79126e-06
2.78273e-05
2.86615e-06
-3.10267e-06
2.74132e-05
4.85759e-06
-4.44349e-06
2.764e-05
3.19657e-06
-3.42346e-06
2.71729e-05
5.40258e-06
-4.93545e-06
2.75331e-05
3.3741e-06
-3.73425e-06
2.698e-05
5.83265e-06
-5.27958e-06
2.75321e-05
3.219e-06
-3.77115e-06
2.68097e-05
6.13957e-06
-5.41709e-06
2.75043e-05
2.71481e-06
-3.40944e-06
2.67951e-05
6.11686e-06
-5.40763e-06
2.74892e-05
1.9731e-06
-2.66718e-06
2.69632e-05
5.76288e-06
-5.23695e-06
2.74466e-05
1.30151e-06
-1.78484e-06
2.71691e-05
5.08653e-06
-4.80908e-06
2.7529e-05
6.01402e-07
-9.61267e-07
2.74456e-05
4.26114e-06
-4.17773e-06
2.75708e-05
-2.11781e-07
8.65206e-08
2.77755e-05
3.16939e-06
-3.3741e-06
2.75861e-05
-1.05509e-06
1.24455e-06
2.79472e-05
1.91252e-06
-2.27362e-06
2.76109e-05
-1.99652e-06
2.33283e-06
2.78698e-05
6.62113e-07
-9.21091e-07
2.76336e-05
-3.23362e-06
3.46985e-06
2.76367e-05
-3.96277e-07
3.93163e-07
2.73311e-05
-4.64127e-06
4.94685e-06
2.71874e-05
-1.53528e-06
1.67903e-06
2.67747e-05
-6.05846e-06
6.4711e-06
2.61661e-05
-2.37057e-06
2.97923e-06
2.56563e-05
-7.38894e-06
7.89872e-06
2.44385e-05
-2.72275e-06
3.94051e-06
2.37169e-05
-7.89996e-06
8.6216e-06
2.16544e-05
-1.86968e-06
3.93221e-06
2.07872e-05
-7.0745e-06
7.94163e-06
1.73632e-05
2.07879e-06
1.34524e-06
1.73069e-05
-3.41214e-06
3.46848e-06
1.02471e-05
-1.18638e-05
1.89235e-05
1.33711e-05
-3.1807e-07
1.33683e-05
-1.89972e-07
1.33888e-05
-1.16218e-07
1.34206e-05
-7.22808e-08
1.34954e-05
-1.19487e-07
1.35947e-05
-1.63102e-07
1.37094e-05
-2.02719e-07
1.38266e-05
-2.134e-07
1.39375e-05
-1.94433e-07
1.40417e-05
-1.74203e-07
1.41403e-05
-1.75533e-07
1.42152e-05
-1.68819e-07
1.42809e-05
-1.95565e-07
1.43338e-05
-2.05606e-07
1.43868e-05
-2.24138e-07
1.44499e-05
-2.3779e-07
1.45119e-05
-2.31384e-07
1.45866e-05
-2.44408e-07
1.4652e-05
-2.40641e-07
1.47132e-05
-2.51584e-07
1.47537e-05
-2.45373e-07
1.47901e-05
-2.53553e-07
1.48169e-05
-2.38478e-07
1.48447e-05
-2.20219e-07
1.48836e-05
-1.95032e-07
1.49197e-05
-1.52233e-07
1.49582e-05
-1.16493e-07
1.49906e-05
-7.23328e-08
1.50129e-05
-3.04941e-08
1.50345e-05
-5.17233e-09
1.50521e-05
3.41073e-08
1.50755e-05
5.95364e-08
1.51082e-05
8.39845e-08
1.51432e-05
1.16479e-07
1.51942e-05
1.40306e-07
1.52474e-05
1.72307e-07
1.5328e-05
1.84527e-07
1.53992e-05
2.10715e-07
1.55031e-05
1.89742e-07
1.55861e-05
2.14341e-07
1.56974e-05
1.45736e-07
1.57701e-05
1.45388e-07
1.58817e-05
5.36224e-08
1.59654e-05
3.63909e-08
1.60619e-05
-5.26044e-08
1.61514e-05
-9.32796e-08
1.62607e-05
-1.76462e-07
1.63366e-05
-1.99546e-07
1.64249e-05
-3.17938e-07
1.64867e-05
-3.54576e-07
1.6532e-05
-4.52964e-07
1.65556e-05
-5.21971e-07
1.65362e-05
-5.85421e-07
1.65033e-05
-6.44574e-07
1.64249e-05
-6.65149e-07
1.63395e-05
-6.6452e-07
1.6223e-05
-6.18895e-07
1.61157e-05
-5.61012e-07
1.59862e-05
-4.4211e-07
1.5885e-05
-3.33412e-07
1.57824e-05
-1.75906e-07
1.56813e-05
-6.95971e-09
1.56059e-05
1.41146e-07
1.55268e-05
3.27482e-07
1.54839e-05
4.57337e-07
1.54322e-05
6.31637e-07
1.5447e-05
7.2364e-07
1.54384e-05
9.07743e-07
1.55364e-05
9.37704e-07
1.5578e-05
1.13737e-06
1.57719e-05
1.06749e-06
1.59336e-05
1.27405e-06
1.62156e-05
1.12025e-06
1.64836e-05
1.23907e-06
1.68011e-05
9.72336e-07
1.71594e-05
9.65396e-07
1.75002e-05
5.86739e-07
1.7852e-05
4.45093e-07
1.81889e-05
-7.5478e-08
1.85039e-05
-3.05632e-07
1.87858e-05
-9.42715e-07
1.90071e-05
-1.22149e-06
1.91947e-05
-1.94358e-06
1.92512e-05
-2.14459e-06
1.92673e-05
-2.85038e-06
1.91009e-05
-2.90957e-06
1.89371e-05
-3.41731e-06
1.86483e-05
-3.15515e-06
1.84604e-05
-3.29362e-06
1.81661e-05
-2.52728e-06
1.80509e-05
-2.35034e-06
1.77812e-05
-1.20571e-06
1.78192e-05
-9.90586e-07
1.77243e-05
3.12198e-07
1.78494e-05
3.67125e-07
1.76917e-05
1.59199e-06
1.78012e-05
1.18715e-06
1.74123e-05
2.34898e-06
1.75845e-05
1.31587e-06
1.72231e-05
2.70881e-06
1.74639e-05
1.06973e-06
1.72216e-05
2.69519e-06
1.74106e-05
6.87725e-07
1.71674e-05
2.46979e-06
1.74176e-05
2.31822e-07
1.69706e-05
2.41877e-06
1.751e-05
-2.71128e-07
1.68328e-05
2.66004e-06
1.75633e-05
-5.75567e-07
1.69285e-05
2.94095e-06
1.75695e-05
-5.41631e-07
1.71283e-05
3.2476e-06
1.78129e-05
-4.43409e-07
1.7361e-05
3.67072e-06
1.83595e-05
-4.41973e-07
1.7903e-05
4.24232e-06
1.89717e-05
-5.84737e-07
1.8765e-05
4.56542e-06
1.95588e-05
-4.38882e-07
1.95044e-05
4.28496e-06
2.02331e-05
-6.36827e-07
1.99061e-05
4.03102e-06
2.07774e-05
-1.4695e-06
2.03747e-05
3.78651e-06
2.10579e-05
-2.14764e-06
2.0847e-05
3.23207e-06
2.14433e-05
-2.63192e-06
2.14326e-05
2.34649e-06
2.2257e-05
-3.55623e-06
2.23273e-05
1.36303e-06
2.33729e-05
-4.97447e-06
2.35674e-05
1.11379e-08
2.4653e-05
-6.24729e-06
2.49863e-05
-1.76655e-06
2.6092e-05
-7.30449e-06
2.63647e-05
-3.20115e-06
2.75695e-05
-8.15938e-06
2.76106e-05
-3.95041e-06
2.87779e-05
-8.54984e-06
2.86466e-05
-3.95076e-06
2.96161e-05
-8.28194e-06
2.92721e-05
-3.67162e-06
3.02099e-05
-7.3294e-06
2.96359e-05
-3.24447e-06
3.05257e-05
-6.30223e-06
2.99023e-05
-2.39799e-06
3.07045e-05
-5.5116e-06
3.00303e-05
-1.44925e-06
3.08688e-05
-4.46016e-06
3.01763e-05
-8.40312e-07
3.09969e-05
-3.2608e-06
3.04202e-05
-2.03959e-07
3.1265e-05
-2.38894e-06
3.0757e-05
7.25212e-07
3.16889e-05
-1.74921e-06
3.11797e-05
1.63732e-06
3.21413e-05
-8.62878e-07
3.17141e-05
2.3276e-06
3.25587e-05
6.35706e-08
3.21683e-05
3.17074e-06
3.29483e-05
7.95039e-07
3.2484e-05
4.05498e-06
3.31437e-05
1.65483e-06
3.27115e-05
4.6499e-06
3.31223e-05
2.45538e-06
3.26101e-05
5.36978e-06
3.29574e-05
2.84926e-06
3.22718e-05
6.08817e-06
3.26252e-05
3.0207e-06
3.18879e-05
6.56994e-06
3.21121e-05
2.99488e-06
3.14908e-05
6.76078e-06
3.14896e-05
2.71608e-06
3.11274e-05
6.47904e-06
3.0841e-05
2.25951e-06
3.07899e-05
5.81397e-06
3.03642e-05
1.72726e-06
3.05799e-05
4.8708e-06
3.00082e-05
1.17312e-06
3.05361e-05
3.7332e-06
2.9838e-05
4.86368e-07
3.04249e-05
2.58242e-06
2.98067e-05
-4.36836e-07
3.03357e-05
1.38353e-06
2.98471e-05
-1.5079e-06
3.02275e-05
2.81705e-07
2.97925e-05
-2.79866e-06
3.01012e-05
-7.05006e-07
2.94878e-05
-4.02785e-06
2.96552e-05
-1.70264e-06
2.8747e-05
-5.15029e-06
2.86502e-05
-2.27374e-06
2.73954e-05
-6.1342e-06
2.68593e-05
-2.18656e-06
2.52613e-05
-6.30198e-06
2.43819e-05
-9.90334e-07
2.27411e-05
-5.43371e-06
2.26036e-05
2.21629e-06
2.1572e-05
-2.38051e-06
7.30746e-06
2.45117e-05
2.03166e-05
-8.01074e-08
2.0036e-05
9.06488e-08
1.98789e-05
4.08987e-08
1.98717e-05
-6.5122e-08
1.99739e-05
-2.21662e-07
2.00885e-05
-2.7769e-07
2.0172e-05
-2.86256e-07
2.02231e-05
-2.64459e-07
2.02548e-05
-2.26105e-07
2.02858e-05
-2.05253e-07
2.03319e-05
-2.21674e-07
2.03739e-05
-2.10752e-07
2.04249e-05
-2.46587e-07
2.04624e-05
-2.43107e-07
2.04929e-05
-2.54668e-07
2.05296e-05
-2.74489e-07
2.0557e-05
-2.58793e-07
2.0596e-05
-2.83416e-07
2.06289e-05
-2.73473e-07
2.06636e-05
-2.86305e-07
2.0691e-05
-2.72757e-07
2.07087e-05
-2.71271e-07
2.07232e-05
-2.53019e-07
2.07267e-05
-2.2366e-07
2.07386e-05
-2.06921e-07
2.07411e-05
-1.54759e-07
2.07612e-05
-1.36634e-07
2.07642e-05
-7.52784e-08
2.07841e-05
-5.04439e-08
2.07802e-05
-1.27933e-09
2.07959e-05
1.84711e-08
2.07913e-05
6.4064e-08
2.08102e-05
6.50866e-08
2.08234e-05
1.03316e-07
2.08547e-05
1.08972e-07
2.08887e-05
1.38342e-07
2.09441e-05
1.29112e-07
2.09943e-05
1.60557e-07
2.10611e-05
1.22922e-07
2.11211e-05
1.54313e-07
2.11932e-05
7.36491e-08
2.12613e-05
7.73291e-08
2.13101e-05
4.78e-09
2.13938e-05
-4.73312e-08
2.1448e-05
-1.06792e-07
2.1517e-05
-1.62223e-07
2.15879e-05
-2.47442e-07
2.16471e-05
-2.58702e-07
2.17028e-05
-3.73601e-07
2.17336e-05
-3.85428e-07
2.1762e-05
-4.8136e-07
2.1761e-05
-5.20972e-07
2.17328e-05
-5.57233e-07
2.16883e-05
-6.00012e-07
2.16157e-05
-5.92603e-07
2.1532e-05
-5.80751e-07
2.14357e-05
-5.2265e-07
2.13217e-05
-4.47e-07
2.12261e-05
-3.46529e-07
2.10935e-05
-2.00826e-07
2.10232e-05
-1.05557e-07
2.08749e-05
1.41352e-07
2.08206e-05
1.9546e-07
2.06852e-05
4.62807e-07
2.06388e-05
5.03731e-07
2.05449e-05
7.25598e-07
2.05164e-05
7.52071e-07
2.04908e-05
9.33349e-07
2.05042e-05
9.2433e-07
2.05663e-05
1.07528e-06
2.06281e-05
1.00565e-06
2.08036e-05
1.09859e-06
2.09452e-05
9.78687e-07
2.12057e-05
9.78483e-07
2.14299e-05
7.48207e-07
2.17183e-05
6.76984e-07
2.20341e-05
2.70961e-07
2.23008e-05
1.78392e-07
2.26528e-05
-4.27488e-07
2.29054e-05
-5.58222e-07
2.32053e-05
-1.24269e-06
2.33989e-05
-1.41507e-06
2.35626e-05
-2.10725e-06
2.36552e-05
-2.2372e-06
2.36331e-05
-2.82826e-06
2.35903e-05
-2.86678e-06
2.33819e-05
-3.20889e-06
2.32029e-05
-2.97616e-06
2.29399e-05
-3.03069e-06
2.26869e-05
-2.27425e-06
2.25537e-05
-2.21715e-06
2.23311e-05
-9.83069e-07
2.2379e-05
-1.03848e-06
2.21233e-05
5.6786e-07
2.23142e-05
1.76229e-07
2.19815e-05
1.92466e-06
2.21701e-05
9.98555e-07
2.17414e-05
2.77768e-06
2.1774e-05
1.28326e-06
2.13144e-05
3.16848e-06
2.12116e-05
1.17244e-06
2.0657e-05
3.24981e-06
2.06258e-05
7.18949e-07
1.98342e-05
3.26139e-06
2.0101e-05
-3.50241e-08
1.91894e-05
3.33039e-06
1.95596e-05
-6.41291e-07
1.88285e-05
3.39112e-06
1.913e-05
-8.77098e-07
1.86381e-05
3.43284e-06
1.89743e-05
-8.77766e-07
1.85997e-05
3.6222e-06
1.91202e-05
-9.63964e-07
1.87795e-05
4.01149e-06
1.94414e-05
-1.10395e-06
1.92983e-05
4.38551e-06
1.98041e-05
-1.09062e-06
1.99589e-05
4.4107e-06
2.04742e-05
-9.5419e-07
2.05128e-05
4.24634e-06
2.13297e-05
-1.45373e-06
2.11434e-05
4.21733e-06
2.18982e-05
-2.22431e-06
2.17572e-05
3.92754e-06
2.23189e-05
-2.70941e-06
2.23432e-05
3.20782e-06
2.3084e-05
-3.37275e-06
2.32439e-05
2.1866e-06
2.41338e-05
-4.4461e-06
2.45566e-05
9.40199e-07
2.54437e-05
-5.86157e-06
2.60585e-05
-6.03655e-07
2.69808e-05
-7.16956e-06
2.75596e-05
-2.34543e-06
2.84623e-05
-8.20713e-06
2.88193e-05
-3.55819e-06
2.97143e-05
-9.05434e-06
2.96826e-05
-3.91874e-06
3.04391e-05
-9.30632e-06
3.01827e-05
-3.69435e-06
3.06788e-05
-8.77804e-06
3.02835e-05
-3.2763e-06
3.06835e-05
-7.72942e-06
3.01091e-05
-2.67011e-06
3.05803e-05
-6.77341e-06
2.9968e-05
-1.78563e-06
3.05004e-05
-6.04401e-06
2.98616e-05
-8.10494e-07
3.05534e-05
-5.15193e-06
2.98573e-05
-1.4425e-07
3.06808e-05
-4.08429e-06
3.00503e-05
4.26525e-07
3.08617e-05
-3.20029e-06
3.04775e-05
1.10941e-06
3.13035e-05
-2.57522e-06
3.10363e-05
1.90449e-06
3.20897e-05
-1.91621e-06
3.18757e-05
2.54156e-06
3.29527e-05
-1.01342e-06
3.28639e-05
3.25948e-06
3.39508e-05
-2.91846e-07
3.38755e-05
4.13032e-06
3.48963e-05
6.33996e-07
3.47815e-05
4.76476e-06
3.56756e-05
1.56121e-06
3.54746e-05
5.57076e-06
3.62201e-05
2.1038e-06
3.58991e-05
6.40921e-06
3.63707e-05
2.54908e-06
3.60939e-05
6.84672e-06
3.61511e-05
2.93764e-06
3.60182e-05
6.89367e-06
3.56338e-05
3.10054e-06
3.56975e-05
6.41535e-06
3.50408e-05
2.91622e-06
3.52459e-05
5.60882e-06
3.44804e-05
2.49277e-06
3.48275e-05
4.52364e-06
3.39794e-05
2.02132e-06
3.42971e-05
3.41543e-06
3.36086e-05
1.17485e-06
3.37705e-05
2.42059e-06
3.32203e-05
1.13318e-07
3.32767e-05
1.32713e-06
3.27523e-05
-9.83456e-07
3.27848e-05
2.49132e-07
3.21568e-05
-2.17062e-06
3.216e-05
-7.08241e-07
3.13912e-05
-3.25907e-06
3.1292e-05
-1.60342e-06
3.02791e-05
-4.13738e-06
3.01e-05
-2.09458e-06
2.86782e-05
-4.71244e-06
2.84817e-05
-1.99008e-06
2.67596e-05
-4.57988e-06
2.6753e-05
-9.83702e-07
2.48234e-05
-3.50415e-06
2.55793e-05
1.46039e-06
2.39711e-05
-7.72312e-07
4.72253e-06
2.65561e-05
2.52117e-05
-7.34341e-08
2.52528e-05
4.95692e-08
2.53364e-05
-4.26851e-08
2.54278e-05
-1.56522e-07
2.55241e-05
-3.17933e-07
2.56029e-05
-3.56494e-07
2.56634e-05
-3.46755e-07
2.56845e-05
-2.85558e-07
2.56914e-05
-2.33086e-07
2.56781e-05
-1.91922e-07
2.56769e-05
-2.20443e-07
2.56705e-05
-2.0441e-07
2.56898e-05
-2.65858e-07
2.5702e-05
-2.55336e-07
2.57351e-05
-2.87701e-07
2.57616e-05
-3.00995e-07
2.57897e-05
-2.86871e-07
2.58006e-05
-2.94352e-07
2.58162e-05
-2.89057e-07
2.58154e-05
-2.85489e-07
2.58216e-05
-2.79004e-07
2.58236e-05
-2.73224e-07
2.58234e-05
-2.52823e-07
2.58193e-05
-2.19605e-07
2.58173e-05
-2.04923e-07
2.58058e-05
-1.43258e-07
2.58124e-05
-1.43199e-07
2.58132e-05
-7.61042e-08
2.58077e-05
-4.49963e-08
2.58386e-05
-3.21559e-08
2.58136e-05
4.34569e-08
2.58532e-05
2.44572e-08
2.58283e-05
9.00377e-08
2.58649e-05
6.66767e-08
2.58534e-05
1.20535e-07
2.58949e-05
9.68216e-08
2.59047e-05
1.1926e-07
2.5963e-05
1.02311e-07
2.59892e-05
9.66782e-08
2.60505e-05
9.3033e-08
2.61043e-05
1.98448e-08
2.61505e-05
3.11119e-08
2.62098e-05
-5.45339e-08
2.62454e-05
-8.28438e-08
2.63047e-05
-1.66141e-07
2.63216e-05
-1.7908e-07
2.63764e-05
-3.02268e-07
2.63726e-05
-2.54859e-07
2.64197e-05
-4.20787e-07
2.63799e-05
-3.4562e-07
2.64055e-05
-5.06896e-07
2.63445e-05
-4.60041e-07
2.6335e-05
-5.47729e-07
2.62492e-05
-5.14141e-07
2.62189e-05
-5.62327e-07
2.61052e-05
-4.67055e-07
2.60611e-05
-4.78555e-07
2.59392e-05
-3.25066e-07
2.58746e-05
-2.81976e-07
2.57709e-05
-9.71441e-08
2.56875e-05
-2.21614e-08
2.56126e-05
2.1625e-07
2.55268e-05
2.81301e-07
2.54771e-05
5.12517e-07
2.53954e-05
5.85446e-07
2.53839e-05
7.37017e-07
2.53234e-05
8.1262e-07
2.53513e-05
9.05486e-07
2.53496e-05
9.25961e-07
2.54157e-05
1.00922e-06
2.54933e-05
9.28059e-07
2.56051e-05
9.86765e-07
2.57617e-05
8.22093e-07
2.59243e-05
8.15845e-07
2.61551e-05
5.17483e-07
2.63273e-05
5.04749e-07
2.66095e-05
-1.12636e-08
2.68088e-05
-2.09224e-08
2.70577e-05
-6.76301e-07
2.72782e-05
-7.78813e-07
2.74398e-05
-1.40426e-06
2.7615e-05
-1.59027e-06
2.76443e-05
-2.13651e-06
2.77161e-05
-2.30902e-06
2.75869e-05
-2.69908e-06
2.7505e-05
-2.7849e-06
2.72294e-05
-2.93327e-06
2.69877e-05
-2.73446e-06
2.67386e-05
-2.78152e-06
2.64041e-05
-1.93983e-06
2.63322e-05
-2.1452e-06
2.59746e-05
-6.25459e-07
2.60851e-05
-1.14895e-06
2.57525e-05
9.00392e-07
2.59919e-05
-6.31551e-08
2.56599e-05
2.25669e-06
2.59018e-05
7.56684e-07
2.55108e-05
3.16863e-06
2.56947e-05
1.09936e-06
2.51292e-05
3.73397e-06
2.53473e-05
9.54358e-07
2.45243e-05
4.07277e-06
2.47831e-05
4.60162e-07
2.38273e-05
4.21719e-06
2.39418e-05
-1.49528e-07
2.30969e-05
4.17537e-06