/*--------------------------------*- C++ -*----------------------------------*\
| =========                 |                                                 |
| \\      /  F ield         | OpenFOAM: The Open Source CFD Toolbox           |
|  \\    /   O peration     | Version:  2.4.0                                 |
|   \\  /    A nd           | Web:      www.OpenFOAM.org                      |
|    \\/     M anipulation  |                                                 |
\*---------------------------------------------------------------------------*/
FoamFile
{
    version     2.0;
    format      ascii;
    class       volVectorField;
    location    "1.4";
    object      U;
}
// * * * * * * * * * * * * * * * * * * * * * * * * * * * * * * * * * * * * * //

dimensions      [0 1 -1 0 0 0 0];

internalField   nonuniform List<vector> 
8800
(
(8.09263 0.38793 0)
(5.45254 0.242551 0)
(3.90871 0.0431194 0)
(3.1603 -0.0154138 0)
(2.79569 -0.0185938 0)
(2.60723 -0.0108857 0)
(2.47212 -0.00508524 0)
(2.39303 -0.00346742 0)
(2.30647 -0.000752413 0)
(2.26358 -0.000509 0)
(2.20117 -0.00110224 0)
(2.18547 -0.000327147 0)
(2.12707 0.000782924 0)
(2.11938 -0.000638799 0)
(2.06123 0.000869706 0)
(2.06068 -0.000496803 0)
(2.00192 0.000431364 0)
(2.00225 -0.00212103 0)
(2.00403 0.00996366 0)
(1.77978 -0.0663637 0)
(10.0799 0.837893 0)
(9.67114 0.868005 0)
(8.85721 0.507647 0)
(8.10132 0.261817 0)
(7.47321 0.137008 0)
(7.03296 0.0827821 0)
(6.66292 0.0555318 0)
(6.44013 0.0377611 0)
(6.18279 0.0320264 0)
(6.06813 0.024705 0)
(5.88201 0.0171631 0)
(5.83019 0.0165929 0)
(5.66865 0.0182044 0)
(5.65453 0.0124373 0)
(5.4981 0.0175153 0)
(5.49991 0.0105372 0)
(5.3582 0.019293 0)
(5.34225 -0.00594777 0)
(5.31566 0.0270709 0)
(5.15139 -0.0378876 0)
(10.0424 0.629706 0)
(10.6915 0.863573 0)
(10.8348 0.602351 0)
(10.7286 0.373926 0)
(10.4189 0.254465 0)
(10.1356 0.199035 0)
(9.77673 0.153636 0)
(9.56859 0.118451 0)
(9.23867 0.098531 0)
(9.11123 0.0764557 0)
(8.85172 0.0572326 0)
(8.78161 0.0511676 0)
(8.55611 0.0482596 0)
(8.53709 0.0356078 0)
(8.3231 0.0440526 0)
(8.3214 0.0286583 0)
(8.13577 0.0462128 0)
(8.10964 0.0018512 0)
(8.04032 0.0306764 0)
(7.94513 -0.0894602 0)
(9.94406 0.454125 0)
(10.6386 0.707867 0)
(11.107 0.548069 0)
(11.4419 0.351207 0)
(11.4868 0.25624 0)
(11.5436 0.2333 0)
(11.3992 0.201053 0)
(11.4042 0.171731 0)
(11.1955 0.154306 0)
(11.1803 0.124199 0)
(10.9851 0.10267 0)
(10.9604 0.0913435 0)
(10.774 0.0894006 0)
(10.7636 0.0666306 0)
(10.581 0.0807544 0)
(10.5591 0.0535145 0)
(10.4185 0.0815764 0)
(10.3367 0.0174079 0)
(10.3132 0.0487786 0)
(10.1777 -0.107626 0)
(9.93728 0.340486 0)
(10.5022 0.569432 0)
(10.9635 0.464674 0)
(11.3976 0.298753 0)
(11.565 0.203298 0)
(11.7704 0.19924 0)
(11.7816 0.174835 0)
(11.9188 0.16011 0)
(11.8888 0.15858 0)
(11.9858 0.132009 0)
(11.9623 0.109442 0)
(12.0011 0.107974 0)
(11.9778 0.096188 0)
(11.9864 0.0841882 0)
(11.9681 0.0930037 0)
(11.9079 0.0783613 0)
(11.9546 0.0942352 0)
(11.7884 0.0601838 0)
(11.9282 0.046829 0)
(11.6994 -0.0212623 0)
(9.94323 0.250895 0)
(10.4052 0.451821 0)
(10.83 0.380366 0)
(11.2488 0.247302 0)
(11.4691 0.154805 0)
(11.6749 0.16271 0)
(11.7445 0.14872 0)
(11.8811 0.132276 0)
(11.9302 0.128915 0)
(12.034 0.104061 0)
(12.1195 0.0905214 0)
(12.1834 0.0918413 0)
(12.2734 0.0922409 0)
(12.2947 0.0726895 0)
(12.4144 0.0888189 0)
(12.3588 0.070179 0)
(12.4909 0.0872048 0)
(12.4159 0.0677425 0)
(12.5376 0.0763812 0)
(12.481 -0.00755022 0)
(9.97825 0.17765 0)
(10.3289 0.342869 0)
(10.7237 0.295679 0)
(11.1269 0.212364 0)
(11.3858 0.114697 0)
(11.5968 0.121206 0)
(11.6327 0.100648 0)
(11.8349 0.107619 0)
(11.8167 0.108889 0)
(11.9862 0.0901696 0)
(11.9907 0.0560511 0)
(12.1649 0.0850366 0)
(12.1897 0.0430523 0)
(12.3016 0.0703879 0)
(12.3459 0.0500354 0)
(12.4711 0.0898791 0)
(12.3846 0.0476609 0)
(12.5726 0.106062 0)
(12.4531 0.052256 0)
(12.6477 0.188169 0)
(9.98396 0.110149 0)
(10.2872 0.253574 0)
(10.684 0.199551 0)
(11.0473 0.163141 0)
(11.3022 0.0543962 0)
(11.5082 0.121843 0)
(11.5911 0.0566011 0)
(11.7672 0.0977597 0)
(11.7163 0.0472033 0)
(11.8876 0.0888338 0)
(11.9935 0.00834659 0)
(12.0638 0.0798588 0)
(12.0674 0.0255606 0)
(12.2678 0.0735778 0)
(12.2369 0.00158211 0)
(12.3986 0.106574 0)
(12.3874 0.00400599 0)
(12.496 0.114863 0)
(12.506 0.0397492 0)
(12.5404 0.125743 0)
(9.98834 0.0677012 0)
(10.2356 0.131518 0)
(10.6084 0.13023 0)
(11.0212 0.109047 0)
(11.2603 0.0455091 0)
(11.4219 0.0505213 0)
(11.6219 0.0268059 0)
(11.6741 0.0532276 0)
(11.7434 0.074864 0)
(11.834 0.00624114 0)
(11.9374 0.0178604 0)
(11.9597 0.0606528 0)
(12.141 -0.000255466 0)
(12.1629 0.0155023 0)
(12.2907 0.03079 0)
(12.2348 0.0311578 0)
(12.4199 0.0420267 0)
(12.3922 0.0325061 0)
(12.4559 0.0435053 0)
(12.3535 -0.00467716 0)
(10.0091 0.0213451 0)
(10.2126 0.0513888 0)
(10.6041 0.026625 0)
(10.946 0.039081 0)
(11.2711 0.00406847 0)
(11.4294 0.0443398 0)
(11.5711 -0.0119502 0)
(11.607 0.0409833 0)
(11.7506 -0.000934654 0)
(11.8558 0.026821 0)
(11.8703 -0.0208681 0)
(11.9854 0.0220918 0)
(12.1187 -0.00751494 0)
(12.0736 0.0212561 0)
(12.2128 -4.37732e-05 0)
(12.2281 0.0478298 0)
(12.4023 -0.0305901 0)
(12.3273 0.0529804 0)
(12.5017 -0.00624308 0)
(12.3652 -0.0196631 0)
(9.99773 -0.0183941 0)
(10.2479 -0.0615698 0)
(10.5762 -0.0392228 0)
(10.9802 -0.0166626 0)
(11.1878 -0.0233707 0)
(11.5068 -0.00731864 0)
(11.5139 -0.0249944 0)
(11.6811 -0.0154856 0)
(11.6871 0.00522395 0)
(11.8708 -0.0363835 0)
(11.8554 -0.00922103 0)
(12.0199 -0.00202069 0)
(12.0303 -0.0180341 0)
(12.1643 -0.00729102 0)
(12.1521 -0.00896542 0)
(12.4019 -0.0227142 0)
(12.2754 0.00296305 0)
(12.4671 -0.0316847 0)
(12.4015 -0.0138238 0)
(12.4055 -0.0365469 0)
(9.9978 -0.066012 0)
(10.2262 -0.146436 0)
(10.656 -0.133666 0)
(10.9562 -0.0830688 0)
(11.3215 -0.065814 0)
(11.412 -0.0292879 0)
(11.5966 -0.0501806 0)
(11.5836 -0.0399326 0)
(11.8403 -0.0465021 0)
(11.8043 -0.0367601 0)
(11.9461 -0.0458424 0)
(12.0219 -0.032539 0)
(12.082 -0.0245491 0)
(12.1602 -0.027971 0)
(12.2407 -0.0402829 0)
(12.2529 -0.0143335 0)
(12.4147 -0.0428774 0)
(12.369 -0.0297385 0)
(12.4475 -0.0313541 0)
(12.4579 -0.0752727 0)
(9.99439 -0.110521 0)
(10.285 -0.267697 0)
(10.6655 -0.204916 0)
(11.0495 -0.140879 0)
(11.2874 -0.087158 0)
(11.5121 -0.0622273 0)
(11.5678 -0.0761209 0)
(11.7532 -0.097781 0)
(11.7884 -0.0603382 0)
(11.9088 -0.07391 0)
(11.9559 -0.0578702 0)
(12.0336 -0.0406541 0)
(12.1555 -0.045872 0)
(12.1539 -0.0469921 0)
(12.2931 -0.0386226 0)
(12.3533 -0.0685868 0)
(12.3874 -0.049724 0)
(12.5013 -0.0670537 0)
(12.5017 -0.0945341 0)
(12.4356 -0.043309 0)
(10.0177 -0.175625 0)
(10.3063 -0.35807 0)
(10.7631 -0.291409 0)
(11.0762 -0.196525 0)
(11.4037 -0.128983 0)
(11.55 -0.100787 0)
(11.6999 -0.110038 0)
(11.7629 -0.122734 0)
(11.8984 -0.0869587 0)
(11.9337 -0.0963109 0)
(12.0259 -0.0709687 0)
(12.1274 -0.0843281 0)
(12.1886 -0.0491816 0)
(12.2673 -0.0706027 0)
(12.3475 -0.0740464 0)
(12.4265 -0.0689517 0)
(12.4692 -0.0766716 0)
(12.5169 -0.107283 0)
(12.5747 -0.0757458 0)
(12.5025 -0.110026 0)
(10.0677 -0.250569 0)
(10.3229 -0.472539 0)
(10.8861 -0.368698 0)
(11.1551 -0.237168 0)
(11.538 -0.168894 0)
(11.613 -0.139167 0)
(11.8084 -0.141317 0)
(11.8372 -0.160235 0)
(12.0077 -0.11212 0)
(11.9849 -0.117091 0)
(12.1378 -0.101247 0)
(12.1584 -0.0932909 0)
(12.2651 -0.0696111 0)
(12.2645 -0.0960308 0)
(12.3996 -0.0764636 0)
(12.3784 -0.103523 0)
(12.4608 -0.0853609 0)
(12.4419 -0.127893 0)
(12.4784 -0.127868 0)
(12.3956 -0.127708 0)
(10.0741 -0.350751 0)
(10.3849 -0.569901 0)
(11.0311 -0.452885 0)
(11.2873 -0.291105 0)
(11.6802 -0.221727 0)
(11.6684 -0.179745 0)
(11.902 -0.180347 0)
(11.8173 -0.183992 0)
(12.0002 -0.137171 0)
(11.8722 -0.133024 0)
(12.0385 -0.118601 0)
(11.9106 -0.111544 0)
(12.0463 -0.0814881 0)
(11.9023 -0.104301 0)
(12.0243 -0.0929571 0)
(11.8662 -0.10283 0)
(11.9449 -0.0884833 0)
(11.7776 -0.141785 0)
(11.7966 -0.117709 0)
(11.5834 -0.1595 0)
(10.0234 -0.4582 0)
(10.5418 -0.709896 0)
(11.1687 -0.540897 0)
(11.3731 -0.351229 0)
(11.5672 -0.269564 0)
(11.4478 -0.217936 0)
(11.5159 -0.200924 0)
(11.2742 -0.187083 0)
(11.3195 -0.140456 0)
(11.0551 -0.126019 0)
(11.0956 -0.111764 0)
(10.8299 -0.0956333 0)
(10.8989 -0.0725525 0)
(10.623 -0.0877714 0)
(10.6963 -0.0723985 0)
(10.4213 -0.0846802 0)
(10.4883 -0.0683808 0)
(10.1921 -0.117345 0)
(10.2101 -0.0953787 0)
(9.87768 -0.153989 0)
(10.0722 -0.633042 0)
(10.6445 -0.864386 0)
(10.8717 -0.598221 0)
(10.6913 -0.372634 0)
(10.4554 -0.260769 0)
(10.0819 -0.191224 0)
(9.85451 -0.153586 0)
(9.46864 -0.12955 0)
(9.33777 -0.0906306 0)
(9.01061 -0.0746644 0)
(8.945 -0.0634734 0)
(8.66466 -0.0538866 0)
(8.673 -0.03883 0)
(8.39935 -0.0475695 0)
(8.43674 -0.0431436 0)
(8.16614 -0.0483692 0)
(8.21292 -0.0437141 0)
(7.91214 -0.0716411 0)
(7.92164 -0.0697104 0)
(7.57924 -0.0843251 0)
(10.0885 -0.838602 0)
(9.64985 -0.868549 0)
(8.87375 -0.505811 0)
(8.08417 -0.260847 0)
(7.48979 -0.140896 0)
(7.00579 -0.0798642 0)
(6.70633 -0.052977 0)
(6.38196 -0.0448348 0)
(6.23962 -0.0281189 0)
(6.0071 -0.0225615 0)
(5.94156 -0.0212171 0)
(5.75092 -0.0192535 0)
(5.74365 -0.011792 0)
(5.56066 -0.019111 0)
(5.57092 -0.0179187 0)
(5.37937 -0.0216618 0)
(5.39671 -0.0191917 0)
(5.17355 -0.0338165 0)
(5.16489 -0.0384833 0)
(4.87633 -0.0155503 0)
(8.09223 -0.387983 0)
(5.44736 -0.242571 0)
(3.91119 -0.042784 0)
(3.15886 0.015829 0)
(2.79965 0.0173795 0)
(2.59637 0.0116112 0)
(2.48839 0.00628022 0)
(2.37521 0.000905037 0)
(2.32046 0.00206733 0)
(2.24518 0.00124309 0)
(2.22228 2.85469e-05 0)
(2.15435 -0.00053936 0)
(2.14948 0.00124745 0)
(2.08744 -0.00118941 0)
(2.08065 -0.000857136 0)
(2.00519 -0.00201809 0)
(1.99927 -0.000403014 0)
(1.90905 -0.00431434 0)
(1.86996 -0.00421594 0)
(1.7233 0.0111406 0)
(2.25703 -0.15789 0)
(2.38201 -0.0762057 0)
(2.4819 -0.020599 0)
(2.56327 0.00487831 0)
(2.64622 0.00596837 0)
(2.71946 0.00117474 0)
(2.80121 -0.00391256 0)
(2.8829 -0.00358121 0)
(2.96558 0.000849469 0)
(3.03831 0.00366582 0)
(3.1088 -0.000668033 0)
(3.16969 -0.0116684 0)
(3.22955 -0.0285621 0)
(3.27522 -0.0417459 0)
(3.32234 -0.0486349 0)
(3.35421 -0.0485093 0)
(3.39251 -0.0449766 0)
(3.4233 -0.0423555 0)
(3.46158 -0.0410586 0)
(3.49995 -0.0432783 0)
(3.53957 -0.0496486 0)
(3.57493 -0.0552084 0)
(3.59973 -0.0563804 0)
(3.62962 -0.0520136 0)
(3.64574 -0.0438483 0)
(3.66753 -0.0334236 0)
(3.6822 -0.0231755 0)
(3.7108 -0.0102803 0)
(3.72531 0.000494356 0)
(3.75643 0.00913867 0)
(3.76882 0.0201623 0)
(3.80137 0.0321661 0)
(3.81018 0.0431245 0)
(3.84735 0.0571328 0)
(3.85858 0.072754 0)
(3.90343 0.0859451 0)
(3.92235 0.102994 0)
(3.97675 0.110413 0)
(4.01218 0.116413 0)
(4.06929 0.118302 0)
(4.11187 0.110151 0)
(4.18595 0.0920976 0)
(4.22622 0.0795695 0)
(4.28098 0.0602019 0)
(4.32571 0.0374351 0)
(4.38357 0.0188672 0)
(4.4026 0.00294264 0)
(4.4743 -0.0205745 0)
(4.50489 -0.0554694 0)
(4.57337 -0.0860272 0)
(4.58497 -0.123314 0)
(4.64615 -0.162297 0)
(4.6288 -0.202678 0)
(4.65938 -0.233999 0)
(4.5959 -0.255477 0)
(4.60918 -0.261802 0)
(4.50258 -0.258957 0)
(4.52186 -0.237235 0)
(4.40647 -0.211307 0)
(4.45437 -0.161977 0)
(4.33112 -0.115887 0)
(4.418 -0.0472047 0)
(4.30167 0.00515686 0)
(4.40445 0.078923 0)
(4.29936 0.129496 0)
(4.40193 0.189939 0)
(4.33963 0.24368 0)
(4.41249 0.30099 0)
(4.43647 0.358059 0)
(4.46145 0.400424 0)
(4.62105 0.456034 0)
(4.57982 0.501448 0)
(4.88054 0.52619 0)
(4.8173 0.547692 0)
(5.19117 0.496449 0)
(5.12245 0.49837 0)
(5.51005 0.386859 0)
(5.42832 0.337635 0)
(5.79369 0.156174 0)
(5.63927 0.0783403 0)
(5.996 -0.162999 0)
(5.8129 -0.269911 0)
(6.13435 -0.538403 0)
(5.91325 -0.641259 0)
(6.17868 -0.891646 0)
(5.8995 -0.999283 0)
(6.08488 -1.19614 0)
(5.66975 -1.22648 0)
(5.65963 -1.25801 0)
(5.26651 -1.07324 0)
(5.31164 -0.878774 0)
(5.14208 -0.539854 0)
(5.20927 -0.297184 0)
(4.93713 0.0379142 0)
(5.03885 0.111495 0)
(4.95689 0.397681 0)
(5.27273 0.387405 0)
(5.21813 0.566518 0)
(5.81826 0.558449 0)
(5.51174 0.752118 0)
(6.3541 0.553671 0)
(5.7118 0.841866 0)
(6.70195 0.367127 0)
(5.67 0.771958 0)
(6.88952 0.201332 0)
(5.40998 0.629375 0)
(7.02931 0.157933 0)
(5.05858 0.534155 0)
(7.14198 0.212707 0)
(4.8444 0.609589 0)
(7.237 0.187256 0)
(4.831 0.872752 0)
(7.3931 0.183044 0)
(4.91317 1.0299 0)
(7.7611 0.363624 0)
(4.94184 1.14025 0)
(8.24039 0.413496 0)
(5.23003 1.3862 0)
(8.6124 0.233299 0)
(5.56392 1.41176 0)
(9.07899 0.146848 0)
(5.46612 1.11396 0)
(9.59508 -0.0270042 0)
(5.15953 1.01457 0)
(10.0495 -0.376477 0)
(5.02738 1.00287 0)
(10.2833 -0.585904 0)
(5.18033 0.799135 0)
(10.5079 -0.741566 0)
(5.44225 0.519506 0)
(10.9426 -1.09171 0)
(5.83905 0.148555 0)
(11.3674 -1.52433 0)
(6.48438 -0.37091 0)
(11.6711 -1.88831 0)
(7.233 -0.912899 0)
(11.9633 -2.1439 0)
(8.01218 -1.27883 0)
(12.2747 -2.34302 0)
(8.64033 -1.38724 0)
(12.6231 -2.3365 0)
(9.18997 -1.45321 0)
(12.7159 -2.02782 0)
(9.7361 -1.41524 0)
(12.6358 -1.74522 0)
(10.1184 -1.13157 0)
(12.558 -1.50498 0)
(10.3368 -0.851918 0)
(12.4716 -1.10749 0)
(10.4576 -0.64071 0)
(12.3864 -0.702777 0)
(10.4488 -0.37477 0)
(12.3656 -0.384804 0)
(10.3892 -0.0595713 0)
(12.3196 -0.103561 0)
(10.3292 0.228482 0)
(12.2884 0.187861 0)
(10.2332 0.531653 0)
(12.2899 0.423441 0)
(10.1219 0.841633 0)
(12.3006 0.629256 0)
(9.97977 1.1182 0)
(12.4018 0.860629 0)
(9.73651 1.35641 0)
(12.5802 1.04057 0)
(9.38102 1.54609 0)
(12.829 1.1754 0)
(8.93466 1.69407 0)
(13.1231 1.24743 0)
(8.52205 1.83286 0)
(13.3813 1.15823 0)
(8.28839 1.97383 0)
(13.4408 0.89982 0)
(8.2832 1.99828 0)
(13.3085 0.612752 0)
(8.51267 1.83359 0)
(13.0549 0.392825 0)
(8.85305 1.61173 0)
(12.7386 0.160249 0)
(9.3198 1.45467 0)
(12.4114 -0.216158 0)
(9.73152 1.22176 0)
(12.2327 -0.546309 0)
(9.96316 0.851434 0)
(12.1287 -0.829508 0)
(10.0789 0.415869 0)
(12.0204 -1.23055 0)
(10.1334 0.0373157 0)
(11.8623 -1.69508 0)
(9.99808 -0.412879 0)
(11.683 -2.17428 0)
(9.6778 -0.765963 0)
(11.3064 -2.65245 0)
(9.08878 -1.01005 0)
(10.6856 -2.94081 0)
(8.06115 -0.830604 0)
(9.76817 -2.86751 0)
(6.63244 0.308845 0)
(8.40141 -1.70116 0)
(6.32198 4.12982 0)
(5.32828 -0.0967769 0)
(5.35929 -0.0805803 0)
(5.37309 -0.0609431 0)
(5.36362 -0.0411461 0)
(5.3828 -0.0421891 0)
(5.40222 -0.0492128 0)
(5.45602 -0.0581111 0)
(5.49664 -0.058749 0)
(5.55664 -0.0528395 0)
(5.58854 -0.044845 0)
(5.63874 -0.0457194 0)
(5.66088 -0.0480779 0)
(5.70375 -0.0591749 0)
(5.71737 -0.064288 0)
(5.75843 -0.070253 0)
(5.76995 -0.0735834 0)
(5.80662 -0.0721692 0)
(5.81581 -0.0733408 0)
(5.84999 -0.0730564 0)
(5.86344 -0.0767499 0)
(5.89573 -0.0789637 0)
(5.90688 -0.0821947 0)
(5.93146 -0.0795349 0)
(5.93813 -0.0743837 0)
(5.95776 -0.0653853 0)
(5.96137 -0.0508777 0)
(5.97986 -0.0361435 0)
(5.98248 -0.0215788 0)
(6.00018 -0.00888435 0)
(6.0015 -6.27923e-05 0)
(6.01849 0.0132641 0)
(6.02347 0.0226153 0)
(6.04006 0.0336833 0)
(6.05018 0.0428303 0)
(6.06778 0.0550483 0)
(6.08807 0.0645167 0)
(6.10697 0.0740172 0)
(6.14199 0.0797873 0)
(6.16233 0.0805757 0)
(6.21569 0.0833711 0)
(6.2283 0.0694516 0)
(6.2982 0.0615579 0)
(6.30803 0.0376704 0)
(6.38172 0.0280785 0)
(6.37895 -0.00101725 0)
(6.4643 -0.0153268 0)
(6.45189 -0.0428211 0)
(6.5336 -0.0521815 0)
(6.52504 -0.0920607 0)
(6.60478 -0.105504 0)
(6.58815 -0.144549 0)
(6.65136 -0.16388 0)
(6.61372 -0.199332 0)
(6.65701 -0.213374 0)
(6.58401 -0.233664 0)
(6.60563 -0.233955 0)
(6.50269 -0.226928 0)
(6.51106 -0.209448 0)
(6.40928 -0.170773 0)
(6.40827 -0.140304 0)
(6.32768 -0.0774218 0)
(6.30769 -0.0340714 0)
(6.2667 0.0320905 0)
(6.2197 0.0762407 0)
(6.22251 0.138968 0)
(6.155 0.185491 0)
(6.2038 0.232904 0)
(6.1309 0.285339 0)
(6.21437 0.3161 0)
(6.16725 0.378844 0)
(6.27219 0.365948 0)
(6.2896 0.449765 0)
(6.40249 0.393127 0)
(6.50291 0.458775 0)
(6.62573 0.360753 0)
(6.74985 0.382255 0)
(6.94547 0.253779 0)
(7.0005 0.213807 0)
(7.28143 0.0472991 0)
(7.22968 -0.0445638 0)
(7.55852 -0.237975 0)
(7.43316 -0.359898 0)
(7.78151 -0.579019 0)
(7.57515 -0.690446 0)
(7.87818 -0.92318 0)
(7.59272 -1.00159 0)
(7.80536 -1.18949 0)
(7.46756 -1.11578 0)
(7.60086 -1.15051 0)
(7.27573 -0.878665 0)
(7.37931 -0.814489 0)
(7.07564 -0.449888 0)
(7.22522 -0.37586 0)
(6.90777 0.0456151 0)
(7.24037 0.139023 0)
(6.83434 0.474393 0)
(7.34094 0.413148 0)
(6.708 0.684961 0)
(7.4251 0.406015 0)
(6.47687 0.789208 0)
(7.56472 0.291649 0)
(6.23545 0.801906 0)
(7.8142 0.200633 0)
(5.91125 0.708381 0)
(8.11183 0.141193 0)
(5.57675 0.653212 0)
(8.31216 0.0346157 0)
(5.43893 0.769186 0)
(8.33263 -0.114759 0)
(5.48211 0.940864 0)
(8.34184 -0.135274 0)
(5.49473 1.02405 0)
(8.5047 -0.0232197 0)
(5.50259 1.11373 0)
(8.7419 -0.00869523 0)
(5.64533 1.3535 0)
(9.04754 -0.122267 0)
(5.83349 1.48991 0)
(9.46574 -0.0602916 0)
(5.90023 1.34933 0)
(10.0933 -0.0746495 0)
(5.6882 1.25505 0)
(10.7504 -0.409621 0)
(5.52905 1.26736 0)
(11.1068 -0.666438 0)
(5.54382 1.06492 0)
(11.3391 -0.722049 0)
(5.63865 0.790881 0)
(11.698 -1.00146 0)
(5.84165 0.566966 0)
(12.2044 -1.46306 0)
(6.25788 0.126253 0)
(12.6493 -1.83132 0)
(6.89881 -0.497884 0)
(13.0796 -2.17449 0)
(7.58849 -1.00901 0)
(13.5256 -2.48385 0)
(8.25401 -1.33137 0)
(13.9355 -2.67454 0)
(8.74278 -1.40355 0)
(14.3455 -2.63741 0)
(9.02546 -1.39696 0)
(14.5882 -2.33085 0)
(9.31045 -1.29524 0)
(14.6166 -2.02609 0)
(9.5655 -0.9955 0)
(14.5751 -1.78179 0)
(9.77076 -0.68755 0)
(14.4841 -1.38506 0)
(9.98587 -0.478712 0)
(14.4069 -0.996005 0)
(10.1349 -0.176118 0)
(14.4325 -0.719696 0)
(10.3204 0.179711 0)
(14.5198 -0.475551 0)
(10.5224 0.462401 0)
(14.6963 -0.129232 0)
(10.6843 0.702521 0)
(14.9286 0.172297 0)
(10.8397 1.00394 0)
(15.109 0.417695 0)
(10.9678 1.26865 0)
(15.2688 0.685279 0)
(10.9653 1.49698 0)
(15.4379 0.872321 0)
(10.7938 1.74 0)
(15.5626 0.991634 0)
(10.5105 1.95811 0)
(15.5802 1.03374 0)
(10.2651 2.14242 0)
(15.4265 1.00426 0)
(10.1356 2.22389 0)
(15.0542 0.903155 0)
(10.1892 2.14543 0)
(14.5053 0.724724 0)
(10.3488 1.94783 0)
(13.9692 0.495981 0)
(10.5442 1.65903 0)
(13.5908 0.256186 0)
(10.6392 1.26414 0)
(13.4679 0.0932241 0)
(10.6301 0.808 0)
(13.3907 -0.131245 0)
(10.6604 0.373691 0)
(13.3277 -0.441297 0)
(10.6875 0.0331619 0)
(13.268 -0.8732 0)
(10.6786 -0.274529 0)
(13.164 -1.30675 0)
(10.5881 -0.542105 0)
(12.8919 -1.75947 0)
(10.3194 -0.719388 0)
(12.3921 -2.1594 0)
(9.80477 -0.734853 0)
(11.6027 -2.27796 0)
(9.03352 -0.341967 0)
(10.6625 -2.05365 0)
(8.22894 0.945586 0)
(9.74136 -0.880856 0)
(8.4145 3.29595 0)
(8.0274 -0.0576903 0)
(8.00562 -0.00564356 0)
(8.00051 -0.00202459 0)
(7.95805 -0.018098 0)
(7.98715 -0.0528553 0)
(7.9802 -0.0718629 0)
(8.04858 -0.0814875 0)
(8.04909 -0.0817767 0)
(8.11337 -0.0763457 0)
(8.09564 -0.0710045 0)
(8.14859 -0.07168 0)
(8.12061 -0.0651697 0)
(8.18278 -0.0709649 0)
(8.15243 -0.0739396 0)
(8.21883 -0.0785998 0)
(8.18383 -0.086785 0)
(8.24521 -0.0850696 0)
(8.21183 -0.0921782 0)
(8.26443 -0.0896325 0)
(8.23962 -0.095051 0)
(8.28479 -0.0891422 0)
(8.26849 -0.0905568 0)
(8.30119 -0.0838172 0)
(8.28675 -0.0764023 0)
(8.3087 -0.069998 0)
(8.29271 -0.055788 0)
(8.31079 -0.0429237 0)
(8.29848 -0.0305603 0)
(8.30946 -0.0121545 0)
(8.31041 -0.00468705 0)
(8.30803 0.00764363 0)
(8.32395 0.0161725 0)
(8.31024 0.0199552 0)
(8.33937 0.0328661 0)
(8.3205 0.0356592 0)
(8.36375 0.0501609 0)
(8.34121 0.0471297 0)
(8.40347 0.064562 0)
(8.3774 0.0464845 0)
(8.44914 0.0662163 0)
(8.43133 0.0297602 0)
(8.49345 0.0414542 0)
(8.49908 0.00300735 0)
(8.53802 -0.000528912 0)
(8.56436 -0.0308986 0)
(8.58184 -0.0410546 0)
(8.63223 -0.0729685 0)
(8.61855 -0.0778001 0)
(8.69649 -0.110311 0)
(8.64973 -0.127211 0)
(8.74857 -0.146214 0)
(8.6697 -0.180291 0)
(8.76041 -0.181755 0)
(8.6615 -0.213241 0)
(8.72488 -0.207685 0)
(8.61251 -0.214434 0)
(8.64473 -0.194356 0)
(8.54 -0.17502 0)
(8.53694 -0.137729 0)
(8.47103 -0.0938929 0)
(8.42418 -0.0548761 0)
(8.41211 0.0177197 0)
(8.31182 0.0467087 0)
(8.35087 0.1262 0)
(8.21245 0.149915 0)
(8.29874 0.221389 0)
(8.13847 0.231829 0)
(8.26836 0.307156 0)
(8.10614 0.288752 0)
(8.27136 0.370886 0)
(8.13934 0.332573 0)
(8.32397 0.386509 0)
(8.25813 0.347867 0)
(8.44343 0.357822 0)
(8.46656 0.292226 0)
(8.61033 0.266353 0)
(8.73579 0.15563 0)
(8.83121 0.100526 0)
(9.00345 -0.0698568 0)
(9.07944 -0.128477 0)
(9.23606 -0.353953 0)
(9.3014 -0.405682 0)
(9.42607 -0.673418 0)
(9.44781 -0.695819 0)
(9.50884 -0.964431 0)
(9.46954 -0.939001 0)
(9.48231 -1.12081 0)
(9.34244 -0.999803 0)
(9.37519 -1.06476 0)
(9.04905 -0.815385 0)
(9.23661 -0.792321 0)
(8.76707 -0.410022 0)
(9.19399 -0.360425 0)
(8.56203 0.112366 0)
(9.18479 0.0725378 0)
(8.42413 0.560713 0)
(9.24875 0.318582 0)
(8.25699 0.860046 0)
(9.35106 0.403044 0)
(7.88753 0.975128 0)
(9.47072 0.383688 0)
(7.33736 0.940164 0)
(9.5376 0.258164 0)
(6.7855 0.899471 0)
(9.43144 0.0102464 0)
(6.46982 0.958962 0)
(9.16504 -0.256896 0)
(6.36111 1.03477 0)
(8.89328 -0.310334 0)
(6.32252 1.03358 0)
(8.78687 -0.23156 0)
(6.2358 1.10729 0)
(8.94065 -0.24345 0)
(6.13105 1.29031 0)
(9.18734 -0.335464 0)
(6.1767 1.46912 0)
(9.45757 -0.332493 0)
(6.19033 1.45061 0)
(10.0222 -0.203543 0)
(5.99662 1.36659 0)
(10.822 -0.387936 0)
(5.90225 1.43229 0)
(11.2486 -0.687126 0)
(6.11399 1.3072 0)
(11.3617 -0.777965 0)
(6.36821 1.07058 0)
(11.5724 -0.964819 0)
(6.70874 0.836773 0)
(11.8785 -1.34098 0)
(7.26022 0.50486 0)
(12.2945 -1.79074 0)
(7.88526 0.010383 0)
(12.8344 -2.2105 0)
(8.57445 -0.589308 0)
(13.3892 -2.60579 0)
(9.2015 -1.04246 0)
(13.8181 -2.97101 0)
(9.77491 -1.25843 0)
(14.0205 -3.13507 0)
(10.0876 -1.27734 0)
(14.2235 -3.01813 0)
(10.0184 -1.18604 0)
(14.434 -2.70459 0)
(9.8255 -1.00743 0)
(14.4829 -2.3686 0)
(9.71967 -0.718349 0)
(14.4454 -2.0758 0)
(9.68448 -0.41139 0)
(14.4144 -1.71653 0)
(9.7065 -0.201481 0)
(14.4439 -1.30601 0)
(9.74025 -0.000842834 0)
(14.5533 -1.00028 0)
(9.84619 0.282976 0)
(14.6838 -0.784957 0)
(10.0814 0.55395 0)
(14.9192 -0.480724 0)
(10.3853 0.735083 0)
(15.3061 -0.15264 0)
(10.7471 1.02245 0)
(15.6858 0.0717866 0)
(11.1587 1.30562 0)
(16.1451 0.414197 0)
(11.4347 1.47941 0)
(16.5919 0.707705 0)
(11.6916 1.76227 0)
(16.8498 0.822615 0)
(11.9381 2.0561 0)
(16.8903 0.927375 0)
(12.1177 2.23208 0)
(16.7331 0.979161 0)
(12.2742 2.32201 0)
(16.3631 0.999255 0)
(12.3406 2.22215 0)
(15.9551 0.918948 0)
(12.3151 1.99167 0)
(15.5922 0.791368 0)
(12.2392 1.64837 0)
(15.3119 0.627039 0)
(12.1861 1.28347 0)
(14.916 0.287168 0)
(12.2917 0.942635 0)
(14.4481 -0.136336 0)
(12.3728 0.554805 0)
(14.0991 -0.529801 0)
(12.2595 0.16114 0)
(13.8787 -0.939759 0)
(12.0075 -0.210201 0)
(13.611 -1.30665 0)
(11.7138 -0.596186 0)
(13.1894 -1.63126 0)
(11.314 -0.78957 0)
(12.6206 -1.89734 0)
(10.706 -0.756968 0)
(11.9123 -1.88522 0)
(10.0291 -0.372446 0)
(11.118 -1.46968 0)
(9.47166 0.636328 0)
(10.4456 -0.428365 0)
(9.52411 1.88421 0)
(10.3424 -0.0271569 0)
(10.2657 0.043855 0)
(10.2334 0.0239848 0)
(10.116 -0.0140348 0)
(10.1802 -0.0746139 0)
(10.1289 -0.10154 0)
(10.2544 -0.102689 0)
(10.2157 -0.0907491 0)
(10.3216 -0.0714422 0)
(10.2525 -0.0579053 0)
(10.3317 -0.0691416 0)
(10.2375 -0.0685091 0)
(10.3245 -0.0862166 0)
(10.2301 -0.0864623 0)
(10.3291 -0.0869169 0)
(10.2561 -0.0939843 0)
(10.3422 -0.0831971 0)
(10.2929 -0.0920337 0)
(10.3417 -0.0903345 0)
(10.3188 -0.0952747 0)
(10.3304 -0.0954451 0)
(10.3334 -0.0919488 0)
(10.3262 -0.0872365 0)
(10.3415 -0.0714389 0)
(10.3227 -0.0676437 0)
(10.3415 -0.0452261 0)
(10.3108 -0.0509067 0)
(10.3465 -0.0204556 0)
(10.2979 -0.0258078 0)
(10.3549 0.00179248 0)
(10.2977 0.0023318 0)
(10.358 0.026459 0)
(10.3097 0.0269671 0)
(10.3613 0.0392157 0)
(10.323 0.0424484 0)
(10.3663 0.046292 0)
(10.3412 0.0445081 0)
(10.3744 0.0452924 0)
(10.3897 0.0414825 0)
(10.3733 0.0378164 0)
(10.465 0.027732 0)
(10.3782 0.0114171 0)
(10.54 0.00776922 0)
(10.3986 -0.025271 0)
(10.6003 -0.0323931 0)
(10.4194 -0.0568525 0)
(10.6504 -0.0850396 0)
(10.4308 -0.088623 0)
(10.6821 -0.131505 0)
(10.441 -0.124946 0)
(10.6778 -0.167455 0)
(10.4614 -0.165083 0)
(10.6315 -0.18745 0)
(10.4723 -0.18701 0)
(10.5512 -0.192549 0)
(10.4649 -0.180724 0)
(10.4379 -0.166761 0)
(10.449 -0.132459 0)
(10.3038 -0.110663 0)
(10.4279 -0.0443156 0)
(10.1852 -0.0299735 0)
(10.396 0.0662544 0)
(10.0926 0.0655753 0)
(10.3504 0.166292 0)
(10.0246 0.170397 0)
(10.303 0.246047 0)
(9.99125 0.25786 0)
(10.2626 0.300696 0)
(10 0.31969 0)
(10.2504 0.332968 0)
(10.0547 0.344491 0)
(10.2855 0.339884 0)
(10.1628 0.31999 0)
(10.385 0.304781 0)
(10.3168 0.220804 0)
(10.5485 0.216728 0)
(10.4837 0.0425753 0)
(10.769 0.0474209 0)
(10.6499 -0.181985 0)
(10.9957 -0.197119 0)
(10.8089 -0.425677 0)
(11.1558 -0.485761 0)
(10.9418 -0.683106 0)
(11.2223 -0.765196 0)
(10.9813 -0.898568 0)
(11.1693 -0.96847 0)
(10.9187 -1.01039 0)
(10.9694 -0.986952 0)
(10.7705 -0.99962 0)
(10.6485 -0.750552 0)
(10.6196 -0.782914 0)
(10.3658 -0.29575 0)
(10.5525 -0.417355 0)
(10.1337 0.221771 0)
(10.5762 -0.0359149 0)
(9.91752 0.667875 0)
(10.7769 0.270321 0)
(9.63023 0.953798 0)
(11.0724 0.446404 0)
(9.20049 1.10486 0)
(11.2716 0.413967 0)
(8.77119 1.20125 0)
(11.2165 0.202491 0)
(8.44198 1.27216 0)
(10.9107 -0.0488743 0)
(8.17783 1.26615 0)
(10.4972 -0.192727 0)
(7.88219 1.18918 0)
(10.1883 -0.234778 0)
(7.50105 1.17277 0)
(10.1053 -0.307169 0)
(7.15902 1.2807 0)
(10.0952 -0.444011 0)
(7.05387 1.42403 0)
(10.0648 -0.459932 0)
(6.99386 1.42879 0)
(10.3255 -0.344702 0)
(6.71863 1.39096 0)
(10.9115 -0.42621 0)
(6.64019 1.469 0)
(11.2265 -0.720229 0)
(7.06485 1.44956 0)
(11.1783 -0.851646 0)
(7.55405 1.25172 0)
(11.3471 -0.997038 0)
(8.02523 1.04743 0)
(11.6469 -1.28968 0)
(8.80761 0.721149 0)
(11.9233 -1.60487 0)
(9.74729 0.244309 0)
(12.4794 -2.02956 0)
(10.5183 -0.308134 0)
(13.2412 -2.44784 0)
(11.1265 -0.888899 0)
(13.8748 -2.81069 0)
(11.5659 -1.2607 0)
(14.2218 -3.10572 0)
(11.8022 -1.358 0)
(14.2448 -3.17476 0)
(11.7643 -1.28719 0)
(14.169 -2.95425 0)
(11.385 -1.15012 0)
(14.0884 -2.59037 0)
(10.8818 -0.891321 0)
(13.9058 -2.30735 0)
(10.4511 -0.539088 0)
(13.6821 -2.0999 0)
(10.1184 -0.214365 0)
(13.5847 -1.81957 0)
(9.92311 0.0185743 0)
(13.544 -1.48971 0)
(9.83104 0.21806 0)
(13.5662 -1.20317 0)
(9.78027 0.410048 0)
(13.6711 -1.00381 0)
(9.82202 0.666323 0)
(13.9264 -0.83556 0)
(9.87805 0.877444 0)
(14.4311 -0.561352 0)
(10.037 1.07893 0)
(14.9224 -0.305811 0)
(10.4441 1.34069 0)
(15.3648 -0.0162812 0)
(10.9487 1.56775 0)
(15.7697 0.255249 0)
(11.5314 1.86445 0)
(16.0323 0.47187 0)
(12.1355 2.10471 0)
(16.2361 0.710851 0)
(12.5836 2.22595 0)
(16.3519 0.946985 0)
(12.9821 2.21201 0)
(16.3436 1.09533 0)
(13.237 2.06852 0)
(16.1693 1.07761 0)
(13.5078 1.82392 0)
(15.8433 0.981794 0)
(13.7127 1.46246 0)
(15.4976 0.833724 0)
(13.8928 1.11195 0)
(15.1463 0.573142 0)
(13.9683 0.77636 0)
(14.9172 0.247856 0)
(13.9128 0.371503 0)
(14.8237 -0.0997049 0)
(13.7422 0.0134257 0)
(14.702 -0.508789 0)
(13.5608 -0.251196 0)
(14.4133 -0.861012 0)
(13.3071 -0.493017 0)
(14.0003 -1.14268 0)
(12.8919 -0.662003 0)
(13.4695 -1.27919 0)
(12.3421 -0.660247 0)
(12.8916 -1.21215 0)
(11.7806 -0.346541 0)
(12.2553 -0.833563 0)
(11.3726 0.351015 0)
(11.7808 -0.00846589 0)
(11.321 1.19739 0)
(11.9256 -0.0137368 0)
(11.8222 0.000684924 0)
(11.8162 -0.0356833 0)
(11.6701 -0.0664722 0)
(11.7702 -0.109419 0)
(11.6952 -0.121537 0)
(11.837 -0.123201 0)
(11.7763 -0.112187 0)
(11.8977 -0.0992669 0)
(11.8083 -0.0795668 0)
(11.908 -0.0879561 0)
(11.7882 -0.0762277 0)
(11.88 -0.0985477 0)
(11.7684 -0.0904793 0)
(11.8364 -0.105045 0)
(11.7851 -0.106409 0)
(11.8168 -0.109572 0)
(11.8337 -0.103043 0)
(11.8113 -0.106278 0)
(11.87 -0.0987974 0)
(11.7977 -0.0957181 0)
(11.8647 -0.0959071 0)
(11.7758 -0.0895321 0)
(11.8432 -0.08192 0)
(11.7605 -0.0764816 0)
(11.831 -0.0585126 0)
(11.7648 -0.0484287 0)
(11.8412 -0.0396272 0)
(11.7794 -0.00352127 0)
(11.8426 -0.0276277 0)
(11.7925 0.0254588 0)
(11.836 -0.00948264 0)
(11.7913 0.031871 0)
(11.8347 0.00657427 0)
(11.798 0.035267 0)
(11.8388 0.0206776 0)
(11.8308 0.0333789 0)
(11.8383 0.0285566 0)
(11.8946 0.0225687 0)
(11.8194 0.0323318 0)
(11.9557 -0.00970579 0)
(11.8073 0.0119004 0)
(12.0035 -0.038463 0)
(11.8081 -0.0222067 0)
(12.0464 -0.0757989 0)
(11.8214 -0.0502704 0)
(12.0873 -0.11718 0)
(11.8411 -0.0712432 0)
(12.1033 -0.151238 0)
(11.8631 -0.100891 0)
(12.0593 -0.171184 0)
(11.8822 -0.141682 0)
(11.9555 -0.185464 0)
(11.8882 -0.15825 0)
(11.8133 -0.195935 0)
(11.8898 -0.143724 0)
(11.673 -0.167864 0)
(11.8868 -0.102469 0)
(11.5655 -0.0958919 0)
(11.8745 -0.0351315 0)
(11.5131 0.00229044 0)
(11.8416 0.0557188 0)
(11.491 0.104547 0)
(11.8132 0.147101 0)
(11.4838 0.207816 0)
(11.8047 0.226712 0)
(11.4888 0.27789 0)
(11.8231 0.297018 0)
(11.5125 0.299513 0)
(11.8711 0.343606 0)
(11.5527 0.285239 0)
(11.9644 0.337625 0)
(11.6071 0.245603 0)
(12.104 0.27204 0)
(11.6913 0.143083 0)
(12.2822 0.15839 0)
(11.7809 -0.0241029 0)
(12.4912 -0.028957 0)
(11.8682 -0.217154 0)
(12.6834 -0.274597 0)
(11.9164 -0.445812 0)
(12.8119 -0.525103 0)
(11.8899 -0.688655 0)
(12.8706 -0.748384 0)
(11.7449 -0.874448 0)
(12.8168 -0.891903 0)
(11.5196 -0.965892 0)
(12.5949 -0.862831 0)
(11.2772 -0.951559 0)
(12.2369 -0.591406 0)
(11.1127 -0.761053 0)
(11.8369 -0.164817 0)
(11.1426 -0.436687 0)
(11.4198 0.304647 0)
(11.402 -0.0834397 0)
(10.9943 0.740598 0)
(11.8463 0.173148 0)
(10.6008 1.08192 0)
(12.274 0.258519 0)
(10.2995 1.35881 0)
(12.4891 0.191281 0)
(10.1033 1.53226 0)
(12.4754 0.0701578 0)
(9.878 1.54989 0)
(12.3398 -0.0230088 0)
(9.5381 1.46428 0)
(12.1911 -0.0826888 0)
(9.10523 1.40588 0)
(12.0467 -0.180635 0)
(8.75769 1.4072 0)
(11.7726 -0.283418 0)
(8.62461 1.39926 0)
(11.4036 -0.285913 0)
(8.54947 1.32977 0)
(11.2233 -0.232795 0)
(8.34432 1.29454 0)
(11.3693 -0.351151 0)
(8.22089 1.40448 0)
(11.4917 -0.642329 0)
(8.51864 1.43376 0)
(11.4371 -0.774667 0)
(8.96694 1.26011 0)
(11.6588 -0.906057 0)
(9.33346 1.12188 0)
(12.2075 -1.21946 0)
(9.90542 0.862106 0)
(12.7024 -1.46747 0)
(10.8045 0.353082 0)
(13.2339 -1.74412 0)
(11.6525 -0.185566 0)
(13.9836 -2.19061 0)
(12.3234 -0.69678 0)
(14.6305 -2.60267 0)
(12.8199 -1.16693 0)
(14.9844 -2.89667 0)
(13.0497 -1.39894 0)
(15.0106 -3.0929 0)
(13.0072 -1.34129 0)
(14.7753 -3.07497 0)
(12.7193 -1.148 0)
(14.4596 -2.83785 0)
(12.2255 -0.905354 0)
(14.1487 -2.51197 0)
(11.6766 -0.603228 0)
(13.7847 -2.24632 0)
(11.1889 -0.293653 0)
(13.4584 -2.04956 0)
(10.7456 -0.0415587 0)