/*--------------------------------*- C++ -*----------------------------------*\
| =========                 |                                                 |
| \\      /  F ield         | OpenFOAM: The Open Source CFD Toolbox           |
|  \\    /   O peration     | Version:  2.4.0                                 |
|   \\  /    A nd           | Web:      www.OpenFOAM.org                      |
|    \\/     M anipulation  |                                                 |
\*---------------------------------------------------------------------------*/
FoamFile
{
    version     2.0;
    format      ascii;
    class       volVectorField;
    location    "1.4";
    object      U_0;
}
// * * * * * * * * * * * * * * * * * * * * * * * * * * * * * * * * * * * * * //

dimensions      [0 1 -1 0 0 0 0];

internalField   nonuniform List<vector> 
8800
(
(8.09263 0.387926 0)
(5.45258 0.242547 0)
(3.90862 0.0431316 0)
(3.16036 -0.015422 0)
(2.79571 -0.0185975 0)
(2.60713 -0.0108562 0)
(2.47219 -0.00513126 0)
(2.3931 -0.00346948 0)
(2.30638 -0.000687918 0)
(2.26358 -0.000565599 0)
(2.20124 -0.00110902 0)
(2.18549 -0.000276451 0)
(2.12694 0.000753674 0)
(2.11945 -0.000652607 0)
(2.06126 0.000892149 0)
(2.06069 -0.000506801 0)
(2.00188 0.000434616 0)
(2.00233 -0.00212945 0)
(2.00414 0.00994532 0)
(1.77965 -0.0662667 0)
(10.0799 0.83789 0)
(9.67126 0.868024 0)
(8.85694 0.507655 0)
(8.10156 0.261746 0)
(7.47313 0.137035 0)
(7.03269 0.0828694 0)
(6.66331 0.0554037 0)
(6.44004 0.0377759 0)
(6.18257 0.0321903 0)
(6.06846 0.0245246 0)
(5.88184 0.0171576 0)
(5.83022 0.0167524 0)
(5.66858 0.0181171 0)
(5.65459 0.0123807 0)
(5.49809 0.0175934 0)
(5.5 0.0105134 0)
(5.35802 0.0192899 0)
(5.34251 -0.00595968 0)
(5.31563 0.0269758 0)
(5.15128 -0.0375681 0)
(10.0424 0.629655 0)
(10.6918 0.863629 0)
(10.8342 0.602416 0)
(10.729 0.373835 0)
(10.419 0.254557 0)
(10.1351 0.199051 0)
(9.77732 0.153354 0)
(9.56845 0.118595 0)
(9.23828 0.0987816 0)
(9.11191 0.0761537 0)
(8.85133 0.057297 0)
(8.78162 0.0513705 0)
(8.55615 0.0480773 0)
(8.53708 0.0355347 0)
(8.323 0.0441801 0)
(8.32165 0.0286242 0)
(8.13533 0.0462233 0)
(8.11032 0.00181531 0)
(8.03987 0.030566 0)
(7.9455 -0.0889181 0)
(9.94408 0.454059 0)
(10.6394 0.708022 0)
(11.1061 0.548038 0)
(11.4419 0.350857 0)
(11.487 0.256549 0)
(11.543 0.233535 0)
(11.3998 0.200671 0)
(11.4043 0.17189 0)
(11.195 0.154451 0)
(11.1811 0.123739 0)
(10.9846 0.10287 0)
(10.9604 0.0916592 0)
(10.774 0.0892377 0)
(10.7636 0.0665124 0)
(10.5805 0.080875 0)
(10.5599 0.0534711 0)
(10.4173 0.0814483 0)
(10.3382 0.0175395 0)
(10.3121 0.0484474 0)
(10.1783 -0.106751 0)
(9.93668 0.340202 0)
(10.5036 0.569781 0)
(10.9632 0.465035 0)
(11.397 0.29834 0)
(11.5651 0.203377 0)
(11.7697 0.199157 0)
(11.7817 0.174169 0)
(11.919 0.1608 0)
(11.8887 0.159048 0)
(11.9872 0.131285 0)
(11.9618 0.109751 0)
(12.0011 0.108052 0)
(11.9775 0.0957639 0)
(11.9868 0.0843797 0)
(11.9664 0.093068 0)
(11.9096 0.0785039 0)
(11.9532 0.0941984 0)
(11.7901 0.0600068 0)
(11.9273 0.0469259 0)
(11.699 -0.0213931 0)
(9.94229 0.250645 0)
(10.4069 0.451854 0)
(10.8296 0.380762 0)
(11.2485 0.246757 0)
(11.4694 0.155492 0)
(11.6743 0.163199 0)
(11.7442 0.147788 0)
(11.8812 0.132128 0)
(11.9292 0.128937 0)
(12.0357 0.103583 0)
(12.1197 0.0912205 0)
(12.1841 0.0925536 0)
(12.2726 0.0918089 0)
(12.2963 0.0726519 0)
(12.4125 0.08869 0)
(12.3583 0.0698296 0)
(12.4909 0.0870678 0)
(12.4163 0.0680036 0)
(12.5377 0.0758813 0)
(12.4791 -0.00628943 0)
(9.97813 0.177182 0)
(10.3288 0.343115 0)
(10.7235 0.29657 0)
(11.1276 0.211887 0)
(11.3873 0.11453 0)
(11.5941 0.121162 0)
(11.6343 0.0999034 0)
(11.8348 0.108984 0)
(11.8151 0.108977 0)
(11.9864 0.0887289 0)
(11.9915 0.0567284 0)
(12.167 0.0850024 0)
(12.1884 0.042406 0)
(12.3025 0.071252 0)
(12.3476 0.0506507 0)
(12.466 0.0897409 0)
(12.384 0.047303 0)
(12.5721 0.105653 0)
(12.4527 0.0534544 0)
(12.6522 0.18732 0)
(9.9841 0.109912 0)
(10.2887 0.253628 0)
(10.6836 0.199739 0)
(11.0457 0.162083 0)
(11.3024 0.0561753 0)
(11.5074 0.122526 0)
(11.594 0.0548569 0)
(11.7637 0.0979839 0)
(11.7134 0.0473748 0)
(11.8939 0.0877468 0)
(11.9939 0.00860234 0)
(12.0582 0.0815306 0)
(12.0705 0.0252648 0)
(12.269 0.0725254 0)
(12.2363 0.0030219 0)
(12.3996 0.106428 0)
(12.3864 0.00290508 0)
(12.4967 0.115458 0)
(12.5068 0.0370554 0)
(12.5452 0.129988 0)
(9.98737 0.0668766 0)
(10.2355 0.131852 0)
(10.6106 0.131864 0)
(11.0212 0.108559 0)
(11.2565 0.0448828 0)
(11.425 0.0498064 0)
(11.6242 0.0267949 0)
(11.6707 0.0562536 0)
(11.743 0.0724842 0)
(11.8354 0.00379888 0)
(11.935 0.0216189 0)
(11.9621 0.0596057 0)
(12.1438 -0.00257749 0)
(12.1628 0.0174853 0)
(12.2866 0.0315204 0)
(12.2347 0.0313018 0)
(12.4224 0.0413872 0)
(12.3883 0.0319337 0)
(12.4539 0.0438412 0)
(12.3515 -0.00463307 0)
(10.0087 0.0213562 0)
(10.2124 0.0507395 0)
(10.6041 0.0268243 0)
(10.9469 0.0394065 0)
(11.2715 0.00517496 0)
(11.4287 0.0435832 0)
(11.5692 -0.012229 0)
(11.6075 0.0416977 0)
(11.7551 -0.00175338 0)
(11.8527 0.0260605 0)
(11.8683 -0.0210481 0)
(11.9904 0.0228392 0)
(12.1144 -0.00734157 0)
(12.0704 0.021932 0)
(12.2137 0.00134059 0)
(12.2317 0.0457772 0)
(12.4013 -0.0304327 0)
(12.328 0.0543636 0)
(12.5047 -0.00946205 0)
(12.3661 -0.0193269 0)
(9.99855 -0.0189781 0)
(10.2469 -0.061463 0)
(10.5761 -0.0378504 0)
(10.9783 -0.0171223 0)
(11.1907 -0.0237223 0)
(11.5075 -0.00750712 0)
(11.5118 -0.0252038 0)
(11.6812 -0.0139692 0)
(11.6882 0.0036325 0)
(11.8707 -0.0371663 0)
(11.8543 -0.00731471 0)
(12.0206 -0.00281346 0)
(12.0296 -0.0182212 0)
(12.1628 -0.0065446 0)
(12.1579 -0.00985707 0)
(12.4012 -0.0220164 0)
(12.2724 0.00267066 0)
(12.4696 -0.0326226 0)
(12.3987 -0.0129765 0)
(12.4055 -0.0388872 0)
(9.99688 -0.0660275 0)
(10.2281 -0.146794 0)
(10.6552 -0.133291 0)
(10.9572 -0.0834468 0)
(11.3206 -0.0653938 0)
(11.4101 -0.0287164 0)
(11.5945 -0.0503057 0)
(11.5875 -0.0401542 0)
(11.843 -0.0470666 0)
(11.8006 -0.0371374 0)
(11.9491 -0.0459723 0)
(12.0202 -0.0317202 0)
(12.0811 -0.024242 0)
(12.1607 -0.0286475 0)
(12.2377 -0.0392997 0)
(12.2557 -0.0142101 0)
(12.4146 -0.043224 0)
(12.3657 -0.0286949 0)
(12.4543 -0.0333492 0)
(12.4528 -0.0740963 0)
(9.99491 -0.111255 0)
(10.2851 -0.267772 0)
(10.6653 -0.203393 0)
(11.0481 -0.141136 0)
(11.2876 -0.0869269 0)
(11.511 -0.0621551 0)
(11.5694 -0.0776096 0)
(11.7554 -0.0974835 0)
(11.7874 -0.0601327 0)
(11.9086 -0.0744944 0)
(11.9533 -0.0566474 0)
(12.0358 -0.0405601 0)
(12.1534 -0.0463137 0)
(12.1533 -0.0462103 0)
(12.2965 -0.03966 0)
(12.3509 -0.0686382 0)
(12.3895 -0.0488485 0)
(12.5027 -0.0688974 0)
(12.4986 -0.0934284 0)
(12.4377 -0.044196 0)
(10.018 -0.175896 0)
(10.307 -0.358111 0)
(10.761 -0.290667 0)
(11.0762 -0.196964 0)
(11.4051 -0.128722 0)
(11.5505 -0.100571 0)
(11.6995 -0.110924 0)
(11.7636 -0.12241 0)
(11.898 -0.0868873 0)
(11.9313 -0.0964478 0)
(12.0273 -0.0712466 0)
(12.1274 -0.083908 0)
(12.1878 -0.0485015 0)
(12.2681 -0.0717723 0)
(12.3485 -0.0734977 0)
(12.4263 -0.0683884 0)
(12.4679 -0.0776235 0)
(12.5182 -0.105941 0)
(12.5749 -0.0763151 0)
(12.5019 -0.111872 0)
(10.0682 -0.251362 0)
(10.3222 -0.472203 0)
(10.8849 -0.367222 0)
(11.1559 -0.238006 0)
(11.5394 -0.168865 0)
(11.6127 -0.13884 0)
(11.8087 -0.142603 0)
(11.8382 -0.159925 0)
(12.0064 -0.111394 0)
(11.9836 -0.117842 0)
(12.1388 -0.100986 0)
(12.1579 -0.0925857 0)
(12.2639 -0.0699818 0)
(12.2661 -0.0962167 0)
(12.4002 -0.0764867 0)
(12.3776 -0.103286 0)
(12.461 -0.085197 0)
(12.442 -0.128745 0)
(12.48 -0.127427 0)
(12.3952 -0.128285 0)
(10.0744 -0.351071 0)
(10.3831 -0.569408 0)
(11.0312 -0.452514 0)
(11.2891 -0.292168 0)
(11.6807 -0.221278 0)
(11.6684 -0.179293 0)
(11.9019 -0.181443 0)
(11.817 -0.183471 0)
(11.9994 -0.1365 0)
(11.8718 -0.133733 0)
(12.039 -0.118768 0)
(11.9106 -0.110839 0)
(12.0462 -0.0814959 0)
(11.9028 -0.105144 0)
(12.0245 -0.0925871 0)
(11.866 -0.102233 0)
(11.9448 -0.089089 0)
(11.7779 -0.141782 0)
(11.7977 -0.117289 0)
(11.5809 -0.159694 0)
(10.0231 -0.45846 0)
(10.5408 -0.709641 0)
(11.17 -0.540556 0)
(11.3733 -0.351852 0)
(11.5667 -0.269179 0)
(11.4483 -0.217622 0)
(11.5153 -0.201757 0)
(11.2741 -0.186709 0)
(11.3198 -0.139949 0)
(11.0547 -0.126691 0)
(11.0955 -0.111785 0)
(10.8302 -0.0950221 0)
(10.899 -0.0727749 0)
(10.6228 -0.0882049 0)
(10.6964 -0.0720896 0)
(10.4215 -0.0844131 0)
(10.4881 -0.0686139 0)
(10.1921 -0.117662 0)
(10.2105 -0.0949163 0)
(9.87643 -0.153827 0)
(10.072 -0.633119 0)
(10.644 -0.864253 0)
(10.8726 -0.598106 0)
(10.6907 -0.373007 0)
(10.4554 -0.260566 0)
(10.0826 -0.191 0)
(9.85369 -0.154088 0)
(9.46874 -0.129365 0)
(9.3382 -0.0902609 0)
(9.01017 -0.0750359 0)
(8.94495 -0.0635804 0)
(8.66505 -0.0535083 0)
(8.67302 -0.0388609 0)
(8.39909 -0.0479262 0)
(8.43686 -0.043016 0)
(8.1663 -0.0480906 0)
(8.2128 -0.0439295 0)
(7.91206 -0.0718143 0)
(7.92185 -0.0693334 0)
(7.57899 -0.0845456 0)
(10.0885 -0.83863 0)
(9.64959 -0.868532 0)
(8.87429 -0.505721 0)
(8.08374 -0.261007 0)
(7.48981 -0.140837 0)
(7.00622 -0.0796843 0)
(6.70578 -0.0532506 0)
(6.38204 -0.0448048 0)
(6.23991 -0.0278516 0)
(6.0069 -0.0227686 0)
(5.94146 -0.0213413 0)
(5.75109 -0.0189981 0)
(5.74377 -0.0117862 0)
(5.56051 -0.0193473 0)
(5.57086 -0.017843 0)
(5.3795 -0.0214746 0)
(5.39674 -0.0193151 0)
(5.17343 -0.0339538 0)
(5.16499 -0.0382535 0)
(4.87629 -0.0156214 0)
(8.09224 -0.387983 0)
(5.44724 -0.242577 0)
(3.9114 -0.0427605 0)
(3.15875 0.015792 0)
(2.79955 0.0173793 0)
(2.59657 0.0116804 0)
(2.48832 0.00619528 0)
(2.37506 0.000899918 0)
(2.32056 0.00216136 0)
(2.24531 0.00118172 0)
(2.2221 -1.8978e-05 0)
(2.1543 -0.000461977 0)
(2.14973 0.00125614 0)
(2.08741 -0.00125696 0)
(2.08043 -0.000839729 0)
(2.00528 -0.00196147 0)
(1.99945 -0.000438559 0)
(1.90893 -0.00435427 0)
(1.86997 -0.00415515 0)
(1.72339 0.0111444 0)
(2.25647 -0.158062 0)
(2.38189 -0.0767775 0)
(2.48222 -0.0207694 0)
(2.56382 0.00502967 0)
(2.64656 0.00620424 0)
(2.71963 0.00147005 0)
(2.80109 -0.00388088 0)
(2.88266 -0.00379341 0)
(2.96521 0.000356104 0)
(3.03805 0.00292344 0)
(3.10864 -0.00116696 0)
(3.16983 -0.0118873 0)
(3.22954 -0.028491 0)
(3.27522 -0.0413506 0)
(3.322 -0.0484252 0)
(3.35363 -0.0483729 0)
(3.39166 -0.0450524 0)
(3.4222 -0.0424522 0)
(3.46056 -0.0410236 0)
(3.49881 -0.0431583 0)
(3.53857 -0.0494423 0)
(3.5738 -0.0548664 0)
(3.59887 -0.0557454 0)
(3.62892 -0.0512262 0)
(3.64513 -0.0428094 0)
(3.66706 -0.0322928 0)
(3.68204 -0.0217501 0)
(3.71077 -0.00847622 0)
(3.7254 0.00204201 0)
(3.75679 0.0104589 0)
(3.76963 0.0212586 0)
(3.80247 0.0327798 0)
(3.81188 0.043436 0)
(3.84949 0.0572103 0)
(3.86116 0.0723331 0)
(3.90636 0.0851991 0)
(3.92544 0.101909 0)
(3.98008 0.108856 0)
(4.01529 0.114866 0)
(4.07229 0.116259 0)
(4.1151 0.107722 0)
(4.18912 0.0896425 0)
(4.22854 0.0768931 0)
(4.2834 0.0572303 0)
(4.32819 0.0345623 0)
(4.38481 0.0161852 0)
(4.40393 0.000671943 0)
(4.47553 -0.0232161 0)
(4.50553 -0.0577763 0)
(4.57315 -0.0878592 0)
(4.58418 -0.125301 0)
(4.64433 -0.163725 0)
(4.62592 -0.203807 0)
(4.6547 -0.234464 0)
(4.59084 -0.254951 0)
(4.60223 -0.26048 0)
(4.49592 -0.256503 0)
(4.51454 -0.233893 0)
(4.40016 -0.206709 0)
(4.44791 -0.156619 0)
(4.32571 -0.109492 0)
(4.41361 -0.0406081 0)
(4.29704 0.01193 0)
(4.40201 0.0856309 0)
(4.29537 0.135128 0)
(4.40223 0.195503 0)
(4.33708 0.248479 0)
(4.41637 0.305214 0)
(4.43596 0.361273 0)
(4.46937 0.402797 0)
(4.62384 0.457722 0)
(4.59095 0.501186 0)
(4.88787 0.524191 0)
(4.82935 0.541728 0)
(5.20008 0.490539 0)
(5.13451 0.489576 0)
(5.51872 0.376217 0)
(5.43917 0.323699 0)
(5.79799 0.141847 0)
(5.64717 0.0617289 0)
(5.99976 -0.178811 0)
(5.81828 -0.285288 0)
(6.13631 -0.552669 0)
(5.91582 -0.653186 0)
(6.17779 -0.904952 0)
(5.89739 -1.00951 0)
(6.07696 -1.20493 0)
(5.64941 -1.23065 0)
(5.64388 -1.25214 0)
(5.25338 -1.05987 0)
(5.30496 -0.857483 0)
(5.13424 -0.520786 0)
(5.18321 -0.27601 0)
(4.91165 0.0500358 0)
(5.01176 0.125836 0)
(4.94657 0.413917 0)
(5.25807 0.403146 0)
(5.23457 0.58393 0)
(5.81619 0.580281 0)
(5.53866 0.760001 0)
(6.35322 0.571449 0)
(5.73196 0.839925 0)
(6.68918 0.373212 0)
(5.68511 0.771235 0)
(6.86431 0.198739 0)
(5.42713 0.634185 0)
(7.00094 0.151877 0)
(5.0726 0.540364 0)
(7.12348 0.211209 0)
(4.84926 0.600083 0)
(7.22541 0.194581 0)
(4.83117 0.857925 0)
(7.37549 0.176387 0)
(4.92081 1.03199 0)
(7.72248 0.356725 0)
(4.94836 1.139 0)
(8.20671 0.434904 0)
(5.21547 1.38468 0)
(8.57772 0.252118 0)
(5.56711 1.42948 0)
(9.01127 0.146306 0)
(5.48746 1.12818 0)
(9.51332 -0.0104511 0)
(5.17734 1.01115 0)
(9.98441 -0.362533 0)
(5.03342 0.993677 0)
(10.2443 -0.606995 0)
(5.19599 0.774126 0)
(10.4698 -0.779176 0)
(5.48342 0.463445 0)
(10.9018 -1.13738 0)
(5.88699 0.0809095 0)
(11.3479 -1.58225 0)
(6.53304 -0.432226 0)
(11.6645 -1.94473 0)
(7.29406 -0.955875 0)
(11.9571 -2.16837 0)
(8.08134 -1.30791 0)
(12.2425 -2.32271 0)
(8.71913 -1.38331 0)
(12.5784 -2.31237 0)
(9.23541 -1.40302 0)
(12.6904 -2.0009 0)
(9.75568 -1.37024 0)
(12.6104 -1.68938 0)
(10.1359 -1.10244 0)
(12.5245 -1.45754 0)
(10.3491 -0.808006 0)
(12.4413 -1.08752 0)
(10.4649 -0.602537 0)
(12.3526 -0.686932 0)
(10.4569 -0.357177 0)
(12.3333 -0.36885 0)
(10.3838 -0.0558486 0)
(12.2966 -0.0963179 0)
(10.3163 0.232032 0)
(12.2741 0.192691 0)
(10.2201 0.528692 0)
(12.2849 0.429041 0)
(10.107 0.83735 0)
(12.3049 0.631481 0)
(9.97777 1.1236 0)
(12.403 0.858507 0)
(9.74947 1.36043 0)
(12.5736 1.03716 0)
(9.40561 1.5502 0)
(12.8136 1.17425 0)
(8.96609 1.70133 0)
(13.11 1.24881 0)
(8.55412 1.83012 0)
(13.3771 1.16405 0)
(8.3029 1.95982 0)
(13.4481 0.89208 0)
(8.29303 1.98612 0)
(13.3337 0.585081 0)
(8.52524 1.83142 0)
(13.0932 0.366718 0)
(8.86275 1.60694 0)
(12.7979 0.157757 0)
(9.32147 1.42978 0)
(12.4695 -0.21676 0)
(9.74917 1.21258 0)
(12.2679 -0.560319 0)
(9.98674 0.86214 0)
(12.1467 -0.850691 0)
(10.0963 0.422229 0)
(12.0339 -1.23596 0)
(10.1445 0.0410233 0)
(11.8549 -1.71467 0)
(10.022 -0.409017 0)
(11.6714 -2.1846 0)
(9.68848 -0.770374 0)
(11.3014 -2.66588 0)
(9.08977 -1.00765 0)
(10.6766 -2.94718 0)
(8.05674 -0.834797 0)
(9.75243 -2.86266 0)
(6.61511 0.317164 0)
(8.38279 -1.70401 0)
(6.31659 4.15995 0)
(5.32766 -0.0969459 0)
(5.3591 -0.0820271 0)
(5.37335 -0.061509 0)
(5.36469 -0.0407418 0)
(5.38336 -0.0417568 0)
(5.40259 -0.0485606 0)
(5.45562 -0.0579591 0)
(5.49601 -0.058712 0)
(5.55586 -0.0529877 0)
(5.58837 -0.0457682 0)
(5.63884 -0.0465527 0)
(5.66142 -0.0486932 0)
(5.70382 -0.0592583 0)
(5.71766 -0.0634986 0)
(5.7584 -0.0699009 0)
(5.76951 -0.0729229 0)
(5.80582 -0.0719099 0)
(5.81448 -0.0733438 0)
(5.84901 -0.0730817 0)
(5.86218 -0.0766829 0)
(5.89462 -0.0787293 0)
(5.90536 -0.0818704 0)
(5.93019 -0.0788946 0)
(5.93691 -0.0738786 0)
(5.9569 -0.0644101 0)
(5.96073 -0.0497366 0)
(5.97947 -0.0348283 0)
(5.98225 -0.0200975 0)
(6.00019 -0.007835 0)
(6.00146 0.00111864 0)
(6.01937 0.0142459 0)
(6.0244 0.0229377 0)
(6.04202 0.0335217 0)
(6.05227 0.0423287 0)
(6.07094 0.054234 0)
(6.09109 0.0633005 0)
(6.11101 0.0726625 0)
(6.14561 0.0779598 0)
(6.16682 0.0792732 0)
(6.21951 0.0811237 0)
(6.23241 0.0672437 0)
(6.30232 0.0592615 0)
(6.31171 0.0351228 0)
(6.38526 0.0254848 0)
(6.382 -0.00360523 0)
(6.46743 -0.0178946 0)
(6.45323 -0.0443914 0)
(6.53579 -0.0540894 0)
(6.52479 -0.0933943 0)
(6.6053 -0.105989 0)
(6.58569 -0.145655 0)
(6.64895 -0.163691 0)
(6.60874 -0.199449 0)
(6.65138 -0.212492 0)
(6.57609 -0.232859 0)
(6.59739 -0.231667 0)
(6.49223 -0.224728 0)
(6.50202 -0.205456 0)
(6.39794 -0.166664 0)
(6.39975 -0.135278 0)
(6.31666 -0.0715985 0)
(6.3008 -0.0289131 0)
(6.25735 0.0378415 0)
(6.21477 0.0812869 0)
(6.21621 0.144237 0)
(6.15303 0.189287 0)
(6.20175 0.236819 0)
(6.1323 0.287678 0)
(6.217 0.318933 0)
(6.17226 0.378345 0)
(6.27938 0.366815 0)
(6.29978 0.447632 0)
(6.41315 0.389791 0)
(6.51837 0.453392 0)
(6.6352 0.353452 0)
(6.77169 0.374018 0)
(6.95387 0.242419 0)
(7.02356 0.201895 0)
(7.28945 0.0326054 0)
(7.2485 -0.0591453 0)
(7.56694 -0.252652 0)
(7.4479 -0.37492 0)
(7.78872 -0.591387 0)
(7.58258 -0.703869 0)
(7.88181 -0.934091 0)
(7.59035 -1.01224 0)
(7.80368 -1.19031 0)
(7.4596 -1.11428 0)
(7.59272 -1.13683 0)
(7.26686 -0.866365 0)
(7.36159 -0.795616 0)
(7.06803 -0.434989 0)
(7.19955 -0.355486 0)
(6.90531 0.0679141 0)
(7.20982 0.160732 0)
(6.82773 0.4901 0)
(7.30173 0.429845 0)
(6.69775 0.688563 0)
(7.37919 0.419437 0)
(6.47826 0.788784 0)
(7.52088 0.29987 0)
(6.2527 0.805849 0)
(7.76767 0.199832 0)
(5.93799 0.715156 0)
(8.06854 0.141397 0)
(5.59553 0.654013 0)
(8.28772 0.0459812 0)
(5.43772 0.760964 0)
(8.32069 -0.104865 0)
(5.47853 0.93709 0)
(8.31767 -0.141262 0)
(5.50278 1.02564 0)
(8.46487 -0.0311571 0)
(5.50358 1.10856 0)
(8.6972 0.00416972 0)
(5.64118 1.34511 0)
(8.99395 -0.105071 0)
(5.83904 1.50619 0)
(9.39795 -0.0582272 0)
(5.93175 1.36739 0)
(10.0003 -0.0595302 0)
(5.72311 1.25477 0)
(10.6687 -0.38552 0)
(5.54754 1.26548 0)
(11.0586 -0.674943 0)
(5.56818 1.0654 0)
(11.308 -0.753715 0)
(5.68444 0.753561 0)
(11.6744 -1.03046 0)
(5.90885 0.496179 0)
(12.2075 -1.51386 0)
(6.32259 0.0611949 0)
(12.6862 -1.90607 0)
(6.96477 -0.556859 0)
(13.1271 -2.22821 0)
(7.65529 -1.05821 0)
(13.5701 -2.49841 0)
(8.31333 -1.36 0)
(13.96 -2.64321 0)
(8.80531 -1.39893 0)
(14.3449 -2.59754 0)
(9.07046 -1.35086 0)
(14.5907 -2.28889 0)
(9.32671 -1.25217 0)
(14.6219 -1.96276 0)
(9.5753 -0.971216 0)
(14.5797 -1.72658 0)
(9.77059 -0.647457 0)
(14.4992 -1.36276 0)
(9.98108 -0.445691 0)
(14.4177 -0.971655 0)
(10.1402 -0.167682 0)
(14.4481 -0.692873 0)
(10.3268 0.178536 0)
(14.5366 -0.465437 0)
(10.532 0.47615 0)
(14.7091 -0.133498 0)
(10.6983 0.709249 0)
(14.9422 0.173788 0)
(10.8423 1.00499 0)
(15.126 0.415326 0)
(10.9659 1.27628 0)
(15.2757 0.677747 0)
(10.9771 1.49748 0)
(15.426 0.872001 0)
(10.8143 1.73971 0)
(15.5373 0.992956 0)
(10.5316 1.95933 0)
(15.5603 1.03705 0)
(10.2797 2.14589 0)
(15.4237 0.999182 0)
(10.1358 2.22411 0)
(15.0806 0.884556 0)
(10.1723 2.13669 0)
(14.5517 0.700316 0)
(10.3308 1.9366 0)
(14.0195 0.467142 0)
(10.5402 1.65268 0)
(13.6208 0.218956 0)
(10.6668 1.27906 0)
(13.4749 0.0554096 0)
(10.6565 0.820973 0)
(13.4033 -0.152005 0)
(10.6818 0.380896 0)
(13.3433 -0.436568 0)
(10.7058 0.0295661 0)
(13.2845 -0.858419 0)
(10.6982 -0.271806 0)
(13.1783 -1.29298 0)
(10.5955 -0.543488 0)
(12.9033 -1.74759 0)
(10.3125 -0.722662 0)
(12.3999 -2.15678 0)
(9.78209 -0.718781 0)
(11.6089 -2.28292 0)
(9.01466 -0.331585 0)
(10.6606 -2.04893 0)
(8.21992 0.960384 0)
(9.74072 -0.882327 0)
(8.40168 3.32649 0)
(8.02649 -0.0576485 0)
(8.0043 -0.00710319 0)
(7.99982 -0.00283767 0)
(7.9609 -0.0179111 0)
(7.98938 -0.0520416 0)
(7.98231 -0.0700067 0)
(8.04802 -0.0810801 0)
(8.04727 -0.0823123 0)
(8.11072 -0.0775268 0)
(8.09357 -0.0730402 0)
(8.14725 -0.072199 0)
(8.12171 -0.0649146 0)
(8.18398 -0.0707194 0)
(8.15403 -0.0726749 0)
(8.21961 -0.0783131 0)
(8.1831 -0.0858561 0)
(8.24491 -0.0847771 0)
(8.20946 -0.0921794 0)
(8.26401 -0.0896348 0)
(8.2376 -0.0947959 0)
(8.28506 -0.0885152 0)
(8.26687 -0.0903946 0)
(8.30097 -0.0829903 0)
(8.28519 -0.0763758 0)
(8.30775 -0.069363 0)
(8.29157 -0.0545824 0)
(8.31073 -0.0420632 0)
(8.29769 -0.0287336 0)
(8.31073 -0.0111285 0)
(8.30994 -0.0043091 0)
(8.30966 0.0080195 0)
(8.32423 0.0151612 0)
(8.31207 0.0193201 0)
(8.34098 0.0317834 0)
(8.32333 0.0347505 0)
(8.36648 0.0485922 0)
(8.34506 0.046494 0)
(8.40723 0.0621997 0)
(8.38049 0.045644 0)
(8.45422 0.0635773 0)
(8.43294 0.0271095 0)
(8.49922 0.0398022 0)
(8.49987 -0.000435339 0)
(8.54323 -0.00221674 0)
(8.56486 -0.0331835 0)
(8.58661 -0.0430928 0)
(8.63143 -0.07389 0)
(8.62271 -0.0783098 0)
(8.69415 -0.111588 0)
(8.65184 -0.125716 0)
(8.74574 -0.147267 0)
(8.66762 -0.17863 0)
(8.75659 -0.180658 0)
(8.65552 -0.212292 0)
(8.71936 -0.205088 0)
(8.60338 -0.212039 0)
(8.63852 -0.19096 0)
(8.5282 -0.171183 0)
(8.53147 -0.132562 0)
(8.45836 -0.0899379 0)
(8.41916 -0.0482098 0)
(8.40062 0.0221767 0)
(8.30635 0.0518243 0)
(8.3424 0.130869 0)
(8.20751 0.153171 0)
(8.29452 0.223672 0)
(8.13543 0.234504 0)
(8.26969 0.306606 0)
(8.10559 0.289536 0)
(8.27935 0.36971 0)
(8.14129 0.32916 0)
(8.3385 0.384303 0)
(8.26358 0.342188 0)
(8.46361 0.351364 0)
(8.47343 0.284236 0)
(8.63338 0.256564 0)
(8.74648 0.145058 0)
(8.85253 0.0863663 0)
(9.01797 -0.0810303 0)
(9.09633 -0.143935 0)
(9.25054 -0.365321 0)
(9.31413 -0.420591 0)
(9.43728 -0.683773 0)
(9.45354 -0.706205 0)
(9.51393 -0.973722 0)
(9.46983 -0.941387 0)
(9.47633 -1.12212 0)
(9.3431 -0.995152 0)
(9.35339 -1.05389 0)
(9.05156 -0.804088 0)
(9.20882 -0.770054 0)
(8.77381 -0.393419 0)
(9.16122 -0.331987 0)
(8.56266 0.129166 0)
(9.1476 0.100393 0)
(8.42261 0.57192 0)
(9.20227 0.343573 0)
(8.26156 0.869674 0)
(9.28502 0.416658 0)
(7.90233 0.983427 0)
(9.3897 0.383846 0)
(7.35015 0.94309 0)
(9.4611 0.256985 0)
(6.77952 0.892234 0)
(9.38021 0.0175264 0)
(6.44954 0.948548 0)
(9.13463 -0.251573 0)
(6.34721 1.03932 0)
(8.86601 -0.320057 0)
(6.32414 1.04342 0)
(8.74435 -0.237347 0)
(6.25442 1.10552 0)
(8.88192 -0.236825 0)
(6.14786 1.2816 0)
(9.13095 -0.321826 0)
(6.18963 1.46886 0)
(9.38948 -0.328398 0)
(6.23329 1.47095 0)
(9.92639 -0.19828 0)
(6.06294 1.3732 0)
(10.7386 -0.360985 0)
(5.93945 1.42585 0)
(11.2207 -0.675905 0)
(6.1396 1.30839 0)
(11.3617 -0.792675 0)
(6.41736 1.05414 0)
(11.5896 -0.990146 0)
(6.77547 0.786236 0)
(11.9307 -1.37828 0)
(7.34346 0.42892 0)
(12.3721 -1.84667 0)
(7.97386 -0.0643469 0)
(12.9285 -2.28121 0)
(8.6403 -0.648964 0)
(13.4807 -2.65236 0)
(9.22765 -1.09255 0)
(13.9145 -2.97307 0)
(9.75601 -1.27847 0)
(14.0983 -3.10601 0)
(10.0769 -1.25359 0)
(14.2574 -2.98288 0)
(10.0267 -1.13037 0)
(14.4538 -2.66756 0)
(9.8215 -0.953441 0)
(14.5203 -2.31926 0)
(9.71312 -0.681122 0)
(14.4949 -2.02813 0)
(9.68451 -0.37184 0)
(14.4639 -1.69612 0)
(9.71324 -0.160177 0)
(14.4808 -1.29971 0)
(9.75511 0.0163303 0)
(14.5882 -0.985551 0)
(9.86277 0.279892 0)
(14.7264 -0.775529 0)
(10.1062 0.560588 0)
(14.9601 -0.48738 0)
(10.4217 0.745052 0)
(15.3412 -0.147412 0)
(10.7778 1.01658 0)
(15.718 0.0769642 0)
(11.1978 1.32171 0)
(16.1511 0.397049 0)
(11.4777 1.49492 0)
(16.5941 0.709817 0)
(11.7137 1.75497 0)
(16.8575 0.838118 0)
(11.9411 2.05357 0)
(16.8983 0.930039 0)
(12.1121 2.23 0)
(16.7515 0.978419 0)
(12.255 2.32077 0)
(16.3829 0.975635 0)
(12.3276 2.21624 0)
(15.968 0.885466 0)
(12.3128 1.99018 0)
(15.5992 0.75404 0)
(12.2459 1.65704 0)
(15.3215 0.60004 0)
(12.1595 1.27433 0)
(14.9541 0.281962 0)
(12.2351 0.928826 0)
(14.4811 -0.139941 0)
(12.328 0.555155 0)
(14.0963 -0.535742 0)
(12.2379 0.164634 0)
(13.8541 -0.943591 0)
(11.9825 -0.199413 0)
(13.5949 -1.32122 0)
(11.6705 -0.583922 0)
(13.1833 -1.63016 0)
(11.266 -0.787306 0)
(12.6094 -1.89725 0)
(10.6662 -0.743203 0)
(11.9077 -1.89237 0)
(9.99872 -0.358024 0)
(11.1121 -1.46489 0)
(9.45454 0.645387 0)
(10.436 -0.429896 0)
(9.50762 1.90627 0)
(10.3429 -0.0254292 0)
(10.266 0.0411355 0)
(10.2306 0.0212218 0)
(10.1174 -0.0155618 0)
(10.1804 -0.0752666 0)
(10.1313 -0.0982041 0)
(10.257 -0.0992905 0)
(10.2163 -0.0879689 0)
(10.3211 -0.0701114 0)
(10.25 -0.0613249 0)
(10.328 -0.0729468 0)
(10.2357 -0.0716177 0)
(10.3233 -0.0880967 0)
(10.23 -0.0843377 0)
(10.3322 -0.0858276 0)
(10.2555 -0.0910454 0)
(10.3461 -0.0814601 0)
(10.2893 -0.0922244 0)
(10.3436 -0.0904261 0)
(10.3138 -0.0963071 0)
(10.331 -0.0953569 0)
(10.3306 -0.091725 0)
(10.3265 -0.0856918 0)
(10.3404 -0.0708014 0)
(10.3226 -0.0662868 0)
(10.34 -0.045726 0)
(10.3119 -0.0503641 0)
(10.3453 -0.0199899 0)
(10.2997 -0.0256593 0)
(10.3557 0.00336582 0)
(10.2985 0.0029125 0)
(10.3605 0.0275739 0)
(10.3102 0.0257941 0)
(10.3637 0.0386063 0)
(10.3235 0.0404966 0)
(10.369 0.0437435 0)
(10.3411 0.0423506 0)
(10.3806 0.0428772 0)
(10.3869 0.0397395 0)
(10.3828 0.0360005 0)
(10.462 0.0250521 0)
(10.3869 0.010693 0)
(10.5391 0.00515818 0)
(10.4043 -0.0277895 0)
(10.5998 -0.0330616 0)
(10.4233 -0.0604899 0)
(10.6482 -0.0847396 0)
(10.432 -0.0904649 0)
(10.68 -0.131285 0)
(10.4369 -0.123797 0)
(10.6786 -0.167403 0)
(10.4522 -0.161756 0)
(10.6344 -0.185938 0)
(10.4606 -0.183734 0)
(10.5551 -0.189751 0)
(10.4509 -0.177143 0)
(10.4424 -0.162339 0)
(10.4335 -0.129065 0)
(10.3069 -0.104276 0)
(10.415 -0.0410643 0)
(10.1845 -0.0229555 0)
(10.388 0.0699005 0)
(10.0883 0.0696396 0)
(10.3467 0.170901 0)
(10.0189 0.171191 0)
(10.3041 0.248997 0)
(9.98559 0.256477 0)
(10.2688 0.301154 0)
(9.99671 0.317202 0)
(10.2607 0.330387 0)
(10.0549 0.341015 0)
(10.2993 0.334207 0)
(10.1675 0.315076 0)
(10.4006 0.29433 0)
(10.3264 0.214965 0)
(10.5616 0.202497 0)
(10.4988 0.033826 0)
(10.7804 0.034076 0)
(10.6676 -0.195481 0)
(11.0059 -0.207449 0)
(10.8218 -0.44102 0)
(11.1639 -0.493552 0)
(10.9499 -0.696289 0)
(11.2226 -0.768795 0)
(10.9844 -0.90766 0)
(11.1618 -0.968695 0)
(10.9127 -1.00673 0)
(10.9597 -0.989181 0)
(10.7535 -0.977849 0)
(10.644 -0.748221 0)
(10.5976 -0.748259 0)
(10.3709 -0.287281 0)
(10.5186 -0.380679 0)
(10.1488 0.234008 0)
(10.5243 -0.00442533 0)
(9.94938 0.684827 0)
(10.7038 0.292507 0)
(9.67476 0.971779 0)
(10.9838 0.460359 0)
(9.2368 1.11089 0)
(11.1905 0.427704 0)
(8.77838 1.19467 0)
(11.1538 0.215247 0)
(8.42378 1.26367 0)
(10.8578 -0.0492034 0)
(8.15489 1.26786 0)
(10.4377 -0.208682 0)
(7.87465 1.19892 0)
(10.1122 -0.250912 0)
(7.51502 1.17689 0)
(10.0263 -0.311306 0)
(7.17511 1.27241 0)
(10.0353 -0.439003 0)
(7.06706 1.4206 0)
(10.0042 -0.463369 0)
(7.04207 1.44069 0)
(10.2327 -0.348281 0)
(6.80066 1.39895 0)
(10.835 -0.406456 0)
(6.6916 1.46021 0)
(11.2223 -0.69755 0)
(7.09635 1.44386 0)
(11.204 -0.85113 0)
(7.62363 1.24022 0)
(11.3742 -1.00881 0)
(8.11558 1.01627 0)
(11.7149 -1.32403 0)
(8.89585 0.669916 0)
(12.0196 -1.66153 0)
(9.86323 0.169629 0)
(12.5494 -2.09677 0)
(10.6484 -0.372672 0)
(13.2847 -2.52241 0)
(11.2119 -0.9325 0)
(13.9047 -2.85549 0)
(11.5839 -1.29301 0)
(14.2398 -3.10679 0)
(11.763 -1.359 0)
(14.2382 -3.1575 0)
(11.7178 -1.24085 0)
(14.1257 -2.93926 0)
(11.3492 -1.07946 0)
(14.0436 -2.56205 0)
(10.838 -0.84345 0)
(13.89 -2.26329 0)
(10.4114 -0.51354 0)
(13.6912 -2.06027 0)
(10.1112 -0.179447 0)
(13.6105 -1.80069 0)
(9.92602 0.0569501 0)
(13.5778 -1.48003 0)
(9.8369 0.239118 0)
(13.5954 -1.19851 0)
(9.79867 0.410854 0)
(13.6978 -0.995448 0)
(9.86552 0.657031 0)
(13.9397 -0.831289 0)
(9.95168 0.880676 0)
(14.4407 -0.559992 0)
(10.1028 1.08071 0)
(14.954 -0.30234 0)
(10.494 1.34973 0)
(15.4041 -0.0155138 0)
(10.9805 1.57539 0)
(15.8151 0.269501 0)
(11.5431 1.8678 0)
(16.079 0.48019 0)
(12.1474 2.11643 0)
(16.2593 0.705391 0)
(12.5959 2.24148 0)
(16.3722 0.927393 0)
(12.982 2.22338 0)
(16.3515 1.06116 0)
(13.2129 2.06467 0)
(16.1942 1.04133 0)
(13.4569 1.82226 0)
(15.8703 0.94061 0)
(13.662 1.46931 0)
(15.5276 0.813785 0)
(13.8419 1.11299 0)
(15.1648 0.56865 0)
(13.9444 0.777287 0)
(14.9162 0.238846 0)
(13.9154 0.378694 0)
(14.8093 -0.09707 0)
(13.744 0.0113624 0)
(14.6966 -0.491587 0)
(13.5327 -0.248862 0)
(14.4081 -0.8534 0)
(13.261 -0.487769 0)
(13.9805 -1.14362 0)
(12.838 -0.653902 0)
(13.4407 -1.28883 0)
(12.2981 -0.652766 0)
(12.8648 -1.22002 0)
(11.7374 -0.343123 0)
(12.2331 -0.834527 0)
(11.3452 0.358231 0)
(11.7522 -0.00583427 0)
(11.2947 1.21474 0)
(11.9262 -0.0128191 0)
(11.8253 -0.00116631 0)
(11.8143 -0.0375113 0)
(11.6713 -0.0678301 0)
(11.7699 -0.110233 0)
(11.6946 -0.119918 0)
(11.8392 -0.121848 0)
(11.7774 -0.110804 0)
(11.899 -0.0973969 0)
(11.8089 -0.080689 0)
(11.9062 -0.0888076 0)
(11.7854 -0.0780544 0)
(11.879 -0.100129 0)
(11.7623 -0.089982 0)
(11.8409 -0.105765 0)
(11.7812 -0.104997 0)
(11.8256 -0.107631 0)
(11.8313 -0.101438 0)
(11.8171 -0.105222 0)
(11.8661 -0.0975114 0)
(11.7962 -0.0963533 0)
(11.8602 -0.0963944 0)
(11.772 -0.0894856 0)
(11.8415 -0.0824225 0)
(11.7596 -0.0755105 0)
(11.8336 -0.0570718 0)
(11.7678 -0.0485912 0)
(11.8454 -0.0359269 0)
(11.7808 -0.00517278 0)
(11.8454 -0.0262163 0)
(11.7917 0.0247519 0)
(11.8354 -0.0116445 0)
(11.7908 0.0315621 0)
(11.8349 0.00383652 0)
(11.7981 0.0352932 0)
(11.8431 0.0177973 0)
(11.8287 0.0334276 0)
(11.8469 0.0252327 0)
(11.8882 0.0227433 0)
(11.8271 0.0277871 0)
(11.9491 -0.0116297 0)
(11.8121 0.00962931 0)
(11.9997 -0.0412664 0)
(11.8123 -0.0240494 0)
(12.0461 -0.0759021 0)
(11.8261 -0.0519658 0)
(12.0891 -0.115045 0)
(11.8424 -0.0712126 0)
(12.1066 -0.150441 0)
(11.8545 -0.0980498 0)
(12.0635 -0.172521 0)
(11.8642 -0.138506 0)
(11.9606 -0.184648 0)
(11.8663 -0.156783 0)
(11.8209 -0.192793 0)
(11.8713 -0.140261 0)
(11.6814 -0.164735 0)
(11.8756 -0.0964099 0)
(11.5708 -0.0926772 0)
(11.8719 -0.0285992 0)
(11.5119 0.00664989 0)
(11.8432 0.0611471 0)
(11.488 0.107721 0)
(11.8158 0.152137 0)
(11.4824 0.209089 0)
(11.8077 0.2275 0)
(11.4896 0.279448 0)
(11.8271 0.291904 0)
(11.5154 0.29989 0)
(11.8752 0.336215 0)
(11.559 0.280693 0)
(11.9675 0.331299 0)
(11.6168 0.237389 0)
(12.1079 0.262457 0)
(11.7048 0.135068 0)
(12.2847 0.145981 0)
(11.7993 -0.0347087 0)
(12.4912 -0.0381493 0)
(11.8877 -0.231574 0)
(12.6789 -0.283746 0)
(11.9361 -0.457732 0)
(12.7986 -0.534305 0)
(11.912 -0.696596 0)
(12.8436 -0.753039 0)
(11.7645 -0.877864 0)
(12.7834 -0.893685 0)
(11.5243 -0.956926 0)
(12.5682 -0.867489 0)
(11.2608 -0.925006 0)
(12.2316 -0.592332 0)
(11.0754 -0.726187 0)
(11.8667 -0.15793 0)
(11.078 -0.400072 0)
(11.4835 0.317581 0)
(11.3102 -0.0486473 0)
(11.0771 0.752405 0)
(11.7438 0.205229 0)
(10.6753 1.08805 0)
(12.1872 0.291892 0)
(10.3447 1.35757 0)
(12.4256 0.216477 0)
(10.1223 1.53056 0)
(12.4162 0.0741144 0)
(9.89048 1.55449 0)
(12.2693 -0.0365731 0)
(9.5547 1.47516 0)
(12.1082 -0.0978437 0)
(9.11958 1.41344 0)
(11.9746 -0.194759 0)
(8.75302 1.41009 0)
(11.7292 -0.300786 0)
(8.61315 1.40454 0)
(11.3637 -0.307159 0)
(8.56932 1.33666 0)
(11.1562 -0.241818 0)
(8.40226 1.28982 0)
(11.3026 -0.333577 0)
(8.27544 1.38767 0)
(11.4788 -0.625614 0)
(8.56782 1.42694 0)
(11.4525 -0.777665 0)
(9.06487 1.24591 0)
(11.6594 -0.903634 0)
(9.47334 1.08824 0)
(12.2297 -1.23546 0)
(10.0392 0.830186 0)
(12.7744 -1.52944 0)
(10.9328 0.310044 0)
(13.2999 -1.81712 0)
(11.797 -0.249883 0)
(14.0136 -2.25638 0)
(12.4386 -0.747426 0)
(14.6391 -2.6647 0)
(12.8705 -1.19111 0)
(14.9728 -2.92987 0)
(13.0352 -1.40813 0)
(14.9763 -3.08748 0)
(12.9499 -1.32081 0)
(14.7176 -3.05675 0)
(12.6528 -1.09406 0)
(14.3823 -2.81714 0)
(12.1615 -0.84005 0)
(14.0752 -2.48132 0)
(11.6071 -0.555896 0)
(13.7304 -2.21642 0)
(11.1352 -0.265678 0)