/*--------------------------------*- C++ -*----------------------------------*\
| =========                 |                                                 |
| \\      /  F ield         | OpenFOAM: The Open Source CFD Toolbox           |
|  \\    /   O peration     | Version:  2.4.0                                 |
|   \\  /    A nd           | Web:      www.OpenFOAM.org                      |
|    \\/     M anipulation  |                                                 |
\*---------------------------------------------------------------------------*/
FoamFile
{
    version     2.0;
    format      ascii;
    class       volVectorField;
    location    "0.86";
    object      U_0;
}
// * * * * * * * * * * * * * * * * * * * * * * * * * * * * * * * * * * * * * //

dimensions      [0 1 -1 0 0 0 0];

internalField   nonuniform List<vector> 
8800
(
(8.09185 0.387954 0)
(5.4498 0.242525 0)
(3.91092 0.0429685 0)
(3.15678 -0.0155313 0)
(2.80212 -0.0183214 0)
(2.59767 -0.0108443 0)
(2.48437 -0.00573808 0)
(2.38019 -0.00249001 0)
(2.32063 -0.00146006 0)
(2.2481 -0.000268715 0)
(2.21797 -0.00108376 0)
(2.16655 -0.000118678 0)
(2.14591 0.000104236 0)
(2.09974 0.000403866 0)
(2.07894 0.000133496 0)
(2.03896 0.000971744 0)
(2.0057 0.000957856 0)
(1.96465 0.00018506 0)
(1.93958 0.00819041 0)
(1.74225 -0.0595308 0)
(10.0856 0.838429 0)
(9.65764 0.867844 0)
(8.87095 0.50713 0)
(8.08229 0.261242 0)
(7.49511 0.137892 0)
(7.00544 0.0829149 0)
(6.69861 0.0536758 0)
(6.39927 0.0404203 0)
(6.22827 0.030141 0)
(6.01955 0.0253753 0)
(5.93186 0.0171254 0)
(5.77698 0.0177651 0)
(5.72221 0.0152749 0)
(5.59862 0.0166345 0)
(5.5507 0.0134434 0)
(5.44758 0.0180056 0)
(5.38204 0.0192711 0)
(5.28363 0.0143779 0)
(5.22755 0.0291569 0)
(5.06096 -0.0438055 0)
(10.0651 0.631646 0)
(10.6592 0.863632 0)
(10.8675 0.60178 0)
(10.6897 0.372501 0)
(10.4594 0.255295 0)
(10.0851 0.197963 0)
(9.83901 0.152234 0)
(9.49715 0.122879 0)
(9.31729 0.0950039 0)
(9.03054 0.0781888 0)
(8.93104 0.0562945 0)
(8.69929 0.0532814 0)
(8.6387 0.0431994 0)
(8.45121 0.0430643 0)
(8.40575 0.0360708 0)
(8.24367 0.0412372 0)
(8.18814 0.0446187 0)
(8.03 0.0391372 0)
(7.97487 0.0517574 0)
(7.79838 -0.0479865 0)
(10.0064 0.456738 0)
(10.5684 0.70614 0)
(11.1672 0.547441 0)
(11.3713 0.350902 0)
(11.556 0.26084 0)
(11.4629 0.229822 0)
(11.4912 0.198004 0)
(11.3043 0.176774 0)
(11.3003 0.1494 0)
(11.0771 0.129132 0)
(11.0823 0.100452 0)
(10.8627 0.0961703 0)
(10.8689 0.0801918 0)
(10.6655 0.0784798 0)
(10.6742 0.0645685 0)
(10.4778 0.0751759 0)
(10.4816 0.06689 0)
(10.2685 0.0837313 0)
(10.2722 0.0605587 0)
(10.0092 0.082872 0)
(10.0506 0.346113 0)
(10.4004 0.568002 0)
(11.0504 0.463022 0)
(11.3042 0.293679 0)
(11.6487 0.205664 0)
(11.6733 0.195844 0)
(11.885 0.175212 0)
(11.8216 0.169117 0)
(11.9969 0.147267 0)
(11.8932 0.139538 0)
(12.0398 0.104616 0)
(11.9252 0.112847 0)
(12.0406 0.0885287 0)
(11.9233 0.0994552 0)
(12.0119 0.0736794 0)
(11.8905 0.101537 0)
(11.9611 0.0758312 0)
(11.8034 0.114479 0)
(11.8686 0.0687413 0)
(11.6195 0.139498 0)
(10.0639 0.251191 0)
(10.3191 0.455638 0)
(10.89 0.377984 0)
(11.1858 0.250537 0)
(11.5235 0.161626 0)
(11.6063 0.149711 0)
(11.8132 0.140741 0)
(11.8173 0.140507 0)
(11.9989 0.122048 0)
(11.9986 0.118105 0)
(12.1468 0.0876737 0)
(12.1654 0.0971227 0)
(12.2734 0.0802473 0)
(12.2936 0.084665 0)
(12.369 0.0707699 0)
(12.4 0.0838762 0)
(12.467 0.0860546 0)
(12.4566 0.0882843 0)
(12.5143 0.0793352 0)
(12.4031 0.0619762 0)
(10.0252 0.172669 0)
(10.3 0.356644 0)
(10.747 0.290436 0)
(11.1158 0.203731 0)
(11.4039 0.119116 0)
(11.5326 0.11626 0)
(11.6881 0.103513 0)
(11.758 0.111465 0)
(11.8999 0.0920135 0)
(11.9264 0.0986102 0)
(12.0516 0.0598732 0)
(12.1199 0.0782963 0)
(12.2237 0.0589119 0)
(12.2655 0.0699307 0)
(12.3422 0.0525793 0)
(12.4181 0.064069 0)
(12.4832 0.065464 0)
(12.5095 0.0664507 0)
(12.5628 0.0453509 0)
(12.5248 0.0292778 0)
(10.0079 0.111046 0)
(10.2466 0.254252 0)
(10.6814 0.205049 0)
(11.0514 0.153219 0)
(11.3009 0.0908844 0)
(11.4992 0.077648 0)
(11.6225 0.0730272 0)
(11.71 0.071922 0)
(11.7971 0.0697368 0)
(11.8811 0.0724094 0)
(11.9679 0.0376831 0)
(12.0288 0.0525883 0)
(12.1793 0.0459836 0)
(12.1978 0.0510693 0)
(12.2619 0.0323612 0)
(12.34 0.0408674 0)
(12.4286 0.0522016 0)
(12.4611 0.0371015 0)
(12.4861 0.0132539 0)
(12.4575 0.0155923 0)
(10.0078 0.0665549 0)
(10.2204 0.151144 0)
(10.6315 0.115877 0)
(10.9782 0.0956303 0)
(11.2949 0.0545666 0)
(11.4446 0.042899 0)
(11.5755 0.0419038 0)
(11.6735 0.0473543 0)
(11.7588 0.0427043 0)
(11.8403 0.0447047 0)
(11.9074 0.0263831 0)
(12.0165 0.0183964 0)
(12.0929 0.0261172 0)
(12.1593 0.0433793 0)
(12.231 0.0207906 0)
(12.3208 0.00678615 0)
(12.3495 0.0269218 0)
(12.4409 0.0154179 0)
(12.4159 -0.0100284 0)
(12.4026 -0.00703844 0)
(9.98803 0.0206174 0)
(10.2394 0.0509942 0)
(10.6204 0.0387809 0)
(10.9421 0.027957 0)
(11.2655 0.0242019 0)
(11.4386 0.02126 0)
(11.5484 0.0102158 0)
(11.6352 0.00278899 0)
(11.7513 0.0198706 0)
(11.7897 0.0226142 0)
(11.9264 -0.00416982 0)
(11.9899 0.0048005 0)
(12.0522 0.0165568 0)
(12.1202 0.0117235 0)
(12.2497 -0.00620393 0)
(12.2771 -0.00161215 0)
(12.3223 0.0089327 0)
(12.4026 -0.0144808 0)
(12.3997 -0.0283304 0)
(12.3674 -0.0228991 0)
(10.0198 -0.0194489 0)
(10.2134 -0.0538927 0)
(10.586 -0.0423861 0)
(10.9827 -0.0284207 0)
(11.2384 -0.0155612 0)
(11.4339 -0.0114298 0)
(11.5697 -0.0148386 0)
(11.638 -0.0253139 0)
(11.7207 -0.00844359 0)
(11.8292 -0.00981336 0)
(11.9141 -0.0213549 0)
(11.9761 -0.0154823 0)
(12.0509 -0.000746676 0)
(12.1446 -0.00813706 0)
(12.2306 -0.0201815 0)
(12.2566 -0.0229896 0)
(12.3514 -0.0192665 0)
(12.4124 -0.0347075 0)
(12.3925 -0.0555239 0)
(12.3494 -0.0506099 0)
(9.99804 -0.0664867 0)
(10.2464 -0.139903 0)
(10.6336 -0.134723 0)
(10.9699 -0.0964436 0)
(11.2639 -0.0364876 0)
(11.4661 -0.0444919 0)
(11.5741 -0.0482608 0)
(11.6731 -0.057625 0)
(11.7429 -0.0391014 0)
(11.8597 -0.0379806 0)
(11.9157 -0.039138 0)
(12.0052 -0.0303916 0)
(12.0702 -0.020731 0)
(12.1799 -0.0357472 0)
(12.2331 -0.0341174 0)
(12.3101 -0.0439448 0)
(12.3485 -0.0456086 0)
(12.4376 -0.0542602 0)
(12.4119 -0.0716256 0)
(12.3937 -0.0648508 0)
(9.98894 -0.113672 0)
(10.2774 -0.257561 0)
(10.6865 -0.202472 0)
(11.0134 -0.146951 0)
(11.3124 -0.0872734 0)
(11.5196 -0.0763262 0)
(11.614 -0.072739 0)
(11.7024 -0.0893486 0)
(11.8103 -0.0655302 0)
(11.8804 -0.0628258 0)
(11.9617 -0.0557074 0)
(12.0489 -0.0573255 0)
(12.1318 -0.0380884 0)
(12.1958 -0.0522039 0)
(12.2883 -0.0515644 0)
(12.3458 -0.0646639 0)
(12.3999 -0.06269 0)
(12.4716 -0.0855924 0)
(12.4812 -0.0984381 0)
(12.4243 -0.0706066 0)
(10.028 -0.176109 0)
(10.296 -0.3528 0)
(10.7513 -0.291312 0)
(11.1079 -0.203592 0)
(11.3966 -0.117989 0)
(11.5469 -0.111987 0)
(11.6905 -0.10297 0)
(11.7731 -0.125167 0)
(11.8769 -0.091821 0)
(11.9402 -0.0889379 0)
(12.0514 -0.0766589 0)
(12.1134 -0.0765303 0)
(12.1914 -0.052772 0)
(12.2692 -0.0780438 0)
(12.3577 -0.0689783 0)
(12.4035 -0.084349 0)
(12.4758 -0.0871615 0)
(12.5216 -0.110006 0)
(12.5447 -0.115198 0)
(12.4578 -0.0947242 0)
(10.0662 -0.252851 0)
(10.316 -0.459286 0)
(10.8984 -0.374241 0)
(11.1646 -0.24448 0)
(11.5387 -0.160887 0)
(11.611 -0.151482 0)
(11.817 -0.140893 0)
(11.8305 -0.152883 0)
(11.9939 -0.115517 0)
(11.9852 -0.11593 0)
(12.1439 -0.0974491 0)
(12.1482 -0.0986605 0)
(12.276 -0.0714817 0)
(12.2818 -0.101526 0)
(12.3934 -0.0802121 0)
(12.3788 -0.107603 0)
(12.454 -0.0960232 0)
(12.4342 -0.137186 0)
(12.4517 -0.131 0)
(12.3345 -0.137674 0)
(10.0676 -0.34977 0)
(10.3839 -0.565583 0)
(11.0508 -0.459672 0)
(11.2893 -0.293353 0)
(11.6791 -0.212217 0)
(11.6644 -0.190014 0)
(11.9008 -0.177014 0)
(11.8111 -0.177704 0)
(11.9957 -0.143313 0)
(11.8787 -0.1317 0)
(12.0429 -0.118839 0)
(11.9103 -0.111311 0)
(12.0534 -0.0871633 0)
(11.9021 -0.108791 0)
(12.0193 -0.0897544 0)
(11.8569 -0.110554 0)
(11.9315 -0.0988341 0)
(11.7616 -0.141985 0)
(11.7634 -0.128746 0)
(11.528 -0.161085 0)
(10.0162 -0.458379 0)
(10.5497 -0.705331 0)
(11.1788 -0.544997 0)
(11.3645 -0.352541 0)
(11.5741 -0.262792 0)
(11.4435 -0.22565 0)
(11.5144 -0.200146 0)
(11.2776 -0.181999 0)
(11.3157 -0.144994 0)
(11.0585 -0.126459 0)
(11.0968 -0.1097 0)
(10.8308 -0.097689 0)
(10.8975 -0.0765112 0)
(10.6164 -0.0892415 0)
(10.6914 -0.0725939 0)
(10.4079 -0.0899868 0)
(10.4681 -0.0758108 0)
(10.1711 -0.119594 0)
(10.1748 -0.098269 0)
(9.8319 -0.16007 0)
(10.0676 -0.632522 0)
(10.6505 -0.86296 0)
(10.8753 -0.600754 0)
(10.6847 -0.373483 0)
(10.4654 -0.256574 0)
(10.0757 -0.195747 0)
(9.85456 -0.153196 0)
(9.47348 -0.125871 0)
(9.33383 -0.093602 0)
(9.01307 -0.0751627 0)
(8.94481 -0.0626578 0)
(8.6642 -0.0548173 0)
(8.66772 -0.0411561 0)
(8.39184 -0.0494116 0)
(8.42938 -0.0427704 0)
(8.15126 -0.0515199 0)
(8.19085 -0.0491467 0)
(7.88847 -0.0721844 0)
(7.88633 -0.0722755 0)
(7.53778 -0.088415 0)
(10.0863 -0.838578 0)
(9.65382 -0.867803 0)
(8.87521 -0.506566 0)
(8.07975 -0.261682 0)
(7.49683 -0.138537 0)
(7.00129 -0.0819141 0)
(6.70664 -0.053596 0)
(6.38467 -0.0424928 0)
(6.23758 -0.0295343 0)
(6.00795 -0.0233896 0)
(5.94013 -0.0204179 0)
(5.74979 -0.0195562 0)
(5.73837 -0.0132252 0)
(5.55308 -0.0200775 0)
(5.56272 -0.017485 0)
(5.36665 -0.0232859 0)
(5.37634 -0.0223496 0)
(5.15072 -0.0339104 0)
(5.13381 -0.0387117 0)
(4.84299 -0.017969 0)
(8.09199 -0.387972 0)
(5.44871 -0.242551 0)
(3.9121 -0.042873 0)
(3.15664 0.0154885 0)
(2.80187 0.0180926 0)
(2.59601 0.0110956 0)
(2.48746 0.00595633 0)
(2.37538 0.00174866 0)
(2.32108 0.00164472 0)
(2.24446 0.000981043 0)
(2.22048 0.000350913 0)
(2.15375 -0.000528972 0)
(2.14662 0.000953856 0)
(2.08188 -0.00142159 0)
(2.07485 -0.000590616 0)
(1.99833 -0.0022472 0)
(1.98695 -0.00112609 0)
(1.89401 -0.00392283 0)
(1.85321 -0.00408693 0)
(1.7052 0.0109099 0)
(2.18594 -0.129794 0)
(2.30757 -0.0667789 0)
(2.43805 -0.0525304 0)
(2.55484 -0.0595182 0)
(2.68449 -0.0681198 0)
(2.7855 -0.0621283 0)
(2.88314 -0.0472257 0)
(2.95353 -0.0283816 0)
(3.01665 -0.0141567 0)
(3.06975 -0.00727768 0)
(3.12157 -0.0057396 0)
(3.16723 -0.00534283 0)
(3.21803 -0.00784699 0)
(3.26319 -0.0083623 0)
(3.3116 -0.0127369 0)
(3.35766 -0.0182565 0)
(3.40153 -0.0243985 0)
(3.44132 -0.0280767 0)
(3.47624 -0.0259137 0)
(3.50424 -0.0153161 0)
(3.53824 0.00238417 0)
(3.57644 0.0193015 0)
(3.62229 0.033014 0)
(3.68233 0.0368525 0)
(3.74415 0.0291733 0)
(3.81851 0.00471482 0)
(3.87873 -0.0295604 0)
(3.94311 -0.070764 0)
(3.97672 -0.106151 0)
(4.0121 -0.139097 0)
(4.00956 -0.15971 0)
(4.01805 -0.161503 0)
(4.0001 -0.154303 0)
(4.00019 -0.13633 0)
(3.9959 -0.114512 0)
(4.01824 -0.0926987 0)
(4.0317 -0.0776226 0)
(4.06811 -0.0549002 0)
(4.08824 -0.0320305 0)
(4.11904 -0.0124101 0)
(4.16027 0.00578598 0)
(4.19918 0.0109369 0)
(4.25545 0.00068371 0)
(4.28162 -0.00924338 0)
(4.32964 -0.023607 0)
(4.32762 -0.0358324 0)
(4.36347 -0.0503244 0)
(4.33943 -0.061318 0)
(4.36523 -0.0657378 0)
(4.32121 -0.0681776 0)
(4.33801 -0.0604092 0)
(4.2906 -0.0452914 0)
(4.29862 -0.0205611 0)
(4.27511 0.0286329 0)
(4.28705 0.0846668 0)
(4.32113 0.152228 0)
(4.39055 0.229854 0)
(4.52313 0.29451 0)
(4.67583 0.357207 0)
(4.89197 0.397256 0)
(5.11457 0.377163 0)
(5.33339 0.352073 0)
(5.61167 0.297365 0)
(5.72861 0.149665 0)
(5.94476 0.0606786 0)
(6.07331 -0.0418564 0)
(6.13588 -0.249714 0)
(6.19096 -0.342519 0)
(6.2063 -0.458688 0)
(6.13985 -0.625651 0)
(6.14743 -0.607421 0)
(6.0938 -0.667765 0)
(6.13853 -0.735745 0)
(6.09767 -0.635419 0)
(6.29975 -0.675262 0)
(6.25498 -0.706479 0)
(6.49704 -0.625891 0)
(6.55185 -0.595647 0)
(6.8049 -0.685138 0)
(6.90115 -0.603287 0)
(7.16181 -0.508295 0)
(7.31512 -0.575912 0)
(7.62755 -0.624593 0)
(7.77703 -0.430412 0)
(8.19048 -0.515535 0)
(8.33202 -0.642784 0)
(8.61855 -0.546533 0)
(9.08779 -0.591281 0)
(9.27858 -0.809223 0)
(9.53003 -0.819812 0)
(9.91818 -0.945309 0)
(10.2036 -1.09795 0)
(10.418 -1.17125 0)
(10.784 -1.33031 0)
(10.9134 -1.47288 0)
(11.2709 -1.52138 0)
(11.4646 -1.7027 0)
(11.6893 -1.78361 0)
(11.8551 -1.8567 0)
(12.0993 -2.04413 0)
(12.2143 -2.01426 0)
(12.3415 -2.1157 0)
(12.407 -2.27004 0)
(12.363 -2.14904 0)
(12.4827 -2.10642 0)
(12.4122 -2.0242 0)
(12.2989 -1.82984 0)
(12.2556 -1.87941 0)
(12.0909 -1.52091 0)
(12.1935 -1.4022 0)
(12.063 -1.18913 0)
(12.1023 -0.971322 0)
(12.1563 -0.881169 0)
(12.1515 -0.613748 0)
(12.364 -0.518632 0)
(12.365 -0.356608 0)
(12.5369 -0.224026 0)
(12.6556 -0.19397 0)
(12.78 -0.122778 0)
(12.9708 -0.128088 0)
(13.103 -0.167213 0)
(13.2502 -0.157039 0)
(13.4248 -0.234367 0)
(13.5796 -0.292395 0)
(13.7585 -0.331035 0)
(13.9045 -0.434552 0)
(14.0557 -0.526273 0)
(14.2009 -0.569106 0)
(14.2984 -0.715382 0)
(14.4167 -0.764452 0)
(14.4525 -0.846754 0)
(14.4969 -0.981324 0)
(14.5075 -0.974534 0)
(14.4351 -1.12044 0)
(14.3437 -1.16551 0)
(14.1928 -1.19071 0)
(13.9453 -1.3345 0)
(13.642 -1.33787 0)
(13.2257 -1.36241 0)
(12.753 -1.53047 0)
(12.1149 -1.4166 0)
(11.4773 -1.36979 0)
(10.6943 -1.49203 0)
(10.0201 -1.07986 0)
(9.15724 -0.909093 0)
(8.49389 -0.813595 0)
(7.86632 -0.416864 0)
(7.46575 0.143447 0)
(6.95837 0.16779 0)
(6.72298 0.363052 0)
(6.47821 0.477769 0)
(6.30768 1.0388 0)
(6.30247 1.40155 0)
(6.2457 1.7279 0)
(6.27743 0.959262 0)
(5.8921 -0.537936 0)
(5.76525 -2.5742 0)
(4.95305 -4.6253 0)
(5.07721 -6.67951 0)
(4.95851 -8.25382 0)
(5.6087 -10.2643 0)
(5.77948 -10.9179 0)
(6.92947 -9.47405 0)
(7.00217 -8.6612 0)
(7.28867 -7.43064 0)
(7.50914 -6.55917 0)
(7.1739 -5.58591 0)
(7.45526 -3.82414 0)
(7.3338 -2.11528 0)
(7.67893 -0.356863 0)
(8.15967 1.39134 0)
(8.05718 2.87489 0)
(8.36405 4.11385 0)
(8.31719 5.23499 0)
(8.76974 6.44784 0)
(8.76111 7.25855 0)
(8.47866 7.8791 0)
(9.25483 8.89549 0)
(9.36624 9.18451 0)
(8.71196 9.17508 0)
(9.05225 9.37062 0)
(9.06178 9.02992 0)
(7.78617 7.88028 0)
(7.59426 7.17581 0)
(7.76027 6.95652 0)
(6.72615 6.39093 0)
(6.46215 6.2417 0)
(7.02614 6.60548 0)
(5.97601 6.00762 0)
(5.66359 5.63859 0)
(7.15866 5.13765 0)
(4.36378 4.63584 0)
(6.73995 3.27483 0)
(4.70475 3.35855 0)
(5.43039 1.84301 0)
(4.99966 1.77921 0)
(4.60679 0.578008 0)
(4.56002 0.361355 0)
(4.04088 -0.433317 0)
(3.88022 0.0937786 0)
(5.18677 -0.077736 0)
(5.21244 -0.055116 0)
(5.24764 -0.0639177 0)
(5.30051 -0.0863792 0)
(5.38148 -0.105389 0)
(5.45274 -0.108285 0)
(5.51789 -0.0922105 0)
(5.56226 -0.0750853 0)
(5.59286 -0.0573398 0)
(5.61699 -0.045051 0)
(5.63895 -0.0410286 0)
(5.66201 -0.0386063 0)
(5.68811 -0.0436474 0)
(5.71304 -0.0431698 0)
(5.74452 -0.0463098 0)
(5.77073 -0.0509679 0)
(5.79977 -0.0554793 0)
(5.82382 -0.0536751 0)
(5.85111 -0.0491037 0)
(5.87288 -0.0424195 0)
(5.89512 -0.0275596 0)
(5.9225 -0.0171934 0)
(5.94782 -0.00747265 0)
(5.98855 -0.0114915 0)
(6.01747 -0.0188704 0)
(6.069 -0.0351766 0)
(6.09705 -0.0637857 0)
(6.14507 -0.0933831 0)
(6.16133 -0.122676 0)
(6.19157 -0.146819 0)
(6.19246 -0.159544 0)
(6.20434 -0.167669 0)
(6.19229 -0.158425 0)
(6.19706 -0.142051 0)
(6.19184 -0.125552 0)
(6.20169 -0.10523 0)
(6.21305 -0.0872651 0)
(6.2298 -0.0692538 0)
(6.25447 -0.0474403 0)
(6.27273 -0.0315638 0)
(6.30778 -0.0162524 0)
(6.32704 -0.00466324 0)
(6.36944 -0.0169791 0)
(6.38284 -0.020288 0)
(6.42363 -0.037179 0)
(6.41974 -0.0521013 0)
(6.44874 -0.0596169 0)
(6.43595 -0.0753846 0)
(6.44763 -0.073758 0)
(6.43005 -0.0711565 0)
(6.41458 -0.0585812 0)
(6.41458 -0.0419298 0)
(6.36842 -0.00559465 0)
(6.3978 0.0365715 0)
(6.33284 0.0820223 0)
(6.39273 0.143037 0)
(6.35353 0.188133 0)
(6.45789 0.240994 0)
(6.48034 0.274489 0)
(6.59289 0.26123 0)
(6.72655 0.293912 0)
(6.81564 0.208182 0)
(6.96611 0.137273 0)
(7.13761 0.119076 0)
(7.17506 -0.0730557 0)
(7.35789 -0.165099 0)
(7.40772 -0.204104 0)
(7.50192 -0.455683 0)
(7.52979 -0.49148 0)
(7.64313 -0.534951 0)
(7.59528 -0.730973 0)
(7.73753 -0.706369 0)
(7.75981 -0.680158 0)
(7.84164 -0.856774 0)
(7.99886 -0.778181 0)
(8.10454 -0.70442 0)
(8.25411 -0.873025 0)
(8.39957 -0.800791 0)
(8.63069 -0.680231 0)
(8.77442 -0.837341 0)
(8.94433 -0.804038 0)
(9.16922 -0.653177 0)
(9.51104 -0.794888 0)
(9.52047 -0.760145 0)
(9.94562 -0.722053 0)
(10.1268 -0.808216 0)
(10.4121 -0.810957 0)
(10.6675 -0.858292 0)
(10.944 -1.02 0)
(11.1487 -1.03834 0)
(11.5395 -1.15502 0)
(11.635 -1.27606 0)
(11.915 -1.41852 0)
(12.1733 -1.49242 0)
(12.2929 -1.62965 0)
(12.5068 -1.7108 0)
(12.6709 -1.83909 0)
(12.7812 -1.9328 0)
(12.8667 -1.98871 0)
(13.0195 -2.06993 0)
(12.9812 -2.15051 0)
(13.0119 -2.14832 0)
(12.9979 -2.25731 0)
(12.9665 -2.08661 0)
(12.8983 -2.0436 0)
(12.7253 -2.03406 0)
(12.5699 -1.78539 0)
(12.5208 -1.72646 0)
(12.373 -1.40499 0)
(12.3692 -1.30124 0)
(12.213 -1.1404 0)
(12.2246 -0.934367 0)
(12.1948 -0.805429 0)
(12.2283 -0.644571 0)
(12.2647 -0.530811 0)
(12.3137 -0.447396 0)
(12.418 -0.333141 0)
(12.533 -0.320771 0)
(12.679 -0.254034 0)
(12.8731 -0.235478 0)
(13.0305 -0.319108 0)
(13.216 -0.284043 0)
(13.3753 -0.349762 0)
(13.5387 -0.427697 0)
(13.7173 -0.46598 0)
(13.8471 -0.546629 0)
(14.0102 -0.671705 0)
(14.116 -0.6689 0)
(14.2604 -0.81395 0)
(14.2973 -0.85194 0)
(14.3912 -0.900513 0)
(14.3727 -0.99925 0)
(14.4177 -0.98265 0)
(14.2666 -1.04031 0)
(14.2356 -1.10533 0)
(13.9833 -0.999451 0)
(13.7674 -1.13267 0)
(13.4232 -1.02769 0)
(13.0067 -0.977652 0)
(12.4888 -1.03192 0)
(11.9238 -0.873728 0)
(11.2691 -0.740912 0)
(10.5088 -0.842829 0)
(9.85757 -0.494687 0)
(9.1144 -0.302893 0)
(8.45248 -0.293891 0)
(8.00048 0.0489761 0)
(7.54376 0.460938 0)
(7.14411 0.469944 0)
(6.76376 0.537452 0)
(6.63808 0.664682 0)
(6.39735 1.06272 0)
(6.49094 1.55399 0)
(6.28854 1.59217 0)
(6.37557 1.17749 0)
(6.04555 -0.483015 0)
(5.80382 -2.00828 0)
(5.09676 -4.4947 0)
(5.03811 -6.45278 0)
(5.04807 -8.50745 0)
(5.28499 -10.672 0)
(5.1407 -11.2041 0)
(6.39767 -9.89478 0)
(6.16542 -8.91058 0)
(6.90254 -7.56141 0)
(6.59967 -6.542 0)
(7.13064 -5.34666 0)
(6.45195 -3.90474 0)
(7.02306 -2.0573 0)
(6.83398 -0.68612 0)
(7.45946 1.26061 0)
(7.62272 2.77546 0)
(7.69121 3.94957 0)
(7.67693 5.12547 0)
(7.96801 6.40345 0)
(8.59062 7.41959 0)
(8.30215 7.64091 0)
(8.04492 8.01532 0)
(8.96361 9.13888 0)
(8.92059 9.4574 0)
(8.39211 9.43851 0)
(8.98481 9.6198 0)
(8.83252 8.9654 0)
(7.3153 7.59665 0)
(7.29206 7.12823 0)
(7.55979 6.85962 0)
(6.19509 6.43057 0)
(6.5803 6.50241 0)
(7.54664 6.21157 0)
(4.91782 5.99581 0)
(8.00268 5.06293 0)
(5.23722 5.08346 0)
(7.03411 3.61295 0)
(5.64223 3.54653 0)
(6.40395 2.49013 0)
(5.39225 1.8394 0)
(6.01535 1.29769 0)
(4.90506 0.546361 0)
(5.32509 -0.0351691 0)
(4.55756 -0.282239 0)
(7.84476 -0.0982267 0)
(7.84934 -0.101698 0)
(7.86517 -0.128304 0)
(7.89862 -0.141537 0)
(7.97254 -0.135362 0)
(8.02894 -0.126129 0)
(8.07622 -0.095674 0)
(8.10931 -0.0798958 0)
(8.11329 -0.0628253 0)
(8.12834 -0.0481954 0)
(8.12921 -0.0511945 0)
(8.13954 -0.0443961 0)
(8.15393 -0.0506866 0)
(8.16301 -0.0529316 0)
(8.18496 -0.0584838 0)
(8.19739 -0.0589248 0)
(8.21913 -0.0652324 0)
(8.2288 -0.0612531 0)
(8.25193 -0.0598056 0)
(8.25967 -0.0565222 0)
(8.27883 -0.0417901 0)
(8.29598 -0.0455996 0)
(8.30549 -0.0326361 0)
(8.34147 -0.038698 0)
(8.34352 -0.043573 0)
(8.39092 -0.0558699 0)
(8.39204 -0.0787042 0)
(8.43525 -0.10053 0)
(8.43385 -0.122433 0)
(8.46181 -0.14485 0)
(8.44815 -0.156807 0)
(8.46881 -0.161842 0)
(8.44398 -0.15984 0)
(8.45605 -0.141735 0)
(8.44071 -0.136313 0)
(8.4464 -0.109057 0)
(8.44911 -0.09336 0)
(8.4541 -0.0817333 0)
(8.4676 -0.0569427 0)
(8.4787 -0.0572162 0)
(8.49784 -0.0362552 0)
(8.50594 -0.0352194 0)
(8.5413 -0.0460828 0)
(8.53501 -0.0354797 0)
(8.57731 -0.0615849 0)
(8.55976 -0.0544343 0)
(8.57859 -0.0630994 0)
(8.57373 -0.0794936 0)
(8.56181 -0.0522298 0)
(8.57062 -0.0684652 0)
(8.51812 -0.0398287 0)
(8.56696 -0.018222 0)
(8.47146 -0.00599688 0)
(8.54657 0.0610958 0)
(8.45468 0.0702643 0)
(8.51024 0.126793 0)
(8.50813 0.186834 0)
(8.50652 0.169252 0)
(8.60572 0.245202 0)
(8.62219 0.214992 0)
(8.69144 0.166849 0)
(8.83942 0.203287 0)
(8.84227 0.0586093 0)
(8.98649 -0.0142333 0)
(9.08882 -0.049207 0)
(9.12661 -0.251642 0)
(9.23326 -0.326156 0)
(9.34811 -0.390349 0)
(9.31506 -0.576293 0)
(9.48916 -0.645752 0)
(9.47731 -0.65465 0)
(9.58632 -0.836518 0)
(9.62062 -0.812803 0)
(9.78576 -0.822304 0)
(9.8182 -0.934799 0)
(9.98325 -0.882828 0)
(10.0899 -0.889301 0)
(10.2888 -0.954026 0)
(10.3377 -0.873251 0)
(10.6024 -0.948409 0)
(10.692 -0.912526 0)
(10.9069 -0.886313 0)
(11.0892 -0.945887 0)
(11.2204 -0.937748 0)
(11.5076 -0.926386 0)
(11.6738 -0.987257 0)
(11.8274 -1.0133 0)
(12.0951 -1.10928 0)
(12.3166 -1.13269 0)
(12.4176 -1.21536 0)
(12.7266 -1.373 0)
(12.7723 -1.42513 0)
(12.9933 -1.52311 0)
(13.1069 -1.6516 0)
(13.2208 -1.72442 0)
(13.2416 -1.80403 0)
(13.3878 -1.91694 0)
(13.3582 -1.97306 0)
(13.3665 -2.03044 0)
(13.3596 -2.08241 0)
(13.2727 -2.1782 0)
(13.1924 -2.08901 0)
(13.1314 -2.13819 0)
(12.9875 -2.01164 0)
(12.8069 -2.00134 0)
(12.655 -1.88633 0)
(12.5186 -1.64136 0)
(12.4545 -1.54283 0)
(12.2654 -1.3255 0)
(12.2718 -1.23496 0)
(12.1409 -1.05243 0)
(12.1256 -0.875746 0)
(12.0693 -0.787991 0)
(12.0373 -0.637514 0)
(11.9899 -0.530283 0)
(12.0997 -0.526252 0)
(12.089 -0.42232 0)
(12.2387 -0.411253 0)
(12.3452 -0.412267 0)
(12.5397 -0.394928 0)
(12.7095 -0.437682 0)
(12.9294 -0.480233 0)
(13.0755 -0.502705 0)
(13.2648 -0.556377 0)
(13.4416 -0.626768 0)
(13.5777 -0.684785 0)
(13.7189 -0.77557 0)
(13.8538 -0.795417 0)
(13.9602 -0.895278 0)
(14.0113 -0.929833 0)
(14.0998 -0.943639 0)
(14.0936 -1.01647 0)
(14.1236 -0.954374 0)
(14.0098 -0.985683 0)
(13.959 -0.973207 0)
(13.7429 -0.832329 0)
(13.5464 -0.876484 0)
(13.1739 -0.707646 0)
(12.8616 -0.587121 0)
(12.2362 -0.562252 0)
(11.8004 -0.330304 0)
(11.0703 -0.258924 0)
(10.4238 -0.278629 0)
(9.69986 0.0909973 0)
(9.16916 0.225359 0)
(8.45872 0.0808654 0)
(8.04001 0.465258 0)
(7.55362 0.803318 0)
(7.2195 0.93247 0)
(6.80493 0.664864 0)
(6.67069 0.816845 0)
(6.52008 1.01151 0)
(6.53585 1.66417 0)
(6.4412 1.66715 0)
(6.41687 1.33516 0)
(6.22755 -0.278489 0)
(5.85494 -1.62668 0)
(5.34442 -4.15816 0)
(5.13701 -6.20462 0)
(4.80378 -8.70981 0)
(4.79895 -10.6086 0)
(4.25367 -11.3702 0)
(5.55216 -10.3165 0)
(5.27078 -9.24442 0)
(5.63887 -7.64472 0)
(5.9641 -6.66376 0)
(5.9858 -5.27113 0)
(6.24714 -3.85541 0)
(6.06912 -2.33452 0)
(6.52469 -0.699026 0)
(6.7223 0.852021 0)
(6.8271 2.6895 0)
(7.20639 3.96906 0)
(7.34455 4.87461 0)
(7.13598 5.75684 0)
(7.68569 7.27201 0)
(8.36229 8.28138 0)
(8.07016 8.14129 0)
(8.1178 8.53375 0)
(8.98352 9.32085 0)
(8.56299 9.20526 0)
(7.87466 8.9797 0)
(8.85287 9.10448 0)
(8.62264 8.3242 0)
(7.17944 7.32581 0)
(7.92068 7.19467 0)
(7.93065 6.70785 0)
(5.95209 6.79811 0)
(8.89832 6.16084 0)
(5.78418 6.40437 0)
(8.41595 4.92684 0)
(6.28051 5.03668 0)
(7.85456 3.80049 0)
(6.28117 3.2974 0)
(7.35828 2.69942 0)
(6.10406 1.76453 0)
(6.78209 1.22053 0)
(5.85548 0.739518 0)
(6.22323 0.12315 0)
(5.38381 -0.13501 0)
(10.0504 -0.13769 0)
(10.0616 -0.246185 0)
(10.1127 -0.279707 0)
(10.1482 -0.263491 0)
(10.2134 -0.215098 0)
(10.2564 -0.17061 0)
(10.2621 -0.122141 0)
(10.2907 -0.0980152 0)
(10.2632 -0.078677 0)
(10.2727 -0.0656508 0)
(10.2614 -0.0643527 0)
(10.2585 -0.054848 0)
(10.273 -0.0670033 0)
(10.267 -0.0566862 0)
(10.2935 -0.0703269 0)
(10.282 -0.0689937 0)
(10.3176 -0.074799 0)
(10.2941 -0.0782365 0)
(10.3349 -0.0675651 0)
(10.3195 -0.0775777 0)
(10.3395 -0.0559869 0)
(10.3588 -0.0603248 0)
(10.342 -0.0519048 0)
(10.3978 -0.0562803 0)
(10.3636 -0.0619693 0)
(10.419 -0.0678067 0)
(10.3958 -0.0943743 0)
(10.433 -0.103787 0)
(10.4174 -0.127663 0)
(10.4372 -0.139641 0)
(10.4204 -0.15292 0)
(10.4325 -0.163651 0)
(10.4198 -0.15204 0)
(10.4076 -0.148405 0)
(10.4187 -0.136184 0)
(10.3903 -0.11527 0)
(10.4179 -0.0963918 0)
(10.3871 -0.0821547 0)
(10.4175 -0.0651694 0)
(10.4043 -0.0649165 0)
(10.4293 -0.0529434 0)
(10.4181 -0.0412008 0)
(10.4568 -0.0647977 0)
(10.426 -0.0404844 0)
(10.4867 -0.0593674 0)
(10.4257 -0.0589081 0)
(10.4786 -0.0484905 0)
(10.4403 -0.0788814 0)
(10.434 -0.042651 0)
(10.4656 -0.0540849 0)
(10.3677 -0.0402816 0)
(10.4609 -0.00534643 0)
(10.36 0.00300516 0)
(10.3851 0.0552085 0)
(10.4192 0.0849865 0)
(10.3253 0.101424 0)
(10.4664 0.165555 0)
(10.3946 0.168055 0)
(10.4666 0.168369 0)
(10.5549 0.194782 0)
(10.5461 0.126085 0)
(10.6676 0.0988073 0)
(10.7433 0.0321749 0)
(10.7479 -0.0615929 0)
(10.9254 -0.162402 0)
(10.8988 -0.237795 0)
(11.0277 -0.371918 0)
(11.0792 -0.474474 0)
(11.1031 -0.556974 0)
(11.186 -0.6856 0)
(11.2408 -0.750262 0)
(11.2364 -0.82426 0)
(11.3469 -0.893969 0)
(11.4164 -0.911472 0)
(11.4092 -0.983364 0)
(11.585 -0.968591 0)
(11.6463 -0.991132 0)
(11.7118 -1.02544 0)
(11.8158 -1.00601 0)
(12.0261 -1.03173 0)
(11.9566 -1.02371 0)
(12.2308 -1.04096 0)
(12.3038 -1.0754 0)
(12.3849 -1.02892 0)
(12.5865 -1.09143 0)
(12.7278 -1.16792 0)
(12.7408 -1.10276 0)
(13.0506 -1.2471 0)
(13.0903 -1.27531 0)
(13.1416 -1.33063 0)
(13.3486 -1.46284 0)
(13.392 -1.52274 0)
(13.409 -1.57307 0)
(13.5265 -1.74068 0)
(13.5179 -1.76709 0)
(13.4625 -1.84136 0)
(13.54 -1.90686 0)
(13.3812 -1.95291 0)
(13.4054 -1.99669 0)
(13.2463 -2.03923 0)
(13.199 -2.07535 0)
(13.0249 -2.00432 0)
(12.9497 -2.0025 0)
(12.6468 -1.92313 0)
(12.6381 -1.84322 0)
(12.4016 -1.66917 0)
(12.3555 -1.56662 0)
(12.2746 -1.47909 0)
(12.1105 -1.2948 0)
(12.2064 -1.1532 0)
(12.0484 -0.985861 0)
(12.0566 -0.812796 0)
(11.9958 -0.719292 0)
(11.9533 -0.597307 0)
(11.9171 -0.513159 0)
(12.0084 -0.516665 0)
(11.982 -0.510338 0)
(12.0877 -0.475833 0)
(12.1752 -0.53839 0)
(12.3518 -0.563752 0)
(12.4821 -0.561427 0)
(12.6833 -0.633238 0)
(12.891 -0.685377 0)
(13.03 -0.686457 0)
(13.2128 -0.770507 0)
(13.4087 -0.817388 0)
(13.5142 -0.890782 0)
(13.7024 -0.897382 0)
(13.8124 -0.980349 0)
(13.9155 -0.997507 0)
(13.9657 -0.969426 0)
(14.0963 -1.0213 0)
(14.0165 -0.920031 0)
(14.0568 -0.898874 0)
(13.9317 -0.827785 0)
(13.7993 -0.653402 0)
(13.5942 -0.60204 0)
(13.265 -0.42801 0)
(12.9413 -0.17192 0)
(12.3806 -0.157098 0)
(11.8674 0.142536 0)
(11.1979 0.329951 0)
(10.5806 0.319318 0)
(9.86788 0.544323 0)
(9.19957 0.801214 0)
(8.565 0.58526 0)
(8.06816 0.856716 0)
(7.68714 1.0854 0)
(7.31351 1.17891 0)
(6.95442 0.983383 0)
(6.76699 1.01247 0)
(6.56754 1.16266 0)
(6.51505 1.59213 0)
(6.50375 1.78238 0)
(6.39791 1.22827 0)
(6.34958 -0.0376163 0)
(5.87086 -1.43152 0)
(5.67192 -3.57321 0)
(5.01205 -6.07252 0)
(4.78566 -8.46492 0)
(4.16705 -10.3206 0)
(3.67726 -11.6705 0)
(4.9128 -10.5026 0)
(3.7647 -9.49759 0)
(4.68443 -7.93365 0)
(4.82535 -6.75794 0)
(5.08564 -5.68946 0)
(5.42917 -3.80398 0)
(5.69836 -2.49296 0)
(5.78244 -0.977795 0)
(6.23934 0.88968 0)
(6.39944 2.29337 0)
(5.99226 3.79861 0)
(6.77549 5.28868 0)
(7.03491 5.80814 0)
(6.55251 6.17656 0)
(7.35045 7.59731 0)
(7.88844 8.37664 0)
(7.61433 8.4725 0)
(8.25696 9.48279 0)
(9.17363 9.95677 0)
(8.32963 9.29609 0)
(7.62551 8.86033 0)
(8.54921 8.44473 0)
(7.7301 7.3515 0)
(6.59549 7.14287 0)
(8.97809 6.55802 0)
(5.77136 6.93392 0)
(9.08076 5.74428 0)
(6.34221 6.28204 0)
(8.62807 5.00145 0)
(6.80079 4.81668 0)
(8.25293 4.10106 0)
(7.00125 3.42449 0)
(7.72978 2.77835 0)
(7.17369 2.15665 0)
(7.55555 1.5009 0)
(6.82839 1.17705 0)
(7.14315 0.465986 0)
(6.42795 0.0380473 0)
(11.5541 -0.115394 0)
(11.5815 -0.260965 0)
(11.7027 -0.322816 0)
(11.7796 -0.295291 0)
(11.8318 -0.243415 0)
(11.8751 -0.192531 0)
(11.8515 -0.120728 0)
(11.864 -0.104067 0)
(11.8276 -0.0709417 0)
(11.8175 -0.060922 0)
(11.807 -0.0659049 0)
(11.7726 -0.0540205 0)
(11.8021 -0.0742457 0)
(11.7599 -0.0660819 0)
(11.8154 -0.0748585 0)
(11.7706 -0.0729255 0)
(11.8356 -0.0802389 0)
(11.7962 -0.0691295 0)
(11.8329 -0.0751042 0)
(11.825 -0.0746384 0)
(11.8195 -0.0698753 0)
(11.8541 -0.0717028 0)
(11.8124 -0.0652353 0)
(11.8714 -0.0756567 0)
(11.8406 -0.069263 0)
(11.869 -0.0782321 0)
(11.8643 -0.0909391 0)
(11.8715 -0.107308 0)
(11.8698 -0.114056 0)
(11.863 -0.135534 0)
(11.8548 -0.137907 0)
(11.8457 -0.156278 0)
(11.8513 -0.148076 0)
(11.8126 -0.134381 0)
(11.8389 -0.146488 0)
(11.8054 -0.106738 0)
(11.8199 -0.104094 0)
(11.8111 -0.0858796 0)
(11.7988 -0.062636 0)
(11.8273 -0.0776766 0)
(11.8114 -0.0490641 0)
(11.815 -0.0474438 0)
(11.8444 -0.0741501 0)
(11.7951 -0.0355034 0)
(11.8743 -0.0756776 0)
(11.7912 -0.0480377 0)
(11.8434 -0.0544258 0)
(11.832 -0.0701989 0)
(11.7892 -0.0356708 0)
(11.8584 -0.0471816 0)
(11.7537 -0.018969 0)
(11.8189 -0.01051 0)
(11.7989 0.0197997 0)
(11.7273 0.0605819 0)
(11.8542 0.0517605 0)
(11.7235 0.125222 0)
(11.8618 0.103601 0)
(11.8509 0.147198 0)
(11.8528 0.146617 0)
(12.0046 0.118022 0)
(11.966 0.108552 0)
(12.0777 0.0494936 0)
(12.1694 -0.0295831 0)
(12.1302 -0.0853397 0)
(12.315 -0.217604 0)
(12.276 -0.295654 0)
(12.3492 -0.382155 0)
(12.3979 -0.536477 0)
(12.4284 -0.579995 0)
(12.393 -0.684732 0)
(12.5212 -0.81173 0)
(12.4262 -0.813444 0)
(12.4967 -0.912933 0)
(12.5359 -0.989042 0)
(12.5148 -0.968552 0)
(12.5568 -1.01618 0)
(12.6702 -1.08859 0)
(12.5777 -1.03015 0)
(12.7335 -1.07317 0)
(12.772 -1.11512 0)
(12.7328 -1.07723 0)
(12.8714 -1.0938 0)
(12.9303 -1.16861 0)
(12.9092 -1.09523 0)
(13.0451 -1.17866 0)
(13.1331 -1.24776 0)
(13.1156 -1.16974 0)
(13.2779 -1.30908 0)
(13.2884 -1.39201 0)
(13.3117 -1.35034 0)
(13.3741 -1.50815 0)
(13.4203 -1.57308 0)
(13.3145 -1.58796 0)
(13.4174 -1.75653 0)
(13.342 -1.752 0)
(13.2994 -1.83589 0)
(13.2911 -1.89648 0)
(13.2057 -1.89508 0)
(13.1565 -1.94789 0)
(13.0408 -1.94039 0)
(13.0157 -1.92504 0)
(12.8422 -1.94102 0)
(12.7507 -1.86309 0)
(12.537 -1.78511 0)
(12.6125 -1.7064 0)
(12.3071 -1.5639 0)
(12.4231 -1.57973 0)
(12.2987 -1.4383 0)
(12.2257 -1.2648 0)
(12.2395 -1.14471 0)
(12.1158 -0.931812 0)
(12.064 -0.789544 0)
(12.0507 -0.700992 0)
(12.0436 -0.589083 0)
(12.0217 -0.542263 0)
(12.1307 -0.576513 0)
(12.1405 -0.566317 0)
(12.1895 -0.565212 0)
(12.2975 -0.644531 0)
(12.3703 -0.701635 0)
(12.5105 -0.66722 0)
(12.653 -0.793022 0)
(12.812 -0.82004 0)
(13.0047 -0.852858 0)
(13.1772 -0.923441 0)
(13.3473 -0.951515 0)
(13.5447 -1.01332 0)
(13.7426 -1.02668 0)
(13.8745 -1.07599 0)
(14.0349 -1.06831 0)
(14.0796 -1.02297 0)
(14.2659 -1.03853 0)
(14.1733 -0.906807 0)
(14.2465 -0.84566 0)
(14.0942 -0.703221 0)
(14.0276 -0.534914 0)
(13.736 -0.392738 0)
(13.523 -0.118231 0)
(13.0762 0.0960795 0)
(12.6463 0.264371 0)
(12.0177 0.612778 0)
(11.492 0.823542 0)
(10.694 0.825797 0)
(10.0658 1.18568 0)
(9.38666 1.2876 0)
(8.86141 1.10675 0)
(8.22047 1.21246 0)
(7.79342 1.55525 0)
(7.32904 1.34739 0)