/*--------------------------------*- C++ -*----------------------------------*\
| =========                 |                                                 |
| \\      /  F ield         | OpenFOAM: The Open Source CFD Toolbox           |
|  \\    /   O peration     | Version:  2.4.0                                 |
|   \\  /    A nd           | Web:      www.OpenFOAM.org                      |
|    \\/     M anipulation  |                                                 |
\*---------------------------------------------------------------------------*/
FoamFile
{
    version     2.0;
    format      ascii;
    class       volVectorField;
    location    "0.86";
    object      UMean;
}
// * * * * * * * * * * * * * * * * * * * * * * * * * * * * * * * * * * * * * //

dimensions      [0 1 -1 0 0 0 0];

internalField   nonuniform List<vector> 
8800
(
(8.09329 0.386968 0)
(5.46124 0.242396 0)
(3.93166 0.0430717 0)
(3.17154 -0.0151649 0)
(2.82706 -0.0183081 0)
(2.61271 -0.0108733 0)
(2.51734 -0.00584192 0)
(2.39597 -0.00198581 0)
(2.35904 -0.00178959 0)
(2.26717 -0.000147701 0)
(2.26252 -0.00107688 0)
(2.18406 0.000489076 0)
(2.19459 -0.000620403 0)
(2.11772 0.00110349 0)
(2.13205 -0.000255736 0)
(2.05322 0.00179465 0)
(2.06406 -0.000133923 0)
(1.9794 0.00165052 0)
(2.00676 0.00609201 0)
(1.75962 -0.0541938 0)
(10.0848 0.835799 0)
(9.65258 0.86513 0)
(8.89363 0.504936 0)
(8.07691 0.260949 0)
(7.5287 0.136888 0)
(6.99872 0.0817514 0)
(6.74808 0.0525491 0)
(6.39064 0.0404959 0)
(6.29378 0.0280557 0)
(6.01626 0.0247006 0)
(6.01118 0.0166777 0)
(5.77188 0.0185959 0)
(5.81774 0.0126896 0)
(5.59118 0.0178605 0)
(5.65918 0.0124044 0)
(5.43426 0.0190224 0)
(5.5062 0.0167162 0)
(5.27014 0.0152038 0)
(5.36237 0.0313843 0)
(5.04924 -0.040126 0)
(10.0764 0.629924 0)
(10.6337 0.8602 0)
(10.9011 0.598528 0)
(10.6546 0.371944 0)
(10.5023 0.253634 0)
(10.0412 0.195449 0)
(9.8988 0.150314 0)
(9.44591 0.122029 0)
(9.39607 0.0905519 0)
(8.98371 0.0763294 0)
(9.02832 0.0548308 0)
(8.64848 0.0533364 0)
(8.76178 0.0383746 0)
(8.39444 0.0448566 0)
(8.54883 0.0330876 0)
(8.17935 0.043333 0)
(8.35391 0.0377142 0)
(7.96656 0.0435633 0)
(8.15246 0.0497816 0)
(7.74174 -0.0269334 0)
(10.047 0.456808 0)
(10.5109 0.702222 0)
(11.2302 0.54319 0)
(11.3021 0.350879 0)
(11.6267 0.25942 0)
(11.3761 0.226575 0)
(11.5714 0.196516 0)
(11.2079 0.175449 0)
(11.3904 0.142509 0)
(10.981 0.126256 0)
(11.1899 0.0985663 0)
(10.7598 0.0946545 0)
(11.003 0.0731192 0)
(10.556 0.0798122 0)
(10.8281 0.0606267 0)
(10.3626 0.0766745 0)
(10.6535 0.0575307 0)
(10.1637 0.08745 0)
(10.4459 0.0568578 0)
(9.93038 0.0931479 0)
(10.1446 0.34696 0)
(10.3008 0.564345 0)
(11.149 0.45854 0)
(11.1989 0.293588 0)
(11.759 0.206197 0)
(11.5636 0.192879 0)
(11.9861 0.17393 0)
(11.7073 0.170854 0)
(12.0929 0.138995 0)
(11.7744 0.135561 0)
(12.1466 0.102217 0)
(11.8002 0.111108 0)
(12.164 0.0793716 0)
(11.7938 0.102116 0)
(12.1477 0.0672451 0)
(11.7569 0.104847 0)
(12.0957 0.0619526 0)
(11.6865 0.12207 0)
(11.9866 0.0583948 0)
(11.5321 0.142176 0)
(10.161 0.251487 0)
(10.2263 0.453678 0)
(10.9868 0.373419 0)
(11.1014 0.248084 0)
(11.608 0.157368 0)
(11.5307 0.152667 0)
(11.8775 0.136974 0)
(11.7499 0.144393 0)
(12.0521 0.112947 0)
(11.9232 0.116828 0)
(12.2028 0.0835702 0)
(12.0748 0.0965134 0)
(12.3327 0.0668454 0)
(12.2033 0.0902127 0)
(12.4369 0.0615862 0)
(12.3054 0.0937415 0)
(12.5107 0.0640029 0)
(12.3746 0.104638 0)
(12.532 0.0630438 0)
(12.3242 0.0671599 0)
(10.0448 0.170544 0)
(10.2802 0.356166 0)
(10.7658 0.282982 0)
(11.1048 0.20842 0)
(11.3929 0.112088 0)
(11.5498 0.119606 0)
(11.6721 0.0983243 0)
(11.767 0.11999 0)
(11.8478 0.0812553 0)
(11.9451 0.0979803 0)
(12.011 0.0571303 0)
(12.1119 0.0812752 0)
(12.1631 0.0435021 0)
(12.2641 0.0768897 0)
(12.2994 0.0401575 0)
(12.3988 0.0809312 0)
(12.4169 0.0421104 0)
(12.5091 0.0867145 0)
(12.4893 0.0311303 0)
(12.4874 0.0312192 0)
(9.9437 0.109607 0)
(10.3255 0.255941 0)
(10.6075 0.198221 0)
(11.0988 0.156666 0)
(11.2419 0.0757559 0)
(11.5519 0.0842475 0)
(11.5329 0.0668415 0)
(11.7608 0.0885989 0)
(11.706 0.0561634 0)
(11.9316 0.0721365 0)
(11.8699 0.038001 0)
(12.0951 0.05941 0)
(12.0246 0.0279601 0)
(12.2458 0.0561435 0)
(12.1648 0.0255411 0)
(12.3803 0.0585053 0)
(12.2874 0.0248983 0)
(12.4904 0.0576819 0)
(12.3615 0.00804404 0)
(12.4579 0.00677802 0)
(9.88836 0.0586713 0)
(10.3459 0.157433 0)
(10.5132 0.115431 0)
(11.0857 0.0999101 0)
(11.152 0.0411709 0)
(11.545 0.0545843 0)
(11.4513 0.0359962 0)
(11.7495 0.0591117 0)
(11.6213 0.0302091 0)
(11.9165 0.0489017 0)
(11.7851 0.0183474 0)
(12.0797 0.0408503 0)
(11.9408 0.011834 0)
(12.2314 0.038552 0)
(12.0822 0.00915899 0)
(12.3674 0.0382199 0)
(12.2057 0.00532056 0)
(12.4788 0.0321289 0)
(12.2767 -0.0129052 0)
(12.441 -0.010437 0)
(9.88672 0.0153604 0)
(10.3336 0.0584929 0)
(10.4932 0.0340926 0)
(11.0607 0.0390638 0)
(11.137 0.00880697 0)
(11.526 0.0238531 0)
(11.4438 0.00679068 0)
(11.7312 0.0262052 0)
(11.6153 0.00474691 0)
(11.8989 0.0225614 0)
(11.7821 -3.90848e-05 0)
(12.0649 0.0194401 0)
(11.9416 -0.00321387 0)
(12.22 0.0176296 0)
(12.0866 -0.00638171 0)
(12.3594 0.0142652 0)
(12.2138 -0.0129442 0)
(12.4738 0.00444623 0)
(12.287 -0.0304179 0)
(12.4351 -0.0278243 0)
(9.92765 -0.0268695 0)
(10.296 -0.0399156 0)
(10.5359 -0.0490502 0)
(11.0284 -0.0223694 0)
(11.1817 -0.0247988 0)
(11.4976 -0.00683388 0)
(11.4914 -0.0233734 0)
(11.7057 -0.00752673 0)
(11.6663 -0.0221605 0)
(11.8761 -0.00421907 0)
(11.8364 -0.0194839 0)
(12.0443 -0.00218523 0)
(11.9994 -0.0196258 0)
(12.2008 -0.00365948 0)
(12.1476 -0.0234712 0)
(12.3411 -0.00981086 0)
(12.2776 -0.0324409 0)
(12.4551 -0.0225584 0)
(12.3523 -0.04869 0)
(12.4135 -0.0436032 0)
(9.97347 -0.0700171 0)
(10.2652 -0.140849 0)
(10.6011 -0.130061 0)
(11.0134 -0.0852169 0)
(11.2458 -0.0561509 0)
(11.4785 -0.0395886 0)
(11.5518 -0.0511616 0)
(11.6878 -0.0428407 0)
(11.7286 -0.0461104 0)
(11.8593 -0.0328166 0)
(11.8992 -0.0363106 0)
(12.0266 -0.0257147 0)
(12.0619 -0.0332229 0)
(12.1818 -0.0265141 0)
(12.2094 -0.0377019 0)
(12.3203 -0.0351384 0)
(12.3381 -0.0495702 0)
(12.4321 -0.0511568 0)
(12.4114 -0.0659431 0)
(12.389 -0.0598608 0)
(9.99724 -0.119846 0)
(10.2682 -0.242868 0)
(10.6676 -0.211636 0)
(11.0411 -0.145476 0)
(11.3093 -0.0888834 0)
(11.4946 -0.0725359 0)
(11.6063 -0.0802819 0)
(11.7043 -0.076387 0)
(11.7846 -0.0703967 0)
(11.8766 -0.0600831 0)
(11.954 -0.0542801 0)
(12.0425 -0.0482187 0)
(12.1145 -0.0479241 0)
(12.1959 -0.0478096 0)
(12.2599 -0.0529467 0)
(12.3326 -0.0581732 0)
(12.3868 -0.0684607 0)
(12.4434 -0.0781331 0)
(12.4613 -0.088332 0)
(12.4051 -0.0755313 0)
(10.0197 -0.179198 0)
(10.2901 -0.346503 0)
(10.7568 -0.294044 0)
(11.1019 -0.199733 0)
(11.3936 -0.123054 0)
(11.5421 -0.11006 0)
(11.6789 -0.109659 0)
(11.7553 -0.110692 0)
(11.8596 -0.0936316 0)
(11.9312 -0.0887352 0)
(12.0277 -0.0715472 0)
(12.0972 -0.0728573 0)
(12.1849 -0.0617983 0)
(12.2493 -0.0712182 0)
(12.3259 -0.0661941 0)
(12.3831 -0.0825822 0)
(12.4463 -0.0845049 0)
(12.4891 -0.107332 0)
(12.5158 -0.110796 0)
(12.4535 -0.103624 0)
(10.0561 -0.25515 0)
(10.314 -0.449844 0)
(10.8945 -0.378708 0)
(11.1747 -0.244489 0)
(11.5236 -0.162799 0)
(11.5975 -0.148466 0)
(11.7969 -0.142524 0)
(11.8116 -0.141173 0)
(11.9741 -0.119274 0)
(11.9816 -0.114162 0)
(12.1268 -0.0912459 0)
(12.1309 -0.0954458 0)
(12.2581 -0.0775522 0)
(12.2567 -0.0928196 0)
(12.3619 -0.0788188 0)
(12.353 -0.104346 0)
(12.4303 -0.0957926 0)
(12.4074 -0.133566 0)
(12.4322 -0.126958 0)
(12.3188 -0.141592 0)
(10.052 -0.349448 0)
(10.3902 -0.561317 0)
(11.0487 -0.461917 0)
(11.2919 -0.290388 0)
(11.6556 -0.210436 0)
(11.6574 -0.188835 0)
(11.8779 -0.178792 0)
(11.8026 -0.167075 0)
(11.9785 -0.145212 0)
(11.8715 -0.131713 0)
(12.0246 -0.110387 0)
(11.8986 -0.107909 0)
(12.032 -0.0913403 0)
(11.8909 -0.101193 0)
(12 -0.0866239 0)
(11.8463 -0.109272 0)
(11.9204 -0.0972901 0)
(11.7518 -0.138845 0)
(11.7581 -0.127097 0)
(11.525 -0.163349 0)
(10.005 -0.458116 0)
(10.557 -0.700768 0)
(11.1705 -0.544439 0)
(11.362 -0.349822 0)
(11.5587 -0.261602 0)
(11.4427 -0.225 0)
(11.4949 -0.199118 0)
(11.28 -0.173974 0)
(11.3046 -0.145907 0)
(11.0568 -0.125039 0)
(11.0936 -0.102954 0)
(10.837 -0.0947744 0)
(10.8928 -0.0793771 0)
(10.6297 -0.0836538 0)
(10.6962 -0.0704364 0)
(10.4231 -0.0885169 0)
(10.4819 -0.0752701 0)
(10.1901 -0.116972 0)
(10.1959 -0.0975708 0)
(9.85621 -0.160197 0)
(10.0593 -0.631507 0)
(10.6529 -0.858644 0)
(10.8687 -0.599206 0)
(10.6876 -0.371159 0)
(10.462 -0.255203 0)
(10.0817 -0.194372 0)
(9.84989 -0.152306 0)
(9.49098 -0.120675 0)
(9.33955 -0.0932209 0)
(9.0303 -0.0749392 0)
(8.9645 -0.0584475 0)
(8.69253 -0.0525598 0)
(8.6887 -0.0436459 0)
(8.42862 -0.0463441 0)
(8.45954 -0.0409668 0)
(8.19046 -0.0510179 0)
(8.22961 -0.0490018 0)
(7.93059 -0.0707266 0)
(7.93205 -0.0721545 0)
(7.58143 -0.0899765 0)
(10.0797 -0.836632 0)
(9.65724 -0.864165 0)
(8.87928 -0.505113 0)
(8.09281 -0.26055 0)
(7.50828 -0.137815 0)
(7.01976 -0.0813045 0)
(6.72049 -0.0535085 0)
(6.41465 -0.039851 0)
(6.26109 -0.0293286 0)
(6.04021 -0.0240761 0)
(5.974 -0.0183975 0)
(5.79152 -0.0183399 0)
(5.77496 -0.0152277 0)
(5.59887 -0.018743 0)
(5.60528 -0.0164159 0)
(5.41583 -0.0232929 0)
(5.42476 -0.0224618 0)
(5.20016 -0.0332669 0)
(5.18818 -0.0390308 0)
(4.88854 -0.0208953 0)
(8.09228 -0.387207 0)
(5.4604 -0.242079 0)
(3.92878 -0.0432291 0)
(3.17641 0.0152179 0)
(2.82151 0.0180478 0)
(2.61866 0.0110487 0)
(2.50836 0.00560806 0)
(2.40272 0.00223139 0)
(2.34807 0.00150286 0)
(2.2735 0.000382931 0)
(2.24924 0.000725459 0)
(2.18786 -0.000295005 0)
(2.17792 0.000197288 0)
(2.11462 -0.00114752 0)
(2.10796 -0.000348881 0)
(2.03454 -0.00234725 0)
(2.02171 -0.00118793 0)
(1.92902 -0.00390763 0)
(1.89054 -0.00445581 0)
(1.73584 0.0116057 0)
(2.23434 -0.0939147 0)
(2.31899 -0.00777228 0)
(2.57793 -0.00582524 0)
(2.71233 -0.0254113 0)
(2.95114 -0.0494195 0)
(3.03568 -0.055906 0)
(3.22637 -0.0616505 0)
(3.26114 -0.0547192 0)
(3.41304 -0.0599483 0)
(3.4246 -0.061452 0)
(3.56946 -0.0709918 0)
(3.57316 -0.0741039 0)
(3.72147 -0.0862474 0)
(3.72415 -0.0904464 0)
(3.87277 -0.102941 0)
(3.87418 -0.10766 0)
(4.02736 -0.119442 0)
(4.03037 -0.123676 0)
(4.19843 -0.134598 0)
(4.20729 -0.136337 0)
(4.38303 -0.15074 0)
(4.38927 -0.158411 0)
(4.56425 -0.177049 0)
(4.56252 -0.187918 0)
(4.73444 -0.209668 0)
(4.72239 -0.222398 0)
(4.89065 -0.243942 0)
(4.86844 -0.252692 0)
(5.03622 -0.269215 0)
(5.01299 -0.274809 0)
(5.18823 -0.292892 0)
(5.17355 -0.301639 0)
(5.35799 -0.324227 0)
(5.34818 -0.335786 0)
(5.53288 -0.359033 0)
(5.52044 -0.369628 0)
(5.70248 -0.3913 0)
(5.68689 -0.399231 0)
(5.86881 -0.421192 0)
(5.85035 -0.429925 0)
(6.03416 -0.454107 0)
(6.00885 -0.465492 0)
(6.19482 -0.494523 0)
(6.15749 -0.50995 0)
(6.34357 -0.541797 0)
(6.29109 -0.557413 0)
(6.47724 -0.588334 0)
(6.41553 -0.598576 0)
(6.60247 -0.625494 0)
(6.54154 -0.628113 0)
(6.72842 -0.650493 0)
(6.67621 -0.646112 0)
(6.86454 -0.66566 0)
(6.82302 -0.659382 0)
(7.01542 -0.681284 0)
(6.97894 -0.678651 0)
(7.17809 -0.705842 0)
(7.13646 -0.707156 0)
(7.34061 -0.736828 0)
(7.28366 -0.738504 0)
(7.49345 -0.769646 0)
(7.42557 -0.771126 0)
(7.64222 -0.804512 0)
(7.57546 -0.806338 0)
(7.79377 -0.841367 0)
(7.73404 -0.844505 0)
(7.94158 -0.880181 0)
(7.88067 -0.884256 0)
(8.07283 -0.915072 0)
(8.00808 -0.918292 0)
(8.1919 -0.950546 0)
(8.12719 -0.950469 0)
(8.29787 -0.98047 0)
(8.23804 -0.976459 0)
(8.40345 -1.00668 0)
(8.35364 -1.0004 0)
(8.51805 -1.02872 0)
(8.48006 -1.02206 0)
(8.65033 -1.05053 0)
(8.61698 -1.04029 0)
(8.80192 -1.06768 0)
(8.76002 -1.05204 0)
(8.96215 -1.07281 0)
(8.90032 -1.05649 0)
(9.11717 -1.07494 0)
(9.04433 -1.0568 0)
(9.2508 -1.08298 0)
(9.194 -1.06677 0)
(9.3663 -1.099 0)
(9.32808 -1.08539 0)
(9.4652 -1.11648 0)
(9.43329 -1.10038 0)
(9.53615 -1.1257 0)
(9.49832 -1.1082 0)
(9.57849 -1.1299 0)
(9.53605 -1.10715 0)
(9.59848 -1.12366 0)
(9.55099 -1.09714 0)
(9.60374 -1.11146 0)
(9.56673 -1.08658 0)
(9.61784 -1.10183 0)
(9.59592 -1.07545 0)
(9.65445 -1.09574 0)
(9.64392 -1.06411 0)
(9.70454 -1.07775 0)
(9.6893 -1.03415 0)
(9.74497 -1.0515 0)
(9.70519 -1.00622 0)
(9.75843 -1.02815 0)
(9.68883 -0.974874 0)
(9.73615 -0.998774 0)
(9.63698 -0.938315 0)
(9.66071 -0.9573 0)
(9.54525 -0.887313 0)
(9.55144 -0.906458 0)
(9.45458 -0.830256 0)
(9.45344 -0.848991 0)
(9.3842 -0.769802 0)
(9.36725 -0.787829 0)
(9.30754 -0.702999 0)
(9.28291 -0.717803 0)
(9.23316 -0.63082 0)
(9.21345 -0.649111 0)
(9.16776 -0.559335 0)
(9.15356 -0.583085 0)
(9.09468 -0.492763 0)
(9.10189 -0.515103 0)
(9.00952 -0.417397 0)
(9.04653 -0.433541 0)
(8.92561 -0.331899 0)
(8.98494 -0.345402 0)
(8.85267 -0.246197 0)
(8.91502 -0.26489 0)
(8.79003 -0.16954 0)
(8.8485 -0.198247 0)
(8.73221 -0.10456 0)
(8.78358 -0.134449 0)
(8.67257 -0.0388525 0)
(8.72202 -0.0640019 0)
(8.60895 0.0310056 0)
(8.65793 9.93744e-05 0)
(8.55257 0.0872313 0)
(8.5938 0.0625822 0)
(8.50235 0.140431 0)
(8.5431 0.109983 0)
(8.46663 0.18303 0)
(8.48992 0.166354 0)
(8.42983 0.240815 0)
(8.43012 0.21962 0)
(8.40387 0.294204 0)
(8.36976 0.26989 0)
(8.37689 0.349521 0)
(8.31976 0.333662 0)
(8.35601 0.412124 0)
(8.27652 0.395929 0)
(8.34119 0.487914 0)
(8.24812 0.48205 0)
(8.30987 0.569924 0)
(8.23062 0.572995 0)
(8.29099 0.658567 0)
(8.22429 0.642503 0)
(8.26793 0.731597 0)
(8.22034 0.710578 0)
(8.22415 0.807491 0)
(8.20213 0.779424 0)
(8.15157 0.88131 0)
(8.19263 0.846548 0)
(8.08068 0.950098 0)
(8.15582 0.911079 0)
(7.99504 1.03027 0)
(8.09858 0.96807 0)
(7.86744 1.09133 0)
(8.02835 1.02445 0)
(7.70432 1.16965 0)
(7.95396 1.07258 0)
(7.55428 1.27168 0)
(7.89463 1.13241 0)
(7.40751 1.37272 0)
(7.85976 1.19447 0)
(7.29723 1.50007 0)
(7.79472 1.27463 0)
(7.19841 1.62955 0)
(7.70756 1.37705 0)
(7.09335 1.76734 0)
(7.58542 1.50595 0)
(6.99236 1.92714 0)
(7.42956 1.67811 0)
(6.85518 2.11011 0)
(7.27177 1.9117 0)
(6.66863 2.33229 0)
(7.11332 2.20723 0)
(6.43823 2.62279 0)
(6.88541 2.57971 0)
(6.18197 3.04504 0)
(6.54233 3.06085 0)
(5.90897 3.74774 0)
(6.11159 3.78793 0)
(5.31141 4.88441 0)
(6.28405 5.45354 0)
(4.02422 8.38392 0)
(5.2812 -0.0617197 0)
(5.22415 -0.0284875 0)
(5.3318 -0.0445624 0)
(5.34303 -0.0788692 0)
(5.52046 -0.114001 0)
(5.54273 -0.124154 0)
(5.70033 -0.127845 0)
(5.68086 -0.118346 0)
(5.80647 -0.118145 0)
(5.76099 -0.115609 0)
(5.88429 -0.1252 0)
(5.8368 -0.129594 0)
(5.97248 -0.143415 0)
(5.92929 -0.148695 0)
(6.07658 -0.161848 0)
(6.03436 -0.166203 0)
(6.19075 -0.178977 0)
(6.14713 -0.182479 0)
(6.31126 -0.196232 0)
(6.26753 -0.200006 0)
(6.43831 -0.215879 0)
(6.39279 -0.223034 0)
(6.56593 -0.241991 0)
(6.51431 -0.25097 0)
(6.68915 -0.271786 0)
(6.63068 -0.281405 0)
(6.80851 -0.30196 0)
(6.74407 -0.309546 0)
(6.92576 -0.328857 0)
(6.8575 -0.335365 0)
(7.04601 -0.355978 0)
(6.97682 -0.364116 0)
(7.17283 -0.388187 0)
(7.10113 -0.39773 0)
(7.30025 -0.422798 0)
(7.22249 -0.430056 0)
(7.4216 -0.453811 0)
(7.33734 -0.458304 0)
(7.53659 -0.482198 0)
(7.44673 -0.486933 0)
(7.64821 -0.513343 0)
(7.55386 -0.520305 0)
(7.75829 -0.550409 0)
(7.65991 -0.559914 0)
(7.86592 -0.592683 0)
(7.76387 -0.602228 0)
(7.96848 -0.635267 0)
(7.86439 -0.641976 0)
(8.06584 -0.67247 0)
(7.96129 -0.674288 0)
(8.16145 -0.700313 0)
(8.05599 -0.69688 0)
(8.25922 -0.719932 0)
(8.15092 -0.71394 0)
(8.36141 -0.738033 0)
(8.24799 -0.733274 0)
(8.46778 -0.761119 0)
(8.34787 -0.760034 0)
(8.57614 -0.79171 0)
(8.45031 -0.793127 0)
(8.68374 -0.826852 0)
(8.55376 -0.828982 0)
(8.78862 -0.863817 0)
(8.65717 -0.865328 0)
(8.88857 -0.900259 0)
(8.76199 -0.899777 0)
(8.98334 -0.932426 0)
(8.86447 -0.93169 0)
(9.07611 -0.964871 0)
(8.96413 -0.965963 0)
(9.16723 -0.996611 0)
(9.05578 -0.993491 0)
(9.25381 -1.02295 0)
(9.14339 -1.01836 0)
(9.33803 -1.05047 0)
(9.23197 -1.04279 0)
(9.42425 -1.07665 0)
(9.32375 -1.06651 0)
(9.51411 -1.10057 0)
(9.41521 -1.08854 0)
(9.61108 -1.11961 0)
(9.50733 -1.10053 0)
(9.70803 -1.12856 0)
(9.60381 -1.1026 0)
(9.79427 -1.12751 0)
(9.70184 -1.10108 0)
(9.86968 -1.13008 0)
(9.79592 -1.10622 0)
(9.93063 -1.13801 0)
(9.87183 -1.11774 0)
(9.97785 -1.14524 0)
(9.92337 -1.12034 0)
(9.99917 -1.14308 0)
(9.9417 -1.11631 0)
(9.99267 -1.13502 0)
(9.93177 -1.10466 0)
(9.96881 -1.12085 0)
(9.90718 -1.09132 0)
(9.94809 -1.11041 0)
(9.88966 -1.08556 0)
(9.93997 -1.11027 0)
(9.88686 -1.08395 0)
(9.94961 -1.11339 0)
(9.88626 -1.07487 0)
(9.96051 -1.08935 0)
(9.87852 -1.04047 0)
(9.95746 -1.05214 0)
(9.85516 -1.00083 0)
(9.92347 -1.01924 0)
(9.80369 -0.959489 0)
(9.85103 -0.97151 0)
(9.71425 -0.898709 0)
(9.73853 -0.909234 0)
(9.59726 -0.839684 0)
(9.62112 -0.859241 0)
(9.49564 -0.793225 0)
(9.51978 -0.813529 0)
(9.41101 -0.739158 0)
(9.43227 -0.752023 0)
(9.32409 -0.673888 0)
(9.35416 -0.685433 0)
(9.23628 -0.606258 0)
(9.28798 -0.620467 0)
(9.15584 -0.532427 0)
(9.22978 -0.553973 0)
(9.06761 -0.456371 0)
(9.16999 -0.484601 0)
(8.9705 -0.378255 0)
(9.10368 -0.401953 0)
(8.87218 -0.292673 0)
(9.0278 -0.320388 0)
(8.7782 -0.209874 0)
(8.94862 -0.242592 0)
(8.69546 -0.136546 0)
(8.87252 -0.173976 0)
(8.60637 -0.0704871 0)
(8.79329 -0.109511 0)
(8.52232 -0.0100459 0)
(8.71556 -0.0403395 0)
(8.45124 0.0523898 0)
(8.65515 0.0207597 0)
(8.3885 0.111116 0)
(8.59816 0.0818689 0)
(8.33386 0.165848 0)
(8.55749 0.123366 0)
(8.28953 0.213025 0)
(8.51554 0.178742 0)
(8.2593 0.265432 0)
(8.48379 0.228631 0)
(8.25105 0.313067 0)
(8.44739 0.276627 0)
(8.24417 0.364729 0)
(8.40755 0.329587 0)
(8.23835 0.424784 0)
(8.37842 0.392084 0)
(8.22596 0.500029 0)
(8.36701 0.472436 0)
(8.21044 0.586146 0)
(8.37682 0.554827 0)
(8.20791 0.677974 0)
(8.39902 0.620011 0)
(8.19051 0.761044 0)
(8.40902 0.698244 0)
(8.16177 0.840614 0)
(8.41088 0.765044 0)
(8.13731 0.912652 0)
(8.40152 0.821012 0)
(8.10832 1.00459 0)
(8.35691 0.888888 0)
(8.05449 1.10173 0)
(8.32696 0.946968 0)
(7.95722 1.18463 0)
(8.28778 1.00276 0)
(7.83256 1.27633 0)
(8.23292 1.042 0)
(7.7086 1.36818 0)
(8.20508 1.08417 0)
(7.59857 1.46763 0)
(8.17937 1.1421 0)
(7.51127 1.58709 0)
(8.14948 1.24464 0)
(7.42944 1.7146 0)
(8.09815 1.36875 0)
(7.3427 1.8488 0)
(8.02926 1.51718 0)
(7.23381 1.99601 0)
(7.96887 1.70347 0)
(7.08936 2.18119 0)
(7.88694 1.92798 0)
(6.95255 2.4444 0)
(7.75115 2.20059 0)
(6.86023 2.81392 0)
(7.54447 2.54321 0)
(6.74897 3.32236 0)
(7.30961 3.03802 0)
(6.49231 4.03061 0)
(7.36515 3.87915 0)
(5.8576 5.27805 0)
(8.34559 4.7388 0)
(6.38381 8.86628 0)
(7.93706 -0.0921598 0)
(7.85836 -0.093936 0)
(7.9641 -0.116522 0)
(7.93715 -0.132329 0)
(8.10671 -0.147453 0)
(8.08966 -0.14323 0)
(8.23588 -0.141961 0)
(8.17085 -0.130541 0)
(8.28408 -0.131976 0)
(8.19338 -0.129192 0)
(8.30743 -0.141501 0)
(8.21876 -0.147033 0)
(8.34833 -0.16491 0)
(8.26584 -0.172245 0)
(8.40882 -0.190245 0)
(8.32849 -0.195838 0)
(8.48051 -0.212478 0)
(8.39837 -0.21619 0)
(8.55537 -0.232493 0)
(8.46995 -0.236252 0)
(8.63084 -0.254256 0)
(8.54242 -0.260059 0)
(8.70684 -0.280424 0)
(8.6148 -0.287636 0)
(8.78284 -0.309444 0)
(8.68741 -0.316948 0)
(8.85947 -0.338818 0)
(8.76076 -0.345281 0)
(8.93648 -0.366638 0)
(8.83298 -0.37237 0)
(9.01217 -0.394655 0)
(8.90313 -0.401434 0)
(9.08612 -0.426091 0)
(8.96995 -0.433825 0)
(9.15595 -0.459445 0)
(9.03147 -0.465705 0)
(9.22095 -0.490287 0)
(9.08988 -0.494007 0)
(9.28351 -0.518257 0)
(9.14874 -0.521104 0)
(9.34638 -0.547573 0)
(9.2122 -0.551863 0)
(9.41162 -0.582462 0)
(9.28005 -0.588937 0)
(9.47748 -0.622868 0)
(9.34799 -0.630066 0)
(9.54032 -0.664519 0)
(9.40978 -0.669771 0)
(9.59717 -0.701603 0)
(9.46209 -0.702591 0)
(9.64894 -0.730165 0)
(9.50684 -0.726379 0)
(9.69849 -0.751181 0)
(9.54853 -0.744478 0)
(9.74867 -0.770181 0)
(9.59325 -0.763937 0)
(9.80214 -0.794412 0)
(9.64614 -0.791229 0)
(9.85908 -0.826904 0)
(9.70617 -0.825459 0)
(9.91428 -0.86187 0)
(9.76473 -0.859774 0)
(9.96169 -0.894666 0)
(9.81395 -0.892208 0)
(9.99965 -0.925332 0)
(9.85242 -0.922459 0)
(10.0326 -0.956336 0)
(9.89034 -0.955556 0)
(10.0726 -0.992528 0)
(9.93172 -0.991683 0)
(10.1122 -1.02643 0)
(9.97037 -1.02106 0)
(10.1523 -1.05188 0)
(10.0069 -1.0458 0)
(10.1919 -1.07819 0)
(10.0404 -1.06959 0)
(10.2266 -1.10329 0)
(10.072 -1.0912 0)
(10.259 -1.12793 0)
(10.1076 -1.11393 0)
(10.2938 -1.1479 0)
(10.1477 -1.12657 0)
(10.3301 -1.15681 0)
(10.1924 -1.12496 0)
(10.3598 -1.15233 0)
(10.2382 -1.12117 0)
(10.381 -1.14766 0)
(10.2704 -1.11943 0)
(10.3888 -1.14925 0)
(10.2863 -1.12399 0)
(10.3799 -1.1475 0)
(10.2814 -1.11675 0)
(10.3451 -1.13768 0)
(10.2509 -1.10429 0)
(10.2896 -1.12187 0)
(10.2042 -1.08807 0)
(10.2227 -1.10799 0)
(10.1517 -1.07832 0)
(10.1731 -1.1044 0)
(10.1107 -1.07771 0)
(10.1396 -1.11048 0)
(10.0769 -1.07971 0)
(10.1073 -1.11361 0)
(10.0304 -1.06584 0)
(10.0679 -1.08519 0)
(9.98013 -1.0271 0)
(10.0181 -1.0439 0)
(9.92503 -0.978425 0)
(9.9434 -0.994123 0)
(9.84274 -0.917681 0)
(9.8268 -0.927547 0)
(9.72903 -0.842475 0)
(9.69236 -0.858518 0)
(9.62602 -0.789082 0)
(9.5822 -0.815688 0)
(9.53004 -0.747295 0)
(9.46834 -0.771964 0)
(9.42262 -0.696505 0)
(9.35953 -0.716234 0)
(9.32271 -0.633787 0)
(9.26946 -0.654841 0)
(9.22998 -0.565648 0)
(9.18936 -0.593066 0)
(9.1363 -0.492536 0)
(9.1106 -0.524856 0)
(9.03908 -0.412829 0)
(9.02751 -0.454093 0)
(8.93612 -0.331562 0)
(8.93396 -0.373547 0)
(8.83096 -0.239895 0)
(8.83381 -0.289726 0)
(8.71521 -0.154019 0)
(8.74457 -0.215746 0)
(8.60691 -0.081855 0)
(8.65812 -0.142777 0)
(8.49787 -0.0144095 0)
(8.57013 -0.0801689 0)
(8.40062 0.0378391 0)
(8.48603 -0.0202975 0)
(8.32347 0.0912858 0)
(8.42136 0.0308291 0)
(8.26895 0.153337 0)
(8.35771 0.087077 0)
(8.23248 0.201706 0)
(8.31871 0.12514 0)
(8.20739 0.247461 0)
(8.28939 0.179087 0)
(8.19734 0.294028 0)
(8.28128 0.22253 0)
(8.20394 0.340174 0)
(8.2695 0.268587 0)
(8.22941 0.398613 0)
(8.25416 0.315533 0)
(8.23593 0.457392 0)
(8.25015 0.379149 0)
(8.23255 0.53915 0)
(8.24195 0.440959 0)
(8.23816 0.618923 0)
(8.25515 0.510153 0)
(8.24229 0.704827 0)
(8.28062 0.589754 0)
(8.23945 0.79677 0)
(8.29717 0.66744 0)
(8.23622 0.879857 0)
(8.3108 0.729277 0)
(8.23293 0.963269 0)
(8.30619 0.789525 0)
(8.20555 1.06391 0)
(8.30443 0.869268 0)
(8.15397 1.16406 0)
(8.32521 0.931606 0)
(8.06798 1.26286 0)
(8.34851 0.994342 0)
(7.95294 1.35852 0)
(8.38365 1.03722 0)
(7.82095 1.45236 0)
(8.41828 1.06959 0)
(7.70228 1.54192 0)
(8.43716 1.12652 0)
(7.59721 1.64629 0)
(8.44211 1.21912 0)
(7.51574 1.78233 0)
(8.42012 1.33912 0)
(7.42474 1.9374 0)
(8.3804 1.47909 0)
(7.32634 2.11623 0)
(8.32257 1.64485 0)
(7.26606 2.34471 0)
(8.21002 1.84102 0)
(7.24756 2.6257 0)
(8.07001 2.10476 0)
(7.22498 2.99371 0)
(8.01703 2.47771 0)
(7.11405 3.46684 0)
(8.19743 2.99152 0)
(6.81917 4.21979 0)
(8.80728 3.51165 0)
(6.57372 5.81093 0)
(9.58132 3.58191 0)
(7.99799 8.12174 0)
(10.1389 -0.125893 0)
(10.0633 -0.230571 0)
(10.1961 -0.278297 0)
(10.1605 -0.260878 0)
(10.3209 -0.233057 0)
(10.2707 -0.191264 0)
(10.3996 -0.170806 0)
(10.3058 -0.148131 0)
(10.4104 -0.148527 0)
(10.2993 -0.142886 0)
(10.4075 -0.157261 0)
(10.2996 -0.16113 0)
(10.4206 -0.182194 0)
(10.3177 -0.188638 0)
(10.4489 -0.210441 0)
(10.3468 -0.215047 0)
(10.4838 -0.235021 0)
(10.3791 -0.237034 0)
(10.5199 -0.255878 0)
(10.4121 -0.257101 0)
(10.5569 -0.276953 0)
(10.4462 -0.279363 0)
(10.5946 -0.301608 0)
(10.4807 -0.305478 0)
(10.6319 -0.329638 0)
(10.515 -0.333988 0)
(10.668 -0.358702 0)
(10.5479 -0.362202 0)
(10.7018 -0.386653 0)
(10.5785 -0.389327 0)
(10.7321 -0.414022 0)
(10.6053 -0.41683 0)
(10.7583 -0.442596 0)
(10.6276 -0.446253 0)
(10.7804 -0.472865 0)
(10.6457 -0.476368 0)
(10.7996 -0.502798 0)
(10.6623 -0.505782 0)
(10.82 -0.532484 0)
(10.6817 -0.535424 0)
(10.8441 -0.563792 0)
(10.7058 -0.568334 0)
(10.8717 -0.599888 0)
(10.7324 -0.606137 0)
(10.8991 -0.640096 0)
(10.7562 -0.646387 0)
(10.9216 -0.68028 0)
(10.7727 -0.683783 0)
(10.9368 -0.715106 0)
(10.7812 -0.713655 0)
(10.9456 -0.741546 0)
(10.7844 -0.735205 0)
(10.9505 -0.760764 0)
(10.7863 -0.752153 0)
(10.9558 -0.779119 0)
(10.7931 -0.772245 0)
(10.9654 -0.804038 0)
(10.806 -0.799907 0)
(10.9762 -0.835143 0)
(10.8174 -0.831101 0)
(10.9795 -0.866916 0)
(10.8201 -0.86123 0)
(10.9708 -0.896278 0)
(10.8117 -0.888966 0)
(10.95 -0.92286 0)
(10.7939 -0.917586 0)
(10.9264 -0.955993 0)
(10.776 -0.956063 0)
(10.907 -0.994242 0)
(10.7566 -0.992177 0)
(10.8868 -1.02852 0)
(10.7301 -1.02192 0)
(10.8637 -1.05416 0)
(10.7042 -1.04677 0)
(10.839 -1.07825 0)
(10.6713 -1.06952 0)
(10.8096 -1.10095 0)
(10.6409 -1.09265 0)
(10.7869 -1.12863 0)
(10.6257 -1.11766 0)
(10.7703 -1.14907 0)
(10.6198 -1.13219 0)
(10.7532 -1.15585 0)
(10.613 -1.12922 0)
(10.7322 -1.15179 0)
(10.6024 -1.12165 0)
(10.701 -1.14221 0)
(10.5806 -1.11932 0)
(10.662 -1.1416 0)
(10.5509 -1.11569 0)
(10.6056 -1.1309 0)
(10.5006 -1.0962 0)
(10.5285 -1.11074 0)
(10.4335 -1.07479 0)
(10.4443 -1.09143 0)
(10.3616 -1.05598 0)
(10.358 -1.08123 0)
(10.2917 -1.05243 0)
(10.2866 -1.08501 0)
(10.2246 -1.05485 0)
(10.2228 -1.09091 0)
(10.1535 -1.05425 0)
(10.1515 -1.09271 0)
(10.0779 -1.03957 0)
(10.0796 -1.06797 0)
(10.0016 -1.00174 0)
(9.99709 -1.02375 0)
(9.91372 -0.942244 0)
(9.89036 -0.958265 0)
(9.80177 -0.865779 0)
(9.74818 -0.874414 0)
(9.67151 -0.788584 0)
(9.6172 -0.820254 0)
(9.57509 -0.749503 0)
(9.49917 -0.779034 0)
(9.46542 -0.700322 0)
(9.36987 -0.727747 0)
(9.33416 -0.643197 0)
(9.23504 -0.677602 0)
(9.21195 -0.580778 0)
(9.12222 -0.623859 0)
(9.10071 -0.515118 0)
(9.02845 -0.560782 0)
(8.98337 -0.444646 0)
(8.93744 -0.492556 0)
(8.86563 -0.371593 0)
(8.83713 -0.419429 0)
(8.74852 -0.283926 0)
(8.72817 -0.333568 0)
(8.6301 -0.189794 0)
(8.61855 -0.247817 0)
(8.50909 -0.106558 0)
(8.51816 -0.176262 0)
(8.39265 -0.0332061 0)
(8.42598 -0.104399 0)
(8.2816 0.0319247 0)
(8.34285 -0.0445644 0)
(8.17905 0.0805354 0)
(8.26345 0.00740475 0)
(8.09719 0.127269 0)
(8.20118 0.0500746 0)
(8.03436 0.18464 0)
(8.1543 0.095884 0)
(8.00285 0.221498 0)
(8.13867 0.124056 0)
(7.98934 0.264644 0)
(8.13023 0.167633 0)
(7.99739 0.302586 0)
(8.14954 0.201449 0)
(8.01417 0.342978 0)
(8.18381 0.241289 0)
(8.03964 0.402969 0)
(8.22764 0.297985 0)
(8.03982 0.462926 0)
(8.26125 0.364691 0)
(8.05331 0.548099 0)
(8.26957 0.4295 0)
(8.06298 0.638288 0)
(8.29414 0.505671 0)
(8.0468 0.707686 0)
(8.32905 0.567101 0)
(8.05687 0.804835 0)
(8.36894 0.627347 0)
(8.04251 0.890545 0)
(8.42786 0.692677 0)
(8.01475 0.991699 0)
(8.46882 0.762901 0)
(7.96068 1.09608 0)
(8.5292 0.833708 0)
(7.91023 1.20108 0)
(8.5963 0.888368 0)
(7.85384 1.3117 0)
(8.65183 0.948382 0)
(7.78863 1.40869 0)
(8.71088 0.98725 0)
(7.72169 1.49897 0)
(8.72807 1.0307 0)
(7.67034 1.5953 0)
(8.70898 1.08922 0)
(7.63269 1.71531 0)
(8.671 1.17132 0)
(7.61286 1.87357 0)
(8.63262 1.2827 0)
(7.59223 2.04752 0)
(8.57963 1.41503 0)
(7.58103 2.23649 0)
(8.52046 1.57428 0)
(7.57485 2.46051 0)
(8.50535 1.79011 0)
(7.52033 2.74177 0)
(8.57975 2.05386 0)
(7.39977 3.12045 0)
(8.81276 2.37066 0)
(7.22135 3.67884 0)
(9.2503 2.64867 0)
(7.10685 4.62251 0)
(9.87053 2.75492 0)
(7.51299 6.04094 0)
(10.161 2.96785 0)
(8.9671 7.10373 0)
(11.6111 -0.108505 0)
(11.5731 -0.243489 0)
(11.7597 -0.308603 0)
(11.7678 -0.289475 0)
(11.9076 -0.256157 0)
(11.8492 -0.201273 0)
(11.9379 -0.17548 0)
(11.8399 -0.146586 0)
(11.9136 -0.149031 0)
(11.8081 -0.141784 0)
(11.8881 -0.160009 0)
(11.7878 -0.162428 0)
(11.8785 -0.186884 0)
(11.7836 -0.191496 0)
(11.8825 -0.216466 0)
(11.7895 -0.219245 0)
(11.8929 -0.242262 0)
(11.7988 -0.24236 0)
(11.9049 -0.263957 0)
(11.8084 -0.26296 0)
(11.9165 -0.285229 0)
(11.8169 -0.285115 0)
(11.9262 -0.309558 0)
(11.8224 -0.310812 0)
(11.9322 -0.337167 0)
(11.824 -0.338883 0)
(11.9343 -0.365948 0)
(11.8221 -0.36678 0)
(11.9334 -0.393749 0)
(11.8186 -0.39327 0)
(11.9306 -0.420112 0)
(11.8144 -0.418856 0)
(11.9265 -0.446568 0)
(11.8101 -0.445465 0)
(11.9213 -0.474358 0)
(11.8054 -0.473601 0)
(11.9154 -0.50366 0)
(11.8008 -0.503502 0)
(11.9103 -0.534692 0)
(11.7969 -0.535606 0)
(11.9065 -0.56844 0)
(11.793 -0.571058 0)
(11.903 -0.605647 0)
(11.7871 -0.609378 0)
(11.8977 -0.644843 0)
(11.7768 -0.647763 0)
(11.8874 -0.682254 0)
(11.7605 -0.682074 0)
(11.8703 -0.713861 0)
(11.7376 -0.708861 0)
(11.8456 -0.737573 0)
(11.7097 -0.728225 0)
(11.8159 -0.755998 0)
(11.6818 -0.745875 0)
(11.7868 -0.776188 0)
(11.6576 -0.76776 0)
(11.7583 -0.800846 0)
(11.6314 -0.793573 0)
(11.724 -0.827631 0)
(11.596 -0.821043 0)
(11.6811 -0.85552 0)
(11.5489 -0.847889 0)
(11.6291 -0.880788 0)
(11.4901 -0.870871 0)
(11.5703 -0.904893 0)
(11.4279 -0.898354 0)
(11.5123 -0.937617 0)
(11.3628 -0.933381 0)
(11.4451 -0.972782 0)
(11.2886 -0.965112 0)
(11.3702 -1.00228 0)
(11.2065 -0.99135 0)
(11.2919 -1.02779 0)
(11.1263 -1.01489 0)
(11.2109 -1.04986 0)
(11.0431 -1.0379 0)
(11.1307 -1.07631 0)
(10.9719 -1.06897 0)
(11.0685 -1.11112 0)
(10.9171 -1.09879 0)
(11.0121 -1.13454 0)
(10.8666 -1.1145 0)
(10.9519 -1.13911 0)
(10.8153 -1.11307 0)
(10.8922 -1.13435 0)
(10.7572 -1.10305 0)
(10.8303 -1.12454 0)
(10.6992 -1.09895 0)
(10.762 -1.12013 0)
(10.634 -1.08333 0)
(10.6766 -1.09767 0)
(10.5487 -1.05626 0)
(10.5853 -1.07684 0)
(10.4603 -1.03416 0)
(10.4958 -1.06147 0)
(10.3747 -1.01649 0)
(10.4055 -1.0562 0)
(10.2931 -1.01257 0)
(10.3119 -1.06156 0)
(10.2079 -1.016 0)
(10.2226 -1.06723 0)
(10.1227 -1.01447 0)
(10.1349 -1.06867 0)
(10.0362 -0.999099 0)
(10.039 -1.03755 0)
(9.93373 -0.954936 0)
(9.92052 -0.983749 0)
(9.81361 -0.885388 0)
(9.77645 -0.90745 0)
(9.66957 -0.794825 0)
(9.61132 -0.818821 0)
(9.54218 -0.732579 0)
(9.47936 -0.780976 0)
(9.41938 -0.690328 0)
(9.33147 -0.730994 0)
(9.2781 -0.628624 0)
(9.17361 -0.672966 0)
(9.12033 -0.564725 0)
(9.02408 -0.628756 0)
(8.97163 -0.510424 0)
(8.89475 -0.58509 0)
(8.83373 -0.451091 0)
(8.78219 -0.522371 0)
(8.70133 -0.382217 0)
(8.67077 -0.453283 0)
(8.57086 -0.309175 0)
(8.54379 -0.379448 0)
(8.44552 -0.222088 0)
(8.42168 -0.291729 0)
(8.32413 -0.128522 0)
(8.31225 -0.204744 0)
(8.21099 -0.0518111 0)
(8.20641 -0.132462 0)
(8.10155 0.0199969 0)
(8.11246 -0.0689657 0)
(8.00175 0.0822226 0)
(8.03286 -0.0118332 0)
(7.9011 0.133696 0)
(7.95793 0.0278377 0)
(7.81369 0.176185 0)
(7.90606 0.0635073 0)
(7.74381 0.216479 0)
(7.88702 0.0905974 0)
(7.72362 0.236672 0)
(7.88165 0.112144 0)
(7.71591 0.283053 0)
(7.88592 0.138569 0)
(7.73107 0.31662 0)
(7.92419 0.15908 0)
(7.76074 0.360581 0)
(7.9836 0.198786 0)
(7.78286 0.422103 0)
(8.04679 0.259057 0)
(7.81231 0.497334 0)