/*--------------------------------*- C++ -*----------------------------------*\
| =========                 |                                                 |
| \\      /  F ield         | OpenFOAM: The Open Source CFD Toolbox           |
|  \\    /   O peration     | Version:  2.4.0                                 |
|   \\  /    A nd           | Web:      www.OpenFOAM.org                      |
|    \\/     M anipulation  |                                                 |
\*---------------------------------------------------------------------------*/
FoamFile
{
    version     2.0;
    format      ascii;
    class       volScalarField;
    location    "1.1";
    object      k_0;
}
// * * * * * * * * * * * * * * * * * * * * * * * * * * * * * * * * * * * * * //

dimensions      [0 2 -2 0 0 0 0];

internalField   nonuniform List<scalar> 
8800
(
8.13372
10.2361
8.82033
6.78416
5.73077
4.92305
4.56824
4.10436
3.92182
3.66075
3.56383
3.33564
3.30551
3.16966
3.11147
2.96514
2.94928
2.8164
2.90337
2.58939
1.43402
4.31664
5.34211
5.28831
5.13663
4.7661
4.59692
4.26551
4.11796
3.88246
3.78002
3.56294
3.51753
3.3855
3.32072
3.21119
3.17042
3.07367
3.02465
3.02117
0.086782
0.70312
1.57665
1.93885
2.31611
2.4137
2.5569
2.60599
2.6231
2.58331
2.58305
2.55248
2.51978
2.46441
2.45393
2.4256
2.37461
2.35625
2.29896
2.30314
0.00353205
0.0669528
0.256684
0.413618
0.607709
0.716656
0.801658
0.932121
1.04589
1.07795
1.15119
1.23935
1.25721
1.28654
1.35255
1.38055
1.38421
1.39975
1.41479
1.41597
0.000132775
0.00466743
0.0221225
0.0486585
0.0969506
0.136997
0.156487
0.196151
0.258458
0.277955
0.310562
0.378018
0.393554
0.415557
0.479293
0.512978
0.537725
0.547497
0.580011
0.611813
2.55158e-05
0.000294288
0.00141317
0.0035484
0.00880068
0.0159909
0.018868
0.0240344
0.0374002
0.0419504
0.0492004
0.0706001
0.0755321
0.0816427
0.101413
0.117296
0.129626
0.134833
0.141469
0.162667
2.17056e-05
4.34423e-05
0.000122497
0.000265563
0.000618339
0.00137686
0.00163017
0.00206896
0.00336944
0.00380498
0.00457714
0.00799542
0.00902601
0.0102989
0.0132591
0.0178405
0.0195349
0.02216
0.0230211
0.0283797
2.09848e-05
2.88719e-05
5.15591e-05
6.91853e-05
8.91655e-05
0.000160123
0.000201785
0.000276257
0.000315832
0.000327285
0.000365563
0.000818264
0.00104645
0.00123773
0.00140504
0.00198017
0.00227547
0.00302127
0.00316612
0.00412179
2.0794e-05
2.69575e-05
3.82041e-05
7.46698e-05
8.04709e-05
8.21588e-05
8.66114e-05
0.000103652
0.000134599
0.000136645
0.000148447
0.000223032
0.000248062
0.000284634
0.000309649
0.000424594
0.000605537
0.00075203
0.000753448
0.000805882
2.05873e-05
2.71049e-05
4.57816e-05
6.00957e-05
5.75511e-05
6.20648e-05
8.6226e-05
0.000137683
0.000133318
0.000138377
0.000154131
0.00017776
0.000243169
0.000249372
0.000280474
0.000365981
0.000400171
0.000452623
0.000460801
0.000452853
2.04388e-05
3.12852e-05
5.14163e-05
5.00444e-05
4.69324e-05
6.18022e-05
0.000127613
0.000130215
0.000113025
0.000108404
0.000119171
0.000202402
0.000204825
0.000205365
0.000212539
0.000233872
0.000347792
0.000390223
0.000377381
0.00039497
2.0692e-05
3.37497e-05
4.25453e-05
4.51561e-05
5.79113e-05
0.000122915
0.000137451
0.000123675
0.000100041
0.000102235
0.000175932
0.000196123
0.000209547
0.000215672
0.000275603
0.000430973
0.000458279
0.000421977
0.00039252
0.000392979
2.10975e-05
3.2141e-05
4.02778e-05
6.75544e-05
0.000159469
0.000199659
0.000202518
0.000188407
0.000184275
0.000229474
0.00041854
0.000548397
0.000629528
0.000906234
0.00124733
0.00149045
0.0016282
0.0016874
0.00173143
0.00206066
2.1785e-05
4.19807e-05
0.000112841
0.000502339
0.000948839
0.0011053
0.00154754
0.00185916
0.00219614
0.00332253
0.0050607
0.00684392
0.00804801
0.0116288
0.0130992
0.0155182
0.0168189
0.0193281
0.0212067
0.0276484
2.51277e-05
0.000293494
0.00142316
0.00606276
0.0102121
0.0126174
0.0193026
0.0257429
0.0299842
0.0422464
0.0534974
0.0670433
0.0738938
0.0918794
0.099055
0.113645
0.121301
0.139156
0.150118
0.188791
0.000126406
0.00479612
0.0210545
0.064643
0.0965309
0.116317
0.166814
0.205222
0.228099
0.285816
0.322859
0.365438
0.388252
0.444539
0.462547
0.49964
0.521036
0.576945
0.607175
0.692022
0.00337145
0.0684006
0.242573
0.458993
0.587732
0.67354
0.849976
0.925022
1.00253
1.10411
1.17181
1.21635
1.26134
1.31783
1.33227
1.36535
1.38853
1.44815
1.47259
1.52952
0.0841715
0.716968
1.56621
1.97267
2.26823
2.41484
2.5859
2.59508
2.61977
2.5996
2.59215
2.54054
2.52287
2.47176
2.45468
2.40939
2.40274
2.38199
2.37121
2.34463
1.39972
4.34341
5.33386
5.28958
5.12634
4.79897
4.56307
4.28283
4.13305
3.86012
3.7754
3.57966
3.51853
3.35707
3.3261
3.20348
3.16968
3.0512
3.01405
2.91125
8.11213
10.2575
8.81249
6.79014
5.71139
4.96708
4.51785
4.13473
3.92523
3.6462
3.55093
3.34589
3.30679
3.13246
3.10394
2.94627
2.90667
2.72257
2.66165
2.44453
1.76904
1.33159
1.03716
0.871254
0.724024
0.66081
0.598678
0.586488
0.561378
0.560273
0.551997
0.552786
0.5455
0.547009
0.541518
0.54461
0.539015
0.541596
0.534384
0.535925
0.526555
0.52633
0.513669
0.509798
0.490948
0.482973
0.457478
0.448271
0.421153
0.412638
0.389359
0.381389
0.362325
0.359362
0.35117
0.353425
0.35408
0.364478
0.370314
0.385159
0.390791
0.395384
0.395623
0.392768
0.379976
0.36517
0.343191
0.324923
0.30604
0.293753
0.265417
0.234125
0.215477
0.216644
0.22719
0.327726
0.452645
0.474133
0.405302
0.237741
0.139054
0.0979067
0.0847635
0.0815476
0.0798099
0.0780228
0.0781178
0.0795917
0.0850685
0.0936766
0.101166
0.105922
0.106593
0.106066
0.104161
0.100533
0.0945188
0.0861712
0.0776919
0.0729389
0.0713541
0.0713388
0.072404
0.0758545
0.0859117
0.116039
0.154412
0.174181
0.180181
0.177024
0.162358
0.119217
0.0707923
0.0463391
0.0347818
0.0295246
0.027637
0.0261687
0.0248776
0.0243953
0.0234711
0.0227645
0.0211102
0.0196927
0.0189848
0.0168962
0.0158556
0.0139393
0.0129864
0.0120931
0.0105162
0.0100011
0.0097098
0.00978686
0.0105407
0.0107232
0.010909
0.0112977
0.011788
0.0130773
0.0137595
0.0140847
0.0147425
0.0152213
0.0157022
0.0177439
0.0195188
0.0202079
0.0202694
0.0207392
0.024386
0.0304078
0.0321732
0.0324139
0.0307173
0.0274094
0.0246801
0.0226846
0.0223921
0.023448
0.0294118
0.0368435
0.0418833
0.0442006
0.046651
0.0604838
0.0992385
0.13466
0.154552
0.162797
0.164553
0.166793
0.175049
0.17567
0.168436
0.127149
0.0863488
0.0611065
0.0473679
0.0388882
0.0332093
0.0322528
0.0329017
0.0378904
0.0444613
0.0525263
0.0562926
0.0568538
0.0580109
0.0642023
0.0779208
0.0952712
0.134914
0.248563
0.329416
0.331195
0.305297
0.256396
0.238777
0.236954
0.232064
0.227843
0.220724
0.206906
0.182061
0.16551
0.152585
0.136179
0.133031
0.131651
0.132873
0.144369
0.149125
0.169632
0.195553
0.222752
0.262644
0.269118
0.35518
2.88601
2.57456
2.13718
1.75791
1.5419
1.32025
1.2108
1.07196
1.01764
0.928878
0.900166
0.841379
0.822216
0.779174
0.765031
0.730938
0.720627
0.694147
0.686955
0.666474
0.662327
0.647468
0.645386
0.634422
0.633177
0.624019
0.623127
0.61337
0.610482
0.59517
0.589191
0.569523
0.560826
0.538592
0.530162
0.510723
0.503711
0.489457
0.482115
0.471867
0.464309
0.453801
0.4373
0.418908
0.401314
0.37122
0.343314
0.313895
0.280234
0.239192
0.207896
0.182319
0.167421
0.158615
0.157068
0.158875
0.167979
0.199325
0.339325
0.446682
0.454627
0.376973
0.212727
0.128157
0.095213
0.0838074
0.0796219
0.0771103
0.0744139
0.0746399
0.0761674
0.0803502
0.0846485
0.0863486
0.0860758
0.0848306
0.0828579
0.07846
0.0733598
0.0700118
0.069012
0.0691319
0.0703703
0.075424
0.0878199
0.125616
0.159473
0.173802
0.176884
0.17028
0.149074
0.0914716
0.0553992
0.0379844
0.0310774
0.028551
0.0274858
0.027464
0.0279581
0.0294315
0.0304414
0.030386
0.0295121
0.0285909
0.0269946
0.02532
0.0217035
0.0197146
0.0169212
0.0150031
0.0136424
0.0122803
0.0116591
0.0114898
0.0108065
0.0105416
0.0104517
0.0105607
0.0114144
0.0122005
0.0131558
0.0138695
0.0139947
0.0142675
0.0150477
0.0152953
0.0160109
0.0184067
0.0196936
0.0198002
0.0196606
0.0197417
0.0209671
0.0254591
0.0285844
0.0286664
0.0275887
0.0254623
0.0240384
0.023961
0.0262079
0.0333589
0.0393648
0.0427495
0.0446319
0.0467393
0.0577723
0.0996412
0.13521
0.155753
0.160511
0.157879
0.156744
0.163728
0.168399
0.165449
0.140485
0.0965196
0.0664338
0.0506072
0.0398243
0.0342591
0.0331286
0.0340956
0.0397806
0.0467217
0.0551214
0.0591584
0.060535
0.0635795
0.0733286
0.088504
0.116614
0.205804
0.339029
0.363223
0.343157
0.278315
0.248692
0.242139
0.23538
0.218368
0.205022
0.17564
0.15195
0.129142
0.115669
0.104945
0.0975371
0.0960817
0.0983195
0.102203
0.113459
0.130227
0.143014
0.181943
0.208045
0.252083
0.265128
0.352744
1.93121
2.0925
1.86955
1.63674
1.48556
1.32356
1.2261
1.10993
1.04886
0.965459
0.927625
0.866611
0.841043
0.792706
0.772996
0.733242
0.717127
0.684212
0.67171
0.645811
0.636922
0.61727
0.611099
0.596749
0.593373
0.58489
0.584207
0.580336
0.580806
0.577827
0.578071
0.573804
0.571698
0.564501
0.560122
0.54881
0.541729
0.526189
0.514675
0.497535
0.479819
0.453253
0.423561
0.390586
0.35409
0.310537
0.267376
0.226798
0.180562
0.141073
0.109821
0.085974
0.0681209
0.0610009
0.0614561
0.066048
0.085161
0.109591
0.144332
0.238263
0.359171
0.400526
0.396682
0.342398
0.206497
0.13321
0.101569
0.0854987
0.0774049
0.0749241
0.074515
0.074995
0.0750411
0.0751933
0.0748991
0.0736028
0.0729563
0.0716582
0.0700073
0.0697561
0.0702833
0.0727605
0.0811029
0.102046
0.145946
0.170397
0.177308
0.176239
0.163317
0.124113
0.0705297
0.0434726
0.0328183
0.0291373
0.0283555
0.0292774
0.0328181
0.0370769
0.0435812
0.0488783
0.0503546
0.050001
0.0481371
0.0456162
0.0421627
0.0350597
0.0314793
0.0270669
0.0243479
0.0216627
0.0187463
0.0171332
0.015053
0.0132344
0.0120487
0.011669
0.0118844
0.0126776
0.0138202
0.0142315
0.0142069
0.0142729
0.0144472
0.0149401
0.0167857
0.0176932
0.0184246
0.0193108
0.0192894
0.0192315
0.0188369
0.0182578
0.0180386
0.0181628
0.0203001
0.022595
0.023225
0.0236135
0.0241053
0.0251253
0.030155
0.0394525
0.0452622
0.0478825
0.0489568
0.0500594
0.0552126
0.0921028
0.135207
0.156985
0.162042
0.155172
0.149679
0.152784
0.160071
0.160432
0.149553
0.1096
0.0731532
0.0537183
0.0411318
0.0356729
0.0344519
0.0356203
0.039377
0.0464574
0.0559704
0.0618356
0.0650742
0.0714395
0.0830819
0.103041
0.157173
0.312592
0.381204
0.372482
0.308511
0.263797
0.247034
0.234386
0.206824
0.175329
0.144043
0.114596
0.097849
0.0837018
0.0772945
0.0705948
0.0671879
0.0678822
0.0708383
0.077412
0.0859002
0.107223
0.121562
0.156839
0.192977
0.234789
0.25074
0.328596
1.09683
1.3332
1.24194
1.13568
1.05696
0.973969
0.914645
0.846906
0.801512
0.747094
0.712996
0.672147
0.647811
0.614987
0.597302
0.567757
0.552207
0.524486
0.51126
0.487153
0.477625
0.45964
0.451981
0.439584
0.434421
0.427232
0.424962
0.423947
0.425291
0.426898
0.431708
0.434956
0.439962
0.442648
0.443228
0.442262
0.438485
0.431257
0.41521
0.394616
0.368953
0.338216
0.306544
0.266008
0.225032
0.182359
0.142886
0.105909
0.0787334
0.0596302
0.046645
0.0379828
0.0314703
0.027393
0.0268196
0.0274263
0.0301504
0.0363124
0.052194
0.0771698
0.121962
0.244623
0.335494
0.360939
0.356888
0.327363
0.234888
0.153584
0.11171
0.0922142
0.083405
0.0815787
0.0782444
0.0773332
0.0765718
0.075376
0.0751868
0.0751397
0.0757607
0.0781898
0.0848169
0.0998678
0.138826
0.172602
0.183511
0.183323
0.175036
0.151412
0.08941
0.0513568
0.034668
0.0292921
0.028296
0.0295985
0.0344954
0.0461031
0.0610749
0.0745612
0.0867925
0.0908296
0.0899701
0.0870857
0.0804024
0.0716145
0.0636697
0.0523939
0.0473669
0.0388679
0.0328756
0.0281467
0.0240469
0.0210218
0.0176768
0.0153968
0.0145433
0.0143228
0.0151148
0.0160706
0.0164145
0.0164792
0.0161877
0.0160693
0.0161683
0.0169254
0.0178702
0.020048
0.0216336
0.0217921
0.0217064
0.0215577
0.0209454
0.0203022
0.0189968
0.0187059
0.0189054
0.0208064
0.0226894
0.0233915
0.024565
0.0265273
0.0348061
0.0474592
0.0544304
0.0561701
0.0560662
0.0554867
0.056802
0.0779379
0.127415
0.154829
0.163997
0.15687
0.146069
0.14508
0.151402
0.154309
0.150123
0.123944
0.0840661
0.0585381
0.043692
0.0384069
0.0376065
0.0382763
0.0406715
0.0453556
0.0568953
0.0669643
0.0718128
0.0814704
0.09524
0.12567
0.258027
0.392975
0.39857
0.348347
0.281842
0.258862
0.233953
0.200352
0.158693
0.122849
0.103121
0.082128
0.0743881
0.0646625
0.0605218
0.0544842
0.050416
0.0504946
0.0519416
0.0569083
0.0649698
0.0802714
0.101083
0.126854
0.171518
0.230381
0.240167
0.281623
0.621552
0.591043
0.566902
0.535207
0.506746
0.480348
0.458275
0.432907
0.413831
0.391059
0.373241
0.352753
0.3403
0.3225
0.313855
0.302372
0.293416
0.28335
0.271325
0.26049
0.249277
0.240784
0.234206
0.227804
0.224171
0.220086
0.218204
0.218357
0.219259
0.221037
0.225024
0.228597
0.232325
0.234497
0.235071
0.234677
0.232297
0.227376
0.21871
0.204022
0.185225
0.163257
0.138342
0.111565
0.0883332
0.0684495
0.0523719
0.0403805
0.031617
0.0250195
0.0203073
0.0170311
0.0142362
0.0120567
0.0115379
0.0116298
0.0121844
0.0135941
0.0176492
0.0243834
0.0368972
0.0638305
0.125912
0.234605
0.304258
0.32657
0.326874
0.315891
0.276941
0.213858
0.156592
0.129499
0.110347
0.100214
0.0948322
0.0937474
0.094346
0.0971913
0.106238
0.123537
0.157824
0.188456
0.197582
0.196854
0.18949
0.168702
0.113684
0.0621723
0.037559
0.0283944
0.0267859
0.027936
0.0330722
0.047313
0.0740728
0.10657
0.131963
0.154656
0.163936
0.162957
0.157731
0.146246
0.128588
0.11242
0.0962456
0.0793003
0.0675879
0.0543939
0.0483682
0.0404686
0.0323511
0.0262199
0.0212021
0.0197641
0.0198568
0.0198268
0.0198564
0.0195926
0.0185819
0.0182966
0.0183184
0.0183871
0.0187009
0.0206127
0.0218051
0.0224571
0.02445
0.0247603
0.0250208
0.0250997
0.0250545
0.0253899
0.0248929
0.02264
0.0217038
0.023219
0.0261853
0.0271685
0.0285147
0.0314978
0.047588
0.0650666
0.0710929
0.0710302
0.0660588
0.0612758
0.0609279
0.0685564
0.111813
0.149127
0.161428
0.158516
0.146612
0.141715
0.144857
0.149984
0.14828
0.1314
0.0934412
0.0645255
0.0490846
0.0438847
0.0425904
0.0427164
0.0441264
0.049148
0.0654829
0.0756106
0.0807227
0.0899409
0.107782
0.170862
0.365284
0.428299
0.406136
0.314202
0.274073
0.247951
0.203166
0.159979
0.12224
0.102432
0.0838489
0.0701693
0.0658509
0.0575341
0.055407
0.0495612
0.047236
0.0451091
0.0454802
0.0474266
0.0520426
0.0611964
0.080012
0.10182
0.133234
0.217603
0.228532
0.254933
0.400605
0.160299
0.156187
0.151472
0.143289
0.13899
0.135149
0.130515
0.127512
0.122947
0.11901
0.113691
0.110501
0.105086
0.101785
0.0990004
0.0959835
0.0945297
0.0912508
0.0880027
0.0837924
0.0803156
0.0773968
0.0750715
0.0735865
0.07199
0.0711947
0.071273
0.0718894
0.0726768
0.0744138
0.0766175
0.079329
0.0814496
0.0823269
0.0822937
0.0815591
0.0797491
0.0758227
0.0698551
0.0625451
0.054261
0.0458712
0.0376236
0.0302361
0.0242084
0.0194127
0.0155874
0.0128913
0.0105659
0.00887953
0.00753808
0.0064215
0.00561396
0.00532059
0.00531982
0.00544554
0.00584556
0.00680559
0.00881868
0.0130516
0.0194121
0.0343381
0.0602291
0.119127
0.20434
0.262809
0.292232
0.297267
0.29551
0.289165
0.272852
0.250561
0.227369
0.207383
0.201763
0.203152
0.209005
0.218734
0.221615
0.221017
0.216949
0.205653
0.181726
0.125838
0.0700859
0.0402862
0.0273039
0.0243825
0.0249126
0.028968
0.0426772
0.0700112
0.127336
0.178097
0.228999
0.263702
0.282296
0.28158
0.274308
0.256132
0.230679
0.197737
0.170328
0.138739
0.113881
0.0960078
0.0764578
0.0651603
0.050839
0.0406791
0.0366676
0.0315296
0.0291179
0.0258771
0.0246409
0.0237581
0.022987
0.0227246
0.0227463
0.0229831
0.0233955
0.0247328
0.028909
0.0305843
0.0310546
0.0312513
0.0308707
0.0295227
0.0285174
0.0282067
0.0288868
0.029252
0.028526
0.0276634
0.0294899
0.0320223
0.0330818
0.0347367
0.0403743
0.0658021
0.0849424
0.0870594
0.0810263
0.0689437
0.0626142
0.061513
0.0646889
0.0939824
0.141934
0.160917
0.162092
0.149035
0.140591
0.14131
0.144722
0.144744
0.13476
0.102573
0.0755728
0.0615971
0.0542029
0.0489483
0.0483565
0.049941
0.0607361
0.0768258
0.0826072
0.0883204
0.0985216
0.127635
0.281064
0.427579
0.438097
0.365943
0.296846
0.271219
0.222318
0.17756
0.137878
0.110678
0.0957096
0.0735978
0.0680254
0.0596409
0.0545997
0.0513584
0.044575
0.0413586
0.0404136
0.040142
0.0411563
0.0444569
0.0516058
0.06702
0.0884377
0.109869
0.189177
0.217286
0.23693
0.310979
0.0280163
0.0271887
0.0261119
0.0248525
0.0243156
0.0242932
0.0243475
0.0246134
0.0247284
0.0247487
0.0246027
0.0243811
0.0237118
0.0231874
0.0228363
0.0223419
0.0221598
0.0218375
0.0213856
0.0206045
0.0197369
0.0192526
0.0186325
0.0181208
0.017728
0.0175757
0.0175967
0.0177922
0.018016
0.0185703
0.0190221
0.0199128
0.0210248
0.0216945
0.02179
0.0216337
0.0212021
0.0201726
0.0189343
0.0171767
0.0155162
0.0134059
0.011581
0.00975199
0.00820417
0.00702363
0.00589887
0.00508382
0.00429545
0.00374468
0.0033246
0.00300078
0.00286445
0.00286638
0.00291038
0.00299576
0.00324399
0.00353266
0.00417116
0.00524178
0.0075318
0.0114327
0.0179573
0.0321512
0.0580396
0.0935512
0.153325
0.206746
0.237009
0.258185
0.261591
0.261796
0.261169
0.258051
0.256421
0.252568
0.246957
0.237559
0.223233
0.203195
0.16748
0.113258
0.0671683
0.0393981
0.0254935
0.020608
0.0208411
0.0233701
0.0330943
0.0585369
0.118965
0.197903
0.296361
0.356894
0.393717
0.393464
0.386825
0.372321
0.351887
0.333541
0.312154
0.27445
0.238874
0.194006
0.161339
0.130119
0.103439
0.0836867
0.0681811
0.0601609
0.0507385
0.0419616
0.0386512
0.0356204
0.0343938
0.0330091
0.0321308
0.0320996
0.0323328
0.0335567
0.0351441
0.0410335
0.0476705
0.0482436
0.047954
0.0466948
0.0439293
0.0408423
0.0361637
0.0339676
0.033981
0.0352323
0.0359937
0.0372229
0.0399013
0.0399657
0.0386822
0.0393153
0.0540056
0.0917708
0.0999286
0.0957454
0.0812962
0.0686867
0.0619674
0.0601944
0.0617072
0.0776344
0.129333
0.158629
0.165575
0.153679
0.140955
0.141897
0.142808
0.141829
0.13612
0.114542
0.0888711
0.0735678
0.0639145
0.057138
0.0568697
0.0593266
0.0756906
0.0852299
0.0886784
0.0946591
0.107303
0.171089
0.393686
0.460071
0.434417
0.324152
0.28951
0.258227
0.20939
0.163648
0.129504
0.109052
0.0879278
0.0706275
0.0681629
0.0587993
0.0591215
0.0524521
0.0529764
0.0465236
0.0452111
0.0415931
0.0409579
0.0418344
0.044487
0.0529788
0.0772677
0.095139
0.164662
0.194145
0.210513
0.259559
0.00406947
0.00396144
0.00380219
0.0037359
0.00374857
0.00379929
0.0039084
0.00407212
0.00418595
0.00436837
0.00443722
0.00451898
0.00453871
0.00454878
0.00456505
0.00456183
0.00457271
0.00456902
0.00456203
0.00453164
0.00443008
0.00437303
0.00424907
0.00412439
0.00398446
0.00388211
0.00383994
0.00384197
0.00385402
0.00390623
0.0039697
0.00412872
0.00432334
0.00436546
0.00441843
0.00448564
0.00448345
0.00444397
0.00437578
0.0042056
0.00406915
0.00373285
0.00348203
0.00319608
0.00287734
0.00260889
0.0023527
0.00213095
0.00195023
0.00185306
0.00183256
0.00184695
0.00189879
0.00198016
0.00203744
0.00213802
0.00224373
0.00236206
0.00254024
0.0028549
0.00371323
0.00480711
0.00694565
0.0103409
0.0173944
0.0266103
0.0470147
0.0667401
0.0944631
0.124888
0.148057
0.168698
0.18041
0.181167
0.17862
0.171103
0.157605
0.139588
0.108562
0.0780849
0.0519522
0.0331952
0.0221551
0.0167627
0.0167014
0.0180369
0.023732
0.0416189
0.0867842
0.17918
0.319712
0.425725
0.467966
0.465548
0.452502
0.43127
0.408429
0.387953
0.366916
0.350362
0.332016
0.312235
0.285858
0.244954
0.204797
0.163093
0.133872
0.112552
0.0952925
0.0818016
0.0653731
0.0585521
0.053099
0.0480309
0.0443131
0.0431588
0.0435038
0.0453513
0.0496315
0.059277
0.0680853
0.081166
0.0866735
0.0858742
0.08353
0.0792373
0.0689895
0.0622617
0.0519873
0.0443732
0.0428009
0.0446926
0.0453931
0.0455659
0.0476083
0.0473914
0.0471461
0.0493121
0.0824077
0.10811
0.107087
0.092873
0.0752936
0.066423
0.061024
0.059122
0.0594103
0.0661529
0.107266
0.150528
0.162515
0.157609
0.145701
0.146105
0.142009
0.139096
0.137646
0.129926
0.1068
0.0885233
0.0748768
0.0672546
0.0668335
0.0726416
0.0863284
0.089915
0.0929979
0.0994296
0.120685
0.272967
0.455346
0.470989
0.385066
0.30073
0.279311
0.254699
0.204267
0.156982
0.129037
0.111526
0.0860654
0.0763024
0.0671619
0.0590456
0.0578657
0.0522714
0.0635171
0.0587824
0.0495428
0.045286
0.042591
0.0428892
0.0434212
0.0478276
0.0722838
0.0877519
0.155252
0.184318
0.195197
0.225997
0.000798396
0.000786879
0.000783503
0.000776688
0.000771862
0.000774592
0.000788604
0.000825732
0.00087026
0.00094886
0.00100126
0.00107163
0.00111991
0.00115919
0.00118984
0.00119893
0.00120838
0.00120929
0.00120728
0.00119521
0.0011668
0.00115237
0.00112526
0.00111442
0.00109249
0.00107338
0.00105398
0.00103475
0.00102363
0.00101687
0.00101519
0.0010146
0.00101243
0.00101081
0.00100793
0.00102002
0.00109544
0.00120215
0.00129931
0.00137534
0.00140613
0.00142821
0.0014339
0.00143581
0.00142557
0.00139273
0.00139472
0.00140011
0.0014171
0.00147061
0.00153716
0.0015855
0.00168205
0.00177012
0.00178733
0.00178476
0.00177074
0.00175614
0.00175758
0.00180084
0.00194308
0.00232459
0.00285423
0.0042647
0.00598655
0.00892521
0.014704
0.0193097
0.0292042
0.0409155
0.0490895
0.058595
0.0670259
0.0678157
0.0664421
0.0626634
0.0542897
0.044423
0.0331747
0.0237806
0.0169463
0.0128178
0.0126472
0.0134069
0.0165848
0.0278039
0.0561196
0.125926
0.284891
0.453909
0.527143
0.52949
0.516314
0.485699
0.451189
0.42239
0.393662
0.376907
0.361637
0.349146
0.331845
0.321782
0.303579
0.275838
0.239436
0.200103
0.165179
0.136094
0.10961
0.0921376
0.0782254
0.0696575
0.0601095
0.0568234
0.0569259
0.0599569
0.0686739
0.0852437
0.109211
0.130415
0.146288
0.15551
0.155251
0.150386
0.143741
0.134811
0.111643
0.0981681
0.0866219
0.0696576
0.0634507
0.0577359
0.0551803
0.0563398
0.0604756
0.0574125
0.0546096
0.0589891
0.102883
0.115786
0.109337
0.0850289
0.0720322
0.0656031
0.0626998
0.0613538
0.0613037
0.0659607
0.100152
0.14162
0.157107
0.15987
0.157702
0.149643
0.141008
0.140205
0.144065
0.140632
0.1196
0.096731
0.0798853
0.0742242
0.0742085
0.0837667
0.0916659
0.0938565
0.0968436
0.105419
0.151925
0.384484
0.48579
0.465296
0.332267
0.285207
0.275065
0.258522
0.202639
0.156201
0.14458
0.116697
0.0976238
0.0884267
0.0696946
0.0752074
0.0645939
0.0720158
0.146242
0.115299
0.0652114
0.0493072
0.0432959
0.0428414
0.044479
0.0483181
0.0765251
0.0850893
0.129857
0.187155
0.191854
0.206407
0.00045083
0.000451828
0.000457188
0.000460578
0.000462317
0.000470618
0.000485431
0.000506848
0.000529958
0.000552968
0.000569612
0.000582152
0.000588596
0.000594269
0.00060285
0.0006097
0.000621359
0.000627531
0.000635821
0.000638804
0.00064115
0.000641401
0.000640699
0.000637553
0.000633753
0.000630227
0.00062843
0.000628282
0.000629979
0.000640472
0.000649236
0.000670008
0.000682864
0.000714662
0.000737693
0.000769356
0.000792879
0.00083119
0.000860875
0.0009203
0.000965485
0.00103061
0.00110795
0.00115552
0.00123421
0.00130551
0.00137573
0.00145079
0.00163796
0.00175051
0.00182784
0.00194571
0.00205115
0.00207802
0.00206982
0.00203895
0.00196699
0.00181595
0.00168125
0.00163033
0.00163124
0.0016673
0.00176418
0.00213409
0.00264402
0.00348519
0.00530639
0.00657189
0.0092389
0.0129007
0.0154247
0.0189593
0.0211566
0.0211719
0.0205872
0.0192365
0.0162219
0.0132912
0.0104816
0.00872515
0.00881534
0.00951741
0.0117217
0.0182131
0.0358463
0.0817156
0.178039
0.413374
0.554046
0.589724
0.58037
0.549053
0.482108
0.418298
0.377266
0.352267
0.335267
0.32557
0.324053
0.323299
0.323489
0.320622
0.310277
0.297061
0.264537
0.225237
0.191993
0.155575
0.127996
0.108171
0.0930345
0.0818124
0.0778986
0.0793596
0.0876402
0.11386
0.161823
0.205888
0.233
0.236451
0.234457
0.229136
0.218468
0.199658
0.189498
0.173712
0.148471
0.134769
0.126639
0.101961
0.0930366
0.0803567
0.0722122
0.0713238
0.0685897
0.059971
0.0588927
0.0750754
0.118276
0.120148
0.105244
0.0801029
0.0712449
0.0667754
0.065934
0.0657366
0.0662528
0.0712221
0.0960175
0.132244
0.152569
0.160603
0.158556
0.148971
0.142754
0.145185
0.147334
0.144063
0.12254
0.100001
0.0865174
0.0836289
0.0850312
0.0934325
0.0961574
0.0976898
0.10111
0.115127
0.234168
0.460152
0.49755
0.412703
0.291893
0.267694
0.275563
0.269521
0.206113
0.176307
0.169624
0.143563
0.130996
0.101234
0.0897166
0.0838129
0.0742408
0.11833
0.428361
0.352793
0.149729
0.0694768
0.0469559
0.0447132
0.0485854
0.0525579
0.0947421
0.0892052
0.103811
0.182406
0.192204
0.198151
0.000409218
0.00041154
0.000417066
0.000418477
0.000417795
0.000417242
0.000417333
0.000422601
0.000445764
0.000477553
0.00051129
0.000549364
0.00058105
0.000610542
0.000628135
0.000639019
0.000641438
0.000639081
0.000627428
0.000612916
0.000603227
0.000597852
0.000598384
0.000610287
0.000633864
0.00064994
0.000660383
0.000666401
0.000667703
0.000668274
0.000669973
0.000671618
0.000673805
0.000685499
0.000750636
0.000891223
0.000987025
0.00116054
0.00129618
0.00144859
0.00166922
0.00180799
0.00201297
0.0022158
0.00242364
0.00259068
0.00286512
0.00317657
0.0035309
0.00379288
0.00382527
0.00379926
0.00369562
0.00341729
0.00315159
0.00294041
0.00272411
0.00247861
0.00224232
0.00201747
0.00184982
0.00179269
0.00179775
0.00184498
0.00195477
0.00217468
0.0026055
0.00295878
0.00380875
0.00440619
0.00534583
0.0063185
0.00657509
0.00655294
0.0064075
0.00605794
0.00558225
0.00559311
0.00584149
0.00656318
0.00838269
0.0131925
0.02507
0.0523171
0.117186
0.270276
0.517155
0.629898
0.636577
0.615883
0.544612
0.438081
0.389581
0.363955
0.348627
0.334306
0.323234
0.312791
0.30409
0.300573
0.302163
0.305883
0.305466
0.300779
0.284586
0.25207
0.216338
0.182803
0.160093
0.134428
0.119535
0.117623
0.122073
0.138926
0.188776
0.265972
0.296387
0.295522
0.288274
0.276193
0.266711
0.256355
0.244524
0.22063
0.20942
0.190217
0.169882
0.161793
0.14759
0.128048
0.114789
0.0986406
0.0870055
0.083763
0.0706997
0.0608742
0.0605176
0.0893578
0.120484
0.119905
0.0958978
0.0776429
0.0706157
0.0685632
0.0693863
0.0718123
0.0753497
0.0812894
0.0965291
0.126747
0.148983
0.156545
0.15541
0.149784
0.146628
0.148237
0.149066
0.146234
0.1247
0.103888
0.0938799
0.0926072
0.0944384
0.0994032
0.100895
0.102392
0.10711
0.135074
0.333329
0.490842
0.489111
0.338566
0.258983
0.258178
0.299181
0.291612
0.223759
0.218495
0.21617
0.181915
0.16252
0.145838
0.155755
0.137451
0.11434
0.254677
0.453348
0.458582
0.397759
0.137179
0.0660569
0.0503151
0.0630649
0.0575861
0.112054
0.101251
0.105935
0.170311
0.204189
0.205825
0.000395489
0.000403775
0.00042024
0.00044986
0.000534855
0.000629111
0.000748108
0.000837402
0.000941788
0.00101039
0.00106888
0.00111063
0.00113621
0.0011513
0.00115283
0.00115221
0.00113328
0.00109516
0.00106262
0.00101877
0.000996272
0.000965564
0.000945519
0.000932262
0.000910223
0.000890644
0.000869716
0.000858105
0.000861531
0.000948613
0.00127622
0.00151619
0.00187584
0.00217122
0.00237674
0.00277809
0.00299789
0.00340705
0.00375803
0.00414997
0.00483202
0.00533395
0.00601133
0.00667234
0.00740704
0.00806072
0.00879807
0.0096735
0.0102159
0.0103275
0.0102418
0.00996956
0.0092878
0.00841076
0.00756463
0.00675268
0.00596309
0.00525286
0.00454124
0.0038884
0.00329539
0.00286125
0.0024951
0.00225274
0.00219028
0.00220308
0.00226692
0.00233909
0.00252494
0.00266518
0.00290085
0.00301156
0.00319245
0.00336734
0.00353825
0.00376755
0.0041952
0.00503338
0.00688993
0.0111841
0.0205427
0.0410592
0.0839719
0.171893
0.3856
0.604772
0.685219
0.681107
0.632713
0.494281
0.419282
0.389391
0.374063
0.363774
0.357848
0.352729
0.3392
0.323747
0.307515
0.298704
0.29373
0.294089
0.298951
0.297687
0.291726
0.271895
0.245573
0.219639
0.195089
0.179885
0.180573
0.190638
0.217876
0.303187
0.351411
0.349783
0.338489
0.313368
0.296247
0.284785
0.278787
0.271801
0.256467
0.240646
0.233727
0.21517
0.194662
0.180731
0.15535
0.145525
0.131801
0.113875
0.0998261
0.0900866
0.0715587
0.0633315
0.0652821
0.0977305
0.115505
0.108894
0.0877945
0.0765411
0.0716354
0.0717076
0.0739665
0.0800328
0.08488
0.0897678
0.103074
0.124727
0.139072
0.144149
0.152496
0.150633
0.150508
0.155236
0.15477
0.149009
0.126702
0.109356
0.103516
0.103135
0.105898
0.108397
0.10796
0.108192
0.114856
0.185824
0.41001
0.497747
0.437895
0.286356
0.23611
0.253908
0.324865
0.313439
0.267545
0.272721
0.244072
0.20462
0.234545
0.24298
0.290439
0.33737
0.371781
0.378014
0.424496
0.335102
0.470813
0.279309
0.116776
0.064895
0.140711
0.0759671
0.08846
0.115674
0.113336
0.140865
0.205859
0.21339
0.00252785
0.00296837
0.00328961
0.00364301
0.00392766
0.00421471
0.00457035
0.00482413
0.00522218
0.00548651
0.00578549
0.00601014
0.00616768
0.00624685
0.00624982
0.00624124
0.0061317
0.00595225
0.00576895
0.00559658
0.00551415
0.00545262
0.00543538
0.00544464
0.00544354
0.0054404
0.00544904
0.00561242
0.00633048
0.00708516
0.008124
0.00889937
0.00988601
0.0108249
0.0114997
0.0127926
0.0135906
0.0147691
0.0162759
0.0176168
0.0195735
0.0211941
0.0229978
0.0247645
0.0263309
0.0276983
0.0292121
0.0303258
0.0304297
0.0302335
0.0296008
0.028117
0.0259901
0.0233021
0.020589
0.0178829
0.0154534
0.0131704
0.011189
0.00948491
0.00791506
0.00661058
0.00551435
0.00461076
0.00396558
0.00348803
0.00321344
0.00304316
0.00298497
0.00299797
0.00304569
0.00315345
0.00332893
0.00374752
0.00435464
0.00548546
0.00826116
0.0125997
0.0224852
0.0406336
0.0754754
0.144928
0.267293
0.518133
0.669066
0.725969
0.709485
0.597932
0.46284
0.413885
0.393647
0.384756
0.383203
0.383326
0.38261
0.379034
0.365773
0.352572
0.332312
0.314144
0.305564
0.297531
0.299311
0.299908
0.295216
0.286692
0.273042
0.246171
0.236472
0.239247
0.2512
0.29962
0.388447
0.404424
0.394904
0.36111
0.318348
0.28965
0.27827
0.276282
0.273033
0.272361
0.267247
0.259683
0.244062
0.230812
0.216158
0.196588
0.174901
0.163079
0.140685
0.115801
0.104724
0.0958485
0.0796969
0.0679259
0.0696508
0.0959676
0.108293
0.0995865
0.0858827
0.0759779
0.0724548
0.0741156
0.0806813
0.0899373
0.0941811
0.10124
0.112361
0.119563
0.126384
0.141082
0.147627
0.152085
0.164833
0.165607
0.160137
0.153345
0.135967
0.120294
0.117298
0.117275
0.118658
0.117784
0.114302
0.114953
0.132433
0.27081
0.442309
0.472289
0.370851
0.25563
0.227498
0.257657
0.325787
0.351386
0.35256
0.312091
0.24604
0.237056
0.26735
0.276456
0.343778
0.41011
0.570874
0.484273
0.455379
0.306362
0.382308
0.295762
0.201714
0.0947878
0.417061
0.136634
0.113571
0.128718
0.128569
0.140353
0.201904
0.213478
0.0312447
0.032294
0.0329805
0.033522
0.0337538
0.0340985
0.0346364
0.0352008
0.0364139
0.0372046
0.0381906
0.0387104
0.0388325
0.0388236
0.0386273
0.0382918