/*--------------------------------*- C++ -*----------------------------------*\
| =========                 |                                                 |
| \\      /  F ield         | OpenFOAM: The Open Source CFD Toolbox           |
|  \\    /   O peration     | Version:  2.4.0                                 |
|   \\  /    A nd           | Web:      www.OpenFOAM.org                      |
|    \\/     M anipulation  |                                                 |
\*---------------------------------------------------------------------------*/
FoamFile
{
    version     2.0;
    format      ascii;
    class       surfaceScalarField;
    location    "1.1";
    object      phi;
}
// * * * * * * * * * * * * * * * * * * * * * * * * * * * * * * * * * * * * * //

dimensions      [0 3 -1 0 0 0 0];

internalField   nonuniform List<scalar> 
17320
(
1.76249e-05
7.37507e-06
1.16147e-05
6.01022e-06
8.68205e-06
2.93265e-06
7.35994e-06
1.32211e-06
6.70676e-06
6.53178e-07
6.33063e-06
3.76137e-07
6.08931e-06
2.41319e-07
5.87853e-06
2.10778e-07
5.66388e-06
2.14652e-07
5.59951e-06
6.43625e-08
5.53083e-06
6.86892e-08
5.35434e-06
1.76481e-07
5.27333e-06
8.10184e-08
5.30823e-06
-3.49024e-08
5.13348e-06
1.7475e-07
5.06072e-06
7.27621e-08
4.97147e-06
8.92426e-08
5.07416e-06
-1.02692e-07
4.74533e-06
3.28832e-07
-7.96957e-07
5.54229e-06
2.54305e-05
6.94453e-06
2.32465e-05
8.19429e-06
2.09875e-05
5.19165e-06
1.93171e-05
2.99246e-06
1.80523e-05
1.91805e-06
1.70969e-05
1.33151e-06
1.63801e-05
9.58094e-07
1.57606e-05
8.30255e-07
1.5257e-05
7.1824e-07
1.49758e-05
3.45558e-07
1.46619e-05
3.82584e-07
1.43237e-05
5.14715e-07
1.41398e-05
2.64904e-07
1.40313e-05
7.36695e-08
1.37003e-05
5.05694e-07
1.35625e-05
2.1058e-07
1.33283e-05
3.23414e-07
1.33666e-05
-1.40986e-07
1.32105e-05
4.84919e-07
-8.22235e-07
1.32358e-05
2.65755e-05
5.36898e-06
2.71495e-05
7.62029e-06
2.67919e-05
5.54934e-06
2.62564e-05
3.52789e-06
2.55777e-05
2.59675e-06
2.4842e-05
2.06728e-06
2.41769e-05
1.62312e-06
2.34751e-05
1.53213e-06
2.28715e-05
1.32182e-06
2.24987e-05
7.18303e-07
2.20481e-05
8.33256e-07
2.16074e-05
9.55331e-07
2.13768e-05
4.95585e-07
2.11486e-05
3.01834e-07
2.07581e-05
8.96229e-07
2.05435e-05
4.25112e-07
2.02973e-05
5.69609e-07
2.01543e-05
2.01478e-09
2.0167e-05
4.72212e-07
-8.25639e-07
2.01705e-05
2.63152e-05
4.05374e-06
2.74863e-05
6.44926e-06
2.80845e-05
4.95106e-06
2.84796e-05
3.13279e-06
2.86564e-05
2.41997e-06
2.85663e-05
2.15741e-06
2.84777e-05
1.71174e-06
2.82024e-05
1.80741e-06
2.78846e-05
1.63965e-06
2.77317e-05
8.71173e-07
2.74537e-05
1.1113e-06
2.70793e-05
1.32966e-06
2.69573e-05
6.17586e-07
2.67254e-05
5.33755e-07
2.64156e-05
1.20603e-06
2.6155e-05
6.8571e-07
2.59786e-05
7.46035e-07
2.5703e-05
2.7759e-07
2.56876e-05
4.87568e-07
-4.42055e-07
2.53041e-05
2.61689e-05
2.8848e-06
2.7232e-05
5.38619e-06
2.80353e-05
4.1478e-06
2.85401e-05
2.628e-06
2.90913e-05
1.8687e-06
2.93255e-05
1.92322e-06
2.95722e-05
1.46508e-06
2.97194e-05
1.66021e-06
2.97997e-05
1.55932e-06
2.9918e-05
7.52851e-07
3.00291e-05
1.00021e-06
2.99064e-05
1.45242e-06
3.00262e-05
4.97792e-07
2.99766e-05
5.83287e-07
2.99379e-05
1.24475e-06
2.97747e-05
8.48891e-07
2.97062e-05
8.14605e-07
2.94406e-05
5.43169e-07
2.93482e-05
5.79954e-07
1.29567e-07
2.87766e-05
2.59674e-05
1.91739e-06
2.70152e-05
4.33839e-06
2.78459e-05
3.31716e-06
2.8303e-05
2.17088e-06
2.88847e-05
1.28694e-06
2.92017e-05
1.60621e-06
2.94772e-05
1.18963e-06
2.97273e-05
1.41006e-06
3.0059e-05
1.22762e-06
3.02035e-05
6.0841e-07
3.05535e-05
6.50212e-07
3.05555e-05
1.45039e-06
3.08126e-05
2.40749e-07
3.09303e-05
4.6553e-07
3.12503e-05
9.24737e-07
3.11873e-05
9.11933e-07
3.12718e-05
7.30045e-07
3.09171e-05
8.97892e-07
3.10372e-05
4.59859e-07
9.15394e-07
3.02514e-05
2.56907e-05
1.22672e-06
2.67739e-05
3.2552e-06
2.76373e-05
2.45372e-06
2.8041e-05
1.76718e-06
2.85254e-05
8.02558e-07
2.89616e-05
1.16996e-06
2.93157e-05
8.35555e-07
2.95014e-05
1.22436e-06
2.97889e-05
9.40163e-07
2.99514e-05
4.45876e-07
3.04606e-05
1.40955e-07
3.04874e-05
1.42362e-06
3.05663e-05
1.61903e-07
3.06754e-05
3.56402e-07
3.12284e-05
3.71769e-07
3.13162e-05
8.24103e-07
3.15931e-05
4.53174e-07
3.11783e-05
1.3127e-06
3.10383e-05
5.99789e-07
1.83532e-06
3.01184e-05
2.55472e-05
6.79512e-07
2.65894e-05
2.21306e-06
2.73836e-05
1.65946e-06
2.79199e-05
1.23091e-06
2.83288e-05
3.93638e-07
2.88311e-05
6.6771e-07
2.90628e-05
6.03856e-07
2.91894e-05
1.09775e-06
2.94394e-05
6.90174e-07
2.99154e-05
-3.02117e-08
3.03421e-05
-2.85671e-07
3.04293e-05
1.33641e-06
3.01336e-05
4.57588e-07
3.0373e-05
1.17023e-07
3.08436e-05
-9.89029e-08
3.12065e-05
4.6125e-07
3.13681e-05
2.91569e-07
3.16857e-05
9.95088e-07
3.18712e-05
4.14284e-07
8.12669e-07
3.28939e-05
2.54901e-05
1.89373e-07
2.64839e-05
1.21926e-06
2.71759e-05
9.67479e-07
2.79313e-05
4.75553e-07
2.83973e-05
-7.23547e-08
2.86508e-05
4.14193e-07
2.86395e-05
6.15093e-07
2.90105e-05
7.26827e-07
2.95787e-05
1.21987e-07
3.0097e-05
-5.48567e-07
3.0058e-05
-2.46649e-07
3.00391e-05
1.35528e-06
2.99219e-05
5.74859e-07
3.04027e-05
-3.63832e-07
3.08641e-05
-5.60327e-07
3.11378e-05
1.87543e-07
3.11493e-05
2.80086e-07
3.14521e-05
6.9228e-07
3.15907e-05
2.75745e-07
5.09845e-08
3.23523e-05
2.54071e-05
-2.17777e-07
2.64294e-05
1.97021e-07
2.72287e-05
1.6813e-07
2.80347e-05
-3.30448e-07
2.82378e-05
-2.75407e-07
2.82962e-05
3.55771e-07
2.8611e-05
3.00284e-07
2.93206e-05
1.72152e-08
2.98293e-05
-3.86705e-07
2.98169e-05
-5.36182e-07
2.9467e-05
1.03293e-07
2.98523e-05
9.69987e-07
3.03271e-05
1.00053e-07
3.06436e-05
-6.80361e-07
3.06907e-05
-6.07428e-07
3.06654e-05
2.12889e-07
3.07162e-05
2.29297e-07
3.12071e-05
2.01303e-07
3.1786e-05
-3.03114e-07
-4.84131e-07
3.23211e-05
2.53549e-05
-5.72667e-07
2.64265e-05
-8.74591e-07
2.73612e-05
-7.66527e-07
2.80281e-05
-9.97339e-07
2.79829e-05
-2.3024e-07
2.81814e-05
1.57295e-07
2.89045e-05
-4.22806e-07
2.9573e-05
-6.51337e-07
2.96513e-05
-4.64965e-07
2.93628e-05
-2.47674e-07
2.93539e-05
1.12112e-07
3.01968e-05
1.27158e-07
3.06765e-05
-3.79702e-07
3.05298e-05
-5.33596e-07
3.0195e-05
-2.72684e-07
3.03652e-05
4.26725e-08
3.08657e-05
-2.71174e-07
3.15709e-05
-5.03864e-07
3.18921e-05
-6.24375e-07
-5.6849e-07
3.19765e-05
2.54187e-05
-9.91372e-07
2.65366e-05
-1.99244e-06
2.73831e-05
-1.61311e-06
2.78872e-05
-1.50142e-06
2.80198e-05
-3.62866e-07
2.84618e-05
-2.84669e-07
2.90796e-05
-1.04057e-06
2.94139e-05
-9.85696e-07
2.94231e-05
-4.74162e-07
2.94568e-05
-2.81395e-07
2.98045e-05
-2.35552e-07
3.03147e-05
-3.83e-07
3.04301e-05
-4.95095e-07
3.03323e-05
-4.35852e-07
3.0309e-05
-2.49392e-07
3.07621e-05
-4.10358e-07
3.13552e-05
-8.64354e-07
3.17026e-05
-8.51249e-07
3.16378e-05
-5.59584e-07
-4.95528e-07
3.15649e-05
2.55581e-05
-1.54943e-06
2.66778e-05
-3.11214e-06
2.73984e-05
-2.33377e-06
2.78239e-05
-1.92692e-06
2.82199e-05
-7.58824e-07
2.88079e-05
-8.72706e-07
2.917e-05
-1.40268e-06
2.92723e-05
-1.088e-06
2.94148e-05
-6.16656e-07
2.97975e-05
-6.64063e-07
3.01186e-05
-5.56623e-07
3.02625e-05
-5.26981e-07
3.02272e-05
-4.59721e-07
3.04925e-05
-7.01196e-07
3.07978e-05
-5.54703e-07
3.1209e-05
-8.21573e-07
3.13915e-05
-1.04678e-06
3.14657e-05
-9.25521e-07
3.15101e-05
-6.03959e-07
-7.29934e-07
3.17445e-05
2.57123e-05
-2.2617e-06
2.6761e-05
-4.16083e-06
2.74986e-05
-3.07136e-06
2.79536e-05
-2.38198e-06
2.85232e-05
-1.32842e-06
2.89729e-05
-1.3224e-06
2.92326e-05
-1.66233e-06
2.9377e-05
-1.23242e-06
2.96381e-05
-8.77732e-07
3.00094e-05
-1.03539e-06
3.02325e-05
-7.79693e-07
3.03793e-05
-6.73858e-07
3.05303e-05
-6.10736e-07
3.08857e-05
-1.05657e-06
3.10786e-05
-7.47623e-07
3.1237e-05
-9.79943e-07
3.12482e-05
-1.058e-06
3.14497e-05
-1.12702e-06
3.17181e-05
-8.72291e-07
-1.1223e-06
3.21104e-05
2.58536e-05
-3.11532e-06
2.6865e-05
-5.17219e-06
2.77472e-05
-3.95356e-06
2.82897e-05
-2.92446e-06
2.87991e-05
-1.83783e-06
2.9123e-05
-1.6463e-06
2.94047e-05
-1.9441e-06
2.96147e-05
-1.44242e-06
2.9883e-05
-1.14595e-06
3.01601e-05
-1.31249e-06
3.03997e-05
-1.01934e-06
3.06006e-05
-8.74769e-07
3.07942e-05
-8.04304e-07
3.09386e-05
-1.20102e-06
3.09857e-05
-7.94725e-07
3.10258e-05
-1.02003e-06
3.10456e-05
-1.07773e-06
3.12731e-05
-1.35453e-06
3.14934e-05
-1.09261e-06
-1.4525e-06
3.18236e-05
2.59924e-05
-4.10768e-06
2.71488e-05
-6.32868e-06
2.80919e-05
-4.89663e-06
2.85718e-05
-3.40434e-06
2.89966e-05
-2.26264e-06
2.93167e-05
-1.96641e-06
2.95136e-05
-2.14099e-06
2.96612e-05
-1.59004e-06
2.98213e-05
-1.30606e-06
2.99034e-05
-1.39452e-06
2.998e-05
-1.09594e-06
3.00067e-05
-9.01474e-07
3.00157e-05
-8.13383e-07
2.98986e-05
-1.08385e-06
2.9838e-05
-7.34164e-07
2.97265e-05
-9.08561e-07
2.96095e-05
-9.60747e-07
2.95654e-05
-1.31035e-06
2.95199e-05
-1.04715e-06
-1.50188e-06
2.95693e-05
2.62479e-05
-5.35557e-06
2.75289e-05
-7.60965e-06
2.81612e-05
-5.52894e-06
2.84391e-05
-3.68225e-06
2.86307e-05
-2.45428e-06
2.86352e-05
-1.97084e-06
2.84016e-05
-1.90741e-06
2.82121e-05
-1.4006e-06
2.7984e-05
-1.07795e-06
2.76732e-05
-1.0837e-06
2.74252e-05
-8.47908e-07
2.71786e-05
-6.54881e-07
2.69317e-05
-5.66468e-07
2.66083e-05
-7.60433e-07
2.64007e-05
-5.26593e-07
2.61176e-05
-6.25434e-07
2.58397e-05
-6.82909e-07
2.55083e-05
-9.78914e-07
2.52808e-05
-8.19625e-07
-1.32481e-06
2.51037e-05
2.65755e-05
-6.93111e-06
2.7171e-05
-8.20516e-06
2.68123e-05
-5.17024e-06
2.62031e-05
-3.07301e-06
2.5598e-05
-1.84917e-06
2.48923e-05
-1.26512e-06
2.41007e-05
-1.11583e-06
2.34945e-05
-7.94385e-07
2.29506e-05
-5.34016e-07
2.24246e-05
-5.57758e-07
2.20165e-05
-4.39842e-07
2.16721e-05
-3.10428e-07
2.13652e-05
-2.59533e-07
2.10145e-05
-4.09777e-07
2.07671e-05
-2.79188e-07
2.0464e-05
-3.22343e-07
2.01618e-05
-3.80698e-07
1.97336e-05
-5.50717e-07
1.93767e-05
-4.62726e-07
-4.66812e-07
1.85187e-05
2.54393e-05
-7.37039e-06
2.32519e-05
-6.01778e-06
2.10011e-05
-2.91944e-06
1.9281e-05
-1.35292e-06
1.80679e-05
-6.36052e-07
1.71356e-05
-3.32783e-07
1.63275e-05
-3.07804e-07
1.57559e-05
-2.22708e-07
1.53289e-05
-1.07066e-07
1.4922e-05
-1.50861e-07
1.46077e-05
-1.25582e-07
1.4369e-05
-7.17191e-08
1.41638e-05
-5.4268e-08
1.38918e-05
-1.37806e-07
1.36992e-05
-8.65538e-08
1.34709e-05
-9.40288e-08
1.3215e-05
-1.24868e-07
1.28608e-05
-1.9646e-07
1.25973e-05
-1.99274e-07
-7.19896e-08
1.22025e-05
1.76296e-05
1.16118e-05
8.69239e-06
7.33947e-06
6.70341e-06
6.37063e-06
6.06283e-06
5.84012e-06
5.73305e-06
5.58219e-06
5.45661e-06
5.38489e-06
5.33062e-06
5.19282e-06
5.10626e-06
5.01223e-06
4.88737e-06
4.69091e-06
4.49163e-06
4.41964e-06
5.94859e-06
-2.30049e-07
-1.7625e-07
6.29594e-06
-8.18526e-09
-3.3917e-07
6.52787e-06
1.14685e-07
-3.46612e-07
6.79912e-06
1.14805e-07
-3.8605e-07
7.11981e-06
1.17654e-08
-3.32456e-07
7.39346e-06
-9.55029e-08
-1.78147e-07
7.60596e-06
-2.40103e-07
2.75954e-08
7.78336e-06
-3.01771e-07
1.24378e-07
7.92129e-06
-3.37855e-07
1.99919e-07
8.0511e-06
-2.91125e-07
1.61316e-07
8.17646e-06
-2.64649e-07
1.39297e-07
8.30069e-06
-2.12736e-07
8.84993e-08
8.42138e-06
-2.12231e-07
9.15438e-08
8.54532e-06
-2.12337e-07
8.84002e-08
8.66181e-06
-2.55212e-07
1.38717e-07
8.77108e-06
-2.76208e-07
1.66941e-07
8.86964e-06
-3.35429e-07
2.36866e-07
8.95007e-06
-3.61999e-07
2.81575e-07
9.01544e-06
-4.17768e-07
3.5239e-07
9.07098e-06
-4.17835e-07
3.623e-07
9.1008e-06
-4.4875e-07
4.18929e-07
9.12689e-06
-4.0981e-07
3.83724e-07
9.12627e-06
-4.10213e-07
4.10827e-07
9.12902e-06
-3.36766e-07
3.34019e-07
9.11719e-06
-2.85864e-07
2.97697e-07
9.10935e-06
-1.64134e-07
1.71967e-07
9.11436e-06
-5.70833e-08
5.20727e-08
9.13495e-06
1.35235e-07
-1.55827e-07
9.19919e-06
3.06268e-07
-3.70506e-07
9.34329e-06
5.82572e-07
-7.26665e-07
9.54734e-06
8.26988e-07
-1.03104e-06
9.79413e-06
1.11716e-06
-1.36395e-06
1.01127e-05
1.34636e-06
-1.66492e-06
1.04864e-05
1.65022e-06
-2.02396e-06
1.09928e-05
1.85742e-06
-2.36381e-06
1.16243e-05
2.08042e-06
-2.71187e-06
1.24155e-05
2.1454e-06
-2.9366e-06
1.33085e-05
2.07879e-06
-2.97178e-06
1.42651e-05
1.71985e-06
-2.67651e-06
1.52554e-05
1.1178e-06
-2.10812e-06
1.61734e-05
2.10419e-07
-1.12838e-06
1.70221e-05
-8.63912e-07
1.5171e-08
1.77389e-05
-2.11812e-06
1.40139e-06
1.8353e-05
-3.32229e-06
2.70817e-06
1.88621e-05
-4.5625e-06
4.05343e-06
1.91963e-05
-5.64884e-06
5.31462e-06
1.93949e-05
-6.5306e-06
6.33203e-06
1.94949e-05
-7.20418e-06
7.10419e-06
1.95257e-05
-7.69037e-06
7.65949e-06
1.93638e-05
-7.71463e-06
7.87654e-06
1.89462e-05
-7.39358e-06
7.81124e-06
1.83413e-05
-6.7707e-06
7.37556e-06
1.78973e-05
-6.14925e-06
6.59324e-06
1.77878e-05
-5.4454e-06
5.55491e-06
1.74643e-05
-4.29055e-06
4.61409e-06
1.64806e-05
-2.73441e-06
3.71808e-06
1.48394e-05
-1.269e-06
2.91018e-06
1.30797e-05
-4.24764e-07
2.18452e-06
1.18158e-05
1.32006e-08
1.25067e-06
1.14282e-05
3.25077e-07
6.24826e-08
1.17944e-05
9.35637e-07
-1.30179e-06
1.24702e-05
1.88255e-06
-2.55834e-06
1.33567e-05
2.87597e-06
-3.7625e-06
1.43752e-05
3.8561e-06
-4.87464e-06
1.53392e-05
4.81807e-06
-5.78206e-06
1.62036e-05
5.69439e-06
-6.55875e-06
1.70361e-05
6.29696e-06
-7.1295e-06
1.76964e-05
6.97776e-06
-7.63802e-06
1.84941e-05
7.285e-06
-8.0827e-06
1.92764e-05
7.70278e-06
-8.48509e-06
2.01341e-05
7.94576e-06
-8.80346e-06
2.11476e-05
7.68223e-06
-8.69571e-06
2.20913e-05
7.42565e-06
-8.36937e-06
2.30804e-05
6.39214e-06
-7.3812e-06
2.39586e-05
5.31349e-06
-6.19171e-06
2.47678e-05
4.07279e-06
-4.88202e-06
2.55237e-05
2.46759e-06
-3.22349e-06
2.61813e-05
6.73705e-07
-1.33129e-06
2.6592e-05
-1.37163e-06
9.6097e-07
2.68826e-05
-2.94803e-06
2.65741e-06
2.7343e-05
-4.74958e-06
4.28915e-06
2.77738e-05
-6.50469e-06
6.07385e-06
2.81434e-05
-8.40242e-06
8.03284e-06
2.82513e-05
-9.51025e-06
9.40235e-06
2.83976e-05
-1.03409e-05
1.01947e-05
2.88662e-05
-1.12197e-05
1.07511e-05
2.9772e-05
-1.19877e-05
1.10819e-05
3.12529e-05
-1.34249e-05
1.19441e-05
3.30174e-05
-1.47036e-05
1.2939e-05
3.47534e-05
-1.61285e-05
1.43925e-05
3.63275e-05
-1.70989e-05
1.55248e-05
3.74879e-05
-1.75289e-05
1.63685e-05
3.81729e-05
-1.75839e-05
1.68989e-05
3.84293e-05
-1.69629e-05
1.67064e-05
3.82808e-05
-1.59407e-05
1.60892e-05
3.79671e-05
-1.48215e-05
1.51352e-05
3.74169e-05
-1.32036e-05
1.37538e-05
3.67912e-05
-1.16255e-05
1.22512e-05
3.61875e-05
-1.00379e-05
1.06415e-05
3.54278e-05
-8.41376e-06
9.17345e-06
3.47164e-05
-6.9522e-06
7.66368e-06
3.37865e-05
-5.20721e-06
6.13705e-06
3.28838e-05
-4.2874e-06
5.19009e-06
3.20414e-05
-3.12362e-06
3.96611e-06
3.09027e-05
-2.03178e-06
3.17038e-06
3.00171e-05
-1.53444e-06
2.42009e-06
2.88644e-05
-8.52591e-07
2.00526e-06
2.78715e-05
-7.79629e-07
1.77252e-06
2.70152e-05
-7.25652e-07
1.58202e-06
2.60023e-05
-6.3102e-07
1.64388e-06
2.56118e-05
-1.30715e-06
1.6976e-06
2.50472e-05
-1.09428e-06
1.65895e-06
2.45255e-05
-1.67441e-06
2.19609e-06
2.41229e-05
-1.77757e-06
2.18018e-06
2.34173e-05
-1.80823e-06
2.51385e-06
2.30629e-05
-2.48982e-06
2.84419e-06
2.27727e-05
-2.438e-06
2.72816e-06
2.23673e-05
-2.6608e-06
3.06621e-06
2.21911e-05
-3.03192e-06
3.20816e-06
2.17692e-05
-2.10325e-06
2.52511e-06
2.14151e-05
-2.32678e-06
2.68089e-06
2.10909e-05
-1.81464e-06
2.13886e-06
2.06109e-05
-1.27512e-06
1.75508e-06
1.99785e-05
-9.81543e-07
1.61393e-06
1.95286e-05
-3.5216e-07
8.02149e-07
1.87502e-05
4.85076e-07
2.9328e-07
1.80033e-05
5.78748e-07
1.68122e-07
1.78705e-05
9.7663e-07
-8.43754e-07
1.80279e-05
1.40598e-06
-1.56344e-06
1.75973e-05
1.89318e-06
-1.46255e-06
1.73171e-05
8.9905e-07
-6.18905e-07
1.69153e-05
1.43083e-06
-1.02895e-06
1.68259e-05
1.17006e-06
-1.0807e-06
1.60893e-05
1.24812e-06
-5.11476e-07
1.60302e-05
-1.42783e-07
2.01824e-07
1.61705e-05
-2.13804e-07
7.35154e-08
1.66498e-05
-6.4771e-07
1.6838e-07
1.6872e-05
-3.24357e-08
-1.89764e-07
1.72599e-05
-7.21692e-07
3.33815e-07
1.74193e-05
-1.08376e-06
9.24392e-07
1.73497e-05
-2.05992e-06
2.12953e-06
1.75938e-05
-3.25879e-06
3.01461e-06
1.83949e-05
-3.66642e-06
2.86532e-06
1.92048e-05
-3.58065e-06
2.77076e-06
1.96373e-05
-3.84805e-06
3.41564e-06
1.90585e-05
-4.68197e-06
5.26074e-06
1.85909e-05
-6.04757e-06
6.5152e-06
1.86056e-05
-4.17668e-06
4.16195e-06
1.95279e-05
5.36806e-07
-1.45912e-06
2.04715e-05
7.27532e-06
-8.21891e-06
2.12147e-05
1.38421e-05
-1.45853e-05
2.15345e-05
1.93335e-05
-1.96533e-05
2.15075e-05
2.27775e-05
-2.27505e-05
2.10604e-05
2.46323e-05
-2.41852e-05
2.06615e-05
2.43151e-05
-2.39162e-05
2.04184e-05
2.33901e-05
-2.3147e-05
1.99922e-05
2.13361e-05
-2.09099e-05
1.95948e-05
1.99692e-05
-1.95717e-05
1.92559e-05
1.79374e-05
-1.75986e-05
1.87106e-05
1.48401e-05
-1.42948e-05
1.82383e-05
1.20291e-05
-1.15568e-05
1.84542e-05
9.28126e-06
-9.49719e-06
1.91303e-05
6.1387e-06
-6.8148e-06
1.94749e-05
1.92005e-06
-2.26459e-06
1.89527e-05
-9.17751e-07
1.4399e-06
1.90858e-05
-4.48758e-06
4.35451e-06
1.98449e-05
-9.69623e-06
8.93713e-06
2.0224e-05
-1.34175e-05
1.30384e-05
2.02564e-05
-1.48931e-05
1.48608e-05
2.10502e-05
-1.71436e-05
1.63498e-05
2.26901e-05
-2.11434e-05
1.95036e-05
2.46573e-05
-2.4909e-05
2.29418e-05
2.56153e-05
-2.68597e-05
2.59017e-05
2.49819e-05
-2.59298e-05
2.65632e-05
2.33268e-05
-2.33112e-05
2.49664e-05
2.12206e-05
-1.96154e-05
2.17216e-05
2.00416e-05
-1.66568e-05
1.78357e-05
1.97682e-05
-1.48961e-05
1.51696e-05
2.05375e-05
-1.29507e-05
1.21814e-05
2.18052e-05
-1.20067e-05
1.07389e-05
2.33311e-05
-1.02192e-05
8.69332e-06
2.49909e-05
-8.43536e-06
6.77561e-06
2.64327e-05
-6.35133e-06
4.90947e-06
2.80397e-05
-4.34477e-06
2.73783e-06
2.86686e-05
-1.64229e-06
1.01336e-06
2.98167e-05
3.25126e-07
-1.47323e-06
3.01046e-05
3.70953e-06
-3.99741e-06
3.0353e-05
5.61152e-06
-5.85993e-06
3.03811e-05
9.36451e-06
-9.3926e-06
2.9917e-05
1.20686e-05
-1.16044e-05
2.92811e-05
1.52836e-05
-1.46477e-05
2.8091e-05
1.88796e-05
-1.76895e-05
2.72863e-05
2.18964e-05
-2.10917e-05
2.56737e-05
2.54279e-05
-2.38153e-05
2.40726e-05
2.89824e-05
-2.73813e-05
2.27723e-05
3.29162e-05
-3.16158e-05
2.02197e-05
3.7505e-05
-3.49524e-05
1.75427e-05
4.05717e-05
-3.78947e-05
1.68676e-05
4.44491e-05
-4.37741e-05
5.21916e-05
-5.24653e-05
1.71414e-05
1.33055e-05
-2.99755e-07
1.33741e-05
-7.67982e-08
1.34626e-05
2.62124e-08
1.35631e-05
1.43116e-08
1.3685e-05
-1.10157e-07
1.38283e-05
-2.3876e-07
1.3957e-05
-3.68783e-07
1.40672e-05
-4.11997e-07
1.41635e-05
-4.34136e-07
1.42573e-05
-3.84931e-07
1.43494e-05
-3.56822e-07
1.44391e-05
-3.02353e-07
1.45305e-05
-3.03718e-07
1.46178e-05
-2.99644e-07
1.46964e-05
-3.33812e-07
1.478e-05
-3.59715e-07
1.4846e-05
-4.0143e-07
1.49108e-05
-4.26876e-07
1.49568e-05
-4.63781e-07
1.4996e-05
-4.56986e-07
1.50135e-05
-4.66296e-07
1.50238e-05
-4.20027e-07
1.50035e-05
-3.89953e-07
1.4971e-05
-3.04313e-07
1.49149e-05
-2.29674e-07
1.48574e-05
-1.06711e-07
1.47847e-05
1.56308e-08
1.47263e-05
1.93695e-07
1.46892e-05
3.43296e-07
1.47041e-05
5.67659e-07
1.47892e-05
7.41945e-07
1.49339e-05
9.72406e-07
1.51618e-05
1.11851e-06
1.54998e-05
1.31216e-06
1.59387e-05
1.41859e-06
1.65282e-05
1.49084e-06
1.72473e-05
1.42639e-06
1.80904e-05
1.23564e-06
1.89919e-05
8.18337e-07
1.9917e-05
1.92692e-07
2.08106e-05
-6.83152e-07
2.16116e-05
-1.66492e-06
2.22956e-05
-2.8021e-06
2.28714e-05
-3.89812e-06
2.33033e-05
-4.99435e-06
2.35956e-05
-5.94118e-06
2.37766e-05
-6.71158e-06
2.38245e-05
-7.25207e-06
2.3683e-05
-7.54887e-06
2.33479e-05
-7.3796e-06
2.298e-05
-7.02565e-06
2.26275e-05
-6.41818e-06
2.19962e-05
-5.51794e-06
2.09731e-05
-4.4223e-06
2.00738e-05
-3.39129e-06
1.95782e-05
-2.23877e-06
1.91183e-05
-8.09128e-07
1.80012e-05
6.92288e-07
1.64614e-05
1.55303e-06
1.49162e-05
1.87027e-06
1.40799e-05
1.77191e-06
1.3951e-05
2.01146e-06
1.42922e-05
2.53485e-06
1.50225e-05
3.12578e-06
1.59382e-05
3.90238e-06
1.69956e-05
4.63696e-06
1.81652e-05
5.12739e-06
1.90469e-05
6.09599e-06
2.00113e-05
6.32067e-06
2.09673e-05
6.74671e-06
2.19499e-05
6.96317e-06
2.30006e-05
6.63157e-06
2.39431e-05
6.48308e-06
2.49283e-05
5.40697e-06
2.57715e-05
4.47033e-06
2.66231e-05
3.22114e-06
2.73367e-05
1.75404e-06
2.79372e-05
7.32031e-08
2.83311e-05
-1.76557e-06
2.87016e-05
-3.31846e-06
2.92079e-05
-5.25596e-06
2.95789e-05
-6.87563e-06
2.97295e-05
-8.55305e-06
2.98177e-05
-9.59845e-06
3.02093e-05
-1.07326e-05
3.10915e-05
-1.21019e-05
3.24916e-05
-1.33879e-05
3.4239e-05
-1.51723e-05
3.60256e-05
-1.64902e-05
3.7497e-05
-1.75999e-05
3.85818e-05
-1.81837e-05
3.91398e-05
-1.80869e-05
3.92664e-05
-1.77105e-05
3.9078e-05
-1.67745e-05
3.86806e-05
-1.55433e-05
3.82298e-05
-1.43707e-05
3.76798e-05
-1.26535e-05
3.71544e-05
-1.11001e-05
3.65691e-05
-9.45258e-06
3.58315e-05
-7.67614e-06
3.50429e-05
-6.16362e-06
3.42893e-05
-4.4536e-06
3.3256e-05
-3.25412e-06
3.21771e-05
-2.04475e-06
3.07869e-05
-6.41541e-07
2.98152e-05
-5.6269e-07
2.8721e-05
2.41533e-07
2.79819e-05
-4.0529e-08
2.73142e-05
-5.78831e-08
2.65061e-05
1.77088e-07
2.58077e-05
-6.08826e-07
2.52006e-05
-4.87163e-07
2.42866e-05
-7.6039e-07
2.39358e-05
-1.42675e-06
2.33406e-05
-1.21303e-06
2.31823e-05
-2.33153e-06
2.30363e-05
-2.29201e-06
2.28215e-05
-2.446e-06
2.24944e-05
-2.7048e-06
2.22872e-05
-1.89609e-06
2.15481e-05
-1.58761e-06
2.12299e-05
-1.49647e-06
2.07545e-05
-7.99744e-07
2.0252e-05
-4.79064e-07
1.99524e-05
-5.25006e-08
1.99018e-05
5.3565e-07
1.92772e-05
1.2033e-06
1.90258e-05
1.22804e-06
1.88582e-05
1.5736e-06
1.86171e-05
2.1343e-06
1.84203e-05
1.09582e-06
1.8354e-05
1.49716e-06
1.83733e-05
1.15078e-06
1.77927e-05
1.82866e-06
1.71875e-05
4.62491e-07
1.72357e-05
-2.62002e-07
1.74312e-05
-8.43265e-07
1.75214e-05
-1.22599e-07
1.73578e-05
-5.58156e-07
1.76466e-05
-1.3725e-06
1.77908e-05
-2.20416e-06
1.81788e-05
-3.64677e-06
1.87206e-05
-4.20824e-06
1.95109e-05
-4.37093e-06
1.96966e-05
-4.03371e-06
1.90698e-05
-4.05522e-06
1.80901e-05
-5.06785e-06
1.77179e-05
-3.80449e-06
1.82837e-05
-2.89478e-08
1.93806e-05
6.17836e-06
2.02888e-05
1.29339e-05
2.10331e-05
1.85892e-05
2.11567e-05
2.26539e-05
2.10034e-05
2.47856e-05
2.06173e-05
2.47012e-05
2.05954e-05
2.3412e-05
2.03302e-05
2.16013e-05
1.99579e-05
2.03414e-05
1.96653e-05
1.82301e-05
1.91524e-05
1.5353e-05
1.89981e-05
1.21834e-05
1.9413e-05
8.86641e-06
1.99554e-05
5.59632e-06
1.99363e-05
1.93916e-06
1.97094e-05
-6.90927e-07
2.02307e-05
-5.00886e-06
2.09063e-05
-1.03718e-05
2.09754e-05
-1.34867e-05
2.10604e-05
-1.49781e-05
2.21247e-05
-1.8208e-05
2.39205e-05
-2.29392e-05
2.52419e-05
-2.62305e-05
2.48994e-05
-2.65172e-05
2.33567e-05
-2.43872e-05
2.09343e-05
-2.08888e-05
1.9141e-05
-1.78221e-05
1.88383e-05
-1.6354e-05
1.93038e-05
-1.53617e-05
2.08346e-05
-1.44816e-05
2.22693e-05
-1.34414e-05
2.39394e-05
-1.18892e-05
2.51563e-05
-9.65227e-06
2.67477e-05
-7.94271e-06
2.74786e-05
-5.07575e-06
2.85381e-05
-2.70178e-06
2.91142e-05
-2.50974e-07
2.95707e-05
3.25306e-06
2.96326e-05
5.54962e-06
2.99419e-05
9.05523e-06
2.9319e-05
1.26915e-05
2.93334e-05
1.52691e-05
2.85838e-05
1.96292e-05
2.76308e-05
2.28494e-05
2.69912e-05
2.60675e-05
2.54513e-05
3.05223e-05
2.45265e-05
3.3841e-05
2.37262e-05
3.83053e-05
2.15376e-05
4.27603e-05
2.35745e-05
4.24122e-05
5.48248e-05
2.09413e-05
1.99642e-05
-9.35182e-08
1.98905e-05
-3.04743e-09
1.99206e-05
-3.91876e-09
2.0022e-05
-8.70971e-08
2.01379e-05
-2.26006e-07
2.02334e-05
-3.34268e-07
2.02997e-05
-4.35163e-07
2.03536e-05
-4.65842e-07
2.03971e-05
-4.77666e-07
2.04531e-05
-4.40898e-07
2.05153e-05
-4.19077e-07
2.05806e-05
-3.67592e-07
2.064e-05
-3.63167e-07
2.07012e-05
-3.60852e-07
2.07409e-05
-3.73479e-07
2.07935e-05
-4.12319e-07
2.08214e-05
-4.29349e-07
2.0856e-05
-4.61439e-07
2.08776e-05
-4.85369e-07
2.08854e-05
-4.64824e-07
2.08936e-05
-4.74531e-07
2.08802e-05
-4.06531e-07
2.08611e-05
-3.70892e-07
2.08268e-05
-2.70053e-07
2.07783e-05
-1.81174e-07
2.07358e-05
-6.42028e-08
2.06703e-05
8.11128e-08
2.0624e-05
2.40085e-07
2.0592e-05
3.75206e-07
2.05926e-05
5.67107e-07
2.06345e-05
7.00008e-07
2.07483e-05
8.58592e-07
2.09134e-05
9.53434e-07
2.11784e-05
1.04716e-06
2.15372e-05
1.05983e-06
2.20261e-05
1.00193e-06
2.2606e-05
8.4651e-07
2.32984e-05
5.43169e-07
2.40429e-05
7.38418e-08
2.48237e-05
-5.8807e-07
2.55481e-05
-1.40757e-06
2.61921e-05
-2.30891e-06
2.6745e-05
-3.35495e-06
2.71562e-05
-4.30934e-06
2.74189e-05
-5.25703e-06
2.75079e-05
-6.0302e-06
2.74324e-05
-6.63607e-06
2.71574e-05
-6.97707e-06
2.66762e-05
-7.06774e-06
2.61338e-05
-6.83717e-06
2.55079e-05
-6.39976e-06
2.48149e-05
-5.72518e-06
2.42581e-05
-4.96111e-06
2.38018e-05
-3.96603e-06
2.32082e-05
-2.79762e-06
2.24209e-05
-1.45152e-06
2.18812e-05
-2.69386e-07
2.14851e-05
1.08839e-06
2.10461e-05
1.99202e-06
2.00523e-05
2.86406e-06
1.85342e-05
3.28998e-06
1.71628e-05
3.38287e-06
1.62884e-05
3.40924e-06
1.61218e-05
3.29236e-06
1.6521e-05
3.50319e-06
1.73933e-05
3.76471e-06
1.84736e-05
4.04704e-06
1.9504e-05
5.06565e-06
2.06512e-05
5.17349e-06
2.1799e-05
5.59892e-06
2.2986e-05
5.77614e-06
2.40796e-05
5.53795e-06
2.51433e-05
5.41937e-06
2.61595e-05
4.39083e-06
2.69768e-05
3.65295e-06
2.7843e-05
2.35504e-06
2.85807e-05
1.01628e-06
2.91468e-05
-4.92908e-07
2.95929e-05
-2.21169e-06
3.00713e-05
-3.79684e-06
3.04512e-05
-5.63583e-06
3.06508e-05
-7.07526e-06
3.08044e-05
-8.70658e-06
3.12575e-05
-1.00516e-05
3.22586e-05
-1.17337e-05
3.37204e-05
-1.35636e-05
3.54218e-05
-1.50893e-05
3.71057e-05
-1.68562e-05
3.8421e-05
-1.78055e-05
3.92347e-05
-1.84136e-05
3.96023e-05
-1.85514e-05
3.95564e-05
-1.80409e-05
3.93326e-05
-1.74867e-05
3.89777e-05
-1.64196e-05
3.87249e-05
-1.52906e-05
3.84371e-05
-1.40829e-05
3.80974e-05
-1.23138e-05
3.7757e-05
-1.07597e-05
3.72975e-05
-8.99313e-06
3.66845e-05
-7.06308e-06
3.59041e-05
-5.38324e-06
3.50105e-05
-3.56003e-06
3.38132e-05
-2.05679e-06
3.26642e-05
-8.95727e-07
3.16748e-05
3.47781e-07
3.07235e-05
3.88633e-07
2.97118e-05
1.25322e-06
2.87202e-05
9.51118e-07
2.76854e-05
9.76911e-07
2.68284e-05
1.03411e-06
2.59809e-05
2.38679e-07
2.52343e-05
2.59357e-07
2.45686e-05
-9.46218e-08
2.43392e-05
-1.19735e-06
2.40817e-05
-9.55548e-07
2.37903e-05
-2.04015e-06
2.36673e-05
-2.16897e-06
2.34031e-05
-2.18186e-06
2.29144e-05
-2.2161e-06
2.28024e-05
-1.78408e-06
2.22895e-05
-1.07473e-06
2.20361e-05
-1.24307e-06
2.18333e-05
-5.96941e-07
2.12829e-05
7.13782e-08
2.08298e-05
4.00535e-07
2.06399e-05
7.25642e-07
2.01823e-05
1.6609e-06
1.99221e-05
1.48818e-06
1.97385e-05
1.75727e-06
1.94046e-05
2.46812e-06
1.89678e-05
1.5327e-06
1.88479e-05
1.61705e-06
1.87721e-05
1.22656e-06
1.8421e-05
2.17979e-06
1.78742e-05
1.00923e-06
1.78881e-05
-2.75856e-07
1.77516e-05
-7.06796e-07
1.76387e-05
-9.64793e-09
1.72102e-05
-1.29685e-07
1.7326e-05
-1.48835e-06
1.77283e-05
-2.6064e-06
1.81266e-05
-4.04512e-06
1.85363e-05
-4.61793e-06
1.91435e-05
-4.97813e-06
1.92285e-05
-4.11866e-06
1.87458e-05
-3.57252e-06
1.76328e-05
-3.95489e-06
1.70404e-05
-3.21211e-06
1.7201e-05
-1.89532e-07
1.82887e-05
5.09065e-06
1.92357e-05
1.19869e-05
2.02314e-05
1.75935e-05
2.07328e-05
2.21525e-05
2.08386e-05
2.46798e-05
2.06282e-05
2.49116e-05
2.06333e-05
2.34069e-05
2.03537e-05
2.18809e-05
2.01037e-05
2.05914e-05
2.00557e-05
1.82781e-05
1.96964e-05
1.57122e-05
1.97111e-05
1.21687e-05
2.02209e-05
8.3567e-06
2.06141e-05
5.20306e-06
2.04296e-05
2.12365e-06
2.0452e-05
-7.1334e-07
2.13839e-05
-5.94075e-06
2.17964e-05
-1.07843e-05
2.15497e-05
-1.32399e-05
2.17739e-05
-1.52023e-05
2.32368e-05
-1.96709e-05
2.47719e-05
-2.44743e-05
2.48106e-05
-2.62692e-05
2.34109e-05
-2.51175e-05
2.09492e-05
-2.19254e-05
1.86202e-05
-1.85598e-05
1.79938e-05
-1.71957e-05
1.83167e-05
-1.66769e-05
1.94735e-05
-1.65185e-05
2.0891e-05
-1.58991e-05
2.20249e-05
-1.45752e-05
2.34581e-05
-1.33224e-05
2.45161e-05
-1.07103e-05
2.56385e-05
-9.06506e-06
2.62019e-05
-5.63921e-06
2.7274e-05
-3.77385e-06
2.73674e-05
-3.44355e-07
2.83058e-05
2.31466e-06
2.83028e-05
5.55257e-06
2.88239e-05
8.53419e-06
2.87093e-05
1.28061e-05
2.84684e-05
1.551e-05
2.83088e-05
1.97889e-05
2.72582e-05
2.39e-05
2.69607e-05
2.6365e-05
2.64286e-05
3.10545e-05
2.55175e-05
3.4752e-05
2.61418e-05
3.7681e-05
2.55205e-05
4.33816e-05
2.87078e-05
3.92249e-05
5.7047e-05
2.64857e-05
2.5241e-05
-3.05046e-08
2.52616e-05
-2.35807e-08
2.53692e-05
-1.11581e-07
2.55314e-05
-2.49237e-07
2.56673e-05
-3.61965e-07
2.57488e-05
-4.15747e-07
2.57843e-05
-4.70619e-07
2.57811e-05
-4.62675e-07
2.57687e-05
-4.65257e-07
2.57672e-05
-4.39448e-07
2.57876e-05
-4.39387e-07
2.58167e-05
-3.96726e-07
2.58559e-05
-4.0237e-07
2.58959e-05
-4.00811e-07
2.59192e-05
-3.96815e-07
2.59419e-05
-4.34986e-07
2.595e-05
-4.37474e-07
2.59542e-05
-4.65626e-07
2.59586e-05
-4.89779e-07
2.59505e-05
-4.56759e-07
2.59399e-05
-4.63909e-07
2.59256e-05
-3.92198e-07
2.5893e-05
-3.38325e-07
2.58762e-05
-2.53232e-07
2.5836e-05
-1.41016e-07
2.58206e-05
-4.87685e-08
2.5802e-05
9.96458e-08
2.57811e-05
2.61005e-07
2.58017e-05
3.54604e-07
2.5841e-05
5.27836e-07
2.59088e-05
6.32204e-07
2.60338e-05
7.33611e-07
2.62196e-05
7.67579e-07
2.64694e-05
7.97411e-07
2.67717e-05
7.57498e-07
2.71902e-05
5.83476e-07
2.76523e-05
3.84361e-07
2.81826e-05
1.29273e-08
2.87465e-05
-4.90045e-07
2.9298e-05
-1.13958e-06
2.98105e-05
-1.92007e-06
3.01952e-05
-2.69368e-06
3.04984e-05
-3.65812e-06
3.06214e-05
-4.4323e-06
3.0578e-05
-5.21365e-06
3.03582e-05
-5.81044e-06
2.99541e-05
-6.23194e-06
2.94234e-05
-6.4464e-06
2.87478e-05
-6.39211e-06
2.80584e-05
-6.14774e-06
2.73414e-05
-5.68281e-06
2.66085e-05
-4.99227e-06
2.58665e-05
-4.21911e-06
2.51512e-05
-3.25071e-06
2.46514e-05
-2.29784e-06
2.43716e-05
-1.17174e-06
2.41292e-05
-2.69242e-08
2.3929e-05
1.28849e-06
2.36801e-05
2.24094e-06
2.34075e-05
3.13673e-06
2.28415e-05
3.85596e-06
2.19976e-05
4.22676e-06
2.0821e-05
4.58587e-06
1.95604e-05
4.55292e-06
1.86249e-05
4.43867e-06
1.8375e-05
4.01465e-06
1.86573e-05
3.76473e-06
1.94347e-05
4.28824e-06
2.04561e-05
4.15204e-06
2.15898e-05
4.4653e-06
2.29895e-05
4.37639e-06
2.42117e-05
4.31573e-06
2.5405e-05
4.22608e-06
2.64888e-05
3.307e-06
2.74194e-05
2.72244e-06
2.82642e-05
1.51016e-06
2.89804e-05
3.00157e-07
2.95831e-05
-1.09568e-06
3.00593e-05
-2.68786e-06
3.0499e-05
-4.23649e-06
3.08881e-05
-6.02498e-06
3.1347e-05
-7.5341e-06
3.21305e-05
-9.49014e-06
3.3382e-05
-1.13031e-05
3.48841e-05
-1.32359e-05
3.64844e-05
-1.51639e-05
3.79039e-05
-1.65088e-05
3.89186e-05
-1.7871e-05
3.94256e-05
-1.83124e-05
3.95576e-05
-1.85456e-05
3.94194e-05
-1.84132e-05
3.92276e-05
-1.78491e-05
3.91194e-05
-1.73784e-05
3.9098e-05
-1.63982e-05
3.91526e-05
-1.53452e-05
3.90359e-05
-1.39662e-05
3.89077e-05
-1.21856e-05
3.86574e-05
-1.05093e-05
3.81822e-05
-8.51798e-06
3.75345e-05
-6.41537e-06
3.66936e-05
-4.54235e-06
3.56773e-05
-2.54371e-06
3.47311e-05
-1.11055e-06
3.35105e-05
3.24852e-07
3.24159e-05