/*--------------------------------*- C++ -*----------------------------------*\
| =========                 |                                                 |
| \\      /  F ield         | OpenFOAM: The Open Source CFD Toolbox           |
|  \\    /   O peration     | Version:  2.4.0                                 |
|   \\  /    A nd           | Web:      www.OpenFOAM.org                      |
|    \\/     M anipulation  |                                                 |
\*---------------------------------------------------------------------------*/
FoamFile
{
    version     2.0;
    format      ascii;
    class       surfaceScalarField;
    location    "1.1";
    object      phi_0;
}
// * * * * * * * * * * * * * * * * * * * * * * * * * * * * * * * * * * * * * //

dimensions      [0 3 -1 0 0 0 0];

internalField   nonuniform List<scalar> 
17320
(
1.76248e-05
7.37515e-06
1.16148e-05
6.01005e-06
8.68216e-06
2.93264e-06
7.35956e-06
1.32261e-06
6.70588e-06
6.53673e-07
6.33174e-06
3.74141e-07
6.09025e-06
2.41491e-07
5.87601e-06
2.14242e-07
5.66408e-06
2.11933e-07
5.60361e-06
6.04645e-08
5.52804e-06
7.55764e-08
5.35065e-06
1.77384e-07
5.27862e-06
7.20307e-08
5.30939e-06
-3.07647e-08
5.12873e-06
1.80655e-07
5.06126e-06
6.74679e-08
4.9737e-06
8.75607e-08
5.07525e-06
-1.01551e-07
4.74359e-06
3.31667e-07
-7.97851e-07
5.54144e-06
2.54302e-05
6.94492e-06
2.32471e-05
8.19316e-06
2.09876e-05
5.1922e-06
1.93159e-05
2.9943e-06
1.80514e-05
1.91819e-06
1.70988e-05
1.32674e-06
1.63802e-05
9.60038e-07
1.57578e-05
8.36641e-07
1.52592e-05
7.10518e-07
1.49791e-05
3.40577e-07
1.46571e-05
3.97554e-07
1.4322e-05
5.12537e-07
1.41455e-05
2.48475e-07
1.40303e-05
8.44199e-08
1.36956e-05
5.15394e-07
1.35639e-05
1.99171e-07
1.33304e-05
3.21016e-07
1.33673e-05
-1.38377e-07
1.32089e-05
4.90081e-07
-8.21766e-07
1.32328e-05
2.65746e-05
5.37033e-06
2.71512e-05
7.61658e-06
2.67933e-05
5.55007e-06
2.62546e-05
3.53295e-06
2.55756e-05
2.59723e-06
2.48439e-05
2.05842e-06
2.41771e-05
1.62687e-06
2.34717e-05
1.54205e-06
2.28749e-05
1.30728e-06
2.25017e-05
7.13786e-07
2.20419e-05
8.57318e-07
2.16075e-05
9.46946e-07
2.13823e-05
4.73696e-07
2.11459e-05
3.2078e-07
2.0754e-05
9.07342e-07
2.0545e-05
4.0814e-07
2.02994e-05
5.66674e-07
2.01546e-05
6.36143e-09
2.01659e-05
4.78809e-07
-8.20082e-07
2.01642e-05
2.6313e-05
4.0573e-06
2.74865e-05
6.44308e-06
2.80892e-05
4.94741e-06
2.84802e-05
3.1419e-06
2.8652e-05
2.42545e-06
2.85655e-05
2.14499e-06
2.84788e-05
1.71356e-06
2.81986e-05
1.8222e-06
2.78878e-05
1.61814e-06
2.77361e-05
8.65433e-07
2.74471e-05
1.14636e-06
2.70797e-05
1.3143e-06
2.69631e-05
5.90277e-07
2.67219e-05
5.61977e-07
2.64119e-05
1.21735e-06
2.61548e-05
6.6524e-07
2.59805e-05
7.4106e-07
2.5704e-05
2.82848e-07
2.5687e-05
4.95818e-07
-4.34082e-07
2.5301e-05
2.61695e-05
2.88781e-06
2.72274e-05
5.38514e-06
2.80383e-05
4.13652e-06
2.85461e-05
2.63415e-06
2.90896e-05
1.88194e-06
2.93189e-05
1.91568e-06
2.95714e-05
1.46104e-06
2.97184e-05
1.67524e-06
2.98017e-05
1.53482e-06
2.9924e-05
7.43105e-07
3.00257e-05
1.04469e-06
2.99058e-05
1.43419e-06
3.00323e-05
4.63749e-07
2.99753e-05
6.19008e-07
2.99348e-05
1.2578e-06
2.97695e-05
8.30537e-07
2.97043e-05
8.06338e-07
2.9444e-05
5.43087e-07
2.93473e-05
5.92589e-07
1.35464e-07
2.87777e-05
2.59701e-05
1.91768e-06
2.70116e-05
4.34366e-06
2.78472e-05
3.30093e-06
2.83106e-05
2.17078e-06
2.88865e-05
1.30605e-06
2.9193e-05
1.60917e-06
2.94733e-05
1.18076e-06
2.97304e-05
1.41805e-06
3.00614e-05
1.20387e-06
3.02086e-05
5.95925e-07
3.05528e-05
7.00485e-07
3.05514e-05
1.43563e-06
3.08194e-05
1.95704e-07
3.094e-05
4.98404e-07
3.12532e-05
9.44569e-07
3.11777e-05
9.06093e-07
3.12587e-05
7.2528e-07
3.09164e-05
8.85444e-07
3.10387e-05
4.70254e-07
9.20861e-07
3.02533e-05
2.56921e-05
1.22562e-06
2.67749e-05
3.26086e-06
2.76346e-05
2.44119e-06
2.80408e-05
1.76452e-06
2.85324e-05
8.14528e-07
2.89656e-05
1.17595e-06
2.93111e-05
8.3522e-07
2.94935e-05
1.2357e-06
2.97865e-05
9.10784e-07
2.99648e-05
4.17686e-07
3.04676e-05
1.97685e-07
3.04698e-05
1.43339e-06
3.05578e-05
1.07762e-07
3.06931e-05
3.63113e-07
3.12457e-05
3.91916e-07
3.13174e-05
8.34391e-07
3.15793e-05
4.63435e-07
3.11652e-05
1.29946e-06
3.1035e-05
6.00456e-07
1.83703e-06
3.01189e-05
2.55474e-05
6.78269e-07
2.65863e-05
2.22188e-06
2.73775e-05
1.65e-06
2.79226e-05
1.2194e-06
2.83427e-05
3.94437e-07
2.88344e-05
6.84296e-07
2.90456e-05
6.24e-07
2.9177e-05
1.10429e-06
2.94518e-05
6.36025e-07
2.99422e-05
-7.26796e-08
3.03453e-05
-2.05447e-07
3.03935e-05
1.38512e-06
3.01105e-05
3.90773e-07
3.0395e-05
7.86166e-08
3.0871e-05
-8.40973e-08
3.12187e-05
4.86721e-07
3.13658e-05
3.16381e-07
3.16696e-05
9.95621e-07
3.18624e-05
4.07658e-07
8.05919e-07
3.28935e-05
2.54896e-05
1.88681e-07
2.64744e-05
1.23703e-06
2.71759e-05
9.48586e-07
2.79484e-05
4.46856e-07
2.84007e-05
-5.78131e-08
2.8628e-05
4.56914e-07
2.86226e-05
6.29401e-07
2.90321e-05
6.94856e-07
2.96124e-05
5.56666e-08
3.00974e-05
-5.57685e-07
3.00273e-05
-1.35306e-07
3.00083e-05
1.40413e-06
2.99241e-05
4.74938e-07
3.04385e-05
-4.3571e-07
3.08834e-05
-5.29028e-07
3.11284e-05
2.41731e-07
3.11362e-05
3.08542e-07
3.14443e-05
6.87562e-07
3.15984e-05
2.53545e-07
3.47941e-08
3.23695e-05
2.54063e-05
-2.17631e-07
2.6428e-05
2.15295e-07
2.72368e-05
1.39812e-07
2.80382e-05
-3.54535e-07
2.82161e-05
-2.35749e-07
2.82837e-05
3.89403e-07
2.86335e-05
2.79564e-07
2.93555e-05
-2.7139e-08
2.98267e-05
-4.155e-07
2.97691e-05
-5.00141e-07
2.94465e-05
1.8732e-07
2.98821e-05
9.68464e-07
3.03525e-05
4.57557e-09
3.06411e-05
-7.24285e-07
3.06664e-05
-5.54364e-07
3.06402e-05
2.67903e-07
3.07202e-05
2.28617e-07
3.12389e-05
1.68869e-07
3.18186e-05
-3.26158e-07
-4.63693e-07
3.23171e-05
2.53544e-05
-5.72003e-07
2.6435e-05
-8.65356e-07
2.7368e-05
-7.9317e-07
2.80098e-05
-9.9634e-07
2.79571e-05
-1.83033e-07
2.82008e-05
1.4567e-07
2.89468e-05
-4.66379e-07
2.95783e-05
-6.58698e-07
2.96073e-05
-4.44499e-07
2.93217e-05
-2.14468e-07
2.93827e-05
1.26229e-07
3.02539e-05
9.73172e-08
3.06719e-05
-4.13439e-07
3.04766e-05
-5.28982e-07
3.01618e-05
-2.39516e-07
3.03808e-05
4.89074e-08
3.09097e-05
-3.00309e-07
3.15998e-05
-5.21239e-07
3.18892e-05
-6.15582e-07
-5.3192e-07
3.19574e-05
2.54212e-05
-9.9319e-07
2.65414e-05
-1.98553e-06
2.73773e-05
-1.62914e-06
2.78715e-05
-1.49048e-06
2.80177e-05
-3.29225e-07
2.84865e-05
-3.23208e-07
2.90965e-05
-1.07634e-06
2.93974e-05
-9.59582e-07
2.93947e-05
-4.41795e-07
2.94547e-05
-2.74451e-07
2.98324e-05
-2.51497e-07
3.03298e-05
-4.00109e-07
3.0409e-05
-4.926e-07
3.03021e-05
-4.22088e-07
3.03114e-05
-2.4883e-07
3.0799e-05
-4.38676e-07
3.13808e-05
-8.82155e-07
3.16864e-05
-8.2685e-07
3.1604e-05
-5.33185e-07
-4.83882e-07
3.1556e-05
2.55625e-05
-1.55569e-06
2.66746e-05
-3.09762e-06
2.73835e-05
-2.33806e-06
2.78203e-05
-1.92729e-06
2.82386e-05
-7.47476e-07
2.88233e-05
-9.07931e-07
2.91592e-05
-1.41226e-06
2.92531e-05
-1.05348e-06
2.94149e-05
-6.03604e-07
2.98122e-05
-6.71759e-07
3.01211e-05
-5.60355e-07
3.02477e-05
-5.26701e-07
3.02203e-05
-4.65267e-07
3.05041e-05
-7.05821e-07
3.08163e-05
-5.61096e-07
3.12168e-05
-8.39117e-07
3.1376e-05
-1.04135e-06
3.14408e-05
-8.91673e-07
3.14998e-05
-5.92147e-07
-7.4275e-07
3.17586e-05
2.57135e-05
-2.26923e-06
2.67544e-05
-4.13844e-06
2.74921e-05
-3.07576e-06
2.79613e-05
-2.39649e-06
2.85361e-05
-1.32235e-06
2.89724e-05
-1.34421e-06
2.92193e-05
-1.65912e-06
2.93683e-05
-1.20255e-06
2.96446e-05
-8.79825e-07
3.00174e-05
-1.04461e-06
3.02293e-05
-7.72288e-07
3.03756e-05
-6.72943e-07
3.05393e-05
-6.28994e-07
3.08963e-05
-1.06281e-06
3.10762e-05
-7.41041e-07
3.12223e-05
-9.85223e-07
3.12322e-05
-1.05124e-06
3.14463e-05
-1.10573e-06
3.17271e-05
-8.72972e-07
-1.14064e-06
3.2125e-05
2.58498e-05
-3.11903e-06
2.68621e-05
-5.15078e-06
2.77547e-05
-3.96831e-06
2.8297e-05
-2.93879e-06
2.87972e-05
-1.8225e-06
2.9115e-05
-1.66208e-06
2.93977e-05
-1.94176e-06
2.96129e-05
-1.41782e-06
2.98877e-05
-1.1546e-06
3.01661e-05
-1.32303e-06
3.04038e-05
-1.00991e-06
3.06052e-05
-8.74354e-07
3.07974e-05
-8.21178e-07
3.09345e-05
-1.19992e-06
3.09755e-05
-7.82078e-07
3.10157e-05
-1.02543e-06
3.10424e-05
-1.07793e-06
3.12794e-05
-1.34269e-06
3.15009e-05
-1.09446e-06
-1.46577e-06
3.1826e-05
2.59887e-05
-4.10773e-06
2.7154e-05
-6.31612e-06
2.80993e-05
-4.91353e-06
2.85697e-05
-3.40927e-06
2.89924e-05
-2.24514e-06
2.93112e-05
-1.98089e-06
2.95102e-05
-2.14081e-06
2.96642e-05
-1.57174e-06
2.98256e-05
-1.31608e-06
2.99063e-05
-1.4037e-06
2.99828e-05
-1.08639e-06
3.00083e-05
-8.99843e-07
3.00125e-05
-8.25396e-07
2.98937e-05
-1.08111e-06
2.9835e-05
-7.23371e-07
2.97239e-05
-9.14398e-07
2.96101e-05
-9.64105e-07
2.95698e-05
-1.30242e-06
2.95223e-05
-1.04687e-06
-1.50986e-06
2.95663e-05
2.62474e-05
-5.35516e-06
2.75357e-05
-7.60436e-06
2.81611e-05
-5.53892e-06
2.84345e-05
-3.68272e-06
2.86316e-05
-2.44223e-06
2.86321e-05
-1.98139e-06
2.84004e-05
-1.9091e-06
2.82166e-05
-1.38799e-06
2.79847e-05
-1.08415e-06
2.76722e-05
-1.09121e-06
2.74267e-05
-8.40866e-07
2.71788e-05
-6.5195e-07
2.69282e-05
-5.74768e-07
2.66067e-05
-7.59656e-07
2.64018e-05
-5.18435e-07
2.61167e-05
-6.29302e-07
2.58396e-05
-6.8705e-07
2.55106e-05
-9.73426e-07
2.52813e-05
-8.17558e-07
-1.33072e-06
2.51022e-05
2.65759e-05
-6.93105e-06
2.71744e-05
-8.20287e-06
2.68099e-05
-5.17445e-06
2.62011e-05
-3.07388e-06
2.56009e-05
-1.84205e-06
2.489e-05
-1.27043e-06
2.40998e-05
-1.11892e-06
2.3498e-05
-7.86187e-07
2.29502e-05
-5.36357e-07
2.24229e-05
-5.63885e-07
2.20174e-05
-4.35423e-07
2.16726e-05
-3.07119e-07
2.1363e-05
-2.65145e-07
2.10137e-05
-4.10439e-07
2.07687e-05
-2.73372e-07
2.04638e-05
-3.24397e-07
2.01611e-05
-3.84394e-07
1.97348e-05
-5.47116e-07
1.93778e-05
-4.60586e-07
-4.7139e-07
1.85185e-05
2.54394e-05
-7.37048e-06
2.32535e-05
-6.01698e-06
2.09995e-05
-2.92046e-06
1.92797e-05
-1.35401e-06
1.80705e-05
-6.3287e-07
1.71344e-05
-3.34335e-07
1.63259e-05
-3.10441e-07
1.57584e-05
-2.18675e-07
1.53293e-05
-1.07218e-07
1.49199e-05
-1.54486e-07
1.46081e-05
-1.23633e-07
1.43705e-05
-6.95187e-08
1.41624e-05
-5.70489e-08
1.38907e-05
-1.38711e-07
1.37008e-05
-8.35497e-08
1.34711e-05
-9.46882e-08
1.32138e-05
-1.27035e-07
1.28614e-05
-1.94793e-07
1.25988e-05
-1.97949e-07
-7.45176e-08
1.22019e-05
1.76295e-05
1.16125e-05
8.69209e-06
7.33808e-06
6.70521e-06
6.37087e-06
6.06043e-06
5.84176e-06
5.73454e-06
5.58005e-06
5.45642e-06
5.3869e-06
5.32985e-06
5.19114e-06
5.10759e-06
5.0129e-06
4.88587e-06
4.69107e-06
4.49312e-06
4.41861e-06
5.95028e-06
-2.33657e-07
-1.75183e-07
6.29796e-06
-1.10364e-08
-3.36648e-07
6.52929e-06
1.12355e-07
-3.43685e-07
6.79957e-06
1.13588e-07
-3.83863e-07
7.11949e-06
1.12892e-08
-3.31212e-07
7.3933e-06
-9.56876e-08
-1.7812e-07
7.60583e-06
-2.3924e-07
2.67124e-08
7.78334e-06
-3.00113e-07
1.22594e-07
7.92106e-06
-3.35938e-07
1.98225e-07
8.0503e-06
-2.89071e-07
1.59832e-07
8.1748e-06
-2.62844e-07
1.38339e-07
8.29796e-06
-2.11834e-07
8.86796e-08
8.41763e-06
-2.13278e-07
9.36026e-08
8.54029e-06
-2.14194e-07
9.15331e-08
8.65579e-06
-2.58874e-07
1.4338e-07
8.76397e-06
-2.80438e-07
1.72256e-07
8.86114e-06
-3.39876e-07
2.4271e-07
8.94019e-06
-3.65741e-07
2.86688e-07
9.00385e-06
-4.19437e-07
3.55772e-07
9.05815e-06
-4.17256e-07
3.62955e-07
9.08678e-06
-4.4448e-07
4.15853e-07
9.11253e-06
-4.02495e-07
3.76749e-07
9.11251e-06
-3.99543e-07
3.99562e-07
9.11631e-06
-3.21748e-07
3.17947e-07
9.10733e-06
-2.67984e-07
2.76968e-07
9.10359e-06
-1.41991e-07
1.45726e-07
9.11309e-06
-3.17149e-08
2.22217e-08
9.1406e-06
1.62944e-07
-1.90457e-07
9.21245e-06
3.37308e-07
-4.09155e-07
9.36448e-06
6.14704e-07
-7.6674e-07
9.57694e-06
8.59182e-07
-1.07164e-06
9.83318e-06
1.14746e-06
-1.4037e-06
1.01628e-05
1.37313e-06
-1.70277e-06
1.0549e-05
1.66954e-06
-2.0557e-06
1.10688e-05
1.86092e-06
-2.38072e-06
1.17118e-05
2.06463e-06
-2.70761e-06
1.25092e-05
2.10067e-06
-2.89807e-06
1.34032e-05
2.00051e-06
-2.89451e-06
1.43554e-05
1.60664e-06
-2.55885e-06
1.5335e-05
9.74477e-07
-1.9541e-06
1.62373e-05
4.84619e-08
-9.50751e-07
1.7069e-05
-1.0337e-06
2.02043e-07
1.77691e-05
-2.28053e-06
1.58038e-06
1.83673e-05
-3.46749e-06
2.86931e-06
1.88549e-05
-4.68255e-06
4.19494e-06
1.91645e-05
-5.72576e-06
5.41618e-06
1.93433e-05
-6.56823e-06
6.38941e-06
1.94279e-05
-7.21033e-06
7.12569e-06
1.94324e-05
-7.64142e-06
7.63692e-06
1.9234e-05
-7.60662e-06
7.80507e-06
1.87857e-05
-7.25178e-06
7.70005e-06
1.81957e-05
-6.6304e-06
7.22044e-06
1.78158e-05
-6.03068e-06
6.41056e-06
1.77222e-05
-5.28993e-06
5.38352e-06
1.72936e-05
-4.05696e-06
4.48559e-06
1.61622e-05
-2.49498e-06
3.62641e-06
1.44374e-05
-1.1195e-06
2.84427e-06
1.27288e-05
-3.96034e-07
2.10468e-06
1.15965e-05
7.99833e-09
1.1243e-06
1.134e-05
3.47708e-07
-9.12198e-08
1.17786e-05
1.00836e-06
-1.44704e-06
1.24849e-05
1.98934e-06
-2.69563e-06
1.33947e-05
2.98886e-06
-3.89866e-06
1.44236e-05
3.97121e-06
-5.00012e-06
1.53877e-05
4.93525e-06
-5.89934e-06
1.6265e-05
5.78313e-06
-6.66039e-06
1.71034e-05
6.38097e-06
-7.2194e-06
1.77714e-05
7.06229e-06
-7.73029e-06
1.85847e-05
7.35545e-06
-8.16874e-06
1.93689e-05
7.7983e-06
-8.58252e-06
2.02454e-05
7.98117e-06
-8.85769e-06
2.12605e-05
7.69607e-06
-8.7111e-06
2.21982e-05
7.38924e-06
-8.32699e-06
2.3179e-05
6.28836e-06
-7.26915e-06
2.40342e-05
5.23503e-06
-6.0902e-06
2.48329e-05
3.94754e-06
-4.74629e-06
2.55715e-05
2.28229e-06
-3.02081e-06
2.61878e-05
4.54762e-07
-1.07114e-06
2.65504e-05
-1.54648e-06
1.18392e-06
2.68615e-05
-3.11959e-06
2.80851e-06
2.73468e-05
-4.96429e-06
4.47898e-06
2.77668e-05
-6.76026e-06
6.34026e-06
2.81009e-05
-8.58143e-06
8.24733e-06
2.81763e-05
-9.56922e-06
9.49387e-06
2.83613e-05
-1.04038e-05
1.02188e-05
2.89104e-05
-1.12709e-05
1.07218e-05
2.99203e-05
-1.21242e-05
1.11143e-05
3.14837e-05
-1.36181e-05
1.20547e-05
3.32514e-05
-1.48949e-05
1.31272e-05
3.49612e-05
-1.6307e-05
1.45973e-05
3.64651e-05
-1.71557e-05
1.56517e-05
3.7528e-05
-1.75219e-05
1.64591e-05
3.81237e-05
-1.74733e-05
1.68776e-05
3.82982e-05
-1.67363e-05
1.65618e-05
3.81022e-05
-1.5708e-05
1.5904e-05
3.77555e-05
-1.45094e-05
1.48561e-05
3.71768e-05
-1.28544e-05
1.34332e-05
3.65647e-05
-1.1314e-05
1.19261e-05
3.59539e-05
-9.72713e-06
1.0338e-05
3.51938e-05
-8.14119e-06
8.90132e-06
3.44772e-05
-6.64854e-06
7.3651e-06
3.35341e-05
-5.01395e-06
5.95705e-06
3.26812e-05
-4.17403e-06
5.02695e-06
3.18071e-05
-2.9347e-06
3.80872e-06
3.06799e-05
-1.96042e-06
3.08767e-06
2.98101e-05
-1.49611e-06
2.3659e-06
2.86462e-05
-8.60422e-07
2.02437e-06
2.77118e-05
-8.64614e-07
1.79897e-06
2.68493e-05
-7.80437e-07
1.64298e-06
2.59105e-05
-7.94809e-07
1.73356e-06
2.55869e-05
-1.42823e-06
1.75187e-06
2.49844e-05
-1.19937e-06
1.8018e-06
2.44841e-05
-1.83094e-06
2.3313e-06
2.40433e-05
-1.84892e-06
2.28965e-06
2.33445e-05
-1.99289e-06
2.69175e-06
2.30435e-05
-2.65134e-06
2.95233e-06
2.27348e-05
-2.54485e-06
2.85357e-06
2.23483e-05
-2.84005e-06
3.22654e-06
2.21804e-05
-3.0453e-06
3.21318e-06
2.17327e-05
-2.11842e-06
2.56616e-06
2.14065e-05
-2.41096e-06
2.73718e-06
2.10706e-05
-1.78606e-06
2.12187e-06
2.05606e-05
-1.29298e-06
1.80303e-06
1.99432e-05
-9.85445e-07
1.60283e-06
1.94782e-05
-2.84234e-07
7.49198e-07
1.86692e-05
4.81187e-07
3.27903e-07
1.80103e-05
5.32566e-07
1.26299e-07
1.798e-05
9.79541e-07
-9.49266e-07
1.80906e-05
1.41838e-06
-1.52898e-06
1.76082e-05
1.75424e-06
-1.27178e-06
1.73307e-05
7.876e-07
-5.10166e-07
1.69377e-05
1.42154e-06
-1.02853e-06
1.68024e-05
1.11143e-06
-9.76133e-07
1.60583e-05
1.08766e-06
-3.4352e-07
1.60872e-05
-3.23539e-07
2.94591e-07
1.62669e-05
-2.73968e-07
9.43282e-08
1.67376e-05
-6.40937e-07
1.70232e-07
1.69325e-05
-6.4054e-08
-1.30865e-07
1.72995e-05
-8.57077e-07
4.9009e-07
1.73953e-05
-1.2577e-06
1.16188e-06
1.73234e-05
-2.34287e-06
2.41476e-06
1.76514e-05
-3.47572e-06
3.14773e-06
1.8502e-05
-3.75661e-06
2.90602e-06
1.9239e-05
-3.68091e-06
2.9439e-06
1.94863e-05
-4.11294e-06
3.86561e-06
1.87889e-05
-5.10968e-06
5.80707e-06
1.83983e-05
-6.09161e-06
6.48218e-06
1.85603e-05
-3.43349e-06
3.27156e-06
1.95755e-05
1.79463e-06
-2.80983e-06
2.05016e-05
8.67941e-06
-9.60559e-06
2.11899e-05
1.50758e-05
-1.57641e-05
2.14679e-05
2.02216e-05
-2.04996e-05
2.13431e-05
2.33385e-05
-2.32137e-05
2.08677e-05
2.483e-05
-2.43546e-05
2.04658e-05
2.42167e-05
-2.38148e-05
2.02546e-05
2.30551e-05
-2.28438e-05
1.98221e-05
2.10645e-05
-2.0632e-05
1.94311e-05
1.97303e-05
-1.93394e-05
1.90753e-05
1.74872e-05
-1.71314e-05
1.8508e-05
1.43535e-05
-1.37862e-05
1.81621e-05
1.15463e-05
-1.12004e-05
1.85366e-05
8.69485e-06
-9.06934e-06
1.92133e-05
5.40048e-06
-6.0772e-06
1.94218e-05
1.27586e-06
-1.48433e-06
1.89028e-05
-1.52575e-06
2.04479e-06
1.91818e-05
-5.37883e-06
5.09976e-06
1.997e-05
-1.05413e-05
9.75312e-06
2.02999e-05
-1.38666e-05
1.35367e-05
2.03896e-05
-1.52446e-05
1.51549e-05
2.13171e-05
-1.76866e-05
1.67591e-05
2.30289e-05
-2.16981e-05
1.99863e-05
2.49254e-05
-2.52205e-05
2.33241e-05
2.57826e-05
-2.69134e-05
2.60562e-05
2.50385e-05
-2.57559e-05
2.65e-05
2.33471e-05
-2.30175e-05
2.47089e-05
2.12906e-05
-1.92661e-05
2.13225e-05
2.01629e-05
-1.63389e-05
1.74666e-05
1.99896e-05
-1.45825e-05
1.47558e-05
2.08216e-05
-1.26792e-05
1.18472e-05
2.21296e-05
-1.18268e-05
1.05187e-05
2.36933e-05
-1.00134e-05
8.44965e-06
2.53788e-05
-8.34381e-06
6.65833e-06
2.68163e-05
-6.30185e-06
4.86433e-06
2.83331e-05
-4.31686e-06
2.80003e-06
2.89047e-05
-1.65661e-06
1.085e-06
3.00152e-05
3.43215e-07
-1.45365e-06
3.0177e-05
3.68212e-06
-3.84397e-06
3.0397e-05
5.67144e-06
-5.89141e-06
3.03657e-05
9.53452e-06
-9.5032e-06
2.97917e-05
1.21946e-05
-1.16206e-05
2.91474e-05
1.55189e-05
-1.48746e-05
2.79229e-05
1.91969e-05
-1.79723e-05
2.71111e-05
2.21121e-05
-2.13003e-05
2.55088e-05
2.57842e-05
-2.41819e-05
2.38135e-05
2.94643e-05
-2.7769e-05
2.25947e-05
3.32106e-05
-3.19918e-05
2.00719e-05
3.77961e-05
-3.52733e-05
1.71553e-05
4.08159e-05
-3.78993e-05
1.64964e-05
4.44268e-05
-4.37678e-05
5.22608e-05
-5.26649e-05
1.69004e-05
1.33052e-05
-3.06095e-07
1.33769e-05
-8.27005e-08
1.34652e-05
2.40284e-08
1.35646e-05
1.41535e-08
1.3685e-05
-1.09028e-07
1.38277e-05
-2.38462e-07
1.39564e-05
-3.67947e-07
1.40669e-05
-4.10562e-07
1.41636e-05
-4.32602e-07
1.42572e-05
-3.82736e-07
1.43485e-05
-3.54131e-07
1.44369e-05
-3.0026e-07
1.45278e-05
-3.04116e-07
1.46133e-05
-2.99723e-07
1.46911e-05
-3.36705e-07
1.47732e-05
-3.62541e-07
1.48378e-05
-4.0444e-07
1.49021e-05
-4.30088e-07
1.49461e-05
-4.63364e-07
1.49843e-05
-4.55496e-07
1.50006e-05
-4.60783e-07
1.50094e-05
-4.11333e-07
1.49884e-05
-3.78535e-07
1.49551e-05
-2.88452e-07
1.49001e-05
-2.1293e-07
1.48448e-05
-8.67372e-08
1.47745e-05
3.86005e-08
1.47224e-05
2.15036e-07
1.46923e-05
3.67442e-07
1.47173e-05
5.89702e-07
1.48146e-05
7.61924e-07
1.49727e-05
9.89323e-07
1.52171e-05
1.12872e-06
1.55706e-05
1.31603e-06
1.60246e-05
1.40692e-06
1.66284e-05
1.46084e-06
1.73557e-05
1.37337e-06
1.82016e-05
1.15457e-06
1.90987e-05
7.0958e-07
2.00145e-05
5.86639e-08
2.08908e-05
-8.27824e-07
2.16719e-05
-1.81486e-06
2.23367e-05
-2.9453e-06
2.289e-05
-4.0208e-06
2.32989e-05
-5.09145e-06
2.3574e-05
-6.00084e-06
2.37401e-05
-6.73429e-06
2.37688e-05
-7.2391e-06
2.36035e-05
-7.47608e-06
2.32576e-05
-7.26074e-06
2.28941e-05
-6.88823e-06
2.25067e-05
-6.243e-06
2.1797e-05
-5.32099e-06
2.07574e-05
-4.25037e-06
1.99334e-05
-3.23291e-06
1.94795e-05
-2.04112e-06
1.89335e-05
-5.73493e-07
1.76933e-05
8.44164e-07
1.61206e-05
1.58072e-06
1.46498e-05
1.81852e-06
1.39298e-05
1.72833e-06
1.38836e-05
2.03556e-06
1.42804e-05
2.59203e-06
1.50479e-05
3.20371e-06
1.59894e-05
3.99371e-06
1.70765e-05
4.69608e-06
1.82311e-05
5.22636e-06
1.91025e-05
6.19089e-06
2.00829e-05
6.37503e-06
2.10492e-05
6.83199e-06
2.20466e-05
6.9838e-06
2.30876e-05
6.65509e-06
2.40282e-05
6.44859e-06
2.50012e-05
5.31537e-06
2.58333e-05
4.40289e-06
2.66802e-05
3.10069e-06
2.73625e-05
1.59993e-06
2.79374e-05
-1.20127e-07
2.8317e-05
-1.92607e-06
2.8721e-05
-3.52354e-06
2.92381e-05
-5.4814e-06
2.95581e-05
-7.08024e-06
2.96754e-05
-8.69881e-06
2.97898e-05
-9.68356e-06
3.02638e-05
-1.08778e-05
3.12463e-05
-1.22533e-05
3.27288e-05
-1.36067e-05
3.4505e-05
-1.53944e-05
3.62502e-05
-1.66401e-05
3.76442e-05
-1.7701e-05
3.86326e-05
-1.81441e-05
3.90923e-05
-1.79817e-05
3.91434e-05
-1.75244e-05
3.8904e-05
-1.64969e-05
3.84746e-05
-1.52786e-05
3.80086e-05
-1.40435e-05
3.74522e-05
-1.22981e-05
3.69303e-05
-1.07921e-05
3.63212e-05
-9.118e-06
3.55723e-05
-7.39233e-06
3.48156e-05
-5.89185e-06
3.40383e-05
-4.23664e-06
3.2979e-05
-3.11473e-06
3.18708e-05
-1.82655e-06
3.05237e-05
-6.13316e-07
2.96268e-05
-5.9921e-07
2.85716e-05
1.94779e-07
2.79047e-05
-1.97636e-07
2.72146e-05
-9.03411e-08
2.63881e-05
3.1685e-08
2.57126e-05
-7.52779e-07
2.50545e-05
-5.41293e-07
2.41781e-05
-9.54466e-07
2.38631e-05
-1.53391e-06
2.32839e-05
-1.41368e-06
2.31861e-05
-2.55363e-06
2.30191e-05
-2.37784e-06
2.27813e-05
-2.60219e-06
2.24628e-05
-2.72681e-06
2.22009e-05
-1.85658e-06
2.14683e-05
-1.67835e-06
2.12049e-05
-1.5226e-06
2.07136e-05
-8.01672e-07
2.02504e-05
-5.22323e-07
2.00181e-05
-5.1857e-08
1.99266e-05
5.7263e-07
1.92845e-05
1.17473e-06
1.9093e-05
1.171e-06
1.89165e-05
1.5949e-06
1.86645e-05
2.0062e-06
1.8484e-05
9.68158e-07
1.84285e-05
1.47706e-06
1.83703e-05
1.16957e-06
1.77147e-05
1.74324e-06
1.71745e-05
2.16672e-07
1.72927e-05
-3.9218e-07
1.74704e-05
-8.18598e-07
1.75045e-05
-9.81178e-08
1.73542e-05
-7.06855e-07
1.766e-05
-1.56345e-06
1.77911e-05
-2.47398e-06
1.82096e-05
-3.89422e-06
1.87827e-05
-4.3297e-06
1.95042e-05
-4.40238e-06
1.95027e-05
-4.11149e-06
1.87185e-05
-4.32545e-06
1.77761e-05
-5.14922e-06
1.75727e-05
-3.23008e-06
1.82888e-05
1.07855e-06
1.94256e-05
7.5426e-06
2.02977e-05
1.42037e-05
2.09931e-05
1.95262e-05
2.10377e-05
2.32939e-05
2.08555e-05
2.50122e-05
2.04786e-05
2.45936e-05
2.04633e-05
2.30704e-05
2.01373e-05
2.13904e-05
1.97658e-05
2.01018e-05
1.9482e-05
1.7771e-05
1.90022e-05
1.48333e-05
1.9003e-05
1.15456e-05
1.95045e-05
8.1933e-06
1.99761e-05
4.92893e-06
1.98792e-05
1.37279e-06
1.97378e-05
-1.38444e-06
2.03631e-05
-6.00411e-06
2.09995e-05
-1.11777e-05
2.10301e-05
-1.38972e-05
2.12188e-05
-1.54333e-05
2.24144e-05
-1.88822e-05
2.42047e-05
-2.34885e-05
2.54325e-05
-2.64483e-05
2.49686e-05
-2.64495e-05
2.3337e-05
-2.41243e-05
2.09175e-05
-2.0598e-05
1.91973e-05
-1.75459e-05
1.899e-05
-1.61315e-05
1.95452e-05
-1.51378e-05
2.11389e-05
-1.42729e-05
2.25941e-05
-1.32819e-05
2.42507e-05
-1.167e-05
2.548e-05
-9.5731e-06
2.70107e-05
-7.83257e-06
2.7683e-05
-4.98916e-06
2.87069e-05
-2.68053e-06
2.91811e-05
-1.3091e-07
2.95786e-05
3.28453e-06
2.96057e-05
5.64438e-06
2.98487e-05
9.29155e-06
2.92078e-05
1.28355e-05
2.92277e-05
1.5499e-05
2.84218e-05
2.00028e-05
2.74105e-05
2.31234e-05
2.68421e-05
2.63525e-05
2.53205e-05
3.09859e-05
2.43362e-05
3.41949e-05
2.35972e-05
3.85351e-05
2.14063e-05
4.30067e-05
2.32571e-05
4.2576e-05
5.48642e-05
2.06537e-05
1.9962e-05
-1.0386e-07
1.9892e-05
-1.27402e-08
1.99243e-05
-8.24739e-09
2.0025e-05
-8.65505e-08
2.01364e-05
-2.2041e-07
2.02298e-05
-3.31898e-07
2.02965e-05
-4.34594e-07
2.0352e-05
-4.66117e-07
2.03978e-05
-4.78422e-07
2.04555e-05
-4.40437e-07
2.05172e-05
-4.15833e-07
2.05807e-05
-3.6376e-07
2.06391e-05
-3.62426e-07
2.0697e-05
-3.57707e-07
2.07355e-05
-3.75116e-07
2.07867e-05
-4.13757e-07
2.08128e-05
-4.30602e-07
2.08483e-05
-4.65526e-07
2.08678e-05
-4.82875e-07
2.08761e-05
-4.63787e-07
2.08838e-05
-4.68505e-07
2.08692e-05
-3.96768e-07
2.08509e-05
-3.6017e-07
2.08158e-05
-2.53373e-07
2.07694e-05
-1.66561e-07
2.07279e-05
-4.5183e-08
2.06636e-05
1.02867e-07
2.0623e-05
2.55634e-07
2.05963e-05
3.94122e-07
2.06034e-05
5.82596e-07
2.06567e-05
7.08657e-07
2.07826e-05
8.6342e-07
2.09603e-05
9.50995e-07
2.124e-05
1.03634e-06
2.16146e-05
1.03229e-06
2.21148e-05
9.6069e-07
2.27022e-05
7.85997e-07
2.33961e-05
4.60607e-07
2.41438e-05
-3.80614e-08
2.4911e-05
-7.08596e-07
2.56155e-05
-1.53225e-06
2.62445e-05
-2.44386e-06
2.67739e-05
-3.4747e-06
2.7159e-05
-4.40592e-06
2.73988e-05
-5.33129e-06
2.74655e-05
-6.06755e-06
2.73662e-05
-6.63495e-06
2.7061e-05
-6.93391e-06
2.65686e-05
-6.98368e-06
2.60246e-05
-6.71671e-06
2.53957e-05
-6.25939e-06
2.47297e-05
-5.57697e-06
2.42047e-05
-4.79598e-06
2.37244e-05
-3.7701e-06
2.3075e-05
-2.58351e-06
2.22952e-05
-1.26126e-06
2.1784e-05
-6.23247e-08
2.14028e-05
1.22533e-06
2.08871e-05
2.0965e-06
1.97774e-05
2.92823e-06
1.82251e-05
3.28056e-06
1.69138e-05
3.34692e-06
1.61395e-05
3.36629e-06
1.60683e-05
3.27493e-06
1.65396e-05
3.52235e-06
1.74565e-05
3.77925e-06
1.85261e-05
4.15672e-06
1.95631e-05
5.15387e-06
2.07282e-05
5.20993e-06
2.18883e-05
5.67195e-06
2.30787e-05
5.79334e-06
2.41613e-05
5.57256e-06
2.52294e-05
5.38041e-06
2.62205e-05
4.3243e-06
2.70364e-05
3.58698e-06
2.79102e-05
2.22692e-06
2.86191e-05
8.91013e-07
2.91665e-05
-6.67588e-07
2.96298e-05
-2.3893e-06
3.01118e-05
-4.00556e-06
3.04587e-05
-5.82835e-06
3.06281e-05
-7.24963e-06
3.08075e-05
-8.87813e-06
3.13557e-05
-1.02318e-05
3.24652e-05
-1.19873e-05
3.39873e-05
-1.37754e-05
3.5707e-05
-1.53265e-05
3.73383e-05
-1.70257e-05
3.85552e-05
-1.7857e-05
3.92725e-05
-1.84183e-05
3.95534e-05
-1.8425e-05
3.94447e-05
-1.78729e-05
3.91793e-05
-1.72591e-05
3.88174e-05
-1.61349e-05
3.85601e-05
-1.50213e-05
3.82513e-05
-1.37346e-05
3.79061e-05
-1.19529e-05
3.75624e-05
-1.04485e-05
3.708e-05
-8.63558e-06
3.64412e-05
-6.75355e-06
3.56479e-05
-5.09848e-06
3.47174e-05
-3.30623e-06
3.35167e-05
-1.91403e-06
3.24501e-05
-7.59877e-07
3.15152e-05
3.21577e-07
3.05621e-05
3.53886e-07
2.95448e-05
1.21203e-06
2.8549e-05
7.98237e-07
2.75237e-05
9.3491e-07
2.66858e-05
8.69548e-07
2.58383e-05
9.47969e-08
2.51132e-05
1.83792e-07
2.45125e-05
-3.53769e-07
2.43258e-05
-1.34718e-06
2.40361e-05
-1.12405e-06
2.37615e-05
-2.27902e-06
2.36342e-05
-2.25049e-06
2.33211e-05
-2.28906e-06
2.28695e-05
-2.27529e-06
2.27626e-05
-1.7497e-06
2.22383e-05
-1.15399e-06
2.20485e-05
-1.33277e-06
2.18153e-05
-5.68508e-07
2.12525e-05
4.04592e-08
2.08633e-05
3.37313e-07
2.06775e-05
7.58434e-07
2.0219e-05
1.63329e-06
1.99932e-05
1.39675e-06
1.97886e-05
1.79947e-06
1.94162e-05
2.37861e-06
1.89962e-05
1.38822e-06
1.8905e-05
1.56824e-06
1.87835e-05
1.29103e-06
1.83739e-05
2.15282e-06
1.78561e-05
7.34526e-07
1.79044e-05
-4.40449e-07
1.77327e-05
-6.46922e-07
1.75697e-05
6.48303e-08
1.71599e-05
-2.97009e-07
1.73429e-05
-1.74644e-06
1.77422e-05
-2.8733e-06
1.81269e-05
-4.27896e-06
1.85497e-05
-4.75249e-06
1.91102e-05
-4.96282e-06
1.90445e-05
-4.04583e-06
1.84015e-05
-3.68245e-06
1.7271e-05
-4.01869e-06
1.68233e-05
-2.78246e-06
1.71643e-05
7.37583e-07
1.83251e-05
6.38177e-06
1.92693e-05
1.32596e-05
2.02318e-05
1.85636e-05
2.06883e-05
2.28374e-05
2.07379e-05
2.49626e-05
2.05652e-05
2.47664e-05
2.0527e-05
2.31085e-05
2.01647e-05
2.17527e-05
1.99692e-05
2.02973e-05
1.99317e-05
1.78085e-05
1.96258e-05
1.51392e-05
1.97731e-05
1.13983e-05
2.03053e-05
7.66112e-06
2.05972e-05
4.63701e-06
2.0385e-05
1.58493e-06
2.05628e-05
-1.56217e-06
2.15349e-05
-6.97623e-06
2.18282e-05
-1.14711e-05
2.15905e-05
-1.36594e-05
2.19864e-05
-1.58292e-05
2.35375e-05
-2.04333e-05
2.49982e-05
-2.49492e-05
2.48978e-05
-2.63479e-05
2.33712e-05
-2.4923e-05
2.08861e-05
-2.16392e-05
1.86334e-05
-1.83453e-05
1.81073e-05
-1.70197e-05
1.85074e-05
-1.65317e-05
1.97286e-05
-1.63589e-05
2.1162e-05
-1.57063e-05
2.22975e-05
-1.44175e-05
2.37585e-05
-1.31309e-05
2.4748e-05
-1.05626e-05
2.58428e-05
-8.92734e-06
2.63439e-05
-5.49024e-06
2.73588e-05
-3.69547e-06
2.74173e-05
-1.8937e-07
2.83122e-05
2.38956e-06
2.82457e-05
5.71097e-06
2.87281e-05
8.80915e-06
2.8562e-05
1.30015e-05
2.82651e-05
1.57959e-05
2.80885e-05
2.01793e-05
2.70279e-05
2.41841e-05
2.67432e-05
2.66372e-05
2.62235e-05
3.15056e-05
2.52216e-05
3.51968e-05
2.58136e-05
3.79431e-05
2.52784e-05
4.3542e-05
2.84879e-05
3.93664e-05
5.70335e-05
2.63187e-05
2.52387e-05
-4.16133e-08
2.52652e-05
-3.92318e-08
2.53745e-05
-1.17576e-07
2.55362e-05
-2.48243e-07
2.56679e-05
-3.52057e-07
2.57469e-05
-4.10939e-07
2.57808e-05
-4.68483e-07
2.57769e-05
-4.6218e-07
2.57655e-05
-4.6702e-07
2.57661e-05
-4.41071e-07
2.57877e-05
-4.37433e-07
2.58172e-05
-3.93276e-07
2.58569e-05
-4.02102e-07
2.5894e-05
-3.94839e-07
2.5915e-05
-3.96067e-07
2.59357e-05
-4.34507e-07
2.59423e-05
-4.37154e-07
2.59481e-05
-4.7137e-07
2.59524e-05
-4.87142e-07
2.59442e-05
-4.55608e-07
2.59346e-05
-4.58849e-07
2.59185e-05
-3.80757e-07
2.58878e-05
-3.29467e-07
2.58716e-05
-2.3716e-07
2.58333e-05
-1.2825e-07
2.58232e-05
-3.50344e-08
2.5803e-05
1.23052e-07
2.57875e-05
2.71085e-07
2.58144e-05
3.67292e-07
2.58555e-05
5.41471e-07
2.59316e-05
6.32521e-07
2.60676e-05
7.27478e-07
2.62628e-05
7.55712e-07
2.65183e-05
7.80921e-07
2.68339e-05
7.1665e-07
2.72616e-05
5.32972e-07
2.77229e-05
3.24676e-07
2.82587e-05
-7.51736e-08
2.88113e-05
-5.90662e-07
2.93555e-05
-1.25282e-06
2.98463e-05
-2.02302e-06
3.02109e-05
-2.80849e-06
3.04929e-05
-3.75667e-06
3.05871e-05
-4.5001e-06
3.05232e-05
-5.26738e-06
3.02796e-05
-5.82393e-06
2.98585e-05
-6.21385e-06
2.93131e-05
-6.38853e-06
2.86376e-05
-6.30819e-06
2.79609e-05
-6.03998e-06
2.72462e-05
-5.54473e-06
2.65094e-05
-4.84022e-06
2.57693e-05
-4.0558e-06
2.50844e-05
-3.08522e-06
2.463e-05
-2.12907e-06
2.43591e-05
-9.90358e-07
2.41197e-05
1.7698e-07
2.38972e-05
1.44788e-06
2.36345e-05
2.35919e-06
2.33202e-05
3.24257e-06
2.26911e-05
3.9096e-06
2.17778e-05
4.26024e-06
2.05566e-05
4.5875e-06
1.93174e-05
4.51417e-06
1.84687e-05
4.37104e-06
1.83144e-05
3.93347e-06
1.86619e-05
3.80923e-06
1.9491e-05
4.32484e-06
2.05329e-05
4.16803e-06
2.1702e-05
4.50283e-06
2.31097e-05
4.38564e-06
2.43122e-05
4.37004e-06
2.5504e-05
4.18865e-06
2.65671e-05
3.26121e-06
2.74887e-05
2.66539e-06
2.83284e-05
1.38717e-06
2.90418e-05
1.77617e-07
2.96367e-05
-1.26245e-06
3.01099e-05
-2.86251e-06
3.05486e-05
-4.4443e-06
3.09403e-05
-6.22e-06
3.14469e-05
-7.75621e-06
3.23229e-05
-9.75416e-06
3.36393e-05
-1.15482e-05
3.51721e-05
-1.35201e-05
3.67583e-05
-1.53617e-05
3.81075e-05
-1.66757e-05
3.90308e-05
-1.79489e-05
3.94475e-05
-1.82738e-05
3.9513e-05
-1.84838e-05
3.93354e-05
-1.82474e-05
3.913e-05
-1.76676e-05
3.90249e-05
-1.7154e-05
3.90049e-05
-1.61149e-05
3.90314e-05
-1.50478e-05
3.88941e-05
-1.35973e-05
3.87672e-05
-1.1826e-05
3.8484e-05
-1.01652e-05
3.79789e-05
-8.13047e-06
3.73064e-05
-6.08106e-06
3.64424e-05
-4.23453e-06
3.54529e-05
-2.31672e-06
3.45035e-05
-9.64607e-07
3.32867e-05
4.56881e-07
3.21887e-05
1.41959e-06
3.08138e-05
1.72879e-06