/*--------------------------------*- C++ -*----------------------------------*\
| =========                 |                                                 |
| \\      /  F ield         | OpenFOAM: The Open Source CFD Toolbox           |
|  \\    /   O peration     | Version:  2.4.0                                 |
|   \\  /    A nd           | Web:      www.OpenFOAM.org                      |
|    \\/     M anipulation  |                                                 |
\*---------------------------------------------------------------------------*/
FoamFile
{
    version     2.0;
    format      ascii;
    class       volScalarField;
    location    "1.1";
    object      pPrime2Mean;
}
// * * * * * * * * * * * * * * * * * * * * * * * * * * * * * * * * * * * * * //

dimensions      [0 4 -4 0 0 0 0];

internalField   nonuniform List<scalar> 
8800
(
587932
573101
557189
541412
525851
510516
495407
480524
465867
451436
437228
423243
409475
395918
382558
369370
356303
343257
329996
315779
587952
573104
557188
541412
525851
510515
495407
480524
465868
451436
437229
423243
409476
395920
382561
369377
356317
343287
330069
316020
587965
573103
557184
541409
525850
510515
495407
480524
465868
451436
437229
423244
409478
395924
382569
369391
356344
343345
330203
316489
587976
573102
557180
541406
525849
510514
495406
480524
465868
451436
437230
423246
409481
395930
382579
369412
356384
343426
330389
317033
587984
573102
557177
541404
525848
510514
495406
480524
465868
451437
437231
423248
409485
395937
382593
369437
356435
343528
330614
317597
587991
573103
557174
541401
525847
510514
495406
480523
465868
451437
437232
423250
409490
395946
382610
369468
356494
343645
330860
318146
587996
573104
557172
541399
525846
510514
495406
480524
465868
451438
437234
423253
409495
395956
382629
369503
356560
343773
331117
318669
587999
573104
557171
541398
525845
510514
495406
480524
465868
451439
437235
423256
409501
395967
382649
369541
356631
343907
331376
319157
588002
573105
557170
541397
525844
510514
495407
480524
465869
451439
437237
423260
409508
395979
382671
369581
356704
344044
331630
319606
588003
573105
557170
541397
525844
510514
495407
480524
465869
451440
437239
423263
409514
395991
382693
369621
356779
344179
331873
320014
588003
573105
557170
541397
525844
510514
495407
480525
465870
451442
437241
423267
409521
396003
382715
369662
356852
344310
332101
320383
588002
573105
557171
541397
525845
510514
495407
480525
465870
451443
437243
423271
409528
396015
382737
369701
356923
344435
332313
320712
587999
573104
557171
541398
525845
510515
495407
480525
465871
451444
437245
423274
409534
396027
382758
369738
356989
344550
332504
321002
587995
573104
557173
541400
525846
510515
495408
480526
465872
451445
437247
423278
409540
396037
382777
369773
357050
344654
332674
321255
587990
573103
557175
541402
525847
510515
495408
480526
465873
451446
437249
423281
409546
396047
382795
369804
357104
344746
332821
321470
587984
573103
557177
541404
525848
510515
495408
480527
465873
451447
437250
423284
409550
396056
382810
369831
357151
344824
332945
321649
587976
573103
557180
541407
525849
510516
495408
480527
465874
451448
437252
423286
409554
396063
382822
369853
357189
344888
333044
321791
587965
573103
557184
541410
525851
510516
495409
480528
465875
451449
437253
423288
409557
396068
382832
369870
357218
344936
333119
321897
587952
573103
557188
541412
525852
510517
495409
480528
465875
451450
437254
423289
409559
396072
382838
369881
357238
344968
333169
321967
587932
573101
557189
541413
525852
510517
495409
480528
465875
451450
437254
423289
409560
396074
382842
369887
357247
344985
333194
322001
302897
299427
296780
294491
292369
290350
288402
286509
284658
282841
281051
279283
277535
275803
274085
272379
270683
268996
267317
265644
263980
262322
260671
259027
257389
255757
254131
252510
250896
249288
247687
246092
244505
242926
241354
239790
238234
236684
235142
233606
232077
230553
229033
227519
226008
224502
222999
221501
220007
218517
217032
215551
214073
212599
211130
209665
208205
206750
205300
203856
202415
200980
199548
198122
196699
195283
193872
192467
191069
189676
188290
186909
185533
184163
182797
181438
180083
178735
177393
176057
174727
173404
172088
170777
169472
168171
166875
165583
164295
163011
161731
160454
159180
157910
156643
155379
154118
152860
151607
150358
149115
147877
146645
145420
144201
142989
141784
140587
139395
138211
137033
135860
134694
133533
132377
131227
130082
128942
127808
126680
125557
124440
123327
122221
121119
120023
118930
117844
116760
115682
114606
113534
112465
111399
110336
109276
108220
107167
106119
105075
104036
103002
101972
100949
99929.3
98915.7
97907.3
96904.2
95905.9
94912.7
93923.9
92940.1
91960.5
90985.7
90015.5
89050.1
88089.4
87134.3
86184.1
85239.7
84300.5
83368.2
82441.1
81521.9
80607.8
79702.2
78801.5
77909.8
77023.8
76146.8
75274.8
74412.6
73553.6
72705.9
71858.9
71025.8
70189.3
69369.4
68543.6
67734.4
66920.2
66120.7
65316.5
64522.8
63724.8
62931.4
62133.6
61336.6
60531
59722.9
58900.7
58069.5
57217.6
56346.4
55443.3
54504.8
53512.2
52442.9
51290.8
49894.6
305367
301671
298657
296061
293712
291517
289428
287416
285465
283560
281694
279861
278054
276270
274505
272758
271024
269304
267594
265895
264206
262526
260855
259193
257538
255892
254252
252620
250995
249377
247767
246165
244571
242985
241407
239837
238275
236720
235173
233632
232098
230570
229047
227529
226016
224507
223002
221502
220007
218515
217029
215546
214068
212594
211125
209660
208200
206746
205296
203852
202412
200977
199546
198121
196699
195284
193873
192469
191070
189678
188291
186910
185534
184164
182799
181439
180085
178737
177394
176059
174730
173407
172091
170781
169476
168176
166880
165588
164300
163016
161736
160459
159185
157915
156647
155383
154122
152866
151613
150366
149123
147886
146655
145431
144213
143002
141798
140600
139409
138225
137046
135873
134705
133543
132387
131235
130090
128950
127815
126687
125564
124447
123335
122229
121128
120032
118941
117855
116773
115695
114620
113548
112479
111414
110351
109292
108237
107185
106138
105095
104057
103024
101995
100972
99953.5
98940.2
97932.2
96929.1
95931
94937.7
93949.4
92965.7
91986.3
91011.5
90041.1
89074.9
88113.3
87156.8
86204.8
85258.2
84316.9
83382
82452.4
81529.8
80612.7
79702.5
78797.8
77900.7
77009.2
76125.3
75246
74375.3
73507.3
72649.8
71792
70947.3
70099
69264.7
68426.3
67599.8
66770.8
65950.9
65129.5
64312.3
63494.4
62675.5
61853.5
61028
60194.8
59352.7
58498.2
57625.2
56732
55807
54848.9
53832.2
52772.3
51563
50301
48847.4
307082
303415
300260
297480
294963
292622
290409
288290
286245
284259
282322
280424
278561
276727
274917
273129
271359
269605
267866
266141
264428
262726
261035
259355
257685
256024
254371
252727
251092
249465
247846
246236
244635
243042
241458
239883
238315
236755
235202
233657
232119
230586
229060
227539
226022
224511
223004
221502
220005
218512
217025
215541
214063
212589
211119
209655
208195
206741
205292
203848
202408
200974
199544
198119
196699
195285
193875
192471
191073
189681
188294
186913
185537
184166
182801
181441
180087
178739
177397
176062
174733
173411
172095
170786
169481
168181
166885
165593
164306
163023
161742
160465
159192
157921
156653
155389
154129
152873
151622
150376
149135
147899
146670
145446
144229
143019
141815
140618
139427
138242
137063
135888
134720
133557
132399
131247
130101
128960
127826
126697
125574
124457
123346
122240
121140
120045
118955
117870
116788
115710
114636
113564
112496
111430
110368
109310
108255
107204
106157
105116
104079
103047
102020
100997
99979.5
98966.9
97959.3
96956.2
95958.2
94964.9
93977
92993.5
92014.2
91039.5
90068.5
89101.4
88138.8
87180.5
86226.4
85277.5
84334.1
83396.6
82464.5
81538.6
80618.6
79704.3
78795.6
77893.6
76996.2
76105.5
75218.4
74339.4
73461.7
72594
71725.7
70867.8
70009.3
69159.5
68309.8
67465.6
66623.1
65782.4
64944.5
64104.4
63266.4
62422.7
61578.4
60723.8
59866.5
58990.8
58107.7
57194.5
56267.9
55289.4
54297.9
53204
52110.1
50829.2
49514.8
48098.7
308388
304817
301623
298742
296106
293652
291334
289121
286992
284931
282927
280970
279053
277170
275317
273489
271684
269899
268132
266380
264644
262921
261212
259514
257828
256153
254488
252833
251187
249551
247924
246307
244699
243099
241509
239927
238354
236789
235232
233682
232139
230602
229072
227548
226029
224515
223006
221502
220003
218509
217021
215537
214057
212583
211114
209650
208190
206736
205287
203844
202405
200971
199542
198119
196700
195286
193878
192474
191077
189685
188298
186917
185541
184170
182804
181444
180090
178742
177400
176065
174737
173415
172100
170790
169486
168186
166891
165600
164313
163030
161750
160473
159199
157928
156661
155397
154138
152883
151634
150389
149149
147915
146687
145465
144249
143040
141837
140639
139448
138262
137082
135907
134737
133572
132414
131260
130114
128973
127838
126710
125587
124471
123360
122254
121155
120060
118971
117886
116805
115727
114653
113581
112513
111447
110385
109327
108273
107222
106177
105136
104100
103069
102043
101022
100005
98993.6
97986.9
96984.1
95986.6
94993.6
94006.2
93022.7
92043.6
91068.8
90097.4
89129
88164.9
87204.3
86247.8
85296.5
84351
83410.7
82476.2
81547.1
80624.2
79705.9
78793.7
77886.5
76983.8
76085.9
75191.6
74303.7
73417.1
72537.8
71660.4
70789.1
69920.7
69055.9
68194.8
67333.9
66477.4
65617.6
64762.2
63900.6
63043.1
62174.7
61310.7
60426.9
59549.1
58638.8
57735.4
56778.3
55834
54799.4
53789.2
52638.3
51506.5
50225
48906.2
47540.8
309436
305964
302780
299851
297139
294599
292195
289902
287699
285571
283505
281493
279525
277597
275703
273838
271999
270184
268389
266613
264854
263111
261383
259669
257968
256280
254602
252937
251281
249636
248001
246377
244761
243156
241559
239972
238393
236823
235261
233706
232159
230618
229085
227557
226035
224519
223008
221503
220002
218507
217017
215533
214053
212579
211109
209645
208186
206733
205284
203841
202403
200970
199542
198119
196701
195289
193881
192479
191082
189690
188303
186922
185545
184174
182808
181448
180093
178745
177403
176068
174740
173419
172104
170795
169491
168192
166898
165607
164321
163038
161758
160481
159207
157937
156670
155407
154149
152895
151647
150404
149166
147934
146707
145486
144272
143063
141860
140662
139471
138284
137103
135926
134755
133589
132429
131275
130128
128987
127852
126724
125602
124485
123375
122270
121171
120076
118988
117903
116822
115744
114669
113597
112529
111463
110401
109343
108289
107240
106195
105155
104120
103090
102065
101045
100030
99018.9
98013.7
97011.4
96015
95022.2
94035.7
93051.6
92073.2
91097.7
90126
89156
88190.5
87226.9
86268.3
85314.2
84366.4
83422.8
82486.1
81553.6
80628.2
79706.3
78790.6
77878.5
76970.7
76065.9
75165
74267.5
73373.2
72482.4
71596
70712.3
69833.7
68954.9
68082
67205.1
66334.6
65455.9
64585
63700.8
62827.8
61932.3
61053.1
60138.8
59246
58299.8
57381.1
56385.1
55420.9
54350.5
53308.6
52144.1
50976.4
49725.2
48428.7
47102.6
310320
306932
303773
300823
298063
295460
292989
290630
288363
286175
284054
281990
279977
278006
276073
274173
272303
270458
268638
266838
265058
263296
261550
259820
258105
256403
254715
253038
251374
249720
248078
246445
244824
243212
241610
240017
238433
236858
235291
233732
232180
230636
229099
227568
226043
224525
223012
221505
220003
218507
217016
215531
214051
212576
211107
209643
208185
206731
205283
203841
202403
200971
199544
198122
196705
195293
193886
192485
191088
189696
188309
186927
185550
184178
182812
181451
180096
178747
177405
176071
174743
173422
172108
170799
169496
168197
166903
165613
164328
163046
161767
160490
159217
157947
156681
155419
154162
152910
151663
150421
149185
147954
146730
145510
144295
143087
141884
140686
139494
138306
137123
135945
134773
133606
132446
131291
130143
129001
127867
126738
125616
124500
123390
122284
121185
120091
119003
117918
116837
115758
114684
113611
112542
111476
110414
109356
108303
107254
106210
105170
104136
103107
102084
101065
100052
99041.5
98037.6
97036.1
96040.6
95048.3
94062.4
93077.5
92099.9
91123.1
90151.1
89179.4
88213.1
87246.4
86286.3
85329.1
84379
83431.7
82492.8
81556.8
80629.4
79703.5
78785
77868
76955.8
76043.6
75137
74229.6
73328.7
72426.8
71532.4
70635.8
69748.5
68854.7
67971.8
67077.7
66195.2
65296.9
64413
63506.9
62619.3
61701.1
60805
59867.5
58955
57986.1
57042.1
56026.2
55030.6
53949.1
52875.7
51719.7
50538.5
49313
48040.1
46741
311081
307762
304630
301674
298883
296236
293714
291300
288979
286740
284570
282461
280405
278395
276427
274494
272594
270722
268877
267055
265255
263474
261712
259967
258238
256524
254824
253138
251464
249802
248152
246513
244885
243267
241659
240061
238472
236893
235321
233758
232203
230655
229114
227580
226053
224532
223018
221509
220006
218509
217018
215532
214052
212577
211108
209644
208186
206733
205285
203843
202406
200974
199547
198126
196710
195298
193892
192490
191094
189701
188314
186931
185554
184181
182814
181452
180097
178748
177406
176072
174745
173424
172110
170802
169499
168201
166908
165619
164335
163054
161776
160501
159229
157959
156694
155432
154176
152924
151679
150438
149204
147975
146751
145532
144319
143110
141907
140709
139516
138327
137143
135964
134790
133622
132461
131306
130157
129015
127880
126751
125629
124512
123401
122296
121197
120103
119014
117929
116848
115769
114694
113621
112552
111485
110423
109365
108312
107263
106220
105180
104148
103120
102099
101081
100070
99060.3
98057
97056.1
96061.1
95068.8
94083.3
93097.6
92120.4
91142.9
90169.9
89197.3
88230
87260.8
86299
85339.2
84386.2
83435.9
82494.4
81555.7
80625.4
79696
78774.4
77853.1
76936.5
76017.8
75104.7
74189.6
73280.9
72369.6
71466.3
70559.2
69661.8
68756
67861
66953.5
66056.4
65143.6
64242.6
63322.3
62414.9
61483.4
60565.7
59615.2
58678.5
57698.3
56728.7
55702.8
54683.4
53598.8
52507.8
51363.4
50181.5
48971
47713.8
46433.5
311746
308481
305375
302420
299611
296932
294371
291913
289548
287264
285051
282901
280807
278762
276761
274798
272871
270974
269105
267263
265443
263646
261868
260109
258367
256641
254930
253234
251552
249882
248225
246579
244945
243321
241708
240105
238512
236927
235352
233785
232226
230675
229131
227595
226065
224543
223026
221516
220012
218514
217022
215535
214055
212580
211111
209647
208189
206736
205289
203847
202410
200978
199552
198130
196714
195303
193896
192494
191097
189705
188317
186933
185555
184182
182814
181452
180097
178748
177407
176072
174745
173425
172111
170803
169501
168204
166912
165624
164342
163062
161786
160511
159240
157971
156706
155445
154189
152938
151693
150454
149221
147993
146771
145552
144339
143131
141928
140729
139535
138344
137159
135979
134804
133636
132474
131318
130169
129027
127891
126761
125638
124521
123409
122303
121204
120109
119021
117935
116853
115774
114698
113624
112555
111488
110426
109368
108315
107267
106224
105186
104155
103129
102109
101093
100082
99074.4
98071.2
97070.3
96075.4
95083.1
94097.9
93110.8
92133.6
91155.9
90181.2
89208.8
88239.8
87269.4
86305.5
85343.5
84387.2
83434.7
82489.6
81549.3
80615
79683.7
78758.6
77833.7
76912.1
75988.4
75069.1
74147.9
73230.5
72311.4
71398.7
70483.2
69574.9
68660
67751.6
66834
65921.6
64997.6
64078.8
63147.7
62222.4
61280.7
60344
59384.7
58428.7
57439.7
56452.1
55419.4
54385.1
53302.6
52200.7
51064.9
49884
48680.5
47434.6
46169.3
312329
309109
306027
303076
300255
297554
294962
292470
290067
287745
285496
283310
281182
279105
277074
275084
273131
271211
269322
267459
265622
263808
262016
260243
258489
256752
255032
253327
251636
249959
248294
246643
245002
243374
241756
240148
238550
236962
235383
233812
232250
230696
229150
227611
226079
224555
223036
221525
220020
218521
217028
215541
214060
212584
211115
209651
208193
206740
205292
203850
202413
200981
199555
198133
196716
195305
193898
192495
191098
189705
188316
186933
185554
184180
182812
181450
180095
178746
177405
176070
174743
173423
172110
170803
169502
168206
166915
165628
164347
163069
161794
160521
159250
157982
156717
155455
154199
152949
151705
150467
149235
148008
146786
145568
144355
143147
141944
140744
139548
138357
137170
135989
134814
133644
132482
131326
130177
129034
127898
126768
125644
124525
123412
122305
121205
120109
119020
117934
116852
115771
114695
113621
112552
111485
110423
109365
108313
107265
106223
105187
104157
103132
102114
101100
100090
99082.8
98079.7
97078.6
96083.3
95090.7
94104.9
93117.2
92140.3
91161.3
90185.1
89213.8
88242.5
87272.1
86305.2
85343.8
84382
83429.7
82478.5
81538.3
80598.7
79667.1
78738
77811.3
76883.5
75956.5
75029.1
74103.5
73178.3
72253.1
71330.9
70410
69489.5
68569.4
67646.5
66722.2
65794.9
64861.8
63927.8
62986.6
62047.5
61098.1
60146.3
59180.6
58209.9
57215.7
56214.4
55178.2
54132.1
53053.3
51942.1
50809.5
49630.2
48430.8
47195.7
45943.6
312842
309658
306596
303652
300825
298107
295492
292972
290538
288185
285903
283686
281528
279423
277365
275351
273374
271433
269524
267644
265790
263961
262155
260370
258605
256857
255128
253414
251715
250031
248361
246703
245057
243424
241801
240189
238587
236995
235413
233839
232274
230717
229169
227628
226094
224567
223048
221535
220028
218528
217034
215546
214065
212589
211119
209654
208196
206742
205295
203852
202415
200983
199555
198133
196716
195304
193896
192493
191095
189701
188313
186929
185550
184176
182808
181446
180091
178742
177401
176066
174739
173419
172106
170800
169499
168205
166915
165630
164350
163074
161800
160528
159257
157989
156724
155462
154207
152957
151713
150475
149243
148017
146795
145578
144365
143156
141952
140752
139555
138363
137175
135993
134817
133647
132485
131329
130180
129037
127901
126769
125644
124524
123409
122300
121198
120102
119012
117926
116843
115763
114686
113611
112542
111475
110414
109357
108306
107260
106220
105184
104156
103132
102115
101101
100092
99085.1
98082.8
97079.9
96085.1
95092.4
94104.4
93118.3
92139.5
91160
90183.1
89213.3
88238.7
87269.7
86299.1
85340.7
84371.1
83422
82461.9
81525.3
80577.3
79648.8
78712.6
77786.9
76850.3
75922.8
74986.7
74057.8
73124.2
72195.9
71264.1
70342.2
69408.5
68486.7
67550.2
66620.8
65680.9
64738.4
63794.6
62845.7
61895.1
60939.4
59975
59005.7
58022.2
57025.5
56010.1
54973
53914.8
52837.2
51719.1
50586
49410.8
48216.4
46992.6
45752.7
313293
310137
307094
304157
301326
298596
295963
293420
290962
288581
286272
284029
281844
279714
277633
275596
273599
271638
269711
267814
265946
264103
262285
260488
258712
256956
255217
253495
251790
250099
248423
246759
245109
243470
241844
240228
238622
237027
235441
233865
232297
230738
229187
227644
226108
224580
223059
221544
220036
218535
217040
215551
214069
212592
211121
209656
208197
206743
205295
203852
202414
200981
199553
198130
196712
195299
193891
192487
191089
189695
188306
186922
185543
184169
182802
181440
180085
178736
177394
176060
174732
173412
172100
170794
169495
168201
166913
165630
164352
163076
161803
160530
159260
157991
156726
155464
154209
152958
151715
150476
149245
148019
146798
145580
144367
143158
141953
140751
139554
138361
137174
135991
134815
133644
132482
131326
130177
129034
127897
126766
125639
124517
123401
122290
121186
120089
118998
117910
116827
115747
114670
113596
112527
111461
110402
109346
108297
107253
106214
105180
104153
103130
102112
101098
100089
99080.9
98078.7
97074.8
96079.6
95087.2
94097.1
93113.6
92131.9
91153.5
90176.5
89207.2
88230.2
87263
86289.4
85331.7
84358.2
83409.2
82441.8
81507.7
80550.3
79624.3
78681.6
77759.1
76811.8
75885.4
74940.8
74012.6
73071.3
72140.9
71200.8
70279.5
69334.5
68411
67464.5
66528.8
65581
64628.5
63677.5
62722.3
61762.2
60807.2
59831.4
58859.7
57859.2
56862.7
55833.9
54796
53726.6
52645.9
51525.4
50391.9
49222.2
48034.1
46821.2
45592.8
313688
310555
307527
304596
301763
299025
296378
293817
291338
288935
286603
284337
282130
279978
277876
275819
273803
271825
269882
267971
266089
264233
262403
260597
258811
257046
255300
253571
251859
250162
248480
246812
245157
243514
241883
240264
238655
237057
235469
233890
232319
230758
229205
227660
226122
224592
223069
221552
220043
218541
217045
215555
214071
212594
211122
209656
208196
206742
205293
203849
202410
200977
199548
198124
196706
195292
193884
192480
191081
189687
188297
186913
185534
184161
182794
181433
180078
178729
177387
176052
174724
173404
172091
170786
169487
168195
166909
165627
164349
163074
161801
160528
159257
157988
156723
155460
154205
152954
151710
150471
149240
148014
146793
145575
144362
143151
141946
140744
139547
138354
137166
135984
134807
133637
132474
131318
130169
129026
127889
126756
125629
124506
123388
122275
121170
120070
118978
117889
116806
115725
114649
113576
112508
111444
110386
109332
108285
107242
106205
105172
104146
103123
102106
101090
100082
99072
98069
97063.3
96068.8
95074.9
94083.6
93101.9
92119.2
91142.8
90166.2
89197.1
88220.4
87251.4
86278.3
85318.6
84343.6
83390.4
82422.1
81484.7
80523.3
79594.1
78648.7
77726.3
76774.4
75845.8
74896.2
73964.9
73017.9
72086.8
71141.8
70218.6
69266.5
68339.7
67386.3
66446.7
65492.1
64533.7
63576.6
62616.3
61651.9
60691.7
59703.9
58729
57718.8
56720.2
55682
54639.8
53562.4
52478.9
51358.2
50226.5
49062.6
47881.2
46678.5
45460.6
314031
310917
307902
304976
302143
299398
296739
294164
291668
289248
286897
284611
282385
280214
278093
276019
273987
271993
270036
268111
266217
264351
262511
260695
258901
257128
255375
253639
251921
250219
248532
246860
245201
243554
241920
240297
238686
237085
235494
233912
232340
230776
229221
227673
226134
224602
223077
221559
220049
218545
217047
215556
214072
212593
211121
209654
208193
206738
205288
203843
202404
200970
199541
198117
196698
195284
193875
192471
191072
189677
188288
186904
185526
184153
182786
181426
180071
178722
177379
176044
174715
173395
172082
170776
169478
168186
166901
165620
164342
163066
161793
160519
159248
157979
156713
155451
154196
152945
151700
150461
149230
148002
146782
145563
144349
143138
141933
140730
139534
138341
137154
135971
134795
133624
132462
131305
130156
129013
127876
126743
125615
124490
123372
122257
121150
120049
118955
117865
116781
115700
114625
113552
112486
111423
110367
109315
108270
107227
106192
105159
104133
103110
102094
101077
100071
99058.4
98054.5
97047.1
96052
95057.2
94067.8
93084.6
92104
91125.5
90150.1
89182.1
88207.3
87235.5
86267.5
85302.6
84327.6
83366.6
82400.6
81454.5
80493.7
79557.9
78613.4
77688.3
76732.9
75808.3
74853.4
73919.2
72966.3
72030
71083
70154.9
69201.2
68272.1
67314.6
66373.4
65413.6
64451.1
63489.7
62525.2
61555.1
60584.3
59596.4
58613.7
57597.9
56591.8
55549.5
54501.2
53421
52336.8
51217.1
50088.3
48929.7
47754.8
46561.3
45352.9
314326
311228
308222
305301
302467
299717
297050
294463
291954
289519
287152
284850
282608
280420
278284
276195
274149
272142
270172
268236
266331
264456
262606
260782
258981
257201
255442
253701
251977
250271
248580
246903
245240
243590
241953
240327
238713
237109
235516
233932
232357
230791
229234
227685
226144
224610
223083
221564
220052
218546
217048
215556
214070
212590
211117
209649
208188
206732
205281
203836
202396
200962
199532
198108
196689
195275
193865
192461
191062
189668
188279
186895
185517
184145
182779
181418
180063
178714
177372
176035
174706
173385
172071
170765
169466
168175
166889
165608
164330
163054
161779
160505
159234
157964
156698
155436
154181
152930
151685
150445
149215
147987
146766
145546
144333
143121
141916
140713
139518
138325
137139
135956
134780
133609
132446
131289
130141
128996
127860
126725
125597
124471
123352
122236
121129
120026
118931
117840
116755
115674
114599
113527
112462
111401
110346
109295
108251
107209
106174
105142
104117
103094
102078
101062
100055
99041.7
98036.5
97027.2
96032.4
95033.3
94047.8
93064.5
92085.7
91105.2
90131.6
89162
88189.8
87214.2
86254.1
85282.1
84309.7
83344.9
82380.9
81418.4
80462.3
79517.9
78571.3
77645.6
76692.6
75762.2
74808.1
73872.7
72913.7
71970
71024.6
70088.7
69137.9
68207.8
67246.5
66305.8
65343.6
64378.4
63415.5
62445.7
61472.5
60493.4
59501
58505.9
57493.4
56477.5
55434.5
54381.2
53302.7
52218.4
51100.4
49974.3
48820.5
47652.3
46466.6
45266.5
314576
311490
308492
305574
302739
299985
297312
294717
292197
289750
287370
285055
282799
280598
278449
276347
274289
272271
270290
268344
266430
264546
262689
260858
259050
257265
255500
253754
252027
250316
248621
246941
245275
243622
241982
240353
238736
237130
235535
233949
232372
230804
229245
227694
226151
224615
223087
221567
220053
218546
217046
215553
214066
212586
211111
209643
208181
206725
205274
203828
202388
200953
199523
198099
196680
195265
193856
192452
191053
189659
188270
186887
185509
184137
182771
181411
180057
178707
177364
176027
174697
173375
172060
170753
169454
168162
166875
165593
164313
163036
161761
160487
159216
157946
156680
155418
154163
152911
151666
150428
149197
147969
146748
145529
144314
143103
141897
140695
139500
138307
137121
135939
134763
133592
132428
131271
130122
128979
127841
126707
125578
124451
123331
122215
121107
120003
118907
117815
116729
115648
114573
113502
112438
111377
110324
109274
108230
107190
106155
105124
104099
103075
102060
101043
100035
99020.4
98016.7
97007.9
96008.4
95009.6
94026.4
93039.9
92063.8
91082.4
90108.1
89138.9
88171.2
87194.4
86233.3
85252.9
84292.4
83317.4
82349.3
81381.1
80433.7
79482.4
78534.9
77599.5
76647.5
75708.7
74760.9
73817.1
72860.9
71911.7
70969.9
70025.5
69079.2
68141.2
67185.4
66241.8
65280.9
64315.9
63354.7
62379.5
61399.1
60411
59417.2
58414
57401.3
56377.7
55340.1
54282.2
53207.3
52121.7
51005.8
49882
48733.1
47570.8
46391.1
45198.6
314784
311707
308713
305797
302961
300205
297527
294925
292398
289941
287552
285226
282959
280747
278587
276474
274406
272379
270389
268435
266514
264623
262759
260922
259109
257319
255549
253800
252068
250354
248655
246972
245303
243648
242005
240375
238756
237147
235550
233962
232383
230814
229253
227701
226156
224619
223089
221567
220052
218544
217043
215549
214061
212580
211105
209637
208174
206718
205266
203821
202380
200945
199515
198091
196671
195257
193847
192443
191044
189650
188262
186879
185502
184130
182765
181405
180050
178700
177356
176019
174688
173365
172050
170742
169441
168148
166859
165576
164294
163016
161739
160466
159195
157926
156660
155399
154143
152892
151647
150410
149178
147951
146730
145511
144296
143086
141879
140677
139481
138290
137103
135921
134745
133574
132410
131254
130104
128961
127822
126689
125558
124433
123312
122196
121087
119984
118886
117794
116707
115625
114550
113479
112414
111355
110300
109252
108209
107170
106135
105104
104078
103055
102038
101021
100012
98996.8
97992.7
96984.1
95988.1
94990.4
94002.5
93016.9
92039.6
91057.5
90086.8
89115.8
88147.3
87170.6
86210.2
85226.3
84262.4
83277.4
82320.6
81350
80402.2
79448.1
78496.4
77544.9
76600.2
75658.4
74711.7
73757.3
72812.9
71862.1
70917.7
69970.3
69027.6
68080.5
67134.9
66181.8
65225.8
64261.6
63300
62318.2
61335
60343.5
59343.5
58336.4
57324.9
56297.9
55262.3
54205
53133.4
52045.5
50932.6
49809.7
48665.5
47507.1
46331.9
45146.2
314950
311880
308887
305972
303136
300377
297696
295090
292557
290094
287696
285362
283086
280866
278697
276576
274500
272465
270469
268508
266581
264684
262816
260974
259157
257362
255589
253836
252101
250384
248683
246997
245326
243669
242024
240391
238770
237161
235561
233972
232392
230821
229259
227705
226159
224621
223090
221567
220051
218542
217040
215545
214057
212576
211100
209631
208168
206711
205260
203814
202374
200938
199508
198083
196664
195249
193839
192435
191036
189643
188254
186872
185495
184123
182758
181398
180043
178694
177349
176012
174681
173357
172041
170731
169429
168134
166843
165558
164275
162996
161719
160446
159173
157905
156640
155380
154124
152874
151629
150393
149160
147935
146712
145495
144280
143070
141862
140661
139464
138274
137086
135906
134728
133558
132393
131237
130087
128945
127805
126672
125541
124416
123295
122180
121071
119968
118869
117777
116688
115607
114530
113459
112392
111334
110278
109231
108187
107149
106113
105083
104056
103033
102014
100997
99984.8
98973
97967.7
96964.4
95965.4
94967.7
93980.7
92992.3
92012.8
91034.6
90064.1
89087.7
88118.9
87143.6
86178
85192.5
84229.8
83249.1
82296.1
81313
80368.1
79404.6
78451.7
77505.7
76560.9
75607.2
74661.4
73705.7
72766.5
71813.8
70873.1
69924.7
68982.8
68031.6
67091
66128.7
65178.3
64212.6
63254.3
62264.4
61282.2
60285
59286.3
58278.2
57264.4
56236.7
55202.2
54149.1
53076.7
51988.7
50878
49755.5
48614.1
47458
46287.2
45106.5
315074
312008
309016
306101
303265
300506
297823
295214
292676
290208
287805
285464
283182
280955
278780
276653
274571
272531
270529
268564
266632
264730
262858
261013
259192
257395
255619
253863
252126
250406
248703
247016
245343
243684
242037
240403
238781
237170
235569
233979
232398
230826
229262
227708
226161
224622
223091
221567
220050
218541
217038
215543
214054
212572
211097
209627
208164
206707
205255
203809
202368
200933
199503
198077
196658
195243
193833
192429
191030
189636
188248
186865
185489
184118
182752
181392
180038
178688
177344
176006
174675
173351
172034
170723
169419
168122
166829
165543
164258
162980
161701
160429
159156
157890
156623
155365
154108
152860
151614
150379
149145
147921
146697
145481
144265
143057
141849
140649
139451
138261
137073
135893
134715
133546
132380
131225
130073
128932
127792
126660
125529
124406
123283
122170
121059
119958
118857
117766
116676
115595
114515
113444
112375
111316
110259
109212
108166
107129
106092
105063
104034
103012
101990
100975
99959.4
98952.2
97944.1
96944.4
95943.5
94948.2
93957.4
92969.5
91989.7
91010.2
90036.4
89059.3
88090.9
87113.6
86144.3
85164.2
84199.4
83217.9
82266.1
81280.6
80335.1
79363.8
78417.8
77465.7
76517
75564.2
74620.5
73665.2
72726.4
71774.5
70836.6
69885.8
68945.9
67992.8
67051.3
66088.2
65141.2
64172.1
63211.9
62218.3
61241.8
60239.7
59242.1
58233.7
57219.8
56198.6
55161
54111.6
53034.7
51950.6
50839.6
49717.1
48577.2
47422.8
46255.1
45077.5
315153
312091
309101
306187
303351
300592
297907
295296
292755
290283
287877
285532
283246
281015
278836
276705
274618
272574
270569
268601
266665
264761
262887
261039
259216
257416
255638
253881
252142
250421
248717
247028
245354
243693
242046
240411
238788
237176
235574
233983
232401
230829
229265
227709