/*--------------------------------*- C++ -*----------------------------------*\
| =========                 |                                                 |
| \\      /  F ield         | OpenFOAM: The Open Source CFD Toolbox           |
|  \\    /   O peration     | Version:  2.4.0                                 |
|   \\  /    A nd           | Web:      www.OpenFOAM.org                      |
|    \\/     M anipulation  |                                                 |
\*---------------------------------------------------------------------------*/
FoamFile
{
    version     2.0;
    format      ascii;
    class       volScalarField;
    location    "1.3";
    object      p;
}
// * * * * * * * * * * * * * * * * * * * * * * * * * * * * * * * * * * * * * //

dimensions      [0 2 -2 0 0 0 0];

internalField   nonuniform List<scalar> 
8800
(
93.5877
81.2348
73.8163
70.3057
68.413
67.0062
65.8115
64.7227
63.6752
62.7237
61.771
60.8554
59.9341
59.0749
58.2137
57.4157
56.6264
55.8997
55.1392
54.427
90.4784
80.8798
73.9852
70.4196
68.4738
67.0302
65.8188
64.7245
63.6723
62.7215
61.7689
60.8527
59.9321
59.0724
58.2141
57.413
56.6309
55.892
55.1337
54.391
88.5135
80.953
74.5904
70.7943
68.6441
67.1083
65.8647
64.7564
63.6968
62.7385
61.7798
60.8575
59.9345
59.0698
58.2163
57.4094
56.6442
55.8909
55.1587
54.4063
86.9802
81.0074
75.1817
71.2197
68.827
67.1904
65.9315
64.8092
63.7473
62.7778
61.8105
60.8719
59.9491
59.0699
58.2266
57.4046
56.6755
55.9238
55.3077
54.4675
85.7255
80.9792
75.6679
71.6216
69.0037
67.2589
65.9748
64.8625
63.809
62.8216
61.8508
60.8973
59.9693
59.0728
58.2388
57.4033
56.704
55.9888
55.4492
54.5416
84.7398
80.8768
76.0444
71.9718
69.1458
67.3013
66.016
64.8956
63.8715
62.8743
61.8907
60.9165
59.9905
59.0732
58.2462
57.3992
56.717
56.0342
55.5638
54.6352
83.9797
80.7662
76.3189
72.2472
69.2953
67.3178
66.0199
64.9312
63.9163
62.9077
61.9315
60.9437
60.0018
59.078
58.2463
57.3979
56.6958
56.0302
55.6365
55.0979
83.4272
80.6663
76.5013
72.4678
69.4081
67.349
66.0165
64.9508
63.9464
62.9488
61.9428
60.9675
60.0058
59.0866
58.2311
57.4004
56.6502
55.9769
55.3966
55.5932
83.0642
80.5967
76.6128
72.6118
69.507
67.3607
65.9955
64.9729
63.9653
62.9647
61.9678
60.9863
60.0095
59.0892
58.2261
57.3913
56.6123
55.9507
55.4634
56.0898
82.8885
80.5562
76.6662
72.6916
69.5465
67.3728
65.9906
64.9767
63.9781
62.9778
61.9724
60.9916
60.0146
59.086
58.2225
57.3836
56.603
55.9411
55.5227
56.1326
82.8835
80.5619
76.6639
72.6921
69.5501
67.3759
65.9779
64.9836
63.9802
62.9677
61.9725
60.9974
60.0107
59.0859
58.2238
57.3831
56.596
55.9476
55.5442
56.2339
83.0569
80.605
76.609
72.6192
69.5039
67.3719
65.9867
64.9683
63.9706
62.9585
61.9639
60.9933
60.0134
59.0841
58.227
57.3895
56.6008
55.9487
55.5687
56.2747
83.4112
80.6832
76.4922
72.4719
69.4213
67.3652
65.986
64.9598
63.9539
62.9292
61.9506
60.9911
60.0076
59.0857
58.2372
57.4027
56.6111
55.9585
55.5677
56.243
83.9603
80.7854
76.3118
72.2563
69.2926
67.346
65.995
64.9365
63.9204
62.9007
61.9239
60.9726
60.0042
59.0886
58.245
57.4249
56.631
55.979
55.5534
56.1332
84.7171
80.8991
76.0431
71.9689
69.1544
67.3209
65.9827
64.9046
63.8878
62.8491
61.8902
60.9606
59.9921
59.0827
58.2643
57.4484
56.6577
56.0147
55.5457
55.9405
85.6997
80.9973
75.6789
71.6152
69.0015
67.2756
65.9565
64.8635
63.8358
62.797
61.8573
60.9329
59.9809
59.08
58.2762
57.47
56.7
56.0582
55.5703
55.6868
86.9495
81.0237
75.2013
71.2052
68.8325
67.2138
65.9064
64.806
63.7864
62.7423
61.8166
60.9122
59.9722
59.0677
58.2893
57.4901
56.7383
56.1024
55.6308
55.4125
88.4851
80.96
74.6178
70.7797
68.6479
67.1277
65.8439
64.7513
63.7391
62.7018
61.7911
60.8942
59.9642
59.0655
58.2981
57.5008
56.7705
56.1379
55.6869
55.2769
90.4527
80.8807
74.0143
70.4034
68.48
67.0498
65.7994
64.7182
63.7143
62.6864
61.7807
60.8878
59.9651
59.0697
58.3026
57.5096
56.7865
56.1582
55.6816
55.2046
93.5662
81.2337
73.8447
70.29
68.4209
67.0228
65.7934
64.718
63.714
62.6907
61.7845
60.8879
59.9677
59.074
58.3048
57.5116
56.7913
56.1637
55.6812
55.328
54.4659
54.4968
54.4799
54.4288
54.3859
54.3635
54.3708
54.3997
54.4282
54.4633
54.4979
54.5278
54.5654
54.5987
54.6195
54.6205
54.5709
54.4741
54.3343
54.1596
53.9711
53.7903
53.6256
53.4912
53.4014
53.3614
53.3836
53.4547
53.5625
53.6865
53.7832
53.8529
53.8824
53.8604
53.8016
53.7154
53.6137
53.5151
53.4252
53.3623
53.3368
53.335
53.3577
53.4051
53.482
53.5779
53.7084
53.8495
54.0106
54.1804
54.3305
54.4473
54.5102
54.4853
54.3549
54.0875
53.6273
53.0191
52.2914
51.5359
50.8882
50.4622
50.2925
50.4279
50.7893
51.2553
51.7204
52.1098
52.4119
52.5434
52.5487
52.4491
52.246
51.925
51.4997
51.0201
50.4978
49.9987
49.4727
48.8776
48.2331
47.7198
47.4517
47.3358
47.3473
47.5326
47.919
48.4302
49.0502
49.6968
50.3002
50.9177
51.3976
51.6751
51.8057
51.7218
51.5371
51.3697
51.0851
50.9148
50.7562
50.601
50.5439
50.4861
50.5213
50.4859
50.4039
50.2058
50.1671
49.806
49.4566
49.1427
48.6438
48.3266
47.7819
47.4835
47.1134
46.8184
46.7368
46.6484
46.5928
46.7275
47.0568
47.4191
47.7311
48.3079
48.7503
49.1028
49.6773
49.8404
49.9605
49.7173
49.391
48.8253
47.8545
46.6075
45.263
43.6987
41.8214
39.9828
38.1022
36.2748
34.4148
32.8052
31.6427
30.7939
30.4383
30.9268
32.1921
34.263
37.0616
40.6377
44.6841
48.8877
52.8644
56.6664
60.2624
63.3166
65.928
68.1451
70.1668
71.8989
73.3614
74.728
75.8888
76.8561
77.9032
78.7164
79.475
80.0126
80.3783
81.1983
81.5092
82.0137
82.1336
82.1631
82.6934
82.6676
82.2385
81.9368
81.2603
80.5191
80.0633
79.5896
78.853
78.1118
77.625
77.266
76.9637
76.5266
75.9509
74.7103
73.0404
70.336
66.6769
61.5501
54.6957
45.7341
33.4445
1.23362
54.2313
54.2248
54.2747
54.3331
54.3831
54.3943
54.3931
54.4024
54.4033
54.4291
54.4691
54.5026
54.5506
54.5819
54.5936
54.5906
54.5373
54.4447
54.3151
54.1476
53.9701
53.8029
53.6459
53.5295
53.4505
53.4016
53.4166
53.4722
53.5545
53.6692
53.757
53.8275
53.8738
53.8617
53.8232
53.7475
53.6495
53.5586
53.4777
53.4081
53.3736
53.3611
53.3651
53.4024
53.4604
53.5375
53.6578
53.7801
53.9268
54.079
54.212
54.3177
54.3682
54.3429
54.2048
53.9641
53.5562
53.0227
52.3925
51.7427
51.1699
50.7987
50.6278
50.6874
50.9683
51.3299
51.7389
52.0668
52.3209
52.4502
52.4431
52.3204
52.1193
51.8249
51.3973
50.9517
50.452
49.9501
49.456
48.9096
48.3796
47.9209
47.6622
47.5949
47.6151
47.7656
48.0601
48.4839
49.0175
49.6193
50.1931
50.6872
51.144
51.4796
51.6033
51.6654
51.5081
51.3949
51.2629
51.0153
50.9811
50.8213
50.7355
50.7236
50.7107
50.6631
50.6504
50.4697
50.3102
50.2075
49.7948
49.5335
49.2589
48.9041
48.5652
48.3527
48.0545
47.9534
47.8704
47.9002
48.0579
48.1447
48.5147
49.0113
49.2947
49.8998
50.3844
50.5936
51.0911
51.1363
51.1141
50.7962
50.1425
49.3014
48.1584
46.5151
44.7395
42.8031
40.4012
38.1014
35.649
33.2804
30.905
28.8529
27.1886
25.9247
25.3449
25.8688
27.138
29.0917
32.5028
36.7349
41.33
45.9733
50.5737
54.831
58.4242
61.6692
64.5729
66.9354
69.052
70.7975
72.3059
73.8212
75.1649
76.1894
77.3274
78.0738
78.8617
79.3459
79.8966
80.7683
81.0809
81.798
81.7784
81.9072
82.3824
81.912
81.2528
80.7178
79.7645
78.7337
78.0801
77.4389
76.4112
75.1093
73.9664
73.2432
72.4373
71.3412
70.2122
68.756
66.541
63.4989
59.7049
53.9034
45.9705
34.9207
20.8045
-10.6123
54.2901
54.2535
54.2762
54.3638
54.4611
54.4742
54.4324
54.3909
54.344
54.3585
54.4074
54.4517
54.521
54.5585
54.5664
54.5616
54.4949
54.4048
54.2836
54.1266
53.9685
53.8171
53.6735
53.5689
53.506
53.4538
53.4643
53.504
53.5593
53.6616
53.7296
53.7968
53.8481
53.8408
53.8237
53.7619
53.6747
53.5907
53.5116
53.4441
53.4039
53.3863
53.3766
53.4047
53.4512
53.5065
53.6183
53.7161
53.8457
53.9825
54.0854
54.1829
54.2127
54.1842
54.05
53.8335
53.4832
53.0299
52.4996
51.9593
51.4654
51.1261
50.964
50.9544
51.1623
51.4173
51.7622
52.0165
52.2112
52.3349
52.302
52.2068
51.9622
51.7097
51.3249
50.8907
50.4436
49.928
49.4882
49.0263
48.591
48.2239
47.9486
47.9142
47.925
48.0605
48.2818
48.5926
49.0665
49.5683
50.117
50.5611
50.9543
51.3209
51.4808
51.5722
51.5517
51.3926
51.3616
51.1854
51.0938
51.0797
50.9484
50.9221
50.9547
50.8878
50.8428
50.8277
50.5993
50.5698
50.3886
50.0412
49.9718
49.7302
49.4544
49.3914
49.2409
49.1937
49.214
49.3474
49.614
49.7559
50.1238
50.6096
50.977
51.4707
51.9346
52.2195
52.4132
52.4271
52.3367
51.8208
50.9929
49.9656
48.512
46.5463
44.3411
41.9364
38.9785
36.1913
33.126
30.2303
27.2588
24.6834
22.4722
20.6139
19.7774
19.9141
20.9647
23.0985
26.9941
31.9485
37.2929
42.6809
47.7499
52.5197
56.6063
59.9758
62.9843
65.5157
67.8298
69.7762
71.4164
72.9478
74.3195
75.3829
76.715
77.4417
78.356
78.6393
79.3975
80.3115
80.5835
81.356
81.2901
81.4987
81.9014
81.1092
80.1655
79.2417
78.0446
77.0716
76.5273
75.5503
73.9175
71.9425
69.9282
68.6724
67.5863
66.0414
64.2124
62.3191
59.8657
56.8037
52.7032
46.6233
38.9077
26.0757
12.1778
-10.4402
53.5993
53.7155
54.288
54.672
54.8065
54.6976
54.5
54.3558
54.2433
54.2461
54.3169
54.3794
54.4817
54.5335
54.5438
54.5383
54.4623
54.3707
54.2579
54.113
53.9713
53.8403
53.7104
53.6135
53.562
53.5089
53.5181
53.5463
53.5742
53.6638
53.7086
53.7603
53.8092
53.799
53.8008
53.7583
53.6881
53.6204
53.5455
53.4788
53.4369
53.4146
53.3999
53.4195
53.4536
53.4946
53.5912
53.6649
53.7742
53.8875
53.9578
54.04
54.0401
54.0137
53.8876
53.6998
53.4128
53.0386
52.6078
52.1668
51.7603
51.4478
51.2926
51.2318
51.37
51.5364
51.7913
52.0004
52.1075
52.2353
52.1681
52.0858
51.866
51.5721
51.2843
50.8421
50.479
49.991
49.605
49.2318
48.8582
48.6002
48.3268
48.3008
48.3176
48.3902
48.6045
48.7996
49.1948
49.6231
50.0588
50.5137
50.8556
51.1701
51.3869
51.4739
51.5036
51.4244
51.342
51.3164
51.2212
51.2129
51.218
51.1405
51.2223
51.2171
51.1462
51.2186
51.0813
51.0355
50.9971
50.7878
50.6708
50.6289
50.5032
50.4029
50.4773
50.5063
50.5739
50.8261
51.068
51.3679
51.7364
52.1279
52.6115
52.9984
53.3813
53.7981
53.7953
53.7684
53.6768
53.0023
52.0843
50.8123
49.0665
46.7812
44.1817
41.1476
37.7647
34.4697
30.8525
27.4313
24.0424
20.8485
18.1845
15.6862
14.3312
13.9303
14.4894
16.9384
21.1366
26.5281
32.506
38.7879
44.6196
49.8278
54.2981
58.2206
61.5516
64.1768
66.594
68.5517
70.3811
72.1516
73.5856
74.617
76.0447
76.7878
77.824
77.9334
78.9743
79.8888
80.2091
80.8554
80.6308
80.8584
80.9694
80.1638
79.0555
77.6251
75.8359
74.708
74.2299
72.8106
70.5054
67.64
64.9774
63.2115
61.8049
60.0937
57.8754
55.5948
53.2054
50.3753
46.2023
39.9564
33.4785
20.279
7.4958
-7.65414
53.3427
53.6197
54.6021
55.1239
55.1933
54.9177
54.5393
54.275
54.1086
54.095
54.1853
54.2841
54.4156
54.4875
54.5202
54.5113
54.4369
54.3517
54.2328
54.1056
53.9682
53.8456
53.7458
53.6488
53.6043
53.5657
53.5625
53.5859
53.5893
53.6541
53.687
53.7205
53.7619
53.7558
53.7696
53.734
53.6879
53.6347
53.5661
53.5133
53.4647
53.4457
53.4343
53.4402
53.4698
53.4959
53.5669
53.626
53.704
53.7838
53.8326
53.8915
53.8663
53.8438
53.7326
53.5431
53.3454
53.0444
52.7025
52.3422
52.0097
51.7398
51.6033
51.4975
51.5773
51.6827
51.8283
52.0108
52.0417
52.1408
52.0854
51.9869
51.8066
51.5126
51.2597
50.8856
50.5341
50.1856
49.7658
49.5218
49.2047
48.995
48.8074
48.714
48.7611
48.7754
48.9598
49.1033
49.3781
49.7503
50.0539
50.4683
50.7952
51.0402
51.2709
51.3736
51.4293
51.4436
51.372
51.3999
51.3768
51.3718
51.469
51.4511
51.4993
51.5809
51.5289
51.5708
51.6058
51.5412
51.5824
51.5375
51.4242
51.5194
51.5263
51.4529
51.6461
51.7726
51.9299
52.2147
52.458
52.8569
53.1997
53.6033
54.1294
54.4481
54.8459
55.2698
55.3472
55.3131
55.1296
54.4371
53.504
51.913
49.9246
47.2508
44.2441
40.7196
37.0224
33.1951
29.2811
25.4591
21.7013
18.0729
14.7281
11.8925
9.89837
8.76276
8.94693
11.4805
15.5391
21.1077
27.648
34.5581
41.1512
47.0653
52.0443
56.1931
59.7919
62.8455
65.4982
67.5099
69.442
71.3431
72.8187
73.8974
75.1741
75.9446
77.397
77.7294
79.0074
79.6622
79.7715
80.1194
79.6219
79.9475
79.9628
79.1798
77.9976
76.3145
74.1254
72.1292
70.7549
68.5325
65.3698
61.6779
58.6391
56.5237
54.7053
52.9061
50.9588
48.8763
46.6996
44.0403
40.5878
34.2482
29.0145
17.8981
6.48605
-4.12501
53.4101
53.7818
54.843
55.3322
55.3163
54.975
54.5036
54.1751
54.0214
54.0108
54.1179
54.2522
54.3757
54.4658
54.5115
54.4792
54.4235
54.3362
54.2018
54.113
53.9647
53.8498
53.796
53.6803
53.6371
53.623
53.5881
53.6195
53.6203
53.6422
53.6952
53.7033
53.7109
53.7337
53.729
53.6918
53.6879
53.6306
53.5853
53.5603
53.4927
53.4837
53.4783
53.4582
53.4894
53.5079
53.5425
53.5949
53.6543
53.6855
53.7272
53.7613
53.7083
53.6995
53.6003
53.4188
53.2906
53.0509
52.7774
52.5122
52.2135
52.0058
51.8865
51.756
51.7598
51.8578
51.8951
52.0447
52.0405
52.0707
52.0571
51.9278
51.7801
51.509
51.2763
50.9624
50.6735
50.3704
50.029
49.8006
49.5973
49.4022
49.2736
49.1601
49.1652
49.2132
49.2757
49.4242
49.587
49.8569
50.1001
50.3906
50.7681
50.9533
51.1806
51.3215
51.3876
51.4858
51.4518
51.4556
51.5466
51.5417
51.6609
51.7735
51.7591
51.9159
51.9332
51.9323
52.1359
52.0925
52.183
52.2871
52.1943
52.3934
52.4376
52.4979
52.7376
52.8898
53.1816
53.4506
53.748
54.1694
54.4945
54.9452
55.5148
55.93
56.3474
56.7519
57.0005
57.04
56.8525
56.1719
55.1456
53.3695
51.0687
48.1576
44.7201
40.9586
36.9758
32.6568
28.5468
24.5638
20.2477
16.3151
12.5206
9.18445
6.56206
4.88844
4.91543
7.06457
10.7271
16.3064
23.1881
30.5692
37.8237
44.198
49.7816
54.3327
58.3446
61.5604
64.3503
66.607
68.5421
70.45
72.0811
73.4196
74.842
75.6705
77.0745
77.3069
78.548
79.1525
79.2368
79.3527
78.6703
78.91
78.784
78.0917
76.9177
75.1992
73.0996
70.3364
67.141
63.5213
59.1724
54.6138
51.0799
48.6053
46.923
45.0226
43.5323
42.0016
40.4795
37.7467
35.724
30.0818
25.6852
17.9556
8.40235
0.486828
54.1008
54.2843
54.8384
54.9432
54.7676
54.5204
54.1926
53.9816
53.9603
54.0092
54.1287
54.2799
54.3722
54.4604
54.504
54.4341
54.4018
54.3187
54.1672
54.1205
53.9643
53.8403
53.8427
53.7012
53.6587
53.6742
53.6051
53.6444
53.6443
53.6232
53.6965
53.6855
53.663
53.7234
53.6994
53.6584
53.6872
53.6275
53.5884
53.5997
53.5113
53.5123
53.5204
53.4708
53.5029
53.5241
53.5051
53.5621
53.5949
53.5928
53.6357
53.6432
53.5804
53.5883
53.4946
53.3237
53.2427
53.0472
52.8273
52.6347
52.3861
52.2114
52.1262
51.9681
51.9362
51.9952
52.0064
52.0698
52.0864
52.0501
52.0565
51.9336
51.7871
51.5621
51.331
51.1008
50.8172
50.5872
50.2862
50.08
49.9587
49.7764
49.6722
49.5587
49.5375
49.587
49.5796
49.6689
49.7897
49.9233
50.1285
50.358
50.6918
50.9341
51.0907
51.3071
51.3772
51.5357
51.5465
51.5192
51.711
51.7147
51.8287
52.0517
52.0617
52.2339
52.3466
52.3847
52.5945
52.6791
52.7893
52.9494
53.0081
53.1382
53.3417
53.4755
53.6983
53.9936
54.2304
54.5828
54.9673
55.3451
55.8025
56.2378
56.8266
57.4293
57.8493
58.3108
58.7237
58.845
58.7165
58.0815
56.9353
55.1573
52.5335
49.4044
45.7116
41.6387
37.3272
32.8128
28.4267
24.1619
19.6234
15.2972
11.1112
7.29603
4.28668
2.24332
1.93069
3.73975
7.19657
12.7684
19.6545
27.2607
34.8363
41.7274
47.7001
52.648
57.0352
60.3895
63.3533
65.9348
67.9744
69.9287
71.5411
72.9339
74.4569
75.3543
76.5529
76.8667
78.1036
78.7867
78.7613
78.4785
77.8301
77.9632
77.5406
76.7776
75.7509
74.0705
71.7702
68.3064
63.4695
58.258
52.7517
47.2448
43.444
40.9076
39.1448
37.3697
36.6099
35.2393
34.5416
32.1757
31.3565
27.5355
24.0566
19.3528
12.138
6.24656
56.5728
56.1301
55.038
54.1599
53.6492
53.5618
53.5796
53.6755
53.8934
54.0746
54.2128
54.3593
54.4129
54.4753
54.4995
54.3929
54.3654
54.2779
54.1255
54.0994
53.9453
53.8277
53.8575
53.7197
53.6795
53.7064
53.6289
53.663
53.6597
53.6227
53.7012
53.6784
53.6392
53.7124
53.6802
53.6265
53.6726
53.6154
53.5867
53.6158
53.5253
53.5336
53.5521
53.4719
53.5191
53.5197
53.4798
53.532
53.5352
53.5274
53.5631
53.5388
53.4947
53.5036
53.4139
53.2678
53.2066
53.0539
52.8808
52.7291
52.5206
52.3987
52.3091
52.161
52.1018
52.1354
52.1185
52.1353
52.1292
52.0781
52.0748
51.9722
51.8205
51.6412
51.4165
51.2375
50.9838
50.7789
50.5384
50.3431
50.2656
50.1069
49.9947
49.9024
49.8448
49.8984
49.8298
49.8642
49.961
50.002
50.1898
50.3836
50.6597
50.9162
51.0575
51.2618
51.3888
51.5398
51.6246
51.6069
51.8386
51.9023
52.0042
52.3083
52.4018
52.5598
52.7554
52.8538
53.0219
53.2493
53.3837
53.5753
53.7782
53.896
54.1769
54.3985
54.6362
55.0036
55.2667
55.6291
56.0881
56.5047
57.0487
57.58
58.1378
58.8319
59.3862
59.8988
60.4077
60.6621
60.6014
60.0157
58.8022
56.9658
54.1387
50.6899
46.8505
42.5224
37.8512
33.2443
28.6698
24.1438
19.4778
14.8113
10.2595
6.11376
2.86139
0.562542
0.238053
1.54465
4.79948
10.5436
17.2877
24.9733
32.7553
39.9675
45.8917
51.3737
55.9066
59.4857
62.6005
65.2314
67.3407
69.4658
71.0718
72.6092
74.0041
74.9361
76.2611
76.7948
77.8219
78.2217
77.9545
77.2875
76.6985
77.0754
76.5601
75.4062
74.4799
73.0937
70.16
65.4267
59.4145
52.9891
46.5052
40.2193
36.2884
34.133
32.3476
30.3383
30.3173
29.3084
29.4934
27.7465
27.5893
26.195
24.1287
21.5976
17.007
12.6594
57.4619
56.8933
55.1608
53.7736
53.0285
52.9594
53.1797
53.4821
53.8664
54.1551
54.3154
54.4708
54.4998
54.5141
54.5057
54.3671
54.3224
54.233
54.0862
54.0733
53.9314
53.8288
53.8606
53.7409
53.7014
53.7173
53.6558
53.6761
53.6665
53.6396
53.699
53.6776
53.6314
53.6933
53.6762
53.6117
53.6554
53.621
53.5851
53.6225
53.5392
53.5467
53.5675
53.4716
53.521
53.509
53.451
53.5073
53.4769
53.4821
53.5071
53.4551
53.4451
53.4425
53.3523
53.2478
53.1831
53.0644
52.9339
52.7975
52.6259
52.5589
52.4392
52.3189
52.2621
52.2486
52.2376
52.2167
52.1904
52.1379
52.135
52.0231
51.9063
51.7338
51.5339
51.3872
51.1541
50.9678
50.7702
50.5862
50.5173
50.3833
50.2608
50.1769
50.1138
50.1215
50.0594
50.0119
50.1089
50.1291
50.2517
50.4455
50.6262
50.887
51.0417
51.2173
51.404
51.5607
51.6702
51.748
51.9473
52.0932
52.2117
52.5221
52.7401
52.8614
53.1564
53.2866
53.4643
53.7906
53.9621
54.2205
54.4706
54.6725
54.941
55.2074
55.558
55.9114
56.2708
56.6845
57.1109
57.6524
58.2157
58.8513
59.4795
60.0683
60.7993
61.4413
62.0031
62.4632
62.4037
61.8499
60.6157
58.505
55.5783
51.9683
47.9228
43.4334
38.6556
33.857
29.1413
24.5812
19.8799
15.0442
10.2455
5.80722
2.35268
0.0602864
-0.295306
0.745454
4.15397
9.60048
16.0112
23.8369
31.4917
38.6032
44.6589
50.6686
54.8931
58.5906
62.0608
64.7492
66.8164
69.0053
70.7292
72.4338
73.7988
74.8438
76.193
76.5548
77.2238
77.3221
76.8227
75.9254
75.0865
75.7071
75.6958
74.4352
73.452
72.3022
68.7966
62.8258
56.0184
49.1308
41.685
34.7589
30.7157
28.4319
26.6858
24.5095
24.9132
24.5492
25.3161
24.3878
24.8481
25.765
25.5419
24.9843
22.7331
19.3177
57.8437
57.3754
55.4354
53.8168
52.9015
52.722
52.9623
53.3407
53.8136
54.1864
54.3703
54.5445
54.5676
54.5344
54.5115
54.3448
54.2822
54.193
54.041
54.039
53.9119
53.8126
53.8519
53.7499
53.7117
53.7341
53.6825
53.6936
53.6789
53.6526
53.7011
53.6772
53.6259
53.6811
53.669
53.6044
53.637
53.6166
53.5731
53.6105
53.5463
53.5462
53.5709
53.4729
53.5193
53.5028
53.4324
53.4818
53.4357
53.4384
53.4615
53.3909
53.4047
53.3974
53.3035
53.2345
53.1633
53.0623
52.981
52.8403
52.7251
52.6686
52.5672
52.4585
52.4121
52.3681
52.3551
52.3268
52.2581
52.2376
52.1982
52.1076
51.9996
51.8373
51.6631
51.5327
51.3227
51.1479
50.9962
50.7923
50.7398
50.6235
50.4763
50.4298
50.3314
50.3352
50.2511
50.1725
50.259
50.2738
50.3306
50.4799
50.6334
50.8392
51.0236
51.1857
51.4031
51.5684
51.7164
51.8571
52.0634
52.2493
52.4025
52.7407
52.9808
53.2132
53.5185
53.72
53.9731
54.2918
54.573
54.8152
55.1308
55.4079
55.648
56.0159
56.4002
56.8037
57.202
57.6513
58.1559
58.6402
59.2778
59.9652
60.609
61.2144
61.9573
62.8078
63.4675
63.9364
63.9481
63.2709
61.908
59.6372
56.6382
53.0877
49.0064
44.4028
39.5512
34.6542
29.995
25.4063
20.7531
15.9946
11.1731
6.70921
3.12178
0.843352
0.462096
1.39323
4.90904
9.93405
16.0693
23.6121
30.9781
37.9651
43.9668
49.8962
54.1292
58.1272
61.7491
64.2426
66.4986
68.9044
70.6803
72.2868
73.7177
74.8509
76.0081
76.3228
76.815
76.6943
75.8874
74.7205
73.5794
74.1847
74.8236
73.9567
72.905
71.6789
67.6123
61.1551
54.1043
47.2818
39.4535
31.9938
27.6312
24.2756
22.3452
20.4313
21.0193
21.1159
22
21.9857
23.4779
26.4489
28.1835
29.3756
28.3736
25.7182
58.0934
57.675
55.6633
53.9226
52.8982
52.6069
52.8169
53.2206
53.7431
54.1689
54.3854
54.5737
54.6008
54.5441
54.4993
54.3303
54.2515
54.1534
54.0108
54.0071
53.8962
53.8088
53.8467
53.763
53.7211
53.7467
53.7036
53.7043
53.6822
53.6596
53.7072
53.6724
53.6271
53.6736
53.6591
53.6049
53.6266
53.6048
53.5741
53.5912
53.5519
53.5478
53.554
53.4787
53.5079
53.4931
53.4232
53.456
53.4143
53.4097
53.4221
53.3451
53.368
53.3556
53.2658
53.223
53.1529
53.0785
53.0154
52.8995
52.8014
52.7675
52.673
52.5881
52.5461
52.4837
52.4785
52.437
52.3534
52.3414
52.2887
52.2084
52.1149
51.9628
51.8064
51.6942
51.4929
51.341
51.2017
50.9939
50.9451
50.8381
50.6835
50.6342
50.5439
50.486
50.4386
50.3201
50.3774
50.3898
50.373
50.5008
50.6206
50.826
50.9821
51.1847
51.3969
51.5572
51.7741
51.9254
52.1827
52.3861
52.5896
52.9559
53.2352
53.5526
53.8823
54.1331
54.4389
54.7677
55.1091
55.4064
55.7531
56.1271
56.4031
56.819
57.2625
57.6443
58.0449
58.5265
59.091
59.5537
60.2021
60.9162
61.5367
62.1761
62.8215
63.6922
64.4211
64.84
64.8299
63.9901
62.4848
60.2854
57.3791
53.9043
49.7969
45.153
40.3055
35.5127
30.9727
26.5543
22.0915
17.465
12.7741
8.50117
5.06933
2.91056
2.49716
3.49751
6.82315
11.3486
17.2193
24.1667
31.0971
37.8147
43.751
49.409
53.6281
57.7289
61.5109
63.9879
66.3416
68.6847
70.4159
72.1981
73.813
74.903
75.8629
76.1839
76.6066
76.5976
75.7452
74.3151
73.1037
73.5443
74.4179
74.0138
72.851
71.2668
66.8502
59.9097
53.018
46.3336
38.6273
31.4726
26.5065
23.0949
20.2984
18.2453
18.6671
19.2339
20.3444
21.1459
23.9085
28.4501
31.8201
33.9848
33.928
32.1197
58.1893
57.7833
55.7483
53.9775
52.9248
52.5843
52.779
53.1988
53.7324
54.1738
54.4022
54.5866
54.6176
54.5441
54.4714
54.3176
54.2235
54.1101
53.9924
53.9764
53.8808
53.8144
53.8372
53.7758
53.7319
53.7484
53.7295
53.7139
53.6864
53.6715
53.7105
53.6732
53.626
53.6672
53.6463
53.6075
53.6164
53.5929
53.5759
53.5731
53.549
53.5523
53.5299
53.4846
53.499
53.4776
53.4194
53.4292
53.3907
53.3826
53.3812
53.3078
53.3371
53.3262
53.2375
53.2199
53.1498
53.0893
53.049
52.9481
52.8748
52.8543
52.7716
52.7077
52.6767
52.5983
52.6051
52.5547
52.4739
52.4524
52.4072
52.3191
52.2401
52.1025
51.9512
51.8577
51.6739
51.5265
51.4009
51.2031
51.137
51.0427
50.8806
50.8204
50.7104
50.6283
50.5665
50.4509
50.4514
50.4637
50.4315
50.5111
50.6575
50.7938
50.9674
51.1514
51.3483
51.5562
51.7603
52.0014
52.2489
52.5121
52.7827
53.133
53.5111
53.8409
54.2236
54.5524
54.8675
55.2716
55.6357
56.0058
56.3783
56.7634
57.1311
57.5099
58.0541
58.4369
58.753
59.3368
59.8847
60.31
61.0248
61.7522
62.1743
62.817
63.4055
63.9343
64.7562
65.1205
64.8358
64.0191
62.6056
60.4372
57.5323
54.1432
50.2498
45.7665
40.9134
36.1789
31.8685
27.7781
23.6446
19.3211
14.9006
10.9079
7.69654
5.66475
5.34005
6.14136
9.52987
13.6322
18.9613
25.2479
31.705
37.9757
43.6948
49.0421
53.2844
57.4922
61.0941
63.7558
66.4038
68.8104
70.3737
72.1648
73.9313
75.0957
76.0808
76.3779
76.7439
76.7979
76.1212
74.7091
73.6625
74.1398
74.8485
74.6265
73.681
71.7701
66.999
59.5862
52.4612
45.9744
38.3081
31.9685
26.4483
22.7765
19.4149
17.6727
17.8836
18.9333
20.5521
22.2238
26.3092
31.7885
36.0593
38.8385
39.8196
38.5086
58.1576
57.7513
55.7396
54.0175
52.9963
52.6656
52.8741
53.2855
53.8008
54.2124
54.4206
54.5875
54.6036
54.5206
54.4324
54.2922
54.196
54.0842
53.981
53.9611
53.8803
53.8256
53.8362
53.7883
53.7455
53.7507
53.7463
53.7216
53.6879
53.6745
53.7016
53.6724
53.6257
53.6586
53.6435
53.6071
53.6138
53.5859
53.576
53.5605
53.5434
53.5469
53.5146
53.4828
53.4903
53.4616
53.4188
53.4093
53.3742
53.364
53.348
53.2849
53.3098
53.2888
53.2236
53.2031
53.1558
53.1031
53.0775
52.9981
52.9433
52.9312
52.8617
52.8247
52.7849
52.7294
52.7115
52.6826
52.6011
52.5746
52.533
52.454
52.381
52.2555
52.133
52.0225
51.8741
51.723
51.5914
51.4281
51.3182
51.2271
51.0709
50.974
50.8648
50.7579
50.6852
50.5632
50.5241
50.5147
50.4716
50.5312
50.6399
50.7587
50.9091
51.0847
51.2973
51.5135
51.7599
52.035
52.3245
52.6284
52.9547
53.3336
53.724
54.1307
54.5279
54.9156
55.2969
55.7052
56.1609
56.5438
56.9634
57.4045
57.7484
58.1824
58.7053
59.0721
59.4064
59.9565
60.539
60.9007
61.4327
62.3034
62.6567
62.811
63.5161
64.0372
64.3026
64.6368
64.5059
63.6806
62.0859
59.9643
57.4039
54.3982
50.7698
46.403
41.4801
36.6357
32.4685
28.7794
25.0895
21.2379
17.2802
13.6724
10.7762
8.97488
8.53723
9.36542
12.3253
16.095
20.9001
26.5781
32.4061
38.2546
43.7302
48.754
53.0797
57.4416
60.9532
64.0301
66.7654
68.7558
70.115
72.1605
74.3275
75.6318
76.5226
76.6658
77.0171
77.2928
76.9882
75.7378
75.3247
75.5116
76.0178
75.7215
75.0721
73.2158
67.999
60.4298
52.8902
46.292
38.8642
32.6809
27.2566
23.5352
19.5678
18.7359
18.76
20.387
22.38
25.0146
30.2192
36.0118
40.6818
44.1398
45.7033
44.7071
57.9563
57.5421
55.6263
54.0438
53.1336
52.8788
53.0999
53.4896
53.9359
54.2785
54.4523
54.5658
54.5638
54.4734
54.3757
54.2521
54.1596
54.06
53.972
53.9432
53.8819
53.8368
53.8316
53.7995
53.7573
53.7511
53.7507
53.7221
53.6928
53.6796
53.6939
53.6738
53.6336
53.6467
53.6378
53.6064
53.6016
53.5847
53.566
53.5546
53.5383
53.5365
53.5063
53.4809
53.4762
53.4487
53.4159
53.3907
53.363
53.3442
53.3134
53.2751
53.2704
53.2574
53.2044
53.1885
53.1534
53.1185
53.0969
53.0439
53.0149
52.99
52.9615
52.9228
52.8989
52.8584
52.8331
52.8117
52.7496
52.7103
52.6714
52.6041
52.5198
52.4189
52.3077
52.1887
52.0631
51.9189
51.7808
51.6432
51.5081
51.3959
51.2511
51.1093
50.996
50.8737
50.7631
50.6608
50.5865
50.5496
50.5275
50.5464
50.6273
50.72
50.8497
51.0296
51.2302
51.4681
51.7368
52.0353
52.3546
52.7026
53.0715
53.4865
53.9205
54.3705
54.8184
55.2393
55.6835
56.1171
56.596
57.0233
57.4454
57.9056
58.2702
58.7404
59.1997
59.4881
59.8452
60.299
60.7788
61.3087
61.736
62.1803
62.7742
63.0093
63.0688
63.4867
63.9423
64.1813
63.5908
62.7127
61.413
59.6238
57.5124
55.0369
51.7363
47.3721
42.2775
37.3442
33.1415
29.5893
26.2109
22.7997
19.4039
16.2784
13.748
12.1921
11.8229
12.8167
15.2394
18.5836
22.9024
27.809
33.1412
38.6128
43.8924
48.6355
52.9945
57.2811
60.8839
64.3373
66.8896
68.7263
70.4643
72.7196
74.9239
76.2921
76.9574
77.0533
77.6245
78.3484
78.2473
76.9334
76.1163
76.7344
77.4615
77.1613
76.5818
74.6468
69.2804
61.7345
54.2887
47.3927
40.3484
34.1504
28.6166
25.4146
20.9505
21.0059
20.9378
23.5303
25.5762
28.9976
34.7892
40.6161
45.5385
49.7643
51.7154
51.2407
57.5006
57.1024
55.4564
54.1355
53.4099
53.2385
53.442
53.7742
54.107
54.3513
54.4746
54.5197
54.4916
54.4062
54.2999
54.2069
54.1216
54.0378
53.9788
53.9357
53.8933
53.8552
53.8336
53.8056
53.7711
53.7542
53.744
53.7237
53.6884
53.6813
53.6836
53.6596
53.6457
53.6361
53.6298
53.615
53.5938
53.5847
53.5662
53.5462
53.5383
53.5226
53.4975
53.4806
53.4618
53.4376
53.4097
53.3717
53.3479
53.3195
53.2862
53.2613
53.2501
53.2274
53.2025
53.1814
53.1524
53.138
53.1123
53.0878
53.073
53.0526
53.0413
53.0216
52.9958
52.9792
52.9493
52.9282
52.8877
52.8432
52.8081
52.7446
52.6661
52.5775
52.4739
52.3525
52.2383
52.1011
51.9562
51.835
51.6839
51.5537
51.41
51.2481
51.1197
50.9717
50.8448
50.7338
50.6392
50.5841
50.5518
50.5597
50.601
50.6823
50.8026
50.9722
51.1715
51.4143
51.7077
52.0198
52.3832
52.7627
53.1788
53.6239
54.0782
54.5628
55.0148
55.474
55.9412
56.3949
56.8956
57.3544
57.7798
58.2275
58.6324
59.1045
59.5037
59.7235
60.0962
60.4953
60.715
61.1349
61.7723
62.1736
62.3623
62.6827
62.9932
63.1576
63.2431
62.9738
62.7328
61.9582
60.7772
59.4203
57.964
56.1709
53.3011
49
43.7378
38.7488
34.4878
30.7901
27.4112
24.2401
21.2396
18.5278
16.3848
15.0569
14.7557
15.724
17.8518
20.8364
24.5897
28.884
33.7885
39.001
44.151
48.5757
52.9929
57.2708
60.9717
64.5004
66.9827
69.2546
71.4751
73.7312
75.8808
77.0947
77.5343
77.9574
78.992
80.2152
80.2264
78.9788
77.8335
78.3197
79.034
78.7866
78.2174
76.1635
71.0166
63.5065
56.086
49.277
42.38
36.2863
30.6982
27.5195
23.023
24.1741
23.6703
26.996
29.3175
33.5901
39.4661
45.3915
50.7996
55.8271
58.0932
57.9895
56.7279
56.4213
55.2614
54.3369
53.839
53.7283
53.8643
54.0813
54.2809
54.4101
54.4728
54.4696
54.4173
54.3392
54.2391
54.1639
54.0919
54.0237
53.9824
53.9362
53.8998
53.8699
53.8367
53.807
53.7818
53.7564
53.7373
53.7199
53.6871
53.6824
53.6748
53.6519
53.6529
53.6325
53.6226
53.617
53.5865
53.5801
53.5628
53.5416
53.5346
53.5137
53.4921
53.477
53.4529
53.4292
53.4038
53.366
53.3393
53.3086
53.2694
53.2499
53.2256
53.1988
53.1867
53.1656
53.147
53.1471
53.1303
53.1226
53.1263
53.1082
53.1128
53.1042
53.0818
53.0806
53.0562
53.0302
53.0099
52.9652
52.9214
52.8687
52.7899
52.7043
52.6096
52.4907
52.3766
52.2472
52.0999
51.9722
51.8177
51.6639
51.5204
51.3538
51.2041
51.0555
50.9129
50.7959
50.6904
50.6188
50.5785
50.5696
50.6027
50.6728
50.7883
50.944
51.1438
51.3922
51.6858
52.0205
52.3909
52.7962
53.2347
53.6978
54.1746
54.6694
55.1477
55.6248
56.1114
56.5744
57.0656
57.5279
57.9443
58.3653
58.7905
59.2532
59.581
59.7593
60.092
60.4769
60.6776
61.0051
61.4899
61.9405
62.2691
62.5004
62.6449
62.7302
62.708
62.4634
61.9986
61.3086
60.4561
59.5518
58.6291
57.2807
54.6757
50.6253
45.7169
40.8422
36.4696
32.5918
29.1337
25.9915
23.0946
20.5936
18.6928
17.5161
17.2587
18.1209
20.1042
22.6541
25.8173
29.6253
34.2218
39.2605
44.2116
48.6779
53.094
57.3654
61.1688
64.7734
67.3773
70.379
72.8152
74.8509
76.956
77.6754
77.8392
78.6803
80.6865
83.0837
83.1965
81.5965
80.0674
79.979
80.4638
80.4704
79.8884
78.1187
73.783
66.5383
58.8174
51.9563
45.0337
38.9595
33.0493
30.0312
25.4306
27.423
26.5467
30.3864
33.0112
37.968
44.0126
50.3186
56.2719
61.5936
64.1196
64.2587
55.8772
55.7269
55.1602
54.6746
54.3822
54.2724
54.2857
54.3544
54.4199
54.4524
54.4558
54.4142
54.3475
54.275
54.193
54.1325
54.0755
54.0232
53.9872
53.9427
53.9078
53.8774
53.8387
53.8086
53.7846
53.7551
53.7315
53.7136
53.6885
53.681
53.6692
53.6521
53.6529
53.6315
53.6206
53.6136
53.586
53.5789
53.5611
53.541
53.5311
53.507
53.489
53.4705
53.4425
53.4185
53.3909
53.3536
53.3259
53.2931
53.2584
53.2395
53.2135
53.1914
53.1822
53.1651
53.1546
53.1572
53.1487
53.1511
53.1601
53.1529
53.162
53.1601
53.1465
53.1469
53.1248
53.1026
53.0835
53.0422
52.998
52.9454
52.8705
52.7868
52.6946
52.579
52.4638
52.3384
52.1948
52.0611
51.9078
51.7501
51.6002
51.4321
51.2705
51.1154
50.9674
50.8424