/*--------------------------------*- C++ -*----------------------------------*\
| =========                 |                                                 |
| \\      /  F ield         | OpenFOAM: The Open Source CFD Toolbox           |
|  \\    /   O peration     | Version:  2.4.0                                 |
|   \\  /    A nd           | Web:      www.OpenFOAM.org                      |
|    \\/     M anipulation  |                                                 |
\*---------------------------------------------------------------------------*/
FoamFile
{
    version     2.0;
    format      ascii;
    class       surfaceScalarField;
    location    "1.3";
    object      phi;
}
// * * * * * * * * * * * * * * * * * * * * * * * * * * * * * * * * * * * * * //

dimensions      [0 3 -1 0 0 0 0];

internalField   nonuniform List<scalar> 
17320
(
1.76388e-05
7.36122e-06
1.16205e-05
6.0183e-06
8.67975e-06
2.94073e-06
7.35588e-06
1.32386e-06
6.72099e-06
6.34898e-07
6.33912e-06
3.81866e-07
6.08053e-06
2.58586e-07
5.8729e-06
2.07635e-07
5.70302e-06
1.69881e-07
5.58793e-06
1.15083e-07
5.47579e-06
1.12143e-07
5.39733e-06
7.84582e-08
5.30048e-06
9.68575e-08
5.23937e-06
6.11052e-08
5.13852e-06
1.0085e-07
5.09113e-06
4.73932e-08
4.98861e-06
1.02514e-07
5.02047e-06
-3.18539e-08
4.81837e-06
2.02097e-07
-4.59375e-07
5.27774e-06
2.54653e-05
6.89595e-06
2.325e-05
8.23353e-06
2.09879e-05
5.2029e-06
1.9321e-05
2.99073e-06
1.80768e-05
1.8791e-06
1.71095e-05
1.34917e-06
1.63715e-05
9.96606e-07
1.57739e-05
8.05268e-07
1.53066e-05
6.37102e-07
1.49409e-05
4.80816e-07
1.46309e-05
4.22198e-07
1.43846e-05
3.24707e-07
1.41435e-05
3.37987e-07
1.39587e-05
2.45862e-07
1.37287e-05
3.30834e-07
1.35917e-05
1.84417e-07
1.33541e-05
3.40127e-07
1.33355e-05
-1.32849e-08
1.32115e-05
3.26139e-07
-6.17981e-07
1.33701e-05
2.66269e-05
5.26902e-06
2.71551e-05
7.70531e-06
2.67793e-05
5.57873e-06
2.62546e-05
3.51541e-06
2.56058e-05
2.52796e-06
2.48716e-05
2.08335e-06
2.41689e-05
1.69927e-06
2.34994e-05
1.47476e-06
2.29363e-05
1.2002e-06
2.24508e-05
9.66357e-07
2.20333e-05
8.39652e-07
2.16844e-05
6.73613e-07
2.13566e-05
6.65855e-07
2.10909e-05
5.11566e-07
2.07905e-05
6.31206e-07
2.05841e-05
3.90773e-07
2.02956e-05
6.28685e-07
2.01829e-05
9.93994e-08
2.01752e-05
3.33856e-07
-1.00568e-06
2.05629e-05
2.63365e-05
3.93256e-06
2.75333e-05
6.50847e-06
2.80772e-05
5.03478e-06
2.84636e-05
3.12908e-06
2.86482e-05
2.34332e-06
2.86245e-05
2.1071e-06
2.84871e-05
1.83665e-06
2.82278e-05
1.73402e-06
2.7973e-05
1.455e-06
2.76976e-05
1.24184e-06
2.7432e-05
1.10523e-06
2.71733e-05
9.32304e-07
2.69205e-05
9.18665e-07
2.66874e-05
7.4466e-07
2.64293e-05
8.89322e-07
2.62084e-05
6.11635e-07
2.59764e-05
8.60664e-07
2.57177e-05
3.58156e-07
2.56089e-05
4.42613e-07
-6.0401e-07
2.52072e-05
2.60564e-05
2.87613e-06
2.72552e-05
5.30966e-06
2.80233e-05
4.26671e-06
2.84918e-05
2.66063e-06
2.89786e-05
1.85645e-06
2.93326e-05
1.75315e-06
2.95954e-05
1.57387e-06
2.97312e-05
1.59814e-06
2.98585e-05
1.32777e-06
2.99046e-05
1.19572e-06
2.99638e-05
1.04598e-06
2.99616e-05
9.34539e-07
2.99672e-05
9.13099e-07
2.99282e-05
7.83636e-07
2.98993e-05
9.18224e-07
2.97882e-05
7.22751e-07
2.97387e-05
9.10116e-07
2.9469e-05
6.27909e-07
2.93571e-05
5.54498e-07
-2.13472e-09
2.87552e-05
2.58359e-05
2.04018e-06
2.69719e-05
4.17374e-06
2.78187e-05
3.41988e-06
2.822e-05
2.25932e-06
2.86787e-05
1.39773e-06
2.91058e-05
1.3261e-06
2.95036e-05
1.17602e-06
2.96909e-05
1.41087e-06
3.00042e-05
1.01444e-06
3.01452e-05
1.05471e-06
3.04156e-05
7.75572e-07
3.04941e-05
8.56088e-07
3.07459e-05
6.61278e-07
3.07998e-05
7.29708e-07
3.10598e-05
6.58271e-07
3.10209e-05
7.61677e-07
3.12356e-05
6.95425e-07
3.09655e-05
8.97987e-07
3.10252e-05
4.94731e-07
8.06403e-07
3.02167e-05
2.57024e-05
1.33774e-06
2.67567e-05
3.11946e-06
2.76312e-05
2.54543e-06
2.80357e-05
1.85479e-06
2.84229e-05
1.01058e-06
2.87748e-05
9.74124e-07
2.91891e-05
7.6171e-07
2.94542e-05
1.14585e-06
2.98628e-05
6.05769e-07
2.99768e-05
9.40726e-07
3.03248e-05
4.27622e-07
3.03864e-05
7.94494e-07
3.06903e-05
3.57376e-07
3.06778e-05
7.42146e-07
3.10262e-05
3.0992e-07
3.10055e-05
7.82328e-07
3.13655e-05
3.35402e-07
3.11446e-05
1.11898e-06
3.10253e-05
6.13989e-07
1.72565e-06
3.01061e-05
2.55104e-05
8.27294e-07
2.66321e-05
1.99781e-06
2.7485e-05
1.69252e-06
2.79947e-05
1.3451e-06
2.83981e-05
6.07121e-07
2.86579e-05
7.14342e-07
2.89689e-05
4.50734e-07
2.93426e-05
7.72204e-07
2.9554e-05
3.94289e-07
2.97996e-05
6.95172e-07
3.00405e-05
1.86692e-07
3.02714e-05
5.63627e-07
3.04543e-05
1.74477e-07
3.06517e-05
5.44715e-07
3.07892e-05
1.72392e-07
3.09987e-05
5.72828e-07
3.11111e-05
2.23057e-07
3.15029e-05
7.2712e-07
3.17932e-05
3.23713e-07
6.90318e-07
3.28286e-05
2.54787e-05
3.4855e-07
2.64459e-05
1.03067e-06
2.73503e-05
7.88106e-07
2.79114e-05
7.83963e-07
2.81477e-05
3.70897e-07
2.86261e-05
2.35887e-07
2.89477e-05
1.29183e-07
2.91484e-05
5.71447e-07
2.94892e-05
5.3459e-08
2.98833e-05
3.01107e-07
2.99104e-05
1.59641e-07
3.00892e-05
3.84762e-07
3.02512e-05
1.24929e-08
3.05176e-05
2.78285e-07
3.06526e-05
3.74397e-08
3.09488e-05
2.76639e-07
3.10594e-05
1.12399e-07
3.13967e-05
3.89897e-07
3.16227e-05
9.7713e-08
8.59408e-08
3.2227e-05
2.54345e-05
-8.59655e-08
2.6417e-05
4.81604e-08
2.71868e-05
1.83037e-08
2.78809e-05
8.98509e-08
2.83608e-05
-1.08998e-07
2.85613e-05
3.54382e-08
2.87402e-05
-4.97586e-08
2.91626e-05
1.4904e-07
2.9347e-05
-1.30932e-07
2.96422e-05
5.90486e-09
2.99514e-05
-1.4952e-07
3.01635e-05
1.72634e-07
3.01884e-05
-1.23878e-08
3.04404e-05
2.63023e-08
3.06992e-05
-2.21346e-07
3.0938e-05
3.78017e-08
3.10665e-05
-1.61119e-08
3.13137e-05
1.42685e-07
3.1549e-05
-1.37597e-07
-2.31681e-07
3.18667e-05
2.54107e-05
-4.96706e-07
2.63954e-05
-9.36512e-07
2.73021e-05
-8.88388e-07
2.79407e-05
-5.48697e-07
2.8146e-05
-3.14373e-07
2.85196e-05
-3.38152e-07
2.88558e-05
-3.8599e-07
2.91538e-05
-1.48892e-07
2.93721e-05
-3.49285e-07
2.97387e-05
-3.60619e-07
2.98583e-05
-2.6914e-07
3.01194e-05
-8.84776e-08
3.02272e-05
-1.20187e-07
3.04407e-05
-1.87189e-07
3.05626e-05
-3.43296e-07
3.09114e-05
-3.10997e-07
3.10966e-05
-2.01301e-07
3.13607e-05
-1.21391e-07
3.15796e-05
-3.56486e-07
-4.93999e-07
3.18419e-05
2.54657e-05
-9.62408e-07
2.64876e-05
-1.95838e-06
2.73035e-05
-1.70432e-06
2.79575e-05
-1.20271e-06
2.8248e-05
-6.04832e-07
2.85256e-05
-6.15739e-07
2.88388e-05
-6.99247e-07
2.9268e-05
-5.78094e-07
2.95054e-05
-5.86658e-07
2.97252e-05
-5.80413e-07
2.98987e-05
-4.42629e-07
3.01476e-05
-3.3742e-07
3.03411e-05
-3.1367e-07
3.05883e-05
-4.3443e-07
3.07095e-05
-4.64425e-07
3.08676e-05
-4.69103e-07
3.10639e-05
-3.97663e-07
3.14258e-05
-4.83282e-07
3.16916e-05
-6.22262e-07
-6.63363e-07
3.1861e-05
2.55472e-05
-1.5096e-06
2.65688e-05
-2.97999e-06
2.74057e-05
-2.54126e-06
2.79997e-05
-1.79672e-06
2.83269e-05
-9.31996e-07
2.87309e-05
-1.01972e-06
2.89981e-05
-9.66421e-07
2.93284e-05
-9.08384e-07
2.9599e-05
-8.57308e-07
2.98624e-05
-8.43799e-07
2.99556e-05
-5.35843e-07
3.02305e-05
-6.12324e-07
3.04681e-05
-5.5125e-07
3.06757e-05
-6.4202e-07
3.074e-05
-5.28728e-07
3.09724e-05
-7.01521e-07
3.12265e-05
-6.51801e-07
3.15642e-05
-8.20891e-07
3.1789e-05
-8.47058e-07
-8.66544e-07
3.19921e-05
2.56692e-05
-2.17882e-06
2.67259e-05
-4.03669e-06
2.75945e-05
-3.40985e-06
2.80905e-05
-2.29274e-06
2.84839e-05
-1.32532e-06
2.88458e-05
-1.38168e-06
2.91645e-05
-1.28506e-06
2.9495e-05
-1.23888e-06
2.97445e-05
-1.10684e-06
2.99967e-05
-1.09603e-06
3.01958e-05
-7.3496e-07
3.0449e-05
-8.65472e-07
3.06114e-05
-7.13647e-07
3.07902e-05
-8.20801e-07
3.09052e-05
-6.438e-07
3.11633e-05
-9.59613e-07
3.1366e-05
-8.54449e-07
3.16731e-05
-1.12798e-06
3.18849e-05
-1.05893e-06
-1.14036e-06
3.21588e-05
2.58269e-05
-3.00577e-06
2.69509e-05
-5.16064e-06
2.78211e-05
-4.28009e-06
2.82369e-05
-2.70851e-06
2.86964e-05
-1.78485e-06
2.9108e-05
-1.7933e-06
2.94477e-05
-1.62471e-06
2.97209e-05
-1.5121e-06
2.99897e-05
-1.37564e-06
3.01795e-05
-1.2858e-06
3.03671e-05
-9.22582e-07
3.05394e-05
-1.03776e-06
3.07049e-05
-8.79159e-07
3.08358e-05
-9.51695e-07
3.09529e-05
-7.60891e-07
3.11063e-05
-1.11298e-06
3.12008e-05
-9.49016e-07
3.13939e-05
-1.32104e-06
3.15268e-05
-1.19183e-06
-1.42213e-06
3.18086e-05
2.60198e-05
-4.02554e-06
2.72453e-05
-6.38613e-06
2.80394e-05
-5.07419e-06
2.84908e-05
-3.15989e-06
2.89858e-05
-2.27992e-06
2.93323e-05
-2.1398e-06
2.95866e-05
-1.87894e-06
2.97339e-05
-1.65942e-06
2.98505e-05
-1.49228e-06
2.98844e-05
-1.31964e-06
2.99556e-05
-9.9387e-07
2.99458e-05
-1.02797e-06
2.99555e-05
-8.8884e-07
2.99046e-05
-9.00742e-07
2.98713e-05
-7.27667e-07
2.97752e-05
-1.01678e-06
2.9685e-05
-8.58832e-07
2.96085e-05
-1.24457e-06
2.95239e-05
-1.10724e-06
-1.49912e-06
2.96009e-05
2.62977e-05
-5.32327e-06
2.7554e-05
-7.6424e-06
2.80703e-05
-5.59046e-06
2.84423e-05
-3.53195e-06
2.86557e-05
-2.49331e-06
2.86209e-05
-2.10501e-06
2.84708e-05
-1.72877e-06
2.82363e-05
-1.42499e-06
2.79623e-05
-1.21826e-06
2.76723e-05
-1.02959e-06
2.74346e-05
-7.56208e-07
2.7152e-05
-7.45363e-07
2.69077e-05
-6.44582e-07
2.66412e-05
-6.34159e-07
2.64209e-05
-5.0746e-07
2.61213e-05
-7.17102e-07
2.58751e-05
-6.12692e-07
2.55395e-05
-9.08958e-07
2.52937e-05
-8.61383e-07
-1.33037e-06
2.51249e-05
2.65989e-05
-6.92213e-06
2.71651e-05
-8.20866e-06
2.67726e-05
-5.1979e-06
2.62461e-05
-3.00545e-06
2.56127e-05
-1.85998e-06
2.48657e-05
-1.35796e-06
2.41541e-05
-1.01716e-06
2.35087e-05
-7.79594e-07
2.29253e-05
-6.34853e-07
2.24298e-05
-5.34134e-07
2.20382e-05
-3.64587e-07
2.16613e-05
-3.68486e-07
2.13418e-05
-3.25051e-07
2.10352e-05
-3.27617e-07
2.07796e-05
-2.51816e-07
2.04526e-05
-3.9009e-07
2.01808e-05
-3.40937e-07
1.97656e-05
-4.93755e-07
1.9392e-05
-4.87754e-07
-4.75146e-07
1.85368e-05
2.5447e-05
-7.36917e-06
2.32517e-05
-6.01329e-06
2.09863e-05
-2.93255e-06
1.93146e-05
-1.33373e-06
1.80825e-05
-6.27865e-07
1.71067e-05
-3.82206e-07
1.63598e-05
-2.7022e-07
1.57781e-05
-1.97917e-07
1.53045e-05
-1.61202e-07
1.49179e-05
-1.47604e-07
1.46356e-05
-8.22375e-08
1.4364e-05
-9.69365e-08
1.41299e-05
-9.09139e-08
1.39012e-05
-9.89317e-08
1.37148e-05
-6.54281e-08
1.34547e-05
-1.30007e-07
1.32248e-05
-1.11015e-07
1.28961e-05
-1.6502e-07
1.26217e-05
-2.13349e-07
-7.65068e-08
1.2223e-05
1.76308e-05
1.16175e-05
8.68498e-06
7.35126e-06
6.72339e-06
6.34119e-06
6.07097e-06
5.87305e-06
5.71185e-06
5.56424e-06
5.48201e-06
5.38507e-06
5.29415e-06
5.19522e-06
5.12979e-06
4.99979e-06
4.88877e-06
4.72375e-06
4.5104e-06
4.4339e-06
5.73751e-06
-2.98683e-07
-1.61081e-07
6.10431e-06
-1.69107e-07
-1.97691e-07
6.36226e-06
-7.1551e-08
-1.86402e-07
6.56014e-06
-3.98025e-08
-1.58076e-07
6.74298e-06
-6.44621e-08
-1.18382e-07
6.92738e-06
-1.13048e-07
-7.13454e-08
7.11407e-06
-1.66918e-07
-1.97783e-08
7.29574e-06
-1.82856e-07
1.19069e-09
7.45582e-06
-1.74876e-07
1.47915e-08
7.59879e-06
-1.54811e-07
1.18428e-08
7.72039e-06
-1.30385e-07
8.78302e-09
7.82553e-06
-1.13963e-07
8.8294e-09
7.91847e-06
-1.10066e-07
1.71266e-08
8.00833e-06
-8.98237e-08
-4.52636e-11
8.09695e-06
-7.82628e-08
-1.03517e-08
8.20705e-06
-4.74909e-08
-6.26078e-08
8.31423e-06
-1.58043e-08
-9.13819e-08
8.44157e-06
6.69185e-09
-1.34028e-07
8.57659e-06
2.68056e-08
-1.61821e-07
8.71681e-06
3.799e-08
-1.78217e-07
8.86581e-06
3.42912e-08
-1.83287e-07
9.01914e-06
2.57953e-08
-1.79123e-07
9.15417e-06
1.38377e-08
-1.48876e-07
9.27227e-06
-2.54918e-08
-9.26049e-08
9.37632e-06
-6.86479e-08
-3.54039e-08
9.46146e-06
-1.13035e-07
2.78946e-08
9.53e-06
-1.59992e-07
9.14524e-08
9.58215e-06
-1.84772e-07
1.32628e-07
9.63637e-06
-1.9803e-07
1.43811e-07
9.68982e-06
-1.90862e-07
1.37413e-07
9.74278e-06
-1.69063e-07
1.161e-07
9.81189e-06
-1.50739e-07
8.16319e-08
9.87462e-06
-1.15248e-07
5.25096e-08
9.9462e-06
-9.22829e-08
2.07114e-08
1.00285e-05
-6.8601e-08
-1.37408e-08
1.01155e-05
-4.84775e-08
-3.84593e-08
1.02193e-05
-2.8287e-08
-7.55537e-08
1.03152e-05
-1.99389e-08
-7.59604e-08
1.0393e-05
-1.63188e-08
-6.1511e-08
1.04789e-05
-2.29475e-08
-6.29058e-08
1.05529e-05
-2.46861e-08
-4.93205e-08
1.06237e-05
-3.5713e-08
-3.50774e-08
1.06892e-05
-4.80334e-08
-1.75053e-08
1.07519e-05
-7.10893e-08
8.44232e-09
1.08126e-05
-9.06612e-08
2.99503e-08
1.08709e-05
-1.12141e-07
5.38744e-08
1.09294e-05
-1.40438e-07
8.19212e-08
1.09761e-05
-1.52399e-07
1.05634e-07
1.10207e-05
-1.73779e-07
1.29265e-07
1.10642e-05
-1.6847e-07
1.24903e-07
1.11017e-05
-1.52031e-07
1.14502e-07
1.11418e-05
-1.21014e-07
8.09585e-08
1.11893e-05
-6.88028e-08
2.12915e-08
1.12492e-05
1.18215e-08
-7.16719e-08
1.13505e-05
9.2328e-08
-1.93669e-07
1.1492e-05
2.17676e-07
-3.59217e-07
1.16754e-05
2.93223e-07
-4.76534e-07
1.18962e-05
3.55901e-07
-5.76726e-07
1.21668e-05
3.53344e-07
-6.24001e-07
1.24176e-05
2.94288e-07
-5.45031e-07
1.26184e-05
1.75599e-07
-3.76403e-07
1.27194e-05
9.16328e-09
-1.10171e-07
1.27227e-05
-1.67703e-07
1.64351e-07
1.26717e-05
-3.22647e-07
3.73744e-07
1.25828e-05
-3.92984e-07
4.81807e-07
1.25039e-05
-4.25062e-07
5.04038e-07
1.244e-05
-3.92144e-07
4.55993e-07
1.24053e-05
-3.37893e-07
3.72553e-07
1.24238e-05
-2.2842e-07
2.09957e-07
1.24537e-05
-1.40574e-07
1.10681e-07
1.25452e-05
-2.783e-08
-6.37105e-08
1.26932e-05
4.997e-08
-1.97888e-07
1.28535e-05
1.9564e-07
-3.56017e-07
1.30462e-05
2.38078e-07
-4.30706e-07
1.32574e-05
3.19835e-07
-5.31042e-07
1.35064e-05
3.40365e-07
-5.8942e-07
1.3783e-05
3.43749e-07
-6.20355e-07
1.40835e-05
3.53909e-07
-6.54338e-07
1.43746e-05
2.83214e-07
-5.74384e-07
1.47195e-05
2.3292e-07
-5.77784e-07
1.50178e-05
6.41677e-08
-3.62492e-07
1.53817e-05
-1.27753e-07
-2.36083e-07
1.56875e-05
-3.01008e-07
-4.84179e-09
1.5983e-05
-5.54741e-07
2.59282e-07
1.62661e-05
-7.61178e-07
4.78029e-07
1.65713e-05
-1.00469e-06
6.99497e-07
1.68466e-05
-1.17397e-06
8.98725e-07
1.71325e-05
-1.31095e-06
1.02497e-06
1.74164e-05
-1.45449e-06
1.17061e-06
1.76877e-05
-1.53407e-06
1.26274e-06
1.79445e-05
-1.63078e-06
1.37405e-06
1.82665e-05
-1.6211e-06
1.29904e-06
1.85211e-05
-1.58561e-06
1.33103e-06
1.88801e-05
-1.57198e-06
1.21302e-06
1.92173e-05
-1.43934e-06
1.10209e-06
1.95313e-05
-1.44457e-06
1.13058e-06
1.99025e-05
-1.37611e-06
1.0049e-06
2.01964e-05
-1.3314e-06
1.03749e-06
2.05222e-05
-1.38309e-06
1.05726e-06
2.0789e-05
-1.33272e-06
1.06591e-06
2.10783e-05
-1.42068e-06
1.13138e-06
2.13253e-05
-1.45325e-06
1.20625e-06
2.15496e-05
-1.49203e-06
1.26774e-06
2.17818e-05
-1.68407e-06
1.45193e-06
2.19726e-05
-1.58982e-06
1.39902e-06
2.21736e-05
-1.85109e-06
1.65004e-06
2.23526e-05
-1.71789e-06
1.53891e-06
2.25351e-05
-1.94293e-06
1.76039e-06
2.28057e-05
-1.89391e-06
1.62336e-06
2.29105e-05
-1.99306e-06
1.88825e-06
2.33589e-05
-2.23896e-06
1.79056e-06
2.35018e-05
-2.21004e-06
2.06716e-06
2.39737e-05
-2.61247e-06
2.1405e-06
2.43076e-05
-2.73494e-06
2.40112e-06
2.47651e-05
-3.10112e-06
2.64357e-06
2.52302e-05
-3.469e-06
3.00391e-06
2.57029e-05
-3.80867e-06
3.33601e-06
2.62676e-05
-4.31857e-06
3.75384e-06
2.67943e-05
-4.85279e-06
4.32613e-06
2.73571e-05
-5.24439e-06
4.68158e-06
2.79876e-05
-6.01744e-06
5.38688e-06
2.8535e-05
-6.53957e-06
5.99217e-06
2.91346e-05
-7.15405e-06
6.5545e-06
2.96903e-05
-7.87131e-06
7.31562e-06
3.01876e-05
-8.4878e-06
7.99042e-06
3.07152e-05
-9.06861e-06
8.541e-06
3.11258e-05
-9.79238e-06
9.38181e-06
3.14294e-05
-1.01879e-05
9.88437e-06
3.16654e-05
-1.08486e-05
1.06126e-05
3.18841e-05
-1.11024e-05
1.08836e-05
3.19884e-05
-1.17558e-05
1.16515e-05
3.20234e-05
-1.17881e-05
1.17531e-05
3.21846e-05
-1.23994e-05
1.22381e-05
3.23487e-05
-1.24485e-05
1.22844e-05
3.24149e-05
-1.27521e-05
1.26859e-05
3.27784e-05
-1.26305e-05
1.2267e-05
3.33401e-05
-1.30153e-05
1.24536e-05
3.37056e-05
-1.26275e-05
1.2262e-05
3.42929e-05
-1.23237e-05
1.17364e-05
3.50746e-05
-1.20451e-05
1.12634e-05
3.56744e-05
-1.15377e-05
1.0938e-05
3.6129e-05
-1.04031e-05
9.94842e-06
3.68431e-05
-9.65138e-06
8.93736e-06
3.72657e-05
-8.56633e-06
8.14368e-06
3.7544e-05
-7.03274e-06
6.75441e-06
3.77721e-05
-5.84542e-06
5.61738e-06
3.76713e-05
-4.08774e-06
4.18851e-06
3.74236e-05
-2.44018e-06
2.68795e-06
3.68587e-05
-8.22166e-07
1.38699e-06
3.60849e-05
7.1332e-07
6.05004e-08
3.4951e-05
2.26677e-06
-1.13285e-06
3.37834e-05
3.03881e-06
-1.87126e-06
3.2234e-05
3.82687e-06
-2.27743e-06
3.07896e-05
4.42232e-06
-2.97787e-06
2.9391e-05
4.25261e-06
-2.85404e-06
2.77823e-05
4.61732e-06
-3.00862e-06
2.63512e-05
4.62118e-06
-3.19005e-06
2.49049e-05
4.25803e-06
-2.81173e-06
2.33942e-05
4.63831e-06
-3.12769e-06
2.23313e-05
4.5826e-06
-3.51968e-06
2.1177e-05
4.32933e-06
-3.17499e-06
1.98109e-05
5.28538e-06
-3.91925e-06
1.89784e-05
5.12599e-06
-4.29353e-06
1.81393e-05
4.82274e-06
-3.98369e-06
1.74679e-05
4.58926e-06
-3.91777e-06
1.64014e-05
6.11275e-06
-5.04626e-06
1.61672e-05
4.35563e-06
-4.12145e-06
1.53376e-05
4.50368e-06
-3.67409e-06
1.47995e-05
3.96595e-06
-3.42785e-06
1.37772e-05
5.69595e-06
-4.67361e-06
1.3885e-05
5.21518e-06
-5.32308e-06
1.4354e-05
2.593e-06
-3.06193e-06
1.3684e-05
2.12141e-06
-1.45139e-06
1.23137e-05
2.69226e-06
-1.32201e-06
1.17378e-05
4.4495e-06
-3.8736e-06
1.26886e-05
4.96701e-06
-5.91779e-06
1.39794e-05
2.9474e-06
-4.23822e-06
1.49443e-05
1.47387e-08
-9.7964e-07
1.63422e-05
-3.44158e-06
2.04374e-06
1.74809e-05
-6.61771e-06
5.47894e-06
1.827e-05
-9.3878e-06
8.59872e-06
1.89424e-05
-9.48355e-06
8.81112e-06
1.91765e-05
-7.35455e-06
7.12052e-06
1.90387e-05
-5.04802e-06
5.18581e-06
1.90178e-05
-3.31646e-06
3.33734e-06
1.89783e-05
-2.28376e-06
2.32328e-06
1.97894e-05
-2.06854e-06
1.25737e-06
2.15089e-05
-8.33925e-08
-1.63606e-06
2.28948e-05
3.91093e-06
-5.29684e-06
2.34484e-05
7.43792e-06
-7.99151e-06
2.4377e-05
1.10005e-05
-1.19291e-05
2.49114e-05
1.67577e-05
-1.72921e-05
2.46643e-05
2.14914e-05
-2.12442e-05
2.32995e-05
2.46254e-05
-2.32606e-05
2.18899e-05
2.59517e-05
-2.45421e-05
2.09062e-05
2.79394e-05
-2.69558e-05
1.93067e-05
3.01433e-05
-2.85437e-05
1.68118e-05
3.25005e-05
-3.00056e-05
1.58278e-05
3.28975e-05
-3.19135e-05
3.83046e-05
-3.77843e-05
1.53075e-05
1.33782e-05
-3.06798e-07
1.33899e-05
-1.80798e-07
1.34069e-05
-8.85841e-08
1.34464e-05
-7.92391e-08
1.35252e-05
-1.43284e-07
1.36223e-05
-2.10122e-07
1.37357e-05
-2.80338e-07
1.38474e-05
-2.94568e-07
1.39365e-05
-2.64026e-07
1.40185e-05
-2.36761e-07
1.40813e-05
-1.93149e-07
1.41362e-05
-1.68941e-07
1.41868e-05
-1.60662e-07
1.42314e-05
-1.34356e-07
1.42827e-05
-1.29626e-07
1.43445e-05
-1.09235e-07
1.44117e-05
-8.30502e-08
1.44893e-05
-7.09044e-08
1.45721e-05
-5.59517e-08
1.46548e-05
-4.47834e-08
1.47424e-05
-5.32889e-08
1.48296e-05
-6.14189e-08
1.49124e-05
-6.89504e-08
1.49894e-05
-1.02446e-07
1.5049e-05
-1.28292e-07
1.50982e-05
-1.62204e-07
1.51423e-05
-2.04147e-07
1.51724e-05
-2.14816e-07
1.52042e-05
-2.29804e-07
1.52421e-05
-2.28761e-07
1.52685e-05
-1.95496e-07
1.53121e-05
-1.94307e-07
1.53489e-05
-1.52099e-07
1.5386e-05
-1.29329e-07
1.54292e-05
-1.11817e-07
1.54729e-05
-9.21844e-08
1.55218e-05
-7.71605e-08
1.55782e-05
-7.63574e-08
1.56244e-05
-6.25162e-08
1.56741e-05
-7.26523e-08
1.57295e-05
-8.00727e-08
1.57848e-05
-9.10181e-08
1.58414e-05
-1.04671e-07
1.59068e-05
-1.36446e-07
1.59645e-05
-1.48399e-07
1.60288e-05
-1.7647e-07
1.60939e-05
-2.05534e-07
1.61446e-05
-2.03022e-07
1.6205e-05
-2.34242e-07
1.62505e-05
-2.13918e-07
1.63005e-05
-2.02025e-07
1.6345e-05
-1.65516e-07
1.63909e-05
-1.14757e-07
1.6446e-05
-4.32394e-08
1.65116e-05
2.6694e-08
1.6607e-05
1.22292e-07
1.67123e-05
1.87912e-07
1.68343e-05
2.33875e-07
1.69662e-05
2.21486e-07
1.70784e-05
1.82104e-07
1.71651e-05
8.88427e-08
1.72048e-05
-3.0469e-08
1.71874e-05
-1.5038e-07
1.71383e-05
-2.73551e-07
1.70863e-05
-3.4092e-07
1.70207e-05
-3.59449e-07
1.69873e-05
-3.58804e-07
1.69696e-05
-3.2015e-07
1.69842e-05
-2.42999e-07
1.70384e-05
-1.94779e-07
1.71033e-05
-9.28031e-08
1.72138e-05
-6.047e-08
1.7383e-05
2.63927e-08
1.75432e-05
7.78912e-08
1.77599e-05
1.03097e-07
1.79772e-05
1.23145e-07
1.82379e-05
8.30033e-08
1.8548e-05
4.38606e-08
1.88378e-05
-6.64049e-09
1.91961e-05
-1.25313e-07
1.95015e-05
-2.41322e-07
1.98578e-05
-4.84034e-07
2.01935e-05
-6.36702e-07
2.05149e-05
-8.76145e-07
2.08348e-05
-1.08103e-06
2.11118e-05
-1.28173e-06
2.14474e-05
-1.50954e-06
2.17163e-05
-1.57989e-06
2.20276e-05
-1.76573e-06
2.22841e-05
-1.79065e-06
2.25559e-05
-1.90256e-06
2.28194e-05
-1.8846e-06
2.31037e-05
-1.86989e-06
2.33617e-05
-1.82997e-06
2.36669e-05
-1.74457e-06
2.39443e-05
-1.72196e-06
2.41762e-05
-1.608e-06
2.44879e-05
-1.64312e-06
2.46502e-05
-1.54531e-06
2.49117e-05
-1.5943e-06
2.51013e-05
-1.61023e-06
2.52557e-05
-1.6077e-06
2.54624e-05
-1.69865e-06
2.55643e-05
-1.78599e-06
2.57464e-05
-1.77195e-06
2.58613e-05
-1.96596e-06
2.60701e-05
-1.92669e-06
2.61995e-05
-2.07231e-06
2.64864e-05
-2.18089e-06
2.66842e-05
-2.19084e-06
2.6964e-05
-2.51875e-06
2.72863e-05
-2.53238e-06
2.76136e-05
-2.93976e-06
2.79337e-05
-3.05503e-06
2.83392e-05
-3.5066e-06
2.86856e-05
-3.8154e-06
2.90732e-05
-4.19624e-06
2.94844e-05
-4.7298e-06
2.98095e-05
-5.17788e-06
3.02456e-05
-5.68044e-06
3.0567e-05
-6.33893e-06
3.08444e-05
-6.81695e-06
3.11887e-05
-7.49832e-06
3.13638e-05
-8.04637e-06
3.1472e-05
-8.596e-06
3.16359e-05
-9.2326e-06
3.15349e-05
-9.69132e-06
3.14358e-05
-1.00888e-05
3.13437e-05
-1.07565e-05
3.11352e-05
-1.08939e-05
3.1011e-05
-1.16316e-05
3.10078e-05
-1.1785e-05
3.11381e-05
-1.25296e-05
3.1333e-05
-1.26434e-05
3.16897e-05
-1.31088e-05
3.23743e-05
-1.33151e-05
3.3027e-05
-1.3668e-05
3.36453e-05
-1.32457e-05
3.45927e-05
-1.32711e-05
3.53337e-05
-1.27861e-05
3.59127e-05
-1.21167e-05
3.65045e-05
-1.09949e-05
3.71274e-05
-1.02743e-05
3.74065e-05
-8.84544e-06
3.77504e-05
-7.3766e-06
3.792e-05
-6.01507e-06
3.78007e-05
-3.96843e-06
3.76673e-05
-2.30679e-06
3.71708e-05
-3.25617e-07
3.63502e-05
1.5339e-06
3.51187e-05
3.49833e-06
3.3687e-05
4.47047e-06
3.19668e-05
5.54702e-06
3.02275e-05
6.16161e-06
2.85424e-05
5.93775e-06
2.68697e-05
6.29006e-06
2.54633e-05
6.02752e-06
2.38663e-05
5.85501e-06
2.24903e-05
6.01434e-06
2.13965e-05
5.67646e-06
2.04948e-05
5.231e-06
1.94495e-05
6.33068e-06
1.87985e-05
5.77699e-06
1.79132e-05
5.70801e-06
1.71526e-05
5.34988e-06
1.6213e-05
7.05238e-06
1.64264e-05
4.14218e-06
1.53709e-05
5.55921e-06
1.50158e-05
4.32106e-06
1.42334e-05
6.47833e-06
1.41183e-05
5.33028e-06
1.41032e-05
2.60807e-06
1.32852e-05
2.93947e-06
1.18218e-05
4.15557e-06
1.16035e-05
4.66782e-06
1.29415e-05
3.62899e-06
1.42366e-05
1.65229e-06
1.52288e-05
-9.77441e-07
1.64267e-05
-4.63948e-06
1.70486e-05
-7.23962e-06
1.69372e-05
-9.27632e-06
1.74943e-05
-1.00407e-05
1.83815e-05
-8.24175e-06
1.89363e-05
-5.60275e-06
1.94562e-05
-3.83638e-06
1.9296e-05
-2.12361e-06
1.96045e-05
-2.37701e-06
2.08985e-05
-1.37741e-06
2.27161e-05
2.09336e-06
2.36905e-05
6.46351e-06
2.45467e-05
1.01443e-05
2.5621e-05
1.56834e-05
2.56794e-05
2.1433e-05
2.50438e-05
2.5261e-05
2.359e-05
2.74055e-05
2.25654e-05
2.8964e-05
2.24769e-05
3.02318e-05
2.10602e-05
3.39171e-05
2.33129e-05
3.06448e-05
4.03001e-05
2.13174e-05
2.03323e-05
-7.62605e-08
2.00696e-05
8.19016e-08
1.99091e-05
7.19861e-08
1.98988e-05
-6.89862e-08
1.99826e-05
-2.27063e-07
2.00827e-05
-3.10211e-07
2.01706e-05
-3.68293e-07
2.02228e-05
-3.46711e-07
2.02565e-05
-2.97777e-07
2.02908e-05
-2.71081e-07
2.03172e-05
-2.19496e-07
2.0341e-05
-1.92729e-07
2.03699e-05
-1.89574e-07
2.03885e-05
-1.52944e-07
2.04204e-05
-1.61592e-07
2.04522e-05
-1.40996e-07
2.04895e-05
-1.20353e-07
2.05376e-05
-1.19023e-07
2.05831e-05
-1.01381e-07
2.06394e-05
-1.01101e-07
2.06941e-05
-1.0803e-07
2.07493e-05
-1.16606e-07
2.08014e-05
-1.2101e-07
2.0853e-05
-1.54066e-07
2.0887e-05
-1.62264e-07
2.09103e-05
-1.85529e-07
2.09285e-05
-2.22343e-07
2.09378e-05
-2.24188e-07
2.09476e-05
-2.39515e-07
2.09632e-05
-2.44378e-07
2.09741e-05
-2.06417e-07
2.09973e-05
-2.175e-07
2.10163e-05
-1.7115e-07
2.10385e-05
-1.51452e-07
2.10645e-05
-1.3781e-07
2.10832e-05
-1.10928e-07
2.1107e-05
-1.01004e-07
2.11306e-05
-9.98746e-08
2.116e-05
-9.19146e-08
2.11853e-05
-9.79789e-08
2.12156e-05
-1.10437e-07
2.12489e-05
-1.24303e-07
2.12806e-05
-1.3636e-07
2.1326e-05
-1.81816e-07
2.13572e-05
-1.7962e-07
2.14042e-05
-2.23499e-07
2.1444e-05
-2.4529e-07
2.14778e-05
-2.36775e-07
2.15213e-05
-2.7781e-07
2.1551e-05
-2.43577e-07
2.15867e-05
-2.37699e-07
2.16269e-05
-2.05799e-07
2.1662e-05
-1.49779e-07
2.17087e-05
-9.00249e-08
2.1765e-05
-2.9543e-08
2.18325e-05
5.47402e-08
2.19116e-05
1.08893e-07
2.19945e-05
1.50923e-07
2.20713e-05
1.44722e-07
2.21405e-05
1.1283e-07
2.2174e-05
5.53784e-08
2.2195e-05
-5.14707e-08
2.21646e-05
-1.1995e-07
2.21297e-05
-2.38663e-07
2.20771e-05
-2.88295e-07
2.20285e-05
-3.10879e-07
2.20036e-05
-3.33895e-07
2.19775e-05
-2.94045e-07
2.20058e-05
-2.71364e-07
2.20188e-05
-2.07694e-07
2.21084e-05
-1.82424e-07
2.21605e-05
-1.12601e-07
2.23182e-05
-1.31281e-07
2.24413e-05
-4.52606e-08
2.2627e-05
-8.25564e-08
2.2833e-05
-8.28178e-08
2.30408e-05
-1.24859e-07
2.3303e-05
-2.18364e-07
2.35804e-05
-2.83965e-07
2.38567e-05
-4.01625e-07
2.41808e-05
-5.65442e-07
2.44412e-05
-7.44444e-07
2.47684e-05
-9.63897e-07
2.50462e-05
-1.15396e-06
2.53115e-05
-1.3463e-06
2.5597e-05
-1.56728e-06
2.57928e-05
-1.70527e-06
2.61064e-05
-1.8935e-06
2.62705e-05
-1.92981e-06
2.65366e-05
-2.05682e-06
2.67141e-05
-2.08003e-06
2.68828e-05
-2.05334e-06
2.71133e-05
-2.10039e-06
2.72648e-05
-1.98139e-06
2.7474e-05
-1.95379e-06
2.76756e-05
-1.92358e-06
2.78115e-05
-1.74386e-06
2.80393e-05
-1.87101e-06
2.81575e-05
-1.66343e-06
2.83216e-05
-1.75846e-06
2.84593e-05
-1.74793e-06
2.85705e-05
-1.71884e-06
2.86912e-05
-1.81938e-06
2.87841e-05
-1.87893e-06
2.88969e-05
-1.88474e-06
2.89727e-05
-2.04175e-06
2.91165e-05
-2.07045e-06
2.9202e-05
-2.15787e-06
2.93254e-05
-2.30428e-06
2.954e-05
-2.40537e-06
2.95998e-05
-2.57854e-06
2.98698e-05
-2.80247e-06
3.00084e-05
-3.07834e-06
3.0218e-05
-3.26463e-06
3.04657e-05
-3.75429e-06
3.06256e-05
-3.97524e-06
3.08906e-05
-4.46125e-06
3.10571e-05
-4.89637e-06
3.12165e-05
-5.33728e-06
3.13932e-05
-5.85712e-06
3.14366e-05
-6.38232e-06
3.14705e-05
-6.85083e-06
3.14732e-05
-7.50102e-06
3.13098e-05
-7.883e-06
3.12168e-05
-8.50299e-06
3.09557e-05
-8.97153e-06
3.0676e-05
-9.4116e-06
3.0467e-05
-9.87978e-06
3.02295e-05
-1.05191e-05
3.01358e-05
-1.08001e-05
3.01567e-05
-1.16525e-05
3.03762e-05
-1.20044e-05
3.06165e-05
-1.277e-05
3.11104e-05
-1.31372e-05
3.18082e-05
-1.38066e-05
3.25492e-05
-1.40561e-05
3.31486e-05
-1.42674e-05
3.39237e-05
-1.40209e-05
3.45687e-05
-1.39161e-05
3.49793e-05
-1.31968e-05
3.52979e-05
-1.24354e-05
3.57015e-05
-1.13985e-05
3.59617e-05
-1.05344e-05
3.61341e-05
-9.01785e-06
3.63766e-05
-7.61908e-06
3.64912e-05
-6.1297e-06
3.66129e-05
-4.09006e-06
3.66786e-05
-2.37257e-06
3.63951e-05
-4.21082e-08
3.5747e-05
2.18207e-06
3.49355e-05
4.30981e-06
3.35025e-05
5.9035e-06
3.17191e-05
7.33043e-06
2.99859e-05
7.89479e-06
2.80902e-05
7.83344e-06
2.6183e-05
8.1972e-06
2.47058e-05
7.50481e-06
2.32927e-05
7.26805e-06
2.20232e-05
7.28389e-06
2.07988e-05
6.9008e-06
1.98829e-05
6.14694e-06
1.86583e-05
7.55529e-06
1.83262e-05
6.10908e-06
1.77196e-05
6.31463e-06
1.71085e-05
5.96099e-06
1.65223e-05
7.63854e-06
1.66709e-05
3.99356e-06
1.49741e-05
7.25607e-06
1.42664e-05
5.02867e-06
1.38517e-05
6.89311e-06
1.4261e-05
4.92094e-06
1.4389e-05
2.48003e-06
1.34726e-05
3.8559e-06
1.19264e-05
5.70178e-06
1.17208e-05
4.87341e-06
1.27202e-05
2.62962e-06
1.41896e-05
1.82851e-07
1.57061e-05
-2.49386e-06
1.68049e-05
-5.73831e-06
1.65295e-05
-6.96421e-06
1.56612e-05
-8.40806e-06
1.60809e-05
-1.04604e-05
1.78153e-05
-9.97618e-06
2.00191e-05
-7.80655e-06
2.1623e-05
-5.44024e-06
2.22321e-05
-2.73272e-06
2.17748e-05
-1.91967e-06
2.19078e-05
-1.51044e-06
2.30283e-05
9.72823e-07
2.40576e-05
5.4342e-06
2.4655e-05
9.54694e-06
2.59438e-05
1.43946e-05
2.65214e-05
2.08554e-05
2.62996e-05
2.54828e-05
2.55631e-05
2.81419e-05
2.43909e-05
3.01363e-05
2.47192e-05
2.99035e-05
2.39731e-05
3.46633e-05
2.75964e-05
2.70216e-05
4.09243e-05
2.69721e-05
2.52102e-05
-7.9169e-08
2.52613e-05
3.07379e-08
2.53539e-05
-2.06204e-08
2.54585e-05
-1.73598e-07
2.55477e-05
-3.16244e-07
2.56066e-05
-3.69075e-07
2.56518e-05
-4.13533e-07
2.56532e-05
-3.48099e-07
2.56503e-05
-2.94902e-07
2.5655e-05
-2.75783e-07
2.56454e-05
-2.09863e-07
2.5651e-05
-1.98283e-07
2.56577e-05
-1.96359e-07
2.56603e-05
-1.55512e-07
2.5685e-05
-1.86314e-07
2.57053e-05
-1.61275e-07
2.57283e-05
-1.43292e-07
2.57684e-05
-1.59194e-07
2.57883e-05
-1.21298e-07
2.58204e-05
-1.33171e-07
2.58524e-05
-1.40068e-07
2.58728e-05
-1.36942e-07
2.59047e-05
-1.52962e-07
2.59367e-05
-1.86069e-07
2.59579e-05
-1.83432e-07
2.59765e-05
-2.04129e-07
2.5987e-05
-2.32836e-07
2.59758e-05
-2.12986e-07
2.59788e-05
-2.42524e-07
2.5966e-05
-2.31593e-07
2.59625e-05
-2.02912e-07
2.59742e-05
-2.29159e-07
2.59816e-05
-1.78561e-07
2.59952e-05
-1.6506e-07
2.60212e-05
-1.63838e-07
2.60288e-05
-1.18472e-07
2.60454e-05
-1.17619e-07
2.60615e-05
-1.16029e-07
2.6066e-05
-9.64256e-08
2.60861e-05
-1.18052e-07
2.61002e-05
-1.24472e-07
2.61149e-05
-1.39013e-07
2.61382e-05
-1.59715e-07
2.6162e-05
-2.05574e-07
2.61806e-05
-1.98229e-07
2.62095e-05
-2.52384e-07
2.62291e-05
-2.64917e-07
2.62453e-05
-2.53e-07
2.62672e-05
-2.99719e-07
2.62756e-05
-2.51922e-07
2.6292e-05
-2.54113e-07
2.63066e-05
-2.20436e-07
2.6327e-05
-1.70156e-07
2.63504e-05
-1.13403e-07
2.63913e-05
-7.04266e-08
2.64444e-05
1.6511e-09
2.6495e-05
5.82795e-08
2.65759e-05
6.99619e-08
2.66157e-05
1.04928e-07
2.66807e-05
4.7877e-08
2.66954e-05
4.06868e-08
2.67085e-05
-6.465e-08
2.66884e-05
-9.98109e-08
2.66676e-05
-2.17888e-07
2.66196e-05
-2.40289e-07
2.65945e-05
-2.8571e-07
2.65705e-05
-3.09889e-07
2.65541e-05
-2.77669e-07
2.6577e-05
-2.94325e-07
2.66025e-05
-2.33162e-07
2.66544e-05
-2.34361e-07
2.67476e-05
-2.05771e-07
2.68152e-05
-1.98859e-07
2.69831e-05
-2.13136e-07
2.70969e-05
-1.96432e-07
2.72894e-05
-2.75228e-07
2.74684e-05
-3.03945e-07
2.76554e-05
-4.0528e-07
2.79138e-05
-5.42448e-07
2.80988e-05
-5.86625e-07
2.83889e-05
-8.55548e-07
2.85566e-05
-9.12094e-07
2.88136e-05
-1.22095e-06
2.90037e-05
-1.344e-06
2.91888e-05
-1.53141e-06
2.93806e-05
-1.75906e-06
2.94945e-05
-1.81918e-06
2.96759e-05
-2.07497e-06
2.97743e-05
-2.02813e-06
2.98985e-05
-2.18107e-06
2.99913e-05
-2.17286e-06
3.00393e-05
-2.10129e-06
3.01531e-05
-2.21415e-06
3.01741e-05
-2.0024e-06
3.03212e-05
-2.10089e-06
3.03417e-05
-1.94411e-06
3.04981e-05
-1.90024e-06
3.05235e-05
-1.89645e-06
3.06473e-05
-1.78721e-06
3.06959e-05
-1.80704e-06
3.07378e-05
-1.78988e-06
3.08023e-05