/*--------------------------------*- C++ -*----------------------------------*\
| =========                 |                                                 |
| \\      /  F ield         | OpenFOAM: The Open Source CFD Toolbox           |
|  \\    /   O peration     | Version:  2.4.0                                 |
|   \\  /    A nd           | Web:      www.OpenFOAM.org                      |
|    \\/     M anipulation  |                                                 |
\*---------------------------------------------------------------------------*/
FoamFile
{
    version     2.0;
    format      ascii;
    class       volVectorField;
    location    "1.3";
    object      U_0;
}
// * * * * * * * * * * * * * * * * * * * * * * * * * * * * * * * * * * * * * //

dimensions      [0 1 -1 0 0 0 0];

internalField   nonuniform List<vector> 
8800
(
(8.0925 0.387778 0)
(5.45258 0.242606 0)
(3.90789 0.043324 0)
(3.16157 -0.0156975 0)
(2.79447 -0.0182945 0)
(2.60726 -0.0108261 0)
(2.47398 -0.00592694 0)
(2.39223 -0.00248184 0)
(2.30587 -0.000836225 0)
(2.26455 -0.00153876 0)
(2.20057 5.84936e-05 0)
(2.1859 -0.000820568 0)
(2.12456 0.000721036 0)
(2.12375 -0.000691599 0)
(2.05757 0.00120141 0)
(2.06378 -0.000689923 0)
(1.999 0.000384676 0)
(2.00549 -0.00197199 0)
(2.00157 0.00991999 0)
(1.78434 -0.0667438 0)
(10.0811 0.838154 0)
(9.67044 0.86783 0)
(8.85535 0.507502 0)
(8.10573 0.261215 0)
(7.46783 0.137846 0)
(7.03565 0.0825916 0)
(6.66748 0.05366 0)
(6.43353 0.040622 0)
(6.1868 0.0314212 0)
(6.06965 0.0222891 0)
(5.87573 0.0205132 0)
(5.83772 0.0152152 0)
(5.65912 0.017591 0)
(5.66688 0.0123911 0)
(5.48543 0.0185363 0)
(5.51267 0.00968726 0)
(5.34787 0.0193015 0)
(5.35271 -0.005548 0)
(5.30855 0.0265067 0)
(5.16098 -0.0343105 0)
(10.0458 0.628823 0)
(10.6896 0.865295 0)
(10.8307 0.602467 0)
(10.7373 0.372453 0)
(10.4101 0.25695 0)
(10.1388 0.197476 0)
(9.78523 0.150911 0)
(9.55712 0.12404 0)
(9.24577 0.0957905 0)
(9.11549 0.0731309 0)
(8.83756 0.0623377 0)
(8.79822 0.048734 0)
(8.53788 0.0477717 0)
(8.55845 0.0359133 0)
(8.30017 0.0458829 0)
(8.34462 0.0270824 0)
(8.11667 0.0464163 0)
(8.12815 0.00168272 0)
(8.02557 0.0301967 0)
(7.96241 -0.0868636 0)
(9.95316 0.455299 0)
(10.6355 0.706667 0)
(11.0921 0.545803 0)
(11.455 0.351414 0)
(11.4801 0.257909 0)
(11.5435 0.229637 0)
(11.4112 0.200347 0)
(11.3928 0.177626 0)
(11.2 0.150474 0)
(11.1895 0.124348 0)
(10.964 0.108003 0)
(10.987 0.0869463 0)
(10.744 0.0881394 0)
(10.7969 0.0656911 0)
(10.5469 0.0830399 0)
(10.5942 0.0496952 0)
(10.3851 0.0845292 0)
(10.3719 0.017647 0)
(10.2778 0.0467752 0)
(10.219 -0.102551 0)
(9.94392 0.336393 0)
(10.5179 0.582811 0)
(10.9421 0.458088 0)
(11.3944 0.29197 0)
(11.5564 0.217019 0)
(11.7739 0.187667 0)
(11.7957 0.169135 0)
(11.9132 0.177851 0)
(11.8977 0.14219 0)
(11.997 0.128619 0)
(11.9282 0.118962 0)
(12.038 0.103843 0)
(11.9328 0.0979426 0)
(12.0313 0.0862168 0)
(11.9211 0.0966218 0)
(11.9703 0.0743081 0)
(11.8919 0.0924593 0)
(11.8548 0.0601998 0)
(11.8556 0.0461602 0)
(11.7837 -0.0221331 0)
(9.96954 0.248435 0)
(10.3991 0.450452 0)
(10.8349 0.389251 0)
(11.2379 0.241399 0)
(11.4613 0.148184 0)
(11.6497 0.168302 0)
(11.7874 0.145607 0)
(11.8676 0.139045 0)
(11.9439 0.131831 0)
(12.0426 0.110305 0)
(12.0963 0.0906205 0)
(12.2015 0.0819293 0)
(12.2232 0.0882629 0)
(12.3322 0.06717 0)
(12.352 0.0906302 0)
(12.4309 0.068269 0)
(12.4437 0.0958018 0)
(12.4664 0.0706523 0)
(12.5009 0.070407 0)
(12.5183 0.0192165 0)
(9.99627 0.16588 0)
(10.3361 0.369291 0)
(10.7359 0.282959 0)
(11.1421 0.212731 0)
(11.36 0.137367 0)
(11.5305 0.0823321 0)
(11.6739 0.0951992 0)
(11.7545 0.142155 0)
(11.8953 0.0659566 0)
(11.9566 0.103033 0)
(12.0639 0.0712856 0)
(12.139 0.0877518 0)
(12.216 0.0447091 0)
(12.273 0.0787142 0)
(12.3263 0.0418044 0)
(12.4162 0.0819177 0)
(12.449 0.0402985 0)
(12.5306 0.108526 0)
(12.5595 0.0486704 0)
(12.5849 0.174026 0)
(9.96472 0.1039 0)
(10.2729 0.244779 0)
(10.711 0.216653 0)
(11.029 0.159632 0)
(11.325 0.0648101 0)
(11.5353 0.121328 0)
(11.5686 0.0522358 0)
(11.7296 0.0866062 0)
(11.8083 0.0580957 0)
(11.8387 0.0865474 0)
(11.9741 0.00757997 0)
(12.0376 0.0775411 0)
(12.1482 0.0234643 0)
(12.2166 0.0734321 0)
(12.278 0.0155864 0)
(12.3561 0.0806915 0)
(12.4049 0.0211201 0)
(12.4843 0.0996268 0)
(12.4978 0.043375 0)
(12.4866 0.165114 0)
(10.0149 0.0622832 0)
(10.2364 0.15262 0)
(10.5994 0.114298 0)
(11.0292 0.112907 0)
(11.2083 0.0624947 0)
(11.436 0.0131182 0)
(11.6554 0.0377126 0)
(11.6415 0.0715465 0)
(11.7221 0.0164362 0)
(11.9055 0.0516773 0)
(11.9572 0.0335683 0)
(11.9527 0.0347966 0)
(12.0743 0.0121724 0)
(12.1516 0.0346256 0)
(12.2343 0.019713 0)
(12.3163 0.0288033 0)
(12.3703 0.02004 0)
(12.4071 0.0504775 0)
(12.4426 0.038144 0)
(12.4451 0.00456457 0)
(10.0098 0.00934345 0)
(10.2284 0.0479193 0)
(10.5825 0.0445543 0)
(10.9136 0.0448363 0)
(11.2991 0.00597877 0)
(11.5054 0.0355512 0)
(11.5114 -0.0090352 0)
(11.6362 0.0377396 0)
(11.7366 -0.00675205 0)
(11.7572 0.00996126 0)
(11.9213 -0.0030639 0)
(12.0283 0.03891 0)
(12.0566 -0.0103756 0)
(12.0952 0.018118 0)
(12.2428 -0.012471 0)
(12.313 0.0252394 0)
(12.3698 0.00548534 0)
(12.3767 0.0273669 0)
(12.4171 -0.0162418 0)
(12.3462 0.00287627 0)
(10.0123 -0.0281078 0)
(10.2093 -0.0357775 0)
(10.5866 -0.0410602 0)
(11.0082 -0.0281541 0)
(11.2313 -0.0265012 0)
(11.4025 -0.0286678 0)
(11.5913 -0.00155777 0)
(11.6557 -0.00600481 0)
(11.6934 -0.0231164 0)
(11.8363 -0.00957728 0)
(11.9106 -0.0233409 0)
(11.9769 -0.00297134 0)
(12.0733 0.00507273 0)
(12.1319 -0.015022 0)
(12.1879 -0.031436 0)
(12.2783 -0.015066 0)
(12.3825 -0.00822837 0)
(12.3928 0.00190143 0)
(12.428 -0.0170382 0)
(12.3632 -0.0405841 0)
(9.99695 -0.0721698 0)
(10.2515 -0.147836 0)
(10.6092 -0.132485 0)
(10.9889 -0.0841464 0)
(11.2842 -0.0381624 0)
(11.4403 -0.0374906 0)
(11.5507 -0.0695807 0)
(11.6802 -0.0277282 0)
(11.7763 -0.0466314 0)
(11.843 -0.0612665 0)
(11.8988 -0.0302509 0)
(12.0032 -0.0130526 0)
(12.0816 -0.0289927 0)
(12.1991 -0.0275079 0)
(12.2491 -0.0375471 0)
(12.297 -0.0446308 0)
(12.3283 -0.0280102 0)
(12.415 -0.0299383 0)
(12.469 -0.0522362 0)
(12.4099 -0.0568946 0)
(10.0168 -0.124287 0)
(10.2577 -0.236203 0)
(10.6583 -0.203471 0)
(11.0321 -0.155866 0)
(11.3052 -0.0840589 0)
(11.5086 -0.0876087 0)
(11.6427 -0.0691155 0)
(11.6974 -0.0822386 0)
(11.8029 -0.0755802 0)
(11.9039 -0.0560739 0)
(11.9495 -0.0522983 0)
(12.0048 -0.0541923 0)
(12.1496 -0.0366501 0)
(12.2429 -0.0584817 0)
(12.2685 -0.0554197 0)
(12.3181 -0.0475241 0)
(12.3981 -0.0526752 0)
(12.4864 -0.0700672 0)
(12.5096 -0.0740241 0)
(12.4508 -0.0697593 0)
(10.0303 -0.180658 0)
(10.2848 -0.349077 0)
(10.7486 -0.294408 0)
(11.1163 -0.205115 0)
(11.4082 -0.111738 0)
(11.5463 -0.113779 0)
(11.6853 -0.115846 0)
(11.7651 -0.103072 0)
(11.873 -0.0943101 0)
(11.9423 -0.108828 0)
(12.0377 -0.0591511 0)
(12.1125 -0.0687803 0)
(12.2224 -0.0714753 0)
(12.276 -0.0707069 0)
(12.3346 -0.0499784 0)
(12.3935 -0.088966 0)
(12.4852 -0.0799708 0)
(12.5357 -0.0956247 0)
(12.5603 -0.103499 0)
(12.4998 -0.101162 0)
(10.0674 -0.260713 0)
(10.3026 -0.441554 0)
(10.9033 -0.377867 0)
(11.1847 -0.255689 0)
(11.5249 -0.154273 0)
(11.6018 -0.159637 0)
(11.8199 -0.137334 0)
(11.8211 -0.140863 0)
(11.992 -0.129873 0)
(12.0068 -0.114207 0)
(12.1415 -0.0836547 0)
(12.1386 -0.105457 0)
(12.2849 -0.0750294 0)
(12.2811 -0.0897643 0)
(12.3791 -0.0771824 0)
(12.381 -0.104803 0)
(12.4731 -0.088456 0)
(12.4457 -0.129833 0)
(12.4712 -0.117089 0)
(12.3683 -0.133309 0)
(10.0614 -0.350363 0)
(10.3781 -0.562301 0)
(11.0684 -0.468773 0)
(11.2878 -0.29365 0)
(11.6669 -0.200273 0)
(11.6663 -0.195993 0)
(11.8976 -0.181358 0)
(11.8127 -0.165163 0)
(11.9978 -0.149664 0)
(11.881 -0.141326 0)
(12.0418 -0.104771 0)
(11.9077 -0.107807 0)
(12.0521 -0.0980341 0)
(11.9071 -0.101655 0)
(12.0204 -0.0766748 0)
(11.864 -0.113933 0)
(11.947 -0.097011 0)
(11.7779 -0.130124 0)
(11.7876 -0.120201 0)
(11.5676 -0.165821 0)
(10.0102 -0.461232 0)
(10.5537 -0.699949 0)
(11.1857 -0.546461 0)
(11.3504 -0.353346 0)
(11.5779 -0.257809 0)
(11.4446 -0.233501 0)
(11.5071 -0.199952 0)
(11.2875 -0.172248 0)
(11.3133 -0.15381 0)
(11.0527 -0.129397 0)
(11.1032 -0.0974517 0)
(10.8305 -0.0997529 0)
(10.8948 -0.0832104 0)
(10.6246 -0.0808273 0)
(10.6988 -0.0664601 0)
(10.4177 -0.0919707 0)
(10.4858 -0.0712995 0)
(10.1928 -0.113219 0)
(10.2058 -0.0931598 0)
(9.87308 -0.159341 0)
(10.0637 -0.633095 0)
(10.6524 -0.861261 0)
(10.8756 -0.60301 0)
(10.6771 -0.374254 0)
(10.4747 -0.253121 0)
(10.0712 -0.198546 0)
(9.84924 -0.154175 0)
(9.48423 -0.120475 0)
(9.32843 -0.0968194 0)
(9.00787 -0.0788763 0)
(8.95299 -0.0559532 0)
(8.66512 -0.0536193 0)
(8.66701 -0.0461944 0)
(8.39993 -0.0456943 0)
(8.43969 -0.0368125 0)
(8.16278 -0.052354 0)
(8.21027 -0.0478288 0)
(7.91205 -0.0671192 0)
(7.91947 -0.0688817 0)
(7.57627 -0.0891394 0)
(10.084 -0.839245 0)
(9.65456 -0.866825 0)
(8.87504 -0.506592 0)
(8.07563 -0.262382 0)
(7.50302 -0.136824 0)
(6.99722 -0.0833615 0)
(6.70398 -0.0549621 0)
(6.3913 -0.0388832 0)
(6.23468 -0.0309331 0)
(6.00477 -0.0264378 0)
(5.94484 -0.0161185 0)
(5.75321 -0.0184479 0)
(5.74006 -0.0169827 0)
(5.55805 -0.0178701 0)
(5.57333 -0.0137822 0)
(5.37964 -0.024306 0)
(5.39364 -0.0218562 0)
(5.17168 -0.031231 0)
(5.16455 -0.0374306 0)
(4.87487 -0.0180331 0)
(8.09122 -0.388014 0)
(5.44815 -0.242411 0)
(3.91265 -0.0429715 0)
(3.15512 0.015124 0)
(2.80358 0.018702 0)
(2.59578 0.0108442 0)
(2.48564 0.00530652 0)
(2.37689 0.00294272 0)
(2.323 0.0013353 0)
(2.24247 -0.000151347 0)
(2.22023 0.0015561 0)
(2.1588 -0.000115366 0)
(2.14921 -0.000265666 0)
(2.08248 -0.000943763 0)
(2.08192 0.000311188 0)
(2.00859 -0.00271614 0)
(1.99678 -0.00128097 0)
(1.90607 -0.00349911 0)
(1.87093 -0.00400772 0)
(1.72284 0.0108328 0)
(2.25303 -0.143838 0)
(2.38069 -0.064242 0)
(2.48983 -0.0113054 0)
(2.57168 0.00686124 0)
(2.65945 0.00087274 0)
(2.72842 -0.0142678 0)
(2.81546 -0.0310208 0)
(2.88206 -0.0376218 0)
(2.96078 -0.0383395 0)
(3.01077 -0.0341776 0)
(3.07268 -0.0299893 0)
(3.10772 -0.0265006 0)
(3.1601 -0.0268687 0)
(3.18822 -0.0196056 0)
(3.23238 -0.0140634 0)
(3.25936 0.000642125 0)
(3.30122 0.0115914 0)
(3.34329 0.020841 0)
(3.39704 0.0276639 0)
(3.45148 0.0321587 0)
(3.51412 0.0300197 0)
(3.57174 0.0271363 0)
(3.62408 0.0224451 0)
(3.6752 0.00795012 0)
(3.72489 -0.0106497 0)
(3.77098 -0.0304921 0)
(3.80652 -0.0477502 0)
(3.84203 -0.059265 0)
(3.85918 -0.0630993 0)
(3.87841 -0.0604199 0)
(3.88853 -0.0513042 0)
(3.91011 -0.0405223 0)
(3.92094 -0.0263476 0)
(3.95667 -0.0178035 0)
(3.97551 -0.008959 0)
(4.02669 -0.00210515 0)
(4.05099 0.00417246 0)
(4.10727 0.00960294 0)
(4.12759 0.00696848 0)
(4.18764 0.00704807 0)
(4.19197 0.00373586 0)
(4.25009 0.000673926 0)
(4.25081 -0.00597978 0)
(4.30662 -0.0124863 0)
(4.3094 -0.0207092 0)
(4.35728 -0.0281276 0)
(4.36671 -0.0377077 0)
(4.39823 -0.0454285 0)
(4.41814 -0.0502795 0)
(4.42962 -0.0535236 0)
(4.45587 -0.0443269 0)
(4.45365 -0.0367534 0)
(4.49346 -0.0163024 0)
(4.47826 0.0124764 0)
(4.54386 0.0405719 0)
(4.51947 0.0900563 0)
(4.62837 0.114406 0)
(4.64895 0.144317 0)
(4.79122 0.141573 0)
(4.86714 0.121182 0)
(5.00077 0.078967 0)
(5.04933 0.0135133 0)
(5.11548 -0.0527364 0)
(5.11334 -0.116977 0)
(5.07053 -0.138531 0)
(5.06178 -0.152947 0)
(4.97342 -0.131896 0)
(5.02174 -0.11371 0)
(4.92076 -0.0682425 0)
(5.0208 -0.0347835 0)
(4.96727 0.00368511 0)
(5.08191 0.0387037 0)
(5.08786 0.0842104 0)
(5.17529 0.103645 0)
(5.27965 0.1383 0)
(5.34946 0.155471 0)
(5.50924 0.162203 0)
(5.56579 0.158979 0)
(5.69073 0.138484 0)
(5.80592 0.124193 0)
(5.94882 0.0678969 0)
(6.11314 0.0249802 0)
(6.19686 -0.0487094 0)
(6.32566 -0.109133 0)
(6.46258 -0.200918 0)
(6.56975 -0.279407 0)
(6.73477 -0.343918 0)
(6.79754 -0.402702 0)
(6.97919 -0.450696 0)
(7.0162 -0.475063 0)
(7.21755 -0.544119 0)
(7.22875 -0.506503 0)
(7.41942 -0.531806 0)
(7.4341 -0.488015 0)
(7.67583 -0.448306 0)
(7.65207 -0.448043 0)
(7.9733 -0.404829 0)
(7.90103 -0.389328 0)
(8.21748 -0.395243 0)
(8.20566 -0.394382 0)
(8.37424 -0.371579 0)
(8.50541 -0.470386 0)
(8.51944 -0.368308 0)
(8.72747 -0.557765 0)
(8.68082 -0.435345 0)
(8.86105 -0.58463 0)
(8.86287 -0.503307 0)
(8.98754 -0.635918 0)
(9.04885 -0.559738 0)
(9.07736 -0.654644 0)
(9.31233 -0.708372 0)
(9.26122 -0.690663 0)
(9.55183 -0.86375 0)
(9.56344 -0.858214 0)
(9.84017 -1.02354 0)
(9.97049 -1.10122 0)
(10.1416 -1.25761 0)
(10.4398 -1.36747 0)
(10.5352 -1.60633 0)
(10.8893 -1.6688 0)
(10.9911 -1.9638 0)
(11.4344 -2.11656 0)
(11.3899 -2.31743 0)
(11.9492 -2.55087 0)
(11.8041 -2.77605 0)
(12.4311 -2.92964 0)
(12.1201 -3.22741 0)
(12.8746 -3.35333 0)
(12.2976 -3.56702 0)
(13.065 -3.68692 0)
(12.5344 -3.90383 0)
(13.0854 -3.90989 0)
(12.6727 -4.12162 0)
(13.1118 -4.11771 0)
(12.9094 -4.20196 0)
(13.0747 -4.10866 0)
(13.3493 -4.1967 0)
(13.389 -4.07711 0)
(13.7027 -3.89337 0)
(13.8651 -3.81642 0)
(14.3227 -3.64363 0)
(14.2727 -3.24995 0)
(14.7159 -2.99244 0)
(14.8787 -2.66128 0)
(14.9747 -2.15371 0)
(15.1089 -1.80225 0)
(15.1418 -1.24787 0)
(15.0128 -0.75078 0)
(14.8833 -0.317702 0)
(14.5694 0.167666 0)
(14.1711 0.570929 0)
(13.6598 0.767466 0)
(13.1618 0.986825 0)
(12.3911 1.18762 0)
(12.0062 1.12496 0)
(11.2873 1.19966 0)
(10.6781 1.26158 0)
(10.184 1.16193 0)
(9.50784 1.293 0)
(9.03887 1.31889 0)
(8.7092 1.21217 0)
(8.03174 1.54246 0)
(7.7265 1.59978 0)
(7.34566 1.48892 0)
(7.10175 1.45236 0)
(6.71655 1.79029 0)
(6.4153 1.27522 0)
(6.37513 1.33313 0)
(5.95661 1.3387 0)
(5.62586 1.8462 0)
(5.56127 1.63496 0)
(5.55929 0.793251 0)
(5.95097 0.612966 0)
(4.90513 0.796618 0)
(4.67 1.58943 0)
(4.87495 1.85056 0)
(5.49915 0.962356 0)
(5.67395 -0.155493 0)
(6.48044 -1.26107 0)
(6.80628 -2.38542 0)
(7.29122 -3.26479 0)
(7.55449 -3.05449 0)
(7.70099 -2.31434 0)
(7.60029 -1.58759 0)
(7.61854 -1.02194 0)
(7.64516 -0.827015 0)
(7.67232 -0.534101 0)
(8.44704 0.381772 0)
(9.14354 1.71636 0)
(9.43434 2.70201 0)
(9.52266 3.96745 0)
(10.1469 5.90891 0)
(9.90584 7.25155 0)
(9.71562 8.05657 0)
(8.93225 8.29447 0)
(8.59328 9.0912 0)
(8.20492 9.63812 0)
(7.45743 10.1552 0)
(7.38064 10.5212 0)
(4.41058 12.5959 0)
(5.32753 -0.0939197 0)
(5.36204 -0.0778416 0)
(5.37761 -0.0535942 0)
(5.37417 -0.0436952 0)
(5.39022 -0.0515981 0)
(5.4151 -0.0673619 0)
(5.46446 -0.0838831 0)
(5.50952 -0.0841529 0)
(5.5639 -0.0784431 0)
(5.59387 -0.0701004 0)
(5.62975 -0.0583193 0)
(5.64646 -0.0520353 0)
(5.67274 -0.0478368 0)
(5.68569 -0.0416897 0)
(5.71098 -0.0385824 0)
(5.72447 -0.0312088 0)
(5.75203 -0.0213249 0)
(5.77185 -0.0159123 0)
(5.80618 -0.00804832 0)
(5.83715 -0.00604243 0)
(5.87377 -0.00661152 0)
(5.91042 -0.00917908 0)
(5.94139 -0.0145137 0)
(5.97558 -0.0244979 0)
(5.99788 -0.0350073 0)
(6.03726 -0.047486 0)
(6.04743 -0.0618539 0)
(6.08415 -0.0663522 0)
(6.08142 -0.0737376 0)
(6.11036 -0.0702399 0)
(6.09818 -0.0636348 0)
(6.12722 -0.0584976 0)
(6.11177 -0.0453145 0)
(6.1476 -0.0382536 0)
(6.13637 -0.0302311 0)
(6.18119 -0.0244508 0)
(6.18 -0.0189404 0)
(6.22361 -0.0188027 0)
(6.22652 -0.0136938 0)
(6.26492 -0.0192952 0)
(6.27599 -0.0188029 0)
(6.30557 -0.0252329 0)
(6.32905 -0.0282809 0)
(6.35138 -0.0374735 0)
(6.38884 -0.0429066 0)
(6.40218 -0.0509367 0)
(6.44835 -0.0605445 0)
(6.45036 -0.060444 0)
(6.50332 -0.0715982 0)
(6.48982 -0.0635952 0)
(6.55036 -0.06189 0)
(6.51643 -0.0485037 0)
(6.59257 -0.0312878 0)
(6.53347 -0.00602896 0)
(6.63329 0.0195664 0)
(6.56412 0.0537902 0)
(6.67409 0.0782845 0)
(6.63734 0.0952305 0)
(6.74751 0.0966746 0)
(6.75439 0.0777928 0)
(6.84109 0.0396732 0)
(6.85842 -0.00173343 0)
(6.87814 -0.0561244 0)
(6.9039 -0.0963095 0)
(6.84008 -0.122527 0)
(6.88021 -0.130736 0)
(6.7728 -0.125788 0)
(6.84544 -0.110648 0)
(6.76028 -0.0847024 0)
(6.82679 -0.0564502 0)
(6.8228 -0.0199613 0)
(6.86673 -0.00761335 0)
(6.94064 0.039493 0)
(6.96189 0.0464543 0)
(7.09077 0.0735491 0)
(7.15139 0.074322 0)
(7.25584 0.0634577 0)
(7.38809 0.0621639 0)
(7.45696 0.0307945 0)
(7.62586 0.0147257 0)
(7.72719 -0.0387913 0)
(7.88403 -0.115008 0)
(8.03028 -0.165792 0)
(8.1113 -0.263669 0)
(8.29667 -0.304259 0)
(8.39269 -0.409986 0)
(8.54349 -0.461313 0)
(8.6841 -0.507021 0)
(8.75752 -0.553888 0)
(8.93578 -0.572251 0)
(8.94704 -0.576658 0)
(9.16789 -0.612259 0)
(9.14113 -0.546224 0)
(9.35911 -0.567551 0)
(9.34171 -0.517315 0)
(9.57761 -0.498074 0)
(9.53731 -0.499236 0)
(9.81238 -0.46695 0)
(9.70578 -0.490692 0)
(10.015 -0.468894 0)
(9.88862 -0.525897 0)
(10.1514 -0.479429 0)
(10.0626 -0.598915 0)
(10.2672 -0.544731 0)
(10.1896 -0.628795 0)
(10.3593 -0.633012 0)
(10.3428 -0.636945 0)
(10.4522 -0.678382 0)
(10.5579 -0.711702 0)
(10.5602 -0.674564 0)
(10.791 -0.823639 0)
(10.7776 -0.777682 0)
(11.0261 -0.912946 0)
(11.0402 -0.980988 0)
(11.2931 -1.05984 0)
(11.3609 -1.2253 0)
(11.555 -1.29297 0)
(11.7194 -1.51151 0)
(11.8195 -1.63399 0)
(12.0683 -1.80036 0)
(12.0897 -2.03558 0)
(12.3977 -2.20619 0)
(12.3082 -2.41378 0)
(12.6678 -2.63534 0)
(12.421 -2.81457 0)
(12.8658 -3.03831 0)
(12.385 -3.23622 0)
(12.9439 -3.37279 0)
(12.2138 -3.59722 0)
(12.8833 -3.68885 0)
(12.1086 -3.88427 0)
(12.7106 -3.94306 0)
(12.2225 -4.16105 0)
(12.7328 -4.16675 0)
(12.4484 -4.27024 0)
(12.9399 -4.29692 0)
(13.1531 -4.41474 0)
(13.2776 -4.22729 0)
(13.782 -4.22161 0)
(13.9956 -4.11057 0)
(14.3589 -3.87178 0)
(14.4289 -3.52487 0)
(14.8865 -3.29627 0)
(14.9019 -2.85484 0)
(15.0892 -2.35834 0)
(15.1961 -1.91255 0)
(15.2082 -1.2509 0)
(15.091 -0.69126 0)
(15.0342 -0.114889 0)
(14.6943 0.439454 0)
(14.2877 1.01941 0)
(13.6367 1.24482 0)
(13.0719 1.56372 0)
(12.2352 1.67419 0)
(11.7083 1.6542 0)
(10.8371 1.80843 0)
(10.4292 1.65545 0)
(9.75398 1.63876 0)
(9.13307 1.79263 0)
(8.71628 1.64144 0)
(8.32331 1.65759 0)
(7.90821 1.96861 0)
(7.64376 1.7065 0)
(7.30392 1.69288 0)
(6.9759 1.73067 0)
(6.59151 2.27396 0)
(6.46055 1.42546 0)
(6.55155 1.59809 0)
(5.86158 1.37222 0)
(5.88487 2.03969 0)
(5.74179 1.59973 0)
(5.41687 0.726534 0)
(5.94323 0.830038 0)
(4.55076 1.16279 0)
(4.66664 1.48788 0)
(4.9302 1.30354 0)
(5.55659 0.61829 0)
(5.82672 -0.367646 0)
(6.53916 -1.60057 0)
(6.68079 -2.58891 0)
(6.9485 -3.36151 0)
(6.79001 -3.22504 0)
(7.38622 -2.35732 0)
(7.41819 -1.55656 0)
(7.74265 -1.08906 0)
(7.79988 -0.767668 0)
(7.5996 -0.87182 0)
(8.25557 -0.204177 0)
(8.82609 1.15355 0)
(9.68318 2.47079 0)
(9.53978 3.74857 0)
(10.2824 5.65437 0)
(10.4419 7.30846 0)
(10.1674 8.36757 0)
(9.7498 8.88686 0)
(9.26112 9.37834 0)
(9.08853 9.9629 0)
(8.33674 10.6954 0)
(9.94026 10.4503 0)
(7.05153 13.8241 0)
(8.02687 -0.0553423 0)
(8.01345 -0.00717367 0)
(8.007 0.00598621 0)
(7.98237 -0.0210287 0)
(7.98355 -0.0586122 0)
(7.99317 -0.0857433 0)
(8.03401 -0.108317 0)
(8.05908 -0.107312 0)
(8.10413 -0.0947376 0)
(8.11522 -0.0874235 0)
(8.13632 -0.0707591 0)
(8.14069 -0.062416 0)
(8.14964 -0.0591105 0)
(8.15458 -0.0478727 0)
(8.16519 -0.04988 0)
(8.1735 -0.0430334 0)
(8.18382 -0.0382213 0)
(8.20356 -0.0354978 0)
(8.21048 -0.0324652 0)
(8.24348 -0.0270681 0)
(8.25333 -0.031129 0)
(8.29066 -0.0310423 0)
(8.29894 -0.0325093 0)
(8.33729 -0.0453702 0)
(8.33286 -0.0478506 0)
(8.37242 -0.0600201 0)
(8.36217 -0.0719082 0)
(8.38968 -0.0746578 0)
(8.38353 -0.0791624 0)
(8.39698 -0.0819961 0)
(8.38801 -0.0680497 0)
(8.40588 -0.071753 0)
(8.38701 -0.0555514 0)
(8.41556 -0.0481292 0)
(8.39533 -0.0427791 0)
(8.4299 -0.0337036 0)
(8.41724 -0.0299475 0)
(8.45299 -0.0303994 0)
(8.44252 -0.0271843 0)
(8.4772 -0.0287954 0)
(8.47124 -0.0349678 0)
(8.4994 -0.0360117 0)
(8.5057 -0.0450144 0)
(8.52759 -0.0556829 0)
(8.54512 -0.0592351 0)
(8.55939 -0.0725563 0)
(8.59029 -0.0798121 0)
(8.58576 -0.0809597 0)
(8.63499 -0.0895997 0)
(8.60648 -0.0825689 0)
(8.67191 -0.0787022 0)
(8.62385 -0.0654219 0)
(8.70276 -0.0487937 0)
(8.6402 -0.0240444 0)
(8.72784 -0.00165992 0)
(8.67497 0.0269896 0)
(8.74516 0.0468666 0)
(8.73563 0.063013 0)
(8.78128 0.0599363 0)
(8.81416 0.0538606 0)
(8.83166 0.0238896 0)
(8.88007 -0.0128508 0)
(8.85013 -0.0394964 0)
(8.90017 -0.0844948 0)
(8.83268 -0.0992454 0)
(8.86334 -0.110131 0)
(8.80545 -0.113935 0)
(8.80685 -0.106518 0)
(8.82361 -0.0808531 0)
(8.77501 -0.077042 0)
(8.87033 -0.0427617 0)
(8.81951 -0.0336176 0)
(8.93511 -0.0255155 0)
(8.94825 0.00422177 0)
(9.00818 -0.0107432 0)
(9.13843 6.95962e-06 0)
(9.137 -0.018335 0)
(9.33581 -0.045006 0)
(9.33664 -0.0513317 0)
(9.52759 -0.113382 0)
(9.56723 -0.139199 0)
(9.76161 -0.220988 0)
(9.80733 -0.282734 0)
(10.0087 -0.342346 0)
(10.0104 -0.432298 0)
(10.2637 -0.461354 0)
(10.2287 -0.569477 0)
(10.484 -0.563519 0)
(10.459 -0.648919 0)
(10.6215 -0.627973 0)
(10.6567 -0.686953 0)
(10.7512 -0.636759 0)
(10.8054 -0.689005 0)
(10.9027 -0.626476 0)
(10.9004 -0.629933 0)
(11.0819 -0.627144 0)
(11.0104 -0.554443 0)
(11.2306 -0.634113 0)
(11.1747 -0.511541 0)
(11.304 -0.607326 0)
(11.3606 -0.536376 0)
(11.3583 -0.584803 0)
(11.4864 -0.56342 0)
(11.4557 -0.634554 0)
(11.5596 -0.574529 0)
(11.5277 -0.679778 0)
(11.6596 -0.636504 0)
(11.6028 -0.685416 0)
(11.7485 -0.733943 0)
(11.7336 -0.753161 0)
(11.8226 -0.821207 0)
(11.89 -0.896881 0)
(11.9838 -0.989207 0)
(11.9853 -1.03492 0)
(12.2028 -1.23488 0)
(12.1489 -1.25874 0)
(12.3403 -1.46458 0)
(12.3878 -1.59023 0)
(12.4387 -1.74412 0)
(12.581 -1.92958 0)
(12.5081 -2.11405 0)
(12.6731 -2.27301 0)
(12.5488 -2.52126 0)
(12.6449 -2.66611 0)
(12.4293 -2.86036 0)
(12.6102 -3.08574 0)
(12.1231 -3.18507 0)
(12.5025 -3.37479 0)
(11.8466 -3.60961 0)
(12.4207 -3.6172 0)
(11.7214 -3.94205 0)
(12.431 -3.98759 0)
(11.9616 -4.24588 0)
(12.5702 -4.28474 0)
(12.4109 -4.49184 0)
(13.0854 -4.57251 0)
(13.0977 -4.64497 0)
(13.4411 -4.55187 0)
(13.8557 -4.60706 0)
(13.89 -4.35727 0)
(14.1676 -4.14706 0)
(14.1933 -3.79178 0)
(14.4988 -3.54064 0)
(14.4017 -2.97384 0)
(14.6235 -2.54843 0)
(14.6474 -2.00457 0)
(14.7254 -1.28469 0)
(14.7164 -0.75107 0)
(14.7227 0.0335262 0)
(14.4924 0.664049 0)
(14.163 1.36581 0)
(13.6742 1.73019 0)
(12.9109 2.13714 0)
(12.2046 2.29312 0)
(11.5544 2.19137 0)
(10.6353 2.35689 0)
(10.0608 2.22345 0)
(9.53099 2.15241 0)
(8.95815 2.12292 0)
(8.49841 2.03892 0)
(8.091 1.88416 0)
(7.64822 2.30634 0)
(7.29242 2.01345 0)
(7.33677 2.01643 0)
(6.82958 1.89851 0)
(6.80774 2.34961 0)
(6.50826 1.22774 0)
(6.63606 2.14571 0)
(5.37683 1.50994 0)
(5.81817 2.28889 0)
(5.69924 1.65001 0)
(5.51588 0.80527 0)
(6.15243 1.22311 0)
(4.41589 1.73848 0)
(4.9177 1.54924 0)
(4.77707 0.875419 0)
(5.43154 0.140338 0)
(6.02555 -0.787411 0)
(6.70729 -1.93941 0)
(6.65015 -2.60822 0)
(6.4424 -3.04729 0)
(6.11383 -3.29051 0)
(6.91801 -2.68083 0)
(7.59059 -1.79834 0)
(8.64655 -1.25572 0)
(8.73704 -0.707385 0)
(8.84954 -0.929853 0)
(8.53192 -0.595747 0)
(9.1091 0.58853 0)
(9.58158 2.10842 0)
(9.90933 3.36949 0)
(10.0836 5.28215 0)
(10.873 7.34212 0)
(10.6008 8.57654 0)
(10.2789 9.22198 0)
(10.0221 9.7227 0)
(10.137 10.1235 0)
(8.45826 11.302 0)
(11.8042 9.71775 0)
(9.29658 13.9908 0)
(10.3287 -0.0272709 0)
(10.283 0.0328421 0)
(10.2072 0.0273407 0)
(10.1636 -0.0179486 0)
(10.1553 -0.0715348 0)
(10.175 -0.101982 0)
(10.221 -0.124515 0)
(10.2427 -0.11508 0)
(10.2717 -0.103878 0)
(10.2824 -0.0916483 0)
(10.2752 -0.073411 0)
(10.2806 -0.0659207 0)
(10.2678 -0.0627901 0)
(10.267 -0.0511776 0)
(10.2683 -0.0555786 0)
(10.2754 -0.0462177 0)
(10.2788 -0.0409737 0)
(10.2972 -0.0425682 0)
(10.3005 -0.032845 0)
(10.3149 -0.0397809 0)
(10.3272 -0.0380539 0)
(10.3405 -0.0428223 0)
(10.3459 -0.0458632 0)
(10.3762 -0.0540343 0)
(10.3675 -0.0562222 0)
(10.3979 -0.0609503 0)
(10.3927 -0.070741 0)
(10.3998 -0.0699378 0)
(10.4001 -0.0781311 0)
(10.3992 -0.0772914 0)
(10.3834 -0.0714619 0)
(10.4046 -0.0749377 0)
(10.3725 -0.0581089 0)
(10.4098 -0.054401 0)
(10.3748 -0.0448882 0)
(10.4201 -0.0345737 0)
(10.3852 -0.032724 0)
(10.4342 -0.0297295 0)
(10.4034 -0.029907 0)
(10.4419 -0.0342316 0)
(10.4262 -0.0364048 0)
(10.4518 -0.0451256 0)
(10.4453 -0.0460632 0)
(10.4742 -0.0652338 0)
(10.4667 -0.0609789 0)
(10.4961 -0.0804559 0)
(10.4964 -0.0855962 0)
(10.5063 -0.0843592 0)
(10.5262 -0.102035 0)
(10.5073 -0.0858846 0)
(10.5454 -0.0895145 0)
(10.5094 -0.0769509 0)
(10.5518 -0.0562789 0)
(10.5223 -0.0377118 0)
(10.5473 -0.0158246 0)
(10.5601 0.0136937 0)
(10.5477 0.0280751 0)
(10.6084 0.0444494 0)
(10.5807 0.0450481 0)
(10.659 0.0336716 0)
(10.6242 0.0227456 0)
(10.7055 -0.0134093 0)
(10.6398 -0.0309923 0)
(10.7209 -0.0662704 0)
(10.6399 -0.0818386 0)
(10.6799 -0.0921613 0)
(10.6472 -0.106972 0)
(10.6185 -0.0867315 0)
(10.6749 -0.104227 0)
(10.6034 -0.0622007 0)
(10.6966 -0.086735 0)
(10.6613 -0.0422723 0)
(10.7395 -0.0684722 0)
(10.7656 -0.0436449 0)
(10.8301 -0.0521532 0)
(10.8771 -0.0693086 0)
(10.9851 -0.0695046 0)
(10.9934 -0.114835 0)
(11.1842 -0.138168 0)
(11.1204 -0.174266 0)
(11.3775 -0.240407 0)
(11.2927 -0.28294 0)
(11.5477 -0.363072 0)
(11.4982 -0.431119 0)
(11.6732 -0.471949 0)
(11.6869 -0.580332 0)
(11.8259 -0.562312 0)
(11.8086 -0.703011 0)
(12.0015 -0.634427 0)
(11.8455 -0.757773 0)
(12.1324 -0.690705 0)
(11.8741 -0.733184 0)
(12.1847 -0.716702 0)
(11.9468 -0.69313 0)
(12.1828 -0.680718 0)
(12.058 -0.659622 0)
(12.1949 -0.618397 0)
(12.1698 -0.622293 0)
(12.245 -0.600007 0)
(12.2386 -0.561072 0)
(12.2988 -0.625602 0)
(12.2756 -0.538009 0)
(12.3372 -0.633707 0)
(12.3053 -0.59427 0)
(12.3448 -0.646051 0)
(12.3327 -0.658314 0)
(12.3445 -0.698968 0)
(12.369 -0.717755 0)
(12.3596 -0.761794 0)
(12.4064 -0.821109 0)
(12.4005 -0.856254 0)
(12.4423 -0.943467 0)
(12.4693 -1.03386 0)
(12.4938 -1.0949 0)
(12.5251 -1.24051 0)
(12.5632 -1.34315 0)
(12.6091 -1.46242 0)
(12.578 -1.6262 0)
(12.664 -1.76291 0)
(12.5701 -1.93304 0)
(12.5728 -2.09851 0)
(12.521 -2.25785 0)
(12.3987 -2.47376 0)
(12.3676 -2.59889 0)
(12.1983 -2.83673 0)
(12.155 -2.95541 0)
(11.9414 -3.14422 0)
(12.0371 -3.30834 0)
(11.7569 -3.51262 0)
(12.096 -3.67118 0)
(11.7494 -3.94788 0)
(12.2658 -4.08001 0)
(12.0306 -4.33298 0)
(12.5115 -4.50446 0)
(12.5621 -4.75188 0)
(12.8621 -4.79732 0)
(12.9868 -4.90063 0)
(13.0758 -4.8365 0)
(13.3358 -4.72311 0)
(12.9877 -4.46957 0)
(13.3488 -4.22092 0)
(13.0131 -3.87768 0)
(13.3187 -3.53285 0)
(13.0245 -3.05507 0)
(13.3493 -2.56528 0)
(13.3345 -2.07253 0)
(13.5287 -1.37672 0)
(13.5594 -0.728636 0)
(13.6783 0.0844254 0)
(13.6836 0.854138 0)
(13.4211 1.51178 0)
(13.1419 2.17635 0)
(12.5901 2.66805 0)
(12.0195 2.79981 0)
(11.2057 2.88656 0)
(10.5954 2.93772 0)
(9.95451 2.6314 0)
(9.36132 2.67786 0)
(8.57662 2.6302 0)
(8.36943 2.36054 0)
(8.03345 2.17942 0)
(7.56886 2.6913 0)
(7.39598 1.95144 0)
(7.39254 2.20193 0)
(6.54781 2.11225 0)
(6.94123 2.55475 0)
(6.01572 1.36283 0)
(6.85601 2.81193 0)
(5.4153 1.71798 0)
(6.56497 2.23797 0)
(6.09423 1.33554 0)
(5.93512 0.807621 0)
(5.85605 1.63375 0)
(4.08118 2.14882 0)
(5.06378 1.47119 0)
(4.4206 0.559373 0)
(5.36521 -0.437765 0)
(6.21398 -1.32115 0)
(6.65104 -2.21426 0)
(6.63754 -2.32793 0)
(6.39565 -2.87483 0)
(6.38162 -3.65911 0)
(6.81892 -3.52982 0)
(8.05326 -2.88244 0)
(9.47047 -1.95826 0)
(10.0603 -1.02377 0)
(10.5829 -0.564872 0)
(9.62521 -0.506917 0)
(9.91096 0.322635 0)
(9.64897 1.86211 0)
(10.2349 3.29636 0)
(10.1055 4.81786 0)
(10.768 7.00618 0)
(11.1379 8.66687 0)
(10.7052 9.54189 0)
(10.2127 10.003 0)
(11.622 9.84158 0)
(8.80375 11.978 0)
(12.1886 8.37391 0)
(10.6291 13.2997 0)
(11.8832 -0.0164686 0)
(11.8501 -0.00981852 0)
(11.7505 -0.034528 0)
(11.7191 -0.0757747 0)
(11.7177 -0.109571 0)
(11.7469 -0.122394 0)
(11.7963 -0.140278 0)
(11.8201 -0.122087 0)
(11.8405 -0.108768 0)
(11.8435 -0.106741 0)
(11.8357 -0.0787909 0)
(11.8241 -0.0816299 0)
(11.8174 -0.0748326 0)
(11.8002 -0.0597096 0)
(11.8034 -0.0716514 0)
(11.7922 -0.059066 0)
(11.8046 -0.0562108 0)
(11.795 -0.0636362 0)
(11.8197 -0.0503917 0)
(11.8094 -0.0556194 0)
(11.8335 -0.0594194 0)
(11.8386 -0.0532214 0)
(11.8368 -0.0616029 0)
(11.8582 -0.0725453 0)
(11.8519 -0.0672684 0)
(11.8568 -0.0788407 0)
(11.8718 -0.0845015 0)
(11.8578 -0.0740019 0)
(11.8781 -0.0880137 0)
(11.8677 -0.076362 0)
(11.8608 -0.0699798 0)
(11.868 -0.0800878 0)
(11.8408 -0.0606531 0)
(11.8575 -0.0612264 0)
(11.8288 -0.0627057 0)
(11.8545 -0.0445021 0)
(11.8384 -0.0468048 0)
(11.8595 -0.0442978 0)
(11.8647 -0.0335175 0)
(11.87 -0.0440073 0)
(11.8841 -0.0455544 0)
(11.887 -0.0473109 0)
(11.8846 -0.0630345 0)
(11.9034 -0.0723005 0)
(11.8887 -0.0748722 0)
(11.9066 -0.0960051 0)
(11.9071 -0.0948427 0)
(11.905 -0.0963129 0)
(11.9242 -0.108606 0)
(11.9116 -0.0897226 0)
(11.9308 -0.0925021 0)
(11.9163 -0.0767414 0)
(11.9267 -0.0629476 0)
(11.9184 -0.0428716 0)
(11.9042 -0.0313733 0)
(11.933 -0.0101835 0)
(11.8936 0.0114415 0)
(11.949 0.00610291 0)
(11.9237 0.0297665 0)
(11.9881 0.00274317 0)
(11.9686 0.0126211 0)
(12.0343 -0.0247527 0)
(12.0004 -0.0273994 0)
(12.0442 -0.0714641 0)
(12.0352 -0.0649137 0)
(11.9956 -0.0951762 0)
(12.0712 -0.0915816 0)
(11.9418 -0.0947183 0)
(12.0988 -0.0922898 0)
(11.9485 -0.0918161 0)
(12.1056 -0.0727866 0)
(12.0173 -0.0971373 0)
(12.1287 -0.0653311 0)
(12.1225 -0.105443 0)
(12.1906 -0.0849293 0)
(12.2197 -0.119769 0)
(12.3004 -0.139555 0)
(12.3093 -0.154911 0)
(12.4298 -0.233874 0)
(12.4178 -0.210243 0)
(12.5267 -0.343234 0)
(12.5531 -0.312052 0)
(12.6043 -0.454675 0)
(12.6894 -0.451299 0)
(12.6527 -0.550109 0)
(12.7997 -0.58021 0)
(12.6952 -0.640064 0)
(12.8641 -0.675307 0)
(12.7389 -0.713233 0)
(12.8561 -0.7167 0)
(12.7507 -0.759622 0)
(12.8048 -0.688536 0)
(12.7112 -0.765778 0)
(12.738 -0.649749 0)
(12.6695 -0.728196 0)
(12.6849 -0.622246 0)
(12.6543 -0.650764 0)
(12.676 -0.619262 0)
(12.6547 -0.580946 0)
(12.6868 -0.625905 0)
(12.6379 -0.543581 0)
(12.6678 -0.629147 0)
(12.6272 -0.570627 0)
(12.6014 -0.62414 0)
(12.6241 -0.656125 0)
(12.5406 -0.632889 0)
(12.5825 -0.727279 0)
(12.5436 -0.71152 0)
(12.5131 -0.746838 0)
(12.5467 -0.847404 0)
(12.4837 -0.825685 0)
(12.4908 -0.957163 0)
(12.4969 -1.02573 0)
(12.433 -1.1031 0)
(12.4532 -1.263 0)
(12.4351 -1.34151 0)
(12.4106 -1.50538 0)
(12.3611 -1.62387 0)
(12.3614 -1.77319 0)
(12.2224 -1.9229 0)
(12.2452 -2.08328 0)
(12.0601 -2.23179 0)
(12.0801 -2.42082 0)
(11.9159 -2.57291 0)
(11.9215 -2.7544 0)
(11.7461 -2.90092 0)
(11.8592 -3.1112 0)
(11.6746 -3.30249 0)
(11.8102 -3.48924 0)
(11.8002 -3.76614 0)
(11.8122 -3.96982 0)
(11.9614 -4.2137 0)
(11.9613 -4.48043 0)
(12.2008 -4.76556 0)
(12.1873 -4.8478 0)
(12.2154 -4.99365 0)
(12.2513 -4.94326 0)
(11.9111 -4.82123 0)
(12.0734 -4.62525 0)