/*--------------------------------*- C++ -*----------------------------------*\
| =========                 |                                                 |
| \\      /  F ield         | OpenFOAM: The Open Source CFD Toolbox           |
|  \\    /   O peration     | Version:  2.4.0                                 |
|   \\  /    A nd           | Web:      www.OpenFOAM.org                      |
|    \\/     M anipulation  |                                                 |
\*---------------------------------------------------------------------------*/
FoamFile
{
    version     2.0;
    format      ascii;
    class       volScalarField;
    location    "0.51";
    object      k;
}
// * * * * * * * * * * * * * * * * * * * * * * * * * * * * * * * * * * * * * //

dimensions      [0 2 -2 0 0 0 0];

internalField   nonuniform List<scalar> 
8800
(
8.11545
10.2677
8.79383
6.82063
5.71231
4.96115
4.53993
4.13114
3.92417
3.6576
3.55546
3.35269
3.30411
3.14993
3.1069
2.96965
2.92915
2.78823
2.74611
2.54016
1.40031
4.35363
5.31819
5.28729
5.13491
4.79757
4.59248
4.27237
4.1293
3.87375
3.78043
3.57593
3.52292
3.37243
3.32981
3.21021
3.17782
3.07096
3.01531
2.96982
0.084137
0.732431
1.56208
1.93975
2.28503
2.42837
2.58344
2.5958
2.62756
2.59274
2.58819
2.54007
2.52565
2.4715
2.46113
2.41458
2.40438
2.3739
2.34627
2.31292
0.00334003
0.0698567
0.259022
0.414145
0.591237
0.699778
0.838163
0.923651
1.03767
1.0803
1.16584
1.21379
1.25549
1.30046
1.33954
1.37114
1.39257
1.43565
1.46438
1.46724
0.000120365
0.00491104
0.0240366
0.0498423
0.0867809
0.129296
0.157801
0.204493
0.249464
0.280795
0.314143
0.365408
0.384807
0.429542
0.453484
0.502379
0.523231
0.577039
0.603388
0.657954
2.40667e-05
0.000307814
0.00152247
0.00399736
0.00684192
0.0134746
0.0174655
0.0263513
0.0333984
0.0441119
0.0504716
0.0658282
0.0717489
0.0858012
0.0938248
0.111677
0.119271
0.140706
0.150672
0.175949
2.33275e-05
5.08092e-05
0.000131499
0.000308288
0.000473402
0.000947636
0.00128136
0.00202528
0.00268345
0.00381762
0.00452258
0.00664904
0.00745231
0.00945365
0.010919
0.0140291
0.015494
0.0194048
0.0216088
0.0268167
2.21501e-05
3.13875e-05
5.3499e-05
7.8542e-05
8.79287e-05
0.000124241
0.000142174
0.000198707
0.000228543
0.000297443
0.000334511
0.000473498
0.000522265
0.000625073
0.000804032
0.00107435
0.00117327
0.00142962
0.00173663
0.00217897
2.10323e-05
2.97248e-05
6.00538e-05
6.89875e-05
7.9349e-05
8.68361e-05
8.75186e-05
8.94161e-05
9.96782e-05
0.000102557
0.00011196
0.000117297
0.000123214
0.000126345
0.000130617
0.000144809
0.000152312
0.000171026
0.00018081
0.00019694
2.06854e-05
2.81384e-05
3.93235e-05
5.59184e-05
6.01092e-05
6.69869e-05
7.33289e-05
7.64757e-05
7.67048e-05
7.59834e-05
7.54355e-05
7.72894e-05
7.68763e-05
7.89573e-05
8.52504e-05
8.65457e-05
8.70649e-05
8.83984e-05
8.78622e-05
8.9379e-05
2.08115e-05
2.71414e-05
4.43167e-05
5.69309e-05
7.12743e-05
7.40871e-05
7.38535e-05
7.40106e-05
7.29398e-05
7.31513e-05
7.52258e-05
7.85917e-05
8.35448e-05
8.3971e-05
8.32048e-05
8.34742e-05
8.33516e-05
8.49142e-05
8.69322e-05
9.38869e-05
2.09974e-05
3.33842e-05
4.2693e-05
6.15194e-05
7.03942e-05
7.03678e-05
7.39522e-05
7.8599e-05
7.95294e-05
8.57748e-05
8.84031e-05
9.68858e-05
0.000102133
0.000106019
0.00011554
0.000126452
0.000132282
0.000154169
0.000174082
0.000194545
2.12163e-05
2.99495e-05
4.18385e-05
8.20629e-05
9.48551e-05
0.000111969
0.0001432
0.000170293
0.000195997
0.000290348
0.000340501
0.000452051
0.000515671
0.000661307
0.000768263
0.00103521
0.00120447
0.00165871
0.00202217
0.00247869
2.16166e-05
4.27564e-05
0.000118966
0.000372998
0.000532565
0.000868733
0.00123748
0.00198199
0.00251022
0.00403933
0.00475786
0.00647737
0.00746941
0.00969886
0.0109982
0.0142375
0.0161288
0.0208928
0.0237919
0.0303497
2.50462e-05
0.000308753
0.00141651
0.00486524
0.00742807
0.0122699
0.0179795
0.026258
0.0318082
0.0459961
0.0520717
0.0651179
0.0717541
0.0865669
0.094265
0.112854
0.122417
0.146207
0.158818
0.191791
0.000123505
0.00494285
0.0214536
0.0574391
0.0864305
0.119408
0.167295
0.205173
0.23612
0.29504
0.316503
0.362211
0.385089
0.43329
0.455315
0.508013
0.532358
0.59277
0.620937
0.692395
0.00336756
0.0697004
0.255321
0.423946
0.584973
0.694632
0.845787
0.925635
1.02055
1.10764
1.15229
1.21642
1.25966
1.30921
1.33297
1.38464
1.40615
1.459
1.4789
1.52671
0.0846362
0.728401
1.56517
1.94076
2.28036
2.42835
2.58548
2.5967
2.62644
2.60042
2.58828
2.54027
2.52596
2.47587
2.46171
2.42038
2.41103
2.38188
2.36998
2.34016
1.40772
4.3471
5.3227
5.28591
5.13198
4.80163
4.58291
4.27988
4.13199
3.86476
3.78021
3.5785
3.51937
3.36657
3.32822
3.19681
3.16771
3.04615
3.00565
2.90275
8.12421
10.2592
8.79998
6.81113
5.71647
4.96268
4.53362
4.13467
3.92663
3.64503
3.55662
3.34569
3.29908
3.12907
3.098
2.933
2.89746
2.71623
2.65206
2.43966
1.74265
1.24255
0.967749
0.806092
0.718485
0.662669
0.632919
0.608446
0.595249
0.580985
0.573953
0.565941
0.562831
0.558171
0.555014
0.54899
0.543226
0.534819
0.527919
0.519382
0.514527
0.504484
0.49864
0.48942
0.484736
0.474335
0.470016
0.460089
0.456399
0.446329
0.442173
0.430565
0.42593
0.414357
0.411115
0.40444
0.401701
0.400931
0.398889
0.399593
0.397488
0.396381
0.388864
0.385935
0.372595
0.367244
0.353305
0.348624
0.33791
0.336349
0.334971
0.338173
0.341245
0.351077
0.357488
0.373908
0.384897
0.403944
0.425929
0.45065
0.461503
0.431307
0.346831
0.302815
0.256041
0.20669
0.152503
0.120797
0.105838
0.0983305
0.0926745
0.0907669
0.0912068
0.0921882
0.0950188
0.0978484
0.102883
0.105154
0.105611
0.105866
0.104958
0.10495
0.106312
0.109844
0.119492
0.130513
0.151132
0.180508
0.201055
0.226399
0.236971
0.249177
0.257731
0.259963
0.266645
0.268429
0.271892
0.272949
0.274013
0.274948
0.275236
0.273933
0.274884
0.273331
0.274647
0.274307
0.274614
0.275996
0.276642
0.276805
0.277847
0.277323
0.277208
0.276317
0.275072
0.272672
0.270736
0.266581
0.264548
0.258922
0.255856
0.249093
0.241521
0.233487
0.224798
0.209013
0.200145
0.182185
0.166541
0.152602
0.131955
0.116151
0.0963054
0.0772031
0.0620947
0.0469168
0.0354625
0.0266021
0.0202533
0.0155612
0.0118755
0.00977618
0.00808608
0.00679728
0.00649297
0.00591941
0.00561371
0.00562148
0.00521595
0.00485161
0.0045354
0.00437112
0.00448801
0.00470124
0.00501178
0.00562248
0.00825715
0.00987184
0.0114386
0.0168838
0.0249844
0.0280429
0.0326883
0.0463318
0.12194
0.185691
0.195456
0.236899
0.324503
0.336267
0.315098
0.224851
0.154357
0.118632
0.0952339
0.0781431
0.0697074
0.0679784
0.0683652
0.0699363
0.0721648
0.0779838
0.0939543
0.153581
0.17196
0.165907
0.13848
0.10594
0.0767027
0.0531418
0.0344485
0.0243219
0.0217788
0.0224747
0.0310262
0.0770101
0.212109
0.265897
0.35784
1.85641
2.50286
2.04119
1.69981
1.46288
1.28732
1.16426
1.06568
0.993959
0.929908
0.884545
0.840602
0.811115
0.778617
0.758888
0.733932
0.721231
0.700748
0.691975
0.674435
0.666961
0.651618
0.644778
0.630784
0.624929
0.612902
0.607687
0.596938
0.592333
0.582576
0.578462
0.569158
0.565403
0.555761
0.552445
0.542519
0.539537
0.529314
0.527215
0.51808
0.517272
0.509921
0.509521
0.503483
0.501767
0.494722
0.491515
0.481395
0.477691
0.46652
0.462793
0.452377
0.450214
0.442716
0.442209
0.438832
0.440498
0.441238
0.446109
0.453982
0.470155
0.504329
0.538494
0.531677
0.49677
0.412548
0.320753
0.248268
0.197431
0.164961
0.144055
0.130159
0.120537
0.11603
0.113946
0.112204
0.112282
0.112499
0.112004
0.112286
0.114037
0.118446
0.126221
0.144399
0.160197
0.192579
0.218316
0.232733
0.249897
0.252812
0.259118
0.261855
0.261728
0.262642
0.261267
0.255987
0.252636
0.243607
0.237907
0.229236
0.220858
0.216707
0.208147
0.20315
0.198766
0.193858
0.191532
0.189623
0.188291
0.188982
0.190128
0.191546
0.194438
0.195497
0.198618
0.199306
0.200154
0.200652
0.199066
0.197463
0.194622
0.187583
0.182783
0.171421
0.16253
0.150123
0.135281
0.122256
0.103804
0.0889201
0.0734452
0.0574402
0.0449509
0.0343963
0.0264811
0.0200602
0.0156847
0.0123105
0.00979955
0.00857081
0.00703584
0.00630362
0.0058389
0.0052409
0.00507526
0.00499662
0.00471507
0.00468002
0.00456872
0.00421364
0.0042099
0.00421824
0.00426775
0.00458148
0.00518386
0.00604001
0.00829842
0.0122859
0.0142694
0.017465
0.0282949
0.0340647
0.0371214
0.043421
0.0752618
0.177366
0.204625
0.219395
0.306956
0.361703
0.351563
0.28268
0.178998
0.126972
0.10364
0.0882629
0.0744053
0.0671186
0.0654161
0.0671194
0.0703982
0.0724501
0.0746269
0.080995
0.109847
0.157175
0.160556
0.147953
0.119028
0.0911097
0.0630445
0.0427871
0.028401
0.022304
0.0217129
0.0247784
0.046036
0.138263
0.22528
0.344155
1.01355
2.07085
1.82095
1.60124
1.43633
1.29964
1.19647
1.10375
1.03523
0.967076
0.919212
0.86596
0.831796
0.78995
0.765753
0.733107
0.716576
0.691043
0.680041
0.659992
0.651816
0.635257
0.628352
0.61354
0.60717
0.593217
0.587532
0.574942
0.570041
0.558816
0.55459
0.544484
0.540568
0.530725
0.526587
0.516569
0.512388
0.502995
0.499297
0.491252
0.488586
0.482627
0.480885
0.476764
0.475282
0.471622
0.469963
0.465499
0.463601
0.458756
0.456707
0.452015
0.450117
0.445988
0.444602
0.441943
0.442003
0.443099
0.446666
0.452741
0.468007
0.479218
0.503641
0.526193
0.537282
0.529802
0.50565
0.451284
0.384887
0.321326
0.270017
0.230189
0.198546
0.179033
0.16597
0.159157
0.15204
0.150765
0.152293
0.157475
0.169109
0.194145
0.209487
0.234596
0.248695
0.253507
0.261756
0.261717
0.260472
0.259324
0.252467
0.24478
0.235526
0.213909
0.20243
0.183806
0.161349
0.150683
0.127895
0.114557
0.105788
0.0901941
0.0856899
0.0769645
0.0734379
0.068909
0.0640922
0.0636701
0.0619152
0.0611646
0.0608732
0.0609442
0.062551
0.0631217
0.0646179
0.0658581
0.0663602
0.0681608
0.0678817
0.0681288
0.0675742
0.0656002
0.0635186
0.0582713
0.053989
0.0480927
0.042408
0.0361551
0.0305098
0.0251067
0.0202284
0.0167629
0.013268
0.011142
0.00915773
0.00761931
0.00664871
0.0056588
0.00531932
0.0050651
0.00465749
0.00465334
0.0044615
0.0043076
0.0042985
0.00411957
0.00400897
0.00395106
0.0039128
0.00393734
0.00405963
0.00444328
0.00499074
0.00624128
0.00772115
0.00967075
0.0149495
0.0186348
0.0216529
0.0294063
0.0411491
0.0455151
0.0484991
0.0578303
0.135287
0.209569
0.220047
0.258569
0.364509
0.377526
0.34955
0.237159
0.154095
0.109703
0.0926357
0.0841144
0.0734731
0.0664167
0.0648638
0.0662376
0.0719342
0.0728927
0.0734167
0.0761298
0.0859008
0.129863
0.152488
0.146855
0.126093
0.100978
0.0765098
0.0508219
0.0328793
0.0236687
0.0219205
0.0225737
0.0304735
0.0833761
0.155748
0.277607
0.595321
1.36549
1.24755
1.1318
1.04321
0.965989
0.90476
0.847574
0.80293
0.757273
0.723397
0.685928
0.65806
0.627089
0.603305
0.576889
0.55793
0.535683
0.522798
0.505348
0.497686
0.484914
0.479612
0.469179
0.464437
0.454759
0.448787
0.439149
0.431479
0.423062
0.415025
0.407114
0.400594
0.392224
0.386885
0.37914
0.37322
0.3672
0.360474
0.355581
0.349759
0.345238
0.341787
0.337813
0.33589
0.333318
0.33222
0.330445
0.328764
0.327835
0.325328
0.324378
0.32198
0.32084
0.319181
0.319467
0.320527
0.323228
0.329657
0.338021
0.351456
0.372472
0.393458
0.430216
0.459849
0.489935
0.492317
0.486852
0.471332
0.447584
0.414498
0.394255
0.359501
0.338791
0.313278
0.295947
0.284372
0.275224
0.273284
0.274711
0.273662
0.274388
0.273555
0.270478
0.268937
0.263384
0.252913
0.24446
0.223661
0.20906
0.186223
0.157816
0.136936
0.111134
0.0895439
0.0731537
0.0567841
0.0490863
0.0392375
0.0333108
0.0295275
0.0242011
0.0226449
0.0200043
0.0185555
0.0176478
0.0158558
0.0156529
0.0150359
0.0146642
0.0141826
0.0137041
0.0138745
0.0136597
0.0136635
0.0136865
0.0136656
0.0137834
0.01366
0.0135998
0.0134574
0.0131801
0.0125712
0.0120578
0.0111822
0.0102039
0.00938494
0.00815386
0.0075846
0.00654783
0.00589998
0.00545565
0.00484616
0.0047365
0.00445341
0.00438466
0.00416921
0.00396651
0.00399832
0.00387299
0.00389779
0.00394875
0.00383942
0.00391074
0.00386902
0.00374127
0.00375988
0.00378078
0.00391001
0.00425611
0.00498747
0.00679567
0.0081605
0.0107044
0.013492
0.018387
0.0251301
0.0289396
0.0347383
0.0480805
0.0572807
0.0597331
0.0632648
0.0832454
0.195779
0.231142
0.23883
0.305755
0.390952
0.391119
0.338656
0.215351
0.146115
0.104617
0.086153
0.0807973
0.0743479
0.066942
0.06469
0.0659068
0.0700076
0.0708546
0.0715182
0.0726971
0.0767865
0.103121
0.139401
0.141492
0.126113
0.109848
0.0847837
0.0647759
0.042202
0.0271131
0.0224029
0.0232127
0.0262249
0.0464203
0.10076
0.178142
0.366552
0.62811
0.593319
0.542668
0.511189
0.477922
0.453994
0.431643
0.413449
0.397087
0.382698
0.370684
0.357412
0.346667
0.334359
0.321981
0.311312
0.297455
0.288424
0.276832
0.26983
0.262437
0.258457
0.254946
0.251933
0.250701
0.247962
0.246101
0.242153
0.238442
0.233213
0.22602
0.221829
0.213181
0.209086
0.202164
0.197481
0.19312
0.18759
0.185433
0.180592
0.178661
0.174841
0.17338
0.170819
0.16941
0.16832
0.166716
0.166239
0.165813
0.165131
0.165058
0.16445
0.164874
0.164907
0.165508
0.166818
0.168549
0.172718
0.177041
0.185987
0.197019
0.213151
0.238939
0.26588
0.305208
0.345174
0.380315
0.403467
0.405928
0.402437
0.393007
0.385202
0.367091
0.359139
0.342068
0.333858
0.325404
0.308966
0.301093
0.288398
0.271215
0.260834
0.236163
0.219013
0.192682
0.165204
0.139553
0.114168
0.0895618
0.0707003
0.0546563
0.0439789
0.0345298
0.0275734
0.0224009
0.0176214
0.0145279
0.011647
0.00941109
0.00803531
0.00646325
0.00583947
0.00503866
0.00461225
0.00434754
0.00397065
0.00388438
0.00369384
0.0035525
0.00344221
0.00331547
0.00329353
0.00320606
0.00319668
0.00319354
0.00316195
0.00316119
0.00313946
0.00310617
0.00308013
0.00303764
0.00296334
0.00293923
0.00287213
0.0028641
0.00280179
0.00282137
0.00283147
0.00284934
0.00297887
0.00298201
0.00308384
0.00312663
0.00322781
0.00338703
0.00341212
0.00349978
0.0035041
0.00347652
0.00360486
0.00364675
0.00370939
0.00387402
0.00387857
0.00395738
0.00417939
0.00455309
0.00554634
0.00673468
0.00861237
0.0125185
0.0149816
0.0188937
0.0266104
0.0315611
0.040913
0.04695
0.0603484
0.0740842
0.0776011
0.0787388
0.0847515
0.139554
0.239093
0.24727
0.263112
0.363185
0.431593
0.419927
0.333339
0.208684
0.144652
0.103229
0.0792038
0.0747213
0.0724287
0.0684037
0.0684725
0.0722122
0.0718107
0.0708807
0.0706581
0.0709951
0.0732671
0.091688
0.122966
0.130853
0.122167
0.112233
0.0938794
0.069595
0.0533911
0.0353549
0.024438
0.0241277
0.0270717
0.0489468
0.0741708
0.106015
0.213745
0.17214
0.167636
0.157868
0.151684
0.143563
0.137356
0.132469
0.126926
0.124106
0.120318
0.118747
0.116208
0.114803
0.11319
0.11083
0.109084
0.104862
0.102165
0.0976226
0.0944547
0.0911372
0.0887782
0.0870892
0.0861712
0.0861769
0.0861122
0.0864382
0.0865266
0.0866176
0.0865593
0.0854497
0.0843487
0.0807766
0.0786054
0.0743467
0.0720939
0.0687449
0.0658492
0.0643796
0.0617545
0.0608724
0.0593892
0.0587547
0.0582491
0.0575468
0.0575543
0.0570278
0.0569942
0.0566701
0.0566643
0.0566625
0.0565897
0.0570588
0.0575592
0.0589397
0.0602821
0.0615805
0.064374
0.0662172
0.0704039
0.0740001
0.0822229
0.0896986
0.10425
0.120414
0.139998
0.166001
0.189233
0.216551
0.240531
0.253191
0.269037
0.269129
0.267812
0.263221
0.250078
0.239985
0.221021
0.201704
0.180235
0.154517
0.133065
0.107655
0.0860978
0.0679819
0.0532065
0.0419116
0.0327366
0.0258543
0.0204477
0.0163088
0.0131519
0.0106184
0.0085938
0.00696957
0.0055638
0.00446033
0.00358189
0.00286054
0.00240028
0.00200069
0.00177112
0.00160969
0.00151298
0.00145807
0.00143787
0.00141993
0.00141464
0.00142215
0.00143708
0.00149312
0.00152729
0.00159755
0.00166397
0.00170706
0.00178868
0.00181292
0.00184575
0.00184956
0.0018467
0.001837
0.00183751
0.00184077
0.00186804
0.00189308
0.0019556
0.00203302
0.00208644
0.00226086
0.00240154
0.00248601
0.0026819
0.00275071
0.00295602
0.00311803
0.00334325
0.00355975
0.00362045
0.00382245
0.00401083
0.00421069
0.00477891
0.00504451
0.00540059
0.00594428
0.00707554
0.0080994
0.0104364
0.0129254
0.0162623
0.0222314
0.0265855
0.0355881
0.0471541
0.0539232
0.0703467
0.0841624
0.0988867
0.10491
0.104801
0.105117
0.123061
0.22295
0.261057
0.254971
0.29919
0.42042
0.461241
0.438422
0.333801
0.216135
0.150446
0.102286
0.0767563
0.0687984
0.0686115
0.0682125
0.0721718
0.0782906
0.0775387
0.0727005
0.0710334
0.070912
0.0732853
0.0923395
0.115157
0.120531
0.112812
0.107135
0.102699
0.0825402
0.0584655
0.0450211
0.0297004
0.0292174
0.0299387
0.0598703
0.0691134
0.0811172
0.13087
0.0266435
0.0264044
0.0257722
0.0252346
0.0244546
0.0236815
0.0231392
0.0223345
0.0218969
0.0215394
0.0215187
0.021508
0.0216329
0.0218049
0.0218822
0.0219477
0.0218487
0.0216794
0.0210657
0.0204824
0.0196527
0.0189895
0.0185173
0.018186
0.0181757
0.0181258
0.018341
0.0185143
0.0190663
0.0193586
0.0194468
0.0194861
0.0193396
0.0191381
0.018441
0.0179538
0.0170991
0.0162558
0.015793
0.0149379
0.0146655
0.0141271
0.0139142
0.0137893
0.0137364
0.013827
0.0138564
0.01407
0.0141694
0.0143778
0.0146659
0.0147556
0.0150311
0.0152158
0.0157843
0.0162403
0.017278
0.0185265
0.0193567
0.0213563
0.0226217
0.0252745
0.0275381
0.0307775
0.0378034
0.0424255
0.0527346
0.0614993
0.0719053
0.0846248
0.0906854
0.0998139
0.104823
0.104891
0.103787
0.0993738
0.0934985
0.0834633
0.0730621
0.0622374
0.0515625
0.0419828
0.0330385
0.026009
0.0198113
0.0153088
0.0117337
0.00901429
0.007193
0.00566797
0.00472275
0.00389897
0.00326553
0.00273848
0.00224804
0.00186957
0.00156644
0.00134829
0.00119197
0.00112126
0.00107519
0.00104555
0.00104197
0.00104414
0.0010562
0.00110997
0.00114322
0.00121875
0.00127467
0.0013573
0.00153425
0.00164335
0.00186366
0.00201632
0.00227447
0.00249196
0.00259311
0.0027617
0.00282575
0.0028706
0.0028743
0.00288768
0.00289072
0.00289721
0.00291676
0.00302028
0.00307453
0.00316815
0.00330945
0.00338963
0.00376622
0.00392213
0.00420766
0.00440886
0.0047716
0.00549911
0.00577132
0.00624436
0.00668142
0.00692949
0.00757971
0.00810206
0.00894675
0.00995012
0.0110429
0.013602
0.0157588
0.0191836
0.024509
0.0287662
0.0400302
0.0498705
0.064425
0.0847264
0.0998106
0.126
0.13903
0.143502
0.142728
0.140595
0.141839
0.198179
0.273526
0.265335
0.252869
0.314647
0.440969
0.479621
0.463983
0.389473
0.257832
0.152377
0.0990513
0.0764388
0.0683543
0.0692754
0.0689525
0.0737066
0.0793979
0.078961
0.0735405
0.071374
0.0715328
0.0780805
0.0984162
0.114336
0.118912
0.113411
0.0961952
0.0975454
0.0966683
0.0762071
0.0542771
0.0405415
0.0560865
0.0407719
0.047518
0.0710032
0.0742623
0.0921414
0.00216938
0.00216041
0.00214594
0.00211756
0.00207988
0.00202488
0.00198699
0.00193996
0.00192718
0.00191438
0.00192288
0.00196272
0.00205926
0.00215475
0.00222428
0.0022895
0.0023065
0.00231914
0.00230465
0.00228165
0.00222263
0.00214795
0.0020809
0.00199129
0.00194717
0.00189566
0.00188553
0.00188748
0.00192628
0.00203522
0.00211611
0.0022464
0.00229261
0.00238177
0.00240136
0.0024233
0.00242633
0.00237889
0.00226138
0.00206481
0.0019413
0.00181305
0.0017426
0.0017107
0.00169481
0.00170946
0.00174243
0.00186657
0.00199958
0.00214649
0.00229353
0.00235189
0.00242057
0.00243481
0.00246816
0.00255142
0.0027852
0.00329938
0.00362784
0.00440628
0.0048756
0.0056295
0.00647362
0.00711466
0.00880303
0.0100845
0.0124613
0.0155612
0.0181209
0.0234382
0.0259137
0.0291015
0.0318414
0.0325596
0.0323013
0.0313483
0.0293044
0.0261969
0.0229145
0.0191226
0.0156338
0.0123056
0.00934408
0.00706662
0.00512858
0.00384063
0.00285331
0.00221914
0.00182346
0.00154521
0.00140758
0.0012646
0.00117951
0.00107266
0.0010089
0.000971075
0.000956785
0.000961262
0.000978344
0.00104865
0.00111073
0.001231
0.00136419
0.00145128
0.0016755
0.00188208
0.00204577
0.00243482
0.00267744
0.00325144
0.00359804
0.00433297
0.00502923
0.00563482
0.00660695
0.00718427
0.00781614
0.00829926
0.00861791
0.0088236
0.00889818
0.0089331
0.00891324
0.00880061
0.00874082
0.0086038
0.00852995
0.00842482
0.0083007
0.00839319
0.00848465
0.0087489
0.00903624
0.00924179
0.00992136
0.0103173
0.0111244
0.0116824
0.012177
0.0126443
0.0134654
0.0142137
0.0158478
0.0175458
0.020752
0.0236263
0.0285297
0.0353853
0.0426781
0.0532525
0.0781704
0.0957691
0.125734
0.159994
0.179476
0.188096
0.191407
0.190132
0.190265
0.194067
0.226559
0.284176
0.288101
0.2454
0.243281
0.319209
0.452416
0.50183
0.529323
0.472277
0.278892
0.154705
0.0990426
0.079621
0.0716267
0.0735572
0.0721283
0.0724555
0.0811021
0.0824351
0.0762081
0.0726902
0.073351
0.0863713
0.108397
0.114661
0.117764
0.114485
0.0988363
0.0875544
0.0928585
0.09211
0.0832178
0.0537932
0.0605333
0.0495414
0.0491079
0.0696155
0.0764259
0.0834802
0.000197326
0.000198803
0.000205432
0.000209463
0.000209003
0.000206848
0.00020472
0.000199898
0.000198544
0.000196798
0.000195448
0.000194085
0.000193829
0.000196125
0.000202995
0.000212825
0.000220499
0.000227762
0.000230231
0.000230879
0.000228477
0.000223817
0.000222286
0.000216457
0.000212131
0.000202066
0.00019428
0.00018896
0.000188048
0.000191575
0.00020815
0.000224549
0.000240668
0.000255711
0.000265038
0.000269687
0.000271297
0.000266442
0.000250385
0.000230234
0.000214505
0.000202762
0.000197546
0.000196737
0.000197768
0.000202488
0.000208707
0.000230151
0.00025896
0.000286445
0.000309111
0.000316232
0.000315735
0.000293003
0.000280093
0.000277114
0.000281747
0.00032851
0.000393811
0.000561519
0.00071669
0.000884447
0.00113892
0.00128238
0.00160365
0.00184103
0.00230942
0.00285056
0.00347581
0.00470711
0.00573541
0.00647061
0.00753956
0.00828677
0.00833978
0.00820719
0.00780847
0.00711486
0.00607992
0.00505159
0.00397194
0.0029951
0.00219179
0.00155525
0.00115916
0.000887426
0.000753665
0.000718888
0.000725271
0.000760911
0.000780582
0.00081352
0.000834539
0.00086624
0.000925739
0.0010001
0.00122294
0.00143043
0.00172663
0.00233999
0.00267082
0.00331711
0.00375216
0.00422158
0.00525245
0.00581391
0.00669293
0.00784138
0.00874309
0.0108078
0.0121423
0.0141673
0.0165657
0.0182182
0.0209863
0.0224102
0.0242138
0.0256465
0.0264021
0.0271554
0.0271477
0.0269754
0.0265815
0.0257188
0.0249898
0.0237168
0.0231399
0.0219289
0.0207062
0.0198968
0.019364
0.0193491
0.019055
0.0191055
0.0192127
0.0194991
0.0199861
0.0202217
0.0208064
0.0214206
0.0222147
0.0245463
0.0267193
0.0311958
0.0365314
0.0413834
0.0535766
0.0630408
0.0817478
0.112103
0.147859
0.193776
0.215055
0.215609
0.216061
0.219112
0.219496
0.212675
0.208825
0.211823
0.253238
0.28393
0.266572
0.208274
0.222236
0.308404
0.441437
0.530769
0.630055
0.557535
0.338921
0.197245
0.117205
0.0913617
0.0776586
0.0756888
0.0734229
0.0727207
0.0810641
0.0837457
0.0787639
0.0772819
0.0798241
0.0882873
0.107768
0.111896
0.106695
0.101077
0.108963
0.0934136
0.104281
0.101778
0.156056
0.0870614
0.0709139
0.0545868
0.0527095
0.0600317
0.0791501
0.0850426
8.9269e-05
8.99174e-05
9.25508e-05
9.76008e-05
0.000100048
0.000100711
0.000100561
9.96082e-05
9.86892e-05
9.83729e-05
9.86714e-05
0.000100199
0.00010093
0.000101241
0.000101002
0.000100677
0.000100666
0.000101851
0.000103999
0.000106828
0.000107812
0.000108297
0.000107289
0.000104808
0.000103212
0.000102398
0.000102125
0.0001023
0.000101793
0.000100923
0.000100586
0.000101452
0.000104641
0.000108733
0.000110088
0.000110504
0.000109183
0.000107606
0.000107042
0.000108891
0.000112063
0.000114826
0.00011555
0.000114827
0.000114274
0.000113605
0.000113176
0.000113195
0.000112854
0.00011263
0.000112952
0.000114734
0.000115812
0.000117102
0.000115794
0.000113457
0.000112498
0.000114067
0.000118863
0.000136576
0.000153005
0.00018417
0.000220578
0.000257553
0.00030893
0.000341272
0.0004172
0.00047822
0.000570137
0.000735483
0.000955481
0.00107486
0.00136323
0.00166766
0.00176896
0.00176549
0.00171769
0.0016111
0.00137758
0.00114038
0.00088755
0.000685799
0.000534845
0.000471698
0.000461877
0.000474173
0.000537597
0.000623459
0.000787345
0.000967198
0.00108002
0.00130051
0.0014964
0.00184419
0.00224924
0.00277067
0.00394653
0.0046206
0.00596165
0.00729658
0.00853334
0.0104192
0.0114907
0.0134105
0.0161101
0.0177408
0.0211144
0.0234795
0.0279907
0.0330342
0.0369927
0.0435675
0.048917
0.0544633
0.0607601
0.064658
0.069339
0.0722373
0.0745023
0.0753092
0.0746943
0.073395
0.0716545
0.0675367
0.0640601
0.0603137
0.0561962
0.0521018
0.0480618
0.0436328
0.0421008
0.0396427
0.0381205
0.0368169
0.0347855
0.0343358
0.0340886
0.0343001
0.0350869
0.0364068
0.0382678
0.0434221
0.0483151
0.0555195
0.0668363
0.0778295
0.0983223
0.120497
0.165929
0.224666
0.249895
0.249435
0.243167
0.226259
0.22499
0.235141
0.237519
0.221722
0.201812
0.206944
0.247204
0.254975
0.202703
0.175746
0.191514
0.278883
0.418635
0.54164
0.658746
0.677395
0.501603
0.307702
0.160269
0.103863
0.0827962
0.0781007
0.0740884
0.0751932
0.0806892
0.085133
0.0816618
0.0809402
0.0923343
0.0929832
0.0957965
0.0999179
0.0969268
0.0999768
0.107818
0.101965
0.166375
0.134727
0.190307
0.156248
0.112208
0.070232
0.058067
0.0580209
0.0694345
0.0808231
9.55896e-05
9.64774e-05
9.8674e-05
0.000102304
0.000104349
0.000105472
0.000105381
0.000105388
0.000104324
0.00010321
0.000102478
0.000101985
0.000102059
0.000103341
0.000106394
0.000109129
0.000111407
0.000113232
0.000114676
0.000116984
0.000118618
0.000120041
0.000120441
0.000120159
0.000118012
0.000115213
0.000113956
0.000113833
0.000118347
0.00012535
0.000133303
0.000138949
0.000142266
0.000144411
0.000144452
0.000144026
0.000139521
0.000132511
0.000126651
0.00012293
0.000122612
0.000129459
0.00015141
0.000169503
0.000183206
0.00018814
0.000186835
0.000174776
0.000155069
0.000139345
0.000125794
0.000116484
0.000111059
0.000109995
0.000116757
0.000136304
0.000155434
0.000165213
0.000168376
0.000168519
0.00016188
0.000153129
0.000146176
0.000145835
0.000146352
0.000148809
0.000153911
0.000168593
0.000182518
0.000211891
0.000240651
0.00025667
0.00028648
0.000353283
0.000400224
0.000439824
0.000457301
0.000464328
0.000457274
0.000410921
0.000382494
0.000384465
0.000403461
0.000482821
0.000623824
0.0010186
0.00144042
0.00195653
0.00264124
0.00327172
0.00384083
0.00476085
0.00555158
0.00715657
0.00826841
0.0106688
0.0134379
0.0151371
0.0189856
0.0212225
0.025684
0.0291727
0.0319294
0.03888
0.043608
0.0495028
0.0590673
0.0652547
0.079414
0.0883912
0.103784
0.120229
0.130118
0.149737
0.159682
0.172371
0.181318
0.187489
0.191509
0.191123
0.188478
0.184223
0.178541
0.164735
0.157363
0.142322
0.131367
0.117751
0.104806
0.0949037
0.0855141
0.0802927
0.0729056
0.0684087
0.0648002
0.0616201
0.0616561
0.0620119
0.0633343
0.0670354
0.0706834
0.0789608
0.0892713
0.100469
0.124735
0.147136
0.176949
0.250437
0.285825
0.285709
0.278
0.25664
0.195679
0.181808
0.184495
0.175668
0.142877
0.140781
0.149683
0.185598
0.206854
0.192025
0.156532
0.144773
0.156031
0.223954
0.380744
0.513626
0.642883
0.746233
0.725072
0.486468
0.222757
0.117973
0.0877841
0.0823172
0.0762103
0.0843654
0.085147
0.0852047
0.0815656
0.0813325
0.0899134
0.0963025
0.091506
0.0908227
0.0875232
0.103608
0.21261
0.126841
0.145453
0.134171
0.142179
0.174234
0.162008
0.115289
0.0801159
0.0622685
0.0637908
0.0689544
0.000223821
0.000244623
0.000263391
0.000287412
0.000293266
0.000300081
0.000300785
0.000303939
0.000307009
0.000309796
0.000317124
0.000319244
0.000327685
0.000332532
0.000348944
0.000359317
0.000379588
0.000407146
0.000424027
0.000459243
0.000481138
0.000510774
0.000527897
0.00054265
0.000549996
0.000550216
0.000551167
0.000549392
0.000551448
0.000557863
0.000582212
0.000621762
0.00064723
0.00068912
0.000698084
0.000716466
0.000717038
0.000718049
0.000721022
0.000718178
0.000724983
0.000731913
0.00077424
0.00081104
0.000853584
0.000879545
0.000879079
0.000860388
0.000759192
0.00066738
0.000578995
0.000511486
0.000472167
0.000452072
0.000462555
0.000533372
0.00062634
0.000694796
0.00071957
0.000723061
0.000673371
0.000560893
0.000456464
0.000369227
0.000308716
0.000271811
0.000259413
0.000261633
0.000287823
0.000332009
0.000370879
0.000411198
0.000439663
0.00046617
0.000496363
0.000519089
0.000554407
0.000583402
0.000643681
0.000734726
0.000865997
0.00115144
0.00150242
0.00230511
0.00301815
0.00490305
0.00605236
0.00812279
0.0097488
0.011739
0.0144407
0.016179
0.0201347
0.0240102
0.0271381
0.0343916
0.0391154
0.0451445
0.0523558
0.05826
0.0680249
0.0764082
0.0865438
0.100785
0.110579
0.131716
0.148429
0.17192
0.201314
0.220966
0.26482
0.290857
0.322058
0.356534
0.369465
0.391577
0.402196
0.405751
0.406639
0.40256
0.393086
0.385742
0.364285
0.349213
0.325893
0.297704
0.282819
0.245929
0.225896
0.197576
0.176048
0.162613
0.142039
0.132296
0.124434
0.116247
0.116058
0.116061
0.117706
0.121916
0.13159
0.141758
0.159842
0.188141
0.210974
0.258958
0.319853
0.330852
0.321664
0.291279
0.210757
0.130686
0.0910542
0.0892576
0.105974
0.110622
0.0983571
0.0970567
0.118587
0.156076
0.157912
0.138097
0.121475
0.112516
0.116338
0.156687
0.302278
0.445596
0.595253
0.745363
0.868206
0.751069
0.333596
0.153164
0.101811
0.0903142
0.0834799
0.093134
0.101557
0.0870748
0.0831234
0.0790106
0.0758978
0.085813
0.0839983
0.0866112
0.0869069
0.126729
0.502675
0.242127
0.23911
0.147125
0.139982
0.172656
0.183178
0.156514
0.136042
0.0865687
0.0719428
0.0708566
0.00285851
0.00298439
0.00307776
0.00323409
0.00331107
0.00339698
0.003441
0.0035391
0.00359677
0.0036627
0.00377687
0.00380392
0.00388996
0.00392165
0.00402994
0.00407648
0.00415106
0.00430079
0.0043797
0.00465819
0.00479475
0.00509715
0.00522494
0.00541123
0.00549376
0.00551642
0.0055404
0.00552022
0.00553453
0.00552161
0.00556458
0.00562625
0.00570881
0.00595259
0.00601387
0.00617388
0.00622161
0.00626817
0.00628647
0.00626387
0.00628466
0.00624795
0.00625641
0.00622761
0.00619006
0.0061828
0.0060985
0.00602976
0.00572753
0.00545101
0.00513743
0.00485735
0.00474305
0.00464503
0.00469457
0.00475637
0.00482876
0.00484306
0.00481982
0.00475235
0.00430578
0.00377119
0.00322216
0.00271677
0.00234528
0.00208212
0.00199223
0.00198202
0.00204044
0.00219159
0.00231694
0.00251328
0.00268849
0.00277374
0.00282437
0.00287639
0.00298093
0.00316501
0.00360254
0.00413126
0.00531462
0.0063955
0.00894992
0.0114301
0.0144518
0.0197323
0.0228214
0.0283917
0.0322151
0.0392562
0.0447699
0.0508427
0.0617387
0.0700507
0.0794785
0.0932069
0.102483
0.119446
0.129541
0.149561
0.164234
0.187365
0.213056
0.233959
0.271966
0.307965
0.348648
0.396741
0.435999
0.474042
0.4997
0.510743
0.527108
0.528449
0.531576
0.53329
0.530484
0.531421
0.53066
0.524395
0.523027
0.517628
0.501556
0.493244
0.47056
0.447263
0.427349
0.380707
0.361042
0.328674
0.298535
0.27735
0.246943