/*--------------------------------*- C++ -*----------------------------------*\
| =========                 |                                                 |
| \\      /  F ield         | OpenFOAM: The Open Source CFD Toolbox           |
|  \\    /   O peration     | Version:  2.4.0                                 |
|   \\  /    A nd           | Web:      www.OpenFOAM.org                      |
|    \\/     M anipulation  |                                                 |
\*---------------------------------------------------------------------------*/
FoamFile
{
    version     2.0;
    format      ascii;
    class       surfaceScalarField;
    location    "0.51";
    object      phi_0;
}
// * * * * * * * * * * * * * * * * * * * * * * * * * * * * * * * * * * * * * //

dimensions      [0 3 -1 0 0 0 0];

internalField   nonuniform List<scalar> 
17320
(
1.76343e-05
7.36567e-06
1.16175e-05
6.01684e-06
8.68556e-06
2.93192e-06
7.35224e-06
1.33332e-06
6.7236e-06
6.28642e-07
6.33731e-06
3.86291e-07
6.07986e-06
2.57446e-07
5.87349e-06
2.06377e-07
5.70227e-06
1.71212e-07
5.58188e-06
1.20395e-07
5.49064e-06
9.12369e-08
5.37398e-06
1.16666e-07
5.30755e-06
6.64279e-08
5.23465e-06
7.29018e-08
5.1336e-06
1.01046e-07
5.04055e-06
9.30558e-08
4.95764e-06
8.29057e-08
4.87844e-06
7.92036e-08
4.61339e-06
2.6505e-07
-4.74391e-07
5.08778e-06
2.54531e-05
6.91255e-06
2.32503e-05
8.21962e-06
2.09898e-05
5.19247e-06
1.93172e-05
3.00587e-06
1.80788e-05
1.86707e-06
1.71065e-05
1.35866e-06
1.63706e-05
9.9328e-07
1.57743e-05
8.02675e-07
1.53018e-05
6.43706e-07
1.49404e-05
4.81804e-07
1.46398e-05
3.9181e-07
1.43584e-05
3.9814e-07
1.41568e-05
2.67993e-07
1.39433e-05
2.86421e-07
1.3728e-05
3.16369e-07
1.35231e-05
2.97877e-07
1.33237e-05
2.82324e-07
1.31003e-05
3.02621e-07
1.28916e-05
4.73747e-07
-3.42132e-07
1.27593e-05
2.66081e-05
5.30447e-06
2.71618e-05
7.66594e-06
2.67755e-05
5.57869e-06
2.62551e-05
3.52627e-06
2.56042e-05
2.51803e-06
2.48676e-05
2.09524e-06
2.41661e-05
1.69472e-06
2.35009e-05
1.46793e-06
2.29255e-05
1.21906e-06
2.24571e-05
9.50261e-07
2.20374e-05
8.11478e-07
2.16578e-05
7.77755e-07
2.13761e-05
5.49646e-07
2.10699e-05
5.92685e-07
2.07978e-05
5.88433e-07
2.05177e-05
5.77975e-07
2.02948e-05
5.05234e-07
1.99123e-05
6.85167e-07
1.97866e-05
5.99434e-07
2.36688e-07
1.92078e-05
2.63071e-05
3.99739e-06
2.75487e-05
6.4243e-06
2.80656e-05
5.0618e-06
2.84709e-05
3.12101e-06
2.86481e-05
2.34078e-06
2.86183e-05
2.12503e-06
2.84853e-05
1.82778e-06
2.82263e-05
1.72692e-06
2.79583e-05
1.48702e-06
2.77012e-05
1.20738e-06
2.74361e-05
1.07658e-06
2.71412e-05
1.07269e-06
2.69467e-05
7.44093e-07
2.66643e-05
8.7516e-07
2.64407e-05
8.11963e-07
2.61658e-05
8.52919e-07
2.60051e-05
6.65871e-07
2.55619e-05
1.12838e-06
2.52764e-05
8.84937e-07
1.23194e-06
2.42812e-05
2.6039e-05
2.95839e-06
2.72749e-05
5.18845e-06
2.80034e-05
4.33324e-06
2.85071e-05
2.61729e-06
2.89858e-05
1.86213e-06
2.93148e-05
1.79605e-06
2.95972e-05
1.54532e-06
2.97339e-05
1.59025e-06
2.98344e-05
1.38647e-06
2.99061e-05
1.13571e-06
2.99664e-05
1.01625e-06
2.99291e-05
1.10999e-06
2.99817e-05
6.91558e-07
2.99275e-05
9.29305e-07
2.98787e-05
8.60823e-07
2.98069e-05
9.24646e-07
2.97498e-05
7.23004e-07
2.96699e-05
1.20825e-06
2.96873e-05
8.6755e-07
8.42137e-07
3.00771e-05
2.57748e-05
2.18358e-06
2.6991e-05
3.97224e-06
2.78092e-05
3.51503e-06
2.8258e-05
2.1685e-06
2.8748e-05
1.37213e-06
2.9113e-05
1.43108e-06
2.94346e-05
1.2237e-06
2.97306e-05
1.29425e-06
2.99637e-05
1.15344e-06
3.01584e-05
9.41016e-07
3.04169e-05
7.57734e-07
3.0511e-05
1.01586e-06
3.07168e-05
4.85717e-07
3.08718e-05
7.744e-07
3.09699e-05
7.62714e-07
3.1108e-05
7.86475e-07
3.11967e-05
6.34374e-07
3.14586e-05
9.46291e-07
3.15908e-05
7.3536e-07
4.84567e-07
3.19484e-05
2.56476e-05
1.53594e-06
2.6838e-05
2.78183e-06
2.76267e-05
2.72642e-06
2.80524e-05
1.74272e-06
2.85066e-05
9.17921e-07
2.88275e-05
1.11022e-06
2.92052e-05
8.45957e-07
2.94843e-05
1.01519e-06
2.9754e-05
8.83767e-07
2.99836e-05
7.1135e-07
3.022e-05
5.21411e-07
3.0446e-05
7.89827e-07
3.05793e-05
3.52372e-07
3.08121e-05
5.41641e-07
3.10102e-05
5.64589e-07
3.11836e-05
6.131e-07
3.13511e-05
4.66879e-07
3.1676e-05
6.21424e-07
3.18865e-05
5.24833e-07
1.54929e-07
3.22161e-05
2.56086e-05
9.27375e-07
2.65313e-05
1.85914e-06
2.74267e-05
1.831e-06
2.79909e-05
1.17847e-06
2.83275e-05
5.81341e-07
2.86365e-05
8.01208e-07
2.89939e-05
4.88548e-07
2.93067e-05
7.02385e-07
2.95529e-05
6.37554e-07
2.99153e-05
3.48965e-07
3.00034e-05
4.33292e-07
3.02556e-05
5.37719e-07
3.04559e-05
1.52025e-07
3.05866e-05
4.10975e-07
3.08013e-05
3.49843e-07
3.10764e-05
3.37968e-07
3.12926e-05
2.50693e-07
3.14922e-05
4.21823e-07
3.16935e-05
3.23531e-07
-1.09946e-07
3.19584e-05
2.54174e-05
5.09994e-07
2.6437e-05
8.39568e-07
2.73595e-05
9.08475e-07
2.79397e-05
5.98208e-07
2.8235e-05
2.86124e-07
2.86442e-05
3.92004e-07
2.88706e-05
2.62101e-07
2.91462e-05
4.26811e-07
2.95416e-05
2.42161e-07
2.96847e-05
2.05804e-07
2.99236e-05
1.94396e-07
3.02117e-05
2.49632e-07
3.03152e-05
4.85845e-08
3.05137e-05
2.12449e-07
3.06603e-05
2.03241e-07
3.09461e-05
5.21845e-08
3.11449e-05
5.18447e-08
3.14129e-05
1.53843e-07
3.15216e-05
2.14867e-07
-2.70657e-07
3.16823e-05
2.54404e-05
6.95575e-08
2.64705e-05
-1.9051e-07
2.72754e-05
1.03608e-07
2.78992e-05
-2.55904e-08
2.81965e-05
-1.12402e-08
2.84972e-05
9.13386e-08
2.88095e-05
-5.01484e-08
2.91627e-05
7.36035e-08
2.9458e-05
-5.31338e-08
2.96972e-05
-3.34066e-08
2.98891e-05
2.50961e-09
3.01676e-05
-2.8955e-08
3.02244e-05
-8.16923e-09
3.04435e-05
-6.61672e-09
3.06849e-05
-3.81501e-08
3.08841e-05
-1.4702e-07
3.10768e-05
-1.4091e-07
3.13355e-05
-1.04806e-07
3.15841e-05
-3.38064e-08
-3.00464e-07
3.16139e-05
2.54562e-05
-3.86639e-07
2.64009e-05
-1.13519e-06
2.72494e-05
-7.44881e-07
2.78431e-05
-6.19308e-07
2.81955e-05
-3.63663e-07
2.85276e-05
-2.40763e-07
2.88051e-05
-3.27624e-07
2.91945e-05
-3.15827e-07
2.94268e-05
-2.85453e-07
2.97066e-05
-3.13191e-07
2.98964e-05
-1.87268e-07
3.00572e-05
-1.89806e-07
3.03237e-05
-2.74579e-07
3.04821e-05
-1.65025e-07
3.0634e-05
-1.90106e-07
3.0876e-05
-3.89039e-07
3.10385e-05
-3.03371e-07
3.13275e-05
-3.93817e-07
3.16602e-05
-3.66471e-07
-2.23604e-07
3.15833e-05
2.54441e-05
-8.30702e-07
2.64874e-05
-2.17852e-06
2.73315e-05
-1.58901e-06
2.79256e-05
-1.21335e-06
2.82696e-05
-7.0773e-07
2.85381e-05
-5.0923e-07
2.89136e-05
-7.03151e-07
2.92266e-05
-6.28842e-07
2.9459e-05
-5.17823e-07
2.97466e-05
-6.00749e-07
2.99213e-05
-3.61954e-07
3.01719e-05
-4.40476e-07
3.03008e-05
-4.03423e-07
3.05227e-05
-3.86959e-07
3.07308e-05
-3.98214e-07
3.09238e-05
-5.8198e-07
3.10841e-05
-4.63678e-07
3.13697e-05
-6.79444e-07
3.16569e-05
-6.53716e-07
-3.92299e-07
3.18256e-05
2.55879e-05
-1.4186e-06
2.65914e-05
-3.182e-06
2.7393e-05
-2.39066e-06
2.80317e-05
-1.852e-06
2.8316e-05
-9.92095e-07
2.86609e-05
-8.54066e-07
2.90159e-05
-1.05813e-06
2.9326e-05
-9.39033e-07
2.95704e-05
-7.62217e-07
2.98661e-05
-8.96435e-07
3.00362e-05
-5.31998e-07
3.02646e-05
-6.6895e-07
3.04265e-05
-5.65295e-07
3.06318e-05
-5.92192e-07
3.08202e-05
-5.86653e-07
3.1019e-05
-7.80749e-07
3.12081e-05
-6.52804e-07
3.14771e-05
-9.48461e-07
3.17508e-05
-9.27374e-07
-6.27834e-07
3.19863e-05
2.56919e-05
-2.11046e-06
2.67119e-05
-4.202e-06
2.75969e-05
-3.27573e-06
2.80654e-05
-2.3205e-06
2.84528e-05
-1.37943e-06
2.88651e-05
-1.26639e-06
2.92075e-05
-1.40055e-06
2.94711e-05
-1.20258e-06
2.97508e-05
-1.04195e-06
3.00261e-05
-1.17173e-06
3.0197e-05
-7.02953e-07
3.04173e-05
-8.8923e-07
3.05918e-05
-7.3978e-07
3.08141e-05
-8.14484e-07
3.09354e-05
-7.07937e-07
3.11527e-05
-9.98069e-07
3.13518e-05
-8.51852e-07
3.16259e-05
-1.22264e-06
3.18109e-05
-1.1123e-06
-9.50439e-07
3.21335e-05
2.58511e-05
-2.96158e-06
2.69349e-05
-5.28581e-06
2.78113e-05
-4.15215e-06
2.82416e-05
-2.7508e-06
2.8704e-05
-1.84176e-06
2.91105e-05
-1.67288e-06
2.9445e-05
-1.73504e-06
2.97128e-05
-1.47042e-06
2.99885e-05
-1.31765e-06
3.01828e-05
-1.36605e-06
3.03784e-05
-8.98567e-07
3.05463e-05
-1.05706e-06
3.07061e-05
-8.99592e-07
3.08396e-05
-9.48023e-07
3.09478e-05
-8.16156e-07
3.10814e-05
-1.13164e-06
3.11821e-05
-9.52533e-07
3.13596e-05
-1.40016e-06
3.149e-05
-1.24275e-06
-1.25963e-06
3.17992e-05
2.60388e-05
-4.00035e-06
2.7216e-05
-6.46301e-06
2.80497e-05
-4.98584e-06
2.84976e-05
-3.1987e-06
2.89711e-05
-2.31526e-06
2.93411e-05
-2.04294e-06
2.95785e-05
-1.97246e-06
2.97356e-05
-1.62748e-06
2.98654e-05
-1.44744e-06
2.98868e-05
-1.38742e-06
2.99625e-05
-9.7431e-07
2.99447e-05
-1.03929e-06
2.99481e-05
-9.02994e-07
2.98999e-05
-8.99757e-07
2.98566e-05
-7.72849e-07
2.97571e-05
-1.0322e-06
2.96693e-05
-8.64747e-07
2.95676e-05
-1.29842e-06
2.94728e-05
-1.148e-06
-1.37097e-06
2.95842e-05
2.63064e-05
-5.30674e-06
2.7531e-05
-7.68762e-06
2.80895e-05
-5.5443e-06
2.84404e-05
-3.54964e-06
2.8644e-05
-2.51881e-06
2.86395e-05
-2.03852e-06
2.84547e-05
-1.78757e-06
2.82426e-05
-1.41543e-06
2.79756e-05
-1.18047e-06
2.76639e-05
-1.07573e-06
2.74403e-05
-7.50629e-07
2.71468e-05
-7.45812e-07
2.68981e-05
-6.54298e-07
2.66356e-05
-6.37309e-07
2.64011e-05
-5.38302e-07
2.60996e-05
-7.3074e-07
2.58492e-05
-6.14301e-07
2.54942e-05
-9.43389e-07
2.52363e-05
-8.90126e-07
-1.23651e-06
2.51018e-05
2.66058e-05
-6.91258e-06
2.7152e-05
-8.23378e-06
2.67846e-05
-5.1769e-06
2.62416e-05
-3.00667e-06
2.56042e-05
-1.88136e-06
2.48836e-05
-1.31791e-06
2.41422e-05
-1.04624e-06
2.35116e-05
-7.8484e-07
2.29357e-05
-6.04561e-07
2.24215e-05
-5.61477e-07
2.20381e-05
-3.67218e-07
2.16552e-05
-3.62953e-07
2.13337e-05
-3.32803e-07
2.10265e-05
-3.30109e-07
2.07573e-05
-2.69136e-07
2.04272e-05
-4.00609e-07
2.01511e-05
-3.38141e-07
1.97207e-05
-5.13032e-07
1.93329e-05
-5.0234e-07
-4.12229e-07
1.85086e-05
2.54524e-05
-7.36497e-06
2.32416e-05
-6.02299e-06
2.09915e-05
-2.92682e-06
1.93148e-05
-1.32996e-06
1.80746e-05
-6.41142e-07
1.71204e-05
-3.6373e-07
1.63536e-05
-2.79464e-07
1.57754e-05
-2.06573e-07
1.53141e-05
-1.43287e-07
1.49119e-05
-1.59272e-07
1.46311e-05
-8.64583e-08
1.43597e-05
-9.15609e-08
1.41223e-05
-9.53334e-08
1.38914e-05
-9.92114e-08
1.36943e-05
-7.20447e-08
1.34291e-05
-1.35465e-07
1.31982e-05
-1.07167e-07
1.28567e-05
-1.7154e-07
1.25748e-05
-2.20451e-07
-4.35499e-08
1.22061e-05
1.7635e-05
1.1612e-05
8.68523e-06
7.35527e-06
6.71413e-06
6.3504e-06
6.07093e-06
5.86436e-06
5.72107e-06
5.5618e-06
5.47534e-06
5.38378e-06
5.28845e-06
5.18924e-06
5.11719e-06
4.98173e-06
4.87456e-06
4.70302e-06
4.48257e-06
4.43902e-06
5.55752e-06
-1.82545e-07
-2.87202e-07
5.98901e-06
-8.69899e-09
-4.22791e-07
6.34694e-06
2.19007e-09
-3.60116e-07
6.703e-06
-6.59461e-08
-2.90114e-07
7.04949e-06
-1.50517e-07
-1.95974e-07
7.32319e-06
-2.04261e-07
-6.94389e-08
7.50806e-06
-2.22695e-07
3.78283e-08
7.62699e-06
-2.17538e-07
9.86018e-08
7.70722e-06
-2.02977e-07
1.22755e-07
7.77293e-06
-1.94919e-07
1.29209e-07
7.83535e-06
-2.04219e-07
1.4179e-07
7.89556e-06
-1.96658e-07
1.36456e-07
7.96543e-06
-1.89283e-07
1.19412e-07
8.04161e-06
-1.59225e-07
8.30459e-08
8.13059e-06
-1.37466e-07
4.84834e-08
8.22078e-06
-9.94133e-08
9.22176e-09
8.31317e-06
-7.78915e-08
-1.45005e-08
8.3944e-06
-3.84205e-08
-4.28017e-08
8.47051e-06
-1.82709e-08
-5.78407e-08
8.56014e-06
2.94304e-08
-1.1906e-07
8.64132e-06
5.73818e-08
-1.38566e-07
8.72449e-06
9.67554e-08
-1.79922e-07
8.81592e-06
1.13392e-07
-2.04824e-07
8.9034e-06
1.52178e-07
-2.39664e-07
8.97763e-06
1.65481e-07
-2.3971e-07
9.05798e-06
1.83996e-07
-2.6434e-07
9.14556e-06
1.90461e-07
-2.78044e-07
9.24774e-06
2.11419e-07
-3.13595e-07
9.35883e-06
2.08176e-07
-3.19267e-07
9.49159e-06
2.18273e-07
-3.51033e-07
9.62544e-06
1.84941e-07
-3.18791e-07
9.7711e-06
1.62402e-07
-3.08064e-07
9.90618e-06
8.41979e-08
-2.19281e-07
1.00271e-05
2.37762e-08
-1.4471e-07
1.01309e-05
-9.2985e-08
-1.0844e-08
1.02056e-05
-1.71619e-07
9.69303e-08
1.02561e-05
-2.65545e-07
2.15102e-07
1.02911e-05
-3.25298e-07
2.90287e-07
1.03056e-05
-3.77675e-07
3.6311e-07
1.03315e-05
-3.74366e-07
3.48498e-07
1.03647e-05
-3.94879e-07
3.61653e-07
1.04092e-05
-3.23018e-07
2.78555e-07
1.04917e-05
-3.57995e-07
2.75515e-07
1.05765e-05
-2.84134e-07
1.99306e-07
1.06633e-05
-3.33264e-07
2.46455e-07
1.07577e-05
-3.54017e-07
2.59613e-07
1.08051e-05
-4.35316e-07
3.87944e-07
1.0849e-05
-5.2065e-07
4.76796e-07
1.0805e-05
-6.61185e-07
7.05181e-07
1.07687e-05
-7.84269e-07
8.20522e-07
1.06234e-05
-9.31379e-07
1.07665e-06
1.04866e-05
-1.07114e-06
1.20796e-06
1.02638e-05
-1.20133e-06
1.42418e-06
1.00129e-05
-1.31199e-06
1.56287e-06
9.6997e-06
-1.44501e-06
1.75819e-06
9.3063e-06
-1.51262e-06
1.90602e-06
8.79245e-06
-1.58123e-06
2.09508e-06
8.16037e-06
-1.54955e-06
2.18163e-06
7.32826e-06
-1.40287e-06
2.23498e-06
6.38983e-06
-1.02554e-06
1.96397e-06
5.51602e-06
-5.16357e-07
1.39017e-06
5.13663e-06
2.77323e-07
1.02065e-07
5.63274e-06
1.27815e-06
-1.77427e-06
7.10225e-06
2.50948e-06
-3.97899e-06
9.20435e-06
4.00824e-06
-6.11035e-06
1.1006e-05
5.21319e-06
-7.01479e-06
1.21667e-05
5.55258e-06
-6.71333e-06
1.31346e-05
5.548e-06
-6.51591e-06
1.40091e-05
5.62362e-06
-6.49807e-06
1.47139e-05
5.50821e-06
-6.21305e-06
1.53185e-05
5.20766e-06
-5.81223e-06
1.58685e-05
4.82257e-06
-5.37257e-06
1.65056e-05
4.21075e-06
-4.84785e-06
1.70546e-05
3.70717e-06
-4.25622e-06
1.75919e-05
2.90956e-06
-3.44681e-06
1.8169e-05
1.90927e-06
-2.48635e-06
1.84606e-05
1.03138e-06
-1.32304e-06
1.86849e-05
-2.78375e-07
5.40988e-08
1.87224e-05
-1.13648e-06
1.09898e-06
1.84466e-05
-1.8682e-06
2.14403e-06
1.82382e-05
-2.44129e-06
2.64967e-06
1.79028e-05
-2.63787e-06
2.9733e-06
1.75926e-05
-2.94011e-06
3.25032e-06
1.74851e-05
-3.07659e-06
3.18407e-06
1.73355e-05
-3.19304e-06
3.34264e-06
1.73477e-05
-3.44478e-06
3.43259e-06
1.75202e-05
-3.56764e-06
3.39513e-06
1.76765e-05
-3.78175e-06
3.62543e-06
1.80085e-05
-4.0525e-06
3.72055e-06
1.8355e-05
-4.12388e-06
3.77737e-06
1.87218e-05
-4.42681e-06
4.05996e-06
1.92411e-05
-4.49063e-06
3.97134e-06
1.96323e-05
-4.57831e-06
4.18709e-06
2.01559e-05
-4.70471e-06
4.18112e-06
2.06314e-05
-4.56836e-06
4.09291e-06
2.10564e-05
-4.65196e-06
4.22695e-06
2.15628e-05
-4.4489e-06
3.94253e-06
2.19636e-05
-4.36677e-06
3.96592e-06
2.23962e-05
-4.25868e-06
3.82607e-06
2.27997e-05
-3.94106e-06
3.53755e-06
2.31402e-05
-3.91567e-06
3.57522e-06
2.34905e-05
-3.56334e-06
3.21305e-06
2.38038e-05
-3.38325e-06
3.06988e-06
2.4079e-05
-3.1834e-06
2.90823e-06
2.43876e-05
-2.77301e-06
2.46438e-06
2.46276e-05
-2.66887e-06
2.42894e-06
2.49075e-05
-2.17902e-06
1.89911e-06
2.51936e-05
-1.98943e-06
1.70329e-06
2.54483e-05
-1.59522e-06
1.34054e-06
2.57864e-05
-1.25388e-06
9.15739e-07
2.60921e-05
-1.05074e-06
7.45125e-07
2.64464e-05
-5.85252e-07
2.30952e-07
2.68347e-05
-5.21071e-07
1.32687e-07
2.71851e-05
-1.39316e-07
-2.1107e-07
2.7611e-05
-3.60898e-08
-3.89773e-07
2.7951e-05
8.8502e-08
-4.28532e-07
2.83748e-05
2.56422e-07
-6.80205e-07
2.8727e-05
1.74151e-07
-5.26353e-07
2.9095e-05
2.62057e-07
-6.30044e-07
2.94358e-05
1.31232e-07
-4.72007e-07
2.97776e-05
-8.55871e-08
-2.56277e-07
3.00506e-05
-1.27211e-07
-1.4576e-07
3.03484e-05
-6.35543e-07
3.37769e-07
3.05619e-05
-7.73478e-07
5.59965e-07
3.07611e-05
-1.23346e-06
1.03428e-06
3.09409e-05
-1.73996e-06
1.56013e-06
3.10343e-05
-1.94835e-06
1.85497e-06
3.1158e-05
-2.71789e-06
2.59413e-06
3.11602e-05
-2.99935e-06
2.99719e-06
3.12388e-05
-3.43094e-06
3.35234e-06
3.11672e-05
-4.12152e-06
4.19308e-06
3.11424e-05
-4.26712e-06
4.29195e-06
3.1182e-05
-4.88772e-06
4.84811e-06
3.09694e-05
-5.26446e-06
5.47703e-06
3.10961e-05
-5.58203e-06
5.45535e-06
3.08939e-05
-6.02181e-06
6.22404e-06
3.07511e-05
-6.25326e-06
6.39608e-06
3.07285e-05
-6.68882e-06
6.71135e-06
3.04174e-05
-7.06211e-06
7.37322e-06
3.01733e-05
-7.16773e-06
7.41187e-06
3.00739e-05
-7.91815e-06
8.01756e-06
2.95816e-05
-7.92484e-06
8.41715e-06
2.92973e-05
-8.16006e-06
8.44431e-06
2.89145e-05
-8.80309e-06
9.18588e-06
2.82205e-05
-8.48169e-06
9.17571e-06
2.7693e-05
-8.96573e-06
9.49326e-06
2.70062e-05
-9.20009e-06
9.8868e-06
2.61154e-05
-9.12295e-06
1.00138e-05
2.54414e-05
-9.33349e-06
1.00075e-05
2.47239e-05
-9.22345e-06
9.94097e-06
2.39346e-05
-9.21966e-06
1.0009e-05
2.36064e-05
-8.86277e-06
9.19099e-06
2.29797e-05
-8.97824e-06
9.60496e-06
2.2531e-05
-8.26516e-06
8.71387e-06
2.24123e-05
-8.08495e-06
8.20357e-06
2.21539e-05
-8.58922e-06
8.84768e-06
2.1278e-05
-7.34198e-06
8.21788e-06
2.09342e-05
-6.71834e-06
7.06214e-06
2.08387e-05
-7.03155e-06
7.12703e-06
1.97864e-05
-6.48511e-06
7.53742e-06
1.86751e-05
-5.13858e-06
6.24988e-06
1.78337e-05
-4.36463e-06
5.20607e-06
1.72817e-05
-4.88493e-06
5.4369e-06
1.63577e-05
-5.30806e-06
6.23203e-06
1.43516e-05
-4.4179e-06
6.424e-06
1.21444e-05
-2.0625e-06
4.26975e-06
1.13768e-05
-2.4939e-06
3.26145e-06
1.2451e-05
-4.95966e-06
3.88544e-06
1.4397e-05
-8.57833e-06
6.63235e-06
1.63326e-05
-1.21443e-05
1.02087e-05
1.79908e-05
-1.50689e-05
1.34108e-05
1.91042e-05
-1.5535e-05
1.44216e-05
1.9766e-05
-1.45132e-05
1.38514e-05
2.03925e-05
-1.26113e-05
1.19848e-05
2.1057e-05
-1.05509e-05
9.88632e-06
2.13901e-05
-8.69828e-06
8.36524e-06
2.15461e-05
-6.53772e-06
6.38172e-06
2.16741e-05
-2.94047e-06
2.81245e-06
2.21972e-05
-2.25308e-07
-2.9785e-07
2.27209e-05
2.15953e-06
-2.68322e-06
2.34282e-05
4.82354e-06
-5.53083e-06
2.40586e-05
8.13074e-06
-8.76113e-06
2.42553e-05
1.26352e-05
-1.28319e-05
2.27891e-05
1.57597e-05
-1.42935e-05
2.0985e-05
1.54785e-05
-1.36744e-05
1.9966e-05
1.5194e-05
-1.4175e-05
1.99231e-05
1.54245e-05
-1.53816e-05
2.06873e-05
1.74435e-05
-1.82077e-05
2.08177e-05
2.06075e-05
-2.07379e-05
2.05611e-05
2.23136e-05
-2.20569e-05
2.01741e-05
2.32832e-05
-2.28962e-05
1.97204e-05
2.40533e-05
-2.35995e-05
1.91465e-05
2.49854e-05
-2.44115e-05
1.9175e-05
2.59242e-05
-2.59527e-05
1.92769e-05
2.79853e-05
-2.80872e-05
1.80978e-05
3.02868e-05
-2.91077e-05
1.5401e-05
3.12126e-05
-2.85158e-05
1.31548e-05
3.03891e-05
-2.81429e-05
1.35137e-05
3.23457e-05
-3.27046e-05
4.09347e-05
-4.15694e-05
1.41483e-05
1.28006e-05
-2.23845e-07
1.29532e-05
-1.61211e-07
1.31677e-05
-2.12391e-07
1.33917e-05
-2.8987e-07
1.35949e-05
-3.53775e-07
1.37523e-05
-3.61659e-07
1.38574e-05
-3.27757e-07
1.39232e-05
-2.83388e-07
1.39678e-05
-2.47568e-07
1.40043e-05
-2.31445e-07
1.40347e-05
-2.34522e-07
1.40668e-05
-2.28768e-07
1.41033e-05
-2.25847e-07
1.4148e-05
-2.03912e-07
1.41982e-05
-1.87648e-07
1.42503e-05
-1.51538e-07
1.43019e-05
-1.29503e-07
1.43501e-05
-8.65558e-08
1.43927e-05
-6.09249e-08
1.44402e-05
-1.8054e-08
1.44827e-05
1.49167e-08
1.45293e-05
5.01042e-08
1.4569e-05
7.37131e-08
1.46245e-05
9.6687e-08
1.46709e-05
1.19119e-07
1.47272e-05
1.27663e-07
1.47817e-05
1.35933e-07
1.48519e-05
1.41239e-07
1.49303e-05
1.2981e-07
1.50181e-05
1.30463e-07
1.51198e-05
8.31845e-08
1.52124e-05
6.98231e-08
1.53151e-05
-1.84896e-08
1.53994e-05
-6.05808e-08
1.54768e-05
-1.70318e-07
1.55313e-05
-2.26123e-07
1.5575e-05
-3.09301e-07
1.56027e-05
-3.52965e-07
1.56187e-05
-3.93674e-07
1.56411e-05
-3.96796e-07
1.5645e-05
-3.98766e-07
1.56933e-05
-3.71334e-07
1.56967e-05
-3.6138e-07
1.57535e-05
-3.40951e-07
1.57732e-05
-3.52936e-07
1.57895e-05
-3.70318e-07
1.57939e-05
-4.39692e-07
1.57697e-05
-4.96444e-07
1.5706e-05
-5.97472e-07
1.56226e-05
-7.00868e-07
1.54891e-05
-7.97891e-07
1.53278e-05
-9.09875e-07
1.51167e-05
-9.90206e-07
1.48756e-05
-1.0709e-06
1.45501e-05
-1.11954e-06
1.41757e-05
-1.13817e-06
1.36961e-05
-1.10162e-06
1.31332e-05
-9.86717e-07
1.24917e-05
-7.61344e-07
1.18589e-05
-3.92747e-07
1.11916e-05
1.5092e-07
1.06391e-05
8.29816e-07
1.03029e-05
1.61444e-06
1.0417e-05
2.39531e-06
1.12276e-05
3.1977e-06
1.24861e-05
3.95462e-06
1.37059e-05
4.33278e-06
1.47737e-05
4.48026e-06
1.58053e-05
4.59205e-06
1.67506e-05
4.56289e-06
1.76018e-05
4.35646e-06
1.82939e-05
4.13045e-06
1.89336e-05
3.571e-06
1.95741e-05
3.06673e-06
2.00483e-05
2.43537e-06
2.04128e-05
1.54476e-06
2.06963e-05
7.47797e-07
2.06141e-05
-1.96115e-07
2.04855e-05
-1.00786e-06
2.02351e-05
-1.61782e-06
1.99119e-05
-2.11808e-06
1.9819e-05
-2.54504e-06
1.97314e-05
-2.85248e-06
1.98233e-05
-3.16844e-06
2.01243e-05
-3.49411e-06
2.03899e-05
-3.71034e-06
2.0867e-05
-4.04476e-06
2.13756e-05
-4.29038e-06
2.18049e-05
-4.48172e-06
2.24558e-05
-4.77487e-06
2.29313e-05
-4.90223e-06
2.34611e-05
-5.02049e-06
2.40577e-05
-5.17488e-06
2.44581e-05
-5.10507e-06
2.49808e-05
-5.09113e-06
2.54305e-05
-5.10166e-06
2.57514e-05
-4.76976e-06
2.62503e-05
-4.86563e-06
2.65037e-05
-4.51211e-06
2.68753e-05
-4.31269e-06
2.72331e-05
-4.27345e-06
2.74038e-05
-3.734e-06
2.78145e-05
-3.79394e-06
2.7968e-05
-3.33693e-06
2.82616e-05
-3.06667e-06
2.85463e-05
-2.9535e-06
2.87136e-05
-2.34639e-06
2.90935e-05
-2.36934e-06
2.92921e-05
-1.79381e-06
2.96333e-05
-1.59503e-06
2.99605e-05
-1.37795e-06
3.02495e-05
-8.7423e-07
3.06537e-05
-9.25317e-07
3.09616e-05
-4.47217e-07
3.13345e-05
-4.08926e-07
3.17044e-05
-2.81465e-07
3.19986e-05
-3.77735e-08
3.23765e-05
-2.0376e-07
3.26464e-05
-7.77808e-09
3.29444e-05
-1.66764e-07
3.31867e-05
-3.27893e-07
3.34062e-05
-3.46758e-07
3.35669e-05
-7.96227e-07
3.37079e-05
-9.14493e-07
3.37872e-05
-1.31278e-06
3.37743e-05
-1.72704e-06
3.37997e-05
-1.97375e-06
3.36976e-05
-2.61574e-06
3.3559e-05
-2.86077e-06
3.34917e-05
-3.36362e-06
3.31747e-05
-3.80457e-06
3.29761e-05
-4.06853e-06
3.27424e-05
-4.65402e-06
3.23199e-05
-4.84193e-06
3.2164e-05
-5.42611e-06
3.174e-05
-5.59776e-06
3.13869e-05
-5.90021e-06
3.10836e-05
-6.38548e-06
3.04504e-05
-6.42898e-06
3.01862e-05
-6.90346e-06
2.96345e-05
-7.3665e-06
2.90725e-05
-7.36284e-06
2.87321e-05
-7.81961e-06
2.80188e-05
-8.08983e-06
2.73671e-05
-7.82995e-06
2.68553e-05
-8.45389e-06
2.60605e-05
-8.40534e-06
2.53685e-05
-8.43092e-06
2.4922e-05
-8.887e-06
2.43219e-05
-8.6234e-06
2.39997e-05
-8.89741e-06
2.38085e-05
-8.67159e-06
2.32474e-05
-8.41717e-06
2.32157e-05
-8.23347e-06
2.30876e-05
-7.9568e-06
2.24051e-05
-7.90678e-06
2.1758e-05
-6.69484e-06
2.14231e-05
-6.38345e-06
2.06892e-05
-6.29761e-06
1.94176e-05
-5.21352e-06
1.82963e-05
-4.01725e-06
1.73468e-05
-3.4152e-06
1.65447e-05
-4.08277e-06
1.499e-05
-3.75343e-06
1.24102e-05
-1.83811e-06
1.06529e-05
-3.0519e-07
1.0625e-05
-2.46596e-06
1.18933e-05
-6.22797e-06
1.36837e-05
-1.03687e-05
1.51795e-05
-1.36401e-05
1.63861e-05
-1.62756e-05
1.73182e-05
-1.64671e-05
1.79784e-05
-1.51734e-05
1.87284e-05
-1.33613e-05
1.9646e-05
-1.14684e-05
1.98712e-05
-8.92353e-06
1.9444e-05
-6.11052e-06
1.9624e-05
-3.12039e-06
2.01856e-05
-7.86976e-07
2.07962e-05
1.54896e-06
2.15702e-05
4.0495e-06
2.22185e-05
7.48252e-06
2.2872e-05
1.19817e-05
2.24708e-05
1.61608e-05
2.07085e-05
1.72408e-05
1.96067e-05
1.62958e-05
1.90853e-05
1.59459e-05
1.9742e-05
1.67868e-05
2.04284e-05
1.99212e-05
2.04728e-05
2.22692e-05
2.02168e-05
2.35392e-05
1.99231e-05
2.43469e-05
1.99019e-05
2.50067e-05
1.96992e-05
2.61269e-05
1.96524e-05
2.8032e-05
2.0243e-05
2.96962e-05
1.98062e-05
3.16494e-05
1.73065e-05
3.28887e-05
2.04612e-05
2.91911e-05
4.17059e-05
1.969e-05
1.92137e-05
-2.29759e-07
1.94184e-05
-3.65976e-07
1.96865e-05
-4.80474e-07
1.99168e-05
-5.20194e-07
2.00637e-05
-5.0062e-07
2.01427e-05
-4.40715e-07
2.0177e-05
-3.62032e-07
2.02018e-05
-3.08212e-07
2.02229e-05
-2.68647e-07
2.02353e-05
-2.4386e-07
2.0238e-05
-2.37189e-07
2.02384e-05
-2.29132e-07
2.02396e-05
-2.27097e-07
2.02502e-05
-2.1448e-07
2.02699e-05
-2.07359e-07
2.02959e-05
-1.77518e-07
2.03283e-05
-1.6191e-07
2.03623e-05
-1.20575e-07
2.0393e-05
-9.15765e-08
2.04228e-05
-4.78788e-08
2.0447e-05
-9.33074e-09
2.04721e-05
2.50177e-08
2.04889e-05
5.69326e-08
2.05099e-05
7.56911e-08
2.0532e-05
9.69757e-08
2.05626e-05
9.71297e-08
2.05944e-05
1.04137e-07
2.06351e-05
1.00536e-07
2.06861e-05
7.87322e-08
2.07434e-05
7.31722e-08
2.08113e-05
1.53137e-08
2.08768e-05
4.35193e-09
2.09462e-05
-8.78681e-08
2.10079e-05
-1.22337e-07
2.10495e-05
-2.11881e-07
2.10942e-05
-2.70801e-07
2.11011e-05
-3.16255e-07
2.11287e-05
-3.80586e-07
2.11191e-05
-3.84037e-07
2.1136e-05
-4.13705e-07
2.11273e-05
-3.90102e-07
2.11421e-05
-3.86058e-07
2.11462e-05
-3.65493e-07
2.11484e-05
-3.43156e-07
2.11592e-05
-3.63727e-07
2.11335e-05
-3.44619e-07
2.11133e-05
-4.19562e-07
2.10614e-05
-4.44532e-07
2.09794e-05
-5.15467e-07
2.08799e-05
-6.01336e-07
2.07295e-05
-6.47525e-07
2.05715e-05
-7.51854e-07
2.03429e-05
-7.61617e-07
2.01003e-05
-8.28326e-07
1.97802e-05
-7.99373e-07
1.94203e-05
-7.78277e-07
1.89897e-05
-6.71065e-07
1.84945e-05
-4.91495e-07
1.79737e-05
-2.4057e-07
1.73925e-05
1.88511e-07
1.68767e-05
6.6669e-07
1.64095e-05
1.29703e-06
1.60779e-05
1.946e-06
1.58811e-05
2.5921e-06
1.59019e-05
3.17692e-06
1.62225e-05
3.63408e-06
1.66657e-05
3.88951e-06
1.72096e-05
3.93635e-06
1.78868e-05
3.9149e-06
1.85472e-05
3.90247e-06
1.92564e-05
3.6473e-06
1.99565e-05
3.43033e-06
2.05311e-05
2.99642e-06
2.11025e-05
2.49526e-06
2.164e-05
1.89793e-06
2.19524e-05
1.23238e-06
2.22649e-05
4.35228e-07
2.23905e-05
-3.217e-07
2.23713e-05
-9.88689e-07
2.25127e-05
-1.75916e-06
2.25884e-05
-2.19381e-06
2.27679e-05
-2.72454e-06
2.31784e-05
-3.26303e-06
2.34869e-05
-3.47694e-06
2.40182e-05
-4.02537e-06
2.45757e-05
-4.26787e-06
2.50356e-05
-4.50463e-06
2.56731e-05
-4.92791e-06
2.61777e-05
-4.98626e-06
2.66391e-05
-5.23631e-06
2.72193e-05
-5.48236e-06
2.75462e-05
-5.34748e-06
2.80158e-05
-5.6444e-06
2.83741e-05
-5.46345e-06
2.8641e-05
-5.35802e-06
2.90309e-05
-5.4915e-06
2.92135e-05
-4.95241e-06
2.95213e-05
-5.17337e-06
2.97647e-05
-4.75551e-06
2.99399e-05
-4.48789e-06
3.02605e-05
-4.59412e-06
3.03655e-05
-3.839e-06
3.06608e-05
-4.08924e-06
3.08313e-05
-3.5074e-06
3.10305e-05
-3.26584e-06
3.13088e-05
-3.23189e-06
3.14691e-05
-2.50664e-06
3.17876e-05
-2.68785e-06
3.20222e-05
-2.02841e-06
3.23196e-05
-1.89244e-06
3.26477e-05
-1.70603e-06
3.2969e-05
-1.19551e-06
3.33141e-05
-1.27044e-06
3.36724e-05
-8.05492e-07
3.39979e-05
-7.34391e-07
3.43672e-05
-6.50813e-07
3.46479e-05
-3.1846e-07
3.49719e-05
-5.27729e-07
3.52117e-05
-2.47563e-07
3.54674e-05
-4.22501e-07
3.55922e-05
-4.52718e-07
3.57826e-05
-5.37141e-07
3.57788e-05
-7.92477e-07
3.58146e-05
-9.50201e-07
3.57962e-05
-1.29447e-06
3.55629e-05
-1.49371e-06
3.55247e-05
-1.93558e-06
3.51151e-05
-2.2061e-06
3.489e-05
-2.63564e-06
3.45585e-05
-3.03219e-06
3.40638e-05
-3.30986e-06
3.37162e-05
-3.72087e-06
3.31076e-05
-4.04549e-06
3.26445e-05
-4.37878e-06
3.20993e-05
-4.8809e-06
3.15723e-05
-5.07077e-06
3.11133e-05
-5.44126e-06
3.04978e-05
-5.76998e-06
2.98893e-05
-5.82042e-06
2.9498e-05
-6.51226e-06
2.87033e-05
-6.57171e-06
2.82791e-05
-6.9387e-06
2.77837e-05
-7.32421e-06
2.70153e-05
-7.32144e-06
2.66538e-05
-7.46846e-06
2.60932e-05
-7.8933e-06
2.55432e-05
-7.85534e-06
2.52259e-05
-8.11362e-06
2.49081e-05
-8.56918e-06
2.46262e-05
-8.34147e-06
2.44359e-05
-8.70709e-06
2.41658e-05
-8.40154e-06
2.3821e-05
-8.07231e-06
2.37899e-05
-8.20237e-06
2.32655e-05
-7.4324e-06
2.2485e-05
-7.12631e-06
2.1996e-05
-6.2058e-06
2.13896e-05
-5.7771e-06
2.04053e-05
-5.31333e-06
1.91349e-05
-3.94307e-06
1.78207e-05
-2.7031e-06
1.69246e-05
-2.51903e-06
1.57078e-05
-2.86598e-06
1.32304e-05
-1.27602e-06
1.06748e-05
7.17429e-07
9.48442e-06
8.85214e-07
9.73511e-06
-2.71665e-06
1.07329e-05
-7.22572e-06
1.21751e-05
-1.18109e-05
1.34829e-05
-1.4948e-05
1.44671e-05
-1.72598e-05
1.50618e-05
-1.70618e-05
1.58133e-05
-1.59249e-05
1.6939e-05
-1.4487e-05
1.80193e-05
-1.25488e-05
1.82604e-05
-9.16454e-06
1.7925e-05
-5.7752e-06
1.82755e-05
-3.47087e-06
1.85872e-05
-1.09864e-06
1.94283e-05
7.07812e-07
1.98241e-05
3.65372e-06
2.02803e-05
7.02633e-06
2.0873e-05
1.1389e-05
2.10794e-05
1.59545e-05
2.00856e-05
1.82346e-05
1.87175e-05
1.7664e-05
1.80885e-05
1.65749e-05
1.85054e-05
1.63699e-05
1.94291e-05
1.89974e-05
1.99218e-05
2.17765e-05
2.01796e-05
2.32814e-05
1.97622e-05
2.47643e-05
1.95221e-05
2.52468e-05
2.05209e-05
2.51281e-05
2.06608e-05
2.78921e-05
2.06883e-05
2.96687e-05
2.23813e-05
2.99565e-05
2.12189e-05
3.40511e-05
2.48955e-05
2.55144e-05
4.20129e-05
2.45885e-05
2.45178e-05
-4.66381e-07
2.49864e-05
-8.34547e-07
2.53915e-05
-8.85627e-07
2.55627e-05
-6.914e-07
2.56323e-05
-5.70184e-07
2.56382e-05
-4.46593e-07
2.56217e-05
-3.45567e-07
2.56039e-05
-2.90426e-07
2.55899e-05
-2.5467e-07
2.55802e-05
-2.3411e-07
2.55657e-05
-2.22725e-07
2.55513e-05
-2.14716e-07
2.5537e-05
-2.12735e-07
2.55265e-05
-2.04024e-07
2.55255e-05
-2.06357e-07
2.55271e-05
-1.79121e-07
2.55449e-05
-1.79712e-07
2.5562e-05
-1.3768e-07
2.55903e-05
-1.19876e-07
2.56146e-05
-7.22164e-08
2.5641e-05
-3.57402e-08
2.56634e-05
2.62474e-09
2.5677e-05
4.34093e-08
2.56924e-05
6.03053e-08
2.56942e-05
9.51273e-08
2.57151e-05
7.62611e-08
2.5719e-05
1.00172e-07
2.57506e-05
6.89844e-08
2.57703e-05
5.90305e-08
2.58078e-05
3.56822e-08
2.58525e-05
-2.93643e-08
2.58865e-05
-2.96852e-08
2.59415e-05
-1.42879e-07
2.59638e-05
-1.44659e-07
2.5999e-05
-2.4708e-07
2.60058e-05
-2.77542e-07
2.6007e-05
-3.17536e-07
2.60091e-05
-3.82628e-07
2.59875e-05
-3.62422e-07
2.59907e-05
-4.16952e-07
2.59691e-05
-3.68528e-07
2.59712e-05
-3.88124e-07
2.59637e-05
-3.57976e-07
2.59512e-05
-3.30703e-07
2.59432e-05
-3.55697e-07
2.59021e-05
-3.0355e-07
2.58732e-05
-3.90632e-07
2.57942e-05
-3.65558e-07
2.57131e-05
-4.34361e-07
2.56e-05
-4.88214e-07
2.54488e-05
-4.9636e-07
2.52952e-05
-5.98167e-07
2.50751e-05
-5.41603e-07
2.48434e-05
-5.96604e-07
2.4561e-05
-5.1697e-07
2.42244e-05
-4.41704e-07
2.38766e-05
-3.23262e-07
2.34616e-05
-7.64746e-08
2.30412e-05
1.79875e-07
2.26014e-05
6.28249e-07
2.22106e-05
1.05754e-06
2.18713e-05
1.63631e-06
2.16068e-05
2.21047e-06
2.14577e-05
2.7412e-06
2.13823e-05
3.25235e-06
2.14358e-05
3.58057e-06
2.15372e-05
3.78813e-06
2.16973e-05
3.77626e-06
2.19224e-05
3.68977e-06
2.22734e-05
3.55148e-06
2.26353e-05
3.28542e-06
2.30447e-05
3.02091e-06
2.35381e-05
2.50301e-06
2.3916e-05
2.11742e-06
2.44004e-05
1.41348e-06
2.48143e-05
8.1853e-07
2.50826e-05
1.66872e-07
2.54912e-05
-7.30247e-07
2.57309e-05
-1.22843e-06
2.60226e-05
-2.05088e-06
2.64663e-05
-2.63747e-06
2.67824e-05
-3.04064e-06
2.72744e-05
-3.75506e-06
2.77561e-05
-3.95865e-06
2.81798e-05
-4.44903e-06
2.87181e-05
-4.80616e-06
2.91491e-05
-4.93564e-06
2.95417e-05
-5.32051e-06
2.9984e-05
-5.42853e-06
3.02493e-05
-5.50166e-06
3.05667e-05
-5.79971e-06
3.08101e-05
-5.59094e-06
3.09636e-05
-5.79786e-06
3.11598e-05
-5.65967e-06
3.12696e-05
-5.46784e-06
3.1346e-05
-5.56792e-06
3.15061e-05
-5.11245e-06
3.15142e-05
-5.18146e-06
3.16776e-05
-4.91893e-06
3.17567e-05
-4.56697e-06
3.18581e-05
-4.69555e-06
3.20381e-05
-4.019e-06
3.21156e-05