/*--------------------------------*- C++ -*----------------------------------*\
| =========                 |                                                 |
| \\      /  F ield         | OpenFOAM: The Open Source CFD Toolbox           |
|  \\    /   O peration     | Version:  2.4.0                                 |
|   \\  /    A nd           | Web:      www.OpenFOAM.org                      |
|    \\/     M anipulation  |                                                 |
\*---------------------------------------------------------------------------*/
FoamFile
{
    version     2.0;
    format      ascii;
    class       volScalarField;
    location    "0.51";
    object      pMean;
}
// * * * * * * * * * * * * * * * * * * * * * * * * * * * * * * * * * * * * * //

dimensions      [0 2 -2 0 0 0 0];

internalField   nonuniform List<scalar> 
8800
(
92.688
80.2147
72.7231
69.1064
67.128
65.6359
64.3395
63.1315
62.0103
60.921
59.8757
58.8333
57.8285
56.8322
55.8839
54.9626
54.0936
53.2735
52.4819
51.6406
89.5862
79.8611
72.8913
69.2197
67.1872
65.661
64.3469
63.1318
62.0083
60.9185
59.8731
58.831
57.8262
56.8301
55.8822
54.9596
54.0956
53.2713
52.4868
51.6469
87.6268
79.9359
73.4904
69.593
67.3535
65.7392
64.3928
63.1638
62.0318
60.9353
59.883
58.8358
57.8274
56.828
55.8797
54.9514
54.0947
53.261
52.5514
51.705
86.0954
79.9954
74.0748
70.0139
67.5362
65.8253
64.4546
63.2192
62.0799
60.9734
59.9099
58.8533
57.8374
56.8316
55.8788
54.9433
54.0827
53.2486
52.6036
51.9282
84.8498
79.967
74.5496
70.4182
67.7043
65.8916
64.5026
63.2756
62.1353
61.0243
59.9453
58.8808
57.8502
56.8411
55.8747
54.9392
54.0566
53.2308
52.5307
52.2677
83.8682
79.8699
74.9156
70.7642
67.856
65.9357
64.5304
63.3204
62.1853
61.0736
59.9818
58.9088
57.8632
56.8492
55.87
54.9323
54.033
53.2167
52.5479
52.7211
83.1137
79.7564
75.1832
71.0444
67.9943
65.9643
64.5399
63.3531
62.2261
61.1149
60.014
58.9322
57.8751
56.8535
55.8664
54.9225
54.0213
53.2186
52.6385
53.037
82.5648
79.656
75.3662
71.256
68.1179
65.9832
64.5378
63.3748
62.257
61.1467
60.0392
58.9499
57.8838
56.8556
55.8638
54.9177
54.0206
53.237
52.7278
53.2619
82.209
79.5808
75.4808
71.3987
68.205
65.9947
64.5333
63.3871
62.2783
61.1688
60.057
58.9615
57.89
56.8573
55.8638
54.9183
54.0285
53.2612
52.8053
53.4236
82.0348
79.5398
75.5366
71.4707
68.2492
66.0003
64.5304
63.3926
62.2896
61.1806
60.0667
58.9677
57.8942
56.8601
55.8676
54.9244
54.0419
53.2868
52.8665
53.5338
82.0345
79.5401
75.5367
71.4708
68.2492
66.0005
64.5305
63.3929
62.29
61.1813
60.0677
58.9694
57.8967
56.8644
55.8744
54.9352
54.0584
53.3128
52.9079
53.5989
82.2084
79.5816
75.481
71.3991
68.2052
65.9951
64.5336
63.3878
62.2796
61.171
60.0602
58.9664
57.8977
56.8701
55.8845
54.9506
54.078
53.3383
52.9289
53.6198
82.5639
79.6573
75.3663
71.2565
68.1186
65.9838
64.5383
63.3759
62.2591
61.1503
60.0445
58.9579
57.8965
56.8765
55.8977
54.9708
54.1029
53.3649
52.9298
53.5864
83.1119
79.7585
75.1828
71.0451
67.9947
65.9656
64.54
63.3551
62.2289
61.12
60.0211
58.9437
57.8924
56.8828
55.9125
54.9962
54.1344
53.3984
52.916
53.4803
83.8663
79.8722
74.9153
70.7647
67.8565
65.937
64.5314
63.3227
62.1892
61.0797
59.9912
58.9231
57.8858
56.8857
55.9281
55.0233
54.1749
53.4415
52.9146
53.2924
84.8473
79.97
74.5497
70.4186
67.7045
65.8929
64.5042
63.2783
62.1401
61.0311
59.957
58.8979
57.8777
56.8847
55.9437
55.048
54.2226
53.4942
52.9439
53.0411
86.092
79.9988
74.0753
70.015
67.5361
65.827
64.4563
63.2228
62.0851
60.9815
59.923
58.8734
57.8692
56.8814
55.9571
55.0671
54.2692
53.5445
53.0026
52.776
87.6237
79.9387
73.4917
69.594
67.3536
65.7407
64.395
63.1674
62.0381
60.9436
59.8981
58.8568
57.8636
56.8804
55.9673
55.0816
54.3029
53.5832
53.0608
52.6359
89.5831
79.8633
72.8929
69.2208
67.1875
65.6626
64.3491
63.1358
62.0148
60.9272
59.8888
58.8529
57.864
56.8841
55.9742
55.0923
54.319
53.6057
53.0599
52.5577
92.6854
80.2166
72.7247
69.1075
67.1285
65.6373
64.3418
63.1355
62.0167
60.93
59.8914
58.8555
57.8667
56.8866
55.9774
55.096
54.3228
53.612
53.0624
52.6763
51.3825
51.0684
50.5161
49.9683
49.5186
49.1677
48.9035
48.7029
48.5405
48.4148
48.3166
48.2339
48.1573
48.0857
48.008
47.9205
47.8138
47.6787
47.5178
47.3329
47.1394
46.9636
46.8169
46.7049
46.6279
46.5835
46.5585
46.533
46.4868
46.4044
46.2865
46.1463
46.005
45.8858
45.797
45.7379
45.6985
45.6621
45.6218
45.5834
45.5563
45.5502
45.5816
45.6609
45.7911
45.9646
46.1701
46.3923
46.6149
46.8187
46.9851
47.1025
47.1665
47.1839
47.1647
47.1247
47.0829
47.0548
47.0426
47.0417
47.0403
47.0301
47.0028
46.9578
46.8947
46.8259
46.7644
46.7257
46.7122
46.7234
46.7566
46.8139
46.894
46.9991
47.1246
47.2677
47.4199
47.5744
47.7238
47.8634
47.9944
48.1196
48.2434
48.3684
48.4975
48.6312
48.7656
48.9028
49.036
49.1691
49.3034
49.4529
49.6207
49.8075
50.0129
50.2348
50.4706
50.7149
50.966
51.2202
51.4689
51.7109
51.9278
52.1109
52.2718
52.4163
52.5471
52.6671
52.7802
52.8831
52.9791
53.0651
53.1388
53.1978
53.2403
53.2753
53.3044
53.3334
53.3617
53.3856
53.4067
53.4212
53.429
53.4315
53.4297
53.4289
53.4341
53.4477
53.4803
53.5324
53.6075
53.7024
53.818
53.9525
54.1104
54.2862
54.481
54.6885
54.9003
55.1183
55.3336
55.5535
55.7739
56.0022
56.2367
56.4793
56.7354
57.0053
57.281
57.5672
57.8405
58.1025
58.3553
58.5874
58.7965
58.9844
59.165
59.3081
59.4429
59.5446
59.6366
59.6789
59.7142
59.7044
59.6777
59.6076
59.5267
59.4034
59.2906
59.1308
59.025
58.8778
58.8143
58.6996
58.7069
58.6425
58.7486
58.7458
58.9564
59.026
59.3006
59.4455
59.7368
59.9289
60.2189
60.4114
60.6863
60.8324
61.0571
61.1006
61.2095
61.0856
60.943
60.4425
59.7761
58.4727
56.5928
52.7516
48.0364
26.8538
51.2319
51.0164
50.6543
50.1712
49.7
49.3226
49.0538
48.8723
48.7435
48.6442
48.5608
48.4841
48.4095
48.3357
48.2569
48.1673
48.0606
47.9331
47.7856
47.6213
47.4494
47.2898
47.1542
47.0477
46.9706
46.9179
46.8797
46.8428
46.7936
46.7208
46.6213
46.5026
46.3793
46.2679
46.1777
46.11
46.0591
46.0176
45.9793
45.9451
45.9218
45.9192
45.9488
46.019
46.132
46.283
46.4627
46.6573
46.8511
47.0281
47.1736
47.2784
47.3381
47.3571
47.3429
47.308
47.2645
47.2252
47.1939
47.1703
47.1472
47.1183
47.0761
47.0191
46.9474
46.8711
46.798
46.7413
46.7058
46.6945
46.7063
46.7425
46.8039
46.8913
46.998
47.1208
47.2475
47.3738
47.4908
47.5977
47.6952
47.7889
47.8826
47.9802
48.0847
48.1943
48.3085
48.4264
48.5424
48.6589
48.7841
48.9281
49.0949
49.2818
49.4915
49.7214
49.9686
50.2265
50.4956
50.7698
51.0421
51.3072
51.5436
51.7452
51.9272
52.0936
52.2467
52.389
52.5226
52.6431
52.7555
52.8515
52.9313
52.9863
53.0219
53.0455
53.0631
53.0789
53.0931
53.1015
53.1069
53.1025
53.0926
53.0758
53.0582
53.0423
53.0343
53.0341
53.0538
53.0892
53.1488
53.2265
53.3285
53.4492
53.5986
53.7646
53.9575
54.1635
54.3796
54.5993
54.8242
55.0492
55.2822
55.5164
55.7636
56.0099
56.2806
56.556
56.8472
57.1385
57.4199
57.6876
57.9537
58.1815
58.4018
58.5903
58.7856
58.9219
59.0718
59.1718
59.2723
59.3156
59.3616
59.342
59.3221
59.2308
59.1524
59.0006
58.8862
58.6907
58.5803
58.3871
58.3137
58.1427
58.134
58.0064
58.0901
58.0324
58.2016
58.2396
58.4583
58.5723
58.8231
58.9645
59.2313
59.349
59.5992
59.6542
59.8306
59.7575
59.7549
59.4417
59.1074
58.2747
57.2646
55.1643
52.9479
46.5507
40.551
20.91
51.2516
51.1104
50.8914
50.4686
49.9485
49.4936
49.1795
48.9985
48.9016
48.8402
48.7844
48.7219
48.6514
48.5742
48.4905
48.3968
48.2905
48.1696
48.0341
47.8874
47.7368
47.5946
47.4712
47.3713
47.2954
47.2392
47.1953
47.1545
47.1069
47.044
46.9627
46.8654
46.7619
46.6631
46.5774
46.507
46.4503
46.4047
46.3679
46.3398
46.3236
46.3266
46.3559
46.419
46.5167
46.6463
46.7986
46.9632
47.1259
47.2741
47.3956
47.483
47.5324
47.5463
47.5304
47.4935
47.4447
47.3937
47.3452
47.3005
47.2562
47.2083
47.1518
47.085
47.0082
46.9279
46.8511
46.7855
46.7364
46.7089
46.7055
46.7265
46.7738
46.846
46.9381
47.0418
47.1457
47.2453
47.3312
47.4068
47.4728
47.5367
47.6013
47.6722
47.7507
47.8354
47.927
48.0219
48.1149
48.2092
48.3182
48.4498
48.6079
48.7914
49.0038
49.2431
49.5029
49.7771
50.0666
50.3614
50.6584
50.9476
51.2086
51.4356
51.6489
51.8448
52.027
52.1959
52.3555
52.5001
52.6335
52.7439
52.8288
52.8785
52.9062
52.9189
52.927
52.9298
52.9306
52.9243
52.9153
52.892
52.8657
52.8309
52.8031
52.7748
52.7571
52.7451
52.7544
52.774
52.8231
52.8857
52.9805
53.0934
53.2412
53.4021
53.5959
53.7974
54.0159
54.2348
54.4663
54.699
54.9454
55.1914
55.4498
55.7077
55.9935
56.2821
56.5864
56.8757
57.1597
57.431
57.702
57.9284
58.1599
58.3528
58.5472
58.6845
58.8432
58.95
59.051
59.1036
59.1539
59.1236
59.1044
58.9897
58.9119
58.7329
58.6189
58.3984
58.2861
58.0473
57.9701
57.7394
57.7232
57.5386
57.5867
57.4895
57.5975
57.5911
57.7578
57.8051
58.0272
58.091
58.3266
58.3572
58.5575
58.5134
58.6109
58.4164
58.3011
57.7509
57.2856
55.916
54.9574
51.569
49.5356
41.6331
34.4499
21.0087
51.4502
51.2874
50.9972
50.4964
49.9393
49.4895
49.2091
49.0808
49.0448
49.0397
49.0268
48.9903
48.93
48.8514
48.7601
48.659
48.5495
48.4321
48.3072
48.1768
48.0456
47.9213
47.8118
47.7211
47.6494
47.5938
47.549
47.5082
47.4643
47.4113
47.3457
47.2681
47.1831
47.0975
47.0182
46.9488
46.8913
46.8451
46.8108
46.7884
46.7796
46.7875
46.8167
46.8707
46.9507
47.0541
47.1747
47.3036
47.4301
47.5444
47.6375
47.7037
47.7394
47.7453
47.7251
47.6847
47.6311
47.5712
47.51
47.4496
47.3894
47.3269
47.2597
47.1866
47.1079
47.028
46.9515
46.8835
46.8283
46.7915
46.7778
46.7881
46.8248
46.8844
46.962
47.0458
47.1276
47.2008
47.2591
47.3061
47.3441
47.3796
47.4146
47.4575
47.5069
47.5636
47.6266
47.6886
47.7486
47.8133
47.9008
48.0176
48.1669
48.3474
48.5661
48.8139
49.0899
49.3809
49.6954
50.0126
50.3379
50.6514
50.9423
51.1957
51.4433
51.6703
51.8862
52.0848
52.2757
52.4457
52.6017
52.7221
52.8077
52.85
52.872
52.875
52.8783
52.871
52.8657
52.8472
52.8259
52.7832
52.7447
52.6939
52.6611
52.6228
52.5988
52.577
52.5804
52.5903
52.6358
52.6922
52.7853
52.8967
53.0468
53.209
53.4058
53.604
53.8249
54.0422
54.2813
54.518
54.7794
55.0365
55.3104
55.5832
55.8908
56.1874
56.5061
56.7836
57.0798
57.342
57.6194
57.8387
58.0859
58.2766
58.4698
58.6092
58.7789
58.8761
58.9864
59.0266
59.0904
59.0299
59.0272
58.8736
58.8223
58.6033
58.5077
58.2452
58.1483
57.8614
57.7858
57.5131
57.4659
57.2548
57.2405
57.1142
57.1587
57.0923
57.2073
57.1884
57.3505
57.3474
57.5114
57.4544
57.5933
57.3971
57.5103
57.0261
57.0487
55.9434
55.7697
53.4529
52.7343
48.356
45.7616
38.406
30.5146
21.5974
52.9001
52.4505
51.2527
50.2333
49.5483
49.1873
49.0677
49.0879
49.1633
49.2374
49.279
49.2769
49.2333
49.158
49.062
48.9544
48.8408
48.7246
48.6075
48.4912
48.3783
48.273
48.1796
48.1009
48.0368
47.9856
47.9431
47.9046
47.8651
47.8204
47.7671
47.705
47.6359
47.5643
47.495
47.4321
47.3779
47.3339
47.3014
47.2812
47.274
47.2808
47.3032
47.3426
47.3997
47.4721
47.5562
47.6461
47.735
47.8156
47.881
47.9261
47.9476
47.9451
47.9203
47.8773
47.8212
47.7573
47.6896
47.6203
47.55
47.478
47.4039
47.3273
47.2491
47.1717
47.0984
47.0338
46.9803
46.9429
46.9264
46.9336
46.9642
47.0139
47.0747
47.1377
47.1961
47.244
47.2786
47.3013
47.314
47.3211
47.3264
47.3371
47.3526
47.3731
47.3982
47.42
47.4408
47.4724
47.5356
47.6353
47.7784
47.96
48.1894
48.4499
48.7433
49.0582
49.398
49.7418
50.0979
50.4375
50.7599
51.0427
51.3264
51.5851
51.8341
52.0636
52.2813
52.4718
52.6406
52.7611
52.8435
52.8778
52.8964
52.8969
52.9008
52.8906
52.8839
52.8559
52.8279
52.7754
52.7346
52.6789
52.6448
52.6006
52.5757
52.5487
52.5518
52.557
52.6037
52.6575
52.7538
52.8644
53.0209
53.184
53.3903
53.5852
53.8155
54.0272
54.2778
54.5103
54.7916
55.0525
55.3529
55.6368
55.9755
56.27
56.6072
56.8661
57.1843
57.4225
57.717
57.9195
58.1853
58.3545
58.5651
58.6899
58.88
58.9474
59.0827
59.0877
59.1729
59.07
59.0922
58.8983
58.8812
58.6197
58.5499
58.2465
58.1602
57.8413
57.7574
57.467
57.3888
57.1383
57.0931
56.8933
56.9064
56.7554
56.8369
56.7177
56.8568
56.7015
56.8903
56.587
56.8286
56.2506
56.5742
55.5665
55.8158
54.1462
53.9591
51.246
49.9539
45.7929
42.1876
36.4746
28.8705
22.3625
53.9036
53.3293
51.579
50.1457
49.267
48.909
48.9048
49.0668
49.2647
49.4304
49.536
49.5752
49.5544
49.4874
49.3902
49.2768
49.1576
49.0396
48.9266
48.8204
48.7224
48.634
48.5568
48.4916
48.4376
48.3931
48.355
48.32
48.2845
48.2457
48.2015
48.1509
48.0949
48.036
47.9775
47.9223
47.8729
47.8314
47.7991
47.7774
47.7663
47.7662
47.7767
47.7984
47.8311
47.8736
47.9236
47.9775
48.0309
48.0791
48.1173
48.1411
48.1476
48.1357
48.1063
48.0619
48.0056
47.9411
47.8707
47.7967
47.7208
47.6445
47.568
47.4922
47.4178
47.3464
47.2807
47.2238
47.1784
47.1474
47.1372
47.1496
47.1798
47.2214
47.2666
47.3099
47.3464
47.3717
47.3849
47.3861
47.3738
47.3529
47.3258
47.2989
47.2748
47.2554
47.2408
47.2232
47.2052
47.199
47.2385
47.3235
47.4604
47.647
47.8906
48.1685
48.4792
48.82
49.1854
49.558
49.9428
50.3147
50.6685
50.9847
51.3014
51.5875
51.8671
52.1215
52.3589
52.5605
52.7336
52.8483
52.9238
52.9485
52.9672
52.9687
52.977
52.9668
52.9615
52.9325
52.91
52.8652
52.8368
52.7876
52.7602
52.7141
52.6927
52.6639
52.6732
52.6772
52.7283
52.7777
52.8805
52.9904
53.1571
53.3233
53.5419
53.7368
53.9784
54.1873
54.4456
54.6789
54.9808
55.241
55.5751
55.8707
56.2424
56.5369
56.8853
57.1312
57.4571
57.6706
57.9785
58.1519
58.4412
58.5739
58.8114
58.9049
59.1229
59.1428
59.3256
59.2728
59.394
59.2336
59.2946
59.0541
59.0806
58.7555
58.7299
58.3785
58.3281
57.9625
57.9063
57.5508
57.5152
57.1496
57.1346
56.807
56.8393
56.5434
56.6465
56.35
56.521
56.1517
56.3718
55.8418
56.0776
55.2998
55.5026
54.3686
54.2605
52.6074
51.7853
49.314
47.3722
43.8975
39.9456
35.7254
29.1178
23.6682
54.532
53.9613
51.9588
50.2623
49.204
48.7742
48.8037
49.0555
49.3527
49.6037
49.7756
49.8619
49.8696
49.8146
49.7176
49.598
49.4718
49.3495
49.2372
49.1374
49.0505
48.9763
48.914
48.8625
48.8201
48.7845
48.7532
48.7237
48.6933
48.6598
48.6218
48.5788
48.5315
48.4814
48.4308
48.3821
48.3374
48.2981
48.2654
48.2401
48.2225
48.2125
48.2096
48.2136
48.224
48.2401
48.2607
48.284
48.3072
48.3266
48.3396
48.3427
48.3342
48.313
48.2792
48.2339
48.1787
48.1155
48.0463
47.9727
47.8974
47.8218
47.7471
47.675
47.6062
47.5422
47.4849
47.4375
47.4041
47.3876
47.3909
47.4131
47.449
47.486
47.5195
47.5454
47.5643
47.5736
47.5695
47.5494
47.5133
47.4648
47.4048
47.3377
47.2738
47.2168
47.1657
47.1089
47.0526
47.0093
47.0224
47.0954
47.2327
47.4306
47.6911
47.9877
48.3204
48.6867
49.075
49.4786
49.8913
50.2932
50.6764
51.0299
51.3673
51.6731
51.975
52.2455
52.4949
52.7007
52.8756
52.9866
53.0549
53.0712
53.0882
53.0863
53.0988
53.0949
53.0946
53.0798
53.0747
53.0542
53.0492
53.018
53.0043
52.9636
52.9476
52.9245
52.9413
52.9501
53.0059
53.056
53.1625
53.2766
53.4496
53.6252
53.8561
54.0617
54.3131
54.5286
54.7932
55.0381
55.3529
55.6237
55.9829
56.3012
56.6971
56.9953
57.3411
57.5788
57.8992
58.1029
58.4028
58.5424
58.8369
58.9399
59.1766
59.2565
59.4855
59.4683
59.6913
59.5968
59.723
59.5321
59.5989
59.3521
59.3844
59.0459
59.0184
58.6717
58.6232
58.247
58.1905
57.8001
57.7539
57.3348
57.2693
56.8895
56.845
56.4769
56.4752
56.0992
56.133
55.704
55.724
55.1737
55.1512
54.4265
54.2696
53.2781
52.7903
51.2287
50.1562
47.822
45.775
43.0059
39.2637
35.9736
30.4911
25.5575
54.9143
54.3863
52.3022
50.4689
49.2913
48.7717
48.7799
49.0718
49.4363
49.7553
49.9846
50.1156
50.1527
50.1124
50.0185
49.8959
49.7647
49.639
49.5267
49.4313
49.353
49.2904
49.2411
49.2026
49.172
49.1464
49.1233
49.1003
49.0755
49.0472
49.0145
48.9774
48.9364
48.8927
48.8479
48.8037
48.7618
48.723
48.6881
48.6577
48.6321
48.6113
48.5949
48.5826
48.5739
48.5685
48.5654
48.5637
48.5616
48.5571
48.5487
48.5348
48.514
48.4855
48.4488
48.4043
48.3522
48.2937
48.2296
48.1615
48.0906
48.0184
47.9472
47.8795
47.8167
47.7616
47.7162
47.6829
47.6649
47.6658
47.684
47.7182
47.7595
47.7953
47.8203
47.835
47.841
47.8402
47.8252
47.7881
47.73
47.6533
47.5586
47.4515
47.3505
47.2552
47.1734
47.0817
46.9911
46.9187
46.9105
46.9765
47.1193
47.3329
47.6063
47.9196
48.2725
48.6596
49.0741
49.507
49.9525
50.3895
50.7987
51.1787
51.5258
51.8509
52.1628
52.437
52.6862
52.8878
53.0605
53.174
53.239
53.2501
53.2603
53.2604
53.2783
53.2878
53.3047
53.3163
53.3397
53.3547
53.3791
53.376
53.3797
53.3536
53.3483
53.3405
53.3673
53.3855
53.448
53.4994
53.6079
53.7321
53.9161
54.1009
54.3448
54.5636
54.8286
55.0581
55.3293
55.5882
55.9133
56.1978
56.5833
56.9198
57.3383
57.6314
57.9789
58.1945
58.5107
58.716
59.0036
59.119
59.399
59.4648
59.6913
59.7476
59.9883
59.942
60.1712
60.0648
60.1781
59.9907
60.0508
59.8199
59.8252
59.5078
59.4595
59.135
59.052
58.6821
58.5986
58.2116
58.1278
57.6873
57.5482
57.1411
56.9855
56.5728
56.4203
56.0063
55.8499
55.386
55.2023
54.6305
54.3989
53.7185
53.3755
52.4775
51.8729
50.3377
49.2568
47.1224
45.1089
42.9121
39.5281
36.6873
32.1493
27.6089
55.1542
54.6664
52.5737
50.6794
49.4344
48.8484
48.8237
49.1285
49.5345
49.9024
50.1759
50.3434
50.4072
50.3822
50.294
50.1713
50.038
49.911
49.7996
49.708
49.6364
49.5828
49.5439
49.5162
49.496
49.4799
49.465
49.4489
49.4297
49.4065
49.3786
49.3463
49.31
49.2709
49.23
49.1886
49.1473
49.1071
49.0686
49.0323
48.9983
48.9669
48.9378
48.9111
48.8863
48.8628
48.8402
48.8179
48.7954
48.7722
48.7477
48.7212
48.6919
48.6593
48.6225
48.5812
48.5348
48.4832
48.4266
48.366
48.3028
48.2381
48.1744
48.1148
48.0627
48.0209
47.9917
47.976
47.9754
47.9927
48.026
48.0702
48.114
48.1484
48.1675
48.1734
48.1729
48.1667
48.1432
48.0942
48.0208
47.9207
47.7944
47.6487
47.506
47.3731
47.2598
47.134
47.0261
46.9334
46.9179
46.9854
47.142
47.3682
47.651
47.969
48.3379
48.744
49.1882
49.6485
50.1289
50.6061
51.0462
51.4437
51.8006
52.1381
52.4474
52.7134
52.9479
53.1383
53.3102
53.4207
53.4891
53.5033
53.5137
53.5197
53.5514
53.578
53.6194
53.6596
53.7211
53.7775
53.8384
53.8726
53.8977
53.8924
53.909
53.9175
53.9572
53.9848
54.0564
54.111
54.2294
54.3671
54.56
54.7536
55.017
55.2374
55.5255
55.7645
56.0521
56.3336
56.6654
56.9645
57.3676
57.7205
58.1553
58.4291
58.7989
58.9828
59.2954
59.4936
59.764
59.8568
60.1359
60.1401
60.3863
60.3878
60.6602
60.5645
60.7997
60.6432
60.7713
60.5654
60.652
60.4445
60.417
60.0892
60.0455
59.7399
59.6264
59.2721
59.1389
58.7802
58.6459
58.2001
57.9934
57.5766
57.3188
56.8935
56.6042
56.1802
55.8612
55.382
55.0362
54.511
54.1343
53.5817
53.1377
52.3544
51.68
50.1275
49.0066
47.0887
45.061
43.2562
40.302
37.6276
33.7605
29.6167
55.3058
54.846
52.7683
50.8589
49.5893
48.975
48.9339
49.2452
49.6748
50.071
50.3705
50.5595
50.6395
50.6242
50.5405
50.4192
50.2869
50.1617
50.0536
49.9668
49.9016
49.8558
49.8259
49.8074
49.7962
49.7883
49.7807
49.771
49.7574
49.739
49.7154
49.6871
49.6544
49.6183
49.5795
49.5389
49.4971
49.4545
49.4118
49.3693
49.3273
49.286
49.2455
49.2058
49.1668
49.1284
49.0909
49.0537
49.0168
48.9805
48.9446
48.9095
48.8756
48.8421
48.8085
48.7734
48.7352
48.6925
48.6451
48.5947
48.5417
48.4875
48.4348
48.3881
48.3505
48.3248
48.3146
48.3191
48.3379
48.3742
48.4231
48.4734
48.5161
48.548
48.5647
48.564
48.5568
48.5471
48.5212
48.4684
48.385
48.2644
48.1126
47.9366
47.7573
47.5823
47.4375
47.2814
47.1643
47.0609
47.0508
47.1227
47.3025
47.5413
47.8341
48.1535
48.5405
48.9633
49.4282
49.9094
50.4283
50.9453
51.4202
51.8323
52.1944
52.5281
52.8236
53.0716
53.289
53.4684
53.641
53.7532
53.8296
53.8514
53.8704
53.8898
53.9359
53.9877
54.0586
54.1342
54.2389
54.3401
54.4478
54.5233
54.5768
54.6017
54.6427
54.6618
54.7149
54.7505
54.8301
54.8858
55.019
55.1614
55.3693
55.5668
55.8539
56.0729
56.4014
56.6483
56.9653
57.2593
57.6196
57.927
58.3549
58.7041
59.1662
59.3965
59.7867
59.9248
60.2513
60.422
60.7087
60.7462
61.0363
60.95
61.2556
61.1782
61.5102
61.3064
61.6122
61.3466
61.5648
61.2741
61.421
61.196
61.1905
60.8052
60.8184
60.468
60.3842
60.0391
59.9102
59.5341
59.3766
58.9046
58.6977
58.2462
57.9562
57.5043
57.1596
56.7026
56.2957
55.801
55.364
54.8876
54.4438
53.9695
53.4896
52.715
51.9065
50.3465
49.0731
47.3961
45.4361
43.8344
41.2327
38.6243
35.2089
31.4679
55.3932
54.9479
52.8896
50.9973
49.741
49.1365
49.1035
49.423
49.8611
50.2647
50.5699
50.7634
50.8467
50.8342
50.7538
50.637
50.5105
50.3923
50.2917
50.2126
50.1554
50.1177
50.0959
50.0852
50.0813
50.0799
50.0779
50.0731
50.0638
50.0493
50.0294
50.0042
49.9742
49.94
49.9023
49.8615
49.8183
49.7729
49.7259
49.6776
49.6284
49.5786
49.5284
49.4782
49.4283
49.3788
49.3299
49.2818
49.2355
49.1914
49.1496
49.1105
49.0745
49.0419
49.0125
48.9851
48.9568
48.9258
48.8917
48.8554
48.8165
48.777
48.7412
48.7124
48.6912
48.6826
48.6932
48.7198
48.758
48.8098
48.8687
48.9212
48.9622
48.9918
49.0045
49.0012
48.9931
48.9826
48.9583
48.9084
48.8221
48.6889
48.5172
48.3127
48.1041
47.893
47.7208
47.5428
47.4239
47.3167
47.331
47.4077
47.6156
47.8647
48.1707
48.4875
48.8987
49.334
49.8189
50.3119
50.8709
51.4192
51.9237
52.3405
52.6988
53.0108
53.2855
53.5113
53.7191
53.8962
54.0705
54.183
54.2771
54.3077
54.3507
54.3805
54.4578
54.5266
54.6398
54.7528
54.9122
55.0566
55.2189
55.3315
55.4357
55.4869
55.563
55.5892
55.6544
55.682
55.774
55.82
55.9685
56.0995
56.3281
56.5248
56.8395
57.06
57.4343
57.69
58.0591
58.3652
58.7698
59.0599
59.5389
59.836
60.3535
60.501
60.9517
60.9937
61.3818
61.4822
61.8271
61.7544
62.0932
61.9228
62.3153
62.1358
62.5337
62.1809
62.5675
62.1896
62.5331
62.1702
62.4037
62.0968
62.1692
61.6922
61.8087
61.4068
61.4062
60.9466
60.8859
60.5091
60.3624
59.8296
59.681
59.1899
58.9125
58.433
58.0779
57.5755
57.1318
56.6409
56.1552
55.7068
55.2212
54.757
54.1942
53.3019
52.2833
50.7746
49.3673
47.8965
46.1468
44.5545
42.1625
39.6151
36.5202
33.1461
55.4178
54.9743
52.9391
51.0936
49.8874
49.3313
49.3331
49.6657
50.0986
50.4891
50.7802
50.9616
51.036
51.0199
50.9418
50.8324
50.7162
50.6093
50.5201
50.4516
50.4037
50.3742
50.3592
50.3544
50.3552
50.3578
50.3594
50.3579
50.3517
50.3403
50.3232
50.3005
50.2726
50.2397
50.2023
50.1609
50.116
50.0682
50.0179
49.9656
49.9111
49.8547
49.7971
49.7388
49.6804
49.6228
49.5665
49.5126
49.4621
49.4149
49.3708
49.331
49.2964
49.2676
49.2434
49.2234
49.2057
49.189
49.1716
49.1527
49.1317
49.1115
49.0974
49.0903
49.0903
49.1028
49.1352
49.1812
49.2328
49.2922
49.3551
49.4082
49.4458
49.4663
49.4683
49.4612
49.4554
49.452
49.4385
49.3999
49.3194
49.1875
49.0069
48.7837
48.5489
48.3089
48.1117
47.9233
47.8079
47.716
47.768
47.8498
48.0861
48.3363
48.653
48.9567
49.3937
49.8358
50.3416
50.84
51.4427
52.0128
52.5499
52.9654
53.3148
53.5798
53.8411
54.0362
54.2488
54.4227
54.6041
54.7172
54.8356
54.8742
54.9584
54.9987
55.1227
55.206
55.3808
55.5241
55.748
55.931
56.1614
56.3062
56.4631
56.541
56.6587
56.6912
56.7727
56.7957
56.8873
56.9251
57.0865
57.2074
57.4499
57.6581
57.9787
58.2303
58.6387
58.9072
59.3269
59.6395
60.0852
60.3715
60.8724
61.1065
61.6411
61.731
62.1752
62.1737
62.6656
62.6191
63.0272
62.8031
63.2
62.9806
63.4505
63.2263
63.6288
63.2104
63.6775
63.2342
63.631
63.2449
63.4984
63.1632
63.2418
62.7538
62.9073
62.5424
62.5692
62.1123
62.0845
61.6567
61.5446
60.9877
60.897
60.3704
60.1223
59.6251
59.2516
58.7237
58.2515
57.7731
57.2342
56.7772
56.2219
55.7072
54.9839
53.9616
52.7482
51.3168
49.9395
48.5322
46.9889
45.3187
43.0476
40.587
37.7384
34.6688
55.3591
54.9089
52.9186
51.1597
50.0441
49.5759
49.6337
49.9759
50.3858
50.7411
50.9979
51.15
51.2034
51.1783
51.1026
51.0037
50.9022
50.8111
50.7368
50.6815
50.6445
50.6235
50.6148
50.6144
50.6183
50.6233
50.627
50.6275
50.6235
50.6142
50.5992
50.5784
50.5519
50.5199
50.4829
50.4415
50.3961
50.3473
50.2951
50.2398
50.1813
50.1201
50.0571
49.9936
49.9306
49.8694
49.8112
49.7567
49.7056
49.6582
49.6158
49.5786
49.5482
49.5258
49.5104
49.5004
49.4943
49.4916
49.4921
49.4941
49.4944
49.495
49.5033
49.5193
49.5434
49.5814
49.6359
49.6974
49.7606
49.8265
49.8894
49.9359
49.9627
49.9693
49.9605
49.9508
49.9469
49.9491
49.9495
49.9268
49.8606
49.7405
49.5644
49.3341
49.0817
48.8307
48.6206
48.4324
48.318
48.2548
48.3413
48.4421
48.6995
48.9402
49.2517
49.551
50.021
50.4601
50.9798
51.4837
52.1378
52.7221
53.2997
53.7078
54.049
54.2661
54.5093
54.6725
54.9004
55.065
55.2648
55.3785
55.5217
55.5749
55.7048
55.7599
55.9352
56.0458
56.2908
56.4675
56.7641
56.9793
57.273
57.4431
57.6616
57.7594
57.9235
57.9629
58.0677
58.0738
58.1674
58.192
58.3629
58.4853
58.7534
58.9781
59.3113
59.6043
60.0109
60.3111
60.7536
61.0671
61.5239
61.8092
62.3021
62.5035
62.9734
63.0787
63.4781
63.4404
63.9547
63.8422
64.2063
63.975
64.4166
64.1674
64.6187
64.445
64.7329
64.3287
64.8132
64.4205
64.8409
64.4986
64.7053
64.4228
64.4336
63.9637
64.1273
63.7398
63.8053
63.3079
63.3213
62.98
62.906
62.3609
62.2577
61.721
61.4729
60.9589
60.559
60.0163
59.5193
59.0529
58.449
57.9582
57.2756
56.6941
55.7043
54.6163
53.3339
52.0106
50.7681
49.3294
47.8817
46.1082
43.9151
41.5408
38.8959
36.0663
55.1625
54.7097
52.8309
51.2322
50.2603
49.911
50.0231
50.3538
50.7148
51.0113
51.2142
51.322
51.347
51.3115
51.2407
51.1562
51.0736
51.0019
50.9453
50.9048
50.8792
50.866
50.862
50.8641
50.869
50.8745
50.8785
50.8794
50.8759
50.8672
50.8529
50.8328
50.8067
50.7752
50.7392
50.6989
50.6545
50.6063
50.5547
50.4989
50.439
50.3756
50.3094
50.2434
50.181
50.1225
50.0666
50.0134
49.9643
49.9205
49.882
49.8498
49.8266
49.813
49.8078
49.8105
49.8211
49.8396
49.8628
49.8839
49.9035
49.9274
49.9597
49.9991
50.0493
50.1116
50.1837
50.2572
50.329
50.3995
50.461
50.5021
50.5181
50.5074
50.4824
50.4653
50.4626
50.4742
50.4895
50.4866
50.444
50.347
50.1852
49.9637
49.7076
49.4614
49.2423
49.0671
48.9632
48.9425
49.0421
49.1522
49.4113
49.6431
49.9467
50.2874
50.7966
51.244
51.7733
52.3012
52.9831
53.5645
54.1641
54.5674
54.9064
55.0872
55.3125
55.4519
55.6916
55.8483
56.0623
56.1735
56.338
56.4139
56.5813
56.6709
56.8988
57.0498
57.3572
57.5792
57.9385
58.1927
58.5414
58.7466
59.0199
59.141
59.3415
59.394
59.5108
59.5079
59.5928
59.6121
59.7894
59.9186
60.2173
60.469
60.8258
61.1541
61.5371
61.8588
62.2744
62.608
63.034
63.3468
63.7385
63.9315
64.3601
64.4731
64.8124
64.865
65.2601
65.1393
65.3516
65.2793
65.6301
65.4973
65.7907
65.7662
65.8237
65.5596
66.0017
65.6211
66.1265
65.8569
65.9862
65.7784
65.7187
65.3154
65.3742
65.048
64.9841
64.4729
64.6465
64.3974
64.2892
63.805
63.6797
63.0912
62.8566
62.3062
61.8861
61.3577
60.8219
60.3631
59.6262
59.1276
58.2656
57.6341
56.3878
55.3688
53.9977
52.8706
51.7252
50.2274
48.7756
46.906
44.7535
42.4637
39.9792
37.3246
54.715
54.2906
52.6795
51.3597
50.5991
50.373
50.5071
50.7872
51.0665
51.2802
51.4128
51.4691
51.4654
51.4225
51.36
51.2928
51.2308
51.1791
51.1399
51.1127
51.0962
51.0882
51.0863
51.0883
51.0922
51.0963
51.0989
51.0988
51.0948
51.0859
51.0715
51.0515
51.026
50.9956
50.9609
50.9226
50.8806
50.8352
50.7862
50.7323
50.6734
50.6117
50.5487
50.4858
50.4256
50.3716
50.3242
50.2802
50.238
50.1984
50.1646
50.1408
50.1293
50.128
50.1355
50.1544
50.1842
50.2231
50.2695
50.3178
50.3649
50.4119
50.4651
50.5268
50.5983
50.6768
50.7607
50.844
50.9234
50.9965
51.0546
51.0873
51.0903
51.0638
51.0219
50.992
50.9887
51.0102
51.0427
51.064
51.0528
50.9899
50.8554
50.6557
50.4178
50.1971
49.9797
49.8361
49.7431
49.753
49.8519
49.9845
50.2328
50.4498
50.7551
51.1714
51.7061
52.1691
52.6991
53.2824
53.9575
54.5369
55.1266
55.5309
55.8638
56.0482
56.2337
56.3666
56.5989
56.7599
56.974
57.0934
57.2632
57.3739
57.5605
57.7147
57.9704
58.2004
58.5388
58.8383
59.2248
59.5412
59.9214
60.176
60.4822
60.6443
60.8594
60.9299
61.0626
61.0541
61.1494
61.1884
61.3577
61.5255
61.8268
62.1028
62.4672
62.8043
63.1585
63.4978
63.8554
64.184
64.5811
64.9185
65.1974
65.3916
65.7572
65.8692
66.2037
66.3317
66.4928
66.5237
66.5723
66.6645
66.8545
66.8803
66.9986
67.0356
66.9238
66.8589
67.1318
67.0802
67.4268
67.15
67.3493
67.1462
66.9651
66.6883
66.6328
66.3824
66.2009
65.8263
65.9328
65.7882
65.562
65.1983
65.0315
64.4681
64.2038
63.6341
63.1999
62.6853
62.0934
61.5882
60.7482
60.2582
59.1783
58.55
57.0133
56.1763
54.8371
53.9139
52.7598
51.2072
49.6892
47.7366
45.6102
43.4003
41.0303
38.5076
53.9808
53.6511
52.511
51.5921
51.0816
50.9484
51.0479
51.2276
51.3941
51.5105
51.5706
51.5813
51.5567
51.5121
51.4602
51.4101
51.3665
51.3315
51.3055
51.2874
51.276
51.2698
51.2676
51.2681
51.2698
51.2718
51.2727
51.2716
51.267
51.2578
51.2431
51.2228
51.1978
51.1684
51.1353
51.1
51.0636
51.0243
50.98
50.9307
50.8773
50.8202
50.7628
50.7088
50.6583
50.6128
50.5748
50.5439
50.5163
50.4883
50.4645
50.4547
50.4613
50.4793
50.5059
50.5436
50.5939
50.6549
50.7206
50.7854
50.8527
50.9252
51.0028
51.0863
51.1744
51.2637
51.3527
51.439
51.521
51.5943
51.6473
51.6722
51.6646
51.6264
51.5729
51.5334
51.5302
51.5594
51.6031
51.6411
51.6548
51.6262
51.5304
51.3683
51.1651
50.9863
50.7801
50.6947
50.6253
50.6629
50.7529
50.9266
51.1456
51.3817
51.7107
52.1695
52.6834
53.1829
53.7359
54.3764
55.0143
55.6017
56.1531
56.5706
56.8795
57.0852
57.2261
57.3802
57.5663
57.7498
57.9341
58.0957
58.2568
58.4314
58.6236
58.8617
59.1236
59.4444
59.7875
60.1717
60.5501
60.9473
61.3138
61.6296
61.9281
62.1569
62.3573
62.4962
62.6042
62.6574
62.7352
62.8446
62.9868
63.2173
63.4761
63.8027
64.1264
64.4792
64.7938
65.1454
65.4292
65.7693
66.077
66.4014
66.6046
66.8831
67.0835
67.2902
67.5094
67.6735
67.6844
67.8531
67.8149
68.0019
68.0537
68.1481
68.1306
68.2404
67.9746
68.2971
68.2919
68.6092
68.6115
68.5116
68.6114
68.4227
68.1863
68.0087
67.8637
67.6808
67.3312
67.2539
67.1783
67.0098
66.7931
66.5096
66.2267
65.7863
65.4352
64.8979
64.4435
63.9455
63.2749
62.7276
61.8071
61.2302
59.9802
59.354
57.7287
57.1898
55.8042
55.0107
53.7237
52.1915
50.591
48.5938
46.4966
44.3596
42.0738
39.6511
53.1701
52.9926
52.4273
51.9448
51.6547
51.5434
51.5462
51.5951
51.6446
51.6736
51.6759
51.6551
51.6192
51.577
51.5353
51.4983
51.4675
51.4431
51.4245
51.4106
51.4009
51.3944
51.3908
51.3893
51.3892
51.3895
51.3889
51.3864
51.3809
51.3713
51.3561
51.3354
51.3108
51.2844
51.2563
51.2248
51.1919
51.1589
51.1236
51.0822
51.0357
50.9895
50.9452
50.9019
50.8629
50.8347
50.8164
50.8033
50.7925
50.7833
50.7824
50.7959
50.8229
50.8604
50.9091
50.9694
51.0394
51.1169
51.2004
51.2858
51.3689
51.4512
51.5378
51.6302
51.7245
51.8167
51.9063
51.9921
52.0715
52.137
52.1809
52.2023
52.1985
52.1665
52.1154
52.0748
52.0693
52.097
52.1462
52.1955
52.2273
52.2255
52.1646
52.0459
51.8937
51.7873
51.6291
51.6006
51.5492
51.6295
51.729
51.9559
52.1398
52.4236