/*--------------------------------*- C++ -*----------------------------------*\
| =========                 |                                                 |
| \\      /  F ield         | OpenFOAM: The Open Source CFD Toolbox           |
|  \\    /   O peration     | Version:  2.4.0                                 |
|   \\  /    A nd           | Web:      www.OpenFOAM.org                      |
|    \\/     M anipulation  |                                                 |
\*---------------------------------------------------------------------------*/
FoamFile
{
    version     2.0;
    format      ascii;
    class       volVectorField;
    location    "0.51";
    object      UMean;
}
// * * * * * * * * * * * * * * * * * * * * * * * * * * * * * * * * * * * * * //

dimensions      [0 1 -1 0 0 0 0];

internalField   nonuniform List<vector> 
8800
(
(8.09353 0.386492 0)
(5.4692 0.242086 0)
(3.94057 0.0432387 0)
(3.18975 -0.0151308 0)
(2.83696 -0.0181106 0)
(2.63626 -0.0109197 0)
(2.52567 -0.00565127 0)
(2.4229 -0.0022002 0)
(2.36621 -0.00155493 0)
(2.29677 -0.000431339 0)
(2.26829 -0.000790327 0)
(2.21607 0.000141807 0)
(2.19887 -0.000286875 0)
(2.15228 0.00073508 0)
(2.13437 0.0001551 0)
(2.08986 0.00142532 0)
(2.06351 0.000274618 0)
(2.0179 0.00150158 0)
(2.00109 0.00423008 0)
(1.82739 -0.044798 0)
(10.0772 0.83464 0)
(9.65989 0.862883 0)
(8.88456 0.503562 0)
(8.10135 0.259739 0)
(7.51826 0.136506 0)
(7.03633 0.0809956 0)
(6.73457 0.0526756 0)
(6.43858 0.0397529 0)
(6.27675 0.028488 0)
(6.07282 0.0238929 0)
(5.98978 0.0173247 0)
(5.83597 0.0176345 0)
(5.79121 0.0135236 0)
(5.6627 0.0167652 0)
(5.62621 0.0136999 0)
(5.51288 0.0178161 0)
(5.46379 0.018625 0)
(5.35704 0.0140598 0)
(5.30331 0.031793 0)
(5.16069 -0.0381106 0)
(10.0566 0.629092 0)
(10.654 0.858068 0)
(10.8673 0.596696 0)
(10.6908 0.370107 0)
(10.4606 0.252454 0)
(10.0911 0.193929 0)
(9.85027 0.149997 0)
(9.50877 0.120622 0)
(9.34061 0.090852 0)
(9.05876 0.074905 0)
(8.9652 0.0556418 0)
(8.7346 0.0517567 0)
(8.69021 0.0395899 0)
(8.49106 0.0432079 0)
(8.46749 0.0349439 0)
(8.28532 0.0420286 0)
(8.25994 0.0400396 0)
(8.0803 0.0435601 0)
(8.04018 0.0513752 0)
(7.86188 -0.0212397 0)
(9.99769 0.455729 0)
(10.5634 0.701308 0)
(11.1639 0.54163 0)
(11.3673 0.349162 0)
(11.5487 0.258032 0)
(11.4492 0.224792 0)
(11.4835 0.195901 0)
(11.29 0.173737 0)
(11.2926 0.142743 0)
(11.0721 0.124425 0)
(11.082 0.0995826 0)
(10.8596 0.092489 0)
(10.8848 0.0748566 0)
(10.6643 0.0773229 0)
(10.6991 0.0637049 0)
(10.4781 0.0740569 0)
(10.5119 0.0626161 0)
(10.2828 0.0848668 0)
(10.2892 0.0649567 0)
(10.0476 0.0909731 0)
(10.0413 0.345449 0)
(10.3988 0.564302 0)
(11.0422 0.457442 0)
(11.2966 0.291893 0)
(11.6474 0.205423 0)
(11.6596 0.190669 0)
(11.8692 0.173883 0)
(11.8028 0.168597 0)
(11.9698 0.140121 0)
(11.8702 0.133095 0)
(12.0168 0.104463 0)
(11.8968 0.107951 0)
(12.0275 0.0827008 0)
(11.8914 0.098139 0)
(12.0048 0.0726257 0)
(11.8555 0.10009 0)
(11.9465 0.0706594 0)
(11.7842 0.116274 0)
(11.8313 0.0723069 0)
(11.6237 0.132398 0)
(10.0501 0.25188 0)
(10.3182 0.452505 0)
(10.8923 0.37463 0)
(11.1755 0.245545 0)
(11.5199 0.159164 0)
(11.5959 0.14935 0)
(11.7923 0.139236 0)
(11.8079 0.140926 0)
(11.9686 0.116441 0)
(11.9756 0.11304 0)
(12.1201 0.0884257 0)
(12.1232 0.091773 0)
(12.2509 0.0729223 0)
(12.2493 0.084399 0)
(12.3571 0.0699312 0)
(12.3503 0.0869376 0)
(12.4338 0.0759913 0)
(12.4194 0.0965835 0)
(12.46 0.0799508 0)
(12.3713 0.0568224 0)
(10.0098 0.173888 0)
(10.2977 0.351923 0)
(10.751 0.287087 0)
(11.1056 0.204125 0)
(11.3866 0.116715 0)
(11.5436 0.114216 0)
(11.6705 0.103128 0)
(11.7548 0.114206 0)
(11.85 0.0871437 0)
(11.9286 0.0918109 0)
(12.016 0.064379 0)
(12.0927 0.0739706 0)
(12.1716 0.0519633 0)
(12.244 0.0681768 0)
(12.3129 0.0509489 0)
(12.3796 0.0707994 0)
(12.4369 0.0563424 0)
(12.4929 0.0747721 0)
(12.5187 0.0496183 0)
(12.4794 0.0161878 0)
(10 0.114578 0)
(10.2609 0.249064 0)
(10.6741 0.204572 0)
(11.0297 0.151051 0)
(11.3142 0.0823625 0)
(11.4801 0.0776802 0)
(11.6092 0.0734218 0)
(11.6872 0.0813663 0)
(11.7855 0.0636015 0)
(11.8568 0.0644781 0)
(11.9523 0.0467362 0)
(12.0194 0.0505363 0)
(12.1109 0.0378269 0)
(12.1706 0.0459232 0)
(12.2558 0.0372782 0)
(12.307 0.0468808 0)
(12.3843 0.03907 0)
(12.4204 0.0440185 0)
(12.4664 0.024921 0)
(12.3953 -0.0113588 0)
(9.99039 0.0640452 0)
(10.2432 0.14868 0)
(10.6186 0.122148 0)
(10.9874 0.0925264 0)
(11.2593 0.0482271 0)
(11.4485 0.0465713 0)
(11.5617 0.0430634 0)
(11.6541 0.049917 0)
(11.7348 0.0380407 0)
(11.8216 0.0392847 0)
(11.9007 0.0272867 0)
(11.9849 0.0303104 0)
(12.0588 0.021637 0)
(12.1367 0.0270521 0)
(12.2029 0.0203584 0)
(12.2728 0.0256734 0)
(12.3292 0.0180782 0)
(12.3838 0.0180761 0)
(12.4039 0.000832634 0)
(12.3467 -0.0289192 0)
(9.99319 0.0208315 0)
(10.2278 0.0490716 0)
(10.5982 0.0410657 0)
(10.9598 0.0306191 0)
(11.239 0.0162568 0)
(11.4265 0.0150688 0)
(11.5451 0.0144946 0)
(11.632 0.016288 0)
(11.7162 0.012835 0)
(11.7986 0.0125002 0)
(11.8817 0.00885473 0)
(11.9619 0.00890991 0)
(12.0401 0.0063729 0)
(12.1137 0.00659563 0)
(12.1842 0.00400646 0)
(12.249 0.00282867 0)
(12.3094 -0.00185313 0)
(12.3578 -0.00780042 0)
(12.3798 -0.0200455 0)
(12.3132 -0.0434119 0)
(9.99296 -0.0222262 0)
(10.2276 -0.0474357 0)
(10.5982 -0.0425303 0)
(10.9595 -0.0292851 0)
(11.2393 -0.0177367 0)
(11.4261 -0.0138406 0)
(11.5454 -0.0161539 0)
(11.6315 -0.0152048 0)
(11.7165 -0.014806 0)
(11.7978 -0.0119702 0)
(11.8823 -0.0117036 0)
(11.9607 -0.00984367 0)
(12.0408 -0.0114181 0)
(12.1123 -0.0110895 0)
(12.1843 -0.0149339 0)
(12.2471 -0.0169681 0)
(12.3088 -0.024084 0)
(12.3546 -0.0296967 0)
(12.3773 -0.0424598 0)
(12.3066 -0.0524652 0)
(9.99141 -0.0652169 0)
(10.242 -0.147357 0)
(10.6197 -0.123383 0)
(10.986 -0.091397 0)
(11.2607 -0.0494986 0)
(11.4469 -0.0456804 0)
(11.563 -0.0444776 0)
(11.6528 -0.0491883 0)
(11.7357 -0.0396987 0)
(11.8203 -0.039233 0)
(11.9014 -0.029813 0)
(11.9832 -0.0317716 0)
(12.0593 -0.0263633 0)
(12.1343 -0.0319119 0)
(12.2025 -0.0308227 0)
(12.2687 -0.0400668 0)
(12.3265 -0.043246 0)
(12.3761 -0.0557847 0)
(12.3953 -0.06208 0)
(12.3297 -0.0657483 0)
(9.99636 -0.115724 0)
(10.2651 -0.247656 0)
(10.6695 -0.205774 0)
(11.0343 -0.149753 0)
(11.3092 -0.0835529 0)
(11.4849 -0.0764637 0)
(11.6041 -0.0750098 0)
(11.6921 -0.0800702 0)
(11.7801 -0.0655673 0)
(11.8616 -0.0638902 0)
(11.9464 -0.0495751 0)
(12.0242 -0.0514137 0)
(12.104 -0.0429131 0)
(12.1748 -0.0501338 0)
(12.2469 -0.0480373 0)
(12.3088 -0.0599048 0)
(12.371 -0.0642295 0)
(12.4165 -0.0795645 0)
(12.4429 -0.0861735 0)
(12.3762 -0.0787115 0)
(10.0152 -0.175418 0)
(10.2922 -0.350164 0)
(10.7553 -0.288819 0)
(11.1013 -0.202422 0)
(11.3904 -0.118453 0)
(11.5395 -0.112441 0)
(11.6742 -0.10518 0)
(11.7507 -0.112559 0)
(11.8534 -0.0897451 0)
(11.9244 -0.0907437 0)
(12.0191 -0.0679181 0)
(12.0878 -0.0742446 0)
(12.1741 -0.0578952 0)
(12.2376 -0.0716827 0)
(12.3131 -0.0624105 0)
(12.3693 -0.0825948 0)
(12.4314 -0.0812591 0)
(12.4727 -0.107156 0)
(12.4983 -0.109066 0)
(12.4351 -0.105303 0)
(10.0533 -0.252227 0)
(10.3149 -0.452047 0)
(10.8945 -0.374986 0)
(11.1733 -0.245593 0)
(11.5214 -0.159283 0)
(11.5943 -0.149514 0)
(11.7934 -0.139271 0)
(11.8066 -0.141757 0)
(11.969 -0.116544 0)
(11.9745 -0.114878 0)
(12.1195 -0.0887389 0)
(12.1216 -0.095565 0)
(12.2489 -0.0747897 0)
(12.2455 -0.0920614 0)
(12.3512 -0.0761065 0)
(12.3404 -0.103111 0)
(12.4183 -0.0934192 0)
(12.3933 -0.132202 0)
(12.419 -0.125446 0)
(12.3035 -0.142155 0)
(10.0497 -0.347077 0)
(10.3905 -0.562264 0)
(11.0489 -0.459252 0)
(11.2897 -0.290258 0)
(11.6532 -0.207394 0)
(11.6535 -0.188823 0)
(11.874 -0.176118 0)
(11.7973 -0.166795 0)
(11.9733 -0.143019 0)
(11.8651 -0.131529 0)
(12.0181 -0.108293 0)
(11.8916 -0.107251 0)
(12.0248 -0.0890002 0)
(11.8842 -0.0998088 0)
(11.9934 -0.0843221 0)
(11.8408 -0.107521 0)
(11.9152 -0.0953177 0)
(11.7478 -0.137006 0)
(11.7549 -0.125867 0)
(11.5224 -0.163189 0)
(10.0036 -0.456152 0)
(10.5558 -0.700629 0)
(11.1709 -0.542223 0)
(11.3585 -0.34867 0)
(11.557 -0.258852 0)
(11.439 -0.224156 0)
(11.4933 -0.196891 0)
(11.2775 -0.173191 0)
(11.3039 -0.144081 0)
(11.0563 -0.124387 0)
(11.0944 -0.101271 0)
(10.8389 -0.0938486 0)
(10.8959 -0.0775849 0)
(10.6353 -0.0822503 0)
(10.7027 -0.0687864 0)
(10.4329 -0.0868784 0)
(10.4926 -0.0740761 0)
(10.2043 -0.115223 0)
(10.211 -0.0973664 0)
(9.87331 -0.159282 0)
(10.0576 -0.629593 0)
(10.6514 -0.857583 0)
(10.87 -0.597056 0)
(10.6865 -0.36973 0)
(10.4652 -0.253023 0)
(10.0846 -0.193447 0)
(9.85701 -0.150786 0)
(9.49855 -0.120052 0)
(9.35051 -0.0920728 0)
(9.04233 -0.0745095 0)
(8.97893 -0.0574168 0)
(8.70869 -0.0519834 0)
(8.70682 -0.0425492 0)
(8.44949 -0.0454794 0)
(8.48212 -0.0399816 0)
(8.21612 -0.0500693 0)
(8.25703 -0.048339 0)
(7.96035 -0.0698606 0)
(7.96384 -0.0721998 0)
(7.61276 -0.0904024 0)
(10.0773 -0.834747 0)
(9.65879 -0.862725 0)
(8.88538 -0.503613 0)
(8.09958 -0.259642 0)
(7.52031 -0.136717 0)
(7.03296 -0.080909 0)
(6.73781 -0.0529123 0)
(6.43258 -0.0396697 0)
(6.28197 -0.028899 0)
(6.06183 -0.0239569 0)
(5.99762 -0.0179724 0)
(5.81634 -0.0181103 0)
(5.80154 -0.0147392 0)
(5.62744 -0.018375 0)
(5.63548 -0.0160007 0)
(5.44807 -0.0229203 0)
(5.45881 -0.022285 0)
(5.23482 -0.0329853 0)
(5.22565 -0.0393744 0)
(4.92133 -0.0224504 0)
(8.09334 -0.386539 0)
(5.46886 -0.242043 0)
(3.94068 -0.0432482 0)
(3.18953 0.0151269 0)
(2.83733 0.018059 0)
(2.63518 0.0109552 0)
(2.52642 0.00562227 0)
(2.4208 0.00219436 0)
(2.36728 0.00154573 0)
(2.29278 0.000358211 0)
(2.26931 0.000778872 0)
(2.20836 -0.000295594 0)
(2.19923 0.000246509 0)
(2.13679 -0.00114907 0)
(2.13087 -0.000326555 0)
(2.05829 -0.00237528 0)
(2.04606 -0.00121271 0)
(1.95346 -0.00395302 0)
(1.91599 -0.00478213 0)
(1.75671 0.0119306 0)
(2.2214 -0.0871695 0)
(2.36874 0.0080045 0)
(2.62363 0.0116268 0)
(2.84728 -0.0125304 0)
(3.06287 -0.0375636 0)
(3.22431 -0.0507434 0)
(3.38275 -0.059885 0)
(3.49398 -0.0619247 0)
(3.60958 -0.0749314 0)
(3.70336 -0.0896853 0)
(3.80794 -0.10635 0)
(3.89524 -0.120378 0)
(3.99551 -0.136877 0)
(4.0828 -0.150246 0)
(4.17591 -0.16492 0)
(4.26541 -0.177616 0)
(4.36193 -0.190523 0)
(4.46249 -0.203529 0)
(4.58172 -0.216159 0)
(4.7001 -0.227319 0)
(4.82845 -0.24757 0)
(4.94755 -0.27003 0)
(5.06824 -0.296516 0)
(5.17623 -0.322498 0)
(5.28497 -0.350195 0)
(5.37799 -0.375605 0)
(5.47761 -0.399692 0)
(5.5596 -0.418148 0)
(5.6594 -0.434329 0)
(5.74604 -0.449851 0)
(5.85838 -0.470732 0)
(5.96286 -0.494328 0)
(6.0877 -0.52429 0)
(6.20146 -0.554985 0)
(6.32294 -0.586941 0)
(6.43287 -0.617602 0)
(6.54622 -0.646939 0)
(6.65173 -0.675452 0)
(6.7604 -0.70614 0)
(6.86309 -0.738645 0)
(6.96818 -0.772844 0)
(7.0612 -0.808967 0)
(7.15837 -0.847867 0)
(7.23452 -0.885472 0)
(7.3192 -0.922753 0)
(7.37761 -0.953683 0)
(7.45466 -0.983606 0)
(7.50558 -1.00485 0)
(7.58358 -1.02742 0)
(7.63684 -1.03997 0)
(7.72104 -1.05774 0)
(7.78322 -1.06615 0)
(7.87414 -1.0844 0)
(7.94215 -1.09463 0)
(8.03394 -1.11729 0)
(8.09799 -1.13172 0)
(8.18434 -1.15809 0)
(8.23518 -1.1734 0)
(8.31115 -1.19698 0)
(8.34885 -1.2081 0)
(8.42123 -1.2289 0)
(8.45995 -1.23826 0)
(8.53616 -1.25953 0)
(8.58981 -1.26918 0)
(8.66249 -1.29035 0)
(8.7243 -1.30239 0)
(8.77995 -1.32059 0)
(8.8316 -1.32815 0)
(8.87489 -1.3388 0)
(8.91806 -1.3449 0)
(8.96058 -1.35772 0)
(8.99871 -1.36077 0)
(9.02842 -1.37227 0)
(9.06622 -1.3721 0)
(9.08888 -1.3846 0)
(9.13257 -1.38303 0)
(9.15159 -1.39444 0)
(9.20425 -1.39593 0)
(9.22567 -1.40802 0)
(9.27999 -1.40623 0)
(9.30702 -1.41214 0)
(9.35519 -1.39409 0)
(9.37963 -1.38472 0)
(9.41795 -1.35185 0)
(9.43933 -1.32736 0)
(9.46428 -1.28297 0)
(9.48238 -1.25346 0)
(9.5066 -1.20679 0)
(9.51521 -1.17556 0)
(9.53924 -1.12627 0)
(9.53625 -1.0905 0)
(9.55963 -1.03253 0)
(9.53846 -0.990522 0)
(9.55575 -0.933485 0)
(9.52149 -0.893416 0)
(9.54105 -0.838878 0)
(9.49264 -0.801331 0)
(9.51717 -0.752868 0)
(9.46141 -0.724088 0)
(9.50803 -0.688578 0)
(9.44315 -0.674371 0)
(9.51458 -0.644985 0)
(9.44717 -0.648254 0)
(9.53646 -0.624914 0)
(9.46115 -0.614907 0)
(9.55043 -0.586203 0)
(9.46513 -0.571808 0)
(9.54413 -0.537884 0)
(9.44546 -0.518436 0)
(9.50401 -0.482626 0)
(9.38931 -0.46058 0)
(9.42531 -0.423037 0)
(9.29221 -0.403581 0)
(9.31768 -0.363574 0)
(9.17399 -0.352795 0)
(9.22505 -0.312795 0)
(9.08099 -0.309301 0)
(9.14755 -0.265022 0)
(8.99081 -0.256763 0)
(9.04701 -0.203024 0)
(8.89271 -0.194027 0)
(8.95336 -0.145517 0)
(8.81647 -0.148824 0)
(8.88717 -0.106531 0)
(8.75414 -0.123054 0)
(8.82901 -0.0844166 0)
(8.70181 -0.107395 0)
(8.76959 -0.0633212 0)
(8.65399 -0.0763311 0)
(8.70573 -0.03024 0)
(8.59839 -0.0374867 0)
(8.64423 0.00953133 0)
(8.53466 0.00663743 0)
(8.57911 0.0591037 0)
(8.46145 0.0505886 0)
(8.51115 0.106992 0)
(8.38495 0.0992148 0)
(8.43814 0.167334 0)
(8.30632 0.157943 0)
(8.36552 0.226652 0)
(8.22369 0.212991 0)
(8.27765 0.282752 0)
(8.13408 0.276038 0)
(8.18864 0.341303 0)
(8.05638 0.325782 0)
(8.12684 0.380241 0)
(7.97831 0.371364 0)
(8.07977 0.431896 0)
(7.90203 0.411331 0)
(8.04652 0.470984 0)
(7.84988 0.442841 0)
(8.00561 0.507833 0)
(7.81675 0.4895 0)
(7.961 0.550599 0)
(7.78373 0.526419 0)
(7.91943 0.596498 0)
(7.75502 0.583047 0)
(7.8735 0.651046 0)
(7.74342 0.642215 0)
(7.85075 0.710676 0)
(7.76287 0.677875 0)
(7.83819 0.742402 0)
(7.7856 0.715949 0)
(7.81293 0.784178 0)
(7.77223 0.765876 0)
(7.76986 0.828432 0)
(7.76102 0.814491 0)
(7.72119 0.866941 0)
(7.72912 0.86014 0)
(7.62595 0.924092 0)
(7.67999 0.918858 0)
(7.46608 0.989709 0)
(7.58091 0.978184 0)
(7.2903 1.07416 0)
(7.46519 1.02918 0)
(7.12924 1.18705 0)
(7.36902 1.09363 0)
(6.96656 1.30589 0)
(7.31431 1.17482 0)
(6.81619 1.44163 0)
(7.24979 1.27227 0)
(6.70669 1.59921 0)
(7.14096 1.3809 0)
(6.63675 1.77324 0)
(7.01836 1.53573 0)
(6.56135 1.96434 0)
(6.90779 1.74825 0)
(6.44043 2.17149 0)
(6.80369 2.01861 0)
(6.25418 2.39885 0)
(6.70347 2.3404 0)
(6.01918 2.69005 0)
(6.52334 2.72858 0)
(5.8031 3.13689 0)
(6.20828 3.20727 0)
(5.65054 3.89469 0)
(5.80854 3.95242 0)
(5.20202 5.09801 0)
(6.12207 5.7449 0)
(3.90239 8.60447 0)
(5.26701 -0.0563789 0)
(5.26503 -0.0240152 0)
(5.31448 -0.0391624 0)
(5.40627 -0.0800145 0)
(5.52671 -0.115545 0)
(5.63121 -0.132757 0)
(5.72494 -0.139484 0)
(5.79096 -0.141269 0)
(5.84888 -0.147366 0)
(5.89451 -0.15846 0)
(5.94687 -0.174187 0)
(5.99581 -0.190847 0)
(6.05727 -0.208137 0)
(6.1162 -0.223589 0)
(6.18652 -0.237863 0)
(6.25267 -0.25179 0)
(6.33086 -0.26548 0)
(6.40284 -0.279546 0)
(6.48869 -0.295919 0)
(6.5688 -0.31245 0)
(6.66035 -0.333078 0)
(6.7443 -0.356132 0)
(6.83347 -0.380639 0)
(6.91243 -0.405349 0)
(6.99771 -0.429718 0)
(7.07036 -0.452984 0)
(7.15513 -0.474015 0)
(7.22462 -0.493303 0)
(7.31192 -0.512111 0)
(7.38247 -0.531468 0)
(7.47703 -0.553865 0)
(7.55231 -0.578584 0)
(7.65373 -0.607885 0)
(7.7295 -0.637298 0)
(7.82916 -0.668865 0)
(7.89913 -0.696681 0)
(7.99079 -0.726475 0)
(8.05518 -0.75188 0)
(8.13821 -0.782077 0)
(8.19969 -0.809323 0)
(8.2769 -0.842997 0)
(8.33646 -0.873219 0)
(8.40932 -0.909542 0)
(8.46514 -0.940612 0)
(8.53455 -0.975113 0)
(8.58428 -1.00263 0)
(8.6522 -1.03189 0)
(8.69613 -1.0538 0)
(8.76484 -1.07699 0)
(8.80473 -1.09294 0)
(8.87521 -1.11087 0)
(8.91218 -1.12274 0)
(8.98332 -1.13895 0)
(9.01692 -1.15003 0)
(9.0852 -1.16767 0)
(9.11411 -1.18022 0)
(9.17608 -1.19977 0)
(9.2007 -1.21481 0)
(9.25704 -1.23446 0)
(9.27926 -1.25134 0)
(9.33498 -1.27027 0)
(9.35386 -1.28767 0)
(9.41152 -1.30594 0)
(9.4254 -1.32052 0)
(9.4829 -1.33569 0)
(9.4942 -1.34402 0)
(9.54032 -1.35273 0)
(9.55032 -1.35719 0)
(9.58736 -1.36637 0)
(9.60122 -1.37535 0)
(9.63095 -1.38062 0)
(9.64143 -1.38549 0)
(9.66617 -1.39007 0)
(9.67594 -1.39531 0)
(9.69381 -1.40474 0)
(9.70959 -1.40721 0)
(9.71913 -1.4188 0)
(9.74394 -1.41983 0)
(9.74231 -1.43028 0)
(9.77202 -1.42836 0)
(9.7659 -1.4305 0)
(9.79046 -1.41191 0)
(9.78406 -1.40096 0)
(9.80186 -1.36443 0)
(9.79297 -1.33593 0)
(9.80426 -1.29183 0)
(9.79844 -1.26002 0)
(9.803 -1.21013 0)
(9.79095 -1.17818 0)
(9.7893 -1.12522 0)
(9.7738 -1.08621 0)
(9.75855 -1.02338 0)
(9.73408 -0.98147 0)
(9.70415 -0.919761 0)
(9.67296 -0.87951 0)
(9.6346 -0.819157 0)
(9.60456 -0.784015 0)
(9.56796 -0.734552 0)
(9.55524 -0.713214 0)
(9.5309 -0.680576 0)
(9.52782 -0.674095 0)
(9.5244 -0.650685 0)
(9.52268 -0.655962 0)
(9.52223 -0.629984 0)
(9.51253 -0.614921 0)
(9.50902 -0.583148 0)
(9.48325 -0.559921 0)
(9.47119 -0.522725 0)
(9.42534 -0.493801 0)
(9.39936 -0.452633 0)
(9.34269 -0.41924 0)
(9.29739 -0.376478 0)
(9.23228 -0.346831 0)
(9.17464 -0.314624 0)
(9.12918 -0.306635 0)
(9.07822 -0.278802 0)
(9.03825 -0.268955 0)
(8.98099 -0.227468 0)
(8.94082 -0.210074 0)
(8.87253 -0.167105 0)
(8.85435 -0.155264 0)
(8.78206 -0.123231 0)
(8.79159 -0.120646 0)
(8.71861 -0.0908371 0)
(8.74434 -0.0974384 0)
(8.66463 -0.0664897 0)
(8.70175 -0.0798509 0)
(8.60143 -0.0434103 0)
(8.64733 -0.045452 0)
(8.53174 -0.00714675 0)
(8.57875 -0.00909069 0)
(8.45776 0.0359915 0)
(8.50281 0.0340264 0)
(8.37903 0.088629 0)
(8.4257 0.0853912 0)
(8.28694 0.139127 0)
(8.34847 0.136661 0)
(8.19366 0.190578 0)
(8.27546 0.193875 0)
(8.10908 0.245157 0)
(8.20772 0.253642 0)
(8.01246 0.311628 0)
(8.12272 0.318504 0)
(7.92245 0.37076 0)
(8.0447 0.354642 0)
(7.85334 0.41157 0)
(7.97598 0.39417 0)
(7.79743 0.451934 0)
(7.94102 0.424641 0)
(7.77397 0.480835 0)
(7.90872 0.449221 0)
(7.75426 0.516451 0)
(7.87675 0.488986 0)
(7.73307 0.560143 0)
(7.8519 0.525811 0)
(7.70538 0.616066 0)
(7.84078 0.570538 0)
(7.67516 0.668905 0)
(7.86948 0.616203 0)
(7.67565 0.721247 0)
(7.92052 0.646083 0)
(7.68038 0.769044 0)
(7.9432 0.693937 0)
(7.68611 0.817829 0)
(7.94858 0.733733 0)
(7.69658 0.858788 0)
(7.95627 0.765956 0)
(7.68588 0.928712 0)
(7.93282 0.820852 0)
(7.62877 1.01726 0)
(7.88546 0.888439 0)
(7.54629 1.1173 0)
(7.79954 0.943138 0)
(7.43545 1.20839 0)
(7.70168 0.98533 0)
(7.29734 1.29749 0)
(7.65727 1.04901 0)
(7.15851 1.40779 0)
(7.62713 1.13552 0)
(7.05387 1.54228 0)
(7.56749 1.23785 0)
(6.96927 1.68069 0)
(7.50438 1.3782 0)
(6.85897 1.82096 0)
(7.48556 1.56043 0)
(6.73328 1.98374 0)
(7.49986 1.783 0)
(6.60231 2.19512 0)
(7.49229 2.03198 0)
(6.49383 2.49224 0)
(7.40395 2.30025 0)
(6.45356 2.89808 0)
(7.19202 2.62843 0)
(6.43006 3.43949 0)
(6.93364 3.14624 0)
(6.25925 4.1492 0)
(7.038 4.06014 0)
(5.65545 5.39579 0)
(8.22815 4.99057 0)
(6.26412 9.14797 0)
(7.8898 -0.0820768 0)
(7.89245 -0.0890761 0)
(7.92139 -0.109133 0)
(7.98771 -0.132673 0)
(8.0769 -0.149003 0)
(8.15372 -0.155761 0)
(8.21089 -0.157952 0)
(8.24169 -0.159591 0)
(8.26042 -0.165458 0)
(8.27125 -0.176942 0)
(8.28826 -0.193883 0)
(8.30816 -0.213703 0)
(8.33865 -0.234815 0)
(8.37115 -0.25537 0)
(8.41293 -0.274886 0)
(8.45395 -0.293072 0)
(8.50323 -0.310546 0)
(8.54854 -0.327445 0)
(8.60049 -0.345302 0)
(8.64812 -0.36421 0)
(8.70119 -0.385306 0)
(8.75097 -0.4084 0)
(8.80402 -0.432289 0)
(8.85424 -0.456789 0)
(8.90699 -0.480452 0)
(8.95813 -0.503679 0)
(9.01176 -0.524862 0)
(9.06491 -0.545783 0)
(9.11978 -0.565269 0)
(9.17273 -0.586388 0)
(9.22874 -0.608001 0)
(9.27961 -0.633296 0)
(9.33647 -0.659653 0)
(9.38147 -0.688909 0)
(9.43665 -0.717366 0)
(9.47325 -0.746285 0)
(9.52675 -0.773242 0)
(9.55727 -0.799798 0)
(9.61038 -0.826112 0)
(9.63836 -0.852571 0)
(9.69212 -0.881423 0)
(9.72218 -0.910176 0)
(9.77543 -0.942492 0)
(9.80812 -0.97285 0)
(9.85748 -1.00566 0)
(9.89052 -1.03428 0)
(9.93277 -1.06363 0)
(9.96322 -1.08735 0)
(9.99735 -1.11067 0)
(10.024 -1.12828 0)
(10.0518 -1.14516 0)
(10.0744 -1.15813 0)
(10.0988 -1.17124 0)
(10.1171 -1.18238 0)
(10.1401 -1.19571 0)
(10.1555 -1.20794 0)
(10.1785 -1.22492 0)
(10.1944 -1.24032 0)
(10.2168 -1.26047 0)
(10.2338 -1.27654 0)
(10.2494 -1.29424 0)
(10.264 -1.30798 0)
(10.2675 -1.32066 0)
(10.2741 -1.33197 0)
(10.2672 -1.33934 0)
(10.2627 -1.34706 0)
(10.2536 -1.35286 0)
(10.2471 -1.36142 0)
(10.2463 -1.37048 0)
(10.2364 -1.3797 0)
(10.2351 -1.38602 0)
(10.2221 -1.39033 0)
(10.2222 -1.39218 0)
(10.2037 -1.39888 0)
(10.2048 -1.40373 0)
(10.1776 -1.40938 0)
(10.1746 -1.41583 0)
(10.1445 -1.41714 0)
(10.1363 -1.42685 0)
(10.1123 -1.42511 0)
(10.1005 -1.42557 0)
(10.0782 -1.40912 0)
(10.0701 -1.39521 0)
(10.0419 -1.35571 0)
(10.0361 -1.32881 0)
(10.0052 -1.28189 0)
(9.99678 -1.24677 0)
(9.95303 -1.19478 0)
(9.94545 -1.16087 0)
(9.8895 -1.1064 0)
(9.88328 -1.06122 0)
(9.81253 -0.9956 0)
(9.79843 -0.951339 0)
(9.71711 -0.885093 0)
(9.70076 -0.843638 0)
(9.61948 -0.783387 0)
(9.59969 -0.753547 0)
(9.53186 -0.709457 0)
(9.53415 -0.696148 0)
(9.47978 -0.667872 0)
(9.49651 -0.670442 0)
(9.45758 -0.648729 0)
(9.46299 -0.657282 0)
(9.43029 -0.621653 0)
(9.41764 -0.607748 0)
(9.38973 -0.562297 0)
(9.34901 -0.542543 0)
(9.3297 -0.488799 0)
(9.25931 -0.465675 0)
(9.24611 -0.404217 0)
(9.15031 -0.379188 0)
(9.13635 -0.314234 0)
(9.02817 -0.303781 0)
(9.04534 -0.267092 0)
(8.94343 -0.272452 0)
(8.95743 -0.229409 0)
(8.83616 -0.227704 0)
(8.85038 -0.173862 0)
(8.71664 -0.172146 0)
(8.75184 -0.118383 0)
(8.62203 -0.12943 0)
(8.67248 -0.0856079 0)
(8.55503 -0.106813 0)
(8.6129 -0.0631777 0)
(8.50125 -0.0872135 0)
(8.56295 -0.0360156 0)
(8.4448 -0.0639172 0)
(8.5038 -0.00298573 0)
(8.37544 -0.0279178 0)
(8.4361 0.040005 0)
(8.29484 0.011696 0)
(8.35061 0.0908838 0)
(8.20832 0.0571643 0)
(8.25633 0.147646 0)
(8.12187 0.113811 0)
(8.15296 0.203408 0)
(8.0323 0.167597 0)
(8.05511 0.246253 0)
(7.94519 0.214891 0)
(7.97446 0.296005 0)
(7.85939 0.271374 0)
(7.90095 0.371318 0)
(7.75833 0.335966 0)
(7.83813 0.423977 0)
(7.68572 0.364603 0)
(7.78782 0.458612 0)
(7.63373 0.402721 0)
(7.75292 0.487225 0)
(7.60592 0.420954 0)
(7.74635 0.515057 0)
(7.57283 0.443924 0)
(7.75742 0.558796 0)
(7.53873 0.47145 0)
(7.75205 0.604754 0)
(7.5275 0.510562 0)
(7.74569 0.667942 0)
(7.53915 0.533843 0)
(7.74757 0.702747 0)
(7.58625 0.56417 0)
(7.76347 0.741524 0)
(7.62841 0.606267 0)
(7.79439 0.802611 0)
(7.65082 0.654552 0)
(7.82524 0.859376 0)
(7.68794 0.687901 0)
(7.84434 0.906388 0)
(7.71339 0.728277 0)
(7.83206 0.987057 0)
(7.73062 0.795793 0)
(7.79292 1.09057 0)
(7.73189 0.876083 0)
(7.7038 1.19769 0)
(7.75837 0.950158 0)
(7.55779 1.29314 0)
(7.81542 1.01402 0)
(7.37535 1.38448 0)
(7.85536 1.06289 0)
(7.22224 1.48637 0)
(7.87664 1.13597 0)
(7.10618 1.60667 0)
(7.90088 1.24949 0)
(6.97164 1.73913 0)
(7.92693 1.38349 0)
(6.83203 1.89856 0)
(7.92939 1.52152 0)
(6.74734 2.10036 0)
(7.89503 1.68633 0)
(6.74325 2.36904 0)
(7.79019 1.88827 0)
(6.80878 2.69112 0)
(7.63382 2.16259 0)
(6.88731 3.06664 0)
(7.56717 2.56259 0)
(6.83857 3.51061 0)
(7.79133 3.11997 0)
(6.55131 4.27006 0)
(8.53274 3.64533 0)
(6.30949 5.95248 0)
(9.44539 3.6422 0)
(7.88893 8.37924 0)
(10.0605 -0.115994 0)
(10.0783 -0.227181 0)
(10.1252 -0.2706 0)
(10.1889 -0.262248 0)
(10.2584 -0.234098 0)
(10.3086 -0.205772 0)
(10.3395 -0.187201 0)
(10.3489 -0.179207 0)
(10.351 -0.181624 0)
(10.3481 -0.191726 0)
(10.3512 -0.208633 0)
(10.3563 -0.229114 0)
(10.3692 -0.252248 0)
(10.3828 -0.274961 0)
(10.4024 -0.29745 0)
(10.4206 -0.31766 0)
(10.4431 -0.337302 0)
(10.4625 -0.355076 0)
(10.4864 -0.373747 0)
(10.5073 -0.392094 0)
(10.5333 -0.412798 0)
(10.5556 -0.433959 0)
(10.583 -0.457614 0)
(10.6057 -0.48066 0)
(10.633 -0.505216 0)
(10.6562 -0.52785 0)
(10.6821 -0.550925 0)
(10.7059 -0.571678 0)
(10.7299 -0.593106 0)
(10.7543 -0.613493 0)
(10.7747 -0.635481 0)
(10.7988 -0.65813 0)
(10.8148 -0.6826 0)
(10.8372 -0.708808 0)
(10.8491 -0.73516 0)
(10.8683 -0.762951 0)
(10.8787 -0.789031 0)
(10.8957 -0.817412 0)
(10.9092 -0.843471 0)
(10.9253 -0.872678 0)
(10.9444 -0.900163 0)
(10.9597 -0.93175 0)
(10.983 -0.961837 0)
(10.9952 -0.994459 0)
(11.0179 -1.02481 0)
(11.0244 -1.0549 0)
(11.0421 -1.08152 0)
(11.0422 -1.10546 0)
(11.053 -1.12567 0)
(11.0489 -1.14231 0)
(11.0533 -1.15615 0)
(11.0471 -1.16742 0)
(11.0467 -1.17716 0)
(11.0399 -1.18714 0)
(11.0386 -1.19767 0)
(11.0334 -1.21115 0)
(11.0342 -1.22582 0)
(11.028 -1.24205 0)
(11.0278 -1.25802 0)
(11.0127 -1.27158 0)
(11.0055 -1.28493 0)
(10.9787 -1.29357 0)
(10.9603 -1.30338 0)
(10.9242 -1.30743 0)
(10.891 -1.3134 0)
(10.8525 -1.31888 0)
(10.8128 -1.33029 0)
(10.7806 -1.34281 0)
(10.7387 -1.35206 0)
(10.7083 -1.36101 0)
(10.6625 -1.36733 0)
(10.6275 -1.37084 0)
(10.5822 -1.37173 0)
(10.5485 -1.37717 0)
(10.4982 -1.37772 0)
(10.4549 -1.38356 0)
(10.4029 -1.38375 0)
(10.3601 -1.39169 0)
(10.316 -1.3977 0)
(10.2834 -1.40108 0)
(10.2389 -1.39541 0)
(10.2136 -1.386 0)
(10.1624 -1.36202 0)
(10.1361 -1.33001 0)
(10.0829 -1.29846 0)
(10.0522 -1.2526 0)
(9.99248 -1.21216 0)
(9.95615 -1.17088 0)
(9.90042 -1.12946 0)
(9.8607 -1.07797 0)
(9.79607 -1.02369 0)
(9.75035 -0.95614 0)
(9.67734 -0.9035 0)
(9.63181 -0.837517 0)
(9.56439 -0.794539 0)
(9.52315 -0.737184 0)
(9.45892 -0.715285 0)
(9.43255 -0.678591 0)
(9.38585 -0.675582 0)
(9.36509 -0.647828 0)
(9.33612 -0.656446 0)
(9.30977 -0.629004 0)
(9.28124 -0.642847 0)
(9.2521 -0.596261 0)
(9.21872 -0.590729 0)
(9.1855 -0.531913 0)
(9.13432 -0.518844 0)
(9.10219 -0.448593 0)
(9.03326 -0.432574 0)
(8.99911 -0.354771 0)
(8.90536 -0.33477 0)
(8.878 -0.267523 0)
(8.80306 -0.282715 0)
(8.80901 -0.236429 0)
(8.71623 -0.241626 0)
(8.72148 -0.181547 0)
(8.60243 -0.184825 0)
(8.60538 -0.120922 0)
(8.47429 -0.133523 0)
(8.5048 -0.074456 0)
(8.37623 -0.106271 0)
(8.42315 -0.0523892 0)
(8.30903 -0.0932283 0)
(8.34991 -0.0334397 0)
(8.25558 -0.0759983 0)
(8.28292 -0.0078597 0)
(8.19195 -0.048024 0)
(8.21678 0.0337809 0)
(8.12322 -0.0112795 0)
(8.1439 0.0857781 0)
(8.05021 0.0351847 0)
(8.05785 0.142542 0)
(7.96294 0.0870331 0)
(7.96764 0.199138 0)
(7.8741 0.143601 0)
(7.87489 0.253786 0)
(7.78293 0.198249 0)
(7.78223 0.292901 0)
(7.68587 0.241736 0)
(7.70591 0.342554 0)
(7.59334 0.297112 0)
(7.63726 0.416332 0)
(7.52205 0.355668 0)
(7.59249 0.453674 0)
(7.49964 0.377411 0)
(7.5588 0.486667 0)
(7.48007 0.411931 0)
(7.53434 0.502684 0)
(7.48326 0.419097 0)
(7.51319 0.522262 0)
(7.49489 0.43808 0)
(7.50489 0.568956 0)
(7.51531 0.468041 0)
(7.48256 0.608196 0)
(7.55234 0.50132 0)
(7.49107 0.654642 0)
(7.58422 0.521081 0)
(7.52005 0.700247 0)
(7.62573 0.556607 0)
(7.52851 0.729639 0)
(7.67572 0.580298 0)
(7.5625 0.792797 0)
(7.74542 0.60728 0)
(7.55456 0.839761 0)
(7.86003 0.644681 0)
(7.52135 0.909614 0)
(7.94805 0.702746 0)
(7.46797 1.00937 0)
(8.02989 0.761178 0)
(7.41579 1.12997 0)
(8.12711 0.831807 0)
(7.32713 1.24313 0)
(8.2251 0.898875 0)
(7.22198 1.33922 0)
(8.28482 0.959269 0)
(7.13637 1.44579 0)
(8.27194 1.01788 0)
(7.06545 1.55042 0)
(8.24024 1.08399 0)
(7.00264 1.67799 0)
(8.23008 1.17798 0)
(6.9724 1.8501 0)
(8.19423 1.27903 0)
(6.99992 2.044 0)
(8.10756 1.39746 0)
(7.073 2.25269 0)
(8.02482 1.56507 0)
(7.15178 2.49805 0)
(8.00936 1.81738 0)
(7.15595 2.78623 0)
(8.10619 2.12285 0)
(7.0495 3.16375 0)
(8.40047 2.46363 0)
(6.84872 3.74395 0)
(8.92684 2.70922 0)
(6.72973 4.74489 0)
(9.63827 2.74164 0)
(7.20952 6.21224 0)
(9.96559 2.92897 0)
(8.77538 7.32175 0)
(11.5443 -0.100421 0)
(11.5847 -0.242416 0)
(11.6988 -0.299871 0)
(11.7915 -0.292089 0)
(11.8532 -0.255517 0)
(11.881 -0.216397 0)
(11.887 -0.189707 0)
(11.8772 -0.178485 0)
(11.8646 -0.180792 0)
(11.8496 -0.192444 0)
(11.8399 -0.210841 0)
(11.8316 -0.232716 0)
(11.8291 -0.256611 0)
(11.8276 -0.28027 0)
(11.8302 -0.303357 0)
(11.8325 -0.324668 0)
(11.8373 -0.344827 0)
(11.8415 -0.363643 0)
(11.8473 -0.38238 0)
(11.8525 -0.401313 0)
(11.8588 -0.421539 0)
(11.8634 -0.442944 0)
(11.8688 -0.465926 0)
(11.8706 -0.489405 0)
(11.8739 -0.513665 0)
(11.8721 -0.537048 0)
(11.8735 -0.560405 0)
(11.8691 -0.581854 0)
(11.8699 -0.603824 0)
(11.8651 -0.623706 0)
(11.8656 -0.645442 0)
(11.8619 -0.665619 0)
(11.8612 -0.689496 0)
(11.8595 -0.711815 0)
(11.856 -0.73824 0)
(11.8568 -0.762763 0)
(11.8498 -0.79125 0)
(11.8536 -0.817864 0)
(11.8439 -0.847726 0)
(11.8502 -0.876482 0)
(11.8387 -0.90774 0)
(11.8453 -0.938698 0)
(11.8321 -0.970425 0)
(11.8357 -1.00163 0)
(11.8203 -1.03143 0)
(11.818 -1.05925 0)
(11.7998 -1.08394 0)
(11.7904 -1.10535 0)
(11.7692 -1.12311 0)
(11.7526 -1.137 0)
(11.7278 -1.14848 0)
(11.7061 -1.15695 0)
(11.6794 -1.16631 0)
(11.6576 -1.17531 0)
(11.6315 -1.18749 0)
(11.611 -1.19985 0)
(11.5817 -1.21366 0)
(11.5567 -1.22624 0)
(11.5181 -1.23813 0)
(11.4835 -1.24902 0)
(11.4368 -1.25839 0)
(11.3898 -1.26507 0)
(11.3377 -1.26938 0)
(11.2771 -1.27052 0)
(11.2247 -1.27489 0)
(11.1596 -1.28012 0)
(11.1112 -1.29168 0)
(11.039 -1.29943 0)
(10.9821 -1.30966 0)
(10.9057 -1.31197 0)
(10.842 -1.31766 0)
(10.7619 -1.31682 0)
(10.6995 -1.32176 0)
(10.6217 -1.3204 0)
(10.554 -1.32342 0)
(10.4743 -1.32577 0)
(10.409 -1.33376 0)
(10.3428 -1.34486 0)
(10.2922 -1.35729 0)
(10.2332 -1.35899 0)
(10.1827 -1.35811 0)
(10.1254 -1.34303 0)
(10.0649 -1.32036 0)
(10.0132 -1.28902 0)
(9.94822 -1.25679 0)
(9.89084 -1.20956 0)
(9.83276 -1.17401 0)
(9.77578 -1.12976 0)
(9.71684 -1.09095 0)
(9.6612 -1.02381 0)
(9.58672 -0.972396 0)
(9.52799 -0.897299 0)
(9.46275 -0.857701 0)
(9.40415 -0.784302 0)
(9.35624 -0.760022 0)
(9.2974 -0.690555 0)
(9.26089 -0.692651 0)
(9.20888 -0.63582 0)
(9.17374 -0.659161 0)
(9.12556 -0.610818 0)
(9.10427 -0.64129 0)
(9.04564 -0.589504 0)
(9.0371 -0.624673 0)
(8.96268 -0.552428 0)
(8.9581 -0.563987 0)
(8.8665 -0.484212 0)
(8.8613 -0.485145 0)
(8.7595 -0.394068 0)
(8.74112 -0.391228 0)
(8.6276 -0.287296 0)
(8.60023 -0.292606 0)
(8.52665 -0.225497 0)
(8.51481 -0.264397 0)
(8.44488 -0.187142 0)
(8.41137 -0.212262 0)
(8.34732 -0.117712 0)
(8.28051 -0.14077 0)
(8.22211 -0.0487978 0)
(8.15851 -0.0974186 0)
(8.11152 -0.015997 0)
(8.05822 -0.0853439 0)
(8.02022 -0.000824312 0)
(7.98299 -0.0751938 0)
(7.93994 0.01495 0)
(7.92175 -0.0564261 0)
(7.86303 0.03949 0)
(7.85153 -0.0315227 0)
(7.79679 0.0807991 0)
(7.77965 0.00766045 0)
(7.73264 0.138484 0)
(7.71228 0.0593085 0)
(7.66016 0.196173 0)
(7.6326 0.113511 0)
(7.58521 0.254823 0)
(7.55128 0.165165 0)
(7.50721 0.312209 0)
(7.46676 0.218223 0)
(7.42036 0.356827 0)
(7.37739 0.255435 0)
(7.34005 0.405136 0)
(7.30571 0.304195 0)
(7.2707 0.464823 0)
(7.28322 0.339465 0)
(7.25777 0.4765 0)
(7.28432 0.359636 0)
(7.24514 0.518273 0)
(7.28209 0.387135 0)
(7.23261 0.529178 0)
(7.309 0.387316 0)
(7.21756 0.560192 0)
(7.34389 0.403038 0)
(7.20198 0.603182 0)
(7.38462 0.432512 0)
(7.21914 0.6461 0)
(7.41902 0.454971 0)
(7.25871 0.680707 0)
(7.44881 0.469214 0)
(7.29822 0.738607 0)
(7.4875 0.49443 0)