/*--------------------------------*- C++ -*----------------------------------*\
| =========                 |                                                 |
| \\      /  F ield         | OpenFOAM: The Open Source CFD Toolbox           |
|  \\    /   O peration     | Version:  2.4.0                                 |
|   \\  /    A nd           | Web:      www.OpenFOAM.org                      |
|    \\/     M anipulation  |                                                 |
\*---------------------------------------------------------------------------*/
FoamFile
{
    version     2.0;
    format      ascii;
    class       volScalarField;
    location    "0.7";
    object      k_0;
}
// * * * * * * * * * * * * * * * * * * * * * * * * * * * * * * * * * * * * * //

dimensions      [0 2 -2 0 0 0 0];

internalField   nonuniform List<scalar> 
8800
(
8.18718
10.2336
8.82251
6.72927
5.77126
4.86596
4.61729
4.04924
3.97563
3.62449
3.62373
3.3347
3.37601
3.13645
3.19153
2.95029
3.02903
2.77939
2.9108
2.50727
1.48612
4.31032
5.36815
5.24645
5.1282
4.73342
4.61774
4.24315
4.14431
3.86783
3.81164
3.57057
3.55514
3.38681
3.37179
3.22874
3.22841
3.10711
3.07954
3.05007
0.0906509
0.690036
1.64702
1.88299
2.32074
2.3945
2.57062
2.58498
2.61569
2.57913
2.58756
2.55533
2.53621
2.47926
2.47059
2.44234
2.40859
2.39852
2.35165
2.36216
0.00373694
0.0673935
0.291666
0.389827
0.596481
0.696738
0.802493
0.953546
1.0242
1.08679
1.15996
1.26801
1.28449
1.31262
1.34017
1.396
1.3984
1.43743
1.45439
1.47703
0.000132333
0.00485357
0.0307904
0.0467789
0.089074
0.126107
0.14993
0.209383
0.253955
0.276959
0.308757
0.400082
0.425131
0.449437
0.468916
0.524602
0.535997
0.563994
0.587828
0.649321
3.66185e-05
0.000363023
0.00243522
0.00387326
0.00868954
0.0134326
0.0169889
0.0262616
0.0409683
0.0459331
0.0522702
0.0745955
0.0897844
0.0979352
0.105687
0.128115
0.134655
0.142906
0.15249
0.177211
2.22167e-05
8.26719e-05
0.000395583
0.000654702
0.00129339
0.0017766
0.00227139
0.00336601
0.00718917
0.0116312
0.0139426
0.0192368
0.0241643
0.0262418
0.0275636
0.0315087
0.0362999
0.0423293
0.0477157
0.0519917
2.12978e-05
6.60441e-05
0.000142433
0.000318213
0.000538932
0.000541731
0.000588495
0.000772004
0.00212015
0.00341653
0.00397888
0.00525122
0.00860261
0.0107547
0.0116355
0.0137859
0.0172352
0.0197382
0.021013
0.0226803
2.03841e-05
3.82929e-05
6.87524e-05
0.000125522
0.000489933
0.000524015
0.00046347
0.000489489
0.000661786
0.00116359
0.00124812
0.00139234
0.00240409
0.0037237
0.00436126
0.00554196
0.00839294
0.0119917
0.0130932
0.0130558
2.03726e-05
5.3143e-05
5.68836e-05
5.64315e-05
0.000111511
0.000341455
0.000387276
0.000407637
0.000498744
0.000500006
0.000470455
0.000509652
0.000799527
0.00138082
0.00199326
0.00349095
0.00533427
0.0058439
0.0057965
0.00581663
2.06215e-05
3.86955e-05
4.47939e-05
4.58152e-05
0.00012345
0.000237452
0.000261799
0.000314445
0.000354939
0.000381436
0.000421628
0.000468911
0.000734949
0.00152615
0.00206148
0.00257016
0.0029322
0.00369711
0.00440563
0.00493692
2.12062e-05
2.6614e-05
3.57133e-05
0.000100895
0.000231357
0.000226542
0.000167163
0.000135466
0.000134098
0.000144769
0.000179573
0.000334126
0.000877498
0.00112036
0.00119683
0.0013795
0.00177545
0.00218694
0.00261951
0.00352435
2.22658e-05
2.65477e-05
3.93256e-05
0.000180528
0.000236682
0.000219014
0.000257587
0.000266391
0.000254767
0.000326558
0.000382137
0.000415757
0.000556319
0.00107704
0.00136054
0.00206489
0.00286983
0.00347276
0.00383281
0.00447496
2.22187e-05
4.07778e-05
0.000126377
0.000796877
0.00133684
0.00148476
0.00253149
0.00269088
0.00264451
0.00363327
0.00409174
0.00473989
0.00691331
0.0122973
0.0142694
0.0192019
0.0236089
0.0275766
0.0294766
0.0343488
2.56371e-05
0.000282873
0.00146589
0.00780605
0.0130043
0.0150408
0.0249482
0.0284375
0.0305098
0.0419286
0.0478678
0.054136
0.0710921
0.0954176
0.103036
0.124769
0.139827
0.15831
0.166965
0.193348
0.000123361
0.00467717
0.0207127
0.0728619
0.108029
0.123639
0.180937
0.208657
0.223394
0.278401
0.301984
0.330346
0.389363
0.451207
0.470347
0.526442
0.5515
0.595036
0.616227
0.681135
0.00325921
0.0672014
0.230472
0.495647
0.616788
0.677085
0.861321
0.922795
0.964575
1.08066
1.12685
1.18029
1.27343
1.32957
1.34695
1.39678
1.41313
1.44545
1.46224
1.51407
0.0818721
0.708444
1.56162
2.04882
2.27339
2.39752
2.58976
2.57175
2.58059
2.56834
2.56608
2.53013
2.52861
2.49356
2.47038
2.41626
2.40335
2.36691
2.35431
2.32989
1.36928
4.35553
5.36219
5.31913
5.10463
4.82465
4.50639
4.26279
4.12428
3.82753
3.77289
3.59684
3.52399
3.36573
3.3259
3.18245
3.15011
3.03123
2.98559
2.87692
8.08139
10.2895
8.84016
6.77839
5.66586
5.00466
4.45139
4.12419
3.92138
3.63542
3.56497
3.35977
3.30921
3.12354
3.08666
2.91733
2.87135
2.68797
2.61676
2.38616
1.64952
1.27708
1.04479
0.931804
0.82489
0.794872
0.736591
0.722812
0.688556
0.676752
0.641244
0.63247
0.602529
0.597909
0.574931
0.573146
0.554795
0.554451
0.54044
0.541426
0.528804
0.528242
0.510425
0.503544
0.474235
0.463255
0.432006
0.426296
0.41205
0.415557
0.413684
0.425672
0.433936
0.464814
0.478991
0.511357
0.521403
0.547114
0.553483
0.56589
0.562979
0.556907
0.527078
0.442124
0.358899
0.302014
0.26326
0.243578
0.231987
0.228548
0.225188
0.225161
0.224293
0.219177
0.215538
0.204226
0.197756
0.199902
0.20161
0.198489
0.193025
0.185259
0.163865
0.13857
0.106836
0.0860311
0.0840753
0.0827814
0.078731
0.0717474
0.0667904
0.0670552
0.0704625
0.0783212
0.095453
0.132826
0.169828
0.192459
0.199453
0.198643
0.194002
0.180136
0.159994
0.144453
0.130409
0.117581
0.113441
0.113048
0.114076
0.113279
0.11051
0.104234
0.0956914
0.0849552
0.0747714
0.0665598
0.0637094
0.0594856
0.0559897
0.0556345
0.0544231
0.0538937
0.0546003
0.0557809
0.05969
0.0698819
0.080212
0.111595
0.142274
0.185878
0.3399
0.462798
0.480939
0.431243
0.343502
0.25908
0.18946
0.137528
0.106091
0.0904201
0.0833772
0.0765368
0.0707156
0.0698484
0.0704197
0.0732285
0.0893981
0.109738
0.1267
0.172492
0.279532
0.279474
0.172532
0.126589
0.160186
0.186458
0.203248
0.237716
0.251265
0.215079
0.204844
0.202325
0.1997
0.214451
0.207061
0.187377
0.169028
0.150658
0.132212
0.125867
0.118083
0.110478
0.109492
0.116456
0.130644
0.141386
0.140475
0.129649
0.116714
0.100389
0.0902885
0.0758492
0.0703895
0.066089
0.0646857
0.0657221
0.0646743
0.0619407
0.0591207
0.0507759
0.0456228
0.0427309
0.0410107
0.0405949
0.0394755
0.0367565
0.0335707
0.0340321
0.0336479
0.0344009
0.0373031
0.0487333
0.0864458
0.122021
0.145049
0.141081
0.130176
0.0978506
0.0656858
0.0536653
0.0422765
0.0438469
0.0425537
0.049383
0.0625318
0.0716273
0.142017
0.188513
0.310422
0.595234
2.56775
2.10751
1.71767
1.53527
1.32122
1.24245
1.10393
1.05923
0.965062
0.935295
0.869448
0.850863
0.804548
0.792772
0.756881
0.747536
0.716889
0.708899
0.683889
0.678491
0.66112
0.659237
0.648645
0.648239
0.639468
0.636306
0.623401
0.614512
0.593374
0.581465
0.559649
0.550674
0.534218
0.529753
0.519749
0.516006
0.506907
0.505486
0.507411
0.516
0.534794
0.571999
0.600336
0.60175
0.591228
0.565433
0.503407
0.435539
0.381894
0.339975
0.308607
0.279996
0.26334
0.254095
0.243826
0.240673
0.237101
0.22761
0.218564
0.202227
0.183636
0.164181
0.119858
0.0845798
0.0695488
0.0615097
0.0594699
0.0589758
0.0572322
0.055382
0.0537895
0.0534448
0.0548524
0.0594266
0.0639122
0.0710371
0.0893625
0.125119
0.159425
0.176861
0.180976
0.181841
0.180931
0.175748
0.167088
0.156186
0.146595
0.138217
0.13071
0.121585
0.113197
0.101447
0.0864866
0.0732905
0.0659077
0.058681
0.0529973
0.0474247
0.0451301
0.0454481
0.0460814
0.0468144
0.0486647
0.0511646
0.0566202
0.0674465
0.0771994
0.10824
0.141292
0.169234
0.251284
0.423535
0.469066
0.447052
0.351594
0.260094
0.191387
0.144966
0.117027
0.103481
0.0946528
0.0847866
0.0773585
0.0760945
0.0768262
0.0815695
0.103579
0.121948
0.133258
0.1837
0.267417
0.250086
0.148648
0.137115
0.170018
0.181304
0.222665
0.29151
0.28478
0.243041
0.24791
0.257585
0.242649
0.229847
0.211557
0.185828
0.166655
0.145357
0.123441
0.12232
0.122027
0.116268
0.109703
0.109289
0.114234
0.122919
0.129376
0.12495
0.117851
0.102803
0.0921878
0.0837805
0.0720429
0.0709047
0.0672183
0.0657194
0.0671995
0.0635123
0.0606117
0.0522259
0.0452973
0.0434744
0.0411372
0.0388588
0.0390019
0.0381028
0.0354865
0.0325718
0.0312772
0.0318281
0.0333355
0.0372214
0.048593
0.0812906
0.112236
0.138106
0.132841
0.127352
0.102645
0.0688163
0.0554611
0.046025
0.0568019
0.0549109
0.108511
0.104474
0.24805
0.258136
0.568186
0.613239
2.13086
1.88314
1.62033
1.47568
1.31891
1.2441
1.13133
1.08164
0.991708
0.951897
0.879475
0.851397
0.797131
0.777479
0.738829
0.724472
0.695943
0.682506
0.658658
0.641594
0.623003
0.609877
0.597775
0.592552
0.588063
0.587603
0.587354
0.586972
0.582398
0.5775
0.565372
0.555665
0.53977
0.52602
0.50733
0.49052
0.473901
0.459289
0.449897
0.441412
0.437048
0.437463
0.440328
0.449327
0.472707
0.49452
0.492422
0.483794
0.464408
0.437685
0.409688
0.382625
0.358285
0.329676
0.306392
0.283422
0.254514
0.231775
0.200937
0.166746
0.126357
0.0877313
0.0647717
0.0527076
0.0494641
0.0495637
0.0493005
0.0493553
0.0486959
0.046378
0.0452004
0.0448488
0.0447323
0.0459035
0.0509166
0.0544394
0.0584304
0.0666008
0.0907243
0.118207
0.140174
0.151568
0.156598
0.157574
0.155663
0.152164
0.146399
0.135557
0.126512
0.116908
0.100125
0.0840259
0.069595
0.0613324
0.0514754
0.0445095
0.0415431
0.041392
0.0420112
0.0431398
0.0449686
0.0468199
0.0511787
0.0548951
0.0591469
0.0703016
0.0778462
0.0915596
0.123561
0.150277
0.194501
0.340617
0.434138
0.43455
0.37076
0.268502
0.200272
0.15746
0.13138
0.117619
0.106896
0.0931959
0.0847881
0.0837951
0.0852384
0.0953554
0.12014
0.130476
0.136335
0.188097
0.253379
0.222669
0.141701
0.146792
0.171943
0.174891
0.243989
0.324107
0.292028
0.269139
0.295576
0.301184
0.256824
0.22709
0.200611
0.170695
0.157842
0.13989
0.119829
0.112901
0.11678
0.118416
0.116097
0.108261
0.108062
0.112375
0.117364
0.117232
0.112709
0.10648
0.092376
0.0881825
0.0766198
0.0723637
0.0712951
0.0666363
0.0674821
0.0665358
0.0612584
0.0572461
0.0468101
0.0424306
0.042572
0.040754
0.0391916
0.0387531
0.0363953
0.0353241
0.0323478
0.0299782
0.030695
0.0323435
0.0381114
0.0543655
0.076184
0.10939
0.129267
0.125476
0.143361
0.115182
0.129432
0.0979088
0.128653
0.104934
0.151868
0.149346
0.21166
0.246194
0.365493
0.563491
1.37366
1.25843
1.12081
1.03823
0.954209
0.913313
0.857982
0.823214
0.776712
0.739388
0.689201
0.65037
0.605653
0.575224
0.545971
0.52733
0.515295
0.503775
0.496332
0.48388
0.471083
0.455572
0.438854
0.424811
0.412194
0.40557
0.402685
0.403412
0.403719
0.40496
0.404625
0.402517
0.394971
0.385762
0.370684
0.353363
0.336168
0.320135
0.303744
0.289375
0.2771
0.270614
0.270309
0.272668
0.277406
0.285872
0.306255
0.326247
0.339046
0.339721
0.33587
0.324537
0.302446
0.279035
0.248015
0.206784
0.172089
0.133877
0.0972359
0.0739753
0.058623
0.0476986
0.0424307
0.0397696
0.0394923
0.0402919
0.040638
0.0411251
0.0432816
0.0435832
0.0428977
0.0427411
0.0426573
0.0426947
0.0433549
0.0457149
0.0484444
0.0512148
0.055487
0.0673056
0.0860784
0.103033
0.115084
0.119234
0.11917
0.116935
0.111202
0.104703
0.0955576
0.083259
0.0682253
0.0604678
0.0509914
0.0435599
0.0395905
0.0390507
0.0394681
0.0409072
0.046021
0.049888
0.0556245
0.0632314
0.0653751
0.0697681
0.0764261
0.0835275
0.0891667
0.0919974
0.104703
0.133729
0.157863
0.228462
0.358384
0.402458
0.379416
0.299091
0.224587
0.175233
0.146005
0.13058
0.11701
0.101545
0.095142
0.0954878
0.0987485
0.117801
0.134457
0.134797
0.136773
0.190512
0.232194
0.194835
0.146138
0.152757
0.150035
0.168335
0.248054
0.324252
0.286824
0.283496
0.341874
0.353952
0.283069
0.229546
0.202872
0.17112
0.155411
0.139342
0.121785
0.112034
0.110933
0.115835
0.119695
0.116569
0.108365
0.107387
0.109809
0.111468
0.107485
0.105168
0.0950435
0.0882415
0.0819982
0.0733726
0.0731113
0.0695457
0.0667663
0.0686026
0.0630887
0.0546048
0.0506432
0.0431207
0.0418762
0.0427603
0.0413579
0.0418897
0.0384869
0.0336033
0.0343896
0.0324767
0.0334898
0.0322205
0.0326282
0.0386527
0.0546265
0.0747546
0.126557
0.133604
0.164747
0.15165
0.157248
0.142038
0.142074
0.136842
0.139499
0.147312
0.156153
0.197199
0.218402
0.396183
0.617942
0.578989
0.521246
0.48093
0.441858
0.427104
0.415251
0.410022
0.406796
0.396937
0.384117
0.359037
0.33261
0.303311
0.2766
0.256522
0.242259
0.23608
0.234342
0.234738
0.237235
0.23885
0.237812
0.230609
0.219541
0.209623
0.199543
0.194548
0.191928
0.189959
0.189427
0.188376
0.185595
0.181876
0.177454
0.167081
0.156411
0.146
0.137412
0.126893
0.12054
0.117095
0.113597
0.113753
0.114929
0.117649
0.122527
0.128434
0.135535
0.136522
0.135644
0.131819
0.122594
0.108793
0.0934023
0.0792703
0.0665054
0.0561863
0.0487078
0.0425477
0.0381712
0.0342236
0.0331455
0.0334107
0.0331166
0.0323916
0.0325031
0.032812
0.033376
0.0370178
0.0396691
0.0414755
0.0449676
0.0469509
0.0472831
0.0470606
0.0471474
0.0479153
0.0496624
0.0514246
0.0552336
0.0681106
0.0799688
0.0849342
0.0850954
0.0836784
0.0807505
0.0736075
0.0640207
0.0564199
0.0504408
0.0429862
0.0378738
0.0367871
0.0372386
0.038929
0.0439116
0.0535329
0.0707859
0.0787277
0.0928216
0.104257
0.107232
0.113557
0.112376
0.106008
0.105943
0.101918
0.103989
0.121697
0.134698
0.159251
0.248694
0.34663
0.355309
0.326546
0.265336
0.211695
0.176887
0.157694
0.137818
0.120741
0.116352
0.117393
0.122475
0.139339
0.142811
0.13428
0.134241
0.185879
0.208083
0.17656
0.147553
0.13755
0.137976
0.165657
0.232954
0.302834
0.279512
0.289348
0.380128
0.445327
0.362221
0.275772
0.249037
0.196679
0.157405
0.139459
0.124748
0.114843
0.109445
0.10943
0.115992
0.119908
0.115362
0.108216
0.108203
0.108445
0.106794
0.101569
0.0977591
0.0908241
0.0885492
0.0781531
0.0770397
0.0774196
0.070185
0.0674357
0.0651434
0.0546693
0.049142
0.0455373
0.0423059
0.0444863
0.0429084
0.0396336
0.0410102
0.0372634
0.034581
0.0310612
0.0311549
0.0358327
0.0376469
0.0444542
0.0572079
0.0681495
0.0989965
0.117656
0.138865
0.1456
0.14452
0.143431
0.136098
0.136191
0.131146
0.138435
0.137515
0.154598
0.158591
0.227263
0.172448
0.165547
0.154155
0.143904
0.134221
0.130626
0.13042
0.131073
0.134295
0.135637
0.13619
0.134804
0.12775
0.116891
0.105549
0.0964938
0.0894889
0.0860756
0.0846857
0.0845758
0.0855488
0.0877772
0.0897939
0.090996
0.0912015
0.0894305
0.0851523
0.0811432
0.0781014
0.0753202
0.0738936
0.0729377
0.0714852
0.0702344
0.0694121
0.067275
0.0652067
0.0626096
0.0600079
0.0575033
0.0551557
0.0540034
0.0522863
0.0517218
0.0517354
0.051897
0.0532318
0.0540551
0.0551174
0.0553727
0.0549416
0.0538194
0.0521962
0.0492352
0.0462582
0.0436185
0.0403454
0.0366805
0.0343767
0.0315279
0.0288262
0.0281649
0.0271109
0.0261413
0.0261977
0.0264899
0.0277301
0.0292074
0.0295902
0.0299974
0.0313071
0.0343228
0.0369944
0.0404833
0.0435829
0.0447503
0.0448212
0.0445961
0.0444818
0.0445909
0.0449347
0.0474948
0.0551782
0.0587297
0.059488
0.0590729
0.0572827
0.052756
0.0476405
0.0418416
0.0358931
0.033758
0.0341391
0.0359446
0.0412127
0.0525424
0.0771027
0.107848
0.131938
0.151057
0.170953
0.175776
0.17247
0.167487
0.156888
0.145088
0.14263
0.131895
0.116106
0.117482
0.121882
0.129443
0.154648
0.239079
0.303205
0.305042
0.28503
0.246194
0.216306
0.194196
0.174118
0.154871
0.143689
0.142088
0.144981
0.151082
0.148516
0.128016
0.12915
0.174151
0.186665
0.168611
0.145096
0.124469
0.126646
0.153936
0.188438
0.271761
0.270729
0.282394
0.37675
0.468716
0.471814
0.371758
0.354993
0.253641
0.161193
0.137645
0.12437
0.11683
0.109008
0.103097
0.104472
0.114137
0.11547
0.110932
0.105772
0.105608
0.105111
0.0994485
0.0968235
0.0915074
0.0919835
0.0880786
0.0797141
0.0834599
0.0811579
0.0691712
0.0662768
0.0562541
0.0469587
0.047739
0.0442788
0.0426107
0.0480898
0.043954
0.0405776
0.0367274
0.0347931
0.0356085
0.0384031
0.0422979
0.048722
0.0490033
0.0532154
0.0577361
0.0649932
0.0844911
0.0926421
0.118169
0.122218
0.133703
0.130569
0.133068
0.12845
0.132014
0.128676
0.135325
0.133198
0.149728
0.0513751
0.0504502
0.0487121
0.0469236
0.0458398
0.04576
0.0462425
0.0483521
0.0507968
0.0524306
0.0534207
0.0536051
0.0532991
0.0509428
0.0475025
0.0447833
0.0427128
0.0417043
0.041365
0.0414225
0.0427107
0.0449007
0.0468917
0.048248
0.048898
0.0489698
0.047873
0.046021
0.0442373
0.043039
0.0423513
0.0419856
0.0418348
0.0416293
0.0414772
0.0412525
0.0406335
0.0397313
0.0385211
0.0375958
0.036764
0.0362253
0.0356926
0.0355101
0.0355412
0.0356304
0.0357897
0.0364493
0.0366632
0.0366631
0.0367031
0.0365471
0.0358588
0.0352332
0.0339822
0.0322335
0.030854
0.0287015
0.0265777
0.0257391
0.0242116
0.022638
0.0224783
0.0225953
0.0229011
0.0232441
0.0238221
0.0248303
0.0257805
0.0263327
0.0266009
0.0269582
0.0285053
0.0310936
0.0339459
0.0361683
0.0373061
0.037713
0.0378758
0.0378616
0.0378011
0.0383044
0.0399645
0.0404233
0.0402613
0.0393741
0.0367073
0.0339417
0.0310409
0.0301593
0.0305565
0.0321154
0.036869
0.048737
0.074219
0.117857
0.172926
0.219763
0.246336
0.269426
0.273958
0.269466
0.253669
0.239209
0.209006
0.183082
0.177505
0.167021
0.137414
0.122077
0.112435
0.10934
0.113381
0.137415
0.211171
0.266688
0.268044
0.253961
0.233695
0.214317
0.196072
0.175924
0.161701
0.156265
0.156896
0.157444
0.143748
0.115888
0.118885
0.155497
0.167481
0.163142
0.131681
0.114177
0.119345
0.13139
0.153638
0.225624
0.23781
0.251005
0.338726
0.455523
0.496493
0.489542
0.494293
0.339263
0.169435
0.132243
0.118345
0.113718
0.10559
0.0990751
0.101123
0.110712
0.11691
0.115005
0.107843
0.104127
0.103086
0.0988498
0.0946242
0.0911894
0.0892162
0.091241
0.0859343
0.0813634
0.0849361
0.0768332
0.0630392
0.0620523
0.0507874
0.045801
0.0516209
0.0475521
0.0474439
0.0459323
0.0414375
0.0456604
0.0440358
0.044957
0.0464668
0.0446472
0.0458615
0.0459966
0.0471231
0.0502852
0.0537042
0.0641451
0.0689197
0.0847607
0.0902375
0.108726
0.112503
0.12451
0.122395
0.126143
0.122323
0.123241
0.118702
0.120238
0.0226474
0.0225557
0.0223949
0.0223139
0.0223235
0.0226584
0.0240878
0.0260505
0.0280885
0.0296281
0.0306259
0.0309692
0.0309555
0.0304633
0.0294718
0.0287699
0.0283485
0.028163
0.0282774
0.0295142
0.0315689
0.033305
0.0345002
0.0352071
0.0353972
0.0352024
0.0341925
0.0331173
0.0323527
0.0318062
0.0315201
0.0314201
0.0313185
0.0312552
0.0311953
0.0310654
0.0306425
0.0301218
0.0295675
0.0291162
0.0287329
0.0285625
0.0285355
0.0285497
0.028598
0.028785
0.0289398
0.0290717
0.0293775
0.0294684
0.0294417
0.0293344
0.02912
0.0284033
0.0278155
0.0268403
0.025024
0.0240796
0.0226408
0.0210475
0.0201517
0.0196012
0.0195029
0.0196305
0.0199658
0.0208674
0.0217372
0.0224901
0.0232025
0.0240198
0.0243685
0.0243081
0.0242762
0.0254965
0.0296685
0.032128
0.0331294
0.0333982
0.0333993
0.0330944
0.0328118
0.0326478
0.0324146
0.0320472
0.0312229
0.0299084
0.0280901
0.0274279
0.0277475
0.0289069
0.0323544
0.0417807
0.0644057
0.111015
0.189639
0.272133
0.314465
0.329531
0.331077
0.328657
0.322046
0.307713
0.291299
0.279412
0.258756
0.220268
0.204703
0.186933
0.153977
0.127397
0.112714
0.100177
0.0972222
0.101885
0.13092
0.186661
0.226325
0.234438
0.229325
0.215928
0.197571
0.178477
0.166901
0.162264
0.160762
0.156864
0.124763
0.100657
0.104489
0.140054
0.156167
0.152253
0.119994
0.104939
0.105543
0.113084
0.12918
0.169343
0.174746
0.192674
0.249524
0.379793
0.49005
0.585233
0.649162
0.460962
0.197971
0.131228
0.108468
0.100867
0.097339
0.0975142
0.101349
0.109892
0.117001
0.116388
0.111012
0.105182
0.101758
0.0983498
0.091151
0.0900741
0.0836865
0.0872466
0.0874852
0.0786278
0.0798521
0.0764271
0.062508
0.0614284
0.0595366
0.0499684
0.0562205
0.0526205
0.0485341
0.0592514
0.0568076
0.0590812
0.0591787
0.0529164
0.051578
0.0467613
0.0459145
0.0450072
0.0452124
0.0461781
0.0482907
0.0533501
0.0567332
0.0659698
0.0701869
0.0830625
0.0870416
0.101443
0.104035
0.110053
0.108476
0.108713
0.106666
0.10628
0.0128931
0.0126522
0.0124875
0.012386
0.0123649
0.0123603
0.0126027
0.0137951
0.0153871
0.0168308
0.0178023
0.0185066
0.0187946
0.0189402
0.0190186
0.0191377
0.0195733
0.0202827
0.0212871
0.0223067
0.0233351
0.0241908
0.02482
0.025168
0.0252882
0.0252908
0.0251462
0.0249902
0.0248975
0.0248786
0.0251155
0.0256076
0.0260439
0.0263488
0.0264899
0.0265556
0.0265465
0.0263719
0.0260627
0.0256915
0.0253292
0.0249968
0.0246892
0.0245843
0.024583
0.024613
0.0246254
0.0247541
0.0250795
0.0251409
0.0251227
0.0250315
0.0247529
0.0241852
0.0229144
0.021548
0.0202506
0.0190352
0.0181828
0.0177091
0.0177093
0.0178241
0.0180442
0.0187175
0.0192208
0.0198886
0.0206918
0.021665
0.0223474
0.0227066
0.0227805
0.0226066
0.0223077
0.0222309
0.0225011
0.0250713
0.0280162
0.0295586
0.0299639
0.0299831
0.0298979
0.0296881
0.0291194
0.02822
0.0261915
0.0252814
0.0254739
0.0262396
0.0285762
0.0349094
0.0506216
0.0883148
0.167159
0.290113
0.347627
0.368601
0.366213
0.357352
0.350704
0.338098
0.322501
0.309934
0.292242
0.276915
0.265839
0.240099
0.210672
0.198784
0.175111
0.137283
0.116104
0.0995803
0.088057
0.0868406
0.0932263
0.113568
0.15547
0.181947
0.191357
0.189759
0.183402
0.170199
0.16192
0.158251
0.154141
0.138628
0.0985713
0.0840668
0.0912998
0.129816
0.146303
0.142065
0.113505
0.0980664
0.0945658
0.0969396
0.11057
0.120775
0.1245
0.138042
0.164889
0.251709
0.442172
0.608572
0.802339
0.590852
0.244897
0.139441
0.108123
0.0989378
0.0968928
0.0994483
0.107423
0.11386
0.117776
0.121001
0.115611
0.108628
0.101856
0.0979607
0.0904533
0.0871762
0.0837577
0.077235
0.0835306
0.0783783
0.0664978
0.0701983
0.0607796
0.0533701
0.0713699
0.0574351
0.0523699
0.0695737
0.0638441
0.0710996
0.0732892
0.067282
0.0691522
0.0626825
0.0614745
0.0525825
0.0506308
0.0463543
0.0466454
0.0465533
0.0482411
0.0495141
0.0517528
0.0563327
0.0592905
0.066985
0.0697071
0.0780978
0.0805466
0.0859709
0.0869804
0.090403
0.0910698
0.0912626
0.00581162
0.00581385
0.0058272
0.00587812
0.00600571
0.00609968
0.00617259
0.00645992
0.00733785
0.00841001
0.00939773
0.0105593
0.011361
0.0122805
0.0129467
0.0137973
0.0149563
0.0162175
0.0179608
0.0193658
0.0207709
0.0216718
0.0221908
0.022436
0.0224244
0.022251
0.0218738
0.0215203
0.0213593
0.0212209
0.0211786
0.0211591
0.021094
0.0210444
0.0209443
0.0205993
0.0201141
0.0196739
0.0195015
0.0194481
0.019462
0.0195787
0.0196813
0.0199335
0.0200337
0.0202157
0.0202887
0.0202607
0.0201781
0.0199564
0.0197301
0.0191921
0.0184467
0.0176646
0.0170576
0.0168272
0.0167131
0.0167297
0.0168365
0.0170879
0.0174121
0.0181958
0.0187901
0.0194286
0.0204369
0.0211795
0.0215616
0.0220339
0.0221719
0.0221223
0.0220627
0.0219206
0.0212869
0.0203676
0.0199714
0.019959
0.0200539
0.0213302
0.0233203
0.024027
0.0240595
0.0239437
0.0232243
0.0230417
0.0232736
0.0239479
0.0256885
0.0297727
0.0396788
0.062965
0.116595
0.246615
0.353252
0.396989
0.399604
0.392596
0.37407
0.353352
0.334768
0.309631
0.284597
0.265441
0.257455
0.256765
0.254876
0.24018
0.21757
0.205759
0.180305
0.146782
0.119287
0.0993598
0.0855517
0.0778642
0.078062
0.0822015
0.0957921
0.109443
0.123119
0.135033
0.141082
0.142561
0.142877
0.141899
0.136982
0.106257
0.0769986
0.0714269
0.0859155
0.122809
0.136143
0.133153
0.109078
0.0915051
0.0857267
0.0873006
0.094651
0.0998431
0.107093
0.123446
0.145432
0.176978
0.342276
0.611468
0.924831
0.71307
0.320338
0.174059
0.123271
0.108023
0.104277
0.107637
0.114219
0.114115
0.120124
0.128029
0.118982
0.114216
0.105486
0.0982022
0.0909908
0.0850508
0.084154
0.0766411
0.0736058
0.0740373
0.0626894
0.0605511
0.0608547
0.0539335
0.0576704
0.0713462
0.0627218
0.0798921
0.0778764
0.0705125
0.0739621
0.0684784
0.0724278
0.066391
0.0696656
0.06156
0.0601238
0.0519223
0.0514098
0.0486412
0.0496235
0.0496165
0.0500932
0.0520719
0.0536676
0.0586462
0.0599112
0.0635261
0.0651219
0.069003
0.0699642
0.0723334
0.0732548
0.0753919
0.00521684
0.00529977
0.00540366
0.00549408
0.00561393
0.00589506
0.00652919
0.00731442
0.00803408
0.00900584
0.00970711
0.0105353
0.0111047
0.0115762
0.0121834
0.0127408
0.0137509
0.0146611
0.0157419
0.0166
0.017136
0.0174773
0.0175343
0.0175166
0.0172629
0.016825
0.0166234
0.0163841
0.0162859
0.0161379
0.0157068
0.0152097
0.0146044
0.0141804
0.0138996
0.0138046
0.0138045
0.0138561
0.0139055
0.0139864
0.0141594
0.0144168
0.0146317
0.0148508
0.0150489
0.0151501
0.0152045
0.0152424
0.0152655
0.0153194
0.0153701
0.0154328
0.0155384
0.0157021
0.0159986
0.0165714
0.017226
0.0180513
0.0195876
0.0214848
0.0231735
0.0257375
0.0281998
0.0297737
0.0316332
0.0328971
0.0329247
0.0325558
0.0315684
0.0303062
0.0284887
0.0267824
0.0248183
0.0228565
0.0212281
0.0200759
0.0197459
0.0196712
0.0196624
0.019749
0.0198922
0.0202259
0.0211188
0.0222531
0.0243441
0.0273076
0.0331929
0.046278
0.0797843
0.155531
0.321908
0.402362
0.426826
0.423783
0.408503
0.373909
0.333981
0.316366
0.300731
0.284874
0.265569
0.245782
0.238513
0.23862
0.237943
0.233067
0.218938
0.20569
0.179882
0.147281
0.119116
0.0997382
0.0856326
0.07666
0.0718378
0.0716146
0.0731304
0.0766329
0.0859353
0.09987
0.110184
0.116096
0.116863
0.115342
0.10253
0.0726832
0.0606581
0.0616818
0.0862503
0.116063
0.125734
0.123302
0.102162
0.0847669
0.078451
0.0775886
0.0803968
0.0905034
0.099934
0.117798
0.138194
0.167109
0.256022
0.591781
0.960469
0.868473
0.461826
0.249682
0.165049
0.133772
0.12003
0.114283
0.114623
0.113894
0.125244
0.135994
0.130598
0.117367
0.112011
0.0996386
0.0951444
0.086033
0.0844132
0.0784645
0.0712622
0.0721555
0.0635519
0.0569076
0.0717381
0.0599576
0.0582179
0.0889898
0.0849189
0.0771368
0.0840478
0.0733557
0.0784312
0.0721031
0.0792461
0.0735511
0.079892
0.0735424
0.0733904
0.0645237
0.0634595
0.0564667
0.0541814
0.0512752
0.0506821
0.0510679
0.0509304
0.0516475
0.0536144
0.0569039
0.05731
0.0576777
0.0574473
0.0575675
0.058166
0.0599608
0.00489261
0.0053408
0.00590374
0.00646613
0.00695425
0.00746502
0.00782727
0.00827568
0.00856227
0.00885401
0.0090511
0.0092308
0.00942105
0.00952807
0.00965446
0.00978496
0.00998869
0.0102412
0.0104847
0.0107231
0.0108983
0.0110417
0.0111398
0.0111993
0.0112231
0.0112206
0.0111961
0.0111664
0.011156
0.0111617
0.0112442
0.0113789
0.0114746
0.011534
0.0116214
0.0119279
0.0123454
0.0126684
0.0128766
0.0130875
0.013186
0.0133224
0.0134607
0.0135605
0.0137721
0.0139143
0.0141236
0.0144777
0.0147443
0.0153155
0.0158525
0.0165916
0.0179023
0.0189094
0.0210508
0.0232456
0.0260403
0.0304453
0.0348613
0.0405147
0.046995
0.0527347
0.0575983
0.0629004
0.0653316
0.0651057
0.0638607
0.0612541
0.0564894
0.0504519
0.0445561
0.0393128
0.0342743
0.0295777
0.0258813
0.0230762
0.0215954
0.0213259
0.0213567
0.0216683
0.0229412
0.0240358
0.026197
0.0291029
0.0324241
0.0393373
0.0548124
0.0977473
0.215607
0.372071
0.436476
0.44621
0.436295
0.400618
0.335232
0.316714
0.313804
0.310833
0.308313
0.301354
0.280504
0.259963
0.247209
0.240648
0.236127
0.229915
0.2179
0.202744
0.178811
0.146942
0.119296
0.101032
0.0870284
0.0784626
0.0731292
0.0698997
0.0691923
0.0694591
0.0726972
0.0822627
0.0878961
0.0902454
0.0903741
0.0873988
0.0685322
0.0538192
0.0513792
0.0612304
0.0944081
0.115163
0.120975
0.117822
0.096994
0.0804968
0.0733577
0.071701
0.0741659
0.0875365
0.0986942
0.116867
0.136656
0.165253
0.222522
0.507977
0.960456
1.05507
0.710134
0.395324
0.244189
0.178286
0.136751
0.114344
0.109025
0.112757
0.127296
0.138661
0.138583
0.128555
0.12605
0.107204
0.103201
0.0910429
0.0866702
0.0826802
0.072746
0.072761
0.0687877
0.0607816
0.0665584
0.0946703
0.0757956
0.0811755
0.0974223
0.0818797
0.0895677
0.0797898
0.0831293
0.0771134
0.0827309
0.0777998
0.0815714
0.0794764
0.080791
0.0763787
0.0739859
0.0665345
0.0641762
0.0586041
0.053608
0.0523406
0.0508834
0.0502694
0.0507601
0.0522722
0.0526771
0.0517612
0.0509605
0.0510063
0.0510864
0.0498532
0.00439588
0.00429142
0.00421098
0.00419391
0.00428524
0.00446757
0.00492524
0.00524332
0.00570198
0.00662048
0.00704469
0.00794814
0.00850044
0.00903797
0.00950581
0.00964338
0.00992658
0.0100501
0.0102225
0.0104111
0.0105093
0.0109255
0.0111303
0.0114369
0.0116803
0.0117531
0.0119083
0.0119016
0.0119103
0.0121793
0.0127723
0.0140494
0.0148086
0.0155654
0.0161249
0.0162794
0.0165326
0.0165723
0.0166075
0.0167077
0.0167873
0.0170232
0.017526
0.0182032
0.0196636
0.020459
0.0219824
0.0235061
0.0246365
0.0271451
0.0288627
0.0320121
0.0355684
0.0397093
0.0465683
0.052443
0.0632549
0.0735294
0.0847304
0.100339
0.112261
0.123005
0.134964
0.13952
0.138901
0.135814
0.128546
0.117209
0.103093
0.0882196
0.0744883
0.0623778
0.0524563
0.0435624
0.0361024
0.0312981
0.0278582
0.0257685
0.0255229
0.025755
0.0264782
0.0282874
0.030821
0.0353708
0.0444589
0.0667008
0.123408
0.291298
0.416774
0.461279
0.45663
0.420464
0.333447
0.285987
0.285494
0.29628
0.314473
0.32384
0.323575
0.315492
0.29043
0.267128
0.252328
0.242823
0.236306
0.226655
0.213668
0.202477
0.179078
0.146659
0.120984
0.106927
0.0943509
0.0839078
0.0773522
0.0731974
0.0690733
0.066501
0.0664155
0.0668575
0.0674258
0.0683774
0.067887
0.0591258
0.0484164
0.0453575
0.049512
0.0826525
0.108293
0.115589
0.115487
0.103833
0.0839652
0.072029
0.0673842
0.0668265
0.0708952
0.0907362
0.112183
0.129893
0.149162
0.170415
0.207607
0.370794
0.900304
1.20568
1.04943
0.665103
0.39181
0.262126
0.163715
0.113546
0.105583
0.107656
0.125314
0.138451
0.13976
0.137068
0.134391
0.120593
0.114622
0.105717
0.0948575
0.0889467
0.08199
0.0784438
0.0775178
0.0697845
0.0684233
0.112729
0.140755
0.0957682
0.108242
0.0877731
0.0907044
0.0817379
0.0844946
0.0791506
0.0828015
0.0794989
0.0806647
0.0797638
0.0802147
0.0803772
0.0780335
0.074751
0.0730103
0.0700446
0.0633549
0.0568329
0.0540229
0.0518096
0.0508001
0.0507104
0.051632
0.051364
0.0511298
0.0498615
0.0485922
0.0472478
0.033729
0.0329274
0.0317201
0.0298343
0.0289076
0.0283665
0.0285239
0.0291877
0.0299758
0.0327022
0.0338313
0.0359096
0.0369596
0.038002
0.039144
0.039243
0.0397141
0.0399997
0.0406126
0.0415058
0.0416775
0.0425365
0.0427316
0.0429454
0.0431119
0.042999
0.0432017
0.0431515
0.0432269
0.0438518
0.0446763
0.0471847
0.0484464
0.0497758
0.0508039
0.0510537
0.0515827
0.051745
0.0519383
0.0525231
0.0529459
0.0539851
0.0555635
0.0572683
0.0600409
0.0616555
0.0649668
0.0678687
0.0708818
0.0767567
0.081068
0.0893066
0.098567
0.10915
0.124949
0.142077
0.16346
0.185641
0.213225
0.237705
0.257528
0.278748
0.289431
0.288978
0.283954
0.27093
0.248997
0.221653
0.191821
0.161058
0.131065
0.106476