/*--------------------------------*- C++ -*----------------------------------*\
| =========                 |                                                 |
| \\      /  F ield         | OpenFOAM: The Open Source CFD Toolbox           |
|  \\    /   O peration     | Version:  2.4.0                                 |
|   \\  /    A nd           | Web:      www.OpenFOAM.org                      |
|    \\/     M anipulation  |                                                 |
\*---------------------------------------------------------------------------*/
FoamFile
{
    version     2.0;
    format      ascii;
    class       volScalarField;
    location    "0.7";
    object      nuSgs;
}
// * * * * * * * * * * * * * * * * * * * * * * * * * * * * * * * * * * * * * //

dimensions      [0 2 -1 0 0 0 0];

internalField   nonuniform List<scalar> 
8800
(
0.00134454
0.00150375
0.00139597
0.00121942
0.00112896
0.00103677
0.00100982
0.000945928
0.000936962
0.000894731
0.000894652
0.000858412
0.000863397
0.000832425
0.000839528
0.0008074
0.000817731
0.00078368
0.000801831
0.00074432
0.000572433
0.000975979
0.00108894
0.00107674
0.0010644
0.00102248
0.00100983
0.000968239
0.000956706
0.000924186
0.000917559
0.000888181
0.000886099
0.000864987
0.000862967
0.000844458
0.000844339
0.000828509
0.000824711
0.000820729
0.000141357
0.000390345
0.000603221
0.000645124
0.000716055
0.00072743
0.000753391
0.000755569
0.000760207
0.000754701
0.000755843
0.000751295
0.00074857
0.00074004
0.000738693
0.000734521
0.000729405
0.000727803
0.000720622
0.000722107
2.86826e-05
0.000121928
0.000254093
0.000293741
0.000362909
0.000392731
0.000420688
0.000458536
0.000476022
0.000489837
0.000505369
0.00052912
0.000532959
0.000538669
0.000544005
0.000555502
0.000555972
0.000563276
0.000566715
0.000571038
5.39579e-06
3.27066e-05
8.30382e-05
0.000102118
0.000139822
0.000167272
0.000182136
0.000214309
0.000237131
0.0002477
0.000260383
0.000296152
0.000306684
0.000315563
0.00032199
0.000340449
0.000344458
0.000353226
0.000360248
0.000378595
2.79812e-06
8.89102e-06
2.35255e-05
2.94531e-05
4.34614e-05
5.46538e-05
6.13257e-05
7.53786e-05
9.50269e-05
0.000100885
0.000107215
0.000127283
0.000140641
0.000147309
0.000152709
0.000167949
0.000172708
0.000177846
0.000183277
0.00019782
2.20148e-06
4.13389e-06
9.19747e-06
1.18958e-05
1.66921e-05
1.97467e-05
2.22e-05
2.68234e-05
3.86223e-05
4.99916e-05
5.4833e-05
6.4331e-05
7.26846e-05
7.61026e-05
7.79477e-05
8.29808e-05
8.90175e-05
9.60958e-05
0.000102213
0.000107029
2.16942e-06
3.67849e-06
5.48238e-06
8.17401e-06
1.09668e-05
1.09757e-05
1.13636e-05
1.27918e-05
2.07622e-05
2.70914e-05
2.92686e-05
3.33393e-05
4.27409e-05
4.83842e-05
5.03634e-05
5.45294e-05
6.11373e-05
6.56545e-05
6.78196e-05
7.05441e-05
2.11939e-06
2.8691e-06
3.84303e-06
5.08096e-06
1.02028e-05
1.07782e-05
1.01989e-05
1.04313e-05
1.18552e-05
1.58272e-05
1.65795e-05
1.73662e-05
2.22872e-05
2.82905e-05
3.06452e-05
3.44677e-05
4.20555e-05
5.08438e-05
5.36414e-05
5.36229e-05
2.12171e-06
3.43598e-06
3.60313e-06
3.54147e-06
4.7179e-06
8.48621e-06
9.20095e-06
9.45534e-06
1.0456e-05
1.05902e-05
1.02327e-05
1.05539e-05
1.28671e-05
1.7072e-05
2.04174e-05
2.69079e-05
3.3893e-05
3.58815e-05
3.57776e-05
3.5824e-05
2.13187e-06
2.95203e-06
3.19563e-06
3.19107e-06
4.98654e-06
7.16056e-06
7.53983e-06
8.2592e-06
8.86258e-06
9.1509e-06
9.64693e-06
1.01088e-05
1.22391e-05
1.78395e-05
2.09891e-05
2.36044e-05
2.52245e-05
2.81808e-05
3.08952e-05
3.28331e-05
2.16428e-06
2.44291e-06
2.79463e-06
4.46902e-06
7.12673e-06
7.14085e-06
6.22274e-06
5.52307e-06
5.46945e-06
5.64147e-06
6.192e-06
8.16438e-06
1.35113e-05
1.56307e-05
1.61663e-05
1.72943e-05
1.95493e-05
2.17285e-05
2.3723e-05
2.72304e-05
2.22301e-06
2.43475e-06
2.90187e-06
6.16299e-06
7.28815e-06
7.03394e-06
7.63306e-06
7.79341e-06
7.57727e-06
8.48326e-06
9.20831e-06
9.54174e-06
1.09019e-05
1.51529e-05
1.71255e-05
2.10933e-05
2.50692e-05
2.7781e-05
2.92182e-05
3.17236e-05
2.21505e-06
3.00947e-06
5.18539e-06
1.29333e-05
1.7286e-05
1.82179e-05
2.38017e-05
2.48069e-05
2.44882e-05
2.84017e-05
3.01602e-05
3.2217e-05
3.83488e-05
5.16742e-05
5.58712e-05
6.47823e-05
7.21511e-05
7.83466e-05
8.10611e-05
8.76784e-05
2.3787e-06
7.89856e-06
1.77485e-05
4.07599e-05
5.39137e-05
5.79263e-05
7.44233e-05
8.00531e-05
8.25622e-05
9.61487e-05
0.000102983
0.000109114
0.000124151
0.000144947
0.000150728
0.000165666
0.000175735
0.000187459
0.000192526
0.000207143
5.2274e-06
3.21311e-05
6.71113e-05
0.000125629
0.00015526
0.00016587
0.000199839
0.000215611
0.000222595
0.000247645
0.000258441
0.000269526
0.000292307
0.000315682
0.000322346
0.000340902
0.000349252
0.000363082
0.000369401
0.000388141
2.6854e-05
0.000121886
0.000224124
0.00033005
0.00037049
0.000387548
0.000435817
0.00045225
0.000461828
0.000488071
0.00049899
0.000509991
0.000529836
0.000542062
0.000545596
0.000555516
0.000558916
0.000565426
0.000568561
0.000578285
0.000134552
0.000395844
0.000586362
0.000672592
0.000709684
0.000727656
0.000756502
0.000753995
0.000754977
0.00075305
0.000752748
0.000747416
0.000747229
0.00074225
0.00073884
0.000730688
0.000728743
0.000723184
0.000721173
0.00071734
0.000550272
0.000980525
0.00108824
0.0010841
0.00106198
0.00103261
0.000997944
0.000969995
0.000954649
0.000919446
0.000912688
0.000891445
0.000882391
0.000862237
0.000857194
0.00083854
0.000834182
0.000818259
0.000812098
0.00079715
0.00133625
0.00150734
0.00139749
0.001224
0.00111844
0.00105163
0.000991806
0.000954115
0.000930821
0.000896052
0.000887304
0.000861572
0.000855084
0.000830691
0.000825723
0.000802782
0.000796402
0.000770486
0.000760281
0.00072601
0.00033028
0.000290585
0.000263147
0.000248808
0.000234113
0.00022976
0.000220955
0.00021879
0.000213421
0.000211575
0.000205928
0.000204526
0.000199673
0.000198954
0.000195179
0.000194934
0.000191885
0.000191855
0.00018946
0.000189656
0.000187457
0.000187414
0.000184365
0.000183192
0.00017791
0.000175819
0.000169688
0.000168393
0.000165247
0.000165839
0.000165346
0.000167515
0.000168992
0.000174725
0.000177441
0.000183515
0.000185396
0.000190021
0.000191218
0.000193585
0.000193175
0.000192294
0.000187926
0.000173387
0.000155992
0.000142588
0.000132527
0.000126903
0.000123382
0.000122359
0.000121325
0.000121301
0.000121341
0.000120271
0.000119342
0.000116797
0.000114564
0.000115014
0.000115699
0.000114969
0.000113259
0.000111178
0.000105244
9.69032e-05
8.57371e-05
7.5605e-05
7.39733e-05
7.35475e-05
7.23867e-05
6.96048e-05
6.66826e-05
6.6504e-05
6.77842e-05
7.0953e-05
7.69639e-05
9.04381e-05
0.000103525
0.000111437
0.000114482
0.000114545
0.000113525
0.000110629
0.000104633
9.95289e-05
9.50393e-05
9.01633e-05
8.80099e-05
8.75916e-05
8.76223e-05
8.71979e-05
8.61138e-05
8.37349e-05
8.04628e-05
7.59217e-05
7.13009e-05
6.67659e-05
6.49863e-05
6.29002e-05
6.05275e-05
6.0212e-05
5.96847e-05
5.93023e-05
5.96985e-05
6.03301e-05
6.1995e-05
6.69296e-05
7.14325e-05
8.30393e-05
9.4759e-05
0.000107547
0.000143299
0.000172266
0.000178013
0.000170569
0.000153436
0.000134361
0.000115505
9.83545e-05
8.52527e-05
7.77161e-05
7.44085e-05
7.15434e-05
6.86217e-05
6.79821e-05
6.81938e-05
6.92341e-05
7.51001e-05
8.41079e-05
9.04284e-05
0.000102927
0.000133504
0.000135484
0.000110025
9.26684e-05
0.000102918
0.000110912
0.000116228
0.000127277
0.000131115
0.00012123
0.000119415
0.000119751
0.000118856
0.000121515
0.00011814
0.000111875
0.000106175
0.000100244
9.37184e-05
9.15446e-05
8.90541e-05
8.56725e-05
8.47997e-05
8.64552e-05
9.17956e-05
9.64604e-05
9.67775e-05
9.38188e-05
8.89877e-05
8.26172e-05
7.83559e-05
7.14314e-05
6.87684e-05
6.62452e-05
6.54629e-05
6.60316e-05
6.55908e-05
6.46104e-05
6.37063e-05
5.9395e-05
5.58999e-05
5.38009e-05
5.25838e-05
5.22996e-05
5.15882e-05
4.98428e-05
4.75608e-05
4.78592e-05
4.74793e-05
4.78615e-05
4.94578e-05
5.58296e-05
7.32024e-05
8.86638e-05
9.80123e-05
9.69433e-05
9.36671e-05
8.2414e-05
6.72931e-05
6.04851e-05
5.33065e-05
5.41814e-05
5.31254e-05
5.69153e-05
6.38632e-05
6.83792e-05
9.52787e-05
0.000110489
0.000142522
0.000198455
0.000412517
0.000373712
0.000337195
0.000318709
0.000295709
0.000286911
0.000270572
0.000265077
0.000253043
0.000249068
0.000240029
0.000237399
0.000230766
0.000229066
0.00022387
0.000222503
0.000217982
0.000216764
0.000212926
0.000212049
0.000209262
0.00020893
0.000207211
0.000207149
0.000205808
0.000205339
0.000203377
0.000201992
0.000198554
0.000196574
0.000192766
0.000191191
0.000188185
0.000187368
0.00018556
0.000184893
0.000183268
0.00018288
0.000183154
0.000184521
0.000187551
0.000193771
0.00019911
0.000199707
0.000198201
0.000194279
0.000184271
0.000171407
0.000160234
0.000150972
0.00014389
0.000136968
0.000132355
0.000130171
0.000127525
0.000126529
0.000125672
0.000123225
0.000120762
0.000116502
0.000110721
0.000105239
9.14806e-05
7.59748e-05
6.81168e-05
6.38281e-05
6.24596e-05
6.22838e-05
6.15014e-05
6.04842e-05
5.96586e-05
5.93499e-05
5.98587e-05
6.22074e-05
6.44682e-05
6.76061e-05
7.36647e-05
8.72994e-05
0.000100008
0.000106858
0.000108852
0.00010941
0.00010935
0.000108354
0.000105996
0.000102695
9.93956e-05
9.63749e-05
9.37329e-05
9.04423e-05
8.72632e-05
8.30464e-05
7.68949e-05
7.05105e-05
6.64569e-05
6.25559e-05
5.92961e-05
5.6077e-05
5.45126e-05
5.46174e-05
5.50933e-05
5.55306e-05
5.64791e-05
5.7774e-05
6.01436e-05
6.57952e-05
7.02093e-05
8.15354e-05
9.48869e-05
0.000104223
0.000123281
0.000163846
0.000175721
0.000172997
0.000155568
0.000134565
0.000115719
0.000100052
8.90229e-05
8.29905e-05
7.94655e-05
7.55281e-05
7.18781e-05
7.09814e-05
7.12044e-05
7.27347e-05
8.08081e-05
8.90209e-05
9.31167e-05
0.000105933
0.000131086
0.000129219
0.000102195
9.61467e-05
0.000105701
0.000109114
0.000121661
0.000141051
0.000138002
0.000128873
0.000131499
0.000134181
0.000128279
0.000123453
0.000118073
0.000110316
0.000104779
9.79294e-05
9.01308e-05
8.93648e-05
8.98262e-05
8.82374e-05
8.52574e-05
8.46533e-05
8.59685e-05
8.94209e-05
9.24503e-05
9.16113e-05
8.92053e-05
8.33864e-05
7.90419e-05
7.50585e-05
6.95142e-05
6.86973e-05
6.66236e-05
6.60974e-05
6.69035e-05
6.5248e-05
6.41823e-05
6.012e-05
5.56607e-05
5.42609e-05
5.26333e-05
5.10164e-05
5.1125e-05
5.05706e-05
4.88436e-05
4.6839e-05
4.58921e-05
4.61646e-05
4.70531e-05
4.9316e-05
5.57339e-05
7.10246e-05
8.52281e-05
9.54978e-05
9.39737e-05
9.23605e-05
8.37665e-05
6.87885e-05
6.13164e-05
5.55488e-05
6.09404e-05
5.99202e-05
8.26326e-05
8.13659e-05
0.000125516
0.000128902
0.00019221
0.000200627
0.000375745
0.000353426
0.000327708
0.000312569
0.000295363
0.000286898
0.000273684
0.000267732
0.000256503
0.000251384
0.000241585
0.000237639
0.000229821
0.000226882
0.000221075
0.000218872
0.000214578
0.000212514
0.000208958
0.000206254
0.000203243
0.000201053
0.000198902
0.000197928
0.000197077
0.000196959
0.00019692
0.000196916
0.000196337
0.000195603
0.000193664
0.000192097
0.00018934
0.000186981
0.000183732
0.000180609
0.000177524
0.000174721
0.000172877
0.000171195
0.000170233
0.00017028
0.00017076
0.000172393
0.000176274
0.000180984
0.000180838
0.000179422
0.000176074
0.000171037
0.000165497
0.000159976
0.000155027
0.000148734
0.000143214
0.000137941
0.000130786
0.000124781
0.000116474
0.000106317
9.32962e-05
7.76477e-05
6.64503e-05
5.94487e-05
5.69054e-05
5.70115e-05
5.69202e-05
5.69778e-05
5.68372e-05
5.56114e-05
5.47129e-05
5.44421e-05
5.4293e-05
5.46853e-05
5.73685e-05
5.96045e-05
6.14823e-05
6.46244e-05
7.37551e-05
8.5127e-05
9.39167e-05
9.86207e-05
0.000100865
0.000101547
0.000101201
0.000100139
9.86756e-05
9.51201e-05
9.17219e-05
8.85708e-05
8.24164e-05
7.57028e-05
6.85585e-05
6.40307e-05
5.86971e-05
5.4392e-05
5.24275e-05
5.22568e-05
5.26241e-05
5.33308e-05
5.44641e-05
5.55596e-05
5.78349e-05
6.01005e-05
6.19919e-05
6.72411e-05
7.10773e-05
7.59923e-05
8.84621e-05
9.83728e-05
0.000110659
0.000145649
0.000168684
0.000170436
0.00015988
0.000136509
0.000117666
0.000103782
9.41194e-05
8.85999e-05
8.48003e-05
7.94723e-05
7.52875e-05
7.4454e-05
7.49019e-05
7.78077e-05
8.7744e-05
9.2624e-05
9.44103e-05
0.000107351
0.000127898
0.00012303
9.90702e-05
9.9045e-05
0.00010618
0.000107082
0.000126063
0.000146326
0.000138913
0.000134389
0.000142497
0.000143935
0.000131512
0.000122749
0.00011568
0.000106728
0.000102151
9.64374e-05
8.93126e-05
8.62754e-05
8.73505e-05
8.8317e-05
8.79678e-05
8.47178e-05
8.41452e-05
8.54691e-05
8.77824e-05
8.80408e-05
8.70716e-05
8.46474e-05
7.89027e-05
7.70175e-05
7.16294e-05
6.95196e-05
6.89397e-05
6.66585e-05
6.7215e-05
6.67502e-05
6.45271e-05
6.27588e-05
5.68008e-05
5.35812e-05
5.34497e-05
5.22262e-05
5.11018e-05
5.08905e-05
4.95744e-05
4.88201e-05
4.66552e-05
4.48078e-05
4.52084e-05
4.62819e-05
4.99133e-05
5.87201e-05
6.89963e-05
8.43054e-05
9.24324e-05
9.13602e-05
9.75229e-05
8.80094e-05
9.26264e-05
8.0473e-05
9.15809e-05
8.25554e-05
9.96835e-05
9.87311e-05
0.00011803
0.000126616
0.000154073
0.000192407
0.000301653
0.000288883
0.000272595
0.000262213
0.000251147
0.000245493
0.000238075
0.000233278
0.000226867
0.000221683
0.000214253
0.000208241
0.000200871
0.000195484
0.000190192
0.000186453
0.000184161
0.000181978
0.000180752
0.000178745
0.000176591
0.000173949
0.000170811
0.000168067
0.000165395
0.000163823
0.000162992
0.000163065
0.000163095
0.000163354
0.00016333
0.000163042
0.000161798
0.000160016
0.000157132
0.000153515
0.000149729
0.00014615
0.000142427
0.000139008
0.000135932
0.000134111
0.000133899
0.000134425
0.000135576
0.000137441
0.000141938
0.000146732
0.00014989
0.000150198
0.000149459
0.000147312
0.000142319
0.000136761
0.000129551
0.000118566
0.000108032
9.58677e-05
8.17185e-05
7.09182e-05
6.31238e-05
5.66737e-05
5.31533e-05
5.12448e-05
5.08791e-05
5.12634e-05
5.15379e-05
5.17655e-05
5.31155e-05
5.36259e-05
5.33098e-05
5.31505e-05
5.30678e-05
5.30392e-05
5.32815e-05
5.45004e-05
5.6208e-05
5.77202e-05
5.96089e-05
6.41063e-05
7.25592e-05
7.99956e-05
8.54525e-05
8.77889e-05
8.79261e-05
8.74182e-05
8.54438e-05
8.29227e-05
7.95011e-05
7.47114e-05
6.75603e-05
6.33159e-05
5.81752e-05
5.37174e-05
5.12019e-05
5.07632e-05
5.10221e-05
5.19134e-05
5.4964e-05
5.75188e-05
6.04699e-05
6.49334e-05
6.60867e-05
6.78459e-05
7.07128e-05
7.38952e-05
7.69104e-05
7.78986e-05
8.14757e-05
9.28287e-05
0.00010095
0.000119039
0.000152445
0.000163671
0.000159801
0.000143262
0.000123736
0.000109097
9.90603e-05
9.33375e-05
8.88447e-05
8.28473e-05
7.94238e-05
7.93299e-05
8.03204e-05
8.62795e-05
9.37904e-05
9.44286e-05
9.47541e-05
0.000108277
0.000122647
0.000115492
9.97482e-05
0.000100753
9.943e-05
0.000104479
0.000126666
0.000145676
0.000136835
0.000136705
0.000152683
0.000157513
0.000140568
0.000125541
0.000119015
0.000108483
0.000102015
9.64326e-05
9.03967e-05
8.63251e-05
8.54482e-05
8.69412e-05
8.87436e-05
8.80001e-05
8.46552e-05
8.39197e-05
8.47097e-05
8.56186e-05
8.44347e-05
8.38477e-05
7.97915e-05
7.69604e-05
7.3939e-05
6.99451e-05
6.98127e-05
6.79875e-05
6.67727e-05
6.79369e-05
6.56503e-05
6.14436e-05
5.92351e-05
5.41142e-05
5.29325e-05
5.33941e-05
5.24566e-05
5.29652e-05
5.1157e-05
4.78006e-05
4.82672e-05
4.68401e-05
4.73348e-05
4.63404e-05
4.65256e-05
5.02417e-05
5.88154e-05
6.89911e-05
9.03287e-05
9.32103e-05
0.000104174
0.000100269
0.000102305
9.716e-05
9.72075e-05
9.51663e-05
9.61909e-05
9.84247e-05
0.000101473
0.000114129
0.000119966
0.00016168
0.000202378
0.00019611
0.000186091
0.000178718
0.000170925
0.000167498
0.000164976
0.00016376
0.00016327
0.000161825
0.000159746
0.000155053
0.000149582
0.000143053
0.000136399
0.000130923
0.000126611
0.000124401
0.000123601
0.000123603
0.000124152
0.000124852
0.000124957
0.000123905
0.000121118
0.000118472
0.000115431
0.000113644
0.00011271
0.000111941
0.000111727
0.000111406
0.000110695
0.000109506
0.000108385
0.000105594
0.000102195
9.86801e-05
9.58812e-05
9.22293e-05
8.9567e-05
8.83149e-05
8.68626e-05
8.68677e-05
8.72497e-05
8.81661e-05
8.9934e-05
9.19705e-05
9.47539e-05
9.52944e-05
9.50456e-05
9.38256e-05
9.08131e-05
8.57466e-05
7.9533e-05
7.32522e-05
6.71495e-05
6.15553e-05
5.72443e-05
5.34476e-05
5.0563e-05
4.7815e-05
4.66433e-05
4.68001e-05
4.67291e-05
4.61828e-05
4.62418e-05
4.64524e-05
4.67712e-05
4.87345e-05
5.08219e-05
5.19316e-05
5.40554e-05
5.54525e-05
5.58156e-05
5.57024e-05
5.5704e-05
5.60145e-05
5.69558e-05
5.79048e-05
5.92288e-05
6.45638e-05
7.08309e-05
7.38889e-05
7.42574e-05
7.38067e-05
7.27089e-05
7.0052e-05
6.5362e-05
6.10994e-05
5.77467e-05
5.33328e-05
5.00855e-05
4.92471e-05
4.95379e-05
5.05933e-05
5.36753e-05
5.89675e-05
6.8469e-05
7.25555e-05
7.82049e-05
8.34273e-05
8.43254e-05
8.7045e-05
8.70634e-05
8.44827e-05
8.42109e-05
8.24093e-05
8.26651e-05
8.86686e-05
9.38727e-05
0.000101723
0.000125314
0.000151317
0.000154621
0.000148867
0.000134361
0.000119715
0.000108682
0.000102486
9.63525e-05
8.98879e-05
8.75597e-05
8.7808e-05
8.91258e-05
9.49854e-05
9.73177e-05
9.49175e-05
9.40072e-05
0.000107423
0.000116263
0.000109867
0.000100181
9.5709e-05
9.5256e-05
0.000103069
0.000121858
0.00013959
0.000134774
0.000137048
0.000157641
0.000172952
0.000161008
0.00014114
0.000135919
0.000118668
0.000102771
9.64019e-05
9.12316e-05
8.76258e-05
8.50907e-05
8.46087e-05
8.67591e-05
8.87687e-05
8.74072e-05
8.43778e-05
8.42351e-05
8.43505e-05
8.38788e-05
8.22127e-05
8.06148e-05
7.76872e-05
7.65808e-05
7.17222e-05
7.12895e-05
7.13565e-05
6.817e-05
6.7421e-05
6.66643e-05
6.15729e-05
5.83438e-05
5.56769e-05
5.31902e-05
5.45962e-05
5.35948e-05
5.16716e-05
5.2864e-05
5.04236e-05
4.86291e-05
4.58479e-05
4.578e-05
4.8812e-05
4.99196e-05
5.41131e-05
6.0764e-05
6.63028e-05
7.99358e-05
8.73206e-05
9.56378e-05
9.81773e-05
9.80056e-05
9.7646e-05
9.51668e-05
9.5086e-05
9.32587e-05
9.57023e-05
9.53703e-05
0.000101096
0.000102362
0.000122857
0.00010699
0.000104992
0.000101279
9.78517e-05
9.42397e-05
9.25026e-05
9.22516e-05
9.2369e-05
9.33937e-05
9.40956e-05
9.44701e-05
9.43064e-05
9.27379e-05
8.90353e-05
8.46123e-05
8.0711e-05
7.73228e-05
7.53954e-05
7.44707e-05
7.42883e-05
7.44731e-05
7.53811e-05
7.637e-05
7.70716e-05
7.73429e-05
7.70894e-05
7.55268e-05
7.36706e-05
7.22081e-05
7.07634e-05
6.99101e-05
6.94212e-05
6.8714e-05
6.8019e-05
6.76105e-05
6.67345e-05
6.57157e-05
6.44654e-05
6.31376e-05
6.1842e-05
6.04834e-05
5.98431e-05
5.88733e-05
5.84643e-05
5.84676e-05
5.85317e-05
5.91594e-05
5.9723e-05
6.03213e-05
6.05423e-05
6.03594e-05
5.97589e-05
5.89574e-05
5.73621e-05
5.55577e-05
5.39329e-05
5.20042e-05
4.95541e-05
4.78481e-05
4.60122e-05
4.37915e-05
4.31304e-05
4.2402e-05
4.1515e-05
4.15329e-05
4.17264e-05
4.25066e-05
4.38749e-05
4.42332e-05
4.45176e-05
4.51151e-05
4.71002e-05
4.88679e-05
5.10664e-05
5.32243e-05
5.42037e-05
5.43355e-05
5.42369e-05
5.41187e-05
5.41381e-05
5.4274e-05
5.50036e-05
5.89465e-05
6.13586e-05
6.20425e-05
6.19154e-05
6.11571e-05
5.89233e-05
5.59113e-05
5.26912e-05
4.88578e-05
4.72045e-05
4.74368e-05
4.86063e-05
5.19057e-05
5.84396e-05
7.05224e-05
8.42517e-05
9.37452e-05
0.000100123
0.000106554
0.000108656
0.000107739
0.000106082
0.000103106
9.85615e-05
9.75904e-05
9.44214e-05
8.77259e-05
8.81533e-05
8.98358e-05
9.27488e-05
0.00010063
0.000124451
0.000142283
0.000143405
0.000138999
0.000128959
0.000120371
0.000114007
0.000108164
0.000102035
9.77809e-05
9.68766e-05
9.74033e-05
9.985e-05
9.96499e-05
9.31692e-05
9.21333e-05
0.00010426
0.000110196
0.000106881
9.94361e-05
9.1225e-05
9.11896e-05
9.9103e-05
0.000108985
0.000131301
0.000132033
0.000134677
0.000155305
0.000174603
0.000177736
0.000163881
0.000162537
0.000135535
0.000104043
9.52557e-05
9.05326e-05
8.78652e-05
8.48183e-05
8.219e-05
8.25316e-05
8.62286e-05
8.70813e-05
8.55347e-05
8.33864e-05
8.3261e-05
8.31202e-05
8.11108e-05
8.0178e-05
7.78076e-05
7.81767e-05
7.6366e-05
7.24995e-05
7.44745e-05
7.33078e-05
6.82224e-05
6.72318e-05
6.24595e-05
5.66082e-05
5.68547e-05
5.44393e-05
5.33936e-05
5.69008e-05
5.44935e-05
5.26667e-05
5.01149e-05
4.85884e-05
4.90615e-05
5.06402e-05
5.32255e-05
5.69547e-05
5.71326e-05
5.93875e-05
6.15106e-05
6.52305e-05
7.41209e-05
7.77564e-05
8.80195e-05
8.96072e-05
9.40747e-05
9.30446e-05
9.39959e-05
9.23388e-05
9.35538e-05
9.23819e-05
9.48357e-05
9.41831e-05
0.000100019
5.83008e-05
5.78144e-05
5.68199e-05
5.57005e-05
5.48414e-05
5.46858e-05
5.48049e-05
5.57219e-05
5.72697e-05
5.83744e-05
5.91268e-05
5.93472e-05
5.93192e-05
5.85381e-05
5.65452e-05
5.47892e-05
5.33058e-05
5.24609e-05
5.20979e-05
5.20513e-05
5.24576e-05
5.3762e-05
5.50681e-05
5.60391e-05
5.65877e-05
5.67626e-05
5.64773e-05
5.54568e-05
5.43233e-05
5.34581e-05
5.29184e-05
5.26064e-05
5.24787e-05
5.233e-05
5.22314e-05
5.21032e-05
5.18083e-05
5.1297e-05
5.05266e-05
4.98917e-05
4.92978e-05
4.8923e-05
4.85393e-05
4.83639e-05
4.83768e-05
4.84326e-05
4.85231e-05
4.89257e-05
4.91768e-05
4.91776e-05
4.92152e-05
4.91453e-05
4.87536e-05
4.83205e-05
4.75806e-05
4.63209e-05
4.53204e-05
4.38759e-05
4.20615e-05
4.13003e-05
4.02558e-05
3.87716e-05
3.84863e-05
3.85765e-05
3.8862e-05
3.91717e-05
3.96169e-05
4.04102e-05
4.12268e-05
4.17304e-05
4.19408e-05
4.2144e-05
4.29087e-05
4.47021e-05
4.67751e-05
4.84859e-05
4.94256e-05
4.97713e-05
4.99078e-05
4.99001e-05
4.98389e-05
4.99379e-05
5.08526e-05
5.12721e-05
5.12203e-05
5.07481e-05
4.91887e-05
4.73334e-05
4.53169e-05
4.45668e-05
4.48339e-05
4.58954e-05
4.89706e-05
5.61268e-05
6.91753e-05
8.71747e-05
0.000106476
0.000120861
0.000127928
0.000133734
0.000135236
0.000134258
0.000130645
0.000126848
0.00011935
0.000110818
0.000108816
0.00010622
9.71439e-05
9.07067e-05
8.71051e-05
8.57931e-05
8.69807e-05
9.5053e-05
0.000116839
0.000133197
0.000134311
0.0001309
0.000125448
0.000120117
0.000115029
0.000109076
0.000104195
0.00010178
0.000101771
0.000102149
9.9608e-05
8.86012e-05
8.80134e-05
9.85464e-05
0.000104366
0.000104261
9.53322e-05
8.74212e-05
8.82329e-05
9.19393e-05
9.86516e-05
0.000118711
0.000122633
0.000125601
0.000144342
0.00016947
0.000179229
0.00018571
0.000189474
0.000156664
0.00010755
9.33327e-05
8.73233e-05
8.56169e-05
8.28893e-05
8.05938e-05
8.14673e-05
8.50341e-05
8.75512e-05
8.69528e-05
8.42484e-05
8.27113e-05
8.23109e-05
8.07091e-05
7.91881e-05
7.76343e-05
7.72136e-05
7.80949e-05
7.54889e-05
7.39163e-05
7.58064e-05
7.22682e-05
6.57685e-05
6.52086e-05
5.87506e-05
5.55472e-05
5.87201e-05
5.63204e-05
5.65367e-05
5.57513e-05
5.30484e-05
5.55596e-05
5.4359e-05
5.50253e-05
5.57108e-05
5.45853e-05
5.52871e-05
5.53225e-05
5.58977e-05
5.74944e-05
5.93752e-05
6.47609e-05
6.71828e-05
7.44579e-05
7.68477e-05
8.44556e-05
8.59698e-05
9.06809e-05
9.00924e-05
9.1523e-05
9.02788e-05
9.08221e-05
8.91753e-05
8.96967e-05
3.86159e-05
3.85421e-05
3.83718e-05
3.82479e-05
3.82132e-05
3.83142e-05
3.91461e-05
4.07031e-05
4.23906e-05
4.37255e-05
4.466e-05
4.50767e-05
4.51261e-05
4.49688e-05
4.42408e-05
4.36341e-05
4.32284e-05
4.30103e-05
4.29927e-05
4.34923e-05
4.49796e-05
4.63488e-05
4.73405e-05
4.79854e-05
4.82333e-05
4.82337e-05
4.77515e-05
4.69566e-05
4.63459e-05
4.58805e-05
4.56011e-05
4.54971e-05
4.54079e-05
4.53532e-05
4.53063e-05
4.5244e-05
4.50138e-05
4.46487e-05
4.42334e-05
4.38806e-05
4.35555e-05
4.33792e-05
4.33343e-05
4.33394e-05
4.33685e-05
4.3484e-05
4.36289e-05
4.37116e-05
4.39369e-05
4.40481e-05
4.40375e-05
4.39731e-05
4.38346e-05
4.337e-05
4.28679e-05
4.22975e-05
4.08402e-05
3.99798e-05
3.88823e-05
3.74277e-05
3.65122e-05
3.59799e-05
3.58665e-05
3.59644e-05
3.62481e-05
3.69636e-05
3.77959e-05
3.84837e-05
3.90576e-05
3.97761e-05
4.01631e-05
4.01346e-05
4.0068e-05
4.04677e-05
4.33462e-05
4.55866e-05
4.65519e-05
4.68582e-05
4.68969e-05
4.67501e-05
4.65069e-05
4.63632e-05
4.61812e-05
4.59304e-05
4.53755e-05
4.4425e-05
4.30968e-05
4.25156e-05
4.27359e-05
4.35477e-05
4.59048e-05
5.19347e-05
6.3871e-05
8.43127e-05
0.000110643
0.000133455
0.000144116
0.000147649
0.00014794
0.000147417
0.00014604
0.000142999
0.000139079
0.00013625
0.000131926
0.000121691
0.00011706
0.000112861
0.000102788
9.32e-05
8.74995e-05
8.23052e-05
8.07655e-05
8.23397e-05
9.19759e-05
0.000111123
0.000122776
0.000125535
0.000124285
0.00012077
0.000115752
0.000109941
0.000105775
0.000103788
0.000103286
0.00010243
9.40871e-05
8.26859e-05
8.21156e-05
9.3117e-05
0.000100644
0.000100701
9.11918e-05
8.38014e-05
8.32868e-05
8.53274e-05
9.06039e-05
0.000103037
0.000104308
0.000108465
0.000120702
0.000150178
0.000176061
0.000197179
0.000214511
0.000180836
0.000117207
9.32598e-05
8.4357e-05
8.10477e-05
7.99838e-05
8.01882e-05
8.18019e-05
8.49818e-05
8.76282e-05
8.74196e-05
8.54422e-05
8.30997e-05
8.17818e-05
8.04929e-05
7.75787e-05
7.72037e-05
7.45796e-05
7.66633e-05
7.66138e-05
7.2767e-05
7.3995e-05
7.2526e-05
6.5545e-05
6.4953e-05
6.34886e-05
5.7902e-05
6.16645e-05
5.94025e-05
5.71049e-05
6.29746e-05
6.15716e-05
6.29659e-05
6.27369e-05
5.94369e-05
5.8627e-05
5.58085e-05
5.53184e-05
5.46577e-05
5.47213e-05
5.51676e-05
5.63702e-05
5.91833e-05
6.10362e-05
6.57252e-05
6.78051e-05
7.37344e-05
7.55074e-05
8.16259e-05
8.28848e-05
8.57509e-05
8.52014e-05
8.53314e-05
8.44827e-05
8.42852e-05
2.92043e-05
2.89398e-05
2.87063e-05
2.85414e-05
2.84945e-05
2.84728e-05
2.85629e-05
2.94606e-05
3.11626e-05
3.27693e-05
3.38691e-05
3.46822e-05
3.505e-05
3.52301e-05
3.53047e-05
3.5383e-05
3.56464e-05
3.62106e-05
3.70688e-05
3.79612e-05
3.88687e-05
3.96532e-05
4.02534e-05
4.06245e-05
4.07833e-05
4.0821e-05
4.07513e-05
4.06116e-05
4.05104e-05
4.0466e-05
4.05373e-05
4.0901e-05
4.12705e-05
4.15574e-05
4.17058e-05
4.17859e-05
4.17975e-05
4.17337e-05
4.15208e-05
4.12419e-05
4.09524e-05
4.06862e-05
4.04026e-05
4.02678e-05
4.02493e-05
4.02655e-05
4.02721e-05
4.03123e-05
4.05696e-05
4.06544e-05
4.06461e-05
4.0588e-05
4.04034e-05
4.00111e-05
3.90735e-05
3.78604e-05
3.67101e-05
3.55739e-05
3.47394e-05
3.4219e-05
3.41981e-05
3.42886e-05
3.44863e-05
3.50455e-05
3.55777e-05
3.6169e-05
3.68316e-05
3.77023e-05
3.83564e-05
3.87302e-05
3.88542e-05
3.87667e-05
3.84618e-05
3.83387e-05
3.83985e-05
3.98256e-05
4.23859e-05
4.38673e-05
4.43444e-05
4.44008e-05
4.43632e-05
4.42342e-05
4.38593e-05
4.32613e-05
4.17559e-05
4.08819e-05
4.10042e-05
4.15464e-05
4.32062e-05
4.74428e-05
5.67261e-05
7.47406e-05
0.000102217
0.000137083
0.000151141
0.000156143
0.000155731
0.000153703
0.000152184
0.000149583
0.000146086
0.000143192
0.00013929
0.000135473
0.000132802
0.000127124
0.000118826
0.000115326
0.000109338
9.6994e-05
8.88428e-05
8.24159e-05
7.71705e-05
7.62782e-05
7.86804e-05
8.62743e-05
0.000101309
0.000110778
0.000113947
0.000113425
0.000111523
0.00010726
0.000104061
0.000102626
0.000101419
9.80347e-05
8.37945e-05
7.5233e-05
7.59298e-05
8.93454e-05
9.73908e-05
9.7298e-05
8.86139e-05
8.12438e-05
7.90218e-05
7.94051e-05
8.40635e-05
8.78823e-05
8.90902e-05
9.33728e-05
0.000101191
0.000118923
0.000163788
0.000198963
0.00023596
0.000202001
0.000130853
9.77495e-05
8.50312e-05
8.11337e-05
8.02536e-05
8.14081e-05
8.46948e-05
8.65628e-05
8.7968e-05
8.91048e-05
8.71462e-05
8.44274e-05
8.17966e-05
8.03113e-05
7.7181e-05
7.59699e-05
7.4469e-05
7.1879e-05
7.51942e-05
7.27802e-05
6.76436e-05
6.98984e-05
6.47347e-05
6.04597e-05
7.01486e-05
6.25402e-05
5.94239e-05
6.85325e-05
6.54464e-05
6.92703e-05
6.98202e-05
6.69956e-05
6.77471e-05
6.45782e-05
6.40696e-05
5.93707e-05
5.81917e-05
5.55008e-05
5.56023e-05
5.54705e-05
5.63766e-05
5.71338e-05
5.83978e-05
6.08286e-05
6.23379e-05
6.62095e-05
6.75637e-05
7.16501e-05
7.29025e-05
7.56108e-05
7.60617e-05
7.74698e-05
7.7833e-05
7.79827e-05
1.96039e-05
1.95991e-05
1.9616e-05
1.96584e-05
1.98452e-05
2.00227e-05
2.01348e-05
2.03611e-05
2.14063e-05
2.29761e-05
2.43213e-05
2.58826e-05
2.69403e-05
2.80694e-05
2.88671e-05
2.97166e-05
3.08946e-05
3.20824e-05
3.37988e-05
3.51912e-05
3.65821e-05
3.75391e-05
3.811e-05
3.84352e-05
3.84676e-05
3.8407e-05
3.81112e-05
3.7763e-05
3.75862e-05
3.74308e-05
3.73689e-05
3.73465e-05
3.72887e-05
3.72439e-05
3.71702e-05
3.69553e-05
3.65367e-05
3.60821e-05
3.58636e-05
3.57756e-05
3.57759e-05
3.58559e-05
3.59377e-05
3.61703e-05
3.6272e-05
3.64364e-05
3.65379e-05
3.6522e-05
3.64659e-05
3.62764e-05
3.60724e-05
3.56811e-05
3.50215e-05
3.4296e-05
3.36479e-05
3.33878e-05
3.32596e-05
3.32677e-05
3.33538e-05
3.36188e-05
3.39034e-05
3.46237e-05
3.5295e-05
3.58291e-05
3.67179e-05
3.74629e-05
3.77847e-05
3.81759e-05
3.8324e-05
3.82788e-05
3.82366e-05
3.81324e-05
3.7769e-05
3.69071e-05
3.63938e-05
3.63264e-05
3.63434e-05
3.69836e-05
3.88077e-05
3.96216e-05
3.9724e-05
3.96655e-05
3.91997e-05
3.9013e-05
3.92013e-05
3.97178e-05
4.10194e-05
4.39703e-05
5.04032e-05
6.28088e-05
8.54897e-05
0.000124245
0.000151608
0.000161678
0.000162641
0.000161272
0.000157648
0.000152807
0.000148747
0.000143443
0.000137539
0.000132433
0.000129992
0.000129819
0.000129556
0.000126665
0.000120271
0.000117239
0.000110883
0.000100349
9.05194e-05
8.24087e-05
7.62188e-05
7.2265e-05
7.22091e-05
7.38982e-05
7.99444e-05
8.57335e-05
9.05774e-05
9.47984e-05
9.70584e-05
9.73534e-05
9.73654e-05
9.71463e-05
9.59436e-05
8.7493e-05
7.34471e-05
6.88104e-05
7.23555e-05
8.73401e-05
9.40305e-05
9.40742e-05
8.68575e-05
7.87241e-05
7.53761e-05
7.54814e-05
7.81583e-05
8.02215e-05
8.29199e-05
8.87899e-05
9.63777e-05
0.00010574
0.000141013
0.000198762
0.000248657
0.000221101
0.000150964
0.00011114
9.26742e-05
8.60185e-05
8.39934e-05
8.50213e-05
8.683e-05
8.66183e-05
8.89636e-05
9.18823e-05
8.83689e-05
8.66034e-05
8.30713e-05
8.03823e-05
7.73491e-05
7.48538e-05
7.45595e-05
7.1253e-05
7.03505e-05
7.07324e-05
6.51173e-05
6.43648e-05
6.44735e-05
6.07266e-05
6.28171e-05
6.96561e-05
6.50362e-05
7.35627e-05
7.25663e-05
6.89336e-05
7.01987e-05
6.75245e-05
6.93265e-05
6.63452e-05
6.80004e-05
6.40577e-05
6.33722e-05
5.88218e-05
5.84792e-05
5.67915e-05
5.72689e-05
5.72541e-05
5.7496e-05
5.84787e-05
5.93234e-05
6.20867e-05
6.28441e-05
6.47344e-05
6.55479e-05
6.75933e-05
6.8124e-05
6.92769e-05
6.97019e-05
7.07356e-05
1.85001e-05
1.86594e-05
1.88394e-05
1.8999e-05
1.91444e-05
1.94626e-05
2.03105e-05
2.1516e-05
2.25355e-05
2.39081e-05
2.48877e-05
2.59895e-05
2.67875e-05
2.73542e-05
2.80593e-05
2.86113e-05
2.96698e-05
3.0635e-05
3.17842e-05
3.27704e-05
3.34072e-05
3.38586e-05
3.39792e-05
3.40009e-05
3.38795e-05
3.34262e-05
3.32009e-05
3.29244e-05
3.28084e-05
3.26961e-05
3.23558e-05
3.18854e-05
3.12312e-05
3.07246e-05
3.0343e-05
3.01717e-05
3.01465e-05
3.01821e-05
3.02403e-05
3.03091e-05
3.04549e-05
3.07189e-05
3.09544e-05
3.11899e-05
3.14229e-05
3.15603e-05
3.1633e-05
3.16844e-05
3.17129e-05
3.17773e-05
3.18415e-05