/*--------------------------------*- C++ -*----------------------------------*\
| =========                 |                                                 |
| \\      /  F ield         | OpenFOAM: The Open Source CFD Toolbox           |
|  \\    /   O peration     | Version:  2.4.0                                 |
|   \\  /    A nd           | Web:      www.OpenFOAM.org                      |
|    \\/     M anipulation  |                                                 |
\*---------------------------------------------------------------------------*/
FoamFile
{
    version     2.0;
    format      ascii;
    class       volScalarField;
    location    "0.7";
    object      p;
}
// * * * * * * * * * * * * * * * * * * * * * * * * * * * * * * * * * * * * * //

dimensions      [0 2 -2 0 0 0 0];

internalField   nonuniform List<scalar> 
8800
(
72.8064
60.3706
52.8984
49.5381
47.5946
46.1321
45.0519
43.9776
42.8354
41.882
41.0954
40.0184
38.9603
38.2244
37.3891
36.475
35.693
35.1218
34.5422
33.5728
69.6818
60.0185
53.0616
49.6476
47.6566
46.152
45.0641
43.9823
42.8313
41.8725
41.1017
40.0181
38.948
38.2239
37.3938
36.4684
35.6923
35.1086
34.5593
33.5046
67.7044
60.0963
53.6663
50.0294
47.8119
46.2321
45.115
44.016
42.8538
41.888
41.1211
40.0204
38.9421
38.2243
37.3978
36.4564
35.6933
35.0823
34.6374
33.6066
66.1623
60.1601
54.2615
50.4478
47.9808
46.3341
45.18
44.0683
42.9063
41.9312
41.1521
40.0301
38.9507
38.2274
37.4001
36.4483
35.6917
35.067
34.7104
33.9298
64.9027
60.1306
54.7584
50.8332
48.1361
46.4212
45.2292
44.1218
42.978
41.9932
41.183
40.0496
38.9731
38.2303
37.3929
36.4583
35.6783
35.0526
34.6285
34.3528
63.9036
60.0273
55.1522
51.1612
48.2811
46.4805
45.2523
44.1623
43.0515
42.0582
41.2031
40.0677
39.003
38.2278
37.3806
36.4723
35.6776
35.044
34.6352
34.877
63.1293
59.9102
55.4461
51.4326
48.4193
46.5198
45.2582
44.1851
43.1058
42.1167
41.2199
40.0814
39.0301
38.2229
37.3717
36.4851
35.6837
35.0483
34.73
35.2659
62.5655
59.8157
55.6483
51.6408
48.5432
46.5458
45.207
44.191
43.141
42.1513
41.2149
40.0933
39.0571
38.2166
37.3682
36.4995
35.6954
35.0648
34.8244
35.5036
62.2031
59.7515
55.7749
51.7703
48.6324
46.5686
45.1953
44.1313
43.1707
42.1803
41.1985
40.0967
39.0795
38.211
37.3709
36.5166
35.7173
35.0898
34.8944
35.7
62.0266
59.719
55.8344
51.8334
48.6795
46.5822
45.183
44.1591
43.2076
42.2122
41.1821
40.1102
39.0998
38.2048
37.3795
36.5434
35.7444
35.126
34.9356
35.8608
62.0274
59.7144
55.8405
51.8285
48.6809
46.547
45.1755
44.1376
43.2303
42.2362
41.1603
40.1305
39.1173
38.1963
37.393
36.5731
35.7688
35.1658
34.9543
35.9464
62.2055
59.7474
55.7911
51.7617
48.6418
46.5515
45.1772
44.1068
43.2336
42.2407
41.1263
40.1553
39.1362
38.1837
37.4114
36.6037
35.7875
35.194
34.9664
35.9468
62.5683
59.8192
55.691
51.6085
48.5487
46.5629
45.1896
44.0691
43.2231
42.2335
41.0844
40.1748
39.1693
38.1743
37.4321
36.638
35.8102
35.2173
34.9717
35.868
63.1274
59.9152
55.5299
51.3951
48.4021
46.5693
45.1916
44.0169
43.1931
42.2053
41.0351
40.1879
39.2004
38.1659
37.4463
36.6752
35.8356
35.2521
34.967
35.6809
63.8904
60.0292
55.2763
51.1156
48.2376
46.5715
45.1765
43.9432
43.1706
42.1651
40.978
40.193
39.2311
38.1516
37.4564
36.7232
35.8717
35.2863
34.982
35.4376
64.8761
60.1338
54.9138
50.7644
48.0537
46.5723
45.1572
43.8385
43.144
42.1274
40.9153
40.1879
39.2617
38.1395
37.4637
36.7666
35.9144
35.3327
35.0255
35.1437
66.1236
60.1708
54.4401
50.3519
47.8467
46.5437
45.1347
43.7224
43.1037
42.0983
40.8552
40.1699
39.2845
38.1343
37.4652
36.7964
35.9637
35.3763
35.0902
34.8575
67.6595
60.1121
53.8487
49.9223
47.6446
46.4804
45.0951
43.637
43.0543
42.0714
40.8256
40.1502
39.2919
38.1401
37.4673
36.8115
36.0024
35.4132
35.1465
34.6972
69.6224
60.0365
53.2402
49.5488
47.4809
46.3992
45.0537
43.6083
43.0207
42.0526
40.8263
40.1403
39.2891
38.1552
37.4722
36.8156
36.0236
35.4381
35.1343
34.6261
72.7294
60.3898
53.0677
49.4324
47.4331
46.3691
45.035
43.6278
43.0286
42.0412
40.8439
40.1428
39.282
38.1675
37.4779
36.8102
36.031
35.4485
35.1279
34.7309
33.6054
33.5263
33.5339
33.6595
33.8156
33.8839
33.8274
33.6939
33.4844
33.2353
32.9692
32.7454
32.5816
32.5332
32.568
32.6891
32.8897
33.1534
33.4519
33.7929
34.1231
34.447
34.729
34.9458
35.0838
35.1079
35.0066
34.7561
34.3523
33.8393
33.2549
32.6572
32.1621
31.8456
31.8406
32.1697
32.8629
33.9979
35.3725
36.7375
37.9373
38.6356
38.9341
38.5365
37.4862
35.7156
33.0483
29.4513
25.0879
20.1946
14.9761
10.0281
5.91766
2.80802
1.03592
0.847968
2.17901
4.8385
8.54815
12.8071
17.4989
22.4293
27.2013
32.249
37.5629
42.4429
46.306
48.8761
50.2866
50.6531
50.233
49.4074
48.0454
45.8981
43.4831
40.9129
38.1353
35.1973
32.1078
29.1976
26.5636
24.0058
21.9891
20.5432
19.1169
18.3409
18.2642
18.3312
18.7144
19.4988
20.6041
21.8825
23.1761
24.8414
26.677
28.5751
30.6517
32.539
34.6484
37.0019
39.2133
41.6319
44.394
47.4528
50.947
54.2616
57.2374
59.8751
61.3315
61.8987
61.5796
60.1304
58.4615
57.1114
55.4822
52.9804
49.9293
46.2892
42.5812
39.4086
37.292
36.173
36.006
36.8365
38.9526
42.1554
45.8424
49.5633
53.1741
56.4622
59.0051
59.819
59.1258
57.9442
56.4444
54.2931
51.7069
48.9283
45.9109
42.4761
38.671
34.5906
30.2883
26.1859
21.4522
15.8064
9.75653
4.57565
0.334725
-3.01173
-6.06126
-8.2975
-10.0008
-11.1838
-11.6318
-11.2456
-10.3282
-8.46421
-5.53799
-1.94357
2.44914
7.90029
13.5164
19.0802
24.822
29.874
34.3211
38.2813
41.451
43.9883
45.9641
47.7523
49.2588
50.2852
51.175
51.8484
52.0665
52.4498
52.7159
52.5377
52.1594
52.051
51.8919
51.0145
50.182
49.4917
48.9395
48.225
47.586
46.9788
46.3968
45.8325
45.3236
44.6738
43.6214
42.3657
40.5954
37.5236
36.0531
21.6808
33.2433
33.2754
33.4813
33.7039
33.8574
33.8903
33.7864
33.6368
33.4227
33.1872
32.9495
32.7311
32.5984
32.5516
32.607
32.748
32.9598
33.2313
33.5228
33.8553
34.1753
34.4855
34.7625
34.9656
35.0996
35.1119
35.0136
34.7656
34.3622
33.8712
33.2967
32.7312
32.2647
31.9871
31.9681
32.2781
32.9756
34.0754
35.3734
36.5695
37.5945
38.1847
38.2419
38.1197
37.1495
35.4594
32.9686
29.618
25.5943
21.1475
16.4869
12.2039
8.55832
5.65594
4.13666
4.01072
5.07259
7.40038
10.7001
14.5822
18.8432
23.349
28.0659
32.9999
37.6429
41.6764
44.9339
46.9911
48.2842
48.8658
48.6092
47.9945
47.0138
45.1956
43.1685
41.0759
38.704
36.2455
33.9185
31.5058
29.1996
27.3646
25.7545
24.374
23.1599
22.29
21.8804
21.7433
21.9415
22.2009
22.4524
23.0818
24.1147
25.3469
26.5168
27.864
29.4694
30.8868
32.6616
34.5767
36.4696
39.1093
41.9942
45.2097
49.1171
52.6421
55.9289
59.0548
60.8598
61.9506
62.1978
61.4172
60.5479
59.5259
57.7474
55.0843
51.9042
48.3593
44.7913
41.755
39.7954
38.8373
38.7492
39.6809
41.8823
45.0082
48.4239
51.7887
55.0227
57.9505
59.9817
60.2141
59.1879
57.7757
55.8734
53.1907
50.172
47.3598
44.0989
40.3212
36.8919
33.2085
29.5709
25.8783
21.1277
15.028
8.92331
3.73617
-0.419911
-3.98107
-7.26787
-9.79682
-11.5626
-12.7094
-12.9617
-12.6769
-11.7853
-10.0018
-7.15605
-3.50667
1.06801
6.62182
12.5496
18.3282
24.4153
29.8461
34.4906
38.7192
42.1051
44.7386
46.8391
48.6938
50.1754
51.4614
52.1982
52.6939
53.0405
53.3689
53.3949
53.2068
53.1367
52.888
52.2084
51.4777
50.6908
50.1086
49.1719
48.4735
47.6071
47.1007
46.2036
45.5194
44.7102
43.7913
42.8655
40.643
39.2276
34.1404
32.105
20.2859
33.109
33.175
33.4922
33.7521
33.8953
33.8649
33.6998
33.5491
33.3505
33.1573
32.9545
32.7668
32.6667
32.6289
32.7124
32.854
33.0756
33.3379
33.5993
33.918
34.1992
34.4766
34.7376
34.9087
35.0374
35.0331
34.9226
34.6991
34.2873
33.855
33.3559
32.8157
32.4271
32.1913
32.2022
32.5166
33.1393
34.0913
35.1898
36.185
37.1229
37.7455
37.8624
37.5388
36.4734
34.7871
32.613
29.5141
25.732
21.9408
17.9897
13.993
10.8205
8.61677
7.26352
6.98907
8.04415
10.1846
12.9872
16.5571
20.7267
24.9472
28.928
33.1641
37.4836
40.9888
43.7387
45.5966
46.6897
47.2515
47.1298
46.6685
45.8272
44.5748
42.9784
41.2007
39.2533
37.3239
35.3718
33.3492
31.5586
29.987
28.613
27.5679
26.4232
25.4572
25.1531
24.8518
24.4584
24.2999
24.4144
24.7173
25.1219
25.5909
26.1162
26.9219
27.8623
28.8846
30.553
32.1628
33.5771
36.1007
38.994
42.3138
46.475
50.19
53.8014
57.112
59.3386
61.2087
62.1158
61.8758
61.6612
61.0219
59.3762
56.8794
53.8837
50.6773
47.3675
44.5342
42.7497
41.9175
41.9053
42.8798
45.0233
47.9204
50.9863
53.8984
56.6112
59.114
60.6028
60.231
58.9142
57.2791
54.8919
51.6986
48.4475
45.2624
41.0197
36.7476
33.621
31.2459
28.4713
24.8988
20.2699
13.9496
8.14595
3.15741
-0.650429
-4.394
-7.9981
-10.9415
-12.9785
-14.2268
-14.4077
-13.8094
-12.7845
-10.9492
-8.11502
-4.48957
0.280294
5.95271
12.0179
18.2036
24.3967
30.0599
34.9263
39.4354
42.9524
45.5203
47.8255
49.8302
51.2757
52.5552
53.3228
53.7092
54.1513
54.1781
54.349
54.3536
53.9791
53.4846
52.8432
52.4074
51.552
50.7322
49.6295
48.4224
47.831
46.7009
46.2261
44.832
44.3534
43.003
41.8196
39.0553
37.1005
32.0304
27.3604
21.1509
33.1941
33.2523
33.4918
33.529
33.5529
33.587
33.4726
33.3925
33.2392
33.115
32.998
32.8407
32.8159
32.7796
32.883
33.0189
33.2036
33.4653
33.6659
33.9484
34.1865
34.4044
34.6458
34.7817
34.8911
34.8947
34.7682
34.6107
34.2339
33.8418
33.4633
32.9619
32.6736
32.5202
32.5178
32.8263
33.3332
34.0873
35.0175
35.8276
36.6045
37.0431
36.9999
36.6164
35.6315
34.1174
32.0138
29.2635
26.2018
22.8052
19.2739
16.0377
13.4532
11.4969
10.4441
10.4373
11.2658
13.1894
15.9631
19.0328
22.3915
26.1981
29.9938
33.4605
36.8767
39.9512
42.4437
44.2364
45.3788
46.0511
46.0583
45.6697
45.055
44.0959
42.8216
41.4154
39.8647
38.2965
36.7685
35.103
33.54
32.2979
31.1663
30.2217
29.3407
28.5446
27.9237
27.3127
26.8915
26.6831
26.311
25.8891
25.7874
25.8695
25.8119
26.0052
26.2862
26.5926
27.7001
28.9964
30.3923
32.7385
35.3568
38.8234
43.1754
47.2525
51.3263
54.8223
57.3328
59.7284
61.0878
61.4352
61.749
61.5227
60.3895
58.4444
55.9712
53.1669
50.1798
47.6678
46.0527
45.2629
45.2642
46.2764
48.2629
50.7616
53.3254
55.7084
57.9601
59.9582
60.7971
59.9205
58.3648
56.4967
53.6959
50.0548
46.4061
42.5592
37.1691
33.0933
31.1259
30.0669
27.6789
24.3315
20.0652
14.3141
8.36491
3.61077
-0.413458
-4.43796
-8.37389
-11.6385
-14.0179
-15.4573
-15.7498
-14.9659
-13.4851
-11.3762
-8.44158
-4.71833
0.0211674
5.76982
11.9723
18.3597
24.5057
30.4831
35.6549
39.8992
43.6787
46.5213
48.7715
50.6113
52.2589
53.5452
54.4373
54.7464
54.9929
55.2266
55.3069
55.219
54.6635
54.3657
53.9778
53.2027
52.4919
51.1133
50.4395
48.7049
48.2153
46.6058
46.1249
44.4619
43.6132
42.0975
40.6147
38.0736
35.1884
30.5618
25.1267
21.0999
34.7633
34.4705
33.7617
33.1311
32.8296
32.9126
33.0284
33.1464
33.1145
33.1259
33.123
33.0091
33.0253
32.9763
33.0619
33.1706
33.3011
33.546
33.701
33.9398
34.1336
34.3147
34.5136
34.6386
34.7124
34.7076
34.6184
34.4637
34.196
33.8637
33.552
33.2032
32.9395
32.8834
32.9035
33.129
33.5765
34.1459
34.86
35.4694
35.9643
36.2077
36.0672
35.7459
34.8158
33.3063
31.5837
29.3676
26.5511
23.7522
21.1197
18.3672
16.0989
14.7238
13.8314
13.7773
14.7648
16.3024
18.3627
21.1031
24.165
27.1395
30.1394
33.2866
36.4529
39.1527
41.2969
42.9767
44.0814
44.8338
45.1179
44.8923
44.4784
43.7685
42.7923
41.677
40.3904
39.1369
38.0265
36.7619
35.4648
34.4262
33.5927
32.8697
32.1197
31.2918
30.5872
30.0696
29.4108
28.6741
27.9947
27.3407
26.6928
26.0001
25.2344
24.5461
23.958
23.7088
24.2846
24.9876
26.1514
28.5424
31.1022
34.6344
39.2832
43.6885
48.2136
51.975
54.9668
57.8355
59.587
60.4376
61.1209
61.3864
60.9941
59.8024
57.9312
55.6459
53.143
50.9663
49.5307
48.8184
48.834
49.7239
51.4153
53.4443
55.385
57.1537
58.9158
60.4655
60.5895
59.3602
57.6935
55.5276
52.3796
48.3998
44.2293
39.7635
34.7649
31.3129
30.4733
29.4919
27.4016
24.4128
20.832
15.876
9.84208
4.82988
0.311039
-4.31796
-8.75682
-12.2218
-14.8042
-16.4832
-16.7939
-15.9107
-14.053
-11.4023
-8.19081
-4.31233
0.453907
6.18841
12.3925
18.8511
25.0554
30.9515
36.4653
40.7197
44.3846
47.547
49.8662
51.711
53.4656
54.7485
55.5756
55.9339
56.053
56.4958
56.2635
56.0386
55.8764
55.0959
55.1918
53.7154
53.55
51.9182
51.3814
49.5749
48.5758
47.0863
46.0158
44.476
43.2725
41.5567
39.6742
37.0064
33.5003
29.6103
24.7152
20.5569
35.8143
35.406
34.1302
33.0016
32.3104
32.2732
32.5613
32.8329
32.9606
33.0756
33.1996
33.1829
33.2192
33.2192
33.2676
33.3516
33.4288
33.6136
33.7433
33.9054
34.0521
34.194
34.3604
34.4721
34.533
34.5325
34.4808
34.3615
34.1705
33.9192
33.6634
33.4253
33.2421
33.21
33.2583
33.4265
33.7864
34.2017
34.6927
35.1045
35.3711
35.5283
35.3266
34.8754
34.0898
32.8314
31.3062
29.3508
27.2064
25.0156
22.7052
20.5445
18.7395
17.5022
16.9421
16.9528
17.5333
18.7805
20.5638
22.5918
24.9672
27.6426
30.4002
33.1336
35.8181
38.2456
40.2392
41.8443
42.9505
43.6878
44.0789
44.0282
43.8049
43.4081
42.7147
41.8959
40.9645
39.9733
39.1099
38.2104
37.1922
36.3646
35.8361
35.1904
34.474
33.8836
33.1964
32.4962
31.6888
30.8167
29.8152
28.5984
27.3146
25.7613
24.1968
22.8897
21.5693
20.5281
20.1641
20.2147
20.8644
22.711
25.2002
28.8418
33.7093
39.0616
44.393
48.7979
52.4285
55.5931
57.76
59.2071
60.2671
60.9613
61.2262
60.8122
59.7374
58.1282
56.1491
54.3914
53.138
52.4003
52.3346
52.9915
54.2003
55.6453
57.0169
58.3094
59.5574
60.5018
60.072
58.6662
56.9675
54.4952
51.0787
47.0063
42.6003
38.2201
34.0527
31.2841
30.1329
29.6464
27.3161
24.7184
21.8405
17.6146
11.7253
6.47021
1.46423
-3.94026
-8.86749
-12.5491
-15.3535
-17.294
-17.8158
-16.7199
-14.4769
-11.3399
-7.66073
-3.50179
1.40029
7.1735
13.3348
19.6711
26.0104
31.8748
37.2409
41.6593
45.4141
48.6556
50.9913
52.8414
54.6398
56.0615
56.5698
57.1513
57.3236
57.4719
57.6866
56.8755
57.3479
55.762
56.17
54.5784
54.4437
53.1444
52.0202
50.4601
49.2511
47.7706
46.3472
44.8177
43.1649
41.2684
38.8965
36.2499
32.8634
29.4743
24.9127
20.6042
36.4354
36.0162
34.4798
33.0065
32.067
31.8804
32.1986
32.5995
32.8397
33.0836
33.2963
33.3841
33.4475
33.4395
33.4735
33.5021
33.5167
33.6653
33.7328
33.8605
33.9659
34.0637
34.2626
34.3274
34.4179
34.4253
34.3664
34.3323
34.1388
33.9829
33.7916
33.5786
33.5213
33.453
33.5307
33.6756
33.878
34.2225
34.5018
34.7849
34.9676
34.9811
34.7782
34.2956
33.5978
32.487
31.1629
29.6995
27.921
26.0436
24.2287
22.4324
20.9721
20.0372
19.4915
19.3805
19.7651
20.6108
21.9012
23.5987
25.678
27.9871
30.335
32.7023
35.1395
37.3634
39.1219
40.5893
41.723
42.5483
43.1038
43.2354
43.2087
43.1154
42.7283
42.1751
41.4999
40.7912
40.2138
39.5967
38.8837
38.2502
37.7664
37.242
36.783
36.3392
35.6198
34.8166
33.963
32.8341
31.3629
29.6464
27.8256
25.7651
23.5066
21.2246
18.8345
17.0083
15.8745
14.905
15
16.2072
18.207
21.867
26.9023
32.7935
39.3789
45.1931
49.609
53.1739
55.9483
57.9545
59.3546
60.4834
61.3579
61.6594
61.3204
60.3432
58.948
57.5408
56.3606
55.5866
55.3762
55.7357
56.4952
57.426
58.2799
59.0873
59.868
60.1401
59.3854
58.01
56.1809
53.4947
50.114
46.0919
41.7772
37.8525
34.3448
32.0048
31.0793
30.3658
28.0844
26.0044
23.5998
19.8558
14.25
8.58628
2.96184
-3.11503
-8.56641
-12.3355
-15.4948
-17.5571
-18.0241
-17.071
-14.6589
-11.206
-6.98888
-2.42055
2.78148
8.47772
14.5932
20.7226
27.1608
33.0973
38.1896
42.6714
46.5382
49.8419
52.3467
54.218
55.6268
57.0887
57.766
58.1408
58.9411
58.1539
59.3971
57.8789
58.5137
56.8842
56.8989
55.8044
55.0024
54.0281
52.7039
51.3143
49.9193
48.4574
46.8687
45.1832
43.2214
41.2251
38.7271
36.1968
32.9588
29.7739
25.5859
21.4445
36.7336
36.3498
34.7316
33.1565
32.1068
31.7446
31.9949
32.4366
32.7626
33.0627
33.3421
33.5213
33.591
33.6025
33.6064
33.6185
33.6128
33.6966
33.7726
33.8275
33.9231
33.9945
34.169
34.2476
34.2973
34.3573
34.29
34.2969
34.164
34.0231
33.9243
33.7172
33.6992
33.668
33.6794
33.8133
33.9236
34.1646
34.3682
34.5497
34.6865
34.615
34.4105
33.9642
33.3059
32.4422
31.2614
30.0201
28.5788
27.011
25.5202
24.0662
22.8934
22.028
21.4636
21.3158
21.4578
22.0415
23.1088
24.5
26.2284
28.1266
30.1176
32.1555
34.2326
36.2618
37.8924
39.2804
40.5233
41.4315
42.1177
42.5029
42.695
42.8596
42.7423
42.4424
42.1031
41.7034
41.3642
41.0239
40.5481
40.1032
39.7539
39.4301
39.1403
38.6403
38.014
37.2845
36.2172
34.8536
33.0823
31.1388
28.8775
25.8954
22.773
19.6264
16.3208
13.4697
11.5917
10.2576
9.73844
10.2308
11.6491
15.127
20.2602
26.1911
33.5222
40.8703
46.4887
50.7471
54.1942
56.8202
58.7437
60.2627
61.4593
62.2376
62.4727
62.057
61.0769
59.9303
58.9199
58.1447
57.832
57.9086
58.2041
58.6634
59.0966
59.4613
59.8099
59.672
58.7706
57.3792
55.3922
52.6791
49.5257
45.7416
41.7927
38.386
35.5311
33.6938
32.9674
32.2439
30.923
29.269
27.3257
23.6181
17.7674
11.2723
4.79739
-1.80452
-7.56552
-11.4322
-15.0916
-17.1258
-17.7442
-16.9585
-14.4519
-10.778
-6.2135
-1.22331
4.21235
9.99692
16.0769
22.1201
28.2755
34.3971
39.2731
43.6717
48.0543
51.2514
53.4526
55.7476
57.25
58.1308
59.5359
58.6147
60.8285
59.1532
60.6154
59.3497
59.4728
58.3092
57.6626
56.8054
55.5801
54.7141
53.2902
52.0606
50.5717
49.0938
47.3728
45.6215
43.6542
41.6322
39.1802
36.6297
33.4701
30.3299
26.5515
22.6744
36.9453
36.5816
34.9422
33.3164
32.1712
31.6521
31.8419
32.2958
32.7109
33.0694
33.3834
33.6495
33.7084
33.7519
33.7262
33.7066
33.7165
33.7096
33.8164
33.8142
33.8866
33.9875
34.0851
34.2187
34.2218
34.2983
34.2794
34.2418
34.2098
34.0606
33.9962
33.8607
33.7993
33.8218
33.7932
33.8865
33.9784
34.1256
34.3122
34.4028
34.472
34.3876
34.1482
33.7753
33.1808
32.4047
31.4453
30.4122
29.2321
27.9078
26.6944
25.5487
24.4807
23.6812
23.1873
22.9828
23.0175
23.3968
24.219
25.3344
26.6531
28.1269
29.6721
31.3516
33.2212
35.0174
36.5212
37.8749
39.1923
40.326
41.1904
41.7972
42.2391
42.6163
42.8558
42.8716
42.7807
42.635
42.4971
42.4563
42.2591
41.9966
41.8578
41.6114
41.4591
41.1353
40.4629
39.732
38.6078
37.1482
35.2211
32.7043
29.9435
26.3576
22.2613
18.2814
14.3173
10.8875
8.20275
6.4181
5.60799
5.56092
6.89038
10.0277
14.5786
20.3864
28.1433
36.3455
43.2018
48.6037
52.7495
55.9387
58.3008
60.0505
61.5029
62.599
63.1465
63.0687
62.4541
61.6309
60.7324
59.9212
59.506
59.3141
59.2469
59.4762
59.6108
59.6043
59.5014
59.12
58.2325
56.7482
54.7043
52.1716
49.2545
45.8115
42.3755
39.5181
37.3674
36.0961
35.5849
35.3936
35.1507
34.6272
32.8755
28.7953
22.208
14.5997
7.13911
0.267578
-5.24376
-9.61484
-13.5323
-15.9506
-16.8256
-16.2567
-13.8532
-9.98061
-5.28226
0.112204
5.74404
11.6232
17.6151
23.7528
29.531
35.4623
40.5743
44.801
49.2199
52.778
55.0994
56.8106
59.0113
58.2776
61.5741
59.5738
61.7772
60.6923
61.3329
60.6468
60.2564
59.3728
58.3608
57.507
56.3205
55.4812
53.8891
52.7996
51.224
49.7064
48.1118
46.3728
44.4328
42.4247
39.929
37.2884
34.2527
31.0789
27.6346
24.0648
37.1124
36.7097
35.0689
33.3966
32.2253
31.6279
31.7838
32.2717
32.702
33.1281
33.4136
33.728
33.8145
33.8337
33.8432
33.7406
33.7906
33.7427
33.8117
33.854
33.8411
34.0066
34.0433
34.1601
34.2138
34.2091
34.29
34.2281
34.211
34.147
34.0341
33.9821
33.8983
33.9045
33.9299
33.9381
34.0479
34.1543
34.2385
34.3264
34.309
34.22
34.0345
33.643
33.1409
32.5033
31.712
30.8563
29.8626
28.8318
27.8039
26.7791
25.9278
25.2328
24.7373
24.4928
24.4163
24.6508
25.1935
25.9185
26.8564
27.9468
29.1625
30.5542
32.0997
33.6199
35.0501
36.4585
37.8552
39.2108
40.2061
41.0568
41.8446
42.5048
43.0289
43.34
43.4262
43.6086
43.7858
43.8639
44.0097
43.9562
43.8548
43.8572
43.7861
43.5755
42.9822
42.2171
41.1883
39.5192
37.2705
34.2778
30.8843
27.0734
22.4533
17.6812
13.0786
9.14081
6.16316
3.84142
2.64617
2.2896
2.98219
5.94358
10.4741
16.0906
23.8589
32.7434
40.6299
46.7166
51.5364
55.355
58.0273
60.022
61.5872
62.7445
63.4735
63.5524
63.1929
62.6384
61.7638
60.9749
60.5506
60.1816
59.9068
59.9957
59.8292
59.5429
59.1832
58.6756
57.7078
56.1837
54.2299
51.8591
49.1681
46.227
43.2935
40.9181
39.2926
38.5006
38.3863
39.009
39.9509
40.4646
39.2119
34.7468
27.5517
19.2015
11.2534
4.39913
-1.33721
-6.36559
-10.8688
-13.7954
-15.074
-14.8188
-12.3236
-8.68972
-3.98893
1.62997
7.41415
13.5259
19.4135
25.4605
31.1619
36.6283
41.9577
46.3205
50.3528
54.0358
56.8781
57.2496
61.3277
59.3077
62.5116
61.4262
62.1693
61.9699
61.9982
61.3975
60.6805
60.0765
59.0922
58.3063
57.1629
56.2221
54.6587
53.6424
52.0866
50.5934
49.151
47.3148
45.3049
43.3314
40.738
38.008
35.1675
32.0333
28.7924
25.5269
37.2664
36.7839
35.1241
33.4215
32.2517
31.6612
31.7834
32.323
32.7284
33.2067
33.4767
33.7563
33.9217
33.877
33.9361
33.7806
33.8133
33.8133
33.7743
33.8951
33.8215
33.9853
34.0601
34.0789
34.2287
34.1554
34.2655
34.264
34.1753
34.2337
34.078
34.0555
34.0355
33.9675
34.073
34.0346
34.1052
34.2047
34.1715
34.2643
34.2041
34.1063
33.9754
33.5824
33.2285
32.6963
32.02
31.3724
30.5438
29.7147
28.8186
27.9738
27.3072
26.6338
26.17
25.893
25.6686
25.6382
25.8476
26.288
26.8862
27.6061
28.5169
29.6181
30.9171
32.3211
33.6637
35.041
36.4804
37.9604
39.2957
40.4428
41.5113
42.4357
43.1524
43.8194
44.2264
44.6364
45.1752
45.3419
45.6123
45.9366
45.9521
46.1102
46.1482
45.9353
45.6709
44.8833
43.5159
41.6204
39.17
36.1131
32.3149
27.9896
23.0493
17.7231
12.7397
8.35332
4.83908
2.29987
0.604693
-0.323988
0.14761
3.0185
7.45766
13.2506
21.2199
30.355
38.7722
45.5183
50.8949
55.0777
58.0836
60.2735
61.8554
62.9984
63.6969
63.8644
63.6392
63.1836
62.4526
61.6867
61.1864
60.7467
60.3024
59.8951
59.7857
59.3868
58.9291
58.3583
57.266
55.7606
53.9377
51.7446
49.3189
46.7771
44.2782
42.3272
41.0942
40.6939
41.1311
42.4063
44.3068
45.4626
44.5743
40.4313
33.3931
25.517
17.4715
10.2526
3.80965
-2.12928
-7.21048
-10.6232
-12.211
-12.3016
-10.1149
-6.80332
-2.13303
3.31541
9.18119
15.5458
21.3842
27.1406
32.8926
38.2443
43.2848
47.8332
52.1207
54.5169
59.5296
58.4196
62.9032
61.4955
62.6024
62.785
62.6987
62.6057
62.4705
61.9698
61.2161
60.9469
59.8617
59.1858
58.1407
57.0742
55.8243
54.7575
53.1098
51.6219
50.0867
48.1468
46.1774
44.1575
41.4938
38.8094
36.1346
33.0718
30.0329
27.1308
37.3329
36.7933
35.1071
33.4318
32.2882
31.775
31.8668
32.4377
32.8358
33.3066
33.5932
33.7857
34.0054
33.9187
33.9748
33.8311
33.7974
33.8647
33.7457
33.8924
33.8365
33.9452
34.0942
34.0367
34.2247
34.1714
34.2363
34.3215
34.1908
34.2909
34.1628
34.1135
34.1551
34.0357
34.1551
34.1281
34.1288
34.227
34.1628
34.2361
34.1654
34.0611
33.9836
33.647
33.3564
32.9366
32.4299
31.9234
31.2162
30.5762
29.8666
29.1395
28.5623
27.9684
27.5152
27.0968
26.6405
26.4247
26.3971
26.4778
26.728
27.117
27.7283
28.6126
29.6763
30.9163
32.2026
33.6225
35.3802
36.9624
38.4741
39.9278
41.2118
42.4354
43.4808
44.3106
45.0875
45.7454
46.3171
46.8142
47.1916
47.6598
48.0132
48.2231
48.4181
48.25
47.9037
47.1869
45.6552
43.7055
41.1568
37.8611
33.9721
29.3327
24.0348
18.375
12.95
8.32691
4.45395
1.32933
-0.784329
-1.85905
-1.32652
1.51303
5.9581
11.9102
20.012
29.3141
38.0169
45.1278
50.8687
55.3837
58.6463
60.9222
62.4829
63.5089
64.0601
64.2269
64.0947
63.5961
62.8981
62.2318
61.6614
61.122
60.65
60.2429
59.8072
59.2476
58.7039
57.9603
56.8564
55.4673
53.7988
51.7875
49.6042
47.3704
45.2409
43.611
42.6257
42.6097
43.6253
45.3493
47.6675
49.2466
48.7967
45.5986
39.6746
32.2596
24.1733
16.345
9.22631
2.58413
-2.94727
-6.44225
-8.23317
-8.58274
-7.0996
-4.17663
0.254076
5.56411
11.3866
17.6586
23.4187
28.7431
34.6831
40.0426
44.7351
49.0596
54.2268
55.591
62.9529
60.6656
62.9948
62.5758
62.5344
63.077
63.1697
63.4145
63.2317
62.8997
62.2909
62.0741
60.7356
60.3655
59.3098
58.0913
57.129
55.7666
54.0615
52.701
50.8589
48.8036
46.9637
44.8338
42.1805
39.7128
37.1196
34.2125
31.4852
28.7471
37.3016
36.7319
35.0239
33.4307
32.3681
31.9595
32.0589
32.6186
33.0156
33.4178
33.7074
33.8191
34.0261
33.9475
33.9632
33.8775
33.7956
33.8952
33.7767
33.8767
33.8882
33.9324
34.1034
34.0399
34.1842
34.1954
34.2074
34.3398
34.236
34.3064
34.2678
34.1916
34.2465
34.1581
34.2165
34.2085
34.1642
34.2465
34.1968
34.1963
34.1807
34.0829
33.9871
33.7857
33.54
33.2264
32.8631
32.4536
31.9569
31.4193
30.833
30.2883
29.7424
29.1815
28.6684
28.092
27.5674
27.1634
26.7951
26.5863
26.5018
26.5544
26.8955
27.4474
28.2671
29.3942
30.6847
32.2392
34.0695
35.9163
37.6905
39.4592
41.118
42.5457
43.8444
44.9283
45.8427
46.718
47.3739
48.089
48.7373
49.124
49.6859
50.1606
50.2585
50.1804
49.8237
49.173
47.7264
45.5713
42.981
39.5852
35.4837
30.7865
25.4596
19.7371
14.1127
9.09271
4.91432
1.5287
-0.894852
-1.99166
-1.2534
1.56276
6.00213
12.186
20.4224
29.6785
38.4035
45.672
51.6035
56.2792
59.6433
61.9472
63.448
64.2792
64.6291
64.6858
64.4912
63.9777
63.3133
62.6712
62.0865
61.4667
60.922
60.3977
59.8011
59.2462
58.6428
57.7646
56.6111
55.322
53.8104
52.0075
50.0573
48.0306
46.0289
44.6062
43.7687
44.1118
45.6228
47.7085
50.2824
52.2738
52.5421
50.5425
45.7938
38.9189
30.8051
22.5218
14.8798
7.74086
1.99365
-1.44819
-3.33517
-4.16649
-3.37414
-0.751662
3.30522
8.36906
14.0768
20.0084
25.627
30.4715
36.8123
42.1084
46.3513
49.9274
56.2816
58.7649
64.5299
62.1022
62.7016
62.1844
62.6867
63.6063
63.9489
64.5281
64.3108
64.1328
63.6564
63.2192
61.8858
61.673
60.3424
59.1288
58.3022
56.6626
54.9389
53.53
51.5135
49.5094
47.6886
45.3772
42.9062
40.7414
38.1322
35.2606
32.7847
30.2318
37.1233
36.6
34.9022
33.4508
32.5173
32.2318
32.3772
32.8595
33.2541
33.5587
33.8013
33.8779
34.001
33.9639
33.924
33.882
33.8076
33.8703
33.8166
33.8571
33.9178
33.9458
34.083
34.0809
34.1614
34.2313
34.2457
34.3456
34.3136
34.3351
34.3322
34.2667
34.2943
34.254
34.248
34.2721
34.2392
34.2469
34.2513
34.2201
34.1903
34.1345
34.0613
33.9409
33.7258
33.5455
33.3154
32.9649
32.6343
32.2398
31.7892
31.3257
30.8034
30.2968
29.6993
29.0355
28.4536
27.8244
27.187
26.6629
26.2355
25.9985
26.0157
26.288
26.9362
27.955
29.2593
30.8914
32.8428
34.8748
36.9673
39.0698
41.0038
42.7372
44.2156
45.5014
46.6592
47.5518
48.3792
49.2369
49.9954
50.4772
51.0205
51.6816
51.8922
51.8392
51.6496
50.9076
49.4101
47.0459
44.1313
40.8731
37.011
32.4128
27.242
21.6885
16.1465
11.0189
6.54795
2.93095
0.512786
-0.448499
0.347041
3.08657
7.57749
13.9332
22.2094
31.2395
39.679
46.774
52.7513
57.5231
60.8633
63.084
64.4487
65.088
65.2741
65.2441
64.9956
64.4222
63.7208
63.0964
62.4152
61.6819
61.2023
60.6286
59.7737
59.0894
58.5816
57.7662
56.6834
55.4908
54.0781
52.4322
50.685
48.7876
46.9491
45.368
44.4414
45.0844
47.1795
49.5736
52.3161
54.6892
55.6034
54.7405
50.8161
44.6521
36.8492
28.9381
21.1751
13.8315
8.16298
4.84728
2.85992
1.2485
1.29391
3.27731
6.78641
11.5283
16.9942
22.6171
27.665
32.5368
38.9379
44.154
47.9607
51.2825
58.1492
62.496
63.4877
61.119
61.7531
60.2765
63.1007
64.3318
64.9783
66.0045
65.7218
65.6033
65.1045
64.2428
63.1145
62.6454
61.1553
60.1818
59.1075
57.3355
55.7719
54.1707
52.1274
50.2463
48.2929
45.8723
43.6376
41.5818
38.9646
36.2247
33.9334
31.4909
36.6443
36.214
34.7106
33.5026
32.7957
32.6185
32.8162
33.1738
33.5094
33.72
33.8579
33.9251
33.9525
33.9448
33.8933
33.8608
33.838
33.8422
33.8583
33.8771
33.9387
34.0003
34.0622
34.1162
34.1582
34.2244
34.2772
34.3246
34.3647
34.3677
34.3785
34.3679
34.3516
34.3521
34.3321
34.3332
34.311
34.2795
34.2864
34.2413
34.2145
34.2009
34.142
34.0752
33.9616
33.8514
33.707
33.4879
33.2599
32.9665
32.6278
32.2317
31.7367
31.2373
30.633
29.9274
29.2059
28.3863
27.5525
26.7256
25.9933
25.5311
25.313
25.4013
25.9025
26.823
28.1448
29.8471
31.8755
34.0821
36.4263
38.7932
40.9542
42.9047
44.6076
46.0653
47.3327
48.3284
49.2266
50.1613
50.995
51.6706
52.2104
52.7337
53.2223
53.2556
52.8958
51.9395
50.2249
47.8765
45.0135
41.8059
38.181
33.8512
28.9189
23.6983
18.5157
13.5897
9.11954
5.46946
3.07508
2.20614
3.10612
5.89297
10.4819
16.8438
24.9552
33.4801
41.3776
48.2432
54.1548
58.7403
61.9425
64.2274
65.5431
65.9733
65.9992
65.8575
65.409
64.7836
64.1443
63.4347
62.629
61.8093
61.3941
60.8323
59.831
59.0998
58.6184
57.8591
56.8809
55.8019
54.4962
53.0291
51.4705
49.5776
47.6758
46.0574
45.0418
45.877
48.4657
51.0442
53.764
56.1942
57.3664
56.9657
53.6953
48.4133
42.258
35.4914
28.2716
21.2148
15.6059
12.1982
9.68531
7.38415
6.68851
8.06943
11.0735
15.1405
20.043
25.3392
29.713
34.5174
40.9143
45.9929
48.8952
52.8908
58.1991
65.871
60.3636
59.5648
61.5062
58.144
64.4815
65.5471
66.362
67.6151
67.1749
66.9282
66.3422
65.2123
64.1736
63.2269
61.9353
60.9891
59.5351
58.0301
56.4227
54.5057
52.7216
50.8825
48.7069
46.464
44.3744
42.1895
39.6735
37.1708
34.9482
32.5218
35.8883
35.5794
34.5134
33.6764
33.2399
33.1456
33.3247
33.53
33.74
33.8644
33.9012
33.9473
33.9065
33.9025
33.8711
33.8381
33.862
33.8314
33.8748
33.8976
33.9366
34.0241
34.0486
34.1376
34.1843
34.2382
34.3268
34.3414
34.4038
34.417
34.4115
34.4386
34.4052
34.414
34.3965
34.3661
34.3637
34.308
34.3094
34.2946
34.2495
34.2624
34.2396
34.2023
34.161
34.1073
34.0487
33.9154
33.7606
33.5694
33.28
32.9238
32.4908
31.9927
31.3523
30.5726
29.7424
28.8181
27.8147
26.8006
25.9391
25.3192
24.929
24.9154
25.3442
26.2002
27.5353
29.2635
31.3316
33.6582
36.1658
38.6631
40.9909
43.0979
44.9165
46.5578
47.9059
48.888
49.9453
50.8525
51.4735
52.4587
53.247
53.3819
53.7205
54.0556
53.4504
52.1301
50.4914
48.4096
45.6261
42.3305
38.7672
34.7931
30.3587
25.5364
20.7056
16.0345
11.7843
8.3686
6.17881
5.47473
6.48394
9.31599
13.9628
20.2677
27.8724
35.7979
43.2292
49.8865
55.5302
59.8746
63.0565
65.2418
66.3195
66.6356
66.6845
66.4677
65.8528
65.1689
64.5702
63.6343
62.5787
61.7962
61.5166
60.9338
59.9043
59.2392
58.8287
58.1194
57.2344
56.3021
55.0808
53.7029
52.3873
50.6509
48.7131
47.4339
46.4219
47.1616
49.7266
52.0309
54.3293
56.4511
57.3658
57.1017
54.1868
50.3943
46.581
41.7351
35.709
29.2691
23.8735
20.0947
16.9142
13.7973
12.4847
13.5092
15.4683
18.5631
23.0917
28.0373
31.8133
36.6216
43.2443
47.834
49.6311
54.3881
58.155
65.4275
57.8285
59.8981
60.7512
59.4584
66.6273
67.5676
68.2976
69.2292
68.4659
67.9857
67.2364
66.0238
64.9617
63.7303
62.6039
61.4817
59.9973
58.5748
56.7052
54.9384
53.3067
51.2164
49.1479
47.1638
44.9586
42.6373
40.2853
38.0059
35.7805
33.3461
35.0781
34.913
34.4059
33.9836
33.7778
33.7074
33.7758
33.8376
33.9089
33.9499
33.9303
33.9416
33.8825
33.867
33.8491
33.8228
33.8566
33.8398
33.8923
33.9302
33.9629
34.0434
34.0628
34.142
34.1948
34.2426
34.3303
34.3499
34.4142
34.443
34.4442
34.4837
34.4611
34.4626
34.4432
34.403
34.3931
34.3326
34.329
34.3221
34.2756
34.306
34.3104
34.298
34.2975
34.2936
34.2873
34.1977
34.0932
33.9657
33.715
33.3788
32.96
32.4482
31.7973
30.9791
30.0837
29.1142
28.0446
26.9759
26.0562
25.3563
24.9237
24.8656
25.2418
26.0788
27.3886
29.1107
31.2166
33.6067
36.1462
38.6817
41.0884
43.2737