/*--------------------------------*- C++ -*----------------------------------*\
| =========                 |                                                 |
| \\      /  F ield         | OpenFOAM: The Open Source CFD Toolbox           |
|  \\    /   O peration     | Version:  2.4.0                                 |
|   \\  /    A nd           | Web:      www.OpenFOAM.org                      |
|    \\/     M anipulation  |                                                 |
\*---------------------------------------------------------------------------*/
FoamFile
{
    version     2.0;
    format      ascii;
    class       volSymmTensorField;
    location    "0.7";
    object      UPrime2Mean;
}
// * * * * * * * * * * * * * * * * * * * * * * * * * * * * * * * * * * * * * //

dimensions      [0 2 -2 0 0 0 0];

internalField   nonuniform List<symmTensor> 
8800
(
(0.0023944 0.00014667 0 0.000272327 0 0)
(0.0457909 -0.00179382 0 9.95393e-05 0 0)
(0.0895594 -0.000155682 0 2.2241e-05 0 0)
(0.112332 0.000276105 0 7.86907e-06 0 0)
(0.127722 0.000220775 0 4.447e-06 0 0)
(0.141836 0.000150007 0 4.87575e-06 0 0)
(0.148763 0.000106182 0 5.54352e-06 0 0)
(0.157144 1.65271e-05 0 6.72439e-06 0 0)
(0.160306 1.22114e-05 0 7.38673e-06 0 0)
(0.166396 -5.93353e-05 0 8.76112e-06 0 0)
(0.167853 -3.07678e-05 0 9.36879e-06 0 0)
(0.173529 -0.000121507 0 1.09679e-05 0 0)
(0.174114 -8.51242e-05 0 1.13328e-05 0 0)
(0.181406 -0.000198097 0 1.30618e-05 0 0)
(0.182509 -0.000254037 0 1.39643e-05 0 0)
(0.193391 -0.000205353 0 1.61663e-05 0 0)
(0.204663 -0.00142617 0 3.07147e-05 0 0)
(0.213357 0.00252029 0 0.000115806 0 0)
(0.332755 -0.0242244 0 0.00247415 0 0)
(0.354558 0.0397332 0 0.00776111 0 0)
(0.0130457 0.00405989 0 0.00162906 0 0)
(0.00177558 -0.00153183 0 0.00215011 0 0)
(0.0147028 -0.00286828 0 0.000876266 0 0)
(0.028449 -0.00275606 0 0.000329494 0 0)
(0.0424527 -0.0024144 0 0.000178302 0 0)
(0.0664302 -0.00229289 0 0.000140724 0 0)
(0.0820967 -0.00203472 0 0.000121943 0 0)
(0.106288 -0.00168467 0 9.49027e-05 0 0)
(0.119321 -0.00158008 0 8.67642e-05 0 0)
(0.138626 -0.00147237 0 7.88792e-05 0 0)
(0.148885 -0.00140083 0 8.05849e-05 0 0)
(0.167099 -0.00166037 0 8.54589e-05 0 0)
(0.17377 -0.00161994 0 9.92234e-05 0 0)
(0.196872 -0.00230243 0 0.000117003 0 0)
(0.200811 -0.0021051 0 0.000140254 0 0)
(0.233388 -0.00484293 0 0.000231003 0 0)
(0.247548 -0.00167252 0 0.000258754 0 0)
(0.293488 -0.0163484 0 0.00130404 0 0)
(0.384301 -0.00727033 0 0.000953278 0 0)
(0.500094 -0.0853252 0 0.0278982 0 0)
(0.0180962 0.00270692 0 0.00094215 0 0)
(0.00910536 0.000968525 0 0.00236511 0 0)
(0.0231457 0.000707369 0 0.00146409 0 0)
(0.0261778 -0.000361043 0 0.000785615 0 0)
(0.0352909 -0.000500661 0 0.000604732 0 0)
(0.044048 -0.00171832 0 0.000585216 0 0)
(0.0553158 -0.00250379 0 0.000544097 0 0)
(0.0701818 -0.00253845 0 0.000424216 0 0)
(0.0895913 -0.00351146 0 0.000377364 0 0)
(0.102201 -0.00314352 0 0.00028634 0 0)
(0.128372 -0.00392419 0 0.000270557 0 0)
(0.137755 -0.0037948 0 0.000265118 0 0)
(0.169097 -0.0048766 0 0.000324895 0 0)
(0.174407 -0.00475876 0 0.000371285 0 0)
(0.218625 -0.00702726 0 0.000553058 0 0)
(0.209648 -0.00657 0 0.000643062 0 0)
(0.290672 -0.0113477 0 0.00115437 0 0)
(0.256085 -0.0118742 0 0.001564 0 0)
(0.412766 -0.0285234 0 0.00561401 0 0)
(0.376922 -0.0610026 0 0.030436 0 0)
(0.0514675 0.0014392 0 0.000557358 0 0)
(0.0519573 0.000266557 0 0.00168823 0 0)
(0.0830531 0.000651713 0 0.00133255 0 0)
(0.0904666 -7.49261e-05 0 0.000787972 0 0)
(0.113578 0.00101928 0 0.000725928 0 0)
(0.118543 -0.000492251 0 0.000831759 0 0)
(0.141199 -0.000941629 0 0.000890792 0 0)
(0.141274 -0.00102336 0 0.000814736 0 0)
(0.17463 -0.00371754 0 0.00080131 0 0)
(0.163569 -0.00299184 0 0.000638697 0 0)
(0.213545 -0.00562549 0 0.000593298 0 0)
(0.188657 -0.00505252 0 0.000617349 0 0)
(0.257408 -0.00785296 0 0.000658559 0 0)
(0.215721 -0.00695712 0 0.000809037 0 0)
(0.309303 -0.0116791 0 0.00104931 0 0)
(0.239779 -0.00889157 0 0.00127963 0 0)
(0.374757 -0.0175517 0 0.00185617 0 0)
(0.25967 -0.0129185 0 0.00317449 0 0)
(0.469156 -0.0310797 0 0.00749914 0 0)
(0.288472 -0.0368032 0 0.0284847 0 0)
(0.197756 0.00089405 0 0.000433369 0 0)
(0.187692 -0.000684972 0 0.00127554 0 0)
(0.213087 -0.00181355 0 0.00122202 0 0)
(0.208879 -0.002496 0 0.000815176 0 0)
(0.232247 -0.00147938 0 0.000743514 0 0)
(0.225157 -0.00331539 0 0.000878051 0 0)
(0.255085 -0.00333184 0 0.00105532 0 0)
(0.238545 -0.00262366 0 0.000994834 0 0)
(0.283186 -0.00668681 0 0.00116047 0 0)
(0.251686 -0.00446119 0 0.000980764 0 0)
(0.312552 -0.00932419 0 0.00101012 0 0)
(0.265539 -0.00686937 0 0.00101714 0 0)
(0.341148 -0.0125846 0 0.00115473 0 0)
(0.279744 -0.00879759 0 0.00129625 0 0)
(0.368365 -0.0177263 0 0.00176166 0 0)
(0.290927 -0.0105088 0 0.0019735 0 0)
(0.395749 -0.0240529 0 0.00306127 0 0)
(0.295312 -0.0122619 0 0.00510056 0 0)
(0.427647 -0.0309864 0 0.0100677 0 0)
(0.288534 -0.0150224 0 0.0389255 0 0)
(0.259952 -0.00377745 0 0.000915392 0 0)
(0.209965 -0.00365254 0 0.00170352 0 0)
(0.203292 -0.0066493 0 0.00188216 0 0)
(0.178662 -0.00558331 0 0.00133427 0 0)
(0.188787 -0.00682654 0 0.00147981 0 0)
(0.171656 -0.00641765 0 0.00149556 0 0)
(0.18504 -0.0075305 0 0.00178983 0 0)
(0.168187 -0.00584408 0 0.00156212 0 0)
(0.186488 -0.0096728 0 0.00208783 0 0)
(0.171195 -0.00726402 0 0.00164379 0 0)
(0.190399 -0.0116569 0 0.00212664 0 0)
(0.179587 -0.00912386 0 0.00178636 0 0)
(0.195054 -0.0136991 0 0.00245231 0 0)
(0.191347 -0.0106428 0 0.00214919 0 0)
(0.198561 -0.0160612 0 0.0034114 0 0)
(0.20547 -0.0118886 0 0.00288627 0 0)
(0.198639 -0.0173262 0 0.00549864 0 0)
(0.220101 -0.011492 0 0.00621119 0 0)
(0.1956 -0.0125393 0 0.015548 0 0)
(0.235885 -0.0025194 0 0.0337203 0 0)
(0.123657 -0.00687061 0 0.002056 0 0)
(0.113879 -0.00829825 0 0.00323191 0 0)
(0.0998415 -0.00668657 0 0.00296336 0 0)
(0.104993 -0.00902513 0 0.00286202 0 0)
(0.11071 -0.00768384 0 0.00301563 0 0)
(0.109612 -0.00756714 0 0.00304903 0 0)
(0.119585 -0.00735819 0 0.00306014 0 0)
(0.115358 -0.0074675 0 0.0031268 0 0)
(0.125327 -0.00713788 0 0.00338098 0 0)
(0.127514 -0.00793067 0 0.00333025 0 0)
(0.129796 -0.00730955 0 0.0035648 0 0)
(0.141913 -0.00823119 0 0.00360466 0 0)
(0.138739 -0.00690877 0 0.00404362 0 0)
(0.15597 -0.00806637 0 0.00419347 0 0)
(0.149953 -0.00499547 0 0.00516309 0 0)
(0.170624 -0.00718783 0 0.0052259 0 0)
(0.161309 -0.000188383 0 0.00741615 0 0)
(0.188966 -0.00296534 0 0.00953964 0 0)
(0.173276 0.0133917 0 0.0171266 0 0)
(0.217144 0.0125988 0 0.0353282 0 0)
(0.194849 -0.00688302 0 0.0030361 0 0)
(0.223753 -0.0144574 0 0.00681144 0 0)
(0.185186 -0.00489037 0 0.00468591 0 0)
(0.220954 -0.011198 0 0.00443649 0 0)
(0.223795 -0.00726811 0 0.00466406 0 0)
(0.219933 -0.00762223 0 0.00492134 0 0)
(0.248035 -0.00562117 0 0.00428622 0 0)
(0.228682 -0.00770328 0 0.00507994 0 0)
(0.259165 -0.00343643 0 0.00465166 0 0)
(0.241637 -0.00715682 0 0.00533085 0 0)
(0.273732 -0.00170645 0 0.0047914 0 0)
(0.252502 -0.00555621 0 0.0055932 0 0)
(0.297193 0.000994462 0 0.00528307 0 0)
(0.262086 -0.00334419 0 0.00629722 0 0)
(0.319396 0.0060646 0 0.00609215 0 0)
(0.275013 0.000276078 0 0.00719255 0 0)
(0.343729 0.0142432 0 0.00784118 0 0)
(0.29191 0.00867271 0 0.0116056 0 0)
(0.370597 0.0318947 0 0.0161665 0 0)
(0.320338 0.0295185 0 0.0347021 0 0)
(0.313645 -0.00280406 0 0.00338045 0 0)
(0.321161 -0.00707071 0 0.00968262 0 0)
(0.294837 0.00150293 0 0.00508645 0 0)
(0.288192 -0.00263523 0 0.00525756 0 0)
(0.327813 -0.000188498 0 0.00506702 0 0)
(0.275283 1.71149e-05 0 0.00573497 0 0)
(0.362181 0.00180422 0 0.00436594 0 0)
(0.271941 0.000716347 0 0.0059033 0 0)
(0.381791 0.00507947 0 0.00455426 0 0)
(0.276126 0.00193875 0 0.00603987 0 0)
(0.399864 0.007812 0 0.0046398 0 0)
(0.284852 0.00468374 0 0.0061535 0 0)
(0.419434 0.0112378 0 0.00515383 0 0)
(0.297167 0.00772615 0 0.00673671 0 0)
(0.437397 0.0166657 0 0.00553259 0 0)
(0.31309 0.0133409 0 0.00732423 0 0)
(0.452688 0.0247094 0 0.00674744 0 0)
(0.334212 0.0245958 0 0.0109704 0 0)
(0.467808 0.0415303 0 0.0134597 0 0)
(0.375426 0.0489577 0 0.0290038 0 0)
(0.286043 0.00326686 0 0.00281033 0 0)
(0.282539 0.00701471 0 0.00784721 0 0)
(0.276711 0.00629332 0 0.00409012 0 0)
(0.242756 0.00794438 0 0.00431586 0 0)
(0.277809 0.0073174 0 0.00417641 0 0)
(0.239197 0.00822988 0 0.00485405 0 0)
(0.285784 0.00812132 0 0.00370537 0 0)
(0.234893 0.0106378 0 0.00484539 0 0)
(0.288677 0.0103841 0 0.00390542 0 0)
(0.240255 0.0116794 0 0.00507445 0 0)
(0.292529 0.0123094 0 0.00396709 0 0)
(0.251752 0.0144688 0 0.00495585 0 0)
(0.29836 0.0143923 0 0.00423559 0 0)
(0.267338 0.0171166 0 0.00532695 0 0)
(0.302308 0.0176713 0 0.00441453 0 0)
(0.288352 0.0222773 0 0.00562215 0 0)
(0.302734 0.0228627 0 0.00536044 0 0)
(0.318269 0.0326247 0 0.00808634 0 0)
(0.301486 0.0342477 0 0.0105655 0 0)
(0.375448 0.053438 0 0.0214723 0 0)
(0.137317 0.00327535 0 0.0025081 0 0)
(0.135198 0.00733913 0 0.00602563 0 0)
(0.116279 0.00446734 0 0.00370285 0 0)
(0.128931 0.00829378 0 0.00330571 0 0)
(0.112278 0.0063145 0 0.00368399 0 0)
(0.133627 0.00802273 0 0.00417821 0 0)
(0.113458 0.00579547 0 0.00332561 0 0)
(0.140027 0.0104665 0 0.00382622 0 0)
(0.109053 0.00673091 0 0.00333574 0 0)
(0.15041 0.0108276 0 0.00400609 0 0)
(0.109355 0.0073046 0 0.00339324 0 0)
(0.162415 0.0120469 0 0.00378619 0 0)
(0.112082 0.00818838 0 0.00342341 0 0)
(0.175547 0.0132307 0 0.00386807 0 0)
(0.114254 0.00961182 0 0.00348083 0 0)
(0.192796 0.0156044 0 0.00396982 0 0)
(0.117495 0.0126027 0 0.00391808 0 0)
(0.217289 0.0216089 0 0.00553766 0 0)
(0.125612 0.0213569 0 0.0075904 0 0)
(0.261909 0.036182 0 0.0155368 0 0)
(0.0346427 0.00100388 0 0.00232803 0 0)
(0.0300546 0.00211968 0 0.00478635 0 0)
(0.0221154 0.000892598 0 0.00331027 0 0)
(0.0365138 0.00351457 0 0.00279114 0 0)
(0.0238212 0.00180642 0 0.00332449 0 0)
(0.0436108 0.00316437 0 0.00335815 0 0)
(0.0281132 0.00123603 0 0.00291722 0 0)
(0.0491434 0.00397733 0 0.00312822 0 0)
(0.0297308 0.00156061 0 0.00283187 0 0)
(0.0561722 0.00408171 0 0.00307172 0 0)
(0.0336415 0.00153646 0 0.00278871 0 0)
(0.0640346 0.00427004 0 0.00275109 0 0)
(0.039587 0.00203254 0 0.00264375 0 0)
(0.0719462 0.00448479 0 0.00265673 0 0)
(0.0464841 0.00256749 0 0.00251303 0 0)
(0.0816322 0.00554918 0 0.00255617 0 0)
(0.0559383 0.00495541 0 0.00269178 0 0)
(0.096734 0.00990143 0 0.00352175 0 0)
(0.0734813 0.0132195 0 0.00542907 0 0)
(0.125902 0.0230289 0 0.0109534 0 0)
(0.0134443 -0.0012827 0 0.00186446 0 0)
(0.00449757 -0.00188965 0 0.00354674 0 0)
(0.0046405 -0.00166072 0 0.002619 0 0)
(0.00611276 -0.00038992 0 0.00200052 0 0)
(0.0091289 -0.00120483 0 0.00251351 0 0)
(0.0123407 -0.000856277 0 0.00234323 0 0)
(0.0138455 -0.00136265 0 0.00221271 0 0)
(0.0167142 -0.000717302 0 0.00217591 0 0)
(0.0170085 -0.00099548 0 0.00202656 0 0)
(0.0210338 -0.000501229 0 0.0020523 0 0)
(0.0224195 -0.00101358 0 0.00192682 0 0)
(0.0267463 -0.000217916 0 0.00174811 0 0)
(0.0287943 -0.000584116 0 0.00169704 0 0)
(0.0335117 2.61821e-05 0 0.00155582 0 0)
(0.0361967 -8.99853e-05 0 0.00151423 0 0)
(0.0420153 0.00102847 0 0.00145019 0 0)
(0.046359 0.00214839 0 0.00163278 0 0)
(0.055462 0.00526013 0 0.00216019 0 0)
(0.0657586 0.00983272 0 0.00379157 0 0)
(0.0839988 0.0184289 0 0.00788549 0 0)
(0.0128484 -0.00148487 0 0.00150865 0 0)
(0.00321326 -0.00239086 0 0.00312129 0 0)
(0.00411435 -0.00237541 0 0.00249199 0 0)
(0.00518875 -0.00125395 0 0.00160724 0 0)
(0.00820694 -0.00141292 0 0.00192382 0 0)
(0.011511 -0.00206376 0 0.00189073 0 0)
(0.0143113 -0.00198348 0 0.00188705 0 0)
(0.0157267 -0.00205864 0 0.0017842 0 0)
(0.0179567 -0.00179159 0 0.0016238 0 0)
(0.0201448 -0.00176679 0 0.00161453 0 0)
(0.0234219 -0.00181522 0 0.00154634 0 0)
(0.0260626 -0.00160006 0 0.00135261 0 0)
(0.0297083 -0.0014474 0 0.00126812 0 0)
(0.0330135 -0.00145416 0 0.00113928 0 0)
(0.0373135 -0.000970898 0 0.00103841 0 0)
(0.0420576 -0.000525976 0 0.000968114 0 0)
(0.0482383 0.000988749 0 0.00105364 0 0)
(0.0568301 0.00308091 0 0.00142194 0 0)
(0.0695982 0.00760868 0 0.00254873 0 0)
(0.0876457 0.0148485 0 0.00561901 0 0)
(0.0134582 -0.00140684 0 0.00112407 0 0)
(0.00293779 -0.00175876 0 0.00264346 0 0)
(0.00407652 -0.002303 0 0.00229335 0 0)
(0.00556998 -0.00146613 0 0.00140401 0 0)
(0.00982989 -0.00138024 0 0.00156038 0 0)
(0.0115153 -0.00190521 0 0.00158029 0 0)
(0.0159521 -0.00222049 0 0.00167654 0 0)
(0.0164896 -0.00234239 0 0.00164277 0 0)
(0.0207213 -0.00212843 0 0.00147418 0 0)
(0.021044 -0.00186596 0 0.00138675 0 0)
(0.0261684 -0.00194009 0 0.00126814 0 0)
(0.0265903 -0.00182156 0 0.00114292 0 0)
(0.0321437 -0.00160191 0 0.00099468 0 0)
(0.0327411 -0.00180863 0 0.000922963 0 0)
(0.0385683 -0.00113133 0 0.000768432 0 0)
(0.0401111 -0.00111441 0 0.00072302 0 0)
(0.0474604 0.000541719 0 0.000696805 0 0)
(0.0525973 0.00160012 0 0.000903194 0 0)
(0.0655609 0.00572286 0 0.00163632 0 0)
(0.0801505 0.0105518 0 0.00344105 0 0)
(0.0142935 -0.00142796 0 0.000759048 0 0)
(0.00379748 -0.000740661 0 0.00204345 0 0)
(0.00401467 -0.00162456 0 0.00188957 0 0)
(0.00628019 -0.00123323 0 0.00115804 0 0)
(0.0123182 -0.00138543 0 0.00124831 0 0)
(0.012583 -0.00159544 0 0.00126183 0 0)
(0.0177639 -0.00207031 0 0.00135393 0 0)
(0.0160357 -0.00190316 0 0.00134633 0 0)
(0.0205633 -0.00196626 0 0.00122232 0 0)
(0.0176808 -0.0013376 0 0.00107451 0 0)
(0.0222764 -0.00153464 0 0.000943985 0 0)
(0.0184375 -0.00114263 0 0.000854849 0 0)
(0.0229187 -0.00115383 0 0.000694713 0 0)
(0.0186415 -0.00100185 0 0.000677523 0 0)
(0.0227484 -0.000692786 0 0.000510613 0 0)
(0.0191332 -0.000527517 0 0.000531667 0 0)
(0.0238089 0.000484623 0 0.000433196 0 0)
(0.022986 0.0010515 0 0.000593768 0 0)
(0.0313506 0.00364671 0 0.000998641 0 0)
(0.0387453 0.00600592 0 0.00196776 0 0)
(0.0134333 -0.00184384 0 0.000630247 0 0)
(0.00347612 -0.000677895 0 0.0019174 0 0)
(0.0039249 -0.00127942 0 0.0016159 0 0)
(0.00699475 -0.00117521 0 0.000951333 0 0)
(0.0111412 -0.00136312 0 0.000938291 0 0)
(0.0094177 -0.00116949 0 0.000983077 0 0)
(0.0104882 -0.00114472 0 0.00102681 0 0)
(0.00729121 -0.000445108 0 0.000947901 0 0)
(0.00726971 -0.000344399 0 0.000804976 0 0)
(0.00531782 0.000396229 0 0.000640499 0 0)
(0.00507996 0.000235056 0 0.000524011 0 0)
(0.00505565 0.000764556 0 0.000471789 0 0)
(0.00436922 0.000499164 0 0.000365446 0 0)
(0.00668123 0.000979424 0 0.000364163 0 0)
(0.00553508 0.000544147 0 0.000258547 0 0)
(0.00965433 0.0010992 0 0.000291815 0 0)
(0.00874343 0.00053902 0 0.000245843 0 0)
(0.0138328 0.00138357 0 0.00032859 0 0)
(0.0153129 0.00131801 0 0.000674852 0 0)
(0.0221989 0.00306357 0 0.000943445 0 0)
(0.0130575 -0.00293871 0 0.000949727 0 0)
(0.00227179 -0.00120165 0 0.00238729 0 0)
(0.00188831 -0.000531636 0 0.00153123 0 0)
(0.00267878 -5.04312e-05 0 0.000832087 0 0)
(0.0025735 0.000449687 0 0.000663361 0 0)
(0.00348754 0.00121398 0 0.000606161 0 0)
(0.00626677 0.00159573 0 0.000552147 0 0)
(0.0134792 0.00198831 0 0.000446142 0 0)
(0.0180363 0.00180169 0 0.00033782 0 0)
(0.0293127 0.00191217 0 0.00024472 0 0)
(0.031945 0.00156259 0 0.000186398 0 0)
(0.0458376 0.0017023 0 0.000168023 0 0)
(0.045032 0.00128885 0 0.000136024 0 0)
(0.0612269 0.00154625 0 0.000132786 0 0)
(0.0572422 0.000813463 0 9.98786e-05 0 0)
(0.0735701 0.00127817 0 0.000114018 0 0)
(0.067607 -0.000145003 0 0.000110088 0 0)
(0.0795124 0.00098192 0 0.000159727 0 0)
(0.0746979 -0.00109591 0 0.000316448 0 0)
(0.0774563 0.00200513 0 0.000626688 0 0)
(0.0126364 -0.0041051 0 0.00162811 0 0)
(0.00157575 0.00147686 0 0.00214165 0 0)
(0.0112866 0.00297908 0 0.000887165 0 0)
(0.0227594 0.00262709 0 0.000341383 0 0)
(0.0359341 0.00237044 0 0.000191478 0 0)
(0.0540865 0.00215408 0 0.000142132 0 0)
(0.0697931 0.00176209 0 0.000117752 0 0)
(0.0882544 0.00145698 0 9.01246e-05 0 0)
(0.0989424 0.00110329 0 7.04087e-05 0 0)
(0.114954 0.000983319 0 5.59249e-05 0 0)
(0.119964 0.000761616 0 4.82476e-05 0 0)
(0.135104 0.000801208 0 4.66033e-05 0 0)
(0.135494 0.000577042 0 4.28128e-05 0 0)
(0.150987 0.000687195 0 3.88449e-05 0 0)
(0.147419 0.00026468 0 3.33591e-05 0 0)
(0.161726 0.000410035 0 3.27587e-05 0 0)
(0.154468 -0.000490532 0 3.77993e-05 0 0)
(0.161796 0.000106983 0 4.88062e-05 0 0)
(0.15551 -0.00170184 0 0.000108793 0 0)
(0.14451 0.000838517 0 0.000374712 0 0)
(0.0023849 -0.000147442 0 0.00027238 0 0)
(0.0458568 0.00179175 0 9.85557e-05 0 0)
(0.089587 0.000159833 0 2.21681e-05 0 0)
(0.111563 -0.00028022 0 8.24023e-06 0 0)
(0.127676 -0.000223955 0 4.87709e-06 0 0)
(0.140359 -0.00017112 0 4.47784e-06 0 0)
(0.148152 -0.000122956 0 4.98879e-06 0 0)
(0.155138 -6.62068e-05 0 4.89221e-06 0 0)
(0.158819 -5.08199e-05 0 5.15748e-06 0 0)
(0.163766 -1.62099e-05 0 4.89068e-06 0 0)
(0.165315 -2.9145e-05 0 5.0824e-06 0 0)
(0.169452 7.96174e-07 0 4.66495e-06 0 0)
(0.169653 -3.28182e-05 0 4.36624e-06 0 0)
(0.173505 -4.59248e-06 0 3.52824e-06 0 0)
(0.172223 -8.06318e-05 0 3.21488e-06 0 0)
(0.17493 -6.74627e-05 0 2.6066e-06 0 0)
(0.171025 -0.000213192 0 2.77941e-06 0 0)
(0.16993 -0.000176081 0 3.18247e-06 0 0)
(0.164864 -0.00060906 0 7.24153e-06 0 0)
(0.14925 0.000811295 0 5.54723e-05 0 0)
(0.673318 -0.340455 0 0.210195 0 0)
(0.763749 -0.404866 0 0.296197 0 0)
(0.763119 -0.390012 0 0.354415 0 0)
(0.79058 -0.339802 0 0.395102 0 0)
(0.794823 -0.285895 0 0.418952 0 0)
(0.907187 -0.246811 0 0.435687 0 0)
(0.980872 -0.237253 0 0.45195 0 0)
(1.19097 -0.260608 0 0.475298 0 0)
(1.30239 -0.295118 0 0.502811 0 0)
(1.52503 -0.341804 0 0.530776 0 0)
(1.59151 -0.3719 0 0.560778 0 0)
(1.78946 -0.413935 0 0.598485 0 0)
(1.82322 -0.428162 0 0.637573 0 0)
(2.01764 -0.46618 0 0.672912 0 0)
(2.05677 -0.484575 0 0.695338 0 0)
(2.26501 -0.537509 0 0.712845 0 0)
(2.29328 -0.580213 0 0.735733 0 0)
(2.51803 -0.659038 0 0.77172 0 0)
(2.51827 -0.708408 0 0.823184 0 0)
(2.79094 -0.790834 0 0.888739 0 0)
(2.82748 -0.828627 0 0.942194 0 0)
(3.16816 -0.918786 0 0.998607 0 0)
(3.21762 -0.97226 0 1.05218 0 0)
(3.58874 -1.07601 0 1.11104 0 0)
(3.63531 -1.13315 0 1.16684 0 0)
(4.03167 -1.24211 0 1.23225 0 0)
(4.07947 -1.29803 0 1.29392 0 0)
(4.50511 -1.42867 0 1.36237 0 0)
(4.55586 -1.49901 0 1.42853 0 0)
(5.00355 -1.65289 0 1.50897 0 0)
(5.04264 -1.72905 0 1.58906 0 0)
(5.52725 -1.89375 0 1.67666 0 0)
(5.55222 -1.96838 0 1.75978 0 0)
(6.1096 -2.15482 0 1.8472 0 0)
(6.11454 -2.23665 0 1.93069 0 0)
(6.7339 -2.45038 0 2.01674 0 0)
(6.67369 -2.52698 0 2.09152 0 0)
(7.31131 -2.74677 0 2.16895 0 0)
(7.15467 -2.80425 0 2.23047 0 0)
(7.78436 -3.0134 0 2.30357 0 0)
(7.51763 -3.03261 0 2.35658 0 0)
(8.11132 -3.21932 0 2.42838 0 0)
(7.74153 -3.1958 0 2.47298 0 0)
(8.31869 -3.37113 0 2.54338 0 0)
(7.88657 -3.31549 0 2.58721 0 0)
(8.47954 -3.49711 0 2.65971 0 0)
(8.03056 -3.41716 0 2.70745 0 0)
(8.6613 -3.614 0 2.79192 0 0)
(8.23592 -3.52903 0 2.85176 0 0)
(8.89952 -3.73929 0 2.95954 0 0)
(8.49964 -3.66663 0 3.03741 0 0)
(9.16567 -3.8717 0 3.17026 0 0)
(8.73813 -3.79085 0 3.26081 0 0)
(9.37173 -3.95845 0 3.39613 0 0)
(8.84852 -3.82339 0 3.46709 0 0)
(9.43757 -3.94064 0 3.57963 0 0)
(8.80672 -3.72762 0 3.59935 0 0)
(9.3751 -3.81722 0 3.67711 0 0)
(8.6917 -3.56083 0 3.66147 0 0)
(9.29669 -3.67695 0 3.72504 0 0)
(8.61274 -3.42611 0 3.71578 0 0)
(9.27663 -3.608 0 3.80109 0 0)
(8.56935 -3.37221 0 3.8308 0 0)
(9.23927 -3.60316 0 3.9579 0 0)
(8.42457 -3.32361 0 4.00148 0 0)
(9.02967 -3.5178 0 4.12162 0 0)
(8.17575 -3.16733 0 4.09765 0 0)
(8.7442 -3.24048 0 4.12471 0 0)
(7.92497 -2.90984 0 4.07199 0 0)
(8.56508 -2.95177 0 4.12679 0 0)
(7.79706 -2.68813 0 4.15496 0 0)
(8.52226 -2.71597 0 4.21614 0 0)
(7.79669 -2.46527 0 4.23433 0 0)
(8.61837 -2.53041 0 4.28979 0 0)
(7.90735 -2.30805 0 4.35703 0 0)
(8.78903 -2.41516 0 4.48005 0 0)
(8.11546 -2.20863 0 4.61439 0 0)
(9.00811 -2.35328 0 4.81353 0 0)
(8.29369 -2.14174 0 4.98989 0 0)
(9.18266 -2.2861 0 5.23387 0 0)
(8.28128 -2.03559 0 5.39203 0 0)
(9.25924 -2.19752 0 5.58907 0 0)
(8.1438 -1.90155 0 5.68345 0 0)
(9.26385 -2.12885 0 5.82343 0 0)
(8.02382 -1.76712 0 5.85026 0 0)
(9.05898 -2.02306 0 5.9739 0 0)
(8.00796 -1.62813 0 5.99062 0 0)
(8.76915 -1.84067 0 6.17662 0 0)
(8.04398 -1.48897 0 6.2424 0 0)
(8.65701 -1.61231 0 6.45453 0 0)
(8.12962 -1.35923 0 6.53125 0 0)
(8.7617 -1.47833 0 6.68295 0 0)
(8.37144 -1.3054 0 6.75765 0 0)
(9.08924 -1.42139 0 6.89154 0 0)
(8.70609 -1.2945 0 6.98478 0 0)
(9.42547 -1.40012 0 7.14247 0 0)
(9.03226 -1.31222 0 7.28778 0 0)
(9.73176 -1.37456 0 7.50765 0 0)
(9.26658 -1.32111 0 7.71864 0 0)
(9.78701 -1.3223 0 8.00509 0 0)
(9.19934 -1.26515 0 8.29299 0 0)
(9.60883 -1.28817 0 8.62964 0 0)
(8.83073 -1.21961 0 9.00325 0 0)
(9.30576 -1.32558 0 9.43028 0 0)
(8.36192 -1.23845 0 9.66139 0 0)
(9.03247 -1.46262 0 10.0418 0 0)
(7.96562 -1.23403 0 10.1629 0 0)
(8.88628 -1.55625 0 10.4054 0 0)
(7.70907 -1.2024 0 10.4383 0 0)
(8.74436 -1.63587 0 10.6967 0 0)
(7.55653 -1.24579 0 10.6238 0 0)
(8.48445 -1.67864 0 10.8103 0 0)
(7.47844 -1.28236 0 10.6715 0 0)
(8.21593 -1.63234 0 10.8214 0 0)
(7.4614 -1.22448 0 10.674 0 0)
(7.91508 -1.51642 0 10.8221 0 0)
(7.38858 -1.17077 0 10.768 0 0)
(7.6486 -1.40838 0 10.9291 0 0)
(7.43985 -1.12794 0 10.9097 0 0)
(7.67145 -1.28886 0 11.0445 0 0)
(7.70908 -1.08239 0 11.1122 0 0)
(7.80462 -1.18064 0 11.2818 0 0)
(7.87716 -0.976435 0 11.4401 0 0)
(7.8328 -1.08954 0 11.6301 0 0)
(7.89786 -0.912148 0 11.7597 0 0)
(7.82544 -1.07842 0 11.9035 0 0)
(7.76583 -0.866123 0 11.9719 0 0)
(7.81244 -1.08192 0 12.0648 0 0)
(7.74676 -0.816783 0 12.0325 0 0)
(7.84945 -1.08359 0 12.01 0 0)
(7.93232 -0.846334 0 12.0124 0 0)
(7.99181 -1.09302 0 11.9997 0 0)
(8.22796 -0.905286 0 12.0378 0 0)
(8.12304 -1.05592 0 12.0769 0 0)
(8.41756 -0.934835 0 12.1297 0 0)
(8.16151 -0.963335 0 12.2183 0 0)
(8.49147 -0.86336 0 12.3056 0 0)
(8.13935 -0.803117 0 12.4946 0 0)
(8.40197 -0.737008 0 12.6238 0 0)
(8.00497 -0.610965 0 12.7921 0 0)
(8.2041 -0.656268 0 12.8893 0 0)
(7.77872 -0.479919 0 12.9127 0 0)
(8.01132 -0.529401 0 12.9681 0 0)
(7.53849 -0.342552 0 12.9875 0 0)
(7.7467 -0.352496 0 13.1763 0 0)
(7.2426 -0.18705 0 13.1765 0 0)
(7.50605 -0.167103 0 13.2705 0 0)
(7.04825 0.0232106 0 13.2693 0 0)
(7.32743 0.0721278 0 13.391 0 0)
(6.83431 0.177743 0 13.3437 0 0)
(7.11545 0.337936 0 13.5566 0 0)
(6.64071 0.316987 0 13.423 0 0)
(6.88652 0.567533 0 13.5441 0 0)
(6.50095 0.474962 0 13.4345 0 0)
(6.70468 0.750307 0 13.5941 0 0)
(6.40259 0.581629 0 13.4228 0 0)
(6.57867 0.853107 0 13.5699 0 0)
(6.3566 0.708596 0 13.4246 0 0)
(6.46859 0.878676 0 13.5242 0 0)
(6.21875 0.743859 0 13.435 0 0)
(6.18828 0.842167 0 13.6039 0 0)
(6.01699 0.637923 0 13.585 0 0)
(5.92308 0.750367 0 13.6142 0 0)
(5.84418 0.485121 0 13.5887 0 0)
(5.77431 0.62202 0 13.4933 0 0)
(5.73977 0.288405 0 13.4951 0 0)
(5.65315 0.401184 0 13.4255 0 0)
(5.63627 -0.012453 0 13.3696 0 0)
(5.49227 0.0797959 0 13.1833 0 0)
(5.52433 -0.301239 0 13.0319 0 0)
(5.32075 -0.269272 0 12.7188 0 0)
(5.41304 -0.683616 0 12.3729 0 0)
(5.14052 -0.618535 0 11.9233 0 0)
(5.32016 -1.06596 0 11.6034 0 0)
(5.12215 -0.874421 0 11.0716 0 0)
(5.2443 -1.27935 0 10.8307 0 0)
(5.20268 -1.00545 0 10.349 0 0)
(5.16707 -1.47254 0 9.98467 0 0)
(5.19381 -1.13094 0 9.7007 0 0)
(5.16792 -1.47461 0 9.23995 0 0)
(5.21309 -1.22516 0 9.09775 0 0)
(5.12578 -1.36091 0 8.44548 0 0)
(5.07011 -1.28078 0 8.54094 0 0)
(5.08059 -1.1088 0 7.71743 0 0)
(4.94526 -1.24045 0 8.15566 0 0)
(4.95389 -0.686294 0 7.13622 0 0)
(4.76433 -1.14357 0 8.01892 0 0)
(4.71242 -0.305222 0 6.73121 0 0)
(4.4032 -1.03578 0 8.10124 0 0)
(4.38965 0.139616 0 6.63137 0 0)
(3.91848 -0.844535 0 8.48539 0 0)
(3.99274 0.652781 0 6.82868 0 0)
(3.42339 -0.571603 0 9.29769 0 0)
(3.38807 1.20643 0 7.48393 0 0)
(2.99877 -0.0876964 0 10.7956 0 0)
(2.91468 2.16782 0 9.21362 0 0)
(2.63069 0.441448 0 13.2468 0 0)
(2.46892 3.52894 0 12.5378 0 0)
(2.7744 2.74928 0 19.0897 0 0)
(0.80277 0.983551 0 22.0835 0 0)
(0.57902 -0.28148 0 0.238532 0 0)
(0.571337 -0.298721 0 0.310522 0 0)
(0.559487 -0.275365 0 0.328201 0 0)
(0.534916 -0.24472 0 0.336041 0 0)
(0.539411 -0.217732 0 0.334984 0 0)
(0.558882 -0.210097 0 0.332996 0 0)
(0.601355 -0.223088 0 0.340645 0 0)
(0.670017 -0.255695 0 0.359954 0 0)
(0.731038 -0.282541 0 0.382395 0 0)
(0.808673 -0.319801 0 0.405384 0 0)
(0.848384 -0.337095 0 0.429848 0 0)
(0.920332 -0.374565 0 0.461308 0 0)
(0.94982 -0.386112 0 0.492893 0 0)
(1.04234 -0.426164 0 0.525302 0 0)
(1.08442 -0.439817 0 0.552655 0 0)
(1.22194 -0.494755 0 0.581891 0 0)
(1.28337 -0.527445 0 0.613624 0 0)
(1.47257 -0.61256 0 0.654455 0 0)
(1.53523 -0.656907 0 0.697178 0 0)
(1.75138 -0.752723 0 0.749714 0 0)
(1.79622 -0.78893 0 0.798566 0 0)
(2.03959 -0.884929 0 0.853868 0 0)
(2.07637 -0.916972 0 0.905083 0 0)
(2.35721 -1.0224 0 0.965067 0 0)
(2.38556 -1.05209 0 1.02122 0 0)
(2.71177 -1.16923 0 1.09141 0 0)
(2.74419 -1.19974 0 1.15823 0 0)
(3.1276 -1.3357 0 1.23766 0 0)
(3.17495 -1.38018 0 1.31091 0 0)
(3.60746 -1.54218 0 1.39779 0 0)
(3.65203 -1.60062 0 1.47634 0 0)
(4.11236 -1.78083 0 1.56631 0 0)
(4.12274 -1.83893 0 1.64414 0 0)
(4.5977 -2.0277 0 1.73352 0 0)
(4.54766 -2.07513 0 1.80719 0 0)
(5.03084 -2.2672 0 1.89423 0 0)
(4.88738 -2.28845 0 1.96117 0 0)
(5.37317 -2.47443 0 2.0405 0 0)
(5.11815 -2.45846 0 2.09709 0 0)
(5.62198 -2.64306 0 2.1689 0 0)
(5.27115 -2.58475 0 2.21503 0 0)
(5.80856 -2.77398 0 2.28248 0 0)
(5.40219 -2.68136 0 2.32362 0 0)
(5.98461 -2.88812 0 2.39652 0 0)
(5.57087 -2.78043 0 2.43911 0 0)
(6.18287 -3.00832 0 2.53037 0 0)
(5.79701 -2.9041 0 2.58135 0 0)
(6.40898 -3.13811 0 2.69251 0 0)
(6.05315 -3.04121 0 2.75391 0 0)
(6.63621 -3.25909 0 2.87989 0 0)
(6.27033 -3.1542 0 2.94843 0 0)
(6.81522 -3.3414 0 3.07688 0 0)
(6.37886 -3.1933 0 3.14118 0 0)
(6.89961 -3.34741 0 3.2565 0 0)
(6.35642 -3.12126 0 3.29972 0 0)
(6.89134 -3.26544 0 3.39168 0 0)
(6.2723 -2.95709 0 3.40611 0 0)
(6.85721 -3.13483 0 3.48831 0 0)
(6.24101 -2.78701 0 3.49044 0 0)
(6.86434 -3.02945 0 3.59991 0 0)
(6.31618 -2.703 0 3.61308 0 0)
(6.92909 -2.97811 0 3.7433 0 0)
(6.43568 -2.68858 0 3.76266 0 0)
(6.99384 -2.91982 0 3.8799 0 0)
(6.48165 -2.63012 0 3.88297 0 0)
(6.95132 -2.75989 0 3.94009 0 0)
(6.40016 -2.4444 0 3.90077 0 0)
(6.85445 -2.51682 0 3.93211 0 0)
(6.32808 -2.23684 0 3.92219 0 0)
(6.83601 -2.32003 0 4.00808 0 0)
(6.36192 -2.08284 0 4.03063 0 0)
(6.9676 -2.16485 0 4.14058 0 0)
(6.5206 -1.94902 0 4.16399 0 0)
(7.22009 -2.06372 0 4.27514 0 0)
(6.78836 -1.86278 0 4.34331 0 0)
(7.54404 -2.0358 0 4.50597 0 0)
(7.09899 -1.81491 0 4.64494 0 0)
(7.83313 -2.00366 0 4.86428 0 0)
(7.30404 -1.71276 0 5.01814 0 0)
(7.98652 -1.89939 0 5.25935 0 0)
(7.31076 -1.56319 0 5.38577 0 0)
(8.04837 -1.80433 0 5.58943 0 0)
(7.313 -1.45362 0 5.67029 0 0)
(8.03352 -1.74119 0 5.81035 0 0)
(7.41057 -1.4122 0 5.80889 0 0)
(7.98456 -1.64902 0 5.95815 0 0)
(7.57206 -1.39887 0 5.98126 0 0)
(7.98797 -1.53617 0 6.16684 0 0)
(7.80187 -1.35102 0 6.24311 0 0)
(8.1389 -1.41583 0 6.44283 0 0)
(8.05444 -1.31516 0 6.52442 0 0)
(8.40834 -1.39182 0 6.66555 0 0)
(8.33732 -1.30282 0 6.77091 0 0)
(8.75473 -1.37736 0 6.91946 0 0)
(8.62706 -1.3051 0 7.03505 0 0)
(9.08306 -1.3931 0 7.19405 0 0)
(8.89219 -1.32163 0 7.36586 0 0)
(9.36023 -1.38402 0 7.58805 0 0)
(9.02142 -1.31334 0 7.81802 0 0)
(9.43172 -1.32779 0 8.10486 0 0)
(8.96133 -1.22367 0 8.39376 0 0)
(9.30476 -1.28989 0 8.76377 0 0)
(8.66486 -1.13009 0 9.12151 0 0)
(9.11015 -1.302 0 9.51455 0 0)
(8.21285 -1.12177 0 9.705 0 0)
(8.89975 -1.41214 0 10.0624 0 0)
(7.75779 -1.07746 0 10.1646 0 0)
(8.73001 -1.47263 0 10.445 0 0)
(7.45513 -1.00454 0 10.434 0 0)
(8.64547 -1.45138 0 10.6729 0 0)
(7.3 -0.949718 0 10.5929 0 0)
(8.5371 -1.35157 0 10.7883 0 0)
(7.25878 -0.89273 0 10.6374 0 0)
(8.47375 -1.20828 0 10.8295 0 0)
(7.26005 -0.883169 0 10.7299 0 0)
(8.33611 -1.16813 0 10.8894 0 0)
(7.35881 -0.923852 0 10.8138 0 0)
(8.30957 -1.16299 0 10.9347 0 0)
(7.59281 -0.917773 0 10.9256 0 0)
(8.51487 -1.13943 0 11.0685 0 0)
(7.89002 -0.901007 0 11.1734 0 0)
(8.78051 -1.07144 0 11.37 0 0)
(8.06175 -0.806202 0 11.5562 0 0)
(8.91446 -1.00104 0 11.8135 0 0)
(8.07953 -0.653565 0 11.976 0 0)
(8.92385 -0.976758 0 12.1376 0 0)
(8.03523 -0.54511 0 12.1781 0 0)
(8.86334 -0.976838 0 12.2216 0 0)
(8.08501 -0.578205 0 12.2439 0 0)
(8.89403 -1.00999 0 12.208 0 0)
(8.27739 -0.765797 0 12.2221 0 0)
(8.99146 -1.03459 0 12.2145 0 0)
(8.52153 -0.901484 0 12.2716 0 0)
(9.03776 -0.977017 0 12.3292 0 0)
(8.64223 -0.942942 0 12.405 0 0)
(9.09312 -0.880323 0 12.453 0 0)
(8.66936 -0.871488 0 12.529 0 0)
(9.08098 -0.713974 0 12.6798 0 0)
(8.52319 -0.720735 0 12.8447 0 0)
(8.92537 -0.523556 0 13.0009 0 0)
(8.21901 -0.556946 0 13.1472 0 0)
(8.67903 -0.392136 0 13.1069 0 0)
(7.89391 -0.48006 0 13.1964 0 0)
(8.40824 -0.242975 0 13.1905 0 0)
(7.51249 -0.406932 0 13.4099 0 0)
(8.15656 -0.0784558 0 13.3572 0 0)
(7.18392 -0.318182 0 13.4661 0 0)
(7.91807 0.0722705 0 13.4402 0 0)
(6.85592 -0.115645 0 13.6209 0 0)
(7.57023 0.20073 0 13.5427 0 0)
(6.63606 0.149063 0 13.754 0 0)
(7.28662 0.334511 0 13.5487 0 0)
(6.44143 0.340296 0 13.724 0 0)
(7.15162 0.491458 0 13.6263 0 0)
(6.33945 0.533553 0 13.7615 0 0)
(7.09322 0.514598 0 13.5347 0 0)
(6.27623 0.706051 0 13.7464 0 0)
(7.02395 0.594855 0 13.5921 0 0)
(6.12291 0.766219 0 13.7276 0 0)
(6.78505 0.65139 0 13.7934 0 0)
(5.90546 0.800543 0 13.8727 0 0)
(6.52205 0.552191 0 13.8234 0 0)
(5.76937 0.764577 0 13.8391 0 0)
(6.35917 0.47028 0 13.7089 0 0)
(5.58034 0.666832 0 13.7883 0 0)
(6.15629 0.277478 0 13.6912 0 0)
(5.43678 0.500614 0 13.7477 0 0)
(5.96139 0.0834397 0 13.6859 0 0)
(5.3556 0.378719 0 13.5139 0 0)
(5.76116 -0.210046 0 13.4234 0 0)
(5.27855 0.185988 0 13.0865 0 0)
(5.48704 -0.453116 0 12.8838 0 0)
(5.26354 -0.143246 0 12.3845 0 0)
(5.13243 -0.813646 0 12.0885 0 0)
(5.41978 -0.525895 0 11.5151 0 0)
(4.83766 -1.22715 0 11.0986 0 0)
(5.64578 -0.788506 0 10.7909 0 0)
(4.72352 -1.49272 0 10.3494 0 0)
(5.66793 -1.12771 0 10.0796 0 0)
(4.67467 -1.59659 0 9.59822 0 0)
(5.50808 -1.41134 0 9.53785 0 0)
(4.69298 -1.53863 0 8.77978 0 0)
(5.35283 -1.64584 0 9.04496 0 0)
(4.65178 -1.29845 0 7.88643 0 0)
(5.18158 -1.76059 0 8.71228 0 0)
(4.60709 -0.885654 0 7.15284 0 0)
(4.90425 -1.72004 0 8.5824 0 0)
(4.61499 -0.424535 0 6.67275 0 0)
(4.4645 -1.64234 0 8.65564 0 0)
(4.44126 -0.0189089 0 6.49548 0 0)
(4.03413 -1.45618 0 9.05558 0 0)
(3.95313 0.4862 0 6.6412 0 0)
(3.74855 -1.26645 0 9.81807 0 0)