/*--------------------------------*- C++ -*----------------------------------*\
| =========                 |                                                 |
| \\      /  F ield         | OpenFOAM: The Open Source CFD Toolbox           |
|  \\    /   O peration     | Version:  2.4.0                                 |
|   \\  /    A nd           | Web:      www.OpenFOAM.org                      |
|    \\/     M anipulation  |                                                 |
\*---------------------------------------------------------------------------*/
FoamFile
{
    version     2.0;
    format      ascii;
    class       volScalarField;
    location    "0.2";
    object      p;
}
// * * * * * * * * * * * * * * * * * * * * * * * * * * * * * * * * * * * * * //

dimensions      [0 2 -2 0 0 0 0];

internalField   nonuniform List<scalar> 
4400
(
-13.4132
-13.3107
-13.5074
-14.3006
-14.2299
-13.5701
-13.6271
-14.1648
-14.5147
-14.4246
-14.4223
-14.5325
-14.5397
-14.9569
-14.5762
-15.5372
-14.5744
-16.0973
-15.2361
-16.9922
-13.4624
-13.3173
-13.5071
-14.3049
-14.2337
-13.5686
-13.6252
-14.1645
-14.5208
-14.4198
-14.4371
-14.5165
-14.5956
-14.9066
-14.6639
-15.3509
-14.7422
-15.7718
-15.5486
-16.984
-13.4884
-13.318
-13.5035
-14.3061
-14.2337
-13.5651
-13.6211
-14.1651
-14.5154
-14.4299
-14.4246
-14.5646
-14.558
-15.0083
-14.5531
-15.4908
-14.6107
-16.0305
-15.2938
-17.0765
-13.5127
-13.3235
-13.5025
-14.3084
-14.2362
-13.5642
-13.6218
-14.1639
-14.5261
-14.4152
-14.4641
-14.5011
-14.6752
-14.841
-14.7399
-15.151
-14.8613
-15.5604
-15.6508
-16.8819
-13.5331
-13.3285
-13.5008
-14.3095
-14.2373
-13.5629
-13.6176
-14.1656
-14.5187
-14.4305
-14.4382
-14.5581
-14.6032
-14.9453
-14.6327
-15.3001
-14.767
-15.5988
-15.5291
-16.4494
-13.5494
-13.3332
-13.4993
-14.31
-14.2385
-13.562
-13.6181
-14.1642
-14.5275
-14.4165
-14.4728
-14.4962
-14.698
-14.8067
-14.7639
-15.1348
-14.8673
-15.4597
-15.4709
-16.3035
-13.5621
-13.3372
-13.4982
-14.3105
-14.2395
-13.5619
-13.6154
-14.1662
-14.5223
-14.4277
-14.453
-14.5286
-14.6529
-14.8365
-14.7569
-15.0383
-14.9468
-15.1796
-15.4131
-16.0179
-13.5714
-13.3405
-13.4974
-14.3108
-14.2404
-13.5616
-13.6157
-14.1656
-14.5264
-14.4211
-14.4699
-14.4978
-14.6912
-14.7881
-14.7618
-15.1132
-14.8551
-15.2508
-15.3125
-15.5906
-13.5775
-13.3428
-13.4969
-14.3109
-14.2408
-13.5617
-13.6143
-14.1672
-14.5241
-14.4264
-14.4622
-14.5039
-14.6839
-14.7573
-14.8009
-14.8755
-14.9814
-15.0157
-15.1142
-15.5336
-13.5805
-13.344
-13.4967
-14.3111
-14.2411
-13.5619
-13.6139
-14.1678
-14.5246
-14.4263
-14.4647
-14.4981
-14.6822
-14.7526
-14.7676
-15.027
-14.8263
-14.9702
-15.0873
-15.0272
-13.5805
-13.3441
-13.4967
-14.3112
-14.241
-13.5623
-13.6134
-14.169
-14.5235
-14.4289
-14.4628
-14.4957
-14.685
-14.7272
-14.8006
-14.8084
-14.9067
-14.9043
-14.7721
-14.9392
-13.5775
-13.3429
-13.497
-14.3113
-14.2407
-13.5627
-13.6133
-14.17
-14.5227
-14.4313
-14.4608
-14.4969
-14.6787
-14.7283
-14.773
-14.9417
-14.7974
-14.7997
-14.7914
-14.5919
-13.5714
-13.3407
-13.4975
-14.3113
-14.2401
-13.5634
-13.6134
-14.1712
-14.5216
-14.4338
-14.459
-14.4974
-14.6768
-14.7186
-14.7778
-14.7831
-14.7965
-14.758
-14.5509
-14.3949
-13.5621
-13.3375
-13.4983
-14.3112
-14.2392
-13.5641
-13.6138
-14.1724
-14.5205
-14.4364
-14.4569
-14.4997
-14.6717
-14.7186
-14.7658
-14.8614
-14.7534
-14.6729
-14.4782
-14.1977
-13.5494
-13.3335
-13.4994
-14.311
-14.238
-13.565
-13.6145
-14.1736
-14.5194
-14.4389
-14.4551
-14.502
-14.6679
-14.7172
-14.7589
-14.8053
-14.7162
-14.6263
-14.3657
-14.0122
-13.5331
-13.3289
-13.5009
-14.3105
-14.2368
-13.5661
-13.6154
-14.1741
-14.5183
-14.4412
-14.4536
-14.5045
-14.664
-14.7176
-14.7492
-14.7972
-14.69
-14.5766
-14.2745
-13.8643
-13.5128
-13.3239
-13.5026
-14.3096
-14.2356
-13.5681
-13.6173
-14.1755
-14.5175
-14.4434
-14.4525
-14.5068
-14.6608
-14.7179
-14.7422
-14.7823
-14.6648
-14.5364
-14.2002
-13.7401
-13.4884
-13.3184
-13.5036
-14.3074
-14.2332
-13.5688
-13.6182
-14.1756
-14.5165
-14.4451
-14.4517
-14.5086
-14.6582
-14.7183
-14.7361
-14.7711
-14.6457
-14.5051
-14.1429
-13.6452
-13.4624
-13.3177
-13.5073
-14.3063
-14.2331
-13.5728
-13.6213
-14.1764
-14.5162
-14.4467
-14.4518
-14.51
-14.6564
-14.7186
-14.7314
-14.7635
-14.6319
-14.4831
-14.1039
-13.5795
-13.4133
-13.3111
-13.5076
-14.302
-14.2294
-13.5742
-13.6235
-14.1764
-14.5148
-14.4472
-14.4519
-14.5107
-14.6555
-14.7186
-14.7291
-14.7593
-14.6251
-14.4718
-14.0841
-13.5463
-22.3291
-50.0617
-16.487
-5.96621
-1.94904
0.617626
1.94843
2.53321
2.79213
2.90347
2.94379
2.95043
2.94121
2.92435
2.90367
2.88097
2.85715
2.83263
2.80763
2.78228
2.75664
2.73077
2.70467
2.67835
2.65183
2.62511
2.59821
2.57111
2.54382
2.51633
2.48863
2.46074
2.43265
2.40437
2.37589
2.34721
2.31833
2.28925
2.25996
2.23046
2.20075
2.17083
2.1407
2.11036
2.07981
2.04904
2.01805
1.98685
1.95543
1.92379
1.89193
1.85984
1.82752
1.79498
1.76221
1.72921
1.69598
1.66251
1.62881
1.59487
1.56069
1.52627
1.49161
1.45671
1.42156
1.38616
1.35052
1.31462
1.27847
1.24207
1.20541
1.1685
1.13132
1.09388
1.05618
1.01822
0.979986
0.941485
0.902714
0.86367
0.824352
0.784757
0.744885
0.704732
0.664296
0.623577
0.582571
0.541277
0.499693
0.457816
0.415645
0.373179
0.330412
0.287349
0.243976
0.200306
0.156332
0.112011
0.067418
0.0225363
-22.3271
-41.261
-16.2922
-6.03247
-2.09105
0.398271
1.775
2.41634
2.71136
2.84771
2.90587
2.92482
2.92399
2.91284
2.89599
2.87586
2.85377
2.8304
2.80616
2.78131
2.75601
2.73036
2.7044
2.67818
2.65171
2.62504
2.59816
2.57108
2.5438
2.51631
2.48862
2.46073
2.43264
2.40436
2.37589
2.34721
2.31833
2.28925
2.25996
2.23046
2.20075
2.17083
2.1407
2.11036
2.07981
2.04904
2.01805
1.98685
1.95543
1.92379
1.89193
1.85984
1.82752
1.79498
1.76221
1.72921
1.69598
1.66251
1.62881
1.59487
1.56069
1.52627
1.49161
1.45671
1.42156
1.38616
1.35052
1.31462
1.27847
1.24207
1.20541
1.1685
1.13132
1.09388
1.05618
1.01822
0.979986
0.941485
0.902714
0.863671
0.824351
0.784758
0.744884
0.704732
0.664296
0.623577
0.582571
0.541278
0.499692
0.457816
0.415645
0.373179
0.33041
0.28735
0.243976
0.200306
0.156333
0.11201
0.0674186
0.0225361
-20.1272
-34.3317
-15.8643
-5.90605
-1.99378
0.341751
1.6503
2.30813
2.6327
2.79302
2.86858
2.89959
2.907
2.90145
2.88839
2.87081
2.85042
2.82818
2.8047
2.78035
2.75538
2.72995
2.70413
2.678
2.6516
2.62497
2.59812
2.57105
2.54378
2.5163
2.48861
2.46073
2.43264
2.40436
2.37589
2.34721
2.31833
2.28925
2.25996
2.23046
2.20075
2.17083
2.1407
2.11036
2.07981
2.04904
2.01805
1.98685
1.95543
1.92379
1.89193
1.85984
1.82752
1.79498
1.76221
1.72921
1.69598
1.66251
1.62881
1.59487
1.56069
1.52627
1.49161
1.45671
1.42156
1.38616
1.35052
1.31462
1.27847
1.24207
1.20541
1.1685
1.13132
1.09388
1.05618
1.01822
0.979986
0.941485
0.902714
0.863671
0.824351
0.784758
0.744884
0.704732
0.664296
0.623577
0.582571
0.541278
0.499692
0.457816
0.415645
0.373179
0.33041
0.28735
0.243976
0.200306
0.156333
0.11201
0.0674187
0.0225361
-19.0955
-29.3049
-15.5695
-6.23122
-2.18486
0.222152
1.53899
2.21336
2.55981
2.74051
2.83227
2.87489
2.89033
2.89025
2.88091
2.86584
2.84712
2.826
2.80326
2.77941
2.75477
2.72954
2.70387
2.67783
2.65149
2.6249
2.59807
2.57102
2.54376
2.51629
2.48861
2.46072
2.43264
2.40436
2.37588
2.34721
2.31833
2.28925
2.25996
2.23046
2.20075
2.17083
2.1407
2.11036
2.07981
2.04904
2.01805
1.98685
1.95543
1.92379
1.89193
1.85984
1.82752
1.79498
1.76221
1.72921
1.69598
1.66251
1.62881
1.59487
1.56069
1.52627
1.49161
1.45671
1.42156
1.38616
1.35052
1.31462
1.27847
1.24207
1.20541
1.1685
1.13132
1.09388
1.05618
1.01822
0.979986
0.941485
0.902714
0.863671
0.824351
0.784758
0.744884
0.704732
0.664296
0.623577
0.582571
0.541278
0.499692
0.457816
0.415645
0.373179
0.33041
0.28735
0.243976
0.200306
0.156333
0.11201
0.0674186
0.0225361
-18.4646
-25.1688
-14.4473
-6.07278
-2.27738
0.00825388
1.38023
2.10957
2.48721
2.68945
2.79706
2.85089
2.87408
2.87933
2.8736
2.86097
2.84389
2.82386
2.80186
2.77848
2.75416
2.72915
2.70361
2.67766
2.65139
2.62483
2.59802
2.57099
2.54374
2.51627
2.4886
2.46072
2.43264
2.40436
2.37588
2.34721
2.31833
2.28925
2.25996
2.23046
2.20075
2.17083
2.1407
2.11036
2.07981
2.04904
2.01805
1.98685
1.95543
1.92379
1.89193
1.85984
1.82752
1.79498
1.76221
1.72921
1.69598
1.66251
1.62881
1.59487
1.56069
1.52627
1.49161
1.45671
1.42156
1.38616
1.35052
1.31462
1.27847
1.24207
1.20541
1.1685
1.13132
1.09388
1.05618
1.01822
0.979986
0.941485
0.902714
0.86367
0.824351
0.784758
0.744884
0.704732
0.664296
0.623577
0.582571
0.541278
0.499692
0.457816
0.415645
0.373179
0.330411
0.28735
0.243976
0.200306
0.156333
0.11201
0.0674186
0.0225361
-17.3628
-21.9819
-13.7177
-6.00005
-2.21924
-0.0698044
1.27958
2.02556
2.42076
2.64049
2.7629
2.82758
2.85831
2.86872
2.8665
2.85624
2.84075
2.82179
2.80049
2.77759
2.75357
2.72876
2.70336
2.6775
2.65128
2.62476
2.59798
2.57096
2.54372
2.51626
2.48859
2.46071
2.43263
2.40436
2.37588
2.34721
2.31833
2.28925
2.25996
2.23046
2.20075
2.17083
2.1407
2.11036
2.07981
2.04904
2.01805
1.98685
1.95543
1.92379
1.89193
1.85984
1.82752
1.79498
1.76221
1.72921
1.69598
1.66251
1.62881
1.59487
1.56069
1.52627
1.49161
1.45671
1.42156
1.38616
1.35052
1.31462
1.27847
1.24207
1.20541
1.1685
1.13132
1.09388
1.05618
1.01822
0.979986
0.941485
0.902714
0.86367
0.824351
0.784758
0.744884
0.704732
0.664296
0.623577
0.582571
0.541278
0.499692
0.457816
0.415645
0.373179
0.330411
0.28735
0.243976
0.200306
0.156333
0.11201
0.0674185
0.0225361
-16.5411
-19.6545
-12.88
-5.89952
-2.29706
-0.222778
1.15285
1.94045
2.35934
2.59533
2.73077
2.80537
2.84317
2.8585
2.85966
2.85168
2.83772
2.81978
2.79917
2.77672
2.753
2.72839
2.70312
2.67734
2.65118
2.6247
2.59794
2.57094
2.5437
2.51625
2.48858
2.46071
2.43263
2.40436
2.37588
2.34721
2.31833
2.28925
2.25996
2.23046
2.20075
2.17083
2.1407
2.11036
2.07981
2.04904
2.01805
1.98685
1.95543
1.92379
1.89193
1.85984
1.82752
1.79498
1.76221
1.72921
1.69598
1.66251
1.62881
1.59487
1.56069
1.52627
1.49161
1.45671
1.42156
1.38616
1.35052
1.31462
1.27847
1.24207
1.20541
1.1685
1.13132
1.09388
1.05618
1.01822
0.979986
0.941485
0.902714
0.86367
0.824351
0.784758
0.744884
0.704732
0.664296
0.623577
0.582571
0.541278
0.499692
0.457816
0.415645
0.373179
0.330411
0.28735
0.243976
0.200306
0.156333
0.11201
0.0674185
0.0225361
-15.8974
-17.803
-12.2042
-5.75354
-2.24258
-0.260849
1.06265
1.8532
2.2942
2.54957
2.69928
2.78393
2.82866
2.84872
2.8531
2.84731
2.83482
2.81786
2.7979
2.77589
2.75246
2.72803
2.70288
2.67719
2.65108
2.62463
2.5979
2.57091
2.54369
2.51624
2.48857
2.4607
2.43263
2.40436
2.37588
2.34721
2.31833
2.28925
2.25996
2.23046
2.20075
2.17083
2.1407
2.11036
2.07981
2.04904
2.01805
1.98685
1.95543
1.92379
1.89193
1.85984
1.82752
1.79498
1.76221
1.72921
1.69598
1.66251
1.62881
1.59487
1.56069
1.52627
1.49161
1.45671
1.42156
1.38616
1.35052
1.31462
1.27847
1.24207
1.20541
1.1685
1.13132
1.09388
1.05618
1.01822
0.979986
0.941485
0.902714
0.86367
0.824351
0.784758
0.744884
0.704732
0.664296
0.623577
0.582571
0.541278
0.499692
0.457816
0.415645
0.373179
0.330411
0.28735
0.243976
0.200306
0.156333
0.11201
0.0674184
0.0225361
-15.3365
-16.2998
-11.5795
-5.85882
-2.34819
-0.342111
0.998819
1.79554
2.24464
2.51046
2.67059
2.76387
2.81494
2.83945
2.84688
2.84315
2.83205
2.81603
2.79669
2.77509
2.75194
2.72769
2.70266
2.67705
2.65099
2.62457
2.59786
2.57088
2.54367
2.51623
2.48857
2.4607
2.43263
2.40435
2.37588
2.34721
2.31833
2.28925
2.25996
2.23046
2.20075
2.17083
2.1407
2.11036
2.07981
2.04904
2.01805
1.98685
1.95543
1.92379
1.89193
1.85984
1.82752
1.79498
1.76221
1.72921
1.69598
1.66251
1.62881
1.59487
1.56069
1.52627
1.49161
1.45671
1.42156
1.38616
1.35052
1.31462
1.27847
1.24207
1.20541
1.1685
1.13132
1.09388
1.05618
1.01822
0.979986
0.941485
0.902714
0.86367
0.824351
0.784758
0.744884
0.704732
0.664296
0.623577
0.582571
0.541278
0.499692
0.457816
0.415645
0.373179
0.330411
0.28735
0.243976
0.200306
0.156333
0.11201
0.0674184
0.0225361
-14.7413
-15.1875
-10.9996
-5.54291
-2.22622
-0.367932
0.894145
1.70737
2.18607
2.47054
2.64288
2.74484
2.80201
2.83071
2.84101
2.83924
2.82945
2.81431
2.79556
2.77435
2.75145
2.72737
2.70245
2.67691
2.6509
2.62452
2.59782
2.57086
2.54365
2.51622
2.48856
2.46069
2.43262
2.40435
2.37588
2.34721
2.31833
2.28925
2.25996
2.23046
2.20075
2.17083
2.1407
2.11036
2.07981
2.04904
2.01805
1.98685
1.95543
1.92379
1.89193
1.85984
1.82752
1.79498
1.76221
1.72921
1.69598
1.66251
1.62881
1.59487
1.56069
1.52627
1.49161
1.45671
1.42156
1.38616
1.35052
1.31462
1.27847
1.24207
1.20541
1.1685
1.13132
1.09388
1.05618
1.01822
0.979986
0.941485
0.902714
0.86367
0.824351
0.784758
0.744884
0.704732
0.664296
0.623577
0.582571
0.541278
0.499693
0.457816
0.415645
0.373179
0.330411
0.28735
0.243976
0.200306
0.156333
0.11201
0.0674184
0.0225362
-14.373
-14.0987
-10.4575
-5.69123
-2.32497
-0.416643
0.834799
1.65007
2.14054
2.43606
2.61774
2.72726
2.78999
2.82258
2.83555
2.83558
2.82702
2.8127
2.7945
2.77365
2.75099
2.72707
2.70226
2.67679
2.65082
2.62446
2.59779
2.57084
2.54364
2.51621
2.48855
2.46069
2.43262
2.40435
2.37588
2.34721
2.31833
2.28925
2.25996
2.23046
2.20075
2.17083
2.1407
2.11036
2.07981
2.04904
2.01805
1.98685
1.95543
1.92379
1.89193
1.85984
1.82752
1.79498
1.76221
1.72921
1.69598
1.66251
1.62881
1.59487
1.56069
1.52627
1.49161
1.45671
1.42156
1.38616
1.35052
1.31462
1.27847
1.24207
1.20541
1.1685
1.13132
1.09388
1.05618
1.01822
0.979986
0.941485
0.902714
0.86367
0.824351
0.784758
0.744884
0.704732
0.664296
0.623577
0.582571
0.541278
0.499693
0.457816
0.415645
0.373179
0.330411
0.28735
0.243976
0.200306
0.156333
0.11201
0.0674183
0.0225362
-13.9125
-13.4467
-10.0739
-5.44255
-2.22599
-0.43686
0.766776
1.58583
2.09442
2.40335
2.59441
2.71102
2.7789
2.81508
2.8305
2.83222
2.82478
2.81122
2.79352
2.77301
2.75057
2.7268
2.70208
2.67667
2.65074
2.62442
2.59776
2.57082
2.54362
2.5162
2.48855
2.46069
2.43262
2.40435
2.37588
2.34721
2.31833
2.28925
2.25996
2.23046
2.20075
2.17083
2.1407
2.11036
2.07981
2.04904
2.01805
1.98685
1.95543
1.92379
1.89193
1.85984
1.82752
1.79498
1.76221
1.72921
1.69598
1.66251
1.62881
1.59487
1.56069
1.52627
1.49161
1.45671
1.42156
1.38616
1.35052
1.31462
1.27847
1.24207
1.20541
1.1685
1.13132
1.09388
1.05618
1.01822
0.979986
0.941485
0.902714
0.86367
0.824351
0.784758
0.744884
0.704732
0.664296
0.623577
0.582571
0.541278
0.499693
0.457816
0.415645
0.373179
0.330411
0.28735
0.243976
0.200306
0.156333
0.11201
0.0674183
0.0225361
-13.6325
-12.7201
-9.63655
-5.45535
-2.29945
-0.488979
0.706097
1.53092
2.05404
2.37423
2.57339
2.69628
2.76883
2.80826
2.82592
2.82915
2.82274
2.80987
2.79263
2.77242
2.75019
2.72655
2.70192
2.67656
2.65068
2.62437
2.59773
2.5708
2.54361
2.51619
2.48854
2.46068
2.43262
2.40435
2.37588
2.3472
2.31833
2.28925
2.25996
2.23046
2.20075
2.17083
2.1407
2.11036
2.07981
2.04904
2.01805
1.98685
1.95543
1.92379
1.89193
1.85984
1.82752
1.79498
1.76221
1.72921
1.69598
1.66251
1.62881
1.59487
1.56069
1.52627
1.49161
1.45671
1.42156
1.38616
1.35052
1.31462
1.27847
1.24207
1.20541
1.1685
1.13132
1.09388
1.05618
1.01822
0.979986
0.941485
0.902714
0.86367
0.824351
0.784758
0.744884
0.704732
0.664296
0.623577
0.582571
0.541278
0.499693
0.457816
0.415645
0.373179
0.330411
0.28735
0.243976
0.200306
0.156333
0.112011
0.0674183
0.0225361
-13.3155
-12.2419
-9.33972
-5.34191
-2.26935
-0.504351
0.65975
1.48254
2.01767
2.34817
2.5546
2.6831
2.75981
2.80215
2.82181
2.8264
2.82092
2.80866
2.79183
2.7719
2.74984
2.72632
2.70177
2.67647
2.65061
2.62433
2.5977
2.57078
2.5436
2.51618
2.48854
2.46068
2.43262
2.40435
2.37588
2.3472
2.31833
2.28925
2.25996
2.23046
2.20075
2.17083
2.1407
2.11036
2.07981
2.04904
2.01805
1.98685
1.95543
1.92379
1.89193
1.85984
1.82752
1.79498
1.76221
1.72921
1.69598
1.66251
1.62881
1.59487
1.56069
1.52627
1.49161
1.45671
1.42156
1.38616
1.35052
1.31462
1.27847
1.24207
1.20541
1.1685
1.13132
1.09388
1.05618
1.01822
0.979986
0.941485
0.902714
0.86367
0.824351
0.784758
0.744884
0.704732
0.664296
0.623577
0.582571
0.541278
0.499693
0.457816
0.415645
0.373179
0.330411
0.28735
0.243976
0.200306
0.156333
0.112011
0.0674183
0.0225361
-13.0958
-11.8187
-9.04325
-5.28679
-2.29912
-0.538542
0.614764
1.43903
1.98542
2.32532
2.53814
2.67152
2.75189
2.79679
2.8182
2.82399
2.81931
2.8076
2.79113
2.77144
2.74954
2.72613
2.70164
2.67639
2.65056
2.6243
2.59768
2.57077
2.54359
2.51618
2.48853
2.46068
2.43262
2.40435
2.37588
2.3472
2.31833
2.28925
2.25996
2.23046
2.20075
2.17083
2.1407
2.11036
2.07981
2.04904
2.01805
1.98685
1.95543
1.92379
1.89193
1.85984
1.82752
1.79498
1.76221
1.72921
1.69598
1.66251
1.62881
1.59487
1.56069
1.52627
1.49161
1.45671
1.42156
1.38616
1.35052
1.31462
1.27847
1.24207
1.20541
1.1685
1.13132
1.09388
1.05618
1.01822
0.979986
0.941485
0.902714
0.86367
0.824351
0.784758
0.744884
0.704732
0.664296
0.623577
0.582571
0.541278
0.499693
0.457816
0.415645
0.373179
0.330411
0.28735
0.243976
0.200306
0.156333
0.112011
0.0674182
0.0225361
-12.8944
-11.4899
-8.81854
-5.23164
-2.31107
-0.560131
0.579442
1.40231
1.95771
2.30575
2.52407
2.66162
2.74512
2.79221
2.81512
2.82193
2.81794
2.80669
2.79053
2.77104
2.74928
2.72596
2.70153
2.67631
2.65051
2.62427
2.59766
2.57075
2.54358
2.51617
2.48853
2.46068
2.43261
2.40435
2.37588
2.3472
2.31833
2.28925
2.25996
2.23046
2.20075
2.17083
2.1407
2.11036
2.07981
2.04904
2.01805
1.98685
1.95543
1.92379
1.89193
1.85984
1.82752
1.79498
1.76221
1.72921
1.69598
1.66251
1.62881
1.59487
1.56069
1.52627
1.49161
1.45671
1.42156
1.38616
1.35052
1.31462
1.27847
1.24207
1.20541
1.1685
1.13132
1.09388
1.05618
1.01822
0.979986
0.941485
0.902714
0.86367
0.824352
0.784758
0.744884
0.704732
0.664296
0.623577
0.582571
0.541278
0.499693
0.457816
0.415645
0.373179
0.330411
0.28735
0.243976
0.200306
0.156333
0.112011
0.0674182
0.0225361
-12.7388
-11.2347
-8.63257
-5.18984
-2.33138
-0.583792
0.5484
1.37117
1.93439
2.28946
2.51242
2.65343
2.73952
2.78843
2.81258
2.82023
2.81681
2.80594
2.79003
2.77072
2.74907
2.72582
2.70144
2.67626
2.65048
2.62424
2.59765
2.57074
2.54358
2.51617
2.48853
2.46067
2.43261
2.40435
2.37588
2.3472
2.31833
2.28925
2.25996
2.23046
2.20075
2.17083
2.1407
2.11036
2.07981
2.04904
2.01805
1.98685
1.95543
1.92379
1.89193
1.85984
1.82752
1.79498
1.76221
1.72921
1.69598
1.66251
1.62881
1.59487
1.56069
1.52627
1.49161
1.45671
1.42156
1.38616
1.35052
1.31462
1.27847
1.24207
1.20541
1.1685
1.13132
1.09388
1.05618
1.01822
0.979986
0.941485
0.902714
0.86367
0.824352
0.784758
0.744884
0.704732
0.664296
0.623577
0.582571
0.541278
0.499693
0.457816
0.415645
0.373179
0.330411
0.28735
0.243976
0.200306
0.156333
0.112011
0.0674182
0.0225361
-12.6188
-11.0447
-8.49301
-5.16089
-2.35217
-0.605065
0.523011
1.3461
1.91567
2.27652
2.50324
2.64699
2.73513
2.78546
2.81059
2.8189
2.81593
2.80535
2.78965
2.77046
2.74891
2.72571
2.70137
2.67621
2.65045
2.62422
2.59763
2.57074
2.54357
2.51616
2.48853
2.46067
2.43261
2.40435
2.37588
2.3472
2.31833
2.28925
2.25996
2.23046
2.20075
2.17083
2.1407
2.11036
2.07981
2.04904
2.01805
1.98685
1.95543
1.92379
1.89193
1.85984
1.82752
1.79498
1.76221
1.72921
1.69598
1.66251
1.62881
1.59487
1.56069
1.52627
1.49161
1.45671
1.42156
1.38616
1.35052
1.31462
1.27847
1.24207
1.20541
1.1685
1.13132
1.09388
1.05618
1.01822
0.979986
0.941485
0.902714
0.86367
0.824352
0.784757
0.744884
0.704732
0.664296
0.623577
0.582571
0.541278
0.499693
0.457816
0.415645
0.373179
0.330411
0.28735
0.243976
0.200306
0.156332
0.112011
0.0674182
0.0225361
-12.5364
-10.9164
-8.39619
-5.14362
-2.37309
-0.624505
0.503039
1.32736
1.90183
2.26707
2.49661
2.64236
2.73198
2.78334
2.80916
2.81795
2.81529
2.80493
2.78937
2.77028
2.74879
2.72563
2.70132
2.67618
2.65043
2.62421
2.59762
2.57073
2.54357
2.51616
2.48852
2.46067
2.43261
2.40435
2.37588
2.3472
2.31833
2.28925
2.25996
2.23046
2.20075
2.17083
2.1407
2.11036
2.07981
2.04904
2.01805
1.98685
1.95543
1.92379
1.89193
1.85984
1.82752
1.79498
1.76221
1.72921
1.69598
1.66251
1.62881
1.59487
1.56069
1.52627
1.49161
1.45671
1.42156
1.38616
1.35052
1.31462
1.27847
1.24207
1.20541
1.1685
1.13132
1.09388
1.05618
1.01822
0.979986
0.941485
0.902714
0.86367
0.824352
0.784757
0.744884
0.704732
0.664296
0.623577
0.582571
0.541277
0.499693
0.457816
0.415645
0.373179
0.330411
0.28735
0.243976
0.200306
0.156332
0.112011
0.0674182
0.0225361
-12.4947
-10.8524
-8.34806
-5.13855
-2.39075
-0.640553
0.48908
1.31537
1.89312
2.26121
2.49258
2.63959
2.73011
2.78209
2.80832
2.81739
2.81492
2.80469
2.78921
2.77018
2.74872
2.72559
2.70129
2.67616
2.65041
2.6242
2.59762
2.57073
2.54357
2.51616
2.48852
2.46067
2.43261
2.40435
2.37588
2.3472
2.31833
2.28925
2.25996
2.23046
2.20075
2.17083
2.1407
2.11036
2.07981
2.04904
2.01805
1.98685
1.95543
1.92379
1.89193
1.85984
1.82752
1.79498
1.76221
1.72921
1.69598
1.66251
1.62881
1.59487
1.56069
1.52627
1.49161
1.45671
1.42156
1.38616
1.35052
1.31462
1.27847
1.24207
1.20541
1.1685
1.13132
1.09388
1.05618
1.01822
0.979986
0.941485
0.902714
0.86367
0.824352
0.784757
0.744884
0.704732
0.664296
0.623577
0.582571
0.541277
0.499693
0.457816
0.415645
0.373179
0.330411
0.28735
0.243976
0.200306
0.156332
0.112011
0.0674182
0.022536
-20.64
-21.3218
-9.8833
-1.68752
2.31909
4.1799
4.50398
4.30766
3.99564
3.70844
3.48006
3.30749
3.17882
3.08231
3.00854
2.95048
2.90311
2.86295
2.82759
2.79538
2.76522
2.73637
2.70831
2.68071
2.65336
2.62611
2.59885
2.57152
2.54408
2.51649
2.48874
2.46081
2.4327
2.4044
2.37591
2.34722
2.31833
2.28925
2.25995
2.23046
2.20075
2.17083
2.1407
2.11036
2.07981
2.04904
2.01805
1.98685
1.95543
1.92379
1.89193
1.85984
1.82752
1.79498
1.76221
1.72921
1.69598
1.66251
1.62881
1.59487
1.56069
1.52627
1.49161
1.45671
1.42156
1.38616
1.35052
1.31462
1.27847
1.24207
1.20541
1.1685
1.13132
1.09388
1.05618
1.01822
0.979986
0.941485
0.902714
0.86367
0.824352
0.784757
0.744885
0.704731
0.664296
0.623577
0.582571
0.541277
0.499693
0.457816
0.415645
0.373179
0.330412
0.287349
0.243976
0.200306
0.156332
0.112011
0.0674177
0.0225362
-20.8472
-21.6534
-10.0107
-1.72185
2.29645
4.165
4.4906
4.29647
3.98715
3.70239
3.47587
3.30464
3.1769
3.08103
3.00769
2.94991
2.90274
2.86271
2.82743
2.79528
2.76516
2.73632
2.70828
2.68069
2.65335
2.6261
2.59885
2.57152
2.54407
2.51649
2.48874
2.46081
2.4327
2.4044
2.37591
2.34722
2.31833
2.28925
2.25995
2.23046
2.20075
2.17083
2.1407
2.11036
2.07981
2.04904
2.01805
1.98685
1.95543
1.92379
1.89193
1.85984
1.82752
1.79498
1.76221
1.72921
1.69598
1.66251
1.62881
1.59487
1.56069
1.52627
1.49161
1.45671
1.42156
1.38616
1.35052
1.31462
1.27847
1.24207
1.20541
1.1685
1.13132
1.09388
1.05618
1.01822
0.979986
0.941485
0.902714
0.86367
0.824352
0.784757
0.744885
0.704731
0.664296
0.623577
0.582571
0.541277
0.499693
0.457816
0.415645
0.373179
0.330412
0.287349
0.243976
0.200306
0.156332
0.112011
0.0674177
0.0225362
-21.2821
-22.3379
-10.2819
-1.79449
2.24999
4.13582
4.46519
4.27587
3.97191
3.69169
3.46857
3.29971
3.1736
3.07884
3.00623
2.94895
2.9021
2.86229
2.82715
2.7951
2.76504
2.73624
2.70823
2.68066
2.65333
2.62609
2.59884
2.57151
2.54407
2.51649
2.48874
2.46081
2.4327
2.4044
2.37591
2.34722
2.31833
2.28925
2.25995
2.23046
2.20075
2.17083
2.1407
2.11036
2.07981
2.04904
2.01805
1.98685
1.95543
1.92379
1.89193
1.85984
1.82752
1.79498
1.76221
1.72921
1.69598
1.66251
1.62881
1.59487
1.56069
1.52627
1.49161
1.45671
1.42156
1.38616
1.35052
1.31462
1.27847
1.24207
1.20541
1.1685
1.13132
1.09388
1.05618
1.01822
0.979986
0.941485
0.902714
0.86367
0.824352
0.784757
0.744885
0.704731
0.664296
0.623577
0.582571
0.541277
0.499693
0.457816
0.415645
0.373179
0.330412
0.287349
0.243976
0.200306
0.156332
0.112011
0.0674177
0.0225363
-21.9717
-23.417
-10.7369
-1.91642
2.17562
4.09097
4.42735
4.2459
3.95005
3.67651
3.45826
3.29278
3.16898
3.07576
3.00418
2.94759
2.90121
2.8617
2.82676
2.79484
2.76487
2.73614
2.70816
2.68062
2.6533
2.62607
2.59882
2.57151
2.54407
2.51648
2.48873
2.46081
2.4327
2.4044
2.37591
2.34722
2.31833
2.28925
2.25995
2.23046
2.20075
2.17083
2.1407
2.11036
2.07981
2.04904
2.01805
1.98685
1.95543
1.92379
1.89193
1.85984
1.82752
1.79498
1.76221
1.72921
1.69598
1.66251
1.62881
1.59487
1.56069
1.52627
1.49161
1.45671
1.42156
1.38616
1.35052
1.31462
1.27847
1.24207
1.20541
1.1685
1.13132
1.09388
1.05618
1.01822
0.979986
0.941485
0.902714
0.86367
0.824352
0.784757
0.744885
0.704731
0.664296
0.623577
0.582571
0.541277
0.499693
0.457816
0.415645
0.373179
0.330412
0.287349
0.243976
0.200306
0.156332
0.112011
0.0674177
0.0225363
-22.9373
-24.9538
-11.4361
-2.10263
2.06826
4.02889
4.37639
4.20627
3.9215
3.65682
3.44495
3.28387
3.16304
3.07181
3.00157
2.94586
2.90006
2.86094
2.82627
2.79452
2.76466
2.736
2.70807
2.68056
2.65326
2.62604
2.59881
2.5715
2.54406
2.51648
2.48873
2.46081
2.4327
2.4044
2.37591
2.34722
2.31833
2.28925
2.25995
2.23046
2.20075
2.17083
2.1407
2.11036
2.07981
2.04904
2.01805
1.98685
1.95543
1.92379
1.89193
1.85984
1.82752
1.79498
1.76221
1.72921
1.69598
1.66251
1.62881
1.59487
1.56069
1.52627
1.49161
1.45671
1.42156
1.38616
1.35052
1.31462
1.27847
1.24207
1.20541
1.1685
1.13132
1.09388
1.05618
1.01822
0.979986
0.941485
0.902714
0.86367
0.824352
0.784757
0.744885
0.704731
0.664296
0.623577
0.582571
0.541277
0.499693
0.457816
0.415645
0.373179
0.330412
0.287349
0.243976
0.200306
0.156332
0.112011
0.0674177
0.0225363
-24.2862
-27.0216
-12.4595
-2.36824
1.92159
3.94751
4.31176
4.15695
3.88634
3.63274
3.42874
3.27304
3.15582
3.06702
2.99839
2.94376
2.89867
2.86003
2.82566
2.79412
2.7644
2.73583
2.70796
2.68049
2.65322
2.62601
2.59879
2.57148
2.54405
2.51647
2.48873
2.4608
2.43269
2.4044
2.37591
2.34722
2.31833
2.28925
2.25995
2.23046
2.20075
2.17083
2.1407
2.11036
2.07981
2.04904
2.01805
1.98685
1.95543
1.92379
1.89193
1.85984
1.82752
1.79498
1.76221
1.72921
1.69598
1.66251
1.62881
1.59487
1.56069
1.52627
1.49161
1.45671
1.42156
1.38616
1.35052
1.31462
1.27847
1.24207
1.20541
1.1685
1.13132
1.09388
1.05618
1.01822
0.979986
0.941485
0.902714
0.86367
0.824352
0.784757
0.744885
0.704731
0.664296
0.623577
0.582571
0.541277
0.499693
0.457816
0.415645
0.373179
0.330412
0.287349
0.243976
0.200306
0.156332
0.112011
0.0674176
0.0225363
-25.9509
-29.661
-13.9057
-2.70548
1.73129
3.84352
4.23265
4.09781
3.84465
3.60436
3.40971
3.26034
3.14738
3.06141
2.99468
2.9413
2.89705
2.85896
2.82496
2.79366
2.7641
2.73563
2.70783
2.6804
2.65316
2.62598
2.59877
2.57147
2.54404
2.51647
2.48872
2.4608
2.43269
2.4044
2.37591
2.34722
2.31833
2.28925
2.25995
2.23046
2.20075
2.17083
2.1407
2.11036
2.07981
2.04904
2.01805
1.98685
1.95543
1.92379
1.89193
1.85984
1.82752
1.79498
1.76221
1.72921
1.69598
1.66251
1.62881
1.59487
1.56069
1.52627
1.49161
1.45671
1.42156
1.38616
1.35052
1.31462
1.27847
1.24207
1.20541
1.1685
1.13132
1.09388
1.05618
1.01822
0.979986
0.941485
0.902714
0.86367
0.824352
0.784757
0.744885
0.704731
0.664296
0.623577
0.582571
0.541277
0.499693
0.457816
0.415645
0.373179
0.330412
0.287349
0.243976
0.200306
0.156332
0.112011
0.0674176
0.0225364
-28.3099
-32.8072
-16.0135
-3.0838
1.50097
3.71243
4.13813
4.02879
3.79655
3.57183
3.38796
3.24586
3.13776
3.05503
2.99044
2.9385
2.8952
2.85774
2.82416
2.79313
2.76375
2.73541
2.70768
2.68031
2.6531
2.62594
2.59874
2.57145
2.54403
2.51646
2.48872
2.4608
2.43269
2.40439
2.3759
2.34722
2.31833
2.28925
2.25996
2.23046
2.20075
2.17083
2.1407
2.11036
2.07981
2.04904
2.01805
1.98685
1.95543
1.92379
1.89193
1.85984
1.82752
1.79498
1.76221
1.72921
1.69598
1.66251
1.62881
1.59487
1.56069
1.52627
1.49161
1.45671
1.42156
1.38616
1.35052
1.31462
1.27847
1.24207
1.20541
1.1685
1.13132
1.09388
1.05618
1.01822
0.979986
0.941485
0.902714
0.86367
0.824352
0.784757
0.744885
0.704731
0.664296
0.623577
0.582571
0.541277
0.499693
0.457816
0.415645
0.373179
0.330412
0.287349
0.243976
0.200306
0.156332
0.112011
0.0674176
0.0225364
-31.0568
-36.2446
-18.962
-3.52981
1.23812
3.54936
4.02695
3.94984
3.74222
3.53531
3.36362
3.22969
3.12702
3.0479
2.98572
2.93537
2.89313
2.85637
2.82326
2.79254
2.76337
2.73516
2.70752
2.6802
2.65303
2.62589
2.59871
2.57143
2.54402
2.51645
2.48871
2.46079
2.43269
2.40439
2.3759
2.34722
2.31833
2.28925
2.25996
2.23046
2.20075
2.17083
2.1407
2.11036
2.07981
2.04904
2.01805
1.98685
1.95543
1.92379
1.89193
1.85984
1.82752
1.79498
1.76221
1.72921
1.69598
1.66251
1.62881
1.59487
1.56069
1.52627
1.49161
1.45671
1.42156
1.38616
1.35052
1.31462
1.27847
1.24207
1.20541
1.1685
1.13132
1.09388
1.05618
1.01822
0.979986
0.941485
0.902714
0.86367
0.824352
0.784757
0.744885
0.704731
0.664296
0.623577
0.582572
0.541277
0.499693
0.457816
0.415645
0.373179
0.330412
0.287349
0.243976
0.200307
0.156332
0.112011
0.0674176
0.0225364
-34.5185
-40.0164
-22.4773
-4.12859
0.942561
3.35025
3.8976
3.86093
3.68187
3.49501
3.33684
3.21192
3.11523
3.04008
2.98054
2.93194
2.89087
2.85488
2.82228
2.7919
2.76294
2.73488
2.70734
2.68009
2.65296
2.62585
2.59868
2.57141
2.54401
2.51644
2.48871
2.46079
2.43269
2.40439
2.3759
2.34722
2.31833
2.28925
2.25996
2.23046
2.20075
2.17083
2.1407
2.11036
2.07981
2.04904
2.01805
1.98685
1.95543
1.92379
1.89193
1.85984
1.82752
1.79498
1.76221
1.72921
1.69598
1.66251
1.62881
1.59487
1.56069
1.52627
1.49161
1.45671
1.42156
1.38616
1.35052
1.31462
1.27847
1.24207
1.20541
1.1685
1.13132
1.09388
1.05618
1.01822
0.979986
0.941485
0.902714
0.86367
0.824352
0.784757
0.744885
0.704731
0.664296
0.623577
0.582572
0.541277
0.499693
0.457816
0.415645
0.373179
0.330412
0.287349
0.243976
0.200307
0.156332
0.112011
0.0674176
0.0225364
-38.6467
-43.5366
-25.1475
-4.83439
0.620614
3.1137
3.74858
3.76207
3.61581
3.45117
3.3078
3.19266
3.10246
3.03161
2.97492
2.92823
2.88841
2.85326
2.82121
2.7912
2.76249
2.73458
2.70715
2.67996
2.65288
2.62579
2.59865
2.57139
2.54399
2.51644
2.4887
2.46079
2.43268
2.40439
2.3759
2.34722
2.31833
2.28925
2.25996
2.23046
2.20075
2.17083
2.1407
2.11036
2.07981
2.04904
2.01805
1.98685
1.95543
1.92379
1.89193
1.85984
1.82752
1.79498
1.76221
1.72921
1.69598
1.66251
1.62881
1.59487
1.56069
1.52627
1.49161
1.45671
1.42156
1.38616
1.35052
1.31462
1.27847
1.24207
1.20541
1.1685
1.13132
1.09388
1.05618
1.01822
0.979986
0.941485
0.902714
0.86367
0.824352
0.784757
0.744885
0.704731
0.664296
0.623577
0.582572
0.541277
0.499693
0.457816
0.415645
0.373179
0.330412
0.287349
0.243976
0.200307
0.156332
0.112011
0.0674176
0.0225364
-41.5676
-46.162
-26.3346