/*--------------------------------*- C++ -*----------------------------------*\
| =========                 |                                                 |
| \\      /  F ield         | OpenFOAM: The Open Source CFD Toolbox           |
|  \\    /   O peration     | Version:  2.4.0                                 |
|   \\  /    A nd           | Web:      www.OpenFOAM.org                      |
|    \\/     M anipulation  |                                                 |
\*---------------------------------------------------------------------------*/
FoamFile
{
    version     2.0;
    format      ascii;
    class       volScalarField;
    location    "0.55";
    object      k;
}
// * * * * * * * * * * * * * * * * * * * * * * * * * * * * * * * * * * * * * //

dimensions      [0 2 -2 0 0 0 0];

internalField   nonuniform List<scalar> 
8800
(
8.12436
10.2658
8.79522
6.81584
5.71442
4.96027
4.5398
4.13264
3.92417
3.65789
3.55212
3.36179
3.299
3.15472
3.10367
2.97994
2.92228
2.7999
2.74136
2.54289
1.40666
4.3514
5.32161
5.28638
5.13218
4.7985
4.58772
4.27702
4.12739
3.87611
3.77799
3.58423
3.5193
3.37464
3.32868
3.21394
3.17465
3.07515
3.01307
2.96348
0.0845221
0.730772
1.56744
1.93629
2.28277
2.43107
2.57772
2.59782
2.62679
2.59849
2.58809
2.54063
2.52475
2.47243
2.45943
2.41281
2.40669
2.36552
2.35268
2.30962
0.00335387
0.0699678
0.26181
0.413132
0.588415
0.702339
0.834103
0.927268
1.03197
1.08683
1.16722
1.20668
1.26269
1.29755
1.33803
1.36282
1.40846
1.42586
1.4651
1.46555
0.000122704
0.00496392
0.0232027
0.0520677
0.0857862
0.128741
0.156813
0.209173
0.242689
0.28708
0.314711
0.361782
0.383938
0.430858
0.452536
0.49903
0.523161
0.577269
0.602049
0.65758
2.49606e-05
0.00031254
0.00147966
0.00434751
0.00703218
0.0131586
0.0172925
0.0271453
0.0329626
0.0450747
0.0511643
0.0646116
0.0710551
0.0860117
0.0932334
0.109896
0.118495
0.140369
0.150068
0.175469
2.15307e-05
4.38071e-05
0.0001178
0.000324285
0.00049334
0.000907981
0.00122876
0.00208697
0.00266515
0.00398585
0.00469386
0.00641347
0.00732731
0.00955251
0.0108034
0.0135895
0.0152188
0.0193463
0.021488
0.0267667
2.09148e-05
3.34485e-05
5.71116e-05
6.425e-05
7.68557e-05
0.000121151
0.000142317
0.00019216
0.00022174
0.000293354
0.000335333
0.000434966
0.00048964
0.000657893
0.000782833
0.000935206
0.00107296
0.00147191
0.00178757
0.00203296
2.07574e-05
2.79354e-05
5.37615e-05
6.29945e-05
6.06118e-05
6.22463e-05
6.88355e-05
8.30469e-05
9.06093e-05
9.48529e-05
9.93636e-05
9.91825e-05
9.93003e-05
0.000102661
0.000114501
0.00011951
0.000124384
0.000144395
0.000154903
0.000175131
2.05371e-05
2.65446e-05
4.38841e-05
6.98474e-05
7.06855e-05
6.68319e-05
6.16897e-05
6.19511e-05
6.87283e-05
7.48319e-05
7.78058e-05
8.04662e-05
8.05654e-05
8.11873e-05
8.21365e-05
8.2432e-05
8.15897e-05
8.13625e-05
8.1437e-05
8.5145e-05
2.06503e-05
2.94115e-05
3.62521e-05
5.13926e-05
6.78108e-05
7.34308e-05
7.3542e-05
7.23671e-05
7.03382e-05
7.0773e-05
7.3818e-05
7.65409e-05
7.95034e-05
7.94542e-05
7.89211e-05
7.8954e-05
7.98077e-05
8.32436e-05
8.52601e-05
8.9266e-05
2.07147e-05
2.73667e-05
4.82774e-05
6.67513e-05
6.62946e-05
6.48892e-05
6.68214e-05
7.75052e-05
8.60598e-05
9.02446e-05
9.06064e-05
9.35833e-05
9.63806e-05
0.00010426
0.000111198
0.000128475
0.000139075
0.000161177
0.000178792
0.000204921
2.11161e-05
3.10912e-05
5.01417e-05
7.08901e-05
8.54102e-05
0.000121243
0.000140097
0.000182862
0.000209826
0.000272578
0.000315247
0.000435163
0.000508372
0.000704516
0.00082103
0.00107969
0.00123074
0.00162329
0.0019416
0.00270763
2.16742e-05
4.35448e-05
0.000116976
0.000346717
0.000520515
0.000930142
0.00124069
0.0020263
0.00255352
0.00377898
0.0045678
0.00650367
0.00750216
0.00995951
0.0113638
0.0145136
0.0162317
0.0205826
0.0234899
0.031445
2.4904e-05
0.000306412
0.00143579
0.00461401
0.00736506
0.0132288
0.0171933
0.0267663
0.0323878
0.0441949
0.0507713
0.0656296
0.0722326
0.0876708
0.0955484
0.113341
0.122319
0.145189
0.158128
0.193448
0.000123415
0.00491808
0.021755
0.054881
0.0880224
0.127538
0.154844
0.210659
0.240272
0.285776
0.314484
0.366626
0.386993
0.434222
0.457343
0.508556
0.531313
0.590927
0.620661
0.695559
0.00335963
0.06946
0.259137
0.419237
0.589052
0.700858
0.831035
0.934739
1.02339
1.08959
1.16281
1.22395
1.2524
1.3099
1.33709
1.38463
1.4041
1.45827
1.4809
1.52719
0.0844803
0.72692
1.56752
1.94017
2.28546
2.42598
2.58157
2.59686
2.62572
2.59787
2.59025
2.54386
2.52588
2.47457
2.4625
2.42022
2.40959
2.38312
2.37156
2.33901
1.40532
4.34893
5.32367
5.28744
5.13291
4.79626
4.58987
4.27174
4.13266
3.87141
3.77851
3.57613
3.5212
3.36413
3.32647
3.19828
3.16779
3.04532
3.00485
2.90092
8.12062
10.2639
8.7988
6.81383
5.7149
4.95946
4.54003
4.12664
3.92883
3.65027
3.55343
3.3436
3.30042
3.12903
3.09584
2.9307
2.89705
2.71485
2.64897
2.43334
1.7695
1.27972
0.988458
0.815785
0.725684
0.680751
0.652116
0.630195
0.612539
0.598943
0.588215
0.580105
0.57104
0.563448
0.552123
0.543174
0.530332
0.522186
0.508433
0.499814
0.485391
0.474967
0.459932
0.44846
0.43488
0.425153
0.415771
0.411143
0.407566
0.406232
0.405836
0.406261
0.406249
0.4075
0.407652
0.410315
0.411119
0.415778
0.417652
0.423521
0.426539
0.429962
0.430145
0.42825
0.423523
0.419254
0.412688
0.398406
0.382663
0.365381
0.348267
0.33111
0.312268
0.301447
0.28177
0.269193
0.247307
0.22521
0.19914
0.169686
0.138321
0.114294
0.092511
0.0797897
0.0725152
0.0730816
0.0745083
0.0775007
0.0805872
0.0829346
0.0839285
0.0840067
0.0835074
0.0829912
0.0830904
0.083847
0.0861864
0.0950715
0.104578
0.124228
0.140357
0.163468
0.175882
0.195341
0.208654
0.219167
0.227623
0.233407
0.237633
0.238707
0.239344
0.238026
0.234137
0.225381
0.206936
0.198691
0.180432
0.1751
0.164241
0.162954
0.158889
0.159803
0.157307
0.160032
0.157299
0.160525
0.158144
0.160648
0.157632
0.160137
0.156516
0.159861
0.157357
0.161813
0.162255
0.170175
0.172716
0.184329
0.183205
0.184088
0.179489
0.174446
0.158652
0.141757
0.111026
0.0812886
0.0548374
0.0365198
0.022273
0.0169645
0.0128332
0.0100849
0.00878774
0.0086105
0.00785579
0.00706148
0.0067226
0.00644005
0.00613793
0.00611836
0.00643448
0.00689368
0.00711597
0.00826731
0.00952602
0.00957799
0.0095757
0.0113236
0.0140917
0.0145598
0.0140882
0.0142423
0.0155623
0.020447
0.0436379
0.142722
0.263299
0.336863
0.371657
0.379256
0.378081
0.367101
0.355631
0.335315
0.285476
0.220953
0.202114
0.202935
0.217994
0.23949
0.238947
0.233366
0.214874
0.163577
0.15099
0.122011
0.134201
0.120159
0.135612
0.123796
0.129074
0.123479
0.121091
0.119268
0.11093
0.108795
0.0993225
0.0975354
0.0903721
0.0865469
0.0854501
0.0858323
0.0881105
0.0935654
0.0951982
0.0999537
0.101088
0.114467
0.142813
0.66022
2.49493
2.03365
1.70757
1.47201
1.29772
1.16648
1.06674
0.992874
0.932425
0.887165
0.846428
0.816631
0.785832
0.763042
0.738419
0.720574
0.701027
0.687319
0.671945
0.661712
0.647888
0.639642
0.62558
0.617643
0.603707
0.596209
0.583404
0.576822
0.565925
0.561647
0.553117
0.549932
0.543221
0.540466
0.534403
0.531725
0.526059
0.523106
0.519155
0.51549
0.513257
0.511179
0.508776
0.507384
0.504444
0.502995
0.499599
0.497283
0.491312
0.487465
0.478631
0.474447
0.462795
0.456829
0.446481
0.44032
0.430583
0.419712
0.410152
0.393908
0.371226
0.348142
0.312604
0.275787
0.237918
0.205434
0.173717
0.154529
0.142607
0.133575
0.130794
0.130632
0.132073
0.136009
0.145361
0.160916
0.181789
0.199489
0.22953
0.249922
0.27353
0.288015
0.306728
0.312637
0.324035
0.327472
0.33158
0.330949
0.332329
0.331055
0.331227
0.330259
0.328162
0.326833
0.323041
0.317952
0.314036
0.305712
0.301254
0.289121
0.283345
0.266614
0.259188
0.242517
0.236922
0.22623
0.224027
0.217027
0.216037
0.211318
0.211732
0.212525
0.213608
0.213699
0.213223
0.211835
0.205974
0.20448
0.194985
0.188548
0.169524
0.155554
0.118368
0.0883107
0.0546638
0.035299
0.0245299
0.0169822
0.0116057
0.00978185
0.00766275
0.00635804
0.00631678
0.0061835
0.00580025
0.00552664
0.00547084
0.0051236
0.00484547
0.0048663
0.00499713
0.00513042
0.00539196
0.00686456
0.00750913
0.00747855
0.00775972
0.0111994
0.0127784
0.0123406
0.0118294
0.0124394
0.015563
0.025374
0.0927553
0.230766
0.337316
0.385283
0.39267
0.390445
0.370393
0.347788
0.337188
0.330044
0.315462
0.290507
0.232137
0.208009
0.20312
0.209893
0.231547
0.22902
0.233353
0.20432
0.199709
0.163044
0.159578
0.143737
0.138732
0.135814
0.127438
0.125667
0.117181
0.114525
0.109238
0.100861
0.0961658
0.0861568
0.085128
0.0814327
0.0836692
0.0827039
0.0874573
0.088186
0.0934012
0.0929328
0.0977086
0.0991915
0.108875
0.224783
2.05818
1.79611
1.5905
1.43155
1.30526
1.19987
1.10613
1.0324
0.961827
0.910538
0.861151
0.826678
0.794263
0.768298
0.742991
0.721851
0.698479
0.68193
0.660167
0.647945
0.630664
0.622277
0.608807
0.602181
0.590317
0.584521
0.573375
0.567102
0.557613
0.551628
0.544022
0.538127
0.532099
0.527682
0.521642
0.51896
0.512472
0.509533
0.503438
0.500544
0.493914
0.491127
0.485429
0.482921
0.477487
0.475398
0.470863
0.469251
0.465323
0.463577
0.460176
0.459262
0.457695
0.457407
0.458182
0.458817
0.461042
0.462297
0.46358
0.464259
0.46338
0.458938
0.454404
0.44178
0.432101
0.410376
0.396933
0.368286
0.3542
0.329975
0.319366
0.308579
0.30653
0.307225
0.311978
0.316536
0.326127
0.331198
0.341225
0.346618
0.349897
0.352881
0.353021
0.352305
0.351305
0.348174
0.345212
0.338645
0.335296
0.331466
0.326005
0.321046
0.317951
0.31396
0.313842
0.310011
0.310246
0.305158
0.306736
0.301454
0.303463
0.296639
0.299045
0.291195
0.29239
0.283359
0.284144
0.273557
0.27438
0.263186
0.262466
0.249987
0.247595
0.23301
0.228372
0.212774
0.202551
0.182838
0.162275
0.132172
0.105248
0.0734833
0.0463116
0.0323211
0.0204669
0.0148142
0.0123046
0.00881557
0.00753774
0.00658656
0.00524147
0.00490499
0.00511901
0.00488972
0.00485679
0.00488185
0.00482618
0.0044422
0.00435904
0.0043962
0.00440201
0.00445381
0.00510253
0.00588535
0.00613722
0.00625054
0.00751529
0.0102138
0.0102205
0.0097731
0.00989482
0.0116469
0.0168768
0.0351278
0.160034
0.29962
0.390821
0.40729
0.403233
0.373672
0.322787
0.280834
0.267743
0.271806
0.282342
0.278997
0.267578
0.22707
0.208486
0.197454
0.213725
0.217233
0.230726
0.220786
0.215642
0.19669
0.175574
0.160085
0.144803
0.138125
0.133784
0.124492
0.120774
0.111453
0.108612
0.0999051
0.0980851
0.0912331
0.0929332
0.0900306
0.0932724
0.0905344
0.0941966
0.0918259
0.10067
0.100985
0.118081
0.124503
0.136802
0.16677
1.36187
1.23742
1.12126
1.03539
0.965666
0.911158
0.85025
0.807144
0.753622
0.714372
0.673426
0.640762
0.617117
0.594754
0.577944
0.564647
0.545176
0.535278
0.513922
0.502626
0.485897
0.474848
0.464139
0.454037
0.448513
0.440954
0.434079
0.430178
0.420311
0.415862
0.407574
0.401708
0.394642
0.389754
0.384619
0.381475
0.376649
0.374977
0.371164
0.369289
0.365012
0.363058
0.358802
0.35551
0.351478
0.348712
0.345006
0.34259
0.340822
0.338958
0.338432
0.337974
0.338534
0.339501
0.342674
0.347148
0.352065
0.363977
0.373646
0.384468
0.399452
0.405017
0.416018
0.420363
0.421861
0.420887
0.419003
0.415852
0.407876
0.404366
0.395281
0.39193
0.384411
0.381595
0.374907
0.373161
0.367348
0.365052
0.357018
0.352661
0.342211
0.33454
0.323837
0.311658
0.298746
0.285485
0.274555
0.25934
0.249658
0.237107
0.227558
0.220416
0.210942
0.203003
0.200139
0.195656
0.194368
0.190386
0.18942
0.18807
0.188937
0.18789
0.188715
0.187204
0.188054
0.184789
0.184585
0.179565
0.177482
0.170655
0.166672
0.15252
0.146836
0.131361
0.119222
0.104539
0.0842702
0.0689375
0.0530222
0.0395576
0.0291601
0.0211055
0.0143528
0.0114513
0.00806248
0.00729653
0.00655268
0.00536815
0.00511475
0.00462843
0.00418592
0.00418931
0.00413656
0.00390253
0.00384038
0.0039141
0.0037957
0.00378381
0.0037817
0.00402245
0.00405564
0.00442546
0.0047306
0.00514963
0.00516704
0.00565063
0.00748717
0.00882045
0.00851518
0.00851052
0.00911322
0.0132747
0.0230356
0.0596565
0.249061
0.371368
0.426815
0.422374
0.398793
0.321374
0.265833
0.223281
0.206164
0.205964
0.211612
0.235836
0.249147
0.235903
0.223502
0.196583
0.197295
0.197864
0.214102
0.215074
0.212722
0.202199
0.192143
0.170492
0.161866
0.144041
0.139654
0.127871
0.123925
0.114538
0.111955
0.104899
0.104578
0.101005
0.104459
0.103213
0.108179
0.108411
0.111008
0.117883
0.119967
0.133242
0.133279
0.151006
0.154196
0.18526
0.626011
0.583557
0.537283
0.497071
0.476007
0.458984
0.440598
0.428353
0.405569
0.387113
0.364379
0.341844
0.327073
0.313416
0.305684
0.302497
0.297487
0.295588
0.290546
0.284732
0.276271
0.265308
0.257934
0.248178
0.242619
0.238759
0.234879
0.233752
0.231861
0.230654
0.228698
0.224416
0.219868
0.214181
0.208177
0.203961
0.198616
0.19641
0.193813
0.192678
0.19189
0.190904
0.190487
0.188953
0.186765
0.184752
0.18196
0.179929
0.178676
0.178103
0.177967
0.178369
0.179116
0.180777
0.182188
0.186083
0.189195
0.196239
0.201834
0.213446
0.224759
0.242551
0.25424
0.275298
0.286011
0.306617
0.314049
0.328399
0.331231
0.33687
0.336085
0.334688
0.330323
0.326208
0.316368
0.3099
0.295968
0.284137
0.272718
0.252908
0.242905
0.222492
0.206948
0.191177
0.171159
0.157858
0.139795
0.127897
0.113954
0.104945
0.0932308
0.0889563
0.0804938
0.0775425
0.0724637
0.0707058
0.0682594
0.0668574
0.0652419
0.0646635
0.0634723
0.0633646
0.0625761
0.0622362
0.0620522
0.0604506
0.0595358
0.0578369
0.0539731
0.0523109
0.0482221
0.0436433
0.0401028
0.0337121
0.0298016
0.0252595
0.0195423
0.0170473
0.0121887
0.0104758
0.00746635
0.00661375
0.00492313
0.00471856
0.00401458
0.00413032
0.00382884
0.00384213
0.00391389
0.00391796
0.00386603
0.00387417
0.00378942
0.00366119
0.00344492
0.00352013
0.00346808
0.00354661
0.00351809
0.0038234
0.00379172
0.00420475
0.0041931
0.00445502
0.00443321
0.00524311
0.00602716
0.00695571
0.00680552
0.00707972
0.00842964
0.0148935
0.0290793
0.0839372
0.299758
0.408434
0.443969
0.432029
0.372341
0.28119
0.230629
0.19396
0.180353
0.173715
0.177031
0.181417
0.206568
0.217267
0.216012
0.199984
0.185409
0.182585
0.185023
0.197356
0.201567
0.198927
0.192495
0.178755
0.171511
0.154769
0.14917
0.137528
0.135058
0.130015
0.128907
0.124949
0.125997
0.1275
0.127161
0.133743
0.131507
0.142476
0.134232
0.147713
0.135907
0.150783
0.143742
0.161951
0.151275
0.162794
0.170646
0.162507
0.154088
0.143453
0.13966
0.137308
0.136032
0.135651
0.13301
0.128653
0.121483
0.113017
0.106206
0.100127
0.09756
0.0971048
0.0972352
0.0990393
0.100117
0.100854
0.100932
0.0986899
0.0952588
0.0898561
0.0859998
0.0829171
0.080831
0.0805474
0.0804469
0.0808738
0.0815618
0.0817724
0.0818617
0.081496
0.0790065
0.0764251
0.0732018
0.0709399
0.0691754
0.0676618
0.0672333
0.0665607
0.0665116
0.0664098
0.0660631
0.0658901
0.0650388
0.06434
0.0638683
0.0637661
0.0637794
0.0640085
0.0647258
0.0653019
0.0667675
0.0683236
0.0700316
0.0729727
0.0757247
0.0804905
0.0861703
0.0932548
0.101295
0.110066
0.120227
0.128533
0.137702
0.145378
0.152224
0.157129
0.161341
0.161068
0.160004
0.155867
0.151734
0.144169
0.135747
0.127679
0.117833
0.1069
0.097349
0.0863682
0.0763288
0.0683566
0.058591
0.0524359
0.0449877
0.0396732
0.0350475
0.0305429
0.0278644
0.0248964
0.0229309
0.0214474
0.0196155
0.0188779
0.0180644
0.0168268
0.0164445
0.015511
0.0150176
0.0147966
0.0140972
0.013837
0.013718
0.0130793
0.0128244
0.0122524
0.011523
0.0111192
0.00974121
0.00908089
0.00799394
0.00692711
0.00604191
0.00510506
0.00424208
0.00373981
0.00294766
0.00278611
0.00234527
0.00232426
0.00227515
0.00240429
0.00238034
0.0025567
0.00254756
0.00263731
0.00329732
0.00379265
0.00419187
0.00426306
0.00428139
0.0040258
0.00386939
0.00383617
0.00369631
0.00368559
0.00372047
0.00387313
0.00384444
0.00409504
0.00408073
0.00421388
0.00433604
0.00512879
0.00553856
0.00594543
0.00641175
0.00717728
0.00941705
0.0171429
0.0367011
0.110157
0.385858
0.44884
0.466896
0.438072
0.347786
0.260363
0.21268
0.181211
0.17741
0.167392
0.166849
0.163527
0.166696
0.181751
0.197966
0.19502
0.182086
0.171891
0.168429
0.172696
0.176124
0.18709
0.18672
0.180979
0.176003
0.170143
0.161119
0.155918
0.14978
0.145528
0.141583
0.139066
0.134693
0.137262
0.132369
0.141079
0.132865
0.14211
0.131907
0.128154
0.117226
0.113469
0.104975
0.108915
0.107161
0.11293
0.0262216
0.0251535
0.0239284
0.0229133
0.0228947
0.0232212
0.0239085
0.0246715
0.024839
0.0248336
0.0241264
0.0220229
0.0202651
0.0187407
0.0180403
0.017814
0.0178473
0.0188638
0.0200715
0.0212734
0.021992
0.0221745
0.0221312
0.0208698
0.0194297
0.0181497
0.0172012
0.0168742
0.0167368
0.017076
0.018169
0.0191346
0.0198691
0.0202289
0.0202852
0.0199274
0.0186457
0.0175022
0.0165073
0.0158991
0.0156792
0.0155993
0.0157415
0.0160474
0.0163806
0.0166782
0.0167106
0.0166954
0.0165974
0.0165965
0.0166091
0.0166896
0.0170769
0.0174388
0.0183026
0.0189132
0.0200617
0.0210566
0.022207
0.0236037
0.0260182
0.0274947
0.0307325
0.033121
0.0373359
0.0399485
0.0439846
0.0471031
0.0496318
0.0519955
0.053662
0.0537157
0.0533624
0.0521516
0.0500441
0.0473765
0.043362
0.0397887
0.0358157
0.0318735
0.0282768
0.0250141
0.0218418
0.0193338
0.0167238
0.0145632
0.0125624
0.0108263
0.00918803
0.00804266
0.00696805
0.0060877
0.00560762
0.00506477
0.0047047
0.00455941
0.00420444
0.00402127
0.00388887
0.00351119
0.00339315
0.00318583
0.00302032
0.00295535
0.00281646
0.00267995
0.00266874
0.00248916
0.00239534
0.0022468
0.00210482
0.00188803
0.00167396
0.00151205
0.00134196
0.00119606
0.00109534
0.00106008
0.00107777
0.00119602
0.00127935
0.00141028
0.00166711
0.00179957
0.00193889
0.00211045
0.00211929
0.00219681
0.00304291
0.00380538
0.00426198
0.00457518
0.00456389
0.00432474
0.00432314
0.00445854
0.00434678
0.00443924
0.00465107
0.00461122
0.00455376
0.00478953
0.00476943
0.00490435
0.00508301
0.00605465
0.00645787
0.00737232
0.00911544
0.0125249
0.0155496
0.0276306
0.0660068
0.173644
0.432206
0.468248
0.475708
0.434843
0.332923
0.248704
0.205173
0.176735
0.183898
0.178844
0.181308
0.169536
0.159925
0.159343
0.162667
0.180246
0.176873
0.167222
0.15846
0.157135
0.158073
0.161798
0.172091
0.173609
0.171959
0.168355
0.161204
0.153875
0.150726
0.144371
0.138368
0.137561
0.128654
0.129078
0.12107
0.121163
0.115401
0.107159
0.0968508
0.0882568
0.0837472
0.0786712
0.0773534
0.0782536
0.0776382
0.078719
0.0019728
0.00186715
0.00183754
0.00182771
0.00195452
0.0021493
0.00230913
0.00243706
0.00247023
0.00247568
0.00236576
0.00213898
0.00195536
0.00180158
0.00172187
0.00169159
0.00168688
0.00181204
0.00200388
0.00226328
0.00241168
0.00246135
0.00246663
0.00231848
0.00214855
0.00201788
0.00191281
0.0018703
0.00185064
0.00189001
0.00210588
0.00230765
0.00249113
0.00255592
0.00256287
0.00249498
0.00232879
0.00222592
0.00214155
0.00210604
0.00210029
0.00209829
0.00214304
0.00219783
0.00223937
0.00228532
0.00229086
0.00230212
0.00231676
0.00235459
0.00246535
0.00255327
0.00279173
0.00293177
0.00318188
0.00344718
0.00363887
0.00407318
0.00433769
0.00477601
0.00523279
0.00579138
0.00671332
0.00740494
0.00865694
0.00982092
0.0111074
0.0122227
0.0132078
0.0142809
0.0147979
0.0148268
0.0146781
0.0142627
0.0132128
0.0122154
0.0107467
0.0096495
0.00856138
0.00752514
0.00681546
0.00599265
0.00535057
0.00474769
0.00408283
0.003516
0.00301039
0.00246426
0.00211231
0.00174569
0.0014985
0.00130372
0.00118423
0.00107656
0.0010389
0.000991333
0.000940691
0.000913556
0.00085315
0.00076592
0.000736743
0.000659749
0.000623972
0.000622115
0.000616799
0.000626169
0.000656509
0.000661865
0.000681816
0.000692162
0.000691229
0.000661898
0.000642712
0.000624075
0.000625798
0.000638973
0.000691267
0.000741089
0.000926196
0.00113493
0.00130899
0.00170769
0.00197889
0.00207845
0.0024731
0.00263252
0.00263262
0.00281826
0.00413462
0.00512878
0.00589449
0.00637892
0.00595239
0.00580185
0.00569868
0.00577634
0.0056997
0.00616223
0.0064996
0.00634768
0.00622093
0.00625465
0.00616707
0.00577784
0.00579907
0.00628949
0.00748305
0.0083748
0.0100887
0.0130081
0.0155224
0.0268588
0.0575686
0.18783
0.435008
0.479763
0.481119
0.421622
0.311933
0.235494
0.201249
0.176333
0.190862
0.194394
0.220836
0.202346
0.178657
0.159611
0.155004
0.155356
0.163875
0.160906
0.158386
0.15056
0.149596
0.148472
0.14994
0.153216
0.156946
0.156578
0.154862
0.148968
0.144541
0.141155
0.131679
0.129794
0.122785
0.119438
0.10965
0.104398
0.0996005
0.0879094
0.0825889
0.078273
0.0751464
0.07585
0.0750621
0.0759063
0.0762708
0.0840829
0.000182526
0.000178599
0.000178316
0.000175535
0.000174892
0.000181251
0.000192686
0.000201294
0.000205117
0.000207468
0.000210617
0.000210156
0.000205525
0.000193008
0.000184285
0.000179691
0.00017925
0.000180805
0.000181303
0.0001815
0.000181574
0.000188079
0.00020302
0.000212714
0.000215323
0.000213849
0.000204084
0.000198905
0.000197285
0.000200003
0.000204362
0.000206847
0.000210718
0.000222756
0.000240744
0.000259005
0.000266847
0.000268631
0.000260983
0.000245682
0.000238527
0.000228151
0.000227549
0.000226076
0.000223571
0.000223955
0.000224939
0.000233427
0.000249379
0.000264375
0.000287697
0.000298232
0.000318071
0.000335731
0.000368683
0.00039788
0.000419888
0.000482133
0.000540756
0.000633247
0.00079021
0.000921532
0.00115053
0.00127894
0.00153075
0.00183254
0.00214125
0.00239329
0.0026547
0.00289993
0.00297111
0.00295876
0.00290447
0.00273203
0.00251745
0.00227629
0.00203151
0.00182951
0.00161143
0.00142583
0.00128562
0.00111932
0.00101486
0.000888857
0.000772525
0.000684203
0.000581795
0.000518638
0.000455832
0.000411388
0.000395899
0.000385724
0.000379158
0.000372666
0.000376453
0.00037432
0.000358299
0.000355778
0.000327464
0.00031295
0.000312897
0.000312622
0.000323592
0.000369145
0.000395075
0.000470911
0.000548525
0.000590827
0.000675119
0.000752054
0.000803454
0.000849932
0.000947171
0.00104041
0.0011293
0.00139287
0.00161476
0.00184793
0.00255816
0.00292759
0.00343203
0.00430341
0.0047004
0.00487275
0.00561519
0.0056549
0.00568704
0.00608853
0.00716914
0.00800471
0.00946045
0.00957241
0.00877023
0.00832364
0.00812637
0.00786243
0.00780679
0.00835574
0.00942481
0.00942834
0.0100772
0.0102255
0.0107689
0.0100948
0.00991355
0.0106308
0.0119437
0.0122829
0.0135444
0.0149245
0.0199692
0.0249722
0.0518741
0.248357
0.490615
0.515738
0.494725
0.388634
0.281183
0.216836
0.183646
0.165163
0.178753
0.188907
0.286769
0.265159
0.256147
0.185058
0.165643
0.152317
0.15569
0.153419
0.154634
0.14957
0.147398
0.140509
0.140258
0.137431
0.137008
0.136002
0.13614
0.133774
0.128957
0.126803
0.118758
0.114989
0.107733
0.10417
0.0985405
0.0905692
0.0863917
0.0809242
0.0769282
0.0770077
0.0766017
0.0765701
0.0783614
0.0830885
0.0922789
0.105825
8.48013e-05
8.5484e-05
9.04959e-05
9.4391e-05
9.43201e-05
9.34129e-05
9.35597e-05
9.4893e-05
9.88372e-05
0.000100666
0.000101322
0.000101389
0.000102514
0.000104402
0.000105463
0.000105348
0.000103296
0.000101838
0.00010199
0.000104187
0.000105839
0.00010566
0.000102645
0.000100449
0.000100225
0.000103204
0.000107155
0.000108672
0.000107645
0.000105026
0.000103903
0.000106166
0.000112227
0.000117038
0.000117681
0.000116524
0.000114142
0.000113825
0.000115107
0.000117536
0.000118224
0.000116726
0.00011358
0.000111683
0.000110872
0.000111059
0.00011125
0.000111084
0.00011095
0.00011149
0.000114593
0.000116441
0.000117251
0.000116568
0.000116036
0.000115974
0.000117146
0.000125969
0.000134328
0.000149069
0.000168942
0.00019658
0.000229875
0.000251673
0.000290184
0.000329273
0.000356283
0.000379624
0.000388185
0.0004137
0.000435091
0.000449556
0.000448486
0.000440252
0.00042229
0.000388897
0.000351517
0.000325447
0.000302638
0.00029336
0.000287613
0.000284675
0.000285158
0.000286985
0.000286654
0.000279858
0.000275109
0.000275745
0.00028033
0.000298879
0.00032276
0.000413166
0.000463166
0.000507017
0.000541043
0.000534193
0.000533605
0.000530629
0.000514744
0.000519012
0.000549345
0.000599624
0.000777235
0.00101422
0.00118887
0.00160277
0.00189094
0.00211634
0.00244031
0.00285204
0.00312319
0.00342171
0.00398779
0.00433945
0.00487763
0.00583135
0.00631469
0.00727375
0.0086292
0.00917795
0.0102741
0.0114111
0.0116359
0.0121381
0.0125304
0.0123069
0.0124065
0.0124785
0.012484
0.0129406
0.0143951
0.014247
0.0137584
0.0128337
0.011902
0.0108231
0.0107648
0.0109667
0.0116395
0.0116606
0.0129403
0.0134934
0.0150586
0.0143241
0.014993
0.0158474
0.0183172
0.0180795
0.0192364
0.0232335
0.034395
0.0384852
0.078039
0.386682
0.532829
0.545119
0.488073
0.340218
0.267318
0.202744
0.173859
0.153262
0.171315
0.178778
0.308143
0.30919
0.37542
0.272622
0.211014
0.163093
0.159346
0.153821
0.154435
0.149445
0.148872
0.141479
0.139917
0.135811
0.134011
0.128594
0.126275
0.121419
0.118082
0.114619
0.108834
0.102947
0.0992402
0.0934419
0.0909996
0.0856489
0.0812403
0.0797226
0.0794648
0.0814486
0.0826823
0.082434
0.0893547
0.102616
0.111445
0.117364
9.15592e-05
9.28666e-05
9.61418e-05
9.70588e-05
9.6883e-05
9.64629e-05
9.56371e-05
9.51249e-05
9.65631e-05
9.89009e-05
0.000105454
0.000109959
0.000113266
0.000117943
0.000118673
0.000119609
0.000119229
0.000115452
0.000109684
0.000105441
0.000104441
0.000105625
0.000112636
0.000122782
0.000130086
0.000139018
0.000144383
0.000149342
0.000151646
0.000151425
0.000145532
0.000133373
0.000124347
0.000119731
0.000118422
0.000119633
0.000124694
0.000132425
0.000138977
0.000144232
0.000147721
0.000148517
0.000147847
0.000141576
0.000133154
0.000127329
0.000124651
0.000124681
0.000131767
0.000141048
0.000149134
0.000154692
0.000158355
0.000160049
0.000159995
0.000154015
0.000144529
0.000136821
0.000132428
0.00013119
0.000131258
0.000136329
0.000144999
0.00015158
0.00015783
0.000159496
0.000161611
0.000161945
0.000162241
0.000164486
0.000165621
0.000171235
0.000174083
0.000175124
0.000176381
0.000177829
0.000181849
0.000191806
0.000220869
0.000250649
0.000307019
0.00035467
0.000397737
0.000466485
0.000493293
0.000536094
0.000590869
0.000638836
0.000858384
0.00104284
0.00131649
0.00165172
0.00179703
0.00200953
0.00212716
0.00214449
0.0021844
0.0022039
0.00222673
0.00233121
0.00261831
0.00291864
0.00386344
0.00453226
0.00533444
0.00663031
0.00741715
0.00816856
0.00967937
0.0108468
0.011695
0.0136328
0.0150002
0.0164505
0.0187561
0.0206145
0.0219857
0.0246484
0.0255272
0.0266112
0.027656
0.0277353
0.0271718
0.0270141
0.0265357
0.0253368
0.0248846
0.0236524
0.0221102
0.0219497
0.0220888
0.0216139
0.0211741
0.0198045
0.0179402
0.0163942
0.0166273
0.0169197
0.0171824
0.0173947
0.0200851
0.0214114
0.0230224
0.0222643
0.023886
0.0251147
0.0259893
0.0254146
0.0258388
0.0302308
0.0413635
0.0618192
0.119727
0.464828
0.539774
0.557646
0.467148
0.323964
0.262958
0.199254
0.174836
0.154809
0.183737
0.197428
0.329651
0.322014
0.466557
0.400277
0.320144
0.207333
0.174216
0.159639
0.159958
0.152585
0.152982
0.145215
0.142964
0.13736
0.134743
0.129122
0.126848
0.120006
0.116825
0.112045
0.10981
0.102385
0.0990293
0.0959184
0.0921754
0.086996
0.0845511
0.0858126
0.0867139
0.0888263
0.0893452
0.0894722
0.109665
0.130232
0.13329
0.130389
0.000235482
0.000243896
0.000242964
0.00024146
0.000237944
0.000236224
0.000238117
0.000243044
0.000263988
0.0002871
0.000351792
0.000415204
0.000470532
0.00050703
0.000505383
0.000504511
0.000487956
0.000462796
0.000446063
0.000422857
0.000421255
0.000417349
0.000417769
0.000436048
0.000486788
0.000577693
0.000623069
0.000664394
0.000679075
0.000675845
0.000669691
0.000636837
0.000605341
0.000579525
0.000547699
0.000539901
0.000532334
0.000542288
0.000612436
0.000677366
0.000737153
0.000757416
0.000764119
0.000763831
0.00074493
0.000715908
0.000691817
0.000676688
0.00067501
0.00069144
0.000720703
0.000751877
0.000765378
0.000774044
0.000771311
0.000723503
0.000641206
0.000558365
0.000487839
0.000437914
0.000405931
0.000397758
0.00039838
0.000422106
0.000457515
0.000484885
0.000511422
0.000520343
0.000517319
0.000494355
0.00045003
0.000430796
0.000427567
0.00043226
0.000454563
0.000508253
0.000630393
0.000914876
0.00115178
0.00143838
0.00173789
0.00197151
0.00224965
0.00252443
0.00267289
0.00295095
0.00325195
0.00369627
0.0046595
0.0051796
0.00609942
0.00682423
0.0071711
0.00775552
0.00801733
0.00818297
0.00856474
0.00890217
0.0092654
0.0103658
0.0114452
0.0130141
0.0157746
0.0173242
0.0200975
0.0236657
0.0255381
0.0291555
0.0330491
0.0365174
0.0412073
0.0457645
0.0499821
0.0560522
0.0597475
0.0637905
0.0678816
0.071008
0.0711197
0.0709297
0.0698307
0.0678893
0.0625036
0.0601825
0.0545189
0.0516786
0.0478445
0.0434868
0.0386126
0.0376342
0.0364173
0.0350987
0.0327399
0.0303706
0.0275098
0.0268133
0.0276171
0.0285782
0.0293998
0.0309653
0.0407086
0.0446821
0.0457877
0.0454655
0.049942
0.0498608
0.0446342
0.0386387
0.0377323
0.0408939
0.0480001
0.0664092
0.129871
0.495326
0.537427
0.560226
0.421593
0.325944
0.26084
0.233152
0.215182
0.224333
0.275587
0.460164
0.337082
0.308207
0.364293
0.450625
0.466541
0.33073
0.224925
0.180266
0.174397
0.160441
0.161722
0.154362
0.150908
0.143932
0.138266
0.132963
0.12946
0.121468
0.119177
0.113215
0.1112
0.104468
0.102063
0.0988333
0.0944381
0.0939714
0.0937176
0.0986676
0.101593
0.102874
0.103426
0.112748
0.142696
0.151732
0.147931
0.140532
0.00315733
0.00318886
0.00315107
0.00310517
0.00298968
0.00288979
0.00284292
0.00284641
0.00297324
0.00325661
0.00407389
0.00464313
0.00512059
0.00533899
0.00532131
0.00527331
0.00496976
0.00464631
0.00436364
0.00413319
0.00408815
0.00404903
0.00412395
0.00455128
0.00505353
0.00562868
0.00591006
0.0061169
0.00618467
0.00614496
0.00607918
0.00581561
0.00560408
0.00546219
0.0052947
0.00528436
0.00526192
0.00531158
0.00560259
0.00583287
0.00613201
0.00622334
0.00626465
0.00626849
0.00620776
0.00613745
0.00598089
0.00583716
0.00575319
0.00566024
0.00556228
0.00550824
0.0054244
0.00534769
0.00518502
0.00484537
0.0045759
0.0042333
0.0039534
0.00373824
0.00355971
0.00347824
0.00344413
0.00344712
0.00352032
0.00357771
0.00363353
0.00362068
0.00346882
0.00334323
0.00329922
0.00331729
0.00339357
0.00353865
0.00397809
0.00466819
0.00558966
0.00664984
0.00753437
0.00844584
0.0095318
0.0103912
0.0111005
0.0121368
0.012809
0.0141951
0.015939
0.0173162
0.0197059
0.0211348
0.0229037
0.0244253
0.0251598
0.0262725
0.0273761
0.0281046
0.0296051
0.0311654
0.0336461
0.0379998
0.0410531
0.0471916
0.0533502
0.0578821
0.0669981
0.074152
0.0810867
0.0915923
0.103547
0.111285
0.126953
0.137317
0.149235
0.158649
0.167344
0.174347
0.177765
0.177054
0.174902
0.169498
0.163121
0.152065
0.140018
0.12754
0.1155
0.105574
0.0928465
0.083018
0.0727774
0.06942