/*--------------------------------*- C++ -*----------------------------------*\
| =========                 |                                                 |
| \\      /  F ield         | OpenFOAM: The Open Source CFD Toolbox           |
|  \\    /   O peration     | Version:  2.4.0                                 |
|   \\  /    A nd           | Web:      www.OpenFOAM.org                      |
|    \\/     M anipulation  |                                                 |
\*---------------------------------------------------------------------------*/
FoamFile
{
    version     2.0;
    format      ascii;
    class       volScalarField;
    location    "0.55";
    object      p;
}
// * * * * * * * * * * * * * * * * * * * * * * * * * * * * * * * * * * * * * //

dimensions      [0 2 -2 0 0 0 0];

internalField   nonuniform List<scalar> 
8800
(
56.7724
44.398
37.0004
33.4844
31.5952
30.1769
28.9939
27.8959
26.8548
25.8884
24.9587
24.0156
23.1233
22.2358
21.401
20.5884
19.8427
19.1526
18.5477
17.8761
53.6582
44.0437
37.1701
33.5986
31.6551
30.2014
29.0011
27.8976
26.8519
25.8857
24.9571
24.0127
23.1212
22.2338
21.399
20.5854
19.8433
19.1452
18.5553
17.8
51.6919
44.1196
37.7734
33.975
31.822
30.2795
29.0479
27.9304
26.8752
25.9035
24.9682
24.0173
23.1229
22.2314
21.3973
20.5762
19.8437
19.1298
18.6208
17.8219
50.1538
44.1806
38.3646
34.4003
32.0044
30.3656
29.1097
27.9847
26.9241
25.9436
24.9956
24.0352
23.1348
22.2358
21.3972
20.5674
19.8341
19.1128
18.6984
18.0479
48.9035
44.1528
38.8434
34.8081
32.1735
30.434
29.1571
28.0391
26.98
25.9971
25.032
24.0634
23.1479
22.2475
21.3935
20.564
19.8094
19.0971
18.6183
18.3657
47.9167
44.0582
39.2136
35.1567
32.3254
30.4791
29.1837
28.0802
27.0332
26.0465
25.0688
24.0938
23.1626
22.2576
21.3901
20.558
19.7868
19.0859
18.6289
18.8241
47.1585
43.946
39.4838
35.4383
32.466
30.5087
29.1921
28.1112
27.0739
26.0898
25.1021
24.1164
23.1758
22.2646
21.3874
20.5488
19.7773
19.0925
18.7165
19.1563
46.6064
43.8485
39.669
35.6522
32.5893
30.5287
29.1884
28.1307
27.1065
26.1211
25.1286
24.1365
23.1848
22.27
21.3854
20.5452
19.775
19.1184
18.791
19.3847
46.2473
43.7733
39.7864
35.7977
32.6787
30.5413
29.1818
28.1425
27.1273
26.1444
25.1479
24.1472
23.1919
22.2752
21.386
20.5452
19.7823
19.1498
18.8528
19.5484
46.0732
43.7317
39.8428
35.8704
32.7242
30.5472
29.1789
28.1463
27.1388
26.1574
25.1578
24.1539
23.1959
22.2807
21.3899
20.5504
19.7969
19.1763
18.8911
19.6707
46.072
43.7318
39.8431
35.8708
32.7239
30.5478
29.179
28.1464
27.1391
26.158
25.1622
24.1543
23.1995
22.2877
21.3968
20.5595
19.8121
19.2068
18.9144
19.682
46.2475
43.7737
39.7874
35.7975
32.6786
30.5427
29.1825
28.1414
27.1278
26.1499
25.154
24.1509
23.2009
22.2956
21.4055
20.5738
19.835
19.2289
18.9093
19.7456
46.6031
43.8488
39.6732
35.6536
32.5896
30.5314
29.1883
28.1294
27.1085
26.1282
25.1402
24.1406
23.199
22.3064
21.4171
20.5918
19.8598
19.2573
18.8972
19.713
47.1545
43.9498
39.4881
35.4392
32.4631
30.5145
29.1911
28.109
27.0767
26.1005
25.1179
24.1214
23.1972
22.314
21.4299
20.6162
19.8938
19.2886
18.8642
19.6128
47.9112
44.0622
39.2209
35.1565
32.3223
30.4856
29.184
28.0765
27.0375
26.0607
25.0869
24.0983
23.1898
22.3215
21.4453
20.6386
19.9361
19.3296
18.8566
19.4429
48.896
44.1607
38.8517
34.8058
32.1682
30.443
29.1596
28.0313
26.9866
26.0146
25.0556
24.0658
23.1808
22.3261
21.4571
20.6606
19.9876
19.3784
18.8742
19.2014
50.1444
44.188
38.3745
34.3985
31.997
30.3775
29.113
27.9749
26.9311
25.9657
25.0208
24.0371
23.1719
22.3252
21.4704
20.6776
20.0347
19.4247
18.9313
18.9122
51.682
44.1268
37.7849
33.9718
31.8131
30.2926
29.0528
27.9189
26.8834
25.927
24.9954
24.0194
23.1655
22.3245
21.4807
20.6913
20.0685
19.4582
18.99
18.7603
53.6481
44.049
37.182
33.5965
31.6464
30.2142
29.0064
27.8866
26.8605
25.9096
24.9843
24.0165
23.1659
22.3263
21.488
20.7032
20.083
19.4762
18.9918
18.6642
56.7622
44.4031
37.012
33.4818
31.5871
30.1892
28.9986
27.8859
26.8635
25.912
24.9852
24.0209
23.1694
22.3268
21.4916
20.7087
20.0856
19.4799
18.9974
18.7904
18.1603
18.2495
18.1594
17.9445
17.719
17.5788
17.5735
17.6595
17.7864
17.9237
18.06
18.1947
18.2929
18.3458
18.3493
18.3105
18.2509
18.1616
18.0513
17.92
17.7617
17.5875
17.3926
17.198
17.0338
16.9128
16.8698
16.8893
16.9682
17.0837
17.203
17.3199
17.4111
17.4763
17.5128
17.5269
17.5261
17.5168
17.4863
17.4422
17.3546
17.2115
16.9927
16.703
16.4117
16.1066
15.7757
15.4571
15.1877
15.0157
14.9894
15.0776
15.2546
15.6097
16.0909
16.6408
17.2582
17.8851
18.4403
18.9033
19.2085
19.2917
19.1076
18.6265
17.8576
16.7569
15.4016
13.9245
12.4006
10.9341
9.65249
8.57485
7.71858
7.13244
6.87205
6.83352
6.96112
7.22284
7.44322
7.53877
7.46838
7.35888
7.20503
7.0069
6.89766
6.83393
6.84418
6.93158
7.14534
7.29134
7.45047
7.57548
7.65015
7.71865
7.58986
7.48879
7.24901
6.96753
6.65581
6.17838
5.59094
4.78033
3.73513
2.59789
1.13212
-0.442721
-2.02207
-3.84814
-5.57892
-7.20976
-9.01335
-10.356
-11.5337
-12.8738
-13.4257
-13.9883
-14.5298
-14.0634
-13.8087
-13.4469
-11.8677
-10.3462
-8.67462
-5.8221
-3.05797
-0.582369
2.49369
5.33496
7.43764
9.91134
12.3538
14.1831
16.0504
17.7284
19.3945
20.6219
21.9409
23.239
24.3216
25.3961
26.3997
27.4418
28.5705
29.551
30.7901
32.0654
33.1619
34.4796
35.7822
36.741
37.9664
38.7168
39.3658
40.1111
40.3771
40.6516
41.6134
42.4922
43.112
42.8737
41.6526
39.6484
36.8707
33.5843
29.9453
26.368
22.4831
18.5328
14.8192
11.001
7.1435
3.25569
-0.529585
-4.20801
-7.7059
-11.4918
-14.0248
-17.8266
-19.2662
-22.1108
-22.8306
-23.7852
-23.7756
-22.7547
-21.8044
-19.7056
-18.1654
-15.2889
-13.2351
-9.85538
-6.61746
-2.66869
1.43769
6.07593
11.2631
16.3922
23.6173
28.9852
35.7267
34.8259
17.8491
18.0327
18.1542
18.0686
17.8451
17.6285
17.55
17.5786
17.689
17.8415
17.9961
18.1564
18.2676
18.3336
18.3502
18.3073
18.2415
18.1386
18.0198
17.8883
17.7316
17.5727
17.3953
17.2263
17.0871
16.9816
16.9396
16.9461
17.004
17.0953
17.1893
17.2864
17.3644
17.4208
17.4557
17.4618
17.4522
17.4322
17.3852
17.3288
17.228
17.0834
16.8915
16.6281
16.364
16.087
15.8197
15.585
15.3575
15.2142
15.1966
15.3131
15.5209
15.8713
16.3329
16.8519
17.4427
18.0113
18.5116
18.9092
19.1243
19.1447
18.923
18.4007
17.6314
16.5975
15.3272
13.944
12.5351
11.1225
9.86647
8.81149
7.94937
7.31442
6.96078
6.84337
6.85136
6.99966
7.16203
7.23172
7.20882
7.15537
7.08602
6.93875
6.91175
6.89622
6.92267
7.03031
7.21859
7.35486
7.48585
7.61667
7.66111
7.76801
7.63633
7.48588
7.21711
6.89238
6.53121
5.99796
5.37622
4.57553
3.52052
2.46672
1.04713
-0.486409
-1.92174
-3.67064
-5.27764
-6.78803
-8.52473
-9.72519
-10.7887
-12.0577
-12.4329
-12.9069
-13.4837
-12.8658
-12.4784
-12.06
-10.3894
-8.75948
-7.07747
-4.2614
-1.63108
0.692951
3.49324
6.26464
8.30314
10.4113
12.5659
14.3757
16.1321
17.6175
19.1992
20.3835
21.669
22.8792
23.8907
25.0166
26.0124
27.0858
28.0804
29.1028
30.3303
31.4566
32.6038
33.8333
34.9103
35.8269
36.8952
37.597
38.1207
38.5194
38.1522
38.4968
39.4228
39.8755
40.0988
39.1324
37.5584
35.1396
32.207
28.8212
25.4462
21.9141
18.3162
14.9307
11.4647
8.27956
4.90768
1.69179
-1.52927
-5.14908
-7.75879
-11.8033
-13.8268
-17.3709
-19.001
-20.876
-22.1992
-22.4011
-22.8013
-21.3798
-20.6224
-18.438
-16.8411
-13.9855
-11.8242
-8.40378
-5.57694
-1.59071
1.84413
6.22352
10.2002
15.2991
19.0655
24.1372
25.1319
26.3633
17.7286
17.97
18.2446
18.2544
18.0169
17.6883
17.5265
17.4929
17.5876
17.7585
17.9224
18.1151
18.2393
18.3163
18.3455
18.2857
18.217
18.0944
17.9627
17.8387
17.6809
17.5512
17.3975
17.2522
17.1463
17.0395
17.0124
17.0044
17.0355
17.1117
17.1678
17.2526
17.3118
17.357
17.3908
17.3883
17.3782
17.3391
17.2832
17.2175
17.1043
16.9713
16.7984
16.5708
16.3529
16.1228
15.8982
15.7198
15.5532
15.4472
15.4326
15.5533
15.7853
16.1028
16.5226
17.0029
17.5289
18.0305
18.4643
18.7976
18.9366
18.8829
18.6363
18.1105
17.3412
16.3687
15.2149
13.883
12.556
11.2639
10.0179
8.98308
8.15159
7.48245
7.09248
6.88593
6.83077
6.91189
6.97694
7.08519
7.05054
7.02017
7.03625
6.95506
6.96127
6.98802
7.0382
7.14784
7.28174
7.42252
7.52081
7.62065
7.6664
7.71201
7.59722
7.43409
7.11198
6.77752
6.37163
5.78186
5.17184
4.36137
3.30549
2.35488
0.943021
-0.5237
-1.76551
-3.48737
-4.88972
-6.23942
-7.98339
-8.99131
-9.92084
-11.1677
-11.4451
-11.7284
-12.1768
-11.5528
-10.8878
-10.3523
-8.77834
-6.93179
-5.21858
-2.7158
-0.150767
2.12997
4.50061
7.01082
9.11346
11.0115
12.782
14.5164
16.2589
17.6495
19.0913
20.2155
21.4935
22.6016
23.6234
24.6135
25.6441
26.6524
27.5908
28.5695
29.7965
30.8563
31.9883
33.1087
34.0879
34.9657
35.9761
36.497
36.9276
36.8425
36.4736
36.4336
37.1168
36.8826
36.5013
34.7395
32.4104
29.6102
26.4006
23.0102
19.7368
16.5197
13.3591
10.3414
7.61812
4.98646
2.59381
-0.199803
-2.35714
-5.55626
-7.94163
-11.1309
-13.3436
-15.7277
-17.8153
-19.1253
-20.2251
-20.4911
-20.5148
-19.2203
-18.1615
-16.1013
-14.2511
-11.5753
-9.23296
-6.37303
-3.42212
-0.00612501
3.15939
7.21111
10.856
15.6139
18.8851
23.56
24.3299
26.4471
17.7937
18.0428
18.1973
18.0919
17.8699
17.5509
17.4033
17.3723
17.4859
17.6949
17.863
18.0752
18.1965
18.2772
18.3126
18.2347
18.1714
18.0453
17.9158
17.801
17.6374
17.5307
17.3916
17.2708
17.1887
17.0854
17.0708
17.0489
17.0608
17.1208
17.1493
17.22
17.2597
17.2873
17.3146
17.3023
17.2845
17.2403
17.174
17.1116
16.9942
16.8667
16.7239
16.5256
16.355
16.1684
15.9892
15.8576
15.7439
15.6748
15.678
15.7857
15.996
16.2881
16.6536
17.0689
17.5116
17.9359
18.2865
18.5377
18.6347
18.5262
18.245
17.7333
16.999
16.0801
15.0232
13.804
12.5485
11.3803
10.2082
9.19375
8.39528
7.73144
7.30038
7.05163
6.9112
6.96047
6.96534
7.03241
7.03339
6.99124
7.09174
7.03031
7.0576
7.1159
7.1572
7.27309
7.33644
7.48301
7.53315
7.56972
7.6252
7.58699
7.49192
7.30191
6.93802
6.62893
6.21755
5.52563
4.96767
4.11602
3.07025
2.29824
0.915754
-0.452951
-1.53698
-3.1763
-4.51891
-5.59203
-7.28262
-8.22292
-8.98141
-10.041
-10.3851
-10.3673
-10.6011
-10.1058
-9.20156
-8.45954
-7.09256
-5.2087
-3.3671
-1.27398
1.15843
3.38774
5.50336
7.69634
9.72898
11.5477
13.139
14.7054
16.3013
17.7494
19.0598
20.131
21.2896
22.2795
23.397
24.2347
25.1844
26.1931
27.2557
28.0366
29.1405
30.2237
31.4803
32.3043
33.1637
34.0402
35.0279
35.4568
35.7544
35.1787
34.8184
34.3158
34.5093
33.5856
32.3859
29.6706
26.8104
23.6827
20.3104
16.9215
13.5889
10.2293
7.54958
5.10682
3.23794
1.22759
-0.0837898
-1.9879
-3.24061
-5.81653
-7.48732
-9.72786
-11.8348
-13.7088
-15.671
-16.6582
-17.4614
-17.5071
-17.2446
-16.1798
-15.07
-13.2864
-11.5593
-9.07907
-7.19396
-4.35575
-2.03314
1.42551
4.18563
7.84133
11.3897
15.772
19.0778
22.6589
23.7158
24.426
19.3349
19.2896
18.4142
17.6393
17.258
17.0587
17.0809
17.1508
17.3602
17.6414
17.8112
18.0203
18.1375
18.2307
18.2709
18.1823
18.1197
17.9814
17.8488
17.7251
17.5658
17.4847
17.3781
17.2767
17.2127
17.1309
17.1213
17.0983
17.0953
17.1295
17.1381
17.1837
17.2022
17.2048
17.2256
17.213
17.1849
17.1474
17.0673
17.0087
16.9035
16.7681
16.6594
16.4975
16.3587
16.2148
16.0793
15.983
15.9047
15.8616
15.8812
15.9861
16.1355
16.4046
16.6926
17.0343
17.411
17.7167
18.0043
18.1754
18.2146
18.111
17.7901
17.312
16.6507
15.7958
14.8212
13.7575
12.6066
11.5031
10.4905
9.51427
8.7209
8.11654
7.65287
7.32926
7.17973
7.13529
7.12682
7.13783
7.15503
7.1259
7.20884
7.21461
7.21192
7.24617
7.29823
7.3931
7.38752
7.51805
7.53694
7.45286
7.5459
7.41883
7.29363
7.17058
6.71026
6.46911
6.01672
5.29754
4.76185
3.99648
2.92895
2.21076
0.97913
-0.360729
-1.32155
-2.74348
-4.06632
-5.02064
-6.41187
-7.41779
-8.00594
-8.81831
-9.21954
-9.044
-9.04843
-8.61299
-7.67
-6.7515
-5.4355
-3.70331
-1.88493
0.129764
2.27054
4.36056
6.31952
8.2996
10.1586
11.9391
13.6413
15.0542
16.3468
17.701
18.9799
20.0689
21.101
22.0818
23.1317
23.9011
24.7611
25.7023
26.7576
27.4773
28.4051
29.5912
30.9254
31.5767
32.2391
33.1444
34.0562
34.409
34.5985
33.6764
33.1348
32.0321
31.6335
29.9096
28.0243
24.6012
21.5082
17.8281
14.6575
10.5733
7.36555
3.81108
1.29219
-0.67126
-1.78851
-2.77044
-2.89348
-3.80085
-4.17653
-5.26224
-6.50996
-8.13814
-9.7978
-11.2512
-12.7225
-13.5434
-14.2784
-14.123
-14.254
-13.1279
-12.4414
-10.703
-9.26148
-7.07244
-5.26347
-2.75339
-0.695625
2.30085
5.11209
7.83161
11.3925
15.1449
18.2632
20.4401
21.7296
21.7952
20.4148
20.2539
18.6972
17.3451
16.7144
16.5659
16.729
16.8944
17.2294
17.6108
17.7977
18.0007
18.0967
18.1975
18.2237
18.1036
18.0574
17.9147
17.8139
17.7028
17.528
17.4641
17.3381
17.2831
17.2205
17.1273
17.1574
17.105
17.1064
17.131
17.1086
17.1756
17.15
17.1503
17.1637
17.128
17.1065
17.0337
16.9736
16.9146
16.8087
16.6982
16.5898
16.4752
16.3711
16.2399
16.154
16.0838
16.0287
16.0089
16.0261
16.1405
16.2458
16.4481
16.6845
16.9314
17.2416
17.4462
17.6573
17.7663
17.7546
17.6594
17.336
16.8892
16.3131
15.5361
14.6697
13.732
12.7364
11.7194
10.8246
9.97681
9.19141
8.63945
8.15574
7.79875
7.58208
7.46627
7.43766
7.37458
7.39663
7.39362
7.36058
7.47067
7.40323
7.35599
7.50149
7.48345
7.44265
7.56176
7.47724
7.40205
7.42989
7.24
7.13602
6.96985
6.5194
6.29103
5.84119
5.11254
4.66527
3.86662
2.84036
2.12564
1.09403
-0.189373
-1.06446
-2.28599
-3.60435
-4.39654
-5.64123
-6.60808
-7.08803
-7.75527
-8.07641
-7.87255
-7.72815
-7.23168
-6.30704
-5.33919
-4.07372
-2.40436
-0.733507
1.12728
3.1575
5.14921
7.0161
8.89845
10.5853
12.2267
13.8398
15.3879
16.5996
17.7338
18.958
20.0296
20.8735
21.8285
22.7471
23.4537
24.2545
25.1336
26.1915
26.9069
27.7933
29.0266
30.2943
30.9102
31.4959
32.4604
33.3072
33.3935
33.5698
32.7239
31.707
30.3986
29.1008
26.2325
23.6137
19.6223
16.7295
12.7302
9.5112
4.86392
1.6586
-2.5587
-5.00436
-6.66148
-7.03576
-7.01655
-5.95827
-5.33662
-4.72646
-4.63407
-5.12463
-5.85935
-6.99755
-8.08068
-9.46428
-9.90069
-10.7785
-10.8271
-10.9191
-10.1955
-8.98104
-8.0933
-6.86648
-5.15145
-3.40432
-1.45187
0.85276
2.97682
5.89414
8.09193
11.2669
14.2662
16.7785
18.5724
19.431
19.3701
21.0817
20.8982
18.9666
17.2675
16.4449
16.2335
16.4212
16.6554
17.1003
17.5736
17.7949
17.9988
18.0808
18.1932
18.1989
18.0537
17.9978
17.8486
17.7627
17.6414
17.4736
17.4248
17.3146
17.2824
17.2151
17.136
17.1756
17.1177
17.115
17.1222
17.0915
17.155
17.0992
17.0873
17.1013
17.0473
17.0311
16.9303
16.8849
16.8426
16.7219
16.6378
16.5312
16.4537
16.3785
16.2466
16.2056
16.1639
16.1102
16.1132
16.124
16.2275
16.3291
16.4495
16.6286
16.8288
17.0502
17.1816
17.3234
17.3763
17.3314
17.2244
16.9166
16.5298
16.0166
15.3449
14.5981
13.7671
12.9093
12.0179
11.2065
10.4637
9.73029
9.19786
8.69254
8.30768
8.06601
7.88244
7.83718
7.69123
7.68634
7.7369
7.5323
7.6973
7.64031
7.44887
7.69888
7.55532
7.45403
7.64652
7.38523
7.35165
7.39187
7.05459
7.03258
6.78681
6.35611
6.22985
5.7174
4.98973
4.58539
3.81598
2.80233
2.17531
1.17349
0.0105415
-0.794763
-1.92032
-3.12876
-3.89526
-4.92562
-5.87735
-6.27146
-6.85617
-7.13653
-6.84246
-6.6785
-6.1645
-5.23228
-4.24672
-3.06907
-1.41868
0.26385
2.01497
3.92748
5.81565
7.51059
9.32617
11.0506
12.6156
14.0865
15.6181
16.7862
17.8329
18.8879
19.8978
20.7277
21.5826
22.398
23.0941
23.7403
24.5013
25.5109
26.1903
26.9879
28.2313
29.6167
30.2857
30.8257
31.8516
32.896
32.7854
32.7796
32.0107
30.4946
29.4927
27.5366
23.8621
20.3057
15.7344
12.4898
8.57872
4.97997
-0.457713
-4.11994
-8.76277
-11.1782
-12.7111
-12.2191
-11.0433
-9.06123
-6.69819
-5.00798
-3.76128
-3.21336
-3.19672
-3.72773
-4.23698
-5.42446
-5.9859
-6.85279
-7.01098
-7.0316
-6.63284
-5.99926
-5.359
-4.43534
-3.21853
-1.38148
0.257196
2.29467
4.03256
6.64614
8.9221
10.9524
13.8541
15.6055
16.3725
17.2288
17.0908
21.4934
21.3034
19.2083
17.3553
16.395
16.058
16.1914
16.4465
16.9546
17.4906
17.7652
17.9795
18.0614
18.1878
18.1744
18.0226
17.9421
17.8
17.7247
17.5916
17.4408
17.3873
17.2958
17.2716
17.194
17.1393
17.1609
17.1208
17.1139
17.0968
17.087
17.1185
17.064
17.0378
17.0406
17.002
16.9553
16.8538
16.8115
16.7695
16.6576
16.5685
16.4873
16.4408
16.3655
16.2543
16.2331
16.217
16.1754
16.1664
16.1924
16.2791
16.3647
16.4382
16.568
16.7294
16.8691
16.962
17.0284
17.0409
16.9857
16.8544
16.5841
16.2426
15.7983
15.2247
14.5616
13.854
13.0841
12.3064
11.5957
10.8863
10.2615
9.71889
9.2069
8.83896
8.5403
8.3362
8.21823
8.03308
7.98705
7.97403
7.77688
7.84285
7.80123
7.63084
7.77754
7.63388
7.51951
7.63624
7.43841
7.30665
7.27463
7.03107
6.92737
6.68796
6.29834
6.1467
5.62543
4.97828
4.5563
3.76964
2.90265
2.23217
1.27536
0.254677
-0.577959
-1.62544
-2.633
-3.47344
-4.40928
-5.1952
-5.6602
-6.1162
-6.33866
-6.14507
-5.86753
-5.35178
-4.42765
-3.36904
-2.17963
-0.557619
1.06578
2.73203
4.47964
6.3192
8.0011
9.80782
11.5153
12.9963
14.3572
15.7294
16.8652
17.9461
18.963
19.9426
20.6539
21.3603
21.9993
22.715
23.2535
23.8651
24.656
25.402
26.2106
27.2894
28.647
29.4799
29.9937
31.2027
32.3453
32.4214
32.2967
31.9173
30.3384
29.176
26.5962
22.4634
18.0973
13.1703
9.8158
5.70759
1.49547
-4.47358
-7.95681
-14.5287
-16.5184
-18.4688
-17.53
-14.8907
-11.5321
-7.75727
-4.89008
-2.37653
-1.0018
0.0388672
-0.0409852
-0.364124
-1.14059
-1.5028
-2.23751
-2.56417
-2.89256
-3.0025
-2.68947
-2.09131
-1.40237
-0.346085
1.1435
2.34815
3.96165
5.67245
7.43782
9.34315
11.2291
13.3551
14.3791
15.1535
15.9955
15.4557
21.7395
21.5212
19.3708
17.472
16.4184
15.9779
16.0603
16.3326
16.8794
17.415
17.7335
17.9653
18.0395
18.1744
18.1379
17.9912
17.8908
17.7507
17.6969
17.5452
17.4186
17.3548
17.2956
17.2765
17.1687
17.1506
17.1452
17.1128
17.1209
17.0582
17.0915
17.0811
17.0234
17.0024
16.9697
16.966
16.8789
16.7862
16.7623
16.6952
16.6179
16.5026
16.4467
16.443
16.3309
16.258
16.2465
16.2272
16.2216
16.1935
16.2223
16.3153
16.37
16.4152
16.5162
16.6322
16.7169
16.7725
16.7849
16.7716
16.7184
16.5598
16.3279
16.0213
15.6354
15.1477
14.5461
13.9559
13.2628
12.5646
11.9474
11.2465
10.715
10.1862
9.63868
9.35204
8.99324
8.72071
8.59415
8.33261
8.27471
8.15918
7.9861
8.03997
7.90079
7.78618
7.84972
7.67616
7.64374
7.61208
7.43299
7.36752
7.15039
7.05942
6.92145
6.5566
6.363
6.06899
5.58238
5.10159
4.53734
3.79044
3.05802
2.27171
1.36744
0.516799
-0.36489
-1.34688
-2.23398
-3.10588
-4.01635
-4.64155
-5.1491
-5.62222
-5.72387
-5.54248
-5.2893
-4.64342
-3.72548
-2.69331
-1.46984
-0.00562887
1.54076
3.28296
5.0751
6.86456
8.49661
10.1824
11.787
13.3231
14.7009
15.9554
16.9969
18.0439
18.9752
19.8804
20.595
21.2265
21.7685
22.365
22.7753
23.2751
23.7191
24.4097
25.2241
26.3539
27.5007
28.6399
29.2621
30.5139
31.4357
32.1662
32.2896
32.7379
31.3538
29.21
25.5315
21.006
16.0445
10.5674
7.60371
4.11108
-0.563009
-5.65446
-10.7189
-19.7623
-20.7716
-23.4724
-22.2215
-18.5828
-13.4482
-8.33907
-4.28752
-0.651115
1.43995
3.22916
3.76185
3.87799
3.89237
3.38491
2.31684
1.90563
1.51666
1.41228
1.20434
1.59073
2.02622
2.47385
3.89489
4.96805
5.82694
7.10335
8.70943
10.1387
11.3956
13.0763
13.8419
13.9863
14.4666
14.1627
21.908
21.6312
19.4655
17.5694
16.4379
15.9437
15.9828
16.2684
16.8444
17.3648
17.7187
17.9542
18.0239
18.1629
18.1043
17.9684
17.842
17.6952
17.6636
17.491
17.3881
17.3178
17.2632
17.2726
17.1375
17.1481
17.1275
17.0933
17.1252
17.0169
17.0791
17.0443
16.9674
16.9797
16.8943
16.9272
16.8223
16.7106
16.7388
16.6242
16.5754
16.4634
16.376
16.4363
16.2971
16.2404
16.2641
16.2214
16.2416
16.2056
16.2245
16.3314
16.3533
16.3768
16.4703
16.537
16.589
16.6205
16.5852
16.5726
16.5123
16.3291
16.132
15.8597
15.5236
15.0878
14.5671
14.05
13.4059
12.8017
12.2269
11.5691
11.0954
10.6246
10.0952
9.75216
9.3895
9.09267
8.8835
8.63101
8.483
8.36914
8.22174
8.15067
8.01408
7.94333
7.89552
7.76358
7.72774
7.58274
7.48353
7.39228
7.13612
7.09405
6.86313
6.51505
6.45197
6.03125
5.58361
5.22558
4.52999
3.92083
3.22168
2.33508
1.55443
0.743151
-0.186926
-1.09188
-1.91806
-2.80486
-3.64995
-4.24782
-4.76641
-5.19278
-5.25246
-5.10143
-4.82762
-4.1583
-3.29536
-2.35084
-1.07007
0.436236
2.02201
3.80214
5.53114
7.21138
8.85399
10.4884
12.0545
13.6787
15.0264
16.2199
17.1924
18.1718
19.0294
19.9278
20.6141
21.1588
21.4933
21.9148
22.172
22.4606
22.7486
23.4879
24.2111
25.4547
26.3949
27.6446
28.7187
30.0384
30.7243
32.2828
32.8254
33.7381
32.5572
29.3586
24.1525
19.3849
13.834
8.23371
5.06968
2.62379
-1.17269
-4.56773
-11.8796
-22.5326
-23.5385
-28.5291
-25.4573
-20.6109
-14.4491
-8.70101
-3.20474
1.34398
4.03663
6.62224
8.03202
8.31527
8.58951
8.23763
7.45372
6.93987
6.12531
5.84699
5.24819
5.27942
5.62811
5.60549
6.61173
7.39824
8.11391
9.07183
9.89646
10.9779
12.0978
13.0245
13.5672
13.4829
13.2837
12.7866
21.9456
21.6137
19.4775
17.6344
16.5032
15.9824
15.9997
16.3017
16.87
17.3523
17.7075
17.9302
17.9967
18.1143
18.0532
17.9231
17.7871
17.6481
17.6271
17.4673
17.3633
17.2924
17.2461
17.2619
17.1102
17.1279
17.1156
17.0704
17.1067
16.9911
17.0482
17.0186
16.9151
16.9556
16.8547
16.8766
16.7838
16.6474
16.7088
16.5784
16.5135
16.4442
16.3386
16.4113
16.2814
16.2049
16.2727
16.2155
16.226
16.2125
16.2111
16.316
16.3296
16.3267
16.4163
16.4694
16.4685
16.4922
16.4463
16.4042
16.3509
16.1719
15.9746
15.7391
15.4472
15.0582
14.5994
14.1297
13.5567
13.0383
12.4663
11.8715
11.4509
10.9393
10.4875
10.1341
9.71522
9.44159
9.1663
8.88561
8.7684
8.53562
8.4374
8.31055
8.06822
8.12141
7.94153
7.79032
7.83116
7.56364
7.56686
7.42258
7.0887
7.18264
6.86214
6.54227
6.54153
6.03853
5.67251
5.34574
4.58803
4.05577
3.43149
2.48869
1.75706
0.943999
-0.0279976
-0.810515
-1.64994
-2.62486
-3.3635
-3.93717
-4.50528
-4.89722
-4.92337
-4.86378
-4.59899
-3.93362
-3.16708
-2.12395
-0.686631
0.766617
2.27325
4.01072
5.7748
7.497
9.16267
10.8713
12.3838
13.8651
15.239
16.5511
17.5241
18.4598
19.1829
20.0616
20.5965
21.0323
21.2152
21.5077
21.545
21.5671
21.7204
22.356
22.958
24.0016
25.1441
26.7816
28.326
29.645
30.3799
32.4395
33.4868
34.3745
33.3936
29.884
23.3886
17.8269
11.8568
7.06017
2.75863
0.802608
-1.76232
-2.44458
-10.1267
-20.0046
-23.6638
-32.5807
-26.0848
-20.8708
-14.4707
-7.8078
-1.41279
3.28675
7.07995
10.1337
11.9464
12.7983
13.3458
12.9472
12.1408
11.6847
10.7786
10.2036
9.58151
9.13239
9.3073
9.17308
9.44828
9.64604
10.0344
10.9784
11.2085
11.8044
12.6865
13.2252
13.752
13.325
12.4784
11.8665
21.9469
21.5106
19.3934
17.6161
16.4797
16.0314
16.0511
16.406
16.944
17.3876
17.7376
17.9184
17.9892
18.0608
17.9986
17.8794
17.7239
17.6097
17.5712
17.4534
17.3441
17.2637
17.2398
17.2367
17.126
17.1036
17.1049
17.0684
17.0715
16.9868
17.0056
16.9906
16.8802
16.9008
16.8371
16.8169
16.7367
16.6064
16.6577
16.5545
16.4652
16.4106
16.3185
16.3734
16.2558
16.1848
16.2498
16.2015
16.2023
16.1885
16.202
16.2821
16.2905
16.2904
16.3429
16.3938
16.3809
16.3743
16.3411
16.2869
16.2383
16.061
15.8605
15.6727
15.3928
15.0388
14.6535
14.2063
13.7164
13.2356
12.7112
12.1866
11.7497
11.3042
10.8421
10.464
10.0734
9.73904
9.47437
9.14802
8.97272
8.74738
8.55389
8.4615
8.20936
8.15001
8.04654
7.86059
7.84297
7.64951
7.55328
7.43955
7.21488
7.19416
6.9081
6.70068
6.57778
6.13654
5.86245
5.4336
4.78376
4.27945
3.50654
2.69963
2.02992
1.09739
0.213697
-0.574521
-1.49592
-2.37612
-3.14316
-3.80608
-4.39687
-4.73589
-4.80322
-4.85521
-4.55947
-3.81701
-3.0249
-2.02037
-0.631842
0.757396
2.27601
4.14795
6.01518
7.70784
9.37541
11.0425
12.6629
14.1509
15.4747
16.8299
17.9075
18.7615
19.4518
20.2332
20.6653
21.0432
21.1794
21.2034
20.7684
20.5032
20.5612
20.7547
21.2276
22.4538
24.012
25.9166
27.8304
29.1961
30.1161
32.4104
34.0039
34.4955
33.83
29.9802
23.7902
17.5916
10.936
7.17551
2.16959
-1.42899
-4.35538
-4.85034
-8.93903
-15.5578
-21.6975
-30.4906
-21.9395
-20.9091
-14.0392
-5.46881
1.03858
5.87061
10.1994
13.3785
15.855
16.9989
17.3219
17.6955
16.8613
15.9311
15.0478
14.2049
13.7322
12.6265
12.6738
12.1552
11.9674
12.2604
11.7983
12.4003
12.3701
12.579
13.3758
13.5639
14.0952
13.2954
11.6589
11.0517
21.8084
21.3197
19.2683
17.5916
16.532
16.1567
16.2218
16.605
17.0956
17.4658
17.772
17.8898
17.949
17.9688
17.9071
17.812
17.6558
17.5778
17.5227
17.4477
17.344
17.2473
17.2448
17.2156
17.1412
17.0882
17.0772
17.0671
17.0247
16.9755
16.9631
16.9455
16.862
16.8377
16.8196
16.7663
16.6837
16.5881
16.5897
16.5304
16.4282
16.36
16.324
16.3213
16.2258
16.1837
16.1985
16.1871
16.181
16.1402
16.19
16.2286
16.2336
16.2576
16.2589
16.3342
16.3194
16.2673
16.2762
16.2033
16.1272
15.9953
15.7968
15.6165
15.3808
15.0607
14.7058
14.3156
13.8879
13.4333
12.9562
12.4761
12.0444
11.6177
11.1702
10.7816
10.3753
10.0371
9.74039
9.39628
9.15684
8.9346
8.73368
8.54514
8.31965
8.23828
8.09231
7.93714
7.84058
7.69664
7.6352
7.43074
7.32935
7.25184
6.95491
6.88026
6.6424
6.29642
6.11679
5.54709
5.00452
4.54578
3.70177
2.98669
2.26319
1.27299
0.464569
-0.343378
-1.37935
-2.24638
-2.99817
-3.76877
-4.36498
-4.71607
-4.89521
-4.88987
-4.51917
-3.8772
-3.19952
-2.15709
-0.738823
0.652351
2.30286
4.194
6.01512
7.77202
9.52298
11.2029
12.8666
14.4125
15.8135
17.0265
18.115
19.0724
19.8552
20.5835
20.9044
21.1504
21.1689
21.0972
20.107
19.2738
19.2228
19.2963
19.4035
20.6318
22.6805
24.8159
27.0966
28.7636
30.0249
32.3197
34.4093
34.7318
33.8561
29.817
24.3796
18.8393
12.2823
7.56643
2.65847
-1.83478
-7.41209
-8.6239
-7.39968
-8.62834
-16.4951
-23.0807
-15.5609
-21.4244
-10.6867
-2.35559
3.09374
8.55972
13.1341
16.4388
19.5505
20.9518
21.026
21.9611
20.478
19.84
19.3063
17.7502
17.5111
15.5446
15.6643
15.0617
13.896
14.5476
13.9261
13.955
13.256
12.8968
13.7337
13.8874
14.3893
13.614
11.4169
10.4058
21.5196
21.0075
19.0851
17.5475
16.6162
16.3449
16.4708
16.8592
17.2698
17.5725
17.8105
17.8694
17.9058
17.8741
17.8179
17.7351
17.5895
17.5377
17.4683
17.4258
17.3374
17.2376
17.244
17.196
17.1499
17.0821
17.0541
17.0592
16.9902
16.9611
16.9283
16.8949
16.844
16.7818
16.7827
16.7203
16.6319
16.5765
16.5311
16.4959
16.3974
16.3164
16.3095
16.2656
16.2018
16.1637
16.1475
16.1652
16.1345
16.1007
16.1572
16.1644
16.1747
16.2081
16.1939
16.2636
16.256
16.2028
16.2101
16.139
16.0677
15.9476
15.7704
15.6126
15.3826
15.1109
14.7888
14.4259
14.058
13.6364
13.1973
12.7442
12.329
11.9243
11.4526
11.0875
10.696
10.2835
10.0062
9.63199
9.35582
9.11649
8.83667
8.67142
8.42097
8.27273
8.15167
7.95201
7.87064
7.75765
7.63963
7.50598
7.38768
7.30199
7.13621
7.00821
6.80474
6.55264
6.26577
5.76402
5.28593
4.72518
3.98347
3.27912
2.45047
1.55455
0.720278
-0.225475
-1.2011
-2.12353
-3.00753
-3.76746
-4.35337
-4.75096
-4.95914
-4.97361
-4.69183
-4.13385
-3.39189
-2.29536
-0.913496
0.553225
2.21213
4.14488
5.99588
7.77794
9.60155
11.3694
13.0208
14.6412
16.0893
17.2828
18.3042
19.2389
20.1651
20.9445
21.3517
21.4177
21.2147
20.9143
19.7198
18.3959
17.7544
17.6058
17.5386
19.0111
21.4589
23.719
25.7917
27.8276
29.7721
32.3742
34.6123
34.9213
33.8391
30.171
24.8136
19.1168
14.4898
8.0259
0.694828
0.910631
-9.97932
-4.30012
-0.332623
-2.98228
-11.6387
-16.7403
-11.8711
-17.4604
-4.60326
-0.0151339
5.76242
11.26
15.6221
19.4226
22.6811
23.8967
24.3524
25.7296
23.6503
23.5675
22.6315
20.7016
20.8336
18.2402
18.4143
17.5725
16.1474
16.4888
15.1301
14.9734
14.1166
13.3262
14.0118
14.0669
14.3761
13.6862
11.5751
10.4597
20.9379
20.433
18.8238
17.567
16.8577
16.7042
16.8664
17.213
17.4971
17.7089
17.8451
17.8353
17.8265
17.7466
17.7025
17.6318
17.5298
17.5053
17.4422
17.4269
17.3436
17.2616
17.2495
17.1806
17.1444
17.0666
17.0317
17.0294
16.9574
16.9398
16.8963
16.855
16.8232
16.7472
16.7415
16.6788
16.589
16.5551
16.4792
16.4458
16.3636
16.2798
16.2792
16.2159
16.174
16.1398
16.1092
16.1204
16.0838
16.07
16.1038
16.1055
16.1263
16.1529
16.1486
16.1939
16.1961
16.1512
16.1508
16.097
16.0278
15.9223
15.7757
15.6259
15.4127
15.1735
14.8911
14.558
14.2225
13.8417
13.4215
13.0128
12.5984
12.1886
11.764
11.3645
10.959
10.559
10.2089
9.85174
9.53293
9.21628
8.97679
8.75699
8.47614
8.34758
8.17476
8.01804
7.93895
7.73787
7.68486
7.5661
7.39159
7.41198
7.2434
7.09033
7.0266
6.75677
6.46683
6.0849
5.49894
4.91951
4.31437
3.48391
2.61693
1.81456
0.868373
-0.0830594
-1.01406
-2.03381
-2.96007
-3.72804
-4.3541
-4.81161
-5.04532
-5.03998
-4.79311
-4.2698
-3.44332
-2.37586
-1.04133
0.49744
2.20173
4.09272
5.99605
7.83424
9.62335
11.3893
13.1145
14.7694
16.2392
17.5459
18.5493
19.4193
20.281
21.0723
21.6327
21.8721
21.53
20.724
19.3428
17.9184
16.8027
15.7058
15.3039
17.6115
20.6645
23.1068
25.0952
27.4337
29.623
32.3535
34.6691
35.0417
34.2705
30.4681
25.7123
18.8713
13.8495
10.8397
-1.63553
-1.6545
-9.98465
2.82705
-2.10547
-8.74996
-7.23972
-10.0814
-5.84061
-7.49074
-0.265282
2.53118
8.86014
12.9791
18.2303
21.9635
25.1765
26.5215
27.1041
28.428
26.2262
26.7465
25.4828
23.5133
23.3162
20.336
20.6631
19.3906
17.8416
18.1022
16.319
15.762
14.6222
13.6372
14.1737
14.0644
14.3194
13.9098
11.9388
10.6345
20.1272
19.6908
18.5882
17.7171
17.2254
17.1665
17.3033
17.5539
17.7064
17.8073
17.8538
17.7875
17.7493
17.6585
17.6138
17.5633
17.4899
17.4796
17.4246
17.4029
17.3378
17.2686
17.2371
17.1684
17.1273
17.0647
17.0233
17.0018
16.9461
16.9124
16.8703
16.8222
16.7876
16.7278
16.6955
16.6419
16.5641
16.527
16.449
16.3972
16.3347
16.259
16.2387
16.1795
16.1452
16.1123
16.0792
16.0774
16.0434
16.0437
16.0559
16.0515
16.0808
16.1015
16.1007
16.1429
16.1451
16.118
16.1189
16.0698
16.0113
15.9153
15.794
15.6583
15.4453
15.2525
14.9953
14.6705
14.3856
14.0069
13.6201
13.2419
12.8221
12.4319
11.988
11.5883
11.1926
10.7451
10.4025
10.0178
9.66026
9.3618
9.05014
8.80772
8.5309
8.36083
8.22062
8.01293
7.92579
7.80016
7.69866
7.6206
7.49467
7.46423
7.35166
7.21141
7.12845
6.93855
6.65207
6.22157
5.68909
5.12781
4.46931
3.68342
2.80511
1.92419
1.03499
0.0827349
-0.937507
-1.92488
-2.8231
-3.67454
-4.32456
-4.72687
-4.99434
-5.02092
-4.74181
-4.22434
-3.44254
-2.35674
-0.985142
0.567303
2.23789
4.1103
6.0672
7.89788
9.66663
11.4248
13.114
14.7678
16.2977
17.5965
18.7299
19.6867
20.525
21.1319
21.6644
22.0254
21.8889
20.9598
19.1937
17.2782
15.9048
14.9472
14.919
17.2979
20.1402
22.315
24.4803
27.5027
30.1718
32.7919
34.5486
35.41
34.9392
31.6952
25.738
21.3454
13.0202
4.2741
4.42638
-1.27156
-6.99426
-0.531356
-7.02142
-17.482
-13.0089
0.54453
-0.736655
-1.83364
3.04843
5.54436
10.7998
14.4979
20.3014
23.2436
27.1382
28.3829
29.1783
30.3254
28.4128
28.9397
27.1375
25.6152
25.1444
22.2017
22.2289
20.9589
19.4727
19.0151
17.1493
16.4809
15.0175
13.8606
14.0191
13.9119
14.2727
13.9883
12.428
11.2064
19.2421
18.9909
18.4498
17.9929
17.745
17.7236
17.7583
17.8452
17.8772
17.872
17.8303
17.7306
17.6711
17.5902
17.5458
17.5122
17.4708
17.4649