/*--------------------------------*- C++ -*----------------------------------*\
| =========                 |                                                 |
| \\      /  F ield         | OpenFOAM: The Open Source CFD Toolbox           |
|  \\    /   O peration     | Version:  2.4.0                                 |
|   \\  /    A nd           | Web:      www.OpenFOAM.org                      |
|    \\/     M anipulation  |                                                 |
\*---------------------------------------------------------------------------*/
FoamFile
{
    version     2.0;
    format      ascii;
    class       volScalarField;
    location    "0.55";
    object      pPrime2Mean;
}
// * * * * * * * * * * * * * * * * * * * * * * * * * * * * * * * * * * * * * //

dimensions      [0 4 -4 0 0 0 0];

internalField   nonuniform List<scalar> 
8800
(
1.17548e+06
1.14582e+06
1.114e+06
1.08244e+06
1.05132e+06
1.02065e+06
990435
960671
931358
902496
874082
846112
818578
791465
764746
738370
712238
686146
659626
631194
1.17552e+06
1.14582e+06
1.11399e+06
1.08244e+06
1.05132e+06
1.02065e+06
990435
960671
931359
902497
874083
846113
818580
791469
764753
738384
712266
686205
659772
631675
1.17555e+06
1.14582e+06
1.11399e+06
1.08244e+06
1.05132e+06
1.02065e+06
990435
960671
931359
902497
874084
846116
818584
791477
764768
738412
712321
686320
660040
632611
1.17557e+06
1.14582e+06
1.11398e+06
1.08243e+06
1.05132e+06
1.02065e+06
990434
960670
931359
902498
874086
846119
818590
791488
764789
738453
712400
686484
660413
633700
1.17558e+06
1.14582e+06
1.11397e+06
1.08243e+06
1.05132e+06
1.02065e+06
990434
960670
931359
902498
874088
846123
818598
791503
764817
738505
712501
686688
660862
634827
1.1756e+06
1.14582e+06
1.11397e+06
1.08242e+06
1.05131e+06
1.02065e+06
990434
960670
931359
902499
874090
846128
818608
791520
764850
738567
712620
686922
661355
635927
1.17561e+06
1.14582e+06
1.11396e+06
1.08242e+06
1.05131e+06
1.02065e+06
990434
960670
931359
902501
874093
846134
818619
791541
764887
738636
712752
687178
661868
636972
1.17561e+06
1.14583e+06
1.11396e+06
1.08242e+06
1.05131e+06
1.02065e+06
990434
960670
931360
902502
874096
846140
818631
791563
764928
738712
712893
687447
662386
637948
1.17562e+06
1.14583e+06
1.11396e+06
1.08241e+06
1.05131e+06
1.02065e+06
990435
960671
931361
902504
874100
846147
818643
791586
764971
738792
713041
687720
662893
638847
1.17562e+06
1.14583e+06
1.11396e+06
1.08241e+06
1.05131e+06
1.02065e+06
990435
960672
931362
902506
874104
846154
818657
791611
765016
738873
713189
687991
663379
639665
1.17562e+06
1.14583e+06
1.11396e+06
1.08241e+06
1.05131e+06
1.02065e+06
990436
960672
931363
902508
874108
846161
818670
791635
765060
738954
713336
688254
663836
640403
1.17562e+06
1.14583e+06
1.11396e+06
1.08241e+06
1.05131e+06
1.02065e+06
990436
960673
931364
902511
874112
846169
818683
791659
765104
739033
713477
688503
664258
641061
1.17561e+06
1.14583e+06
1.11396e+06
1.08242e+06
1.05131e+06
1.02065e+06
990436
960674
931366
902513
874116
846176
818696
791682
765146
739108
713610
688733
664641
641641
1.17561e+06
1.14582e+06
1.11396e+06
1.08242e+06
1.05131e+06
1.02065e+06
990436
960675
931367
902515
874120
846183
818708
791704
765184
739177
713732
688942
664981
642145
1.1756e+06
1.14582e+06
1.11397e+06
1.08242e+06
1.05131e+06
1.02065e+06
990437
960676
931369
902518
874123
846189
818719
791723
765219
739239
713840
689125
665276
642575
1.17558e+06
1.14582e+06
1.11397e+06
1.08243e+06
1.05132e+06
1.02065e+06
990437
960677
931370
902520
874127
846194
818729
791740
765249
739292
713933
689282
665523
642932
1.17557e+06
1.14582e+06
1.11398e+06
1.08243e+06
1.05132e+06
1.02065e+06
990438
960678
931372
902522
874130
846199
818736
791754
765274
739337
714009
689408
665722
643217
1.17555e+06
1.14582e+06
1.11399e+06
1.08244e+06
1.05132e+06
1.02065e+06
990439
960679
931373
902523
874132
846203
818743
791765
765294
739371
714067
689505
665871
643428
1.17552e+06
1.14582e+06
1.11399e+06
1.08244e+06
1.05132e+06
1.02065e+06
990440
960679
931374
902524
874133
846205
818747
791773
765307
739394
714107
689570
665971
643569
1.17548e+06
1.14582e+06
1.114e+06
1.08245e+06
1.05132e+06
1.02066e+06
990440
960680
931374
902525
874134
846206
818749
791776
765313
739405
714127
689602
666022
643637
605433
598496
593204
588630
584389
580352
576460
572675
568974
565339
561759
558224
554727
551263
547828
544416
541025
537652
534293
530950
527621
524306
521005
517718
514443
511180
507930
504691
501464
498249
495047
491857
488682
485521
482373
479240
476121
473016
469924
466845
463777
460719
457672
454633
451601
448578
445564
442557
439560
436572
433594
430625
427664
424712
421770
418837
415915
413004
410104
407214
404334
401464
398604
395752
392911
390080
387260
384453
381657
378873
376100
373337
370584
367840
365106
362382
359668
356964
354271
351590
348922
346267
343626
340996
338378
335770
333171
330582
328001
325429
322866
320312
317765
315226
312695
310172
307658
305153
302657
300170
297692
295225
292767
290320
287883
285458
283043
280638
278245
275861
273488
271125
268772
266430
264098
261777
259466
257165
254874
252594
250323
248064
245816
243579
241354
239141
236941
234752
232575
230410
228255
226111
223975
221849
219732
217623
215523
213430
211347
209273
207207
205152
203105
201069
199042
197024
195016
193018
191030
189052
187084
185128
183181
181245
179319
177403
175497
173602
171716
169840
167974
166119
164274
162440
160616
158803
157002
155212
153433
151667
149911
148169
146434
144715
143001
141305
139609
137934
136255
134599
132938
131296
129653
128023
126394
124775
123152
121538
119913
118293
116655
115011
113341
111650
109916
108135
106273
104297
102138
99569.9
610374
602983
596957
591768
587074
582686
578509
574487
570584
566776
563045
559377
555763
552195
548667
545172
541706
538265
534847
531450
528072
524713
521372
518048
514740
511448
508171
504908
501659
498425
495205
492000
488810
485635
482476
479331
476201
473086
469984
466896
463819
460754
457700
454655
451619
448592
445574
442565
439566
436576
433595
430625
427664
424712
421771
418839
415918
413008
410109
407220
404341
401473
398614
395764
392925
390096
387278
384471
381676
378892
376119
373356
370603
367860
365126
362403
359689
356986
354294
351615
348949
346296
343656
341028
338412
335805
333207
330619
328039
325469
322907
320353
317805
315266
312734
310211
307696
305190
302693
300206
297728
295260
292801
290354
287917
285490
283074
280668
278272
275886
273511
271145
268790
266446
264113
261790
259478
257177
254887
252607
250338
248080
245833
243598
241375
239165
236967
234781
232607
230444
228291
226147
224013
221887
219770
217660
215559
213466
211382
209306
207240
205183
203136
201098
199069
197049
195040
193039
191049
189069
187100
185141
183193
181255
179328
177410
175501
173603
171714
169835
167965
166106
164256
162416
160585
158766
156956
155157
153368
151591
149823
148067
146318
144584
142852
141139
139424
137729
136030
134348
132664
130994
129323
127661
125996
124339
122674
121012
119339
117660
115962
114244
112494
110705
108862
106938
104924
102704
100302
97485.1
613803
606470
600163
594606
589574
584895
580469
576233
572144
568173
564298
560504
556777
553108
549489
545913
542374
538868
535391
531940
528514
525112
521732
518372
515032
511711
508408
505121
501851
498598
495361
492140
488936
485749
482577
479421
476281
473155
470044
466946
463862
460789
457728
454678
451637
448606
445584
442572
439570
436578
433597
430625
427664
424713
421772
418842
415922
413013
410115
407227
404350
401483
398626
395778
392941
390114
387298
384493
381698
378914
376141
373378
370626
367882
365149
362425
359712
357010
354319
351641
348976
346325
343687
341061
338446
335840
333244
330657
328079
325510
322949
320395
317847
315307
312776
310252
307737
305231
302734
300246
297768
295300
292841
290392
287954
285526
283108
280700
278302
275913
273535
271167
268809
266462
264127
261803
259491
257190
254901
252622
250354
248098
245853
243621
241401
239193
236998
234815
232643
230482
228330
226188
224054
221927
219809
217698
215596
213501
211416
209339
207272
205215
203166
201126
199096
197074
195062
193059
191067
189085
187114
185155
183205
181266
179336
177416
175505
173604
171712
169829
167955
166091
164236
162390
160553
158727
156909
155102
153302
151515
149733
147965
146200
144451
142702
140971
139239
137521
135804
134098
132392
130693
128995
127300
125604
123906
122205
120495
118777
117041
115288
113500
111682
109800
107877
105822
103713
101351
98831.6
96023.3
616413
609274
602889
597128
591859
586952
582317
577893
573636
569515
565507
561593
557759
553994
550288
546633
543024
539454
535920
532418
528946
525501
522083
518689
515318
511968
508639
505330
502040
498768
495514
492279
489061
485860
482677
479510
476359
473224
470103
466997
463904
460824
457756
454700
451654
448619
445594
442580
439576
436582
433599
430627
427666
424716
421776
418846
415928
413020
410123
407236
404360
401495
398640
395795
392959
390134
387320
384516
381722
378939
376166
373403
370650
367906
365173
362449
359735
357033
354343
351667
349004
346354
343718
341093
338480
335875
333281
330696
328119
325551
322991
320437
317890
315350
312818
310294
307779
305273
302777
300289
297811
295342
292883
290434
287994
285564
283144
280733
278332
275941
273560
271188
268828
266479
264142
261817
259505
257204
254915
252637
250372
248117
245875
243646
241429
239224
237033
234852
232683
230523
228373
226230
224096
221968
219849
217736
215631
213535
211448
209370
207302
205243
203193
201152
199120
197097
195083
193077
191083
189099
187128
185166
183215
181275
179343
177420
175507
173603
171707
169820
167942
166073
164213
162362
160519
158686
156859
155044
153234
151436
149642
147860
146081
144315
142552
140801
139054
137315
135580
133850
132122
130397
128672
126945
125218
123482
121746
119989
118231
116438
114640
112780
110915
108942
106962
104809
102618
100214
97668.3
94940.9
618512
611570
605203
599346
593922
588843
584038
579454
575049
570794
566663
562638
558703
554847
551058
547329
543652
540022
536433
532881
529364
525880
522425
518997
515596
512219
508866
505535
502225
498935
495665
492415
489184
485970
482775
479598
476437
473292
470162
467047
463947
460860
457786
454724
451673
448634
445606
442589
439583
436588
433605
430632
427671
424720
421781
418853
415935
413029
410133
407248
404373
401509
398656
395812
392979
390156
387343
384540
381748
378965
376192
373428
370674
367930
365195
362470
359757
357055
354366
351690
349029
346381
343746
341123
338511
335909
333316
330733
328158
325591
323032
320478
317931
315392
312860
310336
307822
305316
302819
300332
297855
295385
292926
290475
288034
285601
283179
280765
278362
275967
273583
271208
268846
266495
264156
261831
259518
257217
254929
252653
250389
248137
245898
243671
241457
239256
237067
234890
232723
230564
228415
226272
224137
222008
219886
217771
215665
213566
211477
209397
207328
205267
203216
201174
199141
197116
195100
193093
191098
189112
187139
185175
183223
181280
179347
177421
175506
173597
171698
169807
167926
166051
164186
162329
160480
158641
156807
154983
153164
151354
149549
147753
145961
144179
142402
140633
138870
137111
135358
133605
131857
130103
128356
126595
124843
123066
121301
119495
117706
115855
114021
112097
110185
108147
106105
103908
101652
99255.5
96734.1
94084.2
620279
613506
607188
601289
595767
590563
585624
580906
576374
571999
567758
563632
559604
555663
551798
547998
544258
540569
536928
533330
529770
526247
522756
519297
515867
512465
509088
505736
502407
499100
495814
492550
489305
486080
482873
479685
476514
473360
470222
467099
463991
460897
457817
454749
451694
448652
445621
442601
439594
436598
433613
430640
427679
424728
421790
418862
415945
413040
410145
407261
404388
401526
398673
395832
393000
390178
387366
384564
381772
378989
376216
373451
370695
367949
365213
362488
359774
357072
354384
351710
349050
346403
343770
341149
338538
335938
333348
330766
328194
325629
323071
320518
317972
315432
312901
310377
307862
305356
302860
300373
297895
295426
292966
290514
288070
285636
283211
280795
278388
275991
273603
271226
268861
266508
264169
261843
259530
257230
254943
252668
250406
248156
245919
243695
241485
239286
237101
234925
232761
230603
228455
226312
224176
222045
219921
217803
215694
213592
211502
209419
207349
205286
203235
201191
199157
197130
195113
193104
191108
189121
187147
185180
183227
181280
179345
177416
175500
173586
171684
169789
167903
166023
164154
162290
160436
158589
156749
154916
153089
151267
149453
147642
145840
144041
142251
140464
138688
136907
135140
133361
131596
129813
128047
126253
124477
122663
120869
119023
117198
115305
113426
111462
109496
107424
105326
103116
100830
98448.1
95959.2
93370.4
621801
615165
608901
602989
597407
592114
587071
582245
577605
573127
568788
564570
560459
556440
552503
548638
544838
541096
537405
533762
530162
526602
523078
519589
516131
512704
509305
505932
502585
499261
495961
492682
489425
486188
482970
479772
476591
473428
470282
467151
464036
460936
457850
454777
451718
448672
445638
442617
439608
436610
433625
430651
427689
424739
421801
418874
415958
413053
410160
407277
404405
401543
398692
395851
393020
390199
387387
384586
381793
379009
376234
373468
370711
367964
365226
362500
359786
357085
354397
351724
349065
346420
343788
341168
338560
335962
333373
330794
328224
325662
323105
320553
318008
315469
312937
310412
307896
305390
302894
300407
297930
295461
293000
290546
288101
285665
283238
280819
278410
276009
273618
271238
268872
266519
264179
261853
259541
257241
254955
252681
250420
248172
245937
243716
241508
239313
237130
234957
232794
230638
228490
226346
224209
222076
219950
217829
215717
213613
211520
209436
207364
205300
203248
201203
199168
197139
195120
193109
191112
189123
187148
185177
183223
181274
179336
177405
175486
173568
171663
169764
167872
165988
164113
162245
160385
158530
156683
154843
153008
151176
149351
147528
145715
143901
142098
140296
138505
136706
134921
133123
131338
129533
127742
125924
124118
122279
120450
118577
116712
114792
112870
110878
108870
106778
104644
102430
100134
97762.3
95298.1
92756.8
623128
616602
610391
604482
598862
593506
588384
583470
578741
574173
569749
565450
561262
557172
553170
549245
545390
541597
537860
534175
530537
526942
523387
519869
516386
512935
509514
506122
502757
499418
496103
492811
489541
486293
483065
479857
476668
473496
470342
467204
464083
460977
457885
454809
451745
448696
445659
442636
439624
436626
433639
430665
427703
424753
421814
418888
415972
413068
410175
407292
404420
401559
398708
395867
393036
390215
387403
384601
381807
379022
376246
373478
370720
367972
365233
362507
359793
357092
354405
351732
349074
346430
343799
341181
338574
335977
333391
330814
328247
325687
323133
320583
318039
315499
312966
310440
307923
305416
302920
300433
297956
295486
293025
290570
288124
285686
283257
280836
278424
276020
273627
271245
268878
266524
264185
261860
259549
257250
254965
252692
250432
248185
245952
243732
241527
239334
237153
234981
232820
230664
228516
226372
224234
222099
219971
217847
215733
213627
211531
209446
207373
205308
203255
201210
199172
197142
195120
193107
191109
189118
187141
185167
183211
181260
179319
177386
175463
173543
171633
169731
167834
165945
164065
162192
160326
158464
156611
154765
152921
151081
149246
147415
145588
143763
141945
140132
138325
136512
134708
132894
131088
129265
127449
125611
123778
121916
120057
118162
116264
114320
112365
110351
108314
106210
104055
101836
99534.7
97169.4
94726
92223.6
624294
617855
611692
605792
600151
594749
589566
584582
579778
575135
570636
566266
562010
557857
553795
549815
545909
542070
538291
534567
530893
527265
523681
520136
516628
513155
509714
506304
502922
499568
496239
492935
489654
486395
483157
479940
476742
473563
470402
467258
464130
461019
457923
454842
451775
448722
445683
442657
439644
436644
433656
430681
427718
424767
421828
418901
415985
413081
410187
407305
404432
401571
398719
395878
393046
390224
387411
384608
381813
379027
376249
373480
370721
367972
365233
362507
359793
357092
354405
351733
349075
346432
343802
341186
338580
335986
333401
330826
328262
325704
323153
320604
318060
315520
312986
310458
307941
305433
302936
300449
297971
295500
293038
290583
288136
285696
283266
280843
278429
276023
273628
271246
268878
266525
264187
261863
259553
257256
254972
252700
250441
248194
245962
243742
241538
239347
237167
234996
232835
230680
228531
226388
224248
222112
219982
217857
215740
213633
211535
209449
207375
205309
203256
201210
199170
197137
195113
193099
191097
189104
187125
185149
183190
181237
179292
177359
175431
173511
171595
169692
167788
165899
164011
162135
160260
158395
156534
154687
152832
150986
149140
147303
145463
143630
141796
139975
138150
136327
134505
132678
130852
129013
127175
125319
123464
121583
119699
117785
115860
113897
111915
109887
107827
105716
103540
101314
99011.3
96652.6
94230
91760.4
625321
618952
612830
606943
601289
595854
590625
585585
580719
576012
571449
567016
562701
558491
554375
550346
546394
542512
538693
534933
531227
527569
523957
520387
516857
513363
509903
506476
503078
499710
496368
493052
489760
486492
483245
480020
476814
473628
470460
467310
464178
461061
457961
454876
451806
448750
445707
442679
439664
436662
433673
430696
427732
424780
421840
418912
415995
413090
410196
407312
404439
401576
398724
395881
393048
390224
387410
384605
381809
379022
376243
373474
370714
367964
365226
362500
359786
357085
354399
351726
349068
346425
343797
341181
338577
335985
333403
330831
328269
325714
323164
320615
318070
315529
312994
310466
307948
305439
302941
300453
297974
295503
293041
290584
288136
285696
283264
280840
278424
276017
273622
271240
268873
266520
264184
261861
259553
257258
254976
252705
250446
248199
245966
243746
241541
239350
237171
235001
232839
230684
228534
226390
224250
222114
219983
217858
215740
213632
211533
209446
207370
205303
203248
201200
199159
197123
195098
193079
191077
189082
187099
185123
183159
181207
179257
177328
175392
173473
171549
169652
167735
165852
163950
162078
160190
158327
156454
154611
152741
150897
149036
147194
145340
143503
141655
139829
137986
136156
134317
132479
130634
128781
126925
125054
123179
121283
119377
117447
115500
113521
111519
109481
107399
105279
103086
100853
98552.1
96202.8
93801
91359.4
626223
619911
613825
607951
602290
596831
591565
586480
581564
576804
572186
567700
563332
559071
554909
550834
546840
542920
539066
535273
531536
527851
524214
520621
517069
513556
510079
506636
503225
499843
496490
493163
489861
486583
483328
480095
476883
473690
470517
467361
464224
461103
457999
454910
451836
448776
445731
442700
439683
436678
433687
430709
427743
424790
421848
418918
416000
413094
410198
407313
404439
401575
398720
395876
393041
390217
387401
384594
381797
379009
376229
373459
370699
367950
365213
362487
359773
357072
354385
351712
349054
346411
343782
341168
338566
335976
333397
330827
328268
325714
323164
320614
318069
315526
312990
310461
307942
305433
302934
300444
297964
295493
293030
290573
288125
285683
283250
280825
278410
276004
273610
271229
268863
266511
264176
261855
259549
257256
254976
252706
250447
248199
245964
243743
241536
239344
237164
234993
232831
230675
228525
226381
224241
222106
219976
217852
215734
213626
211525
209437
207358
205290
203231
201181
199138
197099
195073
193051
191044
189051
187064
185091
183121
181172
179218
177291
175346
173431
171499
169609
167682
165804
163887
162018
160117
158260
156376
154538
152651
150809
148933
147096
145226
143383
141524
139696
137835
135998
134145
132297
130437
128573
126700
124818
122926
121018
119093
117149
115183
113191
111171
109124
107021
104887
102683
100446
98152.4
95814.3
93431.7
91014.2
627012
620747
614690
608829
603164
597688
592394
587273
582315
577510
572847
568315
563901
559597
555393
551279
547248
543292
539406
535583
531819
528109
524449
520836
517265
513735
510242
506784
503360
499966
496602
493265
489954
486668
483406
480166
476947
473749
470570
467410
464267
461142
458034
454941
451864
448801
445753
442719
439699
436692
433699
430718
427750
424795
421851
418920
416000
413091
410194
407308
404431
401566
398710
395864
393028
390202
387385
384577
381779
378990
376210
373440
370681
367932
365195
362471
359757
357056
354368
351694
349034
346390
343761
341147
338547
335959
333383
330816
328258
325703
323153
320601
318054
315511
312974
310443
307924
305414
302914
300423
297943
295470
293008
290550
288101
285659
283227
280802
278389
275984
273593
271213
268849
266499
264165
261846
259542
257251
254972
252702
250444
248194
245957
243733
241525
239330
237148
234976
232812
230656
228506
226361
224222
222089
219961
217837
215721
213612
211510
209421
207339
205269
203207
201152
199109
197067
195039
193015
191006
189013
187020
185053
183081
181136
179180
177252
175302
173387
171453
169562
167629
165751
163827
161958
160051
158193
156306
154467
152573
150723
148841
146997
145118
143274
141404
139575
137696
135857
133988
132133
130259
128388
126501
124610
122702
120784
118843
116887
114906
112903
110868
108805
106683
104539
102330
100094
97807.9
95481.1
93115.7
90718.9
627698
621471
615439
609589
603922
598433
593116
587966
582975
578134
573433
568861
564409
560067
555826
551677
547613
543627
539712
535863
532075
528342
524662
521030
517442
513896
510389
506919
503483
500078
496704
493358
490040
486746
483477
480230
477006
473802
470619
467454
464307
461178
458065
454969
451888
448822
445771
442734
439711
436701
433705
430723
427752
424794
421849
418915
415994
413083
410184
407296
404418
401550
398693
395846
393009
390182
387364
384556
381757
378968
376188
373419
370660
367912
365176
362452
359739
357037
354348
351673
349012
346366
343737
341122
338522
335936
333361
330796
328237
325681
323128
320575
318027
315483
312945
310414
307896
305385
302885
300392
297912
295438
292976
290517
288069
285626
283196
280773
278362
275960
273571
271193
268831
266483
264152
261834
259532
257241
254964
252694
250435
248183
245945
243719
241508
239310
237125
234950
232785
230627
228477
226332
224195
222062
219936
217813
215699
213588
211486
209395
207311
205239
203174
201117
199071
197027
194999
192972
190964
188972
186979
185010
183042
181095
179138
177210
175261
173340
171414
169518
167580
165694
163771
161895
159986
158120
156239
154394
152495
150649
148759
146911
145025
143170
141291
139457
137569
135728
133848
131987
130102
128224
126325
124425
122505
120577
118625
116658
114668
112648
110603
108520
106387
104235
102027
99793.8
97514.1
95197.8
92847.4
90468.6
628288
622091
616079
610238
604570
599071
593737
588564
583546
578675
573942
569338
564853
560479
556207
552028
547935
543922
539983
536111
532301
528549
524851
521202
517600
514040
510521
507039
503593
500179
496796
493442
490116
486816
483541
480289
477059
473850
470662
467492
464342
461208
458092
454992
451908
448839
445784
442744
439718
436705
433707
430721
427749
424788
421841
418905
415982
413069
410168
407278
404399
401530
398672
395824
392986
390158
387340
384532
381733
378944
376165
373396
370638
367892
365157
362433
359720
357017
354327
351651
348988
346341
343710
341094
338494
335908
333333
330767
328206
325648
323093
320538
317991
315445
312908
310377
307859
305347
302847
300354
297875
295401
292938
290479
288032
285589
283162
280740
278333
275933
273547
271171
268812
266464
264134
261817
259517
257226
254949
252679
250420
248167
245928
243698
241485
239283
237096
234917
232751
230591
228441
226297
224161
222028
219903
217781
215666
213554
211453
209360
207276
205202
203136
201077
199030
196986
194955
192928
190924
188926
186937
184969
183005
181051
179096
177163
175223
173290
171378
169472
167533
165647
163722
161825
159923
158051
156171
154318
152426
150572
148689
146839
144938
143069
141190
139343
137454
135611
133720
131858
129963
128078
126170
124263
122334
120396
118436
116458
114462
112423
110368
108269
106133
103977
101771
99540.1
97266.4
94959.9
92622.5
90259
628788
622616
616618
610783
605113
599606
594260
589069
584031
579136
574377
569747
565235
560833
556535
552330
548214
544178
540217
536325
532497
528728
525015
521352
517737
514166
510636
507144
503689
500267
496876
493516
490183
486877
483596
480339
477104
473891
470698
467525
464370
461233
458113
455010
451922
448850
445792
442749
439720
436704
433703
430715
427740
424778
421828
418891
415966
413052
410150
407259
404378
401509
398650
395801
392963
390134
387316
384507
381709
378920
376142
373374
370617
367871
365137
362414
359701
356998
354307
351629
348965
346316
343683
341066
338464
335877
333300
330731
328167
325607
323050
320496
317948
315403
312865
310335
307817
305305
302805
300314
297835
295361
292898
290440
287993
285553
283126
280707
278302
275905
273521
271148
268790
266444
264115
261798
259497
257207
254930
252659
250399
248145
245904
243673
241457
239252
237062
234880
232711
230550
228400
226255
224118
221986
219860
217739
215625
213515
211415
209320
207237
205160
203093
201034
198986
196943
194911
192887
190881
188882
186901
184927
182967
181007
179058
177117
175185
173250
171341
169417
167497
165586
163665
161760
159868
157990
156109
154242
152358
150492
148621
146756
144859
142977
141106
139240
137355
135502
133610
131742
129841
127951
126038
124126
122189
120241
118273
116283
114282
112227
110167
108058
105921
103763
101560
99329.6
97062
94763.4
92436.6
90085.9
629203
623050
617060
611228
605557
600045
594688
589486
584431
579518
574739
570087
565553
561129
556809
552584
548447
544392
540413
536505
532662
528880
525153
521479
517853
514272
510733
507233
503770
500341
496944
493577
490239
486928
483642
480380
477141
473924
470727
467550
464392
461252
458129
455022
451931
448856
445795
442749
439717
436700
433696
430706
427729
424765
421814
418876
415949
413035
410131
407239
404358
401488
398628
395779
392940
390111
387292
384484
381685
378897
376119
373352
370596
367852
365119
362396
359683
356980
354288
351609
348944
346294
343659
341040
338435
335845
333263
330692
328124
325562
323003
320450
317902
315358
312820
310292
307772
305262
302762
300273
297793
295322
292858
290402
287955
285519
283093
280678
278273
275879
273496
271125
268767
266423
264093
261777
259475
257185
254906
252636
250373
248120
245877
243645
241427
239221
237027
234843
232670
230508
228354
226208
224069
221938
219811
217692
215579
213471
211371
209278
207194
205117
203050
200991
198942
196899
194869
192850
190845
188849
186868
184890
182929
180968
179024
177078
175150
173209
171308
169364
167449
165514
163619
161705
159815
157935
156055
154175
152297
150421
148557
146669
144792
142904
141028
139154
137275
135407
133518
131638
129740
127842
125928
124010
122066
120112
118134
116136
114129
112066
109997
107887
105750
103591
101388
99159
96896.4
94603.5
92285.1
89944.9
629534
623394
617409
611578
605906
600390
595028
589816
584749
579822
575027
570358
565807
561366
557029
552787
548634
544565
540572
536650
532795
529002
525265
521581
517946
514357
510811
507304
503835
500400
496998
493626
490284
486968
483678
480413
477170
473949
470749
467569
464408
461265
458139
455030
451937
448859
445796
442747
439713
436694
433688
430696
427718
424753
421801
418861
415934
413018
410114
407222
404340
401469
398609
395759
392920
390090
387272
384463
381665
378877
376100
373333
370578
367834
365101
362380
359667
356964
354272
351593
348927
346275
343638
341016
338408
335813
333228
330653
328082
325519
322958
320405
317855
315314
312777
310250
307730
305222
302721
300234
297753
295284
292820
290367
287921
285488
283062
280651
278247
275856
273473
271104
268746
266403
264071
261755
259450
257161
254879
252609
250345
248094
245850
243618
241399
239192
236994
234809
232632
230467
228308
226161
224019
221887
219760
217642
215529
213424
211325
209233
207149
205075
203007
200949
198900
196858
194831
192815
190813
188815
186836
184853
182890
180930
178989
177037
175113
173172
171262
169306
167405
165470
163584
161650
159770
157879
155997
154115
152243
150358
148492
146598
144731
142835
140962
139087
137211
135329
133444
131554
129658
127756
125842
123914
121967
120007
118025
116020
114008
111939
109863
107758
105619
103457
101254
99025.3
96765.7
94477.2
92165.5
89833.1
629782
623650
617667
611836
606164
600646
595280
590062
584987
580049
575243
570562
565998
561544
557194
552940
548775
544695
540691
536760
532896
529094
525349
521658
518017
514422
510870
507358
503884
500445
497038
493663
490317
486998
483705
480436
477191
473967
470765
467582
464419
461274
458146
455035
451939
448860
445795
442745
439710
436689
433682
430689
427710
424744
421791
418850
415922
413005
410100
407207
404325
401454
398593
395743
392904
390074
387255
384446
381648
378860
376083
373317
370563
367819
365087
362366
359653
356951
354259
351579
348912
346261
343623
340998
338386
335787
333197
330619
328045
325481
322919
320368
317817
315277
312739
310215
307694
305188
302686
300201
297719
295253
292789
290339
287892
285462
283037
280628
278225
275836
273453
271086
268727
266385
264050
261734
259426
257136
254853
252584
250321
248071
245827
243597
241377
239169
236969
234782
232601
230433
228270
226119
223973
221841
219711
217595
215483
213381
211282
209193
207110
205037
202969
200912
198863
196825
194799
192784
190780
188782
186801
184814
182854
180890
178951
176995
175075
173129
171215
169269
167370
165427
163546
161608
159733
157825
155953
154063
152194
150304
148439
146544
144679
142781
140916
139032
137160
135271
133388
131493
129597
127693
125775
123843
121895
119928
117946
115932
113917
111851
109768
107667
105524
103361
101155
98926.9
96669.2
94384.1
92076.8
89749.9
629940
623816
617837
612009
606337
600817
595448
590226
585145
580201
575387
570698
566125
561663
557304
553042
548870
544782
540771
536834
532963
529155
525406
521710
518064
514465
510909
507394
503916
500474
497065
493687
490338
487017
483722
480451
477204
473979
470775
467591
464425
461279
458150
455037
451941
448860
445794
442743
439707
436685
433678
430684
427704
424737
421784
418842
415913
412996
410091
407197
404315
401443
398582
395731
392891
390061
387242
384433
381635