/*--------------------------------*- C++ -*----------------------------------*\
| =========                 |                                                 |
| \\      /  F ield         | OpenFOAM: The Open Source CFD Toolbox           |
|  \\    /   O peration     | Version:  2.4.0                                 |
|   \\  /    A nd           | Web:      www.OpenFOAM.org                      |
|    \\/     M anipulation  |                                                 |
\*---------------------------------------------------------------------------*/
FoamFile
{
    version     2.0;
    format      ascii;
    class       volVectorField;
    location    "0.55";
    object      U;
}
// * * * * * * * * * * * * * * * * * * * * * * * * * * * * * * * * * * * * * //

dimensions      [0 1 -1 0 0 0 0];

internalField   nonuniform List<vector> 
8800
(
(8.09214 0.387905 0)
(5.45012 0.242575 0)
(3.91081 0.0429138 0)
(3.1563 -0.0156677 0)
(2.80267 -0.0181695 0)
(2.59614 -0.0107566 0)
(2.48649 -0.00606673 0)
(2.37852 -0.00217831 0)
(2.32113 -0.00124205 0)
(2.24709 -0.000892019 0)
(2.21981 -0.000694305 0)
(2.164 7.87152e-05 0)
(2.14709 -0.000363268 0)
(2.09761 0.000687716 0)
(2.08071 8.88572e-05 0)
(2.03319 0.00138122 0)
(2.00703 0.000423215 0)
(1.95846 0.000438459 0)
(1.9434 0.00873506 0)
(1.69904 -0.0634445 0)
(10.0876 0.838098 0)
(9.65646 0.868428 0)
(8.87272 0.507241 0)
(8.08041 0.260882 0)
(7.49674 0.138152 0)
(7.00144 0.0829104 0)
(6.7049 0.0527628 0)
(6.39206 0.0413546 0)
(6.23272 0.0306085 0)
(6.01664 0.0235407 0)
(5.93461 0.0184907 0)
(5.77175 0.0183473 0)
(5.72801 0.0139287 0)
(5.59036 0.0174332 0)
(5.55824 0.0137516 0)
(5.43365 0.0189094 0)
(5.39141 0.0184896 0)
(5.26503 0.0147237 0)
(5.23375 0.0341053 0)
(5.01434 -0.0372575 0)
(10.0703 0.63114 0)
(10.6551 0.864572 0)
(10.8718 0.601188 0)
(10.686 0.371949 0)
(10.4635 0.256351 0)
(10.0768 0.197827 0)
(9.85047 0.151211 0)
(9.48429 0.124835 0)
(9.32575 0.0950895 0)
(9.02529 0.0754941 0)
(8.93525 0.0588349 0)
(8.69125 0.0536331 0)
(8.64981 0.0412143 0)
(8.43696 0.0444026 0)
(8.4193 0.0365175 0)
(8.2235 0.0428448 0)
(8.20553 0.0427827 0)
(8.00209 0.0419458 0)
(7.99012 0.0565381 0)
(7.75095 -0.0196385 0)
(10.0164 0.455536 0)
(10.5606 0.708806 0)
(11.1743 0.547136 0)
(11.3636 0.350259 0)
(11.5674 0.26172 0)
(11.4465 0.228224 0)
(11.5077 0.196243 0)
(11.2875 0.179589 0)
(11.3111 0.148982 0)
(11.0688 0.125513 0)
(11.089 0.104523 0)
(10.8512 0.0960805 0)
(10.8841 0.0784053 0)
(10.6489 0.0800873 0)
(10.6904 0.0652966 0)
(10.4552 0.0774333 0)
(10.5043 0.064718 0)
(10.2382 0.0868175 0)
(10.287 0.0648323 0)
(9.97219 0.11352 0)
(10.0695 0.344544 0)
(10.3898 0.570022 0)
(11.055 0.460979 0)
(11.2818 0.292946 0)
(11.6765 0.211376 0)
(11.656 0.195029 0)
(11.9022 0.172486 0)
(11.8042 0.175375 0)
(12.0087 0.14478 0)
(11.8774 0.135366 0)
(12.0494 0.109699 0)
(11.9126 0.110894 0)
(12.0519 0.0851354 0)
(11.9112 0.102993 0)
(12.031 0.0737135 0)
(11.8612 0.103794 0)
(11.9937 0.0738831 0)
(11.7751 0.121247 0)
(11.8814 0.0694975 0)
(11.5593 0.17195 0)
(10.0703 0.247445 0)
(10.321 0.463993 0)
(10.9178 0.379075 0)
(11.1437 0.242789 0)
(11.5407 0.158461 0)
(11.5936 0.152878 0)
(11.8198 0.135787 0)
(11.8148 0.146335 0)
(12.0115 0.122985 0)
(11.9884 0.111633 0)
(12.1509 0.0946953 0)
(12.1573 0.0974008 0)
(12.2794 0.075827 0)
(12.2881 0.0863016 0)
(12.3926 0.0746843 0)
(12.3644 0.0849919 0)
(12.4938 0.0786332 0)
(12.4302 0.100402 0)
(12.5488 0.0843716 0)
(12.3352 0.090333 0)
(10.0174 0.168425 0)
(10.2959 0.353144 0)
(10.7797 0.29895 0)
(11.0906 0.20825 0)
(11.3825 0.119173 0)
(11.5602 0.116799 0)
(11.677 0.098902 0)
(11.7522 0.117229 0)
(11.8815 0.0888965 0)
(11.9527 0.0973856 0)
(12.053 0.0624712 0)
(12.0977 0.0760566 0)
(12.1984 0.053738 0)
(12.2988 0.0704775 0)
(12.3432 0.0581733 0)
(12.4024 0.0686713 0)
(12.4966 0.0595344 0)
(12.5158 0.0732901 0)
(12.5935 0.0481916 0)
(12.4416 0.0877936 0)
(9.98424 0.110057 0)
(10.2398 0.254996 0)
(10.7225 0.209978 0)
(11.0402 0.157323 0)
(11.297 0.0724756 0)
(11.4892 0.0824288 0)
(11.621 0.0720023 0)
(11.7219 0.0829689 0)
(11.7967 0.0634988 0)
(11.874 0.0586035 0)
(11.9985 0.0615092 0)
(12.0278 0.0591704 0)
(12.1328 0.0261726 0)
(12.2108 0.0487387 0)
(12.2877 0.0476029 0)
(12.351 0.0400709 0)
(12.3921 0.0358456 0)
(12.484 0.0496501 0)
(12.475 0.0316991 0)
(12.4274 0.048137 0)
(9.99501 0.0680263 0)
(10.2422 0.13161 0)
(10.6036 0.12758 0)
(11.0254 0.113257 0)
(11.2718 0.0545954 0)
(11.4293 0.041122 0)
(11.6126 0.0322847 0)
(11.6428 0.0528422 0)
(11.7389 0.043012 0)
(11.8588 0.0355079 0)
(11.9065 0.0252801 0)
(12.0507 0.0374274 0)
(12.0705 0.0163069 0)
(12.1353 0.0252785 0)
(12.2445 0.0275882 0)
(12.3433 0.0282599 0)
(12.3449 0.0177551 0)
(12.4041 0.0154656 0)
(12.4166 0.00314011 0)
(12.4687 -0.00218943 0)
(9.99115 0.0191293 0)
(10.2243 0.0554537 0)
(10.5536 0.0351012 0)
(10.9734 0.0285948 0)
(11.2549 0.0232092 0)
(11.468 0.0111709 0)
(11.5832 0.0121888 0)
(11.6301 0.0279452 0)
(11.7455 0.00350439 0)
(11.8338 0.00143154 0)
(11.8742 0.0191572 0)
(12.0073 0.0154668 0)
(12.0229 0.0105561 0)
(12.1541 0.00199135 0)
(12.2033 -0.00247956 0)
(12.3144 0.00243791 0)
(12.3306 0.00716146 0)
(12.4007 -0.0056265 0)
(12.4269 -0.0377281 0)
(12.3332 -0.0076833 0)
(9.96627 -0.0163817 0)
(10.2774 -0.0554189 0)
(10.5894 -0.0420015 0)
(10.9506 -0.0233077 0)
(11.2272 -0.0172317 0)
(11.4433 -0.0226718 0)
(11.557 -0.017196 0)
(11.6615 -0.00876521 0)
(11.7417 -0.0205443 0)
(11.8052 -0.00861513 0)
(11.9273 -0.0150628 0)
(11.9785 -0.00173774 0)
(12.0639 -0.0146454 0)
(12.1529 -0.0233131 0)
(12.2111 -0.0126274 0)
(12.2753 -0.0161308 0)
(12.3283 -0.0191557 0)
(12.4141 -0.0367839 0)
(12.3773 -0.0358063 0)
(12.324 -0.000938006 0)
(10.012 -0.0693887 0)
(10.229 -0.148932 0)
(10.606 -0.115607 0)
(11.0089 -0.0939616 0)
(11.2877 -0.0463773 0)
(11.4483 -0.0548683 0)
(11.5644 -0.0495499 0)
(11.6629 -0.0413658 0)
(11.764 -0.0426625 0)
(11.8336 -0.0566028 0)
(11.9141 -0.0232717 0)
(12.007 -0.0184103 0)
(12.1057 -0.0297878 0)
(12.135 -0.0375952 0)
(12.2429 -0.0337246 0)
(12.2955 -0.0372571 0)
(12.3622 -0.0438681 0)
(12.4155 -0.0543113 0)
(12.4404 -0.0635629 0)
(12.425 -0.0661226 0)
(10.0086 -0.112252 0)
(10.2562 -0.248204 0)
(10.6792 -0.214517 0)
(11.032 -0.1532 0)
(11.3145 -0.0768246 0)
(11.5038 -0.0770133 0)
(11.6094 -0.0784915 0)
(11.7033 -0.0802094 0)
(11.8256 -0.0715259 0)
(11.8767 -0.0622166 0)
(11.9389 -0.0504607 0)
(12.06 -0.0550872 0)
(12.1516 -0.0386188 0)
(12.1915 -0.061755 0)
(12.2691 -0.0511308 0)
(12.3559 -0.0595727 0)
(12.4266 -0.0627343 0)
(12.4527 -0.0863132 0)
(12.4757 -0.0930087 0)
(12.4077 -0.0514782 0)
(10.0163 -0.176715 0)
(10.3016 -0.355231 0)
(10.769 -0.284235 0)
(11.0928 -0.203551 0)
(11.3963 -0.118043 0)
(11.5611 -0.120172 0)
(11.688 -0.109099 0)
(11.7624 -0.114425 0)
(11.8924 -0.0947179 0)
(11.9341 -0.0936091 0)
(12.0258 -0.0697506 0)
(12.1249 -0.0729678 0)
(12.2091 -0.0582219 0)
(12.2629 -0.0738097 0)
(12.3496 -0.0681975 0)
(12.4128 -0.0898743 0)
(12.4755 -0.0798943 0)
(12.5147 -0.105266 0)
(12.539 -0.103864 0)
(12.4785 -0.0978811 0)
(10.0701 -0.251561 0)
(10.3128 -0.456553 0)
(10.8943 -0.37881 0)
(11.1674 -0.247012 0)
(11.5427 -0.159151 0)
(11.6177 -0.152533 0)
(11.8049 -0.139778 0)
(11.8222 -0.148565 0)
(11.9982 -0.1205 0)
(11.9817 -0.111226 0)
(12.1377 -0.0926544 0)
(12.1612 -0.104998 0)
(12.2858 -0.070272 0)
(12.2732 -0.0995293 0)
(12.3966 -0.0852948 0)
(12.3801 -0.104756 0)
(12.4491 -0.0912572 0)
(12.4227 -0.136608 0)
(12.4642 -0.12546 0)
(12.3823 -0.131334 0)
(10.066 -0.349813 0)
(10.384 -0.565559 0)
(11.0566 -0.457655 0)
(11.2928 -0.29352 0)
(11.6777 -0.212628 0)
(11.6632 -0.192129 0)
(11.8923 -0.179282 0)
(11.8124 -0.173347 0)
(11.9958 -0.145454 0)
(11.8752 -0.13164 0)
(12.046 -0.117521 0)
(11.916 -0.113592 0)
(12.0544 -0.0852829 0)
(11.8997 -0.106894 0)
(12.0206 -0.0906862 0)
(11.8572 -0.110778 0)
(11.9313 -0.0932556 0)
(11.7585 -0.140523 0)
(11.7872 -0.129132 0)
(11.5558 -0.155576 0)
(10.0159 -0.457565 0)
(10.5511 -0.704392 0)
(11.181 -0.547258 0)
(11.3644 -0.353923 0)
(11.5736 -0.261365 0)
(11.4435 -0.22591 0)
(11.5093 -0.200328 0)
(11.2806 -0.179576 0)
(11.3132 -0.147142 0)
(11.0588 -0.125436 0)
(11.1005 -0.108164 0)
(10.8289 -0.100005 0)
(10.8993 -0.0750709 0)
(10.6174 -0.087544 0)
(10.691 -0.0747955 0)
(10.4098 -0.0889462 0)
(10.473 -0.0713375 0)
(10.1735 -0.121881 0)
(10.1923 -0.0970813 0)
(9.8368 -0.141625 0)
(10.0669 -0.632394 0)
(10.6522 -0.863152 0)
(10.8769 -0.600879 0)
(10.6838 -0.373201 0)
(10.4651 -0.256088 0)
(10.0757 -0.196189 0)
(9.85151 -0.154039 0)
(9.47675 -0.124305 0)
(9.33158 -0.0944336 0)
(9.0141 -0.0753535 0)
(8.94686 -0.0617352 0)
(8.66197 -0.0559585 0)
(8.67019 -0.0403691 0)
(8.39326 -0.0481132 0)
(8.42972 -0.0438064 0)
(8.15425 -0.051199 0)
(8.19697 -0.0462291 0)
(7.89215 -0.0730172 0)
(7.89758 -0.0702587 0)
(7.55193 -0.0791723 0)
(10.0861 -0.838434 0)
(9.65486 -0.867653 0)
(8.8755 -0.506993 0)
(8.07879 -0.26192 0)
(7.49692 -0.138192 0)
(7.0015 -0.0819236 0)
(6.70486 -0.0540333 0)
(6.38672 -0.0416312 0)
(6.2364 -0.0299692 0)
(6.00881 -0.0235899 0)
(5.941 -0.0196308 0)
(5.74891 -0.0202921 0)
(5.74007 -0.0129048 0)
(5.55472 -0.0191419 0)
(5.56407 -0.0182606 0)
(5.36891 -0.0232361 0)
(5.38162 -0.0204074 0)
(5.15521 -0.0346456 0)
(5.1433 -0.0376995 0)
(4.85794 -0.0133856 0)
(8.09196 -0.387993 0)
(5.4492 -0.2426 0)
(3.91213 -0.0428405 0)
(3.1561 0.0155205 0)
(2.80189 0.0181464 0)
(2.59633 0.0110826 0)
(2.48675 0.00576007 0)
(2.37594 0.00199731 0)
(2.32107 0.00155497 0)
(2.24462 0.00088256 0)
(2.22094 0.000607936 0)
(2.15393 -0.000790552 0)
(2.14686 0.00102103 0)
(2.08327 -0.00114891 0)
(2.07635 -0.000862158 0)
(1.99887 -0.00229978 0)
(1.98979 -0.000600688 0)
(1.89735 -0.00426664 0)
(1.85794 -0.00397521 0)
(1.71597 0.0117058 0)
(2.19676 -0.124414 0)
(2.28312 -0.0247269 0)
(2.43057 0.00752156 0)
(2.58176 -0.00398067 0)
(2.75273 -0.0248683 0)
(2.86948 -0.0439238 0)
(2.97196 -0.0525899 0)
(3.01112 -0.0528778 0)
(3.06394 -0.053779 0)
(3.07656 -0.0528366 0)
(3.12538 -0.0522897 0)
(3.13808 -0.0453072 0)
(3.19249 -0.0340139 0)
(3.20722 -0.0207992 0)
(3.26521 -0.011197 0)
(3.28409 -0.0046607 0)
(3.34439 0.0032071 0)
(3.35662 0.0138756 0)
(3.41783 0.0212211 0)
(3.42989 0.0309334 0)
(3.49884 0.03629 0)
(3.51396 0.0438102 0)
(3.58949 0.0431636 0)
(3.60643 0.0407595 0)
(3.68313 0.029133 0)
(3.68988 0.0142053 0)
(3.75963 -0.00492222 0)
(3.74354 -0.0189326 0)
(3.80441 -0.0279551 0)
(3.76596 -0.0283246 0)
(3.82821 -0.0260366 0)
(3.78077 -0.0159408 0)
(3.85152 -0.0107607 0)
(3.80838 0.00461807 0)
(3.88734 0.00702663 0)
(3.85229 0.0223583 0)
(3.92899 0.0200763 0)
(3.90153 0.0341016 0)
(3.96381 0.0342271 0)
(3.94726 0.0504076 0)
(3.98215 0.061984 0)
(3.98508 0.0682239 0)
(4.01409 0.0841059 0)
(4.02695 0.0717761 0)
(4.08008 0.0571462 0)
(4.07142 0.0606933 0)
(4.13339 0.0447794 0)
(4.125 0.0178412 0)
(4.19532 -0.0216185 0)
(4.1872 -0.0667163 0)
(4.22912 -0.102588 0)
(4.16511 -0.144808 0)
(4.21905 -0.192503 0)
(4.14158 -0.20898 0)
(4.09722 -0.231178 0)
(4.02703 -0.249213 0)
(3.94856 -0.224547 0)
(3.87304 -0.196616 0)
(3.79603 -0.165161 0)
(3.78203 -0.0705451 0)
(3.7435 0.0301455 0)
(3.81584 0.156132 0)
(3.84617 0.305419 0)
(4.03623 0.436287 0)
(4.11788 0.606656 0)
(4.34335 0.68463 0)
(4.5397 0.782503 0)
(4.74746 0.822569 0)
(4.87745 0.792045 0)
(5.10238 0.757278 0)
(5.17688 0.683064 0)
(5.28996 0.593386 0)
(5.34024 0.503166 0)
(5.33947 0.359363 0)
(5.34776 0.294035 0)
(5.2495 0.200718 0)
(5.26738 0.155991 0)
(5.14071 0.123945 0)
(5.14276 0.12487 0)
(5.12071 0.131512 0)
(5.19608 0.121878 0)
(5.2702 0.109408 0)
(5.3349 0.0842071 0)
(5.51758 0.0174732 0)
(5.5362 -0.00718835 0)
(5.76928 -0.0670498 0)
(5.79845 -0.110637 0)
(6.0474 -0.146682 0)
(6.05472 -0.179583 0)
(6.23042 -0.186604 0)
(6.32304 -0.190813 0)
(6.43009 -0.175352 0)
(6.56452 -0.179738 0)
(6.68198 -0.112407 0)
(6.79167 -0.0967088 0)
(6.99491 -0.0456841 0)
(6.94577 -0.00369845 0)
(7.34645 0.0317881 0)
(7.11924 0.0776223 0)
(7.70295 0.14026 0)
(7.31831 0.161226 0)
(8.14405 0.291376 0)
(7.54755 0.253634 0)
(8.58547 0.358886 0)
(7.84965 0.348522 0)
(9.02363 0.38338 0)
(8.19244 0.321014 0)
(9.52746 0.383665 0)
(8.53463 0.181863 0)
(9.97125 0.229848 0)
(8.89756 0.0886251 0)
(10.421 -0.0383894 0)
(9.23824 -0.146861 0)
(10.8286 -0.192122 0)
(9.65488 -0.529892 0)
(10.9865 -0.514755 0)
(10.0332 -0.884724 0)
(11.2487 -1.03068 0)
(10.3154 -1.23272 0)
(11.5702 -1.47759 0)
(10.8178 -1.8656 0)
(11.6751 -1.97409 0)
(11.1871 -2.45614 0)
(11.9944 -2.73368 0)
(11.07 -2.72079 0)
(12.0798 -3.07958 0)
(11.1139 -3.0638 0)
(11.7442 -2.92658 0)
(10.9188 -3.04695 0)
(11.6684 -2.96576 0)
(10.4949 -2.68084 0)
(11.0856 -2.4526 0)
(10.4292 -2.62107 0)
(10.4973 -1.96414 0)
(9.93227 -1.9772 0)
(10.2318 -1.90969 0)
(9.84318 -1.77563 0)
(9.80239 -1.39265 0)
(9.6252 -1.57558 0)
(9.92642 -1.44708 0)
(9.579 -1.25736 0)
(9.50009 -1.05575 0)
(9.69446 -1.46135 0)
(9.60712 -1.20427 0)
(9.31319 -1.13133 0)
(9.06023 -1.21576 0)
(9.08503 -1.25414 0)
(8.88556 -1.30294 0)
(8.34019 -1.07933 0)
(8.05673 -0.875417 0)
(7.70827 -0.898586 0)
(7.54918 -0.709857 0)
(7.38748 -0.366749 0)
(6.88366 -0.0241297 0)
(6.66507 0.117327 0)
(6.75881 -0.207155 0)
(6.88507 -1.02306 0)
(7.84412 -1.53902 0)
(8.52791 -1.83715 0)
(9.55479 -1.44027 0)
(10.2894 -1.04967 0)
(11.1519 -0.154847 0)
(11.6893 0.652659 0)
(12.3245 1.75185 0)
(12.6949 2.63588 0)
(12.9108 3.53169 0)
(13.3302 4.5337 0)
(13.315 5.22655 0)
(13.4645 5.93366 0)
(12.812 5.99084 0)
(12.3151 6.04051 0)
(11.7684 5.98104 0)
(10.9404 5.51549 0)
(10.54 5.68702 0)
(10.1781 4.81617 0)
(8.87719 5.12082 0)
(10.3142 3.85741 0)
(6.82526 4.37274 0)
(10.959 2.62464 0)
(5.40919 3.60041 0)
(11.5184 1.14461 0)
(5.1873 2.69914 0)
(11.4444 -0.411981 0)
(5.73132 1.72118 0)
(10.9555 -1.72324 0)
(6.25624 0.791416 0)
(10.4948 -2.77569 0)
(6.60551 0.242756 0)
(10.1191 -3.40806 0)
(6.8053 -0.489337 0)
(9.6736 -3.90275 0)
(6.88938 -1.05264 0)
(9.22715 -4.19441 0)
(6.09671 -1.2251 0)
(8.82765 -4.64891 0)
(5.07048 -1.02235 0)
(8.32415 -3.95184 0)
(4.78078 -0.057361 0)
(8.44356 -1.96814 0)
(6.82869 3.81176 0)
(5.16513 -0.0730557 0)
(5.17997 -0.0492554 0)
(5.23176 -0.0447676 0)
(5.28971 -0.0661533 0)
(5.39017 -0.082646 0)
(5.46271 -0.09623 0)
(5.53493 -0.102882 0)
(5.55805 -0.0937139 0)
(5.59005 -0.0843781 0)
(5.58801 -0.0723567 0)
(5.61765 -0.069562 0)
(5.61822 -0.0656654 0)
(5.65405 -0.057685 0)
(5.65863 -0.0510119 0)
(5.69571 -0.0399238 0)
(5.70089 -0.0291512 0)
(5.73769 -0.0213939 0)
(5.73872 -0.0099576 0)
(5.77672 -0.00526246 0)
(5.77484 0.00350297 0)
(5.81857 0.00903713 0)
(5.81568 0.0102527 0)
(5.86375 0.0146926 0)
(5.85998 0.00856527 0)
(5.90859 0.000132666 0)
(5.90077 -0.00521606 0)
(5.94355 -0.0212424 0)
(5.92868 -0.0219318 0)
(5.96502 -0.0342009 0)
(5.94176 -0.0304581 0)
(5.97511 -0.0301555 0)
(5.94967 -0.0248111 0)
(5.98751 -0.0165626 0)
(5.96344 -0.00961115 0)
(6.01067 -0.00170289 0)
(5.99168 0.00531706 0)
(6.04338 0.00885901 0)
(6.02846 0.0170799 0)
(6.07781 0.020416 0)
(6.06553 0.0297135 0)
(6.10839 0.0356692 0)
(6.10416 0.045754 0)
(6.14085 0.0542082 0)
(6.14272 0.0516637 0)
(6.18608 0.0499265 0)
(6.17309 0.0412579 0)
(6.22147 0.0290552 0)
(6.1846 0.0101795 0)
(6.23198 -0.0222298 0)
(6.20005 -0.0520097 0)
(6.20748 -0.088076 0)
(6.15393 -0.104853 0)
(6.11282 -0.137239 0)
(6.0513 -0.160415 0)
(5.95283 -0.175231 0)
(5.88779 -0.164118 0)
(5.744 -0.157661 0)
(5.66337 -0.126098 0)
(5.52675 -0.0613411 0)
(5.4367 -0.0213434 0)
(5.32238 0.0694675 0)
(5.29241 0.155931 0)
(5.19383 0.257749 0)
(5.26226 0.352516 0)
(5.24031 0.466947 0)
(5.37961 0.54992 0)
(5.42248 0.606536 0)
(5.63685 0.649285 0)
(5.69863 0.666241 0)
(5.8714 0.615069 0)
(5.99938 0.603024 0)
(6.07381 0.517448 0)
(6.17046 0.454032 0)
(6.23137 0.380419 0)
(6.28323 0.282405 0)
(6.29435 0.248195 0)
(6.34395 0.162382 0)
(6.39158 0.129604 0)
(6.42593 0.0998509 0)
(6.53261 0.0677834 0)
(6.62593 0.0616094 0)
(6.77493 -0.0121831 0)
(6.86787 -0.0313598 0)
(7.0924 -0.0628497 0)
(7.16922 -0.128517 0)
(7.36662 -0.168968 0)
(7.48559 -0.2098 0)
(7.64653 -0.265406 0)
(7.77395 -0.26777 0)
(7.88868 -0.26286 0)
(8.04271 -0.297818 0)
(8.09327 -0.217879 0)
(8.23577 -0.2928 0)
(8.34092 -0.166255 0)
(8.33188 -0.222444 0)
(8.65528 -0.083261 0)
(8.40017 -0.130259 0)
(8.94318 -0.0148142 0)
(8.51542 -0.0547786 0)
(9.23233 0.0657967 0)
(8.61006 0.00679166 0)
(9.55806 0.170449 0)
(8.7884 0.112901 0)
(9.94665 0.193511 0)
(8.98425 0.192565 0)
(10.3906 0.195495 0)
(9.22963 0.105871 0)
(10.8761 0.212553 0)
(9.58716 0.0306723 0)
(11.3443 0.0716356 0)
(9.86301 -0.0488535 0)
(11.8533 -0.221429 0)
(10.0967 -0.309861 0)
(12.2666 -0.408756 0)
(10.5476 -0.680229 0)
(12.4931 -0.673635 0)
(10.971 -1.01639 0)
(12.8983 -1.19865 0)
(11.1906 -1.29932 0)
(13.2438 -1.66339 0)
(11.7263 -1.94207 0)
(13.1628 -1.98457 0)
(12.0906 -2.57691 0)
(13.1759 -2.58462 0)
(11.7709 -2.75355 0)
(13.0385 -2.91537 0)
(11.5452 -2.97736 0)
(12.2923 -2.65606 0)
(11.065 -2.99046 0)
(11.9249 -2.69671 0)
(10.2413 -2.45894 0)
(11.3313 -2.36233 0)
(10.0717 -2.33278 0)
(10.532 -1.70993 0)
(9.72086 -1.93876 0)
(10.3094 -1.77087 0)
(9.53483 -1.60007 0)
(9.67683 -1.27924 0)
(9.57182 -1.66792 0)
(9.69909 -1.30709 0)
(9.15541 -1.10342 0)
(9.44673 -1.13933 0)
(9.41878 -1.55539 0)
(9.31952 -0.906261 0)
(8.78861 -1.05485 0)
(8.98689 -1.08908 0)
(8.77035 -1.28651 0)
(8.66302 -0.897877 0)
(7.94225 -0.800177 0)
(7.8567 -0.581133 0)
(7.68985 -0.890351 0)
(7.5407 -0.441299 0)
(7.39088 -0.250511 0)
(6.79052 0.377059 0)
(6.76084 0.146683 0)
(6.8727 -0.44156 0)
(7.37101 -1.5601 0)
(8.37778 -2.34323 0)
(9.24707 -2.57397 0)
(10.1866 -2.37883 0)
(11.0668 -1.68154 0)
(11.5293 -0.879822 0)
(12.5271 0.192698 0)
(12.6895 1.1686 0)
(13.457 2.41578 0)
(13.4487 3.33566 0)
(13.8194 4.3465 0)
(13.945 5.18884 0)
(13.8596 5.85378 0)
(14.0902 6.54226 0)
(13.2995 6.38465 0)
(12.862 6.61378 0)
(12.6053 5.90518 0)
(10.7905 6.12901 0)
(12.6861 5.15109 0)
(8.65231 5.59415 0)
(12.995 4.02594 0)
(7.23993 5.05184 0)
(12.8994 2.45025 0)
(6.82776 4.16471 0)
(12.3312 0.718563 0)
(6.92919 3.16643 0)
(11.5416 -0.811829 0)
(7.06316 2.07965 0)
(10.9145 -1.86529 0)
(7.20787 1.09247 0)
(10.3968 -2.69472 0)
(7.27528 0.40017 0)
(10.017 -3.1118 0)
(7.09609 -0.231868 0)
(9.55753 -3.53783 0)
(6.67818 -0.483936 0)
(8.86528 -3.46517 0)
(5.98166 -0.730028 0)
(8.08337 -3.57233 0)
(5.0753 -0.31892 0)
(7.41384 -3.80806 0)
(5.20114 0.789704 0)
(7.06276 -2.68064 0)
(6.76219 2.67523 0)
(7.80975 -0.108587 0)
(7.79244 -0.141873 0)
(7.83535 -0.135338 0)
(7.88939 -0.122969 0)
(7.9898 -0.101485 0)
(8.06038 -0.0938943 0)
(8.10273 -0.0903465 0)
(8.10357 -0.0782739 0)
(8.09781 -0.0820624 0)
(8.07812 -0.0756865 0)
(8.08869 -0.0784264 0)
(8.08439 -0.0751299 0)
(8.11082 -0.0634625 0)
(8.11221 -0.0584812 0)
(8.13821 -0.04544 0)
(8.13679 -0.0378484 0)
(8.1588 -0.0288386 0)
(8.15079 -0.0185467 0)
(8.1724 -0.0160002 0)
(8.16552 -0.00634278 0)
(8.19035 -0.0047536 0)
(8.18817 0.00283898 0)
(8.21224 0.00382242 0)
(8.21363 0.000745943 0)
(8.23622 -0.00274608 0)
(8.22966 -0.0116947 0)
(8.25253 -0.0182554 0)
(8.2306 -0.0265655 0)
(8.25842 -0.032421 0)
(8.22505 -0.030565 0)
(8.25558 -0.032281 0)
(8.22142 -0.0254712 0)
(8.25355 -0.0236238 0)
(8.22464 -0.0149467 0)
(8.25841 -0.0127031 0)
(8.23738 -0.00288686 0)
(8.27239 -0.00251864 0)
(8.2588 0.00599585 0)
(8.29095 0.012978 0)
(8.28011 0.0145532 0)
(8.30786 0.0295015 0)
(8.29975 0.0291397 0)
(8.322 0.0377287 0)
(8.32074 0.0421254 0)
(8.33901 0.0282011 0)
(8.33721 0.0325207 0)
(8.35002 0.0118344 0)
(8.34301 0.0059014 0)
(8.33776 -0.0151224 0)
(8.33348 -0.0330007 0)
(8.29973 -0.0571543 0)
(8.27646 -0.0709158 0)
(8.20276 -0.0798205 0)
(8.15695 -0.0991052 0)
(8.06595 -0.0824682 0)
(7.98018 -0.0846487 0)
(7.87003 -0.0523966 0)
(7.76346 -0.0186362 0)
(7.62509 0.024127 0)
(7.53592 0.0915729 0)
(7.36696 0.151547 0)
(7.33281 0.219864 0)
(7.16909 0.305458 0)
(7.16008 0.368677 0)
(7.08018 0.438467 0)
(7.10514 0.500258 0)
(7.09635 0.544562 0)
(7.16289 0.546399 0)
(7.24421 0.578212 0)
(7.2861 0.548616 0)
(7.42654 0.489903 0)
(7.4801 0.476579 0)
(7.59673 0.384677 0)
(7.6388 0.315914 0)
(7.80306 0.250539 0)
(7.78539 0.173722 0)
(7.98684 0.11233 0)
(7.95907 0.0427318 0)
(8.19597 -0.00200533 0)
(8.21204 -0.0387843 0)
(8.4257 -0.098241 0)
(8.53883 -0.121164 0)
(8.71004 -0.192627 0)
(8.85561 -0.21604 0)
(9.02751 -0.279816 0)
(9.16598 -0.289308 0)
(9.33533 -0.357159 0)
(9.44575 -0.354954 0)
(9.60465 -0.407339 0)
(9.68805 -0.352895 0)
(9.84085 -0.392272 0)
(9.93153 -0.314197 0)
(9.99761 -0.380414 0)
(10.1503 -0.25128 0)
(10.1272 -0.284687 0)
(10.3772 -0.168241 0)
(10.2428 -0.180914 0)
(10.5963 -0.114709 0)
(10.3699 -0.131331 0)
(10.8401 0.0151472 0)
(10.4963 -0.0863728 0)
(11.0506 0.0805807 0)
(10.6519 -0.0234768 0)
(11.4007 0.0946161 0)
(10.8095 0.0592757 0)
(11.8237 0.113275 0)
(11.0207 -0.0389031 0)
(12.1434 0.087666 0)
(11.377 -0.172887 0)
(12.5222 -0.0187386 0)
(11.6237 -0.260787 0)
(13.0963 -0.321652 0)
(11.7584 -0.430911 0)
(13.5091 -0.552343 0)
(12.1435 -0.802702 0)
(13.7473 -0.729321 0)
(12.4006 -1.1648 0)
(14.2713 -1.27187 0)
(12.2712 -1.35147 0)
(14.6486 -1.83323 0)
(12.4382 -1.89282 0)
(14.4326 -2.078 0)
(12.5152 -2.51912 0)
(14.1469 -2.47598 0)
(11.9326 -2.59633 0)
(13.7497 -2.76625 0)
(11.3763 -2.60576 0)
(12.7409 -2.45776 0)
(10.8118 -2.69697 0)
(11.9343 -2.27204 0)
(9.89506 -2.20498 0)
(11.5414 -2.22442 0)
(9.50612 -1.96466 0)
(10.6979 -1.56259 0)
(9.36339 -1.9211 0)
(10.3058 -1.55968 0)
(8.97004 -1.44445 0)
(9.76483 -1.25552 0)
(9.29261 -1.74882 0)
(9.43649 -1.05805 0)
(8.97229 -1.11917 0)
(9.44767 -1.27073 0)
(9.15124 -1.37444 0)
(8.91215 -0.621043 0)
(8.66311 -0.916519 0)
(8.7792 -1.07156 0)
(8.67312 -1.07709 0)
(8.16204 -0.482537 0)
(7.8186 -0.452347 0)
(7.66578 -0.546559 0)
(7.79862 -0.813102 0)
(7.58275 -0.311183 0)
(7.41563 0.0330878 0)
(6.87261 0.596752 0)
(7.02106 0.146087 0)
(7.22002 -0.82054 0)
(7.99061 -2.29996 0)
(8.93668 -3.14989 0)
(9.90891 -3.36696 0)
(10.6198 -2.99998 0)
(11.3859 -2.28376 0)
(12.0084 -1.33862 0)
(12.5013 -0.362178 0)
(13.3359 0.898779 0)
(13.4884 1.90476 0)
(14.2708 3.23378 0)
(13.9437 4.06607 0)
(14.5841 5.17255 0)
(14.3272 5.80351 0)
(14.2728 6.54437 0)
(14.8731 6.78015 0)
(12.8495 7.08413 0)
(15.0255 6.4535 0)
(10.7155 6.74043 0)
(14.7011 5.21619 0)
(9.36225 6.376 0)
(14.1796 3.70176 0)
(8.78816 5.64727 0)
(13.2765 2.15533 0)
(8.58128 4.47289 0)
(12.4613 0.94563 0)
(8.22477 3.19064 0)
(11.953 -0.155923 0)
(7.84328 1.82274 0)
(11.738 -1.04641 0)
(7.47863 0.84745 0)
(11.3719 -1.92606 0)
(7.06945 0.21437 0)
(10.9566 -2.34102 0)
(6.65887 -0.457838 0)
(10.3996 -2.61836 0)
(6.20452 -0.640247 0)
(9.75942 -2.75413 0)
(5.85829 -0.308418 0)
(8.98511 -3.22433 0)
(5.88632 -0.10084 0)
(8.77428 -2.75706 0)
(5.67034 0.443498 0)
(8.63149 -1.11611 0)
(6.09335 1.13223 0)
(10.0414 -0.122065 0)
(10.0059 -0.282376 0)
(10.0729 -0.317838 0)
(10.1417 -0.290767 0)
(10.204 -0.201413 0)
(10.2799 -0.133728 0)
(10.2923 -0.100921 0)
(10.3056 -0.0593162 0)
(10.2719 -0.070172 0)
(10.2355 -0.0711879 0)
(10.224 -0.0906832 0)
(10.1954 -0.104244 0)
(10.2153 -0.0858509 0)
(10.2128 -0.0873999 0)
(10.2369 -0.0597183 0)
(10.2538 -0.0403406 0)
(10.2605 -0.0327178 0)
(10.2677 -0.00548179 0)
(10.2648 -0.0177129 0)
(10.2572 -0.0064808 0)
(10.2631 -0.00775322 0)
(10.2529 -0.017669 0)
(10.266 -0.0028332 0)
(10.2659 -0.0205828 0)
(10.2789 -0.0131624 0)
(10.2829 -0.0135194 0)
(10.2918 -0.0283049 0)
(10.2812 -0.0115707 0)
(10.2979 -0.0317179 0)
(10.266 -0.0195077 0)
(10.2896 -0.0209338 0)
(10.2507 -0.0267217 0)
(10.2726 -0.0131794 0)
(10.2496 -0.0214278 0)
(10.262 -0.0093614 0)
(10.2564 -0.00781506 0)
(10.2677 -0.00727296 0)
(10.2673 0.00535012 0)
(10.2791 0.00275481 0)
(10.2804 0.016317 0)
(10.2788 0.0188853 0)
(10.2961 0.0228239 0)
(10.2761 0.0324514 0)
(10.2986 0.0290015 0)
(10.2832 0.0264287 0)
(10.2894 0.0247004 0)
(10.2845 0.0155201 0)
(10.2748 0.00948924 0)
(10.2627 -0.000448698 0)
(10.2463 -0.0124351 0)
(10.2211 -0.0183952 0)
(10.1827 -0.036712 0)
(10.1377 -0.0291352 0)
(10.0731 -0.0384444 0)
(10.013 -0.0246111 0)
(9.93161 -0.00360853 0)
(9.83985 0.0181008 0)
(9.76604 0.0719788 0)
(9.6394 0.113627 0)
(9.57366 0.177441 0)
(9.44975 0.248947 0)
(9.37439 0.296956 0)
(9.29949 0.374439 0)
(9.20645 0.421621 0)
(9.20397 0.481096 0)
(9.11518 0.505046 0)
(9.16951 0.537247 0)
(9.11033 0.554769 0)
(9.22061 0.520868 0)
(9.17537 0.511893 0)
(9.31864 0.462 0)
(9.31115 0.388588 0)
(9.46425 0.342075 0)
(9.46057 0.249712 0)
(9.64205 0.156157 0)
(9.64467 0.121291 0)
(9.8221 -0.00226808 0)
(9.87622 -0.0300131 0)
(10.0035 -0.116624 0)
(10.1552 -0.160592 0)
(10.2258 -0.193806 0)
(10.4484 -0.288288 0)
(10.5071 -0.297583 0)
(10.6942 -0.353907 0)
(10.803 -0.398459 0)
(10.9404 -0.435523 0)
(11.0655 -0.447006 0)
(11.1648 -0.483858 0)
(11.2911 -0.469172 0)
(11.3389 -0.466599 0)
(11.4987 -0.487029 0)
(11.5019 -0.38741 0)
(11.6631 -0.442054 0)
(11.6238 -0.333808 0)
(11.8151 -0.355016 0)
(11.7703 -0.248501 0)
(11.957 -0.238178 0)
(11.9405 -0.189229 0)
(12.0805 -0.193264 0)
(12.1126 -0.106702 0)
(12.2805 -0.127912 0)
(12.265 -0.0173449 0)
(12.5009 -0.107425 0)
(12.5444 -0.024534 0)
(12.6199 -0.0373256 0)
(12.9072 -0.0677557 0)
(12.9099 -0.111515 0)
(13.0767 -0.0659761 0)
(13.3618 -0.3158 0)
(13.2914 -0.103209 0)
(13.5784 -0.420445 0)
(13.8374 -0.446754 0)
(13.6213 -0.509787 0)
(14.1629 -0.684633 0)
(13.9135 -0.908468 0)
(14.2675 -0.797401 0)
(14.0249 -1.34617 0)
(14.6414 -1.20993 0)
(13.6281 -1.50943 0)
(15.0084 -1.77031 0)
(13.2388 -1.84416 0)
(14.8587 -2.017 0)
(12.7706 -2.31666 0)
(14.4953 -2.1718 0)
(11.8796 -2.4352 0)
(14.0036 -2.38752 0)
(10.7558 -2.17508 0)
(13.1149 -2.18896 0)
(10.0515 -2.34158 0)
(12.1889 -1.90133 0)
(9.40626 -2.1457 0)
(11.7903 -2.07535 0)
(8.83654 -1.66215 0)
(11.1563 -1.54045 0)
(8.79504 -1.75012 0)
(10.6306 -1.33223 0)
(8.58094 -1.38382 0)
(10.3405 -1.33469 0)
(8.73297 -1.58439 0)
(9.75051 -0.8558 0)
(8.73251 -1.25631 0)
(9.63981 -1.07899 0)
(8.50584 -1.19022 0)
(9.07858 -0.403842 0)
(8.39641 -1.08994 0)
(8.89772 -0.944581 0)
(8.21302 -0.921708 0)
(8.06573 -0.110754 0)
(7.71558 -0.541491 0)
(7.8746 -0.478266 0)
(7.80695 -0.985277 0)
(7.79116 0.0941924 0)
(7.27816 0.0513401 0)
(7.0978 1.06024 0)
(6.95371 -0.420282 0)
(7.71385 -1.19423 0)
(8.35113 -3.3186 0)
(9.64033 -3.76293 0)
(9.96142 -4.27544 0)
(11.148 -3.46661 0)
(11.1368 -2.91996 0)
(11.9778 -1.77341 0)
(12.2792 -0.909967 0)
(13.1005 0.414839 0)
(13.5582 1.55465 0)
(14.0924 2.89905 0)
(14.7189 4.01222 0)
(14.109 5.08052 0)
(15.5193 5.66269 0)
(13.5996 6.79952 0)
(16.2574 6.55054 0)
(12.8915 7.70281 0)
(16.2418 6.30328 0)
(11.9167 7.70429 0)
(15.7047 5.25155 0)
(10.6859 6.81685 0)
(14.877 4.03232 0)
(9.96373 5.75234 0)
(14.2489 2.94042 0)
(9.3229 4.33081 0)
(13.6432 1.66613 0)
(8.6995 3.10144 0)
(13.1576 0.228543 0)
(8.23272 1.81562 0)
(12.5625 -0.84398 0)
(7.73799 0.839424 0)
(11.8068 -1.68458 0)
(7.19425 0.0749749 0)
(11.2272 -2.16995 0)
(6.81192 -0.304777 0)
(10.3474 -2.76042 0)
(6.53127 -0.4316 0)
(9.80202 -2.56595 0)
(6.1071 -0.901823 0)
(9.7781 -2.54146 0)
(5.85952 -1.25582 0)
(9.70789 -2.35567 0)
(6.60843 -0.822641 0)
(9.62743 -1.81596 0)
(7.95738 -0.195707 0)
(11.5853 -0.0922709 0)
(11.596 -0.285971 0)
(11.6952 -0.342971 0)
(11.8331 -0.335281 0)
(11.8266 -0.239503 0)
(11.8978 -0.153926 0)
(11.8452 -0.115935 0)
(11.8596 -0.0557807 0)
(11.8172 -0.0600197 0)
(11.765 -0.0549551 0)
(11.7713 -0.0703947 0)
(11.7264 -0.0945635 0)
(11.7452 -0.0752957 0)
(11.7458 -0.0915744 0)
(11.7431 -0.071066 0)
(11.7931 -0.0530671 0)
(11.7672 -0.0489124 0)
(11.8089 -0.0148471 0)
(11.7834 -0.0237637 0)
(11.7878 -0.0079067 0)
(11.785 -0.00585474 0)
(11.7686 -0.0153998 0)
(11.7773 0.00225148 0)
(11.7702 -0.0192761 0)
(11.7834 -0.008562 0)
(11.7893 -0.0123872 0)
(11.7977 -0.0216264 0)
(11.8004 -0.0111299 0)
(11.8061 -0.0259306 0)
(11.7879 -0.0188335 0)
(11.7971 -0.0184561 0)
(11.7601 -0.0236102 0)
(11.7718 -0.0171221 0)
(11.7482 -0.0176899 0)
(11.7471 -0.0155731 0)
(11.7496 -0.00819869 0)
(11.7431 -0.0105456 0)
(11.7637 0.000493456 0)
(11.7557 0.00462851 0)
(11.7803 0.00994185 0)
(11.7652 0.0239562 0)
(11.7927 0.015086 0)
(11.7754 0.0363209 0)
(11.7812 0.0269702 0)
(11.7756 0.0244544 0)
(11.767 0.0285116 0)
(11.7585 0.0167578 0)
(11.7402 0.0156443 0)
(11.7359 0.0111979 0)
(11.6998 0.00555054 0)
(11.6986 0.00481952 0)
(11.6478 0.00097595 0)
(11.6261 0.00717955 0)
(11.5721 0.00950682 0)
(11.5226 0.0289111 0)
(11.4752 0.0545265 0)
(11.393 0.080351 0)
(11.3612 0.129217 0)
(11.2798 0.185949 0)
(11.2256 0.231701 0)
(11.1822 0.314154 0)
(11.1148 0.356961 0)
(11.0892 0.423334 0)
(11.0432 0.467709 0)
(11.0212 0.507184 0)
(11.0203 0.537313 0)
(10.9953 0.536737 0)
(11.0521 0.550726 0)
(11.0308 0.517153 0)
(11.1472 0.477124 0)
(11.105 0.440435 0)
(11.2668 0.351194 0)
(11.2547 0.290834 0)
(11.3988 0.199057 0)
(11.4039 0.105329 0)
(11.5516 0.0307919 0)
(11.5754 -0.0526689 0)
(11.7073 -0.134081 0)
(11.7498 -0.185554 0)
(11.8784 -0.270164 0)
(11.9487 -0.292025 0)
(12.0584 -0.386711 0)
(12.1516 -0.412021 0)
(12.2095 -0.440591 0)
(12.354 -0.521951 0)
(12.3624 -0.496653 0)
(12.5106 -0.55306 0)
(12.493 -0.543315 0)
(12.629 -0.538366 0)
(12.6293 -0.556557 0)
(12.6983 -0.492868 0)
(12.7534 -0.504627 0)
(12.8057 -0.445309 0)
(12.8115 -0.426202 0)
(12.9159 -0.38019 0)
(12.9134 -0.316756 0)
(12.9842 -0.294549 0)
(13.0994 -0.268484 0)
(13.0597 -0.243185 0)
(13.2195 -0.155799 0)
(13.3225 -0.241037 0)
(13.2643 -0.0624487 0)
(13.574 -0.265648 0)
(13.5194 -0.0851877 0)
(13.6419 -0.130047 0)
(13.916 -0.228484 0)
(13.8632 -0.147668 0)
(14.0247 -0.236001 0)
(14.3215 -0.372622 0)
(14.1209 -0.23269 0)
(14.5325 -0.524102 0)
(14.512 -0.53796 0)
(14.489 -0.550088 0)
(14.7749 -0.841807 0)
(14.6321 -0.843891 0)
(14.6677 -0.956816 0)
(14.736 -1.27655 0)
(14.6085 -1.16273 0)
(14.4063 -1.54674 0)
(14.6341 -1.60933 0)
(13.7794 -1.69834 0)
(14.4193 -1.87504 0)
(13.0375 -2.05929 0)
(13.9059 -1.87513 0)
(12.0418 -2.18074 0)
(13.4497 -1.90494 0)
(10.8214 -1.84595 0)
(12.9568 -1.90618 0)
(9.84324 -1.96636 0)
(12.3981 -1.67861 0)
(9.13855 -1.91542 0)
(11.9834 -1.76918 0)
(8.65264 -1.53453 0)
(11.6593 -1.49478 0)
(8.32775 -1.51566 0)
(11.3053 -1.2744 0)
(8.22717 -1.30852 0)
(10.9073 -1.19182 0)
(8.19283 -1.50533 0)
(10.5263 -0.815091 0)
(8.30529 -1.30608 0)
(10.107 -0.885187 0)
(8.26249 -1.17526 0)