/*--------------------------------*- C++ -*----------------------------------*\
| =========                 |                                                 |
| \\      /  F ield         | OpenFOAM: The Open Source CFD Toolbox           |
|  \\    /   O peration     | Version:  2.4.0                                 |
|   \\  /    A nd           | Web:      www.OpenFOAM.org                      |
|    \\/     M anipulation  |                                                 |
\*---------------------------------------------------------------------------*/
FoamFile
{
    version     2.0;
    format      ascii;
    class       volVectorField;
    location    "0.55";
    object      UMean;
}
// * * * * * * * * * * * * * * * * * * * * * * * * * * * * * * * * * * * * * //

dimensions      [0 1 -1 0 0 0 0];

internalField   nonuniform List<vector> 
8800
(
(8.09342 0.386598 0)
(5.46775 0.24212 0)
(3.93847 0.0432132 0)
(3.18733 -0.0151533 0)
(2.83442 -0.0181219 0)
(2.63342 -0.0109271 0)
(2.52278 -0.00565475 0)
(2.41963 -0.0022035 0)
(2.36297 -0.00155977 0)
(2.29314 -0.000431171 0)
(2.26477 -0.00079689 0)
(2.21218 0.000137121 0)
(2.19517 -0.000286192 0)
(2.14815 0.000730034 0)
(2.1305 0.000157708 0)
(2.08547 0.0014249 0)
(2.05929 0.000305194 0)
(2.01316 0.00142396 0)
(1.99622 0.00454592 0)
(1.81992 -0.0461214 0)
(10.0779 0.834923 0)
(9.65959 0.863241 0)
(8.88377 0.503795 0)
(8.09982 0.259881 0)
(7.51669 0.136613 0)
(7.03393 0.0810896 0)
(6.73223 0.0527747 0)
(6.43525 0.0398429 0)
(6.27362 0.0285698 0)
(6.06857 0.0239649 0)
(5.98597 0.0173783 0)
(5.83095 0.017678 0)
(5.7869 0.0135742 0)
(5.65705 0.0168101 0)
(5.62148 0.0137357 0)
(5.50653 0.017921 0)
(5.45859 0.0186548 0)
(5.34961 0.0142145 0)
(5.29769 0.0319182 0)
(5.15041 -0.0379388 0)
(10.0573 0.629302 0)
(10.6541 0.858448 0)
(10.8677 0.597023 0)
(10.6904 0.370351 0)
(10.4608 0.252673 0)
(10.0902 0.194136 0)
(9.85006 0.150235 0)
(9.50707 0.12084 0)
(9.33964 0.091079 0)
(9.056 0.0750962 0)
(8.96344 0.055813 0)
(8.73092 0.0518887 0)
(8.68771 0.0397472 0)
(8.48661 0.0432989 0)
(8.46437 0.035117 0)
(8.28004 0.0421275 0)
(8.25616 0.0403255 0)
(8.0739 0.0435785 0)
(8.03581 0.0518744 0)
(7.85392 -0.0216107 0)
(9.99857 0.455884 0)
(10.5631 0.701588 0)
(11.1648 0.541952 0)
(11.367 0.349385 0)
(11.5502 0.258253 0)
(11.4492 0.225009 0)
(11.4851 0.196199 0)
(11.2898 0.174024 0)
(11.294 0.143078 0)
(11.0715 0.124726 0)
(11.083 0.0998562 0)
(10.8585 0.0927439 0)
(10.8852 0.0751044 0)
(10.6626 0.0775333 0)
(10.699 0.0639347 0)
(10.4757 0.074338 0)
(10.5112 0.0628903 0)
(10.2795 0.0852251 0)
(10.2877 0.0654087 0)
(10.0432 0.0914906 0)
(10.0427 0.345622 0)
(10.3978 0.564465 0)
(11.0436 0.457733 0)
(11.2958 0.29208 0)
(11.6494 0.205589 0)
(11.6595 0.190834 0)
(11.8717 0.174123 0)
(11.803 0.168861 0)
(11.9725 0.140428 0)
(11.8706 0.133428 0)
(12.0195 0.104724 0)
(11.8973 0.108269 0)
(12.0302 0.0829478 0)
(11.8919 0.0984411 0)
(12.0075 0.0728369 0)
(11.8558 0.100522 0)
(11.949 0.0709017 0)
(11.7839 0.116879 0)
(11.8333 0.0727568 0)
(11.6227 0.134033 0)
(10.0523 0.251998 0)
(10.3166 0.452651 0)
(10.8938 0.374816 0)
(11.1745 0.24572 0)
(11.5217 0.159255 0)
(11.5958 0.14949 0)
(11.7945 0.139418 0)
(11.8083 0.14115 0)
(11.971 0.116683 0)
(11.9766 0.11335 0)
(12.1226 0.088617 0)
(12.1247 0.0920626 0)
(12.2536 0.0731364 0)
(12.2511 0.0846133 0)
(12.36 0.07019 0)
(12.3524 0.0872348 0)
(12.4369 0.076361 0)
(12.4216 0.0970355 0)
(12.4629 0.0807309 0)
(12.373 0.0578721 0)
(10.0092 0.174062 0)
(10.2989 0.352019 0)
(10.7498 0.287269 0)
(11.1071 0.20425 0)
(11.386 0.116785 0)
(11.5457 0.114264 0)
(11.6703 0.103256 0)
(11.7573 0.114381 0)
(11.8503 0.0873092 0)
(11.9313 0.0920636 0)
(12.0167 0.0645402 0)
(12.0956 0.074154 0)
(12.1729 0.0521947 0)
(12.2472 0.0682998 0)
(12.3145 0.0511721 0)
(12.3832 0.0710414 0)
(12.4389 0.0566879 0)
(12.4965 0.0752131 0)
(12.5208 0.0503772 0)
(12.4826 0.0172676 0)
(10.0005 0.114631 0)
(10.2614 0.249222 0)
(10.6742 0.20455 0)
(11.03 0.151279 0)
(11.3148 0.082284 0)
(11.481 0.0778528 0)
(11.6104 0.0734212 0)
(11.6884 0.0815835 0)
(11.787 0.0636431 0)
(11.8581 0.0647874 0)
(11.9542 0.0467308 0)
(12.0211 0.0508182 0)
(12.113 0.0377994 0)
(12.1729 0.0462146 0)
(12.2581 0.0372723 0)
(12.3096 0.0472165 0)
(12.3869 0.0392014 0)
(12.4233 0.0446585 0)
(12.4691 0.0254397 0)
(12.3981 -0.0098323 0)
(9.99199 0.0641483 0)
(10.2424 0.148655 0)
(10.6194 0.122325 0)
(10.9869 0.0925526 0)
(11.2605 0.048274 0)
(11.4487 0.0465009 0)
(11.5633 0.0431838 0)
(11.6549 0.0499267 0)
(11.7364 0.0381779 0)
(11.8229 0.0393235 0)
(11.9025 0.02741 0)
(11.9863 0.0303245 0)
(12.0609 0.0218319 0)
(12.1385 0.026994 0)
(12.2055 0.0206053 0)
(12.2749 0.0257107 0)
(12.332 0.0184363 0)
(12.3863 0.0183125 0)
(12.407 0.00173502 0)
(12.3492 -0.0277134 0)
(9.9924 0.0208388 0)
(10.229 0.0491546 0)
(10.5972 0.0409596 0)
(10.961 0.0307479 0)
(11.2387 0.0161655 0)
(11.4282 0.01515 0)
(11.5453 0.0144378 0)
(11.6338 0.0163761 0)
(11.7167 0.0128279 0)
(11.8006 0.0125787 0)
(11.8826 0.00886747 0)
(11.9641 0.00897687 0)
(12.0414 0.00632364 0)
(12.1164 0.00667374 0)
(12.1857 0.00399729 0)
(12.2522 0.00304297 0)
(12.3112 -0.00175775 0)
(12.3614 -0.0073117 0)
(12.3817 -0.0194137 0)
(12.3168 -0.041918 0)
(9.99373 -0.0220785 0)
(10.2277 -0.0476272 0)
(10.5983 -0.0424246 0)
(10.9597 -0.0294004 0)
(11.2398 -0.0176804 0)
(11.4269 -0.0139554 0)
(11.5464 -0.0160369 0)
(11.6327 -0.0153419 0)
(11.7177 -0.0147363 0)
(11.7993 -0.0120926 0)
(11.8836 -0.0116611 0)
(11.9627 -0.00995856 0)
(12.0423 -0.0113515 0)
(12.1146 -0.0112092 0)
(12.1863 -0.0147847 0)
(12.2498 -0.0170157 0)
(12.3112 -0.0237955 0)
(12.3577 -0.0295122 0)
(12.3799 -0.0416007 0)
(12.31 -0.051318 0)
(9.99188 -0.0652777 0)
(10.2422 -0.147334 0)
(10.6196 -0.123538 0)
(10.9864 -0.0914001 0)
(11.2609 -0.0495897 0)
(11.448 -0.0456756 0)
(11.5637 -0.0445529 0)
(11.6543 -0.0492318 0)
(11.7368 -0.0397924 0)
(11.8219 -0.0392958 0)
(11.9029 -0.0298837 0)
(11.9851 -0.0318027 0)
(12.0612 -0.0264796 0)
(12.1365 -0.0319641 0)
(12.2048 -0.0308879 0)
(12.2712 -0.0399688 0)
(12.3293 -0.0432399 0)
(12.3789 -0.0553704 0)
(12.3985 -0.0615501 0)
(12.3328 -0.0643775 0)
(9.99683 -0.115599 0)
(10.2652 -0.247925 0)
(10.6697 -0.205781 0)
(11.0344 -0.149947 0)
(11.3099 -0.0835302 0)
(11.4857 -0.0766489 0)
(11.6052 -0.0749374 0)
(11.6933 -0.0803769 0)
(11.7816 -0.0655602 0)
(11.8629 -0.0641733 0)
(11.9482 -0.0496191 0)
(12.026 -0.0516553 0)
(12.106 -0.0429276 0)
(12.177 -0.0503861 0)
(12.2493 -0.0479732 0)
(12.3115 -0.0601149 0)
(12.3738 -0.0640332 0)
(12.4196 -0.0794913 0)
(12.4462 -0.0854996 0)
(12.3798 -0.0776374 0)
(10.0159 -0.175464 0)
(10.2923 -0.350316 0)
(10.7555 -0.288979 0)
(11.1015 -0.202562 0)
(11.3911 -0.118559 0)
(11.5403 -0.11252 0)
(11.6754 -0.105275 0)
(11.752 -0.112789 0)
(11.8549 -0.089847 0)
(11.9259 -0.0909984 0)
(12.0211 -0.0680814 0)
(12.0897 -0.074424 0)
(12.1764 -0.0580532 0)
(12.2399 -0.0718689 0)
(12.3158 -0.0625387 0)
(12.372 -0.0826811 0)
(12.4345 -0.0812821 0)
(12.4759 -0.107015 0)
(12.502 -0.108615 0)
(12.4389 -0.104318 0)
(10.0543 -0.252215 0)
(10.3148 -0.452329 0)
(10.8949 -0.375116 0)
(11.1734 -0.24581 0)
(11.5224 -0.159354 0)
(11.595 -0.149699 0)
(11.7947 -0.139351 0)
(11.8078 -0.142101 0)
(11.9707 -0.116656 0)
(11.976 -0.115247 0)
(12.1216 -0.0889282 0)
(12.1236 -0.0958658 0)
(12.2512 -0.0749109 0)
(12.2479 -0.0923803 0)
(12.3539 -0.0761647 0)
(12.3431 -0.103358 0)
(12.4213 -0.0934156 0)
(12.3964 -0.132243 0)
(12.4224 -0.125081 0)
(12.3073 -0.141395 0)
(10.0507 -0.347189 0)
(10.3903 -0.562497 0)
(11.0496 -0.459511 0)
(11.2898 -0.290469 0)
(11.6544 -0.207557 0)
(11.6541 -0.189007 0)
(11.8757 -0.176312 0)
(11.7983 -0.167141 0)
(11.9752 -0.143225 0)
(11.8664 -0.13192 0)
(12.0201 -0.108556 0)
(11.8929 -0.107547 0)
(12.0268 -0.0892005 0)
(11.8856 -0.100128 0)
(11.9953 -0.0844515 0)
(11.8421 -0.107769 0)
(11.9169 -0.095365 0)
(11.7493 -0.1371 0)
(11.7567 -0.12557 0)
(11.5242 -0.162615 0)
(10.0045 -0.456271 0)
(10.5558 -0.700948 0)
(11.1715 -0.542534 0)
(11.3587 -0.348911 0)
(11.5581 -0.259057 0)
(11.4394 -0.224397 0)
(11.4945 -0.197143 0)
(11.2778 -0.173538 0)
(11.3049 -0.144336 0)
(11.0562 -0.124747 0)
(11.0949 -0.10152 0)
(10.8383 -0.0941257 0)
(10.8958 -0.0777481 0)
(10.6342 -0.0825318 0)
(10.7021 -0.0688656 0)
(10.4314 -0.0871064 0)
(10.4915 -0.0740571 0)
(10.2025 -0.115344 0)
(10.2096 -0.0970014 0)
(9.87186 -0.159018 0)
(10.0583 -0.629789 0)
(10.6515 -0.857975 0)
(10.8703 -0.597386 0)
(10.6863 -0.369973 0)
(10.4652 -0.253231 0)
(10.0839 -0.193668 0)
(9.85661 -0.150997 0)
(9.49707 -0.120308 0)
(9.34932 -0.0922571 0)
(9.03992 -0.0747306 0)
(8.97678 -0.0575718 0)
(8.70549 -0.0521345 0)
(8.70389 -0.042633 0)
(8.44561 -0.045633 0)
(8.47856 -0.0400149 0)
(8.21179 -0.0501808 0)
(8.25291 -0.048305 0)
(7.95585 -0.0698813 0)
(7.95952 -0.0719267 0)
(7.60898 -0.0900231 0)
(10.0779 -0.835023 0)
(9.65853 -0.863087 0)
(8.88457 -0.50385 0)
(8.0981 -0.259782 0)
(7.51868 -0.136819 0)
(7.03064 -0.0810107 0)
(6.7354 -0.0529977 0)
(6.42934 -0.0397774 0)
(6.27875 -0.0289634 0)
(6.05774 -0.0240361 0)
(5.99363 -0.0180252 0)
(5.8116 -0.0181574 0)
(5.79698 -0.0147551 0)
(5.62222 -0.0184328 0)
(5.63047 -0.0159995 0)
(5.44258 -0.0229592 0)
(5.45341 -0.022247 0)
(5.22941 -0.0329725 0)
(5.22018 -0.0391746 0)
(4.91718 -0.0220069 0)
(8.09323 -0.386644 0)
(5.46743 -0.242078 0)
(3.93858 -0.0432245 0)
(3.18711 0.0151513 0)
(2.83478 0.0180711 0)
(2.63235 0.01096 0)
(2.52351 0.00562979 0)
(2.41757 0.00219206 0)
(2.36401 0.00155462 0)
(2.2892 0.000359129 0)
(2.26575 0.000782356 0)
(2.20453 -0.000291037 0)
(2.1955 0.00025545 0)
(2.13283 -0.00115277 0)
(2.127 -0.000319233 0)
(2.05426 -0.00237662 0)
(2.04212 -0.0012015 0)
(1.94958 -0.00394045 0)
(1.91217 -0.00470609 0)
(1.75394 0.0118688 0)
(2.21808 -0.0873017 0)
(2.36096 0.00792296 0)
(2.60913 0.0126916 0)
(2.82651 -0.0108218 0)
(3.03931 -0.0360352 0)
(3.19738 -0.0497994 0)
(3.35344 -0.0590334 0)
(3.45941 -0.0610326 0)
(3.57131 -0.0730581 0)
(3.65796 -0.0866857 0)
(3.75899 -0.102067 0)
(3.83951 -0.114614 0)
(3.93727 -0.129303 0)
(4.01805 -0.140766 0)
(4.10983 -0.153766 0)
(4.19302 -0.165036 0)
(4.28864 -0.176772 0)
(4.38194 -0.188375 0)
(4.49867 -0.199845 0)
(4.60823 -0.209743 0)
(4.73346 -0.228286 0)
(4.84334 -0.248706 0)
(4.96165 -0.273165 0)
(5.06091 -0.29698 0)
(5.16828 -0.322737 0)
(5.25332 -0.346289 0)
(5.35243 -0.36913 0)
(5.42671 -0.386602 0)
(5.52594 -0.40241 0)
(5.60377 -0.41731 0)
(5.71451 -0.437547 0)
(5.80811 -0.459939 0)
(5.93038 -0.488635 0)
(6.03189 -0.517506 0)
(6.15089 -0.547968 0)
(6.24812 -0.576415 0)
(6.35914 -0.603989 0)
(6.45154 -0.629527 0)
(6.55769 -0.6574 0)
(6.64727 -0.685232 0)
(6.74989 -0.715254 0)
(6.83172 -0.745339 0)
(6.92725 -0.779093 0)
(6.99621 -0.810795 0)
(7.08122 -0.843284 0)
(7.13669 -0.870516 0)
(7.21665 -0.898142 0)
(7.26661 -0.918569 0)
(7.34762 -0.941234 0)
(7.39952 -0.954584 0)
(7.48503 -0.97311 0)
(7.54424 -0.982407 0)
(7.63479 -1.00095 0)
(7.69878 -1.01141 0)
(7.78996 -1.03382 0)
(7.85072 -1.04821 0)
(7.93728 -1.07433 0)
(7.9864 -1.09 0)
(8.06343 -1.11406 0)
(8.10006 -1.12593 0)
(8.17232 -1.14724 0)
(8.20869 -1.15674 0)
(8.28313 -1.17724 0)
(8.33471 -1.18628 0)
(8.40944 -1.20573 0)
(8.47467 -1.21534 0)
(8.53475 -1.23263 0)
(8.59105 -1.24185 0)
(8.63627 -1.25152 0)
(8.67907 -1.2568 0)
(8.72206 -1.26765 0)
(8.75891 -1.26876 0)
(8.79067 -1.2771 0)
(8.82593 -1.27367 0)
(8.85346 -1.28204 0)
(8.89424 -1.27641 0)
(8.92078 -1.28319 0)
(8.9736 -1.28089 0)
(9.00458 -1.28844 0)
(9.06433 -1.28366 0)
(9.10226 -1.28843 0)
(9.15782 -1.27227 0)
(9.19197 -1.26481 0)
(9.23606 -1.23663 0)
(9.2651 -1.2158 0)
(9.29529 -1.17759 0)
(9.31953 -1.1527 0)
(9.34839 -1.11284 0)
(9.36274 -1.08721 0)
(9.39158 -1.04578 0)
(9.39506 -1.01632 0)
(9.4231 -0.967527 0)
(9.41047 -0.932684 0)
(9.43287 -0.884815 0)
(9.40892 -0.852042 0)
(9.43382 -0.806024 0)
(9.39751 -0.775461 0)
(9.42801 -0.734734 0)
(9.38553 -0.712074 0)
(9.43803 -0.683609 0)
(9.38755 -0.674471 0)
(9.46473 -0.652062 0)
(9.4118 -0.659626 0)
(9.50727 -0.642999 0)
(9.44622 -0.63876 0)
(9.54293 -0.617081 0)
(9.47139 -0.608844 0)
(9.55936 -0.581927 0)
(9.47378 -0.568598 0)
(9.54355 -0.539201 0)
(9.44132 -0.522738 0)
(9.49103 -0.49102 0)
(9.37012 -0.476094 0)
(9.41093 -0.441406 0)
(9.2791 -0.433919 0)
(9.34403 -0.398304 0)
(9.21171 -0.397184 0)
(9.29062 -0.356638 0)
(9.14668 -0.350686 0)
(9.21532 -0.300506 0)
(9.07329 -0.293347 0)
(9.14511 -0.246906 0)
(9.01876 -0.250644 0)
(9.09854 -0.208767 0)
(8.97502 -0.22387 0)
(9.05751 -0.18471 0)
(8.93855 -0.204714 0)
(9.01301 -0.159879 0)
(8.90447 -0.170001 0)
(8.96268 -0.122702 0)
(8.8609 -0.12658 0)
(8.91321 -0.078515 0)
(8.80823 -0.0777691 0)
(8.85866 -0.0242554 0)
(8.74517 -0.0288233 0)
(8.80014 0.028223 0)
(8.67773 0.0248908 0)
(8.73432 0.0922608 0)
(8.60842 0.0871925 0)
(8.66611 0.154958 0)
(8.535 0.145423 0)
(8.58172 0.214012 0)
(8.45346 0.209717 0)
(8.4963 0.274854 0)
(8.37857 0.261601 0)
(8.43671 0.315993 0)
(8.30074 0.309265 0)
(8.38913 0.368548 0)
(8.22322 0.350889 0)
(8.35293 0.408721 0)
(8.16749 0.383437 0)
(8.30941 0.44566 0)
(8.1286 0.429031 0)
(8.26188 0.486443 0)
(8.0905 0.464117 0)
(8.21694 0.528928 0)
(8.0566 0.51653 0)
(8.16677 0.580098 0)
(8.03554 0.573977 0)
(8.13415 0.637881 0)
(8.03873 0.609045 0)
(8.10598 0.670185 0)
(8.03816 0.645677 0)
(8.06111 0.710461 0)
(7.99954 0.690354 0)
(7.99436 0.749853 0)
(7.95851 0.734386 0)
(7.91485 0.783241 0)
(7.89622 0.773298 0)
(7.79366 0.827945 0)
(7.82223 0.817107 0)
(7.61825 0.877014 0)
(7.70913 0.858839 0)
(7.43131 0.94783 0)
(7.58626 0.897867 0)
(7.25975 1.05219 0)
(7.48889 0.955021 0)
(7.08824 1.16753 0)
(7.43601 1.03642 0)
(6.93551 1.30759 0)
(7.37278 1.14014 0)
(6.82909 1.47749 0)
(7.26845 1.26378 0)
(6.76256 1.67019 0)
(7.14703 1.44179 0)
(6.69129 1.88525 0)
(7.03415 1.68052 0)
(6.57371 2.11819 0)
(6.92588 1.98109 0)
(6.39622 2.38302 0)
(6.81751 2.33869 0)
(6.17205 2.71831 0)
(6.63535 2.77333 0)
(5.94259 3.19763 0)
(6.32608 3.31417 0)
(5.77794 4.01455 0)
(5.92588 4.12512 0)
(5.32533 5.28799 0)
(6.23608 5.9816 0)
(3.94918 8.89797 0)
(5.26014 -0.0556772 0)
(5.25806 -0.0230768 0)
(5.30706 -0.0374084 0)
(5.39545 -0.0775289 0)
(5.51523 -0.113024 0)
(5.61715 -0.130479 0)
(5.71077 -0.137148 0)
(5.77346 -0.138284 0)
(5.83053 -0.143149 0)
(5.87186 -0.152526 0)
(5.9231 -0.166483 0)
(5.96743 -0.181297 0)
(6.02768 -0.196922 0)
(6.08166 -0.21071 0)
(6.15067 -0.223599 0)
(6.21161 -0.236062 0)
(6.28831 -0.248506 0)
(6.35466 -0.2611 0)
(6.43849 -0.275986 0)
(6.51218 -0.290823 0)
(6.60128 -0.309663 0)
(6.6783 -0.33059 0)
(6.76516 -0.353135 0)
(6.83738 -0.375753 0)
(6.92062 -0.398375 0)
(6.98683 -0.419889 0)
(7.06955 -0.439761 0)
(7.13268 -0.45787 0)
(7.21758 -0.47596 0)
(7.28151 -0.494259 0)
(7.37283 -0.515782 0)
(7.441 -0.539038 0)
(7.53828 -0.566944 0)
(7.60678 -0.594447 0)
(7.70199 -0.624274 0)
(7.76492 -0.649967 0)
(7.85218 -0.677633 0)
(7.90966 -0.700384 0)
(7.98838 -0.727527 0)
(8.04303 -0.751012 0)
(8.11611 -0.780415 0)
(8.16943 -0.805959 0)
(8.23873 -0.837398 0)
(8.28968 -0.863878 0)
(8.35663 -0.894214 0)
(8.40317 -0.918562 0)
(8.46987 -0.945615 0)
(8.51201 -0.966454 0)
(8.57978 -0.989323 0)
(8.61815 -1.00562 0)
(8.68715 -1.02407 0)
(8.72226 -1.03668 0)
(8.79148 -1.05337 0)
(8.82306 -1.065 0)
(8.88969 -1.08281 0)
(8.91705 -1.09581 0)
(8.97819 -1.11561 0)
(9.0019 -1.13116 0)
(9.0579 -1.15134 0)
(9.07924 -1.16856 0)
(9.13404 -1.18764 0)
(9.15202 -1.20453 0)
(9.20796 -1.22215 0)
(9.22118 -1.23618 0)
(9.27697 -1.2512 0)
(9.28976 -1.25962 0)
(9.33718 -1.26851 0)
(9.3512 -1.27398 0)
(9.39093 -1.28257 0)
(9.40714 -1.28992 0)
(9.43921 -1.29298 0)
(9.45145 -1.29516 0)
(9.48004 -1.29652 0)
(9.4914 -1.2981 0)
(9.51487 -1.30345 0)
(9.53268 -1.30201 0)
(9.54843 -1.30965 0)
(9.57692 -1.30766 0)
(9.5824 -1.31512 0)
(9.61774 -1.31184 0)
(9.62032 -1.31317 0)
(9.65216 -1.29687 0)
(9.65455 -1.28766 0)
(9.67953 -1.25576 0)
(9.67834 -1.23124 0)
(9.69673 -1.19284 0)
(9.69754 -1.16576 0)
(9.70947 -1.12276 0)
(9.70444 -1.09599 0)
(9.71037 -1.05098 0)
(9.70274 -1.01863 0)
(9.69598 -0.964868 0)
(9.68049 -0.930606 0)
(9.66034 -0.878017 0)
(9.63881 -0.845627 0)
(9.61132 -0.794255 0)
(9.59094 -0.766615 0)
(9.56589 -0.725092 0)
(9.56164 -0.710259 0)
(9.54908 -0.684228 0)
(9.55367 -0.683324 0)
(9.56203 -0.665956 0)
(9.56723 -0.676179 0)
(9.57994 -0.65665 0)
(9.5766 -0.648071 0)
(9.58782 -0.623199 0)
(9.56793 -0.60681 0)
(9.57242 -0.576544 0)
(9.53175 -0.554456 0)
(9.52471 -0.519845 0)
(9.47149 -0.492866 0)
(9.44836 -0.456139 0)
(9.38455 -0.431541 0)
(9.352 -0.403998 0)
(9.30409 -0.398537 0)
(9.27901 -0.374278 0)
(9.23488 -0.36649 0)
(9.20419 -0.328717 0)
(9.15896 -0.313292 0)
(9.1178 -0.273483 0)
(9.09197 -0.262382 0)
(9.04614 -0.23179 0)
(9.04568 -0.228696 0)
(8.99725 -0.198821 0)
(9.01215 -0.203655 0)
(8.95519 -0.17169 0)
(8.98143 -0.182032 0)
(8.90241 -0.144064 0)
(8.93878 -0.143642 0)
(8.84196 -0.102957 0)
(8.88133 -0.102012 0)
(8.77662 -0.0549286 0)
(8.81558 -0.0536119 0)
(8.70573 0.00260262 0)
(8.747 0.00226754 0)
(8.62269 0.0579109 0)
(8.67546 0.0583708 0)
(8.53883 0.113646 0)
(8.60643 0.119385 0)
(8.46167 0.172006 0)
(8.54172 0.182756 0)
(8.3699 0.24073 0)
(8.46211 0.250001 0)
(8.27984 0.303519 0)
(8.38772 0.289884 0)
(8.20919 0.347695 0)
(8.31901 0.332807 0)
(8.15167 0.390376 0)
(8.28017 0.366043 0)
(8.12453 0.420803 0)
(8.24526 0.392117 0)
(8.1005 0.45652 0)
(8.21139 0.430978 0)
(8.0751 0.497987 0)
(8.18474 0.465543 0)
(8.04423 0.549376 0)
(8.16926 0.507349 0)
(8.00886 0.600904 0)
(8.18611 0.553447 0)
(7.99675 0.654197 0)
(8.21862 0.585666 0)
(7.98132 0.703388 0)
(8.21967 0.634609 0)
(7.96073 0.750752 0)
(8.19958 0.673697 0)
(7.94021 0.788667 0)
(8.17309 0.705388 0)
(7.89737 0.852753 0)
(8.11496 0.750881 0)
(7.81436 0.926592 0)
(8.03883 0.798745 0)
(7.71024 1.00696 0)
(7.93489 0.833988 0)
(7.58067 1.08287 0)
(7.82782 0.863107 0)
(7.43178 1.16305 0)
(7.77319 0.915174 0)
(7.28879 1.27036 0)
(7.73708 0.997671 0)
(7.18103 1.40805 0)
(7.67484 1.1045 0)
(7.0948 1.55655 0)
(7.61186 1.26069 0)
(6.9873 1.71629 0)
(7.58801 1.4656 0)
(6.8625 1.90689 0)
(7.59569 1.71482 0)
(6.72835 2.14565 0)
(7.58016 1.99349 0)
(6.61448 2.47345 0)
(7.49174 2.30421 0)
(6.56526 2.91378 0)
(7.28972 2.68358 0)
(6.54191 3.50479 0)
(7.02548 3.23878 0)
(6.38141 4.27466 0)
(7.13629 4.21976 0)
(5.77474 5.59101 0)
(8.38088 5.2156 0)
(6.35423 9.47423 0)
(7.88442 -0.0815676 0)
(7.88603 -0.0881094 0)
(7.91483 -0.107693 0)
(7.97891 -0.13053 0)
(8.06811 -0.146233 0)
(8.1434 -0.152402 0)
(8.20115 -0.153964 0)
(8.23044 -0.15469 0)
(8.24946 -0.159416 0)
(8.25819 -0.169373 0)
(8.27494 -0.184696 0)
(8.29218 -0.20269 0)
(8.32199 -0.222088 0)
(8.35149 -0.240835 0)
(8.39231 -0.258735 0)
(8.43011 -0.275225 0)
(8.47814 -0.291178 0)
(8.52003 -0.30641 0)
(8.57055 -0.322654 0)
(8.61453 -0.339692 0)
(8.66598 -0.358939 0)
(8.71185 -0.37989 0)
(8.76314 -0.401844 0)
(8.80935 -0.424246 0)
(8.86024 -0.446202 0)
(8.90723 -0.467654 0)
(8.95878 -0.487574 0)
(9.00757 -0.50715 0)
(9.06009 -0.525712 0)
(9.10857 -0.545646 0)
(9.16193 -0.566261 0)
(9.20835 -0.590092 0)
(9.26223 -0.615034 0)
(9.30302 -0.642404 0)
(9.35508 -0.669054 0)
(9.38787 -0.69575 0)
(9.43808 -0.720524 0)
(9.46498 -0.744377 0)
(9.51454 -0.767818 0)
(9.53894 -0.790789 0)
(9.58905 -0.815848 0)
(9.61555 -0.840417 0)
(9.66548 -0.868438 0)
(9.69497 -0.894651 0)
(9.74191 -0.923693 0)
(9.77243 -0.949243 0)
(9.8135 -0.976319 0)
(9.84223 -0.998693 0)
(9.87611 -1.02146 0)
(9.90133 -1.03914 0)
(9.92918 -1.05657 0)
(9.95034 -1.07017 0)
(9.97472 -1.08416 0)
(9.99169 -1.09593 0)
(10.0146 -1.11003 0)
(10.029 -1.12276 0)
(10.0519 -1.14028 0)
(10.0669 -1.15605 0)
(10.0892 -1.17654 0)
(10.1053 -1.19282 0)
(10.1209 -1.21066 0)
(10.1346 -1.22424 0)
(10.1385 -1.2369 0)
(10.1447 -1.24789 0)
(10.1385 -1.25561 0)
(10.1349 -1.26354 0)
(10.127 -1.27008 0)
(10.1224 -1.27918 0)
(10.1227 -1.28837 0)
(10.1151 -1.29679 0)
(10.115 -1.30156 0)
(10.1043 -1.30369 0)
(10.1067 -1.30307 0)
(10.0918 -1.30625 0)
(10.0965 -1.30799 0)
(10.075 -1.30978 0)
(10.0768 -1.31303 0)
(10.0538 -1.31143 0)
(10.052 -1.31838 0)
(10.0351 -1.31517 0)
(10.0311 -1.31517 0)
(10.0161 -1.29986 0)
(10.0161 -1.28834 0)
(9.99549 -1.25292 0)
(9.99739 -1.23018 0)
(9.97412 -1.18876 0)
(9.97349 -1.15915 0)
(9.93843 -1.11362 0)
(9.93884 -1.08607 0)
(9.89272 -1.0387 0)
(9.89458 -1.00155 0)
(9.83532 -0.944497 0)
(9.82972 -0.908733 0)
(9.76136 -0.851546 0)
(9.75329 -0.818634 0)
(9.68554 -0.767075 0)
(9.67397 -0.745015 0)
(9.61915 -0.708209 0)
(9.62785 -0.701456 0)
(9.58607 -0.679156 0)
(9.60774 -0.687118 0)
(9.58119 -0.671011 0)
(9.59162 -0.684483 0)
(9.57172 -0.655596 0)
(9.56438 -0.648223 0)
(9.54949 -0.61009 0)
(9.51478 -0.597222 0)
(9.50831 -0.550727 0)
(9.44444 -0.534514 0)
(9.44429 -0.479986 0)
(9.3547 -0.461487 0)
(9.35532 -0.402973 0)
(9.25139 -0.397102 0)
(9.28325 -0.364204 0)
(9.18194 -0.372161 0)
(9.2133 -0.332551 0)
(9.09102 -0.33346 0)
(9.12504 -0.282837 0)
(8.98769 -0.283004 0)
(9.04419 -0.231848 0)
(8.9063 -0.242638 0)
(8.97979 -0.200024 0)
(8.84975 -0.219222 0)
(8.93196 -0.175627 0)
(8.80463 -0.196653 0)
(8.89137 -0.145124 0)
(8.75632 -0.168806 0)
(8.84005 -0.107692 0)
(8.69611 -0.128149 0)
(8.77857 -0.0598587 0)
(8.62546 -0.0833462 0)
(8.69896 -0.00453754 0)
(8.54913 -0.0326535 0)
(8.60919 0.0565582 0)
(8.47325 0.027848 0)
(8.50952 0.117066 0)
(8.39299 0.0858564 0)
(8.4153 0.165541 0)
(8.31186 0.13785 0)
(8.33744 0.221129 0)
(8.22771 0.199173 0)
(8.26684 0.299096 0)
(8.12729 0.268354 0)
(8.20381 0.355611 0)
(8.05563 0.301885 0)
(8.15065 0.393665 0)
(8.00491 0.343188 0)
(8.11219 0.424974 0)
(7.97692 0.364204 0)
(8.10213 0.453734 0)
(7.94509 0.38854 0)
(8.10923 0.49698 0)
(7.91161 0.415884 0)
(8.10249 0.540768 0)
(7.89889 0.45229 0)
(8.09475 0.599318 0)
(7.90477 0.475937 0)
(8.09076 0.636091 0)
(7.93906 0.510532 0)
(8.09301 0.678812 0)
(7.96411 0.557341 0)
(8.10249 0.742272 0)
(7.96507 0.608911 0)
(8.10742 0.800029 0)
(7.97303 0.642685 0)
(8.0956 0.849177 0)
(7.96235 0.680884 0)
(8.05025 0.925941 0)
(7.94577 0.734946 0)
(7.97854 1.01292 0)
(7.91993 0.793142 0)
(7.86145 1.09876 0)
(7.92118 0.844358 0)
(7.69678 1.17644 0)
(7.95627 0.889752 0)
(7.50756 1.25511 0)
(7.97852 0.9263 0)
(7.3542 1.35303 0)
(7.98711 0.997377 0)
(7.23388 1.47513 0)
(8.00107 1.11691 0)
(7.09797 1.618 0)
(8.01754 1.26554 0)
(6.95697 1.79827 0)
(8.01508 1.42868 0)
(6.86348 2.02515 0)
(7.97665 1.62548 0)
(6.85063 2.31958 0)
(7.86818 1.85904 0)
(6.90556 2.6714 0)
(7.7112 2.17015 0)
(6.98111 3.09135 0)
(7.63685 2.60278 0)
(6.943 3.59212 0)
(7.86474 3.21499 0)
(6.65543 4.39693 0)
(8.63303 3.8062 0)
(6.39549 6.15649 0)
(9.62029 3.8331 0)
(8.00979 8.71666 0)
(10.0584 -0.115514 0)
(10.0752 -0.226476 0)
(10.1219 -0.2694 0)
(10.1842 -0.260294 0)
(10.2538 -0.231237 0)
(10.303 -0.201975 0)
(10.3344 -0.182508 0)
(10.3427 -0.173564 0)
(10.345 -0.174938 0)
(10.3406 -0.183668 0)
(10.3434 -0.199031 0)
(10.3468 -0.217687 0)
(10.3592 -0.23898 0)
(10.3712 -0.259779 0)
(10.3905 -0.280439 0)
(10.407 -0.298856 0)
(10.4293 -0.316791 0)
(10.4471 -0.33285 0)
(10.4707 -0.349817 0)
(10.4898 -0.366324 0)
(10.5153 -0.385155 0)
(10.5357 -0.404294 0)
(10.5624 -0.425941 0)
(10.5831 -0.446987 0)
(10.6096 -0.469653 0)
(10.6306 -0.490555 0)
(10.6558 -0.512107 0)
(10.6772 -0.531483 0)
(10.7004 -0.551745 0)
(10.7223 -0.57092 0)
(10.742 -0.591806 0)
(10.7634 -0.613092 0)
(10.779 -0.636188 0)
(10.7986 -0.660629 0)
(10.8101 -0.685191 0)
(10.8266 -0.710749 0)
(10.8364 -0.734589 0)
(10.8508 -0.760114 0)
(10.8635 -0.783324 0)
(10.8768 -0.808955 0)
(10.8948 -0.832936 0)
(10.9076 -0.860361 0)
(10.9297 -0.886602 0)
(10.9401 -0.91515 0)
(10.9621 -0.942113 0)
(10.9678 -0.969107 0)
(10.9855 -0.993636 0)
(10.9858 -1.01608 0)
(10.9974 -1.0358 0)
(10.9938 -1.0524 0)
(10.9994 -1.0669 0)
(10.9935 -1.07892 0)
(10.9944 -1.08978 0)
(10.9878 -1.10061 0)
(10.9876 -1.11214 0)
(10.9824 -1.12615 0)
(10.9839 -1.14146 0)
(10.9776 -1.15797 0)
(10.9781 -1.17442 0)
(10.9637 -1.18828 0)
(10.9573 -1.202 0)
(10.9317 -1.21096 0)
(10.9147 -1.22092 0)
(10.8802 -1.22531 0)
(10.8492 -1.23149 0)
(10.8123 -1.23716 0)
(10.7752 -1.24847 0)
(10.744 -1.26079 0)
(10.7051 -1.26998 0)
(10.675 -1.27829 0)
(10.6325 -1.28372 0)
(10.5975 -1.28557 0)
(10.556 -1.28487 0)
(10.5227 -1.28758 0)
(10.4777 -1.286 0)
(10.4369 -1.2889 0)
(10.3917 -1.28699 0)
(10.3526 -1.2921 0)
(10.3162 -1.29635 0)
(10.2875 -1.29796 0)
(10.2522 -1.29265 0)
(10.231 -1.28376 0)
(10.1902 -1.2628 0)
(10.1686 -1.23432 0)
(10.1262 -1.20731 0)
(10.1007 -1.16684 0)
(10.0526 -1.13245 0)
(10.0222 -1.09685 0)
(9.97802 -1.06233 0)
(9.94489 -1.01794 0)
(9.89252 -0.972094 0)
(9.85439 -0.913505 0)
(9.79407 -0.869618 0)
(9.75652 -0.812954 0)
(9.70111 -0.778321 0)
(9.66762 -0.729728 0)
(9.61495 -0.714815 0)
(9.59514 -0.68521 0)
(9.55855 -0.687772 0)
(9.54378 -0.666318 0)
(9.52333 -0.679463 0)
(9.50331 -0.658359 0)
(9.48287 -0.676215 0)
(9.46009 -0.637305 0)
(9.43471 -0.637218 0)
(9.40771 -0.586702 0)
(9.36534 -0.579576 0)
(9.33868 -0.517871 0)
(9.27951 -0.507818 0)
(9.25023 -0.43824 0)
(9.16765 -0.424159 0)
(9.14459 -0.363506 0)
(9.07828 -0.381325 0)
(9.08731 -0.339476 0)
(9.00267 -0.347196 0)
(9.01273 -0.291587 0)
(8.90163 -0.29698 0)
(8.91174 -0.236503 0)
(8.78631 -0.249895 0)
(8.82526 -0.192861 0)
(8.69744 -0.223025 0)
(8.75584 -0.16994 0)
(8.63584 -0.207562 0)
(8.69331 -0.14798 0)
(8.58554 -0.186623 0)
(8.6356 -0.118481 0)
(8.52465 -0.154329 0)
(8.57759 -0.0733438 0)
(8.45886 -0.11316 0)
(8.51159 -0.017747 0)
(8.38949 -0.0625583 0)
(8.43153 0.0425319 0)
(8.30693 -0.00589311 0)
(8.34509 0.102931 0)
(8.22385 0.0554448 0)
(8.25216 0.162584 0)
(8.13968 0.115809 0)
(8.15573 0.208626 0)
(8.04986 0.166121 0)
(8.07313 0.265444 0)
(7.96305 0.226128 0)
(8.00096 0.342945 0)
(7.89308 0.28799 0)
(7.95636 0.384262 0)
(7.86816 0.313518 0)
(7.9232 0.420254 0)
(7.84835 0.350794 0)
(7.8982 0.439413 0)
(7.85126 0.361337 0)
(7.87868 0.460328 0)
(7.86239 0.382521 0)
(7.87182 0.506116 0)
(7.88152 0.412437 0)
(7.85286 0.543525 0)
(7.91626 0.443687 0)
(7.86066 0.587572 0)
(7.94355 0.466655 0)
(7.88269 0.636469 0)
(7.97366 0.508783 0)
(7.88081 0.673387 0)
(8.0051 0.540649 0)
(7.89869 0.742334 0)
(8.04849 0.573295 0)
(7.87357 0.794685 0)
(8.12811 0.613373 0)
(7.81407 0.867863 0)
(8.18083 0.670029 0)
(7.72708 0.961147 0)
(8.23205 0.716366 0)
(7.63894 1.06365 0)
(8.29849 0.764057 0)
(7.52044 1.15505 0)
(8.36592 0.804859 0)
(7.39462 1.23101 0)
(8.40131 0.841791 0)
(7.29461 1.32041 0)
(8.37731 0.887788 0)
(7.21434 1.41764 0)
(8.33794 0.952975 0)
(7.14153 1.54552 0)
(8.31549 1.0533 0)
(7.10172 1.72808 0)
(8.27051 1.17078 0)
(7.11251 1.93867 0)
(8.18121 1.31702 0)
(7.16976 2.1749 0)
(8.09015 1.51031 0)
(7.23483 2.45092 0)
(8.0701 1.78621 0)
(7.23562 2.77446 0)
(8.16225 2.11732 0)
(7.14057 3.19865 0)
(8.46183 2.50153 0)
(6.94057 3.81094 0)
(9.0085 2.80384 0)
(6.81451 4.86911 0)
(9.76802 2.87756 0)
(7.28165 6.43725 0)
(10.1379 3.05388 0)
(8.91153 7.63654 0)
(11.5446 -0.0996092 0)
(11.5843 -0.241974 0)
(11.6986 -0.299317 0)
(11.7902 -0.290854 0)
(11.8521 -0.253329 0)
(11.879 -0.213098 0)
(11.8852 -0.185299 0)
(11.8745 -0.172855 0)
(11.8619 -0.173942 0)
(11.8459 -0.18408 0)
(11.8363 -0.200897 0)
(11.827 -0.220919 0)
(11.8248 -0.24302 0)
(11.8224 -0.26478 0)
(11.8256 -0.286087 0)
(11.8273 -0.305583 0)
(11.8327 -0.324058 0)
(11.8363 -0.341107 0)
(11.8427 -0.358166 0)
(11.8473 -0.375227 0)
(11.8542 -0.393629 0)
(11.858 -0.412989 0)
(11.8641 -0.434009 0)
(11.8653 -0.455424 0)
(11.8693 -0.477795 0)
(11.8671 -0.499323 0)
(11.8693 -0.5211 0)
(11.8644 -0.541028 0)
(11.866 -0.561728 0)
(11.8607 -0.580335 0)
(11.8618 -0.6009 0)
(11.8573 -0.619808 0)
(11.8571 -0.642253 0)
(11.8544 -0.663008 0)
(11.8515 -0.687539 0)
(11.8509 -0.709998 0)
(11.8447 -0.736015 0)
(11.8469 -0.7599 0)
(11.8382 -0.786698 0)
(11.8427 -0.812033 0)
(11.8324 -0.839718 0)
(11.8375 -0.866782 0)
(11.8259 -0.894807 0)
(11.8287 -0.922266 0)
(11.8155 -0.948887 0)
(11.8131 -0.973877 0)
(11.7979 -0.996587 0)
(11.7892 -1.01662 0)
(11.7713 -1.03387 0)
(11.7561 -1.04779 0)
(11.7347 -1.05991 0)
(11.7144 -1.06925 0)
(11.691 -1.0797 0)
(11.6703 -1.08958 0)
(11.647 -1.10266 0)
(11.6273 -1.11557 0)
(11.6008 -1.13006 0)
(11.5765 -1.14308 0)
(11.5412 -1.15561 0)
(11.5078 -1.16691 0)
(11.4647 -1.17686 0)
(11.4195 -1.18396 0)
(11.371 -1.18887 0)
(11.3129 -1.19045 0)
(11.2638 -1.19511 0)
(11.2014 -1.20024 0)
(11.1558 -1.21142 0)
(11.0866 -1.21875 0)
(11.0328 -1.22856 0)
(10.9595 -1.23034 0)
(10.8989 -1.23528 0)
(10.822 -1.23326 0)
(10.7622 -1.23652 0)
(10.688 -1.23347 0)
(10.6236 -1.23438 0)
(10.5486 -1.23473 0)
(10.4874 -1.24044 0)
(10.426 -1.24927 0)
(10.3795 -1.25984 0)
(10.3261 -1.26076 0)
(10.2807 -1.26001 0)
(10.2298 -1.2467 0)
(10.1761 -1.22682 0)
(10.1311 -1.19972 0)
(10.074 -1.17202 0)
(10.024 -1.13095 0)
(9.97388 -1.10105 0)
(9.92449 -1.06329 0)
(9.87392 -1.03098 0)
(9.82602 -0.972644 0)
(9.76122 -0.929054 0)
(9.7106 -0.86398 0)
(9.65441 -0.831667 0)
(9.60383 -0.768594 0)
(9.56369 -0.750699 0)
(9.51254 -0.69133 0)
(9.48286 -0.697993 0)
(9.43761 -0.650181 0)
(9.40901 -0.676498 0)
(9.36689 -0.636372 0)
(9.35096 -0.669192 0)
(9.29861 -0.625682 0)
(9.29444 -0.662831 0)
(9.22691 -0.600054 0)
(9.22623 -0.615322 0)
(9.14246 -0.545297 0)
(9.14077 -0.550433 0)
(9.0472 -0.469597 0)
(9.03315 -0.470818 0)
(8.92797 -0.377406 0)
(8.90579 -0.385783 0)
(8.83699 -0.32565 0)
(8.82911 -0.364538 0)
(8.76368 -0.294275 0)
(8.73518 -0.319559 0)
(8.67539 -0.232394 0)
(8.61539 -0.255197 0)
(8.56095 -0.1692 0)
(8.50289 -0.215364 0)
(8.45969 -0.137876 0)
(8.40908 -0.202832 0)
(8.37601 -0.121443 0)
(8.33702 -0.190609 0)
(8.30246 -0.102932 0)
(8.27668 -0.169217 0)
(8.23244 -0.075069 0)
(8.20676 -0.141009 0)
(8.1728 -0.0307731 0)
(8.13425 -0.0983486 0)
(8.11457 0.0302021 0)
(8.06485 -0.0428543 0)
(8.04702 0.0926039 0)
(7.98252 0.017089 0)
(7.97457 0.156958 0)
(7.89751 0.0761578 0)
(7.8961 0.220952 0)
(7.81054 0.137217 0)
(7.80648 0.272174 0)
(7.72298 0.182566 0)
(7.72212 0.325462 0)
(7.65676 0.235091 0)
(7.64862 0.387986 0)
(7.63845 0.273064 0)
(7.63046 0.405542 0)
(7.63955 0.296169 0)
(7.61601 0.450424 0)
(7.63743 0.326368 0)
(7.60276 0.464832 0)
(7.66498 0.329543 0)
(7.58947 0.495903 0)
(7.70087 0.347208 0)
(7.57619 0.537962 0)
(7.74275 0.376607 0)
(7.59432 0.578638 0)
(7.77727 0.39848 0)
(7.6322 0.613645 0)
(7.80328 0.418263 0)