/*--------------------------------*- C++ -*----------------------------------*\
| =========                 |                                                 |
| \\      /  F ield         | OpenFOAM: The Open Source CFD Toolbox           |
|  \\    /   O peration     | Version:  2.4.0                                 |
|   \\  /    A nd           | Web:      www.OpenFOAM.org                      |
|    \\/     M anipulation  |                                                 |
\*---------------------------------------------------------------------------*/
FoamFile
{
    version     2.0;
    format      ascii;
    class       volSymmTensorField;
    location    "0.55";
    object      UPrime2Mean;
}
// * * * * * * * * * * * * * * * * * * * * * * * * * * * * * * * * * * * * * //

dimensions      [0 2 -2 0 0 0 0];

internalField   nonuniform List<symmTensor> 
8800
(
(0.0030171 0.000192304 0 0.000345317 0 0)
(0.0581285 -0.0022825 0 0.00012415 0 0)
(0.113796 -0.00019562 0 2.57943e-05 0 0)
(0.141765 0.000362832 0 7.09528e-06 0 0)
(0.162116 0.000298142 0 1.79002e-06 0 0)
(0.178175 0.000222933 0 1.18908e-06 0 0)
(0.18813 0.000167448 0 1.31126e-06 0 0)
(0.19697 8.85866e-05 0 1.34335e-06 0 0)
(0.201934 6.68703e-05 0 1.66333e-06 0 0)
(0.208128 1.67198e-05 0 1.57815e-06 0 0)
(0.210641 3.04736e-05 0 1.65025e-06 0 0)
(0.216315 -3.37001e-05 0 1.82026e-06 0 0)
(0.217743 -1.38921e-05 0 1.91351e-06 0 0)
(0.225237 -0.00010768 0 2.13617e-06 0 0)
(0.227198 -0.000191442 0 2.67298e-06 0 0)
(0.239659 -9.85166e-05 0 3.58999e-06 0 0)
(0.253421 -0.00164591 0 2.24454e-05 0 0)
(0.264307 0.00341202 0 0.000125225 0 0)
(0.413303 -0.0309228 0 0.00313055 0 0)
(0.429145 0.0484663 0 0.00957215 0 0)
(0.0158475 0.00525095 0 0.00205386 0 0)
(0.00137521 -0.00181956 0 0.00268939 0 0)
(0.0139169 -0.00370081 0 0.00107722 0 0)
(0.0284542 -0.00324562 0 0.000388256 0 0)
(0.0449261 -0.00285612 0 0.000195805 0 0)
(0.0678838 -0.00261213 0 0.000139927 0 0)
(0.0879518 -0.00210724 0 0.000103014 0 0)
(0.111079 -0.0017635 0 7.43533e-05 0 0)
(0.125688 -0.00130003 0 4.45819e-05 0 0)
(0.145444 -0.00125475 0 3.67406e-05 0 0)
(0.152563 -0.0009224 0 1.8759e-05 0 0)
(0.173932 -0.00119677 0 2.40649e-05 0 0)
(0.172877 -0.000928218 0 1.83256e-05 0 0)
(0.202937 -0.00179837 0 4.28783e-05 0 0)
(0.193328 -0.000957365 0 2.40304e-05 0 0)
(0.24174 -0.00487686 0 0.000150953 0 0)
(0.233035 0.000347863 0 8.905e-05 0 0)
(0.310113 -0.0193016 0 0.00139798 0 0)
(0.375629 -0.00823406 0 0.000871418 0 0)
(0.539928 -0.108855 0 0.0346801 0 0)
(0.0157135 0.00387217 0 0.00112024 0 0)
(0.00137291 0.00175329 0 0.00284983 0 0)
(0.00142709 0.000922717 0 0.00174702 0 0)
(0.00205686 0.00039031 0 0.000916959 0 0)
(0.00155371 -0.000130609 0 0.00068025 0 0)
(0.00301108 -0.00111563 0 0.000633999 0 0)
(0.00649819 -0.00160201 0 0.000544893 0 0)
(0.0154425 -0.00213477 0 0.000428902 0 0)
(0.0224591 -0.00195126 0 0.000301474 0 0)
(0.0361125 -0.00220196 0 0.000214379 0 0)
(0.0401799 -0.00181896 0 0.000117047 0 0)
(0.0597129 -0.00209755 0 0.000132433 0 0)
(0.0578093 -0.0019963 0 9.81034e-05 0 0)
(0.0833367 -0.00258709 0 0.000192079 0 0)
(0.0808815 -0.00268948 0 0.000188576 0 0)
(0.108948 -0.00452755 0 0.000394275 0 0)
(0.120546 -0.00585221 0 0.000597715 0 0)
(0.154077 -0.0112676 0 0.00126664 0 0)
(0.202419 -0.0287088 0 0.00606778 0 0)
(0.290421 -0.0728246 0 0.036892 0 0)
(0.0152331 0.00265806 0 0.000553353 0 0)
(0.00144021 0.00117238 0 0.0018766 0 0)
(0.00341635 0.00185123 0 0.00151507 0 0)
(0.00722847 0.00203096 0 0.000850037 0 0)
(0.0119117 0.00243164 0 0.000713306 0 0)
(0.0106626 0.00220132 0 0.000826229 0 0)
(0.0115024 0.00214854 0 0.000860408 0 0)
(0.00776 0.00124456 0 0.000832431 0 0)
(0.00812132 0.000975513 0 0.000667993 0 0)
(0.00569484 3.0853e-05 0 0.000544254 0 0)
(0.00565348 0.000185707 0 0.000310876 0 0)
(0.00618353 -0.00073173 0 0.000428639 0 0)
(0.00542863 -0.000316828 0 0.000223408 0 0)
(0.00857229 -0.00155796 0 0.000531051 0 0)
(0.00887087 -0.000747195 0 0.000307438 0 0)
(0.0140342 -0.00279861 0 0.000883754 0 0)
(0.0173768 -0.00229279 0 0.000643326 0 0)
(0.0284496 -0.00652258 0 0.00290408 0 0)
(0.0422213 -0.0133422 0 0.00713672 0 0)
(0.0684755 -0.031433 0 0.0339974 0 0)
(0.0164408 0.0020504 0 0.000324233 0 0)
(0.00143526 0.000569559 0 0.0012281 0 0)
(0.00313043 0.00136891 0 0.0011321 0 0)
(0.00688531 0.00161775 0 0.000643553 0 0)
(0.0143428 0.00213861 0 0.000496356 0 0)
(0.0154037 0.00236718 0 0.000633924 0 0)
(0.0218351 0.00292665 0 0.000735704 0 0)
(0.019495 0.00269452 0 0.000807501 0 0)
(0.025696 0.00274373 0 0.000685595 0 0)
(0.0219666 0.00211698 0 0.000716762 0 0)
(0.0278075 0.00220853 0 0.000366369 0 0)
(0.0230546 0.00186086 0 0.000642365 0 0)
(0.0282028 0.00178491 0 0.000306664 0 0)
(0.0223613 0.0020438 0 0.000805358 0 0)
(0.0260774 0.0017384 0 0.000449336 0 0)
(0.0194373 0.00259005 0 0.00136836 0 0)
(0.0205269 0.00260217 0 0.00102165 0 0)
(0.0137646 0.00427941 0 0.00480527 0 0)
(0.0136047 0.00542902 0 0.00813242 0 0)
(0.0149456 0.0078144 0 0.0463477 0 0)
(0.0170072 0.00146606 0 0.000198174 0 0)
(0.00156218 0.000347567 0 0.000869327 0 0)
(0.00245086 0.000884667 0 0.000838648 0 0)
(0.0057796 0.00120477 0 0.00051107 0 0)
(0.0119435 0.00144555 0 0.000332343 0 0)
(0.0140754 0.00171482 0 0.000435481 0 0)
(0.0195334 0.00220584 0 0.00054399 0 0)
(0.0198906 0.00237483 0 0.00064814 0 0)
(0.0257471 0.00226678 0 0.000557251 0 0)
(0.0263393 0.00217925 0 0.000607408 0 0)
(0.0324207 0.00203712 0 0.000348086 0 0)
(0.0333624 0.00234349 0 0.000548226 0 0)
(0.0395001 0.00206074 0 0.000359272 0 0)
(0.0399373 0.00305185 0 0.000647344 0 0)
(0.0449809 0.00295137 0 0.000531071 0 0)
(0.0444888 0.0045905 0 0.0010934 0 0)
(0.0467596 0.0063068 0 0.00141635 0 0)
(0.0447535 0.0103251 0 0.00421503 0 0)
(0.0449566 0.0181245 0 0.0110453 0 0)
(0.0489224 0.0313481 0 0.0357226 0 0)
(0.0162661 0.000939457 0 0.000132583 0 0)
(0.00182273 0.00023454 0 0.000627066 0 0)
(0.00221026 0.000438494 0 0.000584064 0 0)
(0.00553391 0.000914073 0 0.00042733 0 0)
(0.0100506 0.000915506 0 0.000251073 0 0)
(0.0135144 0.00123559 0 0.000344807 0 0)
(0.0164819 0.00144746 0 0.000430098 0 0)
(0.0189978 0.00185699 0 0.000499102 0 0)
(0.0219724 0.00148037 0 0.000366143 0 0)
(0.025217 0.0017931 0 0.000527441 0 0)
(0.0284042 0.00125704 0 0.000269951 0 0)
(0.0326618 0.00213645 0 0.000510699 0 0)
(0.0360776 0.00124625 0 0.000303153 0 0)
(0.0406066 0.00296344 0 0.000631822 0 0)
(0.0434429 0.00206616 0 0.000457655 0 0)
(0.0479756 0.00524512 0 0.00117515 0 0)
(0.0494721 0.00565002 0 0.00141288 0 0)
(0.0537143 0.0129577 0 0.00473329 0 0)
(0.0555939 0.0189803 0 0.0101776 0 0)
(0.0675473 0.0382151 0 0.0319676 0 0)
(0.016238 0.00062846 0 9.6514e-05 0 0)
(0.00200403 0.000146861 0 0.000419772 0 0)
(0.00218538 0.000217323 0 0.000405366 0 0)
(0.00514678 0.000548534 0 0.000308349 0 0)
(0.00924778 0.000545773 0 0.000209858 0 0)
(0.012567 0.00076698 0 0.000298681 0 0)
(0.0154836 0.000939437 0 0.000355997 0 0)
(0.0175185 0.00119148 0 0.000381817 0 0)
(0.0203807 0.000966273 0 0.000326392 0 0)
(0.0230418 0.00110413 0 0.000419319 0 0)
(0.0264783 0.000823674 0 0.000319238 0 0)
(0.029685 0.00128022 0 0.000427525 0 0)
(0.0337717 0.000930367 0 0.000350816 0 0)
(0.0373526 0.00185021 0 0.000503509 0 0)
(0.0414152 0.00186368 0 0.000454364 0 0)
(0.0446051 0.00392509 0 0.000970389 0 0)
(0.0483774 0.00559717 0 0.00141074 0 0)
(0.0520971 0.0116599 0 0.00425134 0 0)
(0.0584661 0.0188348 0 0.00935663 0 0)
(0.0711339 0.0370788 0 0.0276554 0 0)
(0.0157673 0.00027943 0 7.59231e-05 0 0)
(0.00161341 -3.69983e-05 0 0.000260269 0 0)
(0.00192906 -2.34895e-06 0 0.000262072 0 0)
(0.00458065 0.000222618 0 0.000212461 0 0)
(0.00823737 0.000210364 0 0.000183823 0 0)
(0.0117202 0.000327716 0 0.000249845 0 0)
(0.0140971 0.000431568 0 0.000285499 0 0)
(0.0162699 0.000620633 0 0.000288312 0 0)
(0.0183655 0.000434476 0 0.000251179 0 0)
(0.0213016 0.000580639 0 0.000324483 0 0)
(0.0240413 0.000363257 0 0.000276639 0 0)
(0.0278383 0.000802603 0 0.000340135 0 0)
(0.0310265 0.000556497 0 0.000273977 0 0)
(0.0352713 0.00134698 0 0.000385837 0 0)
(0.0381938 0.00150828 0 0.00039721 0 0)
(0.0427257 0.00323645 0 0.000844244 0 0)
(0.0458776 0.00530255 0 0.00130077 0 0)
(0.0520453 0.0102971 0 0.00369266 0 0)
(0.0590135 0.0187078 0 0.00833099 0 0)
(0.0748165 0.0338544 0 0.0228371 0 0)
(0.0155455 6.54505e-05 0 6.09442e-05 0 0)
(0.00135274 -9.40751e-05 0 0.000175927 0 0)
(0.00175782 -0.000100998 0 0.000191405 0 0)
(0.00411532 3.99972e-06 0 0.000149968 0 0)
(0.0075958 -5.68538e-06 0 0.000170979 0 0)
(0.0109582 -5.84341e-06 0 0.000242581 0 0)
(0.0133495 2.29828e-05 0 0.00025809 0 0)
(0.0153875 0.000133107 0 0.000230532 0 0)
(0.0174472 7.4583e-05 0 0.000229016 0 0)
(0.0201868 9.73737e-05 0 0.000285663 0 0)
(0.0230918 -5.31962e-05 0 0.000295697 0 0)
(0.026689 0.000226325 0 0.000304447 0 0)
(0.0299052 0.000131403 0 0.000290401 0 0)
(0.0338479 0.00075939 0 0.00033521 0 0)
(0.0372165 0.000970705 0 0.00036726 0 0)
(0.0418685 0.00277192 0 0.00064735 0 0)
(0.0459475 0.00440008 0 0.00119788 0 0)
(0.0528172 0.00998933 0 0.00305319 0 0)
(0.0612499 0.0168568 0 0.00731967 0 0)
(0.0792593 0.0325621 0 0.01853 0 0)
(0.0153306 -0.000182997 0 5.78157e-05 0 0)
(0.00105053 -0.000159315 0 0.000164412 0 0)
(0.00144115 -0.000167189 0 0.000194343 0 0)
(0.00368921 -0.000211743 0 0.000180071 0 0)
(0.00727595 -0.000224902 0 0.000200325 0 0)
(0.0106861 -0.000275559 0 0.000250996 0 0)
(0.0131978 -0.000340986 0 0.00026334 0 0)
(0.0151789 -0.000310686 0 0.000236742 0 0)
(0.0173943 -0.00031734 0 0.000221332 0 0)
(0.0200577 -0.000267571 0 0.000236648 0 0)
(0.0230451 -0.000351253 0 0.000270803 0 0)
(0.0264081 -0.000160729 0 0.000302015 0 0)
(0.0298376 -0.000160266 0 0.000277365 0 0)
(0.0336431 0.000296593 0 0.000298843 0 0)
(0.0373433 0.000711638 0 0.000295965 0 0)
(0.0420527 0.00206015 0 0.000572349 0 0)
(0.0471726 0.00409784 0 0.000934847 0 0)
(0.0547997 0.00870907 0 0.00262408 0 0)
(0.0656574 0.016009 0 0.00584638 0 0)
(0.083938 0.0295094 0 0.0150759 0 0)
(0.0151303 -0.00039246 0 5.24514e-05 0 0)
(0.000718739 -0.000162225 0 0.000199132 0 0)
(0.00116311 -0.00017125 0 0.0002038 0 0)
(0.00369778 -0.000358043 0 0.000156777 0 0)
(0.00741679 -0.00034991 0 0.000123558 0 0)
(0.0108011 -0.000490488 0 0.000177946 0 0)
(0.0131741 -0.000614723 0 0.000222443 0 0)
(0.0152847 -0.00074867 0 0.000239544 0 0)
(0.0174997 -0.000653304 0 0.000218989 0 0)
(0.0203771 -0.000678853 0 0.000212494 0 0)
(0.0233217 -0.000598182 0 0.000225112 0 0)
(0.0269159 -0.000534869 0 0.000230619 0 0)
(0.0303591 -0.000393325 0 0.000204621 0 0)
(0.0346348 -0.000214489 0 0.000207725 0 0)
(0.0385609 0.000298736 0 0.000233696 0 0)
(0.0438656 0.00141968 0 0.00037885 0 0)
(0.0496035 0.0034415 0 0.000764225 0 0)
(0.0587658 0.00756663 0 0.00194285 0 0)
(0.0709468 0.0144154 0 0.00470832 0 0)
(0.091159 0.0268029 0 0.0113805 0 0)
(0.0151338 -0.000684441 0 7.1737e-05 0 0)
(0.000645712 -0.000269576 0 0.000340067 0 0)
(0.00111973 -0.000325151 0 0.000320503 0 0)
(0.00381865 -0.000649121 0 0.000242791 0 0)
(0.00781331 -0.000673182 0 0.000159527 0 0)
(0.0113188 -0.000914013 0 0.000226654 0 0)
(0.0140369 -0.00112536 0 0.000285682 0 0)
(0.0162086 -0.00131528 0 0.000319033 0 0)
(0.0187535 -0.00116333 0 0.00028 0 0)
(0.0216602 -0.00120695 0 0.000270412 0 0)
(0.0249299 -0.00104488 0 0.000244045 0 0)
(0.028496 -0.00106187 0 0.000263422 0 0)
(0.032413 -0.000845735 0 0.000211418 0 0)
(0.0367826 -0.000828151 0 0.000216614 0 0)
(0.0413855 -0.000239285 0 0.000216441 0 0)
(0.0469746 0.000600378 0 0.000324817 0 0)
(0.0539327 0.0025392 0 0.000606709 0 0)
(0.063943 0.00608083 0 0.00145105 0 0)
(0.0784365 0.0123066 0 0.00360837 0 0)
(0.0998103 0.0234983 0 0.00856789 0 0)
(0.0153322 -0.00103398 0 0.000111919 0 0)
(0.000514134 -0.00035547 0 0.000565765 0 0)
(0.00118972 -0.000543618 0 0.000525518 0 0)
(0.00432357 -0.000950467 0 0.000361906 0 0)
(0.00900066 -0.00100519 0 0.000203298 0 0)
(0.0123022 -0.0013238 0 0.000278036 0 0)
(0.0156513 -0.00159119 0 0.000355292 0 0)
(0.0177529 -0.00190703 0 0.000440324 0 0)
(0.0210968 -0.00168458 0 0.000367851 0 0)
(0.0238507 -0.00178056 0 0.000363802 0 0)
(0.0278589 -0.00147732 0 0.000259577 0 0)
(0.0313312 -0.00168127 0 0.000310486 0 0)
(0.0359242 -0.00128313 0 0.000209457 0 0)
(0.0402468 -0.00159299 0 0.00025253 0 0)
(0.0457186 -0.00075595 0 0.000203031 0 0)
(0.0515803 -0.000443384 0 0.000306678 0 0)
(0.0595159 0.00168272 0 0.000446165 0 0)
(0.070337 0.00416528 0 0.00106271 0 0)
(0.0865118 0.0100148 0 0.00253759 0 0)
(0.109222 0.0191327 0 0.00621839 0 0)
(0.016063 -0.00152766 0 0.000191472 0 0)
(0.0005997 -0.00042738 0 0.000852045 0 0)
(0.00175756 -0.000964387 0 0.000817929 0 0)
(0.00507202 -0.00126744 0 0.000497642 0 0)
(0.0113329 -0.00154029 0 0.000325391 0 0)
(0.0134199 -0.00182495 0 0.000420516 0 0)
(0.0189344 -0.0022893 0 0.000527217 0 0)
(0.0192275 -0.00248191 0 0.000642823 0 0)
(0.0252259 -0.00244988 0 0.000556125 0 0)
(0.0255626 -0.00232552 0 0.000543451 0 0)
(0.0322726 -0.00211729 0 0.000367307 0 0)
(0.0327261 -0.00223622 0 0.000433183 0 0)
(0.0398785 -0.0018407 0 0.000268688 0 0)
(0.0405052 -0.0022452 0 0.000353065 0 0)
(0.0482236 -0.00127939 0 0.000240475 0 0)
(0.0499112 -0.0013743 0 0.000347385 0 0)
(0.0593935 0.000842096 0 0.000369833 0 0)
(0.0655002 0.00213343 0 0.000750143 0 0)
(0.0817463 0.00741212 0 0.00173166 0 0)
(0.099438 0.0133937 0 0.00395718 0 0)
(0.016079 -0.00211609 0 0.000332085 0 0)
(0.000935197 -0.0006252 0 0.00122874 0 0)
(0.0026798 -0.00148797 0 0.00115815 0 0)
(0.00628103 -0.00167386 0 0.000647075 0 0)
(0.0139495 -0.00226946 0 0.000516194 0 0)
(0.0147558 -0.00244139 0 0.000634818 0 0)
(0.0214178 -0.00307261 0 0.000755684 0 0)
(0.0187646 -0.00276091 0 0.000825433 0 0)
(0.0252595 -0.00293906 0 0.000729738 0 0)
(0.021179 -0.00224185 0 0.000644342 0 0)
(0.027516 -0.00232448 0 0.000450406 0 0)
(0.0225748 -0.00186271 0 0.000483496 0 0)
(0.0284391 -0.00179378 0 0.000298632 0 0)
(0.022999 -0.00156623 0 0.000389647 0 0)
(0.0284992 -0.00108089 0 0.000233634 0 0)
(0.023838 -0.00083521 0 0.000357791 0 0)
(0.0298866 0.000520531 0 0.00027998 0 0)
(0.0286931 0.00128268 0 0.000559036 0 0)
(0.0390227 0.00459779 0 0.00111904 0 0)
(0.0477161 0.00752062 0 0.00235076 0 0)
(0.0151264 -0.00268374 0 0.000554997 0 0)
(0.0012239 -0.00117324 0 0.00187432 0 0)
(0.00317875 -0.00191119 0 0.00152702 0 0)
(0.00675616 -0.00203145 0 0.000857898 0 0)
(0.0116339 -0.00250327 0 0.000730511 0 0)
(0.00998978 -0.00220695 0 0.000836166 0 0)
(0.0111921 -0.00222537 0 0.000883459 0 0)
(0.00699365 -0.00122279 0 0.000835318 0 0)
(0.00758283 -0.00111257 0 0.000671107 0 0)
(0.0048879 -0.000122214 0 0.000521763 0 0)
(0.00503692 -0.000277927 0 0.000348613 0 0)
(0.00525573 0.000491496 0 0.000339879 0 0)
(0.00451973 0.000190291 0 0.000207537 0 0)
(0.00771607 0.000907032 0 0.000260018 0 0)
(0.0064397 0.000404581 0 0.000147245 0 0)
(0.0117902 0.00119761 0 0.000232378 0 0)
(0.010706 0.000533214 0 0.000192879 0 0)
(0.0171853 0.00165894 0 0.000329679 0 0)
(0.0189435 0.00159609 0 0.000784404 0 0)
(0.0274654 0.00378203 0 0.00109266 0 0)
(0.015695 -0.00388262 0 0.00112219 0 0)
(0.00132798 -0.00174642 0 0.00284399 0 0)
(0.00132758 -0.000937736 0 0.00175007 0 0)
(0.0019198 -0.000380528 0 0.000915062 0 0)
(0.0013609 0.000108481 0 0.000684256 0 0)
(0.0028471 0.00111944 0 0.000633246 0 0)
(0.00607304 0.00157365 0 0.000549741 0 0)
(0.0154151 0.00215936 0 0.000434767 0 0)
(0.0213474 0.00190922 0 0.000296126 0 0)
(0.035866 0.00211784 0 0.000202473 0 0)
(0.0392241 0.00165843 0 0.000119134 0 0)
(0.0573092 0.00191998 0 0.000112582 0 0)
(0.0561458 0.00138355 0 7.1541e-05 0 0)
(0.0770172 0.00179025 0 8.73138e-05 0 0)
(0.0718597 0.000867373 0 5.42067e-05 0 0)
(0.0927141 0.00151859 0 8.89536e-05 0 0)
(0.0850384 -0.00027504 0 9.03571e-05 0 0)
(0.100194 0.00119181 0 0.000166229 0 0)
(0.0938889 -0.00144415 0 0.000365351 0 0)
(0.097386 0.00251083 0 0.000728953 0 0)
(0.0158435 -0.0052523 0 0.00205435 0 0)
(0.00138109 0.0018225 0 0.00268753 0 0)
(0.0138771 0.00369859 0 0.00107748 0 0)
(0.0284756 0.00324729 0 0.000387773 0 0)
(0.0447855 0.00285558 0 0.000196212 0 0)
(0.0679932 0.00261112 0 0.000139915 0 0)
(0.0876107 0.00210328 0 0.000103156 0 0)
(0.111379 0.00175913 0 7.34634e-05 0 0)
(0.1248 0.00129643 0 4.53962e-05 0 0)
(0.145456 0.00117468 0 3.2355e-05 0 0)
(0.151604 0.000872811 0 1.99351e-05 0 0)
(0.171161 0.000954931 0 2.1812e-05 0 0)
(0.17137 0.000652132 0 1.75244e-05 0 0)
(0.191214 0.000826346 0 1.94037e-05 0 0)
(0.186445 0.000285455 0 1.58238e-05 0 0)
(0.204673 0.000493876 0 2.11983e-05 0 0)
(0.195262 -0.000647894 0 3.00903e-05 0 0)
(0.204639 0.000121703 0 4.87047e-05 0 0)
(0.196376 -0.00217525 0 0.000124916 0 0)
(0.182648 0.00109503 0 0.000446581 0 0)
(0.00301735 -0.000191966 0 0.000345373 0 0)
(0.0581387 0.00228215 0 0.000124115 0 0)
(0.113783 0.000196607 0 2.57504e-05 0 0)
(0.141773 -0.000363432 0 7.0692e-06 0 0)
(0.162073 -0.000296996 0 1.75601e-06 0 0)
(0.178229 -0.000224176 0 1.19858e-06 0 0)
(0.188023 -0.000167848 0 1.34035e-06 0 0)
(0.197047 -9.01392e-05 0 1.37889e-06 0 0)
(0.201639 -7.43718e-05 0 1.45594e-06 0 0)
(0.208042 -2.55077e-05 0 1.40155e-06 0 0)
(0.209917 -4.56748e-05 0 1.60665e-06 0 0)
(0.215248 -2.93256e-06 0 1.54433e-06 0 0)
(0.215386 -4.85991e-05 0 1.40606e-06 0 0)
(0.220296 -6.43751e-06 0 1.10754e-06 0 0)
(0.218581 -0.000104969 0 1.12991e-06 0 0)
(0.222025 -8.37513e-05 0 1.03026e-06 0 0)
(0.217003 -0.00027124 0 1.64572e-06 0 0)
(0.215629 -0.000222465 0 2.59732e-06 0 0)
(0.2091 -0.00076968 0 8.14811e-06 0 0)
(0.189407 0.00102086 0 6.94616e-05 0 0)
(0.8471 -0.43261 0 0.266494 0 0)
(0.957902 -0.514981 0 0.376112 0 0)
(0.962839 -0.495606 0 0.449703 0 0)
(0.968089 -0.435654 0 0.501369 0 0)
(0.997188 -0.3648 0 0.531312 0 0)
(1.08999 -0.316111 0 0.552792 0 0)
(1.22331 -0.302672 0 0.5734 0 0)
(1.42236 -0.327361 0 0.602766 0 0)
(1.6179 -0.372541 0 0.637455 0 0)
(1.81704 -0.420153 0 0.671513 0 0)
(1.96886 -0.463895 0 0.709145 0 0)
(2.12588 -0.502784 0 0.755203 0 0)
(2.24894 -0.530442 0 0.804744 0 0)
(2.39227 -0.562719 0 0.847573 0 0)
(2.53262 -0.598127 0 0.87617 0 0)
(2.68173 -0.648437 0 0.896046 0 0)
(2.8163 -0.715376 0 0.924972 0 0)
(2.96328 -0.795629 0 0.967586 0 0)
(3.06997 -0.870942 0 1.03226 0 0)
(3.2416 -0.951628 0 1.11168 0 0)
(3.41506 -1.01257 0 1.17755 0 0)
(3.63797 -1.09498 0 1.24319 0 0)
(3.85702 -1.17987 0 1.3079 0 0)
(4.09217 -1.2723 0 1.37475 0 0)
(4.3347 -1.36862 0 1.44103 0 0)
(4.58258 -1.45975 0 1.51339 0 0)
(4.84428 -1.56106 0 1.5853 0 0)
(5.11475 -1.67201 0 1.65785 0 0)
(5.38841 -1.79696 0 1.7337 0 0)
(5.66879 -1.92976 0 1.81731 0 0)
(5.93315 -2.06416 0 1.90711 0 0)
(6.23243 -2.19981 0 1.99492 0 0)
(6.49093 -2.33512 0 2.08343 0 0)
(6.8501 -2.48633 0 2.16566 0 0)
(7.10674 -2.63672 0 2.25204 0 0)
(7.51336 -2.81552 0 2.32967 0 0)
(7.72027 -2.96391 0 2.40594 0 0)
(8.10701 -3.1416 0 2.47182 0 0)
(8.23118 -3.26605 0 2.53491 0 0)
(8.55081 -3.41085 0 2.59233 0 0)
(8.58806 -3.48926 0 2.6461 0 0)
(8.8159 -3.58347 0 2.69707 0 0)
(8.80147 -3.62226 0 2.73773 0 0)
(8.97417 -3.68341 0 2.78556 0 0)
(8.96561 -3.71949 0 2.82739 0 0)
(9.13094 -3.77913 0 2.8849 0 0)
(9.14345 -3.82728 0 2.9412 0 0)
(9.33531 -3.90311 0 3.01884 0 0)
(9.37317 -3.96604 0 3.10105 0 0)
(9.59727 -4.06198 0 3.20717 0 0)
(9.63243 -4.13115 0 3.3168 0 0)
(9.85285 -4.22153 0 3.44291 0 0)
(9.82252 -4.25623 0 3.55994 0 0)
(9.99967 -4.2987 0 3.67475 0 0)
(9.85951 -4.25522 0 3.75873 0 0)
(9.96927 -4.22726 0 3.83304 0 0)
(9.7399 -4.10271 0 3.852 0 0)
(9.80181 -4.02284 0 3.88005 0 0)
(9.56783 -3.88459 0 3.86076 0 0)
(9.6365 -3.80838 0 3.87513 0 0)
(9.44842 -3.72272 0 3.87595 0 0)
(9.55243 -3.69685 0 3.92104 0 0)
(9.35911 -3.65635 0 3.98186 0 0)
(9.42936 -3.67132 0 4.08226 0 0)
(9.12881 -3.58027 0 4.16945 0 0)
(9.08697 -3.55927 0 4.26875 0 0)
(8.77501 -3.36727 0 4.27159 0 0)
(8.67036 -3.22979 0 4.26135 0 0)
(8.41927 -3.03815 0 4.22517 0 0)
(8.36803 -2.89991 0 4.26247 0 0)
(8.17666 -2.75374 0 4.32024 0 0)
(8.18269 -2.60875 0 4.36921 0 0)
(8.06084 -2.45739 0 4.41637 0 0)
(8.16014 -2.36456 0 4.45926 0 0)
(8.08079 -2.23645 0 4.57427 0 0)
(8.23146 -2.19586 0 4.70791 0 0)
(8.23357 -2.08753 0 4.91198 0 0)
(8.33338 -2.0588 0 5.13545 0 0)
(8.35498 -1.955 0 5.40285 0 0)
(8.32669 -1.87057 0 5.66564 0 0)
(8.29116 -1.74501 0 5.91982 0 0)
(8.15702 -1.62105 0 6.1105 0 0)
(8.16602 -1.51488 0 6.27936 0 0)
(7.98512 -1.4063 0 6.40922 0 0)
(8.05017 -1.33024 0 6.48458 0 0)
(7.86967 -1.21011 0 6.58245 0 0)
(7.97697 -1.14169 0 6.65769 0 0)
(7.80151 -1.02066 0 6.81847 0 0)
(7.95777 -0.940702 0 6.95257 0 0)
(7.83599 -0.810609 0 7.15458 0 0)
(8.0285 -0.760001 0 7.28482 0 0)
(7.97314 -0.687751 0 7.43366 0 0)
(8.23704 -0.646777 0 7.53871 0 0)
(8.24678 -0.585891 0 7.66828 0 0)
(8.49855 -0.538062 0 7.77565 0 0)
(8.47849 -0.461534 0 7.92102 0 0)
(8.70808 -0.413619 0 8.06592 0 0)
(8.67087 -0.30078 0 8.26335 0 0)
(8.76013 -0.245298 0 8.47196 0 0)
(8.60356 -0.118949 0 8.73386 0 0)
(8.57587 -0.0118905 0 9.0278 0 0)
(8.36118 0.0213933 0 9.33713 0 0)
(8.24021 0.134266 0 9.74513 0 0)
(8.07952 0.0834791 0 10.1162 0 0)
(7.96428 0.0941719 0 10.381 0 0)
(7.89765 -0.0362522 0 10.665 0 0)
(7.80041 -0.00551524 0 10.8707 0 0)
(7.77075 -0.162543 0 11.0855 0 0)
(7.6595 -0.113837 0 11.2093 0 0)
(7.64754 -0.243411 0 11.3567 0 0)
(7.51323 -0.212155 0 11.3682 0 0)
(7.49688 -0.34475 0 11.4312 0 0)
(7.40058 -0.324035 0 11.3857 0 0)
(7.38302 -0.439267 0 11.4422 0 0)
(7.38252 -0.383076 0 11.4421 0 0)
(7.27183 -0.520727 0 11.5624 0 0)
(7.35985 -0.440972 0 11.6321 0 0)
(7.24747 -0.577905 0 11.7608 0 0)
(7.52013 -0.492654 0 11.8138 0 0)
(7.52994 -0.59814 0 11.9042 0 0)
(7.93791 -0.546545 0 11.997 0 0)
(7.91788 -0.631703 0 12.1405 0 0)
(8.27318 -0.531588 0 12.3418 0 0)
(8.09757 -0.657616 0 12.4778 0 0)
(8.41059 -0.52236 0 12.6397 0 0)
(8.09742 -0.69624 0 12.6973 0 0)
(8.38775 -0.562156 0 12.8338 0 0)
(8.02151 -0.771109 0 12.9149 0 0)
(8.36757 -0.615202 0 13.0221 0 0)
(7.98054 -0.853058 0 13.0324 0 0)
(8.40901 -0.663993 0 13.1442 0 0)
(7.9847 -0.856015 0 13.1429 0 0)
(8.4541 -0.640114 0 13.1883 0 0)
(7.98721 -0.775692 0 13.2098 0 0)
(8.43158 -0.578006 0 13.1895 0 0)
(7.90081 -0.62297 0 13.2795 0 0)
(8.32545 -0.396443 0 13.2437 0 0)
(7.74002 -0.390894 0 13.4587 0 0)
(8.15123 -0.122169 0 13.4802 0 0)
(7.47309 -0.0629398 0 13.6906 0 0)
(7.91655 0.125525 0 13.6911 0 0)
(7.17381 0.255887 0 13.7411 0 0)
(7.73774 0.453418 0 13.7217 0 0)
(6.90062 0.601975 0 13.774 0 0)
(7.51424 0.819499 0 13.9257 0 0)
(6.59745 0.917867 0 13.9464 0 0)
(7.28347 1.142 0 13.9992 0 0)
(6.42127 1.24377 0 14.0315 0 0)
(7.09178 1.46148 0 14.141 0 0)
(6.21709 1.4255 0 14.1087 0 0)
(6.85022 1.73577 0 14.352 0 0)
(6.02475 1.5449 0 14.2171 0 0)
(6.59037 1.92699 0 14.3269 0 0)
(5.90026 1.66493 0 14.209 0 0)
(6.37395 2.06295 0 14.3576 0 0)
(5.84612 1.72151 0 14.1246 0 0)
(6.19445 2.11217 0 14.2542 0 0)
(5.85895 1.85336 0 14.0955 0 0)
(6.05464 2.07988 0 14.1414 0 0)
(5.71446 1.8707 0 14.0913 0 0)
(5.76669 2.00045 0 14.2993 0 0)
(5.46473 1.70135 0 14.2951 0 0)
(5.46348 1.79488 0 14.3986 0 0)
(5.23859 1.50327 0 14.3465 0 0)
(5.18425 1.48447 0 14.3118 0 0)
(5.05191 1.26243 0 14.255 0 0)
(4.88562 1.09205 0 14.2313 0 0)
(4.88107 0.835959 0 14.0594 0 0)
(4.56092 0.65316 0 13.8965 0 0)
(4.69351 0.346282 0 13.5853 0 0)
(4.29079 0.211354 0 13.2772 0 0)
(4.47885 -0.253355 0 12.7704 0 0)
(4.03009 -0.253417 0 12.2589 0 0)
(4.31184 -0.815378 0 11.8463 0 0)
(3.95543 -0.6322 0 11.2157 0 0)
(4.23952 -1.09519 0 10.9568 0 0)
(4.00752 -0.894216 0 10.2819 0 0)
(4.19253 -1.30501 0 9.97988 0 0)
(4.00145 -1.03918 0 9.52193 0 0)
(4.21464 -1.3665 0 9.0204 0 0)
(4.11097 -1.06756 0 8.87741 0 0)
(4.16088 -1.22622 0 8.15702 0 0)
(4.08155 -1.10724 0 8.24532 0 0)
(4.10527 -0.831345 0 7.43501 0 0)
(4.00872 -0.977016 0 7.84555 0 0)
(4.11684 -0.349547 0 6.91458 0 0)
(3.90648 -0.763402 0 7.68589 0 0)
(3.96792 0.0187851 0 6.55422 0 0)
(3.65443 -0.594405 0 7.74588 0 0)
(3.76765 0.443021 0 6.45982 0 0)
(3.27147 -0.407452 0 8.08048 0 0)
(3.45252 0.93836 0 6.60224 0 0)
(2.82595 -0.227191 0 8.777 0 0)
(2.91749 1.40556 0 7.06158 0 0)
(2.42151 0.102763 0 10.1046 0 0)
(2.59293 2.25222 0 8.52138 0 0)
(2.03041 0.455965 0 12.2612 0 0)
(2.24897 3.43257 0 11.5303 0 0)
(2.13603 2.42217 0 17.6991 0 0)
(0.663249 0.938486 0 20.0362 0 0)
(0.711148 -0.35756 0 0.30273 0 0)
(0.715523 -0.378724 0 0.394206 0 0)
(0.685146 -0.349199 0 0.416852 0 0)
(0.663387 -0.310433 0 0.426862 0 0)
(0.659854 -0.27568 0 0.425446 0 0)
(0.686046 -0.265292 0 0.422757 0 0)
(0.739162 -0.283211 0 0.432285 0 0)
(0.817751 -0.319445 0 0.455958 0 0)
(0.902551 -0.359313 0 0.484112 0 0)
(0.982638 -0.39506 0 0.511373 0 0)
(1.04736 -0.427902 0 0.542206 0 0)
(1.11181 -0.458536 0 0.579672 0 0)
(1.17028 -0.488347 0 0.620123 0 0)
(1.2511 -0.518378 0 0.658639 0 0)
(1.33436 -0.553562 0 0.694078 0 0)
(1.45824 -0.599412 0 0.728273 0 0)
(1.57836 -0.660464 0 0.769108 0 0)
(1.74746 -0.740834 0 0.817314 0 0)
(1.88557 -0.81847 0 0.871533 0 0)
(2.06145 -0.906624 0 0.933355 0 0)
(2.19813 -0.976928 0 0.994732 0 0)
(2.37704 -1.05737 0 1.05798 0 0)
(2.52841 -1.12734 0 1.12194 0 0)
(2.72441 -1.21165 0 1.18917 0 0)
(2.8905 -1.28473 0 1.25916 0 0)
(3.11297 -1.37527 0 1.33716 0 0)
(3.31 -1.45545 0 1.41984 0 0)
(3.56981 -1.56 0 1.50696 0 0)
(3.81521 -1.66404 0 1.59578 0 0)
(4.09716 -1.78945 0 1.68873 0 0)
(4.3735 -1.91828 0 1.78128 0 0)
(4.64618 -2.05199 0 1.87291 0 0)
(4.91899 -2.18921 0 1.96161 0 0)
(5.16468 -2.31849 0 2.04592 0 0)
(5.40561 -2.45311 0 2.12758 0 0)
(5.61775 -2.57395 0 2.20393 0 0)
(5.78829 -2.68863 0 2.27704 0 0)
(5.95606 -2.78759 0 2.33988 0 0)
(6.03354 -2.86856 0 2.40005 0 0)
(6.17167 -2.94551 0 2.45045 0 0)
(6.17585 -2.98758 0 2.49611 0 0)
(6.30835 -3.04527 0 2.53876 0 0)
(6.28985 -3.06491 0 2.57743 0 0)
(6.44767 -3.12192 0 2.62515 0 0)
(6.45953 -3.14902 0 2.67277 0 0)
(6.65143 -3.22379 0 2.74322 0 0)
(6.70821 -3.27179 0 2.81466 0 0)
(6.91017 -3.36176 0 2.91215 0 0)
(6.9923 -3.41957 0 3.00805 0 0)
(7.15648 -3.50131 0 3.12529 0 0)
(7.22216 -3.54231 0 3.23224 0 0)
(7.30682 -3.58144 0 3.34674 0 0)
(7.31126 -3.5712 0 3.44256 0 0)
(7.31229 -3.54556 0 3.52713 0 0)
(7.24225 -3.46431 0 3.5917 0 0)
(7.20766 -3.38843 0 3.63625 0 0)
(7.10601 -3.25373 0 3.66394 0 0)
(7.1026 -3.17501 0 3.69126 0 0)
(7.03638 -3.04425 0 3.71345 0 0)
(7.09621 -3.01467 0 3.77032 0 0)
(7.09548 -2.93756 0 3.81729 0 0)
(7.19127 -2.94806 0 3.90252 0 0)
(7.21261 -2.91218 0 3.96287 0 0)
(7.28694 -2.89248 0 4.03878 0 0)
(7.23633 -2.82148 0 4.07974 0 0)
(7.22601 -2.71675 0 4.09238 0 0)
(7.1018 -2.57025 0 4.07925 0 0)
(7.07516 -2.43798 0 4.06985 0 0)
(6.97737 -2.29735 0 4.09176 0 0)
(6.99479 -2.20635 0 4.15814 0 0)
(6.97083 -2.09796 0 4.2253 0 0)
(7.08186 -2.01285 0 4.32558 0 0)
(7.10233 -1.92395 0 4.39731 0 0)
(7.30443 -1.87168 0 4.50227 0 0)
(7.35995 -1.80822 0 4.63373 0 0)
(7.59915 -1.8057 0 4.80678 0 0)
(7.67021 -1.73503 0 5.03728 0 0)
(7.82077 -1.70872 0 5.27166 0 0)
(7.85395 -1.57599 0 5.52553 0 0)
(7.84186 -1.48633 0 5.77105 0 0)
(7.80456 -1.33993 0 5.99092 0 0)
(7.76348 -1.25866 0 6.17936 0 0)
(7.74332 -1.14644 0 6.34353 0 0)
(7.71435 -1.09946 0 6.44633 0 0)
(7.76761 -1.02744 0 6.51945 0 0)
(7.76979 -0.965565 0 6.63095 0 0)
(7.85931 -0.929732 0 6.73183 0 0)
(7.90054 -0.847006 0 6.90384 0 0)
(8.07046 -0.801697 0 7.04555 0 0)
(8.12857 -0.712073 0 7.25362 0 0)
(8.33734 -0.703694 0 7.37046 0 0)
(8.44932 -0.671165 0 7.50856 0 0)
(8.65554 -0.62836 0 7.62403 0 0)
(8.81197 -0.589252 0 7.76851 0 0)
(8.95775 -0.538974 0 7.87748 0 0)
(9.12001 -0.508755 0 8.02936 0 0)
(9.21487 -0.450216 0 8.19267 0 0)
(9.36141 -0.38495 0 8.40897 0 0)
(9.29099 -0.317259 0 8.63411 0 0)
(9.35255 -0.215028 0 8.92203 0 0)
(9.14982 -0.11153 0 9.23228 0 0)
(9.12843 -0.0975686 0 9.59822 0 0)
(8.79782 0.0371236 0 10.0331 0 0)
(8.87997 -0.0540758 0 10.3549 0 0)
(8.4461 0.0163138 0 10.6076 0 0)
(8.66445 -0.145554 0 10.8207 0 0)
(8.14535 -0.0142279 0 11.0013 0 0)
(8.50476 -0.191152 0 11.1459 0 0)
(7.91086 -0.0097893 0 11.263 0 0)
(8.4425 -0.170009 0 11.3585 0 0)
(7.76045 0.00355739 0 11.3825 0 0)
(8.48468 -0.153224 0 11.4465 0 0)
(7.76436 -0.0224269 0 11.4128 0 0)
(8.59901 -0.176209 0 11.5363 0 0)
(7.74564 -0.133298 0 11.57 0 0)
(8.55024 -0.340578 0 11.7138 0 0)
(7.80683 -0.290822 0 11.7501 0 0)
(8.70625 -0.509998 0 11.8384 0 0)
(8.15452 -0.384726 0 11.898 0 0)
(9.13548 -0.624893 0 11.9974 0 0)
(8.59416 -0.484655 0 12.1416 0 0)
(9.4899 -0.655682 0 12.3037 0 0)
(8.82032 -0.479486 0 12.536 0 0)
(9.63569 -0.614936 0 12.7349 0 0)
(8.79894 -0.392373 0 12.9569 0 0)
(9.55827 -0.602353 0 13.0637 0 0)
(8.61607 -0.363112 0 13.2241 0 0)
(9.36747 -0.656924 0 13.2517 0 0)
(8.42117 -0.427267 0 13.3944 0 0)
(9.17292 -0.710416 0 13.3715 0 0)
(8.2296 -0.525317 0 13.478 0 0)
(8.98683 -0.702841 0 13.4438 0 0)
(8.06778 -0.519088 0 13.4602 0 0)
(8.8047 -0.58728 0 13.4856 0 0)
(7.85573 -0.434632 0 13.4662 0 0)
(8.62883 -0.41522 0 13.5105 0 0)
(7.61062 -0.247002 0 13.4183 0 0)
(8.43971 -0.176023 0 13.5948 0 0)
(7.38564 0.0537408 0 13.6179 0 0)
(8.16528 0.137266 0 13.8409 0 0)
(7.14376 0.40354 0 13.8497 0 0)
(7.87735 0.441907 0 13.8766 0 0)
(6.94997 0.68948 0 13.8418 0 0)
(7.64666 0.815968 0 13.9499 0 0)
(6.69168 0.936835 0 14.0952 0 0)
(7.4737 1.15003 0 14.1341 0 0)
(6.47447 1.1443 0 14.1737 0 0)
(7.35865 1.39633 0 14.2414 0 0)
(6.21589 1.41005 0 14.3992 0 0)
(7.11109 1.52552 0 14.3803 0 0)
(6.04002 1.70052 0 14.5788 0 0)
(6.90347 1.62478 0 14.3768 0 0)
(5.84689 1.88257 0 14.5375 0 0)
(6.80304 1.75333 0 14.4239 0 0)
(5.72805 2.03352 0 14.5363 0 0)
(6.76071 1.75735 0 14.2396 0 0)
(5.65682 2.11042 0 14.4017 0 0)
(6.68266 1.82207 0 14.2577 0 0)
(5.51774 2.08881 0 14.3674 0 0)
(6.39258 1.81563 0 14.4569 0 0)
(5.25903 2.01928 0 14.6262 0 0)
(6.06199 1.71027 0 14.5509 0 0)
(5.00748 1.83959 0 14.6639 0 0)
(5.81988 1.65935 0 14.4574 0 0)
(4.69376 1.63031 0 14.6287 0 0)
(5.50467 1.38787 0 14.4127 0 0)
(4.49307 1.36287 0 14.5856 0 0)
(5.19546 1.04685 0 14.3611 0 0)
(4.39997 1.13443 0 14.2536 0 0)
(4.8866 0.566843 0 14.0099 0 0)
(4.27225 0.78789 0 13.6435 0 0)
(4.57401 0.160076 0 13.3541 0 0)
(4.16696 0.285751 0 12.7091 0 0)
(4.24161 -0.40675 0 12.388 0 0)
(4.21829 -0.249486 0 11.6245 0 0)
(3.98701 -1.01079 0 11.2419 0 0)
(4.38934 -0.586112 0 10.7573 0 0)
(3.84682 -1.43702 0 10.2944 0 0)
(4.46294 -0.961842 0 9.95401 0 0)
(3.73957 -1.55553 0 9.39094 0 0)