/*--------------------------------*- C++ -*----------------------------------*\
| =========                 |                                                 |
| \\      /  F ield         | OpenFOAM: The Open Source CFD Toolbox           |
|  \\    /   O peration     | Version:  2.4.0                                 |
|   \\  /    A nd           | Web:      www.OpenFOAM.org                      |
|    \\/     M anipulation  |                                                 |
\*---------------------------------------------------------------------------*/
FoamFile
{
    version     2.0;
    format      ascii;
    class       volScalarField;
    location    "1.78";
    object      k;
}
// * * * * * * * * * * * * * * * * * * * * * * * * * * * * * * * * * * * * * //

dimensions      [0 2 -2 0 0 0 0];

internalField   nonuniform List<scalar> 
8800
(
8.11722
10.2698
8.78525
6.84478
5.67525
5.01396
4.48708
4.1798
3.87436
3.71381
3.49109
3.42078
3.24583
3.20739
3.05494
3.0306
2.89796
2.87534
2.82007
2.65681
1.39457
4.3592
5.30937
5.29636
5.10669
4.862
4.5269
4.33257
4.07398
3.93195
3.71677
3.64194
3.4709
3.41837
3.29043
3.24871
3.14042
3.10423
3.00985
3.00484
0.0835459
0.747802
1.53461
1.97033
2.25002
2.46418
2.55256
2.62466
2.61132
2.60659
2.57891
2.55716
2.51038
2.48543
2.45349
2.41601
2.393
2.35698
2.30854
2.28683
0.00329379
0.0714402
0.234147
0.43923
0.585435
0.70369
0.830291
0.946598
1.01562
1.08827
1.17108
1.20167
1.26608
1.29201
1.34933
1.36333
1.40691
1.40828
1.42113
1.41026
0.000119853
0.00509471
0.0202517
0.0523256
0.0959537
0.119285
0.163609
0.209149
0.242948
0.275525
0.328927
0.349138
0.393773
0.416888
0.467221
0.488986
0.539754
0.556465
0.591382
0.604901
2.59107e-05
0.00032434
0.00135405
0.00372771
0.0093386
0.012352
0.0180192
0.0277973
0.0328469
0.0402252
0.0551252
0.0610789
0.0728637
0.0829847
0.0946728
0.108635
0.121304
0.137467
0.145729
0.162416
2.22489e-05
4.44365e-05
0.000111278
0.000275179
0.000695911
0.000922167
0.00127942
0.00226337
0.00266005
0.00359822
0.00462058
0.00610923
0.0070896
0.00945947
0.0107341
0.0138334
0.0156027
0.0199225
0.0217555
0.0272435
2.11321e-05
3.0581e-05
4.17987e-05
6.89367e-05
0.000111551
0.000125656
0.000148306
0.000212722
0.000221812
0.000277722
0.000318985
0.000437855
0.00048589
0.000671207
0.000732073
0.00102701
0.00116984
0.0017128
0.00193474
0.00297995
2.08727e-05
3.12435e-05
3.80856e-05
5.48866e-05
7.45509e-05
8.02346e-05
8.03741e-05
8.59917e-05
8.59378e-05
9.05489e-05
9.36816e-05
9.98797e-05
0.000100202
0.000104624
0.000105328
0.000121722
0.000133201
0.000171808
0.000186869
0.000255243
2.06e-05
3.01341e-05
4.82193e-05
5.06804e-05
5.48527e-05
6.44849e-05
7.02842e-05
7.52678e-05
7.67579e-05
7.59619e-05
7.54262e-05
7.64382e-05
7.69446e-05
7.74375e-05
7.69843e-05
7.71532e-05
7.70426e-05
7.81662e-05
8.19329e-05
9.16122e-05
2.04875e-05
3.03132e-05
4.9261e-05
4.94883e-05
5.04086e-05
6.4459e-05
7.27943e-05
7.60813e-05
7.59433e-05
7.72961e-05
7.83351e-05
7.85828e-05
7.77553e-05
7.56895e-05
7.44322e-05
7.45608e-05
7.4687e-05
7.79186e-05
8.44226e-05
9.27874e-05
2.07166e-05
3.17139e-05
4.37086e-05
5.00101e-05
6.79326e-05
7.90154e-05
8.01503e-05
8.08039e-05
8.2036e-05
8.71839e-05
9.03429e-05
9.67793e-05
9.91304e-05
0.0001055
0.000109666
0.0001149
0.000121261
0.00013758
0.000169604
0.000230153
2.10031e-05
2.97763e-05
4.79078e-05
8.90193e-05
9.67744e-05
0.000111175
0.000121179
0.000162824
0.000205575
0.000302252
0.000356612
0.00048393
0.00054657
0.000680668
0.000749463
0.000933197
0.00110072
0.00154693
0.00188817
0.00271822
2.15464e-05
4.32731e-05
0.000194741
0.000401536
0.000493437
0.000808703
0.0011225
0.00201869
0.00266796
0.00408626
0.00488833
0.00673711
0.0076433
0.00969107
0.0107443
0.0134665
0.0154227
0.0203275
0.0233135
0.0312019
2.49105e-05
0.000307392
0.00228656
0.00489811
0.00674978
0.0124771
0.0167751
0.0270635
0.0331642
0.0456913
0.0519023
0.0655299
0.0719589
0.0864974
0.0932706
0.109969
0.119878
0.144371
0.157316
0.192605
0.000122741
0.0049223
0.0289949
0.0546873
0.0770115
0.129347
0.156963
0.209456
0.241053
0.291056
0.315291
0.363008
0.384447
0.432378
0.452962
0.502301
0.527532
0.589838
0.618598
0.693195
0.00335683
0.0694059
0.271547
0.410844
0.573964
0.713433
0.827424
0.929356
1.02781
1.09936
1.15944
1.21384
1.25291
1.30813
1.33051
1.37931
1.40152
1.45689
1.47748
1.52821
0.0844297
0.726583
1.57709
1.92833
2.28103
2.43474
2.57774
2.59469
2.62869
2.60059
2.58812
2.53805
2.52305
2.47445
2.46022
2.41865
2.41003
2.38478
2.37299
2.34693
1.40314
4.35506
5.31968
5.28411
5.13342
4.79135
4.59686
4.27214
4.12951
3.87115
3.77791
3.57739
3.52045
3.36591
3.33136
3.20338
3.17394
3.05639
3.01816
2.91718
8.11491
10.2713
8.78964
6.81762
5.71794
4.9509
4.54581
4.12691
3.92837
3.64762
3.55416
3.35122
3.30334
3.13328
3.10673
2.9452
2.91157
2.73215
2.66961
2.44902
1.87191
1.36134
1.04452
0.829205
0.671848
0.568455
0.504524
0.473601
0.463306
0.466176
0.473212
0.486696
0.49622
0.506527
0.514805
0.516417
0.516212
0.51573
0.51402
0.509525
0.499428
0.489844
0.472408
0.458526
0.436104
0.418058
0.399866
0.38411
0.369953
0.363845
0.363814
0.366209
0.375943
0.389377
0.411919
0.427634
0.440715
0.447363
0.44847
0.450514
0.451084
0.45252
0.452788
0.454551
0.454085
0.452776
0.44927
0.446042
0.437527
0.429014
0.415416
0.402814
0.385428
0.374545
0.360411
0.347281
0.343076
0.343645
0.348634
0.359265
0.380089
0.40277
0.42223
0.426054
0.421133
0.387036
0.309383
0.253804
0.224886
0.203278
0.191259
0.172875
0.162993
0.151507
0.142704
0.132026
0.130277
0.131741
0.138529
0.145888
0.160231
0.160834
0.159603
0.155001
0.14848
0.13591
0.115473
0.0886004
0.0594825
0.0378255
0.02442
0.0174696
0.0140217
0.0128177
0.0129722
0.0136479
0.0152374
0.0169752
0.0205443
0.0250929
0.0313631
0.0338891
0.0376653
0.0390606
0.0411127
0.0406056
0.0389452
0.0385203
0.0381905
0.040012
0.0419818
0.040688
0.0417214
0.0618405
0.162145
0.25215
0.26356
0.24054
0.173322
0.126569
0.0989441
0.0828934
0.0734623
0.067041
0.0624677
0.0598434
0.057785
0.0551012
0.0535461
0.0535438
0.0545397
0.0577484
0.0701142
0.0818494
0.0876876
0.0897761
0.088123
0.0769993
0.0593544
0.0547389
0.0581407
0.0955814
0.160538
0.182075
0.183084
0.161967
0.121287
0.0953549
0.0800196
0.070021
0.0622074
0.0570365
0.0546367
0.054458
0.0553191
0.0556213
0.0560474
0.0570364
0.0595593
0.0655852
0.0873749
0.103852
0.110131
0.109323
0.108393
0.107562
0.107686
0.107702
0.108722
0.108297
0.10706
0.103727
0.0996686
0.0947642
0.0909903
0.0879756
0.0829077
0.078918
0.0778234
0.0779245
0.0787454
0.0827694
0.087319
0.0911188
0.10139
0.107838
0.10592
0.104718
0.105665
0.101789
0.0812088
0.0629162
0.0568053
0.0582372
0.0750871
0.0953515
0.155027
0.220152
0.337777
2.93139
2.56934
2.11644
1.77414
1.52426
1.33651
1.19168
1.07863
0.990698
0.919696
0.866147
0.821229
0.788861
0.761046
0.739642
0.720509
0.704133
0.688146
0.675545
0.659224
0.651936
0.637315
0.631443
0.620946
0.613751
0.605487
0.595605
0.583783
0.572521
0.557277
0.54297
0.533318
0.521204
0.512869
0.505004
0.496339
0.493926
0.488952
0.48763
0.48268
0.479942
0.472895
0.468387
0.458734
0.453104
0.440956
0.432331
0.416716
0.399905
0.380589
0.359214
0.33604
0.311986
0.290268
0.266135
0.247806
0.227824
0.216083
0.20682
0.206676
0.208854
0.219073
0.239071
0.266914
0.307437
0.358926
0.382416
0.383275
0.374503
0.347626
0.308099
0.279092
0.24903
0.22839
0.209454
0.199773
0.198316
0.199081
0.198198
0.195111
0.189512
0.18133
0.166173
0.15358
0.127773
0.0971184
0.0643495
0.038998
0.0241064
0.0159753
0.0119585
0.0101569
0.0102482
0.0107451
0.0119442
0.0139723
0.0186803
0.0238547
0.0289102
0.0378892
0.0431221
0.0477399
0.0524173
0.0565689
0.056797
0.0560563
0.0542969
0.0498727
0.0457395
0.042443
0.041905
0.0424178
0.0426939
0.0421552
0.046303
0.0757692
0.176884
0.230591
0.228181
0.202579
0.153356
0.114428
0.092945
0.0799943
0.0722253
0.0661238
0.0630264
0.0602372
0.0583063
0.0580923
0.0588566
0.0621404
0.0742191
0.0839775
0.08891
0.0913476
0.0912779
0.0848963
0.0638867
0.0532282
0.0517093
0.0621008
0.126734
0.178181
0.192414
0.187667
0.148614
0.112366
0.0897567
0.076433
0.0666353
0.05934
0.0550824
0.0530962
0.0529733
0.0531316
0.0529638
0.052974
0.0534144
0.054856
0.0582277
0.0709673
0.0920076
0.103531
0.105484
0.107789
0.107883
0.107981
0.108623
0.109443
0.109002
0.107491
0.105098
0.103352
0.0999082
0.0938302
0.0904322
0.090106
0.0910602
0.0941824
0.0992662
0.113538
0.122427
0.128909
0.130878
0.133381
0.143145
0.148843
0.145831
0.143803
0.135303
0.0966679
0.0661288
0.0547926
0.0551391
0.067963
0.0881575
0.137142
0.201928
0.35115
1.80818
2.07495
1.85053
1.64096
1.47093
1.32915
1.21423
1.11969
1.04037
0.974427
0.916869
0.867582
0.824927
0.786388
0.753778
0.723404
0.700812
0.678082
0.662477
0.644597
0.631024
0.614833
0.603089
0.58903
0.580542
0.571428
0.56475
0.559692
0.553324
0.548754
0.543826
0.535933
0.532011
0.522908
0.519054
0.510483
0.505959
0.496546
0.489276
0.476902
0.4645
0.448785
0.432627
0.414994
0.392956
0.374684
0.348275
0.326271
0.299247
0.274094
0.24787
0.224891
0.200206
0.181174
0.164425
0.150346
0.137061
0.125883
0.110211
0.09691
0.0926854
0.0930791
0.0969595
0.104807
0.123286
0.146894
0.182056
0.217764
0.260637
0.283182
0.284564
0.282266
0.279081
0.273351
0.265512
0.254658
0.244
0.225854
0.210915
0.188962
0.161684
0.127809
0.0983825
0.0626301
0.0390234
0.0242465
0.0154825
0.0107073
0.0083661
0.00788184
0.00811645
0.0088811
0.0107222
0.0150616
0.0209962
0.0300482
0.0433642
0.0541782
0.0642186
0.0755303
0.0803397
0.0853993
0.0866736
0.0855994
0.0832544
0.0782316
0.07401
0.0657657
0.0593097
0.0518703
0.0470839
0.044457
0.0442347
0.0423057
0.0424332
0.0497606
0.082584
0.170942
0.203558
0.197352
0.175532
0.145568
0.118813
0.0970316
0.0841733
0.0758936
0.0700089
0.0675309
0.0676875
0.0692356
0.0746
0.0828491
0.0877135
0.0916834
0.0924909
0.0928639
0.0897399
0.0698867
0.052347
0.0465158
0.0486959
0.075516
0.15994
0.198234
0.204918
0.189263
0.13801
0.105134
0.0869503
0.074299
0.0641173
0.0579515
0.0530835
0.0514856
0.0507431
0.0502871
0.0495015
0.0496436
0.0498973
0.0507901
0.0531278
0.0604739
0.0816034
0.0987572
0.105752
0.107882
0.109785
0.109786
0.111646
0.11161
0.111936
0.111337
0.110404
0.106313
0.104274
0.104529
0.107275
0.113705
0.128508
0.144755
0.15166
0.151858
0.15087
0.149362
0.143199
0.142139
0.144525
0.153551
0.165875
0.179238
0.176897
0.134493
0.0777491
0.0568857
0.0559081
0.0667228
0.0830173
0.136235
0.184895
0.333078
0.990896
1.32339
1.2326
1.13837
1.05417
0.978535
0.907927
0.851917
0.796014
0.751828
0.711751
0.675296
0.644199
0.612963
0.583607
0.556587
0.530807
0.510722
0.492941
0.480422
0.468496
0.459864
0.446529
0.438727
0.423727
0.415707
0.404457
0.399237
0.393306
0.390969
0.388481
0.387412
0.386233
0.383377
0.37849
0.375598
0.36771
0.362259
0.350259
0.342942
0.329493
0.316955
0.300171
0.280839
0.261146
0.239196
0.214178
0.189787
0.162286
0.137311
0.112648
0.0914156
0.0759542
0.0633099
0.0558278
0.0497539
0.0454834
0.0427739
0.0397805
0.0362037
0.0341364
0.0339473
0.0345976
0.0364073
0.0411362
0.0474197
0.0641322
0.0797291
0.0910042
0.109019
0.12485
0.140711
0.148529
0.148033
0.144676
0.137218
0.12268
0.10523
0.0823589
0.0618688
0.044548
0.0313498
0.021524
0.0144872
0.0100158
0.00740756
0.0061112
0.00614435
0.00644615
0.00743401
0.00984955
0.014973
0.0249971
0.0395767
0.0572415
0.0795465
0.100753
0.115456
0.130135
0.139494
0.140888
0.139278
0.135116
0.125775
0.117917
0.105505
0.0961807
0.0840774
0.0729769
0.0612937
0.0521476
0.0468379
0.044768
0.0412784
0.0408306
0.0420654
0.0513832
0.08157
0.154586
0.178012
0.172478
0.157855
0.140589
0.12278
0.109654
0.100249
0.0919528
0.0889859
0.0892779
0.0900733
0.0917944
0.0939575
0.094765
0.0950599
0.0944318
0.0908613
0.0748718
0.0522682
0.0423753
0.0420155
0.0493597
0.108834
0.188641
0.212907
0.213607
0.182882
0.131668
0.101063
0.0861109
0.0726406
0.0629841
0.0564113
0.051292
0.050759
0.0500065
0.0500973
0.0503577
0.0504605
0.0500943
0.0503418
0.0510758
0.0549704
0.0739257
0.0911557
0.106035
0.109519
0.115301
0.114839
0.11837
0.118803
0.120119
0.119375
0.120172
0.121078
0.124632
0.132468
0.159311
0.177489
0.179174
0.177664
0.172886
0.165075
0.155872
0.15095
0.142449
0.135997
0.136261
0.141894
0.157081
0.185257
0.196996
0.182111
0.108517
0.0654913
0.0590871
0.0678782
0.0815424
0.1403
0.17407
0.310106
0.620812
0.584689
0.563099
0.533997
0.506575
0.48115
0.452585
0.430377
0.409467
0.387774
0.372518
0.35445
0.339196
0.326565
0.309224
0.297465
0.279977
0.266475
0.252238
0.242315
0.23453
0.231187
0.228495
0.227583
0.224582
0.220568
0.212451
0.205142
0.198304
0.193342
0.191534
0.190827
0.191132
0.191336
0.19123
0.190526
0.185471
0.180224
0.16998
0.160488
0.151268
0.138266
0.129119
0.117747
0.106917
0.0956032
0.0826192
0.0709196
0.0586686
0.0478883
0.0384461
0.0303628
0.0245147
0.0198371
0.0170172
0.0151101
0.0140075
0.0133744
0.0129195
0.0122356
0.0112692
0.0109459
0.0109793
0.0112026
0.0118889
0.0129625
0.0161153
0.0202482
0.0243526
0.0298699
0.0335278
0.0379221
0.0388205
0.0384008
0.0369963
0.0339018
0.0293598
0.0245525
0.0195807
0.0153783
0.0116179
0.00860276
0.00648827
0.00507737
0.00449264
0.00461642
0.00500925
0.0060116
0.00852775
0.015052
0.025731
0.0449237
0.0733792
0.10364
0.142055
0.174926
0.200985
0.220054
0.233974
0.233787
0.229702
0.221381
0.203835
0.185531
0.167234
0.145381
0.12789
0.107553
0.0905799
0.075088
0.0598454
0.0508622
0.0456256
0.041719
0.0378629
0.03774
0.039668
0.0487007
0.0762041
0.126768
0.153065
0.151693
0.144621
0.133044
0.125217
0.116076
0.110028
0.105876
0.103322
0.100608
0.100066
0.0984092
0.0981445
0.0964902
0.090656
0.0706829
0.0516573
0.0402622
0.0378097
0.0398494
0.0565775
0.144746
0.210304
0.225248
0.221019
0.176482
0.126599
0.0990304
0.0858698
0.0721364
0.0626805
0.0554731
0.0507914
0.0485584
0.0479796
0.0488824
0.0496427
0.0514445
0.0512275
0.0508299
0.0512372
0.0545327
0.0722855
0.0899726
0.110328
0.114156
0.121244
0.123325
0.131746
0.133226
0.135372
0.137341
0.142276
0.150657
0.176104
0.209626
0.213529
0.207251
0.196403
0.185763
0.173879
0.167887
0.155253
0.15074
0.147388
0.14233
0.135331
0.133807
0.138245
0.16688
0.195134
0.193751
0.160398
0.0883565
0.070133
0.0772702
0.0878238
0.170704
0.178997
0.245462
0.436992
0.159653
0.156422
0.149177
0.143161
0.136885
0.130137
0.125519
0.121665
0.117214
0.11489
0.110589
0.107135
0.104035
0.0991715
0.0955582
0.0900554
0.0847745
0.0799394
0.0753594
0.0724611
0.0709283
0.0706513
0.0709532
0.0717393
0.072331
0.0721872
0.0694795
0.0663089
0.062696
0.0610899
0.059919
0.0598409
0.05982
0.0597459
0.0596298
0.059188
0.0581143
0.0541848
0.0495535
0.0454481
0.0402154
0.036451
0.0326594
0.0296388
0.0270886
0.023845
0.0207692
0.0171817
0.013968
0.0110671
0.00874372
0.00702676
0.0057527
0.00494718
0.00439407
0.00409212
0.00386913
0.00374047
0.00357501
0.00333359
0.00329074
0.00330236
0.00335913
0.00352822
0.00375677
0.00421062
0.00551085
0.00646845
0.00761924
0.00876192
0.00958899
0.00962511
0.00945225
0.00896968
0.00796411
0.00693276
0.00603628
0.00509221
0.00432721
0.00358618
0.0030174
0.00299106
0.0031837
0.00365894
0.00471792
0.0072991
0.0128655
0.0238426
0.047287
0.0791521
0.127548
0.180525
0.235938
0.291198
0.323664
0.349998
0.3642
0.364182
0.358616
0.345355
0.325259
0.290006
0.261689
0.227185
0.194917
0.166101
0.136602
0.112829
0.0925873
0.0732229
0.0593562
0.0489284
0.0427139
0.0383
0.0343114
0.0341051
0.0359916
0.0439123
0.061793
0.0984778
0.126733
0.13318
0.130543
0.126226
0.118462
0.114634
0.110414
0.106614
0.104117
0.102626
0.0989277
0.0950628
0.0838345
0.0609545
0.0476577
0.0404043
0.0350303
0.035035
0.0397083
0.0753609
0.18289
0.231454
0.236756
0.225897
0.170352
0.122918
0.0982681
0.0854646
0.0722766
0.0636156
0.0550018
0.0505278
0.0481533
0.0472066
0.0477981
0.0496949
0.0510407
0.0510214
0.0512186
0.0519195
0.0552993
0.0749235
0.0902626
0.120158
0.124914
0.13704
0.138183
0.143222
0.150091
0.153017
0.159131
0.180357
0.230683
0.24653
0.244733
0.232836
0.206742
0.196633
0.176058
0.160181
0.138907
0.123711
0.122142
0.122327
0.125275
0.129318
0.130269
0.131086
0.137835
0.174722
0.187301
0.177699
0.146582
0.105907
0.12794
0.12163
0.20425
0.203134
0.217982
0.340643
0.026899
0.0262437
0.0246977
0.0236342
0.0226056
0.0217798
0.0213293
0.0210524
0.020888
0.0207573
0.0205442
0.0201401
0.0197773
0.0191121
0.0185234
0.0176871
0.0166427
0.0157066
0.014883
0.0145696
0.0145111
0.0145254
0.0148593
0.0152568
0.0156196
0.0157373
0.0154612
0.0145931
0.0135938
0.0130632
0.0127718
0.0127282
0.0128551
0.0129042
0.0129252
0.0128735
0.0126726
0.0116689
0.0103803
0.00944389
0.00837173
0.00764605
0.00702372
0.00655689
0.00606091
0.00540607
0.00462195
0.00379238
0.00308166
0.00245293
0.00204141
0.00170803
0.00145193
0.00128467
0.00110993
0.00101745
0.000949409
0.000926986
0.000916388
0.00091857
0.000933358
0.00095
0.000982878
0.00104085
0.00108793
0.00118508
0.0013692
0.00155366
0.00176064
0.00187727
0.00203362
0.00208662
0.00206927
0.00203029
0.00192541
0.00184812
0.00172859
0.00160873
0.00161138
0.00172626
0.00198182
0.00248447
0.00357319
0.00595526
0.0109161
0.0220233
0.0407497
0.0790442
0.137006
0.207081
0.292154
0.363714
0.416491
0.447489
0.46596
0.487577
0.490249
0.48837
0.47572
0.459366
0.422809
0.37893
0.333045
0.28191
0.241247
0.201977
0.164074
0.133492
0.107452
0.0848532
0.0678299
0.0548128
0.045442
0.0394633
0.0348007
0.0311907
0.0308332
0.0324108
0.0372469
0.0514599
0.0695627
0.0921614
0.106163
0.112056
0.110762
0.108135
0.105961
0.101201
0.0977748
0.0907177
0.0800868
0.0676153
0.0511801
0.040226
0.0368752
0.0327141
0.0316477
0.0335561
0.0431124
0.109422
0.208424
0.24176
0.243926
0.226584
0.166272
0.121479
0.0977099
0.0854148
0.0752344
0.0652221
0.0552543
0.0508852
0.0478703
0.047203
0.0472139
0.0483684
0.0502717
0.0515103
0.0513953
0.0531162
0.057319
0.0850974
0.0964228
0.128454
0.139165
0.145101
0.158865
0.162516
0.172109
0.181042
0.239419
0.271641
0.276113
0.269084
0.250477
0.201323
0.176588
0.160923
0.143049
0.127869
0.10655
0.0931572
0.0841598
0.081944
0.0832919
0.099596
0.119028
0.128814
0.132379
0.141316
0.166496
0.16867
0.168548
0.1454
0.169576
0.155127
0.165196
0.203144
0.212225
0.289931
0.00296973
0.00292325
0.00279102
0.00268527
0.0025619
0.00247125
0.00241868
0.00239213
0.00238335
0.00236805
0.00235312
0.00231811
0.00229295
0.00224414
0.00218726
0.0021286
0.00203756
0.00197303
0.00192388
0.00191529
0.00191712
0.00192496
0.00197951
0.00202201
0.00206555
0.00208214
0.00206528
0.00198556
0.00186773
0.00180016
0.00176411
0.00175456
0.00175571
0.00175274
0.00174731
0.00173261
0.0016642
0.00155341
0.00144428
0.00134382
0.00123264
0.00114177
0.00106456
0.000987074
0.000886369
0.000792398
0.000689435
0.000612912
0.000552144
0.000505737
0.000474006
0.000427686
0.000381658
0.000360251
0.000360294
0.000364675
0.00037982
0.000408161
0.000429778
0.000435663
0.000434309
0.000419279
0.000409838
0.000407422
0.000410977
0.000427163
0.000440185
0.000452329
0.000455034
0.000462844
0.000478159
0.000509589
0.000572773
0.000649112
0.000699079
0.000791167
0.000862931
0.000970898
0.00119331
0.00167105
0.00278332
0.0050032
0.00964958
0.018492
0.0352333
0.0707332
0.126013
0.224047
0.325059
0.403175
0.450445
0.474666
0.49227
0.506559
0.528161
0.552767
0.559631
0.556222
0.542234
0.516647
0.466643
0.419511
0.370033
0.325206
0.282197
0.240654
0.206765
0.177568
0.142812
0.112336
0.0856863
0.0665647
0.0528228
0.0431482
0.0367834
0.0318384
0.0293114
0.0283756
0.029099
0.0321667
0.0386877
0.0493748
0.0605268
0.069435
0.0760047
0.0762965
0.0753637
0.0714261
0.0661857
0.0557412
0.048113
0.0404205
0.0330217
0.0296505
0.0284645
0.0281404
0.0296481
0.035652
0.0524265
0.133241
0.22422
0.252099
0.252833
0.227685
0.164747
0.120745
0.0961881
0.0879435
0.0809162
0.0662669
0.0568732
0.0540083
0.0488992
0.0484725
0.0480042
0.0491345
0.0495257
0.0518384
0.0519266
0.0599375
0.0631394
0.0901807
0.114583
0.132484
0.174112
0.170029
0.202971
0.197187
0.237609
0.270536
0.305451
0.296085
0.284591
0.228596
0.199012
0.172218
0.162146
0.147913
0.140538
0.123892
0.104179
0.0917373
0.0779007
0.0705696
0.0681163
0.0713295
0.0929659
0.120665
0.131182
0.134897
0.143024
0.152395
0.162613
0.153191
0.159456
0.158033
0.161864
0.193591
0.198158
0.232656
0.000259762
0.000264185
0.000263791
0.000260464
0.000251638
0.000242896
0.000233471
0.000223582
0.000216044
0.000211352
0.000209382
0.000209953
0.000214729
0.000218767
0.000220142
0.000220594
0.000220401
0.000218557
0.000217278
0.000217039
0.000217446
0.000218862
0.000224029
0.000230146
0.000235935
0.000240895
0.000242271
0.000241747
0.000232389
0.000222439
0.00021299
0.000208399
0.000205303
0.000204484
0.000204633
0.000204534
0.000204562
0.00020388
0.000199092
0.000194117
0.000191346
0.000191311
0.000194859
0.000199793
0.000208911
0.000221235
0.000241191
0.000253845
0.000262437
0.000266688
0.000268726
0.000273399
0.000282556
0.000299827
0.000341348
0.000402751
0.000470427
0.000482276
0.000483634
0.000463582
0.00043317
0.000403078
0.000392777
0.000384319
0.00036812
0.000353958
0.000347433
0.00035075
0.000361169
0.00039221
0.000425815
0.000458049
0.000509235
0.00055813
0.000652455
0.000774049
0.00100947
0.00147224
0.00259786
0.00461036
0.00920426
0.0161611
0.031184
0.0560759
0.110118
0.20336
0.346776
0.42892
0.465534
0.481689
0.494494
0.50029
0.510493
0.523857
0.561188
0.58534
0.587164
0.576862
0.550736
0.503293
0.450195
0.403316
0.354695
0.317046
0.281748
0.252808
0.227048
0.202681
0.176511
0.1554
0.127899
0.0988384
0.0743246
0.0550179
0.0435808
0.0352793
0.030569
0.0284452
0.026986
0.0271258
0.0282193
0.0309609
0.0349374
0.0386445
0.0423076
0.0441373
0.0436749
0.0421433
0.0389479
0.0346061
0.0305388
0.0276279
0.0258004
0.0254876
0.0253517
0.0260688
0.0301187
0.0428594
0.063496
0.144714
0.236266
0.264725
0.26408
0.227563
0.164714
0.118134
0.0969321
0.0931416
0.0817642
0.0670237
0.0614436
0.055728
0.050426
0.0510483
0.0487986
0.0510331
0.0503611
0.0548729
0.053712
0.0634973
0.0736899
0.0939207
0.169676
0.154228
0.216588
0.197679
0.242275
0.287361
0.340643
0.318985
0.308786
0.238905
0.222048
0.182908
0.1817
0.167229
0.162356
0.151287
0.147505
0.129993
0.116859
0.0987371
0.0828336
0.0724896
0.0671551
0.0673283
0.0731396
0.0979376
0.120565
0.134374
0.140954
0.146653
0.168485
0.154679
0.15017
0.153293
0.152591
0.171658
0.17666
0.192932
9.31496e-05
9.47771e-05
9.9896e-05
0.000101015
0.000100695
9.96425e-05
9.85856e-05
9.83806e-05
9.81783e-05
9.79963e-05
9.7416e-05
9.70802e-05
9.62497e-05
9.59154e-05
9.5546e-05
9.54577e-05
9.53557e-05
9.52875e-05
9.55108e-05
9.68757e-05
9.8843e-05
0.000100885
0.000102444
0.000103832
0.000105522
0.000107251
0.000108298
0.000108723
0.000108908
0.00010904
0.000109287
0.000110732
0.000112063
0.000113683
0.00011685
0.000118712
0.000122632
0.000126325
0.000132492
0.000141291
0.000150225
0.000162416
0.000187955
0.000229653
0.000294447
0.000351909
0.000385505
0.000427197
0.000492731
0.00056561
0.000640619
0.000723559
0.000806471
0.000965698
0.0011192
0.00124619
0.00130981
0.00131791
0.00131429
0.00129045
0.00119579
0.00108739
0.00101896
0.000969079
0.000947283
0.00094601
0.00094828
0.000967569
0.000996612
0.00107063
0.00113609
0.00122553
0.00137228
0.00153921
0.00188339
0.0023967
0.00350642
0.00522413
0.00965901
0.0159596
0.0290493
0.048749
0.0915162
0.163893
0.325528
0.447962
0.494079
0.497455
0.49533
0.487528
0.467147
0.458144
0.472641
0.516099
0.573649
0.585334
0.567846
0.516547
0.464217
0.401534
0.359545
0.326745
0.292109
0.27
0.251223
0.235415
0.219612
0.200211
0.184424
0.168809
0.150626
0.132742
0.113112
0.08694
0.0671362
0.048168
0.0374056
0.0316204
0.0283608
0.0273186
0.0268201
0.0270639
0.027734
0.0285115
0.0293427
0.0296618
0.0294531
0.0289721
0.0279126
0.0265375
0.0253668
0.0245998
0.0244901
0.0246634
0.0253906
0.0278144
0.0354927
0.0491027
0.0679569
0.149226
0.251835
0.28107
0.276661
0.226838
0.162665
0.11744
0.102177
0.0949248
0.0814151
0.0761348
0.0696201
0.0562383
0.0513685
0.0530903
0.0500605
0.0521478
0.0515674
0.0559111
0.05802
0.068033
0.110861
0.106933
0.195269
0.173088
0.208842
0.267963
0.360355
0.382639
0.330388
0.253142
0.199057
0.186782
0.181316
0.169434
0.179163
0.16287
0.165455
0.154664
0.150006
0.125802
0.11572
0.0914226
0.0813485
0.0667655
0.0607594
0.0600365
0.0624881
0.0777814
0.0931655
0.12773
0.145198
0.143673
0.179343
0.158849
0.157025
0.150948
0.150358
0.157253
0.164695
0.17095
9.37164e-05
9.49662e-05
9.91537e-05
9.9714e-05
0.000100337
0.000100721
0.000101484
0.000103937
0.000105699
0.000108897
0.000111119
0.000113079
0.000115088
0.000115663
0.000116702
0.000117425
0.000118102
0.000120598
0.000127603
0.000136705
0.000148336
0.000157464
0.000166902
0.000172865
0.000177539
0.000179681
0.000180573
0.000181487
0.000182809
0.000191599
0.000202156
0.000230189
0.000251169
0.000276029
0.000315741
0.000337103
0.00037901
0.000406902
0.000462166
0.000520205
0.000637423
0.000722755
0.00085635
0.00109916
0.00132894
0.00164521
0.00180248
0.00201374
0.00228173
0.00257037
0.00299902
0.00316906
0.00345694
0.00368723
0.00400032
0.00433468
0.00445799
0.00451038
0.00448748
0.00434043
0.00403555
0.00369547
0.00348267
0.00327068
0.00319869
0.00318008
0.00322553
0.00351362
0.00375555
0.00404848
0.00425158
0.00449003
0.004973
0.00557177
0.00684384
0.00878513
0.0131017
0.0189415
0.0314953
0.0507173
0.0818142
0.140496
0.267222
0.447713
0.527956
0.535133
0.519958
0.472298
0.409809
0.356259
0.35972
0.386461
0.458783
0.530462
0.552448
0.499293
0.418423
0.380628
0.348182
0.310209
0.277963
0.255065
0.240521
0.229068
0.22064
0.211587
0.201257
0.191422
0.182488
0.169634
0.157401
0.14368
0.129265
0.116687
0.10053
0.0800591
0.0625641
0.0458789
0.0368126
0.0319585
0.029719
0.0286377
0.0280966
0.0281291
0.0281941
0.0280029
0.027763
0.0272578
0.0269173
0.0261811
0.0259522
0.0261457
0.0276009
0.0296808
0.0343291
0.0402506
0.0452115
0.0537101
0.0713165
0.152135
0.260004
0.294519
0.286645
0.226859
0.161433
0.123324
0.103184
0.0924127
0.0881175
0.0856336
0.0719431
0.0593959
0.0578165
0.0529433
0.05275
0.0533946
0.0553558
0.0599075
0.0745856
0.0812039
0.156598
0.133305
0.185636
0.201681
0.229144
0.4255
0.377232
0.332129
0.192348
0.178543
0.145456
0.176159
0.1527
0.181008
0.173336
0.161568
0.169182
0.151574
0.150373
0.128067
0.127981
0.110841
0.1055
0.0778037
0.0674697
0.0625485
0.0634748
0.0761001
0.0930534
0.116243
0.147287
0.137264
0.170145
0.164452
0.163272
0.148392
0.145726
0.145556
0.154019
0.15857
0.000244109
0.000247559
0.000255973
0.000257525
0.000262366
0.000268694
0.000279307
0.000311942
0.000354436
0.000401682
0.000452948
0.00048573
0.000522964
0.000544243
0.000568179
0.000587753
0.000596617
0.000619548
0.000660468
0.000737669
0.000827572
0.000902485
0.000990746
0.00104179
0.00108589
0.00110573
0.00111863
0.0011265
0.00113657
0.00122226
0.00132974
0.00156485
0.00169033
0.00193291
0.00211816
0.00230685
0.00257351
0.00273159
0.00308695
0.00336171
0.00395226
0.00436325
0.00501955
0.00602285
0.0066707
0.00778309
0.00832136
0.00899881
0.00974064
0.0102462
0.0114091
0.0118739
0.0127695
0.0134695
0.0139826
0.0142285
0.0141954
0.0140864
0.0137976
0.012921
0.0118385
0.0109177
0.010428
0.0101317
0.0101118
0.0101684
0.0105295
0.011166
0.0116181
0.0122572
0.0128784
0.0136723
0.0154878
0.0176955
0.022172
0.0289561
0.0420465
0.0605936
0.0907881
0.144055
0.216987
0.404651
0.537355
0.579222
0.568556
0.510777
0.366364
0.302644
0.296819
0.308159
0.344116
0.419545
0.509955
0.510863
0.405846
0.361758
0.35783
0.341126
0.299995
0.267728
0.247101
0.237469
0.235942
0.234086
0.232254
0.226534
0.215039
0.200975
0.189026
0.175357
0.164187
0.152239
0.1394
0.130565
0.117467
0.106466
0.0904929
0.0765464
0.0627679
0.0499181
0.042662
0.0378758
0.0354814
0.0339724
0.0329021
0.0321764
0.0320687
0.0322934
0.0331086
0.0343696
0.0357263
0.0383038
0.0426858
0.0453325
0.0496021
0.0567849
0.0630837
0.0690658
0.0815755
0.136419
0.255218
0.305462
0.299395
0.234102
0.166086
0.125585
0.102658
0.092913
0.0958522
0.0861396
0.073502
0.0763501
0.0706757
0.0621922
0.0618807
0.0601557
0.0681885
0.0771884
0.102965
0.0990637
0.166076
0.160781
0.181706
0.288819
0.344483
0.409217
0.276693
0.212171
0.147707
0.136101
0.123895
0.145488
0.128178
0.186647
0.137326
0.174041
0.168937
0.166142
0.176063
0.144366
0.163278
0.128521
0.137236
0.0977131
0.091572
0.0722803
0.0726873
0.0846138
0.111702
0.118264
0.1572
0.138271
0.165349
0.170337
0.170219
0.150926
0.146629
0.141465
0.146081
0.148699
0.00310237
0.00313094
0.00312218
0.00308726
0.00305679
0.00306847
0.00315721
0.00342508
0.00396407
0.00435422
0.00478972
0.00516292
0.00537372
0.00551216
0.00558995
0.00563091
0.00564048
0.00565294
0.00579946
0.00638837
0.00693376
0.00746746
0.00794858
0.00823785
0.00847157
0.00857299
0.00866057
0.00871365
0.00880817
0.00912906
0.00973687
0.0105908
0.0111434
0.0122347
0.012892
0.0138018
0.0147855
0.0153602
0.0167437
0.0176611
0.0194093
0.0208597
0.0227202
0.0253328
0.0266929
0.0292688
0.0304935
0.0321048
0.0338447
0.0348765
0.0370069
0.0381059
0.039445
0.0399618
0.0399116
0.0397426
0.0391423
0.0382222
0.0361235
0.0340352
0.0322863
0.0306615
0.0296419
0.0287798
0.0285799
0.0286995
0.0290185
0.0299253
0.0307827
0.0320875
0.0345454
0.0370867
0.0438227
0.0517932
0.0651715
0.0893396
0.115378
0.173107
0.231183
0.360543
0.501421
0.594881
0.609997
0.568819
0.409222
0.290416
0.268598
0.269717
0.285511
0.326688
0.40988
0.475941
0.452461
0.347004
0.32703
0.341389
0.347541
0.330707
0.28393
0.252431
0.237116
0.23473
0.237207
0.241371
0.244271
0.242148
0.23771
0.228082
0.211127
0.192919
0.180494
0.168344
0.157727
0.150066
0.140107
0.132438
0.121606
0.114266
0.106367
0.0939997
0.0847791
0.0761051
0.0664665
0.0613721
0.0609014
0.059444
0.0571781
0.0576416
0.0588259
0.0601804
0.0616302
0.0640726
0.0700514
0.0764944
0.0787769
0.0793499
0.0779865
0.0780873
0.0816301
0.1051
0.224027
0.314371
0.316994
0.250606
0.168791
0.126409
0.107633
0.0965116
0.0958148
0.0876595
0.0873028
0.0864178
0.077276
0.0767215
0.0794542
0.0789679
0.0867542
0.102683
0.129029
0.116441
0.158377
0.175228
0.201216
0.364231
0.365263
0.304736
0.206985
0.185364
0.143507
0.118028
0.11762
0.116222
0.122437
0.147775
0.125301
0.176061
0.135258
0.182005
0.184355
0.187116
0.206916
0.156093
0.222281
0.144951
0.139087
0.0893635
0.0875429
0.100433
0.117746
0.122763
0.163571
0.140936
0.167236
0.187216
0.175818
0.150032
0.148881