/*--------------------------------*- C++ -*----------------------------------*\
| =========                 |                                                 |
| \\      /  F ield         | OpenFOAM: The Open Source CFD Toolbox           |
|  \\    /   O peration     | Version:  2.4.0                                 |
|   \\  /    A nd           | Web:      www.OpenFOAM.org                      |
|    \\/     M anipulation  |                                                 |
\*---------------------------------------------------------------------------*/
FoamFile
{
    version     2.0;
    format      ascii;
    class       volScalarField;
    location    "1.78";
    object      k_0;
}
// * * * * * * * * * * * * * * * * * * * * * * * * * * * * * * * * * * * * * //

dimensions      [0 2 -2 0 0 0 0];

internalField   nonuniform List<scalar> 
8800
(
8.11679
10.2697
8.786
6.84406
5.67575
5.01392
4.48649
4.18025
3.87435
3.71363
3.49119
3.42085
3.24578
3.20729
3.05487
3.03055
2.89787
2.87518
2.81989
2.6563
1.39433
4.35896
5.30975
5.29641
5.10689
4.86199
4.52614
4.3332
4.07379
3.93166
3.71715
3.64208
3.47066
3.41834
3.29045
3.24861
3.14045
3.1042
3.00965
3.00483
0.0835336
0.747363
1.53475
1.97106
2.2495
2.46421
2.55288
2.62434
2.61101
2.60665
2.57906
2.55716
2.51056
2.48551
2.45344
2.4159
2.39303
2.35703
2.30841
2.28698
0.00329407
0.0713933
0.233854
0.440549
0.584753
0.703175
0.831306
0.94589
1.01492
1.08897
1.17092
1.20146
1.26633
1.2923
1.34944
1.36334
1.40675
1.40817
1.4211
1.41029
0.000119963
0.00508922
0.0202402
0.0528922
0.0957909
0.118955
0.164018
0.208736
0.242492
0.276025
0.328812
0.348955
0.393849
0.417052
0.46742
0.489158
0.539724
0.556323
0.591122
0.605015
2.59177e-05
0.000323636
0.00135383
0.00381404
0.00935529
0.012307
0.0181239
0.0276404
0.0326307
0.0404275
0.0551198
0.0610314
0.0728953
0.0829944
0.0947615
0.108791
0.121309
0.137376
0.145634
0.16242
2.22335e-05
4.42966e-05
0.000111281
0.00028454
0.000700185
0.000917476
0.00128283
0.00225311
0.00263903
0.0036013
0.00461535
0.00610463
0.00709793
0.00947733
0.0107523
0.0138646
0.0156273
0.0199179
0.0217336
0.0272183
2.11304e-05
3.03599e-05
4.17359e-05
7.0697e-05
0.000112049
0.000125716
0.000149225
0.0002109
0.000219058
0.000277078
0.000318881
0.000438003
0.000486517
0.000671447
0.000733187
0.00103328
0.0011763
0.00171477
0.00193143
0.00297205
2.08687e-05
3.09985e-05
3.793e-05
5.5811e-05
7.5059e-05
8.00499e-05
8.01675e-05
8.57212e-05
8.56991e-05
9.06982e-05
9.37614e-05
9.95695e-05
9.98459e-05
0.000104197
0.000105245
0.000122744
0.000134388
0.000172778
0.000187315
0.000254954
2.05983e-05
3.0491e-05
4.75619e-05
5.00251e-05
5.51562e-05
6.50307e-05
7.06794e-05
7.54049e-05
7.65913e-05
7.57107e-05
7.52862e-05
7.64198e-05
7.6887e-05
7.73318e-05
7.6873e-05
7.70337e-05
7.69625e-05
7.82446e-05
8.26612e-05
9.1979e-05
2.04899e-05
3.07649e-05
4.83911e-05
4.866e-05
5.041e-05
6.58923e-05
7.32201e-05
7.60241e-05
7.58442e-05
7.72764e-05
7.82453e-05
7.84231e-05
7.74438e-05
7.5394e-05
7.427e-05
7.44267e-05
7.46497e-05
7.85642e-05
8.52023e-05
9.29803e-05
2.07167e-05
3.18152e-05
4.30674e-05
5.00517e-05
6.9001e-05
7.91175e-05
7.99336e-05
8.05426e-05
8.18361e-05
8.72648e-05
9.04521e-05
9.66878e-05
9.90061e-05
0.000105353
0.000109319
0.000114463
0.000121108
0.000138826
0.000172397
0.00022956
2.10027e-05
2.97731e-05
4.83292e-05
8.86612e-05
9.59799e-05
0.000110112
0.000120593
0.000164228
0.000207244
0.00030378
0.000357966
0.000484029
0.000545109
0.000675343
0.000744259
0.000931431
0.00110228
0.00155535
0.00189593
0.00273244
2.15497e-05
4.32915e-05
0.000197367
0.000391071
0.000484169
0.00080777
0.00112652
0.00203347
0.00267881
0.00409186
0.00489496
0.00673436
0.00762893
0.00965023
0.0107078
0.013468
0.0154467
0.02038
0.0233508
0.0312531
2.49076e-05
0.000307632
0.0023122
0.004797
0.00668502
0.0125104
0.0168262
0.0271475
0.0332032
0.0456793
0.0519036
0.0655161
0.0719185
0.0863756
0.0931587
0.109991
0.119971
0.144507
0.157385
0.192555
0.000122667
0.00492544
0.029159
0.053998
0.0769151
0.129826
0.157035
0.209647
0.241025
0.291051
0.315283
0.362884
0.384356
0.432245
0.452829
0.502387
0.52772
0.590011
0.618627
0.692995
0.00335672
0.0694533
0.271678
0.409733
0.574739
0.713602
0.826979
0.929955
1.02789
1.0993
1.15915
1.2136
1.25307
1.30807
1.33043
1.37944
1.4017
1.45692
1.47736
1.52793
0.0844435
0.726999
1.57684
1.92771
2.28174
2.43463
2.57753
2.59501
2.6287
2.60044
2.58795
2.53803
2.52311
2.47448
2.46023
2.41874
2.41013
2.3847
2.37284
2.34676
1.4034
4.35514
5.31937
5.28412
5.13339
4.79146
4.59711
4.27173
4.12966
3.87107
3.77785
3.57746
3.52045
3.36603
3.33146
3.20332
3.17394
3.05648
3.01824
2.91721
8.11538
10.2713
8.78914
6.81822
5.71737
4.95115
4.54601
4.12666
3.92843
3.64751
3.55428
3.3513
3.30324
3.13341
3.1069
2.94522
2.91156
2.73233
2.66992
2.44911
1.87146
1.36149
1.0446
0.829339
0.671826
0.568252
0.503882
0.47266
0.46247
0.465413
0.472711
0.486458
0.496116
0.506599
0.514711
0.516085
0.515806
0.515196
0.513335
0.508524
0.498205
0.488358
0.470657
0.456434
0.433832
0.415905
0.397799
0.382031
0.368116
0.362764
0.36296
0.365806
0.376227
0.39005
0.412807
0.428587
0.441966
0.44848
0.449612
0.451676
0.452297
0.45373
0.453992
0.45575
0.455188
0.453653
0.450138
0.446767
0.437741
0.429024
0.415319
0.402531
0.38551
0.375108
0.360936
0.349316
0.346427
0.347532
0.353234
0.36463
0.384958
0.406109
0.422048
0.423918
0.416909
0.374509
0.297236
0.246229
0.218988
0.199193
0.187393
0.169801
0.160742
0.149504
0.140458
0.130331
0.129248
0.130912
0.138435
0.146297
0.16043
0.161116
0.1599
0.155335
0.148911
0.136194
0.116264
0.0892652
0.060535
0.0385829
0.0248928
0.0177689
0.0142044
0.0129039
0.0130562
0.0138029
0.0152311
0.0171143
0.0206987
0.0255599
0.0313197
0.0336584
0.0372847
0.0387599
0.0404192
0.0395525
0.0381976
0.0379442
0.0378841
0.0400524
0.0413258
0.0399004
0.0416821
0.0653229
0.173136
0.252721
0.259435
0.232627
0.165543
0.122096
0.0965642
0.0816857
0.0727816
0.0665907
0.0622543
0.0599091
0.057683
0.05504
0.0538449
0.0539767
0.0553448
0.0596415
0.0736665
0.0838605
0.0889109
0.0902107
0.0879165
0.0740646
0.0580313
0.0549609
0.0605593
0.106754
0.167183
0.183803
0.182337
0.155984
0.117066
0.0925539
0.0782598
0.0686534
0.0614314
0.0567506
0.05492
0.054952
0.0558008
0.0559706
0.0563793
0.0574912
0.0603471
0.0681722
0.091966
0.105936
0.110236
0.108645
0.107769
0.106926
0.107032
0.10723
0.108186
0.107569
0.106116
0.102425
0.0982741
0.0935332
0.0902639
0.0868521
0.081709
0.0783901
0.0778241
0.0781556
0.0794135
0.0849702
0.0893113
0.0944399
0.105385
0.110152
0.107656
0.107022
0.107529
0.100565
0.0763907
0.0598479
0.0551184
0.0582303
0.0775711
0.0983044
0.161281
0.222269
0.335938
2.93057
2.5692
2.11589
1.77395
1.5244
1.33685
1.19183
1.07859
0.990429
0.919222
0.865487
0.820579
0.788467
0.760936
0.739874
0.72087
0.704378
0.688379
0.675276
0.659154
0.65183
0.637243
0.63151
0.620936
0.613953
0.605602
0.595473
0.583459
0.571864
0.556116
0.542063
0.532064
0.51981
0.511908
0.503966
0.495956
0.493754
0.489086
0.487742
0.482678
0.479875
0.472483
0.467847
0.45809
0.452391
0.440039
0.431386
0.415205
0.398471
0.378986
0.357692
0.3344
0.310968
0.289279
0.265782
0.247708
0.228776
0.218137
0.210964
0.211477
0.214609
0.227524
0.247976
0.276966
0.318933
0.367075
0.385038
0.384434
0.373332
0.342752
0.303559
0.274485
0.244935
0.224387
0.206025
0.19817
0.197552
0.198849
0.198142
0.195277
0.189805
0.181132
0.166134
0.153555
0.127494
0.096895
0.0643437
0.0391239
0.0242757
0.0161291
0.0120728
0.0102209
0.0103034
0.0107874
0.0119306
0.0139045
0.018623
0.0231853
0.0286487
0.037236
0.0419829
0.0468827
0.0518355
0.05551
0.0555302
0.054682
0.052867
0.0482074
0.0445755
0.0418015
0.0415872
0.042086
0.0420794
0.0415721
0.0467065
0.0790834
0.183597
0.228725
0.222891
0.196795
0.149424
0.11217
0.091758
0.0794121
0.0717951
0.0660566
0.0630639
0.0602694
0.0587208
0.0587162
0.0597575
0.0647796
0.0776469
0.0859976
0.0901817
0.0920276
0.0915442
0.0821176
0.0617155
0.0527148
0.0525038
0.0678162
0.139037
0.183349
0.193312
0.185588
0.140861
0.108005
0.0870429
0.0745831
0.0654444
0.0586235
0.0549557
0.0533963
0.0533934
0.0533969
0.0531037
0.0531651
0.0537089
0.0553932
0.0593848
0.0753253
0.0951499
0.104506
0.105855
0.107474
0.107366
0.107419
0.108283
0.108801
0.108234
0.106461
0.104285
0.102501
0.098338
0.0925088
0.0901054
0.0901077
0.091603
0.0953696
0.10249
0.117922
0.125785
0.131343
0.133078
0.135899
0.147017
0.150891
0.147934
0.146016
0.133667
0.0896072
0.0624217
0.0535776
0.0557625
0.0717125
0.092374
0.145304
0.20797
0.352725
1.80471
2.07523
1.85047
1.64082
1.47082
1.32903
1.21459
1.11997
1.04082
0.974771
0.91686
0.86745
0.824366
0.785847
0.753329
0.723485
0.701267
0.678912
0.663358
0.645188
0.631258
0.614804
0.60295
0.589013
0.581034
0.572064
0.565927
0.560751
0.554373
0.549666
0.544059
0.535995
0.53167
0.52238
0.518503
0.509891
0.505339
0.495704
0.488173
0.47526
0.462573
0.446335
0.430121
0.411695
0.389896
0.371155
0.344659
0.322896
0.295951
0.271231
0.245871
0.223565
0.199762
0.182031
0.165531
0.151404
0.137861
0.125419
0.108973
0.0972383
0.0945757
0.0954175
0.100449
0.109206
0.129787
0.153923
0.188804
0.225949
0.267647
0.286061
0.286331
0.28365
0.280529
0.274477
0.266397
0.255489
0.244122
0.225645
0.210946
0.188369
0.160896
0.127217
0.0975447
0.0619215
0.0386298
0.0240699
0.0154177
0.0106901
0.00837697
0.00790796
0.00813998
0.00889934
0.0106853
0.0149275
0.0204921
0.0296295
0.0423058
0.0523014
0.062402
0.0731837
0.0778007
0.0831427
0.0843255
0.0833112
0.0810724
0.0762312
0.0719279
0.0636468
0.0573972
0.0503102
0.0460468
0.0439535
0.0435364
0.0414201
0.0418752
0.0504514
0.0858171
0.173882
0.201846
0.19395
0.172057
0.143787
0.118105
0.0969006
0.0847257
0.0764195
0.0705399
0.0687809
0.0693001
0.071281
0.0777541
0.0851344
0.0894038
0.0927576
0.0930907
0.0933026
0.0885985
0.0656306
0.0509845
0.0466664
0.0502966
0.0873434
0.169844
0.201436
0.204663
0.182011
0.131152
0.101485
0.0843708
0.0725598
0.0630379
0.0573285
0.0529904
0.0517271
0.051043
0.050437
0.0497328
0.0499108
0.0501826
0.0512246
0.053914
0.0638293
0.0856297
0.100622
0.10644
0.107844
0.10942
0.109354
0.111271
0.111064
0.11131
0.11064
0.109311
0.105069
0.103921
0.104589
0.108171
0.116493
0.133135
0.148311
0.153372
0.153209
0.151942
0.149556
0.143288
0.142999
0.146479
0.156691
0.170183
0.181588
0.177161
0.126294
0.0729592
0.0557158
0.0564975
0.0709269
0.0875892
0.145074
0.192383
0.336617
0.988335
1.32355
1.23264
1.13828
1.05459
0.978383
0.908191
0.852129
0.796015
0.752725
0.71232
0.675992
0.644529
0.612464
0.582956
0.555749
0.530473
0.511178
0.49409
0.482042
0.470196
0.460748
0.44713
0.438416
0.423225
0.415387
0.404615
0.400037
0.394536
0.392553
0.390082
0.388896
0.387147
0.38331
0.378201
0.374965
0.366205
0.36067
0.34877
0.341577
0.327765
0.314936
0.297285
0.277783
0.257764
0.235172
0.209993
0.185251
0.157873
0.133406
0.109368
0.0894527
0.0750087
0.0634402
0.0566837
0.0507766
0.0466905
0.0437724
0.040221
0.0364684
0.0347428
0.0347219
0.0355699
0.0377531
0.0431822
0.0507291
0.0689308
0.0826564
0.0942468
0.112736
0.128758
0.144783
0.151394
0.150626
0.146886
0.138758
0.123527
0.105378
0.0822338
0.0615075
0.0442364
0.0310898
0.0212941
0.0143267
0.00992656
0.00736656
0.00611364
0.0061603
0.0064612
0.0074742
0.0098811
0.0150566
0.024749
0.0389141
0.0559572
0.0778256
0.0973813
0.111509
0.126079
0.13463
0.136047
0.13456
0.13053
0.122049
0.1145
0.102562
0.093659
0.0813263
0.0703604
0.0589886
0.0504501
0.0459775
0.0438127
0.0403617
0.0400901
0.0416056
0.0519203
0.0837351
0.155073
0.175803
0.169879
0.155701
0.13927
0.122395
0.110258
0.101108
0.0934256
0.0909492
0.0911482
0.091724
0.0933806
0.0950838
0.0955062
0.0956057
0.0945792
0.0901695
0.070114
0.0497695
0.0420813
0.0425968
0.0532186
0.124558
0.196539
0.214602
0.21253
0.173883
0.125098
0.0977427
0.083611
0.0708519
0.0617696
0.0557633
0.0512517
0.0510964
0.0503803
0.0505276
0.0506951
0.0507218
0.0503326
0.0506097
0.0515978
0.0568536
0.0785455
0.0940107
0.10753
0.110384
0.115213
0.114753
0.118425
0.118508
0.119594
0.118897
0.119774
0.120962
0.125543
0.135586
0.166353
0.179781
0.180244
0.178135
0.172774
0.164154
0.155485
0.15051
0.141576
0.136174
0.136992
0.143754
0.161701
0.189248
0.196677
0.178356
0.100461
0.0635639
0.0603685
0.0719946
0.0866079
0.149625
0.182748
0.315066
0.618451
0.584827
0.563031
0.533587
0.506789
0.480966
0.452644
0.431084
0.409692
0.388481
0.373295
0.354904
0.34021
0.326743
0.309255
0.296939
0.278916
0.265655
0.251846
0.242861
0.235989
0.233235
0.23073
0.229507
0.225232
0.220227
0.211445
0.204265
0.197815
0.193747
0.192498
0.192066
0.192402
0.192483
0.192142
0.190742
0.184045
0.178415
0.167819
0.158805
0.149236
0.13682
0.128132
0.116795
0.106018
0.0941668
0.080983
0.0691119
0.0568025
0.0462625
0.0370354
0.0293612
0.0239017
0.0195929
0.0171253
0.0154093
0.01443
0.0138144
0.0132482
0.0123667
0.0113983
0.0111604
0.0112195
0.0114955
0.0122961
0.0134933
0.0174437
0.0213057
0.0256471
0.0310253
0.0346713
0.0388478
0.0394768
0.038993
0.0374921
0.0341435
0.0295208
0.0246152
0.0196225
0.0153722
0.0115696
0.00856442
0.00645155
0.00507062
0.0045278
0.00465209
0.00505064
0.00608361
0.00862562
0.0154214
0.0258001
0.0449845
0.0724254
0.102025
0.138999
0.170028
0.194679
0.213338
0.22603
0.225611
0.221544
0.213523
0.196348
0.179712
0.161858
0.141017
0.124055
0.103795
0.0875234
0.0721464
0.0576569
0.0496555
0.0445255
0.0407788
0.0370201
0.0369841
0.0391588
0.048846
0.0767014
0.125685
0.151175
0.14978
0.14292
0.132096
0.124813
0.115849
0.110525
0.106554
0.103833
0.10127
0.100644
0.0990411
0.0986899
0.0962105
0.0882574
0.0661231
0.0488514
0.0393135
0.0379207
0.0408077
0.064873
0.160944
0.216006
0.226049
0.217617
0.16647
0.120625
0.0960993
0.0836172
0.0703406
0.061435
0.0548457
0.0505629
0.0487173
0.0484426
0.0495302
0.050223
0.0517814
0.051385
0.0510759
0.0517572
0.0560057
0.0768937
0.09337
0.112416
0.115405
0.121699
0.124042
0.132239
0.133423
0.135379
0.137608
0.143162
0.152803
0.184943
0.213184
0.214019
0.206042
0.195434
0.18451
0.17324
0.166326
0.154033
0.150565
0.147327
0.142281
0.135397
0.134532
0.140244
0.171887
0.195229
0.191755
0.153125
0.0909278
0.0762032
0.0840409
0.0942224
0.1795
0.187457
0.254058
0.440434
0.15963
0.156358
0.148712
0.14308
0.136616
0.130139
0.125887
0.122003
0.117807
0.115399
0.110936
0.107678
0.104247
0.0992712
0.0953632
0.0895069
0.0842634
0.0794587
0.0752129
0.0727763
0.0716742
0.0715882
0.0720997
0.0728083
0.0731429
0.0722781
0.068692
0.0655352
0.0623008
0.0610642
0.0602313
0.0602604
0.0602524
0.0601676
0.0599902
0.0594601
0.0575982
0.0530498
0.0486214
0.0444575
0.0394408
0.0359692
0.0323843
0.0296011
0.0269471
0.0235667
0.0203317
0.0166436
0.0134643
0.0106351
0.00843425
0.00683392
0.00566553
0.00494915
0.0044632
0.00419654
0.00398593
0.00384278
0.00362947
0.00339215
0.00336323
0.0033777
0.0034453
0.00363215
0.00386757
0.00454645
0.00584018
0.00675238
0.0079212
0.0090582
0.00974106
0.00973525
0.00952101
0.00893356
0.00791698
0.00693959
0.00606258
0.00513159
0.00435469
0.00359444
0.00304775
0.00304611
0.00325506
0.00375177
0.00485479
0.00750641
0.0132933
0.0242738
0.0482947
0.0796483
0.127044
0.17864
0.232036
0.284057
0.315505
0.341394
0.354253
0.353889
0.347579
0.335104
0.313874
0.280303
0.253266
0.219438
0.188674
0.16043
0.131664
0.109017
0.0890409
0.070412
0.0573786
0.0476193
0.0416202
0.0373978
0.0335301
0.0334306
0.0354711
0.0435825
0.0612238
0.0975268
0.124805
0.131411
0.129146
0.125155
0.117734
0.114424
0.110166
0.106472
0.104371
0.102416
0.0985062
0.0940772
0.0785944
0.0572941
0.0457503
0.0390884
0.0346639
0.0353912
0.0416384
0.0914285
0.195588
0.235023
0.237178
0.220932
0.160442
0.117436
0.0955397
0.0835033
0.0704058
0.0622628
0.0543205
0.0503023
0.0482172
0.0475119
0.0484609
0.0502854
0.0513815
0.0512865
0.0514959
0.0524879
0.0568347
0.0794626
0.0939424
0.122723
0.126869
0.137571
0.138591
0.144266
0.150385
0.153519
0.160644
0.189956
0.237298
0.247919
0.24475
0.229017
0.204415
0.194488
0.172596
0.155887
0.134252
0.121618
0.121108
0.121604
0.126349
0.130374
0.131232
0.132262
0.140411
0.176805
0.185323
0.174162
0.145857
0.112186
0.137051
0.130653
0.210313
0.2096
0.224113
0.343677
0.0268692
0.026205
0.0245925
0.0235862
0.0225472
0.021785
0.0213927
0.0211597
0.0210259
0.0209012
0.0206441
0.0202331
0.0198277
0.0191292
0.0184891
0.0175595
0.0164967
0.015591
0.0148967
0.0147027
0.0146842
0.0147385
0.0151874
0.015534
0.0158142
0.0158365
0.0152471
0.0143122
0.013415
0.0130057
0.0128187
0.0128233
0.0129943
0.013019
0.0130248
0.0129535
0.0125461
0.0113046
0.0101199
0.00923363
0.00823078
0.00759619
0.00703351
0.00659372
0.00605384
0.00533608
0.0045045
0.00366918
0.00297152
0.0023757
0.00199354
0.00167175
0.00143487
0.00127141
0.00110695
0.00102701
0.000967245
0.000948392
0.000938441
0.000941547
0.000956971
0.000973843
0.00101035
0.00106675
0.00111437
0.00123947
0.00142396
0.00160589
0.00179833
0.00192039
0.002073
0.00210967
0.00208755
0.00204584
0.00193945
0.00186648
0.001739
0.00162949
0.00164336
0.00177526
0.00204765
0.00258721
0.00375368
0.00626828
0.0114227
0.0228552
0.0423573
0.0807247
0.138502
0.207209
0.291258
0.361104
0.414016
0.444543
0.463643
0.481781
0.482434
0.479462
0.465556
0.44898
0.410474
0.367952
0.322068
0.272881
0.233887
0.195153
0.158659
0.12952
0.104022
0.0822383
0.0659044
0.0534646
0.0443633
0.0385243
0.0340177
0.0305257
0.0302887
0.0318675
0.0366239
0.0508293
0.0676165
0.0900572
0.103365
0.109832
0.108709
0.106866
0.104684
0.0997314
0.0961243
0.0874896
0.0767379
0.0636805
0.0481621
0.0391126
0.036076
0.0322345
0.031804
0.0343571
0.0468081
0.129552
0.21923
0.244358
0.244181
0.219167
0.157226
0.116295
0.0954769
0.0835136
0.0727323
0.0638314
0.0545527
0.050526
0.0479538
0.0474782
0.0476196
0.0490066
0.0507371
0.0518223
0.0517331
0.0539578
0.0592081
0.0896803
0.100783
0.130283
0.141428
0.146225
0.160608
0.164125
0.173339
0.18658
0.251933
0.275317
0.276632
0.268112
0.242987
0.194881
0.17308
0.157663
0.139377
0.123717
0.102748
0.0905675
0.0826381
0.0812367
0.0835687
0.104101
0.122174
0.130926
0.134203
0.142826
0.164935
0.165384
0.164355
0.143844
0.167953
0.156785
0.166109
0.207329
0.215842
0.288892
0.00296325
0.00291683
0.00278446
0.00267735
0.00254918
0.00246459
0.00241928
0.00239959
0.0023928
0.00237954
0.00236294
0.00232901
0.00230357
0.00224807
0.00218997
0.00212326
0.00203261
0.00197415
0.00193648
0.00193365
0.0019377
0.00195302
0.00201604
0.00205193
0.00208673
0.00209404
0.00204846
0.00195348
0.00184385
0.00179128
0.00176662
0.00176378
0.00176552
0.00176194
0.00175615
0.00172928
0.00163916
0.00152928
0.00142498
0.00132539
0.00121955
0.00113733
0.00106379
0.000981612
0.000876869
0.000779908
0.000677433
0.000604896
0.00054532
0.000500826
0.000464951
0.00041441
0.000371722
0.000357242
0.000359214
0.000365397
0.000385686
0.000413506
0.000430873
0.000433512
0.000430581
0.000413134
0.00040747
0.000406755
0.000413302
0.000429734
0.0004408
0.000449754
0.000452235
0.00046123
0.000479063
0.000516983
0.000584377
0.000657621
0.000705168
0.0007947
0.000867041
0.000983371
0.00124369
0.00177764
0.00298182
0.00541179
0.0102575
0.0195658
0.0368983
0.0735342
0.12953
0.227349
0.326519
0.404191
0.451431
0.475274
0.492603
0.507269
0.527847
0.549875
0.555506
0.5519
0.537788
0.510551
0.459599
0.411989
0.36283
0.318592
0.275916
0.235569
0.203627
0.174584
0.140081
0.110677
0.084236
0.0655052
0.0519851
0.0423277
0.0360534
0.0311873
0.0288171
0.0279053
0.0285998
0.0315897
0.0378148
0.0480621
0.0586654
0.066712
0.0727998
0.0730565
0.0720431
0.0681234
0.0625995
0.0527097
0.0459359
0.0384326
0.031821
0.0292158
0.0283362
0.028301
0.0302316
0.0373081
0.0586647
0.154799
0.234024
0.253959
0.252358
0.218799
0.156362
0.115997
0.0940444
0.0858626
0.0790874
0.0649355
0.0560724
0.0535259
0.0488787
0.0486033
0.0482815
0.0495867
0.0499554
0.0522978
0.0524206
0.0615858
0.065611
0.0931475
0.121559
0.135761
0.177824
0.17285
0.20456
0.200066
0.248782
0.279736
0.307317
0.295663
0.279248
0.219716
0.193646
0.168629
0.159255
0.145847
0.137602
0.119698
0.1008
0.0887737
0.0756073
0.0694155
0.0680277
0.0726947
0.099239
0.124117
0.132595
0.136307
0.142663
0.15094
0.157788
0.149956
0.156846
0.156962
0.161389
0.193659
0.199541
0.23413
0.000259131
0.000262354
0.000261675
0.000258184
0.000248685
0.000239922
0.000230142
0.000220688
0.000214362
0.000210944
0.000209972
0.000212295
0.000217794
0.000221087
0.000221923
0.000222129
0.000221503
0.000219338
0.000218399
0.00021832
0.000219124
0.000221231
0.00022751
0.000233338
0.000238727
0.000242538
0.000243088
0.000240242
0.000228417
0.000219231
0.000210942
0.000207455
0.000205177
0.000205007
0.000205281
0.000205225
0.000205185
0.00020348
0.000197575
0.000193378
0.0001916
0.000192105
0.000196857
0.000202004
0.000211834
0.000225274
0.000243638
0.000253096
0.000259062
0.000261463
0.000263321
0.000268563
0.000279456
0.000299459
0.000349769
0.000412062
0.000465869
0.000470803
0.000469883
0.000441455
0.000415568
0.000390928
0.000383941
0.000374912
0.00035858
0.000346663
0.000342884
0.000348689
0.000360798
0.000392892
0.000421704
0.000453178
0.000500924
0.000552141
0.0006473
0.000775579
0.00103045
0.00153291
0.00281199
0.00494967
0.00989003
0.0171735
0.0330455
0.0589281
0.1154
0.210614
0.352222
0.431488
0.46736
0.484064
0.496566
0.502147
0.512387
0.525978
0.562774
0.585035
0.585839
0.575622
0.5493
0.501741
0.448353
0.400129
0.351362
0.313664
0.278964
0.25058
0.225207
0.200647
0.175644
0.15477
0.127371
0.0989045
0.0747461
0.0548873
0.0431767
0.0347725
0.0301613
0.028002
0.0266103
0.0267545
0.027762
0.0303413
0.0338509
0.03733
0.0408597
0.04234
0.0418068
0.0402841
0.0370806
0.0330341
0.0293955
0.0268729
0.0254642
0.0253156
0.0252972
0.0264176
0.0317259
0.0458504
0.0707598
0.166077
0.24599
0.266233
0.262923
0.21811
0.156869
0.113967
0.094481
0.0915188
0.0803932
0.0655147
0.0600393
0.0554398
0.0504772
0.0510883
0.0490219
0.051378
0.0507397
0.0553997
0.054429
0.0648042
0.0775417
0.0969523
0.176223
0.157896
0.216163
0.199923
0.250076
0.300254
0.343702
0.317705
0.304355
0.230947
0.21594
0.180136
0.178838
0.165051
0.160484
0.150033
0.145508
0.126344
0.113471
0.0953994
0.0802937
0.070822
0.0668083
0.0675662
0.0755415
0.101751
0.121909
0.135838
0.140979
0.146109
0.163655
0.151138
0.147904
0.150761
0.151368
0.1721
0.178083
0.1953
9.32521e-05
9.4814e-05
9.96393e-05
0.000100509
0.000100188
9.90836e-05
9.82814e-05
9.81399e-05
9.79522e-05
9.77482e-05
9.70704e-05
9.6729e-05
9.59209e-05
9.56712e-05
9.53659e-05
9.53117e-05
9.522e-05
9.52118e-05
9.57912e-05
9.75198e-05
9.9508e-05
0.000101435
0.000102859
0.000104287
0.000105993
0.000107526
0.000108271
0.000108507
0.000108609
0.000108826
0.00010924
0.000110983
0.000112182
0.000113976
0.000116906
0.000118704
0.000122829
0.00012662
0.000133271
0.00014183
0.000150582
0.000165627
0.000195398
0.000241373
0.000303967
0.000350755
0.00037997
0.00042519
0.000492792
0.000562623
0.000633765
0.000717518
0.00081273
0.000978716
0.00112184
0.00123111
0.00127474
0.00127764
0.00127229
0.00123244
0.00112897
0.00103608
0.000983737
0.000946417
0.000933859
0.000934025
0.000937118
0.000957566
0.000985729
0.00105617
0.00111171
0.00119957
0.00133682
0.00150527
0.00186872
0.00242455
0.00357531
0.00547759
0.0104011
0.0169347
0.0308787
0.0513758
0.0965926
0.172191
0.338412
0.45309
0.49625
0.499182
0.497282
0.490272
0.472363
0.464468
0.478639
0.520595
0.57571
0.586838
0.571137
0.523522
0.469968
0.405787
0.363541
0.328781
0.292838
0.269946
0.250448
0.234335
0.218264
0.19905
0.183932
0.168027
0.150417
0.133047
0.112975
0.0878417
0.0682135
0.0483339
0.0373456
0.0313998
0.0281492
0.027034
0.0265558
0.026804
0.0273459
0.0280062
0.0287362
0.0289535
0.0287535
0.0283048
0.027236
0.0260075
0.0249579
0.0243641
0.0243408
0.0245881
0.0255552
0.0284189
0.0379913
0.0520458
0.0746565
0.172381
0.261669
0.282212
0.27435
0.216715
0.155719
0.113097
0.100204
0.0937731
0.0801034
0.073389
0.0686897
0.0560277
0.0512555
0.0532882
0.0502635
0.0524217
0.0519466
0.0563914
0.059286
0.0697794
0.119252
0.111603
0.194708
0.176008
0.208909
0.283019
0.3701
0.384644
0.320263
0.243888
0.194814
0.183884
0.179451
0.167976
0.177753
0.161652
0.164241
0.153339
0.147752
0.122553
0.112399
0.0883853
0.078648
0.064848
0.0601258
0.0599362
0.0636351
0.0812683
0.0963508
0.130461
0.143197
0.141867
0.175179
0.155291
0.153548
0.148003
0.148387
0.157683
0.165301
0.172283
9.37222e-05
9.48729e-05
9.86504e-05
9.91376e-05
0.000100053
0.0001006
0.000101565
0.000104234
0.000105968
0.000108943
0.000110755
0.000112458
0.000113971
0.000114394
0.000115281
0.000115954
0.000116834
0.000121252
0.000129077
0.000138721
0.000149942
0.000158557
0.000167024
0.000172012
0.000175779
0.000177293
0.000178017
0.000179091
0.000181173
0.000193528
0.000205137
0.000235754
0.000254268
0.00028102
0.000317907
0.000338338
0.000378561
0.000407623
0.000465424
0.000531654
0.000646647
0.000731326
0.000887969
0.00113526
0.00136705
0.00164716
0.00178178
0.00200595
0.00227921
0.00259088
0.00297299
0.00312588
0.00342163
0.00366412
0.00399843
0.00429168
0.00438159
0.00441185
0.00437041
0.00416257
0.00385897
0.00355675
0.00337093
0.00319868
0.00315646
0.00315181
0.00324948
0.00355893
0.0037663
0.00400794
0.00417476
0.00440871
0.0048793
0.00549042
0.00690114
0.0090259
0.0135777
0.0197386
0.0337268
0.0530505
0.0868856
0.147997
0.283016
0.456158
0.530867
0.535989
0.520605
0.473515
0.41258
0.35972
0.363062
0.390385
0.46183
0.532098
0.556038
0.507482
0.428156
0.387333
0.354431
0.314652
0.280689
0.256648
0.24129
0.229806
0.221203
0.211634
0.200991
0.191339
0.182321
0.169264
0.157263
0.143483
0.129449
0.117617
0.100715
0.0810388
0.0635759
0.0464398
0.0371243
0.0320797
0.0297571
0.0285312
0.0279117
0.0278962
0.0279408
0.0276821
0.0274519
0.0270028
0.0266091
0.0259702
0.0258549
0.0261604
0.0278935
0.0301372
0.0353348
0.0408651
0.0461263
0.0559856
0.0778855
0.175122
0.271528
0.296014
0.283413
0.216176
0.154792
0.118752
0.101374
0.0917136
0.0856741
0.0845488
0.0715884
0.0585582
0.0572124
0.0530557
0.0529244
0.0537888
0.0560249
0.0607079
0.0785807
0.0828001
0.159943
0.139317
0.183834
0.206381
0.236797
0.431795
0.373927
0.321216
0.184752
0.174806
0.145
0.175852
0.152657
0.179631
0.172972
0.160336
0.16852
0.150025
0.148205
0.126313
0.12646
0.108881
0.102417
0.0744912
0.0661724
0.0624606
0.064445
0.0800447
0.0974114
0.119774
0.142479
0.134853
0.168178
0.161952
0.158216
0.143584
0.143163
0.143977
0.154619
0.159889
0.000240996
0.000244206
0.000251965
0.000254011
0.000260027
0.00026737
0.000280247
0.000320835
0.00036119
0.000407194
0.000452966
0.000481593
0.000515126
0.000534175
0.000556788
0.000573441
0.000582997
0.000617406
0.000667307
0.000751257
0.000838329
0.000912043
0.000992094
0.00103514
0.00107175
0.00108655
0.00109679
0.00110355
0.00112736
0.00124312
0.00136686
0.00159605
0.00171978
0.00196205
0.00213027
0.00232359
0.00257068
0.00272638
0.00311672
0.00340652
0.00400248
0.0044121
0.00515633
0.00611098
0.00676797
0.00779563
0.0082555
0.00894952
0.00964598
0.0102517
0.0113604
0.0118164
0.0127482
0.0133927
0.0138473
0.014006
0.013952
0.0138281
0.0133942
0.0124226
0.0113963
0.0106207
0.010243
0.0100482
0.0100564
0.0101725
0.0106455
0.0112048
0.0116087
0.0121773
0.0127409
0.0135642
0.0154894
0.0177485
0.0227698
0.0300984
0.0440414
0.0630258
0.0962225
0.149523
0.228125
0.42402
0.545604
0.581194
0.568133
0.507967
0.362754
0.303788
0.298906
0.310511
0.345732
0.419418
0.509449
0.512771
0.414033
0.366353
0.361162
0.344023
0.302828
0.269899
0.248486
0.238385
0.236656
0.234629
0.232775
0.226943
0.215558
0.201512
0.189169
0.175459
0.164342
0.152509
0.139966
0.131206
0.118206
0.107495
0.0913979
0.0781979
0.0646397
0.0510549
0.0434816
0.038469
0.035995
0.0343267
0.0330794
0.0323617
0.0323208
0.0326316
0.0335937
0.0348411
0.0362281
0.0390668
0.0431363
0.0456651
0.0505478
0.0576326
0.0635408
0.070176
0.0861919
0.156691
0.270019
0.30863
0.295914
0.2219
0.15915
0.121921
0.100881
0.0917866
0.0949769
0.0856632
0.0728448
0.0750761
0.0704216
0.0621613
0.0622102
0.0607551
0.0693909
0.0784602
0.107395
0.0995364
0.16623
0.165267
0.18178
0.301419
0.357296
0.405118
0.267985
0.206655
0.145318
0.135262
0.124229
0.146853
0.128463
0.187035
0.138
0.173573
0.169867
0.164437
0.174781
0.141917
0.161201
0.126389
0.133302
0.094057
0.0881414
0.0715555
0.0735358
0.0901561
0.114411
0.120388
0.152534
0.136031
0.163562
0.167588
0.164305
0.144889
0.143075
0.139526
0.145278
0.14962
0.00308026
0.0030952
0.00308291
0.00304578
0.00302573
0.0030438
0.00318911
0.00351569
0.00404289
0.00440092
0.00481371
0.00513323
0.00530371
0.00541917
0.00548363
0.00551657
0.00552654
0.00556742
0.00587157
0.00650181
0.00702934
0.00754188
0.0079672
0.00821488
0.00840822
0.00848795
0.00856176
0.00860924
0.0087922
0.00919497
0.00988368
0.0107099
0.0112903
0.0123648
0.0129731
0.0139002
0.0147906
0.015375
0.0168672
0.0177753
0.0195708
0.0210021
0.0230304
0.0254523
0.0268118
0.0292504
0.0303222
0.0320044
0.0336253
0.0348017
0.0368868
0.0379442
0.0391869
0.039513
0.0394372
0.03921
0.03851
0.0374093
0.035195
0.0332477
0.0316179
0.0301634
0.029257
0.0285523
0.0284607
0.0286457
0.0289965
0.0298896
0.0306746
0.032059
0.0344377
0.037154
0.044821
0.0528343
0.0678411
0.0920678
0.121412
0.179207
0.239049
0.380101
0.513615
0.601579
0.610066
0.564215
0.398391
0.287951
0.269431
0.270982
0.28714
0.327518
0.408872
0.474303
0.455283
0.352402
0.329628
0.342828
0.348999
0.331981
0.285106
0.253637
0.238019
0.235467
0.237915
0.241813
0.24462
0.242513
0.238185
0.228882
0.211818
0.193745
0.181071
0.168807
0.158571
0.150868
0.141334
0.13344
0.12331
0.116271
0.108035
0.0962274
0.0875424
0.07831
0.0685207
0.0640809
0.0632966
0.0608503
0.0586162
0.0591951
0.0599867
0.0609406
0.0623331
0.0650019
0.0714132
0.0770198
0.0787164
0.0789019
0.0776096
0.0780209
0.0834277
0.115933
0.248191
0.320592
0.314388
0.236504
0.161621
0.122897
0.105236
0.0956082
0.0955549
0.0868446
0.0855739
0.0855821
0.0773461
0.0765704
0.079843
0.0799977
0.0878167
0.10225
0.131857
0.119021
0.156367
0.179006
0.203257
0.370878
0.369505
0.300278
0.205505
0.183124
0.141903
0.117799
0.117938
0.116918
0.123171
0.15082
0.125054
0.177498
0.138238
0.181464
0.18556
0.184452
0.206809
0.153194
0.219746
0.140984
0.133136
0.0866653
0.0869078
0.103433
0.11727
0.122974
0.16185
0.139246
0.164245
0.179995
0.165981
0.144387
0.145486
0.140537
0.143173
0.146117