/*--------------------------------*- C++ -*----------------------------------*\
| =========                 |                                                 |
| \\      /  F ield         | OpenFOAM: The Open Source CFD Toolbox           |
|  \\    /   O peration     | Version:  2.4.0                                 |
|   \\  /    A nd           | Web:      www.OpenFOAM.org                      |
|    \\/     M anipulation  |                                                 |
\*---------------------------------------------------------------------------*/
FoamFile
{
    version     2.0;
    format      ascii;
    class       volScalarField;
    location    "1.78";
    object      nuSgs;
}
// * * * * * * * * * * * * * * * * * * * * * * * * * * * * * * * * * * * * * //

dimensions      [0 2 -1 0 0 0 0];

internalField   nonuniform List<scalar> 
8800
(
0.00133906
0.00150619
0.00139308
0.00122964
0.00111967
0.00105242
0.000995588
0.000960894
0.00092512
0.000905749
0.00087817
0.000869281
0.00084676
0.000841732
0.000821484
0.000818205
0.000800099
0.000796971
0.000789275
0.000766087
0.000555032
0.000981298
0.00108298
0.00108165
0.00106211
0.00103635
0.000999996
0.000978297
0.000948653
0.000931969
0.00090611
0.000896942
0.000875626
0.000868975
0.000852559
0.000847137
0.000832897
0.000828085
0.000815399
0.00081472
0.00013585
0.000406435
0.000582233
0.000659732
0.000705003
0.000737792
0.000750907
0.000761438
0.000759499
0.000758812
0.000754773
0.000751583
0.000744676
0.000740966
0.000736191
0.000730545
0.000727058
0.000721565
0.000714112
0.000710747
2.6974e-05
0.000125623
0.000227427
0.00031149
0.000359615
0.000394265
0.000428265
0.000457278
0.000473656
0.000490305
0.000508617
0.000515217
0.000528845
0.000534234
0.000545956
0.000548781
0.000557483
0.000557753
0.000560293
0.000558145
5.14544e-06
3.35473e-05
6.68851e-05
0.000107512
0.000145589
0.000162327
0.000190108
0.000214944
0.000231662
0.000246705
0.000269555
0.000277713
0.000294931
0.000303464
0.000321262
0.00032866
0.000345299
0.000350604
0.000361437
0.000365544
2.39242e-06
8.46443e-06
1.72948e-05
2.86958e-05
4.54191e-05
5.22355e-05
6.30907e-05
7.83608e-05
8.51814e-05
9.42642e-05
0.00011035
0.000116157
0.000126868
0.000135393
0.000144614
0.000154911
0.000163695
0.00017426
0.00017942
0.000189414
2.21693e-06
3.13305e-06
4.95795e-06
7.7966e-06
1.23987e-05
1.42726e-05
1.68114e-05
2.23602e-05
2.42406e-05
2.8193e-05
3.19482e-05
3.67359e-05
3.95739e-05
4.57121e-05
4.86947e-05
5.52792e-05
5.87081e-05
6.63391e-05
6.93238e-05
7.75764e-05
2.16057e-06
2.5991e-06
3.03864e-06
3.90232e-06
4.96402e-06
5.26852e-06
5.72371e-06
6.85495e-06
6.99988e-06
7.83255e-06
8.39428e-06
9.83474e-06
1.03602e-05
1.21766e-05
1.27167e-05
1.50621e-05
1.60754e-05
1.94514e-05
2.06733e-05
2.56568e-05
2.14728e-06
2.62711e-06
2.90054e-06
3.48202e-06
4.05811e-06
4.20997e-06
4.21363e-06
4.35839e-06
4.35702e-06
4.47239e-06
4.5491e-06
4.69717e-06
4.70473e-06
4.80744e-06
4.82358e-06
5.1854e-06
5.42441e-06
6.16056e-06
6.42491e-06
7.50887e-06
2.1332e-06
2.58004e-06
3.26368e-06
3.34594e-06
3.48094e-06
3.77422e-06
3.94028e-06
4.07758e-06
4.11774e-06
4.09634e-06
4.08187e-06
4.10916e-06
4.12275e-06
4.13593e-06
4.12381e-06
4.12833e-06
4.12538e-06
4.15535e-06
4.25429e-06
4.49857e-06
2.12737e-06
2.5877e-06
3.29875e-06
3.30635e-06
3.33695e-06
3.77346e-06
4.01002e-06
4.09956e-06
4.09584e-06
4.13216e-06
4.15983e-06
4.1664e-06
4.14441e-06
4.08899e-06
4.05488e-06
4.05838e-06
4.06182e-06
4.14876e-06
4.31844e-06
4.52733e-06
2.13923e-06
2.64681e-06
3.10729e-06
3.32374e-06
3.8738e-06
4.17786e-06
4.20776e-06
4.22488e-06
4.25697e-06
4.3885e-06
4.4673e-06
4.6237e-06
4.67952e-06
4.82753e-06
4.92192e-06
5.038e-06
5.17557e-06
5.51284e-06
6.1209e-06
7.13028e-06
2.15397e-06
2.56468e-06
3.25313e-06
4.43445e-06
4.62358e-06
4.95565e-06
5.17382e-06
5.99732e-06
6.7388e-06
8.17114e-06
8.87556e-06
1.03393e-05
1.09881e-05
1.22621e-05
1.28669e-05
1.43577e-05
1.55932e-05
1.84856e-05
2.0423e-05
2.45042e-05
2.18165e-06
3.09177e-06
6.55883e-06
9.41804e-06
1.04403e-05
1.33657e-05
1.57467e-05
2.1117e-05
2.42766e-05
3.00442e-05
3.28608e-05
3.85775e-05
4.10902e-05
4.62683e-05
4.87177e-05
5.45412e-05
5.83684e-05
6.70101e-05
7.17631e-05
8.3021e-05
2.34579e-06
8.24032e-06
2.24745e-05
3.28937e-05
3.86138e-05
5.24994e-05
6.08738e-05
7.73197e-05
8.55919e-05
0.000100465
0.000107076
0.000120314
0.000126078
0.000138229
0.000143539
0.000155859
0.00016273
0.000178582
0.000186417
0.000206268
5.20707e-06
3.29748e-05
8.00311e-05
0.000109911
0.000130429
0.000169035
0.000186207
0.000215102
0.000230757
0.000253563
0.000263909
0.000283176
0.000291418
0.000309051
0.000316322
0.000333104
0.000341368
0.000360964
0.00036966
0.000391314
2.72309e-05
0.000123822
0.000244918
0.000301257
0.000356074
0.000396985
0.000427525
0.000453095
0.000476491
0.000492797
0.000506083
0.000517819
0.000526088
0.000537555
0.000542134
0.000551987
0.000556413
0.000567298
0.000571293
0.000581018
0.000136567
0.000400627
0.000590236
0.000652662
0.000709845
0.000733372
0.000754601
0.000757078
0.000762023
0.000757939
0.000756119
0.000748769
0.000746554
0.000739328
0.0007372
0.000730944
0.000729641
0.000725808
0.000724013
0.000720026
0.000556734
0.000980832
0.00108403
0.0010804
0.00106488
0.00102879
0.00100769
0.00097145
0.000955096
0.000924736
0.000913532
0.000888958
0.000881855
0.000862281
0.000857845
0.000841206
0.000837332
0.00082168
0.000816523
0.000802749
0.00133887
0.0015063
0.00139342
0.0012272
0.00112387
0.00104578
0.00100208
0.000954795
0.000931546
0.000897641
0.000886066
0.000860397
0.000854229
0.000831951
0.000828419
0.000806595
0.000801976
0.000776873
0.000767931
0.000735519
0.00035221
0.00030036
0.000263097
0.000234417
0.000211006
0.000194092
0.000182852
0.00017716
0.000175223
0.000175765
0.000177087
0.000179592
0.000181341
0.000183215
0.000184706
0.000184994
0.000184958
0.000184871
0.000184565
0.000183756
0.000181926
0.000180172
0.000176936
0.000174317
0.000170002
0.000166447
0.000162785
0.000159546
0.000156578
0.00015528
0.000155274
0.000155784
0.000157841
0.000160636
0.000165221
0.000168343
0.000170898
0.000172182
0.000172395
0.000172788
0.000172897
0.000173172
0.000173223
0.00017356
0.000173471
0.000173221
0.000172549
0.000171928
0.000170279
0.000168614
0.00016592
0.000163384
0.00015982
0.000157547
0.000154546
0.000151705
0.000150783
0.000150908
0.000152
0.0001543
0.000158709
0.000163376
0.000167276
0.000168032
0.000167058
0.000160153
0.000143188
0.00012969
0.000122079
0.000116066
0.000112582
0.000107035
0.000103931
0.000100202
9.72472e-05
9.3538e-05
9.29165e-05
9.34372e-05
9.58141e-05
9.8326e-05
0.000103046
0.00010324
0.000102844
0.00010135
9.91955e-05
9.49038e-05
8.74781e-05
7.6626e-05
6.27846e-05
5.00669e-05
4.02282e-05
3.40252e-05
3.04831e-05
2.9145e-05
2.93201e-05
3.00741e-05
3.17771e-05
3.35402e-05
3.68981e-05
4.07788e-05
4.55899e-05
4.73902e-05
4.99608e-05
5.08778e-05
5.21971e-05
5.18742e-05
5.08025e-05
5.05246e-05
5.03079e-05
5.14936e-05
5.27459e-05
5.19268e-05
5.25821e-05
6.40169e-05
0.00010366
0.000129267
0.000132159
0.000126256
0.000107173
9.15844e-05
8.09754e-05
7.41171e-05
6.97735e-05
6.66544e-05
6.43408e-05
6.29748e-05
6.18822e-05
6.04281e-05
5.95693e-05
5.9568e-05
6.01194e-05
6.18626e-05
6.8165e-05
7.36489e-05
7.62303e-05
7.71328e-05
7.64193e-05
7.14335e-05
6.2717e-05
6.02291e-05
6.20724e-05
7.95876e-05
0.000103145
0.000109846
0.00011015
0.000103603
8.96532e-05
7.94932e-05
7.2821e-05
6.81197e-05
6.42066e-05
6.14801e-05
6.01729e-05
6.00744e-05
6.05475e-05
6.07126e-05
6.09447e-05
6.14801e-05
6.28251e-05
6.59267e-05
7.60943e-05
8.29593e-05
8.54306e-05
8.51167e-05
8.47539e-05
8.44281e-05
8.44771e-05
8.44831e-05
8.48824e-05
8.47164e-05
8.4231e-05
8.29097e-05
8.12714e-05
7.92466e-05
7.76526e-05
7.63554e-05
7.41235e-05
7.2318e-05
7.18147e-05
7.18614e-05
7.22389e-05
7.40616e-05
7.60699e-05
7.77074e-05
8.19702e-05
8.45365e-05
8.37814e-05
8.33047e-05
8.36805e-05
8.21312e-05
7.33601e-05
6.45713e-05
6.13554e-05
6.21239e-05
7.05409e-05
7.94918e-05
0.000101359
0.000120787
0.000149614
0.000440753
0.000412638
0.000374508
0.000342888
0.000317825
0.000297608
0.00028102
0.00026736
0.00025623
0.000246877
0.000239582
0.000233287
0.000228643
0.000224576
0.000221396
0.000218513
0.000216016
0.00021355
0.000211585
0.000209014
0.000207855
0.000205511
0.000204562
0.000202855
0.000201676
0.000200314
0.000198672
0.000196691
0.000194784
0.000192174
0.000189691
0.000187997
0.00018585
0.000184358
0.000182939
0.000181362
0.000180921
0.000180008
0.000179764
0.00017885
0.000178342
0.000177027
0.000176182
0.000174357
0.000173284
0.000170945
0.000169265
0.00016618
0.000162793
0.000158813
0.000154289
0.000149229
0.000143789
0.000138694
0.000132803
0.000128149
0.000122874
0.000119665
0.000117072
0.000117032
0.000117647
0.00012049
0.00012587
0.000132998
0.000142737
0.000154227
0.000159194
0.000159373
0.000157538
0.00015178
0.000142891
0.000135998
0.000128465
0.000123026
0.000117816
0.000115061
0.00011464
0.000114861
0.000114606
0.00011371
0.000112067
0.000109621
0.000104939
0.000100885
9.20191e-05
8.02249e-05
6.53027e-05
5.0837e-05
3.99692e-05
3.25374e-05
2.81512e-05
2.59441e-05
2.60605e-05
2.66848e-05
2.81344e-05
3.04293e-05
3.51845e-05
3.97599e-05
4.37708e-05
5.01091e-05
5.34575e-05
5.6247e-05
5.8938e-05
6.12276e-05
6.13509e-05
6.09496e-05
5.99855e-05
5.74897e-05
5.5056e-05
5.30349e-05
5.26977e-05
5.30191e-05
5.31914e-05
5.28547e-05
5.53941e-05
7.08606e-05
0.000108269
0.000123617
0.00012297
0.000115866
0.000100811
8.70813e-05
7.84822e-05
7.28095e-05
6.91836e-05
6.61969e-05
6.46278e-05
6.31816e-05
6.21608e-05
6.20466e-05
6.24534e-05
6.4172e-05
7.0132e-05
7.46002e-05
7.67598e-05
7.78049e-05
7.77752e-05
7.50072e-05
6.50675e-05
5.93922e-05
5.85387e-05
6.41516e-05
9.16441e-05
0.000108665
0.000112921
0.00011152
9.92403e-05
8.62932e-05
7.71244e-05
7.11703e-05
6.64524e-05
6.27093e-05
6.04178e-05
5.93185e-05
5.92498e-05
5.93383e-05
5.92445e-05
5.92502e-05
5.9496e-05
6.02935e-05
6.21188e-05
6.85785e-05
7.80855e-05
8.2831e-05
8.36087e-05
8.45174e-05
8.45543e-05
8.45924e-05
8.48437e-05
8.51632e-05
8.49914e-05
8.44006e-05
8.34556e-05
8.27596e-05
8.1369e-05
7.88551e-05
7.74141e-05
7.72744e-05
7.76824e-05
7.9003e-05
8.11072e-05
8.67419e-05
9.00735e-05
9.24271e-05
9.31304e-05
9.40168e-05
9.73973e-05
9.93169e-05
9.83069e-05
9.76208e-05
9.46918e-05
8.00386e-05
6.61993e-05
6.02586e-05
6.04489e-05
6.71112e-05
7.64343e-05
9.5333e-05
0.00011568
0.000152548
0.000346162
0.000370819
0.000350193
0.000329767
0.000312216
0.000296788
0.000283668
0.0002724
0.000262575
0.000254117
0.000246497
0.00023978
0.000233812
0.000228285
0.000223501
0.000218952
0.000215506
0.000211982
0.000209529
0.000206682
0.000204494
0.000201854
0.000199917
0.000197573
0.000196144
0.000194598
0.000193458
0.00019259
0.000191491
0.000190699
0.00018984
0.000188458
0.000187767
0.000186153
0.000185466
0.000183929
0.000183112
0.0001814
0.000180067
0.000177776
0.000175449
0.000172456
0.000169323
0.000165836
0.000161373
0.000157576
0.000151922
0.000147044
0.000140823
0.000134775
0.000128165
0.00012208
0.000115185
0.000109574
0.000104386
9.9817e-05
9.53048e-05
9.13359e-05
8.54615e-05
8.01388e-05
7.83726e-05
7.85389e-05
8.01593e-05
8.334e-05
9.0389e-05
9.86644e-05
0.00010984
0.00012013
0.000131425
0.000136991
0.000137325
0.000136769
0.000135995
0.000134592
0.000132648
0.000129908
0.000127161
0.000122341
0.000118226
0.000111904
0.000103512
9.2032e-05
8.07453e-05
6.44243e-05
5.08535e-05
4.00851e-05
3.20316e-05
2.66377e-05
2.35462e-05
2.28545e-05
2.31922e-05
2.42601e-05
2.66564e-05
3.15932e-05
3.73017e-05
4.46239e-05
5.36073e-05
5.99198e-05
6.52362e-05
7.07488e-05
7.29665e-05
7.52291e-05
7.57883e-05
7.53172e-05
7.42783e-05
7.20029e-05
7.00332e-05
6.60173e-05
6.26933e-05
5.86297e-05
5.58592e-05
5.42786e-05
5.41427e-05
5.2949e-05
5.30287e-05
5.7425e-05
7.39787e-05
0.000106434
0.000116146
0.000114361
0.000107854
9.82182e-05
8.87341e-05
8.01891e-05
7.46871e-05
7.09188e-05
6.81138e-05
6.68975e-05
6.6975e-05
6.77366e-05
7.03117e-05
7.40973e-05
7.62415e-05
7.79478e-05
7.82903e-05
7.8448e-05
7.71172e-05
6.80543e-05
5.88985e-05
5.55212e-05
5.68074e-05
7.07421e-05
0.000102953
0.000114617
0.000116533
0.000111993
9.56344e-05
8.34699e-05
7.59091e-05
7.01698e-05
6.51847e-05
6.19713e-05
5.93114e-05
5.84119e-05
5.79892e-05
5.7728e-05
5.72753e-05
5.73575e-05
5.75039e-05
5.80161e-05
5.93362e-05
6.33056e-05
7.35381e-05
8.0899e-05
8.37149e-05
8.45537e-05
8.52964e-05
8.52967e-05
8.6016e-05
8.60024e-05
8.61279e-05
8.58969e-05
8.55365e-05
8.39367e-05
8.31279e-05
8.32293e-05
8.43156e-05
8.68055e-05
9.22836e-05
9.79434e-05
0.000100252
0.000100318
9.99908e-05
9.94898e-05
9.74158e-05
9.70544e-05
9.78655e-05
0.000100875
0.000104845
0.000108987
0.000108273
9.44079e-05
7.17804e-05
6.13988e-05
6.08689e-05
6.6496e-05
7.41725e-05
9.50174e-05
0.000110693
0.00014857
0.000256255
0.000296144
0.000285804
0.000274663
0.00026431
0.000254652
0.000245292
0.000237606
0.000229678
0.000223212
0.000217181
0.000211546
0.000206618
0.000201547
0.000196661
0.000192055
0.000187554
0.000183972
0.000180741
0.000178431
0.000176202
0.000174571
0.000172022
0.000170512
0.000167572
0.000165979
0.000163717
0.000162657
0.000161445
0.000160964
0.000160451
0.00016023
0.000159986
0.000159394
0.000158375
0.000157768
0.000156103
0.000154942
0.000152354
0.000150754
0.000147768
0.00014493
0.00014104
0.000136423
0.000131553
0.000125903
0.000119137
0.000112148
0.000103705
9.53918e-05
8.64015e-05
7.78339e-05
7.09471e-05
6.47731e-05
6.08252e-05
5.74212e-05
5.49016e-05
5.32412e-05
5.13445e-05
4.89818e-05
4.75628e-05
4.74309e-05
4.7883e-05
4.91193e-05
5.2212e-05
5.6058e-05
6.51923e-05
7.26887e-05
7.76585e-05
8.49983e-05
9.09607e-05
9.65656e-05
9.92119e-05
9.90461e-05
9.79165e-05
9.53594e-05
9.01664e-05
8.3508e-05
7.38777e-05
6.40316e-05
5.43341e-05
4.55801e-05
3.77676e-05
3.0985e-05
2.57633e-05
2.21562e-05
2.01243e-05
2.01789e-05
2.06685e-05
2.21958e-05
2.55486e-05
3.15002e-05
4.07008e-05
5.12128e-05
6.15905e-05
7.26054e-05
8.17122e-05
8.74716e-05
9.28658e-05
9.6147e-05
9.66265e-05
9.60727e-05
9.46263e-05
9.12966e-05
8.83989e-05
8.3617e-05
7.98367e-05
7.46445e-05
6.95426e-05
6.37333e-05
5.87862e-05
5.57131e-05
5.44681e-05
5.23022e-05
5.20178e-05
5.27984e-05
5.83538e-05
7.35231e-05
0.000101215
0.000108613
0.000106912
0.000102279
9.65238e-05
9.02032e-05
8.52453e-05
8.15078e-05
7.80622e-05
7.67926e-05
7.69184e-05
7.72603e-05
7.7995e-05
7.89086e-05
7.92469e-05
7.93702e-05
7.91075e-05
7.75975e-05
7.04397e-05
5.88542e-05
5.29926e-05
5.27671e-05
5.71933e-05
8.49259e-05
0.000111809
0.000118783
0.000118978
0.000110089
9.34112e-05
8.18378e-05
7.55418e-05
6.93822e-05
6.46061e-05
6.11422e-05
5.8302e-05
5.79983e-05
5.75668e-05
5.7619e-05
5.77685e-05
5.78275e-05
5.76173e-05
5.77594e-05
5.8179e-05
6.03564e-05
6.99932e-05
7.77231e-05
8.38268e-05
8.51928e-05
8.74129e-05
8.72373e-05
8.85684e-05
8.87304e-05
8.92203e-05
8.89436e-05
8.92402e-05
8.9576e-05
9.0881e-05
9.36944e-05
0.00010275
0.000108454
0.000108967
0.000108507
0.000107038
0.000104592
0.000101635
0.000100017
9.71601e-05
9.49342e-05
9.50264e-05
9.69706e-05
0.000102028
0.000110802
0.000114258
0.000109857
8.48022e-05
6.58795e-05
6.25756e-05
6.70693e-05
7.35107e-05
9.64245e-05
0.000107404
0.000143355
0.000202833
0.000196843
0.000193175
0.000188117
0.000183223
0.000178566
0.000173184
0.000168882
0.000164728
0.000160305
0.00015712
0.000153263
0.000149928
0.00014711
0.000143151
0.000140403
0.000136213
0.000132888
0.00012929
0.000126721
0.000124669
0.000123777
0.000123054
0.000122808
0.000121996
0.000120901
0.000118655
0.000116597
0.000114637
0.000113193
0.000112663
0.000112455
0.000112545
0.000112605
0.000112574
0.000112366
0.000110865
0.000109286
0.000106135
0.000103129
0.000100123
9.57229e-05
9.25026e-05
8.83352e-05
8.41748e-05
7.95966e-05
7.39944e-05
6.85554e-05
6.23536e-05
5.63343e-05
5.0476e-05
4.48569e-05
4.03062e-05
3.62575e-05
3.35817e-05
3.1644e-05
3.04677e-05
2.97711e-05
2.92605e-05
2.84755e-05
2.73278e-05
2.69329e-05
2.6974e-05
2.72469e-05
2.80692e-05
2.93091e-05
3.26797e-05
3.66312e-05
4.01727e-05
4.44913e-05
4.71369e-05
5.01308e-05
5.07212e-05
5.04462e-05
4.95151e-05
4.73991e-05
4.41098e-05
4.03373e-05
3.60224e-05
3.19237e-05
2.77474e-05
2.38769e-05
2.07359e-05
1.83433e-05
1.72548e-05
1.74909e-05
1.82198e-05
1.99597e-05
2.37726e-05
3.15832e-05
4.1294e-05
5.45628e-05
6.9734e-05
8.28745e-05
9.70257e-05
0.000107668
0.000115409
0.00012076
0.000124521
0.000124471
0.000123379
0.000121124
0.000116225
0.000110884
0.000105274
9.81551e-05
9.20611e-05
8.44249e-05
7.74773e-05
7.05413e-05
6.29758e-05
5.80572e-05
5.49874e-05
5.25806e-05
5.00917e-05
5.00103e-05
5.12718e-05
5.68102e-05
7.10637e-05
9.16564e-05
0.000100715
0.000100263
9.78981e-05
9.38979e-05
9.1094e-05
8.7706e-05
8.53904e-05
8.37641e-05
8.27477e-05
8.16536e-05
8.14334e-05
8.07563e-05
8.06476e-05
7.9965e-05
7.75098e-05
6.84409e-05
5.85092e-05
5.16544e-05
5.00565e-05
5.13889e-05
6.12323e-05
9.79405e-05
0.000118054
0.000122177
0.000121025
0.000108146
9.15954e-05
8.10108e-05
7.5436e-05
6.9141e-05
6.44503e-05
6.06317e-05
5.80168e-05
5.67271e-05
5.6388e-05
5.69161e-05
5.7357e-05
5.83886e-05
5.82653e-05
5.80387e-05
5.82708e-05
6.01156e-05
6.92124e-05
7.72171e-05
8.55069e-05
8.69776e-05
8.96372e-05
9.04032e-05
9.34388e-05
9.39622e-05
9.47159e-05
9.54021e-05
9.71012e-05
9.992e-05
0.00010803
0.000117864
0.000118956
0.000117194
0.000114086
0.000110953
0.000107345
0.000105479
0.000101433
9.99477e-05
9.88302e-05
9.71195e-05
9.47016e-05
9.41668e-05
9.57157e-05
0.000105162
0.000113717
0.000113313
0.0001031
7.65205e-05
6.81741e-05
7.1559e-05
7.62895e-05
0.000106361
0.000108913
0.000127541
0.000170175
0.00010286
0.000101814
9.9428e-05
9.74025e-05
9.52439e-05
9.28664e-05
9.12038e-05
8.97928e-05
8.81351e-05
8.72567e-05
8.5608e-05
8.42606e-05
8.30323e-05
8.10685e-05
7.95779e-05
7.72527e-05
7.49534e-05
7.27845e-05
7.06687e-05
6.92964e-05
6.85596e-05
6.84256e-05
6.85716e-05
6.89505e-05
6.92342e-05
6.91653e-05
6.78558e-05
6.62894e-05
6.44582e-05
6.36273e-05
6.30145e-05
6.29735e-05
6.29624e-05
6.29235e-05
6.28623e-05
6.2629e-05
6.20583e-05
5.99235e-05
5.73054e-05
5.48803e-05
5.16244e-05
4.91489e-05
4.65224e-05
4.43189e-05
4.23693e-05
3.97518e-05
3.70995e-05
3.37436e-05
3.04246e-05
2.70816e-05
2.40717e-05
2.15792e-05
1.95252e-05
1.81066e-05
1.70644e-05
1.64677e-05
1.60127e-05
1.57442e-05
1.53921e-05
1.48633e-05
1.47674e-05
1.47935e-05
1.49201e-05
1.5291e-05
1.57785e-05
1.67044e-05
1.91103e-05
2.07042e-05
2.24706e-05
2.40967e-05
2.52084e-05
2.52558e-05
2.5028e-05
2.43807e-05
2.29735e-05
2.14344e-05
2.00006e-05
1.83701e-05
1.69341e-05
1.54161e-05
1.41408e-05
1.4079e-05
1.45253e-05
1.55717e-05
1.76821e-05
2.19934e-05
2.91993e-05
3.97498e-05
5.59796e-05
7.24252e-05
9.19381e-05
0.000109377
0.000125042
0.000138916
0.000146455
0.000152297
0.000155356
0.000155352
0.000154161
0.000151283
0.000146816
0.000138631
0.000131689
0.000122701
0.000113654
0.000104917
9.51453e-05
8.64706e-05
7.83311e-05
6.96598e-05
6.27179e-05
5.69428e-05
5.32038e-05
5.03799e-05
4.76846e-05
4.7541e-05
4.88382e-05
5.39451e-05
6.39923e-05
8.07844e-05
9.16438e-05
9.39458e-05
9.30111e-05
9.14605e-05
8.86028e-05
8.71594e-05
8.55402e-05
8.40556e-05
8.30653e-05
8.24685e-05
8.09687e-05
7.93713e-05
7.45366e-05
6.35567e-05
5.61985e-05
5.17455e-05
4.81815e-05
4.81847e-05
5.12978e-05
7.06694e-05
0.000110091
0.000123849
0.000125259
0.000122353
0.000106251
9.02539e-05
8.06984e-05
7.52578e-05
6.92082e-05
6.49293e-05
6.03736e-05
5.7866e-05
5.649e-05
5.59319e-05
5.62813e-05
5.73871e-05
5.8159e-05
5.8148e-05
5.82602e-05
5.86575e-05
6.05366e-05
7.0464e-05
7.73414e-05
8.92351e-05
9.09838e-05
9.52977e-05
9.56943e-05
9.74233e-05
9.97321e-05
0.0001007
0.000102692
0.000109326
0.000123642
0.000127818
0.000127352
0.000124218
0.00011705
0.000114153
0.000108016
0.00010303
9.59448e-05
9.05445e-05
8.99685e-05
9.00366e-05
9.11153e-05
9.25737e-05
9.29134e-05
9.32046e-05
9.55736e-05
0.000107605
0.000111411
0.000108518
9.85596e-05
8.37761e-05
9.20792e-05
8.97798e-05
0.000116343
0.000116024
0.00012019
0.000150248
4.22208e-05
4.17033e-05
4.04564e-05
3.95757e-05
3.8705e-05
3.79914e-05
3.75965e-05
3.73516e-05
3.72055e-05
3.70889e-05
3.6898e-05
3.65333e-05
3.62028e-05
3.55888e-05
3.50363e-05
3.42363e-05
3.32101e-05
3.22626e-05
3.14054e-05
3.10729e-05
3.10105e-05
3.10257e-05
3.13804e-05
3.17973e-05
3.21732e-05
3.22941e-05
3.20096e-05
3.1098e-05
3.00143e-05
2.94228e-05
2.90927e-05
2.90431e-05
2.91874e-05
2.92432e-05
2.92669e-05
2.92084e-05
2.89796e-05
2.78083e-05
2.62279e-05
2.50169e-05
2.35541e-05
2.25101e-05
2.15746e-05
2.08453e-05
2.00414e-05
1.89278e-05
1.75013e-05
1.58531e-05
1.42906e-05
1.27497e-05
1.16312e-05
1.06391e-05
9.80914e-06
9.22688e-06
8.57644e-06
8.21134e-06
7.93205e-06
7.83781e-06
7.79289e-06
7.80215e-06
7.86471e-06
7.93451e-06
8.07065e-06
8.30527e-06
8.491e-06
8.86201e-06
9.52558e-06
1.0147e-05
1.08017e-05
1.11538e-05
1.1609e-05
1.17593e-05
1.17103e-05
1.15995e-05
1.12959e-05
1.10668e-05
1.0703e-05
1.03252e-05
1.03337e-05
1.06958e-05
1.14601e-05
1.28314e-05
1.53882e-05
1.98659e-05
2.68963e-05
3.82032e-05
5.19661e-05
7.23758e-05
9.5286e-05
0.000117146
0.000139144
0.000155252
0.000166135
0.000172207
0.000175725
0.000179755
0.000180246
0.000179901
0.000177556
0.000174477
0.00016739
0.000158467
0.000148563
0.000136683
0.000126441
0.000115694
0.000104275
9.40561e-05
8.43849e-05
7.49881e-05
6.70454e-05
6.02697e-05
5.48766e-05
5.11394e-05
4.80233e-05
4.54643e-05
4.5203e-05
4.6345e-05
4.96825e-05
5.83973e-05
6.78964e-05
7.81507e-05
8.38774e-05
8.61738e-05
8.56751e-05
8.46529e-05
8.37974e-05
8.1894e-05
8.04956e-05
7.75362e-05
7.28516e-05
6.69393e-05
5.82383e-05
5.16311e-05
4.9434e-05
4.65614e-05
4.57962e-05
4.71568e-05
5.34514e-05
8.51552e-05
0.000117526
0.000126576
0.000127142
0.000122539
0.000104971
8.9724e-05
8.04688e-05
7.52359e-05
7.06101e-05
6.5744e-05
6.0512e-05
5.80703e-05
5.63238e-05
5.59298e-05
5.59363e-05
5.6616e-05
5.77192e-05
5.84259e-05
5.83606e-05
5.93297e-05
6.16322e-05
7.5096e-05
7.99371e-05
9.22639e-05
9.60335e-05
9.80604e-05
0.000102606
0.000103778
0.000106797
0.000109534
0.000125961
0.00013417
0.00013527
0.000133537
0.000128837
0.000115506
0.000108178
0.000103269
9.73645e-05
9.20536e-05
8.40304e-05
7.85718e-05
7.46811e-05
7.36914e-05
7.4295e-05
8.12418e-05
8.88143e-05
9.23933e-05
9.36631e-05
9.67731e-05
0.000105042
0.000105725
0.000105687
9.81614e-05
0.000106008
0.000101392
0.00010463
0.000116027
0.000118592
0.000138614
1.40287e-05
1.39185e-05
1.36e-05
1.33399e-05
1.30299e-05
1.27973e-05
1.26604e-05
1.25907e-05
1.25676e-05
1.25272e-05
1.24876e-05
1.23944e-05
1.23269e-05
1.2195e-05
1.20395e-05
1.1877e-05
1.16202e-05
1.14347e-05
1.12914e-05
1.12661e-05
1.12716e-05
1.12946e-05
1.14535e-05
1.15758e-05
1.16997e-05
1.17466e-05
1.1699e-05
1.1471e-05
1.11254e-05
1.09223e-05
1.08124e-05
1.07831e-05
1.07866e-05
1.07775e-05
1.07608e-05
1.07154e-05
1.05017e-05
1.01462e-05
9.78328e-06
9.43691e-06
9.03809e-06
8.69856e-06
8.39932e-06
8.08786e-06
7.66418e-06
7.24653e-06
6.75936e-06
6.3732e-06
6.04902e-06
5.78923e-06
5.60468e-06
5.32379e-06
5.02916e-06
4.88609e-06
4.88638e-06
4.916e-06
5.01704e-06
5.20085e-06
5.3368e-06
5.37321e-06
5.36485e-06
5.2712e-06
5.21152e-06
5.19614e-06
5.21876e-06
5.32054e-06
5.40103e-06
5.47502e-06
5.49137e-06
5.53829e-06
5.62917e-06
5.81123e-06
6.16098e-06
6.55871e-06
6.80646e-06
7.2409e-06
7.56217e-06
8.02131e-06
8.89271e-06
1.05233e-05
1.35813e-05
1.82088e-05
2.52879e-05
3.50067e-05
4.83209e-05
6.84653e-05
9.13833e-05
0.000121851
0.000146771
0.000163458
0.000172774
0.000177359
0.000180618
0.00018322
0.000187086
0.000191395
0.000192579
0.000191992
0.000189562
0.000185036
0.000175854
0.000166736
0.000156595
0.000146804
0.000136752
0.000126286
0.000117057
0.000108478
9.72839e-05
8.62817e-05
7.53554e-05
6.64172e-05
5.91656e-05
5.34737e-05
4.93724e-05
4.5934e-05
4.40734e-05
4.33642e-05
4.39135e-05
4.61702e-05
5.06343e-05
5.7202e-05
6.33333e-05
6.78341e-05
7.09706e-05
7.11068e-05
7.06707e-05
6.87997e-05
6.62279e-05
6.0778e-05
5.64663e-05
5.17558e-05
4.67798e-05
4.43276e-05
4.34321e-05
4.31841e-05
4.43258e-05
4.86072e-05
5.89432e-05
9.39676e-05
0.000121898
0.000129254
0.000129442
0.000122836
0.000104488
8.94526e-05
7.98397e-05
7.63414e-05
7.32279e-05
6.62685e-05
6.13921e-05
5.98258e-05
5.69258e-05
5.66769e-05
5.64024e-05
5.70626e-05
5.72894e-05
5.86117e-05
5.86615e-05
6.30243e-05
6.46857e-05
7.73064e-05
8.714e-05
9.37002e-05
0.000107417
0.00010615
0.000115978
0.000114314
0.000125485
0.000133897
0.000142275
0.000140077
0.000137331
0.000123081
0.000114841
0.000106831
0.00010366
9.90061e-05
9.65063e-05
9.06107e-05
8.30901e-05
7.79707e-05
7.18504e-05
6.8386e-05
6.71868e-05
6.87532e-05
7.84911e-05
8.94229e-05
9.32386e-05
9.45495e-05
9.73559e-05
0.000100495
0.000103809
0.000100757
0.000102797
0.000102337
0.00010357
0.000113266
0.000114595
0.00012417
4.14903e-06
4.1842e-06
4.18108e-06
4.15463e-06
4.08363e-06
4.01207e-06
3.93346e-06
3.84925e-06
3.78381e-06
3.7425e-06
3.72502e-06
3.73009e-06
3.77228e-06
3.80759e-06
3.81953e-06
3.82345e-06
3.82178e-06
3.80575e-06
3.7946e-06
3.79252e-06
3.79607e-06
3.80841e-06
3.8531e-06
3.90535e-06
3.95417e-06
3.99551e-06
4.00691e-06
4.00257e-06
3.92434e-06
3.8394e-06
3.75697e-06
3.71626e-06
3.68855e-06
3.68119e-06
3.68253e-06
3.68164e-06
3.68189e-06
3.67575e-06
3.63233e-06
3.58667e-06
3.56097e-06
3.56064e-06
3.59351e-06
3.63872e-06
3.72083e-06
3.829e-06
3.99797e-06
4.1015e-06
4.17033e-06
4.20397e-06
4.22001e-06
4.25654e-06
4.32724e-06
4.45753e-06
4.75617e-06
5.16626e-06
5.58348e-06
5.65336e-06
5.66131e-06
5.5427e-06
5.35781e-06
5.16836e-06
5.10189e-06
5.04666e-06
4.93916e-06
4.84322e-06
4.79837e-06
4.82122e-06
4.89231e-06
5.09821e-06
5.31213e-06
5.50953e-06
5.80921e-06
6.08172e-06
6.57558e-06
7.16214e-06
8.17909e-06
9.87752e-06
1.3121e-05
1.74794e-05
2.46975e-05
3.27261e-05
4.54595e-05
6.09602e-05
8.54254e-05
0.000116089
0.000151594
0.000168596
0.000175644
0.000178666
0.000181025
0.000182083
0.00018393
0.000186322
0.000192847
0.000196953
0.00019726
0.000195522
0.000191043
0.000182629
0.000172727
0.000163486
0.000153316
0.000144951
0.000136644
0.000129436
0.000122664
0.000115895
0.000108154
0.000101481
9.20646e-05
8.09322e-05
7.01819e-05
6.03824e-05
5.37411e-05
4.83525e-05
4.50089e-05
4.34173e-05
4.2289e-05
4.23984e-05
4.32445e-05
4.52966e-05
4.81176e-05
5.0606e-05
5.29502e-05
5.40831e-05
5.37991e-05
5.28473e-05
5.08043e-05
4.78889e-05
4.49868e-05
4.2789e-05
4.13497e-05
4.10982e-05
4.09885e-05
4.15641e-05
4.46763e-05
5.32944e-05
6.48682e-05
9.79295e-05
0.000125129
0.000132451
0.00013229
0.000122803
0.000104478
8.84802e-05
8.01479e-05
7.85652e-05
7.36105e-05
6.66458e-05
6.38112e-05
6.07708e-05
5.78077e-05
5.81633e-05
5.68672e-05
5.81547e-05
5.77705e-05
6.03028e-05
5.96615e-05
6.48688e-05
6.98815e-05
7.88931e-05
0.00010604
0.000101097
0.000119805
0.000114456
0.000126711
0.000137998
0.000150248
0.000145393
0.00014305
0.000125826
0.000121306
0.000110097
0.000109733
0.000105272
0.000103727
0.000100129
9.88693e-05
9.28152e-05
8.80012e-05
8.08907e-05
7.40904e-05
6.93101e-05
6.67111e-05
6.67971e-05
6.96201e-05
8.05625e-05
8.93861e-05
9.43662e-05
9.6649e-05
9.85835e-05
0.000105667
0.000101245
9.97586e-05
0.000100791
0.00010056
0.000106657
0.0001082
0.000113073
2.48456e-06
2.50617e-06
2.57296e-06
2.58733e-06
2.58323e-06
2.56969e-06
2.55603e-06
2.55337e-06
2.55074e-06
2.54838e-06
2.54082e-06
2.53644e-06
2.52556e-06
2.52117e-06
2.51631e-06
2.51515e-06
2.51381e-06
2.51291e-06
2.51585e-06
2.53376e-06
2.55936e-06
2.58567e-06
2.60556e-06
2.62315e-06
2.64442e-06
2.66599e-06
2.67898e-06
2.68423e-06
2.68651e-06
2.68813e-06
2.69118e-06
2.70892e-06
2.72514e-06
2.74477e-06
2.78275e-06
2.80483e-06
2.85076e-06
2.89337e-06
2.96314e-06
3.05996e-06
3.15522e-06
3.28075e-06
3.52928e-06
3.90117e-06
4.41735e-06
4.82918e-06
5.05444e-06
5.32075e-06
5.7143e-06
6.12234e-06
6.51566e-06
6.92461e-06
7.3106e-06
7.9998e-06
8.61216e-06
9.08764e-06
9.31671e-06
9.34546e-06
9.33265e-06
9.2476e-06
8.90198e-06
8.48888e-06
8.21746e-06
8.01379e-06
7.92316e-06
7.91783e-06
7.92733e-06
8.00755e-06
8.12684e-06
8.42323e-06
8.67691e-06
9.01197e-06
9.53629e-06
1.00997e-05
1.11719e-05
1.26028e-05
1.52437e-05
1.86065e-05
2.53002e-05
3.25214e-05
4.38759e-05
5.68383e-05
7.78767e-05
0.000104217
0.000146877
0.000172298
0.000180949
0.000181566
0.000181178
0.000179746
0.000175948
0.000174245
0.00017698
0.000184938
0.000194976
0.000196952
0.000193988
0.000185018
0.000175396
0.000163125
0.00015436
0.000147151
0.000139133
0.000133764
0.000129029
0.000124904
0.000120639
0.000115187
0.000110552
0.000105769
9.99099e-05
9.37915e-05
8.6579e-05
7.59046e-05
6.67017e-05
5.64986e-05
4.97882e-05
4.57765e-05
4.33529e-05
4.25489e-05
4.21588e-05
4.235e-05
4.28711e-05
4.34679e-05
4.4097e-05
4.43361e-05
4.41798e-05
4.38176e-05
4.30089e-05
4.19362e-05
4.10007e-05
4.03761e-05
4.0286e-05
4.04283e-05
4.102e-05
4.29332e-05
4.84985e-05
5.70441e-05
6.71081e-05
9.94446e-05
0.000129186
0.000136479
0.000135404
0.000122607
0.000103826
8.82198e-05
8.22876e-05
7.93137e-05
7.34533e-05
7.10314e-05
6.79244e-05
6.10484e-05
5.83454e-05
5.93152e-05
5.75978e-05
5.87863e-05
5.84583e-05
6.08706e-05
6.2008e-05
6.71457e-05
8.57133e-05
8.41812e-05
0.000113756
0.000107101
0.000117643
0.000133259
0.000154534
0.00015924
0.000147969
0.000129521
0.000114854
0.000111257
0.000109617
0.000105964
0.000108964
0.000103891
0.000104712
0.00010124
9.97041e-05
9.13065e-05
8.75714e-05
7.78369e-05
7.34232e-05
6.65173e-05
6.34549e-05
6.30763e-05
6.43513e-05
7.17954e-05
7.85753e-05
9.20037e-05
9.80931e-05
9.75768e-05
0.000109019
0.000102601
0.00010201
0.000100017
9.9821e-05
0.000102084
0.000104472
0.000106437
2.49211e-06
2.50867e-06
2.56338e-06
2.57061e-06
2.57864e-06
2.58356e-06
2.59332e-06
2.62449e-06
2.64663e-06
2.68637e-06
2.71365e-06
2.73747e-06
2.76168e-06
2.76857e-06
2.78098e-06
2.78958e-06
2.79761e-06
2.82702e-06
2.90797e-06
3.00989e-06
3.13532e-06
3.23035e-06
3.32574e-06
3.38463e-06
3.43008e-06
3.45072e-06
3.45927e-06
3.46802e-06
3.48063e-06
3.56332e-06
3.66018e-06
3.90571e-06
4.07982e-06
4.27697e-06
4.57429e-06
4.7265e-06
5.01169e-06
5.19282e-06
5.53424e-06
5.87146e-06
6.49938e-06
6.92076e-06
7.53328e-06
8.53471e-06
9.3845e-06
1.04417e-05
1.09293e-05
1.15521e-05
1.22968e-05
1.30514e-05
1.40977e-05
1.44918e-05