/*--------------------------------*- C++ -*----------------------------------*\
| =========                 |                                                 |
| \\      /  F ield         | OpenFOAM: The Open Source CFD Toolbox           |
|  \\    /   O peration     | Version:  2.4.0                                 |
|   \\  /    A nd           | Web:      www.OpenFOAM.org                      |
|    \\/     M anipulation  |                                                 |
\*---------------------------------------------------------------------------*/
FoamFile
{
    version     2.0;
    format      ascii;
    class       volScalarField;
    location    "1.78";
    object      pPrime2Mean;
}
// * * * * * * * * * * * * * * * * * * * * * * * * * * * * * * * * * * * * * //

dimensions      [0 4 -4 0 0 0 0];

internalField   nonuniform List<scalar> 
8800
(
363438
354273
344440
334690
325074
315596
306260
297062
288005
279086
270306
261663
253155
244777
236521
228371
220295
212234
204038
195253
363451
354274
344439
334689
325073
315596
306259
297062
288005
279086
270306
261664
253156
244779
236523
228376
220304
212253
204083
195402
363459
354274
344436
334688
325073
315596
306259
297062
288005
279086
270307
261664
253157
244781
236527
228384
220321
212288
204166
195692
363465
354274
344434
334686
325072
315596
306259
297062
288005
279087
270307
261665
253159
244785
236534
228397
220346
212339
204281
196029
363471
354274
344432
334684
325071
315595
306259
297062
288005
279087
270308
261667
253161
244789
236543
228413
220377
212401
204420
196378
363475
354274
344430
334683
325071
315595
306259
297062
288005
279087
270308
261668
253164
244795
236553
228432
220413
212474
204572
196718
363478
354274
344429
334682
325070
315595
306259
297062
288005
279087
270309
261670
253168
244801
236564
228453
220454
212553
204731
197041
363480
354275
344428
334681
325070
315595
306259
297062
288005
279088
270310
261672
253171
244808
236577
228477
220498
212636
204892
197342
363482
354275
344428
334681
325069
315595
306259
297062
288005
279088
270311
261674
253175
244815
236590
228501
220544
212720
205048
197619
363482
354275
344428
334680
325069
315595
306259
297062
288006
279089
270313
261676
253179
244822
236604
228526
220590
212804
205199
197871
363482
354275
344428
334680
325069
315596
306260
297062
288006
279090
270314
261678
253184
244830
236618
228551
220635
212884
205340
198098
363481
354275
344428
334681
325069
315596
306260
297063
288006
279090
270315
261681
253188
244837
236632
228575
220679
212961
205471
198302
363480
354275
344429
334681
325070
315596
306260
297063
288007
279091
270317
261683
253192
244844
236644
228598
220720
213033
205589
198481
363478
354275
344429
334682
325070
315596
306260
297063
288007
279092
270318
261685
253195
244851
236656
228620
220758
213097
205694
198637
363475
354274
344431
334683
325071
315596
306260
297064
288008
279093
270319
261687
253199
244857
236667
228639
220791
213154
205785
198770
363470
354274
344432
334685
325072
315596
306260
297064
288008
279093
270320
261689
253202
244862
236676
228656
220820
213202
205861
198880
363465
354274
344434
334687
325072
315596
306260
297064
288009
279094
270321
261690
253204
244867
236684
228669
220843
213241
205922
198968
363459
354274
344437
334688
325073
315597
306261
297065
288009
279094
270321
261691
253206
244870
236690
228680
220861
213271
205969
199034
363451
354275
344439
334690
325074
315597
306261
297065
288009
279095
270322
261692
253207
244872
236694
228687
220873
213291
206000
199077
363438
354273
344440
334690
325074
315597
306261
297065
288009
279095
270322
261692
253208
244873
236696
228691
220880
213301
206015
199098
187292
185147
183511
182097
180786
179538
178335
177165
176022
174899
173793
172700
171620
170549
169488
168434
167386
166344
165306
164273
163244
162220
161200
160185
159174
158167
157164
156164
155168
154175
153185
152200
151219
150243
149272
148307
147346
146391
145439
144492
143548
142607
141669
140733
139800
138870
137943
137020
136099
135183
134269
133358
132450
131543
130640
129739
128841
127947
127056
126168
125282
124399
123517
122639
121762
120889
120018
119152
118289
117430
116574
115720
114869
114020
113173
112328
111486
110647
109811
108980
108154
107333
106516
105704
104895
104091
103290
102492
101697
100905
100115
99328.3
98543.3
97760.3
96979
96199.8
95422.5
94647.8
93875.1
93105.4
92338.5
91575.3
90815.4
90059.9
89308.1
88561.1
87818.2
87080
86345.9
85616.5
84891
84170.2
83453.1
82740.3
82030.7
81324.6
80621.2
79921.2
79224.1
78531
77841.2
77155.7
76472.9
75793.7
75116.4
74442.5
73769.7
73100.6
72432.4
71767.3
71102.9
70440.6
69779.2
69119.2
68460.4
67802.9
67147.1
66493.1
65841.3
65192.4
64546.3
63904
63265
62629.9
61998.6
61371.2
60747.9
60128.4
59512.4
58899.8
58290.3
57683.8
57079.7
56478.1
55878.6
55281.4
54686.2
54094.2
53504.7
52918.5
52334.9
51755.4
51178.7
50607
50038.5
49475.7
48916.1
48363.3
47814.1
47272.6
46733.8
46204.2
45674.8
45156.2
44635.9
44127.5
43615.3
43116.5
42611.6
42120.6
41623.1
41138.7
40647.9
40166.8
39680.5
39198.8
38712.1
38225.9
37732.2
37235.2
36726.3
36208.8
35673.4
35121.9
34543
33937
33287.7
32581.7
31830.3
30917.7
188819
186534
184671
183067
181616
180259
178968
177726
176520
175343
174190
173057
171941
170838
169748
168668
167597
166534
165478
164428
163384
162346
161314
160287
159266
158250
157238
156231
155228
154229
153234
152244
151259
150278
149304
148334
147370
146411
145456
144505
143558
142615
141674
140736
139802
138870
137942
137017
136095
135177
134262
133350
132441
131534
130630
129729
128831
127937
127045
126157
125271
124387
123506
122628
121752
120878
120008
119142
118279
117419
116562
115709
114857
114008
113162
112318
111476
110639
109804
108975
108150
107330
106514
105704
104897
104094
103294
102497
101704
100913
100125
99339
98554.9
97772.6
96992.1
96213.4
95436.6
94662.2
93890.1
93120.8
92354.4
91591.5
90832
90076.5
89325
88577.6
87834.3
87095.5
86361
85630.8
84905.1
84183.7
83466.3
82752.6
82042.4
81335.2
80631.3
79930.5
79233.3
78540.4
77851.3
77166.5
76484.9
75806.8
75130.9
74458
73786.8
73118.2
72451.1
71786
71122.3
70459.9
69798.8
69138.8
68480.2
67823
67167.6
66514.2
65863.1
65215.1
64570
63928.6
63291
62657.1
62027.2
61401.1
60779.2
60161
59546.3
58934.6
58326.4
57720.8
57117.4
56516.1
55916.6
55319
54723.3
54130.2
53539.4
52951.4
52366.3
51784.9
51206.2
50631.8
50060.4
49493.7
48930.4
48372.8
47818.5
47271.4
46726.4
46189.8
45653.3
45126.2
44597.6
44079.8
43558.5
43048.5
42533.8
42029.4
41521.3
41021
40518.4
40019.4
39519.2
39018.5
38515.1
38008.3
37495.8
36975.1
36444.7
35898.6
35337
34749.6
34137.3
33478.1
32793.6
31989.7
31178.6
30274.1
189878
187612
185662
183944
182389
180942
179575
178266
177002
175775
174578
173406
172254
171120
170002
168897
167804
166720
165646
164579
163521
162469
161425
160387
159356
158331
157311
156296
155286
154281
153281
152286
151297
150312
149334
148360
147392
146429
145471
144517
143567
142621
141678
140738
139801
138868
137938
137012
136089
135170
134254
133341
132431
131524
130619
129718
128820
127925
127034
126145
125259
124376
123495
122617
121741
120868
119998
119132
118269
117409
116552
115698
114847
113998
113152
112309
111469
110632
109799
108970
108147
107328
106515
105705
104900
104099
103300
102505
101713
100924
100137
99352.1
98569
97787.5
97007.7
96229.7
95453.6
94679.8
93908.4
93139.7
92374.1
91611.7
90852.7
90097.3
89345.8
88597.8
87854.2
87114.6
86379.6
85648.8
84922.7
84200.5
83482.5
82767.8
82056.6
81348.4
80643.7
79942.5
79245.5
78553
77864.8
77180.9
76500.5
75823.5
75149.2
74477.4
73807.6
73139.7
72473.5
71808.4
71144.9
70482.2
69821.1
69161
68502.4
67845.5
67190.4
66537.6
65887.3
65240
64596.1
63955.9
63319.7
62687.4
62059.1
61434.6
60814.2
60197.1
59583.7
58973.2
58366.1
57761.4
57158.6
56557.5
55957.9
55359.5
54763.1
54168.6
53576.3
52986.5
52399.7
51816.2
51235.5
50658.4
50084.3
49513.8
48946.8
48384.7
47825.3
47272.4
46721.1
46176.9
45632.8
45096.8
44559.7
44031.3
43501.5
42979.2
42455.8
41937.4
41419.6
40903.4
40389.2
39873.2
39359
38839.7
38321
37792.9
37264.9
36720
36172.3
35597.5
35016.7
34391.2
33763.1
33048.5
32352.1
31503.2
30663.4
29796.4
190686
188479
186505
184724
183095
181579
180146
178779
177464
176190
174952
173742
172558
171394
170249
169120
168005
166901
165809
164727
163654
162590
161533
160485
159444
158409
157381
156359
155343
154332
153327
152328
151334
150345
149363
148385
147414
146447
145485
144528
143575
142626
141681
140739
139801
138866
137935
137007
136083
135162
134245
133331
132421
131513
130608
129707
128809
127914
127022
126133
125247
124364
123484
122606
121731
120858
119989
119123
118260
117400
116543
115689
114838
113990
113144
112302
111463
110627
109795
108968
108146
107329
106517
105709
104905
104105
103309
102515
101725
100937
100151
99367.3
98585.1
97804.3
97025.4
96248.1
95472.9
94699.9
93929.5
93161.7
92397.1
91635.2
90876.7
90121.2
89369.4
88620.9
87876.7
87136.4
86400.8
85669.3
84942.5
84219.4
83500.5
82784.6
82072.4
81363.1
80657.8
79956.2
79259.7
78567.6
77880.5
77197.5
76518.5
75842.6
75169.7
74498.9
73830.4
73163.2
72497.6
71832.6
71169.1
70506
69844.8
69184.4
68525.9
67868.9
67214.2
66561.7
65912.3
65265.8
64623
63984
63349.2
62718.4
62091.7
61468.8
60850.1
60234.3
59622.4
59013.1
58407.4
57803.2
57201
56599.8
56000.2
55400.8
54803.3
54207
53612.8
53021.1
52433
51847
51264.5
50684.6
50108.1
49534
48963.7
48397
47833
47273.9
46716.7
46164.4
45612.9
45066.8
44522.1
43982.5
43444.7
42910
42377.9
41846.3
41318.3
40787.4
40261.1
39728.6
39201.5
38663.3
38132.3
37582.2
37042
36471.5
35912.8
35306.2
34718
34051.4
33418.5
32662.8
31945.4
31109.6
30272.7
29438.6
191337
189190
187220
185409
183733
182163
180679
179262
177901
176586
175309
174066
172850
171658
170488
169335
168199
167077
165968
164870
163783
162707
161639
160580
159529
158486
157451
156422
155399
154383
153373
152368
151370
150378
149391
148410
147435
146465
145500
144539
143584
142632
141684
140740
139800
138864
137931
137003
136077
135156
134237
133323
132411
131503
130598
129697
128798
127903
127011
126123
125237
124354
123474
122596
121722
120850
119981
119116
118253
117393
116536
115683
114832
113984
113138
112297
111458
110623
109793
108968
108147
107332
106521
105714
104912
104113
103318
102527
101738
100951
100167
99384.1
98602.9
97823
97045
96268.5
95494.3
94722.2
93952.9
93186.1
92422.2
91660.8
90902.5
90146.8
89394.5
88645.4
87900.4
87159.4
86423.2
85691
84963.5
84239.4
83519.5
82802.5
82089.3
81379
80673.2
79971.4
79275.1
78583.4
77897.2
77215
76537.2
75862.2
75190.5
74520.7
73853.2
73186.7
72521.4
71856.3
71192.7
70529.4
69868
69207.4
68548.8
67891.7
67237.4
66585.1
65936.7
65290.6
64649
64011
63377.6
62747.9
62123.1
61501.6
60884.6
60270.4
59660
59052.1
58447.8
57843.7
57242.2
56640.7
56040.8
55440.1
54841.7
54243.1
53647.3
53053.4
52464.2
51875.3
51291.5
50708.6
50129.7
49552.5
48979.1
48407.9
47839.6
47274.3
46711.5
46150.6
45592.3
45036.2
44484
43933.9
43387.9
42842
42301
41756.7
41218.7
40673.4
40136.4
39586.9
39049.6
38491.4
37950.5
37378.3
36828.8
36232.7
35665.9
35030.7
34433.1
33740.1
33088.6
32329.5
31587.3
30788.1
29972.8
29160.3
191885
189789
187833
186010
184304
182696
181169
179711
178311
176959
175648
174373
173129
171911
170716
169542
168386
167247
166121
165009
163909
162820
161742
160673
159613
158562
157519
156483
155455
154433
153418
152409
151407
150410
149420
148436
147457
146483
145515
144552
143593
142639
141689
140744
139802
138864
137930
137000
136073
135151
134232
133316
132404
131496
130591
129689
128790
127895
127003
126115
125229
124346
123466
122589
121715
120844
119976
119110
118248
117388
116531
115678
114827
113979
113134
112293
111455
110621
109792
108968
108149
107335
106525
105720
104919
104122
103329
102539
101752
100967
100184
99402
98622
97843.2
97066.1
96290.4
95517.1
94746
93977.5
93211.5
92448.2
91687.1
90928.7
90172.5
89419.5
88669.7
87924
87182.3
86445.6
85712.7
84984.3
84259.4
83538.6
82820.7
82106.6
81395.6
80689.2
79987.1
79290.8
78599.2
77913.4
77231.7
76554.7
75880.4
75209.7
74540.7
73874.1
73207.9
72543
71877.7
71213.8
70550.4
69888.7
69227.8
68569.2
67912.1
67257.9
66605.9
65957.8
65312.3
64671.8
64034.8
63402.8
62774.3
62151.1
61530.8
60915.5
60302.7
59694
59087.4
58484.2
57880
57279.1
56677
56077
55474.9
54876
54275.2
53678.6
53082.5
52491.7
51900
51314.7
50729
50148
49567.4
48991.3
48415.7
47843.5
47271.7
46703.7
46134.2
45569.7
45004.2
44444.9
43884.7
43331.3
42774.2
42225.6
41668.7
41121.7
40562.1
40016
39450.6
38903
38328.3
37776.1
37187.4
36625.2
36012.9
35430.1
34781
34163
33465.8
32791.3
32049.2
31300
30528.3
29732.5
28932.7
192355
190303
188363
186536
184811
183175
181617
180125
178692
177308
175967
174664
173393
172151
170935
169741
168566
167410
166269
165143
164031
162930
161842
160763
159695
158636
157586
156544
155509
154483
153463
152450
151443
150443
149449
148462
147480
146503
145532
144566
143605
142648
141697
140749
139805
138866
137931
137000
136072
135149
134229
133313
132400
131491
130586
129684
128785
127890
126998
126109
125224
124341
123461
122585
121711
120840
119972
119106
118244
117384
116527
115674
114823
113975
113131
112290
111453
110620
109793
108970
108152
107338
106530
105727
104927
104132
103340
102551
101766
100982
100201
99420.6
98641.7
97863.8
97087.4
96312.5
95540
94769.6
94001.8
93236.1
92473
91711.9
90953.2
90196.4
89442.8
88692.3
87946
87203.9
86466.5
85732.8
85003.6
84278
83556.4
82837.9
82123
81411.4
80704.5
80002
79305.3
78613.5
77927.5
77245.8
76568.9
75895.1
75225
74556.7
73890.9
73225.1
72560.3
71894.9
71230.9
70567.1
69905
69243.8
68584.9
67927.9
67273.6
66621.8
65973.8
65329.2
64689.7
64053.9
63423.3
62796.3
62174.3
61555
60941.1
60329.3
59722
59116.3
58513.8
57909.6
57309.3
56706.7
56106.4
55503.5
54903.7
54300.8
53703.4
53106.1
52512.9
51919.3
51332
50743.6
50160.5
49577
48998.1
48418.5
47842.5
47265.3
46691.3
46114.9
45543.2
44970.2
44403.2
43834.7
43273.4
42707.2
42150.1
41583.5
41026
40456.3
39897.8
39322.5
38760.8
38176.5
37608.9
37011.9
36432.7
35814.1
35213.3
34560.5
33925
33232.9
32546.6
31821.8
31075.6
30318.1
29532.7
28740.5
192763
190745
188824
186997
185261
183606
182023
180504
179043
177632
176264
174936
173642
172378
171141
169929
168737
167565
166410
165271
164147
163036
161938
160850
159774
158708
157651
156603
155563
154531
153507
152490
151479
150476
149479
148488
147503
146524
145550
144581
143618
142659
141706
140756
139811
138871
137934
137002
136074
135149
134229
133312
132399
131490
130584
129682
128783
127887
126995
126106
125221
124338
123458
122581
121707
120836
119968
119103
118240
117381
116524
115670
114819
113972
113128
112288
111452
110620
109793
108971
108154
107342
106535
105733
104934
104140
103350
102563
101779
100997
100218
99438.4
98660.4
97883.3
97107.5
96333
95560.9
94790.9
94023.3
93257.6
92494.3
91733
90973.9
90216.6
89462.5
88711.5
87964.8
87222.1
86484
85749.6
85019.7
84293.5
83571.2
82852.1
82136.8
81424.9
80717.4
80014.3
79317.1
78624.6
77937.8
77255.4
76578.2
75904.3
75234.3
74566.4
73901.1
73235.7
72571.2
71905.8
71241.7
70577.5
69915.2
69253.5
68594.3
67937.2
67282.9
66631.5
65983.9
65340.3
64701.9
64067.6
63438.1
62813
62191.5
61573.4
60960.4
60349.4
59742.7
59137.7
58535.9
57930.9
57331.2
56728.5
56127.4
55524.3
54923.6
54319.6
53720.6
53122
52526
51931.5
51341.2
50751
50165.2
49579.7
48998
48415.5
47835.4
47254.6
46674.5
46092.8
45513.4
44934
44359.9
43784.5
43215
42642.8
42076
41502.4
40934.2
40357.2
39786.1
39203.6
38628.3
38037.7
37456
36854.5
36261.5
35639.6
35025.5
34373.2
33727.3
33043.3
32351.6
31638.7
30895.1
30142.4
29362.7
28576.3
193122
191132
189227
187403
185660
183990
182389
180848
179364
177929
176539
175188
173873
172590
171335
170105
168898
167712
166544
165393
164258
163137
162029
160933
159850
158776
157713
156659
155614
154578
153549
152528
151515
150508
149507
148514
147526
146544
145568
144597
143632
142672
141716
140765
139819
138877
137939
137006
136077
135152
134230
133313
132400
131490
130584
129681
128782
127886
126994
126105
125218
124335
123455
122578
121704
120833
119965
119099
118236
117377
116520
115666
114816
113969
113126
112286
111451
110620
109794
108973
108157
107346
106540
105738
104941
104148
103359
102573
101791
101011
100232
99454
98676.7
97900.1
97124.5
96350.2
95578.1
94807.9
94040
93274
92510.4
91748.8
90989.2
90231.4
89476.8
88725.4
87978.3
87235
86496.2
85761.2
85030.6
84303.8
83581
82861.5
82145.9
81433.6
80725.6
80022
79323.9
78630.5
77942.6
77259.1
76580.9
75906.3
75236
74568.2
73903.2
73238.3
72574
71908.9
71244.8
70580.5
69918
69256
68596.8
67939.8
67285.7
66635
65988.3
65345.4
64708.4
64075.4
63446.9
62823.3
62202.7
61585.3
60972.8
60362.4
59755.7
59151.4
58548.8
57943.9
57344.5
56741.1
56139.2
55536.7
54934.3
54330.6
53730
53131.8
52531.2
51936.7
51342.6
50751.4
50161.5
49576.3
48990.5
48407.5
47822.3
47239.9
46652.2
46066.8
45480.6
44896
44315.2
43735.2
43157.1
42582.6
42004.9
41427.5
40848.8
40266
39684.5
39096.5
38509.7
37915.4
37322.6
36719
36115.9
35493.7
34870.4
34220.9
33567.4
32891.1
32194.3
31486.7
30744.3
29992.7
29218.3
28437.4
193439
191471
189579
187759
186012
184332
182716
181158
179655
178200
176791
175421
174087
172786
171515
170270
169048
167849
166669
165507
164361
163231
162115
161012
159921
158841
157772
156713
155663
154622
153590
152565
151548
150538
149535
148539
147549
146565
145586
144614
143647
142684
141727
140775
139828
138884
137946
137011
136081
135155
134233
133315
132401
131491
130584
129681
128781
127885
126992
126103
125216
124333
123453
122575
121701
120829
119960
119094
118232
117372
116515
115662
114812
113966
113123
112285
111450
110620
109795
108974
108158
107348
106542
105741
104945
104153
103365
102581
101800
101021
100244
99466.4
98689.5
97912.8
97137
96362.2
95589.6
94819
94050.5
93283.9
92519.9
91757.8
90997.7
90239.5
89484.4
88732.5
87984.8
87240.9
86501.4
85765.8
85034.7
84307.5
83584.3
82864.4
82148.5
81435.9
80727.6
80023.5
79324.4
78630.1
77940.9
77256.2
76576.5
75900.6
75229.6
74561.4
73896.4
73232.1
72568.2
71903.9
71239.8
70575.8
69913.4
69251.7
68593
67936.5
67283.2
66633.6
65988
65346.2
64710.3
64078.3
63450.3
62827.4
62207.4
61590.4
60978.2
60367.3
59760.9
59157.2
58552.2
57949.8
57348.4
56745.2
56142.3
55540.9
54936.1
54332.9
53730.7
53134.7
52528.5
51936.1
51335.3
50746.8
50150.2
49567.3
48975.9
48394.4
47802.9
47221
46624.9
46037.4
45444.6
44857.4
44270
43688.9
43102
42528
41940.2
41360.5
40773.6
40185.6
39596.5
39004.4
38408.5
37811.5
37210.1
36606.4
35995.1
35375.6
34742.9
34097.5
33435.6
32763.6
32062.2
31355.4
30615.2
29865.5
29097.3
28322.2
193717
191767
189887
188071
186321
184634
183007
181435
179916
178445
177019
175632
174283
172966
171680
170421
169187
167975
166784
165612
164458
163319
162195
161085
159987
158902
157827
156763
155709
154664
153628
152600
151580
150567
149561
148563
147570
146584
145604
144630
143661
142697
141739
140785
139836
138892
137952
137017
136086
135159
134236
133318
132403
131492
130584
129681
128781
127884
126991
126101
125214
124330
123449
122571
121696
120824
119955
119089
118226
117367
116510
115657
114808
113962
113120
112283
111449
110619
109794
108974
108159
107348
106543
105742
104947
104155
103369
102585
101806
101028
100251
99474.2
98697.1
97920
97143.5
96367.7
95594.5
94823
94053.8
93286.4
92521.8
91759.4
90998.9
90240.2
89484.5
88731.9
87983.5
87239.1
86499.1
85763.1
85031.8
84304.2
83580.6
82860.5
82144.4
81431.7
80723
80018.4
79318.5
78623.1
77932.8
77246.6
76565.3
75888.1
75215.7
74546.9
73881.6
73217.1
72553.9
71890.5
71227.1
70564
69902.2
69241.5
68583.8
67928.4
67276.6
66628
65984
65343.3
64708
64076.8
63448.9
62825.7
62206.4
61588.2
60976.1
60364.6
59758
59154.3
58547.5
57947.3
57342.9
56741.7
56137.5
55536.3
54930.9
54328.2
53724.8
53128.7
52520
51929.3
51320.8
50735.4
50131.7
49551.3
48954.4
48376.2
47777.4
47197.1
46593.1
46006
45407.9
44819.4
44226.2
43644.5
43050.4
42478.5
41883.3
41301.4
40709.1
40115.7
39521.9
38926.4
38323.4
37728
37119.2
36517.3
35894.6
35278.6
34635.9
33992.6
33323
32651.6
31948.4
31241.7
30505.1
29759.3
28998.1
28229
193961
192026
190154
188343
186592
184900
183263
181681
180149
178664
177223
175823
174459
173129
171830
170559
169313
168091
166890
165709
164546
163399
162268
161152
160048
158957
157878
156810
155752
154703
153663
152632
151609
150594
149586
148585
147591
146603
145621
144645
143675
142710
141750
140795
139845
138900
137959
137022
136090
135163
134239
133319
132404
131492
130584
129680
128779
127882
126988
126098
125210
124326
123445
122566
121691
120819
119950
119084
118221
117361
116505
115652
114804
113959
113118
112281
111448
110619
109794
108973
108158
107347
106542
105741
104945
104154
103368
102586
101807
101030
100253
99475.7
98698.5
97920.6
97143.4
96366.3
95592.3
94819.7
94049.7
93281.3
92516.4
91753.4
90992.7
90233.4
89477.3
88724
87975.2
87230.3
86490.1
85754
85022.7
84294.9
83571.2
82850.7
82134.7
81421.7
80712.9
80007.8
79307.3
78610.6
77919
77231.2
76548.5
75869.8
75196.3
74526.5
73860.6
73195.9
72533.2
71870.2
71208.3
70546.2
69885.9
69226.6
68570.4
67915.9
67265.6
66617.9
65975.3
65335.6
64701.3
64070.8
63443.5
62819.1
62200.7
61580.4
60967.7
60354.1
59748.1
59142.4
58535
57935.7
57330.3
56730.4
56125.7
55524.7
54919.1
54315.8
53713.5
53116.7
52507.8
51914.6
51303.6
50718.1
50109.7
49529.4
48928.6
48352.2
47749.5
47169.3
46560.2
45972.2
45371.2
44781.8
44184.7
43600.6
43005
42431.4
41831.3
41250
40652.2
40056.4
39457.8
38861.3
38255.5
37659.6
37043.1
36442.2
35811
35192.9
34543.7
33898.3
33224.9
32553.2
31850.3
31145.7
30413.6
29673.1
28919.2
28156.3
194173
192249
190386
188578
186826
185130
183487
181895
180353
178857
177405
175992
174616
173275
171964
170682
169427
168195
166985
165796
164625
163472
162335
161212
160104
159008
157925
156852
155790
154739
153696
152662
151637
150619
149609
148606
147610
146620
145637
144659
143688
142721
141760
140804
139853
138906
137964
137027
136094
135165
134241
133320
132404
131492
130583
129678
128777
127879
126985
126094
125206
124321
123440
122561
121686
120814
119944
119078
118215
117356
116500
115648
114800
113956
113116
112279
111447
110618
109793
108972
108156
107345
106538
105737
104941
104150
103364
102582
101803
101025
100248
99469.8
98692.3
97913.7
97135.6
96357.7
95583.1
94809.4
94038.6
93269.3
92504.2
91740.5
90979.7
90219.9
89463.8
88709.8
87961
87215.8
86475.8
85739.8
85008.6
84280.5
83556.9
82836.1
82120.3
81407
80698.5
79992.7
79291.7
78593.8
77901.2
77211.6
76527.9
75847.8
75173.5
74502.5
73836
73171
72508.5
71846.1
71185.5
70524.6
69866.1
69208
68553.3
67899.9
67251
66603.9
65962.3
65323.6
64690.4
64060.2
63433.9
62808.6
62190.1
61567.3
60952.8
60336.9
59730
59121.6
58516.9
57915.4
57311.9
56710.5
56106.2
55506
54901.7
54296.6
53698
53098.2
52491.1
51894.8
51283.1
50693.5
50084.7
49499.6
48899.9
48322.5
47717.3
47140.4
46527.3
45938.8
45334.1
44742.1
44143.3
43557.5
42960.8
42385.8
41785.6
41205.2
40603.1
40006.4
39405.3
38806.6
38199.5
37596.3
36981.6
36374.9
35737.8
35115.4
34463
33814.4
33141.2
32469.3
31768.2
31067.6
30340.2
29605.6
28858.7
28101.8
194355
192441
190583
188778
187027
185327
183679
182081
180530
179025
177563
176140
174754
173403
172082
170791
169527
168287
167070
165873
164696
163537
162394
161266
160153
159053
157966
156890
155825
154770
153725
152689
151661
150642
149630
148625
147627
146636
145651
144672
143699
142731
141769
140812
139859
138912
137969
137030
136096
135167
134241
133320
132403
131490
130581
129675
128774
127875
126981
126089
125201
124316
123435
122556
121681
120808
119939
119073
118210
117351
116496
115644
114797
113953
113114
112278
111446
110617
109792
108970
108153
107341
106533
105731
104934
104142
103355
102573
101793
101014
100236
99457.4
98679.4
97899.9
97121.1
96342.7
95567.5
94792.9
94021.5
93251.8
92486.7
91722.5
90961.8
90201.7
89445.7
88691.6
87943.2
87197.7
86458.2
85722.1
84991.1
84262.9
83539.2
82818.3
82102.6
81389.5
80681.3
79974.9
79273.4
78574.2
77880.4
77189.4
76504.8
75823.5
75148.7
74476.9
73810.3
73144.9
72482.5
71820.6
71161
70501.5
69844.1
69187.2
68533.8
67881.3
67233.2
66587.1
65946.4
65308.6
64676.6
64046.5
63420.9
62794.6
62174.8
61550.3
60932.9
60314.7
59706.5
59093.8
58492.9
57890
57288.1
56684.3
56083
55480.9
54879.6
54271.9
53679
53073.4
52471.2
51872.5
51262.6
50663.1
50057.5
49467.6
48867.7
48288.7
47685
47100.6
46493.2
45904.1
45296.4
44700
44103.6
43514
42922.2
42345.7
41742
41163.9
40562.3
39964
39361.9
38758.8
38153
37541.2
36927
36309
35674.8
35045
34394.1
33741.6
33072.3
32400.2
31702.4
31005.9
30283.2
29554.8
28813.6
28062.3
194510
192603
190750
188947
187195
185493
183841
182237
180680
179168
177697
176267
174872
173513
172184
170885
169613
168366
167142
165940
164757
163593
162445
161313
160196
159093
158002
156923
155856
154798
153751
152712
151683
150661
149648
148641
147642
146649
145663
144683
143708
142740
141776
140818
139864
138916
137972
137032
136098
135167
134241
133319
132401
131487
130578
129672
128770
127871
126976
126085
125196
124311
123430
122551
121676
120803
119934
119068
118206
117347
116491
115640
114793
113950
113111
112275
111443
110614
109788
108966
108148
107335
106526
105723
104924
104132
103343
102560
101778
100998
100219
99440.2
98661.5
97881.4
97101.7
96323.2
95547.3
94772.1
94000.1
93230.8
92465.6
91701.6
90941
90181.3
89425.2
88671.8
87923.5
87178.3
86439.1
85702.8
84971.7
84243.3
83519.5
82799
82083.2
81370.6
80662.1
79956.2
79253.9
78554
77858.7
77166.8
76481.1
75799
75123.8
74451.8
73785
73119.7
72457.3
71795.6
71136.6
70477.8
69821
69165.4
68512.8
67861.5
67214.3
66569.3
65929.6
65292.7
64661.3
64030.5
63404.7
62777.2
62155.3
61528.9
60910.4
60291.7
59679.1
59066
58465.3
57859.1
57260.9
56655
56055.1
55452.8
54856.3
54248.5
53655.9
53046.3
52451.9
51842.2
51234.6
50630.3
50033.4
49440.5
48840.3
48253
47649.7
47057
46457.7
45862.4
45258.6
44659.4
44068.5
43475.1
42886.3
42302.1
41704.9
41125.2
40525.4
39925.9
39326.6
38718.8
38109
37492.4
36877.9
36250.6
35618.6
34983.3
34339.3
33683.1
33019.1
32345.6
31652.5
30957.4
30240.9
29517.6
28780.6
28035
194638
192737
190887
189084
187332
185629
183974
182366
180804
179286
177809
176372
174971
173604
172269
170964
169686
168433
167204
165996
164809
163640
162489
161353
160233
159126
158033
156951
155881
154822
153772
152732
151701
150678
149663
148655
147654
146660
145673
144692
143716
142746
141782
140822
139868
138918
137974
137033
136098
135166
134239
133317
132399
131484
130574
129668
128766
127867
126972
126080
125192
124307
123425
122546
121671
120798
119929
119063
118201
117342
116487
115636
114789
113946
113107
112272
111439
110610
109783
108960
108142
107327
106518
105713
104913
104119
103329
102544
101760
100979
100199
99419.3
98639.7
97859.5
97079.6
96301.2
95524.4
94749.3
93977.3
93209
92443.5
91680.2
90919.7
90161
89405.2
88652.8
87903.9
87159.4
86419.6
85683.7
84951.7
84223.6
83499.1
82779.2
82063.2
81351.6
80643.1
79938.2
79235.2
78535.3
77838.6
77146.6
76459.5
75777.3
75101.4
74429.9
73762.4
73097.5
72434.3
71773.2
71113.9
70455.7
69798.8
69144.4
68491.6
67841.7
67194.8
66551.2
65911.8
65275.7
64643.5
64012.2
63384.7
62756.3
62131.8
61505.1
60884.8
60265.9
59654.4
59041.3
58435.9
57829.9
57230.9
56624.7
56028.5
55424.9
54829.1
54223.4
53631.4
53020.1
52422.8
51806.5
51209.2
50602
50008.6
49412.3
48810.4
48212.1
47613.7
47018.6
46421.6
45818.5
45223.9
44624.6
44034.5
43440.5
42856
42263.1
41675.5
41084.3
40493
39892.8
39293.2
38681.5
38071.3
37452.2
36830.7
36202.5
35573.8
34937.2
34296.1
33641.4
32979.7
32305.9
31617.4
30921.2
30210.9
29490.5
28757.5
28017.3
194741
192844
190994
189192
187440
185735
184079
182468
180903
179380
177899
176456
175050
173678
172338
171027
169744
168487
167253
166041
164850
163678
162523
161385
160262
159153
158058
156974
155902
154841
153790
152748
151715
150691
149674
148665
147664
146669
145680
144698
143722
142751
141786
140825
139870
138920
137974
137033
136097
135165
134238
133315
132396
131482
130571
129665
128762
127863
126968
126076
125188
124302
123420
122542
121666
120793
119924
119058
118196
117337
116482
115631
114784
113941
113102
112266
111433
110603
109776
108953
108134
107319
106508
105703
104902
104106
103315
102528
101742
100959
100178
99397.4
98616.5
97836.7
97056.6
96278.8
95501.5
94727.6
93955.6
93188.2
92422.5
91660.3
90899.8
90142.2
89386.7
88635.3
87886.4
87142.6
86402
85666.3
84933.6
84205.7
83480.6
82761.2
82044.8
81334
80625.7
79922
79218.7
78519.3
77821.8
77130
76441.9
75759.9
75083.3
74412
73743.6
73079
72414.9
71754.5
71094.2
70436.4
69779.2
69125.3
68472.1
67823.1
67176.3
66533.8
65893.5
65257.7
64623.6
63992
63362.1
62733.4
62106.4
61481.5
60859.5
60243.5
59628.7
59015.9
58409.1
57803.2
57199.8
56598.1
56000.9
55396.2
54801.1
54197.5
53601.8
52989.5
52391.9
51780.9
51186.3
50571.2
49981.2
49375.4
48776.7
48180.6
47583.7
46981.6
46386.1
45781.4
45191.4
44590.6
44005.7
43413.4
42828.6
42229.3
41647.4
41048
40462.1
39859.8
39265.1
38649.4
38039.8
37417.1
36795.2
36169.9
35538.5
34905.2
34264
33614.4
32950.3
32279.4
31592.3
30896.7
30189.8
29471
28742
28005.7
194817
192923
191074
189272
187520
185815
184157
182544
180976
179451
177966
176519
175109
173733
172389
171075
169788
168527
167290
166076
164882
163707
162550
161409
160284
159173
158076
156991
155917
154855
153802
152759
151726
150700
149683
148673
147670
146675
145685
144702
143725
142754
141788
140827
139872
138921
137975
137033
136097
135165
134237
133314
132394
131480
130569
129662
128759
127860
126965
126073
125184
124299
123417
122538
121662
120789
119920
119054
118192
117333
116478
115626
114779
113936
113096
112259
111426
110596
109769
108945
108126
107311
106500
105694
104892
104095
103301
102513
101725
100942
100158
99378
98596
97816.9
97036.4
96259.4
95481.8
94709.3
93937
93170.5
92404.4
91643.8
90882.9
90127.1
89371.4
88621.3
87872.2
87129.1
86388
85652.9
84919.4
84192
83466
82747.3
82030.5
81320.5
80611.9
79909.1
79206.1
78508.1
77810.7
77119.9
76430.8
75749.2
75070.9
74399.4
73729.6
73065.3
72400.7
71740.9
71079.4
70421.7
69763.5
69109.5
68455.5
67807.3
67159.8
66517.8
65876.3
65240.2
64604.4
63972.3
63340.1
62711.6
62082.8
61460.9