/*--------------------------------*- C++ -*----------------------------------*\
| =========                 |                                                 |
| \\      /  F ield         | OpenFOAM: The Open Source CFD Toolbox           |
|  \\    /   O peration     | Version:  2.4.0                                 |
|   \\  /    A nd           | Web:      www.OpenFOAM.org                      |
|    \\/     M anipulation  |                                                 |
\*---------------------------------------------------------------------------*/
FoamFile
{
    version     2.0;
    format      ascii;
    class       volScalarField;
    location    "0.41";
    object      k_0;
}
// * * * * * * * * * * * * * * * * * * * * * * * * * * * * * * * * * * * * * //

dimensions      [0 2 -2 0 0 0 0];

internalField   nonuniform List<scalar> 
8800
(
8.1182
10.2762
8.78758
6.82952
5.69843
4.97406
4.53259
4.13519
3.92352
3.66087
3.54477
3.37182
3.29405
3.15724
3.10207
2.98604
2.91174
2.8099
2.73423
2.53912
1.40329
4.35639
5.31923
5.29189
5.12807
4.80878
4.58086
4.27522
4.13119
3.87751
3.76758
3.59883
3.51236
3.37462
3.33146
3.21589
3.16849
3.08792
3.0006
2.96358
0.0842925
0.731884
1.56584
1.94218
2.27856
2.43591
2.57297
2.60033
2.62645
2.60123
2.58685
2.54235
2.52467
2.47139
2.45836
2.41196
2.40579
2.37159
2.35023
2.30727
0.00333878
0.0699139
0.262342
0.411552
0.594085
0.697698
0.831867
0.934419
1.02031
1.09945
1.16617
1.19882
1.27237
1.29997
1.32827
1.3638
1.41022
1.42631
1.46249
1.46516
0.000121255
0.00492655
0.02639
0.0462813
0.0934713
0.122996
0.156776
0.214201
0.237767
0.285704
0.32619
0.346733
0.390617
0.439034
0.451896
0.490354
0.52481
0.578522
0.600816
0.657203
2.53441e-05
0.000308916
0.00182196
0.00345702
0.00848899
0.0128175
0.016709
0.0278991
0.0330645
0.0428562
0.0557421
0.0609136
0.0704526
0.0903477
0.0947111
0.106165
0.11729
0.139717
0.14998
0.176152
2.23949e-05
4.45334e-05
0.000131813
0.000238693
0.000649056
0.000930088
0.00120862
0.00227371
0.00269525
0.00350962
0.00560476
0.00613107
0.00707451
0.0106054
0.0114639
0.0127531
0.0149157
0.0196555
0.0218277
0.026828
2.11666e-05
3.4531e-05
4.41397e-05
5.58033e-05
0.00011441
0.000138792
0.000151962
0.000213103
0.000219971
0.000261079
0.00043828
0.000444874
0.000481288
0.000819669
0.000890228
0.000932348
0.00113785
0.00152548
0.00181522
0.00209642
2.06277e-05
3.68823e-05
4.70888e-05
4.59832e-05
5.79645e-05
8.38359e-05
8.97982e-05
9.56352e-05
9.28903e-05
9.22441e-05
9.69848e-05
9.48066e-05
9.67264e-05
0.000122023
0.000127512
0.000129503
0.000137641
0.000160586
0.00016116
0.000169823
2.04297e-05
3.25343e-05
5.41406e-05
5.08023e-05
5.31685e-05
6.83424e-05
7.29528e-05
7.78898e-05
7.82564e-05
7.6254e-05
7.66634e-05
7.62906e-05
7.60102e-05
7.72745e-05
8.02214e-05
8.49986e-05
8.83462e-05
8.86131e-05
8.89399e-05
9.05649e-05
2.0395e-05
3.04343e-05
6.06586e-05
6.08505e-05
6.52495e-05
6.43275e-05
6.55829e-05
7.89864e-05
8.139e-05
8.35161e-05
8.64794e-05
8.30219e-05
8.04223e-05
8.6649e-05
9.11655e-05
9.23505e-05
9.56298e-05
9.62908e-05
9.62439e-05
9.82335e-05
2.09013e-05
2.99586e-05
3.94757e-05
7.1579e-05
7.64072e-05
7.69483e-05
8.65721e-05
8.78058e-05
8.74404e-05
9.11174e-05
9.0786e-05
9.30576e-05
0.000109273
0.0001214
0.000135528
0.000155647
0.000161449
0.000168224
0.000182189
0.000230888
2.12603e-05
2.77457e-05
4.31691e-05
9.05707e-05
0.000105393
0.000147172
0.000158298
0.000172378
0.000221363
0.000245765
0.000286989
0.000480052
0.000558406
0.000664132
0.000894326
0.00118502
0.00131763
0.0016277
0.00192275
0.0028342
2.16684e-05
4.21366e-05
0.000122211
0.000381262
0.000597638
0.00111018
0.00138021
0.00199124
0.00283392
0.0033151
0.00433959
0.00697212
0.00769305
0.00963593
0.0116625
0.0148245
0.0165489
0.0208618
0.0235414
0.031184
2.51918e-05
0.000298034
0.00141215
0.0050453
0.00798654
0.0141676
0.0178501
0.0265797
0.0339673
0.0401825
0.0513828
0.0676739
0.0724402
0.086248
0.0964233
0.113762
0.122659
0.145978
0.158397
0.19206
0.000125123
0.0048211
0.0212995
0.0581108
0.0896285
0.12902
0.154781
0.209147
0.246511
0.274043
0.318394
0.36991
0.38561
0.431304
0.460418
0.507697
0.530306
0.592288
0.621012
0.692416
0.00337492
0.0687008
0.252296
0.428845
0.589971
0.70225
0.828489
0.93781
1.02639
1.07531
1.16952
1.22655
1.2488
1.30846
1.3446
1.38002
1.40067
1.46019
1.48106
1.52502
0.0844478
0.721494
1.56307
1.94882
2.28757
2.42648
2.5818
2.60013
2.62337
2.59335
2.59031
2.5457
2.52466
2.47526
2.46444
2.41789
2.40798
2.38447
2.37144
2.33861
1.40382
4.34223
5.32656
5.29062
5.13695
4.79555
4.59101
4.27175
4.12828
3.87527
3.77825
3.57329
3.52329
3.36283
3.3252
3.20098
3.16806
3.04361
3.00438
2.90098
8.11457
10.2587
8.80811
6.81222
5.71811
4.95672
4.54247
4.12387
3.92542
3.65623
3.55176
3.34088
3.30388
3.12885
3.09375
2.93257
2.8991
2.71433
2.64867
2.43713
1.76036
1.29359
1.02811
0.875931
0.782501
0.730564
0.688189
0.666609
0.641626
0.634068
0.619305
0.614896
0.601395
0.591683
0.570966
0.548006
0.52093
0.48774
0.465438
0.439116
0.405324
0.372617
0.350748
0.323505
0.303803
0.292859
0.284368
0.284328
0.287021
0.295106
0.301259
0.313857
0.323131
0.335046
0.344012
0.356312
0.361861
0.374035
0.378129
0.386795
0.392181
0.405838
0.412846
0.429071
0.434761
0.447779
0.455743
0.473207
0.487263
0.489662
0.503634
0.508195
0.501954
0.485294
0.446159
0.372869
0.299164
0.240806
0.196767
0.167398
0.140516
0.119841
0.104909
0.0944585
0.0899125
0.0889627
0.0878218
0.0844616
0.0831233
0.0835458
0.0843662
0.0869646
0.0893215
0.0943186
0.0994304
0.111875
0.124267
0.141203
0.165825
0.191512
0.208605
0.216111
0.219581
0.219035
0.217437
0.208623
0.198358
0.176164
0.15312
0.123591
0.097467
0.0755409
0.0571093
0.0461647
0.0367182
0.031518
0.0264509
0.0241018
0.021299
0.0191153
0.018075
0.0163125
0.0153778
0.0145246
0.0132803
0.0123133
0.0110565
0.0100127
0.00864045
0.00781638
0.00660609
0.00612068
0.00534529
0.00525071
0.00509363
0.00518325
0.00518384
0.00520837
0.00526297
0.005251
0.00524267
0.00527987
0.00564032
0.00660408
0.00965091
0.013264
0.0209
0.0322949
0.0459454
0.0767577
0.0989185
0.132201
0.158255
0.173233
0.182741
0.182411
0.179102
0.171664
0.160578
0.145684
0.129146
0.112654
0.0951588
0.0775435
0.0633296
0.0486305
0.0376336
0.0295716
0.0234298
0.0192451
0.0164336
0.0146647
0.0140589
0.0136108
0.0136685
0.0146721
0.0157164
0.0177688
0.0209323
0.023846
0.0279035
0.0350104
0.0375673
0.0427718
0.0487323
0.0551264
0.0590659
0.0608687
0.0602172
0.0471127
0.031594
0.0242107
0.0224784
0.0239304
0.040145
0.110946
0.161033
0.193011
0.203189
0.207075
0.217874
0.220839
0.218186
0.20879
0.196547
0.181815
0.166859
0.148172
0.131278
0.127977
0.128092
0.130427
0.134753
0.139651
0.150716
0.17722
0.246005
0.302141
0.491194
1.83432
2.50257
2.04006
1.7053
1.47349
1.30072
1.177
1.07786
1.00532
0.942527
0.894929
0.854914
0.821279
0.798292
0.771563
0.756077
0.73252
0.716026
0.696437
0.678625
0.659933
0.646808
0.625156
0.608001
0.591693
0.574279
0.560828
0.548203
0.540927
0.529085
0.525308
0.519962
0.51503
0.511553
0.508723
0.50469
0.502453
0.49716
0.495271
0.491141
0.488327
0.482032
0.479105
0.473015
0.468742
0.464417
0.458997
0.45774
0.452791
0.449568
0.446522
0.446885
0.450028
0.458195
0.475462
0.487057
0.486525
0.481846
0.466303
0.449419
0.419092
0.379866
0.33283
0.296884
0.259954
0.236078
0.22278
0.217051
0.211166
0.210255
0.210313
0.211724
0.212776
0.215571
0.217228
0.220446
0.224887
0.228953
0.233997
0.234079
0.231895
0.22964
0.224329
0.217768
0.202299
0.184587
0.155063
0.123326
0.089458
0.0621526
0.0427439
0.0304245
0.0220455
0.0164569
0.0128009
0.0100744
0.00849215
0.00710749
0.0062901
0.0056103
0.0050872
0.00466293
0.0044119
0.0040984
0.00396029
0.00372922
0.0036311
0.00343812
0.00338561
0.00331624
0.00333434
0.00337341
0.00357983
0.00369726
0.00413116
0.0042902
0.00464935
0.00473064
0.00497166
0.00501989
0.00517545
0.00550252
0.0064402
0.00866075
0.0119885
0.019491
0.0286822
0.0492135
0.0738303
0.122684
0.178921
0.21763
0.241562
0.243162
0.240395
0.235569
0.226761
0.217766
0.211892
0.200626
0.19387
0.180237
0.166795
0.152064
0.133146
0.115553
0.0988138
0.0811051
0.0651644
0.0505597
0.0394583
0.0306866
0.0246892
0.0211768
0.018503
0.0169068
0.0168041
0.0171794
0.0183763
0.021639
0.0241123
0.0280552
0.0323673
0.041583
0.0500079
0.0547555
0.0558572
0.0559385
0.0558739
0.0508313
0.036414
0.0284061
0.0254712
0.0266431
0.0462086
0.137651
0.18881
0.206859
0.206923
0.195762
0.183359
0.174739
0.165201
0.158577
0.149187
0.146043
0.135658
0.127496
0.11167
0.0971682
0.0913043
0.0910763
0.0926979
0.0977934
0.110184
0.120555
0.14088
0.204271
0.254025
0.441319
1.05604
2.05958
1.80152
1.59053
1.42753
1.29989
1.19537
1.1065
1.03242
0.968362
0.913921
0.870067
0.829673
0.800046
0.77076
0.749791
0.72633
0.710593
0.691059
0.677309
0.661302
0.648444
0.63651
0.621734
0.611425
0.598717
0.587577
0.576094
0.564643
0.555771
0.542787
0.537108
0.526552
0.521102
0.513375
0.509167
0.50139
0.497017
0.488228
0.481426
0.473642
0.462514
0.450679
0.442651
0.42474
0.415862
0.402574
0.38901
0.380964
0.370691
0.363454
0.361935
0.362513
0.364255
0.368272
0.376422
0.381288
0.38871
0.398399
0.402996
0.406272
0.406492
0.405028
0.400144
0.391446
0.3775
0.364354
0.35337
0.342136
0.333798
0.321965
0.316576
0.308459
0.302043
0.295334
0.28675
0.278662
0.265339
0.256151
0.24368
0.225802
0.210283
0.186597
0.154828
0.122637
0.086229
0.058255
0.0391244
0.0262335
0.0179004
0.0122675
0.00875272
0.00641674
0.00497074
0.00405934
0.00350263
0.00315838
0.00295267
0.00278362
0.00271895
0.00264209
0.00259248
0.00255518
0.00253703
0.00250908
0.00249685
0.00250736
0.00251311
0.00255971
0.00262445
0.00278463
0.00292164
0.00324488
0.00346462
0.00401885
0.00420319
0.00459054
0.00477681
0.00533046
0.00583218
0.00706781
0.00862281
0.0126756
0.0171878
0.0260571
0.0391754
0.0663645
0.114027
0.190834
0.258517
0.27949
0.280443
0.274885
0.262223
0.249855
0.241292
0.228207
0.221456
0.214279
0.205722
0.201623
0.192105
0.187334
0.178676
0.169986
0.160587
0.145256
0.131927
0.116685
0.0980976
0.0822596
0.0655347
0.050111
0.0384925
0.030587
0.0254227
0.0223792
0.0217522
0.0219804
0.0245582
0.0268895
0.030917
0.0341299
0.0428846
0.0498044
0.0548328
0.0552177
0.0554167
0.0531699
0.0431919
0.0333464
0.0300648
0.029897
0.0439341
0.132969
0.201776
0.21588
0.212438
0.193233
0.164947
0.151349
0.143377
0.141415
0.137387
0.128501
0.118612
0.103103
0.0940396
0.0864215
0.0762614
0.0697876
0.0685989
0.0694821
0.0726911
0.0832695
0.0958476
0.108238
0.171526
0.211389
0.318932
0.627354
1.36282
1.24073
1.12419
1.03632
0.9632
0.909137
0.850005
0.806092
0.756988
0.718037
0.681882
0.650905
0.626028
0.605628
0.58552
0.573526
0.554812
0.545932
0.530244
0.52195
0.509924
0.503048
0.491302
0.484821
0.471299
0.464245
0.44992
0.439736
0.427306
0.414204
0.403834
0.393895
0.382969
0.377589
0.368718
0.36472
0.357168
0.351398
0.345595
0.337802
0.327754
0.318586
0.305591
0.292912
0.278055
0.265073
0.249017
0.237543
0.227144
0.216858
0.208535
0.205893
0.20607
0.208097
0.213039
0.224474
0.231741
0.243794
0.251555
0.260731
0.269973
0.278134
0.284087
0.29225
0.294552
0.294836
0.294284
0.292715
0.288303
0.284967
0.277867
0.272981
0.263633
0.253399
0.240147
0.221314
0.201511
0.177948
0.149565
0.124304
0.0944574
0.0677334
0.0475629
0.0329238
0.0224384
0.0152666
0.0104372
0.00725472
0.00521881
0.00389749
0.00315274
0.00270097
0.00247651
0.00243789
0.00242495
0.00244523
0.00248496
0.00252771
0.002619
0.00266884
0.00273856
0.00282578
0.00292365
0.0030037
0.00307912
0.0031538
0.00320619
0.00329985
0.00339734
0.00366602
0.00387157
0.00434182
0.00483203
0.00546327
0.00588021
0.00677378
0.00749916
0.00918962
0.0106752
0.0139398
0.0177079
0.0260844
0.0356475
0.0515995
0.084572
0.167189
0.268391
0.31276
0.318124
0.305451
0.293084
0.266864
0.242551
0.226899
0.211508
0.201041
0.197778
0.191575
0.18988
0.18653
0.184183
0.183415
0.179549
0.177858
0.176691
0.172839
0.16814
0.158496
0.148041
0.128958
0.113439
0.0922924
0.0753202
0.0567688
0.0435297
0.034494
0.0299173
0.0292667
0.0302584
0.0319634
0.0389612
0.0424534
0.0474217
0.0507309
0.0559206
0.0580767
0.0577277
0.0495101
0.0380567
0.0316471
0.0320057
0.0362379
0.111758
0.203848
0.233172
0.228897
0.201297
0.1663
0.147047
0.139667
0.138185
0.135578
0.124889
0.100403
0.0827502
0.0695838
0.0658847
0.0623403
0.0583067
0.0534434
0.0524548
0.0528189
0.0544724
0.0595082
0.0768996
0.0876983
0.128985
0.168195
0.233345
0.410595
0.626674
0.584484
0.539511
0.501031
0.472715
0.459159
0.438735
0.42917
0.409596
0.392932
0.374162
0.355778
0.341361
0.32919
0.319275
0.314663
0.305426
0.301817
0.29435
0.290184
0.284804
0.279989
0.277596
0.273838
0.269591
0.266569
0.259237
0.251783
0.243263
0.233012
0.222101
0.212919
0.202131
0.19364
0.186422
0.178838
0.174311
0.167887
0.163222
0.158775
0.154759
0.150128
0.146872
0.141346
0.135362
0.129474
0.122183
0.112029
0.102873
0.0947407
0.0874359
0.0809977
0.0771666
0.0762817
0.0764817
0.0775195
0.0808906
0.0872219
0.0958011
0.103544
0.113353
0.122027
0.129399
0.134621
0.138688
0.139074
0.138607
0.136779
0.132808
0.126982
0.119711
0.110966
0.101231
0.0911344
0.0801914
0.0690009
0.0579774
0.0471153
0.0373156
0.028794
0.0215208
0.0157848
0.011345
0.00809813
0.00581891
0.00422283
0.00319522
0.0026043
0.00224408
0.00212954
0.00213734
0.00216795
0.00225089
0.00253658
0.00279058
0.00334789
0.00373958
0.00423687
0.00494509
0.00526632
0.00572044
0.00626122
0.0067
0.00702716
0.0074307
0.00759092
0.00783867
0.00794668
0.00811114
0.00851974
0.00882327
0.009603
0.010321
0.0113396
0.0121633
0.0139502
0.015554
0.0186083
0.0215875
0.0270396
0.0365863
0.0483567
0.0654763
0.106504
0.207713
0.326994
0.3498
0.346163
0.329083
0.286838
0.251699
0.217586
0.2072
0.1962
0.19028
0.188114
0.184493
0.180496
0.178577
0.174681
0.169337
0.168389
0.169912
0.173397
0.17683
0.178783
0.184714
0.184013
0.181213
0.173894
0.162518
0.140435
0.120933
0.0985759
0.0802892
0.0595251
0.0481845
0.0423684
0.0415847
0.0427265
0.0499789
0.0525206
0.0537593
0.056128
0.0612555
0.062776
0.0581147
0.0431859
0.0334371
0.0312047
0.0322276
0.054627
0.181843
0.242582
0.247713
0.226523
0.174549
0.152851
0.137745
0.136965
0.134016
0.124391
0.0963138
0.0775755
0.0634798
0.0574147
0.0508244
0.0479905
0.0443909
0.0423761
0.0417346
0.0427011
0.0447305
0.047972
0.0586487
0.0699122
0.101712
0.130223
0.159252
0.266612
0.171662
0.16329
0.154964
0.144044
0.138073
0.135148
0.133958
0.134261
0.134171
0.131832
0.128038
0.120855
0.116573
0.111139
0.108459
0.106571
0.105587
0.105249
0.103872
0.101604
0.0998777
0.0977473
0.0973163
0.0968357
0.0968869
0.0968661
0.0966199
0.0958178
0.0947345
0.0915248
0.0863107
0.0803103
0.0739474
0.0683992
0.0633765
0.0593727
0.0562609
0.0534092
0.0506349
0.0487144
0.0470726
0.0452816
0.0439787
0.0426274
0.0414623
0.0406027
0.0394796
0.0379276
0.0354808
0.0326247
0.030159
0.0278379
0.0254184
0.0236332
0.0227176
0.0225338
0.0226354
0.0230074
0.0246769
0.0270109
0.0304069
0.0344402
0.0379012
0.0414834
0.0446576
0.0457848
0.0457936
0.0453342
0.0440841
0.0414145
0.0380148
0.034088
0.0299862
0.0259495
0.0220012
0.0182609
0.0148467
0.0118199
0.0091886
0.007054
0.00534898
0.00404649
0.00307136
0.00243929
0.00203123
0.00178968
0.00176266
0.00178921
0.00186382
0.00203596
0.00252286
0.00300392
0.00389022
0.00540786
0.00644279
0.0081514
0.009527
0.0111569
0.0127762
0.0137775
0.015228
0.016569
0.0174934
0.0183554
0.019216
0.0195568
0.0198619
0.0198892
0.0199669
0.0200385
0.0204468
0.0208914
0.0220035
0.0229789
0.0251301
0.0272442
0.0312038
0.0347597
0.0402251
0.0518116
0.0632367
0.0819323
0.125499
0.25638
0.368893
0.389129
0.370044
0.341805
0.265727
0.23478
0.211436
0.201155
0.198334
0.191754
0.190446
0.18835
0.184228
0.183252
0.18121
0.17537
0.171451
0.161726
0.156817
0.158648
0.166113
0.17318
0.184454
0.187819
0.196335
0.197815
0.196124
0.188835
0.17313
0.148613
0.125752
0.0988591
0.081056
0.0682714
0.0629713
0.0635426
0.064266
0.0648435
0.0656347
0.0698428
0.0699664
0.0661442
0.0482034
0.0354287
0.0296488
0.0295713
0.0342469
0.1133
0.229105
0.266042
0.254892
0.203411
0.162531
0.133297
0.129117
0.127288
0.116513
0.0957464
0.0800144
0.0636418
0.0557074
0.0512743
0.0442758
0.0418607
0.0377051
0.0372433
0.0372577
0.0380157
0.0403464
0.0434552
0.051303
0.0592275
0.103604
0.121371
0.131513
0.183392
0.0263395
0.0254747
0.0240426
0.0227995
0.0225348
0.0227493
0.0236097
0.024989
0.0257739
0.026143
0.0260814
0.0248723
0.0232474
0.0217047
0.0208365
0.0206024
0.020593
0.021009
0.0211638
0.021073
0.0207586
0.0200138
0.019523
0.0192021
0.019208
0.0204777
0.02195
0.0229516
0.0232721
0.0232668
0.0229777
0.0212239
0.0187642
0.0165494
0.0146215
0.0133112
0.0123642
0.0116665
0.0110129
0.010476
0.0101026
0.00983615
0.00970547
0.0096372
0.0095877
0.00952191
0.00945012
0.00942596
0.00924615
0.00849076
0.00777299
0.00720309
0.00669086
0.00618337
0.00575249
0.00550797
0.00542066
0.00541998
0.00554737
0.00571696
0.00613611
0.00725509
0.00841401
0.00987311
0.0115553
0.0127388
0.0131183
0.0131022
0.0128989
0.0123336
0.0110594
0.00953184
0.00802672
0.00658363
0.00534099
0.00427678
0.00340955
0.00271638
0.00220606
0.00181787
0.00157193
0.00140522
0.00136592
0.00138113
0.00143067
0.00156672
0.00178938
0.00239895
0.00303455
0.00443168
0.0063799
0.00813354
0.0114375
0.0145806
0.0176086
0.0212451
0.0252292
0.0285469
0.0322666
0.0349166
0.0381255
0.0409935
0.0429298
0.0452772
0.0467893
0.047389
0.0472206
0.0467085
0.0454909
0.0445468
0.0437422
0.0434967
0.0436558
0.0445464
0.0476373
0.0505518
0.0552317
0.0600738
0.0718451
0.0837474
0.103074
0.146216
0.29217
0.412543
0.42216
0.398666
0.316786
0.267781
0.224915
0.216993
0.198714
0.197642
0.195632
0.194936
0.197921
0.193857
0.193821
0.192441
0.190917
0.188174
0.182841
0.167868
0.158039
0.147948
0.148165
0.152611
0.165437
0.174867
0.194151
0.199257
0.201741
0.200173
0.195769
0.18232
0.164801
0.132846
0.111776
0.0964023
0.0899532
0.0877889
0.0794609
0.0772541
0.0763405
0.0765688
0.0720682
0.0584935
0.0402832
0.0302646
0.0274568
0.028358
0.0417758
0.167984
0.251989
0.278799
0.251792
0.191634
0.140027
0.115181
0.111149
0.105486
0.0923923
0.081014
0.0661378
0.0562606
0.0529572
0.0469694
0.0426921
0.0385643
0.0362629
0.0356824
0.0370591
0.0379621
0.0379554
0.0412806
0.0701839
0.0631304
0.0744225
0.116397
0.123633
0.149804
0.00206818
0.00200027
0.00192519
0.00186666
0.00186698
0.00200456
0.00221261
0.00244629
0.00261841
0.00274087
0.00275979
0.00268347
0.00249421
0.00227809
0.00214341
0.00208813
0.0020824
0.0021628
0.00222575
0.00221728
0.00212565
0.0019395
0.00180539
0.00170358
0.00167714
0.00183795
0.00235125
0.0027896
0.00306872
0.00317077
0.00318244
0.00303504
0.0026678
0.00230666
0.00198494
0.00174502
0.00157933
0.00146718
0.00138742
0.00132231
0.00128755
0.00127828
0.00128244
0.00128848
0.00128793
0.0012823
0.0012761
0.00127291
0.00126353
0.0012211
0.00117967
0.00115723
0.00114754
0.00113384
0.00107879
0.000993774
0.000916194
0.000865369
0.000844192
0.000846694
0.000874747
0.000887758
0.000903796
0.00117171
0.00186916
0.00249876
0.00284332
0.00293176
0.00292605
0.00285726
0.00251202
0.00206137
0.00166481
0.00132316
0.00109343
0.000944617
0.00086286
0.000867261
0.000914607
0.00096113
0.00102909
0.00117788
0.00133673
0.00175124
0.00226802
0.00340772
0.00460464
0.00717877
0.00960234
0.0140798
0.0191046
0.0242517
0.031322
0.0378019
0.0450351
0.0531567
0.0610049
0.069177
0.0760714
0.0829202
0.0895375
0.0955445
0.100751
0.105589
0.107531
0.107109
0.105522
0.101955
0.09711
0.0932675
0.0887203
0.0848616
0.0830229
0.0830243
0.0834154
0.0853484
0.0894108
0.100139
0.113777
0.132638
0.173071
0.32276
0.446904
0.453058
0.410247
0.308527
0.265963
0.237121
0.214293
0.204738
0.189153
0.19312
0.193158
0.201475
0.204309
0.199678
0.201663
0.195704
0.195916
0.195094
0.194236
0.186769
0.168821
0.150832
0.14308
0.140185
0.142243
0.146006
0.163669
0.181651
0.194861
0.194955
0.192864
0.185915
0.170495
0.153232
0.130148
0.117998
0.10574
0.102472
0.0952301
0.0920634
0.0857286
0.0784055
0.0642562
0.0480913
0.0339363
0.0267821
0.0257658
0.0286069
0.0598324
0.197501
0.275028
0.282121
0.250552
0.184668
0.131484
0.110241
0.103051
0.096989
0.0851598
0.0694345
0.0600779
0.0556206
0.0506666
0.0438258
0.0393596
0.0370551
0.0322367
0.0350222
0.0364388
0.041406
0.0642082
0.0500176
0.0899068
0.0753434
0.0767663
0.112419
0.119749
0.137117
0.000167891
0.000165069
0.000167268
0.000169576
0.000170846
0.000177363
0.000196907
0.000233866
0.000261371
0.000295781
0.000306886
0.000305341
0.000279706
0.000248804
0.00023098
0.000224894
0.000225082
0.000230279
0.000233636
0.000226964
0.000209784
0.000197533
0.000187888
0.000181477
0.000176991
0.000178118
0.000202266
0.000248228
0.000284848
0.000307267
0.000315372
0.000314206
0.000289069
0.000254362
0.000225668
0.000206404
0.000196534
0.000190939
0.000188284
0.00018778
0.00018999
0.000194674
0.000197013
0.000197123
0.000193077
0.000190856
0.00019063
0.000192651
0.000201281
0.000211058
0.000218197
0.000221003
0.000219888
0.000212317
0.000207436
0.000203865
0.000202733
0.000200344
0.000199208
0.000199206
0.000199897
0.00019798
0.000193199
0.000208515
0.000322653
0.000455559
0.000527767
0.000550794
0.000550863
0.000536337
0.000460995
0.000384947
0.000370442
0.000379014
0.00042374
0.000504159
0.000624996
0.00077033
0.00112523
0.00139978
0.00191729
0.00276694
0.00361236
0.0056749
0.00765481
0.0113674
0.0158835
0.0221689
0.0301219
0.0405446
0.0516709
0.0635572
0.0774148
0.0908775
0.106434
0.123279
0.139187
0.155307
0.169789
0.184882
0.19882
0.211224
0.223581
0.229798
0.229306
0.226283
0.218984
0.207216
0.195347
0.18135
0.172162
0.160174
0.144982
0.138364
0.138055
0.139254
0.14518
0.161425
0.176952
0.210637
0.351384
0.475207
0.478316
0.404947
0.310535
0.271089
0.248285
0.222361
0.202785
0.178721
0.170952
0.173339
0.182194
0.206981
0.208314
0.212662
0.211766
0.199258
0.198961
0.194493
0.197744
0.191906
0.186579
0.16041
0.148072
0.134068
0.130517
0.129274
0.133259
0.138179
0.155311
0.171559
0.179157
0.178382
0.166993
0.156529
0.136642
0.130793
0.122459
0.118823
0.107729
0.0975928
0.086884
0.0731078
0.0575117
0.0417348
0.0299194
0.0250025
0.0249513
0.0304532
0.0793283
0.215175
0.285039
0.288563
0.259947
0.185716
0.131143
0.11166
0.10276
0.0938761
0.0773363
0.0657883
0.0606036
0.0547016
0.0500588
0.043386
0.0350091
0.0345835
0.0309017
0.0375455
0.10134
0.0634384
0.240076
0.106596
0.104236
0.0889589
0.0815252
0.105862
0.112121
0.125228
9.0537e-05
9.13156e-05
9.44194e-05
9.91198e-05
0.000103172
0.000105746
0.000107541
0.000107228
0.000106788
0.000106682
0.000107602
0.000112772
0.000118598
0.000123724
0.000125399
0.000124665
0.000119934
0.000117675
0.000118666
0.000126151
0.00013199
0.000133681
0.000131591
0.00012612
0.000122155
0.000119595
0.000118129
0.000117257
0.000116579
0.000115163
0.000111724
0.000108256
0.000105846
0.000104932
0.000105027
0.000108951
0.000121964
0.000133363
0.000141148
0.000143581
0.000143572
0.000140985
0.000136264
0.000132719
0.000131345
0.000132034
0.000141588
0.000155861
0.000164848
0.000170374
0.0001731
0.000174445
0.000174296
0.000171413
0.000158254
0.000148815
0.000147182
0.000161072
0.000191863
0.000218004
0.000234607
0.000239999
0.000241045
0.000240619
0.000241015
0.000240471
0.000240203
0.00023977
0.000233183
0.000232242
0.000234881
0.000247507
0.000290063
0.000401331
0.00069165
0.00113408
0.00166972
0.00244715
0.00383124
0.00484902
0.00702899
0.00943366
0.0129212
0.0188545
0.0247596
0.0349376
0.0470378
0.062605
0.0806181
0.103271
0.124429
0.149552
0.175689
0.203127
0.234556
0.265832
0.296465
0.328167
0.3561
0.386127
0.405404
0.426954
0.436709
0.435604
0.430693
0.418496
0.39905
0.374141
0.348709
0.327026
0.295217
0.275107
0.253116
0.229554
0.226167
0.228282
0.232917
0.242438
0.265612
0.373894
0.498757
0.497984
0.392807
0.31121
0.276742
0.256585
0.237332
0.213565
0.183819
0.164424
0.156852
0.155652
0.173583
0.202496
0.206681
0.218192
0.213633
0.207634
0.205306
0.19661
0.19807
0.194632
0.196401
0.168098
0.158923
0.135769
0.131134
0.125334
0.124482
0.123323
0.124881
0.130134
0.143083
0.155771
0.15467
0.152457
0.139578
0.134637
0.131526
0.126085
0.110945
0.0973807
0.0816599
0.0654204
0.0499595
0.0362483
0.0267262
0.0237982
0.0245794
0.0333869
0.0867055
0.209606
0.284044
0.300549
0.284103
0.212435
0.148404
0.122676
0.109161
0.0928106
0.0749897
0.0705475
0.0597652
0.0538612
0.0523854
0.0452254
0.0366112
0.0344031
0.0295088
0.0416201
0.373071
0.17466
0.3315
0.204087
0.192271
0.129889
0.0973227
0.109033
0.114403
0.123041
9.98054e-05
0.000100763
0.000103241
0.000104534
0.000104441
0.000104035
0.000105522
0.000115151
0.000123646
0.000132322
0.000135073
0.000137479
0.000137646
0.000139896
0.000144151
0.000146163
0.000146473
0.000142399
0.000133182
0.000125838
0.000121379
0.000120424
0.00012398
0.00013642
0.000146027
0.000152442
0.000153306
0.000149584
0.000140552
0.000130857
0.000123799
0.000118193
0.000115965
0.000117498
0.000146263
0.000222681
0.000295242
0.000343854
0.000364062
0.000364622
0.000339379
0.000299975
0.000267615
0.000245389
0.000237051
0.000248479
0.000337105
0.000454096
0.000538592
0.000584867
0.000598209
0.000588414
0.000518041
0.000420242
0.000342192
0.000298464
0.000290518
0.000321362
0.000429746
0.000546961
0.000662318
0.000739858
0.00076951
0.000760759
0.000685051
0.00058371
0.000502583
0.000471649
0.000472301
0.00049259
0.000555038
0.00071318
0.0011305
0.00184999
0.00303488
0.00494177
0.00655528
0.00920207
0.0131216
0.0161578
0.0231142
0.0291519
0.0411198
0.0539927
0.0726565
0.0953825
0.122964
0.155846
0.192206
0.233923
0.27238
0.319399
0.367752
0.416366
0.460933
0.499645
0.524074
0.541587
0.554068
0.561018
0.561583
0.559665
0.553133
0.544028
0.53784
0.524013
0.512486
0.49616
0.471448
0.455963
0.428909
0.38658
0.37211
0.354373
0.325116
0.318452
0.315843
0.323978
0.426369
0.507022
0.485878
0.364797
0.303359
0.27983
0.265414
0.250748
0.235506
0.210383
0.179282
0.160569
0.15237
0.150808
0.16965
0.188755
0.202315
0.215835
0.204356
0.214917
0.208005
0.201397
0.202131
0.199522
0.195961
0.185147
0.175109
0.141233
0.138153
0.128484
0.119473
0.115535
0.113168
0.117898
0.124342
0.136672
0.141596
0.14393
0.140723
0.141299
0.139255
0.129144
0.109109
0.0924489
0.0748712
0.0585377
0.0425497
0.0304751
0.0238389
0.022518
0.0239611
0.0335913
0.0833236
0.188231
0.276084
0.310823
0.307118
0.260254
0.181759
0.14431
0.123681
0.0920025
0.0806842
0.0752358
0.0592614
0.0577472
0.0527354
0.0421028
0.0382845
0.0356475
0.030875
0.0594877
0.25676
0.215392
0.206079
0.226253
0.221165
0.205844
0.14734
0.127066
0.124974
0.127543
0.000243437
0.000256672
0.000267456
0.000271463
0.000272441
0.00027057
0.000270824
0.000269047
0.000270616
0.000277404
0.000293604
0.000354977
0.000416847
0.000463618
0.000484725
0.000485139
0.000467468
0.00042726
0.000394933
0.000374233
0.000371622
0.000384693
0.000458265
0.000546548
0.000624469
0.000678531
0.000693016
0.000676976
0.000614214
0.000545306
0.000506283
0.000481185
0.00047758
0.000527091
0.000824731
0.00128139
0.00169121
0.0019734
0.00209278
0.00209475
0.00193899
0.00170208
0.00150557
0.00137985
0.00135173
0.00147798
0.00201941
0.00252522
0.00287992
0.00304475
0.00308229
0.00300776
0.00261666
0.00210712
0.00167292
0.00139492
0.00130675
0.00140628
0.00194967
0.00255514
0.00308713
0.00341848
0.00352972
0.00342916
0.0029359
0.00248708
0.00226315
0.00224628
0.00230193
0.0025421
0.00306919
0.00439524
0.00594376
0.00933942
0.0123867
0.0182468
0.022399
0.0301923
0.0395063
0.0489833
0.0663082
0.0852358
0.111953
0.143578
0.186704
0.229121
0.285708
0.34267
0.40698
0.459204
0.509099
0.543963
0.570681
0.588854
0.599254
0.600232
0.601738
0.600733
0.598097
0.591541
0.583452
0.574446
0.562632
0.556657
0.547752
0.541471
0.536029
0.522051
0.513638
0.503847
0.484027
0.44526
0.416508
0.393985
0.375583
0.373272
0.395323
0.460046
0.482291
0.454088
0.344894
0.285859
0.27178
0.267226
0.261397
0.26228
0.255715
0.224556
0.180488
0.159839
0.150203
0.14707
0.158606
0.184587
0.20054
0.203972
0.203489
0.212577
0.196881
0.199433
0.199456
0.196845
0.184204
0.182466
0.165384
0.159202
0.140773
0.134154
0.120531
0.118117
0.114561
0.118172
0.125069
0.135548
0.137496
0.142884
0.140879
0.143733
0.141129
0.125207
0.0999363
0.0793926
0.0625408
0.0456767
0.0334334
0.0255668
0.0219418
0.0216181
0.023399
0.032671
0.0664059
0.146526
0.240463
0.306848
0.334386
0.317722
0.226666
0.174346
0.132446
0.0941613
0.0916705
0.0858934
0.0643096
0.0597914
0.0500162
0.0483384
0.0400617
0.0377629
0.0399367
0.11101
0.144232
0.205976
0.186175
0.228479
0.238372
0.26361
0.24742
0.181151
0.153659
0.144237
0.00307248
0.00307697
0.00306197
0.00301905
0.00293486
0.00283688
0.00280732
0.00281772
0.00291689
0.00330036
0.00368144
0.00422783
0.00456571
0.00474504
0.00477791
0.00473147
0.00455753
0.00432373
0.00413872
0.0040612
0.00406337
0.00428063
0.00470492
0.00510892
0.00547023
0.0057004
0.00576545
0.00571705
0.00554518
0.00542868
0.0053915
0.00538747
0.00557341
0.00648871
0.00780121
0.00916669
0.0101788
0.0107813
0.0109367
0.0108019
0.0102381
0.00969002
0.0092987
0.00914913
0.00923993
0.0103145
0.0117425
0.0128311
0.0134533
0.0136482
0.0136054
0.0129803
0.011733
0.0105243
0.00956077
0.00904552
0.00892143
0.00915711
0.0100124
0.0109726
0.0118967
0.0125213
0.0126511
0.0120802
0.0108986
0.0103768
0.0103788
0.0106216
0.0113294
0.0134525
0.0161603
0.0207674
0.0274726
0.034562
0.0448131
0.0562203
0.0687596
0.0880237
0.107584
0.136302
0.175202
0.218941
0.27197
0.345135
0.409637
0.480209
0.53037
0.567019
0.591317
0.606533
0.613614
0.618102
0.620617
0.617581
0.609342
0.591945
0.567804
0.541464
0.516029
0.493257
0.480549
0.48008
0.48385
0.491635
0.496058
0.497284
0.494363
0.49375
0.491409
0.481047
0.466489
0.456745
0.439029
0.427475
0.429155
0.437263
0.440998
0.448584
0.408622
0.313466
0.260306
0.241743
0.251653
0.274597
0.297555
0.309932
0.310899
0.274107
0.204736
0.167996
0.150065
0.142542
0.140595
0.159244
0.187697
0.199922
0.203393
0.204358
0.19696
0.197181
0.185717
0.184706
0.176806
0.174402
0.16529
0.162965
0.150137
0.151437
0.131253
0.138027
0.130061
0.131053
0.131649
0.136583
0.135395
0.143371
0.144148
0.149971
0.142372
0.107599
0.0812701
0.0624519
0.0493172
0.0358037
0.0275818
0.0229172
0.02128
0.021822
0.0237179
0.0324487
0.0561907
0.0909505
0.16955
0.273335
0.362727
0.367439
0.276438
0.212536
0.14929
0.112635
0.114536
0.10416