/*--------------------------------*- C++ -*----------------------------------*\
| =========                 |                                                 |
| \\      /  F ield         | OpenFOAM: The Open Source CFD Toolbox           |
|  \\    /   O peration     | Version:  2.4.0                                 |
|   \\  /    A nd           | Web:      www.OpenFOAM.org                      |
|    \\/     M anipulation  |                                                 |
\*---------------------------------------------------------------------------*/
FoamFile
{
    version     2.0;
    format      ascii;
    class       volScalarField;
    location    "0.41";
    object      pMean;
}
// * * * * * * * * * * * * * * * * * * * * * * * * * * * * * * * * * * * * * //

dimensions      [0 2 -2 0 0 0 0];

internalField   nonuniform List<scalar> 
8800
(
95.9098
83.4071
75.892
72.2544
70.2547
68.74
67.42
66.1867
65.04
63.9241
62.8519
61.7826
60.7508
59.7269
58.7516
57.8015
56.9024
56.0483
55.2168
54.296
92.8108
83.0536
76.0598
72.3675
70.3138
68.7651
67.4273
66.187
65.038
63.9215
62.8493
61.7804
60.7485
59.7248
58.7501
57.7985
56.9048
56.0469
55.2227
54.3216
90.8531
83.1278
76.6578
72.7401
70.4798
68.8432
67.4732
66.2188
65.0614
63.9382
62.859
61.7851
60.7497
59.7227
58.7476
57.7905
56.9038
56.0372
55.2884
54.3848
89.3229
83.187
77.2411
73.1602
70.6621
68.9294
67.5351
66.2743
65.1093
63.9761
62.8856
61.8024
60.7594
59.7264
58.7465
57.7828
56.8914
56.0253
55.3355
54.6055
88.0786
83.1583
77.7149
73.5634
70.8299
68.9957
67.5832
66.3309
65.1647
64.0267
62.9208
61.8295
60.7721
59.7357
58.7425
57.7786
56.8656
56.0069
55.2654
54.948
87.0977
83.0612
78.0801
73.9085
70.9812
69.0399
67.6112
66.3759
65.2146
64.0759
62.9568
61.8572
60.7847
59.7438
58.7377
57.7717
56.8421
55.9927
55.2838
55.3949
86.3439
82.9477
78.3473
74.188
71.1189
69.0686
67.6211
66.4088
65.2554
64.117
62.9888
61.8803
60.7965
59.748
58.734
57.7619
56.8306
55.995
55.3743
55.7133
85.7956
82.8472
78.53
74.399
71.242
69.0876
67.6193
66.4307
65.2863
64.1487
63.0139
61.8978
60.8052
59.7502
58.7314
57.7571
56.8303
56.0141
55.4655
55.9448
85.4399
82.7722
78.6444
74.5414
71.3287
69.0991
67.615
66.4432
65.3076
64.1707
63.0314
61.9093
60.8112
59.7518
58.7313
57.7579
56.8388
56.0395
55.5462
56.1128
85.2658
82.7312
78.7001
74.613
71.3728
69.1047
67.6123
66.4487
65.319
64.1824
63.0411
61.9154
60.8155
59.7546
58.7352
57.7643
56.853
56.0667
55.611
56.2299
85.2653
82.7318
78.7001
74.6132
71.3727
69.105
67.6123
66.449
65.3193
64.1832
63.042
61.917
60.8179
59.7589
58.7421
57.7757
56.8702
56.0948
55.6556
56.3029
85.4391
82.7733
78.6445
74.5417
71.329
69.0994
67.6153
66.4437
65.3088
64.1728
63.0345
61.9139
60.8189
59.7646
58.7524
57.7914
56.8911
56.1221
55.681
56.3316
85.7941
82.8492
78.5301
74.3996
71.2427
69.0881
67.6197
66.4317
65.2884
64.1524
63.019
61.9055
60.8177
59.7711
58.7657
57.8122
56.917
56.1509
55.6863
56.3067
86.3415
82.9506
78.3468
74.1887
71.1193
69.0699
67.6209
66.4106
65.2581
64.1222
62.9957
61.8914
60.8137
59.7775
58.7807
57.8381
56.9496
56.1866
55.677
56.2097
87.0951
83.0643
78.0799
73.909
70.9815
69.0411
67.612
66.3781
65.2183
64.082
62.9661
61.8711
60.8074
59.7804
58.7965
57.8655
56.991
56.2316
55.6802
56.0308
88.0752
83.1623
77.715
73.5638
70.83
68.997
67.5846
66.3335
65.1691
64.0337
62.9321
61.8462
60.7996
59.7796
58.8121
57.8907
57.0394
56.286
55.7132
55.7891
89.3188
83.1914
77.2415
73.1612
70.6619
68.931
67.5365
66.2779
65.114
63.9844
62.8983
61.822
60.7913
59.7765
58.8256
57.9102
57.0867
56.3377
55.7745
55.5315
90.8491
83.1317
76.6591
72.7411
70.4798
68.8448
67.4751
66.2225
65.0671
63.9467
62.8736
61.8057
60.7858
59.7757
58.8359
57.925
57.1209
56.3775
55.8341
55.3944
92.8068
83.0569
76.0615
72.3686
70.3139
68.7666
67.4293
66.191
65.044
63.9305
62.8644
61.8019
60.7863
59.7795
58.8429
57.9359
57.1374
56.4008
55.8349
55.3174
95.9062
83.4101
75.8937
72.2556
70.2548
68.7414
67.422
66.1908
65.046
63.9332
62.8671
61.8045
60.7889
59.782
58.8461
57.9397
57.1413
56.4074
55.8379
55.4354
53.946
53.5582
52.9017
52.2625
51.7438
51.339
51.0301
50.7874
50.5803
50.4093
50.2662
50.1374
50.0117
49.8873
49.7535
49.6091
49.4448
49.2549
49.0473
48.8294
48.6249
48.4733
48.3873
48.3655
48.3977
48.4625
48.5352
48.5888
48.5964
48.5379
48.4142
48.2433
48.053
47.8742
47.7196
47.5911
47.4786
47.3649
47.2445
47.1295
47.0351
46.9768
46.9771
47.0508
47.2035
47.4269
47.708
48.0289
48.3684
48.7019
49.0034
49.2523
49.4373
49.5588
49.623
49.6445
49.6473
49.6524
49.6689
49.6989
49.7388
49.7865
49.8405
49.9022
49.9704
50.0488
50.139
50.2452
50.3691
50.5069
50.6531
50.8048
50.9587
51.1155
51.2707
51.4218
51.5638
51.6916
51.8027
51.8953
51.9771
52.0542
52.1378
52.2315
52.3448
52.4747
52.6219
52.7828
52.9526
53.1286
53.3142
53.5198
53.7486
53.9981
54.267
54.5506
54.8469
55.1485
55.4554
55.7643
56.0659
56.3599
56.6251
56.85
57.0502
57.2316
57.3975
57.5499
57.6932
57.8224
57.94
58.043
58.1264
58.1872
58.222
58.2406
58.2435
58.238
58.2211
58.1891
58.1421
58.0775
57.9944
57.8963
57.7862
57.6714
57.5612
57.4603
57.3847
57.3384
57.3269
57.35
57.4099
57.5051
57.6413
57.8127
58.0178
58.2487
58.4919
58.7501
59.0072
59.2735
59.5384
59.8137
60.0897
60.3752
60.6686
60.9765
61.2851
61.5996
61.8953
62.1684
62.4239
62.6489
62.839
62.9991
63.1459
63.2444
63.3368
63.3834
63.4204
63.4097
63.3865
63.328
63.2567
63.1496
63.0431
62.8951
62.7684
62.5931
62.4776
62.3033
62.2193
62.0647
62.049
61.9292
62.0081
61.9399
62.1232
62.1264
62.3697
62.4549
62.7044
62.8551
63.0953
63.2672
63.4924
63.6309
63.8152
63.8476
63.926
63.772
63.5979
63.0386
62.3108
60.898
58.8769
54.8022
49.7856
27.5256
53.8171
53.5419
53.0901
52.5124
51.9665
51.5358
51.2261
51.0073
50.8386
50.6961
50.5677
50.4447
50.3219
50.1981
50.0667
49.924
49.765
49.5893
49.4024
49.2128
49.036
48.9003
48.82
48.7952
48.8159
48.8636
48.9165
48.9536
48.9557
48.9086
48.8083
48.6654
48.4995
48.3332
48.1801
48.0443
47.9218
47.8063
47.6935
47.5883
47.5025
47.4519
47.4529
47.518
47.6516
47.8483
48.0972
48.3817
48.6818
48.9758
49.2433
49.4673
49.6377
49.7538
49.8199
49.847
49.8499
49.8459
49.8457
49.8549
49.8737
49.901
49.9345
49.9738
50.0185
50.0724
50.1345
50.2086
50.2962
50.3978
50.5098
50.6296
50.7569
50.8909
51.0245
51.1554
51.272
51.372
51.45
51.5086
51.5551
51.5984
51.6488
51.7117
51.7954
51.8961
52.0159
52.1505
52.2941
52.4452
52.6135
52.8081
53.0314
53.2789
53.552
53.8459
54.1581
54.4794
54.8122
55.1496
55.4844
55.8105
56.1028
56.3533
56.5821
56.7925
56.9888
57.1713
57.3436
57.4987
57.6413
57.7611
57.8572
57.9173
57.9483
57.957
57.9504
57.9324
57.9025
57.8557
57.7936
57.7107
57.6106
57.4942
57.3701
57.2435
57.1243
57.015
56.9345
56.8796
56.8638
56.8829
56.9446
57.0443
57.1931
57.3768
57.6062
57.8614
58.1366
58.4221
58.7149
59.0088
59.3091
59.6093
59.915
60.2193
60.5387
60.8633
61.194
61.5187
61.8264
62.1021
62.3702
62.5821
62.7762
62.9274
63.0798
63.1596
63.2544
63.2762
63.3064
63.2711
63.2398
63.1532
63.073
62.9293
62.8129
62.6191
62.4796
62.2476
62.1101
61.8667
61.7605
61.5278
61.4797
61.2743
61.3143
61.1742
61.2939
61.2593
61.4219
61.4815
61.6671
61.7813
61.9834
62.103
62.3049
62.3615
62.5105
62.4204
62.396
62.0423
61.673
60.7695
59.675
57.4506
55.0966
48.362
42.146
21.4554
53.8626
53.6655
53.3618
52.8494
52.2545
51.7462
51.3928
51.1779
51.0449
50.9433
50.8439
50.7361
50.6192
50.4951
50.3639
50.2227
50.0709
49.9092
49.7418
49.5773
49.4273
49.309
49.2343
49.2046
49.2129
49.2452
49.2842
49.3123
49.3144
49.279
49.2019
49.0873
48.9486
48.8015
48.6583
48.5244
48.4006
48.2865
48.1822
48.0909
48.0198
47.9808
47.9854
48.0448
48.1614
48.3322
48.5466
48.7913
49.0482
49.2996
49.5282
49.7206
49.8685
49.9701
50.0284
50.0513
50.0494
50.0357
50.0203
50.0103
50.0076
50.0137
50.0275
50.048
50.0748
50.1101
50.1538
50.2059
50.2669
50.3395
50.4241
50.5184
50.6235
50.7368
50.8524
50.9623
51.0546
51.1272
51.1727
51.1986
51.2116
51.2237
51.2418
51.2754
51.3282
51.3984
51.4888
51.5925
51.7035
51.8233
51.9665
52.142
52.3513
52.592
52.8677
53.1734
53.5024
53.8463
54.2071
54.5735
54.9423
55.3016
55.6277
55.9124
56.183
56.4327
56.6684
56.8878
57.0963
57.2863
57.4608
57.6041
57.713
57.7727
57.8003
57.8016
57.7898
57.7619
57.7216
57.6623
57.5883
57.4872
57.3722
57.2397
57.109
56.9749
56.8523
56.7388
56.657
56.5953
56.5817
56.5983
56.6692
56.7798
56.9487
57.1498
57.4056
57.6809
57.9846
58.2925
58.6156
58.9379
59.274
59.602
59.9377
60.2695
60.6165
60.9647
61.3126
61.6425
61.9516
62.2295
62.5007
62.7047
62.9062
63.0563
63.2008
63.2712
63.356
63.3621
63.3722
63.3204
63.2752
63.1589
63.0619
62.8797
62.7447
62.5036
62.3466
62.065
61.903
61.5883
61.4559
61.1401
61.061
60.7808
60.7636
60.5717
60.6063
60.5241
60.6075
60.6041
60.7403
60.7838
60.9501
60.9921
61.1511
61.1225
61.1925
60.9905
60.8472
60.2673
59.762
58.3179
57.3097
53.7209
51.6671
43.2919
35.8665
21.7257
54.0886
53.8746
53.5008
52.919
52.2938
51.7905
51.4693
51.307
51.2375
51.196
51.1436
51.0655
50.9624
50.841
50.7074
50.5654
50.4182
50.2684
50.12
49.9782
49.8512
49.7492
49.6811
49.6487
49.6475
49.6673
49.6951
49.7171
49.7208
49.6967
49.6401
49.5519
49.4396
49.3131
49.1831
49.0567
48.9387
48.8313
48.738
48.6613
48.6064
48.5797
48.5892
48.6409
48.7376
48.8767
49.0507
49.248
49.4547
49.6566
49.8406
49.9964
50.117
50.1996
50.2462
50.2617
50.2542
50.2329
50.2069
50.1826
50.1641
50.1532
50.1506
50.1562
50.1692
50.1911
50.2205
50.2568
50.2988
50.3496
50.4124
50.4864
50.5732
50.6683
50.7657
50.8523
50.9206
50.965
50.9822
50.9794
50.9631
50.9458
50.9321
50.9343
50.9533
50.9897
51.0436
51.1052
51.1722
51.2521
51.3654
51.5187
51.7147
51.9495
52.2316
52.5479
52.8975
53.2642
53.6583
54.0552
54.4622
54.8551
55.2216
55.5429
55.8597
56.1524
56.4343
56.6959
56.9492
57.1773
57.3874
57.551
57.6692
57.7285
57.7574
57.7556
57.7461
57.7136
57.673
57.6048
57.5219
57.4018
57.2778
57.1321
57.0022
56.8645
56.7429
56.6277
56.5491
56.4871
56.4825
56.5051
56.5916
56.7194
56.9133
57.1397
57.4235
57.7185
58.0478
58.374
58.7249
59.0697
59.4402
59.7954
60.1671
60.5267
60.9086
61.269
61.6372
61.9592
62.2785
62.5458
62.8246
63.017
63.2369
63.3798
63.5181
63.5752
63.6504
63.6275
63.6242
63.5361
63.4881
63.3178
63.2236
62.982
62.8529
62.5482
62.3865
62.036
61.8616
61.4717
61.3102
60.9245
60.7874
60.4661
60.359
60.1334
60.075
59.9359
59.9414
59.8747
59.9436
59.9179
60.0263
59.9788
60.0942
59.9271
60.0133
59.5353
59.5404
58.3898
58.2291
55.7626
55.0919
50.4049
47.7894
39.9946
31.755
22.4324
55.5243
55.035
53.777
52.695
51.9542
51.5452
51.3846
51.3685
51.4103
51.4509
51.4576
51.4191
51.3378
51.2252
51.093
50.9519
50.8088
50.669
50.5361
50.4142
50.3078
50.2228
50.1638
50.1326
50.126
50.1371
50.1561
50.1727
50.177
50.1614
50.1206
50.0542
49.9655
49.8614
49.7498
49.6382
49.5318
49.4349
49.352
49.2862
49.2411
49.2199
49.2267
49.2645
49.3352
49.4365
49.5639
49.7094
49.8638
50.0163
50.1567
50.2763
50.369
50.4322
50.4659
50.4739
50.4619
50.437
50.4056
50.3735
50.3447
50.3215
50.3061
50.2993
50.3012
50.3113
50.3297
50.3552
50.3862
50.4247
50.4743
50.5372
50.6115
50.6916
50.7681
50.8304
50.8735
50.892
50.8856
50.8596
50.8189
50.7724
50.7276
50.6942
50.674
50.6674
50.6743
50.685
50.7015
50.7373
50.8178
50.9467
51.1321
51.3661
51.6597
51.9915
52.3629
52.7603
53.1878
53.6202
54.0685
54.4975
54.9069
55.2696
55.6361
55.9739
56.3029
56.6101
56.9046
57.1668
57.4022
57.5762
57.7007
57.7607
57.7956
57.8002
57.8005
57.7722
57.7374
57.664
57.5796
57.4541
57.3344
57.1892
57.0652
56.9277
56.8126
56.7001
56.6299
56.573
56.5816
56.615
56.7221
56.8673
57.0905
57.3402
57.6563
57.9677
58.3273
58.6656
59.0488
59.4089
59.8165
60.1935
60.6117
60.9894
61.4162
61.7713
62.1644
62.4631
62.8028
63.0482
63.3457
63.5149
63.7604
63.8725
64.0201
64.0451
64.1212
64.0481
64.0532
63.9043
63.8668
63.62
63.5435
63.229
63.1163
62.7454
62.5859
62.1648
61.9727
61.5257
61.3227
60.8928
60.6909
60.3183
60.1517
59.8453
59.7371
59.4971
59.4756
59.282
59.3588
59.1448
59.324
58.9866
59.2668
58.6751
59.0452
57.9986
58.2933
56.5239
56.3906
53.4861
52.1991
47.7687
43.9952
37.9863
29.9986
23.2452
56.5186
55.9156
54.1255
52.646
51.722
51.3207
51.2766
51.4027
51.568
51.7028
51.7777
51.7856
51.7331
51.635
51.5086
51.3691
51.2282
51.0941
50.9721
50.865
50.7752
50.7053
50.657
50.6302
50.6224
50.6283
50.6411
50.6529
50.6565
50.6456
50.6162
50.5666
50.4982
50.4153
50.3233
50.2283
50.1352
50.0492
49.9743
49.9145
49.8718
49.8486
49.8461
49.866
49.9087
49.9735
50.0572
50.1547
50.2598
50.3652
50.4634
50.5476
50.6124
50.6553
50.6762
50.6773
50.6621
50.6355
50.6013
50.5644
50.5287
50.4982
50.4749
50.4603
50.4551
50.4582
50.4702
50.4899
50.5168
50.5514
50.599
50.661
50.7304
50.7983
50.8558
50.8966
50.9165
50.9127
50.8864
50.8409
50.7769
50.7023
50.6232
50.5481
50.4819
50.4281
50.3862
50.3475
50.3142
50.3007
50.3491
50.4571
50.6321
50.8703
51.1797
51.5322
51.9252
52.3556
52.817
53.2875
53.7747
54.2476
54.7007
55.1102
55.5235
55.9025
56.2767
56.623
56.951
57.2364
57.4876
57.6653
57.7924
57.8514
57.8975
57.9131
57.9283
57.9082
57.8834
57.8159
57.7461
57.6367
57.54
57.409
57.3011
57.1672
57.0639
56.957
56.9025
56.8549
56.8804
56.9212
57.0522
57.2139
57.4695
57.7417
58.0928
58.4229
58.8144
59.1693
59.5805
59.9563
60.4001
60.7906
61.2595
61.6502
62.118
62.4655
62.8741
63.1442
63.4949
63.713
64.0229
64.161
64.4332
64.4945
64.6616
64.6288
64.7213
64.5735
64.6159
64.3739
64.371
64.0301
63.9905
63.5875
63.5051
63.0431
62.9162
62.4118
62.2381
61.7094
61.5109
60.9845
60.7934
60.2859
60.138
59.6679
59.5949
59.168
59.2029
58.7901
58.9422
58.4745
58.7275
58.1213
58.4337
57.5969
57.8806
56.6827
56.6314
54.8859
54.0749
51.4495
49.4254
45.765
41.5801
37.1977
30.2448
24.5922
57.1531
56.5572
54.5257
52.7939
51.6986
51.2307
51.2236
51.4425
51.7101
51.9337
52.0791
52.139
52.1206
52.0406
51.9207
51.7814
51.6398
51.5075
51.3913
51.2941
51.217
51.1599
51.1223
51.1025
51.0975
51.1029
51.1134
51.1235
51.1274
51.12
51.098
51.0597
51.0059
50.9391
50.8632
50.7829
50.7026
50.6264
50.5579
50.5002
50.4557
50.4258
50.4112
50.4123
50.4292
50.4614
50.5071
50.5637
50.6265
50.6906
50.7506
50.8018
50.8403
50.8641
50.873
50.8676
50.8499
50.8224
50.7883
50.7507
50.7137
50.6809
50.6539
50.6357
50.6263
50.6256
50.6335
50.651
50.6796
50.7207
50.776
50.8432
50.9153
50.9761
51.0194
51.0416
51.0441
51.026
50.9849
50.9199
50.8334
50.7314
50.6171
50.4969
50.3848
50.2864
50.1999
50.1122
50.0301
49.9687
49.9818
50.0723
50.2456
50.4958
50.8249
51.1999
51.6201
52.0832
52.5743
53.086
53.6111
54.1251
54.6194
55.0805
55.5253
55.9357
56.3449
56.7197
57.0716
57.3718
57.6357
57.8198
57.949
58.0093
58.0643
58.0867
58.117
58.1134
58.1028
58.0603
58.02
57.9479
57.888
57.7854
57.7019
57.58
57.4916
57.3983
57.3619
57.3305
57.3714
57.4262
57.5765
57.759
58.0414
58.3411
58.7262
59.0835
59.5074
59.8837
60.3172
60.7105
61.1819
61.5948
62.0957
62.5093
62.9976
63.3411
63.7439
63.9923
64.3406
64.5407
64.8379
64.9407
65.21
65.2286
65.3857
65.3123
65.4068
65.1932
65.2665
64.9457
64.9422
64.5406
64.4942
64.0506
63.9568
63.4586
63.3092
62.7826
62.5855
62.0281
61.7977
61.2223
60.9816
60.4136
60.1964
59.6544
59.4972
58.9825
58.9157
58.4165
58.4277
57.909
57.9497
57.3216
57.3482
56.5529
56.4499
55.3827
54.9327
53.2735
52.2039
49.7653
47.6302
44.7547
40.8261
37.4542
31.6958
26.5603
57.5439
56.9927
54.8857
53.0251
51.8183
51.2681
51.2454
51.5082
51.8463
52.1411
52.3474
52.4559
52.4715
52.4114
52.3001
52.1633
52.0218
51.8906
51.7782
51.6881
51.6208
51.5746
51.5472
51.5354
51.5358
51.5442
51.5558
51.5663
51.5714
51.5673
51.5511
51.5215
51.4788
51.4245
51.3614
51.2928
51.2223
51.1529
51.0877
51.0291
50.9796
50.9406
50.9127
50.896
50.8905
50.8958
50.9107
50.9336
50.9612
50.9908
51.019
51.043
51.0601
51.0689
51.0683
51.0586
51.0406
51.0155
50.9849
50.951
50.9163
50.883
50.8544
50.8337
50.822
50.8212
50.8317
50.8546
50.8912
50.944
51.0098
51.0856
51.1603
51.2177
51.2509
51.2613
51.2517
51.2261
51.1773
51.0975
50.9899
50.8587
50.7062
50.5405
50.3853
50.241
50.1175
49.9862
49.8606
49.7618
49.7464
49.8264
50.0044
50.2724
50.6165
51.0117
51.4574
51.947
52.4722
53.0224
53.591
54.152
54.6828
55.1814
55.6439
56.0843
56.513
56.9001
57.2606
57.5651
57.8366
58.0352
58.1722
58.2384
58.2963
58.3323
58.3786
58.4005
58.4189
58.417
58.4197
58.3994
58.384
58.3236
58.2695
58.1718
58.1058
58.0372
58.0237
58.0115
58.0704
58.1412
58.3053
58.5143
58.8219
59.1466
59.5634
59.9478
60.4037
60.7997
61.2509
61.6624
62.153
62.5849
63.1144
63.545
64.0463
64.3777
64.7701
64.9875
65.3264
65.522
65.7985
65.8675
66.1081
66.0737
66.2022
66.0841
66.182
65.9098
65.9782
65.6274
65.5903
65.1693
65.0906
64.6323
64.49
64.0018
63.7959
63.2768
63.023
62.474
62.1853
61.6086
61.2924
60.7048
60.3866
59.8051
59.5144
58.9525
58.7203
58.1821
57.9853
57.4328
57.2468
56.586
56.3825
55.6285
55.3223
54.3534
53.7713
52.1452
51.0764
48.8746
46.8259
44.5717
41.0634
38.1631
33.421
28.6839
57.794
57.2854
55.1747
53.2596
51.9917
51.3812
51.3308
51.6104
51.9933
52.34
52.5938
52.7428
52.7894
52.7492
52.6484
52.516
52.3768
52.2478
52.1389
52.0544
51.9946
51.9569
51.938
51.9338
51.9401
51.9527
51.9672
51.9797
51.9869
51.9857
51.9742
51.9511
51.9167
51.8719
51.8185
51.7587
51.6947
51.6291
51.5645
51.5033
51.4475
51.3987
51.3576
51.3247
51.2999
51.2826
51.272
51.2668
51.266
51.2683
51.2722
51.2757
51.2774
51.276
51.2703
51.26
51.2445
51.224
51.1986
51.1701
51.1405
51.1114
51.0859
51.0679
51.061
51.0671
51.0877
51.1223
51.1712
51.236
51.3135
51.3964
51.4703
51.5239
51.5496
51.5505
51.5358
51.5078
51.4533
51.364
51.2424
51.0868
50.8992
50.6888
50.4846
50.2952
50.1337
49.9601
49.8125
49.6875
49.6618
49.7424
49.9361
50.2186
50.5736
50.9739
51.4398
51.9535
52.5167
53.1028
53.7167
54.3306
54.903
55.4271
55.9065
56.3675
56.7995
57.1839
57.5348
57.8358
58.1179
58.3253
58.4794
58.5614
58.6303
58.6836
58.7552
58.8074
58.8649
58.9079
58.9665
59.0066
59.0439
59.0381
59.0182
58.9546
58.9244
58.8837
58.8975
58.9029
58.9847
59.0665
59.2535
59.4888
59.8156
60.1592
60.6075
61.0022
61.4907
61.9009
62.3691
62.8026
63.3068
63.7498
64.2948
64.7325
65.2409
65.5392
65.9432
66.1194
66.4431
66.6169
66.8697
66.8917
67.129
67.0051
67.1351
66.9381
67.0599
66.7157
66.7728
66.3581
66.3166
65.8459
65.7763
65.3053
65.1125
64.626
64.3745
63.8767
63.5672
63.0474
62.6871
62.1356
61.7366
61.1618
60.7369
60.1423
59.7304
59.155
58.7582
58.2093
57.8306
57.2485
56.8801
56.2711
55.9066
55.313
54.8847
54.0868
53.4085
51.8038
50.7145
48.7309
46.6871
44.8654
41.8363
39.0963
35.0749
30.7519
57.9567
57.479
55.3876
53.4627
52.1755
51.5418
51.48
51.7702
52.18
52.5581
52.8411
53.0152
53.0818
53.0552
52.9627
52.8353
52.7003
52.5758
52.4721
52.3937
52.3408
52.3107
52.2995
52.3025
52.3148
52.332
52.3497
52.3647
52.3742
52.3759
52.3682
52.3502
52.3218
52.2837
52.2368
52.1826
52.1228
52.0593
51.9941
51.9294
51.8671
51.8089
51.7556
51.7079
51.6659
51.6297
51.5993
51.5737
51.5523
51.5349
51.5207
51.5096
51.5013
51.4946
51.4885
51.4815
51.4718
51.4578
51.4394
51.419
51.3973
51.3757
51.3576
51.3488
51.3521
51.3698
51.4056
51.4568
51.5219
51.6033
51.6941
51.7797
51.8487
51.897
51.9191
51.9125
51.8918
51.8626
51.8091
51.719
51.589
51.4118
51.1957
50.9506
50.7033
50.4634
50.2638
50.0532
49.8941
49.7554
49.7355
49.8206
50.0424
50.3396
50.7063
51.1079
51.596
52.1308
52.7203
53.3335
53.9966
54.6623
55.2807
55.8264
56.3169
56.7786
57.2002
57.5704
57.9093
58.2075
58.5019
58.7241
58.9019
59.0059
59.097
59.1759
59.2739
59.3655
59.4684
59.5658
59.6859
59.7905
59.8933
59.947
59.9695
59.9533
59.9627
59.9457
59.9841
60.0058
60.1083
60.1984
60.4168
60.6653
61.0174
61.3711
61.8426
62.2303
62.7546
63.1641
63.6574
64.0937
64.63
65.0624
65.6316
66.0455
66.5781
66.8078
67.2208
67.3391
67.6667
67.7976
68.0667
67.9997
68.2526
67.9996
68.1858
67.8749
68.0491
67.579
67.6935
67.1582
67.1933
66.6068
66.5859
66.0807
65.8834
65.3654
65.102
64.5997
64.2753
63.7724
63.3863
62.8556
62.4117
61.8344
61.366
60.7391
60.2797
59.6625
59.1919
58.5964
58.1199
57.5009
57.0374
56.4879
56.0514
55.5783
55.0937
54.3834
53.5725
51.9884
50.7386
48.9975
47.0058
45.4028
42.7539
40.0794
36.5415
32.6538
58.0564
57.5959
55.5275
53.624
52.3546
51.7352
51.6858
51.9881
52.4095
52.7981
53.0899
53.2715
53.3447
53.3244
53.2385
53.1189
52.9925
52.8774
52.7831
52.7136
52.6691
52.6471
52.6432
52.6525
52.6699
52.6909
52.7113
52.7281
52.7393
52.7429
52.7379
52.7235
52.6993
52.6656
52.623
52.5725
52.5152
52.4526
52.3863
52.3182
52.2502
52.1839
52.1205
52.0607
52.0054
51.9549
51.9092
51.8681
51.8325
51.8025
51.7775
51.7577
51.743
51.7335
51.7288
51.7273
51.7257
51.7217
51.7154
51.7076
51.6982
51.6894
51.6864
51.6931
51.7095
51.7412
51.7953
51.8667
51.9491
52.0436
52.1414
52.2254
52.289
52.3322
52.3484
52.3391
52.3186
52.2908
52.2419
52.1586
52.0281
51.8384
51.6008
51.3229
51.0412
50.7583
50.526
50.2892
50.1284
49.9849
49.9951
50.0854
50.3415
50.6511
51.0335
51.4317
51.9496
52.5002
53.1154
53.7441
54.4589
55.1659
55.8239
56.3796
56.8697
57.3096
57.7121
58.0624
58.3987
58.7045
59.0129
59.2493
59.4621
59.5893
59.7212
59.8207
59.965
60.0859
60.2494
60.4013
60.598
60.7636
60.9408
61.0484
61.1414
61.1674
61.2283
61.2334
61.2979
61.3219
61.4477
61.5352
61.7856
62.0281
62.4123
62.7598
63.2513
63.6182
64.1716
64.564
65.0954
65.5256
66.0989
66.4899
67.1155
67.4448
68.0376
68.1464
68.6213
68.6086
68.9969
69.0368
69.3551
69.1465
69.4592
69.0721
69.358
68.911
69.1467
68.5077
68.7168
68.0381
68.186
67.5141
67.5731
66.9915
66.8543
66.2784
66.0705
65.5075
65.2276
64.6801
64.3285
63.7801
63.3484
62.754
62.2835
61.6375
61.1692
60.5114
60.0178
59.3616
58.8394
58.2121
57.7061
57.1914
56.7099
56.2808
55.6986
54.9219
53.9248
52.386
50.9663
49.4487
47.6721
46.0734
43.6388
41.0337
37.8461
34.3627
58.0938
57.6382
55.5964
53.7431
52.5272
51.96
51.9492
52.2681
52.6878
53.0664
53.3474
53.5202
53.5877
53.5669
53.4865
53.377
53.2635
53.1618
53.0802
53.0222
52.9874
52.9734
52.9756
52.9894
53.0099
53.0327
53.0544
53.0723
53.0845
53.0895
53.0864
53.0744
53.053
53.0221
52.9821
52.9338
52.8781
52.8163
52.7498
52.6803
52.6088
52.5368
52.4659
52.397
52.3313
52.2703
52.2143
52.1642
52.1211
52.0842
52.0532
52.0291
52.0125
52.004
52.0021
52.0058
52.0133
52.0229
52.0328
52.0418
52.0495
52.0591
52.0772
52.1045
52.1407
52.1917
52.2662
52.3551
52.448
52.5465
52.6444
52.7252
52.7814
52.8113
52.8132
52.7991
52.7823
52.7649
52.7316
52.6647
52.5443
52.3588
52.1129
51.8143
51.5023
51.1856
50.9238
50.6755
50.5201
50.3962
50.4537
50.5506
50.8419
51.1526
51.5483
51.9303
52.4805
53.0402
53.6826
54.3196
55.0911
55.8275
56.5292
57.0869
57.5699
57.956
58.3467
58.6653
59.0164
59.329
59.6602
59.9128
60.1689
60.3159
60.5057
60.6233
60.8301
60.9738
61.2196
61.4147
61.6976
61.9177
62.1851
62.339
62.5081
62.5785
62.7003
62.7266
62.8236
62.854
62.9879
63.0714
63.3428
63.5715
63.9716
64.311
64.7877
65.1554
65.7096
66.085
66.6425
67.061
67.6627
68.0258
68.6795
68.9159
69.5263
69.5414
70.0001
69.9176
70.4251
70.2691
70.6594
70.2504
70.6294
70.1647
70.5278
70.011
70.2308
69.549
69.8547
69.0763
69.267
68.5595
68.6743
68.0274
67.9658
67.3729
67.1911
66.6358
66.3675
65.8031
65.4737
64.9149
64.484
63.9018
63.4185
62.7869
62.3073
61.635
61.1113
60.4267
59.857
59.239
58.677
58.1581
57.6014
57.129
56.407
55.5048
54.3017
52.8337
51.4109
49.9836
48.4299
46.7567
44.4435
41.9375
39.0299
35.8853
58.0485
57.5893
55.5959
53.833
52.7108
52.2338
52.2815
52.6131
53.0132
53.36
53.6099
53.7566
53.8063
53.7794
53.7041
53.6077
53.511
53.4267
53.3615
53.3174
53.2938
53.288
53.2957
53.3128
53.3351
53.3588
53.381
53.3993
53.412
53.4179
53.4159
53.4053
53.3855
53.3563
53.3183
53.2722
53.2188
53.1591
53.0937
53.0238
52.9504
52.8748
52.7989
52.7246
52.6536
52.5877
52.5282
52.4756
52.4295
52.3898
52.3578
52.3337
52.3188
52.3146
52.3199
52.3323
52.3503
52.373
52.4006
52.431
52.46
52.4902
52.5303
52.5803
52.6401
52.7165
52.8121
52.9144
53.0159
53.1174
53.2111
53.2801
53.3201
53.3307
53.3181
53.3007
53.2869
53.2777
53.2634
53.2185
53.118
52.95
52.7123
52.4075
52.0763
51.7486
51.4731
51.2271
51.0745
50.9878
51.0894
51.2108
51.5291
51.8284
52.2179
52.5949
53.1873
53.7446
54.4058
55.0517
55.8894
56.6454
57.3992
57.949
58.4244
58.7557
59.1298
59.415
59.7922
60.1026
60.47
60.7375
61.0359
61.2074
61.4555
61.5912
61.8611
62.0384
62.3719
62.6101
62.9867
63.2501
63.5983
63.7894
64.0447
64.1502
64.3429
64.3888
64.5259
64.5489
64.6949
64.7647
65.0414
65.2552
65.6624
65.984
66.4378
66.8092
67.3262
67.7051
68.2626
68.6661
69.2527
69.6108
70.2415
70.4304
70.9607
70.9791
71.3822
71.2346
71.7864
71.5093
71.8486
71.4215
71.8293
71.3327
71.6702
71.1898
71.3071
70.6833
70.9294
70.1769
70.4159
69.7476
69.8446
69.2062
69.1643
68.5976
68.4138
67.8923
67.5942
67.0643
66.7004
66.1875
65.7185
65.1886
64.6557
64.088
63.5441
62.9005
62.3181
61.6236
61.0033
60.4133
59.7641
59.21
58.5323
57.9666
57.0428
56.0454
54.7334
53.3764
52.0891
50.64
49.1999
47.4297
45.1982
42.7959
40.121
37.2434
57.8653
57.4062
55.5281
53.9283
52.9526
52.5969
52.7012
53.0241
53.3784
53.6697
53.8689
53.9746
53.9989
53.9645
53.8966
53.817
53.7411
53.6778
53.6314
53.6028
53.5906
53.5922
53.6039
53.6224
53.6446
53.6673
53.6885
53.7057
53.7175
53.7226
53.7201
53.7093
53.6896
53.6613
53.6255
53.5825
53.5325
53.4763
53.4145
53.3471
53.2748
53.1989
53.1209
53.0447
52.9747
52.9118
52.8543
52.8018
52.7561
52.7183
52.6882
52.6672
52.6579
52.6613
52.6756
52.7001
52.7349
52.78
52.8314
52.8809
52.929
52.9829
53.0474
53.1208
53.2071
53.3078
53.4196
53.5311
53.6382
53.7409
53.829
53.888
53.9123
53.8999
53.8664
53.8396
53.828
53.8317
53.8377
53.8196
53.7511
53.6147
53.3979
53.1073
52.7747
52.4559
52.1725
51.9452
51.8081
51.7761
51.8957
52.0304
52.3519
52.6414
53.022
53.4513
54.0936
54.6623
55.3363
56.0128
56.8854
57.6383
58.4206
58.9675
59.4436
59.7319
60.0849
60.3419
60.738
61.0468
61.443
61.7179
62.0491
62.2498
62.5412
62.7148
63.0452
63.2665
63.6706
63.9591
64.4101
64.719
65.1312
65.3635
65.6894
65.83
66.0771
66.1522
66.3182
66.3463
66.4908
66.5571
66.8221
67.0144
67.4123
67.7219
68.1578
68.5378
68.9982
69.3817
69.8914
70.3026
70.8343
71.2213
71.7047
71.8839
72.3473
72.3762
72.7076
72.6661
73.0687
72.7706
72.9427
72.6768
72.9866
72.6052
72.7688
72.4382
72.3078
71.9144
72.0047
71.2725
71.5772
71.0192
71.0785
70.5109
70.415
69.8457
69.6584
69.1652
68.8167
68.3204
67.9032
67.4251
66.9318
66.4464
65.8807
65.3487
64.7591
64.157
63.5014
62.8354
62.1426
61.5917
60.7689
60.2246
59.3524
58.7435
57.6095
56.6097
55.1847
54.0527
52.8866
51.3971
49.9664
48.0992
45.9202
43.619
41.1251
38.4356
57.4328
57.0053
55.3958
54.0757
53.313
53.0832
53.2129
53.4886
53.7644
53.976
54.108
54.1649
54.1635
54.1244
54.0672
54.0068
53.953
53.9109
53.8824
53.8672
53.8639
53.87
53.883
53.9003
53.92
53.94
53.9582
53.9731
53.9828
53.9862
53.9823
53.9707
53.9513
53.9244
53.8909
53.8515
53.8064
53.7558
53.6999
53.6375
53.569
53.4973
53.425
53.3537
53.2871
53.2296
53.1817
53.1394
53.1003
53.0655
53.0388
53.0253
53.0275
53.0428
53.0695
53.1107
53.1656
53.2323
53.3085
53.3875
53.4651
53.5429
53.6283
53.7244
53.8319
53.9477
54.0689
54.188
54.3002
54.4022
54.4829
54.5292
54.5355
54.5025
54.4477
54.4055
54.3943
54.4119
54.4417
54.4564
54.4301
54.3394
54.1599
53.9
53.5935
53.3097
53.0315
52.8464
52.7254
52.7337
52.8544
53.0185
53.328
53.6001
53.9837
54.5077
55.1815
55.7691
56.4436
57.1897
58.0552
58.8074
59.5787
60.1266
60.5938
60.8848
61.1869
61.4352
61.8215
62.1364
62.5359
62.826
63.1662
63.4064
63.7127
63.9569
64.3127
64.6227
65.0517
65.4205
65.8897
66.2621
66.7027
66.9885
67.351
67.5448
67.817
67.9206
68.1137
68.1399
68.2964
68.3771
68.6051
68.8119
69.1689
69.4772
69.8947
70.2725
70.6846
71.0767
71.5041
71.8924
72.3717
72.7708
73.088
73.259
73.6372
73.6738
73.9991
74.0509
74.1683
74.0658
74.0486
73.9752
74.0742
73.8743
73.8336
73.5881
73.3281
73.1061
72.9512
72.6731
72.7554
72.2472
72.3562
71.8402
71.6033
71.056
70.8679
70.3612
69.9753
69.4983
69.032
68.5838
68.045
67.5911
67.004
66.5013
65.8836
65.2952
64.6036
63.9826
63.2177
62.6528
61.6927
61.177
60.0777
59.5018
58.0179
57.1918
55.8095
54.8878
53.7527
52.2332
50.7372
48.7999
46.673
44.4573
42.0849
39.5305
56.7163
56.3836
55.2433
54.3242
53.8132
53.6792
53.7774
53.9561
54.1223
54.2393
54.3012
54.3151
54.2951
54.2563
54.2116
54.1696
54.1352
54.1103
54.0951
54.0887
54.0898
54.0969
54.1084
54.123
54.1392
54.1556
54.1708
54.1831
54.1911
54.193
54.1877
54.1751
54.1558
54.1302
54.0991
54.0645
54.0278
53.9865
53.9386
53.8841
53.8243
53.7602
53.6963
53.637
53.583
53.536
53.499
53.4719
53.4495
53.4272
53.4106
53.4119
53.4341
53.4707
53.5183
53.5797
53.6571
53.7479
53.8446
53.9404
54.0394
54.145
54.2568
54.3755
54.4998
54.6248
54.7486
54.8677
54.9801
55.0796
55.1519
55.187
55.1793
55.1316
55.0628
55.0096
55.0001
55.0294
55.0757
55.1142
55.122
55.0772
54.9491
54.7392
54.479
54.2503
53.9886
53.8781
53.7887
53.8336
53.9449
54.1611
54.4342
54.7293
55.1421
55.7193
56.3674
57.0005
57.7044
58.5225
59.3424
60.1048
60.8279
61.3911
61.8267
62.1408
62.3817
62.6488
62.9699
63.3061
63.6626
63.9991
64.3213
64.6326
64.937
65.2738
65.6222
66.0293
66.4504
66.9093
67.349
67.8006
68.2078
68.5581
68.9029
69.1755
69.4251
69.6086
69.7606
69.8538
69.9734
70.1203
70.2854
70.5432
70.8229
71.18
71.5356
71.9247
72.2812
72.6837
73.0121
73.4059
73.764
74.1322
74.3366
74.6064
74.7806
74.9421
75.1306
75.231
75.1592
75.2453
75.1248
75.1623
75.0946
75.012
74.8177
74.7524
74.2907
74.318
73.9709
74.0704
73.7663
73.5028
73.4471
73.0398
72.7301
72.2482
71.9664
71.4699
71.0093
70.553
70.0712
69.6283
69.0627
68.6186
68.0194
67.5254
66.8926
66.3053
65.6344
65.0419
64.1923
63.6224
62.5585
61.9555
60.6826
60.1406
58.4986
57.9834
56.5791
55.7988
54.5817
53.0902
51.4989
49.5333
47.454
45.3162
43.0255
40.5743
55.919
55.7389
55.1713
54.6879
54.3985
54.2887
54.2933
54.344
54.3959
54.4278
54.4339
54.4179
54.3881
54.353
54.3194
54.2911
54.2698
54.2555
54.2474
54.2448
54.2467
54.2525
54.2615
54.2732
54.2865
54.3001
54.3125
54.3223
54.3284
54.3289
54.3224
54.3086
54.2897
54.268
54.2435
54.2144
54.1831
54.1509
54.1157
54.0725
54.0229
53.9737
53.927
53.8818
53.8423
53.8166
53.8037
53.7977
53.7949
53.7946
53.805
53.8334
53.879
53.9378
54.0106
54.098
54.1975
54.3065
54.4229
54.5416
54.6576
54.7725
54.8927
55.0196
55.1488
55.2748
55.3969
55.5132
55.6203
55.7086
55.7685
55.7986
55.7956
55.7558
55.6909
55.6377
55.6271
55.6566
55.7124
55.7675
55.8005
55.7916
55.7092
55.5554
55.3608
55.224
55.0237
54.9852
54.919
55.0175
55.1408
55.4236