/*--------------------------------*- C++ -*----------------------------------*\
| =========                 |                                                 |
| \\      /  F ield         | OpenFOAM: The Open Source CFD Toolbox           |
|  \\    /   O peration     | Version:  2.4.0                                 |
|   \\  /    A nd           | Web:      www.OpenFOAM.org                      |
|    \\/     M anipulation  |                                                 |
\*---------------------------------------------------------------------------*/
FoamFile
{
    version     2.0;
    format      ascii;
    class       volScalarField;
    location    "0.24";
    object      pMean;
}
// * * * * * * * * * * * * * * * * * * * * * * * * * * * * * * * * * * * * * //

dimensions      [0 2 -2 0 0 0 0];

internalField   nonuniform List<scalar> 
8800
(
105.07
92.4687
84.865
81.1519
79.0729
77.4786
76.0712
74.7483
73.5061
72.2946
71.1221
69.9535
68.8184
67.6914
66.6044
65.5401
64.5097
63.5051
62.4919
61.2168
101.981
92.1158
85.0315
81.2642
79.1317
77.5036
76.0784
74.7484
73.5041
72.292
71.1196
69.9512
68.8164
67.6893
66.6038
65.5369
64.5144
63.5058
62.5014
61.3673
100.03
92.1882
85.6252
81.6343
79.2971
77.5816
76.1242
74.78
73.5271
72.3082
71.1291
69.956
68.818
67.688
66.6025
65.5305
64.5162
63.5022
62.5917
61.5093
98.5044
92.2458
86.2041
82.0508
79.4784
77.668
76.1864
74.8356
73.5746
72.3456
71.1552
69.9732
68.8282
67.6929
66.6037
65.527
64.5092
63.504
62.6494
61.7909
97.2643
92.216
86.6745
82.4499
79.6451
77.7345
76.2355
74.8926
73.6303
72.3952
71.1903
69.9997
68.8423
67.7034
66.6039
65.5278
64.4943
63.5024
62.6222
62.184
96.2869
92.1181
87.0371
82.7918
79.795
77.7789
76.2647
74.9383
73.6808
72.4441
71.2261
70.0274
68.856
67.7138
66.6035
65.5282
64.4839
63.5101
62.6787
62.6528
95.536
92.0037
87.3029
83.0686
79.9313
77.8075
76.2761
74.9719
73.7223
72.4853
71.258
70.0507
68.8688
67.7209
66.6046
65.5271
64.4859
63.5353
62.797
63.0061
94.9903
91.9022
87.4852
83.2776
80.0526
77.8263
76.2761
74.9944
73.7538
72.5171
71.2832
70.0685
68.879
67.7259
66.6076
65.5312
64.5002
63.5751
62.9171
63.275
94.6362
91.8266
87.5992
83.4187
80.138
77.8379
76.2728
75.0075
73.7756
72.5394
71.3011
70.0808
68.8867
67.7308
66.6129
65.5408
64.5223
63.6206
63.0262
63.4798
94.4631
91.7852
87.6547
83.4897
80.1816
77.8435
76.2707
75.0135
73.7874
72.5515
71.3113
70.088
68.8928
67.7371
66.6224
65.556
64.5498
63.6674
63.119
63.633
94.4627
91.7856
87.6546
83.4899
80.1815
77.8438
76.2706
75.0141
73.788
72.5528
71.313
70.0909
68.8973
67.7448
66.6349
65.5759
64.5797
63.7146
63.1898
63.7415
94.6359
91.8272
87.5993
83.4192
80.1385
77.8382
76.2733
75.0087
73.7778
72.5431
71.3066
70.0893
68.9004
67.754
66.6508
65.6
64.6129
63.7601
63.2401
63.8046
94.9896
91.9033
87.4853
83.2785
80.0535
77.827
76.2769
74.9964
73.7575
72.5235
71.2925
70.0828
68.9016
67.7641
66.6694
65.6287
64.6506
63.8064
63.27
63.8128
95.5349
92.0053
87.3028
83.0696
79.9321
77.8088
76.277
74.975
73.7273
72.4942
71.2708
70.0709
68.9002
67.7739
66.6893
65.6619
64.6942
63.8587
63.2853
63.7499
96.2859
92.1197
87.0374
82.7926
79.7962
77.7801
76.2669
74.9421
73.6875
72.4549
71.2431
70.053
68.8968
67.7802
66.7099
65.6959
64.7458
63.9188
63.313
63.6065
97.2628
92.2183
86.6749
82.4508
79.6461
77.7361
76.2384
74.8973
73.6384
72.4078
71.2109
70.0308
68.8916
67.7826
66.7298
65.7271
64.8031
63.9861
63.3667
63.4021
98.5025
92.2485
86.2048
82.0521
79.4795
77.6701
76.1896
74.8415
73.5837
72.3599
71.1789
70.0089
68.8855
67.7825
66.7468
65.7516
64.8572
64.0482
63.4421
63.1778
100.028
92.1905
85.6264
81.6356
79.2984
77.5838
76.128
74.7865
73.5375
72.3236
71.1555
69.9944
68.8816
67.7839
66.7592
65.7702
64.8958
64.095
63.5077
63.0531
101.979
92.1177
85.0329
81.2657
79.1332
77.5059
76.0825
74.7554
73.515
72.3081
71.1471
69.9915
68.8828
67.7886
66.7673
65.7829
64.9145
64.1218
63.5168
62.9868
105.068
92.4705
84.8665
81.1534
79.0745
77.4809
76.0753
74.7553
73.5171
72.311
71.1499
69.9942
68.8856
67.7914
66.7708
65.7871
64.919
64.1296
63.5212
63.099
60.652
60.2526
59.6324
59.009
58.4263
57.8467
57.2747
56.7216
56.1973
55.7496
55.3858
55.0953
54.8645
54.6857
54.5345
54.3935
54.2323
54.0301
53.7867
53.5057
53.2134
52.9651
52.7733
52.6356
52.5487
52.5033
52.4926
52.5038
52.5114
52.4964
52.4525
52.3838
52.3085
52.2559
52.2463
52.2948
52.3999
52.5472
52.7261
52.9418
53.195
53.478
53.7879
54.1219
54.4825
54.8656
55.2691
55.686
56.1101
56.533
56.9478
57.3487
57.7299
58.088
58.4219
58.7317
59.0189
59.2851
59.5319
59.761
59.974
60.1738
60.3596
60.5346
60.6995
60.8593
61.0148
61.1749
61.3451
61.5227
61.7018
61.8814
62.0553
62.2226
62.3728
62.4995
62.5917
62.639
62.6377
62.5874
62.5034
62.4001
62.3016
62.2199
62.1749
62.1671
62.2013
62.2756
62.384
62.5246
62.7056
62.9456
63.253
63.624
64.0546
64.5342
65.0481
65.5752
66.1062
66.63
67.132
67.6085
68.0215
68.3502
68.6223
68.8473
69.0327
69.1858
69.3201
69.4351
69.5418
69.6396
69.7229
69.7852
69.8204
69.8354
69.8309
69.8144
69.787
69.7497
69.7087
69.6644
69.6153
69.5642
69.5064
69.447
69.3918
69.3444
69.3139
69.2971
69.2977
69.3088
69.3266
69.3483
69.3831
69.4276
69.4922
69.5707
69.6615
69.7716
69.8901
70.0295
70.1693
70.3321
70.4933
70.6687
70.8348
71.0103
71.1722
71.3273
71.4547
71.5642
71.6481
71.7103
71.7577
71.7832
71.8121
71.8102
71.8184
71.7906
71.7704
71.7107
71.6543
71.5693
71.4897
71.3753
71.2807
71.1455
71.0573
70.9185
70.8728
70.7599
70.7562
70.6827
70.7358
70.7108
70.8351
70.8682
71.064
71.1476
71.3993
71.5159
71.7915
71.9258
72.1733
72.3043
72.4801
72.5461
72.6213
72.5562
72.4658
72.165
71.7707
70.9877
69.9454
68.2126
65.6842
60.9535
55.2959
30.1425
60.7117
60.3843
59.915
59.323
58.7123
58.137
57.6042
57.1131
56.6608
56.2605
55.9226
55.644
55.418
55.2371
55.0829
54.9375
54.7786
54.5929
54.3769
54.1346
53.8815
53.6564
53.4778
53.348
53.2625
53.2131
53.1917
53.188
53.1874
53.1762
53.1477
53.1045
53.0575
53.025
53.0224
53.0616
53.1461
53.2754
53.4413
53.6398
53.869
54.1278
54.4143
54.7255
55.0605
55.4162
55.7897
56.1742
56.5636
56.9501
57.3267
57.6879
58.0293
58.3486
58.6437
58.9161
59.1643
59.3897
59.5932
59.7778
59.9446
60.0966
60.2345
60.3593
60.4726
60.5805
60.6809
60.7804
60.8839
60.994
61.1077
61.2229
61.3403
61.4573
61.5608
61.645
61.6901
61.6908
61.6382
61.5397
61.4107
61.2693
61.1368
61.0282
60.9605
60.9327
60.9524
61.0151
61.1149
61.2522
61.4477
61.7211
62.0796
62.5121
63.0182
63.5784
64.1761
64.7862
65.4061
66.0216
66.6187
67.1849
67.6745
68.0705
68.4092
68.693
68.9333
69.1367
69.3176
69.4729
69.6181
69.7433
69.8464
69.9114
69.9427
69.9416
69.9178
69.8754
69.8237
69.7624
69.7017
69.6379
69.5753
69.5105
69.4445
69.38
69.3249
69.2787
69.2506
69.2308
69.2327
69.239
69.2555
69.2668
69.2985
69.3346
69.4026
69.4846
69.5915
69.7108
69.8477
69.9932
70.1508
70.3129
70.4845
70.6492
70.8192
70.9774
71.1405
71.2797
71.4132
71.5067
71.5958
71.6415
71.6973
71.7027
71.7433
71.7191
71.7367
71.6847
71.6689
71.5874
71.536
71.4268
71.3563
71.2144
71.1365
70.9651
70.8893
70.7037
70.6532
70.4838
70.4669
70.3318
70.3563
70.2651
70.3456
70.311
70.4523
70.4755
70.6603
70.7275
70.9251
71.0149
71.1858
71.2514
71.3686
71.3343
71.3471
71.134
70.9215
70.3924
69.7585
68.6217
67.1791
64.551
61.8777
53.9584
47.2725
23.9079
60.8834
60.6151
60.2393
59.6682
59.0097
58.3945
57.8741
57.4402
57.0645
56.7297
56.4312
56.1708
55.9498
55.7642
55.6036
55.452
55.2953
55.123
54.93
54.7204
54.5055
54.3089
54.1484
54.029
53.9497
53.9035
53.8819
53.8761
53.8766
53.874
53.8632
53.8445
53.8249
53.8153
53.8272
53.8691
53.9459
54.0608
54.2121
54.3958
54.6081
54.8484
55.1133
55.4031
55.7132
56.0413
56.381
56.7278
57.0735
57.4134
57.7408
58.0512
58.3412
58.6096
58.8541
59.0753
59.273
59.4481
59.6016
59.7367
59.8531
59.9552
60.0447
60.123
60.192
60.2559
60.3145
60.368
60.4182
60.4714
60.5301
60.5925
60.6622
60.7353
60.8017
60.8474
60.8527
60.8131
60.7171
60.5792
60.4128
60.2411
60.0792
59.948
59.8578
59.8103
59.8139
59.8618
59.9493
60.0856
60.3003
60.6122
61.0214
61.5169
62.0963
62.7342
63.4097
64.1009
64.808
65.512
66.2
66.8506
67.4175
67.8845
68.298
68.6461
68.9463
69.2027
69.434
69.6361
69.825
69.9838
70.11
70.1827
70.2151
70.2045
70.1684
70.1049
70.034
69.9535
69.8794
69.7984
69.7261
69.6461
69.5784
69.51
69.459
69.4108
69.3877
69.3625
69.3681
69.3645
69.3814
69.384
69.4165
69.4447
69.5137
69.5917
69.7054
69.8258
69.9764
70.1266
70.3008
70.4637
70.6433
70.8037
70.9744
71.1247
71.2822
71.4089
71.5325
71.6164
71.6996
71.7419
71.7967
71.795
71.8295
71.7919
71.7953
71.7275
71.6941
71.6021
71.5434
71.4123
71.3381
71.1706
71.0961
70.8949
70.8194
70.6028
70.533
70.3164
70.272
70.0796
70.073
69.9176
69.9579
69.8497
69.9372
69.8838
70.0032
69.9896
70.1261
70.1261
70.2406
70.207
70.2576
70.1237
70.0321
69.6914
69.3226
68.548
67.7885
65.963
64.8671
60.4081
58.4989
48.5105
40.3169
24.4831
61.3034
61.0052
60.4723
59.7696
59.0616
58.4716
58.0303
57.7051
57.4423
57.2039
56.9746
56.7534
56.5469
56.3587
56.1871
56.0262
55.8683
55.7069
55.5371
55.3593
55.1806
55.0146
54.8766
54.7728
54.7036
54.664
54.6473
54.6457
54.6518
54.6597
54.6653
54.6676
54.6701
54.6782
54.7008
54.7453
54.8185
54.9229
55.0607
55.2288
55.4251
55.6456
55.8878
56.1484
56.4243
56.7113
57.0051
57.3002
57.5901
57.8704
58.1373
58.3877
58.6189
58.8296
59.0181
59.1842
59.3292
59.4532
59.5581
59.6462
59.7185
59.7775
59.8256
59.8652
59.8973
59.926
59.9497
59.9673
59.9782
59.9888
60.0065
60.0312
60.0674
60.1092
60.1465
60.1576
60.1303
60.0552
59.9271
59.7598
59.5659
59.3687
59.1801
59.0258
58.9118
58.844
58.8285
58.8553
58.9273
59.0633
59.3002
59.6509
60.1127
60.6683
61.3176
62.0225
62.7757
63.5432
64.3428
65.1299
65.9083
66.6353
67.2805
67.811
68.2949
68.7014
69.0612
69.3668
69.6528
69.9013
70.1409
70.3348
70.4911
70.5763
70.6207
70.6068
70.5688
70.4916
70.4152
70.3198
70.2408
70.1413
70.0623
69.9634
69.8962
69.8188
69.7735
69.7224
69.7075
69.6779
69.6894
69.6795
69.698
69.698
69.732
69.7566
69.828
69.8948
70.0093
70.1205
70.2786
70.4248
70.6112
70.7737
70.9645
71.1206
71.3
71.4426
71.6
71.7098
71.8255
71.8875
71.9751
71.9998
72.0668
72.0474
72.0792
72.0127
72.0063
71.9023
71.861
71.7278
71.6777
71.4919
71.4436
71.2199
71.1701
70.9188
70.8509
70.5889
70.5089
70.2378
70.1717
69.919
69.8776
69.6623
69.6496
69.4752
69.4942
69.3661
69.4122
69.3176
69.3792
69.2914
69.3404
69.1963
69.2045
68.8822
68.8439
68.1142
68.0353
66.4129
66.3444
63.0319
62.6555
56.7085
54.0716
45.0046
35.5062
25.2652
62.6962
62.158
60.8141
59.6428
58.8171
58.3189
58.0506
57.9019
57.7915
57.6748
57.5344
57.3697
57.1898
57.0071
56.8301
56.6633
56.5056
56.3545
56.2056
56.0583
55.9153
55.7838
55.6733
55.5898
55.5342
55.5042
55.4939
55.4977
55.5096
55.5257
55.5428
55.5597
55.5775
55.6
55.6327
55.6818
55.7521
55.8469
55.9681
56.1148
56.2849
56.4743
56.6798
56.8973
57.1239
57.3549
57.588
57.8195
58.0463
58.2645
58.4709
58.6618
58.8348
58.9892
59.1232
59.2378
59.3345
59.4141
59.4777
59.5268
59.5621
59.5854
59.6004
59.6088
59.6127
59.6129
59.6105
59.6049
59.594
59.5828
59.5788
59.5873
59.6063
59.6279
59.6376
59.6176
59.5602
59.4566
59.307
59.1216
58.9104
58.6909
58.4799
58.299
58.1577
58.063
58.022
58.0238
58.0775
58.211
58.469
58.8529
59.3638
59.976
60.6902
61.4602
62.2863
63.1391
64.0265
64.8963
65.7632
66.5598
67.2769
67.8668
68.4131
68.8705
69.2809
69.6348
69.9674
70.2606
70.5483
70.7768
70.9651
71.0663
71.1282
71.1221
71.0961
71.0217
70.9532
70.8518
70.7738
70.6614
70.5817
70.4712
70.4032
70.3162
70.2737
70.2216
70.2134
70.1792
70.1971
70.1801
70.2032
70.1979
70.2399
70.257
70.3376
70.3815
70.5051
70.5924
70.7615
70.8895
71.0923
71.2447
71.46
71.6039
71.8089
71.928
72.101
72.1707
72.3019
72.3139
72.4285
72.4052
72.495
72.4347
72.4766
72.3599
72.3569
72.1894
72.1616
71.9502
71.9251
71.6572
71.6485
71.3584
71.3376
71.034
70.9767
70.6622
70.5831
70.2471
70.176
69.8452
69.7903
69.4847
69.4521
69.1651
69.1661
68.8911
68.9414
68.6529
68.7668
68.4049
68.6052
68.0431
68.3553
67.4036
67.8476
66.2616
66.6919
64.1874
64.2146
60.4146
59.0949
53.7657
49.2882
42.7259
33.5161
26.1997
63.6977
63.0648
61.2314
59.6892
58.6901
58.2005
58.0551
58.0677
58.1116
58.1237
58.0815
57.9842
57.8437
57.6784
57.5052
57.3367
57.1795
57.0357
56.9043
56.7829
56.6716
56.573
56.4913
56.4305
56.391
56.371
56.3671
56.375
56.3909
56.4116
56.4356
56.4618
56.4899
56.5222
56.5614
56.6117
56.6763
56.7588
56.8596
56.9792
57.1151
57.2647
57.4238
57.5904
57.7605
57.932
58.1026
58.2705
58.4334
58.5892
58.7354
58.8683
58.9859
59.0875
59.173
59.2435
59.3
59.3433
59.3727
59.3894
59.3941
59.3914
59.3828
59.3704
59.3563
59.3397
59.3226
59.3054
59.2878
59.2719
59.2684
59.2807
59.2978
59.3069
59.2944
59.2505
59.1689
59.0451
58.8817
58.686
58.4611
58.2234
57.9879
57.7759
57.6025
57.4801
57.4132
57.3927
57.4305
57.5548
57.8317
58.2477
58.7997
59.4624
60.2368
61.0744
61.9675
62.9054
63.8722
64.8217
65.7626
66.6287
67.4048
68.0472
68.6422
69.1387
69.5957
69.9924
70.3664
70.7027
71.0341
71.2934
71.5082
71.6234
71.7067
71.7162
71.7151
71.6583
71.6075
71.5133
71.4453
71.3328
71.2598
71.1449
71.0811
70.9852
70.9445
70.8898
70.8873
70.8478
70.8706
70.8403
70.8721
70.8608
70.9162
70.9262
71.0143
71.0371
71.1645
71.2263
71.3998
71.5074
71.7263
71.8605
72.1039
72.238
72.4684
72.557
72.7438
72.756
72.9049
72.858
72.9981
72.9134
73.0265
72.8972
72.9647
72.7649
72.7937
72.5208
72.5412
72.2093
72.2443
71.8626
71.9135
71.5188
71.5592
71.1481
71.1697
70.7373
70.7404
70.2649
70.2746
69.7727
69.8036
69.2863
69.3512
68.8138
68.9329
68.3614
68.5605
67.9315
68.2147
67.4689
67.8486
66.8933
67.3285
66.0393
66.3769
64.6477
64.5189
62.2233
61.1748
58.0533
55.5304
51.5026
46.3412
41.8268
34.0021
27.7713
64.3609
63.737
61.6798
59.9029
58.7469
58.203
58.1091
58.2344
58.406
58.5343
58.588
58.5629
58.4699
58.3293
58.1646
57.9959
57.8381
57.6984
57.5788
57.4774
57.3923
57.3227
57.2687
57.2312
57.2093
57.2017
57.2059
57.2194
57.2393
57.2632
57.2901
57.3192
57.3507
57.3853
57.4251
57.4722
57.5292
57.5972
57.6766
57.767
57.8672
57.9748
58.0873
58.2027
58.3183
58.4327
58.5448
58.6539
58.7585
58.8563
58.9456
59.0239
59.0906
59.1461
59.1908
59.225
59.2494
59.2635
59.2673
59.2609
59.2461
59.2259
59.2016
59.1757
59.1494
59.1227
59.0968
59.0753
59.0619
59.0602
59.074
59.1013
59.1305
59.1364
59.1106
59.0485
58.9521
58.8217
58.654
58.449
58.2139
57.9621
57.7055
57.4618
57.259
57.1114
57.0255
56.9875
57.0123
57.1278
57.4143
57.8578
58.4458
59.1557
59.988
60.8889
61.8515
62.8655
63.8971
64.9244
65.9246
66.8416
67.659
68.3559
68.9735
69.4943
69.9871
70.4169
70.8329
71.2129
71.5894
71.8845
72.1189
72.2482
72.3482
72.3783
72.4042
72.3778
72.3538
72.2856
72.2378
72.1374
72.0775
71.9665
71.9089
71.808
71.7696
71.7126
71.7117
71.6676
71.6885
71.6521
71.6843
71.6723
71.7307
71.7352
71.8216
71.8371
71.9552
71.9977
72.1607
72.2549
72.4745
72.6156
72.8685
73.0035
73.2422
73.3041
73.4797
73.4422
73.5865
73.4948
73.6316
73.5034
73.6036
73.4227
73.4818
73.2181
73.2521
72.9026
72.93
72.5134
72.5409
72.1083
72.1445
71.7117
71.7417
71.2889
71.3164
70.8361
70.8459
70.3116
70.3079
69.7276
69.7212
69.1057
69.1116
68.4708
68.5
67.8266
67.8988
67.1792
67.2801
66.4807
66.5801
65.6456
65.6715
64.5445
64.3064
62.8897
62.1715
60.1603
58.7155
56.0798
53.2988
50.4554
45.7977
42.2775
35.8664
30.0511
64.7834
64.2059
62.0837
60.194
58.9443
58.3372
58.2456
58.4325
58.6921
58.9094
59.0413
59.0798
59.0327
58.9204
58.7699
58.6073
58.4524
58.3172
58.207
58.1213
58.0574
58.0122
57.9824
57.9664
57.9621
57.9677
57.9811
58.0006
58.0243
58.0511
58.08
58.1103
58.1422
58.1759
58.2125
58.2527
58.2982
58.349
58.405
58.4657
58.5304
58.5975
58.6658
58.7339
58.8003
58.8643
58.9247
58.9813
59.0329
59.0789
59.1184
59.1508
59.1761
59.1955
59.209
59.2165
59.2185
59.2137
59.2015
59.1818
59.1541
59.1199
59.0827
59.0458
59.0105
58.9808
58.9577
58.945
58.9461
58.9664
59.002
59.0491
59.09
59.0989
59.067
58.9978
58.8968
58.771
58.6118
58.4062
58.1652
57.9018
57.6225
57.3454
57.1178
56.9493
56.8622
56.8167
56.8421
56.9628
57.2553
57.717
58.3332
59.0886
59.9623
60.9148
61.9363
63.0095
64.1046
65.1934
66.2492
67.2171
68.0632
68.7897
69.4086
69.9548
70.4669
70.9153
71.3615
71.776
72.1899
72.523
72.7826
72.933
73.0448
73.1029
73.1608
73.1794
73.1937
73.168
73.1515
73.0801
73.037
72.9368
72.8818
72.7848
72.746
72.6846
72.6813
72.6284
72.6462
72.6035
72.6314
72.6223
72.6739
72.6663
72.7447
72.7489
72.8554
72.8838
73.0294
73.1105
73.3281
73.477
73.7469
73.8917
74.1336
74.1661
74.3162
74.224
74.3502
74.2332
74.3428
74.1939
74.253
74.0267
74.0521
73.7462
73.7408
73.3575
73.3315
72.8957
72.8515
72.4305
72.3951
71.9681
71.9367
71.4923
71.4662
70.9904
70.9375
70.3997
70.3132
69.7178
69.602
68.9528
68.8223
68.144
67.9935
67.3001
67.1403
66.4222
66.2407
65.4721
65.2454
64.3907
64.0683
63.0959
62.6022
61.3087
60.4813
58.6339
57.1335
55.0633
52.4486
50.3451
46.3878
43.1452
37.8097
32.3695
65.0691
64.5361
62.4191
60.4883
59.1919
58.5404
58.4367
58.6549
58.9732
59.2565
59.4501
59.5429
59.5392
59.4574
59.3257
59.1739
59.0261
58.8974
58.7956
58.7221
58.6741
58.6473
58.6367
58.6385
58.6497
58.6676
58.6904
58.7166
58.7447
58.7741
58.8041
58.8343
58.8645
58.8951
58.9259
58.9568
58.9878
59.0191
59.0506
59.0821
59.1128
59.1422
59.1695
59.1947
59.2172
59.2357
59.2496
59.2588
59.2637
59.2658
59.2655
59.2619
59.2568
59.2505
59.2431
59.2344
59.223
59.2073
59.1853
59.1572
59.1228
59.0828
59.0402
59.0003
58.9676
58.9467
58.9392
58.9459
58.9689
59.0117
59.0707
59.1342
59.1803
59.1909
59.1575
59.0853
58.9916
58.8801
58.7322
58.5389
58.3058
58.0352
57.7365
57.4334
57.1766
56.9885
56.9061
56.8652
56.9224
57.0553
57.3689
57.8481
58.4983
59.2869
60.1922
61.1661
62.229
63.3418
64.4905
65.622
66.7246
67.7456
68.6223
69.3555
69.9782
70.5456
71.062
71.5266
71.9892
72.4164
72.8593
73.21
73.4965
73.6682
73.8002
73.8902
73.9909
74.0616
74.1269
74.1533
74.1833
74.1545
74.1363
74.057
74.006
73.9108
73.8749
73.8025
73.7908
73.7225
73.7366
73.6764
73.7071
73.6905
73.733
73.7032
73.7715
73.7476
73.8496
73.8574
73.9874
74.0688
74.2747
74.4347
74.7142
74.8636
75.1281
75.0957
75.2423
75.0745
75.1759
75.0255
75.1212
74.9253
74.9738
74.6881
74.6851
74.3403
74.2922
73.8624
73.769
73.3105
73.1993
72.7743
72.6857
72.2562
72.1717
71.7356
71.6447
71.1889
71.0425
70.5286
70.3173
69.743
69.4805
68.8559
68.5539
67.8932
67.5582
66.9092
66.5274
65.8824
65.4625
64.794
64.3375
63.6428
63.1236
62.3925
61.7819
60.7442
59.8147
58.1775
56.6121
55.0046
52.6013
50.7575
47.3387
44.0759
39.482
34.508
65.2711
64.772
62.6824
60.7527
59.4491
58.7879
58.6871
58.9294
59.2875
59.6144
59.8494
59.9792
60.0067
59.9484
59.8335
59.6933
59.555
59.4353
59.3431
59.2807
59.2458
59.2338
59.2391
59.2563
59.2813
59.3106
59.3422
59.3747
59.4071
59.4386
59.469
59.4979
59.5249
59.55
59.5722
59.5911
59.6063
59.6177
59.625
59.6281
59.6269
59.6213
59.6113
59.5971
59.5786
59.5566
59.5313
59.5025
59.4709
59.4384
59.4062
59.3754
59.3486
59.3261
59.3083
59.2929
59.2769
59.2566
59.2304
59.2004
59.1648
59.1254
59.0856
59.0536
59.0332
59.0284
59.0454
59.0801
59.1315
59.2043
59.2891
59.3616
59.4055
59.416
59.3866
59.3157
59.2263
59.1317
59.0072
58.835
58.6163
58.3459
58.0414
57.7242
57.452
57.2485
57.1757
57.145
57.2477
57.4043
57.7504
58.2423
58.9409
59.7575
60.6861
61.6596
62.7521
63.8854
65.0585
66.2078
67.3527
68.4152
69.327
70.0659
70.6867
71.2491
71.7596
72.2308
72.7015
73.1383
73.5984
73.9592
74.2701
74.4646
74.6275
74.7572
74.9034
75.0349
75.162
75.2468
75.3293
75.3508
75.369
75.3206
75.2756
75.1877
75.155
75.0624
75.0402
74.9534
74.9567
74.8705
74.9072
74.8593
74.8981
74.8245
74.8867
74.8148
74.9206
74.8944
75.0313
75.0893
75.3044
75.4635
75.7671
75.8951
76.217
76.0618
76.2414
75.9509
76.0698
75.8647
75.9814
75.705
75.7584
75.4188
75.4008
74.9951
74.9455
74.4302
74.3285
73.8076
73.6884
73.2214
73.1143
72.6676
72.5554
72.1003
71.9614
71.491
71.2806
70.7661
70.4822
69.9145
69.5648
68.9416
68.5629
67.8867
67.4841
66.8248
66.369
65.7601
65.2485
64.6527
64.1066
63.5457
62.9598
62.4458
61.791
60.9439
59.816
58.3818
56.7381
55.4014
53.164
51.2994
48.2038
44.9197
40.8441
36.3941
65.4112
64.9338
62.8754
60.977
59.7016
59.0658
58.9884
59.254
59.6346
59.9828
60.2371
60.3849
60.4292
60.3868
60.2872
60.1626
60.0394
59.9346
59.8566
59.8078
59.7864
59.7882
59.807
59.8371
59.8734
59.9121
59.9509
59.9881
60.0232
60.0555
60.0849
60.1109
60.133
60.1505
60.1624
60.1679
60.1667
60.1582
60.1424
60.1191
60.0889
60.052
60.0091
59.9609
59.9085
59.8528
59.7942
59.7337
59.6739
59.6166
59.5627
59.5136
59.471
59.4373
59.4133
59.3968
59.3824
59.3659
59.3464
59.3243
59.2969
59.2683
59.2449
59.2317
59.2289
59.2443
59.2911
59.3603
59.4421
59.5399
59.6406
59.7164
59.7575
59.769
59.7399
59.6759
59.6024
59.5268
59.4301
59.2941
59.102
58.8423
58.5414
58.2185
57.9481
57.7444
57.6959
57.6915
57.8436
58.0201
58.424
58.9214
59.6728
60.503
61.4439
62.3904
63.5097
64.6411
65.8263
66.9652
68.1544
69.2457
70.1936
70.9388
71.5594
72.0829
72.5835
73.0319
73.4997
73.9355
74.4004
74.7569
75.1051
75.3199
75.5399
75.7018
75.9202
76.0925
76.3023
76.4362
76.5951
76.6554
76.728
76.6963
76.6854
76.5922
76.5779
76.457
76.438
76.3142
76.3115
76.1785
76.2206
76.1147
76.161
76.0198
76.0829
75.9413
76.0582
75.9853
76.162
76.181
76.4265
76.535
76.9037
76.9635
77.3616
77.0455
77.3186
76.8365
77.0525
76.7446
76.9458
76.5529
76.6614
76.2456
76.2661
75.7686
75.7484
75.081
75.0359
74.393
74.3539
73.7981
73.7547
73.2335
73.1513
72.6357
72.5057
71.9758
71.756
71.1916
70.9017
70.3123
69.9444
69.3271
68.921
68.2636
67.8456
67.1849
66.7172
66.1203
65.5892
65.067
64.4729
64.04
63.3962
63.0358
62.2342
61.3924
60.1065
58.7654
57.1634
55.8911
53.7808
51.7481
48.8606
45.6742
41.9971
38.032
65.4907
65.0246
63.0014
61.1621
59.9489
59.3733
59.3427
59.634
60.0226
60.3711
60.6252
60.7748
60.8239
60.7911
60.706
60.5994
60.4956
60.4095
60.349
60.3158
60.3081
60.3219
60.3512
60.3903
60.4341
60.4789
60.5222
60.5626
60.5991
60.6314
60.6589
60.6809
60.6966
60.7051
60.7053
60.6968
60.6791
60.6522
60.6162
60.5713
60.517
60.4538
60.3834
60.3067
60.2255
60.1421
60.058
59.9754
59.897
59.8231
59.7543
59.6931
59.642
59.6039
59.5767
59.5602
59.5513
59.5464
59.5429
59.5377
59.5287
59.5217
59.5259
59.5413
59.5674
59.6131
59.6936
59.794
59.8965
60.0055
60.1117
60.1892
60.2269
60.2254
60.1843
60.1247
60.0706
60.0283
59.9765
59.8899
59.7407
59.5176
59.2401
58.9331
58.6765
58.4907
58.465
58.4994
58.6966
58.9164
59.3948
59.8926
60.6912
61.5022
62.4375
63.327
64.4673
65.5738
66.765
67.8747
69.1184
70.2194
71.217
71.9658
72.5915
73.0534
73.5451
73.9371
74.4025
74.8077
75.2662
75.6113
76.002
76.227
76.5307
76.7139
77.0268
77.2236
77.537
77.7026
77.957
78.0372
78.1853
78.1544
78.1959
78.0938
78.1073
77.964
77.9498
77.7957
77.7736
77.596
77.6265
77.4569
77.4793
77.2906
77.3172
77.1391
77.2483
77.1392
77.3428
77.3298
77.611
77.682
78.0719
78.0836
78.4536
78.0522
78.2985
77.7076
78.1135
77.6099
77.9847
77.4026
77.6295
77.0977
77.2025
76.611
76.6014
75.8651
75.8768
75.1226
75.1496
74.4873
74.524
73.9412
73.8915
73.3497
73.199
72.6634
72.406
71.857
71.5314
70.9974
70.5752
70.0494
69.576
69.0127
68.5476
67.9548
67.4387
66.8814
66.2898
65.8131
65.1492
64.7558
64.0285
63.73
62.7631
61.8221
60.3992
59.0987
57.6498
56.2264
54.1966
52.0702
49.3672
46.3711
43.0304
39.4703
65.4876
65.0249
63.0602
61.3198
60.2075
59.7278
59.7617
60.0729
60.451
60.7779
61.0113
61.1451
61.1865
61.1572
61.0858
60.9995
60.9188
60.8556
60.8157
60.8001
60.8069
60.832
60.87
60.9158
60.965
61.0139
61.0604
61.1028
61.1402
61.1717
61.1963
61.2131
61.2213
61.2199
61.2086
61.1873
61.1559
61.1141
61.0615
60.9979
60.9231
60.8381
60.7447
60.6459
60.5444
60.4428
60.3443
60.25
60.1599
60.0751
59.9988
59.9321
59.8784
59.8417
59.8201
59.811
59.8115
59.8195
59.8367
59.8587
59.8775
59.8975
59.9328
59.9818
60.045
60.1335
60.251
60.3774
60.4998
60.6208
60.7281
60.795
60.8164
60.793
60.7373
60.6824
60.6462
60.6337
60.6319
60.6032
60.5117
60.3475
60.1207
59.8529
59.6236
59.4807
59.4844
59.5609
59.7841
60.0704
60.609
61.1261
61.9522
62.7205
63.609
64.4408
65.5966
66.6519
67.8424
68.9275
70.2255
71.3082
72.3687
73.1062
73.7448
74.149
74.6296
74.9487
75.4118
75.7549
76.2187
76.5447
76.9702
77.2121
77.6024
77.8096
78.2205
78.4419
78.8607
79.0517
79.4001
79.4854
79.7111
79.6689
79.7818
79.6583
79.7174
79.5392
79.5397
79.3335
79.2979
79.0659
79.0778
78.8528
78.8522
78.6243
78.6063
78.4135
78.4689
78.3551
78.5594
78.5153
78.8008
78.8495
79.2097
79.253
79.3887
79.1031
79.2509
78.5958
79.0895
78.4982
78.9352
78.2414
78.5813
77.9293
78.118
77.5075
77.3994
76.7085
76.7286
75.9854
76.0331
75.3822
75.3819
74.8192
74.7269
74.199
73.984
73.4945
73.1658
72.6952
72.3005
71.8619
71.3663
70.9705
70.39
69.9857
69.3838
68.9034
68.2796
67.7732
67.0795
66.621
65.8822
65.4434
64.6573
64.3211
63.1205
62.0835
60.7552
59.4227
58.0732
56.4543
54.4845
52.3607
49.8147
47.0261
43.9783
40.7423
65.3479
64.8931
63.0518
61.4801
60.5195
60.1658
60.2621
60.5721
60.9136
61.1948
61.3875
61.4905
61.5167
61.4894
61.4338
61.3717
61.3178
61.2805
61.2635
61.2665
61.2871
61.3216
61.3656
61.415
61.4663
61.5165
61.5635
61.6055
61.641
61.6689
61.6879
61.6972
61.6959
61.6842
61.6629
61.6316
61.5896
61.5366
61.4727
61.3962
61.3068
61.2062
61.0952
60.9809
60.8703
60.7643
60.6604
60.5587
60.4624
60.3744
60.2956
60.2287
60.1793
60.1502
60.139
60.1453
60.1684
60.2083
60.2594
60.3077
60.3544
60.4094
60.4823
60.57
60.6779
60.8096
60.9595
61.1076
61.2473
61.3799
61.4888
61.5497
61.5538
61.5005
61.4186
61.3587
61.3395
61.3637
61.4135
61.4488
61.4324
61.3442
61.1787
60.9688
60.7805
60.6987
60.7213
60.8414
61.0845
61.4529
62.0168
62.5573
63.3789
64.0978
64.9129
65.7419
66.8819
67.8788
69.0392
70.1285
71.4495
72.5108
73.6171
74.3453
74.9918
75.346
75.8034
76.0507
76.4918
76.7695
77.2295
77.5356
77.9949
78.2728
78.7308
78.9837
79.4747
79.7361
80.2344
80.4567
80.8626
80.9627
81.2389
81.2011
81.3677
81.2349
81.318
81.1195
81.1132
80.8785
80.8113
80.5469
80.5172
80.2441
80.2149
79.9764
79.9179
79.7434
79.7202
79.6019
79.7518
79.7152
79.967
80.0152
80.2699
80.2863
80.2652
80.127
80.1177
79.6767
80.0077
79.4887
79.6993
79.1611
79.4137
78.8554
78.9694
78.4192
78.1422
77.6104
77.5526
76.9118
76.9397
76.3248
76.2811
75.7874
75.6026
75.131
74.8268
74.3771
73.9647
73.5517
73.0611
72.6828
72.1263
71.7985
71.1781
70.8526
70.1535
69.7889
69.0208
68.5876
67.7646
67.3276
66.4531
66.0047
65.1063
64.7117
63.379
62.3317
61.0799
59.733
58.4325
56.7022
54.7832
52.6714
50.2484
47.6538
44.8425
41.8411
64.9641
64.5479
62.9757
61.684
60.9388
60.7168
60.8465
61.1183
61.3908
61.602
61.737
61.801
61.8108
61.7874
61.7501
61.7134
61.6866
61.6744
61.6778
61.6959
61.7262
61.7658
61.8115
61.8603
61.9098
61.9576
62.002
62.0407
62.0722
62.0946
62.1068
62.108
62.0984
62.0783
62.0485
62.0095
61.9606
61.9017
61.8321
61.7484
61.6508
61.5434
61.4297
61.3124
61.1975
61.0918
60.9967
60.9055
60.8144
60.7263
60.6482
60.5899
60.5569
60.5454
60.553
60.5855
60.6403
60.7144
60.8051
60.9011
60.9967
61.0921
61.1998
61.3273
61.4751
61.6365
61.8083
61.9775
62.136
62.2768
62.3824
62.4313
62.4154
62.3363
62.2258
62.1492
62.143
62.2045
62.3081
62.4106
62.4751
62.4764
62.3944
62.2598
62.1344
62.1215
62.1485
62.3239
62.5706
62.9888
63.5403
64.12
64.8985
65.5396
66.285
67.1753
68.2656
69.2095
70.3061
71.4648
72.7387
73.7871
74.8765
75.6086
76.2434
76.6222
77.0127
77.237
77.6195
77.8618
78.2864
78.588
79.0531
79.395
79.8679
80.2206
80.7232
81.0909
81.5859
81.8897
82.2733
82.4375
82.7055
82.7045
82.871
82.7631
82.8247
82.6189
82.6092
82.3363
82.2614
81.9949
81.8876
81.6312
81.5324
81.2981
81.2135
81.0526
80.9668
80.8689
80.9125
80.8536
81.0729
81.1063
81.2235
81.1911
81.0676
81.0234
80.9769
80.8059
80.8447
80.5628
80.4255
80.1938
80.2026
79.8458
79.7366
79.2694
78.9117
78.5276
78.3538
77.9122
77.8333
77.2538
77.1881
76.6931
76.4496
76.0188
75.6237
75.2069
74.6862
74.3373
73.7305
73.4036
72.7776
72.4691
71.8259
71.5089
70.8053
70.4616
69.6275
69.2572
68.31
67.8473
66.9198
66.4303
65.4499
64.9661
63.39
62.518
61.5393
60.1953
58.8461
57.0724
55.1832
53.0741
50.7592
48.3011
45.6599
42.8373
64.3043
63.9815
62.8712
61.9775
61.4863
61.3653
61.471
61.6548
61.8273
61.9533
62.027
62.0562
62.0551
62.0388
62.0197
62.0059
62.0017
62.0085
62.0259
62.0526
62.0867
62.1263
62.1697
62.2151
62.2605
62.3043
62.3447
62.3797
62.4071
62.4246
62.4303
62.424
62.4072
62.3802
62.3439
62.3015
62.2544
62.1985
62.1295
62.0468
61.9521
61.8463
61.7369
61.6311
61.5296
61.4351
61.3531
61.2831
61.2165
61.1465
61.0832
61.0486
61.049
61.0739
61.1177
61.1852
61.2789
61.3947
61.5212
61.6466
61.779
61.9241
62.0801
62.2482
62.4273
62.6101
62.7928
62.9693
63.1361
63.2821
63.3823
63.4204
63.3882
63.2901
63.1615
63.0754
63.0799
63.1658
63.3035
63.4548
63.5863
63.6718
63.6777
63.6259
63.5719
63.6358
63.6569
63.9119
64.1558
64.583
65.0842
65.7224
66.3865
66.9942
67.7137
68.6253
69.6028
70.5538
71.6294
72.8522
74.0117
75.0692
76.082
76.8613
77.4793
77.9276
78.2345
78.4993
78.7657
79.0274
79.3526
79.7121
80.1247
80.5607
81.0013
81.4821
81.9408
82.4353
82.8721
83.2848
83.5835
83.854
84.028
84.1039
84.1857
84.1566
84.1173
83.9985
83.8791
83.6924
83.5187
83.3343
83.1172
82.9444
82.7221
82.5722
82.394
82.2783
82.1243
82.0636
81.9754
81.9976
82.0593
82.1191
82.0728
82.0425
81.8434
81.9289
81.7579
81.7954
81.6114
81.5749
81.1863
81.1893
80.9637
80.7398
80.4334
80.1427
79.7016
79.4682
79.1405
78.9043
78.6193
78.2402
77.9814
77.5411
77.2221
76.7794
76.3297
75.9016
75.3046
74.9928
74.3225
74.0308
73.3435
73.0192
72.3649
72.0188
71.3341
70.9363
70.1353
69.7353
68.7469
68.2963
67.3404
66.6997
65.5915
64.94
63.5455
63.0118
61.9291
60.6747
59.2727
57.5349
55.6647
53.5781
51.3431
48.9754
46.4595
43.7772
63.5619
63.3887
62.8352
62.3691
62.098
62.0057
62.0264
62.0923
62.1599
62.2087
62.2335
62.2387
62.2329
62.2245
62.2198
62.222
62.232
62.2495
62.2734
62.3025
62.3358
62.3726
62.4121
62.4534
62.4951
62.5353
62.5718
62.6025
62.6257
62.6389
62.6393
62.6267
62.6048
62.5776
62.5449
62.5034
62.4567
62.4073
62.3508
62.2783
62.1925
62.1046
62.0178
61.93
61.8483
61.7862
61.7418
61.7052
61.6703
61.6365
61.6188
61.6309
61.6726
61.7377
61.8271
61.9408
62.074
62.2232
62.3864
62.5541
62.7169
62.8784
63.0507
63.2368
63.4276
63.6155
63.8002
63.9783
64.1433
64.2777
64.3647
64.4006
64.3798
64.2965
64.176
64.0933
64.1004
64.1914
64.3455
64.5231
64.6965
64.8395
64.911
64.9358
64.9624
65.1307
65.1967
65.5165
65.7398