/*--------------------------------*- C++ -*----------------------------------*\
| =========                 |                                                 |
| \\      /  F ield         | OpenFOAM: The Open Source CFD Toolbox           |
|  \\    /   O peration     | Version:  2.4.0                                 |
|   \\  /    A nd           | Web:      www.OpenFOAM.org                      |
|    \\/     M anipulation  |                                                 |
\*---------------------------------------------------------------------------*/
FoamFile
{
    version     2.0;
    format      ascii;
    class       volVectorField;
    location    "0.24";
    object      U;
}
// * * * * * * * * * * * * * * * * * * * * * * * * * * * * * * * * * * * * * //

dimensions      [0 1 -1 0 0 0 0];

internalField   nonuniform List<vector> 
8800
(
(8.09167 0.387921 0)
(5.45015 0.242508 0)
(3.91055 0.0431474 0)
(3.15719 -0.0158884 0)
(2.80131 -0.0179646 0)
(2.5964 -0.0108077 0)
(2.48656 -0.00647624 0)
(2.37871 -0.00165481 0)
(2.31768 -0.00108712 0)
(2.24827 -0.00158991 0)
(2.21771 -0.000337359 0)
(2.16107 0.000884164 0)
(2.13897 -0.000923093 0)
(2.09522 0.000692132 0)
(2.06594 0.00141255 0)
(2.01725 0.00150174 0)
(1.97339 0.00142585 0)
(1.92611 0.0014997 0)
(1.86521 0.0108109 0)
(1.63738 -0.063448 0)
(10.087 0.838402 0)
(9.65623 0.867746 0)
(8.87203 0.507541 0)
(8.08398 0.260477 0)
(7.49165 0.139051 0)
(7.00496 0.082608 0)
(6.7041 0.051808 0)
(6.39185 0.0432129 0)
(6.22686 0.0307172 0)
(6.02337 0.0217951 0)
(5.9247 0.0199625 0)
(5.77204 0.0210497 0)
(5.71497 0.0123074 0)
(5.59018 0.0183751 0)
(5.52836 0.0190275 0)
(5.42034 0.0215931 0)
(5.33078 0.0227534 0)
(5.22869 0.023955 0)
(5.10285 0.047989 0)
(4.91706 -0.0173372 0)
(10.0711 0.631471 0)
(10.6535 0.864035 0)
(10.8698 0.602117 0)
(10.6946 0.371268 0)
(10.4546 0.257523 0)
(10.0839 0.196377 0)
(9.84737 0.150069 0)
(9.48722 0.128245 0)
(9.31464 0.0942015 0)
(9.03961 0.07341 0)
(8.91736 0.06155 0)
(8.69732 0.057477 0)
(8.63304 0.0386766 0)
(8.44257 0.0470929 0)
(8.38106 0.0446094 0)
(8.21966 0.0483989 0)
(8.13636 0.0508643 0)
(7.9706 0.0573936 0)
(7.8543 0.0861178 0)
(7.64637 0.00728166 0)
(10.0237 0.456706 0)
(10.5566 0.706508 0)
(11.165 0.5464 0)
(11.3802 0.350194 0)
(11.5565 0.265648 0)
(11.4594 0.226339 0)
(11.4989 0.194589 0)
(11.299 0.185812 0)
(11.2922 0.146384 0)
(11.0889 0.12239 0)
(11.0664 0.109914 0)
(10.863 0.10013 0)
(10.8656 0.0735352 0)
(10.6578 0.0846327 0)
(10.6561 0.0771873 0)
(10.4566 0.0836855 0)
(10.4408 0.0777058 0)
(10.2168 0.108464 0)
(10.1634 0.109693 0)
(9.90429 0.150053 0)
(10.0765 0.344641 0)
(10.4017 0.574036 0)
(11.0332 0.457433 0)
(11.3019 0.289426 0)
(11.6566 0.214101 0)
(11.6792 0.191643 0)
(11.8875 0.170774 0)
(11.8253 0.183081 0)
(11.989 0.142631 0)
(11.8979 0.130788 0)
(12.0255 0.115734 0)
(11.9231 0.118163 0)
(12.0451 0.0796144 0)
(11.9091 0.10835 0)
(12.0148 0.0871751 0)
(11.8706 0.114278 0)
(11.9413 0.0865332 0)
(11.7646 0.150508 0)
(11.7834 0.119579 0)
(11.5705 0.221009 0)
(10.0738 0.243756 0)
(10.3409 0.465877 0)
(10.8926 0.380272 0)
(11.1695 0.240344 0)
(11.5164 0.165896 0)
(11.6099 0.148644 0)
(11.8183 0.133513 0)
(11.8218 0.156097 0)
(11.9953 0.118902 0)
(12.003 0.108267 0)
(12.1354 0.103553 0)
(12.1489 0.0968192 0)
(12.2868 0.0718081 0)
(12.267 0.0928316 0)
(12.3971 0.0873359 0)
(12.3772 0.0978071 0)
(12.4767 0.0985729 0)
(12.4232 0.13304 0)
(12.4776 0.135771 0)
(12.3752 0.1404 0)
(10.0332 0.163396 0)
(10.2798 0.365572 0)
(10.7793 0.293002 0)
(11.1154 0.202884 0)
(11.3624 0.122742 0)
(11.5582 0.107125 0)
(11.687 0.100844 0)
(11.7607 0.127437 0)
(11.8909 0.0873661 0)
(11.9461 0.0895545 0)
(12.0358 0.0780985 0)
(12.1315 0.0798893 0)
(12.1948 0.0486121 0)
(12.2492 0.0773085 0)
(12.3534 0.0660165 0)
(12.4252 0.0818892 0)
(12.487 0.0792563 0)
(12.498 0.114685 0)
(12.5718 0.106643 0)
(12.4814 0.101623 0)
(9.99675 0.106097 0)
(10.254 0.258203 0)
(10.6971 0.206248 0)
(11.0525 0.15638 0)
(11.2982 0.0922324 0)
(11.4723 0.0677815 0)
(11.6141 0.0669782 0)
(11.7428 0.0925464 0)
(11.7888 0.0624357 0)
(11.8632 0.0627169 0)
(11.9834 0.057225 0)
(12.0843 0.0556324 0)
(12.0947 0.0426044 0)
(12.1875 0.0526294 0)
(12.2998 0.0421782 0)
(12.3695 0.0584196 0)
(12.3762 0.0699594 0)
(12.4713 0.0860466 0)
(12.5168 0.0789485 0)
(12.4304 0.0673138 0)
(10.0035 0.0587341 0)
(10.2389 0.151363 0)
(10.6214 0.121269 0)
(11.0051 0.0984367 0)
(11.27 0.0665156 0)
(11.4262 0.0329452 0)
(11.5833 0.0271488 0)
(11.673 0.061741 0)
(11.7427 0.0519592 0)
(11.8368 0.0274701 0)
(11.9496 0.0254051 0)
(12.0135 0.0515064 0)
(12.0656 0.0267081 0)
(12.1646 0.0200997 0)
(12.2423 0.028253 0)
(12.2877 0.0474192 0)
(12.3537 0.0430575 0)
(12.4554 0.0436772 0)
(12.4385 0.064865 0)
(12.4112 0.0466181 0)
(10.0155 0.0125307 0)
(10.2145 0.0558595 0)
(10.5769 0.0400101 0)
(10.9752 0.0303382 0)
(11.2581 0.040053 0)
(11.4392 0.003342 0)
(11.5434 -0.00298202 0)
(11.6228 0.0316823 0)
(11.7641 0.0122107 0)
(11.8383 -0.00154387 0)
(11.8811 0.0173212 0)
(11.9802 0.0245822 0)
(12.0932 0.00885273 0)
(12.1274 0.00851477 0)
(12.2003 0.0100893 0)
(12.2862 0.0196412 0)
(12.3646 0.0146452 0)
(12.37 0.0321622 0)
(12.42 0.0348894 0)
(12.4058 0.0311789 0)
(10.0091 -0.0270798 0)
(10.2225 -0.0383533 0)
(10.5745 -0.0495225 0)
(10.9494 -0.0355173 0)
(11.2751 0.00468108 0)
(11.4723 -0.0215666 0)
(11.5215 -0.0260575 0)
(11.6467 -0.0159767 0)
(11.7822 -0.0143923 0)
(11.7869 -0.0103708 0)
(11.8634 -0.0118415 0)
(12.0067 0.000226696 0)
(12.0785 -0.00640853 0)
(12.1176 -0.00984064 0)
(12.2314 -0.00945343 0)
(12.3022 -0.00622711 0)
(12.3418 0.00503258 0)
(12.3548 0.00225371 0)
(12.4591 -0.000853338 0)
(12.3795 0.0302811 0)
(10.008 -0.0735982 0)
(10.2534 -0.135376 0)
(10.593 -0.121376 0)
(10.9668 -0.109097 0)
(11.2928 -0.0375028 0)
(11.4776 -0.0403588 0)
(11.5646 -0.0555891 0)
(11.6848 -0.0552658 0)
(11.7597 -0.034911 0)
(11.8226 -0.0333714 0)
(11.8995 -0.0365963 0)
(12.0075 -0.0283139 0)
(12.0966 -0.0162954 0)
(12.1781 -0.030657 0)
(12.2391 -0.036862 0)
(12.3052 -0.0199986 0)
(12.3658 -0.0124092 0)
(12.4313 -0.030277 0)
(12.4597 -0.0214227 0)
(12.3802 0.0138849 0)
(10.0106 -0.12464 0)
(10.2462 -0.232668 0)
(10.6833 -0.203968 0)
(11.0566 -0.172139 0)
(11.2813 -0.0710471 0)
(11.507 -0.0749707 0)
(11.6531 -0.0849385 0)
(11.6896 -0.086183 0)
(11.7805 -0.0589418 0)
(11.8966 -0.0552571 0)
(11.9646 -0.0569666 0)
(12.0395 -0.0511244 0)
(12.1388 -0.0404486 0)
(12.2287 -0.0507233 0)
(12.2714 -0.0390587 0)
(12.3347 -0.0488581 0)
(12.4301 -0.0422391 0)
(12.4874 -0.0518388 0)
(12.4897 -0.0431416 0)
(12.4346 0.00936678 0)
(10.0272 -0.180115 0)
(10.27 -0.342899 0)
(10.7839 -0.295093 0)
(11.117 -0.210782 0)
(11.3644 -0.105357 0)
(11.5659 -0.122763 0)
(11.72 -0.111432 0)
(11.7382 -0.107546 0)
(11.8513 -0.092733 0)
(11.9678 -0.0910592 0)
(12.0528 -0.0697698 0)
(12.1069 -0.0745717 0)
(12.2091 -0.0582898 0)
(12.2805 -0.0683583 0)
(12.3536 -0.0585612 0)
(12.4006 -0.0731709 0)
(12.4847 -0.0609285 0)
(12.5266 -0.0805943 0)
(12.5568 -0.0652163 0)
(12.5081 -0.0222172 0)
(10.0655 -0.256277 0)
(10.3052 -0.445596 0)
(10.905 -0.382059 0)
(11.1812 -0.253517 0)
(11.5232 -0.149978 0)
(11.6227 -0.163569 0)
(11.8134 -0.139864 0)
(11.8065 -0.136058 0)
(11.9877 -0.124521 0)
(12.0131 -0.116247 0)
(12.1446 -0.0893908 0)
(12.1538 -0.0974703 0)
(12.2858 -0.0761234 0)
(12.2848 -0.0941338 0)
(12.388 -0.066269 0)
(12.3764 -0.0937381 0)
(12.4695 -0.0789797 0)
(12.456 -0.107186 0)
(12.4881 -0.0866616 0)
(12.4224 -0.0817426 0)
(10.0573 -0.350161 0)
(10.3848 -0.558417 0)
(11.0709 -0.469504 0)
(11.2913 -0.295498 0)
(11.6645 -0.200208 0)
(11.6688 -0.201164 0)
(11.8886 -0.176442 0)
(11.8107 -0.162978 0)
(11.9961 -0.153372 0)
(11.8954 -0.135161 0)
(12.0424 -0.10868 0)
(11.9166 -0.110152 0)
(12.0548 -0.0910855 0)
(11.9066 -0.0986408 0)
(12.0244 -0.0767393 0)
(11.8719 -0.102414 0)
(11.9623 -0.0823874 0)
(11.8027 -0.116083 0)
(11.8327 -0.0975408 0)
(11.6357 -0.108655 0)
(10.0074 -0.458746 0)
(10.5599 -0.701386 0)
(11.1863 -0.550592 0)
(11.3529 -0.352197 0)
(11.5758 -0.255222 0)
(11.4446 -0.234973 0)
(11.5044 -0.199133 0)
(11.2907 -0.171591 0)
(11.3116 -0.153481 0)
(11.0641 -0.127838 0)
(11.0991 -0.101176 0)
(10.8372 -0.0966792 0)
(10.8989 -0.0782975 0)
(10.6269 -0.0824129 0)
(10.7095 -0.0628118 0)
(10.4339 -0.0822599 0)
(10.5117 -0.0631678 0)
(10.2289 -0.100468 0)
(10.268 -0.0707903 0)
(9.95845 -0.125012 0)
(10.0623 -0.632854 0)
(10.6575 -0.860969 0)
(10.8749 -0.603398 0)
(10.6774 -0.373707 0)
(10.4746 -0.252241 0)
(10.0715 -0.200623 0)
(9.84867 -0.153269 0)
(9.48713 -0.119113 0)
(9.32761 -0.0980853 0)
(9.01611 -0.0770675 0)
(8.94913 -0.0568739 0)
(8.67136 -0.0533715 0)
(8.6728 -0.0426396 0)
(8.40599 -0.0449031 0)
(8.45275 -0.0353595 0)
(8.18263 -0.0462099 0)
(8.24074 -0.0405791 0)
(7.95482 -0.0586416 0)
(7.98819 -0.0545406 0)
(7.67766 -0.0621087 0)
(10.0836 -0.838805 0)
(9.65734 -0.866902 0)
(8.87421 -0.507482 0)
(8.07567 -0.262237 0)
(7.50385 -0.136026 0)
(6.99746 -0.0841594 0)
(6.70367 -0.054631 0)
(6.39342 -0.0382886 0)
(6.23473 -0.0314909 0)
(6.01005 -0.0252736 0)
(5.94351 -0.0168862 0)
(5.75794 -0.0184013 0)
(5.74582 -0.0143381 0)
(5.56635 -0.0178514 0)
(5.58539 -0.0131768 0)
(5.3984 -0.0204199 0)
(5.42387 -0.0179905 0)
(5.21403 -0.0268305 0)
(5.23025 -0.0290536 0)
(4.97365 -0.00316658 0)
(8.09127 -0.38808 0)
(5.44941 -0.242387 0)
(3.91231 -0.0429681 0)
(3.15462 0.0151409 0)
(2.80425 0.0188759 0)
(2.59612 0.0105573 0)
(2.48521 0.0053787 0)
(2.3779 0.0031462 0)
(2.3234 0.00111041 0)
(2.24494 0.000195749 0)
(2.2212 0.00133445 0)
(2.16051 -0.000273282 0)
(2.15291 0.000455293 0)
(2.08943 -0.00104568 0)
(2.08924 0.000337535 0)
(2.02028 -0.00196222 0)
(2.01687 -0.000587481 0)
(1.93445 -0.00297739 0)
(1.91248 -0.00319396 0)
(1.7826 0.0122644 0)
(2.0699 -0.0637821 0)
(2.10598 0.0611864 0)
(2.21764 0.0951584 0)
(2.37188 0.109121 0)
(2.51572 0.11916 0)
(2.69627 0.140662 0)
(2.82874 0.187172 0)
(2.97178 0.238069 0)
(3.14325 0.295721 0)
(3.28845 0.352425 0)
(3.50888 0.362344 0)
(3.73434 0.341451 0)
(3.92798 0.258313 0)
(4.13667 0.143084 0)
(4.22786 -0.0151322 0)
(4.31833 -0.183004 0)
(4.31367 -0.30449 0)
(4.26432 -0.392997 0)
(4.18576 -0.436511 0)
(4.0372 -0.454818 0)
(3.97278 -0.413135 0)
(3.9308 -0.344904 0)
(3.88291 -0.268962 0)
(3.8763 -0.168087 0)
(3.88761 -0.0903084 0)
(3.96212 0.0215344 0)
(3.97851 0.129286 0)
(4.17954 0.226965 0)
(4.25182 0.421812 0)
(4.42087 0.497305 0)
(4.71885 0.56151 0)
(5.01316 0.550706 0)
(5.33853 0.477839 0)
(5.61362 0.390061 0)
(5.82878 0.304242 0)
(6.02743 0.255043 0)
(6.23079 0.223311 0)
(6.51119 0.12628 0)
(6.75244 0.0319779 0)
(6.98973 -0.0426371 0)
(7.32253 -0.200899 0)
(7.57358 -0.369456 0)
(7.85875 -0.496065 0)
(8.14077 -0.654833 0)
(8.46116 -0.81014 0)
(8.70473 -0.908271 0)
(8.98334 -1.02727 0)
(9.19717 -1.13604 0)
(9.42965 -1.2325 0)
(9.60744 -1.32446 0)
(9.75024 -1.37811 0)
(9.93373 -1.50671 0)
(10.0478 -1.59286 0)
(10.1768 -1.66288 0)
(10.3645 -1.83442 0)
(10.4972 -1.95151 0)
(10.6102 -2.06609 0)
(10.8246 -2.25318 0)
(10.9266 -2.38742 0)
(11.0903 -2.49452 0)
(11.2454 -2.6655 0)
(11.409 -2.78686 0)
(11.5365 -2.88361 0)
(11.6474 -2.98925 0)
(11.7186 -3.0791 0)
(11.7839 -3.19264 0)
(11.8179 -3.27289 0)
(11.8414 -3.31863 0)
(11.8779 -3.41257 0)
(11.8211 -3.50173 0)
(11.808 -3.57354 0)
(11.7752 -3.67783 0)
(11.721 -3.75646 0)
(11.6062 -3.79459 0)
(11.5515 -3.84508 0)
(11.4628 -3.94849 0)
(11.472 -3.97943 0)
(11.4287 -4.01019 0)
(11.5527 -4.10973 0)
(11.7013 -4.17655 0)
(11.8144 -4.23372 0)
(12.0445 -4.30501 0)
(12.1663 -4.36774 0)
(12.4127 -4.35978 0)
(12.5158 -4.39452 0)
(12.7392 -4.30484 0)
(12.7626 -4.19714 0)
(12.8227 -3.96468 0)
(12.7547 -3.67842 0)
(12.778 -3.31365 0)
(12.7188 -2.96979 0)
(12.7545 -2.57419 0)
(12.8019 -2.10189 0)
(12.9918 -1.69543 0)
(13.1474 -1.24697 0)
(13.3786 -0.731954 0)
(13.6471 -0.209151 0)
(13.8986 0.356826 0)
(14.0914 0.936542 0)
(14.4038 1.5233 0)
(14.6272 2.11457 0)
(14.8381 2.77684 0)
(15.0403 3.3561 0)
(15.0801 3.96594 0)
(15.1444 4.49134 0)
(14.8992 4.88707 0)
(14.6482 5.11569 0)
(14.2167 5.17074 0)
(13.7794 5.10905 0)
(13.3493 4.92047 0)
(12.9417 4.64677 0)
(12.6679 4.36699 0)
(12.3244 3.92513 0)
(12.0588 3.45087 0)
(11.7183 2.93641 0)
(11.476 2.3807 0)
(11.057 1.85122 0)
(10.5469 1.22804 0)
(10.1276 0.776519 0)
(9.45836 0.426484 0)
(8.94538 -0.119323 0)
(8.23812 -0.0844504 0)
(7.63713 0.122227 0)
(7.03856 0.178685 0)
(6.45378 0.248555 0)
(5.91245 0.740359 0)
(5.24209 1.28549 0)
(4.84478 1.34522 0)
(4.66363 0.4694 0)
(4.54405 -0.958424 0)
(4.59795 -2.6039 0)
(4.78147 -4.25505 0)
(4.49227 -6.38913 0)
(4.69035 -8.37082 0)
(4.49275 -9.94122 0)
(5.04093 -10.3334 0)
(5.20352 -9.77119 0)
(5.44356 -8.74155 0)
(5.87649 -7.44941 0)
(6.15008 -6.10843 0)
(6.67137 -4.80532 0)
(6.8323 -3.57023 0)
(7.32143 -2.56389 0)
(7.70716 -1.08281 0)
(8.311 0.451226 0)
(8.11797 1.36843 0)
(8.87731 2.61201 0)
(9.03601 3.99125 0)
(9.68146 5.234 0)
(9.80031 6.28925 0)
(9.84916 7.01518 0)
(9.98648 7.22061 0)
(9.66613 6.97179 0)
(9.23337 6.75056 0)
(9.216 6.2581 0)
(9.0516 5.87675 0)
(9.49423 5.63724 0)
(9.43454 5.288 0)
(9.46831 4.66765 0)
(9.9179 4.26809 0)
(9.70215 3.86762 0)
(9.75098 3.35028 0)
(9.12267 2.93862 0)
(9.30688 2.70595 0)
(8.90407 2.41291 0)
(8.36564 2.14019 0)
(8.12058 2.09123 0)
(7.64812 2.28227 0)
(7.83688 2.23987 0)
(6.74617 1.98474 0)
(6.97007 1.88253 0)
(6.12208 1.78698 0)
(6.62416 1.94623 0)
(6.29913 2.04157 0)
(6.1403 2.00056 0)
(6.28589 1.99966 0)
(5.13042 1.64844 0)
(5.81569 1.91507 0)
(4.47528 2.12138 0)
(5.49033 2.7046 0)
(4.75129 3.07697 0)
(4.93349 3.44645 0)
(5.54793 3.5107 0)
(4.09528 3.58444 0)
(6.37786 3.1603 0)
(3.45506 3.60109 0)
(7.04073 2.69976 0)
(3.64626 3.54419 0)
(7.16769 2.04404 0)
(4.34693 3.12855 0)
(7.16998 1.27441 0)
(5.03583 1.77169 0)
(7.12969 -0.303446 0)
(5.21574 0.225004 0)
(6.65445 -1.62917 0)
(4.25358 -0.704155 0)
(5.71245 -2.27915 0)
(3.21155 -0.680085 0)
(4.58979 -2.9711 0)
(3.85009 2.05452 0)
(4.9819 -0.0104824 0)
(4.95829 0.0399882 0)
(4.9425 0.0634864 0)
(4.99157 0.0575604 0)
(5.04624 0.0650011 0)
(5.12589 0.0818388 0)
(5.18114 0.1189 0)
(5.22827 0.160009 0)
(5.27868 0.190285 0)
(5.31949 0.220488 0)
(5.40178 0.205129 0)
(5.49503 0.175215 0)
(5.60783 0.1094 0)
(5.71102 0.0141736 0)
(5.82999 -0.0827241 0)
(5.87999 -0.188985 0)
(5.94105 -0.280584 0)
(5.91717 -0.358236 0)
(5.91575 -0.391635 0)
(5.89084 -0.380779 0)
(5.84945 -0.376646 0)
(5.902 -0.347804 0)
(5.8689 -0.302427 0)
(5.92736 -0.236913 0)
(5.9667 -0.158873 0)
(6.05312 -0.0633941 0)
(6.1446 0.0543243 0)
(6.26999 0.131078 0)
(6.44106 0.239545 0)
(6.58622 0.322533 0)
(6.81169 0.357003 0)
(7.06989 0.345334 0)
(7.31065 0.29253 0)
(7.5873 0.213129 0)
(7.82478 0.139801 0)
(8.03016 0.067738 0)
(8.24599 -0.00524904 0)
(8.50634 -0.0944425 0)
(8.77364 -0.204951 0)
(9.02578 -0.32264 0)
(9.33252 -0.462481 0)
(9.57449 -0.611174 0)
(9.82822 -0.74659 0)
(10.0596 -0.889562 0)
(10.2703 -1.02748 0)
(10.4642 -1.12229 0)
(10.6856 -1.23164 0)
(10.8289 -1.29653 0)
(11.0183 -1.37713 0)
(11.1616 -1.46883 0)
(11.2666 -1.48581 0)
(11.4145 -1.57727 0)
(11.5317 -1.66545 0)
(11.6369 -1.73259 0)
(11.7347 -1.88236 0)
(11.8463 -1.99855 0)
(11.9189 -2.10367 0)
(11.9969 -2.25011 0)
(12.0507 -2.38522 0)
(12.1074 -2.49583 0)
(12.1247 -2.64382 0)
(12.1335 -2.79169 0)
(12.0794 -2.87164 0)
(11.9759 -2.98294 0)
(11.9445 -3.08607 0)
(11.8148 -3.1235 0)
(11.6513 -3.17528 0)
(11.5706 -3.25462 0)
(11.4467 -3.33192 0)
(11.3264 -3.40283 0)
(11.2566 -3.48779 0)
(11.1298 -3.57014 0)
(11.0666 -3.64602 0)
(10.9822 -3.76741 0)
(11.0166 -3.84529 0)
(11.1081 -3.93058 0)
(11.2485 -4.05216 0)
(11.3774 -4.14691 0)
(11.5661 -4.2365 0)
(11.7607 -4.34766 0)
(11.8804 -4.43482 0)
(11.9797 -4.45799 0)
(11.9986 -4.46154 0)
(12.0752 -4.50411 0)
(11.941 -4.44173 0)
(11.8222 -4.21328 0)
(11.5984 -4.04764 0)
(11.4081 -3.76628 0)
(11.2211 -3.42532 0)
(11.1258 -3.14126 0)
(11.1329 -2.78569 0)
(11.2104 -2.4559 0)
(11.4141 -2.10013 0)
(11.6854 -1.74224 0)
(11.9623 -1.3355 0)
(12.2891 -0.83548 0)
(12.5778 -0.367382 0)
(12.85 0.197374 0)
(13.0371 0.794478 0)
(13.2993 1.36871 0)
(13.5285 2.0144 0)
(13.7347 2.59346 0)
(13.9974 3.20304 0)
(14.1592 3.82328 0)
(14.3803 4.39698 0)
(14.4097 4.91485 0)
(14.3165 5.32308 0)
(14.0373 5.47655 0)
(13.5888 5.44458 0)
(13.1315 5.32607 0)
(12.6126 4.993 0)
(12.0829 4.59654 0)
(11.8039 4.15689 0)
(11.3537 3.73628 0)
(11.1967 3.13563 0)
(10.7479 2.60601 0)
(10.3829 2.18576 0)
(10.0795 1.53217 0)
(9.59533 1.17886 0)
(9.10345 0.891415 0)
(8.65134 0.452188 0)
(7.95992 0.3351 0)
(7.40632 0.568 0)
(6.85096 0.657037 0)
(6.41502 0.817293 0)
(5.73831 1.1991 0)
(5.34681 1.71048 0)
(4.9342 1.49311 0)
(4.83667 0.580998 0)
(4.71248 -0.956833 0)
(4.89093 -2.55693 0)
(4.68345 -4.29425 0)
(4.82399 -6.15071 0)
(4.33741 -8.34611 0)
(4.4811 -10.0543 0)
(4.62768 -10.3642 0)
(4.66989 -10.0051 0)
(5.17402 -9.03063 0)
(5.27062 -7.68302 0)
(5.6829 -6.40094 0)
(5.89508 -5.00063 0)
(6.32181 -3.89125 0)
(6.57063 -2.89284 0)
(7.18409 -1.39663 0)
(7.3852 0.120605 0)
(7.70888 1.27395 0)
(7.77289 2.21744 0)
(8.69426 3.69345 0)
(8.54466 4.95919 0)
(9.37337 6.18182 0)
(9.16126 6.77761 0)
(9.45601 7.07537 0)
(9.45235 7.1122 0)
(9.24126 6.76858 0)
(9.26574 6.32605 0)
(9.24318 5.77643 0)
(9.05766 5.65212 0)
(9.50566 5.30909 0)
(9.09213 4.5956 0)
(9.3016 4.05371 0)
(9.25726 3.76906 0)
(8.96712 3.29119 0)
(8.86159 2.59732 0)
(8.39464 2.21631 0)
(8.83988 2.13028 0)
(7.99392 2.11608 0)
(7.99043 2.16637 0)
(7.40009 2.21009 0)
(7.51966 2.48466 0)
(7.28967 2.33714 0)
(6.55123 2.07203 0)
(6.89647 1.85247 0)
(5.95968 1.75073 0)
(7.06569 1.98254 0)
(6.05195 1.85325 0)
(6.76534 1.95283 0)
(5.93736 1.74507 0)
(5.76025 2.02523 0)
(6.00389 2.08491 0)
(4.89674 2.76976 0)
(6.80094 2.76894 0)
(4.42235 3.74103 0)
(7.65005 3.02494 0)
(4.46421 3.84368 0)
(8.02383 2.83385 0)
(4.51205 3.66479 0)
(8.13415 2.47639 0)
(4.98694 3.50712 0)
(7.97541 2.13413 0)
(5.5345 2.81803 0)
(7.8624 1.25879 0)
(6.14368 1.90251 0)
(7.7489 -0.0351571 0)
(5.96425 0.375663 0)
(7.12122 -1.19977 0)
(5.73191 -0.0309499 0)
(6.43568 -1.75884 0)
(5.50855 0.102166 0)
(6.08386 -1.80692 0)
(4.76064 1.05201 0)
(7.61745 0.00282269 0)
(7.59822 0.028498 0)
(7.58194 0.0441172 0)
(7.62558 0.0502912 0)
(7.66279 0.0644076 0)
(7.73206 0.0849885 0)
(7.7563 0.120128 0)
(7.79081 0.159948 0)
(7.80307 0.18049 0)
(7.81398 0.190984 0)
(7.85952 0.180505 0)
(7.8797 0.145139 0)
(7.96369 0.0805004 0)
(7.9966 0.00662006 0)
(8.08175 -0.0901345 0)
(8.10544 -0.187844 0)
(8.14669 -0.272311 0)
(8.18239 -0.33889 0)
(8.1516 -0.380727 0)
(8.19395 -0.396882 0)
(8.14351 -0.385689 0)
(8.18574 -0.378134 0)
(8.20346 -0.339885 0)
(8.22616 -0.285014 0)
(8.30743 -0.213753 0)
(8.34639 -0.136797 0)
(8.45786 -0.0627447 0)
(8.55337 0.0265077 0)
(8.69248 0.0890551 0)
(8.84902 0.136284 0)
(9.01565 0.172762 0)
(9.23627 0.157296 0)
(9.44232 0.115829 0)
(9.66513 0.0456051 0)
(9.87916 -0.0355672 0)
(10.0801 -0.123931 0)
(10.2791 -0.198934 0)
(10.4961 -0.290068 0)
(10.7111 -0.403566 0)
(10.9192 -0.517519 0)
(11.1559 -0.658841 0)
(11.3339 -0.798073 0)
(11.4969 -0.922387 0)
(11.6696 -1.04631 0)
(11.7775 -1.14927 0)
(11.9031 -1.23359 0)
(12.0383 -1.33051 0)
(12.0998 -1.37277 0)
(12.1965 -1.43889 0)
(12.249 -1.51665 0)
(12.3055 -1.54547 0)
(12.339 -1.64004 0)
(12.3819 -1.72759 0)
(12.4541 -1.80289 0)
(12.4079 -1.92088 0)
(12.4588 -2.02756 0)
(12.4366 -2.16048 0)
(12.3319 -2.29148 0)
(12.3407 -2.43876 0)
(12.2283 -2.57754 0)
(12.108 -2.66675 0)
(12.0068 -2.78292 0)
(11.8696 -2.85689 0)
(11.6973 -2.87868 0)
(11.5479 -2.93578 0)
(11.3662 -3.00492 0)
(11.199 -3.09511 0)
(11.0639 -3.17277 0)
(10.9654 -3.2874 0)
(10.8833 -3.42957 0)
(10.7867 -3.50102 0)
(10.7676 -3.61983 0)
(10.8299 -3.77507 0)
(10.9517 -3.85568 0)
(11.0282 -3.95281 0)
(11.2192 -4.09186 0)
(11.4206 -4.21877 0)
(11.5514 -4.31309 0)
(11.6614 -4.3791 0)
(11.6935 -4.41989 0)
(11.6536 -4.40887 0)
(11.5036 -4.39197 0)
(11.2772 -4.38372 0)
(10.9828 -4.24874 0)
(10.55 -4.10833 0)
(10.176 -3.88926 0)
(9.8051 -3.67735 0)
(9.5784 -3.48578 0)
(9.60423 -3.2788 0)
(9.66941 -3.1595 0)
(9.98063 -2.95825 0)
(10.3367 -2.7636 0)
(10.6846 -2.49581 0)
(11.0871 -2.14024 0)
(11.4656 -1.74235 0)
(11.772 -1.20972 0)
(12.047 -0.655734 0)
(12.2186 -0.0582878 0)
(12.4227 0.593558 0)
(12.5669 1.22016 0)
(12.7053 1.86254 0)
(12.813 2.49489 0)
(12.9313 3.08801 0)
(13.0807 3.6599 0)
(13.2704 4.26602 0)
(13.4408 4.84486 0)
(13.5159 5.32614 0)
(13.4749 5.65481 0)
(13.1756 5.80273 0)
(12.8057 5.71072 0)
(12.261 5.4498 0)
(11.7591 5.00699 0)
(11.2283 4.54505 0)
(10.7452 3.93617 0)
(10.4678 3.39485 0)
(10.136 3.05354 0)
(9.85057 2.43591 0)
(9.52491 1.84795 0)
(8.95587 1.53483 0)
(8.6753 1.19046 0)
(8.29777 0.894213 0)
(7.62582 0.932653 0)
(6.96526 1.01186 0)
(6.71691 0.953573 0)
(6.40291 1.13019 0)
(6.06421 1.59184 0)
(5.40423 2.0817 0)
(5.27518 1.87608 0)
(4.90955 0.66339 0)
(4.99943 -0.824877 0)
(4.80094 -2.58107 0)
(4.93907 -4.24753 0)
(4.57454 -5.9967 0)
(4.46838 -8.32428 0)
(4.22619 -9.84383 0)
(4.08956 -10.5202 0)
(4.47891 -10.235 0)
(4.59523 -9.07736 0)
(4.75006 -8.0222 0)
(5.11149 -6.58255 0)
(5.28877 -5.31104 0)
(5.50123 -4.21023 0)
(5.97126 -3.05005 0)
(6.18178 -1.75682 0)
(6.6504 -0.0444223 0)
(6.64362 0.84684 0)
(7.21906 2.04063 0)
(7.557 3.20765 0)
(8.06468 4.69959 0)
(8.12127 5.91673 0)
(9.00586 6.84946 0)
(8.44702 7.10373 0)
(9.04557 7.28774 0)
(8.5669 7.04778 0)
(8.51137 6.53024 0)
(8.65148 6.01315 0)
(8.46738 5.57233 0)
(8.73341 5.34098 0)
(8.77494 4.78901 0)
(8.48553 4.28762 0)
(8.99848 3.96477 0)
(8.70472 3.83118 0)
(8.99845 3.45848 0)
(8.59976 2.92203 0)
(8.79379 2.84618 0)
(8.73843 2.8469 0)
(8.2044 2.84345 0)
(8.40503 2.70133 0)
(7.76585 2.71146 0)
(8.52921 2.75166 0)
(7.70505 2.5017 0)
(7.83799 2.34057 0)
(7.26671 1.83732 0)
(6.976 2.1543 0)
(7.64834 2.00796 0)
(6.30527 2.45704 0)
(8.04117 2.00282 0)
(5.06881 2.57571 0)
(8.02577 1.90029 0)
(4.5391 3.00172 0)
(8.43119 2.42462 0)
(4.99494 3.65553 0)
(8.83781 2.87542 0)
(5.63134 3.91096 0)
(8.70027 2.7134 0)
(5.97268 3.80809 0)
(8.50284 2.16762 0)
(6.22508 3.50975 0)
(8.50707 1.88703 0)
(6.57452 2.77896 0)
(8.62455 1.24556 0)
(6.85974 1.56581 0)
(8.60771 0.019464 0)
(6.78897 0.67198 0)
(8.05399 -0.874911 0)
(6.79981 -0.236973 0)
(7.90846 -1.50852 0)
(6.32002 -0.779785 0)
(7.61286 -1.2043 0)
(6.0738 0.305279 0)
(9.86845 -0.0256444 0)
(9.86717 -0.117737 0)
(9.87289 -0.120143 0)
(9.92652 -0.0700255 0)
(9.96327 0.000262516 0)
(10.0285 0.0610334 0)
(10.0397 0.113148 0)
(10.0588 0.138567 0)
(10.0755 0.160616 0)
(10.0704 0.1626 0)
(10.1169 0.141018 0)
(10.1173 0.115791 0)
(10.1812 0.042412 0)
(10.1914 -0.0252709 0)
(10.2478 -0.116903 0)
(10.2789 -0.200232 0)
(10.2842 -0.277294 0)
(10.3377 -0.34492 0)
(10.2944 -0.367594 0)
(10.3291 -0.415774 0)
(10.3049 -0.38637 0)
(10.2973 -0.383713 0)
(10.3402 -0.366602 0)
(10.3363 -0.300804 0)
(10.4004 -0.27853 0)
(10.432 -0.198393 0)
(10.5176 -0.151512 0)
(10.5971 -0.0889202 0)
(10.7062 -0.03052 0)
(10.8473 -0.00986418 0)
(10.9824 0.0211268 0)
(11.1445 0.00137842 0)
(11.3192 -0.0378047 0)
(11.4839 -0.10121 0)
(11.6616 -0.167221 0)
(11.8207 -0.260143 0)
(11.9805 -0.341445 0)
(12.1313 -0.439461 0)
(12.2738 -0.554088 0)
(12.4032 -0.659878 0)
(12.5664 -0.799713 0)
(12.6604 -0.911578 0)
(12.7333 -1.01127 0)
(12.832 -1.1327 0)
(12.837 -1.2098 0)
(12.879 -1.28364 0)
(12.8975 -1.36839 0)
(12.8989 -1.41109 0)
(12.89 -1.452 0)
(12.8593 -1.5335 0)
(12.8628 -1.57613 0)
(12.7826 -1.63608 0)
(12.7436 -1.73117 0)
(12.7488 -1.7985 0)
(12.6157 -1.89315 0)
(12.6186 -1.99223 0)
(12.5341 -2.08333 0)
(12.3692 -2.20677 0)
(12.2999 -2.29158 0)
(12.1306 -2.4012 0)
(11.9782 -2.50442 0)
(11.8077 -2.56645 0)
(11.6286 -2.64355 0)
(11.4376 -2.72958 0)
(11.303 -2.83683 0)
(11.1575 -2.93844 0)
(11.083 -3.04002 0)
(10.9968 -3.14475 0)
(10.967 -3.2386 0)
(10.9403 -3.3376 0)
(10.9375 -3.45026 0)
(11.0117 -3.54959 0)
(11.0506 -3.69411 0)
(11.1686 -3.87588 0)
(11.2624 -4.00204 0)
(11.3651 -4.11338 0)
(11.4668 -4.23044 0)
(11.3737 -4.28536 0)
(11.3052 -4.26652 0)
(11.0933 -4.26244 0)
(10.7986 -4.23574 0)
(10.3202 -4.11455 0)
(9.80164 -3.96418 0)
(9.18047 -3.80315 0)
(8.58647 -3.61382 0)
(8.21072 -3.50261 0)
(8.08428 -3.47183 0)
(8.23064 -3.53946 0)
(8.57604 -3.60343 0)
(8.92885 -3.5961 0)
(9.37744 -3.4666 0)
(9.78111 -3.26618 0)
(10.1167 -2.98266 0)
(10.5518 -2.59288 0)
(10.8601 -2.11894 0)
(11.0854 -1.5379 0)
(11.3858 -0.938531 0)
(11.4588 -0.244158 0)
(11.6509 0.453951 0)
(11.7835 1.07812 0)
(11.909 1.71326 0)
(12.0293 2.37482 0)
(12.061 3.008 0)
(12.1049 3.60575 0)
(12.187 4.13303 0)
(12.3319 4.70218 0)
(12.4246 5.25015 0)
(12.5396 5.66764 0)
(12.4652 5.94814 0)
(12.2344 6.05613 0)
(11.7751 5.89167 0)
(11.3023 5.40629 0)
(10.7652 4.95988 0)
(10.3758 4.41531 0)
(9.89518 3.7535 0)
(9.40302 3.16692 0)
(9.16057 2.6576 0)
(8.80586 2.30815 0)
(8.30816 1.91785 0)
(7.94701 1.37735 0)
(7.75694 1.23101 0)
(7.2234 1.4426 0)
(6.68877 1.37169 0)
(6.36024 1.16735 0)
(6.09001 1.35075 0)
(5.7936 1.94344 0)
(5.4584 2.34253 0)
(5.08199 1.95651 0)
(5.19504 0.803784 0)
(4.87761 -0.848313 0)
(4.99496 -2.58478 0)
(4.74731 -4.04048 0)
(4.70834 -5.92071 0)
(4.42583 -7.8918 0)
(3.94459 -9.8227 0)
(4.01539 -10.6428 0)
(4.0495 -10.1069 0)
(4.0094 -9.30182 0)
(4.25379 -8.06747 0)
(4.61967 -6.73265 0)
(4.44376 -5.60664 0)
(5.00845 -4.39046 0)
(4.8678 -3.37459 0)
(5.46736 -1.7618 0)
(5.33991 -0.451657 0)
(5.74168 0.845967 0)
(6.15661 1.52657 0)
(6.74857 3.12175 0)
(7.12599 4.1169 0)
(7.37118 5.48988 0)
(7.84682 6.43441 0)
(8.36883 6.92203 0)
(7.92749 6.89379 0)
(8.76764 6.8691 0)
(8.07405 6.32858 0)
(8.60831 5.916 0)
(8.32226 5.45121 0)
(8.2966 5.11537 0)
(8.56144 4.69668 0)
(8.25954 3.90777 0)
(8.42704 3.68994 0)
(8.43605 3.28844 0)
(7.9173 2.94423 0)
(8.23944 2.21342 0)
(7.41927 2.24347 0)
(8.35616 2.447 0)
(7.47373 2.41223 0)
(8.30081 2.41614 0)
(7.7435 2.15682 0)
(8.27703 2.5051 0)
(8.6692 2.30685 0)
(7.76695 2.56364 0)
(8.95684 1.93036 0)
(6.2478 2.31699 0)
(9.19197 1.69095 0)
(5.62082 2.51893 0)
(9.73379 1.79699 0)
(5.41219 2.94401 0)
(9.60862 1.71295 0)
(5.19114 3.0184 0)
(9.1706 1.89291 0)
(5.58638 3.55633 0)
(9.23819 2.39679 0)
(6.54791 3.89947 0)
(9.51502 2.7558 0)
(6.89063 3.64613 0)
(9.58721 2.45703 0)
(7.2199 3.35741 0)
(9.54339 2.11632 0)
(7.53073 2.46562 0)
(9.65345 1.24951 0)
(8.44996 1.68153 0)
(9.45545 0.508625 0)
(8.06818 0.46864 0)
(9.07687 -0.868377 0)
(8.21754 -0.581806 0)
(8.86435 -0.828338 0)
(7.52709 -0.372547 0)
(7.58102 -1.13142 0)
(6.87442 -0.31746 0)
(11.4456 0.00673321 0)
(11.4746 -0.132906 0)
(11.563 -0.165992 0)
(11.6654 -0.122197 0)
(11.7079 -0.0370515 0)
(11.7641 0.0348348 0)
(11.7648 0.104225 0)
(11.7704 0.125199 0)
(11.7788 0.137001 0)
(11.7733 0.139625 0)
(11.8067 0.100914 0)
(11.8197 0.0895905 0)
(11.8763 0.0151769 0)
(11.8902 -0.0367008 0)
(11.927 -0.1156 0)
(11.9543 -0.202018 0)
(11.9389 -0.256228 0)
(11.9743 -0.345022 0)
(11.9367 -0.351497 0)
(11.9412 -0.405483 0)
(11.9278 -0.395565 0)
(11.9049 -0.371035 0)
(11.9176 -0.379479 0)
(11.915 -0.312332 0)
(11.9441 -0.308822 0)
(11.9664 -0.24394 0)
(12.0094 -0.210241 0)
(12.0768 -0.175972 0)
(12.1528 -0.126274 0)
(12.2507 -0.120745 0)
(12.3749 -0.100033 0)
(12.4863 -0.111032 0)
(12.6243 -0.146636 0)
(12.7363 -0.211087 0)
(12.8664 -0.267583 0)
(12.9607 -0.364375 0)
(13.0696 -0.444504 0)
(13.1533 -0.522353 0)
(13.2339 -0.643206 0)
(13.2756 -0.737187 0)
(13.3477 -0.851765 0)
(13.3513 -0.950322 0)
(13.3422 -1.0441 0)
(13.3542 -1.12863 0)
(13.2715 -1.21225 0)
(13.2222 -1.27021 0)
(13.1559 -1.3251 0)
(13.0958 -1.38681 0)
(13.0118 -1.39516 0)
(12.9372 -1.46639 0)
(12.8461 -1.52755 0)
(12.7205 -1.57836 0)
(12.6417 -1.67886 0)
(12.5699 -1.75552 0)
(12.4253 -1.82779 0)
(12.3448 -1.92792 0)
(12.2125 -2.03069 0)
(12.0313 -2.13556 0)
(11.9049 -2.22628 0)
(11.7603 -2.3579 0)
(11.5392 -2.44047 0)
(11.4101 -2.50772 0)
(11.3055 -2.63197 0)
(11.182 -2.68437 0)
(11.1444 -2.73167 0)
(11.0763 -2.84298 0)
(11.0204 -2.9334 0)
(10.9698 -3.00701 0)
(10.8976 -3.1287 0)
(10.8693 -3.25496 0)
(10.8613 -3.41313 0)
(10.8495 -3.5887 0)
(10.9104 -3.77135 0)
(10.9569 -3.93774 0)
(11.0122 -4.0811 0)
(10.9797 -4.1734 0)
(10.8827 -4.19574 0)
(10.7288 -4.18457 0)
(10.4305 -4.11678 0)
(10.0099 -3.96294 0)
(9.37361 -3.75051 0)
(8.63709 -3.55192 0)
(7.79456 -3.33109 0)
(7.07086 -3.18914 0)
(6.69938 -3.25641 0)
(6.70288 -3.46957 0)
(7.01556 -3.77961 0)
(7.42487 -4.00917 0)
(7.7697 -4.02038 0)
(8.08139 -3.94903 0)
(8.41006 -3.7581 0)
(8.70225 -3.45658 0)
(9.01893 -3.11832 0)
(9.37372 -2.67995 0)
(9.60517 -2.19021 0)
(9.85419 -1.61981 0)
(10.0984 -0.975995 0)
(10.136 -0.273817 0)
(10.3614 0.387803 0)
(10.4964 0.994086 0)
(10.6615 1.62722 0)
(10.8973 2.30288 0)
(11.057 2.94684 0)
(11.0712 3.55872 0)
(11.1034 4.10464 0)
(11.173 4.62505 0)
(11.2656 5.14266 0)
(11.3809 5.61923 0)
(11.4659 5.99277 0)
(11.3721 6.22883 0)
(11.1044 6.17266 0)
(10.7141 5.87794 0)
(10.1718 5.38435 0)
(9.75403 4.67142 0)
(9.35775 4.1085 0)
(8.85134 3.57396 0)
(8.58835 2.96362 0)
(8.32653 2.58529 0)
(7.89422 2.22096 0)
(7.52438 1.70744 0)
(7.15262 1.52908 0)
(6.8233 1.75462 0)
(6.51252 1.71326 0)
(6.20429 1.48944 0)
(5.9605 1.65132 0)
(5.66335 2.16938 0)
(5.39305 2.66822 0)
(5.38791 2.13256 0)
(5.08933 0.917915 0)
(5.16114 -0.730329 0)
(4.8351 -2.33272 0)
(4.71338 -4.06162 0)
(4.67649 -5.68093 0)
(4.16849 -7.77935 0)
(3.87477 -9.70136 0)
(3.66333 -10.3197 0)
(3.53219 -10.2568 0)
(3.57597 -9.49588 0)
(3.95283 -8.10305 0)
(3.50009 -6.77944 0)
(4.10604 -5.60954 0)
(3.89495 -4.54072 0)
(4.12855 -3.35192 0)
(4.39251 -2.02762 0)
(4.17233 -0.474268 0)
(4.98837 0.371971 0)
(4.9394 1.42449 0)
(5.93644 2.48334 0)
(6.03343 4.17735 0)
(6.73565 5.13812 0)
(6.79812 6.3975 0)
(7.35496 6.88533 0)
(7.3442 7.18026 0)
(7.48717 7.05455 0)
(7.85308 6.48605 0)
(7.07873 5.77242 0)
(8.12985 5.68347 0)
(7.25717 5.23042 0)
(7.908 4.90875 0)
(7.62751 4.25668 0)
(7.62616 3.94839 0)
(8.32848 3.72307 0)
(7.71617 3.41672 0)
(8.06234 3.11574 0)
(7.20567 2.62683 0)
(7.50715 2.96894 0)
(7.86436 2.7259 0)
(7.15805 3.01914 0)
(8.65512 2.32692 0)
(6.79963 2.61337 0)
(9.83064 2.12335 0)
(6.76675 2.89544 0)
(10.6733 2.03903 0)
(6.13117 2.89368 0)
(10.4809 1.5425 0)
(5.73824 2.83821 0)
(10.3619 1.55089 0)
(6.08156 3.20778 0)
(10.2729 1.81175 0)
(6.28289 3.3818 0)
(9.71158 2.01141 0)
(6.27261 3.44946 0)
(9.6911 2.1246 0)
(7.06046 3.53062 0)
(9.90929 2.67822 0)