/*--------------------------------*- C++ -*----------------------------------*\
| =========                 |                                                 |
| \\      /  F ield         | OpenFOAM: The Open Source CFD Toolbox           |
|  \\    /   O peration     | Version:  2.4.0                                 |
|   \\  /    A nd           | Web:      www.OpenFOAM.org                      |
|    \\/     M anipulation  |                                                 |
\*---------------------------------------------------------------------------*/
FoamFile
{
    version     2.0;
    format      ascii;
    class       volVectorField;
    location    "0.24";
    object      U_0;
}
// * * * * * * * * * * * * * * * * * * * * * * * * * * * * * * * * * * * * * //

dimensions      [0 1 -1 0 0 0 0];

internalField   nonuniform List<vector> 
8800
(
(8.09171 0.387917 0)
(5.4501 0.242519 0)
(3.91059 0.0431347 0)
(3.1572 -0.0158969 0)
(2.80122 -0.017928 0)
(2.59648 -0.0108598 0)
(2.48662 -0.00646094 0)
(2.37855 -0.00159618 0)
(2.31772 -0.00116364 0)
(2.24841 -0.00159142 0)
(2.21764 -0.00025156 0)
(2.16093 0.000824105 0)
(2.13918 -0.00096299 0)
(2.09529 0.000758484 0)
(2.06576 0.00141059 0)
(2.01722 0.00145093 0)
(1.97358 0.00144357 0)
(1.92601 0.00154158 0)
(1.86503 0.0108085 0)
(1.6371 -0.063538 0)
(10.0872 0.838389 0)
(9.65599 0.86779 0)
(8.8723 0.507498 0)
(8.08384 0.260478 0)
(7.49151 0.139134 0)
(7.00532 0.0824493 0)
(6.70395 0.0518839 0)
(6.39156 0.0433625 0)
(6.2273 0.0304771 0)
(6.02322 0.0218177 0)
(5.92456 0.020214 0)
(5.77216 0.0208442 0)
(5.71512 0.012194 0)
(5.59007 0.018608 0)
(5.52837 0.0190165 0)
(5.42032 0.0214096 0)
(5.33096 0.0228289 0)
(5.22862 0.0240875 0)
(5.10265 0.0479647 0)
(4.9171 -0.017619 0)
(10.0714 0.631472 0)
(10.6529 0.864107 0)
(10.8704 0.601983 0)
(10.6943 0.371319 0)
(10.4543 0.257616 0)
(10.0844 0.196126 0)
(9.84713 0.150281 0)
(9.48678 0.128392 0)
(9.31536 0.0938065 0)
(9.03926 0.0735372 0)
(8.91713 0.061879 0)
(8.69771 0.0571287 0)
(8.63311 0.0385632 0)
(8.44231 0.0474472 0)
(8.38125 0.0445666 0)
(8.21969 0.0481399 0)
(8.13634 0.0509569 0)
(7.97069 0.0576247 0)
(7.85411 0.0859843 0)
(7.64629 0.00697943 0)
(10.0242 0.456698 0)
(10.5554 0.70663 0)
(11.1658 0.546206 0)
(11.3803 0.350388 0)
(11.556 0.265695 0)
(11.4598 0.225874 0)
(11.4988 0.195009 0)
(11.2984 0.186001 0)
(11.2928 0.145733 0)
(11.0886 0.122698 0)
(11.0661 0.110338 0)
(10.8635 0.0995519 0)
(10.8656 0.073476 0)
(10.6576 0.0851372 0)
(10.6563 0.0770536 0)
(10.4566 0.0833579 0)
(10.4406 0.0778456 0)
(10.2168 0.108771 0)
(10.1637 0.109623 0)
(9.90342 0.149604 0)
(10.0779 0.344813 0)
(10.3998 0.574046 0)
(11.0332 0.456822 0)
(11.3025 0.289903 0)
(11.6568 0.214284 0)
(11.6794 0.191055 0)
(11.8874 0.171329 0)
(11.8251 0.183241 0)
(11.9893 0.141849 0)
(11.8973 0.131169 0)
(12.0253 0.11624 0)
(11.9236 0.117456 0)
(12.0449 0.0795182 0)
(11.909 0.108973 0)
(12.0152 0.0870166 0)
(11.8706 0.113926 0)
(11.941 0.0866638 0)
(11.7642 0.150772 0)
(11.7845 0.119548 0)
(11.57 0.221199 0)
(10.0756 0.243818 0)
(10.3397 0.466543 0)
(10.8912 0.379312 0)
(11.169 0.240455 0)
(11.5169 0.166173 0)
(11.6112 0.147967 0)
(11.818 0.134248 0)
(11.8213 0.156386 0)
(11.9959 0.11793 0)
(12.0022 0.108836 0)
(12.135 0.103924 0)
(12.1498 0.0959285 0)
(12.2864 0.0719246 0)
(12.2671 0.0934249 0)
(12.3976 0.0870833 0)
(12.3776 0.0975207 0)
(12.4761 0.0989638 0)
(12.4224 0.13304 0)
(12.4788 0.135559 0)
(12.3747 0.141172 0)
(10.033 0.163417 0)
(10.2802 0.366341 0)
(10.7808 0.292167 0)
(11.1123 0.20297 0)
(11.3622 0.122478 0)
(11.5601 0.106694 0)
(11.6862 0.101831 0)
(11.7618 0.127401 0)
(11.8913 0.0866223 0)
(11.9448 0.0901955 0)
(12.0367 0.0783689 0)
(12.1313 0.0789449 0)
(12.1927 0.0486583 0)
(12.2501 0.0779697 0)
(12.3555 0.0656296 0)
(12.4257 0.0816856 0)
(12.4846 0.0797455 0)
(12.4982 0.11467 0)
(12.5718 0.106498 0)
(12.4824 0.101965 0)
(9.99578 0.106025 0)
(10.2559 0.258641 0)
(10.6984 0.20606 0)
(11.05 0.156848 0)
(11.2961 0.0914328 0)
(11.4732 0.0669291 0)
(11.6175 0.068024 0)
(11.7422 0.0926994 0)
(11.7857 0.0618201 0)
(11.8649 0.0632661 0)
(11.9864 0.0574095 0)
(12.0809 0.0553599 0)
(12.0918 0.0425154 0)
(12.1911 0.0521672 0)
(12.302 0.0420012 0)
(12.3661 0.0593154 0)
(12.3756 0.0704396 0)
(12.4748 0.0853778 0)
(12.5153 0.0783083 0)
(12.432 0.0667084 0)
(10.0035 0.0585325 0)
(10.2387 0.151559 0)
(10.6224 0.121508 0)
(11.0051 0.0994356 0)
(11.2673 0.0654206 0)
(11.4266 0.031087 0)
(11.5854 0.0285693 0)
(11.6718 0.063327 0)
(11.7424 0.0506028 0)
(11.8391 0.0264768 0)
(11.9499 0.0272225 0)
(12.0105 0.0519014 0)
(12.0656 0.0247756 0)
(12.1663 0.0199054 0)
(12.241 0.0295177 0)
(12.2867 0.0476433 0)
(12.3572 0.0419587 0)
(12.4554 0.0441324 0)
(12.4374 0.0650993 0)
(12.4106 0.0458517 0)
(10.0155 0.0124347 0)
(10.2126 0.0561936 0)
(10.5784 0.0397267 0)
(10.9771 0.0316741 0)
(11.2574 0.039362 0)
(11.4376 0.00109789 0)
(11.542 -0.0014611 0)
(11.6255 0.0325311 0)
(11.7666 0.0105265 0)
(11.8352 -0.00104453 0)
(11.8797 0.0189072 0)
(11.9831 0.0241882 0)
(12.0926 0.00789387 0)
(12.1249 0.00833782 0)
(12.2014 0.0105353 0)
(12.2883 0.0195048 0)
(12.3627 0.0147767 0)
(12.3686 0.0326814 0)
(12.4242 0.0342411 0)
(12.4019 0.0316353 0)
(10.0092 -0.0268328 0)
(10.2208 -0.0385183 0)
(10.5742 -0.0502395 0)
(10.9526 -0.0339177 0)
(11.2776 0.00453244 0)
(11.4684 -0.0233474 0)
(11.5197 -0.025702 0)
(11.6516 -0.0153601 0)
(11.7801 -0.0142395 0)
(11.7819 -0.0105163 0)
(11.8667 -0.011487 0)
(12.0096 0.00050727 0)
(12.0757 -0.00708783 0)
(12.118 -0.0102675 0)
(12.2339 -0.00924442 0)
(12.3008 -0.00551823 0)
(12.338 0.00501534 0)
(12.3572 0.00124263 0)
(12.4625 -0.000212964 0)
(12.3743 0.0308577 0)
(10.009 -0.073313 0)
(10.2515 -0.134898 0)
(10.5912 -0.122923 0)
(10.9698 -0.108551 0)
(11.2951 -0.0362584 0)
(11.4753 -0.041668 0)
(11.5645 -0.0562924 0)
(11.6859 -0.0542154 0)
(11.7577 -0.0342269 0)
(11.8209 -0.0342229 0)
(11.9006 -0.0368281 0)
(12.0095 -0.0273511 0)
(12.0974 -0.0167218 0)
(12.1776 -0.0320431 0)
(12.2382 -0.0361109 0)
(12.3049 -0.0184793 0)
(12.3665 -0.0133794 0)
(12.4319 -0.0313709 0)
(12.4583 -0.0202796 0)
(12.3759 0.0148766 0)
(10.01 -0.124192 0)
(10.2468 -0.232127 0)
(10.685 -0.205878 0)
(11.0539 -0.171634 0)
(11.2811 -0.0698004 0)
(11.5108 -0.0761848 0)
(11.6512 -0.0854232 0)
(11.6867 -0.0850925 0)
(11.7825 -0.0580796 0)
(11.8973 -0.0562444 0)
(11.9631 -0.0575606 0)
(12.0403 -0.0506093 0)
(12.1407 -0.0407064 0)
(12.2275 -0.0507799 0)
(12.2692 -0.0387982 0)
(12.3364 -0.0487015 0)
(12.4321 -0.0424165 0)
(12.4855 -0.0521226 0)
(12.4877 -0.0415823 0)
(12.4323 0.0101732 0)
(10.0263 -0.179837 0)
(10.2713 -0.342931 0)
(10.7857 -0.29579 0)
(11.1137 -0.209905 0)
(11.3647 -0.105568 0)
(11.5693 -0.123698 0)
(11.7174 -0.110636 0)
(11.7354 -0.107273 0)
(11.8544 -0.0929617 0)
(11.9695 -0.0911443 0)
(12.051 -0.0698823 0)
(12.1067 -0.0745654 0)
(12.2101 -0.0582871 0)
(12.2803 -0.0685149 0)
(12.3523 -0.0586288 0)
(12.4007 -0.0727506 0)
(12.4853 -0.0609553 0)
(12.5256 -0.0806515 0)
(12.5567 -0.0638699 0)
(12.5109 -0.0232692 0)
(10.0652 -0.255961 0)
(10.3054 -0.445702 0)
(10.9057 -0.382735 0)
(11.1804 -0.252812 0)
(11.524 -0.150346 0)
(11.6232 -0.163988 0)
(11.8115 -0.138857 0)
(11.8062 -0.136348 0)
(11.9895 -0.124808 0)
(12.0132 -0.116009 0)
(12.1439 -0.0895203 0)
(12.1542 -0.0975981 0)
(12.2858 -0.0763205 0)
(12.2844 -0.0938506 0)
(12.3872 -0.0660148 0)
(12.3765 -0.0939352 0)
(12.47 -0.0790024 0)
(12.4555 -0.107054 0)
(12.4896 -0.0863443 0)
(12.4243 -0.0825571 0)
(10.0571 -0.349886 0)
(10.3858 -0.558663 0)
(11.0708 -0.469926 0)
(11.2905 -0.29478 0)
(11.6648 -0.200587 0)
(11.6686 -0.201426 0)
(11.8882 -0.175638 0)
(11.811 -0.163441 0)
(11.9969 -0.153666 0)
(11.8954 -0.134789 0)
(12.042 -0.108757 0)
(11.9168 -0.110314 0)
(12.0543 -0.091019 0)
(11.9064 -0.0984183 0)
(12.0243 -0.0768645 0)
(11.8721 -0.102518 0)
(11.9625 -0.0822578 0)
(11.8026 -0.11625 0)
(11.8336 -0.0970746 0)
(11.6355 -0.108399 0)
(10.0074 -0.458618 0)
(10.5606 -0.701535 0)
(11.1856 -0.550754 0)
(11.3528 -0.351733 0)
(11.5761 -0.25558 0)
(11.444 -0.235175 0)
(11.5049 -0.19854 0)
(11.2907 -0.171938 0)
(11.3116 -0.153683 0)
(11.0641 -0.127484 0)
(11.0988 -0.101251 0)
(10.8374 -0.0967983 0)
(10.8986 -0.0782873 0)
(10.627 -0.0823136 0)
(10.7096 -0.0628046 0)
(10.434 -0.082348 0)
(10.5117 -0.0631452 0)
(10.2288 -0.100459 0)
(10.2683 -0.0705266 0)
(9.95842 -0.125282 0)
(10.0623 -0.632792 0)
(10.6579 -0.861023 0)
(10.8743 -0.603508 0)
(10.6778 -0.373467 0)
(10.4746 -0.252413 0)
(10.071 -0.200752 0)
(9.84926 -0.152901 0)
(9.48688 -0.119309 0)
(9.32754 -0.0982512 0)
(9.01624 -0.0768354 0)
(8.94897 -0.0569082 0)
(8.67146 -0.0534633 0)
(8.67258 -0.0426266 0)
(8.40615 -0.0448259 0)
(8.45276 -0.0353694 0)
(8.18258 -0.0462785 0)
(8.24072 -0.0405412 0)
(7.95476 -0.0586751 0)
(7.98839 -0.054316 0)
(7.67765 -0.0622252 0)
(10.0836 -0.838789 0)
(9.65755 -0.866912 0)
(8.87386 -0.507539 0)
(8.07601 -0.262123 0)
(7.5038 -0.136084 0)
(6.99714 -0.0842716 0)
(6.70406 -0.0544286 0)
(6.39325 -0.0383556 0)
(6.23468 -0.0316209 0)
(6.01009 -0.0251348 0)
(5.94347 -0.0168882 0)
(5.75801 -0.0184625 0)
(5.74567 -0.0143361 0)
(5.56644 -0.0178154 0)
(5.5854 -0.0131695 0)
(5.39837 -0.0204558 0)
(5.42383 -0.0179782 0)
(5.21397 -0.0268322 0)
(5.23043 -0.0289353 0)
(4.97371 -0.0033034 0)
(8.09126 -0.388078 0)
(5.44949 -0.242382 0)
(3.91218 -0.0429865 0)
(3.15471 0.0151662 0)
(2.8043 0.0188719 0)
(2.59597 0.0105131 0)
(2.48528 0.00544255 0)
(2.37795 0.00313294 0)
(2.32336 0.00106339 0)
(2.24487 0.000240333 0)
(2.22126 0.00133383 0)
(2.16055 -0.000290223 0)
(2.15283 0.000455497 0)
(2.08943 -0.00103581 0)
(2.08927 0.000343111 0)
(2.0203 -0.00197183 0)
(2.01686 -0.000582526 0)
(1.93444 -0.00297978 0)
(1.91267 -0.00314771 0)
(1.7828 0.012265 0)
(2.07052 -0.0644511 0)
(2.10531 0.0608256 0)
(2.21666 0.094906 0)
(2.36976 0.108979 0)
(2.51384 0.118935 0)
(2.69465 0.140979 0)
(2.82647 0.187963 0)
(2.97144 0.238992 0)
(3.14226 0.298389 0)
(3.28844 0.356575 0)
(3.51189 0.367556 0)
(3.73812 0.348046 0)
(3.93483 0.265662 0)
(4.1444 0.149557 0)
(4.23536 -0.011883 0)
(4.32802 -0.180139 0)
(4.32211 -0.301751 0)
(4.27441 -0.391417 0)
(4.192 -0.436832 0)
(4.04235 -0.454604 0)
(3.98185 -0.410959 0)
(3.93839 -0.343886 0)
(3.89212 -0.267149 0)
(3.8881 -0.166382 0)
(3.90302 -0.0889932 0)
(3.97659 0.0228989 0)
(3.99648 0.127942 0)
(4.19928 0.22555 0)
(4.27053 0.418418 0)
(4.44223 0.492827 0)
(4.74363 0.554844 0)
(5.03518 0.543483 0)
(5.36073 0.470539 0)
(5.63567 0.380301 0)
(5.85226 0.294872 0)
(6.05341 0.249317 0)
(6.26259 0.21381 0)
(6.54489 0.111219 0)
(6.7822 0.0175037 0)
(7.0259 -0.0634959 0)
(7.35579 -0.230704 0)
(7.59945 -0.393542 0)
(7.8844 -0.516574 0)
(8.16504 -0.674761 0)
(8.47727 -0.81808 0)
(8.71188 -0.909788 0)
(8.98259 -1.02648 0)
(9.18989 -1.12808 0)
(9.41859 -1.22071 0)
(9.5848 -1.30533 0)
(9.73031 -1.36238 0)
(9.91008 -1.49435 0)
(10.0183 -1.57431 0)
(10.1573 -1.65853 0)
(10.3433 -1.8362 0)
(10.4657 -1.94879 0)
(10.5883 -2.07626 0)
(10.7993 -2.2658 0)
(10.8943 -2.39032 0)
(11.0683 -2.504 0)
(11.2228 -2.67733 0)
(11.3871 -2.78894 0)
(11.512 -2.88593 0)
(11.6244 -2.99202 0)
(11.6992 -3.08555 0)
(11.7739 -3.20028 0)
(11.814 -3.27163 0)
(11.8497 -3.32189 0)
(11.8946 -3.42477 0)
(11.8431 -3.51235 0)
(11.8466 -3.58746 0)
(11.8189 -3.69481 0)
(11.7619 -3.7661 0)
(11.6514 -3.80077 0)
(11.5948 -3.8617 0)
(11.5102 -3.95986 0)
(11.515 -3.97911 0)
(11.4718 -4.01623 0)
(11.6048 -4.11481 0)
(11.7361 -4.17322 0)
(11.8511 -4.23001 0)
(12.0736 -4.30372 0)
(12.1945 -4.35804 0)
(12.4425 -4.35493 0)
(12.549 -4.3894 0)
(12.7756 -4.2972 0)
(12.7874 -4.1839 0)
(12.851 -3.94437 0)
(12.7812 -3.65709 0)
(12.8078 -3.29271 0)
(12.745 -2.9554 0)
(12.7882 -2.54897 0)
(12.8445 -2.08432 0)
(13.0435 -1.68699 0)
(13.1973 -1.2255 0)
(13.4415 -0.709176 0)
(13.7145 -0.180681 0)
(13.9533 0.39269 0)
(14.1574 0.976309 0)
(14.4726 1.56382 0)
(14.6819 2.17292 0)
(14.8995 2.83305 0)
(15.0818 3.41348 0)
(15.112 4.02722 0)
(15.1485 4.53388 0)
(14.8703 4.90719 0)
(14.6077 5.1106 0)
(14.1545 5.14893 0)
(13.7141 5.0668 0)
(13.2809 4.86554 0)
(12.8818 4.5903 0)
(12.6023 4.29311 0)
(12.2636 3.83297 0)
(11.9831 3.36565 0)
(11.6654 2.84538 0)
(11.4013 2.29581 0)
(10.9537 1.75845 0)
(10.4526 1.14726 0)
(10.01 0.734015 0)
(9.33537 0.35912 0)
(8.82431 -0.145319 0)
(8.10297 -0.0252437 0)
(7.51398 0.167922 0)
(6.91183 0.200222 0)
(6.32789 0.307886 0)
(5.7684 0.837868 0)
(5.10802 1.33064 0)
(4.74279 1.25735 0)
(4.58399 0.265374 0)
(4.48052 -1.21326 0)
(4.54718 -2.87145 0)
(4.72053 -4.57014 0)
(4.38811 -6.74555 0)
(4.64989 -8.66911 0)
(4.47577 -10.0461 0)
(5.03266 -10.2976 0)
(5.25019 -9.60728 0)
(5.4571 -8.50395 0)
(5.92512 -7.20503 0)
(6.20583 -5.86651 0)
(6.73368 -4.5818 0)
(6.88706 -3.38723 0)
(7.40207 -2.34919 0)
(7.81 -0.819571 0)
(8.35506 0.638565 0)
(8.18921 1.53419 0)
(8.97222 2.83064 0)
(9.14617 4.21416 0)
(9.74295 5.40718 0)
(9.86014 6.42349 0)
(9.88282 7.02812 0)
(9.99844 7.16723 0)
(9.64096 6.91216 0)
(9.21188 6.66213 0)
(9.25331 6.14327 0)
(9.09277 5.78454 0)
(9.50622 5.55919 0)
(9.46251 5.17251 0)
(9.49414 4.5458 0)
(9.94338 4.18745 0)
(9.66768 3.79112 0)
(9.67921 3.27472 0)
(9.08175 2.89614 0)
(9.27088 2.6744 0)
(8.81795 2.3841 0)
(8.27761 2.13995 0)
(8.06862 2.1339 0)
(7.60952 2.31303 0)
(7.76615 2.23346 0)
(6.66361 1.97572 0)
(6.91085 1.88645 0)
(6.09628 1.8113 0)
(6.6196 1.98459 0)
(6.28312 2.07359 0)
(6.12446 2.01732 0)
(6.24492 2.00455 0)
(5.08774 1.66658 0)
(5.79096 1.9862 0)
(4.46027 2.20452 0)
(5.48673 2.79757 0)
(4.79314 3.14673 0)
(4.89798 3.49789 0)
(5.63913 3.51824 0)
(4.05468 3.57398 0)
(6.45154 3.14991 0)
(3.43722 3.57897 0)
(7.10927 2.66044 0)
(3.65539 3.5221 0)
(7.19716 1.97391 0)
(4.39997 3.07808 0)
(7.19187 1.14623 0)
(5.07916 1.66329 0)
(7.15767 -0.409046 0)
(5.22089 0.161616 0)
(6.66518 -1.69751 0)
(4.22642 -0.753596 0)
(5.73235 -2.3323 0)
(3.16345 -0.763208 0)
(4.67351 -2.87474 0)
(3.96648 2.20027 0)
(4.98211 -0.0111237 0)
(4.95781 0.0402591 0)
(4.94189 0.0639372 0)
(4.98993 0.0577872 0)
(5.04407 0.065299 0)
(5.12376 0.0821325 0)
(5.17828 0.119789 0)
(5.22616 0.160807 0)
(5.27553 0.192601 0)
(5.31753 0.22303 0)
(5.40051 0.208423 0)
(5.49494 0.179818 0)
(5.60887 0.113223 0)
(5.71519 0.0183807 0)
(5.83454 -0.0789755 0)
(5.8855 -0.185954 0)
(5.94697 -0.279555 0)
(5.92181 -0.357684 0)
(5.92393 -0.389721 0)
(5.89457 -0.380897 0)
(5.85875 -0.377403 0)
(5.91097 -0.348087 0)
(5.87741 -0.302598 0)
(5.94172 -0.23774 0)
(5.98096 -0.160127 0)
(6.07134 -0.0636105 0)
(6.16377 0.0511482 0)
(6.29171 0.127078 0)
(6.4647 0.235772 0)
(6.60945 0.317232 0)
(6.83985 0.349424 0)
(7.09643 0.33686 0)
(7.3398 0.283486 0)
(7.62013 0.20406 0)
(7.85488 0.129999 0)
(8.06133 0.0561493 0)
(8.28317 -0.0182581 0)
(8.54533 -0.109333 0)
(8.80893 -0.22315 0)
(9.0649 -0.343845 0)
(9.3666 -0.485466 0)
(9.5996 -0.631043 0)
(9.85025 -0.764313 0)
(10.0711 -0.904169 0)
(10.2748 -1.0307 0)
(10.4689 -1.1196 0)
(10.6811 -1.22222 0)
(10.8202 -1.28006 0)
(11.0109 -1.36304 0)
(11.1447 -1.44396 0)
(11.2544 -1.4597 0)
(11.405 -1.56012 0)
(11.5187 -1.64598 0)
(11.623 -1.72414 0)
(11.7246 -1.88002 0)
(11.8347 -1.99281 0)
(11.9072 -2.10441 0)
(11.9895 -2.25431 0)
(12.0431 -2.38645 0)
(12.1057 -2.50125 0)
(12.1205 -2.65631 0)
(12.1292 -2.79448 0)
(12.0691 -2.87471 0)
(11.9803 -2.99432 0)
(11.9536 -3.08768 0)
(11.8169 -3.12325 0)
(11.6727 -3.183 0)
(11.6036 -3.26401 0)
(11.4819 -3.34014 0)
(11.3732 -3.41281 0)
(11.3028 -3.49907 0)
(11.1737 -3.57791 0)
(11.1114 -3.66029 0)
(11.0264 -3.78043 0)
(11.0729 -3.84715 0)
(11.1566 -3.93799 0)
(11.2928 -4.05631 0)
(11.4154 -4.14421 0)
(11.6077 -4.23797 0)
(11.7923 -4.34966 0)
(11.9037 -4.42881 0)
(12.0033 -4.44624 0)
(12.0302 -4.46278 0)
(12.106 -4.50818 0)
(11.9627 -4.42238 0)
(11.8521 -4.1982 0)
(11.6242 -4.03899 0)
(11.4412 -3.73954 0)
(11.2456 -3.4085 0)
(11.1649 -3.11882 0)
(11.1632 -2.76565 0)
(11.2504 -2.44398 0)
(11.4663 -2.08965 0)
(11.7387 -1.73544 0)
(12.0208 -1.3168 0)
(12.3518 -0.817121 0)
(12.638 -0.340901 0)
(12.9009 0.240979 0)
(13.0906 0.829778 0)
(13.3591 1.41408 0)
(13.5814 2.06541 0)
(13.7981 2.64171 0)
(14.0511 3.26808 0)
(14.2157 3.88633 0)
(14.4198 4.45757 0)
(14.4203 4.96926 0)
(14.295 5.34253 0)
(13.9862 5.46034 0)
(13.5198 5.42147 0)
(13.0573 5.27782 0)
(12.5174 4.92048 0)
(12.0164 4.51701 0)
(11.7303 4.0886 0)
(11.2856 3.64003 0)
(11.1298 3.0324 0)
(10.6428 2.54893 0)
(10.3155 2.09929 0)
(9.99685 1.45486 0)
(9.48168 1.15363 0)
(9.00338 0.840885 0)
(8.52472 0.419548 0)
(7.82045 0.383315 0)
(7.28169 0.624941 0)
(6.73852 0.689102 0)
(6.29028 0.875983 0)
(5.61505 1.28528 0)
(5.23619 1.73613 0)
(4.84597 1.38716 0)
(4.76508 0.3692 0)
(4.65543 -1.21973 0)
(4.83487 -2.8285 0)
(4.61852 -4.5868 0)
(4.73166 -6.52065 0)
(4.26843 -8.65182 0)
(4.43577 -10.2236 0)
(4.6709 -10.3451 0)
(4.67248 -9.84273 0)
(5.19111 -8.82048 0)
(5.31358 -7.43388 0)
(5.71869 -6.1654 0)
(5.96206 -4.78412 0)
(6.37958 -3.71206 0)
(6.64592 -2.68476 0)
(7.26854 -1.13432 0)
(7.44298 0.332666 0)
(7.75416 1.42611 0)
(7.87236 2.41195 0)
(8.77997 3.91583 0)
(8.61897 5.16992 0)
(9.42642 6.31365 0)
(9.22928 6.8156 0)
(9.45266 7.05812 0)
(9.4857 7.07906 0)
(9.25342 6.67747 0)
(9.2819 6.21844 0)
(9.25281 5.7179 0)
(9.06088 5.60361 0)
(9.49983 5.19402 0)
(9.04539 4.47454 0)
(9.25382 3.99034 0)
(9.19563 3.71655 0)
(8.87728 3.19833 0)
(8.80466 2.51606 0)
(8.3782 2.20044 0)
(8.79972 2.1647 0)
(7.91034 2.1691 0)
(7.92935 2.22363 0)
(7.37541 2.27712 0)
(7.4946 2.5289 0)
(7.24939 2.32978 0)
(6.52192 2.05365 0)
(6.89187 1.85198 0)
(5.9855 1.7776 0)
(7.09308 2.0135 0)
(6.05584 1.86759 0)
(6.74155 1.97537 0)
(5.91788 1.77911 0)
(5.70782 2.09151 0)
(6.03916 2.15325 0)
(4.86613 2.85253 0)
(6.8904 2.83408 0)
(4.41914 3.78844 0)
(7.74658 3.01021 0)
(4.49701 3.86832 0)
(8.05137 2.79911 0)
(4.58898 3.6603 0)
(8.14525 2.44801 0)
(5.0373 3.48968 0)
(7.98932 2.06544 0)
(5.5654 2.73104 0)
(7.89958 1.19183 0)
(6.15733 1.79592 0)
(7.74534 -0.171314 0)
(5.94914 0.293714 0)
(7.15032 -1.24628 0)
(5.74364 -0.0683568 0)
(6.45119 -1.79539 0)
(5.54372 0.0766805 0)
(5.98989 -1.89116 0)
(4.84604 1.15488 0)
(7.61776 0.00272788 0)
(7.59818 0.0293503 0)
(7.5823 0.0450262 0)
(7.62371 0.0508486 0)
(7.6607 0.0645464 0)
(7.72989 0.0852426 0)
(7.75371 0.121808 0)
(7.79023 0.161302 0)
(7.79999 0.182198 0)
(7.81383 0.193664 0)
(7.85696 0.184072 0)
(7.87903 0.148347 0)
(7.96349 0.0842614 0)
(7.99778 0.010722 0)
(8.08463 -0.0885029 0)
(8.10646 -0.185758 0)
(8.15417 -0.2709 0)
(8.18428 -0.338739 0)
(8.15822 -0.380687 0)
(8.19942 -0.396979 0)
(8.14777 -0.386835 0)
(8.19695 -0.38012 0)
(8.21025 -0.341194 0)
(8.23982 -0.286794 0)
(8.3207 -0.215743 0)
(8.36169 -0.140629 0)
(8.47752 -0.0668931 0)
(8.57236 0.0223896 0)
(8.71533 0.081604 0)
(8.87122 0.129601 0)
(9.04091 0.165545 0)
(9.26265 0.147708 0)
(9.46876 0.105474 0)
(9.694 0.0344515 0)
(9.90795 -0.0481596 0)
(10.1092 -0.136424 0)
(10.3105 -0.211602 0)
(10.5273 -0.306689 0)
(10.7382 -0.419588 0)
(10.9477 -0.536144 0)
(11.1779 -0.679525 0)
(11.3443 -0.813461 0)
(11.5069 -0.934354 0)
(11.6692 -1.05351 0)
(11.7701 -1.14734 0)
(11.8994 -1.22797 0)
(12.0251 -1.31691 0)
(12.0831 -1.35281 0)
(12.1811 -1.42283 0)
(12.2327 -1.49415 0)
(12.293 -1.52585 0)
(12.3289 -1.62654 0)
(12.3841 -1.71 0)
(12.4451 -1.79295 0)
(12.4013 -1.91582 0)
(12.4599 -2.02814 0)
(12.4196 -2.168 0)
(12.3306 -2.30058 0)
(12.3406 -2.45309 0)
(12.22 -2.58387 0)
(12.1088 -2.67182 0)
(12.0106 -2.79048 0)
(11.8693 -2.85208 0)
(11.6987 -2.87548 0)
(11.5524 -2.9413 0)
(11.3711 -3.01549 0)
(11.2069 -3.10637 0)
(11.0795 -3.18665 0)
(10.9814 -3.3107 0)
(10.8947 -3.44482 0)
(10.8018 -3.51259 0)
(10.79 -3.64209 0)
(10.8652 -3.78623 0)
(10.9747 -3.85904 0)
(11.056 -3.96342 0)
(11.2598 -4.10188 0)
(11.4538 -4.22215 0)
(11.5858 -4.31177 0)
(11.6901 -4.37523 0)
(11.7212 -4.40831 0)
(11.6755 -4.39809 0)
(11.526 -4.39354 0)
(11.2984 -4.37755 0)
(11.0028 -4.24095 0)
(10.5707 -4.10376 0)
(10.2051 -3.87541 0)
(9.83025 -3.66912 0)
(9.62325 -3.4669 0)
(9.64376 -3.26206 0)
(9.71429 -3.14518 0)
(10.0352 -2.94236 0)
(10.3813 -2.75392 0)
(10.7345 -2.48132 0)
(11.1399 -2.12984 0)
(11.5128 -1.7209 0)
(11.8164 -1.17705 0)
(12.0808 -0.621089 0)
(12.2492 -0.0109096 0)
(12.4524 0.639479 0)
(12.5943 1.26745 0)
(12.7365 1.91639 0)
(12.8458 2.54756 0)
(12.9679 3.14033 0)
(13.1297 3.72574 0)
(13.3176 4.3399 0)
(13.4781 4.90958 0)
(13.5289 5.36983 0)
(13.4525 5.67551 0)
(13.1268 5.79188 0)
(12.7333 5.67274 0)
(12.173 5.38983 0)
(11.6778 4.92539 0)
(11.1247 4.45263 0)
(10.6841 3.83579 0)
(10.4002 3.34166 0)
(10.0655 2.98323 0)
(9.78398 2.32573 0)
(9.41039 1.7943 0)
(8.85093 1.50464 0)
(8.5999 1.14643 0)
(8.17003 0.899526 0)
(7.46678 0.982639 0)
(6.85479 1.03455 0)
(6.64028 0.974259 0)
(6.30852 1.20017 0)
(5.93924 1.68922 0)
(5.29058 2.10675 0)
(5.18493 1.74854 0)
(4.83712 0.429893 0)
(4.94317 -1.09073 0)
(4.74712 -2.85108 0)
(4.87189 -4.53896 0)
(4.49205 -6.3348 0)
(4.34483 -8.67149 0)
(4.17963 -10.0352 0)
(4.06732 -10.4855 0)
(4.45297 -10.1038 0)
(4.62652 -8.87911 0)
(4.76475 -7.79372 0)
(5.13408 -6.35508 0)
(5.33885 -5.09887 0)
(5.55028 -4.02164 0)
(6.03898 -2.84628 0)
(6.25084 -1.50463 0)
(6.70503 0.163067 0)
(6.6974 1.00245 0)
(7.30929 2.22632 0)
(7.62137 3.43016 0)
(8.15115 4.90596 0)
(8.1894 6.06335 0)
(9.05811 6.91222 0)
(8.48169 7.10446 0)
(9.02229 7.23042 0)
(8.57373 6.95617 0)
(8.49101 6.4037 0)
(8.66891 5.92884 0)
(8.48234 5.50028 0)
(8.72144 5.25653 0)
(8.748 4.6979 0)
(8.47777 4.21276 0)
(9.0035 3.93835 0)
(8.69488 3.79457 0)
(8.95135 3.38397 0)
(8.57937 2.87763 0)
(8.75136 2.87174 0)
(8.68414 2.87826 0)
(8.14001 2.84784 0)
(8.39586 2.70282 0)
(7.78885 2.71645 0)
(8.55939 2.74292 0)
(7.69019 2.47733 0)
(7.80958 2.30783 0)
(7.25581 1.84632 0)
(6.96821 2.20575 0)
(7.66899 2.05597 0)
(6.26698 2.49645 0)
(8.03547 2.02704 0)
(4.99781 2.62001 0)
(8.07363 1.93278 0)
(4.53279 3.07826 0)
(8.50686 2.45936 0)
(5.03729 3.7021 0)
(8.89601 2.88183 0)
(5.66448 3.92011 0)
(8.72017 2.70684 0)
(6.01862 3.76817 0)
(8.50752 2.15372 0)
(6.27759 3.49201 0)
(8.52205 1.82245 0)
(6.62573 2.71717 0)
(8.65128 1.1363 0)
(6.89326 1.46128 0)
(8.61085 -0.0491117 0)
(6.78448 0.600345 0)
(8.10531 -0.967031 0)
(6.8591 -0.288273 0)
(7.88207 -1.59942 0)
(6.35234 -0.763187 0)
(7.61459 -1.15871 0)
(6.08176 0.361489 0)
(9.86826 -0.0268191 0)
(9.86742 -0.116936 0)
(9.87437 -0.1172 0)
(9.92575 -0.0678681 0)
(9.96235 0.00114051 0)
(10.0268 0.0614893 0)
(10.0361 0.11287 0)
(10.0597 0.139201 0)
(10.0735 0.163366 0)
(10.0718 0.164587 0)
(10.1163 0.145442 0)
(10.1171 0.118544 0)
(10.1811 0.0440221 0)
(10.1914 -0.0220094 0)
(10.2523 -0.11588 0)
(10.2787 -0.198577 0)
(10.2917 -0.277095 0)
(10.3413 -0.342964 0)
(10.2992 -0.369093 0)
(10.3381 -0.416471 0)
(10.3077 -0.385711 0)
(10.3076 -0.389157 0)
(10.3479 -0.367049 0)
(10.3458 -0.305114 0)
(10.4118 -0.283158 0)
(10.4441 -0.201724 0)
(10.5329 -0.15882 0)
(10.6126 -0.0938064 0)
(10.7261 -0.038544 0)
(10.8657 -0.0175596 0)
(11.0002 0.0128269 0)
(11.164 -0.0100716 0)
(11.3382 -0.0491511 0)
(11.5039 -0.111443 0)
(11.6823 -0.178902 0)
(11.8402 -0.273092 0)
(12 -0.354621 0)
(12.1476 -0.456086 0)
(12.2857 -0.568293 0)
(12.4179 -0.676441 0)
(12.5746 -0.814743 0)
(12.6555 -0.918412 0)
(12.7315 -1.01995 0)
(12.8194 -1.13637 0)
(12.8185 -1.20335 0)
(12.8634 -1.27638 0)
(12.877 -1.35419 0)
(12.8783 -1.38906 0)
(12.867 -1.43705 0)
(12.8445 -1.51694 0)
(12.8484 -1.55555 0)
(12.7661 -1.62435 0)
(12.7483 -1.71832 0)
(12.7434 -1.78731 0)
(12.615 -1.88861 0)
(12.6314 -1.98675 0)
(12.5248 -2.08637 0)
(12.3691 -2.21092 0)
(12.3025 -2.29655 0)
(12.1247 -2.41215 0)
(11.9777 -2.50872 0)
(11.8012 -2.56984 0)
(11.6214 -2.65214 0)
(11.4361 -2.74455 0)
(11.3022 -2.85381 0)
(11.1619 -2.95359 0)
(11.0898 -3.05883 0)
(11.0032 -3.16155 0)
(10.9781 -3.25268 0)
(10.9502 -3.35669 0)
(10.9579 -3.4652 0)
(11.0328 -3.56608 0)
(11.0746 -3.72129 0)
(11.2061 -3.8964 0)
(11.2973 -4.01297 0)
(11.4135 -4.12548 0)
(11.5003 -4.23774 0)
(11.4011 -4.27891 0)
(11.3382 -4.26112 0)
(11.1151 -4.26517 0)
(10.8154 -4.22896 0)
(10.3311 -4.10161 0)
(9.81726 -3.96132 0)
(9.19591 -3.79759 0)
(8.61422 -3.60739 0)
(8.25693 -3.49812 0)
(8.1358 -3.46805 0)
(8.29028 -3.53321 0)
(8.6349 -3.59312 0)
(8.983 -3.5805 0)
(9.43631 -3.44942 0)
(9.82727 -3.25817 0)
(10.1712 -2.97466 0)
(10.6072 -2.57996 0)
(10.8954 -2.09244 0)
(11.1289 -1.50444 0)
(11.4098 -0.894817 0)
(11.4702 -0.187225 0)
(11.6734 0.500226 0)
(11.7995 1.12139 0)
(11.9309 1.76804 0)
(12.0453 2.43298 0)
(12.0741 3.06639 0)
(12.1256 3.66293 0)
(12.221 4.19699 0)
(12.3626 4.77769 0)
(12.4509 5.31116 0)
(12.5472 5.70527 0)
(12.4461 5.96834 0)
(12.1733 6.04841 0)
(11.7004 5.82454 0)
(11.2176 5.33183 0)
(10.6838 4.88743 0)
(10.2997 4.3104 0)
(9.79033 3.65375 0)
(9.32047 3.08481 0)
(9.08983 2.60564 0)
(8.69779 2.27361 0)
(8.2065 1.85242 0)
(7.87696 1.33537 0)
(7.65802 1.27554 0)
(7.09056 1.48903 0)
(6.5854 1.36356 0)
(6.27339 1.1816 0)
(5.99798 1.43959 0)
(5.68584 2.04546 0)
(5.35216 2.34821 0)
(5.01185 1.81346 0)
(5.13433 0.563422 0)
(4.81759 -1.12632 0)
(4.94623 -2.84984 0)
(4.69914 -4.31069 0)
(4.61341 -6.2446 0)
(4.33039 -8.24314 0)
(3.8534 -10.0103 0)
(3.94414 -10.6631 0)
(4.04217 -9.99182 0)
(4.00645 -9.08663 0)
(4.23521 -7.86104 0)
(4.67021 -6.53105 0)
(4.4549 -5.41072 0)
(5.05545 -4.20778 0)
(4.92034 -3.16332 0)
(5.52068 -1.51844 0)
(5.37961 -0.242148 0)
(5.82122 1.00022 0)
(6.22769 1.70847 0)
(6.84967 3.33097 0)
(7.1675 4.30729 0)
(7.48041 5.64463 0)
(7.88397 6.51929 0)
(8.43056 6.93852 0)
(7.93825 6.87079 0)
(8.80015 6.79665 0)
(8.09535 6.21976 0)
(8.57132 5.81072 0)
(8.32874 5.40091 0)
(8.24991 5.04062 0)
(8.53197 4.58509 0)
(8.21188 3.81851 0)
(8.38074 3.64568 0)
(8.37341 3.21535 0)
(7.83342 2.83494 0)
(8.16143 2.16734 0)
(7.36094 2.28918 0)
(8.30959 2.49067 0)
(7.4517 2.41903 0)
(8.27278 2.40925 0)
(7.77406 2.17042 0)
(8.30383 2.53296 0)
(8.67943 2.32201 0)
(7.72217 2.56374 0)
(8.88566 1.92234 0)
(6.19998 2.33991 0)
(9.19367 1.71225 0)
(5.62048 2.57071 0)
(9.75832 1.84242 0)
(5.38617 2.98488 0)
(9.62717 1.71791 0)
(5.17444 3.07715 0)
(9.2039 1.93333 0)
(5.61427 3.60222 0)
(9.30636 2.41303 0)
(6.60153 3.93559 0)
(9.53477 2.73378 0)
(6.9457 3.61159 0)
(9.62081 2.46142 0)
(7.27254 3.32431 0)
(9.56814 2.046 0)
(7.60215 2.36709 0)
(9.76678 1.20224 0)
(8.45823 1.63368 0)
(9.42072 0.39173 0)
(8.07539 0.322411 0)
(9.13944 -0.975781 0)
(8.24587 -0.540877 0)
(8.81527 -0.823254 0)
(7.38855 -0.441408 0)
(7.52261 -1.18632 0)
(6.92497 -0.287706 0)
(11.4435 0.00596771 0)
(11.4715 -0.1335 0)
(11.5631 -0.16497 0)
(11.6645 -0.120118 0)
(11.7084 -0.0356138 0)
(11.7653 0.0365931 0)
(11.7622 0.104668 0)
(11.7705 0.124105 0)
(11.7762 0.139336 0)
(11.7741 0.140009 0)
(11.8081 0.105639 0)
(11.8239 0.0938547 0)
(11.8795 0.0173604 0)
(11.8913 -0.032251 0)
(11.932 -0.116395 0)
(11.9535 -0.200337 0)
(11.944 -0.258435 0)
(11.9793 -0.344753 0)
(11.9409 -0.352033 0)
(11.9506 -0.409542 0)
(11.9338 -0.393197 0)
(11.9129 -0.376477 0)
(11.9252 -0.381163 0)
(11.923 -0.316296 0)
(11.9515 -0.315322 0)
(11.9725 -0.247786 0)
(12.0184 -0.220108 0)
(12.0877 -0.181884 0)
(12.1644 -0.134309 0)
(12.2646 -0.129218 0)
(12.3871 -0.106785 0)
(12.4973 -0.120969 0)
(12.6339 -0.159302 0)
(12.7453 -0.221978 0)
(12.8742 -0.279629 0)
(12.9666 -0.376969 0)
(13.0766 -0.452402 0)
(13.1576 -0.536219 0)
(13.2308 -0.65724 0)
(13.2718 -0.748825 0)
(13.339 -0.861646 0)
(13.3321 -0.954906 0)
(13.3288 -1.04653 0)
(13.3298 -1.12944 0)
(13.2421 -1.20693 0)
(13.1977 -1.25876 0)
(13.1305 -1.31292 0)
(13.0736 -1.36454 0)
(12.9895 -1.37625 0)
(12.9174 -1.45679 0)
(12.8272 -1.51252 0)
(12.7084 -1.57087 0)
(12.6423 -1.67432 0)
(12.5668 -1.74365 0)
(12.423 -1.82301 0)
(12.3487 -1.92894 0)
(12.204 -2.03413 0)
(12.0263 -2.14271 0)
(11.9073 -2.23837 0)
(11.75 -2.36811 0)
(11.5347 -2.44173 0)
(11.4206 -2.51673 0)
(11.3143 -2.63768 0)
(11.199 -2.67995 0)
(11.1649 -2.73959 0)
(11.0901 -2.85638 0)
(11.037 -2.94115 0)
(10.9795 -3.02317 0)
(10.9132 -3.14938 0)
(10.8914 -3.27646 0)
(10.8858 -3.44004 0)
(10.8896 -3.61426 0)
(10.9563 -3.79312 0)
(11.0074 -3.95388 0)
(11.0603 -4.09283 0)
(11.0165 -4.17446 0)
(10.9258 -4.18918 0)
(10.7592 -4.17663 0)
(10.4539 -4.10023 0)
(10.0197 -3.93828 0)
(9.37654 -3.73335 0)
(8.63934 -3.54477 0)
(7.8072 -3.32815 0)
(7.10405 -3.19882 0)
(6.75275 -3.27025 0)
(6.77086 -3.47972 0)
(7.09532 -3.78466 0)
(7.50344 -3.9958 0)
(7.84165 -3.99995 0)
(8.15247 -3.93283 0)
(8.47693 -3.73858 0)
(8.76184 -3.44422 0)
(9.0804 -3.10927 0)
(9.42634 -2.66515 0)
(9.64713 -2.16768 0)
(9.89808 -1.58495 0)
(10.1134 -0.926833 0)
(10.1491 -0.222468 0)
(10.3849 0.427128 0)
(10.5092 1.03406 0)
(10.6944 1.67893 0)
(10.9331 2.35945 0)
(11.0712 3.00501 0)
(11.0758 3.61641 0)
(11.1206 4.16485 0)
(11.1899 4.69375 0)
(11.2868 5.21126 0)
(11.4011 5.67296 0)
(11.4681 6.03038 0)
(11.3373 6.23493 0)
(11.0549 6.13554 0)
(10.6286 5.81882 0)
(10.0849 5.2762 0)
(9.68388 4.56663 0)
(9.26803 4.04779 0)
(8.77278 3.49559 0)
(8.53424 2.89153 0)
(8.24078 2.54795 0)
(7.79934 2.16565 0)
(7.43388 1.6708 0)
(7.0569 1.5719 0)
(6.73481 1.80094 0)
(6.43089 1.70369 0)
(6.12473 1.50547 0)
(5.87649 1.73814 0)
(5.57499 2.27747 0)
(5.32388 2.66633 0)
(5.33062 1.97408 0)
(5.02892 0.670749 0)
(5.10303 -1.00614 0)
(4.78153 -2.60516 0)
(4.66672 -4.3232 0)
(4.60649 -5.98946 0)
(4.0581 -8.0986 0)
(3.76404 -9.94337 0)
(3.63189 -10.3717 0)
(3.50138 -10.1309 0)
(3.52944 -9.30379 0)
(3.95434 -7.91078 0)
(3.53618 -6.56927 0)
(4.10751 -5.43982 0)
(3.95398 -4.36073 0)
(4.14825 -3.16049 0)
(4.45273 -1.78963 0)
(4.22792 -0.275634 0)
(5.04864 0.525298 0)
(5.03085 1.59773 0)
(5.99296 2.69232 0)
(6.12751 4.39388 0)
(6.77485 5.29927 0)
(6.89822 6.48494 0)
(7.36011 6.90831 0)
(7.43034 7.14262 0)
(7.47431 6.97334 0)
(7.88119 6.39495 0)
(7.06456 5.71785 0)
(8.1333 5.65821 0)
(7.2679 5.17733 0)
(7.87377 4.81878 0)
(7.64558 4.19058 0)
(7.65938 3.90107 0)
(8.36671 3.70859 0)
(7.67607 3.39354 0)
(7.9777 3.10502 0)
(7.17637 2.64704 0)
(7.51936 3.00431 0)
(7.90462 2.73085 0)
(7.19358 2.98682 0)
(8.70481 2.27625 0)
(6.86982 2.6177 0)
(9.88195 2.1623 0)
(6.7916 2.93691 0)
(10.6582 2.05346 0)
(6.07423 2.9111 0)
(10.4776 1.54461 0)
(5.74718 2.88159 0)
(10.4023 1.59773 0)
(6.12419 3.25271 0)
(10.3113 1.83139 0)
(6.28856 3.42955 0)
(9.71402 2.02266 0)
(6.33388 3.4406 0)
(9.75946 2.13516 0)
(7.10934 3.5767 0)