/*--------------------------------*- C++ -*----------------------------------*\
| =========                 |                                                 |
| \\      /  F ield         | OpenFOAM: The Open Source CFD Toolbox           |
|  \\    /   O peration     | Version:  2.4.0                                 |
|   \\  /    A nd           | Web:      www.OpenFOAM.org                      |
|    \\/     M anipulation  |                                                 |
\*---------------------------------------------------------------------------*/
FoamFile
{
    version     2.0;
    format      ascii;
    class       volVectorField;
    location    "0.24";
    object      UMean;
}
// * * * * * * * * * * * * * * * * * * * * * * * * * * * * * * * * * * * * * //

dimensions      [0 1 -1 0 0 0 0];

internalField   nonuniform List<vector> 
8800
(
(8.09525 0.384877 0)
(5.49143 0.241541 0)
(3.97309 0.0436175 0)
(3.22725 -0.0147658 0)
(2.87651 -0.0178925 0)
(2.67993 -0.0108697 0)
(2.57111 -0.00555755 0)
(2.47281 -0.00218696 0)
(2.41753 -0.00147854 0)
(2.35229 -0.000439739 0)
(2.32464 -0.000703744 0)
(2.27587 0.000118745 0)
(2.25953 -0.000264458 0)
(2.21639 0.000664549 0)
(2.20088 -4.31157e-05 0)
(2.16048 0.00137736 0)
(2.14182 -0.000552334 0)
(2.09795 0.0024601 0)
(2.10971 -0.000968278 0)
(1.93495 -0.0339626 0)
(10.0676 0.830322 0)
(9.66381 0.857285 0)
(8.8974 0.499916 0)
(8.1241 0.257472 0)
(7.54405 0.135017 0)
(7.07179 0.0793473 0)
(6.77286 0.0513114 0)
(6.48771 0.0381414 0)
(6.32871 0.0273159 0)
(6.13522 0.0225532 0)
(6.05434 0.0165466 0)
(5.90944 0.0164345 0)
(5.86688 0.0127869 0)
(5.74624 0.0151226 0)
(5.71461 0.012649 0)
(5.60913 0.0145728 0)
(5.57261 0.0172983 0)
(5.4742 0.00711575 0)
(5.44839 0.0280043 0)
(5.32726 -0.0582926 0)
(10.0463 0.626116 0)
(10.6516 0.851967 0)
(10.8635 0.591679 0)
(10.6934 0.366164 0)
(10.4603 0.249454 0)
(10.1 0.190264 0)
(9.85859 0.146778 0)
(9.52929 0.116655 0)
(9.36268 0.0877047 0)
(9.09374 0.0713132 0)
(9.00247 0.0532687 0)
(8.78298 0.0486347 0)
(8.74222 0.0374276 0)
(8.55153 0.0398268 0)
(8.53598 0.0317486 0)
(8.36037 0.037287 0)
(8.35135 0.033465 0)
(8.18026 0.0363174 0)
(8.16551 0.0348149 0)
(8.00485 -0.0367942 0)
(9.9866 0.453594 0)
(10.5627 0.696491 0)
(11.1561 0.536906 0)
(11.3627 0.345226 0)
(11.5344 0.255172 0)
(11.4399 0.22065 0)
(11.4676 0.192096 0)
(11.2819 0.168407 0)
(11.2812 0.138228 0)
(11.0702 0.118868 0)
(11.0794 0.095662 0)
(10.8661 0.087173 0)
(10.8927 0.0713241 0)
(10.6804 0.0714241 0)
(10.7199 0.0591852 0)
(10.5077 0.0656757 0)
(10.5512 0.0542912 0)
(10.3355 0.0700873 0)
(10.3597 0.0448224 0)
(10.135 0.0559116 0)
(10.0274 0.34437 0)
(10.4004 0.559963 0)
(11.0344 0.454085 0)
(11.2932 0.287981 0)
(11.631 0.20396 0)
(11.6471 0.18675 0)
(11.8458 0.171399 0)
(11.7848 0.162925 0)
(11.9428 0.136457 0)
(11.8497 0.126493 0)
(11.9888 0.101019 0)
(11.8758 0.101046 0)
(12.0003 0.079514 0)
(11.8719 0.0900486 0)
(11.9811 0.0682512 0)
(11.8412 0.0883643 0)
(11.932 0.0620778 0)
(11.7827 0.0948138 0)
(11.8369 0.0500542 0)
(11.6439 0.0781661 0)
(10.04 0.250973 0)
(10.3167 0.44922 0)
(10.8887 0.371922 0)
(11.1704 0.24227 0)
(11.5077 0.15801 0)
(11.5817 0.146706 0)
(11.7725 0.137269 0)
(11.787 0.1366 0)
(11.9434 0.113074 0)
(11.9496 0.107941 0)
(12.0903 0.0846415 0)
(12.0923 0.0865849 0)
(12.2168 0.068742 0)
(12.2135 0.0783671 0)
(12.3199 0.0634403 0)
(12.3115 0.0775937 0)
(12.3968 0.0632503 0)
(12.3818 0.0775082 0)
(12.4289 0.0498392 0)
(12.3415 0.0121482 0)
(9.99367 0.174166 0)
(10.3023 0.348364 0)
(10.7433 0.286128 0)
(11.1065 0.200199 0)
(11.3712 0.116911 0)
(11.5354 0.111329 0)
(11.6474 0.102928 0)
(11.7402 0.109611 0)
(11.8219 0.0858085 0)
(11.9089 0.0864414 0)
(11.9832 0.0627701 0)
(12.0678 0.0682443 0)
(12.1334 0.050074 0)
(12.2136 0.0612901 0)
(12.2694 0.0467178 0)
(12.3444 0.059985 0)
(12.3891 0.0455896 0)
(12.4547 0.0531375 0)
(12.469 0.0218486 0)
(12.4419 -0.0286738 0)
(9.99657 0.114748 0)
(10.2544 0.24665 0)
(10.6786 0.203682 0)
(11.0206 0.148416 0)
(11.311 0.0821417 0)
(11.4622 0.076055 0)
(11.5983 0.0729672 0)
(11.6632 0.078408 0)
(11.7698 0.062141 0)
(11.8283 0.0610165 0)
(11.9324 0.0448273 0)
(11.9862 0.0468304 0)
(12.0854 0.0353379 0)
(12.1321 0.0409675 0)
(12.2249 0.0323566 0)
(12.2629 0.037902 0)
(12.3485 0.027447 0)
(12.372 0.0241274 0)
(12.4272 -0.00311281 0)
(12.3434 -0.0555113 0)
(9.97655 0.0642697 0)
(10.2474 0.147117 0)
(10.6125 0.121781 0)
(10.9899 0.0908864 0)
(11.2457 0.0482296 0)
(11.4423 0.0453998 0)
(11.54 0.0429548 0)
(11.6424 0.048038 0)
(11.7081 0.0371237 0)
(11.8061 0.0368769 0)
(11.8697 0.0260484 0)
(11.9646 0.0275734 0)
(12.0226 0.0196275 0)
(12.1111 0.022895 0)
(12.161 0.0159551 0)
(12.2416 0.0175192 0)
(12.2818 0.0068858 0)
(12.3476 -0.000711741 0)
(12.3508 -0.0264214 0)
(12.3063 -0.0719439 0)
(9.98638 0.0212703 0)
(10.2243 0.0482614 0)
(10.6003 0.0411443 0)
(10.9544 0.0298437 0)
(11.2343 0.0164744 0)
(11.4119 0.0143025 0)
(11.5325 0.0147162 0)
(11.6115 0.0153798 0)
(11.6995 0.0126237 0)
(11.7736 0.0112339 0)
(11.8611 0.0083827 0)
(11.9324 0.00715638 0)
(12.0145 0.00491643 0)
(12.0783 0.00344542 0)
(12.1528 6.48455e-05 0)
(12.2078 -0.00442131 0)
(12.272 -0.0125515 0)
(12.3102 -0.0252549 0)
(12.3358 -0.0466372 0)
(12.2595 -0.0839356 0)
(9.9852 -0.0221434 0)
(10.2256 -0.0470695 0)
(10.599 -0.0423967 0)
(10.9559 -0.0287114 0)
(11.2331 -0.0178512 0)
(11.4133 -0.013698 0)
(11.5309 -0.0161719 0)
(11.6132 -0.01475 0)
(11.6977 -0.0148049 0)
(11.7752 -0.0116567 0)
(11.8595 -0.0121731 0)
(11.934 -0.010168 0)
(12.0125 -0.0128829 0)
(12.0797 -0.0129114 0)
(12.1502 -0.0188939 0)
(12.2079 -0.0229078 0)
(12.2678 -0.0345536 0)
(12.308 -0.0456999 0)
(12.3287 -0.0682325 0)
(12.2516 -0.0902896 0)
(9.98053 -0.0647499 0)
(10.2431 -0.146461 0)
(10.6166 -0.122433 0)
(10.9857 -0.0904232 0)
(11.2502 -0.0488949 0)
(11.4377 -0.0455485 0)
(11.5443 -0.0436779 0)
(11.6378 -0.0483387 0)
(11.7123 -0.0383332 0)
(11.801 -0.0384305 0)
(11.8739 -0.0289279 0)
(11.9594 -0.0317539 0)
(12.0263 -0.0265618 0)
(12.1044 -0.0335392 0)
(12.1627 -0.033436 0)
(12.2319 -0.0455378 0)
(12.2791 -0.052086 0)
(12.3309 -0.070926 0)
(12.3381 -0.0853575 0)
(12.2745 -0.102271 0)
(9.99131 -0.115834 0)
(10.2598 -0.245113 0)
(10.6726 -0.205198 0)
(11.0267 -0.146943 0)
(11.3045 -0.08364 0)
(11.4687 -0.074926 0)
(11.5913 -0.0747181 0)
(11.6696 -0.0773154 0)
(11.7626 -0.0645743 0)
(11.8347 -0.0609603 0)
(11.9242 -0.0490773 0)
(11.9924 -0.0493771 0)
(12.076 -0.0436722 0)
(12.1365 -0.0497217 0)
(12.2117 -0.0510882 0)
(12.263 -0.0631639 0)
(12.3275 -0.0730007 0)
(12.361 -0.0916635 0)
(12.3881 -0.108759 0)
(12.3086 -0.111517 0)
(10.0035 -0.174682 0)
(10.2927 -0.347604 0)
(10.7523 -0.28698 0)
(11.0978 -0.199574 0)
(11.3797 -0.117739 0)
(11.527 -0.110911 0)
(11.6558 -0.103848 0)
(11.7315 -0.109565 0)
(11.8301 -0.0875375 0)
(11.9002 -0.087406 0)
(11.9908 -0.0660263 0)
(12.0581 -0.0719264 0)
(12.1398 -0.057323 0)
(12.201 -0.0711591 0)
(12.2713 -0.0639094 0)
(12.3244 -0.0854071 0)
(12.3803 -0.0877242 0)
(12.417 -0.118052 0)
(12.434 -0.127909 0)
(12.3644 -0.136382 0)
(10.0394 -0.251449 0)
(10.317 -0.448611 0)
(10.8886 -0.372634 0)
(11.1704 -0.242059 0)
(11.5077 -0.158518 0)
(11.5817 -0.14679 0)
(11.7721 -0.137695 0)
(11.7869 -0.137487 0)
(11.9428 -0.11407 0)
(11.949 -0.110001 0)
(12.0885 -0.086674 0)
(12.0903 -0.0916224 0)
(12.2127 -0.074185 0)
(12.2075 -0.0897954 0)
(12.3086 -0.0774516 0)
(12.2943 -0.10384 0)
(12.3674 -0.0991364 0)
(12.3359 -0.139971 0)
(12.3543 -0.141967 0)
(12.2278 -0.16809 0)
(10.0331 -0.34519 0)
(10.3954 -0.558805 0)
(11.0384 -0.455343 0)
(11.289 -0.286892 0)
(11.6342 -0.205362 0)
(11.6434 -0.18572 0)
(11.8482 -0.173091 0)
(11.7813 -0.162153 0)
(11.944 -0.139111 0)
(11.8458 -0.126332 0)
(11.9874 -0.10505 0)
(11.8702 -0.102963 0)
(11.9933 -0.0873569 0)
(11.8604 -0.0970541 0)
(11.9607 -0.0846986 0)
(11.8132 -0.107342 0)
(11.8789 -0.0995873 0)
(11.7119 -0.14288 0)
(11.7077 -0.139166 0)
(11.4658 -0.183736 0)
(9.99093 -0.453975 0)
(10.5575 -0.69598 0)
(11.1608 -0.537436 0)
(11.3566 -0.344799 0)
(11.5401 -0.255883 0)
(11.4326 -0.220313 0)
(11.4741 -0.19299 0)
(11.2725 -0.168294 0)
(11.2882 -0.13984 0)
(11.0572 -0.119494 0)
(11.0855 -0.0981185 0)
(10.8469 -0.0900084 0)
(10.8939 -0.0761832 0)
(10.6484 -0.0796941 0)
(10.7057 -0.0695246 0)
(10.4476 -0.0861495 0)
(10.4959 -0.0785806 0)
(10.2133 -0.118688 0)
(10.2039 -0.10991 0)
(9.85893 -0.171344 0)
(10.0472 -0.626436 0)
(10.6496 -0.851626 0)
(10.8654 -0.591992 0)
(10.6902 -0.36589 0)
(10.4636 -0.249942 0)
(10.0947 -0.190014 0)
(9.86343 -0.147482 0)
(9.52063 -0.116453 0)
(9.36922 -0.0890843 0)
(9.07862 -0.0714596 0)
(9.0103 -0.0555604 0)
(8.7569 -0.0499461 0)
(8.74807 -0.0419743 0)
(8.50487 -0.0444134 0)
(8.52932 -0.040809 0)
(8.27282 -0.0503243 0)
(8.30462 -0.051649 0)
(8.00873 -0.0732214 0)
(7.99998 -0.0808847 0)
(7.63102 -0.102026 0)
(10.0676 -0.830404 0)
(9.66304 -0.857181 0)
(8.89796 -0.499987 0)
(8.12272 -0.257407 0)
(7.54546 -0.135196 0)
(7.06887 -0.0793495 0)
(6.77503 -0.0515465 0)
(6.4821 -0.0382174 0)
(6.3317 -0.0278449 0)
(6.12409 -0.0228752 0)
(6.0577 -0.017493 0)
(5.88786 -0.0175157 0)
(5.86836 -0.0148292 0)
(5.70345 -0.0181851 0)
(5.70535 -0.0167314 0)
(5.52303 -0.0233472 0)
(5.52707 -0.0243247 0)
(5.29865 -0.0350601 0)
(5.28174 -0.0447098 0)
(4.94876 -0.0326227 0)
(8.09511 -0.384907 0)
(5.49119 -0.24151 0)
(3.97313 -0.0436272 0)
(3.227 0.014766 0)
(2.87673 0.0178518 0)
(2.67888 0.0108746 0)
(2.57139 0.00553417 0)
(2.47057 0.00216831 0)
(2.41759 0.00144609 0)
(2.34754 0.000339512 0)
(2.32341 0.00064728 0)
(2.26606 -0.000344623 0)
(2.25488 8.85662e-05 0)
(2.19505 -0.00120876 0)
(2.18606 -0.000532845 0)
(2.11433 -0.00249622 0)
(2.0979 -0.00157408 0)
(2.00121 -0.0043665 0)
(1.95839 -0.00608444 0)
(1.77945 0.0129795 0)
(2.35332 -0.131289 0)
(2.54177 -0.0512044 0)
(2.84943 -0.0516303 0)
(3.09728 -0.0650889 0)
(3.35751 -0.0734615 0)
(3.56477 -0.0709748 0)
(3.8055 -0.0759438 0)
(3.98998 -0.0814132 0)
(4.20236 -0.114874 0)
(4.38103 -0.15249 0)
(4.57442 -0.192158 0)
(4.73024 -0.22881 0)
(4.90079 -0.268869 0)
(5.03972 -0.304874 0)
(5.18583 -0.343334 0)
(5.31995 -0.373156 0)
(5.46269 -0.405005 0)
(5.61954 -0.434914 0)
(5.80371 -0.465015 0)
(6.00112 -0.491267 0)
(6.20487 -0.535383 0)
(6.40914 -0.584568 0)
(6.5985 -0.637011 0)
(6.7816 -0.690734 0)
(6.9543 -0.74571 0)
(7.11291 -0.798227 0)
(7.27666 -0.852417 0)
(7.41815 -0.899063 0)
(7.57732 -0.945785 0)
(7.72505 -0.989836 0)
(7.89577 -1.03707 0)
(8.06406 -1.08638 0)
(8.24746 -1.14435 0)
(8.43165 -1.20537 0)
(8.60647 -1.27191 0)
(8.78548 -1.33988 0)
(8.93674 -1.40636 0)
(9.09882 -1.47216 0)
(9.22322 -1.53763 0)
(9.3683 -1.60272 0)
(9.47033 -1.66143 0)
(9.59095 -1.7181 0)
(9.67475 -1.76951 0)
(9.77163 -1.81969 0)
(9.84253 -1.8652 0)
(9.92059 -1.90771 0)
(9.98511 -1.94833 0)
(10.0548 -1.98448 0)
(10.1167 -2.02216 0)
(10.1848 -2.05345 0)
(10.2421 -2.08947 0)
(10.3067 -2.11524 0)
(10.3507 -2.14669 0)
(10.402 -2.16352 0)
(10.4244 -2.18623 0)
(10.4495 -2.19199 0)
(10.4474 -2.2028 0)
(10.4398 -2.19834 0)
(10.4174 -2.19964 0)
(10.3825 -2.18953 0)
(10.3514 -2.19064 0)
(10.3059 -2.18009 0)
(10.2672 -2.18317 0)
(10.2278 -2.17 0)
(10.1668 -2.16518 0)
(10.1281 -2.1396 0)
(10.0359 -2.10758 0)
(9.97642 -2.05678 0)
(9.87136 -2.00025 0)
(9.79695 -1.93853 0)
(9.69868 -1.87933 0)
(9.61611 -1.80502 0)
(9.49833 -1.73829 0)
(9.41957 -1.65462 0)
(9.29674 -1.58908 0)
(9.2343 -1.5049 0)
(9.11564 -1.44082 0)
(9.07516 -1.37077 0)
(8.97549 -1.31598 0)
(8.94123 -1.24943 0)
(8.87046 -1.18979 0)
(8.82788 -1.10135 0)
(8.77106 -1.01681 0)
(8.71524 -0.910803 0)
(8.66918 -0.801349 0)
(8.59277 -0.682655 0)
(8.55149 -0.571129 0)
(8.47736 -0.454973 0)
(8.42478 -0.349045 0)
(8.35111 -0.233624 0)
(8.2913 -0.12815 0)
(8.21992 -0.00143107 0)
(8.1419 0.11062 0)
(8.05863 0.235609 0)
(7.96768 0.340981 0)
(7.8987 0.456218 0)
(7.80076 0.545 0)
(7.748 0.636639 0)
(7.6603 0.693553 0)
(7.65079 0.742859 0)
(7.57019 0.756744 0)
(7.60216 0.783449 0)
(7.52817 0.753429 0)
(7.58414 0.764362 0)
(7.49974 0.756602 0)
(7.55556 0.775449 0)
(7.45945 0.767441 0)
(7.51149 0.790016 0)
(7.40704 0.783458 0)
(7.45205 0.800735 0)
(7.33427 0.789754 0)
(7.37568 0.798227 0)
(7.2366 0.769257 0)
(7.29427 0.765685 0)
(7.14712 0.714077 0)
(7.245 0.721111 0)
(7.08529 0.671994 0)
(7.21873 0.685824 0)
(7.04885 0.639301 0)
(7.18278 0.664538 0)
(7.01358 0.620679 0)
(7.14715 0.660181 0)
(6.97794 0.61097 0)
(7.14112 0.649034 0)
(6.96597 0.585213 0)
(7.14256 0.629002 0)
(6.96768 0.555978 0)
(7.14016 0.606093 0)
(6.98093 0.536239 0)
(7.13377 0.5794 0)
(6.98668 0.517621 0)
(7.13961 0.556952 0)
(6.9849 0.501693 0)
(7.14317 0.547852 0)
(6.97273 0.490559 0)
(7.13286 0.549279 0)
(6.95885 0.488802 0)
(7.10599 0.558541 0)
(6.93923 0.495904 0)
(7.07179 0.55662 0)
(6.91155 0.496934 0)
(7.03892 0.53673 0)
(6.86739 0.481723 0)
(7.01225 0.507382 0)
(6.81467 0.449705 0)
(6.99592 0.469638 0)
(6.75865 0.409563 0)
(6.97921 0.429929 0)
(6.70362 0.359486 0)
(6.9381 0.379418 0)
(6.64661 0.303378 0)
(6.88524 0.32202 0)
(6.60332 0.245658 0)
(6.82551 0.272309 0)
(6.56557 0.201618 0)
(6.75714 0.229292 0)
(6.53864 0.165575 0)
(6.6977 0.200165 0)
(6.52646 0.14109 0)
(6.67436 0.188976 0)
(6.55035 0.130248 0)
(6.66474 0.180459 0)
(6.5671 0.134361 0)
(6.65013 0.200149 0)
(6.56468 0.173223 0)
(6.60287 0.227537 0)
(6.58641 0.217073 0)
(6.55716 0.259457 0)
(6.61073 0.272091 0)
(6.49041 0.311832 0)
(6.63563 0.339091 0)
(6.41262 0.388296 0)
(6.64859 0.415088 0)
(6.36826 0.496908 0)
(6.65404 0.500065 0)
(6.34294 0.639087 0)
(6.6703 0.612826 0)
(6.32758 0.812428 0)
(6.6851 0.751101 0)
(6.32459 1.01722 0)
(6.68547 0.906843 0)
(6.33104 1.24224 0)
(6.66931 1.08926 0)
(6.35387 1.48781 0)
(6.62096 1.31775 0)
(6.38543 1.75738 0)
(6.54128 1.61386 0)
(6.36794 2.03661 0)
(6.45661 1.98928 0)
(6.24608 2.32447 0)
(6.38099 2.45199 0)
(6.00455 2.6756 0)
(6.27743 2.99972 0)
(5.77494 3.2534 0)
(6.05884 3.63389 0)
(5.73607 4.30094 0)
(5.70846 4.53574 0)
(5.44276 5.88236 0)
(6.34112 6.80334 0)
(3.95572 9.86355 0)
(5.4478 -0.114723 0)
(5.44787 -0.0969856 0)
(5.51234 -0.11792 0)
(5.61637 -0.15246 0)
(5.75425 -0.177021 0)
(5.87985 -0.185523 0)
(6.00707 -0.194261 0)
(6.11327 -0.206211 0)
(6.2167 -0.23113 0)
(6.3097 -0.265133 0)
(6.40801 -0.305365 0)
(6.5019 -0.345854 0)
(6.60746 -0.386604 0)
(6.71145 -0.4237 0)
(6.82604 -0.458932 0)
(6.93982 -0.493159 0)
(7.06475 -0.527073 0)
(7.18963 -0.561992 0)
(7.32872 -0.600785 0)
(7.47153 -0.63985 0)
(7.62282 -0.685435 0)
(7.77596 -0.73567 0)
(7.92322 -0.785629 0)
(8.06792 -0.835947 0)
(8.20921 -0.884535 0)
(8.34464 -0.9331 0)
(8.48618 -0.980311 0)
(8.6173 -1.02719 0)
(8.76073 -1.07357 0)
(8.89166 -1.1213 0)
(9.04241 -1.17085 0)
(9.17549 -1.22247 0)
(9.33161 -1.27969 0)
(9.4623 -1.3373 0)
(9.61091 -1.39934 0)
(9.72935 -1.45649 0)
(9.85578 -1.51768 0)
(9.95646 -1.57097 0)
(10.052 -1.62992 0)
(10.1358 -1.68012 0)
(10.2063 -1.73583 0)
(10.2792 -1.78059 0)
(10.3346 -1.8304 0)
(10.4013 -1.86981 0)
(10.452 -1.91385 0)
(10.5128 -1.94952 0)
(10.5633 -1.98945 0)
(10.6141 -2.02248 0)
(10.6623 -2.05864 0)
(10.6964 -2.08751 0)
(10.7352 -2.11775 0)
(10.7463 -2.13857 0)
(10.7673 -2.15974 0)
(10.7526 -2.16857 0)
(10.7499 -2.17923 0)
(10.7118 -2.17641 0)
(10.6851 -2.17668 0)
(10.6323 -2.16864 0)
(10.5918 -2.16372 0)
(10.5323 -2.15877 0)
(10.4896 -2.15377 0)
(10.416 -2.15045 0)
(10.3708 -2.14243 0)
(10.2694 -2.12881 0)
(10.2118 -2.10765 0)
(10.0864 -2.07067 0)
(10.0002 -2.02348 0)
(9.86931 -1.9666 0)
(9.77175 -1.91235 0)
(9.6536 -1.85847 0)
(9.55029 -1.79016 0)
(9.43134 -1.72223 0)
(9.3294 -1.64831 0)
(9.21782 -1.57923 0)
(9.1152 -1.51471 0)
(9.02737 -1.44193 0)
(8.92199 -1.38607 0)
(8.86611 -1.31683 0)
(8.75378 -1.26598 0)
(8.72219 -1.20091 0)
(8.6165 -1.14082 0)
(8.58759 -1.05228 0)
(8.49399 -0.973514 0)
(8.46273 -0.858094 0)
(8.369 -0.750978 0)
(8.33446 -0.628786 0)
(8.24751 -0.523291 0)
(8.21244 -0.397819 0)
(8.11804 -0.301411 0)
(8.08906 -0.179042 0)
(8.00318 -0.0764448 0)
(7.95673 0.0636046 0)
(7.86381 0.172047 0)
(7.79263 0.305214 0)
(7.70387 0.404009 0)
(7.62155 0.525234 0)
(7.54268 0.603867 0)
(7.46748 0.692432 0)
(7.43455 0.729239 0)
(7.38337 0.772287 0)
(7.38269 0.769347 0)
(7.35705 0.786428 0)
(7.3782 0.752835 0)
(7.34161 0.767835 0)
(7.3788 0.766265 0)
(7.32382 0.783965 0)
(7.36653 0.785528 0)
(7.29323 0.805918 0)
(7.33617 0.806631 0)
(7.24066 0.825741 0)
(7.29278 0.824041 0)
(7.17476 0.834449 0)
(7.23187 0.80961 0)
(7.10178 0.794363 0)
(7.16969 0.746313 0)
(7.03345 0.737286 0)
(7.11864 0.690543 0)
(6.99167 0.691379 0)
(7.08066 0.659734 0)
(6.93971 0.672376 0)
(7.04478 0.648468 0)
(6.88488 0.66492 0)
(7.03092 0.629476 0)
(6.86157 0.646376 0)
(7.03089 0.601502 0)
(6.85031 0.626668 0)
(7.05353 0.570542 0)
(6.85221 0.594755 0)
(7.07977 0.544228 0)
(6.86408 0.564918 0)
(7.10073 0.51362 0)
(6.8851 0.544401 0)
(7.12181 0.492129 0)
(6.90077 0.538517 0)
(7.15598 0.49263 0)
(6.88646 0.540764 0)
(7.18341 0.50381 0)
(6.85431 0.54253 0)
(7.19589 0.521005 0)
(6.82001 0.539476 0)
(7.19002 0.525362 0)
(6.79372 0.529164 0)
(7.16695 0.513553 0)
(6.76393 0.511401 0)
(7.12803 0.477334 0)
(6.72359 0.47814 0)
(7.09002 0.431327 0)
(6.68307 0.442511 0)
(7.06217 0.380235 0)
(6.64151 0.39458 0)
(7.02614 0.321146 0)
(6.59164 0.339475 0)
(6.98493 0.262631 0)
(6.53514 0.301288 0)
(6.94908 0.209528 0)
(6.47448 0.272296 0)
(6.92969 0.158085 0)
(6.42419 0.248157 0)
(6.93365 0.112625 0)
(6.40438 0.22253 0)
(6.95175 0.0792194 0)
(6.41687 0.229102 0)
(6.94432 0.0854201 0)
(6.42262 0.259806 0)
(6.93581 0.109268 0)
(6.43846 0.29553 0)
(6.93267 0.130682 0)
(6.43968 0.355458 0)
(6.91145 0.169542 0)
(6.43481 0.432635 0)
(6.89116 0.212253 0)
(6.43675 0.515724 0)
(6.87684 0.26958 0)
(6.44695 0.619968 0)
(6.86228 0.36279 0)
(6.46656 0.752333 0)
(6.85569 0.487806 0)
(6.50389 0.911926 0)
(6.85547 0.645036 0)
(6.54483 1.08642 0)
(6.86525 0.835544 0)
(6.56888 1.27151 0)
(6.88553 1.06592 0)
(6.56984 1.47 0)
(6.91839 1.34094 0)
(6.53561 1.69602 0)
(6.97749 1.67016 0)
(6.46161 1.97831 0)
(7.03581 2.03358 0)
(6.38399 2.36834 0)
(7.00827 2.40438 0)
(6.38123 2.92231 0)
(6.80851 2.80378 0)
(6.45013 3.675 0)
(6.53339 3.45169 0)
(6.35292 4.57874 0)
(6.82497 4.66895 0)
(5.63183 6.03755 0)
(8.63953 5.85689 0)
(6.49355 10.6396 0)
(8.04184 -0.134951 0)
(8.05333 -0.158364 0)
(8.09679 -0.18785 0)
(8.17765 -0.211498 0)
(8.27411 -0.224216 0)
(8.3606 -0.229025 0)
(8.42643 -0.235908 0)
(8.47417 -0.249138 0)
(8.50874 -0.272627 0)
(8.54383 -0.30599 0)
(8.58186 -0.34743 0)
(8.63039 -0.392441 0)
(8.68436 -0.438601 0)
(8.74781 -0.483544 0)
(8.8152 -0.526687 0)
(8.89037 -0.567835 0)
(8.96856 -0.607674 0)
(9.05087 -0.646914 0)
(9.13309 -0.687754 0)
(9.22089 -0.730802 0)
(9.30541 -0.777307 0)
(9.39963 -0.827546 0)
(9.48493 -0.877789 0)
(9.58206 -0.929085 0)
(9.66798 -0.978093 0)
(9.76929 -1.02773 0)
(9.85751 -1.07407 0)
(9.96364 -1.12199 0)
(10.0525 -1.16674 0)
(10.1555 -1.21511 0)
(10.2416 -1.26168 0)
(10.3348 -1.31417 0)
(10.4163 -1.36529 0)
(10.4931 -1.42202 0)
(10.5678 -1.47562 0)
(10.6245 -1.53187 0)
(10.6916 -1.58315 0)
(10.7304 -1.63434 0)
(10.789 -1.68146 0)
(10.8144 -1.72667 0)
(10.8655 -1.77084 0)
(10.8883 -1.81174 0)
(10.9328 -1.85456 0)
(10.9585 -1.89292 0)
(10.9939 -1.93447 0)
(11.0205 -1.97095 0)
(11.0412 -2.00975 0)
(11.0604 -2.04227 0)
(11.0607 -2.07516 0)
(11.0644 -2.10028 0)
(11.0424 -2.12285 0)
(11.025 -2.13774 0)
(10.9829 -2.14815 0)
(10.9428 -2.151 0)
(10.8855 -2.15145 0)
(10.8293 -2.14482 0)
(10.7647 -2.14164 0)
(10.7049 -2.13227 0)
(10.6375 -2.1295 0)
(10.5795 -2.11842 0)
(10.4973 -2.10927 0)
(10.4327 -2.09253 0)
(10.3215 -2.07082 0)
(10.2343 -2.04502 0)
(10.0943 -2.0059 0)
(9.97713 -1.96459 0)
(9.82741 -1.91294 0)
(9.70522 -1.86496 0)
(9.57563 -1.81341 0)
(9.45268 -1.7615 0)
(9.32947 -1.69923 0)
(9.20957 -1.63348 0)
(9.10084 -1.55884 0)
(8.98176 -1.49698 0)
(8.88891 -1.42956 0)
(8.76604 -1.36802 0)
(8.67932 -1.30822 0)
(8.56481 -1.24381 0)
(8.48191 -1.19834 0)
(8.39276 -1.13661 0)
(8.31349 -1.08111 0)
(8.23717 -0.997502 0)
(8.17226 -0.921221 0)
(8.09174 -0.79806 0)
(8.03643 -0.703457 0)
(7.96481 -0.574465 0)
(7.91366 -0.473269 0)
(7.84045 -0.343686 0)
(7.80417 -0.255488 0)
(7.7292 -0.126472 0)
(7.69701 -0.015859 0)
(7.60314 0.135402 0)
(7.55964 0.237676 0)
(7.45431 0.380077 0)
(7.40793 0.472238 0)
(7.29651 0.594522 0)
(7.24298 0.655961 0)
(7.15981 0.735367 0)
(7.15152 0.753253 0)
(7.09798 0.791933 0)
(7.12013 0.768927 0)
(7.10122 0.783666 0)
(7.11933 0.738187 0)
(7.1129 0.767552 0)
(7.12653 0.758526 0)
(7.12379 0.794298 0)
(7.12047 0.78478 0)
(7.12724 0.825902 0)
(7.10139 0.809641 0)
(7.10707 0.857083 0)
(7.06482 0.833308 0)
(7.06641 0.874059 0)
(7.01603 0.822438 0)
(7.02862 0.834922 0)
(6.9661 0.76942 0)
(6.97536 0.78103 0)
(6.89899 0.706539 0)
(6.91382 0.734291 0)
(6.82224 0.673327 0)
(6.86653 0.713394 0)
(6.76567 0.653982 0)
(6.83534 0.688291 0)
(6.74332 0.618538 0)
(6.82419 0.661165 0)
(6.73528 0.584482 0)
(6.83131 0.640182 0)
(6.73942 0.55028 0)
(6.85543 0.611554 0)
(6.76257 0.515756 0)
(6.89733 0.587663 0)
(6.79506 0.480022 0)
(6.93234 0.569655 0)
(6.83632 0.454826 0)
(6.96093 0.567704 0)
(6.88873 0.46907 0)
(6.97092 0.585483 0)
(6.91436 0.493835 0)
(6.97102 0.588052 0)
(6.91008 0.503095 0)
(6.98061 0.58324 0)
(6.88498 0.495661 0)
(6.99543 0.578904 0)
(6.84909 0.481444 0)
(6.98976 0.568966 0)
(6.7962 0.448418 0)
(6.96902 0.53889 0)
(6.73912 0.403484 0)
(6.94501 0.506113 0)
(6.69604 0.356629 0)
(6.92693 0.464093 0)
(6.65146 0.291521 0)
(6.90238 0.414422 0)
(6.57911 0.223616 0)
(6.88224 0.384729 0)
(6.51312 0.162638 0)
(6.85754 0.358537 0)
(6.48708 0.102917 0)
(6.82051 0.317945 0)
(6.49405 0.046141 0)
(6.8083 0.291392 0)
(6.48101 0.0175454 0)
(6.80959 0.306684 0)
(6.45478 0.0308975 0)
(6.82304 0.336847 0)
(6.44271 0.0333242 0)
(6.85073 0.375572 0)
(6.43548 0.0673716 0)
(6.83199 0.438423 0)
(6.4559 0.119293 0)
(6.79274 0.504952 0)
(6.50135 0.179467 0)
(6.74201 0.568819 0)
(6.57938 0.249277 0)
(6.67855 0.651814 0)
(6.68374 0.351013 0)
(6.61372 0.767838 0)
(6.8123 0.483721 0)
(6.54885 0.906553 0)
(6.96125 0.6515 0)
(6.48826 1.06462 0)
(7.10424 0.852048 0)
(6.43677 1.25205 0)
(7.2027 1.0743 0)
(6.40319 1.48721 0)
(7.24474 1.31179 0)
(6.40143 1.78085 0)
(7.21757 1.56139 0)
(6.47266 2.15154 0)
(7.0875 1.83733 0)
(6.64807 2.59502 0)
(6.89008 2.19125 0)
(6.83979 3.0921 0)
(6.84059 2.7176 0)
(6.81746 3.63429 0)
(7.31395 3.47367 0)
(6.39492 4.57762 0)
(8.54844 4.1055 0)
(6.07544 6.76501 0)
(9.83146 3.86206 0)
(8.21395 9.69814 0)
(10.1441 -0.164155 0)
(10.1703 -0.283919 0)
(10.232 -0.337496 0)
(10.3065 -0.337435 0)
(10.3796 -0.316131 0)
(10.4332 -0.293902 0)
(10.467 -0.283045 0)
(10.485 -0.2854 0)
(10.4977 -0.302748 0)
(10.5119 -0.331983 0)
(10.531 -0.372054 0)
(10.5556 -0.417594 0)
(10.5831 -0.467011 0)
(10.6136 -0.515283 0)
(10.6447 -0.563069 0)
(10.6773 -0.607012 0)
(10.7095 -0.650262 0)
(10.7422 -0.690579 0)
(10.7759 -0.732859 0)
(10.8119 -0.7749 0)
(10.8504 -0.821045 0)
(10.8908 -0.868151 0)
(10.9334 -0.919059 0)
(10.976 -0.968662 0)
(11.0195 -1.02064 0)
(11.0639 -1.0693 0)
(11.1047 -1.119 0)
(11.1502 -1.16486 0)
(11.1853 -1.21187 0)
(11.2295 -1.25665 0)
(11.2534 -1.30288 0)
(11.2928 -1.34918 0)
(11.3032 -1.39642 0)
(11.3351 -1.44635 0)
(11.3338 -1.49469 0)
(11.3562 -1.54639 0)
(11.3486 -1.59296 0)
(11.3624 -1.64433 0)
(11.3568 -1.68781 0)
(11.3631 -1.73603 0)
(11.3643 -1.77605 0)
(11.3636 -1.82205 0)
(11.37 -1.86073 0)
(11.3599 -1.90386 0)
(11.3641 -1.94062 0)
(11.3409 -1.97891 0)
(11.3342 -2.01069 0)
(11.2955 -2.04036 0)
(11.2722 -2.06367 0)
(11.2194 -2.08203 0)
(11.177 -2.09424 0)
(11.1116 -2.10081 0)
(11.0513 -2.10101 0)
(10.9761 -2.09827 0)
(10.9068 -2.09177 0)
(10.8289 -2.08666 0)
(10.7603 -2.07944 0)
(10.6784 -2.07159 0)
(10.6083 -2.06073 0)
(10.5095 -2.04284 0)
(10.4261 -2.02388 0)
(10.3047 -1.99371 0)
(10.1978 -1.96499 0)
(10.0578 -1.92182 0)
(9.91798 -1.87981 0)
(9.77351 -1.83317 0)
(9.61934 -1.79513 0)
(9.49186 -1.75646 0)
(9.33614 -1.7075 0)
(9.2204 -1.65699 0)
(9.06287 -1.5981 0)
(8.94772 -1.53401 0)
(8.79972 -1.46237 0)
(8.69963 -1.40277 0)
(8.55068 -1.33162 0)
(8.44242 -1.27619 0)
(8.29969 -1.20845 0)
(8.20165 -1.16302 0)
(8.08499 -1.11481 0)
(8.01462 -1.06704 0)
(7.90583 -1.00292 0)
(7.8565 -0.936288 0)
(7.7449 -0.842974 0)
(7.70464 -0.738386 0)
(7.60788 -0.640729 0)
(7.57842 -0.518593 0)
(7.49027 -0.41421 0)
(7.46634 -0.309319 0)
(7.39304 -0.207191 0)
(7.36702 -0.0808819 0)
(7.27409 0.0425378 0)
(7.25096 0.191057 0)
(7.13763 0.302405 0)
(7.11329 0.447731 0)
(6.99978 0.539245 0)
(6.97327 0.662628 0)
(6.86533 0.705043 0)
(6.86415 0.774947 0)
(6.79935 0.76767 0)
(6.81676 0.807952 0)
(6.79486 0.763114 0)
(6.8204 0.790783 0)
(6.80767 0.71985 0)
(6.84529 0.77397 0)
(6.84063 0.731887 0)
(6.87964 0.796354 0)
(6.86311 0.760455 0)
(6.90328 0.835086 0)
(6.87657 0.797294 0)
(6.90443 0.876604 0)
(6.86466 0.83164 0)
(6.87954 0.892448 0)
(6.83732 0.816187 0)
(6.85622 0.85661 0)
(6.80067 0.777596 0)
(6.8182 0.817347 0)
(6.73684 0.730434 0)
(6.74322 0.779258 0)
(6.65445 0.691664 0)
(6.6882 0.748356 0)
(6.59972 0.655921 0)
(6.6585 0.711018 0)
(6.57976 0.610265 0)
(6.6448 0.675904 0)
(6.59417 0.566676 0)
(6.64569 0.64167 0)
(6.61527 0.516357 0)
(6.672 0.610237 0)
(6.66203 0.466641 0)
(6.72185 0.58795 0)
(6.72838 0.432348 0)
(6.76835 0.571345 0)
(6.79392 0.410343 0)
(6.81712 0.56769 0)
(6.85574 0.429919 0)
(6.86982 0.5918 0)
(6.88732 0.466589 0)
(6.90913 0.602717 0)
(6.89589 0.476882 0)
(6.93868 0.60369 0)
(6.89821 0.472811 0)
(6.95502 0.60461 0)
(6.8982 0.462627 0)
(6.94883 0.597931 0)
(6.89267 0.444227 0)
(6.92676 0.570289 0)
(6.88082 0.407244 0)
(6.8927 0.52885 0)
(6.8697 0.363655 0)
(6.8607 0.484921 0)
(6.85767 0.306245 0)
(6.82609 0.445485 0)
(6.83644 0.242767 0)
(6.7698 0.411491 0)
(6.8364 0.181675 0)
(6.70179 0.377216 0)
(6.86052 0.117528 0)
(6.64331 0.330028 0)
(6.88461 0.0500621 0)
(6.58373 0.302639 0)
(6.88436 0.0195026 0)
(6.52009 0.310222 0)
(6.90869 0.0100784 0)
(6.45817 0.331163 0)
(6.97951 0.0227946 0)
(6.35957 0.385481 0)
(7.06485 0.056129 0)
(6.25919 0.449041 0)
(7.15858 0.079999 0)
(6.1829 0.518485 0)
(7.23207 0.117863 0)
(6.12609 0.585389 0)
(7.29544 0.179383 0)
(6.08813 0.669029 0)
(7.34661 0.273813 0)
(6.0815 0.780675 0)
(7.39117 0.396862 0)
(6.11304 0.929701 0)
(7.42541 0.540814 0)
(6.20234 1.12129 0)
(7.43225 0.705185 0)
(6.36271 1.36101 0)
(7.39225 0.89289 0)
(6.57367 1.64142 0)
(7.30208 1.1227 0)
(6.80509 1.95713 0)
(7.20292 1.40814 0)
(6.99545 2.30115 0)
(7.18253 1.76483 0)
(7.03376 2.68182 0)
(7.36849 2.17946 0)
(6.81884 3.17594 0)
(7.9047 2.60336 0)
(6.39027 3.95038 0)
(8.83525 2.82199 0)
(6.18535 5.30783 0)
(9.90437 2.68103 0)
(6.98686 7.17868 0)
(10.2321 2.9312 0)
(8.89912 8.37387 0)
(11.5714 -0.150445 0)
(11.6115 -0.287942 0)
(11.7309 -0.348928 0)
(11.8256 -0.350559 0)
(11.8918 -0.326213 0)
(11.9203 -0.299331 0)
(11.9321 -0.285127 0)
(11.9266 -0.287501 0)
(11.9242 -0.306462 0)
(11.9164 -0.338138 0)
(11.9176 -0.379912 0)
(11.9144 -0.426646 0)
(11.9186 -0.476317 0)
(11.9173 -0.52488 0)
(11.9217 -0.572559 0)
(11.9209 -0.617113 0)
(11.9245 -0.660311 0)
(11.9246 -0.701649 0)
(11.9293 -0.743533 0)
(11.9316 -0.786435 0)
(11.9381 -0.831832 0)
(11.94 -0.879652 0)
(11.9459 -0.930061 0)
(11.9428 -0.981001 0)
(11.9451 -1.03315 0)
(11.9346 -1.08304 0)
(11.9329 -1.13306 0)
(11.916 -1.17876 0)
(11.9119 -1.22571 0)
(11.892 -1.26745 0)
(11.8846 -1.3123 0)
(11.8635 -1.35223 0)
(11.8504 -1.39835 0)
(11.8308 -1.43941 0)
(11.8092 -1.48769 0)
(11.7927 -1.53079 0)
(11.7619 -1.58094 0)
(11.7493 -1.62581 0)
(11.7103 -1.67567 0)
(11.7001 -1.72069 0)
(11.6549 -1.76843 0)
(11.6429 -1.81237 0)
(11.5927 -1.85574 0)
(11.5733 -1.89591 0)
(11.5186 -1.93273 0)
(11.4869 -1.96542 0)
(11.4274 -1.99295 0)
(11.3803 -2.01501 0)
(11.314 -2.03123 0)
(11.2496 -2.04039 0)
(11.1732 -2.04501 0)
(11.094 -2.0423 0)
(11.0098 -2.03991 0)
(10.9259 -2.03318 0)
(10.8396 -2.03011 0)
(10.756 -2.02258 0)
(10.6619 -2.01487 0)
(10.5695 -2.00022 0)
(10.4577 -1.98212 0)
(10.3485 -1.95912 0)
(10.2225 -1.93221 0)
(10.0917 -1.89753 0)
(9.95626 -1.85745 0)
(9.80035 -1.80765 0)
(9.66573 -1.76366 0)
(9.50389 -1.71739 0)
(9.37955 -1.68268 0)
(9.20759 -1.63585 0)
(9.06945 -1.59307 0)
(8.89596 -1.53051 0)
(8.74915 -1.47493 0)
(8.57605 -1.40373 0)
(8.4379 -1.34518 0)
(8.27813 -1.27347 0)
(8.13397 -1.21167 0)
(7.97765 -1.15078 0)
(7.84309 -1.10332 0)
(7.7226 -1.06624 0)
(7.62423 -1.03472 0)
(7.52765 -0.985185 0)
(7.43851 -0.934296 0)
(7.35924 -0.859952 0)
(7.26661 -0.774576 0)
(7.21949 -0.679961 0)
(7.14166 -0.588137 0)
(7.09629 -0.470413 0)
(7.04373 -0.376797 0)
(6.9951 -0.266498 0)
(6.9443 -0.169873 0)
(6.90501 -0.0227309 0)
(6.83304 0.0877949 0)
(6.78544 0.249742 0)
(6.71854 0.341714 0)
(6.65855 0.508163 0)
(6.60701 0.568965 0)
(6.5385 0.723069 0)
(6.51358 0.714812 0)
(6.46819 0.824313 0)
(6.46332 0.756917 0)
(6.43478 0.832964 0)
(6.47462 0.738207 0)
(6.44196 0.807221 0)
(6.5173 0.685354 0)
(6.47896 0.784019 0)
(6.56838 0.696765 0)
(6.52017 0.802117 0)
(6.61773 0.726762 0)
(6.56414 0.847129 0)
(6.65231 0.771616 0)
(6.58585 0.901512 0)
(6.66123 0.818526 0)
(6.57913 0.923363 0)
(6.65366 0.802282 0)
(6.55749 0.896606 0)
(6.62953 0.77042 0)
(6.52186 0.874819 0)
(6.5718 0.742774 0)
(6.45186 0.85099 0)
(6.50005 0.697071 0)
(6.38124 0.809705 0)
(6.45237 0.637289 0)
(6.34516 0.760583 0)
(6.44142 0.582959 0)
(6.3333 0.718143 0)
(6.46209 0.538763 0)
(6.34263 0.679328 0)
(6.49149 0.474295 0)
(6.38241 0.63793 0)
(6.5375 0.410422 0)
(6.44657 0.611472 0)
(6.61791 0.376714 0)
(6.51057 0.588867 0)
(6.69416 0.354245 0)
(6.5781 0.588685 0)
(6.76303 0.369633 0)
(6.65571 0.624291 0)
(6.8253 0.412017 0)
(6.71333 0.649902 0)
(6.87802 0.42406 0)
(6.7473 0.659068 0)
(6.92424 0.422239 0)
(6.75669 0.662738 0)
(6.95212 0.412985 0)
(6.76211 0.652755 0)
(6.97084 0.399195 0)
(6.74942 0.631486 0)
(6.98381 0.369156 0)
(6.7231 0.594108 0)
(6.97666 0.318981 0)
(6.70478 0.553398 0)
(6.96735 0.261248 0)
(6.66515 0.525307 0)
(6.98274 0.198823 0)
(6.60595 0.489071 0)
(6.99474 0.12054 0)
(6.57708 0.450167 0)
(6.98324 0.0430405 0)
(6.57081 0.425827 0)
(6.94796 -0.0146961 0)
(6.53561 0.424142 0)
(6.91928 -0.042194 0)
(6.48835 0.430565 0)
(6.9353 -0.0643943 0)
(6.42379 0.451416 0)
(6.96943 -0.0570634 0)
(6.36137 0.5165 0)
(6.99467 -0.0475017 0)
(6.35105 0.589972 0)
(6.99854 -0.0311164 0)
(6.36862 0.673943 0)
(6.99089 0.000186907 0)