/*--------------------------------*- C++ -*----------------------------------*\
| =========                 |                                                 |
| \\      /  F ield         | OpenFOAM: The Open Source CFD Toolbox           |
|  \\    /   O peration     | Version:  2.4.0                                 |
|   \\  /    A nd           | Web:      www.OpenFOAM.org                      |
|    \\/     M anipulation  |                                                 |
\*---------------------------------------------------------------------------*/
FoamFile
{
    version     2.0;
    format      ascii;
    class       volVectorField;
    location    "1.98";
    object      U;
}
// * * * * * * * * * * * * * * * * * * * * * * * * * * * * * * * * * * * * * //

dimensions      [0 1 -1 0 0 0 0];

internalField   nonuniform List<vector> 
4400
(
(8.09207 0.0447711 0)
(11.4423 -0.0387986 0)
(8.27416 -0.0170041 0)
(11.2321 0.0580432 0)
(8.77761 -0.00285706 0)
(10.3353 -0.0222637 0)
(9.66617 0.150912 0)
(8.9511 -0.1297 0)
(9.72074 0.128375 0)
(9.2104 -0.000911775 0)
(7.91648 -0.0829706 0)
(11.0181 0.131994 0)
(4.74041 -0.117017 0)
(12.7111 0.115717 0)
(2.82791 -0.00381489 0)
(13.2383 -0.107146 0)
(3.85831 0.136617 0)
(12.4112 -0.185351 0)
(4.60912 0.0939684 0)
(11.115 0.116735 0)
(8.25659 0.0447442 0)
(11.4864 -0.00191784 0)
(8.38248 0.0382457 0)
(11.0777 -0.125288 0)
(9.77426 0.162087 0)
(10.1512 -0.139002 0)
(9.91048 0.123466 0)
(11.3205 0.118557 0)
(8.32616 -0.179684 0)
(12.0461 0.310342 0)
(8.26589 -0.204402 0)
(11.8223 0.3593 0)
(6.84004 -0.104179 0)
(13.6275 0.0919982 0)
(5.63831 0.063042 0)
(13.2783 -0.240726 0)
(7.69142 0.122492 0)
(12.0871 0.0125101 0)
(8.09157 0.100854 0)
(10.3576 -0.184034 0)
(8.77664 0.109125 0)
(10.8453 -0.0591127 0)
(9.1899 0.0455041 0)
(10.0768 -0.189662 0)
(10.347 0.164048 0)
(9.57014 -0.0509708 0)
(9.12504 -0.0548445 0)
(12.2746 0.18807 0)
(7.13933 -0.0417875 0)
(12.6672 0.024394 0)
(8.90336 0.0594216 0)
(10.579 0.35733 0)
(9.51067 -0.289735 0)
(12.2093 0.208965 0)
(7.60662 0.268676 0)
(12.1211 -0.663327 0)
(8.72835 0.422334 0)
(10.7192 -0.252378 0)
(10.264 0.332864 0)
(8.48074 -0.12738 0)
(9.33111 0.123377 0)
(10.2743 -0.0958458 0)
(9.55133 0.164162 0)
(9.81332 -0.3242 0)
(10.4908 0.214889 0)
(9.87554 0.137792 0)
(8.37495 -0.431218 0)
(12.2397 0.477922 0)
(7.12598 -0.246044 0)
(12.258 -0.105499 0)
(9.72166 0.321147 0)
(10.021 0.108731 0)
(10.4606 -0.308455 0)
(11.1247 0.301955 0)
(8.24932 0.21321 0)
(12.0342 -0.624879 0)
(8.70397 0.532379 0)
(10.2882 -0.383967 0)
(11.3126 0.510809 0)
(7.51175 -0.204625 0)
(9.88132 0.18212 0)
(9.8692 -0.0893691 0)
(9.6007 0.116538 0)
(10.0443 -0.350236 0)
(10.3552 0.138069 0)
(10.0926 0.371643 0)
(8.70494 -0.557363 0)
(11.7578 0.441201 0)
(8.37999 -0.0606743 0)
(11.0909 -0.503854 0)
(10.4085 0.541342 0)
(10.1112 0.0562533 0)
(10.4131 -0.363187 0)
(10.8002 0.456618 0)
(9.00888 0.244872 0)
(11.5877 -0.829939 0)
(8.72727 0.785267 0)
(10.5987 -0.720775 0)
(11.0666 0.677238 0)
(8.17019 -0.215012 0)
(10.1518 0.175531 0)
(9.76705 -0.0441902 0)
(9.5723 0.10197 0)
(10.2673 -0.422913 0)
(10.11 0.170349 0)
(10.1256 0.507465 0)
(9.68412 -0.762251 0)
(11.054 0.533252 0)
(9.629 -0.0702733 0)
(10.0581 -0.596681 0)
(10.7938 0.6328 0)
(10.2239 -0.00630705 0)
(10.0647 -0.327689 0)
(10.8477 0.482486 0)
(9.8057 0.205084 0)
(11.1137 -0.723537 0)
(8.81537 0.851392 0)
(11.1867 -0.827728 0)
(10.3215 0.878485 0)
(9.34663 -0.241413 0)
(10.2344 0.191126 0)
(9.78173 0.0416228 0)
(9.59443 -0.00817392 0)
(10.3247 -0.445178 0)
(9.90478 0.161242 0)
(10.1459 0.485861 0)
(10.2767 -0.736297 0)
(10.3547 0.486742 0)
(10.1665 0.11705 0)
(9.5751 -0.752975 0)
(10.6588 0.588182 0)
(10.7227 0.086563 0)
(9.35806 -0.351446 0)
(11.1731 0.374967 0)
(10.1273 0.318098 0)
(10.8967 -0.698158 0)
(8.92212 0.799244 0)
(11.782 -0.887469 0)
(9.85367 0.920997 0)
(10.275 -0.272477 0)
(10.1227 0.173545 0)
(9.94197 0.0916644 0)
(9.8833 -0.0444573 0)
(10.1555 -0.441792 0)
(9.74351 0.176026 0)
(10.2369 0.457547 0)
(10.3784 -0.772668 0)
(9.87516 0.518805 0)
(10.3122 0.114539 0)
(9.8118 -0.737461 0)
(10.0279 0.514735 0)
(11.1186 0.138821 0)
(8.93165 -0.311331 0)
(11.3674 0.215448 0)
(9.94825 0.380086 0)
(11.0678 -0.617478 0)
(9.11642 0.709554 0)
(12.0113 -0.922556 0)
(9.5696 0.967971 0)
(10.8526 -0.268259 0)
(9.87867 0.169372 0)
(10.1591 0.111788 0)
(10.1204 -0.068592 0)
(10.0273 -0.403501 0)
(9.67415 0.141609 0)
(10.4116 0.378026 0)
(10.1172 -0.698895 0)
(9.83675 0.520259 0)
(10.0885 0.115976 0)
(10.3454 -0.685589 0)
(9.17201 0.408857 0)
(11.508 0.194338 0)
(8.62662 -0.28444 0)
(11.4773 0.0614659 0)
(9.43066 0.455697 0)
(11.2861 -0.574006 0)
(9.07082 0.55257 0)
(12.0143 -0.846815 0)
(8.95539 0.967314 0)
(11.4605 -0.233685 0)
(9.71064 0.163339 0)
(10.3008 0.0633334 0)
(10.2038 -0.0464739 0)
(9.99555 -0.324284 0)
(9.58181 0.08032 0)
(10.5432 0.376309 0)
(9.77746 -0.66534 0)
(10.0034 0.510234 0)
(9.90273 0.0346802 0)
(10.7125 -0.573706 0)
(8.62743 0.334944 0)
(11.6393 0.163875 0)
(8.51186 -0.219161 0)
(11.4325 -0.0223702 0)
(9.04389 0.489863 0)
(11.3829 -0.564076 0)
(8.94672 0.476564 0)
(11.7462 -0.742547 0)
(8.37572 0.877974 0)
(11.8093 -0.145772 0)
(9.71586 0.153415 0)
(10.2588 0.0396031 0)
(10.2275 -0.0325834 0)
(9.9669 -0.271458 0)
(9.5378 0.0236716 0)
(10.5984 0.353314 0)
(9.60588 -0.621118 0)
(10.2176 0.498939 0)
(9.79961 -0.0373364 0)
(10.8583 -0.449683 0)
(8.51601 0.261314 0)
(11.4434 0.144594 0)
(8.82656 -0.167517 0)
(11.0774 -0.10176 0)
(9.119 0.500418 0)
(11.173 -0.520896 0)
(8.97662 0.392119 0)
(11.2139 -0.599923 0)
(8.35091 0.775234 0)
(11.6948 -0.0653591 0)
(9.79809 0.153512 0)
(10.1437 -0.00626542 0)
(10.2664 -0.0198765 0)
(9.91426 -0.180785 0)
(9.55826 -0.0533321 0)
(10.5605 0.37002 0)
(9.5963 -0.596834 0)
(10.224 0.457018 0)
(10.1192 -0.0902511 0)
(10.5885 -0.335232 0)
(9.10862 0.225732 0)
(10.9432 0.0649601 0)
(9.4838 -0.110337 0)
(10.5176 -0.106986 0)
(9.473 0.459782 0)
(10.8233 -0.48536 0)
(9.14487 0.374332 0)
(10.924 -0.507459 0)
(8.48268 0.609432 0)
(11.6352 0.0884528 0)
(9.97168 0.1472 0)
(9.96394 -0.0179723 0)
(10.3243 -0.0145989 0)
(9.81019 -0.126103 0)
(9.68128 -0.102539 0)
(10.2885 0.356533 0)
(10.0518 -0.552239 0)
(9.75047 0.394453 0)
(10.8654 -0.0953376 0)
(9.82846 -0.257951 0)
(10.0042 0.203657 0)
(10.2004 0.0557333 0)
(10.4114 -0.0714048 0)
(9.57409 -0.0944926 0)
(10.4748 0.410544 0)
(10.3416 -0.39883 0)
(9.39425 0.303719 0)
(10.977 -0.32857 0)
(8.73793 0.499947 0)
(11.1811 0.0905598 0)
(10.2088 0.14427 0)
(9.74686 -0.0358279 0)
(10.4457 -0.00709507 0)
(9.62879 -0.0652049 0)
(10.0119 -0.13561 0)
(9.80742 0.298127 0)
(10.6036 -0.461554 0)
(9.14514 0.292981 0)
(11.2245 -0.0896806 0)
(9.07702 -0.161021 0)
(10.8151 0.148983 0)
(9.25512 0.00256975 0)
(11.164 -0.00343835 0)
(8.88669 -0.0849568 0)
(11.0705 0.265653 0)
(9.8219 -0.215431 0)
(10.0593 0.186378 0)
(10.4888 -0.267987 0)
(9.63082 0.446474 0)
(10.5399 0.0586464 0)
(10.3578 0.134242 0)
(9.66751 -0.025059 0)
(10.64 -0.0138896 0)
(9.41547 -0.0515977 0)
(10.3506 -0.11507 0)
(9.54517 0.228933 0)
(10.6745 -0.397079 0)
(9.15787 0.233844 0)
(11.0763 -0.0817038 0)
(8.86034 -0.172861 0)
(11.0401 0.142455 0)
(8.98783 0.00790839 0)
(11.0417 -0.0449379 0)
(9.03773 -0.0193193 0)
(11.0868 0.162602 0)
(9.4692 -0.160836 0)
(10.7356 0.0999598 0)
(9.95573 -0.172027 0)
(10.3524 0.3507 0)
(10.2134 0.0349 0)
(10.2651 0.116609 0)
(9.81746 -0.04782 0)
(10.5918 0.0337934 0)
(9.71783 -0.0383025 0)
(10.2274 -0.125751 0)
(9.981 0.201192 0)
(10.3662 -0.358434 0)
(9.58347 0.166899 0)
(10.5149 -0.0165641 0)
(9.61031 -0.143442 0)
(10.1804 0.0962574 0)
(9.87849 0.0534504 0)
(10.4223 -0.0670301 0)
(9.57495 -0.0332248 0)
(10.7779 0.132286 0)
(9.68815 -0.102573 0)
(10.7468 0.0354125 0)
(9.89056 -0.11813 0)
(10.6292 0.311213 0)
(10.1665 0.000217814 0)
(9.67905 0.0943669 0)
(10.5191 -0.0502466 0)
(9.89081 -0.00481032 0)
(10.7191 -0.0114647 0)
(9.47547 -0.127638 0)
(10.8623 0.161555 0)
(9.66494 -0.275488 0)
(10.5132 0.165021 0)
(9.45639 -0.0661766 0)
(10.9635 -0.0901109 0)
(8.93531 0.0627634 0)
(10.9324 0.00621093 0)
(9.74159 -0.048224 0)
(10.1235 -0.0176702 0)
(10.3547 0.0789561 0)
(10.12 -0.10438 0)
(10.2926 0.0379264 0)
(10.3688 -0.0931789 0)
(10.2107 0.202974 0)
(10.5325 0.00890224 0)
(8.67335 0.0615109 0)
(11.5703 -0.04746 0)
(8.80013 -0.00512156 0)
(11.685 -0.00753004 0)
(8.52394 -0.101836 0)
(11.7735 0.116384 0)
(8.7495 -0.250523 0)
(11.3606 0.179034 0)
(8.80897 -0.0952542 0)
(11.5602 -0.0214186 0)
(8.41174 0.0528745 0)
(11.5614 -0.0366421 0)
(9.17992 0.00894718 0)
(10.6618 -0.0879033 0)
(9.94745 0.0897048 0)
(10.5521 -0.0740703 0)
(9.69281 -0.0296991 0)
(10.9976 -0.0581968 0)
(9.49343 0.220027 0)
(11.0766 -0.122694 0)
(8.09512 0.0144134 0)
(12.0905 -0.0297677 0)
(8.23015 -0.0297382 0)
(12.0919 -0.00815322 0)
(7.974 -0.0881146 0)
(12.0432 0.0650253 0)
(8.33623 -0.139441 0)
(11.3084 0.104478 0)
(9.10932 -0.0834186 0)
(10.9583 0.00833783 0)
(9.14199 0.0128317 0)
(11.1224 -0.0702957 0)
(9.29467 0.0589597 0)
(10.7456 -0.0935826 0)
(9.58635 0.0420801 0)
(10.7446 -0.01984 0)
(9.35271 -0.0507724 0)
(11.0175 -0.0475643 0)
(9.09077 0.147033 0)
(11.4895 -0.109034 0)
(8.94182 9.3657e-05 0)
(10.973 -0.0274058 0)
(8.87661 0.00645491 0)
(10.8858 -0.0197751 0)
(8.42702 -0.0165614 0)
(10.6824 -0.0134605 0)
(8.38706 -0.0370366 0)
(10.0694 -0.00962184 0)
(8.61289 -0.0197584 0)
(9.60299 -0.00146968 0)
(8.79008 -0.0457771 0)
(9.14028 0.0132736 0)
(8.90972 -0.0139083 0)
(8.95942 -0.0603967 0)
(8.48252 0.0471021 0)
(9.18651 -0.0296274 0)
(8.26574 -0.0616921 0)
(8.71817 0.0080896 0)
(8.06744 0.0665563 0)
(9.56941 -0.114914 0)
(6.40887 -0.193809 0)
(3.9314 1.90728 0)
(7.71258 1.23802 0)
(6.00267 0.342139 0)
(7.91134 -0.497333 0)
(9.06977 -0.737208 0)
(9.32153 -1.35426 0)
(7.00881 -1.78144 0)
(9.68187 -2.89797 0)
(10.6511 -4.90747 0)
(9.21034 -4.3709 0)
(8.46616 -3.78075 0)
(10.2612 -4.12154 0)
(10.9536 -3.48686 0)
(12.0973 -1.004 0)
(11.1373 1.35029 0)
(9.67572 2.25253 0)
(8.16871 1.77187 0)
(7.09813 0.783249 0)
(6.35258 0.0498741 0)
(5.85083 -0.198489 0)
(5.72313 -0.147274 0)
(5.71692 -0.0846669 0)
(5.63024 -0.084238 0)
(5.4945 -0.0998722 0)
(5.39805 -0.0954595 0)
(5.34472 -0.0639493 0)
(5.30014 -0.0120797 0)
(5.26333 0.0455654 0)
(5.26096 0.0888608 0)
(5.30175 0.0970621 0)
(5.35321 0.0682239 0)
(5.37443 0.0178679 0)
(5.35596 -0.034855 0)
(5.31602 -0.077148 0)
(5.27415 -0.10238 0)
(5.23877 -0.109712 0)
(5.21105 -0.102491 0)
(5.18999 -0.0862556 0)
(5.17451 -0.0666964 0)
(5.1636 -0.0481088 0)
(5.15627 -0.0327999 0)
(5.1516 -0.0213783 0)
(5.14876 -0.0134493 0)
(5.1471 -0.0082312 0)
(5.14618 -0.00493148 0)
(5.14568 -0.00290644 0)
(5.14542 -0.00169143 0)
(5.14529 -0.000974387 0)
(5.14522 -0.000556801 0)
(5.14519 -0.000316087 0)
(5.14518 -0.00017825 0)
(5.14517 -0.000100139 0)
(5.14517 -5.59257e-05 0)
(5.14516 -3.1052e-05 0)
(5.14516 -1.7266e-05 0)
(5.14516 -9.47344e-06 0)
(5.14516 -5.17498e-06 0)
(5.14516 -2.89656e-06 0)
(5.14516 -1.51867e-06 0)
(5.14516 -8.25136e-07 0)
(5.14516 -5.10319e-07 0)
(5.14516 -1.97219e-07 0)
(5.14516 -1.38871e-07 0)
(5.14516 -1.29162e-07 0)
(5.14516 8.06318e-09 0)
(5.14516 -2.68308e-08 0)
(5.14516 -6.77651e-08 0)
(5.14516 5.08637e-08 0)
(5.14516 4.53123e-09 0)
(5.14516 -7.02636e-08 0)
(5.14516 3.65594e-08 0)
(5.14516 3.4303e-08 0)
(5.14517 -5.4861e-08 0)
(5.14516 -1.56606e-08 0)
(5.14517 7.7735e-08 0)
(5.14516 -3.78663e-08 0)
(5.14517 -3.98171e-08 0)
(5.14515 5.93789e-08 0)
(5.14517 1.4385e-08 0)
(5.14516 -3.29856e-08 0)
(5.14517 -1.03924e-08 0)
(5.14516 5.13782e-08 0)
(5.14516 -5.32199e-09 0)
(5.14517 -1.16493e-08 0)
(5.14515 -1.54314e-08 0)
(5.14517 1.1167e-08 0)
(5.14516 7.20645e-08 0)
(5.14516 -9.85312e-08 0)
(5.14517 -5.08625e-09 0)
(5.14516 8.50635e-08 0)
(5.14517 -5.07954e-08 0)
(5.14516 1.57887e-08 0)
(5.14516 -3.27028e-08 0)
(5.14516 7.62027e-09 0)
(5.14516 8.85384e-08 0)
(5.14516 -5.90066e-08 0)
(5.14516 -5.88911e-08 0)
(5.14516 1.1128e-08 0)
(5.14516 7.07155e-09 0)
(10.2729 0.576826 0)
(5.40404 2.15676 0)
(10.975 1.26581 0)
(9.01684 0.494787 0)
(11.1818 -0.48004 0)
(10.8291 -0.600609 0)
(10.4941 -1.00265 0)
(8.97771 -1.45538 0)
(10.8021 -2.91811 0)
(10.8079 -4.7486 0)
(8.98085 -4.12934 0)
(8.78582 -3.97304 0)
(10.6577 -4.42875 0)
(11.2062 -3.6416 0)
(12.1583 -0.944372 0)
(11.4542 1.60021 0)
(9.63758 2.55459 0)
(8.3632 2.06598 0)
(7.63826 1.05802 0)
(6.74527 0.271986 0)
(5.90735 -0.0381578 0)
(5.55165 -0.0884186 0)
(5.52955 -0.0629355 0)
(5.53274 -0.0525824 0)
(5.46503 -0.0640378 0)
(5.38655 -0.0757996 0)
(5.33459 -0.0628523 0)
(5.29505 -0.016448 0)
(5.27361 0.0471783 0)
(5.29157 0.0940384 0)
(5.33581 0.100996 0)
(5.36527 0.0678695 0)
(5.35768 0.0133211 0)
(5.32458 -0.041937 0)
(5.28656 -0.0838108 0)
(5.25428 -0.107146 0)
(5.2291 -0.11236 0)
(5.20895 -0.103496 0)
(5.1922 -0.0862638 0)
(5.17831 -0.0662479 0)
(5.16732 -0.0475521 0)
(5.1592 -0.0323103 0)
(5.15363 -0.0210124 0)
(5.15006 -0.0132026 0)
(5.1479 -0.0080763 0)
(5.14665 -0.00483944 0)
(5.14595 -0.00285408 0)
(5.14557 -0.00166263 0)
(5.14538 -0.000959055 0)
(5.14527 -0.000548751 0)
(5.14522 -0.000311859 0)
(5.14519 -0.000176135 0)
(5.14518 -9.90267e-05 0)
(5.14517 -5.53608e-05 0)
(5.14517 -3.07814e-05 0)
(5.14516 -1.70782e-05 0)
(5.14516 -9.39918e-06 0)
(5.14516 -5.14149e-06 0)
(5.14516 -2.8069e-06 0)
(5.14516 -1.50928e-06 0)
(5.14516 -8.54942e-07 0)
(5.14516 -4.96151e-07 0)
(5.14516 -2.20471e-07 0)
(5.14516 -1.17898e-07 0)
(5.14516 -8.64099e-08 0)
(5.14516 -3.74025e-08 0)
(5.14516 -3.43271e-08 0)
(5.14516 -1.97623e-08 0)
(5.14516 2.25564e-08 0)
(5.14516 -6.63829e-09 0)
(5.14516 -5.44228e-08 0)
(5.14516 3.04445e-09 0)
(5.14516 2.39542e-08 0)
(5.14517 2.11372e-09 0)
(5.14516 -2.15915e-08 0)
(5.14517 1.12093e-08 0)
(5.14516 -3.23501e-08 0)
(5.14517 5.88828e-09 0)
(5.14515 5.16653e-08 0)
(5.14517 2.97375e-09 0)
(5.14516 1.96019e-08 0)
(5.14517 -5.22431e-08 0)
(5.14516 6.37573e-08 0)
(5.14516 -3.3179e-08 0)
(5.14517 2.73438e-08 0)
(5.14515 3.92735e-08 0)
(5.14517 -9.7056e-08 0)
(5.14516 1.22353e-07 0)
(5.14516 -1.61588e-07 0)
(5.14517 3.4462e-08 0)
(5.14516 1.2502e-07 0)
(5.14517 -1.68302e-07 0)
(5.14516 1.47467e-07 0)
(5.14516 -6.39655e-08 0)
(5.14516 -6.82793e-08 0)
(5.14516 1.91025e-07 0)
(5.14516 -9.75256e-08 0)
(5.14516 -6.84625e-08 0)
(5.14516 3.62422e-08 0)
(5.14516 -7.49837e-09 0)
(11.7263 0.663708 0)
(6.27945 2.2008 0)
(12.6654 0.811017 0)
(10.1072 0.303278 0)
(12.4944 -0.720176 0)
(11.2317 -0.616058 0)
(11.4862 -0.93403 0)
(9.66949 -1.47381 0)
(11.432 -3.26665 0)
(10.4674 -4.65944 0)
(8.717 -3.87014 0)
(9.22869 -4.18977 0)
(10.9101 -4.71958 0)
(11.4872 -3.78313 0)
(12.1229 -0.899405 0)
(11.5601 1.79715 0)
(9.8799 2.7182 0)
(8.41886 2.12979 0)
(7.24177 1.06758 0)
(6.32104 0.317977 0)
(5.67333 -0.00852794 0)
(5.42095 -0.091293 0)
(5.49451 -0.0864042 0)
(5.60802 -0.0782775 0)
(5.57194 -0.0788789 0)
(5.44298 -0.0744505 0)
(5.3484 -0.0466804 0)
(5.32009 0.00163521 0)
(5.3278 0.0484275 0)
(5.34874 0.077422 0)
(5.36774 0.0811267 0)
(5.3707 0.0612699 0)
(5.35516 0.0248784 0)
(5.32781 -0.0189641 0)
(5.2964 -0.0593803 0)
(5.26632 -0.0868328 0)
(5.23997 -0.0974361 0)
(5.21776 -0.0931081 0)
(5.19918 -0.0791538 0)
(5.18378 -0.0614283 0)
(5.17144 -0.0443539 0)
(5.16215 -0.0302627 0)
(5.15562 -0.0197577 0)
(5.15133 -0.0124677 0)
(5.14867 -0.00766334 0)
(5.14711 -0.00461554 0)
(5.14622 -0.00273615 0)
(5.14573 -0.00160186 0)
(5.14546 -0.000928246 0)
(5.14532 -0.000533184 0)
(5.14525 -0.000303944 0)
(5.14521 -0.000172167 0)
(5.14519 -9.69949e-05 0)
(5.14518 -5.43052e-05 0)
(5.14517 -3.02242e-05 0)
(5.14517 -1.6765e-05 0)
(5.14516 -9.25705e-06 0)
(5.14516 -5.04938e-06 0)
(5.14516 -2.69452e-06 0)
(5.14516 -1.4809e-06 0)
(5.14516 -8.97237e-07 0)
(5.14516 -5.11486e-07 0)
(5.14516 -2.20798e-07 0)
(5.14516 -7.20713e-08 0)
(5.14516 -5.69358e-08 0)
(5.14516 -9.04527e-08 0)
(5.14516 -5.15136e-08 0)
(5.14516 1.93082e-08 0)
(5.14516 1.4169e-08 0)
(5.14516 -3.36676e-08 0)
(5.14516 -7.84447e-08 0)
(5.14516 -2.04016e-08 0)
(5.14516 3.96054e-08 0)
(5.14517 5.84576e-08 0)
(5.14516 -4.39482e-08 0)
(5.14517 -5.58675e-08 0)
(5.14516 -4.26896e-08 0)
(5.14517 5.35168e-08 0)
(5.14515 7.90638e-08 0)
(5.14517 1.02372e-08 0)
(5.14516 5.37153e-08 0)
(5.14517 -1.13498e-07 0)
(5.14516 8.68065e-08 0)
(5.14516 -5.32373e-08 0)
(5.14517 8.32933e-08 0)
(5.14515 9.5412e-08 0)
(5.14517 -2.12212e-07 0)
(5.14516 1.64877e-07 0)
(5.14516 -2.5388e-07 0)
(5.14517 8.4747e-08 0)
(5.14516 1.88015e-07 0)
(5.14517 -2.82908e-07 0)
(5.14516 2.82053e-07 0)
(5.14516 -1.1618e-07 0)
(5.14516 -1.44009e-07 0)
(5.14516 3.09821e-07 0)
(5.14516 -1.34386e-07 0)
(5.14516 -8.5069e-08 0)
(5.14516 5.74335e-08 0)
(5.14516 -2.66534e-08 0)
(12.8055 0.727866 0)
(7.5014 2.17066 0)
(12.8316 0.517301 0)
(10.3886 0.314549 0)
(12.7094 -0.650771 0)
(11.4292 -0.469849 0)
(11.3927 -0.742584 0)
(9.81566 -1.47085 0)
(11.8308 -3.21249 0)
(10.1939 -4.34453 0)
(8.89652 -3.74741 0)
(9.7186 -4.47894 0)
(11.0621 -4.99646 0)
(11.3548 -3.83167 0)
(11.6814 -0.831264 0)
(11.5915 2.03639 0)
(10.14 3.04069 0)
(8.54341 2.45258 0)
(7.79996 1.39658 0)
(7.11167 0.597565 0)
(6.32452 0.151128 0)
(5.72878 -0.0367899 0)
(5.53479 -0.0861306 0)
(5.58295 -0.0601377 0)
(5.59032 -0.0293263 0)
(5.48202 -0.0343461 0)
(5.35644 -0.0433282 0)
(5.29683 -0.0161794 0)
(5.30806 0.0391919 0)
(5.3553 0.0876378 0)
(5.40125 0.100755 0)
(5.42179 0.0735018 0)
(5.41116 0.0204766 0)
(5.37877 -0.0368018 0)
(5.33738 -0.0813601 0)
(5.29611 -0.105959 0)
(5.26013 -0.111079 0)
(5.23099 -0.101586 0)
(5.20793 -0.0838006 0)
(5.18967 -0.0636048 0)
(5.17542 -0.0451309 0)
(5.1648 -0.0303653 0)
(5.15733 -0.0196065 0)
(5.15241 -0.0122687 0)
(5.14934 -0.00749566 0)
(5.14751 -0.00449665 0)
(5.14645 -0.00265961 0)
(5.14587 -0.00155548 0)
(5.14554 -0.00090124 0)
(5.14537 -0.000517904 0)
(5.14527 -0.000295453 0)
(5.14522 -0.000167488 0)
(5.1452 -9.44176e-05 0)
(5.14518 -5.29055e-05 0)
(5.14517 -2.94722e-05 0)
(5.14517 -1.63426e-05 0)
(5.14517 -9.0195e-06 0)
(5.14516 -4.93618e-06 0)
(5.14516 -2.64946e-06 0)
(5.14516 -1.45461e-06 0)
(5.14516 -8.56949e-07 0)
(5.14516 -4.76266e-07 0)
(5.14516 -2.25935e-07 0)
(5.14516 -9.21319e-08 0)
(5.14516 -5.64674e-08 0)
(5.14516 -7.17105e-08 0)
(5.14516 -4.09057e-08 0)
(5.14516 1.04049e-08 0)
(5.14516 4.37816e-09 0)
(5.14516 -2.08326e-08 0)
(5.14516 -5.54716e-08 0)
(5.14516 -1.1604e-08 0)
(5.14516 1.47258e-08 0)
(5.14517 4.75661e-08 0)
(5.14516 -3.80405e-08 0)
(5.14517 -2.90013e-08 0)
(5.14515 -3.42564e-08 0)
(5.14517 3.85661e-08 0)
(5.14515 5.90771e-08 0)
(5.14517 -1.70274e-08 0)
(5.14516 8.19278e-08 0)
(5.14517 -1.2479e-07 0)
(5.14516 1.23077e-07 0)
(5.14516 -9.29814e-08 0)
(5.14517 7.36044e-08 0)
(5.14515 1.09765e-07 0)
(5.14517 -2.58415e-07 0)
(5.14516 2.6838e-07 0)
(5.14516 -3.17292e-07 0)
(5.14517 1.07127e-07 0)
(5.14516 2.17396e-07 0)
(5.14517 -3.94463e-07 0)
(5.14516 3.90023e-07 0)
(5.14516 -1.43914e-07 0)
(5.14516 -1.90468e-07 0)
(5.14516 3.97808e-07 0)
(5.14516 -2.01929e-07 0)
(5.14516 -1.10422e-07 0)
(5.14516 1.04482e-07 0)
(5.14516 -1.9255e-08 0)
(12.7106 0.433622 0)
(9.17594 2.15429 0)
(12.4481 0.381914 0)
(10.3908 0.197905 0)
(12.584 -0.795087 0)
(11.1761 -0.382757 0)
(11.3995 -0.698007 0)
(10.4353 -1.43471 0)
(12.1599 -3.24137 0)
(10.0029 -4.15104 0)
(8.98814 -3.7415 0)
(10.016 -4.73025 0)
(11.0527 -5.16157 0)
(11.1102 -3.86911 0)
(11.4197 -0.793518 0)
(11.4924 2.06214 0)
(9.91292 3.13518 0)
(8.55029 2.54347 0)
(7.544 1.44804 0)
(6.77786 0.636945 0)
(6.11466 0.236371 0)
(5.54553 0.0475548 0)
(5.32128 -0.0634694 0)
(5.40262 -0.0909332 0)
(5.524 -0.0644204 0)
(5.52568 -0.0351326 0)
(5.44409 -0.0123174 0)
(5.3759 0.0129854 0)
(5.36449 0.0432868 0)
(5.39284 0.0636597 0)
(5.42202 0.068458 0)
(5.42959 0.0570842 0)
(5.4198 0.0316999 0)
(5.39984 -0.00251837 0)
(5.36877 -0.0378203 0)
(5.32798 -0.0653071 0)
(5.28526 -0.0793027 0)
(5.24807 -0.0792853 0)
(5.21889 -0.0690861 0)
(5.19672 -0.054229 0)
(5.18003 -0.0393068 0)
(5.16779 -0.0268438 0)
(5.15923 -0.0175411 0)
(5.15358 -0.0110959 0)
(5.15004 -0.00684947 0)
(5.14792 -0.00414973 0)
(5.14669 -0.00247708 0)
(5.146 -0.00146071 0)
(5.14562 -0.000852373 0)
(5.14541 -0.000492695 0)
(5.1453 -0.000282385 0)
(5.14524 -0.000160675 0)
(5.1452 -9.08319e-05 0)
(5.14518 -5.099e-05 0)
(5.14517 -2.84402e-05 0)
(5.14517 -1.57855e-05 0)
(5.14517 -8.72611e-06 0)
(5.14516 -4.77234e-06 0)
(5.14516 -2.54367e-06 0)
(5.14516 -1.40581e-06 0)
(5.14516 -8.45794e-07 0)
(5.14516 -4.71201e-07 0)
(5.14516 -2.14093e-07 0)
(5.14516 -7.00336e-08 0)
(5.14516 -4.70052e-08 0)
(5.14516 -8.16559e-08 0)
(5.14516 -4.79908e-08 0)
(5.14516 1.9614e-08 0)
(5.14516 3.50733e-09 0)
(5.14516 -3.10811e-08 0)
(5.14516 -7.06504e-08 0)
(5.14516 -1.48396e-08 0)
(5.14516 2.06959e-08 0)
(5.14517 6.13856e-08 0)
(5.14516 -5.0269e-08 0)
(5.14517 -4.27315e-08 0)
(5.14515 -4.22295e-08 0)
(5.14517 5.56037e-08 0)
(5.14515 7.46132e-08 0)
(5.14517 -1.89001e-08 0)
(5.14516 1.04252e-07 0)
(5.14517 -1.64659e-07 0)
(5.14516 1.58729e-07 0)
(5.14516 -1.21243e-07 0)
(5.14517 1.0284e-07 0)
(5.14515 1.33936e-07 0)
(5.14517 -3.31749e-07 0)
(5.14516 3.41536e-07 0)
(5.14516 -4.12837e-07 0)
(5.14517 1.50273e-07 0)
(5.14516 2.68041e-07 0)
(5.14517 -5.01742e-07 0)
(5.14516 5.0577e-07 0)
(5.14516 -1.95514e-07 0)
(5.14516 -2.38548e-07 0)
(5.14516 5.02212e-07 0)
(5.14516 -2.55381e-07 0)
(5.14516 -1.28429e-07 0)
(5.14516 1.34341e-07 0)
(5.14516 -2.50082e-08 0)
(11.9366 0.201752 0)
(10.3205 2.16827 0)
(12.1098 0.431131 0)
(10.7626 0.108314 0)
(12.5632 -0.71987 0)
(10.8658 -0.27518 0)
(11.7665 -0.659872 0)
(10.8862 -1.39571 0)
(11.9856 -3.26817 0)
(9.52026 -3.86673 0)
(9.23202 -3.67309 0)
(10.3281 -4.95366 0)
(10.8628 -5.31983 0)
(10.6373 -3.83048 0)
(10.5195 -0.686266 0)
(10.6655 2.36826 0)
(9.44535 3.4642 0)
(8.28142 2.81664 0)
(7.51622 1.65154 0)
(6.97257 0.793228 0)
(6.18503 0.357944 0)
(5.57588 0.104043 0)
(5.33347 -0.0605006 0)
(5.37093 -0.0929552 0)
(5.49342 -0.0460577 0)
(5.51241 -0.0191756 0)
(5.43925 -0.0206671 0)
(5.38473 -0.00656673 0)
(5.39439 0.0308362 0)
(5.42834 0.0742784 0)
(5.44993 0.0943377 0)
(5.46992 0.0755733 0)
(5.49924 0.0257626 0)
(5.51448 -0.0327454 0)
(5.48877 -0.0785463 0)
(5.42549 -0.102711 0)
(5.35025 -0.106998 0)
(5.28515 -0.0971916 0)
(5.2377 -0.0795407 0)
(5.20562 -0.0597248 0)
(5.18423 -0.0418263 0)
(5.16993 -0.0277729 0)
(5.16045 -0.0177347 0)
(5.15434 -0.0110152 0)
(5.15053 -0.00670679 0)
(5.14823 -0.00402404 0)
(5.14689 -0.00238685 0)
(5.14612 -0.00140215 0)
(5.14569 -0.000816507 0)
(5.14545 -0.000471555 0)
(5.14532 -0.000270234 0)
(5.14525 -0.000153778 0)
(5.14521 -8.69468e-05 0)
(5.14519 -4.88235e-05 0)
(5.14518 -2.72431e-05 0)
(5.14517 -1.5121e-05 0)
(5.14517 -8.35758e-06 0)
(5.14516 -4.58458e-06 0)
(5.14516 -2.46278e-06 0)
(5.14516 -1.35887e-06 0)
(5.14516 -7.96688e-07 0)
(5.14516 -4.34216e-07 0)
(5.14516 -2.0943e-07 0)
(5.14516 -8.58188e-08 0)
(5.14516 -4.99529e-08 0)
(5.14516 -6.60641e-08 0)
(5.14516 -3.96793e-08 0)
(5.14516 1.05104e-08 0)
(5.14516 -3.56416e-09 0)
(5.14516 -2.04657e-08 0)
(5.14516 -5.36514e-08 0)
(5.14516 -3.89112e-09 0)
(5.14516 3.13644e-09 0)
(5.14517 4.91713e-08 0)
(5.14516 -4.8062e-08 0)
(5.14517 -1.17022e-08 0)
(5.14515 -3.79549e-08 0)
(5.14517 4.36698e-08 0)
(5.14515 5.61647e-08 0)
(5.14517 -3.96071e-08 0)
(5.14516 1.28131e-07 0)
(5.14517 -1.81542e-07 0)
(5.14516 2.00438e-07 0)
(5.14516 -1.62807e-07 0)
(5.14517 1.02636e-07 0)
(5.14515 1.3915e-07 0)
(5.14517 -3.69615e-07 0)
(5.14516 4.39658e-07 0)
(5.14516 -4.82397e-07 0)
(5.14517 1.87643e-07 0)
(5.14516 2.83786e-07 0)
(5.14517 -6.01387e-07 0)
(5.14516 6.13056e-07 0)
(5.14516 -2.36079e-07 0)
(5.14516 -2.71075e-07 0)
(5.14516 5.82845e-07 0)
(5.14516 -3.23887e-07 0)
(5.14516 -1.47643e-07 0)
(5.14516 1.76948e-07 0)
(5.14516 -1.89949e-08 0)
(11.2173 0.018129 0)
(10.6721 2.15954 0)
(11.6882 0.488945 0)
(11.4661 -0.0607544 0)
(12.0547 -0.675023 0)
(11.031 -0.251518 0)
(11.8434 -0.660456 0)
(10.8749 -1.46748 0)
(12.1526 -3.0348 0)
(9.33457 -3.5118 0)
(9.49798 -3.81545 0)
(10.4468 -5.19309 0)
(10.4458 -5.38753 0)
(9.8408 -3.7241 0)
(9.69555 -0.632883 0)
(9.95915 2.29725 0)
(9.19889 3.48101 0)
(8.14892 2.86717 0)
(7.50546 1.74336 0)
(6.88657 0.941434 0)
(6.32229 0.519519 0)
(6.00814 0.214519 0)
(5.69195 -0.0245501 0)
(5.47364 -0.121694 0)
(5.51104 -0.0920282 0)
(5.63394 -0.0264636 0)
(5.63029 0.0126633 0)
(5.49702 0.0269242 0)
(5.36744 0.0420145 0)
(5.33205 0.0591846 0)
(5.39566 0.0636952 0)
(5.52012 0.0482716 0)
(5.64155 0.0240182 0)
(5.69442 0.00316022 0)
(5.65503 -0.0146997 0)
(5.55322 -0.0325634 0)
(5.43796 -0.0477421 0)
(5.34133 -0.0549204 0)
(5.27179 -0.0524793 0)
(5.22518 -0.0435133 0)
(5.19483 -0.0324898 0)
(5.17539 -0.0225266 0)
(5.16318 -0.0148367 0)
(5.15569 -0.00943721 0)
(5.15121 -0.0058581 0)
(5.14859 -0.00357276 0)
(5.14708 -0.00214916 0)
(5.14623 -0.00127775 0)
(5.14576 -0.000751564 0)
(5.14549 -0.000437597 0)
(5.14535 -0.000252388 0)
(5.14526 -0.00014434 0)
(5.14522 -8.19094e-05 0)
(5.14519 -4.61084e-05 0)
(5.14518 -2.57697e-05 0)
(5.14517 -1.43249e-05 0)
(5.14517 -7.93527e-06 0)
(5.14517 -4.35387e-06 0)
(5.14516 -2.32645e-06 0)
(5.14516 -1.28871e-06 0)
(5.14516 -7.65626e-07 0)
(5.14516 -4.14695e-07 0)
(5.14516 -1.9413e-07 0)
(5.14516 -6.69364e-08 0)
(5.14516 -3.96719e-08 0)
(5.14516 -7.00104e-08 0)
(5.14516 -4.19997e-08 0)
(5.14516 1.62889e-08 0)
(5.14516 -4.85107e-09 0)
(5.14516 -2.56112e-08 0)
(5.14516 -6.29029e-08 0)
(5.14516 -4.66473e-09 0)
(5.14516 4.8347e-09 0)
(5.14517 5.84157e-08 0)
(5.14516 -5.73686e-08 0)
(5.14517 -1.69486e-08 0)
(5.14515 -4.61895e-08 0)
(5.14517 5.33994e-08 0)
(5.14515 6.5155e-08 0)
(5.14517 -4.26928e-08 0)
(5.14516 1.45489e-07 0)
(5.14517 -2.1664e-07 0)
(5.14516 2.37858e-07 0)
(5.14516 -1.98857e-07 0)
(5.14517 1.34812e-07 0)
(5.14515 1.49743e-07 0)
(5.14517 -4.25607e-07 0)
(5.14516 5.13902e-07 0)
(5.14516 -5.7752e-07 0)
(5.14517 2.4108e-07 0)
(5.14516 3.09252e-07 0)
(5.14517 -6.89149e-07 0)
(5.14516 7.22943e-07 0)
(5.14516 -2.96894e-07 0)
(5.14516 -3.01874e-07 0)
(5.14516 6.70256e-07 0)
(5.14516 -3.7917e-07 0)
(5.14516 -1.55238e-07 0)
(5.14516 2.07104e-07 0)
(5.14516 -2.37598e-08 0)
(10.4928 -0.141309 0)
(11.1799 2.14244 0)
(11.0685 0.418238 0)
(12.2312 -0.150316 0)
(11.096 -0.54932 0)
(11.4551 -0.260877 0)
(11.5955 -0.693297 0)
(11.1428 -1.3629 0)
(11.7035 -2.89864 0)
(8.79057 -3.41934 0)
(9.77669 -3.93283 0)
(10.3605 -5.27155 0)
(9.73376 -5.28186 0)
(8.8004 -3.64539 0)
(8.52 -0.480694 0)
(9.04506 2.44171 0)
(8.74052 3.56404 0)
(7.86469 3.0337 0)
(7.3919 1.89346 0)
(6.65027 1.03265 0)
(6.23798 0.540471 0)
(6.07118 0.233115 0)
(5.78885 0.0398965 0)
(5.47629 -0.0551194 0)
(5.3517 -0.0683636 0)
(5.43795 -0.0377729 0)
(5.57166 -0.0014587 0)
(5.60796 0.0302652 0)
(5.54634 0.0531375 0)
(5.47612 0.0672136 0)
(5.44873 0.0634723 0)
(5.44652 0.0372343 0)
(5.43719 -0.00141555 0)
(5.40991 -0.0381632 0)
(5.37083 -0.0631879 0)
(5.32907 -0.0772079 0)
(5.29046 -0.0816664 0)
(5.25726 -0.0770102 0)
(5.22946 -0.0650734 0)
(5.20638 -0.049799 0)
(5.18768 -0.0351525 0)
(5.1733 -0.0233841 0)
(5.16295 -0.0149318 0)
(5.15598 -0.00928623 0)
(5.15154 -0.00567354 0)
(5.14884 -0.00342281 0)
(5.14725 -0.00204404 0)
(5.14634 -0.00120942 0)
(5.14582 -0.000709105 0)
(5.14553 -0.000412034 0)
(5.14537 -0.000237352 0)
(5.14528 -0.000135628 0)
(5.14523 -7.69181e-05 0)
(5.1452 -4.32792e-05 0)
(5.14518 -2.41843e-05 0)
(5.14517 -1.34435e-05 0)
(5.14517 -7.44885e-06 0)
(5.14517 -4.09778e-06 0)
(5.14516 -2.2031e-06 0)
(5.14516 -1.21849e-06 0)
(5.14516 -7.08949e-07 0)
(5.14516 -3.76214e-07 0)
(5.14516 -1.83174e-07 0)
(5.14516 -7.51897e-08 0)
(5.14516 -4.17385e-08 0)
(5.14516 -5.88182e-08 0)
(5.14516 -3.72256e-08 0)
(5.14516 1.01519e-08 0)
(5.14516 -1.0201e-08 0)
(5.14516 -1.82952e-08 0)
(5.14516 -5.09257e-08 0)
(5.14516 4.90828e-09 0)
(5.14516 -7.99903e-09 0)
(5.14517 5.15095e-08 0)
(5.14516 -5.93241e-08 0)
(5.14517 9.0565e-09 0)
(5.14515 -4.4472e-08 0)
(5.14517 5.01193e-08 0)
(5.14515 4.87919e-08 0)
(5.14517 -5.56759e-08 0)
(5.14516 1.64839e-07 0)
(5.14517 -2.3725e-07 0)
(5.14516 2.79454e-07 0)
(5.14516 -2.42033e-07 0)
(5.14517 1.49969e-07 0)
(5.14515 1.41645e-07 0)
(5.14517 -4.54441e-07 0)
(5.14516 5.99422e-07 0)
(5.14516 -6.53438e-07 0)
(5.14517 2.97714e-07 0)
(5.14516 3.04225e-07 0)
(5.14517 -7.66813e-07 0)
(5.14516 8.24295e-07 0)
(5.14516 -3.52609e-07 0)
(5.14516 -3.14084e-07 0)
(5.14516 7.36997e-07 0)
(5.14516 -4.44999e-07 0)
(5.14516 -1.63496e-07 0)
(5.14516 2.41976e-07 0)
(5.14516 -2.12099e-08 0)
(9.53195 -0.259416 0)
(11.5623 1.97052 0)
(11.0193 0.482556 0)
(12.1589 -0.225828 0)
(10.4234 -0.413535 0)
(11.5831 -0.358611 0)
(11.4471 -0.636673 0)
(11.0568 -1.38172 0)
(11.2458 -2.73464 0)
(8.96492 -3.14021 0)
(10.1192 -4.00358 0)
(10.0194 -5.30525 0)
(8.81255 -5.16393 0)
(7.63478 -3.40972 0)
(7.42261 -0.517893 0)
(7.87747 2.36605 0)
(7.79113 3.65899 0)
(7.43713 3.09965 0)
(6.90535 1.98067 0)
(6.42797 1.14609 0)
(6.31418 0.605111 0)
(6.07055 0.280938 0)
(5.74776 0.0764813 0)
(5.491 -0.0494952 0)
(5.3881 -0.0884063 0)
(5.44124 -0.065049 0)
(5.5167 -0.0123188 0)
(5.51991 0.0406543 0)
(5.48644 0.0693076 0)
(5.47599 0.0745449 0)
(5.50114 0.0648522 0)
(5.55188 0.0458322 0)
(5.60914 0.0271324 0)
(5.64093 0.0154363 0)
(5.61955 0.00383271 0)
(5.54627 -0.0118218 0)
(5.44881 -0.0286615 0)
(5.35652 -0.0394957 0)
(5.28425 -0.0408687 0)
(5.23347 -0.0350784 0)
(5.19983 -0.0265395 0)
(5.17832 -0.0184317 0)
(5.16494 -0.0120974 0)
(5.15678 -0.00767317 0)
(5.15191 -0.00476575 0)
(5.14904 -0.00292034 0)
(5.14737 -0.00177071 0)
(5.14642 -0.00106282 0)
(5.14587 -0.000631179 0)
(5.14556 -0.00037074 0)
(5.14539 -0.000215422 0)
(5.14529 -0.00012392 0)
(5.14523 -7.06149e-05 0)
(5.1452 -3.98594e-05 0)
(5.14518 -2.23216e-05 0)
(5.14517 -1.24328e-05 0)
(5.14517 -6.90989e-06 0)
(5.14517 -3.80413e-06 0)
(5.14516 -2.03611e-06 0)
(5.14516 -1.12902e-06 0)
(5.14516 -6.6218e-07 0)
(5.14516 -3.48366e-07 0)
(5.14516 -1.65421e-07 0)
(5.14516 -5.89603e-08 0)
(5.14516 -3.19797e-08 0)
(5.14516 -5.8918e-08 0)
(5.14516 -3.71496e-08 0)
(5.14516 1.46727e-08 0)
(5.14516 -1.17393e-08 0)
(5.14516 -2.01322e-08 0)
(5.14516 -5.53177e-08 0)
(5.14516 4.73912e-09 0)
(5.14516 -8.24676e-09 0)
(5.14517 5.86073e-08 0)
(5.14516 -6.60256e-08 0)
(5.14517 8.15376e-09 0)
(5.14515 -5.29756e-08 0)
(5.14517 5.51453e-08 0)
(5.14515 5.28176e-08 0)
(5.14517 -5.91048e-08 0)