/*--------------------------------*- C++ -*----------------------------------*\
| =========                 |                                                 |
| \\      /  F ield         | OpenFOAM: The Open Source CFD Toolbox           |
|  \\    /   O peration     | Version:  2.4.0                                 |
|   \\  /    A nd           | Web:      www.OpenFOAM.org                      |
|    \\/     M anipulation  |                                                 |
\*---------------------------------------------------------------------------*/
FoamFile
{
    version     2.0;
    format      ascii;
    class       volScalarField;
    location    "1.91";
    object      k_0;
}
// * * * * * * * * * * * * * * * * * * * * * * * * * * * * * * * * * * * * * //

dimensions      [0 2 -2 0 0 0 0];

internalField   nonuniform List<scalar> 
8800
(
8.11241
10.2791
8.78072
6.84478
5.67926
5.00608
4.49333
4.17887
3.87396
3.71393
3.49274
3.41779
3.24731
3.20313
3.05507
3.02407
2.89411
2.86451
2.80273
2.66226
1.39095
4.36539
5.30892
5.2946
5.11061
4.85108
4.53612
4.32945
4.07316
3.93584
3.71735
3.6394
3.47353
3.41753
3.28883
3.24796
3.13882
3.10373
3.00616
3.00316
0.0833207
0.74755
1.54252
1.96334
2.25033
2.46409
2.55169
2.62167
2.61499
2.60907
2.57702
2.55774
2.51045
2.48734
2.45085
2.42181
2.38642
2.36397
2.30727
2.2915
0.00327931
0.0713892
0.245484
0.430813
0.57929
0.710928
0.827549
0.937901
1.02432
1.08964
1.16781
1.20575
1.26785
1.29308
1.34652
1.36383
1.40319
1.4124
1.4246
1.41654
0.000118538
0.00507223
0.0222911
0.0483676
0.092459
0.121296
0.165129
0.202526
0.249138
0.274603
0.327855
0.350187
0.396897
0.419208
0.466881
0.488368
0.537868
0.556442
0.59585
0.606566
2.53275e-05
0.000323501
0.00148148
0.00341218
0.00815573
0.0117533
0.0187844
0.0253962
0.0344518
0.0402081
0.0541536
0.0613435
0.0731982
0.0842427
0.095355
0.106855
0.121907
0.13687
0.146081
0.161971
2.22586e-05
4.59967e-05
0.000123834
0.000242816
0.00050435
0.000884614
0.00123165
0.00205593
0.00255097
0.00350461
0.00457701
0.00611127
0.007085
0.0096915
0.010891
0.0137601
0.0153663
0.0196324
0.0216116
0.0268156
2.1312e-05
3.38431e-05
4.73356e-05
7.66368e-05
9.02227e-05
0.000120597
0.000136198
0.000188241
0.000208118
0.000273861
0.000318761
0.00042193
0.000467698
0.000688737
0.000764897
0.00105317
0.00115519
0.00163751
0.00187112
0.00271759
2.08101e-05
3.09548e-05
3.98726e-05
5.45689e-05
6.72547e-05
7.65372e-05
7.75719e-05
7.95338e-05
7.84309e-05
8.41025e-05
8.88421e-05
0.000100232
9.99606e-05
0.000108361
0.000110735
0.000125662
0.000131399
0.000157856
0.00017277
0.000227811
2.06676e-05
2.6825e-05
4.01378e-05
6.08425e-05
6.26121e-05
6.1501e-05
6.21533e-05
6.93892e-05
7.17494e-05
7.34707e-05
7.35819e-05
7.37597e-05
7.31499e-05
7.38069e-05
7.62961e-05
7.8304e-05
7.85193e-05
8.0625e-05
8.15671e-05
8.49753e-05
2.05354e-05
2.70762e-05
4.55461e-05
5.99735e-05
5.93588e-05
5.92548e-05
6.47278e-05
7.10226e-05
7.0834e-05
7.24228e-05
7.31547e-05
7.45895e-05
7.5034e-05
7.87032e-05
7.85006e-05
7.85689e-05
7.87149e-05
8.03554e-05
8.04384e-05
8.43169e-05
2.07884e-05
2.77778e-05
4.74002e-05
6.31181e-05
6.17075e-05
6.25851e-05
7.39147e-05
7.97706e-05
8.45876e-05
9.10442e-05
9.15772e-05
9.20919e-05
9.55678e-05
0.000103785
0.000107773
0.000113831
0.000128076
0.000146331
0.000154168
0.000171419
2.10133e-05
3.06896e-05
4.82008e-05
7.80111e-05
8.64053e-05
0.000113131
0.000132673
0.000173006
0.000205338
0.000295509
0.000339615
0.000448783
0.000512874
0.000653468
0.000742188
0.000942889
0.00113657
0.00161374
0.0018363
0.00214491
2.15792e-05
4.30893e-05
0.000124975
0.000363302
0.000501701
0.000841433
0.00117272
0.00197453
0.00258398
0.00408533
0.00479254
0.00651094
0.00744956
0.00956359
0.0107545
0.0137219
0.0156447
0.0205684
0.0229804
0.0272096
2.49578e-05
0.0003067
0.00157486
0.00490051
0.00703072
0.0124577
0.0169916
0.0266183
0.0326646
0.0460476
0.0518066
0.0649058
0.0714962
0.086106
0.0933673
0.111024
0.120625
0.144717
0.155929
0.186665
0.000123406
0.00493027
0.0241315
0.0577059
0.0796914
0.125529
0.161269
0.206248
0.240583
0.293532
0.315032
0.361651
0.384086
0.43183
0.453249
0.504516
0.528732
0.589145
0.614364
0.683911
0.00336689
0.0694545
0.263981
0.417627
0.578212
0.705867
0.836779
0.924592
1.02622
1.10361
1.15219
1.21638
1.25606
1.30684
1.33022
1.38121
1.40195
1.45304
1.47163
1.52018
0.0845816
0.726762
1.57189
1.9346
2.27982
2.4322
2.58156
2.59449
2.62723
2.59998
2.58738
2.53897
2.52434
2.47427
2.46004
2.41869
2.40881
2.38051
2.36835
2.34022
1.40574
4.35055
5.32127
5.28479
5.13257
4.79593
4.58935
4.27607
4.12999
3.86788
3.77976
3.57745
3.52048
3.36768
3.33097
3.20233
3.17399
3.05503
3.01921
2.92285
8.11884
10.2648
8.7946
6.81363
5.71783
4.95609
4.53956
4.13113
3.92713
3.64658
3.55707
3.34934
3.30372
3.13509
3.10796
2.94713
2.91608
2.73874
2.68375
2.47726
1.86137
1.29738
0.98865
0.819621
0.729477
0.677424
0.641527
0.619442
0.59999
0.584856
0.568857
0.555574
0.540392
0.529484
0.516724
0.511313
0.505404
0.50363
0.50126
0.498849
0.497699
0.494067
0.491553
0.484862
0.479302
0.465821
0.458325
0.442005
0.435606
0.421548
0.416687
0.40616
0.400808
0.387874
0.382919
0.371571
0.371491
0.373142
0.379268
0.391836
0.41008
0.425118
0.430393
0.436102
0.449708
0.485348
0.534934
0.582244
0.577957
0.557948
0.511662
0.452356
0.377538
0.296049
0.221235
0.170071
0.136149
0.112616
0.0989674
0.0886207
0.0828296
0.080158
0.0803424
0.0808695
0.080796
0.0813022
0.0811378
0.0802866
0.079243
0.0762774
0.0746889
0.0714462
0.0693112
0.0659768
0.065471
0.0660274
0.0684863
0.073636
0.0856476
0.0981979
0.12523
0.15101
0.181237
0.206014
0.221537
0.230835
0.238539
0.239715
0.24313
0.243171
0.242488
0.23989
0.234101
0.22444
0.213309
0.203838
0.188337
0.181446
0.167343
0.161624
0.150564
0.146241
0.139911
0.13662
0.136151
0.133415
0.133075
0.132852
0.13329
0.132933
0.132721
0.131698
0.130195
0.128274
0.123891
0.118603
0.112479
0.103369
0.092542
0.0793599
0.0641222
0.0491177
0.0368457
0.0270677
0.0197386
0.0146746
0.0116162
0.00952743
0.00849989
0.00776129
0.00730158
0.00720953
0.00662157
0.00598015
0.00573106
0.00569627
0.00584153
0.00671857
0.00957208
0.0167976
0.0381534
0.125097
0.245028
0.260002
0.243361
0.221984
0.212074
0.188821
0.140463
0.114975
0.101855
0.0949729
0.0868174
0.0830932
0.0814002
0.0799775
0.0796998
0.0801809
0.0870976
0.0957478
0.100791
0.0993653
0.0909061
0.0827989
0.0794882
0.0780595
0.074906
0.0707611
0.0686846
0.0686195
0.0704139
0.0782334
0.107235
0.118635
0.119015
0.110684
0.0801865
0.0656825
0.0630876
0.0637838
0.0678534
0.0798546
0.0954411
0.0997583
0.099405
0.0963723
0.0871123
0.0726373
0.0594587
0.051654
0.0426393
0.0359749
0.0361561
0.0352509
0.0366944
0.0469879
0.0538199
0.0709648
0.223517
0.84777
2.5688
2.12438
1.7738
1.51653
1.32309
1.18316
1.08267
1.00783
0.950173
0.904091
0.863264
0.827391
0.793229
0.763206
0.73832
0.714629
0.699052
0.679774
0.671987
0.656255
0.650769
0.638765
0.633669
0.62253
0.617056
0.605701
0.599891
0.588348
0.58247
0.572097
0.566362
0.55694
0.551006
0.542898
0.532338
0.526748
0.514454
0.508703
0.495823
0.491016
0.481721
0.476283
0.469912
0.473598
0.479023
0.493928
0.494871
0.497552
0.503806
0.512218
0.523232
0.523341
0.520887
0.509934
0.490802
0.443928
0.386477
0.318806
0.258257
0.203786
0.166774
0.143389
0.124736
0.1142
0.106436
0.100849
0.0972045
0.0947337
0.0923897
0.0902494
0.0900897
0.0904875
0.0922879
0.0962413
0.105025
0.118052
0.13796
0.159689
0.187368
0.20912
0.223994
0.236033
0.238455
0.241188
0.242679
0.241783
0.239259
0.233062
0.225472
0.210679
0.198523
0.177222
0.159123
0.13668
0.11638
0.0991366
0.0822089
0.0689567
0.058578
0.0508734
0.0447889
0.0413091
0.0382753
0.036764
0.0361519
0.0359404
0.0361312
0.0367737
0.0374911
0.0380946
0.0386773
0.0387078
0.0386164
0.0380519
0.0364322
0.0344369
0.0318904
0.0288573
0.0254687
0.0216295
0.0181193
0.0146992
0.0119357
0.00993579
0.00840645
0.00755564
0.00712848
0.00662685
0.00656155
0.00634313
0.00598053
0.00576773
0.0054396
0.00544717
0.00551095
0.00584629
0.00702636
0.0101021
0.0168884
0.033223
0.0835931
0.227938
0.272628
0.260193
0.236201
0.227185
0.214849
0.173903
0.133556
0.112937
0.104827
0.100601
0.0926963
0.0881152
0.0823563
0.079902
0.0777505
0.077178
0.077324
0.084779
0.0979336
0.102029
0.100864
0.0898955
0.0804417
0.0774184
0.0744002
0.0714215
0.0688034
0.0684257
0.0683708
0.0703014
0.0839814
0.112312
0.118123
0.116413
0.102751
0.075195
0.0651462
0.0631725
0.0633424
0.0660046
0.0749299
0.078025
0.0779199
0.0758414
0.0670964
0.0579916
0.0511364
0.042091
0.0365192
0.0342481
0.0300369
0.02951
0.0304241
0.0346519
0.0584628
0.0632148
0.163402
0.463657
2.08047
1.85533
1.65557
1.4819
1.33693
1.21048
1.1121
1.03244
0.971674
0.923444
0.882462
0.848028
0.813321
0.781733
0.750231
0.722447
0.698214
0.675726
0.659208
0.643643
0.632832
0.62303
0.612673
0.606186
0.593741
0.588327
0.576236
0.570994
0.55974
0.555311
0.545889
0.542002
0.533485
0.529386
0.5192
0.514137
0.501822
0.495368
0.481139
0.473373
0.458908
0.451694
0.4377
0.43339
0.42421
0.421347
0.419727
0.419598
0.42207
0.424106
0.428864
0.433459
0.443187
0.452704
0.465597
0.465404
0.462506
0.454106
0.435732
0.415545
0.382462
0.353917
0.317249
0.290313
0.260279
0.243502
0.224847
0.215433
0.207903
0.206936
0.20816
0.21341
0.219273
0.232067
0.240146
0.250008
0.257271
0.259127
0.258056
0.257198
0.254072
0.250381
0.242824
0.232847
0.217749
0.203356
0.180012
0.157609
0.131878
0.108376
0.0861797
0.0672672
0.0531658
0.0424465
0.0340862
0.0277655
0.0227121
0.0185728
0.01573
0.013141
0.0114629
0.0100784
0.00916045
0.00856923
0.00822059
0.00812447
0.00815731
0.00830178
0.00849387
0.00874747
0.00893881
0.00905049
0.00904702
0.00897934
0.00864402
0.00837205
0.00775664
0.00743426
0.00682685
0.00637566
0.00595985
0.00550873
0.00525425
0.00515087
0.00512268
0.00522424
0.00526561
0.00524577
0.00518126
0.00502756
0.00515286
0.00519633
0.00528012
0.00557184
0.00633302
0.00810081
0.0118556
0.0184588
0.0321481
0.0665144
0.191435
0.274256
0.277451
0.249672
0.236619
0.234559
0.217107
0.16795
0.131698
0.118203
0.119959
0.119416
0.113709
0.100687
0.0872706
0.0822412
0.0779655
0.0775288
0.0762962
0.0794704
0.0922896
0.101854
0.103132
0.097595
0.0828001
0.0780891
0.075252
0.0725047
0.0697408
0.0696345
0.0693194
0.0696575
0.0723344
0.0958948
0.11434
0.115495
0.111942
0.092274
0.0734157
0.0652746
0.0637076
0.0648134
0.066555
0.0675676
0.0665898
0.0643701
0.0583377
0.0499743
0.0427481
0.0405797
0.0349874
0.0316937
0.0303162
0.0268506
0.0328558
0.0334427
0.0700511
0.0680281
0.0916121
0.232118
1.33072
1.23627
1.14966
1.07346
0.995208
0.925702
0.857149
0.797382
0.745981
0.707203
0.677084
0.65814
0.636135
0.620992
0.596236
0.57643
0.549718
0.52919
0.504963
0.491028
0.474743
0.468425
0.458368
0.454705
0.44677
0.442949
0.433649
0.428976
0.418711
0.414259
0.404505
0.400344
0.391543
0.387386
0.378728
0.374218
0.365107
0.359852
0.349249
0.341378
0.330187
0.317052
0.307086
0.293375
0.2846
0.277533
0.274586
0.273198
0.273827
0.275513
0.279891
0.28403
0.293201
0.301153
0.318281
0.337815
0.359306
0.376318
0.388128
0.38909
0.386961
0.381361
0.374827
0.366611
0.356938
0.349688
0.339671
0.334369
0.325926
0.322718
0.317167
0.314181
0.307445
0.303497
0.296276
0.287225
0.28066
0.267727
0.255319
0.238826
0.221847
0.195575
0.169253
0.140139
0.113057
0.0865229
0.0653628
0.049718
0.0378971
0.0292883
0.0228119
0.0181438
0.0144949
0.0118491
0.00965395
0.00797082
0.0065957
0.00550161
0.00464582
0.00397413
0.00346567
0.00307604
0.00283725
0.00265575
0.00256987
0.00256667
0.00258333
0.00263135
0.00270507
0.00278076
0.00284696
0.00292879
0.00296936
0.00303047
0.00305217
0.00310602
0.00312313
0.00320067
0.00322729
0.00333415
0.00337494
0.00348049
0.00357533
0.00376207
0.00384875
0.00406003
0.00409584
0.00421046
0.00444915
0.00460762
0.00505303
0.00554335
0.00637457
0.00783418
0.0104973
0.0152705
0.0216695
0.033682
0.0620771
0.154198
0.263261
0.285573
0.262705
0.243689
0.251403
0.252326
0.216682
0.166453
0.136366
0.143024
0.148033
0.140331
0.132452
0.11388
0.0948112
0.0858823
0.0793465
0.0787847
0.0762165
0.0791287
0.0858641
0.0932511
0.0948916
0.0917269
0.081363
0.0771252
0.0762634
0.0749811
0.0729598
0.07301
0.0724002
0.0706123
0.0712698
0.0799456
0.104934
0.113454
0.113272
0.103949
0.0833524
0.0704648
0.0654624
0.0655501
0.066266
0.0649916
0.0643229
0.0607475
0.0577036
0.0502123
0.0447296
0.0408245
0.0370494
0.0331333
0.0353721
0.0346371
0.0517513
0.0429902
0.0657261
0.0698169
0.0735544
0.122891
0.58641
0.565706
0.536077
0.522889
0.49747
0.477733
0.450831
0.419953
0.395605
0.365135
0.350027
0.337853
0.33343
0.33042
0.327688
0.325578
0.316026
0.307139
0.287936
0.275129
0.259847
0.251429
0.244309
0.240089
0.237637
0.234565
0.233125
0.22964
0.227371
0.224572
0.221143
0.217015
0.21218
0.204519
0.198417
0.19026
0.184358
0.17817
0.172982
0.168513
0.166053
0.161138
0.155269
0.146618
0.138775
0.130036
0.123985
0.121162
0.121407
0.122465
0.126361
0.129402
0.136145
0.140868
0.151375
0.159538
0.175281
0.188797
0.211427
0.227107
0.249824
0.261471
0.277314
0.284335
0.291098
0.29204
0.291557
0.289334
0.286115
0.27994
0.272418
0.264132
0.253233
0.239979
0.226234
0.207339
0.187693
0.164854
0.141368
0.117082
0.0920468
0.0718735
0.0554729
0.04242
0.0321186
0.0240975
0.0180089
0.0134535
0.010147
0.00780954
0.0061845
0.00502962
0.00421353
0.00362849
0.00316604
0.00279959
0.00253603
0.0023309
0.0021595
0.00207212
0.00198093
0.0019308
0.0018914
0.00188273
0.00188168
0.00191584
0.0019595
0.00200681
0.00203351
0.00204754
0.00204947
0.00205066
0.00205913
0.00207096
0.00211718
0.0021492
0.0022594
0.00233777
0.00248025
0.00268297
0.00277422
0.00296968
0.00309787
0.00328844
0.00337338
0.00353383
0.00365559
0.00388086
0.00449745
0.00528097
0.00710394
0.0086639
0.0109678
0.0144437
0.0195765
0.0262149
0.0377752
0.0639021
0.138624
0.238431
0.28829
0.281041
0.245297
0.24828
0.277359
0.263993
0.214908
0.167923
0.159169
0.165685
0.157806
0.143642
0.135175
0.118778
0.103057
0.0887069
0.082546
0.0821961
0.0774838
0.0823407
0.0822508
0.0847965
0.0843606
0.0827266
0.0779169
0.0777681
0.0781874
0.0814705
0.0835986
0.0828634
0.0796722
0.0738554
0.0725846
0.0761986
0.0960911
0.109823
0.112425
0.110196
0.0912541
0.0804679
0.071968
0.0674755
0.0680505
0.0659116
0.0651146
0.0616311
0.0578049
0.0539287
0.0451978
0.0467266
0.0501907
0.0481138
0.0635285
0.0582232
0.067284
0.0616734
0.0622329
0.0724111
0.0749528
0.0933734
0.159583
0.157485
0.152565
0.151146
0.147727
0.145398
0.140535
0.132035
0.12583
0.113701
0.107721
0.10282
0.102038
0.102342
0.104328
0.107225
0.107643
0.108098
0.106636
0.101669
0.0936527
0.087864
0.0835086
0.0806079
0.079554
0.0783672
0.078163
0.0776929
0.0774193
0.0766814
0.0758525
0.0752115
0.0747098
0.07396
0.0711939
0.067192
0.0621228
0.058671
0.0549376
0.0530314
0.0511833
0.0498298
0.0490758
0.0487846
0.0476919
0.04555
0.0420632
0.0392331
0.0382712
0.0382951
0.0388966
0.0410034
0.0432256
0.0472216
0.0500679
0.0541823
0.0606327
0.0660612
0.0758074
0.0839324
0.0921232
0.101845
0.108511
0.116046
0.122598
0.128228
0.133562
0.134665
0.133855
0.13136
0.125854
0.117772
0.108687
0.0971426
0.0863033
0.0746944
0.0635464
0.0532168
0.0437513
0.0355832
0.0284698
0.0225227
0.0174486
0.0132419
0.00985377
0.00725067
0.00525918
0.00391647
0.00294883
0.00235165
0.00199643
0.00176512
0.00166267
0.00163599
0.00165904
0.00170563
0.00177844
0.00182128
0.00187196
0.00196582
0.0020282
0.00217371
0.00231804
0.00242239
0.00263944
0.00283666
0.0029738
0.00300671
0.00297575
0.00291716
0.00280724
0.00269158
0.00256333
0.00251973
0.00251836
0.00255427
0.00271082
0.00278802
0.00304524
0.00315017
0.00335593
0.00340246
0.00344494
0.00349105
0.00358725
0.00377224
0.00413991
0.00487957
0.00713068
0.00941953
0.0125852
0.015472
0.0197031
0.0253147
0.0319706
0.0450011
0.0710526
0.145067
0.226099
0.27467
0.279351
0.249262
0.236341
0.274005
0.294146
0.266605
0.217066
0.177835
0.173405
0.170147
0.156884
0.141911
0.133003
0.123711
0.108479
0.091343
0.0897679
0.0882932
0.0819503
0.0839597
0.0828223
0.082881
0.0844806
0.0843762
0.080786
0.0805939
0.0861903
0.090947
0.094048
0.0930641
0.0860682
0.079156
0.0753866
0.0777743
0.0946662
0.108578
0.11269
0.113949
0.104511
0.0859534
0.0828408
0.0753922
0.0692916
0.0690064
0.0662347
0.0673643
0.0594879
0.0639604
0.0578595
0.0592349
0.0765866
0.0642192
0.0667309
0.0609476
0.0583466
0.0595381
0.0625461
0.0731032
0.0763517
0.085396
0.0266189
0.0263813
0.0255899
0.0255168
0.025222
0.0251217
0.0248411
0.0239481
0.0232208
0.0210538
0.020081
0.01909
0.0188893
0.0189098
0.0196036
0.0211431
0.0218989
0.0224187
0.0224189
0.0220634
0.0204492
0.0190874
0.0179775
0.0174699
0.0173414
0.0173299
0.0173978
0.017334
0.0170923
0.0165774
0.016312
0.0162529
0.0164161
0.0166345
0.0166977
0.0166325
0.015653
0.0139665
0.012339
0.011333
0.0109508
0.0109694
0.011372
0.0117746
0.0119907
0.0119922
0.0111479
0.00997293
0.00935673
0.00925184
0.0093481
0.0099712
0.0107345
0.0122908
0.0133184
0.0145803
0.0166743
0.0180323
0.0209779
0.0240715
0.0271447
0.0310043
0.033992
0.0368164
0.039096
0.0407168
0.0426018
0.0428351
0.0424645
0.0414635
0.0393654
0.036389
0.0332678
0.0295052
0.025817
0.0221021
0.0185858
0.0155135
0.0128245
0.0105657
0.00862712
0.00685515
0.0053538
0.0040193
0.00300247
0.00223413
0.00170925
0.00141338
0.00121785
0.00114767
0.00115054
0.00117603
0.0012449
0.00138466
0.00157574
0.0017469
0.00217386
0.00244889
0.00297064
0.00355521
0.00398697
0.00476455
0.00527333
0.00582967
0.00652555
0.00698992
0.00740221
0.00743567
0.00735586
0.00715472
0.00678051
0.00629437
0.00577836
0.00539749
0.00520501
0.00520736
0.00525949
0.00550525
0.00602686
0.00632388
0.00659015
0.00642686
0.00641421
0.00643794
0.00657077
0.00693916
0.00775031
0.00979314
0.0133509
0.0167606
0.0212513
0.0262941
0.0320782
0.0397031
0.0557196
0.089643
0.164957
0.219491
0.263359
0.269582
0.24488
0.220376
0.233773
0.302126
0.306053
0.267872
0.226121
0.197886
0.177878
0.170595
0.152979
0.138702
0.131678
0.125742
0.10919
0.0938221
0.093438
0.0988272
0.0956992
0.0885603
0.0876886
0.0835084
0.0865867
0.0885194
0.0935224
0.0907481
0.0940896
0.0976057
0.0955091
0.0937765
0.0883205
0.0826465
0.081669
0.0861109
0.0982621
0.109178
0.114331
0.114785
0.111928
0.093718
0.0847216
0.083875
0.0727473
0.0712311
0.0670817
0.0688988
0.0604426
0.0612461
0.0814014
0.0679226
0.0842499
0.0748546
0.0783989
0.0691236
0.0698609
0.0647035
0.0653217
0.0716378
0.0777666
0.0833866
0.00297796
0.00298256
0.00293846
0.00293199
0.00289423
0.00287748
0.00285632
0.00275811
0.00266593
0.00245635
0.00237746
0.00229329
0.00227796
0.00228162
0.00236536
0.00253414
0.00262556
0.00268757
0.00269113
0.00267226
0.00258217
0.00254933
0.00254132
0.00255701
0.00258281
0.00258772
0.00254515
0.00237108
0.00221516
0.00209054
0.00202921
0.0020308
0.00215337
0.00232628
0.00241509
0.00243305
0.00233657
0.00205661
0.0017725
0.00162065
0.00157282
0.0016037
0.00172259
0.00181996
0.00186784
0.00186221
0.00171597
0.00157434
0.00152783
0.0015313
0.00157848
0.00177705
0.00196383
0.00232561
0.00259026
0.002857
0.00335201
0.00371128
0.00441257
0.00540709
0.00655754
0.00771714
0.0086433
0.00954575
0.0102354
0.0104094
0.0107292
0.0109883
0.0109349
0.0107554
0.0104112
0.00979108
0.00882902
0.0076923
0.00651365
0.00549923
0.00453365
0.00383545
0.00321776
0.0027269
0.00227586
0.00185458
0.0015279
0.00125501
0.00110032
0.00103611
0.000998893
0.00100761
0.00104097
0.00111334
0.00130475
0.00150248
0.00182657
0.00247713
0.00300308
0.0039552
0.00545079
0.00634686
0.00825225
0.00992956
0.0114554
0.0134201
0.0148959
0.0165686
0.0178926
0.0189392
0.0195979
0.0195575
0.0192643
0.0186997
0.0174851
0.016415
0.0151706
0.0138919
0.0129456
0.0121466
0.0116657
0.0117301
0.0118578
0.01251
0.012655
0.0125045
0.012546
0.0125677
0.0128818
0.0137004
0.0150389
0.0189775
0.0221884
0.0273362
0.034199
0.0409733
0.0504314
0.0706224
0.120279
0.194135
0.227844
0.244033
0.250074
0.230016
0.191825
0.194756
0.239911
0.326018
0.308657
0.277289
0.275083
0.217539
0.194614
0.182206
0.161028
0.146833
0.140869
0.128708
0.110859
0.0986639
0.0976169
0.103004
0.108256
0.0937931
0.0919786
0.0848223
0.0859246
0.0864584
0.0894376
0.0975492
0.0945574
0.0970737
0.0963499
0.092734
0.0912308
0.0890297
0.0889939
0.0947061
0.105907
0.111724
0.118443
0.116694
0.114195
0.104498
0.087472
0.0844882
0.0774091
0.0737173
0.0635483
0.0671977
0.0680384
0.0636993
0.0916024
0.0813219
0.0846616
0.078446
0.0737241
0.0721984
0.0719871
0.0729734
0.0718502
0.0729552
0.0790603
0.0816953
0.000238217
0.000245589
0.000261757
0.000265708
0.000264632
0.000262653
0.00026037
0.000251406
0.000248299
0.000240808
0.000236367
0.000231083
0.000228978
0.000228103
0.000227983
0.000229325
0.0002332
0.000242757
0.000248533
0.000254345
0.000256871
0.000260954
0.000266787
0.000275396
0.000280813
0.000281695
0.000278248
0.0002624
0.00024769
0.000233761
0.000226182
0.000223754
0.000228265
0.00023783
0.00024617
0.000248834
0.000248413
0.000238536
0.000218154
0.000205094
0.000197996
0.000197162
0.00019972
0.000204781
0.000211326
0.000218769
0.000221694
0.000220898
0.000220575
0.000223199
0.000233974
0.000254166
0.000277966
0.000332716
0.000383017
0.000419114
0.000508204
0.000598945
0.000714611
0.000973003
0.00121967
0.00146929
0.00166428
0.00183944
0.00193009
0.00192942
0.00193732
0.00208652
0.00217609
0.00218082
0.00214995
0.00208016
0.00188223
0.0015934
0.00131635
0.00112115
0.000948351
0.000841492
0.000775307
0.000716225
0.000695168
0.000703806
0.000727416
0.000769875
0.000872356
0.00100106
0.0012279
0.00160553
0.00202193
0.00257088
0.0035616
0.00425796
0.00575315
0.00725715
0.00948227
0.0123942
0.0157292
0.0188347
0.0234114
0.0277147
0.0316843
0.0365182
0.0406765
0.0445071
0.0473169
0.0499619
0.0501309
0.0496321
0.0482279
0.0460716
0.0425431
0.040092
0.0369149
0.0337356
0.0314049
0.0280825
0.0263543
0.024825
0.0235716
0.0237348
0.0231944
0.0230261
0.0229336
0.0230452
0.0238991
0.02512
0.0272511
0.0330009
0.0368089
0.0441469
0.0547375
0.0660439
0.0908174
0.161756
0.235374
0.247101
0.242821
0.210431
0.179341
0.174152
0.172041
0.191784
0.261116
0.336157
0.302948
0.330947
0.332717
0.28397
0.263307
0.243303
0.211392
0.182943
0.166944
0.136499
0.111268
0.101653
0.101431
0.102562
0.112498
0.0962655
0.102926
0.0909899
0.0953934
0.0866101
0.0847195
0.0905465
0.0943791
0.0969656
0.101059
0.100621
0.105252
0.110257
0.108025
0.108746
0.114145
0.117592
0.123382
0.123584
0.115692
0.113626
0.0996272
0.084812
0.0799182
0.0787605
0.0683995
0.0674936
0.0991351
0.079724
0.0705387
0.0742673
0.0686157
0.0722987
0.0727233
0.0779138
0.0758983
0.0771661
0.082896
0.0793147
0.0841683
0.0830571
8.51203e-05
8.68265e-05
9.1585e-05
9.81487e-05
9.82502e-05
9.71708e-05
9.55318e-05
9.51471e-05
9.55968e-05
9.64522e-05
9.6566e-05
9.65919e-05
9.61504e-05
9.52047e-05
9.43145e-05
9.39347e-05
9.39094e-05
9.43506e-05
9.68397e-05
9.87322e-05
9.91124e-05
9.88508e-05
9.81916e-05
9.90414e-05
0.000102592
0.000105345
0.000106117
0.000105968
0.000105956
0.000107691
0.000110107
0.000110497
0.000109068
0.000105305
0.000103281
0.000101737
0.000101367
0.000100801
0.000100902
0.000101482
0.000102237
0.000102698
0.000105675
0.000108821
0.000111753
0.000112302
0.000113296
0.000113641
0.000114583
0.000114878
0.000115316
0.000116016
0.000117364
0.000120887
0.000128182
0.000134946
0.000153052
0.000169858
0.000180855
0.000209282
0.000239016
0.000264813
0.000295915
0.000323754
0.000342673
0.000342472
0.000342032
0.000359661
0.000384093
0.000401013
0.00040551
0.000406047
0.000397431
0.000398586
0.000400765
0.00040412
0.000412629
0.000430645
0.000476222
0.000522605
0.000623049
0.000731208
0.000988133
0.00128226
0.00202077
0.00263446
0.00403422
0.00500638
0.00689999
0.00860755
0.0113376
0.0135394
0.0184371
0.0218345
0.0285611
0.0350156
0.0423782
0.0514766
0.0600539
0.0711333
0.0800845
0.0914429
0.101384
0.109202
0.117122
0.121556
0.121338
0.119107
0.115396
0.106098
0.0999591
0.0900931
0.0824282
0.0762868
0.0665404
0.0623681
0.0550096
0.0495885
0.0473555
0.0427401
0.0419654
0.040615
0.0399314
0.0409275
0.041841
0.0436178
0.0497188
0.0539105
0.0609608
0.0773741
0.0899425
0.116757
0.212891
0.282088
0.278526
0.252828
0.18527
0.137318
0.129624
0.136414
0.155845
0.204877
0.289449
0.329046
0.330561
0.367677
0.408339
0.428726
0.393049
0.345757
0.277276
0.230145
0.199837
0.138535
0.112151
0.104236
0.103051
0.108708
0.111803
0.107626
0.112031
0.107412
0.114839
0.0881208
0.115486
0.0992511
0.109392
0.102366
0.117264
0.116658
0.113435
0.115535
0.117131
0.117587
0.119234
0.126923
0.12432
0.128445
0.123964
0.11468
0.106722
0.0911741
0.0791273
0.0847592
0.100793
0.0758967
0.073936
0.0744543
0.0665108
0.0658243
0.0634848
0.0668406
0.0689542
0.0784847
0.0790291
0.0786913
0.0837309
0.0801843
0.0829474
0.081439
8.66608e-05
8.90032e-05
9.39168e-05
0.000101368
0.000103528
0.000103681
0.000102871
0.000100973
9.98164e-05
9.93144e-05
9.89728e-05
9.86217e-05
9.75393e-05
9.66986e-05
9.76244e-05
0.000104536
0.000121751
0.000132786
0.000139915
0.000141755
0.000138931
0.000128414
0.000115043
0.000104375
9.65118e-05
9.35942e-05
9.64957e-05
0.000119805
0.000149709
0.000176288
0.000189571
0.000193701
0.000189049
0.000171208
0.000159242
0.000151349
0.000149587
0.000150114
0.000160211
0.000176386
0.00018916
0.000195917
0.000208199
0.00022962
0.000259755
0.000276467
0.000281724
0.000280196
0.000272902
0.000242962
0.000209533
0.000186723
0.000179636
0.00018345
0.000200505
0.000214228
0.000220521
0.000221468
0.000212595
0.000202718
0.000199285
0.000197961
0.000201343
0.000211907
0.000222463
0.000226029
0.000225459
0.000223263
0.000223564
0.000225836
0.000234265
0.000247733
0.000270814
0.000365841
0.000442016
0.000606708
0.000733572
0.00101571
0.00122341
0.00159909
0.00210548
0.00267954
0.00385172
0.00502648
0.00767415
0.00951243
0.0134746
0.0161224
0.021754
0.0255476
0.033099
0.0405329
0.0500994
0.0611193
0.07567
0.0897706
0.107838
0.1273
0.14642
0.171568
0.189677
0.214711
0.232421
0.250525
0.26665
0.271591
0.270629
0.263933
0.255061
0.236834
0.218319
0.200211
0.179949
0.162164
0.144267
0.126154
0.111657
0.0969417
0.0866661
0.0795877
0.0734599
0.0710781
0.0711767
0.0721577
0.0743341
0.0809671
0.0860686
0.0924859
0.110812
0.125291
0.152149
0.260252
0.330822
0.32026
0.257204
0.161025
0.112696
0.0974432
0.098974
0.11209
0.153414
0.217037
0.290978
0.312444
0.332992
0.363127
0.422452
0.484069
0.554151
0.457151
0.346965
0.300666
0.24992
0.150201
0.121733
0.113428
0.110752
0.111706
0.110617
0.111966
0.113309
0.114427
0.109642
0.11138
0.124488
0.100594
0.133679
0.114609
0.124364
0.118643
0.12763
0.115722
0.11712
0.120236
0.119293
0.129903
0.125584
0.127363
0.127389
0.113649
0.098617
0.10517
0.0908192
0.0885249
0.124306
0.0968425
0.0706129
0.0672428
0.062302
0.0626727
0.0614394
0.0645809
0.0647739
0.069746
0.0780134
0.0763854
0.0782933
0.0771563
0.073305
0.0731646
0.000201615
0.000251232
0.000299119
0.000331434
0.000331106
0.00033062
0.000316998
0.000298816
0.000274798
0.000253651
0.000244589
0.000238611
0.000240026
0.000242885
0.000303257
0.00045164
0.000614468
0.000726089
0.000777197
0.00078692
0.000738746
0.000639228
0.000522865
0.000447689
0.000393547
0.000374285
0.000403769
0.000574298
0.000794403
0.000969556
0.00106775
0.00109852
0.00109058
0.00102266
0.000985235
0.000955836
0.000950548
0.000954095
0.000970713
0.00104572
0.00111575
0.00120358
0.00134094
0.00148772
0.00160999
0.00165855
0.00165842
0.00163877
0.0015023
0.00130684
0.0011397
0.00105265
0.00102766
0.00102924
0.00103361
0.00103529
0.00103132
0.000987363
0.000896572
0.000811581
0.000740618
0.000699914
0.000690668
0.000697139
0.000718984
0.000727161
0.000705025
0.000698925
0.000706781
0.000731572
0.000811116
0.000927999
0.00114605
0.00160603
0.00199175
0.00281089
0.00335949
0.00454695
0.00538826
0.0071351
0.00853404
0.0118407
0.0143855
0.019467
0.0248705
0.0303929
0.0401234
0.0468481
0.0600881
0.069615
0.0880012
0.104497
0.126575
0.151313
0.181416
0.212231
0.250657
0.289295
0.335571
0.374704
0.410858
0.43986
0.459571
0.470579
0.472488
0.47092
0.46628
0.457055
0.440846
0.427824
0.393597
0.373053
0.342799
0.304558
0.285557
0.242703
0.216173
0.192512
0.163332
0.149742
0.137132
0.133338
0.133983
0.135895
0.13858
0.142208
0.146621
0.160885
0.172354
0.196872
0.300947
0.380212
0.363676
0.254035
0.142515
0.0961717
0.0791549
0.0772038
0.0818039
0.100907
0.160564
0.216956
0.282487
0.29419
0.313486
0.331001
0.38214
0.469778
0.616999
0.636038
0.482367
0.43277
0.351958
0.205904
0.155925
0.139883
0.130988
0.125485
0.119612
0.113411
0.112943
0.115361
0.119046
0.122589
0.116572
0.112539
0.119249
0.116071
0.123636
0.116681
0.12118
0.116463
0.116971
0.117471
0.116945
0.129069
0.137615
0.118096
0.122163
0.114159
0.0928727
0.10272
0.127939
0.0971259
0.0760299
0.0857304
0.0709481
0.06586
0.0572869
0.0586168
0.0581818
0.0597629
0.060508
0.0616569
0.0685599
0.0672261
0.0648332
0.0671506
0.064333
0.0646896
0.00262238
0.00329609
0.00363393
0.00382319
0.0037715
0.00372183
0.00348828
0.0032478
0.00300579
0.00282528
0.00281812
0.0028036
0.0028803
0.00319614
0.00433465
0.0053942
0.0061767
0.00665341
0.00675836
0.00669566
0.00613628
0.00547682
0.00485834
0.0044737
0.00427007
0.00426115
0.00479808
0.00584714
0.006946
0.00769582
0.00815305
0.00828975
0.0082503
0.00790891
0.00765395
0.00746667
0.00740732
0.00740627
0.00748629
0.00786659
0.00819333
0.00846815
0.00888053
0.0092383
0.00945098
0.00948371
0.00943068
0.00930153
0.00896915
0.00835813
0.00781924
0.00731443
0.00691227
0.00662793
0.00637329
0.0061941
0.0059388
0.00557682
0.00522681
0.00486289
0.00460039
0.00439266
0.00426698
0.0042557
0.00426839
0.00416169
0.00414958
0.00418118
0.0042921
0.00452276
0.00508189
0.00564508
0.00694235
0.00798877
0.0101334
0.012148
0.0142309
0.0180787
0.0209069
0.0265849
0.0310006
0.0406371
0.0475529
0.0615813
0.0710629
0.0897253
0.104554
0.126444
0.149871
0.176944
0.209773
0.242956
0.286378
0.333556
0.39049
0.44085
0.496441
0.525485
0.550797
0.558649
0.564315
0.561444
0.55731
0.552515
0.541406
0.538982
0.531615
0.526027
0.522619
0.512118
0.503527
0.488297
0.459266
0.438787
0.401684
0.371925
0.342145
0.304944
0.286659
0.266096
0.247746
0.237524
0.228729
0.223641
0.222642
0.223559
0.232407
0.238834
0.251259
0.33902
0.414839
0.37398
0.224896
0.134851
0.0947143
0.0778006
0.0727629
0.0740786
0.0822232
0.104908
0.16577
0.214277