/*--------------------------------*- C++ -*----------------------------------*\
| =========                 |                                                 |
| \\      /  F ield         | OpenFOAM: The Open Source CFD Toolbox           |
|  \\    /   O peration     | Version:  2.4.0                                 |
|   \\  /    A nd           | Web:      www.OpenFOAM.org                      |
|    \\/     M anipulation  |                                                 |
\*---------------------------------------------------------------------------*/
FoamFile
{
    version     2.0;
    format      ascii;
    class       volScalarField;
    location    "1.91";
    object      nuSgs;
}
// * * * * * * * * * * * * * * * * * * * * * * * * * * * * * * * * * * * * * //

dimensions      [0 2 -1 0 0 0 0];

internalField   nonuniform List<scalar> 
8800
(
0.00133867
0.00150688
0.00139271
0.00122965
0.00112007
0.00105157
0.000996311
0.00096078
0.000925051
0.000905781
0.000878382
0.000868888
0.000846955
0.00084118
0.0008215
0.000817325
0.000799552
0.000795522
0.000786796
0.000766755
0.00055431
0.000982007
0.00108293
0.00108147
0.00106252
0.00103516
0.00100104
0.000977944
0.000948524
0.000932464
0.000906175
0.000896608
0.000875971
0.000868878
0.000852332
0.000847045
0.000832669
0.000828026
0.000814881
0.000814459
0.000135667
0.000406374
0.000583759
0.000658509
0.000705076
0.000737797
0.000750752
0.000761019
0.000760041
0.000759172
0.000754484
0.000751661
0.000744699
0.00074124
0.000735778
0.000731478
0.000726026
0.00072261
0.000713952
0.000711484
2.69139e-05
0.000125581
0.000232993
0.000308371
0.000357667
0.000396411
0.000427474
0.000455188
0.00047575
0.000490576
0.000507891
0.0005161
0.000529201
0.000534451
0.000545368
0.000548885
0.000556761
0.000558566
0.000561001
0.000559373
5.11671e-06
3.34713e-05
7.04559e-05
0.000103144
0.00014271
0.000163854
0.000190936
0.000211543
0.00023474
0.000246262
0.000269043
0.000278122
0.000296084
0.000304305
0.000321154
0.00032845
0.000344688
0.000350587
0.000362953
0.000365967
2.36507e-06
8.45181e-06
1.8192e-05
2.74375e-05
4.2311e-05
5.09073e-05
6.43617e-05
7.49728e-05
8.74434e-05
9.43063e-05
0.000109202
0.000116432
0.000127067
0.000136424
0.000145226
0.000153556
0.000164043
0.000173958
0.000179878
0.000189028
2.21728e-06
3.18757e-06
5.26034e-06
7.3206e-06
1.04711e-05
1.39595e-05
1.64869e-05
2.13497e-05
2.3812e-05
2.78089e-05
3.17833e-05
3.67719e-05
3.95383e-05
4.62139e-05
4.90327e-05
5.51446e-05
5.82662e-05
6.58568e-05
6.91848e-05
7.69499e-05
2.16967e-06
2.73439e-06
3.23728e-06
4.11189e-06
4.45391e-06
5.15529e-06
5.48308e-06
6.45829e-06
6.79702e-06
7.77531e-06
8.39234e-06
9.67385e-06
1.01589e-05
1.23065e-05
1.29835e-05
1.52545e-05
1.59787e-05
1.9025e-05
2.03807e-05
2.44734e-05
2.14376e-06
2.61888e-06
2.97764e-06
3.46605e-06
3.83817e-06
4.10929e-06
4.14309e-06
4.20466e-06
4.17161e-06
4.30514e-06
4.41853e-06
4.70895e-06
4.70551e-06
4.89356e-06
4.94705e-06
5.26735e-06
5.38591e-06
5.90088e-06
6.182e-06
7.08283e-06
2.13688e-06
2.43511e-06
2.96042e-06
3.66742e-06
3.73297e-06
3.69736e-06
3.70602e-06
3.89955e-06
3.97715e-06
4.02944e-06
4.03414e-06
4.04099e-06
4.02327e-06
4.03774e-06
4.10101e-06
4.15941e-06
4.16526e-06
4.22002e-06
4.24761e-06
4.34105e-06
2.13002e-06
2.44328e-06
3.15677e-06
3.65552e-06
3.6398e-06
3.62466e-06
3.76023e-06
3.95982e-06
3.95786e-06
3.99981e-06
4.02032e-06
4.06035e-06
4.07027e-06
4.16817e-06
4.16645e-06
4.16899e-06
4.17169e-06
4.21569e-06
4.21874e-06
4.30911e-06
2.14312e-06
2.4759e-06
3.22041e-06
3.75437e-06
3.71281e-06
3.7223e-06
4.01456e-06
4.18997e-06
4.31472e-06
4.48892e-06
4.50784e-06
4.51997e-06
4.59312e-06
4.78812e-06
4.88315e-06
5.0137e-06
5.30495e-06
5.69987e-06
5.85523e-06
6.12334e-06
2.15462e-06
2.59718e-06
3.26237e-06
4.16869e-06
4.37707e-06
4.98418e-06
5.40515e-06
6.18484e-06
6.73013e-06
8.07216e-06
8.66018e-06
9.95874e-06
1.06518e-05
1.20335e-05
1.28187e-05
1.44397e-05
1.57944e-05
1.88857e-05
2.02496e-05
2.16725e-05
2.1834e-06
3.08423e-06
5.25126e-06
8.9856e-06
1.05563e-05
1.36351e-05
1.60914e-05
2.08625e-05
2.38537e-05
3.00273e-05
3.25417e-05
3.79335e-05
4.05873e-05
4.60064e-05
4.87705e-05
5.50395e-05
5.87409e-05
6.73886e-05
7.13732e-05
7.7167e-05
2.34815e-06
8.22986e-06
1.86138e-05
3.30091e-05
3.95128e-05
5.24087e-05
6.12303e-05
7.66463e-05
8.48816e-05
0.000100854
0.000107006
0.000119758
0.000125696
0.000137958
0.000143635
0.000156576
0.000163183
0.00017878
0.000185688
0.000202848
5.22192e-06
3.30004e-05
7.27078e-05
0.000113242
0.00013291
0.000166238
0.000188802
0.000213446
0.000230355
0.000254698
0.000263877
0.000282654
0.00029129
0.00030888
0.000316423
0.000333796
0.000341709
0.000360771
0.000368465
0.000388483
2.72721e-05
0.00012385
0.000241408
0.000303918
0.000357363
0.000394741
0.000430051
0.000451924
0.000475979
0.000493836
0.00050457
0.0005183
0.000526758
0.000537312
0.000542073
0.000552329
0.000556476
0.000566575
0.000570177
0.000579431
0.000136686
0.000400636
0.000589263
0.00065379
0.000709612
0.000732965
0.000755194
0.000757056
0.000761784
0.000757865
0.000756026
0.000748889
0.000746733
0.000739307
0.000737171
0.000730939
0.000729453
0.000725171
0.000723314
0.000718964
0.000557235
0.000980317
0.0010842
0.00108047
0.00106479
0.00102929
0.00100684
0.000971904
0.000955175
0.000924326
0.000913747
0.000888983
0.000881858
0.000862498
0.000857794
0.000841069
0.00083735
0.000821493
0.000816632
0.000803524
0.00133919
0.00150582
0.00139384
0.00122682
0.00112387
0.00104634
0.00100137
0.00095529
0.000931422
0.000897497
0.000886416
0.000860169
0.000854287
0.000832184
0.000828575
0.000806863
0.000802622
0.000777806
0.000769886
0.000739853
0.000351359
0.000293472
0.000256047
0.000232954
0.000219712
0.000211791
0.000206144
0.000202599
0.000199416
0.000196921
0.000194213
0.000191908
0.000189236
0.000187279
0.000185004
0.000184005
0.00018296
0.00018263
0.000182238
0.000181803
0.00018161
0.000180962
0.000180497
0.000179252
0.000178221
0.000175689
0.000174261
0.00017111
0.000169858
0.00016708
0.000166104
0.00016398
0.000162899
0.00016023
0.000159207
0.000156813
0.000156764
0.000157088
0.000158317
0.000160873
0.000164582
0.000167697
0.000168788
0.000169847
0.000172319
0.000178835
0.000187456
0.000196083
0.000195526
0.000192351
0.000184614
0.000174204
0.000159792
0.000142105
0.000122941
0.000107648
9.60693e-05
8.71495e-05
8.14495e-05
7.69547e-05
7.42595e-05
7.29634e-05
7.30469e-05
7.33415e-05
7.33221e-05
7.35802e-05
7.35342e-05
7.32065e-05
7.27492e-05
7.13995e-05
7.06374e-05
6.90229e-05
6.80021e-05
6.62946e-05
6.59386e-05
6.61751e-05
6.72662e-05
6.96236e-05
7.49481e-05
8.01812e-05
9.0293e-05
9.94218e-05
0.000108956
0.0001164
0.000120897
0.000123399
0.00012555
0.00012589
0.000126791
0.000126808
0.000126635
0.000125956
0.000124515
0.00012188
0.000118668
0.000116114
0.000111433
0.000109291
0.000104813
0.000102922
9.93019e-05
9.77805e-05
9.57507e-05
9.44172e-05
9.43301e-05
9.36701e-05
9.35598e-05
9.35796e-05
9.38015e-05
9.37901e-05
9.37966e-05
9.35269e-05
9.29867e-05
9.23649e-05
9.09208e-05
8.89384e-05
8.66825e-05
8.32992e-05
7.89734e-05
7.3446e-05
6.63465e-05
5.81603e-05
5.04262e-05
4.3197e-05
3.68725e-05
3.16798e-05
2.81045e-05
2.53694e-05
2.38879e-05
2.2863e-05
2.20629e-05
2.19564e-05
2.11367e-05
2.00402e-05
1.95739e-05
1.94801e-05
1.96664e-05
2.08819e-05
2.4579e-05
3.21446e-05
4.75808e-05
8.51469e-05
0.000125555
0.000131014
0.000127435
0.000121542
0.000118924
0.000112674
9.75605e-05
8.81314e-05
8.28517e-05
8.00485e-05
7.64012e-05
7.44935e-05
7.34445e-05
7.26496e-05
7.22981e-05
7.22079e-05
7.41007e-05
7.82155e-05
8.11741e-05
8.11832e-05
7.84789e-05
7.46278e-05
7.28041e-05
7.21023e-05
7.08224e-05
6.87826e-05
6.75884e-05
6.74535e-05
6.81307e-05
7.10128e-05
8.24214e-05
8.78223e-05
8.84168e-05
8.59254e-05
7.44651e-05
6.64786e-05
6.48698e-05
6.51079e-05
6.70651e-05
7.24888e-05
8.0335e-05
8.29523e-05
8.29713e-05
8.19269e-05
7.90242e-05
7.21598e-05
6.50979e-05
6.05775e-05
5.49587e-05
4.99038e-05
4.9808e-05
4.90819e-05
4.98956e-05
5.59242e-05
5.9907e-05
6.85314e-05
0.000121143
0.000235013
0.000412543
0.000375122
0.000342958
0.000317187
0.000296254
0.000280032
0.000267785
0.00025832
0.000250796
0.000244687
0.000239157
0.000234216
0.000229378
0.000224966
0.000221263
0.000217613
0.000215237
0.000212182
0.000210973
0.000208493
0.000207625
0.00020574
0.000204932
0.000203143
0.000202242
0.000200362
0.00019939
0.000197448
0.000196453
0.000194697
0.000193718
0.000192113
0.000191066
0.000189694
0.000187805
0.000186818
0.000184646
0.000183631
0.000181295
0.000180409
0.000178685
0.00017775
0.000176423
0.000177057
0.000178034
0.000180786
0.000181014
0.000181486
0.000182572
0.000183842
0.000185928
0.000186055
0.000185755
0.000184044
0.00018083
0.000172673
0.000161495
0.00014696
0.000132471
0.000117577
0.000106032
9.80725e-05
9.13248e-05
8.72079e-05
8.41242e-05
8.18243e-05
8.02766e-05
7.92192e-05
7.82516e-05
7.72429e-05
7.71115e-05
7.72446e-05
7.79456e-05
7.952e-05
8.2868e-05
8.78255e-05
9.49207e-05
0.000102111
0.000110705
0.000117278
0.00012144
0.000124819
0.000125588
0.000126214
0.00012663
0.000126411
0.000125753
0.00012412
0.000122103
0.000117928
0.000114558
0.000108226
0.000102413
9.50386e-05
8.75662e-05
8.07918e-05
7.3595e-05
6.73042e-05
6.20578e-05
5.78074e-05
5.41607e-05
5.19162e-05
4.99445e-05
4.88421e-05
4.83955e-05
4.83181e-05
4.84656e-05
4.89143e-05
4.95134e-05
5.00003e-05
5.05411e-05
5.0625e-05
5.06166e-05
5.03753e-05
4.94679e-05
4.80907e-05
4.63147e-05
4.41012e-05
4.14995e-05
3.83045e-05
3.50883e-05
3.16392e-05
2.84622e-05
2.59091e-05
2.37983e-05
2.24666e-05
2.18418e-05
2.10372e-05
2.09488e-05
2.06392e-05
2.00182e-05
1.96714e-05
1.90723e-05
1.90733e-05
1.91586e-05
1.96414e-05
2.13384e-05
2.52992e-05
3.23835e-05
4.48101e-05
6.93843e-05
0.000119117
0.000133878
0.000131907
0.000125464
0.000122897
0.000119935
0.00010864
9.52757e-05
8.74519e-05
8.44543e-05
8.29791e-05
7.97781e-05
7.74323e-05
7.43024e-05
7.28352e-05
7.16265e-05
7.12768e-05
7.1122e-05
7.31473e-05
7.93812e-05
8.18521e-05
8.19034e-05
7.83027e-05
7.35813e-05
7.18776e-05
7.04665e-05
6.90341e-05
6.76387e-05
6.73309e-05
6.72521e-05
6.79428e-05
7.25503e-05
8.49101e-05
8.8036e-05
8.76502e-05
8.38106e-05
7.15269e-05
6.60616e-05
6.49475e-05
6.50136e-05
6.61316e-05
7.07959e-05
7.3156e-05
7.3313e-05
7.26489e-05
6.92083e-05
6.40759e-05
6.03056e-05
5.45675e-05
5.03432e-05
4.88388e-05
4.55843e-05
4.49753e-05
4.53641e-05
4.77444e-05
6.27024e-05
6.53872e-05
0.00010349
0.00017363
0.000371281
0.000350477
0.000331079
0.000313358
0.000297812
0.000283482
0.000271648
0.000261645
0.00025365
0.000247208
0.000241602
0.000236921
0.000232135
0.000227683
0.000223143
0.000218936
0.000215257
0.000211671
0.000209016
0.000206465
0.000204667
0.000203116
0.000201404
0.000200432
0.000198374
0.00019748
0.000195474
0.000194584
0.00019264
0.000191862
0.00019021
0.000189525
0.000188021
0.000187307
0.000185509
0.000184612
0.000182425
0.000181262
0.000178685
0.000177243
0.000174509
0.00017318
0.000170424
0.000169563
0.000167721
0.000167075
0.00016674
0.000166672
0.000167102
0.000167476
0.00016832
0.000169143
0.000171006
0.000172716
0.000175453
0.000175502
0.00017507
0.00017366
0.00017024
0.000166476
0.000159827
0.000153815
0.000145599
0.00013923
0.000131624
0.000127114
0.000122013
0.000119204
0.000116931
0.000116528
0.000116847
0.00011827
0.000119897
0.000123381
0.000125681
0.000128261
0.000130262
0.000130905
0.000130644
0.000130445
0.000129703
0.000128774
0.00012687
0.00012429
0.000120076
0.000116139
0.000109206
0.000102068
9.32937e-05
8.45079e-05
7.52142e-05
6.64303e-05
5.90355e-05
5.27808e-05
4.73177e-05
4.27247e-05
3.87209e-05
3.50077e-05
3.22448e-05
2.94843e-05
2.74949e-05
2.57663e-05
2.4499e-05
2.36473e-05
2.30913e-05
2.29275e-05
2.29687e-05
2.31658e-05
2.34625e-05
2.38584e-05
2.41897e-05
2.44267e-05
2.44608e-05
2.44293e-05
2.40756e-05
2.37182e-05
2.28451e-05
2.23412e-05
2.14357e-05
2.06661e-05
1.9994e-05
1.92141e-05
1.86927e-05
1.84855e-05
1.84009e-05
1.8569e-05
1.86971e-05
1.86915e-05
1.86073e-05
1.82852e-05
1.84917e-05
1.86007e-05
1.87582e-05
1.92312e-05
2.03878e-05
2.28823e-05
2.75154e-05
3.40414e-05
4.43411e-05
6.31099e-05
0.000107502
0.000133519
0.000135603
0.000129561
0.000125381
0.000124963
0.000120961
0.000107034
9.46391e-05
8.99963e-05
9.10579e-05
9.09481e-05
8.90675e-05
8.35219e-05
7.70402e-05
7.42786e-05
7.1902e-05
7.16535e-05
7.09075e-05
7.17455e-05
7.67265e-05
8.14932e-05
8.2542e-05
8.12431e-05
7.497e-05
7.22421e-05
7.07964e-05
6.95079e-05
6.79793e-05
6.78478e-05
6.76856e-05
6.78478e-05
6.87723e-05
7.74566e-05
8.61946e-05
8.71629e-05
8.61312e-05
7.95449e-05
7.03614e-05
6.61072e-05
6.51903e-05
6.55835e-05
6.67511e-05
6.77341e-05
6.73674e-05
6.66124e-05
6.3913e-05
5.91961e-05
5.44635e-05
5.30513e-05
4.92936e-05
4.65642e-05
4.57321e-05
4.2794e-05
4.74405e-05
4.7767e-05
6.90804e-05
6.80196e-05
7.81471e-05
0.000123162
0.000296926
0.000286167
0.000275733
0.000266524
0.000256778
0.00024786
0.000238746
0.000230298
0.000222618
0.000216496
0.000211508
0.000208428
0.00020491
0.000202607
0.00019878
0.00019562
0.000191198
0.000187647
0.000183227
0.000180548
0.000177356
0.000176057
0.000174097
0.000173403
0.000171933
0.000171252
0.000169561
0.000168681
0.000166678
0.000165792
0.000163835
0.000162978
0.00016116
0.000160286
0.000158449
0.000157481
0.000155512
0.000154391
0.000152165
0.000150432
0.000148169
0.000145201
0.000142983
0.000139784
0.000137544
0.000135685
0.000134878
0.00013443
0.00013455
0.000134923
0.000135931
0.000136894
0.000139016
0.000140819
0.000144543
0.000148907
0.00015369
0.0001574
0.000160126
0.000160519
0.000160118
0.000159072
0.000157685
0.000156002
0.000153866
0.000152306
0.000150029
0.000148837
0.00014689
0.000146128
0.000144855
0.000144186
0.000142654
0.000141716
0.00014015
0.000137891
0.00013641
0.000133313
0.000130277
0.000125989
0.000121636
0.000114373
0.000106406
9.68681e-05
8.70197e-05
7.6022e-05
6.5958e-05
5.74203e-05
5.00266e-05
4.38795e-05
3.86282e-05
3.43918e-05
3.07017e-05
2.77601e-05
2.50997e-05
2.28458e-05
2.0843e-05
1.9085e-05
1.75759e-05
1.62804e-05
1.52218e-05
1.43326e-05
1.37434e-05
1.32776e-05
1.30017e-05
1.29641e-05
1.29925e-05
1.30929e-05
1.3273e-05
1.34749e-05
1.364e-05
1.38664e-05
1.39782e-05
1.41569e-05
1.4219e-05
1.43683e-05
1.44082e-05
1.45869e-05
1.46491e-05
1.48873e-05
1.49863e-05
1.51996e-05
1.53853e-05
1.57889e-05
1.59548e-05
1.63997e-05
1.64788e-05
1.66418e-05
1.71434e-05
1.74316e-05
1.82177e-05
1.91272e-05
2.05069e-05
2.26441e-05
2.59832e-05
3.13497e-05
3.71449e-05
4.57401e-05
6.14272e-05
9.51943e-05
0.000129938
0.000137409
0.000133032
0.000127367
0.000129115
0.000129932
0.000121347
0.000106395
9.65666e-05
9.93329e-05
0.000100597
9.73666e-05
9.45202e-05
8.82651e-05
8.04786e-05
7.60919e-05
7.27291e-05
7.23918e-05
7.09746e-05
7.19672e-05
7.4499e-05
7.79298e-05
7.90457e-05
7.84344e-05
7.41046e-05
7.16706e-05
7.1112e-05
7.04601e-05
6.92595e-05
6.92865e-05
6.91795e-05
6.83502e-05
6.85836e-05
7.11946e-05
8.17057e-05
8.61147e-05
8.62669e-05
8.38129e-05
7.54927e-05
6.89269e-05
6.60903e-05
6.60592e-05
6.65795e-05
6.61525e-05
6.59535e-05
6.43415e-05
6.29197e-05
5.93003e-05
5.58427e-05
5.28038e-05
5.06156e-05
4.76247e-05
4.94096e-05
4.85999e-05
5.89769e-05
5.38999e-05
6.55203e-05
6.8162e-05
6.98152e-05
8.97132e-05
0.000197037
0.000193577
0.000188178
0.000185768
0.000181368
0.000177852
0.000173309
0.000167376
0.00016272
0.000156172
0.000152423
0.000149336
0.000148034
0.000147312
0.000146637
0.00014629
0.000144713
0.000142999
0.000138809
0.000135663
0.00013174
0.00012929
0.000127287
0.000125999
0.000125331
0.000124488
0.00012412
0.000123282
0.000122634
0.000121914
0.000121044
0.000119975
0.000118825
0.000116736
0.000115022
0.000112586
0.000110677
0.000108696
0.00010695
0.000105334
0.000104513
0.000103158
0.000101547
9.89003e-05
9.6408e-05
9.33747e-05
9.10128e-05
8.95842e-05
8.9577e-05
8.98508e-05
9.11518e-05
9.22476e-05
9.46349e-05
9.62416e-05
9.96649e-05
0.000102242
0.000107129
0.000110993
0.000117636
0.00012194
0.000128162
0.000131227
0.000135249
0.000137089
0.000138785
0.000139107
0.000139004
0.000138527
0.000137769
0.000136374
0.000134493
0.000132465
0.000129799
0.000126342
0.00012277
0.000117648
0.000111997
0.000105129
9.73957e-05
8.88985e-05
7.88486e-05
6.96751e-05
6.12286e-05
5.35408e-05
4.65892e-05
4.03271e-05
3.48171e-05
3.00297e-05
2.59837e-05
2.26868e-05
2.00916e-05
1.80543e-05
1.64824e-05
1.52948e-05
1.43259e-05
1.35086e-05
1.29101e-05
1.24323e-05
1.19947e-05
1.17809e-05
1.15402e-05
1.13925e-05
1.12617e-05
1.12228e-05
1.12078e-05
1.12635e-05
1.13743e-05
1.15138e-05
1.15914e-05
1.16395e-05
1.16471e-05
1.16506e-05
1.16759e-05
1.17072e-05
1.18336e-05
1.19185e-05
1.21973e-05
1.24183e-05
1.2754e-05
1.3319e-05
1.35669e-05
1.40234e-05
1.43289e-05
1.47863e-05
1.49819e-05
1.53283e-05
1.55607e-05
1.59455e-05
1.70224e-05
1.84036e-05
2.13824e-05
2.38195e-05
2.67538e-05
3.05933e-05
3.55781e-05
4.10637e-05
4.86578e-05
6.26552e-05
9.03986e-05
0.000122964
0.000137534
0.000137287
0.000128497
0.000128132
0.00013555
0.000133144
0.000120822
0.000106628
0.000104281
0.000105727
0.000102911
9.80059e-05
9.50942e-05
8.95841e-05
8.37127e-05
7.72605e-05
7.43125e-05
7.40847e-05
7.17666e-05
7.37253e-05
7.35351e-05
7.45973e-05
7.46181e-05
7.41674e-05
7.19279e-05
7.17044e-05
7.17198e-05
7.27959e-05
7.37578e-05
7.352e-05
7.27481e-05
7.00515e-05
6.92552e-05
6.99817e-05
7.75322e-05
8.41679e-05
8.57795e-05
8.52676e-05
7.87883e-05
7.37057e-05
6.91963e-05
6.70889e-05
6.74984e-05
6.65258e-05
6.62308e-05
6.4669e-05
6.31262e-05
6.09777e-05
5.58091e-05
5.6405e-05
5.85693e-05
5.7582e-05
6.55393e-05
6.25738e-05
6.64258e-05
6.38611e-05
6.39609e-05
6.86585e-05
6.97606e-05
7.77289e-05
0.000102694
0.000101984
0.000100266
9.97883e-05
9.86994e-05
9.80112e-05
9.68425e-05
9.39271e-05
9.21342e-05
8.76058e-05
8.49753e-05
8.2556e-05
8.18784e-05
8.18501e-05
8.22972e-05
8.36547e-05
8.39355e-05
8.4246e-05
8.40129e-05
8.27225e-05
7.95643e-05
7.68963e-05
7.47927e-05
7.32171e-05
7.26218e-05
7.19717e-05
7.18474e-05
7.16054e-05
7.14882e-05
7.12102e-05
7.07998e-05
7.04576e-05
7.01896e-05
6.9917e-05
6.90108e-05
6.72672e-05
6.46587e-05
6.27389e-05
6.05009e-05
5.92177e-05
5.8082e-05
5.72008e-05
5.66385e-05
5.64728e-05
5.61255e-05
5.52085e-05
5.3308e-05
5.13476e-05
5.04349e-05
5.03684e-05
5.06255e-05
5.17834e-05
5.31105e-05
5.55671e-05
5.73788e-05
5.94653e-05
6.29825e-05
6.55891e-05
7.0191e-05
7.41154e-05
7.7632e-05
8.17514e-05
8.45695e-05
8.74156e-05
8.99812e-05
9.19816e-05
9.39774e-05
9.45492e-05
9.43074e-05
9.34916e-05
9.16972e-05
8.87259e-05
8.53326e-05
8.06765e-05
7.60223e-05
7.07653e-05
6.52554e-05
5.97288e-05
5.41458e-05
4.88292e-05
4.36973e-05
3.89065e-05
3.433e-05
2.99763e-05
2.59134e-05
2.22542e-05
1.89406e-05
1.63013e-05
1.40868e-05
1.24817e-05
1.14408e-05
1.07303e-05
1.03592e-05
1.02938e-05
1.03738e-05
1.05445e-05
1.0813e-05
1.09849e-05
1.11555e-05
1.14788e-05
1.167e-05
1.20593e-05
1.2504e-05
1.27618e-05
1.32542e-05
1.37556e-05
1.41183e-05
1.42402e-05
1.41769e-05
1.40386e-05
1.37604e-05
1.34853e-05
1.31215e-05
1.29521e-05
1.29171e-05
1.29553e-05
1.33068e-05
1.35108e-05
1.41067e-05
1.43909e-05
1.4966e-05
1.51414e-05
1.52687e-05
1.5368e-05
1.55487e-05
1.58755e-05
1.65069e-05
1.7692e-05
2.10087e-05
2.44232e-05
2.85418e-05
3.1761e-05
3.57278e-05
4.05793e-05
4.54246e-05
5.31349e-05
6.64861e-05
9.30483e-05
0.0001199
0.000133923
0.000136277
0.000130092
0.000125501
0.000133936
0.000139848
0.00013397
0.000120981
0.000109705
0.000107959
0.000106818
0.000102228
9.71544e-05
9.39886e-05
9.09273e-05
8.51554e-05
7.80986e-05
7.74118e-05
7.68686e-05
7.40809e-05
7.4449e-05
7.39138e-05
7.38212e-05
7.45742e-05
7.46452e-05
7.30518e-05
7.27871e-05
7.48155e-05
7.69767e-05
7.87038e-05
7.84958e-05
7.60422e-05
7.2837e-05
7.0596e-05
7.07265e-05
7.68894e-05
8.35218e-05
8.56234e-05
8.64829e-05
8.38937e-05
7.61321e-05
7.4619e-05
7.09221e-05
6.82822e-05
6.80792e-05
6.698e-05
6.75916e-05
6.38263e-05
6.68377e-05
6.33182e-05
6.38527e-05
7.18556e-05
6.63713e-05
6.74135e-05
6.43839e-05
6.24925e-05
6.28447e-05
6.40731e-05
6.88079e-05
7.0301e-05
7.43255e-05
4.19206e-05
4.16666e-05
4.10064e-05
4.09604e-05
4.07796e-05
4.07563e-05
4.06526e-05
4.00176e-05
3.95677e-05
3.78457e-05
3.6787e-05
3.56747e-05
3.53116e-05
3.52574e-05
3.55167e-05
3.69107e-05
3.77264e-05
3.83587e-05
3.84461e-05
3.83649e-05
3.72996e-05
3.59666e-05
3.47745e-05
3.41047e-05
3.3883e-05
3.38347e-05
3.38995e-05
3.38759e-05
3.37526e-05
3.324e-05
3.28792e-05
3.27357e-05
3.27985e-05
3.30297e-05
3.31305e-05
3.31341e-05
3.26231e-05
3.09792e-05
2.90508e-05
2.75874e-05
2.68258e-05
2.67083e-05
2.70076e-05
2.75661e-05
2.79225e-05
2.80794e-05
2.75903e-05
2.61103e-05
2.51042e-05
2.48137e-05
2.48877e-05
2.548e-05
2.63487e-05
2.82311e-05
2.9558e-05
3.08028e-05
3.30562e-05
3.44122e-05
3.68226e-05
3.95831e-05
4.19918e-05
4.49446e-05
4.72207e-05
4.92106e-05
5.08494e-05
5.18398e-05
5.30881e-05
5.33358e-05
5.31348e-05
5.2558e-05
5.13245e-05
4.93646e-05
4.7238e-05
4.45164e-05
4.16322e-05
3.85324e-05
3.52964e-05
3.21996e-05
2.92242e-05
2.64854e-05
2.39571e-05
2.14024e-05
1.90043e-05
1.65371e-05
1.43318e-05
1.23915e-05
1.08187e-05
9.80759e-06
9.08739e-06
8.76527e-06
8.75358e-06
8.82221e-06
9.01467e-06
9.49897e-06
1.01657e-05
1.06957e-05
1.19514e-05
1.27467e-05
1.40029e-05
1.54577e-05
1.63313e-05
1.78447e-05
1.88644e-05
1.97344e-05
2.08683e-05
2.16008e-05
2.22993e-05
2.24059e-05
2.23061e-05
2.20237e-05
2.14698e-05
2.07204e-05
1.98232e-05
1.90629e-05
1.85584e-05
1.85151e-05
1.85577e-05
1.88265e-05
1.97665e-05
2.03531e-05
2.1024e-05
2.09079e-05
2.09144e-05
2.09423e-05
2.11073e-05
2.15634e-05
2.26143e-05
2.48468e-05
2.91047e-05
3.28108e-05
3.70588e-05
4.13076e-05
4.57347e-05
5.06389e-05
5.93498e-05
7.3615e-05
0.000101234
0.000118355
0.000131167
0.000133873
0.000129034
0.000121722
0.000123934
0.000140525
0.000142692
0.000133908
0.000123461
0.000115489
0.000109322
0.000107008
0.00010115
9.62911e-05
9.37861e-05
9.13992e-05
8.50411e-05
7.88736e-05
7.86698e-05
8.11697e-05
8.03288e-05
7.66113e-05
7.60411e-05
7.41429e-05
7.53153e-05
7.61531e-05
7.83627e-05
7.71746e-05
7.8518e-05
8.03202e-05
7.96328e-05
7.91462e-05
7.71421e-05
7.41109e-05
7.31323e-05
7.39793e-05
7.86745e-05
8.37888e-05
8.61677e-05
8.68455e-05
8.63708e-05
7.97489e-05
7.56153e-05
7.5288e-05
7.03517e-05
6.96456e-05
6.77622e-05
6.89658e-05
6.48255e-05
6.53079e-05
7.5486e-05
6.87636e-05
7.54399e-05
7.09171e-05
7.23452e-05
6.81204e-05
6.8201e-05
6.54371e-05
6.55678e-05
6.81067e-05
7.10149e-05
7.3578e-05
1.39762e-05
1.39871e-05
1.38846e-05
1.38793e-05
1.38257e-05
1.38086e-05
1.37882e-05
1.36103e-05
1.34398e-05
1.29004e-05
1.2639e-05
1.23586e-05
1.22738e-05
1.22608e-05
1.23555e-05
1.2805e-05
1.30817e-05
1.32954e-05
1.33333e-05
1.33286e-05
1.31373e-05
1.30108e-05
1.29669e-05
1.2987e-05
1.30652e-05
1.30998e-05
1.30753e-05
1.27246e-05
1.2279e-05
1.18794e-05
1.16192e-05
1.15697e-05
1.17379e-05
1.22422e-05
1.25541e-05
1.26649e-05
1.25727e-05
1.19708e-05
1.10747e-05
1.0466e-05
1.01856e-05
1.01834e-05
1.04713e-05
1.08212e-05
1.1036e-05
1.10876e-05
1.08354e-05
1.03334e-05
1.01037e-05
1.00893e-05
1.01876e-05
1.07025e-05
1.12433e-05
1.22672e-05
1.3057e-05
1.36602e-05
1.48337e-05
1.5607e-05
1.68515e-05
1.85891e-05
2.04983e-05
2.23803e-05
2.37906e-05
2.50436e-05
2.61021e-05
2.63869e-05
2.66797e-05
2.69882e-05
2.69221e-05
2.67143e-05
2.62869e-05
2.55762e-05
2.43978e-05
2.2848e-05
2.10185e-05
1.92955e-05
1.74584e-05
1.59763e-05
1.45766e-05
1.3391e-05
1.22582e-05
1.10985e-05
1.01127e-05
9.19028e-06
8.58792e-06
8.34984e-06
8.2091e-06
8.24336e-06
8.37963e-06
8.65277e-06
9.34572e-06
1.00693e-05
1.09723e-05
1.28059e-05
1.41649e-05
1.60016e-05
1.90279e-05
2.05909e-05
2.32885e-05
2.57808e-05
2.76614e-05
2.9968e-05
3.16145e-05
3.32979e-05
3.46308e-05
3.56293e-05
3.63058e-05
3.62881e-05
3.60416e-05
3.55355e-05
3.44213e-05
3.33088e-05
3.20422e-05
3.06209e-05
2.94726e-05
2.85046e-05
2.77561e-05
2.77755e-05
2.78991e-05
2.86271e-05
2.90573e-05
2.90295e-05
2.91287e-05
2.91594e-05
2.94254e-05
3.02097e-05
3.14505e-05
3.49177e-05
3.79114e-05
4.19523e-05
4.70548e-05
5.16471e-05
5.6985e-05
6.68147e-05
8.55557e-05
0.000111103
0.000121639
0.000126508
0.000128921
0.000125383
0.000113958
0.00011364
0.000124325
0.000146081
0.00014328
0.000135889
0.000135893
0.000121345
0.000115519
0.00011191
0.00010517
0.000100331
9.79703e-05
9.25031e-05
8.53061e-05
8.07825e-05
8.05766e-05
8.25619e-05
8.49075e-05
7.89227e-05
7.79912e-05
7.48678e-05
7.52079e-05
7.532e-05
7.65736e-05
8.01457e-05
7.89922e-05
8.00978e-05
7.99873e-05
7.85833e-05
7.78607e-05
7.6494e-05
7.59463e-05
7.75442e-05
8.22544e-05
8.48833e-05
8.77048e-05
8.75478e-05
8.74374e-05
8.39543e-05
7.67837e-05
7.59961e-05
7.26459e-05
7.09962e-05
6.61823e-05
6.79463e-05
6.9599e-05
6.67692e-05
7.74348e-05
7.36707e-05
7.53603e-05
7.26905e-05
7.04749e-05
6.95953e-05
6.92355e-05
6.93747e-05
6.88407e-05
6.91259e-05
7.19323e-05
7.32465e-05
3.96075e-06
4.01274e-06
4.14285e-06
4.18885e-06
4.18598e-06
4.1748e-06
4.16631e-06
4.10419e-06
4.07571e-06
4.01547e-06
3.97471e-06
3.92471e-06
3.89933e-06
3.88786e-06
3.88443e-06
3.88991e-06
3.90948e-06
3.98248e-06
4.03551e-06
4.08912e-06
4.11316e-06
4.14196e-06
4.1811e-06
4.24974e-06
4.30515e-06
4.32364e-06
4.31917e-06
4.22472e-06
4.10295e-06
3.97535e-06
3.89145e-06
3.85183e-06
3.86329e-06
3.93543e-06
4.0165e-06
4.05154e-06
4.05808e-06
4.02319e-06
3.85797e-06
3.72277e-06
3.63308e-06
3.60789e-06
3.61573e-06
3.65723e-06
3.71033e-06
3.78325e-06
3.82574e-06
3.82923e-06
3.82903e-06
3.8477e-06
3.91763e-06
4.09151e-06
4.25689e-06
4.63269e-06
5.02465e-06
5.26438e-06
5.72834e-06
6.25504e-06
6.74441e-06
7.80413e-06
8.82325e-06
9.77909e-06
1.0464e-05
1.10578e-05
1.14161e-05
1.14316e-05
1.13812e-05
1.16227e-05
1.1924e-05
1.19656e-05
1.19059e-05
1.17261e-05
1.13136e-05
1.0477e-05
9.51622e-06
8.74925e-06
8.01444e-06
7.48998e-06
7.16197e-06
6.88331e-06
6.77746e-06
6.81574e-06
6.92165e-06
7.11517e-06
7.56825e-06
8.10351e-06
9.00381e-06
1.02959e-05
1.17017e-05
1.30274e-05
1.54947e-05
1.69518e-05
1.95808e-05
2.19611e-05
2.50162e-05
2.85439e-05
3.23248e-05
3.53679e-05
3.93007e-05
4.30118e-05
4.59429e-05
4.93189e-05
5.21148e-05
5.45907e-05
5.62633e-05
5.79298e-05
5.81223e-05
5.78483e-05
5.70567e-05
5.58189e-05
5.36057e-05
5.191e-05
4.98766e-05
4.75879e-05
4.59839e-05
4.34945e-05
4.19518e-05
4.07952e-05
3.95534e-05
3.96712e-05
3.93863e-05
3.92965e-05
3.9256e-05
3.9316e-05
3.98968e-05
4.08259e-05
4.22765e-05
4.6294e-05
4.89947e-05
5.33854e-05
5.96627e-05
6.52103e-05
7.57863e-05
9.9357e-05
0.00012304
0.000127485
0.000126727
0.000119621
0.000110153
0.000108353
0.00010736
0.000111785
0.000129307
0.000148433
0.000141694
0.000147996
0.000149084
0.000139795
0.000135668
0.000130537
0.00012141
0.000112772
0.000106964
9.45387e-05
8.54087e-05
8.20895e-05
8.21957e-05
8.24763e-05
8.63959e-05
8.00423e-05
8.27582e-05
7.78646e-05
7.9625e-05
7.56299e-05
7.47292e-05
7.71972e-05
7.89506e-05
7.99943e-05
8.15357e-05
8.11957e-05
8.27617e-05
8.48905e-05
8.39112e-05
8.39986e-05
8.59906e-05
8.70574e-05
8.98869e-05
8.99461e-05
8.78899e-05
8.72645e-05
8.18383e-05
7.6163e-05
7.38806e-05
7.34276e-05
6.87016e-05
6.81476e-05
8.25271e-05
7.39875e-05
6.94136e-05
7.06784e-05
6.80898e-05
6.99492e-05
7.00957e-05
7.22146e-05
7.10661e-05
7.12069e-05
7.39383e-05
7.24516e-05
7.48797e-05
7.43586e-05
2.37696e-06
2.39686e-06
2.45083e-06
2.54873e-06
2.55573e-06
2.54798e-06
2.5232e-06
2.51352e-06
2.51529e-06
2.52703e-06
2.52973e-06
2.53098e-06
2.52836e-06
2.51737e-06
2.50394e-06
2.49705e-06
2.49513e-06
2.49696e-06
2.52104e-06
2.55321e-06
2.56377e-06
2.56519e-06
2.55442e-06
2.55494e-06
2.58919e-06
2.63236e-06
2.65139e-06
2.65202e-06
2.65046e-06
2.66071e-06
2.69621e-06
2.70862e-06
2.70386e-06
2.66056e-06
2.6288e-06
2.60381e-06
2.59816e-06
2.58818e-06
2.58805e-06
2.59238e-06
2.60389e-06
2.60949e-06
2.63434e-06
2.67522e-06
2.71889e-06
2.72881e-06
2.74142e-06
2.74514e-06
2.7584e-06
2.76428e-06
2.77164e-06
2.77741e-06
2.79121e-06
2.81979e-06
2.90261e-06
2.96917e-06
3.13592e-06
3.33497e-06
3.44892e-06
3.6708e-06
3.95623e-06
4.17769e-06
4.42143e-06
4.63352e-06
4.8025e-06
4.81213e-06
4.78466e-06
4.83504e-06
4.99275e-06
5.12261e-06
5.16729e-06
5.17988e-06
5.14415e-06
5.15099e-06
5.18162e-06
5.20968e-06
5.26574e-06
5.37013e-06
5.63623e-06
5.90599e-06
6.44348e-06
6.96416e-06
8.03844e-06
9.11516e-06
1.14085e-05
1.30673e-05
1.62548e-05
1.8177e-05
2.14643e-05
2.3886e-05
2.76112e-05
3.00539e-05
3.49534e-05
3.80916e-05
4.33873e-05
4.82127e-05
5.2975e-05
5.84926e-05
6.30845e-05
6.88153e-05
7.29857e-05
7.79362e-05
8.22058e-05
8.53634e-05
8.84118e-05
9.03588e-05
9.0365e-05
8.96471e-05
8.82735e-05
8.4867e-05
8.2171e-05
7.80976e-05
7.43685e-05
7.17167e-05
6.69723e-05
6.47118e-05
6.10625e-05
5.7675e-05
5.64831e-05
5.35967e-05
5.29801e-05
5.22296e-05
5.16206e-05
5.21916e-05
5.27276e-05
5.36935e-05
5.70269e-05
5.95054e-05
6.28141e-05
7.09097e-05
7.63062e-05
8.62159e-05
0.00011415
0.00013558
0.000135554
0.000130354
0.000113169
9.6816e-05
9.32442e-05
9.53479e-05
0.000101186
0.000114269
0.000136628
0.000147148
0.00014709
0.000155116
0.000163576
0.000169405
0.000165086
0.00015449
0.000137855
0.000126337
0.00011673
9.49802e-05
8.6128e-05
8.33085e-05
8.28557e-05
8.51054e-05
8.59107e-05
8.45755e-05
8.59917e-05
8.45754e-05
8.70147e-05
7.64103e-05
8.74255e-05
8.09772e-05
8.485e-05
8.21172e-05
8.79253e-05
8.77956e-05
8.6386e-05
8.74177e-05
8.80207e-05
8.79869e-05
8.84508e-05
9.0997e-05
9.0504e-05
9.22928e-05
9.05654e-05
8.79924e-05
8.56233e-05
7.84943e-05
7.34853e-05
7.54459e-05
8.46357e-05
7.26135e-05
7.06569e-05
7.11021e-05
6.7383e-05
6.69595e-05
6.57909e-05
6.73824e-05
6.81408e-05
7.19595e-05
7.24368e-05
7.21829e-05
7.46741e-05
7.31475e-05
7.46101e-05
7.38939e-05
2.39191e-06
2.4218e-06
2.48373e-06
2.58453e-06
2.62165e-06
2.6277e-06
2.62227e-06
2.59976e-06
2.58146e-06
2.57174e-06
2.56533e-06
2.56226e-06
2.55072e-06
2.53605e-06
2.53703e-06
2.58069e-06
2.77893e-06
2.93363e-06
3.03943e-06
3.08205e-06
3.07319e-06
2.98897e-06
2.82964e-06
2.68726e-06
2.56465e-06
2.50084e-06
2.49903e-06
2.68355e-06
3.03121e-06
3.34606e-06
3.52163e-06
3.59575e-06
3.59157e-06
3.45439e-06
3.31474e-06
3.20941e-06
3.17424e-06
3.16968e-06
3.22281e-06
3.38429e-06
3.52956e-06
3.60103e-06
3.68997e-06
3.8417e-06
4.09614e-06
4.26133e-06
4.33109e-06
4.32707e-06
4.29503e-06
4.12447e-06
3.82938e-06