/*--------------------------------*- C++ -*----------------------------------*\
| =========                 |                                                 |
| \\      /  F ield         | OpenFOAM: The Open Source CFD Toolbox           |
|  \\    /   O peration     | Version:  2.4.0                                 |
|   \\  /    A nd           | Web:      www.OpenFOAM.org                      |
|    \\/     M anipulation  |                                                 |
\*---------------------------------------------------------------------------*/
FoamFile
{
    version     2.0;
    format      ascii;
    class       volScalarField;
    location    "1.91";
    object      pPrime2Mean;
}
// * * * * * * * * * * * * * * * * * * * * * * * * * * * * * * * * * * * * * //

dimensions      [0 4 -4 0 0 0 0];

internalField   nonuniform List<scalar> 
8800
(
338724
330182
321018
311932
302970
294138
285437
276865
268424
260113
251930
243876
235947
228139
220444
212850
205323
197811
190173
181986
338736
330184
321018
311932
302970
294138
285437
276865
268424
260113
251931
243876
235947
228140
220446
212854
205331
197828
190215
182125
338743
330183
321015
311930
302969
294138
285437
276865
268424
260113
251931
243877
235948
228143
220451
212862
205347
197861
190292
182394
338749
330183
321013
311929
302969
294137
285436
276865
268424
260113
251931
243878
235950
228146
220457
212874
205370
197908
190399
182708
338754
330183
321011
311927
302968
294137
285436
276865
268424
260113
251932
243879
235952
228150
220465
212888
205399
197967
190528
183034
338758
330183
321010
311926
302968
294137
285436
276865
268424
260114
251933
243880
235955
228155
220474
212906
205433
198034
190670
183351
338761
330184
321009
311925
302967
294137
285436
276865
268424
260114
251933
243882
235958
228161
220485
212926
205472
198108
190819
183652
338763
330184
321008
311924
302967
294137
285436
276865
268425
260114
251934
243884
235962
228167
220497
212948
205512
198185
190968
183932
338764
330184
321007
311923
302966
294137
285437
276865
268425
260115
251935
243886
235966
228174
220509
212971
205555
198264
191114
184190
338765
330184
321007
311923
302966
294137
285437
276865
268425
260115
251936
243888
235969
228181
220522
212994
205598
198341
191254
184425
338765
330184
321007
311923
302966
294137
285437
276866
268425
260116
251938
243890
235973
228188
220535
213017
205640
198417
191386
184637
338764
330184
321007
311923
302966
294137
285437
276866
268426
260117
251939
243892
235977
228195
220548
213040
205681
198489
191508
184827
338763
330184
321008
311924
302967
294137
285437
276866
268426
260117
251940
243894
235981
228201
220560
213061
205719
198555
191618
184994
338761
330184
321009
311925
302967
294138
285437
276866
268427
260118
251941
243896
235984
228208
220571
213081
205754
198615
191716
185139
338758
330184
321010
311926
302968
294138
285437
276867
268427
260119
251942
243898
235987
228213
220581
213099
205785
198668
191800
185263
338754
330183
321011
311927
302968
294138
285437
276867
268428
260119
251943
243899
235990
228218
220590
213115
205812
198713
191872
185366
338749
330183
321013
311929
302969
294138
285437
276867
268428
260120
251944
243901
235992
228222
220597
213127
205834
198750
191929
185448
338743
330183
321015
311931
302970
294139
285438
276868
268428
260120
251945
243902
235994
228225
220602
213137
205851
198777
191972
185509
338736
330184
321018
311932
302970
294139
285438
276868
268429
260121
251945
243902
235995
228227
220606
213144
205862
198796
192001
185549
338724
330182
321018
311933
302971
294139
285438
276868
268429
260121
251945
243903
235996
228228
220608
213147
205868
198805
192015
185569
174566
172567
171043
169724
168502
167340
166219
165129
164063
163017
161986
160968
159961
158964
157975
156993
156016
155045
154078
153115
152156
151201
150251
149304
148362
147423
146488
145557
144628
143703
142781
141862
140948
140038
139133
138233
137338
136447
135560
134677
133797
132920
132046
131174
130305
129439
128575
127715
126858
126004
125153
124305
123459
122615
121773
120934
120097
119265
118435
117609
116784
115963
115143
114326
113510
112698
111889
111083
110280
109480
108683
107888
107095
106303
105513
104725
103939
103155
102374
101596
100823
100054
99290.2
98530.4
97774.6
97022.5
96273.9
95528.7
94786.8
94048
93312.1
92578.9
91847.8
91119
90392
89667.2
88944.4
88224
87505.7
86790.2
86077.3
85368
84661.8
83959.8
83261.5
82567.8
81878.1
81193.1
80511.9
79835.3
79162.2
78493.5
77828
77166.3
76507.3
75851.2
75197.2
74545.6
73896.3
73249.8
72605.9
71965.4
71327
70691.7
70057.7
69426.7
68796.7
68170
67544.3
66921.4
66299.5
65679.7
65061.2
64444.3
63829.2
63216.1
62605.2
61996.8
61391
60788.6
60189.1
59593.3
59000.7
58411.6
57825.5
57242.6
56662.7
56085.8
55511.4
54939.8
54370.5
53803.6
53238.6
52675.5
52114.3
51555.3
50998.2
50444.1
49892.7
49344.6
48799.2
48258.1
47720
47187.2
46657.6
46133.9
45613.6
45099.8
44589.7
44087.1
43586.9
43095.7
42604.2
42123.4
41640.1
41168.9
40693.1
40231.2
39762.1
39307.5
38845.3
38396.8
37941.2
37495.5
37044.7
36598.1
36147
35695.9
35237.6
34775.5
34301.8
33819.3
33318.8
32802.6
32259
31689
31076.4
30408
29697.4
28827.5
175989
173860
172124
170629
169276
168012
166809
165651
164528
163431
162357
161301
160260
159233
158217
157211
156213
155222
154238
153259
152286
151319
150357
149400
148448
147501
146558
145619
144684
143753
142826
141903
140985
140071
139163
138259
137360
136465
135575
134689
133806
132927
132050
131177
130306
129438
128574
127712
126854
125999
125146
124297
123450
122606
121764
120924
120088
119255
118425
117598
116774
115952
115132
114315
113500
112688
111878
111072
110269
109468
108671
107876
107082
106291
105501
104714
103928
103145
102366
101590
100818
100051
99288.4
98530.1
97775.8
97025.2
96278
95534.2
94793.6
94056
93321.2
92588.8
91858.4
91130.1
90403.6
89679.1
88956.6
88236.3
87518.3
86803
86090.4
85381.4
84675.6
83973.9
83276.1
82582.4
81892.9
81207.6
80526.6
79849.7
79176.9
78508.1
77842.8
77180.9
76521.7
75865
75210.7
74558.7
73909.3
73263
72619.6
71979.5
71341.9
70707.1
70074
69443.5
68814.4
68187.7
67562.5
66939.2
66317.4
65697.2
65078.5
64461.6
63846.6
63233.9
62623.6
62016.1
61411.3
60810
60212
59617.5
59026.6
58438.9
57854.4
57272.9
56694.5
56118.8
55545.7
54975
54406.8
53840.7
53276.3
52713.4
52152
51592.5
51034.7
50479.5
49926.8
49376.9
48830.1
48287.1
47747.2
47211.8
46679.6
46152.3
45628.6
45110.5
44595.7
44088
43582.1
43084.4
42586.2
42097.3
41606.2
41125.9
40641.3
40168.3
39689.7
39221.9
38749.7
38285.3
37818.7
37355.4
36891.3
36426.2
35959
35488
35011.8
34527.4
34033.1
33523.9
32998.5
32448.4
31873.6
31252.9
30608.6
29845.4
29080.7
28227.5
176976
174864
173047
171446
169997
168649
167374
166154
164977
163834
162718
161626
160553
159496
158454
157424
156405
155396
154394
153400
152414
151434
150460
149493
148532
147576
146625
145680
144739
143802
142870
141943
141020
140103
139190
138283
137381
136483
135589
134700
133814
132932
132054
131178
130306
129437
128571
127708
126848
125992
125139
124288
123441
122596
121754
120914
120078
119244
118414
117587
116762
115940
115121
114304
113489
112677
111868
111061
110258
109457
108659
107864
107071
106280
105490
104704
103919
103137
102359
101585
100815
100049
99288.3
98531.7
97779
97030
96284.4
95542
94802.9
94066.6
93332.8
92601.3
91871.6
91143.9
90417.9
89693.8
88971.6
88251.7
87534.1
86819.2
86107.4
85398.7
84693.6
83992.1
83294.7
82600.9
81911.5
81226.1
80545.1
79868.2
79195.5
78526.5
77861.1
77198.7
76539.1
75881.8
75227
74574.7
73925.4
73279.5
72636.8
71997.2
71360.4
70726.2
70094.1
69464
68835.8
68209.2
67584.3
66960.5
66338.5
65717.6
65098.7
64481.4
63866.6
63254.3
62644.5
62037.8
61434.1
60834
60237.5
59644.6
59055.5
58469.6
57887
57307.1
56730.2
56155.7
55583.8
55014.1
54447.1
53881.6
53317.6
52754.7
52193
51632.4
51073.8
50517.2
49963
49411.3
48862.9
48318.1
47776.3
47238.5
46703.8
46172.9
45645.7
45123.6
44604
44090.9
43579.1
43074.2
42568.8
42071.3
41572.2
41081.6
40588.8
40103.6
39616.9
39135.1
38653.7
38173.8
37696.1
37216.1
36738.6
36255.5
35773.6
35282.3
34790.8
34283.6
33772.8
33236.2
32693.4
32106.5
31518.1
30843.5
30190
29384.1
28592.6
27780
177729
175672
173832
172173
170655
169242
167907
166633
165407
164221
163066
161940
160836
159751
158684
157632
156592
155564
154547
153538
152538
151546
150561
149584
148614
147650
146691
145739
144792
143850
142913
141981
141055
140133
139217
138306
137400
136499
135603
134710
133822
132938
132057
131179
130305
129434
128567
127703
126842
125985
125131
124279
123431
122586
121743
120904
120067
119233
118403
117575
116751
115929
115109
114293
113478
112667
111858
111051
110248
109447
108649
107854
107061
106270
105481
104695
103912
103131
102354
101582
100813
100050
99290.3
98535.3
97784.3
97036.8
96292.8
95552.1
94814.4
94079.4
93346.7
92616
91887.1
91159.8
90434.4
89710.7
88989.2
88269.7
87552.9
86838.7
86127.7
85419.6
84715
84013.8
83316.5
82622.6
81933.2
81247.6
80566.5
79889.4
79216.6
78547.2
77881.6
77218.5
76558.3
75900.2
75244.9
74592.4
73943.5
73297.9
72656
72017
71381.2
70747.6
70116.4
69486.7
68859.1
68232.8
67607.9
66983.7
66361.2
65739.5
65120.3
64502.7
63888
63275.9
62666.7
62060.6
61458.2
60859.2
60264.2
59673
59085.7
58501.7
57920.8
57342.5
56767.3
56194
55623.6
55055.1
54489.2
53924.1
53360.3
52797
52235
51673.1
51113.3
50554.8
49998.8
49445.4
48895.8
48348.7
47805.3
47264.9
46728
46193.7
45663.6
45137
44613.1
44094.1
43576.7
43064
42551.7
42044.4
41538
41036.4
40536
40038.7
39543.6
39048.7
38557.6
38063.3
37574
37078.1
36588
36086.8
35592.8
35080.4
34577.4
34045.1
33524.7
32956.9
32408.3
31781.3
31189.5
30475.7
29802.3
29011.8
28223.9
27444.4
178336
176335
174499
172811
171249
169787
168403
167083
165814
164589
163400
162241
161108
159997
158906
157832
156774
155728
154694
153671
152659
151655
150660
149673
148693
147721
146756
145797
144844
143897
142955
142019
141089
140164
139244
138330
137420
136516
135616
134721
133830
132943
132060
131181
130305
129433
128564
127699
126837
125979
125123
124271
123422
122577
121734
120894
120057
119223
118393
117565
116740
115919
115099
114283
113469
112657
111849
111043
110240
109439
108641
107846
107053
106262
105474
104688
103906
103127
102351
101580
100814
100052
99294
98540.6
97791.1
97045.3
96302.9
95563.7
94827.6
94093.9
93362.4
92632.5
91904.4
91177.8
90453
89729.8
89008.9
88290.1
87574.2
86860.7
86150.4
85442.8
84738.7
84037.5
83340.1
82646.1
81956.4
81270.6
80589.3
79912
79239
78569.1
77903
77239.2
76578.4
75919.5
75263.9
74611.1
73962.4
73317
72675.8
72037.4
71402.4
70769.3
70138.8
69509.7
68882.6
68256.3
67631.2
67006.4
66383.3
65761.1
65141.6
64523.9
63909.4
63297.4
62688.8
62083.2
61482.1
60884
60290.7
59700.9
59115.4
58532.9
57954
57377.2
56803.7
56231.9
55663
55095.7
54531
53965.6
53402.1
52837.9
52275.4
51711.9
51151
50590.2
50032.6
49477.1
48926.7
48377
47832.5
47289.2
46750.1
46212.9
45679.9
45148.9
44621
44095.9
43573.1
43052.1
42533.3
42016.4
41502.8
40990.9
40482.6
39974.3
39470.6
38963.5
38462.6
37954.3
37454.7
36942.3
36442.3
35921.7
35418.3
34884
34372.8
33815.2
33287.8
32692
32135
31483.1
30873.6
30157.9
29460.8
28708.4
27942.4
27183.9
178847
176894
175070
173371
171781
170283
168860
167501
166196
164937
163715
162527
161368
160233
159120
158025
156948
155886
154837
153801
152776
151761
150756
149759
148772
147792
146819
145854
144896
143943
142997
142057
141123
140194
139271
138353
137441
136534
135631
134733
133840
132950
132065
131184
130307
129433
128563
127696
126833
125974
125118
124265
123416
122569
121726
120886
120049
119215
118385
117557
116732
115911
115091
114275
113461
112650
111842
111036
110233
109433
108635
107839
107046
106256
105468
104683
103902
103124
102350
101580
100815
100055
99298.7
98546.8
97798.9
97054.7
96313.9
95576.4
94841.8
94109.5
93379.2
92650.3
91923.1
91197.4
90473.2
89750.6
89030.4
88312.3
87597
86884.2
86174.3
85467
84763.1
84061.7
83364.1
82669.8
81979.7
81293.6
80612.2
79934.5
79261.1
78590.8
77924.2
77259.8
76598.4
75939
75282.9
74629.7
73980.9
73335.4
72694.5
72056.4
71421.8
70789.1
70159.2
69530.5
68903.9
68277.6
67652.4
67027
66403.3
65780.7
65160.9
64543.1
63928.7
63316.9
62708.6
62103.5
61503.1
60906.2
60314.5
59726.3
59142.8
58561.8
57984.7
57409.3
56837.5
56267.1
55699.7
55133.5
54569.6
54003.7
53440
52874.8
52311.6
51746.3
51184.7
50621.6
50063.2
49505.8
48954
48401.8
47856
47310
46769.1
46228.5
45692.9
45157.7
44625.9
44094.5
43566.7
43037.2
42512.4
41986.4
41465.9
40944.3
40428.9
39909.7
39398.5
38879.3
38369.8
37847.8
37339.1
36811.7
36301.6
35765.1
35250.6
34700.2
34176.7
33603.4
33060.6
32451.9
31875
31220.1
30588.8
29890.8
29187.7
28463.8
27717.8
26971.1
179286
177373
175565
173861
172254
170729
169277
167887
166551
165262
164012
162798
161614
160457
159323
158210
157116
156038
154975
153926
152889
151863
150848
149844
148848
147861
146882
145911
144947
143990
143039
142095
141157
140225
139298
138378
137462
136552
135647
134746
133851
132959
132072
131189
130310
129435
128564
127696
126832
125972
125115
124262
123411
122565
121721
120881
120044
119210
118379
117552
116727
115905
115086
114270
113456
112645
111837
111032
110228
109428
108630
107834
107041
106251
105464
104680
103899
103122
102350
101582
100818
100059
99304
98553.6
97807.1
97064.4
96325.3
95589.2
94856.3
94125.5
93396.6
92668.8
91942.6
91217.5
90494
89771.9
89052.2
88334.7
87619.7
86907.1
86197.4
85490.2
84786.1
84084.5
83386.5
82691.8
82001.5
81315
80633.3
79955.1
79281.3
78610.7
77943.7
77279
76617
75957.1
75300.5
74646.8
73997.5
73351.6
72710.2
72071.8
71437.2
70804.7
70175.1
69546.9
68920.8
68294.6
67669.4
67043.6
66419.5
65796.5
65176.5
64558.4
63944
63332.3
62724.2
62119.6
61519.7
60924.3
60334.2
59748.1
59166.5
58587.4
58011.9
57437.5
56866.9
56297.4
55731.4
55165.8
54602.1
54035.6
53471.9
52905.6
52341.5
51774.8
51212
50646.8
50087.4
49528.9
48975.3
48421.3
47873.7
47325.1
46782.1
46238.8
45700.2
45161.2
44625.6
44088.9
43555.1
43018.9
42487.2
41953.9
41426
40896.3
40373.4
39845.4
39326
38797.6
38277.8
37746.4
37225.6
36688.9
36165
35619.3
35089.7
34531.4
33991.3
33412.3
32851.7
32240.2
31646.6
30997.5
30355.3
29675.3
28975.8
28266.7
27531.5
26791.6
179665
177785
175995
174292
172673
171131
169656
168241
166879
165564
164289
163052
161846
160668
159515
158385
157275
156183
155106
154045
152997
151962
150938
149925
148921
147928
146943
145966
144997
144035
143080
142132
141191
140255
139326
138402
137484
136571
135664
134761
133863
132970
132081
131196
130316
129439
128567
127698
126833
125972
125115
124261
123410
122563
121719
120879
120041
119207
118376
117549
116724
115902
115082
114266
113452
112641
111833
111027
110224
109423
108625
107830
107037
106247
105461
104677
103898
103122
102350
101583
100821
100063
99309.6
98560.5
97815.2
97074
96336.2
95601.6
94870.2
94140.9
93413.4
92686.7
91961.4
91236.9
90513.7
89792
89072.5
88355.1
87640.2
86927.4
86217.4
85510.1
84805.7
84103.8
83405.5
82710.6
82019.8
81333
80650.7
79972.1
79297.8
78627
77959.6
77294.5
76632.2
75972.1
75314.9
74660.6
74010.6
73363.9
72721.5
72082.2
71446.9
70814.2
70184.7
69556.8
68931
68305.2
67680
67054.1
66429.9
65806.6
65186.4
64568.2
63953.5
63341.9
62734
62130.2
61531.3
60937.4
60349.4
59765.4
59185.2
58608.4
58033.5
57460.2
56890.4
56321.4
55755.9
55190.8
54627.1
54059.8
53496
52928.9
52363.4
51795.7
51231.8
50665.1
50104.2
49544.6
48988.6
48433.8
47883.4
47333
46787.4
46242.1
45700.7
45158.6
44618.9
44078.5
43538.6
42997.4
42458.2
41918.8
41384.1
40847.9
40317.1
39783.2
39254.5
38719.9
38189.3
37651.6
37118.1
36574.9
36037.6
35485.7
34942.6
34380.2
33826.7
33244.9
32671.6
32061.4
31458
30817.7
30170.4
29503.2
28806.5
28102.6
27373.1
26638.4
180000
178146
176370
174670
173045
171489
169997
168561
167178
165841
164545
163287
162061
160865
159696
158550
157425
156319
155231
154158
153100
152055
151023
150002
148992
147992
147001
146018
145045
144079
143120
142168
141223
140285
139353
138426
137506
136591
135681
134776
133876
132981
132091
131205
130323
129445
128572
127702
126836
125974
125116
124262
123410
122563
121719
120878
120040
119206
118375
117546
116721
115899
115079
114263
113449
112637
111829
111023
110219
109419
108621
107825
107033
106244
105458
104675
103897
103122
102351
101585
100824
100067
99314.5
98566.5
97822.5
97082.4
96345.9
95612.6
94882.6
94154.8
93428.5
92702.8
91978
91253.8
90530.8
89809.1
89089.4
88371.6
87656.2
86943
86232.6
85525
84820.3
84118.1
83419.4
82724
82032.8
81345.4
80662.5
79983.4
79308.7
78637.4
77969.6
77304.3
76641.7
75981.2
75323.6
74668.8
74017.8
73370.1
72726.4
72085.9
71449.8
70816.4
70186.6
69558.8
68933.3
68307.9
67682.8
67057.3
66433.2
65810
65189.8
64571.5
63956.9
63345.4
62738
62135.2
61537.7
60945.3
60359.3
59777
59198.3
58623.2
58049.1
57476.5
56907.1
56338.4
55772.7
55207.5
54643.2
54075.7
53511.4
52943.2
52376.4
51808.8
51242.7
50676.1
50113.6
49554.6
48994.3
48439.3
47885.2
47333.9
46784.1
46239.1
45693.5
45150.8
44605.9
44063.7
43516.5
42971.7
42425.9
41881.6
41340.5
40800
40260.9
39725.3
39185.5
38648
38107.1
37564.4
37020.4
36472.3
35923.6
35368
34814.4
34250.2
33687
33105.7
32523.6
31917
31306.3
30674.3
30022.4
29361.1
28666
27963.2
27238.8
26509
180295
178461
176698
175002
173373
171808
170302
168850
167449
166094
164780
163503
162261
161048
159863
158703
157565
156447
155347
154264
153197
152143
151103
150075
149058
148052
147056
146069
145090
144120
143158
142203
141255
140313
139379
138450
137527
136610
135698
134792
133890
132994
132102
131214
130331
129452
128578
127707
126840
125978
125119
124263
123412
122564
121719
120878
120040
119205
118373
117544
116719
115896
115076
114259
113445
112633
111824
111018
110214
109413
108616
107821
107029
106240
105455
104673
103896
103122
102352
101587
100826
100070
99318
98570.8
97827.9
97088.8
96353.6
95621.6
94893
94166.3
93441
92715.9
91991.2
91267
90543.6
89821.3
89101.1
88382.6
87666.5
86952.6
86241.8
85533.9
84828.7
84126.1
83426.9
82731
82039.1
81350.9
80667.1
79987.4
79312.1
78640.4
77972
77306.3
76643.3
75982.5
75324.5
74669.2
74017.4
73368.8
72724.1
72082.5
71445.1
70810.7
70180.3
69552.3
68927
68302.2
67677.8
67053.1
66429.3
65806.6
65186.7
64568.5
63954.4
63343.6
62737.1
62135.7
61539.8
60948.9
60364.4
59783.4
59205.6
58631.2
58057.9
57485.8
56916.4
56347.3
55781.3
55216.3
54649.9
54084
53517.2
52949.2
52380.7
51814.1
51245.2
50678.7
50114.6
49558
48992.5
48439.2
47878.3
47329.6
46773.2
46230.3
45679
45137.7
44586.5
44044.6
43489.2
42942.2
42390.4
41843.5
41296
40754.9
40206.9
39672.4
39122.5
38582.9
38034.8
37488
36936.2
36385
35826.4
35268.3
34706.5
34142.6
33571.6
32993.5
32402.5
31800.4
31181.8
30554.5
29898.8
29238.5
28545.9
27845
27126.6
26402.1
180554
178737
176985
175293
173662
172090
170573
169108
167693
166322
164992
163700
162443
161216
160017
158844
157694
156565
155455
154363
153286
152225
151178
150143
149120
148108
147107
146115
145133
144159
143193
142235
141284
140341
139403
138472
137547
136628
135715
134807
133904
133006
132112
131224
130340
129460
128584
127712
126845
125981
125121
124265
123413
122564
121719
120877
120038
119203
118371
117542
116716
115893
115072
114255
113440
112628
111818
111012
110208
109408
108610
107815
107024
106236
105452
104671
103894
103121
102352
101587
100827
100071
99319.9
98573.2
97830.9
97092.6
96358.5
95627.5
94900.2
94174.3
93449.7
92724.5
91999.7
91275
90550.8
89827.4
89106.4
88387
87670
86955.4
86244.2
85535.9
84830.5
84127.3
83427.3
82730.5
82037.6
81348.6
80664
79983.6
79307.7
78635.3
77966.3
77300
76636.8
75975.7
75317.4
74661.7
74009.2
73359.8
72714.2
72071.5
71432.9
70797.6
70166.3
69538
68912.8
68288.3
67665
67041.6
66418.8
65797.1
65177.9
64560.7
63947.6
63337.7
62732.7
62132.3
61538
60948.6
60364.9
59784.8
59207.3
58632.7
58060.3
57487.1
56917.8
56347.9
55781.3
55216.1
54647.4
54083.9
53513.4
52947.5
52377.4
51811.2
51240.9
50675.2
50109.2
49553.1
48984.6
48432.7
47864.2
47318.5
46754.9
46214.6
45657.5
45119.4
44560.9
44020.3
43457.6
42910.7
42353.8
41805.8
41253
40711.6
40156.4
39624.1
39066.9
38526.1
37973.1
37421
36864.7
36311.5
35744.4
35188.6
34619.4
34057.5
33476
32901.4
32301.2
31701.3
31075.8
30449.4
29792.3
29132.4
28443.6
27746.6
27035
26316.2
180782
178978
177234
175546
173914
172337
170812
169337
167910
166526
165183
163878
162607
161368
160157
158972
157812
156672
155553
154453
153369
152300
151246
150205
149177
148160
147155
146159
145173
144195
143227
142266
141312
140366
139426
138493
137567
136646
135731
134821
133917
133017
132123
131233
130348
129467
128590
127717
126849
125984
125124
124267
123414
122564
121719
120876
120037
119201
118368
117539
116712
115888
115068
114250
113434
112622
111813
111006
110203
109402
108605
107811
107020
106233
105450
104670
103894
103121
102352
101587
100827
100071
99320
98573.3
97831.1
97093.3
96359.9
95629.8
94903
94177.3
93452.9
92727.2
92002.2
91276.6
90551.7
89826.9
89105
88384.6
87666.9
86951.3
86239.8
85531.1
84825.3
84121.3
83420.7
82722.8
82029.1
81339.2
80654
79972.9
79296.6
78623.4
77953.8
77286.8
76623.4
75962
75303.5
74647.3
73994.5
73344.1
72697.6
72053.8
71414.3
70778.1
70146.2
69517.6
68892.5
68268.4
67646.1
67023.7
66402.9
65782.6
65164.9
64549.1
63937.3
63328.2
62724.4
62124.7
61531.6
60943
60360.3
59780.9
59204
58628.3
58057.1
57482
56912
56340
55773.5
55206.3
54637.2
54073.9
53502.7
52938.2
52366.8
51801.7
51230.2
50665
50098.9
49542.7
48972.7
48418.7
47847.3
47301.7
46733.2
46192.9
45631.6
45095.3
44532.9
43992.1
43424.5
42876.7
42317.2
41768.4
41212.1
40667.9
40112.1
39577.9
39017
38478.2
37918.4
37364.1
36803.1
36248.2
35678.8
35123.5
34546.6
33986
33396.7
32820.4
32214.3
31612.6
30983.8
30357.4
29700.7
29043
28358.9
27667.2
26962.7
26249.7
180979
179186
177449
175765
174133
172552
171020
169537
168100
166706
165352
164036
162754
161503
160282
159088
157917
156769
155642
154534
153443
152368
151308
150262
149229
148208
147198
146198
145209
144229
143257
142293
141338
140389
139448
138513
137585
136662
135746
134835
133929
133028
132132
131241
130355
129473
128595
127722
126852
125987
125125
124268
123414
122564
121717
120874
120034
119198
118365
117535
116708
115884
115062
114244
113429
112617
111807
111001
110197
109397
108600
107806
107016
106230
105448
104669
103893
103121
102352
101587
100827
100070
99318.4
98571
97828.4
97090.5
96357.1
95627.2
94900.2
94174.2
93449.2
92722.8
91997.4
91270.9
90545.1
89819.4
89097
88375.5
87657.2
86940.9
86229.4
85519.8
84813.7
84109
83407.9
82709
82014.9
81324.1
80638.6
79957
79280.1
78606.2
77936.1
77268.4
76604.8
75943
75284.6
74627.8
73974.6
73323.4
72676.3
72031.5
71391.6
70754.6
70122.6
69493.5
68868.6
68244.8
67623.3
67002.1
66383.2
65764.6
65148.9
64534.3
63923.9
63315.8
62712.9
62113.4
61520.9
60932.8
60350.8
59771.5
59195.5
58619.1
58047.8
57470.4
56898.9
56324.5
55757
55186.9
54620.4
54054.8
53486.2
52920.4
52349.5
51785
51215.1
50648.3
50084.8
49525.8
48956.3
48400.9
47827.5
47278.4
46708.5
46163.4
45602.9
45065.4
44500.4
43962.8
43391.3
42842.8
42280.1
41728.6
41170.9
40624.8
40069.2
39533.4
38973.5
38436.9
37872
37317.2
36752.1
36194
35624.9
35062.9
34488.1
33922.3
33328
32747.7
32138.9
31534
30905.7
30279.2
29624.3
28970.8
28291.5
27605.6
26907.9
26200.7
181149
179365
177634
175952
174319
172736
171199
169710
168265
166862
165499
164173
162882
161623
160392
159189
158011
156855
155721
154606
153509
152428
151363
150312
149275
148250
147237
146234
145241
144258
143284
142318
141361
140410
139467
138531
137601
136677
135759
134847
133940
133038
132141
131249
130361
129478
128599
127725
126854
125988
125126
124268
123413
122562
121715
120871
120031
119194
118361
117530
116703
115879
115057
114239
113424
112611
111802
110995
110192
109392
108595
107802
107013
106227
105446
104667
103892
103120
102351
101586
100825
100067
99314.5
98566.2
97822.7
97084.3
96350.2
95619.8
94891.7
94165
93439
92712
91985.9
91258.6
90531.9
89805.7
89082.8
88360.7
87641.9
86925.4
86213.7
85503.5
84797.3
84092.1
83390.8
82691.2
81997
81305.6
80619.9
79937.5
79260.2
78585.6
77915
77246.9
76583.1
75921.2
75263.1
74605.9
73952.3
73300.2
72652.5
72006.9
71366.7
70729.1
70097.1
69467.9
68843.4
68220
67599.3
66979.3
66362
65745.3
65131.1
64517.7
63908.3
63300.9
62698.5
62099.3
61507.1
60919
60337.7
59758.1
59182.4
58605
58032.4
57453.6
56879.7
56303.3
55734.6
55160.6
54597.7
54029.9
53464.3
52895.5
52328.3
51761.7
51195.4
50626
50068.4
49503.7
48938.2
48381.1
47807.6
47249.5
46681.5
46131.7
45570.7
45031.2
44467.8
43922.9
43357
42807.8
42242.3
41686.3
41131.4
40582
40031.9
39494.7
38933.2
38397.6
37832.5
37275.9
36709.9
36147.8
35580.3
35010.2
34436.5
33860.4
33269.2
32682.1
32075
31466.2
30842
30215.2
29563.8
28914.5
28239.9
27560.1
26868
26166.1
181293
179516
177789
176109
174476
172890
171350
169856
168405
166995
165625
164292
162992
161725
160487
159277
158091
156929
155789
154668
153566
152480
151411
150356
149315
148287
147270
146265
145270
144284
143308
142340
141381
140429
139484
138546
137615
136690
135770
134857
133949
133046
132148
131255
130366
129482
128602
127727
126856
125988
125125
124266
123411
122559
121712
120868
120027
119190
118356
117525
116698
115874
115052
114234
113418
112606
111797
110990
110187
109387
108591
107798
107009
106224
105443
104665
103890
103118
102348
101583
100820
100062
99308.4
98559.1
97814.6
97075.2
96339.7
95608.2
94878.6
94150.7
93423.7
92696.5
91969.7
91241.6
90514
89787.7
89064.1
88341.6
87622.5
86906.5
86194.7
85484.5
84778
84072.8
83371.1
82671.8
81977.3
81285.6
80599.6
79916.6
79238.6
78563.2
77892.2
77224.2
76560.3
75898.7
75240.4
74583.6
73929.7
73277.2
72628.6
71982.6
71341.8
70703.8
70071.8
69442.9
68818.7
68195.7
67575.6
66956.6
66340.7
65725.4
65112
64499.9
63891.1
63284.4
62682.5
62084
61491.9
60903.9
60322.4
59741.5
59165.3
58586.5
58011.7
57431.4
56856.6
56279.9
55707.5
55133.7
54570.8
54000.4
53438.6
52867
52302.2
51734.5
51174.9
50603.6
50047.9
49479.5
48920.2
48352.5
47780.9
47217.8
46657.3
46104.1
45542.8
44995.1
44432.3
43879.4
43321.4
42766.2
42204.6
41646
41096.8
40544.1
39996.7
39452.9
38899
38357.1
37795.9
37237.3
36675.1
36109.1
35538.2
34963.6
34390.3
33806
33217.4
32624.9
32024.9
31412.6
30793.5
30165.5
29518.9
28871.2
28202.4
27527.7
26839.7
26143.3
181413
179641
177916
176237
174604
173016
171474
169976
168520
167105
165729
164390
163084
161811
160567
159350
158159
156991
155846
154720
153614
152524
151451
150393
149349
148318
147299
146291
145294
144306
143328
142359
141398
140444
139498
138559
137626
136700
135780
134865
133956
133052
132153
131259
130370
129485
128604
127728
126856
125988
125124
124264
123408
122557
121708
120864
120023
119186
118352
117521
116693
115869
115047
114229
113414
112601
111792
110985
110182
109383
108586
107794
107005
106221
105439
104661
103886
103113
102343
101577
100814
100055
99300.5
98550.3
97804.7
97063.9
96326.7
95593.7
94862.4
94133.2
93404.8
92677.3
91949.5
91221.2
90493.4
89767.2
89042.9
88320.7
87601.7
86886.6
86174.4
85464.8
84758.1
84053.4
83351.5
82652.7
81957.2
81265.8
80578.8
79895.7
79216.5
78541.1
77869.3
77201.7
76537.4
75876.9
75218.6
74563
73908.7
73256.6
72606.9
71960.9
71319.1
70681.3
70049
69420.8
68796.2
68174
67553.5
66935.7
66320.3
65706.3
65093.4
64482.3
63873
63267.2
62665.3
62067.7
61475.2
60887.1
60304
59722.1
59143.8
58563.8
57986.4
57405.8
56829.3
56252.9
55682
55108.8
54541.5
53972.5
53409.7
52838.3
52277.6
51708.5
51149.9
50579.4
50025.6
49452.5
48892.8
48317
47756.2
47189.7
46632.7
46075.9
45512.9
44954.5
44396.2
43841.1
43285.4
42722.9
42170.2
41611.7
41064
40510.5
39967.2
39415.5
38870.1
38315.5
37763.4
37202.7
36642.6
36072.2
35502.4
34925.4
34346.5
33761.5
33176.6
32582.8
31986.1
31375.4
30758.8
30130.5
29488.6
28839.6
28176.8
27504.8
26820.5
26129.2
181508
179740
178017
176338
174704
173116
171572
170071
168612
167193
165813
164468
163158
161879
160630
159409
158213
157041
155892
154762
153652
152560
151484
150423
149377
148343
147322
146312
145313
144324
143344
142374
141411
140456
139509
138569
137635
136708
135787
134871
133961
133056
132157
131262
130372
129486
128605
127728
126855
125987
125122
124262
123406
122554
121705
120861
120020
119182
118348
117517
116689
115865
115043
114225
113409
112597
111787
110981
110178
109378
108582
107790
107001
106216
105434
104656
103880
103107
102337
101570
100806
100047
99291.8
98540.8
97794
97051.9
96313.1
95578.6
94845.4
94114.9
93385.1
92656.8
91927.9
91200
90472
89746.5
89021.8
88300.7
87581.7
86867.4
86155
85446.2
84739.1
84034.9
83332.7
82634.4
81938.4
81247.4
80559.6
79876.5
79196.5
78521.3
77848.8
77181.5
76516.9
75857
75199
74544.8
73890.5
73239.2
72588.9
71943.2
71300.5
70663.1
70030.5
69402.6
68777.2
68155.4
67534.5
66917.7
66302
65689.3
65076.6
64466
63855.9
63250.8
62648.6
62051.6
61457.8
60869.1
60283.4
59700.5
59119.2
58538.5
57958.5
57379.5
56801.8
56228.7
55655.5
55083.2
54514.8
53946.6
53379.6
52812.9
52251.6
51682.1
51123.8
50555.7
49998.3
49422.8
48863.4
48290.8
47734
47158.3
46605.8
46039.6
45479.7
44923.2
44366.3
43804.4
43250.2
42686.6
42138.4
41578.6
41036.2
40483.8
39940.6
39382.7
38840.7
38278.9
37732.3
37169.9
36615.2
36040.7
35472.8
34892.3
34314.3
33731.6
33144.9
32554.4
31958.5
31352.6
30733.8
30108.3
29467.8
28819.1
28159.6
27488.9
26808.3
26120.7
181580
179814
178091
176412
174779
173190
171645
170142
168681
167259
165875
164527
163213
161931
160678
159453
158254
157079
155926
154794
153682
152587
151508
150446
149397
148362
147339
146328
145327
144337
143356
142384
141421
140465
139517
138576
137642
136714
135792
134875
133965
133059
132159
131264
130373
129487
128605
127728
126855
125986
125121
124261
123405
122552
121703
120858
120017
119179
118345
117514
116686
115861
115040
114221
113406
112593
111783
110977
110174
109374
108578
107785
106996
106211
105429
104650
103874
103100
102330
101562
100799
100039
99283.7
98531.9
97784.3
97041.1
96300.7
95564.5
94829.7
94098.5
93367.2
92638.8
91908.7
91181.5
90453.3
89728.5
89003.6
88283.7
87564.4
86850.9
86137.9
85430.2
84722.4
84019.5
83316.7
82619.3
81922.9
81232.6
80544.1
79861.7
79180.9
78506.1
77832.7
77166.1
76501.1
75842
75183.8
74530.6
73876.6
73226.7
72576.5
71931.8
71288.3
70651.4
70017.3
69389.4
68762.9
68141.5