/*--------------------------------*- C++ -*----------------------------------*\
| =========                 |                                                 |
| \\      /  F ield         | OpenFOAM: The Open Source CFD Toolbox           |
|  \\    /   O peration     | Version:  2.4.0                                 |
|   \\  /    A nd           | Web:      www.OpenFOAM.org                      |
|    \\/     M anipulation  |                                                 |
\*---------------------------------------------------------------------------*/
FoamFile
{
    version     2.0;
    format      ascii;
    class       volVectorField;
    location    "1.91";
    object      U;
}
// * * * * * * * * * * * * * * * * * * * * * * * * * * * * * * * * * * * * * //

dimensions      [0 1 -1 0 0 0 0];

internalField   nonuniform List<vector> 
8800
(
(8.09299 0.387845 0)
(5.45193 0.242668 0)
(3.90833 0.0431105 0)
(3.16168 -0.0157518 0)
(2.79435 -0.018105 0)
(2.60706 -0.0111308 0)
(2.47495 -0.0057809 0)
(2.39064 -0.00218923 0)
(2.30574 -0.00104452 0)
(2.26416 -0.00166522 0)
(2.20249 0.000185489 0)
(2.18149 -0.000263895 0)
(2.12694 -0.000217209 0)
(2.11959 -7.36757e-05 0)
(2.05867 0.00133638 0)
(2.0563 -0.000931395 0)
(1.99718 0.000780044 0)
(2.00123 -0.00280745 0)
(1.98437 0.0117242 0)
(1.79579 -0.0714069 0)
(10.0826 0.837793 0)
(9.66769 0.868609 0)
(8.85786 0.506975 0)
(8.10432 0.261266 0)
(7.46838 0.138758 0)
(7.03567 0.0815901 0)
(6.66885 0.0540493 0)
(6.42949 0.041397 0)
(6.18916 0.0307515 0)
(6.06721 0.0215476 0)
(5.87966 0.0212063 0)
(5.82806 0.0168335 0)
(5.66973 0.0150087 0)
(5.65149 0.0144011 0)
(5.49511 0.0193176 0)
(5.49543 0.00959509 0)
(5.34682 0.0201824 0)
(5.34482 -0.00497432 0)
(5.27633 0.0315519 0)
(5.16312 -0.0293414 0)
(10.0489 0.629484 0)
(10.6841 0.865491 0)
(10.835 0.600494 0)
(10.7342 0.373237 0)
(10.4122 0.256906 0)
(10.1372 0.195723 0)
(9.78847 0.153023 0)
(9.55074 0.124826 0)
(9.24998 0.0949194 0)
(9.11113 0.0730277 0)
(8.84361 0.0635283 0)
(8.78374 0.0500887 0)
(8.55751 0.0437584 0)
(8.53208 0.0395634 0)
(8.31923 0.0461647 0)
(8.3226 0.0281992 0)
(8.11442 0.0471224 0)
(8.12597 0.00479756 0)
(7.98166 0.0411601 0)
(7.97291 -0.0772532 0)
(9.95738 0.45376 0)
(10.6264 0.711076 0)
(11.0994 0.543499 0)
(11.4498 0.351893 0)
(11.4869 0.2625 0)
(11.5384 0.225955 0)
(11.4176 0.200766 0)
(11.3859 0.18038 0)
(11.2035 0.146756 0)
(11.1841 0.121326 0)
(10.9705 0.112582 0)
(10.9678 0.0895105 0)
(10.7723 0.0836264 0)
(10.7626 0.0715171 0)
(10.5699 0.0826204 0)
(10.5803 0.0528646 0)
(10.369 0.0833979 0)
(10.3945 0.0231264 0)
(10.2035 0.0662153 0)
(10.2753 -0.0975139 0)
(9.95347 0.340126 0)
(10.5014 0.577255 0)
(10.9461 0.455913 0)
(11.3866 0.294601 0)
(11.5752 0.211543 0)
(11.7648 0.191231 0)
(11.8018 0.174633 0)
(11.916 0.177541 0)
(11.892 0.145426 0)
(11.9933 0.129952 0)
(11.9374 0.119096 0)
(12.0101 0.101662 0)
(11.9681 0.0911013 0)
(11.9974 0.0951753 0)
(11.9331 0.0908709 0)
(11.9772 0.0838727 0)
(11.8622 0.0895038 0)
(11.8976 0.0701715 0)
(11.7637 0.0670143 0)
(11.8601 -0.0279224 0)
(9.97435 0.245717 0)
(10.3963 0.465385 0)
(10.8344 0.377039 0)
(11.2198 0.24139 0)
(11.4801 0.161276 0)
(11.6569 0.150114 0)
(11.7702 0.145571 0)
(11.8713 0.147027 0)
(11.9419 0.119247 0)
(12.0392 0.104924 0)
(12.113 0.109901 0)
(12.1666 0.0825125 0)
(12.2763 0.0812662 0)
(12.2987 0.0829993 0)
(12.3636 0.0798879 0)
(12.4152 0.0776452 0)
(12.4392 0.0908226 0)
(12.4832 0.0801952 0)
(12.4521 0.103816 0)
(12.5488 -0.0295563 0)
(9.96991 0.171675 0)
(10.3423 0.35656 0)
(10.7351 0.292621 0)
(11.1293 0.205687 0)
(11.3711 0.11987 0)
(11.5547 0.111344 0)
(11.695 0.0964421 0)
(11.7798 0.134957 0)
(11.8638 0.0845938 0)
(11.9617 0.0939369 0)
(12.0492 0.0697876 0)
(12.09 0.0763949 0)
(12.2299 0.0350609 0)
(12.2467 0.0999358 0)
(12.3793 0.0333857 0)
(12.3878 0.094086 0)
(12.4883 0.0362456 0)
(12.5059 0.123671 0)
(12.5659 0.078506 0)
(12.5917 0.133932 0)
(9.99441 0.103142 0)
(10.2682 0.264649 0)
(10.6777 0.19806 0)
(11.0395 0.163962 0)
(11.2839 0.0730913 0)
(11.5359 0.088878 0)
(11.6083 0.0549477 0)
(11.7282 0.115074 0)
(11.7641 0.0340865 0)
(11.925 0.0816017 0)
(11.9322 0.0487363 0)
(12.1093 0.0719886 0)
(12.0671 0.00747862 0)
(12.2147 0.0815029 0)
(12.307 0.00457461 0)
(12.3364 0.0924861 0)
(12.4074 0.0156297 0)
(12.4323 0.116537 0)
(12.5804 0.0656741 0)
(12.4874 0.137786 0)
(9.99574 0.0640407 0)
(10.2453 0.147811 0)
(10.6392 0.125221 0)
(10.9673 0.105773 0)
(11.2756 0.041632 0)
(11.4506 0.0339263 0)
(11.5799 0.0361074 0)
(11.6742 0.0774624 0)
(11.7565 0.028049 0)
(11.8272 0.0370589 0)
(11.8996 0.0286626 0)
(12.0564 0.034937 0)
(12.059 0.0193428 0)
(12.2017 0.0287461 0)
(12.1937 0.0187148 0)
(12.3293 0.0420011 0)
(12.3415 0.032504 0)
(12.4386 0.0388303 0)
(12.4905 0.0711982 0)
(12.4117 -0.00755889 0)
(9.99852 0.00895746 0)
(10.2404 0.0589437 0)
(10.5794 0.0389116 0)
(10.9597 0.04376 0)
(11.2531 0.00114533 0)
(11.4486 0.0254956 0)
(11.5488 -0.00559243 0)
(11.6302 0.044291 0)
(11.7651 -0.0109481 0)
(11.7939 0.0279762 0)
(11.9191 0.00123354 0)
(11.9708 0.0227531 0)
(12.0952 -0.0134303 0)
(12.1054 0.0334252 0)
(12.2207 -0.0139485 0)
(12.309 0.0326125 0)
(12.3345 -0.00470386 0)
(12.3856 0.0217424 0)
(12.4747 0.0229034 0)
(12.4188 0.0212422 0)
(10.0099 -0.0260728 0)
(10.2114 -0.0437343 0)
(10.5939 -0.0374334 0)
(10.9665 -0.0237584 0)
(11.2557 -0.027815 0)
(11.4472 -0.0224112 0)
(11.529 -0.0164324 0)
(11.6738 -0.00276249 0)
(11.74 -0.0171525 0)
(11.7951 -0.0149953 0)
(11.8879 -0.0107468 0)
(12.0136 -0.0125982 0)
(12.048 -0.00468307 0)
(12.138 -0.00681016 0)
(12.2323 -0.0261615 0)
(12.2768 0.000568437 0)
(12.3523 0.000515386 0)
(12.3917 -0.0308218 0)
(12.4466 -0.00223424 0)
(12.4263 0.0168619 0)
(10.0052 -0.0726088 0)
(10.2353 -0.138761 0)
(10.6103 -0.127358 0)
(10.9938 -0.0906403 0)
(11.2927 -0.0592186 0)
(11.4352 -0.0328849 0)
(11.5807 -0.0589044 0)
(11.6652 -0.0445267 0)
(11.7423 -0.0407254 0)
(11.8537 -0.032528 0)
(11.9236 -0.0370961 0)
(12.0032 -0.030102 0)
(12.0658 -0.0268876 0)
(12.2012 -0.026956 0)
(12.2215 -0.0368546 0)
(12.2923 -0.0211605 0)
(12.3768 -0.0358685 0)
(12.4408 -0.0494603 0)
(12.4103 -0.0254003 0)
(12.479 -0.00178146 0)
(10.0044 -0.120437 0)
(10.2579 -0.241517 0)
(10.6663 -0.20582 0)
(11.0594 -0.154473 0)
(11.3032 -0.0856318 0)
(11.4874 -0.0800957 0)
(11.6325 -0.0808954 0)
(11.7044 -0.0697063 0)
(11.7885 -0.0679731 0)
(11.889 -0.0724117 0)
(11.9742 -0.0468931 0)
(12.0318 -0.0503502 0)
(12.1394 -0.0461148 0)
(12.2151 -0.0497285 0)
(12.277 -0.046179 0)
(12.3316 -0.0502643 0)
(12.4348 -0.0539712 0)
(12.4446 -0.0699647 0)
(12.5035 -0.0673459 0)
(12.4995 -0.00729195 0)
(10.0278 -0.178622 0)
(10.2835 -0.345578 0)
(10.7581 -0.29567 0)
(11.1125 -0.20762 0)
(11.3956 -0.117717 0)
(11.555 -0.112061 0)
(11.6919 -0.113609 0)
(11.7546 -0.110066 0)
(11.8681 -0.0907259 0)
(11.9589 -0.094881 0)
(12.0433 -0.0643754 0)
(12.1056 -0.0794282 0)
(12.2105 -0.0620218 0)
(12.2782 -0.0694199 0)
(12.3393 -0.0595973 0)
(12.408 -0.0761968 0)
(12.4805 -0.0708429 0)
(12.5171 -0.10802 0)
(12.575 -0.0911357 0)
(12.5177 -0.0203091 0)
(10.0652 -0.25578 0)
(10.3066 -0.448397 0)
(10.9048 -0.379652 0)
(11.187 -0.251351 0)
(11.525 -0.159131 0)
(11.6009 -0.155813 0)
(11.8149 -0.141414 0)
(11.8148 -0.134267 0)
(11.99 -0.122395 0)
(12.0051 -0.126192 0)
(12.1482 -0.0838738 0)
(12.1472 -0.0989127 0)
(12.283 -0.0797554 0)
(12.2788 -0.0913898 0)
(12.3809 -0.0714248 0)
(12.3795 -0.0999331 0)
(12.473 -0.086408 0)
(12.4467 -0.132323 0)
(12.4612 -0.10878 0)
(12.432 -0.0820218 0)
(10.0605 -0.348973 0)
(10.3852 -0.561259 0)
(11.0673 -0.469266 0)
(11.2911 -0.294356 0)
(11.6627 -0.204269 0)
(11.6628 -0.193751 0)
(11.8922 -0.180539 0)
(11.8075 -0.165561 0)
(12.0021 -0.150497 0)
(11.8861 -0.139712 0)
(12.0456 -0.103652 0)
(11.9083 -0.112223 0)
(12.0504 -0.0943721 0)
(11.9065 -0.0983925 0)
(12.0192 -0.0813586 0)
(11.868 -0.107843 0)
(11.9586 -0.0892835 0)
(11.7747 -0.136071 0)
(11.7914 -0.119863 0)
(11.6454 -0.11913 0)
(10.0112 -0.458691 0)
(10.559 -0.703107 0)
(11.1833 -0.548902 0)
(11.3546 -0.350934 0)
(11.5707 -0.259419 0)
(11.4449 -0.231405 0)
(11.5052 -0.200853 0)
(11.2859 -0.171984 0)
(11.3181 -0.150976 0)
(11.0515 -0.132318 0)
(11.1047 -0.098683 0)
(10.831 -0.0971217 0)
(10.8946 -0.0816382 0)
(10.6269 -0.0824621 0)
(10.7003 -0.0660416 0)
(10.4243 -0.0876359 0)
(10.4969 -0.0681858 0)
(10.1959 -0.115876 0)
(10.2186 -0.0921172 0)
(9.92562 -0.124749 0)
(10.0649 -0.632811 0)
(10.6557 -0.861683 0)
(10.8729 -0.603014 0)
(10.6799 -0.37311 0)
(10.4694 -0.254465 0)
(10.0738 -0.197893 0)
(9.84753 -0.154113 0)
(9.48366 -0.120606 0)
(9.33223 -0.0964237 0)
(9.00591 -0.0794798 0)
(8.95424 -0.0553858 0)
(8.66541 -0.053293 0)
(8.66906 -0.045425 0)
(8.40336 -0.0450491 0)
(8.44177 -0.0375354 0)
(8.16986 -0.0501442 0)
(8.22153 -0.0441577 0)
(7.91889 -0.0694863 0)
(7.93257 -0.0692436 0)
(7.61499 -0.0587011 0)
(10.0846 -0.83886 0)
(9.65617 -0.867186 0)
(8.87304 -0.507267 0)
(8.07737 -0.261627 0)
(7.50016 -0.137298 0)
(6.9993 -0.0830813 0)
(6.70259 -0.0548122 0)
(6.39154 -0.0392105 0)
(6.23679 -0.0302856 0)
(6.0036 -0.026673 0)
(5.94591 -0.0163963 0)
(5.75356 -0.0179799 0)
(5.74271 -0.0162164 0)
(5.56145 -0.0178682 0)
(5.57561 -0.0143054 0)
(5.38549 -0.0228178 0)
(5.40418 -0.0198188 0)
(5.17975 -0.0328015 0)
(5.1765 -0.0371936 0)
(4.90957 -0.000678725 0)
(8.09123 -0.388063 0)
(5.44902 -0.242372 0)
(3.91167 -0.042987 0)
(3.15552 0.0153135 0)
(2.80305 0.0184999 0)
(2.59629 0.0108788 0)
(2.48514 0.00540108 0)
(2.37708 0.00277604 0)
(2.32361 0.00156964 0)
(2.24276 -0.000255014 0)
(2.22067 0.0014647 0)
(2.15886 -2.87394e-05 0)
(2.151 -0.000118899 0)
(2.08502 -0.000911936 0)
(2.08346 9.54594e-05 0)
(2.01133 -0.00242978 0)
(2.00386 -0.000671076 0)
(1.91252 -0.00424074 0)
(1.8757 -0.00439791 0)
(1.74799 0.0142229 0)
(2.25111 -0.103668 0)
(2.36768 0.0198047 0)
(2.52803 0.0512561 0)
(2.63743 0.0353476 0)
(2.73452 -0.00359796 0)
(2.79093 -0.0255618 0)
(2.84279 -0.0335153 0)
(2.89475 -0.0353134 0)
(2.95331 -0.0314139 0)
(3.01369 -0.023411 0)
(3.07714 -0.00709736 0)
(3.13503 0.00769028 0)
(3.1919 0.014002 0)
(3.24369 0.01037 0)
(3.296 -0.00526766 0)
(3.33649 -0.0183102 0)
(3.3796 -0.0303978 0)
(3.40668 -0.0330746 0)
(3.44223 -0.0386923 0)
(3.46805 -0.0335688 0)
(3.49742 -0.0228948 0)
(3.52125 -0.0041037 0)
(3.5545 0.0195794 0)
(3.58147 0.0448729 0)
(3.6345 0.059065 0)
(3.6718 0.0729232 0)
(3.75024 0.0747692 0)
(3.78218 0.0794786 0)
(3.86938 0.0799296 0)
(3.88471 0.0836323 0)
(3.9756 0.0880496 0)
(3.98443 0.0983131 0)
(4.08695 0.102563 0)
(4.11873 0.0892047 0)
(4.28159 0.0628669 0)
(4.2809 0.0260618 0)
(4.47996 -0.031918 0)
(4.43238 -0.0961687 0)
(4.62361 -0.171979 0)
(4.54647 -0.228928 0)
(4.675 -0.290239 0)
(4.54919 -0.330472 0)
(4.65649 -0.42528 0)
(4.40277 -0.483556 0)
(4.35104 -0.491697 0)
(4.18726 -0.35779 0)
(4.25183 -0.203432 0)
(4.2609 -0.0954659 0)
(4.12979 -0.0472234 0)
(4.26124 -0.0530557 0)
(4.13684 -0.113098 0)
(4.26627 -0.0900504 0)
(4.10257 -0.0560251 0)
(4.32576 0.0866365 0)
(4.16111 0.20561 0)
(4.56324 0.303385 0)
(4.52335 0.481657 0)
(4.95384 0.543931 0)
(5.01212 0.662835 0)
(5.32339 0.737842 0)
(5.48433 0.793775 0)
(5.59317 0.854603 0)
(5.83539 0.854014 0)
(5.87852 0.908451 0)
(6.10463 0.845874 0)
(6.20941 0.845996 0)
(6.41636 0.787481 0)
(6.52525 0.711034 0)
(6.78097 0.626237 0)
(6.89644 0.490106 0)
(7.08747 0.317124 0)
(7.2449 0.179697 0)
(7.35986 -0.021635 0)
(7.51787 -0.218527 0)
(7.54254 -0.374079 0)
(7.70247 -0.591306 0)
(7.61665 -0.766946 0)
(7.73959 -0.915507 0)
(7.69023 -1.0892 0)
(7.72797 -1.23219 0)
(7.73576 -1.33004 0)
(7.81728 -1.44299 0)
(7.85692 -1.55464 0)
(8.02929 -1.6085 0)
(8.15648 -1.70131 0)
(8.38658 -1.78696 0)
(8.58818 -1.83215 0)
(8.83269 -1.88499 0)
(9.06139 -1.96938 0)
(9.34135 -1.99098 0)
(9.55397 -1.99876 0)
(9.85554 -2.01496 0)
(10.0106 -1.97043 0)
(10.2817 -1.97414 0)
(10.4282 -1.92061 0)
(10.6264 -1.83126 0)
(10.7832 -1.76891 0)
(10.9608 -1.62816 0)
(11.077 -1.49701 0)
(11.2634 -1.34318 0)
(11.3863 -1.18435 0)
(11.52 -1.01378 0)
(11.6694 -0.863463 0)
(11.7848 -0.711933 0)
(11.9413 -0.557921 0)
(12.013 -0.444123 0)
(12.1628 -0.316608 0)
(12.223 -0.209481 0)
(12.3077 -0.107522 0)
(12.3961 -0.0618693 0)
(12.3877 0.0174689 0)
(12.5194 -0.0126576 0)
(12.4583 0.0249578 0)
(12.567 -0.0613094 0)
(12.5204 -0.0866567 0)
(12.5704 -0.23522 0)
(12.5975 -0.326014 0)
(12.548 -0.507837 0)
(12.6563 -0.677242 0)
(12.5496 -0.929537 0)
(12.6346 -1.12293 0)
(12.5401 -1.41825 0)
(12.5042 -1.64284 0)
(12.4409 -1.92606 0)
(12.2453 -2.17775 0)
(12.1448 -2.39388 0)
(11.8921 -2.67802 0)
(11.6475 -2.83926 0)
(11.3695 -3.08973 0)
(10.9437 -3.22104 0)
(10.6597 -3.38875 0)
(10.2633 -3.45104 0)
(9.7985 -3.42866 0)
(9.62444 -3.48063 0)
(9.20745 -3.48237 0)
(9.00245 -3.49961 0)
(8.84045 -3.59007 0)
(8.75912 -3.80256 0)
(8.55164 -3.80208 0)
(8.10669 -3.80327 0)
(8.03368 -4.01723 0)
(7.8315 -4.27866 0)
(7.06843 -3.77823 0)
(5.74282 -3.05336 0)
(5.10627 -2.81019 0)
(4.76467 -3.21357 0)
(4.76524 -3.65343 0)
(4.63407 -4.17519 0)
(4.92887 -4.50267 0)
(5.00951 -4.62299 0)
(5.26583 -4.8061 0)
(5.32008 -4.78758 0)
(5.55066 -4.67736 0)
(5.87613 -4.4281 0)
(5.82951 -4.34976 0)
(6.26687 -4.07013 0)
(6.36513 -3.90334 0)
(6.66678 -3.75579 0)
(6.94833 -3.34442 0)
(7.3077 -2.51343 0)
(7.65614 -1.24681 0)
(8.21648 0.015859 0)
(8.34197 0.858436 0)
(8.77757 1.44278 0)
(8.88792 1.84893 0)
(9.30025 2.57332 0)
(9.54136 3.34669 0)
(9.84697 3.97626 0)
(9.87012 4.47721 0)
(9.91224 4.64217 0)
(9.74028 4.60965 0)
(9.8048 4.63913 0)
(9.89896 4.76424 0)
(10.7641 5.28624 0)
(11.1198 6.31648 0)
(11.9229 7.26044 0)
(11.6598 7.82201 0)
(12.1289 8.13768 0)
(11.7602 8.16458 0)
(11.6788 7.74599 0)
(11.4949 7.4793 0)
(11.3841 6.81563 0)
(11.1035 6.22741 0)
(10.9653 5.54034 0)
(10.6911 4.74491 0)
(10.3599 4.19799 0)
(10.3282 3.7042 0)
(9.88649 2.89641 0)
(9.7651 2.87141 0)
(9.63187 2.83836 0)
(8.90443 1.8021 0)
(9.11109 2.64971 0)
(8.7431 3.0477 0)
(8.08014 2.03344 0)
(8.17149 3.63497 0)
(7.66226 3.92324 0)
(6.64507 3.72789 0)
(6.4816 5.18051 0)
(7.15199 6.08302 0)
(4.07187 9.59254 0)
(5.32786 -0.0834457 0)
(5.35501 -0.0428487 0)
(5.36396 -0.00552247 0)
(5.36632 0.00117529 0)
(5.37565 -0.0338235 0)
(5.3913 -0.0727936 0)
(5.4182 -0.0854152 0)
(5.45955 -0.0901819 0)
(5.49973 -0.0780713 0)
(5.54754 -0.0683652 0)
(5.57987 -0.0494214 0)
(5.6203 -0.0308486 0)
(5.64349 -0.0225423 0)
(5.67352 -0.0171255 0)
(5.69696 -0.0297806 0)
(5.71743 -0.0359155 0)
(5.74881 -0.0487023 0)
(5.75842 -0.0529506 0)
(5.79662 -0.0579806 0)
(5.79694 -0.0556747 0)
(5.84277 -0.0430678 0)
(5.83494 -0.0288683 0)
(5.88824 -0.00581864 0)
(5.87217 0.0125291 0)
(5.94046 0.0309329 0)
(5.91912 0.0405713 0)
(6.01073 0.047091 0)
(5.98119 0.0488471 0)
(6.08671 0.0464735 0)
(6.04907 0.0507889 0)
(6.16057 0.0487187 0)
(6.12066 0.0500739 0)
(6.24794 0.049346 0)
(6.20857 0.0353773 0)
(6.38086 0.000578521 0)
(6.33733 -0.0235039 0)
(6.52119 -0.093524 0)
(6.48429 -0.126824 0)
(6.63946 -0.204859 0)
(6.60675 -0.257345 0)
(6.70476 -0.318259 0)
(6.6315 -0.371704 0)
(6.69088 -0.424847 0)
(6.58693 -0.418074 0)
(6.60206 -0.371642 0)
(6.53346 -0.25576 0)
(6.42523 -0.228062 0)
(6.49822 -0.189192 0)
(6.35967 -0.113012 0)
(6.45461 -0.0754205 0)
(6.35697 -0.0313656 0)
(6.41636 0.0282117 0)
(6.23713 0.0897906 0)
(6.28304 0.143933 0)
(6.01046 0.26731 0)
(6.0742 0.289491 0)
(5.93329 0.385341 0)
(6.05434 0.424471 0)
(6.04573 0.49626 0)
(6.202 0.549969 0)
(6.30082 0.588289 0)
(6.42477 0.668592 0)
(6.56224 0.661358 0)
(6.68465 0.704092 0)
(6.85058 0.686417 0)
(6.96622 0.676618 0)
(7.13425 0.596076 0)
(7.25576 0.559595 0)
(7.43712 0.452163 0)
(7.53137 0.34418 0)
(7.74349 0.186815 0)
(7.78511 0.0447689 0)
(8.0193 -0.0996935 0)
(8.03847 -0.302407 0)
(8.2155 -0.471115 0)
(8.26532 -0.656069 0)
(8.40985 -0.819761 0)
(8.43958 -0.999545 0)
(8.6305 -1.16447 0)
(8.67248 -1.27816 0)
(8.9191 -1.47118 0)
(9.03374 -1.56362 0)
(9.2615 -1.66318 0)
(9.51093 -1.82393 0)
(9.74044 -1.88958 0)
(9.97887 -1.96706 0)
(10.2704 -2.07756 0)
(10.468 -2.10463 0)
(10.7323 -2.17088 0)
(10.9588 -2.17567 0)
(11.1473 -2.19239 0)
(11.3502 -2.19368 0)
(11.4738 -2.16555 0)
(11.6617 -2.1247 0)
(11.7638 -2.0578 0)
(11.9031 -1.94969 0)
(11.9834 -1.85308 0)
(12.1425 -1.74113 0)
(12.1612 -1.58282 0)
(12.3082 -1.46928 0)
(12.3789 -1.30473 0)
(12.4376 -1.15968 0)
(12.6032 -0.985056 0)
(12.6108 -0.857197 0)
(12.833 -0.666916 0)
(12.8071 -0.539244 0)
(13.0358 -0.408573 0)
(13.0112 -0.258456 0)
(13.1569 -0.186247 0)
(13.179 -0.0891762 0)
(13.204 -0.041837 0)
(13.278 0.00607819 0)
(13.23 -0.0386667 0)
(13.2942 -0.0199943 0)
(13.2062 -0.125226 0)
(13.26 -0.202351 0)
(13.1656 -0.334353 0)
(13.168 -0.479496 0)
(13.0942 -0.673622 0)
(13.0216 -0.859902 0)
(12.9676 -1.09376 0)
(12.7928 -1.32954 0)
(12.7008 -1.52396 0)
(12.4686 -1.82824 0)
(12.2498 -1.96371 0)
(11.9697 -2.26404 0)
(11.6623 -2.4418 0)
(11.2576 -2.65106 0)
(10.9603 -2.81979 0)
(10.4615 -2.96426 0)
(10.2778 -3.05252 0)
(9.79033 -3.09879 0)
(9.59615 -3.20531 0)
(9.40271 -3.26683 0)
(9.10457 -3.29794 0)
(9.05882 -3.41417 0)
(8.97576 -3.54237 0)
(8.75053 -3.5835 0)
(8.30765 -3.47664 0)
(8.0593 -3.5837 0)
(7.88985 -3.90867 0)
(7.20478 -3.64767 0)
(5.95662 -2.80343 0)
(4.94548 -2.36996 0)
(4.34049 -2.4887 0)
(4.07372 -3.05707 0)
(4.02519 -3.61763 0)
(4.01265 -4.29997 0)
(4.23574 -4.56672 0)
(4.22988 -4.73611 0)
(4.39819 -4.87755 0)
(4.39292 -4.91461 0)
(5.05323 -4.80997 0)
(5.17656 -4.57309 0)
(5.42657 -4.51972 0)
(5.88346 -4.26938 0)
(5.86611 -4.06517 0)
(6.08243 -3.79974 0)
(5.99545 -3.42272 0)
(6.14446 -2.62051 0)
(6.30311 -1.5469 0)
(6.89017 -0.30138 0)
(7.12046 0.525044 0)
(7.76743 1.17543 0)
(7.89765 1.63119 0)
(8.32424 2.36233 0)
(8.53553 3.16418 0)
(8.86171 3.82987 0)
(9.04636 4.27676 0)
(9.27563 4.58052 0)
(9.18204 4.60983 0)
(9.3159 4.53731 0)
(9.28392 4.50538 0)
(9.88566 4.93554 0)
(10.3877 5.74921 0)
(11.1004 6.67969 0)
(11.2116 7.3513 0)
(11.3977 7.73858 0)
(11.5025 7.99729 0)
(11.2352 7.7442 0)
(11.2611 7.44114 0)
(11.1875 7.02892 0)
(10.9529 6.43674 0)
(10.8889 5.60538 0)
(10.7059 5.14513 0)
(10.524 4.26926 0)
(10.2125 3.72845 0)
(10.4068 3.39687 0)
(9.86986 2.92722 0)
(9.69063 2.74879 0)
(9.61586 2.94655 0)
(9.02834 2.28721 0)
(8.85066 2.97167 0)
(8.71566 3.56097 0)
(8.04228 2.946 0)
(8.09483 4.20639 0)
(8.35885 4.70254 0)
(6.14135 5.58672 0)
(9.83358 4.93634 0)
(6.86775 10.7077 0)
(7.99458 -0.0696394 0)
(7.99868 -0.00356723 0)
(8.01491 0.0309405 0)
(8.0001 0.0353791 0)
(7.98897 -0.012512 0)
(7.96371 -0.0677174 0)
(7.96896 -0.10046 0)
(7.98816 -0.128356 0)
(8.0139 -0.108457 0)
(8.06089 -0.0988075 0)
(8.08315 -0.0675511 0)
(8.12178 -0.0458419 0)
(8.13295 -0.0342637 0)
(8.13963 -0.0241155 0)
(8.15799 -0.0382641 0)
(8.13688 -0.0422909 0)
(8.17662 -0.0608724 0)
(8.14251 -0.0667794 0)
(8.20233 -0.0740315 0)
(8.16603 -0.0740543 0)
(8.2335 -0.060082 0)
(8.20073 -0.0468569 0)
(8.2628 -0.0243746 0)
(8.23536 -0.00666456 0)
(8.29155 0.00711723 0)
(8.26493 0.0179828 0)
(8.32842 0.0207175 0)
(8.30185 0.0259677 0)
(8.37811 0.0219781 0)
(8.34918 0.0254316 0)
(8.43371 0.0161229 0)
(8.40463 0.0174986 0)
(8.49709 0.000901547 0)
(8.47322 -0.00771489 0)
(8.58106 -0.0455051 0)
(8.56776 -0.0735728 0)
(8.68261 -0.127074 0)
(8.66857 -0.168924 0)
(8.77354 -0.228905 0)
(8.74846 -0.275326 0)
(8.81127 -0.332634 0)
(8.77269 -0.35269 0)
(8.77524 -0.391911 0)
(8.76151 -0.367431 0)
(8.69593 -0.343823 0)
(8.67065 -0.303975 0)
(8.55775 -0.224051 0)
(8.59941 -0.180602 0)
(8.51551 -0.0882484 0)
(8.55568 -0.0273059 0)
(8.45063 0.02577 0)
(8.49252 0.0667277 0)
(8.34225 0.128926 0)
(8.37957 0.19231 0)
(8.17871 0.291508 0)
(8.1645 0.370304 0)
(7.99867 0.450212 0)
(8.00423 0.47899 0)
(7.89176 0.540134 0)
(7.9073 0.544512 0)
(7.8792 0.569253 0)
(7.89242 0.59159 0)
(7.91683 0.582574 0)
(7.95 0.596255 0)
(8.0506 0.575303 0)
(8.07566 0.532719 0)
(8.24018 0.491191 0)
(8.28972 0.424565 0)
(8.47805 0.31457 0)
(8.54774 0.232024 0)
(8.75856 0.0753371 0)
(8.86631 -0.0576531 0)
(9.03696 -0.229804 0)
(9.19446 -0.389679 0)
(9.32717 -0.571497 0)
(9.56825 -0.765828 0)
(9.64666 -0.920669 0)
(9.91856 -1.10584 0)
(10.0615 -1.27211 0)
(10.2878 -1.43754 0)
(10.4795 -1.58324 0)
(10.7451 -1.74148 0)
(10.9127 -1.85443 0)
(11.1759 -1.98536 0)
(11.3765 -2.0774 0)
(11.5699 -2.15312 0)
(11.7733 -2.23743 0)
(11.9169 -2.26869 0)
(12.1047 -2.3053 0)
(12.1923 -2.31253 0)
(12.3357 -2.3317 0)
(12.396 -2.28423 0)
(12.4939 -2.27515 0)
(12.5582 -2.17212 0)
(12.5903 -2.13265 0)
(12.6536 -2.0012 0)
(12.6527 -1.92491 0)
(12.7208 -1.80015 0)
(12.7063 -1.67696 0)
(12.7801 -1.52636 0)
(12.7944 -1.39282 0)
(12.8834 -1.21049 0)
(12.9109 -1.0721 0)
(13.0368 -0.886742 0)
(13.0949 -0.746853 0)
(13.2024 -0.579083 0)
(13.2858 -0.459958 0)
(13.3691 -0.310254 0)
(13.4451 -0.226651 0)
(13.4716 -0.116177 0)
(13.5313 -0.061424 0)
(13.4976 -0.00691205 0)
(13.5172 -0.0100575 0)
(13.4747 -0.0254498 0)
(13.4099 -0.0796169 0)
(13.3548 -0.166336 0)
(13.2581 -0.29622 0)
(13.1769 -0.427204 0)
(13.037 -0.60124 0)
(12.9321 -0.790921 0)
(12.7817 -0.996766 0)
(12.5779 -1.20353 0)
(12.4251 -1.42285 0)
(12.1436 -1.61333 0)
(11.8705 -1.82724 0)
(11.5922 -2.01077 0)
(11.1536 -2.19572 0)
(10.9179 -2.34735 0)
(10.4964 -2.5002 0)
(10.185 -2.62434 0)
(10.0174 -2.74958 0)
(9.61692 -2.89978 0)
(9.58782 -2.99886 0)
(9.38512 -3.10133 0)
(9.22732 -3.17955 0)
(9.2034 -3.31919 0)
(8.96029 -3.34042 0)
(8.53371 -3.22785 0)
(8.17205 -3.23455 0)
(7.97694 -3.43357 0)
(7.35247 -3.36817 0)
(6.30938 -2.62377 0)
(5.07608 -1.96267 0)
(4.21116 -1.7661 0)
(3.57301 -2.17175 0)
(3.46561 -2.86284 0)
(3.2632 -3.61496 0)
(3.22361 -4.31624 0)
(3.21643 -4.56488 0)
(3.35276 -4.80147 0)
(3.46246 -5.04442 0)
(3.83842 -5.27147 0)
(4.5933 -5.08338 0)
(4.58976 -4.90054 0)
(5.12947 -4.74425 0)
(5.19595 -4.36439 0)
(5.28127 -4.04248 0)
(5.29707 -3.75285 0)
(5.09788 -3.29612 0)
(5.12761 -2.65475 0)
(5.17857 -1.76866 0)
(5.69454 -0.695591 0)
(5.96318 0.0897945 0)
(6.6384 0.798557 0)
(6.89862 1.42402 0)
(7.17608 2.16872 0)
(7.56036 2.93527 0)
(7.79577 3.56729 0)
(8.10902 4.15361 0)
(8.2392 4.53419 0)
(8.59123 4.59783 0)
(8.77456 4.40301 0)
(8.89734 4.20107 0)
(9.08324 4.51178 0)
(9.78677 5.53502 0)
(10.0149 6.6181 0)
(10.4673 7.41806 0)
(10.5512 7.82511 0)
(10.7562 8.0372 0)
(10.6719 7.93003 0)
(10.6793 7.43564 0)
(10.646 7.04535 0)
(10.6959 6.46215 0)
(10.6035 5.72575 0)
(10.3831 5.06489 0)
(10.4387 4.62173 0)
(10.4057 3.86477 0)
(9.76074 3.09729 0)
(10.4352 3.65603 0)
(9.73997 2.93509 0)
(9.43051 2.14811 0)
(9.91249 3.80451 0)
(9.11152 2.76317 0)
(8.93035 3.00494 0)
(9.67476 3.73791 0)
(7.79761 4.31786 0)
(10.9738 3.8925 0)
(6.87779 7.11905 0)
(11.1634 2.67293 0)
(8.85852 9.40667 0)
(10.3113 -0.0601139 0)
(10.2541 0.0222323 0)
(10.2142 0.0447694 0)
(10.1484 0.0544636 0)
(10.1659 0.00625701 0)
(10.166 -0.0440131 0)
(10.1882 -0.0629192 0)
(10.205 -0.119334 0)
(10.1868 -0.117828 0)
(10.2263 -0.136828 0)
(10.1991 -0.104361 0)
(10.2507 -0.0726235 0)
(10.2505 -0.051186 0)
(10.272 -0.0211816 0)
(10.2936 -0.0330581 0)
(10.2629 -0.0253246 0)
(10.2974 -0.0492662 0)
(10.2395 -0.0540208 0)
(10.2845 -0.0746169 0)
(10.2382 -0.0751795 0)
(10.2847 -0.0740413 0)
(10.267 -0.0608953 0)
(10.3068 -0.0410413 0)
(10.3127 -0.0234019 0)
(10.3349 0.00498992 0)
(10.349 0.00981045 0)
(10.3591 0.0263521 0)
(10.3748 0.020193 0)
(10.3902 0.0152624 0)
(10.3965 0.0131749 0)
(10.4333 -0.00439435 0)
(10.4299 -0.00482687 0)
(10.4815 -0.0236379 0)
(10.4849 -0.0332348 0)
(10.5381 -0.06839 0)
(10.5567 -0.0922245 0)
(10.6105 -0.146196 0)
(10.6185 -0.18113 0)
(10.6704 -0.236831 0)
(10.6511 -0.279932 0)
(10.6775 -0.313628 0)
(10.6384 -0.344305 0)
(10.6149 -0.352198 0)
(10.59 -0.349846 0)
(10.5059 -0.329586 0)
(10.4902 -0.288604 0)
(10.3853 -0.211275 0)
(10.4104 -0.147737 0)
(10.3193 -0.0726959 0)
(10.3579 -0.0110777 0)
(10.2496 0.0652309 0)
(10.2903 0.117054 0)
(10.1899 0.199927 0)
(10.2027 0.264651 0)
(10.0939 0.356364 0)
(10.0655 0.427978 0)
(9.94512 0.51582 0)
(9.95119 0.56004 0)
(9.82921 0.604509 0)
(9.88394 0.628084 0)
(9.75811 0.630204 0)
(9.84394 0.623216 0)
(9.72756 0.622497 0)
(9.81885 0.580986 0)
(9.74908 0.554535 0)
(9.87561 0.497604 0)
(9.84318 0.422743 0)
(9.99501 0.342753 0)
(10.0637 0.231016 0)
(10.1826 0.114275 0)
(10.3295 -0.0353515 0)
(10.4579 -0.175596 0)
(10.6307 -0.36195 0)
(10.7915 -0.524089 0)
(10.9462 -0.690572 0)
(11.1641 -0.900596 0)
(11.3229 -1.05664 0)
(11.5214 -1.24 0)
(11.6829 -1.43018 0)
(11.8906 -1.58765 0)
(12.0269 -1.73959 0)
(12.2271 -1.896 0)
(12.3331 -2.01294 0)
(12.5029 -2.11631 0)
(12.5763 -2.20036 0)
(12.7088 -2.29473 0)
(12.74 -2.30354 0)
(12.8469 -2.38529 0)
(12.8505 -2.36675 0)
(12.9109 -2.3998 0)
(12.8984 -2.35555 0)
(12.9373 -2.333 0)
(12.9124 -2.26282 0)
(12.9057 -2.20137 0)
(12.9029 -2.11036 0)
(12.8439 -2.03145 0)
(12.872 -1.90271 0)
(12.7921 -1.8075 0)
(12.8725 -1.63754 0)
(12.7864 -1.52785 0)
(12.8925 -1.35147 0)
(12.8492 -1.2368 0)
(12.9531 -1.05909 0)
(12.946 -0.936627 0)
(13.0867 -0.785736 0)
(13.0707 -0.649914 0)
(13.2489 -0.501914 0)
(13.2228 -0.386813 0)
(13.3859 -0.252561 0)
(13.3311 -0.153398 0)
(13.4552 -0.0773741 0)
(13.3414 0.00995717 0)
(13.4083 0.00567356 0)
(13.2666 0.0441803 0)
(13.2514 -0.0417314 0)
(13.0715 -0.062597 0)
(13.0141 -0.230371 0)
(12.8187 -0.314758 0)
(12.6993 -0.520357 0)
(12.5118 -0.67271 0)
(12.3633 -0.892694 0)
(12.1525 -1.07641 0)
(11.9697 -1.24548 0)
(11.6991 -1.45059 0)
(11.4627 -1.58508 0)
(11.1435 -1.75517 0)
(10.8277 -1.90726 0)
(10.599 -2.03934 0)
(10.2459 -2.25591 0)
(10.1019 -2.40912 0)
(9.87991 -2.58801 0)
(9.68818 -2.76124 0)
(9.62342 -2.90002 0)
(9.39017 -2.93774 0)
(9.29008 -3.09175 0)
(9.13552 -3.15322 0)
(8.71386 -3.01248 0)
(8.3718 -2.99881 0)
(8.06074 -3.04466 0)
(7.58071 -2.99178 0)
(6.60792 -2.52075 0)
(5.40162 -1.68526 0)
(4.29868 -1.18883 0)
(3.48497 -1.14454 0)
(3.00436 -1.88847 0)
(2.66301 -2.67085 0)
(2.39061 -3.54006 0)
(2.21565 -4.22674 0)
(2.27585 -4.56607 0)
(2.41433 -4.9559 0)
(2.5745 -5.39045 0)
(3.19177 -5.63227 0)
(3.63588 -5.39179 0)
(3.83151 -5.1818 0)
(4.38352 -4.83758 0)
(4.1025 -4.41116 0)
(4.41429 -4.05775 0)
(4.13739 -3.70641 0)
(4.24441 -3.10089 0)
(4.10569 -2.78934 0)
(4.31209 -1.9395 0)
(4.6505 -1.08655 0)
(4.98379 -0.303007 0)
(5.50191 0.480038 0)
(5.84463 1.15068 0)
(6.07754 1.93782 0)
(6.38403 2.62821 0)
(6.73642 3.30929 0)
(7.07249 3.92958 0)
(7.30501 4.22998 0)
(7.77984 4.31106 0)
(8.14731 4.34795 0)
(8.20638 4.21844 0)
(8.64216 4.05672 0)
(9.04843 4.79848 0)
(9.31858 6.05726 0)
(9.54101 7.03924 0)
(9.87001 7.60381 0)
(9.66742 7.89581 0)
(9.89026 7.76315 0)
(10.1126 7.45927 0)
(9.79903 7.00488 0)
(10.2185 6.3847 0)
(10.1689 5.987 0)
(10.1644 5.14586 0)
(9.85685 4.36858 0)
(10.5308 4.28723 0)
(9.95334 3.33731 0)
(9.38182 2.77107 0)
(11.0917 4.12418 0)
(9.03777 2.32649 0)
(9.60363 2.56219 0)
(10.8133 3.95391 0)
(8.29381 3.64911 0)
(11.3258 2.58864 0)
(7.54899 5.79985 0)
(12.0723 1.92128 0)
(8.5918 7.78828 0)
(11.8095 3.064 0)
(9.72674 8.18386 0)
(11.9398 -0.0214423 0)
(11.8443 0.00602207 0)
(11.796 -0.0281661 0)
(11.7046 -0.0142937 0)
(11.7052 -0.0630944 0)
(11.7336 -0.0809745 0)
(11.754 -0.0849611 0)
(11.8056 -0.126992 0)
(11.756 -0.0988646 0)
(11.824 -0.149067 0)
(11.7574 -0.11517 0)
(11.8184 -0.108726 0)
(11.8007 -0.0817957 0)
(11.8199 -0.0452085 0)
(11.8551 -0.0507143 0)
(11.816 -0.0223385 0)
(11.8528 -0.0524984 0)
(11.7866 -0.0465607 0)
(11.8044 -0.0822393 0)
(11.7683 -0.0850034 0)
(11.7749 -0.0872281 0)
(11.781 -0.0830866 0)
(11.7825 -0.059828 0)
(11.8234 -0.0488553 0)
(11.8119 -0.017275 0)
(11.8671 -0.0175975 0)
(11.843 0.00516134 0)
(11.897 -0.00467744 0)
(11.8798 -0.00172387 0)
(11.9168 -0.00422234 0)
(11.9157 -0.0208266 0)
(11.937 -0.0275333 0)
(11.9478 -0.0453857 0)
(11.9544 -0.0695414 0)
(11.984 -0.0979502 0)
(11.9771 -0.123346 0)
(12.036 -0.17279 0)
(12.0071 -0.188064 0)
(12.0763 -0.241629 0)
(12.025 -0.265828 0)
(12.0676 -0.291886 0)
(11.9872 -0.316928 0)
(11.9784 -0.323472 0)
(11.8884 -0.32359 0)
(11.8283 -0.305022 0)
(11.7619 -0.266042 0)
(11.6858 -0.196061 0)
(11.6702 -0.140053 0)
(11.6043 -0.0567203 0)
(11.637 0.00621535 0)
(11.5516 0.0837131 0)
(11.5961 0.155999 0)
(11.5201 0.220022 0)
(11.5616 0.304147 0)
(11.4958 0.375794 0)
(11.5181 0.455075 0)
(11.4528 0.533712 0)
(11.4851 0.586849 0)
(11.4319 0.639151 0)
(11.4703 0.647672 0)
(11.4509 0.666188 0)
(11.4692 0.639583 0)
(11.4857 0.626068 0)
(11.4818 0.591523 0)
(11.5374 0.528756 0)
(11.5546 0.471479 0)
(11.6327 0.387868 0)
(11.6855 0.276866 0)
(11.7919 0.170532 0)
(11.8779 0.0197008 0)
(11.9826 -0.127231 0)
(12.1248 -0.288017 0)
(12.2099 -0.459861 0)
(12.398 -0.64159 0)
(12.4804 -0.812209 0)
(12.6577 -0.991854 0)
(12.7768 -1.1908 0)
(12.8855 -1.34402 0)
(13.0115 -1.5372 0)
(13.0984 -1.67467 0)
(13.1673 -1.84075 0)
(13.2401 -1.95121 0)
(13.2428 -2.06665 0)
(13.2922 -2.1599 0)
(13.2251 -2.22812 0)
(13.2702 -2.29143 0)
(13.1562 -2.33184 0)
(13.189 -2.35761 0)
(13.0712 -2.3929 0)
(13.0856 -2.35353 0)
(12.9784 -2.36704 0)
(12.9815 -2.28122 0)
(12.8665 -2.2573 0)
(12.8816 -2.14868 0)
(12.7631 -2.09527 0)
(12.799 -1.98323 0)
(12.7111 -1.87266 0)
(12.7597 -1.74726 0)
(12.7356 -1.62822 0)
(12.7405 -1.48495 0)
(12.7968 -1.38151 0)
(12.7967 -1.22921 0)
(12.8712 -1.11343 0)
(12.876 -0.963344 0)
(12.989 -0.830307 0)
(12.98 -0.683284 0)
(13.1185 -0.533874 0)
(13.1035 -0.419499 0)
(13.2236 -0.250025 0)
(13.1728 -0.173309 0)
(13.268 -0.0328808 0)
(13.1488 0.0141945 0)
(13.1862 0.0912292 0)
(13.0373 0.0877797 0)
(12.9953 0.0827285 0)
(12.7745 0.024519 0)
(12.7312 -0.0960328 0)
(12.4438 -0.192511 0)
(12.3793 -0.405669 0)
(12.1034 -0.53137 0)
(12.0164 -0.776768 0)
(11.7456 -0.904686 0)
(11.6348 -1.08387 0)
(11.337 -1.24049 0)
(11.2061 -1.35318 0)
(10.8892 -1.49972 0)
(10.709 -1.65447 0)
(10.5089 -1.81918 0)
(10.2629 -2.05632 0)
(10.1516 -2.22572 0)
(9.94122 -2.45729 0)
(9.69378 -2.63424 0)
(9.59522 -2.70972 0)
(9.36665 -2.84382 0)
(9.17718 -2.94301 0)
(8.86722 -2.81932 0)
(8.4752 -2.76267 0)
(8.27676 -2.77467 0)
(7.82103 -2.72564 0)
(7.02301 -2.3337 0)
(5.81537 -1.49206 0)
(4.65035 -0.768133 0)
(3.55513 -0.407276 0)
(2.86686 -0.677162 0)
(2.31419 -1.46109 0)
(1.7852 -2.34304 0)
(1.44024 -3.33818 0)
(1.10909 -4.09742 0)
(1.2347 -4.5484 0)
(1.35211 -5.19761 0)
(1.64082 -5.83254 0)
(2.17522 -5.95773 0)
(2.46678 -5.81833 0)
(2.90139 -5.52361 0)
(3.28875 -4.92784 0)
(3.02417 -4.47816 0)