/*--------------------------------*- C++ -*----------------------------------*\
| =========                 |                                                 |
| \\      /  F ield         | OpenFOAM: The Open Source CFD Toolbox           |
|  \\    /   O peration     | Version:  2.4.0                                 |
|   \\  /    A nd           | Web:      www.OpenFOAM.org                      |
|    \\/     M anipulation  |                                                 |
\*---------------------------------------------------------------------------*/
FoamFile
{
    version     2.0;
    format      ascii;
    class       volVectorField;
    location    "1.91";
    object      U_0;
}
// * * * * * * * * * * * * * * * * * * * * * * * * * * * * * * * * * * * * * //

dimensions      [0 1 -1 0 0 0 0];

internalField   nonuniform List<vector> 
8800
(
(8.09301 0.387842 0)
(5.45188 0.242673 0)
(3.90837 0.0431036 0)
(3.16168 -0.0157484 0)
(2.7943 -0.0180945 0)
(2.60713 -0.0111577 0)
(2.47492 -0.0057628 0)
(2.39057 -0.00216759 0)
(2.30579 -0.00108889 0)
(2.26422 -0.00165121 0)
(2.2024 0.000227432 0)
(2.18147 -0.0003141 0)
(2.12703 -0.000216183 0)
(2.11957 -3.14639e-05 0)
(2.05858 0.00131061 0)
(2.05627 -0.000934484 0)
(1.99729 0.00078384 0)
(2.00072 -0.00269674 0)
(1.9841 0.0116823 0)
(1.79814 -0.0719388 0)
(10.0826 0.8378 0)
(9.66756 0.86862 0)
(8.85799 0.506932 0)
(8.10427 0.26129 0)
(7.46828 0.138777 0)
(7.03591 0.0815264 0)
(6.66863 0.0541175 0)
(6.42944 0.0414318 0)
(6.18942 0.0306179 0)
(6.06707 0.0216 0)
(5.87957 0.0213277 0)
(5.82824 0.0166757 0)
(5.66968 0.0150153 0)
(5.65144 0.0145341 0)
(5.49516 0.0192387 0)
(5.49526 0.0095649 0)
(5.34711 0.0202151 0)
(5.344 -0.00475173 0)
(5.27639 0.0313646 0)
(5.1657 -0.0306882 0)
(10.0489 0.629495 0)
(10.6839 0.865502 0)
(10.8351 0.600427 0)
(10.7342 0.373326 0)
(10.412 0.256907 0)
(10.1376 0.195591 0)
(9.78817 0.15316 0)
(9.55057 0.124845 0)
(9.25049 0.0947456 0)
(9.11081 0.0731556 0)
(8.84349 0.0636392 0)
(8.78417 0.0498289 0)
(8.55725 0.0438269 0)
(8.53198 0.0397485 0)
(8.31953 0.0460423 0)
(8.32216 0.0281565 0)
(8.11493 0.0471717 0)
(8.12492 0.0051711 0)
(7.98194 0.0408289 0)
(7.97495 -0.0795922 0)
(9.9574 0.45383 0)
(10.626 0.711073 0)
(11.0996 0.543306 0)
(11.4502 0.352026 0)
(11.4865 0.262484 0)
(11.5387 0.225867 0)
(11.4175 0.201066 0)
(11.3854 0.180213 0)
(11.2042 0.14643 0)
(11.1837 0.121659 0)
(10.9703 0.112747 0)
(10.9685 0.0891518 0)
(10.7719 0.0837582 0)
(10.7624 0.0716668 0)
(10.5706 0.0824735 0)
(10.5795 0.0528184 0)
(10.3697 0.0834498 0)
(10.3932 0.0238673 0)
(10.2042 0.0657255 0)
(10.2789 -0.101089 0)
(9.95364 0.340197 0)
(10.501 0.577278 0)
(10.9455 0.455658 0)
(11.3873 0.294939 0)
(11.5756 0.2115 0)
(11.7648 0.190771 0)
(11.802 0.17514 0)
(11.9152 0.177613 0)
(11.8925 0.145015 0)
(11.9931 0.130266 0)
(11.9368 0.119063 0)
(12.0111 0.101196 0)
(11.968 0.0915271 0)
(11.9965 0.0953259 0)
(11.9346 0.090686 0)
(11.9763 0.08385 0)
(11.8625 0.0895021 0)
(11.896 0.070882 0)
(11.7649 0.0662754 0)
(11.8682 -0.0289401 0)
(9.97436 0.245899 0)
(10.3966 0.465547 0)
(10.8333 0.376437 0)
(11.22 0.241282 0)
(11.4808 0.161653 0)
(11.6572 0.150137 0)
(11.7704 0.145919 0)
(11.8703 0.146628 0)
(11.9421 0.1187 0)
(12.0398 0.105837 0)
(12.1117 0.109929 0)
(12.1679 0.0817472 0)
(12.2768 0.0818016 0)
(12.2968 0.0828302 0)
(12.3648 0.0797115 0)
(12.4148 0.0780004 0)
(12.44 0.0908387 0)
(12.4813 0.0810964 0)
(12.4524 0.101367 0)
(12.5568 -0.0314903 0)
(9.96994 0.171617 0)
(10.3432 0.356912 0)
(10.7343 0.292431 0)
(11.1287 0.205623 0)
(11.37 0.119597 0)
(11.5566 0.110829 0)
(11.6956 0.0975874 0)
(11.7787 0.135236 0)
(11.8643 0.0835184 0)
(11.9625 0.0944491 0)
(12.0467 0.0696311 0)
(12.0912 0.0754194 0)
(12.2301 0.0365323 0)
(12.2468 0.100001 0)
(12.3796 0.0325213 0)
(12.3868 0.09424 0)
(12.489 0.0365783 0)
(12.505 0.124853 0)
(12.5663 0.0757426 0)
(12.5932 0.13276 0)
(9.99407 0.10314 0)
(10.2687 0.26499 0)
(10.6779 0.197724 0)
(11.0371 0.163932 0)
(11.2861 0.0729955 0)
(11.5372 0.0885863 0)
(11.6072 0.0558587 0)
(11.7268 0.114559 0)
(11.7656 0.0331286 0)
(11.9248 0.083461 0)
(11.933 0.0487384 0)
(12.1076 0.0704061 0)
(12.0643 0.00810272 0)
(12.2203 0.0813343 0)
(12.3057 0.00485779 0)
(12.3347 0.0927434 0)
(12.4062 0.0154372 0)
(12.4363 0.117534 0)
(12.5809 0.0635457 0)
(12.4806 0.135172 0)
(9.99566 0.0638674 0)
(10.2464 0.148083 0)
(10.6379 0.125823 0)
(10.9667 0.105278 0)
(11.2764 0.040335 0)
(11.4503 0.0341131 0)
(11.5807 0.0380743 0)
(11.674 0.0773072 0)
(11.7554 0.0264459 0)
(11.8257 0.0376058 0)
(11.9033 0.0289735 0)
(12.0559 0.0348266 0)
(12.0584 0.0191293 0)
(12.2008 0.0286001 0)
(12.193 0.0194767 0)
(12.3304 0.0421144 0)
(12.3411 0.0314736 0)
(12.4417 0.0400915 0)
(12.4887 0.0704933 0)
(12.4028 -0.0154427 0)
(9.99898 0.0087267 0)
(10.2395 0.0596082 0)
(10.5786 0.0389285 0)
(10.9612 0.0431327 0)
(11.2539 0.00107372 0)
(11.4476 0.0253695 0)
(11.5473 -0.0048528 0)
(11.6326 0.0440958 0)
(11.7646 -0.0115407 0)
(11.7931 0.0288187 0)
(11.9197 0.00100711 0)
(11.9715 0.022129 0)
(12.0938 -0.0127192 0)
(12.1041 0.0332631 0)
(12.2246 -0.0140611 0)
(12.3078 0.0328148 0)
(12.3321 -0.00572477 0)
(12.3886 0.0232791 0)
(12.4768 0.0238855 0)
(12.4032 0.0133144 0)
(10.0094 -0.0261366 0)
(10.2107 -0.0431526 0)
(10.5951 -0.0374092 0)
(10.9673 -0.0246094 0)
(11.256 -0.0284998 0)
(11.4449 -0.0217369 0)
(11.5301 -0.0153353 0)
(11.6758 -0.00294119 0)
(11.7371 -0.0179297 0)
(11.794 -0.0149346 0)
(11.8909 -0.0107769 0)
(12.0133 -0.0121732 0)
(12.0461 -0.00441915 0)
(12.1402 -0.00816474 0)
(12.232 -0.0255198 0)
(12.2761 0.00207783 0)
(12.3522 -0.00148399 0)
(12.3919 -0.0306898 0)
(12.45 0.00117704 0)
(12.418 0.0100105 0)
(10.0052 -0.0725384 0)
(10.2344 -0.138503 0)
(10.611 -0.127795 0)
(10.9957 -0.0910271 0)
(11.2911 -0.0584765 0)
(11.434 -0.0331307 0)
(11.5818 -0.0592953 0)
(11.6644 -0.0438135 0)
(11.7433 -0.0405345 0)
(11.8543 -0.033073 0)
(11.9226 -0.0374309 0)
(12.002 -0.029613 0)
(12.0683 -0.0268276 0)
(12.2015 -0.0275455 0)
(12.2185 -0.0362193 0)
(12.2939 -0.0208865 0)
(12.3785 -0.0372486 0)
(12.4373 -0.0483686 0)
(12.4143 -0.0223732 0)
(12.4756 -0.00694539 0)
(10.0041 -0.120304 0)
(10.2577 -0.241187 0)
(10.6679 -0.206378 0)
(11.0589 -0.15467 0)
(11.3016 -0.0855779 0)
(11.4889 -0.0802367 0)
(11.6327 -0.0800199 0)
(11.7032 -0.0695978 0)
(11.7891 -0.0689955 0)
(11.8898 -0.0722072 0)
(11.9728 -0.0464447 0)
(12.032 -0.0506192 0)
(12.1409 -0.0462935 0)
(12.2143 -0.0496794 0)
(12.2755 -0.0458169 0)
(12.3332 -0.050162 0)
(12.4344 -0.0545508 0)
(12.4431 -0.0698799 0)
(12.5082 -0.064203 0)
(12.4929 -0.00860464 0)
(10.0275 -0.178408 0)
(10.2834 -0.345727 0)
(10.7589 -0.296098 0)
(11.1123 -0.207327 0)
(11.3954 -0.117454 0)
(11.5552 -0.11254 0)
(11.6909 -0.113394 0)
(11.7544 -0.109677 0)
(11.8695 -0.0910182 0)
(11.9591 -0.0947484 0)
(12.0422 -0.0645495 0)
(12.106 -0.0797951 0)
(12.2113 -0.0617244 0)
(12.2772 -0.069265 0)
(12.3388 -0.0595205 0)
(12.4088 -0.0760766 0)
(12.4801 -0.0716843 0)
(12.5174 -0.107879 0)
(12.5765 -0.0866909 0)
(12.5166 -0.0235365 0)
(10.0649 -0.255585 0)
(10.3069 -0.448391 0)
(10.9056 -0.380078 0)
(11.1863 -0.251252 0)
(11.5242 -0.159191 0)
(11.6015 -0.155873 0)
(11.8146 -0.140584 0)
(11.8146 -0.134481 0)
(11.9909 -0.123342 0)
(12.0052 -0.125711 0)
(12.1477 -0.0835614 0)
(12.1472 -0.0994083 0)
(12.283 -0.0796308 0)
(12.2782 -0.0910834 0)
(12.3808 -0.0714125 0)
(12.3805 -0.100021 0)
(12.4731 -0.0869269 0)
(12.4447 -0.132042 0)
(12.4652 -0.105809 0)
(12.4371 -0.0844841 0)
(10.0604 -0.34878 0)
(10.3858 -0.561573 0)
(11.0673 -0.469483 0)
(11.2904 -0.293823 0)
(11.6627 -0.204299 0)
(11.6629 -0.194093 0)
(11.892 -0.180166 0)
(11.808 -0.165702 0)
(12.0024 -0.150892 0)
(11.886 -0.139188 0)
(12.0452 -0.103618 0)
(11.9081 -0.112722 0)
(12.0505 -0.0940932 0)
(11.9064 -0.0981483 0)
(12.0192 -0.0815747 0)
(11.8688 -0.107848 0)
(11.958 -0.0894495 0)
(11.7733 -0.136355 0)
(11.7964 -0.117808 0)
(11.6449 -0.118678 0)
(10.0114 -0.458628 0)
(10.5594 -0.703203 0)
(11.1828 -0.548915 0)
(11.3543 -0.350738 0)
(11.571 -0.259656 0)
(11.4447 -0.231535 0)
(11.5055 -0.200386 0)
(11.2862 -0.172121 0)
(11.3177 -0.151414 0)
(11.0516 -0.131936 0)
(11.1048 -0.0985483 0)
(10.8307 -0.0974776 0)
(10.8948 -0.0815289 0)
(10.627 -0.0822857 0)
(10.7002 -0.0661595 0)
(10.4246 -0.0876141 0)
(10.4964 -0.068309 0)
(10.1953 -0.116248 0)
(10.2214 -0.0902307 0)
(9.92389 -0.123855 0)
(10.065 -0.632771 0)
(10.6558 -0.861749 0)
(10.8725 -0.603059 0)
(10.6801 -0.372978 0)
(10.4695 -0.254522 0)
(10.0734 -0.197982 0)
(9.84787 -0.15392 0)
(9.48376 -0.120671 0)
(9.33181 -0.0966509 0)
(9.00616 -0.07924 0)
(8.95431 -0.0552878 0)
(8.66517 -0.0535639 0)
(8.6692 -0.045364 0)
(8.4034 -0.0448869 0)
(8.44173 -0.0376326 0)
(8.17006 -0.0501341 0)
(8.22125 -0.0442242 0)
(7.9184 -0.0698005 0)
(7.93413 -0.0677307 0)
(7.61601 -0.0583566 0)
(10.0846 -0.838853 0)
(9.65624 -0.867197 0)
(8.87284 -0.507282 0)
(8.07754 -0.261572 0)
(7.50017 -0.13733 0)
(6.99907 -0.0831555 0)
(6.70284 -0.0546915 0)
(6.39158 -0.0391993 0)
(6.23653 -0.030452 0)
(6.00373 -0.0265635 0)
(5.946 -0.0162967 0)
(5.75347 -0.0181433 0)
(5.74272 -0.0162018 0)
(5.56146 -0.0177626 0)
(5.57563 -0.0143598 0)
(5.38561 -0.0228078 0)
(5.404 -0.0198624 0)
(5.17934 -0.0329882 0)
(5.1777 -0.0363288 0)
(4.91083 -0.000958737 0)
(8.09122 -0.388061 0)
(5.44905 -0.242371 0)
(3.91159 -0.0429961 0)
(3.15557 0.015327 0)
(2.80309 0.0185019 0)
(2.59619 0.0108506 0)
(2.48518 0.00543374 0)
(2.37718 0.00278651 0)
(2.32352 0.00151302 0)
(2.24268 -0.000223514 0)
(2.22078 0.00150183 0)
(2.15891 -7.98532e-05 0)
(2.15089 -0.000116327 0)
(2.08502 -0.000881005 0)
(2.08354 8.00761e-05 0)
(2.0114 -0.00242102 0)
(2.00381 -0.000688851 0)
(1.91211 -0.00431263 0)
(1.87645 -0.00413525 0)
(1.74967 0.014264 0)
(2.25363 -0.10254 0)
(2.36831 0.0234204 0)
(2.52704 0.054225 0)
(2.63526 0.036159 0)
(2.73258 -0.0047878 0)
(2.78973 -0.0273405 0)
(2.84265 -0.0358173 0)
(2.89531 -0.0370831 0)
(2.95485 -0.0323215 0)
(3.01546 -0.0231761 0)
(3.07873 -0.00560001 0)
(3.1359 0.00925723 0)
(3.19199 0.0155315 0)
(3.24332 0.0110032 0)
(3.29528 -0.00529845 0)
(3.33614 -0.0189506 0)
(3.37925 -0.0315383 0)
(3.40699 -0.0343126 0)
(3.4429 -0.0397923 0)
(3.46922 -0.0339092 0)
(3.49868 -0.0227716 0)
(3.52265 -0.00347459 0)
(3.55552 0.0203277 0)
(3.58284 0.0455077 0)
(3.63518 0.0596039 0)
(3.67331 0.0730886 0)
(3.75101 0.0747096 0)
(3.78372 0.0793278 0)
(3.87038 0.0796805 0)
(3.88601 0.0834662 0)
(3.97696 0.0880464 0)
(3.98599 0.0984701 0)
(4.08867 0.102508 0)
(4.12271 0.0887919 0)
(4.28355 0.0621488 0)
(4.28594 0.0247812 0)
(4.48336 -0.0340469 0)
(4.43661 -0.0992485 0)
(4.62793 -0.175625 0)
(4.54861 -0.233479 0)
(4.6763 -0.2953 0)
(4.54941 -0.338323 0)
(4.65244 -0.43531 0)
(4.38899 -0.490288 0)
(4.34205 -0.494109 0)
(4.1783 -0.352928 0)
(4.24967 -0.199182 0)
(4.24506 -0.0948539 0)
(4.11893 -0.044817 0)
(4.24521 -0.0495886 0)
(4.12226 -0.109527 0)
(4.25793 -0.0838221 0)
(4.1024 -0.0446721 0)
(4.32875 0.103755 0)
(4.17408 0.221838 0)
(4.58277 0.324128 0)
(4.54526 0.500827 0)
(4.98098 0.558005 0)
(5.03249 0.675975 0)
(5.35265 0.743038 0)
(5.49794 0.794661 0)
(5.61448 0.848642 0)
(5.84721 0.84644 0)
(5.88811 0.895888 0)
(6.11309 0.830485 0)
(6.21447 0.832397 0)
(6.41649 0.771436 0)
(6.52614 0.697228 0)
(6.78026 0.614144 0)
(6.88778 0.476025 0)
(7.08695 0.309578 0)
(7.23775 0.174959 0)
(7.35882 -0.0305854 0)
(7.5128 -0.220085 0)
(7.54358 -0.378871 0)
(7.69719 -0.600327 0)
(7.6104 -0.769589 0)
(7.74177 -0.921288 0)
(7.67911 -1.09711 0)
(7.72565 -1.23405 0)
(7.731 -1.33102 0)
(7.8121 -1.44769 0)
(7.85412 -1.55135 0)
(8.03089 -1.60404 0)
(8.15455 -1.7015 0)
(8.39003 -1.78176 0)
(8.58532 -1.82282 0)
(8.83349 -1.8826 0)
(9.05973 -1.96297 0)
(9.33795 -1.98009 0)
(9.55214 -1.99033 0)
(9.84919 -2.00301 0)
(10.0036 -1.96101 0)
(10.2757 -1.96895 0)
(10.4168 -1.90785 0)
(10.6185 -1.8234 0)
(10.7772 -1.76 0)
(10.9497 -1.61455 0)
(11.0729 -1.48638 0)
(11.2599 -1.33177 0)
(11.3792 -1.17257 0)
(11.5187 -1.00422 0)
(11.6654 -0.8569 0)
(11.7843 -0.703696 0)
(11.935 -0.555817 0)
(12.0084 -0.443537 0)
(12.1579 -0.31575 0)
(12.211 -0.210645 0)
(12.3045 -0.114646 0)
(12.378 -0.0664318 0)
(12.3818 0.00670641 0)
(12.5052 -0.0226279 0)
(12.4451 0.0116367 0)
(12.5586 -0.0778501 0)
(12.503 -0.104632 0)
(12.5705 -0.258693 0)
(12.5802 -0.346976 0)
(12.5486 -0.535131 0)
(12.6467 -0.708226 0)
(12.5392 -0.958824 0)
(12.63 -1.15397 0)
(12.5175 -1.44948 0)
(12.4946 -1.66794 0)
(12.4129 -1.95481 0)
(12.2207 -2.19613 0)
(12.1234 -2.41803 0)
(11.8602 -2.69781 0)
(11.6288 -2.85811 0)
(11.3348 -3.10965 0)
(10.926 -3.23923 0)
(10.6414 -3.40665 0)
(10.237 -3.454 0)
(9.78648 -3.4367 0)
(9.61974 -3.49164 0)
(9.19161 -3.4892 0)
(9.00911 -3.51637 0)
(8.85351 -3.62289 0)
(8.76638 -3.83101 0)
(8.54316 -3.81581 0)
(8.10254 -3.83765 0)
(8.05784 -4.06235 0)
(7.80256 -4.28569 0)
(6.99313 -3.7303 0)
(5.66292 -3.01365 0)
(5.08416 -2.83058 0)
(4.77209 -3.25915 0)
(4.78379 -3.7097 0)
(4.67039 -4.21682 0)
(4.95633 -4.52642 0)
(5.0453 -4.63178 0)
(5.28126 -4.80486 0)
(5.34511 -4.78153 0)
(5.54971 -4.66205 0)
(5.8603 -4.4338 0)
(5.81327 -4.35578 0)
(6.24878 -4.07773 0)
(6.35336 -3.9299 0)
(6.67072 -3.75992 0)
(6.9957 -3.26309 0)
(7.37464 -2.33239 0)
(7.75314 -1.02595 0)
(8.2783 0.165755 0)
(8.38506 0.91881 0)
(8.81615 1.45295 0)
(8.91875 1.88242 0)
(9.34514 2.65071 0)
(9.56102 3.40807 0)
(9.84509 4.01395 0)
(9.84208 4.45926 0)
(9.88655 4.56816 0)
(9.70575 4.52268 0)
(9.81348 4.57561 0)
(9.98072 4.74719 0)
(10.8822 5.38853 0)
(11.2015 6.45591 0)
(11.9635 7.35411 0)
(11.6455 7.88102 0)
(12.1131 8.1461 0)
(11.6967 8.12834 0)
(11.6184 7.66644 0)
(11.442 7.38805 0)
(11.3327 6.68819 0)
(11.0378 6.11044 0)
(10.936 5.39406 0)
(10.625 4.65247 0)
(10.3352 4.11218 0)
(10.2964 3.5953 0)
(9.86358 2.8579 0)
(9.76831 2.90776 0)
(9.56236 2.74208 0)
(8.89397 1.82672 0)
(9.11915 2.80638 0)
(8.65183 2.9888 0)
(8.05168 2.09168 0)
(8.14608 3.80079 0)
(7.55081 3.92465 0)
(6.59251 3.76886 0)
(6.47605 5.27223 0)
(7.11601 6.15604 0)
(4.05335 9.66798 0)
(5.33074 -0.0817444 0)
(5.35642 -0.0378734 0)
(5.36283 -0.00069852 0)
(5.36345 0.0020775 0)
(5.37143 -0.0372058 0)
(5.38818 -0.0757361 0)
(5.41781 -0.0884728 0)
(5.46079 -0.0927213 0)
(5.50277 -0.0799899 0)
(5.55023 -0.0690305 0)
(5.58234 -0.047424 0)
(5.62162 -0.0286768 0)
(5.64326 -0.019996 0)
(5.67317 -0.016047 0)
(5.69519 -0.0297497 0)
(5.71719 -0.0365254 0)
(5.74782 -0.0502511 0)
(5.75928 -0.0545593 0)
(5.79714 -0.0597965 0)
(5.79881 -0.0562428 0)
(5.84433 -0.04317 0)
(5.83681 -0.0281898 0)
(5.88935 -0.00486168 0)
(5.87355 0.0134676 0)
(5.94102 0.0316448 0)
(5.92059 0.0407498 0)
(6.01156 0.0470962 0)
(5.98274 0.0480833 0)
(6.08822 0.0461969 0)
(6.05077 0.0504362 0)
(6.16245 0.0482504 0)
(6.1231 0.0501979 0)
(6.24983 0.0491289 0)
(6.21248 0.0341829 0)
(6.38397 0.000128614 0)
(6.3413 -0.0256876 0)
(6.52641 -0.0956262 0)
(6.4877 -0.129193 0)
(6.645 -0.209526 0)
(6.60935 -0.260764 0)
(6.70704 -0.323725 0)
(6.63149 -0.377753 0)
(6.69024 -0.429238 0)
(6.58092 -0.4208 0)
(6.60127 -0.369558 0)
(6.51998 -0.254742 0)
(6.42178 -0.230197 0)
(6.48725 -0.185036 0)
(6.34743 -0.107357 0)
(6.44409 -0.0670393 0)
(6.34337 -0.0186293 0)
(6.40034 0.0406739 0)
(6.22369 0.0987266 0)
(6.2666 0.155856 0)
(5.9958 0.277697 0)
(6.06685 0.2988 0)
(5.93044 0.396622 0)
(6.05888 0.433764 0)
(6.05304 0.505227 0)
(6.21727 0.553645 0)
(6.31211 0.591466 0)
(6.43967 0.665637 0)
(6.57146 0.655177 0)
(6.69536 0.696482 0)
(6.85408 0.676583 0)
(6.96733 0.663369 0)
(7.13139 0.584202 0)
(7.2519 0.549389 0)
(7.42804 0.440139 0)
(7.52597 0.333214 0)
(7.73304 0.17664 0)
(7.78049 0.0401366 0)
(8.01536 -0.10714 0)
(8.03144 -0.309749 0)
(8.21698 -0.476007 0)
(8.26444 -0.661659 0)
(8.40861 -0.82631 0)
(8.44216 -1.00774 0)
(8.63224 -1.16676 0)
(8.67613 -1.28495 0)
(8.92713 -1.47646 0)
(9.03302 -1.55826 0)
(9.27325 -1.6677 0)
(9.51653 -1.82342 0)
(9.74176 -1.88094 0)
(9.98717 -1.96584 0)
(10.2715 -2.0708 0)
(10.4685 -2.09591 0)
(10.7348 -2.1629 0)
(10.9569 -2.16455 0)
(11.1436 -2.18297 0)
(11.3453 -2.18371 0)
(11.4681 -2.15406 0)
(11.6582 -2.11585 0)
(11.7564 -2.0438 0)
(11.8966 -1.93865 0)
(11.983 -1.84553 0)
(12.1355 -1.72906 0)
(12.1551 -1.57513 0)
(12.3122 -1.4634 0)
(12.3687 -1.29677 0)
(12.4457 -1.15217 0)
(12.5997 -0.980513 0)
(12.6178 -0.849898 0)
(12.8346 -0.65827 0)
(12.8092 -0.539579 0)
(13.0397 -0.401147 0)
(13.0022 -0.259595 0)
(13.1607 -0.191289 0)
(13.1614 -0.093262 0)
(13.2015 -0.0480704 0)
(13.2618 -0.00788759 0)
(13.2176 -0.0506581 0)
(13.2778 -0.0353875 0)
(13.1914 -0.148567 0)
(13.2477 -0.221555 0)
(13.1488 -0.359018 0)
(13.1594 -0.506837 0)
(13.0756 -0.699853 0)
(13.0114 -0.888292 0)
(12.946 -1.12423 0)
(12.7704 -1.34948 0)
(12.6754 -1.55401 0)
(12.4326 -1.84739 0)
(12.2141 -1.98462 0)
(11.9317 -2.29282 0)
(11.6166 -2.4604 0)
(11.2218 -2.67509 0)
(10.9224 -2.84198 0)
(10.4385 -2.98207 0)
(10.2561 -3.06452 0)
(9.77063 -3.11377 0)
(9.59519 -3.22104 0)
(9.39221 -3.27413 0)
(9.1035 -3.31501 0)
(9.07848 -3.44255 0)
(8.97827 -3.56583 0)
(8.73092 -3.59457 0)
(8.29779 -3.49371 0)
(8.06663 -3.63862 0)
(7.87616 -3.93423 0)
(7.12044 -3.60605 0)
(5.8609 -2.74443 0)
(4.88041 -2.36829 0)
(4.32691 -2.53727 0)
(4.07968 -3.12645 0)
(4.05265 -3.68174 0)
(4.04179 -4.34111 0)
(4.2816 -4.58837 0)
(4.26078 -4.7443 0)
(4.43154 -4.87887 0)
(4.41841 -4.89231 0)
(5.03667 -4.78414 0)
(5.15635 -4.56215 0)
(5.383 -4.52156 0)
(5.84764 -4.27468 0)
(5.80792 -4.08453 0)
(6.03181 -3.80596 0)
(5.96589 -3.36735 0)
(6.15456 -2.47485 0)
(6.36913 -1.35246 0)
(6.96306 -0.149746 0)
(7.20126 0.597683 0)
(7.82348 1.20232 0)
(7.92617 1.67724 0)
(8.35092 2.44882 0)
(8.55506 3.23707 0)
(8.8724 3.85908 0)
(9.0567 4.2664 0)
(9.24085 4.53135 0)
(9.17185 4.51681 0)
(9.3165 4.42612 0)
(9.34978 4.45887 0)
(9.96513 5.00332 0)
(10.5258 5.8861 0)
(11.109 6.80476 0)
(11.2395 7.42319 0)
(11.36 7.76997 0)
(11.4668 7.9716 0)
(11.1721 7.6856 0)
(11.2415 7.34809 0)
(11.1162 6.93776 0)
(10.9183 6.28684 0)
(10.8448 5.48225 0)
(10.6439 5.0315 0)
(10.4696 4.1463 0)
(10.2077 3.66527 0)
(10.3493 3.34217 0)
(9.8013 2.91922 0)
(9.66528 2.77078 0)
(9.54327 2.90019 0)
(8.96265 2.34949 0)
(8.82841 3.09257 0)
(8.65582 3.53802 0)
(8.03986 2.97174 0)
(8.11073 4.31804 0)
(8.32415 4.75439 0)
(6.13862 5.60879 0)
(9.83698 5.01329 0)
(6.85932 10.7819 0)
(7.99605 -0.0677062 0)
(8.004 0.00175867 0)
(8.01765 0.0381423 0)
(7.99816 0.0391047 0)
(7.9821 -0.015467 0)
(7.95525 -0.0722887 0)
(7.96483 -0.107718 0)
(7.98679 -0.132306 0)
(8.01917 -0.10964 0)
(8.06674 -0.098466 0)
(8.08952 -0.0634283 0)
(8.12613 -0.0429196 0)
(8.13253 -0.0305383 0)
(8.13953 -0.023048 0)
(8.15329 -0.0385759 0)
(8.13533 -0.0435775 0)
(8.17331 -0.0634943 0)
(8.14272 -0.0688178 0)
(8.20303 -0.0766024 0)
(8.16805 -0.0744819 0)
(8.23686 -0.0598018 0)
(8.20268 -0.0457159 0)
(8.26577 -0.0229571 0)
(8.23615 -0.00603545 0)
(8.29234 0.00734131 0)
(8.26529 0.0176546 0)
(8.32876 0.0205317 0)
(8.30317 0.025379 0)
(8.3794 0.0219881 0)
(8.35131 0.0248898 0)
(8.43565 0.0157152 0)
(8.40701 0.0170996 0)
(8.49914 3.48416e-06 0)
(8.47601 -0.00889886 0)
(8.58384 -0.0469236 0)
(8.57143 -0.0755333 0)
(8.68612 -0.12903 0)
(8.6722 -0.171397 0)
(8.77744 -0.232166 0)
(8.74961 -0.27893 0)
(8.81431 -0.33608 0)
(8.76984 -0.356819 0)
(8.77697 -0.395202 0)
(8.75603 -0.367887 0)
(8.69249 -0.345507 0)
(8.6616 -0.301274 0)
(8.55206 -0.221921 0)
(8.59153 -0.176171 0)
(8.50705 -0.0799686 0)
(8.54414 -0.019314 0)
(8.44033 0.0353375 0)
(8.47881 0.0766273 0)
(8.33047 0.140136 0)
(8.36671 0.204264 0)
(8.16435 0.303025 0)
(8.15224 0.382018 0)
(7.98736 0.457811 0)
(7.99641 0.486214 0)
(7.88351 0.545034 0)
(7.90699 0.544707 0)
(7.8767 0.570473 0)
(7.89627 0.586939 0)
(7.91703 0.578235 0)
(7.9567 0.590742 0)
(8.05012 0.56602 0)
(8.07886 0.52424 0)
(8.24027 0.483862 0)
(8.2898 0.412794 0)
(8.47723 0.305717 0)
(8.54787 0.222746 0)
(8.76083 0.0645659 0)
(8.86499 -0.0661198 0)
(9.04452 -0.237563 0)
(9.19512 -0.395759 0)
(9.33982 -0.580818 0)
(9.57207 -0.771897 0)
(9.65588 -0.926526 0)
(9.93202 -1.11375 0)
(10.0681 -1.27824 0)
(10.2966 -1.44165 0)
(10.4924 -1.58807 0)
(10.7512 -1.74304 0)
(10.9199 -1.85366 0)
(11.1852 -1.98405 0)
(11.3795 -2.07121 0)
(11.5753 -2.14774 0)
(11.7763 -2.23067 0)
(11.9204 -2.25793 0)
(12.1064 -2.29685 0)
(12.1919 -2.30301 0)
(12.3372 -2.32002 0)
(12.3934 -2.27369 0)
(12.4961 -2.26275 0)
(12.5529 -2.16084 0)
(12.5882 -2.12275 0)
(12.6503 -1.99016 0)
(12.6483 -1.9203 0)
(12.7193 -1.79156 0)
(12.7013 -1.67072 0)
(12.7833 -1.52027 0)
(12.7961 -1.38559 0)
(12.8887 -1.20404 0)
(12.9196 -1.06494 0)
(13.0491 -0.8787 0)
(13.1041 -0.740057 0)
(13.2144 -0.573733 0)
(13.2927 -0.45489 0)
(13.3774 -0.308325 0)
(13.4424 -0.227943 0)
(13.4699 -0.117979 0)
(13.5205 -0.0681748 0)
(13.4817 -0.0156247 0)
(13.5027 -0.0245306 0)
(13.4493 -0.0409207 0)
(13.3873 -0.0994895 0)
(13.3305 -0.191176 0)
(13.2359 -0.320572 0)
(13.1537 -0.452812 0)
(13.0156 -0.629163 0)
(12.916 -0.817941 0)
(12.7552 -1.02139 0)
(12.558 -1.22763 0)
(12.3982 -1.44135 0)
(12.1043 -1.63312 0)
(11.8397 -1.84653 0)
(11.5399 -2.03079 0)
(11.1148 -2.21603 0)
(10.8806 -2.37102 0)
(10.4559 -2.52255 0)
(10.1695 -2.64857 0)
(9.99421 -2.775 0)
(9.60149 -2.91824 0)
(9.59192 -3.0157 0)
(9.37406 -3.11939 0)
(9.23479 -3.20175 0)
(9.20674 -3.34223 0)
(8.9362 -3.34762 0)
(8.51123 -3.2403 0)
(8.17512 -3.27394 0)
(7.95928 -3.46669 0)
(7.28309 -3.34127 0)
(6.20243 -2.56027 0)
(4.9789 -1.92999 0)
(4.15481 -1.79964 0)
(3.55738 -2.2445 0)
(3.47547 -2.94836 0)
(3.28388 -3.68781 0)
(3.262 -4.36993 0)
(3.27302 -4.59055 0)
(3.39863 -4.80878 0)
(3.51072 -5.03339 0)
(3.85872 -5.22571 0)
(4.60581 -5.03943 0)
(4.58079 -4.87547 0)
(5.10072 -4.73434 0)
(5.19143 -4.36029 0)
(5.24097 -4.05511 0)
(5.26134 -3.75387 0)
(5.04454 -3.26566 0)
(5.1148 -2.54387 0)
(5.20884 -1.61811 0)
(5.75557 -0.56111 0)
(6.04028 0.172486 0)
(6.69948 0.856104 0)
(6.91942 1.48912 0)
(7.20063 2.25173 0)
(7.58435 3.00061 0)
(7.80893 3.61135 0)
(8.1097 4.17358 0)
(8.23845 4.48388 0)
(8.63182 4.47961 0)
(8.78866 4.26698 0)
(8.91701 4.13807 0)
(9.17214 4.57971 0)
(9.87136 5.70946 0)
(10.0286 6.788 0)
(10.4735 7.52434 0)
(10.5381 7.88466 0)
(10.6641 8.03643 0)
(10.6142 7.84801 0)
(10.6276 7.33608 0)
(10.5645 6.9358 0)
(10.6681 6.30995 0)
(10.5139 5.613 0)
(10.3344 4.96348 0)
(10.3968 4.50859 0)
(10.3192 3.73647 0)
(9.73921 3.12356 0)
(10.3903 3.65222 0)
(9.65203 2.80759 0)
(9.42961 2.26674 0)
(9.88716 3.8733 0)
(9.05132 2.66982 0)
(8.96972 3.06894 0)
(9.63826 3.85174 0)
(7.82706 4.35173 0)
(10.9149 3.96145 0)
(6.87463 7.12565 0)
(11.1812 2.70143 0)
(8.88718 9.49959 0)
(10.306 -0.0587469 0)
(10.255 0.028785 0)
(10.216 0.0570425 0)
(10.1498 0.0650875 0)
(10.1665 0.00769678 0)
(10.16 -0.0452354 0)
(10.1848 -0.0736765 0)
(10.1969 -0.130823 0)
(10.1873 -0.126095 0)
(10.2272 -0.140558 0)
(10.2048 -0.0985287 0)
(10.2599 -0.0670628 0)
(10.2538 -0.0431588 0)
(10.278 -0.0171867 0)
(10.2892 -0.0316257 0)
(10.2612 -0.0259768 0)
(10.2905 -0.0526914 0)
(10.2355 -0.0578252 0)
(10.2825 -0.0792115 0)
(10.2372 -0.077529 0)
(10.2887 -0.075501 0)
(10.2695 -0.0595923 0)
(10.3131 -0.0394334 0)
(10.3149 -0.0200577 0)
(10.3383 0.00678724 0)
(10.3491 0.0106375 0)
(10.3593 0.0265908 0)
(10.3751 0.0177758 0)
(10.3889 0.0146662 0)
(10.3982 0.0112635 0)
(10.4328 -0.00522099 0)
(10.4319 -0.00483789 0)
(10.4835 -0.0240463 0)
(10.4871 -0.0342563 0)
(10.5414 -0.0694219 0)
(10.5605 -0.0946614 0)
(10.6127 -0.148776 0)
(10.6223 -0.183421 0)
(10.6714 -0.240764 0)
(10.6513 -0.281754 0)
(10.6774 -0.316682 0)
(10.6334 -0.34705 0)
(10.6138 -0.353687 0)
(10.5824 -0.351377 0)
(10.502 -0.329485 0)
(10.4824 -0.285204 0)
(10.3808 -0.207561 0)
(10.4032 -0.14235 0)
(10.3132 -0.0659931 0)
(10.349 -0.00207344 0)
(10.2405 0.0755351 0)
(10.2827 0.127912 0)
(10.1798 0.211989 0)
(10.1945 0.276253 0)
(10.0842 0.366561 0)
(10.0554 0.438404 0)
(9.93901 0.524647 0)
(9.94221 0.565623 0)
(9.82628 0.609663 0)
(9.87841 0.628483 0)
(9.75594 0.627635 0)
(9.84321 0.619986 0)
(9.72416 0.615545 0)
(9.81978 0.572957 0)
(9.74933 0.546974 0)
(9.87742 0.486356 0)
(9.84157 0.413265 0)
(10.0044 0.332158 0)
(10.0619 0.21977 0)
(10.1909 0.102854 0)
(10.3338 -0.0446731 0)
(10.465 -0.185012 0)
(10.6413 -0.371756 0)
(10.7975 -0.529173 0)
(10.9594 -0.700268 0)
(11.176 -0.908234 0)
(11.3322 -1.06094 0)
(11.5318 -1.24983 0)
(11.6926 -1.43607 0)
(11.8982 -1.59138 0)
(12.0334 -1.74362 0)
(12.2319 -1.89786 0)
(12.3363 -2.01049 0)
(12.5045 -2.11163 0)
(12.5795 -2.19829 0)
(12.7086 -2.28486 0)
(12.7456 -2.29667 0)
(12.8501 -2.37782 0)
(12.8574 -2.35532 0)
(12.9153 -2.39013 0)
(12.9072 -2.34137 0)
(12.9427 -2.32124 0)
(12.915 -2.24932 0)
(12.9112 -2.18959 0)
(12.9009 -2.10079 0)
(12.8462 -2.02102 0)
(12.8676 -1.89583 0)
(12.7945 -1.79813 0)
(12.8701 -1.63072 0)
(12.7867 -1.52223 0)
(12.8959 -1.3469 0)
(12.8516 -1.23398 0)
(12.9581 -1.05466 0)
(12.9568 -0.935986 0)
(13.0935 -0.781137 0)
(13.0845 -0.644603 0)
(13.259 -0.497461 0)
(13.2326 -0.381615 0)
(13.3906 -0.247161 0)
(13.3315 -0.153758 0)
(13.4476 -0.0744337 0)
(13.3261 0.00402547 0)
(13.3912 -0.00107879 0)
(13.2385 0.029692 0)
(13.2224 -0.0594972 0)
(13.0388 -0.0860923 0)
(12.9859 -0.257536 0)
(12.7867 -0.341892 0)
(12.6765 -0.552062 0)
(12.4901 -0.700361 0)
(12.3441 -0.920602 0)
(12.132 -1.09279 0)
(11.9434 -1.26395 0)
(11.6692 -1.46378 0)
(11.4256 -1.59771 0)
(11.0992 -1.77428 0)
(10.7929 -1.9263 0)
(10.5619 -2.07084 0)
(10.2183 -2.28983 0)
(10.0868 -2.43879 0)
(9.86191 -2.61617 0)
(9.68317 -2.7866 0)
(9.6142 -2.91415 0)
(9.38166 -2.95632 0)
(9.29498 -3.11666 0)
(9.11432 -3.15745 0)
(8.6875 -3.01708 0)
(8.35974 -3.02665 0)
(8.04314 -3.06918 0)
(7.51801 -2.98548 0)
(6.49515 -2.46641 0)
(5.28435 -1.62121 0)
(4.2131 -1.18159 0)
(3.43789 -1.2067 0)
(2.98286 -1.99034 0)
(2.66994 -2.77161 0)
(2.41163 -3.6276 0)
(2.27328 -4.29512 0)
(2.33478 -4.60305 0)
(2.47836 -4.95875 0)
(2.63213 -5.35595 0)
(3.24044 -5.58171 0)
(3.70155 -5.3298 0)
(3.86037 -5.13885 0)
(4.39803 -4.82622 0)
(4.12458 -4.40464 0)
(4.39628 -4.05023 0)
(4.1363 -3.68668 0)
(4.20001 -3.07065 0)
(4.10143 -2.70073 0)
(4.3236 -1.8182 0)
(4.692 -0.974977 0)
(5.04046 -0.210926 0)
(5.5484 0.554979 0)
(5.86366 1.22738 0)
(6.09302 2.01783 0)
(6.40357 2.69795 0)
(6.75775 3.36187 0)
(7.09166 3.93318 0)
(7.3583 4.15176 0)
(7.83665 4.20842 0)
(8.16409 4.24688 0)
(8.23338 4.10957 0)
(8.73183 4.07179 0)
(9.05825 4.98414 0)
(9.34987 6.26132 0)
(9.53256 7.15231 0)
(9.82714 7.68494 0)
(9.58711 7.90741 0)
(9.86266 7.68011 0)
(10.0353 7.39655 0)
(9.74089 6.88418 0)
(10.1783 6.26803 0)
(10.112 5.87095 0)
(10.06 5.00097 0)
(9.86606 4.28316 0)
(10.4373 4.18732 0)
(9.82025 3.23594 0)
(9.45625 2.87623 0)
(10.9879 4.07669 0)
(8.85462 2.17637 0)
(9.71218 2.75897 0)
(10.7076 4.04409 0)
(8.19156 3.55421 0)
(11.2182 2.70666 0)
(7.52131 5.87777 0)
(12.0503 1.99189 0)
(8.58318 7.87622 0)
(11.7859 3.04373 0)
(9.72324 8.27724 0)
(11.9306 -0.0186991 0)
(11.8395 0.00707876 0)
(11.793 -0.0208732 0)
(11.6971 -0.00707675 0)
(11.7045 -0.0633985 0)
(11.7288 -0.0791452 0)
(11.7553 -0.0936107 0)
(11.7987 -0.132821 0)
(11.7579 -0.107684 0)
(11.8256 -0.156132 0)
(11.7611 -0.111936 0)
(11.8307 -0.105618 0)
(11.8039 -0.0711537 0)
(11.8313 -0.0390225 0)
(11.8527 -0.0450859 0)
(11.8142 -0.0215638 0)
(11.8448 -0.056165 0)
(11.7764 -0.05184 0)
(11.7995 -0.0900153 0)
(11.7623 -0.0882632 0)
(11.7771 -0.0900902 0)
(11.7822 -0.0818688 0)
(11.7896 -0.0578825 0)
(11.827 -0.0454566 0)
(11.8177 -0.0155264 0)
(11.8693 -0.0162813 0)
(11.8448 0.00570276 0)
(11.899 -0.00605261 0)
(11.8786 -0.000917275 0)
(11.9183 -0.00576882 0)
(11.9135 -0.0218589 0)
(11.9373 -0.0284199 0)
(11.9447 -0.0477679 0)
(11.9554 -0.0723646 0)
(11.9821 -0.0991823 0)
(11.9819 -0.126519 0)
(12.0377 -0.173023 0)
(12.0134 -0.188366 0)
(12.0802 -0.243844 0)
(12.0274 -0.265095 0)
(12.0673 -0.294431 0)
(11.9805 -0.319469 0)
(11.972 -0.325503 0)
(11.8749 -0.325685 0)
(11.8201 -0.305367 0)
(11.7502 -0.262442 0)
(11.6817 -0.192341 0)
(11.6641 -0.133504 0)
(11.6033 -0.0482526 0)
(11.631 0.013873 0)
(11.5466 0.0945463 0)
(11.5906 0.165199 0)
(11.5147 0.231407 0)
(11.5589 0.316532 0)
(11.4926 0.386146 0)
(11.5163 0.4663 0)
(11.4522 0.541601 0)
(11.4839 0.593475 0)
(11.4307 0.641948 0)
(11.4718 0.648292 0)
(11.4491 0.663878 0)
(11.4717 0.634059 0)
(11.4851 0.621104 0)
(11.4843 0.582062 0)
(11.5409 0.519112 0)
(11.5573 0.462687 0)
(11.6373 0.37522 0)
(11.6889 0.266055 0)
(11.7977 0.158652 0)
(11.879 0.00611932 0)
(11.9909 -0.137823 0)
(12.127 -0.299212 0)
(12.2187 -0.470785 0)
(12.4058 -0.65026 0)
(12.4858 -0.818725 0)
(12.6704 -1.00133 0)
(12.7793 -1.19569 0)
(12.8932 -1.3498 0)
(13.0157 -1.54171 0)
(13.0975 -1.67727 0)
(13.1681 -1.84259 0)
(13.2337 -1.94859 0)
(13.2394 -2.06559 0)
(13.2831 -2.15564 0)
(13.222 -2.22321 0)
(13.266 -2.2879 0)
(13.1565 -2.32454 0)
(13.1939 -2.35509 0)
(13.0772 -2.3822 0)
(13.0961 -2.34562 0)
(12.9885 -2.35445 0)
(12.9902 -2.26745 0)
(12.8769 -2.24422 0)
(12.8877 -2.13417 0)
(12.7705 -2.08628 0)
(12.8041 -1.96919 0)
(12.7153 -1.86321 0)
(12.7668 -1.73857 0)
(12.7333 -1.6201 0)
(12.7448 -1.48245 0)
(12.7968 -1.37848 0)
(12.7952 -1.22747 0)
(12.8697 -1.11296 0)
(12.8777 -0.96029 0)
(12.9892 -0.827779 0)
(12.9845 -0.676469 0)
(13.1238 -0.529795 0)
(13.1073 -0.409124 0)
(13.2247 -0.242762 0)
(13.1724 -0.16607 0)
(13.2595 -0.0265197 0)
(13.1334 0.0149654 0)
(13.1689 0.0891338 0)
(13.0099 0.0773482 0)
(12.9607 0.0690821 0)
(12.7448 -0.00224932 0)
(12.6939 -0.122142 0)
(12.4102 -0.228168 0)
(12.3546 -0.43899 0)
(12.0775 -0.563518 0)
(11.9971 -0.804198 0)
(11.7255 -0.917973 0)
(11.6128 -1.09966 0)
(11.3126 -1.24707 0)
(11.18 -1.36057 0)
(10.8552 -1.51752 0)
(10.6904 -1.6787 0)
(10.4806 -1.85329 0)
(10.2451 -2.09252 0)
(10.1398 -2.26042 0)
(9.91045 -2.4917 0)
(9.67964 -2.65462 0)
(9.58472 -2.73387 0)
(9.35098 -2.8686 0)
(9.15846 -2.95014 0)
(8.83476 -2.82316 0)
(8.45902 -2.78091 0)
(8.26211 -2.80291 0)
(7.76446 -2.7251 0)
(6.91635 -2.27928 0)
(5.68106 -1.41583 0)
(4.5319 -0.728286 0)
(3.47528 -0.430362 0)
(2.82244 -0.761429 0)
(2.28948 -1.57794 0)
(1.78082 -2.46669 0)
(1.46603 -3.45235 0)
(1.16139 -4.17947 0)
(1.29548 -4.58898 0)
(1.41944 -5.19799 0)
(1.72632 -5.80389 0)
(2.29137 -5.91725 0)
(2.58375 -5.7493 0)
(2.99627 -5.46578 0)
(3.35767 -4.90337 0)
(3.06904 -4.45733 0)
(3.5519 -4.11746 0)
(3.01433 -3.66304 0)