/*--------------------------------*- C++ -*----------------------------------*\
| =========                 |                                                 |
| \\      /  F ield         | OpenFOAM: The Open Source CFD Toolbox           |
|  \\    /   O peration     | Version:  2.4.0                                 |
|   \\  /    A nd           | Web:      www.OpenFOAM.org                      |
|    \\/     M anipulation  |                                                 |
\*---------------------------------------------------------------------------*/
FoamFile
{
    version     2.0;
    format      ascii;
    class       volSymmTensorField;
    location    "1.91";
    object      UPrime2Mean;
}
// * * * * * * * * * * * * * * * * * * * * * * * * * * * * * * * * * * * * * //

dimensions      [0 2 -2 0 0 0 0];

internalField   nonuniform List<symmTensor> 
8800
(
(0.00090716 4.78953e-05 0 0.000101248 0 0)
(0.016904 -0.000656154 0 3.8282e-05 0 0)
(0.0332154 -6.13663e-05 0 1.05069e-05 0 0)
(0.0419592 8.5003e-05 0 5.87565e-06 0 0)
(0.0476121 5.64454e-05 0 4.95015e-06 0 0)
(0.0534687 2.05573e-05 0 6.35133e-06 0 0)
(0.056473 -1.07663e-05 0 7.44102e-06 0 0)
(0.0593459 -5.13029e-05 0 9.67984e-06 0 0)
(0.061952 -6.97009e-05 0 1.02753e-05 0 0)
(0.0629992 -9.59025e-05 0 1.27534e-05 0 0)
(0.0659212 -0.00011017 0 1.27898e-05 0 0)
(0.0660059 -0.000138776 0 1.59119e-05 0 0)
(0.0692679 -0.00016207 0 1.54175e-05 0 0)
(0.0692833 -0.000184132 0 1.91327e-05 0 0)
(0.0734741 -0.000262551 0 1.83719e-05 0 0)
(0.0737348 -0.000198046 0 2.36902e-05 0 0)
(0.0826527 -0.000716947 0 2.55315e-05 0 0)
(0.0808438 0.000785915 0 6.76579e-05 0 0)
(0.131895 -0.00888861 0 0.000926164 0 0)
(0.138997 0.015736 0 0.00312976 0 0)
(0.00545825 0.00139468 0 0.000616876 0 0)
(0.00157474 -0.000638768 0 0.000819875 0 0)
(0.0108457 -0.00107483 0 0.000357033 0 0)
(0.0171478 -0.00128772 0 0.000154609 0 0)
(0.0257283 -0.00117516 0 9.81281e-05 0 0)
(0.0379884 -0.00111338 0 8.39281e-05 0 0)
(0.0487007 -0.00141097 0 9.82532e-05 0 0)
(0.0571023 -0.000984824 0 7.57236e-05 0 0)
(0.073068 -0.00150381 0 0.000100245 0 0)
(0.0725536 -0.00112174 0 8.49287e-05 0 0)
(0.0955557 -0.00166878 0 0.000112986 0 0)
(0.0865705 -0.00145067 0 0.000107839 0 0)
(0.115923 -0.00214323 0 0.000147658 0 0)
(0.100327 -0.00188387 0 0.000144748 0 0)
(0.137014 -0.00294265 0 0.000212854 0 0)
(0.114037 -0.00293608 0 0.000243607 0 0)
(0.164725 -0.00326329 0 0.000328715 0 0)
(0.135787 -0.0070195 0 0.000869614 0 0)
(0.228538 -0.00372125 0 0.000659793 0 0)
(0.222528 -0.029273 0 0.0110404 0 0)
(0.0137358 0.000557345 0 0.000418883 0 0)
(0.0136898 0.00010675 0 0.000991656 0 0)
(0.0351996 -8.40426e-05 0 0.00065338 0 0)
(0.0382585 -0.00104064 0 0.000381203 0 0)
(0.0539959 -0.00104575 0 0.000312803 0 0)
(0.0628589 -0.00157733 0 0.000298879 0 0)
(0.0820597 -0.00316293 0 0.00035856 0 0)
(0.0867978 -0.00196689 0 0.000253208 0 0)
(0.121979 -0.00450743 0 0.00034324 0 0)
(0.110708 -0.00289657 0 0.00023613 0 0)
(0.16684 -0.00556334 0 0.000355137 0 0)
(0.134595 -0.00406455 0 0.000281884 0 0)
(0.212885 -0.00741004 0 0.000493765 0 0)
(0.155834 -0.00521941 0 0.000409967 0 0)
(0.262695 -0.0106238 0 0.000836575 0 0)
(0.169514 -0.0064549 0 0.000717179 0 0)
(0.32133 -0.0144014 0 0.00146112 0 0)
(0.182622 -0.00865742 0 0.00182951 0 0)
(0.400782 -0.0187725 0 0.00332187 0 0)
(0.227676 -0.0259683 0 0.013584 0 0)
(0.0674467 -0.000346382 0 0.000342473 0 0)
(0.0788618 -8.53518e-05 0 0.00081938 0 0)
(0.122275 -0.00111428 0 0.000680202 0 0)
(0.127585 -0.00212553 0 0.000482059 0 0)
(0.157865 -0.00141093 0 0.000494384 0 0)
(0.164089 -0.00258628 0 0.000523166 0 0)
(0.198739 -0.00499351 0 0.000699666 0 0)
(0.195141 -0.00257688 0 0.000529055 0 0)
(0.250332 -0.00842429 0 0.000810785 0 0)
(0.223292 -0.00455251 0 0.000534811 0 0)
(0.308998 -0.0112493 0 0.000893694 0 0)
(0.250047 -0.00727095 0 0.000650975 0 0)
(0.372085 -0.0153462 0 0.00125232 0 0)
(0.27354 -0.00986558 0 0.000923082 0 0)
(0.441687 -0.0220029 0 0.00208533 0 0)
(0.285885 -0.0123224 0 0.00151072 0 0)
(0.522563 -0.0298154 0 0.00335405 0 0)
(0.283837 -0.0158712 0 0.00374825 0 0)
(0.624495 -0.0357066 0 0.00560756 0 0)
(0.279989 -0.0310926 0 0.0209986 0 0)
(0.263371 -0.00116503 0 0.000573079 0 0)
(0.260782 0.000178836 0 0.00109679 0 0)
(0.291526 -0.00390599 0 0.00131321 0 0)
(0.280747 -0.00398393 0 0.000983673 0 0)
(0.304028 -0.00415324 0 0.00107892 0 0)
(0.296413 -0.00563722 0 0.000994087 0 0)
(0.325753 -0.00842525 0 0.00153252 0 0)
(0.311238 -0.0051461 0 0.00112709 0 0)
(0.357589 -0.0130575 0 0.00193655 0 0)
(0.326585 -0.00723247 0 0.00130163 0 0)
(0.3929 -0.0168845 0 0.00226529 0 0)
(0.342888 -0.0107514 0 0.00155806 0 0)
(0.428914 -0.0220726 0 0.00299044 0 0)
(0.359797 -0.0141621 0 0.0019999 0 0)
(0.466457 -0.0303801 0 0.00437214 0 0)
(0.372746 -0.0177556 0 0.00274279 0 0)
(0.509313 -0.0407517 0 0.00636754 0 0)
(0.37587 -0.0225698 0 0.00516466 0 0)
(0.565524 -0.0504917 0 0.00973255 0 0)
(0.364372 -0.0319631 0 0.0238475 0 0)
(0.329803 -0.00519366 0 0.00187988 0 0)
(0.28269 -0.00102178 0 0.00255896 0 0)
(0.27589 -0.00723489 0 0.00323953 0 0)
(0.236529 -0.00566381 0 0.00209807 0 0)
(0.244911 -0.00796475 0 0.00286426 0 0)
(0.22502 -0.00749243 0 0.00234955 0 0)
(0.230147 -0.010551 0 0.00339999 0 0)
(0.215662 -0.00703305 0 0.00246797 0 0)
(0.225511 -0.0134554 0 0.00408015 0 0)
(0.213237 -0.00887157 0 0.00273922 0 0)
(0.223679 -0.0161848 0 0.00462187 0 0)
(0.215631 -0.0118827 0 0.00327473 0 0)
(0.22209 -0.0192067 0 0.00563569 0 0)
(0.223753 -0.0147968 0 0.00395433 0 0)
(0.218521 -0.0237903 0 0.00760149 0 0)
(0.237143 -0.0183297 0 0.00493441 0 0)
(0.212227 -0.029157 0 0.0106477 0 0)
(0.2558 -0.0230954 0 0.00745867 0 0)
(0.205392 -0.0334561 0 0.0172856 0 0)
(0.282789 -0.0313443 0 0.0212801 0 0)
(0.152787 -0.0084945 0 0.00351112 0 0)
(0.135696 -0.00727855 0 0.00519048 0 0)
(0.126721 -0.00673254 0 0.00506682 0 0)
(0.117262 -0.00958338 0 0.00430296 0 0)
(0.11452 -0.00860902 0 0.00523756 0 0)
(0.116079 -0.00885485 0 0.00467352 0 0)
(0.111863 -0.00920359 0 0.00526573 0 0)
(0.113892 -0.0089205 0 0.00477373 0 0)
(0.114196 -0.00979995 0 0.00581872 0 0)
(0.116202 -0.00972877 0 0.00515016 0 0)
(0.114462 -0.0112263 0 0.00651985 0 0)
(0.122603 -0.0107339 0 0.00583866 0 0)
(0.117686 -0.0117729 0 0.00768456 0 0)
(0.131904 -0.0121071 0 0.00688609 0 0)
(0.11979 -0.0119321 0 0.00972399 0 0)
(0.145331 -0.013763 0 0.00836012 0 0)
(0.121232 -0.0106592 0 0.0130522 0 0)
(0.165173 -0.0154931 0 0.0121228 0 0)
(0.123675 -0.00467997 0 0.020867 0 0)
(0.196056 -0.0138093 0 0.0318739 0 0)
(0.134156 -0.00995759 0 0.00433704 0 0)
(0.163623 -0.0159549 0 0.00867784 0 0)
(0.131121 -0.00729752 0 0.00681803 0 0)
(0.165955 -0.0119783 0 0.00590951 0 0)
(0.143835 -0.00997831 0 0.00686076 0 0)
(0.163505 -0.00979628 0 0.00680366 0 0)
(0.160784 -0.00837089 0 0.00630363 0 0)
(0.167298 -0.00994039 0 0.00689901 0 0)
(0.172978 -0.0078514 0 0.00704588 0 0)
(0.172007 -0.00942689 0 0.0071279 0 0)
(0.184399 -0.00755485 0 0.00762436 0 0)
(0.177743 -0.00894419 0 0.00812033 0 0)
(0.199884 -0.00590795 0 0.00869869 0 0)
(0.186866 -0.00887507 0 0.00931422 0 0)
(0.211518 -0.00313519 0 0.0106223 0 0)
(0.198882 -0.00837522 0 0.0111203 0 0)
(0.227094 0.00182718 0 0.0136269 0 0)
(0.215218 -0.00682319 0 0.0161413 0 0)
(0.243175 0.0127927 0 0.0214181 0 0)
(0.238863 -0.00018739 0 0.0373055 0 0)
(0.229624 -0.00710202 0 0.00416279 0 0)
(0.256661 -0.0151513 0 0.0110874 0 0)
(0.221599 -0.00472148 0 0.00775455 0 0)
(0.228288 -0.00754159 0 0.00687307 0 0)
(0.251844 -0.00566012 0 0.00683651 0 0)
(0.216833 -0.00567822 0 0.00763692 0 0)
(0.281934 -0.00361385 0 0.00638555 0 0)
(0.215471 -0.00552079 0 0.00769872 0 0)
(0.297492 -0.00164945 0 0.00683312 0 0)
(0.219037 -0.00539736 0 0.00821577 0 0)
(0.307426 0.000208809 0 0.00735302 0 0)
(0.227296 -0.00428635 0 0.00903067 0 0)
(0.320568 0.0027446 0 0.00842363 0 0)
(0.2385 -0.00365578 0 0.0103309 0 0)
(0.335767 0.00646808 0 0.00967436 0 0)
(0.252643 -0.00225185 0 0.0121207 0 0)
(0.350446 0.0125504 0 0.0120514 0 0)
(0.273098 0.000512532 0 0.0167082 0 0)
(0.366736 0.0241756 0 0.0182187 0 0)
(0.310791 0.00550178 0 0.0309316 0 0)
(0.257229 -0.00347121 0 0.00302541 0 0)
(0.285389 -0.00703218 0 0.0084531 0 0)
(0.275741 -0.000696827 0 0.00506928 0 0)
(0.236931 -0.00143449 0 0.00519787 0 0)
(0.296342 -0.000625743 0 0.00464161 0 0)
(0.228596 -0.0007936 0 0.00560317 0 0)
(0.306518 0.00118126 0 0.0043335 0 0)
(0.228559 -0.000528152 0 0.0058013 0 0)
(0.306541 0.00316375 0 0.00465538 0 0)
(0.232748 -0.000308173 0 0.00607281 0 0)
(0.312562 0.00418295 0 0.00508532 0 0)
(0.24628 0.000808789 0 0.00652176 0 0)
(0.319958 0.00661634 0 0.00568055 0 0)
(0.261963 0.00157393 0 0.00735498 0 0)
(0.3285 0.00975388 0 0.00628646 0 0)
(0.283097 0.00371229 0 0.00845132 0 0)
(0.340039 0.0147024 0 0.00739689 0 0)
(0.316636 0.00795658 0 0.0111767 0 0)
(0.356876 0.0236134 0 0.0109187 0 0)
(0.384271 0.013256 0 0.0202638 0 0)
(0.174229 -0.00117869 0 0.00226265 0 0)
(0.19949 -0.00112488 0 0.00525337 0 0)
(0.189413 0.00185091 0 0.00358594 0 0)
(0.169024 0.0028614 0 0.00331731 0 0)
(0.197089 0.00182594 0 0.00397246 0 0)
(0.170828 0.00263888 0 0.00402349 0 0)
(0.198232 0.00306593 0 0.00386029 0 0)
(0.174048 0.00366078 0 0.00425468 0 0)
(0.198119 0.00434446 0 0.00403095 0 0)
(0.18191 0.0044279 0 0.00446365 0 0)
(0.197731 0.00543031 0 0.00433357 0 0)
(0.197816 0.00551747 0 0.00468094 0 0)
(0.202264 0.00729689 0 0.00464252 0 0)
(0.211178 0.00704065 0 0.0051045 0 0)
(0.207724 0.00945352 0 0.00499868 0 0)
(0.230804 0.00997616 0 0.00568161 0 0)
(0.213389 0.0125294 0 0.00569308 0 0)
(0.262398 0.0153307 0 0.00701809 0 0)
(0.218405 0.0183436 0 0.00796976 0 0)
(0.321614 0.0226299 0 0.0127104 0 0)
(0.0756454 -0.000288866 0 0.00199472 0 0)
(0.0850412 0.000601163 0 0.00433119 0 0)
(0.0764512 0.00121402 0 0.00336233 0 0)
(0.0803774 0.00232592 0 0.003291 0 0)
(0.0813511 0.00130187 0 0.00362436 0 0)
(0.084813 0.00210116 0 0.00384847 0 0)
(0.0848888 0.00143501 0 0.00369039 0 0)
(0.0895039 0.00327354 0 0.00408217 0 0)
(0.0857186 0.00214134 0 0.00368607 0 0)
(0.0983305 0.00400569 0 0.0041266 0 0)
(0.0850375 0.00284359 0 0.00380905 0 0)
(0.109455 0.00477348 0 0.00422016 0 0)
(0.0883803 0.00362916 0 0.00391921 0 0)
(0.120439 0.00579348 0 0.00438568 0 0)
(0.0915904 0.00418974 0 0.00395271 0 0)
(0.135196 0.00778895 0 0.00456148 0 0)
(0.0932046 0.00517269 0 0.00417792 0 0)
(0.157314 0.0111833 0 0.00528117 0 0)
(0.0945056 0.00811961 0 0.00543503 0 0)
(0.198034 0.0159886 0 0.00885102 0 0)
(0.0250857 -9.10369e-05 0 0.00163689 0 0)
(0.0274007 0.000215766 0 0.00358354 0 0)
(0.0249084 -0.000279307 0 0.00293694 0 0)
(0.0324655 0.000634859 0 0.00271154 0 0)
(0.0299245 0.000243155 0 0.00275747 0 0)
(0.0340252 0.000783035 0 0.00290588 0 0)
(0.0327502 9.53063e-05 0 0.00290248 0 0)
(0.0381695 0.00135142 0 0.00320918 0 0)
(0.0340022 0.000205959 0 0.00284092 0 0)
(0.0435968 0.00189472 0 0.00305636 0 0)
(0.0344469 0.000809639 0 0.0027941 0 0)
(0.0481419 0.00223793 0 0.00306979 0 0)
(0.036535 0.00109834 0 0.00288719 0 0)
(0.0537448 0.0026187 0 0.00298396 0 0)
(0.0393332 0.00126843 0 0.00270454 0 0)
(0.0603507 0.00359348 0 0.00283982 0 0)
(0.0419288 0.00193432 0 0.00266627 0 0)
(0.0703019 0.0053948 0 0.00308578 0 0)
(0.0467346 0.0041762 0 0.00339193 0 0)
(0.0895544 0.00877623 0 0.00520995 0 0)
(0.00760953 -0.000209789 0 0.001186 0 0)
(0.00553154 -0.000541173 0 0.00269084 0 0)
(0.00655032 -0.00118648 0 0.00239672 0 0)
(0.00971433 -0.000494911 0 0.00186436 0 0)
(0.00979096 -0.000192581 0 0.00192619 0 0)
(0.0109914 -0.000245786 0 0.00186533 0 0)
(0.0123783 -0.000274317 0 0.0019948 0 0)
(0.0135197 -0.000266775 0 0.00213905 0 0)
(0.0148535 -0.000563498 0 0.00193409 0 0)
(0.0167728 -1.96945e-06 0 0.00191046 0 0)
(0.0161305 -0.000118944 0 0.00179219 0 0)
(0.018899 0.000138679 0 0.00184227 0 0)
(0.0179406 -0.00011009 0 0.00184887 0 0)
(0.0221327 2.4924e-06 0 0.00176008 0 0)
(0.0207395 -2.59321e-05 0 0.00163671 0 0)
(0.0260419 0.000438031 0 0.00153807 0 0)
(0.0243904 0.000600888 0 0.00148387 0 0)
(0.0326487 0.00170428 0 0.00165694 0 0)
(0.0318889 0.00273216 0 0.00194327 0 0)
(0.0456738 0.00574352 0 0.00326302 0 0)
(0.00637 -0.000318421 0 0.000879637 0 0)
(0.00273876 -0.000754478 0 0.00211482 0 0)
(0.00384743 -0.00129598 0 0.00195284 0 0)
(0.00511693 -0.000860491 0 0.00141572 0 0)
(0.00658746 -0.000423137 0 0.00147897 0 0)
(0.00642962 -0.000416567 0 0.00141722 0 0)
(0.00798161 -0.000498321 0 0.00161444 0 0)
(0.00823061 -0.000834093 0 0.00172703 0 0)
(0.0104337 -0.000855134 0 0.00159574 0 0)
(0.0105987 -0.000604022 0 0.00150357 0 0)
(0.0122692 -0.000420454 0 0.00138562 0 0)
(0.0122687 -0.000391649 0 0.00136875 0 0)
(0.0140032 -0.000371555 0 0.00135608 0 0)
(0.014516 -0.000579402 0 0.00125597 0 0)
(0.0165493 -0.000382457 0 0.00113737 0 0)
(0.0173217 -0.000317628 0 0.00100727 0 0)
(0.0199032 0.0002068 0 0.000911802 0 0)
(0.0223248 0.000744778 0 0.000932465 0 0)
(0.0267522 0.00215067 0 0.00110128 0 0)
(0.0332112 0.00428692 0 0.0018128 0 0)
(0.00779901 -0.000310245 0 0.000523586 0 0)
(0.00438087 -0.000215389 0 0.00139282 0 0)
(0.00451948 -0.000774734 0 0.00133744 0 0)
(0.0054436 -0.000584097 0 0.000993725 0 0)
(0.00719101 -0.000297503 0 0.00112039 0 0)
(0.00666196 -0.000131958 0 0.00101609 0 0)
(0.00860127 -0.000261556 0 0.0011222 0 0)
(0.00780185 -0.00031555 0 0.00121145 0 0)
(0.0095493 -0.00043668 0 0.00114921 0 0)
(0.00824153 -0.000128688 0 0.00107247 0 0)
(0.00989756 -0.000114989 0 0.000951992 0 0)
(0.00829132 6.97781e-05 0 0.000893986 0 0)
(0.00969383 1.37197e-05 0 0.000846225 0 0)
(0.00799838 -6.9505e-06 0 0.000781449 0 0)
(0.00940405 -3.64782e-06 0 0.00068888 0 0)
(0.00794207 2.85694e-05 0 0.000620545 0 0)
(0.00966617 0.000326048 0 0.00051827 0 0)
(0.00943065 0.000586818 0 0.000524918 0 0)
(0.0126413 0.00154324 0 0.000604314 0 0)
(0.0160196 0.00258076 0 0.00100604 0 0)
(0.00674937 -0.000497155 0 0.000325571 0 0)
(0.00356288 9.19639e-07 0 0.000957351 0 0)
(0.00389836 -0.00028249 0 0.000816586 0 0)
(0.00521013 -0.000245988 0 0.000558256 0 0)
(0.00646593 -8.22629e-05 0 0.000668345 0 0)
(0.00563357 6.73837e-05 0 0.000635393 0 0)
(0.00636128 0.000128258 0 0.000660856 0 0)
(0.00499255 0.000395189 0 0.000672379 0 0)
(0.00484231 0.000396543 0 0.000610906 0 0)
(0.00392077 0.000680704 0 0.000550835 0 0)
(0.00356398 0.000595527 0 0.00048208 0 0)
(0.00347297 0.000791426 0 0.000445489 0 0)
(0.00283064 0.000649643 0 0.000414012 0 0)
(0.0034914 0.000760025 0 0.000384156 0 0)
(0.00280009 0.000513471 0 0.000333206 0 0)
(0.00412793 0.000646749 0 0.000312433 0 0)
(0.00370035 0.000380736 0 0.000265554 0 0)
(0.00555472 0.000674995 0 0.000270016 0 0)
(0.00627819 0.00065418 0 0.000370332 0 0)
(0.00917522 0.00133814 0 0.000515332 0 0)
(0.00540352 -0.000999887 0 0.000382271 0 0)
(0.00169544 -0.000292016 0 0.000971918 0 0)
(0.00184627 -4.16834e-05 0 0.000632758 0 0)
(0.00250517 0.000122368 0 0.000371054 0 0)
(0.00260778 0.00046833 0 0.000354384 0 0)
(0.00272993 0.000740661 0 0.000317668 0 0)
(0.00425342 0.000899231 0 0.000300173 0 0)
(0.00668327 0.00106602 0 0.000282549 0 0)
(0.00833175 0.000991484 0 0.000243151 0 0)
(0.0123527 0.0010251 0 0.000212839 0 0)
(0.0131075 0.000870126 0 0.000184766 0 0)
(0.018171 0.000898992 0 0.000171764 0 0)
(0.0176177 0.000731912 0 0.000165101 0 0)
(0.023424 0.000777078 0 0.000153261 0 0)
(0.0217839 0.000472452 0 0.000137209 0 0)
(0.0276661 0.000595494 0 0.000129716 0 0)
(0.0254168 4.36759e-05 0 0.000117388 0 0)
(0.0297932 0.000449053 0 0.000125194 0 0)
(0.028228 -0.000315448 0 0.000174884 0 0)
(0.029503 0.000866694 0 0.000327779 0 0)
(0.00476618 -0.001491 0 0.00060414 0 0)
(0.000821513 0.000576145 0 0.000808791 0 0)
(0.00447745 0.00114296 0 0.00034347 0 0)
(0.00891195 0.00100406 0 0.000143267 0 0)
(0.0139655 0.000981928 0 9.96109e-05 0 0)
(0.0204597 0.000887255 0 7.99541e-05 0 0)
(0.0266109 0.000743864 0 7.29878e-05 0 0)
(0.0332404 0.000639276 0 6.83859e-05 0 0)
(0.0372234 0.000511826 0 6.359e-05 0 0)
(0.0430677 0.000458225 0 6.07009e-05 0 0)
(0.044874 0.000371686 0 5.81857e-05 0 0)
(0.0504289 0.000370523 0 5.59187e-05 0 0)
(0.0505142 0.000290183 0 5.5675e-05 0 0)
(0.0561457 0.000310521 0 5.09356e-05 0 0)
(0.0547976 0.000148448 0 4.6986e-05 0 0)
(0.0600183 0.000185925 0 4.22926e-05 0 0)
(0.0573519 -0.000152944 0 4.04501e-05 0 0)
(0.0600542 6.92372e-05 0 4.03475e-05 0 0)
(0.057954 -0.000597986 0 5.98404e-05 0 0)
(0.0540142 0.000356895 0 0.000177031 0 0)
(0.000883125 -5.21092e-05 0 0.000100414 0 0)
(0.0168987 0.000657359 0 3.71314e-05 0 0)
(0.0329726 6.01974e-05 0 9.47752e-06 0 0)
(0.0410656 -0.000100501 0 4.38817e-06 0 0)
(0.0470663 -7.39169e-05 0 3.77145e-06 0 0)
(0.0516857 -5.65186e-05 0 4.13573e-06 0 0)
(0.0546309 -3.75411e-05 0 5.00416e-06 0 0)
(0.0571665 -1.63317e-05 0 5.37103e-06 0 0)
(0.0585543 -9.40999e-06 0 5.93847e-06 0 0)
(0.0603747 5.18359e-07 0 5.99072e-06 0 0)
(0.0609577 -3.72766e-06 0 6.0988e-06 0 0)
(0.0624757 5.29933e-06 0 5.7763e-06 0 0)
(0.0625564 -6.31733e-06 0 5.6174e-06 0 0)
(0.0639593 2.15911e-06 0 4.96548e-06 0 0)
(0.0634914 -2.63402e-05 0 4.56322e-06 0 0)
(0.0644811 -2.29703e-05 0 3.80001e-06 0 0)
(0.0630453 -7.69153e-05 0 3.46708e-06 0 0)
(0.0626555 -6.2853e-05 0 3.05585e-06 0 0)
(0.06086 -0.000226088 0 3.88549e-06 0 0)
(0.0551088 0.000306156 0 2.20293e-05 0 0)
(0.262184 -0.126375 0 0.0788909 0 0)
(0.285243 -0.149622 0 0.110586 0 0)
(0.291577 -0.143262 0 0.132155 0 0)
(0.306982 -0.126377 0 0.148078 0 0)
(0.315742 -0.107824 0 0.157582 0 0)
(0.369474 -0.0944424 0 0.163635 0 0)
(0.400624 -0.0901328 0 0.169164 0 0)
(0.485624 -0.0991506 0 0.177532 0 0)
(0.53046 -0.112194 0 0.18777 0 0)
(0.616932 -0.130907 0 0.198655 0 0)
(0.651112 -0.143618 0 0.210349 0 0)
(0.728926 -0.160323 0 0.225061 0 0)
(0.757409 -0.168034 0 0.240513 0 0)
(0.835814 -0.183686 0 0.254785 0 0)
(0.870217 -0.193392 0 0.26471 0 0)
(0.954648 -0.216091 0 0.273214 0 0)
(0.991716 -0.235985 0 0.284116 0 0)
(1.08292 -0.269871 0 0.300734 0 0)
(1.12039 -0.294794 0 0.324114 0 0)
(1.23217 -0.330926 0 0.35397 0 0)
(1.28589 -0.352714 0 0.381587 0 0)
(1.42426 -0.391431 0 0.41136 0 0)
(1.48575 -0.415351 0 0.440448 0 0)
(1.64579 -0.46025 0 0.470883 0 0)
(1.71697 -0.484883 0 0.499673 0 0)
(1.89222 -0.539022 0 0.532775 0 0)
(1.97602 -0.565303 0 0.565388 0 0)
(2.15737 -0.636398 0 0.60321 0 0)
(2.25684 -0.669763 0 0.642819 0 0)
(2.43548 -0.756338 0 0.691723 0 0)
(2.55231 -0.793672 0 0.744346 0 0)
(2.73893 -0.886342 0 0.802324 0 0)
(2.87377 -0.924202 0 0.859034 0 0)
(3.09068 -1.02558 0 0.920135 0 0)
(3.23452 -1.06922 0 0.977632 0 0)
(3.4811 -1.18403 0 1.03996 0 0)
(3.60281 -1.22689 0 1.09464 0 0)
(3.8639 -1.35131 0 1.15542 0 0)
(3.94576 -1.38598 0 1.20852 0 0)
(4.21042 -1.51491 0 1.27191 0 0)
(4.24428 -1.52855 0 1.32893 0 0)
(4.50039 -1.6541 0 1.39248 0 0)
(4.48939 -1.64208 0 1.44665 0 0)
(4.75279 -1.76275 0 1.51003 0 0)
(4.71565 -1.74021 0 1.56374 0 0)
(5.01315 -1.86556 0 1.62712 0 0)
(4.96402 -1.83975 0 1.67717 0 0)
(5.312 -1.97317 0 1.74655 0 0)
(5.25623 -1.95442 0 1.79862 0 0)
(5.66602 -2.09671 0 1.87607 0 0)
(5.58987 -2.08687 0 1.9351 0 0)
(6.06386 -2.24305 0 2.02701 0 0)
(5.92831 -2.22623 0 2.09741 0 0)
(6.44516 -2.38906 0 2.19788 0 0)
(6.20909 -2.33671 0 2.26528 0 0)
(6.75321 -2.50289 0 2.36368 0 0)
(6.41254 -2.40423 0 2.41265 0 0)
(6.98922 -2.57595 0 2.49494 0 0)
(6.55309 -2.4483 0 2.5302 0 0)
(7.19568 -2.64068 0 2.60644 0 0)
(6.65781 -2.51008 0 2.64397 0 0)
(7.39084 -2.7263 0 2.72731 0 0)
(6.72502 -2.5881 0 2.77386 0 0)
(7.53067 -2.80882 0 2.86597 0 0)
(6.728 -2.63481 0 2.9067 0 0)
(7.5823 -2.83322 0 2.98888 0 0)
(6.68134 -2.61496 0 2.99123 0 0)
(7.60184 -2.7722 0 3.03329 0 0)
(6.63697 -2.54484 0 3.01305 0 0)
(7.68774 -2.71351 0 3.06264 0 0)
(6.65444 -2.49219 0 3.06335 0 0)
(7.86249 -2.69522 0 3.12045 0 0)
(6.73629 -2.4623 0 3.12492 0 0)
(8.12654 -2.73404 0 3.19634 0 0)
(6.87347 -2.48257 0 3.2342 0 0)
(8.41799 -2.83279 0 3.35341 0 0)
(7.05146 -2.54636 0 3.43162 0 0)
(8.66305 -2.94535 0 3.60499 0 0)
(7.2031 -2.61496 0 3.6991 0 0)
(8.83845 -3.01485 0 3.89875 0 0)
(7.26283 -2.6517 0 3.98808 0 0)
(8.94666 -3.04015 0 4.17154 0 0)
(7.23807 -2.6492 0 4.2272 0 0)
(8.99577 -3.04332 0 4.38786 0 0)
(7.17748 -2.61695 0 4.41725 0 0)
(8.9362 -2.99631 0 4.57114 0 0)
(7.12893 -2.53995 0 4.59426 0 0)
(8.83718 -2.90326 0 4.77802 0 0)
(7.1027 -2.45545 0 4.81344 0 0)
(8.79312 -2.79206 0 4.99443 0 0)
(7.11181 -2.38108 0 5.03819 0 0)
(8.81553 -2.74433 0 5.24371 0 0)
(7.19031 -2.3592 0 5.31998 0 0)
(8.90749 -2.73888 0 5.54759 0 0)
(7.30955 -2.3363 0 5.62442 0 0)
(8.99757 -2.72172 0 5.86903 0 0)
(7.43627 -2.29763 0 5.95333 0 0)
(9.06646 -2.68253 0 6.23589 0 0)
(7.5289 -2.24022 0 6.32833 0 0)
(9.02812 -2.6065 0 6.64178 0 0)
(7.52428 -2.15083 0 6.77438 0 0)
(8.95537 -2.52972 0 7.12571 0 0)
(7.41833 -2.04602 0 7.25898 0 0)
(8.87674 -2.43469 0 7.59975 0 0)
(7.2635 -1.93648 0 7.67576 0 0)
(8.76631 -2.36398 0 8.00963 0 0)
(7.08561 -1.81492 0 8.05541 0 0)
(8.62318 -2.24412 0 8.32335 0 0)
(6.96212 -1.6527 0 8.31439 0 0)
(8.49614 -2.09917 0 8.58743 0 0)
(6.93157 -1.5198 0 8.56909 0 0)
(8.43292 -1.98578 0 8.82795 0 0)
(7.00608 -1.42018 0 8.79119 0 0)
(8.40141 -1.88557 0 9.0579 0 0)
(7.09451 -1.30276 0 9.02252 0 0)
(8.34612 -1.75894 0 9.29354 0 0)
(7.18701 -1.21021 0 9.30347 0 0)
(8.26208 -1.64395 0 9.61135 0 0)
(7.28644 -1.15343 0 9.67288 0 0)
(8.22217 -1.54748 0 10.0048 0 0)
(7.38439 -1.12417 0 10.1081 0 0)
(8.16025 -1.48187 0 10.4246 0 0)
(7.39463 -1.09649 0 10.5507 0 0)
(8.04633 -1.42877 0 10.8502 0 0)
(7.35454 -1.0662 0 10.9406 0 0)
(7.94853 -1.35778 0 11.1853 0 0)
(7.27544 -0.999946 0 11.2692 0 0)
(7.86308 -1.27766 0 11.4913 0 0)
(7.24537 -0.960794 0 11.5719 0 0)
(7.75031 -1.23032 0 11.7637 0 0)
(7.28317 -0.999531 0 11.8991 0 0)
(7.67931 -1.22178 0 12.1176 0 0)
(7.39341 -1.06089 0 12.2821 0 0)
(7.67701 -1.17943 0 12.4589 0 0)
(7.47282 -1.06 0 12.6124 0 0)
(7.65853 -1.07309 0 12.7841 0 0)
(7.50687 -0.966185 0 12.9133 0 0)
(7.62581 -0.943249 0 13.1382 0 0)
(7.53328 -0.845376 0 13.3332 0 0)
(7.60999 -0.815346 0 13.5197 0 0)
(7.54004 -0.761752 0 13.7209 0 0)
(7.55301 -0.690358 0 13.847 0 0)
(7.54665 -0.675676 0 14.0404 0 0)
(7.43295 -0.571985 0 14.1936 0 0)
(7.39214 -0.575305 0 14.4517 0 0)
(7.20369 -0.430567 0 14.5802 0 0)
(7.19848 -0.423598 0 14.7062 0 0)
(6.99965 -0.323452 0 14.7957 0 0)
(7.00869 -0.241468 0 14.9515 0 0)
(6.81354 -0.225825 0 15.0101 0 0)
(6.81321 -0.110122 0 15.0496 0 0)
(6.6347 -0.127056 0 14.9856 0 0)
(6.63645 0.00269692 0 14.9932 0 0)
(6.49901 -0.0449937 0 14.8842 0 0)
(6.50939 0.109186 0 14.9593 0 0)
(6.38777 0.0133977 0 14.8741 0 0)
(6.43371 0.166872 0 14.9699 0 0)
(6.33655 0.0635874 0 14.8325 0 0)
(6.38663 0.165187 0 14.9553 0 0)
(6.22815 0.0198446 0 14.7862 0 0)
(6.28063 0.0913721 0 14.8939 0 0)
(6.1134 -0.0393955 0 14.7865 0 0)
(6.17823 0.0332077 0 14.8201 0 0)
(6.05588 -0.119709 0 14.7065 0 0)
(6.15371 -0.0334768 0 14.6988 0 0)
(6.03494 -0.223148 0 14.5774 0 0)
(6.15943 -0.15044 0 14.5597 0 0)
(5.97698 -0.405057 0 14.4509 0 0)
(6.1278 -0.263719 0 14.3597 0 0)
(5.99562 -0.581108 0 14.1816 0 0)
(6.04044 -0.443471 0 14.0423 0 0)
(6.07626 -0.804198 0 13.8836 0 0)
(5.90529 -0.599132 0 13.5733 0 0)
(6.20318 -1.04373 0 13.2689 0 0)
(5.86204 -0.654603 0 12.9419 0 0)
(6.23141 -1.10666 0 12.5955 0 0)
(5.91252 -0.688262 0 12.2871 0 0)
(6.27176 -1.10137 0 11.8263 0 0)
(5.93357 -0.745873 0 11.6546 0 0)
(6.32223 -1.0552 0 11.0329 0 0)
(5.91936 -0.82185 0 11.0243 0 0)
(6.27743 -0.984177 0 10.1809 0 0)
(5.78119 -0.968565 0 10.45 0 0)
(6.0805 -0.834836 0 9.3437 0 0)
(5.60482 -1.07243 0 10.0003 0 0)
(5.78244 -0.586999 0 8.61974 0 0)
(5.3969 -1.12957 0 9.69498 0 0)
(5.40678 -0.285814 0 8.11169 0 0)
(5.09854 -1.07313 0 9.63725 0 0)
(5.04658 0.181656 0 7.93699 0 0)
(4.72336 -0.894494 0 9.90105 0 0)
(4.70962 0.749796 0 8.01696 0 0)
(4.32069 -0.556766 0 10.6641 0 0)
(4.2399 1.41451 0 8.61297 0 0)
(3.98302 -0.0158362 0 12.187 0 0)
(3.72374 2.38136 0 10.1932 0 0)
(3.53222 0.382286 0 14.5842 0 0)
(2.96997 3.64451 0 13.1857 0 0)
(3.3206 2.40258 0 20.0729 0 0)
(1.07995 0.700281 0 21.9807 0 0)
(0.245842 -0.104404 0 0.0886303 0 0)
(0.219121 -0.111471 0 0.115435 0 0)
(0.234178 -0.0999624 0 0.121857 0 0)
(0.20547 -0.0915679 0 0.12587 0 0)
(0.227602 -0.0823314 0 0.12634 0 0)
(0.221596 -0.0816412 0 0.125495 0 0)
(0.259657 -0.0859303 0 0.127806 0 0)
(0.267161 -0.0983456 0 0.134844 0 0)
(0.314314 -0.108339 0 0.143304 0 0)
(0.321186 -0.12311 0 0.152424 0 0)
(0.366838 -0.131108 0 0.16218 0 0)
(0.369549 -0.146028 0 0.174726 0 0)
(0.417898 -0.153066 0 0.187466 0 0)
(0.427322 -0.169355 0 0.200688 0 0)
(0.486219 -0.177928 0 0.212317 0 0)
(0.511732 -0.20097 0 0.22507 0 0)
(0.584379 -0.217963 0 0.239219 0 0)
(0.628349 -0.253624 0 0.257427 0 0)
(0.708517 -0.277332 0 0.27752 0 0)
(0.762699 -0.318675 0 0.302021 0 0)
(0.841954 -0.34098 0 0.32664 0 0)
(0.907215 -0.383873 0 0.353859 0 0)
(0.986425 -0.403544 0 0.380121 0 0)
(1.06834 -0.451488 0 0.409114 0 0)
(1.14976 -0.469253 0 0.437019 0 0)
(1.25411 -0.525884 0 0.470517 0 0)
(1.34537 -0.544747 0 0.503629 0 0)
(1.47643 -0.614464 0 0.543639 0 0)
(1.58282 -0.640354 0 0.582916 0 0)
(1.73679 -0.72566 0 0.631273 0 0)
(1.85134 -0.758948 0 0.677845 0 0)
(2.02234 -0.85611 0 0.732834 0 0)
(2.12866 -0.88998 0 0.783191 0 0)
(2.31468 -0.995584 0 0.841239 0 0)
(2.39548 -1.0242 0 0.892289 0 0)
(2.59767 -1.13791 0 0.950849 0 0)
(2.63204 -1.15258 0 1.00168 0 0)
(2.84915 -1.27261 0 1.05905 0 0)
(2.82738 -1.2687 0 1.11001 0 0)
(3.06526 -1.3965 0 1.16799 0 0)
(2.99475 -1.37128 0 1.21942 0 0)
(3.25506 -1.50302 0 1.28144 0 0)
(3.15281 -1.46346 0 1.33187 0 0)
(3.44722 -1.5981 0 1.39813 0 0)
(3.33092 -1.55329 0 1.44766 0 0)
(3.66767 -1.69614 0 1.5226 0 0)
(3.54582 -1.65386 0 1.57403 0 0)
(3.92809 -1.80647 0 1.65451 0 0)
(3.78786 -1.76308 0 1.7074 0 0)
(4.21782 -1.92556 0 1.79154 0 0)
(4.02968 -1.86777 0 1.84633 0 0)
(4.51283 -2.04428 0 1.93464 0 0)
(4.24874 -1.95458 0 1.98997 0 0)
(4.78121 -2.14449 0 2.07902 0 0)
(4.42557 -2.00787 0 2.12951 0 0)
(5.00516 -2.21468 0 2.21365 0 0)
(4.56885 -2.03487 0 2.2547 0 0)
(5.19749 -2.26437 0 2.33537 0 0)
(4.70676 -2.06571 0 2.36892 0 0)
(5.38521 -2.31756 0 2.4601 0 0)
(4.84399 -2.12671 0 2.49546 0 0)
(5.56962 -2.38181 0 2.59588 0 0)
(4.95762 -2.20012 0 2.62862 0 0)
(5.72233 -2.42428 0 2.7214 0 0)
(5.00826 -2.22781 0 2.73885 0 0)
(5.8171 -2.40884 0 2.80344 0 0)
(4.9956 -2.18214 0 2.79484 0 0)
(5.89521 -2.35526 0 2.8428 0 0)
(4.99044 -2.11554 0 2.83645 0 0)
(6.01884 -2.32851 0 2.90472 0 0)
(5.04482 -2.07526 0 2.9062 0 0)
(6.21784 -2.33854 0 2.99127 0 0)
(5.17501 -2.06625 0 2.99873 0 0)
(6.4785 -2.40165 0 3.10485 0 0)
(5.36458 -2.1028 0 3.1392 0 0)
(6.74724 -2.50837 0 3.28922 0 0)
(5.56975 -2.17142 0 3.36013 0 0)
(6.95966 -2.60357 0 3.55499 0 0)
(5.71581 -2.21144 0 3.63341 0 0)
(7.08311 -2.63471 0 3.83831 0 0)
(5.75961 -2.21006 0 3.90677 0 0)
(7.15049 -2.62871 0 4.09379 0 0)
(5.76592 -2.18262 0 4.13713 0 0)
(7.16979 -2.59617 0 4.29992 0 0)
(5.78188 -2.15265 0 4.31244 0 0)
(7.16365 -2.52774 0 4.47844 0 0)
(5.81032 -2.11076 0 4.50417 0 0)
(7.16953 -2.44505 0 4.69243 0 0)
(5.87844 -2.04546 0 4.72324 0 0)
(7.24049 -2.36243 0 4.92644 0 0)
(5.98226 -2.00797 0 4.99143 0 0)
(7.3735 -2.35885 0 5.22192 0 0)
(6.13165 -1.99664 0 5.30052 0 0)
(7.55851 -2.3674 0 5.5356 0 0)
(6.32776 -1.97734 0 5.59535 0 0)
(7.75263 -2.38123 0 5.84588 0 0)
(6.5397 -1.94666 0 5.92094 0 0)
(7.92438 -2.35405 0 6.20441 0 0)
(6.72509 -1.89329 0 6.2963 0 0)
(8.02855 -2.30179 0 6.63425 0 0)
(6.82149 -1.80317 0 6.75119 0 0)
(8.06781 -2.2173 0 7.10923 0 0)
(6.82242 -1.671 0 7.20363 0 0)
(8.06195 -2.09527 0 7.55888 0 0)
(6.70665 -1.54235 0 7.60942 0 0)
(7.94763 -1.97909 0 7.96409 0 0)
(6.54768 -1.38335 0 7.98258 0 0)
(7.82439 -1.82229 0 8.29553 0 0)
(6.46688 -1.22732 0 8.2709 0 0)
(7.81912 -1.69351 0 8.56352 0 0)
(6.53418 -1.11338 0 8.52596 0 0)
(7.92712 -1.57921 0 8.81209 0 0)
(6.70687 -1.00477 0 8.76608 0 0)
(8.03321 -1.44611 0 9.06082 0 0)
(6.91361 -0.919473 0 9.03169 0 0)
(8.09702 -1.35603 0 9.31316 0 0)
(7.1471 -0.888057 0 9.3351 0 0)
(8.17198 -1.29643 0 9.63666 0 0)
(7.36201 -0.86189 0 9.72977 0 0)
(8.24322 -1.23997 0 10.0646 0 0)
(7.45873 -0.857419 0 10.1814 0 0)
(8.22236 -1.2138 0 10.5216 0 0)
(7.4238 -0.855849 0 10.6335 0 0)
(8.16072 -1.19711 0 10.9435 0 0)
(7.36505 -0.821383 0 11.0432 0 0)
(8.11636 -1.15806 0 11.2819 0 0)
(7.36578 -0.800545 0 11.3611 0 0)
(8.09157 -1.13492 0 11.5758 0 0)
(7.46063 -0.86052 0 11.6745 0 0)
(8.08136 -1.1626 0 11.8616 0 0)
(7.56996 -1.00164 0 11.9986 0 0)
(8.07885 -1.19644 0 12.1906 0 0)
(7.6856 -1.08757 0 12.3702 0 0)
(8.08656 -1.15702 0 12.5544 0 0)
(7.76713 -1.06203 0 12.7422 0 0)
(8.15291 -1.04449 0 12.8782 0 0)
(7.87619 -0.98485 0 13.0188 0 0)
(8.21137 -0.919592 0 13.2141 0 0)
(7.963 -0.906057 0 13.4531 0 0)
(8.21336 -0.794844 0 13.6312 0 0)
(7.95311 -0.797466 0 13.889 0 0)
(8.13163 -0.66129 0 13.9989 0 0)
(7.85779 -0.688171 0 14.2057 0 0)
(7.9276 -0.497399 0 14.3664 0 0)
(7.6107 -0.522649 0 14.6479 0 0)
(7.66824 -0.309694 0 14.714 0 0)
(7.32179 -0.359136 0 14.9338 0 0)
(7.4119 -0.168283 0 14.9796 0 0)
(6.99547 -0.206893 0 15.158 0 0)
(7.10948 -0.0204752 0 15.1951 0 0)
(6.78444 0.00414261 0 15.2726 0 0)
(6.86689 0.0935158 0 15.1418 0 0)
(6.65745 0.12703 0 15.1884 0 0)
(6.73844 0.131135 0 15.1447 0 0)
(6.58114 0.16968 0 15.1787 0 0)
(6.65694 0.123477 0 15.0775 0 0)
(6.57467 0.207633 0 15.1823 0 0)
(6.58582 0.144172 0 15.118 0 0)
(6.52358 0.20407 0 15.1717 0 0)
(6.41642 0.0750136 0 15.1458 0 0)
(6.45161 0.193008 0 15.1337 0 0)
(6.29226 -0.0377234 0 15.0333 0 0)
(6.35626 0.134419 0 15.0873 0 0)
(6.21922 -0.135604 0 14.9468 0 0)
(6.294 0.0219334 0 14.9656 0 0)
(6.11486 -0.242624 0 14.8786 0 0)
(6.2416 -0.0761793 0 14.9511 0 0)
(6.05643 -0.389285 0 14.8255 0 0)
(6.20866 -0.180965 0 14.6833 0 0)
(6.05512 -0.56657 0 14.6385 0 0)
(6.08383 -0.288087 0 14.4577 0 0)
(6.03459 -0.808629 0 14.2967 0 0)
(6.0085 -0.377083 0 13.9813 0 0)
(5.94542 -1.00546 0 13.6596 0 0)
(6.05937 -0.494455 0 13.2487 0 0)
(5.87963 -1.13851 0 12.8031 0 0)
(6.15379 -0.605838 0 12.5994 0 0)
(5.91575 -1.22948 0 12.0213 0 0)
(6.19127 -0.803424 0 11.9968 0 0)
(5.99141 -1.20822 0 11.1903 0 0)
(6.15217 -1.04318 0 11.4946 0 0)
(5.93606 -1.0961 0 10.3532 0 0)
(6.02611 -1.33005 0 11.0253 0 0)
(5.71501 -0.936345 0 9.44806 0 0)
(5.83894 -1.59603 0 10.5719 0 0)