/*--------------------------------*- C++ -*----------------------------------*\
| =========                 |                                                 |
| \\      /  F ield         | OpenFOAM: The Open Source CFD Toolbox           |
|  \\    /   O peration     | Version:  2.4.0                                 |
|   \\  /    A nd           | Web:      www.OpenFOAM.org                      |
|    \\/     M anipulation  |                                                 |
\*---------------------------------------------------------------------------*/
FoamFile
{
    version     2.0;
    format      ascii;
    class       surfaceScalarField;
    location    "0.42";
    object      phi;
}
// * * * * * * * * * * * * * * * * * * * * * * * * * * * * * * * * * * * * * //

dimensions      [0 3 -1 0 0 0 0];

internalField   nonuniform List<scalar> 
8640
(
0.0496823
0.000317718
0.0490095
0.000672829
0.0488435
0.000165935
0.0480032
0.000840296
0.0481766
-0.000173338
0.0468491
0.00132749
0.0472414
-0.000392351
0.0459622
0.00127925
0.045961
1.17382e-06
0.0454652
0.000495813
0.0453031
0.000162047
0.043044
0.0022591
0.045598
-0.00255397
0.0388208
0.00677724
0.0429629
-0.00414211
0.0355295
0.0074334
0.036191
-0.000661555
0.0433407
-0.00714968
0.0211016
0.0222391
-0.022339
0.0434406
0.0504776
-0.000159895
0.0497364
0.00141404
0.0506941
-0.000791749
0.0495392
0.0019952
0.0506537
-0.00128781
0.0499258
0.00205531
0.0499268
-0.000393331
0.0508903
0.000315782
0.0495841
0.00130732
0.0504219
-0.000341978
0.0513235
-0.00073951
0.0476539
0.00592873
0.0531161
-0.00801623
0.0447668
0.0151266
0.0504096
-0.00978489
0.0449076
0.0129353
0.0407711
0.00347502
0.0622267
-0.0286053
0.0401822
0.0442837
-0.0202075
0.0380507
0.0501334
-0.000293271
0.0500694
0.00147797
0.05029
-0.00101226
0.0500789
0.00220627
0.0505146
-0.00172351
0.0501562
0.00241369
0.0506923
-0.000929394
0.0503129
0.00069519
0.0505617
0.00105854
0.0505581
-0.000338402
0.0509071
-0.00108858
0.0495952
0.00724063
0.0533568
-0.0117778
0.0477547
0.0207287
0.0542827
-0.0163129
0.0573983
0.0098197
0.0450853
0.015788
0.0587414
-0.0422615
0.0598814
0.0431437
-0.013616
0.0532898
0.0502216
-0.000514848
0.049979
0.00172051
0.0503751
-0.0014083
0.0500065
0.00257486
0.0503935
-0.0021105
0.0503592
0.00244792
0.0501734
-0.000743548
0.0507935
7.51166e-05
0.0502984
0.00155356
0.0504575
-0.000497458
0.0509872
-0.00161833
0.0502949
0.00793296
0.0513058
-0.0127887
0.0522638
0.0197707
0.0531052
-0.0171542
0.0569522
0.00597265
0.0514209
0.0213193
0.0559567
-0.0467972
0.0604388
0.0386616
-0.00794504
0.0547678
0.0500426
-0.000557488
0.0501209
0.00164226
0.0501622
-0.00144962
0.0502189
0.00251821
0.0503374
-0.00222904
0.0502602
0.00252506
0.0506666
-0.00114988
0.0501685
0.000573213
0.0508271
0.000894986
0.0504112
-8.15802e-05
0.0505524
-0.00175958
0.0512457
0.00723967
0.0505053
-0.0120482
0.0525657
0.0177102
0.0518491
-0.0164376
0.0540256
0.00379617
0.05271
0.0226349
0.052586
-0.0466732
0.0585135
0.0327341
-3.29383e-05
0.0506014
0.0500647
-0.000622171
0.0500916
0.0016153
0.05016
-0.00151801
0.0502105
0.00246772
0.0501946
-0.00221313
0.0503955
0.00232422
0.0502333
-0.000987674
0.0505237
0.000282768
0.0504249
0.000993762
0.0505008
-0.000157472
0.05044
-0.00169874
0.0512069
0.00647276
0.0496042
-0.0104455
0.0527241
0.0145903
0.0493783
-0.0130918
0.0513343
0.00184021
0.053887
0.0200822
0.0481804
-0.0409666
0.053765
0.0271495
0.00211639
0.0516157
0.050012
-0.000634152
0.050112
0.0015153
0.0501215
-0.00152752
0.0502288
0.00236039
0.0502513
-0.00223566
0.0502727
0.00230289
0.0505078
-0.00122277
0.0502405
0.000549985
0.0506859
0.000548432
0.0504513
7.70613e-05
0.0503791
-0.00162653
0.0513367
0.00551516
0.0496131
-0.00872189
0.052252
0.0119514
0.0494258
-0.0102656
0.0509068
0.000359166
0.0530949
0.0178941
0.04763
-0.0355016
0.0520106
0.0227689
0.00265828
0.0514687
0.0499953
-0.000629495
0.0501299
0.00138077
0.0500662
-0.00146381
0.050291
0.0021355
0.0501129
-0.00205747
0.0504047
0.00201105
0.0502733
-0.00109139
0.0503936
0.000429746
0.0505449
0.000397127
0.0504172
0.000204778
0.0504509
-0.00166026
0.0511431
0.00482292
0.0497035
-0.00728227
0.0523184
0.00933646
0.0493332
-0.00728034
0.0508674
-0.0011751
0.0530961
0.0156654
0.0469806
-0.0293861
0.0508113
0.0189382
0.00162804
0.0518416
0.049988
-0.000617522
0.0501147
0.00125412
0.0500823
-0.00143145
0.0502503
0.00196749
0.0501765
-0.00198367
0.0503137
0.00187385
0.0503598
-0.00113749
0.050351
0.000438608
0.0504753
0.000272761
0.0505803
9.98588e-05
0.0502326
-0.00131256
0.0512999
0.00375557
0.0496489
-0.00563125
0.0519786
0.00700671
0.0496008
-0.00490253
0.0510435
-0.00261776
0.0521169
0.014592
0.0481543
-0.0254235
0.0517656
0.0153269
0.00210292
0.0512907
0.049972
-0.000589473
0.0501317
0.00109436
0.0500463
-0.00134605
0.0502908
0.00172299
0.0501164
-0.00180927
0.0503669
0.00162341
0.0503128
-0.0010834
0.050336
0.000415362
0.0505607
4.80936e-05
0.0504454
0.000215121
0.0503875
-0.00125468
0.0510915
0.00305161
0.0498805
-0.00442022
0.0517692
0.005118
0.0497536
-0.00288699
0.0509347
-0.00379882
0.0523221
0.0132045
0.0485588
-0.0216602
0.0516174
0.0122683
0.00169267
0.0520276
0.0499711
-0.000560535
0.0501252
0.000940252
0.0500543
-0.00127519
0.0502751
0.00150222
0.0501286
-0.0016628
0.050357
0.00139506
0.0502844
-0.00101089
0.0504179
0.000281927
0.0503925
7.34735e-05
0.0505982
9.38241e-06
0.0503188
-0.000975237
0.0510679
0.0023025
0.0499678
-0.00332009
0.0515969
0.00348891
0.050073
-0.00136317
0.0508279
-0.00455365
0.0519913
0.0120411
0.0489026
-0.0185715
0.0519161
0.00925479
0.00337823
0.0502306
0.0499649
-0.000525456
0.0501323
0.000772836
0.0500471
-0.00118992
0.0502812
0.0012681
0.0501254
-0.00150699
0.0503537
0.00116672
0.0503142
-0.000971349
0.0503486
0.000247538
0.0505057
-8.36975e-05
0.0505091
5.9996e-06
0.050341
-0.000807138
0.0510456
0.0015979
0.0500751
-0.00234955
0.0513862
0.00217777
0.0502836
-0.000260519
0.0506808
-0.00495087
0.0520409
0.010681
0.0488544
-0.015385
0.0512731
0.00683613
0.0031578
0.0514935
0.0499651
-0.000490528
0.0501355
0.000602393
0.0500499
-0.00110436
0.0502793
0.00103876
0.0501263
-0.00135404
0.0503657
0.000927363
0.05028
-0.000885699
0.0504252
0.000102345
0.0504017
-6.01485e-05
0.0505707
-0.000163006
0.0503988
-0.000635285
0.0509108
0.00108597
0.0502259
-0.00166463
0.0512734
0.00113027
0.0504282
0.000584674
0.0504933
-0.00501604
0.0520022
0.00917215
0.0492667
-0.0126495
0.0510762
0.00502657
0.00371731
0.0505167
0.049966
-0.000456496
0.050142
0.000426326
0.0500531
-0.00101542
0.0502787
0.000813145
0.0501356
-0.00121096
0.0503589
0.000704085
0.0503138
-0.000840612
0.0503792
3.69894e-05
0.0504722
-0.000153214
0.0505306
-0.000221406
0.0503895
-0.000494157
0.0509297
0.00054578
0.0503255
-0.00106039
0.05107
0.000385743
0.0506674
0.000987227
0.0504004
-0.00474899
0.0518637
0.00770881
0.0492974
-0.0100832
0.0509534
0.0033706
0.00360196
0.0510687
0.0499701
-0.00042658
0.0501499
0.000246473
0.0500584
-0.000923838
0.0502788
0.000592728
0.0501431
-0.0010753
0.0503681
0.000479086
0.0503011
-0.000773572
0.0504219
-8.37998e-05
0.0504373
-0.000168633
0.0505394
-0.000323503
0.050473
-0.000427808
0.0507987
0.000220091
0.0504848
-0.000746508
0.0509885
-0.000117926
0.0508001
0.0011756
0.0502353
-0.00418411
0.0517969
0.00614718
0.0495626
-0.00784895
0.0506106
0.00232264
0.00332571
0.0508868
0.0499769
-0.000403442
0.0501598
6.35118e-05
0.0500644
-0.000828367
0.0502804
0.000376714
0.0501556
-0.000950565
0.050369
0.000265673
0.0503277
-0.000732195
0.0504039
-0.00016003
0.0504759
-0.000240647
0.0505263
-0.000373919
0.050471
-0.000372511
0.0508209
-0.000129762
0.0505636
-0.000489234
0.0508505
-0.000404841
0.0509442
0.00108188
0.0502485
-0.00348843
0.0516284
0.00476731
0.0496844
-0.00590493
0.0505974
0.0014096
0.00301222
0.0509109
0.0499876
-0.000391003
0.0501706
-0.000119549
0.0500716
-0.000729324
0.0502837
0.00016463
0.0501693
-0.000836184
0.0503782
5.68021e-05
0.0503356
-0.000689603
0.0504234
-0.000247903
0.0504795
-0.00029674
0.0505185
-0.000412865
0.0505451
-0.00039915
0.050728
-0.000312687
0.0506794
-0.000440558
0.0507954
-0.000520894
0.05102
0.000857333
0.0501975
-0.00266601
0.0515548
0.00341006
0.049864
-0.00421413
0.0503603
0.000913255
0.00234974
0.0510228
0.0500036
-0.00039456
0.0501798
-0.000295782
0.0500775
-0.000627016
0.0502911
-4.89733e-05
0.0501829
-0.000727956
0.0503852
-0.00014555
0.0503499
-0.000654267
0.0504255
-0.000323507
0.0504963
-0.000367539
0.0505162
-0.000432795
0.0505464
-0.000429304
0.0507317
-0.000498022
0.0507166
-0.000425464
0.050708
-0.000512283
0.0510672
0.00049813
0.0502157
-0.00181449
0.0514392
0.0021865
0.0499518
-0.00272669
0.0503069
0.000558184
0.00163271
0.0510239
0.0500321
-0.000426699
0.050164
-0.000427676
0.0500698
-0.000532798
0.0502711
-0.000250222
0.0501439
-0.000600787
0.0503182
-0.000319855
0.0502364
-0.000572437
0.0503157
-0.000402794
0.050336
-0.00038785
0.0503137
-0.000410566
0.0503267
-0.000442306
0.0503599
-0.000531135
0.0503792
-0.000444818
0.0503192
-0.000452231
0.0506918
0.000125513
0.0498599
-0.000982619
0.0510648
0.00098163
0.049675
-0.00133695
0.0499738
0.00025939
0.000806153
0.0508004
0.0495733
0.0491456
0.0486128
0.0483626
0.0477618
0.047442
0.0468695
0.0464667
0.0460789
0.0456683
0.045226
0.0446949
0.0442501
0.0437978
0.0439233
0.0429407
0.0439224
0.0425854
0.0428448
0.0436509
0.0564579
-0.103555
0.0905372
0.0498197
0.07545
-0.0688118
0.0459644
0.0709426
-0.0670874
0.0443003
-0.032604
0.0342681
0.0383784
-0.0971809
0.103103
0.0333197
-0.106076
0.111134
0.0306563
-0.0861297
0.0887932
0.0283705
-0.0624862
0.064772
0.0270326
-0.0446601
0.045998
0.0263316
-0.0311862
0.0318872
0.0258842
-0.0212627
0.02171
0.0256036
-0.0143457
0.0146263
0.025432
-0.00963765
0.00980929
0.0253287
-0.00645151
0.00655476
0.025269
-0.00429937
0.00435914
0.0252357
-0.00285107
0.00288438
0.0252174
-0.00188153
0.00189974
0.0252075
-0.00123632
0.00124627
0.025202
-0.00080931
0.000814805
0.0251989
-0.000527953
0.000531042
0.0251971
-0.000343296
0.000345068
0.0251961
-0.000222538
0.000223575
0.0251955
-0.000143807
0.000144425
0.0251951
-9.26518e-05
9.30255e-05
0.0251949
-5.95147e-05
5.97434e-05
0.0251947
-3.81127e-05
3.82538e-05
0.0251947
-2.43343e-05
2.44224e-05
0.0251946
-1.54894e-05
1.55444e-05
0.0251946
-9.83112e-06
9.86551e-06
0.0251945
-6.2196e-06
6.24144e-06
0.0251945
-3.924e-06
3.93718e-06
0.0251945
-2.46795e-06
2.47612e-06
0.0251945
-1.54566e-06
1.55182e-06
0.0251945
-9.67635e-07
9.70271e-07
0.0251945
-6.02391e-07
6.0426e-07
0.0251945
-3.74213e-07
3.76153e-07
0.0251945
-2.31216e-07
2.32072e-07
0.0251945
-1.42704e-07
1.42673e-07
0.0251945
-8.79544e-08
8.86982e-08
0.0251945
-5.37213e-08
5.44764e-08
0.0251945
-3.33851e-08
3.3073e-08
0.0251945
-2.11671e-08
2.07251e-08
0.0251945
-1.14955e-08
1.13418e-08
0.0251945
-8.64857e-09
8.90266e-09
0.0251945
-3.69239e-09
4.03127e-09
0.0251945
-2.99645e-09
2.83353e-09
0.0251945
-2.31984e-09
2.41431e-09
0.0251945
-4.34975e-10
7.3252e-10
0.0251945
1.37773e-10
-4.00835e-10
0.0251945
-2.09601e-09
1.66955e-09
0.0251945
3.7698e-10
-4.95753e-10
0.0251945
1.10055e-09
-1.1201e-09
0.0251945
-2.73746e-09
2.87909e-09
0.0251945
2.98747e-09
-2.70235e-09
0.0251945
-2.36874e-09
2.12141e-09
0.0251945
6.88873e-10
-9.94137e-10
0.0251945
6.4324e-10
-5.14888e-10
0.0251945
-8.54469e-10
1.0474e-09
0.0251945
2.01795e-09
-1.91526e-09
0.0251945
-2.09591e-09
2.03413e-09
0.0251945
1.43107e-09
-1.62056e-09
0.0251945
7.18843e-10
-6.28302e-10
0.0251945
-2.04051e-09
2.42172e-09
0.0251945
3.18215e-09
-2.87045e-09
0.0251945
-8.98178e-10
7.9757e-10
0.0251945
-1.92724e-09
1.63896e-09
0.0251945
2.96343e-09
-3.15541e-09
0.0251945
-1.49589e-09
1.48125e-09
0.0251945
-9.51064e-10
1.18369e-09
0.0251945
3.11182e-09
-3.00853e-09
0.0251945
-2.79281e-09
2.6129e-09
0.0251945
-6.68696e-10
3.19669e-10
0.0251945
3.88232e-09
-4.05609e-09
0.0251945
-3.30597e-09
3.30579e-09
0.0251945
-1.44991e-09
1.63545e-09
0.0251945
4.93568e-09
-4.68145e-09
0.0251945
-9.98304e-10
1.19993e-09
0.0251945
-3.80171e-09
3.85257e-09
0.0251945
2.6131e-09
-2.77142e-09
0.0251945
2.42373e-09
-2.50373e-09
0.0251945
-3.5745e-09
3.58427e-09
0.0251945
-2.2908e-09
2.35883e-09
0.0251945
2.64692e-09
-2.59417e-09
0.0251945
2.35053e-10
-3.62763e-10
0.0251945
-3.18339e-09
2.94447e-09
0.0251945
-1.73708e-09
1.63966e-09
0.0251945
1.27973e-09
-1.15851e-09
0.0251945
1.80559e-09
-1.49524e-09
0.0251945
-1.76542e-11
2.13177e-10
0.0251945
-2.37969e-09
2.40346e-09
0.0251945
-1.92425e-09
1.70614e-09
0.0251945
2.09218e-09
-2.16328e-09
0.0251945
2.9845e-09
-2.99787e-09
0.0251945
9.65505e-10
-8.49089e-10
0.0251945
-1.72148e-09
1.75604e-09
0.0251945
-3.1163e-10
-7.67799e-11
0.0251945
8.8884e-10
-9.80515e-10
0.0251945
7.79132e-10
-7.74359e-10
0.0251945
-1.52913e-10
1.83506e-10
-7.71298e-10
8.78541e-10
0.0460162
-0.11152
0.048254
0.0732123
0.0475736
0.071623
0.0464134
-0.0314438
0.0400078
-0.0907753
0.033642
-0.0997098
0.0308301
-0.0833178
0.029101
-0.0607571
0.0276257
-0.0431849
0.0267637
-0.0303241
0.0261918
-0.0206908
0.0257984
-0.0139523
0.0255541
-0.00939332
0.025409
-0.00630642
0.0253228
-0.00421318
0.0252715
-0.00279978
0.0252411
-0.00185107
0.0252229
-0.00121819
0.025212
-0.000798407
0.0252054
-0.000521334
0.0252013
-0.00033923
0.0251988
-0.000220004
0.0251972
-0.000142226
0.0251962
-9.16556e-05
0.0251956
-5.88834e-05
0.0251952
-3.7715e-05
0.0251949
-2.40826e-05
0.0251948
-1.5329e-05
0.0251947
-9.72804e-06
0.0251946
-6.1585e-06
0.0251946
-3.88545e-06
0.0251945
-2.43958e-06
0.0251945
-1.53056e-06
0.0251945
-9.57801e-07
0.0251945
-5.95748e-07
0.0251945
-3.68733e-07
0.0251945
-2.29814e-07
0.0251945
-1.4158e-07
0.0251945
-8.40246e-08
0.0251945
-5.25268e-08
0.0251945
-3.65666e-08
0.0251945
-2.22546e-08
0.0251945
-1.16528e-08
0.0251945
-5.6823e-09
0.0251945
-3.24299e-09
0.0251945
-5.28698e-09
0.0251945
-1.10582e-09
0.0251945
2.10881e-09
0.0251945
-3.34913e-09
0.0251945
-3.51787e-09
0.0251945
-1.11359e-10
0.0251945
4.96155e-10
0.0251945
1.65885e-09
0.0251945
5.02863e-10
0.0251945
-3.52486e-09
0.0251945
-6.83698e-10
0.0251945
3.08443e-09
0.0251945
6.24727e-10
0.0251945
5.3821e-11
0.0251945
-1.39871e-09
0.0251945
-1.0069e-09
0.0251945
2.99023e-09
0.0251945
3.25639e-09
0.0251945
1.20921e-09
0.0251945
-1.71508e-09
0.0251945
-3.24685e-09
0.0251945
-5.10609e-10
0.0251945
1.80709e-09
0.0251945
1.86476e-09
0.0251945
6.38428e-10
0.0251945
-2.21496e-09
0.0251945
-3.03092e-09
0.0251945
-7.41689e-10
0.0251945
7.4271e-10
0.0251945
1.51955e-09
0.0251945
2.54204e-09
0.0251945
1.35732e-09
0.0251945
-8.67001e-10
0.0251945
-1.56935e-09
0.0251945
-1.27978e-09
0.0251945
4.99128e-11
0.0251945
1.267e-09
0.0251945
1.58595e-10
0.0251945
-2.11198e-09
0.0251945
-2.87824e-09
0.0251945
-1.61438e-09
0.0251945
6.51309e-10
0.0251945
1.83752e-09
0.0251945
9.71057e-10
0.0251945
-1.07071e-10
0.0251945
-4.59672e-10
0.0251945
3.86085e-10
0.0251945
5.15193e-10
0.0251945
6.09174e-10
0.0251945
-4.21828e-10
0.0251945
-9.68649e-10
0.0251945
-1.39422e-10
0.0251945
6.79932e-10
0.0251945
1.05097e-09
4.38796e-10
0.0467444
-0.104975
0.0453845
0.0745722
0.0498043
0.0672032
0.0500128
-0.0316523
0.0443712
-0.0851337
0.036429
-0.0917676
0.0314253
-0.078314
0.0295705
-0.0589023
0.0281871
-0.0418015
0.0271434
-0.0292805
0.0264725
-0.0200198
0.0260036
-0.0134834
0.0256873
-0.00907697
0.0254919
-0.00611108
0.0253757
-0.00409697
0.0253062
-0.00273026
0.0252639
-0.00180883
0.025238
-0.00119222
0.0252219
-0.000782296
0.0252118
-0.000511267
0.0252055
-0.000332899
0.0252015
-0.000216002
0.0251989
-0.000139688
0.0251973
-9.00422e-05
0.0251963
-5.78577e-05
0.0251956
-3.70629e-05
0.0251952
-2.36673e-05
0.025195
-1.5066e-05
0.0251948
-9.56136e-06
0.0251947
-6.05336e-06
0.0251946
-3.81902e-06
0.0251946
-2.39781e-06
0.0251945
-1.50414e-06
0.0251945
-9.41616e-07
0.0251945
-5.85862e-07
0.0251945
-3.62453e-07
0.0251945
-2.25176e-07
0.0251945
-1.39426e-07
0.0251945
-8.25447e-08
0.0251945
-5.16622e-08
0.0251945
-3.62663e-08
0.0251945
-2.17279e-08
0.0251945
-1.1523e-08
0.0251945
-5.54192e-09
0.0251945
-2.88584e-09
0.0251945
-5.42759e-09
0.0251945
-1.179e-09
0.0251945
2.51396e-09
0.0251945
-3.73986e-09
0.0251945
-3.72035e-09
0.0251945
1.60326e-10
0.0251945
2.81532e-10
0.0251945
1.65896e-09
0.0251945
5.77882e-10
0.0251945
-3.47112e-09
0.0251945
-9.25388e-10
0.0251945
3.29435e-09
0.0251945
6.0285e-10
0.0251945
-1.17101e-10
0.0251945
-1.0237e-09
0.0251945
-1.15438e-09
0.0251945
2.8707e-09
0.0251945
3.61895e-09
0.0251945
1.0818e-09
0.0251945
-1.7084e-09
0.0251945
-3.07516e-09
0.0251945
-7.99564e-10
0.0251945
1.85964e-09
0.0251945
1.97458e-09
0.0251945
3.60229e-10
0.0251945
-2.08525e-09
0.0251945
-3.05561e-09
0.0251945
-1.0516e-09
0.0251945
9.46505e-10
0.0251945
1.70073e-09
0.0251945
2.2671e-09
0.0251945
1.52538e-09
0.0251945
-4.38399e-10
0.0251945
-1.8291e-09
0.0251945
-1.54597e-09
0.0251945
3.08029e-10
0.0251945
1.43537e-09
0.0251945
-1.0889e-10
0.0251945
-2.38177e-09
0.0251945
-2.88032e-09
0.0251945
-1.34814e-09
0.0251945
7.73508e-10
0.0251945
1.86264e-09
0.0251945
9.39584e-10
0.0251945
-5.18486e-11
0.0251945
-5.33245e-10
0.0251945
2.78134e-10
0.0251945
3.50741e-10
0.0251945
7.27443e-10
0.0251945
-9.16395e-11
0.0251945
-1.2115e-09
0.0251945
-1.10189e-10
0.0251945
6.9985e-10
0.0251945
7.83836e-10
3.27794e-10
0.0441587
-0.0943655
0.0440511
0.0746798
0.0520317
0.0592226
0.0527211
-0.0323417
0.0471261
-0.0795386
0.0398046
-0.0844461
0.0333204
-0.0718299
0.0300316
-0.0556135
0.0286772
-0.0404471
0.0275474
-0.0281507
0.0266942
-0.0191666
0.0261551
-0.0129443
0.0258061
-0.00872797
0.0255772
-0.00588213
0.0254319
-0.00395166
0.0253421
-0.00264052
0.025287
-0.0017537
0.0252529
-0.0011581
0.0252315
-0.000760961
0.0252181
-0.000497807
0.0252095
-0.000324356
0.0252041
-0.000210559
0.0252006
-0.000136216
0.0251984
-8.78253e-05
0.025197
-5.6443e-05
0.0251961
-3.6161e-05
0.0251955
-2.30927e-05
0.0251951
-1.47011e-05
0.0251949
-9.33043e-06
0.0251948
-5.90704e-06
0.0251947
-3.72655e-06
0.0251946
-2.33968e-06
0.0251946
-1.46798e-06
0.0251945
-9.19019e-07
0.0251945
-5.71708e-07
0.0251945
-3.53784e-07
0.0251945
-2.19434e-07
0.0251945
-1.35901e-07
0.0251945
-8.07708e-08
0.0251945
-5.10035e-08
0.0251945
-3.54731e-08
0.0251945
-2.02984e-08
0.0251945
-1.11832e-08
0.0251945
-5.86908e-09
0.0251945
-2.70728e-09
0.0251945
-5.19015e-09
0.0251945
-1.21012e-09
0.0251945
2.4306e-09
0.0251945
-3.98102e-09
0.0251945
-3.54848e-09
0.0251945
6.85883e-10
0.0251945
-5.4476e-12
0.0251945
1.22971e-09
0.0251945
5.59346e-10
0.0251945
-3.09971e-09
0.0251945
-6.83569e-10
0.0251945
2.978e-09
0.0251945
5.07763e-10
0.0251945
-3.41531e-10
0.0251945
-5.7034e-10
0.0251945
-8.79e-10
0.0251945
2.51423e-09
0.0251945
3.47262e-09
0.0251945
8.91712e-10
0.0251945
-1.55986e-09
0.0251945
-2.72502e-09
0.0251945
-7.55226e-10
0.0251945
1.79267e-09
0.0251945
1.66134e-09
0.0251945
1.1708e-10
0.0251945
-1.85595e-09
0.0251945
-2.81074e-09
0.0251945
-1.02127e-09
0.0251945
9.73026e-10
0.0251945
1.5029e-09
0.0251945
2.08364e-09
0.0251945
1.6744e-09
0.0251945
-3.91552e-10
0.0251945
-1.80886e-09
0.0251945
-1.3716e-09
0.0251945
3.49041e-10
0.0251945
1.23115e-09
0.0251945
-2.94365e-10
0.0251945
-2.42476e-09
0.0251945
-2.75186e-09
0.0251945
-1.14486e-09
0.0251945
9.78996e-10
0.0251945
1.89428e-09
0.0251945
8.11018e-10
0.0251945
-2.59299e-10
0.0251945
-7.35931e-10
0.0251945
3.3967e-10
0.0251945
3.9542e-10
0.0251945
8.14848e-10
0.0251945
1.58078e-10
0.0251945
-1.3704e-09
0.0251945
1.10257e-10
0.0251945
7.32555e-10
0.0251945
3.17514e-10
1.22332e-10
0.0361646
-0.0799287
0.04418
0.0666644
0.0552453
0.0481573
0.0543018
-0.0313982
0.0480856
-0.0733224
0.0419518
-0.0783123
0.0362919
-0.0661699
0.0313772
-0.0506989
0.0290804
-0.0381502
0.0280029
-0.0270731
0.0270369
-0.0182007
0.0263122
-0.0122196
0.0258794
-0.00829512
0.025628
-0.00563074
0.0254725
-0.00379619
0.0253726
-0.00254064
0.0253083
-0.00168936
0.0252671
-0.00111694
0.0252409
-0.000734724
0.0252242
-0.000481072
0.0252135
-0.000313662
0.0252066
-0.000203714
0.0252022
-0.000131833
0.0251994
-8.50205e-05
0.0251976
-5.46491e-05
0.0251965
-3.50155e-05
0.0251958
-2.23626e-05
0.0251953
-1.42372e-05
0.025195
-9.03641e-06
0.0251948
-5.72062e-06
0.0251947
-3.60885e-06
0.0251946
-2.26573e-06
0.0251946
-1.4219e-06
0.0251946
-8.90204e-07
0.0251945
-5.53633e-07
0.0251945
-3.42677e-07
0.0251945
-2.12128e-07
0.0251945
-1.31793e-07
0.0251945
-7.8766e-08
0.0251945
-4.95591e-08
0.0251945
-3.41188e-08
0.0251945
-1.90199e-08
0.0251945
-1.07758e-08
0.0251945
-6.08063e-09
0.0251945
-2.41923e-09
0.0251945
-5.0433e-09
0.0251945
-1.42923e-09
0.0251945
2.59295e-09
0.0251945
-3.98623e-09
0.0251945
-3.62985e-09
0.0251945
9.84832e-10
0.0251945
-8.62693e-11
0.0251945
8.62984e-10
0.0251945
6.65043e-10
0.0251945
-2.77256e-09
0.0251945
-8.10667e-10
0.0251945
2.91342e-09
0.0251945
4.40213e-10
0.0251945
-4.30533e-10
0.0251945
-2.9852e-10
0.0251945
-7.3905e-10
0.0251945
2.24773e-09
0.0251945
3.29647e-09
0.0251945
8.92028e-10
0.0251945
-1.45915e-09
0.0251945
-2.48456e-09
0.0251945
-6.8736e-10
0.0251945
1.61271e-09
0.0251945
1.45471e-09
0.0251945
4.07451e-11
0.0251945
-1.72357e-09
0.0251945
-2.61227e-09
0.0251945
-9.72454e-10
0.0251945
8.81839e-10
0.0251945
1.3933e-09
0.0251945
2.00267e-09
0.0251945
1.66613e-09
0.0251945
-2.87081e-10
0.0251945
-1.71605e-09
0.0251945
-1.29443e-09
0.0251945
3.23966e-10
0.0251945
1.10358e-09
0.0251945
-3.90091e-10
0.0251945
-2.44015e-09
0.0251945
-2.67259e-09
0.0251945
-9.2709e-10
0.0251945
1.10003e-09
0.0251945
1.90153e-09
0.0251945
6.77542e-10
0.0251945
-3.99786e-10
0.0251945
-8.82017e-10
0.0251945
4.4588e-10
0.0251945
3.96402e-10
0.0251945
8.82012e-10
0.0251945
3.66396e-10
0.0251945
-1.57076e-09
0.0251945
3.11641e-10
0.0251945
7.4305e-10
0.0251945
-1.04536e-10
-6.91132e-11
0.0407731
-0.0690861
0.0502567
0.0571808
0.0555879
0.0428261
0.0522502
-0.0280606
0.0467247
-0.0677969
0.0405739
-0.0721616
0.0369583
-0.0625544
0.0333829
-0.0471234
0.0298213
-0.0345887
0.0281086
-0.0253605
0.0273089
-0.0174009
0.0266335
-0.0115442
0.0260906
-0.00775227
0.0257379
-0.00527802
0.0255292
-0.00358743
0.0254051
-0.00241661
0.0253288
-0.00161305
0.0252806
-0.00106874
0.0252498
-0.000703897
0.02523
-0.000461266
0.0252173
-0.000300925
0.0252091
-0.000195526
0.0252038
-0.000126574
0.0252004
-8.16477e-05
0.0251983
-5.24887e-05
0.0251969
-3.36344e-05
0.025196
-2.14819e-05
0.0251955
-1.36773e-05
0.0251951
-8.6813e-06
0.0251949
-5.4955e-06
0.0251947
-3.4666e-06
0.0251947
-2.17645e-06
0.0251946
-1.36635e-06
0.0251946
-8.55358e-07
0.0251945
-5.31626e-07
0.0251945
-3.29164e-07
0.0251945
-2.03618e-07
0.0251945
-1.26933e-07
0.0251945
-7.61555e-08
0.0251945
-4.76867e-08
0.0251945
-3.25793e-08
0.0251945
-1.74752e-08
0.0251945
-1.01924e-08
0.0251945
-6.33987e-09
0.0251945
-2.23793e-09
0.0251945
-4.80592e-09
0.0251945
-1.59236e-09
0.0251945
2.65412e-09
0.0251945
-4.00435e-09
0.0251945
-3.64679e-09
0.0251945
1.38878e-09
0.0251945
-1.87291e-10
0.0251945
4.55412e-10
0.0251945
7.24922e-10
0.0251945
-2.49283e-09
0.0251945
-6.89184e-10
0.0251945
2.68174e-09
0.0251945
3.94627e-10
0.0251945
-5.65973e-10
0.0251945
-5.54547e-11
0.0251945
-4.75093e-10
0.0251945
1.95015e-09
0.0251945
3.10739e-09
0.0251945
8.06513e-10
0.0251945
-1.39024e-09
0.0251945
-2.19932e-09
0.0251945
-5.96649e-10
0.0251945
1.49099e-09
0.0251945
1.23272e-09
0.0251945
-1.45998e-10
0.0251945
-1.54053e-09
0.0251945
-2.35311e-09
0.0251945
-9.48044e-10
0.0251945
8.46654e-10
0.0251945
1.28017e-09
0.0251945
1.83923e-09
0.0251945
1.70713e-09
0.0251945
-2.33575e-10
0.0251945
-1.66826e-09
0.0251945
-1.16024e-09
0.0251945
3.49389e-10
0.0251945
9.48403e-10
0.0251945
-5.26219e-10
0.0251945
-2.43831e-09
0.0251945
-2.51576e-09
0.0251945
-7.29509e-10
0.0251945
1.23209e-09
0.0251945
1.86483e-09
0.0251945
5.33516e-10
0.0251945
-5.19474e-10
0.0251945
-1.01257e-09
0.0251945
5.31404e-10
0.0251945
3.82048e-10
0.0251945
9.33424e-10
0.0251945
5.598e-10
0.0251945
-1.75685e-09
0.0251945
5.84376e-10
0.0251945
7.90813e-10
0.0251945
-5.71375e-10
-2.6675e-10
0.0436817
-0.0612991
0.0527559
0.0481066
0.0557359
0.0398461
0.0521696
-0.0244942
0.0461743
-0.0618016
0.0381082
-0.0640955
0.0332117
-0.0576579
0.0327661
-0.0466778
0.0312039
-0.0330264
0.0285824
-0.022739
0.0270001
-0.0158186
0.0263646
-0.0109087
0.0260269
-0.00741458
0.0257687
-0.00501985
0.0255732
-0.00339187
0.0254384
-0.00228181
0.0253505
-0.00152524
0.0252944
-0.00101264
0.0252586
-0.000668086
0.0252357
-0.000438316
0.0252209
-0.000286175
0.0252114
-0.000186036
0.0252053
-0.000120471
0.0252014
-7.77291e-05
0.0251989
-4.99765e-05
0.0251973
-3.2027e-05
0.0251963
-2.04566e-05
0.0251956
-1.30253e-05
0.0251952
-8.26755e-06
0.0251949
-5.23307e-06
0.0251948
-3.30081e-06
0.0251947
-2.0726e-06
0.0251946
-1.30158e-06
0.0251946
-8.14621e-07
0.0251945
-5.05891e-07
0.0251945
-3.13397e-07
0.0251945
-1.93914e-07
0.0251945
-1.21325e-07
0.0251945
-7.3046e-08
0.0251945
-4.53438e-08
0.0251945
-3.06161e-08
0.0251945
-1.59331e-08
0.0251945
-9.58278e-09
0.0251945
-6.56019e-09
0.0251945
-2.02069e-09
0.0251945
-4.52338e-09
0.0251945
-1.8294e-09
0.0251945
2.74909e-09
0.0251945
-3.84234e-09
0.0251945
-3.73481e-09
0.0251945
1.62254e-09
0.0251945
-1.93291e-10
0.0251945
1.35484e-10
0.0251945
7.70905e-10
0.0251945
-2.15044e-09
0.0251945
-7.92101e-10
0.0251945
2.54591e-09
0.0251945
4.1417e-10
0.0251945
-6.62305e-10
0.0251945
9.6055e-11
0.0251945
-3.10163e-10
0.0251945
1.7293e-09
0.0251945
2.8876e-09
0.0251945
7.94567e-10
0.0251945
-1.28738e-09
0.0251945
-2.00546e-09
0.0251945
-5.16069e-10
0.0251945
1.36059e-09
0.0251945
1.00924e-09
0.0251945
-1.93535e-10
0.0251945
-1.38134e-09
0.0251945
-2.16145e-09
0.0251945
-9.1857e-10
0.0251945
7.73448e-10
0.0251945
1.17576e-09
0.0251945
1.75131e-09
0.0251945
1.67469e-09
0.0251945
-1.74543e-10
0.0251945
-1.58345e-09
0.0251945
-1.07248e-09
0.0251945
3.47945e-10
0.0251945
8.26572e-10
0.0251945
-6.07312e-10
0.0251945
-2.38434e-09
0.0251945
-2.37925e-09
0.0251945
-5.4697e-10
0.0251945
1.28861e-09
0.0251945
1.79997e-09
0.0251945
4.0361e-10
0.0251945
-5.75609e-10
0.0251945
-1.11192e-09
0.0251945
6.55676e-10
0.0251945
3.31243e-10
0.0251945
9.63081e-10
0.0251945
7.37007e-10
0.0251945
-2.00202e-09
0.0251945
8.78664e-10
0.0251945
8.02168e-10
0.0251945
-1.02423e-09
-4.2747e-10
0.0430046
-0.0524622
0.0484299
0.0426813
0.0535732
0.0347029
0.0526951
-0.0236161
0.0477318
-0.0568383
0.0414444
-0.0578081
0.0337844
-0.0499979
0.0299469
-0.0428404
0.0303895
-0.033469
0.0301893
-0.0225387
0.0285201
-0.0141494
0.027027
-0.00941565
0.0262105
-0.00659801
0.0258107
-0.00462004
0.0255921
-0.00317336
0.0254556
-0.00214528
0.0253655
-0.00143509
0.0253057
-0.000952904
0.0252665
-0.000628865
0.025241
-0.000412763
0.0252244
-0.00026961
0.0252137
-0.000175333
0.0252068
-0.000113571
0.0252023
-7.32924e-05
0.0251995
-4.71298e-05
0.0251977
-3.02044e-05
0.0251965
-1.92936e-05
0.0251958
-1.22856e-05
0.0251953
-7.79787e-06
0.025195
-4.93512e-06
0.0251948
-3.1127e-06
0.0251947
-1.95482e-06
0.0251946
-1.22799e-06
0.0251946
-7.68287e-07
0.0251946
-4.76602e-07
0.0251945
-2.9552e-07
0.0251945
-1.83116e-07
0.0251945
-1.14931e-07
0.0251945
-6.93512e-08
0.0251945
-4.25392e-08
0.0251945
-2.84404e-08
0.0251945
-1.43552e-08
0.0251945
-8.88949e-09
0.0251945
-6.74995e-09
0.0251945
-1.82929e-09
0.0251945
-4.16647e-09
0.0251945
-2.05937e-09
0.0251945
2.79639e-09
0.0251945
-3.64856e-09
0.0251945
-3.7958e-09
0.0251945
1.86303e-09
0.0251945
-1.48583e-10
0.0251945
-2.31891e-10
0.0251945
8.33667e-10
0.0251945
-1.87797e-09
0.0251945
-7.67485e-10
0.0251945
2.35066e-09
0.0251945
4.0917e-10
0.0251945
-7.31103e-10
0.0251945
1.95423e-10
0.0251945
-9.40381e-11
0.0251945
1.51319e-09
0.0251945
2.65466e-09
0.0251945
7.41257e-10
0.0251945
-1.22274e-09
0.0251945
-1.79004e-09
0.0251945
-4.07694e-10
0.0251945
1.23396e-09
0.0251945
8.2516e-10
0.0251945
-3.05782e-10
0.0251945
-1.22357e-09
0.0251945
-1.92836e-09
0.0251945
-8.80699e-10
0.0251945
7.04328e-10
0.0251945
1.1049e-09
0.0251945
1.61359e-09
0.0251945
1.63326e-09
0.0251945
-1.33515e-10
0.0251945
-1.52175e-09
0.0251945
-9.52457e-10
0.0251945
3.66961e-10
0.0251945
6.96022e-10
0.0251945
-6.9024e-10
0.0251945
-2.3267e-09
0.0251945
-2.19729e-09
0.0251945
-3.69736e-10
0.0251945
1.33738e-09
0.0251945
1.70443e-09
0.0251945
2.6299e-10
0.0251945
-6.07177e-10
0.0251945
-1.18429e-09
0.0251945
7.70077e-10
0.0251945
2.35899e-10
0.0251945
9.96983e-10
0.0251945
8.95051e-10
0.0251945
-2.24924e-09
0.0251945
1.24119e-09
0.0251945
8.44877e-10
0.0251945
-1.50698e-09
-6.04757e-10
0.0425033
-0.0436748
0.0475662
0.0376184
0.0552065
0.0270625
0.0547282
-0.0231378
0.0469222
-0.0490323
0.0418673
-0.0527532
0.0391187
-0.0472493
0.0332993
-0.037021
0.0281042
-0.0282739
0.0268098
-0.0212444
0.0269676
-0.0143072
0.0268208
-0.00926877
0.0263797
-0.00615698
0.025963
-0.00420331
0.0256763
-0.0028867
0.0254979
-0.00196681
0.0253878
-0.00132498
0.0253186
-0.000883762
0.0252745
-0.000584726
0.025246
-0.00038433
0.0252277
-0.000251241
0.0252158
-0.000163468
0.0252081
-0.000105917
0.0252032
-6.83669e-05
0.0252001
-4.39677e-05
0.025198
-2.8179e-05
0.0251967
-1.80008e-05
0.0251959
-1.1463e-05
0.0251954
-7.27539e-06
0.0251951
-4.60375e-06
0.0251949
-2.9036e-06
0.0251947
-1.82386e-06
0.0251946
-1.14605e-06
0.0251946
-7.16642e-07
0.0251946
-4.43998e-07
0.0251945
-2.75708e-07
0.0251945
-1.71227e-07
0.0251945
-1.07744e-07
0.0251945
-6.50611e-08
0.0251945
-3.93468e-08
0.0251945
-2.60585e-08
0.0251945
-1.27986e-08
0.0251945
-8.17161e-09
0.0251945
-6.86685e-09
0.0251945
-1.63941e-09
0.0251945
-3.74551e-09
0.0251945
-2.27803e-09
0.0251945
2.78877e-09
0.0251945
-3.33064e-09
0.0251945
-3.85361e-09
0.0251945
2.0091e-09
0.0251945
-9.14158e-11
0.0251945
-5.03954e-10
0.0251945
8.50127e-10
0.0251945
-1.55808e-09
0.0251945
-8.38359e-10
0.0251945
2.16722e-09
0.0251945
4.66068e-10
0.0251945
-7.94966e-10
0.0251945
2.50095e-10
0.0251945
5.35986e-11
0.0251945
1.33696e-09
0.0251945
2.40612e-09
0.0251945
7.15959e-10
0.0251945
-1.12075e-09
0.0251945
-1.62083e-09
0.0251945
-3.31801e-10
0.0251945
1.1234e-09
0.0251945
6.32059e-10
0.0251945
-3.368e-10
0.0251945
-1.05038e-09
0.0251945
-1.73854e-09
0.0251945
-8.67112e-10
0.0251945
6.42989e-10
0.0251945
1.01532e-09
0.0251945
1.51263e-09
0.0251945
1.56789e-09
0.0251945
-1.14148e-10
0.0251945
-1.4279e-09
0.0251945
-8.59599e-10
0.0251945
3.68766e-10
0.0251945
5.93453e-10