/*--------------------------------*- C++ -*----------------------------------*\
| =========                 |                                                 |
| \\      /  F ield         | OpenFOAM: The Open Source CFD Toolbox           |
|  \\    /   O peration     | Version:  2.4.0                                 |
|   \\  /    A nd           | Web:      www.OpenFOAM.org                      |
|    \\/     M anipulation  |                                                 |
\*---------------------------------------------------------------------------*/
FoamFile
{
    version     2.0;
    format      ascii;
    class       volScalarField;
    location    "1.07";
    object      k_0;
}
// * * * * * * * * * * * * * * * * * * * * * * * * * * * * * * * * * * * * * //

dimensions      [0 2 -2 0 0 0 0];

internalField   nonuniform List<scalar> 
8800
(
8.27565
10.1159
9.0022
6.54486
6.00109
4.67723
4.81643
3.90223
4.25287
3.45842
3.93415
3.16561
3.75775
2.96608
3.62705
2.77512
3.57723
2.61261
3.61264
2.50122
1.57865
4.16698
5.49613
5.15139
5.27395
4.65631
4.7813
4.15765
4.37564
3.77486
4.0668
3.49317
3.88276
3.30326
3.76685
3.1514
3.71234
3.03324
3.65515
3.21975
0.0978684
0.631509
1.70366
1.89524
2.43365
2.39841
2.67564
2.543
2.76293
2.53038
2.77357
2.49291
2.72878
2.4403
2.72427
2.41268
2.71459
2.4029
2.68113
2.52796
0.00490211
0.0675877
0.296542
0.40759
0.676349
0.72887
0.916042
0.953114
1.13699
1.12087
1.28703
1.23722
1.36931
1.30932
1.45114
1.40194
1.51257
1.49924
1.54474
1.56924
0.000312713
0.00539009
0.0237215
0.0539874
0.112052
0.13795
0.166009
0.220157
0.27674
0.295332
0.359672
0.393841
0.41388
0.45092
0.463137
0.525372
0.527269
0.618059
0.604746
0.685902
4.49445e-05
0.00048983
0.00207472
0.00553047
0.0144215
0.019902
0.0233925
0.0336305
0.0419681
0.0549624
0.0724318
0.0925568
0.09774
0.114412
0.119963
0.144202
0.149001
0.185395
0.191921
0.222916
0.000573729
0.00100179
0.00326074
0.00411696
0.00783398
0.00909273
0.0125271
0.0136558
0.0189379
0.0207694
0.0283591
0.0306329
0.0377553
0.0407417
0.0482631
0.0514297
0.0546808
0.0669331
0.072331
0.0840769
0.000142864
0.000280981
0.000722806
0.00136149
0.00231282
0.00396267
0.00516618
0.00526872
0.00571109
0.00603917
0.00695985
0.00802195
0.0113902
0.014485
0.0150536
0.016054
0.0159292
0.0189735
0.0197027
0.0233373
2.84346e-05
9.36733e-05
0.000335732
0.000663517
0.000669233
0.00107507
0.00152044
0.0018158
0.00188311
0.00206384
0.00217596
0.00266725
0.00358736
0.00519812
0.00538138
0.00583681
0.00574722
0.00611669
0.0064048
0.0076267
2.48298e-05
0.000170372
0.000261209
0.000215541
0.000378965
0.000714962
0.00138498
0.00155581
0.0015572
0.00153513
0.00153877
0.001666
0.00205058
0.00336686
0.00348006
0.00345168
0.00338345
0.0035964
0.00463173
0.00772227
2.2262e-05
0.000153075
0.000131701
0.000148918
0.000276582
0.00130676
0.00146451
0.00130114
0.00120265
0.00118698
0.00122568
0.00153688
0.00203617
0.00216735
0.00205853
0.00202829
0.00209489
0.0024523
0.00366451
0.00870452
2.04096e-05
4.87564e-05
7.53426e-05
0.000126509
0.000564011
0.00104197
0.000866566
0.000681305
0.000653437
0.000820223
0.000929697
0.00120021
0.00127578
0.00121408
0.00117535
0.00123305
0.00165456
0.00335009
0.00912399
0.0203182
2.4688e-05
5.29657e-05
6.13657e-05
0.000205376
0.000669559
0.00061777
0.00051155
0.000462074
0.000490876
0.000723288
0.00113871
0.00123563
0.00171686
0.00187056
0.00180453
0.00194187
0.00227506
0.00334544
0.00640364
0.0101098
2.47574e-05
5.70449e-05
0.000130665
0.00069275
0.00130389
0.00134921
0.00187643
0.00214961
0.00258418
0.004044
0.00811116
0.00846057
0.0111882
0.0133571
0.0127654
0.0144398
0.0155834
0.0192665
0.0227633
0.0320786
2.5046e-05
0.000353755
0.00129293
0.00649489
0.0111965
0.0125824
0.0200505
0.0261846
0.0304563
0.0439856
0.0655642
0.0677501
0.0789253
0.0947967
0.0942726
0.105847
0.114883
0.139295
0.154792
0.196368
0.000126748
0.00545484
0.019183
0.0642254
0.100965
0.115295
0.166747
0.209196
0.22983
0.284537
0.348413
0.357285
0.386921
0.437558
0.440126
0.478376
0.506065
0.577876
0.610493
0.689132
0.00348306
0.0740831
0.216511
0.470522
0.606709
0.665514
0.839215
0.940652
0.990677
1.09928
1.1916
1.19512
1.2334
1.29302
1.29624
1.34047
1.37309
1.44941
1.4678
1.51893
0.0872552
0.754809
1.53878
1.99574
2.24522
2.38713
2.5841
2.60349
2.59963
2.58245
2.57723
2.50343
2.49084
2.45454
2.43263
2.39261
2.39312
2.38152
2.35653
2.3346
1.44584
4.33457
5.32884
5.27282
5.08052
4.82361
4.49622
4.28641
4.09937
3.82742
3.73251
3.58234
3.48969
3.33117
3.32324
3.18598
3.15459
3.04797
3.00203
2.8968
8.18227
10.2044
8.80342
6.74854
5.68417
4.97481
4.44381
4.11734
3.87982
3.63575
3.50846
3.37484
3.29371
3.1044
3.09794
2.93485
2.89867
2.71807
2.65734
2.4375
1.58971
1.16907
1.05326
0.817947
0.775123
0.660833
0.649822
0.594164
0.606386
0.579771
0.603248
0.579297
0.603958
0.580326
0.605923
0.584528
0.610311
0.591386
0.618637
0.603062
0.630375
0.613178
0.638313
0.618167
0.644454
0.621764
0.652758
0.623948
0.657936
0.613442
0.63978
0.563843
0.549388
0.39224
0.327485
0.172152
0.133327
0.0742402
0.0616693
0.0504109
0.0584876
0.0685343
0.0857653
0.105146
0.114949
0.137058
0.146983
0.169048
0.181922
0.219933
0.241307
0.25078
0.243454
0.212114
0.160733
0.13291
0.107837
0.102219
0.103441
0.101322
0.102939
0.108159
0.144964
0.170032
0.169967
0.160017
0.132349
0.120809
0.120236
0.130631
0.142341
0.153047
0.152547
0.151088
0.14344
0.136458
0.125226
0.119932
0.110072
0.10287
0.0917573
0.0835118
0.0738638
0.0672682
0.0637914
0.0635096
0.063955
0.0682716
0.077714
0.0845448
0.0985153
0.114522
0.133039
0.141406
0.144929
0.128115
0.126415
0.167388
0.284852
0.288795
0.253566
0.213489
0.193536
0.161749
0.14151
0.119772
0.101825
0.0896235
0.0796179
0.0769445
0.0761472
0.0752876
0.0764042
0.0774731
0.0779126
0.0780082
0.0764535
0.0727596
0.0707207
0.0709693
0.0768503
0.0800724
0.0795694
0.0722177
0.0655085
0.0644614
0.0651063
0.0702509
0.0964873
0.117862
0.130504
0.130967
0.1271
0.109842
0.0875447
0.0773424
0.073941
0.0737544
0.0744963
0.0769295
0.0801473
0.0902265
0.0964335
0.0971813
0.0965992
0.0960395
0.0951787
0.0905312
0.076633
0.0586111
0.0454811
0.0395987
0.0380824
0.0385688
0.0421286
0.0599309
0.0749562
0.0749805
0.0642404
0.052445
0.0494853
0.0510681
0.0640091
0.102751
0.238236
0.343225
0.352955
0.312504
0.184449
0.112372
0.0778663
0.0563055
0.0491121
0.0433846
0.0685952
0.0660984
0.0856334
0.0766233
0.0785032
0.0766453
0.0698101
0.0686652
0.0593858
0.0567549
0.0475829
0.0464161
0.0437444
0.052696
0.0549586
0.0677294
0.0649614
0.0704179
0.069967
0.0722166
0.0844633
0.0928645
0.111789
0.145177
0.198647
0.628745
2.50645
2.00014
1.79269
1.48393
1.38817
1.19886
1.14988
1.03933
1.01191
0.938294
0.922291
0.870142
0.860922
0.821931
0.814728
0.780781
0.774136
0.744381
0.738785
0.711831
0.706344
0.68139
0.677008
0.655998
0.655488
0.642226
0.647143
0.638916
0.652266
0.650219
0.671748
0.666256
0.679764
0.655154
0.63493
0.547171
0.435714
0.288615
0.194043
0.14149
0.106754
0.100363
0.102502
0.11084
0.121415
0.146304
0.159425
0.17693
0.212106
0.257076
0.267831
0.264692
0.239943
0.188444
0.128198
0.113779
0.0939513
0.0838926
0.0783316
0.0791426
0.0780036
0.0797651
0.0855869
0.112528
0.143885
0.149945
0.144866
0.133334
0.117351
0.112366
0.106521
0.10656
0.108061
0.108426
0.106286
0.102839
0.0951853
0.0898868
0.0843724
0.0793204
0.0715347
0.0656005
0.0612319
0.0603587
0.0601694
0.0607143
0.0620252
0.0676885
0.0729226
0.0789195
0.0876505
0.0983973
0.111963
0.126666
0.137071
0.136566
0.12509
0.124044
0.160943
0.251854
0.261644
0.242224
0.213845
0.176992
0.149006
0.127054
0.108596
0.0951737
0.0871664
0.081087
0.0806007
0.0786873
0.0787508
0.0787108
0.0783616
0.0773202
0.0753247
0.0741332
0.075123
0.0798747
0.0832717
0.0822637
0.0743206
0.0669895
0.0641683
0.0650051
0.0697242
0.0928834
0.111393
0.123607
0.12333
0.11802
0.0994198
0.0819047
0.075864
0.0733267
0.0745168
0.0776868
0.0860008
0.0917828
0.102858
0.115548
0.120006
0.120596
0.116987
0.112215
0.105822
0.0987615
0.0832878
0.0648887
0.0497103
0.0441807
0.0429624
0.0434803
0.046292
0.0618972
0.0768833
0.0777203
0.0677176
0.0589864
0.0572886
0.058089
0.0670269
0.11726
0.237025
0.334776
0.343729
0.320123
0.212933
0.127903
0.0857439
0.0583242
0.0622378
0.0603642
0.0744135
0.0684843
0.0724927
0.073705
0.0690824
0.0675135
0.0616592
0.059581
0.0531449
0.0470822
0.0445006
0.0415237
0.0417386
0.0480169
0.0535347
0.0579415
0.0620641
0.0613695
0.0701879
0.0696344
0.0795626
0.0916806
0.10245
0.108645
0.122653
0.236702
2.20836
1.90606
1.7316
1.52954
1.40925
1.27414
1.19102
1.10248
1.04161
0.985022
0.93307
0.899906
0.852724
0.833702
0.791788
0.77499
0.737554
0.723529
0.687799
0.6741
0.63919
0.627041
0.593431
0.582253
0.550848
0.541909
0.51477
0.510873
0.495469
0.501993
0.500997
0.522199
0.533415
0.589078
0.598909
0.633961
0.607416
0.602024
0.529693
0.479488
0.359351
0.283054
0.215551
0.198704
0.19865
0.206699
0.225084
0.272173
0.295477
0.298202
0.288235
0.266246
0.190206
0.138201
0.103567
0.0856395
0.0743869
0.071736
0.0660158
0.067984
0.0667999
0.0658071
0.066176
0.0710439
0.0820794
0.119642
0.131035
0.131214
0.127495
0.116904
0.105146
0.0991418
0.09134
0.0861666
0.0814801
0.0772618
0.0719145
0.0680305
0.0655359
0.0637031
0.0620759
0.0604378
0.0594998
0.0595071
0.0598887
0.0608446
0.062266
0.0676935
0.0727326
0.0786052
0.0807647
0.0860014
0.0961734
0.108636
0.12147
0.127762
0.123045
0.111197
0.1136
0.141389
0.219616
0.230991
0.223114
0.203795
0.177005
0.151513
0.130201
0.109333
0.0982144
0.0886393
0.0857092
0.0833515
0.0813645
0.0804011
0.0801543
0.0794479
0.0790875
0.0799386
0.0818694
0.0818901
0.0805779
0.0747778
0.0684225
0.0665473
0.0676721
0.0741679
0.093117
0.107566
0.114753
0.113149
0.104801
0.0863299
0.0765272
0.0734624
0.0736948
0.0771339
0.0885611
0.102964
0.122677
0.139105
0.155117
0.159967
0.158903
0.15534
0.142597
0.132158
0.120606
0.107214
0.086996
0.0659744
0.0524394
0.0460536
0.0434332
0.0434088
0.04588
0.0646184
0.0773963
0.0782843
0.0709797
0.0666606
0.0658248
0.065889
0.072468
0.11745
0.24286
0.323799
0.331706
0.318009
0.236971
0.141751
0.102485
0.068209
0.079073
0.0693925
0.0703641
0.068277
0.0640483
0.0644827
0.0609705
0.0606405
0.0583644
0.0533781
0.0497763
0.0441758
0.045349
0.0456208
0.0492755
0.0486677
0.0520668
0.0624107
0.0717781
0.084586
0.0862574
0.0907859
0.0957821
0.10613
0.114777
0.145181
0.144584
0.16098
1.4708
1.38151
1.23923
1.18265
1.06708
1.02212
0.926751
0.891435
0.813253
0.785884
0.722428
0.701492
0.649785
0.633793
0.590755
0.577764
0.539889
0.528402
0.493176
0.481972
0.447551
0.436392
0.402878
0.392275
0.360554
0.351284
0.322878
0.316919
0.297341
0.299947
0.296331
0.310559
0.316176
0.350337
0.371502
0.449103
0.473731
0.541242
0.535875
0.544829
0.523685
0.512657
0.471068
0.437308
0.403301
0.394148
0.384459
0.370158
0.341453
0.317349
0.270423
0.190132
0.135078
0.0986329
0.0755536
0.063445
0.0563468
0.0574176
0.0563363
0.0579807
0.0581721
0.0592358
0.0568619
0.0571751
0.0607204
0.071514
0.0985709
0.118413
0.120997
0.120177
0.115905
0.104953
0.0954129
0.0886328
0.0821592
0.0752386
0.0699053
0.0660642
0.0643112
0.0632286
0.0625383
0.0627413
0.0641968
0.0656187
0.0662532
0.068245
0.0704179
0.0723892
0.0750981
0.0758198
0.0768033
0.0798495
0.0905613
0.0979898
0.101231
0.105195
0.105562
0.10055
0.0958605
0.0994265
0.118859
0.180125
0.204766
0.201698
0.19167
0.174792
0.157881
0.140493
0.125225
0.110327
0.0981494
0.0929508
0.0880242
0.085099
0.083783
0.0826744
0.0813241
0.0813056
0.081153
0.0802793
0.0753549
0.0722656
0.072457
0.0739062
0.08176
0.0912129
0.10367
0.105074
0.101443
0.0883309
0.076044
0.0719847
0.0720672
0.0747989
0.084506
0.108224
0.142392
0.176785
0.213361
0.237905
0.240224
0.236287
0.226532
0.210525
0.182295
0.14847
0.126485
0.111539
0.0930898
0.0709759
0.0571485
0.0493814
0.0447348
0.0438737
0.0451829
0.0596908
0.0770311
0.0796213
0.0785359
0.0748856
0.0738531
0.0735406
0.0792342
0.129698
0.235795
0.319315
0.329427
0.315887
0.270847
0.156826
0.137458
0.0972514
0.0910605
0.0743251
0.068851
0.0667682
0.0618201
0.060403
0.0574474
0.0566348
0.0534032
0.0508613
0.0462313
0.0445691
0.044062
0.0486327
0.0513039
0.0586743
0.0570906
0.0745518
0.0757356
0.0987723
0.0902193
0.102133
0.0940437
0.114496
0.115672
0.150282
0.150701
0.163619
0.653648
0.634806
0.590719
0.575591
0.537713
0.523566
0.486828
0.472721
0.436404
0.422445
0.387425
0.374378
0.342529
0.331047
0.303095
0.292967
0.26825
0.259166
0.237091
0.228759
0.20889
0.201615
0.184225
0.178092
0.163586
0.158746
0.146825
0.143524
0.134866
0.133333
0.129176
0.13181
0.133458
0.142492
0.150809
0.177118
0.196807
0.252721
0.288323
0.361359
0.401153
0.432482
0.431984
0.427633
0.414182
0.394695
0.369556
0.338628
0.286549
0.212573
0.145915
0.104476
0.0807501
0.0636262
0.0526697
0.0509693
0.0486287
0.0485966
0.0486119
0.0510775
0.051333
0.0535187
0.0536306
0.0540825
0.0540895
0.0566277
0.0635493
0.0848717
0.104149
0.112036
0.112019
0.110366
0.107387
0.100896
0.0939902
0.0863482
0.0800016
0.0762312
0.074346
0.0738506
0.0744802
0.074748
0.074238
0.0738191
0.072791
0.0724486
0.0731229
0.0735282
0.0730405
0.0714591
0.0706243
0.0710093
0.0756139
0.0845274
0.0880401
0.0910015
0.0912257
0.0888657
0.0830117
0.0828301
0.0858236
0.0986251
0.132584
0.170515
0.177282
0.173345
0.164249
0.152301
0.142018
0.134795
0.121931
0.114273
0.108281
0.101568
0.097314
0.0947581
0.0930302
0.0896822
0.0852533
0.082631
0.0823769
0.0826088
0.0833897
0.0850207
0.0905598
0.0957302
0.0941977
0.0869036
0.0744663
0.0684245
0.0685174
0.0705257
0.0784133
0.100043
0.146379
0.208375
0.274043
0.329012
0.375874
0.379317
0.372201
0.348462
0.317776
0.276826
0.228915
0.174906
0.136687
0.111897
0.0936173
0.0737836
0.0622286
0.0554369
0.0492064
0.0463313
0.0467771
0.0529836
0.0728766
0.0812141
0.0812922
0.0815086
0.0814653
0.0813074
0.0861867
0.125061
0.242551
0.295096
0.330721
0.314716
0.294519
0.195148
0.163888
0.107369
0.0944116
0.0770659
0.0699339
0.0661545
0.0622552
0.0598339
0.0580038
0.0560854
0.0541945
0.0512399
0.0483395
0.0468654
0.0469593
0.0502971
0.0510926
0.0573424
0.0588664
0.0806523
0.0795638
0.0970225
0.0874366
0.0975787
0.0862252
0.102871
0.0982219
0.127172
0.129133
0.140308
0.217675
0.213734
0.204513
0.201145
0.193098
0.190118
0.182369
0.178836
0.169959
0.165665
0.155829
0.151331
0.142033
0.137241
0.129519
0.124678
0.117983
0.113496
0.107829
0.103411
0.098415
0.0946906
0.0901801
0.0874655
0.0842
0.0821121
0.0796832
0.0778874
0.0760018
0.0742369
0.0716218
0.071175
0.0711985
0.0719558
0.073914
0.0798469
0.0850176
0.0936216
0.113251
0.131301
0.147515
0.179915
0.212388
0.223952
0.222317
0.213085
0.189787
0.156787
0.123051
0.0958775
0.0778064
0.0644692
0.0548195
0.0481501
0.041942
0.0395404
0.0393908
0.0412371
0.044452
0.0474256
0.0472862
0.0477424
0.0478859
0.049542
0.0502116
0.0513983
0.0530811
0.0576738
0.0697434
0.086591
0.0992049
0.103494
0.103384
0.102213
0.0992769
0.0956029
0.0920963
0.0898182
0.0877831
0.0842042
0.0810236
0.0796599
0.0768824
0.0744431
0.0723004
0.0710496
0.0696429
0.0679373
0.0625483
0.056008
0.0546309
0.0552541
0.0571885
0.066469
0.0732355
0.0758307
0.0781089
0.0789357
0.07805
0.0764033
0.076382
0.0784382
0.0851312
0.103405
0.122717
0.143442
0.148674
0.146859
0.141491
0.136575
0.129704
0.12444
0.118475
0.113079
0.110138
0.106361
0.102355
0.0974363
0.0927718
0.0894078
0.0875489
0.0865586
0.0862902
0.0874028
0.0870029
0.0835363
0.0729901
0.0657921
0.0646403
0.0656824
0.0710046
0.0878794
0.127003
0.213057
0.315361
0.416826
0.504049
0.532269
0.52104
0.489013
0.450903
0.399731
0.356556
0.308763
0.260235
0.203465
0.152554
0.116905
0.0943127
0.0738944
0.0650294
0.0626743
0.0600313
0.0541908
0.0519817
0.0545562
0.0670858
0.0799948
0.0818459
0.0885109
0.0878925
0.0890094
0.101623
0.130138
0.256657
0.283165
0.339404
0.318905
0.320089
0.250241
0.200636
0.127478
0.103051
0.0812882
0.0740483
0.0672701
0.0655461
0.0615535
0.0607253
0.0581034
0.0567626
0.0553293
0.0522925
0.0521453
0.0511037
0.0519448
0.0536664
0.066376
0.071305
0.0875907
0.0817093
0.0808835
0.0730562
0.0673969
0.0577781
0.0605422
0.0616598
0.0697154
0.0785947
0.0898263
0.0830387
0.0815104
0.0784155
0.0768079
0.0755597
0.0756036
0.0756728
0.0758701
0.0758023
0.0753403
0.0747643
0.0734264
0.0725895
0.0707825
0.0697609
0.0676289
0.0663613
0.0642271
0.0628454
0.0607988
0.0592228
0.0576884
0.0562298
0.0553269
0.054711
0.0543243
0.0538331
0.0534324
0.0525329
0.0515707
0.0502123
0.0493097
0.0489999
0.0490996
0.0494533
0.0503022
0.0521838
0.0540397
0.0565628
0.0635371
0.068178
0.0724559
0.08332
0.0876629
0.0871689
0.0848531
0.0792205
0.0708597
0.0625999
0.0555074
0.0499065
0.0444351
0.0385357
0.0348629
0.0343732
0.0348162
0.0353778
0.0370391
0.0392588
0.0405414
0.0407758
0.0402318
0.038715
0.0386932
0.0388448
0.0391212
0.040177
0.0422196
0.0454046
0.05256
0.0669658
0.0781323
0.085933
0.0912314
0.0929058
0.0928092
0.0922996
0.0909387
0.0885108
0.0848987
0.0811034
0.0772975
0.0720392
0.0666227
0.060646
0.056647
0.0516001
0.046452
0.0421065
0.0407149
0.041133
0.0448375
0.0479259
0.0524381
0.0619616
0.065794
0.0664763
0.0674978
0.0693827
0.0700811
0.0703449
0.0712687
0.0733079
0.0789028
0.0868581
0.0971107
0.105469
0.113172
0.119521
0.121211
0.120373
0.118486
0.114256
0.11075
0.107844
0.103616
0.0993968
0.0950714
0.0908969
0.0876903
0.0850128
0.0831454
0.0817468
0.07885
0.0721851
0.0645843
0.0614316
0.0617376
0.0643459
0.0747062
0.103456
0.172513
0.306793
0.477871
0.605479
0.651123
0.639761
0.609161
0.554007
0.501857
0.453444
0.395567
0.355164
0.31152
0.274859
0.228401
0.176023
0.131103
0.102495
0.0797113
0.0695691
0.0678855
0.0698519
0.0689272
0.0639843
0.0623016
0.065114
0.0757019
0.0794335
0.0931756
0.0946904
0.0979789
0.122437
0.149391
0.282402
0.292926
0.352113
0.338862
0.330399
0.26255
0.220254
0.148745
0.12474
0.0918073
0.0849652
0.0722943
0.070404
0.0657642
0.063214
0.0603937
0.0568629
0.0569386
0.0540254
0.0537049
0.0548248
0.0561284
0.0586942
0.0749249
0.077628
0.0803499
0.0742764
0.061105
0.0548485
0.0517217
0.0509752
0.0513307
0.0526239
0.0586719
0.0622446
0.0655738
0.0246763
0.0251509
0.0256345
0.0264193
0.0278551
0.0297728
0.031938
0.0342257
0.0360321
0.0377001
0.038747
0.0397051
0.0401461
0.0404066
0.0404261
0.0404144
0.0402709
0.0400207
0.0397366
0.0394692
0.0392606
0.0392068
0.0392047
0.0392375
0.0393439
0.0395249
0.0397398
0.0399357
0.040034
0.0398755
0.0394632
0.0393747
0.0394064
0.0394928
0.0400354
0.0407905
0.0411686
0.0414887
0.0422245
0.0430929
0.043686
0.0444534
0.0461877
0.046754
0.0466412
0.0460807
0.0447025
0.0423679
0.0401049
0.0384045
0.0358679
0.0328386
0.0309258
0.0305779
0.0308338
0.0325481
0.0337006
0.0355381
0.0377123
0.0381258
0.0379183
0.0370913
0.0351925
0.0334357
0.0325811
0.0324259
0.0324466
0.0327162
0.0336385
0.0358874
0.0417007
0.0475472
0.0524616
0.0599965
0.0694926
0.0762955
0.0788098
0.0789104
0.0781585
0.0757942
0.069528
0.0610475
0.0524033
0.0452235
0.0405929
0.0384059
0.0366275
0.0360165
0.0362339
0.0370216
0.038476
0.0429249
0.0483879
0.0502937
0.0536892
0.0589193
0.0605278
0.0606643
0.060994
0.0611872
0.0608132
0.0609452
0.0615647
0.0635603
0.0659284
0.0728223
0.0773631
0.0823652
0.0864543
0.0873574
0.0896411
0.0898582
0.0892281
0.0878901
0.0854899
0.0832295
0.0800922
0.0770791
0.0752048
0.0737172
0.0714734
0.0698404
0.0672616
0.0629088
0.0592671
0.0590595
0.060049
0.0652138
0.0826937
0.128171
0.228544
0.445316
0.654089
0.737612
0.73827
0.717424
0.660929
0.602411
0.514843
0.468768
0.403747
0.367207
0.33038
0.302905
0.274719
0.253572
0.216674
0.169735
0.131301
0.102208
0.0828307
0.0817589
0.0843197
0.088046
0.0819788
0.075152
0.0691611
0.0768534
0.0801451
0.102597
0.111173
0.114358
0.124606
0.148058
0.300931
0.312166
0.358025
0.338891
0.329365
0.277784
0.234408
0.159347
0.140119
0.103104
0.0951792
0.0803502
0.076016
0.0699688
0.0654559
0.0632746
0.059801
0.0573122
0.0545498
0.0530402
0.0537478
0.0561265
0.0601102
0.0656696
0.0653942
0.0647635
0.0573475
0.0515128
0.0513227
0.0509357
0.0510031
0.0544473
0.0562975
0.0612205
0.0635717
0.0652362
0.00938176
0.0106918
0.0121262
0.0135917
0.0150992
0.016613
0.0181404
0.0196764
0.0210756
0.022455
0.0236451
0.0248564
0.0259696
0.0270681
0.0281022
0.0290472
0.029923
0.0305889
0.0312255
0.0316018
0.0320558
0.0323081
0.032743
0.0330669
0.0335585
0.0339532
0.0344555
0.0348865
0.0352711
0.0353973
0.0353652
0.0349984
0.0347617
0.0347331
0.0348335
0.0349764
0.0350624
0.0349784
0.0344098
0.0339812
0.0335791
0.0331219
0.0329394
0.0327653
0.0324828
0.0321551
0.0318631
0.0313624
0.0310619
0.0307395
0.0297243
0.0287961
0.0285452
0.0286292
0.0289218
0.0310909
0.0341757
0.0353102
0.0362251
0.0380524
0.0384489
0.0382687
0.0371542
0.0350156
0.0333811
0.0323483
0.0319255
0.0318774
0.0320032
0.0327742
0.0342329
0.0355788
0.0367587
0.0382657
0.0436545
0.0488989
0.0504336
0.0501757
0.0491192
0.0458412
0.0413285
0.0380529
0.0358431
0.0345825
0.0342857
0.0343942
0.0347035
0.0353556
0.0360476
0.0382513
0.0411374
0.0433963
0.050087
0.0530567
0.0552157
0.0588843
0.0600686
0.059738
0.0586869
0.0578891
0.0572574
0.0547539
0.0530214
0.0531092
0.0536046
0.0558702
0.0583406
0.061065
0.0641058
0.0662623
0.067484
0.0682376
0.0683341
0.0680748
0.0672266
0.0660803
0.0654944
0.0652992
0.0651074
0.0646161
0.0636668
0.0624285
0.0591221
0.0567839
0.0571561
0.0593614
0.0679954
0.0943551
0.163514
0.312126
0.612626
0.771667
0.813506
0.802834
0.760628
0.659435
0.562957
0.469014
0.419864
0.389487
0.349464
0.338986
0.308959
0.29677
0.272481
0.262377
0.240491
0.22492
0.195737
0.16677
0.126811
0.124593
0.122821
0.125293
0.106572
0.0847543
0.071642
0.0754254
0.0813227
0.120205
0.131211
0.127515
0.123254
0.13311
0.223416
0.293168
0.343642
0.334379
0.323956
0.286804
0.254095
0.172918
0.149559
0.115264
0.102379
0.0874702
0.0844317
0.0746361
0.0688281
0.0658917
0.0599159
0.0563956
0.0528413
0.0514179
0.0519871
0.0566201
0.058985
0.0610863
0.0602962
0.0579701
0.0532254
0.0506566
0.0506921
0.051586
0.0519542
0.0561835
0.0577318
0.0623547
0.0638828
0.0653896
0.0096813
0.0106486
0.0117536
0.0128346
0.013985
0.0151793
0.016565
0.018034
0.0196139
0.0212155
0.0228017
0.0243623
0.0258404
0.0272463
0.0284505
0.0294321
0.0301123
0.0305058
0.0306813
0.0307315
0.0307318
0.0305796
0.0303709
0.0301179
0.0299326
0.0296916
0.0294214
0.0290856
0.0286556
0.0282711
0.0279137
0.0276595
0.027547
0.02754
0.0275517
0.0276529
0.0277523
0.02778
0.027777
0.027678
0.0274315
0.0272094
0.0270669
0.0270201
0.0270249
0.0271207
0.0274424
0.0276692
0.0278453
0.0279593
0.0279244
0.0277774
0.0278205
0.0280732
0.0285732
0.0298684
0.0327952
0.03507
0.0360101
0.0375511
0.040246
0.0413554
0.0413337
0.0405972
0.038559
0.0370388
0.0357518
0.0345752
0.0340341
0.0340383
0.0341117
0.0338971
0.0336444
0.0335734
0.0338945
0.0353078
0.0358902
0.0358271
0.0353109
0.0345839
0.0338218
0.0333743
0.0333776
0.0335623
0.0340304
0.0355394
0.0369027
0.0396217
0.0416669
0.0462633
0.0514712
0.0532814
0.0574506
0.0618763
0.0619417
0.0614097
0.0612379
0.0606857
0.0591949
0.0580104
0.0571828
0.0551407
0.051717
0.0481064
0.0467974
0.0469543
0.0475147
0.0487935
0.0504071
0.0526259
0.0542573
0.0552408
0.0556596
0.0557538
0.056121
0.0577444
0.0595603
0.0601238
0.0600652
0.0597251
0.058863
0.0554391
0.0541209
0.0550103
0.0587737
0.0723724
0.110547
0.206878
0.428554
0.716988
0.841005
0.86649
0.835177
0.741722
0.562699
0.443089
0.3865
0.350086
0.342863
0.326874
0.319332
0.314547
0.293257
0.285794
0.269742
0.263054
0.245813
0.23782
0.226544
0.206758
0.170732
0.159951
0.158818
0.149871
0.118955
0.086728
0.0736566
0.0742158
0.0861525
0.122957
0.135098
0.123182
0.124369
0.136852
0.193359
0.263268
0.317113
0.322758
0.314689
0.286145
0.259112
0.200872
0.161899
0.127392
0.117593
0.0940373
0.0898919
0.0822606
0.0731284
0.0672358
0.0596219
0.0568846
0.0538251
0.0540643
0.0557944
0.0592318
0.0596598
0.0603873
0.0588007
0.0562566
0.0528746
0.0520589
0.0526509
0.0549394
0.0578151
0.0619975
0.0628764
0.0655074
0.0669754
0.0892811
0.0141799
0.0165921
0.0188252
0.0209773
0.0228301
0.0245396
0.0258647
0.0271709
0.0281255
0.0290463
0.0296509
0.0301092
0.0302952
0.0303853
0.0303892
0.0303557
0.0300964
0.0295417
0.028849
0.0282522
0.0276549
0.0272356
0.0268113
0.0265094
0.0261345
0.0258204
0.0253958
0.0250719
0.0247434
0.0245825
0.0244866
0.0244747
0.0244737
0.0245698
0.0247356
0.0249222
0.0251375
0.025402
0.0257419
0.0259862
0.0261331
0.0262491
0.0263336
0.0263891
0.0264443
0.0264878
0.0265819
0.0267925
0.0271249
0.0274309
0.0278743
0.0284494
0.0293818
0.0307258
0.0314855
0.0315384
0.0315886
0.0326538
0.0336868
0.0342852
0.0362665
0.0394762
0.0409394
0.0410764
0.0407863
0.0396085
0.0386991
0.0382558
0.0380264
0.0377009
0.0372657
0.0360922
0.0346632
0.0333525
0.0328197
0.0327778
0.032868
0.0329577
0.0330893
0.0333794
0.0335831
0.0339636
0.0348234
0.0362941
0.0383801
0.0447749
0.0493512
0.0585393
0.0669461
0.0732363
0.0762883
0.0758588
0.0743516
0.0736714
0.0726804
0.0688424
0.0649855
0.0637944
0.0624976
0.0612085
0.0599663
0.0585482
0.0544663
0.0497849
0.0460172
0.0436762
0.0431857
0.0433122
0.0438936
0.0455815
0.0484378
0.0504655
0.0529278
0.0549296
0.0573193
0.0588851
0.0590026
0.0585596
0.0572391
0.0544081
0.0505073
0.0505981
0.0521282
0.0584022
0.079113
0.138196
0.269073
0.569032
0.781687
0.882388
0.890278
0.817126
0.622631
0.456571
0.370811
0.334917
0.32044
0.32024
0.318806
0.31101
0.311011
0.299747
0.298222
0.290268
0.279856
0.273171
0.260229
0.24886
0.237256
0.210363
0.190382
0.179293
0.174909
0.151757
0.119857
0.0852517
0.0740664
0.0734171
0.0881179
0.119755
0.113154
0.107985
0.108793
0.144703
0.178183
0.259526
0.307074
0.314439
0.30922
0.294679
0.259774
0.217168
0.186086
0.139393
0.131334
0.108508
0.094996
0.0875965
0.076457
0.068582
0.0608491
0.0587648
0.0579348
0.0592095
0.0604497
0.0617202
0.0613764
0.0606308
0.0575303
0.0561678
0.0560415
0.0563486
0.0600067
0.0649126
0.0673532
0.0692464
0.0708569
0.0759726
0.0823612
0.182096
0.024223
0.0258057
0.0269727
0.0281145
0.0287866
0.0292494
0.0293348
0.0293509
0.0292401
0.0290218
0.0286017
0.0278217
0.0267953
0.0255262
0.0242291
0.0229193
0.0217829
0.0208598
0.0201642
0.0196884
0.0194171
0.0193142
0.019295
0.0193025
0.0193472
0.0196786
0.0200767
0.0206081
0.0210183
0.0214535
0.0217366
0.0220523
0.0223591
0.022727
0.0231134
0.0234395
0.0236077
0.0237047
0.0238697
0.0240383
0.0241742
0.0243909
0.0248489
0.0254224
0.0258748
0.0261335
0.0263961
0.0267201
0.0276314
0.0290079
0.0308326
0.0342707
0.0388277
0.041717
0.0422174
0.0419544
0.0400609
0.0359664
0.0334473
0.0322209
0.0319461
0.0322134
0.033733
0.0348908
0.0351878
0.0351268
0.0349284
0.0348501
0.0350928
0.0359178
0.0362091
0.0362211
0.0360899
0.0354171
0.0347216
0.0341658
0.0340352
0.034135
0.0345227
0.035042
0.0359623
0.0382445
0.041503
0.0477701
0.0593543
0.0833375
0.103209
0.126946
0.15215
0.157389
0.154567
0.146031
0.124875
0.105969
0.0929401
0.081607
0.0728102
0.068066
0.0653305
0.064165
0.0634216
0.0626004
0.0604261
0.0553659
0.0501986
0.0460291
0.0435845
0.0424309
0.042173
0.0422545
0.0427831
0.0440131
0.0463247
0.0486279
0.049438
0.0492511
0.0483344
0.0464727
0.0449808
0.0450921
0.0459427
0.0492754
0.0610417
0.0937263
0.179761
0.383575
0.665747
0.803769
0.8923
0.876979
0.748565
0.520478
0.425704
0.367178
0.325977
0.309529
0.308008
0.318685
0.316948
0.316168
0.312078
0.293188
0.295143
0.285608
0.284777
0.274653
0.270409
0.260489
0.250763
0.213748
0.195118
0.181003
0.17629
0.146524
0.11683
0.0811582
0.0734106
0.0725622
0.0842235
0.111955
0.0947196
0.0917194
0.0994943
0.146269
0.17796
0.241596
0.248837
0.306106
0.298348
0.312973
0.285674
0.231681
0.211757
0.15458
0.14083
0.119904
0.102873
0.0919108
0.0797878
0.0725342
0.0660759
0.0647042
0.0652249
0.0675117
0.0684379
0.0682455
0.0662005
0.0651925
0.0645317
0.0645064
0.0647367
0.0669606
0.0735849
0.0753807
0.0764641
0.0780182
0.0816375
0.0899917
0.151658
0.327464
0.0113296
0.0117899
0.012327
0.0127407
0.0131895
0.0135505
0.0139143
0.0143556
0.0147097
0.0152
0.015536
0.0159884
0.0163204
0.016694
0.0169554
0.0171726
0.0172618
0.0172755
0.0172565
0.0171341
0.0170084
0.0168908
0.0168416
0.0168275
0.0169468
0.0173503
0.0179192
0.0186094
0.019439
0.0202151
0.0207469
0.0210553
0.0212165
0.0212913
0.0213173
0.0212944
0.0211622
0.0210141
0.0209317
0.0209408
0.0210078
0.0211911
0.0214672
0.0221873
0.0233944
0.02455
0.0261114
0.0292085
0.0349749
0.0427227
0.0525413
0.0641979
0.0746371
0.078834
0.0787672
0.0772204
0.0718493
0.0631755
0.055028
0.0482031
0.0430024
0.0395109
0.0375533
0.0365001
0.0360016
0.0352297
0.0338371
0.0323779
0.0315076
0.0311642
0.0310581
0.0313706
0.0320784
0.0324442
0.0325705
0.0327378
0.0330328
0.0335684
0.0347891
0.0373079
0.042264
0.0539486
0.0697807
0.0991581
0.147956
0.2043
0.261731
0.312449
0.333528
0.331644
0.32004
0.293938
0.250503
0.195859
0.147858
0.114971
0.0928681
0.0793003
0.0717109
0.0678083
0.0657677
0.0639884
0.0610795
0.0569826
0.0527242
0.0490207
0.0461379
0.0445375
0.0440441
0.0439768
0.0442009
0.0450598
0.0451853
0.0450118
0.0444781
0.0428369
0.0418637
0.0418453
0.0424287
0.0446949
0.0520092
0.0726362
0.130515
0.252402
0.551722
0.716123
0.830609
0.852301
0.80459
0.622316
0.47396
0.423441
0.391264
0.345581
0.312158
0.301517
0.303175
0.320898
0.319283
0.320754
0.306508
0.294699
0.275408
0.258408
0.269127
0.262875
0.268233
0.257752
0.250062
0.212024
0.205458
0.182929
0.176071
0.131324
0.109648
0.0740161
0.069307
0.0713533
0.0778931
0.0930681
0.0814
0.078369
0.091701
0.149941
0.189471
0.227376
0.237602
0.316194
0.308858
0.302083
0.285459
0.245854
0.249712
0.203264
0.161531
0.140098
0.119671
0.10034
0.0887362
0.0870468
0.0848922
0.0842972
0.0845983
0.0843558
0.0821256
0.0765028
0.0749328
0.0745055
0.0743482
0.0746626
0.0756854
0.0812688
0.0830097
0.0841207
0.0859697
0.09133
0.105212
0.144193
0.328965
0.398536
0.0335098
0.0340514
0.0342962
0.034815
0.0351383
0.0357924
0.03678
0.0385266
0.0405213
0.04278
0.0446477
0.046662
0.048405
0.0498207
0.0504597
0.0506309
0.0506002
0.0504347
0.049695
0.0483395
0.047256
0.0462032
0.045653
0.0450653
0.0446638
0.044528
0.0450471
0.0465915
0.0475237
0.0477794
0.0477297
0.0475498
0.0469438
0.0454933
0.0439067
0.0427735
0.0417294
0.040069
0.0388694
0.0387305
0.0389579
0.0397139
0.0416095
0.0447062
0.0496198
0.0554572
0.0663967
0.082043
0.102449
0.12339
0.144245
0.1615
0.16798
0.167701
0.164476