/*--------------------------------*- C++ -*----------------------------------*\
| =========                 |                                                 |
| \\      /  F ield         | OpenFOAM: The Open Source CFD Toolbox           |
|  \\    /   O peration     | Version:  2.4.0                                 |
|   \\  /    A nd           | Web:      www.OpenFOAM.org                      |
|    \\/     M anipulation  |                                                 |
\*---------------------------------------------------------------------------*/
FoamFile
{
    version     2.0;
    format      ascii;
    class       volVectorField;
    location    "1.07";
    object      U_0;
}
// * * * * * * * * * * * * * * * * * * * * * * * * * * * * * * * * * * * * * //

dimensions      [0 1 -1 0 0 0 0];

internalField   nonuniform List<vector> 
8800
(
(8.09757 0.386458 0)
(5.43147 0.244771 0)
(3.95189 0.0402821 0)
(3.09577 -0.0149761 0)
(2.87027 -0.0167217 0)
(2.49361 -0.0120135 0)
(2.6034 -0.00883582 0)
(2.25417 0.00257603 0)
(2.44952 -0.00332895 0)
(2.13182 -0.00252046 0)
(2.38976 0.00109806 0)
(2.02871 0.00341718 0)
(2.32968 -0.0035544 0)
(1.95763 0.00268415 0)
(2.29715 -0.00179009 0)
(1.86669 0.00479268 0)
(2.27833 -0.00567124 0)
(1.80141 0.00226903 0)
(2.34066 0.0152523 0)
(1.35375 -0.111751 0)
(10.1614 0.83542 0)
(9.52025 0.877444 0)
(9.08075 0.496114 0)
(7.84224 0.26457 0)
(7.76989 0.141433 0)
(6.68073 0.0803597 0)
(7.07384 0.0455311 0)
(5.98513 0.0531886 0)
(6.66803 0.0203065 0)
(5.6035 0.0138361 0)
(6.441 0.0225661 0)
(5.31697 0.0224657 0)
(6.32277 0.00409026 0)
(5.10186 0.0187292 0)
(6.24901 0.0112296 0)
(4.86271 0.017732 0)
(6.24792 0.00495021 0)
(4.62657 -0.00564232 0)
(6.34057 0.059646 0)
(4.20185 -0.108785 0)
(10.3527 0.634954 0)
(10.2677 0.877809 0)
(11.3462 0.577839 0)
(10.1845 0.379888 0)
(11.0182 0.261981 0)
(9.46247 0.191465 0)
(10.5187 0.142484 0)
(8.7598 0.141192 0)
(10.1069 0.0762353 0)
(8.26821 0.0588571 0)
(9.81588 0.0679592 0)
(7.8535 0.0510434 0)
(9.67336 0.0261668 0)
(7.52732 0.0409048 0)
(9.60311 0.0364529 0)
(7.18738 0.0313129 0)
(9.62797 0.0238554 0)
(6.88899 0.00461884 0)
(9.67184 0.0690515 0)
(6.61855 -0.106544 0)
(10.7541 0.471262 0)
(9.72878 0.716515 0)
(12.0509 0.504635 0)
(10.4632 0.369441 0)
(12.5467 0.270189 0)
(10.4129 0.218364 0)
(12.5366 0.187821 0)
(10.1884 0.201936 0)
(12.4928 0.118407 0)
(9.89996 0.0967939 0)
(12.399 0.12178 0)
(9.60625 0.0834222 0)
(12.3345 0.0588085 0)
(9.29468 0.0639577 0)
(12.3229 0.0742156 0)
(9.0159 0.0443556 0)
(12.3515 0.0427991 0)
(8.8502 0.0266223 0)
(12.2854 0.0588115 0)
(8.82983 -0.0871523 0)
(11.5597 0.361719 0)
(8.99255 0.586627 0)
(12.4411 0.388445 0)
(10.0158 0.32533 0)
(13.2521 0.22759 0)
(10.3297 0.198804 0)
(13.313 0.148032 0)
(10.4074 0.201954 0)
(13.6713 0.118116 0)
(10.3999 0.0951563 0)
(13.8164 0.135172 0)
(10.4435 0.0927476 0)
(13.8778 0.0690452 0)
(10.3262 0.0753556 0)
(13.8746 0.0733453 0)
(10.4043 0.0798376 0)
(13.854 0.00478288 0)
(10.6027 0.1024 0)
(13.6597 -0.00609716 0)
(10.8711 -0.0147663 0)
(11.6352 0.230958 0)
(9.08872 0.52197 0)
(12.249 0.25699 0)
(9.82299 0.253226 0)
(13.0943 0.155117 0)
(10.579 0.217646 0)
(13.1785 0.108669 0)
(10.4433 0.153114 0)
(13.6501 0.0714229 0)
(10.6269 0.0773262 0)
(13.7846 0.0972974 0)
(10.9998 0.101072 0)
(13.8869 0.0468673 0)
(11.1737 0.105206 0)
(13.6571 0.00846691 0)
(11.4629 0.105943 0)
(13.5979 -0.0728336 0)
(11.7939 0.152114 0)
(13.463 -0.0363623 0)
(12.1663 0.0444491 0)
(10.8401 0.0935263 0)
(9.81778 0.444291 0)
(11.5169 0.224499 0)
(10.0296 0.208602 0)
(12.2947 0.0155311 0)
(11.0065 0.202178 0)
(12.4646 0.108389 0)
(10.8193 0.130195 0)
(12.8886 0.0165733 0)
(10.9415 0.0864804 0)
(12.8615 0.0141047 0)
(11.4797 0.0945092 0)
(13.0192 -0.0129453 0)
(11.7738 0.173158 0)
(12.6987 -0.0456832 0)
(11.9756 0.138221 0)
(12.7104 -0.144532 0)
(12.1383 0.19561 0)
(12.6637 -0.0797043 0)
(12.4198 0.176185 0)
(10.263 -0.00731541 0)
(10.1847 0.351729 0)
(10.8965 0.215395 0)
(10.3982 0.160019 0)
(11.9223 -0.0957614 0)
(11.1978 0.201318 0)
(11.9732 0.0849233 0)
(11.2479 0.0977133 0)
(12.3372 -0.0118623 0)
(11.1428 0.119595 0)
(12.2875 -0.0517318 0)
(11.8242 0.0868505 0)
(12.3974 -0.0549526 0)
(12.0148 0.207184 0)
(12.2168 -0.0669913 0)
(12.1054 0.128355 0)
(12.2844 -0.137196 0)
(12.1722 0.200807 0)
(12.3247 -0.0634089 0)
(12.3752 0.127597 0)
(10.0275 -0.0700955 0)
(10.0983 0.280953 0)
(10.5378 0.188404 0)
(10.8922 0.024226 0)
(11.9262 -0.164184 0)
(11.1341 0.209076 0)
(11.6825 0.0558944 0)
(11.3638 0.0586156 0)
(12.0501 0.00436466 0)
(11.3146 0.104144 0)
(12.1949 -0.13752 0)
(12.0211 0.0494603 0)
(12.0307 -0.0437706 0)
(11.9613 0.187229 0)
(11.9787 -0.0246234 0)
(12.1081 0.0716318 0)
(12.1836 -0.100054 0)
(12.3288 0.0979159 0)
(12.4655 -0.0449372 0)
(12.3284 -0.0924429 0)
(9.84794 -0.0670523 0)
(9.90415 0.185017 0)
(10.7904 0.0340574 0)
(11.2726 -0.135016 0)
(11.51 -0.102382 0)
(10.7848 0.272987 0)
(11.6683 0.00220508 0)
(11.5203 -0.0137382 0)
(12.0166 -0.0193237 0)
(11.5498 0.0655988 0)
(12.0904 -0.174423 0)
(11.7686 0.0858071 0)
(11.6336 0.00452712 0)
(12.0558 0.156249 0)
(12.1154 -0.0390894 0)
(12.4183 0.000622899 0)
(12.3069 -0.112703 0)
(12.4355 0.0235819 0)
(12.3651 -0.0310299 0)
(12.0343 -0.0822348 0)
(9.64054 -0.0310553 0)
(10.2126 -0.0261971 0)
(10.9846 -0.129289 0)
(11.1044 -0.121699 0)
(10.8771 0.0199883 0)
(10.9184 0.179951 0)
(11.8579 -0.126413 0)
(11.707 -0.0541105 0)
(11.7835 -0.011773 0)
(11.5903 0.0591938 0)
(11.9878 -0.135577 0)
(11.6866 0.122277 0)
(11.6769 -0.0652149 0)
(12.3484 0.0168447 0)
(12.2744 -0.0547388 0)
(12.3867 -0.0352269 0)
(12.1584 -0.0591603 0)
(12.1978 0.0133142 0)
(12.0727 0.0125998 0)
(11.8773 -0.0447839 0)
(9.53166 -0.0420354 0)
(10.611 -0.232297 0)
(10.6931 -0.170403 0)
(10.9224 -0.0776457 0)
(10.7918 0.0181635 0)
(11.4779 0.0190696 0)
(11.7636 -0.202204 0)
(11.7331 -0.0255389 0)
(11.5701 0.00248421 0)
(11.7605 -0.00551554 0)
(12.0471 -0.145619 0)
(11.8954 0.112819 0)
(11.8987 -0.118811 0)
(12.3672 -0.0496353 0)
(12.1951 -0.00383011 0)
(12.3085 -0.0359887 0)
(12.1815 -0.0283079 0)
(12.2919 -0.00464828 0)
(12.2474 -0.019988 0)
(12.1996 -0.0330304 0)
(9.6807 -0.0810737 0)
(10.647 -0.381037 0)
(10.4221 -0.170032 0)
(10.9003 -0.124239 0)
(11.093 -0.0554982 0)
(11.8203 -0.0804759 0)
(11.5532 -0.188136 0)
(11.7735 -0.0328028 0)
(11.6603 -0.0281727 0)
(11.9427 -0.0796353 0)
(11.9581 -0.119186 0)
(12.0066 0.109469 0)
(12.0946 -0.133762 0)
(12.3551 -0.103078 0)
(12.2125 0.0101366 0)
(12.4035 -0.0808199 0)
(12.3472 -0.0369556 0)
(12.5434 -0.0341037 0)
(12.5537 -0.0582452 0)
(12.5203 -0.058719 0)
(9.9765 -0.148056 0)
(10.4608 -0.475325 0)
(10.5092 -0.193271 0)
(10.9743 -0.214941 0)
(11.4515 -0.149213 0)
(11.7208 -0.115076 0)
(11.5085 -0.188041 0)
(11.8006 -0.0719024 0)
(11.8471 -0.0595819 0)
(11.8899 -0.0881991 0)
(11.9543 -0.115623 0)
(12.1247 0.0379108 0)
(12.2281 -0.163021 0)
(12.2939 -0.121145 0)
(12.304 0.0145674 0)
(12.4374 -0.114669 0)
(12.3983 -0.053302 0)
(12.5928 -0.0818686 0)
(12.6346 -0.10034 0)
(12.5087 -0.103714 0)
(10.1355 -0.236219 0)
(10.3578 -0.55439 0)
(10.6912 -0.252682 0)
(11.1632 -0.299608 0)
(11.6591 -0.202436 0)
(11.6235 -0.117579 0)
(11.6199 -0.214968 0)
(11.8096 -0.120791 0)
(11.9098 -0.0774624 0)
(11.8917 -0.114683 0)
(12.1411 -0.145322 0)
(12.2 -0.00066606 0)
(12.2448 -0.147368 0)
(12.2132 -0.141188 0)
(12.3204 -0.00625368 0)
(12.2767 -0.129512 0)
(12.3285 -0.0776865 0)
(12.4562 -0.120946 0)
(12.4644 -0.116102 0)
(12.2686 -0.135106 0)
(10.171 -0.343558 0)
(10.3049 -0.625349 0)
(10.9705 -0.360349 0)
(11.4172 -0.367918 0)
(11.6444 -0.237802 0)
(11.621 -0.129235 0)
(11.7377 -0.249837 0)
(11.8037 -0.153305 0)
(11.9217 -0.0988257 0)
(11.8438 -0.1464 0)
(12.0097 -0.163998 0)
(11.9389 -0.0228685 0)
(11.9723 -0.137392 0)
(11.8133 -0.147658 0)
(11.9849 -0.0127444 0)
(11.7641 -0.120017 0)
(11.8702 -0.0981097 0)
(11.7974 -0.136489 0)
(11.7491 -0.111595 0)
(11.4925 -0.166114 0)
(10.1208 -0.453888 0)
(10.451 -0.74208 0)
(11.2227 -0.497253 0)
(11.3955 -0.397464 0)
(11.4437 -0.266259 0)
(11.4924 -0.18065 0)
(11.378 -0.258098 0)
(11.2715 -0.170061 0)
(11.2774 -0.111651 0)
(11.0335 -0.137065 0)
(11.0123 -0.140606 0)
(10.8789 -0.0304482 0)
(10.8288 -0.105158 0)
(10.5352 -0.122195 0)
(10.7122 -0.0177386 0)
(10.3589 -0.0952653 0)
(10.4494 -0.0831635 0)
(10.2047 -0.113985 0)
(10.1734 -0.0824389 0)
(9.84352 -0.172071 0)
(10.1372 -0.631475 0)
(10.5739 -0.886687 0)
(10.9272 -0.57762 0)
(10.6476 -0.384746 0)
(10.3814 -0.265871 0)
(10.1477 -0.170466 0)
(9.72657 -0.184504 0)
(9.47282 -0.12357 0)
(9.30388 -0.0671951 0)
(8.98689 -0.0776007 0)
(8.8666 -0.0874464 0)
(8.71939 -0.0118819 0)
(8.61933 -0.0537625 0)
(8.34241 -0.0783727 0)
(8.46349 -0.0072389 0)
(8.1256 -0.0487084 0)
(8.19503 -0.0583805 0)
(7.91427 -0.0692438 0)
(7.8975 -0.0606251 0)
(7.55926 -0.0987918 0)
(10.1161 -0.838013 0)
(9.61085 -0.878348 0)
(8.89367 -0.496837 0)
(8.04595 -0.262162 0)
(7.4537 -0.148521 0)
(7.03895 -0.0655196 0)
(6.62296 -0.0671447 0)
(6.37678 -0.0478294 0)
(6.20757 -0.0110548 0)
(6.00246 -0.0229396 0)
(5.88837 -0.039191 0)
(5.78787 0.00376751 0)
(5.72315 -0.0159856 0)
(5.52988 -0.0416555 0)
(5.57771 0.00214989 0)
(5.36489 -0.0178686 0)
(5.3919 -0.0308685 0)
(5.16523 -0.0320172 0)
(5.15217 -0.0316377 0)
(4.86437 -0.0254737 0)
(8.09515 -0.387399 0)
(5.43536 -0.243952 0)
(3.90781 -0.040483 0)
(3.15087 0.0163428 0)
(2.78417 0.0130728 0)
(2.59974 0.0174127 0)
(2.466 0.00247829 0)
(2.36073 -0.00114754 0)
(2.30511 0.00723579 0)
(2.26262 0.000498427 0)
(2.20151 -0.00681046 0)
(2.16161 0.00569713 0)
(2.15913 0.00146311 0)
(2.0727 -0.0084777 0)
(2.06672 0.00507038 0)
(2.01242 -0.000174489 0)
(2.00314 -0.00421888 0)
(1.89868 -0.00348844 0)
(1.86853 -0.00250429 0)
(1.72181 0.0107192 0)
(2.6719 -0.102617 0)
(2.19595 0.0146984 0)
(2.83051 0.0331951 0)
(2.28077 0.0693811 0)
(3.04095 0.0553257 0)
(2.44437 0.0762609 0)
(3.32164 0.0422251 0)
(2.66734 0.0474187 0)
(3.58793 -0.00856716 0)
(2.8338 0.00282919 0)
(3.77864 -0.0373767 0)
(2.93123 -0.00204426 0)
(3.94323 -0.0292599 0)
(3.03163 0.0120722 0)
(4.15735 -0.0132968 0)
(3.19812 0.0263573 0)
(4.42254 -0.0196758 0)
(3.39269 0.00459355 0)
(4.67159 -0.0763536 0)
(3.59113 -0.0684163 0)
(4.9113 -0.170713 0)
(3.7758 -0.173989 0)
(5.09808 -0.296405 0)
(3.90076 -0.306209 0)
(5.19681 -0.430612 0)
(3.93515 -0.415918 0)
(5.17369 -0.524226 0)
(3.84503 -0.466044 0)
(4.99932 -0.568493 0)
(3.59715 -0.467476 0)
(4.6751 -0.582844 0)
(3.32466 -0.391888 0)
(4.3825 -0.46658 0)
(3.25582 -0.140555 0)
(4.53588 -0.0971535 0)
(3.50007 0.373558 0)
(5.19476 0.525113 0)
(3.97481 0.939093 0)
(6.13313 1.20873 0)
(4.48682 1.64323 0)
(7.15744 2.16916 0)
(5.48647 2.5304 0)
(8.27745 2.66241 0)
(6.87218 2.48374 0)
(9.09961 2.0723 0)
(7.90245 1.34485 0)
(9.35052 0.427538 0)
(8.10167 -0.385057 0)
(9.38966 -1.19651 0)
(8.15446 -1.93206 0)
(9.45823 -2.69388 0)
(8.30167 -3.38907 0)
(9.59473 -4.37086 0)
(8.02804 -4.83444 0)
(9.76954 -4.73055 0)
(7.62254 -4.40781 0)
(9.08389 -3.83688 0)
(7.28216 -2.75679 0)
(8.81622 -1.96351 0)
(6.75095 -1.20195 0)
(8.62674 -0.351007 0)
(7.18273 0.491775 0)
(8.91541 0.892145 0)
(6.98158 1.29823 0)
(8.73407 1.62564 0)
(7.18563 2.00886 0)
(8.93293 2.26601 0)
(7.4129 2.51922 0)
(8.92015 2.57876 0)
(7.60421 2.73663 0)
(9.27216 2.61094 0)
(8.48722 2.47303 0)
(9.79062 2.29022 0)
(9.15896 1.93744 0)
(10.2257 1.36895 0)
(9.49883 0.857635 0)
(10.2503 0.197552 0)
(9.90024 -0.29578 0)
(10.5738 -0.838982 0)
(10.2008 -1.35139 0)
(10.4711 -2.00524 0)
(10.0446 -2.5863 0)
(10.2976 -2.93983 0)
(9.57782 -3.113 0)
(9.76444 -3.17619 0)
(9.0707 -3.29226 0)
(9.05313 -3.23681 0)
(8.49083 -3.11775 0)
(8.47589 -3.14197 0)
(7.6987 -3.08739 0)
(7.50033 -3.22751 0)
(6.98431 -3.0849 0)
(6.9377 -2.69969 0)
(6.47413 -2.25083 0)
(6.18372 -1.82961 0)
(5.60142 -1.19409 0)
(5.5852 -0.162077 0)
(5.61805 0.700262 0)
(4.92971 0.642119 0)
(3.83364 0.600814 0)
(3.58226 1.09704 0)
(3.65692 1.90752 0)
(3.94518 2.4748 0)
(3.98651 2.86089 0)
(4.24901 2.97493 0)
(4.29094 3.01568 0)
(4.62586 3.01906 0)
(4.84916 2.99713 0)
(5.00035 2.88639 0)
(5.43807 2.84549 0)
(5.64246 2.82086 0)
(6.02787 2.64951 0)
(6.41515 2.51158 0)
(6.82837 2.28652 0)
(7.27066 2.0023 0)
(7.81032 1.64035 0)
(8.12157 1.11294 0)
(8.51473 0.613822 0)
(8.74079 0.139299 0)
(9.07305 -0.32715 0)
(9.19624 -0.7803 0)
(9.79696 -1.52454 0)
(10.0892 -2.29167 0)
(10.5427 -2.85164 0)
(10.6566 -3.13002 0)
(10.5568 -3.28045 0)
(10.784 -3.18357 0)
(10.8052 -3.26139 0)
(11.3036 -3.36533 0)
(11.673 -3.68335 0)
(12.4653 -4.19678 0)
(13.0932 -4.57904 0)
(13.698 -5.10147 0)
(14.2105 -5.40912 0)
(14.5574 -5.64335 0)
(14.9167 -5.74588 0)
(14.9174 -5.62173 0)
(15.0502 -5.35637 0)
(14.9525 -4.98297 0)
(15.0064 -4.49103 0)
(14.9895 -4.03504 0)
(14.8246 -3.59458 0)
(14.486 -2.98144 0)
(13.8959 -2.35952 0)
(13.6696 -1.51342 0)
(12.9486 -0.836663 0)
(12.46 -0.102539 0)
(11.835 0.278645 0)
(11.2193 0.608844 0)
(10.3455 1.05715 0)
(9.75069 1.31072 0)
(9.16262 1.0538 0)
(8.67945 1.00179 0)
(8.38855 1.10361 0)
(8.00177 0.715949 0)
(7.53731 0.185693 0)
(6.89057 0.137164 0)
(6.3882 0.575203 0)
(6.07636 0.693413 0)
(5.77935 0.401075 0)
(5.79065 -0.270791 0)
(5.45231 -0.585607 0)
(5.92431 -0.212807 0)
(5.75248 0.875441 0)
(6.32652 2.74741 0)
(6.12998 4.93247 0)
(6.38156 6.74413 0)
(6.37581 8.02493 0)
(5.9149 8.34331 0)
(5.89277 8.3529 0)
(5.55517 8.82993 0)
(5.40359 8.31863 0)
(5.11716 7.68434 0)
(4.93978 8.18681 0)
(7.0067 6.32834 0)
(1.87793 7.06146 0)
(9.89394 4.15465 0)
(2.41576 6.13412 0)
(10.2128 1.92408 0)
(3.5153 4.69553 0)
(10.0575 0.524958 0)
(4.0824 3.21999 0)
(10.0936 -0.523501 0)
(4.60301 1.58087 0)
(9.862 -2.13627 0)
(4.69914 -0.22935 0)
(9.7366 -2.93095 0)
(4.832 -0.420501 0)
(9.32472 -3.01796 0)
(3.65293 -0.478747 0)
(8.3908 -3.04014 0)
(2.94278 0.102064 0)
(7.97327 -3.72321 0)
(2.28328 -0.926158 0)
(7.35582 -4.74083 0)
(3.04725 -0.927278 0)
(7.47994 -4.06531 0)
(4.07927 -0.160062 0)
(7.92025 -1.42678 0)
(5.57662 3.38722 0)
(5.9153 -0.0875357 0)
(5.12427 0.0256179 0)
(5.92005 0.0528898 0)
(5.01017 0.0782808 0)
(5.99711 0.0295497 0)
(5.04029 0.0254461 0)
(6.1795 -0.0278671 0)
(5.15176 -0.0179769 0)
(6.37974 -0.0655226 0)
(5.25091 -0.0472249 0)
(6.55174 -0.0869946 0)
(5.32129 -0.0552427 0)
(6.70847 -0.0886669 0)
(5.40496 -0.0462459 0)
(6.89328 -0.0868988 0)
(5.53436 -0.0554439 0)
(7.11665 -0.118628 0)
(5.69491 -0.102733 0)
(7.3535 -0.176804 0)
(5.86475 -0.173594 0)
(7.5837 -0.26328 0)
(6.01501 -0.265508 0)
(7.77251 -0.361536 0)
(6.11652 -0.35794 0)
(7.89289 -0.454101 0)
(6.13838 -0.426525 0)
(7.92475 -0.497249 0)
(6.06272 -0.431333 0)
(7.86442 -0.476628 0)
(5.87859 -0.364894 0)
(7.68696 -0.357555 0)
(5.49483 -0.199058 0)
(7.30453 -0.153668 0)
(4.83968 -0.0216668 0)
(6.86537 0.0144607 0)
(4.29657 0.173873 0)
(6.73261 0.32924 0)
(4.2977 0.576001 0)
(7.04411 0.879934 0)
(4.95461 1.16514 0)
(7.58343 1.57611 0)
(6.21994 2.02345 0)
(8.59963 2.26454 0)
(7.86675 2.12326 0)
(9.54948 1.60055 0)
(8.98783 1.10659 0)
(10.2167 0.438391 0)
(9.55178 -0.412186 0)
(10.3349 -1.21565 0)
(9.69174 -1.87068 0)
(10.5523 -2.78745 0)
(9.81473 -3.63239 0)
(11.0194 -4.14891 0)
(9.57002 -4.56473 0)
(10.37 -4.51326 0)
(8.72107 -3.96021 0)
(9.58007 -3.56216 0)
(7.57098 -2.71491 0)
(9.18223 -1.7199 0)
(7.29442 -0.999181 0)
(8.85394 -0.623433 0)
(7.34111 0.0931147 0)
(9.27686 0.842548 0)
(7.9287 1.43993 0)
(9.47634 1.55342 0)
(7.95106 1.78596 0)
(9.37736 2.05472 0)
(8.35618 2.37858 0)
(9.75123 2.53844 0)
(8.93501 2.68719 0)
(10.1681 2.54743 0)
(9.47136 2.34266 0)
(10.4355 1.82197 0)
(10.1103 1.46259 0)
(10.7384 1.15652 0)
(10.3288 0.711033 0)
(10.9284 0.0065306 0)
(10.6251 -0.632632 0)
(11.1164 -0.933626 0)
(10.9109 -1.28158 0)
(11.2977 -1.8483 0)
(10.9559 -2.3461 0)
(10.9134 -2.66072 0)
(10.4353 -2.92894 0)
(10.4407 -3.04641 0)
(9.89189 -3.00732 0)
(9.82496 -3.0092 0)
(9.20574 -2.90004 0)
(9.2498 -2.83865 0)
(8.6425 -2.96606 0)
(8.70076 -2.96351 0)
(7.97099 -2.78716 0)
(7.74642 -2.5326 0)
(7.23431 -1.85999 0)
(7.11409 -1.42339 0)
(6.3694 -0.939148 0)
(6.28983 -0.230253 0)
(6.12119 0.645989 0)
(6.25282 1.17954 0)
(5.38464 1.34389 0)
(4.81994 1.27791 0)
(4.34996 1.65246 0)
(4.72229 2.2007 0)
(4.88994 2.74001 0)
(5.30573 3.00789 0)
(5.47477 3.11196 0)
(5.56799 2.98406 0)
(5.81172 2.88119 0)
(5.86631 2.72609 0)
(6.0884 2.56657 0)
(6.43476 2.47339 0)
(6.64511 2.37223 0)
(7.07263 2.12176 0)
(7.51563 1.92293 0)
(7.85773 1.65158 0)
(8.31185 1.22948 0)
(8.71514 0.756854 0)
(9.04038 0.372178 0)
(9.34028 -0.0495187 0)
(9.72151 -0.551866 0)
(10.0686 -1.16451 0)
(10.7476 -1.8769 0)
(10.9679 -2.50542 0)
(11.2186 -2.95879 0)
(11.125 -3.14695 0)
(11.1876 -3.28987 0)
(11.2292 -3.29572 0)
(11.5312 -3.58445 0)
(12.0607 -3.84389 0)
(12.5948 -4.23977 0)
(13.49 -4.7203 0)
(13.8605 -5.14507 0)
(14.6548 -5.5119 0)
(14.9416 -5.85362 0)
(15.4504 -5.91369 0)
(15.5752 -5.87766 0)
(15.667 -5.75027 0)
(15.805 -5.35547 0)
(15.6608 -5.11538 0)
(15.9562 -4.51927 0)
(15.5804 -3.97484 0)
(15.2541 -3.3294 0)
(14.8115 -2.63223 0)
(14.421 -1.89334 0)
(14.0173 -1.10566 0)
(13.4321 -0.365133 0)
(12.8632 0.311451 0)
(12.1282 0.782013 0)
(11.3422 1.20333 0)
(10.5316 1.67607 0)
(10.1017 1.79605 0)
(9.48822 1.53551 0)
(9.04078 1.45113 0)
(8.54409 1.31304 0)
(8.28739 0.92108 0)
(7.63386 0.501979 0)
(7.21431 0.668352 0)
(6.65255 0.912996 0)
(6.53448 1.0327 0)
(6.20592 0.548883 0)
(5.99833 -0.105221 0)
(5.91514 -0.561011 0)
(5.86858 -0.419773 0)
(6.21219 0.731038 0)
(6.26512 2.48045 0)
(6.69044 4.76315 0)
(6.64133 6.71638 0)
(6.88337 7.93708 0)
(6.77439 8.64352 0)
(6.50333 8.5252 0)
(6.20866 8.51737 0)
(6.19628 9.16176 0)
(7.03071 7.24818 0)
(3.70116 8.36762 0)
(10.2083 5.82871 0)
(2.64621 7.43589 0)
(10.7849 3.23787 0)
(3.5539 5.80323 0)
(10.7354 1.96239 0)
(4.19155 4.64494 0)
(10.6126 1.02252 0)
(4.52448 2.94326 0)
(10.477 -0.431224 0)
(4.58085 1.45428 0)
(10.0678 -1.94082 0)
(4.13233 0.0190319 0)
(9.42246 -2.74245 0)
(3.49493 0.359731 0)
(8.58783 -3.00016 0)
(2.13037 0.659712 0)
(7.58213 -3.63194 0)
(2.13069 0.717552 0)
(7.0935 -3.97667 0)
(2.49976 -0.26273 0)
(6.49785 -4.93021 0)
(3.12302 -1.06416 0)
(7.03149 -4.50703 0)
(4.30939 0.147356 0)
(7.13845 -2.77467 0)
(6.24125 2.33046 0)
(8.82322 -0.108957 0)
(7.77132 -0.00429831 0)
(8.79603 0.0210104 0)
(7.62284 0.0500052 0)
(8.81454 -0.00221431 0)
(7.63165 -0.0122683 0)
(8.96786 -0.073603 0)
(7.72151 -0.0653195 0)
(9.12882 -0.112236 0)
(7.78251 -0.091062 0)
(9.25426 -0.13326 0)
(7.83023 -0.106575 0)
(9.37512 -0.140219 0)
(7.89421 -0.111759 0)
(9.51424 -0.150281 0)
(7.99289 -0.131933 0)
(9.68065 -0.185942 0)
(8.12194 -0.174364 0)
(9.85303 -0.243977 0)
(8.2571 -0.236263 0)
(10.0102 -0.321978 0)
(8.37545 -0.316766 0)
(10.1256 -0.399478 0)
(8.44057 -0.392232 0)
(10.1779 -0.459115 0)
(8.42913 -0.440128 0)
(10.1604 -0.473487 0)
(8.34506 -0.419541 0)
(10.0618 -0.406128 0)
(8.15074 -0.316522 0)
(9.84837 -0.257028 0)
(7.85716 -0.106444 0)
(9.56925 0.00536092 0)
(7.46689 0.178392 0)
(9.19168 0.302827 0)
(7.06831 0.425492 0)
(8.63973 0.513241 0)
(6.59383 0.624352 0)
(8.23124 0.66052 0)
(6.60686 0.881347 0)
(8.1763 1.18444 0)
(7.39289 1.4337 0)
(8.88759 1.39787 0)
(8.80309 1.48083 0)
(10.0656 1.3068 0)
(10.0267 0.760486 0)
(10.7513 -0.00592722 0)
(10.7534 -0.511813 0)
(11.2533 -1.2941 0)
(11.1226 -2.14616 0)
(11.8481 -2.82618 0)
(11.3582 -3.52206 0)
(11.6332 -4.16351 0)
(10.8499 -4.36324 0)
(10.8703 -4.25534 0)
(9.37331 -3.50428 0)
(9.85556 -2.79729 0)
(8.12051 -2.38565 0)
(9.13525 -1.84426 0)
(7.9499 -0.912174 0)
(8.99981 -0.3283 0)
(7.50222 0.0842039 0)
(8.94118 0.488657 0)
(8.20731 1.1146 0)
(9.67689 1.56452 0)
(8.81264 1.93838 0)
(9.79509 2.02734 0)
(9.00428 2.16903 0)
(10.028 2.25038 0)
(9.6233 2.33746 0)
(10.5482 2.26077 0)
(10.3824 2.14662 0)
(11.1782 1.81071 0)
(10.9567 1.52694 0)
(11.4317 1.12127 0)
(11.2885 0.569145 0)
(11.4931 -0.0385054 0)
(11.4732 -0.459443 0)
(11.5819 -1.04076 0)
(11.4592 -1.53907 0)
(11.6566 -1.87607 0)
(11.239 -2.43449 0)
(11.2662 -2.77898 0)
(11.0487 -2.70132 0)
(10.8518 -2.73662 0)
(10.2999 -2.84126 0)
(10.4098 -2.74315 0)
(9.96288 -2.66861 0)
(9.87569 -2.69607 0)
(9.42881 -2.55391 0)
(9.18919 -2.62732 0)
(8.64323 -2.53385 0)
(8.53818 -2.27327 0)
(8.04942 -1.77929 0)
(7.9967 -1.18517 0)
(7.31227 -0.509166 0)
(7.07068 -0.00663081 0)
(6.5655 0.580115 0)
(6.81063 1.16018 0)
(6.58303 1.73862 0)
(6.38655 1.91856 0)
(5.58722 1.97576 0)
(5.4168 1.99605 0)
(5.40984 2.29166 0)
(5.80735 2.52156 0)
(6.19264 2.8068 0)
(6.53257 2.85218 0)
(6.84202 2.81693 0)
(7.16278 2.76324 0)
(7.16736 2.57538 0)
(7.55113 2.30261 0)
(7.6905 2.23093 0)
(8.04249 1.9077 0)
(8.34079 1.58717 0)
(8.75434 1.32665 0)
(9.07895 0.912472 0)
(9.52991 0.486884 0)
(9.79227 0.0591503 0)
(10.2437 -0.394757 0)
(10.5693 -0.892763 0)
(11.1014 -1.55921 0)
(11.4039 -2.18993 0)
(11.5071 -2.68732 0)
(11.5425 -2.98487 0)
(11.4113 -3.14752 0)
(11.607 -3.33086 0)
(11.6722 -3.55069 0)
(12.3785 -3.93085 0)
(12.8731 -4.39201 0)
(13.5966 -4.80202 0)
(14.1622 -5.28097 0)
(14.7334 -5.66771 0)
(15.2905 -5.93486 0)
(15.5459 -6.20069 0)
(16.0042 -6.13086 0)
(15.9988 -6.09235 0)
(16.3384 -5.78051 0)
(16.3537 -5.45093 0)
(16.365 -5.1255 0)
(16.199 -4.42559 0)
(15.7969 -3.77875 0)
(15.6326 -2.98908 0)
(15.0317 -2.38737 0)
(14.6704 -1.62024 0)
(14.1511 -0.792436 0)
(13.7251 0.208943 0)
(12.9072 0.875502 0)
(12.2862 1.49994 0)
(11.3754 1.82541 0)
(10.8828 2.21413 0)
(10.2846 2.18369 0)
(9.79934 1.92064 0)
(9.25774 1.71103 0)
(9.13907 1.68695 0)
(8.67543 1.42982 0)
(8.11158 1.06355 0)
(7.45328 1.02901 0)
(7.12017 1.21482 0)
(6.68639 1.23519 0)
(6.43889 0.830588 0)
(6.04263 0.145411 0)
(5.99131 -0.509021 0)
(5.97934 -0.415817 0)
(6.27426 0.446479 0)
(6.47828 2.32967 0)
(6.84653 4.50063 0)
(7.04077 6.7453 0)
(7.26452 7.71354 0)
(7.02248 8.79868 0)
(7.21294 8.9525 0)
(7.20074 8.19958 0)
(5.67357 9.27515 0)
(10.2196 7.59149 0)
(3.05379 8.66196 0)
(11.7861 5.10717 0)
(3.77728 7.53314 0)
(11.2885 3.27392 0)
(4.28238 5.86715 0)
(10.9475 1.70282 0)
(4.85895 4.51007 0)
(10.7613 0.965431 0)
(5.3054 2.80597 0)
(10.6299 -0.303499 0)
(5.09619 1.5152 0)
(10.1841 -1.36155 0)
(4.25565 0.200201 0)
(9.25477 -2.15387 0)
(3.25279 0.561989 0)
(8.54622 -1.75919 0)
(2.0616 0.663569 0)
(7.88405 -2.43971 0)
(2.04041 0.0961862 0)
(8.03053 -2.70863 0)
(3.34071 -0.693784 0)
(7.87425 -3.79461 0)
(4.35882 -1.0382 0)
(7.62155 -3.724 0)
(5.03756 -0.191794 0)
(7.97998 -1.22065 0)
(5.63269 1.06179 0)
(11.2365 -0.100205 0)
(10.1182 -0.00145153 0)
(11.1525 -0.00335229 0)
(9.95832 0.0251232 0)
(11.0985 -0.0395651 0)
(9.96745 -0.0357135 0)
(11.2083 -0.106763 0)
(10.0624 -0.0835921 0)
(11.3228 -0.140831 0)
(10.121 -0.110755 0)
(11.3897 -0.165162 0)
(10.1637 -0.134023 0)
(11.4519 -0.184631 0)
(10.2235 -0.146523 0)
(11.5274 -0.201051 0)
(10.3101 -0.168638 0)
(11.623 -0.23517 0)
(10.4114 -0.210707 0)
(11.7144 -0.287162 0)
(10.4947 -0.273501 0)
(11.7876 -0.357796 0)
(10.5499 -0.344822 0)
(11.8237 -0.425261 0)
(10.555 -0.408382 0)
(11.7999 -0.460338 0)
(10.4929 -0.436884 0)
(11.708 -0.454848 0)
(10.3932 -0.384866 0)
(11.5601 -0.361926 0)
(10.1996 -0.230814 0)
(11.3835 -0.17221 0)
(10.0493 -0.0135514 0)
(11.121 0.155325 0)
(9.84161 0.314084 0)
(10.8783 0.352929 0)
(9.66502 0.642006 0)
(10.4469 0.720942 0)
(9.47668 0.75439 0)
(10.0959 0.886797 0)
(9.24563 1.11581 0)
(9.72274 0.930913 0)
(9.48085 1.06227 0)
(10.1398 1.22204 0)
(10.2927 1.06667 0)
(10.8913 0.585912 0)
(11.4258 0.364917 0)
(11.8854 -0.101909 0)
(12.0622 -0.865264 0)
(12.603 -1.5452 0)
(12.7096 -2.17618 0)
(12.7276 -2.94989 0)
(12.7222 -3.56078 0)
(12.4906 -3.91671 0)
(11.4435 -3.72275 0)
(10.9238 -3.35496 0)
(9.75766 -3.05153 0)
(9.81212 -2.59189 0)
(8.75691 -1.93776 0)
(8.96661 -1.44953 0)
(8.10682 -0.829881 0)
(8.92471 -0.232229 0)
(8.10667 0.204495 0)
(8.69966 0.397078 0)
(7.99462 0.744506 0)
(9.13414 1.1478 0)
(9.01297 1.66351 0)
(9.97519 1.96678 0)
(9.74034 2.12141 0)
(10.4606 2.07614 0)
(10.2609 2.10356 0)
(10.8892 2.04984 0)
(10.7819 1.85597 0)
(11.1711 1.34205 0)
(11.3371 1.14279 0)
(11.8583 1.095 0)
(11.7779 0.705169 0)
(11.8904 -0.0324975 0)
(11.8206 -0.696975 0)
(11.9996 -0.911582 0)
(11.742 -1.32006 0)
(11.694 -1.93398 0)
(11.7491 -2.07471 0)
(11.6216 -2.24332 0)
(11.0104 -2.53759 0)
(11.1303 -2.57075 0)
(10.8501 -2.55442 0)
(10.6753 -2.63272 0)
(10.4568 -2.44234 0)
(10.3802 -2.35457 0)
(9.90818 -2.40922 0)
(9.86559 -2.3633 0)
(9.49841 -2.23463 0)
(9.26953 -1.94897 0)
(8.74837 -1.34913 0)
(8.53973 -0.76414 0)
(7.91149 -0.20812 0)
(7.7053 0.293103 0)
(7.23963 0.868845 0)
(7.2667 1.28336 0)
(7.01607 1.76641 0)
(7.10103 2.05356 0)
(6.83625 2.29622 0)
(6.71907 2.3362 0)
(6.43979 2.37184 0)
(6.48572 2.30833 0)
(6.62808 2.40697 0)
(6.99437 2.43345 0)
(7.18898 2.38602 0)
(7.73886 2.41015 0)
(7.93357 2.33913 0)
(8.33087 2.09241 0)
(8.57318 1.97633 0)
(8.97272 1.72792 0)
(9.21851 1.3966 0)
(9.68188 1.12061 0)
(9.9805 0.706029 0)
(10.3409 0.330726 0)
(10.6182 -0.169081 0)
(11.0706 -0.639826 0)
(11.2573 -1.18075 0)
(11.6482 -1.81079 0)
(11.6284 -2.25636 0)
(11.7223 -2.65051 0)
(11.6681 -2.95034 0)
(11.8072 -3.22209 0)
(12.0673 -3.5569 0)
(12.5151 -3.99262 0)
(13.1521 -4.39909 0)
(13.6478 -4.99038 0)
(14.3392 -5.32417 0)
(14.7207 -5.76252 0)
(15.364 -6.0865 0)
(15.5871 -6.2631 0)
(15.9465 -6.47856 0)
(16.2976 -6.32396 0)
(16.3647 -6.31548 0)
(16.7606 -5.95631 0)
(16.5688 -5.54613 0)
(16.4885 -4.98164 0)
(16.1757 -4.2168 0)
(15.8113 -3.44977 0)
(15.3764 -2.66713 0)
(14.8513 -1.96685 0)
(14.2826 -1.27862 0)
(13.7943 -0.396737 0)
(13.4293 0.610237 0)
(12.8096 1.51814 0)
(12.3185 2.14492 0)
(11.4383 2.43466 0)
(10.9537 2.54636 0)
(10.365 2.59485 0)
(9.93887 2.29226 0)
(9.39367 2.01814 0)
(9.29909 1.89701 0)
(8.80472 1.75912 0)
(8.36669 1.55436 0)
(7.69182 1.4212 0)
(7.28094 1.5702 0)
(6.75099 1.48936 0)
(6.37295 1.06309 0)
(6.01669 0.270181 0)
(5.98225 -0.576343 0)
(5.92312 -0.514748 0)
(6.227 0.214868 0)
(6.60421 2.06008 0)
(6.93742 4.07208 0)
(7.17939 6.64118 0)
(7.6636 7.98877 0)
(7.65013 8.21937 0)
(6.99432 9.67328 0)
(9.52313 7.86117 0)
(4.3123 9.48824 0)
(12.217 6.52039 0)
(4.42819 9.03448 0)
(11.8436 4.62406 0)
(5.07593 7.28465 0)
(11.5875 3.31751 0)
(5.64652 5.63494 0)
(11.1962 2.29166 0)
(5.65624 3.80594 0)
(10.9629 1.29314 0)
(6.08561 2.26017 0)
(10.8875 0.355452 0)
(6.00197 1.20277 0)
(10.763 -0.763739 0)
(5.70417 0.3858 0)
(10.1583 -1.67298 0)
(4.72116 0.681357 0)
(9.37821 -1.48184 0)
(4.49155 0.601687 0)
(9.05009 -2.20214 0)
(4.77163 -0.54167 0)
(9.11808 -3.2294 0)
(5.86136 -1.59009 0)
(9.5667 -3.739 0)
(5.94055 -2.63518 0)
(9.44902 -3.33262 0)
(6.32593 -1.73911 0)
(9.51717 -1.80946 0)
(7.22428 -0.280318 0)
(12.753 -0.103219 0)
(11.9179 -0.0178826 0)
(12.6395 -0.0571143 0)
(11.7806 -0.0150136 0)
(12.572 -0.0797351 0)
(11.8058 -0.049965 0)
(12.6511 -0.12036 0)
(11.8927 -0.0822655 0)
(12.7121 -0.152896 0)
(11.9259 -0.115114 0)
(12.7128 -0.1898 0)
(11.9336 -0.154501 0)
(12.7088 -0.21833 0)
(11.9503 -0.182074 0)
(12.7113 -0.238479 0)
(11.985 -0.207376 0)
(12.732 -0.271677 0)
(12.0319 -0.240333 0)
(12.7504 -0.313096 0)
(12.0593 -0.289962 0)
(12.7506 -0.369544 0)
(12.0529 -0.339937 0)
(12.7154 -0.417524 0)
(12.0037 -0.379889 0)
(12.6055 -0.441139 0)
(11.887 -0.365591 0)
(12.4607 -0.422048 0)
(11.7274 -0.320806 0)
(12.2587 -0.262825 0)
(11.5422 -0.180885 0)
(12.0787 -0.156272 0)
(11.4121 0.127771 0)
(11.8665 0.139002 0)
(11.4056 0.265933 0)
(11.8096 0.484298 0)
(11.3269 0.688612 0)
(11.7948 0.635552 0)
(11.5571 0.913667 0)
(11.6254 1.0208 0)
(11.581 0.998998 0)
(11.8488 1.04831 0)
(11.7828 1.18613 0)
(11.9691 0.932789 0)
(12.4147 0.764383 0)
(12.7289 0.566079 0)
(13.0238 0.076706 0)
(13.4263 -0.49887 0)
(13.7368 -1.01325 0)
(13.7582 -1.62219 0)
(13.8936 -2.31539 0)
(13.7575 -2.95647 0)
(13.2424 -3.19501 0)
(12.4678 -3.22609 0)
(11.5584 -3.25376 0)
(10.9733 -2.95202 0)
(10.2171 -2.41913 0)
(9.78733 -1.97768 0)
(9.20684 -1.61198 0)
(9.22724 -1.32678 0)
(8.77521 -0.885147 0)
(9.02251 -0.248407 0)
(8.66579 0.296064 0)
(8.91974 0.560688 0)
(8.46325 0.743023 0)
(8.83258 0.851323 0)
(8.83044 1.14281 0)
(9.60116 1.41164 0)
(9.8847 1.72273 0)
(10.6085 1.84552 0)
(10.8387 1.90208 0)
(11.2602 1.84549 0)
(11.389 1.71864 0)
(11.7765 1.34081 0)
(11.7825 1.01007 0)
(11.8306 0.676967 0)
(12.0996 0.421955 0)
(12.2986 -0.0302567 0)
(12.0401 -0.661322 0)
(11.9105 -1.13883 0)
(12.0626 -1.43093 0)
(11.9956 -1.75298 0)
(11.5678 -2.18036 0)
(11.6561 -2.38055 0)
(11.4629 -2.41352 0)
(11.3143 -2.54261 0)
(11.2289 -2.51025 0)
(11.1883 -2.49802 0)
(10.7985 -2.45836 0)
(10.8602 -2.26356 0)
(10.625 -2.25275 0)
(10.4752 -2.28321 0)
(10.162 -1.98097 0)
(9.79573 -1.57678 0)
(9.13453 -1.11008 0)
(8.8776 -0.471294 0)
(8.37946 0.218085 0)
(8.06043 0.626058 0)
(7.62216 0.994658 0)
(7.56742 1.32429 0)
(7.44288 1.72036 0)
(7.64184 2.08634 0)
(7.64436 2.35394 0)
(7.70864 2.39158 0)
(7.60988 2.42691 0)
(7.62243 2.36975 0)
(7.59403 2.30964 0)
(7.80055 2.25608 0)
(7.80922 2.14588 0)
(8.14227 2.02592 0)
(8.40566 1.91924 0)
(8.68711 1.76941 0)
(9.01558 1.54596 0)
(9.36671 1.28815 0)
(9.65206 1.0295 0)
(10.014 0.712037 0)
(10.3727 0.284516 0)
(10.6087 -0.0149481 0)
(10.9817 -0.518543 0)
(11.274 -1.01887 0)
(11.4618 -1.47547 0)
(11.671 -1.96007 0)
(11.7302 -2.35864 0)
(11.9154 -2.72436 0)
(12.0801 -3.12813 0)
(12.3907 -3.48399 0)
(12.8031 -3.97496 0)
(13.377 -4.54337 0)
(13.7859 -4.9343 0)
(14.301 -5.44435 0)
(14.7822 -5.7464 0)
(15.0462 -6.13102 0)
(15.6264 -6.41114 0)
(15.7113 -6.59981 0)
(16.2439 -6.68023 0)
(16.363 -6.62009 0)
(16.5486 -6.46063 0)
(16.5293 -5.9905 0)
(16.3041 -5.46894 0)
(16.1753 -4.71995 0)
(15.6003 -3.92342 0)
(15.1156 -3.11979 0)
(14.5869 -2.30359 0)
(14.1795 -1.39805 0)
(13.4328 -0.761526 0)
(13.1554 0.06977 0)
(12.6512 0.987553 0)
(12.4669 1.75622 0)
(12.0472 2.58337 0)
(11.528 2.94791 0)
(10.9358 3.05443 0)
(10.5959 3.02974 0)
(9.9231 2.76617 0)
(9.49822 2.26297 0)
(9.13571 2.07835 0)
(8.93641 2.09128 0)
(8.50501 1.94908 0)
(7.89245 1.96157 0)
(7.48247 1.90608 0)
(6.79049 2.06743 0)
(6.62974 1.39103 0)
(6.13913 0.569831 0)
(6.14881 -0.414593 0)
(5.87275 -0.59591 0)
(6.3991 -0.0620314 0)
(6.26104 1.84947 0)
(7.17092 3.9063 0)
(7.20001 5.83124 0)
(7.60039 8.17885 0)
(8.86367 7.76631 0)
(6.10826 9.62726 0)
(11.8304 7.84647 0)
(4.30337 9.68461 0)
(12.6509 5.95658 0)
(5.16991 8.76061 0)
(12.381 4.99912 0)
(5.63905 7.15443 0)
(11.9786 3.31105 0)