/*--------------------------------*- C++ -*----------------------------------*\
| =========                 |                                                 |
| \\      /  F ield         | OpenFOAM: The Open Source CFD Toolbox           |
|  \\    /   O peration     | Version:  2.4.0                                 |
|   \\  /    A nd           | Web:      www.OpenFOAM.org                      |
|    \\/     M anipulation  |                                                 |
\*---------------------------------------------------------------------------*/
FoamFile
{
    version     2.0;
    format      ascii;
    class       volScalarField;
    location    "0.64";
    object      nuSgs;
}
// * * * * * * * * * * * * * * * * * * * * * * * * * * * * * * * * * * * * * //

dimensions      [0 2 -1 0 0 0 0];

internalField   nonuniform List<scalar> 
8800
(
0.00134088
0.00150486
0.00139289
0.00122717
0.00112476
0.00104287
0.00100537
0.000952071
0.000931604
0.000896603
0.000888625
0.000859333
0.000856657
0.000834922
0.000832832
0.000809446
0.000808129
0.000785286
0.000786647
0.000752322
0.000561538
0.000979488
0.00108368
0.00107959
0.00106535
0.00102685
0.00100928
0.0009703
0.000954441
0.000924272
0.000914444
0.000887176
0.000882765
0.000863811
0.000859628
0.000842468
0.000839716
0.000824308
0.000820202
0.000812103
0.000137976
0.000400797
0.000591482
0.000646446
0.000715151
0.00073306
0.000753364
0.000757584
0.00076212
0.000755289
0.000754472
0.000748489
0.000746885
0.000737631
0.000737389
0.000731812
0.000729925
0.000723993
0.000720425
0.000714668
2.75959e-05
0.00012423
0.000247771
0.000289586
0.000359612
0.000403256
0.000423897
0.000453858
0.000481612
0.000488737
0.00050225
0.000518435
0.000527226
0.000532207
0.000543322
0.000553544
0.00055684
0.000563194
0.000568187
0.000567983
5.28101e-06
3.31289e-05
8.08725e-05
0.000100518
0.000131571
0.000174434
0.000188679
0.000214207
0.000239042
0.000247632
0.000259084
0.000285411
0.000292607
0.000305492
0.000314285
0.000334294
0.000342286
0.000359208
0.000366555
0.000381345
2.348e-06
8.30652e-06
2.21993e-05
2.7861e-05
3.67971e-05
5.6646e-05
6.46461e-05
7.7277e-05
9.39807e-05
9.78302e-05
0.000103456
0.000121059
0.00012656
0.000135498
0.000141619
0.000156204
0.000162841
0.00017781
0.000183753
0.000197474
2.17333e-06
3.17867e-06
6.34865e-06
7.45829e-06
9.29119e-06
1.52142e-05
1.80495e-05
2.24515e-05
2.97207e-05
3.0195e-05
3.15983e-05
3.86848e-05
4.12733e-05
4.49504e-05
4.79764e-05
5.48814e-05
5.93887e-05
6.85857e-05
7.2262e-05
7.89161e-05
2.13564e-06
2.71437e-06
3.97588e-06
3.8947e-06
3.89284e-06
5.19918e-06
6.27067e-06
8.07856e-06
9.07229e-06
8.52158e-06
8.58944e-06
1.06177e-05
1.13776e-05
1.20694e-05
1.30107e-05
1.47716e-05
1.83409e-05
2.13339e-05
2.26804e-05
2.33912e-05
2.15009e-06
2.52123e-06
3.50763e-06
3.88421e-06
3.81818e-06
3.82794e-06
4.68902e-06
5.77613e-06
5.77904e-06
5.41724e-06
5.15893e-06
5.47982e-06
5.64052e-06
5.93642e-06
6.06085e-06
6.33964e-06
6.70255e-06
7.27319e-06
7.81838e-06
9.13531e-06
2.14013e-06
2.39497e-06
3.03113e-06
4.14153e-06
4.13627e-06
3.70557e-06
3.57074e-06
4.16628e-06
5.21555e-06
5.23056e-06
4.99983e-06
4.73727e-06
4.67602e-06
4.72447e-06
4.76021e-06
5.13741e-06
5.75795e-06
5.83939e-06
5.91214e-06
6.13337e-06
2.13836e-06
2.44681e-06
3.03695e-06
3.91077e-06
3.9355e-06
3.70765e-06
3.65936e-06
4.08179e-06
4.72892e-06
4.85909e-06
4.81394e-06
4.66932e-06
4.58887e-06
4.57682e-06
4.7245e-06
5.39926e-06
5.70971e-06
5.7592e-06
5.6653e-06
5.59942e-06
2.14706e-06
2.49046e-06
3.20487e-06
3.73414e-06
3.64061e-06
3.62748e-06
4.13572e-06
5.07871e-06
5.1624e-06
4.89852e-06
4.73055e-06
4.62573e-06
4.68524e-06
5.1959e-06
5.78464e-06
6.47046e-06
6.78877e-06
6.99249e-06
7.01012e-06
7.33293e-06
2.15693e-06
2.58973e-06
3.2737e-06
3.69211e-06
4.61208e-06
5.54818e-06
6.81426e-06
7.55883e-06
7.27775e-06
7.40288e-06
8.32101e-06
9.18807e-06
1.0824e-05
1.43843e-05
1.5514e-05
1.76269e-05
1.87655e-05
2.10529e-05
2.19697e-05
2.40949e-05
2.18767e-06
3.06951e-06
4.9833e-06
8.32595e-06
1.42844e-05
1.59179e-05
1.84923e-05
2.29209e-05
2.3267e-05
2.54438e-05
3.19427e-05
3.76688e-05
4.13444e-05
5.01541e-05
5.36603e-05
5.99653e-05
6.29824e-05
6.97808e-05
7.30954e-05
8.1513e-05
2.35749e-06
8.11456e-06
1.74592e-05
3.2216e-05
4.91358e-05
5.43542e-05
6.29064e-05
7.91065e-05
8.32155e-05
9.21607e-05
0.000109087
0.000120328
0.000126543
0.00014184
0.00014841
0.000161157
0.000166861
0.000180489
0.000187251
0.000205965
5.2663e-06
3.26981e-05
6.78702e-05
0.000112967
0.000149744
0.000163111
0.000187216
0.000217706
0.000226493
0.000244686
0.000269064
0.000282873
0.000291059
0.000312193
0.000320952
0.000336746
0.000343394
0.000361017
0.000369707
0.000392268
2.7283e-05
0.000123313
0.000231978
0.000311604
0.000366249
0.000387541
0.000429103
0.000457123
0.000467777
0.000489088
0.000511587
0.000518113
0.000525787
0.000540262
0.00054504
0.000552387
0.000556237
0.000567435
0.000572444
0.000582989
0.000136475
0.000399189
0.00058722
0.000658046
0.000710998
0.00072958
0.000755579
0.00075759
0.000759798
0.000757543
0.000757237
0.00074945
0.000746613
0.000739831
0.000737875
0.000730746
0.000729312
0.000726038
0.000724519
0.00071973
0.000556672
0.000979394
0.00108498
0.00108113
0.0010646
0.00102965
0.00100554
0.000970633
0.00095643
0.000924568
0.000912778
0.000889628
0.00088205
0.000861405
0.000857175
0.000840899
0.000836193
0.000819131
0.000813665
0.000799063
0.0013391
0.0015051
0.00139498
0.00122632
0.00112288
0.00104754
0.00100034
0.000953628
0.000932733
0.000897772
0.000884588
0.000859872
0.000854588
0.000831926
0.000826729
0.000804446
0.000798774
0.000771162
0.00076118
0.000729268
0.000339889
0.000289841
0.000259124
0.000240916
0.000230394
0.00022476
0.000220453
0.000218286
0.00021441
0.000212209
0.000207517
0.000204785
0.000199739
0.000197716
0.000193414
0.000191788
0.00018809
0.00018684
0.000183802
0.000182884
0.000180371
0.00017933
0.000176411
0.000174822
0.000171141
0.000168934
0.000164433
0.000162107
0.000159442
0.000158885
0.000158879
0.000159724
0.000160997
0.000164706
0.000166841
0.000169146
0.000169115
0.000168966
0.000167996
0.000167702
0.00016825
0.000173614
0.000182755
0.000188484
0.000190078
0.00018629
0.000164758
0.000130868
0.000105264
8.18586e-05
6.46526e-05
5.31677e-05
5.17512e-05
5.32743e-05
6.55651e-05
7.18844e-05
8.50336e-05
8.70577e-05
9.34827e-05
9.4255e-05
9.91376e-05
9.97529e-05
0.000103429
0.000104595
0.000110447
0.000110806
0.000112168
0.00010921
0.00010968
0.000107221
0.000108169
0.000105885
0.000106154
0.000102374
0.000100514
9.31221e-05
9.0404e-05
8.30853e-05
8.1387e-05
7.77899e-05
7.81206e-05
7.75594e-05
7.81894e-05
7.84938e-05
8.42211e-05
9.0407e-05
9.39049e-05
9.39375e-05
9.34548e-05
9.1536e-05
8.9888e-05
8.82985e-05
8.70308e-05
8.59083e-05
8.49128e-05
8.12905e-05
7.89509e-05
7.53041e-05
7.22149e-05
6.77411e-05
6.70603e-05
6.65333e-05
6.58472e-05
6.69171e-05
6.62984e-05
6.64239e-05
6.57593e-05
6.97529e-05
8.38013e-05
0.000107503
0.000115302
0.000119049
0.000110344
9.81213e-05
7.89769e-05
7.46645e-05
7.60107e-05
7.54915e-05
8.063e-05
8.99862e-05
9.07675e-05
8.39992e-05
7.51654e-05
6.91717e-05
7.02219e-05
6.91427e-05
7.62875e-05
7.66545e-05
8.45112e-05
8.05043e-05
8.27429e-05
8.11559e-05
8.18768e-05
8.48752e-05
8.65577e-05
8.78861e-05
8.74712e-05
8.63328e-05
8.13668e-05
7.81723e-05
7.20378e-05
7.05169e-05
6.79882e-05
6.99215e-05
6.98172e-05
7.41788e-05
8.00988e-05
8.84589e-05
0.000104356
0.000108269
0.000119157
0.000116327
0.000120821
0.000116106
0.000119367
0.000115008
0.000116537
0.00011473
0.000115722
0.000115314
0.000114826
0.000115873
0.000117354
0.000123371
0.000129307
0.000130647
0.000130362
0.000120135
0.000117387
0.000102134
0.000108423
9.55657e-05
0.000101861
9.3746e-05
9.63761e-05
9.43875e-05
9.20531e-05
9.1958e-05
9.01945e-05
9.01596e-05
8.93742e-05
8.94366e-05
8.84201e-05
8.83631e-05
8.72906e-05
8.7125e-05
8.61323e-05
8.58853e-05
8.47346e-05
8.4605e-05
8.48833e-05
8.63409e-05
8.73685e-05
8.87522e-05
9.16923e-05
9.73457e-05
0.00010132
0.00011054
0.000115298
0.000131457
0.000407944
0.000368668
0.00033607
0.000313474
0.00029382
0.000281316
0.000268221
0.000260898
0.000251139
0.000246628
0.000239101
0.000236233
0.000230403
0.000228297
0.000223726
0.000222004
0.000217967
0.000216405
0.000212764
0.000211541
0.000208655
0.00020787
0.000205831
0.000205249
0.000203555
0.000202714
0.000200233
0.000198771
0.000195333
0.000193536
0.000189551
0.000187761
0.000184578
0.000182962
0.000179212
0.000177362
0.000174081
0.000171134
0.000167599
0.000163803
0.0001589
0.000156876
0.000157111
0.00015864
0.000169181
0.000182598
0.000186482
0.000182057
0.000161971
0.000123632
0.000100486
7.56413e-05
6.78366e-05
6.10124e-05
6.74476e-05
7.11655e-05
8.23691e-05
8.49842e-05
9.12601e-05
9.24756e-05
9.65797e-05
9.83331e-05
0.00010371
0.000108215
0.000111143
0.000111121
0.000110741
0.000107567
0.000107405
0.000105612
0.000105477
0.000103614
0.000102262
9.628e-05
9.23163e-05
8.18981e-05
7.64062e-05
6.68597e-05
6.51911e-05
6.31114e-05
6.4294e-05
6.45865e-05
6.6395e-05
6.69395e-05
6.87586e-05
7.07031e-05
7.69036e-05
8.24801e-05
8.61936e-05
8.70564e-05
8.72907e-05
8.70137e-05
8.61679e-05
8.42732e-05
8.14008e-05
7.73472e-05
7.54932e-05
7.05164e-05
6.82263e-05
6.5878e-05
6.43365e-05
6.34804e-05
6.25284e-05
6.31754e-05
6.36709e-05
6.27396e-05
6.20174e-05
6.21981e-05
7.02873e-05
9.16531e-05
0.000109617
0.00011402
0.000114915
0.000105572
9.28432e-05
7.69396e-05
7.28986e-05
7.23019e-05
7.34246e-05
8.03252e-05
8.46523e-05
8.23201e-05
7.84639e-05
7.03918e-05
7.72802e-05
7.97311e-05
8.64051e-05
8.23342e-05
8.27874e-05
8.06328e-05
8.02258e-05
8.07807e-05
8.2726e-05
8.52447e-05
8.68754e-05
8.68886e-05
8.60847e-05
8.38952e-05
7.82805e-05
7.56259e-05
7.14268e-05
6.91141e-05
6.79418e-05
6.78793e-05
6.93573e-05
7.37984e-05
8.94875e-05
9.77085e-05
0.000115161
0.000116768
0.000121859
0.000118096
0.000120337
0.000113392
0.000113905
0.000106072
0.000109009
0.000104548
0.00011
0.000107341
0.000115506
0.000114229
0.000125549
0.000125362
0.000138524
0.00013478
0.000142478
0.000130479
0.000131678
0.000117525
0.000118452
0.00011098
0.000108374
0.000104524
9.87787e-05
9.7835e-05
9.5297e-05
9.50618e-05
9.33786e-05
9.33081e-05
9.14851e-05
9.20474e-05
9.05156e-05
9.0971e-05
8.92435e-05
8.93231e-05
8.78062e-05
8.7981e-05
8.71171e-05
8.79795e-05
8.80915e-05
9.03123e-05
9.10125e-05
9.34975e-05
9.4294e-05
9.87654e-05
0.000101363
0.000109378
0.00011525
0.000119475
0.000370103
0.000347055
0.000324528
0.000307977
0.000292679
0.000281821
0.000270659
0.000262774
0.000253497
0.000247332
0.000239179
0.000234796
0.000228429
0.000225568
0.000220659
0.000218761
0.000214808
0.000213141
0.000209404
0.000207949
0.000204709
0.000203519
0.000201146
0.000200586
0.000199327
0.000199053
0.000198324
0.000197751
0.000196174
0.000194977
0.000192351
0.000189855
0.000186857
0.000182392
0.000178129
0.000172324
0.000169128
0.000161749
0.000155151
0.000149533
0.00014912
0.000147727
0.000144711
0.000139238
0.000139986
0.000142168
0.00015761
0.000167774
0.000173741
0.000167051
0.000158988
0.000127659
0.000108005
8.52434e-05
8.18402e-05
7.91834e-05
8.37047e-05
8.60661e-05
9.0729e-05
9.30519e-05
9.65009e-05
0.000103569
0.000108274
0.00011149
0.000111728
0.000111665
0.000109455
0.000108235
0.000107051
0.000105376
0.000103903
0.000101012
9.62372e-05
8.68869e-05
7.49251e-05
6.3885e-05
5.85913e-05
5.45705e-05
5.35289e-05
5.22338e-05
5.26885e-05
5.27538e-05
5.34521e-05
5.5058e-05
5.75353e-05
5.93325e-05
6.10835e-05
6.54351e-05
7.20815e-05
7.66669e-05
7.76483e-05
7.77139e-05
7.67184e-05
7.42654e-05
7.19672e-05
6.93205e-05
6.61545e-05
6.45976e-05
6.39809e-05
6.41672e-05
6.29415e-05
6.22037e-05
6.03344e-05
5.74781e-05
5.75176e-05
5.78665e-05
5.88304e-05
5.82874e-05
6.0003e-05
7.11976e-05
0.000100799
0.000110783
0.00011277
0.000110934
9.73567e-05
8.9457e-05
7.46538e-05
7.34441e-05
7.35352e-05
7.51098e-05
8.42504e-05
8.19547e-05
8.48578e-05
8.07108e-05
8.52533e-05
8.22955e-05
8.25781e-05
8.10733e-05
7.86738e-05
7.9388e-05
7.84391e-05
7.987e-05
8.20693e-05
8.44957e-05
8.43738e-05
8.40865e-05
8.19882e-05
8.10854e-05
7.69909e-05
7.59416e-05
7.30126e-05
7.46704e-05
7.48155e-05
8.02053e-05
8.47943e-05
0.000102556
0.000107921
0.000121266
0.000121008
0.000122861
0.00012176
0.000118611
0.000114234
0.000102639
9.62214e-05
8.58413e-05
8.67041e-05
8.44112e-05
8.90477e-05
8.76547e-05
9.35873e-05
9.36237e-05
0.000103346
0.000107471
0.000129939
0.00013199
0.000144507
0.000140466
0.000140251
0.00013073
0.000122579
0.000115558
0.000109435
0.000107361
0.000102082
0.000101473
9.8398e-05
9.9039e-05
9.67944e-05
9.82097e-05
9.57829e-05
9.64953e-05
9.43105e-05
9.39917e-05
9.24675e-05
9.20219e-05
9.0693e-05
9.03029e-05
8.95623e-05
8.99235e-05
8.99768e-05
9.17037e-05
9.21914e-05
9.41564e-05
9.46142e-05
9.69695e-05
9.94047e-05
0.000103164
0.000107007
0.000109884
0.000299898
0.000286727
0.000272026
0.000260933
0.000250352
0.000242101
0.000234583
0.000228378
0.000222289
0.000217484
0.000211093
0.000206299
0.000200039
0.000196174
0.0001911
0.000189028
0.000185919
0.00018472
0.000182273
0.000181061
0.000178517
0.000176281
0.000173732
0.000171839
0.000170076
0.000168936
0.000168797
0.000168495
0.000168285
0.000167655
0.000166836
0.000163977
0.000161507
0.000156872
0.000153365
0.000145023
0.000140789
0.000134188
0.000127247
0.000119927
0.000116797
0.000107478
0.000103795
0.000103355
0.000106806
0.000109108
0.000115716
0.000123492
0.000150307
0.00015732
0.000162172
0.000158954
0.000153168
0.000137608
0.000121811
0.000108006
0.000100893
9.94124e-05
9.99808e-05
0.000101867
0.000104447
0.000110385
0.00011225
0.000113771
0.000113389
0.000113251
0.000111028
0.000109975
0.000106438
0.00010453
9.87885e-05
9.32144e-05
7.83111e-05
6.67896e-05
5.65126e-05
5.22354e-05
4.90939e-05
4.80438e-05
4.75787e-05
4.77022e-05
4.7645e-05
4.76517e-05
4.77085e-05
4.79382e-05
4.84278e-05
4.99178e-05
5.1197e-05
5.44908e-05
5.59209e-05
6.07411e-05
6.10035e-05
6.17329e-05
6.10651e-05
6.18895e-05
6.15085e-05
6.18671e-05
6.13618e-05
6.16247e-05
6.09613e-05
6.01347e-05
5.80409e-05
5.6696e-05
5.5767e-05
5.18099e-05
4.88387e-05
4.89902e-05
5.04435e-05
5.19181e-05
5.31251e-05
5.82161e-05
8.23367e-05
0.000107153
0.000109178
0.000111088
0.000103536
9.5854e-05
8.36498e-05
7.60242e-05
8.11525e-05
7.77389e-05
9.22608e-05
9.05305e-05
9.49981e-05
9.15049e-05
8.87985e-05
8.24257e-05
8.00609e-05
7.84301e-05
7.64982e-05
7.66797e-05
7.65021e-05
7.88883e-05
8.05699e-05
8.14604e-05
8.10838e-05
8.07254e-05
8.04203e-05
7.96533e-05
7.73653e-05
7.70789e-05
7.74446e-05
7.90631e-05
8.14982e-05
9.10732e-05
9.58537e-05
0.000110567
0.000112905
0.000119953
0.000117644
0.000118062
0.00011157
0.000106781
9.28444e-05
8.499e-05
7.97967e-05
7.73633e-05
7.81029e-05
7.76936e-05
7.89391e-05
7.86381e-05
8.03779e-05
7.93216e-05
8.00468e-05
8.10828e-05
8.78354e-05
0.000102254
0.000127341
0.000136507
0.000138609
0.000138443
0.0001338
0.000127952
0.000115128
0.000111992
0.000105218
0.000104069
0.000100435
0.000100562
9.84053e-05
9.87161e-05
9.70011e-05
9.65624e-05
9.55002e-05
9.39182e-05
9.34717e-05
9.19867e-05
9.16504e-05
9.04064e-05
8.99298e-05
8.99288e-05
9.02095e-05
9.11083e-05
9.20257e-05
9.33069e-05
9.50957e-05
9.63024e-05
0.000100115
0.000101601
0.000104989
0.000106277
0.000203932
0.000198039
0.000188759
0.000182451
0.000175724
0.000170001
0.000165587
0.000161629
0.000158725
0.000156077
0.000153699
0.000150496
0.000146245
0.000142503
0.000137576
0.00013416
0.000131522
0.000130132
0.000129694
0.000129627
0.00012994
0.000129979
0.000129303
0.000127789
0.000125621
0.000122926
0.000121859
0.000120543
0.000119604
0.000118865
0.00011821
0.000117081
0.000114079
0.000111888
0.000108155
0.000102018
9.61502e-05
9.10906e-05
8.3225e-05
7.7388e-05
7.3761e-05
7.07042e-05
6.89873e-05
6.89875e-05
6.97922e-05
7.17163e-05
7.50967e-05
8.23759e-05
9.20978e-05
0.000110624
0.000131103
0.000149395
0.000148841
0.000150297
0.000145354
0.000143399
0.000135516
0.000132884
0.000127347
0.000126412
0.000124328
0.000124312
0.00012267
0.000121694
0.000117998
0.000116253
0.000111551
0.000108935
0.000101348
9.60162e-05
8.14011e-05
6.98075e-05
5.70431e-05
5.14305e-05
4.56433e-05
4.47919e-05
4.36947e-05
4.4314e-05
4.45058e-05
4.53066e-05
4.57665e-05
4.61017e-05
4.61076e-05
4.60568e-05
4.61272e-05
4.64225e-05
4.66945e-05
4.77304e-05
4.84241e-05
5.07499e-05
5.1756e-05
5.41679e-05
5.49732e-05
5.74256e-05
5.80155e-05
6.03663e-05
5.96652e-05
5.9505e-05
5.77857e-05
5.59054e-05
5.17939e-05
4.74434e-05
4.55672e-05
4.54072e-05
4.50114e-05
4.53012e-05
4.6501e-05
4.88631e-05
4.87629e-05
5.03248e-05
5.78008e-05
9.13412e-05
0.000108068
0.000108638
0.000108871
9.90761e-05
0.000106829
9.10067e-05
0.000118484
0.000103154
0.00011997
0.000113008
0.000111238
0.000100789
9.64133e-05
8.58665e-05
8.12668e-05
7.87617e-05
7.70354e-05
7.71203e-05
7.72971e-05
7.98848e-05
8.0656e-05
8.18869e-05
8.16352e-05
8.20034e-05
8.2131e-05
8.27275e-05
8.16292e-05
8.32434e-05
8.28233e-05
8.68074e-05
8.8311e-05
9.73624e-05
0.000100331
0.000110477
0.00011062
0.000112445
0.000108743
0.000105591
9.29205e-05
8.57106e-05
7.66934e-05
7.51885e-05
7.38602e-05
7.46586e-05
7.54372e-05
7.61169e-05
7.60589e-05
7.53559e-05
7.57115e-05
7.56641e-05
7.5124e-05
7.23181e-05
7.11774e-05
7.41742e-05
8.33136e-05
0.00011017
0.000124301
0.000135031
0.000133963
0.000134983
0.000130375
0.000127193
0.000117756
0.000114064
0.000106622
0.00010509
0.000101695
0.000100497
9.90453e-05
9.75075e-05
9.65396e-05
9.4705e-05
9.40688e-05
9.31132e-05
9.17108e-05
9.15745e-05
9.16725e-05
9.23339e-05
9.41592e-05
9.56153e-05
9.83262e-05
9.9102e-05
0.000101013
0.000101077
0.000102262
0.000102774
0.000105091
0.000105189
0.000106925
0.000105396
0.000101782
9.95541e-05
9.61927e-05
9.36216e-05
9.14224e-05
8.95496e-05
8.84921e-05
8.72676e-05
8.6647e-05
8.58833e-05
8.40044e-05
8.18652e-05
7.84321e-05
7.53808e-05
7.30159e-05
7.15759e-05
7.11557e-05
7.10885e-05
7.18078e-05
7.29687e-05
7.35668e-05
7.4364e-05
7.43999e-05
7.36633e-05
7.14216e-05
7.02431e-05
6.82087e-05
6.73517e-05
6.64225e-05
6.57772e-05
6.37249e-05
6.25368e-05
6.07165e-05
5.81837e-05
5.47304e-05
5.27723e-05
4.97409e-05
4.85726e-05
4.80129e-05
4.83898e-05
4.84521e-05
4.92027e-05
4.96172e-05
5.126e-05
5.2165e-05
5.62511e-05
5.9699e-05
6.92441e-05
7.72738e-05
0.000103181
0.000113876
0.000135108
0.000136864
0.000140894
0.000137605
0.000137615
0.000134586
0.000133942
0.000130401
0.000129231
0.000125312
0.000123084
0.000116751
0.000112827
0.000103337
9.64027e-05
8.07898e-05
6.94149e-05
5.72337e-05
5.10881e-05
4.41478e-05
4.21047e-05
3.96461e-05
3.9805e-05
3.96577e-05
4.06668e-05
4.11695e-05
4.33066e-05
4.45961e-05
4.55974e-05
4.58816e-05
4.59661e-05
4.60492e-05
4.61834e-05
4.65275e-05
4.7328e-05
4.81637e-05
4.88524e-05
5.12212e-05
5.19839e-05
5.31617e-05
5.56236e-05
5.57857e-05
5.56953e-05
5.42989e-05
5.26776e-05
4.81091e-05
4.42304e-05
4.32753e-05
4.17947e-05
4.25195e-05
4.25861e-05
4.5549e-05
4.5768e-05
4.89486e-05
5.07326e-05
5.33389e-05
5.18298e-05
5.52243e-05
6.54986e-05
0.000105123
0.000110749
0.00012669
0.000116523
0.00012878
0.000114868
0.000123926
0.000113748
0.000116917
0.000112939
0.000110577
0.00010332
0.00010117
9.33977e-05
8.83312e-05
8.40776e-05
8.28406e-05
8.31408e-05
8.33339e-05
8.43928e-05
8.37325e-05
8.50186e-05
8.49652e-05
8.64976e-05
8.5417e-05
8.6005e-05
8.29266e-05
8.44868e-05
8.31311e-05
8.73966e-05
8.83137e-05
9.69243e-05
9.83583e-05
0.000102877
0.000100772
9.88843e-05
8.96021e-05
8.33416e-05
7.48662e-05
7.32536e-05
7.15038e-05
7.21365e-05
7.25212e-05
7.46831e-05
7.53961e-05
7.58399e-05
7.51007e-05
7.45852e-05
7.42848e-05
7.69591e-05
7.72678e-05
7.59503e-05
7.04914e-05
6.8334e-05
6.96405e-05
7.95793e-05
9.10452e-05
0.000115858
0.00012453
0.000131685
0.000130153
0.000130818
0.000128239
0.00012728
0.000123462
0.000120579
0.000117265
0.000112933
0.00011135
0.000107667
0.000106377
0.000103717
0.000103129
0.000102407
0.000102327
0.000102439
0.00010298
0.000102969
0.000103242
0.000102654
0.000103092
0.000102369
0.000102313
0.000100798
0.000100281
9.77503e-05
9.69587e-05
9.49973e-05
4.29991e-05
4.27198e-05
4.19139e-05
4.14503e-05
4.04552e-05
3.98773e-05
3.91682e-05
3.8459e-05
3.80295e-05
3.74951e-05
3.72752e-05
3.71241e-05
3.69793e-05
3.67573e-05
3.56726e-05
3.42423e-05
3.31287e-05
3.21162e-05
3.16936e-05
3.15073e-05
3.18314e-05
3.34092e-05
3.46831e-05
3.59238e-05
3.63478e-05
3.64355e-05
3.57308e-05
3.48922e-05
3.34689e-05
3.267e-05
3.20725e-05
3.13314e-05
3.06595e-05
3.01128e-05
3.00721e-05
3.0128e-05
3.10502e-05
3.18936e-05
3.38059e-05
3.54425e-05
3.76828e-05
3.9473e-05
4.03356e-05
4.18959e-05
4.2384e-05
4.35888e-05
4.4068e-05
4.58005e-05
4.71966e-05
5.08437e-05
5.39484e-05
6.4326e-05
7.13309e-05
8.84413e-05
9.59632e-05
0.000113193
0.000116702
0.000123993
0.000123427
0.000123629
0.00012108
0.00011913
0.000113616
0.000108609
9.84067e-05
8.9016e-05
7.51251e-05
6.54754e-05
5.50827e-05
4.94362e-05
4.29765e-05
4.02817e-05
3.74876e-05
3.71476e-05
3.67745e-05
3.73516e-05
3.76728e-05
3.90999e-05
3.97347e-05
4.11378e-05
4.26351e-05
4.43969e-05
4.47873e-05
4.50727e-05
4.5399e-05
4.56258e-05
4.63606e-05
4.66762e-05
4.79378e-05
4.84046e-05
4.88671e-05
4.9507e-05
4.97773e-05
4.96014e-05
4.89571e-05
4.77115e-05
4.46858e-05
4.27326e-05
4.10064e-05
3.97316e-05
4.01572e-05
3.99471e-05
4.21635e-05
4.19118e-05
4.61269e-05
4.6447e-05
5.25778e-05
5.28e-05
6.26848e-05
6.00518e-05
6.5148e-05
6.70655e-05
9.60115e-05
0.000104934
0.000124661
0.000120077
0.00012387
0.000119335
0.000117061
0.000113095
0.000106277
0.00010821
0.000105611
0.000103737
0.000102571
9.96851e-05
9.64034e-05
9.40715e-05
9.16514e-05
9.07604e-05
8.83367e-05
8.82784e-05
8.70361e-05
8.81083e-05
8.78927e-05
8.86918e-05
8.60776e-05
8.31738e-05
7.72904e-05
7.78976e-05
7.77228e-05
8.15315e-05
8.31185e-05
8.84842e-05
8.81521e-05
8.82016e-05
8.37238e-05
7.92529e-05
7.30746e-05
7.142e-05
7.01083e-05
7.04663e-05
7.14576e-05
7.46525e-05
7.79314e-05
8.22336e-05
8.29168e-05
8.2855e-05
8.1537e-05
7.80662e-05
7.46341e-05
7.48764e-05
7.67964e-05
7.80078e-05
7.65174e-05
7.03595e-05
6.87056e-05
6.97389e-05
7.45766e-05
8.83029e-05
0.000100956
0.000116562
0.000122627
0.000126611
0.0001263
0.000126165
0.000125015
0.000123889
0.000122748
0.000120618
0.000119769
0.000117437
0.000116424
0.000113774
0.000112731
0.000110898
0.000110247
0.000108266
0.000107501
0.000105483
0.000104598
0.000102044
0.000100556
9.67074e-05
9.46184e-05
8.9899e-05
8.75673e-05
8.29127e-05
8.11943e-05
7.77643e-05
1.29949e-05
1.31212e-05
1.32149e-05
1.3334e-05
1.33411e-05
1.33377e-05
1.33012e-05
1.32783e-05
1.33009e-05
1.33825e-05
1.36684e-05
1.39906e-05
1.41551e-05
1.42527e-05
1.42348e-05
1.39003e-05
1.34421e-05
1.29561e-05
1.2682e-05
1.25253e-05
1.25626e-05
1.34043e-05
1.43709e-05
1.51883e-05
1.54592e-05
1.5512e-05
1.51987e-05
1.49938e-05
1.48563e-05
1.49541e-05
1.51074e-05
1.51404e-05
1.49956e-05
1.46515e-05
1.47149e-05
1.60636e-05
2.01214e-05
2.38438e-05
2.81363e-05
3.14843e-05
3.37289e-05
3.57936e-05
3.65117e-05
3.79369e-05
3.82378e-05
3.92566e-05
3.95295e-05
4.07424e-05
4.13708e-05
4.28285e-05
4.38905e-05
4.70937e-05
4.99103e-05
5.68522e-05
6.08497e-05
7.12456e-05
7.49896e-05
8.28979e-05
8.58932e-05
8.68244e-05
8.57033e-05
8.32959e-05
7.81097e-05
7.17893e-05
6.48855e-05
5.80959e-05
5.14593e-05
4.62859e-05
4.11975e-05
3.84281e-05
3.5536e-05
3.52152e-05
3.49189e-05
3.54885e-05
3.58251e-05
3.69197e-05
3.74721e-05
3.90666e-05
3.96379e-05
4.09622e-05
4.13797e-05
4.25969e-05
4.29086e-05
4.31775e-05
4.35107e-05
4.37141e-05
4.45237e-05
4.48444e-05
4.59214e-05
4.60736e-05
4.63649e-05
4.62044e-05
4.56282e-05
4.49713e-05
4.32976e-05
4.19146e-05
4.04211e-05
3.97468e-05
3.93589e-05
3.91208e-05
3.97138e-05
3.96758e-05
4.17474e-05
4.18012e-05
4.53111e-05
4.60646e-05
5.1768e-05
5.17724e-05
5.84313e-05
5.88833e-05
6.28941e-05
6.29029e-05
6.93482e-05
8.4673e-05
0.000104947
0.00011485
0.000115551
0.000116656
0.000112933
0.000112226
0.000106227
0.000107987
0.000104132
0.000105073
0.000102186
0.000102054
9.89048e-05
9.74726e-05
9.36498e-05
9.27199e-05
8.96163e-05
8.98387e-05
8.87324e-05
8.95328e-05
8.91062e-05
8.86792e-05
8.19676e-05
7.78646e-05
7.52909e-05
7.57031e-05
7.6716e-05
8.0165e-05
8.22078e-05
8.27788e-05
8.13396e-05
7.75025e-05
7.23981e-05
7.03055e-05
6.93485e-05
6.9687e-05
7.15709e-05
7.55147e-05
8.37245e-05
9.30683e-05
9.9256e-05
0.000100989
0.000100396
9.80129e-05
9.52131e-05
8.95872e-05
8.10644e-05
7.71633e-05
7.66878e-05
7.72169e-05
7.67256e-05
7.46903e-05
7.0017e-05
6.81217e-05
6.88331e-05
7.23913e-05
8.01622e-05
9.46154e-05
0.000104743
0.000113347
0.000118532
0.000120781
0.000120939
0.000120641
0.00011992
0.000118499
0.000117169
0.000115336
0.000113942
0.000111165
0.000109783
0.000106907
0.000105493
0.00010242
0.000100821
9.76311e-05
9.56369e-05
9.19004e-05
8.8977e-05
8.52288e-05
8.15125e-05
7.83284e-05
7.51927e-05
7.26989e-05
7.06615e-05
6.90918e-05
5.52862e-06
5.71558e-06
5.91738e-06
6.07096e-06
6.16302e-06
6.21017e-06
6.22819e-06
6.23518e-06
6.25394e-06
6.27363e-06
6.30892e-06
6.33068e-06
6.33018e-06
6.3338e-06
6.30453e-06
6.15698e-06
5.98659e-06
5.86437e-06
5.78939e-06
5.73725e-06
5.69361e-06
5.70766e-06
5.94787e-06
6.50167e-06
6.72722e-06
6.84644e-06
6.78175e-06
6.79858e-06
7.1105e-06
8.59699e-06
9.22679e-06
9.71581e-06
9.60691e-06
9.17975e-06
8.72789e-06
9.26889e-06
1.39413e-05
1.82009e-05
2.20142e-05
2.48055e-05
2.68516e-05
2.92763e-05
3.02772e-05
3.28567e-05
3.41353e-05
3.67336e-05
3.7571e-05
3.96964e-05
4.0527e-05
4.16766e-05
4.22199e-05
4.3275e-05
4.40625e-05
4.59574e-05
4.7336e-05
5.0927e-05
5.25279e-05
5.63246e-05
5.77865e-05
5.79838e-05
5.71238e-05
5.58553e-05
5.28988e-05
4.97191e-05
4.59767e-05
4.20173e-05
3.86563e-05
3.58286e-05
3.3896e-05
3.31089e-05
3.30814e-05
3.3693e-05
3.41784e-05
3.58965e-05
3.66704e-05
3.91002e-05
3.97132e-05
4.12709e-05
4.14819e-05
4.24894e-05
4.23901e-05
4.32001e-05
4.3269e-05
4.37411e-05
4.37232e-05
4.38091e-05
4.40231e-05
4.40591e-05
4.40603e-05
4.38608e-05
4.3201e-05
4.26133e-05
4.13163e-05
4.064e-05
3.98863e-05
3.96376e-05
3.92983e-05
3.92587e-05
3.96221e-05
4.00927e-05
4.22187e-05
4.30749e-05
4.60857e-05
4.6552e-05
4.84332e-05
4.86481e-05
5.10557e-05
5.17358e-05
5.25734e-05
5.5559e-05
5.62298e-05
5.67221e-05
5.76017e-05
6.55347e-05
7.35287e-05
9.5718e-05
0.000100386
0.000111354
0.000110046
0.00011165
0.000107756
0.000108536
0.000104758
0.000105257
0.000101532
0.000101123
9.79989e-05
9.66933e-05
9.3205e-05
9.21165e-05
8.89899e-05
8.87166e-05
8.78545e-05
8.80378e-05
8.66776e-05
8.20223e-05
7.74537e-05
7.62704e-05
7.63011e-05
7.81231e-05
7.94702e-05
8.03399e-05
7.96477e-05
7.75984e-05
7.2478e-05
7.0101e-05
6.88721e-05
6.90313e-05
7.11617e-05
7.61143e-05
8.87562e-05
0.000101186
0.000118209
0.000127907
0.000129731
0.000128644
0.000125126
0.000117187
0.000110387
0.000105561
9.48284e-05
8.46971e-05
7.86832e-05
7.62384e-05
7.5402e-05
7.43396e-05
7.21605e-05
6.89552e-05
6.69687e-05
6.72363e-05
6.91562e-05
7.41607e-05
8.48638e-05
9.3385e-05
0.000101447
0.000108087
0.00011142
0.000113406
0.000113574
0.000113394
0.000112473
0.000111159
0.000109992
0.000107219
0.000105728
0.000102575
0.000100837
9.72013e-05
9.45826e-05
9.12354e-05
8.80834e-05
8.43338e-05
8.06648e-05
7.80256e-05
7.39634e-05
7.21279e-05
6.87113e-05
6.76159e-05
6.52534e-05
6.46702e-05
3.52711e-06
3.68938e-06
3.89023e-06
4.0972e-06
4.20619e-06
4.29594e-06
4.34414e-06
4.36671e-06
4.4192e-06
4.44903e-06
4.48217e-06
4.49888e-06
4.50131e-06
4.47787e-06
4.4218e-06
4.39271e-06
4.39139e-06
4.43904e-06
4.51986e-06
4.55268e-06
4.55742e-06
4.54788e-06
4.57874e-06
4.7711e-06
4.91605e-06
4.967e-06
4.94838e-06
4.98478e-06
5.53265e-06
6.38434e-06
6.89724e-06
7.0827e-06
6.988e-06
6.1181e-06
5.17622e-06
5.01201e-06
9.32836e-06
1.39027e-05
1.93174e-05
2.20185e-05
2.47702e-05
2.6331e-05
2.72056e-05
2.8764e-05
2.93912e-05
3.09259e-05
3.18436e-05
3.46183e-05
3.67684e-05
3.85804e-05
4.00127e-05
4.08757e-05
4.18579e-05
4.23102e-05
4.27284e-05
4.34918e-05
4.37342e-05
4.41927e-05
4.38355e-05
4.37067e-05
4.25375e-05
4.18529e-05
3.93898e-05
3.81457e-05
3.52102e-05
3.35056e-05
3.20074e-05
3.14636e-05
3.15074e-05
3.18235e-05
3.2705e-05
3.48783e-05
3.66867e-05
4.06057e-05
4.22151e-05
4.48644e-05
4.5159e-05
4.52724e-05
4.45362e-05
4.42858e-05
4.32238e-05
4.30622e-05
4.23502e-05
4.22391e-05
4.15683e-05
4.13375e-05
4.04682e-05
4.01083e-05
3.93104e-05
3.8586e-05
3.82833e-05
3.80131e-05
3.84172e-05
3.85151e-05
3.92763e-05
3.94483e-05
4.03828e-05
4.12409e-05
4.47026e-05
4.67937e-05
5.33127e-05
5.51443e-05
6.04493e-05
6.05706e-05
6.16057e-05
5.99818e-05
5.90535e-05
5.62507e-05
5.44605e-05
5.55832e-05
5.68638e-05
5.71382e-05
5.73013e-05
5.85463e-05
6.18717e-05
7.50726e-05
8.10091e-05
9.75666e-05
0.000100812
0.000108647
0.00010631
0.000107547
0.000104204
0.000104206
0.000101064
9.87376e-05
9.57971e-05
9.22337e-05
8.96501e-05
8.6935e-05
8.44823e-05
8.36846e-05
8.29041e-05
8.27316e-05
8.05133e-05
7.94206e-05
7.93417e-05
8.0921e-05
8.11816e-05
8.10191e-05
8.02677e-05
7.87358e-05
7.40873e-05
7.06499e-05
6.88437e-05
6.8783e-05
7.02089e-05
7.48662e-05
8.91403e-05
0.000103748
0.000131461
0.000149679
0.000163509
0.000165718
0.000164885
0.000161381
0.000152996
0.000141567
0.000127041
0.000115747
0.000104645
9.31402e-05
8.27396e-05
7.7215e-05
7.4467e-05
7.33538e-05
7.23543e-05
7.07633e-05
6.81679e-05
6.72572e-05
6.73292e-05
6.81274e-05
7.14377e-05
7.5453e-05
8.05324e-05
8.69333e-05
9.02249e-05
9.29678e-05
9.4226e-05
9.60137e-05
9.60048e-05
9.53105e-05
9.47963e-05
9.28242e-05
9.16091e-05
8.83229e-05
8.66404e-05
8.32023e-05
8.08048e-05
7.82545e-05
7.47984e-05
7.28016e-05
6.91498e-05
6.76308e-05
6.43716e-05
6.33692e-05
6.10776e-05
6.05202e-05
5.89481e-05
5.86772e-05
3.00125e-06
2.99279e-06
3.01334e-06
3.03318e-06
3.03499e-06
3.04218e-06
3.05613e-06
3.06954e-06
3.08545e-06
3.09204e-06
3.10398e-06
3.17337e-06
3.28879e-06
3.37293e-06
3.46338e-06
3.60125e-06
3.95262e-06
4.28463e-06
4.54571e-06
4.66502e-06
4.85855e-06
4.95841e-06
5.21755e-06
5.30226e-06
5.41588e-06
5.40627e-06
5.41245e-06
5.39411e-06
5.72737e-06
6.35073e-06
6.86447e-06
7.08088e-06
7.10378e-06
6.51056e-06
5.77317e-06
5.55654e-06
7.93644e-06
1.13629e-05
1.44739e-05
1.61426e-05
1.77569e-05
1.885e-05
1.93788e-05
2.01849e-05
2.05279e-05
2.13196e-05
2.19514e-05
2.38518e-05
2.56064e-05
2.92012e-05
3.1862e-05
3.39387e-05