/*--------------------------------*- C++ -*----------------------------------*\
| =========                 |                                                 |
| \\      /  F ield         | OpenFOAM: The Open Source CFD Toolbox           |
|  \\    /   O peration     | Version:  2.4.0                                 |
|   \\  /    A nd           | Web:      www.OpenFOAM.org                      |
|    \\/     M anipulation  |                                                 |
\*---------------------------------------------------------------------------*/
FoamFile
{
    version     2.0;
    format      ascii;
    class       surfaceScalarField;
    location    "0.38";
    object      phi;
}
// * * * * * * * * * * * * * * * * * * * * * * * * * * * * * * * * * * * * * //

dimensions      [0 3 -1 0 0 0 0];

internalField   nonuniform List<scalar> 
8640
(
0.0496238
0.000376193
0.0490904
0.000533446
0.0487962
0.000294119
0.0481391
0.000657113
0.0480202
0.000118901
0.0469753
0.00104492
0.0473368
-0.000361512
0.0458816
0.00145521
0.046337
-0.000455425
0.0452735
0.00106349
0.0448497
0.000423841
0.044253
0.000596661
0.0449444
-0.00069133
0.0410292
0.00391521
0.0455542
-0.00452503
0.0366153
0.00893893
0.0403895
-0.00377422
0.034277
0.00611249
0.0310138
0.00326315
-0.0243365
0.0553503
0.0502504
0.000125792
0.0499101
0.000873763
0.0505052
-0.000300965
0.0496618
0.00150046
0.0508107
-0.00102994
0.0495484
0.00230724
0.0506095
-0.00142271
0.0502005
0.00186427
0.0496992
4.58191e-05
0.0510851
-0.000322386
0.0497476
0.00176131
0.0499011
0.000443194
0.0520348
-0.00282505
0.0468759
0.00907413
0.0535246
-0.0111738
0.0436677
0.0187959
0.0491872
-0.00929373
0.0518137
0.00348605
0.0339077
0.0211691
-0.0494188
0.05899
0.0500975
2.83412e-05
0.0500937
0.000877476
0.050214
-0.000421221
0.0501373
0.0015772
0.0504206
-0.00131334
0.0501854
0.00254254
0.0506824
-0.00191975
0.0502248
0.00232185
0.0508313
-0.000560627
0.0504456
6.32346e-05
0.0506483
0.00155866
0.050734
0.000357496
0.051
-0.00309103
0.0494241
0.01065
0.0545123
-0.016262
0.0485539
0.0247542
0.0534223
-0.0141622
0.0638176
-0.00690924
0.0454426
0.0395441
-0.054735
0.0507588
0.0501293
-0.000100951
0.0500327
0.00097406
0.0502966
-0.000685071
0.0500094
0.00186437
0.0504855
-0.00178941
0.0501384
0.0028896
0.0504359
-0.00221728
0.0505787
0.00217908
0.0501901
-0.000171997
0.0508823
-0.000629037
0.0505582
0.00188274
0.0504164
0.000499301
0.0510626
-0.00373714
0.0508677
0.0108449
0.0511036
-0.0164978
0.0535992
0.0222586
0.0537877
-0.0143507
0.0572592
-0.0103808
0.0529813
0.043822
-0.0555859
0.0538322
0.0500485
-0.00014946
0.0501059
0.000916683
0.0501462
-0.000725398
0.050216
0.00179461
0.0502657
-0.00183917
0.0503354
0.00281993
0.050499
-0.00238084
0.0503097
0.00236834
0.0508709
-0.000733238
0.0502146
2.7346e-05
0.0509714
0.00112593
0.0506667
0.000803931
0.0503587
-0.00342908
0.051823
0.0093806
0.0504232
-0.015098
0.053177
0.0195048
0.0519557
-0.0131294
0.0528752
-0.0113003
0.0539354
0.0427618
-0.0527217
0.0510712
0.0500533
-0.000202766
0.0500846
0.000885386
0.0501596
-0.000800436
0.0501799
0.00177432
0.0502461
-0.00190533
0.0503406
0.00272543
0.0502713
-0.00231159
0.0505191
0.00212062
0.0503299
-0.000544098
0.0505934
-0.000236097
0.050573
0.00114626
0.0506392
0.000737787
0.0503892
-0.00317915
0.0517427
0.00802717
0.0488649
-0.0122202
0.0532227
0.015147
0.0497695
-0.00967614
0.048758
-0.0102889
0.0548028
0.036717
-0.0458881
0.0479692
0.0500263
-0.000229051
0.0500955
0.000816144
0.0501228
-0.000827758
0.0502211
0.00167608
0.0502128
-0.00189705
0.0503389
0.00259937
0.0503821
-0.00235476
0.0503545
0.00214813
0.0506715
-0.000861085
0.0502949
0.000140575
0.050785
0.000656121
0.0507167
0.000806111
0.0502258
-0.00268831
0.0517645
0.00648855
0.0492491
-0.00970483
0.0525091
0.0118869
0.0493625
-0.0065295
0.0494598
-0.0103862
0.0543886
0.0317882
-0.0374142
0.0459147
0.0500183
-0.000247391
0.0500997
0.000734816
0.050099
-0.000827065
0.0502475
0.00152757
0.0501442
-0.00179377
0.0504151
0.0023285
0.0502076
-0.00214731
0.0504951
0.00186062
0.050412
-0.000777986
0.0504416
0.000110986
0.0506753
0.000422444
0.0505865
0.000894877
0.0504393
-0.00254108
0.0514883
0.00543953
0.0492432
-0.00745969
0.052712
0.00841814
0.0495556
-0.0033731
0.0492008
-0.0100313
0.0541967
0.0267923
-0.0290372
0.0458197
0.0500113
-0.00025869
0.0500945
0.000651649
0.0500991
-0.000831658
0.0502359
0.00139072
0.0501667
-0.00172455
0.0503608
0.00213441
0.0502816
-0.00206816
0.0504132
0.00172904
0.0504679
-0.000832694
0.0504564
0.000122467
0.0505085
0.000370336
0.0508506
0.000552849
0.0501283
-0.00181882
0.0516021
0.00396572
0.0494535
-0.00531105
0.0520856
0.00578604
0.0497254
-0.00101291
0.050281
-0.0105869
0.0531283
0.0239449
-0.0224001
0.0464912
0.0500044
-0.000263062
0.0501012
0.000554869
0.0500813
-0.000811767
0.050258
0.00121399
0.0501276
-0.00159413
0.0504044
0.00185762
0.0502203
-0.00188415
0.0504551
0.00149426
0.0504547
-0.000832262
0.050391
0.000186203
0.0506584
0.000102934
0.0506507
0.000560488
0.0503812
-0.00154935
0.0513006
0.00304633
0.0497054
-0.00371584
0.0519531
0.00353835
0.0499547
0.000985459
0.049888
-0.0105202
0.0536604
0.0201725
-0.0175478
0.0488081
0.0500024
-0.000265454
0.0501002
0.000457093
0.050083
-0.000794562
0.0502517
0.00104521
0.0501364
-0.00147883
0.0503882
0.00160584
0.0502275
-0.00172341
0.0504569
0.00126481
0.0503734
-0.000748702
0.0505429
1.67039e-05
0.0504596
0.000186176
0.0507779
0.000242218
0.0503215
-0.00109291
0.0512383
0.00212947
0.0499074
-0.00238493
0.0515854
0.00186038
0.050421
0.00214982
0.0499122
-0.0100113
0.0526627
0.0174219
-0.0135178
0.0486328
0.05
-0.00026545
0.0501054
0.000351673
0.0500787
-0.000767845
0.0502576
0.000866336
0.0501316
-0.00135283
0.0503932
0.00134423
0.0502291
-0.00155938
0.0504448
0.00104912
0.0504436
-0.000747451
0.0504204
3.99007e-05
0.050589
1.75826e-05
0.0507224
0.000108844
0.0503504
-0.000720959
0.0511812
0.00129865
0.0500964
-0.00130009
0.0513503
0.000606489
0.0505659
0.00293423
0.0496893
-0.0091347
0.0529293
0.0141819
-0.0098563
0.0492678
0.0500006
-0.000266021
0.05011
0.000242199
0.0500803
-0.000738073
0.0502578
0.000688815
0.050136
-0.00123104
0.0503926
0.00108764
0.0502287
-0.00139552
0.050462
0.000815836
0.0503731
-0.000658521
0.0505427
-0.000129735
0.050495
6.52604e-05
0.0507096
-0.000105706
0.0504869
-0.000498243
0.0509842
0.00080131
0.0502822
-0.000598046
0.0511522
-0.000263549
0.0509226
0.00316385
0.0496563
-0.00786837
0.0522372
0.011601
-0.00750431
0.0498852
0.0500026
-0.000268574
0.0501172
0.000127579
0.0500823
-0.000703213
0.0502598
0.000511306
0.0501424
-0.0011136
0.0503926
0.000837417
0.0502419
-0.00124476
0.0504505
0.000607155
0.0504302
-0.000638225
0.0504635
-0.000162962
0.0505692
-4.04477e-05
0.0507228
-0.000259375
0.0504476
-0.000222962
0.050997
0.000251906
0.0504463
-4.73539e-05
0.0509215
-0.000738758
0.051061
0.00302433
0.0497536
-0.00656094
0.052218
0.00913651
-0.00509191
0.0498056
0.0500072
-0.000275751
0.0501257
9.03644e-06
0.0500859
-0.000663413
0.050262
0.000335273
0.0501515
-0.00100317
0.0503952
0.000593765
0.0502508
-0.00110035
0.0504594
0.000398486
0.0504057
-0.000584471
0.0505212
-0.000278506
0.0505508
-6.99793e-05
0.0506678
-0.000376378
0.0506222
-0.000177354
0.0508282
4.58955e-05
0.0505984
0.000182425
0.0508196
-0.000960017
0.0511481
0.0026959
0.0498
-0.0052129
0.0519071
0.00702945
-0.00352932
0.0503445
0.0500144
-0.000290176
0.050136
-0.000112525
0.0500903
-0.00061769
0.050266
0.000159547
0.0501628
-0.000899977
0.050399
0.000357529
0.0502661
-0.000967396
0.0504569
0.000207615
0.0504403
-0.00056778
0.0504911
-0.000329377
0.0505929
-0.000171755
0.0506987
-0.000482219
0.0505849
-6.34973e-05
0.0508387
-0.000207963
0.0507004
0.000320812
0.0506956
-0.000955287
0.0511867
0.00220479
0.0499476
-0.00397375
0.0517562
0.00522082
-0.00217403
0.0504009
0.0500255
-0.000315635
0.0501467
-0.000233777
0.0500959
-0.000566832
0.0502714
-1.60095e-05
0.0501772
-0.000805731
0.0504056
0.000129126
0.0502815
-0.000843285
0.0504633
2.57392e-05
0.0504472
-0.000551663
0.0505103
-0.000392471
0.0506129
-0.000274301
0.0506514
-0.000520723
0.0507101
-0.000122207
0.0507456
-0.000243528
0.0507837
0.000282742
0.0506563
-0.000827861
0.0511746
0.00168651
0.0500347
-0.00283385
0.0515891
0.00366639
-0.001293
0.0507081
0.0500409
-0.000356564
0.050156
-0.000348809
0.0501007
-0.00051159
0.0502798
-0.000195113
0.0501904
-0.00071627
0.0504136
-9.41577e-05
0.050295
-0.000724652
0.0504677
-0.000146942
0.0504615
-0.00054551
0.0505041
-0.000435056
0.0506283
-0.00039843
0.0506674
-0.000559876
0.0506931
-0.000147863
0.0507358
-0.00028624
0.0508313
0.000187228
0.050599
-0.000595614
0.0511663
0.00111921
0.0501338
-0.00180128
0.051469
0.00233114
-0.000670411
0.0508464
0.0500611
-0.000417639
0.0501461
-0.000433877
0.0501
-0.000465424
0.050252
-0.00034718
0.0501462
-0.000610403
0.0503392
-0.000287139
0.0502047
-0.000590238
0.0503573
-0.000299537
0.0502895
-0.000477673
0.0503003
-0.000445811
0.0503644
-0.000462583
0.050333
-0.000528447
0.0504282
-0.000243046
0.0504022
-0.000260294
0.0505642
2.52125e-05
0.050322
-0.000353389
0.0509036
0.000537584
0.0499657
-0.000863347
0.0511875
0.00110934
-0.000275985
0.0507931
0.0495824
0.0491485
0.0486831
0.0483359
0.0477255
0.0474383
0.0468481
0.0465486
0.0460709
0.0456251
0.0451625
0.044634
0.044391
0.0441307
0.0441559
0.0438025
0.0443401
0.0434768
0.0445861
0.0443101
0.0312412
-0.024016
0.0481251
0.0327599
0.114496
-0.116015
0.0451657
-0.00972159
-0.00268418
0.0444087
-0.097535
0.098292
0.0382114
-0.11431
0.120507
0.0324657
-0.0975816
0.103327
0.0287873
-0.0736395
0.0773179
0.027427
-0.0529125
0.0542728
0.0265961
-0.0368341
0.0376649
0.026013
-0.025336
0.0259192
0.0256728
-0.0172606
0.0176007
0.0254677
-0.0116847
0.0118899
0.0253418
-0.00787717
0.0080031
0.0252684
-0.00528341
0.00535677
0.0252277
-0.00352408
0.00356481
0.0252055
-0.00233855
0.00236075
0.0251933
-0.00154494
0.00155709
0.0251866
-0.00101677
0.00102352
0.0251828
-0.000666906
0.000670724
0.0251805
-0.000436027
0.000438231
0.0251793
-0.000284212
0.00028551
0.0251785
-0.000184704
0.000185482
0.025178
-0.000119668
0.000120142
0.0251777
-7.7309e-05
7.76011e-05
0.0251775
-4.9796e-05
4.99775e-05
0.0251774
-3.19777e-05
3.20913e-05
0.0251773
-2.04764e-05
2.05482e-05
0.0251773
-1.30716e-05
1.31166e-05
0.0251773
-8.32157e-06
8.3498e-06
0.0251772
-5.28024e-06
5.2982e-06
0.0251772
-3.34172e-06
3.3527e-06
0.0251772
-2.10789e-06
2.11492e-06
0.0251772
-1.32463e-06
1.32993e-06
0.0251772
-8.32243e-07
8.34159e-07
0.0251772
-5.19723e-07
5.21268e-07
0.0251772
-3.23696e-07
3.25544e-07
0.0251772
-2.00632e-07
2.01317e-07
0.0251772
-1.24301e-07
1.24279e-07
0.0251772
-7.7326e-08
7.81753e-08
0.0251772
-4.68111e-08
4.73955e-08
0.0251772
-2.99786e-08
2.94629e-08
0.0251772
-1.80683e-08
1.76273e-08
0.0251772
-1.01523e-08
1.01594e-08
0.0251772
-7.54197e-09
7.90503e-09
0.0251772
-2.78289e-09
2.96035e-09
0.0251772
-2.97701e-09
2.75118e-09
0.0251772
-1.73367e-09
1.91149e-09
0.0251772
9.12823e-11
3.5319e-11
0.0251772
-4.56967e-10
5.45149e-11
0.0251772
-2.00978e-09
1.69204e-09
0.0251772
1.07106e-09
-1.06488e-09
0.0251772
-3.85026e-11
1.06404e-10
0.0251772
-1.91071e-09
2.07614e-09
0.0251772
2.55119e-09
-2.35512e-09
0.0251772
-2.45609e-09
2.22641e-09
0.0251772
1.02297e-09
-1.1583e-09
0.0251772
6.73886e-10
-4.42495e-10
0.0251772
-9.01808e-10
1.0469e-09
0.0251772
1.91532e-09
-1.84831e-09
0.0251772
-2.08514e-09
2.04114e-09
0.0251772
1.98213e-09
-2.09592e-09
0.0251772
-2.04664e-10
3.94765e-10
0.0251772
-1.15678e-09
1.50573e-09
0.0251772
3.08299e-09
-2.91894e-09
0.0251772
-2.11941e-09
1.94331e-09
0.0251772
-5.11031e-10
2.56916e-10
0.0251772
2.56581e-09
-2.6719e-09
0.0251772
-2.29329e-09
2.3315e-09
0.0251772
3.00908e-10
-1.02849e-10
0.0251772
2.37897e-09
-2.37709e-09
0.0251772
-3.42308e-09
3.19257e-09
0.0251772
8.14171e-10
-1.09473e-09
0.0251772
3.26202e-09
-3.35043e-09
0.0251772
-4.45188e-09
4.50471e-09
0.0251772
4.07556e-10
-2.01375e-10
0.0251772
4.86383e-09
-4.62468e-09
0.0251772
-2.86025e-09
3.0046e-09
0.0251772
-3.04395e-09
3.03106e-09
0.0251772
4.26338e-09
-4.42803e-09
0.0251772
6.4358e-10
-6.88447e-10
0.0251772
-4.63207e-09
4.66882e-09
0.0251772
-2.44498e-10
3.01583e-10
0.0251772
2.30574e-09
-2.31283e-09
0.0251772
-4.25037e-10
2.66771e-10
0.0251772
-3.85141e-09
3.65036e-09
0.0251772
-6.01582e-10
6.04777e-10
0.0251772
1.90123e-09
-1.71352e-09
0.0251772
1.67014e-09
-1.37931e-09
0.0251772
-9.43503e-10
1.04241e-09
0.0251772
-3.31145e-09
3.24535e-09
0.0251772
-2.44847e-10
3.43754e-11
0.0251772
3.08524e-09
-3.10476e-09
0.0251772
2.56564e-09
-2.5427e-09
0.0251772
-3.30951e-10
4.49264e-10
0.0251772
-2.15105e-09
2.08625e-09
0.0251772
1.05615e-09
-1.39699e-09
0.0251772
1.02513e-09
-1.05002e-09
0.0251772
3.66106e-13
1.84931e-11
0.0251772
-4.7337e-10
5.70115e-10
-6.73889e-10
7.85448e-10
0.0465162
-0.0115422
0.0407843
0.120228
0.0493178
-0.0182552
0.0468052
-0.0950223
0.0401674
-0.107672
0.0346573
-0.0920715
0.0302948
-0.0692771
0.0280338
-0.0506515
0.0270895
-0.0358897
0.0263931
-0.0246396
0.0259027
-0.0167701
0.0256101
-0.0113922
0.025438
-0.00770505
0.0253344
-0.00517981
0.0252721
-0.00346176
0.0252349
-0.00230132
0.0252126
-0.00152268
0.0251992
-0.00100333
0.0251909
-0.000658684
0.0251859
-0.00043095
0.0251827
-0.000281037
0.0251807
-0.000182698
0.0251794
-0.000118405
0.0251786
-7.65035e-05
0.0251781
-4.92825e-05
0.0251778
-3.16541e-05
0.0251776
-2.02693e-05
0.0251774
-1.29384e-05
0.0251774
-8.23654e-06
0.0251773
-5.23045e-06
0.0251773
-3.30781e-06
0.0251773
-2.08384e-06
0.0251772
-1.31344e-06
0.0251772
-8.23491e-07
0.0251772
-5.12696e-07
0.0251772
-3.19065e-07
0.0251772
-2.00201e-07
0.0251772
-1.22691e-07
0.0251772
-7.36615e-08
0.0251772
-4.87632e-08
0.0251772
-3.3266e-08
0.0251772
-1.80594e-08
0.0251772
-8.46821e-09
0.0251772
-4.38727e-09
0.0251772
-3.79433e-09
0.0251772
-4.35844e-09
0.0251772
1.00231e-09
0.0251772
1.0501e-09
0.0251772
-4.71677e-09
0.0251772
-2.46781e-09
0.0251772
8.02423e-10
0.0251772
7.74743e-10
0.0251772
1.01885e-09
0.0251772
-1.57371e-09
0.0251772
-3.98573e-09
0.0251772
7.2894e-10
0.0251772
2.60098e-09
0.0251772
-5.85221e-10
0.0251772
-8.50309e-10
0.0251772
-1.65639e-09
0.0251772
1.70251e-10
0.0251772
3.82041e-09
0.0251772
2.47414e-09
0.0251772
-2.49128e-10
0.0251772
-2.61631e-09
0.0251772
-2.68267e-09
0.0251772
7.43221e-10
0.0251772
2.32798e-09
0.0251772
1.3945e-09
0.0251772
-5.00364e-10
0.0251772
-2.88802e-09
0.0251772
-2.4686e-09
0.0251772
1.45854e-10
0.0251772
1.3358e-09
0.0251772
1.83023e-09
0.0251772
2.26937e-09
0.0251772
5.9835e-10
0.0251772
-1.42899e-09
0.0251772
-1.68506e-09
0.0251772
-7.98952e-10
0.0251772
6.48045e-10
0.0251772
1.08966e-09
0.0251772
-6.00453e-10
0.0251772
-2.77e-09
0.0251772
-2.59064e-09
0.0251772
-7.935e-10
0.0251772
1.3609e-09
0.0251772
1.80514e-09
0.0251772
5.26279e-10
0.0251772
-3.34817e-10
0.0251772
-3.63351e-10
0.0251772
5.44223e-10
0.0251772
5.28796e-10
0.0251772
4.3005e-10
0.0251772
-7.33399e-10
0.0251772
-9.12844e-10
0.0251772
1.81506e-10
0.0251772
1.0547e-09
0.0251772
1.14975e-09
2.77581e-10
0.0504684
-0.0112517
0.0514296
0.119267
0.0524535
-0.0192791
0.0470569
-0.0896257
0.0399035
-0.100518
0.0349936
-0.0871616
0.0317304
-0.0660138
0.0289038
-0.0478249
0.0274703
-0.0344562
0.0267248
-0.0238942
0.0261637
-0.016209
0.0257744
-0.0110028
0.0255377
-0.00746839
0.0253983
-0.00504041
0.0253146
-0.00337805
0.0252633
-0.00224999
0.0252314
-0.00149085
0.0252115
-0.000983443
0.025199
-0.000646179
0.0251911
-0.000423042
0.0251861
-0.000276009
0.0251829
-0.00017949
0.0251808
-0.000116356
0.0251795
-7.51917e-05
0.0251787
-4.84442e-05
0.0251782
-3.11183e-05
0.0251778
-1.99265e-05
0.0251776
-1.27208e-05
0.0251775
-8.09818e-06
0.0251774
-5.14279e-06
0.0251773
-3.25212e-06
0.0251773
-2.04874e-06
0.0251773
-1.29122e-06
0.0251772
-8.10014e-07
0.0251772
-5.04384e-07
0.0251772
-3.1349e-07
0.0251772
-1.96158e-07
0.0251772
-1.21086e-07
0.0251772
-7.24293e-08
0.0251772
-4.79464e-08
0.0251772
-3.28675e-08
0.0251772
-1.7628e-08
0.0251772
-8.47023e-09
0.0251772
-4.15607e-09
0.0251772
-3.55057e-09
0.0251772
-4.58797e-09
0.0251772
1.04224e-09
0.0251772
1.28829e-09
0.0251772
-5.19467e-09
0.0251772
-2.47049e-09
0.0251772
1.03304e-09
0.0251772
5.46668e-10
0.0251772
1.05945e-09
0.0251772
-1.46182e-09
0.0251772
-3.89412e-09
0.0251772
5.34647e-10
0.0251772
2.87876e-09
0.0251772
-6.93811e-10
0.0251772
-8.90071e-10
0.0251772
-1.2748e-09
0.0251772
-3.79182e-11
0.0251772
3.8149e-09
0.0251772
2.75142e-09
0.0251772
-4.12943e-10
0.0251772
-2.5357e-09
0.0251772
-2.58744e-09
0.0251772
4.9444e-10
0.0251772
2.40813e-09
0.0251772
1.37917e-09
0.0251772
-7.04674e-10
0.0251772
-2.71014e-09
0.0251772
-2.5882e-09
0.0251772
-5.47446e-11
0.0251772
1.58787e-09
0.0251772
1.85952e-09
0.0251772
2.0736e-09
0.0251772
8.95581e-10
0.0251772
-1.16591e-09
0.0251772
-2.03458e-09
0.0251772
-9.07736e-10
0.0251772
9.31971e-10
0.0251772
1.11729e-09
0.0251772
-9.27938e-10
0.0251772
-2.92636e-09
0.0251772
-2.49635e-09
0.0251772
-5.17885e-10
0.0251772
1.42354e-09
0.0251772
1.80079e-09
0.0251772
5.05112e-10
0.0251772
-3.28465e-10
0.0251772
-4.68409e-10
0.0251772
4.5505e-10
0.0251772
4.46502e-10
0.0251772
6.06302e-10
0.0251772
-5.15495e-10
0.0251772
-1.14106e-09
0.0251772
2.41245e-10
0.0251772
9.884e-10
0.0251772
9.46076e-10
2.19886e-10
0.0548043
-0.0122238
0.0597671
0.114304
0.0549465
-0.0144584
0.0475686
-0.0822479
0.0394894
-0.0924392
0.0337444
-0.0814167
0.0316751
-0.0639445
0.0298695
-0.0460193
0.0280054
-0.0325921
0.0269242
-0.022813
0.0263292
-0.015614
0.0259252
-0.0105989
0.025647
-0.00719015
0.0254688
-0.00486226
0.0253592
-0.00326841
0.0252919
-0.00218265
0.02525
-0.00144899
0.0252237
-0.000957104
0.025207
-0.000629458
0.0251963
-0.000412366
0.0251894
-0.000269169
0.025185
-0.0001751
0.0251822
-0.000113538
0.0251804
-7.33831e-05
0.0251793
-4.72847e-05
0.0251785
-3.03759e-05
0.025178
-1.94517e-05
0.0251777
-1.24186e-05
0.0251775
-7.90623e-06
0.0251774
-5.02053e-06
0.0251773
-3.17475e-06
0.0251773
-2.00008e-06
0.0251773
-1.26079e-06
0.0251773
-7.90941e-07
0.0251772
-4.92479e-07
0.0251772
-3.05978e-07
0.0251772
-1.91183e-07
0.0251772
-1.18361e-07
0.0251772
-7.10357e-08
0.0251772
-4.71182e-08
0.0251772
-3.18215e-08
0.0251772
-1.64455e-08
0.0251772
-8.57089e-09
0.0251772
-4.40264e-09
0.0251772
-3.23928e-09
0.0251772
-4.54327e-09
0.0251772
9.72876e-10
0.0251772
1.23954e-09
0.0251772
-5.39536e-09
0.0251772
-2.17943e-09
0.0251772
1.40349e-09
0.0251772
7.39122e-11
0.0251772
8.24403e-10
0.0251772
-1.2761e-09
0.0251772
-3.53465e-09
0.0251772
6.55297e-10
0.0251772
2.5484e-09
0.0251772
-7.08206e-10
0.0251772
-9.33925e-10
0.0251772
-7.72922e-10
0.0251772
3.00749e-11
0.0251772
3.37293e-09
0.0251772
2.69348e-09
0.0251772
-4.98787e-10
0.0251772
-2.28387e-09
0.0251772
-2.27622e-09
0.0251772
3.95264e-10
0.0251772
2.2461e-09
0.0251772
1.09051e-09
0.0251772
-8.18861e-10
0.0251772
-2.37437e-09
0.0251772
-2.37953e-09
0.0251772
-1.22298e-10
0.0251772
1.55056e-09
0.0251772
1.66783e-09
0.0251772
1.94205e-09
0.0251772
1.09665e-09
0.0251772
-1.09824e-09
0.0251772
-2.00768e-09
0.0251772
-7.92673e-10
0.0251772
8.99349e-10
0.0251772
9.03825e-10
0.0251772
-1.07523e-09
0.0251772
-2.89807e-09
0.0251772
-2.3143e-09
0.0251772
-3.00942e-10
0.0251772
1.57382e-09
0.0251772
1.74471e-09
0.0251772
3.32831e-10
0.0251772
-5.35636e-10
0.0251772
-5.89925e-10
0.0251772
5.52221e-10
0.0251772
4.9332e-10
0.0251772
7.2455e-10
0.0251772
-3.43509e-10
0.0251772
-1.23577e-09
0.0251772
4.56211e-10
0.0251772
8.56873e-10
0.0251772
5.39821e-10
9.53642e-11
0.0536278
-0.0147803
0.0642081
0.103723
0.0577745
-0.00802477
0.0490505
-0.073524
0.0406005
-0.0839891
0.0339057
-0.0747218
0.0305905
-0.0606294
0.0298436
-0.0452724
0.028772
-0.0315204
0.0273989
-0.02144
0.0264773
-0.0146923
0.025984
-0.0101057
0.0257002
-0.00690633
0.0255178
-0.00467988
0.0253973
-0.00314788
0.0253186
-0.00210398
0.0252679
-0.00139832
0.0252355
-0.000924641
0.0252147
-0.000608645
0.0252013
-0.000398994
0.0251927
-0.000260563
0.0251871
-0.000169558
0.0251836
-0.000109971
0.0251813
-7.10899e-05
0.0251798
-4.58118e-05
0.0251789
-2.9432e-05
0.0251783
-1.88481e-05
0.0251779
-1.2034e-05
0.0251776
-7.66152e-06
0.0251775
-4.86478e-06
0.0251774
-3.07631e-06
0.0251773
-1.93814e-06
0.0251773
-1.22201e-06
0.0251773
-7.66579e-07
0.0251772
-4.77175e-07
0.0251772
-2.96467e-07
0.0251772
-1.85007e-07
0.0251772
-1.15146e-07
0.0251772
-6.92946e-08
0.0251772
-4.54983e-08
0.0251772
-3.03726e-08
0.0251772
-1.54822e-08
0.0251772
-8.57466e-09
0.0251772
-4.55485e-09
0.0251772
-2.8455e-09
0.0251772
-4.54479e-09
0.0251772
7.29336e-10
0.0251772
1.44747e-09
0.0251772
-5.4407e-09
0.0251772
-2.18387e-09
0.0251772
1.65254e-09
0.0251772
-1.37395e-10
0.0251772
5.68278e-10
0.0251772
-9.85171e-10
0.0251772
-3.24917e-09
0.0251772
4.50406e-10
0.0251772
2.54133e-09
0.0251772
-7.47994e-10
0.0251772
-9.13461e-10
0.0251772
-4.69003e-10
0.0251772
3.14873e-11
0.0251772
3.07186e-09
0.0251772
2.59024e-09
0.0251772
-4.19535e-10
0.0251772
-2.13539e-09
0.0251772
-2.0726e-09
0.0251772
3.62921e-10
0.0251772
2.01192e-09
0.0251772
9.0765e-10
0.0251772
-7.90306e-10
0.0251772
-2.18142e-09
0.0251772
-2.22589e-09
0.0251772
-1.43404e-10
0.0251772
1.41894e-09
0.0251772
1.56268e-09
0.0251772
1.91286e-09
0.0251772
1.13109e-09
0.0251772
-9.85705e-10
0.0251772
-1.92629e-09
0.0251772
-7.51716e-10
0.0251772
8.26763e-10
0.0251772
7.76643e-10
0.0251772
-1.14362e-09
0.0251772
-2.85788e-09
0.0251772
-2.19711e-09
0.0251772
-8.55216e-11
0.0251772
1.63965e-09
0.0251772
1.69473e-09
0.0251772
1.77646e-10
0.0251772
-6.72678e-10
0.0251772
-6.75541e-10
0.0251772
6.84126e-10
0.0251772
4.98977e-10
0.0251772
8.09615e-10
0.0251772
-2.07823e-10
0.0251772
-1.38287e-09
0.0251772
6.51219e-10
0.0251772
7.30666e-10
0.0251772
1.894e-10
-2.22247e-11
0.0450274
-0.0118385
0.0581317
0.0906192
0.0574019
-0.00729501
0.0525445
-0.0686666
0.0456384
-0.077083
0.0390094
-0.0680929
0.0329176
-0.0545375
0.0294135
-0.0417683
0.0284977
-0.0306045
0.0278687
-0.020811
0.0269969
-0.0138206
0.0262804
-0.00938911
0.025838
-0.0064639
0.0255852
-0.00442718
0.0254362
-0.00299887
0.0253438
-0.00201155
0.0252848
-0.00133929
0.0252467
-0.000886557
0.0252221
-0.000584015
0.0252061
-0.000383062
0.0251958
-0.000250264
0.0251892
-0.000162906
0.0251849
-0.000105681
0.0251821
-6.83278e-05
0.0251804
-4.40357e-05
0.0251792
-2.82929e-05
0.0251785
-1.81197e-05
0.025178
-1.15695e-05
0.0251777
-7.36576e-06
0.0251775
-4.67666e-06
0.0251774
-2.95734e-06
0.0251773
-1.8634e-06
0.0251773
-1.17523e-06
0.0251773
-7.36985e-07
0.0251772
-4.58513e-07
0.0251772
-2.85062e-07
0.0251772
-1.77863e-07
0.0251772
-1.1121e-07
0.0251772
-6.69776e-08
0.0251772
-4.34893e-08
0.0251772
-2.87604e-08
0.0251772
-1.42691e-08
0.0251772
-8.48782e-09
0.0251772
-4.80356e-09
0.0251772
-2.48617e-09
0.0251772
-4.47467e-09
0.0251772
5.13104e-10
0.0251772
1.58245e-09
0.0251772
-5.4613e-09
0.0251772
-2.12992e-09
0.0251772
1.98463e-09
0.0251772
-4.0567e-10
0.0251772
2.97799e-10
0.0251772
-7.29101e-10
0.0251772
-2.99605e-09
0.0251772
4.68015e-10
0.0251772
2.32493e-09
0.0251772
-7.27199e-10
0.0251772
-9.29526e-10
0.0251772
-1.72934e-10
0.0251772
1.42618e-10
0.0251772
2.6881e-09
0.0251772
2.48479e-09
0.0251772
-4.20631e-10
0.0251772
-1.98799e-09
0.0251772
-1.80554e-09
0.0251772
3.35865e-10
0.0251772
1.80695e-09
0.0251772
7.13954e-10
0.0251772
-8.70582e-10
0.0251772
-1.91286e-09
0.0251772
-2.00182e-09
0.0251772
-2.07614e-10
0.0251772
1.33643e-09
0.0251772
1.45671e-09
0.0251772
1.78308e-09
0.0251772
1.20849e-09
0.0251772
-9.03772e-10
0.0251772
-1.86393e-09
0.0251772
-6.65078e-10
0.0251772
7.89072e-10
0.0251772
6.14972e-10
0.0251772
-1.23831e-09
0.0251772
-2.79289e-09
0.0251772
-2.00306e-09
0.0251772
1.00524e-10
0.0251772
1.71371e-09
0.0251772
1.59187e-09
0.0251772
2.16289e-11
0.0251772
-7.8292e-10
0.0251772
-7.41109e-10
0.0251772
7.78292e-10
0.0251772
4.7746e-10
0.0251772
8.96427e-10
0.0251772
-8.92007e-11
0.0251772
-1.48943e-09
0.0251772
9.16135e-10
0.0251772
6.16084e-10
0.0251772
-2.06071e-10
-1.44254e-10
0.0406834
-0.00660728
0.0552083
0.0760943
0.0566077
-0.00869438
0.051012
-0.0630709
0.0442309
-0.0703019
0.0394405
-0.0633024
0.0367394
-0.0518364
0.0323786
-0.0374075
0.0285101
-0.0267361
0.0269573
-0.0192582
0.0265001
-0.0133634
0.0261913
-0.00908031
0.0258889
-0.00616151
0.0256465
-0.00418479
0.0254795
-0.00283182
0.0253712
-0.00190331
0.0253021
-0.00127014
0.0252578
-0.000842253
0.0252292
-0.000555473
0.0252108
-0.00036461
0.0251989
-0.000238326
0.0251911
-0.000155185
0.0251862
-0.000100695
0.0251829
-6.5115e-05
0.0251809
-4.19686e-05
0.0251795
-2.69662e-05
0.0251787
-1.72713e-05
0.0251782
-1.10283e-05
0.0251778
-7.02094e-06
0.0251776
-4.4573e-06
0.0251775
-2.81872e-06
0.0251774
-1.77645e-06
0.0251773
-1.1206e-06
0.0251773
-7.0233e-07
0.0251773
-4.36714e-07
0.0251772
-2.71844e-07
0.0251772
-1.69757e-07
0.0251772
-1.06562e-07
0.0251772
-6.41278e-08
0.0251772
-4.10547e-08
0.0251772
-2.68471e-08
0.0251772
-1.31072e-08
0.0251772
-8.35056e-09
0.0251772
-5.0276e-09
0.0251772
-2.09417e-09
0.0251772
-4.3322e-09
0.0251772
2.03784e-10
0.0251772
1.77732e-09
0.0251772
-5.33052e-09
0.0251772
-2.19792e-09
0.0251772
2.20601e-09
0.0251772
-5.35979e-10
0.0251772
5.94732e-11
0.0251772
-4.9505e-10
0.0251772
-2.69399e-09
0.0251772
2.73323e-10
0.0251772
2.26072e-09
0.0251772
-6.72345e-10
0.0251772
-9.59154e-10
0.0251772
2.59287e-11
0.0251772
1.92551e-10
0.0251772
2.41396e-09
0.0251772
2.33552e-09
0.0251772
-3.47739e-10
0.0251772
-1.84245e-09
0.0251772
-1.64109e-09
0.0251772
3.26922e-10
0.0251772
1.62203e-09
0.0251772
5.2062e-10
0.0251772
-8.19991e-10
0.0251772
-1.70199e-09
0.0251772
-1.85709e-09
0.0251772
-2.45814e-10
0.0251772
1.22902e-09
0.0251772
1.35646e-09
0.0251772
1.72891e-09
0.0251772
1.21122e-09
0.0251772
-8.25993e-10
0.0251772
-1.77598e-09
0.0251772
-6.10292e-10
0.0251772
7.41458e-10
0.0251772
4.94093e-10
0.0251772
-1.28121e-09
0.0251772
-2.68471e-09
0.0251772
-1.84832e-09
0.0251772
2.58546e-10
0.0251772
1.71021e-09
0.0251772
1.48988e-09
0.0251772
-1.01839e-10
0.0251772
-8.27802e-10
0.0251772
-7.94516e-10
0.0251772
8.98741e-10
0.0251772
4.24547e-10
0.0251772
9.56491e-10
0.0251772
1.39809e-11
0.0251772
-1.65715e-09
0.0251772
1.19509e-09
0.0251772
4.78357e-10
0.0251772
-5.6588e-10
-2.32475e-10
0.0414264
-0.0022139
0.0553466
0.0621741
0.0562036
-0.00955138
0.051628
-0.0584953
0.0445788
-0.0632528
0.0355402
-0.0542638
0.0324406
-0.0487368
0.0335577
-0.0385246
0.0322447
-0.0254231
0.0293214
-0.0163348
0.0272978
-0.0113398
0.0263493
-0.00813178
0.0259094
-0.00572166
0.0256615
-0.00393685
0.0254996
-0.00266996
0.02539
-0.00179366
0.0253164
-0.00119659
0.0252678
-0.000793636
0.0252359
-0.000523638
0.0252152
-0.000343868
0.0252017
-0.000224853
0.025193
-0.000146454
0.0251873
-9.50484e-05
0.0251837
-6.14731e-05
0.0251814
-3.96242e-05
0.0251799
-2.54609e-05
0.0251789
-1.63085e-05
0.0251783
-1.0414e-05
0.0251779
-6.62931e-06
0.0251776
-4.20821e-06
0.0251775
-2.66147e-06
0.0251774
-1.67778e-06
0.0251773
-1.05844e-06
0.0251773
-6.62884e-07
0.0251773
-4.11938e-07
0.0251772
-2.56943e-07
0.0251772
-1.60723e-07
0.0251772
-1.01124e-07
0.0251772
-6.07276e-08
0.0251772
-3.82521e-08
0.0251772
-2.48069e-08
0.0251772
-1.19114e-08
0.0251772
-8.12622e-09
0.0251772
-5.25188e-09
0.0251772
-1.69646e-09
0.0251772
-4.11609e-09
0.0251772
-1.35723e-10
0.0251772
1.9409e-09
0.0251772
-5.13904e-09
0.0251772
-2.24989e-09
0.0251772
2.4261e-09
0.0251772
-6.24448e-10
0.0251772
-2.23408e-10
0.0251772
-2.4339e-10
0.0251772
-2.44857e-09
0.0251772
1.9824e-10
0.0251772
2.10573e-09
0.0251772
-6.16744e-10
0.0251772
-9.58126e-10
0.0251772
1.75276e-10
0.0251772
3.04171e-10
0.0251772
2.11258e-09
0.0251772
2.17214e-09
0.0251772
-3.18917e-10
0.0251772
-1.7172e-09
0.0251772
-1.43485e-09
0.0251772
3.38217e-10
0.0251772
1.42476e-09
0.0251772
3.66666e-10
0.0251772
-8.37924e-10
0.0251772
-1.48176e-09
0.0251772
-1.65945e-09
0.0251772
-2.83354e-10
0.0251772
1.12253e-09
0.0251772
1.28858e-09
0.0251772
1.61117e-09
0.0251772
1.19686e-09
0.0251772
-7.51382e-10
0.0251772
-1.69297e-09
0.0251772
-5.25448e-10
0.0251772
7.03763e-10
0.0251772
3.60168e-10
0.0251772
-1.31714e-09
0.0251772
-2.56925e-09
0.0251772
-1.64902e-09
0.0251772
3.96986e-10
0.0251772
1.70129e-09
0.0251772
1.35321e-09
0.0251772
-2.21516e-10
0.0251772
-8.47109e-10
0.0251772
-8.21979e-10
0.0251772
9.94821e-10
0.0251772
3.20873e-10
0.0251772
1.03278e-09
0.0251772
9.44413e-11
0.0251772
-1.80392e-09
0.0251772
1.54356e-09
0.0251772
3.51866e-10
0.0251772
-9.58146e-10
-3.36907e-10
0.0464361
-0.00215875
0.0591158
0.0494944
0.0576941
-0.00812976
0.0484799
-0.049281
0.0420056
-0.0567785
0.0369833
-0.0492415
0.0300986
-0.0418522
0.0264409
-0.0348669
0.0267836
-0.0257659
0.0275096
-0.0170608
0.0273068
-0.011137
0.0266789
-0.00750386
0.0261295
-0.00517227
0.0257699
-0.00357729
0.0255514
-0.00245142
0.0254171
-0.00165936
0.0253323
-0.00111177
0.0252777
-0.000739091
0.0252424
-0.000488267
0.0252194
-0.000320874
0.0252044
-0.000209915
0.0251948
-0.000136766
0.0251885
-8.8778e-05
0.0251844
-5.74262e-05
0.0251818
-3.70184e-05
0.0251802
-2.3787e-05
0.0251791
-1.52376e-05
0.0251784
-9.73046e-06
0.025178
-6.19349e-06
0.0251777
-3.93114e-06
0.0251775
-2.48663e-06
0.0251774
-1.56797e-06
0.0251773
-9.89133e-07
0.0251773
-6.18917e-07
0.0251773
-3.84413e-07
0.0251772
-2.40465e-07
0.0251772
-1.5072e-07
0.0251772
-9.49115e-08
0.0251772
-5.67856e-08
0.0251772
-3.51604e-08
0.0251772
-2.2657e-08
0.0251772
-1.0742e-08
0.0251772
-7.83254e-09
0.0251772
-5.41507e-09
0.0251772
-1.30883e-09
0.0251772
-3.82468e-09
0.0251772
-4.83529e-10
0.0251772
2.07011e-09
0.0251772
-4.82005e-09
0.0251772
-2.34666e-09
0.0251772
2.57786e-09
0.0251772
-6.65304e-10
0.0251772
-4.44648e-10
0.0251772
-4.67058e-11
0.0251772
-2.15768e-09
0.0251772
2.7557e-11
0.0251772
1.99718e-09
0.0251772
-5.11273e-10
0.0251772
-9.90211e-10
0.0251772
2.78671e-10
0.0251772
3.6753e-10
0.0251772
1.86874e-09
0.0251772
1.98771e-09
0.0251772
-2.54393e-10
0.0251772
-1.57457e-09
0.0251772
-1.29249e-09
0.0251772
3.36068e-10
0.0251772
1.26425e-09
0.0251772
2.09129e-10
0.0251772
-7.81013e-10
0.0251772
-1.26727e-09
0.0251772
-1.51638e-09
0.0251772
-3.33069e-10
0.0251772
1.03286e-09
0.0251772
1.19937e-09
0.0251772
1.52751e-09
0.0251772
1.16129e-09
0.0251772
-7.01407e-10
0.0251772