/*--------------------------------*- C++ -*----------------------------------*\
| =========                 |                                                 |
| \\      /  F ield         | OpenFOAM: The Open Source CFD Toolbox           |
|  \\    /   O peration     | Version:  2.4.0                                 |
|   \\  /    A nd           | Web:      www.OpenFOAM.org                      |
|    \\/     M anipulation  |                                                 |
\*---------------------------------------------------------------------------*/
FoamFile
{
    version     2.0;
    format      ascii;
    class       volVectorField;
    location    "0.38";
    object      U;
}
// * * * * * * * * * * * * * * * * * * * * * * * * * * * * * * * * * * * * * //

dimensions      [0 1 -1 0 0 0 0];

internalField   nonuniform List<vector> 
4400
(
(9.93799 0.011561 0)
(9.87728 0.0147172 0)
(9.74741 0.00714901 0)
(9.81495 0.0326591 0)
(9.38847 -0.0207491 0)
(9.80575 0.08679 0)
(9.06353 -0.0947491 0)
(9.86148 0.169211 0)
(8.47041 -0.148832 0)
(9.91889 0.165412 0)
(8.34847 -0.0650812 0)
(9.48585 0.0348141 0)
(8.30871 0.0319793 0)
(9.6521 0.0483579 0)
(6.54697 -0.0810103 0)
(12.1612 0.205338 0)
(1.93784 -0.0226716 0)
(14.8015 0.136891 0)
(-1.48712 -0.135008 0)
(13.4937 0.227482 0)
(9.94421 0.0138253 0)
(10.1334 0.0261926 0)
(9.80665 0.0141409 0)
(10.4412 0.0206846 0)
(9.36654 0.028225 0)
(10.9543 -4.67401e-05 0)
(8.9329 0.0618828 0)
(11.3157 -0.0465807 0)
(8.71934 0.104403 0)
(11.0431 -0.0711786 0)
(9.53035 0.0961458 0)
(10.2983 0.0189774 0)
(9.72411 -0.0902891 0)
(11.1108 0.259739 0)
(7.3864 -0.297802 0)
(14.5519 0.491779 0)
(2.31147 -0.305642 0)
(18.0164 0.395632 0)
(2.25074 0.456375 0)
(10.8751 -2.06049 0)
(9.98022 -0.00174419 0)
(10.0412 0.0450819 0)
(9.97307 -0.0356293 0)
(10.1491 0.0959936 0)
(9.85533 -0.103818 0)
(10.2986 0.174981 0)
(9.85999 -0.16516 0)
(10.3912 0.1841 0)
(9.68937 -0.0976707 0)
(10.4798 0.0399504 0)
(9.87605 0.0521478 0)
(10.2647 0.0132051 0)
(10.129 -0.13869 0)
(10.283 0.46089 0)
(9.22354 -0.654104 0)
(13.1066 0.922599 0)
(5.69634 -0.492142 0)
(16.3365 -0.173104 0)
(8.74719 1.22887 0)
(8.87144 -2.18794 0)
(9.96589 0.00314748 0)
(10.0746 0.0252022 0)
(9.90876 -0.0014186 0)
(10.2532 0.0356654 0)
(9.68548 -0.0104448 0)
(10.5186 0.0413501 0)
(9.5853 -0.00290937 0)
(10.6259 0.0174927 0)
(9.52966 0.0392286 0)
(10.4723 -0.0308794 0)
(9.98425 0.0674413 0)
(10.2215 0.0170185 0)
(9.95852 -0.107306 0)
(10.5513 0.381774 0)
(9.48761 -0.633951 0)
(11.4679 1.02423 0)
(9.33697 -0.605361 0)
(12.841 -0.34751 0)
(9.60877 1.75465 0)
(11.094 -2.18116 0)
(9.98577 -0.0102116 0)
(10.0237 0.0502004 0)
(9.99514 -0.0490427 0)
(10.0959 0.106313 0)
(9.93628 -0.121476 0)
(10.1599 0.174508 0)
(10.0537 -0.157905 0)
(10.1354 0.140251 0)
(9.96177 -0.0447714 0)
(10.2457 -0.0275088 0)
(9.99606 0.0860479 0)
(10.306 0.022328 0)
(10.0305 -0.191411 0)
(10.1552 0.486274 0)
(10.2869 -0.676484 0)
(10.3813 0.831782 0)
(10.2822 -0.485952 0)
(11.1012 -0.529189 0)
(9.66257 1.81384 0)
(11.515 -2.17832 0)
(9.98077 -0.00278926 0)
(10.0347 0.0257755 0)
(9.97124 -0.0133791 0)
(10.1335 0.044933 0)
(9.86825 -0.0368313 0)
(10.2462 0.0664997 0)
(9.93074 -0.0492242 0)
(10.2291 0.0660467 0)
(9.88882 -0.0270111 0)
(10.1912 0.0320826 0)
(10.1279 0.00724148 0)
(10.1136 0.0403626 0)
(10.1299 -0.0829966 0)
(10.1197 0.274234 0)
(10.2734 -0.501115 0)
(9.75165 0.74954 0)
(10.9675 -0.525279 0)
(9.4631 -0.36576 0)
(9.72046 1.65291 0)
(11.9029 -1.87928 0)
(9.98868 -0.0122813 0)
(10.0157 0.0423532 0)
(10.0008 -0.046322 0)
(10.0803 0.0896725 0)
(9.94739 -0.104916 0)
(10.1367 0.137396 0)
(10.0655 -0.120516 0)
(10.1027 0.089223 0)
(9.9786 -0.00740844 0)
(10.1992 -0.052501 0)
(10.0271 0.0786941 0)
(10.2732 0.0201052 0)
(10.0102 -0.168448 0)
(10.1666 0.362682 0)
(10.2493 -0.465461 0)
(9.90319 0.472036 0)
(10.5753 -0.242335 0)
(9.63278 -0.443829 0)
(9.88473 1.32546 0)
(11.6307 -1.68109 0)
(9.98876 -0.00706411 0)
(10.0146 0.0252871 0)
(10.0008 -0.0238664 0)
(10.0772 0.0509301 0)
(9.94997 -0.0562156 0)
(10.1242 0.082607 0)
(10.0835 -0.0809661 0)
(10.0526 0.094212 0)
(10.0525 -0.0693125 0)
(10.0668 0.0615284 0)
(10.1841 -0.0211071 0)
(10.1067 0.041868 0)
(10.1114 -0.0495595 0)
(10.1378 0.164455 0)
(10.2063 -0.317378 0)
(9.89417 0.465434 0)
(10.7236 -0.280724 0)
(9.48937 -0.39611 0)
(9.99457 1.23717 0)
(11.4599 -1.3279 0)
(9.99189 -0.0118288 0)
(10.008 0.0314662 0)
(10.0092 -0.0389829 0)
(10.0639 0.0661059 0)
(9.96368 -0.0797216 0)
(10.1111 0.094632 0)
(10.0862 -0.0811176 0)
(10.0685 0.0477066 0)
(10.0059 0.0105196 0)
(10.143 -0.0476165 0)
(10.0925 0.0507237 0)
(10.1786 0.0319535 0)
(10.0836 -0.147789 0)
(10.0936 0.259349 0)
(10.2807 -0.269691 0)
(9.87561 0.205506 0)
(10.5479 -0.00305439 0)
(9.66768 -0.398103 0)
(10.3234 0.882395 0)
(10.6544 -1.01881 0)
(9.99325 -0.00953943 0)
(10.0047 0.0222072 0)
(10.0141 -0.0301052 0)
(10.0546 0.0489496 0)
(9.97754 -0.0637072 0)
(10.0879 0.082122 0)
(10.1188 -0.0902639 0)
(10.021 0.0924688 0)
(10.066 -0.0736301 0)
(10.0762 0.0512555 0)
(10.1457 -0.0179383 0)
(10.1537 0.0123277 0)
(10.0746 -0.00488416 0)
(10.1428 0.0696817 0)
(10.174 -0.164044 0)
(10.0167 0.248352 0)
(10.4305 -0.0651057 0)
(9.79238 -0.457568 0)
(10.1387 1.00733 0)
(10.9478 -0.828355 0)
(9.99489 -0.011031 0)
(10.0017 0.0211305 0)
(10.0179 -0.0331479 0)
(10.05 0.0458337 0)
(9.9811 -0.0605777 0)
(10.0869 0.0637008 0)
(10.1133 -0.0588306 0)
(10.0337 0.0316217 0)
(10.0439 0.000752502 0)
(10.0922 -0.0288897 0)
(10.1504 0.0249633 0)
(10.12 0.0319281 0)
(10.1115 -0.110361 0)
(10.1132 0.161694 0)
(10.1921 -0.125456 0)
(10.0306 0.0327816 0)
(10.3412 0.139387 0)
(9.98153 -0.383281 0)
(10.1173 0.624537 0)
(10.5153 -0.58327 0)
(9.99621 -0.0104965 0)
(9.99914 0.0160389 0)
(10.0221 -0.0312315 0)
(10.0444 0.0388137 0)
(9.98938 -0.0588114 0)
(10.0765 0.0644999 0)
(10.1265 -0.0763218 0)
(10.0188 0.0638108 0)
(10.0595 -0.0544359 0)
(10.0884 0.0270345 0)
(10.1326 -0.00859092 0)
(10.1561 -0.0109538 0)
(10.0876 0.0148286 0)
(10.1075 0.0188961 0)
(10.2091 -0.0710564 0)
(10.0398 0.110666 0)
(10.3046 0.0429422 0)
(9.98986 -0.416741 0)
(10.0906 0.744224 0)
(10.6527 -0.483474 0)
(9.99731 -0.0106674 0)
(9.99749 0.0119126 0)
(10.0252 -0.0298574 0)
(10.0419 0.0302812 0)
(9.99263 -0.0497633 0)
(10.0755 0.0447626 0)
(10.1255 -0.0517528 0)
(10.0239 0.0252377 0)
(10.0535 -0.0109038 0)
(10.0857 -0.0207854 0)
(10.1567 0.0097751 0)
(10.1204 0.0182696 0)
(10.1054 -0.0653806 0)
(10.1329 0.0768278 0)
(10.1542 -0.0302749 0)
(10.0914 -0.0553128 0)
(10.2622 0.18007 0)
(10.0615 -0.310923 0)
(10.0641 0.41407 0)
(10.4315 -0.329722 0)
(9.99829 -0.0107364 0)
(9.9962 0.00756436 0)
(10.0285 -0.0289662 0)
(10.0396 0.0244734 0)
(9.99738 -0.0479937 0)
(10.0721 0.0407057 0)
(10.1304 -0.0570568 0)
(10.0211 0.0359438 0)
(10.0566 -0.037351 0)
(10.0923 0.00735218 0)
(10.139 -0.00381852 0)
(10.1465 -0.0245507 0)
(10.1002 0.0197703 0)
(10.1068 -0.00672811 0)
(10.1944 -0.0185124 0)
(10.0912 0.0299898 0)
(10.2092 0.0849484 0)
(10.0999 -0.313889 0)
(10.0732 0.4827 0)
(10.4447 -0.251776 0)
(9.99907 -0.010841 0)
(9.99562 0.00263441 0)
(10.0315 -0.0271264 0)
(10.0387 0.0165751 0)
(10.0005 -0.0414101 0)
(10.0722 0.0272225 0)
(10.131 -0.044363 0)
(10.0249 0.0155243 0)
(10.0541 -0.0171083 0)
(10.0924 -0.0183293 0)
(10.1523 -3.03508e-05 0)
(10.1307 0.000975334 0)
(10.1045 -0.0341551 0)
(10.1352 0.0239298 0)
(10.1541 0.0140736 0)
(10.1137 -0.0799307 0)
(10.2132 0.14516 0)
(10.1029 -0.212224 0)
(10.0653 0.270972 0)
(10.3675 -0.171032 0)
(9.9997 -0.0113644 0)
(9.99558 -0.00185969 0)
(10.0346 -0.026045 0)
(10.0386 0.0101932 0)
(10.0041 -0.0383202 0)
(10.0721 0.0200699 0)
(10.1334 -0.0423323 0)
(10.0265 0.0145826 0)
(10.0547 -0.0268742 0)
(10.0984 -0.00621484 0)
(10.1446 -0.00469949 0)
(10.1451 -0.0282727 0)
(10.1051 0.0171314 0)
(10.1193 -0.0191336 0)
(10.174 0.0012097 0)
(10.1225 -0.00723781 0)
(10.1737 0.0796046 0)
(10.1304 -0.199234 0)
(10.088 0.269765 0)
(10.3216 -0.102457 0)
(10.0002 -0.0119213 0)
(9.99623 -0.00702098 0)
(10.0378 -0.0240073 0)
(10.0393 0.00213865 0)
(10.0073 -0.0345289 0)
(10.0737 0.00819971 0)
(10.1349 -0.0360718 0)
(10.0298 0.00234662 0)
(10.0547 -0.0208107 0)
(10.1009 -0.0182983 0)
(10.1506 -0.0102332 0)
(10.1411 -0.0130875 0)
(10.107 -0.0207548 0)
(10.1364 -0.000457955 0)
(10.1567 0.022053 0)
(10.1303 -0.0593831 0)
(10.1778 0.0892181 0)
(10.1306 -0.12221 0)
(10.0875 0.160213 0)
(10.2948 -0.0751902 0)
(10.0004 -0.0128165 0)
(9.99774 -0.0106565 0)
(10.0407 -0.0200428 0)
(10.0413 -0.00300959 0)
(10.0095 -0.0286216 0)
(10.076 0.0025199 0)
(10.1359 -0.0301906 0)
(10.0333 -8.01588e-05 0)
(10.0544 -0.0215355 0)
(10.1042 -0.0143419 0)
(10.1484 -0.0108645 0)
(10.1455 -0.0259569 0)
(10.1086 0.00872071 0)
(10.1286 -0.0160653 0)
(10.1621 0.00372932 0)
(10.1356 -0.0140619 0)
(10.16 0.0501318 0)
(10.1382 -0.100142 0)
(10.1033 0.123667 0)
(10.2616 -0.0283248 0)
(10.0001 -0.0178293 0)
(9.99955 -0.0190028 0)
(10.0386 -0.0226536 0)
(10.0463 -0.0137536 0)
(9.99413 -0.0299679 0)
(10.0729 -0.0104907 0)
(10.1094 -0.029179 0)
(10.0226 -0.0122569 0)
(10.0225 -0.0228041 0)
(10.0653 -0.020435 0)
(10.1082 -0.0213117 0)
(10.0741 -0.0214749 0)
(10.0563 -0.0182031 0)
(10.0614 -0.00929806 0)
(10.1107 0.00828893 0)
(10.0671 -0.0289184 0)
(10.1244 0.0366368 0)
(10.0757 -0.046833 0)
(10.0758 0.0651993 0)
(10.2037 -0.0216658 0)
(9.95207 -0.0110179 0)
(9.84574 -0.0135079 0)
(9.80279 -0.0133915 0)
(9.71749 -0.0128705 0)
(9.55613 -0.0178109 0)
(9.54029 -0.011586 0)
(9.4828 -0.0166811 0)
(9.308 -0.0119215 0)
(9.2181 -0.0159025 0)
(9.17938 -0.0145005 0)
(9.12326 -0.0150442 0)
(8.97653 -0.0189218 0)
(8.87607 -0.00366639 0)
(8.82783 -0.0100485 0)
(8.83817 -0.00533053 0)
(8.77556 -0.00155279 0)
(8.81223 0.00700552 0)
(8.76944 -0.0205239 0)
(8.7758 0.0222654 0)
(8.88516 -0.00285611 0)
(10.2849 -1.43336 0)
(1.64677 5.05817 0)
(9.92851 -0.233387 0)
(9.67205 -3.93906 0)
(8.04505 -4.60098 0)
(6.90484 -3.99191 0)
(5.83139 -3.01851 0)
(5.50845 -2.10137 0)
(5.35012 -1.44519 0)
(5.22102 -0.993704 0)
(5.14732 -0.672854 0)
(5.10322 -0.451385 0)
(5.07489 -0.30167 0)
(5.05764 -0.200686 0)
(5.0478 -0.132783 0)
(5.04237 -0.087415 0)
(5.03939 -0.0573022 0)
(5.03773 -0.0374267 0)
(5.03679 -0.0243667 0)
(5.03625 -0.0158147 0)
(5.03594 -0.010234 0)
(5.03575 -0.00660359 0)
(5.03563 -0.00424788 0)
(5.03556 -0.002725 0)
(5.03552 -0.00174288 0)
(5.03549 -0.00111129 0)
(5.03547 -0.000706752 0)
(5.03546 -0.000447876 0)
(5.03546 -0.000283258 0)
(5.03545 -0.000178369 0)
(5.03545 -0.000112151 0)
(5.03545 -7.02104e-05 0)
(5.03545 -4.38717e-05 0)
(5.03544 -2.73104e-05 0)
(5.03544 -1.69359e-05 0)
(5.03544 -1.05292e-05 0)
(5.03544 -6.51359e-06 0)
(5.03544 -3.99759e-06 0)
(5.03544 -2.49788e-06 0)
(5.03544 -1.47644e-06 0)
(5.03544 -9.13488e-07 0)
(5.03544 -5.63458e-07 0)
(5.03544 -2.86879e-07 0)
(5.03544 -2.60219e-07 0)
(5.03544 -8.44235e-08 0)
(5.03544 -6.08248e-08 0)
(5.03544 -7.68476e-08 0)
(5.03544 -9.57062e-09 0)
(5.03544 1.7167e-08 0)
(5.03544 -9.13871e-08 0)
(5.03544 3.90673e-08 0)
(5.03544 2.95588e-08 0)
(5.03544 -1.1097e-07 0)
(5.03544 1.13555e-07 0)
(5.03544 -8.51019e-08 0)
(5.03544 3.7188e-08 0)
(5.03544 1.47237e-08 0)
(5.03544 -3.08542e-08 0)
(5.03544 7.28865e-08 0)
(5.03544 -9.57337e-08 0)
(5.03544 1.01784e-07 0)
(5.03544 -2.42611e-08 0)
(5.03544 -7.00489e-08 0)
(5.03544 1.41908e-07 0)
(5.03544 -9.86499e-08 0)
(5.03544 -1.72606e-08 0)
(5.03544 1.23929e-07 0)
(5.03544 -1.11392e-07 0)
(5.03544 1.29583e-08 0)
(5.03544 1.00366e-07 0)
(5.03544 -1.38284e-07 0)
(5.03544 4.4181e-08 0)
(5.03544 1.32152e-07 0)
(5.03544 -1.81987e-07 0)
(5.03544 1.3391e-08 0)
(5.03544 1.96688e-07 0)
(5.03544 -1.30426e-07 0)
(5.03544 -1.29242e-07 0)
(5.03544 1.86501e-07 0)
(5.03544 3.64038e-08 0)
(5.03544 -1.86399e-07 0)
(5.03544 -1.63868e-08 0)
(5.03544 1.14174e-07 0)
(5.03544 -2.85573e-09 0)
(5.03544 -1.25811e-07 0)
(5.03544 -3.64584e-08 0)
(5.03544 6.48363e-08 0)
(5.03544 6.78164e-08 0)
(5.03544 -3.51093e-08 0)
(5.03544 -1.16819e-07 0)
(5.03544 -9.62798e-09 0)
(5.03545 1.11554e-07 0)
(5.03544 8.33229e-08 0)
(5.03545 -2.75606e-08 0)
(5.03543 -8.43131e-08 0)
(5.03546 2.04889e-08 0)
(5.03543 2.45396e-08 0)
(5.03545 4.80494e-09 0)
(5.03545 8.11478e-09 0)
(5.03544 -9.84865e-09 0)
(14.3259 -0.540184 0)
(3.57219 4.71365 0)
(11.0086 -0.616678 0)
(10.3349 -3.90063 0)
(8.40165 -4.45926 0)
(7.30315 -3.70346 0)
(6.30971 -2.82779 0)
(5.65263 -2.06432 0)
(5.45283 -1.42104 0)
(5.31509 -0.962625 0)
(5.20504 -0.65314 0)
(5.1373 -0.44136 0)
(5.09747 -0.296176 0)
(5.07321 -0.197447 0)
(5.05834 -0.13088 0)
(5.04937 -0.0863157 0)
(5.04399 -0.0566686 0)
(5.04074 -0.0370574 0)
(5.03875 -0.0241474 0)
(5.03752 -0.0156831 0)
(5.03676 -0.0101538 0)
(5.03628 -0.00655375 0)
(5.03597 -0.00421722 0)
(5.03578 -0.00270567 0)
(5.03566 -0.00173067 0)
(5.03558 -0.00110381 0)
(5.03553 -0.000701826 0)
(5.0355 -0.000444925 0)
(5.03548 -0.000281312 0)
(5.03547 -0.000177226 0)
(5.03546 -0.000111369 0)
(5.03545 -6.97998e-05 0)
(5.03545 -4.35305e-05 0)
(5.03545 -2.71171e-05 0)
(5.03545 -1.68842e-05 0)
(5.03544 -1.0454e-05 0)
(5.03544 -6.41168e-06 0)
(5.03544 -3.93583e-06 0)
(5.03544 -2.43251e-06 0)
(5.03544 -1.52632e-06 0)
(5.03544 -9.68368e-07 0)
(5.03544 -5.40177e-07 0)
(5.03544 -3.15757e-07 0)
(5.03544 -1.96689e-07 0)
(5.03544 -9.02878e-08 0)
(5.03544 -1.11367e-07 0)
(5.03544 -2.20814e-08 0)
(5.03544 1.41839e-08 0)
(5.03544 -4.46503e-08 0)
(5.03544 -2.36047e-08 0)
(5.03544 2.16498e-08 0)
(5.03545 -2.43787e-08 0)
(5.03544 -6.77579e-09 0)
(5.03544 1.57635e-08 0)
(5.03544 -6.09906e-08 0)
(5.03544 1.92185e-08 0)
(5.03544 1.69106e-08 0)
(5.03544 -2.12875e-08 0)
(5.03544 1.95314e-08 0)
(5.03544 -2.00571e-08 0)
(5.03544 1.10915e-08 0)
(5.03544 1.63224e-08 0)
(5.03544 7.40763e-09 0)
(5.03544 1.46044e-08 0)
(5.03544 -2.22541e-08 0)
(5.03544 -1.46095e-08 0)
(5.03544 1.9819e-08 0)
(5.03544 -7.89216e-10 0)
(5.03544 5.72258e-09 0)
(5.03544 1.27234e-08 0)
(5.03544 -3.89415e-08 0)
(5.03544 -6.21166e-09 0)
(5.03544 2.74993e-08 0)
(5.03544 -2.1806e-08 0)
(5.03544 7.01138e-09 0)
(5.03544 4.3353e-08 0)
(5.03544 -1.29547e-08 0)
(5.03544 -1.99297e-08 0)
(5.03544 1.02407e-08 0)
(5.03544 -9.80307e-09 0)
(5.03544 -2.0579e-08 0)
(5.03544 4.75203e-09 0)
(5.03544 -6.81412e-09 0)
(5.03544 -2.75384e-08 0)
(5.03544 -4.31478e-08 0)
(5.03544 3.18895e-09 0)
(5.03544 2.65498e-08 0)
(5.03544 1.41059e-08 0)
(5.03544 -9.47923e-09 0)
(5.03544 -2.57503e-08 0)
(5.03544 -2.08527e-09 0)
(5.03545 1.99097e-08 0)
(5.03544 2.20375e-08 0)
(5.03545 1.41012e-08 0)
(5.03543 -3.46937e-10 0)
(5.03546 1.6084e-08 0)
(5.03543 1.33867e-08 0)
(5.03545 -2.04471e-09 0)
(5.03545 -2.10028e-08 0)
(5.03544 -1.74124e-08 0)
(12.8248 -0.481811 0)
(6.67977 4.6957 0)
(12.0401 -0.770885 0)
(10.5122 -3.74873 0)
(8.47399 -4.28139 0)
(7.13127 -3.59536 0)
(6.62681 -2.60729 0)
(5.92078 -1.92396 0)
(5.53607 -1.39515 0)
(5.38505 -0.950146 0)
(5.26828 -0.634668 0)
(5.17826 -0.426875 0)
(5.12177 -0.287522 0)
(5.08844 -0.192546 0)
(5.06841 -0.128042 0)
(5.0561 -0.0846324 0)
(5.04846 -0.0556559 0)
(5.04369 -0.0364412 0)
(5.04068 -0.0237681 0)
(5.03878 -0.0154478 0)
(5.03757 -0.0100063 0)
(5.0368 -0.00646066 0)
(5.03631 -0.00415859 0)
(5.036 -0.00266838 0)
(5.0358 -0.00170706 0)
(5.03567 -0.0010889 0)
(5.03559 -0.000692375 0)
(5.03553 -0.000438973 0)
(5.0355 -0.000277344 0)
(5.03548 -0.00017509 0)
(5.03547 -0.000109906 0)
(5.03546 -6.86316e-05 0)
(5.03545 -4.30522e-05 0)
(5.03545 -2.6901e-05 0)
(5.03545 -1.64921e-05 0)
(5.03545 -1.01068e-05 0)
(5.03544 -6.36466e-06 0)
(5.03544 -3.86777e-06 0)
(5.03544 -2.19312e-06 0)
(5.03544 -1.47801e-06 0)
(5.03544 -1.09573e-06 0)
(5.03544 -5.89159e-07 0)
(5.03544 -2.24705e-07 0)
(5.03544 -7.7377e-08 0)
(5.03544 -1.3076e-07 0)
(5.03544 -1.56285e-07 0)
(5.03544 7.5949e-08 0)
(5.03544 4.75752e-08 0)
(5.03544 -2.20546e-07 0)
(5.03544 -1.2101e-07 0)
(5.03544 2.56484e-08 0)
(5.03544 5.59104e-08 0)
(5.03544 6.95735e-08 0)
(5.03544 -9.2189e-08 0)
(5.03544 -1.56605e-07 0)
(5.03544 2.14715e-08 0)
(5.03544 1.29808e-07 0)
(5.03544 -9.24532e-09 0)
(5.03544 -5.72715e-08 0)
(5.03544 -6.7355e-08 0)
(5.03544 -3.40528e-09 0)
(5.03544 1.73943e-07 0)
(5.03544 1.25046e-07 0)
(5.03544 -2.82038e-08 0)
(5.03544 -1.06347e-07 0)
(5.03544 -1.15776e-07 0)
(5.03544 1.13562e-08 0)
(5.03544 1.14865e-07 0)
(5.03544 6.2281e-08 0)
(5.03544 -3.17222e-08 0)
(5.03544 -1.03096e-07 0)
(5.03544 -1.14511e-07 0)
(5.03544 -1.39607e-08 0)
(5.03544 7.54246e-08 0)
(5.03544 7.5873e-08 0)
(5.03544 6.68447e-08 0)
(5.03544 4.20874e-08 0)
(5.03544 -4.65261e-08 0)
(5.03544 -8.5146e-08 0)
(5.03544 -2.73916e-08 0)
(5.03544 4.37653e-08 0)
(5.03544 4.94877e-08 0)
(5.03544 -2.50491e-08 0)
(5.03544 -8.75601e-08 0)
(5.03544 -8.28927e-08 0)
(5.03544 -2.66984e-08 0)
(5.03544 3.0922e-08 0)
(5.03544 5.90369e-08 0)
(5.03544 3.66892e-08 0)
(5.03544 8.58707e-09 0)
(5.03544 -9.13778e-09 0)
(5.03545 3.14218e-09 0)
(5.03544 4.87587e-09 0)
(5.03545 4.20883e-09 0)
(5.03543 -3.71113e-08 0)
(5.03546 -4.85714e-08 0)
(5.03543 -3.88467e-09 0)
(5.03545 3.52418e-08 0)
(5.03545 6.36339e-08 0)
(5.03544 2.88808e-08 0)
(11.7206 -0.409238 0)
(9.59427 4.80944 0)
(12.5565 -0.594839 0)
(10.8187 -3.35648 0)
(8.55878 -3.79978 0)
(6.87587 -3.45446 0)
(6.40375 -2.61722 0)
(6.14391 -1.79263 0)
(5.69975 -1.27997 0)
(5.43286 -0.909394 0)
(5.30125 -0.6206 0)
(5.21217 -0.417231 0)
(5.14795 -0.279969 0)
(5.10558 -0.187322 0)
(5.07919 -0.124684 0)
(5.06296 -0.0825173 0)
(5.0529 -0.0543253 0)
(5.04658 -0.0356025 0)
(5.04257 -0.0232385 0)
(5.04001 -0.0151122 0)
(5.03837 -0.00979312 0)
(5.03732 -0.00632527 0)
(5.03664 -0.00407232 0)
(5.03621 -0.00261345 0)
(5.03593 -0.00167224 0)
(5.03576 -0.00106668 0)
(5.03564 -0.000678309 0)
(5.03557 -0.00042999 0)
(5.03552 -0.000271939 0)
(5.03549 -0.000171392 0)
(5.03547 -0.000107575 0)
(5.03546 -6.74236e-05 0)
(5.03546 -4.21879e-05 0)
(5.03545 -2.61457e-05 0)
(5.03545 -1.62247e-05 0)
(5.03545 -1.01108e-05 0)
(5.03545 -6.22896e-06 0)
(5.03544 -3.81519e-06 0)
(5.03544 -2.36817e-06 0)
(5.03544 -1.55855e-06 0)
(5.03544 -9.71383e-07 0)
(5.03544 -4.92118e-07 0)
(5.03544 -2.82834e-07 0)
(5.03544 -1.74403e-07 0)
(5.03544 -9.51788e-08 0)
(5.03544 -1.22835e-07 0)
(5.03544 -6.83521e-09 0)
(5.03544 2.54795e-08 0)
(5.03544 -1.00761e-07 0)
(5.03544 -2.81516e-08 0)
(5.03544 3.78162e-08 0)
(5.03544 -1.91748e-08 0)
(5.03544 -5.15503e-09 0)
(5.03544 -1.86309e-09 0)
(5.03544 -6.81222e-08 0)
(5.03544 1.37176e-08 0)
(5.03544 3.77423e-08 0)
(5.03544 -3.12651e-08 0)
(5.03544 1.9941e-09 0)
(5.03544 -3.48379e-09 0)
(5.03544 2.87724e-09 0)
(5.03544 4.40265e-08 0)
(5.03544 2.68655e-08 0)
(5.03544 4.83902e-10 0)
(5.03544 -3.52363e-08 0)
(5.03544 -2.67506e-08 0)
(5.03544 1.75364e-08 0)
(5.03544 1.9254e-08 0)
(5.03544 9.37499e-09 0)
(5.03544 -7.83054e-09 0)
(5.03544 -3.9931e-08 0)
(5.03544 -2.2989e-08 0)
(5.03544 1.18466e-08 0)
(5.03544 1.05652e-08 0)
(5.03544 2.20507e-08 0)
(5.03544 3.70966e-08 0)
(5.03544 3.65825e-09 0)
(5.03544 -1.6133e-08 0)
(5.03544 -1.76016e-08 0)
(5.03544 -1.31998e-08 0)
(5.03544 3.51651e-09 0)
(5.03544 5.09422e-09 0)
(5.03544 -2.1405e-08 0)
(5.03544 -5.27523e-08 0)
(5.03544 -3.63378e-08 0)
(5.03544 4.66946e-09 0)
(5.03544 3.7804e-08 0)
(5.03544 2.71233e-08 0)
(5.03544 -1.14435e-08 0)
(5.03544 -2.36677e-08 0)
(5.03544 -1.21704e-08 0)
(5.03545 1.49834e-08 0)
(5.03544 1.32506e-08 0)
(5.03545 2.01855e-08 0)
(5.03543 1.16946e-08 0)
(5.03546 -1.37186e-09 0)
(5.03543 1.48291e-08 0)
(5.03545 1.09025e-08 0)
(5.03545 -1.72438e-08 0)
(5.03544 -1.80989e-08 0)
(9.92708 -0.716128 0)
(11.1736 4.61419 0)
(12.9208 -0.429235 0)
(11.37 -3.28573 0)
(8.73498 -3.52116 0)
(7.17589 -3.01208 0)
(6.15967 -2.52995 0)
(5.9821 -1.86618 0)
(5.86224 -1.23897 0)
(5.57456 -0.827789 0)
(5.34782 -0.565367 0)
(5.22535 -0.388176 0)
(5.15847 -0.264846 0)
(5.11621 -0.178939 0)
(5.08793 -0.119816 0)
(5.06926 -0.0796145 0)
(5.05716 -0.0525584 0)
(5.0494 -0.0345076 0)
(5.04441 -0.0225505 0)
(5.04121 -0.0146761 0)
(5.03915 -0.00951552 0)
(5.03782 -0.00614801 0)
(5.03697 -0.00395916 0)
(5.03642 -0.00254138 0)
(5.03607 -0.00162621 0)
(5.03584 -0.00103743 0)
(5.0357 -0.000659734 0)
(5.0356 -0.000418312 0)
(5.03554 -0.000264405 0)
(5.03551 -0.000166704 0)
(5.03548 -0.000104778 0)
(5.03547 -6.55007e-05 0)
(5.03546 -4.09383e-05 0)
(5.03545 -2.55967e-05 0)
(5.03545 -1.58457e-05 0)
(5.03545 -9.70966e-06 0)
(5.03545 -6.04018e-06 0)
(5.03545 -3.74814e-06 0)
(5.03544 -2.16524e-06 0)
(5.03544 -1.39871e-06 0)
(5.03544 -9.9599e-07 0)
(5.03544 -5.29987e-07 0)
(5.03544 -2.55206e-07 0)
(5.03544 -9.86785e-08 0)
(5.03544 -9.27388e-08 0)
(5.03544 -1.47626e-07 0)
(5.03544 5.66762e-08 0)
(5.03544 5.10687e-08 0)
(5.03544 -2.02549e-07 0)
(5.03544 -9.53733e-08 0)
(5.03544 3.96797e-08 0)
(5.03544 2.16605e-08 0)
(5.03544 4.75279e-08 0)
(5.03544 -6.02567e-08 0)
(5.03544 -1.26611e-07 0)
(5.03544 1.73827e-08 0)
(5.03544 9.76718e-08 0)
(5.03544 -7.36994e-09 0)
(5.03544 -4.80542e-08 0)
(5.03544 -3.70626e-08 0)
(5.03544 -3.63255e-09 0)
(5.03544 1.26243e-07 0)
(5.03544 1.11555e-07 0)
(5.03544 -2.07609e-08 0)
(5.03544 -7.81907e-08 0)
(5.03544 -8.54936e-08 0)
(5.03544 7.68418e-10 0)
(5.03544 8.72567e-08 0)
(5.03544 4.46245e-08 0)
(5.03544 -2.93882e-08 0)
(5.03544 -7.55178e-08 0)
(5.03544 -8.9066e-08 0)
(5.03544 -1.90129e-08 0)
(5.03544 5.85979e-08 0)
(5.03544 5.54566e-08 0)
(5.03544 5.60796e-08 0)
(5.03544 4.66573e-08 0)
(5.03544 -3.10746e-08 0)
(5.03544 -7.2505e-08 0)
(5.03544 -2.51534e-08 0)
(5.03544 3.49052e-08 0)
(5.03544 3.60032e-08 0)
(5.03544 -2.60897e-08 0)
(5.03544 -7.66536e-08 0)
(5.03544 -6.55566e-08 0)
(5.03544 -1.76279e-08 0)
(5.03544 2.94104e-08 0)
(5.03544 4.64469e-08 0)
(5.03544 2.36845e-08 0)
(5.03544 1.51887e-09 0)
(5.03544 -1.22598e-08 0)
(5.03545 1.07904e-08 0)
(5.03544 9.6526e-09 0)
(5.03545 1.2205e-08 0)
(5.03543 -2.33136e-08 0)
(5.03546 -4.92559e-08 0)
(5.03543 2.70976e-09 0)
(5.03545 2.04889e-08 0)
(5.03545 3.41616e-08 0)
(5.03544 2.08892e-08 0)
(8.13896 -0.479262 0)
(9.72575 4.07524 0)
(12.1381 -0.248048 0)
(11.8537 -2.6902 0)
(9.70148 -3.25187 0)
(8.27558 -2.7886 0)
(7.09191 -2.12668 0)
(5.98426 -1.71625 0)
(5.69642 -1.29074 0)
(5.63605 -0.878259 0)
(5.47434 -0.57931 0)
(5.30574 -0.385225 0)
(5.19584 -0.258622 0)
(5.13349 -0.173437 0)
(5.09737 -0.115674 0)
(5.07523 -0.0767093 0)
(5.06114 -0.0506086 0)
(5.05206 -0.0332324 0)
(5.04617 -0.0217269 0)
(5.04236 -0.0141469 0)
(5.0399 -0.00917607 0)
(5.03831 -0.00593048 0)
(5.03728 -0.00382004 0)
(5.03662 -0.00245243 0)
(5.0362 -0.00156944 0)
(5.03592 -0.00100133 0)
(5.03575 -0.000636803 0)
(5.03564 -0.000403731 0)
(5.03557 -0.000255247 0)
(5.03552 -0.000160982 0)
(5.03549 -0.000101059 0)
(5.03547 -6.31982e-05 0)
(5.03546 -3.96367e-05 0)
(5.03546 -2.4674e-05 0)
(5.03545 -1.5206e-05 0)
(5.03545 -9.41137e-06 0)
(5.03545 -5.82668e-06 0)
(5.03545 -3.5766e-06 0)
(5.03544 -2.17963e-06 0)
(5.03544 -1.44147e-06 0)
(5.03544 -9.12362e-07 0)
(5.03544 -4.32291e-07 0)
(5.03544 -2.63324e-07 0)
(5.03544 -1.72054e-07 0)
(5.03544 -8.54858e-08 0)
(5.03544 -1.29302e-07 0)
(5.03544 -4.81025e-09 0)
(5.03544 3.26645e-08 0)
(5.03544 -1.31988e-07 0)
(5.03544 -3.65944e-08 0)
(5.03544 6.0348e-08 0)
(5.03544 -2.64042e-08 0)
(5.03544 -1.00216e-08 0)
(5.03544 -3.0329e-09 0)
(5.03544 -6.22318e-08 0)
(5.03544 1.253e-08 0)
(5.03544 4.97281e-08 0)
(5.03544 -3.32909e-08 0)
(5.03544 -6.68059e-09 0)
(5.03544 1.02759e-08 0)
(5.03544 7.16062e-09 0)
(5.03544 4.8979e-08 0)
(5.03544 3.29066e-08 0)
(5.03544 -6.81762e-09 0)
(5.03544 -4.04781e-08 0)
(5.03544 -2.91259e-08 0)
(5.03544 1.95615e-08 0)
(5.03544 2.50312e-08 0)
(5.03544 4.06419e-09 0)
(5.03544 -1.51083e-08 0)
(5.03544 -3.83873e-08 0)
(5.03544 -2.91884e-08 0)
(5.03544 1.22476e-08 0)
(5.03544 1.86571e-08 0)
(5.03544 2.51549e-08 0)
(5.03544 3.81643e-08 0)
(5.03544 1.12107e-08 0)
(5.03544 -2.07013e-08 0)
(5.03544 -2.5042e-08 0)
(5.03544 -1.06966e-08 0)
(5.03544 7.8152e-09 0)
(5.03544 1.54483e-09 0)
(5.03544 -2.93006e-08 0)
(5.03544 -5.88419e-08 0)
(5.03544 -3.84134e-08 0)
(5.03544 1.32419e-08 0)
(5.03544 4.75377e-08 0)
(5.03544 3.34003e-08 0)
(5.03544 -1.36064e-08 0)
(5.03544 -3.20328e-08 0)
(5.03544 -1.87352e-08 0)
(5.03545 1.74452e-08 0)
(5.03544 1.05036e-08 0)
(5.03545 2.19081e-08 0)
(5.03543 1.14494e-08 0)
(5.03546 -1.13348e-08 0)
(5.03543 2.66293e-08 0)
(5.03545 1.40217e-08 0)
(5.03545 -2.38965e-08 0)
(5.03544 -2.13298e-08 0)
(7.52024 -0.416602 0)
(8.65971 3.45374 0)
(12.1478 -0.389942 0)
(11.4145 -2.72032 0)
(9.53548 -2.98278 0)
(7.88756 -2.82479 0)
(7.67436 -2.18984 0)
(6.95674 -1.43181 0)
(5.9009 -0.978657 0)
(5.4304 -0.685833 0)
(5.31995 -0.479932 0)
(5.2644 -0.334832 0)
(5.20221 -0.232895 0)
(5.14731 -0.160152 0)
(5.10781 -0.108552 0)
(5.08189 -0.072652 0)
(5.06532 -0.048163 0)
(5.05471 -0.0317044 0)
(5.04789 -0.0207551 0)
(5.04348 -0.0135244 0)
(5.04062 -0.00877652 0)
(5.03878 -0.00567411 0)
(5.03758 -0.00365573 0)
(5.03682 -0.00234732 0)
(5.03632 -0.00150232 0)
(5.036 -0.000958559 0)
(5.0358 -0.000609622 0)
(5.03567 -0.000386542 0)
(5.03559 -0.000244396 0)
(5.03553 -0.000154069 0)
(5.0355 -9.67357e-05 0)
(5.03548 -6.05622e-05 0)
(5.03547 -3.79264e-05 0)
(5.03546 -2.3587e-05 0)
(5.03545 -1.45894e-05 0)
(5.03545 -9.00848e-06 0)
(5.03545 -5.57302e-06 0)
(5.03545 -3.49762e-06 0)
(5.03545 -2.07675e-06 0)
(5.03544 -1.30649e-06 0)
(5.03544 -8.71039e-07 0)
(5.03544 -4.4282e-07 0)
(5.03544 -2.6315e-07 0)
(5.03544 -1.29268e-07 0)
(5.03544 -6.26606e-08 0)
(5.03544 -1.38687e-07 0)
(5.03544 2.87768e-08 0)
(5.03544 6.24329e-08 0)
(5.03544 -1.77689e-07 0)
(5.03544 -8.39673e-08 0)
(5.03544 5.19955e-08 0)
(5.03544 -2.12137e-09 0)
(5.03544 2.33563e-08 0)
(5.03544 -3.27014e-08 0)
(5.03544 -1.01955e-07 0)
(5.03544 9.50062e-09 0)
(5.03544 7.50592e-08 0)
(5.03544 -8.26561e-09 0)
(5.03544 -4.0556e-08 0)
(5.03544 -1.83985e-08 0)
(5.03544 -1.49571e-09 0)
(5.03544 8.72679e-08 0)
(5.03544 9.347e-08 0)
(5.03544 -1.07037e-08 0)
(5.03544 -5.89947e-08 0)
(5.03544 -6.01866e-08 0)
(5.03544 -2.74396e-09 0)
(5.03544 6.08011e-08 0)
(5.03544 3.02739e-08 0)
(5.03544 -2.50309e-08 0)
(5.03544 -5.51373e-08 0)
(5.03544 -6.57563e-08 0)
(5.03544 -2.20919e-08 0)
(5.03544 4.12495e-08 0)
(5.03544 4.29874e-08 0)
(5.03544 4.77821e-08 0)
(5.03544 4.41694e-08 0)
(5.03544 -1.95753e-08 0)
(5.03544 -5.89402e-08 0)
(5.03544 -2.05424e-08 0)
(5.03544 2.59765e-08 0)
(5.03544 2.5738e-08 0)
(5.03544 -2.62264e-08 0)
(5.03544 -6.67741e-08 0)
(5.03544 -5.08342e-08 0)
(5.03544 -7.2042e-09 0)
(5.03544 2.80818e-08 0)
(5.03544 3.5311e-08 0)
(5.03544 1.32346e-08 0)
(5.03544 -3.16004e-09 0)
(5.03544 -1.28425e-08 0)
(5.03545 1.78675e-08 0)
(5.03544 1.13352e-08 0)
(5.03545 1.7089e-08 0)
(5.03543 -1.25289e-08 0)
(5.03546 -4.96195e-08 0)
(5.03543 1.01157e-08 0)
(5.03545 8.55873e-09 0)
(5.03545 1.26856e-08 0)
(5.03544 1.40182e-08 0)
(7.55872 -0.123274 0)
(8.97497 2.84697 0)
(11.9801 -0.37594 0)
(11.3 -2.46529 0)
(9.92616 -2.54572 0)
(7.67174 -2.15124 0)
(6.29669 -2.06205 0)
(6.65358 -1.70406 0)
(6.71048 -1.21961 0)
(6.10819 -0.810307 0)
(5.57991 -0.53429 0)
(5.32134 -0.352795 0)
(5.20833 -0.233649 0)
(5.14932 -0.155438 0)
(5.11163 -0.103573 0)
(5.08597 -0.0688602 0)
(5.06861 -0.0455747 0)
(5.05706 -0.0300065 0)
(5.04948 -0.0196557 0)
(5.04453 -0.0128152 0)
(5.04131 -0.00832 0)
(5.03922 -0.00538063 0)
(5.03787 -0.00346738 0)
(5.037 -0.00222676 0)
(5.03644 -0.00142527 0)
(5.03608 -0.000909427 0)
(5.03585 -0.000578432 0)
(5.0357 -0.000366786 0)
(5.03561 -0.000231872 0)
(5.03555 -0.000146165 0)
(5.03551 -9.18005e-05 0)
(5.03548 -5.746e-05 0)
(5.03547 -3.59856e-05 0)
(5.03546 -2.23943e-05 0)
(5.03545 -1.38262e-05 0)
(5.03545 -8.55136e-06 0)
(5.03545 -5.31966e-06 0)
(5.03545 -3.30463e-06 0)
(5.03545 -1.97286e-06 0)
(5.03544 -1.25808e-06 0)
(5.03544 -8.07886e-07 0)
(5.03544 -3.77755e-07 0)
(5.03544 -2.48485e-07 0)
(5.03544 -1.70012e-07 0)
(5.03544 -6.3944e-08 0)
(5.03544 -1.23092e-07 0)
(5.03544 -1.30847e-08 0)
(5.03544 4.34435e-08 0)
(5.03544 -1.4631e-07 0)
(5.03544 -4.87937e-08 0)
(5.03544 7.78282e-08 0)
(5.03544 -2.37429e-08 0)
(5.03544 -1.83941e-08 0)
(5.03544 -1.1017e-09 0)
(5.03544 -5.51929e-08 0)
(5.03544 8.9593e-09 0)
(5.03544 5.49003e-08 0)
(5.03544 -2.74017e-08 0)
(5.03544 -1.52721e-08 0)
(5.03544 1.8695e-08 0)
(5.03544 1.35097e-08 0)
(5.03544 4.94599e-08 0)
(5.03544 3.75738e-08 0)
(5.03544 -1.14418e-08 0)
(5.03544 -4.24244e-08 0)
(5.03544 -2.98631e-08 0)
(5.03544 1.95913e-08 0)
(5.03544 2.89998e-08 0)
(5.03544 -1.35453e-09 0)
(5.03544 -2.02276e-08 0)
(5.03544 -3.35626e-08 0)
(5.03544 -3.17644e-08 0)
(5.03544 8.62611e-09 0)
(5.03544 2.461e-08 0)
(5.03544 2.66045e-08 0)
(5.03544 3.75022e-08 0)
(5.03544 1.75265e-08 0)
(5.03544 -2.22062e-08 0)
(5.03544 -3.03678e-08 0)
(5.03544 -8.81813e-09 0)
(5.03544 1.18404e-08 0)
(5.03544 -9.96539e-10 0)
(5.03544 -3.47863e-08 0)
(5.03544 -5.97061e-08 0)
(5.03544 -3.55131e-08 0)
(5.03544 1.70464e-08 0)
(5.03544 4.9169e-08 0)
(5.03544 3.28956e-08 0)
(5.03544 -1.57144e-08 0)
(5.03544 -3.16544e-08 0)
(5.03544 -2.25998e-08 0)
(5.03545 2.03342e-08 0)
(5.03544 6.24271e-09 0)
(5.03545 2.36862e-08 0)
(5.03543 1.17378e-08 0)
(5.03546 -2.30418e-08 0)
(5.03543 4.17594e-08 0)
(5.03545 1.37462e-08 0)
(5.03545 -3.3086e-08 0)
(5.03544 -2.20248e-08 0)
(8.53882 -0.0618107 0)
(9.99976 2.18515 0)
(12.5564 -0.38767 0)
(11.2035 -2.26498 0)
(8.73006 -2.63146 0)
(7.91471 -2.10481 0)
(6.6526 -1.56166 0)
(5.33268 -1.11989 0)
(5.18901 -0.742114 0)
(5.45966 -0.492013 0)
(5.51046 -0.360542 0)
(5.39414 -0.273144 0)
(5.26638 -0.199374 0)
(5.17871 -0.140013 0)
(5.12532 -0.0956457 0)
(5.09283 -0.0642095 0)
(5.07249 -0.0426466 0)
(5.05946 -0.0281191 0)
(5.05101 -0.0184337 0)
(5.04552 -0.0120247 0)
(5.04196 -0.00780983 0)
(5.03964 -0.00505211 0)
(5.03814 -0.0032563 0)
(5.03717 -0.00209152 0)
(5.03655 -0.0013388 0)
(5.03615 -0.000854281 0)
(5.03589 -0.000543407 0)
(5.03573 -0.000344584 0)
(5.03562 -0.000217815 0)
(5.03556 -0.000137298 0)
(5.03551 -8.62341e-05 0)
(5.03549 -5.39886e-05 0)
(5.03547 -3.38225e-05 0)
(5.03546 -2.10243e-05 0)
(5.03545 -1.29724e-05 0)
(5.03545 -8.05085e-06 0)
(5.03545 -4.99874e-06 0)
(5.03545 -3.12734e-06 0)
(5.03545 -1.8671e-06 0)
(5.03544 -1.15057e-06 0)
(5.03544 -7.37747e-07 0)
(5.03544 -3.53685e-07 0)
(5.03544 -2.51167e-07 0)
(5.03544 -1.56619e-07 0)
(5.03544 -4.08283e-08 0)
(5.03544 -1.24836e-07 0)
(5.03544 2.01091e-09 0)
(5.03544 6.92305e-08 0)
(5.03544 -1.49563e-07 0)