/*--------------------------------*- C++ -*----------------------------------*\
| =========                 |                                                 |
| \\      /  F ield         | OpenFOAM: The Open Source CFD Toolbox           |
|  \\    /   O peration     | Version:  2.4.0                                 |
|   \\  /    A nd           | Web:      www.OpenFOAM.org                      |
|    \\/     M anipulation  |                                                 |
\*---------------------------------------------------------------------------*/
FoamFile
{
    version     2.0;
    format      ascii;
    class       volVectorField;
    location    "1.68";
    object      U;
}
// * * * * * * * * * * * * * * * * * * * * * * * * * * * * * * * * * * * * * //

dimensions      [0 1 -1 0 0 0 0];

internalField   nonuniform List<vector> 
4400
(
(9.82937 0.0568316 0)
(9.77508 -0.0690429 0)
(9.7927 0.0706301 0)
(9.85232 0.00257717 0)
(8.38519 0.0092995 0)
(11.1003 0.104083 0)
(6.87516 -0.114623 0)
(11.9758 0.0458707 0)
(6.52633 0.00209407 0)
(11.6712 -0.0378766 0)
(6.71933 0.168184 0)
(11.0561 -0.00147228 0)
(6.23401 -0.00612848 0)
(10.8169 0.00715247 0)
(7.06196 -0.0623342 0)
(9.00036 -0.0827956 0)
(9.68916 0.189704 0)
(6.89059 -0.0541204 0)
(8.90661 0.0744476 0)
(8.95997 0.143769 0)
(9.70778 0.0112321 0)
(10.7406 0.0696631 0)
(8.51085 -0.049346 0)
(11.58 0.22911 0)
(7.29278 -0.212689 0)
(12.6236 0.130141 0)
(6.96323 -0.00534814 0)
(12.596 -0.0511578 0)
(7.76775 0.124352 0)
(11.7896 -0.0314115 0)
(7.9607 -0.039435 0)
(12.4138 0.124813 0)
(7.64057 0.0265222 0)
(11.5587 -0.146237 0)
(9.78935 0.413949 0)
(8.63222 -0.376404 0)
(9.55115 0.146021 0)
(10.7242 0.214737 0)
(7.86671 -0.29638 0)
(11.0275 0.69322 0)
(9.38686 -0.0288706 0)
(11.5915 0.170359 0)
(7.55347 -0.0744836 0)
(12.1394 0.200361 0)
(7.50502 -0.15813 0)
(12.2869 0.134013 0)
(7.43147 -0.0210181 0)
(12.0978 -0.199025 0)
(8.5085 0.248487 0)
(11.7248 -0.123294 0)
(8.47648 0.0160237 0)
(12.2048 0.116126 0)
(8.31984 0.137138 0)
(10.1965 -0.406537 0)
(11.1655 0.469586 0)
(8.49421 -0.0340556 0)
(9.45251 -0.265151 0)
(12.0374 0.308537 0)
(6.73913 0.130616 0)
(11.789 -0.0969017 0)
(9.33296 -0.195105 0)
(11.8162 0.393322 0)
(8.33205 -0.116323 0)
(11.1016 0.17853 0)
(8.77594 -0.155491 0)
(11.5187 0.0885111 0)
(8.58782 0.0928023 0)
(11.6014 -0.328769 0)
(9.24926 0.248308 0)
(11.2515 -0.0592657 0)
(8.9293 -0.126003 0)
(11.7335 0.168335 0)
(9.43158 0.388638 0)
(9.43755 -0.716692 0)
(11.3935 0.680143 0)
(9.36375 0.0934798 0)
(9.55108 -0.697363 0)
(12.4659 0.672507 0)
(7.35681 -0.0230449 0)
(12.3265 -0.202165 0)
(9.61767 -0.273245 0)
(11.0787 0.368499 0)
(9.57619 0.0965054 0)
(10.0512 0.0881507 0)
(10.0037 -0.208033 0)
(10.5981 0.108 0)
(9.29124 0.0389222 0)
(11.0702 -0.435791 0)
(9.98378 0.378842 0)
(10.4431 -0.0781982 0)
(9.7002 -0.121382 0)
(11.1097 0.0879479 0)
(9.9907 0.541854 0)
(9.51727 -0.796507 0)
(11.2985 0.494768 0)
(10.3179 0.386119 0)
(9.8491 -0.954418 0)
(11.9702 0.728908 0)
(9.18295 0.275917 0)
(11.7335 -0.683358 0)
(9.79716 -0.32753 0)
(10.1796 0.414368 0)
(10.4868 0.139957 0)
(9.60482 0.01735 0)
(10.4073 -0.191695 0)
(10.1541 0.164532 0)
(9.41749 0.0499749 0)
(10.6949 -0.51528 0)
(10.0056 0.434074 0)
(10.0016 -0.0479133 0)
(10.3472 -0.236164 0)
(10.5519 0.128605 0)
(9.90639 0.6549 0)
(10.1253 -0.901383 0)
(10.8527 0.468259 0)
(10.405 0.485018 0)
(10.1309 -1.10733 0)
(11.1147 0.848656 0)
(10.6434 0.248019 0)
(10.6687 -0.722005 0)
(9.9378 -0.275884 0)
(9.64146 0.254131 0)
(10.8929 0.230291 0)
(9.50918 0.0519633 0)
(10.388 -0.260193 0)
(10.1603 0.250815 0)
(9.49932 -0.00463496 0)
(10.6001 -0.629957 0)
(9.94299 0.561787 0)
(9.86868 -0.165559 0)
(10.5173 -0.280545 0)
(10.0845 0.24051 0)
(9.80738 0.581309 0)
(10.4283 -0.92301 0)
(10.3867 0.404448 0)
(10.3105 0.552208 0)
(10.1823 -1.11749 0)
(10.2294 0.665697 0)
(11.3473 0.421665 0)
(9.62907 -0.706732 0)
(10.0475 -0.245389 0)
(9.40091 0.210287 0)
(10.7183 0.212059 0)
(9.87055 0.0549807 0)
(10.1159 -0.267967 0)
(10.2816 0.288193 0)
(9.87701 0.00707201 0)
(10.2957 -0.648052 0)
(9.7972 0.629012 0)
(10.0761 -0.199434 0)
(10.3427 -0.280118 0)
(9.8008 0.320625 0)
(10.1673 0.487128 0)
(10.3793 -0.899383 0)
(9.91657 0.403169 0)
(10.2909 0.568648 0)
(10.1624 -1.07379 0)
(9.68812 0.558843 0)
(11.1592 0.487937 0)
(9.51081 -0.589797 0)
(10.0315 -0.176172 0)
(9.55853 0.116317 0)
(10.3841 0.167572 0)
(10.1609 0.111309 0)
(9.89226 -0.282693 0)
(10.2128 0.262688 0)
(10.2111 0.0524961 0)
(10.0668 -0.664683 0)
(9.75492 0.660814 0)
(10.438 -0.249086 0)
(9.93879 -0.267138 0)
(9.85225 0.350785 0)
(10.4156 0.400383 0)
(10.2795 -0.815338 0)
(9.64928 0.386767 0)
(10.479 0.552948 0)
(10.103 -1.02597 0)
(9.59679 0.444318 0)
(10.6483 0.52857 0)
(10.0845 -0.485523 0)
(10.0833 -0.167808 0)
(9.67915 0.121505 0)
(10.1258 0.137149 0)
(10.2886 0.0888003 0)
(9.86921 -0.222895 0)
(10.1126 0.184862 0)
(10.4549 0.0718998 0)
(9.87977 -0.598957 0)
(9.77361 0.591931 0)
(10.6009 -0.23482 0)
(9.66315 -0.18847 0)
(9.90283 0.291468 0)
(10.4861 0.323747 0)
(10.2483 -0.674957 0)
(9.45914 0.312286 0)
(10.6499 0.517977 0)
(10.0486 -0.927008 0)
(9.69961 0.440138 0)
(10.2043 0.489541 0)
(10.6053 -0.394603 0)
(10.1049 -0.134282 0)
(9.71094 0.104923 0)
(10.0917 0.0868773 0)
(10.3317 0.0974834 0)
(9.85518 -0.190037 0)
(10.1082 0.111542 0)
(10.3749 0.124848 0)
(9.87683 -0.559566 0)
(9.77003 0.533286 0)
(10.6215 -0.225706 0)
(9.66121 -0.163819 0)
(9.92791 0.240061 0)
(10.548 0.265071 0)
(10.1664 -0.556919 0)
(9.49772 0.252408 0)
(10.7174 0.474404 0)
(10.0278 -0.865357 0)
(9.87292 0.405082 0)
(9.89064 0.412729 0)
(11.005 -0.304408 0)
(10.1499 -0.133489 0)
(9.75651 0.115143 0)
(10.0087 0.0542424 0)
(10.3131 0.0740115 0)
(9.82275 -0.1283 0)
(10.1294 0.0440348 0)
(10.3416 0.138106 0)
(9.95897 -0.503959 0)
(9.82045 0.448265 0)
(10.5802 -0.206669 0)
(9.73403 -0.0972655 0)
(9.91653 0.167953 0)
(10.6449 0.209433 0)
(10.0522 -0.418189 0)
(9.67454 0.139595 0)
(10.8466 0.439801 0)
(9.9325 -0.791979 0)
(10.063 0.424811 0)
(10.0012 0.301052 0)
(10.9236 -0.283326 0)
(10.1555 -0.12132 0)
(9.65056 0.128714 0)
(10.0862 0.0247754 0)
(10.2511 0.0665397 0)
(9.90119 -0.106771 0)
(10.1292 -0.00713312 0)
(10.2906 0.162173 0)
(9.92838 -0.45377 0)
(9.8681 0.405795 0)
(10.3602 -0.184634 0)
(9.93809 -0.0740332 0)
(9.73934 0.114074 0)
(10.7272 0.186488 0)
(9.95107 -0.315474 0)
(9.64663 0.0569087 0)
(10.8464 0.451224 0)
(10.1078 -0.719213 0)
(9.6743 0.387577 0)
(10.8043 0.292364 0)
(10.5107 -0.234665 0)
(10.1511 -0.0954238 0)
(9.66318 0.117488 0)
(10.2079 -0.0201887 0)
(10.1313 0.0511035 0)
(9.97741 -0.0571946 0)
(10.0616 -0.049845 0)
(10.2972 0.176444 0)
(9.86465 -0.407538 0)
(10.0713 0.33889 0)
(10.0261 -0.186284 0)
(10.2701 -0.0150701 0)
(9.47738 0.0553115 0)
(10.697 0.126874 0)
(9.9219 -0.160747 0)
(9.83711 -0.0583278 0)
(10.346 0.365715 0)
(10.655 -0.533809 0)
(9.24557 0.29766 0)
(11.0949 0.178775 0)
(10.1143 -0.157948 0)
(10.2853 -0.0913188 0)
(9.47364 0.108464 0)
(10.299 -0.0157362 0)
(10.034 0.0420307 0)
(10.0652 -0.0552756 0)
(10.0105 -0.0725939 0)
(10.439 0.172912 0)
(9.62416 -0.380163 0)
(10.3723 0.335189 0)
(9.73505 -0.19546 0)
(10.4273 -0.0111293 0)
(9.47597 0.06815 0)
(10.771 0.0612541 0)
(9.59549 -0.127257 0)
(10.3829 -0.0393768 0)
(9.89888 0.287402 0)
(10.6115 -0.48882 0)
(9.32518 0.248726 0)
(10.9447 0.139586 0)
(9.72 -0.171879 0)
(10.2265 -0.0466623 0)
(9.44319 0.101885 0)
(10.4488 -0.0849056 0)
(9.88572 0.039156 0)
(10.1939 -0.0157258 0)
(9.85185 -0.124529 0)
(10.5067 0.229394 0)
(9.53743 -0.365872 0)
(10.4314 0.278324 0)
(9.85816 -0.148753 0)
(10.4564 0.000857385 0)
(9.53501 0.016503 0)
(10.8816 0.0970006 0)
(9.68118 -0.0922233 0)
(10.3057 -0.0931236 0)
(10.2045 0.280847 0)
(10.3634 -0.372078 0)
(9.56767 0.162471 0)
(10.6107 0.13052 0)
(10.2635 -0.112372 0)
(10.0857 -0.0331522 0)
(9.69964 0.0514213 0)
(10.2655 -0.0448514 0)
(9.98575 0.0227185 0)
(10.13 -0.0157134 0)
(9.92933 -0.118498 0)
(10.3256 0.179255 0)
(9.94849 -0.301111 0)
(10.1151 0.223588 0)
(10.3212 -0.157106 0)
(10.2185 0.0204505 0)
(10.0987 4.90021e-05 0)
(10.3187 0.029859 0)
(10.6051 -0.0251221 0)
(9.59319 -0.102594 0)
(10.9672 0.224494 0)
(9.81821 -0.307828 0)
(10.3854 0.166383 0)
(9.6612 0.0421603 0)
(11.5119 -0.0728796 0)
(9.8078 -0.00493918 0)
(10.0837 0.0500293 0)
(9.99004 -0.0890898 0)
(10.3503 0.00914409 0)
(9.71067 0.0221221 0)
(10.4765 -0.145564 0)
(9.66028 0.193342 0)
(10.6689 -0.27765 0)
(9.34342 0.167962 0)
(11.1674 -0.133087 0)
(9.1782 0.016206 0)
(11.1765 -0.00347001 0)
(9.17197 0.0312142 0)
(11.6075 -0.00951162 0)
(8.51547 -0.104546 0)
(11.9873 0.178749 0)
(8.82794 -0.213829 0)
(11.3787 0.14174 0)
(8.90078 -0.0637399 0)
(12.2737 0.0904056 0)
(9.60848 -0.0187304 0)
(10.4511 -0.000179898 0)
(9.72228 -0.0439098 0)
(10.5675 0.00849529 0)
(9.49903 -0.0137263 0)
(10.7201 -0.0813879 0)
(9.25264 0.0759978 0)
(11.1393 -0.152426 0)
(8.52756 0.0545847 0)
(11.7145 -0.0740103 0)
(8.11637 0.000875777 0)
(11.7686 -0.010933 0)
(8.14496 -0.0197488 0)
(12.1114 0.0462227 0)
(7.7382 -0.10545 0)
(12.3956 0.0814087 0)
(8.17983 -0.109722 0)
(11.6261 0.0985303 0)
(8.98146 -0.131262 0)
(11.6245 0.104601 0)
(9.82838 -0.0156415 0)
(9.94149 0.0154177 0)
(9.84771 -0.0512068 0)
(9.73582 -0.00438714 0)
(9.55046 0.0112643 0)
(9.82206 -0.0616302 0)
(8.99764 0.0429876 0)
(10.0652 -0.0749866 0)
(8.19456 0.00362832 0)
(10.0723 -0.0253191 0)
(7.88154 -0.00309839 0)
(10.0295 -0.028627 0)
(7.54298 0.0225939 0)
(10.336 -0.0151463 0)
(7.3123 -0.0596441 0)
(9.90592 0.0275594 0)
(7.46753 0.00286215 0)
(9.65593 -0.0693128 0)
(7.36498 -0.0170586 0)
(9.00426 0.1225 0)
(2.75599 0.629562 0)
(9.63767 -0.353324 0)
(5.5753 1.06362 0)
(7.44223 1.25977 0)
(9.29213 0.99487 0)
(9.83953 -0.683989 0)
(8.7209 -0.14503 0)
(8.51251 -1.70564 0)
(10.5753 -4.59708 0)
(9.9591 -4.00645 0)
(8.61934 -4.27506 0)
(9.50553 -3.75395 0)
(10.0113 -1.9383 0)
(8.67138 -0.830671 0)
(7.42766 -0.457595 0)
(6.84444 -0.309261 0)
(6.35857 -0.250103 0)
(6.1436 -0.152652 0)
(5.99562 -0.0801838 0)
(5.68389 -0.103823 0)
(5.429 -0.130292 0)
(5.36706 -0.0883226 0)
(5.3632 -0.0148623 0)
(5.32388 0.0453996 0)
(5.28689 0.0896501 0)
(5.29898 0.105888 0)
(5.34648 0.0853679 0)
(5.38328 0.0366978 0)
(5.38074 -0.0213322 0)
(5.34442 -0.0716493 0)
(5.29496 -0.10377 0)
(5.24767 -0.11518 0)
(5.20927 -0.109111 0)
(5.18097 -0.0919759 0)
(5.1614 -0.0707109 0)
(5.14842 -0.0505463 0)
(5.14012 -0.0341578 0)
(5.13499 -0.0221243 0)
(5.13193 -0.0138872 0)
(5.13017 -0.00851912 0)
(5.12919 -0.00513917 0)
(5.12867 -0.00306225 0)
(5.12841 -0.00180752 0)
(5.12827 -0.00105913 0)
(5.1282 -0.00061676 0)
(5.12817 -0.000357227 0)
(5.12816 -0.000206017 0)
(5.12815 -0.000118161 0)
(5.12814 -6.76169e-05 0)
(5.12814 -3.85023e-05 0)
(5.12814 -2.1785e-05 0)
(5.12814 -1.24119e-05 0)
(5.12814 -6.9023e-06 0)
(5.12814 -3.8706e-06 0)
(5.12814 -2.25324e-06 0)
(5.12814 -1.12272e-06 0)
(5.12814 -7.22748e-07 0)
(5.12814 -3.90201e-07 0)
(5.12814 -1.54427e-07 0)
(5.12814 -1.58592e-07 0)
(5.12814 -8.00643e-08 0)
(5.12814 1.49835e-08 0)
(5.12814 -8.85105e-08 0)
(5.12814 1.08494e-09 0)
(5.12814 4.26645e-08 0)
(5.12814 -7.9386e-08 0)
(5.12814 3.60485e-08 0)
(5.12814 2.20333e-08 0)
(5.12814 -6.10763e-08 0)
(5.12814 5.4687e-09 0)
(5.12814 7.43131e-08 0)
(5.12814 -7.91124e-08 0)
(5.12814 -9.33045e-09 0)
(5.12814 9.06292e-08 0)
(5.12814 -4.69832e-08 0)
(5.12814 -2.67556e-08 0)
(5.12814 4.07245e-08 0)
(5.12815 3.76283e-08 0)
(5.12813 -6.29671e-08 0)
(5.12815 8.33799e-10 0)
(5.12813 6.8609e-08 0)
(5.12815 -2.09847e-08 0)
(5.12813 -3.16486e-08 0)
(5.12815 9.32999e-09 0)
(5.12814 3.79875e-08 0)
(5.12814 2.25194e-10 0)
(5.12814 -4.69461e-08 0)
(5.12813 -7.55743e-09 0)
(5.12815 6.07195e-08 0)
(5.12813 1.8598e-08 0)
(5.12814 -8.8456e-08 0)
(5.12814 1.83076e-08 0)
(5.12814 5.9596e-08 0)
(5.12815 -1.60764e-08 0)
(5.12814 -9.00401e-09 0)
(5.12814 -7.17576e-08 0)
(5.12814 -1.50349e-08 0)
(5.12814 6.70557e-08 0)
(5.12814 -2.76495e-08 0)
(5.12814 -3.08861e-08 0)
(8.78464 0.722914 0)
(10.3221 -0.389676 0)
(9.10014 1.53626 0)
(7.58585 1.37535 0)
(10.7594 0.87914 0)
(10.0897 -0.521238 0)
(8.64819 -0.0111539 0)
(9.91727 -1.49649 0)
(11.8287 -4.49388 0)
(10.2785 -3.7887 0)
(8.86992 -4.16104 0)
(9.87614 -3.76138 0)
(10.0695 -1.8088 0)
(8.77973 -0.597725 0)
(7.44836 -0.272875 0)
(6.71646 -0.14646 0)
(6.11916 -0.129181 0)
(5.87509 -0.12037 0)
(5.90738 -0.0665907 0)
(5.76663 -0.0523051 0)
(5.49076 -0.0787867 0)
(5.35151 -0.0752939 0)
(5.34302 -0.0241377 0)
(5.33791 0.0456544 0)
(5.32438 0.0992803 0)
(5.33497 0.115945 0)
(5.3577 0.0872431 0)
(5.36079 0.0281405 0)
(5.3383 -0.0349308 0)
(5.30375 -0.0826821 0)
(5.26823 -0.109702 0)
(5.23614 -0.116999 0)
(5.20844 -0.108724 0)
(5.18537 -0.0908046 0)
(5.16702 -0.0694909 0)
(5.15326 -0.0495544 0)
(5.14361 -0.0334436 0)
(5.13726 -0.0216478 0)
(5.13332 -0.0135867 0)
(5.131 -0.00833807 0)
(5.12968 -0.00503446 0)
(5.12896 -0.00300373 0)
(5.12857 -0.00177574 0)
(5.12836 -0.00104221 0)
(5.12826 -0.000607935 0)
(5.1282 -0.000352667 0)
(5.12817 -0.000203607 0)
(5.12816 -0.000116924 0)
(5.12815 -6.69254e-05 0)
(5.12815 -3.81749e-05 0)
(5.12814 -2.16508e-05 0)
(5.12814 -1.22478e-05 0)
(5.12814 -6.85718e-06 0)
(5.12814 -3.85065e-06 0)
(5.12814 -2.17436e-06 0)
(5.12814 -1.14258e-06 0)
(5.12814 -6.89069e-07 0)
(5.12814 -3.95778e-07 0)
(5.12814 -2.101e-07 0)
(5.12814 -1.25299e-07 0)
(5.12814 -4.15012e-08 0)
(5.12814 -1.33944e-08 0)
(5.12814 -6.22628e-08 0)
(5.12814 -1.47091e-08 0)
(5.12814 1.91674e-08 0)
(5.12814 -1.76618e-08 0)
(5.12814 6.60187e-09 0)
(5.12814 -1.8039e-08 0)
(5.12814 -2.60455e-08 0)
(5.12814 1.47076e-08 0)
(5.12814 4.53006e-08 0)
(5.12814 -2.71587e-08 0)
(5.12814 -2.621e-08 0)
(5.12814 2.42777e-08 0)
(5.12814 2.6299e-09 0)
(5.12814 2.63482e-08 0)
(5.12814 2.16242e-08 0)
(5.12815 2.10872e-08 0)
(5.12813 -3.56896e-08 0)
(5.12815 3.23072e-09 0)
(5.12813 3.25607e-08 0)
(5.12815 -7.04331e-10 0)
(5.12813 1.90165e-08 0)
(5.12815 -2.74389e-08 0)
(5.12814 2.56439e-08 0)
(5.12814 -5.692e-08 0)
(5.12814 9.91013e-09 0)
(5.12813 2.97305e-08 0)
(5.12815 -1.91776e-08 0)
(5.12813 9.44073e-08 0)
(5.12815 -1.28864e-07 0)
(5.12814 4.4032e-08 0)
(5.12814 9.33415e-08 0)
(5.12815 -1.13438e-07 0)
(5.12814 9.10759e-08 0)
(5.12814 -6.15295e-08 0)
(5.12814 -1.06969e-07 0)
(5.12814 9.68259e-08 0)
(5.12814 -1.79958e-08 0)
(5.12814 -4.52419e-08 0)
(9.34846 0.960873 0)
(11.3063 -0.36559 0)
(11.1275 1.47698 0)
(9.29179 1.4594 0)
(11.9392 0.670266 0)
(10.7162 -0.401951 0)
(9.97987 -0.015442 0)
(10.8767 -1.96795 0)
(12.3251 -4.69285 0)
(10.6719 -3.53929 0)
(9.19686 -4.18775 0)
(10.5974 -3.80066 0)
(10.5991 -1.65768 0)
(8.96481 -0.403836 0)
(7.36663 -0.113931 0)
(6.71531 -0.0498987 0)
(6.24835 -0.0750614 0)
(5.92497 -0.102359 0)
(5.93612 -0.0639596 0)
(5.89023 -0.0394011 0)
(5.61146 -0.0574153 0)
(5.36715 -0.0571437 0)
(5.31962 -0.00778145 0)
(5.3634 0.0533583 0)
(5.39049 0.0906497 0)
(5.38871 0.0960063 0)
(5.37273 0.0758034 0)
(5.35086 0.0392763 0)
(5.32485 -0.00560057 0)
(5.29564 -0.050557 0)
(5.2659 -0.0834975 0)
(5.23789 -0.0983978 0)
(5.21268 -0.0961595 0)
(5.19068 -0.0823629 0)
(5.1722 -0.0638339 0)
(5.15754 -0.0458435 0)
(5.14675 -0.031103 0)
(5.13937 -0.0202389 0)
(5.13466 -0.0127769 0)
(5.13181 -0.00789122 0)
(5.13016 -0.00479615 0)
(5.12923 -0.00287986 0)
(5.12873 -0.00171239 0)
(5.12846 -0.00101002 0)
(5.12831 -0.000591648 0)
(5.12823 -0.00034438 0)
(5.12819 -0.000199278 0)
(5.12817 -0.000114635 0)
(5.12816 -6.56853e-05 0)
(5.12815 -3.75696e-05 0)
(5.12815 -2.13256e-05 0)
(5.12814 -1.19914e-05 0)
(5.12814 -6.73977e-06 0)
(5.12814 -3.81174e-06 0)
(5.12814 -2.09735e-06 0)
(5.12814 -1.1147e-06 0)
(5.12814 -6.6112e-07 0)
(5.12814 -4.3961e-07 0)
(5.12814 -2.64508e-07 0)
(5.12814 -9.0132e-08 0)
(5.12814 2.53576e-08 0)
(5.12814 -1.91639e-08 0)
(5.12814 -8.33571e-08 0)
(5.12814 -4.79761e-08 0)
(5.12814 1.85217e-08 0)
(5.12814 2.87999e-08 0)
(5.12814 -2.82334e-08 0)
(5.12814 -7.27585e-08 0)
(5.12814 -2.22672e-08 0)
(5.12814 5.38905e-08 0)
(5.12814 5.23879e-08 0)
(5.12814 -1.50426e-08 0)
(5.12814 -8.12459e-08 0)
(5.12814 -2.9209e-08 0)
(5.12814 5.88744e-08 0)
(5.12814 1.03782e-07 0)
(5.12814 3.65796e-08 0)
(5.12815 5.42453e-10 0)
(5.12813 -4.90769e-08 0)
(5.12815 3.75569e-09 0)
(5.12813 2.57647e-08 0)
(5.12815 4.38274e-08 0)
(5.12813 5.90962e-08 0)
(5.12815 -7.9239e-08 0)
(5.12814 1.11214e-09 0)
(5.12814 -1.40547e-07 0)
(5.12814 6.87418e-08 0)
(5.12813 7.92784e-08 0)
(5.12815 -5.85846e-08 0)
(5.12813 1.78373e-07 0)
(5.12814 -2.10586e-07 0)
(5.12814 7.45066e-08 0)
(5.12814 1.41879e-07 0)
(5.12815 -1.96091e-07 0)
(5.12814 2.03207e-07 0)
(5.12814 -7.91202e-08 0)
(5.12814 -2.04962e-07 0)
(5.12814 1.26678e-07 0)
(5.12814 -1.69337e-08 0)
(5.12814 -6.17482e-08 0)
(9.60818 1.03678 0)
(11.2447 -0.518804 0)
(10.6124 1.44248 0)
(10.3255 1.40616 0)
(12.363 0.623957 0)
(11.6199 -0.339392 0)
(10.7504 -0.0181031 0)
(12.1879 -1.85095 0)
(12.2997 -4.49713 0)
(10.4714 -3.13614 0)
(9.77962 -4.29984 0)
(11.6742 -3.85694 0)
(11.2444 -1.33844 0)
(9.22921 -0.083889 0)
(7.56317 0.0437196 0)
(6.90877 0.0734685 0)
(6.36313 0.0485459 0)
(5.85936 -0.0524001 0)
(5.79253 -0.0543836 0)
(5.85341 0.019746 0)
(5.6854 0.0195788 0)
(5.42144 -0.0281228 0)
(5.29207 -0.0276511 0)
(5.3123 0.0292563 0)
(5.37867 0.0945448 0)
(5.42516 0.123407 0)
(5.43744 0.0995016 0)
(5.41834 0.0375694 0)
(5.37888 -0.0319705 0)
(5.33312 -0.0837686 0)
(5.29014 -0.111351 0)
(5.25343 -0.117107 0)
(5.2232 -0.107022 0)
(5.19826 -0.0879204 0)
(5.17774 -0.0662537 0)
(5.1615 -0.0466196 0)
(5.14944 -0.0311452 0)
(5.14113 -0.0200314 0)
(5.13576 -0.0125392 0)
(5.13249 -0.00770005 0)
(5.13057 -0.00466378 0)
(5.12948 -0.00279567 0)
(5.12888 -0.0016617 0)
(5.12854 -0.000980556 0)
(5.12836 -0.000574855 0)
(5.12826 -0.000334905 0)
(5.12821 -0.000193986 0)
(5.12818 -0.000111712 0)
(5.12816 -6.40541e-05 0)
(5.12815 -3.66286e-05 0)
(5.12815 -2.08068e-05 0)
(5.12814 -1.17202e-05 0)
(5.12814 -6.58685e-06 0)
(5.12814 -3.71745e-06 0)
(5.12814 -2.04966e-06 0)
(5.12814 -1.11491e-06 0)
(5.12814 -6.53556e-07 0)
(5.12814 -4.00365e-07 0)
(5.12814 -2.33474e-07 0)
(5.12814 -1.0386e-07 0)
(5.12814 -6.88012e-09 0)
(5.12814 -2.41407e-08 0)
(5.12814 -5.58938e-08 0)
(5.12814 -2.75973e-08 0)
(5.12814 4.1455e-09 0)
(5.12814 1.60185e-08 0)
(5.12814 -1.50414e-08 0)
(5.12814 -4.62062e-08 0)
(5.12814 -1.4834e-08 0)
(5.12814 3.32954e-08 0)
(5.12814 2.89898e-08 0)
(5.12814 -3.86272e-09 0)
(5.12814 -4.70514e-08 0)
(5.12814 -1.49304e-08 0)
(5.12814 3.62457e-08 0)
(5.12814 6.79627e-08 0)
(5.12814 1.52328e-08 0)
(5.12815 1.48431e-08 0)
(5.12813 -3.0516e-08 0)
(5.12815 1.43632e-08 0)
(5.12813 1.085e-08 0)
(5.12815 1.68065e-08 0)
(5.12813 6.18773e-08 0)
(5.12815 -8.29233e-08 0)
(5.12814 5.53894e-08 0)
(5.12814 -1.47731e-07 0)
(5.12814 7.66253e-08 0)
(5.12813 6.68508e-08 0)
(5.12815 -1.16125e-07 0)
(5.12813 2.42069e-07 0)
(5.12814 -2.56615e-07 0)
(5.12814 1.04065e-07 0)
(5.12814 1.76317e-07 0)
(5.12815 -2.93876e-07 0)
(5.12814 2.60439e-07 0)
(5.12814 -7.74846e-08 0)
(5.12814 -2.44602e-07 0)
(5.12814 1.94175e-07 0)
(5.12814 -1.55955e-08 0)
(5.12814 -8.94927e-08 0)
(10.2338 1.15901 0)
(11.1906 -0.396198 0)
(10.1202 1.31582 0)
(10.4117 1.31152 0)
(12.8338 0.535878 0)
(12.3873 -0.346304 0)
(11.5878 0.00291337 0)
(13.1582 -1.9927 0)
(12.2416 -4.53882 0)
(10.5828 -3.13795 0)
(10.1858 -4.62768 0)
(11.9141 -4.09217 0)
(12.133 -1.19075 0)
(9.74703 0.218241 0)
(7.43208 0.27273 0)
(6.59452 0.187548 0)
(6.28807 0.124519 0)
(5.81454 -0.0107592 0)
(5.61679 -0.0775112 0)
(5.75623 -0.0242933 0)
(5.77639 0.0213698 0)
(5.58606 0.0190028 0)
(5.40928 0.017111 0)
(5.36763 0.044388 0)
(5.40488 0.0732403 0)
(5.44007 0.0831328 0)
(5.44119 0.072763 0)
(5.41812 0.0484478 0)
(5.38588 0.0154255 0)
(5.34784 -0.0236992 0)
(5.30627 -0.0571605 0)
(5.26683 -0.0766297 0)
(5.23337 -0.0797017 0)
(5.20609 -0.070329 0)
(5.18379 -0.0551843 0)
(5.16595 -0.0398031 0)
(5.1525 -0.0270697 0)
(5.1431 -0.0176787 0)
(5.13697 -0.0112282 0)
(5.13321 -0.00699192 0)
(5.13099 -0.00429048 0)
(5.12973 -0.00260205 0)
(5.12902 -0.00156201 0)
(5.12863 -0.00092916 0)
(5.12841 -0.000548172 0)
(5.12829 -0.000320882 0)
(5.12823 -0.000186504 0)
(5.12819 -0.000107667 0)
(5.12817 -6.18424e-05 0)
(5.12816 -3.5426e-05 0)
(5.12815 -2.01392e-05 0)
(5.12815 -1.13205e-05 0)
(5.12814 -6.37804e-06 0)
(5.12814 -3.60869e-06 0)
(5.12814 -1.97795e-06 0)
(5.12814 -1.06689e-06 0)
(5.12814 -6.33291e-07 0)
(5.12814 -4.03204e-07 0)
(5.12814 -2.42351e-07 0)
(5.12814 -8.81327e-08 0)
(5.12814 2.04304e-08 0)
(5.12814 -1.99682e-08 0)
(5.12814 -6.83012e-08 0)
(5.12814 -3.94046e-08 0)
(5.12814 5.5366e-09 0)
(5.12814 2.43483e-08 0)
(5.12814 -2.90552e-08 0)
(5.12814 -6.82049e-08 0)
(5.12814 -1.60583e-08 0)
(5.12814 4.5372e-08 0)
(5.12814 3.85199e-08 0)
(5.12814 -8.02432e-09 0)
(5.12814 -7.12783e-08 0)
(5.12814 -2.56233e-08 0)
(5.12814 5.121e-08 0)
(5.12814 9.56736e-08 0)
(5.12814 2.26355e-08 0)
(5.12815 1.23433e-08 0)
(5.12813 -4.50978e-08 0)
(5.12815 1.31457e-08 0)
(5.12813 1.41269e-08 0)
(5.12815 2.87182e-08 0)
(5.12813 7.98618e-08 0)
(5.12815 -1.15647e-07 0)
(5.12814 6.09672e-08 0)
(5.12814 -1.96821e-07 0)
(5.12814 1.07041e-07 0)
(5.12813 8.17983e-08 0)
(5.12815 -1.44017e-07 0)
(5.12813 3.11008e-07 0)
(5.12814 -3.39834e-07 0)
(5.12814 1.42336e-07 0)
(5.12814 2.10393e-07 0)
(5.12815 -3.73155e-07 0)
(5.12814 3.50478e-07 0)
(5.12814 -1.05319e-07 0)
(5.12814 -3.07008e-07 0)
(5.12814 2.45002e-07 0)
(5.12814 -2.55603e-08 0)
(5.12814 -1.11242e-07 0)
(10.3875 1.26904 0)
(11.1937 -0.269926 0)
(10.0376 1.20286 0)
(10.8316 1.11089 0)
(12.7591 0.314874 0)
(13.3231 -0.317993 0)
(11.9122 -0.0292896 0)
(13.8835 -1.98783 0)
(12.2862 -4.06395 0)
(10.7112 -2.75758 0)
(11.0151 -4.61038 0)
(11.9095 -4.07068 0)
(12.3986 -0.856647 0)
(10.1594 0.653633 0)
(7.95509 0.527315 0)
(6.8909 0.320071 0)
(6.47706 0.233947 0)
(5.99724 0.0822845 0)
(5.59309 -0.0371752 0)
(5.61114 -0.00184073 0)
(5.72462 0.055635 0)
(5.62252 0.0352854 0)
(5.43895 0.00607658 0)
(5.37848 0.0244856 0)
(5.42977 0.0794771 0)
(5.48005 0.118197 0)
(5.49565 0.105627 0)
(5.49884 0.0474851 0)
(5.48741 -0.0259433 0)
(5.44544 -0.0829656 0)
(5.37858 -0.112338 0)
(5.309 -0.117088 0)
(5.25333 -0.105305 0)
(5.21411 -0.0848594 0)
(5.18692 -0.0625851 0)
(5.16753 -0.0430998 0)
(5.15363 -0.0282697 0)
(5.14401 -0.0179478 0)
(5.13767 -0.0111597 0)
(5.1337 -0.00684522 0)
(5.13132 -0.00415859 0)
(5.12993 -0.0025066 0)
(5.12915 -0.00149958 0)
(5.1287 -0.000890583 0)
(5.12846 -0.00052509 0)
(5.12832 -0.000307339 0)
(5.12824 -0.000178687 0)
(5.1282 -0.000103214 0)
(5.12817 -5.9303e-05 0)
(5.12816 -3.39568e-05 0)
(5.12815 -1.92999e-05 0)
(5.12815 -1.08714e-05 0)
(5.12814 -6.126e-06 0)
(5.12814 -3.46596e-06 0)
(5.12814 -1.90911e-06 0)
(5.12814 -1.0462e-06 0)
(5.12814 -6.17644e-07 0)
(5.12814 -3.63954e-07 0)
(5.12814 -2.09934e-07 0)
(5.12814 -9.86257e-08 0)
(5.12814 -6.19573e-09 0)
(5.12814 -2.2637e-08 0)
(5.12814 -5.10022e-08 0)
(5.12814 -2.41513e-08 0)
(5.12814 -1.55917e-09 0)
(5.12814 9.05446e-09 0)
(5.12814 -1.52914e-08 0)
(5.12814 -4.33051e-08 0)
(5.12814 -1.3337e-08 0)
(5.12814 3.06271e-08 0)
(5.12814 2.30351e-08 0)
(5.12814 -4.43643e-09 0)
(5.12814 -4.3723e-08 0)
(5.12814 -6.05956e-09 0)
(5.12814 3.06127e-08 0)
(5.12814 6.72589e-08 0)
(5.12814 5.40534e-09 0)
(5.12815 2.7422e-08 0)
(5.12814 -3.5021e-08 0)
(5.12815 2.42104e-08 0)
(5.12813 2.41117e-09 0)
(5.12815 7.45528e-09 0)
(5.12813 8.1446e-08 0)
(5.12815 -1.23879e-07 0)
(5.12814 1.12914e-07 0)
(5.12814 -2.10404e-07 0)
(5.12814 1.22805e-07 0)
(5.12813 6.50695e-08 0)
(5.12815 -1.88732e-07 0)
(5.12813 3.72439e-07 0)
(5.12814 -3.95954e-07 0)
(5.12814 1.83486e-07 0)
(5.12814 2.33887e-07 0)
(5.12815 -4.63132e-07 0)
(5.12814 4.1403e-07 0)
(5.12814 -1.16131e-07 0)
(5.12814 -3.41803e-07 0)
(5.12814 3.09862e-07 0)
(5.12814 -2.79041e-08 0)
(5.12814 -1.36731e-07 0)
(9.89401 1.18968 0)
(11.4441 -0.120164 0)
(9.71716 1.09639 0)
(11.3486 0.889834 0)
(12.1166 0.190361 0)
(13.5348 -0.427821 0)
(11.3351 0.0389745 0)
(14.1219 -2.00604 0)
(11.4438 -3.92557 0)
(10.5709 -2.87819 0)
(11.3772 -5.01676 0)
(12.168 -4.18065 0)
(12.4783 -0.681092 0)
(10.334 0.95686 0)
(8.147 0.801114 0)
(7.04862 0.47233 0)
(6.63816 0.292523 0)
(6.28293 0.146403 0)
(5.77623 -0.0134082 0)
(5.54359 -0.0520385 0)
(5.69171 0.0208393 0)
(5.80439 0.0763729 0)
(5.65011 0.0705776 0)
(5.41169 0.0537514 0)
(5.31264 0.0597905 0)
(5.3764 0.0744768 0)
(5.52918 0.0713961 0)
(5.6838 0.0511387 0)
(5.75483 0.028187 0)
(5.70668 0.00656074 0)
(5.57951 -0.0195502 0)
(5.44107 -0.043128 0)
(5.33141 -0.0552531 0)
(5.25687 -0.0540841 0)
(5.20888 -0.0445857 0)
(5.17819 -0.0328275 0)
(5.1586 -0.0224989 0)
(5.1463 -0.0147538 0)
(5.13876 -0.00942074 0)
(5.13426 -0.00591385 0)
(5.13163 -0.00366698 0)
(5.13012 -0.00224982 0)
(5.12926 -0.00136607 0)
(5.12877 -0.000820992 0)
(5.1285 -0.000488524 0)
(5.12834 -0.000287893 0)
(5.12826 -0.00016821 0)
(5.12821 -9.74999e-05 0)
(5.12818 -5.61525e-05 0)
(5.12816 -3.22089e-05 0)
(5.12815 -1.83251e-05 0)
(5.12815 -1.03145e-05 0)
(5.12814 -5.82844e-06 0)
(5.12814 -3.30863e-06 0)
(5.12814 -1.81283e-06 0)
(5.12814 -9.87645e-07 0)
(5.12814 -5.83346e-07 0)
(5.12814 -3.52472e-07 0)
(5.12814 -2.07566e-07 0)
(5.12814 -8.32686e-08 0)
(5.12814 1.28207e-08 0)
(5.12814 -1.74575e-08 0)
(5.12814 -5.71395e-08 0)
(5.12814 -3.11349e-08 0)
(5.12814 -1.15858e-09 0)
(5.12814 1.38664e-08 0)
(5.12814 -2.37615e-08 0)
(5.12814 -5.69311e-08 0)
(5.12814 -1.44865e-08 0)
(5.12814 3.81781e-08 0)
(5.12814 2.77289e-08 0)
(5.12814 -6.61724e-09 0)
(5.12814 -5.79172e-08 0)
(5.12814 -1.40757e-08 0)
(5.12814 3.6889e-08 0)
(5.12814 8.46573e-08 0)
(5.12814 8.90119e-09 0)
(5.12815 2.85744e-08 0)
(5.12814 -4.45969e-08 0)
(5.12815 2.43796e-08 0)
(5.12813 1.81173e-09 0)
(5.12815 1.6336e-08 0)
(5.12813 9.55181e-08 0)
(5.12815 -1.49405e-07 0)
(5.12814 1.27761e-07 0)
(5.12814 -2.56875e-07 0)
(5.12814 1.56687e-07 0)
(5.12813 6.45633e-08 0)
(5.12815 -2.12072e-07 0)
(5.12813 4.38676e-07 0)
(5.12814 -4.79754e-07 0)
(5.12814 2.3214e-07 0)
(5.12814 2.50443e-07 0)
(5.12815 -5.34305e-07 0)
(5.12814 5.04501e-07 0)
(5.12814 -1.48544e-07 0)
(5.12814 -3.88747e-07 0)
(5.12814 3.6081e-07 0)
(5.12814 -4.13955e-08 0)
(5.12814 -1.57997e-07 0)
(9.5612 0.952681 0)
(11.5497 -0.0394577 0)
(9.71729 0.943291 0)
(11.6507 0.728317 0)
(11.1231 0.0467766 0)
(12.9188 -0.405826 0)
(10.2549 0.0222541 0)
(14.2592 -2.04951 0)
(10.3446 -3.56319 0)
(10.982 -2.76216 0)
(11.9755 -5.10803 0)
(12.2637 -4.15995 0)
(12.7361 -0.369214 0)
(10.4127 1.34337 0)
(8.06426 1.06158 0)
(6.86265 0.656693 0)
(6.38079 0.413544 0)
(6.14826 0.235445 0)
(5.81336 0.0880737 0)
(5.49838 0.020938 0)
(5.4559 0.0179097 0)
(5.6256 0.0367366 0)
(5.7446 0.0616397 0)
(5.6771 0.0766998 0)
(5.52274 0.0842643 0)
(5.42291 0.0798085 0)
(5.39726 0.0522683 0)
(5.39499 0.0093337 0)
(5.38028 -0.0320192 0)
(5.34898 -0.0632408 0)
(5.31084 -0.0810816 0)
(5.2745 -0.0878274 0)
(5.24317 -0.083464 0)
(5.21638 -0.0699612 0)
(5.19312 -0.0525708 0)
(5.17347 -0.0363516 0)
(5.15801 -0.023792 0)
(5.14687 -0.0150719 0)
(5.13943 -0.00938298 0)
(5.13475 -0.00578386 0)
(5.13194 -0.00354047 0)
(5.13031 -0.00215264 0)
(5.12937 -0.00129887 0)
(5.12884 -0.000777258 0)
(5.12854 -0.000461155 0)
(5.12837 -0.000271248 0)
(5.12827 -0.000158325 0)
(5.12821 -9.1738e-05 0)
(5.12818 -5.2819e-05 0)
(5.12816 -3.02721e-05 0)
(5.12815 -1.72111e-05 0)
(5.12815 -9.704e-06 0)
(5.12814 -5.48894e-06 0)
(5.12814 -3.11859e-06 0)
(5.12814 -1.71693e-06 0)
(5.12814 -9.44555e-07 0)
(5.12814 -5.56159e-07 0)
(5.12814 -3.13749e-07 0)
(5.12814 -1.78063e-07 0)
(5.12814 -8.80384e-08 0)
(5.12814 -6.2963e-09 0)
(5.12814 -2.06082e-08 0)
(5.12814 -4.60554e-08 0)
(5.12814 -2.09444e-08 0)
(5.12814 -5.46473e-09 0)
(5.12814 2.88039e-09 0)
(5.12814 -1.48843e-08 0)
(5.12814 -3.87396e-08 0)
(5.12814 -1.206e-08 0)
(5.12814 2.87113e-08 0)
(5.12814 1.71259e-08 0)
(5.12814 -4.97043e-09 0)
(5.12814 -3.86216e-08 0)
(5.12814 2.17107e-09 0)
(5.12814 2.23035e-08 0)
(5.12814 6.61792e-08 0)
(5.12814 -5.19937e-09 0)
(5.12815 3.96001e-08 0)
(5.12814 -4.12192e-08 0)
(5.12815 3.55231e-08 0)
(5.12813 -1.06309e-08 0)
(5.12815 3.60216e-09 0)
(5.12813 9.57737e-08 0)
(5.12815 -1.61014e-07 0)
(5.12814 1.72636e-07 0)
(5.12814 -2.7782e-07 0)
(5.12814 1.8405e-07 0)
(5.12813 4.17507e-08 0)
(5.12815 -2.42852e-07 0)
(5.12813 4.93593e-07 0)
(5.12814 -5.44331e-07 0)
(5.12814 2.88638e-07 0)
(5.12814 2.55022e-07 0)
(5.12815 -6.09848e-07 0)
(5.12814 5.73122e-07 0)
(5.12814 -1.74966e-07 0)
(5.12814 -4.14559e-07 0)
(5.12814 4.20113e-07 0)
(5.12814 -4.79718e-08 0)
(5.12814 -1.79825e-07 0)
(9.32913 0.695836 0)
(11.8022 0.0480086 0)
(9.70381 0.760728 0)
(11.8897 0.677098 0)
(10.1745 0.0659593 0)
(12.5087 -0.456274 0)
(9.67635 -0.0991792 0)
(14.1777 -2.03534 0)
(9.80227 -3.23455 0)
(11.0523 -3.1972 0)
(12.2629 -5.55655 0)
(11.4408 -4.22839 0)
(12.0886 -0.161242 0)
(10.4563 1.63503 0)
(8.09304 1.34017 0)
(7.02952 0.815086 0)
(6.72542 0.457297 0)
(6.32155 0.264503 0)
(5.79674 0.108758 0)
(5.47857 0.0143823 0)
(5.48932 -0.0033912 0)
(5.62937 0.03395 0)
(5.65378 0.0784744 0)
(5.57978 0.101322 0)
(5.52324 0.102473 0)
(5.52193 0.0928668 0)
(5.56708 0.0729425 0)
(5.63331 0.0511908 0)
(5.6734 0.0376584 0)
(5.64734 0.0252821 0)
(5.55837 0.00360074 0)
(5.44444 -0.0215449 0)
(5.34198 -0.0380459 0)
(5.26585 -0.0412807 0)
(5.21453 -0.0352872 0)
(5.18143 -0.0262292 0)
(5.16054 -0.0179246 0)
(5.14759 -0.0116905 0)
(5.13968 -0.0074609 0)
(5.13492 -0.00471448 0)
(5.13209 -0.00295954 0)
(5.13043 -0.00184324 0)
(5.12946 -0.00113604 0)
(5.1289 -0.000691763 0)
(5.12858 -0.000416003 0)
(5.12839 -0.00024713 0)
(5.12828 -0.000145267 0)
(5.12822 -8.45734e-05 0)
(5.12819 -4.88411e-05 0)
(5.12817 -2.80415e-05 0)
(5.12816 -1.59586e-05 0)
(5.12815 -9.00398e-06 0)
(5.12815 -5.10905e-06 0)
(5.12814 -2.91387e-06 0)
(5.12814 -1.59706e-06 0)
(5.12814 -8.74564e-07 0)
(5.12814 -5.11629e-07 0)
(5.12814 -2.92461e-07 0)
(5.12814 -1.70714e-07 0)
(5.12814 -7.30526e-08 0)
(5.12814 8.01432e-09 0)
(5.12814 -1.60647e-08 0)
(5.12814 -4.68323e-08 0)
(5.12814 -2.50531e-08 0)
(5.12814 -4.92849e-09 0)
(5.12814 6.80117e-09 0)
(5.12814 -1.9615e-08 0)
(5.12814 -4.62932e-08 0)
(5.12814 -1.27689e-08 0)
(5.12814 3.2399e-08 0)
(5.12814 1.92803e-08 0)
(5.12814 -5.85694e-09 0)
(5.12814 -4.63716e-08 0)
(5.12814 -3.74817e-09 0)
(5.12814 2.20812e-08 0)
(5.12814 7.59927e-08 0)