/*--------------------------------*- C++ -*----------------------------------*\
| =========                 |                                                 |
| \\      /  F ield         | OpenFOAM: The Open Source CFD Toolbox           |
|  \\    /   O peration     | Version:  2.4.0                                 |
|   \\  /    A nd           | Web:      www.OpenFOAM.org                      |
|    \\/     M anipulation  |                                                 |
\*---------------------------------------------------------------------------*/
FoamFile
{
    version     2.0;
    format      ascii;
    class       volScalarField;
    location    "1.59";
    object      p;
}
// * * * * * * * * * * * * * * * * * * * * * * * * * * * * * * * * * * * * * //

dimensions      [0 2 -2 0 0 0 0];

internalField   nonuniform List<scalar> 
8800
(
76.8511
64.4859
57.0703
53.5638
51.6585
50.269
49.062
47.9666
46.9401
45.9741
45.0055
44.0976
43.1832
42.2832
41.4048
40.6239
39.7571
38.9757
38.1429
37.3603
73.7408
64.131
57.2397
53.6779
51.7189
50.2935
49.0697
47.9669
46.9383
45.9722
45.0023
44.0948
43.1829
42.2806
41.404
40.6232
39.763
38.9647
38.1383
37.3438
71.7778
64.2024
57.8442
54.0537
51.8879
50.371
49.1164
47.9992
46.9632
45.9898
45.0135
44.0995
43.1871
42.2784
41.4073
40.6227
39.7805
38.9678
38.1716
37.374
70.2417
64.2581
58.4385
54.4764
52.0722
50.4552
49.1806
48.0533
47.0141
46.028
45.0452
44.1152
43.2035
42.2808
41.423
40.6224
39.8195
39.0096
38.3347
37.4528
68.9897
64.2264
58.9231
54.8846
52.2432
50.518
49.233
48.1061
47.073
46.078
45.0888
44.1383
43.2248
42.2881
41.4421
40.6253
39.8651
39.0963
38.4975
37.5509
68.0004
64.1297
59.3001
55.2297
52.3977
50.5566
49.2666
48.1461
47.1295
46.1254
45.136
44.1627
43.2451
42.2985
41.4584
40.6269
39.8951
39.1717
38.6461
37.6688
67.244
64.0125
59.5759
55.5109
52.5386
50.5805
49.2809
48.1733
47.1731
46.1685
45.1733
44.1878
43.2585
42.3107
41.4643
40.6332
39.894
39.1913
38.7721
38.2108
66.6876
63.9167
59.7574
55.7254
52.6593
50.6048
49.2716
48.2003
47.201
46.2041
45.1976
44.2154
43.2607
42.3273
41.4571
40.6413
39.8676
39.152
38.546
38.7212
66.3271
63.8444
59.8697
55.8735
52.7478
50.6215
49.2615
48.2171
47.2208
46.2281
45.216
44.2326
43.268
42.3387
41.4597
40.6375
39.8467
39.1596
38.6765
39.2961
66.1494
63.8071
59.9244
55.9485
52.7941
50.6312
49.2527
48.2245
47.2343
46.2395
45.2271
44.2408
43.2737
42.3462
41.4655
40.6357
39.8592
39.1751
38.7711
39.3999
66.1446
63.8164
59.9229
55.9539
52.7939
50.6351
49.2486
48.2257
47.2344
46.2409
45.2289
44.2444
43.2772
42.3547
41.4744
40.6439
39.8708
39.204
38.8314
39.5244
66.3176
63.8581
59.8691
55.8803
52.7503
50.6313
49.2532
48.2178
47.2258
46.2286
45.2229
44.2433
43.281
42.3641
41.4866
40.6579
39.894
39.2272
38.8881
39.6343
66.6719
63.9332
59.7542
55.7366
52.6622
50.6223
49.2593
48.2047
47.2051
46.2064
45.2098
44.2361
43.279
42.3742
41.5041
40.6791
39.921
39.2646
38.9256
39.6489
67.2219
64.0332
59.5729
55.5219
52.535
50.6058
49.2651
48.1809
47.1752
46.1765
45.1866
44.2225
43.2751
42.3825
41.5225
40.7066
39.9597
39.3154
38.9324
39.5601
67.9792
64.1442
59.3062
55.2384
52.3945
50.5785
49.2585
48.1479
47.1367
46.1339
45.1587
44.2016
43.2656
42.3907
41.5438
40.7343
40.0074
39.3759
38.964
39.3926
68.9629
64.2397
58.9421
54.888
52.2378
50.5368
49.2348
48.1014
47.088
46.0855
45.1246
44.1751
43.2575
42.3929
41.562
40.7623
40.0629
39.448
39.0221
39.1509
70.2124
64.2651
58.4652
54.4812
52.0659
50.4725
49.1893
48.0447
47.0339
46.0341
45.0903
44.1505
43.2474
42.3914
41.5802
40.7841
40.1148
39.5143
39.1014
38.9097
71.7497
64.2009
57.8782
54.0575
51.8806
50.3864
49.1302
47.9883
46.9858
45.9957
45.0648
44.1329
43.2422
42.3916
41.592
40.8005
40.1525
39.5619
39.1705
38.7886
73.7176
64.1224
57.2735
53.6818
51.7142
50.3071
49.0847
47.9567
46.9615
45.9789
45.0548
44.1287
43.2435
42.395
41.5991
40.8129
40.1698
39.5883
39.1706
38.744
76.8326
64.476
57.1035
53.567
51.6559
50.2813
49.0765
47.9575
46.9628
45.9816
45.0577
44.1308
43.2471
42.3973
41.6019
40.8176
40.1739
39.5943
39.1696
38.8628
37.301
37.2849
37.2011
37.078
36.9016
36.6663
36.3784
36.0679
35.789
35.5465
35.3496
35.2229
35.1255
35.0599
35.009
34.974
35.0198
35.1434
35.4139
35.9249
36.6659
37.6886
39.0384
40.6535
42.4893
44.4129
46.2687
47.9343
49.2529
50.1408
50.3792
50.1989
49.1133
47.0382
43.8584
39.4869
33.8648
27.179
20.1062
13.3904
7.57507
3.25893
0.791297
-0.278535
0.115696
1.74627
4.38151
7.98804
12.5947
18.5225
25.5052
33.3738
41.6502
49.4874
56.6499
62.9404
67.856
71.2514
73.4304
74.2273
73.7445
71.6743
68.2288
63.9246
59.2717
54.5689
49.8655
45.2443
40.9295
37.0949
33.6878
30.7873
28.6106
27.2417
26.5138
26.693
27.7069
29.0727
31.1304
33.5668
35.7226
37.6779
39.4725
41.0035
41.9652
42.0878
41.0622
38.918
35.6628
31.1978
25.5425
19.3621
13.066
7.24151
1.56297
-4.02943
-8.05347
-10.89
-12.3558
-12.9759
-13.7001
-13.573
-12.5099
-10.8547
-8.44668
-5.13173
-0.397193
6.04008
14.4286
23.7013
32.1346
39.7017
46.3162
51.0029
54.1043
56.5409
58.6867
60.2829
61.584
62.4669
62.9417
63.0923
63.0039
62.7041
62.3193
61.7234
61.0237
60.3035
59.1785
57.8639
56.4839
55.0631
53.7497
52.5847
51.5323
50.7327
50.2473
49.9827
50.0831
50.3958
50.9258
51.6352
52.4935
53.6697
54.7388
55.7191
56.6616
57.2473
57.0421
55.8547
54.5772
52.856
50.5488
48.0035
45.8156
43.9404
40.5661
36.2632
30.7301
24.0139
17.1979
11.4668
6.86553
3.1189
2.2793
3.409
4.7215
6.9819
11.3638
16.4168
21.4627
26.5179
30.7912
34.1645
38.0443
42.5256
46.2932
49.3313
51.5367
53.4882
55.2477
56.3927
57.0861
57.3636
57.8013
58.0404
57.9185
57.5675
56.9594
56.1759
55.1634
54.1936
53.0515
51.8371
49.9397
47.574
43.7578
38.3636
31.3215
14.1961
37.047
36.9368
36.8863
36.8747
36.8241
36.6533
36.413
36.1053
35.8146
35.5718
35.3638
35.2499
35.1493
35.1
35.0842
35.0636
35.1972
35.3848
35.7089
36.3071
37.0894
38.1631
39.5525
41.2056
42.9925
44.8353
46.6226
48.1838
49.5258
50.5279
50.9436
50.5664
49.4052
47.2726
44.0682
39.8161
34.5196
28.3056
21.8092
15.8064
10.5086
6.4424
4.13411
3.11538
3.38728
5.07633
7.60253
11.1714
16.0087
21.9301
28.5394
35.5447
43.127
50.5127
56.6565
61.6063
65.76
68.8163
70.6774
71.5167
71.1494
69.454
66.7251
63.1281
59.0777
54.9785
50.6836
46.5171
42.7749
39.4143
36.4296
33.9815
32.2089
31.0976
30.7271
31.1698
32.315
33.8081
35.6123
37.8078
39.8782
41.6428
43.3217
44.7613
45.534
45.2804
43.8275
41.1476
37.2041
31.7738
24.9351
17.3412
9.88709
3.15624
-3.38476
-9.57826
-13.9595
-16.7211
-17.8669
-18.2094
-18.8278
-18.6053
-17.4241
-15.7799
-13.0236
-9.29121
-4.37256
2.36997
11.2663
20.9274
29.7218
37.7461
44.6821
49.787
53.1107
55.7969
58.0831
59.8669
61.2462
62.1874
62.7065
63.0002
62.9898
62.7556
62.4688
61.9873
61.5501
60.8381
59.8461
58.8437
57.6717
56.4061
55.2662
54.2185
53.2931
52.6535
52.1758
51.8577
51.8273
52.0534
52.4481
52.9571
53.6506
54.5933
55.454
56.1757
56.9398
57.2691
56.8845
55.7173
54.1831
52.0348
49.376
46.7989
44.866
43.1331
40.0764
35.858
30.2149
23.8806
16.6797
10.8453
5.5838
2.17091
1.24298
2.53115
3.91503
6.0741
10.4212
15.4214
20.4873
25.5607
30.0021
33.6874
37.701
42.2206
45.9627
48.9523
51.4463
53.3359
54.768
55.601
56.7156
57.8617
58.2483
58.1688
57.633
57.1363
56.4724
55.8266
54.5695
53.6064
52.1753
50.6377
48.2309
45.0505
41.7415
34.6457
26.5577
11.2882
37.1048
36.9378
36.8377
36.8573
36.855
36.7394
36.4998
36.172
35.8831
35.6195
35.4345
35.3514
35.2693
35.2647
35.3016
35.337
35.5329
35.8172
36.1573
36.8291
37.6529
38.6723
40.0665
41.6116
43.2453
44.9529
46.6521
48.1277
49.3083
50.208
50.4429
50.0059
48.8661
46.7731
43.7197
39.7524
34.7772
29.2167
23.5121
17.928
13.2667
9.8442
7.52528
6.65929
7.13447
8.59184
11.2976
15.1145
19.6195
24.9897
31.3466
37.9516
44.1726
50.1342
55.833
60.6262
64.1001
66.5102
68.0784
68.7705
68.5115
67.2929
65.1866
62.2977
59.0712
55.4725
51.8215
48.389
45.0037
42.0466
39.6453
37.5976
36.1571
35.4113
35.2158
35.771
36.9939
38.4084
40.0363
42.0007
44.0335
45.8899
47.4787
48.7001
49.3338
48.7644
47.0109
44.0439
39.4601
32.7486
24.2717
15.5089
7.24574
-0.0683421
-7.1732
-13.734
-18.4472
-21.2442
-22.2433
-22.7198
-23.5051
-23.4905
-22.5727
-20.5539
-17.3446
-13.1724
-7.678
-0.248752
9.0654
18.9998
28.1373
36.3677
43.581
48.8947
52.5018
55.3729
57.6571
59.549
60.9923
62.0092
62.6859
63.1258
63.1309
62.9926
62.7054
62.355
61.9064
61.1904
60.483
59.6835
58.6147
57.5673
56.7196
55.844
55.0685
54.4366
53.8961
53.567
53.4184
53.5271
53.8314
54.2
54.8283
55.5974
56.2825
56.7608
57.1588
57.3093
56.8895
55.8666
54.1465
51.6916
48.9001
46.563
45.0464
43.2216
40.3582
35.9232
30.7061
24.5337
17.7258
11.707
6.22079
2.63408
1.61319
2.53834
4.02001
6.45051
10.4866
15.1907
20.0759
25.063
29.3987
33.3413
37.4656
41.9144
45.6647
48.53
51.088
52.9018
54.4408
55.8329
57.1618
57.8272
57.4314
57.3833
56.9847
56.7466
56.3132
55.6969
54.3285
52.9996
51.5364
49.2372
47.1952
43.3666
40.252
32.5319
23.4811
12.161
36.4383
36.4291
36.8576
37.1693
37.1991
36.9692
36.6501
36.2483
35.9546
35.7256
35.5413
35.5512
35.5027
35.5609
35.6785
35.7413
36.0093
36.3405
36.7057
37.3896
38.2153
39.1525
40.4542
41.8701
43.3055
44.847
46.3575
47.6088
48.5532
49.3757
49.5561
48.9023
47.8696
45.9549
42.8599
39.2864
35.0681
30.0141
24.8764
20.2031
16.1719
13.0929
11.4103
10.7543
11.051
12.9419
15.5972
18.7814
23.219
28.3258
33.4538
39.0209
44.8296
50.1361
54.7119
58.7055
62.0242
64.4983
65.9202
66.4846
66.3448
65.3316
63.6405
61.5325
58.8786
55.9579
53.1443
50.2455
47.4614
45.0558
42.9908
41.3349
40.2324
39.8218
39.8286
40.3232
41.4349
42.8122
44.3639
46.2778
48.343
50.1008
51.4871
52.4854
52.9387
52.4756
50.724
47.4465
41.9827
33.9966
24.1481
14.192
5.47306
-2.00512
-8.90128
-15.3103
-20.1931
-23.383
-24.8848
-25.9559
-27.1923
-27.4593
-26.7636
-24.7772
-21.078
-16.3085
-10.1225
-1.88705
7.96448
17.9347
27.1864
35.5995
42.9939
48.3775
52.1703
55.0878
57.4796
59.4328
60.9878
62.1103
62.9384
63.347
63.4114
63.3385
63.0299
62.7119
62.1774
61.6066
61.0982
60.405
59.5124
58.7657
58.1237
57.3176
56.5441
55.9102
55.3751
55.0157
54.8879
54.9457
55.1445
55.4188
55.9031
56.56
57.0971
57.4854
57.6503
57.7174
57.3423
56.2323
54.4969
52.0344
49.2938
47.2725
46.2354
44.3834
41.4617
36.9251
31.7683
25.3077
19.1556
12.9138
7.89179
4.15576
3.09436
3.54414
4.80205
7.63891
11.6763
15.6714
19.9481
24.8084
29.3055
33.4245
37.9105
42.2997
46.1745
49.0364
51.3491
53.3167
54.7227
56.0421
56.6999
57.1782
57.4464
57.824
57.5587
57.1115
56.5744
55.4829
54.2366
52.5575
51.3449
48.4175
46.5116
42.2912
38.1483
31.2904
22.322
14.0371
36.1746
36.3219
37.1912
37.6699
37.6651
37.2635
36.8327
36.368
36.0387
35.9047
35.7494
35.8241
35.8325
35.9099
36.1278
36.2039
36.5345
36.8887
37.287
37.9731
38.7058
39.5997
40.7118
41.9443
43.18
44.4907
45.7671
46.767
47.6248
48.2005
48.2598
47.7318
46.635
44.7782
42.1948
39.1152
35.2876
31.0173
26.9318
22.8299
19.5419
17.1305
15.5575
15.1958
15.8267
17.1126
19.5473
22.7702
26.2622
30.4381
35.2576
39.9829
44.5282
49.1636
53.611
57.317
60.1361
62.2092
63.5864
64.2735
64.2485
63.5859
62.3472
60.6317
58.608
56.3896
54.1389
51.9501
49.7528
47.8587
46.2863
44.9521
44.1669
43.881
44.0254
44.5781
45.5372
46.8802
48.386
50.0866
52.0331
53.6704
54.8624
55.9923
56.7245
56.5174
54.7492
51.1777
44.9079
35.4965
24.5853
13.8569
4.69151
-2.91163
-9.61273
-15.4983
-20.4073
-23.9624
-26.2934
-28.3961
-30.1026
-30.6257
-30.1743
-27.9992
-23.8633
-18.5135
-11.4273
-2.39826
7.75269
17.7944
27.0567
35.4549
42.7195
48.1488
52.1021
55.1017
57.5106
59.5696
61.23
62.3862
63.2512
63.6504
63.8349
63.7482
63.4763
63.1154
62.6358
62.2324
61.7398
61.0763
60.3861
59.8131
59.1749
58.4147
57.7525
57.2524
56.8177
56.3903
56.2294
56.2767
56.3754
56.5111
56.8359
57.4743
57.9045
58.2062
58.3837
58.3999
58.0249
56.9909
55.4247
53.1894
50.6946
48.9274
48.1873
46.591
43.5951
39.1849
33.786
27.1252
20.8734
14.3299
9.52412
6.07148
4.79694
5.16164
6.52258
9.73453
14.0082
16.7749
20.2107
24.8949
29.5865
33.8797
38.6244
42.8868
46.6548
49.6075
51.7641
53.6925
54.8798
56.1712
57.0686
58.1683
58.6884
58.521
58.0192
56.991
56.5181
55.4331
54.5055
52.4998
51.2509
48.1475
45.3216
41.4772
37.0971
31.2867
23.4459
16.7064
36.2451
36.4912
37.4977
37.9392
37.8616
37.4149
36.8952
36.5026
36.144
36.0731
36.0734
36.1227
36.2527
36.3409
36.5981
36.7526
37.0232
37.4265
37.8146
38.4416
39.1088
39.9006
40.8788
41.9439
42.9844
44.0645
45.1374
45.9162
46.6378
47.0851
47.0315
46.4895
45.3984
43.9589
41.7684
38.942
36.022
32.5983
29.2091
26.2293
23.0677
21.0379
20.0351
19.5218
19.9412
21.2696
23.1416
25.5448
28.7358
32.2249
35.8957
40.1113
44.4126
48.4739
52.1414
55.3134
57.9972
60.0543
61.482
62.1601
62.2734
61.9536
61.0427
59.8114
58.3451
56.5841
54.9044
53.2352
51.5827
50.2292
49.1421
48.1975
47.4585
47.3108
47.5738
48.0684
48.9858
50.2561
51.6477
53.1911
54.9208
56.5289
58.1246
59.7977
60.8321
60.7115
59.0301
54.9691
47.6561
37.1692
25.3655
14.2264
4.7255
-2.89025
-9.39679
-14.9196
-19.7673
-23.9202
-27.209
-30.1191
-32.243
-33.0358
-32.6456
-29.9947
-25.3932
-19.3374
-11.296
-1.56353
8.74684
18.5527
27.5113
35.7924
42.8373
48.224
52.2067
55.2337
57.7901
59.9309
61.4639
62.7028
63.606
64.0618
64.3013
64.2391
64.0151
63.6521
63.2879
62.8402
62.2917
61.677
61.1459
60.6896
60.0862
59.4479
58.9524
58.5072
58.0172
57.6257
57.4584
57.4365
57.4416
57.5523
57.8768
58.3486
58.6949
58.962
59.134
59.0641
58.8162
58.1401
56.9202
55.1015
53.1463
51.8968
51.4962
50.047
46.3867
42.1266
36.0575
29.5702
22.8152
16.5628
11.6671
8.16075
6.89761
6.93026
8.78875
12.4949
18.0181
17.713
20.3644
25.1492
30.0167
34.4874
39.2131
43.5576
47.1107
50.134
52.2155
54.1924
55.6357
57.1403
58.2631
58.8897
58.9207
58.4089
58.0977
57.2233
56.9163
55.7475
54.8053
52.8755
51.0629
48.0363
44.8782
41.8073
37.4064
32.2066
25.7447
19.5726
37.0631
37.0526
37.5705
37.6519
37.3734
37.0419
36.6701
36.5134
36.2994
36.3141
36.4722
36.4784
36.6666
36.7743
37.021
37.2564
37.4258
37.8663
38.2573
38.7805
39.426
40.1183
40.9726
41.8596
42.7611
43.6653
44.5151
45.1884
45.7725
46.0897
45.9446
45.493
44.6044
43.2968
41.5591
39.312
36.8516
34.2457
31.4047
28.7425
26.5124
24.7918
23.7071
23.4597
23.7147
24.3374
25.9007
27.9287
30.1426
33.1013
36.5855
40.1769
43.657
47.2024
50.6556
53.5443
55.9476
57.7903
59.1531
60.0534
60.3863
60.352
59.8836
58.9885
57.9116
56.7208
55.4882
54.3166
53.1444
52.1148
51.4239
50.6848
50.2058
50.204
50.3882
50.936
51.8723
52.9283
54.2541
55.804
57.3785
59.2939
61.41
63.2864
64.5689
64.604
62.9334
58.6223
50.4396
38.9326
26.4053
15.0729
5.77631
-1.6878
-7.82905
-13.2657
-18.3056
-22.983
-27.1415
-30.6489
-33.0236
-33.9234
-33.2253
-30.1589
-25.13
-18.3762
-9.50113
0.629145
10.6601
19.9746
28.6469
36.5219
43.1836
48.4501
52.4233
55.5372
58.1347
60.1691
61.7294
63.0916
63.9803
64.4923
64.7912
64.7935
64.5682
64.2403
63.8726
63.3732
62.8329
62.3736
61.9509
61.5196
60.9457
60.4009
59.9522
59.4924
59.0591
58.7362
58.5228
58.4275
58.4985
58.6498
58.9515
59.2592
59.5115
59.6687
59.7652
59.7777
59.7575
59.4422
58.7857
57.6673
56.359
55.7525
55.9151
54.3064
50.1538
45.4818
38.6673
31.779
24.4366
19.1538
14.2695
10.7655
9.8716
9.55878
11.6549
15.6196
22.6417
17.3269
20.5608
25.871
30.8836
35.6427
40.3273
44.9924
48.3469
51.0925
53.1808
55.0749
56.6622
57.8819
58.844
59.2493
59.6423
59.3823
59.1556
58.217
57.5231
56.166
55.032
53.5193
51.2362
48.6081
45.4376
42.486
38.4051
33.71
27.9733
22.0406
39.4975
38.9583
37.8836
37.0527
36.4552
36.2786
36.2345
36.394
36.4566
36.5768
36.8504
36.8833
37.0587
37.2152
37.4019
37.6575
37.7876
38.1933
38.591
39.0348
39.6595
40.2314
41.0142
41.8033
42.5137
43.3331
44.0364
44.596
45.0916
45.2803
45.1574
44.8445
44.0527
42.9514
41.6433
39.788
37.7254
35.5655
33.2869
31.2489
29.3377
27.9418
27.0999
26.4255
26.4475
27.0529
27.9183
29.3713
31.5169
34.0193
36.6486
39.6472
42.8714
46.0013
48.8932
51.4498
53.7216
55.6211
57.0958
58.1067
58.64
58.8213
58.6424
58.2369
57.6335
56.8122
56.034
55.2701
54.3951
53.695
53.1578
52.7769
52.4725
52.4604
52.8328
53.2807
54.038
55.1847
56.3825
57.8712
59.6336
61.6229
63.9114
66.0392
67.4661
67.7843
66.1462
61.5114
52.8508
40.7388
27.9321
16.5797
7.4197
0.296873
-5.4812
-10.8307
-16.098
-21.1622
-25.7942
-29.4807
-31.872
-32.7204
-31.5616
-28.0118
-22.6458
-15.5061
-6.22473
3.86693
13.3643
22.142
30.2667
37.596
43.8478
48.8419
52.6944
55.7989
58.4117
60.4377
62.0716
63.4649
64.4028
65.0206
65.3503
65.3669
65.1936
64.9044
64.4819
63.9902
63.5126
63.0799
62.6428
62.2005
61.6993
61.2158
60.8091
60.4187
60.0601
59.68
59.4527
59.4797
59.6621
59.8361
59.9491
60.1101
60.243
60.349
60.4261
60.5456
60.7096
60.7784
60.7999
60.4262
59.9018
59.8312
60.4148
58.9604
54.8558
49.2972
42.617
34.2711
26.8837
21.867
17.246
14.0808
13.0562
12.7728
14.5766
18.831
25.0153
15.1102
21.3734
26.9875
32.0539
37.0519
41.564
46.125
49.4432
51.9758
54.1851
55.9733
57.7103
58.8386
60.109
60.6988
61.1981
60.7257
60.1659
59.0117
58.0266
56.8255
55.4848
54.1908
51.855
49.6825
46.1427
43.1793
39.9231
35.2129
29.6435
24.4064
40.4879
39.7979
38.1101
36.7734
35.9223
35.7864
35.9777
36.348
36.6345
36.8656
37.2171
37.3063
37.4339
37.6071
37.7355
37.9805
38.1168
38.45
38.8549
39.2367
39.8093
40.3296
41.0173
41.7195
42.3511
43.0776
43.6397
44.1601
44.5623
44.6857
44.6318
44.3152
43.7024
42.8732
41.735
40.2246
38.5445
36.81
35.0445
33.3499
31.8117
30.4972
29.514
28.939
28.7965
28.9138
29.6367
30.9515
32.4015
34.2568
36.5626
39.0929
41.6706
44.2896
46.9692
49.3913
51.523
53.4365
54.9709
56.159
57.0006
57.4532
57.6479
57.671
57.4245
56.9463
56.4888
56.0581
55.4962
54.9789
54.6199
54.3788
54.3289
54.4455
54.7186
55.1589
55.9057
56.8502
58.1134
59.629
61.3543
63.4539
65.6913
67.9219
69.5963
69.8086
67.9424
63.0977
54.3384
42.3189
29.7258
18.7563
9.84716
2.93803
-2.5684
-7.78006
-13.1044
-18.3207
-22.9979
-26.5219
-28.7248
-29.3331
-27.4534
-23.6239
-18.1478
-10.9013
-1.82036
7.73149
16.648
24.799
32.3353
39.1254
44.8483
49.4443
53.0873
56.1037
58.6649
60.6641
62.41
63.8747
64.8681
65.5635
65.9343
65.9801
65.8294
65.5571
65.1694
64.6915
64.2373
63.7625
63.2985
62.8869
62.4949
62.0801
61.6657
61.2948
60.9558
60.6613
60.463
60.4821
60.593
60.772
60.8516
60.9623
61.0538
61.1089
61.1709
61.2924
61.5478
62.0234
62.7458
63.0047
63.2275
63.9517
64.6909
63.8081
59.828
54.0943
47.038
38.0032
31.2062
25.7916
21.3266
18.4259
16.9299
16.3299
16.711
21.7131
18.6506
12.865
23.0594
27.6983
33.0448
38.2589
43.1521
47.295
50.6675
52.9567
55.4431
57.2589
59.1913
60.3611
61.6331
62.0178
62.2191
61.6368
61.1226
60.0664
58.8064
57.6443
56.1953
54.9207
52.4159
50.532
47.3212
44.3863
41.2394
36.5474
31.4509
26.6654
40.8953
40.3639
38.4793
36.8694
35.9034
35.6809
35.9356
36.3817
36.7751
37.1438
37.4807
37.6477
37.7969
37.9114
38.0596
38.2429
38.3888
38.6788
38.9914
39.4131
39.9297
40.3778
41.0364
41.6465
42.2123
42.86
43.3026
43.7717
44.1489
44.2487
44.2192
43.9678
43.5269
42.7917
41.8689
40.7737
39.3484
38.0053
36.6327
35.0913
33.7129
32.5829
31.7343
31.0085
30.6957
30.8995
31.2242
31.8569
32.9186
34.3523
36.0676
37.9709
40.1782
42.5685
44.9128
47.1399
49.2152
51.1728
52.9089
54.3496
55.4603
56.2933
56.8481
57.1548
57.253
57.1248
56.9936
56.7547
56.4228
56.1916
55.9828
55.8523
55.8993
56.0975
56.2644
56.6394
57.3634
58.2959
59.4766
60.9019
62.4438
64.4468
66.8894
69.0417
70.2207
69.892
67.6621
62.8993
54.8711
43.5564
31.3481
21.0269
12.9622
6.5064
1.21145
-3.86927
-9.10991
-14.274
-18.6775
-21.8024
-23.6091
-23.5554
-21.4889
-17.6391
-12.2557
-5.23851
3.20482
11.9157
20.1253
27.7023
34.6776
40.9042
46.1855
50.3614
53.6946
56.5489
58.9553
60.9548
62.7402
64.1559
65.2206
66.0048
66.3757
66.482
66.4535
66.2659
65.8951
65.4633
65.0179
64.5384
64.0703
63.6534
63.2868
62.9148
62.5001
62.1222
61.8666
61.6034
61.3661
61.2987
61.3857
61.5111
61.611
61.7299
61.874
61.8868
61.9294
62.0142
62.2449
63.0538
64.2976
65.32
66.1528
67.4475
68.3657
67.7684
64.4013
59.1148
51.882
43.5615
36.6322
31.3498
27.0509
23.6098
21.925
21.1116
18.8319
25.9289
10.7956
11.295
25.4655
27.8475
35.4984
39.008
45.7332
48.493
52.2017
54.1679
56.9697
58.5879
60.477
61.5806
62.7794
63.2001
63.3902
62.9798
62.4677
61.387
59.9615
58.5579
56.7806
55.5797
53.0645
51.3808
48.776
45.6122
42.2248
38.053
33.3352
28.7342
41.1966
40.7972
38.8127
37.047
36.029
35.7001
35.9612
36.4424
36.8979
37.3924
37.6957
37.9225
38.1102
38.1504
38.322
38.4406
38.5896
38.8945
39.1147
39.5501
40.0414
40.4106
41.0083
41.5542
42.0838
42.6716
43.0347
43.485
43.8268
43.9282
43.9736
43.7196
43.438
42.9244
42.1068
41.2955
40.2479
39.1181
37.9282
36.6897
35.5491
34.5306
33.7231
33.0253
32.5797
32.3523
32.2847
32.611
33.1527
33.9725
35.2516
36.7716
38.5478
40.4756
42.5264
44.7049
46.8594
48.9727
50.8994
52.61
54.0723
55.2033
56.1501
56.8231
57.1355
57.3455
57.5295
57.4174
57.2782
57.3149
57.2685
57.0964
57.2042
57.4466
57.5441
57.9216
58.5972
59.4111
60.4382
61.6035
63.0284
64.9059
67.0418
68.6656
69.1437
68.0546
65.32
60.7377
53.5591
43.5899
32.9102
23.677
16.3474
10.5209
5.55339
0.657654
-4.34216
-9.19818
-13.112
-15.8437
-17.246
-16.7818
-14.5171
-10.8153
-5.7024
0.849751
8.46015
16.1927
23.6318
30.5856
37.0195
42.7773
47.6235
51.459
54.582
57.2346
59.4455
61.369
63.0331
64.4071
65.5124
66.2556
66.6904
66.937
66.9568
66.8105
66.5655
66.1872
65.718
65.2727
64.7867
64.3456
64.0193
63.6354
63.1901
62.8927
62.6632
62.3375
62.0755
62.0353
62.1571
62.2505
62.2849
62.4116
62.5518
62.6674
62.6346
62.5692
62.683
63.7337
65.5971
67.0973
68.4323
69.8696
70.7937
70.2534
67.5709
62.9716
57.0936
49.1402
42.4086
37.6612
33.4368
29.2318
27.6199
27.8652
20.804
27.4555
15.456
13.8399
28.4866
27.5452
39.1828
38.4717
48.9533
49.1826
53.6919
55.3927
58.409
59.9714
61.7827
62.9987
64.2065
64.7484
64.7933
64.4881
63.8504
62.5856
61.1485
59.5231
57.3284
56.1556
53.9075
52.0518
49.5466
46.4895
43.3332
39.6394
35.3448
31.1426
41.3155
40.9484
39.0111
37.181
36.1809
35.8342
36.0628
36.593
37.0356
37.6099
37.9162
38.0881
38.3674
38.3592
38.4998
38.6495
38.737
39.0774
39.2443
39.5962
40.1476
40.4326
40.9659
41.5214
41.9429
42.5296
42.8599
43.1938
43.6283
43.7517
43.7494
43.694
43.4922
43.047
42.5154
41.9235
41.0415
40.1397
39.2675
38.2805
37.2335
36.3616
35.5959
34.7203
34.0599
33.6364
33.2578
33.1091
33.2385
33.6285
34.3061
35.2108
36.4812
38.1458
40.0506
42.1783
44.3677
46.6716
48.9178
50.9412
52.7915
54.3408
55.5065
56.5162
57.2193
57.6371
58.0196
58.1369
58.2169
58.385
58.3154
58.3273
58.4518
58.4959
58.6941
59.0069
59.5393
60.1948
61.0237
61.9987
63.2874
64.7088
65.8116
66.7397
66.7119
64.8742
61.2736
56.4604
50.3011
42.8674
34.5979
26.8959
20.3878
15.0658
10.3515
5.70123
1.02798
-3.43269
-6.86468
-9.23157
-10.2809
-9.59137
-7.40563
-3.91993
0.866034
6.85191
13.597
20.3863
27.0218
33.3297
39.2248
44.4862
48.9632
52.6152
55.6045
58.0716
60.1318
61.8859
63.4016
64.7187
65.7351
66.4421
66.9431
67.2208
67.2958
67.2266
67.0142
66.6785
66.2777
65.8164
65.3472
64.9515
64.6356
64.2539
63.8365
63.4997
63.241
62.9974
62.7966
62.7532
62.8043
62.9484
63.0253
63.1474
63.3596
63.4643
63.2097
62.7637
62.7973
64.1325
66.5989
68.315
69.8534
71.449
72.1647
71.6146
69.1275
65.4323
60.7441
53.6119
47.3564
42.7272
38.5449
34.7149
32.9524
33.7615
26.6878
30.8435
21.2559
20.1328
31.822
28.7581
42.9769
37.2282
52.0866
49.499
54.8259
56.8518
59.7124
61.5637
63.2158
64.618
65.6888
66.2236
66.0272
65.8938
65.5055
63.9212
62.3105
60.6863
58.2129
56.6486
54.5321
52.5214
50.0799
47.3613
44.3908
41.1555
37.5502
33.4982
41.3036
40.9879
39.1235
37.3239
36.3803
36.0731
36.2812
36.8213
37.2397
37.8094
38.1376
38.2533
38.5532
38.5528
38.6439
38.8156
38.8603
39.1972
39.3912
39.6439
40.2066
40.4915
40.9035
41.4631
41.8485
42.3612
42.7222
43.0277
43.4419
43.6272
43.6924
43.6846
43.5763
43.3679
42.9978
42.4793
41.918
41.2881
40.4802
39.7138
38.9083
37.9927
37.1875
36.3901
35.5846
34.8091
34.1037
33.6022
33.1963
32.9912
33.1626
33.627
34.4949
35.8216
37.4674
39.5314
41.9765
44.4382
46.9668
49.4286
51.5388
53.4885
55.1902
56.3518
57.2881
58.2132
58.6531
58.7922
59.1982
59.3931
59.253
59.3435
59.5036
59.522
59.6733
59.903
60.2759
60.7892
61.3694
62.1971
62.9583
63.5333
64.0677
64.2754
63.4827
60.6574
55.978
51.0709
46.1875
41.6103
36.3049
30.6121
25.1188
20.2587
15.7577
11.3063
6.87795
2.74376
-0.457866
-2.62967
-3.46893
-2.74686
-0.739739
2.47562
6.88191
12.3086
18.2615
24.2586
30.1569
35.8449
41.2144
45.9632
50.1306
53.6223
56.5211
58.8934
60.8228
62.4505
63.8781
65.0911
66.0214
66.7123
67.1904
67.457
67.5656
67.5299
67.3642
67.0704
66.6765
66.2837
65.8979
65.5028
65.155
64.7821
64.3893
64.035
63.7558
63.5028
63.3549
63.3694
63.4498
63.5664
63.7236
63.8873
64.2825
64.4185
63.8179
62.8459
62.6799
64.4618
67.1978
69.0899
70.569
72.0919
72.5988
71.9816
69.7708
66.6098
62.8873
56.8088
51.3292
47.5458
43.4928
39.392
37.2648
37.4979
32.498
34.2194
27.0197
27.8333
35.8415
30.904
44.7434
37.9745
54.4464
50.1227
56.0386
58.5604
61.0955
63.1189
64.5269
66.2699
67.0145
67.5357
67.3849
67.593
67.4198
65.3693
63.7259
61.9964
59.3358
57.4197
55.1598
53.0488
50.8211
48.1637
45.2536
42.3811
39.0217
35.0316
41.2408
40.898
39.1154
37.4749
36.6125
36.4186
36.6391
37.1326
37.5502
38.0128
38.3216
38.4216
38.6442
38.7059
38.7648
38.9156
39.0041
39.2756
39.4887
39.7196
40.2017
40.5225
40.8819
41.3871
41.7672
42.2235
42.6076
42.8911
43.2964
43.57
43.644
43.7555
43.8109
43.6588
43.4613
43.179
42.7532
42.2782
41.7378
41.108
40.3268
39.5988
38.8599
37.8792
36.8926
35.953
34.949
33.9516
33.0523
32.4345
32.1607
32.1979
32.6869
33.7014
35.2899
37.37
39.8416
42.5099
45.2893
48.0523
50.5656
52.8562
54.9369
56.4732
57.5688
58.6903
59.375
59.5684
60.0017
60.2953
60.2407
60.2803
60.3695
60.4427
60.4993
60.616
60.8124
61.168
61.5625
61.8658
62.1405
62.2522
62.1042
61.8691
60.4573
56.7453
51.3671
46.1109
42.5221
40.4153
38.2641
34.9037
30.6499
26.1057
21.6815
17.2746
12.9408
8.96856
5.78841
3.61628
2.7597
3.33388
5.11877
8.04014
12.0352
16.9338
22.2252
27.6138
32.9415
38.1023
42.9885
47.2519
51.1261
54.4785
57.3077
59.6039
61.4787
63.0706
64.4245
65.5499
66.4092
67.0433
67.482
67.7638
67.8841
67.8442
67.6676
67.3928
67.0742
66.7262
66.3258
65.9497
65.6039
65.2083
64.8417
64.5066
64.2198
63.9662
63.83
63.8832
63.9909
64.1764
64.3586
64.6053
65.1335
65.3707
64.4328
63.0744
62.8495
64.7721
67.4965
69.2536
70.69
72.0069
72.3788
71.6872
69.9039
66.9586
63.5559
58.9683
54.4328
51.8018
48.5458
43.8808
40.3133
39.4638
36.1285
36.4492
33.6851
34.2962
35.8104
32.3257
46.1926
41.6208
55.9727
51.2915
57.9886
60.5765
62.3663
64.7308
65.784
67.8909
68.3041
68.7512
68.8416
69.3812
68.8976
66.8092
65.4278
63.2975
60.6593
58.6521
56.0948
53.6892
51.58
48.8847
45.8873
42.9389
39.8109
36.2746
40.8649
40.5425
38.9993
37.679
37.0093
36.8919
37.1237
37.5156
37.8757
38.223
38.4545
38.5835
38.7305
38.8052
38.8766
38.9773
39.1149
39.335
39.5488
39.8169
40.1888
40.5365
40.8749
41.2878
41.7001
42.0921
42.4791
42.8318
43.1961
43.5247
43.7196
43.8837
44.0276
44.0142
43.9499
43.8232
43.5652
43.2608
42.8548
42.34
41.7184
41.0105
40.157
39.1275
38.0385
36.8471
35.5656
34.3254
33.1667
32.1585
31.5029
31.2326
31.44
32.3109
33.7937
35.8598
38.3674
41.0789
44.0728
47.1095
49.8358
52.5698
54.9325
56.4949
58.0384
59.3398
59.8611
60.394
60.9152
61.068
61.104
61.1468
61.2945
61.1383
60.9755
61.2108
61.2154
61.202
61.4221
61.4538
61.3297
61.078
60.7296
60.1539
58.418
54.411
48.8897
43.8105
40.8787
40.5718
41.2856
40.3847
37.3171
32.8923
28.209
23.5461
19.061
15.0148
11.6956
9.35557
8.30242
8.61174
10.1113
12.6992
16.2844
20.6904
25.4842
30.4263
35.3401
40.0972
44.6396
48.399
52.079
55.2931
58.0135
60.2535
62.1074
63.6533
64.9517
66.0157
66.8228
67.4253
67.8274
68.0661
68.1434
68.0981
67.9406
67.6801
67.3775
67.0434
66.6902
66.348
66.0084
65.625
65.2254
64.8433
64.5287
64.3341
64.28
64.3547
64.4116
64.5959
64.8647
65.2823
65.9968
66.1824
65.0064
63.419
63.3945
65.1798
67.5068
68.9635
70.5232
71.8406
72.0315
71.3558
69.915
67.3306
63.7502
59.957
56.6977
53.5769
51.2436
47.0401
43.1734
40.9856
38.3674
38.6078
36.7969
38.212
36.3434
35.1272
47.4403
45.6842
56.9115
53.3128
59.6689
62.2222
63.9371
66.0523
66.9588
69.4186
69.5014
69.871
70.5609
71.1381
69.9336
68.4569
67.3524
64.8686
62.0775
59.8887
57.3414
54.5077
52.1486
49.5362
46.5437
43.4622
40.6386
37.4077
40.1945
39.9742
38.8643
37.9842
37.5485
37.4743
37.6736
37.9144
38.1806
38.4194
38.5542
38.7021
38.7818
38.8507
38.9551
39.0239
39.1997
39.3913
39.591
39.8925
40.1846
40.5208
40.8696
41.2271
41.6356
42.0065
42.3976
42.7903
43.1393
43.5081
43.7851
44.0001
44.2401
44.3294
44.3666
44.3797
44.2262
44.018
43.7233
43.2812
42.7121
42.0175
41.1863
40.139
38.912
37.5572
36.0932
34.6363
33.2917
32.1543
31.3207
30.8703
30.9676
31.7099
33.0466
35.0334
37.5317
40.3182
43.4267
46.6083
49.545
52.4551
54.9676
56.7379
58.4302
59.8682
60.4833
60.9998
61.6031
61.7471
61.7502
61.7431
61.7636
61.8012
61.468
61.28
61.2953
61.145
61.1123
61.0928
60.9067
60.552
60.0983
59.4305
57.6895
53.9996
49.0925
44.5578
42.106
42.9666
45.6319
46.8476
44.9007
40.6332
35.4517
30.2067
25.2379
20.8094
17.1434
14.4925
13.1257
13.1047
14.2858
16.5371
19.7578
23.7335
28.1472
32.7621
37.3582
41.7859
45.9403
49.6459
53.0336
56.0672
58.6629
60.8391
62.6431
64.1506
65.4151
66.4291
67.2051
67.7543
68.0964
68.3069
68.377
68.3181
68.1353
67.9101
67.6753
67.3481
67.0037
66.69
66.3362
65.9637
65.6141
65.2216
64.8252
64.5599
64.5327
64.6419
64.7463
64.9202
65.2031
65.7246
66.6068
66.7766
65.5413
64.1415
64.215
65.6859
67.2741
68.4316
70.2151
71.7252
71.782
71.0646
69.9081
67.8845
64.739
61.5401
58.6025
54.5897
51.8438
49.0114
46.1402
43.0211
40.6262
40.7808
38.8729
40.1917
37.8196
41.4665
48.8703
49.1616
57.5486
55.9499
60.9706
63.288
65.3175
67.2578
68.4485
70.5396
70.6305
71.0682
72.3025
72.3909
70.8394
70.1066
68.8674
66.4652
63.5063
60.9489
58.5515
55.4532
52.6597
50.07
47.2297
44.0734
41.2951
38.1853
39.4391
39.3576
38.831
38.3959
38.1498
38.0637
38.1462
38.2576
38.4149
38.5555
38.6345
38.7566
38.8095
38.8793
39.0009
39.0826
39.2589
39.4392
39.6417
39.9382
40.1944
40.512
40.8636
41.1897
41.5781
41.954
42.3446
42.7543
43.1215
43.5009
43.8257
44.106
44.3776
44.5327
44.6546
44.7312
44.6498
44.5044
44.2763
43.8639
43.3029
42.6431
41.7943
40.6997
39.4605
38.0943
36.5821
35.0524
33.6321
32.4101
31.492
30.9707
30.9944
31.6522
32.9541
34.8979
37.3378
40.1495
43.3039
46.4822
49.5037
52.5407
55.097
56.9481
58.7814
60.2172
60.8223
61.4577
62.0263