/*--------------------------------*- C++ -*----------------------------------*\
| =========                 |                                                 |
| \\      /  F ield         | OpenFOAM: The Open Source CFD Toolbox           |
|  \\    /   O peration     | Version:  2.4.0                                 |
|   \\  /    A nd           | Web:      www.OpenFOAM.org                      |
|    \\/     M anipulation  |                                                 |
\*---------------------------------------------------------------------------*/
FoamFile
{
    version     2.0;
    format      ascii;
    class       surfaceScalarField;
    location    "1.59";
    object      phi;
}
// * * * * * * * * * * * * * * * * * * * * * * * * * * * * * * * * * * * * * //

dimensions      [0 3 -1 0 0 0 0];

internalField   nonuniform List<scalar> 
17320
(
1.76403e-05
7.35969e-06
1.16194e-05
6.02093e-06
8.67961e-06
2.93977e-06
7.35645e-06
1.32316e-06
6.71886e-06
6.37589e-07
6.34398e-06
3.74883e-07
6.07664e-06
2.6734e-07
5.87276e-06
2.03875e-07
5.70961e-06
1.6315e-07
5.58852e-06
1.21088e-07
5.47706e-06
1.11465e-07
5.40594e-06
7.11178e-08
5.31467e-06
9.12657e-08
5.24677e-06
6.79079e-08
5.15964e-06
8.71294e-08
5.13722e-06
2.2415e-08
5.02729e-06
1.0993e-07
5.10126e-06
-7.39671e-08
4.90792e-06
1.9334e-07
-6.03233e-07
5.51115e-06
2.54671e-05
6.89254e-06
2.32487e-05
8.23939e-06
2.09883e-05
5.20015e-06
1.93196e-05
2.99187e-06
1.80765e-05
1.88074e-06
1.71131e-05
1.3382e-06
1.63661e-05
1.01433e-06
1.5777e-05
7.92976e-07
1.53121e-05
6.2806e-07
1.49415e-05
4.9173e-07
1.46351e-05
4.17813e-07
1.43981e-05
3.08159e-07
1.4159e-05
3.30359e-07
1.39739e-05
2.53032e-07
1.3764e-05
2.97009e-07
1.36518e-05
1.34608e-07
1.34181e-05
3.43631e-07
1.34581e-05
-1.13944e-07
1.33828e-05
2.68613e-07
-8.41763e-07
1.36213e-05
2.66299e-05
5.26268e-06
2.71534e-05
7.71582e-06
2.67814e-05
5.57223e-06
2.62513e-05
3.52192e-06
2.56059e-05
2.52609e-06
2.48733e-05
2.07084e-06
2.41622e-05
1.72545e-06
2.35049e-05
1.45024e-06
2.29396e-05
1.19338e-06
2.2452e-05
9.79336e-07
2.20368e-05
8.3299e-07
2.16997e-05
6.45304e-07
2.13682e-05
6.61856e-07
2.11068e-05
5.14397e-07
2.08321e-05
5.71738e-07
2.06355e-05
3.31149e-07
2.03707e-05
6.08422e-07
2.02997e-05
-4.28674e-08
2.03479e-05
2.20343e-07
-1.36949e-06
2.08757e-05
2.63385e-05
3.92413e-06
2.75374e-05
6.51701e-06
2.80854e-05
5.02413e-06
2.84546e-05
3.15274e-06
2.86448e-05
2.33592e-06
2.86251e-05
2.09057e-06
2.84778e-05
1.8727e-06
2.82347e-05
1.69339e-06
2.79734e-05
1.4547e-06
2.77016e-05
1.25107e-06
2.74285e-05
1.10613e-06
2.71893e-05
8.84505e-07
2.69279e-05
9.23225e-07
2.6693e-05
7.49328e-07
2.64749e-05
7.8982e-07
2.62416e-05
5.64453e-07
2.60486e-05
8.01468e-07
2.58247e-05
1.81012e-07
2.57676e-05
2.77443e-07
-1.00249e-06
2.54006e-05
2.60537e-05
2.87046e-06
2.72482e-05
5.32252e-06
2.80386e-05
4.23369e-06
2.85075e-05
2.68389e-06
2.89733e-05
1.87008e-06
2.93164e-05
1.74743e-06
2.95886e-05
1.60052e-06
2.97336e-05
1.54839e-06
2.98449e-05
1.3434e-06
2.99223e-05
1.1737e-06
2.99602e-05
1.06819e-06
2.99664e-05
8.78308e-07
2.99778e-05
9.11874e-07
2.99166e-05
8.10467e-07
2.9936e-05
7.70411e-07
2.98001e-05
7.00364e-07
2.97935e-05
8.08129e-07
2.95572e-05
4.17275e-07
2.94662e-05
3.6844e-07
-3.5686e-07
2.88206e-05
2.58383e-05
2.03214e-06
2.69758e-05
4.185e-06
2.78065e-05
3.40304e-06
2.82361e-05
2.25426e-06
2.87266e-05
1.37957e-06
2.90721e-05
1.40195e-06
2.94597e-05
1.21295e-06
2.96998e-05
1.30827e-06
2.99935e-05
1.04968e-06
3.0166e-05
1.00127e-06
3.0431e-05
8.03153e-07
3.05083e-05
8.0104e-07
3.07596e-05
6.60508e-07
3.07905e-05
7.79631e-07
3.10576e-05
5.03246e-07
3.10071e-05
7.5084e-07
3.12559e-05
5.59361e-07
3.10235e-05
6.49704e-07
3.10797e-05
3.12209e-07
4.55374e-07
3.02675e-05
2.56904e-05
1.34175e-06
2.678e-05
3.09542e-06
2.76091e-05
2.57393e-06
2.80267e-05
1.83666e-06
2.84789e-05
9.27365e-07
2.88152e-05
1.06565e-06
2.92274e-05
8.00792e-07
2.94376e-05
1.09799e-06
2.97859e-05
7.01392e-07
2.99429e-05
8.4433e-07
3.02818e-05
4.64245e-07
3.03493e-05
7.33549e-07
3.07046e-05
3.05181e-07
3.07246e-05
7.59629e-07
3.10187e-05
2.09163e-07
3.10487e-05
7.20829e-07
3.14511e-05
1.56983e-07
3.11444e-05
9.56317e-07
3.10336e-05
4.23038e-07
1.37564e-06
3.01133e-05
2.55605e-05
7.81224e-07
2.6592e-05
2.06396e-06
2.74372e-05
1.72874e-06
2.7983e-05
1.29081e-06
2.8338e-05
5.72429e-07
2.86829e-05
7.20682e-07
2.90053e-05
4.78418e-07
2.92959e-05
8.07387e-07
2.96213e-05
3.75948e-07
2.9838e-05
6.27624e-07
3.00198e-05
2.8244e-07
3.02803e-05
4.73056e-07
3.04767e-05
1.08775e-07
3.06271e-05
6.09281e-07
3.0764e-05
7.22803e-08
3.10345e-05
4.50301e-07
3.11007e-05
9.08196e-08
3.14683e-05
5.88648e-07
3.18401e-05
5.12363e-08
2.11773e-07
3.3004e-05
2.54633e-05
3.17883e-07
2.65184e-05
1.00894e-06
2.73446e-05
9.02523e-07
2.79159e-05
7.19448e-07
2.82496e-05
2.38761e-07
2.85327e-05
4.37633e-07
2.88381e-05
1.72929e-07
2.92414e-05
4.04086e-07
2.9489e-05
1.28426e-07
2.97363e-05
3.80308e-07
2.99622e-05
5.65428e-08
3.01996e-05
2.35616e-07
3.02268e-05
8.16474e-08
3.05531e-05
2.82909e-07
3.07105e-05
-8.5121e-08
3.09358e-05
2.25052e-07
3.09908e-05
3.58263e-08
3.14072e-05
1.72216e-07
3.16901e-05
-2.31706e-07
-3.77812e-07
3.22797e-05
2.54214e-05
-1.03544e-07
2.64375e-05
-7.13054e-09
2.72851e-05
5.49396e-08
2.7897e-05
1.07484e-07
2.81625e-05
-2.66537e-08
2.85042e-05
9.58777e-08
2.88714e-05
-1.94271e-07
2.91621e-05
1.13394e-07
2.93264e-05
-3.58894e-08
2.97189e-05
-1.21633e-08
3.0013e-05
-2.37566e-07
3.01167e-05
1.3188e-07
3.01472e-05
5.11807e-08
3.04391e-05
-9.01125e-09
3.06544e-05
-3.00445e-07
3.09022e-05
-2.26987e-08
3.10763e-05
-1.38305e-07
3.13552e-05
-1.06669e-07
3.15452e-05
-4.21652e-07
-7.20337e-07
3.18877e-05
2.54002e-05
-5.03728e-07
2.64221e-05
-1.02902e-06
2.72818e-05
-8.04837e-07
2.78786e-05
-4.89239e-07
2.81891e-05
-3.37229e-07
2.85705e-05
-2.85498e-07
2.88182e-05
-4.41963e-07
2.91774e-05
-2.45827e-07
2.94188e-05
-2.7725e-07
2.97334e-05
-3.26792e-07
2.98623e-05
-3.66457e-07
3.00894e-05
-9.52551e-08
3.02095e-05
-6.89143e-08
3.04621e-05
-2.61553e-07
3.05947e-05
-4.33092e-07
3.08984e-05
-3.26418e-07
3.10809e-05
-3.20716e-07
3.13411e-05
-3.66868e-07
3.15444e-05
-6.25008e-07
-1.031e-06
3.18551e-05
2.54278e-05
-9.31513e-07
2.64564e-05
-2.05763e-06
2.7305e-05
-1.65346e-06
2.79513e-05
-1.13551e-06
2.8317e-05
-7.02932e-07
2.8588e-05
-5.56557e-07
2.88238e-05
-6.77733e-07
2.92548e-05
-6.76771e-07
2.95104e-05
-5.32922e-07
2.97297e-05
-5.46096e-07
2.98575e-05
-4.94183e-07
3.00872e-05
-3.25034e-07
3.03351e-05
-3.16777e-07
3.06154e-05
-5.41873e-07
3.07028e-05
-5.20469e-07
3.08392e-05
-4.62804e-07
3.1063e-05
-5.44558e-07
3.14475e-05
-7.51315e-07
3.17026e-05
-8.80109e-07
-1.20366e-06
3.18752e-05
2.55379e-05
-1.46939e-06
2.65959e-05
-3.11564e-06
2.7405e-05
-2.46252e-06
2.80431e-05
-1.77361e-06
2.83362e-05
-9.96033e-07
2.86781e-05
-8.98454e-07
2.90062e-05
-1.00584e-06
2.93192e-05
-9.89777e-07
2.95649e-05
-7.78633e-07
2.98625e-05
-8.43753e-07
2.99907e-05
-6.2237e-07
3.02629e-05
-5.97228e-07
3.04803e-05
-5.34184e-07
3.06404e-05
-7.01944e-07
3.07228e-05
-6.02836e-07
3.1008e-05
-7.48033e-07
3.12407e-05
-7.77222e-07
3.15388e-05
-1.04945e-06
3.17547e-05
-1.096e-06
-1.36717e-06
3.19182e-05
2.56856e-05
-2.155e-06
2.67274e-05
-4.1574e-06
2.7578e-05
-3.31319e-06
2.80793e-05
-2.27488e-06
2.84529e-05
-1.36967e-06
2.88623e-05
-1.30786e-06
2.91926e-05
-1.33609e-06
2.94863e-05
-1.28349e-06
2.97685e-05
-1.06082e-06
3.00091e-05
-1.08433e-06
3.01655e-05
-7.78776e-07
3.04507e-05
-8.8244e-07
3.06069e-05
-6.90409e-07
3.07596e-05
-8.54576e-07
3.09147e-05
-7.5799e-07
3.11878e-05
-1.02109e-06
3.13443e-05
-9.33762e-07
3.16341e-05
-1.33922e-06
3.18543e-05
-1.31627e-06
-1.5578e-06
3.2045e-05
2.58412e-05
-2.99621e-06
2.69384e-05
-5.25461e-06
2.7796e-05
-4.17077e-06
2.82343e-05
-2.71321e-06
2.87131e-05
-1.84847e-06
2.91147e-05
-1.70946e-06
2.94444e-05
-1.66581e-06
2.97196e-05
-1.55866e-06
2.99851e-05
-1.32637e-06
3.0166e-05
-1.26521e-06
3.03657e-05
-9.78444e-07
3.05535e-05
-1.07026e-06
3.07004e-05
-8.37316e-07
3.08309e-05
-9.8506e-07
3.09549e-05
-8.81941e-07
3.10842e-05
-1.15046e-06
3.11618e-05
-1.0113e-06
3.13473e-05
-1.52474e-06
3.14641e-05
-1.43303e-06
-1.799e-06
3.17053e-05
2.60285e-05
-4.02472e-06
2.72134e-05
-6.43953e-06
2.80308e-05
-4.98817e-06
2.85032e-05
-3.18562e-06
2.89851e-05
-2.33034e-06
2.93368e-05
-2.06112e-06
2.95877e-05
-1.91677e-06
2.97285e-05
-1.69938e-06
2.98483e-05
-1.44623e-06
2.9886e-05
-1.30286e-06
2.99563e-05
-1.04876e-06
2.99443e-05
-1.05829e-06
2.99502e-05
-8.43193e-07
2.98951e-05
-9.29995e-07
2.98478e-05
-8.34599e-07
2.97435e-05
-1.04617e-06
2.96429e-05
-9.107e-07
2.95316e-05
-1.41349e-06
2.94068e-05
-1.3082e-06
-1.83392e-06
2.94417e-05
2.62966e-05
-5.32136e-06
2.75291e-05
-7.67199e-06
2.80846e-05
-5.54367e-06
2.84477e-05
-3.54874e-06
2.86444e-05
-2.52702e-06
2.863e-05
-2.04673e-06
2.84674e-05
-1.75415e-06
2.82271e-05
-1.45907e-06
2.79636e-05
-1.1828e-06
2.7678e-05
-1.01722e-06
2.74287e-05
-7.99497e-07
2.71379e-05
-7.67421e-07
2.69037e-05
-6.09017e-07
2.66286e-05
-6.54892e-07
2.63828e-05
-5.88829e-07
2.60781e-05
-7.41491e-07
2.58184e-05
-6.5095e-07
2.54342e-05
-1.02931e-06
2.51419e-05
-1.01593e-06
-1.59526e-06
2.49033e-05
2.65989e-05
-6.92031e-06
2.7152e-05
-8.22509e-06
2.67841e-05
-5.17571e-06
2.62435e-05
-3.00817e-06
2.56009e-05
-1.8844e-06
2.48781e-05
-1.32392e-06
2.4151e-05
-1.02705e-06
2.3498e-05
-8.06139e-07
2.29284e-05
-6.13164e-07
2.24342e-05
-5.23017e-07
2.20267e-05
-3.9198e-07
2.16445e-05
-3.85242e-07
2.13375e-05
-3.02037e-07
2.1019e-05
-3.36311e-07
2.07357e-05
-3.05609e-07
2.04024e-05
-4.08122e-07
2.01119e-05
-3.60504e-07
1.96487e-05
-5.66119e-07
1.92227e-05
-5.8994e-07
-6.54644e-07
1.82821e-05
2.54476e-05
-7.36787e-06
2.32423e-05
-6.01985e-06
2.09925e-05
-2.92585e-06
1.93152e-05
-1.3309e-06
1.80724e-05
-6.41618e-07
1.71162e-05
-3.67711e-07
1.63596e-05
-2.70405e-07
1.5767e-05
-2.13617e-07
1.53058e-05
-1.5194e-07
1.49223e-05
-1.39525e-07
1.46248e-05
-9.44042e-08
1.43465e-05
-1.06999e-07
1.41244e-05
-7.98773e-08
1.38871e-05
-9.90885e-08
1.3672e-05
-9.05204e-08
1.34026e-05
-1.38693e-07
1.31576e-05
-1.15449e-07
1.27853e-05
-1.9389e-07
1.24461e-05
-2.50737e-07
-1.59881e-07
1.19514e-05
1.76321e-05
1.16123e-05
8.68643e-06
7.35553e-06
6.71391e-06
6.3462e-06
6.07579e-06
5.86218e-06
5.71024e-06
5.57071e-06
5.47631e-06
5.36931e-06
5.28943e-06
5.19034e-06
5.09982e-06
4.96113e-06
4.84568e-06
4.65179e-06
4.40105e-06
4.24117e-06
5.98167e-06
-3.44698e-07
-1.25823e-07
6.35865e-06
-1.58706e-07
-2.18272e-07
6.66155e-06
-5.65467e-08
-2.46357e-07
6.95666e-06
-1.86892e-08
-2.76416e-07
7.27699e-06
-1.92014e-08
-3.01132e-07
7.64089e-06
-4.8773e-08
-3.1512e-07
8.00234e-06
-9.42052e-08
-2.67248e-07
8.35391e-06
-1.51014e-07
-2.00554e-07
8.68148e-06
-2.08381e-07
-1.19194e-07
8.9599e-06
-2.33673e-07
-4.47427e-08
9.22734e-06
-3.03403e-07
3.59615e-08
9.48526e-06
-3.70217e-07
1.12293e-07
9.74143e-06
-4.49675e-07
1.93507e-07
1.0021e-05
-5.69796e-07
2.90195e-07
1.03104e-05
-6.84218e-07
3.94806e-07
1.06166e-05
-8.60099e-07
5.53943e-07
1.09256e-05
-1.07754e-06
7.68519e-07
1.11913e-05
-1.27776e-06
1.01211e-06
1.14124e-05
-1.54618e-06
1.32507e-06
1.15845e-05
-1.83985e-06
1.66769e-06
1.16604e-05
-2.08965e-06
2.01375e-06
1.16693e-05
-2.39206e-06
2.38322e-06
1.15633e-05
-2.61919e-06
2.72518e-06
1.12868e-05
-2.73306e-06
3.00953e-06
1.08127e-05
-2.74244e-06
3.21657e-06
1.01416e-05
-2.60858e-06
3.2797e-06
9.38505e-06
-2.39948e-06
3.15599e-06
8.66615e-06
-2.11797e-06
2.83687e-06
8.12485e-06
-1.71226e-06
2.25357e-06
7.86283e-06
-1.11585e-06
1.37786e-06
7.88968e-06
-2.49928e-07
2.23077e-07
8.31355e-06
8.98743e-07
-1.32261e-06
9.07064e-06
2.31835e-06
-3.07544e-06
1.01305e-05
3.92061e-06
-4.98046e-06
1.15199e-05
5.42313e-06
-6.81248e-06
1.32346e-05
6.64486e-06
-8.35963e-06
1.50953e-05
7.4396e-06
-9.30029e-06
1.69658e-05
7.4884e-06
-9.35891e-06
1.8826e-05
6.59771e-06
-8.4579e-06
2.04655e-05
5.23222e-06
-6.87169e-06
2.17979e-05
3.32111e-06
-4.65355e-06
2.29518e-05
9.36242e-07
-2.09012e-06
2.37451e-05
-1.35497e-06
5.61692e-07
2.42714e-05
-3.59862e-06
3.07233e-06
2.46396e-05
-5.59732e-06
5.22913e-06
2.48828e-05
-7.35562e-06
7.11234e-06
2.51929e-05
-9.05795e-06
8.74789e-06
2.55981e-05
-1.07483e-05
1.03431e-05
2.60793e-05
-1.25469e-05
1.20658e-05
2.61758e-05
-1.3929e-05
1.38325e-05
2.57812e-05
-1.49495e-05
1.53442e-05
2.51509e-05
-1.56444e-05
1.62747e-05
2.41423e-05
-1.5444e-05
1.64525e-05
2.28222e-05
-1.43288e-05
1.5649e-05
2.1265e-05
-1.26301e-05
1.41873e-05
1.97723e-05
-1.05193e-05
1.2012e-05
1.86454e-05
-7.98159e-06
9.10846e-06
1.76809e-05
-5.179e-06
6.14355e-06
1.70582e-05
-2.475e-06
3.09762e-06
1.72701e-05
1.81834e-07
-3.93664e-07
1.79016e-05
3.04914e-06
-3.68063e-06
1.83962e-05
5.71207e-06
-6.20668e-06
1.87578e-05
7.46889e-06
-7.83056e-06
1.90369e-05
8.56542e-06
-8.84443e-06
1.92476e-05
9.00322e-06
-9.21396e-06
1.96804e-05
9.0098e-06
-9.44261e-06
2.01611e-05
8.55736e-06
-9.03808e-06
2.07345e-05
7.87043e-06
-8.44385e-06
2.14609e-05
6.89449e-06
-7.62089e-06
2.221e-05
5.6209e-06
-6.36999e-06
2.29668e-05
4.2682e-06
-5.02497e-06
2.3781e-05
2.49358e-06
-3.30776e-06
2.47391e-05
5.19335e-07
-1.47743e-06
2.55662e-05
-1.70225e-06
8.75117e-07
2.6473e-05
-3.96374e-06
3.05693e-06
2.73783e-05
-6.23742e-06
5.33219e-06
2.77987e-05
-8.61001e-06
8.18954e-06
2.78786e-05
-1.07502e-05
1.06704e-05
2.77568e-05
-1.24435e-05
1.25653e-05
2.74974e-05
-1.42022e-05
1.44616e-05
2.69679e-05
-1.55422e-05
1.60716e-05
2.65378e-05
-1.67273e-05
1.71574e-05
2.65684e-05
-1.84713e-05
1.84407e-05
2.64445e-05
-1.98103e-05
1.99342e-05
2.60188e-05
-2.06461e-05
2.10718e-05
2.59771e-05
-2.21585e-05
2.22002e-05
2.62384e-05
-2.3902e-05
2.36407e-05
2.61343e-05
-2.47267e-05
2.48309e-05
2.57169e-05
-2.46592e-05
2.50765e-05
2.55306e-05
-2.47415e-05
2.49278e-05
2.5811e-05
-2.48999e-05
2.46195e-05
2.64605e-05
-2.44334e-05
2.37839e-05
2.7164e-05
-2.32203e-05
2.25169e-05
2.794e-05
-2.17083e-05
2.09322e-05
2.8545e-05
-2.02295e-05
1.96246e-05
2.88165e-05
-1.7782e-05
1.75105e-05
2.8673e-05
-1.46442e-05
1.47877e-05
2.81733e-05
-1.11482e-05
1.16478e-05
2.76378e-05
-7.87618e-06
8.4117e-06
2.71134e-05
-6.04533e-06
6.56972e-06
2.66388e-05
-4.42001e-06
4.89467e-06
2.62098e-05
-2.34406e-06
2.77298e-06
2.5798e-05
-2.88921e-07
7.00815e-07
2.52398e-05
1.61683e-06
-1.05865e-06
2.47816e-05
3.43626e-06
-2.97807e-06
2.44789e-05
5.98708e-06
-5.68439e-06
2.39184e-05
9.30771e-06
-8.74722e-06
2.33973e-05
1.31105e-05
-1.25894e-05
2.26273e-05
1.68091e-05
-1.6039e-05
2.1655e-05
1.86963e-05
-1.7724e-05
2.08577e-05
1.93354e-05
-1.85381e-05
2.01638e-05
1.96308e-05
-1.8937e-05
1.94219e-05
1.86611e-05
-1.79192e-05
1.87652e-05
1.69541e-05
-1.62974e-05
1.8414e-05
1.58139e-05
-1.54626e-05
1.81776e-05
1.56114e-05
-1.5375e-05
1.78086e-05
1.53034e-05
-1.49345e-05
1.73891e-05
1.51811e-05
-1.47616e-05
1.71693e-05
1.48961e-05
-1.46764e-05
1.69243e-05
1.42824e-05
-1.40374e-05
1.65653e-05
1.35416e-05
-1.31826e-05
1.62367e-05
1.21362e-05
-1.18076e-05
1.60696e-05
1.12311e-05
-1.1064e-05
1.58822e-05
1.08013e-05
-1.06138e-05
1.6125e-05
9.80288e-06
-1.00458e-05
1.65709e-05
9.04065e-06
-9.48649e-06
1.71608e-05
8.93849e-06
-9.52837e-06
1.79725e-05
8.44767e-06
-9.25939e-06
1.89008e-05
7.95105e-06
-8.87934e-06
1.96654e-05
8.00404e-06
-8.76873e-06
2.01808e-05
8.165e-06
-8.68037e-06
2.07615e-05
7.63565e-06
-8.21632e-06
2.09252e-05
6.85428e-06
-7.01799e-06
2.09798e-05
6.05318e-06
-6.10775e-06
2.12616e-05
4.82651e-06
-5.10833e-06
2.15276e-05
2.87909e-06
-3.14515e-06
2.13712e-05
1.52254e-06
-1.36607e-06
2.09692e-05
6.7122e-07
-2.69285e-07
2.0852e-05
-1.23274e-06
1.34993e-06
2.06412e-05
-3.1118e-06
3.32259e-06
2.02445e-05
-4.02731e-06
4.42411e-06
1.97569e-05
-4.95199e-06
5.4395e-06
1.93248e-05
-6.70371e-06
7.13583e-06
1.86445e-05
-8.01356e-06
8.69388e-06
1.78702e-05
-8.40528e-06
9.17953e-06
1.70816e-05
-9.53521e-06
1.03239e-05
1.60401e-05
-1.00957e-05
1.11372e-05
1.539e-05
-8.52871e-06
9.17885e-06
1.47468e-05
-6.14847e-06
6.79167e-06
1.38888e-05
-6.17351e-06
7.03147e-06
1.2439e-05
-8.0036e-06
9.45336e-06
1.10111e-05
-1.08863e-05
1.23142e-05
1.01471e-05
-1.44167e-05
1.52808e-05
1.03776e-05
-1.9493e-05
1.92625e-05
1.14385e-05
-2.63046e-05
2.52437e-05
1.22302e-05
-3.01391e-05
2.93474e-05
1.24468e-05
-3.05669e-05
3.03503e-05
1.26291e-05
-2.8978e-05
2.87957e-05
1.28622e-05
-2.86002e-05
2.83671e-05
1.29652e-05
-2.64889e-05
2.63859e-05
1.36932e-05
-2.28316e-05
2.21036e-05
1.43146e-05
-1.84116e-05
1.77902e-05
1.51379e-05
-1.42027e-05
1.33794e-05
1.5446e-05
-8.9891e-06
8.68097e-06
1.60356e-05
-3.50065e-06
2.91102e-06
1.63199e-05
4.9969e-07
-7.83895e-07
1.69085e-05
2.738e-06
-3.32665e-06
1.76116e-05
6.65177e-06
-7.3549e-06
1.81163e-05
1.0793e-05
-1.12977e-05
1.79614e-05
1.35035e-05
-1.33486e-05
1.82297e-05
1.4852e-05
-1.51203e-05
1.82828e-05
1.59985e-05
-1.60516e-05
1.77489e-05
1.55153e-05
-1.49814e-05
1.78879e-05
1.56633e-05
-1.58023e-05
1.79424e-05
1.80914e-05
-1.81459e-05
1.8484e-05
1.84769e-05
-1.90186e-05
1.93925e-05
1.84002e-05
-1.93087e-05
1.93934e-05
1.86756e-05
-1.86765e-05
1.91714e-05
1.80262e-05
-1.78042e-05
1.86778e-05
1.79761e-05
-1.74825e-05
1.83557e-05
1.78284e-05
-1.75063e-05
1.86774e-05
1.84922e-05
-1.88139e-05
1.87938e-05
1.90853e-05
-1.92017e-05
1.84844e-05
1.87869e-05
-1.84775e-05
1.75777e-05
1.78907e-05
-1.6984e-05
1.69415e-05
1.54643e-05
-1.48282e-05
1.64481e-05
1.36796e-05
-1.31862e-05
1.63095e-05
1.2002e-05
-1.18634e-05
1.63062e-05
1.20533e-05
-1.205e-05
1.60033e-05
1.20828e-05
-1.17799e-05
1.55292e-05
1.21267e-05
-1.16526e-05
1.49703e-05
1.15598e-05
-1.1001e-05
1.43594e-05
1.12542e-05
-1.06432e-05
1.37869e-05
1.17907e-05
-1.12183e-05
1.31158e-05
1.23275e-05
-1.16564e-05
1.29577e-05
1.30221e-05
-1.2864e-05
1.26168e-05
1.40308e-05
-1.36898e-05
1.19057e-05
1.6702e-05
-1.59909e-05
1.23038e-05
1.70997e-05
-1.74978e-05
2.15052e-05
-2.10045e-05
1.1803e-05
1.36296e-05
-3.52968e-07
1.36672e-05
-1.96332e-07
1.37306e-05
-1.19884e-07
1.38544e-05
-1.42504e-07
1.40351e-05
-1.99898e-07
1.4257e-05
-2.7071e-07
1.45132e-05
-3.50377e-07
1.47361e-05
-3.73942e-07
1.4967e-05
-4.39263e-07
1.51817e-05
-4.48367e-07
1.53892e-05
-5.10927e-07
1.56223e-05
-6.03323e-07
1.58349e-05
-6.62257e-07
1.60898e-05
-8.2465e-07
1.63424e-05
-9.3687e-07
1.66018e-05
-1.11951e-06
1.68705e-05
-1.34625e-06
1.70906e-05
-1.49785e-06
1.72873e-05
-1.74285e-06
1.74193e-05
-1.97183e-06
1.74696e-05
-2.13997e-06
1.74199e-05
-2.34232e-06
1.72777e-05
-2.47705e-06
1.7039e-05
-2.49432e-06
1.67141e-05
-2.41759e-06
1.63367e-05
-2.23116e-06
1.5886e-05
-1.94876e-06
1.52758e-05
-1.50775e-06
1.45116e-05
-9.48058e-07
1.37971e-05
-4.0137e-07
1.31555e-05
3.91655e-07
1.28308e-05
1.22348e-06
1.30515e-05
2.09764e-06
1.37656e-05
3.20648e-06
1.495e-05
4.23874e-06
1.65754e-05
5.01947e-06
1.83565e-05
5.65847e-06
2.01431e-05
5.70175e-06
2.19313e-05
4.80957e-06
2.35295e-05
3.63404e-06
2.48121e-05
2.03845e-06
2.59035e-05
-1.55119e-07
2.66269e-05
-2.07837e-06
2.7097e-05
-4.06876e-06
2.75931e-05
-6.09339e-06
2.80055e-05
-7.76802e-06
2.85197e-05
-9.57222e-06
2.90287e-05
-1.12573e-05
2.90647e-05
-1.25829e-05
2.901e-05
-1.38743e-05
2.84975e-05
-1.4437e-05
2.72417e-05
-1.43887e-05
2.55481e-05
-1.37503e-05
2.3713e-05
-1.24938e-05
2.21954e-05
-1.11125e-05
2.0831e-05
-9.15486e-06
1.97603e-05
-6.91093e-06
1.91362e-05
-4.55487e-06
1.87461e-05
-2.08485e-06
1.86072e-05
3.20755e-07
1.9034e-05
2.62225e-06
2.00369e-05
4.70923e-06
2.09547e-05
6.55108e-06
2.16807e-05
7.83939e-06
2.23142e-05
8.36971e-06
2.27618e-05
8.5622e-06
2.321e-05
8.10916e-06
2.37294e-05
7.35103e-06
2.42954e-05
6.32846e-06
2.49522e-05
4.9641e-06
2.57128e-05
3.50763e-06
2.63867e-05
1.81971e-06
2.71629e-05
-2.5693e-07
2.77962e-05
-2.33552e-06
2.82467e-05
-4.41423e-06
2.86294e-05
-6.62015e-06
2.862e-05
-8.60059e-06
2.8207e-05
-1.03372e-05
2.79549e-05
-1.21914e-05
2.75086e-05
-1.37559e-05
2.68629e-05
-1.48965e-05
2.67551e-05
-1.66194e-05
2.6519e-05
-1.82352e-05
2.55986e-05
-1.889e-05
2.48614e-05
-1.99089e-05
2.4978e-05
-2.22751e-05
2.48957e-05
-2.38197e-05
2.39793e-05
-2.38103e-05
2.3231e-05
-2.39109e-05
2.34157e-05
-2.49262e-05
2.43893e-05
-2.58735e-05
2.54097e-05
-2.54539e-05
2.60763e-05
-2.38869e-05
2.63931e-05
-2.20251e-05
2.64549e-05
-2.02913e-05
2.63799e-05
-1.7707e-05
2.61975e-05
-1.44618e-05
2.58051e-05
-1.07558e-05
2.53951e-05
-7.46618e-06
2.50793e-05
-5.72949e-06
2.47713e-05
-4.11208e-06
2.45368e-05
-2.10952e-06
2.42945e-05
-4.66484e-08
2.36912e-05
2.22021e-06
2.29961e-05
4.13135e-06
2.22102e-05
6.77292e-06
2.14255e-05
1.00924e-05
2.05069e-05
1.40291e-05
1.97476e-05
1.75684e-05
1.91424e-05
1.93015e-05
1.84819e-05
1.99959e-05
1.79587e-05
2.0154e-05
1.74018e-05
1.9218e-05
1.71333e-05
1.72226e-05
1.68032e-05
1.6144e-05
1.6806e-05
1.56086e-05
1.67161e-05
1.53933e-05
1.66264e-05
1.52708e-05
1.66114e-05
1.49111e-05
1.65379e-05
1.43559e-05
1.65392e-05
1.35403e-05
1.63824e-05
1.2293e-05
1.61342e-05
1.14793e-05
1.59656e-05
1.09699e-05
1.61119e-05
9.65654e-06
1.61365e-05
9.01606e-06
1.66136e-05
8.46136e-06
1.76816e-05
7.3797e-06
1.85404e-05
7.09225e-06
1.92756e-05
7.26888e-06
2.01984e-05
7.24217e-06
2.07831e-05
7.05097e-06
2.10162e-05
6.62113e-06
2.12229e-05
5.8465e-06
2.14302e-05
4.61923e-06
2.14264e-05
2.88289e-06
2.10856e-05
1.86333e-06
2.09736e-05
7.83184e-07
2.1021e-05
-1.28008e-06
2.09059e-05
-2.99669e-06
2.05386e-05
-3.66007e-06
2.00685e-05
-4.48181e-06
1.9622e-05
-6.25728e-06
1.91944e-05
-7.58597e-06
1.83949e-05
-7.60569e-06
1.74422e-05
-8.58254e-06
1.68704e-05
-9.52398e-06
1.65563e-05
-8.21464e-06
1.59443e-05
-5.53643e-06
1.48296e-05
-5.05881e-06
1.33708e-05
-6.54482e-06
1.19625e-05
-9.478e-06
1.11105e-05
-1.35647e-05
1.12383e-05
-1.96207e-05
1.17975e-05
-2.68638e-05
1.25293e-05
-3.08709e-05
1.25021e-05
-3.05397e-05
1.19654e-05
-2.84413e-05
1.15486e-05
-2.81834e-05
1.15603e-05
-2.65006e-05
1.19327e-05
-2.3204e-05
1.23065e-05
-1.87853e-05
1.28725e-05
-1.47687e-05
1.29891e-05
-9.1057e-06
1.33671e-05
-3.87863e-06
1.41704e-05
-3.03699e-07
1.45286e-05
2.37986e-06
1.51243e-05
6.05601e-06
1.61563e-05
9.76103e-06
1.64455e-05
1.32143e-05
1.62919e-05
1.50056e-05
1.68425e-05
1.54479e-05
1.66432e-05
1.57146e-05
1.62864e-05
1.60201e-05
1.62795e-05
1.80983e-05
1.59823e-05
1.87741e-05
1.67971e-05
1.75854e-05
1.7822e-05
1.76507e-05
1.83791e-05
1.74691e-05
1.88759e-05
1.74793e-05
1.87312e-05
1.79732e-05
1.85902e-05
1.86332e-05
1.81951e-05
1.94804e-05
1.76376e-05
1.93444e-05
1.71463e-05
1.8382e-05
1.66008e-05
1.60098e-05
1.60757e-05
1.42047e-05
1.58543e-05
1.22234e-05
1.61211e-05
1.17865e-05
1.60441e-05
1.21598e-05
1.56728e-05
1.2498e-05
1.5491e-05
1.17416e-05
1.50465e-05
1.16987e-05
1.48263e-05
1.20109e-05
1.51389e-05
1.20149e-05
1.48165e-05
1.33446e-05
1.53751e-05
1.34721e-05
1.42821e-05
1.7795e-05
1.74553e-05
1.39265e-05
2.11512e-05
1.78093e-05
2.0647e-05
-1.24319e-07
2.03677e-05
8.30162e-08
2.0229e-05
1.87957e-08
2.02648e-05
-1.78331e-07
2.04497e-05
-3.84767e-07
2.06768e-05
-4.97783e-07
2.08839e-05
-5.575e-07
2.1067e-05
-5.57074e-07
2.11893e-05
-5.61542e-07
2.13253e-05
-5.8441e-07
2.14615e-05
-6.4706e-07
2.16096e-05
-7.51502e-07
2.17887e-05
-8.41327e-07
2.19695e-05
-1.00541e-06
2.21653e-05
-1.13273e-06
2.23347e-05
-1.2889e-06
2.25297e-05
-1.54126e-06
2.26572e-05
-1.62533e-06
2.27598e-05
-1.84541e-06
2.28343e-05
-2.04639e-06
2.28027e-05
-2.10835e-06
2.27121e-05
-2.25172e-06
2.25591e-05
-2.32409e-06
2.23367e-05
-2.27183e-06
2.20106e-05
-2.09149e-06
2.16844e-05
-1.90497e-06
2.12867e-05
-1.55108e-06
2.08053e-05
-1.02635e-06
2.03953e-05
-5.38093e-07
1.99001e-05
9.38387e-08
1.94213e-05
8.70436e-07
1.90545e-05
1.59033e-06
1.88403e-05
2.31182e-06
1.89969e-05
3.04984e-06
1.95876e-05
3.6481e-06
2.05016e-05
4.10544e-06
2.18914e-05
4.26868e-06
2.35279e-05
4.06525e-06
2.49266e-05
3.41088e-06
2.63247e-05
2.23595e-06
2.77166e-05
6.4653e-07
2.86286e-05
-1.06708e-06
2.95124e-05
-2.96219e-06
3.02999e-05
-4.8563e-06
3.08818e-05
-6.67529e-06
3.15516e-05
-8.43779e-06
3.1875e-05
-9.89557e-06
3.20239e-05
-1.14063e-05
3.19521e-05
-1.2511e-05
3.10535e-05
-1.29758e-05
2.97831e-05
-1.31666e-05
2.83239e-05
-1.29294e-05
2.67296e-05
-1.21561e-05
2.50311e-05
-1.07952e-05
2.32289e-05
-9.31034e-06
2.16605e-05
-7.58652e-06
2.04691e-05
-5.71953e-06
1.96643e-05
-3.75003e-06
1.93744e-05
-1.79494e-06
1.95241e-05
1.70994e-07
1.99173e-05
2.22906e-06
2.07149e-05
3.91172e-06
2.18307e-05
5.4352e-06
2.29726e-05
6.69755e-06
2.39696e-05
7.37272e-06
2.48712e-05
7.66061e-06
2.556e-05
7.42038e-06
2.61613e-05
6.74965e-06
2.68271e-05
5.66266e-06
2.73412e-05
4.45007e-06
2.78469e-05
3.0019e-06
2.83557e-05
1.31092e-06
2.87321e-05
-6.33358e-07
2.89884e-05
-2.59177e-06
2.914e-05
-4.56584e-06
2.90971e-05
-6.57729e-06
2.88409e-05
-8.34443e-06
2.85117e-05
-1.0008e-05
2.82087e-05
-1.18885e-05
2.75791e-05
-1.31263e-05
2.70271e-05
-1.43445e-05
2.66738e-05
-1.62661e-05
2.53567e-05
-1.69182e-05
2.38516e-05
-1.73848e-05
2.37711e-05
-1.98284e-05
2.38464e-05
-2.23504e-05
2.2584e-05
-2.25573e-05
2.09774e-05
-2.22037e-05
2.08992e-05
-2.38328e-05
2.20208e-05
-2.60477e-05
2.30981e-05
-2.69508e-05
2.36029e-05
-2.59587e-05
2.35025e-05
-2.37865e-05
2.3258e-05
-2.17807e-05
2.28464e-05
-1.98796e-05
2.24611e-05
-1.73218e-05
2.20606e-05
-1.40613e-05
2.17102e-05
-1.04053e-05
2.18041e-05
-7.56014e-06
2.18773e-05
-5.8027e-06
2.19138e-05
-4.1486e-06
2.20654e-05
-2.26106e-06
2.20096e-05
9.17135e-09
2.16201e-05
2.60967e-06
2.07749e-05
4.97657e-06
1.96919e-05
7.85596e-06
1.85703e-05
1.12139e-05
1.7486e-05
1.51134e-05
1.69177e-05
1.81367e-05
1.62412e-05
1.99781e-05
1.58666e-05
2.03705e-05
1.56093e-05
2.04113e-05
1.54574e-05
1.93699e-05
1.53006e-05
1.73793e-05
1.51339e-05
1.63107e-05
1.545e-05
1.52926e-05
1.55974e-05
1.52459e-05
1.57061e-05
1.51621e-05
1.59754e-05
1.46418e-05
1.61553e-05
1.4176e-05
1.62888e-05
1.34068e-05
1.63735e-05
1.22083e-05
1.6236e-05
1.16168e-05
1.63106e-05
1.08954e-05
1.61282e-05
9.83894e-06
1.5822e-05
9.32221e-06
1.63653e-05
7.91813e-06
1.71111e-05
6.63388e-06
1.76049e-05
6.59847e-06
1.85635e-05
6.31027e-06
1.9649e-05
6.15658e-06
2.01529e-05
6.54709e-06
2.05674e-05
6.20667e-06
2.09263e-05
5.48759e-06
2.10779e-05
4.46763e-06
2.10442e-05
2.91662e-06
2.09024e-05
2.00513e-06
2.10015e-05
6.84031e-07
2.11289e-05
-1.4075e-06
2.10352e-05
-2.90298e-06
2.06686e-05
-3.29347e-06
2.02007e-05
-4.01383e-06
1.98911e-05
-5.94772e-06
1.94771e-05
-7.17201e-06
1.87529e-05
-6.88147e-06
1.78419e-05
-7.67149e-06
1.74153e-05
-9.09737e-06
1.705e-05
-7.84939e-06
1.65272e-05
-5.01365e-06
1.5574e-05
-4.10563e-06
1.42421e-05
-5.21291e-06
1.28799e-05
-8.11572e-06
1.2084e-05
-1.27688e-05
1.19943e-05
-1.95311e-05
1.21738e-05
-2.70433e-05
1.27893e-05
-3.14864e-05
1.21281e-05
-2.98785e-05
1.12522e-05
-2.75654e-05
1.05137e-05
-2.7445e-05
1.01835e-05
-2.61704e-05
1.00603e-05
-2.30808e-05
1.0511e-05
-1.9236e-05
1.02539e-05
-1.45116e-05
1.061e-05
-9.46187e-06
1.08121e-05
-4.08064e-06
1.15507e-05
-1.04237e-06
1.23834e-05
1.5472e-06
1.25785e-05
5.86087e-06
1.3355e-05
8.98459e-06
1.47449e-05
1.18244e-05
1.46453e-05
1.51051e-05
1.46008e-05
1.54924e-05
1.49647e-05
1.53507e-05
1.48868e-05
1.6098e-05
1.56934e-05
1.72917e-05
1.56216e-05
1.88459e-05
1.54317e-05
1.77753e-05
1.61904e-05
1.6892e-05
1.65832e-05
1.70763e-05
1.742e-05
1.66425e-05
1.79722e-05
1.74209e-05
1.82707e-05
1.83348e-05
1.83846e-05
1.93665e-05
1.82058e-05
1.95233e-05
1.78884e-05
1.86994e-05
1.69959e-05
1.69023e-05
1.65958e-05
1.46049e-05
1.64021e-05
1.2417e-05
1.67814e-05
1.14072e-05
1.66988e-05
1.22424e-05
1.67862e-05
1.24106e-05
1.6569e-05
1.19588e-05
1.67637e-05
1.15039e-05
1.61366e-05
1.2638e-05
1.7085e-05
1.10666e-05
1.62633e-05
1.41663e-05
1.83004e-05
1.14349e-05
1.7531e-05
1.85644e-05
1.86061e-05
1.28514e-05
1.89397e-05
2.08177e-05
2.54875e-05
-2.11239e-07
2.55723e-05
-1.74329e-09
2.56706e-05
-7.95973e-08
2.58051e-05
-3.12801e-07
2.59196e-05
-4.99204e-07
2.61006e-05
-6.78804e-07
2.62141e-05
-6.71075e-07
2.63483e-05
-6.91218e-07
2.64621e-05
-6.75343e-07
2.65063e-05
-6.28631e-07
2.66292e-05
-7.69991e-07
2.66737e-05
-7.95978e-07
2.67646e-05
-9.32164e-07
2.68602e-05
-1.1011e-06
2.69397e-05
-1.2122e-06
2.70456e-05
-1.39484e-06
2.71232e-05
-1.61885e-06
2.71956e-05
-1.69767e-06
2.71992e-05
-1.84904e-06
2.72082e-05
-2.05536e-06
2.712e-05
-2.02016e-06
2.69744e-05
-2.10613e-06
2.68231e-05
-2.17275e-06
2.65628e-05
-2.01157e-06
2.6246e-05
-1.77469e-06
2.59637e-05
-1.62265e-06
2.56951e-05
-1.28243e-06
2.53269e-05
-6.58175e-07
2.50681e-05
-2.79269e-07
2.49243e-05
2.37605e-07
2.46349e-05
1.15984e-06
2.44609e-05
1.76429e-06
2.45448e-05
2.22797e-06
2.4718e-05
2.87662e-06
2.50704e-05
3.29565e-06
2.57266e-05
3.44929e-06
2.66995e-05
3.29578e-06
2.78262e-05
2.93853e-06
2.90095e-05
2.22764e-06
3.02187e-05
1.02672e-06
3.12962e-05
-4.30928e-07
3.22442e-05
-2.01513e-06
3.30683e-05
-3.78626e-06
3.37621e-05
-5.55017e-06
3.42057e-05
-7.11882e-06
3.43761e-05
-8.60825e-06
3.45225e-05
-1.0042e-05
3.40123e-05
-1.0896e-05
3.30138e-05
-1.15126e-05
3.19134e-05
-1.18754e-05
3.04158e-05
-1.1669e-05
2.86069e-05
-1.11206e-05
2.67399e-05
-1.02891e-05
2.52718e-05
-9.3271e-06
2.41783e-05
-8.21685e-06
2.30454e-05
-6.45361e-06
2.18062e-05
-4.48031e-06
2.07889e-05
-2.73269e-06
2.0249e-05
-1.25504e-06
2.02164e-05
2.03588e-07
2.05584e-05
1.88705e-06
2.1183e-05
3.28708e-06
2.20601e-05
4.5581e-06
2.32163e-05
5.54134e-06
2.44363e-05
6.15275e-06
2.55623e-05
6.53456e-06
2.6565e-05
6.41769e-06
2.74748e-05
5.83982e-06
2.81495e-05
4.98797e-06
2.87768e-05
3.82276e-06
2.92506e-05
2.52818e-06
2.95958e-05
9.65695e-07
2.98706e-05
-9.08209e-07
2.99229e-05
-2.64404e-06
2.99304e-05
-4.57335e-06
2.97452e-05
-6.39203e-06
2.92833e-05
-7.88258e-06
2.89085e-05
-9.63314e-06
2.81203e-05
-1.11003e-05
2.70175e-05
-1.20235e-05
2.63859e-05
-1.37129e-05
2.50136e-05
-1.48938e-05
2.30156e-05
-1.49202e-05
2.25466e-05
-1.69159e-05
2.2973e-05
-2.02548e-05
2.16851e-05
-2.10625e-05
1.93568e-05
-2.02291e-05
1.85419e-05
-2.13887e-05
1.9248e-05
-2.45389e-05
2.01893e-05
-2.69891e-05
2.0527e-05
-2.72885e-05
2.03645e-05
-2.57962e-05
1.97884e-05
-2.32104e-05
1.90745e-05
-2.10668e-05
1.83352e-05
-1.91403e-05
1.76039e-05
-1.65905e-05
1.72743e-05
-1.37317e-05
1.7488e-05
-1.06189e-05
1.8013e-05
-8.08511e-06
1.85443e-05
-6.33403e-06
1.90154e-05
-4.61969e-06
1.92486e-05
-2.49434e-06
1.91947e-05
6.314e-08
1.88014e-05
3.00296e-06
1.7873e-05
5.90495e-06
1.66944e-05
9.0346e-06
1.53389e-05