/*--------------------------------*- C++ -*----------------------------------*\
| =========                 |                                                 |
| \\      /  F ield         | OpenFOAM: The Open Source CFD Toolbox           |
|  \\    /   O peration     | Version:  2.4.0                                 |
|   \\  /    A nd           | Web:      www.OpenFOAM.org                      |
|    \\/     M anipulation  |                                                 |
\*---------------------------------------------------------------------------*/
FoamFile
{
    version     2.0;
    format      ascii;
    class       surfaceScalarField;
    location    "1.59";
    object      phi_0;
}
// * * * * * * * * * * * * * * * * * * * * * * * * * * * * * * * * * * * * * //

dimensions      [0 3 -1 0 0 0 0];

internalField   nonuniform List<scalar> 
17320
(
1.76403e-05
7.35967e-06
1.16192e-05
6.02112e-06
8.6796e-06
2.93961e-06
7.35654e-06
1.32306e-06
6.71881e-06
6.37731e-07
6.34402e-06
3.74788e-07
6.07663e-06
2.67392e-07
5.87282e-06
2.03811e-07
5.70966e-06
1.63155e-07
5.58829e-06
1.21375e-07
5.47714e-06
1.11143e-07
5.40625e-06
7.08883e-08
5.31422e-06
9.20305e-08
5.24668e-06
6.75465e-08
5.16024e-06
8.6442e-08
5.13713e-06
2.31062e-08
5.02676e-06
1.10366e-07
5.10185e-06
-7.50856e-08
4.90937e-06
1.92481e-07
-5.975e-07
5.50687e-06
2.54672e-05
6.89249e-06
2.32484e-05
8.23993e-06
2.09883e-05
5.19968e-06
1.93197e-05
2.99171e-06
1.80764e-05
1.88098e-06
1.71132e-05
1.33799e-06
1.63662e-05
1.01444e-06
1.57771e-05
7.92844e-07
1.53121e-05
6.28194e-07
1.49413e-05
4.92187e-07
1.46353e-05
4.17079e-07
1.43982e-05
3.07987e-07
1.41585e-05
3.31777e-07
1.3974e-05
2.52019e-07
1.37645e-05
2.96015e-07
1.36515e-05
1.36088e-07
1.34177e-05
3.4416e-07
1.34588e-05
-1.16188e-07
1.33847e-05
2.66593e-07
-8.28483e-07
1.36156e-05
2.66299e-05
5.26257e-06
2.7153e-05
7.71686e-06
2.67814e-05
5.57133e-06
2.62513e-05
3.52178e-06
2.56059e-05
2.52634e-06
2.48734e-05
2.07048e-06
2.41622e-05
1.72568e-06
2.35051e-05
1.44996e-06
2.29395e-05
1.19374e-06
2.24517e-05
9.79986e-07
2.20371e-05
8.31709e-07
2.16997e-05
6.45403e-07
2.13676e-05
6.63845e-07
2.11072e-05
5.12416e-07
2.08323e-05
5.70913e-07
2.0635e-05
3.33381e-07
2.03707e-05
6.08493e-07
2.02998e-05
-4.52628e-08
2.03505e-05
2.15814e-07
-1.3512e-06
2.08733e-05
2.63387e-05
3.92386e-06
2.75368e-05
6.51877e-06
2.80852e-05
5.0229e-06
2.84543e-05
3.15269e-06
2.86447e-05
2.3359e-06
2.86254e-05
2.08983e-06
2.84779e-05
1.87319e-06
2.82349e-05
1.69293e-06
2.79735e-05
1.45517e-06
2.77012e-05
1.25227e-06
2.74287e-05
1.10422e-06
2.71894e-05
8.84742e-07
2.69272e-05
9.26001e-07
2.66936e-05
7.4605e-07
2.64752e-05
7.89313e-07
2.62408e-05
5.67762e-07
2.60493e-05
7.99965e-07
2.58242e-05
1.79829e-07
2.57673e-05
2.7278e-07
-9.96215e-07
2.54123e-05
2.60541e-05
2.86981e-06
2.72475e-05
5.32533e-06
2.80382e-05
4.23221e-06
2.85071e-05
2.6838e-06
2.89726e-05
1.87037e-06
2.93167e-05
1.7457e-06
2.95892e-05
1.60077e-06
2.97337e-05
1.54841e-06
2.98456e-05
1.34324e-06
2.99225e-05
1.17542e-06
2.99599e-05
1.06681e-06
2.99663e-05
8.78309e-07
2.99772e-05
9.15095e-07
2.99171e-05
8.06152e-07
2.99364e-05
7.70037e-07
2.97992e-05
7.04919e-07
2.9795e-05
8.04168e-07
2.95587e-05
4.1614e-07
2.94587e-05
3.72761e-07
-3.62781e-07
2.88253e-05
2.58393e-05
2.03054e-06
2.69753e-05
4.18928e-06
2.78058e-05
3.40174e-06
2.82372e-05
2.25234e-06
2.87254e-05
1.38224e-06
2.90708e-05
1.40031e-06
2.94607e-05
1.21087e-06
2.96998e-05
1.30932e-06
2.99943e-05
1.04872e-06
3.01674e-05
1.00227e-06
3.04305e-05
8.03766e-07
3.05072e-05
8.01601e-07
3.07592e-05
6.63047e-07
3.07906e-05
7.74768e-07
3.10573e-05
5.03298e-07
3.10073e-05
7.54978e-07
3.12581e-05
5.5334e-07
3.10249e-05
6.49344e-07
3.10751e-05
3.22568e-07
4.52492e-07
3.02598e-05
2.56928e-05
1.33777e-06
2.6779e-05
3.10302e-06
2.76063e-05
2.57446e-06
2.80259e-05
1.83272e-06
2.84784e-05
9.29795e-07
2.88164e-05
1.06228e-06
2.92272e-05
8.00067e-07
2.94352e-05
1.10134e-06
2.97871e-05
6.96841e-07
2.99456e-05
8.43696e-07
3.02819e-05
4.67455e-07
3.03504e-05
7.33137e-07
3.07051e-05
3.08334e-07
3.07209e-05
7.59011e-07
3.10182e-05
2.05971e-07
3.1054e-05
7.19155e-07
3.14507e-05
1.56626e-07
3.11391e-05
9.60949e-07
3.10327e-05
4.28972e-07
1.37638e-06
3.01088e-05
2.5561e-05
7.76797e-07
2.6591e-05
2.07298e-06
2.74359e-05
1.72962e-06
2.79832e-05
1.28538e-06
2.83395e-05
5.73442e-07
2.86828e-05
7.1899e-07
2.9004e-05
4.78953e-07
2.92974e-05
8.07847e-07
2.96214e-05
3.72893e-07
2.98343e-05
6.30789e-07
3.00216e-05
2.80148e-07
3.02853e-05
4.69482e-07
3.04746e-05
1.18982e-07
3.06234e-05
6.1024e-07
3.07671e-05
6.22629e-08
3.10362e-05
4.50094e-07
3.10949e-05
9.7846e-08
3.14689e-05
5.87014e-07
3.18516e-05
4.62422e-08
2.32562e-07
3.29954e-05
2.54653e-05
3.11493e-07
2.65193e-05
1.01901e-06
2.73419e-05
9.07038e-07
2.7915e-05
7.12223e-07
2.82481e-05
2.4031e-07
2.85306e-05
4.3654e-07
2.88419e-05
1.67656e-07
2.92451e-05
4.04622e-07
2.94862e-05
1.31774e-07
2.97371e-05
3.79957e-07
2.99649e-05
5.23516e-08
3.01935e-05
2.40845e-07
3.02262e-05
8.62551e-08
3.05612e-05
2.75255e-07
3.07092e-05
-8.56957e-08
3.09264e-05
2.32829e-07
3.09895e-05
3.48084e-08
3.14168e-05
1.59681e-07
3.16959e-05
-2.32816e-07
-3.49802e-07
3.22782e-05
2.54217e-05
-1.1021e-07
2.64384e-05
2.33956e-09
2.72851e-05
6.0282e-08
2.78936e-05
1.03744e-07
2.81611e-05
-2.72012e-08
2.85102e-05
8.74969e-08
2.88716e-05
-1.93784e-07
2.91536e-05
1.22632e-07
2.93285e-05
-4.31626e-08
2.9732e-05
-2.35272e-08
3.00115e-05
-2.27161e-07
3.01024e-05
1.49978e-07
3.01455e-05
4.31038e-08
3.04473e-05
-2.65426e-08
3.06582e-05
-2.96563e-07
3.09015e-05
-1.04854e-08
3.1074e-05
-1.37648e-07
3.13493e-05
-1.15673e-07
3.15458e-05
-4.29284e-07
-7.20793e-07
3.19168e-05
2.53996e-05
-5.09855e-07
2.6424e-05
-1.02201e-06
2.72816e-05
-7.9732e-07
2.7877e-05
-4.91693e-07
2.81924e-05
-3.42584e-07
2.85717e-05
-2.91816e-07
2.88155e-05
-4.37582e-07
2.91779e-05
-2.39698e-07
2.94206e-05
-2.85895e-07
2.97327e-05
-3.35683e-07
2.98592e-05
-3.53578e-07
3.00876e-05
-7.84833e-08
3.021e-05
-7.93128e-08
3.04629e-05
-2.79438e-07
3.05973e-05
-4.30972e-07
3.09005e-05
-3.13613e-07
3.10782e-05
-3.15414e-07
3.13359e-05
-3.73321e-07
3.1549e-05
-6.42437e-07
-1.03718e-06
3.18654e-05
2.54261e-05
-9.35968e-07
2.64572e-05
-2.05313e-06
2.73077e-05
-1.64776e-06
2.79562e-05
-1.14021e-06
2.83165e-05
-7.02856e-07
2.85815e-05
-5.56844e-07
2.88253e-05
-6.81388e-07
2.92597e-05
-6.74067e-07
2.95071e-05
-5.33323e-07
2.97228e-05
-5.5135e-07
2.98548e-05
-4.85634e-07
3.00937e-05
-3.17315e-07
3.03449e-05
-3.30529e-07
3.06142e-05
-5.48816e-07
3.0692e-05
-5.08717e-07
3.08352e-05
-4.56821e-07
3.10709e-05
-5.51073e-07
3.14542e-05
-7.56675e-07
3.17035e-05
-8.91755e-07
-1.20079e-06
3.18671e-05
2.55379e-05
-1.47387e-06
2.65948e-05
-3.11007e-06
2.74061e-05
-2.45902e-06
2.80448e-05
-1.77892e-06
2.83347e-05
-9.92715e-07
2.86788e-05
-9.00958e-07
2.90058e-05
-1.00842e-06
2.93176e-05
-9.85897e-07
2.95659e-05
-7.81611e-07
2.98603e-05
-8.4575e-07
2.99903e-05
-6.15606e-07
3.02697e-05
-5.96728e-07
3.04806e-05
-5.41412e-07
3.06327e-05
-7.00932e-07
3.07216e-05
-5.97602e-07
3.1013e-05
-7.48185e-07
3.12432e-05
-7.81286e-07
3.15372e-05
-1.05073e-06
3.17499e-05
-1.10438e-06
-1.35458e-06
3.19037e-05
2.56847e-05
-2.1586e-06
2.67262e-05
-4.15149e-06
2.75797e-05
-3.31252e-06
2.8079e-05
-2.27825e-06
2.84526e-05
-1.36635e-06
2.88643e-05
-1.31261e-06
2.91918e-05
-1.33594e-06
2.94866e-05
-1.28068e-06
2.97687e-05
-1.06372e-06
3.00058e-05
-1.08283e-06
3.01672e-05
-7.7703e-07
3.04544e-05
-8.83889e-07
3.06031e-05
-6.9019e-07
3.0757e-05
-8.54804e-07
3.09182e-05
-7.58838e-07
3.11896e-05
-1.01959e-06
3.13432e-05
-9.34847e-07
3.16326e-05
-1.34017e-06
3.18486e-05
-1.32036e-06
-1.54466e-06
3.20387e-05
2.58404e-05
-2.99902e-06
2.69381e-05
-5.24913e-06
2.77968e-05
-4.17126e-06
2.82352e-05
-2.71668e-06
2.87139e-05
-1.84499e-06
2.91142e-05
-1.71292e-06
2.9444e-05
-1.66575e-06
2.97202e-05
-1.55688e-06
2.99843e-05
-1.32788e-06
3.01648e-05
-1.26336e-06
3.0367e-05
-9.7914e-07
3.05543e-05
-1.07122e-06
3.06993e-05
-8.35218e-07
3.08311e-05
-9.86598e-07
3.09555e-05
-8.83243e-07
3.10838e-05
-1.14793e-06
3.11613e-05
-1.01227e-06
3.13464e-05
-1.5253e-06
3.14617e-05
-1.43564e-06
-1.79335e-06
3.17104e-05
2.60273e-05
-4.02627e-06
2.7214e-05
-6.43585e-06
2.80321e-05
-4.98942e-06
2.85035e-05
-3.18806e-06
2.89855e-05
-2.32702e-06
2.93364e-05
-2.06377e-06
2.95875e-05
-1.91682e-06
2.97282e-05
-1.69761e-06
2.98476e-05
-1.44733e-06
2.98863e-05
-1.30198e-06
2.99569e-05
-1.0498e-06
2.99442e-05
-1.0585e-06
2.99501e-05
-8.41104e-07
2.98951e-05
-9.31614e-07
2.98476e-05
-8.35711e-07
2.97436e-05
-1.04398e-06
2.96426e-05
-9.11218e-07
2.95311e-05
-1.41381e-06
2.94083e-05
-1.31282e-06
-1.82937e-06
2.94443e-05
2.62959e-05
-5.32216e-06
2.753e-05
-7.66999e-06
2.8085e-05
-5.54437e-06
2.84474e-05
-3.55046e-06
2.86449e-05
-2.52458e-06
2.86295e-05
-2.04831e-06
2.84673e-05
-1.75463e-06
2.82272e-05
-1.45751e-06
2.79634e-05
-1.18354e-06
2.76784e-05
-1.01699e-06
2.74286e-05
-7.99989e-07
2.71376e-05
-7.67514e-07
2.69041e-05
-6.07568e-07
2.66285e-05
-6.55968e-07
2.63825e-05
-5.89787e-07
2.60785e-05
-7.3996e-07
2.58184e-05
-6.51066e-07
2.54344e-05
-1.02985e-06
2.51419e-05
-1.02034e-06
-1.58679e-06
2.48993e-05
2.65985e-05
-6.92066e-06
2.71527e-05
-8.22418e-06
2.67842e-05
-5.17589e-06
2.62431e-05
-3.00936e-06
2.56015e-05
-1.88294e-06
2.48777e-05
-1.3246e-06
2.41508e-05
-1.0277e-06
2.34983e-05
-8.04968e-07
2.29284e-05
-6.13627e-07
2.24344e-05
-5.23024e-07
2.20265e-05
-3.92088e-07
2.16444e-05
-3.85465e-07
2.1338e-05
-3.01084e-07
2.10188e-05
-3.36836e-07
2.07355e-05
-3.06456e-07
2.04027e-05
-4.07181e-07
2.0112e-05
-3.60383e-07
1.96488e-05
-5.66631e-07
1.92212e-05
-5.9269e-07
-6.48088e-07
1.82825e-05
2.54473e-05
-7.36798e-06
2.32427e-05
-6.01959e-06
2.09926e-05
-2.92577e-06
1.93148e-05
-1.33151e-06
1.80728e-05
-6.41e-07
1.71161e-05
-3.6784e-07
1.63593e-05
-2.70898e-07
1.57673e-05
-2.13009e-07
1.53058e-05
-1.52129e-07
1.49224e-05
-1.39568e-07
1.46247e-05
-9.43892e-08
1.43464e-05
-1.07218e-07
1.41247e-05
-7.93845e-08
1.38871e-05
-9.92471e-08
1.36717e-05
-9.10564e-08
1.34028e-05
-1.38273e-07
1.31577e-05
-1.15311e-07
1.27853e-05
-1.94186e-07
1.24448e-05
-2.52188e-07
-1.56618e-07
1.19533e-05
1.7632e-05
1.16124e-05
8.68666e-06
7.35515e-06
6.71415e-06
6.34631e-06
6.07541e-06
5.8624e-06
5.71027e-06
5.5707e-06
5.47631e-06
5.3691e-06
5.28971e-06
5.19047e-06
5.09941e-06
4.96114e-06
4.84583e-06
4.65164e-06
4.39945e-06
4.24283e-06
5.97811e-06
-3.43235e-07
-1.28009e-07
6.35713e-06
-1.62868e-07
-2.16156e-07
6.66344e-06
-6.59409e-08
-2.40367e-07
6.96012e-06
-2.63029e-08
-2.70379e-07
7.28053e-06
-2.37948e-08
-2.96609e-07
7.64332e-06
-5.11851e-08
-3.11611e-07
8.00274e-06
-9.49519e-08
-2.64468e-07
8.35334e-06
-1.53763e-07
-1.96829e-07
8.67831e-06
-2.09881e-07
-1.1509e-07
8.95425e-06
-2.37354e-07
-3.85871e-08
9.22114e-06
-3.12052e-07
4.51629e-08
9.4764e-06
-3.77958e-07
1.22697e-07
9.73111e-06
-4.62244e-07
2.07537e-07
1.00076e-05
-5.82711e-07
3.06199e-07
1.02921e-05
-6.97723e-07
4.13276e-07
1.05948e-05
-8.78678e-07
5.75968e-07
1.08949e-05
-1.08869e-06
7.88552e-07
1.11494e-05
-1.28664e-06
1.03213e-06
1.1362e-05
-1.55779e-06
1.34519e-06
1.15207e-05
-1.84051e-06
1.68181e-06
1.15831e-05
-2.08769e-06
2.02537e-06
1.158e-05
-2.38702e-06
2.39006e-06
1.1454e-05
-2.59532e-06
2.72132e-06
1.11546e-05
-2.6945e-06
2.99394e-06
1.06598e-05
-2.68979e-06
3.18457e-06
9.9804e-06
-2.54577e-06
3.22518e-06
9.23346e-06
-2.32899e-06
3.07592e-06
8.54248e-06
-2.03529e-06
2.72628e-06
8.04692e-06
-1.60977e-06
2.10532e-06
7.82962e-06
-9.77608e-07
1.19491e-06
7.92565e-06
-7.15297e-08
-2.45067e-08
8.39372e-06
1.10479e-06
-1.57285e-06
9.18923e-06
2.54189e-06
-3.3374e-06
1.02825e-05
4.12804e-06
-5.22128e-06
1.17062e-05
5.57389e-06
-6.99764e-06
1.34448e-05
6.72026e-06
-8.45879e-06
1.53048e-05
7.41747e-06
-9.27748e-06
1.7169e-05
7.33089e-06
-9.19517e-06
1.90142e-05
6.34352e-06
-8.18866e-06
2.06213e-05
4.92759e-06
-6.53471e-06
2.19192e-05
2.94877e-06
-4.24669e-06
2.30282e-05
5.60266e-07
-1.66922e-06
2.37598e-05
-1.68385e-06
9.52192e-07
2.42608e-05
-3.87829e-06
3.37736e-06
2.46124e-05
-5.80384e-06
5.4522e-06
2.4867e-05
-7.52923e-06
7.27464e-06
2.51992e-05
-9.21587e-06
8.88362e-06
2.56351e-05
-1.09191e-05
1.04833e-05
2.61055e-05
-1.26934e-05
1.2223e-05
2.61139e-05
-1.39944e-05
1.3986e-05
2.57045e-05
-1.50098e-05
1.54192e-05
2.50721e-05
-1.56347e-05
1.62672e-05
2.40254e-05
-1.53074e-05
1.63541e-05
2.26762e-05
-1.41178e-05
1.5467e-05
2.10915e-05
-1.23711e-05
1.39559e-05
1.96367e-05
-1.02147e-05
1.16694e-05
1.85376e-05
-7.62206e-06
8.7212e-06
1.75882e-05
-4.82887e-06
5.77832e-06
1.70552e-05
-2.16982e-06
2.70275e-06
1.73699e-05
5.12502e-07
-8.27207e-07
1.79988e-05
3.38237e-06
-4.01124e-06
1.84705e-05
5.95972e-06
-6.43142e-06
1.88234e-05
7.61543e-06
-7.96833e-06
1.90991e-05
8.63324e-06
-8.90894e-06
1.93398e-05
9.00495e-06
-9.24562e-06
1.98026e-05
8.94841e-06
-9.41126e-06
2.02976e-05
8.45411e-06
-8.94905e-06
2.08893e-05
7.73425e-06
-8.32602e-06
2.16228e-05
6.71419e-06
-7.44768e-06
2.23665e-05
5.43158e-06
-6.17523e-06
2.31224e-05
4.0438e-06
-4.79975e-06
2.39517e-05
2.21701e-06
-3.04633e-06
2.49143e-05
2.22579e-07
-1.18518e-06
2.57368e-05
-1.98792e-06
1.16542e-06
2.6662e-05
-4.24453e-06
3.31934e-06
2.75083e-05
-6.51162e-06
5.66539e-06
2.78533e-05
-8.86725e-06
8.52225e-06
2.79047e-05
-1.0932e-05
1.08806e-05
2.77601e-05
-1.25939e-05
1.27385e-05
2.74901e-05
-1.43304e-05
1.46004e-05
2.69704e-05
-1.56292e-05
1.6149e-05
2.6583e-05
-1.68425e-05
1.72298e-05
2.66441e-05
-1.85962e-05
1.85352e-05
2.65362e-05
-1.99011e-05
2.0009e-05
2.61827e-05
-2.07986e-05
2.11521e-05
2.61889e-05
-2.23306e-05
2.23245e-05
2.64493e-05
-2.40062e-05
2.37458e-05
2.63649e-05
-2.47773e-05
2.48616e-05
2.59896e-05
-2.4684e-05
2.50592e-05
2.58012e-05
-2.47206e-05
2.49091e-05
2.60355e-05
-2.47215e-05
2.44872e-05
2.6619e-05
-2.41182e-05
2.35346e-05
2.72895e-05
-2.28976e-05
2.22272e-05
2.80713e-05
-2.14636e-05
2.06818e-05
2.86506e-05
-1.99458e-05
1.93665e-05
2.88583e-05
-1.73208e-05
1.71132e-05
2.86225e-05
-1.41007e-05
1.43366e-05
2.8086e-05
-1.06598e-05
1.11963e-05
2.75498e-05
-7.67117e-06
8.20743e-06
2.70346e-05
-6.08737e-06
6.60254e-06
2.65881e-05
-4.40144e-06
4.84792e-06
2.61771e-05
-2.24931e-06
2.66036e-06
2.57658e-05
-2.33229e-07
6.44499e-07
2.52252e-05
1.66343e-06
-1.12278e-06
2.48086e-05
3.65824e-06
-3.24163e-06
2.44762e-05
6.48602e-06
-6.1537e-06
2.38688e-05
1.00358e-05
-9.42836e-06
2.32951e-05
1.39241e-05
-1.33504e-05
2.24502e-05
1.73756e-05
-1.65306e-05
2.14631e-05
1.88854e-05
-1.78983e-05
2.06652e-05
1.93496e-05
-1.85518e-05
1.99512e-05
1.94596e-05
-1.87456e-05
1.91886e-05
1.82973e-05
-1.75347e-05
1.8588e-05
1.65821e-05
-1.59814e-05
1.82598e-05
1.56274e-05
-1.52992e-05
1.8042e-05
1.54896e-05
-1.52719e-05
1.76729e-05
1.52242e-05
-1.48551e-05
1.72971e-05
1.51198e-05
-1.4744e-05
1.71094e-05
1.47681e-05
-1.45804e-05
1.68441e-05
1.4125e-05
-1.38597e-05
1.65028e-05
1.33122e-05
-1.29709e-05
1.61969e-05
1.192e-05
-1.16141e-05
1.60367e-05
1.11222e-05
-1.0962e-05
1.58754e-05
1.06761e-05
-1.05148e-05
1.61721e-05
9.60928e-06
-9.90597e-06
1.66144e-05
8.95163e-06
-9.3939e-06
1.72265e-05
8.84909e-06
-9.46122e-06
1.80981e-05
8.29557e-06
-9.16716e-06
1.90096e-05
7.9032e-06
-8.81472e-06
1.97182e-05
8.06885e-06
-8.7774e-06
2.02408e-05
8.16838e-06
-8.69098e-06
2.07783e-05
7.56163e-06
-8.09912e-06
2.08729e-05
6.80931e-06
-6.90399e-06
2.09663e-05
5.95471e-06
-6.04806e-06
2.12871e-05
4.57715e-06
-4.89796e-06
2.14983e-05
2.64406e-06
-2.85523e-06
2.12752e-05
1.44019e-06
-1.21711e-06
2.09046e-05
4.97199e-07
-1.26562e-07
2.08263e-05
-1.54595e-06
1.62424e-06
2.0591e-05
-3.30179e-06
3.53705e-06
2.01651e-05
-4.12927e-06
4.55521e-06
1.96799e-05
-5.19844e-06
5.68358e-06
1.92234e-05
-7.00503e-06
7.46155e-06
1.84944e-05
-8.1767e-06
8.90568e-06
1.77037e-05
-8.59307e-06
9.38377e-06
1.68916e-05
-9.77489e-06
1.0587e-05
1.58048e-05
-1.00403e-05
1.11271e-05
1.51234e-05
-8.16003e-06
8.84134e-06
1.4413e-05
-5.99889e-06
6.70931e-06
1.34741e-05
-6.4943e-06
7.43324e-06
1.19564e-05
-8.66599e-06
1.01837e-05
1.05215e-05
-1.17208e-05
1.31556e-05
9.68983e-06
-1.53246e-05
1.61563e-05
1.0005e-05
-2.03541e-05
2.00389e-05
1.11158e-05
-2.68316e-05
2.57207e-05
1.18151e-05
-3.02385e-05
2.95392e-05
1.20414e-05
-3.0492e-05
3.02656e-05
1.23229e-05
-2.89226e-05
2.86411e-05
1.26976e-05
-2.84705e-05
2.80958e-05
1.29385e-05
-2.60349e-05
2.5794e-05
1.37501e-05
-2.20578e-05
2.12462e-05
1.44419e-05
-1.76178e-05
1.6926e-05
1.52762e-05
-1.33366e-05
1.25023e-05
1.55934e-05
-8.05367e-06
7.73649e-06
1.62073e-05
-2.6913e-06
2.07744e-06
1.6478e-05
9.9745e-07
-1.26817e-06
1.70969e-05
3.25788e-06
-3.87685e-06
1.77851e-05
7.36032e-06
-8.04849e-06
1.82215e-05
1.13154e-05
-1.17518e-05
1.80273e-05
1.38238e-05
-1.36296e-05
1.82492e-05
1.50101e-05
-1.5232e-05
1.82704e-05
1.5906e-05
-1.59273e-05
1.77134e-05
1.54781e-05
-1.49211e-05
1.78491e-05
1.59173e-05
-1.60531e-05
1.79402e-05
1.83246e-05
-1.84156e-05
1.84717e-05
1.8421e-05
-1.89524e-05
1.94038e-05
1.81664e-05
-1.90985e-05
1.94024e-05
1.846e-05
-1.84587e-05
1.91279e-05
1.78661e-05
-1.75916e-05
1.86428e-05
1.79213e-05
-1.74361e-05
1.83377e-05
1.7917e-05
-1.7612e-05
1.86672e-05
1.85906e-05
-1.89201e-05
1.86954e-05
1.91133e-05
-1.91415e-05
1.83008e-05
1.86994e-05
-1.83048e-05
1.74477e-05
1.75947e-05
-1.67416e-05
1.68752e-05
1.50794e-05
-1.45069e-05
1.6431e-05
1.33705e-05
-1.29263e-05
1.63161e-05
1.1835e-05
-1.17201e-05
1.63056e-05
1.2017e-05
-1.20065e-05
1.59377e-05
1.20946e-05
-1.17266e-05
1.54445e-05
1.20779e-05
-1.15848e-05
1.49117e-05
1.14555e-05
-1.09227e-05
1.42902e-05
1.12529e-05
-1.06314e-05
1.37575e-05
1.17989e-05
-1.12662e-05
1.31507e-05
1.22943e-05
-1.16875e-05
1.30474e-05
1.29735e-05
-1.28702e-05
1.26138e-05
1.40932e-05
-1.36596e-05
1.18045e-05
1.67285e-05
-1.59192e-05
1.23473e-05
1.68068e-05
-1.73497e-05
2.10674e-05
-2.05647e-05
1.18446e-05
1.3623e-05
-3.5058e-07
1.36619e-05
-2.01775e-07
1.37314e-05
-1.35456e-07
1.38605e-05
-1.5536e-07
1.40402e-05
-2.03508e-07
1.42622e-05
-2.73202e-07
1.45142e-05
-3.46949e-07
1.47342e-05
-3.73764e-07
1.49654e-05
-4.41063e-07
1.51775e-05
-4.49461e-07
1.5386e-05
-5.20579e-07
1.56152e-05
-6.07151e-07
1.58253e-05
-6.72292e-07
1.60786e-05
-8.36085e-07
1.63245e-05
-9.43566e-07
1.65826e-05
-1.1368e-06
1.68426e-05
-1.34869e-06
1.70527e-05
-1.49673e-06
1.72427e-05
-1.74778e-06
1.73612e-05
-1.95901e-06
1.73982e-05
-2.12467e-06
1.73395e-05
-2.32839e-06
1.71872e-05
-2.44298e-06
1.69371e-05
-2.44446e-06
1.66083e-05
-2.36097e-06
1.62245e-05
-2.16198e-06
1.57567e-05
-1.86113e-06
1.51311e-05
-1.4097e-06
1.43741e-05
-8.52763e-07
1.36884e-05
-2.91904e-07
1.30925e-05
5.24399e-07
1.28472e-05
1.35007e-06
1.31449e-05
2.24412e-06
1.39225e-05
3.3505e-06
1.51663e-05
4.33011e-06
1.68145e-05
5.07204e-06
1.8588e-05
5.64399e-06
2.03718e-05
5.54701e-06
2.21365e-05
4.5789e-06
2.36857e-05
3.3784e-06
2.49314e-05
1.70303e-06
2.59717e-05
-4.80026e-07
2.66312e-05
-2.34335e-06
2.70947e-05
-4.34183e-06
2.76e-05
-6.30907e-06
2.80156e-05
-7.94485e-06
2.85683e-05
-9.76858e-06
2.90285e-05
-1.13793e-05
2.90338e-05
-1.26987e-05
2.89822e-05
-1.39428e-05
2.83572e-05
-1.43848e-05
2.70172e-05
-1.42947e-05
2.53035e-05
-1.35937e-05
2.35152e-05
-1.23295e-05
2.20574e-05
-1.09133e-05
2.07245e-05
-8.8818e-06
1.97123e-05
-6.60981e-06
1.91169e-05
-4.23347e-06
1.87266e-05
-1.77955e-06
1.86346e-05
6.04513e-07
1.9148e-05
2.86896e-06
2.01827e-05
4.92498e-06
2.10762e-05
6.72195e-06
2.17919e-05
7.91755e-06
2.2414e-05
8.38287e-06
2.28514e-05
8.51102e-06
2.33136e-05
7.99186e-06
2.38426e-05
7.20526e-06
2.44233e-05
6.1335e-06
2.51008e-05
4.75408e-06
2.58555e-05
3.28909e-06
2.65276e-05
1.54492e-06
2.73016e-05
-5.51423e-07
2.7906e-05
-2.59233e-06
2.83464e-05
-4.68486e-06
2.86964e-05
-6.86169e-06
2.86044e-05
-8.77525e-06
2.81925e-05
-1.05201e-05
2.79482e-05
-1.23495e-05
2.74696e-05
-1.38518e-05
2.68767e-05
-1.50363e-05
2.68151e-05
-1.67809e-05
2.65733e-05
-1.83544e-05
2.56982e-05
-1.9026e-05
2.50351e-05
-2.01356e-05
2.51807e-05
-2.24762e-05
2.50893e-05
-2.39148e-05
2.42054e-05
-2.38933e-05
2.34747e-05
-2.39532e-05
2.36387e-05
-2.48847e-05
2.45711e-05
-2.56538e-05
2.55561e-05
-2.51032e-05
2.62281e-05
-2.35696e-05
2.65779e-05
-2.18134e-05
2.66738e-05
-2.00418e-05
2.65979e-05
-1.7245e-05
2.63744e-05
-1.38771e-05
2.59243e-05
-1.02097e-05
2.54753e-05
-7.22225e-06
2.51292e-05
-5.74118e-06
2.48106e-05
-4.08287e-06
2.45838e-05
-2.02249e-06
2.42837e-05
6.67922e-08
2.36401e-05
2.30705e-06
2.29208e-05
4.37758e-06
2.21074e-05
7.29935e-06
2.12986e-05
1.08446e-05
2.03546e-05
1.48681e-05
1.96398e-05
1.80904e-05
1.90159e-05
1.95093e-05
1.8344e-05
2.00215e-05
1.78082e-05
1.99954e-05
1.72556e-05
1.885e-05
1.69898e-05
1.68478e-05
1.66605e-05
1.59567e-05
1.67063e-05
1.54438e-05
1.66244e-05
1.5306e-05
1.65643e-05
1.518e-05
1.65686e-05
1.47637e-05
1.65114e-05
1.41823e-05
1.65203e-05
1.33033e-05
1.63476e-05
1.20927e-05
1.60888e-05
1.13811e-05
1.59639e-05
1.0801e-05
1.60922e-05
9.48103e-06
1.61081e-05
8.93568e-06
1.66944e-05
8.26287e-06
1.77857e-05
7.20428e-06
1.8584e-05
7.10485e-06
1.93455e-05
7.30734e-06
2.02713e-05
7.24258e-06
2.07654e-05
7.0675e-06
2.09806e-05
6.59413e-06
2.12124e-05
5.7229e-06
2.1397e-05
4.39254e-06
2.1331e-05
2.71015e-06
2.10003e-05
1.77088e-06
2.09656e-05
5.31904e-07
2.1024e-05
-1.60439e-06
2.08599e-05
-3.1377e-06
2.04569e-05
-3.7263e-06
1.99878e-05
-4.72932e-06
1.95462e-05
-6.56346e-06
1.90613e-05
-7.69175e-06
1.81974e-05
-7.72916e-06
1.72645e-05
-8.84197e-06
1.66997e-05
-9.47548e-06
1.63265e-05
-7.78682e-06
1.55922e-05
-5.26464e-06
1.43658e-05
-5.26789e-06
1.28295e-05
-7.12967e-06
1.14152e-05
-1.03065e-05
1.0628e-05
-1.45374e-05
1.08681e-05
-2.05942e-05
1.15556e-05
-2.75191e-05
1.21789e-05
-3.08618e-05
1.21475e-05
-3.04606e-05
1.17059e-05
-2.84809e-05
1.14172e-05
-2.81818e-05
1.15011e-05
-2.61187e-05
1.1986e-05
-2.25427e-05
1.23822e-05
-1.8014e-05
1.30113e-05
-1.39658e-05
1.31321e-05
-8.17447e-06
1.35729e-05
-3.13213e-06
1.4349e-05
2.21365e-07
1.46819e-05
2.92501e-06
1.53194e-05
6.72283e-06
1.6312e-05
1.03227e-05
1.65634e-05
1.35725e-05
1.63633e-05
1.52102e-05
1.68641e-05
1.54052e-05
1.66237e-05
1.57185e-05
1.62579e-05
1.62831e-05
1.63201e-05
1.82624e-05
1.60085e-05
1.87325e-05
1.67967e-05
1.73782e-05
1.78356e-05
1.74212e-05
1.83628e-05
1.73389e-05
1.88895e-05
1.73945e-05
1.87473e-05
1.80592e-05
1.85582e-05
1.87797e-05
1.81062e-05
1.95653e-05
1.75307e-05
1.92749e-05
1.70552e-05
1.80703e-05
1.6455e-05
1.56796e-05
1.5969e-05
1.38565e-05
1.58209e-05
1.19831e-05
1.61088e-05
1.17291e-05
1.59747e-05
1.22287e-05
1.56198e-05
1.24328e-05
1.54468e-05
1.16285e-05
1.50197e-05
1.168e-05
1.48484e-05
1.19702e-05
1.52028e-05
1.19399e-05
1.47912e-05
1.33851e-05
1.53299e-05
1.35546e-05
1.41387e-05
1.79197e-05
1.7282e-05
1.36635e-05
2.06228e-05
1.77266e-05
2.06378e-05
-1.15147e-07
2.03592e-05
7.68896e-08
2.02225e-05
1.15472e-09
2.02667e-05
-1.99497e-07
2.04595e-05
-3.96278e-07
2.06848e-05
-4.98579e-07
2.08891e-05
-5.51213e-07
2.10642e-05
-5.48833e-07
2.11806e-05
-5.57467e-07
2.13173e-05
-5.86173e-07
2.14518e-05
-6.55105e-07
2.16012e-05
-7.56579e-07
2.17801e-05
-8.51179e-07
2.19586e-05
-1.01453e-06
2.21485e-05
-1.13349e-06
2.23164e-05
-1.30476e-06
2.25048e-05
-1.53709e-06
2.26204e-05
-1.61225e-06
2.27224e-05
-1.84986e-06
2.27844e-05
-2.02102e-06
2.27404e-05
-2.08061e-06
2.26472e-05
-2.23522e-06
2.24877e-05
-2.28349e-06
2.22538e-05
-2.21057e-06
2.19264e-05
-2.0335e-06
2.1604e-05
-1.83958e-06
2.1196e-05
-1.45318e-06
2.07187e-05
-9.32374e-07
2.03213e-05
-4.55326e-07
1.98222e-05
2.07153e-07
1.93651e-05
9.81508e-07
1.90344e-05
1.68077e-06
1.88735e-05
2.40499e-06
1.90989e-05
3.1251e-06
1.97391e-05
3.68992e-06
2.07037e-05
4.10744e-06
2.2147e-05
4.20073e-06
2.37548e-05
3.9392e-06
2.51098e-05
3.22384e-06
2.65166e-05
1.97161e-06
2.78493e-05
3.70386e-07
2.87109e-05
-1.34167e-06
2.96042e-05
-3.23661e-06
3.03577e-05
-5.09536e-06
3.09441e-05
-6.89553e-06
3.16005e-05
-8.6012e-06
3.18686e-05
-1.00367e-05
3.20307e-05
-1.15415e-05
3.18544e-05
-1.25224e-05
3.08605e-05
-1.29489e-05
2.96066e-05
-1.31309e-05
2.8144e-05
-1.28321e-05
2.65322e-05
-1.19819e-05
2.4787e-05
-1.05843e-05
2.29773e-05
-9.10364e-06
2.14561e-05
-7.36061e-06
2.03353e-05
-5.48906e-06
1.96207e-05
-3.51883e-06
1.9404e-05
-1.56282e-06
1.95909e-05
4.17593e-07
2.0015e-05
2.44488e-06
2.08595e-05
4.08044e-06
2.19963e-05
5.58519e-06
2.31275e-05
6.7863e-06
2.41116e-05
7.39881e-06
2.49959e-05
7.62671e-06
2.56623e-05
7.32542e-06
2.62763e-05
6.59133e-06
2.69304e-05
5.47933e-06
2.74205e-05
4.26398e-06
2.79307e-05
2.77891e-06
2.8417e-05
1.05866e-06
2.87622e-05
-8.9669e-07
2.90116e-05
-2.84173e-06
2.91404e-05
-4.81362e-06
2.90725e-05
-6.79376e-06
2.88116e-05
-8.51442e-06
2.84861e-05
-1.01947e-05
2.81789e-05
-1.20423e-05
2.7568e-05
-1.32409e-05
2.70691e-05
-1.45374e-05
2.67156e-05
-1.64274e-05
2.53872e-05
-1.7026e-05
2.3992e-05
-1.76307e-05
2.39701e-05
-2.01137e-05
2.40136e-05
-2.25197e-05
2.27395e-05
-2.26407e-05
2.11772e-05
-2.2331e-05
2.11509e-05
-2.39269e-05
2.22448e-05
-2.59785e-05
2.33122e-05
-2.67213e-05
2.3821e-05
-2.5612e-05
2.37765e-05
-2.35251e-05
2.35839e-05
-2.16208e-05
2.31976e-05
-1.96555e-05
2.28245e-05
-1.6872e-05
2.2398e-05
-1.34506e-05
2.20339e-05
-9.84557e-06
2.20817e-05
-7.27005e-06
2.20711e-05
-5.73057e-06
2.20713e-05
-4.0831e-06
2.21936e-05
-2.14476e-06
2.20701e-05
1.90283e-07
2.15685e-05
2.80865e-06
2.06285e-05
5.31755e-06
1.95088e-05
8.41911e-06
1.83619e-05
1.19914e-05
1.73447e-05
1.58854e-05
1.68082e-05
1.86268e-05
1.61372e-05
2.01803e-05
1.57953e-05
2.03634e-05
1.55263e-05
2.02643e-05
1.53825e-05
1.89938e-05
1.51851e-05
1.70453e-05
1.50843e-05
1.60574e-05
1.54059e-05
1.51222e-05
1.55414e-05
1.51706e-05
1.56942e-05
1.50272e-05
1.59784e-05
1.44795e-05
1.61491e-05
1.40116e-05
1.62849e-05
1.31675e-05
1.63633e-05
1.20143e-05
1.62329e-05
1.15116e-05
1.63047e-05
1.07291e-05
1.60414e-05
9.74432e-06
1.58151e-05
9.16198e-06
1.64576e-05
7.62037e-06
1.71375e-05
6.52442e-06
1.76437e-05
6.59868e-06
1.8684e-05
6.26697e-06
1.96955e-05
6.23109e-06
2.01243e-05
6.63873e-06
2.05608e-05
6.15758e-06
2.09098e-05
5.37397e-06
2.10232e-05
4.27907e-06
2.09689e-05
2.76448e-06
2.08728e-05
1.86698e-06
2.10275e-05
3.77233e-07
2.11386e-05
-1.7155e-06
2.099e-05
-2.98916e-06
2.05879e-05
-3.32414e-06
2.0133e-05
-4.27444e-06
1.98226e-05
-6.25305e-06
1.93455e-05
-7.21468e-06
1.85452e-05
-6.9289e-06
1.76566e-05
-7.95335e-06
1.728e-05
-9.09886e-06
1.68656e-05
-7.37238e-06
1.6222e-05
-4.6211e-06
1.5126e-05
-4.17183e-06
1.36875e-05
-5.69119e-06
1.23081e-05
-8.92711e-06
1.15861e-05
-1.38153e-05
1.16361e-05
-2.06442e-05
1.19611e-05
-2.78441e-05
1.25963e-05
-3.14969e-05
1.19123e-05
-2.97767e-05
1.09841e-05
-2.75527e-05
1.02793e-05
-2.74769e-05
9.99763e-06
-2.58371e-05
9.97983e-06
-2.25249e-05
1.05007e-05
-1.85349e-05
1.03033e-05
-1.37683e-05
1.07681e-05
-8.63926e-06
1.09932e-05
-3.3573e-06
1.17567e-05
-5.42069e-07
1.25399e-05
2.14174e-06
1.27562e-05
6.50656e-06
1.35546e-05
9.52436e-06
1.48958e-05
1.22312e-05
1.47549e-05
1.53511e-05
1.46444e-05
1.55157e-05
1.49958e-05
1.53672e-05
1.49194e-05
1.63594e-05
1.57727e-05
1.74091e-05
1.57694e-05
1.87359e-05
1.55666e-05
1.7581e-05
1.62838e-05
1.6704e-05
1.66184e-05
1.70043e-05
1.74135e-05
1.65994e-05
1.79598e-05
1.75129e-05
1.82761e-05
1.84633e-05
1.84214e-05
1.942e-05
1.82571e-05
1.94392e-05
1.7883e-05
1.84443e-05
1.6945e-05
1.66177e-05
1.6623e-05
1.41785e-05
1.64711e-05
1.2135e-05
1.6852e-05
1.13482e-05
1.67321e-05
1.23486e-05
1.68432e-05
1.23216e-05
1.65857e-05
1.1886e-05
1.67852e-05
1.14805e-05
1.6139e-05
1.26164e-05
1.70925e-05
1.09864e-05
1.62684e-05
1.42092e-05
1.82712e-05
1.15517e-05
1.74583e-05
1.87326e-05
1.84254e-05
1.26965e-05
1.8359e-05
2.06892e-05
2.54935e-05
-1.96346e-07
2.55613e-05
9.0208e-09
2.5663e-05
-1.00507e-07
2.57986e-05
-3.35084e-07
2.59228e-05
-5.20528e-07
2.61082e-05
-6.83897e-07
2.62191e-05
-6.62197e-07
2.63565e-05
-6.86231e-07
2.64559e-05
-6.56791e-07
2.64991e-05
-6.29371e-07
2.6618e-05
-7.74011e-07
2.6653e-05
-7.9164e-07
2.67497e-05
-9.47801e-07
2.68402e-05
-1.10511e-06
2.69209e-05
-1.21417e-06
2.70279e-05
-1.41177e-06
2.71029e-05
-1.61202e-06
2.7169e-05
-1.67836e-06
2.71704e-05
-1.85132e-06
2.71751e-05
-2.02566e-06
2.70737e-05
-1.97924e-06
2.6931e-05
-2.09255e-06
2.67735e-05
-2.12593e-06
2.64974e-05
-1.93451e-06
2.61888e-05
-1.72488e-06
2.59198e-05
-1.57062e-06
2.56407e-05
-1.17408e-06
2.52818e-05
-5.73401e-07
2.50598e-05
-2.33379e-07
2.49019e-05
3.65113e-07
2.46058e-05
1.27754e-06
2.44839e-05
1.80269e-06
2.46042e-05
2.28476e-06
2.47873e-05
2.94191e-06
2.5185e-05
3.29223e-06
2.5906e-05
3.38644e-06
2.68945e-05
3.21228e-06
2.80195e-05
2.81423e-06
2.92128e-05
2.0305e-06
3.03899e-05
7.9455e-07
3.1438e-05
-6.77742e-07
3.23638e-05
-2.26751e-06
3.31613e-05
-4.03407e-06
3.38263e-05
-5.76032e-06
3.421e-05
-7.27928e-06
3.4389e-05
-8.78013e-06
3.44877e-05
-1.01354e-05
3.38519e-05
-1.09058e-05
3.28644e-05
-1.15348e-05
3.17504e-05
-1.18349e-05
3.01848e-05
-1.15654e-05
2.83505e-05
-1.09978e-05
2.65374e-05
-1.01688e-05
2.51585e-05
-9.20537e-06
2.4071e-05
-8.01614e-06
2.28739e-05
-6.16352e-06
2.16174e-05
-4.23257e-06
2.06652e-05
-2.56667e-06
2.02146e-05
-1.11216e-06
2.02568e-05
3.75318e-07
2.06456e-05
2.0561e-06
2.12993e-05
3.42674e-06
2.22135e-05
4.67103e-06
2.3398e-05
5.60175e-06
2.46096e-05
6.18721e-06
2.57142e-05
6.5222e-06
2.67101e-05
6.32951e-06
2.75931e-05
5.70827e-06
2.82396e-05
4.83288e-06
2.88529e-05
3.65069e-06
2.9302e-05
2.32976e-06
2.96336e-05
7.27093e-07
2.98844e-05
-1.14754e-06
2.99261e-05
-2.88338e-06
2.9927e-05
-4.81448e-06
2.97043e-05
-6.57107e-06
2.9264e-05
-8.07412e-06
2.88975e-05
-9.8282e-06
2.80817e-05
-1.12265e-05
2.70486e-05
-1.22078e-05
2.64366e-05
-1.39255e-05
2.50081e-05
-1.49988e-05
2.3086e-05
-1.5104e-05
2.27325e-05
-1.72772e-05
2.31254e-05
-2.05066e-05
2.17551e-05
-2.11494e-05
1.94718e-05
-2.03574e-05
1.87377e-05
-2.1597e-05
1.94947e-05
-2.4684e-05
2.0457e-05
-2.69408e-05
2.08096e-05
-2.70739e-05
2.06626e-05
-2.54649e-05
2.00542e-05
-2.29168e-05
1.93441e-05
-2.09107e-05
1.8617e-05
-1.89284e-05
1.79203e-05
-1.61752e-05
1.76326e-05
-1.31629e-05
1.78546e-05
-1.00676e-05
1.83368e-05
-7.75219e-06
1.87935e-05
-6.18725e-06
1.91984e-05
-4.48803e-06
1.93728e-05
-2.31919e-06
1.92423e-05
3.20813e-07
1.87233e-05
3.32762e-06
1.76944e-05
6.34643e-06