/*--------------------------------*- C++ -*----------------------------------*\
| =========                 |                                                 |
| \\      /  F ield         | OpenFOAM: The Open Source CFD Toolbox           |
|  \\    /   O peration     | Version:  2.4.0                                 |
|   \\  /    A nd           | Web:      www.OpenFOAM.org                      |
|    \\/     M anipulation  |                                                 |
\*---------------------------------------------------------------------------*/
FoamFile
{
    version     2.0;
    format      ascii;
    class       volVectorField;
    location    "89";
    object      U;
}
// * * * * * * * * * * * * * * * * * * * * * * * * * * * * * * * * * * * * * //

dimensions      [0 1 -1 0 0 0 0];

internalField   nonuniform List<vector> 
4400
(
(0.0874935 0.000819155 0)
(0.0908007 -0.000449666 0)
(0.106649 -0.00182279 0)
(0.107244 0.000659933 0)
(0.0981267 0.00168638 0)
(0.0842501 4.1524e-05 0)
(0.102397 -0.00151078 0)
(0.0935312 0.000808261 0)
(0.110708 -0.000747526 0)
(0.0950486 0.000181128 0)
(0.0964322 0.00192673 0)
(0.0893241 -0.00214668 0)
(0.1093 0.000761203 0)
(0.0878082 0.000757337 0)
(0.113587 -0.00164789 0)
(0.0872004 0.00188917 0)
(0.11116 -0.00156847 0)
(0.093868 -0.000245768 0)
(0.124742 0.00475513 0)
(0.0326653 -0.00991125 0)
(0.266615 0.00289894 0)
(0.270735 -0.00195076 0)
(0.293189 -0.00543778 0)
(0.276856 0.00202064 0)
(0.282188 0.00542855 0)
(0.253999 -0.000415922 0)
(0.294471 -0.00467171 0)
(0.256596 0.00224214 0)
(0.311435 -0.0024612 0)
(0.251791 0.00085329 0)
(0.293941 0.00597296 0)
(0.25814 -0.00735219 0)
(0.296987 0.00265667 0)
(0.259335 0.00107003 0)
(0.308177 -0.00429928 0)
(0.247074 0.00443977 0)
(0.318605 -0.00250945 0)
(0.253656 -0.00375658 0)
(0.320849 0.0094837 0)
(0.266099 -0.00614452 0)
(0.431888 0.00519227 0)
(0.430717 -0.00425412 0)
(0.457856 -0.00820685 0)
(0.425487 0.00387276 0)
(0.451437 0.00908006 0)
(0.408629 -0.00174373 0)
(0.465669 -0.00750298 0)
(0.40149 0.0036132 0)
(0.49289 -0.00438851 0)
(0.393274 0.00235398 0)
(0.470097 0.00908554 0)
(0.421599 -0.0127922 0)
(0.450154 0.00515582 0)
(0.437407 0.000363952 0)
(0.464005 -0.00654005 0)
(0.415206 0.00792973 0)
(0.484439 -0.00680165 0)
(0.420144 -0.00189968 0)
(0.479827 0.00560886 0)
(0.45331 -0.00469725 0)
(0.571414 0.00651981 0)
(0.578985 -0.00597097 0)
(0.603038 -0.00978239 0)
(0.560674 0.00558707 0)
(0.593643 0.0121335 0)
(0.548372 -0.00280581 0)
(0.611522 -0.00965067 0)
(0.527156 0.00413505 0)
(0.651441 -0.00622129 0)
(0.527565 0.00500199 0)
(0.608372 0.0101094 0)
(0.590315 -0.015428 0)
(0.562126 0.00627629 0)
(0.606738 -0.000187277 0)
(0.596295 -0.00752865 0)
(0.55803 0.0101237 0)
(0.638404 -0.00919465 0)
(0.558882 -0.000901954 0)
(0.620449 0.00103208 0)
(0.613663 -0.00175193 0)
(0.682595 0.00727607 0)
(0.705403 -0.00934992 0)
(0.728363 -0.0102974 0)
(0.686443 0.00831147 0)
(0.713867 0.0150982 0)
(0.666218 -0.00479065 0)
(0.736875 -0.0101025 0)
(0.629079 0.00371052 0)
(0.772497 -0.0107346 0)
(0.659607 0.0109604 0)
(0.703646 0.00716323 0)
(0.744706 -0.0164938 0)
(0.660772 0.00959973 0)
(0.731857 -0.00482609 0)
(0.721007 -0.00557298 0)
(0.664821 0.0113237 0)
(0.76176 -0.0145345 0)
(0.678106 0.0038162 0)
(0.728589 -0.00545583 0)
(0.742111 -0.000685484 0)
(0.776402 0.00888786 0)
(0.803224 -0.0143585 0)
(0.827093 -0.0116316 0)
(0.792018 0.0108373 0)
(0.818496 0.0192443 0)
(0.764331 -0.00717481 0)
(0.842376 -0.00924695 0)
(0.723998 0.0055727 0)
(0.852825 -0.0193276 0)
(0.776246 0.0189464 0)
(0.774954 0.00314581 0)
(0.855696 -0.0207586 0)
(0.756322 0.0165256 0)
(0.821744 -0.0115775 0)
(0.824847 -0.00309268 0)
(0.755749 0.013957 0)
(0.851578 -0.0211999 0)
(0.774294 0.00891718 0)
(0.813179 -0.0109779 0)
(0.833843 -0.00144143 0)
(0.856268 0.0112337 0)
(0.878772 -0.0193427 0)
(0.901681 -0.0133733 0)
(0.872647 0.0123698 0)
(0.901429 0.0236912 0)
(0.846095 -0.00932376 0)
(0.922025 -0.00878551 0)
(0.815037 0.0102878 0)
(0.911517 -0.0289869 0)
(0.868027 0.0271463 0)
(0.839231 0.000437647 0)
(0.92871 -0.0273454 0)
(0.837033 0.0247854 0)
(0.890117 -0.0188025 0)
(0.901908 -0.00106986 0)
(0.834927 0.0175235 0)
(0.919432 -0.0271953 0)
(0.850576 0.0135138 0)
(0.883475 -0.0141729 0)
(0.897876 -0.00333637 0)
(0.920123 0.0135853 0)
(0.93606 -0.0233809 0)
(0.955143 -0.0147656 0)
(0.931862 0.0130522 0)
(0.959522 0.0274353 0)
(0.911173 -0.0111359 0)
(0.974197 -0.0091924 0)
(0.891491 0.0159243 0)
(0.956535 -0.0375427 0)
(0.934376 0.0343494 0)
(0.898003 -0.000712564 0)
(0.975897 -0.0338763 0)
(0.900073 0.03292 0)
(0.941087 -0.0255302 0)
(0.952691 0.000459505 0)
(0.899 0.0206973 0)
(0.966303 -0.0318505 0)
(0.907591 0.017003 0)
(0.939586 -0.0157909 0)
(0.940379 -0.00518915 0)
(0.966213 0.0153958 0)
(0.975285 -0.0261438 0)
(0.988428 -0.015435 0)
(0.971903 0.0132931 0)
(0.993636 0.0300947 0)
(0.958498 -0.0124997 0)
(1.00156 -0.00979328 0)
(0.947581 0.0207764 0)
(0.98614 -0.0438182 0)
(0.975898 0.0398987 0)
(0.946761 -0.000812322 0)
(1.0009 -0.0389827 0)
(0.946094 0.0398027 0)
(0.975628 -0.0307049 0)
(0.980071 0.00204418 0)
(0.946728 0.0226434 0)
(0.991355 -0.0344048 0)
(0.945453 0.019012 0)
(0.977813 -0.0165199 0)
(0.962941 -0.0063141 0)
(0.993987 0.0162703 0)
(0.995118 -0.027318 0)
(1.00204 -0.0155155 0)
(0.992895 0.013289 0)
(1.00554 0.0316424 0)
(0.986841 -0.0132924 0)
(1.00678 -0.0100207 0)
(0.982569 0.0236006 0)
(0.998418 -0.0469936 0)
(0.993812 0.0432512 0)
(0.981319 -0.000366887 0)
(1.00407 -0.0416979 0)
(0.975199 0.0442159 0)
(0.99284 -0.0336344 0)
(0.986831 0.00385067 0)
(0.977649 0.0228949 0)
(0.995519 -0.0344235 0)
(0.966036 0.0194621 0)
(0.996141 -0.0163851 0)
(0.967611 -0.00654343 0)
(1.00332 0.0160545 0)
(0.994044 -0.0268125 0)
(0.996687 -0.0152081 0)
(0.993913 0.0131507 0)
(0.997059 0.0320735 0)
(0.995069 -0.0135365 0)
(0.991646 -0.00964939 0)
(0.997226 0.0236291 0)
(0.992224 -0.0465928 0)
(0.9902 0.0439142 0)
(0.998504 8.39702e-05 0)
(0.985881 -0.0412187 0)
(0.98729 0.0452018 0)
(0.990976 -0.0337643 0)
(0.975216 0.0056963 0)
(0.990646 0.0215011 0)
(0.980099 -0.0320185 0)
(0.971171 0.0182868 0)
(0.993873 -0.0154692 0)
(0.957493 -0.0062062 0)
(0.993871 0.0147896 0)
(0.970755 -0.024709 0)
(0.973318 -0.0145661 0)
(0.973512 0.0129964 0)
(0.970021 0.0312587 0)
(0.982257 -0.0131586 0)
(0.957794 -0.00872648 0)
(0.992585 0.0209852 0)
(0.966255 -0.0427553 0)
(0.967745 0.0416915 0)
(0.995423 0.000228424 0)
(0.947517 -0.0375138 0)
(0.981926 0.0423815 0)
(0.968438 -0.0310123 0)
(0.947096 0.00694583 0)
(0.984214 0.018903 0)
(0.946691 -0.0278822 0)
(0.961452 0.0156153 0)
(0.971194 -0.0138218 0)
(0.935118 -0.00581673 0)
(0.964576 0.0126965 0)
(0.924626 -0.0212612 0)
(0.932672 -0.013732 0)
(0.930056 0.0129726 0)
(0.926685 0.0290708 0)
(0.947397 -0.0120031 0)
(0.90752 -0.00781669 0)
(0.969152 0.0162779 0)
(0.918915 -0.0361631 0)
(0.929467 0.0367966 0)
(0.968847 0.000399661 0)
(0.890673 -0.0314879 0)
(0.95814 0.0362236 0)
(0.923946 -0.0259105 0)
(0.904388 0.00691303 0)
(0.957148 0.0157371 0)
(0.897456 -0.0228532 0)
(0.936328 0.0117962 0)
(0.929132 -0.0115276 0)
(0.900733 -0.00564886 0)
(0.913232 0.010197 0)
(0.856334 -0.0169339 0)
(0.874252 -0.0127758 0)
(0.863163 0.0129484 0)
(0.870008 0.0254804 0)
(0.889255 -0.0099517 0)
(0.844581 -0.00758102 0)
(0.925438 0.0107619 0)
(0.848891 -0.0276314 0)
(0.877882 0.0297152 0)
(0.914701 0.00125663 0)
(0.817921 -0.0246379 0)
(0.915433 0.0279366 0)
(0.857183 -0.0192247 0)
(0.850513 0.0052936 0)
(0.909045 0.0124937 0)
(0.834707 -0.0176527 0)
(0.894349 0.00726566 0)
(0.868277 -0.00871859 0)
(0.852005 -0.00565867 0)
(0.836766 0.00782943 0)
(0.768097 -0.0122458 0)
(0.796224 -0.0116186 0)
(0.777238 0.0121478 0)
(0.801691 0.020639 0)
(0.807113 -0.00715846 0)
(0.77315 -0.00861687 0)
(0.855031 0.00623091 0)
(0.756799 -0.0185296 0)
(0.812761 0.0213721 0)
(0.829052 0.0035977 0)
(0.735653 -0.0188853 0)
(0.853435 0.0188469 0)
(0.770388 -0.012004 0)
(0.788857 0.00192683 0)
(0.837541 0.00964801 0)
(0.759389 -0.0129657 0)
(0.831206 0.00282588 0)
(0.787163 -0.00543634 0)
(0.785442 -0.00580367 0)
(0.732117 0.00619474 0)
(0.664121 -0.00779201 0)
(0.698938 -0.0108023 0)
(0.679851 0.00963743 0)
(0.715404 0.0155753 0)
(0.702634 -0.00429667 0)
(0.690041 -0.0103706 0)
(0.747239 0.00454352 0)
(0.649857 -0.0109741 0)
(0.727912 0.0132698 0)
(0.714684 0.00704449 0)
(0.65188 -0.0160289 0)
(0.764448 0.01087 0)
(0.66697 -0.00560741 0)
(0.712204 -0.00223863 0)
(0.734807 0.00829747 0)
(0.669137 -0.00927843 0)
(0.7385 -0.000323705 0)
(0.68487 -0.00208815 0)
(0.697292 -0.0061099 0)
(0.59968 0.00560339 0)
(0.551723 -0.00476157 0)
(0.582183 -0.0106111 0)
(0.56626 0.00660701 0)
(0.598425 0.0118905 0)
(0.57935 -0.00210034 0)
(0.580897 -0.0104567 0)
(0.604998 0.0051552 0)
(0.538585 -0.00697788 0)
(0.611766 0.00717587 0)
(0.583889 0.00904408 0)
(0.557768 -0.0149258 0)
(0.633431 0.00658804 0)
(0.548541 -0.00107574 0)
(0.60248 -0.00497477 0)
(0.599398 0.00828317 0)
(0.560899 -0.00687732 0)
(0.611528 -0.0018218 0)
(0.563602 0.00027316 0)
(0.582015 -0.00615078 0)
(0.448825 0.00483157 0)
(0.428338 -0.00350291 0)
(0.436567 -0.00866129 0)
(0.427304 0.00474288 0)
(0.451954 0.00886037 0)
(0.440696 -0.000875457 0)
(0.441341 -0.00841003 0)
(0.447484 0.00470809 0)
(0.414364 -0.00511318 0)
(0.459883 0.00382665 0)
(0.442921 0.00805114 0)
(0.430906 -0.0120462 0)
(0.466626 0.00497335 0)
(0.417136 0.000688733 0)
(0.454984 -0.00523223 0)
(0.44521 0.00728029 0)
(0.430169 -0.00523466 0)
(0.454423 -0.00180385 0)
(0.424037 0.00119539 0)
(0.436808 -0.00517022 0)
(0.284844 0.00303902 0)
(0.279626 -0.00171159 0)
(0.267812 -0.00555063 0)
(0.267352 0.00230977 0)
(0.28537 0.00548018 0)
(0.285745 2.61392e-05 0)
(0.277972 -0.00521195 0)
(0.279546 0.00279742 0)
(0.264062 -0.00306275 0)
(0.284212 0.00151241 0)
(0.286186 0.00550675 0)
(0.272874 -0.00713058 0)
(0.285797 0.00268676 0)
(0.268004 0.00115572 0)
(0.281476 -0.00386071 0)
(0.279043 0.00465392 0)
(0.273965 -0.00303321 0)
(0.278395 -0.00138996 0)
(0.266263 0.00128703 0)
(0.26874 -0.00318992 0)
(0.10391 0.0010127 0)
(0.106493 -0.000477964 0)
(0.0895701 -0.00191072 0)
(0.0867636 0.00063878 0)
(0.100939 0.00173172 0)
(0.109535 0.000102657 0)
(0.0988693 -0.00163744 0)
(0.0978466 0.000862251 0)
(0.0915036 -0.000915072 0)
(0.0942016 0.00027385 0)
(0.106917 0.00186968 0)
(0.0971968 -0.00219616 0)
(0.0956906 0.000703783 0)
(0.0972119 0.000559062 0)
(0.0944535 -0.00138486 0)
(0.0973677 0.00149529 0)
(0.0979457 -0.000959588 0)
(0.0928354 -0.000532042 0)
(0.0916871 0.000611206 0)
(0.0896066 -0.000944919 0)
(0.175369 0.0171319 0)
(0.248878 -0.0162672 0)
(0.128498 -0.0132549 0)
(0.308672 0.00336685 0)
(0.102637 -0.00841804 0)
(0.423833 0.00372823 0)
(0.148699 0.000826843 0)
(0.362439 -0.00902731 0)
(0.382597 0.0146743 0)
(0.330147 -0.0351217 0)
(0.471937 -0.0330777 0)
(0.531899 -0.0433726 0)
(0.427596 -0.066344 0)
(0.574147 -0.0517917 0)
(0.497257 -0.0345048 0)
(0.442169 0.0356047 0)
(0.582219 0.0366916 0)
(0.765181 -0.138959 0)
(0.823763 -0.207462 0)
(0.874189 -0.203306 0)
(0.968589 -0.202231 0)
(0.926631 -0.24193 0)
(0.859406 -0.24267 0)
(0.741903 -0.189239 0)
(0.573613 -0.225328 0)
(0.579636 -0.187617 0)
(0.57814 -0.064057 0)
(0.593896 0.122503 0)
(0.556815 0.37957 0)
(0.497797 0.455196 0)
(0.538836 0.168472 0)
(0.602036 -0.0537017 0)
(0.505995 -0.138062 0)
(0.36288 -0.306348 0)
(0.347836 -0.345592 0)
(0.442116 -0.191094 0)
(0.442176 -0.0561928 0)
(0.564949 0.149166 0)
(0.643263 0.31616 0)
(0.634076 0.31212 0)
(0.647197 0.204781 0)
(0.673469 0.0853648 0)
(0.707251 -0.0461776 0)
(0.706309 -0.0757357 0)
(0.649776 -0.00316575 0)
(0.627289 0.0391161 0)
(0.502876 0.119362 0)
(0.453095 0.155458 0)
(0.540636 0.0551345 0)
(0.512684 0.00200721 0)
(0.500213 -0.0653169 0)
(0.592388 -0.182854 0)
(0.611473 -0.229752 0)
(0.531171 -0.212883 0)
(0.489065 -0.157637 0)
(0.475913 -0.101151 0)
(0.461763 -0.0478955 0)
(0.474407 0.0353755 0)
(0.523507 0.117259 0)
(0.555625 0.163645 0)
(0.546935 0.169628 0)
(0.537677 0.138284 0)
(0.523025 0.0926793 0)
(0.521765 0.026655 0)
(0.542834 -0.0650236 0)
(0.52825 -0.135568 0)
(0.503572 -0.144637 0)
(0.486413 -0.112051 0)
(0.476416 -0.0535305 0)
(0.501536 0.0340385 0)
(0.518321 0.104606 0)
(0.511708 0.112565 0)
(0.509246 0.060647 0)
(0.51643 -0.0112656 0)
(0.512921 -0.0576624 0)
(0.502605 -0.0521845 0)
(0.508674 -0.00512514 0)
(0.521801 0.0418162 0)
(0.519212 0.060476 0)
(0.509706 0.0477649 0)
(0.511444 0.0141383 0)
(0.51987 -0.0183367 0)
(0.52457 -0.0318165 0)
(0.52366 -0.0268889 0)
(0.518944 -0.0148309 0)
(0.512249 -0.00468386 0)
(0.505008 0.000640406 0)
(0.498141 0.00210401 0)
(0.492029 0.00161681 0)
(0.486585 0.000609682 0)
(0.481558 -0.000226942 0)
(0.476471 -0.000677138 0)
(0.471179 -0.000843345 0)
(0.465321 -0.000804572 0)
(0.459481 -0.000765119 0)
(0.453242 -0.000656892 0)
(0.448149 -0.000666585 0)
(0.442616 -0.000558748 0)
(0.439732 -0.000590611 0)
(0.435084 -0.000455457 0)
(0.295447 0.00125345 0)
(0.40211 -0.0148326 0)
(0.26357 -0.0147204 0)
(0.449609 0.00172073 0)
(0.237117 -0.0134173 0)
(0.518645 -0.00687168 0)
(0.34891 0.00350734 0)
(0.416924 -0.0218434 0)
(0.526779 0.00612415 0)
(0.481702 -0.0333914 0)
(0.547924 -0.0494976 0)
(0.667436 -0.0525441 0)
(0.543438 -0.0608492 0)
(0.658039 -0.0559673 0)
(0.640351 -0.034886 0)
(0.528828 0.0333073 0)
(0.670746 0.0158284 0)
(0.846918 -0.165245 0)
(0.885003 -0.22111 0)
(0.920495 -0.209069 0)
(0.985646 -0.204015 0)
(0.927409 -0.231731 0)
(0.839672 -0.222204 0)
(0.709718 -0.167526 0)
(0.517896 -0.216194 0)
(0.538412 -0.185785 0)
(0.545439 -0.0584816 0)
(0.558883 0.124704 0)
(0.535871 0.381767 0)
(0.48896 0.453876 0)
(0.543352 0.162966 0)
(0.604084 -0.0476362 0)
(0.501895 -0.123261 0)
(0.347309 -0.294511 0)
(0.32073 -0.347566 0)
(0.404142 -0.199456 0)
(0.405198 -0.0630355 0)
(0.518221 0.137242 0)
(0.61263 0.30542 0)
(0.61879 0.306483 0)
(0.650377 0.201029 0)
(0.68455 0.0831673 0)
(0.716132 -0.0470111 0)
(0.717723 -0.0725792 0)
(0.657712 0.00420211 0)
(0.64371 0.0480747 0)
(0.52561 0.128079 0)
(0.475442 0.156052 0)
(0.56171 0.0521239 0)
(0.527377 0.00285604 0)
(0.524711 -0.0696094 0)
(0.614384 -0.188392 0)
(0.617074 -0.226553 0)
(0.520248 -0.204672 0)
(0.46847 -0.152601 0)
(0.451447 -0.0983494 0)
(0.43499 -0.0468562 0)
(0.446559 0.0320536 0)
(0.496081 0.111687 0)
(0.534612 0.160531 0)
(0.537089 0.169219 0)
(0.538835 0.138977 0)
(0.529547 0.0939089 0)
(0.530158 0.0265575 0)
(0.551499 -0.0649594 0)
(0.531766 -0.133573 0)
(0.497938 -0.142244 0)
(0.475393 -0.109807 0)
(0.461352 -0.053077 0)
(0.483122 0.0320445 0)
(0.503718 0.102762 0)
(0.503499 0.11214 0)
(0.505623 0.0605514 0)
(0.514792 -0.0113361 0)
(0.510487 -0.0570145 0)
(0.498445 -0.0517088 0)
(0.50257 -0.00586835 0)
(0.515981 0.0409983 0)
(0.516678 0.06065 0)
(0.511534 0.0479755 0)
(0.516124 0.013642 0)
(0.524569 -0.0189956 0)
(0.527643 -0.0319653 0)
(0.524836 -0.0264721 0)
(0.518643 -0.014106 0)
(0.511148 -0.00386881 0)
(0.503702 0.00142912 0)
(0.496961 0.00282146 0)
(0.49107 0.00225415 0)
(0.485803 0.00118771 0)
(0.480875 0.000329128 0)
(0.475821 -0.000109608 0)
(0.470547 -0.000238858 0)
(0.464712 -0.000175332 0)
(0.458948 -0.000120746 0)
(0.452793 -5.56632e-05 0)
(0.447828 -0.000106143 0)
(0.442379 -0.000116192 0)
(0.439589 -0.000196259 0)
(0.434978 -0.000212683 0)
(0.44563 -0.00535962 0)
(0.565113 -0.0165217 0)
(0.413573 -0.0154906 0)
(0.600765 -0.00245261 0)
(0.421584 -0.00974134 0)
(0.605848 -0.0207872 0)
(0.547146 0.00599626 0)
(0.51809 -0.0227667 0)
(0.648135 -0.0139946 0)
(0.632581 -0.031308 0)
(0.64519 -0.0570444 0)
(0.770483 -0.0656392 0)
(0.656601 -0.0513605 0)
(0.729078 -0.059042 0)
(0.745597 -0.0381372 0)
(0.62544 0.0356968 0)
(0.77018 -0.00241669 0)
(0.916788 -0.186727 0)
(0.927311 -0.230478 0)
(0.94905 -0.210322 0)
(0.989269 -0.201698 0)
(0.917965 -0.218066 0)
(0.810445 -0.198436 0)
(0.668001 -0.142772 0)
(0.457217 -0.207048 0)
(0.49529 -0.185814 0)
(0.512699 -0.0536589 0)
(0.521143 0.126465 0)
(0.511094 0.382479 0)
(0.476556 0.449233 0)
(0.54636 0.156638 0)
(0.602412 -0.0405853 0)
(0.495803 -0.106944 0)
(0.331623 -0.281083 0)
(0.293961 -0.347843 0)
(0.36658 -0.20663 0)
(0.365105 -0.0688879 0)
(0.468448 0.125264 0)
(0.57657 0.292644 0)
(0.595643 0.297996 0)
(0.64581 0.195108 0)
(0.687505 0.0799856 0)
(0.718168 -0.0476409 0)
(0.722186 -0.068864 0)
(0.660601 0.0111099 0)
(0.654508 0.0558684 0)
(0.543577 0.136492 0)
(0.495378 0.156457 0)
(0.580017 0.0497263 0)
(0.53944 0.00355089 0)
(0.548328 -0.0745194 0)
(0.63298 -0.192441 0)
(0.617461 -0.22097 0)
(0.504757 -0.19463 0)
(0.444474 -0.146663 0)
(0.424724 -0.0951973 0)
(0.406242 -0.0456007 0)
(0.416732 0.0287969 0)
(0.466495 0.1057 0)
(0.510484 0.156305 0)
(0.523377 0.167327 0)
(0.536073 0.138544 0)
(0.532287 0.0946295 0)
(0.535253 0.02623 0)
(0.556899 -0.0646163 0)
(0.532001 -0.130635 0)
(0.489196 -0.138866 0)
(0.461348 -0.106961 0)
(0.44377 -0.0521543 0)
(0.462364 0.0300727 0)
(0.486243 0.100327 0)
(0.492005 0.110938 0)
(0.498836 0.0599509 0)
(0.510247 -0.0114786 0)
(0.505065 -0.0561405 0)
(0.491246 -0.0509394 0)
(0.493602 -0.00648622 0)
(0.507116 0.0399678 0)
(0.510803 0.060342 0)
(0.509976 0.0477203 0)
(0.51735 0.0129464 0)
(0.525714 -0.0195489 0)
(0.527208 -0.0318889 0)
(0.522637 -0.0258543 0)
(0.515111 -0.0132609 0)
(0.50695 -0.00301031 0)
(0.499429 0.00221145 0)
(0.492945 0.0035106 0)
(0.487396 0.00286246 0)
(0.482415 0.0017442 0)
(0.477675 0.000873465 0)
(0.47274 0.000450466 0)
(0.467579 0.000357241 0)
(0.461912 0.000440476 0)
(0.456392 0.000504117 0)
(0.450572 0.000521902 0)
(0.445954 0.000428803 0)
(0.440906 0.00030443 0)
(0.438366 0.000178103 0)
(0.434127 1.91966e-05 0)
(0.57325 -0.0107234 0)
(0.704958 -0.0208735 0)
(0.551099 -0.0126678 0)
(0.715786 -0.0117467 0)
(0.590962 -0.00309787 0)
(0.686101 -0.030989 0)
(0.702077 0.0011596 0)
(0.637323 -0.0149539 0)
(0.754015 -0.0351336 0)
(0.751303 -0.0308567 0)
(0.741035 -0.0571869 0)
(0.846133 -0.0797963 0)
(0.749794 -0.0416655 0)
(0.793544 -0.0580334 0)
(0.815489 -0.0445935 0)
(0.711324 0.036468 0)
(0.85746 -0.0167916 0)
(0.963958 -0.202978 0)
(0.948355 -0.236981 0)
(0.960888 -0.209066 0)
(0.979249 -0.196665 0)
(0.896041 -0.201818 0)
(0.770752 -0.171796 0)
(0.616323 -0.115752 0)
(0.395733 -0.198704 0)
(0.450578 -0.188922 0)
(0.480362 -0.0494069 0)
(0.481134 0.128068 0)
(0.48287 0.381506 0)
(0.460845 0.440855 0)
(0.548083 0.149854 0)
(0.597462 -0.0324678 0)
(0.487386 -0.0894672 0)
(0.31705 -0.266071 0)
(0.268669 -0.347006 0)
(0.329981 -0.212485 0)
(0.323481 -0.073861 0)
(0.416265 0.11333 0)
(0.535711 0.278278 0)
(0.565186 0.286965 0)
(0.633285 0.18705 0)
(0.682095 0.0756376 0)
(0.713328 -0.0481278 0)
(0.719412 -0.0647604 0)
(0.658146 0.0173421 0)
(0.659588 0.0624786 0)
(0.556369 0.14437 0)
(0.512707 0.156399 0)
(0.595245 0.0479957 0)
(0.549239 0.00400878 0)
(0.57092 -0.079976 0)
(0.647569 -0.194699 0)
(0.612338 -0.212901 0)
(0.484918 -0.18289 0)
(0.417449 -0.139987 0)
(0.396109 -0.0917882 0)
(0.375872 -0.0441988 0)
(0.385182 0.0256081 0)
(0.435001 0.0993792 0)
(0.483527 0.151091 0)
(0.506074 0.164004 0)
(0.52954 0.137025 0)
(0.531236 0.0947209 0)
(0.537138 0.0257467 0)
(0.559077 -0.0639572 0)
(0.528976 -0.126761 0)
(0.477437 -0.134525 0)
(0.444426 -0.103563 0)
(0.423844 -0.0507875 0)
(0.439493 0.0281582 0)
(0.466148 0.0973656 0)
(0.477415 0.108993 0)
(0.489074 0.0588134 0)
(0.502951 -0.0117271 0)
(0.49675 -0.0550459 0)
(0.481057 -0.0498852 0)
(0.481779 -0.0069813 0)
(0.495262 0.0387501 0)
(0.501679 0.0595772 0)
(0.505117 0.0470106 0)
(0.515142 0.0120643 0)
(0.52333 -0.0199907 0)
(0.523337 -0.0315972 0)
(0.517161 -0.0250535 0)
(0.508455 -0.0123118 0)
(0.499767 -0.0021269 0)
(0.492294 0.00297225 0)
(0.48618 0.0041585 0)
(0.481072 0.00343024 0)
(0.476459 0.00227021 0)
(0.471976 0.00139681 0)
(0.467241 0.000993518 0)
(0.462293 0.000931956 0)
(0.456949 0.00102575 0)
(0.451855 0.00108693 0)
(0.446621 0.00105105 0)
(0.442566 0.000910576 0)
(0.438213 0.000678944 0)
(0.436068 0.000508009 0)
(0.432493 0.000223529 0)
(0.684741 -0.010202 0)
(0.810067 -0.0261228 0)
(0.672549 -0.00736729 0)
(0.800637 -0.0219814 0)
(0.720246 0.00355561 0)
(0.761435 -0.0354748 0)
(0.812091 -0.00900059 0)
(0.739345 -0.00561325 0)
(0.839422 -0.0534042 0)
(0.835668 -0.0325627 0)
(0.820131 -0.0525673 0)
(0.900606 -0.092445 0)
(0.816486 -0.0332532 0)
(0.848847 -0.0536953 0)
(0.861417 -0.0522764 0)
(0.777452 0.0337994 0)
(0.921094 -0.0279841 0)
(0.988947 -0.213155 0)
(0.953218 -0.239841 0)
(0.95901 -0.20523 0)
(0.956769 -0.188576 0)
(0.862098 -0.182708 0)
(0.721568 -0.142442 0)
(0.555573 -0.0876269 0)
(0.337447 -0.191442 0)
(0.402778 -0.195071 0)
(0.44737 -0.0458661 0)
(0.439265 0.129656 0)
(0.451026 0.378957 0)
(0.441642 0.428545 0)
(0.548314 0.142322 0)
(0.589582 -0.0234082 0)
(0.476602 -0.0713205 0)
(0.304733 -0.249947 0)
(0.243954 -0.345009 0)
(0.292701 -0.217003 0)
(0.281979 -0.0779913 0)
(0.363116 0.101477 0)
(0.490709 0.26266 0)
(0.528253 0.273708 0)
(0.612596 0.177016 0)
(0.668217 0.0699233 0)
(0.701599 -0.048699 0)
(0.709093 -0.0604379 0)
(0.649885 0.0226982 0)
(0.658768 0.0679499 0)
(0.563574 0.151504 0)
(0.527295 0.15561 0)
(0.606853 0.0469606 0)
(0.557079 0.00408772 0)
(0.592158 -0.0858183 0)
(0.657489 -0.194854 0)
(0.601437 -0.202338 0)
(0.460972 -0.169695 0)
(0.387759 -0.132804 0)
(0.365896 -0.0882048 0)
(0.344234 -0.0426966 0)
(0.352198 0.0224722 0)
(0.401849 0.0928048 0)
(0.454018 0.145 0)
(0.48548 0.159317 0)
(0.51942 0.134446 0)
(0.52644 0.0941772 0)
(0.535953 0.0249384 0)
(0.558117 -0.0630088 0)
(0.522734 -0.121976 0)
(0.462796 -0.129257 0)
(0.424793 -0.0996605 0)
(0.40176 -0.0490613 0)
(0.414756 0.026309 0)
(0.443698 0.0939336 0)
(0.459937 0.10636 0)
(0.476591 0.0570915 0)
(0.493092 -0.0120935 0)
(0.485641 -0.0537218 0)
(0.467942 -0.0485562 0)
(0.467136 -0.00732471 0)
(0.480474 0.0373776 0)
(0.489417 0.0583698 0)
(0.497077 0.0458542 0)
(0.509546 0.0110529 0)
(0.517506 -0.0203143 0)
(0.516164 -0.0311066 0)
(0.508537 -0.0240903 0)
(0.498794 -0.011277 0)
(0.489712 -0.0012314 0)
(0.482404 0.00369924 0)
(0.476754 0.00475458 0)
(0.472162 0.00394898 0)
(0.467976 0.00275878 0)
(0.463807 0.00189204 0)
(0.459355 0.00150969 0)
(0.45474 0.00147082 0)
(0.449898 0.00156154 0)
(0.445434 0.00160414 0)
(0.441034 0.00150714 0)
(0.437749 0.0013134 0)
(0.434339 0.000985707 0)
(0.432714 0.000772614 0)
(0.430027 0.000386525 0)
(0.777979 -0.00739344 0)
(0.884374 -0.0317913 0)
(0.770205 -0.00205187 0)
(0.868155 -0.0309793 0)
(0.813396 0.00849426 0)
(0.832046 -0.0350607 0)
(0.889088 -0.0208566 0)
(0.818898 0.00314766 0)
(0.905778 -0.0665453 0)
(0.892245 -0.0353102 0)
(0.880147 -0.0457468 0)
(0.938459 -0.102004 0)
(0.85982 -0.0265966 0)
(0.891268 -0.0473464 0)
(0.889322 -0.0598414 0)
(0.821652 0.0287712 0)
(0.960351 -0.0366368 0)
(0.993811 -0.217891 0)
(0.943182 -0.240238 0)
(0.943603 -0.199812 0)
(0.921078 -0.17787 0)
(0.815076 -0.161271 0)
(0.663178 -0.11096 0)
(0.4872 -0.0595048 0)
(0.284298 -0.185532 0)
(0.349706 -0.203307 0)
(0.410345 -0.0430427 0)
(0.395748 0.131151 0)
(0.416101 0.374409 0)
(0.419532 0.412676 0)
(0.546649 0.133792 0)
(0.578929 -0.0134353 0)
(0.463576 -0.0527488 0)
(0.295425 -0.233098 0)
(0.217775 -0.340906 0)
(0.252359 -0.220595 0)
(0.241656 -0.0813527 0)
(0.310343 0.0898821 0)
(0.441828 0.246256 0)
(0.485719 0.258648 0)
(0.583589 0.165322 0)
(0.646019 0.062769 0)
(0.682953 -0.0495462 0)
(0.690849 -0.0558861 0)
(0.63515 0.0270913 0)
(0.651829 0.072317 0)
(0.564789 0.157621 0)
(0.539005 0.15388 0)
(0.614147 0.0465638 0)
(0.563328 0.00349477 0)
(0.61153 -0.0918129 0)
(0.661993 -0.192621 0)
(0.584599 -0.189313 0)
(0.433349 -0.15529 0)
(0.355898 -0.125282 0)
(0.334362 -0.084551 0)
(0.311701 -0.0410369 0)
(0.318134 0.0194375 0)
(0.367307 0.0860616 0)
(0.42221 0.138127 0)
(0.461921 0.153368 0)
(0.505916 0.130821 0)
(0.517951 0.0929815 0)
(0.531879 0.0237402 0)
(0.554126 -0.0617418 0)
(0.513333 -0.116299 0)
(0.445446 -0.123105 0)
(0.402629 -0.0953168 0)
(0.377713 -0.0470512 0)
(0.388415 0.024517 0)
(0.419155 0.0901077 0)
(0.439793 0.103057 0)
(0.461699 0.0548079 0)
(0.480854 -0.0125423 0)
(0.471842 -0.0521476 0)
(0.451976 -0.0469523 0)
(0.44971 -0.00755419 0)
(0.462788 0.0358671 0)
(0.474162 0.0567374 0)
(0.485991 0.0442699 0)
(0.500635 0.00990739 0)
(0.508401 -0.0205387 0)
(0.505856 -0.0304401 0)
(0.496883 -0.0229815 0)
(0.486214 -0.0101737 0)
(0.476863 -0.000337749 0)
(0.46983 0.00438145 0)
(0.464729 0.00529045 0)
(0.460706 0.00441257 0)
(0.456993 0.00320437 0)
(0.453202 0.00235139 0)
(0.449142 0.0019868 0)
(0.44502 0.00195613 0)
(0.44089 0.00202598 0)
(0.437279 0.00203117 0)
(0.433949 0.00186644 0)
(0.431619 0.00161501 0)
(0.429332 0.0012073 0)
(0.428318 0.000956697 0)
(0.426647 0.000498739 0)
(0.853941 -0.00445689 0)
(0.935562 -0.0361658 0)
(0.844191 0.00204428 0)
(0.921335 -0.0372843 0)
(0.877495 0.0105539 0)
(0.892989 -0.0323003 0)
(0.939701 -0.0321869 0)
(0.878048 0.0106876 0)
(0.954572 -0.0741787 0)
(0.926605 -0.0380431 0)
(0.923787 -0.0384988 0)
(0.961465 -0.107769 0)
(0.883768 -0.0213207 0)
(0.920254 -0.0399049 0)
(0.901944 -0.0654047 0)
(0.845275 0.0229264 0)
(0.977548 -0.0433291 0)
(0.981599 -0.218048 0)
(0.920035 -0.238379 0)
(0.913514 -0.192821 0)
(0.869258 -0.164551 0)
(0.75362 -0.137811 0)
(0.595319 -0.0780513 0)
(0.41244 -0.032473 0)
(0.236392 -0.181393 0)
(0.289135 -0.212424 0)
(0.365317 -0.0410278 0)
(0.34983 0.132697 0)
(0.377924 0.367786 0)
(0.395021 0.393322 0)
(0.542686 0.124576 0)
(0.565249 -0.00254919 0)
(0.448711 -0.0341661 0)
(0.289166 -0.215581 0)
(0.189083 -0.333743 0)
(0.208703 -0.223203 0)
(0.202071 -0.0843426 0)
(0.258755 0.078832 0)
(0.389924 0.229491 0)
(0.439506 0.242222 0)
(0.546212 0.152179 0)
(0.616091 0.0542168 0)
(0.657177 -0.0505975 0)
(0.664165 -0.0511367 0)
(0.613125 0.0304345 0)
(0.638321 0.0756873 0)
(0.559622 0.162404 0)
(0.547763 0.151058 0)
(0.616412 0.0467184 0)
(0.56844 0.0020275 0)
(0.628313 -0.0976228 0)
(0.660314 -0.187736 0)
(0.561767 -0.173968 0)
(0.402528 -0.140003 0)
(0.32237 -0.117622 0)
(0.301669 -0.0808985 0)
(0.278632 -0.0392754 0)
(0.283378 0.0165344 0)
(0.331649 0.0792381 0)
(0.388337 0.130581 0)
(0.435771 0.146234 0)
(0.489238 0.126219 0)
(0.505876 0.091058 0)
(0.525158 0.0221801 0)
(0.5472 -0.06011 0)
(0.50084 -0.109751 0)
(0.425602 -0.116123 0)
(0.378131 -0.0905776 0)
(0.351891 -0.0448305 0)
(0.36074 0.0227749 0)
(0.39275 0.0859611 0)
(0.417245 0.0991009 0)
(0.444764 0.0519854 0)
(0.466393 -0.0130589 0)
(0.455465 -0.0502972 0)
(0.433228 -0.0450807 0)
(0.429499 -0.00767818 0)
(0.44223 0.0342292 0)
(0.456103 0.05469 0)
(0.471966 0.0422832 0)
(0.488534 0.00861433 0)
(0.496256 -0.020679 0)
(0.492571 -0.0296088 0)
(0.482243 -0.0217378 0)
(0.470717 -0.0090124 0)
(0.46122 0.000541077 0)
(0.45458 0.00500791 0)
(0.45011 0.00575904 0)
(0.446713 0.00481591 0)
(0.443532 0.00360065 0)
(0.440216 0.00276396 0)
(0.436708 0.00240791 0)
(0.433293 0.00236558 0)
(0.430118 0.00239414 0)
(0.427592 0.00234355 0)
(0.425525 0.00210807 0)
(0.424289 0.00179912 0)
(0.423207 0.00133272 0)
(0.422847 0.00105272 0)
(0.422202 0.000556366 0)
(0.91478 -0.00183657 0)
(0.968381 -0.0379019 0)
(0.899001 0.00443388 0)
(0.960266 -0.0410461 0)
(0.917775 0.0105035 0)
(0.941112 -0.0289025 0)
(0.966438 -0.0409427 0)
(0.918622 0.0156881 0)
(0.984809 -0.0768785 0)
(0.940829 -0.0401756 0)
(0.952203 -0.0324336 0)
(0.96905 -0.109364 0)
(0.891147 -0.017365 0)
(0.935569 -0.0326936 0)
(0.900248 -0.0675307 0)
(0.850745 0.0165236 0)
(0.975537 -0.0487419 0)
(0.954922 -0.213864 0)
(0.883204 -0.23419 0)
(0.865114 -0.184349 0)
(0.798668 -0.148838 0)
(0.67792 -0.112941 0)
(0.519098 -0.0448205 0)
(0.334817 -0.00755906 0)
(0.19296 -0.178649 0)
(0.218066 -0.221245 0)
(0.309658 -0.040548 0)
(0.300972 0.133866 0)
(0.336603 0.358917 0)
(0.369392 0.370735 0)
(0.53601 0.114679 0)
(0.548348 0.00893475 0)
(0.432805 -0.0158169 0)
(0.285608 -0.197031 0)
(0.159518 -0.323509 0)
(0.165127 -0.223958 0)
(0.161019 -0.0872989 0)
(0.210165 0.0684025 0)
(0.334464 0.212701 0)
(0.391839 0.224932 0)
(0.500562 0.13791 0)
(0.579394 0.0442408 0)
(0.623711 -0.0517934 0)
(0.628308 -0.0462712 0)
(0.582969 0.0325529 0)
(0.617683 0.0780233 0)
(0.547612 0.165516 0)
(0.553344 0.147091 0)
(0.612959 0.0473016 0)
(0.572946 -0.00041049 0)
(0.641526 -0.102824 0)
(0.651657 -0.180009 0)
(0.533048 -0.156532 0)
(0.369157 -0.124155 0)
(0.287798 -0.109972 0)
(0.267885 -0.0772931 0)
(0.245309 -0.0375122 0)
(0.248358 0.0137635 0)
(0.295144 0.0724228 0)
(0.352599 0.122467 0)
(0.407442 0.137993 0)
(0.469571 0.120729 0)
(0.490364 0.0883721 0)
(0.51606 0.0202334 0)
(0.537437 -0.0580718 0)
(0.485345 -0.102367 0)
(0.403519 -0.108368 0)
(0.35152 -0.0854792 0)
(0.324444 -0.042473 0)
(0.331948 0.0210803 0)
(0.36464 0.0815514 0)
(0.392615 0.0945333 0)
(0.426178 0.0486001 0)
(0.449833 -0.0136127 0)
(0.436619 -0.0481423 0)
(0.411778 -0.0429282 0)
(0.406437 -0.00763823 0)
(0.418827 0.032466 0)
(0.435472 0.0522294 0)
(0.455076 0.039922 0)
(0.473475 0.0071954 0)
(0.481346 -0.0207444 0)
(0.476373 -0.0286098 0)
(0.464531 -0.0203598 0)
(0.45218 -0.00780132 0)
(0.442684 0.0013965 0)
(0.436586 0.00556799 0)
(0.432854 0.00615243 0)
(0.430167 0.0051517 0)
(0.427626 0.00393671 0)
(0.424956 0.00311228 0)
(0.422234 0.00274912 0)
(0.419796 0.00267193 0)
(0.417827 0.00263972 0)
(0.41659 0.00252001 0)
(0.4159 0.00221752 0)
(0.415811 0.00185862 0)
(0.415897 0.00135978 0)
(0.416168 0.00106249 0)
(0.416439 0.000561998 0)
(0.959478 -0.000436894 0)
(0.983855 -0.0371771 0)
(0.937153 0.00488607 0)
(0.98404 -0.0423488 0)
(0.938003 0.00898561 0)
(0.974738 -0.0257204 0)
(0.972092 -0.0455966 0)
(0.942761 0.0170293 0)
(0.996626 -0.0754341 0)
(0.937278 -0.0413474 0)
(0.966704 -0.0286494 0)
(0.960567 -0.106512 0)
(0.884274 -0.0147152 0)
(0.937479 -0.0267368 0)
(0.884268 -0.0660236 0)
(0.840378 0.00971708 0)
(0.957736 -0.0532079 0)
(0.915 -0.205329 0)
(0.829255 -0.226624 0)
(0.793076 -0.173871 0)
(0.706993 -0.13122 0)
(0.588406 -0.0875526 0)
(0.435402 -0.0123644 0)
(0.257879 0.0150058 0)
(0.151677 -0.175209 0)
(0.135803 -0.228782 0)
(0.244139 -0.0426588 0)
(0.248543 0.134189 0)
(0.291527 0.3478 0)
(0.343822 0.345019 0)
(0.526095 0.104284 0)
(0.52777 0.0208519 0)
(0.416481 0.00189795 0)
(0.284467 -0.177391 0)
(0.132822 -0.311143 0)
(0.125852 -0.222268 0)
(0.114894 -0.0893031 0)
(0.161695 0.0590261 0)
(0.274809 0.196142 0)