/*--------------------------------*- C++ -*----------------------------------*\
| =========                 |                                                 |
| \\      /  F ield         | OpenFOAM: The Open Source CFD Toolbox           |
|  \\    /   O peration     | Version:  2.4.0                                 |
|   \\  /    A nd           | Web:      www.OpenFOAM.org                      |
|    \\/     M anipulation  |                                                 |
\*---------------------------------------------------------------------------*/
FoamFile
{
    version     2.0;
    format      ascii;
    class       volScalarField;
    location    "1.74";
    object      p;
}
// * * * * * * * * * * * * * * * * * * * * * * * * * * * * * * * * * * * * * //

dimensions      [0 2 -2 0 0 0 0];

internalField   nonuniform List<scalar> 
4400
(
-22.3309
-22.17
-22.6893
-22.7419
-23.0243
-22.8094
-22.9756
-23.2081
-22.8564
-23.4842
-23.3543
-23.0812
-23.5821
-23.8627
-23.3961
-23.515
-24.4564
-22.4246
-24.1569
-18.9514
-22.372
-22.2069
-22.7146
-22.7591
-23.0611
-22.8066
-22.9553
-23.2175
-22.8508
-23.5015
-23.3481
-23.1043
-23.6122
-23.8866
-23.5037
-23.4567
-24.5088
-22.5712
-24.2888
-19.7989
-22.4724
-22.2323
-22.7325
-22.7476
-22.9811
-22.8124
-22.9478
-23.2438
-22.9109
-23.5094
-23.3441
-23.2438
-23.7116
-23.9375
-23.4349
-23.4989
-24.676
-22.5485
-24.2049
-20.7957
-22.5682
-22.2362
-22.7015
-22.7325
-22.92
-22.8241
-22.9708
-23.2958
-22.9381
-23.5242
-23.3993
-23.4451
-23.8516
-23.9673
-23.6988
-23.7609
-24.651
-22.8084
-24.2139
-21.938
-22.6253
-22.1853
-22.7168
-22.7615
-22.8635
-22.8705
-23.0278
-23.3125
-22.9807
-23.4506
-23.4785
-23.6751
-23.8915
-24.0407
-24.0625
-23.9655
-25.0734
-23.1488
-24.6138
-23.3564
-22.63
-22.1869
-22.727
-22.7966
-22.8337
-22.9174
-23.0966
-23.3573
-23.0079
-23.5412
-23.5236
-23.8158
-23.9462
-24.0943
-24.3677
-24.0787
-24.7183
-23.585
-24.8701
-24.285
-22.6459
-22.196
-22.7215
-22.8359
-22.8007
-22.9674
-23.1999
-23.3882
-23.0535
-23.5551
-23.4791
-23.8992
-24.0107
-24.1042
-24.537
-24.0655
-24.6767
-23.8964
-24.8267
-25.0159
-22.6569
-22.2024
-22.7157
-22.8596
-22.7668
-23.0069
-23.2761
-23.4241
-23.076
-23.5557
-23.4557
-23.8716
-24.0191
-24.1049
-24.5407
-24.0613
-24.6746
-24.1112
-24.6267
-25.472
-22.6731
-22.2096
-22.6966
-22.8638
-22.7385
-23.0232
-23.2893
-23.403
-23.0831
-23.5426
-23.4313
-23.7871
-23.9895
-24.062
-24.4555
-24.0605
-24.6734
-24.2692
-24.4583
-25.8204
-22.6811
-22.2126
-22.665
-22.8678
-22.7147
-23.0137
-23.2295
-23.3606
-23.0937
-23.5076
-23.4273
-23.6773
-23.9286
-24.0099
-24.3326
-24.0617
-24.6095
-24.3889
-24.4145
-26.0811
-22.6858
-22.2152
-22.6288
-22.8778
-22.688
-22.9932
-23.1574
-23.3131
-23.1102
-23.4682
-23.4334
-23.5784
-23.8731
-23.964
-24.2344
-24.0574
-24.5158
-24.505
-24.4545
-26.3046
-22.6878
-22.209
-22.5929
-22.902
-22.6578
-22.9729
-23.1005
-23.2684
-23.1362
-23.4281
-23.4506
-23.5026
-23.8399
-23.9333
-24.157
-24.0576
-24.4257
-24.6285
-24.5394
-26.5084
-22.685
-22.2134
-22.5647
-22.9288
-22.6258
-22.9617
-23.0626
-23.2266
-23.1636
-23.3861
-23.4764
-23.4475
-23.827
-23.8939
-24.0654
-24.0508
-24.3537
-24.7418
-24.6142
-26.6973
-22.6789
-22.204
-22.5364
-22.9664
-22.5985
-22.9569
-23.0469
-23.188
-23.1866
-23.3634
-23.5091
-23.4105
-23.8172
-23.8248
-23.9649
-24.0358
-24.2985
-24.8653
-24.6549
-26.8541
-22.6657
-22.2096
-22.5158
-22.9923
-22.5811
-22.9648
-23.038
-23.1501
-23.2123
-23.3219
-23.5505
-23.3876
-23.8062
-23.7542
-23.901
-24.0535
-24.2868
-25.0071
-24.6956
-26.9857
-22.6491
-22.2038
-22.4955
-23.0328
-22.5649
-22.9737
-23.0295
-23.1033
-23.231
-23.2843
-23.586
-23.3705
-23.7963
-23.7171
-23.8551
-24.0829
-24.2944
-25.1014
-24.7294
-27.0901
-22.625
-22.2028
-22.4835
-23.0587
-22.5448
-22.9687
-23.0131
-23.0673
-23.2551
-23.2463
-23.624
-23.3482
-23.8082
-23.702
-23.8139
-24.0917
-24.2718
-25.1624
-24.7446
-27.1534
-22.6014
-22.1943
-22.4651
-23.0777
-22.4983
-22.9531
-22.9956
-23.0362
-23.2827
-23.2213
-23.637
-23.3416
-23.8491
-23.6871
-23.7809
-24.093
-24.2229
-25.1812
-24.7903
-27.216
-22.5743
-22.1985
-22.4468
-23.0803
-22.4608
-22.9181
-22.9882
-23.015
-23.3022
-23.2065
-23.6697
-23.3283
-23.8974
-23.6845
-23.74
-24.0748
-24.215
-25.1952
-24.7619
-27.2729
-22.5277
-22.1841
-22.4332
-23.0783
-22.4377
-22.9041
-22.9816
-23.0095
-23.3093
-23.2002
-23.6814
-23.3503
-23.9115
-23.6673
-23.7209
-24.0606
-24.2077
-25.2157
-24.7726
-27.2804
-23.6935
-26.9454
-30.6702
-43.1124
-53.0989
-63.274
-57.2264
-55.9212
-55.6394
-45.4094
-35.2559
-29.7123
-24.7988
-18.5111
-11.35
-6.05435
-3.20367
-1.51722
-0.376873
0.30443
0.730162
1.00742
1.19272
1.30791
1.37021
1.40336
1.4124
1.40531
1.39773
1.40347
1.41941
1.43902
1.45465
1.46258
1.46211
1.45444
1.44176
1.42618
1.40909
1.39121
1.37291
1.35434
1.33558
1.31666
1.29759
1.27838
1.25903
1.23955
1.21992
1.20016
1.18026
1.16022
1.14003
1.11971
1.09924
1.07863
1.05787
1.03697
1.01592
0.994718
0.973372
0.951877
0.930233
0.908438
0.886491
0.864392
0.84214
0.819733
0.797171
0.774452
0.751575
0.728539
0.705343
0.681987
0.658467
0.634785
0.610938
0.586927
0.562748
0.5384
0.513886
0.489197
0.464342
0.439307
0.414103
0.38872
0.363158
0.337422
0.311497
0.2854
0.259112
0.23264
0.205988
0.179138
0.152106
0.124882
0.0974624
0.0698552
0.0420507
0.0140491
-24.0913
-27.6772
-31.5971
-42.5016
-51.581
-61.3805
-55.4278
-54.249
-54.0515
-44.6136
-35.5184
-31.218
-26.9612
-20.4311
-12.2383
-6.35483
-3.36938
-1.57025
-0.436995
0.276215
0.715786
0.994957
1.18182
1.29447
1.36395
1.40073
1.41319
1.4091
1.40259
1.40473
1.41983
1.43884
1.45431
1.46235
1.46206
1.45451
1.44185
1.42624
1.40913
1.39124
1.37292
1.35435
1.33558
1.31666
1.29759
1.27838
1.25903
1.23955
1.21992
1.20016
1.18026
1.16022
1.14003
1.11971
1.09924
1.07863
1.05787
1.03697
1.01592
0.994718
0.973372
0.951877
0.930233
0.908437
0.886492
0.864392
0.84214
0.819734
0.79717
0.774453
0.751574
0.728539
0.705344
0.681986
0.658468
0.634785
0.610939
0.586926
0.562748
0.5384
0.513886
0.489197
0.464341
0.439307
0.414103
0.388719
0.363158
0.337423
0.311497
0.285401
0.259112
0.23264
0.205988
0.179137
0.152107
0.124882
0.097462
0.0698555
0.0420507
0.014049
-24.109
-28.3471
-32.2168
-41.1618
-50.0962
-58.8686
-53.5893
-51.8939
-51.7745
-43.6922
-35.7615
-32.8966
-29.5826
-22.6998
-13.293
-6.68895
-3.53134
-1.67231
-0.523313
0.229593
0.687733
0.981463
1.17269
1.29164
1.36092
1.40048
1.41442
1.41024
1.4046
1.41092
1.42566
1.44336
1.45726
1.46417
1.46322
1.45525
1.4423
1.4265
1.40927
1.39131
1.37296
1.35436
1.33559
1.31666
1.29759
1.27838
1.25903
1.23955
1.21992
1.20016
1.18026
1.16022
1.14003
1.11971
1.09924
1.07863
1.05787
1.03697
1.01592
0.994718
0.973373
0.951877
0.930234
0.908438
0.886492
0.864393
0.84214
0.819734
0.79717
0.774453
0.751575
0.72854
0.705344
0.681986
0.658469
0.634785
0.610939
0.586926
0.562749
0.5384
0.513886
0.489197
0.464341
0.439307
0.414103
0.388719
0.363158
0.337423
0.311497
0.285401
0.259112
0.23264
0.205988
0.179137
0.152106
0.124882
0.0974619
0.0698554
0.0420506
0.014049
-24.2161
-28.9206
-32.4853
-39.9335
-48.5332
-55.8994
-51.6696
-49.52
-49.052
-42.6269
-35.8746
-34.5227
-32.6457
-25.3138
-14.4845
-7.0554
-3.67862
-1.74044
-0.546087
0.223964
0.68598
0.973164
1.16338
1.27743
1.35589
1.39889
1.41581
1.41446
1.40946
1.40931
1.4232
1.44064
1.45531
1.46312
1.4628
1.45516
1.44231
1.42653
1.4093
1.39133
1.37297
1.35437
1.33559
1.31666
1.29759
1.27838
1.25903
1.23954
1.21992
1.20016
1.18026
1.16022
1.14003
1.11971
1.09924
1.07863
1.05787
1.03697
1.01592
0.994718
0.973373
0.951877
0.930234
0.908438
0.886492
0.864393
0.84214
0.819734
0.79717
0.774453
0.751575
0.72854
0.705344
0.681987
0.658469
0.634785
0.610939
0.586927
0.562749
0.5384
0.513886
0.489197
0.464342
0.439308
0.414103
0.38872
0.363158
0.337423
0.311497
0.2854
0.259112
0.23264
0.205988
0.179137
0.152106
0.124882
0.0974619
0.0698553
0.0420506
0.0140491
-24.3837
-29.271
-32.7282
-38.926
-46.9452
-52.8801
-49.7939
-47.0925
-45.9645
-41.3071
-35.9434
-36.4306
-35.9783
-28.2879
-15.8546
-7.43587
-3.79867
-1.7994
-0.578424
0.201987
0.667663
0.963912
1.15633
1.28968
1.35652
1.40016
1.41872
1.41755
1.41235
1.41943
1.43206
1.44843
1.46072
1.46648
1.46485
1.45638
1.44299
1.42689
1.40949
1.39142
1.37302
1.35439
1.3356
1.31667
1.29759
1.27838
1.25903
1.23954
1.21992
1.20016
1.18026
1.16022
1.14003
1.11971
1.09924
1.07863
1.05787
1.03697
1.01592
0.994718
0.973373
0.951878
0.930234
0.908438
0.886492
0.864393
0.84214
0.819735
0.797171
0.774453
0.751575
0.72854
0.705344
0.681987
0.658469
0.634786
0.61094
0.586927
0.562749
0.5384
0.513887
0.489198
0.464342
0.439308
0.414103
0.38872
0.363158
0.337423
0.311497
0.2854
0.259112
0.23264
0.205988
0.179137
0.152106
0.124882
0.0974619
0.0698551
0.0420506
0.0140491
-24.6494
-29.4561
-33.0136
-38.0846
-45.3328
-50.2843
-47.9997
-44.6336
-43.0819
-39.8553
-36.0336
-38.8031
-39.7717
-31.491
-17.3696
-7.87081
-3.90641
-1.83091
-0.587261
0.204341
0.684898
0.962647
1.15093
1.27213
1.35054
1.39948
1.42088
1.42141
1.41732
1.41366
1.42782
1.44303
1.45673
1.46438
1.46404
1.45618
1.44299
1.42692
1.40952
1.39145
1.37303
1.3544
1.33561
1.31667
1.29759
1.27838
1.25903
1.23954
1.21992
1.20016
1.18026
1.16022
1.14003
1.11971
1.09924
1.07863
1.05787
1.03697
1.01592
0.994718
0.973373
0.951878
0.930234
0.908438
0.886493
0.864393
0.842141
0.819735
0.797171
0.774454
0.751575
0.72854
0.705345
0.681987
0.658469
0.634786
0.61094
0.586927
0.562749
0.538401
0.513887
0.489198
0.464342
0.439308
0.414103
0.38872
0.363158
0.337423
0.311497
0.2854
0.259112
0.23264
0.205988
0.179137
0.152106
0.124882
0.0974619
0.069855
0.0420506
0.0140491
-24.9618
-29.4989
-33.2308
-37.3431
-43.7746
-48.0562
-46.1979
-42.3899
-40.625
-38.2877
-36.3119
-41.4625
-43.9836
-34.9142
-18.9364
-8.30059
-3.95627
-1.816
-0.573394
0.215669
0.688745
0.961472
1.14878
1.27887
1.35351
1.402
1.42513
1.42675
1.42304
1.42919
1.43988
1.45434
1.46448
1.46887
1.4666
1.45765
1.44378
1.42732
1.40972
1.39154
1.37308
1.35442
1.33562
1.31667
1.29759
1.27838
1.25903
1.23954
1.21992
1.20016
1.18026
1.16022
1.14003
1.11971
1.09924
1.07863
1.05787
1.03697
1.01592
0.994718
0.973373
0.951878
0.930234
0.908439
0.886493
0.864394
0.842141
0.819735
0.797171
0.774454
0.751576
0.728541
0.705345
0.681987
0.658469
0.634786
0.61094
0.586927
0.562749
0.538401
0.513887
0.489198
0.464342
0.439308
0.414103
0.38872
0.363158
0.337423
0.311497
0.2854
0.259112
0.23264
0.205988
0.179137
0.152106
0.124882
0.0974619
0.0698549
0.0420507
0.0140491
-25.279
-29.5333
-33.3457
-36.7147
-42.2344
-46.1722
-44.4237
-40.3198
-38.5877
-36.6645
-36.6938
-44.4361
-48.4122
-38.4774
-20.5555
-8.73109
-3.94937
-1.7639
-0.550481
0.230817
0.7053
0.970286
1.14582
1.26714
1.34799
1.40311
1.42873
1.43098
1.42941
1.43182
1.43932
1.44991
1.4601
1.46635
1.46567
1.45751
1.44386
1.42742
1.40979
1.39159
1.3731
1.35443
1.33562
1.31667
1.29759
1.27838
1.25903
1.23954
1.21992
1.20016
1.18026
1.16022
1.14003
1.11971
1.09924
1.07863
1.05787
1.03697
1.01592
0.994718
0.973373
0.951878
0.930234
0.908439
0.886493
0.864394
0.842141
0.819735
0.797171
0.774454
0.751576
0.728541
0.705345
0.681988
0.658469
0.634786
0.61094
0.586927
0.562749
0.538401
0.513887
0.489198
0.464342
0.439308
0.414103
0.38872
0.363158
0.337423
0.311497
0.2854
0.259112
0.23264
0.205988
0.179137
0.152106
0.124882
0.0974618
0.0698547
0.0420507
0.0140491
-25.6295
-29.5674
-33.4127
-36.1874
-40.7804
-44.4804
-42.7198
-38.5461
-36.5676
-34.9093
-37.0447
-47.5616
-52.9078
-41.662
-22.0382
-9.13681
-3.91554
-1.6913
-0.514482
0.257559
0.727498
0.968418
1.15113
1.2759
1.35091
1.40669
1.43171
1.43283
1.43106
1.43623
1.44687
1.45811
1.46604
1.47008
1.46797
1.45887
1.44455
1.42773
1.40993
1.39165
1.37313
1.35445
1.33563
1.31668
1.29759
1.27838
1.25903
1.23954
1.21992
1.20016
1.18026
1.16022
1.14003
1.11971
1.09924
1.07863
1.05787
1.03697
1.01592
0.994719
0.973373
0.951878
0.930234
0.908439
0.886493
0.864394
0.842141
0.819735
0.797172
0.774454
0.751576
0.728541
0.705345
0.681988
0.658469
0.634787
0.61094
0.586928
0.56275
0.538401
0.513887
0.489198
0.464342
0.439308
0.414104
0.38872
0.363158
0.337423
0.311497
0.2854
0.259112
0.232639
0.205988
0.179137
0.152106
0.124882
0.0974618
0.0698546
0.0420507
0.0140492
-25.9778
-29.5976
-33.426
-35.7693
-39.4954
-42.92
-41.109
-36.8867
-34.5238
-32.9369
-37.2628
-50.7885
-57.2208
-44.577
-23.4183
-9.51005
-3.79864
-1.55742
-0.465083
0.283807
0.753071
0.995364
1.15302
1.26646
1.34687
1.40907
1.43937
1.44066
1.4395
1.44341
1.44935
1.45546
1.46302
1.46855
1.46788
1.45928
1.44503
1.42809
1.41015
1.39176
1.37318
1.35447
1.33564
1.31668
1.2976
1.27838
1.25903
1.23954
1.21992
1.20016
1.18026
1.16022
1.14003
1.11971
1.09924
1.07863
1.05787
1.03697
1.01592
0.994719
0.973373
0.951878
0.930235
0.908439
0.886493
0.864394
0.842141
0.819735
0.797172
0.774454
0.751576
0.728541
0.705345
0.681988
0.65847
0.634787
0.61094
0.586928
0.56275
0.538401
0.513887
0.489198
0.464343
0.439308
0.414104
0.38872
0.363158
0.337423
0.311497
0.2854
0.259112
0.232639
0.205988
0.179137
0.152105
0.124883
0.0974618
0.0698545
0.0420508
0.0140492
-26.3071
-29.6107
-33.4008
-35.4254
-38.4018
-41.5155
-39.57
-35.2018
-32.4361
-30.8116
-37.2345
-54.044
-61.2183
-47.0121
-24.6002
-9.81119
-3.62576
-1.41477
-0.391033
0.336913
0.787771
1.0047
1.15694
1.27739
1.35169
1.41041
1.43712
1.43706
1.43812
1.44617
1.4552
1.46221
1.46644
1.47008
1.46904
1.45981
1.44512
1.42801
1.41009
1.39174
1.37318
1.35447
1.33564
1.31668
1.2976
1.27838
1.25903
1.23954
1.21992
1.20016
1.18026
1.16022
1.14003
1.11971
1.09924
1.07863
1.05787
1.03697
1.01592
0.994719
0.973373
0.951878
0.930235
0.908439
0.886493
0.864394
0.842142
0.819736
0.797172
0.774454
0.751576
0.728541
0.705345
0.681988
0.65847
0.634787
0.610941
0.586928
0.56275
0.538402
0.513887
0.489198
0.464343
0.439308
0.414104
0.38872
0.363158
0.337423
0.311497
0.2854
0.259112
0.232639
0.205988
0.179137
0.152105
0.124883
0.0974618
0.0698543
0.0420509
0.0140493
-26.6373
-29.59
-33.3351
-35.1368
-37.4724
-40.1665
-38.1042
-33.5304
-30.1389
-28.5489
-36.8049
-57.0175
-64.7726
-48.8267
-25.3963
-10.0201
-3.40139
-1.23225
-0.321259
0.375298
0.825434
1.03375
1.168
1.28036
1.35514
1.41717
1.45031
1.4541
1.45339
1.45574
1.45855
1.45948
1.46563
1.47015
1.47046
1.46159
1.44651
1.42889
1.41056
1.39194
1.37326
1.35451
1.33565
1.31669
1.2976
1.27838
1.25903
1.23954
1.21992
1.20016
1.18026
1.16022
1.14003
1.11971
1.09924
1.07863
1.05787
1.03697
1.01592
0.994719
0.973374
0.951879
0.930235
0.908439
0.886493
0.864394
0.842142
0.819736
0.797172
0.774454
0.751577
0.728541
0.705346
0.681988
0.65847
0.634787
0.610941
0.586928
0.56275
0.538402
0.513888
0.489199
0.464343
0.439308
0.414104
0.38872
0.363158
0.337423
0.311497
0.2854
0.259112
0.232639
0.205988
0.179137
0.152105
0.124883
0.0974617
0.0698542
0.0420509
0.0140493
-26.9416
-29.5078
-33.2526
-34.892
-36.6427
-38.8882
-36.6972
-31.8782
-27.7006
-26.0084
-35.6996
-59.3325
-67.4726
-50.0573
-25.9065
-10.0912
-3.07564
-1.02915
-0.244066
0.438931
0.880148
1.06712
1.18199
1.2863
1.36012
1.42309
1.45614
1.45732
1.45543
1.46024
1.46401
1.46406
1.46572
1.4696
1.46948
1.46043
1.44552
1.42812
1.41017
1.39179
1.37321
1.35449
1.33565
1.31669
1.2976
1.27838
1.25903
1.23954
1.21992
1.20016
1.18026
1.16022
1.14003
1.11971
1.09924
1.07863
1.05787
1.03697
1.01592
0.994719
0.973374
0.951879
0.930235
0.90844
0.886494
0.864395
0.842142
0.819736
0.797172
0.774454
0.751577
0.728541
0.705346
0.681989
0.65847
0.634787
0.610941
0.586928
0.56275
0.538402
0.513888
0.489199
0.464343
0.439308
0.414104
0.38872
0.363158
0.337423
0.311497
0.2854
0.259113
0.232639
0.205988
0.179137
0.152105
0.124883
0.0974617
0.069854
0.042051
0.0140493
-27.23
-29.3599
-33.1475
-34.6985
-35.9543
-37.6747
-35.4051
-30.2702
-25.2629
-23.221
-33.8521
-60.6741
-69.3551
-50.618
-26.0951
-10.0338
-2.6884
-0.808791
-0.15798
0.496208
0.930676
1.10403
1.19194
1.28424
1.3628
1.42844
1.46427
1.46839
1.46452
1.46593
1.46495
1.46017
1.4618
1.4701
1.47291
1.4642
1.44815
1.42971
1.41103
1.39214
1.37334
1.35454
1.33566
1.31669
1.2976
1.27838
1.25903
1.23954
1.21992
1.20016
1.18026
1.16022
1.14003
1.11971
1.09924
1.07863
1.05787
1.03697
1.01592
0.994719
0.973374
0.951879
0.930235
0.90844
0.886494
0.864395
0.842142
0.819736
0.797173
0.774454
0.751577
0.728542
0.705346
0.681989
0.65847
0.634787
0.610941
0.586928
0.56275
0.538402
0.513888
0.489199
0.464343
0.439308
0.414104
0.38872
0.363158
0.337423
0.311497
0.2854
0.259113
0.232639
0.205988
0.179137
0.152105
0.124883
0.0974616
0.0698539
0.0420511
0.0140494
-27.4676
-29.2293
-33.0413
-34.5174
-35.4159
-36.6098
-34.2346
-28.7088
-22.9117
-20.283
-31.3909
-60.9808
-70.1472
-50.5599
-25.9831
-9.89382
-2.31435
-0.621445
-0.079486
0.564468
0.977942
1.12478
1.20498
1.29422
1.36877
1.43322
1.46804
1.47101
1.46631
1.46842
1.47216
1.46761
1.46497
1.46892
1.46875
1.46017
1.44551
1.42837
1.41025
1.39181
1.37324
1.35451
1.33566
1.31669
1.2976
1.27838
1.25903
1.23954
1.21992
1.20016
1.18026
1.16022
1.14003
1.11971
1.09924
1.07863
1.05787
1.03697
1.01592
0.994719
0.973374
0.951879
0.930235
0.90844
0.886494
0.864395
0.842142
0.819736
0.797173
0.774455
0.751577
0.728542
0.705346
0.681989
0.65847
0.634788
0.610941
0.586929
0.56275
0.538402
0.513888
0.489199
0.464343
0.439308
0.414104
0.38872
0.363158
0.337423
0.311497
0.2854
0.259113
0.232639
0.205988
0.179137
0.152104
0.124883
0.0974615
0.0698538
0.0420512
0.0140494
-27.6639
-29.1195
-32.9343
-34.3625
-34.9649
-35.7202
-33.2113
-27.1281
-20.6701
-17.3438
-28.6215
-60.3919
-69.6635
-49.9539
-25.6567
-9.64365
-1.96774
-0.457541
-0.00658116
0.637709
1.03822
1.16099
1.21552
1.28884
1.37036
1.4407
1.47993
1.48096
1.4723
1.4708
1.46886
1.46516
1.4662
1.47229
1.47334
1.46429
1.44842
1.43018
1.41117
1.39242
1.37341
1.35457
1.33568
1.31669
1.2976
1.27838
1.25903
1.23954
1.21992
1.20016
1.18026
1.16022
1.14003
1.11971
1.09924
1.07863
1.05787
1.03697
1.01592
0.994719
0.973374
0.951879
0.930235
0.90844
0.886494
0.864395
0.842142
0.819736
0.797173
0.774455
0.751577
0.728542
0.705346
0.681989
0.65847
0.634788
0.610941
0.586929
0.56275
0.538402
0.513888
0.489199
0.464343
0.439308
0.414104
0.388721
0.363158
0.337423
0.311497
0.2854
0.259113
0.232638
0.205988
0.179137
0.152104
0.124883
0.0974614
0.0698536
0.0420514
0.0140495
-27.8616
-29.0597
-32.8115
-34.2303
-34.5696
-35.0094
-32.3687
-25.5185
-18.5316
-14.7358
-25.9841
-59.1589
-68.9679
-48.9068
-25.2016
-9.38798
-1.67289
-0.339806
0.0573131
0.71545
1.09009
1.18883
1.23457
1.30628
1.38069
1.44873
1.48618
1.48768
1.47991
1.48017
1.47795
1.47117
1.46788
1.46999
1.46917
1.46043
1.44574
1.42844
1.4102
1.39171
1.37324
1.35452
1.33566
1.31669
1.2976
1.27838
1.25903
1.23954
1.21992
1.20016
1.18026
1.16022
1.14003
1.11971
1.09924
1.07863
1.05787
1.03697
1.01592
0.994719
0.973374
0.951879
0.930235
0.90844
0.886494
0.864395
0.842142
0.819736
0.797173
0.774455
0.751577
0.728542
0.705346
0.681989
0.65847
0.634788
0.610941
0.586929
0.56275
0.538402
0.513888
0.489199
0.464343
0.439308
0.414104
0.388721
0.363158
0.337423
0.311496
0.2854
0.259113
0.232638
0.205989
0.179137
0.152104
0.124884
0.0974613
0.0698535
0.0420515
0.0140495
-28.0196
-29.0284
-32.7154
-34.1482
-34.1937
-34.4811
-31.6148
-24.0663
-16.5805
-12.8508
-23.8225
-57.5221
-67.3799
-47.6754
-24.7458
-9.18118
-1.47891
-0.2771
0.10327
0.78018
1.13173
1.21401
1.23989
1.30308
1.38493
1.4554
1.49305
1.49369
1.4822
1.47612
1.47288
1.47108
1.46998
1.47435
1.47407
1.46465
1.44878
1.43044
1.41141
1.39246
1.3735
1.3546
1.33569
1.3167
1.2976
1.27838
1.25903
1.23954
1.21992
1.20016
1.18026
1.16022
1.14003
1.11971
1.09924
1.07863
1.05787
1.03697
1.01592
0.994719
0.973374
0.951879
0.930235
0.90844
0.886494
0.864395
0.842142
0.819736
0.797173
0.774455
0.751577
0.728542
0.705346
0.681989
0.65847
0.634788
0.610941
0.586929
0.56275
0.538402
0.513888
0.489199
0.464343
0.439308
0.414104
0.388721
0.363158
0.337424
0.311496
0.2854
0.259113
0.232638
0.205989
0.179137
0.152104
0.124884
0.0974612
0.0698534
0.0420516
0.0140495
-28.1526
-28.9904
-32.6256
-34.1152
-33.9144
-34.1213
-30.9701
-22.8026
-15.0641
-11.9219
-22.602
-56.1333
-65.6464
-46.3251
-24.5017
-9.07314
-1.36905
-0.255538
0.136128
0.824254
1.14952
1.2257
1.25415
1.31703
1.39506
1.4623
1.49767
1.49775
1.48789
1.48444
1.48026
1.47322
1.4701
1.47167
1.47025
1.46114
1.44618
1.4287
1.41036
1.39185
1.37327
1.35452
1.33566
1.31669
1.29759
1.27837
1.25902
1.23954
1.21992
1.20016
1.18026
1.16022
1.14003
1.11971
1.09924
1.07863
1.05787
1.03697
1.01592
0.994719
0.973374
0.951879
0.930235
0.90844
0.886494
0.864395
0.842142
0.819736
0.797173
0.774455
0.751577
0.728542
0.705346
0.681989
0.65847
0.634788
0.610941
0.586929
0.56275
0.538402
0.513888
0.489199
0.464343
0.439308
0.414104
0.388721
0.363158
0.337424
0.311496
0.2854
0.259113
0.232638
0.205989
0.179137
0.152104
0.124884
0.0974611
0.0698534
0.0420518
0.0140496
-28.1857
-28.9775
-32.5844
-34.0806
-33.771
-33.9409
-30.4979
-22.1366
-14.4512
-11.8209
-22.2153
-54.9927
-64.751
-45.6776
-24.4445
-9.07166
-1.36982
-0.257015
0.152684
0.842866
1.1546
1.23076
1.25533
1.31612
1.39537
1.46346
1.49903
1.49891
1.48734
1.48127
1.47736
1.4735
1.47186
1.47488
1.47391
1.46438
1.4486
1.4303
1.41132
1.39238
1.37349
1.3546
1.33569
1.3167
1.2976
1.27838
1.25903
1.23954
1.21992
1.20016
1.18026
1.16022
1.14003
1.11971
1.09924
1.07863
1.05787
1.03697
1.01592
0.994719
0.973374
0.951879
0.930235
0.90844
0.886494
0.864395
0.842142
0.819736
0.797173
0.774455
0.751577
0.728542
0.705346
0.681989
0.65847
0.634788
0.610941
0.586929
0.56275
0.538402
0.513888
0.489199
0.464343
0.439308
0.414104
0.388721
0.363158
0.337424
0.311496
0.2854
0.259113
0.232638
0.205989
0.179137
0.152104
0.124884
0.0974611
0.0698533
0.0420518
0.0140496
-21.6408
-23.4939
-29.9122
-43.8991
-56.7616
-64.2822
-63.7616
-61.769
-55.0397
-40.8254
-24.6132
-16.2358
-7.83676
-3.98137
-2.13706
-0.0499759
0.46223
1.01059
1.25841
1.3964
1.4932
1.55361
1.56686
1.5414
1.49899
1.45752
1.42539
1.40574
1.40036
1.40909
1.42756
1.44769
1.46223
1.4679
1.46506
1.45577
1.44231
1.42642
1.40921
1.39129
1.37297
1.35439
1.33562
1.31668
1.29761
1.27839
1.25904
1.23955
1.21993
1.20016
1.18026
1.16022
1.14004
1.11971
1.09924
1.07863
1.05787
1.03697
1.01592
0.994719
0.973374
0.951879
0.930235
0.90844
0.886494
0.864395
0.842143
0.819736
0.797174
0.774454
0.751578
0.728542
0.705346
0.68199
0.658469
0.634789
0.610941
0.58693
0.56275
0.538403
0.513888
0.489199
0.464344
0.439308
0.414104
0.388721
0.363158
0.337424
0.311497
0.2854
0.259113
0.232638
0.205988
0.179137
0.152104
0.124884
0.0974612
0.069853
0.0420519
0.0140495
-21.8062
-23.4134
-30.0862
-44.3708
-57.1983
-64.5957
-64.0093
-61.8665
-55.3287
-41.1267
-24.7668
-16.2625
-7.9361
-4.01012
-2.20617
-0.0896534
0.440216
0.991449
1.24523
1.38769
1.4885
1.55148
1.56592
1.54107
1.4988
1.45756
1.42545
1.40574
1.4003
1.40904
1.42751
1.44763
1.46217
1.46785
1.46501
1.45575
1.4423
1.42643
1.40922
1.3913
1.37298
1.35439
1.33562
1.31669
1.29761
1.27839
1.25904
1.23955
1.21993
1.20016
1.18026
1.16022
1.14004
1.11971
1.09924
1.07863
1.05787
1.03697
1.01592
0.994719
0.973374
0.951879
0.930235
0.90844
0.886494
0.864395
0.842143
0.819735
0.797174
0.774454
0.751578
0.728542
0.705346
0.68199
0.658469
0.634789
0.610941
0.58693
0.56275
0.538403
0.513888
0.489199
0.464344
0.439308
0.414104
0.388721
0.363158
0.337424
0.311497
0.2854
0.259113
0.232638
0.205989
0.179137
0.152104
0.124884
0.0974612
0.0698531
0.0420519
0.0140495
-21.6241
-23.762
-31.0431
-45.3231
-57.8306
-65.2277
-64.3442
-62.2725
-55.7967
-41.6049
-25.0807
-16.3302
-8.10353
-4.08812
-2.3352
-0.169007
0.396295
0.951964
1.21498
1.3661
1.47565
1.54507
1.56307
1.5396
1.49753
1.45612
1.4242
1.405
1.39991
1.40906
1.4278
1.448
1.46249
1.46805
1.46511
1.45577
1.44229
1.4264
1.40919
1.39128
1.37296
1.35438
1.33561
1.31668
1.29761
1.27839
1.25904
1.23955
1.21993
1.20016
1.18026
1.16022
1.14004
1.11971
1.09924
1.07863
1.05787
1.03697
1.01592
0.994719
0.973373
0.951879
0.930235
0.90844
0.886494
0.864395
0.842143
0.819735
0.797174
0.774454
0.751578
0.728542
0.705346
0.68199
0.658469
0.634789
0.61094
0.58693
0.56275
0.538403
0.513888
0.489199
0.464344
0.439308
0.414104
0.388721
0.363158
0.337423
0.311497
0.2854
0.259113
0.232638
0.205988
0.179137
0.152104
0.124884
0.0974614
0.0698531
0.0420517
0.0140495
-21.8874
-23.4256
-31.662
-46.4415
-58.6163
-65.9882
-64.8684
-62.6942
-56.2967
-42.0568
-25.5532
-16.4618
-8.34285
-4.22379
-2.49932
-0.299481
0.332645
0.894304
1.1696
1.33188
1.45379
1.53374
1.55822
1.53765
1.49652
1.45559
1.42345
1.40405
1.39888
1.40803
1.42695
1.44738
1.46203
1.4677
1.46484
1.45556
1.44213
1.42629
1.40912
1.39124
1.37294
1.35437
1.3356
1.31668
1.2976
1.27839
1.25904
1.23955
1.21993
1.20016
1.18026
1.16022
1.14004
1.11971
1.09924
1.07863
1.05787
1.03697
1.01592
0.994719
0.973373
0.951879
0.930235
0.90844
0.886494
0.864395
0.842143
0.819735
0.797174
0.774454
0.751578
0.728542
0.705346
0.68199
0.658469
0.634789
0.61094
0.58693
0.56275
0.538403
0.513888
0.489199
0.464344
0.439308
0.414104
0.388721
0.363158
0.337423
0.311497
0.2854
0.259113
0.232638
0.205988
0.179137
0.152104
0.124883
0.0974615
0.0698532
0.0420516
0.0140495
-22.1221
-24.0691
-32.4898
-47.7785
-59.4158
-66.8996
-65.3609
-63.2284
-56.9536
-42.5797
-26.0972
-16.672
-8.64195
-4.41584
-2.7028
-0.477149
0.252057
0.820776
1.11108
1.28695
1.42285
1.51575
1.5494
1.53359
1.49449
1.45391
1.42208
1.40251
1.39712
1.4063
1.42553
1.44639
1.46142
1.46734
1.46462
1.45542
1.44204
1.42623
1.40908
1.39121
1.37292
1.35436
1.3356
1.31667
1.2976
1.27839
1.25904
1.23955
1.21993
1.20016
1.18026
1.16022
1.14004
1.11971
1.09924
1.07863
1.05787
1.03697
1.01592
0.994719
0.973373
0.951879
0.930235
0.90844
0.886493
0.864395
0.842143
0.819735
0.797174
0.774454
0.751578
0.728542
0.705346
0.68199
0.658469
0.634789
0.61094
0.58693
0.56275
0.538403
0.513888
0.489199
0.464343
0.439308
0.414104
0.388721
0.363158
0.337423
0.311497
0.2854
0.259113
0.232638
0.205988
0.179137
0.152104
0.124883
0.0974616
0.0698533
0.0420515
0.0140494
-22.5003
-24.717
-33.4368
-48.8595
-60.2637
-67.8452
-65.8646
-63.914
-57.8139
-43.1222
-26.6389
-16.934
-8.99206
-4.67441
-2.95703
-0.707045
0.15175
0.734183
1.04229
1.23385
1.38455
1.49159
1.53649
1.52729
1.4918
1.45275
1.4215
1.4016
1.39562
1.40449
1.42385
1.44511
1.46055
1.46679
1.46428
1.4552
1.4419
1.42613
1.40902
1.39117
1.37289
1.35434
1.33559
1.31667
1.2976
1.27839
1.25904
1.23955
1.21993
1.20016
1.18026
1.16022
1.14004
1.11971
1.09924
1.07863
1.05787
1.03697
1.01592
0.994719
0.973373
0.951879
0.930235
0.90844
0.886493
0.864395
0.842143
0.819735
0.797174
0.774454
0.751578
0.728542
0.705345
0.68199
0.658469
0.634788
0.61094
0.586929
0.56275
0.538403
0.513888
0.489199
0.464343
0.439308
0.414104
0.388721
0.363158
0.337423
0.311497
0.2854
0.259113
0.232639
0.205988
0.179137
0.152104
0.124883
0.0974617
0.0698534
0.0420513
0.0140494
-22.8941
-25.1181
-34.4137
-49.9235
-61.1202
-68.8892
-66.3754
-64.3955
-58.6182
-43.7365
-27.2037
-17.2196
-9.36266
-5.0482
-3.27337
-0.988974
0.0243722
0.63292
0.963912
1.17485
1.34106
1.46221
1.51934
1.51835
1.4875
1.45126
1.4213
1.40121
1.39437
1.4026
1.42193
1.44355
1.45947
1.46611
1.46388
1.45497
1.44176
1.42605
1.40897
1.39114
1.37288
1.35433
1.33558
1.31667
1.2976
1.27839
1.25904
1.23955
1.21993
1.20016
1.18026
1.16022
1.14004
1.11971
1.09924
1.07863
1.05787
1.03697
1.01592
0.994719
0.973373
0.951879
0.930234
0.90844
0.886493
0.864395
0.842142
0.819735
0.797174
0.774454
0.751577
0.728541
0.705345
0.681989
0.658469
0.634788
0.61094
0.586929
0.56275
0.538403
0.513887
0.489199
0.464343
0.439308
0.414104
0.388721
0.363158
0.337423
0.311497
0.2854
0.259113
0.232639
0.205988
0.179137
0.152104
0.124883
0.0974618
0.0698536
0.0420512
0.0140493
-23.2901
-25.8594
-35.1263
-50.891
-61.848
-70.0913
-66.9215
-64.7274
-59.3769
-44.4427
-27.8452
-17.5589
-9.76449
-5.50262
-3.61437
-1.3124
-0.133206
0.517666
0.876625
1.11078
1.29393
1.42905
1.4986
1.5069
1.48184
1.44933
1.42136
1.40141
1.39366
1.40102
1.42009
1.44198
1.45834
1.4654
1.46346
1.45474
1.44163
1.42598
1.40893
1.39111
1.37286
1.35432
1.33558
1.31666
1.2976
1.27839
1.25904
1.23955
1.21993
1.20016
1.18026
1.16022
1.14004
1.11971
1.09924
1.07863
1.05787
1.03697
1.01592
0.994719
0.973373
0.951879
0.930234
0.90844
0.886493
0.864395
0.842142
0.819735
0.797174
0.774453
0.751577
0.728541
0.705345
0.681989
0.658469
0.634788
0.61094
0.586929
0.562749
0.538403
0.513887
0.489199
0.464343
0.439308
0.414104
0.388721
0.363158
0.337423
0.311497
0.2854
0.259113
0.232639
0.205988
0.179138
0.152104
0.124883
0.0974619
0.0698537
0.0420511
0.0140493
-23.7439
-26.4541
-35.7996
-51.5124
-62.6749
-71.3238
-67.35
-64.9607
-60.089
-45.2073
-28.5255
-17.9387
-10.2322
-5.96584
-3.98347
-1.67194
-0.318922
0.389713
0.781915
1.04278
1.24433
1.39328
1.47502
1.49317
1.47489
1.44686
1.42139
1.40192
1.39331
1.3997
1.41838
1.44043
1.4572
1.46465
1.46302
1.45449
1.4415
1.4259
1.40889
1.39109
1.37285
1.35431
1.33557
1.31666
1.29759
1.27838
1.25904
1.23955
1.21993
1.20016
1.18026
1.16022
1.14003
1.11971
1.09924
1.07863
1.05787
1.03697
1.01592
0.994719
0.973373
0.951879
0.930234
0.90844
0.886493
0.864394
0.842142
0.819735
0.797173
0.774453
0.751577
0.728541
0.705345
0.681989
0.658469
0.634788
0.61094
0.586929
0.562749
0.538403
0.513887
0.489199
0.464343
0.439308
0.414104
0.38872
0.363158
0.337423
0.311497
0.2854
0.259113
0.232639
0.205987
0.179138
0.152105
0.124883
0.097462
0.0698538
0.042051
0.0140493
-24.1055
-26.9154
-36.3131
-52.1114
-63.2172
-72.3348
-67.7151
-65.1303
-60.8026
-45.9094
-29.3056
-18.4211
-10.776
-6.50208
-4.39197
-2.06227
-0.536878
0.248462
0.681215
0.971794
1.19299
1.35579
1.44947
1.47765
1.46684
1.44385
1.4212
1.4024
1.39307
1.39854
1.41681
1.43898
1.45611
1.46394
1.4626
1.45427
1.44138
1.42584
1.40885
1.39107
1.37284
1.35431
1.33557
1.31666
1.29759
1.27838
1.25904
1.23955
1.21993
1.20016
1.18026
1.16022
1.14003
1.11971
1.09924
1.07863
1.05787
1.03697
1.01592
0.994719
0.973373
0.951879
0.930234
0.90844
0.886493
0.864394
0.842142
0.819735
0.797173
0.774453
0.751577
0.728541
0.705345
0.681989
0.658469
0.634788
0.61094
0.586929
0.562749
0.538403
0.513887
0.489199
0.464343
0.439308
0.414104
0.38872
0.363158
0.337423
0.311497
0.2854
0.259113
0.232639
0.205987
0.179138
0.152105