/*--------------------------------*- C++ -*----------------------------------*\
| =========                 |                                                 |
| \\      /  F ield         | OpenFOAM: The Open Source CFD Toolbox           |
|  \\    /   O peration     | Version:  2.4.0                                 |
|   \\  /    A nd           | Web:      www.OpenFOAM.org                      |
|    \\/     M anipulation  |                                                 |
\*---------------------------------------------------------------------------*/
FoamFile
{
    version     2.0;
    format      ascii;
    class       volScalarField;
    location    "1.97";
    object      k_0;
}
// * * * * * * * * * * * * * * * * * * * * * * * * * * * * * * * * * * * * * //

dimensions      [0 2 -2 0 0 0 0];

internalField   nonuniform List<scalar> 
8800
(
8.11166
10.279
8.78236
6.8419
5.68248
5.0034
4.49378
4.18113
3.87287
3.71253
3.49396
3.41738
3.2474
3.20232
3.05647
3.02264
2.89658
2.85798
2.80804
2.64433
1.39092
4.36513
5.30985
5.29385
5.11226
4.8487
4.53558
4.33303
4.07157
3.93476
3.71958
3.63863
3.47307
3.4166
3.29067
3.24691
3.14296
3.10056
3.01259
2.99899
0.083341
0.746452
1.5443
1.96308
2.24846
2.46522
2.55115
2.62157
2.61635
2.61007
2.57849
2.55704
2.51194
2.48167
2.45423
2.41625
2.39524
2.362
2.31087
2.29451
0.00328141
0.0712727
0.246157
0.433206
0.574906
0.711799
0.828087
0.93518
1.02727
1.08958
1.17122
1.20538
1.26762
1.29157
1.34684
1.36163
1.40549
1.41256
1.4289
1.42015
0.000118747
0.00506355
0.0226335
0.0493755
0.0906574
0.12014
0.165356
0.200318
0.250996
0.27617
0.328535
0.351307
0.396502
0.418168
0.466181
0.487108
0.536574
0.556048
0.598915
0.615218
2.53196e-05
0.000323
0.00152477
0.00347539
0.00789097
0.0113691
0.0185034
0.0239437
0.0355376
0.0414466
0.0530904
0.0634536
0.0728334
0.0826437
0.0961717
0.106509
0.118767
0.134425
0.148461
0.168614
2.19785e-05
4.61669e-05
0.000132976
0.000249965
0.000446751
0.000862527
0.00119369
0.00189446
0.00247699
0.00368093
0.00451488
0.00652504
0.0074146
0.00942952
0.0106371
0.0133023
0.0148526
0.018871
0.0212553
0.0291095
2.148e-05
3.15878e-05
5.73906e-05
6.71937e-05
7.38312e-05
0.000114782
0.000143449
0.000200035
0.00021311
0.00026148
0.000302394
0.000471087
0.000528582
0.000712439
0.000772879
0.000981076
0.00106518
0.00146361
0.00175866
0.00330878
2.08564e-05
2.72958e-05
4.69658e-05
6.82122e-05
6.67632e-05
6.49485e-05
7.0084e-05
8.93428e-05
9.23661e-05
8.99558e-05
8.8704e-05
9.42501e-05
0.000100768
0.000117972
0.000120951
0.000132756
0.000135441
0.000153585
0.000170144
0.00027903
2.05876e-05
2.68933e-05
4.56127e-05
6.12635e-05
6.02698e-05
5.78166e-05
5.91987e-05
7.11424e-05
7.87329e-05
7.91277e-05
7.67684e-05
7.48479e-05
7.46454e-05
7.62763e-05
7.70985e-05
8.01297e-05
8.13855e-05
8.15487e-05
8.31562e-05
8.62206e-05
2.06273e-05
2.69379e-05
4.02265e-05
6.06069e-05
6.10436e-05
6.01428e-05
6.08521e-05
7.11127e-05
7.83374e-05
8.00001e-05
7.74869e-05
7.34126e-05
7.23133e-05
7.28674e-05
7.70098e-05
8.25876e-05
8.30503e-05
8.33745e-05
8.4715e-05
9.35868e-05
2.08099e-05
2.81179e-05
4.19145e-05
5.4465e-05
6.9006e-05
7.70769e-05
7.8706e-05
8.0541e-05
8.00472e-05
7.98917e-05
7.99385e-05
8.63119e-05
9.9985e-05
0.000113543
0.000117558
0.000124909
0.000131058
0.000139719
0.000159888
0.000219122
2.10284e-05
3.22724e-05
4.59216e-05
7.37892e-05
8.93856e-05
0.000116807
0.000136048
0.000184079
0.000206939
0.000266557
0.000312142
0.000439788
0.000522079
0.000674855
0.000763764
0.00101513
0.00117618
0.00151627
0.00178843
0.00265856
2.16268e-05
4.29965e-05
0.000116117
0.000349493
0.000523935
0.000909134
0.00124448
0.0020586
0.00254775
0.00384211
0.00460645
0.00646236
0.00747195
0.00968397
0.0109525
0.0141468
0.0158941
0.0199706
0.0225734
0.0303365
2.4971e-05
0.00030532
0.00142584
0.00467373
0.00733923
0.0129863
0.0173209
0.0270595
0.0323251
0.0446711
0.0509559
0.0650492
0.0718193
0.0865554
0.094036
0.112186
0.121071
0.142598
0.154708
0.18872
0.000124098
0.00490581
0.0215949
0.0558809
0.0865942
0.125636
0.159024
0.210642
0.236292
0.290016
0.314236
0.363636
0.385483
0.432339
0.454273
0.506243
0.528613
0.585075
0.61294
0.685922
0.00337546
0.069425
0.257721
0.419086
0.588768
0.699654
0.835781
0.93222
1.01927
1.09888
1.15622
1.21835
1.25564
1.30707
1.33137
1.38213
1.40033
1.45002
1.4713
1.52024
0.0846892
0.726903
1.56569
1.93932
2.28521
2.42628
2.58263
2.59629
2.62542
2.59836
2.58828
2.54125
2.52474
2.47324
2.46023
2.4183
2.40754
2.37981
2.36932
2.34177
1.40746
4.34645
5.32171
5.28626
5.13268
4.79785
4.58829
4.27215
4.13418
3.86709
3.77876
3.57851
3.52105
3.36758
3.33109
3.20137
3.17436
3.05786
3.02027
2.92011
8.12082
10.2593
8.79811
6.81388
5.71458
4.95985
4.53887
4.12766
3.93014
3.64701
3.55702
3.34797
3.30399
3.13713
3.10844
2.94572
2.91708
2.74335
2.68481
2.47051
1.81573
1.29668
1.01842
0.863394
0.766778
0.709922
0.670885
0.657682
0.644098
0.636778
0.621464
0.602715
0.582446
0.561481
0.540365
0.521686
0.507177
0.494969
0.485545
0.472643
0.464186
0.450347
0.437102
0.422963
0.410811
0.397843
0.388275
0.381589
0.377132
0.376324
0.377777
0.37924
0.38387
0.385159
0.390249
0.390327
0.392666
0.390596
0.390948
0.389599
0.387138
0.386136
0.382248
0.378852
0.373715
0.362458
0.344256
0.323589
0.296982
0.270678
0.247321
0.23286
0.222166
0.222653
0.225772
0.232867
0.248285
0.261553
0.281229
0.295841
0.307832
0.318604
0.32858
0.327405
0.324506
0.311146
0.300415
0.272862
0.260801
0.235786
0.226055
0.212253
0.20818
0.206136
0.208623
0.214779
0.232058
0.241552
0.265701
0.277109
0.30405
0.311498
0.32693
0.330206
0.336944
0.348457
0.352627
0.375602
0.379845
0.395857
0.39526
0.39986
0.39757
0.381657
0.340982
0.296041
0.267634
0.249484
0.227137
0.210962
0.203921
0.187386
0.177995
0.17463
0.166904
0.163126
0.163064
0.162327
0.162215
0.166035
0.166858
0.16977
0.172057
0.177502
0.177786
0.180156
0.180387
0.178783
0.177241
0.171742
0.165511
0.152369
0.137572
0.113646
0.0891966
0.0568316
0.0353927
0.0224263
0.0169143
0.0140054
0.0140643
0.0152599
0.0163378
0.0170981
0.019782
0.0196136
0.0197997
0.0200486
0.0193174
0.0187785
0.0182726
0.0182327
0.0178191
0.0179397
0.0194582
0.0207139
0.0236355
0.0293867
0.0483341
0.108091
0.181875
0.214574
0.219084
0.210819
0.19511
0.165276
0.146655
0.134513
0.135345
0.135631
0.137485
0.139116
0.141319
0.142191
0.139769
0.137632
0.132087
0.128065
0.122569
0.119111
0.117037
0.114145
0.104693
0.104813
0.102962
0.0997093
0.0900136
0.0762161
0.0678515
0.0655011
0.05319
0.0435914
0.0409492
0.0445652
0.0877082
0.119486
0.12458
0.114946
0.0969989
0.0974619
0.096949
0.0833789
0.0759418
0.0790154
0.0783384
0.0776512
0.0651642
0.0610707
0.0795161
0.200973
2.55916
2.10692
1.75836
1.51229
1.32943
1.19767
1.09437
1.0191
0.956251
0.908566
0.866468
0.83249
0.800283
0.774339
0.749843
0.728784
0.709791
0.692908
0.679812
0.666023
0.655005
0.641401
0.631564
0.615903
0.607036
0.591752
0.584177
0.570199
0.563586
0.551607
0.547063
0.538572
0.535741
0.52998
0.527666
0.524417
0.521223
0.519266
0.515638
0.51368
0.510187
0.505885
0.503889
0.498993
0.49689
0.491398
0.486383
0.476328
0.46959
0.455182
0.445683
0.430244
0.422997
0.41197
0.409327
0.402732
0.402593
0.401292
0.404541
0.404167
0.408485
0.408781
0.414756
0.414988
0.420461
0.418423
0.420042
0.414547
0.40971
0.393712
0.382589
0.364371
0.347824
0.337714
0.327489
0.322426
0.322942
0.322877
0.328322
0.330044
0.334418
0.334476
0.330864
0.331631
0.323144
0.321856
0.310469
0.310745
0.306929
0.311497
0.318479
0.332589
0.361709
0.380415
0.384204
0.385349
0.371609
0.353876
0.31206
0.271933
0.24863
0.229876
0.208619
0.202319
0.194524
0.185976
0.18593
0.184167
0.184034
0.183924
0.186113
0.185237
0.186847
0.185812
0.18256
0.181135
0.17706
0.170683
0.157722
0.144635
0.123364
0.097614
0.0685193
0.0440187
0.0279704
0.0189299
0.0137041
0.0118482
0.0118155
0.0120141
0.0133571
0.0153389
0.0163097
0.0188569
0.0204412
0.0213285
0.023579
0.0244125
0.0240326
0.0244266
0.0239924
0.0240758
0.0238811
0.0247288
0.0261841
0.0280248
0.0326838
0.0473194
0.112538
0.201227
0.225954
0.229674
0.217904
0.179426
0.146866
0.130126
0.121816
0.113222
0.114166
0.112965
0.119102
0.127525
0.140132
0.142335
0.141821
0.139242
0.132669
0.129117
0.128398
0.131043
0.131193
0.129991
0.121244
0.116965
0.117486
0.115368
0.101894
0.0882063
0.0768281
0.0707911
0.0573973
0.0449366
0.0430243
0.0444479
0.0766452
0.118362
0.123666
0.115937
0.101752
0.0909807
0.0920908
0.0797458
0.0713627
0.0729672
0.0743747
0.0760774
0.0653525
0.061727
0.0571552
0.104782
2.08397
1.85699
1.64224
1.46573
1.32019
1.20813
1.11348
1.04275
0.97784
0.930181
0.88091
0.845358
0.806344
0.778196
0.748308
0.724535
0.703695
0.683171
0.669711
0.652259
0.643716
0.628473
0.621422
0.608437
0.600888
0.589538
0.581408
0.572166
0.562505
0.55615
0.546173
0.541527
0.534583
0.53019
0.526486
0.522017
0.5205
0.515916
0.513987
0.509751
0.508063
0.503405
0.501754
0.497968
0.496477
0.493109
0.490701
0.486014
0.482825
0.476331
0.470688
0.462196
0.45739
0.446892
0.442484
0.432942
0.428953
0.422203
0.419518
0.415555
0.414248
0.414325
0.415298
0.417155
0.421251
0.423267
0.428067
0.433719
0.434158
0.435784
0.431712
0.430729
0.421773
0.417387
0.405641
0.399276
0.387923
0.382215
0.370976
0.365606
0.351229
0.34524
0.327211
0.320075
0.299138
0.290464
0.269369
0.260983
0.244928
0.235074
0.225134
0.223456
0.223389
0.23338
0.240578
0.26572
0.289746
0.307851
0.312296
0.311158
0.304022
0.300324
0.285114
0.276454
0.262725
0.247069
0.234149
0.228783
0.218939
0.210242
0.206326
0.197374
0.1924
0.182471
0.171531
0.159887
0.141061
0.115388
0.0919791
0.0637134
0.0421568
0.0276137
0.0184915
0.0132012
0.0105947
0.00951283
0.00948825
0.0103042
0.0111915
0.0124376
0.016467
0.0181932
0.0213906
0.025235
0.0264185
0.0292182
0.0316424
0.0319814
0.0325171
0.032504
0.0316081
0.0323553
0.0317862
0.0326081
0.0341575
0.0366161
0.0464454
0.0941262
0.226881
0.241892
0.237908
0.224496
0.166599
0.135783
0.121987
0.11718
0.109982
0.105711
0.105486
0.106102
0.112331
0.119156
0.121256
0.122315
0.129031
0.131814
0.131465
0.128147
0.12825
0.131005
0.142094
0.144727
0.14557
0.137174
0.129339
0.113555
0.102108
0.091192
0.0802016
0.0703962
0.0604439
0.0465514
0.0429984
0.0446685
0.0669822
0.113868
0.125786
0.116003
0.110268
0.0918699
0.0841712
0.0743883
0.0684606
0.069101
0.0711557
0.0716942
0.0639785
0.0583162
0.0585466
0.072903
1.33386
1.24285
1.14383
1.05843
0.97382
0.910301
0.847612
0.803292
0.75848
0.725697
0.691776
0.662598
0.636451
0.608387
0.588783
0.56269
0.548735
0.527966
0.517465
0.502175
0.493595
0.48249
0.473754
0.466518
0.456597
0.451846
0.441797
0.437101
0.427688
0.422498
0.413495
0.407203
0.401636
0.394804
0.392442
0.38789
0.386931
0.384906
0.385037
0.384615
0.384586
0.384127
0.383446
0.383287
0.382376
0.382696
0.382187
0.381981
0.380869
0.37934
0.375776
0.371804
0.365589
0.358351
0.349802
0.344192
0.332389
0.328206
0.318874
0.315904
0.308972
0.30785
0.306152
0.307225
0.30832
0.312567
0.315226
0.323814
0.327771
0.339999
0.343992
0.355115
0.356882
0.359986
0.358398
0.356048
0.349243
0.343193
0.327881
0.318312
0.296573
0.283803
0.25926
0.237949
0.220217
0.190918
0.176118
0.149928
0.138603
0.124118
0.114878
0.114234
0.114612
0.11881
0.126705
0.132618
0.151844
0.163179
0.183077
0.203867
0.20972
0.22737
0.229795
0.229149
0.22702
0.223327
0.213708
0.207938
0.195375
0.18581
0.167851
0.151806
0.131737
0.108577
0.0886011
0.064169
0.0448884
0.0313192
0.0214181
0.0149053
0.0108311
0.00866537
0.00768611
0.00773613
0.00819277
0.0088121
0.010071
0.0135734
0.0161801
0.0215191
0.0271321
0.029786
0.0363376
0.0388231
0.0421933
0.0452692
0.0449339
0.0449467
0.0454805
0.0435796
0.0431986
0.0428353
0.0403384
0.0430406
0.0445171
0.0497468
0.0798015
0.22817
0.27759
0.255343
0.229084
0.166244
0.126467
0.115914
0.107899
0.102387
0.0993998
0.101554
0.101058
0.105723
0.106861
0.106574
0.101202
0.0988312
0.0996281
0.107873
0.117126
0.12145
0.124803
0.12889
0.140362
0.149398
0.148315
0.140332
0.124091
0.105416
0.0930679
0.0900921
0.0810925
0.0699897
0.0591427
0.048484
0.0439035
0.0446706
0.061857
0.10367
0.125308
0.118892
0.110303
0.094465
0.0786346
0.0715606
0.0661903
0.0657264
0.0657675
0.0654421
0.061249
0.0562322
0.0557479
0.0632308
0.594012
0.571511
0.540221
0.511143
0.482892
0.45467
0.434859
0.413253
0.400524
0.38525
0.375558
0.36192
0.352629
0.338658
0.328812
0.315045
0.304431
0.293447
0.283476
0.276755
0.268838
0.265619
0.259456
0.256826
0.251593
0.248645
0.244128
0.240131
0.237372
0.232851
0.230777
0.22641
0.223546
0.218135
0.213808
0.209894
0.206045
0.204052
0.203377
0.20381
0.204508
0.206407
0.207856
0.209278
0.209722
0.209762
0.208497
0.207421
0.206165
0.20423
0.202881
0.199825
0.197341
0.193656
0.187645
0.184501
0.177046
0.17311
0.165248
0.161623
0.156351
0.152054
0.149795
0.149865
0.150434
0.153741
0.156193
0.162953
0.166524
0.173364
0.18034
0.183235
0.191578
0.193926
0.199434
0.199387
0.196614
0.193062
0.18251
0.1735
0.158565
0.141256
0.12959
0.103759
0.0938479
0.0732771
0.0655707
0.0533571
0.0469753
0.0426645
0.0373469
0.035937
0.0355971
0.0359975
0.0386126
0.0407378
0.0476638
0.0527417
0.0571928
0.0687419
0.0735003
0.0792614
0.0851485
0.0870465
0.0868628
0.0854876
0.0822167
0.075786
0.0677661
0.0588749
0.0489352
0.0401054
0.0316342
0.0242164
0.0184382
0.0134212
0.0100744
0.00766856
0.00629937
0.00571209
0.00581589
0.00619177
0.00688715
0.0085778
0.0116874
0.0150144
0.0223986
0.0286959
0.0360823
0.0475406
0.0514421
0.0582275
0.0634473
0.0639849
0.0668814
0.0664447
0.0644601
0.0648711
0.0618241
0.0586159
0.0577844
0.0522713
0.0519467
0.0549238
0.0558653
0.0740096
0.188459
0.301395
0.292539
0.225337
0.168912
0.132702
0.11153
0.102638
0.0982451
0.0923384
0.095355
0.0973135
0.0993346
0.104121
0.100481
0.099646
0.0956478
0.0979217
0.0987598
0.104173
0.105228
0.107541
0.112552
0.119478
0.127516
0.142916
0.141108
0.134052
0.124794
0.107698
0.0920331
0.0869913
0.0805603
0.0685678
0.0584072
0.048707
0.0441883
0.0447079
0.0599721
0.0962965
0.121763
0.120679
0.11068
0.0958736
0.0784301
0.0695043
0.0634881
0.0622683
0.0615402
0.0611189
0.059594
0.0525464
0.04943
0.0510392
0.165197
0.160985
0.154624
0.145533
0.141197
0.13297
0.130009
0.12508
0.123582
0.121333
0.119893
0.118799
0.11664
0.115385
0.112154
0.109777
0.105281
0.102087
0.0977335
0.0950219
0.0919254
0.0903733
0.0889697
0.0880608
0.087748
0.0869671
0.08649
0.0850898
0.0843875
0.0828338
0.0822255
0.0813441
0.0807816
0.0806178
0.0796527
0.07855
0.0754602
0.0734982
0.0715736
0.0712323
0.071324
0.0716863
0.0730859
0.0741475
0.0760462
0.0772786
0.0779715
0.0780243
0.0777836
0.076123
0.0750048
0.0729332
0.0711719
0.0696325
0.066826
0.0652537
0.0625249
0.0602856
0.0584193
0.0552203
0.054055
0.0515635
0.0499575
0.048842
0.048675
0.049245
0.0498921
0.052052
0.0538633
0.0562291
0.0611701
0.0620602
0.065365
0.06581
0.067048
0.066892
0.0650099
0.0636022
0.0590372
0.0558567
0.0491355
0.0436337
0.0390926
0.0319027
0.0283955
0.0230219
0.0197914
0.0169266
0.0140195
0.0131624
0.011263
0.0104866
0.00993515
0.00987885
0.0101628
0.0106907
0.0113836
0.0135869
0.0147257
0.0169642
0.0185904
0.0198121
0.0209609
0.0211315
0.0208942
0.0203103
0.0190838
0.0173889
0.0152218
0.0133825
0.011018
0.0091576
0.00733025
0.00590911
0.00479378
0.00405032
0.00387547
0.00401115
0.00437287
0.00499613
0.0064381
0.0092383
0.0130753
0.0219402
0.0295465
0.0422077
0.058047
0.0676252
0.0850432
0.0936244
0.0982199
0.105734
0.104903
0.103588
0.102349
0.095887
0.0938765
0.090436
0.0795218
0.0766135
0.0675711
0.0626183
0.0644287
0.063443
0.0691481
0.135698
0.275064
0.313321
0.267603
0.187379
0.137526
0.120461
0.10412
0.0999582
0.0938614
0.091276
0.094817
0.0937385
0.0957854
0.0920174
0.0924231
0.0926848
0.0941772
0.0974072
0.0993814
0.100837
0.100197
0.100883
0.106083
0.115933
0.126828
0.132278
0.134454
0.133475
0.131931
0.123066
0.101081
0.0874491
0.0812427
0.068743
0.0572699
0.0491255
0.0445694
0.045173
0.0583543
0.0934804
0.11687
0.119758
0.112333
0.0956391
0.0789006
0.0672005
0.0617467
0.0606967
0.0597182
0.0590775
0.0573607
0.0511564
0.0481947
0.0474529
0.0286762
0.0278681
0.0264274
0.0246519
0.0240338
0.0229422
0.0226663
0.0224565
0.0225312
0.0226512
0.0227464
0.0228622
0.0228226
0.0227854
0.0224785
0.022232
0.0215565
0.0211948
0.0205068
0.0199785
0.0193433
0.0189661
0.0187868
0.0187205
0.0187778
0.0187856
0.0188572
0.0188089
0.0188092
0.0187557
0.0187301
0.0187587
0.0187743
0.0189386
0.0189755
0.0190784
0.0188861
0.0183713
0.0175201
0.0170834
0.0170136
0.0170118
0.0172942
0.0177347
0.0188947
0.0198223
0.0205702
0.0208978
0.0209007
0.0207292
0.0199701
0.0194817
0.0185559
0.0181413
0.0173396
0.0169623
0.01634
0.0158128
0.0155321
0.0147124
0.0143807
0.0137142
0.0132997
0.0126603
0.0123035
0.0123359
0.0123474
0.0127636
0.0131406
0.0138971
0.0153789
0.0157278
0.0171032
0.0172036
0.0173439
0.0172421
0.0165345
0.0159688
0.0147126
0.0136481
0.0123025
0.0106987
0.0097852
0.00819808
0.00723031
0.00613199
0.00518061
0.00456741
0.00382891
0.00358413
0.00316979
0.00287445
0.00267798
0.00258549
0.00261455
0.00268988
0.00284564
0.00317661
0.00361138
0.00419835
0.00450095
0.00476143
0.00492766
0.00491141
0.00482438
0.00462048
0.00426512
0.00377859
0.00328298
0.00296121
0.002483
0.00230977
0.00210431
0.00216366
0.00231807
0.00268845
0.00320424
0.00444611
0.00659825
0.0100302
0.0177185
0.0261126
0.0423548
0.0618887
0.0800233
0.110917
0.129084
0.151881
0.16954
0.174225
0.177789
0.175725
0.167135
0.161072
0.147886
0.134166
0.127733
0.109583
0.101192
0.0896548
0.0748002
0.0724688
0.0699012
0.0700058
0.0920392
0.21913
0.304405
0.31236
0.247987
0.166864
0.130411
0.116656
0.105443
0.100312
0.0968368
0.0989578
0.0956858
0.0946785
0.0939871
0.0889278
0.0903005
0.0857728
0.0938122
0.0916066
0.0939965
0.0950291
0.0993854
0.100471
0.109219
0.115835
0.124262
0.128666
0.133709
0.133269
0.132372
0.125259
0.107638
0.092353
0.0824084
0.0697966
0.0564681
0.0509169
0.0455472
0.0458689
0.055117
0.0898989
0.115023
0.118495
0.114792
0.096454
0.0800537
0.0666872
0.0612269
0.0600259
0.0580437
0.0568378
0.0541938
0.0486594
0.0472761
0.0463705
0.00328842
0.00320552
0.00303773
0.00279315
0.00265858
0.00259606
0.00261308
0.00264751
0.00271955
0.00282144
0.00288126
0.00292384
0.00292004
0.00290964
0.00284965
0.00279857
0.00270944
0.00266975
0.00261174
0.00253721
0.00246707
0.00241848
0.00240166
0.00239594
0.00240543
0.00242422
0.00248882
0.00251219
0.00253669
0.00253815
0.00253313
0.0025419
0.00256541
0.00264969
0.0026821
0.0027349
0.00274098
0.0027277
0.00263691
0.00256229
0.00255272
0.00255182
0.00259471
0.00270479
0.00302593
0.00330582
0.00354059
0.00365618
0.00366178
0.00363585
0.00351956
0.00336567
0.00321979
0.00313522
0.00303557
0.00299562
0.00291246
0.00286909
0.00278979
0.00267987
0.0025832
0.00242987
0.00233835
0.00221406
0.00216506
0.00216425
0.00216944
0.00224472
0.00235858
0.00257192
0.00288077
0.00304908
0.00335764
0.00341331
0.00341066
0.00338278
0.00324259
0.00313453
0.00286546
0.00268276
0.00244377
0.00212793
0.00194417
0.00164779
0.00146698
0.00125464
0.00110532
0.000982299
0.000880029
0.000822698
0.000767461
0.000722001
0.00068322
0.000656126
0.000652173
0.000652197
0.00066716
0.000694948
0.000790058
0.000890653
0.000989967
0.00105467
0.00107727
0.00106688
0.00105283
0.000999309
0.000968349
0.000875967
0.00087901
0.000899261
0.00097426
0.0011467
0.00136506
0.00186579
0.00255629
0.00428108
0.00681157
0.0132934
0.0205589
0.0348765
0.0542903
0.0803831
0.116613
0.153891
0.19685
0.236693
0.263458
0.292391
0.300269
0.297972
0.291284
0.269558
0.25377
0.227778
0.19457
0.181896
0.154546
0.133734
0.118226
0.0985368
0.0865015
0.0838583
0.0803893
0.0840354
0.145774
0.273382
0.327964
0.322192
0.22883
0.162176
0.139638
0.125231
0.124891
0.115692
0.114613
0.109442
0.109711
0.109634
0.0992804
0.0954135
0.089631
0.0827875
0.0950899
0.0907633
0.102971
0.0989292
0.106772
0.103493
0.113019
0.113324
0.113459
0.118966
0.125458
0.128235
0.130377
0.124834
0.110174
0.0949421
0.0827747
0.0711699
0.0569909
0.0512979
0.0477176
0.0473117
0.053659
0.0853709
0.1117
0.117684
0.11652
0.0993996
0.0818723
0.0673057
0.0612218
0.0581791
0.0555951
0.054165
0.0509121
0.0461055
0.0444068
0.0441616
0.000277646
0.000275038
0.00027252
0.000266481
0.000262723
0.000262374
0.000268113
0.000275111
0.0002857
0.000299697
0.00030161
0.000302401
0.000297647
0.000289606
0.000276299
0.000267216
0.000259382
0.00025153
0.000247981
0.000243982
0.000241818
0.000238943
0.000236501
0.000235449
0.000235061
0.000235029
0.000237172
0.000239664
0.000241481
0.000241678
0.000240834
0.000240705
0.000242105
0.000252876
0.000263493
0.000273297
0.000281793
0.000284566
0.000288276
0.000287296
0.000287916
0.000289524
0.000293658
0.000301758
0.000327846
0.000364975
0.000392456
0.000416305
0.000419636
0.000417855
0.000411398
0.000392265
0.000383039
0.000369285
0.000365868
0.00035793
0.000354541
0.000347107
0.000338197
0.000321716
0.00030534
0.000290984
0.000280251
0.000273548
0.00027193
0.000272525
0.000279971
0.000294147
0.00030813
0.000323375
0.000337784
0.000354003
0.000373087
0.000397932
0.000422109
0.000433047
0.000434002
0.000431645
0.000418338
0.000404768
0.000367186
0.000344122
0.000312476
0.000294589
0.000279302
0.00026951
0.000269166
0.000272216
0.000276561
0.000282178
0.000293798
0.000305421
0.000312547
0.000313447
0.000312957
0.000307093
0.000296385
0.00029383
0.000293468
0.000300009
0.000306198
0.000326175
0.000335768
0.00035973
0.000381593
0.000404761
0.000464258
0.000517221
0.000647827
0.000796584
0.00114217
0.00166797
0.00269277
0.00500339
0.00805149
0.0153781
0.0242128
0.0454505
0.0663841
0.10314
0.151868
0.207187
0.27081
0.337485
0.395462
0.43066
0.457636
0.459839
0.449896
0.437199
0.408481
0.375012
0.348704
0.285664
0.259146
0.217876
0.179519
0.158157
0.131197
0.110202
0.10628
0.110553
0.112175
0.122742
0.24084
0.31879
0.347792
0.296644
0.218699
0.166914
0.142029
0.136125
0.136381
0.130529
0.120628
0.107749
0.126907
0.120182
0.108905
0.106686
0.0896021
0.0858095
0.0934665
0.0892251
0.118601
0.108391
0.128076
0.116776
0.11404
0.114263
0.107764
0.111442
0.12158
0.124178
0.127826
0.125243
0.110353
0.0982606
0.0831498
0.0718522
0.0587076
0.0531199
0.0491412
0.0485429
0.0526696
0.0820012
0.109003
0.117942
0.118506
0.106859
0.0854778
0.0695668
0.0617151
0.0581718
0.0554727
0.0529793
0.0491575
0.045221
0.0428711
0.0427549
8.58317e-05
8.67656e-05
8.94326e-05
9.3941e-05
9.84105e-05
0.000103024
0.000106274
0.000108912
0.000109759
0.000110685
0.000110233
0.000109281
0.000107616
0.000107013
0.000106633
0.000106628
0.000106199
0.000104953
0.000103807
0.000102346
0.000101202
9.98076e-05
9.86324e-05
9.75484e-05
9.67092e-05
9.6164e-05
9.5701e-05
9.5435e-05
9.47827e-05
9.41992e-05
9.36038e-05
9.2936e-05
9.24612e-05
9.19966e-05
9.18247e-05
9.18894e-05
9.27199e-05
9.36203e-05
9.5095e-05
9.57879e-05
9.63221e-05
9.68579e-05
9.74132e-05
9.93963e-05
0.000101915
0.000107131
0.00010959
0.000113887
0.000114872
0.00011538
0.000114949
0.000114814
0.000114591
0.000114537
0.00011594
0.000116252
0.000117247
0.000116832
0.000116793
0.000115663
0.000114935
0.00011409
0.000113538
0.000113145
0.000113072
0.000113412
0.000114256
0.000114906
0.000114919
0.000114951
0.000114679
0.000114737
0.000115144
0.000115888
0.000123161
0.000128264
0.000140742
0.00014537
0.000154008
0.000157943
0.000163138
0.000168746
0.000181282
0.00019387
0.000209442
0.000230838
0.000242911
0.000279108
0.000302638
0.000335608
0.000382464
0.000420692
0.000450215
0.00045142
0.000450796
0.000442057
0.000432937
0.000411516
0.000384758
0.000370749
0.000370637
0.000385417
0.000404101
0.000464672
0.000532886
0.000663362
0.000894332
0.00117465
0.00177309
0.00248916
0.00418578
0.00642321
0.011394
0.0188092
0.0298338
0.052482
0.078521
0.134272
0.182225
0.267394
0.356565
0.436518
0.501393
0.531582
0.549098
0.548048
0.543469
0.530382
0.502215
0.485644
0.447504
0.425894
0.386587
0.337243
0.305987
0.243223
0.216021
0.185551
0.160161
0.138137
0.12849
0.122731
0.12483
0.186706
0.32038
0.316374
0.30601
0.263336
0.22431
0.161734
0.13684
0.13979
0.139745
0.133676
0.117267
0.110878
0.134549
0.127652
0.122123
0.108637
0.0990306
0.094912
0.0865119
0.0882686
0.0988215
0.10817
0.116609
0.127937
0.109157
0.116742
0.108078
0.108455
0.127465
0.126325
0.129645
0.126242
0.106035
0.0972202
0.0822051
0.0732864
0.0595588
0.0547259
0.0507771
0.049758
0.0526606
0.076808
0.106694
0.118097
0.118852
0.113507
0.0914741
0.0746026
0.0635396
0.0588108
0.0560263
0.0527429
0.0489796
0.0452548
0.0429545
0.0422395
9.65416e-05
9.81864e-05
0.000101044
0.000103851
0.000103941
0.000103786
0.000103326
0.000101859
0.00010072
0.00010015
0.000100014
0.000100651
0.000103658
0.000110801
0.000115245
0.000120605
0.000121711
0.000121916
0.000120981
0.000116782
0.000113909
0.00010996
0.000107911
0.000105617
0.000104455
0.000104159
0.000104514
0.000110256
0.000115561
0.000121393
0.000124654
0.000125454
0.000125741
0.000123556
0.000121887
0.000119155
0.000117869
0.00011755
0.000116984
0.000116841
0.000116747
0.000116563
0.000116377
0.000116008
0.000116097
0.000118382
0.000121427
0.000124706
0.000125964
0.0001272
0.00012736
0.000127652
0.000128773
0.000130099
0.00013497
0.000139878
0.000144546
0.000150237
0.00015546
0.000158341
0.000164139
0.000166841
0.000172497
0.000176542
0.000181871
0.000186246
0.000186083
0.00018645
0.000184995
0.000184381
0.00018444
0.000184683
0.00018793
0.000193044
0.000205405
0.000228454
0.000247433
0.000298534
0.000329909
0.000394947
0.000447277
0.000505665
0.0006317
0.000697974
0.000810581
0.000879726
0.000973253
0.0011131
0.00121136
0.00139563
0.00155608
0.00169664
0.00175098
0.00175518
0.0017456
0.0017083
0.00166197
0.00154119
0.0014261
0.001371
0.00137602
0.0014175
0.00151493
0.00179535
0.00209722
0.0027847
0.00349291
0.00511204
0.00707975
0.00996544
0.0162435
0.0242031
0.0417583
0.0608711
0.105295
0.14734
0.232192
0.327355
0.430215
0.514634
0.553483
0.580966
0.588948
0.588245
0.584187
0.570746
0.559239
0.533864
0.508431
0.481186
0.451085
0.425785
0.378521
0.355185
0.303389
0.267367
0.235814
0.191436
0.170156
0.154173
0.138365
0.13219
0.144604
0.289361
0.33248
0.288426
0.243936
0.253678
0.228492
0.16132
0.133724
0.145921
0.139977
0.134447
0.117422
0.126382
0.134235
0.141862
0.123443
0.116668
0.116036
0.0964869
0.0958235
0.0902524
0.0963041
0.106178
0.103549
0.134997
0.108809
0.11495
0.136222
0.115474
0.198417
0.144806
0.139137
0.128369
0.102588
0.0959614
0.0795248
0.0735255
0.0619683
0.0560018
0.0548231
0.0517168
0.0542921
0.0729002
0.103926
0.119197
0.120348
0.119197
0.103812
0.0829951
0.0675351
0.0608375
0.0574743
0.053503
0.0494397
0.0457177
0.0432894
0.0424115
0.00023642
0.000243668
0.000246959
0.000246463
0.000244369
0.000233035
0.000225932
0.000221139
0.000220986
0.00022461
0.000231339
0.000262848
0.000327789
0.000409789
0.000466918
0.000505452
0.000516054
0.000514495
0.000495199
0.000453494
0.000427869
0.000401434
0.00038461
0.000375119
0.000370846
0.000383454
0.000420974
0.00049146
0.000544034
0.000591158
0.000623173
0.00062867
0.000629657
0.000605141
0.000578436
0.000552726
0.00053549
0.000536151
0.00053677
0.000554665
0.000561615
0.000563895
0.000565141
0.000560619
0.000559777
0.000561573
0.000586583
0.000631499
0.000661158
0.000706427
0.000722921
0.000746982
0.000755768
0.000762299
0.000770054
0.000779849
0.000793176
0.000816987
0.000875093
0.000909479
0.000974274
0.000994568
0.00103464
0.00104686
0.00105847
0.00107441
0.00107502
0.00108646
0.00108926
0.00110267
0.00111532
0.00113136
0.00118048
0.00122329
0.00132838
0.00141854
0.00162514
0.00187437
0.00203689
0.00241343
0.00261903
0.00305337
0.00342952
0.00370613
0.00411647
0.00430572
0.00468223
0.00497061
0.00544493
0.00599838
0.00646656
0.00669585
0.00671365
0.00668447
0.00655929
0.00636126
0.00600009
0.00555537
0.00527919
0.00524414
0.00531655
0.00553487
0.0060132
0.00719419
0.0083643
0.0106184
0.0134685
0.019189
0.0250803
0.0383262
0.0531539
0.0835671
0.125918
0.18327
0.279287
0.385096
0.487911
0.547367
0.580506
0.600563
0.602535
0.60325
0.590064
0.575283
0.542995
0.515412
0.498995
0.465984
0.455002
0.427567
0.409136
0.374685
0.351167
0.318876
0.27094
0.253494
0.230427
0.205116
0.197397
0.187949
0.175735
0.174173
0.233502
0.35829
0.328396
0.23587
0.195349
0.235364
0.230805
0.179646
0.138647
0.148111
0.143809
0.135509
0.129916
0.134382
0.129075
0.138267
0.12593
0.140013
0.118302
0.118406
0.120328
0.109058
0.116429
0.109811
0.127357
0.163956
0.16879
0.158913
0.330253
0.144179
0.240985
0.186898
0.147338
0.133008
0.103104
0.0972151
0.0797294
0.0723426
0.0681536
0.0592325
0.060019
0.0559949
0.0574929
0.069126
0.0988058
0.122413
0.125658
0.126244
0.119033
0.0971954
0.0756073
0.0654182
0.060398
0.0558007
0.0512185
0.0471685
0.044121
0.0432094
0.00284136
0.00283026
0.00280595
0.00274362
0.00268265
0.00262679
0.00262972
0.00266659
0.00274257
0.00296537
0.00316208
0.00360318
0.004034
0.00448486
0.00479066
0.00489178
0.0049179
0.00484194
0.00467494
0.00443355
0.00427073
0.00419256
0.0041436
0.00417355
0.00428937
0.00463346
0.00492826
0.00518419
0.00543147
0.0055459
0.00564123
0.00563995
0.00562787
0.00554426
0.00541792
0.00531246
0.00519564
0.00518476
0.00516777
0.00523973
0.00532897
0.00538286
0.00542449
0.00540785
0.00542249
0.00542406
0.00546778
0.00561328
0.00570836
0.00587242
0.00593856
0.00604051
0.00605307
0.00603723
0.00601382
0.00601633
0.00603326
0.00607053
0.00624932
0.00646622
0.00670415
0.00685668
0.00704717
0.00710367
0.00714747
0.00714049
0.00711611
0.00711913
0.00710157
0.00712632
0.00715323
0.00726544
0.00744406
0.00761603
0.00825598
0.00865318
0.00943473
0.010209
0.0110366
0.0121392
0.0127748
0.0143457
0.0152091
0.0163302
0.0173317
0.0181745
0.0193554
0.0201324
0.0213517
0.0220863
0.022314
0.0222722
0.0220586
0.0216105
0.0207803
0.0201513
0.0189948
0.01816
0.0179905
0.0181054
0.0186698
0.0197108
0.0220648
0.0253208
0.0301031
0.0360575
0.0486898
0.0613064
0.081993
0.118411
0.162141
0.236404
0.334458
0.443064
0.521291
0.562581
0.589344
0.602478
0.602587
0.589971
0.556643
0.517482
0.460559
0.437288
0.398282
0.394085
0.381505
0.367728
0.365568
0.350507
0.331882
0.298603
0.290519
0.288259
0.26837
0.263906
0.259244
0.258536
0.244375
0.220812
0.217709
0.227285
0.315367
0.355605
0.284987
0.187569
0.172757
0.198225
0.220598
0.205095
0.165437
0.172094
0.163055
0.143101
0.147144
0.143284
0.130358
0.135688