/*--------------------------------*- C++ -*----------------------------------*\
| =========                 |                                                 |
| \\      /  F ield         | OpenFOAM: The Open Source CFD Toolbox           |
|  \\    /   O peration     | Version:  2.4.0                                 |
|   \\  /    A nd           | Web:      www.OpenFOAM.org                      |
|    \\/     M anipulation  |                                                 |
\*---------------------------------------------------------------------------*/
FoamFile
{
    version     2.0;
    format      ascii;
    class       surfaceScalarField;
    location    "1.97";
    object      phi;
}
// * * * * * * * * * * * * * * * * * * * * * * * * * * * * * * * * * * * * * //

dimensions      [0 3 -1 0 0 0 0];

internalField   nonuniform List<scalar> 
17320
(
1.76392e-05
7.36084e-06
1.1618e-05
6.02112e-06
8.68235e-06
2.93569e-06
7.35521e-06
1.32714e-06
6.71835e-06
6.36858e-07
6.34372e-06
3.74632e-07
6.07715e-06
2.66571e-07
5.87073e-06
2.06415e-07
5.7056e-06
1.65135e-07
5.58569e-06
1.1991e-07
5.47661e-06
1.09082e-07
5.38914e-06
8.7466e-08
5.30312e-06
8.60177e-08
5.23433e-06
6.87899e-08
5.12694e-06
1.07391e-07
5.08197e-06
4.49665e-08
4.97372e-06
1.08251e-07
4.99062e-06
-1.68958e-08
4.79668e-06
1.93943e-07
-3.46585e-07
5.14326e-06
2.54639e-05
6.89698e-06
2.32474e-05
8.2376e-06
2.0992e-05
5.19109e-06
1.93181e-05
3.00102e-06
1.80767e-05
1.87824e-06
1.71134e-05
1.33792e-06
1.63664e-05
1.01363e-06
1.57739e-05
7.98842e-07
1.53073e-05
6.3176e-07
1.49386e-05
4.88634e-07
1.46298e-05
4.17854e-07
1.43766e-05
3.40702e-07
1.41442e-05
3.18368e-07
1.39499e-05
2.63142e-07
1.37151e-05
3.42215e-07
1.35738e-05
1.86261e-07
1.33313e-05
3.50717e-07
1.32836e-05
3.07825e-08
1.31486e-05
3.28947e-07
-4.12449e-07
1.32145e-05
2.66241e-05
5.27292e-06
2.71528e-05
7.70889e-06
2.67846e-05
5.55926e-06
2.62497e-05
3.53592e-06
2.56068e-05
2.52113e-06
2.48738e-05
2.0709e-06
2.41636e-05
1.72386e-06
2.3502e-05
1.46041e-06
2.29347e-05
1.19907e-06
2.24508e-05
9.72585e-07
2.203e-05
8.38595e-07
2.1678e-05
6.92746e-07
2.13552e-05
6.41184e-07
2.10811e-05
5.37212e-07
2.07799e-05
6.43406e-07
2.05635e-05
4.02703e-07
2.02728e-05
6.41361e-07
2.01309e-05
1.72657e-07
2.01173e-05
3.42599e-07
-7.3281e-07
2.04377e-05
2.63293e-05
3.94361e-06
2.75339e-05
6.5043e-06
2.80863e-05
5.00687e-06
2.84561e-05
3.16614e-06
2.86516e-05
2.3256e-06
2.86244e-05
2.09807e-06
2.84822e-05
1.86612e-06
2.82321e-05
1.7105e-06
2.79686e-05
1.46258e-06
2.77024e-05
1.23878e-06
2.74264e-05
1.11462e-06
2.71681e-05
9.51009e-07
2.692e-05
8.89255e-07
2.66724e-05
7.84833e-07
2.64267e-05
8.89076e-07
2.61846e-05
6.44845e-07
2.59664e-05
8.59535e-07
2.56725e-05
4.66575e-07
2.55334e-05
4.81682e-07
-3.72295e-07
2.51729e-05
2.60429e-05
2.90066e-06
2.72438e-05
5.30345e-06
2.80381e-05
4.21262e-06
2.85042e-05
2.70004e-06
2.89871e-05
1.84262e-06
2.93184e-05
1.76683e-06
2.95932e-05
1.59135e-06
2.97396e-05
1.56401e-06
2.9843e-05
1.35925e-06
2.99185e-05
1.16323e-06
2.9964e-05
1.06911e-06
2.99532e-05
9.61815e-07
2.99713e-05
8.71194e-07
2.99077e-05
8.48465e-07
2.98979e-05
8.98805e-07
2.97612e-05
7.81545e-07
2.97339e-05
8.86854e-07
2.94683e-05
7.32174e-07
2.93176e-05
6.3236e-07
2.81424e-07
2.86639e-05
2.58295e-05
2.07115e-06
2.69699e-05
4.16305e-06
2.78036e-05
3.37894e-06
2.82007e-05
2.30296e-06
2.87296e-05
1.31368e-06
2.90967e-05
1.39969e-06
2.94677e-05
1.22038e-06
2.96993e-05
1.33245e-06
2.99933e-05
1.06524e-06
3.01566e-05
9.99914e-07
3.0437e-05
7.8867e-07
3.05013e-05
8.97509e-07
3.07536e-05
6.18884e-07
3.07904e-05
8.11658e-07
3.10319e-05
6.57304e-07
3.09975e-05
8.16014e-07
3.1208e-05
6.76372e-07
3.09889e-05
9.51235e-07
3.10489e-05
5.72317e-07
1.21728e-06
3.01131e-05
2.56428e-05
1.42831e-06
2.67635e-05
3.04237e-06
2.76628e-05
2.47967e-06
2.80174e-05
1.94831e-06
2.84782e-05
8.5292e-07
2.88191e-05
1.05885e-06
2.9248e-05
7.91403e-07
2.94533e-05
1.12719e-06
2.97798e-05
7.38738e-07
2.99225e-05
8.57199e-07
3.03124e-05
3.98742e-07
3.03875e-05
8.22453e-07
3.06801e-05
3.26284e-07
3.07169e-05
7.74877e-07
3.10161e-05
3.58104e-07
3.10167e-05
8.15393e-07
3.13437e-05
3.49388e-07
3.11471e-05
1.14782e-06
3.10914e-05
6.27971e-07
2.29495e-06
3.00138e-05
2.55581e-05
8.70192e-07
2.66223e-05
1.97818e-06
2.74619e-05
1.64004e-06
2.79914e-05
1.41883e-06
2.8281e-05
5.633e-07
2.86164e-05
7.23428e-07
2.90322e-05
3.75608e-07
2.94229e-05
7.36508e-07
2.96137e-05
5.47927e-07
2.9767e-05
7.03985e-07
2.99908e-05
1.74897e-07
3.02741e-05
5.39149e-07
3.04859e-05
1.14443e-07
3.06137e-05
6.47145e-07
3.07906e-05
1.81194e-07
3.10066e-05
5.99426e-07
3.10632e-05
2.92776e-07
3.15212e-05
6.89769e-07
3.18138e-05
3.35413e-07
1.38836e-06
3.27204e-05
2.54828e-05
3.87366e-07
2.64291e-05
1.03189e-06
2.72826e-05
7.86611e-07
2.79736e-05
7.27748e-07
2.83031e-05
2.33851e-07
2.85302e-05
4.96345e-07
2.88215e-05
8.43083e-08
2.92603e-05
2.97708e-07
2.95301e-05
2.78086e-07
2.97432e-05
4.90873e-07
2.98491e-05
6.90144e-08
3.01784e-05
2.09827e-07
3.03022e-05
-9.38538e-09
3.05306e-05
4.18781e-07
3.06414e-05
7.03713e-08
3.0892e-05
3.48908e-07
3.10556e-05
1.29084e-07
3.15268e-05
2.1858e-07
3.15392e-05
3.23046e-07
8.29672e-07
3.20979e-05
2.54179e-05
-3.0521e-08
2.64091e-05
4.0718e-08
2.7272e-05
-7.6376e-08
2.79294e-05
7.04001e-08
2.82392e-05
-7.59505e-08
2.85214e-05
2.14107e-07
2.87796e-05
-1.739e-07
2.91264e-05
-4.90685e-08
2.94375e-05
-3.29985e-08
2.97266e-05
2.01734e-07
2.98899e-05
-9.4237e-08
3.0099e-05
7.66206e-10
3.02529e-05
-1.63302e-07
3.0518e-05
1.5367e-07
3.0593e-05
-4.66644e-09
3.08567e-05
8.52151e-08
3.11376e-05
-1.5176e-07
3.13633e-05
-7.20353e-09
3.15191e-05
1.67249e-07
4.32061e-07
3.19167e-05
2.54358e-05
-4.66346e-07
2.64337e-05
-9.57184e-07
2.7246e-05
-8.88651e-07
2.79126e-05
-5.96181e-07
2.82226e-05
-3.85924e-07
2.85389e-05
-1.02191e-07
2.87526e-05
-3.87614e-07
2.91299e-05
-4.2636e-07
2.94019e-05
-3.05007e-07
2.97827e-05
-1.79085e-07
2.98901e-05
-2.01638e-07
3.00985e-05
-2.07607e-07
3.022e-05
-2.84838e-07
3.04547e-05
-8.10484e-08
3.06046e-05
-1.54536e-07
3.0906e-05
-2.1617e-07
3.10979e-05
-3.43709e-07
3.12728e-05
-1.82066e-07
3.14765e-05
-3.64701e-08
-2.06446e-07
3.2115e-05
2.54637e-05
-9.30075e-07
2.64921e-05
-1.98559e-06
2.73098e-05
-1.70635e-06
2.79039e-05
-1.19024e-06
2.82216e-05
-7.03638e-07
2.86145e-05
-4.95081e-07
2.8899e-05
-6.7215e-07
2.92061e-05
-7.33412e-07
2.94611e-05
-5.60002e-07
2.97747e-05
-4.92703e-07
2.99374e-05
-3.64289e-07
3.01398e-05
-4.10019e-07
3.02602e-05
-4.0523e-07
3.0527e-05
-3.47891e-07
3.0727e-05
-3.54558e-07
3.09499e-05
-4.39029e-07
3.10903e-05
-4.84144e-07
3.13288e-05
-4.20507e-07
3.16861e-05
-3.93836e-07
-6.22238e-07
3.21019e-05
2.55319e-05
-1.46202e-06
2.66022e-05
-3.05589e-06
2.74439e-05
-2.54801e-06
2.80152e-05
-1.76151e-06
2.83027e-05
-9.91192e-07
2.86845e-05
-8.76883e-07
2.90063e-05
-9.9394e-07
2.93453e-05
-1.07238e-06
2.95553e-05
-7.69981e-07
2.98375e-05
-7.74968e-07
3.00302e-05
-5.56982e-07
3.02643e-05
-6.44079e-07
3.04136e-05
-5.54573e-07
3.06283e-05
-5.62565e-07
3.07729e-05
-4.99177e-07
3.10524e-05
-7.1847e-07
3.12141e-05
-6.45924e-07
3.15123e-05
-7.18693e-07
3.18236e-05
-7.05162e-07
-8.76421e-07
3.20778e-05
2.56778e-05
-2.1398e-06
2.67545e-05
-4.13258e-06
2.7584e-05
-3.3775e-06
2.80464e-05
-2.22392e-06
2.8458e-05
-1.40283e-06
2.88781e-05
-1.29701e-06
2.92133e-05
-1.32912e-06
2.94858e-05
-1.34488e-06
2.9714e-05
-9.98144e-07
3.00069e-05
-1.06791e-06
3.02161e-05
-7.66136e-07
3.04358e-05
-8.6381e-07
3.05691e-05
-6.87896e-07
3.07866e-05
-7.80061e-07
3.09534e-05
-6.6601e-07
3.11929e-05
-9.57906e-07
3.13412e-05
-7.94277e-07
3.16711e-05
-1.04851e-06
3.1914e-05
-9.48139e-07
-1.13556e-06
3.21732e-05
2.58414e-05
-2.98124e-06
2.69461e-05
-5.2372e-06
2.77919e-05
-4.22338e-06
2.82429e-05
-2.67485e-06
2.87178e-05
-1.87779e-06
2.91201e-05
-1.69927e-06
2.94475e-05
-1.65653e-06
2.96982e-05
-1.59558e-06
2.99678e-05
-1.26771e-06
3.01768e-05
-1.27697e-06
3.03817e-05
-9.71008e-07
3.05459e-05
-1.02801e-06
3.06979e-05
-8.39903e-07
3.08481e-05
-9.30262e-07
3.09774e-05
-7.95276e-07
3.11036e-05
-1.08408e-06
3.11884e-05
-8.79076e-07
3.1412e-05
-1.2722e-06
3.1578e-05
-1.11411e-06
-1.38316e-06
3.18256e-05
2.60358e-05
-4.01706e-06
2.72304e-05
-6.4318e-06
2.80255e-05
-5.01849e-06
2.85052e-05
-3.15446e-06
2.89821e-05
-2.35469e-06
2.93385e-05
-2.05574e-06
2.9585e-05
-1.90303e-06
2.97137e-05
-1.72427e-06
2.98511e-05
-1.40505e-06
2.98893e-05
-1.31521e-06
2.99604e-05
-1.04207e-06
2.99516e-05
-1.01925e-06
2.9958e-05
-8.46254e-07
2.99147e-05
-8.86967e-07
2.98801e-05
-7.60703e-07
2.97804e-05
-9.84381e-07
2.96959e-05
-7.94584e-07
2.96454e-05
-1.22172e-06
2.9575e-05
-1.04366e-06
-1.43203e-06
2.96238e-05
2.6301e-05
-5.31801e-06
2.75339e-05
-7.66475e-06
2.80794e-05
-5.564e-06
2.84567e-05
-3.53171e-06
2.86392e-05
-2.53724e-06
2.86302e-05
-2.04672e-06
2.84677e-05
-1.74055e-06
2.82191e-05
-1.47571e-06
2.79737e-05
-1.1596e-06
2.76789e-05
-1.02045e-06
2.7434e-05
-7.97159e-07
2.71538e-05
-7.39031e-07
2.69147e-05
-6.0712e-07
2.66543e-05
-6.26597e-07
2.6426e-05
-5.32457e-07
2.61331e-05
-6.91391e-07
2.5904e-05
-5.65512e-07
2.55796e-05
-8.97314e-07
2.53457e-05
-8.09824e-07
-1.28213e-06
2.51958e-05
2.66017e-05
-6.9197e-06
2.71564e-05
-8.2195e-06
2.67793e-05
-5.18688e-06
2.6248e-05
-3.00037e-06
2.55976e-05
-1.88689e-06
2.48787e-05
-1.32781e-06
2.41536e-05
-1.01539e-06
2.34948e-05
-8.16903e-07
2.29368e-05
-6.01628e-07
2.2437e-05
-5.20664e-07
2.20344e-05
-3.94546e-07
2.16618e-05
-3.6641e-07
2.13528e-05
-2.9813e-07
2.10493e-05
-3.23091e-07
2.07857e-05
-2.68902e-07
2.04696e-05
-3.75278e-07
2.02148e-05
-3.10757e-07
1.98055e-05
-4.87983e-07
1.94508e-05
-4.55141e-07
-4.47082e-07
1.86158e-05
2.54482e-05
-7.36786e-06
2.32459e-05
-6.01719e-06
2.09895e-05
-2.93058e-06
1.93175e-05
-1.32829e-06
1.80714e-05
-6.40786e-07
1.71151e-05
-3.71553e-07
1.63635e-05
-2.63815e-07
1.57656e-05
-2.18953e-07
1.53118e-05
-1.47787e-07
1.49278e-05
-1.36685e-07
1.46313e-05
-9.80604e-08
1.43625e-05
-9.76446e-08
1.4142e-05
-7.76109e-08
1.39154e-05
-9.65003e-08
1.37207e-05
-7.41851e-08
1.34705e-05
-1.25049e-07
1.32572e-05
-9.75385e-08
1.29327e-05
-1.63404e-07
1.26784e-05
-2.00918e-07
-6.60005e-08
1.22974e-05
1.76321e-05
1.16149e-05
8.68437e-06
7.35607e-06
6.71529e-06
6.34374e-06
6.07992e-06
5.86097e-06
5.71318e-06
5.5765e-06
5.47844e-06
5.38079e-06
5.30318e-06
5.20668e-06
5.1325e-06
5.00745e-06
4.90991e-06
4.7465e-06
4.54559e-06
4.47959e-06
5.71051e-06
-1.33388e-07
-4.33859e-07
6.15679e-06
-9.41731e-09
-4.36861e-07
6.42361e-06
-9.03799e-09
-2.57785e-07
6.5989e-06
-7.81993e-08
-9.70905e-08
6.74664e-06
-1.54295e-07
6.55458e-09
6.89403e-06
-2.0648e-07
5.90871e-08
7.03845e-06
-2.31441e-07
8.70238e-08
7.1707e-06
-2.07405e-07
7.51601e-08
7.30088e-06
-1.55195e-07
2.50086e-08
7.43956e-06
-7.51188e-08
-6.35593e-08
7.5645e-06
-1.02755e-08
-1.14661e-07
7.68431e-06
1.90406e-08
-1.38855e-07
7.80737e-06
2.71916e-08
-1.50256e-07
7.92236e-06
2.01958e-08
-1.35185e-07
8.02557e-06
-7.73831e-09
-9.54679e-08
8.13174e-06
-3.78061e-08
-6.83634e-08
8.23645e-06
-4.31961e-08
-6.15137e-08
8.3327e-06
-3.5301e-08
-6.09535e-08
8.42047e-06
-1.54758e-08
-7.22887e-08
8.51482e-06
2.57223e-09
-9.69265e-08
8.64411e-06
4.20543e-08
-1.71343e-07
8.75544e-06
6.90335e-08
-1.80362e-07
8.87648e-06
7.94668e-08
-2.00506e-07
9.02864e-06
8.35822e-08
-2.35748e-07
9.17959e-06
9.71322e-08
-2.48076e-07
9.29695e-06
6.1871e-08
-1.79234e-07
9.39635e-06
9.31717e-09
-1.08715e-07
9.45717e-06
-5.92087e-08
-1.60978e-09
9.48656e-06
-1.3509e-07
1.05699e-07
9.49809e-06
-2.00343e-07
1.88815e-07
9.49046e-06
-2.33916e-07
2.41545e-07
9.48071e-06
-2.50666e-07
2.60412e-07
9.46639e-06
-2.36371e-07
2.50691e-07
9.45996e-06
-2.18199e-07
2.24633e-07
9.45272e-06
-1.69686e-07
1.7692e-07
9.4516e-06
-1.36653e-07
1.37774e-07
9.46593e-06
-6.94266e-08
5.51052e-08
9.45563e-06
-2.51693e-08
3.54695e-08
9.48827e-06
4.17599e-08
-7.44017e-08
9.47396e-06
1.14617e-07
-1.00308e-07
9.49276e-06
1.8294e-07
-2.01739e-07
9.51318e-06
2.84527e-07
-3.04947e-07
9.53731e-06
3.86563e-07
-4.10699e-07
9.60448e-06
5.021e-07
-5.69267e-07
9.71615e-06
6.6045e-07
-7.7212e-07
9.8967e-06
7.88285e-07
-9.6883e-07
1.01511e-05
8.90263e-07
-1.14466e-06
1.04547e-05
9.73165e-07
-1.27674e-06
1.08023e-05
9.86439e-07
-1.33406e-06
1.11833e-05
8.86306e-07
-1.2673e-06
1.15319e-05
7.42785e-07
-1.09143e-06
1.17925e-05
5.00923e-07
-7.61488e-07
1.19379e-05
2.1461e-07
-3.60035e-07
1.19859e-05
-1.11422e-07
6.34279e-08
1.19514e-05
-3.86678e-07
4.21188e-07
1.18772e-05
-6.61721e-07
7.35961e-07
1.17345e-05
-8.63839e-07
1.00655e-06
1.15763e-05
-1.00202e-06
1.16014e-06
1.14555e-05
-1.07608e-06
1.19686e-06
1.13162e-05
-1.10257e-06
1.24191e-06
1.12308e-05
-1.07204e-06
1.15745e-06
1.1145e-05
-1.03467e-06
1.12047e-06
1.1056e-05
-9.24715e-07
1.01372e-06
1.09622e-05
-7.92618e-07
8.86423e-07
1.09113e-05
-6.32849e-07
6.83723e-07
1.0903e-05
-4.51259e-07
4.59554e-07
1.09598e-05
-2.35126e-07
1.78332e-07
1.10734e-05
-5.33655e-09
-1.08242e-07
1.12474e-05
2.50685e-07
-4.24654e-07
1.14604e-05
4.7691e-07
-6.89915e-07
1.17357e-05
7.35895e-07
-1.01127e-06
1.20207e-05
9.28955e-07
-1.21394e-06
1.23551e-05
1.11201e-06
-1.44634e-06
1.26505e-05
1.24118e-06
-1.53663e-06
1.29962e-05
1.21078e-06
-1.55646e-06
1.32787e-05
1.22858e-06
-1.51111e-06
1.35886e-05
9.57898e-07
-1.26778e-06
1.38585e-05
8.16272e-07
-1.08614e-06
1.41436e-05
3.71987e-07
-6.57109e-07
1.44618e-05
-8.81867e-10
-3.17335e-07
1.47003e-05
-5.48114e-07
3.09616e-07
1.50013e-05
-1.16999e-06
8.69032e-07
1.516e-05
-1.6853e-06
1.5266e-06
1.53795e-05
-2.30577e-06
2.08627e-06
1.54937e-05
-2.79059e-06
2.6764e-06
1.56218e-05
-3.10131e-06
2.97318e-06
1.56797e-05
-3.5068e-06
3.44896e-06
1.56845e-05
-3.24802e-06
3.24318e-06
1.55213e-05
-3.40739e-06
3.5706e-06
1.53952e-05
-2.66184e-06
2.78792e-06
1.50089e-05
-2.55494e-06
2.94125e-06
1.50975e-05
-1.75325e-06
1.66458e-06
1.48184e-05
-1.47626e-06
1.7554e-06
1.52187e-05
-8.30854e-07
4.30564e-07
1.53175e-05
-2.52597e-07
1.53833e-07
1.58538e-05
7.8442e-08
-6.14752e-07
1.63331e-05
6.25643e-07
-1.10496e-06
1.70143e-05
9.29079e-07
-1.6103e-06
1.74617e-05
9.99122e-07
-1.44654e-06
1.82119e-05
1.30472e-06
-2.05485e-06
1.87319e-05
9.75831e-07
-1.49586e-06
1.92813e-05
9.89576e-07
-1.53902e-06
1.99083e-05
6.22461e-07
-1.24945e-06
2.04851e-05
8.40411e-08
-6.60847e-07
2.08824e-05
3.98838e-08
-4.37174e-07
2.14334e-05
-9.94497e-07
4.43544e-07
2.20516e-05
-1.22994e-06
6.11711e-07
2.24436e-05
-1.66886e-06
1.27683e-06
2.30368e-05
-2.69299e-06
2.09988e-06
2.36807e-05
-2.91386e-06
2.26993e-06
2.42776e-05
-3.51526e-06
2.91838e-06
2.49753e-05
-4.37413e-06
3.6764e-06
2.57645e-05
-4.79702e-06
4.00784e-06
2.66841e-05
-5.19908e-06
4.27948e-06
2.74329e-05
-6.3116e-06
5.56275e-06
2.84825e-05
-6.45782e-06
5.40821e-06
2.95621e-05
-7.35269e-06
6.27308e-06
3.04687e-05
-8.06936e-06
7.1628e-06
3.16036e-05
-8.5193e-06
7.38435e-06
3.27571e-05
-9.61485e-06
8.4614e-06
3.35556e-05
-9.95656e-06
9.15804e-06
3.46184e-05
-1.0827e-05
9.76423e-06
3.54097e-05
-1.16776e-05
1.08863e-05
3.59574e-05
-1.19157e-05
1.1368e-05
3.66393e-05
-1.27238e-05
1.20419e-05
3.67203e-05
-1.32318e-05
1.31508e-05
3.66329e-05
-1.30597e-05
1.31471e-05
3.6409e-05
-1.35933e-05
1.38172e-05
3.56035e-05
-1.33952e-05
1.42008e-05
3.45899e-05
-1.26853e-05
1.36988e-05
3.34721e-05
-1.27725e-05
1.38903e-05
3.17338e-05
-1.15147e-05
1.3253e-05
3.02847e-05
-1.06487e-05
1.20978e-05
2.88854e-05
-1.01088e-05
1.15082e-05
2.71869e-05
-8.70659e-06
1.04051e-05
2.60612e-05
-8.05359e-06
9.17926e-06
2.50948e-05
-7.34134e-06
8.30774e-06
2.39604e-05
-6.84413e-06
7.97855e-06
2.31768e-05
-5.99249e-06
6.77609e-06
2.27228e-05
-6.26603e-06
6.71999e-06
2.1915e-05
-5.78906e-06
6.5969e-06
2.13119e-05
-5.78408e-06
6.38716e-06
2.08194e-05
-5.94852e-06
6.44102e-06
2.0515e-05
-6.07956e-06
6.38389e-06
1.98639e-05
-6.67911e-06
7.3302e-06
1.94095e-05
-6.6652e-06
7.11964e-06
1.92313e-05
-7.82167e-06
7.99987e-06
1.89477e-05
-8.25964e-06
8.54325e-06
1.92007e-05
-9.34447e-06
9.0914e-06
1.89149e-05
-1.01194e-05
1.04052e-05
1.87747e-05
-1.0011e-05
1.01512e-05
1.87594e-05
-1.02255e-05
1.02408e-05
1.89547e-05
-1.12204e-05
1.10251e-05
1.91879e-05
-1.10566e-05
1.08235e-05
1.98458e-05
-1.18184e-05
1.11604e-05
2.04097e-05
-1.1827e-05
1.12631e-05
2.0701e-05
-1.06416e-05
1.03504e-05
2.1103e-05
-9.94229e-06
9.54033e-06
2.19643e-05
-8.29665e-06
7.43532e-06
2.2506e-05
-7.29104e-06
6.74931e-06
2.30015e-05
-5.37201e-06
4.87653e-06
2.33661e-05
-3.15848e-06
2.79383e-06
2.38777e-05
-9.8706e-07
4.75496e-07
2.48478e-05
-1.36537e-07
-8.33599e-07
2.51833e-05
2.35327e-06
-2.68872e-06
2.48317e-05
4.2335e-06
-3.88195e-06
2.46889e-05
6.81989e-06
-6.67703e-06
2.38542e-05
8.69597e-06
-7.86124e-06
2.3192e-05
9.74784e-06
-9.08568e-06
2.17898e-05
1.11721e-05
-9.7699e-06
2.1253e-05
1.05857e-05
-1.0049e-05
2.05877e-05
1.02211e-05
-9.55573e-06
2.03268e-05
9.34879e-06
-9.08789e-06
2.08422e-05
1.03318e-05
-1.08472e-05
2.08007e-05
1.09811e-05
-1.09396e-05
2.15072e-05
1.06199e-05
-1.13264e-05
2.12372e-05
1.23343e-05
-1.20643e-05
2.07569e-05
1.31815e-05
-1.27012e-05
2.04103e-05
1.36239e-05
-1.32773e-05
1.89226e-05
1.36101e-05
-1.21224e-05
1.84006e-05
1.35163e-05
-1.29943e-05
1.72382e-05
1.50483e-05
-1.3886e-05
1.62408e-05
1.42847e-05
-1.32873e-05
1.58653e-05
1.39949e-05
-1.36194e-05
1.44433e-05
1.48777e-05
-1.34557e-05
1.41757e-05
1.50751e-05
-1.48075e-05
1.35975e-05
1.72086e-05
-1.66304e-05
1.26633e-05
1.82542e-05
-1.73201e-05
1.2593e-05
1.9502e-05
-1.94318e-05
1.15044e-05
2.22026e-05
-2.1114e-05
1.06079e-05
2.33443e-05
-2.24478e-05
1.02657e-05
2.46807e-05
-2.43385e-05
1.0248e-05
2.3412e-05
-2.33943e-05
9.50237e-06
2.33816e-05
-2.26359e-05
9.02154e-06
1.84014e-05
-1.79205e-05
7.64914e-06
1.56131e-05
-1.42407e-05
7.26038e-06
9.81559e-06
-9.42682e-06
5.43913e-06
1.16702e-05
-9.849e-06
7.35403e-06
3.60639e-06
-5.52128e-06
1.07179e-05
-1.16846e-05
8.32064e-06
1.32671e-05
-1.86022e-07
1.33103e-05
-5.2601e-08
1.33361e-05
-3.48727e-08
1.33636e-05
-1.05667e-07
1.34119e-05
-2.02616e-07
1.34918e-05
-2.86352e-07
1.35845e-05
-3.24116e-07
1.36797e-05
-3.02659e-07
1.3757e-05
-2.32465e-07
1.3821e-05
-1.39156e-07
1.3886e-05
-7.52539e-08
1.39427e-05
-3.7605e-08
1.39987e-05
-2.88793e-08
1.40508e-05
-3.18645e-08
1.40964e-05
-5.33482e-08
1.41367e-05
-7.81333e-08
1.41861e-05
-9.25981e-08
1.42395e-05
-8.8637e-08
1.42945e-05
-7.04762e-08
1.43446e-05
-4.76067e-08
1.44058e-05
-1.9092e-08
1.44699e-05
4.87564e-09
1.45242e-05
2.51943e-08
1.45881e-05
1.96903e-08
1.46621e-05
2.31519e-08
1.47288e-05
-4.8606e-09
1.47711e-05
-3.30041e-08
1.47994e-05
-8.75034e-08
1.48038e-05
-1.39441e-07
1.47983e-05
-1.94818e-07
1.47903e-05
-2.25981e-07
1.47725e-05
-2.32838e-07
1.47643e-05
-2.28183e-07
1.47434e-05
-1.97255e-07
1.47407e-05
-1.67033e-07
1.47209e-05
-1.16793e-07
1.47212e-05
-6.97302e-08
1.47049e-05
-8.92705e-09
1.46967e-05
4.99666e-08
1.46936e-05
1.17679e-07
1.4677e-05
1.99611e-07
1.46873e-05
2.74159e-07
1.46932e-05
3.80753e-07
1.47268e-05
4.68444e-07
1.48074e-05
5.79888e-07
1.49118e-05
6.8389e-07
1.50585e-05
7.4348e-07
1.52588e-05
7.72953e-07
1.54764e-05
7.68834e-07
1.56928e-05
6.6992e-07
1.59089e-05
5.26668e-07
1.60835e-05
3.26323e-07
1.62084e-05
8.97011e-08
1.62741e-05
-1.77138e-07
1.63114e-05
-4.23964e-07
1.6302e-05
-6.52389e-07
1.62516e-05
-8.13365e-07
1.62128e-05
-9.63234e-07
1.61474e-05
-1.01074e-06
1.60828e-05
-1.03794e-06
1.60207e-05
-1.00993e-06
1.59274e-05
-9.41348e-07
1.58641e-05
-8.61425e-07
1.57613e-05
-6.89795e-07
1.5719e-05
-5.9056e-07
1.5618e-05
-3.50262e-07
1.56012e-05
-2.18324e-07
1.55551e-05
4.07991e-08
1.55865e-05
2.19296e-07
1.56518e-05
4.1154e-07
1.57647e-05
6.23e-07
1.59777e-05
7.16015e-07
1.6199e-05
8.90696e-07
1.65079e-05
9.32209e-07
1.68328e-05
8.85866e-07
1.71656e-05
8.95798e-07
1.75423e-05
5.81201e-07
1.78994e-05
4.59149e-07
1.82771e-05
-5.65134e-09
1.86751e-05
-3.98933e-07
1.89912e-05
-8.64141e-07
1.93134e-05
-1.49223e-06
1.9548e-05
-1.91992e-06
1.97532e-05
-2.511e-06
1.98697e-05
-2.90709e-06
1.99334e-05
-3.16503e-06
1.99015e-05
-3.47489e-06
1.99348e-05
-3.28125e-06
1.98281e-05
-3.30077e-06
2.00644e-05
-2.89806e-06
2.00237e-05
-2.51425e-06
2.03e-05
-2.0296e-06
2.02483e-05
-1.42452e-06
2.02278e-05
-8.10365e-07
2.03146e-05
-3.39429e-07
2.02852e-05
1.07824e-07
2.02661e-05
6.44737e-07
2.06022e-05
5.93072e-07
2.0705e-05
8.96271e-07
2.10913e-05
9.18414e-07
2.15687e-05
4.98428e-07
2.19694e-05
5.88839e-07
2.2442e-05
1.49872e-07
2.30139e-05
-4.87852e-07
2.35436e-05
-4.89801e-07
2.39339e-05
-1.38481e-06
2.46345e-05
-1.93047e-06
2.51711e-05
-2.20556e-06
2.5671e-05
-3.19281e-06
2.63974e-05
-3.64031e-06
2.7124e-05
-4.24186e-06
2.77713e-05
-5.02146e-06
2.85844e-05
-5.61004e-06
2.96014e-05
-6.21614e-06
3.03197e-05
-7.02987e-06
3.1396e-05
-7.53418e-06
3.24609e-05
-8.41752e-06
3.33297e-05
-8.93821e-06
3.44561e-05
-9.64569e-06
3.53197e-05
-1.04785e-05
3.61627e-05
-1.07996e-05
3.6963e-05
-1.16273e-05
3.74424e-05
-1.2157e-05
3.77664e-05
-1.22398e-05
3.80353e-05
-1.29927e-05
3.76243e-05
-1.28208e-05
3.72971e-05
-1.27325e-05
3.66792e-05
-1.29754e-05
3.53664e-05
-1.20824e-05
3.44207e-05
-1.17397e-05
3.29487e-05
-1.13004e-05
3.13189e-05
-9.88496e-06
3.01599e-05
-9.48968e-06
2.86692e-05
-8.61816e-06
2.73909e-05
-7.42826e-06
2.64169e-05
-7.07964e-06
2.53865e-05
-6.31091e-06
2.43362e-05
-5.79389e-06
2.38003e-05
-5.45654e-06
2.28643e-05
-5.33006e-06
2.19987e-05
-4.92346e-06
2.13658e-05
-5.15116e-06
2.05978e-05
-5.18052e-06
1.99242e-05
-5.406e-06
1.90315e-05
-5.78639e-06
1.86254e-05
-6.25904e-06
1.81863e-05
-7.38263e-06
1.80208e-05
-8.09407e-06
1.78322e-05
-9.15592e-06
1.73177e-05
-9.60483e-06
1.69173e-05
-9.61056e-06
1.68363e-05
-1.01446e-05
1.7018e-05
-1.14021e-05
1.7305e-05
-1.13437e-05
1.78171e-05
-1.23304e-05
1.77402e-05
-1.17502e-05
1.82359e-05
-1.11373e-05
1.86355e-05
-1.03418e-05
1.94468e-05
-9.10795e-06
1.96103e-05
-7.45455e-06
2.02432e-05
-6.00495e-06
2.08198e-05
-3.73509e-06
2.2092e-05
-2.25923e-06
2.29979e-05
-1.04247e-06
2.3902e-05
1.44925e-06
2.3846e-05
4.28944e-06
2.4293e-05
6.37294e-06
2.38421e-05
9.14681e-06
2.30222e-05
1.05678e-05
2.17047e-05
1.24896e-05
2.04004e-05
1.18901e-05
1.9533e-05
1.10884e-05
1.78945e-05
1.09873e-05
1.78344e-05
1.03919e-05
1.80299e-05
1.07856e-05
1.84675e-05
1.01823e-05
1.93292e-05
1.14726e-05
1.89807e-05
1.35301e-05
1.91441e-05
1.34605e-05
1.83063e-05
1.44478e-05
1.73341e-05
1.44886e-05
1.71394e-05
1.5243e-05
1.58604e-05
1.55637e-05
1.56363e-05
1.4219e-05
1.51066e-05
1.54074e-05
1.41551e-05
1.60265e-05
1.39718e-05
1.7392e-05
1.30398e-05
1.91862e-05
1.28265e-05
1.97153e-05
1.23977e-05
2.26314e-05
1.1928e-05
2.38139e-05
1.16519e-05
2.49569e-05
1.1472e-05
2.35919e-05
1.11093e-05
2.37442e-05
1.10677e-05
1.84429e-05
9.59315e-06
1.70877e-05
9.6041e-06
9.80463e-06
7.99658e-06
1.32778e-05
7.72833e-06
3.87464e-06
8.01494e-06
1.04313e-05
2.02432e-05
8.46172e-09
1.99976e-05
1.92998e-07
1.98251e-05
1.37619e-07
1.97937e-05
-7.43401e-08
1.9844e-05
-2.52862e-07
1.99372e-05
-3.79549e-07
2.00107e-05
-3.9759e-07
2.00621e-05
-3.54069e-07
2.01029e-05
-2.733e-07
2.01301e-05
-1.66377e-07
2.01623e-05
-1.07375e-07
2.01744e-05
-4.97857e-08
2.01881e-05
-4.25286e-08
2.01945e-05
-3.83269e-08
2.02085e-05
-6.73189e-08
2.02224e-05
-9.1995e-08
2.02428e-05
-1.12996e-07
2.02727e-05
-1.18546e-07
2.03074e-05
-1.05185e-07
2.03488e-05
-8.90549e-08
2.03824e-05
-5.26258e-08
2.04265e-05
-3.92918e-08
2.04523e-05
-5.22802e-10
2.04837e-05
-1.17307e-08
2.05036e-05
3.23493e-09
2.05289e-05
-3.01975e-08
2.05396e-05
-4.36369e-08
2.05365e-05
-8.44124e-08
2.05258e-05
-1.28761e-07
2.04924e-05
-1.61386e-07
2.0475e-05
-2.08631e-07
2.0441e-05
-1.98792e-07
2.04239e-05
-2.11107e-07
2.03936e-05
-1.66964e-07
2.03728e-05
-1.46271e-07
2.035e-05
-9.39557e-08
2.03242e-05
-4.38865e-08
2.0305e-05
1.02072e-08
2.02764e-05
7.86334e-08
2.02585e-05
1.35564e-07
2.02307e-05
2.27337e-07
2.0223e-05
2.8186e-07
2.02183e-05
3.85493e-07
2.02381e-05
4.48629e-07
2.02833e-05
5.34695e-07
2.03609e-05
6.06304e-07
2.04645e-05
6.39923e-07
2.05956e-05
6.41775e-07
2.07554e-05
6.0904e-07
2.09007e-05
5.24632e-07
2.10418e-05
3.85568e-07
2.11661e-05
2.02055e-07
2.12504e-05
5.37699e-09
2.13102e-05
-2.36911e-07
2.1334e-05
-4.47779e-07
2.13417e-05
-6.60054e-07
2.13227e-05
-7.94445e-07
2.129e-05
-9.30457e-07
2.1243e-05
-9.63768e-07
2.11945e-05
-9.89492e-07
2.11466e-05
-9.61995e-07
2.10742e-05
-8.68961e-07
2.1033e-05
-8.2022e-07
2.09388e-05
-5.95587e-07
2.08947e-05
-5.46456e-07
2.08094e-05
-2.64949e-07
2.07509e-05
-1.59811e-07
2.07206e-05
7.10245e-08
2.06529e-05
2.87041e-07
2.07002e-05
3.64246e-07
2.06872e-05
6.35944e-07
2.08125e-05
5.90739e-07
2.09382e-05
7.65056e-07
2.11336e-05
7.36787e-07
2.13908e-05
6.2869e-07
2.16583e-05
6.28281e-07
2.20069e-05
2.32596e-07
2.2338e-05
1.28007e-07
2.27281e-05
-3.95766e-07
2.30573e-05
-7.28093e-07
2.34289e-05
-1.23579e-06
2.37019e-05
-1.76514e-06
2.39571e-05
-2.1752e-06
2.41649e-05
-2.71878e-06
2.42284e-05
-2.97052e-06
2.43996e-05
-3.33631e-06
2.43072e-05
-3.3824e-06
2.44145e-05
-3.38855e-06
2.43151e-05
-3.20144e-06
2.42982e-05
-2.88114e-06
2.42764e-05
-2.49247e-06
2.4154e-05
-1.90721e-06
2.42295e-05
-1.50002e-06
2.4249e-05
-8.29818e-07
2.43062e-05
-3.96614e-07
2.4552e-05
-1.38014e-07
2.45931e-05
6.03665e-07
2.47929e-05
3.93238e-07
2.5009e-05
6.80157e-07
2.51154e-05
8.12049e-07
2.53962e-05
2.17579e-07
2.56808e-05
3.04254e-07
2.59134e-05
-8.27359e-08
2.62536e-05
-8.27999e-07
2.67585e-05
-9.94755e-07
2.70635e-05
-1.68976e-06
2.75722e-05
-2.43922e-06
2.82247e-05
-2.85803e-06
2.86924e-05
-3.6605e-06
2.93754e-05
-4.32326e-06
3.0159e-05
-5.02555e-06
3.08275e-05
-5.68995e-06
3.16491e-05
-6.4316e-06
3.26105e-05
-7.17757e-06
3.33548e-05
-7.77415e-06
3.43555e-05
-8.53488e-06
3.52137e-05
-9.27571e-06
3.5987e-05
-9.71148e-06
3.68683e-05
-1.0527e-05
3.73902e-05
-1.10003e-05
3.79847e-05
-1.13941e-05
3.83758e-05
-1.20185e-05
3.83727e-05
-1.21538e-05
3.84233e-05
-1.22904e-05
3.8159e-05
-1.27283e-05
3.74734e-05
-1.21352e-05
3.70342e-05
-1.22933e-05
3.59784e-05
-1.19195e-05
3.48485e-05
-1.09526e-05
3.40518e-05
-1.09429e-05
3.24451e-05
-9.69374e-06
3.142e-05
-8.85989e-06
3.0366e-05
-8.43569e-06
2.88837e-05
-7.13582e-06
2.80385e-05
-6.58314e-06
2.69289e-05
-5.96995e-06
2.57608e-05
-5.1429e-06
2.49415e-05
-4.97456e-06
2.3998e-05
-4.51302e-06
2.28559e-05
-4.18797e-06
2.21119e-05
-4.17945e-06
2.09171e-05
-3.95632e-06
2.00852e-05
-4.34871e-06
1.92395e-05
-4.56022e-06
1.81373e-05
-4.68419e-06
1.77195e-05
-5.84131e-06
1.72992e-05
-6.96225e-06
1.67498e-05
-7.54467e-06
1.59394e-05
-8.34558e-06
1.53995e-05
-9.06489e-06
1.49995e-05
-9.21062e-06
1.50705e-05
-1.02156e-05
1.51878e-05
-1.15194e-05
1.51136e-05
-1.12694e-05
1.48772e-05
-1.2094e-05
1.47548e-05
-1.16278e-05
1.53633e-05
-1.17457e-05
1.58383e-05
-1.08169e-05
1.60132e-05
-9.28285e-06
1.60763e-05
-7.51763e-06
1.69659e-05
-6.89455e-06
1.8053e-05
-4.82223e-06
1.92524e-05
-3.45864e-06
2.00173e-05
-1.80735e-06
2.10882e-05
3.78339e-07
2.15023e-05
3.87538e-06
2.23156e-05
5.55958e-06
2.286e-05
8.60248e-06
2.21296e-05
1.12982e-05
2.12568e-05
1.33624e-05
1.96702e-05
1.34767e-05
1.85851e-05
1.21735e-05
1.67836e-05
1.27888e-05
1.52502e-05
1.19254e-05
1.52964e-05
1.07393e-05
1.50844e-05
1.03943e-05
1.61881e-05
1.03689e-05
1.68713e-05
1.28468e-05
1.71589e-05
1.3173e-05
1.76226e-05
1.39841e-05
1.65819e-05
1.55293e-05
1.65067e-05
1.53182e-05
1.60782e-05
1.59922e-05
1.53841e-05
1.49131e-05
1.5395e-05
1.53964e-05
1.46092e-05
1.68123e-05
1.43958e-05
1.76054e-05
1.38828e-05
1.96992e-05
1.33254e-05
2.02727e-05
1.30901e-05
2.28668e-05
1.30342e-05
2.38698e-05
1.32046e-05
2.47865e-05
1.32155e-05
2.3581e-05
1.26472e-05
2.43126e-05
1.28023e-05
1.82877e-05
1.19228e-05
1.79672e-05
1.1079e-05
1.06485e-05
1.15553e-05
1.28015e-05
9.68618e-06
5.74373e-06
6.00111e-06
1.17e-05
2.51493e-05
3.20963e-08
2.52163e-05
1.25932e-07
2.52947e-05
5.9284e-08
2.5377e-05
-1.56638e-07
2.54338e-05
-3.09655e-07
2.54777e-05
-4.23487e-07
2.54968e-05
-4.16721e-07
2.54952e-05
-3.52489e-07
2.55014e-05
-2.79472e-07
2.55034e-05
-1.6832e-07
2.55155e-05
-1.19532e-07
2.55211e-05
-5.53229e-08
2.55244e-05
-4.59122e-08
2.55311e-05
-4.49695e-08
2.55244e-05
-6.06057e-08
2.55272e-05
-9.48099e-08
2.55241e-05
-1.0995e-07
2.55343e-05
-1.28703e-07
2.55483e-05
-1.19235e-07
2.55714e-05
-1.12069e-07
2.55979e-05
-7.91421e-08
2.56199e-05
-6.1275e-08
2.56493e-05
-3.0005e-08
2.56635e-05
-2.58601e-08
2.5681e-05
-1.42853e-08
2.56879e-05
-3.71174e-08
2.56939e-05
-4.96165e-08
2.56846e-05
-7.50883e-08
2.56597e-05
-1.0392e-07
2.56283e-05
-1.29967e-07
2.55783e-05
-1.5865e-07
2.55426e-05
-1.63087e-07
2.54984e-05
-1.66913e-07
2.5471e-05
-1.39559e-07
2.54432e-05
-1.18423e-07
2.54218e-05
-7.25475e-08
2.54031e-05
-2.52437e-08
2.53837e-05
2.9673e-08
2.5364e-05
9.82638e-08
2.53428e-05
1.56776e-07
2.53242e-05
2.45912e-07
2.53091e-05
2.97015e-07
2.53129e-05
3.81661e-07
2.53198e-05
4.41716e-07
2.53654e-05
4.89147e-07
2.54151e-05
5.56536e-07
2.55102e-05
5.44838e-07
2.56027e-05
5.49286e-07
2.57152e-05
4.96563e-07
2.58439e-05
3.95949e-07
2.59209e-05
3.08512e-07
2.60257e-05
9.72834e-08
2.60684e-05
-3.72997e-08
2.61087e-05
-2.7718e-07
2.61101e-05
-4.4921e-07
2.60863e-05
-6.36224e-07
2.60634e-05
-7.71638e-07
2.60107e-05
-8.77715e-07
2.59541e-05
-9.07185e-07
2.59112e-05
-9.4657e-07
2.58297e-05
-8.80524e-07
2.57953e-05
-8.34547e-07
2.5716e-05
-7.40946e-07
2.56656e-05
-5.45147e-07
2.56119e-05
-4.92745e-07
2.55473e-05
-2.00326e-07
2.55318e-05
-1.44394e-07
2.54819e-05
1.21009e-07
2.54919e-05
2.77028e-07
2.55184e-05
3.37733e-07
2.55315e-05
6.22788e-07
2.56717e-05
4.50614e-07
2.57182e-05
7.18515e-07
2.59403e-05
5.14698e-07
2.60984e-05
4.7063e-07
2.63307e-05
3.95967e-07
2.66201e-05
-5.68278e-08
2.6825e-05
-7.69173e-08
2.7208e-05
-7.78758e-07
2.73864e-05
-9.06453e-07
2.77094e-05
-1.55877e-06
2.78988e-05
-1.95458e-06
2.80125e-05
-2.28888e-06
2.82135e-05
-2.91985e-06
2.81152e-05
-2.87222e-06
2.82086e-05
-3.42969e-06
2.80697e-05
-3.24344e-06
2.79434e-05
-3.2623e-06
2.79329e-05
-3.19092e-06
2.76604e-05
-2.60864e-06
2.7716e-05
-2.5481e-06
2.76145e-05
-1.80571e-06
2.76016e-05
-1.48704e-06
2.77536e-05
-9.81822e-07
2.77172e-05
-3.60234e-07
2.7898e-05
-3.18847e-07
2.81619e-05
3.39757e-07
2.81893e-05
3.6585e-07
2.85663e-05
3.03192e-07
2.87668e-05
6.11497e-07
2.89173e-05
6.70668e-08
2.93081e-05
-8.64953e-08
2.95732e-05
-3.47862e-07
2.98196e-05
-1.07439e-06
3.03001e-05
-1.47528e-06