/*--------------------------------*- C++ -*----------------------------------*\
| =========                 |                                                 |
| \\      /  F ield         | OpenFOAM: The Open Source CFD Toolbox           |
|  \\    /   O peration     | Version:  2.4.0                                 |
|   \\  /    A nd           | Web:      www.OpenFOAM.org                      |
|    \\/     M anipulation  |                                                 |
\*---------------------------------------------------------------------------*/
FoamFile
{
    version     2.0;
    format      ascii;
    class       volScalarField;
    location    "0.22";
    object      p;
}
// * * * * * * * * * * * * * * * * * * * * * * * * * * * * * * * * * * * * * //

dimensions      [0 2 -2 0 0 0 0];

internalField   nonuniform List<scalar> 
4400
(
-9.34596
-9.29554
-9.30391
-9.9644
-10.2011
-9.63322
-9.48682
-9.96033
-10.4117
-10.3628
-10.2879
-10.4407
-10.3741
-10.8826
-10.4115
-11.2359
-10.2853
-10.9814
-10.2199
-6.75223
-9.39544
-9.30267
-9.30297
-9.96758
-10.2058
-9.63256
-9.485
-9.95941
-10.4216
-10.3569
-10.3091
-10.424
-10.4324
-10.8219
-10.5028
-11.1111
-10.387
-10.9207
-10.4485
-9.44783
-9.42175
-9.30377
-9.29827
-9.96827
-10.2067
-9.63042
-9.47891
-9.96037
-10.4135
-10.3734
-10.2941
-10.4829
-10.3846
-10.909
-10.3355
-11.2036
-10.3244
-11.0944
-10.4132
-10.7462
-9.44639
-9.30966
-9.29676
-9.96977
-10.2099
-9.62987
-9.48324
-9.95721
-10.4321
-10.3498
-10.3499
-10.4012
-10.5093
-10.7453
-10.52
-11.0133
-10.4791
-10.8552
-10.8432
-11.5865
-9.46703
-9.3151
-9.29424
-9.97015
-10.2116
-9.62984
-9.47229
-9.96045
-10.4196
-10.3741
-10.314
-10.4711
-10.4311
-10.8375
-10.4278
-11.0253
-10.475
-10.9993
-10.9306
-11.8863
-9.48358
-9.32006
-9.29229
-9.97014
-10.2135
-9.6295
-9.48104
-9.95662
-10.4358
-10.3497
-10.3638
-10.3901
-10.5357
-10.7129
-10.5416
-10.9608
-10.6111
-10.9333
-11.0286
-12.267
-9.49642
-9.32443
-9.29071
-9.97014
-10.2148
-9.63015
-9.47515
-9.96049
-10.4266
-10.3669
-10.3357
-10.4283
-10.4941
-10.7261
-10.5712
-10.7897
-10.706
-10.9166
-11.1394
-12.3371
-9.50585
-9.32792
-9.28961
-9.97004
-10.216
-9.63015
-9.47696
-9.9583
-10.4348
-10.3538
-10.3614
-10.3886
-10.5349
-10.6993
-10.5807
-10.9696
-10.7029
-10.8939
-11.2221
-12.2223
-9.51204
-9.33039
-9.28889
-9.97003
-10.2165
-9.6309
-9.47433
-9.96063
-10.4308
-10.361
-10.3513
-10.3918
-10.5409
-10.6611
-10.6682
-10.6942
-10.7982
-10.9719
-11.0381
-12.2569
-9.51511
-9.33167
-9.28854
-9.97005
-10.2168
-9.6312
-9.47387
-9.96071
-10.4325
-10.3588
-10.3559
-10.3857
-10.5391
-10.6743
-10.6181
-10.933
-10.7759
-10.8822
-11.3645
-12.0789
-9.51511
-9.33172
-9.28852
-9.97022
-10.2166
-9.63177
-9.47296
-9.96218
-10.4311
-10.361
-10.3556
-10.3788
-10.5516
-10.6377
-10.6898
-10.6894
-10.8139
-11.0136
-10.9976
-11.9676
-9.51205
-9.33054
-9.28886
-9.97049
-10.2161
-9.6322
-9.47253
-9.96339
-10.4302
-10.3633
-10.3537
-10.3803
-10.5459
-10.6509
-10.6571
-10.8809
-10.8103
-10.8919
-11.2651
-11.8386
-9.50586
-9.32818
-9.28954
-9.97083
-10.2152
-9.6327
-9.47235
-9.9648
-10.4289
-10.3656
-10.353
-10.379
-10.5506
-10.6373
-10.6839
-10.7385
-10.8064
-10.9914
-11.0418
-11.6658
-9.49644
-9.32477
-9.29064
-9.97115
-10.2138
-9.63317
-9.47257
-9.96631
-10.4275
-10.3684
-10.3512
-10.3815
-10.5475
-10.6427
-10.6723
-10.8142
-10.8159
-10.9178
-11.0981
-11.5625
-9.4836
-9.32049
-9.29218
-9.97146
-10.2121
-9.63359
-9.47301
-9.96797
-10.4262
-10.3712
-10.35
-10.3836
-10.5472
-10.6422
-10.6787
-10.7751
-10.7953
-10.9403
-11.0456
-11.4211
-9.46705
-9.3156
-9.29415
-9.97159
-10.2103
-9.63426
-9.47373
-9.96899
-10.4249
-10.3738
-10.3488
-10.3864
-10.5453
-10.6452
-10.6737
-10.7863
-10.8033
-10.9269
-11.011
-11.3212
-9.44642
-9.31022
-9.29663
-9.97149
-10.2082
-9.63546
-9.47568
-9.97155
-10.4239
-10.3763
-10.3481
-10.3891
-10.544
-10.647
-10.6736
-10.7805
-10.7946
-10.9175
-10.9842
-11.2285
-9.42179
-9.30436
-9.29819
-9.96998
-10.2052
-9.63546
-9.47653
-9.97181
-10.4227
-10.3782
-10.3478
-10.3913
-10.5427
-10.6489
-10.6719
-10.778
-10.7915
-10.9102
-10.9611
-11.1566
-9.39548
-9.3033
-9.30285
-9.96946
-10.204
-9.63841
-9.47995
-9.97327
-10.4223
-10.3802
-10.3483
-10.3932
-10.5416
-10.6503
-10.6703
-10.7765
-10.7883
-10.9039
-10.9448
-11.1057
-9.34601
-9.29617
-9.30382
-9.96622
-10.1996
-9.63879
-9.48231
-9.97398
-10.4206
-10.3804
-10.3486
-10.3943
-10.5412
-10.6506
-10.6696
-10.7753
-10.787
-10.9005
-10.9362
-11.0797
-25.8634
-60.2722
-20.3691
-8.5737
-3.28777
-0.0745207
1.61459
2.36928
2.70191
2.84833
2.9057
2.92039
2.91499
2.90002
2.88033
2.85821
2.83477
2.81052
2.78575
2.76061
2.73518
2.7095
2.6836
2.65749
2.63118
2.60467
2.57796
2.55106
2.52397
2.49668
2.46919
2.44151
2.41364
2.38557
2.35731
2.32885
2.30018
2.27132
2.24225
2.21298
2.18351
2.15383
2.12395
2.09385
2.06354
2.03302
2.00228
1.97133
1.94016
1.90877
1.87716
1.84534
1.8133
1.78103
1.74853
1.7158
1.68284
1.64965
1.61622
1.58255
1.54865
1.5145
1.48011
1.44547
1.4106
1.37547
1.3401
1.30448
1.26861
1.23249
1.19611
1.15948
1.12259
1.08544
1.04803
1.01036
0.972422
0.934219
0.895747
0.857005
0.817991
0.778703
0.739139
0.699296
0.659174
0.61877
0.578081
0.537107
0.495844
0.454291
0.412445
0.370307
0.327869
0.285139
0.242099
0.198764
0.15513
0.11115
0.0668962
0.0223611
-22.2904
-50.3893
-19.7002
-8.20081
-3.33263
-0.236012
1.45065
2.24656
2.61659
2.78945
2.86544
2.89308
2.89656
2.88765
2.87206
2.85271
2.83111
2.8081
2.78415
2.75956
2.73449
2.70905
2.6833
2.6573
2.63106
2.60459
2.57791
2.55103
2.52394
2.49666
2.46918
2.44151
2.41364
2.38557
2.35731
2.32885
2.30018
2.27132
2.24225
2.21298
2.18351
2.15383
2.12395
2.09385
2.06354
2.03302
2.00228
1.97133
1.94016
1.90877
1.87716
1.84534
1.8133
1.78103
1.74853
1.7158
1.68284
1.64965
1.61622
1.58255
1.54865
1.5145
1.48011
1.44547
1.4106
1.37547
1.3401
1.30448
1.26861
1.23249
1.19611
1.15948
1.12259
1.08544
1.04803
1.01036
0.972422
0.934219
0.895748
0.857005
0.817991
0.778703
0.739139
0.699296
0.659174
0.618769
0.578082
0.537105
0.495845
0.45429
0.412446
0.370305
0.327869
0.285138
0.242099
0.198765
0.155129
0.111151
0.0668952
0.0223614
-19.5435
-41.2819
-19.044
-7.81184
-3.14593
-0.227903
1.37351
2.15144
2.53779
2.73238
2.826
2.86622
2.8784
2.87543
2.86389
2.84726
2.82749
2.8057
2.78257
2.75852
2.73381
2.70861
2.68301
2.65711
2.63093
2.60451
2.57786
2.55099
2.52392
2.49665
2.46918
2.4415
2.41363
2.38557
2.35731
2.32885
2.30018
2.27132
2.24225
2.21298
2.18351
2.15383
2.12394
2.09385
2.06354
2.03302
2.00228
1.97133
1.94016
1.90877
1.87717
1.84534
1.8133
1.78103
1.74853
1.7158
1.68284
1.64965
1.61622
1.58255
1.54865
1.5145
1.48011
1.44547
1.4106
1.37547
1.3401
1.30448
1.26861
1.23249
1.19611
1.15948
1.12259
1.08544
1.04803
1.01036
0.972422
0.934219
0.895748
0.857005
0.817991
0.778703
0.739139
0.699296
0.659174
0.618769
0.578082
0.537105
0.495845
0.45429
0.412446
0.370306
0.327869
0.285138
0.242099
0.198765
0.155129
0.111151
0.0668951
0.0223614
-17.4527
-34.299
-18.217
-7.84317
-3.34558
-0.447506
1.2376
2.05636
2.46457
2.67823
2.78787
2.84002
2.8606
2.86344
2.85585
2.8419
2.82393
2.80334
2.78101
2.7575
2.73314
2.70817
2.68273
2.65692
2.63081
2.60443
2.57781
2.55096
2.5239
2.49664
2.46917
2.4415
2.41363
2.38557
2.35731
2.32884
2.30018
2.27132
2.24225
2.21298
2.18351
2.15383
2.12394
2.09385
2.06354
2.03302
2.00228
1.97133
1.94016
1.90877
1.87717
1.84534
1.8133
1.78103
1.74853
1.7158
1.68284
1.64965
1.61622
1.58255
1.54864
1.5145
1.48011
1.44547
1.4106
1.37547
1.3401
1.30448
1.26861
1.23249
1.19611
1.15948
1.12259
1.08544
1.04803
1.01036
0.972423
0.934219
0.895748
0.857005
0.817991
0.778703
0.739139
0.699296
0.659174
0.618769
0.578082
0.537105
0.495845
0.45429
0.412446
0.370306
0.327869
0.285138
0.242099
0.198765
0.155129
0.111151
0.0668952
0.0223613
-15.8446
-28.674
-16.7481
-7.33066
-3.10811
-0.517498
1.08912
1.94706
2.38874
2.62477
2.75077
2.81459
2.84329
2.85175
2.84801
2.83666
2.82044
2.80103
2.77949
2.75649
2.73248
2.70774
2.68245
2.65674
2.63069
2.60436
2.57776
2.55093
2.52388
2.49662
2.46916
2.44149
2.41363
2.38556
2.3573
2.32884
2.30018
2.27132
2.24225
2.21298
2.18351
2.15383
2.12394
2.09385
2.06354
2.03302
2.00228
1.97133
1.94016
1.90877
1.87717
1.84534
1.8133
1.78103
1.74853
1.7158
1.68284
1.64965
1.61622
1.58255
1.54864
1.5145
1.48011
1.44547
1.4106
1.37547
1.3401
1.30448
1.26861
1.23249
1.19611
1.15948
1.12259
1.08544
1.04803
1.01036
0.972423
0.934219
0.895748
0.857005
0.817991
0.778703
0.739139
0.699296
0.659174
0.618769
0.578082
0.537105
0.495844
0.45429
0.412446
0.370306
0.327869
0.285138
0.242099
0.198764
0.155129
0.111151
0.0668952
0.0223613
-14.655
-24.4872
-15.9111
-7.38552
-3.05916
-0.529373
1.01184
1.87158
2.32505
2.57512
2.71509
2.78993
2.8265
2.8404
2.84039
2.83157
2.81705
2.79879
2.77801
2.75552
2.73184
2.70732
2.68217
2.65656
2.63058
2.60428
2.57771
2.5509
2.52386
2.49661
2.46915
2.44149
2.41362
2.38556
2.3573
2.32884
2.30018
2.27132
2.24225
2.21298
2.18351
2.15383
2.12394
2.09385
2.06354
2.03302
2.00228
1.97133
1.94016
1.90877
1.87717
1.84534
1.8133
1.78103
1.74853
1.7158
1.68284
1.64965
1.61622
1.58255
1.54864
1.5145
1.48011
1.44547
1.4106
1.37547
1.3401
1.30448
1.26861
1.23249
1.19611
1.15948
1.12259
1.08544
1.04803
1.01036
0.972423
0.934219
0.895748
0.857005
0.817991
0.778703
0.739139
0.699296
0.659174
0.618769
0.578082
0.537105
0.495844
0.45429
0.412446
0.370306
0.327869
0.285138
0.242099
0.198764
0.155129
0.111151
0.0668953
0.0223613
-14.0441
-21.4102
-14.8137
-7.08176
-3.05019
-0.712457
0.855964
1.77431
2.26078
2.52861
2.68167
2.76656
2.81044
2.8295
2.83305
2.82666
2.81378
2.79662
2.77657
2.75457
2.73122
2.70691
2.68191
2.65639
2.63047
2.60421
2.57767
2.55087
2.52384
2.4966
2.46914
2.44148
2.41362
2.38556
2.3573
2.32884
2.30018
2.27132
2.24225
2.21298
2.18351
2.15383
2.12394
2.09385
2.06354
2.03302
2.00228
1.97133
1.94016
1.90877
1.87717
1.84534
1.8133
1.78103
1.74853
1.7158
1.68284
1.64965
1.61622
1.58255
1.54864
1.5145
1.48011
1.44547
1.4106
1.37547
1.3401
1.30448
1.26861
1.23249
1.19611
1.15948
1.12259
1.08544
1.04803
1.01036
0.972423
0.934219
0.895748
0.857005
0.817991
0.778703
0.739139
0.699296
0.659174
0.618769
0.578082
0.537105
0.495844
0.45429
0.412445
0.370306
0.327869
0.285138
0.242099
0.198764
0.155129
0.111151
0.0668953
0.0223613
-13.5011
-18.86
-13.8905
-6.86775
-2.8606
-0.682283
0.801824
1.7011
2.19713
2.48129
2.64851
2.74384
2.79499
2.81905
2.82602
2.82195
2.81065
2.79454
2.7752
2.75367
2.73063
2.70652
2.68166
2.65623
2.63036
2.60414
2.57762
2.55084
2.52382
2.49658
2.46913
2.44148
2.41362
2.38556
2.3573
2.32884
2.30018
2.27132
2.24225
2.21298
2.18351
2.15383
2.12394
2.09385
2.06354
2.03302
2.00228
1.97133
1.94016
1.90877
1.87717
1.84534
1.8133
1.78103
1.74853
1.7158
1.68284
1.64965
1.61622
1.58255
1.54864
1.5145
1.48011
1.44547
1.4106
1.37547
1.3401
1.30448
1.26861
1.23249
1.19611
1.15948
1.12259
1.08544
1.04803
1.01036
0.972423
0.934219
0.895748
0.857005
0.817991
0.778703
0.739139
0.699296
0.659174
0.618769
0.578082
0.537105
0.495844
0.45429
0.412445
0.370306
0.327869
0.285138
0.242099
0.198764
0.155129
0.111151
0.0668954
0.0223612
-13.0909
-16.8889
-12.964
-6.7598
-2.94679
-0.775124
0.723172
1.6472
2.15126
2.44291
2.61918
2.72286
2.78048
2.80916
2.81935
2.81748
2.80767
2.79256
2.7739
2.75281
2.73006
2.70616
2.68142
2.65607
2.63026
2.60408
2.57758
2.55081
2.52381
2.49657
2.46913
2.44147
2.41361
2.38556
2.3573
2.32884
2.30018
2.27132
2.24225
2.21298
2.18351
2.15383
2.12394
2.09385
2.06354
2.03302
2.00228
1.97133
1.94016
1.90877
1.87717
1.84534
1.8133
1.78103
1.74853
1.7158
1.68284
1.64965
1.61622
1.58255
1.54864
1.5145
1.48011
1.44547
1.4106
1.37547
1.3401
1.30448
1.26861
1.23249
1.19611
1.15948
1.12259
1.08544
1.04803
1.01036
0.972423
0.934219
0.895748
0.857005
0.817991
0.778703
0.739139
0.699296
0.659174
0.618769
0.578082
0.537105
0.495844
0.45429
0.412445
0.370306
0.327869
0.285138
0.242099
0.198764
0.155129
0.111151
0.0668954
0.0223612
-12.5909
-15.3529
-12.1919
-6.4101
-2.70257
-0.733568
0.650064
1.55691
2.08826
2.40059
2.58994
2.70274
2.76674
2.79984
2.81306
2.81327
2.80486
2.7907
2.77266
2.752
2.72953
2.70581
2.68119
2.65593
2.63017
2.60401
2.57754
2.55079
2.52379
2.49656
2.46912
2.44147
2.41361
2.38555
2.3573
2.32884
2.30018
2.27132
2.24225
2.21298
2.18351
2.15383
2.12394
2.09385
2.06354
2.03302
2.00228
1.97133
1.94016
1.90877
1.87717
1.84534
1.8133
1.78103
1.74853
1.7158
1.68284
1.64965
1.61622
1.58255
1.54864
1.5145
1.48011
1.44547
1.41059
1.37547
1.3401
1.30448
1.26861
1.23249
1.19611
1.15948
1.12259
1.08544
1.04803
1.01036
0.972423
0.934219
0.895748
0.857005
0.817991
0.778703
0.739139
0.699296
0.659174
0.618769
0.578081
0.537105
0.495844
0.45429
0.412445
0.370306
0.327869
0.285138
0.242099
0.198764
0.155129
0.111151
0.0668955
0.0223612
-12.4089
-14.0673
-11.3924
-6.40386
-2.83493
-0.764192
0.606723
1.50907
2.04616
2.36667
2.5642
2.68433
2.75402
2.79117
2.8072
2.80934
2.80224
2.78896
2.77151
2.75124
2.72903
2.70548
2.68098
2.65579
2.63008
2.60396
2.5775
2.55076
2.52377
2.49655
2.46911
2.44146
2.41361
2.38555
2.3573
2.32884
2.30018
2.27132
2.24225
2.21298
2.18351
2.15383
2.12394
2.09385
2.06354
2.03302
2.00228
1.97133
1.94016
1.90877
1.87717
1.84534
1.8133
1.78103
1.74853
1.7158
1.68284
1.64965
1.61622
1.58255
1.54864
1.5145
1.48011
1.44547
1.41059
1.37547
1.3401
1.30448
1.26861
1.23249
1.19611
1.15948
1.12259
1.08544
1.04803
1.01036
0.972423
0.934219
0.895748
0.857005
0.817991
0.778703
0.739139
0.699296
0.659174
0.618769
0.578081
0.537106
0.495844
0.45429
0.412445
0.370306
0.327869
0.285138
0.242099
0.198764
0.155129
0.111151
0.0668955
0.0223612
-11.9782
-13.1542
-10.8253
-6.11538
-2.62896
-0.72834
0.55417
1.44352
1.99808
2.33283
2.53988
2.66723
2.74227
2.78318
2.8018
2.80572
2.79982
2.78736
2.77045
2.75054
2.72858
2.70518
2.68079
2.65566
2.62999
2.6039
2.57747
2.55074
2.52376
2.49654
2.46911
2.44146
2.41361
2.38555
2.3573
2.32884
2.30018
2.27131
2.24225
2.21298
2.18351
2.15383
2.12394
2.09385
2.06354
2.03302
2.00228
1.97133
1.94016
1.90877
1.87717
1.84534
1.8133
1.78103
1.74853
1.7158
1.68284
1.64965
1.61622
1.58255
1.54864
1.51449
1.48011
1.44547
1.41059
1.37547
1.3401
1.30448
1.26861
1.23249
1.19611
1.15948
1.12259
1.08544
1.04803
1.01036
0.972423
0.934219
0.895748
0.857005
0.817991
0.778703
0.739139
0.699296
0.659174
0.618769
0.578081
0.537106
0.495844
0.45429
0.412445
0.370306
0.327869
0.285138
0.242099
0.198764
0.155129
0.111151
0.0668955
0.0223611
-11.8339
-12.3244
-10.1854
-6.01589
-2.70434
-0.768547
0.502536
1.39065
1.95797
2.30344
2.51819
2.65177
2.7316
2.77591
2.79689
2.80242
2.79762
2.7859
2.76949
2.74991
2.72816
2.70491
2.68061
2.65555
2.62992
2.60385
2.57744
2.55072
2.52375
2.49653
2.4691
2.44146
2.41361
2.38555
2.35729
2.32884
2.30018
2.27131
2.24225
2.21298
2.18351
2.15383
2.12394
2.09385
2.06354
2.03302
2.00228
1.97133
1.94016
1.90877
1.87717
1.84534
1.8133
1.78103
1.74853
1.7158
1.68284
1.64965
1.61622
1.58255
1.54864
1.51449
1.48011
1.44547
1.41059
1.37547
1.3401
1.30448
1.26861
1.23249
1.19611
1.15948
1.12259
1.08544
1.04803
1.01036
0.972423
0.934219
0.895748
0.857005
0.817991
0.778703
0.739139
0.699296
0.659174
0.618769
0.578081
0.537106
0.495844
0.45429
0.412445
0.370306
0.327869
0.285138
0.242099
0.198764
0.155129
0.111151
0.0668955
0.0223611
-11.5452
-11.7083
-9.76278
-5.84842
-2.61202
-0.745288
0.470462
1.34478
1.92148
2.27694
2.49874
2.63791
2.72204
2.7694
2.79249
2.79946
2.79565
2.78459
2.76862
2.74934
2.72779
2.70467
2.68045
2.65544
2.62985
2.60381
2.57741
2.5507
2.52373
2.49653
2.4691
2.44145
2.4136
2.38555
2.35729
2.32884
2.30018
2.27131
2.24225
2.21298
2.18351
2.15383
2.12394
2.09385
2.06354
2.03302
2.00228
1.97133
1.94016
1.90877
1.87717
1.84534
1.8133
1.78103
1.74853
1.7158
1.68284
1.64965
1.61622
1.58255
1.54864
1.51449
1.48011
1.44547
1.41059
1.37547
1.3401
1.30448
1.26861
1.23249
1.19611
1.15948
1.12259
1.08544
1.04803
1.01036
0.972423
0.934219
0.895748
0.857005
0.817991
0.778703
0.739139
0.699296
0.659174
0.618769
0.578081
0.537106
0.495844
0.45429
0.412445
0.370306
0.327869
0.285138
0.242099
0.198764
0.155129
0.111151
0.0668956
0.0223611
-11.3799
-11.2159
-9.32409
-5.71753
-2.62452
-0.76843
0.431318
1.30196
1.88876
2.25363
2.4817
2.62574
2.71364
2.76369
2.78862
2.79687
2.79392
2.78344
2.76786
2.74884
2.72746
2.70445
2.68031
2.65535
2.62979
2.60377
2.57738
2.55069
2.52372
2.49652
2.46909
2.44145
2.4136
2.38555
2.35729
2.32884
2.30018
2.27131
2.24225
2.21298
2.18351
2.15383
2.12394
2.09385
2.06354
2.03302
2.00228
1.97133
1.94016
1.90877
1.87717
1.84534
1.8133
1.78103
1.74853
1.7158
1.68284
1.64965
1.61622
1.58255
1.54864
1.51449
1.48011
1.44547
1.41059
1.37547
1.3401
1.30448
1.26861
1.23249
1.19611
1.15948
1.12259
1.08544
1.04803
1.01036
0.972423
0.934219
0.895748
0.857005
0.817991
0.778703
0.739139
0.699296
0.659174
0.618769
0.578081
0.537106
0.495844
0.45429
0.412445
0.370306
0.327869
0.285138
0.242099
0.198764
0.155129
0.111151
0.0668956
0.0223611
-11.2117
-10.8199
-9.00154
-5.61126
-2.60985
-0.771328
0.404573
1.26682
1.86076
2.23365
2.46711
2.61531
2.70645
2.7588
2.78532
2.79465
2.79244
2.78245
2.76721
2.74841
2.72718
2.70427
2.68019
2.65527
2.62974
2.60374
2.57736
2.55067
2.52372
2.49652
2.46909
2.44145
2.4136
2.38555
2.35729
2.32884
2.30018
2.27131
2.24225
2.21298
2.18351
2.15383
2.12394
2.09385
2.06354
2.03302
2.00228
1.97133
1.94016
1.90877
1.87717
1.84534
1.8133
1.78102
1.74853
1.7158
1.68284
1.64965
1.61622
1.58255
1.54864
1.51449
1.48011
1.44547
1.41059
1.37547
1.3401
1.30448
1.26861
1.23249
1.19611
1.15948
1.12259
1.08544
1.04803
1.01036
0.972423
0.934219
0.895748
0.857005
0.817991
0.778703
0.739139
0.699296
0.659174
0.618769
0.578081
0.537106
0.495844
0.45429
0.412445
0.370306
0.327869
0.285138
0.242099
0.198764
0.155129
0.111151
0.0668956
0.0223611
-11.0772
-10.5228
-8.73264
-5.52161
-2.61247
-0.785143
0.378035
1.23608
1.83683
2.2169
2.455
2.60666
2.7005
2.75475
2.78258
2.79281
2.79121
2.78164
2.76668
2.74806
2.72695
2.70412
2.68009
2.65521
2.6297
2.60371
2.57735
2.55066
2.52371
2.49651
2.46909
2.44145
2.4136
2.38555
2.35729
2.32884
2.30018
2.27131
2.24225
2.21298
2.18351
2.15383
2.12394
2.09385
2.06354
2.03302
2.00228
1.97133
1.94016
1.90877
1.87717
1.84534
1.8133
1.78102
1.74853
1.7158
1.68284
1.64965
1.61622
1.58255
1.54864
1.51449
1.4801
1.44547
1.41059
1.37547
1.3401
1.30448
1.26861
1.23249
1.19611
1.15948
1.12259
1.08544
1.04803
1.01036
0.972423
0.934219
0.895748
0.857005
0.817991
0.778703
0.739139
0.699296
0.659174
0.618769
0.578081
0.537106
0.495844
0.45429
0.412445
0.370306
0.327869
0.285138
0.242099
0.198764
0.155129
0.111151
0.0668957
0.022361
-10.9716
-10.301
-8.53075
-5.45709
-2.62032
-0.799503
0.355802
1.2111
1.81743
2.20347
2.44539
2.59984
2.69581
2.75158
2.78044
2.79137
2.79026
2.781
2.76626
2.74778
2.72676
2.704
2.68001
2.65516
2.62967
2.60369
2.57733
2.55066
2.5237
2.49651
2.46908
2.44144
2.4136
2.38555
2.35729
2.32883
2.30018
2.27131
2.24225
2.21298
2.18351
2.15383
2.12394
2.09385
2.06354
2.03302
2.00228
1.97133
1.94016
1.90877
1.87717
1.84534
1.8133
1.78102
1.74853
1.7158
1.68284
1.64965
1.61622
1.58255
1.54864
1.51449
1.4801
1.44547
1.41059
1.37547
1.3401
1.30448
1.26861
1.23249
1.19611
1.15948
1.12259
1.08544
1.04803
1.01036
0.972423
0.934219
0.895748
0.857005
0.817991
0.778703
0.739139
0.699296
0.659174
0.618769
0.578081
0.537106
0.495844
0.45429
0.412445
0.370306
0.327869
0.285138
0.242099
0.198764
0.155129
0.111151
0.0668957
0.022361
-10.8977
-10.1523
-8.39044
-5.41391
-2.63307
-0.815869
0.336996
1.19193
1.80285
2.19354
2.43839
2.59491
2.69243
2.74929
2.7789
2.79034
2.78957
2.78055
2.76596
2.74758
2.72664
2.70392
2.67996
2.65512
2.62964
2.60368
2.57732
2.55065
2.5237
2.4965
2.46908
2.44144
2.4136
2.38555
2.35729
2.32883
2.30018
2.27131
2.24225
2.21298
2.18351
2.15383
2.12394
2.09385
2.06354
2.03302
2.00228
1.97133
1.94016
1.90877
1.87717
1.84534
1.8133
1.78102
1.74853
1.7158
1.68284
1.64965
1.61622
1.58255
1.54864
1.51449
1.4801
1.44547
1.41059
1.37547
1.3401
1.30448
1.26861
1.23249
1.19611
1.15948
1.12259
1.08544
1.04803
1.01036
0.972423
0.934219
0.895748
0.857005
0.817991
0.778703
0.739139
0.699296
0.659174
0.618769
0.578081
0.537106
0.495844
0.45429
0.412445
0.370306
0.327869
0.285138
0.242099
0.198764
0.155129
0.111151
0.0668957
0.022361
-10.8596
-10.0779
-8.32002
-5.39491
-2.64671
-0.831373
0.32289
1.17932
1.79346
2.18723
2.43407
2.59191
2.6904
2.74793
2.77799
2.78973
2.78916
2.78028
2.76578
2.74747
2.72656
2.70387
2.67993
2.6551
2.62963
2.60367
2.57732
2.55065
2.5237
2.4965
2.46908
2.44144
2.4136
2.38555
2.35729
2.32883
2.30018
2.27131
2.24225
2.21298
2.18351
2.15383
2.12394
2.09385
2.06354
2.03302
2.00228
1.97133
1.94016
1.90877
1.87717
1.84534
1.8133
1.78102
1.74853
1.7158
1.68284
1.64965
1.61622
1.58255
1.54864
1.51449
1.4801
1.44547
1.41059
1.37547
1.3401
1.30448
1.26861
1.23249
1.19611
1.15948
1.12259
1.08544
1.04803
1.01036
0.972423
0.934219
0.895748
0.857005
0.817991
0.778703
0.739139
0.699296
0.659174
0.618769
0.578081
0.537106
0.495844
0.45429
0.412445
0.370306
0.327869
0.285138
0.242099
0.198764
0.155129
0.111151
0.0668957
0.0223609
-22.0392
-24.9068
-12.6005
-3.45501
1.48316
3.93836
4.45566
4.32628
4.02492
3.72954
3.49017
3.30831
3.17267
3.07119
2.99396
2.93355
2.88463
2.84346
2.80747
2.7749
2.74455
2.71562
2.68759
2.66008
2.63285
2.60574
2.57865
2.5515
2.52425
2.49685
2.46931
2.44159
2.41369
2.38561
2.35733
2.32886
2.30019
2.27133
2.24226
2.21299
2.18351
2.15383
2.12395
2.09385
2.06354
2.03302
2.00228
1.97133
1.94016
1.90877
1.87717
1.84535
1.8133
1.78103
1.74853
1.7158
1.68284
1.64965
1.61622
1.58255
1.54864
1.51449
1.4801
1.44547
1.41059
1.37547
1.3401
1.30448
1.26861
1.23249
1.19611
1.15948
1.12259
1.08544
1.04803
1.01036
0.972422
0.934219
0.895747
0.857006
0.817991
0.778703
0.739139
0.699296
0.659174
0.618769
0.57808
0.537107
0.495843
0.454291
0.412444
0.370307
0.327868
0.285138
0.242099
0.198763
0.15513
0.11115
0.0668967
0.0223606
-22.2554
-25.3116
-12.7918
-3.51593
1.44644
3.91932
4.43989
4.31359
4.01544
3.72282
3.48553
3.30517
3.17056
3.06978
2.99302
2.93293
2.88422
2.84319
2.80729
2.77478
2.74447
2.71557
2.68756
2.66006
2.63284
2.60574
2.57865
2.5515
2.52424
2.49685
2.4693
2.44159
2.41369
2.38561
2.35733
2.32886
2.30019
2.27133
2.24226
2.21299
2.18351
2.15383
2.12395
2.09385
2.06354
2.03302
2.00228
1.97133
1.94016
1.90877
1.87717
1.84535
1.8133
1.78103
1.74853
1.7158
1.68284
1.64965
1.61622
1.58255
1.54864
1.51449
1.4801
1.44547
1.41059
1.37547
1.3401
1.30448
1.26861
1.23249
1.19611
1.15948
1.12259
1.08544
1.04803
1.01036
0.972422
0.934219
0.895747
0.857006
0.817991
0.778703
0.739139
0.699296
0.659174
0.61877
0.57808
0.537107
0.495843
0.454291
0.412444
0.370307
0.327868
0.285138
0.242099
0.198763
0.15513
0.111149
0.0668967
0.0223607
-22.7058
-26.1537
-13.1957
-3.64424
1.3706
3.88131
4.40938
4.28991
3.99825
3.71088
3.47744
3.29973
3.16694
3.06737
2.99142
2.93187
2.88352
2.84273
2.80699
2.77458
2.74434
2.71549
2.6875
2.66002
2.63281
2.60572
2.57864
2.55149
2.52424
2.49685
2.4693
2.44159
2.41369
2.3856
2.35733
2.32886
2.30019
2.27133
2.24226
2.21299
2.18351
2.15383
2.12395
2.09385
2.06354
2.03302
2.00228
1.97133
1.94016
1.90877
1.87717
1.84534
1.8133
1.78103
1.74853
1.7158
1.68284
1.64965
1.61622
1.58255
1.54864
1.51449
1.4801
1.44547
1.41059
1.37547
1.3401
1.30448
1.26861
1.23249
1.19611
1.15948
1.12259
1.08544
1.04803
1.01036
0.972422
0.934219
0.895747
0.857006
0.817991
0.778703
0.739139
0.699296
0.659174
0.61877
0.57808
0.537107
0.495843
0.454291
0.412444
0.370307
0.327868
0.285138
0.242099
0.198763
0.15513
0.111149
0.0668967
0.0223607
-23.4233
-27.4879
-13.8652
-3.85745
1.25064
3.82268
4.36363
4.25524
3.97351
3.69391
3.46602
3.29211
3.16186
3.064
2.98919
2.93039
2.88255
2.84209
2.80656
2.7743
2.74416
2.71537
2.68742
2.65997
2.63278
2.6057
2.57862
2.55148
2.52423
2.49685
2.4693
2.44158
2.41369
2.3856
2.35733
2.32886
2.30019
2.27133
2.24226
2.21299
2.18351
2.15383
2.12395
2.09385
2.06354
2.03302
2.00228
1.97133
1.94016
1.90877
1.87717
1.84534
1.8133
1.78103
1.74853
1.7158
1.68284
1.64965
1.61622
1.58255
1.54864
1.51449
1.4801
1.44547
1.41059
1.37547
1.3401
1.30448
1.26861
1.23249
1.19611
1.15948
1.12259
1.08544
1.04803
1.01036
0.972422
0.934219
0.895747
0.857006
0.817991
0.778703
0.739139
0.699296
0.659174
0.61877
0.57808
0.537107
0.495843
0.454291
0.412444
0.370307
0.327868
0.285138
0.242099
0.198763
0.15513
0.111149
0.0668967
0.0223607
-24.3777
-29.3944
-14.8753
-4.17932
1.08019
3.74165
4.30192
4.20929
3.94111
3.67189
3.45129
3.28231
3.15536
3.05969
2.98633
2.9285
2.8813
2.84126
2.80602
2.77394
2.74392
2.71522
2.68732
2.65991
2.63274
2.60567
2.57861
2.55147
2.52423
2.49684
2.4693
2.44158
2.41369
2.3856
2.35733
2.32886
2.30019
2.27133
2.24226
2.21299
2.18351
2.15383
2.12395
2.09385
2.06354
2.03302
2.00228
1.97133
1.94016
1.90877
1.87717
1.84534
1.8133
1.78103
1.74853
1.7158
1.68284
1.64965
1.61622
1.58255
1.54864
1.51449
1.4801
1.44547
1.41059
1.37547
1.3401
1.30448
1.26861
1.23249
1.19611
1.15948
1.12259
1.08544
1.04803
1.01036
0.972422
0.934219
0.895747
0.857006
0.817991
0.778703
0.739139
0.699296
0.659174
0.61877
0.57808
0.537107
0.495843
0.454291
0.412444
0.370307
0.327868
0.285138
0.242099
0.198763
0.155131
0.111149
0.0668967
0.0223607
-25.7359
-31.9142
-16.299
-4.61682
0.852295
3.63535
4.22376
4.15205
3.9012
3.64495
3.43334
3.2704
3.14746
3.05446
2.98287
2.92621
2.87978
2.84026
2.80536
2.77351
2.74364
2.71503
2.6872
2.65983
2.63269
2.60564
2.57859
2.55146
2.52422
2.49684
2.4693
2.44158
2.41369
2.3856
2.35733
2.32886
2.30019
2.27133
2.24226
2.21299
2.18351
2.15383
2.12395
2.09385
2.06354
2.03302
2.00228
1.97133
1.94016
1.90877
1.87717
1.84534
1.8133
1.78103
1.74853
1.7158
1.68284
1.64965
1.61622
1.58255
1.54864
1.51449
1.4801
1.44547
1.41059
1.37547
1.3401
1.30448
1.26861
1.23249
1.19611
1.15948
1.12259
1.08544
1.04803
1.01036
0.972422
0.934219
0.895747
0.857006
0.817991
0.778703
0.739139
0.699296
0.659174
0.61877
0.57808
0.537107
0.495843
0.454291
0.412444
0.370307
0.327868
0.285138
0.242099
0.198763
0.155131
0.111149
0.0668967
0.0223608
-27.265
-34.9687
-18.1663
-5.11068
0.566102
3.49862
4.12833
4.08344
3.85387
3.61321
3.41227
3.25645
3.13823
3.04835
2.97883
2.92354
2.87802
2.8391
2.8046
2.77301
2.74331
2.71482
2.68706
2.65974
2.63263
2.6056
2.57856
2.55144
2.52421
2.49683
2.46929
2.44158
2.41368
2.3856
2.35733
2.32886
2.30019
2.27133
2.24226
2.21299
2.18351
2.15383
2.12395
2.09385
2.06354
2.03302
2.00228
1.97133
1.94016
1.90877
1.87717
1.84534
1.8133
1.78103
1.74853
1.7158
1.68284
1.64965
1.61622
1.58255
1.54864
1.51449
1.48011
1.44547
1.41059
1.37547
1.3401
1.30448
1.26861
1.23249
1.19611
1.15948
1.12259
1.08544
1.04803
1.01036
0.972422
0.934219
0.895747
0.857006
0.817991
0.778703
0.739139
0.699296
0.659174
0.61877
0.57808
0.537107
0.495843
0.454291
0.412444
0.370307
0.327868
0.285138
0.242099
0.198763
0.155131
0.111149
0.0668967
0.0223608
-29.3877
-38.3626
-20.6332
-5.58092
0.230785
3.3248
4.01458
4.00342
3.7993
3.57684
3.38823
3.24056
3.12772
3.04139
2.97422
2.92049
2.876
2.83777
2.80372
2.77243
2.74294
2.71457
2.6869
2.65963
2.63256
2.60556
2.57853
2.55142
2.5242
2.49682
2.46929
2.44158
2.41368
2.3856
2.35733
2.32886
2.30019
2.27133
2.24226
2.21299
2.18351
2.15383
2.12395
2.09385
2.06354
2.03302
2.00228
1.97133
1.94016
1.90877
1.87717
1.84534
1.8133
1.78103
1.74853
1.7158
1.68284
1.64965
1.61622
1.58255
1.54864
1.5145
1.48011
1.44547
1.41059
1.37547
1.3401
1.30448
1.26861
1.23249
1.19611
1.15948
1.12259
1.08544
1.04803
1.01036
0.972422
0.934219
0.895747
0.857006
0.817991
0.778703
0.739139
0.699296
0.659174
0.61877
0.57808
0.537107
0.495843
0.454291
0.412444
0.370307
0.327868
0.285138
0.242099
0.198763
0.155131
0.111149
0.0668967
0.0223608
-32.0307
-41.8697
-23.9513
-6.06558
-0.144122
3.10815
3.88096
3.91201
3.7377
3.53607
3.36135
3.22282
3.11599
3.03363
2.96909
2.9171
2.87376
2.83629
2.80275
2.77179
2.74252
2.7143
2.68672
2.65952
2.63249
2.60551
2.5785
2.5514
2.52418
2.49682
2.46928
2.44157
2.41368
2.3856
2.35733
2.32886
2.30019
2.27133
2.24226
2.21299
2.18351
2.15383
2.12395
2.09385
2.06354
2.03302
2.00228
1.97133
1.94016
1.90877
1.87717
1.84534
1.8133
1.78103
1.74853
1.7158
1.68284
1.64965
1.61622
1.58255
1.54864
1.5145
1.48011
1.44547
1.41059
1.37547
1.3401
1.30448
1.26861
1.23249
1.19611
1.15948
1.12259
1.08544
1.04803
1.01036
0.972422
0.934219
0.895747
0.857006
0.817991
0.778703
0.739139
0.699296
0.659174
0.61877
0.57808
0.537107
0.495843
0.454291
0.412444
0.370307
0.327868
0.285138
0.242099
0.198763
0.155131
0.111149
0.0668967
0.0223608
-34.7447
-45.5719
-28.1232
-6.68053
-0.542354
2.8464
3.72534
3.80916
3.66939
3.49114
3.33182
3.20335
3.10313
3.02512
2.96346
2.91337
2.8713
2.83466
2.80168
2.77109
2.74205
2.714
2.68653
2.65939
2.63241
2.60546
2.57847
2.55138
2.52417
2.49681
2.46928
2.44157
2.41368
2.3856
2.35733
2.32886
2.30019
2.27133
2.24226
2.21299
2.18351
2.15383
2.12395
2.09385
2.06354
2.03302
2.00228
1.97133
1.94016
1.90877
1.87717
1.84534
1.8133
1.78103
1.74853
1.7158
1.68284
1.64965
1.61622
1.58255
1.54864
1.5145
1.48011
1.44547
1.41059
1.37547
1.3401
1.30448
1.26861
1.23249
1.19611
1.15948
1.12259
1.08544
1.04803
1.01036
0.972422
0.934219
0.895747
0.857006
0.817991
0.778703
0.739139
0.699296
0.659174
0.61877
0.57808
0.537107
0.495843
0.454291
0.412444
0.370307
0.327868
0.285139
0.242099
0.198763
0.155131
0.111149
0.0668967
0.0223608
-38.9641
-49.9367
-31.8539
-7.42692
-0.924494
2.5481
3.54651
3.69494
3.59473
3.44234
3.29983
3.18229
3.08922
3.01592
2.95736
2.90934
2.86863
2.8329
2.80052
2.77033
2.74155
2.71367
2.68631
2.65925
2.63232
2.6054
2.57843
2.55136
2.52416
2.4968
2.46927
2.44156
2.41367
2.3856
2.35732
2.32886
2.30019
2.27132
2.24226
2.21299
2.18351
2.15383
2.12395
2.09385
2.06354
2.03302
2.00228
1.97133
1.94016
1.90877
1.87717
1.84534
1.8133
1.78103
1.74853
1.7158
1.68284
1.64965
1.61622
1.58255
1.54864
1.5145
1.48011
1.44547
1.41059
1.37547
1.3401
1.30448
1.26861
1.23249
1.19611
1.15948
1.12259
1.08544
1.04803
1.01036
0.972422
0.934219
0.895747
0.857006
0.817991
0.778703
0.739139
0.699296
0.659174
0.61877
0.57808
0.537107
0.495843
0.454291
0.412444
0.370307
0.327868
0.285139
0.242099
0.198763
0.155131
0.111149
0.0668968
0.0223608
-42.3075
-52.6302
-34.0304
-8.2985
-1.27896
2.23451
3.34797
3.57001
3.51423
3.39003