/*--------------------------------*- C++ -*----------------------------------*\
| =========                 |                                                 |
| \\      /  F ield         | OpenFOAM: The Open Source CFD Toolbox           |
|  \\    /   O peration     | Version:  2.4.0                                 |
|   \\  /    A nd           | Web:      www.OpenFOAM.org                      |
|    \\/     M anipulation  |                                                 |
\*---------------------------------------------------------------------------*/
FoamFile
{
    version     2.0;
    format      ascii;
    class       volVectorField;
    location    "0.22";
    object      U;
}
// * * * * * * * * * * * * * * * * * * * * * * * * * * * * * * * * * * * * * //

dimensions      [0 1 -1 0 0 0 0];

internalField   nonuniform List<vector> 
4400
(
(9.98033 0.0106708 0)
(9.86969 0.0155026 0)
(9.69045 0.0112139 0)
(9.7643 0.0113984 0)
(9.72021 0.0173078 0)
(9.47768 0.0180955 0)
(9.31491 0.0130037 0)
(9.37487 0.010338 0)
(9.28107 -0.00107739 0)
(9.40188 0.0271163 0)
(9.03369 -0.0556449 0)
(9.62908 0.121415 0)
(8.62275 -0.200497 0)
(10.0878 0.276604 0)
(8.18747 -0.268645 0)
(10.045 0.165234 0)
(8.81144 -0.056989 0)
(9.07313 0.0115699 0)
(9.49701 -0.141897 0)
(9.45201 0.0969614 0)
(10.025 0.0163169 0)
(10.0261 0.0239091 0)
(9.94273 0.0161477 0)
(10.0824 0.0164875 0)
(10.1327 0.0244029 0)
(10.0319 0.0261576 0)
(9.9388 0.0164078 0)
(10.1384 0.0141494 0)
(9.92707 0.00551647 0)
(10.4125 0.00610962 0)
(9.44481 0.0112551 0)
(11.0181 -0.028026 0)
(8.68236 0.0760503 0)
(11.6392 -0.114833 0)
(8.55527 0.158266 0)
(11.0365 -0.148171 0)
(9.73929 0.0847716 0)
(10.0864 0.0134441 0)
(10.3225 -0.0096033 0)
(9.81596 -0.049176 0)
(10.0247 0.0102282 0)
(10.0253 0.0171567 0)
(9.943 0.0108311 0)
(10.0826 0.0115163 0)
(10.1413 0.0159052 0)
(10.0378 0.0206039 0)
(9.97648 0.0030903 0)
(10.1071 0.0286629 0)
(10.0666 -0.0385581 0)
(10.1817 0.0918125 0)
(9.95111 -0.149186 0)
(10.26 0.235187 0)
(9.87151 -0.284168 0)
(10.4036 0.281056 0)
(9.75104 -0.175064 0)
(10.5321 -0.00132842 0)
(9.74814 0.0374197 0)
(10.1313 0.00626547 0)
(10.8961 -0.0954793 0)
(9.13145 -0.119022 0)
(10.0249 0.00809725 0)
(10.0233 0.0162494 0)
(9.94 0.0112959 0)
(10.081 0.0111223 0)
(10.1387 0.0156387 0)
(10.0382 0.0194364 0)
(9.96647 0.00892952 0)
(10.1248 0.016783 0)
(10.0201 -0.00688174 0)
(10.2762 0.0269681 0)
(9.76914 -0.0281306 0)
(10.5428 0.0422854 0)
(9.47024 -0.0370746 0)
(10.7757 0.0434638 0)
(9.51498 -0.0254716 0)
(10.424 0.0279351 0)
(10.0924 -0.0263722 0)
(10.0858 -0.0175381 0)
(10.0747 -0.00302121 0)
(10.602 -0.285197 0)
(10.0251 0.00626016 0)
(10.0215 0.0137121 0)
(9.93761 0.00940657 0)
(10.0789 0.00946681 0)
(10.1384 0.0114116 0)
(10.0317 0.0185056 0)
(9.97377 -0.000909976 0)
(10.0983 0.0314793 0)
(10.0762 -0.0455146 0)
(10.1556 0.0978804 0)
(10.0019 -0.15192 0)
(10.161 0.21876 0)
(10.0402 -0.240269 0)
(10.1476 0.186297 0)
(10.056 -0.0570894 0)
(10.2645 -0.0942692 0)
(9.90076 0.0527222 0)
(10.27 0.0560776 0)
(10.4659 -0.214691 0)
(9.69725 -0.258441 0)
(10.0252 0.00467438 0)
(10.0202 0.0111255 0)
(9.93555 0.00785213 0)
(10.0776 0.0075275 0)
(10.137 0.00926971 0)
(10.0304 0.0142528 0)
(9.97019 0.00250785 0)
(10.1017 0.0184488 0)
(10.0627 -0.0175462 0)
(10.184 0.042079 0)
(9.93874 -0.0566613 0)
(10.2675 0.0882228 0)
(9.85804 -0.110753 0)
(10.3277 0.14933 0)
(9.89605 -0.168568 0)
(10.1722 0.174197 0)
(10.1605 -0.161103 0)
(9.99431 0.00292121 0)
(10.2375 -0.0100922 0)
(10.2695 -0.470255 0)
(10.0253 0.00336388 0)
(10.0193 0.00863892 0)
(9.93403 0.0060773 0)
(10.0763 0.00613935 0)
(10.1368 0.00634661 0)
(10.0271 0.0134285 0)
(9.97263 -0.00367468 0)
(10.0914 0.026364 0)
(10.0819 -0.0390475 0)
(10.1442 0.0791461 0)
(10.0113 -0.118661 0)
(10.1501 0.161942 0)
(10.0342 -0.165489 0)
(10.134 0.101556 0)
(10.0594 0.0161809 0)
(10.1959 -0.115053 0)
(9.93652 0.038459 0)
(10.2588 0.0894633 0)
(10.2565 -0.342273 0)
(9.934 -0.217835 0)
(10.0254 0.00226357 0)
(10.0186 0.00616134 0)
(9.93289 0.00436923 0)
(10.0754 0.0045245 0)
(10.1363 0.00431058 0)
(10.0256 0.00978874 0)
(9.97234 -0.00220293 0)
(10.0891 0.0182846 0)
(10.0837 -0.0244461 0)
(10.1405 0.0496724 0)
(10.0144 -0.0721495 0)
(10.1455 0.109176 0)
(10.0308 -0.138752 0)
(10.1223 0.175684 0)
(10.0866 -0.190917 0)
(10.0505 0.163289 0)
(10.1931 -0.140197 0)
(9.93696 -0.0885405 0)
(10.2285 0.0894322 0)
(10.2797 -0.485693 0)
(10.0255 0.001294 0)
(10.0182 0.00373738 0)
(9.93218 0.00253955 0)
(10.0747 0.00303058 0)
(10.1362 0.00180299 0)
(10.0239 0.00773692 0)
(9.9735 -0.00552616 0)
(10.0847 0.019365 0)
(10.0904 -0.0307196 0)
(10.1287 0.0575718 0)
(10.0311 -0.0834631 0)
(10.124 0.109602 0)
(10.0523 -0.106183 0)
(10.1101 0.0610344 0)
(10.065 0.0106099 0)
(10.127 -0.0724056 0)
(10.0063 -0.00929361 0)
(10.1843 0.0962109 0)
(10.1141 -0.363243 0)
(9.83422 -0.31913 0)
(10.0255 0.000403052 0)
(10.018 0.00132026 0)
(9.93185 0.00069415 0)
(10.0743 0.00143772 0)
(10.1363 -0.00031668 0)
(10.023 0.00469518 0)
(9.97439 -0.00605609 0)
(10.082 0.0151076 0)
(10.0947 -0.0255522 0)
(10.121 0.0463082 0)
(10.043 -0.0690427 0)
(10.1057 0.0999019 0)
(10.0759 -0.120951 0)
(10.074 0.132247 0)
(10.1143 -0.128544 0)
(10.0585 0.0937257 0)
(10.1086 -0.0775464 0)
(10.0037 -0.13487 0)
(10.1707 0.0703882 0)
(10.1591 -0.417107 0)
(10.0255 -0.000464571 0)
(10.0179 -0.00108841 0)
(9.93191 -0.00117263 0)
(10.0742 -0.000110798 0)
(10.1366 -0.00254828 0)
(10.0224 0.00204119 0)
(9.97563 -0.00767771 0)
(10.0798 0.0129489 0)
(10.0985 -0.0248151 0)
(10.1154 0.0415157 0)
(10.0499 -0.0600696 0)
(10.0986 0.0785349 0)
(10.0781 -0.0785919 0)
(10.079 0.0564103 0)
(10.0931 -0.0117609 0)
(10.0678 -0.0332665 0)
(10.0738 -0.0331068 0)
(10.075 0.0385614 0)
(10.0578 -0.259255 0)
(9.93823 -0.346903 0)
(10.0255 -0.00135475 0)
(10.0181 -0.00350835 0)
(9.93235 -0.0030162 0)
(10.0744 -0.00170205 0)
(10.1371 -0.00470787 0)
(10.0222 -0.000823565 0)
(9.97707 -0.00881259 0)
(10.0781 0.0099171 0)
(10.102 -0.0226359 0)
(10.1105 0.0356093 0)
(10.057 -0.0534692 0)
(10.0896 0.0727926 0)
(10.0882 -0.0813831 0)
(10.0658 0.0794089 0)
(10.1076 -0.0669328 0)
(10.0649 0.0340231 0)
(10.0663 -0.028882 0)
(10.0381 -0.118011 0)
(10.0755 -0.0192494 0)
(9.98358 -0.335161 0)
(10.0255 -0.00232006 0)
(10.0185 -0.00594854 0)
(9.93317 -0.00480779 0)
(10.0748 -0.00330707 0)
(10.1378 -0.00692905 0)
(10.0225 -0.00367855 0)
(9.97875 -0.010006 0)
(10.0771 0.00709508 0)
(10.105 -0.0206363 0)
(10.1071 0.0293799 0)
(10.0617 -0.0442199 0)
(10.0851 0.0574449 0)
(10.09 -0.0586091 0)
(10.0673 0.0461778 0)
(10.0986 -0.0187841 0)
(10.057 -0.0227277 0)
(10.0695 -0.0333932 0)
(10.0407 -0.026367 0)
(10.0213 -0.143219 0)
(9.93981 -0.328196 0)
(10.0254 -0.00341838 0)
(10.0191 -0.0084317 0)
(9.9344 -0.00651945 0)
(10.0755 -0.00489071 0)
(10.1387 -0.00915822 0)
(10.0232 -0.00660393 0)
(9.9807 -0.0112186 0)
(10.0766 0.0043117 0)
(10.1077 -0.0187494 0)
(10.1045 0.0240051 0)
(10.0657 -0.0374107 0)
(10.0813 0.0484038 0)
(10.0929 -0.0506653 0)
(10.0649 0.0440215 0)
(10.0996 -0.0297429 0)
(10.061 0.00446549 0)
(10.0571 -0.00989561 0)
(10.03 -0.0803096 0)
(10.0081 -0.0727452 0)
(9.91549 -0.263402 0)
(10.0253 -0.00471983 0)
(10.0201 -0.0109544 0)
(9.93605 -0.00820133 0)
(10.0764 -0.00655561 0)
(10.1398 -0.0113467 0)
(10.0244 -0.00939044 0)
(9.98294 -0.0122768 0)
(10.0767 0.00129912 0)
(10.1102 -0.0170288 0)
(10.1027 0.0185747 0)
(10.0687 -0.0304175 0)
(10.0789 0.0381385 0)
(10.0937 -0.0385452 0)
(10.0659 0.0305336 0)
(10.0949 -0.0136059 0)
(10.0586 -0.0164339 0)
(10.0533 -0.0205799 0)
(10.0268 -0.0547599 0)
(9.98351 -0.0798723 0)
(9.89172 -0.251502 0)
(10.0252 -0.00630294 0)
(10.0213 -0.0135461 0)
(9.93815 -0.00977954 0)
(10.0777 -0.00839323 0)
(10.1412 -0.013934 0)
(10.026 -0.0122183 0)
(9.98542 -0.0129077 0)
(10.0773 -0.000770229 0)
(10.1126 -0.0148923 0)
(10.1016 0.0139294 0)
(10.0712 -0.0241488 0)
(10.0773 0.0297293 0)
(10.0943 -0.0298189 0)
(10.0664 0.0236927 0)
(10.0923 -0.0122907 0)
(10.0594 -0.00902625 0)
(10.0475 -0.00941883 0)
(10.0209 -0.0536848 0)
(9.96658 -0.0673098 0)
(9.87108 -0.20173 0)
(10.025 -0.00812587 0)
(10.023 -0.0161401 0)
(9.94072 -0.0115187 0)
(10.0793 -0.0104978 0)
(10.1429 -0.0169703 0)
(10.0284 -0.0162999 0)
(9.98844 -0.0153586 0)
(10.0784 -0.00438961 0)
(10.1147 -0.0139558 0)
(10.101 0.00891854 0)
(10.0731 -0.0186506 0)
(10.0764 0.0218102 0)
(10.0945 -0.0218285 0)
(10.0673 0.0166169 0)
(10.0895 -0.00740556 0)
(10.0594 -0.0106031 0)
(10.0429 -0.00936354 0)
(10.0168 -0.0445393 0)
(9.95235 -0.0535872 0)
(9.85368 -0.163097 0)
(10.0248 -0.0102529 0)
(10.025 -0.0170602 0)
(9.94366 -0.0110533 0)
(10.0812 -0.0108494 0)
(10.1447 -0.0175597 0)
(10.0307 -0.0162839 0)
(9.99121 -0.013219 0)
(10.0798 -0.00465751 0)
(10.1166 -0.0108483 0)
(10.101 0.00553282 0)
(10.0743 -0.0128699 0)
(10.0758 0.0150632 0)
(10.094 -0.0149288 0)
(10.068 0.0113195 0)
(10.087 -0.00519663 0)
(10.0591 -0.00821174 0)
(10.0394 -0.00641029 0)
(10.0125 -0.0336882 0)
(9.94157 -0.0402465 0)
(9.83862 -0.11841 0)
(10.0252 -0.0163273 0)
(10.0257 -0.0238667 0)
(9.94362 -0.0162337 0)
(10.0801 -0.0162412 0)
(10.1386 -0.0249299 0)
(10.0176 -0.0248655 0)
(9.97334 -0.0188999 0)
(10.0607 -0.00991669 0)
(10.0959 -0.0113877 0)
(10.0831 0.000250677 0)
(10.0531 -0.00875105 0)
(10.0611 0.00830123 0)
(10.0719 -0.00876471 0)
(10.0536 0.00633308 0)
(10.0667 -0.00302983 0)
(10.0392 -0.00538972 0)
(10.0202 -0.00406338 0)
(9.98527 -0.0213025 0)
(9.91127 -0.0251353 0)
(9.79209 -0.0725875 0)
(9.98041 -0.010669 0)
(9.86949 -0.0155062 0)
(9.69097 -0.0111964 0)
(9.76318 -0.0114297 0)
(9.72288 -0.0172449 0)
(9.47194 -0.0180445 0)
(9.32765 -0.0134956 0)
(9.34877 -0.00793634 0)
(9.33739 -0.00664812 0)
(9.29285 -0.00176336 0)
(9.25005 -0.00342366 0)
(9.25482 0.00235724 0)
(9.26161 -0.00295244 0)
(9.24518 0.00215229 0)
(9.25497 -0.0013572 0)
(9.22589 -0.0018033 0)
(9.20675 -0.00185307 0)
(9.16587 -0.00784494 0)
(9.08462 -0.00975994 0)
(8.9537 -0.0267159 0)
(9.34701 1.09849 0)
(11.9175 -5.22696 0)
(9.54424 -4.15321 0)
(7.40414 -3.40571 0)
(6.33747 -2.61667 0)
(5.87713 -1.83574 0)
(5.44807 -1.30317 0)
(5.21771 -0.924334 0)
(5.12 -0.63974 0)
(5.07416 -0.435165 0)
(5.05025 -0.293376 0)
(5.03739 -0.196626 0)
(5.03039 -0.13119 0)
(5.02652 -0.0872172 0)
(5.02433 -0.0578021 0)
(5.02307 -0.0381946 0)
(5.02232 -0.0251658 0)
(5.02187 -0.0165342 0)
(5.02159 -0.0108316 0)
(5.02142 -0.00707614 0)
(5.02131 -0.00461009 0)
(5.02124 -0.00299395 0)
(5.02119 -0.00193939 0)
(5.02117 -0.00125292 0)
(5.02115 -0.000806423 0)
(5.02114 -0.000518058 0)
(5.02113 -0.000331733 0)
(5.02112 -0.000211588 0)
(5.02112 -0.000134878 0)
(5.02112 -8.54011e-05 0)
(5.02112 -5.41992e-05 0)
(5.02112 -3.40905e-05 0)
(5.02112 -2.14602e-05 0)
(5.02112 -1.34358e-05 0)
(5.02112 -8.5118e-06 0)
(5.02112 -5.30083e-06 0)
(5.02112 -3.2835e-06 0)
(5.02112 -2.03791e-06 0)
(5.02112 -1.25579e-06 0)
(5.02112 -7.31366e-07 0)
(5.02112 -4.92605e-07 0)
(5.02112 -2.71247e-07 0)
(5.02112 -1.77274e-07 0)
(5.02112 -1.42602e-07 0)
(5.02112 -8.42715e-09 0)
(5.02112 -1.02684e-07 0)
(5.02112 -1.3925e-08 0)
(5.02112 1.99294e-08 0)
(5.02112 -6.16643e-08 0)
(5.02112 -9.24422e-09 0)
(5.02112 6.49566e-08 0)
(5.02112 -8.77021e-08 0)
(5.02112 2.98644e-08 0)
(5.02112 5.86939e-08 0)
(5.02112 -1.04814e-07 0)
(5.02112 1.14799e-07 0)
(5.02112 -6.62553e-08 0)
(5.02112 3.48268e-08 0)
(5.02112 -6.64224e-11 0)
(5.02112 -1.54862e-08 0)
(5.02112 6.99132e-08 0)
(5.02112 -1.0601e-07 0)
(5.02112 9.37963e-08 0)
(5.02112 -2.64014e-09 0)
(5.02112 -1.03836e-07 0)
(5.02112 1.46175e-07 0)
(5.02112 -6.77855e-08 0)
(5.02112 -5.76259e-08 0)
(5.02112 1.22386e-07 0)
(5.02112 -8.69549e-08 0)
(5.02112 -8.51634e-09 0)
(5.02112 1.28214e-07 0)
(5.02112 -1.25464e-07 0)
(5.02112 -2.55901e-08 0)
(5.02112 1.90616e-07 0)
(5.02112 -1.10172e-07 0)
(5.02112 -1.40656e-07 0)
(5.02112 2.001e-07 0)
(5.02112 2.63853e-08 0)
(5.02112 -2.19485e-07 0)
(5.02112 6.92876e-09 0)
(5.02112 1.48296e-07 0)
(5.02112 -3.99789e-08 0)
(5.02112 -1.43409e-07 0)
(5.02112 3.32143e-09 0)
(5.02112 8.34167e-08 0)
(5.02112 4.93667e-08 0)
(5.02112 -6.05302e-08 0)
(5.02112 -1.1942e-07 0)
(5.02112 3.3533e-08 0)
(5.02112 1.3781e-07 0)
(5.02112 7.02432e-08 0)
(5.02111 -8.66033e-08 0)
(5.02112 -6.28037e-08 0)
(5.02111 1.26868e-08 0)
(5.02113 5.15334e-08 0)
(5.0211 5.27176e-09 0)
(5.02113 3.27505e-10 0)
(5.02112 1.86067e-09 0)
(5.02111 -3.43345e-08 0)
(12.2504 1.27473 0)
(11.5581 -4.39067 0)
(8.10775 -3.73652 0)
(6.77546 -2.96828 0)
(5.867 -2.4586 0)
(5.6483 -1.80321 0)
(5.48849 -1.25931 0)
(5.30314 -0.889156 0)
(5.17889 -0.621364 0)
(5.11062 -0.426079 0)
(5.07368 -0.288579 0)
(5.05289 -0.193976 0)
(5.04072 -0.129685 0)
(5.03339 -0.0863436 0)
(5.0289 -0.0572842 0)
(5.02609 -0.0378813 0)
(5.02431 -0.0249729 0)
(5.02318 -0.0164136 0)
(5.02245 -0.010756 0)
(5.02198 -0.00702814 0)
(5.02167 -0.00457901 0)
(5.02148 -0.00297448 0)
(5.02135 -0.00192686 0)
(5.02126 -0.0012446 0)
(5.02121 -0.000801449 0)
(5.02118 -0.000514683 0)
(5.02115 -0.000329525 0)
(5.02114 -0.000210437 0)
(5.02113 -0.000133916 0)
(5.02113 -8.49109e-05 0)
(5.02112 -5.37856e-05 0)
(5.02112 -3.38996e-05 0)
(5.02112 -2.13157e-05 0)
(5.02112 -1.34776e-05 0)
(5.02112 -8.37235e-06 0)
(5.02112 -5.15402e-06 0)
(5.02112 -3.24754e-06 0)
(5.02111 -2.07073e-06 0)
(5.02111 -1.30675e-06 0)
(5.02112 -7.86089e-07 0)
(5.02112 -4.45384e-07 0)
(5.02111 -2.68939e-07 0)
(5.02111 -1.82927e-07 0)
(5.02111 -1.2684e-07 0)
(5.02112 -7.61843e-08 0)
(5.02112 -3.64068e-08 0)
(5.02111 1.21594e-08 0)
(5.02112 -4.46047e-08 0)
(5.02112 -2.36985e-08 0)
(5.02112 8.46405e-09 0)
(5.02111 -8.16654e-09 0)
(5.02112 -1.98751e-08 0)
(5.02111 1.71999e-08 0)
(5.02112 -1.68347e-08 0)
(5.02111 9.83284e-09 0)
(5.02112 5.18261e-08 0)
(5.02112 -3.50338e-08 0)
(5.02112 1.52108e-08 0)
(5.02112 1.54905e-08 0)
(5.02111 -7.34392e-09 0)
(5.02112 3.95958e-08 0)
(5.02111 -5.35103e-09 0)
(5.02111 -3.76577e-09 0)
(5.02112 2.70672e-09 0)
(5.02111 -8.10941e-09 0)
(5.02112 2.53092e-08 0)
(5.02112 5.01363e-11 0)
(5.02111 -5.74893e-09 0)
(5.02112 -5.53886e-10 0)
(5.02112 -2.40451e-08 0)
(5.02112 -3.24466e-09 0)
(5.02112 2.53352e-08 0)
(5.02112 -2.29776e-09 0)
(5.02111 -2.01687e-09 0)
(5.02112 2.50964e-08 0)
(5.02112 -1.74712e-08 0)
(5.02111 -2.68497e-08 0)
(5.02112 9.56882e-09 0)
(5.02112 -1.06402e-08 0)
(5.02112 -2.0353e-08 0)
(5.02111 -1.61434e-09 0)
(5.02112 -1.25197e-08 0)
(5.02112 -3.80033e-08 0)
(5.02112 -2.53637e-08 0)
(5.02112 1.53779e-08 0)
(5.02112 2.68413e-08 0)
(5.02112 7.57394e-09 0)
(5.02112 -1.76234e-08 0)
(5.02111 -3.00827e-08 0)
(5.02111 5.36138e-09 0)
(5.02111 2.37945e-08 0)
(5.02112 2.32305e-08 0)
(5.02111 7.3693e-10 0)
(5.02112 1.3843e-08 0)
(5.02111 1.14323e-08 0)
(5.02113 9.31944e-09 0)
(5.0211 -3.50283e-09 0)
(5.02113 -2.47488e-08 0)
(5.02112 -2.57846e-08 0)
(5.02111 -1.7719e-08 0)
(12.5268 0.482976 0)
(10.8018 -3.85746 0)
(7.46557 -3.48944 0)
(6.99073 -2.66149 0)
(6.27394 -2.13542 0)
(5.56658 -1.65423 0)
(5.36386 -1.2014 0)
(5.2834 -0.854549 0)
(5.20348 -0.599747 0)
(5.13857 -0.413729 0)
(5.09508 -0.28165 0)
(5.06781 -0.190005 0)
(5.05082 -0.127342 0)
(5.04016 -0.0849228 0)
(5.0334 -0.0564053 0)
(5.02907 -0.0373293 0)
(5.02628 -0.0246224 0)
(5.02447 -0.0161895 0)
(5.0233 -0.0106123 0)
(5.02253 -0.00693553 0)
(5.02203 -0.00451902 0)
(5.02171 -0.00293618 0)
(5.0215 -0.00190206 0)
(5.02136 -0.00122847 0)
(5.02127 -0.000791363 0)
(5.02122 -0.000508054 0)
(5.02118 -0.000325244 0)
(5.02116 -0.00020783 0)
(5.02114 -0.000132281 0)
(5.02113 -8.38538e-05 0)
(5.02113 -5.28041e-05 0)
(5.02112 -3.36882e-05 0)
(5.02112 -2.11684e-05 0)
(5.02112 -1.29391e-05 0)
(5.02112 -8.09391e-06 0)
(5.02112 -5.16259e-06 0)
(5.02112 -3.0926e-06 0)
(5.02112 -1.83179e-06 0)
(5.02112 -1.3727e-06 0)
(5.02112 -9.63958e-07 0)
(5.02112 -3.66402e-07 0)
(5.02112 -1.07584e-07 0)
(5.02112 -1.64167e-07 0)
(5.02112 -1.89147e-07 0)
(5.02112 -8.69371e-08 0)
(5.02112 7.03956e-08 0)
(5.02112 -5.24634e-08 0)
(5.02112 -2.52773e-07 0)
(5.02112 -5.06953e-08 0)
(5.02112 1.52065e-07 0)
(5.02112 3.84067e-08 0)
(5.02112 -3.45515e-08 0)
(5.02112 -1.25099e-07 0)
(5.02112 -7.09586e-08 0)
(5.02112 1.49716e-07 0)
(5.02112 1.14978e-07 0)
(5.02112 -5.5959e-08 0)
(5.02112 -9.23816e-08 0)
(5.02112 3.73855e-08 0)
(5.02112 1.17535e-07 0)
(5.02112 1.7407e-07 0)
(5.02112 6.09388e-08 0)
(5.02112 -1.44286e-07 0)
(5.02112 -1.1736e-07 0)
(5.02112 -1.2129e-08 0)
(5.02112 6.61851e-08 0)
(5.02112 1.24813e-07 0)
(5.02112 -5.95869e-10 0)
(5.02112 -1.22593e-07 0)
(5.02112 -1.01897e-07 0)
(5.02112 -5.42512e-08 0)
(5.02112 4.11976e-08 0)
(5.02112 1.20034e-07 0)
(5.02112 7.07146e-08 0)
(5.02112 1.68775e-08 0)
(5.02112 1.452e-08 0)
(5.02112 -6.35724e-08 0)
(5.02112 -8.90508e-08 0)
(5.02112 1.26701e-08 0)
(5.02112 6.81772e-08 0)
(5.02112 1.57801e-08 0)
(5.02112 -6.44967e-08 0)
(5.02112 -9.5513e-08 0)
(5.02112 -6.12184e-08 0)
(5.02112 5.0643e-09 0)
(5.02112 5.35271e-08 0)
(5.02112 6.19437e-08 0)
(5.02112 3.3544e-08 0)
(5.02112 -5.48679e-09 0)
(5.02112 -8.1054e-09 0)
(5.02112 3.46626e-09 0)
(5.02112 9.45852e-09 0)
(5.02111 -1.15992e-08 0)
(5.02112 -4.25901e-08 0)
(5.02111 -4.55918e-08 0)
(5.02113 1.24826e-08 0)
(5.0211 5.53882e-08 0)
(5.02113 7.59658e-08 0)
(5.02112 3.98468e-08 0)
(5.02111 -8.53146e-09 0)
(11.3979 0.453294 0)
(11.3894 -3.23857 0)
(8.70939 -3.62261 0)
(7.79627 -3.08646 0)
(7.67059 -2.33841 0)
(6.65168 -1.67248 0)
(5.82162 -1.19155 0)
(5.44113 -0.842706 0)
(5.26686 -0.586886 0)
(5.17248 -0.403132 0)
(5.11664 -0.274272 0)
(5.08229 -0.185219 0)
(5.06063 -0.124303 0)
(5.04675 -0.0829974 0)
(5.0378 -0.0551795 0)
(5.03199 -0.0365444 0)
(5.02821 -0.0241175 0)
(5.02574 -0.0158637 0)
(5.02413 -0.0104015 0)
(5.02308 -0.00679892 0)
(5.02239 -0.00443079 0)
(5.02194 -0.0028791 0)
(5.02165 -0.00186509 0)
(5.02146 -0.0012048 0)
(5.02134 -0.000776059 0)
(5.02126 -0.000498198 0)
(5.02121 -0.000319062 0)
(5.02117 -0.000203814 0)
(5.02115 -0.000129697 0)
(5.02114 -8.20919e-05 0)
(5.02113 -5.2076e-05 0)
(5.02112 -3.29113e-05 0)
(5.02112 -2.05908e-05 0)
(5.02112 -1.29013e-05 0)
(5.02112 -8.17262e-06 0)
(5.02112 -5.03518e-06 0)
(5.02112 -3.15472e-06 0)
(5.02112 -2.05837e-06 0)
(5.02112 -1.30365e-06 0)
(5.02112 -7.55111e-07 0)
(5.02112 -3.85514e-07 0)
(5.02112 -2.47208e-07 0)
(5.02112 -1.98571e-07 0)
(5.02112 -1.31238e-07 0)
(5.02112 -9.49039e-08 0)
(5.02112 -1.84362e-08 0)
(5.02112 -1.31242e-09 0)
(5.02112 -1.01512e-07 0)
(5.02112 -2.5044e-08 0)
(5.02112 5.12109e-08 0)
(5.02112 -1.626e-08 0)
(5.02112 -2.50196e-08 0)
(5.02112 -5.63232e-09 0)
(5.02112 -1.64682e-08 0)
(5.02112 4.01997e-08 0)
(5.02112 5.65842e-08 0)
(5.02112 -3.08246e-08 0)
(5.02112 3.69837e-09 0)
(5.02112 4.34138e-08 0)
(5.02112 2.47838e-08 0)
(5.02112 4.07173e-08 0)
(5.02112 6.72664e-09 0)
(5.02112 -3.30411e-08 0)
(5.02112 -1.78357e-08 0)
(5.02112 1.61521e-10 0)
(5.02112 2.97908e-08 0)
(5.02112 1.43137e-08 0)
(5.02112 -1.6775e-08 0)
(5.02112 -2.21746e-08 0)
(5.02112 -2.59196e-08 0)
(5.02112 -1.69582e-09 0)
(5.02112 2.99186e-08 0)
(5.02112 2.41664e-08 0)
(5.02112 9.71224e-09 0)
(5.02112 2.13175e-08 0)
(5.02112 -7.4735e-09 0)
(5.02112 -2.51346e-08 0)
(5.02112 -1.4483e-08 0)
(5.02112 -5.59437e-09 0)
(5.02112 -1.16722e-09 0)
(5.02112 -1.0086e-08 0)
(5.02112 -3.32333e-08 0)
(5.02112 -4.45289e-08 0)
(5.02112 -1.85088e-08 0)
(5.02112 2.90862e-08 0)
(5.02112 4.54802e-08 0)
(5.02112 1.54291e-08 0)
(5.02112 -2.70777e-08 0)
(5.02112 -2.9908e-08 0)
(5.02112 -2.9596e-09 0)
(5.02112 2.16301e-08 0)
(5.02112 1.90368e-08 0)
(5.02111 9.88846e-09 0)
(5.02112 1.42481e-08 0)
(5.02111 7.90393e-09 0)
(5.02113 1.65545e-08 0)
(5.0211 8.10711e-09 0)
(5.02113 -1.01125e-08 0)
(5.02112 -2.87884e-08 0)
(5.02111 -2.55594e-08 0)
(10.9866 0.0162299 0)
(11.9879 -2.49287 0)
(8.65633 -2.51265 0)
(5.41032 -2.15245 0)
(5.12238 -1.76955 0)
(5.47753 -1.326 0)
(5.5306 -1.00557 0)
(5.42524 -0.757738 0)
(5.30175 -0.54818 0)
(5.20442 -0.383688 0)
(5.13876 -0.263527 0)
(5.09692 -0.178888 0)
(5.07032 -0.120414 0)
(5.0532 -0.0805441 0)
(5.04209 -0.0536092 0)
(5.03484 -0.0355316 0)
(5.03009 -0.0234616 0)
(5.02698 -0.0154381 0)
(5.02495 -0.0101251 0)
(5.02361 -0.00661955 0)
(5.02274 -0.00431445 0)
(5.02217 -0.00280377 0)
(5.0218 -0.00181649 0)
(5.02155 -0.00117338 0)
(5.0214 -0.000755832 0)
(5.0213 -0.000485315 0)
(5.02123 -0.000310745 0)
(5.02119 -0.000198492 0)
(5.02116 -0.000126306 0)
(5.02114 -8.00781e-05 0)
(5.02113 -5.06364e-05 0)
(5.02113 -3.20327e-05 0)
(5.02112 -2.0194e-05 0)
(5.02112 -1.25542e-05 0)
(5.02112 -7.79271e-06 0)
(5.02112 -4.92564e-06 0)
(5.02112 -3.06452e-06 0)
(5.02112 -1.83163e-06 0)
(5.02112 -1.22402e-06 0)
(5.02112 -8.74491e-07 0)
(5.02112 -3.9547e-07 0)
(5.02112 -1.47876e-07 0)
(5.02112 -1.44397e-07 0)
(5.02112 -1.36739e-07 0)
(5.02112 -1.02016e-07 0)
(5.02112 3.56527e-08 0)
(5.02112 -1.05572e-08 0)
(5.02112 -2.17789e-07 0)
(5.02112 -6.34851e-08 0)
(5.02112 1.2698e-07 0)
(5.02112 1.5375e-08 0)
(5.02112 -3.29566e-08 0)
(5.02112 -7.40441e-08 0)
(5.02112 -6.94034e-08 0)
(5.02112 1.08548e-07 0)
(5.02112 9.95446e-08 0)
(5.02112 -4.76581e-08 0)
(5.02112 -6.65061e-08 0)
(5.02112 2.44326e-08 0)
(5.02112 8.86736e-08 0)
(5.02112 1.32777e-07 0)
(5.02112 5.96421e-08 0)
(5.02112 -9.36328e-08 0)
(5.02112 -9.25438e-08 0)
(5.02112 -8.36763e-09 0)
(5.02112 4.27772e-08 0)
(5.02112 8.50371e-08 0)
(5.02112 5.57639e-09 0)
(5.02112 -9.19757e-08 0)
(5.02112 -7.8371e-08 0)
(5.02112 -4.30632e-08 0)
(5.02112 1.81484e-08 0)
(5.02112 8.09257e-08 0)
(5.02112 6.34679e-08 0)
(5.02112 1.94259e-08 0)
(5.02112 1.86272e-08 0)
(5.02112 -4.33638e-08 0)
(5.02112 -7.61531e-08 0)
(5.02112 -9.10688e-10 0)
(5.02112 4.97344e-08 0)
(5.02112 1.35233e-08 0)
(5.02112 -5.2752e-08 0)
(5.02112 -8.29644e-08 0)
(5.02112 -4.53736e-08 0)
(5.02112 5.52932e-09 0)
(5.02112 4.34419e-08 0)
(5.02112 4.16804e-08 0)
(5.02112 1.84562e-08 0)
(5.02112 -5.77776e-09 0)
(5.02112 -4.00645e-09 0)
(5.02112 1.21343e-08 0)
(5.02112 1.93237e-08 0)
(5.02111 -6.57939e-09 0)
(5.02112 -3.47386e-08 0)
(5.02111 -4.41815e-08 0)
(5.02113 4.97871e-09 0)
(5.0211 3.55886e-08 0)
(5.02113 4.68346e-08 0)
(5.02112 3.66631e-08 0)
(5.02111 -5.89583e-10 0)
(10.6725 -0.203134 0)
(9.7985 -2.42645 0)
(9.90719 -2.90156 0)
(9.26492 -2.70503 0)
(7.6377 -2.27645 0)
(6.42095 -1.64271 0)
(5.77617 -1.12378 0)
(5.46871 -0.778044 0)
(5.31453 -0.539677 0)
(5.2193 -0.371342 0)
(5.15392 -0.253615 0)
(5.10921 -0.172035 0)
(5.07921 -0.11591 0)
(5.05932 -0.0776211 0)
(5.04621 -0.0517129 0)
(5.03759 -0.0342993 0)
(5.03192 -0.0226595 0)
(5.02819 -0.0149157 0)
(5.02574 -0.0097851 0)
(5.02413 -0.00639843 0)
(5.02308 -0.00417086 0)
(5.02239 -0.00271076 0)
(5.02194 -0.00175634 0)
(5.02165 -0.00113451 0)
(5.02146 -0.000730867 0)
(5.02133 -0.000469309 0)
(5.02126 -0.000300466 0)
(5.0212 -0.000191936 0)
(5.02117 -0.000122161 0)
(5.02115 -7.74073e-05 0)
(5.02114 -4.89714e-05 0)
(5.02113 -3.10315e-05 0)
(5.02112 -1.94853e-05 0)
(5.02112 -1.20767e-05 0)
(5.02112 -7.59129e-06 0)
(5.02112 -4.7654e-06 0)
(5.02112 -2.95705e-06 0)
(5.02112 -1.8667e-06 0)
(5.02112 -1.19578e-06 0)
(5.02112 -7.22564e-07 0)
(5.02112 -3.59605e-07 0)
(5.02112 -2.29714e-07 0)
(5.02112 -1.99526e-07 0)
(5.02112 -1.16146e-07 0)
(5.02112 -9.90883e-08 0)
(5.02112 -2.50649e-08 0)
(5.02112 4.21442e-09 0)
(5.02112 -1.18711e-07 0)
(5.02112 -3.07046e-08 0)
(5.02112 8.44963e-08 0)
(5.02112 -1.81562e-08 0)
(5.02112 -3.27412e-08 0)
(5.02112 -8.04096e-09 0)
(5.02112 -1.68731e-08 0)
(5.02112 4.81048e-08 0)
(5.02112 6.03882e-08 0)
(5.02112 -2.80163e-08 0)
(5.02112 -5.36681e-09 0)
(5.02112 5.66511e-08 0)
(5.02112 3.76791e-08 0)
(5.02112 4.31661e-08 0)
(5.02112 9.79412e-09 0)
(5.02112 -4.73227e-08 0)
(5.02112 -2.86663e-08 0)
(5.02112 2.72805e-09 0)
(5.02112 3.18888e-08 0)
(5.02112 1.97467e-08 0)
(5.02112 -2.49856e-08 0)
(5.02112 -3.48694e-08 0)
(5.02112 -2.32966e-08 0)
(5.02112 -1.40642e-09 0)
(5.02112 3.03004e-08 0)
(5.02112 3.70273e-08 0)
(5.02112 1.72274e-08 0)
(5.02112 2.08579e-08 0)
(5.02112 -2.56238e-09 0)
(5.02112 -2.66097e-08 0)
(5.02112 -2.45507e-08 0)
(5.02112 -3.88637e-09 0)
(5.02112 6.54771e-09 0)
(5.02112 -1.55159e-08 0)
(5.02112 -4.50203e-08 0)
(5.02112 -4.66377e-08 0)
(5.02112 -1.6092e-08 0)
(5.02112 4.14624e-08 0)
(5.02112 5.45062e-08 0)
(5.02112 1.6932e-08 0)
(5.02112 -3.1176e-08 0)
(5.02112 -3.75795e-08 0)
(5.02112 -7.2395e-09 0)
(5.02112 2.13355e-08 0)
(5.02112 2.12813e-08 0)
(5.02111 7.85163e-09 0)
(5.02112 1.14353e-08 0)
(5.02111 3.66126e-09 0)
(5.02113 2.27667e-08 0)
(5.0211 1.60821e-08 0)
(5.02113 -7.03712e-09 0)
(5.02112 -2.35311e-08 0)
(5.02111 -3.32441e-08 0)
(10.4713 -0.163182 0)
(10.6916 -2.10783 0)
(8.44075 -2.29302 0)
(6.71452 -1.67946 0)
(6.31062 -1.29208 0)
(6.2507 -1.05826 0)
(6.00347 -0.85533 0)
(5.67499 -0.663203 0)
(5.42461 -0.490256 0)
(5.27024 -0.347842 0)
(5.17903 -0.240529 0)
(5.12351 -0.163942 0)
(5.08826 -0.110705 0)
(5.06529 -0.0742354 0)
(5.05019 -0.0495034 0)
(5.04023 -0.032856 0)
(5.03367 -0.0217167 0)
(5.02934 -0.0143001 0)
(5.02649 -0.00938361 0)
(5.02463 -0.00613705 0)
(5.0234 -0.00400099 0)
(5.0226 -0.00260058 0)
(5.02208 -0.00168508 0)
(5.02174 -0.00108849 0)
(5.02151 -0.000701246 0)
(5.02137 -0.000450333 0)
(5.02128 -0.000288306 0)
(5.02122 -0.000184149 0)
(5.02118 -0.000117202 0)
(5.02116 -7.42871e-05 0)
(5.02114 -4.70201e-05 0)
(5.02113 -2.97637e-05 0)
(5.02113 -1.86722e-05 0)
(5.02112 -1.16056e-05 0)
(5.02112 -7.2937e-06 0)
(5.02112 -4.589e-06 0)
(5.02112 -2.87367e-06 0)
(5.02112 -1.75476e-06 0)
(5.02112 -1.08374e-06 0)
(5.02112 -7.39169e-07 0)
(5.02112 -3.79729e-07 0)
(5.02112 -1.90118e-07 0)
(5.02112 -1.51148e-07 0)
(5.02112 -9.4304e-08 0)
(5.02112 -1.00156e-07 0)
(5.02112 1.36414e-09 0)
(5.02112 1.27368e-08 0)
(5.02112 -1.78314e-07 0)
(5.02112 -7.41028e-08 0)
(5.02112 1.07276e-07 0)
(5.02112 4.85123e-09 0)
(5.02112 -3.66108e-08 0)
(5.02112 -3.53996e-08 0)
(5.02112 -6.08872e-08 0)
(5.02112 7.28797e-08 0)
(5.02112 8.46739e-08 0)
(5.02112 -3.7995e-08 0)
(5.02112 -4.79588e-08 0)
(5.02112 1.90456e-08 0)
(5.02112 6.63136e-08 0)
(5.02112 9.60393e-08 0)
(5.02112 5.36262e-08 0)
(5.02112 -5.78093e-08 0)
(5.02112 -6.99503e-08 0)
(5.02112 -7.34743e-09 0)
(5.02112 2.82408e-08 0)
(5.02112 5.41401e-08 0)
(5.02112 5.07686e-09 0)
(5.02112 -6.54019e-08 0)
(5.02112 -5.81358e-08 0)
(5.02112 -3.00723e-08 0)
(5.02112 3.75894e-09 0)
(5.02112 5.15531e-08 0)
(5.02112 5.43839e-08 0)
(5.02112 2.29395e-08 0)
(5.02112 1.94669e-08 0)
(5.02112 -2.87793e-08 0)
(5.02112 -6.15788e-08 0)
(5.02112 -8.9392e-09 0)
(5.02112 3.42708e-08 0)
(5.02112 1.08709e-08 0)
(5.02112 -4.36428e-08 0)
(5.02112 -6.88837e-08 0)
(5.02112 -3.1608e-08 0)
(5.02112 1.24138e-08 0)
(5.02112 3.67682e-08 0)
(5.02112 2.71218e-08 0)
(5.02112 5.4265e-09 0)
(5.02112 -6.39515e-09 0)
(5.02112 8.58585e-10 0)
(5.02112 1.74331e-08 0)
(5.02112 2.13449e-08 0)
(5.02111 -4.5067e-09 0)
(5.02112 -2.46989e-08 0)
(5.02111 -3.85245e-08 0)
(5.02113 4.73472e-10 0)
(5.0211 2.23918e-08 0)
(5.02113 2.46416e-08 0)
(5.02112 3.2571e-08 0)
(5.02111 6.80077e-10 0)
(10.1871 -0.500691 0)
(9.81543 -1.59696 0)
(9.07158 -2.1999 0)
(7.87291 -2.28288 0)
(6.56103 -1.99204 0)
(5.79475 -1.46993 0)
(5.52559 -1.00237 0)
(5.43544 -0.680907 0)
(5.35425 -0.471727 0)
(5.26537 -0.328376 0)
(5.18954 -0.226683 0)
(5.13419 -0.154852 0)
(5.09628 -0.104806 0)
(5.07086 -0.0703936 0)
(5.05396 -0.0469911 0)
(5.04275 -0.0312107 0)
(5.03534 -0.0206394 0)
(5.03045 -0.0135954 0)
(5.02722 -0.00892333 0)
(5.0251 -0.0058371 0)
(5.02371 -0.0038059 0)
(5.0228 -0.00247396 0)
(5.02221 -0.00160316 0)
(5.02182 -0.0010356 0)
(5.02157 -0.000667175 0)
(5.02141 -0.000428511 0)
(5.0213 -0.000274323 0)
(5.02123 -0.000175177 0)
(5.02119 -0.000111509 0)
(5.02116 -7.07113e-05 0)
(5.02115 -4.47531e-05 0)
(5.02113 -2.83097e-05 0)
(5.02113 -1.7758e-05 0)
(5.02112 -1.10413e-05 0)
(5.02112 -6.96027e-06 0)
(5.02112 -4.39385e-06 0)
(5.02112 -2.72428e-06 0)
(5.02112 -1.65683e-06 0)
(5.02112 -1.03258e-06 0)
(5.02112 -6.6301e-07 0)
(5.02112 -3.531e-07 0)
(5.02112 -2.19928e-07 0)
(5.02112 -1.80238e-07 0)
(5.02112 -8.52988e-08 0)
(5.02112 -8.89017e-08 0)
(5.02112 -3.79172e-08 0)
(5.02112 1.13048e-08 0)
(5.02112 -1.18107e-07 0)
(5.02112 -4.33999e-08 0)
(5.02112 1.01747e-07 0)
(5.02112 -1.49236e-08 0)
(5.02112 -4.17601e-08 0)
(5.02112 -3.77433e-09 0)
(5.02112 -1.61759e-08 0)
(5.02112 4.47005e-08 0)
(5.02112 6.23693e-08 0)
(5.02112 -2.34641e-08 0)
(5.02112 -1.18579e-08 0)
(5.02112 5.7844e-08 0)
(5.02112 4.42951e-08 0)
(5.02112 4.48359e-08 0)
(5.02112 1.27023e-08 0)
(5.02112 -5.10755e-08 0)
(5.02112 -3.54792e-08 0)
(5.02112 5.04101e-09 0)
(5.02112 3.09081e-08 0)
(5.02112 2.14434e-08 0)
(5.02112 -2.68012e-08 0)
(5.02112 -4.16994e-08 0)
(5.02112 -2.02495e-08 0)
(5.02112 -2.34478e-09 0)
(5.02112 2.58549e-08 0)
(5.02112 4.13299e-08 0)
(5.02112 2.45406e-08 0)
(5.02112 1.93484e-08 0)
(5.02112 1.18812e-09 0)
(5.02112 -2.69281e-08 0)
(5.02112 -3.06379e-08 0)
(5.02112 -2.91136e-09 0)
(5.02112 1.09647e-08 0)
(5.02112 -1.83064e-08 0)
(5.02112 -5.03427e-08 0)
(5.02112 -4.65539e-08 0)
(5.02112 -1.18007e-08 0)
(5.02112 3.99373e-08 0)
(5.02112 5.15343e-08 0)
(5.02112 1.36109e-08 0)
(5.02112 -3.01175e-08 0)
(5.02112 -3.56943e-08 0)
(5.02112 -7.39489e-09 0)
(5.02112 2.01211e-08 0)
(5.02112 2.41488e-08 0)
(5.02111 5.37061e-09 0)
(5.02112 8.33776e-09 0)
(5.02111 -3.08955e-09 0)
(5.02113 2.76222e-08 0)
(5.0211 2.12535e-08 0)
(5.02113 -9.27148e-09 0)
(5.02112 -1.67299e-08 0)
(5.02111 -3.43663e-08 0)
(10.4099 -0.15352 0)
(10.2783 -1.66481 0)
(8.62261 -2.0313 0)
(7.49022 -1.48158 0)
(7.32797 -1.06685 0)
(6.98391 -0.89572 0)
(6.31751 -0.753821 0)
(5.78355 -0.589383 0)
(5.47958 -0.434215 0)
(5.31153 -0.307535 0)
(5.21074 -0.2128 0)
(5.14645 -0.145367 0)
(5.10422 -0.0984333 0)
(5.07617 -0.0661659 0)
(5.05752 -0.044202 0)
(5.04513 -0.0293759 0)
(5.03692 -0.0194348 0)
(5.03149 -0.0128061 0)
(5.02791 -0.00840724 0)
(5.02555 -0.00550049 0)
(5.024 -0.00358684 0)
(5.02299 -0.0023317 0)
(5.02233 -0.0015111 0)
(5.0219 -0.000976165 0)
(5.02162 -0.000628877 0)
(5.02144 -0.000403967 0)
(5.02132 -0.000258604 0)
(5.02125 -0.000165095 0)
(5.0212 -0.000105111 0)
(5.02117 -6.669e-05 0)
(5.02115 -4.22024e-05 0)
(5.02114 -2.66745e-05 0)
(5.02113 -1.6724e-05 0)
(5.02112 -1.04139e-05 0)
(5.02112 -6.59046e-06 0)
(5.02112 -4.15908e-06 0)
(5.02112 -2.56204e-06 0)
(5.02112 -1.5511e-06 0)
(5.02112 -9.384e-07 0)
(5.02112 -6.21067e-07 0)
(5.02112 -3.51109e-07 0)