/*--------------------------------*- C++ -*----------------------------------*\
| =========                 |                                                 |
| \\      /  F ield         | OpenFOAM: The Open Source CFD Toolbox           |
|  \\    /   O peration     | Version:  2.4.0                                 |
|   \\  /    A nd           | Web:      www.OpenFOAM.org                      |
|    \\/     M anipulation  |                                                 |
\*---------------------------------------------------------------------------*/
FoamFile
{
    version     2.0;
    format      ascii;
    class       surfaceScalarField;
    location    "1.95";
    object      phi_0;
}
// * * * * * * * * * * * * * * * * * * * * * * * * * * * * * * * * * * * * * //

dimensions      [0 3 -1 0 0 0 0];

internalField   nonuniform List<scalar> 
17320
(
1.7642e-05
7.35799e-06
1.16092e-05
6.03279e-06
8.67932e-06
2.92989e-06
7.3628e-06
1.31652e-06
6.71378e-06
6.49021e-07
6.3425e-06
3.71283e-07
6.08236e-06
2.60141e-07
5.86964e-06
2.12714e-07
5.70154e-06
1.68103e-07
5.59113e-06
1.10416e-07
5.47595e-06
1.15174e-07
5.38938e-06
8.65716e-08
5.30326e-06
8.61201e-08
5.23561e-06
6.76513e-08
5.13148e-06
1.04124e-07
5.08162e-06
4.98672e-08
4.98077e-06
1.00845e-07
5.00976e-06
-2.89834e-08
4.78375e-06
2.26004e-07
-4.71994e-07
5.25575e-06
2.5469e-05
6.88895e-06
2.32311e-05
8.27077e-06
2.09898e-05
5.17116e-06
1.93235e-05
2.98287e-06
1.80707e-05
1.90176e-06
1.71144e-05
1.32758e-06
1.63718e-05
1.00278e-06
1.57703e-05
8.14144e-07
1.53059e-05
6.32533e-07
1.49441e-05
4.72245e-07
1.46287e-05
4.30583e-07
1.43776e-05
3.37649e-07
1.41451e-05
3.18598e-07
1.39516e-05
2.61139e-07
1.37205e-05
3.35238e-07
1.35749e-05
1.95463e-07
1.33406e-05
3.35199e-07
1.3305e-05
6.62321e-09
1.31399e-05
3.91088e-07
-6.18488e-07
1.32864e-05
2.66313e-05
5.2576e-06
2.71321e-05
7.77002e-06
2.67839e-05
5.51938e-06
2.62482e-05
3.51856e-06
2.56003e-05
2.54965e-06
2.48752e-05
2.05262e-06
2.417e-05
1.70804e-06
2.34972e-05
1.48689e-06
2.2935e-05
1.19479e-06
2.24548e-05
9.52405e-07
2.20288e-05
8.56609e-07
2.16794e-05
6.87055e-07
2.13577e-05
6.40257e-07
2.10826e-05
5.36253e-07
2.07846e-05
6.33241e-07
2.05659e-05
4.1414e-07
2.02788e-05
6.22287e-07
2.01516e-05
1.33918e-07
2.01055e-05
4.37126e-07
-1.015e-06
2.0502e-05
2.63376e-05
3.92003e-06
2.75084e-05
6.59914e-06
2.80894e-05
4.93843e-06
2.84476e-05
3.16033e-06
2.86453e-05
2.35197e-06
2.86213e-05
2.07666e-06
2.84891e-05
1.84026e-06
2.82299e-05
1.7461e-06
2.79696e-05
1.45509e-06
2.77023e-05
1.21967e-06
2.74263e-05
1.13261e-06
2.71675e-05
9.45801e-07
2.69234e-05
8.84377e-07
2.66797e-05
7.79975e-07
2.64249e-05
8.88074e-07
2.61949e-05
6.44139e-07
2.5965e-05
8.52135e-07
2.56833e-05
4.15599e-07
2.55271e-05
5.93392e-07
-6.65131e-07
2.51772e-05
2.6054e-05
2.86607e-06
2.72038e-05
5.4493e-06
2.80221e-05
4.12009e-06
2.84826e-05
2.69983e-06
2.89915e-05
1.84315e-06
2.93283e-05
1.73986e-06
2.96069e-05
1.56158e-06
2.97543e-05
1.59875e-06
2.98503e-05
1.35907e-06
2.99022e-05
1.16782e-06
2.99619e-05
1.07283e-06
2.99469e-05
9.60809e-07
2.99577e-05
8.73664e-07
2.993e-05
8.07633e-07
2.98916e-05
9.26447e-07
2.97738e-05
7.61913e-07
2.97512e-05
8.74749e-07
2.94381e-05
7.28707e-07
2.93058e-05
7.25749e-07
-1.071e-07
2.87477e-05
2.58518e-05
2.01425e-06
2.69217e-05
4.37942e-06
2.77753e-05
3.2665e-06
2.81963e-05
2.27883e-06
2.87228e-05
1.31663e-06
2.9087e-05
1.37564e-06
2.94699e-05
1.17871e-06
2.97472e-05
1.32142e-06
3.0053e-05
1.05328e-06
3.01462e-05
1.07459e-06
3.0434e-05
7.85108e-07
3.05033e-05
8.91453e-07
3.07156e-05
6.61398e-07
3.07988e-05
7.24393e-07
3.10457e-05
6.79595e-07
3.09852e-05
8.22361e-07
3.12446e-05
6.15416e-07
3.09441e-05
1.0292e-06
3.09775e-05
6.9231e-07
6.62492e-07
3.02079e-05
2.57288e-05
1.28548e-06
2.6774e-05
3.33418e-06
2.75487e-05
2.49178e-06
2.79541e-05
1.87348e-06
2.84954e-05
7.75321e-07
2.88277e-05
1.04332e-06
2.91431e-05
8.63328e-07
2.94669e-05
9.97658e-07
2.98939e-05
6.26212e-07
2.99382e-05
1.03037e-06
3.02999e-05
4.23319e-07
3.03933e-05
7.98115e-07
3.06673e-05
3.87428e-07
3.06795e-05
7.12097e-07
3.1032e-05
3.27116e-07
3.10383e-05
8.16093e-07
3.13992e-05
2.54467e-07
3.11317e-05
1.29677e-06
3.10357e-05
7.88329e-07
1.6446e-06
3.00535e-05
2.55104e-05
7.75072e-07
2.66353e-05
2.20929e-06
2.74544e-05
1.6727e-06
2.78997e-05
1.42819e-06
2.83892e-05
2.85797e-07
2.87553e-05
6.77248e-07
2.89953e-05
6.23296e-07
2.93125e-05
6.80504e-07
2.95983e-05
3.40387e-07
2.98815e-05
7.47141e-07
3.00061e-05
2.98729e-07
3.02083e-05
5.95964e-07
3.04648e-05
1.30845e-07
3.06051e-05
5.71847e-07
3.06989e-05
2.33297e-07
3.10403e-05
4.74672e-07
3.11266e-05
1.68201e-07
3.15197e-05
9.03618e-07
3.18742e-05
4.33843e-07
7.32417e-07
3.27864e-05
2.54909e-05
2.84166e-07
2.64641e-05
1.23611e-06
2.73546e-05
7.82178e-07
2.79483e-05
8.34474e-07
2.8153e-05
8.11074e-08
2.85667e-05
2.63559e-07
2.89145e-05
2.75463e-07
2.91399e-05
4.55106e-07
2.94412e-05
3.91605e-08
2.98639e-05
3.24431e-07
2.99278e-05
2.3482e-07
3.01666e-05
3.57169e-07
3.03508e-05
-5.33594e-08
3.05658e-05
3.56866e-07
3.06388e-05
1.60248e-07
3.09019e-05
2.11618e-07
3.10293e-05
4.07998e-08
3.1451e-05
4.81873e-07
3.16203e-05
2.64577e-07
1.99489e-07
3.21532e-05
2.53501e-05
-6.59061e-08
2.64775e-05
1.0864e-07
2.73267e-05
-6.70027e-08
2.79905e-05
1.70739e-07
2.82518e-05
-1.80271e-07
2.85425e-05
-2.71292e-08
2.88168e-05
1.14375e-09
2.91134e-05
1.5857e-07
2.94024e-05
-2.4982e-07
2.96657e-05
6.10822e-08
2.98349e-05
6.5626e-08
3.00756e-05
1.16521e-07
3.02189e-05
-1.96744e-07
3.0497e-05
7.8758e-08
3.06762e-05
-1.89435e-08
3.08459e-05
4.19356e-08
3.10515e-05
-1.64745e-07
3.13745e-05
1.58834e-07
3.16243e-05
1.47981e-08
-1.28076e-07
3.19518e-05
2.5403e-05
-4.68943e-07
2.6433e-05
-9.21321e-07
2.73053e-05
-9.39261e-07
2.79993e-05
-5.2335e-07
2.81316e-05
-3.12486e-07
2.85129e-05
-4.08429e-07
2.88637e-05
-3.49675e-07
2.92066e-05
-1.84311e-07
2.94205e-05
-4.63746e-07
2.96946e-05
-2.12992e-07
2.98445e-05
-8.43587e-08
3.01185e-05
-1.57479e-07
3.0229e-05
-3.07154e-07
3.05042e-05
-1.96526e-07
3.06074e-05
-1.22112e-07
3.08678e-05
-2.18435e-07
3.10264e-05
-3.2337e-07
3.13558e-05
-1.70603e-07
3.16038e-05
-2.33123e-07
-3.42416e-07
3.18181e-05
2.54531e-05
-9.21994e-07
2.64953e-05
-1.96361e-06
2.73356e-05
-1.77957e-06
2.79742e-05
-1.16193e-06
2.82593e-05
-5.97539e-07
2.85895e-05
-7.38647e-07
2.88811e-05
-6.41233e-07
2.92435e-05
-5.46702e-07
2.93742e-05
-5.94516e-07
2.96525e-05
-4.91264e-07
2.9946e-05
-3.77828e-07
3.01816e-05
-3.93144e-07
3.02882e-05
-4.13714e-07
3.05014e-05
-4.09781e-07
3.07382e-05
-3.58878e-07
3.09736e-05
-4.53779e-07
3.1104e-05
-4.53827e-07
3.13968e-05
-4.63379e-07
3.16689e-05
-5.05196e-07
-5.49413e-07
3.18759e-05
2.5545e-05
-1.467e-06
2.65724e-05
-2.99101e-06
2.74118e-05
-2.61897e-06
2.79929e-05
-1.74299e-06
2.83356e-05
-9.40242e-07
2.87e-05
-1.10303e-06
2.89646e-05
-9.05913e-07
2.93198e-05
-9.01884e-07
2.9571e-05
-8.45669e-07
2.98664e-05
-7.86685e-07
3.00577e-05
-5.69121e-07
3.02895e-05
-6.24976e-07
3.04108e-05
-5.34995e-07
3.06291e-05
-6.28088e-07
3.0784e-05
-5.13739e-07
3.10166e-05
-6.86461e-07
3.12195e-05
-6.56731e-07
3.15186e-05
-7.62451e-07
3.17475e-05
-7.34106e-07
-7.82299e-07
3.19804e-05
2.56689e-05
-2.13588e-06
2.67453e-05
-4.06743e-06
2.7586e-05
-3.45966e-06
2.80706e-05
-2.22765e-06
2.8511e-05
-1.38058e-06
2.88404e-05
-1.43245e-06
2.91263e-05
-1.19182e-06
2.95072e-05
-1.28275e-06
2.97567e-05
-1.09522e-06
2.99786e-05
-1.00858e-06
3.02035e-05
-7.94035e-07
3.04494e-05
-8.70847e-07
3.05755e-05
-6.61074e-07
3.07957e-05
-8.48329e-07
3.09507e-05
-6.68717e-07
3.11874e-05
-9.23199e-07
3.13386e-05
-8.0788e-07
3.16465e-05
-1.07037e-06
3.18913e-05
-9.78955e-07
-1.10299e-06
3.2212e-05
2.58289e-05
-2.9648e-06
2.6959e-05
-5.19746e-06
2.78163e-05
-4.31702e-06
2.82353e-05
-2.64665e-06
2.8708e-05
-1.85324e-06
2.90853e-05
-1.80982e-06
2.94322e-05
-1.53864e-06
2.97277e-05
-1.5783e-06
2.99755e-05
-1.34305e-06
3.01726e-05
-1.20566e-06
3.03962e-05
-1.0176e-06
3.05589e-05
-1.03353e-06
3.06972e-05
-7.99453e-07
3.08407e-05
-9.9183e-07
3.09643e-05
-7.92298e-07
3.10884e-05
-1.04725e-06
3.11783e-05
-8.97791e-07
3.14102e-05
-1.30226e-06
3.15695e-05
-1.13823e-06
-1.36841e-06
3.18349e-05
2.60305e-05
-3.99528e-06
2.72505e-05
-6.41751e-06
2.80306e-05
-5.0971e-06
2.84999e-05
-3.11594e-06
2.89817e-05
-2.33499e-06
2.93051e-05
-2.13323e-06
2.95852e-05
-1.8188e-06
2.97253e-05
-1.7184e-06
2.98438e-05
-1.46156e-06
2.99031e-05
-1.26492e-06
2.99638e-05
-1.07827e-06
2.99473e-05
-1.01706e-06
2.99595e-05
-8.11645e-07
2.99056e-05
-9.37878e-07
2.98714e-05
-7.58097e-07
2.97774e-05
-9.533e-07
2.96944e-05
-8.1476e-07
2.96386e-05
-1.24653e-06
2.95671e-05
-1.06667e-06
-1.42072e-06
2.96194e-05
2.63094e-05
-5.30472e-06
2.75581e-05
-7.66621e-06
2.80675e-05
-5.60643e-06
2.84491e-05
-3.49761e-06
2.86373e-05
-2.52315e-06
2.86069e-05
-2.1028e-06
2.84793e-05
-1.69125e-06
2.82236e-05
-1.46271e-06
2.79661e-05
-1.20404e-06
2.76918e-05
-9.90648e-07
2.74256e-05
-8.12046e-07
2.71516e-05
-7.43091e-07
2.69216e-05
-5.81601e-07
2.66425e-05
-6.58758e-07
2.64213e-05
-5.36929e-07
2.6136e-05
-6.68001e-07
2.58988e-05
-5.77613e-07
2.55706e-05
-9.18298e-07
2.53322e-05
-8.28241e-07
-1.26862e-06
2.51801e-05
2.66094e-05
-6.91407e-06
2.71639e-05
-8.22075e-06
2.67642e-05
-5.2067e-06
2.62504e-05
-2.98389e-06
2.56015e-05
-1.87418e-06
2.4861e-05
-1.36229e-06
2.41627e-05
-9.92956e-07
2.34999e-05
-7.99926e-07
2.29298e-05
-6.33952e-07
2.24437e-05
-5.04525e-07
2.20281e-05
-3.96505e-07
2.16607e-05
-3.75605e-07
2.13585e-05
-2.79446e-07
2.104e-05
-3.40263e-07
2.0781e-05
-2.77926e-07
2.04711e-05
-3.58062e-07
2.02091e-05
-3.15622e-07
1.97942e-05
-5.03412e-07
1.94339e-05
-4.67945e-07
-4.36702e-07
1.8602e-05
2.54528e-05
-7.36685e-06
2.32485e-05
-6.0165e-06
2.09787e-05
-2.93691e-06
1.93193e-05
-1.32448e-06
1.80773e-05
-6.32151e-07
1.71026e-05
-3.87566e-07
1.63673e-05
-2.57738e-07
1.57737e-05
-2.06284e-07
1.53049e-05
-1.65123e-07
1.49302e-05
-1.29832e-07
1.46296e-05
-9.58935e-08
1.43596e-05
-1.05655e-07
1.4147e-05
-6.68647e-08
1.39096e-05
-1.02863e-07
1.37134e-05
-8.16598e-08
1.3471e-05
-1.15646e-07
1.32535e-05
-9.81503e-08
1.29215e-05
-1.71418e-07
1.26599e-05
-2.06382e-07
-5.93267e-08
1.22826e-05
1.76332e-05
1.16167e-05
8.67975e-06
7.35527e-06
6.72312e-06
6.33555e-06
6.07781e-06
5.87153e-06
5.70641e-06
5.57657e-06
5.48068e-06
5.37503e-06
5.30816e-06
5.2053e-06
5.12364e-06
5.00799e-06
4.90984e-06
4.73843e-06
4.53204e-06
4.47272e-06
5.7745e-06
-2.49559e-07
-2.69196e-07
6.21788e-06
-5.7886e-08
-3.85495e-07
6.48769e-06
1.83961e-08
-2.88201e-07
6.67419e-06
-1.50509e-08
-1.71455e-07
6.82044e-06
-1.19058e-07
-2.7194e-08
6.96288e-06
-2.09778e-07
6.73438e-08
7.08493e-06
-2.48007e-07
1.25958e-07
7.19494e-06
-2.5498e-07
1.44969e-07
7.30338e-06
-2.22549e-07
1.14107e-07
7.41681e-06
-1.43681e-07
3.02487e-08
7.55418e-06
-7.65783e-08
-6.07926e-08
7.72733e-06
2.02427e-08
-1.93387e-07
7.84921e-06
2.78861e-08
-1.49765e-07
7.96608e-06
2.0173e-08
-1.37052e-07
8.09288e-06
1.5144e-08
-1.41938e-07
8.22007e-06
2.14825e-08
-1.48673e-07
8.32851e-06
1.45059e-08
-1.22949e-07
8.45219e-06
8.91771e-09
-1.326e-07
8.56287e-06
1.56491e-09
-1.12242e-07
8.64388e-06
-1.0467e-08
-7.05414e-08
8.67762e-06
-1.59633e-08
-1.77776e-08
8.73543e-06
-1.78765e-09
-5.60246e-08
8.83582e-06
5.81822e-08
-1.58573e-07
8.92859e-06
1.15845e-07
-2.08608e-07
9.04923e-06
1.63217e-07
-2.83863e-07
9.18651e-06
1.85236e-07
-3.2251e-07
9.32236e-06
1.77319e-07
-3.13169e-07
9.46333e-06
1.36996e-07
-2.77965e-07
9.56902e-06
9.06705e-08
-1.9637e-07
9.64108e-06
1.83458e-08
-9.04033e-08
9.68279e-06
-5.26829e-08
1.09733e-08
9.70862e-06
-1.07306e-07
8.14747e-08
9.7183e-06
-1.37133e-07
1.2746e-07
9.73334e-06
-1.43222e-07
1.28179e-07
9.7783e-06
-1.2086e-07
7.59013e-08
9.81044e-06
-9.03521e-08
5.82098e-08
9.88878e-06
-6.09087e-08
-1.74297e-08
9.9453e-06
-4.90164e-08
-7.51017e-09
9.99434e-06
-2.62592e-08
-2.27768e-08
1.00668e-05
-2.01346e-08
-5.23369e-08
1.01178e-05
3.63289e-09
-5.45965e-08
1.01367e-05
-8.2092e-09
-1.0762e-08
1.01786e-05
4.84503e-08
-9.02579e-08
1.02425e-05
8.84324e-08
-1.52338e-07
1.03446e-05
1.7829e-07
-2.80389e-07
1.04014e-05
2.19581e-07
-2.76408e-07
1.05612e-05
2.75235e-07
-4.35001e-07
1.06588e-05
3.29938e-07
-4.27565e-07
1.07853e-05
2.87354e-07
-4.13828e-07
1.09241e-05
3.11771e-07
-4.50661e-07
1.10367e-05
3.34289e-07
-4.46853e-07
1.11686e-05
3.17486e-07
-4.49429e-07
1.12989e-05
2.7632e-07
-4.06613e-07
1.14609e-05
2.14389e-07
-3.76358e-07
1.16684e-05
1.69715e-07
-3.77175e-07
1.18779e-05
1.26287e-07
-3.35863e-07
1.19837e-05
1.92702e-08
-1.24982e-07
1.20092e-05
-6.49274e-08
3.93597e-08
1.20353e-05
-1.65841e-07
1.39808e-07
1.19659e-05
-1.99081e-07
2.6847e-07
1.18979e-05
-2.09034e-07
2.76955e-07
1.1844e-05
-1.79042e-07
2.32947e-07
1.18104e-05
-7.26218e-08
1.06293e-07
1.18535e-05
6.17456e-08
-1.04871e-07
1.19937e-05
1.9555e-07
-3.35765e-07
1.21782e-05
3.91977e-07
-5.76463e-07
1.24647e-05
4.97862e-07
-7.84324e-07
1.28321e-05
6.37035e-07
-1.0045e-06
1.32409e-05
7.30935e-07
-1.13975e-06
1.36421e-05
8.18551e-07
-1.21967e-06
1.40981e-05
8.0146e-07
-1.25746e-06
1.46283e-05
6.96502e-07
-1.22672e-06
1.51589e-05
6.00588e-07
-1.13117e-06
1.56806e-05
3.1632e-07
-8.38099e-07
1.60709e-05
1.02448e-07
-4.92761e-07
1.64992e-05
-2.88414e-07
-1.39845e-07
1.69554e-05
-5.68911e-07
1.12685e-07
1.73462e-05
-9.72453e-07
5.81726e-07
1.78031e-05
-1.37393e-06
9.16972e-07
1.81027e-05
-1.71909e-06
1.41955e-06
1.84726e-05
-2.12564e-06
1.75573e-06
1.88825e-05
-2.19848e-06
1.78858e-06
1.93568e-05
-2.32876e-06
1.85439e-06
1.9864e-05
-2.45078e-06
1.94357e-06
2.01999e-05
-2.59484e-06
2.25897e-06
2.04591e-05
-2.67757e-06
2.41843e-06
2.05321e-05
-2.44501e-06
2.37199e-06
2.06037e-05
-2.19355e-06
2.1219e-06
2.06857e-05
-1.71971e-06
1.63775e-06
2.08294e-05
-1.48781e-06
1.34407e-06
2.114e-05
-1.11172e-06
8.01118e-07
2.13251e-05
-9.10004e-07
7.2493e-07
2.14063e-05
-5.9361e-07
5.12407e-07
2.14832e-05
-6.30101e-07
5.53164e-07
2.13315e-05
-8.36332e-08
2.35344e-07
2.11784e-05
-2.24223e-07
3.77308e-07
2.1073e-05
1.80853e-07
-7.54285e-08
2.08853e-05
1.19932e-08
1.75681e-07
2.09843e-05
1.3379e-07
-2.32691e-07
2.10022e-05
-1.97575e-07
1.79657e-07
2.11432e-05
-3.29414e-07
1.88373e-07
2.12533e-05
-6.8811e-07
5.77971e-07
2.15387e-05
-9.27812e-07
6.42471e-07
2.173e-05
-1.26168e-06
1.07033e-06
2.20029e-05
-1.55412e-06
1.28126e-06
2.22066e-05
-1.95527e-06
1.75162e-06
2.25885e-05
-2.27896e-06
1.89702e-06
2.27784e-05
-2.6614e-06
2.47154e-06
2.3118e-05
-3.20949e-06
2.86983e-06
2.33439e-05
-3.6607e-06
3.43479e-06
2.3677e-05
-4.26782e-06
3.93478e-06
2.39747e-05
-4.82492e-06
4.52716e-06
2.43027e-05
-5.57573e-06
5.24775e-06
2.4678e-05
-6.17473e-06
5.7994e-06
2.5057e-05
-7.11036e-06
6.73136e-06
2.55983e-05
-7.80871e-06
7.26745e-06
2.61097e-05
-8.94949e-06
8.43806e-06
2.69128e-05
-9.75017e-06
8.94713e-06
2.75355e-05
-1.10971e-05
1.04744e-05
2.84334e-05
-1.18726e-05
1.09747e-05
2.91252e-05
-1.34047e-05
1.27129e-05
2.97712e-05
-1.38745e-05
1.32285e-05
3.02222e-05
-1.53796e-05
1.49286e-05
3.02881e-05
-1.53389e-05
1.5273e-05
3.01349e-05
-1.63338e-05
1.6487e-05
2.95049e-05
-1.59003e-05
1.65303e-05
2.89342e-05
-1.63239e-05
1.68946e-05
2.82063e-05
-1.58459e-05
1.65738e-05
2.79391e-05
-1.61663e-05
1.64336e-05
2.79031e-05
-1.61125e-05
1.61485e-05
2.81528e-05
-1.6194e-05
1.59443e-05
2.82362e-05
-1.57044e-05
1.56209e-05
2.83183e-05
-1.50369e-05
1.49548e-05
2.81384e-05
-1.38474e-05
1.40273e-05
2.8006e-05
-1.24559e-05
1.25883e-05
2.77511e-05
-1.05343e-05
1.07892e-05
2.76114e-05
-8.43678e-06
8.5765e-06
2.75062e-05
-5.87502e-06
5.98014e-06
2.72352e-05
-3.07408e-06
3.34513e-06
2.70527e-05
-7.76873e-08
2.60213e-07
2.64567e-05
3.49972e-06
-2.90374e-06
2.54864e-05
6.4595e-06
-5.48924e-06
2.44453e-05
9.35587e-06
-8.31479e-06
2.25779e-05
1.17074e-05
-9.83995e-06
2.11857e-05
1.30041e-05
-1.16118e-05
2.03886e-05
1.50075e-05
-1.42104e-05
1.95613e-05
1.73899e-05
-1.65627e-05
1.86241e-05
1.94358e-05
-1.84986e-05
1.76458e-05
2.10887e-05
-2.01105e-05
1.74816e-05
2.23433e-05
-2.2179e-05
1.72841e-05
2.37743e-05
-2.35768e-05
1.68648e-05
2.43379e-05
-2.39186e-05
1.69427e-05
2.37742e-05
-2.38522e-05
1.67377e-05
2.28202e-05
-2.26151e-05
1.65565e-05
2.13702e-05
-2.1189e-05
1.66101e-05
1.94997e-05
-1.95533e-05
1.64236e-05
1.80006e-05
-1.78141e-05
1.65466e-05
1.61024e-05
-1.62254e-05
1.67531e-05
1.44852e-05
-1.46916e-05
1.66925e-05
1.35246e-05
-1.34641e-05
1.73171e-05
1.13661e-05
-1.19907e-05
1.69726e-05
1.1239e-05
-1.08945e-05
1.79934e-05
8.41426e-06
-9.43508e-06
1.7365e-05
9.19474e-06
-8.56634e-06
1.81656e-05
5.28869e-06
-6.08934e-06
1.78695e-05
6.43857e-06
-6.14243e-06
1.89585e-05
2.41092e-06
-3.49993e-06
1.86895e-05
3.81292e-06
-3.54387e-06
1.95866e-05
-8.94803e-07
-2.35716e-09
2.00246e-05
2.65138e-07
-7.03156e-07
2.12238e-05
-3.90025e-06
2.70104e-06
2.14175e-05
-3.16775e-06
2.97414e-06
2.24663e-05
-7.43387e-06
6.38501e-06
2.25711e-05
-5.97568e-06
5.87094e-06
2.36048e-05
-1.00477e-05
9.01401e-06
2.36071e-05
-9.36379e-06
9.36146e-06
2.44456e-05
-1.19358e-05
1.10973e-05
2.4144e-05
-1.17087e-05
1.20103e-05
2.42119e-05
-1.40527e-05
1.39848e-05
2.32947e-05
-1.2868e-05
1.37851e-05
2.23366e-05
-1.32283e-05
1.41864e-05
2.10621e-05
-1.22577e-05
1.35322e-05
2.00681e-05
-1.15431e-05
1.25371e-05
1.8714e-05
-9.47144e-06
1.08255e-05
1.81514e-05
-8.65384e-06
9.2165e-06
1.72336e-05
-7.40027e-06
8.31803e-06
1.70208e-05
-6.51487e-06
6.72768e-06
1.67526e-05
-4.85677e-06
5.12496e-06
1.72772e-05
-3.06941e-06
2.54477e-06
1.73e-05
-4.75288e-07
4.52552e-07
1.74249e-05
1.74519e-06
-1.87014e-06
1.71845e-05
4.18966e-06
-3.94923e-06
1.69297e-05
6.20174e-06
-5.9469e-06
1.66557e-05
8.13208e-06
-7.85811e-06
1.71172e-05
1.08349e-05
-1.12964e-05
1.75529e-05
1.44776e-05
-1.49133e-05
1.69629e-05
1.8181e-05
-1.75909e-05
1.3572e-05
2.16384e-05
-1.82475e-05
1.42073e-05
2.13702e-05
-2.20055e-05
3.25788e-05
-3.33175e-05
1.4946e-05
1.33419e-05
-3.0507e-07
1.34003e-05
-1.1634e-07
1.34255e-05
-6.77192e-09
1.34437e-05
-3.32506e-08
1.34628e-05
-1.38103e-07
1.35177e-05
-2.64759e-07
1.36016e-05
-3.31879e-07
1.36932e-05
-3.46585e-07
1.37729e-05
-3.02281e-07
1.38366e-05
-2.07355e-07
1.39007e-05
-1.40656e-07
1.39794e-05
-5.84485e-08
1.40381e-05
-3.08269e-08
1.40829e-05
-2.46463e-08
1.41243e-05
-2.62494e-08
1.41852e-05
-3.94437e-08
1.42379e-05
-3.81573e-08
1.42908e-05
-4.40017e-08
1.43385e-05
-4.60997e-08
1.43697e-05
-4.16986e-08
1.43958e-05
-4.20472e-08
1.44178e-05
-2.37907e-08
1.44661e-05
9.87418e-09
1.4524e-05
5.79151e-08
1.45885e-05
9.87229e-08
1.46653e-05
1.08431e-07
1.47322e-05
1.10471e-07
1.48011e-05
6.8115e-08
1.48609e-05
3.07965e-08
1.49061e-05
-2.68154e-08
1.49395e-05
-8.60785e-08
1.49612e-05
-1.2904e-07
1.49859e-05
-1.61838e-07
1.50134e-05
-1.70641e-07
1.50595e-05
-1.67002e-07
1.5108e-05
-1.3884e-07
1.51738e-05
-1.26677e-07
1.52269e-05
-1.02196e-07
1.52863e-05
-8.56648e-08
1.53405e-05
-7.42649e-08
1.5395e-05
-5.09178e-08
1.54262e-05
-3.93823e-08
1.54664e-05
8.28198e-09
1.55046e-05
5.01686e-08
1.55739e-05
1.08994e-07
1.56122e-05
1.813e-07
1.56705e-05
2.16911e-07
1.5728e-05
2.72426e-07
1.57425e-05
2.72905e-07
1.57942e-05
2.60103e-07
1.58414e-05
2.87042e-07
1.58758e-05
2.83131e-07
1.59039e-05
2.48203e-07
1.59232e-05
1.95094e-07
1.59663e-05
1.26598e-07
1.60018e-05
9.07483e-08
1.60315e-05
-1.04156e-08
1.60118e-05
-4.51677e-08
1.599e-05
-1.44037e-07
1.59825e-05
-1.91631e-07
1.595e-05
-1.76528e-07
1.59583e-05
-1.87356e-07
1.59894e-05
-1.03722e-07
1.60714e-05
-2.02926e-08
1.62123e-05
5.47411e-08
1.64229e-05
1.81377e-07
1.66785e-05
2.42201e-07
1.69968e-05
3.18743e-07
1.73647e-05
3.63018e-07
1.78186e-05
3.64724e-07
1.82561e-05
3.63894e-07
1.87491e-05
2.035e-07
1.92667e-05
8.29765e-08
1.97764e-05
-1.93333e-07
2.03044e-05
-4.25614e-07
2.07522e-05
-7.36127e-07
2.12937e-05
-1.11042e-06
2.177e-05
-1.4488e-06
2.22249e-05
-1.82885e-06
2.26425e-05
-2.1367e-06
2.29743e-05
-2.45743e-06
2.33998e-05
-2.62391e-06
2.37515e-05
-2.68047e-06
2.40872e-05
-2.78651e-06
2.43029e-05
-2.81052e-06
2.44037e-05
-2.77834e-06
2.44906e-05
-2.53196e-06
2.45883e-05
-2.29127e-06
2.48073e-05
-1.93868e-06
2.49172e-05
-1.59767e-06
2.50137e-05
-1.20828e-06
2.50995e-05
-9.95818e-07
2.50792e-05
-5.73233e-07
2.49981e-05
-5.4899e-07
2.50636e-05
-1.49194e-07
2.48397e-05
-2.9969e-10
2.48707e-05
1.49818e-07
2.46641e-05
2.18631e-07
2.45878e-05
2.10065e-07
2.43837e-05
6.51974e-09
2.42332e-05
-1.78908e-07
2.40031e-05
-4.58043e-07
2.39575e-05
-8.82116e-07
2.38591e-05
-1.16329e-06
2.39527e-05
-1.64779e-06
2.40002e-05
-2.00274e-06
2.42393e-05
-2.51806e-06
2.44388e-05
-2.86093e-06
2.47189e-05
-3.48958e-06
2.50378e-05
-3.97959e-06
2.53693e-05
-4.59933e-06
2.57639e-05
-5.21953e-06
2.61477e-05
-5.95954e-06
2.66644e-05
-6.69139e-06
2.71712e-05
-7.61712e-06
2.78186e-05
-8.45614e-06
2.84355e-05
-9.56644e-06
2.91453e-05
-1.04599e-05
2.97204e-05
-1.16722e-05
3.03355e-05
-1.24877e-05
3.05795e-05
-1.36487e-05
3.07979e-05
-1.40928e-05
3.05187e-05
-1.51005e-05
3.00255e-05
-1.48457e-05
2.93541e-05
-1.56623e-05
2.856e-05
-1.51062e-05
2.80819e-05
-1.58459e-05
2.77487e-05
-1.55126e-05
2.79869e-05
-1.64045e-05
2.80656e-05
-1.61912e-05
2.80828e-05
-1.62112e-05
2.77306e-05
-1.53522e-05
2.72938e-05
-1.46001e-05
2.66293e-05
-1.31829e-05
2.60322e-05
-1.18589e-05
2.55676e-05
-1.00697e-05
2.53673e-05
-8.23647e-06
2.54121e-05
-5.91984e-06
2.55908e-05
-3.25275e-06
2.57122e-05
-1.9911e-07
2.59511e-05
3.26082e-06
2.55048e-05
6.90581e-06
2.49765e-05
9.88412e-06
2.38359e-05
1.2848e-05
2.21716e-05
1.46684e-05
2.12703e-05
1.59089e-05
2.07562e-05
1.79041e-05
2.0196e-05
1.9996e-05
1.97059e-05
2.15789e-05
1.89901e-05
2.3059e-05
1.91768e-05
2.35876e-05
1.93881e-05
2.41266e-05
1.88293e-05
2.4333e-05
1.91149e-05
2.25346e-05
1.87985e-05
2.16866e-05
1.85087e-05
1.97895e-05
1.87485e-05
1.77608e-05
1.79258e-05
1.69251e-05
1.86791e-05
1.37319e-05
1.78852e-05
1.43185e-05
1.88941e-05
1.03572e-05
1.83679e-05
1.17653e-05
1.94462e-05
7.33601e-06
1.9359e-05
9.28186e-06
2.02695e-05
4.37827e-06
2.03031e-05
6.40488e-06
2.14284e-05
1.28567e-06
2.19396e-05
3.30172e-06
2.28418e-05
-1.79705e-06
2.32418e-05
-1.34786e-07
2.43964e-05
-5.05488e-06
2.44985e-05
-3.26989e-06
2.51318e-05
-8.06713e-06
2.54427e-05
-6.28661e-06
2.58388e-05
-1.04438e-05
2.58591e-05
-9.38406e-06
2.60337e-05
-1.21104e-05
2.54922e-05
-1.11672e-05
2.522e-05
-1.37805e-05
2.4145e-05
-1.1793e-05
2.31766e-05
-1.226e-05
2.20432e-05
-1.11243e-05
2.12432e-05
-1.07432e-05
2.01579e-05
-8.38609e-06
1.94536e-05
-7.94956e-06
1.88416e-05
-6.78826e-06
1.83107e-05
-5.98403e-06
1.77e-05
-4.24607e-06
1.76571e-05
-3.02644e-06
1.8162e-05
-9.80168e-07
1.84047e-05
1.50242e-06
1.89165e-05
3.67791e-06
1.8935e-05
6.18324e-06
1.83834e-05
8.68361e-06
1.87514e-05
1.04669e-05
1.89549e-05
1.42741e-05
2.13712e-05
1.57647e-05
1.95676e-05
2.3442e-05
2.27658e-05
1.8172e-05
3.30094e-05
2.23351e-05
2.03192e-05
-1.2222e-07
2.00908e-05
1.1201e-07
1.99343e-05
1.49737e-07
1.98773e-05
2.37569e-08
1.98975e-05
-1.58249e-07
1.99568e-05
-3.2409e-07
2.00066e-05
-3.81703e-07
2.00536e-05
-3.93529e-07
2.00981e-05
-3.46794e-07
2.01359e-05
-2.45141e-07
2.01811e-05
-1.85943e-07
2.02126e-05
-8.99181e-08
2.02314e-05
-4.95725e-08
2.02389e-05
-3.22153e-08
2.02325e-05
-1.98252e-08
2.02473e-05
-5.42342e-08
2.02634e-05
-5.42346e-08
2.02909e-05
-7.1548e-08
2.03225e-05
-7.76824e-08
2.03422e-05
-6.13725e-08
2.03698e-05
-6.96939e-08
2.03775e-05
-3.1474e-08
2.03981e-05
-1.0694e-08
2.04256e-05
3.04092e-08
2.04549e-05
6.94439e-08
2.04924e-05
7.08511e-08
2.05151e-05
8.78137e-08
2.05428e-05
4.04023e-08
2.05601e-05
1.34651e-08
2.05807e-05
-4.74071e-08
2.05965e-05
-1.01845e-07
2.06032e-05
-1.35758e-07
2.06227e-05
-1.81364e-07
2.06343e-05
-1.82223e-07
2.06699e-05
-2.02583e-07
2.07006e-05
-1.69507e-07
2.07424e-05
-1.68506e-07
2.07784e-05
-1.38166e-07
2.0817e-05
-1.24327e-07
2.08519e-05
-1.09174e-07
2.08771e-05
-7.60989e-08
2.09058e-05
-6.80192e-08
2.09272e-05
-1.3144e-08
2.0953e-05
2.43251e-08
2.09838e-05
7.82098e-08
2.10173e-05
1.47819e-07
2.10493e-05
1.84909e-07
2.10815e-05
2.40188e-07
2.10944e-05
2.60051e-07
2.11013e-05
2.53175e-07
2.11252e-05
2.63189e-07
2.11372e-05
2.71058e-07
2.11438e-05
2.41624e-07
2.11245e-05
2.14409e-07
2.11162e-05
1.34912e-07
2.11004e-05
1.06504e-07
2.10797e-05
1.03062e-08
2.10565e-05
-2.19599e-08
2.09979e-05
-8.53888e-08
2.09714e-05
-1.65126e-07
2.09515e-05
-1.56701e-07
2.09665e-05
-2.02306e-07
2.09964e-05
-1.33646e-07
2.109e-05
-1.13914e-07
2.11974e-05
-5.26101e-08
2.1397e-05
-1.82492e-08
2.16112e-05
2.80162e-08
2.18997e-05
3.02616e-08
2.22387e-05
2.39833e-08
2.26011e-05
2.31294e-09
2.3047e-05
-8.20276e-08
2.34446e-05
-1.94032e-07
2.39354e-05
-4.07818e-07
2.4387e-05
-6.45002e-07
2.48675e-05
-9.06079e-07
2.53373e-05
-1.20597e-06
2.57493e-05
-1.52238e-06
2.62173e-05
-1.91684e-06
2.65307e-05
-2.14221e-06
2.69185e-05
-2.52449e-06
2.71606e-05
-2.69952e-06
2.73871e-05
-2.85043e-06
2.76514e-05
-2.94479e-06
2.78113e-05
-2.94638e-06
2.79426e-05
-2.94186e-06
2.79702e-05
-2.80589e-06
2.80313e-05
-2.59309e-06
2.80249e-05
-2.28487e-06
2.80231e-05
-1.93685e-06
2.79948e-05
-1.56943e-06
2.79984e-05
-1.21186e-06
2.7969e-05
-9.66429e-07
2.80364e-05
-6.4057e-07
2.78906e-05
-4.03276e-07
2.79136e-05
-1.72148e-07
2.78514e-05
6.19439e-08
2.78024e-05
1.98767e-07
2.77644e-05
2.56671e-07
2.77219e-05
2.5252e-07
2.76311e-05
9.7314e-08
2.762e-05
-1.67744e-07
2.75313e-05
-3.69376e-07
2.75064e-05
-8.57213e-07
2.74472e-05
-1.1041e-06
2.74237e-05
-1.62425e-06
2.73987e-05
-1.97774e-06
2.74283e-05
-2.5477e-06
2.75344e-05
-2.96702e-06
2.76498e-05
-3.60502e-06
2.78723e-05
-4.20211e-06
2.81062e-05
-4.8332e-06
2.84571e-05
-5.57042e-06
2.88139e-05
-6.31637e-06
2.928e-05
-7.15746e-06
2.97504e-05
-8.08757e-06
3.02098e-05
-8.91551e-06
3.06464e-05
-1.00031e-05
3.10206e-05
-1.0834e-05
3.11548e-05
-1.18065e-05
3.12133e-05
-1.25463e-05
3.09106e-05
-1.3346e-05
3.04666e-05
-1.36488e-05
2.96683e-05
-1.43022e-05
2.90123e-05
-1.41897e-05
2.82868e-05
-1.49368e-05
2.79144e-05
-1.47338e-05
2.78295e-05
-1.5761e-05
2.7892e-05
-1.55751e-05
2.7978e-05
-1.64906e-05
2.75256e-05
-1.57388e-05
2.69183e-05
-1.56039e-05
2.58003e-05
-1.42342e-05
2.45086e-05
-1.33085e-05
2.31165e-05
-1.17908e-05
2.22065e-05
-1.09488e-05
2.18107e-05
-9.67393e-06
2.18857e-05
-8.31145e-06
2.22615e-05
-6.29564e-06
2.28844e-05
-3.87562e-06
2.34233e-05
-7.38062e-07
2.42018e-05
2.48231e-06
2.46443e-05
6.46334e-06
2.46562e-05
9.87227e-06
2.43626e-05
1.31415e-05
2.32842e-05
1.57468e-05
2.20043e-05
1.71888e-05
2.15934e-05
1.83149e-05
2.12883e-05
2.03011e-05
2.10932e-05
2.1774e-05
2.11277e-05
2.30246e-05
2.0391e-05
2.43243e-05
2.09801e-05
2.35375e-05
2.1267e-05
2.40461e-05
2.06399e-05
2.31616e-05
2.13569e-05
2.09696e-05
2.03867e-05
2.07597e-05
2.10609e-05
1.70866e-05
2.01911e-05
1.7795e-05
2.08587e-05
1.30642e-05
2.04695e-05
1.47078e-05
2.11355e-05
9.69119e-06
2.12169e-05
1.16838e-05
2.20648e-05
6.48811e-06
2.22433e-05
9.1034e-06
2.3363e-05
3.25857e-06
2.35509e-05
6.21696e-06
2.45342e-05
3.02375e-07
2.47542e-05
3.08176e-06
2.57682e-05
-2.81108e-06
2.55617e-05
7.17426e-08
2.64877e-05
-5.98093e-06
2.61449e-05
-2.92712e-06
2.6802e-05
-8.72414e-06
2.64023e-05
-5.88696e-06
2.70926e-05
-1.11341e-05
2.63851e-05
-8.67654e-06
2.69319e-05
-1.26573e-05
2.6012e-05
-1.02473e-05
2.61498e-05
-1.39182e-05
2.46624e-05
-1.03056e-05
2.45577e-05
-1.21553e-05
2.32963e-05
-9.86289e-06
2.31403e-05
-1.05871e-05
2.21047e-05
-7.35052e-06
2.18778e-05
-7.72263e-06
2.12188e-05
-6.1293e-06
2.08396e-05
-5.60487e-06
1.98248e-05
-3.23126e-06
1.90632e-05
-2.26481e-06
1.8802e-05
-7.18973e-07
1.96533e-05
6.51147e-07
1.96794e-05
3.65179e-06
2.09666e-05
4.89601e-06
2.06297e-05
9.0206e-06
2.18549e-05
9.24164e-06
2.06023e-05
1.55266e-05
2.40267e-05
1.23403e-05
2.31773e-05
2.42914e-05
2.71129e-05
1.42365e-05
3.11201e-05
2.90021e-05
2.5192e-05
-1.37005e-07
2.52719e-05
3.21184e-08
2.53655e-05
5.61079e-08
2.54394e-05
-5.01888e-08
2.54843e-05
-2.03108e-07
2.55084e-05
-3.48143e-07
2.55034e-05
-3.76761e-07
2.54863e-05
-3.76417e-07
2.54855e-05
-3.46014e-07
2.54926e-05
-2.52255e-07
2.55186e-05
-2.11953e-07
2.55391e-05
-1.10409e-07
2.55561e-05
-6.65259e-08
2.55695e-05
-4.5644e-08
2.55622e-05
-1.25204e-08
2.55565e-05
-4.85686e-08
2.55533e-05
-5.09834e-08
2.55481e-05
-6.63652e-08
2.55611e-05
-9.06306e-08
2.55609e-05
-6.12139e-08
2.55737e-05
-8.25142e-08
2.55813e-05
-3.90766e-08
2.55989e-05
-2.82309e-08
2.5622e-05
7.31689e-09
2.56483e-05
4.3117e-08
2.56814e-05
3.77588e-08
2.56983e-05
7.08976e-08
2.57148e-05
2.39257e-08
2.57147e-05
1.35704e-08
2.57074e-05
-4.01318e-08
2.57012e-05
-9.56273e-08
2.56856e-05
-1.20203e-07
2.56798e-05
-1.75584e-07
2.56807e-05
-1.83103e-07
2.56862e-05
-2.08054e-07
2.57133e-05
-1.96605e-07
2.57369e-05
-1.92132e-07
2.57653e-05
-1.666e-07
2.58017e-05
-1.60658e-07
2.58167e-05
-1.24224e-07
2.5843e-05
-1.02404e-07
2.58488e-05
-7.37965e-08
2.58596e-05
-2.38879e-08
2.58672e-05
1.66354e-08
2.58686e-05
7.68112e-08
2.58841e-05
1.32317e-07
2.58972e-05
1.7181e-07
2.59158e-05
2.21619e-07
2.59307e-05
2.45187e-07
2.59368e-05
2.47004e-07
2.59484e-05
2.51597e-07
2.59704e-05
2.49137e-07
2.59864e-05
2.25604e-07
2.59747e-05
2.26101e-07
2.5975e-05
1.34628e-07
2.59516e-05
1.29856e-07
2.59392e-05
2.2717e-08
2.59239e-05
-6.63966e-09
2.58986e-05
-6.01155e-08
2.58681e-05
-1.34612e-07
2.5854e-05
-1.42604e-07
2.58815e-05
-2.29792e-07
2.58952e-05
-1.47372e-07
2.60058e-05
-2.24494e-07
2.60895e-05
-1.36363e-07
2.62482e-05
-1.76906e-07
2.64664e-05
-1.90141e-07
2.66588e-05
-1.62135e-07
2.69796e-05
-2.96841e-07
2.72471e-05
-2.65214e-07
2.76381e-05
-4.73069e-07
2.79662e-05
-5.22072e-07
2.83536e-05
-7.95196e-07
2.87128e-05
-1.00427e-06
2.90608e-05
-1.25402e-06
2.94465e-05
-1.59172e-06
2.97097e-05
-1.78558e-06
3.00034e-05
-2.21048e-06
3.0214e-05
-2.35281e-06
3.03967e-05
-2.70728e-06
3.04984e-05
-2.80115e-06
3.05665e-05
-2.91859e-06
3.06368e-05
-3.01508e-06
3.06336e-05
-2.94314e-06
3.05909e-05
-2.89921e-06
3.04948e-05
-2.70975e-06
3.03654e-05
-2.46372e-06
3.02282e-05
-2.14761e-06
3.01278e-05
-1.83644e-06
3.00355e-05
-1.47714e-06
3.00072e-05
-1.18363e-06
2.98748e-05
-8.33988e-07
2.98599e-05
-6.25652e-07
2.97938e-05
-3.37194e-07
2.97508e-05
-1.29147e-07
2.97866e-05
2.61437e-08
2.97621e-05
2.23282e-07
2.98515e-05
1.67276e-07
2.9892e-05
2.1203e-07
2.9916e-05
7.32825e-08
2.99325e-05
-1.84269e-07
2.99527e-05
-3.89573e-07
2.99354e-05
-8.39866e-07