/*--------------------------------*- C++ -*----------------------------------*\
| =========                 |                                                 |
| \\      /  F ield         | OpenFOAM: The Open Source CFD Toolbox           |
|  \\    /   O peration     | Version:  2.4.0                                 |
|   \\  /    A nd           | Web:      www.OpenFOAM.org                      |
|    \\/     M anipulation  |                                                 |
\*---------------------------------------------------------------------------*/
FoamFile
{
    version     2.0;
    format      ascii;
    class       volSymmTensorField;
    location    "1.95";
    object      UPrime2Mean;
}
// * * * * * * * * * * * * * * * * * * * * * * * * * * * * * * * * * * * * * //

dimensions      [0 2 -2 0 0 0 0];

internalField   nonuniform List<symmTensor> 
8800
(
(0.000888562 4.69055e-05 0 9.91775e-05 0 0)
(0.0165576 -0.000642701 0 3.74975e-05 0 0)
(0.0325378 -6.01292e-05 0 1.02922e-05 0 0)
(0.0410985 8.32494e-05 0 5.75877e-06 0 0)
(0.0466438 5.52368e-05 0 4.85265e-06 0 0)
(0.0523727 2.00964e-05 0 6.22744e-06 0 0)
(0.055332 -1.07914e-05 0 7.29854e-06 0 0)
(0.0581299 -5.03508e-05 0 9.49626e-06 0 0)
(0.0607088 -6.87169e-05 0 1.00809e-05 0 0)
(0.0617088 -9.40908e-05 0 1.25135e-05 0 0)
(0.064608 -0.000108562 0 1.25474e-05 0 0)
(0.0646549 -0.000136159 0 1.56116e-05 0 0)
(0.0678975 -0.000159666 0 1.5125e-05 0 0)
(0.0678664 -0.000180694 0 1.87729e-05 0 0)
(0.0720293 -0.000258449 0 1.80262e-05 0 0)
(0.0722276 -0.000194546 0 2.32688e-05 0 0)
(0.0810201 -0.000703326 0 2.50324e-05 0 0)
(0.0791974 0.000768465 0 6.64307e-05 0 0)
(0.129217 -0.00870791 0 0.000907272 0 0)
(0.136208 0.0154081 0 0.00306607 0 0)
(0.00534717 0.00136591 0 0.000604258 0 0)
(0.00154683 -0.000625359 0 0.000803094 0 0)
(0.0106434 -0.00105345 0 0.000349751 0 0)
(0.0168153 -0.00126133 0 0.000151462 0 0)
(0.0252506 -0.00115194 0 9.61546e-05 0 0)
(0.0372497 -0.00109085 0 8.22486e-05 0 0)
(0.0477986 -0.00138465 0 9.6357e-05 0 0)
(0.055989 -0.000965332 0 7.42438e-05 0 0)
(0.0717304 -0.00147715 0 9.83668e-05 0 0)
(0.0711406 -0.00110032 0 8.32956e-05 0 0)
(0.0938389 -0.00164042 0 0.000110881 0 0)
(0.0848903 -0.00142397 0 0.000105789 0 0)
(0.113876 -0.00210848 0 0.000144939 0 0)
(0.0983822 -0.00185005 0 0.000142025 0 0)
(0.134623 -0.00289625 0 0.000208988 0 0)
(0.111816 -0.00288403 0 0.000239208 0 0)
(0.1618 -0.00320696 0 0.000322266 0 0)
(0.133138 -0.00689278 0 0.000854047 0 0)
(0.22414 -0.0036392 0 0.000646525 0 0)
(0.218224 -0.0286324 0 0.0108217 0 0)
(0.0134758 0.000545752 0 0.000410319 0 0)
(0.0134565 0.000106509 0 0.000971477 0 0)
(0.0345662 -8.37249e-05 0 0.000640046 0 0)
(0.0375896 -0.00101848 0 0.000373457 0 0)
(0.0530436 -0.00102606 0 0.000306499 0 0)
(0.0617584 -0.00154479 0 0.000292862 0 0)
(0.0806308 -0.00310472 0 0.000351503 0 0)
(0.0852769 -0.00192687 0 0.000248201 0 0)
(0.119875 -0.00442674 0 0.000336722 0 0)
(0.108762 -0.00284053 0 0.000231509 0 0)
(0.163997 -0.00546642 0 0.000348524 0 0)
(0.132224 -0.00398982 0 0.000276441 0 0)
(0.209297 -0.00728484 0 0.000484681 0 0)
(0.153082 -0.00512729 0 0.000402156 0 0)
(0.258289 -0.0104481 0 0.000821314 0 0)
(0.166498 -0.00634839 0 0.000704019 0 0)
(0.315857 -0.0141473 0 0.00143281 0 0)
(0.179355 -0.00854422 0 0.00180089 0 0)
(0.393414 -0.0183628 0 0.00325497 0 0)
(0.223717 -0.0255013 0 0.013314 0 0)
(0.0662448 -0.000336031 0 0.000335568 0 0)
(0.0775053 -7.40443e-05 0 0.000803151 0 0)
(0.120107 -0.00109271 0 0.000666639 0 0)
(0.125376 -0.00207936 0 0.000472416 0 0)
(0.155065 -0.0013831 0 0.000484488 0 0)
(0.161258 -0.00253208 0 0.000512821 0 0)
(0.195229 -0.00490203 0 0.00068591 0 0)
(0.191796 -0.00252393 0 0.00051861 0 0)
(0.245943 -0.00827399 0 0.000795149 0 0)
(0.219476 -0.00446525 0 0.000524198 0 0)
(0.303624 -0.0110522 0 0.000876768 0 0)
(0.245774 -0.00713931 0 0.000638183 0 0)
(0.365659 -0.0150856 0 0.00122921 0 0)
(0.268859 -0.00969671 0 0.000905465 0 0)
(0.434097 -0.0216417 0 0.00204818 0 0)
(0.280965 -0.0121314 0 0.00148389 0 0)
(0.51354 -0.0293281 0 0.00329454 0 0)
(0.278935 -0.0157015 0 0.00369813 0 0)
(0.613195 -0.0350168 0 0.0054944 0 0)
(0.275616 -0.030967 0 0.0207624 0 0)
(0.258787 -0.00112655 0 0.000562127 0 0)
(0.256255 0.000201214 0 0.00107638 0 0)
(0.286412 -0.00382291 0 0.00128704 0 0)
(0.275824 -0.00389531 0 0.000964303 0 0)
(0.298644 -0.0040667 0 0.00105808 0 0)
(0.291211 -0.00552079 0 0.000974796 0 0)
(0.319952 -0.00826601 0 0.00150231 0 0)
(0.305774 -0.00504382 0 0.00110527 0 0)
(0.351194 -0.0128211 0 0.00189907 0 0)
(0.320829 -0.00709603 0 0.00127621 0 0)
(0.385854 -0.0165828 0 0.00222174 0 0)
(0.336821 -0.010556 0 0.00152766 0 0)
(0.421214 -0.021685 0 0.0029337 0 0)
(0.353397 -0.0139133 0 0.00196131 0 0)
(0.458074 -0.0298561 0 0.00429137 0 0)
(0.366035 -0.0174566 0 0.00269185 0 0)
(0.500117 -0.0400479 0 0.00625194 0 0)
(0.36899 -0.0222364 0 0.00508024 0 0)
(0.555085 -0.0495236 0 0.00953825 0 0)
(0.358142 -0.0317339 0 0.0235087 0 0)
(0.323866 -0.00508017 0 0.00184214 0 0)
(0.27754 -0.000985889 0 0.0025088 0 0)
(0.270846 -0.00709347 0 0.00317565 0 0)
(0.232138 -0.00554958 0 0.00205622 0 0)
(0.240363 -0.00781167 0 0.0028067 0 0)
(0.220815 -0.00734456 0 0.00230292 0 0)
(0.22583 -0.0103532 0 0.00333301 0 0)
(0.211609 -0.00689708 0 0.00241931 0 0)
(0.221235 -0.0132084 0 0.00400057 0 0)
(0.209186 -0.0087059 0 0.00268501 0 0)
(0.219401 -0.0158862 0 0.00453204 0 0)
(0.211515 -0.0116609 0 0.00321046 0 0)
(0.217816 -0.0188521 0 0.00552741 0 0)
(0.219464 -0.0145209 0 0.00387747 0 0)
(0.214279 -0.023351 0 0.00745842 0 0)
(0.232554 -0.0179876 0 0.00484017 0 0)
(0.208078 -0.0286155 0 0.01045 0 0)
(0.250792 -0.0226617 0 0.0073175 0 0)
(0.201341 -0.0328249 0 0.0169603 0 0)
(0.277563 -0.0308154 0 0.0208844 0 0)
(0.149808 -0.00832755 0 0.0034433 0 0)
(0.133018 -0.00712813 0 0.00509241 0 0)
(0.124221 -0.00659652 0 0.00496975 0 0)
(0.114911 -0.00938751 0 0.00421927 0 0)
(0.112225 -0.008434 0 0.00513727 0 0)
(0.113751 -0.00867374 0 0.00458405 0 0)
(0.10961 -0.00901603 0 0.00516469 0 0)
(0.111603 -0.00873735 0 0.00468284 0 0)
(0.111881 -0.00960388 0 0.00570677 0 0)
(0.113857 -0.00953098 0 0.00505071 0 0)
(0.112138 -0.0109985 0 0.00639392 0 0)
(0.120131 -0.0105148 0 0.00572556 0 0)
(0.115296 -0.0115328 0 0.00753447 0 0)
(0.129247 -0.0118598 0 0.00675112 0 0)
(0.117351 -0.0116876 0 0.00953314 0 0)
(0.142404 -0.0134794 0 0.00819521 0 0)
(0.118763 -0.010439 0 0.012796 0 0)
(0.161844 -0.0151639 0 0.0118856 0 0)
(0.121156 -0.00457625 0 0.0204802 0 0)
(0.192292 -0.0133661 0 0.0313487 0 0)
(0.131423 -0.00975387 0 0.00424921 0 0)
(0.1603 -0.0156286 0 0.00850267 0 0)
(0.128453 -0.00714774 0 0.00668144 0 0)
(0.162582 -0.0117315 0 0.00579105 0 0)
(0.140931 -0.00977076 0 0.00672366 0 0)
(0.160185 -0.00959375 0 0.00666861 0 0)
(0.157534 -0.00819616 0 0.0061784 0 0)
(0.163903 -0.00973324 0 0.00676164 0 0)
(0.169487 -0.0076866 0 0.00690521 0 0)
(0.168512 -0.0092316 0 0.00698594 0 0)
(0.180679 -0.00739479 0 0.00747235 0 0)
(0.174136 -0.00875662 0 0.00795819 0 0)
(0.195873 -0.00577833 0 0.00852467 0 0)
(0.183075 -0.0086853 0 0.0091286 0 0)
(0.207296 -0.00305502 0 0.0104112 0 0)
(0.194855 -0.00819168 0 0.0109 0 0)
(0.222574 0.00181835 0 0.0133581 0 0)
(0.210864 -0.00666755 0 0.015829 0 0)
(0.238387 0.0126202 0 0.0210283 0 0)
(0.234085 -7.82569e-05 0 0.0366956 0 0)
(0.225108 -0.00693799 0 0.00408336 0 0)
(0.251604 -0.0148141 0 0.0108724 0 0)
(0.217245 -0.00460271 0 0.00760514 0 0)
(0.223786 -0.00737423 0 0.00673856 0 0)
(0.246899 -0.0055229 0 0.00670622 0 0)
(0.212548 -0.0055429 0 0.00749026 0 0)
(0.27641 -0.00351866 0 0.00626496 0 0)
(0.211214 -0.00538649 0 0.00755204 0 0)
(0.291683 -0.00158533 0 0.00670341 0 0)
(0.214694 -0.00526732 0 0.00805643 0 0)
(0.301426 0.000237568 0 0.00721299 0 0)
(0.222788 -0.00417614 0 0.00885535 0 0)
(0.314337 0.00272777 0 0.00826336 0 0)
(0.233758 -0.00355419 0 0.0101321 0 0)
(0.329264 0.00639204 0 0.00949369 0 0)
(0.247614 -0.00217826 0 0.0118881 0 0)
(0.343686 0.0123838 0 0.011835 0 0)
(0.267635 0.000516334 0 0.0163831 0 0)
(0.359737 0.0238561 0 0.0179185 0 0)
(0.304537 0.0054285 0 0.0303351 0 0)
(0.252131 -0.00339419 0 0.00296397 0 0)
(0.279728 -0.00687873 0 0.00828136 0 0)
(0.270263 -0.000676604 0 0.00496668 0 0)
(0.232219 -0.00140169 0 0.00509258 0 0)
(0.29047 -0.000607849 0 0.00454801 0 0)
(0.224047 -0.000773171 0 0.00549035 0 0)
(0.300448 0.00116007 0 0.0042462 0 0)
(0.224017 -0.000512238 0 0.00568393 0 0)
(0.300475 0.00310402 0 0.0045612 0 0)
(0.228101 -0.000295626 0 0.00594991 0 0)
(0.306384 0.00410696 0 0.00498299 0 0)
(0.241343 0.000800088 0 0.00639073 0 0)
(0.313636 0.00649442 0 0.00556713 0 0)
(0.256698 0.00154962 0 0.00720727 0 0)
(0.322014 0.00957641 0 0.0061624 0 0)
(0.277399 0.00364252 0 0.00828135 0 0)
(0.333346 0.0144428 0 0.00725626 0 0)
(0.310249 0.00779568 0 0.0109526 0 0)
(0.349896 0.0232113 0 0.0107244 0 0)
(0.376516 0.0129977 0 0.0198618 0 0)
(0.170832 -0.00114667 0 0.00221805 0 0)
(0.195559 -0.00109052 0 0.00514991 0 0)
(0.185684 0.00182285 0 0.00351592 0 0)
(0.165714 0.00280904 0 0.00325189 0 0)
(0.193212 0.00179714 0 0.0038946 0 0)
(0.167471 0.002592 0 0.00394541 0 0)
(0.19436 0.0030135 0 0.00378624 0 0)
(0.170619 0.00359468 0 0.00417334 0 0)
(0.194244 0.00426957 0 0.00395488 0 0)
(0.178312 0.00434614 0 0.00437837 0 0)
(0.193859 0.00533291 0 0.00425172 0 0)
(0.193892 0.00541329 0 0.0045914 0 0)
(0.19831 0.00716558 0 0.00455527 0 0)
(0.206982 0.0069062 0 0.00500765 0 0)
(0.203668 0.00928665 0 0.00490858 0 0)
(0.226205 0.00978007 0 0.00557503 0 0)
(0.20923 0.0123139 0 0.0055941 0 0)
(0.257152 0.0150118 0 0.00688533 0 0)
(0.214191 0.0180339 0 0.00783536 0 0)
(0.315147 0.0221627 0 0.0124684 0 0)
(0.0741443 -0.000281036 0 0.00195459 0 0)
(0.0833593 0.00059243 0 0.00424429 0 0)
(0.0749328 0.00119197 0 0.00329492 0 0)
(0.0787799 0.00228089 0 0.00322515 0 0)
(0.0797379 0.00127857 0 0.00355251 0 0)
(0.0831226 0.00206075 0 0.0037725 0 0)
(0.0832026 0.00140846 0 0.0036178 0 0)
(0.087717 0.00321179 0 0.0040023 0 0)
(0.0840126 0.00210339 0 0.0036136 0 0)
(0.0963683 0.00392979 0 0.00404549 0 0)
(0.0833516 0.002793 0 0.00373509 0 0)
(0.107265 0.00468338 0 0.00413819 0 0)
(0.0866298 0.00356403 0 0.00384412 0 0)
(0.11803 0.00568233 0 0.00430018 0 0)
(0.0897819 0.00411692 0 0.00387866 0 0)
(0.132488 0.00763565 0 0.0044718 0 0)
(0.09136 0.00508469 0 0.00410357 0 0)
(0.154149 0.010955 0 0.00517774 0 0)
(0.0926496 0.00798414 0 0.00534558 0 0)
(0.194033 0.0156673 0 0.00868462 0 0)
(0.0245879 -8.75106e-05 0 0.00160393 0 0)
(0.0268565 0.00021375 0 0.00351188 0 0)
(0.0244128 -0.000272652 0 0.00287844 0 0)
(0.0318202 0.000623372 0 0.00265729 0 0)
(0.0293302 0.000240018 0 0.00270224 0 0)
(0.0333438 0.000767871 0 0.00284847 0 0)
(0.0321015 9.41244e-05 0 0.00284573 0 0)
(0.0374017 0.00132535 0 0.0031462 0 0)
(0.033325 0.000204704 0 0.00278496 0 0)
(0.0427178 0.00185824 0 0.00299615 0 0)
(0.0337609 0.000795241 0 0.00273893 0 0)
(0.0471701 0.00219396 0 0.00300867 0 0)
(0.0358047 0.00107917 0 0.00283 0 0)
(0.0526584 0.00256649 0 0.00292446 0 0)
(0.0385496 0.00124744 0 0.0026522 0 0)
(0.0591281 0.00352011 0 0.00278368 0 0)
(0.041093 0.00190279 0 0.00261697 0 0)
(0.0688719 0.00528146 0 0.00302671 0 0)
(0.0458101 0.00410467 0 0.003333 0 0)
(0.0877307 0.00859608 0 0.00511538 0 0)
(0.00745667 -0.000204716 0 0.0011623 0 0)
(0.00542105 -0.000529288 0 0.00263734 0 0)
(0.00641942 -0.00116146 0 0.00234895 0 0)
(0.00951953 -0.000483491 0 0.00182739 0 0)
(0.00959584 -0.000186551 0 0.001888 0 0)
(0.0107698 -0.000239652 0 0.00182829 0 0)
(0.0121339 -0.000266632 0 0.00195537 0 0)
(0.0132465 -0.000260186 0 0.00209698 0 0)
(0.0145591 -0.000549408 0 0.00189573 0 0)
(0.0164332 -6.08341e-07 0 0.00187288 0 0)
(0.0158108 -0.000113645 0 0.00175696 0 0)
(0.0185152 0.000136805 0 0.00180607 0 0)
(0.0175839 -0.000104542 0 0.00181312 0 0)
(0.0216836 3.03341e-06 0 0.00172549 0 0)
(0.0203308 -2.09293e-05 0 0.00160609 0 0)
(0.0255131 0.000429379 0 0.00150804 0 0)
(0.0239097 0.000595327 0 0.00145825 0 0)
(0.031983 0.00166963 0 0.00162624 0 0)
(0.0312626 0.00268763 0 0.00191376 0 0)
(0.0447431 0.00562914 0 0.0032122 0 0)
(0.00624138 -0.000311574 0 0.000861819 0 0)
(0.00268353 -0.000738786 0 0.00207227 0 0)
(0.00377041 -0.0012695 0 0.00191342 0 0)
(0.00501362 -0.000842937 0 0.00138727 0 0)
(0.00645531 -0.000413811 0 0.00144919 0 0)
(0.00629798 -0.000407934 0 0.00138892 0 0)
(0.00782228 -0.000487482 0 0.00158253 0 0)
(0.00806243 -0.000817799 0 0.00169309 0 0)
(0.010225 -0.0008369 0 0.00156403 0 0)
(0.0103824 -0.000592038 0 0.00147399 0 0)
(0.0120238 -0.000410984 0 0.00135802 0 0)
(0.012018 -0.000384113 0 0.00134143 0 0)
(0.0137224 -0.000362652 0 0.00132927 0 0)
(0.0142198 -0.00056813 0 0.00123093 0 0)
(0.0162191 -0.000372706 0 0.00111555 0 0)
(0.0169697 -0.000311372 0 0.000987467 0 0)
(0.019509 0.000206184 0 0.000895224 0 0)
(0.0218756 0.000731354 0 0.000915092 0 0)
(0.0262315 0.00211445 0 0.00108302 0 0)
(0.0325567 0.00420684 0 0.00178341 0 0)
(0.00764229 -0.00030354 0 0.000513041 0 0)
(0.00429271 -0.000210704 0 0.00136499 0 0)
(0.00443007 -0.000759219 0 0.0013106 0 0)
(0.00533388 -0.000572303 0 0.000973936 0 0)
(0.0070477 -0.000290689 0 0.0010979 0 0)
(0.00652578 -0.000129058 0 0.000995679 0 0)
(0.00843077 -0.000255588 0 0.00109968 0 0)
(0.00764224 -0.000309246 0 0.0011874 0 0)
(0.00935957 -0.000427292 0 0.001126 0 0)
(0.00807292 -0.00012616 0 0.00105114 0 0)
(0.00970025 -0.000111906 0 0.000932704 0 0)
(0.00812172 6.83493e-05 0 0.000875924 0 0)
(0.00950026 1.4553e-05 0 0.000829186 0 0)
(0.00783523 -6.82273e-06 0 0.00076558 0 0)
(0.00921772 -1.84419e-06 0 0.000675329 0 0)
(0.00778178 2.83228e-05 0 0.000607951 0 0)
(0.00947828 0.000322336 0 0.00050857 0 0)
(0.00924609 0.000576948 0 0.000514824 0 0)
(0.0124052 0.00151805 0 0.000594045 0 0)
(0.0157236 0.00253678 0 0.000988852 0 0)
(0.00661311 -0.000486838 0 0.000318908 0 0)
(0.00349111 1.28181e-06 0 0.000937938 0 0)
(0.00382105 -0.000276825 0 0.000799897 0 0)
(0.00510463 -0.000240862 0 0.000546955 0 0)
(0.00633661 -8.01776e-05 0 0.00065486 0 0)
(0.0055187 6.62778e-05 0 0.000622627 0 0)
(0.00623573 0.000126005 0 0.000647538 0 0)
(0.00489078 0.000387477 0 0.000659029 0 0)
(0.00474702 0.000388581 0 0.00059857 0 0)
(0.0038412 0.000667222 0 0.00053993 0 0)
(0.00349316 0.00058361 0 0.000472333 0 0)
(0.00340264 0.000775517 0 0.000436512 0 0)
(0.0027741 0.000636793 0 0.000405708 0 0)
(0.00342033 0.000744608 0 0.000376376 0 0)
(0.00274453 0.000503682 0 0.000326718 0 0)
(0.00404354 0.000633615 0 0.000306156 0 0)
(0.00362857 0.000374417 0 0.000260717 0 0)
(0.00544427 0.000662195 0 0.000264863 0 0)
(0.0061628 0.000644706 0 0.000364 0 0)
(0.00900743 0.00131516 0 0.000506276 0 0)
(0.0052936 -0.000979366 0 0.00037444 0 0)
(0.00166106 -0.000285836 0 0.000952183 0 0)
(0.00180945 -4.08659e-05 0 0.000619832 0 0)
(0.00245493 0.000120039 0 0.000363508 0 0)
(0.00255557 0.000458911 0 0.000347179 0 0)
(0.0026751 0.000725738 0 0.000311251 0 0)
(0.0041677 0.000880916 0 0.000294098 0 0)
(0.00654819 0.0010447 0 0.000276944 0 0)
(0.0081614 0.000971225 0 0.000238232 0 0)
(0.0121032 0.0010047 0 0.000208612 0 0)
(0.0128389 0.00085233 0 0.000181024 0 0)
(0.0178029 0.000880842 0 0.000168288 0 0)
(0.0172567 0.000716852 0 0.000161793 0 0)
(0.0229471 0.00076121 0 0.00015015 0 0)
(0.0213373 0.000462724 0 0.000134542 0 0)
(0.0270996 0.000583165 0 0.000127111 0 0)
(0.0248959 4.30761e-05 0 0.000115226 0 0)
(0.0291826 0.000440162 0 0.00012281 0 0)
(0.0276539 -0.00030743 0 0.000171851 0 0)
(0.0289089 0.000851468 0 0.000322328 0 0)
(0.00466877 -0.00146047 0 0.000591759 0 0)
(0.000804837 0.000564423 0 0.000792288 0 0)
(0.0043857 0.00111953 0 0.000336434 0 0)
(0.00873091 0.000983563 0 0.000140342 0 0)
(0.0136792 0.000961811 0 9.75858e-05 0 0)
(0.0200422 0.000869231 0 7.83421e-05 0 0)
(0.0260653 0.000728658 0 7.15154e-05 0 0)
(0.0325625 0.000626522 0 6.70336e-05 0 0)
(0.0364606 0.000501357 0 6.23103e-05 0 0)
(0.042191 0.000449127 0 5.94899e-05 0 0)
(0.0439556 0.000363992 0 5.70138e-05 0 0)
(0.0494021 0.000362989 0 5.4788e-05 0 0)
(0.0494803 0.00028404 0 5.45659e-05 0 0)
(0.0549998 0.00030413 0 4.9905e-05 0 0)
(0.0536749 0.000145195 0 4.60702e-05 0 0)
(0.0587896 0.00018199 0 4.14463e-05 0 0)
(0.0561757 -0.000149875 0 3.96871e-05 0 0)
(0.0588224 6.78404e-05 0 3.95748e-05 0 0)
(0.0567666 -0.000585301 0 5.87664e-05 0 0)
(0.0529125 0.000350958 0 0.000173906 0 0)
(0.00086501 -5.10401e-05 0 9.83566e-05 0 0)
(0.0165526 0.000643909 0 3.6372e-05 0 0)
(0.0322974 5.89222e-05 0 9.28506e-06 0 0)
(0.0402252 -9.84613e-05 0 4.2992e-06 0 0)
(0.0461018 -7.24221e-05 0 3.6959e-06 0 0)
(0.0506275 -5.53369e-05 0 4.05296e-06 0 0)
(0.0535114 -3.67839e-05 0 4.90442e-06 0 0)
(0.055997 -1.59659e-05 0 5.26398e-06 0 0)
(0.0573552 -9.25483e-06 0 5.8203e-06 0 0)
(0.0591404 5.22483e-07 0 5.87048e-06 0 0)
(0.05971 -3.6943e-06 0 5.97635e-06 0 0)
(0.0611983 5.18294e-06 0 5.65953e-06 0 0)
(0.0612755 -6.23592e-06 0 5.50474e-06 0 0)
(0.0626503 2.11916e-06 0 4.86498e-06 0 0)
(0.0621905 -2.58394e-05 0 4.47195e-06 0 0)
(0.0631598 -2.24954e-05 0 3.7234e-06 0 0)
(0.0617525 -7.53541e-05 0 3.39826e-06 0 0)
(0.0613704 -6.1565e-05 0 2.99562e-06 0 0)
(0.0596117 -0.000221422 0 3.81359e-06 0 0)
(0.0539798 0.000299902 0 2.15882e-05 0 0)
(0.256843 -0.123804 0 0.0772878 0 0)
(0.279409 -0.146538 0 0.108345 0 0)
(0.285645 -0.140355 0 0.129469 0 0)
(0.300687 -0.123785 0 0.145047 0 0)
(0.309578 -0.105613 0 0.154353 0 0)
(0.362103 -0.0924778 0 0.160285 0 0)
(0.39361 -0.0882232 0 0.165702 0 0)
(0.47655 -0.0970533 0 0.173901 0 0)
(0.521766 -0.109911 0 0.183924 0 0)
(0.605754 -0.128348 0 0.194594 0 0)
(0.640561 -0.14108 0 0.206096 0 0)
(0.715733 -0.157462 0 0.22055 0 0)
(0.744865 -0.165226 0 0.235717 0 0)
(0.820363 -0.180366 0 0.249679 0 0)
(0.855379 -0.190018 0 0.259401 0 0)
(0.936849 -0.212064 0 0.267707 0 0)
(0.974807 -0.231709 0 0.278388 0 0)
(1.06297 -0.264738 0 0.294646 0 0)
(1.10189 -0.28931 0 0.317544 0 0)
(1.21012 -0.324544 0 0.346769 0 0)
(1.26583 -0.346162 0 0.373839 0 0)
(1.40013 -0.384105 0 0.403025 0 0)
(1.46451 -0.408253 0 0.431636 0 0)
(1.61945 -0.452364 0 0.461554 0 0)
(1.69348 -0.477453 0 0.489966 0 0)
(1.86229 -0.530368 0 0.522502 0 0)
(1.94828 -0.55697 0 0.554625 0 0)
(2.12236 -0.626116 0 0.591674 0 0)
(2.22352 -0.659407 0 0.630525 0 0)
(2.39487 -0.743463 0 0.678297 0 0)
(2.51342 -0.780429 0 0.729802 0 0)
(2.69298 -0.870453 0 0.786438 0 0)
(2.8302 -0.907859 0 0.84195 0 0)
(3.03976 -1.00653 0 0.901676 0 0)
(3.18706 -1.04959 0 0.957959 0 0)
(3.42552 -1.16154 0 1.01892 0 0)
(3.55265 -1.20398 0 1.07247 0 0)
(3.8048 -1.32551 0 1.13196 0 0)
(3.89454 -1.36028 0 1.18403 0 0)
(4.1495 -1.48646 0 1.24614 0 0)
(4.194 -1.50122 0 1.30218 0 0)
(4.43963 -1.62438 0 1.36457 0 0)
(4.44193 -1.61507 0 1.41809 0 0)
(4.69333 -1.73376 0 1.48059 0 0)
(4.67098 -1.71488 0 1.53403 0 0)
(4.95445 -1.83781 0 1.59659 0 0)
(4.92005 -1.81612 0 1.6466 0 0)
(5.2506 -1.94638 0 1.71491 0 0)
(5.20789 -1.93108 0 1.76674 0 0)
(5.5985 -2.06911 0 1.84277 0 0)
(5.5348 -2.0612 0 1.90087 0 0)
(5.98716 -2.21198 0 1.99069 0 0)
(5.86682 -2.19731 0 2.05977 0 0)
(6.36145 -2.3544 0 2.15776 0 0)
(6.14493 -2.30499 0 2.22369 0 0)
(6.66643 -2.4649 0 2.31935 0 0)
(6.34872 -2.36977 0 2.36713 0 0)
(6.90289 -2.5353 0 2.4472 0 0)
(6.49346 -2.4116 0 2.48182 0 0)
(7.113 -2.59819 0 2.55664 0 0)
(6.6079 -2.47221 0 2.59419 0 0)
(7.31577 -2.68375 0 2.67725 0 0)
(6.68972 -2.55264 0 2.72498 0 0)
(7.46673 -2.76946 0 2.81812 0 0)
(6.70822 -2.6059 0 2.86196 0 0)
(7.53042 -2.80019 0 2.94613 0 0)
(6.67131 -2.59353 0 2.95293 0 0)
(7.5551 -2.74571 0 2.99689 0 0)
(6.62867 -2.52932 0 2.98023 0 0)
(7.63927 -2.69155 0 3.02977 0 0)
(6.64258 -2.48134 0 3.03225 0 0)
(7.80517 -2.67766 0 3.08881 0 0)
(6.71374 -2.45621 0 3.09491 0 0)
(8.04969 -2.71784 0 3.16527 0 0)
(6.83034 -2.47675 0 3.20324 0 0)
(8.31558 -2.8112 0 3.31761 0 0)
(6.98593 -2.53372 0 3.39301 0 0)
(8.5443 -2.91828 0 3.56107 0 0)
(7.12927 -2.60096 0 3.654 0 0)
(8.71428 -2.98771 0 3.84863 0 0)
(7.18643 -2.63826 0 3.9375 0 0)
(8.81839 -3.01374 0 4.11698 0 0)
(7.15899 -2.63629 0 4.17342 0 0)
(8.86172 -3.01677 0 4.33119 0 0)
(7.09306 -2.60364 0 4.36222 0 0)
(8.79589 -2.96888 0 4.51302 0 0)
(7.03495 -2.52459 0 4.53708 0 0)
(8.6902 -2.87431 0 4.71636 0 0)
(6.99773 -2.43709 0 4.75137 0 0)
(8.63949 -2.76196 0 4.92739 0 0)
(6.99727 -2.3603 0 4.96995 0 0)
(8.65705 -2.71337 0 5.17 0 0)
(7.06877 -2.33712 0 5.24433 0 0)
(8.74758 -2.70857 0 5.46645 0 0)
(7.18496 -2.31526 0 5.54164 0 0)
(8.84159 -2.69463 0 5.78094 0 0)
(7.31398 -2.28015 0 5.86393 0 0)
(8.92054 -2.66142 0 6.14135 0 0)
(7.41504 -2.22869 0 6.23286 0 0)
(8.89941 -2.59389 0 6.54153 0 0)
(7.42486 -2.14702 0 6.67279 0 0)
(8.84743 -2.5263 0 7.0198 0 0)
(7.33723 -2.05028 0 7.15178 0 0)
(8.79031 -2.4402 0 7.48974 0 0)
(7.20177 -1.9479 0 7.56572 0 0)
(8.7006 -2.37596 0 7.89817 0 0)
(7.04247 -1.83144 0 7.9443 0 0)
(8.57668 -2.26026 0 8.21334 0 0)
(6.93567 -1.67228 0 8.20592 0 0)
(8.46659 -2.11649 0 8.48125 0 0)
(6.91943 -1.53919 0 8.46506 0 0)
(8.41819 -2.00054 0 8.72741 0 0)
(7.00719 -1.43657 0 8.69365 0 0)
(8.40164 -1.89521 0 8.96397 0 0)
(7.10988 -1.31471 0 8.932 0 0)
(8.36247 -1.76248 0 9.20606 0 0)
(7.21631 -1.21588 0 9.2189 0 0)
(8.29533 -1.64037 0 9.52759 0 0)
(7.32742 -1.15011 0 9.59089 0 0)
(8.27158 -1.53523 0 9.92034 0 0)
(7.43386 -1.1087 0 10.024 0 0)
(8.22229 -1.45731 0 10.3343 0 0)
(7.44963 -1.06564 0 10.4593 0 0)
(8.11516 -1.38746 0 10.7489 0 0)
(7.41255 -1.01809 0 10.838 0 0)
(8.0204 -1.29842 0 11.0726 0 0)
(7.33526 -0.936471 0 11.1554 0 0)
(7.93777 -1.20439 0 11.3704 0 0)
(7.30488 -0.885913 0 11.4516 0 0)
(7.82642 -1.14788 0 11.6402 0 0)
(7.33827 -0.914824 0 11.7766 0 0)
(7.75056 -1.13009 0 11.9925 0 0)
(7.43894 -0.964747 0 12.1584 0 0)
(7.73655 -1.0762 0 12.3343 0 0)
(7.50593 -0.951343 0 12.4921 0 0)
(7.70272 -0.958775 0 12.666 0 0)
(7.52666 -0.847491 0 12.8042 0 0)
(7.65139 -0.822076 0 13.035 0 0)
(7.53837 -0.721796 0 13.2429 0 0)
(7.61409 -0.693045 0 13.4401 0 0)
(7.52999 -0.637629 0 13.656 0 0)
(7.53688 -0.573059 0 13.7961 0 0)
(7.52186 -0.557338 0 14.0036 0 0)
(7.4032 -0.465383 0 14.1638 0 0)
(7.36592 -0.466641 0 14.4238 0 0)
(7.1746 -0.338574 0 14.5576 0 0)
(7.17748 -0.334274 0 14.6753 0 0)
(6.97854 -0.251252 0 14.7623 0 0)
(7.00153 -0.176124 0 14.9035 0 0)
(6.80903 -0.16689 0 14.9548 0 0)
(6.82521 -0.0543757 0 14.9891 0 0)
(6.65594 -0.0672223 0 14.9232 0 0)
(6.6665 0.0613769 0 14.9235 0 0)
(6.532 0.0233259 0 14.8238 0 0)
(6.5481 0.171622 0 14.889 0 0)
(6.42253 0.0944365 0 14.8173 0 0)
(6.46587 0.235693 0 14.899 0 0)
(6.36298 0.145396 0 14.7806 0 0)
(6.40796 0.249276 0 14.8996 0 0)
(6.23988 0.0989479 0 14.7331 0 0)
(6.28896 0.174811 0 14.841 0 0)
(6.11116 0.0438528 0 14.7518 0 0)
(6.16862 0.114696 0 14.7818 0 0)
(6.04043 -0.0389916 0 14.6742 0 0)
(6.12933 0.0418487 0 14.6729 0 0)
(5.99851 -0.144168 0 14.5667 0 0)
(6.12817 -0.0734028 0 14.5478 0 0)
(5.92804 -0.330562 0 14.4562 0 0)
(6.08369 -0.180063 0 14.3859 0 0)
(5.9397 -0.506065 0 14.2177 0 0)
(5.99094 -0.358069 0 14.083 0 0)
(6.01742 -0.726533 0 13.9326 0 0)
(5.85324 -0.515822 0 13.6357 0 0)
(6.13546 -0.964292 0 13.3548 0 0)
(5.80423 -0.576561 0 13.0435 0 0)
(6.15686 -1.02726 0 12.7354 0 0)
(5.84724 -0.606029 0 12.4366 0 0)
(6.20147 -1.01374 0 12.0066 0 0)
(5.86614 -0.642775 0 11.8306 0 0)
(6.26598 -0.943151 0 11.2257 0 0)
(5.85723 -0.692545 0 11.2071 0 0)
(6.2245 -0.8556 0 10.3597 0 0)
(5.73425 -0.817025 0 10.6222 0 0)
(6.03372 -0.693336 0 9.50452 0 0)
(5.55996 -0.92255 0 10.1317 0 0)
(5.75613 -0.429557 0 8.7633 0 0)
(5.35024 -0.983904 0 9.80345 0 0)
(5.3855 -0.142884 0 8.21821 0 0)
(5.05157 -0.935197 0 9.72933 0 0)
(5.01338 0.29085 0 8.01178 0 0)
(4.67705 -0.774554 0 9.96207 0 0)
(4.67828 0.843072 0 8.09517 0 0)
(4.27598 -0.457591 0 10.7046 0 0)
(4.22091 1.49091 0 8.68291 0 0)
(3.93546 0.0574769 0 12.1986 0 0)
(3.70116 2.41306 0 10.2075 0 0)
(3.48387 0.425207 0 14.5489 0 0)
(2.93832 3.6384 0 13.1402 0 0)
(3.26103 2.37321 0 19.9262 0 0)
(1.05991 0.690961 0 21.7874 0 0)
(0.240822 -0.102267 0 0.0868163 0 0)
(0.214716 -0.10919 0 0.113072 0 0)
(0.229408 -0.0979184 0 0.119365 0 0)
(0.201269 -0.0896853 0 0.123299 0 0)
(0.223243 -0.0806725 0 0.12376 0 0)
(0.217132 -0.0799657 0 0.122927 0 0)
(0.255168 -0.0841652 0 0.125191 0 0)
(0.261971 -0.0963276 0 0.132083 0 0)
(0.309098 -0.106212 0 0.140376 0 0)
(0.315024 -0.120691 0 0.149327 0 0)
(0.360828 -0.12877 0 0.158938 0 0)
(0.362512 -0.14329 0 0.171267 0 0)
(0.41112 -0.150486 0 0.183798 0 0)
(0.419201 -0.166209 0 0.19674 0 0)
(0.478311 -0.17489 0 0.208146 0 0)
(0.502033 -0.197196 0 0.22061 0 0)
(0.574911 -0.214135 0 0.23448 0 0)
(0.616558 -0.248811 0 0.25229 0 0)
(0.697249 -0.272363 0 0.27199 0 0)
(0.748679 -0.312618 0 0.295973 0 0)
(0.829064 -0.334909 0 0.320137 0 0)
(0.891062 -0.376755 0 0.346836 0 0)
(0.972072 -0.396768 0 0.372709 0 0)
(1.04993 -0.44354 0 0.401216 0 0)
(1.13358 -0.46191 0 0.428761 0 0)
(1.23275 -0.516954 0 0.461658 0 0)
(1.32622 -0.536405 0 0.494253 0 0)
(1.45097 -0.603978 0 0.533422 0 0)
(1.55943 -0.630206 0 0.571955 0 0)
(1.70631 -0.71288 0 0.619203 0 0)
(1.82317 -0.746241 0 0.66481 0 0)
(1.98656 -0.840517 0 0.718526 0 0)
(2.0961 -0.874403 0 0.767832 0 0)
(2.27396 -0.977031 0 0.824568 0 0)
(2.3595 -1.00579 0 0.874561 0 0)
(2.55268 -1.11643 0 0.931817 0 0)
(2.59385 -1.13166 0 0.981636 0 0)
(2.80099 -1.24857 0 1.03777 0 0)
(2.78832 -1.24587 0 1.08781 0 0)
(3.01507 -1.37052 0 1.14462 0 0)
(2.95586 -1.34741 0 1.19526 0 0)
(3.20392 -1.47602 0 1.25615 0 0)
(3.11473 -1.43953 0 1.30606 0 0)
(3.39544 -1.571 0 1.37127 0 0)
(3.29337 -1.53001 0 1.42054 0 0)
(3.61443 -1.66932 0 1.49438 0 0)
(3.50712 -1.63131 0 1.54569 0 0)
(3.8716 -1.77949 0 1.62491 0 0)
(3.74619 -1.74021 0 1.67747 0 0)
(4.15624 -1.89721 0 1.75996 0 0)
(3.98402 -1.84352 0 1.81408 0 0)
(4.44502 -2.01349 0 1.90026 0 0)
(4.19893 -1.92838 0 1.95466 0 0)
(4.70791 -2.11118 0 2.04134 0 0)
(4.37369 -1.98025 0 2.09091 0 0)
(4.92906 -2.17965 0 2.17268 0 0)
(4.51736 -2.00625 0 2.21289 0 0)
(5.12083 -2.22817 0 2.29137 0 0)
(4.65746 -2.03626 0 2.32436 0 0)
(5.30988 -2.28092 0 2.41371 0 0)
(4.79939 -2.0974 0 2.4491 0 0)
(5.49764 -2.34629 0 2.54843 0 0)
(4.92022 -2.17342 0 2.58249 0 0)
(5.6555 -2.39257 0 2.67536 0 0)
(4.9789 -2.20678 0 2.69574 0 0)
(5.75553 -2.38327 0 2.76155 0 0)
(4.97249 -2.16826 0 2.75668 0 0)
(5.83583 -2.33532 0 2.8055 0 0)
(4.96958 -2.10742 0 2.80211 0 0)
(5.95782 -2.31217 0 2.8697 0 0)
(5.02267 -2.07149 0 2.87316 0 0)
(6.1518 -2.32458 0 2.95647 0 0)
(5.14794 -2.06568 0 2.96561 0 0)
(6.40361 -2.38799 0 3.06894 0 0)
(5.32755 -2.10204 0 3.10381 0 0)
(6.66033 -2.49109 0 3.24869 0 0)
(5.52016 -2.16599 0 3.31821 0 0)
(6.86301 -2.58186 0 3.50716 0 0)
(5.65941 -2.20356 0 3.58515 0 0)
(6.98272 -2.61246 0 3.78525 0 0)
(5.70075 -2.20215 0 3.85415 0 0)
(7.04694 -2.60669 0 4.0374 0 0)
(5.70318 -2.17467 0 4.08207 0 0)
(7.06162 -2.57415 0 4.24196 0 0)
(5.71205 -2.1438 0 4.25655 0 0)
(7.04982 -2.50586 0 4.41956 0 0)
(5.7316 -2.10062 0 4.44658 0 0)
(7.05028 -2.4235 0 4.63094 0 0)
(5.79107 -2.03468 0 4.66216 0 0)
(7.11756 -2.3422 0 4.86072 0 0)
(5.88929 -1.9974 0 4.92497 0 0)
(7.25047 -2.34039 0 5.15019 0 0)
(6.03738 -1.98785 0 5.22765 0 0)
(7.43978 -2.35274 0 5.45772 0 0)
(6.23643 -1.97262 0 5.51689 0 0)
(7.64326 -2.37235 0 5.76261 0 0)
(6.45551 -1.94784 0 5.83684 0 0)
(7.82849 -2.35314 0 6.11574 0 0)
(6.65131 -1.90168 0 6.20649 0 0)
(7.94883 -2.30957 0 6.53968 0 0)
(6.75993 -1.81901 0 6.65488 0 0)
(8.00437 -2.23339 0 7.00889 0 0)
(6.77334 -1.69375 0 7.10194 0 0)
(8.01334 -2.11862 0 7.45445 0 0)
(6.66979 -1.56981 0 7.50451 0 0)
(7.9127 -2.00678 0 7.85765 0 0)
(6.52231 -1.4137 0 7.87621 0 0)
(7.80173 -1.85222 0 8.1897 0 0)
(6.45206 -1.25819 0 8.16592 0 0)
(7.8071 -1.72257 0 8.46078 0 0)
(6.5293 -1.14244 0 8.42468 0 0)
(7.92592 -1.60559 0 8.71442 0 0)
(6.71345 -1.03098 0 8.67025 0 0)
(8.04575 -1.46854 0 8.96873 0 0)
(6.93407 -0.941152 0 8.94127 0 0)
(8.12579 -1.37178 0 9.2261 0 0)
(7.18168 -0.902438 0 9.24887 0 0)
(8.21759 -1.30313 0 9.55158 0 0)
(7.4085 -0.865816 0 9.64385 0 0)
(8.30477 -1.23486 0 9.97582 0 0)
(7.51425 -0.845763 0 10.0907 0 0)
(8.29716 -1.19241 0 10.4237 0 0)
(7.48662 -0.824845 0 10.5336 0 0)
(8.24496 -1.15637 0 10.8333 0 0)
(7.4353 -0.772164 0 10.9325 0 0)
(8.2087 -1.09897 0 11.1615 0 0)
(7.44322 -0.736443 0 11.2424 0 0)
(8.19124 -1.06061 0 11.4501 0 0)
(7.54181 -0.782981 0 11.5509 0 0)
(8.18448 -1.07439 0 11.7336 0 0)
(7.64963 -0.907568 0 11.8705 0 0)
(8.1794 -1.09266 0 12.0586 0 0)
(7.759 -0.975641 0 12.2376 0 0)
(8.17904 -1.03758 0 12.42 0 0)
(7.83264 -0.934216 0 12.6105 0 0)
(8.23347 -0.9125 0 12.7494 0 0)
(7.93245 -0.845212 0 12.8992 0 0)
(8.27628 -0.780017 0 13.101 0 0)
(8.00788 -0.759401 0 13.3524 0 0)
(8.26032 -0.65243 0 13.5401 0 0)
(7.98631 -0.648913 0 13.8129 0 0)
(8.16224 -0.521791 0 13.9364 0 0)
(7.8826 -0.543043 0 14.1543 0 0)
(7.95376 -0.366152 0 14.3227 0 0)
(7.64336 -0.388549 0 14.6034 0 0)
(7.70517 -0.188537 0 14.6791 0 0)
(7.36858 -0.238301 0 14.8964 0 0)
(7.45948 -0.0588139 0 14.9427 0 0)
(7.05758 -0.10473 0 15.1127 0 0)
(7.16814 0.0668831 0 15.1376 0 0)
(6.86837 0.0883173 0 15.2012 0 0)
(6.94244 0.176422 0 15.0793 0 0)
(6.74312 0.210518 0 15.116 0 0)
(6.81794 0.218892 0 15.0822 0 0)
(6.66186 0.2601 0 15.1093 0 0)
(6.72632 0.219722 0 15.0214 0 0)
(6.64601 0.299073 0 15.1093 0 0)
(6.64281 0.244778 0 15.0682 0 0)
(6.57715 0.304991 0 15.1131 0 0)
(6.4573 0.168384 0 15.0939 0 0)
(6.49811 0.296457 0 15.0815 0 0)
(6.31492 0.0588537 0 15.0029 0 0)
(6.3859 0.23103 0 15.0478 0 0)
(6.2262 -0.043918 0 14.919 0 0)
(6.30361 0.110299 0 14.9414 0 0)
(6.10747 -0.153427 0 14.8677 0 0)
(6.23974 0.00546819 0 14.9336 0 0)
(6.03273 -0.310456 0 14.8284 0 0)
(6.19116 -0.0995605 0 14.7055 0 0)
(6.02298 -0.496163 0 14.6602 0 0)
(6.05844 -0.213798 0 14.481 0 0)
(5.99915 -0.743387 0 14.3346 0 0)
(5.97455 -0.308056 0 14.0333 0 0)
(5.89898 -0.942502 0 13.7379 0 0)
(6.01179 -0.435616 0 13.3406 0 0)
(5.81714 -1.06821 0 12.9302 0 0)
(6.0919 -0.550445 0 12.7245 0 0)
(5.84648 -1.14226 0 12.1657 0 0)
(6.12277 -0.728254 0 12.1381 0 0)
(5.92089 -1.10568 0 11.3391 0 0)
(6.087 -0.928688 0 11.6486 0 0)
(5.8708 -0.976078 0 10.5028 0 0)
(5.96595 -1.19728 0 11.1549 0 0)
(5.67737 -0.790057 0 9.58885 0 0)
(5.7803 -1.45482 0 10.6845 0 0)
(5.47162 -0.510623 0 8.75601 0 0)