/*--------------------------------*- C++ -*----------------------------------*\
| =========                 |                                                 |
| \\      /  F ield         | OpenFOAM: The Open Source CFD Toolbox           |
|  \\    /   O peration     | Version:  2.4.0                                 |
|   \\  /    A nd           | Web:      www.OpenFOAM.org                      |
|    \\/     M anipulation  |                                                 |
\*---------------------------------------------------------------------------*/
FoamFile
{
    version     2.0;
    format      ascii;
    class       volScalarField;
    location    "0.84";
    object      k;
}
// * * * * * * * * * * * * * * * * * * * * * * * * * * * * * * * * * * * * * //

dimensions      [0 2 -2 0 0 0 0];

internalField   nonuniform List<scalar> 
8800
(
8.12142
10.2632
8.79572
6.81836
5.70965
4.96944
4.53073
4.13733
3.92257
3.66075
3.54782
3.36512
3.29845
3.15713
3.09938
2.98345
2.91607
2.80763
2.73439
2.56476
1.405
4.35011
5.32016
5.28788
5.13126
4.80612
4.57828
4.2817
4.12595
3.87788
3.77512
3.58838
3.51929
3.37543
3.32632
3.21624
3.17244
3.07717
3.0116
2.96209
0.0844349
0.731192
1.56173
1.944
2.27855
2.4313
2.57951
2.59964
2.62299
2.60108
2.58916
2.54154
2.52428
2.47284
2.45919
2.41267
2.40506
2.3661
2.35042
2.30858
0.00335517
0.0699076
0.255658
0.420849
0.589879
0.695876
0.838387
0.93135
1.02227
1.09162
1.16696
1.20665
1.26529
1.29541
1.34111
1.36308
1.40582
1.42434
1.46242
1.4662
0.000123199
0.0049588
0.0216284
0.0532795
0.0914818
0.122442
0.159162
0.211618
0.236792
0.288169
0.315461
0.36105
0.38428
0.432153
0.453604
0.499245
0.523229
0.576735
0.59955
0.654521
2.50438e-05
0.000310543
0.00142588
0.0044556
0.00762931
0.0129118
0.0172372
0.0272341
0.0323366
0.0444494
0.0508533
0.0644989
0.0712456
0.0868645
0.0939658
0.109944
0.118574
0.139924
0.148919
0.173135
2.17829e-05
4.35345e-05
0.000116672
0.000342441
0.000527038
0.00090945
0.00124684
0.00209217
0.0025507
0.00381926
0.00460013
0.00634206
0.00733041
0.00984288
0.0110506
0.013624
0.0152488
0.0193591
0.0212791
0.0255081
2.11016e-05
3.0347e-05
4.38548e-05
7.79136e-05
9.30693e-05
0.000116569
0.000134754
0.000183085
0.000206489
0.000282686
0.000326083
0.000420389
0.000484901
0.000685549
0.000800562
0.000920355
0.00110126
0.00153008
0.00166093
0.0017632
2.07134e-05
3.089e-05
4.35757e-05
5.23369e-05
6.51256e-05
7.35816e-05
7.49576e-05
7.63824e-05
7.8005e-05
8.598e-05
9.08749e-05
9.37378e-05
9.58744e-05
0.00010405
0.000109599
0.000114934
0.000121303
0.000150791
0.000157514
0.000162714
2.06346e-05
2.69661e-05
4.12623e-05
5.37648e-05
6.01157e-05
6.55483e-05
6.7126e-05
6.7193e-05
6.7186e-05
6.9223e-05
7.41741e-05
7.52144e-05
7.51807e-05
7.59673e-05
7.61132e-05
7.6406e-05
7.62774e-05
7.69567e-05
7.92402e-05
8.59091e-05
2.05807e-05
2.70657e-05
4.73772e-05
5.66831e-05
5.63197e-05
5.7983e-05
6.40372e-05
7.00897e-05
7.43765e-05
7.57e-05
7.48047e-05
7.34278e-05
7.27701e-05
7.41866e-05
7.70063e-05
7.72647e-05
7.76258e-05
8.02832e-05
8.13851e-05
8.49006e-05
2.07441e-05
3.04965e-05
4.47919e-05
5.09599e-05
6.21155e-05
7.41562e-05
7.88877e-05
8.20137e-05
8.30272e-05
8.36198e-05
8.45862e-05
9.13086e-05
9.68814e-05
0.000106412
0.000110251
0.000118869
0.000129654
0.000152893
0.000169339
0.000228057
2.10306e-05
2.96094e-05
4.44075e-05
8.12532e-05
9.27858e-05
0.000113545
0.000128029
0.000168003
0.000206251
0.000299742
0.000341391
0.000458587
0.000518616
0.000646516
0.000742993
0.00102589
0.00123025
0.00167411
0.00198999
0.00284568
2.15701e-05
4.32384e-05
0.000130771
0.000352299
0.000473323
0.000834904
0.00117996
0.00203296
0.0026726
0.00409378
0.00475443
0.00652096
0.00745108
0.00954037
0.0108636
0.0142714
0.0163419
0.0211582
0.0239981
0.0315433
2.49735e-05
0.000308447
0.00170846
0.0046317
0.00670073
0.0126802
0.0171948
0.0270395
0.0331839
0.045729
0.0513603
0.0650921
0.0716972
0.0863013
0.0941198
0.11319
0.123085
0.146713
0.159259
0.193986
0.000122759
0.00493322
0.0265635
0.053966
0.0778756
0.1298
0.160181
0.20657
0.243602
0.291413
0.313204
0.362902
0.385426
0.433047
0.455681
0.509286
0.533763
0.593402
0.621376
0.695182
0.00335673
0.0695552
0.265176
0.413521
0.579632
0.710519
0.832316
0.92596
1.03136
1.09829
1.15174
1.22116
1.25701
1.30844
1.33398
1.38744
1.40776
1.45842
1.47928
1.52804
0.0844754
0.727652
1.5717
1.93226
2.28367
2.43329
2.57975
2.59498
2.62906
2.59927
2.58781
2.54193
2.5269
2.47528
2.46216
2.4217
2.41115
2.38139
2.36988
2.33898
1.40492
4.35169
5.32142
5.28559
5.13406
4.79475
4.59318
4.27498
4.12837
3.87091
3.78069
3.57509
3.51983
3.36634
3.32777
3.19688
3.16654
3.04502
3.0048
2.90103
8.11941
10.2673
8.79453
6.81583
5.71804
4.95469
4.54287
4.12949
3.9254
3.64822
3.55628
3.3447
3.29832
3.12846
3.09792
2.93089
2.89495
2.71478
2.65162
2.43725
1.7689
1.27289
1.00994
0.86799
0.790611
0.739435
0.704035
0.672515
0.649631
0.626553
0.606087
0.58778
0.570961
0.560112
0.548655
0.542733
0.53399
0.530512
0.52321
0.520049
0.512891
0.507694
0.496882
0.483554
0.462469
0.440778
0.424918
0.411219
0.405734
0.400773
0.399512
0.398732
0.396539
0.392789
0.388039
0.378988
0.368481
0.355804
0.340129
0.32498
0.308949
0.293992
0.280679
0.269828
0.261005
0.254539
0.25127
0.250102
0.249411
0.249854
0.25042
0.250859
0.252264
0.252639
0.252226
0.251589
0.252051
0.25293
0.254744
0.257476
0.261707
0.268731
0.274811
0.286926
0.296048
0.306561
0.317315
0.325185
0.332806
0.337273
0.344227
0.346341
0.349848
0.350697
0.352483
0.352427
0.352673
0.351068
0.350073
0.347227
0.345075
0.338752
0.336786
0.331175
0.32876
0.323805
0.321598
0.31552
0.312225
0.304457
0.29965
0.290009
0.280649
0.267651
0.253941
0.235321
0.217036
0.19839
0.178638
0.156161
0.136192
0.115104
0.0961605
0.0786549
0.0630416
0.0495793
0.0384488
0.0296795
0.022666
0.0168005
0.0128755
0.0095514
0.00740276
0.00595913
0.00494022
0.00426856
0.00423622
0.0040279
0.00401756
0.00421317
0.0042007
0.00439643
0.00505177
0.00717702
0.0144288
0.0419978
0.135967
0.217645
0.237324
0.231034
0.216977
0.188635
0.153766
0.134677
0.11954
0.116189
0.114703
0.115282
0.117027
0.116945
0.116748
0.115682
0.114887
0.110784
0.105592
0.101164
0.101573
0.101358
0.105026
0.105833
0.107376
0.106147
0.101981
0.0920256
0.0730189
0.0553388
0.0456739
0.0428289
0.0402547
0.0408713
0.0410311
0.0421176
0.0425815
0.0442052
0.044188
0.0441884
0.0444771
0.0453187
0.0451299
0.0464301
0.047877
0.049015
0.0492529
0.04934
0.0453202
0.0395572
0.035967
0.0323757
0.0277207
0.0248989
0.0207556
0.0181043
0.0148845
0.0140849
0.0132461
0.0130265
0.0132894
0.0144316
0.0190279
0.0207665
0.0226179
0.0264512
0.0407393
0.0565084
0.0609229
0.065238
0.0674287
0.07214
0.136019
0.691655
2.50006
2.04048
1.70377
1.46344
1.2938
1.17168
1.08163
1.01127
0.95144
0.904278
0.861882
0.82625
0.790642
0.763401
0.736349
0.720178
0.70174
0.692038
0.678816
0.669654
0.658587
0.648887
0.637365
0.627648
0.615633
0.604905
0.593736
0.584169
0.575335
0.566976
0.560682
0.554476
0.550308
0.544306
0.540089
0.533851
0.528335
0.521625
0.514461
0.507314
0.498338
0.490242
0.480863
0.472434
0.463487
0.455158
0.449933
0.44284
0.437186
0.434187
0.429847
0.4252
0.423663
0.4195
0.417097
0.41303
0.41089
0.406235
0.403877
0.402495
0.398867
0.395956
0.394762
0.390685
0.388903
0.385005
0.384074
0.381243
0.379375
0.377453
0.37381
0.372072
0.370782
0.3669
0.363891
0.362431
0.358847
0.355311
0.352982
0.348696
0.342517
0.33917
0.331984
0.325352
0.318672
0.307287
0.300387
0.284784
0.274726
0.259197
0.240746
0.224242
0.203241
0.178231
0.156164
0.130233
0.108904
0.087323
0.0692615
0.0548838
0.0438601
0.0349059
0.0279215
0.0221439
0.0175437
0.0139131
0.0107218
0.00861854
0.00675826
0.00538098
0.00455967
0.0037497
0.00338475
0.003169
0.00294706
0.0030512
0.00317806
0.00316328
0.00350282
0.00373701
0.00398787
0.00480519
0.00693713
0.0125199
0.031327
0.108747
0.223202
0.251568
0.246813
0.224062
0.193995
0.158519
0.138922
0.123371
0.113873
0.113646
0.113556
0.116922
0.118386
0.118464
0.118534
0.119314
0.120202
0.119185
0.112565
0.104108
0.103194
0.102972
0.104999
0.108375
0.109197
0.110979
0.109327
0.105396
0.0912935
0.0787943
0.059545
0.0519842
0.0452235
0.0434512
0.0435243
0.0435462
0.0441979
0.0456282
0.0459303
0.0456963
0.046997
0.0472
0.0474019
0.0489925
0.0495229
0.0495211
0.0491519
0.0461283
0.0399422
0.0339033
0.0308096
0.0278587
0.0236268
0.020719
0.017826
0.0159391
0.0144548
0.0128761
0.012922
0.0123742
0.0122817
0.0126598
0.0144083
0.0185264
0.0195435
0.020842
0.0253807
0.0431707
0.0533839
0.058166
0.0714863
0.0726375
0.145755
0.37447
2.06384
1.81265
1.59703
1.43009
1.29464
1.18736
1.09876
1.02658
0.967595
0.916195
0.874817
0.840314
0.805553
0.776616
0.743264
0.717744
0.69126
0.672797
0.656553
0.648258
0.638819
0.632139
0.622195
0.610479
0.59787
0.584319
0.572923
0.562063
0.555965
0.549687
0.547134
0.544255
0.541619
0.537841
0.53319
0.526774
0.521251
0.51607
0.509614
0.506865
0.503065
0.498903
0.496984
0.492685
0.488761
0.486482
0.480037
0.476665
0.473673
0.466981
0.46466
0.459769
0.456432
0.451857
0.448641
0.444238
0.438599
0.434226
0.428092
0.42129
0.414109
0.407073
0.401248
0.390136
0.38398
0.376137
0.3644
0.358577
0.347948
0.335456
0.32949
0.318009
0.307507
0.300863
0.287827
0.281705
0.272962
0.264852
0.254956
0.249375
0.239082
0.231958
0.220408
0.210204
0.197574
0.186156
0.170494
0.156285
0.13966
0.123131
0.104933
0.088117
0.0722663
0.0583437
0.0471718
0.0373677
0.0296181
0.0234077
0.0183309
0.014552
0.0114903
0.00917961
0.0074502
0.00595725
0.00496343
0.00413165
0.00340432
0.00310244
0.0026172
0.00248349
0.00230702
0.00219664
0.00222426
0.00223831
0.00229153
0.00256049
0.00264967
0.00284703
0.00339894
0.0037839
0.00491772
0.00759466
0.012846
0.0261243
0.071363
0.211524
0.263697
0.262793
0.240488
0.199014
0.175123
0.145913
0.131144
0.114862
0.11223
0.112416
0.113323
0.118749
0.119004
0.12112
0.121218
0.124286
0.12448
0.125003
0.122397
0.11243
0.108466
0.108971
0.108637
0.115185
0.114085
0.11557
0.114885
0.114034
0.106688
0.0977192
0.0842042
0.0717353
0.0622132
0.0530309
0.0517239
0.0485403
0.0489085
0.0491158
0.0497033
0.049367
0.0508992
0.0529102
0.0541163
0.0542599
0.0527477
0.0475541
0.0436156
0.0393336
0.0344692
0.0316874
0.0284394
0.0256425
0.02197
0.0188061
0.0168284
0.0153851
0.0143522
0.0130381
0.012066
0.0118488
0.0116396
0.0122871
0.0127474
0.0138683
0.0162493
0.0174885
0.0192239
0.0245774
0.0417477
0.0476995
0.0914154
0.0810991
0.122168
0.238062
1.36495
1.25033
1.13007
1.0426
0.965158
0.897231
0.849687
0.7974
0.756566
0.716416
0.676536
0.652178
0.624631
0.606541
0.588102
0.566068
0.54645
0.523307
0.503993
0.489916
0.479765
0.475689
0.473973
0.47159
0.466696
0.454598
0.4403
0.423215
0.407779
0.396984
0.390535
0.389348
0.390556
0.395809
0.401244
0.404103
0.404117
0.400295
0.39086
0.383349
0.375632
0.369489
0.365626
0.363888
0.362894
0.363093
0.363663
0.364175
0.364361
0.362922
0.360146
0.356353
0.351451
0.34853
0.342088
0.337475
0.332491
0.327669
0.32067
0.314269
0.306979
0.298664
0.28759
0.280498
0.265346
0.25689
0.244152
0.230476
0.21989
0.204766
0.192651
0.180881
0.16635
0.157353
0.145221
0.13388
0.125517
0.11575
0.107512
0.099077
0.0914506
0.0840789
0.0771789
0.0705281
0.0634049
0.056912
0.0504641
0.0439397
0.037933
0.0325021
0.0270264
0.0225135
0.0184061
0.0148463
0.0119431
0.0094904
0.00756897
0.0060023
0.00482707
0.00394454
0.00323998
0.00278325
0.00240265
0.00210082
0.00197576
0.00179555
0.00175309
0.00169431
0.00168872
0.00172814
0.00174745
0.00180183
0.00192713
0.00196744
0.00219623
0.00241775
0.00261128
0.00343968
0.00421947
0.00569946
0.00973778
0.0148843
0.024475
0.0528123
0.168686
0.268006
0.281064
0.264723
0.21258
0.186305
0.15742
0.134769
0.120402
0.111719
0.112227
0.111837
0.114487
0.119099
0.119729
0.125223
0.124829
0.128475
0.12751
0.129387
0.126987
0.125245
0.120803
0.124062
0.119324
0.123573
0.124062
0.12345
0.122913
0.122423
0.118609
0.106763
0.0998651
0.0835776
0.0755699
0.0636189
0.0604453
0.0578482
0.0586129
0.0587351
0.0589511
0.0592521
0.0608752
0.0615556
0.0598318
0.0555272
0.0492874
0.0442095
0.0386304
0.036693
0.0330563
0.0314536
0.0280529
0.0257062
0.0217026
0.0185897
0.0164712
0.0149824
0.0141859
0.0130058
0.0125114
0.0118456
0.0116531
0.0117468
0.0133804
0.0134919
0.0139959
0.0145358
0.0176826
0.0212542
0.0485247
0.0513681
0.0984224
0.0952708
0.101044
0.15462
0.626418
0.597002
0.544674
0.513309
0.484378
0.448885
0.433076
0.410783
0.395908
0.38385
0.364841
0.355463
0.341576
0.330199
0.324665
0.313624
0.306738
0.295081
0.280817
0.267143
0.254819
0.249499
0.248608
0.249347
0.254123
0.257109
0.25837
0.257855
0.247274
0.229904
0.212309
0.199804
0.193726
0.191844
0.193459
0.202263
0.212049
0.221052
0.225357
0.226503
0.224827
0.214001
0.204328
0.195714
0.187853
0.184678
0.183373
0.183328
0.186045
0.188171
0.189854
0.190882
0.190403
0.188745
0.184486
0.177108
0.171833
0.165897
0.158687
0.153263
0.146666
0.141489
0.132779
0.127276
0.117634
0.109649
0.100193
0.0905804
0.0832738
0.0749228
0.067512
0.0616626
0.0550415
0.0503485
0.0454066
0.0410915
0.0376682
0.0340749
0.0311592
0.0282327
0.0257406
0.0233037
0.0209984
0.0188217
0.0166643
0.0146353
0.012759
0.0109429
0.0092973
0.00785213
0.00656596
0.00542255
0.00449505
0.00371218
0.00303705
0.00252858
0.00213724
0.00182373
0.00166249
0.00149182
0.00143388
0.00137704
0.00136581
0.00137747
0.00138658
0.00140224
0.00145338
0.00148228
0.00155996
0.00165177
0.00172521
0.00197209
0.00214022
0.00242471
0.00311534
0.0034263
0.00418406
0.00613332
0.00762248
0.0114509
0.0190279
0.025947
0.0420944
0.108117
0.258963
0.301084
0.290594
0.236292
0.197562
0.16535
0.147405
0.129536
0.116829
0.11147
0.111751
0.11139
0.117975
0.118229
0.122514
0.128265
0.128005
0.132383
0.131023
0.13243
0.130277
0.13288
0.138339
0.145132
0.144119
0.139203
0.14098
0.136744
0.134416
0.131574
0.133649
0.124658
0.121737
0.110159
0.0983011
0.0879561
0.0833895
0.0783557
0.0715705
0.0721772
0.0721855
0.0725164
0.0711311
0.067458
0.0610583
0.0544939
0.0484472
0.0437916
0.0384851
0.0367876
0.033664
0.0320175
0.0288498
0.0253527
0.0216605
0.018443
0.0176523
0.0159784
0.014817
0.0133133
0.0125775
0.0130186
0.0129
0.0122935
0.0126889
0.0137779
0.0178951
0.0189951
0.0339507
0.0285932
0.0551458
0.054673
0.0620141
0.088385
0.0928192
0.116991
0.170118
0.166705
0.15858
0.152745
0.146493
0.136427
0.131997
0.125347
0.121733
0.119476
0.11616
0.115307
0.114496
0.112907
0.112173
0.109668
0.107844
0.105241
0.0996619
0.094095
0.0872391
0.0830968
0.081025
0.0804469
0.0814469
0.0862744
0.0919859
0.09621
0.0976556
0.0978427
0.0932001
0.0822016
0.0732189
0.0660723
0.0629773
0.0622242
0.0633699
0.0704335
0.0770819
0.0822797
0.0855655
0.0863012
0.0859333
0.0818589
0.0749095
0.0696137
0.0653443
0.0624173
0.0620767
0.0620695
0.0629457
0.064608
0.0649996
0.0651526
0.0650633
0.0639509
0.0610668
0.0573538
0.0536315
0.0497961
0.0466865
0.0434596
0.0403197
0.0378026
0.0349828
0.0323407
0.0296745
0.0267281
0.0241979
0.0216047
0.0190843
0.0171067
0.0150712
0.0135017
0.0120198
0.0107719
0.00974898
0.00871582
0.00788914
0.00712421
0.00639021
0.00573853
0.00513372
0.00453022
0.00398115
0.00348103
0.002986
0.00259133
0.00218894
0.00188948
0.00163493
0.00142012
0.00126065
0.00116364
0.00105996
0.00103736
0.00104798
0.00107343
0.00109632
0.00114265
0.00121551
0.00126823
0.00137238
0.00149041
0.00159866
0.00183185
0.0019646
0.00217828
0.0025525
0.00276286
0.00317841
0.00382049
0.00422365
0.0052615
0.00606239
0.00684527
0.0091939
0.0114068
0.0140801
0.0222213
0.0287833
0.039336
0.0700565
0.208432
0.310584
0.313736
0.274757
0.218697
0.174917
0.156011
0.142523
0.126422
0.115673
0.112875
0.111543
0.112525
0.119403
0.119535
0.132924
0.131858
0.136214
0.134817
0.134018
0.136383
0.13994
0.140681
0.154379
0.157894
0.165985
0.164579
0.162956
0.152993
0.152093
0.14434
0.147731
0.143576
0.132773
0.129967
0.117249
0.109669
0.0977947
0.0947977
0.0907143
0.0932527
0.0923521
0.0864536
0.0780401
0.0700994
0.0638599
0.0563842
0.0518707
0.0462385
0.0421164
0.03796
0.0363383
0.0332638
0.0321733
0.0273543
0.0228265
0.0193395
0.0180803
0.0163363
0.016042
0.015633
0.0149914
0.0135961
0.014347
0.0145179
0.0216925
0.0213189
0.0398252
0.0354074
0.0542739
0.0463336
0.0482942
0.0535451
0.0550442
0.0740205
0.0784192
0.0919821
0.0258923
0.0259571
0.0257233
0.0254126
0.0248901
0.0239384
0.0230141
0.0217809
0.0212349
0.0210581
0.0210369
0.0213912
0.0222377
0.022821
0.0230707
0.0229967
0.0227011
0.0216481
0.0201472
0.0188769
0.017389
0.0166136
0.0160486
0.0157961
0.0158967
0.0176538
0.0223579
0.0262499
0.0284954
0.0292841
0.0286835
0.024815
0.0204105
0.0163112
0.0134243
0.0115382
0.0108639
0.0112172
0.015143
0.0208409
0.0254675
0.028099
0.0289187
0.0286727
0.0256586
0.0220264
0.0186838
0.0158454
0.0141189
0.0131682
0.013004
0.0137479
0.0151747
0.0164715
0.0172542
0.0174823
0.0174454
0.0165574
0.0148223
0.0131028
0.0116955
0.0104938
0.00945146
0.00873457
0.00807518
0.00755292
0.00704841
0.00639254
0.00576947
0.00511585
0.00444147
0.00390407
0.0033821
0.00298474
0.00261963
0.00233985
0.00210988
0.00189538
0.00171787
0.00156889
0.00140859
0.00126357
0.00114702
0.00101046
0.000920462
0.00083733
0.000760693
0.000729682
0.000697975
0.000698406
0.000709901
0.000731536
0.000751068
0.000807529
0.000880704
0.0009479
0.00115258
0.00130576
0.00149094
0.00191411
0.00217425
0.00250801
0.00303044
0.00331984
0.00390346
0.00446435
0.00478843
0.00556498
0.00623258
0.00669016
0.00791144
0.00854765
0.00959828
0.0113623
0.0122142
0.014058
0.0178579
0.0200756
0.0255991
0.0347111
0.042579
0.0602753
0.137301
0.301796
0.333121
0.307937
0.244438
0.196699
0.165074
0.150583
0.139004
0.125335
0.11555
0.113024
0.11244
0.114333
0.115512
0.119986
0.135679
0.132888
0.148888
0.136763
0.14752
0.138838
0.162614
0.157621
0.192066
0.181657
0.183911
0.1666
0.171536
0.162355
0.155409
0.152482
0.152405
0.153222
0.144004
0.143383
0.135667
0.13412
0.126914
0.122943
0.115757
0.109718
0.0980483
0.0910801
0.0834528
0.0761155
0.0715496
0.0690273
0.0663584
0.0580899
0.0542528
0.0460433
0.0441491
0.0397563
0.0355467
0.0307373
0.0257569
0.0223849
0.019386
0.0181753
0.016884
0.0166282
0.0172613
0.0187068
0.0267928
0.0255574
0.0386506
0.0339796
0.0375152
0.037756
0.0388676
0.0442086
0.0447435
0.0499068
0.0503945
0.0606442
0.0660846
0.0739746
0.00189961
0.00205307
0.00214824
0.00217818
0.00217366
0.00214327
0.00204639
0.0019654
0.00194885
0.00195081
0.00196941
0.00207135
0.00219838
0.00229253
0.00230426
0.00224306
0.00212619
0.00202609
0.00197774
0.0019672
0.00195241
0.00190375
0.00179851
0.00173296
0.00174277
0.00201565
0.00301854
0.00374178
0.00410508
0.00421753
0.00400073
0.00333194
0.00273038
0.00213155
0.00165539
0.001292
0.0011409
0.00137942
0.00290249
0.00482628
0.00622681
0.00690586
0.00700245
0.00640536
0.00511007
0.0040451
0.00323122
0.00267313
0.0023647
0.00226425
0.0023211
0.00272204
0.00311744
0.00339666
0.00353029
0.00355039
0.00344742
0.00300823
0.00256694
0.00215622
0.00184166
0.00162384
0.00147776
0.00137557
0.00128519
0.00122744
0.0011771
0.00107272
0.000966947
0.000845101
0.000734937
0.000639821
0.000566464
0.000509975
0.000470485
0.000439771
0.000427396
0.000411132
0.000399697
0.000397709
0.000388933
0.000389821
0.000392687
0.000399788
0.000418657
0.000451829
0.000479288
0.000555738
0.000633544
0.000696491
0.000892946
0.00107175
0.00122177
0.00165159
0.00199314
0.00243923
0.00326538
0.00374869
0.00469359
0.00576865
0.00636667
0.00768382
0.00847078
0.00930001
0.0107675
0.0114668
0.0124207
0.0139926
0.0146956
0.0161181
0.0174791
0.0182497
0.0204037
0.0220952
0.0235506
0.0281153
0.0308866
0.0337195
0.0425971
0.0500938
0.0623392
0.0947756
0.245319
0.346399
0.343086
0.28598
0.231065
0.188227
0.159337
0.143504
0.136263
0.125446
0.117388
0.114847
0.115953
0.114826
0.114839
0.121
0.126602
0.131139
0.148574
0.136669
0.166091
0.141628
0.190063
0.160853
0.198522
0.187141
0.207509
0.182957
0.172076
0.174742
0.165382
0.172506
0.163982
0.170818
0.165212
0.166725
0.153686
0.148857
0.144193
0.130032
0.12608
0.115301
0.105101
0.0969715
0.0968743
0.10132
0.109994
0.115043
0.111999
0.101041
0.0825816
0.064358
0.0573712
0.0531943
0.0438514
0.0359926
0.0317227
0.0274614
0.0223598
0.0194494
0.0201057
0.0212029
0.0267866
0.026775
0.0350444
0.031536
0.0392832
0.0367651
0.0364159
0.0365231
0.0372582
0.0402504
0.0415718
0.0478309
0.0493655
0.053483
0.0589076
0.0633623
0.000164472
0.000165367
0.000171437
0.000175478
0.00017523
0.000172968
0.000167453
0.00016551
0.000165723
0.000168521
0.000176725
0.00018564
0.000189889
0.000195429
0.000204695
0.000215551
0.000224467
0.000225743
0.000217439
0.000206278
0.000202995
0.000205635
0.000208418
0.000209625
0.000204611
0.000198128
0.000199034
0.000221902
0.000257458
0.000295208
0.000303058
0.000303481
0.000296229
0.000251286
0.000197526
0.000155418
0.000144637
0.000249451
0.000530342
0.000759135
0.000847803
0.000832581
0.00071239
0.000613555
0.00057226
0.000568745
0.000566744
0.000527864
0.00047722
0.000445132
0.000439864
0.000455577
0.000473406
0.00047972
0.000469938
0.00043725
0.00040181
0.000372461
0.000358265
0.000336838
0.000318476
0.000297479
0.000272273
0.000251838
0.000236718
0.000222366
0.000212188
0.00020689
0.000202171
0.000201837
0.000202851
0.000205592
0.000213408
0.000220612
0.000237791
0.000248785
0.000272183
0.000289348
0.000304747
0.000342123
0.00036641
0.000412972
0.000471709
0.000548518
0.000711002
0.000929875
0.00109604
0.0015144
0.001954
0.00225408
0.00310073
0.00380111
0.00452038
0.00591697
0.00682529
0.00875843
0.0104883
0.0118744
0.014852
0.0164927
0.0184026
0.020961
0.022066
0.0243649
0.026336
0.0273655
0.0300147
0.0311501
0.0324069
0.034585
0.0355012
0.0372589
0.0404398
0.0421759
0.0461676
0.0510914
0.053222
0.0569524
0.0667166
0.0760491
0.0958868
0.175807
0.334024
0.368419
0.333269
0.268485
0.226521
0.187085
0.157734
0.14201
0.134545
0.128694
0.120752
0.119506
0.121201
0.120993
0.120128
0.121244
0.122955
0.129861
0.135238
0.142353
0.15284
0.152197
0.185431
0.182167
0.1886
0.222451
0.207546
0.296995
0.186038
0.25731
0.190581
0.209063
0.185562
0.191262
0.181696
0.177244
0.17369
0.161365
0.160627
0.144611
0.141601
0.12875
0.146818
0.145373
0.166166
0.192898
0.26239
0.339597
0.33124
0.281542
0.182247
0.111775
0.0777484
0.071458
0.0569543
0.0447876
0.0379841
0.0355331
0.0305858
0.0244033
0.0245701
0.023832
0.0265532
0.0261516
0.0283085
0.0296603
0.0326589
0.0345189
0.0361883
0.0361355
0.0369326
0.039663
0.0410795
0.0473342
0.0486086
0.0507443
0.0552214
0.0571804
8.60311e-05
8.70295e-05
9.3368e-05
9.40857e-05
9.27411e-05
9.10593e-05
9.0858e-05
9.15327e-05
9.46534e-05
9.53321e-05
9.53839e-05
9.589e-05
9.60876e-05
9.63385e-05
9.55516e-05
9.38759e-05
9.32511e-05
9.52217e-05
0.000100229
0.000102767
0.000102891
0.000101661
0.000102355
0.000108549
0.000115648
0.000117256
0.000116611
0.00011522
0.000114811
0.000114958
0.000112509
0.000107768
0.000104403
0.00010215
0.000101572
0.000105111
0.000119194
0.000129215
0.000131867
0.000131531
0.00013312
0.000152434
0.000174981
0.000185044
0.000183823
0.000177931
0.000176695
0.000190487
0.000208517
0.000218393
0.000217465
0.000202934
0.000190347
0.000186802
0.000193092
0.000210189
0.00022428
0.000225965
0.000217724
0.000204463
0.000192649
0.000184241
0.000176699
0.00017295
0.000172706
0.000174633
0.000181055
0.000202007
0.000221953
0.000260539
0.000310079
0.000345831
0.000431037
0.000479435
0.000579146
0.000638805
0.000767806
0.000858806
0.000959102
0.00116742
0.00129748
0.00157044
0.00181222
0.00239974
0.00282833
0.00374632
0.0044522
0.00582132
0.00723984
0.00818774
0.010828
0.0126332
0.0154416
0.0183428
0.0215448
0.0266049
0.0296903
0.034598
0.0397821
0.0432565
0.0474973
0.0511465
0.0537196
0.058097
0.0597984
0.0628059
0.0653256
0.0663175
0.0686046
0.0699041
0.0714373
0.0760742
0.0794106
0.0822191
0.0879358
0.0894041
0.09065
0.0973918
0.10578
0.117259
0.147486
0.295995
0.383576
0.359603
0.290222
0.258173
0.234162
0.198813
0.16156
0.141926
0.133938
0.131512
0.125542
0.121986
0.124151
0.128687
0.131121
0.131232
0.131614
0.136106
0.141088
0.152368
0.164406
0.17145
0.186235
0.201782
0.214359
0.262386
0.272652
0.371687
0.196457
0.264103
0.208997
0.265765
0.237409
0.239734
0.232016
0.211002
0.221965
0.202521
0.2045
0.187631
0.195095
0.180042
0.182112
0.171966
0.346003
0.432412
0.679632
0.704561
0.686831
0.621641
0.439464
0.240182
0.128316
0.0905625
0.0668657
0.0519362
0.0406293
0.04151
0.0386981
0.0343382
0.0341209
0.0285905
0.03063
0.0274305
0.0273499
0.0274906
0.0275372
0.0292918
0.030216
0.0339739
0.0349416
0.0385979
0.0391181
0.0444494
0.0445846
0.0451112
0.0480143
0.0530934
8.53763e-05
8.64294e-05
9.11809e-05
9.03891e-05
8.96521e-05
8.90237e-05
8.90439e-05
8.96871e-05
9.11528e-05
9.55675e-05
9.84818e-05
0.000102326
0.000107116
0.000107913
0.000110062
0.000110209
0.000108705
0.00010721
0.000105748
0.000110116
0.000117941
0.000123843
0.000124283
0.000121915
0.000121495
0.000126111
0.000135263
0.000142241
0.00014289
0.000138668
0.000129183
0.000121069
0.000117516
0.000116953
0.000121774
0.00013637
0.000146361
0.000152328
0.000153384
0.000149122
0.00013656
0.000125834
0.000122084
0.000126738
0.000150183
0.000169484
0.00018122
0.000182663
0.000181232
0.000181211
0.000188946
0.000220886
0.000247693
0.000266007
0.000281497
0.000295078
0.000324345
0.0003629
0.000385402
0.00039881
0.000408861
0.000413494
0.000420417
0.000433341
0.000450922
0.000509264
0.000596999
0.000794821
0.000911921
0.00114466
0.00141181
0.00156794
0.00194465
0.00216305
0.00258646
0.00282619
0.00333285
0.0036816
0.00410921
0.00488256
0.00535349
0.00642036
0.00736687
0.0092616
0.0105734
0.0132782
0.0158438
0.0184861
0.0233961
0.0262168
0.0325774
0.037417
0.0449755
0.0522562
0.0602925
0.0709498
0.0783659
0.0894834
0.0966673
0.106807
0.110884
0.118363
0.123725
0.127493
0.131
0.134023
0.134977
0.136678
0.139542
0.140503
0.145743
0.149941
0.150879
0.154376
0.154788
0.152904
0.15275
0.15963
0.164002
0.172708
0.225743
0.360674
0.376428
0.319
0.275396
0.267622
0.262602
0.233932
0.185597
0.150835
0.137522
0.133097
0.130256
0.127463
0.127839
0.132403
0.13873
0.147548
0.155988
0.160128
0.171728
0.186905
0.191898
0.203214
0.203191
0.219616
0.22821
0.268696
0.285847
0.330371
0.267968
0.265869
0.313336
0.283521
0.305098
0.276617
0.275407
0.271968
0.269759
0.241988
0.239645
0.218013
0.202952
0.188778
0.205819
0.235008
0.399385
0.80378
0.804305
0.587594
0.51081
0.512039
0.482725
0.366568
0.218523
0.13004
0.0886746
0.0648986
0.0478356
0.0452743
0.0432607
0.0378303
0.0452843
0.0378011
0.0371289
0.0320001
0.032838
0.0286904
0.0281475
0.0285491
0.0291237
0.0337148
0.0339357
0.0361952
0.0352772
0.0389919
0.0402595
0.0403347
0.0408889
0.0443948
0.000254495
0.00026239
0.00026464
0.000258742
0.000251117
0.000241402
0.000240045
0.000242878
0.000255103
0.000300707
0.000341531
0.00038656
0.000414702
0.000415518
0.000414229
0.000391719
0.000374316
0.000359726
0.000345954
0.000346967
0.000371744
0.000481553
0.000595786
0.000649563
0.000681375
0.000678872
0.000636787
0.000592525
0.000532928
0.000503409
0.000475282
0.000461393
0.000462578
0.000500324
0.000585668
0.000684463
0.000745868
0.000793268
0.000814876
0.000815993
0.000812588
0.000791981
0.00073332
0.00069167
0.000638127
0.000603
0.000590814
0.000585474
0.000586873
0.000608722
0.000699113
0.000924027
0.00120314
0.00146028
0.00176481
0.00200782
0.00214276
0.00219278
0.0021794
0.00214587
0.0021482
0.00216051
0.0021997
0.002301
0.0024398
0.00288138
0.00335265
0.00418977
0.00470578
0.00557873
0.00650479
0.00704178
0.00826347
0.00895374
0.0101751
0.0110451
0.0124928
0.0137466
0.015014
0.0175496
0.0191277
0.0223434
0.0256269
0.0296592
0.0349251
0.040494
0.0480408
0.0542306
0.0664729
0.0741745
0.0888788
0.102299
0.116821
0.137868
0.149742
0.175029
0.187304
0.206401
0.220111
0.232136
0.239898
0.248536
0.252927
0.255882
0.2592
0.259849
0.260997
0.260545
0.260828
0.260517
0.262125
0.263223
0.262729
0.261353
0.255144
0.249136
0.246002
0.236559
0.220567
0.224303
0.306981
0.374374
0.356728
0.286052
0.269132
0.293645
0.317784
0.303597
0.243983
0.182684
0.151452
0.141599
0.138964
0.134969
0.133464
0.136239
0.14252
0.152907
0.16508
0.175408
0.188657
0.206909
0.225844
0.251914
0.260115
0.281754
0.289909
0.30096
0.300306
0.283507
0.30974
0.28851
0.337259
0.260112
0.315504
0.257656
0.277631
0.26355
0.258676
0.252105
0.241393
0.233634
0.207886
0.220204
0.206326
0.286091
0.66199
0.98483
0.725824
0.392621
0.314819
0.35336
0.403053
0.370116
0.260858
0.183949
0.110541
0.0899135
0.0640972
0.0572782
0.0546402
0.0445538
0.0478852
0.0420188
0.0402298
0.0352977
0.0356021
0.0302775
0.030236
0.0308715
0.0301502
0.0329312
0.0330067
0.0337842
0.0318942
0.03235
0.0370967
0.0386133
0.0380403
0.0379322
0.00335291
0.00336645
0.00333084
0.0032557
0.00309619
0.00293496
0.00283993
0.00283971
0.00294281
0.00324725
0.00386366
0.00433694
0.00457471
0.00463321
0.00457308
0.00436064
0.00415032
0.00396396
0.00388718
0.00391004
0.00434607
0.00517202
0.00571964
0.00602294
0.00612085
0.00602726
0.0057037
0.00534748
0.00505956
0.00496594
0.00488606
0.00486507
0.00494016
0.00512243
0.00542331
0.00573755
0.00598632
0.00629812
0.00653345
0.00665336
0.00670499
0.00666336
0.00634646
0.00598218
0.00563551
0.00535042
0.00520451
0.00516284
0.00516889
0.00554986
0.0062708
0.00703707
0.00798398
0.00878221
0.00953352
0.010132
0.0104284
0.0105875
0.0107255
0.0108319
0.0109686
0.0112593
0.0115902
0.0123711
0.0131334
0.0150119
0.016184
0.0183883
0.0199697
0.0218343
0.0242816
0.0257438
0.0288487
0.0308089
0.0334528
0.037075
0.0392459
0.0444502
0.047689
0.0538492
0.0592619
0.0662085
0.0774803
0.0841837
0.0991611
0.109277
0.130113
0.144137
0.166635
0.19288
0.213933
0.250057
0.272665
0.314342
0.335728
0.370957
0.389112
0.40419
0.424939
0.427922
0.435786
0.435735
0.434314
0.432742
0.428277
0.42388
0.421171
0.415627
0.410824
0.408499
0.402249
0.393923
0.388807
0.378297
0.358256
0.337201
0.299124
0.26868
0.267323
0.313742
0.358609
0.360494
0.297179
0.2595
0.279313
0.340477
0.39118
0.401078
0.351794
0.256346
0.187988
0.158855
0.148751
0.1454
0.144362
0.144338
0.148986
0.158342
0.173501
0.18994
0.210146
0.235896
0.26286
0.274142
0.279586
0.284313
0.270519
0.252431
0.211566
0.201069
0.235086
0.21762
0.234675
0.183646
0.217108
0.193216
0.23022
0.211413
0.211693
0.240511
0.237643
0.208541
0.197518
0.210102
0.167243
0.29583