/*--------------------------------*- C++ -*----------------------------------*\
| =========                 |                                                 |
| \\      /  F ield         | OpenFOAM: The Open Source CFD Toolbox           |
|  \\    /   O peration     | Version:  2.4.0                                 |
|   \\  /    A nd           | Web:      www.OpenFOAM.org                      |
|    \\/     M anipulation  |                                                 |
\*---------------------------------------------------------------------------*/
FoamFile
{
    version     2.0;
    format      ascii;
    class       volScalarField;
    location    "0.84";
    object      k_0;
}
// * * * * * * * * * * * * * * * * * * * * * * * * * * * * * * * * * * * * * //

dimensions      [0 2 -2 0 0 0 0];

internalField   nonuniform List<scalar> 
8800
(
8.12131
10.2631
8.7959
6.81815
5.70985
4.96942
4.53051
4.13759
3.92251
3.66064
3.54789
3.36514
3.29845
3.15703
3.09941
2.98353
2.91601
2.80767
2.73459
2.56446
1.40494
4.35005
5.32025
5.28786
5.13125
4.8062
4.57801
4.28201
4.12591
3.87769
3.77533
3.58835
3.5192
3.3754
3.32638
3.21627
3.17239
3.07729
3.01168
2.96211
0.0844324
0.731075
1.56179
1.94419
2.2782
2.43145
2.57964
2.59945
2.62305
2.60118
2.5892
2.54148
2.52424
2.47281
2.45918
2.4127
2.40504
2.3661
2.35042
2.30894
0.00335534
0.0698957
0.25558
0.421303
0.589495
0.695732
0.83879
0.930967
1.02222
1.0919
1.1669
1.20665
1.26536
1.29529
1.34105
1.36323
1.40574
1.42422
1.46235
1.46661
0.000123223
0.00495843
0.0215803
0.0536222
0.0913841
0.122121
0.159456
0.21141
0.236614
0.28839
0.315449
0.361099
0.384373
0.432106
0.453475
0.499254
0.523279
0.576621
0.599346
0.654976
2.50523e-05
0.00031037
0.0014254
0.0044979
0.00763342
0.0128904
0.0172331
0.027188
0.0322902
0.0444779
0.0508804
0.06453
0.0712927
0.0868783
0.0939268
0.109903
0.118569
0.139884
0.148813
0.173361
2.17868e-05
4.34583e-05
0.000116543
0.000345255
0.000529217
0.000909739
0.00124675
0.0020821
0.00254104
0.00382378
0.00460546
0.00634858
0.00734375
0.00985374
0.0110414
0.013602
0.0152417
0.0193588
0.0212454
0.0255632
2.1093e-05
3.02856e-05
4.38693e-05
7.83019e-05
9.32046e-05
0.000116664
0.000134842
0.000182404
0.000205802
0.000282798
0.000325805
0.000420147
0.000486501
0.000689376
0.000797237
0.000917087
0.00111125
0.00152524
0.00164066
0.00176585
2.07147e-05
3.10196e-05
4.30739e-05
5.23566e-05
6.56314e-05
7.36251e-05
7.47903e-05
7.61466e-05
7.79569e-05
8.64066e-05
9.08593e-05
9.3567e-05
9.57983e-05
0.00010422
0.000109444
0.000114652
0.000121613
0.000151692
0.000156696
0.000162094
2.06337e-05
2.69715e-05
4.12502e-05
5.3641e-05
6.02733e-05
6.56218e-05
6.69854e-05
6.70102e-05
6.70688e-05
6.96098e-05
7.43476e-05
7.5154e-05
7.51237e-05
7.59054e-05
7.60337e-05
7.62562e-05
7.61784e-05
7.70697e-05
7.96371e-05
8.58969e-05
2.05791e-05
2.71239e-05
4.75632e-05
5.60235e-05
5.58153e-05
5.8212e-05
6.45966e-05
7.05064e-05
7.45104e-05
7.55635e-05
7.45185e-05
7.31887e-05
7.26728e-05
7.43703e-05
7.70147e-05
7.72091e-05
7.75726e-05
8.03792e-05
8.14488e-05
8.48845e-05
2.07449e-05
3.06634e-05
4.42268e-05
5.07682e-05
6.27642e-05
7.46257e-05
7.89737e-05
8.18283e-05
8.26861e-05
8.32586e-05
8.43412e-05
9.16627e-05
9.72268e-05
0.000106349
0.000110101
0.000118797
0.000129974
0.000152488
0.000169341
0.000230494
2.10312e-05
2.95583e-05
4.44826e-05
8.1428e-05
9.2659e-05
0.000113211
0.000127719
0.000168564
0.000207203
0.000299901
0.000341217
0.000458136
0.000517123
0.00064402
0.000742703
0.00103014
0.00123322
0.00167174
0.0019892
0.00288679
2.15699e-05
4.3282e-05
0.000130829
0.000347792
0.000469889
0.000838333
0.0011842
0.00204131
0.0026797
0.00408524
0.00474632
0.00651784
0.00744125
0.00952871
0.0108666
0.014298
0.0163606
0.0211605
0.0239953
0.0316979
2.49716e-05
0.000308354
0.00172008
0.00456279
0.00666941
0.0127373
0.0172394
0.0270856
0.0332035
0.0456544
0.0513112
0.0651008
0.0716794
0.0862767
0.094139
0.113259
0.123125
0.146713
0.15925
0.194124
0.000122731
0.00493288
0.0266618
0.0534012
0.0780458
0.130252
0.159954
0.206779
0.243717
0.291097
0.313023
0.363033
0.385483
0.433034
0.455729
0.509371
0.533782
0.593367
0.621349
0.695303
0.00335674
0.0695727
0.265165
0.413008
0.580201
0.710685
0.831716
0.926476
1.03157
1.09761
1.15189
1.22142
1.25679
1.30847
1.33411
1.3875
1.4077
1.4584
1.4793
1.52776
0.0844811
0.727822
1.5715
1.93206
2.28417
2.43312
2.57954
2.59516
2.62909
2.59908
2.58778
2.54212
2.52694
2.47521
2.46218
2.42171
2.41109
2.38142
2.36983
2.33872
1.40503
4.35168
5.32131
5.28563
5.13407
4.79469
4.59344
4.27464
4.12841
3.87113
3.78063
3.57498
3.5199
3.36632
3.32773
3.19688
3.16653
3.04505
3.00483
2.90079
8.1196
10.2672
8.79436
6.81612
5.71775
4.95474
4.54312
4.12921
3.9254
3.64842
3.55625
3.34456
3.29833
3.12855
3.09791
2.93079
2.89495
2.71489
2.65174
2.43657
1.76755
1.27241
1.01016
0.868669
0.791005
0.739231
0.703678
0.672261
0.649585
0.626519
0.605969
0.58771
0.571042
0.560298
0.548973
0.542993
0.534188
0.53059
0.523126
0.51989
0.512709
0.507562
0.49682
0.483527
0.462437
0.440869
0.425003
0.411285
0.405713
0.400633
0.399363
0.39851
0.396182
0.392431
0.387578
0.378393
0.367761
0.354882
0.339091
0.323884
0.307809
0.292909
0.279764
0.26913
0.260502
0.254365
0.251475
0.2505
0.249984
0.25065
0.251302
0.251985
0.253576
0.253961
0.253543
0.253067
0.253653
0.25452
0.256297
0.258929
0.263165
0.26992
0.276039
0.288093
0.296738
0.307313
0.317809
0.325459
0.332846
0.337439
0.344217
0.346189
0.349591
0.350499
0.352209
0.352148
0.352291
0.350557
0.349552
0.346603
0.344277
0.337978
0.335999
0.330327
0.328002
0.32325
0.320997
0.314866
0.311588
0.30381
0.298978
0.289057
0.27962
0.266456
0.252197
0.233404
0.215161
0.196519
0.176314
0.154175
0.134253
0.113268
0.0947177
0.0774574
0.0620167
0.0487344
0.0378705
0.0293065
0.0223738
0.0166235
0.0127868
0.0094696
0.0073918
0.00593324
0.00490718
0.00428369
0.00424387
0.00400083
0.00400039
0.00419209
0.00418821
0.00440869
0.0051337
0.00748495
0.015724
0.04609
0.146009
0.220608
0.23734
0.230789
0.215345
0.187196
0.152502
0.134359
0.11997
0.117019
0.115711
0.116378
0.117864
0.117688
0.117353
0.116111
0.114994
0.109919
0.104857
0.101215
0.101828
0.10177
0.106022
0.106728
0.107871
0.106434
0.101565
0.0900225
0.0701785
0.0539003
0.0449965
0.0424001
0.0400036
0.0407495
0.0409311
0.0420384
0.0425436
0.0440777
0.0439798
0.0440131
0.0445907
0.0453332
0.0452826
0.047143
0.0484124
0.0493046
0.0494152
0.0491526
0.0434634
0.0381711
0.0347055
0.0311418
0.0265306
0.023737
0.0197121
0.0173099
0.0144021
0.013793
0.0130506
0.0128796
0.013181
0.0145888
0.01921
0.0207092
0.0225625
0.0265797
0.0419488
0.0565102
0.0602254
0.0638678
0.0661019
0.0709115
0.134034
0.694993
2.4999
2.04005
1.70321
1.46296
1.29382
1.17201
1.08214
1.01165
0.951771
0.904632
0.861754
0.82558
0.789823
0.762675
0.736269
0.720537
0.702421
0.692818
0.67924
0.669771
0.658351
0.648316
0.636891
0.627288
0.61551
0.605146
0.594001
0.584613
0.575577
0.567137
0.560768
0.554453
0.550234
0.544173
0.539932
0.533716
0.528207
0.521426
0.51432
0.507
0.497986
0.489837
0.480384
0.471981
0.462958
0.45492
0.449728
0.442517
0.437232
0.434331
0.429846
0.425601
0.424123
0.419903
0.417608
0.413656
0.411536
0.406812
0.404673
0.40312
0.399274
0.396652
0.395327
0.390919
0.389157
0.385392
0.384447
0.381424
0.37969
0.37759
0.374129
0.372658
0.37131
0.36717
0.364691
0.363233
0.359409
0.356158
0.353834
0.349194
0.343252
0.339845
0.332291
0.325894
0.318695
0.307573
0.300402
0.284229
0.27459
0.258115
0.239788
0.223192
0.201297
0.176441
0.153983
0.128045
0.106938
0.0853936
0.0677797
0.0537767
0.0430076
0.0342811
0.0274486
0.0217734
0.0172816
0.0136803
0.0105698
0.00852173
0.00666639
0.005338
0.00452765
0.00372002
0.00339553
0.00314897
0.00295758
0.00307638
0.00315705
0.00316468
0.00351787
0.00372075
0.00400391
0.00489274
0.00717817
0.0133025
0.0350108
0.121705
0.228585
0.252032
0.246277
0.221922
0.191262
0.15714
0.13794
0.123503
0.114485
0.114581
0.114627
0.118079
0.119211
0.119211
0.119402
0.120261
0.120766
0.119097
0.110667
0.103765
0.103352
0.103403
0.105973
0.109732
0.110328
0.111583
0.109612
0.104774
0.0890315
0.0766535
0.0583693
0.0513205
0.0448324
0.043454
0.0435936
0.0436139
0.0445489
0.0456725
0.0458371
0.0457162
0.0473076
0.0474647
0.0478688
0.0495487
0.0498392
0.0496537
0.0488102
0.0442663
0.0382334
0.0327318
0.0298344
0.0267917
0.0226545
0.0198293
0.0171745
0.0154932
0.0141307
0.0126834
0.012718
0.0122147
0.0121915
0.0127544
0.0146568
0.0185222
0.0194146
0.0207023
0.025396
0.0439028
0.053333
0.057543
0.0703375
0.0716098
0.145299
0.376206
2.06436
1.81266
1.59702
1.42969
1.29381
1.18676
1.09814
1.02662
0.967905
0.916935
0.876293
0.841083
0.805826
0.775801
0.74188
0.716476
0.69038
0.672857
0.657612
0.649777
0.640108
0.632891
0.621862
0.609512
0.596516
0.583182
0.572217
0.562132
0.556642
0.550733
0.548432
0.545236
0.542188
0.537933
0.532684
0.526121
0.520764
0.51543
0.509469
0.507057
0.503162
0.499311
0.497406
0.492639
0.48904
0.48643
0.479575
0.476605
0.473159
0.466636
0.464355
0.459425
0.456213
0.451643
0.448537
0.444005
0.438461
0.434075
0.427872
0.420977
0.413861
0.407181
0.400797
0.389807
0.384082
0.375737
0.364423
0.358706
0.347403
0.335843
0.330102
0.318021
0.308523
0.301477
0.28896
0.283433
0.27445
0.26636
0.256925
0.251444
0.241202
0.233946
0.222196
0.211935
0.199237
0.187392
0.171395
0.156953
0.139894
0.122903
0.104535
0.0875502
0.0714112
0.0575808
0.0464192
0.0366765
0.0290785
0.022929
0.017972
0.0142904
0.0112816
0.00905534
0.00734167
0.00588564
0.00492258
0.00407658
0.0033881
0.00307985
0.00259668
0.00247697
0.0022857
0.00219253
0.00221814
0.00222909
0.00229277
0.00256428
0.00264535
0.0028775
0.00340058
0.00381369
0.00504917
0.00786794
0.0134648
0.0281416
0.0818646
0.223011
0.266339
0.26294
0.237202
0.196736
0.173455
0.144588
0.130523
0.115081
0.112775
0.113364
0.114408
0.119726
0.119886
0.121901
0.122136
0.125185
0.125135
0.125435
0.121073
0.111639
0.108655
0.109343
0.109435
0.116558
0.115133
0.116517
0.115761
0.114305
0.105981
0.0961575
0.0830815
0.070342
0.0613406
0.0528308
0.0516371
0.0486777
0.0493
0.0494624
0.0499607
0.0497576
0.0519734
0.0538317
0.0547078
0.0545025
0.0517395
0.0463956
0.0422265
0.0380008
0.0334017
0.0309933
0.02772
0.0248692
0.0212102
0.0182348
0.0163896
0.0150994
0.0140955
0.0128222
0.0119165
0.0117228
0.0115769
0.0123181
0.0128371
0.0138315
0.0159631
0.0172963
0.0191708
0.024869
0.0425664
0.0480439
0.0902591
0.0801101
0.121627
0.238392
1.36552
1.25037
1.12977
1.04288
0.964217
0.897958
0.850042
0.796766
0.756235
0.7147
0.676341
0.652828
0.625581
0.608201
0.588399
0.565597
0.54514
0.521532
0.503164
0.490086
0.481278
0.478153
0.476339
0.473098
0.466184
0.452506
0.437189
0.419932
0.405577
0.396247
0.391505
0.391206
0.393697
0.399332
0.40403
0.405756
0.404586
0.398432
0.388756
0.381444
0.373991
0.368619
0.365568
0.364337
0.363768
0.364179
0.364725
0.365077
0.364976
0.362567
0.359543
0.355375
0.350682
0.347513
0.341017
0.336802
0.332093
0.327055
0.320215
0.313949
0.306543
0.297946
0.287326
0.27966
0.264674
0.256726
0.243441
0.230351
0.21967
0.204569
0.193065
0.180895
0.167014
0.158235
0.145736
0.135055
0.126783
0.117053
0.108859
0.100374
0.0927185
0.0852176
0.07823
0.0713575
0.0640711
0.0574637
0.0508008
0.044134
0.038076
0.0324769
0.026951
0.0224189
0.0182515
0.0146987
0.0117945
0.00935487
0.00745294
0.00590378
0.00475854
0.00389022
0.00320391
0.00276298
0.00237629
0.00209189
0.00196449
0.00178599
0.0017477
0.00168559
0.00168396
0.00171925
0.00173569
0.00180235
0.00190688
0.00195454
0.00220511
0.00239997
0.00262601
0.00350026
0.00430356
0.00588904
0.0100789
0.0153916
0.025908
0.0580449
0.184705
0.273116
0.280527
0.261005
0.20912
0.184547
0.15559
0.13307
0.119714
0.111838
0.112674
0.1127
0.115458
0.119954
0.120568
0.126049
0.125611
0.129189
0.12802
0.129667
0.126594
0.124966
0.12154
0.124544
0.120069
0.124556
0.125247
0.124462
0.123987
0.123007
0.118669
0.105836
0.0988293
0.0823067
0.0745373
0.0633283
0.0608656
0.0590091
0.0596755
0.0596901
0.0598588
0.0603851
0.0618794
0.0620978
0.0590271
0.0544678
0.0478662
0.0429281
0.0377057
0.0359188
0.0324204
0.0308706
0.0274685
0.0249492
0.0209716
0.0180862
0.016157
0.0147852
0.0140252
0.0128156
0.012413
0.0117978
0.0116438
0.0117569
0.013428
0.0135067
0.0139279
0.0144439
0.0175134
0.0211956
0.0485562
0.0515113
0.0992528
0.0953715
0.100983
0.154643
0.627164
0.597559
0.543983
0.514064
0.482556
0.448453
0.433463
0.410719
0.396945
0.383472
0.36475
0.35561
0.34128
0.331172
0.325274
0.314029
0.306601
0.293444
0.278575
0.26495
0.254227
0.250683
0.250452
0.252245
0.257221
0.259445
0.260136
0.257736
0.24214
0.224758
0.208219
0.197868
0.193601
0.19284
0.196793
0.206947
0.216364
0.224054
0.22696
0.227109
0.222698
0.210317
0.201425
0.193188
0.186569
0.184482
0.183821
0.184375
0.187747
0.189464
0.190882
0.191509
0.190456
0.188097
0.182861
0.175583
0.17069
0.164696
0.15785
0.152801
0.146554
0.141181
0.132701
0.127148
0.117229
0.109331
0.0996475
0.0903964
0.0831498
0.0747247
0.0676529
0.0617563
0.055244
0.0506809
0.0456788
0.0415079
0.0380691
0.0344635
0.0315564
0.0286056
0.0261057
0.0236174
0.0212683
0.0190344
0.0168265
0.0147593
0.012837
0.0109832
0.0093239
0.00786375
0.00655597
0.00540933
0.00448188
0.003685
0.00301427
0.00251053
0.00211665
0.00181455
0.00165243
0.00148463
0.0014313
0.00137058
0.00136198
0.00137396
0.00138171
0.00139696
0.0014468
0.00147368
0.00155559
0.00163514
0.00171257
0.0019658
0.00212663
0.0024466
0.0030626
0.00338205
0.00432912
0.00619128
0.00776933
0.0121969
0.0194001
0.0267825
0.0450615
0.125493
0.268236
0.301508
0.288347
0.230691
0.195258
0.16393
0.145494
0.127788
0.116191
0.111466
0.112304
0.1121
0.118287
0.118767
0.123007
0.129017
0.128687
0.132887
0.131216
0.132424
0.130511
0.133314
0.139725
0.145372
0.144424
0.139852
0.14193
0.13725
0.135425
0.133064
0.134751
0.125246
0.121932
0.109764
0.0977725
0.0890595
0.0840946
0.0783033
0.0723994
0.0734131
0.0734942
0.0734502
0.0709227
0.066468
0.0597448
0.0531945
0.0473378
0.0426736
0.0377493
0.0361487
0.0332311
0.0315419
0.0282483
0.0246257
0.0210306
0.0180877
0.0174506
0.0158571
0.0146934
0.0132317
0.0125345
0.0129503
0.0128809
0.0123129
0.0127088
0.0137922
0.0177907
0.0188688
0.0335282
0.028465
0.0550883
0.0547233
0.0621466
0.088551
0.0928777
0.117187
0.170531
0.167143
0.158677
0.153034
0.145649
0.1358
0.131511
0.124979
0.121971
0.119624
0.116634
0.11595
0.115045
0.11343
0.112516
0.109698
0.107906
0.104522
0.0983856
0.0924038
0.0859398
0.0825886
0.0811433
0.0809598
0.0832642
0.0889857
0.0943347
0.0976685
0.0984705
0.0978015
0.0897096
0.0788542
0.0705884
0.0646988
0.0627074
0.0625551
0.0655656
0.0735859
0.0795897
0.0840908
0.0864577
0.0867046
0.0852884
0.0795802
0.0728748
0.0680601
0.0643177
0.0622722
0.0622871
0.0625706
0.0638955
0.0652765
0.0655038
0.0655694
0.0653637
0.0634205
0.0602658
0.056526
0.0528574
0.0492493
0.0463455
0.0431771
0.0402526
0.0378317
0.0349988
0.032382
0.029623
0.0266761
0.0241555
0.0215131
0.0190624
0.0171114
0.0150996
0.0135757
0.0121051
0.0108898
0.00986062
0.00882215
0.00800631
0.00722268
0.00647465
0.00581902
0.00519288
0.00457139
0.0040159
0.00349939
0.00300007
0.00259646
0.00219213
0.00189686
0.00163339
0.00141818
0.00126307
0.00115992
0.00105571
0.0010425
0.00105464
0.00107606
0.00109826
0.00114605
0.00121337
0.00126464
0.0013726
0.00148271
0.00159553
0.00181524
0.00194061
0.00217054
0.00251676
0.00272514
0.00317528
0.00377831
0.00418414
0.0052556
0.005989
0.00683053
0.00939895
0.0115317
0.0144674
0.0230634
0.0294799
0.0411461
0.0768993
0.228882
0.315189
0.313711
0.268256
0.214338
0.172573
0.154263
0.140542
0.124803
0.115038
0.112825
0.11194
0.112922
0.120086
0.120056
0.133416
0.132495
0.136142
0.13485
0.13417
0.136408
0.14043
0.141283
0.155778
0.158678
0.165842
0.16398
0.162274
0.15298
0.152259
0.14482
0.147943
0.143713
0.132572
0.129565
0.116385
0.109821
0.0983566
0.0958729
0.0927791
0.0949547
0.0922858
0.0849535
0.076691
0.0686056
0.0627732
0.0552874
0.0511157
0.0454651
0.0415406
0.0375925
0.036109
0.0330765
0.0318022
0.0265524
0.022303
0.0191429
0.0179351
0.0162341
0.0160277
0.0156933
0.0150588
0.0135569
0.0142377
0.014448
0.0213564
0.0211783
0.0400455
0.0353958
0.0544548
0.0462398
0.0481104
0.053409
0.0550491
0.0744403
0.0788858
0.0924792
0.0260407
0.0260793
0.0258012
0.0254544
0.0248131
0.0237789
0.0227402
0.0216124
0.0212394
0.021159
0.0211892
0.0217825
0.0225774
0.0230195
0.0231402
0.0229733
0.0225037
0.0211791
0.0197057
0.0184193
0.0170707
0.0164383
0.0159811
0.0158309
0.0162697
0.0193323
0.0240469
0.0273787
0.029019
0.0293389
0.0276407
0.0230421
0.0188039
0.015055
0.0125928
0.0111642
0.0108502
0.0122138
0.0174998
0.0229077
0.0268325
0.028709
0.0290418
0.0279951
0.0241552
0.0207002
0.0175365
0.0150565
0.013693
0.0130938
0.0131511
0.0144447
0.0158413
0.0169981
0.0175752
0.0176878
0.0174567
0.0160956
0.014348
0.0127174
0.011435
0.0103127
0.00937427
0.00874084
0.00811894
0.00762409
0.00708289
0.00639545
0.00575816
0.00508056
0.00441305
0.00388825
0.0033768
0.00299308
0.0026374
0.00236849
0.00213973
0.0019241
0.00174886
0.00159439
0.00142582
0.00128054
0.00115659
0.00101624
0.000927837
0.000838916
0.000765322
0.000731551
0.000697696
0.000699212
0.000712506
0.000730182
0.000749799
0.000813411
0.000877023
0.000954244
0.00116659
0.00129885
0.00151299
0.00192094
0.00215586
0.0025061
0.00300511
0.00328951
0.00389367
0.00438404
0.00470883
0.00554688
0.00612129
0.00659331
0.00785334
0.00844787
0.00959327
0.0112205
0.0121016
0.0143044
0.0179261
0.0202411
0.0266111
0.0353303
0.0437731
0.0638209
0.158392
0.311801
0.333066
0.301623
0.239688
0.193495
0.162711
0.149017
0.137184
0.123725
0.114901
0.11317
0.112649
0.114668
0.116129
0.12042
0.136577
0.133761
0.149222
0.136898
0.147061
0.138761
0.163701
0.158472
0.191922
0.181004
0.182542
0.165587
0.170576
0.161954
0.155258
0.153343
0.152923
0.153951
0.144791
0.144253
0.136487
0.135017
0.127954
0.123111
0.115804
0.108334
0.0964966
0.0896234
0.0823433
0.0753853
0.0716906
0.069353
0.0664736
0.0576713
0.053952
0.0464053
0.0444926
0.0400198
0.0350926
0.0301924
0.0254228
0.0221474
0.0191728
0.0181203
0.016934
0.0166322
0.0172007
0.0185903
0.0262667
0.025162
0.0380501
0.0337757
0.0376373
0.0378981
0.0390873
0.0442681
0.0445398
0.0493478
0.0499675
0.0606067
0.0666164
0.0747607
0.00194387
0.00209374
0.00216708
0.00218182
0.00217209
0.00211872
0.00201831
0.00195601
0.00195066
0.00196075
0.0019926
0.00212633
0.00223619
0.00229931
0.00229241
0.00219255
0.00208267
0.00200131
0.00196954
0.0019631
0.00193684
0.00186657
0.00176589
0.00172229
0.0017919
0.00232957
0.00332347
0.00390597
0.00414672
0.00416546
0.00374289
0.00307037
0.00248982
0.00192503
0.00149675
0.00120711
0.00114552
0.00181196
0.00366803
0.00544399
0.00656366
0.00697764
0.00689241
0.00587818
0.00463825
0.00367967
0.00297299
0.00251933
0.002301
0.00226248
0.0024454
0.00290709
0.00326378
0.00349254
0.00357762
0.00357102
0.0033334
0.00286219
0.00243
0.00204756
0.00177313
0.00158925
0.0014659
0.00137525
0.00129595
0.00124675
0.0011866
0.00107111
0.0009584
0.000833299
0.000724266
0.000632685
0.000563533
0.000510032
0.000473092
0.000444878
0.000432731
0.000414672
0.000403895
0.000399538
0.000388363
0.000389448
0.000392696
0.000400749
0.000423099
0.000452254
0.000482501
0.000563576
0.000626381
0.000701803
0.000905795
0.0010496
0.00121765
0.0016772
0.00198353
0.00247373
0.00326327
0.00373843
0.00474604
0.00571755
0.00631811
0.00764751
0.00834219
0.00925502
0.0106391
0.0112793
0.0123151
0.0137914
0.0144777
0.0159354
0.0171626
0.0179791
0.0203539
0.0218836
0.0235153
0.0283803
0.0308317
0.0340504
0.0436607
0.0510793
0.0647217
0.103455
0.268776
0.350327
0.340209
0.278121
0.22582
0.184044
0.156518
0.141787
0.134754
0.123825
0.116564
0.114709
0.115856
0.115023
0.115044
0.121246
0.128064
0.131823
0.149804
0.136648
0.166542
0.141621
0.190306
0.162032
0.19624
0.186351
0.204596
0.182301
0.171427
0.175431
0.166287
0.174297
0.165455
0.172349
0.166577
0.167105
0.15364
0.148996
0.144068
0.129598
0.125543
0.11376
0.104435
0.0975079
0.0982139
0.104614
0.113439
0.117099
0.113445
0.100967
0.0815552
0.0639683
0.0579047
0.0534264
0.043324
0.0356117
0.0316501
0.0270313
0.0220573
0.0193352
0.0200039
0.0209812
0.0261506
0.0261981
0.0344964
0.031107
0.0386188
0.036227
0.0360355
0.0364441
0.0372714
0.0403608
0.0415582
0.0476699
0.0491386
0.0531625
0.0592911
0.0641502
0.000163768
0.000164894
0.000171852
0.000174891
0.000174378
0.000170939
0.000166274
0.000165279
0.000166107
0.000171291
0.000180104
0.000187871
0.000191567
0.000198104
0.000208555
0.000218867
0.000224961
0.000223646
0.000211915
0.000203484
0.000202544
0.000206675
0.000208349
0.000207859
0.000200952
0.000196541
0.000202456
0.000235854
0.000270468
0.000299214
0.000302482
0.000300835
0.000283186
0.000227867
0.000178642
0.000147828
0.000156327
0.000352641
0.000626183
0.000804293
0.000846115
0.000785533
0.00066181
0.000587358
0.000564917
0.00056545
0.000555649
0.000502831
0.000459751
0.000439699
0.000441883
0.000465356
0.000478521
0.000480539
0.000458784
0.00042429
0.000390388
0.000365458
0.000352211
0.000330058
0.000311396
0.000289112
0.000264767
0.000246385
0.000232542
0.000219112
0.00020999
0.000204714
0.0002007
0.000200677
0.000201919
0.000204956
0.000213037
0.000220242
0.000237727
0.000248301
0.000270644
0.00028505
0.000302208
0.00033749
0.000360944
0.000409327
0.000467851
0.000551608
0.000731444
0.000925241
0.00110302
0.00155928
0.00192159
0.00225211
0.00316445
0.00375683
0.00454661
0.00590592
0.00681247
0.00885774
0.0103979
0.0119452
0.0148403
0.0162896
0.0183099
0.0206568
0.0217246
0.0241978
0.0258904
0.0270116
0.0296365
0.0305851
0.0319579
0.0339867
0.0349248
0.0370126
0.040113
0.0419133
0.0464672
0.0508946
0.0530176
0.0576282
0.0677714
0.077944
0.100197
0.198321
0.345386
0.368614
0.32488
0.262866
0.221332
0.182476
0.154721
0.140107
0.133207
0.126961
0.119687
0.119215
0.121266
0.120648
0.119681
0.121341
0.123237
0.130434
0.13605
0.142723
0.154092
0.151895
0.185498
0.183899
0.186611
0.222786
0.205291
0.302568
0.185743
0.258611
0.190938
0.210464
0.18788
0.193016
0.183464
0.178622
0.175514
0.163443
0.162574
0.14589
0.143116
0.131133
0.151284
0.149541
0.175264
0.204924
0.283071
0.349401
0.335955
0.276524
0.174879
0.107197
0.0772078
0.0704977
0.0552332
0.0439113
0.0376822
0.0352277
0.0301673
0.0241519
0.0242731
0.0236126
0.0261824
0.0257439
0.0280122
0.0293355
0.0323641
0.0339945
0.0359831
0.0360268
0.0369159
0.0397224
0.0409919
0.0472827
0.0483211
0.0502989
0.0550912
0.0572137
8.59441e-05
8.70758e-05
9.30847e-05
9.32457e-05
9.16403e-05
9.06878e-05
9.08423e-05
9.21475e-05
9.49585e-05
9.53712e-05
9.54292e-05
9.59998e-05
9.61368e-05
9.621e-05
9.47736e-05
9.34392e-05
9.32211e-05
9.70774e-05
0.00010136
0.000102759
0.000102123
0.000101365
0.00010404
0.000111415
0.000116757
0.000117066
0.000115808
0.000114748
0.000114645
0.000114311
0.000110489
0.00010613
0.000103274
0.000101655
0.000101899
0.000109633
0.000123419
0.000130594
0.000131323
0.000130679
0.000137686
0.00016207
0.000180031
0.000185046
0.000180635
0.000176041
0.000178848
0.000198457
0.000213181
0.000218734
0.000212741
0.000196029
0.000186926
0.000186629
0.000198939
0.000215057
0.000224484
0.000222753
0.000210023
0.000197299
0.000186926
0.000179017
0.0001723
0.00016973
0.000169824
0.00017294
0.000180787
0.000204121
0.000224227
0.00026482
0.000309306
0.000348815
0.000429795
0.000475171
0.00057139
0.000629953
0.000755157
0.000833825
0.000947285
0.00114229
0.00126898
0.00155603
0.00181852
0.00241755
0.002865
0.00377015
0.0045051
0.00592245
0.00713001
0.00818899
0.0109888
0.0126144
0.0154517
0.0183123
0.0217356
0.0265292
0.0295492
0.034657
0.0394828
0.0427177
0.0470321
0.0503464
0.0531269
0.057246
0.0588178
0.0619137
0.0640952
0.0650626
0.0674342
0.0687301
0.0705339
0.0757911
0.0787306
0.0820004
0.0874232
0.0887432
0.0903989
0.0988026
0.107174
0.120162
0.157242
0.319176
0.386142
0.351872
0.28491
0.254095
0.228653
0.192602
0.157399
0.139907
0.132634
0.130149
0.124452
0.121516
0.124243
0.128573
0.130791
0.130267
0.13061
0.135928
0.141013
0.15222
0.164977
0.171811
0.186496
0.201771
0.212003
0.260127
0.269673
0.370516
0.198862
0.263402
0.212985
0.268683
0.24372
0.245111
0.237607
0.217533
0.227381
0.207524
0.208877
0.191781
0.198113
0.182572
0.183436
0.174449
0.367202
0.473289
0.709219
0.720756
0.69627
0.618184
0.412819
0.221818
0.121697
0.0874461
0.0645268
0.0505991
0.040195
0.0410389
0.0381835
0.0341807
0.0339031
0.0285143
0.0306409
0.0272664
0.027042
0.0271524
0.0272271
0.0288547
0.0300592
0.0340341
0.034722
0.0384017
0.0388023
0.0439503
0.0438709
0.0444551
0.0482884
0.0533456
8.52014e-05
8.62104e-05
9.03189e-05
8.94663e-05
8.90319e-05
8.86731e-05
8.88005e-05
9.00191e-05
9.18091e-05
9.69006e-05
9.9511e-05
0.000103458
0.000107441
0.00010801
0.000109839
0.000109542
0.000107497
0.000106067
0.000105762
0.000113233
0.000120141
0.000123952
0.000123366
0.000121002
0.000121877
0.000129521
0.000137917
0.000142528
0.00014171
0.00013456
0.000125455
0.000118812
0.000116745
0.00011736
0.00012654
0.000140414
0.000148495
0.000152386
0.000152156
0.000143779
0.000131133
0.000123059
0.000121679
0.000134304
0.000158252
0.000174268
0.000181588
0.000181353
0.000179746
0.000181651
0.000197839
0.000229928
0.000252455
0.000266964
0.000280286
0.000296795
0.000328859
0.000363923
0.000380451
0.000390155
0.00039684
0.000400338
0.000406903
0.000419767
0.000440288
0.000517715
0.00061975
0.000808248
0.0009229
0.00117756
0.00140699
0.00157009
0.00194935
0.00215301
0.0025564
0.00279178
0.0032934
0.00360274
0.00408434
0.00480127
0.00525773
0.0064514
0.00742074
0.00927992
0.0105956
0.0134804
0.0158018
0.0187562
0.0233342
0.026088
0.0329251
0.0374557
0.0451463
0.0521008
0.0606109
0.0706264
0.0781178
0.0889342
0.0959606
0.105466
0.109337
0.116994
0.121869
0.125483
0.128875
0.131559
0.132515
0.134517
0.137239
0.138498
0.144786
0.148273
0.149326
0.153244
0.153649
0.15217
0.153033
0.16134
0.165643
0.175816
0.245943
0.370223
0.37522
0.310268
0.272108
0.264755
0.257472
0.226287
0.178846
0.147264
0.135833
0.132067
0.128995
0.126361
0.127414
0.132274
0.138318
0.146817
0.155079
0.159033
0.169887
0.186507
0.19172
0.203461
0.204074
0.219791
0.227205
0.266054
0.283602
0.33227
0.27776
0.267886
0.321942
0.287298
0.309267
0.280176
0.278847
0.27567
0.271846
0.243575
0.240294
0.218316
0.202997
0.189568
0.205532
0.240034
0.413516
0.837147
0.810762
0.570774
0.519779
0.519609
0.482168
0.347204
0.204989
0.124418
0.0855567
0.0635939
0.0472141
0.0450598
0.0430545
0.037907
0.0449436
0.0375153
0.0367917
0.0321838
0.0324955
0.0280105
0.0276137
0.0281545
0.0289635
0.033887
0.0337144
0.0357066
0.034845
0.0389439
0.0397998
0.0398744
0.040672
0.0447684
0.000253706
0.00025956
0.000260182
0.000253359
0.000246459
0.00023865
0.000238352
0.000243118
0.00026374
0.000313122
0.000351426
0.000391229
0.000410064
0.000408018
0.00040342
0.000376769
0.000364033
0.000351024
0.000341595
0.000347521
0.00040142
0.000521698
0.000619328
0.000658196
0.000676944
0.000663353
0.000610864
0.000567007
0.000513417
0.000488548
0.000465175
0.000456917
0.000466679
0.000528913
0.00061908
0.000710088
0.000761304
0.000798599
0.000811258
0.000808924
0.000800458
0.000765778
0.000706736
0.000664691
0.000614919
0.000588345
0.000580453
0.000577821
0.00058091
0.000627158
0.00075897
0.0010096
0.00128777
0.00154481
0.00183204
0.00202966
0.00211916
0.00213695
0.00209728
0.00206846
0.00207216
0.00208709
0.00213733
0.00224809
0.00241759
0.00296033
0.00345154
0.00425621
0.0047587
0.00567349
0.00648185
0.0070497
0.00825245
0.00889426
0.0100971
0.0109463
0.0124081
0.0135323
0.0149906
0.0174211
0.0189535
0.0225233
0.0255862
0.0298709
0.0350317
0.0407821
0.0479526
0.0547296
0.0666053
0.0740748
0.0896738
0.102049
0.11759
0.13723
0.14984
0.174451
0.185895
0.205293
0.217866
0.229375
0.236825
0.245304
0.249111
0.252163
0.255256
0.255763
0.257023
0.256788
0.257172
0.25742
0.259647
0.260538
0.260796
0.259545
0.253572
0.248933
0.246118
0.235096
0.221784
0.230529
0.326389
0.378135
0.349391
0.281165
0.268479
0.293642
0.314098
0.295524
0.233887
0.176035
0.148215
0.139856
0.137627
0.133821
0.132385
0.135545
0.141765
0.152011
0.164187
0.174397
0.187163
0.205081
0.22318
0.251962
0.261044
0.283429
0.291753
0.303004
0.303179
0.285465
0.313699
0.289961
0.34021
0.260272
0.316065
0.257495
0.277368
0.260899
0.256773
0.248956
0.239857
0.231175
0.205517
0.219553
0.203247
0.286216
0.690511
0.967352
0.691838
0.376927
0.317983
0.368467
0.40602
0.361369
0.248318
0.174286
0.105871
0.087401
0.0636908
0.0569681
0.0537537
0.0436953
0.0475327
0.0413651
0.0396567
0.035279
0.0351539
0.0295223
0.0296791
0.0305712
0.0300129
0.0330089
0.0327934
0.0331762
0.0313785
0.0326411
0.0373948
0.0381274
0.0373818
0.037365
0.00333158
0.00332932
0.00328114
0.00319518
0.00302547
0.00288001
0.00281344
0.00282373
0.00300447
0.00338934
0.00399848
0.00438694
0.00454812
0.00456835
0.00445054
0.00423654
0.00404461
0.0038976
0.00385508
0.00397143
0.00462839
0.0053925
0.00583532
0.00604828
0.00608761
0.00588253
0.00553831
0.00520424
0.00497745
0.00491263
0.00485446
0.00485007
0.00499478
0.00520873
0.00552936
0.00583116
0.00608324
0.00638176
0.00657434
0.00665702
0.00667758
0.00655088
0.00616271
0.00581008
0.00548139
0.00523955
0.00513506
0.00511701
0.00518474
0.00578729
0.00651092
0.00731245
0.00823551
0.00898063
0.00966896
0.0101457
0.0103444
0.0104542
0.0105579
0.0106494
0.0107882
0.0111047
0.0114535
0.0123684
0.0132156
0.0151862
0.0163246
0.0185259
0.0199649
0.0219432
0.0241843
0.0257286
0.0287852
0.0305589
0.0334199
0.036744
0.039052
0.0443668
0.0474743
0.0538383
0.0591237
0.0667178
0.0774098
0.08404
0.0997825
0.109984
0.130562
0.1441
0.167935
0.1929
0.215087
0.25
0.272878
0.313708
0.334582
0.369755
0.385702
0.402257
0.421141
0.423684
0.43177
0.431267
0.429942
0.428418
0.42367
0.419787
0.417295
0.411548
0.407529
0.405335
0.398998
0.391867
0.386929
0.376084
0.35681
0.334222
0.296043
0.27026
0.272959
0.327883
0.364122
0.358337
0.288001
0.258302
0.283176
0.343925
0.39081
0.394724
0.337934
0.243189
0.180827
0.155765
0.147407
0.143994
0.142855
0.143012
0.147413
0.156538
0.171464
0.188064
0.207905
0.23375
0.262557
0.276067
0.282167
0.287508
0.275529
0.258513
0.216364
0.200352
0.233527
0.216841
0.232623
0.181517
0.212029
0.189483
0.224672
0.205557
0.20583
0.237009
0.234649
0.206006