/*--------------------------------*- C++ -*----------------------------------*\
| =========                 |                                                 |
| \\      /  F ield         | OpenFOAM: The Open Source CFD Toolbox           |
|  \\    /   O peration     | Version:  2.4.0                                 |
|   \\  /    A nd           | Web:      www.OpenFOAM.org                      |
|    \\/     M anipulation  |                                                 |
\*---------------------------------------------------------------------------*/
FoamFile
{
    version     2.0;
    format      ascii;
    class       volVectorField;
    location    "0.84";
    object      U;
}
// * * * * * * * * * * * * * * * * * * * * * * * * * * * * * * * * * * * * * //

dimensions      [0 1 -1 0 0 0 0];

internalField   nonuniform List<vector> 
8800
(
(8.09219 0.387906 0)
(5.44884 0.242608 0)
(3.9115 0.0428525 0)
(3.15735 -0.0155531 0)
(2.80059 -0.0179843 0)
(2.59883 -0.01135 0)
(2.48522 -0.00570607 0)
(2.37817 -0.00171739 0)
(2.32062 -0.00216158 0)
(2.24914 -0.00051111 0)
(2.21827 -0.000311132 0)
(2.16366 -0.000244927 0)
(2.14662 -0.000504691 0)
(2.09986 0.000816703 0)
(2.07763 0.000425493 0)
(2.03403 0.0009566 0)
(2.00444 0.00071089 0)
(1.96022 0.000591612 0)
(1.92878 0.00876026 0)
(1.75302 -0.0617185 0)
(10.0866 0.838516 0)
(9.65482 0.868148 0)
(8.873 0.50633 0)
(8.08286 0.261595 0)
(7.49138 0.138675 0)
(7.00994 0.0812245 0)
(6.6981 0.0543044 0)
(6.39399 0.0423368 0)
(6.23321 0.0278392 0)
(6.0183 0.0249448 0)
(5.93105 0.0195736 0)
(5.77483 0.0172728 0)
(5.72463 0.013375 0)
(5.59552 0.0181316 0)
(5.55056 0.0146276 0)
(5.43981 0.0179239 0)
(5.38244 0.0183558 0)
(5.27344 0.0171386 0)
(5.21525 0.0307559 0)
(5.05724 -0.0426636 0)
(10.0669 0.631853 0)
(10.6537 0.864043 0)
(10.8698 0.600117 0)
(10.6918 0.373844 0)
(10.4539 0.256359 0)
(10.0904 0.194693 0)
(9.84001 0.154418 0)
(9.48778 0.125395 0)
(9.32587 0.0907552 0)
(9.02795 0.0786193 0)
(8.92897 0.059681 0)
(8.69864 0.0518141 0)
(8.64304 0.0406874 0)
(8.44493 0.0457835 0)
(8.40792 0.0377615 0)
(8.23415 0.0412497 0)
(8.19145 0.0434251 0)
(8.01475 0.0432872 0)
(7.96648 0.0568357 0)
(7.79171 -0.0475367 0)
(10.0081 0.45793 0)
(10.5603 0.706917 0)
(11.1677 0.543384 0)
(11.3795 0.353325 0)
(11.5537 0.262189 0)
(11.462 0.224297 0)
(11.4971 0.202791 0)
(11.2925 0.179471 0)
(11.3069 0.141721 0)
(11.0749 0.131428 0)
(11.0798 0.105623 0)
(10.8624 0.093518 0)
(10.876 0.077189 0)
(10.6575 0.0821471 0)
(10.6788 0.0668142 0)
(10.4674 0.0744659 0)
(10.4865 0.0662378 0)
(10.2541 0.089605 0)
(10.259 0.0682687 0)
(10.0156 0.0734173 0)
(10.0572 0.347228 0)
(10.3952 0.569589 0)
(11.0345 0.456492 0)
(11.3039 0.297072 0)
(11.6658 0.210663 0)
(11.6716 0.18648 0)
(11.8958 0.181018 0)
(11.8134 0.176122 0)
(11.9946 0.136361 0)
(11.8877 0.141511 0)
(12.0371 0.109905 0)
(11.9201 0.108036 0)
(12.0533 0.0855186 0)
(11.9146 0.105591 0)
(12.0214 0.0762151 0)
(11.8794 0.101651 0)
(11.969 0.0742024 0)
(11.7914 0.121788 0)
(11.8498 0.0770225 0)
(11.6409 0.132603 0)
(10.063 0.252767 0)
(10.3214 0.461864 0)
(10.8869 0.371675 0)
(11.1702 0.243887 0)
(11.5412 0.164515 0)
(11.5994 0.146319 0)
(11.8228 0.14633 0)
(11.8189 0.147 0)
(11.9936 0.111991 0)
(12.0029 0.122174 0)
(12.1443 0.0953916 0)
(12.1472 0.0894874 0)
(12.291 0.0758508 0)
(12.2913 0.0900564 0)
(12.3783 0.073615 0)
(12.3861 0.0830184 0)
(12.4802 0.0852521 0)
(12.4527 0.101918 0)
(12.4865 0.0867813 0)
(12.3994 0.0381398 0)
(10.0169 0.172849 0)
(10.3166 0.358955 0)
(10.7539 0.287782 0)
(11.0899 0.204526 0)
(11.3822 0.120685 0)
(11.5609 0.105737 0)
(11.6996 0.110282 0)
(11.7619 0.123544 0)
(11.888 0.0764818 0)
(11.9539 0.100479 0)
(12.0281 0.0702266 0)
(12.1115 0.0689326 0)
(12.2165 0.0505475 0)
(12.2784 0.0825428 0)
(12.3375 0.0568866 0)
(12.4115 0.0636172 0)
(12.4977 0.0594684 0)
(12.526 0.0823126 0)
(12.5387 0.0625801 0)
(12.5022 -0.000138458 0)
(10.0068 0.110602 0)
(10.2718 0.257712 0)
(10.6576 0.208654 0)
(11.0293 0.151341 0)
(11.3187 0.0820243 0)
(11.5166 0.0672549 0)
(11.5966 0.081814 0)
(11.7162 0.0851048 0)
(11.8012 0.0543962 0)
(11.8978 0.0800952 0)
(11.9696 0.0555587 0)
(12.0275 0.0393086 0)
(12.1284 0.0369935 0)
(12.1965 0.0531549 0)
(12.3083 0.0413167 0)
(12.3439 0.0343015 0)
(12.385 0.0497356 0)
(12.5015 0.0593312 0)
(12.4791 0.0344742 0)
(12.4747 -0.0317284 0)
(9.99505 0.060905 0)
(10.2334 0.157793 0)
(10.6378 0.125621 0)
(10.985 0.0887013 0)
(11.2724 0.0446517 0)
(11.4453 0.0418604 0)
(11.5924 0.05398 0)
(11.6627 0.0524066 0)
(11.7497 0.0229993 0)
(11.8401 0.0461601 0)
(11.9263 0.0416666 0)
(11.9863 0.0239407 0)
(12.1167 0.0134974 0)
(12.1734 0.0363283 0)
(12.2279 0.0227861 0)
(12.2824 0.0304946 0)
(12.3641 0.00727286 0)
(12.4269 0.0224017 0)
(12.4669 0.018796 0)
(12.4241 -0.0455966 0)
(9.99808 0.0197069 0)
(10.2372 0.0519649 0)
(10.5832 0.0419093 0)
(10.9775 0.0320064 0)
(11.2411 0.0184461 0)
(11.4338 0.0017289 0)
(11.5635 0.020099 0)
(11.6567 0.0232223 0)
(11.7312 0.000740785 0)
(11.8042 0.0252619 0)
(11.9004 0.0212826 0)
(12.0015 -0.0105007 0)
(12.0735 -0.00160655 0)
(12.1084 0.0191171 0)
(12.2324 0.0142474 0)
(12.2632 -0.0118166 0)
(12.3984 0.00151112 0)
(12.3502 -0.00264213 0)
(12.4099 -0.0168694 0)
(12.3683 -0.0330387 0)
(10.0041 -0.0262414 0)
(10.2169 -0.0378347 0)
(10.5933 -0.0411565 0)
(10.9852 -0.0368074 0)
(11.2415 -0.017421 0)
(11.4414 -0.0222074 0)
(11.5529 -0.0081403 0)
(11.6495 -0.0125829 0)
(11.7099 -0.0242378 0)
(11.8303 -0.008851 0)
(11.9038 -0.00580705 0)
(11.9838 -0.0209594 0)
(12.0755 -0.00921864 0)
(12.1146 -0.00479779 0)
(12.2316 -0.0150189 0)
(12.3092 -0.0249466 0)
(12.3194 -0.0278506 0)
(12.3857 -0.0141415 0)
(12.4254 -0.0350707 0)
(12.322 -0.0393647 0)
(9.99346 -0.0650323 0)
(10.2407 -0.142424 0)
(10.6316 -0.132513 0)
(10.9924 -0.0919667 0)
(11.2662 -0.0433759 0)
(11.4472 -0.0582747 0)
(11.5807 -0.0396693 0)
(11.6693 -0.039441 0)
(11.7541 -0.0559672 0)
(11.8424 -0.0337575 0)
(11.921 -0.0172844 0)
(12.0148 -0.0526466 0)
(12.0744 -0.029135 0)
(12.1692 -0.0231927 0)
(12.2406 -0.0368816 0)
(12.3036 -0.0419432 0)
(12.348 -0.0343747 0)
(12.4161 -0.0607978 0)
(12.4367 -0.0523464 0)
(12.3772 -0.0633157 0)
(10.0031 -0.117229 0)
(10.265 -0.244881 0)
(10.6714 -0.206282 0)
(11.031 -0.155166 0)
(11.3247 -0.0809893 0)
(11.5051 -0.0860874 0)
(11.6068 -0.0708155 0)
(11.7275 -0.0776832 0)
(11.7835 -0.0758217 0)
(11.8703 -0.0637115 0)
(11.9849 -0.045779 0)
(12.0493 -0.0617096 0)
(12.1205 -0.0432999 0)
(12.2152 -0.0487115 0)
(12.2815 -0.0460614 0)
(12.3264 -0.0660122 0)
(12.4205 -0.0669777 0)
(12.477 -0.0725096 0)
(12.4463 -0.0805312 0)
(12.461 -0.0609781 0)
(10.0289 -0.175571 0)
(10.28 -0.346195 0)
(10.7628 -0.297012 0)
(11.1164 -0.207751 0)
(11.3984 -0.116245 0)
(11.5504 -0.120494 0)
(11.6872 -0.103496 0)
(11.7589 -0.106515 0)
(11.874 -0.0967383 0)
(11.9537 -0.0950751 0)
(12.0436 -0.0623978 0)
(12.1181 -0.0870373 0)
(12.2049 -0.0634946 0)
(12.2632 -0.0694035 0)
(12.3454 -0.0630968 0)
(12.4151 -0.0868668 0)
(12.4668 -0.0828619 0)
(12.5172 -0.105199 0)
(12.5487 -0.100572 0)
(12.499 -0.0921958 0)
(10.0635 -0.252065 0)
(10.3084 -0.451019 0)
(10.9154 -0.383614 0)
(11.1788 -0.248898 0)
(11.5228 -0.155597 0)
(11.6062 -0.158064 0)
(11.8118 -0.135042 0)
(11.8155 -0.141164 0)
(12 -0.130364 0)
(12.0049 -0.117777 0)
(12.1431 -0.0854814 0)
(12.1482 -0.108082 0)
(12.2829 -0.0753297 0)
(12.2694 -0.0911472 0)
(12.3847 -0.0782154 0)
(12.3811 -0.109751 0)
(12.462 -0.095735 0)
(12.4326 -0.13102 0)
(12.4612 -0.120923 0)
(12.3836 -0.123874 0)
(10.0587 -0.346849 0)
(10.3926 -0.563511 0)
(11.0693 -0.469917 0)
(11.2816 -0.290151 0)
(11.667 -0.206012 0)
(11.6632 -0.199449 0)
(11.8937 -0.174108 0)
(11.8134 -0.166837 0)
(12.0026 -0.154846 0)
(11.8834 -0.134215 0)
(12.0454 -0.104811 0)
(11.9046 -0.118959 0)
(12.0519 -0.0931258 0)
(11.9012 -0.0996228 0)
(12.0183 -0.087633 0)
(11.861 -0.114751 0)
(11.9392 -0.0962429 0)
(11.7593 -0.136698 0)
(11.7778 -0.124504 0)
(11.5853 -0.155315 0)
(10.0116 -0.457172 0)
(10.5632 -0.704788 0)
(11.1793 -0.549505 0)
(11.3532 -0.349084 0)
(11.5778 -0.260527 0)
(11.4413 -0.232482 0)
(11.5092 -0.19621 0)
(11.2884 -0.175279 0)
(11.3125 -0.154892 0)
(11.0548 -0.127457 0)
(11.1054 -0.0995301 0)
(10.8245 -0.103209 0)
(10.8958 -0.0806367 0)
(10.621 -0.0823826 0)
(10.6925 -0.0710141 0)
(10.411 -0.0928614 0)
(10.4743 -0.0739719 0)
(10.1728 -0.116489 0)
(10.1936 -0.0970242 0)
(9.86044 -0.141902 0)
(10.0653 -0.632066 0)
(10.658 -0.862336 0)
(10.8711 -0.603105 0)
(10.6822 -0.372158 0)
(10.472 -0.25492 0)
(10.0694 -0.199415 0)
(9.85282 -0.152086 0)
(9.48373 -0.121339 0)
(9.32709 -0.0986335 0)
(9.01031 -0.0770257 0)
(8.95321 -0.055485 0)
(8.65937 -0.0574661 0)
(8.66733 -0.0451718 0)
(8.39598 -0.0448518 0)
(8.43118 -0.0410054 0)
(8.15456 -0.0538335 0)
(8.19656 -0.0477588 0)
(7.8928 -0.0701836 0)
(7.90014 -0.0695719 0)
(7.56047 -0.0728329 0)
(10.085 -0.838497 0)
(9.65778 -0.867507 0)
(8.8722 -0.507536 0)
(8.07904 -0.261257 0)
(7.50109 -0.137308 0)
(6.99668 -0.0839129 0)
(6.70601 -0.0535737 0)
(6.39102 -0.0393018 0)
(6.23364 -0.032122 0)
(6.00562 -0.0253843 0)
(5.94486 -0.0158862 0)
(5.7492 -0.0206547 0)
(5.73823 -0.0162056 0)
(5.55437 -0.0173754 0)
(5.56582 -0.0162383 0)
(5.3705 -0.0247952 0)
(5.38075 -0.0216057 0)
(5.15558 -0.0327529 0)
(5.14627 -0.0372949 0)
(4.86674 -0.0112648 0)
(8.09154 -0.388019 0)
(5.44995 -0.242423 0)
(3.91127 -0.043027 0)
(3.15576 0.0154119 0)
(2.80363 0.0185604 0)
(2.59525 0.0105219 0)
(2.48569 0.00575838 0)
(2.37767 0.00286731 0)
(2.32228 0.00093385 0)
(2.24172 0.000167866 0)
(2.22086 0.00177676 0)
(2.15688 -0.000781943 0)
(2.14622 -3.59786e-05 0)
(2.08055 -0.000671201 0)
(2.07806 -0.000284255 0)
(2.00176 -0.00271976 0)
(1.9893 -0.000967847 0)
(1.8974 -0.003777 0)
(1.86065 -0.00390055 0)
(1.72358 0.0119479 0)
(2.17108 -0.107699 0)
(2.28913 -0.0332094 0)
(2.42009 -0.0257417 0)
(2.5455 -0.0439743 0)
(2.66206 -0.0641934 0)
(2.76904 -0.0693317 0)
(2.85921 -0.0512998 0)
(2.93328 -0.031027 0)
(2.98941 -0.0109189 0)
(3.0333 -0.00137605 0)
(3.08451 0.000623015 0)
(3.12149 -0.0014148 0)
(3.17862 -0.00391676 0)
(3.20518 -0.00776048 0)
(3.25621 -0.0122997 0)
(3.2753 -0.0194656 0)
(3.32153 -0.0271195 0)
(3.3382 -0.0295731 0)
(3.38157 -0.0299845 0)
(3.39379 -0.0128912 0)
(3.42992 0.0096185 0)
(3.44726 0.0431965 0)
(3.48432 0.0712155 0)
(3.53005 0.0920193 0)
(3.59109 0.0843506 0)
(3.66542 0.0616427 0)
(3.72137 0.0295166 0)
(3.7671 -0.00650394 0)
(3.79638 -0.0299119 0)
(3.79942 -0.0445822 0)
(3.8083 -0.0477181 0)
(3.79775 -0.0368674 0)
(3.8002 -0.0252459 0)
(3.80872 -0.0105656 0)
(3.81536 0.00457892 0)
(3.83594 0.0136341 0)
(3.86062 0.0222377 0)
(3.88533 0.0299728 0)
(3.9221 0.0347787 0)
(3.95937 0.0363544 0)
(4.00739 0.038711 0)
(4.0506 0.0391974 0)
(4.10822 0.0421971 0)
(4.15652 0.0449784 0)
(4.20795 0.0453347 0)
(4.25156 0.0544096 0)
(4.2904 0.059677 0)
(4.32656 0.0685936 0)
(4.35871 0.0912961 0)
(4.40096 0.100327 0)
(4.437 0.121778 0)
(4.49424 0.151075 0)
(4.54896 0.15739 0)
(4.63418 0.167031 0)
(4.70928 0.18473 0)
(4.81999 0.175951 0)
(4.92307 0.149459 0)
(5.04356 0.132217 0)
(5.14708 0.10287 0)
(5.26499 0.0310068 0)
(5.36809 -0.0188016 0)
(5.49187 -0.0790098 0)
(5.56345 -0.159321 0)
(5.6898 -0.231072 0)
(5.74155 -0.295146 0)
(5.88246 -0.348028 0)
(5.93452 -0.41779 0)
(6.05454 -0.463936 0)
(6.13872 -0.491396 0)
(6.24464 -0.557273 0)
(6.33689 -0.589971 0)
(6.44275 -0.598534 0)
(6.53497 -0.659121 0)
(6.64412 -0.668975 0)
(6.77254 -0.685012 0)
(6.86365 -0.711306 0)
(6.98989 -0.710086 0)
(7.12823 -0.696634 0)
(7.25094 -0.720261 0)
(7.39895 -0.710237 0)
(7.55911 -0.689305 0)
(7.70431 -0.715279 0)
(7.89486 -0.736177 0)
(8.04616 -0.71108 0)
(8.25013 -0.749515 0)
(8.46841 -0.772222 0)
(8.6467 -0.779485 0)
(8.92346 -0.840069 0)
(9.12262 -0.885426 0)
(9.38358 -0.96675 0)
(9.61802 -1.0433 0)
(9.87626 -1.12462 0)
(10.077 -1.22187 0)
(10.36 -1.29018 0)
(10.4956 -1.35008 0)
(10.7789 -1.41086 0)
(10.9335 -1.45653 0)
(11.1767 -1.43897 0)
(11.3138 -1.45067 0)
(11.5812 -1.47034 0)
(11.7222 -1.45475 0)
(11.9336 -1.46709 0)
(12.1203 -1.51713 0)
(12.2882 -1.52896 0)
(12.3899 -1.6014 0)
(12.5922 -1.71275 0)
(12.597 -1.80335 0)
(12.7069 -1.9463 0)
(12.6686 -2.06278 0)
(12.6821 -2.23487 0)
(12.5876 -2.37875 0)
(12.4407 -2.53507 0)
(12.3546 -2.68898 0)
(12.0372 -2.85402 0)
(11.7978 -2.96368 0)
(11.4468 -3.21107 0)
(11.1799 -3.29116 0)
(10.5482 -3.4625 0)
(10.4206 -3.64219 0)
(9.80544 -3.72967 0)
(9.53007 -3.82886 0)
(9.32499 -4.19974 0)
(9.08315 -4.40425 0)
(8.89085 -4.69135 0)
(8.84975 -5.24776 0)
(9.07371 -5.74643 0)
(8.7746 -5.84385 0)
(8.25021 -5.86495 0)
(8.16969 -5.8266 0)
(7.7949 -6.16293 0)
(8.50597 -6.49933 0)
(8.38331 -6.86277 0)
(9.18117 -6.93941 0)
(9.2862 -6.6607 0)
(9.65378 -6.0969 0)
(9.87183 -5.432 0)
(9.85718 -4.65957 0)
(10.0317 -3.84396 0)
(10.1168 -3.08894 0)
(10.4912 -2.29786 0)
(10.7142 -1.33675 0)
(10.8183 -0.331424 0)
(11.082 0.444422 0)
(11.2485 1.35305 0)
(11.4099 2.24033 0)
(11.3043 2.74923 0)
(11.1987 3.24591 0)
(10.9828 3.37657 0)
(10.9598 3.50525 0)
(11.3737 3.87707 0)
(11.3424 4.09531 0)
(11.9451 4.48331 0)
(11.9539 4.74882 0)
(12.3691 4.9416 0)
(11.9451 4.76042 0)
(12.3039 4.80403 0)
(11.733 4.4707 0)
(11.7223 3.98844 0)
(11.733 3.74906 0)
(11.2985 3.37061 0)
(11.3772 2.86132 0)
(11.1799 2.5691 0)
(11.1336 2.1105 0)
(10.738 1.64498 0)
(10.8948 1.373 0)
(10.4086 1.01899 0)
(10.3976 0.82437 0)
(9.91808 0.655475 0)
(9.79411 0.519458 0)
(9.57482 0.457528 0)
(9.19854 0.362516 0)
(8.97169 0.571796 0)
(8.51029 0.914451 0)
(8.29931 1.08456 0)
(7.72082 1.20338 0)
(7.86407 1.58964 0)
(7.30235 2.0521 0)
(7.3293 2.33793 0)
(6.88966 2.59102 0)
(7.18896 2.90211 0)
(6.7709 3.05221 0)
(6.94963 3.02601 0)
(6.94019 3.05667 0)
(6.87969 3.16464 0)
(7.1571 3.45255 0)
(6.94134 3.29184 0)
(7.22023 3.54514 0)
(7.22784 3.75181 0)
(7.28026 3.48697 0)
(7.73725 3.96529 0)
(7.33444 3.64193 0)
(7.72294 4.0128 0)
(7.44189 4.27094 0)
(6.76512 3.49412 0)
(6.51716 4.30117 0)
(5.98318 4.32151 0)
(5.38668 4.54699 0)
(5.53543 6.16993 0)
(6.13685 7.39631 0)
(3.76548 10.1165 0)
(5.18239 -0.0647651 0)
(5.2023 -0.0292179 0)
(5.22545 -0.0369754 0)
(5.27072 -0.0630678 0)
(5.35083 -0.0975706 0)
(5.41872 -0.118718 0)
(5.48634 -0.0973453 0)
(5.5322 -0.0660047 0)
(5.56688 -0.04179 0)
(5.58094 -0.0363514 0)
(5.60088 -0.0437161 0)
(5.61241 -0.0383094 0)
(5.64353 -0.0334743 0)
(5.65958 -0.0289518 0)
(5.68477 -0.0261495 0)
(5.69816 -0.0356902 0)
(5.71584 -0.0445911 0)
(5.73183 -0.0497752 0)
(5.7512 -0.0515827 0)
(5.76871 -0.0354362 0)
(5.78566 -0.0164023 0)
(5.79968 0.0105387 0)
(5.81608 0.0378795 0)
(5.83964 0.049556 0)
(5.86403 0.0522628 0)
(5.89606 0.0361709 0)
(5.92517 0.00874286 0)
(5.94591 -0.0145908 0)
(5.96249 -0.0395848 0)
(5.96512 -0.0488768 0)
(5.96538 -0.050893 0)
(5.95929 -0.0442256 0)
(5.9518 -0.0302203 0)
(5.94989 -0.0190286 0)
(5.94694 -0.00363119 0)
(5.94376 0.00439928 0)
(5.95368 0.0139119 0)
(5.95441 0.0194149 0)
(5.9642 0.0217883 0)
(5.97639 0.0240216 0)
(5.9947 0.0225404 0)
(6.0119 0.0234458 0)
(6.0393 0.0196841 0)
(6.06378 0.0205221 0)
(6.09442 0.0247978 0)
(6.11869 0.0202386 0)
(6.14714 0.0287351 0)
(6.17636 0.0423539 0)
(6.20099 0.0437465 0)
(6.24498 0.0619986 0)
(6.26762 0.0779932 0)
(6.32289 0.0825214 0)
(6.37963 0.0950863 0)
(6.4381 0.106675 0)
(6.51647 0.0980716 0)
(6.60465 0.0838488 0)
(6.70964 0.077338 0)
(6.79478 0.0381993 0)
(6.92246 -0.00572602 0)
(7.0317 -0.0431418 0)
(7.11778 -0.105839 0)
(7.26673 -0.171097 0)
(7.34776 -0.245926 0)
(7.46977 -0.299046 0)
(7.57477 -0.368718 0)
(7.69288 -0.445188 0)
(7.79938 -0.483662 0)
(7.89829 -0.547883 0)
(8.02651 -0.607431 0)
(8.13234 -0.622907 0)
(8.22726 -0.68956 0)
(8.34636 -0.722096 0)
(8.45319 -0.724779 0)
(8.54318 -0.763065 0)
(8.68129 -0.807293 0)
(8.76543 -0.778163 0)
(8.90294 -0.803152 0)
(9.00688 -0.827522 0)
(9.15097 -0.804144 0)
(9.2615 -0.800245 0)
(9.4239 -0.845999 0)
(9.52937 -0.81752 0)
(9.73078 -0.848003 0)
(9.86041 -0.856865 0)
(10.0525 -0.887417 0)
(10.2108 -0.913633 0)
(10.4374 -0.952143 0)
(10.6002 -1.02128 0)
(10.8306 -1.0687 0)
(11.0168 -1.12463 0)
(11.2378 -1.24591 0)
(11.432 -1.29149 0)
(11.597 -1.37599 0)
(11.7962 -1.45637 0)
(11.9414 -1.49052 0)
(12.0837 -1.55172 0)
(12.2311 -1.55876 0)
(12.3405 -1.57946 0)
(12.4676 -1.59 0)
(12.5702 -1.58209 0)
(12.6787 -1.577 0)
(12.7724 -1.58494 0)
(12.8215 -1.57587 0)
(12.8922 -1.62594 0)
(12.9516 -1.68171 0)
(12.9082 -1.73233 0)
(12.9163 -1.84326 0)
(12.8929 -1.92914 0)
(12.6659 -2.01186 0)
(12.7061 -2.19607 0)
(12.3834 -2.27178 0)
(12.2391 -2.41305 0)
(11.9698 -2.576 0)
(11.714 -2.6196 0)
(11.3305 -2.8063 0)
(11.1529 -2.91829 0)
(10.5391 -2.98492 0)
(10.3248 -3.14532 0)
(9.95899 -3.35278 0)
(9.47789 -3.36696 0)
(9.33208 -3.76198 0)
(9.19462 -4.0317 0)
(8.82346 -4.21779 0)
(8.68707 -4.62851 0)
(8.73601 -5.21749 0)
(8.52702 -5.44265 0)
(7.83105 -5.38855 0)
(7.45952 -5.4987 0)
(7.2092 -5.84259 0)
(7.2723 -6.4414 0)
(7.6312 -6.82393 0)
(7.50278 -7.16275 0)
(8.26878 -7.08874 0)
(8.0672 -6.80642 0)
(8.7001 -6.14701 0)
(8.43798 -5.40654 0)
(8.60452 -4.61474 0)
(8.66599 -3.92617 0)
(8.82679 -3.25877 0)
(9.22535 -2.42505 0)
(9.23134 -1.40222 0)
(9.37839 -0.455902 0)
(9.48813 0.373019 0)
(9.84169 1.18204 0)
(9.99794 2.09843 0)
(10.1998 2.78404 0)
(9.91795 3.30529 0)
(10.2351 3.48926 0)
(9.7094 3.43807 0)
(10.3859 3.71456 0)
(10.1977 3.90906 0)
(10.8096 4.18355 0)
(10.997 4.4559 0)
(11.4072 4.87572 0)
(11.3789 4.74799 0)
(11.4598 4.81785 0)
(11.5528 4.75017 0)
(10.9832 4.12403 0)
(11.3098 3.92436 0)
(10.7982 3.57211 0)
(10.8884 2.99006 0)
(10.497 2.57179 0)
(10.6792 2.35643 0)
(10.1611 1.74502 0)
(10.1818 1.42144 0)
(9.98775 1.28042 0)
(9.73649 0.987993 0)
(9.43744 0.777886 0)
(9.42811 0.73385 0)
(9.08193 0.635579 0)
(8.89317 0.588235 0)
(8.5608 0.925192 0)
(8.377 1.19493 0)
(7.87447 1.32597 0)
(7.66329 1.41531 0)
(7.253 1.80619 0)
(7.24709 2.31863 0)
(6.83172 2.56199 0)
(6.89843 2.72021 0)
(6.59133 2.94822 0)
(6.97543 3.1446 0)
(6.52635 3.06926 0)
(6.81135 3.17387 0)
(6.2638 3.04873 0)
(6.93146 3.20566 0)
(7.04012 3.45269 0)
(6.8833 3.25215 0)
(7.2895 3.81164 0)
(7.03139 3.53909 0)
(7.01878 3.42833 0)
(7.47476 4.09734 0)
(7.0827 3.31945 0)
(7.79265 4.33212 0)
(7.43299 4.42938 0)
(6.63755 3.77529 0)
(6.9428 5.11462 0)
(6.56151 5.06546 0)
(5.32026 5.65565 0)
(8.51629 6.2426 0)
(6.39956 11.1419 0)
(7.83486 -0.0885249 0)
(7.83135 -0.0731863 0)
(7.8434 -0.0948748 0)
(7.87765 -0.110369 0)
(7.95649 -0.117806 0)
(8.0022 -0.127651 0)
(8.03225 -0.107014 0)
(8.05857 -0.0859588 0)
(8.07895 -0.0593682 0)
(8.10165 -0.033969 0)
(8.11958 -0.0358592 0)
(8.11836 -0.0303007 0)
(8.12391 -0.0294294 0)
(8.1215 -0.0417181 0)
(8.11616 -0.041212 0)
(8.12477 -0.0542217 0)
(8.11983 -0.0607834 0)
(8.13818 -0.0564299 0)
(8.15184 -0.056993 0)
(8.16946 -0.0364318 0)
(8.18341 -0.013714 0)
(8.20105 0.00219337 0)
(8.20182 0.0227112 0)
(8.21645 0.0304048 0)
(8.21006 0.025119 0)
(8.22141 0.0244393 0)
(8.23332 0.00138908 0)
(8.23449 -0.0147388 0)
(8.25436 -0.0258259 0)
(8.24797 -0.0425822 0)
(8.25347 -0.0390144 0)
(8.24504 -0.0398873 0)
(8.23648 -0.0291407 0)
(8.2227 -0.0175188 0)
(8.21748 -0.00797505 0)
(8.19781 0.00807835 0)
(8.19873 0.00959295 0)
(8.19119 0.021043 0)
(8.18618 0.0235222 0)
(8.19451 0.0181864 0)
(8.19446 0.0254843 0)
(8.2036 0.014609 0)
(8.22077 0.0100537 0)
(8.22485 0.0165044 0)
(8.24926 0.00137784 0)
(8.26252 0.0109985 0)
(8.27951 0.0188835 0)
(8.30222 0.00600905 0)
(8.32162 0.0317659 0)
(8.34761 0.0365762 0)
(8.37845 0.0272145 0)
(8.4044 0.0553707 0)
(8.47133 0.0500974 0)
(8.49051 0.0338957 0)
(8.58382 0.0459339 0)
(8.63871 0.0220757 0)
(8.72727 -0.0116039 0)
(8.81032 -0.0353664 0)
(8.90402 -0.0861107 0)
(9.01419 -0.129578 0)
(9.08562 -0.195011 0)
(9.20838 -0.261706 0)
(9.30821 -0.304613 0)
(9.39495 -0.399164 0)
(9.51627 -0.457788 0)
(9.59158 -0.49763 0)
(9.72091 -0.595301 0)
(9.80417 -0.635409 0)
(9.88834 -0.66906 0)
(10.0197 -0.742823 0)
(10.0856 -0.768552 0)
(10.1723 -0.800981 0)
(10.2876 -0.838517 0)
(10.3518 -0.842351 0)
(10.4543 -0.877118 0)
(10.5421 -0.891747 0)
(10.6424 -0.884754 0)
(10.7524 -0.898411 0)
(10.8403 -0.908015 0)
(10.9561 -0.902857 0)
(11.0762 -0.933062 0)
(11.1976 -0.920572 0)
(11.319 -0.943905 0)
(11.4367 -0.983468 0)
(11.6097 -1.00553 0)
(11.7173 -1.04051 0)
(11.892 -1.10181 0)
(12.0262 -1.15381 0)
(12.1908 -1.21065 0)
(12.299 -1.27243 0)
(12.4936 -1.38071 0)
(12.576 -1.40976 0)
(12.7082 -1.48385 0)
(12.7968 -1.56556 0)
(12.8877 -1.58246 0)
(12.9088 -1.61099 0)
(13.0072 -1.66219 0)
(12.9968 -1.62517 0)
(13.0487 -1.64939 0)
(13.0536 -1.63669 0)
(13.0656 -1.59367 0)
(13.0476 -1.62778 0)
(13.0317 -1.60375 0)
(13.017 -1.61814 0)
(12.9625 -1.66623 0)
(12.8716 -1.66233 0)
(12.8202 -1.77829 0)
(12.6908 -1.79979 0)
(12.4806 -1.94561 0)
(12.4033 -1.9956 0)
(12.0481 -2.1039 0)
(11.9282 -2.23565 0)
(11.6208 -2.31744 0)
(11.2967 -2.38799 0)
(11.0821 -2.57101 0)
(10.6923 -2.60506 0)
(10.3259 -2.63232 0)
(10.1828 -2.96371 0)
(9.75499 -2.911 0)
(9.47165 -3.16792 0)
(9.41601 -3.54986 0)
(9.00432 -3.70637 0)
(8.6401 -3.97701 0)
(8.53708 -4.52199 0)
(8.27437 -4.92498 0)
(7.5405 -4.9085 0)
(6.88616 -5.01619 0)
(6.53599 -5.36518 0)
(6.34946 -5.91562 0)
(6.48954 -6.4724 0)
(6.46704 -6.89549 0)
(6.6832 -7.32251 0)
(7.15182 -7.30138 0)
(6.98294 -7.01424 0)
(7.61874 -6.26642 0)
(6.98364 -5.50378 0)
(7.4703 -4.70559 0)
(7.16898 -4.13802 0)
(7.54405 -3.37525 0)
(7.71545 -2.48835 0)
(7.71159 -1.41414 0)
(7.90566 -0.601764 0)
(7.99814 0.148384 0)
(8.26844 1.00543 0)
(8.33234 1.89248 0)
(8.7661 2.76443 0)
(8.57251 3.0968 0)
(8.95446 3.60396 0)
(8.579 3.42322 0)
(9.02476 3.46066 0)
(9.30608 3.6861 0)
(9.44721 3.92209 0)
(9.96563 4.26025 0)
(10.1478 4.59646 0)
(10.7245 4.78008 0)
(10.3347 4.72811 0)
(11.0096 4.79099 0)
(10.4803 4.30052 0)
(10.6051 3.93918 0)
(10.3742 3.68082 0)
(10.2532 3.21585 0)
(10.0424 2.67233 0)
(9.98789 2.40672 0)
(9.78149 2.02061 0)
(9.53638 1.48322 0)
(9.54871 1.3516 0)
(9.26768 1.2318 0)
(9.08966 0.856682 0)
(8.99851 0.821448 0)
(8.77516 0.856127 0)
(8.58805 0.841039 0)
(8.16256 1.06395 0)
(8.21642 1.51416 0)
(7.56674 1.68452 0)
(7.65308 1.69945 0)
(6.97777 1.88207 0)
(7.22416 2.4454 0)
(6.5754 2.70151 0)
(6.7765 2.7233 0)
(6.37997 2.8004 0)
(6.83171 3.02101 0)
(6.78048 3.12524 0)
(6.58093 3.27368 0)
(6.68717 3.1058 0)
(6.10717 2.98279 0)
(6.86136 3.40219 0)
(6.55007 3.50474 0)
(6.51446 3.46703 0)
(7.30503 4.01598 0)
(6.38381 3.4718 0)
(7.2032 3.59094 0)
(7.14579 4.02896 0)
(6.88927 3.45174 0)
(7.80808 4.94335 0)
(7.4177 4.52398 0)
(6.45806 4.64943 0)
(8.90002 5.02737 0)
(5.806 7.15787 0)
(9.75626 3.57322 0)
(8.17571 10.1241 0)
(10.0477 -0.119159 0)
(10.055 -0.196963 0)
(10.0928 -0.256024 0)
(10.1222 -0.227799 0)
(10.1953 -0.196469 0)
(10.2325 -0.171031 0)
(10.2468 -0.105061 0)
(10.2526 -0.0948732 0)
(10.2373 -0.0757867 0)
(10.2231 -0.0729236 0)
(10.2234 -0.0872782 0)
(10.2274 -0.0559605 0)
(10.244 -0.0465156 0)
(10.2721 -0.0268099 0)
(10.263 -0.00150948 0)
(10.2806 -0.0245976 0)
(10.2357 -0.0316194 0)
(10.2308 -0.059443 0)
(10.2108 -0.0867341 0)
(10.2163 -0.0675259 0)
(10.2372 -0.0611408 0)
(10.2685 -0.0283479 0)
(10.2889 0.0114812 0)
(10.3176 0.0235773 0)
(10.316 0.0503044 0)
(10.3011 0.0332872 0)
(10.2954 0.0132702 0)
(10.2583 -0.00481629 0)
(10.2634 -0.0385984 0)
(10.2444 -0.0371407 0)
(10.2505 -0.0532844 0)
(10.2617 -0.0406228 0)
(10.2675 -0.0244665 0)
(10.2713 -0.0213522 0)
(10.2726 0.00953675 0)
(10.2561 0.00598626 0)
(10.2424 0.0144142 0)
(10.2283 0.0296796 0)
(10.203 0.00972267 0)
(10.2029 0.0237808 0)
(10.1961 0.0232124 0)
(10.1977 0.00891184 0)
(10.2158 0.0213236 0)
(10.2212 0.0112302 0)
(10.2449 0.00485635 0)
(10.2627 0.00521702 0)
(10.2695 -0.000691607 0)
(10.3068 0.00225989 0)
(10.3049 0.00544145 0)
(10.3295 0.00554523 0)
(10.3705 0.0148107 0)
(10.361 0.00959832 0)
(10.4319 0.00704734 0)
(10.4523 0.00421267 0)
(10.5032 -0.016061 0)
(10.5661 -0.0383071 0)
(10.6254 -0.0623276 0)
(10.6999 -0.107639 0)
(10.7675 -0.146203 0)
(10.8525 -0.208291 0)
(10.9275 -0.256485 0)
(11.0023 -0.320141 0)
(11.0894 -0.393592 0)
(11.1539 -0.444499 0)
(11.2473 -0.526614 0)
(11.2999 -0.572794 0)
(11.3793 -0.645529 0)
(11.4671 -0.70538 0)
(11.4971 -0.730709 0)
(11.5801 -0.81028 0)
(11.6554 -0.827494 0)
(11.6776 -0.858552 0)
(11.751 -0.906444 0)
(11.8148 -0.903402 0)
(11.8461 -0.929838 0)
(11.9303 -0.955627 0)
(11.9796 -0.94018 0)
(12.0436 -0.964144 0)
(12.1174 -0.968973 0)
(12.2075 -0.985538 0)
(12.2585 -0.977617 0)
(12.351 -1.01941 0)
(12.4404 -1.03066 0)
(12.5122 -1.05391 0)
(12.6238 -1.10496 0)
(12.7096 -1.14988 0)
(12.7765 -1.1746 0)
(12.9024 -1.26769 0)
(12.9697 -1.30665 0)
(13.0448 -1.35838 0)
(13.1274 -1.44448 0)
(13.1738 -1.47348 0)
(13.194 -1.53759 0)
(13.2233 -1.581 0)
(13.2294 -1.59283 0)
(13.1996 -1.63664 0)
(13.1921 -1.61828 0)
(13.1294 -1.61515 0)
(13.1293 -1.62388 0)
(13.0105 -1.5568 0)
(13.0293 -1.5925 0)
(12.9166 -1.55197 0)
(12.8199 -1.52242 0)
(12.8167 -1.59421 0)
(12.6829 -1.53884 0)
(12.5569 -1.62365 0)
(12.5489 -1.68839 0)
(12.2535 -1.68893 0)
(12.2237 -1.80308 0)
(11.9771 -1.87229 0)
(11.7641 -1.9357 0)
(11.5722 -2.08853 0)
(11.3085 -2.09821 0)
(11.0446 -2.22508 0)
(10.9561 -2.32791 0)
(10.4505 -2.22703 0)
(10.4294 -2.50708 0)
(10.1371 -2.567 0)
(9.65956 -2.62047 0)
(9.57867 -3.01994 0)
(9.2451 -3.28563 0)
(8.66942 -3.31049 0)
(8.32431 -3.75093 0)
(8.0808 -4.30797 0)
(7.38 -4.36822 0)
(6.56128 -4.37659 0)
(6.07095 -4.58969 0)
(5.6636 -5.14211 0)
(5.57153 -5.82451 0)
(5.43138 -6.44106 0)
(5.49205 -7.09673 0)
(5.71781 -7.44907 0)
(5.70918 -7.37074 0)
(5.86796 -6.95922 0)
(6.06986 -6.13368 0)
(5.54492 -5.40648 0)
(6.11893 -4.74031 0)
(5.45454 -4.12511 0)
(6.2515 -3.41962 0)
(5.91834 -2.56041 0)
(6.40973 -1.60005 0)
(6.19627 -0.72657 0)
(6.49499 0.113474 0)
(6.37289 0.967925 0)
(6.75697 1.70598 0)
(7.10227 2.55574 0)
(6.95835 3.14569 0)
(7.22957 3.37074 0)
(7.66452 3.39431 0)
(7.40096 3.21495 0)
(8.19361 3.49891 0)
(8.21382 3.66033 0)
(8.8105 3.94448 0)
(8.88724 4.18874 0)
(9.6304 4.64306 0)
(9.35914 4.60385 0)
(9.86377 4.62399 0)
(9.91029 4.48719 0)
(9.66566 4.10928 0)
(9.87672 3.80974 0)
(9.62433 3.3111 0)
(9.74614 2.87364 0)
(9.30211 2.5278 0)
(9.47104 2.14812 0)
(9.0652 1.65531 0)
(9.12351 1.46814 0)
(8.80756 1.32386 0)
(8.77207 1.0376 0)
(8.4934 0.943246 0)
(8.4804 1.00294 0)
(8.20477 1.08577 0)
(8.14129 1.27993 0)
(7.97199 1.70482 0)
(7.72547 1.86582 0)
(7.34475 1.95144 0)
(7.17949 2.07915 0)
(6.98407 2.50396 0)
(7.02977 2.81679 0)
(6.40502 2.9237 0)
(6.57575 2.89494 0)
(6.12148 2.91312 0)
(6.69571 3.22553 0)
(6.16694 3.25877 0)
(6.71004 3.24809 0)
(6.33715 3.12376 0)
(6.18829 2.955 0)
(6.7283 3.61934 0)
(6.35177 3.38576 0)
(6.74977 3.48023 0)
(7.19957 4.04203 0)
(6.54672 3.10467 0)
(7.81377 3.90341 0)
(7.34599 3.75815 0)
(6.92349 4.22668 0)
(9.47138 4.24981 0)
(6.28733 5.87099 0)
(10.4376 2.70527 0)
(7.23903 7.83009 0)
(10.4455 2.79999 0)
(8.99066 8.54802 0)
(11.544 -0.108359 0)
(11.573 -0.214019 0)
(11.7064 -0.298554 0)
(11.7474 -0.266617 0)
(11.8234 -0.213951 0)
(11.8289 -0.204579 0)
(11.8413 -0.117484 0)
(11.8539 -0.096714 0)
(11.8318 -0.0693402 0)
(11.8436 -0.040231 0)
(11.8101 -0.0683419 0)
(11.7829 -0.0380134 0)
(11.7466 -0.0503483 0)
(11.7375 -0.0569633 0)
(11.7214 -0.0253395 0)
(11.7495 -0.0458881 0)
(11.7448 -0.0333052 0)
(11.7678 -0.0454116 0)
(11.7791 -0.0633392 0)
(11.7713 -0.0490284 0)
(11.7736 -0.0559957 0)
(11.7834 -0.0436638 0)
(11.7911 -0.0145818 0)
(11.8319 0.00311608 0)
(11.8417 0.0402675 0)
(11.8432 0.0477403 0)
(11.8503 0.0377083 0)
(11.8041 0.0340271 0)
(11.7713 -0.0123773 0)
(11.728 -0.0232053 0)
(11.686 -0.0472828 0)
(11.6834 -0.0678089 0)
(11.6924 -0.0370164 0)
(11.721 -0.0430283 0)
(11.7567 -0.00867924 0)
(11.8074 0.0259815 0)
(11.8136 0.0225327 0)
(11.8361 0.0588285 0)
(11.8188 0.0472863 0)
(11.7903 0.0278303 0)
(11.7614 0.039009 0)
(11.7379 0.00550979 0)
(11.7061 -0.00602509 0)
(11.7146 0.00709931 0)
(11.7162 -0.023521 0)
(11.7447 -0.0125261 0)
(11.768 -0.00250185 0)
(11.8184 -0.0254623 0)
(11.8398 0.00299684 0)
(11.8706 -0.0109889 0)
(11.9102 -0.0174059 0)
(11.9205 -0.000944305 0)
(11.9542 -0.0351254 0)
(11.9797 -0.0355936 0)
(12.0036 -0.0509455 0)
(12.058 -0.0950463 0)
(12.0725 -0.107541 0)
(12.1533 -0.153341 0)
(12.1727 -0.205562 0)
(12.2568 -0.245568 0)
(12.2888 -0.308716 0)
(12.3653 -0.365097 0)
(12.3918 -0.436538 0)
(12.4623 -0.488853 0)
(12.4842 -0.563188 0)
(12.5281 -0.618266 0)
(12.553 -0.674131 0)
(12.5929 -0.741247 0)
(12.5975 -0.770569 0)
(12.6356 -0.824905 0)
(12.6411 -0.86786 0)
(12.6653 -0.884703 0)
(12.6633 -0.931147 0)
(12.6985 -0.932994 0)
(12.6964 -0.962107 0)
(12.7144 -0.97737 0)
(12.747 -0.973429 0)
(12.7606 -1.00151 0)
(12.8014 -1.0003 0)
(12.8379 -1.02449 0)
(12.8484 -1.03296 0)
(12.9127 -1.06027 0)
(12.9493 -1.08488 0)
(12.9695 -1.1087 0)
(13.0163 -1.16338 0)
(13.072 -1.20112 0)
(13.0756 -1.24048 0)
(13.1503 -1.31078 0)
(13.1417 -1.35397 0)
(13.2083 -1.40722 0)
(13.167 -1.45174 0)
(13.1997 -1.5163 0)
(13.1871 -1.52979 0)
(13.1248 -1.56736 0)
(13.1175 -1.57379 0)
(13.0672 -1.58854 0)
(12.966 -1.57847 0)
(12.9985 -1.56873 0)
(12.8628 -1.55645 0)
(12.811 -1.53519 0)
(12.7837 -1.5165 0)
(12.6238 -1.47702 0)
(12.6217 -1.51025 0)
(12.5582 -1.49608 0)
(12.3882 -1.50919 0)
(12.4138 -1.57085 0)
(12.2515 -1.55045 0)
(12.1375 -1.61214 0)
(12.059 -1.6866 0)
(11.8308 -1.65975 0)
(11.7362 -1.8111 0)
(11.5974 -1.85434 0)
(11.2636 -1.85051 0)
(11.2962 -2.03723 0)
(10.8378 -1.97386 0)
(10.5956 -2.03201 0)
(10.5185 -2.27664 0)
(9.9563 -2.25395 0)
(9.66547 -2.43427 0)
(9.43946 -2.78225 0)
(8.76516 -2.79717 0)
(8.20601 -3.00484 0)
(7.92778 -3.55404 0)
(7.39576 -3.80966 0)
(6.52521 -3.74891 0)
(5.76651 -3.81953 0)
(5.08953 -4.24304 0)
(4.7984 -4.92308 0)
(4.60224 -5.7098 0)
(4.4777 -6.46666 0)
(4.50204 -7.06611 0)
(4.3911 -7.33798 0)
(4.45359 -7.31983 0)
(4.6262 -6.82606 0)
(4.55891 -6.016 0)
(4.34813 -5.40619 0)
(4.68879 -4.71374 0)
(4.1026 -4.26373 0)
(4.93884 -3.47813 0)
(4.19787 -2.69087 0)
(4.9188 -1.49059 0)
(4.36176 -0.787265 0)
(4.93025 0.10681 0)
(4.69202 0.642993 0)
(5.10555 1.62996 0)
(5.03396 2.48626 0)
(5.36846 2.96699 0)
(5.3689 3.07419 0)
(6.32185 3.24392 0)
(5.99313 3.09629 0)
(6.64919 3.15633 0)
(7.02822 3.40078 0)
(7.51543 3.71546 0)
(7.54015 3.89954 0)
(8.26628 4.43619 0)
(8.60038 4.44307 0)
(8.56122 4.42048 0)
(9.2213 4.48708 0)
(8.86014 4.0283 0)
(9.29099 3.81369 0)