/*--------------------------------*- C++ -*----------------------------------*\
| =========                 |                                                 |
| \\      /  F ield         | OpenFOAM: The Open Source CFD Toolbox           |
|  \\    /   O peration     | Version:  2.4.0                                 |
|   \\  /    A nd           | Web:      www.OpenFOAM.org                      |
|    \\/     M anipulation  |                                                 |
\*---------------------------------------------------------------------------*/
FoamFile
{
    version     2.0;
    format      ascii;
    class       surfaceScalarField;
    location    "63";
    object      phi;
}
// * * * * * * * * * * * * * * * * * * * * * * * * * * * * * * * * * * * * * //

dimensions      [0 3 -1 0 0 0 0];

internalField   nonuniform List<scalar> 
8640
(
0.000552642
-6.51421e-05
0.00051798
3.46622e-05
0.000398828
0.000119152
0.000537798
-0.00013897
0.000522466
1.53328e-05
0.000429782
9.26831e-05
0.000539899
-0.000110116
0.000506575
3.33231e-05
0.00047131
3.52652e-05
0.000537329
-6.60186e-05
0.000462864
7.44649e-05
0.000473242
-1.03785e-05
0.000558978
-8.57356e-05
0.000479404
7.95744e-05
0.000513136
-3.37324e-05
0.000558702
-4.5566e-05
0.000485216
7.34858e-05
0.000576428
-9.1212e-05
0.000542233
3.41954e-05
-7.65918e-05
0.000618824
0.00145419
-0.000131831
0.00138727
0.000101577
0.00128391
0.00022252
0.00145645
-0.00031151
0.00139845
7.3327e-05
0.00133431
0.000156828
0.00145373
-0.000229544
0.00139508
9.19729e-05
0.00137831
5.20387e-05
0.0014357
-0.000123411
0.00135176
0.00015841
0.00139727
-5.58871e-05
0.00146567
-0.000154134
0.00138354
0.000161696
0.00144114
-9.13274e-05
0.00146619
-7.06192e-05
0.00141244
0.000127238
0.00150254
-0.000181308
0.00153739
-6.64403e-07
-1.12189e-05
0.00147202
0.00223876
-0.000183095
0.00216833
0.000172012
0.00211689
0.00027396
0.00226299
-0.000457611
0.00219668
0.00013964
0.00217102
0.000182484
0.00225795
-0.000316474
0.00220809
0.000141832
0.00220389
5.62393e-05
0.002235
-0.000154522
0.00216791
0.000225499
0.00222058
-0.000108555
0.00226619
-0.000199746
0.00220231
0.00022558
0.00226872
-0.000157734
0.00226105
-6.29472e-05
0.00225552
0.000132765
0.00230173
-0.000227517
0.00236158
-6.05207e-05
4.62641e-05
0.0023041
0.00292682
-0.00022242
0.00281642
0.000282418
0.00285744
0.000232943
0.00298011
-0.000580291
0.00288283
0.000236921
0.00292169
0.000143623
0.00296594
-0.000360723
0.00291308
0.000194693
0.00295505
1.42752e-05
0.00294144
-0.00014092
0.00288336
0.000283581
0.00295422
-0.000179408
0.00295638
-0.000201914
0.0029124
0.000269565
0.00300217
-0.000247505
0.00294507
-5.84866e-06
0.00298055
9.72875e-05
0.00302001
-0.000266975
0.00302351
-6.40256e-05
1.03671e-05
0.00305941
0.00355293
-0.000287852
0.0033382
0.000497152
0.00344073
0.000130414
0.00360572
-0.000745283
0.00343657
0.000406074
0.00353971
4.04801e-05
0.00357542
-0.000396436
0.00347497
0.000295148
0.00358236
-9.31136e-05
0.00355196
-0.000110527
0.00346659
0.000368953
0.0035817
-0.000294518
0.00354365
-0.000163865
0.0034833
0.000329918
0.00361517
-0.000379377
0.00351912
9.01977e-05
0.00355183
6.45862e-05
0.00363194
-0.000347085
0.00356771
1.9997e-07
-8.5143e-05
0.00366322
0.00410134
-0.000401691
0.00381253
0.000785956
0.00387836
6.45833e-05
0.00410801
-0.000974925
0.00388597
0.00062811
0.00400537
-7.89224e-05
0.00407442
-0.000465481
0.00392344
0.000446128
0.00405427
-0.000223944
0.00404597
-0.000102227
0.00392407
0.00049085
0.00406982
-0.000440267
0.00403124
-0.000125286
0.00394123
0.000419931
0.00409445
-0.0005326
0.00399283
0.000191818
0.00399512
6.23002e-05
0.00410839
-0.000460358
0.00400679
0.000101798
-0.000200303
0.00412195
0.00452258
-0.000536766
0.00424535
0.00106318
0.00425211
5.78162e-05
0.00449581
-0.00121862
0.0042614
0.000862521
0.00436179
-0.000179312
0.00445802
-0.000561714
0.004295
0.000609148
0.0044137
-0.000342645
0.00442846
-0.000116981
0.00429041
0.000628902
0.00443486
-0.000584718
0.00440921
-9.9638e-05
0.00431218
0.00051696
0.00446016
-0.000680576
0.00437428
0.000277698
0.00435239
8.41852e-05
0.00447194
-0.000579901
0.00435658
0.000217157
-0.00030786
0.00446413
0.0048089
-0.000658167
0.0045936
0.00127848
0.0045712
8.02158e-05
0.00477766
-0.00142507
0.00456849
0.00107169
0.00463903
-0.000249855
0.00473192
-0.000654602
0.00459154
0.000749528
0.00468407
-0.000435173
0.00470841
-0.000141329
0.00458174
0.000755575
0.00470264
-0.000705612
0.00468304
-8.004e-05
0.00460179
0.000598212
0.00472123
-0.00080002
0.00465956
0.000339371
0.00463033
0.000113408
0.00473304
-0.000682603
0.00462819
0.000322004
-0.000389346
0.00470967
0.00497245
-0.000743112
0.00483613
0.0014148
0.00481142
0.000104927
0.00494505
-0.00155871
0.00479576
0.00122098
0.0048355
-0.000289596
0.00489946
-0.000718559
0.00480479
0.000844194
0.00486352
-0.0004939
0.00488504
-0.000162845
0.00479323
0.000847377
0.0048777
-0.000790076
0.00485725
-5.95891e-05
0.00480955
0.000645905
0.00488111
-0.000871575
0.00484581
0.000374665
0.00482293
0.000136294
0.00488832
-0.000747999
0.00481715
0.000393182
-0.000435162
0.00486296
0.0050226
-0.000778217
0.00497216
0.00146525
0.004959
0.000118093
0.00499696
-0.00159667
0.00493472
0.00128322
0.00494215
-0.00029703
0.00496419
-0.000740602
0.0049296
0.000878787
0.0049494
-0.000513695
0.00495946
-0.000172905
0.0049185
0.000888328
0.00495718
-0.000828748
0.0049345
-3.69114e-05
0.00493185
0.000648555
0.00494248
-0.000882209
0.00493519
0.000381958
0.00492655
0.00014493
0.00494001
-0.000761459
0.00491811
0.00041509
-0.000440755
0.0049237
0.00496584
-0.000756557
0.00500434
0.00142674
0.0050054
0.000117032
0.00494147
-0.00153274
0.00498124
0.00124345
0.00495389
-0.00026968
0.00493104
-0.000717751
0.00496133
0.000848496
0.00494042
-0.00049279
0.00493536
-0.000167845
0.00495354
0.00087015
0.00493966
-0.000814866
0.0049183
-1.55544e-05
0.00496163
0.000605225
0.00490801
-0.000828592
0.00492978
0.000360191
0.00493706
0.00013765
0.00489517
-0.000719572
0.00492705
0.000383209
-0.000407618
0.00489392
0.00481018
-0.00067924
0.00493226
0.00130466
0.00494753
0.000101766
0.00479208
-0.00137729
0.00492537
0.00111016
0.0048687
-0.000213006
0.00480445
-0.000653509
0.00489374
0.000759214
0.00483628
-0.000435334
0.00481676
-0.00014833
0.00489244
0.000794471
0.004825
-0.000747418
0.00481066
-1.2193e-06
0.00489046
0.000525431
0.00478095
-0.000719091
0.00483127
0.000309871
0.00484922
0.000119703
0.00476444
-0.000634789
0.00483915
0.000308501
-0.000346145
0.00477767
0.00456546
-0.000557204
0.00476319
0.00110694
0.0047787
8.6252e-05
0.00455782
-0.00115641
0.00476164
0.000906344
0.0046794
-0.000130772
0.00458888
-0.000562985
0.00472359
0.000624504
0.00463552
-0.000347263
0.00460885
-0.000121658
0.0047293
0.000674019
0.0046124
-0.000630519
0.00461361
-2.43039e-06
0.00471361
0.000425433
0.00456573
-0.000571209
0.00464495
0.000230644
0.00466112
0.000103534
0.00455752
-0.000531183
0.00465414
0.000211874
-0.000267911
0.00457591
0.00424613
-0.000415839
0.00450474
0.000848336
0.00449181
9.91811e-05
0.00424599
-0.000910586
0.00448787
0.000664463
0.00438374
-2.66465e-05
0.0042928
-0.000472044
0.00445189
0.000465418
0.00433943
-0.000234806
0.00431925
-0.00010148
0.0044598
0.000533473
0.00430707
-0.000477787
0.00433436
-2.97257e-05
0.00443186
0.00032794
0.00427443
-0.000413783
0.00437533
0.000129748
0.00437803
0.000100826
0.00427684
-0.000429991
0.00437125
0.00011747
-0.000184344
0.00428768
0.00386856
-0.000296899
0.00414812
0.000568779
0.00408109
0.000166211
0.0038652
-0.000694703
0.00410318
0.000426487
0.00399009
8.64457e-05
0.00392816
-0.000410115
0.00407709
0.000316485
0.00395175
-0.000109467
0.00395191
-0.000101636
0.00408088
0.000404498
0.00392248
-0.000319385
0.00397902
-8.62601e-05
0.00405017
0.000256785
0.00391301
-0.000276627
0.00401451
2.8257e-05
0.00399821
0.000117126
0.00391127
-0.000343056
0.0039846
4.41427e-05
-0.000106831
0.00390708
0.00342144
-0.000230835
0.0036462
0.000344015
0.00355569
0.000256726
0.00341318
-0.000552192
0.00359711
0.000242553
0.00350864
0.000174914
0.00347543
-0.000376903
0.00357616
0.000215758
0.00346999
-3.29969e-06
0.00349175
-0.000123394
0.00358822
0.000308024
0.00346253
-0.000193699
0.00352342
-0.000147143
0.00355721
0.000222991
0.00345925
-0.00017867
0.00353172
-4.42073e-05
0.00350864
0.000140205
0.00344031
-0.000274731
0.00348462
-1.6648e-07
-4.49297e-05
0.00342272
0.00284968
-0.000193015
0.00298142
0.000212276
0.00295482
0.000283324
0.00284991
-0.000447281
0.00295593
0.00013653
0.00293017
0.000200678
0.00288184
-0.000328579
0.00294026
0.000157344
0.00289125
4.57096e-05
0.00290601
-0.000138151
0.00297705
0.000236985
0.00289753
-0.000114188
0.00291711
-0.000166723
0.00293925
0.000200854
0.00288213
-0.000121549
0.00290904
-7.11178e-05
0.00290667
0.000142575
0.00284683
-0.000214894
0.00286293
-1.62655e-05
-4.08024e-06
0.00282208
0.0021352
-0.000140715
0.00222284
0.00012464
0.00227853
0.000227627
0.00214103
-0.000309775
0.00220978
6.77759e-05
0.00224389
0.000166569
0.0021511
-0.00023579
0.00220764
0.00010081
0.00220356
4.97863e-05
0.00218306
-0.000117653
0.00225609
0.000163957
0.00220203
-6.01268e-05
0.00217159
-0.000136288
0.00222084
0.00015161
0.00217796
-7.86716e-05
0.00216981
-6.29671e-05
0.00219937
0.000113009
0.00212922
-0.00014474
0.00213035
-1.74014e-05
1.71302e-05
0.00210914
0.00131405
-6.72655e-05
0.00139237
4.63209e-05
0.00149642
0.000123579
0.0013274
-0.000140761
0.00138328
1.19053e-05
0.00145247
9.73738e-05
0.0013279
-0.000111217
0.00139233
3.63814e-05
0.00140683
3.52792e-05
0.00135607
-6.68895e-05
0.00144286
7.71651e-05
0.00139758
-1.48408e-05
0.00133766
-7.63727e-05
0.00141485
7.44258e-05
0.00136667
-3.05005e-05
0.00134325
-3.95392e-05
0.00139525
6.10047e-05
0.00131376
-6.32522e-05
0.00131049
-1.4125e-05
2.24781e-05
0.00130514
0.000420235
0.000466555
0.000590134
0.000449373
0.000461278
0.000558652
0.000447435
0.000483816
0.000519095
0.000452206
0.000529371
0.00051453
0.000438157
0.000512583
0.000482082
0.000442544
0.000503548
0.000440296
0.000426171
0.000448649
0.000856846
-0.000399249
0.000161228
0.000752487
0.000288823
-0.000184464
0.00105534
-0.000378235
7.53826e-05
0.000858358
-0.000646212
0.000843192
0.000912965
0.000527819
-0.000582425
0.00161278
-0.000641513
-5.83031e-05
0.00164528
0.000511603
-0.000544106
0.00182623
-0.000553612
0.000372667
0.00217926
-0.00147375
0.00112072
0.00230121
7.25397e-06
-0.000129205
0.00263503
-0.00219998
0.00186615
0.00272124
-0.00191839
0.00183218
0.00248897
-0.000922233
0.00115451
0.00277839
-0.00185987
0.00157044
0.00326036
-0.00290766
0.00242569
0.00364976
-0.000354008
-3.53919e-05
0.00405571
-0.00185523
0.00144929
0.00424886
-0.00602122
0.00582806
0.00441621
-0.00530975
0.0051424
0.00425503
-0.00419085
0.00435204
0.00387265
-0.00594174
0.00632412
0.00314613
-0.00768308
0.00840961
0.00213253
-0.00522791
0.0062415
0.00163261
-0.00283492
0.00333485
0.00185837
-0.00809574
0.00786998
0.00220647
-0.00891596
0.00856785
0.00243652
-0.00354857
0.00331852
0.00249937
0.000192654
-0.000255507
0.00264986
0.00286653
-0.00301701
0.00306546
0.00774361
-0.00815921
0.00329108
0.0108634
-0.011089
0.00327778
0.00996061
-0.00994731
0.00305807
0.00984377
-0.00962405
0.00274555
0.00862056
-0.00830805
0.0025892
0.0021132
-0.00195684
0.00250419
-0.00274426
0.00282926
0.0023036
-0.00490881
0.00510941
0.00216522
-0.00842757
0.00856595
0.00224564
-0.00953787
0.00945745
0.00231654
-0.00677068
0.00669979
0.0024802
-0.00145316
0.0012895
0.00264914
0.00504643
-0.00521537
0.00267938
0.00776045
-0.00779069
0.00251726
0.00707566
-0.00691354
0.00240756
0.00713907
-0.00702936
0.00249908
0.00589843
-0.00598996
0.00251809
0.00361053
-0.00362953
0.00262665
2.48235e-05
-0.000133384
0.00281978
-0.00512941
0.00493628
0.00283205
-0.00797853
0.00796627
0.0026333
-0.00704853
0.00724728
0.00248584
-0.00291849
0.00306594
0.00254743
0.0016352
-0.00169679
0.00262616
0.00365615
-0.00373488
0.0026021
0.00361443
-0.00359037
0.00262398
0.0013855
-0.00140737
0.00268121
-0.00221406
0.00215683
0.00266695
-0.00457005
0.00458431
0.00259092
-0.00474914
0.00482518
0.00258157
-0.00249048
0.00249982
0.00264892
0.00125929
-0.00132665
0.00267143
0.0037185
-0.00374101
0.00259868
0.00394418
-0.00387142
0.00248938
0.00298744
-0.00287813
0.00242372
0.00167392
-0.00160826
0.00241849
0.000305928
-0.000300705
0.00243341
-0.000708709
0.000693794
0.00243184
-0.00109624
0.00109781
0.00240509
-0.000977748
0.0010045
0.00235984
-0.000657159
0.000702408
0.00230592
-0.00036217
0.00041609
0.00225171
-0.000173494
0.0002277
0.00220285
-7.95343e-05
0.000128391
0.00216217
-4.25066e-05
8.31895e-05
0.00213032
-3.137e-05
6.32168e-05
0.00210666
-2.86255e-05
5.22942e-05
0.00208986
-2.67666e-05
4.35599e-05
0.00207845
-2.36633e-05
3.50743e-05
0.00207101
-1.94501e-05
2.68906e-05
0.00206635
-1.48937e-05
1.95564e-05
0.00206354
-1.06865e-05
1.34983e-05
0.0020619
-7.22428e-06
8.85818e-06
0.00206099
-4.62417e-06
5.5401e-06
0.00206049
-2.81339e-06
3.30938e-06
0.00206023
-1.63241e-06
1.89219e-06
0.0020601
-9.06077e-07
1.0378e-06
0.00206003
-4.81981e-07
5.46767e-07
0.00206
-2.46391e-07
2.77299e-07
0.00205999
-1.21316e-07
1.35618e-07
0.00205998
-5.75784e-08
6.40459e-08
0.00205998
-2.64058e-08
2.92383e-08
0.00205998
-1.17927e-08
1.29803e-08
0.00205998
-5.05688e-09
5.54838e-09
0.00205998
-2.02623e-09
2.20585e-09
0.00205998
-8.68715e-10
9.38756e-10
0.00205998
-3.34119e-10
3.84612e-10
0.00205998
-5.92545e-11
6.27004e-11
0.00205998
-2.45329e-11
1.13569e-11
0.00205998
-1.0661e-11
1.6764e-11
3.14591e-11
-3.2536e-11
0.00164188
-0.000569108
0.00156819
0.000362508
0.00172133
-0.000531365
0.00181512
-0.000740002
0.00165892
0.000684015
0.00202816
-0.00101075
0.00225013
0.000289631
0.00240646
-0.000709938
0.00278237
-0.00184966
0.00289173
-0.000102107
0.00312555
-0.00243379
0.00326155
-0.0020544
0.003
-0.000660681
0.00322224
-0.00208211
0.00373437
-0.00341979
0.00413819
-0.000757823
0.00442886
-0.00214591
0.00447338
-0.00606573
0.00451791
-0.00535427
0.00428377
-0.00395672
0.00380064
-0.00545861
0.00296849
-0.00685093
0.00193318
-0.0041926
0.00146908
-0.00237083
0.00165986
-0.00828652
0.00196393
-0.00922002
0.00219215
-0.00377679
0.00227609
0.00010872
0.00237275
0.00276987
0.00278633
0.00733003
0.00309748
0.0105523
0.00318782
0.00987027
0.00303935
0.00999223
0.00278311
0.00887681
0.00264368
0.00225262
0.00254438
-0.00264496
0.00231814
-0.00468258
0.00212689
-0.00823632
0.00215841
-0.00956939
0.00220324
-0.00681552
0.00234002
-0.00158994
0.00252522
0.00486123
0.00262187
0.00766381
0.00251576
0.00718177
0.00246143
0.0071934
0.00257992
0.00577994
0.00261184
0.00357861
0.00274511
-0.000108451
0.00291251
-0.00529681
0.00286403
-0.00793005
0.00261238
-0.00679688
0.00244093
-0.00274704
0.00251203
0.0015641
0.00260239
0.00356579
0.00260158
0.00361524
0.00263965
0.00134742
0.00267454
-0.00224895
0.00262582
-0.00452134
0.00252394
-0.00464726
0.00249752
-0.00246406
0.00256967
0.00118715
0.00261828
0.00366989
0.00257712
0.00398533
0.00249597
0.00306859
0.00245131
0.00171859
0.00245556
0.000301675
0.00246791
-0.000721058
0.0024572
-0.00108553
0.00242102
-0.000941562
0.00236915
-0.000605294
0.00231155
-0.000304567
0.00225554
-0.000117489
0.00220581
-2.97975e-05
0.00216461
-1.31035e-06
0.00213237
8.68172e-07
0.00210834
-4.59528e-06
0.0020912
-9.61869e-06
0.00207944
-1.19111e-05
0.00207169
-1.16996e-05
0.00206677
-9.96902e-06
0.00206375
-7.66832e-06
0.00206196
-5.43903e-06
0.00206094
-3.60384e-06
0.00206038
-2.24966e-06
0.00206008
-1.33101e-06
0.00205992
-7.49924e-07
0.00205984
-4.03594e-07
0.00205981
-2.08219e-07
0.00205979
-1.03196e-07
0.00205978
-4.92495e-08
0.00205978
-2.27279e-08
0.00205977
-1.01456e-08
0.00205977
-4.36581e-09
0.00205977
-1.75932e-09
0.00205977
-7.34006e-10
0.00205977
-2.55526e-10
0.00205977
-7.08926e-11
0.00205977
-2.87188e-11
0.00205977
2.02267e-11
3.07561e-11
0.00238432
-0.00064933
0.00248961
0.000257219
0.00246104
-0.000502797
0.00264011
-0.000919065
0.00256988
0.00075424
0.00267356
-0.00111443
0.00295994
3.24901e-06
0.00302603
-0.000776028
0.00335299
-0.00217662
0.00343582
-0.000184939
0.00352439
-0.00252237
0.00373772
-0.00226772
0.003513
-0.000435962
0.00364111
-0.00221022
0.00413619
-0.00391487
0.00454296
-0.00116459
0.00470904
-0.002312
0.00460508
-0.00596177
0.0045363
-0.00528548
0.00424997
-0.00367039
0.00368034
-0.00488898
0.00276054
-0.00593113
0.00173289
-0.00316496
0.00131143
-0.00194937
0.00142906
-0.00840415
0.00168075
-0.00947171
0.00190679
-0.00400283
0.00202045
-4.93708e-06
0.00209247
0.00269785
0.00250155
0.00692094
0.00288083
0.010173
0.00306518
0.00968593
0.00299038
0.010067
0.00280091
0.00906629
0.00268489
0.00236864
0.00257209
-0.00253216
0.00232087
-0.00443136
0.00207888
-0.00799433
0.00206006
-0.00955057
0.00207709
-0.00683255
0.00218663
-0.00169948
0.00238684
0.00466102
0.00254608
0.00750457
0.0024964
0.00723146
0.00250132
0.00718847
0.0026446
0.00563665
0.00269209
0.00353112
0.0028502
-0.000266561
0.00298555
-0.00543215
0.0028726
-0.00781711
0.0025729
-0.00649718
0.0023844
-0.00255855
0.00246184
0.00148666
0.00256041
0.00346722
0.00258435
0.00359131
0.00263735
0.00129442
0.00264795
-0.00225955
0.00256538
-0.00443877
0.00244043
-0.0045223
0.00239852
-0.00242216
0.00247417
0.00111149
0.00254759
0.00359647
0.00253845
0.00399447
0.00248714
0.0031199
0.00246488
0.00174085
0.00247879
0.000287763
0.002488
-0.000730267
0.00246779
-0.00106533
0.00242246
-0.000896224
0.00236492
-0.000547758
0.00230511
-0.000244755
0.00224911
-6.14937e-05
0.00220042
1.88992e-05
0.00216055
3.85572e-05
0.00212955
3.18694e-05
0.0021065
1.84516e-05
0.00209004
6.84074e-06
0.00207871
-5.8311e-07
0.00207119
-4.17256e-06
0.00206635
-5.13628e-06
0.00206335
-4.66888e-06
0.00206155
-3.63913e-06
0.00206051
-2.55931e-06
0.00205992
-1.66322e-06
0.0020596
-1.01233e-06
0.00205944
-5.82213e-07
0.00205935
-3.18052e-07
0.00205931
-1.65905e-07
0.00205929
-8.29156e-08
0.00205928
-3.97685e-08
0.00205928
-1.84383e-08
0.00205927
-8.27294e-09
0.00205927
-3.55461e-09
0.00205927
-1.45234e-09
0.00205927
-5.95041e-10
0.00205927
-1.87891e-10
0.00205927
-6.25894e-11
0.00205927
-3.93023e-11
0.00205927
2.81902e-11
2.98297e-11
0.00304558
-0.0006355
0.00322518
7.76172e-05
0.00311513
-0.000392748
0.00325722
-0.00106115
0.00331175
0.000699712
0.0032871
-0.00108978
0.00359877
-0.000308421
0.00357857
-0.000755834
0.00381589
-0.00241393
0.00392992
-0.000298975
0.00389495
-0.0024874
0.00412819
-0.00250096
0.00395136
-0.000259128
0.0039991
-0.00225797
0.0044258
-0.00434157
0.00480338
-0.00154218
0.00487235
-0.00238097
0.00464824
-0.00573766
0.0044839
-0.00512114
0.00415811
-0.0033446
0.00351197
-0.00424284
0.00252651
-0.00494567
0.00152834
-0.00216678
0.00114526
-0.00156628
0.00116147
-0.00842037
0.00135781
-0.00966805
0.00158375
-0.00422877
0.00172899
-0.000150173
0.00180297
0.00262387
0.00221036
0.00651355
0.00264276
0.00974057
0.00291075
0.00941794
0.00291305
0.0100647
0.00279983
0.0091795
0.00271376
0.00245471
0.00258825
-0.00240665
0.00231324
-0.00415634
0.00202259
-0.00770369
0.00195135
-0.00947933
0.00193801
-0.0068192
0.00202045
-0.00178192
0.00223482
0.00444664
0.00245246
0.00728692
0.00245954
0.00722438
0.00252697
0.00712105
0.00269262
0.005471
0.00275857
0.00346517
0.0029405
-0.00044849
0.00303724
-0.00552889
0.0028573
-0.00763717
0.00251579
-0.00615566
0.00231734
-0.00236009
0.0023977
0.0014063
0.0025013
0.00336362
0.0025511
0.00354151
0.00261727
0.00122825
0.00260193
-0.00224421
0.00248673
-0.00432357
0.00234128
-0.00437685
0.00228551
-0.00236638
0.00236349
0.00103351
0.00246017
0.0034998
0.00248308
0.00397155
0.00246295
0.00314003
0.0024642
0.00173961
0.00248765
0.000264311
0.00249306
-0.000735675
0.00246311
-0.00103539
0.0024091
-0.000842216
0.002347
-0.000485655
0.00228654
-0.000184294
0.00223238
-7.33585e-06
0.00218664
6.46419e-05
0.00214992
7.52748e-05
0.00212176
6.00313e-05
0.00210101
3.92014e-05
0.00208625
2.15977e-05
0.00207609
9.57997e-06
0.0020693
2.6158e-06
0.0020649
-7.38092e-07
0.00206214
-1.90645e-06
0.00206046
-1.95844e-06
0.00205947
-1.56948e-06
0.00205891
-1.09907e-06
0.00205859
-7.01169e-07
0.00205843
-4.16129e-07
0.00205834
-2.32189e-07
0.0020583
-1.22906e-07
0.00205828
-6.20674e-08
0.00205827
-2.99196e-08
0.00205826
-1.39372e-08
0.00205826
-6.28716e-09
0.00205826
-2.68751e-09
0.00205826
-1.11467e-09
0.00205826
-4.4565e-10
0.00205826
-1.16268e-10
0.00205826
-5.41053e-11
0.00205826
-4.59042e-11
0.00205826
3.2433e-11
3.00456e-11
0.00360352
-0.000575801
0.00377999
-9.88483e-05
0.00366339
-0.000276154
0.00371968
-0.00111744
0.00388198
0.000537405
0.00379056
-0.000998364
0.00407909
-0.000596946
0.0040426
-0.000719349
0.00416878
-0.0025401
0.00431168
-0.000441875
0.00420962
-0.00238534
0.00441162
-0.00270297
0.00428507
-0.000132577
0.00427439
-0.00224728
0.00458927
-0.00465645
0.0049162
-0.00186911
0.00492748
-0.00239225
0.00461399
-0.00542417
0.00436335
-0.0048705
0.00400071
-0.00298196
0.00329221
-0.00353434
0.00227162
-0.00392509
0.00132498
-0.00122014
0.000967534
-0.00120884
0.000865254
-0.00831809
0.00100368
-0.00980647
0.00123167
-0.00445677
0.0014059
-0.000324407
0.00150667
0.00252311
0.00191789
0.00610233
0.00238887
0.00926959
0.00272492
0.00908189
0.00281078
0.00997886
0.00278104
0.00920924
0.00273032
0.00250542
0.00259346
-0.00226978
0.00229577
-0.00385865
0.00195868
-0.0073666
0.00183262
-0.00935327
0.00178643
-0.00677301
0.00184176
-0.00183725
0.00207051
0.0042179
0.00234197
0.00701546
0.00240594
0.00716042
0.00253807
0.00698891
0.00272336
0.00528571
0.00281136
0.00337717
0.00301462
-0.00065176
0.00306608
-0.00558034
0.00281788
-0.00738897
0.00244194
-0.00577973
0.00224054
-0.00215869
0.00232035
0.00132648
0.00242635
0.00325762
0.00250293
0.00346493
0.00257964
0.00115154
0.00253729
-0.00220186
0.00239112
-0.00417739
0.00222754
-0.00421328
0.00215947
-0.00229832
0.00223876
0.000954224
0.00235698
0.00338158
0.00241166
0.00391687
0.00242374
0.00312795
0.00244927
0.00171408
0.00248184
0.000231735
0.00248267
-0.000736502
0.00244289
-0.000995602
0.00238094
-0.000780273
0.00231558
-0.000420292
0.00225613
-0.000124841
0.00220564
4.31519e-05
0.00216472
0.000105562
0.00213289
0.000107103
0.00210907
8.3854e-05
0.00209182
5.64472e-05
0.00207968
3.37376e-05
0.00207134
1.79194e-05
0.00206575
8.21153e-06
0.00206208
2.92474e-06
0.00205975
4.26873e-07
0.00205831
-5.15449e-07
0.00205744
-7.0497e-07
0.00205694
-5.97925e-07
0.00205666
-4.20261e-07
0.00205651
-2.63945e-07
0.00205643
-1.52442e-07
0.00205639
-8.24911e-08
0.00205637
-4.22612e-08
0.00205636
-2.048e-08
0.00205635
-9.58915e-09
0.00205635
-4.35136e-09
0.00205635
-1.83779e-09
0.00205635
-7.74314e-10
0.00205635
-2.9768e-10
0.00205635
-4.94551e-11
0.00205635
-4.50577e-11
0.00205635
-4.94497e-11
0.00205635
3.61084e-11
2.98486e-11
0.00405088
-0.000504729
0.00418795
-0.00023592
0.00412084
-0.000209038
0.00408341
-0.00108001
0.00431116
0.000309656
0.00419983
-0.000887032
0.00441143
-0.000808545
0.00442365
-0.00073157
0.00444643
-0.00256288
0.00458851
-0.000583957
0.00446192
-0.00225875
0.00458974
-0.00283078
0.00451056
-5.34017e-05
0.004462
-0.00219872
0.00463988
-0.00483433
0.00490902
-0.00213824
0.00489198
-0.00237521
0.00450906
-0.00504125
0.0041711
-0.00453254
0.00376878
-0.00257964
0.00302137
-0.00278693
0.00200105
-0.00290477
0.00112741
-0.000346499
0.000779735
-0.00086116
0.000552153
-0.00809051
0.000634199
-0.00988851
0.000865123
-0.00468769
0.00105976
-0.000519042
0.00120306
0.0023798
0.00162033
0.00568506
0.00212184
0.00876808
0.00252029
0.00868345
0.00268815
0.009811
0.00274527
0.00915212
0.00273517
0.00251552
0.00258865
-0.00212326
0.00227016
-0.00354016
0.00188882
-0.00698525
0.0017046
-0.00916905
0.00162233
-0.00669074
0.00165081
-0.00186573
0.00189477
0.00397394
0.00221541
0.00669482
0.00233662
0.0070392
0.00253452
0.00679101
0.00273656
0.00508368
0.0028507
0.00326303
0.00307131
-0.000872372
0.00307068
-0.00557971
0.00275433
-0.00707263
0.00235208
-0.00537747
0.00215427
-0.00196087
0.00223
0.00125075
0.00233705
0.00315057
0.00244101
0.00336097
0.00252504
0.0010675
0.00245523
-0.00213205
0.00228002
-0.00400218
0.00210034
-0.00403359
0.00202136
-0.00221933
0.00210112
0.000874458
0.0022391
0.0032436
0.00232501
0.00383096
0.00237009
0.00308287
0.00242036
0.00166381
0.00246123
0.00019087
0.00245662
-0.000731901
0.00240714
-0.000946119
0.00233831
-0.000711439
0.00227121
-0.000353198
0.00221451
-6.81376e-05
0.00216953
8.81375e-05
0.00213518
0.000139903
0.00210982
0.000132466
0.00209164
0.000102034
0.00207891
6.91836e-05
0.00207011
4.25279e-05
0.00206411
2.39242e-05
0.00206005
1.22701e-05
0.00205735
5.62642e-06
0.00205559
2.18688e-06
0.00205447
6.00133e-07
0.00205379
-2.00592e-08
0.00205338
-1.91684e-07
0.00205315
-1.87796e-07
0.00205302
-1.35713e-07
0.00205295
-8.41945e-08
0.00205292
-4.74512e-08
0.0020529
-2.49025e-08
0.00205289
-1.21356e-08
0.00205289
-5.71942e-09
0.00205289
-2.61665e-09
0.00205289
-1.07168e-09
0.00205289
-4.61952e-10
0.00205289
-1.63161e-10
0.00205289
7.63335e-12
0.00205289
-3.72174e-11
0.00205289
-4.9043e-11
0.00205289
3.93576e-11
2.88456e-11
0.00440297
-0.000443566
0.00448117
-0.000314121
0.00449005
-0.000217918
0.00437452
-0.00096448
0.00461848
6.5696e-05
0.00452195
-0.00079051
0.00463197
-0.000918564
0.00471298
-0.00081258
0.00464674
-0.00249664
0.00476747
-0.000704687
0.00464017
-0.00213145
0.00466677
-0.00285737
0.00463138
-1.80145e-05
0.00455928
-0.00212662
0.00459389
-0.00486894
0.00481162
-0.00235597
0.00478036
-0.00234395
0.00433704
-0.00459793
0.00390676
-0.00410227
0.00346521
-0.00213809
0.00270212
-0.00202384
0.00172089
-0.00192354
0.000942296
0.00043209
0.000596622
-0.000515486
0.000237202
-0.00773109
0.000275777
-0.00992709
0.000505427
-0.00491734
0.000704884
-0.000718499
0.000903978
0.00218071
0.00132433
0.00526471
0.00185113
0.00824128
0.0023084
0.00822618
0.00255162
0.00956777
0.00269448
0.00900927
0.00272862
0.00248138
0.00257428
-0.00196892
0.0022376
-0.00320349
0.00181386
-0.00656151
0.00156767
-0.00892286
0.00144586
-0.00656894
0.00144839
-0.00186825
0.00170942
0.0037129
0.00207402
0.00633023
0.00225271
0.00686051
0.0025161
0.00652763
0.0027322
0.00486757
0.00287708
0.00311815
0.00310941
-0.0011047
0.00304984
-0.00552014
0.00266691
-0.0066897
0.00224662
-0.00495718
0.00205775
-0.001772
0.00212643
0.00118208
0.00223471
0.00304228
0.00236641
0.00322928
0.00245431
0.000979602
0.00235711
-0.00203485
0.00215508
-0.00380016
0.00196083
-0.00383934
0.00187205
-0.00213056
0.00195169
0.000794824
0.00210772
0.00308757
0.00222416
0.00371452
0.00230287
0.00300416
0.00237789
0.0015888
0.00242579
0.000142963
0.0024149
-0.00072101
0.00235622
-0.00088744
0.00228193
-0.000637144
0.00221487
-0.000286141
0.00216274
-1.60041e-05
0.002125
0.000125873
0.00209881
0.000166093
0.00208122
0.000150063
0.00206966
0.000113585
0.00206213
7.67186e-05
0.00205715
4.75102e-05
0.00205377
2.7301e-05
0.00205144
1.46057e-05
0.00204981
7.24877e-06
0.0020487
3.298e-06
0.00204796
1.34003e-06
0.00204749
4.54783e-07
0.00204719
1.00839e-07
0.00204702
-1.5053e-08
0.00204692
-3.79687e-08
0.00204687
-3.1102e-08
0.00204684
-1.97528e-08
0.00204683
-1.10141e-08
0.00204682
-5.39846e-09
0.00204682
-2.57625e-09
0.00204682
-1.20039e-09
0.00204682
-4.41807e-10
0.00204682
-2.03025e-10
0.00204682
-5.19351e-11
0.00204682
5.08417e-11
0.00204682
-3.14832e-11
0.00204682
-4.51898e-11
0.00204682
4.20608e-11
2.69719e-11
0.00466868
-0.000402573
0.00468517
-0.000330605
0.0047565
-0.000289249
0.00459686
-0.000804842
0.00481806
-0.0001555
0.00475352
-0.000725969
0.00476825
-0.000933301
0.00489257
-0.000936899
0.00476305
-0.00236711
0.00485342
-0.000795059
0.00473344
-0.00201148
0.00464628
-0.00277021
0.00465348
-2.52111e-05
0.00456784
-0.00204098
0.00446726
-0.00476837
0.00464163
-0.00253034
0.00459105
-0.00229337
0.00408778
-0.00409466
0.00357693
-0.00359142
0.00309256
-0.00165371
0.00234422
-0.0012755
0.00144097
-0.00102029
0.000775155
0.00109791
0.000437443
-0.000177774
-4.44682e-05
-0.00724918
-5.40735e-05
-0.00991748
0.000179532
-0.00515094
0.000353564
-0.000892531
0.000610209
0.00192407
0.00102289
0.00485203
0.00157465
0.00768952
0.0020886
0.00771224
0.00240283
0.00925353
0.00263012
0.00878198
0.00271076
0.00240075
0.00255093
-0.00180909
0.00220017
-0.00285272
0.00173551
-0.00609686
0.00142283
-0.00861018
0.00125761
-0.00640371
0.00123534
-0.00184599
0.00151597
0.00343228
0.00191894
0.00592726
0.00215564
0.0066238
0.0024829
0.00620037
0.00271074
0.00463973
0.00289128
0.0029376
0.00312776
-0.00134117
0.00300248
-0.00539487
0.00255603
-0.00624324
0.00212544
-0.0045266
0.00194904
-0.0015956
0.0020086
0.00112252
0.00212074
0.00293015
0.00228046
0.00306955
0.00236822
0.000891839
0.00224459
-0.00191122
0.00201805
-0.00357362
0.00181026
-0.00363155
0.00171246
-0.00203276
0.00179155
0.000715734
0.00196406
0.00291506
0.00211031
0.00356827
0.00222319
0.00289128
0.00232245
0.00148954
0.00237565
8.97676e-05
0.00235778
-0.000703141
0.00229089
-0.000820553
0.00221298
-0.000559233
0.00214794
-0.000221105
0.00210221
2.97231e-05
0.0020733
0.000154785
0.00205651
0.000182886
0.00204755
0.000159021
0.00204315
0.000117985
0.00204107
7.87971e-05
0.00203999
4.85929e-05
0.00203925
2.80365e-05
0.00203863
1.52311e-05
0.00203807
7.80584e-06
0.0020376
3.76805e-06
0.00203724
1.70611e-06
0.00203697
7.17983e-07
0.0020368
2.76859e-07
0.00203669
9.5278e-08
0.00203662
2.72099e-08
0.00203658
5.42944e-09
0.00203656
-2.61604e-10
0.00203655
-1.09131e-09
0.00203655
-5.33806e-10
0.00203655
-2.94755e-10
0.00203655
-1.68842e-10
0.00203655
2.07555e-11
0.00203655
-1.29297e-11
0.00203655
2.9205e-11
0.00203655
7.84031e-11
0.00203655
-2.80772e-11
0.00203655
-3.91071e-11
0.00203655
4.37896e-11
2.43785e-11
0.00484291
-0.00038252
0.00481573
-0.000303422
0.00490867
-0.000382198
0.00474521
-0.000641381
0.00492164
-0.000331923
0.00488749
-0.000691827
0.00483984
-0.00088565
0.00496363
-0.00106069
0.00479002
-0.0021935
0.00484981
-0.000854856
0.0047324
-0.00189407
0.00453595
-0.00257376
0.00458519
-7.44479e-05
0.00449329
-0.00194908
0.00427393
-0.00454901
0.00440076
-0.00265717
0.00431174
-0.00220435
0.00375021
-0.00353314
0.00318097
-0.00302217
0.00266485
-0.0011376
0.00196536
-0.000576007
0.00117302
-0.000227947
0.000631323
0.0016396
0.000318484
0.000135065
-0.000191333
-0.00673936
-0.000295162
-0.00981366
-0.000121324