/*--------------------------------*- C++ -*----------------------------------*\
| =========                 |                                                 |
| \\      /  F ield         | OpenFOAM: The Open Source CFD Toolbox           |
|  \\    /   O peration     | Version:  2.4.0                                 |
|   \\  /    A nd           | Web:      www.OpenFOAM.org                      |
|    \\/     M anipulation  |                                                 |
\*---------------------------------------------------------------------------*/
FoamFile
{
    version     2.0;
    format      ascii;
    class       volVectorField;
    location    "63";
    object      U;
}
// * * * * * * * * * * * * * * * * * * * * * * * * * * * * * * * * * * * * * //

dimensions      [0 1 -1 0 0 0 0];

internalField   nonuniform List<vector> 
4400
(
(0.109125 -0.00125533 0)
(0.104759 0.000734353 0)
(0.0857759 0.0022569 0)
(0.0974552 -0.00255993 0)
(0.104595 0.000434967 0)
(0.091471 0.0018753 0)
(0.100235 -0.00214572 0)
(0.10278 0.000809571 0)
(0.098827 0.000758617 0)
(0.101828 -0.00124168 0)
(0.0977678 0.00144369 0)
(0.0934226 -0.000202285 0)
(0.106595 -0.0016242 0)
(0.0988534 0.00159166 0)
(0.103355 -0.000784755 0)
(0.10319 -0.000761199 0)
(0.106549 0.00126884 0)
(0.10135 -0.0016448 0)
(0.123129 0.00110755 0)
(0.0813559 -0.00341132 0)
(0.296037 -0.00387812 0)
(0.272986 0.00263325 0)
(0.268332 0.00669845 0)
(0.28272 -0.00884705 0)
(0.275523 0.00167464 0)
(0.2765 0.00505261 0)
(0.283681 -0.00675099 0)
(0.277195 0.00251916 0)
(0.284285 0.00176839 0)
(0.278686 -0.00376637 0)
(0.275466 0.00454776 0)
(0.277664 -0.00123786 0)
(0.289792 -0.00476151 0)
(0.273149 0.00473573 0)
(0.298094 -0.00247149 0)
(0.275334 -0.0025187 0)
(0.297765 0.00429767 0)
(0.28579 -0.00623075 0)
(0.305363 0.00193664 0)
(0.295851 -0.00292893 0)
(0.464897 -0.00639504 0)
(0.417187 0.00532378 0)
(0.437732 0.010114 0)
(0.451829 -0.0154421 0)
(0.423747 0.00414312 0)
(0.44998 0.00675215 0)
(0.447152 -0.0110625 0)
(0.432146 0.00471447 0)
(0.456109 0.00213222 0)
(0.437622 -0.0057924 0)
(0.434201 0.00759456 0)
(0.447804 -0.00338779 0)
(0.448892 -0.00702512 0)
(0.431911 0.00766368 0)
(0.470032 -0.00485779 0)
(0.43298 -0.002968 0)
(0.457921 0.00550517 0)
(0.464352 -0.00850505 0)
(0.445028 -0.00148303 0)
(0.488939 0.0017172 0)
(0.6198 -0.0079426 0)
(0.537571 0.00819912 0)
(0.577298 0.0112102 0)
(0.611751 -0.0201107 0)
(0.546931 0.00697997 0)
(0.602911 0.00734031 0)
(0.596019 -0.0135123 0)
(0.563995 0.00642469 0)
(0.607741 0.00221901 0)
(0.586681 -0.00620244 0)
(0.566145 0.00995925 0)
(0.603708 -0.00519926 0)
(0.586431 -0.00844622 0)
(0.568752 0.00981393 0)
(0.619552 -0.00732919 0)
(0.575711 -0.00192087 0)
(0.588392 0.00484064 0)
(0.62569 -0.00915556 0)
(0.567903 -0.00347729 0)
(0.638158 0.00215289 0)
(0.754673 -0.00938598 0)
(0.653291 0.0143045 0)
(0.671367 0.00745366 0)
(0.752228 -0.0248032 0)
(0.653947 0.0121351 0)
(0.719264 0.00434382 0)
(0.726892 -0.0143798 0)
(0.67539 0.00905815 0)
(0.722665 -0.000761283 0)
(0.721965 -0.00467195 0)
(0.674424 0.012523 0)
(0.729827 -0.00861501 0)
(0.710676 -0.00735632 0)
(0.679013 0.0114729 0)
(0.73881 -0.011821 0)
(0.700862 0.00157913 0)
(0.692443 0.0029195 0)
(0.752117 -0.0113226 0)
(0.682171 -0.00188624 0)
(0.749329 -0.000939707 0)
(0.855354 -0.0131105 0)
(0.772221 0.0250451 0)
(0.743539 0.00277625 0)
(0.854203 -0.0335234 0)
(0.751705 0.0200336 0)
(0.803128 -0.000985317 0)
(0.827792 -0.0165735 0)
(0.773948 0.0141958 0)
(0.80466 -0.0063039 0)
(0.827322 -0.00390579 0)
(0.767242 0.0166668 0)
(0.820322 -0.01435 0)
(0.814117 -0.00561255 0)
(0.771919 0.0145721 0)
(0.828684 -0.0181111 0)
(0.802538 0.00574482 0)
(0.780054 0.00200966 0)
(0.843065 -0.0156342 0)
(0.778809 0.00168764 0)
(0.833438 -0.00568394 0)
(0.923633 -0.0187326 0)
(0.873011 0.0368515 0)
(0.817716 0.00131405 0)
(0.925825 -0.0442613 0)
(0.836581 0.0293041 0)
(0.870153 -0.00597096 0)
(0.900018 -0.020542 0)
(0.857147 0.0207607 0)
(0.870394 -0.0117913 0)
(0.903441 -0.00429435 0)
(0.846289 0.0221303 0)
(0.886877 -0.0207172 0)
(0.891852 -0.00450883 0)
(0.848744 0.0186339 0)
(0.897859 -0.0245746 0)
(0.880218 0.00950938 0)
(0.85566 0.00259869 0)
(0.909607 -0.0208587 0)
(0.857175 0.0064323 0)
(0.896901 -0.0107513 0)
(0.969046 -0.0243749 0)
(0.943287 0.0470305 0)
(0.88906 0.00217415 0)
(0.974812 -0.054122 0)
(0.905156 0.038425 0)
(0.925633 -0.00955189 0)
(0.950109 -0.0247981 0)
(0.921419 0.0272177 0)
(0.923677 -0.0161798 0)
(0.95596 -0.00535482 0)
(0.909781 0.0278098 0)
(0.937314 -0.0263888 0)
(0.946696 -0.00374089 0)
(0.908916 0.0225987 0)
(0.948896 -0.0302694 0)
(0.934944 0.0123551 0)
(0.917093 0.00400066 0)
(0.955873 -0.025816 0)
(0.917838 0.0111825 0)
(0.943866 -0.0148262 0)
(0.995879 -0.0288116 0)
(0.983898 0.0545904 0)
(0.947748 0.00367288 0)
(1.00106 -0.0615068 0)
(0.954826 0.0461431 0)
(0.966926 -0.0115827 0)
(0.980326 -0.0283251 0)
(0.965999 0.0323623 0)
(0.961664 -0.0192358 0)
(0.987072 -0.00647368 0)
(0.955226 0.0326211 0)
(0.97201 -0.0307007 0)
(0.980319 -0.00306111 0)
(0.952273 0.0254981 0)
(0.981828 -0.0343329 0)
(0.968109 0.0142688 0)
(0.961742 0.00534733 0)
(0.982056 -0.0295351 0)
(0.959156 0.0149661 0)
(0.974908 -0.0173273 0)
(1.00436 -0.0313474 0)
(0.998565 0.0588809 0)
(0.988878 0.00505337 0)
(1.00487 -0.0652103 0)
(0.98476 0.0511305 0)
(0.990993 -0.0119208 0)
(0.990954 -0.0303076 0)
(0.991173 0.0353096 0)
(0.982165 -0.0207109 0)
(0.998059 -0.00720088 0)
(0.981413 0.0356708 0)
(0.989735 -0.0331953 0)
(0.993249 -0.00230456 0)
(0.978386 0.0267203 0)
(0.996258 -0.0360182 0)
(0.981174 0.0152429 0)
(0.988402 0.00605122 0)
(0.988772 -0.0312062 0)
(0.980516 0.0169144 0)
(0.989555 -0.0179488 0)
(0.993653 -0.0315711 0)
(0.990709 0.059538 0)
(1.01013 0.00563982 0)
(0.987425 -0.0643916 0)
(0.995185 0.052213 0)
(0.996011 -0.0109208 0)
(0.982253 -0.0300498 0)
(0.997117 0.035647 0)
(0.984094 -0.0204102 0)
(0.989841 -0.00721257 0)
(0.988171 0.0363373 0)
(0.989688 -0.0335582 0)
(0.985849 -0.00126889 0)
(0.987018 0.0259554 0)
(0.991209 -0.0349949 0)
(0.975397 0.0151731 0)
(0.996246 0.00600047 0)
(0.976493 -0.0304442 0)
(0.98287 0.0166559 0)
(0.986742 -0.0169594 0)
(0.962757 -0.0293771 0)
(0.963642 0.0564428 0)
(1.00996 0.00524122 0)
(0.949838 -0.0592546 0)
(0.986413 0.0488036 0)
(0.980462 -0.0089791 0)
(0.954658 -0.0278746 0)
(0.98357 0.0331921 0)
(0.966773 -0.0185892 0)
(0.962688 -0.00646606 0)
(0.975796 0.0343975 0)
(0.970821 -0.031674 0)
(0.958405 -0.000234508 0)
(0.97795 0.0232927 0)
(0.965172 -0.0314504 0)
(0.952508 0.0139253 0)
(0.984028 0.00535698 0)
(0.945773 -0.0274435 0)
(0.967793 0.0142976 0)
(0.964801 -0.0148486 0)
(0.910486 -0.0250793 0)
(0.921697 0.0498356 0)
(0.986447 0.00429895 0)
(0.893366 -0.0508734 0)
(0.958828 0.0416069 0)
(0.942445 -0.00633929 0)
(0.908825 -0.0242964 0)
(0.950308 0.0283505 0)
(0.929593 -0.015608 0)
(0.916781 -0.0052834 0)
(0.945037 0.030108 0)
(0.93115 -0.0277296 0)
(0.912369 0.000342053 0)
(0.950315 0.0193325 0)
(0.917243 -0.0259533 0)
(0.915411 0.0113752 0)
(0.95013 0.00444859 0)
(0.898753 -0.0232209 0)
(0.935988 0.0105234 0)
(0.922727 -0.0120075 0)
(0.836297 -0.0193907 0)
(0.870923 0.040021 0)
(0.93621 0.00362274 0)
(0.82008 -0.0407163 0)
(0.912848 0.0319517 0)
(0.880129 -0.00294935 0)
(0.846654 -0.0201212 0)
(0.898487 0.0219725 0)
(0.871848 -0.0116059 0)
(0.853742 -0.00411809 0)
(0.896692 0.0242864 0)
(0.868536 -0.0221519 0)
(0.852022 -3.84823e-05 0)
(0.902478 0.0149605 0)
(0.849516 -0.0194518 0)
(0.866856 0.00754049 0)
(0.893503 0.0038966 0)
(0.838601 -0.0188805 0)
(0.885675 0.00635705 0)
(0.86111 -0.00880498 0)
(0.743714 -0.0136726 0)
(0.814206 0.0278489 0)
(0.852656 0.0046309 0)
(0.734556 -0.0308864 0)
(0.847873 0.0212814 0)
(0.793203 0.00122333 0)
(0.772262 -0.016978 0)
(0.828815 0.0149814 0)
(0.79206 -0.00683562 0)
(0.776744 -0.00364424 0)
(0.829109 0.0182866 0)
(0.783263 -0.0156596 0)
(0.782606 -0.00192433 0)
(0.831684 0.0111581 0)
(0.766606 -0.0132746 0)
(0.804721 0.0029579 0)
(0.813129 0.00408562 0)
(0.765391 -0.0150725 0)
(0.812891 0.00279803 0)
(0.780864 -0.00560775 0)
(0.64253 -0.0098696 0)
(0.737316 0.0163799 0)
(0.730958 0.00824214 0)
(0.644683 -0.0238883 0)
(0.756122 0.0118101 0)
(0.684704 0.00541444 0)
(0.686506 -0.0156183 0)
(0.733164 0.00939947 0)
(0.688632 -0.00189417 0)
(0.686511 -0.00436164 0)
(0.735879 0.0135176 0)
(0.679611 -0.00972842 0)
(0.701401 -0.00496943 0)
(0.731319 0.00888669 0)
(0.6702 -0.00851809 0)
(0.718617 -0.000880865 0)
(0.707215 0.00503233 0)
(0.67523 -0.0120144 0)
(0.713958 0.000409521 0)
(0.681303 -0.00284274 0)
(0.535296 -0.00834769 0)
(0.616045 0.00977262 0)
(0.587855 0.0114716 0)
(0.548482 -0.0198265 0)
(0.624356 0.00640696 0)
(0.561802 0.00801138 0)
(0.578143 -0.0143432 0)
(0.602267 0.00694806 0)
(0.566637 0.00145624 0)
(0.576808 -0.00550682 0)
(0.610541 0.0104439 0)
(0.561667 -0.00570016 0)
(0.592558 -0.00686162 0)
(0.597243 0.0083668 0)
(0.558463 -0.00557722 0)
(0.59833 -0.0027881 0)
(0.578786 0.00584321 0)
(0.563632 -0.00968402 0)
(0.586985 -0.00061716 0)
(0.56063 -0.000846763 0)
(0.407981 -0.00671703 0)
(0.457485 0.00654232 0)
(0.443759 0.0103986 0)
(0.424972 -0.0150175 0)
(0.460126 0.00411475 0)
(0.428834 0.00741387 0)
(0.438146 -0.0112302 0)
(0.447048 0.0053928 0)
(0.430138 0.00207186 0)
(0.438638 -0.00523395 0)
(0.457792 0.00789916 0)
(0.427863 -0.0033519 0)
(0.447622 -0.00611972 0)
(0.442613 0.00723355 0)
(0.427664 -0.00398628 0)
(0.446436 -0.00273983 0)
(0.434562 0.00518155 0)
(0.426464 -0.00719539 0)
(0.435671 -0.000672234 0)
(0.41941 0.000238469 0)
(0.255043 -0.00406864 0)
(0.281187 0.00341083 0)
(0.288705 0.00694735 0)
(0.271801 -0.00871494 0)
(0.281784 0.00158222 0)
(0.278309 0.00533326 0)
(0.274331 -0.00677807 0)
(0.277635 0.00285116 0)
(0.27493 0.00178228 0)
(0.275586 -0.00375279 0)
(0.287741 0.00476797 0)
(0.275097 -0.00144013 0)
(0.277834 -0.00423524 0)
(0.276988 0.00454264 0)
(0.27329 -0.00223715 0)
(0.275127 -0.00207091 0)
(0.274595 0.00345626 0)
(0.266746 -0.00410827 0)
(0.267466 -0.0006838 0)
(0.259991 0.000983097 0)
(0.0822154 -0.0012268 0)
(0.0912061 0.000995965 0)
(0.110918 0.00224169 0)
(0.0984994 -0.00268808 0)
(0.0918623 0.000226032 0)
(0.104497 0.00188175 0)
(0.0968604 -0.00216374 0)
(0.0939912 0.000785612 0)
(0.099775 0.000696822 0)
(0.0948987 -0.00132281 0)
(0.101313 0.00149622 0)
(0.102388 -0.000372524 0)
(0.0941049 -0.0014658 0)
(0.0965906 0.00144834 0)
(0.0984714 -0.000699625 0)
(0.0923386 -0.000779472 0)
(0.0965961 0.00118726 0)
(0.0925596 -0.00123575 0)
(0.0877855 -0.000259464 0)
(0.0878878 0.000626758 0)
(0.179052 -0.0126785 0)
(0.182396 0.00753609 0)
(0.0808186 -0.0117301 0)
(0.385644 -0.026004 0)
(-0.0546565 0.0165592 0)
(0.381739 -0.016344 0)
(0.320412 0.023808 0)
(0.272106 -0.0187984 0)
(0.525355 -0.0507101 0)
(0.311167 0.00306335 0)
(0.575517 -0.0780265 0)
(0.561234 -0.0704466 0)
(0.453172 -0.0412806 0)
(0.542343 -0.068625 0)
(0.681616 -0.0981469 0)
(0.567259 -0.00502533 0)
(0.757061 -0.0619073 0)
(0.948256 -0.219169 0)
(0.849422 -0.190574 0)
(0.834737 -0.152256 0)
(0.859215 -0.217959 0)
(0.747055 -0.285099 0)
(0.490162 -0.201244 0)
(0.402139 -0.106041 0)
(0.268614 -0.278791 0)
(0.391495 -0.304179 0)
(0.500073 -0.119029 0)
(0.519571 0.0072009 0)
(0.473736 0.0990538 0)
(0.60969 0.267843 0)
(0.671204 0.368045 0)
(0.660457 0.331596 0)
(0.629085 0.321524 0)
(0.55301 0.277981 0)
(0.522705 0.0667597 0)
(0.535934 -0.0893856 0)
(0.498716 -0.160446 0)
(0.421834 -0.271132 0)
(0.421222 -0.301253 0)
(0.438738 -0.21215 0)
(0.477412 -0.0434844 0)
(0.548771 0.15837 0)
(0.545793 0.239266 0)
(0.531329 0.213852 0)
(0.460957 0.215317 0)
(0.477971 0.179444 0)
(0.497676 0.10855 0)
(0.504134 0.00280042 0)
(0.569664 -0.148248 0)
(0.58527 -0.233779 0)
(0.542379 -0.208454 0)
(0.495818 -0.0868577 0)
(0.495231 0.0477283 0)
(0.526103 0.105367 0)
(0.521884 0.102228 0)
(0.517432 0.0395163 0)
(0.537758 -0.0608665 0)
(0.539315 -0.126981 0)
(0.516329 -0.131994 0)
(0.507752 -0.0684577 0)
(0.530735 0.0347796 0)
(0.542817 0.100431 0)
(0.530128 0.104668 0)
(0.504901 0.0781124 0)
(0.485605 0.0434738 0)
(0.482039 0.00806615 0)
(0.486286 -0.0181793 0)
(0.488203 -0.0283514 0)
(0.484867 -0.0254679 0)
(0.477124 -0.0173577 0)
(0.466715 -0.00987214 0)
(0.455515 -0.00505715 0)
(0.444995 -0.00260517 0)
(0.435979 -0.00156529 0)
(0.428756 -0.0011699 0)
(0.423279 -0.000993555 0)
(0.419321 -0.000857174 0)
(0.416585 -0.000710813 0)
(0.414772 -0.000556883 0)
(0.413619 -0.000411153 0)
(0.412913 -0.000286679 0)
(0.412497 -0.000189352 0)
(0.412261 -0.000118867 0)
(0.412132 -7.11228e-05 0)
(0.412064 -4.06677e-05 0)
(0.412028 -2.22787e-05 0)
(0.412011 -1.17114e-05 0)
(0.412003 -5.92208e-06 0)
(0.411999 -2.88593e-06 0)
(0.411997 -1.35698e-06 0)
(0.411996 -6.16694e-07 0)
(0.411996 -2.72891e-07 0)
(0.411996 -1.15615e-07 0)
(0.411996 -4.58092e-08 0)
(0.411996 -1.96396e-08 0)
(0.411996 -7.72671e-09 0)
(0.411996 1.25612e-10 0)
(0.411996 -1.34232e-09 0)
(0.411996 3.79215e-10 0)
(0.411996 5.55695e-10 0)
(0.309344 -0.0213627 0)
(0.371368 0.0149319 0)
(0.20445 -0.0227232 0)
(0.539134 -0.0258787 0)
(0.169621 0.0236685 0)
(0.44136 -0.0406927 0)
(0.435447 0.0171599 0)
(0.391645 -0.0249555 0)
(0.640311 -0.067457 0)
(0.444985 -0.00194404 0)
(0.668198 -0.088945 0)
(0.672279 -0.0749739 0)
(0.553633 -0.0310833 0)
(0.639159 -0.0797026 0)
(0.768579 -0.118633 0)
(0.669383 -0.0201131 0)
(0.850993 -0.0724537 0)
(0.998483 -0.222182 0)
(0.882519 -0.194325 0)
(0.854846 -0.145351 0)
(0.850791 -0.202544 0)
(0.715293 -0.25739 0)
(0.447827 -0.165022 0)
(0.366921 -0.0901059 0)
(0.236287 -0.287142 0)
(0.347769 -0.316063 0)
(0.444156 -0.127339 0)
(0.47888 0.0045551 0)
(0.422636 0.0949749 0)
(0.54931 0.25416 0)
(0.619339 0.359362 0)
(0.628757 0.330317 0)
(0.624403 0.327612 0)
(0.557587 0.287472 0)
(0.530172 0.0717612 0)
(0.545585 -0.0863669 0)
(0.506802 -0.153557 0)
(0.420356 -0.265784 0)
(0.406248 -0.302951 0)
(0.418303 -0.213933 0)
(0.452196 -0.0479487 0)
(0.518708 0.153039 0)
(0.526541 0.237422 0)
(0.52605 0.218061 0)
(0.46574 0.217984 0)
(0.495558 0.176341 0)
(0.512777 0.107863 0)
(0.527334 -0.000648233 0)
(0.593953 -0.153504 0)
(0.595613 -0.233189 0)
(0.542255 -0.201771 0)
(0.488656 -0.0821173 0)
(0.487933 0.0458482 0)
(0.521034 0.102953 0)
(0.518696 0.1026 0)
(0.52085 0.0386764 0)
(0.539471 -0.0621347 0)
(0.532882 -0.126071 0)
(0.50469 -0.129476 0)
(0.492301 -0.0679581 0)
(0.513823 0.0329061 0)
(0.529427 0.0994828 0)
(0.522647 0.106213 0)
(0.503375 0.0806688 0)
(0.489266 0.0449679 0)
(0.489028 0.00808544 0)
(0.493874 -0.0185363 0)
(0.494346 -0.0282008 0)
(0.488957 -0.0246659 0)
(0.479543 -0.0161207 0)
(0.468115 -0.00845637 0)
(0.456401 -0.0036644 0)
(0.445641 -0.0013657 0)
(0.436503 -0.000541127 0)
(0.429198 -0.000372683 0)
(0.42365 -0.000403654 0)
(0.419622 -0.00043982 0)
(0.416816 -0.000427652 0)
(0.414937 -0.000372287 0)
(0.413726 -0.000295364 0)
(0.412973 -0.00021671 0)
(0.412522 -0.000148576 0)
(0.412261 -9.59249e-05 0)
(0.412115 -5.86487e-05 0)
(0.412036 -3.41056e-05 0)
(0.411995 -1.89347e-05 0)
(0.411974 -1.00594e-05 0)
(0.411964 -5.13022e-06 0)
(0.411959 -2.51708e-06 0)
(0.411957 -1.18984e-06 0)
(0.411955 -5.43479e-07 0)
(0.411955 -2.41032e-07 0)
(0.411955 -1.02916e-07 0)
(0.411955 -4.09729e-08 0)
(0.411955 -1.68555e-08 0)
(0.411955 -6.11348e-09 0)
(0.411955 -1.67681e-09 0)
(0.411955 -9.44191e-11 0)
(0.411955 -2.31298e-10 0)
(0.411955 6.71468e-10 0)
(0.444226 -0.0280975 0)
(0.538149 0.0150543 0)
(0.399582 -0.0209577 0)
(0.643384 -0.0354703 0)
(0.399621 0.0315288 0)
(0.562608 -0.0442151 0)
(0.579098 0.00653024 0)
(0.530578 -0.0274191 0)
(0.744665 -0.0812557 0)
(0.583689 -0.00519916 0)
(0.740437 -0.0962207 0)
(0.761031 -0.0828992 0)
(0.653989 -0.0201733 0)
(0.737758 -0.0850906 0)
(0.839418 -0.140187 0)
(0.761218 -0.0353526 0)
(0.926145 -0.0795446 0)
(1.02784 -0.220088 0)
(0.897892 -0.193869 0)
(0.861529 -0.136399 0)
(0.830471 -0.183833 0)
(0.675041 -0.226186 0)
(0.402053 -0.128791 0)
(0.334163 -0.0750155 0)
(0.203843 -0.293498 0)
(0.292629 -0.325721 0)
(0.38216 -0.135529 0)
(0.427213 0.00126954 0)
(0.369808 0.0923593 0)
(0.489636 0.24035 0)
(0.563764 0.347694 0)
(0.591563 0.325529 0)
(0.613691 0.331138 0)
(0.557031 0.294935 0)
(0.534883 0.0758042 0)
(0.552454 -0.0829657 0)
(0.512545 -0.145885 0)
(0.417051 -0.258806 0)
(0.389357 -0.303039 0)
(0.395392 -0.21489 0)
(0.424313 -0.0517158 0)
(0.485688 0.147227 0)
(0.50422 0.233538 0)
(0.516847 0.220526 0)
(0.467686 0.218862 0)
(0.510164 0.172474 0)
(0.524619 0.106742 0)
(0.548415 -0.0048515 0)
(0.614774 -0.157919 0)
(0.601295 -0.230778 0)
(0.537672 -0.193618 0)
(0.478737 -0.0767911 0)
(0.478276 0.0437338 0)
(0.512321 0.100235 0)
(0.511987 0.102292 0)
(0.520972 0.0374329 0)
(0.537264 -0.0627566 0)
(0.522535 -0.124216 0)
(0.489475 -0.126307 0)
(0.473775 -0.066959 0)
(0.493717 0.0309477 0)
(0.512569 0.0978566 0)
(0.511677 0.106903 0)
(0.498595 0.0824558 0)
(0.490027 0.0458725 0)
(0.49328 0.00784369 0)
(0.498642 -0.0188262 0)
(0.497548 -0.0278107 0)
(0.490092 -0.0236239 0)
(0.479128 -0.0147252 0)
(0.46693 -0.00696489 0)
(0.455042 -0.00224758 0)
(0.444427 -0.000127559 0)
(0.435551 0.000472928 0)
(0.428517 0.000414053 0)
(0.423197 0.000178736 0)
(0.419336 -2.64613e-05 0)
(0.416639 -0.000145463 0)
(0.414822 -0.00018664 0)
(0.413639 -0.000177539 0)
(0.412895 -0.000144511 0)
(0.412442 -0.000105842 0)
(0.412177 -7.14753e-05 0)
(0.412026 -4.51201e-05 0)
(0.411943 -2.68608e-05 0)
(0.411899 -1.51766e-05 0)
(0.411876 -8.17028e-06 0)
(0.411865 -4.20863e-06 0)
(0.411859 -2.08017e-06 0)
(0.411856 -9.88706e-07 0)
(0.411855 -4.54419e-07 0)
(0.411855 -2.01699e-07 0)
(0.411855 -8.6183e-08 0)
(0.411854 -3.44033e-08 0)
(0.411854 -1.40181e-08 0)
(0.411854 -4.34302e-09 0)
(0.411854 -2.41983e-09 0)
(0.411854 6.02188e-11 0)
(0.411854 2.4273e-10 0)
(0.411854 7.05788e-10 0)
(0.586438 -0.0276382 0)
(0.663449 0.00756439 0)
(0.570566 -0.0167847 0)
(0.727831 -0.0431833 0)
(0.57719 0.0317754 0)
(0.67439 -0.0432015 0)
(0.712418 -0.00646166 0)
(0.660664 -0.0281696 0)
(0.823356 -0.0922117 0)
(0.708078 -0.00947319 0)
(0.811623 -0.0966416 0)
(0.833966 -0.0916848 0)
(0.740011 -0.0117409 0)
(0.822953 -0.0864936 0)
(0.893842 -0.158502 0)
(0.827086 -0.0500539 0)
(0.973909 -0.0835838 0)
(1.03585 -0.213293 0)
(0.898289 -0.189766 0)
(0.856285 -0.125936 0)
(0.798344 -0.162375 0)
(0.626757 -0.192526 0)
(0.354237 -0.0931895 0)
(0.300712 -0.0608448 0)
(0.169465 -0.29651 0)
(0.226414 -0.332586 0)
(0.314462 -0.143297 0)
(0.364893 -0.00291535 0)
(0.313402 0.0904124 0)
(0.430007 0.227122 0)
(0.504844 0.334209 0)
(0.549707 0.317992 0)
(0.597481 0.332414 0)
(0.551346 0.300178 0)
(0.537227 0.0791205 0)
(0.556722 -0.079125 0)
(0.516047 -0.137346 0)
(0.412396 -0.250113 0)
(0.370727 -0.301433 0)
(0.370136 -0.214802 0)
(0.39375 -0.0546924 0)
(0.449763 0.140986 0)
(0.479122 0.227836 0)
(0.503691 0.221313 0)
(0.466871 0.217913 0)
(0.521597 0.167849 0)
(0.533201 0.105179 0)
(0.567226 -0.00978615 0)
(0.631709 -0.161324 0)
(0.602123 -0.226462 0)
(0.528623 -0.184184 0)
(0.466288 -0.0710885 0)
(0.46646 0.0414622 0)
(0.500075 0.0973318 0)
(0.50199 0.10128 0)
(0.517851 0.0357216 0)
(0.53119 -0.0627075 0)
(0.508491 -0.121434 0)
(0.470901 -0.122502 0)
(0.452352 -0.0655644 0)
(0.470632 0.0289159 0)
(0.492428 0.0955831 0)
(0.497337 0.106735 0)
(0.49061 0.0834282 0)
(0.487876 0.0461605 0)
(0.494722 0.00735616 0)
(0.500467 -0.0190251 0)
(0.497689 -0.0271695 0)
(0.488187 -0.0223497 0)
(0.475838 -0.0131963 0)
(0.463146 -0.00543482 0)
(0.451432 -0.000850137 0)
(0.441345 0.00106072 0)
(0.433113 0.00143105 0)
(0.426696 0.00115018 0)
(0.421898 0.000720758 0)
(0.418437 0.000357605 0)
(0.416023 0.000117333 0)
(0.414389 -1.26963e-05 0)
(0.413317 -6.61018e-05 0)
(0.412636 -7.5411e-05 0)
(0.412216 -6.43796e-05 0)
(0.411966 -4.74043e-05 0)
(0.411821 -3.15986e-05 0)
(0.41174 -1.95093e-05 0)
(0.411697 -1.13066e-05 0)
(0.411674 -6.19627e-06 0)
(0.411663 -3.23294e-06 0)
(0.411657 -1.61321e-06 0)
(0.411654 -7.70558e-07 0)
(0.411653 -3.55577e-07 0)
(0.411653 -1.58816e-07 0)
(0.411652 -6.78205e-08 0)
(0.411652 -2.77244e-08 0)
(0.411652 -1.12869e-08 0)
(0.411652 -3.13843e-09 0)
(0.411652 -9.59935e-10 0)
(0.411652 -1.26008e-09 0)
(0.411652 7.27465e-10 0)
(0.411652 6.24274e-10 0)
(0.708632 -0.0248125 0)
(0.763506 -0.000856325 0)
(0.70166 -0.0121263 0)
(0.801584 -0.0470517 0)
(0.71048 0.0260322 0)
(0.768397 -0.039659 0)
(0.811929 -0.0196913 0)
(0.768943 -0.0268591 0)
(0.883022 -0.0976776 0)
(0.801801 -0.0149106 0)
(0.873559 -0.0937263 0)
(0.888799 -0.100397 0)
(0.805535 -0.00670723 0)
(0.889191 -0.085378 0)
(0.928885 -0.172409 0)
(0.863366 -0.0639625 0)
(0.995664 -0.0855811 0)
(1.02561 -0.203064 0)
(0.885653 -0.182344 0)
(0.837815 -0.114378 0)
(0.753488 -0.138846 0)
(0.571139 -0.157264 0)
(0.306186 -0.0589189 0)
(0.266528 -0.0479683 0)
(0.133319 -0.294283 0)
(0.152381 -0.337882 0)
(0.242181 -0.15068 0)
(0.293449 -0.00816843 0)
(0.253565 0.087849 0)
(0.371117 0.213397 0)
(0.443984 0.318741 0)
(0.504523 0.307571 0)
(0.576518 0.331041 0)
(0.540651 0.302535 0)
(0.537451 0.0814958 0)
(0.558538 -0.0748843 0)
(0.517263 -0.128108 0)
(0.406627 -0.239943 0)
(0.350456 -0.298154 0)
(0.34262 -0.213727 0)
(0.360525 -0.0566302 0)
(0.411055 0.134285 0)
(0.451642 0.220341 0)
(0.48663 0.220324 0)
(0.463412 0.214972 0)
(0.529645 0.162569 0)
(0.538534 0.102975 0)
(0.583659 -0.0154575 0)
(0.644359 -0.163521 0)
(0.597951 -0.220183 0)
(0.515162 -0.173662 0)
(0.451528 -0.0652264 0)
(0.45262 0.039146 0)
(0.484413 0.0943394 0)
(0.489015 0.0994812 0)
(0.5116 0.0337039 0)
(0.521344 -0.0618908 0)
(0.490995 -0.117765 0)
(0.449226 -0.118177 0)
(0.42821 -0.0638066 0)
(0.444792 0.0268362 0)
(0.469216 0.0927069 0)
(0.479782 0.105711 0)
(0.479512 0.0835501 0)
(0.482863 0.0458114 0)
(0.493328 0.0066203 0)
(0.499264 -0.0191195 0)
(0.49469 -0.0262744 0)
(0.483213 -0.020859 0)
(0.469694 -0.0115639 0)
(0.456812 -0.00390594 0)
(0.445631 0.000473914 0)
(0.436451 0.00215159 0)
(0.42923 0.00228947 0)
(0.42376 0.00179765 0)
(0.419755 0.00119123 0)
(0.416905 0.00068859 0)
(0.414927 0.00034355 0)
(0.413587 0.000137705 0)
(0.412699 3.11314e-05 0)
(0.412127 -1.43669e-05 0)
(0.411769 -2.72151e-05 0)
(0.411552 -2.54928e-05 0)
(0.411424 -1.90964e-05 0)
(0.411352 -1.26079e-05 0)
(0.411312 -7.62183e-06 0)
(0.411291 -4.29185e-06 0)
(0.41128 -2.28025e-06 0)
(0.411275 -1.15173e-06 0)
(0.411272 -5.52948e-07 0)
(0.411271 -2.56485e-07 0)
(0.411271 -1.15366e-07 0)
(0.41127 -4.87494e-08 0)
(0.41127 -2.02228e-08 0)
(0.41127 -7.87439e-09 0)
(0.41127 -1.7958e-09 0)
(0.41127 -9.72974e-10 0)
(0.41127 -1.05467e-09 0)
(0.41127 7.93661e-10 0)
(0.41127 6.53784e-10 0)
(0.804699 -0.021521 0)
(0.841149 -0.00809482 0)
(0.801364 -0.00830358 0)
(0.865122 -0.0458552 0)
(0.808077 0.0169988 0)
(0.848024 -0.0353355 0)
(0.881988 -0.0302447 0)
(0.852528 -0.0273753 0)
(0.931677 -0.0990393 0)
(0.868159 -0.0206619 0)
(0.925076 -0.0890139 0)
(0.925397 -0.107169 0)
(0.850259 -0.00324695 0)
(0.936031 -0.0823846 0)
(0.94371 -0.18081 0)
(0.874885 -0.0754234 0)
(0.996591 -0.0860344 0)
(0.999739 -0.190073 0)
(0.860182 -0.171627 0)
(0.804586 -0.101472 0)
(0.696405 -0.113593 0)
(0.509717 -0.12145 0)
(0.258837 -0.0269023 0)
(0.232381 -0.0361744 0)
(0.0958663 -0.286427 0)
(0.0756877 -0.342918 0)
(0.167778 -0.1579 0)
(0.215665 -0.0142412 0)
(0.191182 0.0844192 0)
(0.311598 0.199994 0)
(0.381048 0.302488 0)
(0.45695 0.295402 0)
(0.551252 0.32751 0)
(0.525209 0.302206 0)
(0.535754 0.0825704 0)
(0.558081 -0.0703401 0)
(0.516346 -0.118193 0)
(0.400208 -0.228295 0)
(0.328818 -0.293099 0)
(0.312904 -0.211567 0)
(0.324609 -0.0577976 0)
(0.369625 0.127183 0)
(0.422092 0.211347 0)
(0.465707 0.217643 0)
(0.457536 0.21005 0)
(0.534106 0.156719 0)
(0.5407 0.100011 0)
(0.59764 -0.0217315 0)
(0.652357 -0.16431 0)
(0.588682 -0.211919 0)
(0.497396 -0.16228 0)
(0.434591 -0.0594001 0)
(0.436745 0.0368983 0)
(0.465445 0.091309 0)
(0.473429 0.0969181 0)
(0.502345 0.0313338 0)
(0.507905 -0.0603428 0)
(0.470352 -0.113271 0)
(0.424735 -0.11338 0)
(0.401534 -0.0617112 0)
(0.416415 0.0247415 0)
(0.44316 0.0892791 0)
(0.459196 0.103836 0)
(0.46544 0.0828007 0)
(0.475091 0.0448088 0)
(0.489106 0.00564745 0)
(0.494976 -0.0190863 0)
(0.48852 -0.0251239 0)
(0.475206 -0.019174 0)
(0.460789 -0.00986406 0)
(0.448055 -0.00242214 0)
(0.437772 0.0016804 0)
(0.429866 0.00310058 0)
(0.423996 0.00300667 0)
(0.419762 0.00232124 0)
(0.41678 0.00156257 0)
(0.414713 0.000946038 0)
(0.413294 0.000518718 0)
(0.412328 0.000254737 0)
(0.41168 0.000107719 0)
(0.411253 3.45347e-05 0)
(0.410979 3.13565e-06 0)
(0.410809 -7.23856e-06 0)
(0.410706 -8.47774e-06 0)
(0.410647 -6.64011e-06 0)
(0.410613 -4.38359e-06 0)
(0.410595 -2.59396e-06 0)
(0.410586 -1.42011e-06 0)
(0.410581 -7.30765e-07 0)
(0.410579 -3.52903e-07 0)
(0.410578 -1.64705e-07 0)
(0.410578 -7.45437e-08 0)
(0.410577 -3.08696e-08 0)
(0.410577 -1.3056e-08 0)
(0.410577 -4.82613e-09 0)
(0.410577 -3.58009e-10 0)
(0.410577 -8.58102e-10 0)
(0.410577 -1.06746e-09 0)
(0.410577 7.67756e-10 0)
(0.410577 6.09263e-10 0)
(0.878637 -0.0187566 0)
(0.899885 -0.0128027 0)
(0.876163 -0.00781788 0)
(0.916704 -0.041188 0)
(0.878 0.00718469 0)
(0.911443 -0.0312635 0)
(0.929833 -0.0359044 0)
(0.915441 -0.0305532 0)
(0.967244 -0.09753 0)
(0.911375 -0.0257864 0)
(0.963272 -0.0841914 0)
(0.943316 -0.110485 0)
(0.875464 -0.00117161 0)
(0.963469 -0.0791491 0)
(0.937965 -0.183934 0)
(0.867614 -0.0848122 0)
(0.981756 -0.0856476 0)
(0.959439 -0.174981 0)
(0.821289 -0.157643 0)
(0.756055 -0.086803 0)
(0.627894 -0.0872293 0)
(0.443935 -0.0862004 0)
(0.213338 0.00216413 0)
(0.200093 -0.0243485 0)
(0.0595327 -0.274853 0)
(0.00284749 -0.346014 0)
(0.0956422 -0.165199 0)
(0.135304 -0.0206355 0)
(0.129266 0.0787718 0)
(0.252803 0.185552 0)
(0.317508 0.284784 0)
(0.40849 0.281089 0)
(0.522457 0.32098 0)
(0.505662 0.298919 0)
(0.532305 0.0821126 0)
(0.555458 -0.0655173 0)
(0.513358 -0.107673 0)
(0.393419 -0.215387 0)
(0.305942 -0.286182 0)
(0.28108 -0.208248 0)
(0.285938 -0.0581858 0)
(0.325818 0.119479 0)
(0.390878 0.200833 0)
(0.440988 0.213159 0)
(0.44948 0.203064 0)
(0.534754 0.150408 0)
(0.539871 0.0961115 0)
(0.609124 -0.0285365 0)
(0.655357 -0.163508 0)
(0.574277 -0.201691 0)
(0.475476 -0.150277 0)
(0.415452 -0.0537849 0)
(0.418607 0.0348092 0)
(0.443277 0.0882549 0)
(0.455614 0.0935593 0)
(0.490211 0.028852 0)
(0.491099 -0.0580206 0)
(0.446907 -0.107987 0)
(0.397728 -0.108167 0)
(0.372504 -0.059347 0)
(0.385703 0.0226469 0)
(0.414497 0.0853456 0)
(0.435787 0.101134 0)
(0.44858 0.0811532 0)
(0.464723 0.0431493 0)
(0.482087 0.00446894 0)
(0.487574 -0.0188983 0)
(0.479204 -0.0237235 0)
(0.464276 -0.0173248 0)
(0.449301 -0.00814007 0)
(0.437084 -0.0010335 0)
(0.428063 0.00273086 0)
(0.421769 0.0038653 0)
(0.417541 0.00354604 0)
(0.414772 0.00269194 0)
(0.412979 0.00181333 0)
(0.411805 0.00111493 0)
(0.411016 0.000632734 0)
(0.410472 0.000331775 0)
(0.410091 0.000159396 0)
(0.409828 6.85952e-05 0)
(0.40965 2.49945e-05 0)
(0.409533 6.33462e-06 0)
(0.40946 -3.51819e-07 0)
(0.409417 -1.95652e-06 0)
(0.409392 -1.78737e-06 0)
(0.409378 -1.20831e-06 0)
(0.40937 -7.08028e-07 0)
(0.409367 -3.78339e-07 0)
(0.409365 -1.83875e-07 0)
(0.409364 -8.6554e-08 0)
(0.409364 -3.96133e-08 0)
(0.409363 -1.55273e-08 0)
(0.409363 -6.806e-09 0)
(0.409363 -2.14365e-09 0)
(0.409363 7.04249e-10 0)
(0.409363 -7.22529e-10 0)
(0.409363 -1.00832e-09 0)
(0.409363 8.49298e-10 0)
(0.409363 5.84238e-10 0)
(0.932854 -0.0168628 0)
(0.943004 -0.0142287 0)
(0.929799 -0.0103831 0)
(0.954901 -0.0347343 0)
(0.92618 -0.00251269 0)
(0.956584 -0.0287798 0)
(0.959267 -0.0369595 0)
(0.959184 -0.0353342 0)
(0.987225 -0.0938303 0)
(0.934068 -0.0295547 0)
(0.985648 -0.0795573 0)
(0.942308 -0.109329 0)
(0.882283 -0.000522599 0)
(0.971624 -0.0759958 0)
(0.912707 -0.182369 0)
(0.846638 -0.0924892 0)
(0.952419 -0.0847856 0)
(0.903027 -0.157992 0)
(0.766865 -0.140618 0)
(0.690465 -0.0702859 0)
(0.549092 -0.0604341 0)
(0.376063 -0.0527546 0)
(0.171251 0.0276465 0)
(0.170721 -0.0125406 0)
(0.0275473 -0.26117 0)
(-0.0601984 -0.344601 0)
(0.0311606 -0.173117 0)
(0.0572023 -0.0271061 0)
(0.0697259 0.0714861 0)
(0.192509 0.17178 0)
(0.252723 0.266943 0)
(0.35965 0.265701 0)
(0.489889 0.312148 0)
(0.482441 0.292961 0)
(0.527248 0.0801935 0)
(0.550714 -0.0604598 0)
(0.508513 -0.0965866 0)
(0.386715 -0.201154 0)
(0.282084 -0.2772 0)
(0.247391 -0.20369 0)
(0.244466 -0.0577037 0)
(0.279973 0.111339 0)
(0.358289 0.189171 0)
(0.412563 0.20694 0)
(0.439629 0.194112 0)
(0.531369 0.143729 0)
(0.536361 0.0913068 0)
(0.618065 -0.0355713 0)
(0.653009 -0.160859 0)
(0.554749 -0.189546 0)
(0.449572 -0.137871 0)
(0.393857 -0.048516 0)
(0.397717 0.0329643 0)
(0.418006 0.0851432 0)
(0.435982 0.0893845 0)
(0.475331 0.0263867 0)
(0.471192 -0.0549478 0)
(0.421045 -0.101999 0)
(0.368516 -0.10258 0)
(0.341305 -0.0567594 0)
(0.352846 0.0205514 0)
(0.383469 0.0809469 0)
(0.409776 0.0976233 0)
(0.429178 0.0785999 0)
(0.451969 0.0408291 0)
(0.472309 0.00311928 0)
(0.477067 -0.0185386 0)
(0.46684 -0.0220939 0)
(0.450624 -0.0153545 0)
(0.435496 -0.00644037 0)
(0.424188 0.00021589 0)
(0.416775 0.00357916 0)
(0.41238 0.00440919 0)
(0.410006 0.0038795 0)
(0.408839 0.00289017 0)
(0.408306 0.00193114 0)
(0.408055 0.00118804 0)
(0.407903 0.000681553 0)
(0.407778 0.000366539 0)
(0.407663 0.000184807 0)
(0.40756 8.6946e-05 0)
(0.407477 3.77823e-05 0)
(0.407415 1.48358e-05 0)
(0.407373 5.02301e-06 0)
(0.407345 1.27637e-06 0)
(0.407329 6.44193e-08 0)
(0.407319 -1.94909e-07 0)
(0.407314 -1.77202e-07 0)
(0.407312 -1.11917e-07 0)
(0.40731 -5.47875e-08 0)
(0.40731 -2.65415e-08 0)
(0.407309 -1.27077e-08 0)
(0.407309 -3.60004e-09 0)
(0.407309 -1.92195e-09 0)
(0.407309 -6.35195e-11 0)
(0.407309 1.45608e-09 0)
(0.407309 -6.16405e-10 0)
(0.407309 -8.92095e-10 0)
(0.407309 8.98961e-10 0)
(0.407309 5.37749e-10 0)
(0.966733 -0.0160534 0)
(0.971584 -0.0130743 0)
(0.963451 -0.0143039 0)
(0.977592 -0.0278754 0)
(0.95602 -0.0110255 0)
(0.981793 -0.0280406 0)
(0.972537 -0.0352539 0)
(0.983091 -0.0404496 0)
(0.989155 -0.0883957 0)
(0.938374 -0.0318943 0)
(0.989657 -0.0751083 0)
(0.922979 -0.103431 0)
(0.872684 -0.00153262 0)
(0.960194 -0.0727843 0)
(0.870828 -0.176321 0)
(0.814747 -0.0987298 0)
(0.90582 -0.0832037 0)
(0.828442 -0.138991 0)
(0.695778 -0.120992 0)
(0.608976 -0.05191 0)
(0.463546 -0.0342076 0)