/*--------------------------------*- C++ -*----------------------------------*\
| =========                 |                                                 |
| \\      /  F ield         | OpenFOAM: The Open Source CFD Toolbox           |
|  \\    /   O peration     | Version:  2.4.0                                 |
|   \\  /    A nd           | Web:      www.OpenFOAM.org                      |
|    \\/     M anipulation  |                                                 |
\*---------------------------------------------------------------------------*/
FoamFile
{
    version     2.0;
    format      ascii;
    class       volScalarField;
    location    "1.18";
    object      p;
}
// * * * * * * * * * * * * * * * * * * * * * * * * * * * * * * * * * * * * * //

dimensions      [0 2 -2 0 0 0 0];

internalField   nonuniform List<scalar> 
4400
(
-20.6015
-20.1913
-20.8306
-20.9556
-20.5924
-21.1311
-20.9666
-21.1679
-21.6068
-20.9849
-21.8285
-21.6467
-21.1903
-21.8399
-21.8024
-21.6691
-21.6224
-21.5024
-20.5057
-16.8234
-20.6799
-20.2046
-20.8516
-20.9413
-20.5891
-21.1363
-20.9517
-21.1679
-21.6517
-20.9631
-21.7901
-21.6634
-21.2072
-21.8549
-21.7786
-21.7206
-21.6992
-21.5344
-20.3322
-18.4047
-20.7252
-20.2128
-20.8339
-20.9975
-20.6438
-21.128
-20.9889
-21.165
-21.6457
-20.9837
-21.7648
-21.6756
-21.2276
-21.8805
-21.8157
-21.7709
-21.7266
-21.591
-21.2124
-19.3735
-20.7743
-20.2121
-20.8146
-21.0313
-20.6582
-21.1327
-20.9855
-21.127
-21.6442
-21.0362
-21.7473
-21.7094
-21.2667
-22.0352
-21.8818
-21.7776
-21.7482
-21.6402
-21.2709
-20.2712
-20.8153
-20.215
-20.7649
-21.0598
-20.67
-21.1043
-21.0174
-21.1052
-21.6214
-21.1296
-21.7728
-21.704
-21.3832
-22.2915
-21.9917
-21.8569
-21.8343
-21.748
-21.7165
-21.0375
-20.8495
-20.2205
-20.7318
-21.0958
-20.6766
-21.1384
-21.0362
-21.0753
-21.6348
-21.1953
-21.7445
-21.7304
-21.5075
-22.488
-22.0503
-21.9143
-22.0247
-21.8916
-22.0707
-21.8472
-20.8768
-20.2332
-20.6794
-21.1367
-20.7164
-21.1176
-21.057
-21.0647
-21.6398
-21.2262
-21.6832
-21.7865
-21.6149
-22.5368
-22.0401
-22.0068
-22.2025
-22.0297
-22.471
-22.6369
-20.8949
-20.2439
-20.6253
-21.1621
-20.7173
-21.1039
-21.0769
-21.0492
-21.6353
-21.2456
-21.6077
-21.8348
-21.6475
-22.4591
-22.0166
-22.0573
-22.3157
-22.1769
-22.7736
-23.2699
-20.9081
-20.2589
-20.5708
-21.1711
-20.7302
-21.0736
-21.0906
-21.0448
-21.6222
-21.2416
-21.5468
-21.8786
-21.5807
-22.3178
-22.0069
-22.0443
-22.3746
-22.3193
-22.9414
-23.7248
-20.9256
-20.2728
-20.5086
-21.1887
-20.7325
-21.0515
-21.1166
-21.0247
-21.6032
-21.2539
-21.495
-21.9008
-21.4992
-22.1887
-22.0301
-22.0061
-22.4269
-22.4544
-23.0386
-24.0739
-20.9384
-20.2944
-20.4494
-21.1992
-20.7434
-21.0257
-21.1364
-21.0091
-21.5812
-21.2626
-21.4533
-21.9149
-21.4388
-22.0921
-22.0625
-21.9684
-22.4686
-22.5876
-23.1348
-24.3323
-20.9505
-20.3082
-20.3891
-21.2115
-20.7469
-20.9948
-21.158
-20.9953
-21.5587
-21.2842
-21.4171
-21.9093
-21.4154
-22.0343
-22.0859
-21.9425
-22.5283
-22.7015
-23.2182
-24.599
-20.956
-20.3216
-20.3371
-21.2233
-20.7463
-20.9681
-21.176
-20.9797
-21.542
-21.3016
-21.3822
-21.9032
-21.3986
-21.9873
-22.1246
-21.9174
-22.5837
-22.8136
-23.2997
-24.835
-20.9572
-20.3439
-20.2867
-21.2334
-20.7531
-20.938
-21.1961
-20.9697
-21.5256
-21.3198
-21.3541
-21.8923
-21.3962
-21.9543
-22.1438
-21.9103
-22.6544
-22.8959
-23.3744
-25.0708
-20.9542
-20.3563
-20.243
-21.245
-20.7558
-20.9149
-21.2138
-20.9568
-21.512
-21.3359
-21.3295
-21.8865
-21.398
-21.9281
-22.174
-21.8929
-22.7185
-22.9873
-23.4322
-25.2736
-20.9436
-20.3759
-20.2018
-21.2502
-20.7616
-20.888
-21.2303
-20.948
-21.4977
-21.3509
-21.3113
-21.8764
-21.4103
-21.9087
-22.1842
-21.9103
-22.7691
-23.0389
-23.4951
-25.4513
-20.9274
-20.3869
-20.1705
-21.2558
-20.7672
-20.8613
-21.2431
-20.9426
-21.4861
-21.3627
-21.2995
-21.8714
-21.4153
-21.9036
-22.196
-21.8478
-22.8476
-23.0989
-23.4869
-25.6194
-20.9054
-20.399
-20.145
-21.2597
-20.7716
-20.8435
-21.2568
-20.9362
-21.4759
-21.3778
-21.2856
-21.8625
-21.4379
-21.8953
-22.2001
-21.8696
-22.8761
-23.1318
-23.511
-25.7346
-20.8755
-20.4096
-20.1235
-21.2608
-20.7806
-20.8245
-21.267
-20.9369
-21.4615
-21.3875
-21.2942
-21.8519
-21.4449
-21.9173
-22.1887
-21.8645
-22.9709
-23.1452
-23.4686
-25.8761
-20.8251
-20.4069
-20.1108
-21.2546
-20.779
-20.817
-21.2688
-20.9338
-21.4545
-21.393
-21.2827
-21.847
-21.4573
-21.9106
-22.188
-21.8714
-22.9756
-23.1568
-23.4645
-25.8883
-22.4053
-27.0286
-33.6664
-41.9564
-49.6689
-63.7324
-59.5252
-47.8763
-37.115
-27.46
-17.7407
-9.80898
-4.75743
-1.88242
-0.251251
0.674323
1.13906
1.37017
1.51668
1.62688
1.71478
1.78353
1.83643
1.87088
1.88689
1.88743
1.8778
1.86276
1.84503
1.82598
1.80626
1.78617
1.76584
1.74533
1.72466
1.70383
1.68286
1.66173
1.64046
1.61904
1.59748
1.57576
1.55388
1.53186
1.50968
1.48734
1.46485
1.4422
1.41939
1.39641
1.37328
1.34999
1.32653
1.30291
1.27912
1.25516
1.23104
1.20674
1.18228
1.15764
1.13283
1.10785
1.08269
1.05735
1.03184
1.00614
0.980267
0.954211
0.927972
0.901549
0.87494
0.848145
0.821161
0.793987
0.766622
0.739065
0.711314
0.683368
0.655225
0.626886
0.598346
0.569608
0.540666
0.511523
0.482173
0.452617
0.422856
0.39288
0.362701
0.332301
0.301696
0.270872
0.239827
0.208577
0.177091
0.145395
0.113478
0.0813237
0.0489554
0.0163585
-22.9006
-27.5255
-34.4302
-42.0921
-47.5385
-61.2841
-58.1358
-46.5711
-36.158
-27.174
-17.9534
-10.2851
-5.27233
-2.31497
-0.57711
0.452966
1.00783
1.29286
1.47161
1.59965
1.69791
1.77325
1.82999
1.86708
1.88506
1.88672
1.87758
1.86274
1.8451
1.82607
1.80635
1.78625
1.76591
1.74538
1.72469
1.70385
1.68287
1.66174
1.64047
1.61905
1.59748
1.57576
1.55388
1.53186
1.50968
1.48734
1.46485
1.4422
1.41938
1.39641
1.37328
1.34999
1.32653
1.30291
1.27912
1.25516
1.23104
1.20674
1.18228
1.15764
1.13283
1.10785
1.08269
1.05735
1.03184
1.00614
0.980267
0.954211
0.927972
0.901549
0.874941
0.848144
0.821161
0.793987
0.766622
0.739065
0.711314
0.683368
0.655226
0.626886
0.598346
0.569608
0.540666
0.511523
0.482173
0.452617
0.422855
0.39288
0.362701
0.332301
0.301696
0.270873
0.239826
0.208578
0.177091
0.145396
0.113478
0.0813241
0.048955
0.0163587
-23.4161
-28.0079
-34.5985
-41.3843
-46.0444
-58.8019
-56.4643
-45.1499
-35.0394
-26.788
-18.2159
-10.7801
-5.77334
-2.68066
-0.843523
0.242578
0.871119
1.21319
1.42555
1.5778
1.69433
1.77188
1.82796
1.86548
1.8845
1.88682
1.87786
1.86301
1.84532
1.82624
1.80647
1.78634
1.76597
1.74543
1.72473
1.70388
1.68289
1.66176
1.64048
1.61905
1.59748
1.57576
1.55389
1.53186
1.50968
1.48734
1.46485
1.4422
1.41938
1.39641
1.37328
1.34999
1.32653
1.30291
1.27912
1.25516
1.23104
1.20674
1.18228
1.15764
1.13283
1.10785
1.08269
1.05735
1.03184
1.00614
0.980267
0.954211
0.927972
0.901549
0.87494
0.848144
0.821161
0.793987
0.766622
0.739065
0.711314
0.683368
0.655225
0.626886
0.598346
0.569608
0.540666
0.511523
0.482173
0.452617
0.422855
0.39288
0.362701
0.332301
0.301696
0.270872
0.239826
0.208578
0.177091
0.145396
0.113478
0.0813241
0.048955
0.0163586
-23.9024
-28.4315
-34.2133
-40.8293
-45.0664
-56.2706
-54.5801
-43.7723
-33.9229
-26.3548
-18.4773
-11.3095
-6.29171
-3.08988
-1.091
0.072918
0.741272
1.14372
1.38802
1.54583
1.65871
1.74602
1.81389
1.85832
1.88121
1.88545
1.87732
1.86285
1.84533
1.82631
1.80656
1.78642
1.76604
1.74547
1.72476
1.7039
1.68291
1.66177
1.64049
1.61906
1.59749
1.57576
1.55389
1.53186
1.50968
1.48734
1.46485
1.4422
1.41938
1.39641
1.37328
1.34999
1.32653
1.30291
1.27912
1.25516
1.23104
1.20674
1.18228
1.15764
1.13283
1.10785
1.08269
1.05735
1.03184
1.00614
0.980267
0.954211
0.927972
0.901549
0.87494
0.848144
0.821161
0.793987
0.766622
0.739065
0.711314
0.683368
0.655225
0.626886
0.598346
0.569608
0.540666
0.511523
0.482173
0.452617
0.422855
0.39288
0.362701
0.332301
0.301696
0.270872
0.239827
0.208578
0.177091
0.145396
0.113478
0.0813241
0.048955
0.0163586
-24.2697
-28.9585
-33.8532
-40.2504
-44.3922
-53.7847
-52.4038
-42.2454
-32.9015
-25.9453
-18.7068
-11.8591
-6.76994
-3.46615
-1.34091
-0.0852839
0.631461
1.04718
1.3252
1.5361
1.68235
1.76913
1.8259
1.86389
1.88439
1.88747
1.87853
1.86354
1.84573
1.82656
1.80672
1.78653
1.76611
1.74553
1.7248
1.70393
1.68292
1.66178
1.64049
1.61907
1.59749
1.57576
1.55389
1.53186
1.50968
1.48734
1.46485
1.4422
1.41939
1.39641
1.37328
1.34999
1.32653
1.30291
1.27912
1.25516
1.23104
1.20674
1.18228
1.15764
1.13283
1.10785
1.08269
1.05735
1.03184
1.00614
0.980267
0.954211
0.927972
0.901549
0.87494
0.848144
0.821161
0.793987
0.766622
0.739065
0.711314
0.683368
0.655225
0.626886
0.598346
0.569608
0.540666
0.511523
0.482173
0.452617
0.422855
0.39288
0.362701
0.332301
0.301696
0.270872
0.239827
0.208578
0.177091
0.145396
0.113478
0.0813241
0.048955
0.0163586
-24.6509
-29.3702
-33.7045
-39.6326
-43.6453
-51.2905
-50.0926
-40.6352
-31.9392
-25.5734
-18.8954
-12.3324
-7.28013
-3.83177
-1.55533
-0.223405
0.532383
1.00487
1.29629
1.5049
1.62538
1.71828
1.79809
1.85091
1.87898
1.88539
1.87774
1.86331
1.84572
1.82663
1.8068
1.78661
1.76617
1.74557
1.72483
1.70395
1.68294
1.66179
1.6405
1.61907
1.59749
1.57577
1.55389
1.53186
1.50968
1.48734
1.46485
1.4422
1.41939
1.39641
1.37328
1.34999
1.32653
1.30291
1.27912
1.25516
1.23104
1.20674
1.18228
1.15764
1.13283
1.10785
1.08269
1.05735
1.03184
1.00614
0.980267
0.954211
0.927972
0.901549
0.87494
0.848144
0.821161
0.793987
0.766622
0.739065
0.711314
0.683368
0.655225
0.626886
0.598346
0.569608
0.540666
0.511523
0.482173
0.452617
0.422855
0.39288
0.362701
0.332301
0.301696
0.270872
0.239827
0.208578
0.177091
0.145396
0.113478
0.0813241
0.048955
0.0163585
-25.0218
-29.6379
-33.8044
-38.9155
-42.5323
-48.8278
-47.857
-39.1536
-31.0027
-25.3396
-19.2642
-12.8243
-7.7353
-4.21747
-1.78493
-0.336631
0.452577
0.91113
1.2528
1.48595
1.67356
1.77057
1.82717
1.86422
1.88562
1.88892
1.87952
1.8642
1.8462
1.82691
1.80698
1.78672
1.76625
1.74563
1.72487
1.70398
1.68296
1.6618
1.64051
1.61908
1.5975
1.57577
1.55389
1.53186
1.50968
1.48734
1.46485
1.4422
1.41939
1.39641
1.37328
1.34999
1.32653
1.30291
1.27912
1.25516
1.23104
1.20674
1.18228
1.15764
1.13283
1.10785
1.08269
1.05735
1.03184
1.00614
0.980267
0.954211
0.927972
0.901549
0.87494
0.848144
0.821161
0.793987
0.766622
0.739065
0.711314
0.683368
0.655225
0.626886
0.598346
0.569608
0.540666
0.511523
0.482173
0.452617
0.422855
0.39288
0.362701
0.332301
0.301696
0.270872
0.239827
0.208578
0.177091
0.145396
0.113478
0.0813241
0.0489549
0.0163585
-25.422
-29.728
-33.7139
-38.1129
-41.2327
-46.4783
-45.6333
-37.8142
-30.1444
-25.1201
-19.7127
-13.4445
-8.20051
-4.52643
-2.03302
-0.48048
0.401343
0.902541
1.22985
1.47127
1.60963
1.70385
1.79131
1.84829
1.87999
1.88747
1.87927
1.8643
1.84637
1.82706
1.80709
1.78681
1.76632
1.74567
1.7249
1.704
1.68297
1.66181
1.64052
1.61908
1.5975
1.57577
1.55389
1.53186
1.50968
1.48734
1.46485
1.4422
1.41939
1.39641
1.37328
1.34999
1.32653
1.30291
1.27912
1.25516
1.23104
1.20674
1.18228
1.15764
1.13283
1.10785
1.08269
1.05735
1.03184
1.00614
0.980267
0.954211
0.927972
0.901549
0.87494
0.848144
0.821161
0.793987
0.766622
0.739065
0.711314
0.683368
0.655225
0.626886
0.598346
0.569608
0.540666
0.511523
0.482173
0.452617
0.422855
0.39288
0.362701
0.332301
0.301696
0.270873
0.239827
0.208578
0.177091
0.145395
0.113478
0.0813241
0.0489549
0.0163584
-25.7817
-29.6105
-33.4425
-37.3374
-39.9004
-44.3519
-43.5777
-36.4721
-29.339
-24.855
-20.2318
-14.1323
-8.7999
-4.86731
-2.17229
-0.59285
0.279759
0.82114
1.20068
1.46667
1.65462
1.76295
1.82153
1.86118
1.88617
1.89033
1.88051
1.86483
1.84666
1.82728
1.80724
1.78692
1.76639
1.74572
1.72493
1.70402
1.68299
1.66182
1.64052
1.61908
1.5975
1.57577
1.55389
1.53186
1.50968
1.48734
1.46485
1.4422
1.41939
1.39641
1.37328
1.34999
1.32653
1.30291
1.27912
1.25516
1.23104
1.20674
1.18228
1.15764
1.13283
1.10785
1.08269
1.05735
1.03184
1.00614
0.980267
0.954211
0.927972
0.901549
0.87494
0.848144
0.821161
0.793987
0.766622
0.739065
0.711314
0.683368
0.655225
0.626886
0.598346
0.569608
0.540666
0.511523
0.482173
0.452617
0.422855
0.39288
0.362701
0.332301
0.301696
0.270873
0.239827
0.208578
0.177091
0.145395
0.113478
0.0813241
0.0489549
0.0163584
-26.0569
-29.4153
-33.1536
-36.6371
-38.618
-42.4532
-41.6873
-35.1669
-28.5569
-24.66
-20.6668
-14.8252
-9.38238
-5.28008
-2.41994
-0.708891
0.271514
0.798397
1.17874
1.45218
1.61258
1.71652
1.78874
1.85009
1.88499
1.89151
1.8822
1.86599
1.84726
1.82758
1.80741
1.78703
1.76646
1.74577
1.72497
1.70405
1.683
1.66183
1.64053
1.61909
1.59751
1.57577
1.5539
1.53187
1.50968
1.48734
1.46485
1.4422
1.41939
1.39642
1.37328
1.34999
1.32653
1.30291
1.27912
1.25516
1.23104
1.20674
1.18228
1.15764
1.13283
1.10785
1.08269
1.05735
1.03184
1.00614
0.980267
0.954211
0.927972
0.901549
0.87494
0.848144
0.82116
0.793987
0.766622
0.739065
0.711314
0.683368
0.655225
0.626886
0.598346
0.569608
0.540666
0.511523
0.482173
0.452617
0.422855
0.39288
0.362701
0.332301
0.301696
0.270873
0.239827
0.208578
0.177091
0.145395
0.113478
0.0813241
0.0489548
0.0163583
-26.2916
-29.2736
-32.8765
-36.015
-37.5325
-40.7363
-39.9121
-33.9878
-27.7215
-24.6146
-21.0548
-15.4402
-9.92587
-5.61775
-2.57777
-0.809657
0.121236
0.732806
1.16721
1.46539
1.6521
1.76145
1.81901
1.85572
1.88786
1.89198
1.88147
1.86547
1.84718
1.8277
1.80754
1.78713
1.76654
1.74582
1.725
1.70407
1.68302
1.66184
1.64054
1.61909
1.59751
1.57578
1.5539
1.53187
1.50968
1.48734
1.46485
1.4422
1.41939
1.39642
1.37328
1.34999
1.32653
1.30291
1.27912
1.25516
1.23104
1.20674
1.18228
1.15764
1.13283
1.10785
1.08269
1.05735
1.03184
1.00614
0.980267
0.954211
0.927972
0.901549
0.87494
0.848144
0.82116
0.793987
0.766622
0.739065
0.711314
0.683368
0.655225
0.626886
0.598346
0.569608
0.540666
0.511523
0.482173
0.452617
0.422855
0.39288
0.362701
0.332301
0.301695
0.270873
0.239827
0.208577
0.177091
0.145395
0.113478
0.0813242
0.0489548
0.0163583
-26.4916
-29.1405
-32.6618
-35.5075
-36.6393
-39.3187
-38.3253
-32.818
-26.9416
-24.7032
-21.7084
-15.9797
-10.4328
-5.922
-2.67751
-0.852297
0.119144
0.740367
1.17062
1.45525
1.62208
1.71114
1.7678
1.8538
1.89148
1.89748
1.88572
1.86787
1.84826
1.82815
1.80774
1.78725
1.76661
1.74587
1.72503
1.70409
1.68303
1.66185
1.64054
1.6191
1.59751
1.57578
1.5539
1.53187
1.50968
1.48734
1.46485
1.4422
1.41939
1.39642
1.37328
1.34999
1.32653
1.30291
1.27912
1.25516
1.23104
1.20674
1.18228
1.15764
1.13283
1.10785
1.08269
1.05735
1.03184
1.00614
0.980267
0.954211
0.927972
0.901549
0.87494
0.848144
0.82116
0.793987
0.766622
0.739065
0.711314
0.683368
0.655225
0.626886
0.598346
0.569608
0.540666
0.511523
0.482173
0.452617
0.422855
0.39288
0.362701
0.332301
0.301695
0.270873
0.239827
0.208577
0.177092
0.145395
0.113478
0.0813242
0.0489547
0.0163582
-26.6674
-29.0264
-32.4746
-35.1082
-35.8695
-38.0712
-36.876
-31.6823
-26.1462
-24.8496
-22.5461
-16.6567
-10.9562
-6.23789
-2.80529
-0.90827
0.0583092
0.696278
1.15962
1.45984
1.65151
1.75175
1.80599
1.85403
1.8895
1.89399
1.88277
1.86627
1.84778
1.82813
1.80784
1.78735
1.76668
1.74592
1.72507
1.70411
1.68305
1.66186
1.64055
1.6191
1.59751
1.57578
1.5539
1.53187
1.50968
1.48734
1.46485
1.4422
1.41939
1.39642
1.37328
1.34999
1.32653
1.30291
1.27912
1.25516
1.23104
1.20674
1.18228
1.15764
1.13283
1.10785
1.08269
1.05735
1.03184
1.00614
0.980267
0.954211
0.927972
0.901549
0.87494
0.848144
0.82116
0.793987
0.766622
0.739065
0.711314
0.683368
0.655225
0.626886
0.598346
0.569608
0.540666
0.511523
0.482173
0.452617
0.422855
0.39288
0.362701
0.332301
0.301695
0.270873
0.239827
0.208577
0.177092
0.145395
0.113478
0.0813243
0.0489547
0.0163582
-26.816
-28.9066
-32.3444
-34.7749
-35.2398
-36.8847
-35.4758
-30.4975
-25.3694
-25.2282
-23.3782
-17.4487
-11.5633
-6.48435
-2.89115
-0.938488
0.0517867
0.714582
1.16343
1.45997
1.63397
1.71143
1.7797
1.85504
1.90057
1.90476
1.88947
1.86978
1.84931
1.82895
1.80809
1.78748
1.76675
1.74597
1.7251
1.70413
1.68306
1.66187
1.64056
1.61911
1.59752
1.57578
1.5539
1.53187
1.50968
1.48734
1.46485
1.4422
1.41939
1.39642
1.37328
1.34999
1.32653
1.30291
1.27912
1.25516
1.23104
1.20674
1.18228
1.15764
1.13283
1.10785
1.08269
1.05735
1.03184
1.00614
0.980267
0.954211
0.927972
0.901549
0.87494
0.848144
0.82116
0.793987
0.766622
0.739065
0.711314
0.683368
0.655225
0.626886
0.598346
0.569608
0.540666
0.511523
0.482173
0.452617
0.422855
0.39288
0.362701
0.332301
0.301695
0.270873
0.239827
0.208577
0.177092
0.145395
0.113478
0.0813244
0.0489546
0.0163581
-26.9438
-28.8097
-32.2586
-34.5423
-34.7544
-35.8299
-34.3348
-29.1818
-24.5382
-25.8444
-24.3561
-18.1842
-12.1754
-6.83868
-2.98076
-0.902493
0.0620138
0.683191
1.15035
1.45907
1.65286
1.76413
1.80104
1.85319
1.88697
1.89323
1.88303
1.86682
1.84822
1.8282
1.80814
1.78758
1.76682
1.74601
1.72513
1.70415
1.68307
1.66188
1.64056
1.61911
1.59752
1.57578
1.5539
1.53187
1.50968
1.48734
1.46485
1.4422
1.41939
1.39642
1.37328
1.34999
1.32653
1.30291
1.27912
1.25516
1.23104
1.20674
1.18228
1.15764
1.13283
1.10785
1.08269
1.05735
1.03184
1.00614
0.980267
0.954211
0.927972
0.901549
0.87494
0.848144
0.82116
0.793987
0.766622
0.739065
0.711314
0.683368
0.655225
0.626886
0.598346
0.569608
0.540666
0.511523
0.482173
0.452617
0.422855
0.39288
0.362701
0.332301
0.301695
0.270873
0.239827
0.208577
0.177092
0.145395
0.113478
0.0813244
0.0489545
0.0163581
-27.0353
-28.6975
-32.1725
-34.4871
-34.3827
-34.8348
-33.3456
-27.797
-23.6674
-26.6074
-25.473
-18.9067
-12.7176
-7.06537
-3.05665
-0.934193
0.0647031
0.722498
1.17652
1.46785
1.6392
1.7303
1.80437
1.86401
1.90205
1.90582
1.89117
1.87124
1.85032
1.82936
1.80854
1.78773
1.76689
1.74606
1.72516
1.70417
1.68309
1.66189
1.64057
1.61911
1.59752
1.57578
1.5539
1.53187
1.50968
1.48734
1.46485
1.4422
1.41939
1.39642
1.37328
1.34999
1.32653
1.30291
1.27912
1.25516
1.23104
1.20674
1.18228
1.15764
1.13283
1.10785
1.08269
1.05735
1.03184
1.00614
0.980267
0.954211
0.927972
0.901549
0.87494
0.848144
0.82116
0.793987
0.766622
0.739065
0.711314
0.683368
0.655225
0.626886
0.598346
0.569608
0.540666
0.511523
0.482173
0.452617
0.422855
0.39288
0.362701
0.332301
0.301695
0.270873
0.239827
0.208577
0.177092
0.145395
0.113478
0.0813245
0.0489544
0.016358
-27.1427
-28.551
-32.0978
-34.0879
-34.0601
-34.0166
-32.3814
-26.2465
-22.751
-27.5095
-26.6409
-19.4876
-13.2143
-7.23552
-3.07439
-0.850779
0.105312
0.711182
1.17234
1.4789
1.67313
1.7644
1.81302
1.85885
1.89025
1.89559
1.88481
1.86803
1.84899
1.82888
1.80846
1.7877
1.76696
1.7461
1.72519
1.70419
1.6831
1.6619
1.64057
1.61912
1.59752
1.57579
1.5539
1.53187
1.50968
1.48735
1.46485
1.4422
1.41939
1.39642
1.37328
1.34999
1.32653
1.30291
1.27912
1.25516
1.23104
1.20674
1.18228
1.15764
1.13283
1.10785
1.08269
1.05735
1.03184
1.00614
0.980267
0.954211
0.927972
0.901549
0.87494
0.848144
0.82116
0.793987
0.766622
0.739065
0.711314
0.683368
0.655225
0.626886
0.598346
0.569608
0.540666
0.511523
0.482173
0.452617
0.422855
0.39288
0.362701
0.332301
0.301695
0.270873
0.239827
0.208577
0.177092
0.145395
0.113478
0.0813246
0.0489543
0.016358
-27.2139
-28.4538
-32.058
-34.0208
-33.7703
-33.4135
-31.5464
-24.5143
-21.4822
-28.2608
-27.6224
-19.9794
-13.4536
-7.26122
-3.10397
-0.825437
0.138163
0.753617
1.19412
1.48506
1.65389
1.75844
1.81917
1.87323
1.90558
1.90784
1.89291
1.87257
1.85123
1.82991
1.80886
1.78788
1.76703
1.74614
1.72521
1.70421
1.68311
1.6619
1.64057
1.61912
1.59752
1.57579
1.5539
1.53187
1.50968
1.48735
1.46485
1.4422
1.41939
1.39642
1.37328
1.34999
1.32653
1.30291
1.27912
1.25516
1.23104
1.20674
1.18228
1.15764
1.13283
1.10785
1.08269
1.05735
1.03184
1.00614
0.980267
0.954211
0.927972
0.901549
0.87494
0.848144
0.82116
0.793987
0.766622
0.739065
0.711314
0.683368
0.655225
0.626886
0.598346
0.569608
0.540666
0.511523
0.482173
0.452617
0.422855
0.39288
0.362701
0.332301
0.301695
0.270873
0.239826
0.208577
0.177092
0.145395
0.113478
0.0813247
0.0489543
0.0163579
-27.2765
-28.3381
-32.0396
-33.9922
-33.5835
-32.9093
-30.8217
-22.8553
-19.7686
-28.7709
-27.823
-20.1354
-13.5912
-7.22501
-3.0689
-0.772551
0.168486
0.757942
1.20091
1.50087
1.682
1.7695
1.82341
1.86835
1.89687
1.90005
1.88769
1.86974
1.84997
1.82948
1.8088
1.78794
1.76708
1.74618
1.72524
1.70422
1.68312
1.66191
1.64058
1.61912
1.59753
1.57579
1.5539
1.53187
1.50968
1.48735
1.46485
1.4422
1.41939
1.39642
1.37328
1.34999
1.32653
1.30291
1.27912
1.25516
1.23104
1.20674
1.18228
1.15764
1.13283
1.10785
1.08269
1.05735
1.03184
1.00614
0.980267
0.954211
0.927972
0.901549
0.87494
0.848144
0.82116
0.793987
0.766622
0.739065
0.711314
0.683368
0.655225
0.626886
0.598346
0.569608
0.540666
0.511523
0.482173
0.452617
0.422855
0.39288
0.362701
0.332301
0.301695
0.270873
0.239826
0.208577
0.177092
0.145394
0.113478
0.0813248
0.0489541
0.0163579
-27.2775
-28.298
-32.013
-33.9474
-33.4052
-32.7267
-30.2618
-21.9624
-18.1414
-28.2213
-27.817
-20.0783
-13.5313
-7.19011
-3.05725
-0.757495
0.183204
0.775797
1.20885
1.5002
1.67433
1.77083
1.82838
1.87731
1.90676
1.90846
1.89353
1.87314
1.85169
1.83026
1.80911
1.78806
1.76713
1.74621
1.72525
1.70423
1.68312
1.66191
1.64058
1.61912
1.59753
1.57579
1.5539
1.53187
1.50968
1.48735
1.46485
1.4422
1.41939
1.39642
1.37328
1.34999
1.32653
1.30291
1.27912
1.25516
1.23104
1.20674
1.18228
1.15764
1.13283
1.10785
1.08269
1.05735
1.03184
1.00614
0.980267
0.954211
0.927972
0.901549
0.87494
0.848144
0.82116
0.793987
0.766622
0.739065
0.711314
0.683368
0.655225
0.626886
0.598346
0.569608
0.540666
0.511523
0.482173
0.452617
0.422855
0.39288
0.362701
0.332301
0.301695
0.270873
0.239826
0.208577
0.177092
0.145394
0.113478
0.0813249
0.0489541
0.0163578
-21.0968
-22.8294
-28.2269
-46.207
-61.0877
-60.7369
-54.2243
-51.0192
-33.0486
-18.8866
-7.67094
1.88605
4.40282
4.85561
4.4932
3.73876
3.05124
2.57685
2.2921
2.13232
2.04839
2.00412
1.97639
1.95229
1.92879
1.90596
1.88427
1.86369
1.84379
1.82418
1.80449
1.78471
1.76473
1.74451
1.72407
1.70343
1.68258
1.66155
1.64034
1.61896
1.59742
1.57572
1.55386
1.53184
1.50967
1.48733
1.46484
1.44219
1.41938
1.39641
1.37328
1.34999
1.32653
1.30291
1.27912
1.25516
1.23104
1.20674
1.18228
1.15764
1.13283
1.10785
1.08269
1.05735
1.03184
1.00614
0.980268
0.954211
0.927972
0.901549
0.87494
0.848145
0.82116
0.793987
0.766622
0.739065
0.711314
0.683368
0.655225
0.626886
0.598347
0.569608
0.540666
0.511523
0.482173
0.452617
0.422856
0.39288
0.362701
0.332301
0.301695
0.270873
0.239827
0.208577
0.177093
0.145394
0.113478
0.0813244
0.0489544
0.0163577
-20.9133
-23.4538
-28.8907
-46.8835
-61.6437
-61.2999
-54.3003
-51.1925
-33.5622
-19.0273
-7.8727
1.74359
4.33794
4.82448
4.46941
3.72316
3.03975
2.56858
2.28656
2.12875
2.04611
2.00297
1.97542
1.95178
1.92855
1.9059
1.88432
1.86377
1.84388
1.82424
1.80454
1.78475
1.76475
1.74453
1.72409
1.70343
1.68258
1.66155
1.64034
1.61896
1.59742
1.57572
1.55386
1.53184
1.50967
1.48733
1.46484
1.44219
1.41938
1.39641
1.37328
1.34999
1.32653
1.30291
1.27912
1.25516
1.23104
1.20674
1.18228
1.15764
1.13283
1.10785
1.08269
1.05735
1.03184
1.00614
0.980268
0.954211
0.927972
0.901549
0.87494
0.848145
0.82116
0.793987
0.766622
0.739065
0.711314
0.683368
0.655225
0.626886
0.598347
0.569608
0.540666
0.511523
0.482173
0.452617
0.422856
0.39288
0.362701
0.332301
0.301696
0.270873
0.239827
0.208577
0.177093
0.145394
0.113478
0.0813243
0.0489544
0.0163577
-20.4461
-23.2316
-30.1026
-47.7116
-62.8339
-62.1854
-54.5642
-51.5891
-34.5553
-19.4276
-8.23514
1.45078
4.24115
4.75371
4.4206
3.69128
3.01625
2.55081
2.27346
2.11928
2.03947
1.9987
1.97313
1.951
1.92871
1.90644
1.88491
1.86426
1.84423
1.82446
1.80473
1.78487
1.76483
1.74458
1.72412
1.70345
1.6826
1.66156
1.64035
1.61897
1.59743
1.57572
1.55386
1.53184
1.50967
1.48733
1.46484
1.44219
1.41938
1.39641
1.37328
1.34999
1.32653
1.30291
1.27912
1.25516
1.23104
1.20674
1.18228
1.15764
1.13283
1.10785
1.08269
1.05735
1.03184
1.00614
0.980268
0.954211
0.927972
0.901549
0.87494
0.848145
0.82116
0.793987
0.766622
0.739065
0.711314
0.683368
0.655225
0.626886
0.598347
0.569608
0.540666
0.511523
0.482173
0.452617
0.422856
0.39288
0.362701
0.332301
0.301696
0.270872
0.239827
0.208577
0.177093
0.145394
0.113478
0.0813242
0.0489546
0.0163578
-20.8123
-23.5513
-31.242
-48.7236
-64.2372
-63.6854
-54.9173
-51.9191
-35.715
-20.0834
-8.73476
1.04779
4.06225
4.62688
4.34033
3.64132
2.98153
2.52507
2.25459
2.1058
2.03022
1.99278
1.96976
1.94936
1.92807
1.90631
1.88499
1.8644
1.84436
1.82456
1.80481
1.78493
1.76487
1.74461
1.72414
1.70347
1.68261
1.66156
1.64035
1.61897
1.59743
1.57572
1.55386
1.53184
1.50967
1.48733
1.46484
1.44219
1.41938
1.39641
1.37328
1.34999
1.32653
1.30291
1.27912
1.25516
1.23104
1.20674
1.18228
1.15764
1.13283
1.10785
1.08269
1.05735
1.03184
1.00614
0.980268
0.954211
0.927972
0.901549
0.87494
0.848145
0.82116
0.793987
0.766622
0.739065
0.711314
0.683368
0.655225
0.626886
0.598347
0.569608
0.540666
0.511523
0.482173
0.452617
0.422856
0.39288
0.362701
0.332301
0.301696
0.270872
0.239827
0.208577
0.177093
0.145394
0.113478
0.0813241
0.0489546
0.0163578
-21.1231
-24.1277
-32.4378
-49.964
-65.6078
-65.1779
-55.4872
-52.1367
-36.8885
-20.9684
-9.38004
0.584343
3.80484
4.4481
4.22228
3.56908
2.93453
2.49173
2.23031
2.08819
2.01779
1.98451
1.96475
1.94667
1.92687
1.90595
1.88503
1.86459
1.84456
1.82473
1.80494
1.78502
1.76493
1.74465
1.72416
1.70348
1.68262
1.66157
1.64036
1.61897
1.59743
1.57573
1.55386
1.53184
1.50967
1.48734
1.46484
1.44219
1.41938
1.39641
1.37328
1.34999
1.32653
1.30291
1.27912
1.25516
1.23104
1.20674
1.18228
1.15764
1.13283
1.10785
1.08269
1.05735
1.03184
1.00614
0.980268
0.954211
0.927972
0.901549
0.87494
0.848145
0.82116
0.793987
0.766622
0.739065
0.711314
0.683368
0.655225
0.626886
0.598347
0.569608
0.540666
0.511523
0.482173
0.452617
0.422856
0.39288
0.362701
0.332301
0.301696
0.270872
0.239827
0.208577
0.177093
0.145394
0.113478
0.081324
0.0489548
0.0163579
-21.6071
-24.6309
-33.6573
-51.1844
-66.9403
-66.8954
-56.1597
-52.3159
-38.1056
-21.9563
-10.192
0.00604825
3.50208
4.22338
4.06753
3.47367
2.87411
2.45121
2.20177
2.06751
2.00304
1.97459
1.95868
1.94337
1.92535
1.9054
1.88495
1.86468
1.84469
1.82486
1.80503
1.78509
1.76498
1.74468
1.72419
1.7035
1.68263
1.66158
1.64036
1.61898
1.59743
1.57573
1.55386
1.53184
1.50967
1.48734
1.46484
1.44219
1.41938
1.39641
1.37328
1.34999
1.32653
1.30291
1.27912
1.25516
1.23104
1.20674
1.18228
1.15764
1.13283
1.10785
1.08269
1.05735
1.03184
1.00614
0.980268
0.954211
0.927972
0.901549
0.87494
0.848145
0.82116
0.793987
0.766622
0.739065
0.711314
0.683368
0.655225
0.626886
0.598347
0.569608
0.540666
0.511523
0.482173
0.452617
0.422856
0.39288
0.362701
0.332301
0.301696
0.270872
0.239827
0.208577
0.177092
0.145394
0.113478
0.081324
0.0489549
0.0163579
-22.2055
-25.1192
-35.0002
-52.1932
-68.1434
-68.575
-56.946
-52.5437
-39.1739
-23.0753
-11.0957
-0.698577
3.15786
3.95541
3.87293
3.35591
2.8009
2.40379
2.16966
2.0445
1.98642
1.96322
1.95158
1.93938
1.92336
1.90457
1.88469
1.86468
1.84479
1.82497
1.80513
1.78517
1.76504
1.74472
1.72422
1.70352
1.68264
1.66159
1.64037
1.61898
1.59743
1.57573
1.55386
1.53185
1.50967
1.48734
1.46484
1.44219
1.41938
1.39641
1.37328
1.34999
1.32653
1.30291
1.27912
1.25516
1.23104
1.20674
1.18228
1.15764
1.13283
1.10785
1.08269
1.05735
1.03184
1.00614
0.980268
0.954211
0.927972
0.901549
0.87494
0.848145
0.82116
0.793987
0.766622
0.739065
0.711314
0.683368
0.655225
0.626886
0.598347
0.569608
0.540666
0.511523
0.482173
0.452617
0.422856
0.39288
0.362701
0.332301
0.301696
0.270872
0.239827
0.208577
0.177092
0.145395
0.113478
0.0813239
0.0489549
0.016358
-22.711
-25.7011
-36.1872
-53.2201
-69.2051
-70.1267
-57.8154
-52.6942
-40.0284
-24.0484
-11.9799
-1.5409
2.77187
3.65837
3.64321
3.21436
2.71586
2.34986
2.13444
2.01991
1.96862
1.95085
1.94372
1.93487
1.92106
1.90355
1.88434
1.86463
1.84486
1.82507
1.80522
1.78524
1.7651
1.74476
1.72424
1.70354
1.68265
1.6616
1.64037
1.61898
1.59744
1.57573
1.55387
1.53185
1.50967
1.48734
1.46484
1.44219
1.41938
1.39641
1.37328
1.34999
1.32653
1.30291
1.27912
1.25516
1.23104
1.20674
1.18228
1.15764
1.13283
1.10785
1.08269
1.05735
1.03184
1.00614
0.980268
0.954211
0.927972
0.901549
0.87494
0.848145
0.82116
0.793987
0.766622
0.739065
0.711314
0.683368
0.655225
0.626886
0.598347
0.569608
0.540666
0.511523
0.482173
0.452617
0.422856
0.39288
0.362701
0.332301
0.301696
0.270872
0.239827
0.208577
0.177092
0.145395
0.113478
0.0813238
0.048955
0.016358
-23.0853
-26.1797
-37.2623
-54.1513
-69.8485
-71.4598
-58.6222
-52.8317
-40.696
-24.8673
-12.7725
-2.39094
2.31451
3.33497
3.38936
3.05076
2.61973
2.29006
2.09615
1.99392
1.94995
1.93774
1.93524
1.92993
1.91847
1.90236
1.88389
1.86453
1.8449
1.82515
1.8053
1.78531
1.76515
1.7448
1.72427
1.70356
1.68267
1.6616
1.64038
1.61899
1.59744
1.57573
1.55387
1.53185
1.50967
1.48734
1.46484
1.44219
1.41938
1.39641
1.37328
1.34999
1.32653
1.30291
1.27912
1.25516
1.23104
1.20674
1.18228
1.15764
1.13283
1.10785
1.08269
1.05735
1.03184
1.00614
0.980268
0.954211
0.927972
0.901549
0.87494
0.848145
0.82116
0.793987
0.766622
0.739065
0.711314
0.683368
0.655225
0.626886
0.598347
0.569608
0.540666
0.511523
0.482173
0.452617
0.422856
0.39288
0.362701
0.332301
0.301696
0.270872
0.239827
0.208577
0.177092
0.145395
0.113478
0.0813237
0.0489551
0.0163581
-23.4374
-26.4354
-38.1279
-54.6781
-70.164
-72.5745
-59.3634
-52.9872
-41.3415
-25.6588
-13.4534
-3.22837
1.79798
2.99432
3.11834
2.86982
2.51338
2.22539
2.05496
1.96656
1.93069
1.92421
1.92641
1.9247
1.91569
1.90104
1.88336
1.86439
1.84492
1.82523
1.80538
1.78538
1.76521
1.74485
1.7243
1.70358
1.68268
1.66161
1.64038
1.61899
1.59744
1.57573
1.55387
1.53185
1.50967
1.48734
1.46484
1.44219
1.41938
1.39641
1.37328
1.34999
1.32653
1.30291
1.27912
1.25516
1.23104
1.20674
1.18228
1.15764
1.13283
1.10785
1.08269
1.05735
1.03184
1.00614
0.980268
0.954211
0.927972
0.901549
0.87494
0.848145
0.82116
0.793987
0.766622
0.739065
0.711314
0.683368
0.655225
0.626886
0.598347
0.569608
0.540666
0.511523
0.482173
0.452617
0.422856
0.39288
0.362701
0.332301
0.301696
0.270872
0.239827
0.208577
0.177092
0.145395
0.113478
0.0813236
0.0489552
0.0163581
-23.7415
-26.5883
-38.7555
-55.0189
-70.0533
-73.4589
-60.0163
-53.0889
-41.7488
-26.3625
-14.0513
-3.97141
1.21682
2.63605
2.83745
2.67667
2.39799
2.15649
2.01121
1.93769
1.91077
1.91038
1.91734
1.91928
1.91276
1.89963