/*--------------------------------*- C++ -*----------------------------------*\
| =========                 |                                                 |
| \\      /  F ield         | OpenFOAM: The Open Source CFD Toolbox           |
|  \\    /   O peration     | Version:  2.4.0                                 |
|   \\  /    A nd           | Web:      www.OpenFOAM.org                      |
|    \\/     M anipulation  |                                                 |
\*---------------------------------------------------------------------------*/
FoamFile
{
    version     2.0;
    format      ascii;
    class       volScalarField;
    location    "0.6";
    object      p;
}
// * * * * * * * * * * * * * * * * * * * * * * * * * * * * * * * * * * * * * //

dimensions      [0 2 -2 0 0 0 0];

internalField   nonuniform List<scalar> 
4400
(
-15.3641
-15.7252
-15.7809
-15.7533
-15.9478
-15.9847
-16.0756
-16.0287
-16.7634
-16.4883
-17.3678
-16.1855
-16.4758
-18.0191
-14.7642
-19.7878
-17.0337
-13.7905
-22.3084
-10.3277
-15.4567
-15.7248
-15.7815
-15.7475
-15.9551
-16.018
-16.1083
-16.1058
-16.8194
-16.4787
-17.4127
-16.2797
-16.6149
-18.6769
-15.2773
-19.6705
-17.4537
-14.367
-22.2144
-11.6221
-15.4313
-15.7269
-15.7774
-15.755
-16.0137
-16.1032
-16.3301
-16.293
-16.9532
-16.5404
-17.1386
-16.6692
-17.4959
-19.3675
-15.3728
-19.4715
-17.8262
-14.7391
-22.0839
-13.1648
-15.5205
-15.7182
-15.7827
-15.7635
-16.0733
-16.208
-16.5187
-16.4244
-16.9109
-16.3843
-17.1494
-17.2703
-17.8176
-19.0766
-15.179
-18.8084
-17.9992
-14.9732
-21.009
-14.8359
-15.5037
-15.7179
-15.7846
-15.767
-16.12
-16.2366
-16.6142
-16.3815
-16.775
-16.5344
-17.1974
-17.6027
-17.4713
-18.6441
-15.3681
-18.6203
-18.0328
-15.1935
-20.9489
-16.1237
-15.5702
-15.7095
-15.7815
-15.7667
-16.1341
-16.2204
-16.5946
-16.3142
-16.712
-16.6411
-17.2215
-17.6491
-17.1178
-18.3364
-15.8086
-18.384
-17.9685
-15.4255
-20.4433
-17.0804
-15.5663
-15.7052
-15.7858
-15.7622
-16.1347
-16.191
-16.5444
-16.2654
-16.6842
-16.7408
-17.0417
-17.5877
-16.8765
-18.1606
-16.1086
-18.1485
-18.0541
-15.7428
-20.1
-17.91
-15.6093
-15.6989
-15.779
-15.759
-16.1305
-16.1614
-16.4889
-16.2402
-16.6671
-16.7776
-16.8681
-17.4642
-16.7529
-18.0831
-16.2946
-18.0062
-18.0992
-16.0536
-19.9121
-18.5929
-15.6159
-15.6905
-15.781
-15.755
-16.1208
-16.1405
-16.4385
-16.2261
-16.6484
-16.8034
-16.7268
-17.356
-16.6974
-17.9929
-16.5095
-17.7958
-18.2569
-16.4226
-19.7046
-19.1915
-15.6349
-15.6947
-15.7747
-15.7534
-16.1119
-16.1249
-16.3954
-16.2277
-16.6188
-16.8292
-16.6066
-17.2787
-16.6723
-17.904
-16.6673
-17.6864
-18.3699
-16.7316
-19.5963
-19.6122
-15.6465
-15.6696
-15.7716
-15.7543
-16.0994
-16.1219
-16.3603
-16.2351
-16.5939
-16.8419
-16.5055
-17.2135
-16.6674
-17.7738
-16.8441
-17.5618
-18.4415
-17.0294
-19.4602
-20.013
-15.6502
-15.6835
-15.7669
-15.7541
-16.0908
-16.12
-16.3303
-16.2538
-16.5571
-16.8503
-16.4296
-17.1535
-16.6744
-17.6606
-17.0039
-17.4408
-18.5091
-17.2802
-19.3455
-20.3453
-15.6565
-15.6559
-15.7599
-15.7592
-16.077
-16.1267
-16.3033
-16.271
-16.525
-16.8551
-16.358
-17.1062
-16.7025
-17.5333
-17.1588
-17.3564
-18.5375
-17.5223
-19.2695
-20.5623
-15.6502
-15.6666
-15.7556
-15.7618
-16.0692
-16.1328
-16.2788
-16.295
-16.4886
-16.8527
-16.3067
-17.0595
-16.7326
-17.4244
-17.2869
-17.2678
-18.5619
-17.7371
-19.1694
-20.7707
-15.6457
-15.6459
-15.7492
-15.7692
-16.0569
-16.1438
-16.2576
-16.3146
-16.4582
-16.8504
-16.2587
-17.0208
-16.7777
-17.304
-17.4091
-17.2103
-18.5507
-17.9465
-19.1155
-20.8956
-15.6317
-15.6457
-15.7461
-15.7731
-16.0496
-16.1516
-16.237
-16.3366
-16.4273
-16.8427
-16.2256
-16.9833
-16.8158
-17.21
-17.4998
-17.1438
-18.5465
-18.1212
-19.0344
-21.0198
-15.6162
-15.6346
-15.7423
-15.782
-16.0402
-16.1622
-16.2219
-16.3528
-16.4042
-16.8359
-16.1977
-16.952
-16.8592
-17.1115
-17.5781
-17.1079
-18.511
-18.2867
-18.998
-21.0671
-15.5917
-15.6286
-15.7412
-15.7842
-16.0342
-16.1673
-16.2081
-16.3685
-16.3831
-16.8293
-16.179
-16.9274
-16.8901
-17.0473
-17.6389
-17.062
-18.4956
-18.4167
-18.9367
-21.1308
-15.5676
-15.6251
-15.7434
-15.7934
-16.0292
-16.1729
-16.2001
-16.3792
-16.367
-16.8288
-16.1659
-16.905
-16.9193
-16.9815
-17.6834
-17.0403
-18.4525
-18.5241
-18.9098
-21.1334
-15.5179
-15.6165
-15.7437
-15.7926
-16.026
-16.1726
-16.195
-16.3848
-16.3606
-16.8242
-16.1643
-16.8964
-16.9236
-16.9584
-17.7067
-17.0246
-18.4303
-18.5685
-18.8888
-21.1286
-12.3613
-35.2958
-50.9594
-51.7715
-43.0268
-33.9986
-23.3692
-13.3904
-6.41842
-2.47038
-0.118082
1.20563
1.89573
2.22776
2.37229
2.42793
2.44343
2.44026
2.42803
2.41122
2.39189
2.37109
2.3494
2.32714
2.30445
2.28144
2.25817
2.23468
2.21098
2.18709
2.16303
2.13879
2.11438
2.0898
2.06504
2.04011
2.015
1.98971
1.96425
1.93861
1.91278
1.88678
1.86059
1.83422
1.80766
1.78091
1.75398
1.72686
1.69954
1.67204
1.64434
1.61645
1.58836
1.56007
1.53159
1.5029
1.47402
1.44493
1.41564
1.38614
1.35643
1.32651
1.29639
1.26605
1.2355
1.20473
1.17375
1.14255
1.11114
1.0795
1.04764
1.01555
0.98324
0.950703
0.917937
0.88494
0.851712
0.81825
0.784553
0.750619
0.716447
0.682035
0.647381
0.612484
0.577341
0.541952
0.506314
0.470427
0.434285
0.397892
0.36124
0.324333
0.287167
0.249732
0.212051
0.174086
0.135862
0.0973832
0.0586048
0.0195752
-14.6574
-35.3592
-48.0239
-48.8055
-40.6638
-32.7483
-23.1068
-13.6893
-6.92813
-2.92832
-0.457738
0.957737
1.71505
2.10434
2.29032
2.37326
2.40686
2.41591
2.41195
2.40066
2.38499
2.3666
2.34649
2.32525
2.30323
2.28066
2.25767
2.23436
2.21077
2.18696
2.16295
2.13874
2.11435
2.08977
2.06503
2.0401
2.01499
1.98971
1.96425
1.93861
1.91278
1.88678
1.86059
1.83422
1.80766
1.78091
1.75398
1.72686
1.69954
1.67204
1.64434
1.61645
1.58836
1.56007
1.53159
1.5029
1.47402
1.44493
1.41564
1.38614
1.35643
1.32651
1.29639
1.26605
1.2355
1.20473
1.17375
1.14255
1.11114
1.0795
1.04763
1.01555
0.98324
0.950702
0.917937
0.88494
0.851712
0.81825
0.784553
0.75062
0.716447
0.682035
0.647382
0.612484
0.577341
0.541952
0.506314
0.470426
0.434285
0.397892
0.36124
0.324332
0.287168
0.249732
0.212051
0.174086
0.135862
0.0973837
0.0586049
0.0195751
-15.2094
-34.0287
-46.0194
-45.4685
-38.5215
-31.5241
-22.5667
-13.7776
-7.26487
-3.2867
-0.780816
0.719
1.54698
1.98625
2.20924
2.31879
2.37062
2.39192
2.39612
2.39026
2.37818
2.36216
2.3436
2.32338
2.30203
2.27988
2.25717
2.23404
2.21057
2.18684
2.16287
2.13869
2.11432
2.08975
2.06501
2.04009
2.01499
1.98971
1.96425
1.9386
1.91278
1.88678
1.86059
1.83422
1.80766
1.78091
1.75398
1.72686
1.69954
1.67204
1.64434
1.61645
1.58836
1.56007
1.53159
1.5029
1.47402
1.44493
1.41564
1.38614
1.35643
1.32651
1.29639
1.26605
1.2355
1.20473
1.17375
1.14255
1.11114
1.0795
1.04763
1.01555
0.98324
0.950702
0.917937
0.88494
0.851712
0.81825
0.784553
0.75062
0.716447
0.682035
0.647381
0.612484
0.577341
0.541952
0.506314
0.470426
0.434285
0.397892
0.36124
0.324332
0.287167
0.249732
0.212051
0.174086
0.135862
0.0973837
0.0586049
0.0195751
-15.9141
-32.5235
-42.6693
-41.5899
-36.1435
-30.3677
-22.0867
-13.8233
-7.62152
-3.65352
-1.09979
0.470718
1.37717
1.87441
2.13307
2.2661
2.33486
2.36811
2.38044
2.37999
2.37148
2.35779
2.34077
2.32154
2.30084
2.27912
2.25668
2.23373
2.21037
2.18671
2.16279
2.13864
2.11428
2.08974
2.065
2.04008
2.01498
1.9897
1.96424
1.9386
1.91278
1.88678
1.86059
1.83422
1.80766
1.78091
1.75398
1.72686
1.69954
1.67204
1.64434
1.61645
1.58836
1.56007
1.53159
1.5029
1.47402
1.44493
1.41564
1.38614
1.35643
1.32651
1.29639
1.26605
1.2355
1.20473
1.17375
1.14255
1.11114
1.0795
1.04763
1.01555
0.98324
0.950702
0.917937
0.88494
0.851712
0.81825
0.784553
0.75062
0.716447
0.682035
0.647381
0.612484
0.577341
0.541952
0.506314
0.470426
0.434285
0.397892
0.36124
0.324332
0.287167
0.249732
0.212051
0.174086
0.135862
0.0973836
0.0586049
0.0195751
-16.8418
-31.0352
-39.9358
-39.1481
-34.1644
-28.8394
-21.5149
-13.8793
-7.92934
-4.01891
-1.39815
0.246856
1.20968
1.75913
2.0579
2.21627
2.30126
2.34552
2.36539
2.37005
2.36496
2.35354
2.338
2.31975
2.29968
2.27838
2.25621
2.23342
2.21018
2.18659
2.16271
2.13859
2.11425
2.08972
2.06499
2.04007
2.01498
1.9897
1.96424
1.9386
1.91278
1.88678
1.86059
1.83422
1.80766
1.78091
1.75398
1.72686
1.69954
1.67204
1.64434
1.61645
1.58836
1.56007
1.53159
1.5029
1.47402
1.44493
1.41564
1.38614
1.35643
1.32651
1.29639
1.26605
1.2355
1.20473
1.17375
1.14255
1.11114
1.0795
1.04763
1.01555
0.98324
0.950702
0.917937
0.88494
0.851712
0.81825
0.784553
0.75062
0.716447
0.682035
0.647381
0.612484
0.577341
0.541952
0.506314
0.470426
0.434285
0.397892
0.36124
0.324332
0.287167
0.249732
0.212051
0.174086
0.135862
0.0973836
0.0586049
0.0195751
-17.3578
-29.5419
-37.6109
-36.8385
-32.4477
-27.5371
-20.7967
-13.8016
-8.11128
-4.32709
-1.73237
0.0142522
1.06259
1.65269
1.97998
2.16297
2.2662
2.32269
2.35051
2.36034
2.35861
2.3494
2.33531
2.31801
2.29856
2.27765
2.25574
2.23312
2.20999
2.18647
2.16263
2.13854
2.11422
2.0897
2.06498
2.04007
2.01497
1.9897
1.96424
1.9386
1.91278
1.88677
1.86059
1.83422
1.80766
1.78091
1.75398
1.72686
1.69954
1.67204
1.64434
1.61645
1.58836
1.56007
1.53159
1.5029
1.47402
1.44493
1.41564
1.38614
1.35643
1.32651
1.29639
1.26605
1.2355
1.20473
1.17375
1.14255
1.11114
1.0795
1.04763
1.01555
0.98324
0.950702
0.917937
0.88494
0.851712
0.81825
0.784553
0.75062
0.716447
0.682035
0.647381
0.612484
0.577341
0.541952
0.506314
0.470426
0.434285
0.397892
0.36124
0.324332
0.287167
0.249732
0.212051
0.174086
0.135862
0.0973835
0.0586049
0.0195752
-17.8
-28.6268
-35.4207
-34.4315
-30.8111
-26.8076
-20.5292
-13.8682
-8.34762
-4.58379
-2.0108
-0.238549
0.903262
1.56768
1.92461
2.12146
2.23598
2.30179
2.33648
2.35107
2.35253
2.34543
2.33273
2.31634
2.29748
2.27696
2.25529
2.23284
2.20981
2.18635
2.16256
2.1385
2.11419
2.08968
2.06497
2.04006
2.01497
1.98969
1.96424
1.9386
1.91278
1.88677
1.86059
1.83421
1.80766
1.78091
1.75398
1.72686
1.69954
1.67204
1.64434
1.61645
1.58836
1.56007
1.53159
1.5029
1.47402
1.44493
1.41564
1.38614
1.35643
1.32651
1.29639
1.26605
1.2355
1.20473
1.17375
1.14255
1.11114
1.0795
1.04763
1.01555
0.98324
0.950702
0.917937
0.88494
0.851712
0.81825
0.784553
0.75062
0.716447
0.682035
0.647381
0.612484
0.577341
0.541952
0.506314
0.470426
0.434285
0.397892
0.36124
0.324332
0.287168
0.249732
0.212051
0.174086
0.135862
0.0973835
0.0586049
0.0195752
-18.3664
-27.5798
-33.9011
-33.1416
-29.6433
-25.913
-20.0183
-13.675
-8.47858
-4.85554
-2.23425
-0.431214
0.720208
1.43238
1.83978
2.06994
2.20376
2.28108
2.32295
2.34218
2.34671
2.34163
2.33026
2.31474
2.29644
2.27629
2.25487
2.23257
2.20964
2.18624
2.16249
2.13845
2.11417
2.08966
2.06495
2.04005
2.01497
1.98969
1.96424
1.9386
1.91278
1.88677
1.86059
1.83421
1.80766
1.78091
1.75398
1.72686
1.69954
1.67204
1.64434
1.61645
1.58836
1.56007
1.53159
1.5029
1.47402
1.44493
1.41564
1.38614
1.35643
1.32651
1.29639
1.26605
1.2355
1.20473
1.17375
1.14255
1.11114
1.0795
1.04763
1.01555
0.98324
0.950702
0.917937
0.88494
0.851712
0.81825
0.784553
0.75062
0.716447
0.682035
0.647381
0.612484
0.577341
0.541952
0.506314
0.470426
0.434285
0.397892
0.36124
0.324332
0.287168
0.249732
0.212051
0.174086
0.135862
0.0973834
0.0586049
0.0195752
-18.8841
-26.7605
-32.3883
-31.5475
-28.3514
-25.005
-19.6796
-13.699
-8.62611
-5.06819
-2.49144
-0.595308
0.655434
1.39184
1.79582
2.0309
2.17511
2.26164
2.31015
2.33381
2.34124
2.33805
2.32793
2.31322
2.29547
2.27566
2.25446
2.23231
2.20947
2.18614
2.16243
2.13841
2.11414
2.08965
2.06494
2.04005
2.01496
1.98969
1.96424
1.9386
1.91278
1.88677
1.86059
1.83421
1.80766
1.78091
1.75398
1.72686
1.69954
1.67204
1.64434
1.61645
1.58836
1.56007
1.53159
1.5029
1.47402
1.44493
1.41564
1.38614
1.35643
1.32651
1.29639
1.26605
1.2355
1.20473
1.17375
1.14255
1.11114
1.0795
1.04763
1.01555
0.98324
0.950702
0.917937
0.88494
0.851712
0.81825
0.784553
0.75062
0.716447
0.682035
0.647381
0.612484
0.577341
0.541952
0.506314
0.470426
0.434285
0.397892
0.36124
0.324332
0.287168
0.249732
0.212051
0.174086
0.135862
0.0973834
0.0586049
0.0195752
-19.3631
-26.0982
-31.1158
-30.3091
-27.3467
-24.2562
-19.1971
-13.6085
-8.82516
-5.25891
-2.68489
-0.844828
0.441056
1.26705
1.72895
1.99098
2.14879
2.24391
2.29822
2.3259
2.33605
2.33467
2.32573
2.3118
2.29455
2.27507
2.25408
2.23207
2.20932
2.18604
2.16237
2.13837
2.11412
2.08963
2.06493
2.04004
2.01496
1.98969
1.96423
1.9386
1.91278
1.88677
1.86059
1.83421
1.80766
1.78091
1.75398
1.72686
1.69954
1.67204
1.64434
1.61645
1.58836
1.56007
1.53159
1.5029
1.47402
1.44493
1.41564
1.38614
1.35643
1.32651
1.29639
1.26605
1.2355
1.20473
1.17375
1.14255
1.11114
1.0795
1.04763
1.01555
0.98324
0.950702
0.917937
0.88494
0.851712
0.81825
0.784553
0.75062
0.716447
0.682035
0.647381
0.612484
0.577341
0.541952
0.506314
0.470426
0.434285
0.397892
0.36124
0.324332
0.287168
0.249733
0.212051
0.174086
0.135862
0.0973833
0.0586049
0.0195753
-19.8148
-25.5318
-30.0323
-29.2725
-26.4609
-23.6527
-18.8667
-13.3792
-8.88003
-5.56566
-2.94087
-0.855698
0.440841
1.21643
1.66486
1.94604
2.1215
2.22676
2.28725
2.31873
2.33133
2.33158
2.32371
2.31049
2.2937
2.27452
2.25373
2.23184
2.20918
2.18595
2.16231
2.13834
2.11409
2.08962
2.06493
2.04004
2.01495
1.98969
1.96423
1.9386
1.91278
1.88677
1.86059
1.83421
1.80766
1.78091
1.75398
1.72686
1.69954
1.67204
1.64434
1.61645
1.58836
1.56007
1.53159
1.5029
1.47402
1.44493
1.41564
1.38614
1.35643
1.32651
1.29639
1.26605
1.2355
1.20473
1.17375
1.14255
1.11114
1.0795
1.04764
1.01555
0.98324
0.950702
0.917937
0.88494
0.851712
0.81825
0.784553
0.75062
0.716447
0.682035
0.647381
0.612484
0.577341
0.541952
0.506314
0.470426
0.434285
0.397892
0.36124
0.324332
0.287168
0.249733
0.212051
0.174086
0.135862
0.0973833
0.0586049
0.0195753
-20.1949
-25.035
-29.1191
-28.4021
-25.7495
-23.03
-18.5172
-13.3403
-8.91547
-5.68457
-3.24377
-1.24267
0.272184
1.20051
1.66013
1.92312
2.10046
2.2117
2.27697
2.31195
2.32691
2.3287
2.32185
2.30928
2.29292
2.27402
2.25341
2.23164
2.20905
2.18587
2.16226
2.13831
2.11407
2.0896
2.06492
2.04003
2.01495
1.98968
1.96423
1.9386
1.91278
1.88677
1.86059
1.83421
1.80766
1.78091
1.75398
1.72686
1.69954
1.67204
1.64434
1.61645
1.58836
1.56007
1.53159
1.5029
1.47402
1.44493
1.41564
1.38614
1.35643
1.32651
1.29639
1.26605
1.2355
1.20473
1.17375
1.14255
1.11114
1.0795
1.04764
1.01555
0.98324
0.950702
0.917937
0.88494
0.851712
0.81825
0.784553
0.75062
0.716447
0.682035
0.647381
0.612484
0.577341
0.541952
0.506314
0.470426
0.434285
0.397892
0.36124
0.324332
0.287168
0.249733
0.212051
0.174086
0.135862
0.0973832
0.0586049
0.0195753
-20.4968
-24.6122
-28.3494
-27.6126
-25.1007
-22.579
-18.1876
-13.2082
-9.10313
-5.89791
-3.2635
-1.28836
0.107458
0.966078
1.53257
1.87803
2.07782
2.19791
2.26812
2.3061
2.32304
2.32616
2.32018
2.3082
2.29222
2.27357
2.25312
2.23145
2.20893
2.1858
2.16221
2.13828
2.11406
2.08959
2.06491
2.04003
2.01495
1.98968
1.96423
1.93859
1.91278
1.88677
1.86059
1.83421
1.80766
1.78091
1.75398
1.72686
1.69954
1.67204
1.64434
1.61645
1.58836
1.56007
1.53159
1.5029
1.47402
1.44493
1.41564
1.38614
1.35643
1.32651
1.29639
1.26605
1.2355
1.20473
1.17375
1.14255
1.11114
1.0795
1.04764
1.01555
0.98324
0.950703
0.917937
0.88494
0.851712
0.81825
0.784553
0.75062
0.716447
0.682035
0.647381
0.612484
0.577341
0.541952
0.506314
0.470426
0.434285
0.397892
0.36124
0.324332
0.287168
0.249733
0.212051
0.174086
0.135862
0.0973832
0.058605
0.0195753
-20.7797
-24.2366
-27.6467
-26.9866
-24.5592
-22.1069
-17.8806
-13.0326
-9.11042
-6.11461
-3.52143
-1.33652
0.251782
1.11511
1.57246
1.86348
2.06107
2.18582
2.25994
2.30073
2.31954
2.32387
2.3187
2.30724
2.29159
2.27317
2.25286
2.23129
2.20882
2.18573
2.16217
2.13825
2.11404
2.08958
2.0649
2.04002
2.01495
1.98968
1.96423
1.93859
1.91277
1.88677
1.86059
1.83421
1.80766
1.78091
1.75398
1.72686
1.69954
1.67204
1.64434
1.61645
1.58836
1.56007
1.53159
1.5029
1.47402
1.44493
1.41564
1.38614
1.35643
1.32651
1.29639
1.26605
1.2355
1.20473
1.17375
1.14255
1.11114
1.0795
1.04764
1.01555
0.98324
0.950703
0.917937
0.88494
0.851712
0.81825
0.784553
0.75062
0.716447
0.682035
0.647381
0.612484
0.577341
0.541952
0.506314
0.470426
0.434285
0.397892
0.36124
0.324332
0.287168
0.249733
0.212051
0.174086
0.135862
0.0973832
0.058605
0.0195754
-20.9865
-23.9693
-27.0789
-26.4414
-24.1312
-21.7493
-17.5589
-12.9845
-9.29265
-6.31401
-3.64493
-1.58674
-0.155688
0.804842
1.44399
1.8248
2.04343
2.1752
2.25313
2.29623
2.31658
2.32193
2.31743
2.30641
2.29106
2.27282
2.25264
2.23115
2.20873
2.18567
2.16213
2.13823
2.11402
2.08957
2.0649
2.04002
2.01494
1.98968
1.96423
1.93859
1.91277
1.88677
1.86059
1.83421
1.80766
1.78091
1.75398
1.72686
1.69954
1.67204
1.64434
1.61645
1.58836
1.56007
1.53159
1.5029
1.47402
1.44493
1.41564
1.38614
1.35643
1.32651
1.29639
1.26605
1.2355
1.20473
1.17375
1.14255
1.11114
1.0795
1.04764
1.01555
0.98324
0.950703
0.917937
0.88494
0.851712
0.81825
0.784553
0.75062
0.716447
0.682035
0.647381
0.612484
0.577341
0.541952
0.506314
0.470426
0.434285
0.397892
0.36124
0.324332
0.287168
0.249733
0.212051
0.174086
0.135862
0.0973831
0.0586051
0.0195754
-21.1872
-23.6648
-26.5914
-26.0232
-23.7537
-21.4143
-17.3081
-12.8249
-9.3373
-6.52095
-3.80206
-1.525
0.0714478
0.992263
1.50696
1.82183
2.03252
2.16699
2.24748
2.29245
2.31409
2.32029
2.31636
2.30572
2.29061
2.27253
2.25246
2.23103
2.20866
2.18563
2.1621
2.13821
2.11401
2.08957
2.06489
2.04002
2.01494
1.98968
1.96423
1.93859
1.91277
1.88677
1.86059
1.83421
1.80766
1.78091
1.75398
1.72686
1.69954
1.67204
1.64434
1.61645
1.58836
1.56007
1.53159
1.5029
1.47402
1.44493
1.41564
1.38614
1.35643
1.32651
1.29639
1.26605
1.2355
1.20473
1.17375
1.14255
1.11114
1.0795
1.04764
1.01555
0.98324
0.950703
0.917937
0.88494
0.851712
0.81825
0.784553
0.75062
0.716447
0.682035
0.647381
0.612484
0.577341
0.541952
0.506314
0.470426
0.434285
0.397892
0.36124
0.324332
0.287168
0.249733
0.212051
0.174086
0.135862
0.0973831
0.0586051
0.0195754
-21.3315
-23.4908
-26.1777
-25.666
-23.5007
-21.1489
-17.0109
-12.7044
-9.45858
-6.62568
-3.9232
-1.72535
-0.233802
0.760831
1.39763
1.79013
2.01954
2.15987
2.24293
2.28945
2.31213
2.319
2.31552
2.30517
2.29025
2.2723
2.25231
2.23093
2.2086
2.18559
2.16208
2.13819
2.114
2.08956
2.06489
2.04001
2.01494
1.98968
1.96423
1.93859
1.91277
1.88677
1.86059
1.83421
1.80766
1.78091
1.75398
1.72686
1.69954
1.67204
1.64434
1.61645
1.58836
1.56007
1.53159
1.5029
1.47402
1.44493
1.41564
1.38614
1.35643
1.32651
1.29639
1.26605
1.2355
1.20473
1.17375
1.14255
1.11114
1.0795
1.04764
1.01555
0.98324
0.950703
0.917937
0.88494
0.851712
0.81825
0.784553
0.75062
0.716447
0.682035
0.647381
0.612484
0.577341
0.541952
0.506314
0.470426
0.434285
0.397892
0.36124
0.324332
0.287168
0.249733
0.212051
0.174086
0.135862
0.097383
0.0586052
0.0195754
-21.4676
-23.2874
-25.8577
-25.4354
-23.3052
-20.9503
-16.7597
-12.5619
-9.55017
-6.92438
-4.15269
-1.75106
-0.118784
0.862955
1.43589
1.79033
2.01688
2.15538
2.23975
2.28725
2.31067
2.31804
2.31489
2.30476
2.28999
2.27213
2.2522
2.23086
2.20855
2.18556
2.16206
2.13818
2.114
2.08956
2.06489
2.04001
2.01494
1.98968
1.96423
1.93859
1.91277
1.88677
1.86059
1.83421
1.80766
1.78091
1.75398
1.72686
1.69954
1.67204
1.64434
1.61645
1.58836
1.56007
1.53159
1.5029
1.47402
1.44493
1.41564
1.38614
1.35643
1.32651
1.29639
1.26605
1.2355
1.20473
1.17375
1.14255
1.11114
1.0795
1.04764
1.01555
0.98324
0.950703
0.917937
0.88494
0.851712
0.81825
0.784553
0.75062
0.716447
0.682035
0.647381
0.612484
0.577341
0.541952
0.506314
0.470426
0.434285
0.397892
0.36124
0.324332
0.287168
0.249733
0.212051
0.174086
0.135862
0.097383
0.0586052
0.0195755
-21.56
-23.1757
-25.5734
-25.2496
-23.2549
-20.7592
-16.4724
-12.4342
-9.64279
-6.96608
-4.11933
-1.82591
-0.247393
0.764031
1.39475
1.77676
2.01113
2.15238
2.23778
2.28628
2.30984
2.31747
2.31451
2.30451
2.28983
2.27203
2.25214
2.23082
2.20853
2.18554
2.16205
2.13818
2.11399
2.08955
2.06489
2.04001
2.01494
1.98968
1.96423
1.93859
1.91277
1.88677
1.86059
1.83421
1.80766
1.78091
1.75398
1.72686
1.69954
1.67204
1.64434
1.61645
1.58836
1.56007
1.53159
1.5029
1.47402
1.44493
1.41564
1.38614
1.35643
1.32651
1.29639
1.26605
1.2355
1.20473
1.17375
1.14255
1.11114
1.0795
1.04764
1.01555
0.98324
0.950703
0.917937
0.88494
0.851712
0.81825
0.784553
0.75062
0.716447
0.682035
0.647381
0.612484
0.577341
0.541952
0.506314
0.470426
0.434285
0.397892
0.36124
0.324332
0.287168
0.249733
0.212051
0.174086
0.135862
0.097383
0.0586053
0.0195755
-21.618
-23.1011
-25.4195
-25.1743
-23.2072
-20.6642
-16.3324
-12.2948
-9.63759
-7.06881
-4.24007
-1.84106
-0.205079
0.802891
1.40934
1.77979
2.01051
2.15137
2.23691
2.28562
2.3094
2.31717
2.31431
2.30438
2.28975
2.27198
2.2521
2.2308
2.20852
2.18554
2.16205
2.13817
2.11399
2.08955
2.06488
2.04001
2.01494
1.98968
1.96423
1.93859
1.91277
1.88677
1.86059
1.83421
1.80766
1.78091
1.75398
1.72686
1.69954
1.67204
1.64434
1.61645
1.58836
1.56007
1.53159
1.5029
1.47402
1.44493
1.41564
1.38614
1.35643
1.32651
1.29639
1.26605
1.2355
1.20473
1.17375
1.14255
1.11114
1.0795
1.04764
1.01555
0.98324
0.950703
0.917937
0.88494
0.851712
0.81825
0.784553
0.75062
0.716447
0.682035
0.647381
0.612484
0.577341
0.541952
0.506314
0.470426
0.434285
0.397892
0.36124
0.324332
0.287168
0.249733
0.212051
0.174087
0.135862
0.0973829
0.0586054
0.0195755
-26.3204
-29.646
-37.055
-44.7793
-43.2314
-32.7981
-18.2332
-6.3004
1.4343
4.53909
5.3162
5.09145
4.54743
3.99544
3.54256
3.2021
2.95391
2.77537
2.64726
2.55393
2.48458
2.43115
2.38822
2.35216
2.32053
2.29175
2.26477
2.23888
2.21366
2.1888
2.16411
2.13947
2.11481
2.09006
2.06521
2.04021
2.01506
1.98975
1.96427
1.93862
1.91279
1.88678
1.86059
1.83422
1.80766
1.78091
1.75398
1.72686
1.69954
1.67204
1.64434
1.61645
1.58836
1.56007
1.53159
1.5029
1.47402
1.44493
1.41564
1.38614
1.35643
1.32651
1.29639
1.26605
1.2355
1.20473
1.17375
1.14255
1.11114
1.0795
1.04764
1.01555
0.98324
0.950703
0.917937
0.88494
0.851712
0.81825
0.784553
0.75062
0.716447
0.682035
0.647381
0.612484
0.577341
0.541952
0.506314
0.470427
0.434284
0.397892
0.36124
0.324333
0.287167
0.249733
0.212051
0.174086
0.135862
0.0973826
0.0586055
0.0195755
-25.9475
-29.913
-37.3237
-45.165
-43.6467
-33.1012
-18.4153
-6.43205
1.3604
4.50123
5.28708
5.07
4.53191
3.98435
3.53477
3.19674
2.9503
2.77299
2.64559
2.55302
2.48401
2.43079
2.388
2.35202
2.32044
2.2917
2.26473
2.23886
2.21364
2.18879
2.1641
2.13947
2.11481
2.09006
2.06521
2.04021
2.01506
1.98975
1.96427
1.93862
1.91279
1.88678
1.86059
1.83422
1.80766
1.78091
1.75398
1.72686
1.69954
1.67204
1.64434
1.61645
1.58836
1.56007
1.53159
1.5029
1.47402
1.44493
1.41564
1.38614
1.35643
1.32651
1.29639
1.26605
1.2355
1.20473
1.17375
1.14255
1.11114
1.0795
1.04764
1.01555
0.98324
0.950703
0.917937
0.88494
0.851712
0.81825
0.784553
0.75062
0.716447
0.682035
0.647381
0.612484
0.577341
0.541952
0.506314
0.470427
0.434284
0.397892
0.36124
0.324333
0.287167
0.249733
0.212051
0.174086
0.135862
0.0973827
0.0586054
0.0195755
-26.6814
-30.5773
-37.8903
-46.075
-44.4412
-33.7551
-18.835
-6.68079
1.22588
4.41823
5.22732
5.02589
4.50028
3.96224
3.51963
3.18656
2.94362
2.76868
2.64286
2.5513
2.48293
2.43011
2.38757
2.35175
2.32027
2.29159
2.26466
2.23882
2.21362
2.18877
2.16409
2.13946
2.1148
2.09006
2.0652
2.04021
2.01506
1.98975
1.96427
1.93862
1.91279
1.88678
1.86059
1.83422
1.80766
1.78091
1.75398
1.72686
1.69954
1.67204
1.64434
1.61645
1.58836
1.56007
1.53159
1.5029
1.47402
1.44493
1.41564
1.38614
1.35643
1.32651
1.29639
1.26605
1.2355
1.20473
1.17375
1.14255
1.11114
1.0795
1.04764
1.01555
0.98324
0.950703
0.917937
0.88494
0.851712
0.81825
0.784553
0.75062
0.716447
0.682035
0.647381
0.612484
0.577341
0.541952
0.506314
0.470427
0.434284
0.397892
0.36124
0.324333
0.287167
0.249733
0.212051
0.174086
0.135862
0.0973827
0.0586053
0.0195755
-25.9883
-31.79
-38.9282
-46.9507
-45.8281
-34.7235
-19.5206
-7.03901
1.02371
4.29124
5.13647
4.9588
4.45274
3.92968
3.49777
3.17203
2.93407
2.76247
2.63886
2.54873
2.48129
2.42906
2.3869
2.35132
2.32
2.29142
2.26455
2.23875
2.21357
2.18874
2.16408
2.13945
2.1148
2.09006
2.0652
2.04021
2.01506
1.98975
1.96427
1.93862
1.91279
1.88678
1.86059
1.83422
1.80766
1.78091
1.75398
1.72686
1.69954
1.67204
1.64434
1.61645
1.58836
1.56007
1.53159
1.5029
1.47402
1.44493
1.41564
1.38614
1.35643
1.32651
1.29639
1.26605
1.2355
1.20473
1.17375
1.14255
1.11114
1.0795
1.04764
1.01555
0.98324
0.950703
0.917937
0.88494
0.851712
0.81825
0.784553
0.75062
0.716447
0.682035
0.647381
0.612484
0.577341
0.541952
0.506314
0.470427
0.434284
0.397892
0.36124
0.324333
0.287167
0.249733
0.212051
0.174086
0.135862
0.0973827
0.0586052
0.0195755
-26.7771
-31.6716
-39.7737
-48.4513
-47.1397
-36.1354
-20.4133
-7.53271
0.744781
4.12267
5.01501
4.86908
4.38924
3.88638
3.46884
3.15288
2.9215
2.7543
2.63358
2.54532
2.4791
2.42766
2.386
2.35074
2.31963
2.29118
2.2644
2.23865
2.21351
2.18871
2.16405
2.13944
2.11479
2.09005
2.0652
2.0402
2.01506
1.98975
1.96427
1.93862
1.91279
1.88678
1.86059
1.83422
1.80766
1.78091
1.75398
1.72686
1.69954
1.67204
1.64434
1.61645
1.58836
1.56007
1.53159
1.5029
1.47402
1.44493
1.41564
1.38614
1.35643
1.32651
1.29639
1.26605
1.2355
1.20473
1.17375
1.14255
1.11114
1.0795
1.04764
1.01555
0.98324
0.950703
0.917936
0.88494
0.851712
0.81825
0.784553
0.75062
0.716447
0.682035
0.647381
0.612484
0.577341
0.541952
0.506314
0.470427
0.434284
0.397892
0.36124
0.324333
0.287167
0.249733
0.212051
0.174086
0.135863
0.0973827
0.0586052
0.0195755
-26.5923
-32.9912
-41.1062
-50.3145
-48.985
-37.6776
-21.5376
-8.15484
0.391839
3.90946
4.86288
4.75724
4.31037
3.83285
3.43325
3.1294
2.90612
2.74428
2.62709
2.54112
2.4764
2.42592
2.38488
2.35003
2.31917
2.29089
2.26422
2.23853
2.21344
2.18866
2.16402
2.13942
2.11477
2.09004
2.06519
2.0402
2.01506
1.98975
1.96427
1.93862
1.91279
1.88678
1.86059
1.83422
1.80766
1.78091
1.75398
1.72686
1.69954
1.67204
1.64434
1.61645
1.58836
1.56007
1.53159
1.5029
1.47402
1.44493
1.41564
1.38614
1.35643
1.32651
1.29639
1.26605
1.2355
1.20473
1.17375
1.14255
1.11114
1.0795
1.04764
1.01555
0.98324
0.950703
0.917936
0.88494
0.851712
0.81825
0.784553
0.750619
0.716447
0.682035
0.647381
0.612484
0.577341
0.541952
0.506314
0.470427
0.434284
0.397892
0.36124
0.324333
0.287167
0.249733
0.212051
0.174086
0.135863
0.0973828
0.0586051
0.0195754
-27.1752
-33.6067
-42.7674
-52.1926
-50.9535
-39.3167
-22.694
-8.88806
-0.0389872
3.65198
4.68026
4.62367
4.21641
3.76926
3.39111
3.10167
2.88797
2.73245
2.61941
2.53615
2.47319
2.42385
2.38355
2.34917
2.31863
2.29054
2.26399
2.23839
2.21335
2.1886
2.16398
2.13939
2.11476
2.09003
2.06519
2.0402
2.01505
1.98975
1.96427
1.93862
1.91279
1.88678
1.86059
1.83422
1.80766
1.78091
1.75398
1.72686
1.69954
1.67204
1.64434
1.61645
1.58836
1.56007
1.53159
1.5029
1.47402
1.44493
1.41564
1.38614
1.35643
1.32651
1.29639
1.26605
1.2355
1.20473
1.17375
1.14255
1.11114
1.0795
1.04764
1.01555
0.98324
0.950703
0.917936
0.88494
0.851712
0.81825
0.784553
0.750619
0.716447
0.682035
0.647381
0.612484
0.577341
0.541952
0.506314
0.470427
0.434284
0.397892
0.36124
0.324333
0.287167
0.249733
0.212051
0.174086
0.135863
0.0973828
0.0586051
0.0195754
-27.4095
-34.4633
-44.4254
-54.5126
-52.5427
-40.9651
-23.8535
-9.66625
-0.532659
3.35013
4.46744
4.46932
4.10824
3.69619
3.34277
3.06989
2.86719
2.7189
2.6106
2.53044
2.46949
2.42147
2.38202
2.34818
2.31799
2.29013
2.26373
2.23823
2.21324
2.18853
2.16394
2.13937
2.11474
2.09002
2.06518
2.04019
2.01505
1.98975
1.96427
1.93862
1.91279
1.88678
1.86059
1.83422
1.80766
1.78091
1.75398
1.72686
1.69954
1.67204
1.64434
1.61645
1.58836
1.56007
1.53159
1.5029
1.47402
1.44493
1.41564
1.38614
1.35643
1.32651
1.29639
1.26605
1.2355
1.20473
1.17375
1.14255
1.11114
1.0795
1.04764
1.01555
0.98324
0.950703
0.917936
0.88494
0.851712
0.81825
0.784553
0.750619
0.716447
0.682035
0.647381
0.612484
0.577341
0.541952
0.506314
0.470427
0.434284
0.397892
0.36124
0.324333
0.287167
0.249733
0.212051
0.174086
0.135863
0.0973828
0.058605
0.0195754
-27.3684
-35.3829
-46.1881
-56.5281
-54.4393
-42.381
-24.9368
-10.4445
-1.05761
3.00693
4.2245
4.29486
3.98661
3.61418
3.28856
3.03429
2.8439
2.70372
2.60073
2.52403
2.46534
2.41879
2.38029
2.34707
2.31728
2.28967
2.26344
2.23804
2.21312
2.18846
2.16389
2.13934
2.11472
2.09001
2.06517
2.04019
2.01505
1.98974
1.96427
1.93862
1.91279
1.88678
1.86059
1.83422
1.80766
1.78091
1.75398
1.72686
1.69954
1.67204
1.64434
1.61645
1.58836
1.56007
1.53159
1.5029
1.47402
1.44493
1.41564
1.38614
1.35643
1.32651
1.29639
1.26605
1.2355
1.20473
1.17375
1.14255
1.11114
1.0795
1.04764
1.01555
0.98324
0.950703
0.917936
0.88494
0.851712
0.81825
0.784553
0.750619
0.716447
0.682035
0.647381
0.612484
0.577341
0.541952
0.506314
0.470427
0.434284
0.397892
0.36124
0.324333
0.287167
0.249733
0.212051
0.174086
0.135863
0.0973828
0.058605
0.0195754
-27.474
-36.2262
-48.0427
-58.4431
-55.7226
-43.3304
-25.8477
-11.1658
-1.6002
2.62941
3.95283
4.1012
3.85257
3.52401
3.22897
2.99514
2.81829
2.68701
2.58985
2.51696
2.46076
2.41582
2.37837
2.34584
2.31649
2.28917
2.26312
2.23783
2.21299
2.18837
2.16384
2.1393
2.1147
2.09
2.06516
2.04018
2.01505
1.98974
1.96427
1.93862
1.91279
1.88678
1.86059
1.83422
1.80766
1.78091
1.75398
1.72686
1.69954
1.67204
1.64434
1.61645
1.58836
1.56007
1.53159
1.5029
1.47402
1.44493
1.41564
1.38614
1.35643
1.32651
1.29639
1.26605
1.2355
1.20473
1.17375
1.14255
1.11114
1.0795
1.04764
1.01555
0.98324
0.950703
0.917936
0.88494
0.851712
0.81825
0.784553
0.750619
0.716447
0.682035
0.647381
0.612484
0.577341
0.541952
0.506314
0.470427
0.434284
0.397892
0.36124
0.324333
0.287167
0.249733
0.212051
0.174086
0.135863
0.0973828
0.0586049
0.0195754
-27.2596
-36.8331
-49.7196
-59.7841
-56.362
-43.7903
-26.4988
-11.7881
-2.13776
2.22196
3.65433
3.88934
3.70702
3.42644
3.16448
2.95275
2.79053
2.66889
2.57803
2.50927
2.45577
2.41259
2.37629
2.3445
2.31563
2.28861
2.26276
2.23761
2.21285
2.18828
2.16378
2.13927
2.11468
2.08998
2.06516
2.04018
2.01504
1.98974
1.96427
1.93862
1.91279
1.88678
1.86059
1.83422
1.80766
1.78091
1.75398
1.72686
1.69954
1.67204
1.64434
1.61645
1.58836
1.56007
1.53159
1.5029
1.47402
1.44493
1.41564
1.38614
1.35643
1.32651
1.29639
1.26605
1.2355
1.20473
1.17375
1.14255
1.11114
1.0795
1.04764
1.01555
0.98324
0.950703
0.917936
0.88494
0.851712
0.81825
0.784553
0.750619
0.716447
0.682035
0.647381