/*--------------------------------*- C++ -*----------------------------------*\
| =========                 |                                                 |
| \\      /  F ield         | OpenFOAM: The Open Source CFD Toolbox           |
|  \\    /   O peration     | Version:  2.4.0                                 |
|   \\  /    A nd           | Web:      www.OpenFOAM.org                      |
|    \\/     M anipulation  |                                                 |
\*---------------------------------------------------------------------------*/
FoamFile
{
    version     2.0;
    format      ascii;
    class       volScalarField;
    location    "0.37";
    object      nuSgs;
}
// * * * * * * * * * * * * * * * * * * * * * * * * * * * * * * * * * * * * * //

dimensions      [0 2 -1 0 0 0 0];

internalField   nonuniform List<scalar> 
8800
(
0.00133959
0.00150562
0.00139422
0.00122661
0.00112408
0.00104631
0.00100165
0.000955466
0.000930769
0.000898781
0.000886096
0.000860105
0.000853882
0.000833604
0.00082654
0.00080916
0.000799531
0.000783367
0.000766848
0.000747643
0.000557503
0.000980079
0.0010844
0.00108057
0.00106494
0.00102934
0.00100684
0.00097257
0.000954197
0.000925557
0.000914028
0.000888495
0.000881886
0.000863512
0.000856871
0.000842551
0.000836473
0.000822126
0.000814661
0.000804697
0.000136688
0.000401228
0.000588397
0.000654136
0.000710185
0.000732945
0.000754617
0.000758009
0.000761653
0.000757627
0.000756351
0.000749274
0.000746682
0.000739538
0.000737495
0.000730876
0.00072962
0.000723532
0.000722282
0.000716454
2.7252e-05
0.000124109
0.000239533
0.000304218
0.000358387
0.000395627
0.000428335
0.000452653
0.000478769
0.00048952
0.000506515
0.000519864
0.000525137
0.000536371
0.000545723
0.000549601
0.000557963
0.000564663
0.000571361
0.000574583
5.2257e-06
3.30796e-05
6.92254e-05
0.000112156
0.00013342
0.00016931
0.000187782
0.000211874
0.000234873
0.000251067
0.000262097
0.00028558
0.000292039
0.000306904
0.000317773
0.000333265
0.000341304
0.000361141
0.000369368
0.000388419
2.34259e-06
8.26555e-06
1.77862e-05
3.22603e-05
3.93767e-05
5.3594e-05
6.1808e-05
7.5554e-05
8.69854e-05
9.96259e-05
0.000105528
0.000121002
0.000126195
0.000137287
0.000143843
0.000156956
0.000163134
0.000179367
0.000186428
0.000204811
2.18039e-06
3.10139e-06
5.10235e-06
8.94865e-06
1.05934e-05
1.40274e-05
1.67437e-05
1.95185e-05
2.51759e-05
2.99509e-05
3.18553e-05
3.86255e-05
4.09931e-05
4.52844e-05
4.88639e-05
5.56831e-05
5.89781e-05
6.70774e-05
7.19975e-05
8.38712e-05
2.16056e-06
2.64751e-06
3.14521e-06
3.97366e-06
4.29965e-06
5.32967e-06
5.98289e-06
6.19205e-06
6.96516e-06
7.99462e-06
8.39196e-06
1.05288e-05
1.11122e-05
1.18033e-05
1.32993e-05
1.51485e-05
1.58673e-05
1.76065e-05
2.24865e-05
2.55149e-05
2.14294e-06
2.46014e-06
3.20993e-06
3.84591e-06
3.75529e-06
3.78093e-06
4.11473e-06
4.30364e-06
4.50542e-06
4.59124e-06
4.59715e-06
4.79432e-06
4.82821e-06
4.87644e-06
5.08808e-06
5.20146e-06
5.30719e-06
5.6053e-06
6.86588e-06
7.29997e-06
2.13286e-06
2.46171e-06
3.136e-06
3.5002e-06
3.48364e-06
3.68625e-06
4.13218e-06
4.15412e-06
4.12419e-06
4.06872e-06
4.03298e-06
4.07524e-06
4.276e-06
4.38152e-06
4.40894e-06
4.35889e-06
4.28066e-06
4.29654e-06
4.36403e-06
4.5919e-06
2.13488e-06
2.55569e-06
2.84076e-06
3.3882e-06
3.75015e-06
3.99888e-06
3.98289e-06
3.852e-06
3.88566e-06
3.92326e-06
4.01366e-06
4.27915e-06
4.27819e-06
4.27104e-06
4.25388e-06
4.19645e-06
4.1894e-06
4.21929e-06
4.30607e-06
4.45906e-06
2.14312e-06
2.47977e-06
2.89999e-06
3.76186e-06
3.96387e-06
4.06258e-06
4.02679e-06
4.03578e-06
4.14216e-06
4.2613e-06
4.59764e-06
4.76424e-06
4.82499e-06
4.91595e-06
4.89326e-06
4.98223e-06
5.28492e-06
5.66879e-06
5.88203e-06
6.41584e-06
2.15814e-06
2.56083e-06
3.17957e-06
4.2538e-06
4.5221e-06
5.03432e-06
5.36351e-06
6.07786e-06
6.53342e-06
7.97534e-06
8.75432e-06
9.91736e-06
1.12042e-05
1.23884e-05
1.28039e-05
1.44401e-05
1.57172e-05
1.82452e-05
1.96346e-05
2.25509e-05
2.18626e-06
3.08487e-06
5.16628e-06
9.25029e-06
1.09744e-05
1.37436e-05
1.60238e-05
2.05067e-05
2.32739e-05
3.00171e-05
3.28613e-05
3.82115e-05
4.1043e-05
4.64522e-05
4.87412e-05
5.49045e-05
5.85347e-05
6.61789e-05
7.02416e-05
7.98262e-05
2.34858e-06
8.2355e-06
1.80719e-05
3.38432e-05
4.0808e-05
5.19305e-05
6.0794e-05
7.63015e-05
8.40875e-05
0.000100926
0.000107577
0.000120145
0.000126127
0.000138124
0.000143366
0.00015654
0.000162995
0.000177149
0.00018416
0.000201535
5.22423e-06
3.30005e-05
6.97676e-05
0.000114956
0.000136962
0.000162374
0.000189759
0.000214293
0.00022781
0.000255106
0.000264806
0.000282879
0.000291517
0.000308833
0.000316014
0.000333798
0.000341452
0.000359197
0.000367095
0.000386347
2.72526e-05
0.000123833
0.000239813
0.000306189
0.000357821
0.000392047
0.00043157
0.000452795
0.000473875
0.000494627
0.000505645
0.00051755
0.000526875
0.000537291
0.000541916
0.000552337
0.000556119
0.000565619
0.00056918
0.000577166
0.000136619
0.000400505
0.000588987
0.000654658
0.000709256
0.000732344
0.000755819
0.000757344
0.000761451
0.000758023
0.000756236
0.000748738
0.000746661
0.000739303
0.000737206
0.000730898
0.000729285
0.000724757
0.000722869
0.000718223
0.000557106
0.00098025
0.00108441
0.00108054
0.00106471
0.00102953
0.00100662
0.000971949
0.000955672
0.000924096
0.000913691
0.000889347
0.000881966
0.000862423
0.000858038
0.000841106
0.000837567
0.000822129
0.000817271
0.000804098
0.00133925
0.00150577
0.00139413
0.00122656
0.00112392
0.00104676
0.00100106
0.000955349
0.000931953
0.000897399
0.000886373
0.000860429
0.000854512
0.000832266
0.000828941
0.000807156
0.000803392
0.000779468
0.000772185
0.00074306
0.000336282
0.000278682
0.000246051
0.000228954
0.000220268
0.000216074
0.000212696
0.000210761
0.000208364
0.000205445
0.00020237
0.000197044
0.000190218
0.000179743
0.00016901
0.000156455
0.000144855
0.000134222
0.00012543
0.000118019
0.000114246
0.000112694
0.000109761
0.000108696
0.000109039
0.000110312
0.000113563
0.000116643
0.000120087
0.000122068
0.000123165
0.000122747
0.000121506
0.000119043
0.000114987
0.000111541
0.000105682
0.000100539
9.60765e-05
9.21613e-05
8.9432e-05
8.78243e-05
8.80807e-05
8.94312e-05
9.19443e-05
9.72095e-05
0.000101058
0.000109341
0.000114486
0.000122061
0.000128167
0.000133036
0.000138996
0.000141851
0.000146716
0.000148404
0.000151104
0.000152323
0.000153621
0.000154648
0.000154806
0.000155457
0.000155459
0.00015554
0.000155342
0.000154831
0.00015456
0.000154174
0.000153283
0.000152862
0.000151963
0.000151472
0.000150135
0.000148905
0.000147939
0.000145291
0.000143761
0.000140517
0.000137751
0.000135134
0.000129726
0.000126973
0.000122022
0.000116797
0.000112674
0.000106336
0.000102965
9.66534e-05
9.19754e-05
8.66028e-05
7.95897e-05
7.38652e-05
6.68247e-05
6.06955e-05
5.35813e-05
4.71296e-05
4.06226e-05
3.50359e-05
2.98917e-05
2.52192e-05
2.2481e-05
1.88362e-05
1.70982e-05
1.60076e-05
1.43327e-05
1.45204e-05
1.43064e-05
1.43441e-05
1.52681e-05
1.58092e-05
1.7481e-05
2.21122e-05
2.83661e-05
4.07794e-05
7.31922e-05
0.000141242
0.00016056
0.000159928
0.000149909
0.000137538
0.000122546
0.000104501
8.7063e-05
7.5375e-05
6.90209e-05
6.5818e-05
6.47133e-05
6.4768e-05
6.57334e-05
6.63956e-05
6.61795e-05
6.54742e-05
6.36586e-05
6.25166e-05
6.23418e-05
6.30505e-05
6.40168e-05
6.57413e-05
6.92603e-05
7.91785e-05
8.73894e-05
8.94394e-05
8.88732e-05
8.57758e-05
7.34726e-05
6.03442e-05
5.35221e-05
5.00937e-05
4.94551e-05
4.97746e-05
5.00899e-05
5.1514e-05
5.12113e-05
5.19128e-05
5.15293e-05
5.0518e-05
4.93453e-05
4.72135e-05
4.61919e-05
4.59649e-05
4.6054e-05
4.7802e-05
5.14968e-05
6.42034e-05
7.50915e-05
8.24007e-05
8.34239e-05
8.25039e-05
7.98953e-05
7.39794e-05
7.12631e-05
6.75711e-05
6.60712e-05
6.11953e-05
6.15311e-05
5.67553e-05
6.40146e-05
5.96505e-05
6.80713e-05
6.25846e-05
6.46772e-05
6.31116e-05
5.89778e-05
6.08674e-05
5.61371e-05
5.62836e-05
5.17537e-05
5.00655e-05
4.87892e-05
4.84714e-05
5.2057e-05
6.47931e-05
6.63611e-05
6.57992e-05
6.65985e-05
6.73033e-05
6.93927e-05
7.15908e-05
7.85877e-05
0.000162934
0.000403638
0.000363828
0.000332073
0.000308054
0.000289783
0.000276301
0.000265324
0.000256657
0.000249293
0.000243041
0.000238046
0.000233492
0.0002296
0.000225359
0.000221457
0.00021682
0.000212201
0.000206979
0.000202447
0.000197636
0.000193464
0.000189761
0.000187405
0.00018395
0.000181435
0.000179037
0.000178103
0.000177235
0.000176648
0.000176274
0.000175041
0.000174152
0.000172134
0.000170402
0.000168007
0.000165248
0.000162756
0.000159747
0.000156547
0.000152785
0.000151216
0.000148335
0.000147281
0.000147829
0.000148615
0.000150667
0.000151953
0.000154283
0.000156088
0.000157351
0.00015925
0.000160187
0.000160956
0.000161579
0.000162123
0.000162622
0.00016258
0.000162594
0.000162252
0.000161868
0.000160879
0.000160213
0.000158573
0.000157623
0.000155438
0.000154191
0.000151357
0.000149704
0.000145868
0.000143804
0.000139567
0.000136521
0.000133212
0.000127801
0.000125343
0.000120259
0.000116747
0.000111635
0.000106147
0.000102453
9.6069e-05
9.2475e-05
8.59914e-05
8.0964e-05
7.55104e-05
7.02946e-05
6.54156e-05
5.96457e-05
5.52593e-05
5.01611e-05
4.58303e-05
4.13431e-05
3.72885e-05
3.33187e-05
2.96491e-05
2.65891e-05
2.31644e-05
2.13478e-05
1.84818e-05
1.68967e-05
1.56202e-05
1.38731e-05
1.3674e-05
1.30042e-05
1.29842e-05
1.3504e-05
1.36751e-05
1.43786e-05
1.59472e-05
1.78875e-05
2.2868e-05
2.93397e-05
3.7474e-05
5.54347e-05
0.000110181
0.00016051
0.000167919
0.000162364
0.000150567
0.000140331
0.000120609
9.84038e-05
8.15923e-05
7.21109e-05
6.71302e-05
6.48588e-05
6.43498e-05
6.46432e-05
6.65361e-05
6.67815e-05
6.58535e-05
6.4127e-05
6.38728e-05
6.34005e-05
6.28862e-05
6.27726e-05
6.32324e-05
6.47527e-05
6.75134e-05
7.46896e-05
8.35474e-05
8.7949e-05
8.83087e-05
8.72036e-05
8.06625e-05
6.81493e-05
5.8544e-05
5.27184e-05
4.99833e-05
5.03104e-05
5.02961e-05
4.98415e-05
5.04322e-05
4.90649e-05
4.92645e-05
4.78196e-05
4.68955e-05
4.51232e-05
4.26438e-05
4.18031e-05
4.1621e-05
4.22151e-05
4.46133e-05
5.03163e-05
6.67051e-05
7.68345e-05
8.21816e-05
8.22519e-05
8.16534e-05
7.97419e-05
7.63716e-05
6.90243e-05
6.95851e-05
6.36046e-05
6.94203e-05
6.36749e-05
6.93274e-05
6.37899e-05
6.41702e-05
6.25628e-05
5.82359e-05
5.89647e-05
5.51896e-05
5.44992e-05
5.09545e-05
4.86684e-05
4.65132e-05
4.45546e-05
4.85146e-05
5.04809e-05
5.88899e-05
6.25339e-05
6.67374e-05
6.31688e-05
7.12681e-05
6.76469e-05
7.75626e-05
7.32038e-05
7.99795e-05
0.000102011
0.000370885
0.000346889
0.00032496
0.000307324
0.000292827
0.000281127
0.000270799
0.00026238
0.00025458
0.000247995
0.000241879
0.000237083
0.000232391
0.000228585
0.00022491
0.000221386
0.000218579
0.000214779
0.000212879
0.000208926
0.000207319
0.000204096
0.000202443
0.000200145
0.000197981
0.000196555
0.000194441
0.000193778
0.000192912
0.00019208
0.00019133
0.000190865
0.000189643
0.000188784
0.000188037
0.000185892
0.000185179
0.000183245
0.000181957
0.000180318
0.000177645
0.00017668
0.000174888
0.000173569
0.000171878
0.000170275
0.000169585
0.00016782
0.000167171
0.00016586
0.00016475
0.000164201
0.00016272
0.000161931
0.00016039
0.000159514
0.000157771
0.000156334
0.000153974
0.000152113
0.000149776
0.000146499
0.00014332
0.000140757
0.000135739
0.000132953
0.000126977
0.000123175
0.000116564
0.000111418
0.000104977
9.9072e-05
9.37579e-05
8.67516e-05
8.24253e-05
7.59278e-05
7.15158e-05
6.6444e-05
6.21954e-05
5.82334e-05
5.39741e-05
5.07151e-05
4.68095e-05
4.37245e-05
4.02939e-05
3.75639e-05
3.4507e-05
3.19559e-05
2.9347e-05
2.69132e-05
2.48117e-05
2.24004e-05
2.09127e-05
1.86072e-05
1.76694e-05
1.60819e-05
1.49816e-05
1.42932e-05
1.28715e-05
1.26642e-05
1.1941e-05
1.18475e-05
1.20441e-05
1.20675e-05
1.26636e-05
1.32605e-05
1.41657e-05
1.71284e-05
1.98304e-05
2.3567e-05
3.14049e-05
3.77187e-05
4.88475e-05
7.54398e-05
0.000144628
0.000173575
0.000172064
0.000162782
0.000156413
0.000142403
0.000119993
9.56743e-05
7.92117e-05
7.04989e-05
6.64027e-05
6.46388e-05
6.42908e-05
6.51014e-05
6.79287e-05
6.80765e-05
6.61965e-05
6.39187e-05
6.35534e-05
6.36115e-05
6.32741e-05
6.28135e-05
6.29686e-05
6.3838e-05
6.61777e-05
7.16774e-05
8.05938e-05
8.66198e-05
8.78809e-05
8.7414e-05
8.48211e-05
7.4599e-05
6.39073e-05
5.77006e-05
5.22203e-05
5.04504e-05
5.1023e-05
5.00149e-05
4.9261e-05
4.89135e-05
4.6765e-05
4.65914e-05
4.50274e-05
4.4266e-05
4.22353e-05
3.91132e-05
3.86311e-05
3.8535e-05
3.96224e-05
4.28778e-05
5.28952e-05
6.92556e-05
7.86599e-05
8.11713e-05
8.21473e-05
8.003e-05
8.21334e-05
7.40188e-05
7.94967e-05
7.09271e-05
7.51987e-05
6.87888e-05
6.68416e-05
6.41001e-05
5.8627e-05
5.85945e-05
5.57637e-05
5.4528e-05
5.06967e-05
4.95569e-05
4.65201e-05
4.45504e-05
4.47363e-05
4.58719e-05
5.61754e-05
5.66062e-05
5.87291e-05
5.83368e-05
6.28866e-05
6.83775e-05
7.04247e-05
7.87141e-05
8.00614e-05
9.16996e-05
9.19385e-05
9.65464e-05
0.000303887
0.000290603
0.000276517
0.000265284
0.000255207
0.000247518
0.000240382
0.000234036
0.000228177
0.000222688
0.000217125
0.000213076
0.000208889
0.000205891
0.00020342
0.000200201
0.000198636
0.000195038
0.000193508
0.000190413
0.000188957
0.000186721
0.000184438
0.000183551
0.000181185
0.000179953
0.000177962
0.000176929
0.000175425
0.000174305
0.000173888
0.000173248
0.000173479
0.000173385
0.000173605
0.000173627
0.000173427
0.000173171
0.000172629
0.000171706
0.000170693
0.000169263
0.000167947
0.000165425
0.000164041
0.000160942
0.000159209
0.000156103
0.000152798
0.000150793
0.000147124
0.000143941
0.00014057
0.000137981
0.000133564
0.000130958
0.000127211
0.000123474
0.000119748
0.000116228
0.000111662
0.000107219
0.000102555
9.74484e-05
9.15911e-05
8.62647e-05
7.99345e-05
7.45478e-05
6.8839e-05
6.39639e-05
5.89259e-05
5.47138e-05
5.07406e-05
4.6843e-05
4.37922e-05
4.04524e-05
3.78271e-05
3.49503e-05
3.2647e-05
3.01365e-05
2.8205e-05
2.60872e-05
2.44713e-05
2.2743e-05
2.1272e-05
1.99708e-05
1.84797e-05
1.75752e-05
1.6036e-05
1.54341e-05
1.41332e-05
1.34683e-05
1.27643e-05
1.19195e-05
1.17503e-05
1.11293e-05
1.10409e-05
1.06554e-05
1.05458e-05
1.06789e-05
1.07404e-05
1.12211e-05
1.16043e-05
1.22899e-05
1.40749e-05
1.58256e-05
1.82225e-05
2.36675e-05
2.71389e-05
3.32257e-05
4.03201e-05
4.8625e-05
6.43398e-05
0.0001088
0.00016982
0.000178098
0.00017221
0.0001694
0.000162684
0.000147447
0.00012043
9.41006e-05
7.75469e-05
6.9294e-05
6.60727e-05
6.46623e-05
6.43667e-05
6.5419e-05
6.79199e-05
6.81056e-05
6.67866e-05
6.45004e-05
6.37143e-05
6.32932e-05
6.24263e-05
6.23031e-05
6.24216e-05
6.37012e-05
6.62524e-05
7.21577e-05
7.97394e-05
8.45673e-05
8.70222e-05
8.70868e-05
8.60023e-05
7.94255e-05
6.87595e-05
6.00861e-05
5.5934e-05
5.16427e-05
5.05731e-05
5.07319e-05
4.88667e-05
4.86878e-05
4.75457e-05
4.46065e-05
4.39249e-05
4.22953e-05
4.15039e-05
3.90086e-05
3.68399e-05
3.5794e-05
3.56521e-05
3.67202e-05
4.06837e-05
5.08634e-05
7.01701e-05
7.49408e-05
8.43359e-05
8.20762e-05
8.98523e-05
8.37815e-05
8.6552e-05
7.93464e-05
7.60373e-05
7.09806e-05
6.48949e-05
6.31219e-05
5.88342e-05
5.70276e-05
5.32737e-05
5.18437e-05
4.93458e-05
4.76203e-05
4.41384e-05
4.27169e-05
4.53438e-05
4.9186e-05
5.70467e-05
6.10618e-05
6.84037e-05
8.22483e-05
7.77337e-05
8.35767e-05
7.73675e-05
8.90312e-05
8.3724e-05
9.43486e-05
9.2371e-05
9.89483e-05
0.00020825
0.00020246
0.000194046
0.000187607
0.000181715
0.000177639
0.000174532
0.000171924
0.000169283
0.000166817
0.000163656
0.00016113
0.000158644
0.000156887
0.000155292
0.000154148
0.000152442
0.000150747
0.000148499
0.000146564
0.000144288
0.000143146
0.000141357
0.000140787
0.000139766
0.000139067
0.000138825
0.000137677
0.000137188
0.00013634
0.000135615
0.00013489
0.000134118
0.00013383
0.00013379
0.000133963
0.000133985
0.000134166
0.000134112
0.000133839
0.000133317
0.000132012
0.000130883
0.000128345
0.000126794
0.000123625
0.000120779
0.000117805
0.000114063
0.000110245
0.000106241
0.000101858
9.70577e-05
9.2642e-05
8.72311e-05
8.30511e-05
7.84725e-05
7.46145e-05
7.05172e-05
6.71939e-05
6.35159e-05
6.01999e-05
5.6718e-05
5.34215e-05
4.98957e-05
4.65062e-05
4.30642e-05
3.97162e-05
3.64814e-05
3.35526e-05
3.07025e-05
2.83441e-05
2.60777e-05
2.42099e-05
2.23557e-05
2.08817e-05
1.93127e-05
1.80366e-05
1.67523e-05
1.55868e-05
1.46656e-05
1.36819e-05
1.3153e-05
1.22648e-05
1.19378e-05
1.12203e-05
1.09395e-05
1.03758e-05
9.97305e-06
9.80287e-06
9.31493e-06
9.31894e-06
9.17792e-06
9.24738e-06
9.26548e-06
9.30316e-06
9.54001e-06
9.65028e-06
9.99525e-06
1.03321e-05
1.09475e-05
1.22588e-05
1.35724e-05
1.60462e-05
1.947e-05
2.20772e-05
2.63441e-05
3.28814e-05
3.70684e-05
4.43362e-05
5.27439e-05
6.39965e-05
8.46354e-05
0.000146488
0.000180343
0.000179246
0.000172253
0.000172294
0.000167979
0.000153494
0.00012207
9.36042e-05
7.69685e-05
6.88234e-05
6.58805e-05
6.52265e-05
6.49755e-05
6.58595e-05
6.68124e-05
6.7143e-05
6.64802e-05
6.44772e-05
6.3624e-05
6.20243e-05
6.14633e-05
6.13995e-05
6.19394e-05
6.4105e-05
6.70165e-05
7.33937e-05
8.02382e-05
8.44284e-05
8.66982e-05
8.70067e-05
8.62314e-05
8.20314e-05
7.27748e-05
6.38802e-05
5.87705e-05
5.45772e-05
5.11778e-05
5.06254e-05
4.99386e-05
4.72761e-05
4.7493e-05
4.50762e-05
4.34203e-05
4.2146e-05
4.00961e-05
3.81597e-05
3.63492e-05
3.5302e-05
3.54571e-05
3.56014e-05
3.82406e-05
4.39225e-05
6.56832e-05
7.15197e-05
8.64946e-05
8.479e-05
8.95319e-05
8.60699e-05
8.6268e-05
8.40813e-05
7.84364e-05
7.41915e-05
6.65819e-05
6.38585e-05
5.8827e-05
5.736e-05
5.38106e-05
5.26035e-05
4.97524e-05
4.76412e-05
4.60943e-05
4.4545e-05
4.63067e-05
5.69691e-05
6.35429e-05
8.54949e-05
8.32019e-05
9.20221e-05
8.17985e-05
8.39146e-05
7.78743e-05
8.32788e-05
8.15719e-05
9.01677e-05
8.70536e-05
8.57481e-05
0.000111169
0.000109609
0.000106345
0.000102892
0.000100326
9.8053e-05
9.7622e-05
9.76356e-05
9.78605e-05
9.79257e-05
9.74604e-05
9.62558e-05
9.51472e-05
9.44806e-05
9.41264e-05
9.42721e-05
9.41897e-05
9.42409e-05
9.39132e-05
9.25928e-05
9.10912e-05
8.90914e-05
8.79439e-05
8.67654e-05
8.64402e-05
8.63357e-05
8.65881e-05
8.6927e-05
8.73028e-05
8.7931e-05
8.81101e-05
8.82714e-05
8.80249e-05
8.75277e-05
8.68898e-05
8.63864e-05
8.59506e-05
8.57378e-05
8.52818e-05
8.4805e-05
8.42322e-05
8.27485e-05
8.15879e-05
7.95194e-05
7.71825e-05
7.50726e-05
7.22867e-05
6.9647e-05
6.71739e-05
6.43156e-05
6.20171e-05
5.92385e-05
5.63903e-05
5.35288e-05
5.00941e-05
4.69131e-05
4.35846e-05
4.05019e-05
3.75088e-05
3.51199e-05
3.26998e-05
3.0799e-05
2.88809e-05
2.70971e-05
2.53407e-05
2.34812e-05
2.16965e-05
1.98943e-05
1.82236e-05
1.66702e-05
1.53444e-05
1.41346e-05
1.31636e-05
1.22917e-05
1.14262e-05
1.08263e-05
1.00815e-05
9.64567e-06
9.07318e-06
8.79382e-06
8.41156e-06
8.28908e-06
8.08387e-06
8.00745e-06
7.96034e-06
7.86689e-06
7.89076e-06
7.85832e-06
7.94224e-06
7.9748e-06
8.06055e-06
8.29384e-06
8.42013e-06
8.76364e-06
8.97341e-06
9.39945e-06
9.96462e-06
1.06573e-05
1.17802e-05
1.29787e-05
1.52037e-05
1.709e-05
2.00067e-05
2.43978e-05
2.76541e-05
3.15722e-05
3.80221e-05
4.47558e-05
4.97968e-05
5.83241e-05
7.20108e-05
8.59325e-05
0.000115572
0.000170483
0.000183039
0.00017546
0.000171739
0.000173222
0.000171801
0.000160569
0.000127667
9.61093e-05
7.74952e-05
6.87379e-05
6.5667e-05
6.58815e-05
6.62453e-05
6.65649e-05
6.69753e-05
6.71263e-05
6.60901e-05
6.45224e-05
6.36878e-05
6.24535e-05
6.20343e-05
6.16032e-05
6.26826e-05
6.49838e-05
7.01713e-05
7.54012e-05
8.18257e-05
8.43965e-05
8.57386e-05
8.66004e-05
8.61448e-05
8.28127e-05
7.64237e-05
6.78319e-05
6.06818e-05
5.7771e-05
5.31329e-05
5.06566e-05
5.04594e-05
4.89972e-05
4.59373e-05
4.57594e-05
4.31509e-05
4.33608e-05
4.20614e-05
3.93197e-05
3.79331e-05
3.58613e-05
3.60235e-05
3.61887e-05
3.83948e-05
4.09329e-05
5.63053e-05
6.38372e-05
8.09382e-05
8.25126e-05
8.58705e-05
8.51093e-05
8.38978e-05
8.33491e-05
8.07911e-05
7.7443e-05
7.07288e-05
6.64586e-05
6.0639e-05
5.84783e-05
5.51131e-05
5.37978e-05
5.05584e-05
4.98454e-05
5.01243e-05
5.21884e-05
5.34034e-05
6.57274e-05
6.8272e-05
7.49785e-05
7.018e-05
6.82605e-05
6.15935e-05
6.20851e-05
6.01216e-05
6.20133e-05
6.25388e-05
6.36817e-05
6.32148e-05
6.35167e-05
4.57115e-05
4.51492e-05
4.38609e-05
4.20078e-05
4.09938e-05
4.08139e-05
4.11098e-05
4.22796e-05
4.38747e-05
4.45974e-05
4.47051e-05
4.40228e-05
4.34343e-05
4.30536e-05
4.28766e-05
4.35315e-05
4.46453e-05
4.64604e-05
4.68432e-05
4.68478e-05
4.65481e-05
4.47769e-05
4.38295e-05
4.24068e-05
4.18094e-05
4.15787e-05
4.16505e-05
4.29602e-05
4.41518e-05
4.5864e-05
4.67188e-05
4.76176e-05
4.81234e-05
4.82225e-05
4.8203e-05
4.77861e-05
4.6808e-05
4.63899e-05
4.55789e-05
4.48834e-05
4.42265e-05
4.33453e-05
4.21702e-05
4.11621e-05
3.94449e-05
3.80578e-05
3.65561e-05
3.48615e-05
3.36983e-05
3.23172e-05
3.13395e-05
3.04378e-05
2.94075e-05
2.83008e-05
2.6597e-05
2.45714e-05
2.24262e-05
2.02568e-05
1.82578e-05
1.667e-05
1.52362e-05
1.42308e-05
1.33009e-05
1.24852e-05
1.17124e-05
1.08945e-05
1.00959e-05
9.40929e-06
8.74051e-06
8.20452e-06
7.80755e-06
7.41052e-06
7.22238e-06
6.98631e-06
6.88275e-06
6.87098e-06
6.87835e-06
6.89748e-06
6.93708e-06
7.0117e-06
7.06725e-06
7.21338e-06
7.29061e-06
7.46084e-06
7.53998e-06
7.72613e-06
7.86033e-06
8.04227e-06
8.41953e-06
8.66107e-06
9.24872e-06
9.61847e-06
1.0322e-05
1.12379e-05
1.18782e-05
1.32147e-05
1.42912e-05
1.62093e-05
1.77352e-05
2.07179e-05
2.26909e-05
2.58977e-05
3.0615e-05
3.41805e-05
3.92885e-05
4.44835e-05
5.28663e-05
5.87858e-05
6.63008e-05
8.09882e-05
0.000100825
0.000114545
0.000144579
0.00017889
0.000179757
0.000169151
0.00016937
0.000171833
0.000177704
0.000169599
0.000135951
0.000101163
7.91874e-05
6.95276e-05
6.5847e-05
6.61313e-05
6.72004e-05
6.67853e-05
6.73446e-05
6.75901e-05
6.60678e-05
6.50433e-05
6.36465e-05
6.29158e-05
6.24216e-05
6.2522e-05
6.45952e-05
6.74496e-05
7.40482e-05
7.83841e-05
8.22217e-05
8.44686e-05
8.53062e-05
8.62357e-05
8.6026e-05
8.26708e-05
7.69082e-05
7.09737e-05
6.45562e-05
5.95198e-05
5.71893e-05
5.27677e-05
5.02543e-05
5.01809e-05
4.63799e-05
4.57295e-05
4.37471e-05
4.23288e-05
4.17069e-05
3.92869e-05
3.85109e-05
3.63837e-05
3.69133e-05
3.64686e-05
3.7623e-05
3.8792e-05
4.31411e-05
5.18518e-05
6.41675e-05
7.6758e-05
7.85896e-05
8.13046e-05
7.99792e-05
8.06729e-05
7.96039e-05
7.87032e-05
7.51562e-05
7.07009e-05
6.45835e-05
6.11733e-05
5.58317e-05
5.49035e-05
5.20924e-05
5.4053e-05
5.39681e-05
5.83848e-05
5.87842e-05
6.49924e-05
6.6343e-05
6.42739e-05
5.57501e-05
5.50731e-05
5.41082e-05
5.42568e-05
5.39615e-05
5.35674e-05
5.32079e-05
5.37057e-05
5.38402e-05
5.37322e-05
1.37428e-05
1.33705e-05
1.29292e-05
1.24264e-05
1.22203e-05
1.22042e-05
1.24527e-05
1.35834e-05
1.45095e-05
1.49375e-05
1.49385e-05
1.44339e-05
1.40352e-05
1.37745e-05
1.37328e-05
1.47973e-05
1.62488e-05
1.78506e-05
1.83733e-05
1.84473e-05
1.81473e-05
1.66467e-05
1.56191e-05
1.4665e-05
1.40904e-05
1.38452e-05
1.38033e-05
1.48477e-05
1.64685e-05
1.82358e-05
1.95408e-05
2.04227e-05
2.12e-05
2.15094e-05
2.15596e-05
2.13564e-05
2.0327e-05
1.95288e-05
1.86923e-05
1.79979e-05
1.74177e-05
1.69387e-05
1.64542e-05
1.6081e-05
1.54622e-05
1.46252e-05
1.36847e-05
1.29027e-05
1.25607e-05
1.25597e-05
1.26366e-05
1.27235e-05
1.27543e-05
1.27787e-05
1.24765e-05
1.13192e-05
1.00364e-05
8.79911e-06
7.72031e-06
6.95427e-06
6.31778e-06
5.99507e-06
5.78787e-06
5.72472e-06
5.73851e-06
5.78591e-06
5.80933e-06
5.82895e-06
5.84988e-06
5.88287e-06
5.93516e-06
6.00302e-06
6.17634e-06
6.32759e-06
6.64777e-06
6.89472e-06
7.4025e-06
7.72005e-06
8.2876e-06
8.74082e-06
9.15152e-06
9.82403e-06
1.01113e-05
1.06571e-05
1.09302e-05
1.14981e-05
1.18298e-05
1.25236e-05
1.29298e-05
1.36167e-05
1.4644e-05
1.52513e-05
1.64907e-05
1.76543e-05
1.88232e-05
2.10003e-05
2.28132e-05
2.43753e-05
2.77733e-05
3.0731e-05
3.33627e-05
3.89198e-05
4.26065e-05
4.81153e-05
5.61821e-05
6.11465e-05
7.01689e-05
8.06076e-05
9.4261e-05
0.000121021
0.000131327
0.000135601
0.000152636
0.000175582
0.000171641
0.000164649
0.00016406
0.000165549
0.000180717
0.000180419
0.000152017
0.000112591
8.39945e-05
7.15636e-05
6.69472e-05
6.66959e-05
6.78537e-05
6.69876e-05
6.73368e-05
6.77963e-05
6.70218e-05
6.6653e-05
6.4331e-05
6.36798e-05
6.39044e-05
6.63642e-05
6.866e-05
7.576e-05
7.81061e-05
8.21747e-05
8.25574e-05
8.45763e-05
8.47312e-05
8.51128e-05
8.56146e-05
8.25367e-05
7.66371e-05
7.18217e-05
6.90202e-05
6.21483e-05
5.74844e-05
5.63031e-05
5.13487e-05
5.16138e-05
4.93971e-05
4.5689e-05
4.70335e-05
4.395e-05
4.36414e-05
4.1242e-05
4.0673e-05
3.77544e-05
3.85283e-05
3.72597e-05
3.74754e-05
3.72515e-05
3.79975e-05
4.28197e-05
4.75379e-05
6.18851e-05
6.8832e-05
7.70335e-05
7.76844e-05
7.83155e-05
7.77709e-05
7.7833e-05
7.67295e-05
7.39656e-05
6.71643e-05
6.42878e-05
5.76413e-05
5.64224e-05
5.3162e-05
5.39648e-05
5.34857e-05
5.46704e-05
5.54416e-05
5.62543e-05
5.55797e-05
5.22597e-05
5.10726e-05
5.19101e-05
5.23735e-05
5.28737e-05
5.18181e-05
5.10191e-05
5.14801e-05
5.1826e-05
5.23748e-05
5.33888e-05
3.98246e-06
3.94947e-06
3.86133e-06
3.76059e-06
3.70627e-06
3.69326e-06
3.70883e-06
3.86066e-06
4.04305e-06
4.19266e-06
4.23486e-06
4.22317e-06
4.17408e-06
4.15303e-06
4.17741e-06
4.68416e-06
5.25618e-06
5.63915e-06
5.74355e-06
5.62962e-06
5.27198e-06
4.82006e-06
4.57521e-06
4.43173e-06
4.36357e-06
4.35624e-06
4.38913e-06
4.48386e-06
4.96522e-06
5.38771e-06
6.27645e-06
6.76022e-06
7.32224e-06
7.63538e-06
7.71151e-06
7.68489e-06
7.27685e-06
6.65024e-06
6.10995e-06
5.64091e-06
5.30491e-06
5.04532e-06
4.84189e-06
4.72888e-06
4.65051e-06
4.46523e-06
4.23735e-06
4.08718e-06
4.084e-06
4.46546e-06
4.92429e-06
5.2566e-06
5.41594e-06
5.46736e-06
5.38285e-06
5.02686e-06
4.69337e-06
4.41553e-06
4.24358e-06
4.19159e-06
4.20994e-06
4.32765e-06
4.54243e-06
5.02527e-06
5.39497e-06
5.91538e-06
6.32913e-06
6.81295e-06
7.25283e-06
7.76357e-06
8.34783e-06
8.85676e-06
9.65724e-06
1.04372e-05
1.1273e-05
1.21243e-05
1.3166e-05
1.38232e-05
1.49477e-05
1.55512e-05
1.64195e-05
1.73253e-05
1.77338e-05
1.8542e-05
1.90147e-05
1.9597e-05
2.00767e-05
2.08716e-05
2.13784e-05
2.23186e-05
2.32742e-05
2.4309e-05
2.61529e-05
2.72871e-05
2.92433e-05
3.17831e-05
3.35403e-05
3.73067e-05
4.04628e-05
4.3591e-05
4.99825e-05
5.46813e-05
5.99483e-05
6.83721e-05
7.7e-05
8.4447e-05
9.58504e-05
0.000120265
0.000135329
0.000143094
0.000142639
0.000140933
0.00015188
0.000165122
0.000161134
0.000157867
0.000154104
0.000155456
0.000179221
0.000194964
0.000173261
0.000128714
9.11946e-05
7.46054e-05
6.86731e-05
6.76237e-05
6.83749e-05
6.85342e-05
6.79661e-05
6.78695e-05
6.87092e-05
6.96558e-05
6.94153e-05
7.01467e-05
7.06592e-05
7.4242e-05
7.73666e-05
8.14025e-05
8.19221e-05
8.28606e-05
8.25251e-05
8.37381e-05
8.40586e-05
8.41356e-05
8.53093e-05
8.22308e-05
7.63234e-05
7.29157e-05
7.1109e-05
6.72084e-05
5.81601e-05
5.90793e-05
5.63007e-05
5.14364e-05
5.38674e-05
4.78647e-05
5.36272e-05
4.8852e-05
5.09718e-05
4.76256e-05
4.89583e-05
4.4157e-05
4.71168e-05
4.17842e-05
4.4594e-05
4.01775e-05
4.07941e-05
4.20059e-05
4.46878e-05
5.26356e-05
5.73205e-05
6.78441e-05
7.50341e-05
7.67551e-05
7.7546e-05
7.73831e-05
7.66244e-05
7.51663e-05
7.15623e-05
6.90614e-05
6.21099e-05
5.89201e-05
5.48691e-05
5.40813e-05
5.38686e-05
5.28382e-05
5.2391e-05
5.26397e-05
5.28239e-05
5.17973e-05
5.11553e-05
5.21013e-05
5.19584e-05
5.08532e-05
5.0502e-05
5.06783e-05
5.18964e-05
5.39872e-05
5.66849e-05
5.8499e-05
2.51396e-06
2.5184e-06
2.53817e-06
2.60455e-06
2.61527e-06
2.61071e-06
2.60506e-06
2.62712e-06
2.65867e-06
2.68458e-06
2.68535e-06
2.67213e-06
2.67291e-06
2.74123e-06
2.78034e-06
2.81341e-06
2.80441e-06
2.79514e-06
2.79646e-06
2.8151e-06
2.8182e-06
2.81558e-06
2.7902e-06
2.7908e-06
2.7854e-06
2.79022e-06
2.78555e-06
2.7853e-06
2.7868e-06
2.78785e-06
2.80247e-06
2.87553e-06
3.05579e-06
3.23129e-06
3.34127e-06
3.37172e-06
3.36344e-06
3.24568e-06
3.13418e-06
3.03344e-06
2.95477e-06
2.88533e-06
2.8426e-06
2.80246e-06
2.79405e-06
2.79688e-06
2.80605e-06
2.82145e-06
2.90291e-06
3.15618e-06
3.42215e-06
3.67539e-06
3.84061e-06
3.95579e-06
4.09598e-06
4.24625e-06
4.37494e-06
4.59305e-06
5.17022e-06
5.5654e-06
6.25441e-06
7.35086e-06
8.13384e-06
9.48304e-06
1.01515e-05
1.14885e-05
1.23036e-05
1.34285e-05
1.44055e-05
1.52387e-05
1.68869e-05
1.76747e-05
1.91104e-05
2.03719e-05
2.14901e-05
2.29651e-05
2.41402e-05
2.5191e-05
2.65641e-05
2.72769e-05
2.84645e-05
2.91833e-05
2.98139e-05
3.06241e-05
3.09669e-05
3.16553e-05
3.20669e-05
3.27769e-05
3.3861e-05
3.45946e-05
3.58669e-05
3.77009e-05
3.93487e-05
4.09056e-05
4.41753e-05
4.62876e-05
4.99857e-05
5.50441e-05
5.84443e-05
6.47815e-05
7.0999e-05
7.68986e-05
8.66409e-05
9.64013e-05
0.000103973
0.000115969
0.000144679
0.000150855
0.000149558
0.000144891
0.000132086
0.000131232
0.000143923
0.000154284
0.000153082
0.000151695
0.000142416
0.000142471
0.000172214
0.000200726
0.000192278
0.000147782
0.000102292
7.98093e-05
7.06596e-05
6.81665e-05
6.85156e-05
6.96762e-05
6.97471e-05
6.86953e-05
6.931e-05
7.06562e-05
7.30371e-05
7.49983e-05
7.6478e-05
7.93216e-05
8.08611e-05
8.2719e-05
8.28694e-05
8.21743e-05
8.25583e-05
8.20118e-05
8.38474e-05
8.3834e-05
8.34477e-05
8.18735e-05
7.75873e-05
7.57253e-05
7.09635e-05
6.95334e-05
6.22844e-05
5.92307e-05
6.04888e-05
5.3442e-05
6.17314e-05
5.28582e-05
5.53995e-05
5.2077e-05
4.99182e-05
4.72337e-05
4.83743e-05
4.64865e-05
5.36724e-05
4.99631e-05
6.14742e-05
5.32091e-05
5.59098e-05
4.99338e-05
5.15123e-05
5.34431e-05
5.9642e-05
6.30834e-05
6.94533e-05
7.4947e-05
7.77788e-05
7.78247e-05
7.70731e-05
7.64997e-05
7.48538e-05
7.3537e-05
7.12798e-05
6.65292e-05
6.116e-05
5.85171e-05
5.72875e-05
5.50235e-05
5.39365e-05
5.32884e-05
5.33296e-05
5.28461e-05
5.23233e-05
5.20984e-05
5.17375e-05
5.17978e-05
5.22162e-05
5.41221e-05
5.52623e-05
5.77426e-05
6.00168e-05
6.13893e-05
2.47595e-06
2.49798e-06
2.54759e-06
2.59619e-06
2.59805e-06
2.58642e-06
2.58218e-06
2.58068e-06
2.58369e-06
2.6027e-06
2.6254e-06
2.62395e-06
2.61979e-06
2.59343e-06
2.57072e-06
2.55472e-06
2.54314e-06
2.5224e-06
2.51169e-06
2.50879e-06
2.53276e-06
2.59942e-06
2.66191e-06
2.69453e-06
2.69916e-06
2.68637e-06
2.64201e-06
2.60772e-06
2.58693e-06
2.5808e-06
2.58901e-06
2.62574e-06
2.66377e-06
2.69136e-06
2.73649e-06
2.77963e-06
2.85589e-06
2.91922e-06
2.96596e-06
2.98924e-06
3.00139e-06
3.01016e-06
3.0321e-06
3.06542e-06
3.17425e-06
3.30811e-06
3.53338e-06
3.91186e-06
4.14313e-06
4.53218e-06
4.91603e-06
5.52929e-06
5.98558e-06