/*--------------------------------*- C++ -*----------------------------------*\
| =========                 |                                                 |
| \\      /  F ield         | OpenFOAM: The Open Source CFD Toolbox           |
|  \\    /   O peration     | Version:  2.4.0                                 |
|   \\  /    A nd           | Web:      www.OpenFOAM.org                      |
|    \\/     M anipulation  |                                                 |
\*---------------------------------------------------------------------------*/
FoamFile
{
    version     2.0;
    format      ascii;
    class       volScalarField;
    location    "0.37";
    object      p;
}
// * * * * * * * * * * * * * * * * * * * * * * * * * * * * * * * * * * * * * //

dimensions      [0 2 -2 0 0 0 0];

internalField   nonuniform List<scalar> 
8800
(
79.4133
67.0415
59.661
56.1262
54.2386
52.8425
51.6287
50.5439
49.526
48.513
47.6408
46.6711
45.7606
44.9686
44.0993
43.2736
42.6531
41.9677
41.4459
41.0415
76.2991
66.6869
59.8308
56.2409
54.2978
52.8687
51.6352
50.5443
49.5256
48.5076
47.6398
46.6699
45.7531
44.9703
44.0974
43.2662
42.6553
41.9618
41.4458
40.9158
74.3318
66.7644
60.4352
56.6167
54.4638
52.9471
51.6811
50.5774
49.5501
48.5233
47.6517
46.6741
45.7507
44.9714
44.0923
43.2527
42.6537
41.9419
41.4812
40.9425
72.7943
66.8257
61.0239
57.043
54.6495
53.0323
51.7412
50.6331
49.5971
48.5627
47.6801
46.6908
45.76
44.9749
44.0848
43.2385
42.6366
41.9116
41.5204
41.1246
71.544
66.8009
61.503
57.4487
54.8168
53.0988
51.7903
50.6888
49.6509
48.6172
47.7105
46.7186
45.774
44.9783
44.0739
43.2317
42.5943
41.87
41.4069
41.4431
70.5585
66.7046
61.8702
57.801
54.9711
53.1404
51.8158
50.7308
49.7004
48.6729
47.7406
46.7484
45.7921
44.9719
44.0633
43.2209
42.549
41.832
41.3742
41.8456
69.8011
66.5942
62.1385
58.0822
55.1095
53.1709
51.8254
50.7607
49.7414
48.7167
47.7648
46.7741
45.8083
44.9628
44.0551
43.2052
42.5145
41.805
41.4271
42.0868
69.2493
66.4946
62.3217
58.2981
55.2333
53.1891
51.8214
50.7794
49.7726
48.7517
47.7846
46.7945
45.8193
44.9505
44.0483
43.1921
42.4857
41.8008
41.4666
42.2427
68.8905
66.4215
62.4374
58.4422
55.3208
53.2011
51.8176
50.7878
49.7949
48.7753
47.7958
46.8081
45.8268
44.9414
44.0418
43.1848
42.4684
41.7943
41.4946
42.3368
68.7157
66.38
62.4935
58.5161
55.3656
53.2076
51.8147
50.789
49.8075
48.7877
47.7998
46.8159
45.8326
44.9304
44.0394
43.1838
42.4534
41.7936
41.5121
42.363
68.7152
66.3816
62.4943
58.5131
55.3645
53.2093
51.8154
50.7866
49.8088
48.7892
47.7956
46.8186
45.8345
44.9257
44.0405
43.1874
42.4439
41.792
41.5082
42.3539
68.8899
66.4225
62.4383
58.4405
55.3207
53.2047
51.8175
50.7788
49.8015
48.7798
47.7811
46.8168
45.8365
44.9194
44.0442
43.1951
42.4383
41.7891
41.4876
42.2874
69.2467
66.4985
62.3246
58.295
55.2311
53.1949
51.8237
50.7652
49.7833
48.7598
47.7588
46.808
45.8349
44.9147
44.0509
43.2081
42.4388
41.7864
41.4486
42.1821
69.7972
66.5993
62.1402
58.08
55.1064
53.1788
51.8249
50.7416
49.7568
48.7297
47.7269
46.7943
45.8316
44.9093
44.059
43.2265
42.4478
41.7917
41.3899
41.9835
70.5541
66.7127
61.8728
57.7962
54.9645
53.1512
51.8173
50.7075
49.7215
48.6891
47.6893
46.7741
45.8243
44.8997
44.0683
43.2488
42.4656
41.8084
41.3466
41.713
71.5388
66.8107
61.5036
57.4436
54.8114
53.1113
51.7894
50.6586
49.6784
48.6401
47.6438
46.7496
45.8185
44.8872
44.0773
43.2694
42.4937
41.8374
41.3402
41.3804
72.7875
66.8377
61.026
57.0356
54.6403
53.0472
51.7417
50.5993
49.6271
48.5908
47.6021
46.7243
45.8112
44.8749
44.0845
43.2841
42.5263
41.8687
41.3707
41.0583
74.325
66.7757
60.4373
56.6092
54.4563
52.963
51.6808
50.5411
49.5801
48.553
47.5736
46.7046
45.8057
44.8704
44.0897
43.2941
42.5524
41.8948
41.4135
40.8989
76.2913
66.6975
59.8344
56.2341
54.2894
52.8833
51.6353
50.5097
49.5545
48.5362
47.5652
46.6978
45.8047
44.8747
44.0937
43.3012
42.5658
41.9111
41.3949
40.8084
79.4053
67.0514
59.6643
56.1197
54.231
52.8566
51.6277
50.5118
49.554
48.5378
47.5711
46.6985
45.8054
44.8793
44.0962
43.3028
42.5698
41.9156
41.3927
40.9337
40.6814
40.3616
40.0866
39.9804
40.0149
40.1179
40.2678
40.4485
40.6161
40.7731
40.8953
40.9417
40.8698
40.6499
40.2704
39.7323
39.0686
38.3531
37.6762
37.1333
36.7688
36.6321
36.672
36.7666
36.9887
37.393
37.913
38.4213
38.8114
39.036
39.0279
38.8261
38.422
37.8056
37.0015
35.9909
34.8
33.4431
31.9754
30.5276
29.1545
27.9469
27.0474
26.5
26.3256
26.5605
27.0884
27.9059
28.8843
29.9291
30.9992
31.9658
32.819
33.4875
33.948
34.1518
34.132
33.986
33.6484
33.2005
32.7584
32.3657
32.0829
31.9099
31.8496
31.8196
31.9926
32.2841
32.7193
33.2186
33.6044
34.0418
34.159
34.2906
34.232
33.8343
33.5111
32.9848
32.4722
31.9989
31.4908
31.0339
30.6639
30.4467
30.3621
30.3029
30.2565
30.391
30.4833
30.7042
30.9875
31.3468
31.9537
32.4052
33.116
34.0629
35.0148
36.2113
37.4945
39.0309
40.6798
42.2732
44.0829
45.8847
47.6275
49.5511
51.3183
53.1251
55.0787
56.9078
58.991
61.0779
62.9148
64.5938
65.9841
67.0095
67.0372
65.7509
63.4083
60.0222
55.3237
49.5652
43.0816
36.1882
28.9732
21.7728
15.0822
9.64903
5.62438
1.69647
-2.58712
-6.07954
-7.9301
-8.81773
-9.59898
-9.50662
-7.15833
-2.96695
1.66459
6.32977
11.0556
15.9809
21.8952
28.4096
34.6862
40.4388
45.6064
50.1789
53.8019
56.868
59.5497
61.4759
62.9301
64.1615
65.2021
65.9264
66.6475
67.2885
67.9113
68.4895
68.8139
69.1656
69.2298
68.9063
68.2589
67.3602
66.0131
64.0836
61.7802
59.0924
55.5168
51.4619
46.5662
41.2101
36.1115
29.3812
26.1449
18.7771
17.4405
11.9719
10.3248
7.1785
5.23544
4.33536
2.29484
2.99216
2.43376
3.93241
5.04281
7.69002
9.71981
13.2289
16.1934
20.0998
23.0731
28.8468
33.6878
39.9457
46.0547
50.8321
40.338
40.1576
40.0605
40.0032
40.0081
40.0999
40.2552
40.4476
40.6192
40.7509
40.8361
40.8491
40.7621
40.5275
40.1627
39.6467
39.0269
38.3818
37.7528
37.2567
36.8943
36.7279
36.7482
36.861
37.0653
37.4179
37.9009
38.378
38.7368
38.904
38.8878
38.6732
38.2553
37.6543
36.8544
35.8635
34.7373
33.4352
32.074
30.7249
29.4464
28.3753
27.5228
27.0405
26.8688
27.0422
27.5198
28.2023
29.1005
30.0175
30.9767
31.864
32.6295
33.2531
33.6919
33.9327
33.9399
33.8495
33.5984
33.223
32.8622
32.5375
32.288
32.1092
32.0771
32.035
32.1232
32.3696
32.7038
33.1147
33.4457
33.8137
33.9497
33.9754
33.9935
33.7559
33.3815
33.0077
32.584
32.2033
31.83
31.4198
31.2068
30.9894
30.9908
31.0333
31.028
31.2647
31.4405
31.7899
32.11
32.5289
33.1999
33.7676
34.5873
35.4565
36.4562
37.6836
38.8193
40.306
41.8616
43.2816
44.9923
46.6162
48.1761
49.9733
51.6258
53.4336
55.4353
57.2399
59.3726
61.6783
63.6063
65.3863
67.1663
68.3724
68.2232
66.7268
64.121
60.2645
54.9918
48.5831
41.6114
34.2942
26.764
19.5087
12.9211
7.43631
3.01444
-1.29436
-5.90755
-9.89353
-11.9429
-12.7795
-13.4826
-13.3837
-10.8596
-6.28533
-0.986039
4.20862
8.96424
14.0464
20.2181
26.9461
33.775
40.286
45.9621
50.8599
54.8758
58.1345
60.9745
62.9291
64.3833
65.6262
66.4397
67.0579
67.4867
67.9433
68.3895
68.6206
68.9577
68.9945
68.9254
68.7512
67.9908
67.2232
65.9333
64.1424
61.8399
59.3368
55.7343
51.6464
47.3007
41.0449
37.3552
29.3524
26.7828
20.0335
17.3171
13.7572
10.8388
8.50543
6.20989
5.889
4.28933
4.53852
4.55594
6.15917
7.08076
9.5959
11.3855
13.8083
16.7865
20.6806
23.672
29.4992
32.9833
40.1603
42.795
48.5099
40.3463
40.265
40.2773
40.2334
40.1487
40.1191
40.1838
40.3239
40.4824
40.6018
40.6889
40.698
40.6187
40.3838
40.0453
39.5669
38.9923
38.4373
37.8554
37.4312
37.0946
36.9028
36.9193
36.9755
37.1757
37.4646
37.8562
38.2942
38.5606
38.7237
38.6684
38.4251
38.0615
37.4159
36.6744
35.7537
34.6349
33.4847
32.2241
30.9692
29.8206
28.8757
28.0832
27.6545
27.5153
27.5952
28.0415
28.6105
29.3681
30.2171
31.0257
31.8238
32.5271
33.0589
33.4729
33.7594
33.7843
33.7211
33.5965
33.2803
32.9493
32.7271
32.5327
32.3322
32.2788
32.2933
32.3377
32.4947
32.7744
33.0834
33.3909
33.628
33.7496
33.7519
33.7323
33.6392
33.2647
32.9946
32.6808
32.4081
32.1338
31.8023
31.7368
31.5875
31.662
31.7797
31.912
32.2096
32.4268
32.8583
33.2703
33.7708
34.4629
35.0898
35.9217
36.7442
37.7386
38.9767
40.0301
41.3539
42.779
44.0891
45.6312
47.1036
48.6202
50.31
51.9048
53.6787
55.5644
57.4524
59.6769
61.9877
64.09
66.127
68.1069
69.2723
68.9588
67.2499
64.4077
60.2255
54.5479
47.7581
40.4369
32.5981
24.5733
17.0586
10.5401
5.20629
0.618404
-3.90764
-8.62282
-12.5942
-14.7447
-15.6813
-16.443
-16.2677
-13.5558
-8.70843
-2.94145
2.61381
7.56585
12.7653
18.8775
25.7484
33.1794
40.2092
46.285
51.5035
55.8134
59.3763
62.1245
64.2597
65.7633
66.8437
67.5957
68.0425
68.325
68.6166
68.7722
68.8632
68.9167
68.8924
68.7916
68.4689
67.814
67.0963
65.7102
64.1496
61.9735
59.2953
56.3425
51.5956
48.5398
41.317
38.3044
30.9873
27.0745
21.9647
17.9119
15.0826
12.1545
10.2788
8.25449
8.13728
7.09875
7.17863
7.69052
9.39791
10.1158
10.9142
12.7029
14.4759
17.0267
21.3143
24.9238
30.354
34.4355
40.3116
43.8559
48.2627
40.2564
40.2035
40.2834
40.1489
39.9754
39.922
39.9742
40.1188
40.2928
40.4336
40.5331
40.5337
40.468
40.2252
39.9208
39.4925
38.983
38.5225
37.9914
37.6303
37.3163
37.114
37.0894
37.1242
37.2762
37.5047
37.7981
38.1366
38.3903
38.486
38.4198
38.1656
37.7803
37.1782
36.4862
35.6312
34.6008
33.592
32.4381
31.33
30.3283
29.4641
28.7987
28.3943
28.2733
28.2916
28.6548
29.1648
29.7454
30.5144
31.2071
31.8684
32.5072
32.9681
33.3359
33.6084
33.6959
33.6683
33.5814
33.365
33.1224
32.9326
32.7584
32.6368
32.5435
32.5588
32.6208
32.6824
32.9159
33.1124
33.3239
33.4691
33.5655
33.5546
33.517
33.4752
33.1702
33.0246
32.7795
32.5952
32.4353
32.2253
32.2249
32.2169
32.3526
32.4785
32.7324
33.0824
33.3678
33.8841
34.385
34.9146
35.568
36.241
37.1361
37.9321
38.8691
40.0115
40.9663
42.2186
43.4971
44.7239
46.1633
47.4963
49.0416
50.6028
51.9604
53.6954
55.5286
57.3927
59.7124
62.0953
64.3251
66.5737
68.5382
69.4484
68.9996
67.1522
64.1357
59.8421
54.0066
47.1226
39.7273
31.738
23.4083
15.5071
8.84682
3.48524
-1.33561
-6.17392
-10.9075
-14.7403
-16.918
-18.0065
-18.8092
-18.2513
-15.3528
-10.336
-4.2207
1.6164
6.6977
11.9577
18.0408
25.0937
32.8768
40.1482
46.645
52.3085
56.7928
60.4521
63.4311
65.4487
67.0946
68.0878
68.6163
69.0336
69.1047
69.2516
69.1409
69.0978
68.9315
68.8628
68.5969
68.3168
67.6265
66.7964
65.6932
63.8196
62.3968
59.0711
57.0767
51.8364
49.5337
42.9065
38.8909
33.317
28.3857
23.9854
19.7274
16.8883
14.2282
12.8434
10.8856
10.4802
9.72924
9.91853
10.2661
11.715
12.1758
11.3538
12.0992
14.7581
16.3947
20.8753
24.4557
29.2521
33.6655
38.689
42.8848
45.2826
41.8554
41.4123
40.4973
39.7856
39.3975
39.3753
39.5564
39.8129
40.046
40.2311
40.348
40.3544
40.3278
40.0853
39.8287
39.4391
38.9852
38.6211
38.1002
37.8144
37.5073
37.311
37.3017
37.2509
37.3897
37.5408
37.7462
37.9965
38.1835
38.2234
38.1629
37.8831
37.4555
36.9732
36.2832
35.5112
34.6941
33.7289
32.7542
31.8479
30.897
30.2269
29.6699
29.198
29.1309
29.174
29.3478
29.8279
30.2915
30.8927
31.5004
32.0342
32.5804
32.9771
33.2947
33.5415
33.664
33.6647
33.6124
33.5081
33.33
33.1486
33.0376
32.9678
32.8254
32.8303
32.9331
32.8831
33.0049
33.1625
33.231
33.315
33.4396
33.3951
33.3576
33.342
33.147
33.0764
32.892
32.7601
32.7098
32.6614
32.6647
32.7657
32.9745
33.1299
33.4647
33.9195
34.2955
34.8048
35.3635
35.9545
36.6065
37.3153
38.2196
38.9137
39.7918
40.8598
41.7547
42.9447
44.0464
45.2514
46.6783
47.8758
49.3853
50.8599
52.0009
53.4814
55.194
57.1146
59.452
61.817
64.1094
66.4522
68.2367
68.829
68.1507
66.1844
63.1812
58.9283
53.0764
46.225
38.8834
31.0828
22.8925
14.9614
8.2748
2.76424
-2.23009
-7.26974
-12.2251
-16.144
-18.4586
-19.7009
-20.2539
-19.2756
-16.1487
-10.9042
-4.67342
1.24466
6.34545
11.6878
17.6854
24.8627
32.8428
40.4167
47.2165
53.1717
57.8842
61.6336
64.6509
66.7991
68.2478
69.3004
69.6474
69.8758
69.8389
69.744
69.6278
69.278
69.1803
68.8573
68.5651
68.0541
67.6586
66.2966
65.9704
63.4287
62.8212
59.023
57.6524
52.8976
49.9301
44.969
40.4606
35.4426
30.2589
26.3727
22.4071
19.4399
16.6604
15.5883
13.3125
13.0886
11.9785
12.1582
12.0521
12.6904
12.2163
11.1198
11.3508
14.5186
17.0443
20.7769
24.1578
27.9954
32.9997
36.8846
40.9522
43.4718
42.8143
42.2979
40.7947
39.5832
38.9041
38.8016
39.0684
39.435
39.7657
40.015
40.1754
40.1948
40.1999
39.9953
39.7398
39.4
39.0052
38.7007
38.2392
37.9774
37.6886
37.5186
37.4788
37.382
37.4919
37.5442
37.7076
37.8502
37.9423
38.0095
37.8793
37.6266
37.2479
36.7484
36.1701
35.4833
34.7688
33.9751
33.1403
32.4081
31.661
30.9985
30.5557
30.1373
30.0049
30.106
30.1562
30.5107
30.9381
31.3445
31.8579
32.3028
32.7361
33.08
33.3419
33.5831
33.6777
33.7149
33.7404
33.652
33.543
33.4284
33.3206
33.2351
33.1335
33.107
33.1355
33.0367
33.0758
33.1742
33.152
33.2397
33.3512
33.262
33.2552
33.2708
33.1289
33.073
32.981
32.9408
32.9847
33.0212
33.0341
33.2333
33.5567
33.788
34.1641
34.6799
35.137
35.6496
36.2495
36.9384
37.557
38.2041
39.1083
39.7882
40.6697
41.6447
42.4596
43.5853
44.5697
45.7741
47.1616
48.2876
49.6845
50.8875
51.8851
53.1652
54.522
56.3434
58.7483
61.1004
63.3179
65.5095
67.0332
67.2652
66.3322
64.3987
61.594
57.5622
52.0009
45.3121
37.9953
30.3062
22.3548
14.7298
8.13459
2.59881
-2.33889
-7.33255
-12.3584
-16.3974
-18.9987
-20.3777
-20.5553
-19.2283
-15.7171
-10.3919
-4.23714
1.44629
6.51826
11.8748
17.8907
25.1398
33.1691
40.9566
47.9462
54.1311
59.0368
62.8249
65.7773
68.0255
69.4369
70.3532
70.7116
70.6194
70.5726
70.1074
70.0381
69.4842
69.4435
68.7531
68.8639
67.5647
67.736
65.8489
65.9887
63.3423
62.8924
59.5145
57.7651
54.1775
50.6766
46.7232
42.0667
37.6356
32.75
29.146
25.3023
22.6173
19.5494
18.3797
16.0275
15.3241
14.1243
13.5828
13.2956
13.3203
12.7538
11.0236
11.9894
15.0588
17.8228
20.5518
23.9008
27.583
31.6638
35.7176
39.6351
41.6666
43.5146
42.9434
41.1198
39.5586
38.6381
38.411
38.6669
39.1201
39.4957
39.8102
40.024
40.0677
40.1129
39.9495
39.6789
39.3951
39.0259
38.7661
38.374
38.0904
37.8531
37.6466
37.6204
37.4947
37.5386
37.5703
37.6177
37.7707
37.7551
37.7927
37.6703
37.4023
37.1051
36.5927
36.1143
35.5374
34.8757
34.278
33.5677
32.9009
32.3521
31.751
31.3219
31.0857
30.853
30.9251
31.0181
31.1603
31.5631
31.8508
32.2206
32.6333
32.9273
33.2423
33.478
33.6544
33.7611
33.8312
33.8701
33.81
33.7817
33.6792
33.5494
33.5088
33.4001
33.2927
33.2882
33.1773
33.12
33.1881
33.1596
33.1728
33.2632
33.1762
33.1645
33.2026
33.0381
33.0549
33.1125
33.1001
33.1669
33.3028
33.4439
33.6926
34.0839
34.4092
34.7742
35.3393
35.9092
36.4718
37.087
37.7678
38.4226
39.0547
39.9456
40.6578
41.4239
42.3339
43.1926
44.2616
45.1274
46.2915
47.5313
48.499
49.8292
50.8117
51.6023
52.7728
53.7498
55.2181
57.4546
59.6572
61.8176
63.7756
64.9536
64.8025
63.7802
61.9618
59.49
56.0524
51.1562
44.8791
37.8444
30.3219
22.4473
15.1241
8.72966
3.20628
-1.68602
-6.57287
-11.4368
-15.437
-18.2025
-19.5407
-19.5856
-17.9005
-14.1979
-9.06404
-3.2405
2.03228
7.18798
12.4809
18.5967
25.8056
33.857
41.7675
48.9018
55.0896
60.1282
64.0068
66.8869
69.2168
70.7067
71.2758
71.8238
71.1473
71.1636
70.294
70.3713
69.3239
69.8243
68.508
69.025
67.2873
67.698
65.5848
65.5552
63.4534
62.452
59.9327
57.7276
55.0742
51.5953
48.3218
43.8775
40.2745
35.7884
32.2041
28.5876
26.0817
22.4292
20.8614
18.6236
17.2354
16.0047
14.6318
14.8771
14.5949
13.6543
12.4701
13.5765
16.7321
18.6113
21.1148
23.5966
26.936
31.0389
34.6952
38.0222
39.8512
43.7278
43.3095
41.3877
39.6625
38.6068
38.1986
38.3705
38.818
39.2361
39.6249
39.8624
39.9628
40.0447
39.9002
39.6476
39.3769
39.0501
38.8165
38.4747
38.1923
37.9779
37.7597
37.7193
37.5844
37.5732
37.6035
37.5686
37.7077
37.6186
37.5958
37.5387
37.2302
37.0002
36.5604
36.0823
35.6422
35.0389
34.5428
33.9884
33.3675
32.9331
32.4598
32.0384
31.8709
31.6709
31.6474
31.7762
31.8242
32.0993
32.3658
32.6195
32.9439
33.1768
33.4668
33.635
33.7726
33.9327
33.9362
34.008
34.033
33.9373
33.8928
33.7979
33.6861
33.5958
33.4597
33.4114
33.3298
33.2
33.2298
33.1983
33.0899
33.1684
33.152
33.0458
33.0703
33.0576
33.075
33.1518
33.2097
33.3336
33.5465
33.8207
34.092
34.4703
34.9878
35.3665
35.9595
36.6344
37.2095
37.8706
38.5219
39.2738
39.9259
40.6722
41.4468
42.1783
43.0002
43.8482
44.8443
45.6236
46.6888
47.8125
48.699
49.9603
50.7463
51.288
52.1634
52.734
53.8292
55.7309
57.5749
59.2054
61.2405
62.2304
61.8614
60.7613
59.1871
57.3042
54.525
50.3301
44.7073
38.1317
30.8582
23.1739
16.0695
9.82386
4.34209
-0.378202
-4.9998
-9.56158
-13.3435
-16.0874
-17.3044
-17.0815
-15.2673
-11.719
-6.93745
-1.80824
3.18202
8.24649
13.4733
19.6461
26.9421
34.9836
42.84
50.033
56.2991
61.2528
65.2074
68.0678
70.2949
72.0756
72.0358
72.8117
71.3358
71.4853
70.0445
70.5806
69.1178
69.8974
68.0045
68.9922
66.9413
67.251
65.582
64.7498
63.2742
62.1113
60.0728
57.7966
55.7831
52.6354
50.1001
46.0498
42.9402
39.1015
35.5151
31.7153
29.1183
25.4413
23.1352
21.0616
19.3864
18.3769
16.6004
16.0089
15.9449
15.5126
14.7125
15.1907
18.2763
19.9541
21.2842
24.3775
27.767
30.6144
33.5129
36.4748
38.1362
43.9637
43.5259
41.5785
39.7571
38.5941
38.0942
38.1565
38.6205
39.0538
39.4674
39.7595
39.8683
39.9921
39.8621
39.6265
39.3874
39.059
38.861
38.5451
38.2561
38.0866
37.8345
37.8077
37.6704
37.5966
37.6447
37.5408
37.6462
37.5613
37.4493
37.4535
37.1373
36.9171
36.6048
36.0893
35.7749
35.2511
34.7754
34.3943
33.8081
33.4375
33.0931
32.6863
32.5279
32.3961
32.3226
32.415
32.4484
32.6273
32.8562
33.0175
33.2839
33.4636
33.692
33.8579
33.9307
34.1226
34.0996
34.1527
34.2493
34.0746
34.0893
34.0367
33.8124
33.7893
33.6721
33.5037
33.4889
33.324
33.2131
33.2105
33.0725
33.0617
33.0888
32.9697
32.9695
33.1044
33.0283
33.1145
33.3367
33.4821
33.7126
34.0578
34.4297
34.8377
35.4615
35.9659
36.5463
37.2741
37.9502
38.6119
39.3352
40.042
40.6729
41.458
42.1694
42.9284
43.5901
44.363
45.2644
45.979
47.0968
48.0026
48.8993
50.1625
50.5593
50.9233
51.4725
51.4638
52.2718
53.9106
55.1911
56.7256
58.4423
59.2021
58.6917
57.4063
56.5746
55.3956
53.3108
49.9035
44.9191
38.7645
31.9378
24.6881
17.6748
11.2579
5.81065
1.32968
-2.977
-7.04335
-10.4776
-12.9631
-14.0158
-13.749
-11.9911
-8.73793
-4.55467
-0.0339168
4.74753
9.55935
14.8973
21.133
28.5972
36.4948
44.2285
51.3714
57.6379
62.4215
66.2451
69.3631
71.3122
73.1908
72.7454
73.1346
70.9721
71.1644
69.347
70.317
68.6098
69.5085
67.1678
67.9878
66.3747
66.2946
65.0965
64.1867
63.2475
61.9487
60.2463
58.4887
56.7014
53.9063
52.0782
48.2017
45.2129
41.9977
38.5173
34.5307
32.0612
28.9978
25.8368
23.8364
22.0079
20.7812
18.9068
17.9341
18.1396
17.2498
17.0034
17.4938
19.5762
21.7477
22.6223
25.1309
28.1551
30.5522
33.3293
35.6508
36.5438
44.0956
43.661
41.7053
39.8422
38.6089
38.0559
38.0519
38.4932
38.9348
39.3541
39.6753
39.7843
39.9213
39.8273
39.613
39.3875
39.0672
38.8727
38.5804
38.3117
38.1612
37.9114
37.8495
37.7488
37.6262
37.6756
37.5573
37.5871
37.5494
37.3678
37.3796
37.1131
36.8618
36.6543
36.1567
35.8899
35.487
35.0001
34.7522
34.2296
33.9022
33.659
33.2645
33.1405
33.0273
32.9378
32.9834
33.0048
33.1428
33.2914
33.4096
33.6538
33.7612
33.947
34.1348
34.1363
34.3233
34.3333
34.3055
34.4318
34.2825
34.2382
34.2399
34.009
33.9606
33.8881
33.6233
33.609
33.4082
33.1748
33.2411
33.0615
32.9419
33.0038
32.942
32.8417
33.002
33.0005
33.0225
33.4109
33.5494
33.7633
34.3155
34.7222
35.208
35.8571
36.5097
37.1247
37.8022
38.7405
39.3004
40.0171
40.865
41.4389
42.2324
42.8218
43.5438
44.1669
44.7383
45.6277
46.2533
47.2341
48.2111
49.166
50.2832
50.4127
50.4714
50.6533
50.3036
50.9191
52.4064
53.5405
54.7499
56.0771
56.5605
55.9814
55.0199
54.5367
53.8737
52.5499
50.0458
45.8227
40.3131
33.9816
27.0139
20.0351
13.6423
8.23047
3.53176
-0.689506
-4.30255
-7.30873
-9.45522
-10.4045
-10.066
-8.4775
-5.71445
-2.12663
2.05884
6.43817
11.2617
16.7377
23.1257
30.6168
38.4181
45.9465
52.8783
58.8746
63.6895
67.1284
70.5159
72.3833
73.734
72.965
72.3768
69.5239
70.275
68.5582
69.6316
68.0817
67.9344
66.4116
66.58
65.4382
64.9517
64.3599
64.0033
63.6761
62.1145
60.9745
59.5726
57.8732
55.4708
53.761
50.4441
47.5204
44.3118
41.4188
37.75
34.8395
32.4147
29.2027
26.8727
24.8405
23.1699
21.7075
20.4572
20.3047
19.7269
19.7557
20.1582
21.3987
23.5987
24.0257
26.1205
29.0366
30.391
32.5159
34.9025
35.9471
44.1534
43.7105
41.7403
39.8557
38.6013
38.0654
38.0293
38.4603
38.8916
39.301
39.646
39.7172
39.8672
39.7843
39.5688
39.3765
39.0491
38.8759
38.6136
38.3383
38.2312
37.9191
37.8935
37.8304
37.6521
37.7155
37.5791
37.5433
37.545
37.3363
37.3189
37.1338
36.8424
36.6974
36.2874
35.9792
35.7136
35.2529
35.0279
34.6547
34.3283
34.1435
33.8265
33.6896
33.5864
33.5016
33.511
33.521
33.6305
33.7214
33.8174
34.03
34.0785
34.2414
34.414
34.3773
34.5496
34.5779
34.4871
34.6421
34.5202
34.3993
34.4716
34.2367
34.1132
34.0655
33.7661
33.6443
33.4834
33.2189
33.2154
33.0169
32.8421
32.8983
32.8039
32.709
32.8153
32.9262
32.9658
33.3093
33.5799
33.8579
34.4754
34.9267
35.5257
36.2295
36.9176
37.7134
38.384
39.32
40.0266
40.6892
41.6138
42.1834
42.8804
43.5411
44.0005
44.6208
45.1094
45.6761
46.5159
47.3288
48.2581
49.5275
50.1705
50.0087
50.1824
50.0094
49.2789
49.8136
51.2227
52.346
53.3876
54.3027
54.4307
53.8216
53.1846
52.9646
52.7086
52.0845
50.4365
47.0384
42.1479
36.3063
29.8081
23.2178
17.035
11.3726
6.33311
2.15914
-1.20893
-4.01449
-5.98672
-6.88851
-6.6405
-5.1995
-2.8085
0.39725
4.23057
8.48318
13.4387
19.0016
25.6368
33.0167
40.6589
47.945
54.5439
59.9856
64.7985
67.9388
71.3689
73.0898
73.5438
71.0122
70.221
67.012
68.724
68.0945
68.9999
68.0938
67.0581
66.36
66.1726
65.2306
64.9349
64.4784
64.6022
64.7284
62.6348
62.277
60.9781
59.3496
57.3951
55.1289
52.5109
49.8251
46.4725
44.2807
40.7561
37.5648
35.537
32.0678
29.7051
27.9104
25.832
24.6171
23.6465
22.8822
22.1662
22.5649
22.7322
23.0613
25.0276
25.6003
27.4465
29.8695
30.7323
32.494
34.1534
34.7719
44.132
43.7013
41.707
39.8417
38.6122
38.0913
38.092
38.4912
38.9194
39.2965
39.6324
39.7463
39.8085
39.7353
39.5239
39.3439
39.0442
38.862
38.6299
38.3751
38.2898
38.035
37.946
37.89
37.7112
37.7528
37.6167
37.5397
37.5357
37.3469
37.2966
37.1486
36.8734
36.7361
36.4154
36.1265
35.8994
35.5208
35.3131
35.0186
34.7371
34.5903
34.3191
34.1992
34.1049
34.0094
34.042
34.0036
34.0804
34.1821
34.2089
34.38
34.4537
34.5321
34.6879
34.7037
34.7679
34.8405
34.7688
34.8338
34.7824
34.6457
34.6785
34.4554
34.2988
34.1864
33.88
33.7072
33.5688
33.29
33.1526
32.9879
32.7271
32.7403
32.617
32.5403
32.6735
32.7261
32.8792
33.1527
33.5716
33.9118
34.4592
35.1455
35.6806
36.5527
37.3367
38.0943
39.0243
39.7765
40.7185
41.4379
42.0868
42.9985
43.4301
44.0158
44.6325
44.7552
45.294
45.8056
46.3477
47.4015
48.3445
49.3906
50.1926
50.0875
49.8376
49.2659
48.4314
48.7571
49.9885
51.2489
52.2589
52.9374
52.8208
52.344
51.978
51.814
51.8965
51.6779
50.5869
48.0877
44.0784
39.0777
33.3384
27.124
20.8885
15.0637
9.99706
5.77259
2.23844
-0.57015
-2.4162
-3.33454
-3.28807
-2.12465
0.122292
3.08922
6.66187
10.999
16.0764
21.9259
28.6388
35.8567
43.1577
50.16
56.2554
61.0576
65.7176
68.5039
71.9704
72.2469
72.1267
67.5543
66.9709
65.9392
68.1449
68.3728
68.7321
68.3796
67.211
67.1263
66.9601
66.6581
66.3413
65.9744
66.1312
65.8965
63.9387
63.9879
61.9593
60.7528
59.2051
56.2723
54.5298
51.8281
48.2645
46.6341
43.0172
40.0633
38.0542
34.5943
32.7035
30.9025
28.8492
27.431
26.4225
25.826
24.7236
24.8867
24.8033
25.088
26.8704
27.2527
28.5948
30.5483
31.3092
32.4164
33.4249
34.0139
43.9933
43.555
41.582
39.7838
38.6468
38.1888
38.2284
38.6195
39.0204
39.3482
39.6428
39.7113
39.7384
39.6603
39.4559
39.2983
39.025
38.8404
38.6472
38.4086
38.3367
38.1086
37.9857
37.9502
37.7677
37.7754
37.6716
37.5508
37.5806
37.3823
37.2823
37.202
36.9206
36.7898
36.5661
36.2713
36.0885
35.802
35.5733
35.3696
35.1235
34.9854
34.7914
34.6478
34.5904
34.5028
34.5029
34.4808
34.5246
34.603
34.625
34.741
34.8245
34.8643
34.9902
35.0325
35.0372
35.1234
35.0737
35.0542
35.0604
34.921
34.8484
34.6972
34.5035
34.2963
34.0551
33.8549
33.5965
33.3635
33.1054
32.8994
32.6792
32.5467
32.4612
32.3744
32.4805
32.4813
32.7425
33.0422
33.3648
33.9484
34.4173
35.1967
35.9195
36.683
37.7029
38.4043
39.4345
40.3207
41.0241
42.1151
42.7009
43.3905
44.1108
44.2961
44.8018
45.1931
45.1121
45.5402
46.37
47.0535
48.2087
49.7414
50.2264
49.9787
49.5321
48.4791
47.4106
47.4789
48.5578
49.9286
51.1612
51.9287
51.8784
51.4433
51.1042
50.9938
51.096
51.0366
50.7524
49.475
46.4783
42.3037
37.1468
31.2902
25.3436
19.7469
14.5878
9.98315
6.21083
3.40042
1.36938
0.231492
0.236595
1.23201
3.19171
6.02796
9.67835
14.0357
19.2134
25.394
31.9728
39.0718
46.0162
52.4329
57.8819
62.447
66.2982
68.1445
71.6321
69.8722
68.3748
65.1073
65.9672
66.8649
68.5078
68.9831
69.1056
69.0842
68.6465
69.0402
68.6791
69.0841
68.1716
67.9007
67.4066
66.8219
65.4909
64.97
62.4531
62.148
60.2408
56.9759
56.0477
52.9557
49.7496
48.451
44.7514
42.5212
40.2213
36.9511
35.6572
33.5048
31.5069
29.8434
28.8288
28.2364
26.8868
27.2028
27.29
27.2784
28.3005
28.7257
29.5365
30.4718
31.2439
32.3819
33.4213
34.1864
43.7329
43.3147
41.4079
39.7368
38.7233
38.372
38.4646
38.7919
39.1579
39.4387
39.6512
39.6943
39.6695
39.5807
39.3906
39.2219
38.997
38.8131
38.6456
38.4469
38.3606
38.1795
38.049
37.9915
37.8503
37.8118
37.7132
37.5964
37.566
37.42
37.3069
37.217
36.9997
36.852
36.6849
36.445
36.269
36.0631
35.849
35.6879
35.5008
35.358
35.2163
35.0872
35.0323
34.9579
34.9388
34.9349
34.9565
35.0053
35.0461
35.1083
35.1798
35.2266
35.3008
35.342
35.3662
35.3993
35.3704
35.3565
35.3071
35.1885
35.0628
34.9192
34.674
34.4828
34.2472
33.9749
33.6983
33.3876
33.1165
32.8148
32.6276
32.4313
32.312
32.2671
32.24
32.3612
32.5332
32.8463
33.2406
33.8094
34.4626
35.1465
36.0481
36.8694
37.7802
38.783
39.6142
40.58
41.4531
42.258
43.2272
43.7682
44.1893
44.7568
44.8542
44.9722
45.2342
45.281
45.6981
46.8562
48.429
49.741
50.1265
49.7759
48.9902
47.6422
46.4012
46.2436
47.2478
48.737
50.4228
51.4924
51.6437
51.099
50.4201
50.1253
50.3307
50.8562
51.4808
51.2102
48.9519
45.5408
40.9946
35.7672
30.3603
24.9564
19.6543
14.8803
10.9833
7.87467
5.53433
4.27697
4.03374
4.75022
6.71813
9.57273
13.1061
17.4146
22.9013
29.2497
35.5087
42.358
48.9949
54.7228
59.4239
64.3229
65.8913
66.8938
69.6827
67.0336
65.0954
65.0677
67.2923
68.905
70.0333
70.7588
70.3479
71.1478
71.0025
71.5011
70.8319
70.8187
69.602
69.5167
68.1691
67.3397
66.5001
65.1898
62.9212
62.6134
60.2102
57.8097
56.7217
53.3612
51.3425
49.4468
45.9763
44.9025
41.9522
39.0199
37.8786
35.2192
33.7284
31.8202
30.9244
30.2622
28.789
29.217
29.0695
29.0477
29.2181
29.2479
30.2509
31.2346
31.7199
31.8662
32.7552
34.0447
43.2214
42.8307
41.1551
39.7603
38.9621
38.7042
38.8285
39.1055
39.3504
39.5553
39.655
39.6643
39.5899
39.4671
39.3159
39.1383
38.9776
38.802
38.6508
38.508
38.3828
38.25
38.1098
38.0226
37.919
37.8349
37.7527
37.6446
37.5647
37.4718
37.349
37.2442
37.0911
36.9333
36.7984
36.6188
36.4455
36.2968
36.1222
35.9772
35.849
35.7036
35.6044
35.5029
35.4276
35.3881
35.3543
35.3482
35.3669
35.3839
35.4282
35.4627
35.5178
35.5661
35.6044
35.6537
35.6649
35.671
35.6556
35.6177
35.5213
35.4438
35.2771
35.1105
34.9004
34.6545
34.3877
34.0746
33.7966
33.4451
33.1724
32.84
32.5958
32.3869
32.1944
32.1661
32.1284
32.2418
32.4317
32.7193
33.1729
33.7161
34.3963
35.1629
36.035
36.9608
37.879
38.8412
39.7572
40.6303
41.5728
42.4442
43.2817
44.0075
44.3747
44.6718
44.96
44.9607
44.8713
45.1942
45.7041
46.6319
48.2414
49.5903
49.7093
49.2509
48.3084
46.8853
45.6422
45.4419
46.4609
48.2454
50.3854
52.0266
52.2588
51.1711
49.6082
48.8026
49.632
51.2964
52.5337
52.8916
51.1515
48.7147
44.8786
40.301
35.3845
30.187
25.0025
20.3131
16.232
12.6918
10.0833
8.68774
8.22153
8.83531
10.6256
13.3946
16.974
21.2895
26.7948
33.0217
39.2483
45.4359
51.7045
57.1774
60.787
66.4403
64.8388
66.6787
64.892
63.2065
63.9968
67.1537
69.9685
71.9946
72.6227
73.5757
72.159
73.3743
72.6065
73.012
72.1489
71.8764
70.4128
70.1161
68.6821
67.6025
67.0769
65.2426
63.2459
62.6249
60.2231
58.444
56.7983
53.9636
52.6578
50.1262
47.2975
46.2661
42.881
40.6883
39.3038
36.5814
35.4595
33.1117
32.5263
32.0521
30.5643
30.7679
29.8517
29.7661
30.467
30.3499
30.7044
31.6703
31.9451
31.3806
32.2181
33.7143
42.4187
42.1311
40.9094
39.9255
39.3674
39.1567
39.2443
39.3886
39.5332
39.6427
39.6404
39.6185
39.5204
39.3813
39.2573
39.0852
38.9499
38.801
38.6507
38.5399
38.4024
38.2855
38.1717
38.0556
37.978
37.882
37.7826
37.7003
37.5875
37.5063
37.3965
37.2701
37.1645
37.0167
36.8957
36.7686
36.6115
36.5037
36.364
36.2343
36.1422
36.0098
35.9328
35.8474
35.773
35.7458
35.7048
35.6947
35.7068
35.7064
35.7409
35.7692
35.7954
35.844
35.8642
35.8968
35.906
35.8989
35.8714
35.8112
35.7176
35.6102
35.4467
35.2815
35.0683
34.7977
34.5132
34.192
33.8794
33.5358
33.2307
32.8861
32.6289
32.3965
32.2136
32.156
32.1103
32.2147
32.3829
32.6863
33.1179
33.6688
34.3639
35.1418
36.0457
36.9497
37.892
38.8192
39.7022
40.6432
41.5356
42.4165
43.1973
43.8816
44.5411
44.8122
44.8504
44.8734
44.904
45.1022
45.8099
46.854
48.1032
48.8103
49.1478
48.7589
47.7504
46.249
45.1164
45.1287
46.4498
48.7513
51.4608
53.555
53.5731
52.071
49.7764
47.4668
49.2714
51.8612
53.3687
53.8775
53.2318
51.3971
48.2999
44.5246
40.2282
35.4696
30.6112
25.8843
21.4534
17.669
14.8961
13.1067
12.3765
12.9162
14.5445
17.3112
20.883
24.9336
30.447
36.5438
42.4033
48.1906
54.0828
59.4079
62.003
68.2943
64.2055
69.8264
63.85
61.4544
64.4549
69.2339
72.4108
73.8859
74.3861
74.7684
73.6916
74.7901
73.4125
73.3989
72.8447
72.7098
70.8617
70.2112
69.1675
67.8808
67.2807
65.4157
63.7588
62.5117
60.4485
59.0552
56.8331
54.8189
53.5075
50.5598
48.3259
46.953
43.8195
41.9991
39.9387
37.709
36.6245
34.1449
33.7278
32.8425
31.8129
32.1472
31.0363
31.0584
31.0222
30.4001
31.0748
32.0927
31.672
30.7332
32.0505
33.8287
41.5256
41.3843
40.7562
40.2119
39.8697
39.689
39.6755
39.6848
39.6906
39.6948
39.6255
39.5643
39.4544
39.315
39.2044
39.0468
38.9307
38.8016
38.6642
38.5657
38.4234
38.3195
38.2115
38.0872
38.0166
37.9082
37.8103
37.7347
37.6147
37.5344
37.4312
37.306
37.2179
37.089
36.9779
36.8777
36.7458
36.654
36.5415
36.4297
36.3535
36.2421
36.1689
36.1022
36.0285
36.0004
35.9612
35.9412
35.9485
35.9387
35.961
35.9791
35.9915
36.0269
36.0385
36.0562
36.0645
36.0445
36.0085
35.9484
35.8461
35.731
35.5746
35.3886
35.1679
34.8958
34.611
34.2945
33.9743
33.6373
33.3093
32.9781
32.7055
32.4761
32.2915
32.2087
32.17
32.2462
32.411
32.6948
33.12