/*--------------------------------*- C++ -*----------------------------------*\
| =========                 |                                                 |
| \\      /  F ield         | OpenFOAM: The Open Source CFD Toolbox           |
|  \\    /   O peration     | Version:  2.4.0                                 |
|   \\  /    A nd           | Web:      www.OpenFOAM.org                      |
|    \\/     M anipulation  |                                                 |
\*---------------------------------------------------------------------------*/
FoamFile
{
    version     2.0;
    format      ascii;
    class       volScalarField;
    location    "0.37";
    object      pMean;
}
// * * * * * * * * * * * * * * * * * * * * * * * * * * * * * * * * * * * * * //

dimensions      [0 2 -2 0 0 0 0];

internalField   nonuniform List<scalar> 
8800
(
97.9406
85.4227
77.8943
74.2448
72.2335
70.7063
69.3731
68.1264
66.965
65.8346
64.7478
63.6631
62.6165
61.5777
60.5863
59.6206
58.7047
57.8307
56.9768
56.0119
94.8432
85.0694
78.0619
74.3579
72.2925
70.7315
69.3803
68.1267
66.963
65.832
64.7452
63.6608
62.6143
61.5756
60.5849
59.6175
58.7073
57.8297
56.983
56.0487
92.8864
85.1433
78.6592
74.7301
72.4585
70.8095
69.4262
68.1584
66.9863
65.8486
64.7549
63.6655
62.6154
61.5735
60.5824
59.6096
58.7064
57.8203
57.0497
56.1147
91.357
85.2022
79.2419
75.1496
72.6406
70.8957
69.4882
68.2139
67.0341
65.8864
64.7814
63.6827
62.6252
61.5772
60.5813
59.6022
58.694
57.8088
57.0943
56.3341
90.1133
85.1733
79.7152
75.5522
72.8082
70.962
69.5365
68.2705
67.0895
65.9368
64.8164
63.7097
62.6378
61.5864
60.5775
59.5981
58.6685
57.7904
57.0258
56.6783
89.133
85.0761
80.08
75.8969
72.9592
71.0062
69.5647
68.3156
67.1395
65.986
64.8522
63.7374
62.6504
61.5946
60.5728
59.5914
58.6452
57.7766
57.0453
57.1217
88.3796
84.9625
80.3469
76.176
73.0967
71.035
69.5747
68.3485
67.1804
66.027
64.8841
63.7604
62.662
61.599
60.5694
59.5819
58.634
57.7797
57.1361
57.4422
87.8316
84.8619
80.5296
76.3867
73.2195
71.0539
69.5732
68.3705
67.2114
66.0587
64.909
63.7779
62.6707
61.6011
60.5671
59.5774
58.6344
57.7993
57.2289
57.6769
87.4762
84.7868
80.6439
76.5289
73.306
71.0656
69.569
68.3831
67.2327
66.0807
64.9265
63.7894
62.6768
61.6028
60.5672
59.5785
58.6433
57.8259
57.3115
57.849
87.3022
84.7458
80.6996
76.6005
73.35
71.0712
69.5664
68.3887
67.2441
66.0924
64.9362
63.7955
62.681
61.6058
60.5713
59.5852
58.6583
57.8545
57.3787
57.9705
87.3017
84.7464
80.6995
76.6007
73.3499
71.0715
69.5663
68.389
67.2444
66.0931
64.9371
63.7972
62.6835
61.6102
60.5785
59.597
58.6762
57.8841
57.4257
58.0482
87.4753
84.7879
80.6439
76.5293
73.3062
71.0659
69.5692
68.3837
67.234
66.0828
64.9296
63.7941
62.6845
61.616
60.5891
59.6131
58.6978
57.9128
57.4539
58.082
87.8301
84.8638
80.5295
76.3874
73.2202
71.0546
69.5734
68.3716
67.2135
66.0624
64.9142
63.7858
62.6833
61.6226
60.6027
59.6344
58.7245
57.9432
57.4622
58.0622
88.3771
84.9653
80.3464
76.1768
73.097
71.0364
69.5745
68.3505
67.1832
66.0322
64.8911
63.7719
62.6794
61.6292
60.618
59.6607
58.7579
57.9805
57.4559
57.9709
89.1303
85.0792
80.0797
75.8975
72.9595
71.0076
69.5654
68.3178
67.1433
65.992
64.8617
63.7518
62.6733
61.6323
60.6341
59.6884
58.8001
58.027
57.4622
57.7977
90.1099
85.1772
79.7152
75.5529
72.8082
70.9635
69.5378
68.2732
67.0941
65.9438
64.8278
63.7273
62.6655
61.6316
60.6499
59.714
58.8492
58.0828
57.4979
57.562
91.353
85.2065
79.2423
75.1509
72.6403
70.8975
69.4896
68.2175
67.0391
65.8946
64.7943
63.7033
62.6574
61.6287
60.6637
59.7338
58.897
58.1356
57.5611
57.3095
92.8824
85.147
78.6604
74.7313
72.4583
70.8112
69.4282
68.1621
66.9923
65.8571
64.7697
63.6872
62.652
61.6281
60.6741
59.749
58.9316
58.1762
57.6216
57.1745
94.8392
85.0725
78.0635
74.3593
72.2925
70.7331
69.3824
68.1307
66.9693
65.841
64.7606
63.6835
62.6525
61.6319
60.6811
59.76
58.9483
58.1999
57.6235
57.0987
97.937
85.4256
77.8959
74.2463
72.2335
70.7079
69.3752
68.1304
66.9712
65.8438
64.7633
63.6861
62.6552
61.6344
60.6844
59.7639
58.9523
58.2067
57.6267
57.2161
55.6129
55.1859
54.4718
53.7784
53.2146
52.7711
52.4274
52.1503
51.9067
51.6981
51.5184
51.3557
51.2025
51.0594
50.9199
50.785
50.6453
50.4922
50.3268
50.1514
49.9837
49.8604
49.7904
49.7703
49.7898
49.8283
49.8631
49.8706
49.8279
49.7195
49.5507
49.3447
49.1348
48.9578
48.8294
48.7522
48.7134
48.6892
48.6636
48.6378
48.6191
48.618
48.6554
48.7465
48.8991
49.1095
49.3715
49.675
50.008
50.3533
50.6891
50.9941
51.2517
51.4551
51.6051
51.7107
51.7912
51.8634
51.9338
52.002
52.0634
52.116
52.1595
52.1969
52.2288
52.2615
52.2998
52.3509
52.4203
52.5063
52.6063
52.7194
52.8432
52.9791
53.122
53.2695
53.4157
53.5545
53.6841
53.8011
53.9145
54.0299
54.1592
54.3043
54.4747
54.6655
54.8761
55.1015
55.3357
55.5752
55.8232
56.091
56.3816
56.6916
57.0188
57.3575
57.7041
58.0501
58.3951
58.7345
59.0582
59.3658
59.6335
59.8492
60.031
60.1849
60.3155
60.4256
60.5199
60.5936
60.6505
60.6863
60.6972
60.6811
60.6358
60.5725
60.4947
60.4138
60.3304
60.2418
60.1507
60.0564
59.9598
59.864
59.7727
59.6937
59.6354
59.5987
59.5946
59.6247
59.6927
59.7959
59.9338
60.1026
60.3048
60.5337
60.7862
61.0488
61.3087
61.5683
61.8119
62.0495
62.2714
62.4896
62.698
62.9146
63.1303
63.3563
63.5823
63.8103
64.0254
64.224
64.4034
64.5605
64.7012
64.8166
64.9266
64.9981
65.0693
65.0983
65.1239
65.1028
65.0718
65.0043
64.9248
64.8068
64.6913
64.5311
64.3995
64.2162
64.1007
63.9289
63.8568
63.7189
63.7329
63.6481
63.7718
63.7711
63.9972
64.094
64.3899
64.5606
64.8926
65.1095
65.4391
65.6709
65.9622
66.1555
66.3757
66.453
66.5427
66.4034
66.2113
65.6148
64.816
63.2964
61.1191
56.7954
51.5474
28.2465
55.4968
55.1885
54.6861
54.0529
53.4598
52.9913
52.6488
52.3983
52.196
52.0185
51.8557
51.7014
51.5537
51.414
51.2788
51.1456
51.009
50.8666
50.7189
50.569
50.4271
50.318
50.2529
50.2301
50.2394
50.263
50.281
50.2753
50.2313
50.1392
49.9994
49.8269
49.6456
49.4827
49.354
49.2637
49.2055
49.1687
49.141
49.1176
49.1025
49.1064
49.1442
49.2285
49.3661
49.5563
49.7935
50.0679
50.3665
50.6736
50.9717
51.2444
51.4786
51.6678
51.8106
51.913
51.9853
52.0414
52.089
52.1321
52.1696
52.2004
52.2228
52.2383
52.2483
52.2592
52.2724
52.2945
52.3298
52.3815
52.4483
52.5297
52.6264
52.7389
52.8591
52.9845
53.1025
53.2105
53.3021
53.38
53.4516
53.5265
53.6147
53.7215
53.8543
54.0077
54.1836
54.3753
54.5761
54.7834
55.0073
55.2579
55.5368
55.8388
56.165
56.5094
56.8689
57.232
57.602
57.9705
58.3287
58.6713
58.9696
59.215
59.4312
59.621
59.7899
59.939
60.0715
60.1803
60.2719
60.334
60.3669
60.3589
60.3178
60.2518
60.1724
60.0882
60.0017
59.9095
59.8161
59.7177
59.6199
59.5227
59.4365
59.3656
59.3181
59.2902
59.297
59.3325
59.4091
59.5189
59.6699
59.8498
60.0698
60.3134
60.5914
60.8771
61.1672
61.448
61.7211
61.978
62.2246
62.4578
62.6863
62.9115
63.14
63.3669
63.6024
63.8263
64.0435
64.2296
64.4088
64.5485
64.6896
64.7845
64.8964
64.9465
65.0206
65.0276
65.0514
65.0096
64.9755
64.8835
64.8012
64.6515
64.5335
64.332
64.1917
63.9573
63.8222
63.5813
63.4884
63.2719
63.2451
63.0809
63.142
63.0708
63.2265
63.2603
63.4863
63.605
63.8728
64.0432
64.3185
64.4922
64.742
64.8463
65.0194
64.957
64.942
64.5791
64.1926
63.2358
62.0826
59.7216
57.2832
50.1553
43.7419
22.0882
55.5537
55.3251
54.9736
54.4089
53.7678
53.2227
52.8388
52.5951
52.4322
52.2994
52.1694
52.0341
51.8958
51.7588
51.6248
51.4919
51.359
51.2254
51.0917
50.9619
50.8432
50.7495
50.6897
50.6633
50.663
50.675
50.6839
50.6752
50.6375
50.5636
50.4531
50.3145
50.1645
50.0221
49.9015
49.8078
49.7401
49.6942
49.6647
49.6469
49.6411
49.6544
49.6959
49.7773
49.9026
50.073
50.2822
50.5224
50.7814
51.0458
51.3012
51.5352
51.7375
51.9026
52.0282
52.1171
52.1756
52.214
52.2396
52.2578
52.2701
52.2775
52.2792
52.2762
52.2702
52.2653
52.2639
52.2681
52.2804
52.306
52.3479
52.4053
52.4808
52.5725
52.6744
52.7775
52.869
52.9464
53.0011
53.0415
53.0735
53.1108
53.1594
53.2293
53.3235
53.4385
53.5769
53.7294
53.8891
54.0568
54.2478
54.472
54.7303
55.0195
55.3437
55.6964
56.0707
56.4556
56.8542
57.2535
57.6491
58.0291
58.3666
58.6527
58.9187
59.1562
59.3734
59.5687
59.7477
59.9021
60.0361
60.1319
60.187
60.1864
60.1491
60.083
60.0071
59.9227
59.8366
59.7438
59.6521
59.5501
59.4536
59.3577
59.2847
59.2267
59.1946
59.1793
59.2
59.2421
59.3311
59.4478
59.6148
59.81
60.0529
60.315
60.6179
60.9206
61.2337
61.5315
61.8278
62.1067
62.3798
62.6323
62.8847
63.1228
63.3636
63.5975
63.8333
64.0486
64.2542
64.4253
64.5971
64.7255
64.8632
64.9465
65.0484
65.0847
65.1456
65.1388
65.1433
65.0885
65.0441
64.9255
64.8327
64.6503
64.5188
64.2804
64.123
63.8465
63.6892
63.3827
63.2596
62.968
62.8983
62.6608
62.6621
62.5161
62.5965
62.5558
62.703
62.7436
62.9477
63.0386
63.2572
63.3467
63.5369
63.5419
63.6317
63.4347
63.2992
62.6904
62.1762
60.6364
59.6216
55.8002
53.7441
44.9005
37.1712
22.4272
55.7944
55.5512
55.1295
54.4997
53.8322
53.2935
52.9424
52.7534
52.6575
52.5896
52.5116
52.4107
52.2899
52.1577
52.0217
51.8862
51.7543
51.6273
51.5067
51.3942
51.2942
51.2142
51.1604
51.133
51.1264
51.1308
51.1348
51.1269
51.0981
51.0425
50.9592
50.8525
50.7325
50.6116
50.5021
50.4103
50.3403
50.2909
50.2614
50.249
50.253
50.2752
50.3214
50.3972
50.507
50.6509
50.8253
51.0226
51.2336
51.4476
51.6541
51.8441
52.0095
52.1448
52.2478
52.3188
52.3621
52.3842
52.392
52.3905
52.3831
52.3714
52.3563
52.3394
52.3218
52.3072
52.296
52.2891
52.2872
52.2953
52.3192
52.3593
52.419
52.4938
52.578
52.657
52.7228
52.7691
52.7919
52.7992
52.7969
52.7989
52.8091
52.8405
52.8931
52.9663
53.0597
53.1611
53.2672
53.3859
53.5391
53.7339
53.9729
54.2515
54.5786
54.9396
55.3338
55.7419
56.176
56.6089
57.0474
57.4659
57.8504
58.1797
58.5001
58.7891
59.0622
59.3098
59.5445
59.748
59.9282
60.0536
60.1263
60.1325
60.1045
60.0437
59.9808
59.9029
59.8293
59.7408
59.6549
59.5487
59.4599
59.3676
59.3141
59.2701
59.2558
59.253
59.2893
59.3403
59.4465
59.5763
59.7632
59.9789
60.2488
60.5357
60.863
61.1811
61.5139
61.8224
62.1384
62.4307
62.731
63.002
63.2828
63.5345
63.7961
64.028
64.2689
64.4596
64.661
64.8034
64.977
65.0844
65.2244
65.2922
65.387
65.4036
65.4528
65.4175
65.4087
65.3157
65.2742
65.1045
65.0189
64.7822
64.6571
64.3641
64.2064
63.8685
63.6999
63.3285
63.1734
62.8146
62.6906
62.3967
62.3198
62.1182
62.1056
61.9958
62.0555
62.0212
62.1389
62.1516
62.2953
62.2816
62.4238
62.2618
62.3756
61.8662
61.9034
60.6656
60.5558
57.8988
57.2816
52.2853
49.6065
41.4564
32.8055
23.139
57.222
56.7096
55.4166
54.2967
53.5208
53.0802
52.8911
52.8494
52.8673
52.8857
52.8721
52.8156
52.7203
52.5987
52.4644
52.3281
52.1972
52.0754
51.9647
51.8667
51.7829
51.7171
51.6717
51.6468
51.6383
51.6394
51.6412
51.6354
51.6148
51.5748
51.5137
51.4335
51.3403
51.2423
51.1487
51.0666
51.0002
50.9514
50.9215
50.9097
50.9152
50.9376
50.9787
51.0415
51.1283
51.2384
51.3702
51.5188
51.6784
51.8418
52.0005
52.1472
52.2752
52.38
52.4588
52.5116
52.5405
52.5503
52.5456
52.5309
52.5096
52.4839
52.4565
52.429
52.4035
52.3814
52.3637
52.3516
52.3447
52.3465
52.3624
52.3963
52.4471
52.5092
52.5735
52.6278
52.6673
52.6856
52.6823
52.6629
52.6324
52.5999
52.573
52.562
52.5676
52.5894
52.6266
52.6674
52.7132
52.7789
52.8914
53.0551
53.2786
53.5529
53.8897
54.2652
54.6815
55.1224
55.5928
56.0649
56.55
57.01
57.4437
57.8211
58.1991
58.5414
58.8711
59.1745
59.4613
59.7092
59.9243
60.0684
60.1559
60.1708
60.1581
60.1145
60.0738
60.0133
59.9598
59.8798
59.8071
59.7103
59.6426
59.5672
59.5364
59.5063
59.5113
59.5208
59.575
59.6373
59.7641
59.9092
60.1201
60.3545
60.6544
60.961
61.3179
61.6459
62.0037
62.3143
62.6546
62.9479
63.2771
63.5609
63.8784
64.1353
64.4298
64.6447
64.8971
65.048
65.2535
65.3555
65.5426
65.6126
65.7662
65.7977
65.9004
65.8753
65.9287
65.838
65.8398
65.6828
65.6533
65.4138
65.3416
65.0394
64.929
64.5725
64.4225
64.0196
63.841
63.4131
63.2294
62.817
62.6419
62.2853
62.1532
61.8605
61.7967
61.5709
61.5969
61.4176
61.5335
61.3344
61.5522
61.2083
61.5366
60.8962
61.3273
60.1867
60.551
58.6318
58.5603
55.4449
54.1406
49.4821
45.4818
39.318
30.9524
23.9739
58.2116
57.5913
55.7772
54.2696
53.3171
52.8877
52.8171
52.9194
53.0636
53.1798
53.2385
53.2325
53.1693
53.0644
52.9365
52.8009
52.6695
52.5495
52.445
52.3572
52.2861
52.2329
52.1971
52.1779
52.1715
52.1723
52.1741
52.1704
52.1563
52.1276
52.0833
52.0241
51.9533
51.8765
51.8
51.7296
51.6691
51.6221
51.5901
51.5739
51.5728
51.5866
51.6146
51.6581
51.7179
51.7938
51.8844
51.9872
52.098
52.2126
52.3252
52.4298
52.5212
52.5955
52.6506
52.6861
52.7024
52.7025
52.6884
52.6639
52.6325
52.5987
52.5642
52.5318
52.5031
52.4786
52.4601
52.4483
52.444
52.4486
52.4694
52.5086
52.5591
52.6123
52.659
52.6922
52.7078
52.7026
52.6776
52.6361
52.5787
52.5135
52.4465
52.3867
52.3382
52.3043
52.2839
52.2663
52.2532
52.2606
52.3342
52.4714
52.6802
52.9563
53.3083
53.7048
54.1433
54.6195
55.1266
55.6405
56.1692
56.6787
57.1619
57.5931
58.0255
58.4167
58.8013
59.1536
59.484
59.7652
60.0054
60.1614
60.2601
60.2829
60.2922
60.272
60.2602
60.2215
60.1916
60.1308
60.0867
60.0207
59.9915
59.9457
59.945
59.9287
59.9549
59.9775
60.0559
60.1335
60.2827
60.4374
60.6747
60.9259
61.2561
61.5818
61.9691
62.3066
62.689
63.0046
63.3629
63.6578
64.0128
64.2974
64.6547
64.9095
65.235
65.4282
65.6841
65.791
65.9947
66.0502
66.2451
66.2667
66.4386
66.4151
66.5394
66.4482
66.5264
66.3519
66.3883
66.1472
66.1395
65.8105
65.7656
65.3732
65.3019
64.8472
64.7453
64.2508
64.1125
63.591
63.4353
62.9145
62.7652
62.2643
62.1604
61.6898
61.6645
61.2291
61.3124
60.8899
61.0785
60.5947
60.8926
60.2446
60.611
59.6957
60.0312
58.7242
58.705
56.8215
55.9949
53.2255
51.0817
47.3343
42.8829
38.4531
31.2277
25.3725
58.8496
58.2383
56.1891
54.4354
53.317
52.825
52.7947
52.9927
53.2423
53.4507
53.5831
53.6324
53.6061
53.5213
53.4006
53.2647
53.1308
53.0098
52.9075
52.826
52.7646
52.7222
52.6966
52.6852
52.6842
52.6886
52.6935
52.694
52.686
52.6665
52.634
52.5893
52.5344
52.4732
52.4102
52.3496
52.2956
52.2504
52.2159
52.1931
52.1821
52.1825
52.194
52.2161
52.249
52.2928
52.3465
52.4092
52.4778
52.5492
52.6199
52.6857
52.7432
52.7897
52.8236
52.8435
52.8493
52.8415
52.822
52.7929
52.7584
52.7217
52.6851
52.6517
52.6227
52.5991
52.5822
52.5741
52.5783
52.5968
52.6324
52.6834
52.7421
52.7916
52.8261
52.8416
52.8398
52.8201
52.7791
52.7158
52.6327
52.5358
52.4279
52.3158
52.2138
52.1276
52.0548
51.9799
51.9096
51.8608
51.8924
52.0074
52.2117
52.4987
52.8704
53.2899
53.7567
54.2679
54.8072
55.366
55.9366
56.4921
57.0221
57.5127
57.9829
58.4127
58.841
59.2307
59.5942
59.8999
60.1629
60.3351
60.4457
60.4796
60.5088
60.5073
60.5244
60.5155
60.5127
60.4898
60.4878
60.4729
60.4949
60.4908
60.5266
60.5321
60.5816
60.6257
60.7291
60.8279
60.9962
61.1659
61.4237
61.6924
62.0466
62.393
62.8044
63.1597
63.563
63.8891
64.2577
64.5582
64.9271
65.2213
65.5961
65.8567
66.1913
66.3634
66.5998
66.6716
66.8633
66.8799
67.0611
67.0369
67.1956
67.1313
67.2454
67.1102
67.1857
66.9559
67.0009
66.7021
66.6769
66.2853
66.2323
65.7861
65.7125
65.2112
65.1008
64.5767
64.4273
63.8768
63.6965
63.128
62.9372
62.3709
62.1997
61.6525
61.5336
61.0082
60.9684
60.4553
60.4828
59.9363
59.9998
59.3235
59.3745
58.5033
58.4093
57.2488
56.7833
55.0113
53.878
51.3726
49.0787
46.2284
42.1369
38.7075
32.7425
27.3952
59.2453
58.6803
56.5592
54.6816
53.4568
52.8874
52.8457
53.0909
53.4138
53.6959
53.8916
53.9917
54.0011
53.9375
53.8261
53.6927
53.5578
53.4361
53.3352
53.2583
53.2046
53.1717
53.156
53.1533
53.1597
53.17
53.18
53.1855
53.1834
53.1717
53.1487
53.115
53.0722
53.0226
52.9698
52.9169
52.867
52.8221
52.7836
52.7526
52.7298
52.7151
52.7086
52.7095
52.7179
52.7339
52.7566
52.7854
52.8182
52.8533
52.8888
52.9227
52.9528
52.9773
52.9943
53.0028
53.0018
52.991
52.971
52.9431
52.9093
52.8721
52.8349
52.8015
52.7737
52.7546
52.7459
52.7493
52.7679
52.8051
52.8578
52.9235
52.99
53.0398
53.0664
53.0715
53.0583
53.0314
52.9825
52.9028
52.7958
52.6656
52.5139
52.3494
52.1977
52.0584
51.942
51.8163
51.6952
51.6021
51.5995
51.7006
51.9078
52.2125
52.5989
53.0389
53.5322
54.0714
54.6475
55.2484
55.8673
56.4756
57.0472
57.5816
58.0744
58.5416
58.9968
59.4065
59.7868
60.1059
60.3864
60.5843
60.7136
60.7643
60.807
60.8313
60.8762
60.9052
60.9431
60.9734
61.0275
61.0786
61.1586
61.2092
61.2846
61.3231
61.4019
61.4768
61.6075
61.728
61.9158
62.1
62.3687
62.6584
63.0304
63.39
63.8225
64.1921
64.6148
64.9504
65.324
65.6303
66.0067
66.3077
66.6953
66.9611
67.2921
67.4408
67.6449
67.6761
67.8495
67.8453
67.9965
67.9452
68.061
67.9549
68.0344
67.8633
67.9125
67.6491
67.6689
67.3477
67.2855
66.8591
66.7831
66.3106
66.1887
65.6897
65.5207
65.0053
64.7971
64.2609
64.0212
63.4546
63.1891
62.6018
62.3264
61.7376
61.4708
60.9058
60.6769
60.1273
59.9283
59.3412
59.1563
58.4408
58.2368
57.4139
57.0919
56.0428
55.4159
53.7242
52.5432
50.3753
48.2088
46.0058
42.4112
39.413
34.4912
29.5456
59.5017
58.9809
56.8588
54.9307
53.6488
53.0233
52.9577
53.2228
53.5928
53.9288
54.1739
54.3163
54.3584
54.3159
54.2158
54.087
53.9539
53.8333
53.7344
53.6615
53.6137
53.5883
53.5807
53.5859
53.5994
53.616
53.6317
53.6429
53.6464
53.6412
53.6258
53.6004
53.5666
53.5257
53.4805
53.433
53.3849
53.3385
53.2946
53.2549
53.22
53.1901
53.1657
53.1469
53.1333
53.1247
53.1205
53.12
53.1231
53.1291
53.1378
53.1477
53.1577
53.1669
53.1732
53.1756
53.1723
53.1619
53.1442
53.1195
53.09
53.0574
53.0245
52.9962
52.9768
52.9694
52.9761
52.9974
53.0342
53.0896
53.1602
53.2381
53.308
53.3575
53.3787
53.3759
53.359
53.3305
53.2765
53.1866
53.0638
52.9061
52.7148
52.4995
52.2919
52.1009
51.9402
51.7654
51.6176
51.4933
51.4768
51.5763
51.7989
52.1177
52.5142
52.9582
53.4724
54.0371
54.6546
55.2951
55.9645
56.6321
57.2512
57.8163
58.3307
58.8251
59.29
59.7033
60.0808
60.4044
60.7052
60.921
61.0776
61.1551
61.2204
61.2743
61.3576
61.4293
61.5179
61.6056
61.729
61.8536
61.9977
62.1129
62.2294
62.3077
62.4274
62.5332
62.692
62.8289
63.0368
63.226
63.5109
63.8179
64.1984
64.564
65.0165
65.3832
65.8292
66.1644
66.5438
66.8599
67.2377
67.5383
67.9299
68.1936
68.5184
68.6195
68.8169
68.7917
68.9409
68.9099
69.0346
68.9484
69.0369
68.8767
68.9243
68.7031
68.7363
68.4259
68.424
68.0477
67.984
67.4917
67.4224
66.9295
66.749
66.2467
66.0184
65.5247
65.2519
64.7475
64.4299
63.8909
63.5349
62.9642
62.5722
61.9766
61.5734
61.0038
60.598
60.0386
59.6489
59.0323
58.6485
57.9918
57.609
56.9688
56.5065
55.6547
54.8923
53.2948
52.0718
50.1914
48.1072
46.2971
43.1801
40.3023
36.1191
31.6113
59.6714
59.1831
57.0829
55.1482
53.8504
53.2053
53.1316
53.4102
53.8093
54.1787
54.4548
54.6237
54.6871
54.6593
54.5682
54.4445
54.3154
54.1986
54.1041
54.0361
53.9942
53.9755
53.9753
53.9878
54.0079
54.0305
54.0515
54.0678
54.0766
54.0768
54.0675
54.0486
54.0214
53.9865
53.9459
53.9012
53.8535
53.8046
53.7553
53.7068
53.6604
53.6162
53.5753
53.5379
53.5039
53.4738
53.4478
53.4253
53.4063
53.391
53.3794
53.3718
53.3685
53.3686
53.3705
53.3725
53.3715
53.3645
53.3515
53.3336
53.3114
53.2867
53.2629
53.2464
53.2409
53.2494
53.2766
53.3204
53.3792
53.4573
53.5466
53.6314
53.6997
53.7468
53.767
53.7584
53.737
53.7089
53.6571
53.5673
53.4355
53.2539
53.0308
52.7761
52.5197
52.271
52.0663
51.8482
51.6859
51.5442
51.532
51.6347
51.8862
52.2193
52.6271
53.0709
53.6087
54.1959
54.8424
55.5132
56.2378
56.9638
57.6355
58.2267
58.7564
59.2565
59.7165
60.1213
60.4932
60.8209
61.1417
61.3801
61.5691
61.6782
61.7773
61.8691
61.9904
62.1144
62.2609
62.4154
62.6134
62.8145
63.0337
63.2161
63.3784
63.5063
63.6653
63.7919
63.9712
64.1195
64.3404
64.5294
64.8363
65.1453
65.5409
65.903
66.3698
66.7154
67.1883
67.5107
67.9035
68.2084
68.6064
68.8782
69.2885
69.5153
69.8597
69.8691
70.07
69.9729
70.1252
70.0605
70.1797
70.0305
70.1157
69.8847
69.9363
69.6256
69.6899
69.2793
69.3153
68.8379
68.8405
68.2261
68.1962
67.6613
67.4592
66.9175
66.6625
66.1583
65.861
65.3673
65.0174
64.4995
64.089
63.5195
63.0748
62.4554
61.9966
61.3882
60.9103
60.3033
59.8209
59.168
58.6858
58.1017
57.638
57.1399
56.6108
55.8691
54.9475
53.4352
52.1069
50.4728
48.4653
46.8174
44.0429
41.2088
37.5289
33.4888
59.7785
59.3092
57.2345
55.324
54.0468
53.4189
53.3602
53.6533
54.0662
54.4477
54.734
54.9119
54.9831
54.9625
54.8786
54.7631
54.6427
54.5352
54.4495
54.3898
54.3557
54.3443
54.3511
54.3699
54.3956
54.4229
54.4479
54.4679
54.4805
54.4847
54.4799
54.4656
54.4429
54.4121
54.3743
54.3309
54.2824
54.2304
54.1759
54.1195
54.0629
54.0064
53.9513
53.8982
53.8478
53.8006
53.757
53.7171
53.6822
53.6527
53.6286
53.6102
53.5978
53.5923
53.5927
53.5973
53.6018
53.6029
53.6005
53.5948
53.585
53.5741
53.5675
53.5694
53.5805
53.607
53.6576
53.7272
53.8087
53.9047
54.0055
54.092
54.1577
54.2026
54.2194
54.2103
54.1916
54.1672
54.122
54.0411
53.9096
53.7144
53.4671
53.1755
52.88
52.5823
52.3397
52.0906
51.9244
51.7757
51.7952
51.9019
52.1897
52.5346
52.9582
53.3972
53.9672
54.5721
55.2473
55.9363
56.7193
57.4918
58.2095
58.8138
59.3464
59.8285
60.2741
60.6641
61.04
61.382
61.7224
61.9791
62.2101
62.3495
62.4991
62.6202
62.7994
62.9618
63.1832
63.406
63.6956
63.97
64.2738
64.5121
64.7453
64.9105
65.1155
65.2544
65.4494
65.5874
65.8229
65.9983
66.3265
66.6165
67.0356
67.3789
67.8575
68.1696
68.6667
68.9606
69.3831
69.6684
70.0918
70.2994
70.7643
70.8881
71.2916
71.1576
71.4286
71.1827
71.3996
71.2559
71.4315
71.1779
71.3124
70.9749
71.092
70.6643
70.7906
70.2331
70.3502
69.7261
69.8199
69.1088
69.1449
68.5209
68.3699
67.7531
67.5474
66.968
66.7097
66.1586
65.8391
65.2985
64.8917
64.3119
63.8523
63.2278
62.7537
62.1102
61.6096
60.9477
60.4264
59.7688
59.2523
58.7161
58.2091
57.775
57.1343
56.3455
55.2598
53.8099
52.4073
50.9395
49.1082
47.4087
44.833
42.0784
38.769
35.1616
59.8237
59.3612
57.3155
55.4575
54.2363
53.6629
53.6449
53.9566
54.3697
54.7429
55.02
55.1904
55.2572
55.2373
55.1596
55.0547
54.9472
54.853
54.7799
54.7312
54.7064
54.7024
54.7149
54.7381
54.767
54.7968
54.824
54.8463
54.8615
54.8685
54.8669
54.856
54.8362
54.8078
54.7714
54.7281
54.6785
54.624
54.5656
54.5039
54.4399
54.3739
54.3077
54.2423
54.1785
54.1182
54.062
54.0113
53.9673
53.9294
53.8977
53.8733
53.8572
53.8506
53.8513
53.8589
53.8706
53.8842
53.8974
53.9086
53.9167
53.9258
53.9427
53.9684
54.0031
54.0531
54.1289
54.2208
54.3172
54.4205
54.5246
54.6109
54.6716
54.705
54.7089
54.6976
54.6853
54.6746
54.6488
54.5875
54.4684
54.2783
54.0221
53.7071
53.377
53.0409
52.7639
52.5007
52.3389
52.2106
52.2814
52.3935
52.7191
53.0639
53.5007
53.9216
54.5274
55.143
55.8498
56.549
57.3962
58.2027
58.9697
59.5785
60.1074
60.5348
60.9734
61.3352
61.7343
62.0886
62.4564
62.7307
63.0099
63.1728
63.3885
63.5317
63.7824
63.9745
64.2951
64.5759
64.969
65.3049
65.7044
65.9897
66.2995
66.4998
66.7534
66.8935
67.1043
67.2332
67.4635
67.6199
67.9582
68.2215
68.6455
68.9709
69.4243
69.7304
70.2253
70.4914
70.9364
71.2004
71.6402
71.8024
72.2917
72.3073
72.7277
72.4891
72.7472
72.4307
72.7698
72.4548
72.7497
72.3228
72.5287
72.0977
72.2716
71.7889
71.9195
71.3101
71.4522
70.7579
70.8859
70.1329
70.205
69.4998
69.4109
68.7657
68.578
67.9963
67.7397
67.1646
66.8533
66.3051
65.8839
65.3249
64.8398
64.2473
63.7513
63.1144
62.575
61.9002
61.3277
60.6966
60.1254
59.5973
59.0164
58.5554
57.7647
56.8725
55.6476
54.2368
52.8458
51.4119
49.7628
47.9605
45.526
42.9035
39.8955
36.6469
59.7864
59.3222
57.3273
55.562
54.4365
53.955
53.9972
54.3234
54.7186
55.0618
55.3094
55.4551
55.5053
55.4802
55.4084
55.317
55.2265
55.1498
55.0929
55.0579
55.0439
55.0476
55.0653
55.0916
55.1223
55.1535
55.1818
55.2054
55.2223
55.2312
55.2316
55.2227
55.2047
55.1778
55.1423
55.0994
55.0499
54.9946
54.9342
54.869
54.7994
54.7267
54.6522
54.5784
54.5068
54.4392
54.3777
54.3229
54.2743
54.2322
54.198
54.1722
54.1564
54.1526
54.1592
54.1739
54.1948
54.2207
54.2516
54.285
54.3158
54.3472
54.3887
54.4403
54.5024
54.5825
54.6838
54.7928
54.9015
55.011
55.1132
55.1897
55.2354
55.2504
55.2415
55.2291
55.2227
55.2236
55.2211
55.1859
55.0905
54.9207
54.6737
54.352
53.9997
53.6501
53.3569
53.095
52.9359
52.8478
52.9671
53.1054
53.4591
53.7904
54.2199
54.6354
55.2896
55.9038
56.6325
57.3438
58.2653
59.0941
59.9201
60.5208
61.0431
61.4146
61.8413
62.1726
62.6066
62.9616
63.3696
63.6601
63.9859
64.1746
64.453
64.6157
64.9383
65.1709
65.5916
65.9237
66.4249
66.8096
67.2961
67.616
68.009
68.2293
68.5368
68.6727
68.9042
69.0024
69.2247
69.3472
69.6774
69.9122
70.3347
70.6353
71.0576
71.3641
71.813
72.0789
72.5197
72.7634
73.1819
73.3316
73.7859
73.7466
74.081
73.8557
74.0657
73.6866
74.0649
73.6671
73.9895
73.4664
73.7324
73.2559
73.4387
72.988
73.0289
72.4761
72.5656
71.9488
72.0039
71.2879
71.3187
70.6174
70.5336
69.9103
69.7108
69.1532
68.855
68.3072
67.9425
67.4408
66.9644
66.4709
65.9239
65.4117
64.8404
64.2529
63.6418
62.9828
62.3481
61.772
61.1069
60.5617
59.8566
59.3097
58.3186
57.3492
56.0868
54.7311
53.4507
51.9449
50.3924
48.4927
46.1779
43.698
40.9374
37.9663
59.6117
59.1494
57.2717
55.6713
54.6939
54.3352
54.4357
54.7548
55.106
55.3954
55.5938
55.6999
55.7258
55.6944
55.6308
55.5567
55.4873
55.4315
55.3934
55.3736
55.3706
55.3814
55.4026
55.4301
55.4606
55.4911
55.5188
55.5418
55.5584
55.5672
55.5676
55.5588
55.5408
55.5144
55.4802
55.4392
55.3914
55.3374
55.278
55.2125
55.1411
55.0652
54.9858
54.9074
54.8349
54.7689
54.7078
54.6515
54.6018
54.5603
54.5269
54.5029
54.4917
54.4944
54.5091
54.5353
54.5729
54.6217
54.6775
54.7306
54.7818
54.839
54.9076
54.9858
55.0783
55.187
55.308
55.4295
55.547
55.6607
55.7596
55.8279
55.8592
55.8514
55.8221
55.802
55.8007
55.8184
55.8405
55.8372
55.7789
55.6453
55.4217
55.1153
54.7609
54.42
54.1174
53.876
53.7339
53.7073
53.8461
53.9985
54.3548
54.6736
55.0943
55.5693
56.2801
56.9093
57.6536
58.3995
59.3607
60.1871
61.0444
61.6401
62.1632
62.4916
62.9006
63.2063
63.6653
64.0196
64.4597
64.7616
65.1263
65.3462
65.6679
65.8678
66.2571
66.5416
67.0452
67.4357
68.0162
68.445
68.9946
69.3484
69.803
70.0415
70.3849
70.5261
70.76
70.8355
71.0313
71.129
71.4299
71.6288
72.0327
72.3153
72.7148
73.0299
73.4133
73.6825
74.0699
74.3209
74.6796
74.8637
75.1558
75.1055
75.3703
75.1733
75.326
75.0872
75.3179
74.9491
75.0949
74.6949
74.8563
74.4859
74.5532
74.2139
74.0611
73.6561
73.6537
73.202
73.0974
72.5577
72.4914
71.8598
71.7038
71.0795
70.8596
70.3278
69.961
69.445
69.0048
68.5365
68.0208
67.5754
66.9929
66.5184
65.9036
65.3703
64.6744
64.0762
63.3537
62.8427
61.9932
61.478
60.5753
59.9884
58.8146
57.855
56.5031
55.3279
54.1345
52.5657
51.0278
49.0491
46.8217
44.4691
41.8917
39.1151
59.1885
58.7594
57.1511
55.8313
55.0678
54.8367
54.9645
55.2383
55.5128
55.7242
55.8568
55.9155
55.9168
55.8817
55.8294
55.7749
55.7278
55.693
55.6726
55.6659
55.6712
55.6861
55.7079
55.734
55.7619
55.7893
55.8143
55.8351
55.8499
55.8574
55.8566
55.8472
55.8294
55.8039
55.7715
55.733
55.6888
55.6389
55.5834
55.5207
55.4508
55.3769
55.3013
55.2261
55.1552
55.0932
55.041
54.9942
54.9502
54.9105
54.8791
54.862
54.8621
54.8766
54.9035
54.9466
55.0049
55.0762
55.1582
55.2431
55.3264
55.4099
55.502
55.606
55.7232
55.85
55.9836
56.1157
56.2414
56.3571
56.4507
56.5074
56.5216
56.4934
56.443
56.408
56.4093
56.4447
56.4951
56.53
56.5198
56.4377
56.2558
55.9829
55.6566
55.3538
55.0566
54.8626
54.7398
54.759
54.8994
55.0837
55.4257
55.7248
56.1489
56.73
57.4774
58.1288
58.8757
59.6997
60.6512
61.4744
62.3186
62.9134
63.4255
63.7607
64.1211
64.4248
64.8787
65.2423
65.6861
66.0046
66.3791
66.6411
66.9765
67.2511
67.6662
68.0509
68.5864
69.0673
69.6657
70.1588
70.7273
71.1203
71.5931
71.8661
72.2095
72.3527
72.5846
72.6282
72.8114
72.9032
73.1453
73.3476
73.6978
73.9738
74.3518
74.6652
74.9956
75.2782
75.5752
75.8009
76.1054
76.309
76.4227
76.3716
76.5581
76.3866
76.5643
76.4746
76.4975
76.293
76.1763
76.0028
75.9691
75.7444
75.6206
75.3573
75.0624
74.7831
74.6768
74.4417
74.1928
73.7796
73.6891
73.132
72.8036
72.2136
71.9774
71.43
71.0119
70.5091
70.0066
69.5615
68.9968
68.5803
67.9765
67.5213
66.8889
66.3648
65.6362
65.1056
64.296
63.7935
62.7998
62.325
61.2064
60.6461
59.1648
58.3767
57.0573
56.0663
54.8863
53.2885
51.7064
49.6851
47.536
45.2667
42.8061
40.172
58.4822
58.1484
57.0088
56.0902
55.5796
55.4456
55.5437
55.7222
55.8888
56.007
56.0708
56.0876
56.0713
56.0373
55.9979
55.9619
55.9341
55.9164
55.9088
55.9104
55.9196
55.9349
55.9547
55.9775
56.0015
56.0251
56.0469
56.0653
56.0784
56.0846
56.0824
56.072
56.0543
56.0297
55.9992
55.9649
55.9284
55.887
55.8382
55.7819
55.7194
55.6515
55.5831
55.5191
55.4602
55.4081
55.3665
55.335
55.3082
55.281
55.2596
55.2578
55.279
55.3159
55.3649
55.4294
55.5117
55.6089
55.7129
55.8159
55.9227
56.0371
56.1589
56.289
56.426
56.5646
56.7029
56.8373
56.9655
57.0808
57.1673
57.2138
57.2144
57.1717
57.1073
57.0617
57.0663
57.116
57.1861
57.2487
57.2774
57.2468
57.122
56.9042
56.6284
56.3863
56.1076
55.9976
55.9116
55.9725
56.1023
56.343
56.6438
56.9701
57.4276
58.066
58.7825
59.4828
60.2631
61.1666
62.0664
62.9009
63.6889
64.3015
64.785
65.1504
65.4472
65.779
66.1674
66.5589
66.9559
67.3205
67.6656
67.9978
68.3257
68.7037
69.1159
69.6144
70.1433
70.7223
71.2827
71.8551
72.3749
72.8222
73.2525
73.5844
73.8722
74.0733
74.2292
74.3191
74.4352
74.5783
74.7345
74.9814
75.2384
75.5668
75.8764
76.2027
76.4751
76.774
76.9631
77.2006
77.3796
77.5583
77.5537
77.6278
77.6106
77.596
77.6816
77.6782
77.5564
77.4968
77.256
77.1901
77.0202
76.8507
76.61
76.4874
75.9986
75.9598
75.6449
75.608
75.1871
74.959
74.6838
74.2715
73.851
73.3429
72.9877
72.4587
71.9483
71.4697
70.9447
70.4932
69.9093
69.4855
68.8779
68.4216
67.7875
67.2512
66.555
66.0485
65.1544
64.6572
63.5617
62.9936
61.7187
61.1964
59.6046
59.1062
57.7371
56.8805
55.616
54.052
52.4127
50.3953
48.2946
46.0892
43.7151
41.1949
57.6938
57.5126
56.9443
56.4612
56.1726
56.0641
56.07
56.1222
56.176
56.2103
56.2194
56.2071
56.1815
56.1514
56.1233
56.1011
56.0863
56.0787
56.0779
56.0826
56.0921
56.1055
56.1223
56.1415
56.1622
56.1828
56.2018
56.2175
56.2286
56.2335
56.2301
56.2185
56.201
56.1804
56.1566
56.1275
56.0958
56.0631
56.0268
55.9813
55.9283
55.8752
55.8244
55.7744
55.7301
55.7005
55.6843
55.6754
55.6694
55.6657
55.6735
55.7009
55.7474
55.8083
55.8848
55.9775
56.0838
56.2007
56.3262
56.4546
56.5804
56.7055
56.8371
56.9771
57.1206
57.2616
57.3997
57.5327
57.6568
57.7614
57.8357
57.8781
57.8848
57.8519
57.7924
57.7475
57.7517
57.8024
57.8839
57.9658
58.0233
58.0329
57.9587
57.8025
57.5991
57.459
57.249
57.2198