/*--------------------------------*- C++ -*----------------------------------*\
| =========                 |                                                 |
| \\      /  F ield         | OpenFOAM: The Open Source CFD Toolbox           |
|  \\    /   O peration     | Version:  2.4.0                                 |
|   \\  /    A nd           | Web:      www.OpenFOAM.org                      |
|    \\/     M anipulation  |                                                 |
\*---------------------------------------------------------------------------*/
FoamFile
{
    version     2.0;
    format      ascii;
    class       volVectorField;
    location    "0.44";
    object      U;
}
// * * * * * * * * * * * * * * * * * * * * * * * * * * * * * * * * * * * * * //

dimensions      [0 1 -1 0 0 0 0];

internalField   nonuniform List<vector> 
8800
(
(8.09212 0.388029 0)
(5.44927 0.242506 0)
(3.91184 0.0427649 0)
(3.15729 -0.0154785 0)
(2.80055 -0.018042 0)
(2.59907 -0.011259 0)
(2.48378 -0.00552526 0)
(2.37986 -0.00213005 0)
(2.31973 -0.001935 0)
(2.24907 -0.000242966 0)
(2.21753 -0.000832762 0)
(2.16684 -0.000307178 0)
(2.14564 2.59843e-05 0)
(2.09903 0.000805208 0)
(2.07814 -0.000207091 0)
(2.03794 0.00111934 0)
(2.00246 0.00134182 0)
(1.95986 0.000234704 0)
(1.93357 0.00802163 0)
(1.74147 -0.0598819 0)
(10.0857 0.838324 0)
(9.6559 0.867974 0)
(8.87304 0.50703 0)
(8.0834 0.261933 0)
(7.4916 0.138128 0)
(7.01048 0.0813783 0)
(6.69424 0.0545487 0)
(6.39923 0.0412378 0)
(6.22839 0.0287335 0)
(6.02024 0.0255876 0)
(5.93028 0.0178726 0)
(5.78009 0.0172271 0)
(5.72014 0.0151648 0)
(5.5969 0.0177552 0)
(5.55147 0.0125783 0)
(5.4443 0.0186235 0)
(5.37731 0.0207291 0)
(5.27891 0.0148856 0)
(5.21715 0.0292841 0)
(5.05798 -0.035612 0)
(10.0646 0.632438 0)
(10.6567 0.862858 0)
(10.8696 0.59936 0)
(10.692 0.374008 0)
(10.4534 0.256558 0)
(10.0935 0.196264 0)
(9.83314 0.154526 0)
(9.49618 0.123292 0)
(9.31753 0.0924358 0)
(9.03115 0.0787258 0)
(8.92755 0.0568369 0)
(8.70588 0.0526943 0)
(8.63738 0.0436459 0)
(8.44665 0.0444632 0)
(8.40991 0.0346723 0)
(8.23781 0.0428302 0)
(8.1824 0.0465447 0)
(8.02648 0.0406147 0)
(7.96602 0.051317 0)
(7.78703 -0.030793 0)
(10.0052 0.456914 0)
(10.5629 0.707303 0)
(11.1657 0.547539 0)
(11.382 0.352897 0)
(11.5517 0.258226 0)
(11.4716 0.225297 0)
(11.4868 0.20277 0)
(11.301 0.177345 0)
(11.296 0.14591 0)
(11.0777 0.131776 0)
(11.0772 0.100511 0)
(10.8698 0.0934449 0)
(10.8744 0.0828028 0)
(10.6574 0.0796389 0)
(10.6815 0.0618474 0)
(10.4725 0.0788103 0)
(10.4718 0.0684828 0)
(10.2658 0.0857811 0)
(10.2702 0.062723 0)
(9.98535 0.0903829 0)
(10.0474 0.348605 0)
(10.3987 0.564787 0)
(11.0409 0.454298 0)
(11.3099 0.300219 0)
(11.652 0.211835 0)
(11.6846 0.191064 0)
(11.8924 0.182148 0)
(11.8237 0.170156 0)
(11.982 0.14049 0)
(11.8857 0.139239 0)
(12.0349 0.105428 0)
(11.9257 0.110044 0)
(12.0608 0.0905995 0)
(11.9181 0.103714 0)
(12.0246 0.0690948 0)
(11.887 0.107924 0)
(11.9503 0.0782902 0)
(11.7934 0.113195 0)
(11.8699 0.0731599 0)
(11.6017 0.150881 0)
(10.0626 0.253122 0)
(10.3253 0.46028 0)
(10.896 0.378018 0)
(11.1538 0.242787 0)
(11.5271 0.155583 0)
(11.6124 0.14409 0)
(11.8376 0.149249 0)
(11.8375 0.148596 0)
(11.9655 0.121996 0)
(11.9657 0.121291 0)
(12.1356 0.0829938 0)
(12.1456 0.086138 0)
(12.3032 0.0864153 0)
(12.2867 0.0870551 0)
(12.4031 0.0654712 0)
(12.4042 0.0950481 0)
(12.4539 0.0891191 0)
(12.4577 0.0893888 0)
(12.4999 0.0812496 0)
(12.3778 0.0686647 0)
(10.022 0.173957 0)
(10.2706 0.350415 0)
(10.7776 0.287873 0)
(11.1474 0.219278 0)
(11.3862 0.115506 0)
(11.4804 0.105238 0)
(11.6809 0.108093 0)
(11.837 0.124459 0)
(11.9145 0.094677 0)
(11.9087 0.0915369 0)
(12.0274 0.0610588 0)
(12.1164 0.0664625 0)
(12.2249 0.0521506 0)
(12.2511 0.0811259 0)
(12.3562 0.0416313 0)
(12.4363 0.0839211 0)
(12.5018 0.0683793 0)
(12.5364 0.0636221 0)
(12.5163 0.0574796 0)
(12.4577 0.0341976 0)
(9.98654 0.120731 0)
(10.2666 0.252576 0)
(10.6708 0.191619 0)
(11.0821 0.150026 0)
(11.2926 0.106777 0)
(11.4672 0.0690398 0)
(11.6257 0.0469144 0)
(11.7672 0.0779433 0)
(11.807 0.0975394 0)
(11.8496 0.0853446 0)
(11.9212 0.025222 0)
(12.0934 0.0352625 0)
(12.1415 0.0605452 0)
(12.1635 0.0428716 0)
(12.2727 0.021368 0)
(12.3625 0.0523364 0)
(12.4774 0.0514159 0)
(12.4427 0.0603116 0)
(12.486 0.0323958 0)
(12.4299 -0.0141533 0)
(10.0134 0.06941 0)
(10.2262 0.137392 0)
(10.6589 0.112314 0)
(10.9885 0.115715 0)
(11.2375 0.066914 0)
(11.4308 0.0268399 0)
(11.5869 0.027651 0)
(11.6638 0.0548899 0)
(11.7571 0.0661822 0)
(11.8232 0.0492965 0)
(11.9163 0.00831141 0)
(12.0342 0.0055193 0)
(12.115 0.0381132 0)
(12.1743 0.0490816 0)
(12.1901 -0.00474255 0)
(12.3121 0.0156895 0)
(12.3786 0.0421607 0)
(12.4012 0.0196378 0)
(12.4936 0.0105247 0)
(12.3821 -0.0111721 0)
(10.0109 0.0257575 0)
(10.2053 0.0493517 0)
(10.6059 0.0208279 0)
(10.9458 0.0430945 0)
(11.2603 0.0455947 0)
(11.4554 -0.0016813 0)
(11.5889 -0.0218217 0)
(11.6665 0.0170289 0)
(11.7114 0.0498379 0)
(11.7855 0.0352825 0)
(11.8928 -0.0284796 0)
(12.0212 -0.0143786 0)
(12.0851 0.0345244 0)
(12.1273 0.0166938 0)
(12.2251 -0.0137958 0)
(12.2567 -0.00376658 0)
(12.2878 0.01136 0)
(12.4019 0.00163221 0)
(12.4171 -0.0190753 0)
(12.3899 -0.0296799 0)
(9.98957 -0.0120042 0)
(10.2458 -0.0630188 0)
(10.592 -0.0538231 0)
(10.942 -0.00882699 0)
(11.2792 -0.00454886 0)
(11.4869 -0.0403581 0)
(11.5042 -0.0304678 0)
(11.56 -0.000268817 0)
(11.7248 0.0235941 0)
(11.8869 -0.00995169 0)
(11.9071 -0.0471483 0)
(11.966 -0.0415287 0)
(12.0663 0.0124197 0)
(12.1842 0.0104188 0)
(12.1985 -0.0333466 0)
(12.2426 -0.0157016 0)
(12.3468 -0.00714538 0)
(12.4015 -0.0427958 0)
(12.4219 -0.0442285 0)
(12.3741 -0.0403329 0)
(10.0247 -0.0635736 0)
(10.2144 -0.145593 0)
(10.6004 -0.136854 0)
(10.9933 -0.0938484 0)
(11.306 -0.0387467 0)
(11.4774 -0.0379658 0)
(11.5427 -0.0505632 0)
(11.6235 -0.0602645 0)
(11.7941 -0.0392882 0)
(11.8969 -0.0236791 0)
(11.928 -0.047035 0)
(11.9744 -0.0548929 0)
(12.0617 -0.0127729 0)
(12.1631 -0.0206088 0)
(12.2352 -0.0324525 0)
(12.3128 -0.048456 0)
(12.3573 -0.0452402 0)
(12.4228 -0.0493213 0)
(12.4356 -0.0591019 0)
(12.344 -0.0592423 0)
(9.98166 -0.104565 0)
(10.2748 -0.256163 0)
(10.7077 -0.223547 0)
(11.0239 -0.143721 0)
(11.2888 -0.0735127 0)
(11.5322 -0.0854145 0)
(11.6324 -0.0756968 0)
(11.647 -0.0848879 0)
(11.7818 -0.0581204 0)
(11.9218 -0.054311 0)
(11.9826 -0.065351 0)
(12.0418 -0.0732925 0)
(12.1304 -0.033268 0)
(12.2009 -0.036604 0)
(12.2833 -0.0620678 0)
(12.347 -0.0658852 0)
(12.4038 -0.0488833 0)
(12.4657 -0.0880547 0)
(12.4869 -0.0890367 0)
(12.4268 -0.0639811 0)
(10.0235 -0.170198 0)
(10.2979 -0.362185 0)
(10.7643 -0.298924 0)
(11.0919 -0.194386 0)
(11.3877 -0.118045 0)
(11.5754 -0.117115 0)
(11.6798 -0.0897698 0)
(11.7391 -0.116809 0)
(11.8946 -0.106435 0)
(11.9857 -0.0917396 0)
(12.0487 -0.0740525 0)
(12.1001 -0.0920644 0)
(12.188 -0.0465327 0)
(12.2542 -0.0637958 0)
(12.3493 -0.069951 0)
(12.4126 -0.0857944 0)
(12.4787 -0.0835405 0)
(12.514 -0.112191 0)
(12.5534 -0.104297 0)
(12.4879 -0.0964671 0)
(10.0581 -0.244794 0)
(10.3248 -0.46345 0)
(10.9195 -0.388527 0)
(11.1483 -0.234132 0)
(11.5184 -0.159119 0)
(11.6199 -0.15639 0)
(11.8077 -0.130532 0)
(11.8208 -0.15489 0)
(12.0236 -0.129919 0)
(12.0066 -0.104347 0)
(12.1234 -0.0923069 0)
(12.1349 -0.1128 0)
(12.2775 -0.0659583 0)
(12.2703 -0.0876016 0)
(12.3913 -0.089654 0)
(12.3918 -0.11263 0)
(12.4659 -0.0858917 0)
(12.4309 -0.135797 0)
(12.4564 -0.130044 0)
(12.3517 -0.135203 0)
(10.0672 -0.343621 0)
(10.4059 -0.579476 0)
(11.0414 -0.461722 0)
(11.2594 -0.276722 0)
(11.6773 -0.217719 0)
(11.6783 -0.196822 0)
(11.8987 -0.163292 0)
(11.8162 -0.178405 0)
(12.0056 -0.158851 0)
(11.8806 -0.122618 0)
(12.0347 -0.111175 0)
(11.9022 -0.125751 0)
(12.0558 -0.0843468 0)
(11.9019 -0.0963816 0)
(12.018 -0.0964336 0)
(11.8633 -0.114643 0)
(11.9392 -0.0913567 0)
(11.759 -0.141685 0)
(11.7721 -0.126696 0)
(11.5403 -0.157989 0)
(10.0239 -0.456632 0)
(10.5585 -0.709437 0)
(11.158 -0.543623 0)
(11.3613 -0.344791 0)
(11.5824 -0.270406 0)
(11.4405 -0.229171 0)
(11.5168 -0.189326 0)
(11.2847 -0.185234 0)
(11.309 -0.155917 0)
(11.0608 -0.116796 0)
(11.0998 -0.10394 0)
(10.8205 -0.108811 0)
(10.9008 -0.0744328 0)
(10.623 -0.0794266 0)
(10.689 -0.0782057 0)
(10.4105 -0.0944165 0)
(10.4758 -0.0690218 0)
(10.1707 -0.118007 0)
(10.1836 -0.0979584 0)
(9.84258 -0.158414 0)
(10.0731 -0.631198 0)
(10.6518 -0.865954 0)
(10.8629 -0.60103 0)
(10.6941 -0.368849 0)
(10.4662 -0.260276 0)
(10.0687 -0.197941 0)
(9.86156 -0.147008 0)
(9.4771 -0.126651 0)
(9.3239 -0.100751 0)
(9.01757 -0.0703541 0)
(8.94893 -0.0576487 0)
(8.65652 -0.0622231 0)
(8.67114 -0.0413824 0)
(8.39777 -0.0420841 0)
(8.42803 -0.0458114 0)
(8.15326 -0.0550951 0)
(8.19645 -0.0443302 0)
(7.89081 -0.0708741 0)
(7.89509 -0.0722418 0)
(7.54773 -0.0866172 0)
(10.0887 -0.838416 0)
(9.65444 -0.868389 0)
(8.86875 -0.506626 0)
(8.08737 -0.259547 0)
(7.49569 -0.140146 0)
(6.99622 -0.0838295 0)
(6.71163 -0.0501342 0)
(6.38747 -0.0420694 0)
(6.23071 -0.0342636 0)
(6.00973 -0.0210288 0)
(5.94407 -0.0165435 0)
(5.74745 -0.02417 0)
(5.7383 -0.014064 0)
(5.55684 -0.0152759 0)
(5.56482 -0.0192197 0)
(5.36761 -0.0258654 0)
(5.37915 -0.0192861 0)
(5.15518 -0.0328788 0)
(5.14203 -0.0390162 0)
(4.8523 -0.0172353 0)
(8.09206 -0.38785 0)
(5.44932 -0.242573 0)
(3.90954 -0.0431564 0)
(3.15906 0.0160431 0)
(2.80287 0.0179264 0)
(2.59328 0.0103219 0)
(2.48754 0.00695127 0)
(2.37908 0.00210994 0)
(2.31917 0.000103842 0)
(2.24152 0.00151883 0)
(2.22381 0.0016742 0)
(2.156 -0.00191122 0)
(2.1433 0.000531199 0)
(2.08296 -5.30889e-05 0)
(2.07943 -0.00107983 0)
(1.99845 -0.00298873 0)
(1.98693 -0.000267541 0)
(1.89821 -0.0036966 0)
(1.85919 -0.00418199 0)
(1.71112 0.0111233 0)
(2.17089 -0.0955766 0)
(2.2861 -0.0178435 0)
(2.43566 -0.00592896 0)
(2.56921 -0.0197003 0)
(2.71405 -0.0434452 0)
(2.83596 -0.0580822 0)
(2.93621 -0.0666405 0)
(3.01493 -0.0686313 0)
(3.07134 -0.0662246 0)
(3.11123 -0.0707484 0)
(3.14234 -0.0825649 0)
(3.163 -0.107559 0)
(3.18268 -0.129233 0)
(3.17665 -0.140499 0)
(3.16902 -0.128013 0)
(3.13951 -0.0928365 0)
(3.12315 -0.0501311 0)
(3.10443 0.0117108 0)
(3.07935 0.075934 0)
(3.1515 0.148128 0)
(3.219 0.230822 0)
(3.38444 0.299341 0)
(3.58368 0.323141 0)
(3.83507 0.304992 0)
(4.03275 0.2794 0)
(4.21717 0.210088 0)
(4.35683 0.137676 0)
(4.42685 0.047335 0)
(4.43932 -0.0176261 0)
(4.39797 -0.091319 0)
(4.36472 -0.137861 0)
(4.31184 -0.175057 0)
(4.26772 -0.205083 0)
(4.23586 -0.202452 0)
(4.18516 -0.199847 0)
(4.17579 -0.18345 0)
(4.13584 -0.162574 0)
(4.17001 -0.139937 0)
(4.16846 -0.122389 0)
(4.26291 -0.104919 0)
(4.27719 -0.0904261 0)
(4.38555 -0.0752381 0)
(4.38997 -0.0630342 0)
(4.49042 -0.0555776 0)
(4.49863 -0.0360005 0)
(4.57371 -0.0243064 0)
(4.6126 0.0172832 0)
(4.64994 0.0408144 0)
(4.74686 0.0697519 0)
(4.7349 0.0849102 0)
(4.89512 0.0690704 0)
(4.82294 0.0534437 0)
(4.99986 0.0254906 0)
(4.92663 -0.010416 0)
(5.08287 -0.0463549 0)
(5.02708 -0.0502338 0)
(5.10983 -0.0950801 0)
(5.12416 -0.0717259 0)
(5.08945 -0.0871438 0)
(5.19488 -0.0788497 0)
(5.13278 -0.0304978 0)
(5.20336 -0.03343 0)
(5.24811 0.0221566 0)
(5.24956 0.0314243 0)
(5.40607 0.0571853 0)
(5.34737 0.0984782 0)
(5.553 0.0546108 0)
(5.58116 0.0919197 0)
(5.65291 0.0830555 0)
(5.79972 0.0220321 0)
(5.85947 0.066832 0)
(5.97612 0.0317734 0)
(6.09991 -0.00200897 0)
(6.17347 0.021605 0)
(6.38442 -0.0194116 0)
(6.46577 -0.024843 0)
(6.63884 -0.0341727 0)
(6.82627 -0.0956063 0)
(6.98572 -0.119948 0)
(7.16324 -0.19416 0)
(7.38159 -0.275504 0)
(7.57268 -0.350604 0)
(7.75435 -0.464082 0)
(7.95008 -0.582809 0)
(8.18583 -0.699693 0)
(8.32151 -0.792777 0)
(8.59628 -0.945075 0)
(8.79575 -1.06248 0)
(9.01658 -1.15674 0)
(9.27248 -1.29673 0)
(9.52927 -1.43424 0)
(9.78437 -1.49797 0)
(10.0956 -1.6386 0)
(10.4063 -1.75486 0)
(10.6397 -1.80317 0)
(10.9946 -1.93605 0)
(11.2968 -2.04552 0)
(11.5687 -2.04877 0)
(11.8675 -2.14549 0)
(12.2205 -2.19769 0)
(12.4338 -2.23242 0)
(12.7487 -2.24166 0)
(13.0335 -2.32284 0)
(13.3101 -2.34032 0)
(13.4943 -2.37741 0)
(13.8499 -2.42729 0)
(13.856 -2.4217 0)
(14.1946 -2.45873 0)
(14.2145 -2.48603 0)
(14.3557 -2.47057 0)
(14.3054 -2.49215 0)
(14.4198 -2.45777 0)
(14.137 -2.40718 0)
(14.1488 -2.36658 0)
(13.7931 -2.32148 0)
(13.5588 -2.15154 0)
(13.0359 -2.06669 0)
(12.6725 -1.84788 0)
(12.0096 -1.59764 0)
(11.5014 -1.34526 0)
(10.8467 -1.23186 0)
(10.3977 -1.01071 0)
(9.70632 -0.885338 0)
(9.43385 -0.648485 0)
(8.75037 -0.574127 0)
(8.6315 -0.391637 0)
(8.16983 -0.429776 0)
(8.03968 -0.4111 0)
(7.91967 -0.539576 0)
(7.7784 -0.716062 0)
(7.94207 -0.908792 0)
(7.81139 -1.29352 0)
(8.24675 -1.5669 0)
(8.34505 -1.85238 0)
(8.6291 -2.32054 0)
(9.09208 -2.53856 0)
(9.55154 -2.87292 0)
(10.3978 -2.91853 0)
(11.0435 -3.05419 0)
(11.8555 -2.71342 0)
(12.4248 -2.35108 0)
(12.9722 -1.85683 0)
(13.3705 -1.22325 0)
(13.8974 -0.539463 0)
(13.9908 -0.00297749 0)
(14.2906 0.777229 0)
(14.3702 1.39369 0)
(14.2779 1.9724 0)
(14.322 2.59696 0)
(14.0255 3.06195 0)
(14.0412 3.38839 0)
(13.536 3.61436 0)
(13.5979 3.9405 0)
(12.9894 3.90745 0)
(12.926 3.81746 0)
(12.6995 3.87172 0)
(12.3967 3.58953 0)
(12.4741 3.20933 0)
(12.0041 3.1026 0)
(12.2261 2.6351 0)
(11.6547 1.75981 0)
(11.8666 1.66967 0)
(10.9591 0.728463 0)
(11.6006 0.243887 0)
(10.2642 -0.941997 0)
(10.6568 -0.647397 0)
(9.08199 -1.92127 0)
(9.72639 -2.09969 0)
(8.01285 -3.4482 0)
(8.36363 -1.15823 0)
(6.20298 -2.09076 0)
(8.09326 -1.92493 0)
(6.86277 -3.71785 0)
(7.07577 -5.70296 0)
(7.04825 -6.54753 0)
(6.76087 -6.31986 0)
(5.84203 -6.52231 0)
(6.29919 -6.74143 0)
(6.83856 -5.73403 0)
(7.35115 -4.13707 0)
(7.75388 -1.98478 0)
(7.87638 -0.212941 0)
(7.99987 1.62748 0)
(8.25007 3.21191 0)
(7.89278 4.77811 0)
(8.09825 6.44514 0)
(7.71696 7.28504 0)
(7.25854 7.71454 0)
(7.15716 7.7164 0)
(6.37759 7.326 0)
(5.60001 7.44361 0)
(5.43383 7.67707 0)
(4.92708 7.61122 0)
(4.14802 7.88722 0)
(4.28868 8.3993 0)
(3.7712 8.45989 0)
(4.02842 7.45148 0)
(3.14193 6.37701 0)
(4.14949 4.96108 0)
(2.5368 5.9246 0)
(5.17337 -0.0525496 0)
(5.19181 -0.0243822 0)
(5.22612 -0.0342506 0)
(5.28784 -0.0658836 0)
(5.37779 -0.0952647 0)
(5.46618 -0.108722 0)
(5.54058 -0.10829 0)
(5.59147 -0.0989788 0)
(5.62758 -0.0921573 0)
(5.64501 -0.0908222 0)
(5.66175 -0.099014 0)
(5.6674 -0.110681 0)
(5.67443 -0.121783 0)
(5.67065 -0.12488 0)
(5.65969 -0.113967 0)
(5.64255 -0.0886894 0)
(5.61296 -0.0514144 0)
(5.59406 -0.00142429 0)
(5.57523 0.0645073 0)
(5.57703 0.129414 0)
(5.60208 0.186803 0)
(5.64049 0.237067 0)
(5.71564 0.254548 0)
(5.80528 0.245459 0)
(5.90497 0.211642 0)
(5.98606 0.163518 0)
(6.0652 0.0979155 0)
(6.12104 0.0270168 0)
(6.13981 -0.0416679 0)
(6.16438 -0.100381 0)
(6.14772 -0.146171 0)
(6.17755 -0.18703 0)
(6.15477 -0.207945 0)
(6.19421 -0.225508 0)
(6.16101 -0.224475 0)
(6.20664 -0.22103 0)
(6.175 -0.204313 0)
(6.24557 -0.183508 0)
(6.22949 -0.166511 0)
(6.3352 -0.149295 0)
(6.32814 -0.137485 0)
(6.43542 -0.124263 0)
(6.43516 -0.11078 0)
(6.5173 -0.102093 0)
(6.54385 -0.0768237 0)
(6.58918 -0.0691884 0)
(6.65907 -0.0310906 0)
(6.66636 -0.0234933 0)
(6.77166 0.00744818 0)
(6.76351 0.0174198 0)
(6.8671 0.0018517 0)
(6.88559 0.0157137 0)
(6.92887 -0.0278139 0)
(7.00231 -0.0282991 0)
(6.98768 -0.0654232 0)
(7.09546 -0.0882992 0)
(7.04473 -0.0852673 0)
(7.15231 -0.12093 0)
(7.09359 -0.0834514 0)
(7.17382 -0.100577 0)
(7.1673 -0.069862 0)
(7.18467 -0.0446072 0)
(7.25629 -0.0333881 0)
(7.24408 0.00959532 0)
(7.3407 0.00136951 0)
(7.35029 0.0393421 0)
(7.42894 0.0405374 0)
(7.49233 0.00390806 0)
(7.53228 0.0416934 0)
(7.63547 -0.00315626 0)
(7.67545 -0.0250705 0)
(7.77209 -0.0192507 0)
(7.86784 -0.0596543 0)
(7.93779 -0.0691654 0)
(8.07525 -0.103606 0)
(8.18014 -0.134274 0)
(8.31853 -0.161792 0)
(8.4628 -0.22227 0)
(8.63094 -0.263884 0)
(8.79458 -0.354912 0)
(8.95933 -0.414347 0)
(9.18092 -0.52891 0)
(9.35823 -0.630094 0)
(9.54692 -0.727506 0)
(9.80866 -0.88378 0)
(9.965 -0.973231 0)
(10.2424 -1.09656 0)
(10.4542 -1.26739 0)
(10.6728 -1.34828 0)
(10.9231 -1.4969 0)
(11.1913 -1.64171 0)
(11.366 -1.6985 0)
(11.6912 -1.86799 0)
(11.8679 -1.96768 0)
(12.0812 -2.0264 0)
(12.3535 -2.16343 0)
(12.5495 -2.2097 0)
(12.715 -2.24011 0)
(13.0035 -2.3666 0)
(13.1153 -2.37919 0)
(13.3283 -2.41066 0)
(13.5155 -2.47509 0)
(13.6866 -2.4816 0)
(13.798 -2.49632 0)
(14.0355 -2.58909 0)
(14.1087 -2.54249 0)
(14.1975 -2.54782 0)
(14.3393 -2.59359 0)
(14.3675 -2.52964 0)
(14.3255 -2.49724 0)
(14.3495 -2.47692 0)
(14.2656 -2.37705 0)
(14.04 -2.26677 0)
(14.0001 -2.19739 0)
(13.5683 -2.03561 0)
(13.3809 -1.83945 0)
(12.7768 -1.6721 0)
(12.5082 -1.4213 0)
(11.7674 -1.13727 0)
(11.522 -0.910154 0)
(10.6662 -0.734989 0)
(10.4403 -0.536829 0)
(9.60362 -0.440435 0)
(9.46091 -0.287509 0)
(8.72107 -0.194986 0)
(8.67107 -0.163534 0)
(8.09079 -0.155386 0)
(8.10722 -0.277102 0)
(7.81152 -0.429374 0)
(7.83605 -0.664593 0)
(7.72199 -0.886955 0)
(7.84548 -1.39628 0)
(8.02781 -1.69519 0)
(7.91151 -2.0346 0)
(8.21239 -2.48829 0)
(8.56676 -3.06013 0)
(9.45409 -3.45392 0)
(10.2354 -3.70099 0)
(11.2012 -3.72398 0)
(11.7879 -3.34764 0)
(12.5164 -2.93109 0)
(12.9221 -2.32916 0)
(13.429 -1.65279 0)
(13.6907 -0.805278 0)
(14.0175 -0.188298 0)
(14.114 0.650845 0)
(14.3881 1.42142 0)
(14.1755 1.97883 0)
(14.3845 2.64703 0)
(13.9898 3.18813 0)
(13.917 3.60907 0)
(13.6939 3.80874 0)
(13.3836 4.08093 0)
(13.2749 4.1395 0)
(12.7341 3.969 0)
(12.7304 4.16454 0)
(12.045 3.6585 0)
(12.3609 3.47587 0)
(11.6327 3.17549 0)
(11.7421 2.83908 0)
(11.5196 1.94928 0)
(11.238 1.9954 0)
(10.8961 0.805505 0)
(11.1069 0.649958 0)
(9.97293 -0.600876 0)
(10.2831 -0.0682456 0)
(8.89548 -1.66347 0)
(9.43998 -1.58757 0)
(8.0183 -2.85749 0)
(8.01656 -0.31185 0)
(6.2927 -2.24313 0)
(8.02671 -1.67471 0)
(6.71255 -3.46855 0)
(6.37995 -5.44776 0)
(6.78394 -6.3533 0)
(6.10497 -5.87918 0)
(5.20828 -6.34539 0)
(5.55141 -6.83757 0)
(5.70336 -6.37837 0)
(6.81798 -4.31652 0)
(6.8429 -2.36279 0)
(7.55023 -0.31343 0)
(7.4419 1.2807 0)
(7.93775 3.2951 0)
(7.68891 4.87865 0)
(7.67981 6.65122 0)
(7.73742 7.77945 0)
(7.16709 7.98961 0)
(6.89981 7.95939 0)
(6.76436 7.94137 0)
(5.94732 7.70699 0)
(5.54649 7.92839 0)
(5.50682 7.99826 0)
(4.57122 8.07951 0)
(4.82374 8.26521 0)
(4.42038 8.28495 0)
(4.99852 7.51182 0)
(4.37558 6.69242 0)
(5.28242 4.94869 0)
(4.5746 5.81324 0)
(7.83947 -0.0768878 0)
(7.83496 -0.0832196 0)
(7.85485 -0.10233 0)
(7.89669 -0.125889 0)
(7.97274 -0.131361 0)
(8.03519 -0.129007 0)
(8.09238 -0.118133 0)
(8.11789 -0.107143 0)
(8.13806 -0.100787 0)
(8.13616 -0.096409 0)
(8.1391 -0.101124 0)
(8.13052 -0.105393 0)
(8.12561 -0.110884 0)
(8.11525 -0.108399 0)
(8.10042 -0.0983782 0)
(8.08427 -0.0724872 0)
(8.06192 -0.0386471 0)
(8.04528 0.0136124 0)
(8.03472 0.0652447 0)
(8.02471 0.123506 0)
(8.04397 0.166168 0)
(8.05644 0.202725 0)
(8.11063 0.217611 0)
(8.14121 0.207151 0)
(8.21506 0.179613 0)
(8.24281 0.128827 0)
(8.30132 0.0781216 0)
(8.32189 0.00828973 0)
(8.34122 -0.0465705 0)
(8.36197 -0.102762 0)
(8.34141 -0.145932 0)
(8.38372 -0.180368 0)
(8.34615 -0.212002 0)
(8.40322 -0.221669 0)
(8.3583 -0.239109 0)
(8.41824 -0.228212 0)
(8.38354 -0.224552 0)
(8.44102 -0.209006 0)
(8.43914 -0.189711 0)
(8.4912 -0.187484 0)
(8.52641 -0.160588 0)
(8.55909 -0.166788 0)
(8.6165 -0.135656 0)
(8.62699 -0.133773 0)
(8.69462 -0.112054 0)
(8.703 -0.0882692 0)
(8.76264 -0.0842626 0)
(8.79216 -0.0419722 0)
(8.82638 -0.0517872 0)
(8.88413 -0.0219987 0)
(8.89358 -0.0298275 0)
(8.96923 -0.0372856 0)
(8.9604 -0.0384554 0)
(9.03699 -0.0683017 0)
(9.02311 -0.0714689 0)
(9.09678 -0.105068 0)
(9.07668 -0.0978255 0)
(9.14175 -0.128791 0)
(9.12437 -0.107119 0)
(9.16469 -0.103544 0)
(9.17431 -0.108159 0)
(9.19497 -0.0559411 0)
(9.23321 -0.0720344 0)
(9.24897 -0.0358594 0)
(9.30101 -0.0168736 0)
(9.33506 -0.0332936 0)
(9.37057 0.0020268 0)
(9.44877 -0.0290413 0)
(9.46343 -0.0331285 0)
(9.5607 -0.0487199 0)
(9.58764 -0.0702227 0)
(9.68195 -0.0975272 0)
(9.75562 -0.130905 0)
(9.81381 -0.134509 0)
(9.94004 -0.212827 0)
(10.0294 -0.221321 0)
(10.1357 -0.262159 0)
(10.2854 -0.370563 0)
(10.408 -0.36169 0)
(10.5613 -0.493802 0)
(10.713 -0.574834 0)
(10.8888 -0.632416 0)
(11.0465 -0.792404 0)
(11.237 -0.879272 0)
(11.4023 -0.996184 0)
(11.5896 -1.14743 0)
(11.7969 -1.25947 0)
(11.9257 -1.39237 0)
(12.142 -1.51638 0)
(12.3293 -1.66653 0)
(12.4443 -1.7545 0)
(12.6273 -1.88164 0)
(12.8322 -2.02836 0)
(12.8583 -2.06418 0)
(13.0711 -2.1892 0)
(13.2066 -2.29584 0)
(13.222 -2.27968 0)
(13.3743 -2.4018 0)
(13.4998 -2.48368 0)
(13.4652 -2.42945 0)
(13.6387 -2.55798 0)
(13.7313 -2.59277 0)
(13.7385 -2.57222 0)
(13.8545 -2.62498 0)
(13.9663 -2.67699 0)
(13.9545 -2.60468 0)
(14.0614 -2.63563 0)
(14.1044 -2.63598 0)
(14.1356 -2.52703 0)
(14.0849 -2.48436 0)
(14.1555 -2.40876 0)
(13.9872 -2.2313 0)
(13.9686 -2.13362 0)
(13.7783 -1.97639 0)
(13.542 -1.754 0)
(13.174 -1.49553 0)
(12.8798 -1.29833 0)
(12.3429 -1.00499 0)
(11.9141 -0.731076 0)
(11.4582 -0.478399 0)
(10.8634 -0.303436 0)
(10.4701 -0.132143 0)
(9.78019 -0.0240661 0)
(9.46197 0.0928494 0)
(8.84366 0.093826 0)
(8.70326 0.130987 0)
(8.00655 0.0459079 0)
(8.24027 -0.0958717 0)
(7.56156 -0.339085 0)
(7.83054 -0.548605 0)
(7.42748 -0.978737 0)
(7.77773 -1.40855 0)
(7.25947 -1.69488 0)
(7.35627 -2.07742 0)
(7.5264 -2.90454 0)
(8.47773 -3.80295 0)
(9.2648 -4.30687 0)
(10.4112 -4.58852 0)
(10.9868 -4.46819 0)
(11.7376 -3.96946 0)
(12.0849 -3.4198 0)
(12.6362 -2.7587 0)
(12.9795 -2.10774 0)
(13.3362 -1.10977 0)
(13.495 -0.441667 0)
(13.8549 0.425564 0)
(13.95 1.30441 0)
(13.9873 1.99357 0)
(14.0446 2.68074 0)
(14.0687 3.27021 0)
(13.6142 3.71396 0)
(13.5979 4.05569 0)
(13.0551 4.30897 0)
(13.1447 4.37216 0)
(12.6633 4.10405 0)
(12.5258 4.34404 0)
(12.1201 3.71527 0)
(11.9929 3.55309 0)
(11.6032 3.27978 0)
(11.3919 2.71298 0)
(11.3281 2.11204 0)
(10.8204 2.09467 0)
(10.434 0.873333 0)
(10.9377 0.793983 0)
(9.4464 -0.116364 0)
(10.1781 0.262084 0)
(8.47744 -1.31013 0)
(9.57351 -1.19553 0)
(7.42448 -2.34629 0)
(7.81273 0.530041 0)
(6.33109 -2.40738 0)
(7.70569 -1.53488 0)
(6.71635 -3.02772 0)
(6.14623 -5.28989 0)
(6.65959 -5.89032 0)
(5.93109 -5.56169 0)
(5.47611 -5.96394 0)
(4.8208 -6.82546 0)
(5.31012 -6.81627 0)
(5.96565 -4.82197 0)
(6.37471 -2.7766 0)
(6.94768 -0.481933 0)
(7.20881 1.14669 0)
(7.33358 3.15221 0)
(7.58746 4.89548 0)
(7.36792 6.40184 0)
(7.47585 7.90916 0)
(7.39264 8.30103 0)
(6.83253 8.19086 0)
(6.66856 8.25401 0)
(6.50194 8.12842 0)
(5.65063 8.16088 0)
(5.88148 8.28168 0)
(5.27617 8.39118 0)
(5.39329 8.3497 0)
(5.2268 8.25295 0)
(5.84897 7.4523 0)
(5.6516 6.83994 0)
(6.14294 5.06738 0)
(5.81442 5.1787 0)
(10.0554 -0.11152 0)
(10.0649 -0.221941 0)
(10.1068 -0.259482 0)
(10.1609 -0.250654 0)
(10.2182 -0.214327 0)
(10.2677 -0.173293 0)
(10.2835 -0.147244 0)
(10.2962 -0.119806 0)
(10.2861 -0.113744 0)
(10.2753 -0.103721 0)
(10.2631 -0.103595 0)
(10.2428 -0.105697 0)
(10.231 -0.101633 0)
(10.2095 -0.102027 0)
(10.1986 -0.0845753 0)
(10.1743 -0.0630504 0)
(10.1703 -0.0299844 0)
(10.141 0.0167034 0)
(10.1575 0.0574058 0)
(10.1259 0.109897 0)
(10.1728 0.14287 0)
(10.1525 0.173451 0)
(10.2306 0.184231 0)
(10.2241 0.176451 0)
(10.3037 0.15206 0)
(10.3139 0.10892 0)
(10.357 0.0604636 0)
(10.3852 0.00402193 0)
(10.3774 -0.0536639 0)
(10.4183 -0.099079 0)
(10.3758 -0.145146 0)
(10.4186 -0.177453 0)
(10.3801 -0.206578 0)
(10.4065 -0.22761 0)
(10.393 -0.235231 0)
(10.3906 -0.24618 0)
(10.4119 -0.231844 0)
(10.3885 -0.235662 0)
(10.4384 -0.212381 0)
(10.4201 -0.208327 0)
(10.4783 -0.197592 0)
(10.4774 -0.175437 0)
(10.5244 -0.181026 0)
(10.5366 -0.143964 0)
(10.5696 -0.149078 0)
(10.5946 -0.117378 0)
(10.6202 -0.106567 0)
(10.6513 -0.0901939 0)
(10.6739 -0.0719039 0)
(10.7071 -0.0709055 0)
(10.7265 -0.0596084 0)
(10.7587 -0.0672755 0)
(10.7771 -0.0721751 0)
(10.7993 -0.0828553 0)
(10.8221 -0.0959973 0)
(10.8414 -0.108504 0)
(10.8474 -0.115383 0)
(10.8886 -0.12911 0)
(10.8666 -0.124908 0)
(10.916 -0.117699 0)
(10.9031 -0.118431 0)
(10.9309 -0.0892116 0)
(10.9607 -0.09222 0)
(10.9656 -0.0649462 0)
(11.01 -0.0600851 0)
(11.0418 -0.0575139 0)
(11.0583 -0.0434925 0)
(11.1365 -0.0748572 0)
(11.1384 -0.0583714 0)
(11.2243 -0.105159 0)
(11.2543 -0.119326 0)
(11.318 -0.122269 0)
(11.39 -0.214824 0)
(11.4512 -0.181734 0)
(11.5233 -0.267571 0)
(11.6323 -0.318975 0)
(11.6954 -0.333506 0)
(11.8145 -0.452891 0)
(11.9355 -0.480102 0)
(12.0094 -0.578853 0)
(12.1751 -0.683514 0)
(12.2736 -0.75204 0)
(12.3788 -0.890982 0)
(12.5616 -0.996697 0)
(12.6031 -1.11429 0)
(12.7749 -1.24593 0)
(12.9041 -1.39129 0)
(12.9305 -1.48298 0)
(13.0985 -1.62244 0)
(13.1884 -1.79163 0)
(13.1626 -1.80709 0)
(13.3416 -2.00865 0)
(13.3612 -2.08201 0)
(13.3035 -2.11774 0)
(13.4694 -2.2764 0)
(13.4085 -2.33677 0)
(13.3516 -2.32276 0)
(13.4872 -2.49408 0)
(13.4068 -2.487 0)
(13.3556 -2.48051 0)
(13.4794 -2.61088 0)
(13.4801 -2.65581 0)
(13.4418 -2.60221 0)
(13.6338 -2.76192 0)
(13.5988 -2.67777 0)
(13.6748 -2.66451 0)
(13.8037 -2.70666 0)
(13.8737 -2.6379 0)
(13.8889 -2.52636 0)
(14.0889 -2.52321 0)
(14.0099 -2.3389 0)
(14.0886 -2.17063 0)
(14.0086 -2.06062 0)
(13.9782 -1.77708 0)
(13.6145 -1.52913 0)
(13.5407 -1.27983 0)
(12.9676 -0.942357 0)
(12.6773 -0.647034 0)
(12.1385 -0.401761 0)
(11.6999 -0.0629217 0)
(11.0696 0.110768 0)
(10.7609 0.271206 0)
(9.96219 0.420328 0)
(9.6721 0.466904 0)
(9.01139 0.500809 0)
(8.74069 0.481335 0)
(8.14784 0.268752 0)
(8.21829 0.0799545 0)
(7.45162 -0.099257 0)
(7.65762 -0.493823 0)
(7.27625 -0.952647 0)
(7.13412 -1.18117 0)
(6.50254 -1.51304 0)
(6.70595 -2.31822 0)
(7.33558 -3.51641 0)
(8.27866 -4.60999 0)
(9.08532 -5.11241 0)
(10.118 -5.17308 0)
(10.3216 -4.90608 0)
(11.2329 -4.29753 0)
(11.0457 -3.70752 0)
(11.9617 -2.89658 0)
(11.7489 -2.30411 0)
(12.5486 -1.21341 0)
(12.3393 -0.629716 0)
(13.0436 0.301424 0)
(12.9477 1.10338 0)
(13.3801 1.89948 0)
(13.2665 2.65479 0)
(13.5206 3.44815 0)
(13.3431 3.76664 0)
(13.2822 4.20609 0)
(12.7732 4.4675 0)
(12.5823 4.60901 0)
(12.4034 4.45534 0)
(12.0632 4.65639 0)
(11.844 4.10478 0)
(11.738 3.81853 0)
(11.0567 3.74566 0)
(11.3539 2.91423 0)
(10.5658 2.53963 0)
(10.7542 2.29304 0)
(9.77856 1.11565 0)
(10.7393 1.09583 0)
(8.58764 0.273851 0)
(10.1808 0.67697 0)
(7.773 -1.24463 0)
(9.41681 -0.512873 0)
(6.65171 -1.82191 0)
(7.40805 0.978779 0)
(6.69987 -2.94216 0)
(7.53136 -1.43787 0)
(7.39645 -2.9511 0)
(6.67415 -4.62921 0)
(6.38116 -5.68763 0)
(6.51357 -5.1484 0)
(6.10267 -5.00904 0)
(5.04686 -6.93809 0)
(5.33334 -6.87842 0)
(5.36537 -5.41756 0)
(6.29129 -3.06901 0)
(6.3538 -1.00334 0)
(7.06178 1.0941 0)
(6.86869 2.96087 0)
(7.28122 5.05166 0)
(7.18654 6.54554 0)
(6.98782 7.86351 0)
(7.28097 8.4556 0)
(6.97614 8.39278 0)
(6.50058 8.37146 0)
(6.91277 8.35142 0)
(6.06293 8.45049 0)
(6.42941 8.49581 0)
(5.91563 8.49725 0)
(6.03554 8.38784 0)
(5.98709 8.13014 0)
(6.40081 7.15515 0)
(6.369 6.56034 0)
(6.82888 4.93178 0)
(6.7811 4.75727 0)
(11.5406 -0.103383 0)
(11.5881 -0.251932 0)
(11.6913 -0.304011 0)
(11.7983 -0.29404 0)
(11.8431 -0.24344 0)
(11.8871 -0.19365 0)
(11.8753 -0.150024 0)
(11.8662 -0.122555 0)
(11.8442 -0.10523 0)
(11.816 -0.0991869 0)
(11.8002 -0.0928069 0)
(11.7727 -0.0910933 0)
(11.7542 -0.0853211 0)
(11.731 -0.0819302 0)
(11.7177 -0.0676177 0)
(11.6909 -0.0479703 0)
(11.6959 -0.0215262 0)
(11.6641 0.0161024 0)
(11.6983 0.0499464 0)
(11.6619 0.0940688 0)
(11.7252 0.118587 0)
(11.7009 0.148472 0)
(11.7808 0.149782 0)
(11.7801 0.152776 0)
(11.8408 0.12229 0)
(11.8717 0.0946996 0)
(11.8885 0.048018 0)
(11.9337 -0.00329562 0)
(11.9144 -0.0472755 0)
(11.9503 -0.106579 0)
(11.9168 -0.130025 0)
(11.9286 -0.184428 0)
(11.9095 -0.194814 0)
(11.8948 -0.227782 0)
(11.8999 -0.235476 0)
(11.8651 -0.238286 0)
(11.8885 -0.247931 0)
(11.8536 -0.225667 0)
(11.8812 -0.235538 0)
(11.8658 -0.206523 0)
(11.8891 -0.211433 0)
(11.8934 -0.18973 0)
(11.9115 -0.183301 0)
(11.9219 -0.172173 0)
(11.9417 -0.148861 0)
(11.9526 -0.149977 0)
(11.9793 -0.114658 0)
(11.9861 -0.117696 0)
(12.0158 -0.0967875 0)
(12.0189 -0.0850692 0)
(12.0491 -0.0971976 0)
(12.0448 -0.0728833 0)
(12.0765 -0.102203 0)
(12.066 -0.0920415 0)
(12.0963 -0.103973 0)
(12.0933 -0.12428 0)
(12.1032 -0.106051 0)
(12.1244 -0.144212 0)
(12.1109 -0.121958 0)
(12.1467 -0.12188 0)
(12.1313 -0.137862 0)
(12.1571 -0.0860404 0)
(12.1759 -0.123838 0)
(12.1763 -0.0793814 0)
(12.2205 -0.0800104 0)
(12.2291 -0.102656 0)
(12.2603 -0.0555794 0)
(12.3074 -0.127068 0)
(12.321 -0.0830851 0)
(12.38 -0.139747 0)
(12.4141 -0.168852 0)
(12.4573 -0.150725 0)
(12.5044 -0.265292 0)
(12.5724 -0.230238 0)
(12.5956 -0.319527 0)
(12.6883 -0.380928 0)
(12.735 -0.38888 0)
(12.8062 -0.53788 0)
(12.8926 -0.528334 0)
(12.9418 -0.674333 0)
(13.0421 -0.754238 0)
(13.092 -0.812844 0)
(13.1529 -0.99584 0)
(13.2612 -1.03887 0)
(13.2158 -1.19146 0)
(13.3779 -1.31692 0)
(13.3468 -1.42418 0)
(13.349 -1.53875 0)
(13.4606 -1.69127 0)
(13.3613 -1.77284 0)
(13.3881 -1.87783 0)
(13.4294 -2.02111 0)
(13.3009 -2.05713 0)
(13.3287 -2.16125 0)
(13.2914 -2.28768 0)
(13.1872 -2.25712 0)
(13.191 -2.40515 0)
(13.1962 -2.43284 0)
(13.102 -2.48116 0)
(13.1328 -2.5378 0)
(13.2293 -2.63601 0)
(13.1672 -2.6392 0)
(13.3052 -2.71913 0)
(13.4214 -2.76245 0)
(13.4567 -2.77001 0)
(13.6007 -2.74077 0)
(13.7875 -2.81032 0)
(13.8073 -2.65709 0)
(14.0466 -2.65847 0)
(14.1832 -2.58216 0)
(14.1941 -2.38995 0)
(14.2748 -2.20662 0)
(14.3148 -2.04001 0)
(14.169 -1.67428 0)
(13.9751 -1.37457 0)
(13.7812 -1.03042 0)
(13.3834 -0.634557 0)
(13.0038 -0.308445 0)
(12.5103 0.0349144 0)
(11.9915 0.329926 0)
(11.3821 0.524753 0)
(10.8479 0.804197 0)
(10.1703 0.885016 0)
(9.8146 0.866579 0)
(9.03548 0.927575 0)
(8.72808 0.833962 0)
(8.27369 0.514149 0)
(7.88405 0.458046 0)
(7.4492 0.117303 0)
(7.36272 -0.382101 0)
(6.93293 -0.598483 0)
(6.22871 -0.759095 0)
(6.00338 -1.44712 0)
(6.29946 -2.83786 0)
(7.12398 -4.21042 0)
(7.7656 -5.33041 0)
(8.72325 -5.63717 0)
(9.20782 -5.57975 0)
(9.59027 -5.16135 0)
(10.156 -4.50838 0)
(10.0416 -3.97656 0)
(10.7905 -3.04628 0)
(10.4763 -2.42087 0)
(11.4349 -1.32705 0)
(11.1062 -0.911194 0)
(11.8709 0.189952 0)
(11.6374 0.875596 0)
(12.3081 1.72143 0)
(12.3591 2.42906 0)
(12.465 3.39191 0)
(12.6034 3.86079 0)
(12.5592 4.42141 0)
(12.3899 4.60845 0)
(12.2434 4.5394 0)
(11.7809 4.59517 0)
(11.8013 4.62231 0)