/*--------------------------------*- C++ -*----------------------------------*\
| =========                 |                                                 |
| \\      /  F ield         | OpenFOAM: The Open Source CFD Toolbox           |
|  \\    /   O peration     | Version:  2.4.0                                 |
|   \\  /    A nd           | Web:      www.OpenFOAM.org                      |
|    \\/     M anipulation  |                                                 |
\*---------------------------------------------------------------------------*/
FoamFile
{
    version     2.0;
    format      ascii;
    class       volVectorField;
    location    "0.44";
    object      U_0;
}
// * * * * * * * * * * * * * * * * * * * * * * * * * * * * * * * * * * * * * //

dimensions      [0 1 -1 0 0 0 0];

internalField   nonuniform List<vector> 
8800
(
(8.09213 0.388027 0)
(5.44927 0.242497 0)
(3.91187 0.0427645 0)
(3.15724 -0.0154591 0)
(2.80058 -0.0180485 0)
(2.59907 -0.0112638 0)
(2.48374 -0.00550655 0)
(2.37988 -0.00215334 0)
(2.31972 -0.00193234 0)
(2.24909 -0.000231689 0)
(2.21759 -0.000856837 0)
(2.16685 -0.000287951 0)
(2.14553 4.76136e-05 0)
(2.09903 0.000768498 0)
(2.07827 -0.000213662 0)
(2.03791 0.00116354 0)
(2.00229 0.00134121 0)
(1.96003 0.000163826 0)
(1.93386 0.00804291 0)
(1.74102 -0.0597953 0)
(10.0857 0.838325 0)
(9.65591 0.868 0)
(8.87313 0.507017 0)
(8.08326 0.261925 0)
(7.49176 0.138083 0)
(7.01039 0.0813931 0)
(6.69412 0.0546056 0)
(6.39943 0.041179 0)
(6.22826 0.0287494 0)
(6.0203 0.0256116 0)
(5.93046 0.0178066 0)
(5.77995 0.0172943 0)
(5.71995 0.015216 0)
(5.59706 0.017632 0)
(5.55156 0.0125712 0)
(5.44412 0.0187578 0)
(5.37726 0.0207095 0)
(5.27925 0.0146512 0)
(5.21721 0.0293998 0)
(5.05785 -0.0353518 0)
(10.0645 0.632433 0)
(10.6567 0.86275 0)
(10.8697 0.599401 0)
(10.6917 0.37415 0)
(10.4537 0.256523 0)
(10.0935 0.196275 0)
(9.83283 0.154536 0)
(9.49649 0.123165 0)
(9.31735 0.0924875 0)
(9.03118 0.0787322 0)
(8.92791 0.0567811 0)
(8.70571 0.0528515 0)
(8.63701 0.0436639 0)
(8.44688 0.044259 0)
(8.41003 0.0347132 0)
(8.23738 0.043021 0)
(8.18251 0.0464732 0)
(8.02711 0.0402318 0)
(7.96539 0.0515468 0)
(7.78795 -0.0302386 0)
(10.005 0.456976 0)
(10.5628 0.707424 0)
(11.1663 0.547449 0)
(11.3818 0.35268 0)
(11.5519 0.258063 0)
(11.4716 0.225571 0)
(11.4862 0.202893 0)
(11.3012 0.177173 0)
(11.296 0.146057 0)
(11.0777 0.131668 0)
(11.0778 0.100292 0)
(10.8699 0.0938182 0)
(10.8739 0.0828706 0)
(10.6574 0.0792035 0)
(10.6818 0.062007 0)
(10.4718 0.079087 0)
(10.4716 0.0682869 0)
(10.2673 0.0854606 0)
(10.2685 0.0626955 0)
(9.9861 0.0909756 0)
(10.0472 0.348547 0)
(10.3986 0.564374 0)
(11.0414 0.454732 0)
(11.3096 0.300816 0)
(11.6523 0.211474 0)
(11.6853 0.191073 0)
(11.892 0.18213 0)
(11.8228 0.169723 0)
(11.9815 0.140614 0)
(11.886 0.139275 0)
(12.0357 0.105379 0)
(11.9264 0.110369 0)
(12.0607 0.0907401 0)
(11.9173 0.103277 0)
(12.0249 0.0692123 0)
(11.8862 0.108374 0)
(11.9493 0.0776648 0)
(11.7955 0.112955 0)
(11.8687 0.0737139 0)
(11.6 0.150324 0)
(10.0632 0.253402 0)
(10.3249 0.46033 0)
(10.8945 0.377489 0)
(11.1537 0.242471 0)
(11.5288 0.155495 0)
(11.614 0.144738 0)
(11.8379 0.149941 0)
(11.8343 0.148413 0)
(11.963 0.121882 0)
(11.9665 0.120622 0)
(12.1373 0.0824212 0)
(12.1474 0.0871629 0)
(12.3037 0.0867709 0)
(12.2861 0.0861989 0)
(12.404 0.065889 0)
(12.4024 0.0958 0)
(12.4528 0.0882578 0)
(12.459 0.0887759 0)
(12.4984 0.0819512 0)
(12.3765 0.0684757 0)
(10.0206 0.173739 0)
(10.2718 0.350411 0)
(10.7812 0.288667 0)
(11.1455 0.219185 0)
(11.3798 0.114298 0)
(11.4809 0.105537 0)
(11.6889 0.109096 0)
(11.8396 0.124585 0)
(11.9081 0.0939199 0)
(11.9056 0.0908909 0)
(12.0299 0.0608498 0)
(12.1185 0.0666036 0)
(12.2234 0.0532464 0)
(12.2502 0.080721 0)
(12.359 0.0416728 0)
(12.4372 0.0849667 0)
(12.5007 0.0668577 0)
(12.5322 0.0635605 0)
(12.5129 0.0587813 0)
(12.4621 0.0317312 0)
(9.9857 0.12113 0)
(10.2676 0.251467 0)
(10.6732 0.191424 0)
(11.0803 0.152152 0)
(11.2885 0.106328 0)
(11.4693 0.0660075 0)
(11.6308 0.047329 0)
(11.7668 0.0815183 0)
(11.8015 0.0986748 0)
(11.8467 0.0820074 0)
(11.9259 0.0233882 0)
(12.0966 0.0379019 0)
(12.1361 0.0610426 0)
(12.1626 0.0406969 0)
(12.2764 0.0219947 0)
(12.3667 0.053825 0)
(12.4749 0.0520296 0)
(12.4383 0.0600524 0)
(12.4874 0.0304331 0)
(12.4297 -0.01566 0)
(10.0133 0.0690148 0)
(10.2275 0.136578 0)
(10.6598 0.114212 0)
(10.9845 0.117279 0)
(11.236 0.0644945 0)
(11.4332 0.0248517 0)
(11.5881 0.0291078 0)
(11.6632 0.0574612 0)
(11.7563 0.0661694 0)
(11.8229 0.046404 0)
(11.9191 0.00658867 0)
(12.036 0.00758297 0)
(12.1138 0.0406136 0)
(12.17 0.0466995 0)
(12.1901 -0.00650061 0)
(12.3155 0.0186151 0)
(12.3769 0.0427386 0)
(12.4038 0.0185828 0)
(12.4948 0.0108512 0)
(12.3774 -0.011876 0)
(10.0102 0.0259622 0)
(10.2052 0.0480181 0)
(10.6062 0.0215663 0)
(10.9463 0.0457801 0)
(11.2622 0.043838 0)
(11.4562 -0.00545318 0)
(11.589 -0.0206808 0)
(11.6634 0.0214079 0)
(11.7085 0.0507439 0)
(11.7865 0.030775 0)
(11.8968 -0.030798 0)
(12.0226 -0.0105012 0)
(12.082 0.0361901 0)
(12.1269 0.0140008 0)
(12.2243 -0.0146501 0)
(12.2527 -0.00194967 0)
(12.29 0.012146 0)
(12.4054 0.000712829 0)
(12.4192 -0.0196075 0)
(12.3933 -0.0303096 0)
(9.98983 -0.0122968 0)
(10.246 -0.0641036 0)
(10.5901 -0.0518388 0)
(10.9444 -0.00759699 0)
(11.2829 -0.00724248 0)
(11.4816 -0.0419262 0)
(11.4967 -0.0278813 0)
(11.5629 0.00287547 0)
(11.7338 0.0225516 0)
(11.8875 -0.0144344 0)
(11.9019 -0.0487556 0)
(11.9658 -0.0378573 0)
(12.07 0.0154103 0)
(12.1831 0.00791969 0)
(12.1934 -0.0344622 0)
(12.2439 -0.0137448 0)
(12.3497 -0.00821317 0)
(12.4016 -0.0441506 0)
(12.4231 -0.043352 0)
(12.3742 -0.0396151 0)
(10.0244 -0.0633836 0)
(10.212 -0.146381 0)
(10.6021 -0.137015 0)
(10.9966 -0.0924949 0)
(11.3066 -0.0382742 0)
(11.4732 -0.0390673 0)
(11.5393 -0.0514628 0)
(11.628 -0.0595945 0)
(11.7999 -0.0379466 0)
(11.8947 -0.0249418 0)
(11.9226 -0.0490183 0)
(11.9726 -0.0529809 0)
(12.0639 -0.0108143 0)
(12.1647 -0.0214595 0)
(12.2356 -0.033546 0)
(12.3123 -0.0486428 0)
(12.3573 -0.04456 0)
(12.423 -0.0492426 0)
(12.4334 -0.0597436 0)
(12.3436 -0.0591371 0)
(9.98101 -0.104345 0)
(10.2777 -0.257581 0)
(10.7064 -0.222741 0)
(11.0205 -0.14227 0)
(11.2916 -0.0744147 0)
(11.5344 -0.0860932 0)
(11.6268 -0.0753234 0)
(11.6453 -0.0841806 0)
(11.7876 -0.0575523 0)
(11.9237 -0.0558202 0)
(11.9797 -0.0669201 0)
(12.0407 -0.0717115 0)
(12.1308 -0.0314692 0)
(12.2014 -0.0379218 0)
(12.2835 -0.0629889 0)
(12.3464 -0.0644102 0)
(12.4043 -0.0493037 0)
(12.4661 -0.089222 0)
(12.4865 -0.0884046 0)
(12.4277 -0.0632696 0)
(10.0236 -0.170425 0)
(10.2981 -0.3629 0)
(10.7634 -0.297861 0)
(11.0912 -0.193892 0)
(11.3897 -0.118742 0)
(11.5754 -0.116353 0)
(11.6771 -0.0896309 0)
(11.7408 -0.118403 0)
(11.8983 -0.106382 0)
(11.9851 -0.0912556 0)
(12.0455 -0.074762 0)
(12.0986 -0.091065 0)
(12.1882 -0.0453275 0)
(12.2554 -0.0646931 0)
(12.3502 -0.0704632 0)
(12.4128 -0.0857468 0)
(12.4784 -0.0838085 0)
(12.5141 -0.111897 0)
(12.5536 -0.104168 0)
(12.487 -0.097248 0)
(10.0582 -0.244847 0)
(10.326 -0.464403 0)
(10.9176 -0.387353 0)
(11.1467 -0.233432 0)
(11.5204 -0.160096 0)
(11.6205 -0.156017 0)
(11.8071 -0.130756 0)
(11.8226 -0.155823 0)
(12.0241 -0.128757 0)
(12.0037 -0.10395 0)
(12.122 -0.0935537 0)
(12.1358 -0.112127 0)
(12.2781 -0.0650253 0)
(12.2709 -0.0887341 0)
(12.3924 -0.0902589 0)
(12.3919 -0.111612 0)
(12.465 -0.0857626 0)
(12.43 -0.136571 0)
(12.4566 -0.129925 0)
(12.3524 -0.134472 0)
(10.0682 -0.344066 0)
(10.4048 -0.579702 0)
(11.0391 -0.460242 0)
(11.2607 -0.277108 0)
(11.6796 -0.218803 0)
(11.6781 -0.195683 0)
(11.8983 -0.163386 0)
(11.8163 -0.179696 0)
(12.0052 -0.157885 0)
(11.8798 -0.122045 0)
(12.0343 -0.112424 0)
(11.903 -0.125369 0)
(12.0563 -0.0834055 0)
(11.9017 -0.0972023 0)
(12.0182 -0.0968318 0)
(11.8634 -0.113952 0)
(11.9387 -0.0914008 0)
(11.7589 -0.141994 0)
(11.7723 -0.126577 0)
(11.5403 -0.158063 0)
(10.0244 -0.456773 0)
(10.5569 -0.709452 0)
(11.1579 -0.543042 0)
(11.3629 -0.345277 0)
(11.5821 -0.27086 0)
(11.4403 -0.228253 0)
(11.5172 -0.189595 0)
(11.2839 -0.186072 0)
(11.3092 -0.154994 0)
(11.0611 -0.116441 0)
(11.0991 -0.104991 0)
(10.821 -0.108535 0)
(10.9014 -0.0736674 0)
(10.6225 -0.0800671 0)
(10.6889 -0.0786301 0)
(10.4108 -0.093787 0)
(10.4756 -0.0689017 0)
(10.1705 -0.118437 0)
(10.1838 -0.097995 0)
(9.84248 -0.158038 0)
(10.0733 -0.631279 0)
(10.6508 -0.866017 0)
(10.8635 -0.600679 0)
(10.6946 -0.369047 0)
(10.4652 -0.260574 0)
(10.0692 -0.197423 0)
(9.8618 -0.147073 0)
(9.47614 -0.12722 0)
(9.32442 -0.100291 0)
(9.01797 -0.0700146 0)
(8.94818 -0.0583265 0)
(8.65683 -0.0621631 0)
(8.67159 -0.0407916 0)
(8.39735 -0.0424499 0)
(8.42794 -0.0461577 0)
(8.15344 -0.0546672 0)
(8.19636 -0.044238 0)
(7.89078 -0.0711726 0)
(7.89508 -0.0722347 0)
(7.54764 -0.0864687 0)
(10.0888 -0.838423 0)
(9.65395 -0.868413 0)
(8.86919 -0.506505 0)
(8.08757 -0.259622 0)
(7.49502 -0.140329 0)
(6.99669 -0.0835546 0)
(6.71178 -0.0500977 0)
(6.38684 -0.0424486 0)
(6.23099 -0.034042 0)
(6.01007 -0.0207348 0)
(5.94372 -0.0169708 0)
(5.74742 -0.0241991 0)
(5.73855 -0.0136463 0)
(5.55682 -0.0154816 0)
(5.56465 -0.0194743 0)
(5.36756 -0.0255973 0)
(5.37925 -0.0191943 0)
(5.15522 -0.0330828 0)
(5.14191 -0.0390264 0)
(4.8522 -0.0171082 0)
(8.09211 -0.387848 0)
(5.44916 -0.242592 0)
(3.90968 -0.0431316 0)
(3.15921 0.0160552 0)
(2.80259 0.0178585 0)
(2.59332 0.0103924 0)
(2.48778 0.0069866 0)
(2.3789 0.00198107 0)
(2.31896 0.000159212 0)
(2.24181 0.00162707 0)
(2.22391 0.00154353 0)
(2.15567 -0.00193156 0)
(2.14336 0.000662794 0)
(2.08326 -0.00011041 0)
(2.07924 -0.00115242 0)
(1.99822 -0.00291365 0)
(1.98711 -0.000237501 0)
(1.8983 -0.0037574 0)
(1.85901 -0.00418509 0)
(1.71103 0.0111206 0)
(2.17059 -0.0956463 0)
(2.28616 -0.0183018 0)
(2.43572 -0.00675424 0)
(2.56937 -0.0205699 0)
(2.71433 -0.0441723 0)
(2.83617 -0.0586419 0)
(2.9363 -0.0669392 0)
(3.01479 -0.0687758 0)
(3.07077 -0.0662791 0)
(3.11031 -0.0706763 0)
(3.14087 -0.0823855 0)
(3.16132 -0.107222 0)
(3.18068 -0.128682 0)
(3.17461 -0.139772 0)
(3.16702 -0.126695 0)
(3.13755 -0.0910649 0)
(3.12213 -0.0478679 0)
(3.10329 0.0137942 0)
(3.08057 0.0775428 0)
(3.15379 0.149709 0)
(3.2217 0.232077 0)
(3.38802 0.299833 0)
(3.58734 0.322432 0)
(3.83804 0.304231 0)
(4.03442 0.277936 0)
(4.21831 0.208009 0)
(4.35577 0.135669 0)
(4.42326 0.04597 0)
(4.43434 -0.0186835 0)
(4.3937 -0.0921958 0)
(4.36174 -0.137979 0)
(4.30893 -0.175968 0)
(4.26675 -0.205373 0)
(4.23423 -0.202735 0)
(4.18487 -0.200364 0)
(4.17465 -0.183577 0)
(4.13607 -0.162685 0)
(4.17057 -0.139853 0)
(4.17098 -0.122282 0)
(4.2655 -0.104755 0)
(4.28051 -0.0902211 0)
(4.38892 -0.0752315 0)
(4.39289 -0.0634547 0)
(4.49426 -0.0561242 0)
(4.50066 -0.0369663 0)
(4.57778 -0.0255095 0)
(4.61347 0.0161891 0)
(4.65344 0.0391164 0)
(4.74632 0.0684553 0)
(4.7375 0.0841691 0)
(4.89412 0.0679777 0)
(4.82342 0.0538313 0)
(5.00052 0.0255042 0)
(4.92674 -0.0111397 0)
(5.08535 -0.0450809 0)
(5.02569 -0.0510419 0)
(5.11513 -0.0949564 0)
(5.12103 -0.0708785 0)
(5.09345 -0.088617 0)
(5.19664 -0.0776056 0)
(5.13074 -0.0307889 0)
(5.20817 -0.0344606 0)
(5.24517 0.022235 0)
(5.25308 0.0304133 0)
(5.40453 0.0583365 0)
(5.34685 0.0978244 0)
(5.55866 0.0549399 0)
(5.57762 0.0951351 0)
(5.65801 0.0801943 0)
(5.80329 0.0229133 0)
(5.86306 0.0692756 0)
(5.98234 0.0269355 0)
(6.10233 -0.00261142 0)
(6.18245 0.0198248 0)
(6.39028 -0.0235562 0)
(6.46837 -0.026129 0)
(6.64854 -0.0393832 0)
(6.83113 -0.0988944 0)
(6.99021 -0.123561 0)
(7.17092 -0.199195 0)
(7.39026 -0.276252 0)
(7.57726 -0.355377 0)
(7.75802 -0.46995 0)
(7.96091 -0.58586 0)
(8.18876 -0.701538 0)
(8.32771 -0.79868 0)
(8.60747 -0.951769 0)
(8.79895 -1.06246 0)
(9.02447 -1.16222 0)
(9.2814 -1.30489 0)
(9.53385 -1.43174 0)
(9.79619 -1.50034 0)
(10.1072 -1.64589 0)
(10.4094 -1.74816 0)
(10.6484 -1.80293 0)
(11.0101 -1.94262 0)
(11.2999 -2.03429 0)
(11.5765 -2.0417 0)
(11.8834 -2.14285 0)
(12.2299 -2.18593 0)
(12.4394 -2.21892 0)
(12.7717 -2.23482 0)
(13.0494 -2.31688 0)
(13.3204 -2.32984 0)
(13.522 -2.37327 0)
(13.8553 -2.41874 0)
(13.8658 -2.41532 0)
(14.2186 -2.46326 0)
(14.2087 -2.48784 0)
(14.3541 -2.47834 0)
(14.3084 -2.50122 0)
(14.3933 -2.46629 0)
(14.1096 -2.42335 0)
(14.1178 -2.39011 0)
(13.7382 -2.32516 0)
(13.4842 -2.1592 0)
(12.9547 -2.06732 0)
(12.5708 -1.82139 0)
(11.8974 -1.57342 0)
(11.3897 -1.34381 0)
(10.7481 -1.23014 0)
(10.2893 -1.00011 0)
(9.62565 -0.867755 0)
(9.35023 -0.631252 0)
(8.68679 -0.559923 0)
(8.59671 -0.384967 0)
(8.12856 -0.441834 0)
(8.04 -0.429072 0)
(7.91313 -0.577505 0)
(7.80211 -0.756982 0)
(7.96115 -0.970898 0)
(7.85632 -1.35842 0)
(8.31017 -1.61545 0)
(8.39773 -1.92905 0)
(8.71119 -2.38822 0)
(9.20309 -2.58032 0)
(9.67661 -2.90343 0)
(10.5503 -2.93331 0)
(11.1635 -3.0277 0)
(11.9862 -2.63574 0)
(12.5121 -2.27548 0)
(13.051 -1.75903 0)
(13.4569 -1.10238 0)
(13.9457 -0.451485 0)
(14.0228 0.102369 0)
(14.3367 0.894319 0)
(14.3628 1.47457 0)
(14.2804 2.06555 0)
(14.3133 2.68115 0)
(14.0031 3.10966 0)
(14.005 3.42141 0)
(13.516 3.65373 0)
(13.5532 3.95301 0)
(12.9401 3.86833 0)
(12.9119 3.81094 0)
(12.6629 3.84851 0)
(12.3708 3.49399 0)
(12.4597 3.17807 0)
(11.9671 3.0589 0)
(12.2096 2.47943 0)
(11.6266 1.68612 0)
(11.7849 1.60439 0)
(10.9602 0.584514 0)
(11.5349 0.0819857 0)
(10.1568 -0.988109 0)
(10.5352 -0.71827 0)
(9.00104 -2.08145 0)
(9.62493 -2.27454 0)
(7.85458 -3.32018 0)
(8.19231 -0.972666 0)
(6.18917 -2.16471 0)
(8.16541 -2.14007 0)
(6.79112 -4.17345 0)
(7.17588 -6.08189 0)
(7.08775 -6.66537 0)
(6.73894 -6.44051 0)
(5.96983 -6.61121 0)
(6.49628 -6.61101 0)
(7.10245 -5.37335 0)
(7.48975 -3.71189 0)
(7.86961 -1.56529 0)
(7.92798 0.142858 0)
(8.04656 1.94355 0)
(8.27205 3.51785 0)
(7.87102 5.0667 0)
(8.08041 6.67791 0)
(7.69009 7.39926 0)
(7.17703 7.7009 0)
(7.08053 7.67386 0)
(6.30759 7.35967 0)
(5.49073 7.45821 0)
(5.36242 7.70181 0)
(4.89528 7.6492 0)
(4.01872 7.88391 0)
(4.26073 8.3275 0)
(3.79062 8.28008 0)
(4.03523 7.20625 0)
(3.18237 6.12142 0)
(4.13169 4.71307 0)
(2.59865 5.67937 0)
(5.1726 -0.0528469 0)
(5.19123 -0.0249164 0)
(5.22593 -0.0351274 0)
(5.28794 -0.066783 0)
(5.37819 -0.0959724 0)
(5.46667 -0.109326 0)
(5.54089 -0.108404 0)
(5.59167 -0.0987989 0)
(5.62726 -0.0918411 0)
(5.6443 -0.0904055 0)
(5.66064 -0.0986839 0)
(5.66588 -0.110122 0)
(5.6729 -0.121237 0)
(5.66874 -0.124106 0)
(5.65804 -0.112826 0)
(5.64086 -0.0873596 0)
(5.6116 -0.0496917 0)
(5.59319 0.000468508 0)
(5.57451 0.066144 0)
(5.57742 0.130298 0)
(5.60265 0.187393 0)
(5.64164 0.237265 0)
(5.71717 0.254079 0)
(5.80669 0.244703 0)
(5.90632 0.210162 0)
(5.98668 0.161919 0)
(6.06616 0.095937 0)
(6.1199 0.0254093 0)
(6.13959 -0.0429791 0)
(6.16306 -0.101142 0)
(6.14805 -0.14694 0)
(6.17757 -0.187633 0)
(6.15586 -0.208367 0)
(6.19483 -0.226167 0)
(6.16211 -0.224876 0)
(6.2073 -0.221637 0)
(6.17652 -0.204131 0)
(6.24709 -0.18361 0)
(6.23193 -0.166615 0)
(6.33793 -0.149471 0)
(6.33025 -0.137834 0)
(6.43924 -0.124552 0)
(6.43647 -0.11179 0)
(6.52197 -0.10237 0)
(6.54482 -0.0781366 0)
(6.59409 -0.0697813 0)
(6.66036 -0.0323269 0)
(6.66997 -0.0249656 0)
(6.77386 0.00749015 0)
(6.76476 0.0151945 0)
(6.87096 0.00249272 0)
(6.88437 0.0151089 0)
(6.93317 -0.0282608 0)
(7.00161 -0.0273542 0)
(6.99083 -0.0669785 0)
(7.09652 -0.0867175 0)
(7.04646 -0.0863394 0)
(7.15476 -0.120682 0)
(7.09285 -0.0824314 0)
(7.17838 -0.102162 0)
(7.16493 -0.0681475 0)
(7.18852 -0.0457349 0)
(7.2555 -0.0330096 0)
(7.24447 0.00965893 0)
(7.34155 0.000998964 0)
(7.34904 0.0419434 0)
(7.43058 0.0378174 0)
(7.49019 0.00534502 0)
(7.53547 0.0434517 0)
(7.63487 -0.00691783 0)
(7.67588 -0.0233931 0)
(7.77732 -0.0207031 0)
(7.86697 -0.0623082 0)
(7.94133 -0.0712422 0)
(8.07872 -0.107666 0)
(8.18203 -0.136194 0)
(8.32264 -0.166476 0)
(8.46593 -0.225292 0)
(8.63579 -0.268945 0)
(8.79531 -0.359093 0)
(8.96596 -0.417301 0)
(9.18688 -0.535918 0)
(9.35864 -0.631832 0)
(9.55701 -0.734155 0)
(9.81252 -0.88836 0)
(9.97096 -0.973875 0)
(10.2539 -1.1069 0)
(10.4555 -1.2697 0)
(10.6812 -1.35114 0)
(10.9358 -1.50666 0)
(11.1918 -1.63831 0)
(11.3783 -1.70289 0)
(11.7012 -1.87601 0)
(11.8657 -1.96053 0)
(12.0955 -2.02982 0)
(12.3649 -2.16344 0)
(12.5483 -2.19636 0)
(12.7359 -2.24368 0)
(13.0139 -2.36471 0)
(13.1219 -2.36372 0)
(13.3502 -2.40846 0)
(13.5364 -2.46736 0)
(13.6983 -2.46694 0)
(13.829 -2.49921 0)
(14.0603 -2.57908 0)
(14.1194 -2.52573 0)
(14.2201 -2.55209 0)
(14.3623 -2.58742 0)
(14.3567 -2.52226 0)
(14.3307 -2.50477 0)
(14.343 -2.47741 0)
(14.2315 -2.3747 0)
(14.018 -2.28005 0)
(13.9545 -2.2056 0)
(13.5046 -2.02722 0)
(13.305 -1.8371 0)
(12.6901 -1.66211 0)
(12.415 -1.39008 0)
(11.6807 -1.11342 0)
(11.4229 -0.903512 0)
(10.5686 -0.728709 0)
(10.3496 -0.534523 0)
(9.51992 -0.437496 0)
(9.39373 -0.276629 0)
(8.66065 -0.196802 0)
(8.63415 -0.169334 0)
(8.05611 -0.177098 0)
(8.10542 -0.31308 0)
(7.80874 -0.473282 0)
(7.84738 -0.713942 0)
(7.74763 -0.961485 0)
(7.88541 -1.47372 0)
(8.0587 -1.74977 0)
(7.94645 -2.11293 0)
(8.30092 -2.58642 0)
(8.69047 -3.12785 0)
(9.60848 -3.4957 0)
(10.3802 -3.70326 0)
(11.3278 -3.67157 0)
(11.8898 -3.25958 0)
(12.6113 -2.83471 0)
(12.991 -2.21696 0)
(13.494 -1.50894 0)
(13.736 -0.689699 0)
(14.0515 -0.074773 0)
(14.1554 0.7908 0)
(14.3854 1.51307 0)
(14.1838 2.06831 0)
(14.372 2.74217 0)
(13.9541 3.25096 0)
(13.9016 3.63671 0)
(13.6665 3.84315 0)
(13.3426 4.09957 0)
(13.2451 4.10205 0)
(12.6914 3.97352 0)
(12.6732 4.13271 0)
(12.0352 3.55679 0)
(12.3251 3.45344 0)
(11.5711 3.11733 0)
(11.7495 2.69356 0)
(11.4693 1.89603 0)
(11.1561 1.90239 0)
(10.9211 0.67152 0)
(10.996 0.530923 0)
(9.88762 -0.633755 0)
(10.1682 -0.15595 0)
(8.81948 -1.84274 0)
(9.34392 -1.70426 0)
(7.84774 -2.70971 0)
(7.83928 -0.207198 0)
(6.2959 -2.38146 0)
(8.0806 -1.84507 0)
(6.52859 -3.97249 0)
(6.4447 -5.81066 0)
(6.73196 -6.48401 0)
(6.00149 -5.9933 0)
(5.14082 -6.51932 0)
(5.69914 -6.81387 0)
(5.9107 -5.99202 0)
(6.98595 -3.83978 0)
(6.95557 -1.92317 0)
(7.63016 0.0542595 0)
(7.49289 1.62214 0)
(7.95586 3.6463 0)
(7.69532 5.20044 0)
(7.66337 6.88848 0)
(7.70895 7.92146 0)
(7.14047 7.9947 0)
(6.82491 7.92699 0)
(6.70267 7.96375 0)
(5.92743 7.72442 0)
(5.45993 7.94095 0)
(5.4625 8.02306 0)
(4.53964 8.07585 0)
(4.78796 8.16339 0)
(4.42916 8.08607 0)
(4.99408 7.27608 0)
(4.45853 6.42599 0)
(5.2342 4.73291 0)
(4.57836 5.52769 0)
(7.83919 -0.0773402 0)
(7.83414 -0.0837908 0)
(7.85426 -0.103691 0)
(7.8956 -0.127288 0)
(7.97213 -0.132181 0)
(8.03474 -0.129676 0)
(8.09249 -0.117949 0)
(8.11795 -0.10689 0)
(8.13801 -0.0999688 0)
(8.1356 -0.0955694 0)
(8.13826 -0.100456 0)
(8.12909 -0.104577 0)
(8.12441 -0.110172 0)
(8.11366 -0.107595 0)
(8.09916 -0.097276 0)
(8.08309 -0.0714442 0)
(8.06056 -0.0371632 0)
(8.04498 0.0148084 0)
(8.03393 0.0663324 0)
(8.02531 0.124306 0)
(8.04385 0.166422 0)
(8.05766 0.20309 0)
(8.11112 0.21695 0)
(8.14221 0.206563 0)
(8.21604 0.178003 0)
(8.24273 0.127543 0)
(8.30275 0.0764048 0)
(8.32052 0.00655594 0)
(8.34293 -0.0475653 0)
(8.36014 -0.104168 0)
(8.34336 -0.146473 0)
(8.38356 -0.181825 0)
(8.34778 -0.212303 0)
(8.4045 -0.222791 0)
(8.35917 -0.239774 0)
(8.42068 -0.228354 0)
(8.38365 -0.225516 0)
(8.44468 -0.208446 0)
(8.43947 -0.190932 0)
(8.4955 -0.18719 0)
(8.52739 -0.161464 0)
(8.56306 -0.167295 0)
(8.61826 -0.135642 0)
(8.62985 -0.135463 0)
(8.69773 -0.111586 0)
(8.70443 -0.0904006 0)
(8.76678 -0.0843123 0)
(8.7927 -0.0432062 0)
(8.83004 -0.0532229 0)
(8.88507 -0.0216355 0)
(8.89617 -0.0315909 0)
(8.9708 -0.0366773 0)
(8.96197 -0.039044 0)
(9.03885 -0.0681059 0)
(9.02468 -0.0718056 0)
(9.09825 -0.104322 0)
(9.07818 -0.0982913 0)
(9.14376 -0.129199 0)
(9.12446 -0.104693 0)
(9.16724 -0.106462 0)
(9.17368 -0.105381 0)
(9.19768 -0.0560915 0)
(9.23228 -0.0739796 0)
(9.25 -0.0319624 0)
(9.30174 -0.0196793 0)
(9.33291 -0.0317459 0)
(9.37373 0.00341329 0)
(9.44623 -0.0313545 0)
(9.46534 -0.0320533 0)
(9.56178 -0.0493262 0)
(9.58675 -0.0710605 0)
(9.68726 -0.100623 0)
(9.753 -0.129898 0)
(9.81739 -0.139209 0)
(9.94337 -0.217264 0)
(10.0288 -0.218775 0)
(10.1407 -0.273143 0)
(10.288 -0.370465 0)
(10.411 -0.363323 0)
(10.5645 -0.505933 0)
(10.7177 -0.571296 0)
(10.8929 -0.639441 0)
(11.0513 -0.800616 0)
(11.2418 -0.878175 0)
(11.406 -1.00391 0)
(11.6001 -1.15437 0)
(11.7989 -1.26121 0)
(11.9298 -1.39682 0)
(12.1573 -1.52538 0)
(12.3281 -1.66716 0)
(12.4485 -1.75582 0)
(12.6458 -1.89228 0)
(12.8291 -2.02468 0)
(12.8631 -2.06163 0)
(13.0944 -2.19971 0)
(13.2008 -2.28296 0)
(13.2284 -2.27559 0)
(13.3996 -2.41295 0)
(13.4994 -2.46677 0)
(13.4775 -2.42481 0)
(13.6758 -2.56747 0)
(13.7412 -2.57585 0)
(13.7618 -2.56613 0)
(13.8905 -2.62747 0)
(13.9848 -2.66203 0)
(13.9738 -2.59083 0)
(14.0899 -2.63933 0)
(14.1176 -2.61805 0)
(14.1369 -2.51592 0)
(14.0913 -2.48586 0)
(14.1438 -2.39307 0)
(13.9624 -2.22591 0)
(13.9475 -2.13967 0)
(13.7237 -1.96633 0)
(13.4708 -1.73292 0)
(13.1066 -1.4864 0)
(12.7919 -1.28413 0)
(12.2491 -0.975982 0)
(11.8444 -0.709398 0)
(11.3673 -0.469796 0)
(10.7848 -0.301986 0)
(10.3802 -0.133153 0)
(9.69879 -0.025421 0)
(9.3923 0.0864171 0)
(8.79292 0.0832662 0)
(8.64429 0.115411 0)
(7.99107 0.0119224 0)
(8.22293 -0.141319 0)
(7.54541 -0.387592 0)
(7.84477 -0.614758 0)
(7.44619 -1.06159 0)
(7.7787 -1.47465 0)
(7.24816 -1.75515 0)
(7.40609 -2.1945 0)
(7.64643 -3.0548 0)
(8.62442 -3.89746 0)
(9.43779 -4.34884 0)
(10.5306 -4.58317 0)
(11.1129 -4.39319 0)
(11.8086 -3.86575 0)
(12.1847 -3.31438 0)
(12.7083 -2.65645 0)
(13.0613 -1.95322 0)
(13.3731 -0.977515 0)
(13.5574 -0.326177 0)
(13.9103 0.581125 0)
(13.9505 1.42359 0)
(14.013 2.09578 0)
(14.0539 2.78069 0)
(14.0286 3.3438 0)
(13.5771 3.75054 0)
(13.5612 4.10188 0)
(13.0239 4.32068 0)
(13.122 4.32281 0)
(12.6213 4.11502 0)
(12.4752 4.2998 0)
(12.1003 3.61652 0)
(11.9409 3.53827 0)
(11.5462 3.20112 0)
(11.3953 2.57382 0)
(11.252 2.10056 0)
(10.7244 1.96805 0)
(10.488 0.745283 0)
(10.8167 0.731584 0)
(9.36186 -0.132568 0)
(10.0774 0.148108 0)
(8.4368 -1.47521 0)
(9.44029 -1.28476 0)
(7.22414 -2.14476 0)
(7.69045 0.552321 0)
(6.29457 -2.61097 0)
(7.74472 -1.62931 0)
(6.46981 -3.52284 0)
(6.07332 -5.6853 0)
(6.60682 -5.9763 0)
(5.68921 -5.65742 0)
(5.20527 -6.24088 0)
(4.80663 -6.87431 0)
(5.38041 -6.52521 0)
(6.12537 -4.31016 0)
(6.45893 -2.2981 0)
(7.03307 -0.0779694 0)
(7.25688 1.50347 0)
(7.34738 3.4985 0)
(7.61498 5.21744 0)
(7.36269 6.65464 0)
(7.43851 8.04879 0)
(7.39098 8.32348 0)
(6.78954 8.17722 0)
(6.59188 8.24341 0)
(6.51546 8.15354 0)
(5.59375 8.1885 0)
(5.88 8.30206 0)
(5.28801 8.38471 0)
(5.38585 8.27218 0)
(5.27484 8.06642 0)
(5.82641 7.20525 0)
(5.67929 6.5522 0)
(6.08857 4.86216 0)
(5.78272 4.91633 0)
(10.0577 -0.111261 0)
(10.0653 -0.221547 0)
(10.1081 -0.260151 0)
(10.1599 -0.252307 0)
(10.2181 -0.215458 0)
(10.2664 -0.175073 0)
(10.2825 -0.147481 0)
(10.296 -0.119416 0)
(10.2848 -0.113137 0)
(10.2751 -0.102088 0)
(10.2614 -0.103127 0)
(10.2413 -0.104536 0)
(10.2293 -0.101207 0)
(10.208 -0.101477 0)
(10.1972 -0.08328 0)
(10.1739 -0.0624957 0)
(10.1689 -0.0282293 0)
(10.1418 0.0174804 0)
(10.1564 0.0584093 0)
(10.1272 0.110618 0)
(10.1725 0.142747 0)
(10.1539 0.173946 0)
(10.2319 0.18347 0)
(10.224 0.17601 0)
(10.3067 0.150715 0)
(10.3119 0.107506 0)
(10.3604 0.0592483 0)
(10.3827 0.00210288 0)
(10.3799 -0.0546257 0)
(10.4171 -0.100148 0)
(10.3763 -0.146287 0)
(10.4204 -0.178235 0)
(10.3792 -0.207834 0)
(10.4102 -0.228231 0)
(10.3912 -0.236615 0)
(10.3945 -0.246482 0)
(10.411 -0.23283 0)
(10.391 -0.236147 0)
(10.44 -0.212269 0)
(10.4212 -0.209884 0)
(10.4816 -0.196635 0)
(10.4782 -0.177149 0)
(10.5277 -0.180944 0)
(10.5374 -0.144409 0)
(10.5723 -0.1507 0)
(10.5959 -0.116942 0)
(10.6218 -0.108393 0)
(10.6527 -0.0902354 0)
(10.6749 -0.0730309 0)
(10.7081 -0.0717095 0)
(10.7274 -0.0596157 0)
(10.76 -0.0681644 0)
(10.7776 -0.0720377 0)
(10.8006 -0.0827936 0)
(10.8236 -0.0962292 0)
(10.8405 -0.107517 0)
(10.8508 -0.115934 0)
(10.8873 -0.129085 0)
(10.868 -0.123525 0)
(10.9181 -0.119051 0)
(10.9006 -0.116564 0)
(10.9352 -0.0894158 0)
(10.9583 -0.092147 0)
(10.9656 -0.0628554 0)
(11.0121 -0.0615238 0)
(11.0379 -0.0548071 0)
(11.0618 -0.0455169 0)
(11.135 -0.0739141 0)
(11.1384 -0.0580765 0)
(11.2272 -0.109562 0)
(11.2522 -0.114506 0)
(11.3215 -0.129455 0)
(11.3908 -0.21525 0)
(11.4517 -0.180639 0)
(11.5268 -0.277921 0)
(11.6338 -0.315622 0)
(11.6959 -0.340937 0)
(11.821 -0.457899 0)
(11.9346 -0.479913 0)
(12.0133 -0.588905 0)
(12.1819 -0.684553 0)
(12.2702 -0.756548 0)
(12.3901 -0.899231 0)
(12.5612 -0.998883 0)
(12.6037 -1.11908 0)
(12.7907 -1.25575 0)
(12.898 -1.39216 0)
(12.9358 -1.48569 0)
(13.1157 -1.63746 0)
(13.177 -1.78516 0)
(13.1728 -1.81221 0)
(13.3597 -2.02139 0)
(13.3457 -2.06945 0)
(13.3191 -2.12541 0)
(13.4851 -2.2842 0)
(13.3904 -2.32117 0)
(13.3748 -2.32904 0)
(13.5013 -2.50138 0)
(13.3964 -2.46654 0)
(13.3819 -2.48772 0)
(13.5078 -2.62136 0)
(13.4838 -2.63652 0)
(13.4781 -2.60876 0)
(13.6622 -2.75952 0)
(13.6076 -2.64965 0)
(13.7108 -2.66673 0)
(13.8288 -2.69533 0)
(13.8759 -2.61119 0)
(13.9154 -2.52132 0)
(14.0916 -2.51097 0)
(13.9974 -2.30851 0)
(14.077 -2.16862 0)
(13.9846 -2.04302 0)
(13.9118 -1.7485 0)
(13.5601 -1.51628 0)
(13.46 -1.25517 0)
(12.8686 -0.917596 0)
(12.603 -0.635451 0)
(12.0512 -0.377853 0)
(11.6131 -0.0483463 0)
(11.0054 0.106947 0)
(10.6702 0.275889 0)
(9.87709 0.413844 0)
(9.60859 0.454363 0)
(8.94151 0.48935 0)
(8.68455 0.442105 0)
(8.13066 0.216 0)
(8.17392 0.0408227 0)
(7.42073 -0.161313 0)
(7.67301 -0.579518 0)
(7.23915 -1.01557 0)
(7.08898 -1.2339 0)
(6.48317 -1.62315 0)
(6.80705 -2.49425 0)
(7.46318 -3.70547 0)
(8.43552 -4.71866 0)
(9.22688 -5.13608 0)
(10.2228 -5.14263 0)
(10.4253 -4.82238 0)
(11.2911 -4.19484 0)
(11.1415 -3.58785 0)
(12.0243 -2.79319 0)
(11.8245 -2.15351 0)
(12.6062 -1.0837 0)
(12.4031 -0.517505 0)
(13.1191 0.455143 0)
(12.9786 1.22188 0)
(13.4313 2.01682 0)
(13.2796 2.78449 0)
(13.5341 3.52548 0)
(13.3375 3.79701 0)
(13.217 4.26578 0)
(12.724 4.48092 0)
(12.5704 4.57209 0)
(12.3568 4.47981 0)
(12.026 4.6027 0)
(11.8274 4.0075 0)
(11.6691 3.82655 0)
(11.0114 3.65114 0)
(11.3486 2.78688 0)
(10.4593 2.53987 0)
(10.6938 2.13603 0)
(9.79778 1.00535 0)
(10.5934 1.06753 0)
(8.52957 0.267298 0)
(10.1042 0.523439 0)
(7.69325 -1.36046 0)
(9.29274 -0.525606 0)
(6.38487 -1.65709 0)
(7.39326 0.888511 0)
(6.63288 -3.14575 0)
(7.59012 -1.44469 0)
(7.13394 -3.36793 0)
(6.47039 -5.08974 0)
(6.30454 -5.69757 0)
(6.23597 -5.14418 0)
(5.72282 -5.3561 0)
(4.71161 -7.14554 0)
(5.30177 -6.67548 0)
(5.42213 -4.93285 0)
(6.34416 -2.59073 0)
(6.4103 -0.572088 0)
(7.09907 1.49156 0)
(6.88244 3.32421 0)
(7.29451 5.39179 0)
(7.18907 6.81533 0)
(6.97145 7.98845 0)
(7.26408 8.47967 0)
(6.97432 8.3886 0)
(6.46619 8.35422 0)
(6.92715 8.36354 0)
(6.06604 8.49158 0)
(6.43111 8.49656 0)
(5.91965 8.46947 0)
(6.05119 8.29195 0)
(6.00441 7.92472 0)
(6.38198 6.92648 0)
(6.37051 6.27137 0)
(6.81003 4.74886 0)
(6.74761 4.55705 0)
(11.5433 -0.104392 0)
(11.589 -0.251184 0)
(11.6947 -0.304039 0)
(11.8001 -0.294198 0)
(11.8449 -0.24362 0)
(11.8886 -0.194332 0)
(11.8743 -0.149906 0)
(11.8671 -0.122122 0)
(11.8427 -0.104426 0)
(11.8155 -0.0979206 0)
(11.7991 -0.0914491 0)
(11.7703 -0.0897858 0)
(11.7521 -0.0846222 0)
(11.7289 -0.0814773 0)
(11.7148 -0.0668696 0)
(11.6905 -0.0476988 0)
(11.6938 -0.0205511 0)
(11.6659 0.0164833 0)
(11.6974 0.0509033 0)
(11.6638 0.0942391 0)
(11.726 0.118775 0)
(11.7018 0.148388 0)
(11.7838 0.149484 0)
(11.7788 0.152195 0)
(11.8454 0.121017 0)
(11.8696 0.09424 0)
(11.8916 0.0459583 0)
(11.9326 -0.00379636 0)
(11.9148 -0.0496796 0)
(11.9506 -0.107194 0)
(11.9151 -0.131813 0)
(11.9305 -0.186042 0)
(11.9075 -0.195068 0)
(11.8974 -0.22995 0)
(11.899 -0.234773 0)
(11.8672 -0.24023 0)
(11.8897 -0.247305 0)
(11.8543 -0.226626 0)
(11.8838 -0.235996 0)
(11.8659 -0.206344 0)
(11.8914 -0.212981 0)
(11.8941 -0.189161 0)
(11.9126 -0.185181 0)
(11.9233 -0.171678 0)
(11.9425 -0.15053 0)
(11.9541 -0.150068 0)
(11.9798 -0.114801 0)
(11.9865 -0.119593 0)
(12.0157 -0.0952637 0)
(12.0185 -0.0879766 0)
(12.048 -0.0962006 0)
(12.0445 -0.0735906 0)
(12.0756 -0.103817 0)
(12.0654 -0.0895687 0)
(12.0973 -0.106849 0)
(12.0911 -0.121264 0)
(12.1057 -0.107247 0)
(12.1224 -0.145192 0)
(12.1123 -0.117838 0)
(12.1472 -0.126313 0)
(12.1293 -0.133065 0)
(12.1604 -0.0867909 0)
(12.1728 -0.125268 0)
(12.1773 -0.073789 0)
(12.2207 -0.085817 0)
(12.2264 -0.0973717 0)
(12.2632 -0.0583197 0)
(12.3056 -0.128098 0)
(12.3216 -0.0795346 0)
(12.3816 -0.147893 0)
(12.4135 -0.16218 0)
(12.4571 -0.157984 0)
(12.5066 -0.267015 0)
(12.5714 -0.227958 0)
(12.5953 -0.331055 0)
(12.6923 -0.375593 0)
(12.7333 -0.399228 0)
(12.8108 -0.539853 0)
(12.8934 -0.528643 0)
(12.9443 -0.688158 0)
(13.0459 -0.748083 0)
(13.0896 -0.824793 0)
(13.1627 -1.0011 0)
(13.2543 -1.03754 0)
(13.222 -1.20445 0)
(13.3876 -1.31945 0)
(13.3344 -1.42629 0)
(13.3669 -1.54983 0)
(13.4608 -1.6953 0)
(13.3557 -1.77164 0)
(13.4074 -1.89022 0)
(13.4256 -2.01997 0)
(13.3003 -2.05467 0)
(13.3444 -2.17444 0)
(13.2858 -2.27671 0)
(13.1893 -2.25819 0)
(13.2102 -2.41266 0)
(13.1964 -2.42546 0)
(13.1065 -2.48344 0)
(13.1653 -2.54398 0)
(13.2379 -2.63586 0)
(13.1815 -2.63519 0)
(13.3402 -2.7214 0)
(13.4354 -2.75486 0)
(13.471 -2.7529 0)
(13.6379 -2.73721 0)
(13.7956 -2.78897 0)
(13.8275 -2.63174 0)
(14.0791 -2.6554 0)
(14.1819 -2.55136 0)
(14.1868 -2.35742 0)
(14.2797 -2.19234 0)
(14.2832 -2.00551 0)
(14.1153 -1.63052 0)
(13.924 -1.34862 0)
(13.7136 -0.993873 0)
(13.2993 -0.608867 0)
(12.9246 -0.290042 0)
(12.4183 0.0572021 0)
(11.8976 0.333194 0)
(11.2936 0.538165 0)
(10.7464 0.813371 0)
(10.1022 0.856982 0)
(9.72468 0.853118 0)
(8.95356 0.910862 0)
(8.69194 0.77079 0)
(8.21851 0.469783 0)
(7.82686 0.417522 0)
(7.42979 0.0256451 0)
(7.34043 -0.448586 0)
(6.84118 -0.629861 0)
(6.16874 -0.842833 0)
(6.03032 -1.63823 0)
(6.402 -3.06927 0)
(7.24901 -4.40446 0)
(7.89653 -5.41894 0)
(8.83478 -5.64192 0)
(9.29195 -5.52679 0)
(9.66859 -5.0704 0)
(10.2124 -4.40872 0)
(10.102 -3.85316 0)
(10.8297 -2.91246 0)
(10.5423 -2.26794 0)
(11.4992 -1.21612 0)
(11.1538 -0.795834 0)
(11.9248 0.349667 0)
(11.687 0.985072 0)
(12.4028 1.84049 0)
(12.3661 2.57288 0)
(12.5007 3.49806 0)
(12.629 3.92829 0)
(12.535 4.48224 0)
(12.3601 4.58508 0)
(12.2188 4.51502 0)