/*--------------------------------*- C++ -*----------------------------------*\
| =========                 |                                                 |
| \\      /  F ield         | OpenFOAM: The Open Source CFD Toolbox           |
|  \\    /   O peration     | Version:  2.4.0                                 |
|   \\  /    A nd           | Web:      www.OpenFOAM.org                      |
|    \\/     M anipulation  |                                                 |
\*---------------------------------------------------------------------------*/
FoamFile
{
    version     2.0;
    format      ascii;
    class       volVectorField;
    location    "1.62";
    object      UMean;
}
// * * * * * * * * * * * * * * * * * * * * * * * * * * * * * * * * * * * * * //

dimensions      [0 1 -1 0 0 0 0];

internalField   nonuniform List<vector> 
8800
(
(8.09339 0.38727 0)
(5.45625 0.242639 0)
(3.9252 0.0429632 0)
(3.15983 -0.0151874 0)
(2.81925 -0.0184626 0)
(2.599 -0.0108256 0)
(2.50941 -0.00592051 0)
(2.38085 -0.00192969 0)
(2.35098 -0.00183866 0)
(2.25114 -0.000115066 0)
(2.25448 -0.00110577 0)
(2.1675 0.000531398 0)
(2.18676 -0.000629742 0)
(2.10052 0.00105714 0)
(2.12543 -0.000314409 0)
(2.0365 0.00145629 0)
(2.06395 -0.00048492 0)
(1.96794 0.000827983 0)
(2.03376 0.00791831 0)
(1.72776 -0.0640627 0)
(10.0894 0.836426 0)
(9.64983 0.866846 0)
(8.89731 0.505752 0)
(8.0646 0.261884 0)
(7.53105 0.137056 0)
(6.98033 0.0822181 0)
(6.75028 0.0525825 0)
(6.36794 0.040799 0)
(6.29602 0.0280128 0)
(5.99076 0.0248676 0)
(6.0136 0.0166689 0)
(5.74463 0.0185715 0)
(5.82159 0.0129007 0)
(5.56137 0.0174187 0)
(5.66726 0.0126376 0)
(5.40119 0.0170289 0)
(5.52898 0.0158097 0)
(5.23612 0.00837477 0)
(5.43374 0.0303993 0)
(5.01287 -0.0437673 0)
(10.0867 0.629944 0)
(10.6255 0.862122 0)
(10.9174 0.599451 0)
(10.6391 0.37346 0)
(10.5212 0.25409 0)
(10.0203 0.196497 0)
(9.91915 0.150522 0)
(9.42037 0.122747 0)
(9.41767 0.0906838 0)
(8.95413 0.0766944 0)
(9.05172 0.0550125 0)
(8.61549 0.0532287 0)
(8.78858 0.03894 0)
(8.35721 0.0439086 0)
(8.58221 0.033946 0)
(8.13686 0.0396516 0)
(8.40381 0.0370613 0)
(7.92325 0.0302691 0)
(8.25258 0.0413415 0)
(7.72084 -0.0481865 0)
(10.0705 0.456605 0)
(10.4889 0.703844 0)
(11.261 0.543663 0)
(11.275 0.35264 0)
(11.6628 0.259741 0)
(11.3465 0.228011 0)
(11.6117 0.196699 0)
(11.1757 0.176228 0)
(11.4349 0.142765 0)
(10.9454 0.126521 0)
(11.2389 0.0989843 0)
(10.7206 0.0941205 0)
(11.0576 0.0743482 0)
(10.5122 0.0777917 0)
(10.8905 0.062883 0)
(10.3133 0.0705174 0)
(10.7303 0.0595502 0)
(10.1139 0.066471 0)
(10.5655 0.0462824 0)
(9.92173 0.0293161 0)
(10.1903 0.346362 0)
(10.2588 0.566291 0)
(11.1981 0.457898 0)
(11.1549 0.295686 0)
(11.8117 0.205703 0)
(11.5199 0.194878 0)
(12.0428 0.17368 0)
(11.6629 0.171834 0)
(12.154 0.138919 0)
(11.7286 0.135737 0)
(12.2124 0.102175 0)
(11.7525 0.110532 0)
(12.2351 0.0800133 0)
(11.7427 0.100415 0)
(12.2249 0.0682528 0)
(11.7012 0.100191 0)
(12.1814 0.0611887 0)
(11.6275 0.106791 0)
(12.096 0.040821 0)
(11.5132 0.0903641 0)
(10.219 0.249416 0)
(10.1761 0.456256 0)
(11.0419 0.371494 0)
(11.0547 0.250416 0)
(11.6631 0.155554 0)
(11.4867 0.155024 0)
(11.9332 0.135725 0)
(11.7077 0.145834 0)
(12.1092 0.111814 0)
(11.882 0.117643 0)
(12.2614 0.0818459 0)
(12.0345 0.0971606 0)
(12.3927 0.0649561 0)
(12.1629 0.0909434 0)
(12.4976 0.0586093 0)
(12.2633 0.0938429 0)
(12.5707 0.0574896 0)
(12.3286 0.102699 0)
(12.5947 0.047534 0)
(12.3159 0.0579161 0)
(10.0923 0.168575 0)
(10.2421 0.359144 0)
(10.8097 0.280134 0)
(11.0713 0.21194 0)
(11.4361 0.108451 0)
(11.5197 0.123878 0)
(11.7152 0.094004 0)
(11.7388 0.125109 0)
(11.8915 0.0755975 0)
(11.9184 0.103784 0)
(12.0554 0.0498302 0)
(12.0866 0.0884002 0)
(12.2081 0.0342317 0)
(12.239 0.0860947 0)
(12.3441 0.0277489 0)
(12.3723 0.0928053 0)
(12.4597 0.0249893 0)
(12.4787 0.106169 0)
(12.5299 0.0182141 0)
(12.4868 0.0941157 0)
(9.97701 0.103442 0)
(10.2997 0.263687 0)
(10.6389 0.190406 0)
(11.0771 0.165088 0)
(11.2733 0.0672752 0)
(11.5332 0.0937971 0)
(11.5647 0.0568706 0)
(11.7438 0.100291 0)
(11.7386 0.0442767 0)
(11.9159 0.0847267 0)
(11.9039 0.0247574 0)
(12.0803 0.0736952 0)
(12.0601 0.0126192 0)
(12.2306 0.0724579 0)
(12.2013 0.00742872 0)
(12.3633 0.0780563 0)
(12.3243 0.00487331 0)
(12.4716 0.0887578 0)
(12.4067 -0.00141246 0)
(12.4591 0.0792655 0)
(9.9035 0.0551605 0)
(10.3356 0.162022 0)
(10.5274 0.110221 0)
(11.0782 0.104472 0)
(11.1659 0.0353781 0)
(11.5397 0.0595443 0)
(11.4659 0.0293134 0)
(11.7454 0.06546 0)
(11.637 0.0223636 0)
(11.9132 0.0552859 0)
(11.803 0.00999506 0)
(12.0765 0.0481121 0)
(11.9609 0.0026742 0)
(12.2271 0.0464225 0)
(12.1034 -0.000649884 0)
(12.3609 0.0481337 0)
(12.2284 -0.00259421 0)
(12.4704 0.0502206 0)
(12.3066 -0.0129537 0)
(12.4391 0.0106483 0)
(9.89078 0.00844732 0)
(10.3309 0.0670379 0)
(10.4935 0.0256722 0)
(11.0574 0.0477767 0)
(11.1361 -1.48841e-05 0)
(11.5224 0.0331023 0)
(11.4432 -0.00253677 0)
(11.7265 0.0365374 0)
(11.6152 -0.00539919 0)
(11.8931 0.0331903 0)
(11.7829 -0.0106795 0)
(12.0575 0.0308316 0)
(11.9428 -0.0144644 0)
(12.2098 0.0299277 0)
(12.0873 -0.0178432 0)
(12.346 0.028914 0)
(12.2136 -0.0222132 0)
(12.458 0.0247574 0)
(12.2893 -0.034854 0)
(12.425 -0.00501518 0)
(9.91234 -0.0307685 0)
(10.3101 -0.0342775 0)
(10.5155 -0.0549467 0)
(11.0409 -0.0176372 0)
(11.1605 -0.0307045 0)
(11.5088 -0.00202046 0)
(11.47 -0.0296343 0)
(11.716 -0.00247973 0)
(11.6435 -0.0285544 0)
(11.8859 0.00129332 0)
(11.813 -0.0261533 0)
(12.0535 0.0036773 0)
(11.9745 -0.0267687 0)
(12.2094 0.0029426 0)
(12.1205 -0.0305052 0)
(12.3498 -0.00105417 0)
(12.2487 -0.037569 0)
(12.4659 -0.00931839 0)
(12.3252 -0.0500794 0)
(12.4346 -0.0287455 0)
(9.94654 -0.0752297 0)
(10.2914 -0.133811 0)
(10.572 -0.137081 0)
(11.0396 -0.0791038 0)
(11.2174 -0.062492 0)
(11.5049 -0.0333425 0)
(11.5237 -0.0576863 0)
(11.715 -0.0368118 0)
(11.6999 -0.0522966 0)
(11.8881 -0.0261865 0)
(11.8707 -0.0425103 0)
(12.0573 -0.0189807 0)
(12.0331 -0.0397772 0)
(12.2149 -0.0192838 0)
(12.1805 -0.043754 0)
(12.3567 -0.0261608 0)
(12.3105 -0.0534669 0)
(12.4742 -0.0389778 0)
(12.3895 -0.0660368 0)
(12.4434 -0.0485007 0)
(9.97475 -0.123128 0)
(10.2919 -0.237946 0)
(10.6437 -0.216716 0)
(11.0671 -0.141345 0)
(11.2865 -0.0935573 0)
(11.5224 -0.0682942 0)
(11.5848 -0.0851223 0)
(11.734 -0.0723521 0)
(11.764 -0.0750431 0)
(11.9088 -0.0554632 0)
(11.9352 -0.0590185 0)
(12.0775 -0.0435551 0)
(12.0974 -0.0529647 0)
(12.2338 -0.0427997 0)
(12.2449 -0.0574221 0)
(12.374 -0.0519363 0)
(12.3752 -0.0709981 0)
(12.49 -0.0696931 0)
(12.4567 -0.0878598 0)
(12.4609 -0.0687282 0)
(10.0118 -0.182545 0)
(10.3006 -0.342474 0)
(10.7463 -0.298712 0)
(11.1161 -0.196871 0)
(11.3838 -0.127395 0)
(11.5585 -0.10702 0)
(11.6702 -0.113854 0)
(11.7739 -0.107938 0)
(11.8521 -0.0975583 0)
(11.9521 -0.0856396 0)
(12.022 -0.0753878 0)
(12.1206 -0.0698723 0)
(12.181 -0.0655836 0)
(12.2749 -0.0681352 0)
(12.324 -0.069217 0)
(12.4114 -0.0787697 0)
(12.4474 -0.0855877 0)
(12.5215 -0.102238 0)
(12.5223 -0.10912 0)
(12.4928 -0.100261 0)
(10.0544 -0.257782 0)
(10.3175 -0.44719 0)
(10.8905 -0.382273 0)
(11.1811 -0.242979 0)
(11.5206 -0.166163 0)
(11.6059 -0.14659 0)
(11.795 -0.145737 0)
(11.8219 -0.139501 0)
(11.9732 -0.122346 0)
(11.9935 -0.112295 0)
(12.1273 -0.094265 0)
(12.1446 -0.0937393 0)
(12.2601 -0.0804246 0)
(12.272 -0.0910761 0)
(12.3655 -0.080904 0)
(12.3702 -0.102093 0)
(12.4363 -0.0961491 0)
(12.4278 -0.130474 0)
(12.4427 -0.125272 0)
(12.3451 -0.140047 0)
(10.0498 -0.351565 0)
(10.3933 -0.559827 0)
(11.045 -0.464469 0)
(11.2974 -0.289948 0)
(11.6537 -0.213138 0)
(11.6643 -0.188064 0)
(11.8772 -0.181221 0)
(11.8106 -0.166361 0)
(11.9788 -0.147597 0)
(11.8801 -0.1309 0)
(12.0259 -0.11268 0)
(11.9076 -0.10721 0)
(12.0341 -0.0934359 0)
(11.8999 -0.100437 0)
(12.0029 -0.0879765 0)
(11.8555 -0.108076 0)
(11.925 -0.0971594 0)
(11.7631 -0.137083 0)
(11.7661 -0.125733 0)
(11.5407 -0.163113 0)
(10.0031 -0.459783 0)
(10.5602 -0.700288 0)
(11.167 -0.546395 0)
(11.3677 -0.350292 0)
(11.5566 -0.263895 0)
(11.4486 -0.225072 0)
(11.4927 -0.201026 0)
(11.2852 -0.173927 0)
(11.3019 -0.147781 0)
(11.0605 -0.124849 0)
(11.0903 -0.104656 0)
(10.8386 -0.0945888 0)
(10.8889 -0.0808352 0)
(10.6292 -0.0833703 0)
(10.6917 -0.071198 0)
(10.4212 -0.0878684 0)
(10.4782 -0.0747572 0)
(10.1893 -0.116082 0)
(10.1947 -0.0961297 0)
(9.85883 -0.16122 0)
(10.0591 -0.633033 0)
(10.6552 -0.859018 0)
(10.8656 -0.600856 0)
(10.6907 -0.372022 0)
(10.4574 -0.256939 0)
(10.0824 -0.194735 0)
(9.84236 -0.153565 0)
(9.48864 -0.120769 0)
(9.32953 -0.0943693 0)
(9.02473 -0.0748552 0)
(8.95256 -0.0594417 0)
(8.68383 -0.0524362 0)
(8.67528 -0.0444696 0)
(8.41714 -0.0461127 0)
(8.44531 -0.0413076 0)
(8.17756 -0.0504832 0)
(8.21609 -0.0485485 0)
(7.91901 -0.0699834 0)
(7.92092 -0.0713328 0)
(7.57342 -0.0900735 0)
(10.0807 -0.83803 0)
(9.6565 -0.864959 0)
(8.87412 -0.506201 0)
(8.08958 -0.261141 0)
(7.4987 -0.138688 0)
(7.01237 -0.0814529 0)
(6.707 -0.0540032 0)
(6.40425 -0.0398135 0)
(6.24522 -0.0297746 0)
(6.02716 -0.0239791 0)
(5.95656 -0.0187907 0)
(5.77613 -0.0182397 0)
(5.75641 -0.015548 0)
(5.58153 -0.0185823 0)
(5.58634 -0.0164838 0)
(5.39791 -0.0229681 0)
(5.40685 -0.0221314 0)
(5.18419 -0.0328477 0)
(5.17253 -0.0385894 0)
(4.87659 -0.020015 0)
(8.09142 -0.387688 0)
(5.45453 -0.242061 0)
(3.92056 -0.0432436 0)
(3.168 0.0152801 0)
(2.81035 0.0180174 0)
(2.60785 0.0111518 0)
(2.49549 0.00559725 0)
(2.391 0.00229591 0)
(2.33443 0.0014485 0)
(2.26091 0.000445781 0)
(2.23511 0.000677156 0)
(2.17449 -0.00023785 0)
(2.16345 0.000164307 0)
(2.10068 -0.00107826 0)
(2.09365 -0.00034279 0)
(2.02086 -0.0022572 0)
(2.00848 -0.00113702 0)
(1.91693 -0.00384265 0)
(1.87875 -0.0043059 0)
(1.7266 0.0113002 0)
(2.28153 -0.112808 0)
(2.32313 -0.0238617 0)
(2.56781 -0.00700874 0)
(2.62266 -0.0115076 0)
(2.86214 -0.030426 0)
(2.88422 -0.0349826 0)
(3.10063 -0.0440931 0)
(3.08883 -0.0387314 0)
(3.28068 -0.0452758 0)
(3.24397 -0.0429232 0)
(3.42622 -0.0516084 0)
(3.37375 -0.0501287 0)
(3.55694 -0.060584 0)
(3.49762 -0.0593171 0)
(3.68507 -0.0696608 0)
(3.62227 -0.0678794 0)
(3.81745 -0.0780737 0)
(3.75319 -0.0759032 0)
(3.96102 -0.0861376 0)
(3.89646 -0.0825146 0)
(4.11202 -0.0952757 0)
(4.04181 -0.0949942 0)
(4.26069 -0.110749 0)
(4.18224 -0.112001 0)
(4.40272 -0.129917 0)
(4.31532 -0.13236 0)
(4.53668 -0.150419 0)
(4.44105 -0.150178 0)
(4.66462 -0.165287 0)
(4.56667 -0.16206 0)
(4.79606 -0.177373 0)
(4.70215 -0.175099 0)
(4.93863 -0.192991 0)
(4.8471 -0.19172 0)
(5.08614 -0.210061 0)
(4.99105 -0.207353 0)
(5.23356 -0.224832 0)
(5.13272 -0.220143 0)
(5.38304 -0.237539 0)
(5.27554 -0.233729 0)
(5.53726 -0.253791 0)
(5.41988 -0.254023 0)
(5.69232 -0.280028 0)
(5.56209 -0.284964 0)
(5.83876 -0.315165 0)
(5.69354 -0.320879 0)
(5.97086 -0.352449 0)
(5.81524 -0.354537 0)
(6.0925 -0.385302 0)
(5.93196 -0.382896 0)
(6.21158 -0.41138 0)
(6.04668 -0.403985 0)
(6.33533 -0.429571 0)
(6.16312 -0.418491 0)
(6.46734 -0.443232 0)
(6.28397 -0.430685 0)
(6.60835 -0.45616 0)
(6.41034 -0.442884 0)
(6.75378 -0.46912 0)
(6.53963 -0.455945 0)
(6.90006 -0.48563 0)
(6.67589 -0.474727 0)
(7.0497 -0.510888 0)
(6.82411 -0.504477 0)
(7.20044 -0.548776 0)
(6.9763 -0.545937 0)
(7.34306 -0.59447 0)
(7.1142 -0.59229 0)
(7.46914 -0.639372 0)
(7.23064 -0.634246 0)
(7.58166 -0.680877 0)
(7.33232 -0.670309 0)
(7.68453 -0.71357 0)
(7.42329 -0.697467 0)
(7.78945 -0.738998 0)
(7.5183 -0.717767 0)
(7.90399 -0.757915 0)
(7.63117 -0.73286 0)
(8.03565 -0.776479 0)
(7.76268 -0.748545 0)
(8.18389 -0.795231 0)
(7.90692 -0.76525 0)
(8.34122 -0.811884 0)
(8.05442 -0.783094 0)
(8.49676 -0.831934 0)
(8.20516 -0.804206 0)
(8.63782 -0.859393 0)
(8.35536 -0.833605 0)
(8.76407 -0.893041 0)
(8.49161 -0.865645 0)
(8.87381 -0.923873 0)
(8.61128 -0.895781 0)
(8.97008 -0.95302 0)
(8.71164 -0.922802 0)
(9.05226 -0.978642 0)
(8.79637 -0.94385 0)
(9.12439 -0.999489 0)
(8.86827 -0.962092 0)
(9.18927 -1.01712 0)
(8.94068 -0.978149 0)
(9.26112 -1.03767 0)
(9.01865 -0.997843 0)
(9.34401 -1.06252 0)
(9.09831 -1.01738 0)
(9.42417 -1.07953 0)
(9.16728 -1.02248 0)
(9.48625 -1.08637 0)
(9.21536 -1.02186 0)
(9.52112 -1.08704 0)
(9.24092 -1.01356 0)
(9.53526 -1.07968 0)
(9.24794 -1.00265 0)
(9.5285 -1.06661 0)
(9.23358 -0.98234 0)
(9.50582 -1.04565 0)
(9.21907 -0.953893 0)
(9.4877 -1.01328 0)
(9.21653 -0.916776 0)
(9.4744 -0.975567 0)
(9.21533 -0.877207 0)
(9.46237 -0.935149 0)
(9.22031 -0.837275 0)
(9.46124 -0.900504 0)
(9.2283 -0.799046 0)
(9.45999 -0.865096 0)
(9.22326 -0.762735 0)
(9.46017 -0.826987 0)
(9.21387 -0.721054 0)
(9.45982 -0.777284 0)
(9.21037 -0.667824 0)
(9.45414 -0.715986 0)
(9.21404 -0.604895 0)
(9.43967 -0.651232 0)
(9.21467 -0.543122 0)
(9.4183 -0.592296 0)
(9.20751 -0.486226 0)
(9.3922 -0.530644 0)
(9.19419 -0.421071 0)
(9.36925 -0.46169 0)
(9.18433 -0.357149 0)
(9.34671 -0.402423 0)
(9.17284 -0.301367 0)
(9.31724 -0.342301 0)
(9.16306 -0.24834 0)
(9.28906 -0.288332 0)
(9.15084 -0.198467 0)
(9.24443 -0.224595 0)
(9.1239 -0.139296 0)
(9.19074 -0.161281 0)
(9.09204 -0.0760115 0)
(9.1294 -0.0965025 0)
(9.0475 -0.00222198 0)
(9.06953 -0.0125728 0)
(9.00021 0.0833208 0)
(9.01726 0.0676764 0)
(8.96303 0.170246 0)
(8.97227 0.158583 0)
(8.91077 0.262218 0)
(8.93278 0.249857 0)
(8.86133 0.361058 0)
(8.8968 0.329078 0)
(8.80317 0.451843 0)
(8.86476 0.410929 0)
(8.73296 0.537755 0)
(8.82098 0.491783 0)
(8.64898 0.627623 0)
(8.77964 0.572014 0)
(8.564 0.715192 0)
(8.73171 0.654034 0)
(8.47414 0.81306 0)
(8.67046 0.725069 0)
(8.36727 0.906597 0)
(8.61331 0.810249 0)
(8.22098 1.01691 0)
(8.54422 0.900175 0)
(8.07239 1.15875 0)
(8.46603 1.00835 0)
(7.91792 1.30941 0)
(8.39606 1.12242 0)
(7.78446 1.47436 0)
(8.31768 1.25611 0)
(7.66631 1.6509 0)
(8.23452 1.41257 0)
(7.54515 1.83306 0)
(8.12186 1.58291 0)
(7.41857 2.02246 0)
(7.96043 1.77873 0)
(7.27296 2.22888 0)
(7.76717 2.01701 0)
(7.08921 2.46362 0)
(7.54628 2.30009 0)
(6.84163 2.75025 0)
(7.26851 2.66358 0)
(6.53046 3.16069 0)
(6.86437 3.14186 0)
(6.15629 3.83953 0)
(6.35229 3.87901 0)
(5.47273 4.9903 0)
(6.44311 5.53169 0)
(4.11136 8.51373 0)
(5.34837 -0.07573 0)
(5.25707 -0.0409153 0)
(5.39254 -0.04361 0)
(5.32328 -0.0590261 0)
(5.51818 -0.0874824 0)
(5.46492 -0.0963597 0)
(5.6669 -0.106054 0)
(5.58898 -0.0976976 0)
(5.77596 -0.099453 0)
(5.67136 -0.0915157 0)
(5.85541 -0.0985684 0)
(5.73859 -0.0956077 0)
(5.93243 -0.107078 0)
(5.81181 -0.105768 0)
(6.0186 -0.117963 0)
(5.89486 -0.116121 0)
(6.11368 -0.128308 0)
(5.98546 -0.125535 0)
(6.21468 -0.138199 0)
(6.08157 -0.135087 0)
(6.31948 -0.148987 0)
(6.17986 -0.147411 0)
(6.42366 -0.163464 0)
(6.27536 -0.162935 0)
(6.5242 -0.180728 0)
(6.36718 -0.180695 0)
(6.62148 -0.198866 0)
(6.45681 -0.197419 0)
(6.71681 -0.215029 0)
(6.54612 -0.212126 0)
(6.81379 -0.230207 0)
(6.63881 -0.227293 0)
(6.91573 -0.247178 0)
(6.73521 -0.244577 0)
(7.02048 -0.264898 0)
(6.83106 -0.260622 0)
(7.12451 -0.280067 0)
(6.92533 -0.27392 0)
(7.22757 -0.293653 0)
(7.01973 -0.287807 0)
(7.33113 -0.310707 0)
(7.11687 -0.306973 0)
(7.43504 -0.334899 0)
(7.21559 -0.333808 0)
(7.53753 -0.365846 0)
(7.31149 -0.365069 0)
(7.63497 -0.398669 0)
(7.40078 -0.396328 0)
(7.72704 -0.42929 0)
(7.4824 -0.424242 0)
(7.81612 -0.455185 0)
(7.55751 -0.446173 0)
(7.90388 -0.47518 0)
(7.62952 -0.462444 0)
(7.99223 -0.490717 0)
(7.70264 -0.475566 0)
(8.08301 -0.504759 0)
(7.78157 -0.489113 0)
(8.17767 -0.520768 0)
(7.86894 -0.505708 0)
(8.27689 -0.541157 0)
(7.96458 -0.527687 0)
(8.37953 -0.56863 0)
(8.0664 -0.557868 0)
(8.48246 -0.604497 0)
(8.17025 -0.595395 0)
(8.58178 -0.644462 0)
(8.26857 -0.635551 0)
(8.67673 -0.686159 0)
(8.35987 -0.676175 0)
(8.76742 -0.72463 0)
(8.44292 -0.709013 0)
(8.85479 -0.755733 0)
(8.52252 -0.735252 0)
(8.94165 -0.783103 0)
(8.60571 -0.757086 0)
(9.031 -0.806684 0)
(8.69607 -0.776632 0)
(9.12638 -0.828483 0)
(8.79235 -0.797174 0)
(9.22941 -0.850223 0)
(8.89312 -0.81558 0)
(9.33485 -0.870286 0)
(8.99782 -0.832943 0)
(9.43288 -0.889175 0)
(9.10193 -0.852358 0)
(9.52365 -0.913917 0)
(9.20457 -0.877998 0)
(9.60324 -0.940533 0)
(9.29386 -0.903795 0)
(9.67367 -0.966588 0)
(9.37234 -0.928182 0)
(9.73201 -0.990456 0)
(9.43329 -0.948942 0)
(9.77521 -1.00968 0)
(9.47803 -0.964796 0)
(9.80922 -1.02588 0)
(9.51318 -0.979283 0)
(9.84127 -1.04282 0)
(9.55058 -0.9984 0)
(9.88145 -1.06846 0)
(9.5918 -1.02121 0)
(9.92363 -1.09449 0)
(9.62501 -1.03676 0)
(9.95438 -1.10349 0)
(9.64526 -1.03491 0)
(9.96569 -1.10061 0)
(9.64953 -1.02491 0)
(9.95677 -1.09425 0)
(9.63585 -1.01167 0)
(9.93244 -1.08065 0)
(9.60408 -0.988405 0)
(9.88759 -1.0583 0)
(9.55863 -0.962773 0)
(9.83729 -1.03671 0)
(9.52167 -0.938204 0)
(9.79377 -1.01058 0)
(9.49183 -0.904825 0)
(9.75922 -0.973956 0)
(9.46305 -0.867329 0)
(9.73318 -0.936649 0)
(9.44041 -0.8304 0)
(9.71393 -0.902236 0)
(9.41742 -0.78832 0)
(9.69261 -0.862843 0)
(9.38759 -0.747474 0)
(9.66842 -0.825243 0)
(9.35703 -0.706975 0)
(9.64039 -0.776357 0)
(9.33092 -0.65453 0)
(9.61115 -0.718395 0)
(9.30836 -0.592835 0)
(9.58178 -0.650941 0)
(9.28474 -0.529326 0)
(9.54804 -0.587165 0)
(9.24734 -0.468654 0)
(9.50879 -0.525043 0)
(9.21111 -0.409195 0)
(9.47527 -0.460113 0)
(9.1867 -0.348109 0)
(9.44407 -0.399803 0)
(9.16152 -0.289968 0)
(9.40944 -0.343111 0)
(9.13361 -0.232817 0)
(9.37569 -0.284707 0)
(9.09532 -0.173725 0)
(9.33297 -0.216381 0)
(9.05578 -0.113458 0)
(9.28739 -0.151906 0)
(9.0246 -0.047881 0)
(9.23109 -0.0794396 0)
(8.98438 0.0260347 0)
(9.16909 -0.00345199 0)
(8.94483 0.107556 0)
(9.1204 0.0741413 0)
(8.90319 0.194379 0)
(9.08179 0.162338 0)
(8.85506 0.290087 0)
(9.0547 0.247961 0)
(8.81157 0.392989 0)
(9.03475 0.325993 0)
(8.75746 0.48886 0)
(9.01519 0.410214 0)
(8.70704 0.582811 0)
(8.98986 0.486719 0)
(8.65881 0.676045 0)
(8.95821 0.555392 0)
(8.60701 0.775112 0)
(8.90697 0.631325 0)
(8.54082 0.884121 0)
(8.86985 0.702084 0)
(8.44368 0.992696 0)
(8.82566 0.794208 0)
(8.32553 1.12152 0)
(8.75748 0.884542 0)
(8.18921 1.25679 0)
(8.70906 0.982699 0)
(8.05562 1.40244 0)
(8.67668 1.09206 0)
(7.92956 1.56464 0)
(8.64684 1.23471 0)
(7.82318 1.74166 0)
(8.5975 1.4023 0)
(7.72978 1.9273 0)
(8.51495 1.58278 0)
(7.63185 2.11717 0)
(8.414 1.79087 0)
(7.50175 2.32762 0)
(8.29113 2.03274 0)
(7.3591 2.5971 0)
(8.12636 2.32348 0)
(7.21715 2.94904 0)
(7.89372 2.67856 0)
(7.0554 3.44089 0)
(7.62871 3.17076 0)
(6.76465 4.14307 0)
(7.62074 3.98074 0)
(6.09812 5.40303 0)
(8.54727 4.83881 0)
(6.55142 8.99734 0)
(8.03947 -0.0864541 0)
(7.90051 -0.064374 0)
(8.04858 -0.0769416 0)
(7.92721 -0.0893304 0)
(8.13177 -0.114476 0)
(8.02796 -0.117706 0)
(8.23961 -0.126332 0)
(8.10753 -0.114928 0)
(8.30297 -0.11749 0)
(8.14258 -0.106996 0)
(8.33724 -0.115856 0)
(8.16683 -0.111854 0)
(8.37437 -0.12688 0)
(8.20169 -0.125939 0)
(8.42432 -0.142778 0)
(8.24929 -0.141099 0)
(8.48454 -0.157296 0)
(8.30454 -0.153716 0)
(8.54881 -0.169321 0)
(8.36195 -0.164843 0)
(8.61336 -0.181228 0)
(8.41916 -0.177368 0)
(8.67686 -0.195392 0)
(8.47488 -0.192253 0)
(8.7387 -0.211716 0)
(8.52911 -0.208788 0)
(8.79933 -0.228882 0)
(8.58216 -0.22523 0)
(8.85888 -0.24533 0)
(8.63298 -0.240772 0)
(8.91684 -0.261385 0)
(8.68145 -0.256759 0)
(8.97368 -0.278723 0)
(8.7277 -0.274074 0)
(9.02872 -0.29678 0)
(8.77161 -0.290732 0)
(9.08185 -0.313304 0)
(8.81557 -0.305287 0)
(9.13464 -0.328593 0)
(8.86241 -0.319763 0)
(9.18901 -0.346034 0)
(8.91449 -0.33849 0)
(9.24666 -0.369004 0)
(8.97033 -0.363588 0)
(9.3061 -0.39762 0)
(9.02581 -0.393119 0)
(9.36407 -0.428397 0)
(9.07569 -0.422617 0)
(9.41762 -0.457197 0)
(9.11754 -0.448437 0)
(9.46624 -0.481585 0)
(9.15267 -0.469043 0)
(9.51091 -0.501013 0)
(9.18416 -0.484998 0)
(9.55335 -0.517251 0)
(9.21722 -0.499036 0)
(9.59646 -0.533721 0)
(9.25728 -0.515046 0)
(9.6435 -0.553454 0)
(9.30602 -0.534925 0)
(9.69421 -0.576278 0)
(9.36002 -0.558504 0)
(9.74652 -0.60302 0)
(9.41442 -0.587492 0)
(9.79858 -0.635471 0)
(9.46547 -0.62191 0)
(9.84944 -0.673488 0)
(9.51499 -0.661198 0)
(9.90242 -0.715819 0)
(9.5639 -0.701574 0)
(9.95289 -0.754938 0)
(9.60992 -0.735063 0)
(10.0025 -0.785941 0)
(9.655 -0.762226 0)
(10.0514 -0.813646 0)
(9.70013 -0.785956 0)
(10.0986 -0.838393 0)
(9.74652 -0.806746 0)
(10.1463 -0.861616 0)
(9.79815 -0.828556 0)
(10.1965 -0.884541 0)
(9.85308 -0.847554 0)
(10.2477 -0.904697 0)
(9.91109 -0.862518 0)
(10.2948 -0.921348 0)
(9.9694 -0.87994 0)
(10.3381 -0.941141 0)
(10.019 -0.898601 0)
(10.371 -0.962031 0)
(10.0593 -0.921669 0)
(10.3985 -0.985537 0)
(10.0903 -0.941497 0)
(10.4116 -1.00474 0)
(10.1052 -0.956218 0)
(10.4098 -1.01807 0)
(10.1071 -0.967377 0)
(10.3942 -1.03177 0)
(10.1011 -0.981959 0)
(10.3844 -1.05279 0)
(10.1024 -1.00403 0)
(10.3798 -1.0807 0)
(10.1017 -1.02632 0)
(10.3655 -1.10369 0)
(10.085 -1.03552 0)
(10.3372 -1.10561 0)
(10.0572 -1.028 0)
(10.2967 -1.09724 0)
(10.0208 -1.01196 0)
(10.247 -1.0823 0)
(9.96986 -0.989201 0)
(10.1789 -1.0602 0)
(9.90281 -0.958643 0)
(10.0997 -1.03385 0)
(9.84134 -0.934557 0)
(10.0287 -1.01514 0)
(9.78394 -0.910935 0)
(9.95501 -0.99071 0)
(9.7216 -0.879044 0)
(9.89035 -0.9603 0)
(9.6679 -0.843895 0)
(9.8412 -0.928388 0)
(9.62331 -0.806861 0)
(9.79649 -0.89265 0)
(9.57885 -0.764845 0)
(9.75241 -0.851849 0)
(9.53576 -0.722561 0)
(9.7032 -0.813437 0)
(9.48655 -0.680994 0)
(9.64528 -0.766373 0)
(9.43538 -0.627329 0)
(9.58801 -0.707675 0)
(9.3796 -0.563876 0)
(9.54238 -0.642997 0)
(9.32713 -0.499423 0)
(9.49638 -0.57429 0)
(9.26721 -0.435179 0)
(9.44479 -0.514864 0)
(9.21564 -0.381596 0)
(9.39756 -0.4551 0)
(9.16992 -0.321975 0)
(9.35533 -0.397616 0)
(9.13161 -0.26107 0)
(9.30336 -0.338868 0)
(9.08911 -0.201215 0)
(9.25698 -0.2789 0)
(9.04447 -0.137772 0)
(9.21725 -0.209422 0)
(9.00129 -0.073068 0)
(9.17978 -0.146603 0)
(8.9629 -0.00582597 0)
(9.13235 -0.0774883 0)
(8.94161 0.0737687 0)
(9.08348 -0.0104214 0)
(8.9099 0.150491 0)
(9.04676 0.0657639 0)
(8.86512 0.243128 0)
(9.01357 0.145332 0)
(8.82266 0.34066 0)
(8.9838 0.227441 0)
(8.77992 0.44036 0)
(8.96427 0.313791 0)
(8.73705 0.534992 0)
(8.95099 0.391704 0)
(8.71004 0.627431 0)
(8.93869 0.464756 0)
(8.68189 0.725739 0)
(8.9146 0.53557 0)
(8.64614 0.835678 0)
(8.89195 0.617098 0)
(8.58342 0.944032 0)
(8.89251 0.691559 0)
(8.48963 1.06691 0)
(8.87809 0.78615 0)
(8.37213 1.20964 0)
(8.87593 0.88648 0)
(8.23628 1.34801 0)
(8.88223 0.976409 0)
(8.11445 1.48758 0)
(8.88106 1.07924 0)
(8.00617 1.64003 0)
(8.86545 1.20838 0)
(7.92752 1.81955 0)
(8.83223 1.37038 0)
(7.85644 2.01756 0)
(8.7884 1.554 0)
(7.77192 2.23002 0)
(8.72845 1.75662 0)
(7.69541 2.47823 0)
(8.62347 1.98066 0)
(7.63935 2.76713 0)
(8.49663 2.25893 0)
(7.58075 3.13736 0)
(8.40969 2.62653 0)
(7.45037 3.62276 0)
(8.51972 3.1318 0)
(7.1333 4.37607 0)
(9.06367 3.65304 0)
(6.82974 5.94562 0)
(9.80685 3.72524 0)
(8.20923 8.2718 0)
(10.2942 -0.100168 0)
(10.1305 -0.139042 0)
(10.2921 -0.174602 0)
(10.1426 -0.170948 0)
(10.3528 -0.175436 0)
(10.2171 -0.154279 0)
(10.4294 -0.151751 0)
(10.2648 -0.130179 0)
(10.462 -0.13304 0)
(10.2727 -0.118119 0)
(10.4698 -0.129731 0)
(10.2722 -0.122391 0)
(10.4805 -0.141275 0)
(10.2817 -0.137721 0)
(10.5031 -0.159119 0)
(10.3024 -0.154909 0)
(10.5343 -0.175551 0)
(10.3289 -0.168954 0)
(10.5684 -0.188447 0)
(10.3567 -0.180272 0)
(10.6028 -0.199965 0)
(10.3842 -0.191715 0)
(10.636 -0.212879 0)
(10.4102 -0.205177 0)
(10.6673 -0.227925 0)
(10.4344 -0.220435 0)
(10.6964 -0.244098 0)
(10.4562 -0.23596 0)
(10.7228 -0.259939 0)
(10.4753 -0.250842 0)
(10.746 -0.275221 0)
(10.4908 -0.265499 0)
(10.7657 -0.290771 0)
(10.5029 -0.280802 0)
(10.7821 -0.307085 0)
(10.5121 -0.296348 0)
(10.7961 -0.323386 0)
(10.5207 -0.311877 0)
(10.8103 -0.340223 0)
(10.5312 -0.328677 0)
(10.8269 -0.35942 0)
(10.5449 -0.349382 0)
(10.8466 -0.383592 0)
(10.5605 -0.375305 0)
(10.8672 -0.412394 0)
(10.575 -0.404367 0)
(10.8857 -0.442595 0)
(10.5855 -0.432476 0)
(10.9 -0.469989 0)
(10.5916 -0.456027 0)
(10.9098 -0.492156 0)
(10.5948 -0.474176 0)
(10.9164 -0.509281 0)
(10.5971 -0.488393 0)
(10.9218 -0.524338 0)
(10.6027 -0.50256 0)
(10.929 -0.541387 0)
(10.6129 -0.519757 0)
(10.9386 -0.561698 0)
(10.6247 -0.540011 0)
(10.9478 -0.584723 0)
(10.6353 -0.563596 0)
(10.9549 -0.611335 0)
(10.6434 -0.59163 0)
(10.9596 -0.642525 0)
(10.6487 -0.625641 0)
(10.9646 -0.68171 0)
(10.6544 -0.66776 0)
(10.9718 -0.724883 0)
(10.6585 -0.708154 0)
(10.9772 -0.764073 0)
(10.6581 -0.742148 0)
(10.9798 -0.795162 0)
(10.658 -0.769812 0)
(10.98 -0.821695 0)
(10.6547 -0.793193 0)
(10.9765 -0.845376 0)
(10.6534 -0.81534 0)
(10.9757 -0.870847 0)
(10.6615 -0.838725 0)
(10.9789 -0.893998 0)
(10.674 -0.859001 0)
(10.9826 -0.91296 0)
(10.6862 -0.873407 0)
(10.9861 -0.929478 0)
(10.6963 -0.88787 0)
(10.9832 -0.943413 0)
(10.6965 -0.903858 0)
(10.9771 -0.964321 0)
(10.6958 -0.925035 0)
(10.9636 -0.98394 0)
(10.6817 -0.937653 0)
(10.9336 -0.995958 0)
(10.6527 -0.945158 0)
(10.8915 -1.00404 0)
(10.6144 -0.950561 0)
(10.8385 -1.0174 0)
(10.5745 -0.96947 0)
(10.792 -1.044 0)
(10.5356 -0.992452 0)
(10.7421 -1.06875 0)
(10.4887 -1.00963 0)
(10.6794 -1.08668 0)
(10.4303 -1.0148 0)
(10.6109 -1.08663 0)
(10.3655 -1.0056 0)
(10.5348 -1.07596 0)
(10.2922 -0.984423 0)
(10.4479 -1.05409 0)
(10.2061 -0.954005 0)
(10.3417 -1.02263 0)
(10.1092 -0.92193 0)
(10.2404 -1.00252 0)
(10.0288 -0.903904 0)
(10.1448 -0.983323 0)
(9.94105 -0.875779 0)
(10.0417 -0.95625 0)
(9.84617 -0.844212 0)
(9.94161 -0.933154 0)
(9.76382 -0.812112 0)
(9.85995 -0.906911 0)
(9.69173 -0.777335 0)
(9.79217 -0.871005 0)
(9.62357 -0.740627 0)
(9.73111 -0.831985 0)
(9.55947 -0.70124 0)
(9.66272 -0.790335 0)
(9.48967 -0.653409 0)
(9.58522 -0.739216 0)
(9.41401 -0.597981 0)
(9.50654 -0.681298 0)
(9.33735 -0.537133 0)
(9.43729 -0.620577 0)
(9.26624 -0.471325 0)
(9.37275 -0.552331 0)
(9.19234 -0.407645 0)
(9.30995 -0.495609 0)
(9.12114 -0.355666 0)
(9.24563 -0.44041 0)
(9.05671 -0.297616 0)
(9.19231 -0.384797 0)
(8.99397 -0.230991 0)
(9.1351 -0.322389 0)
(8.93572 -0.17059 0)
(9.091 -0.269398 0)
(8.88617 -0.106081 0)
(9.05409 -0.204831 0)
(8.84042 -0.0428199 0)
(9.02689 -0.147123 0)
(8.80186 0.0231397 0)
(9.00009 -0.0886258 0)
(8.77314 0.102065 0)
(8.98995 -0.016308 0)
(8.72482 0.182796 0)
(8.97697 0.0619831 0)
(8.68488 0.281143 0)
(8.94761 0.141711 0)
(8.64756 0.386228 0)
(8.92074 0.226256 0)
(8.59853 0.472421 0)
(8.90901 0.30038 0)
(8.56952 0.566101 0)
(8.91537 0.366701 0)
(8.53272 0.655425 0)
(8.94474 0.441947 0)
(8.48385 0.758036 0)
(8.96194 0.512809 0)
(8.42692 0.876609 0)
(8.98841 0.591353 0)
(8.37277 0.992842 0)
(9.01311 0.666887 0)
(8.3001 1.13473 0)
(9.03389 0.758521 0)
(8.20122 1.27618 0)
(9.06513 0.84417 0)
(8.12256 1.40774 0)
(9.07223 0.937156 0)
(8.06702 1.5485 0)
(9.04999 1.04518 0)
(8.02751 1.70797 0)
(9.01684 1.16967 0)
(7.99711 1.90029 0)
(8.9932 1.32059 0)
(7.97562 2.1096 0)
(8.97832 1.49298 0)
(7.96216 2.33769 0)
(8.9484 1.68067 0)
(7.95655 2.59223 0)
(8.93745 1.91471 0)
(7.91612 2.8938 0)
(8.97994 2.19001 0)
(7.82997 3.27991 0)
(9.15267 2.51593 0)
(7.66032 3.82285 0)
(9.55015 2.82213 0)
(7.49356 4.74837 0)
(10.1567 2.94556 0)
(7.81314 6.18995 0)
(10.4141 3.15117 0)
(9.20681 7.26016 0)
(11.7883 -0.0862334 0)
(11.6574 -0.160589 0)
(11.8375 -0.21783 0)
(11.7292 -0.208158 0)
(11.9142 -0.205792 0)
(11.7903 -0.167576 0)
(11.9613 -0.160674 0)
(11.8083 -0.130626 0)
(11.9659 -0.137534 0)
(11.7949 -0.119251 0)
(11.9522 -0.137266 0)
(11.7759 -0.126704 0)
(11.9422 -0.15123 0)
(11.767 -0.143522 0)
(11.9443 -0.169893 0)
(11.7693 -0.161232 0)
(11.9553 -0.18675 0)
(11.7775 -0.175654 0)
(11.9695 -0.199931 0)
(11.7868 -0.187059 0)
(11.9832 -0.21135 0)
(11.7943 -0.198066 0)
(11.9942 -0.223642 0)
(11.7986 -0.210644 0)
(12.0016 -0.237728 0)
(11.7994 -0.224775 0)
(12.0055 -0.252845 0)
(11.7972 -0.239158 0)
(12.0067 -0.267709 0)
(11.793 -0.252821 0)
(12.0059 -0.281683 0)
(11.7878 -0.26569 0)
(12.0033 -0.295371 0)
(11.7818 -0.278744 0)
(11.9991 -0.309585 0)
(11.7753 -0.292574 0)
(11.9938 -0.324816 0)
(11.7685 -0.307899 0)
(11.9883 -0.341884 0)
(11.7617 -0.325761 0)
(11.9832 -0.362182 0)
(11.7546 -0.347589 0)
(11.9782 -0.386822 0)
(11.746 -0.373522 0)
(11.9716 -0.415047 0)
(11.7346 -0.401591 0)
(11.9618 -0.44393 0)
(11.7195 -0.428445 0)
(11.9475 -0.470016 0)
(11.701 -0.450973 0)
(11.9284 -0.491081 0)
(11.6804 -0.468313 0)
(11.9064 -0.507919 0)
(11.661 -0.483054 0)
(11.8851 -0.523982 0)
(11.6449 -0.498552 0)
(11.8653 -0.541217 0)
(11.6292 -0.515645 0)
(11.8448 -0.559883 0)
(11.6105 -0.535086 0)
(11.8228 -0.581686 0)
(11.5874 -0.557899 0)
(11.7991 -0.606743 0)
(11.5598 -0.583975 0)
(11.7744 -0.636716 0)
(11.5313 -0.617548 0)
(11.7508 -0.6756 0)
(11.5013 -0.658063 0)
(11.7216 -0.717201 0)
(11.4656 -0.6966 0)
(11.6863 -0.75412 0)
(11.4248 -0.729159 0)
(11.6465 -0.785186 0)
(11.3841 -0.756061 0)
(11.6023 -0.810388 0)
(11.341 -0.779113 0)
(11.5562 -0.835408 0)
(11.3038 -0.805286 0)
(11.5182 -0.864486 0)
(11.2749 -0.831491 0)
(11.4845 -0.889061 0)
(11.2478 -0.852494 0)
(11.4505 -0.906085 0)
(11.2193 -0.866944 0)
(11.4174 -0.920603 0)
(11.1831 -0.877846 0)
(11.3799 -0.933383 0)
(11.1465 -0.895661 0)
(11.3435 -0.955488 0)
(11.1082 -0.910866 0)
(11.2953 -0.967225 0)
(11.0543 -0.91636 0)
(11.2361 -0.974806 0)
(10.9914 -0.919324 0)
(11.1683 -0.981124 0)
(10.9267 -0.9239 0)
(11.098 -0.997666 0)
(10.8656 -0.942683 0)
(11.0216 -1.0222 0)
(10.7958 -0.963072 0)
(10.9381 -1.04247 0)
(10.719 -0.975882 0)
(10.848 -1.05612 0)
(10.6348 -0.979 0)
(10.7512 -1.05257 0)
(10.5408 -0.967146 0)
(10.6424 -1.03782 0)
(10.4356 -0.94163 0)
(10.5183 -1.01063 0)
(10.318 -0.903501 0)
(10.3816 -0.975272 0)
(10.2066 -0.877941 0)
(10.26 -0.963021 0)
(10.0967 -0.857728 0)
(10.1321 -0.937955 0)
(9.97865 -0.822453 0)
(10.0014 -0.908448 0)
(9.85731 -0.790359 0)
(9.87803 -0.890103 0)
(9.74475 -0.764757 0)
(9.76979 -0.870377 0)
(9.6393 -0.73732 0)
(9.68037 -0.840079 0)
(9.54446 -0.704468 0)
(9.59759 -0.803273 0)
(9.45589 -0.663254 0)
(9.50826 -0.760102 0)
(9.36615 -0.611759 0)
(9.41598 -0.707251 0)
(9.27199 -0.553766 0)
(9.32356 -0.650574 0)
(9.18126 -0.497726 0)
(9.23228 -0.590445 0)
(9.09598 -0.43213 0)
(9.14813 -0.52638 0)
(9.01651 -0.368667 0)
(9.07273 -0.468225 0)
(8.92664 -0.313928 0)
(8.99629 -0.417706 0)
(8.84113 -0.257189 0)
(8.93045 -0.362218 0)
(8.7575 -0.19222 0)
(8.87552 -0.307045 0)
(8.6961 -0.13843 0)
(8.82581 -0.260302 0)
(8.64058 -0.0688271 0)