/*--------------------------------*- C++ -*----------------------------------*\
| =========                 |                                                 |
| \\      /  F ield         | OpenFOAM: The Open Source CFD Toolbox           |
|  \\    /   O peration     | Version:  2.4.0                                 |
|   \\  /    A nd           | Web:      www.OpenFOAM.org                      |
|    \\/     M anipulation  |                                                 |
\*---------------------------------------------------------------------------*/
FoamFile
{
    version     2.0;
    format      ascii;
    class       volSymmTensorField;
    location    "1.62";
    object      UPrime2Mean;
}
// * * * * * * * * * * * * * * * * * * * * * * * * * * * * * * * * * * * * * //

dimensions      [0 2 -2 0 0 0 0];

internalField   nonuniform List<symmTensor> 
8800
(
(0.00106948 5.65306e-05 0 0.000119312 0 0)
(0.0199269 -0.000773602 0 4.51335e-05 0 0)
(0.0391201 -7.20101e-05 0 1.23813e-05 0 0)
(0.0494699 0.000100347 0 6.89332e-06 0 0)
(0.0560404 6.71909e-05 0 5.81534e-06 0 0)
(0.0630279 2.47303e-05 0 7.44456e-06 0 0)
(0.0663818 -9.70058e-06 0 8.6892e-06 0 0)
(0.0699492 -5.91698e-05 0 1.12815e-05 0 0)
(0.0727241 -7.68129e-05 0 1.19644e-05 0 0)
(0.0742472 -0.000110924 0 1.48195e-05 0 0)
(0.0772705 -0.000122136 0 1.48793e-05 0 0)
(0.0777747 -0.000160414 0 1.84765e-05 0 0)
(0.0810795 -0.000179764 0 1.78952e-05 0 0)
(0.081618 -0.000212349 0 2.21676e-05 0 0)
(0.085896 -0.00029396 0 2.12786e-05 0 0)
(0.0868425 -0.000225531 0 2.71656e-05 0 0)
(0.0966972 -0.000830586 0 2.97656e-05 0 0)
(0.0951461 0.000942575 0 7.80792e-05 0 0)
(0.155152 -0.0104594 0 0.00109034 0 0)
(0.163569 0.0185698 0 0.00368224 0 0)
(0.00642497 0.00164625 0 0.000726944 0 0)
(0.001803 -0.000756748 0 0.000966346 0 0)
(0.0125486 -0.00125935 0 0.00042063 0 0)
(0.0199828 -0.00151763 0 0.00018217 0 0)
(0.0297398 -0.00137493 0 0.000115352 0 0)
(0.0442906 -0.00130843 0 9.86791e-05 0 0)
(0.0562703 -0.00163308 0 0.000114742 0 0)
(0.0666012 -0.00115213 0 8.87594e-05 0 0)
(0.084241 -0.00172488 0 0.000116518 0 0)
(0.084582 -0.00130224 0 9.91796e-05 0 0)
(0.109772 -0.00189801 0 0.00013099 0 0)
(0.100816 -0.00167025 0 0.000125297 0 0)
(0.132743 -0.0024169 0 0.000170454 0 0)
(0.116781 -0.002158 0 0.000167487 0 0)
(0.156587 -0.00330236 0 0.000244836 0 0)
(0.132836 -0.00334926 0 0.000278881 0 0)
(0.188861 -0.00368688 0 0.000382137 0 0)
(0.158308 -0.00802378 0 0.000988402 0 0)
(0.266019 -0.00434439 0 0.000774338 0 0)
(0.25984 -0.034643 0 0.012965 0 0)
(0.0159395 0.000656977 0 0.000493815 0 0)
(0.0155762 0.000102496 0 0.00116794 0 0)
(0.0404496 -8.12364e-05 0 0.000769678 0 0)
(0.0437253 -0.00123455 0 0.00044893 0 0)
(0.0618036 -0.00121137 0 0.00036806 0 0)
(0.0718435 -0.00186086 0 0.000351677 0 0)
(0.0937044 -0.00365163 0 0.00041994 0 0)
(0.0992011 -0.00231359 0 0.000297359 0 0)
(0.139075 -0.0051794 0 0.000399745 0 0)
(0.126562 -0.00337059 0 0.000276675 0 0)
(0.189843 -0.00635746 0 0.000411629 0 0)
(0.153881 -0.00467889 0 0.000328441 0 0)
(0.241826 -0.00841695 0 0.000569865 0 0)
(0.178234 -0.00595876 0 0.000475194 0 0)
(0.298258 -0.0120229 0 0.000963228 0 0)
(0.194136 -0.00725898 0 0.000822377 0 0)
(0.365955 -0.0164148 0 0.00169645 0 0)
(0.209424 -0.00933814 0 0.00202584 0 0)
(0.462567 -0.0221656 0 0.0039068 0 0)
(0.260337 -0.0294445 0 0.015801 0 0)
(0.0773686 -0.000448157 0 0.000402814 0 0)
(0.0898767 -0.000212955 0 0.000961126 0 0)
(0.140147 -0.00129899 0 0.000800645 0 0)
(0.145578 -0.00253185 0 0.000566821 0 0)
(0.180904 -0.0016504 0 0.000581111 0 0)
(0.187136 -0.00305816 0 0.000614469 0 0)
(0.227598 -0.00575869 0 0.000819866 0 0)
(0.22234 -0.0030319 0 0.000620857 0 0)
(0.286407 -0.00967114 0 0.000945409 0 0)
(0.25432 -0.00528819 0 0.000626944 0 0)
(0.353151 -0.0128644 0 0.00103694 0 0)
(0.284814 -0.008346 0 0.000759848 0 0)
(0.424902 -0.0174498 0 0.00144438 0 0)
(0.311792 -0.01121 0 0.00106949 0 0)
(0.504294 -0.0248908 0 0.00238976 0 0)
(0.326336 -0.0137587 0 0.00172321 0 0)
(0.597458 -0.0336684 0 0.00383356 0 0)
(0.324352 -0.0168529 0 0.00407755 0 0)
(0.719819 -0.0414296 0 0.00656565 0 0)
(0.315298 -0.0310099 0 0.0225452 0 0)
(0.301175 -0.00156914 0 0.000670479 0 0)
(0.298029 -0.000116887 0 0.00127825 0 0)
(0.333776 -0.00464547 0 0.00154293 0 0)
(0.321376 -0.00477532 0 0.00115441 0 0)
(0.348646 -0.00490263 0 0.00126765 0 0)
(0.339443 -0.00664553 0 0.00116686 0 0)
(0.374041 -0.00975667 0 0.00179712 0 0)
(0.356585 -0.00601312 0 0.00132114 0 0)
(0.411025 -0.0150218 0 0.00226297 0 0)
(0.374438 -0.00837266 0 0.00152581 0 0)
(0.451926 -0.0193762 0 0.00263993 0 0)
(0.393525 -0.0123509 0 0.00182079 0 0)
(0.493665 -0.02525 0 0.0034706 0 0)
(0.413578 -0.016186 0 0.00232759 0 0)
(0.537259 -0.0346905 0 0.00505043 0 0)
(0.429454 -0.0201628 0 0.00316725 0 0)
(0.587174 -0.0465566 0 0.00733404 0 0)
(0.43434 -0.025151 0 0.00582916 0 0)
(0.654489 -0.0587366 0 0.011395 0 0)
(0.416382 -0.0331163 0 0.0264683 0 0)
(0.37922 -0.00620202 0 0.00221327 0 0)
(0.325666 -0.00135221 0 0.00300644 0 0)
(0.318059 -0.00841662 0 0.00380635 0 0)
(0.273415 -0.00662074 0 0.00246543 0 0)
(0.283107 -0.00923099 0 0.00336688 0 0)
(0.260431 -0.00870098 0 0.00275786 0 0)
(0.26657 -0.0121715 0 0.00398034 0 0)
(0.249932 -0.00812377 0 0.00289072 0 0)
(0.26172 -0.0154833 0 0.00476397 0 0)
(0.247492 -0.0102373 0 0.00320538 0 0)
(0.260032 -0.0186439 0 0.00538327 0 0)
(0.25058 -0.0137033 0 0.00382102 0 0)
(0.258623 -0.0221391 0 0.00655045 0 0)
(0.260349 -0.0170679 0 0.00460831 0 0)
(0.254863 -0.027451 0 0.00881854 0 0)
(0.27635 -0.0211626 0 0.00574102 0 0)
(0.247796 -0.0336879 0 0.0123333 0 0)
(0.298742 -0.0266997 0 0.00866765 0 0)
(0.240165 -0.0387238 0 0.0200549 0 0)
(0.32651 -0.0355782 0 0.0246943 0 0)
(0.178464 -0.0099247 0 0.00413031 0 0)
(0.158901 -0.00853918 0 0.00610519 0 0)
(0.148425 -0.0078565 0 0.00595047 0 0)
(0.137708 -0.0112715 0 0.00506198 0 0)
(0.134497 -0.0100875 0 0.00615626 0 0)
(0.13641 -0.0104027 0 0.00549121 0 0)
(0.131574 -0.0108052 0 0.00618001 0 0)
(0.133916 -0.0104899 0 0.00561038 0 0)
(0.134434 -0.0115037 0 0.00682954 0 0)
(0.136702 -0.0114418 0 0.00605447 0 0)
(0.134819 -0.013197 0 0.00764974 0 0)
(0.144256 -0.0126225 0 0.00686048 0 0)
(0.138669 -0.0138557 0 0.00902027 0 0)
(0.1552 -0.0142351 0 0.00809663 0 0)
(0.141154 -0.0140553 0 0.0114171 0 0)
(0.170995 -0.0162016 0 0.00983077 0 0)
(0.142844 -0.0125791 0 0.0153134 0 0)
(0.194323 -0.0183129 0 0.0142248 0 0)
(0.145591 -0.00563772 0 0.0242119 0 0)
(0.228663 -0.0177041 0 0.0361752 0 0)
(0.158113 -0.0117407 0 0.00510703 0 0)
(0.192758 -0.0188071 0 0.0102122 0 0)
(0.154418 -0.00860532 0 0.00801311 0 0)
(0.195437 -0.0140967 0 0.00694656 0 0)
(0.16931 -0.0117566 0 0.00806868 0 0)
(0.192585 -0.0115331 0 0.00799603 0 0)
(0.189188 -0.009868 0 0.00740527 0 0)
(0.197066 -0.011693 0 0.00810858 0 0)
(0.203452 -0.00924032 0 0.0082837 0 0)
(0.202603 -0.0110812 0 0.00837311 0 0)
(0.216807 -0.00891281 0 0.0089591 0 0)
(0.209378 -0.0105173 0 0.00954431 0 0)
(0.234916 -0.00696796 0 0.0102319 0 0)
(0.220151 -0.0104349 0 0.0109542 0 0)
(0.248447 -0.00372418 0 0.0124957 0 0)
(0.234312 -0.00983991 0 0.0130708 0 0)
(0.266606 0.00201472 0 0.0160098 0 0)
(0.253572 -0.00801867 0 0.0188758 0 0)
(0.28483 0.0143008 0 0.0247643 0 0)
(0.28064 -0.000886634 0 0.0423001 0 0)
(0.269491 -0.00850973 0 0.00488563 0 0)
(0.301412 -0.0180154 0 0.0130295 0 0)
(0.260021 -0.00571331 0 0.00909624 0 0)
(0.267989 -0.0089921 0 0.00807053 0 0)
(0.295378 -0.00683506 0 0.00801687 0 0)
(0.254639 -0.00682087 0 0.00895643 0 0)
(0.330526 -0.00442698 0 0.00748834 0 0)
(0.25311 -0.00661372 0 0.00904484 0 0)
(0.34865 -0.00212617 0 0.00801939 0 0)
(0.257368 -0.00646474 0 0.00964531 0 0)
(0.360213 5.91631e-06 0 0.0086136 0 0)
(0.267202 -0.00516994 0 0.0105998 0 0)
(0.375498 0.00295051 0 0.00986978 0 0)
(0.280509 -0.00442817 0 0.012128 0 0)
(0.393172 0.0072315 0 0.0113164 0 0)
(0.297272 -0.00274871 0 0.0142402 0 0)
(0.410164 0.0141184 0 0.0140035 0 0)
(0.321489 0.000633109 0 0.0196543 0 0)
(0.428468 0.0270873 0 0.0208153 0 0)
(0.365793 0.00658939 0 0.0362889 0 0)
(0.301476 -0.00413191 0 0.00356083 0 0)
(0.334864 -0.00836314 0 0.00994661 0 0)
(0.323372 -0.000859768 0 0.00595806 0 0)
(0.277924 -0.0017219 0 0.0061142 0 0)
(0.347523 -0.00077407 0 0.00545619 0 0)
(0.268356 -0.000980036 0 0.00658136 0 0)
(0.359295 0.00137746 0 0.00508683 0 0)
(0.268456 -0.000651996 0 0.006821 0 0)
(0.359222 0.00370175 0 0.00547062 0 0)
(0.273436 -0.000392585 0 0.00713623 0 0)
(0.366209 0.00488172 0 0.00597315 0 0)
(0.289466 0.000917161 0 0.00767084 0 0)
(0.374818 0.00770496 0 0.00667942 0 0)
(0.308033 0.00182243 0 0.0086518 0 0)
(0.384672 0.0113279 0 0.00737833 0 0)
(0.332989 0.00438213 0 0.00994083 0 0)
(0.398031 0.0169462 0 0.00863232 0 0)
(0.372588 0.00948433 0 0.0131239 0 0)
(0.417184 0.0270263 0 0.0125898 0 0)
(0.452356 0.015785 0 0.0237099 0 0)
(0.204221 -0.00149999 0 0.00265324 0 0)
(0.234108 -0.00146269 0 0.00616179 0 0)
(0.222188 0.00206524 0 0.00419791 0 0)
(0.198243 0.00327056 0 0.00388612 0 0)
(0.231196 0.00202143 0 0.00465335 0 0)
(0.200511 0.00301073 0 0.00471162 0 0)
(0.232415 0.00348541 0 0.00451765 0 0)
(0.204379 0.0042116 0 0.00498569 0 0)
(0.232295 0.00497227 0 0.00472047 0 0)
(0.213644 0.00510731 0 0.00522769 0 0)
(0.231805 0.00623706 0 0.00506661 0 0)
(0.232414 0.00639334 0 0.00548233 0 0)
(0.237123 0.00839802 0 0.00542421 0 0)
(0.248186 0.00819247 0 0.0059847 0 0)
(0.24345 0.0108925 0 0.00582407 0 0)
(0.27131 0.0117006 0 0.00666638 0 0)
(0.25001 0.0143932 0 0.00658132 0 0)
(0.308565 0.0181017 0 0.00823119 0 0)
(0.255499 0.0209957 0 0.0091123 0 0)
(0.378292 0.026761 0 0.0148321 0 0)
(0.0887446 -0.000367311 0 0.00234767 0 0)
(0.0998527 0.000660019 0 0.00509213 0 0)
(0.089735 0.0013954 0 0.00395129 0 0)
(0.0943066 0.00269974 0 0.00386851 0 0)
(0.095484 0.00148879 0 0.00425982 0 0)
(0.0995939 0.00243332 0 0.00452023 0 0)
(0.0996027 0.00164529 0 0.00433242 0 0)
(0.10514 0.00380075 0 0.00479009 0 0)
(0.100588 0.00246641 0 0.00432685 0 0)
(0.115517 0.00465539 0 0.00484097 0 0)
(0.0997914 0.00328768 0 0.00446695 0 0)
(0.128597 0.00556534 0 0.00495198 0 0)
(0.103717 0.00420016 0 0.00459435 0 0)
(0.141528 0.00677605 0 0.0051521 0 0)
(0.107461 0.00483615 0 0.00462598 0 0)
(0.158896 0.00915795 0 0.00536397 0 0)
(0.109308 0.00593968 0 0.00485863 0 0)
(0.184978 0.013222 0 0.00619285 0 0)
(0.110673 0.00929436 0 0.00623564 0 0)
(0.232968 0.0189016 0 0.0102796 0 0)
(0.0294517 -0.00013037 0 0.00192308 0 0)
(0.0321879 0.000224438 0 0.00420761 0 0)
(0.029245 -0.000351652 0 0.00344858 0 0)
(0.0381207 0.000716926 0 0.00318292 0 0)
(0.0351351 0.000258171 0 0.00323727 0 0)
(0.0399853 0.000902306 0 0.0034102 0 0)
(0.0384225 8.60691e-05 0 0.00340428 0 0)
(0.0448697 0.0015686 0 0.00376303 0 0)
(0.0398933 0.000212463 0 0.00333362 0 0)
(0.0512615 0.00220463 0 0.00358341 0 0)
(0.0404203 0.000923665 0 0.00327547 0 0)
(0.0566014 0.00261541 0 0.00360046 0 0)
(0.0428702 0.00125695 0 0.00338133 0 0)
(0.0632131 0.00307253 0 0.0035057 0 0)
(0.0461586 0.00144199 0 0.00315957 0 0)
(0.0710155 0.00423711 0 0.00333777 0 0)
(0.0491781 0.00219719 0 0.0030895 0 0)
(0.082753 0.00638445 0 0.00360873 0 0)
(0.0547137 0.00477744 0 0.00387395 0 0)
(0.105372 0.0103781 0 0.00600604 0 0)
(0.00894164 -0.000253189 0 0.001394 0 0)
(0.00649636 -0.000642234 0 0.00315824 0 0)
(0.00768535 -0.00139934 0 0.00281351 0 0)
(0.0114113 -0.000589842 0 0.00218734 0 0)
(0.0114953 -0.000239889 0 0.0022612 0 0)
(0.0129362 -0.00029327 0 0.00218842 0 0)
(0.0145191 -0.000334541 0 0.00233701 0 0)
(0.0159118 -0.000313888 0 0.00250519 0 0)
(0.0174248 -0.000677627 0 0.00226884 0 0)
(0.019752 -7.90058e-06 0 0.00223863 0 0)
(0.0189345 -0.000156804 0 0.00210126 0 0)
(0.0222594 0.000161917 0 0.00215984 0 0)
(0.0210523 -0.00015133 0 0.00216553 0 0)
(0.0260726 3.48667e-06 0 0.00206828 0 0)
(0.02433 -6.47656e-05 0 0.00191207 0 0)
(0.0306837 0.000518195 0 0.00180655 0 0)
(0.0285916 0.000652353 0 0.00171696 0 0)
(0.0384645 0.00200284 0 0.0019272 0 0)
(0.0373105 0.00311221 0 0.00221292 0 0)
(0.0537039 0.00672568 0 0.00373459 0 0)
(0.00748919 -0.000379486 0 0.00103392 0 0)
(0.00321552 -0.000888907 0 0.00248283 0 0)
(0.00450839 -0.00152292 0 0.00229387 0 0)
(0.0060088 -0.00101085 0 0.00166075 0 0)
(0.00773258 -0.00050573 0 0.00173565 0 0)
(0.007575 -0.000490455 0 0.00166316 0 0)
(0.00936468 -0.000594913 0 0.00189284 0 0)
(0.00969273 -0.000974754 0 0.0020226 0 0)
(0.0122403 -0.00101276 0 0.00187202 0 0)
(0.0124839 -0.00070726 0 0.00176048 0 0)
(0.0144062 -0.000507237 0 0.00162553 0 0)
(0.0144559 -0.000457948 0 0.00160503 0 0)
(0.0164418 -0.000453699 0 0.001589 0 0)
(0.0170989 -0.000678935 0 0.00147581 0 0)
(0.0194204 -0.000475845 0 0.00132925 0 0)
(0.0203892 -0.000378011 0 0.0011828 0 0)
(0.023328 0.000198438 0 0.00105377 0 0)
(0.0262389 0.000849294 0 0.00107973 0 0)
(0.0312668 0.00243753 0 0.00124646 0 0)
(0.0388927 0.00495173 0 0.00205667 0 0)
(0.00916036 -0.000368697 0 0.000615949 0 0)
(0.00514286 -0.000256384 0 0.00163593 0 0)
(0.00529041 -0.000908737 0 0.00157178 0 0)
(0.0063971 -0.00068556 0 0.0011657 0 0)
(0.00843668 -0.000356031 0 0.00131457 0 0)
(0.00785119 -0.000156449 0 0.00119135 0 0)
(0.010086 -0.000314622 0 0.00131577 0 0)
(0.00919552 -0.000369574 0 0.00141778 0 0)
(0.0111999 -0.000516598 0 0.0013481 0 0)
(0.00971369 -0.000150114 0 0.0012548 0 0)
(0.0116164 -0.000142415 0 0.00111679 0 0)
(0.00977168 8.24749e-05 0 0.00104787 0 0)
(0.0113784 4.97632e-06 0 0.000992052 0 0)
(0.00942132 -7.80172e-06 0 0.000917906 0 0)
(0.0110253 -2.11283e-05 0 0.000805307 0 0)
(0.0093335 2.79652e-05 0 0.000727802 0 0)
(0.011292 0.000350906 0 0.000598161 0 0)
(0.0110157 0.000658779 0 0.000604591 0 0)
(0.0146448 0.00173467 0 0.000680247 0 0)
(0.018517 0.00292432 0 0.00113371 0 0)
(0.00793396 -0.000587669 0 0.000383529 0 0)
(0.00418479 -2.45375e-06 0 0.00112579 0 0)
(0.00456665 -0.000331499 0 0.00096121 0 0)
(0.00612774 -0.000291204 0 0.000655893 0 0)
(0.00758764 -0.000102043 0 0.000784927 0 0)
(0.0066352 7.63224e-05 0 0.000745555 0 0)
(0.0074525 0.000147054 0 0.000775871 0 0)
(0.00587966 0.000461409 0 0.000787095 0 0)
(0.00567171 0.000465325 0 0.000716884 0 0)
(0.0046147 0.000797095 0 0.000644325 0 0)
(0.00417972 0.000697935 0 0.000565581 0 0)
(0.0040855 0.000928631 0 0.000522239 0 0)
(0.00332212 0.000760386 0 0.000485279 0 0)
(0.0041116 0.000893937 0 0.000451241 0 0)
(0.00328039 0.00059707 0 0.000388901 0 0)
(0.00485754 0.000758621 0 0.000366226 0 0)
(0.00430222 0.000427442 0 0.000304975 0 0)
(0.00647593 0.000773008 0 0.000310655 0 0)
(0.00717346 0.000704213 0 0.000416163 0 0)
(0.0104521 0.00149414 0 0.000581098 0 0)
(0.00636097 -0.00117903 0 0.000450654 0 0)
(0.00199405 -0.000346252 0 0.00114395 0 0)
(0.00216465 -4.87788e-05 0 0.000745578 0 0)
(0.00294062 0.00014216 0 0.000436819 0 0)
(0.00305978 0.000549666 0 0.000417007 0 0)
(0.00320601 0.000869754 0 0.000373227 0 0)
(0.0049991 0.00105832 0 0.000352789 0 0)
(0.00785931 0.00125062 0 0.000330802 0 0)
(0.00981727 0.00116719 0 0.000285348 0 0)
(0.0145258 0.00120177 0 0.000248939 0 0)
(0.0154502 0.00102452 0 0.000216596 0 0)
(0.0213749 0.00105574 0 0.000201302 0 0)
(0.020765 0.000862855 0 0.000193293 0 0)
(0.02758 0.000915048 0 0.000179907 0 0)
(0.0256733 0.000556184 0 0.00015996 0 0)
(0.0325975 0.000700664 0 0.000151742 0 0)
(0.0299298 4.29295e-05 0 0.000134828 0 0)
(0.0350649 0.000515595 0 0.000143722 0 0)
(0.033103 -0.000409424 0 0.0001974 0 0)
(0.0344341 0.000956807 0 0.000371167 0 0)
(0.0056156 -0.0017573 0 0.000712175 0 0)
(0.000966748 0.000678313 0 0.000952632 0 0)
(0.00527768 0.0013473 0 0.000404825 0 0)
(0.0104885 0.00118266 0 0.000168752 0 0)
(0.0164635 0.00115726 0 0.000117204 0 0)
(0.0240992 0.00104398 0 9.38907e-05 0 0)
(0.0313719 0.000876228 0 8.56847e-05 0 0)
(0.0391498 0.000749918 0 7.99569e-05 0 0)
(0.0438762 0.000602691 0 7.44924e-05 0 0)
(0.0507086 0.000537 0 7.09703e-05 0 0)
(0.0528832 0.000438805 0 6.80796e-05 0 0)
(0.0593763 0.000435581 0 6.54924e-05 0 0)
(0.0595291 0.000343917 0 6.50917e-05 0 0)
(0.0661342 0.000366281 0 5.97369e-05 0 0)
(0.0645837 0.000176348 0 5.47993e-05 0 0)
(0.0707254 0.000219028 0 4.94609e-05 0 0)
(0.0675855 -0.000182504 0 4.67088e-05 0 0)
(0.0707495 7.59162e-05 0 4.65014e-05 0 0)
(0.0681976 -0.000720822 0 6.81142e-05 0 0)
(0.0633978 0.000385201 0 0.000203266 0 0)
(0.0010412 -6.14384e-05 0 0.00011837 0 0)
(0.0199179 0.000774676 0 4.3756e-05 0 0)
(0.0388629 7.13834e-05 0 1.11552e-05 0 0)
(0.0483959 -0.000118261 0 5.16165e-06 0 0)
(0.0554813 -8.6941e-05 0 4.42248e-06 0 0)
(0.0609171 -6.69081e-05 0 4.84503e-06 0 0)
(0.0643979 -4.41695e-05 0 5.8569e-06 0 0)
(0.0673676 -1.953e-05 0 6.28065e-06 0 0)
(0.0690141 -1.07806e-05 0 6.94048e-06 0 0)
(0.0711387 4.55371e-07 0 7.00709e-06 0 0)
(0.0718415 -3.9035e-06 0 7.13024e-06 0 0)
(0.0736158 6.23723e-06 0 6.76569e-06 0 0)
(0.0737295 -6.95647e-06 0 6.57665e-06 0 0)
(0.075376 2.52983e-06 0 5.82795e-06 0 0)
(0.074839 -3.07578e-05 0 5.35061e-06 0 0)
(0.0760032 -2.72444e-05 0 4.46107e-06 0 0)
(0.0743144 -9.0755e-05 0 4.05894e-06 0 0)
(0.0738475 -7.45831e-05 0 3.57616e-06 0 0)
(0.0717081 -0.000267481 0 4.52491e-06 0 0)
(0.0648862 0.000361088 0 2.58986e-05 0 0)
(0.308363 -0.148714 0 0.092619 0 0)
(0.335632 -0.176308 0 0.130125 0 0)
(0.341114 -0.167546 0 0.154895 0 0)
(0.360648 -0.148149 0 0.172936 0 0)
(0.367383 -0.124843 0 0.183568 0 0)
(0.432835 -0.111024 0 0.191 0 0)
(0.464891 -0.105213 0 0.197896 0 0)
(0.566609 -0.116872 0 0.208308 0 0)
(0.615609 -0.131429 0 0.220492 0 0)
(0.719985 -0.153598 0 0.233317 0 0)
(0.756299 -0.168355 0 0.247049 0 0)
(0.851449 -0.188318 0 0.2644 0 0)
(0.877542 -0.197092 0 0.282533 0 0)
(0.974169 -0.215781 0 0.299238 0 0)
(1.00317 -0.226142 0 0.310604 0 0)
(1.10788 -0.252912 0 0.32029 0 0)
(1.13671 -0.273591 0 0.332469 0 0)
(1.25076 -0.312724 0 0.351071 0 0)
(1.27867 -0.33704 0 0.376516 0 0)
(1.42075 -0.379139 0 0.408993 0 0)
(1.47416 -0.400506 0 0.437156 0 0)
(1.65298 -0.450591 0 0.468135 0 0)
(1.71731 -0.479714 0 0.498764 0 0)
(1.91263 -0.540933 0 0.533836 0 0)
(1.98172 -0.570516 0 0.568302 0 0)
(2.18506 -0.638772 0 0.60952 0 0)
(2.26677 -0.665143 0 0.64972 0 0)
(2.4756 -0.746896 0 0.695539 0 0)
(2.5801 -0.777832 0 0.741473 0 0)
(2.79265 -0.875235 0 0.796438 0 0)
(2.92213 -0.912994 0 0.853618 0 0)
(3.14959 -1.02228 0 0.917235 0 0)
(3.29736 -1.06667 0 0.979142 0 0)
(3.5555 -1.19095 0 1.04764 0 0)
(3.70168 -1.24298 0 1.11275 0 0)
(3.98652 -1.38333 0 1.18502 0 0)
(4.09862 -1.43019 0 1.2484 0 0)
(4.39404 -1.57772 0 1.32002 0 0)
(4.45795 -1.60831 0 1.38043 0 0)
(4.75555 -1.75524 0 1.45144 0 0)
(4.76561 -1.75568 0 1.51166 0 0)
(5.05426 -1.89753 0 1.57883 0 0)
(5.01874 -1.86672 0 1.63255 0 0)
(5.31192 -2.00379 0 1.69743 0 0)
(5.2524 -1.95972 0 1.74923 0 0)
(5.57463 -2.10158 0 1.81456 0 0)
(5.50993 -2.05523 0 1.86365 0 0)
(5.87655 -2.20454 0 1.93771 0 0)
(5.80963 -2.16835 0 1.99171 0 0)
(6.23089 -2.3245 0 2.07745 0 0)
(6.13816 -2.29843 0 2.14109 0 0)
(6.61254 -2.46243 0 2.24159 0 0)
(6.44708 -2.42587 0 2.31695 0 0)
(6.9558 -2.59334 0 2.42606 0 0)
(6.6783 -2.51546 0 2.49561 0 0)
(7.19821 -2.68045 0 2.59733 0 0)
(6.80308 -2.54811 0 2.64304 0 0)
(7.33953 -2.7154 0 2.7246 0 0)
(6.84447 -2.54912 0 2.75149 0 0)
(7.43725 -2.73198 0 2.82182 0 0)
(6.8411 -2.56113 0 2.84815 0 0)
(7.52401 -2.76492 0 2.92232 0 0)
(6.80015 -2.58798 0 2.9543 0 0)
(7.55963 -2.79731 0 3.03387 0 0)
(6.69904 -2.58583 0 3.05588 0 0)
(7.51092 -2.77199 0 3.12309 0 0)
(6.5564 -2.51762 0 3.10293 0 0)
(7.43763 -2.65596 0 3.12461 0 0)
(6.42801 -2.39652 0 3.07998 0 0)
(7.44901 -2.54521 0 3.11036 0 0)
(6.38067 -2.30028 0 3.09419 0 0)
(7.56757 -2.48381 0 3.13365 0 0)
(6.40657 -2.22876 0 3.12212 0 0)
(7.77702 -2.48028 0 3.17447 0 0)
(6.4848 -2.20486 0 3.19816 0 0)
(8.00674 -2.53249 0 3.29865 0 0)
(6.60535 -2.22107 0 3.36424 0 0)
(8.19044 -2.59669 0 3.52096 0 0)
(6.71049 -2.25076 0 3.60448 0 0)
(8.32293 -2.62835 0 3.78957 0 0)
(6.74071 -2.26744 0 3.87221 0 0)
(8.41962 -2.63926 0 4.04252 0 0)
(6.71243 -2.27073 0 4.0964 0 0)
(8.4895 -2.65937 0 4.24766 0 0)
(6.67679 -2.26756 0 4.27363 0 0)
(8.47553 -2.64796 0 4.41409 0 0)
(6.68416 -2.23188 0 4.43157 0 0)
(8.46078 -2.6073 0 4.60729 0 0)
(6.74703 -2.2033 0 4.6371 0 0)
(8.53395 -2.55794 0 4.80465 0 0)
(6.86566 -2.18986 0 4.83441 0 0)
(8.69624 -2.58496 0 5.0217 0 0)
(7.07261 -2.24032 0 5.08689 0 0)
(8.93602 -2.66549 0 5.30308 0 0)
(7.31763 -2.29711 0 5.37233 0 0)
(9.15477 -2.741 0 5.61334 0 0)
(7.5437 -2.34033 0 5.69829 0 0)
(9.31028 -2.7906 0 5.98893 0 0)
(7.6919 -2.35831 0 6.08715 0 0)
(9.303 -2.79086 0 6.41376 0 0)
(7.69611 -2.33345 0 6.55679 0 0)
(9.23044 -2.78963 0 6.93414 0 0)
(7.57145 -2.30544 0 7.09629 0 0)
(9.13549 -2.77996 0 7.47925 0 0)
(7.38219 -2.26352 0 7.54562 0 0)
(9.01514 -2.76275 0 7.87421 0 0)
(7.19539 -2.16262 0 7.85883 0 0)
(8.86972 -2.65611 0 8.09441 0 0)
(7.07896 -2.00546 0 8.00319 0 0)
(8.73764 -2.52342 0 8.24305 0 0)
(7.03485 -1.89115 0 8.13932 0 0)
(8.62197 -2.42475 0 8.37763 0 0)
(7.05499 -1.79188 0 8.25986 0 0)
(8.54432 -2.32009 0 8.51604 0 0)
(7.11585 -1.64828 0 8.40562 0 0)
(8.44341 -2.15777 0 8.67653 0 0)
(7.16542 -1.51356 0 8.61856 0 0)
(8.32846 -2.00175 0 8.92414 0 0)
(7.24863 -1.4317 0 8.91927 0 0)
(8.3044 -1.89117 0 9.25963 0 0)
(7.397 -1.40297 0 9.32244 0 0)
(8.30029 -1.82627 0 9.67376 0 0)
(7.46351 -1.37032 0 9.78575 0 0)
(8.23478 -1.77477 0 10.1183 0 0)
(7.44715 -1.34667 0 10.1799 0 0)
(8.15267 -1.72454 0 10.4515 0 0)
(7.33845 -1.307 0 10.5185 0 0)
(8.03528 -1.68731 0 10.7692 0 0)
(7.25328 -1.31337 0 10.8366 0 0)
(7.87942 -1.69688 0 11.0222 0 0)
(7.26592 -1.41313 0 11.157 0 0)
(7.7636 -1.73353 0 11.3587 0 0)
(7.3662 -1.53233 0 11.5072 0 0)
(7.7216 -1.73422 0 11.6613 0 0)
(7.48356 -1.62019 0 11.8004 0 0)
(7.72833 -1.70255 0 11.9231 0 0)
(7.61454 -1.63504 0 12.0632 0 0)
(7.80707 -1.63669 0 12.243 0 0)
(7.72476 -1.5943 0 12.4473 0 0)
(7.90007 -1.55381 0 12.623 0 0)
(7.80133 -1.52741 0 12.8437 0 0)
(7.92264 -1.44173 0 12.9544 0 0)
(7.87804 -1.44112 0 13.1876 0 0)
(7.85809 -1.29834 0 13.3659 0 0)
(7.79207 -1.30244 0 13.6249 0 0)
(7.69036 -1.12413 0 13.7304 0 0)
(7.67759 -1.10109 0 13.841 0 0)
(7.55653 -0.956343 0 13.9034 0 0)
(7.57817 -0.85353 0 14.0343 0 0)
(7.43368 -0.787431 0 14.0652 0 0)
(7.46251 -0.624742 0 14.0797 0 0)
(7.31473 -0.587869 0 14.0176 0 0)
(7.31906 -0.392122 0 14.0242 0 0)
(7.21336 -0.378537 0 13.9821 0 0)
(7.19567 -0.201365 0 14.052 0 0)
(7.09793 -0.216113 0 14.0354 0 0)
(7.12847 -0.0753002 0 14.1167 0 0)
(7.07014 -0.0781065 0 14.0464 0 0)
(7.08752 0.017586 0 14.1259 0 0)
(6.95338 -0.0131612 0 14.088 0 0)
(6.96309 0.0573496 0 14.21 0 0)
(6.78992 0.0190034 0 14.2045 0 0)
(6.78575 0.0640799 0 14.2747 0 0)
(6.64952 0.0164129 0 14.2245 0 0)
(6.71403 0.0462485 0 14.2205 0 0)
(6.56476 -0.0703263 0 14.107 0 0)
(6.66534 -0.00332014 0 14.1178 0 0)
(6.47003 -0.263202 0 14.0091 0 0)
(6.58242 -0.106125 0 13.9227 0 0)
(6.43881 -0.451979 0 13.7569 0 0)
(6.45 -0.319618 0 13.6028 0 0)
(6.47175 -0.698952 0 13.4981 0 0)
(6.26892 -0.513015 0 13.1073 0 0)
(6.57731 -0.979986 0 12.868 0 0)
(6.20541 -0.582689 0 12.4323 0 0)
(6.58703 -1.06154 0 12.1565 0 0)
(6.2524 -0.601022 0 11.8017 0 0)
(6.63221 -1.06529 0 11.3767 0 0)
(6.30742 -0.661226 0 11.2071 0 0)
(6.65111 -0.960482 0 10.6428 0 0)
(6.32845 -0.755206 0 10.6594 0 0)
(6.55409 -0.841043 0 9.86009 0 0)
(6.20495 -0.872977 0 10.1979 0 0)
(6.36947 -0.695111 0 9.08397 0 0)
(6.03976 -0.959315 0 9.79217 0 0)
(6.12719 -0.44839 0 8.41791 0 0)
(5.85229 -1.01525 0 9.49822 0 0)
(5.7869 -0.146851 0 7.94043 0 0)
(5.5501 -0.960266 0 9.44937 0 0)
(5.43444 0.302682 0 7.76703 0 0)
(5.14065 -0.784535 0 9.70028 0 0)
(5.08222 0.861776 0 7.89648 0 0)
(4.68201 -0.472632 0 10.4942 0 0)
(4.5275 1.48976 0 8.52026 0 0)
(4.29546 0.0252129 0 12.0172 0 0)
(3.9245 2.41629 0 10.0686 0 0)
(3.79153 0.388813 0 14.3171 0 0)
(3.08588 3.62909 0 13.005 0 0)
(3.43534 2.30224 0 19.5787 0 0)
(1.12291 0.629727 0 21.4587 0 0)
(0.288956 -0.122962 0 0.104375 0 0)
(0.256841 -0.13118 0 0.13595 0 0)
(0.2742 -0.117055 0 0.143163 0 0)
(0.240931 -0.107412 0 0.147113 0 0)
(0.26239 -0.0940579 0 0.146936 0 0)
(0.258847 -0.0948482 0 0.146213 0 0)
(0.297429 -0.0986331 0 0.14929 0 0)
(0.31174 -0.114871 0 0.158072 0 0)
(0.361467 -0.125994 0 0.168137 0 0)
(0.37468 -0.143987 0 0.17891 0 0)
(0.422174 -0.152867 0 0.190311 0 0)
(0.430329 -0.170776 0 0.205075 0 0)
(0.478658 -0.178153 0 0.219969 0 0)
(0.495594 -0.197695 0 0.235442 0 0)
(0.553072 -0.205914 0 0.248788 0 0)
(0.59028 -0.233389 0 0.263472 0 0)
(0.660907 -0.249998 0 0.279299 0 0)
(0.721172 -0.292171 0 0.299798 0 0)
(0.798876 -0.314816 0 0.321493 0 0)
(0.872938 -0.363888 0 0.348196 0 0)
(0.950142 -0.384286 0 0.374088 0 0)
(1.04014 -0.43737 0 0.403897 0 0)
(1.12005 -0.456659 0 0.432821 0 0)
(1.23011 -0.518379 0 0.466854 0 0)
(1.31303 -0.5366 0 0.500002 0 0)
(1.44578 -0.6081 0 0.540981 0 0)
(1.5391 -0.626561 0 0.58082 0 0)
(1.69961 -0.710946 0 0.628675 0 0)
(1.80965 -0.736454 0 0.673948 0 0)
(1.99554 -0.837379 0 0.729043 0 0)
(2.11404 -0.871809 0 0.780516 0 0)
(2.31986 -0.987083 0 0.841933 0 0)
(2.42625 -1.02324 0 0.897621 0 0)
(2.64885 -1.14983 0 0.963443 0 0)
(2.72114 -1.1787 0 1.02128 0 0)
(2.95859 -1.31477 0 1.08937 0 0)
(2.97421 -1.32432 0 1.1478 0 0)
(3.22261 -1.46537 0 1.2147 0 0)
(3.17237 -1.44906 0 1.27212 0 0)
(3.43735 -1.59548 0 1.33684 0 0)
(3.33207 -1.55009 0 1.39074 0 0)
(3.61648 -1.69912 0 1.45636 0 0)
(3.48009 -1.63555 0 1.50591 0 0)
(3.79491 -1.78744 0 1.57455 0 0)
(3.64986 -1.71804 0 1.6217 0 0)
(4.00059 -1.87815 0 1.70015 0 0)
(3.85776 -1.81371 0 1.75064 0 0)
(4.24606 -1.98297 0 1.83698 0 0)
(4.08997 -1.91972 0 1.89155 0 0)
(4.51585 -2.09747 0 1.98349 0 0)
(4.31039 -2.01875 0 2.04157 0 0)
(4.77719 -2.20669 0 2.1374 0 0)
(4.48858 -2.08984 0 2.19451 0 0)
(4.99247 -2.28668 0 2.28907 0 0)
(4.60775 -2.11566 0 2.33905 0 0)
(5.14765 -2.32586 0 2.42476 0 0)
(4.68323 -2.10489 0 2.46118 0 0)
(5.26127 -2.33508 0 2.54093 0 0)
(4.75154 -2.09501 0 2.56769 0 0)
(5.37216 -2.34545 0 2.65681 0 0)
(4.8263 -2.118 0 2.68255 0 0)
(5.49257 -2.36726 0 2.77714 0 0)
(4.88822 -2.15529 0 2.79596 0 0)
(5.59479 -2.36855 0 2.87763 0 0)
(4.89706 -2.14852 0 2.87637 0 0)
(5.6496 -2.31426 0 2.92287 0 0)
(4.8455 -2.06807 0 2.89226 0 0)
(5.69188 -2.22549 0 2.92034 0 0)
(4.80503 -1.97186 0 2.89603 0 0)
(5.78204 -2.1715 0 2.94919 0 0)
(4.82447 -1.90438 0 2.93526 0 0)
(5.94577 -2.15089 0 3.00569 0 0)
(4.91991 -1.86182 0 2.99686 0 0)
(6.17037 -2.17743 0 3.08554 0 0)
(5.07855 -1.86 0 3.10343 0 0)
(6.40633 -2.24588 0 3.23508 0 0)
(5.26027 -1.89434 0 3.29314 0 0)
(6.59237 -2.30866 0 3.47231 0 0)
(5.39051 -1.91052 0 3.54161 0 0)
(6.7018 -2.31961 0 3.73471 0 0)
(5.4309 -1.90585 0 3.8016 0 0)
(6.78189 -2.32043 0 3.98342 0 0)
(5.457 -1.90282 0 4.03188 0 0)
(6.84187 -2.32022 0 4.18465 0 0)
(5.5215 -1.91865 0 4.19501 0 0)
(6.91044 -2.30121 0 4.3487 0 0)
(5.63008 -1.9371 0 4.37388 0 0)
(7.02364 -2.27846 0 4.54862 0 0)
(5.79827 -1.92863 0 4.56566 0 0)
(7.22052 -2.25307 0 4.74594 0 0)
(6.01379 -1.94796 0 4.79342 0 0)
(7.48718 -2.31779 0 5.00201 0 0)
(6.26839 -1.99835 0 5.06993 0 0)
(7.78479 -2.39915 0 5.29512 0 0)
(6.54105 -2.041 0 5.35198 0 0)
(8.05612 -2.48675 0 5.59999 0 0)
(6.79948 -2.06641 0 5.67585 0 0)
(8.26458 -2.52386 0 5.96614 0 0)
(6.99016 -2.0648 0 6.06369 0 0)
(8.36511 -2.53715 0 6.41996 0 0)
(7.0553 -2.03294 0 6.55426 0 0)
(8.36407 -2.53521 0 6.96105 0 0)
(6.97108 -1.96815 0 7.08396 0 0)
(8.2829 -2.48088 0 7.46299 0 0)
(6.7781 -1.87994 0 7.46515 0 0)
(8.12176 -2.39653 0 7.79124 0 0)
(6.57631 -1.73725 0 7.72671 0 0)
(7.97105 -2.25393 0 8.00429 0 0)
(6.47049 -1.58571 0 7.8969 0 0)
(7.92773 -2.12017 0 8.16753 0 0)
(6.47097 -1.45878 0 8.0506 0 0)
(7.95951 -1.99099 0 8.31654 0 0)
(6.59786 -1.33702 0 8.18217 0 0)
(8.02929 -1.84913 0 8.46119 0 0)
(6.77036 -1.24129 0 8.35035 0 0)
(8.06038 -1.75012 0 8.62267 0 0)
(6.99114 -1.20242 0 8.57242 0 0)
(8.13239 -1.67989 0 8.88089 0 0)
(7.22592 -1.18706 0 8.91437 0 0)
(8.25786 -1.63831 0 9.26929 0 0)
(7.38955 -1.19544 0 9.34721 0 0)
(8.31559 -1.60439 0 9.72597 0 0)
(7.40511 -1.16329 0 9.81442 0 0)
(8.29663 -1.55644 0 10.1678 0 0)
(7.35138 -1.0949 0 10.2456 0 0)
(8.25202 -1.51663 0 10.5297 0 0)
(7.31642 -1.07071 0 10.6035 0 0)
(8.19753 -1.52169 0 10.8435 0 0)
(7.36297 -1.17257 0 10.9495 0 0)
(8.15309 -1.60019 0 11.131 0 0)
(7.43394 -1.38905 0 11.2649 0 0)
(8.11552 -1.68537 0 11.4438 0 0)
(7.53627 -1.55962 0 11.6021 0 0)
(8.11392 -1.71376 0 11.7744 0 0)
(7.68825 -1.66174 0 11.9384 0 0)
(8.26057 -1.71893 0 12.0333 0 0)
(7.91184 -1.71471 0 12.1811 0 0)
(8.43184 -1.6869 0 12.3301 0 0)
(8.07948 -1.71836 0 12.572 0 0)
(8.52711 -1.60045 0 12.7425 0 0)
(8.14893 -1.61252 0 13.0052 0 0)
(8.51744 -1.47151 0 13.1025 0 0)
(8.12508 -1.47747 0 13.3663 0 0)
(8.37555 -1.27149 0 13.5231 0 0)
(7.92932 -1.26452 0 13.8273 0 0)
(8.18013 -1.01537 0 13.879 0 0)
(7.70899 -1.05219 0 14.083 0 0)
(7.99112 -0.80037 0 14.1098 0 0)
(7.46139 -0.82587 0 14.2523 0 0)
(7.73653 -0.599037 0 14.2541 0 0)
(7.32849 -0.521275 0 14.2979 0 0)
(7.53559 -0.414697 0 14.1653 0 0)
(7.26619 -0.307867 0 14.1975 0 0)
(7.4541 -0.245948 0 14.2308 0 0)
(7.21953 -0.163282 0 14.2722 0 0)
(7.39703 -0.158468 0 14.2602 0 0)
(7.21633 -0.0202227 0 14.3299 0 0)
(7.34707 -0.0511291 0 14.3318 0 0)
(7.18516 0.0747654 0 14.3402 0 0)
(7.18843 0.0121939 0 14.4414 0 0)
(7.09931 0.157242 0 14.4442 0 0)
(7.01826 0.0230149 0 14.4778 0 0)
(6.97444 0.16452 0 14.5387 0 0)
(6.87685 0.0372528 0 14.5084 0 0)
(6.84099 0.145721 0 14.5352 0 0)
(6.73282 -0.0622545 0 14.4335 0 0)
(6.74025 0.108049 0 14.5123 0 0)
(6.62426 -0.184844 0 14.4105 0 0)
(6.67271 0.0140577 0 14.2563 0 0)
(6.56611 -0.349751 0 14.2516 0 0)
(6.49059 -0.0896806 0 14.0618 0 0)
(6.48616 -0.621499 0 13.9286 0 0)
(6.36303 -0.192278 0 13.5779 0 0)
(6.33049 -0.853873 0 13.2737 0 0)
(6.40906 -0.318026 0 12.7959 0 0)
(6.22343 -1.02556 0 12.371 0 0)
(6.52631 -0.452093 0 12.1178 0 0)
(6.19983 -1.10639 0 11.6008 0 0)
(6.57089 -0.701139 0 11.528 0 0)
(6.23814 -1.06069 0 10.8029 0 0)
(6.54719 -0.924248 0 11.1302 0 0)
(6.20879 -0.971666 0 10.0355 0 0)
(6.43363 -1.19048 0 10.7486 0 0)
(6.0277 -0.807204 0 9.23705 0 0)
(6.25154 -1.47326 0 10.3501 0 0)
(5.82785 -0.535391 0 8.46278 0 0)
(5.981 -1.62496 0 10.1044 0 0)
(5.71868 -0.22157 0 7.83269 0 0)
(5.58018 -1.65843 0 10.05 0 0)