/*--------------------------------*- C++ -*----------------------------------*\
| =========                 |                                                 |
| \\      /  F ield         | OpenFOAM: The Open Source CFD Toolbox           |
|  \\    /   O peration     | Version:  2.4.0                                 |
|   \\  /    A nd           | Web:      www.OpenFOAM.org                      |
|    \\/     M anipulation  |                                                 |
\*---------------------------------------------------------------------------*/
FoamFile
{
    version     2.0;
    format      ascii;
    class       volScalarField;
    location    "1.06";
    object      nuSgs;
}
// * * * * * * * * * * * * * * * * * * * * * * * * * * * * * * * * * * * * * //

dimensions      [0 2 -1 0 0 0 0];

internalField   nonuniform List<scalar> 
8800
(
0.00135923
0.0014958
0.00142325
0.00119368
0.00117262
0.00100771
0.00105443
0.000922922
0.000999673
0.000872516
0.000961353
0.000840073
0.000938726
0.000813779
0.000921255
0.000791744
0.000912279
0.000770276
0.000914994
0.000760486
0.000610421
0.000944733
0.00111889
0.00106305
0.00110047
0.00101453
0.00104961
0.000962119
0.00100626
0.000922423
0.000973993
0.000892376
0.00095356
0.000869169
0.000936987
0.000850599
0.000926898
0.00083428
0.000919318
0.000861222
0.000153429
0.000371996
0.00063199
0.000653226
0.000745426
0.000736756
0.000790114
0.000756755
0.000801006
0.000765352
0.000801303
0.000760131
0.000800967
0.000754901
0.000794611
0.000748374
0.000788397
0.000741109
0.000780935
0.000754913
3.94659e-05
0.000129012
0.000278301
0.000316344
0.00039566
0.000415152
0.000478988
0.000480445
0.000516396
0.000519763
0.000542749
0.000538692
0.000563125
0.000557043
0.000572424
0.000567607
0.000579375
0.000572624
0.000579478
0.00057335
1.12539e-05
3.85178e-05
8.44973e-05
0.000123953
0.000143104
0.000182193
0.000207854
0.000235296
0.000246901
0.000282613
0.000286824
0.000303958
0.000308059
0.000328673
0.000326062
0.000341251
0.000338043
0.000352037
0.000344559
0.000353235
4.29258e-06
1.19241e-05
3.01397e-05
4.24625e-05
6.18826e-05
7.35369e-05
9.97459e-05
0.000108433
0.000124574
0.000137558
0.000154029
0.000161623
0.00017364
0.000189402
0.000197846
0.000210921
0.000214631
0.000224331
0.000225168
0.000228538
1.76784e-05
2.17917e-05
3.97965e-05
4.22967e-05
5.43912e-05
5.94689e-05
8.32978e-05
8.77121e-05
0.000102516
0.00010644
0.00012361
0.000125361
0.000136642
0.000140878
0.00015181
0.000153497
0.000160955
0.000166846
0.000169521
0.000171652
5.75769e-06
1.38691e-05
2.29706e-05
3.21872e-05
3.57896e-05
3.82162e-05
4.64499e-05
5.54704e-05
6.04897e-05
7.18442e-05
8.51167e-05
8.82662e-05
9.79148e-05
0.000113071
0.00011947
0.000129793
0.000133878
0.000142819
0.000143153
0.000145083
3.64403e-06
8.31885e-06
1.42717e-05
2.17164e-05
2.53318e-05
2.83054e-05
3.19565e-05
3.58463e-05
3.97162e-05
4.88233e-05
5.67917e-05
7.06555e-05
8.14308e-05
0.000102877
0.000111768
0.000121952
0.000123952
0.000127797
0.000126721
0.000126524
2.91322e-06
3.71095e-06
8.91254e-06
2.21623e-05
2.26354e-05
2.35504e-05
2.69504e-05
2.99943e-05
3.95192e-05
4.97489e-05
6.34534e-05
7.93554e-05
9.00636e-05
0.000105589
0.000107768
0.000108697
0.000108082
0.000108525
0.000107818
0.000107942
2.85523e-06
3.60982e-06
6.26769e-06
1.65011e-05
1.54197e-05
1.70458e-05
2.17745e-05
3.01594e-05
4.32601e-05
7.25415e-05
8.62332e-05
9.33183e-05
9.52553e-05
9.91555e-05
9.67585e-05
9.65515e-05
9.63117e-05
9.87632e-05
0.000100635
0.000105853
2.25211e-06
2.88806e-06
6.4276e-06
7.44357e-06
8.46715e-06
1.59026e-05
3.00063e-05
3.92922e-05
5.73818e-05
8.18997e-05
8.20604e-05
8.08134e-05
8.14537e-05
8.22098e-05
8.08506e-05
8.2763e-05
8.8095e-05
9.77591e-05
9.95624e-05
0.000104652
2.30022e-06
3.42489e-06
8.98093e-06
8.52881e-06
8.73609e-06
1.57929e-05
2.33974e-05
2.66547e-05
3.87061e-05
4.64721e-05
4.85175e-05
5.00644e-05
5.51699e-05
5.9623e-05
6.23656e-05
6.84192e-05
7.3739e-05
7.8654e-05
8.05833e-05
8.44425e-05
2.36833e-06
4.08157e-06
1.24384e-05
1.33399e-05
1.43779e-05
1.67575e-05
2.50037e-05
2.8324e-05
3.25631e-05
4.52555e-05
4.75434e-05
5.50615e-05
5.85812e-05
6.35215e-05
6.78104e-05
7.68769e-05
7.91064e-05
8.4604e-05
8.88945e-05
9.98329e-05
2.30453e-06
7.52346e-06
2.76861e-05
3.27245e-05
3.69818e-05
5.16567e-05
7.0108e-05
7.54047e-05
8.50724e-05
0.000113428
0.000114155
0.000126132
0.000139451
0.00014256
0.00014926
0.000167355
0.000171286
0.000180319
0.000187668
0.000208054
5.71824e-06
3.16196e-05
8.65431e-05
0.000106936
0.000124678
0.000169691
0.00019652
0.000207225
0.000229167
0.000266411
0.000265738
0.000282273
0.000302723
0.000305728
0.000314265
0.000338455
0.000342974
0.000354372
0.000363557
0.000386326
2.88181e-05
0.000121818
0.000251754
0.000294728
0.000336901
0.000406751
0.000432514
0.000445107
0.000475857
0.000501184
0.000500777
0.000516763
0.000531769
0.000531108
0.000537421
0.000552593
0.000553349
0.000559202
0.000564514
0.000576108
0.000140333
0.000397507
0.000593674
0.000637538
0.000702674
0.000740598
0.000755696
0.000754288
0.000760069
0.000757757
0.000751518
0.000748318
0.0007464
0.000734663
0.000733077
0.000730222
0.000726259
0.000720773
0.000719962
0.000717933
0.000563871
0.000978055
0.00107718
0.00107468
0.00106374
0.00102746
0.00100757
0.000967659
0.000952369
0.000919175
0.000913817
0.000884753
0.00087798
0.000864559
0.000854046
0.000837329
0.000835514
0.000820146
0.000814707
0.000801511
0.00133682
0.00150078
0.00138792
0.00122918
0.00112658
0.00103618
0.000994925
0.000947214
0.000931564
0.000891987
0.000889972
0.000856782
0.000850251
0.000833355
0.000825868
0.000802884
0.000799239
0.000778232
0.000769189
0.00073413
0.000330201
0.000283852
0.000270876
0.000241897
0.000237141
0.000220883
0.000218832
0.000207693
0.000208392
0.000202732
0.000205835
0.000201199
0.000204902
0.00019957
0.000202823
0.000195407
0.000196628
0.000186724
0.000186962
0.000176751
0.00017826
0.00016962
0.000173046
0.000166985
0.000172591
0.000169752
0.000176409
0.000175707
0.000181649
0.000181269
0.000185042
0.000183046
0.000183831
0.000179912
0.000178208
0.000169835
0.000165596
0.000152794
0.000147178
0.000133417
0.000129235
0.000119646
0.000120652
0.000126534
0.000168422
0.000180159
0.000175951
0.000129833
0.000112572
9.8482e-05
9.90603e-05
8.51189e-05
7.88257e-05
6.46001e-05
6.90422e-05
7.06914e-05
8.68351e-05
9.59532e-05
0.000105281
0.000108596
0.000109086
0.000110039
0.000108987
0.00010758
0.000100695
9.88584e-05
9.72156e-05
9.79628e-05
0.000100291
0.000104244
0.00010707
0.000104426
0.000102886
8.99154e-05
8.3317e-05
7.86371e-05
8.78949e-05
0.000101977
0.000111459
0.000109009
0.000105578
9.19357e-05
8.68363e-05
7.87829e-05
7.80654e-05
7.67628e-05
8.09213e-05
8.36099e-05
9.57701e-05
0.000100226
0.000113262
0.000113431
0.000120343
0.000118822
0.000126355
0.000123341
0.00012533
0.000125857
0.000124301
0.000124296
0.000125348
0.000127108
0.000129506
0.000131766
0.000133401
0.000133898
0.000133266
0.000132348
0.000130407
0.000124809
0.00012101
0.000118002
0.000114286
0.000110739
0.000107729
0.000104618
0.000103078
0.000101159
0.000100329
9.90512e-05
9.80119e-05
9.65347e-05
9.5526e-05
9.50925e-05
9.35575e-05
9.23605e-05
9.03824e-05
8.71704e-05
8.31756e-05
7.60961e-05
6.82743e-05
5.66539e-05
4.77962e-05
4.19507e-05
3.99107e-05
4.05837e-05
4.20572e-05
4.49752e-05
4.95458e-05
5.10695e-05
5.27827e-05
5.27993e-05
5.24314e-05
5.30565e-05
5.6112e-05
6.61344e-05
0.000103547
0.000136315
0.000145859
0.000145596
0.000133567
0.000106526
8.40656e-05
6.97616e-05
6.24041e-05
5.97095e-05
5.84342e-05
5.84286e-05
5.84288e-05
5.75948e-05
5.57051e-05
5.48392e-05
5.44513e-05
5.35293e-05
5.29086e-05
5.318e-05
5.59023e-05
5.63988e-05
5.55717e-05
5.52056e-05
5.48953e-05
5.4158e-05
5.3236e-05
5.35729e-05
5.46466e-05
5.81725e-05
5.93234e-05
6.25628e-05
6.23754e-05
5.89654e-05
5.54489e-05
5.61705e-05
6.13681e-05
7.3389e-05
0.000100339
0.000121845
0.000132593
0.000135739
0.000135337
0.000130629
0.000122595
0.000119673
0.000119245
0.000118241
0.000114902
0.000107102
0.000106049
0.000111105
0.000160839
0.000317471
0.000415686
0.000370569
0.00035127
0.000319325
0.000309454
0.000288019
0.00028243
0.000268475
0.000265221
0.00025517
0.0002533
0.00024555
0.000244842
0.000238869
0.000238901
0.000234083
0.000234724
0.000229809
0.000230303
0.000224614
0.000224525
0.000218201
0.00021751
0.000210926
0.000210184
0.000205057
0.000204627
0.000200925
0.000200431
0.000197191
0.000195592
0.000189754
0.000186357
0.000177199
0.000171697
0.00015831
0.000151838
0.000136747
0.00013008
0.000117746
0.000114375
0.000101626
9.84976e-05
9.68753e-05
0.000101929
0.000123724
0.000173542
0.000172501
0.000157559
0.000118811
0.000114296
0.000104636
0.000105864
9.68509e-05
9.62923e-05
9.54144e-05
9.79086e-05
0.000107003
0.000109959
0.00011378
0.000113575
0.000114662
0.000112335
0.000109499
0.000100791
9.89172e-05
9.69394e-05
9.89399e-05
9.96351e-05
0.000102473
0.00010305
0.000100248
9.57557e-05
8.80527e-05
7.9797e-05
7.23345e-05
7.18986e-05
7.81237e-05
9.98741e-05
0.000105466
0.000106239
0.000102948
9.53301e-05
8.48406e-05
7.79525e-05
7.38266e-05
7.24257e-05
7.34346e-05
7.55676e-05
8.29516e-05
8.82105e-05
0.000100465
0.000104598
0.000116313
0.000118369
0.000129522
0.00012765
0.000135771
0.000134226
0.00013773
0.000137768
0.000139752
0.000140974
0.000143784
0.000144954
0.000145438
0.000144948
0.000143594
0.000141404
0.000138204
0.0001337
0.000129006
0.000124378
0.000120249
0.000116338
0.000112347
0.000110312
0.000106102
0.000103909
0.000100878
9.8245e-05
9.60919e-05
9.24557e-05
9.02021e-05
8.49202e-05
8.07154e-05
7.35881e-05
6.69846e-05
5.85599e-05
5.11612e-05
4.51021e-05
4.02301e-05
3.71215e-05
3.62937e-05
3.66128e-05
3.83858e-05
4.02284e-05
4.21026e-05
4.71834e-05
4.8721e-05
4.8994e-05
4.99934e-05
5.13249e-05
5.3208e-05
5.71878e-05
6.47719e-05
9.34889e-05
0.000130727
0.0001432
0.000143057
0.000130835
0.000105476
8.39211e-05
7.03402e-05
6.24968e-05
6.00264e-05
5.89016e-05
5.77594e-05
5.78293e-05
5.72724e-05
5.6172e-05
5.49652e-05
5.48307e-05
5.47635e-05
5.39829e-05
5.42009e-05
5.57443e-05
5.635e-05
5.56715e-05
5.48607e-05
5.40641e-05
5.34318e-05
5.31566e-05
5.33521e-05
5.60921e-05
5.95656e-05
6.03017e-05
6.21843e-05
6.15293e-05
5.82173e-05
5.57607e-05
5.75199e-05
6.49826e-05
8.32555e-05
0.000113772
0.000132859
0.000143114
0.000143808
0.000138881
0.000129452
0.000116926
0.000110849
0.000110396
0.000113051
0.000113438
0.000111303
0.000112384
0.000112295
0.000148361
0.000235418
0.000385997
0.000357646
0.000343844
0.00032072
0.000310783
0.000292314
0.000285713
0.000271811
0.00026711
0.000256725
0.000253444
0.000245706
0.000243516
0.000237609
0.000236115
0.000231381
0.000230418
0.00022661
0.000225932
0.00022266
0.000222062
0.000219243
0.000218416
0.00021552
0.000214183
0.00021079
0.000208879
0.000204836
0.000201843
0.000195741
0.000189391
0.00018046
0.000170016
0.000156581
0.000142315
0.000127465
0.00011447
0.00010046
9.18171e-05
8.398e-05
8.2172e-05
8.0344e-05
8.13609e-05
7.99044e-05
8.04733e-05
8.32878e-05
0.000104681
0.000145311
0.000163297
0.000153896
0.000135167
0.000117542
0.000112186
0.000111602
0.000110681
0.000114046
0.000114046
0.000117608
0.000117539
0.000119032
0.00011829
0.000117882
0.000110501
0.000102409
9.62457e-05
9.61896e-05
9.60206e-05
9.9091e-05
9.97514e-05
0.000100627
9.74752e-05
9.58453e-05
8.77089e-05
8.62718e-05
8.04682e-05
7.37103e-05
7.12397e-05
7.16143e-05
7.48558e-05
9.41706e-05
0.000101104
0.000102265
9.9113e-05
9.48046e-05
8.3118e-05
7.87926e-05
7.43845e-05
7.58918e-05
7.58435e-05
8.10513e-05
8.32873e-05
9.44064e-05
9.82943e-05
0.000112626
0.00011527
0.000127576
0.000128632
0.000136096
0.000136488
0.000138737
0.000138124
0.000138043
0.000136324
0.000134966
0.000133763
0.000133625
0.000133249
0.000131949
0.000126429
0.000123392
0.000118994
0.00011539
0.000112171
0.000108866
0.000105726
0.000101567
9.8667e-05
9.34863e-05
8.94951e-05
8.4692e-05
7.97958e-05
7.51614e-05
6.95053e-05
6.43611e-05
5.95612e-05
5.50628e-05
5.11555e-05
4.74646e-05
4.38873e-05
4.07526e-05
3.78741e-05
3.57126e-05
3.47668e-05
3.49506e-05
3.54431e-05
3.6658e-05
3.88639e-05
4.08567e-05
4.63596e-05
4.92715e-05
4.98667e-05
5.06381e-05
5.3411e-05
5.66947e-05
6.15229e-05
6.69175e-05
8.60977e-05
0.00012261
0.000138516
0.000140036
0.000130518
0.000106209
8.45173e-05
7.1624e-05
6.33995e-05
5.99902e-05
5.95679e-05
5.79942e-05
5.77866e-05
5.75014e-05
5.6335e-05
5.52809e-05
5.527e-05
5.62792e-05
5.59408e-05
5.53591e-05
5.53967e-05
5.58159e-05
5.50406e-05
5.42392e-05
5.33204e-05
5.33555e-05
5.32095e-05
5.42095e-05
5.88658e-05
6.10706e-05
6.08698e-05
6.14212e-05
6.03058e-05
5.77952e-05
5.63426e-05
5.8962e-05
6.83222e-05
9.0661e-05
0.000123911
0.000140628
0.000150589
0.000149202
0.000138036
0.000126582
0.000115073
0.000103733
0.000101726
0.000102291
0.000108639
0.000109686
0.000120661
0.000116019
0.000132896
0.000181353
0.00030292
0.000292035
0.000280466
0.000271921
0.000261393
0.000253477
0.000243752
0.000236631
0.000227726
0.00022153
0.000213638
0.000209049
0.000203225
0.000200538
0.000196368
0.000194964
0.000192114
0.000191503
0.000189596
0.000189396
0.000187663
0.000187527
0.00018567
0.000185191
0.000182391
0.000180944
0.000176057
0.000172864
0.000164328
0.000158171
0.000146283
0.000134729
0.000120598
0.000108592
9.85025e-05
9.00768e-05
8.29863e-05
7.68878e-05
7.21203e-05
6.9578e-05
6.92092e-05
7.02033e-05
7.13901e-05
7.06553e-05
6.79409e-05
6.73959e-05
7.01837e-05
8.39028e-05
0.00012727
0.000149951
0.000150213
0.000144353
0.000124868
0.000120511
0.000116188
0.000117755
0.000116958
0.000118244
0.000117615
0.000117401
0.000116183
0.000111221
0.000101323
9.6845e-05
9.4902e-05
9.65356e-05
9.86464e-05
0.000100079
9.88053e-05
9.81581e-05
9.08109e-05
8.7931e-05
7.98472e-05
7.98032e-05
7.80234e-05
7.89217e-05
7.30469e-05
7.16302e-05
7.17188e-05
7.72456e-05
8.77293e-05
0.000100121
0.000100502
0.000100044
9.25438e-05
8.51393e-05
7.80449e-05
7.8431e-05
7.81091e-05
8.19942e-05
8.37388e-05
9.21622e-05
9.58267e-05
0.000107641
0.000111395
0.00012188
0.000125521
0.000132005
0.000132567
0.000132732
0.000129365
0.000126256
0.000124534
0.000124423
0.000124174
0.000123999
0.000123323
0.000120361
0.000111987
0.000104792
9.67102e-05
8.90896e-05
8.20354e-05
7.55078e-05
6.9636e-05
6.50229e-05
6.1562e-05
5.87601e-05
5.68705e-05
5.5425e-05
5.42073e-05
5.28933e-05
5.16047e-05
5.02113e-05
4.8791e-05
4.71035e-05
4.51622e-05
4.33176e-05
4.09372e-05
3.90275e-05
3.66816e-05
3.52947e-05
3.45284e-05
3.47685e-05
3.55112e-05
3.62717e-05
3.84004e-05
4.13164e-05
4.78114e-05
5.3189e-05
5.38122e-05
5.40728e-05
5.51772e-05
5.65848e-05
6.03989e-05
6.59836e-05
7.7246e-05
0.000113939
0.000133329
0.000136609
0.000130356
0.000107574
8.70294e-05
7.2584e-05
6.5988e-05
6.0903e-05
6.00271e-05
5.85983e-05
5.74139e-05
5.76125e-05
5.71488e-05
5.62504e-05
5.59214e-05
5.65752e-05
5.66391e-05
5.60487e-05
5.5364e-05
5.54515e-05
5.46609e-05
5.39859e-05
5.33186e-05
5.35571e-05
5.39782e-05
5.78427e-05
6.13357e-05
6.24641e-05
6.10427e-05
6.05173e-05
5.93604e-05
5.77964e-05
5.76838e-05
6.09535e-05
7.27658e-05
9.52519e-05
0.000130849
0.000147001
0.000154825
0.000151478
0.000138652
0.000120232
0.000115658
0.00010035
9.62835e-05
9.41043e-05
0.000104862
0.000106571
0.000132909
0.000123907
0.000126376
0.000148876
0.00018942
0.000186609
0.000180331
0.000177939
0.000172263
0.00016982
0.000163883
0.000161324
0.000155106
0.00015244
0.000146074
0.000143652
0.000138073
0.000136283
0.000132093
0.000131191
0.000128768
0.000128929
0.000128025
0.000128801
0.000127979
0.000128665
0.000127459
0.000127424
0.000124896
0.00012355
0.000119319
0.000116162
0.000110182
0.000104024
9.82575e-05
9.1219e-05
8.66908e-05
8.08935e-05
7.80105e-05
7.30528e-05
6.98158e-05
6.5203e-05
6.3951e-05
6.31167e-05
6.31698e-05
6.45602e-05
6.69477e-05
6.73936e-05
6.44193e-05
6.17598e-05
6.11822e-05
6.35554e-05
7.29816e-05
0.000109795
0.000132195
0.000143193
0.000139737
0.000137301
0.00012651
0.000122675
0.000119697
0.00011788
0.000115724
0.000113542
0.00010799
0.000101089
9.75026e-05
9.73329e-05
9.93924e-05
0.000101263
0.000100916
9.9875e-05
9.50753e-05
8.94294e-05
7.77114e-05
7.43402e-05
7.06225e-05
7.24037e-05
7.09142e-05
7.3325e-05
7.24166e-05
7.28529e-05
7.11641e-05
7.2249e-05
7.4794e-05
8.93655e-05
9.61222e-05
0.000101357
0.000100672
9.83861e-05
8.86392e-05
8.41686e-05
8.1381e-05
8.2372e-05
8.33626e-05
8.69931e-05
8.96923e-05
9.70678e-05
0.000101994
0.000108171
0.000113293
0.000115908
0.000115938
0.000114885
0.000113924
0.000114608
0.000114898
0.000114811
0.000114517
0.000113365
0.000109591
0.00010398
9.77319e-05
9.14904e-05
8.39347e-05
7.6231e-05
6.90991e-05
6.3094e-05
5.83419e-05
5.49156e-05
5.27619e-05
5.15596e-05
5.09918e-05
5.08298e-05
5.06347e-05
5.01794e-05
4.93526e-05
4.85183e-05
4.73771e-05
4.61847e-05
4.45069e-05
4.31044e-05
4.08545e-05
3.92911e-05
3.71647e-05
3.58132e-05
3.56242e-05
3.56509e-05
3.65751e-05
3.78652e-05
4.07637e-05
4.40439e-05
4.64662e-05
5.30086e-05
5.71704e-05
5.84277e-05
5.84055e-05
5.75522e-05
5.79982e-05
6.19807e-05
7.04185e-05
9.98587e-05
0.000127426
0.000132421
0.000130169
0.000111304
9.09544e-05
7.48833e-05
6.69169e-05
6.35427e-05
6.07051e-05
5.93986e-05
5.76483e-05
5.76779e-05
5.76795e-05
5.66087e-05
5.61167e-05
5.62348e-05
5.66351e-05
5.60921e-05
5.54402e-05
5.50029e-05
5.43005e-05
5.38935e-05
5.39763e-05
5.44864e-05
5.6612e-05
6.16528e-05
6.31306e-05
6.31137e-05
6.0094e-05
5.92823e-05
5.87502e-05
5.88854e-05
5.99487e-05
6.54377e-05
8.16781e-05
0.000105756
0.000140304
0.000155527
0.000159873
0.000152795
0.000138859
0.000118264
0.000119771
0.000109396
0.000121422
0.000106284
0.000118204
0.000110302
0.000127068
0.000127841
0.000126555
0.000136022
0.000123472
0.000121887
0.000118552
0.000117173
0.000114246
0.000113053
0.000110403
0.000109287
0.000106788
0.000105654
0.000103107
0.000101896
9.90417e-05
9.7688e-05
9.5083e-05
9.41552e-05
9.22487e-05
9.18282e-05
9.08935e-05
9.09927e-05
9.07907e-05
9.10856e-05
9.10174e-05
9.07474e-05
8.98357e-05
8.78357e-05
8.64652e-05
8.34825e-05
8.18933e-05
7.83544e-05
7.67881e-05
7.33423e-05
7.19971e-05
6.93064e-05
6.7526e-05
6.38199e-05
6.05654e-05
5.85072e-05
5.75207e-05
5.78287e-05
5.8373e-05
6.12019e-05
6.1682e-05
6.27724e-05
6.16804e-05
6.13198e-05
5.93827e-05
5.98877e-05
6.15424e-05
6.9807e-05
8.46079e-05
0.000121091
0.000130828
0.000133936
0.000131911
0.000129778
0.000124901
0.00012083
0.000116927
0.00011269
0.000107521
0.000105245
0.00010489
0.00010464
0.000104024
0.000102929
0.000100454
9.35017e-05
8.26286e-05
7.3864e-05
6.68679e-05
6.52267e-05
6.3311e-05
6.45958e-05
6.42718e-05
6.5408e-05
6.53034e-05
6.6954e-05
6.66388e-05
6.70249e-05
6.82791e-05
7.26843e-05
8.4123e-05
9.51249e-05
9.84116e-05
9.95432e-05
9.91003e-05
9.75177e-05
9.3644e-05
8.96089e-05
8.76903e-05
8.80082e-05
8.89208e-05
9.09427e-05
9.42025e-05
9.63678e-05
9.87321e-05
0.000100096
0.000101927
0.000104059
0.000107605
0.000108962
0.000109147
0.000108912
0.000107712
0.000101121
9.0513e-05
8.11956e-05
7.49598e-05
7.04878e-05
6.66586e-05
6.26009e-05
5.84073e-05
5.50318e-05
5.26644e-05
5.13645e-05
5.0806e-05
5.05853e-05
5.05081e-05
5.04434e-05
5.03807e-05
5.00916e-05
4.91349e-05
4.83541e-05
4.71448e-05
4.6181e-05
4.46323e-05
4.32087e-05
4.14731e-05
3.94014e-05
3.77594e-05
3.69008e-05
3.70318e-05
3.74282e-05
3.86216e-05
4.07002e-05
4.21981e-05
4.59765e-05
5.13601e-05
5.40247e-05
5.72283e-05
5.85519e-05
6.07579e-05
6.03092e-05
5.97528e-05
6.11794e-05
6.58006e-05
8.26253e-05
0.000115974
0.000127036
0.000127733
0.000116248
9.63891e-05
8.04326e-05
6.88568e-05
6.53768e-05
6.29801e-05
6.08009e-05
5.83876e-05
5.77369e-05
5.80015e-05
5.73026e-05
5.67104e-05
5.65351e-05
5.67315e-05
5.62673e-05
5.5761e-05
5.55454e-05
5.55294e-05
5.56127e-05
5.60612e-05
5.75286e-05
6.22242e-05
6.39895e-05
6.39887e-05
6.22606e-05
5.84409e-05
5.82755e-05
5.88783e-05
6.04264e-05
6.36221e-05
7.30933e-05
9.62912e-05
0.000113285
0.000148569
0.000159927
0.000163567
0.000154369
0.000136815
0.000122422
0.000126641
0.00012129
0.000154018
0.000138759
0.00017784
0.000142087
0.000130121
0.00013011
0.00012662
0.000130796
9.315e-05
9.21583e-05
9.008e-05
8.91622e-05
8.74318e-05
8.66927e-05
8.54623e-05
8.48361e-05
8.40436e-05
8.3605e-05
8.26679e-05
8.18517e-05
8.03596e-05
7.91655e-05
7.73903e-05
7.62939e-05
7.47698e-05
7.41404e-05
7.33802e-05
7.32829e-05
7.32133e-05
7.32962e-05
7.33226e-05
7.31585e-05
7.28364e-05
7.17706e-05
7.1055e-05
6.93446e-05
6.84171e-05
6.66029e-05
6.56332e-05
6.4372e-05
6.26774e-05
6.04976e-05
5.77469e-05
5.59552e-05
5.43045e-05
5.40806e-05
5.37843e-05
5.41455e-05
5.4025e-05
5.51095e-05
5.51735e-05
5.63773e-05
5.61069e-05
5.70079e-05
5.66375e-05
5.74823e-05
5.76594e-05
5.93737e-05
6.38057e-05
7.49567e-05
9.62844e-05
0.000116434
0.000123561
0.000124838
0.000123774
0.00012175
0.000119053
0.000115229
0.000112436
0.000111059
0.000109284
0.000106571
0.000103745
9.89028e-05
8.70976e-05
7.55719e-05
6.68889e-05
6.18364e-05
5.9463e-05
5.9398e-05
5.97727e-05
6.08984e-05
6.1217e-05
6.16453e-05
6.13015e-05
6.12588e-05
6.13071e-05
6.1751e-05
6.23371e-05
6.40895e-05
6.78973e-05
7.74045e-05
8.82283e-05
9.39024e-05
9.63491e-05
9.64214e-05
9.6017e-05
9.41008e-05
9.29776e-05
9.18133e-05
9.18e-05
9.20992e-05
9.37167e-05
9.4961e-05
9.64823e-05
9.84603e-05
0.000101964
0.000105177
0.000106744
0.000106787
0.000106083
0.000104259
9.59912e-05
8.1961e-05
7.07941e-05
6.35016e-05
5.92412e-05
5.67681e-05
5.48815e-05
5.31017e-05
5.14413e-05
5.02062e-05
4.98452e-05
4.9851e-05
5.01676e-05
5.05019e-05
5.05033e-05
5.02433e-05
4.97685e-05
4.89169e-05
4.80499e-05
4.72745e-05
4.66452e-05
4.57436e-05
4.46497e-05
4.34734e-05
4.16267e-05
4.0282e-05
4.0171e-05
4.05642e-05
4.18717e-05
4.33628e-05
4.6266e-05
4.8966e-05
5.20132e-05
5.40037e-05
5.49954e-05
5.52018e-05
5.58973e-05
5.78418e-05
6.22617e-05
6.30171e-05
6.17092e-05
6.17951e-05
6.3852e-05
7.08432e-05
9.80293e-05
0.000120908
0.000123986
0.000119504
0.000102154
8.51599e-05
7.26822e-05
6.62623e-05
6.45708e-05
6.3514e-05
6.05498e-05
5.92361e-05
5.92981e-05
5.90692e-05
5.79646e-05
5.72779e-05
5.70257e-05
5.61944e-05
5.59384e-05
5.59201e-05
5.59389e-05
5.63926e-05
5.75914e-05
6.25951e-05
6.52866e-05
6.51654e-05
6.41276e-05
5.93986e-05
5.79394e-05
5.81834e-05
6.28521e-05
6.64523e-05
7.23647e-05
8.75932e-05
0.000103864
0.000115947
0.000151717
0.000161222
0.000164943
0.000154585
0.000138655
0.000131802
0.000128352
0.000124585
0.00013304
0.000142271
0.00017579
0.000176739
0.000167797
0.000146353
0.000130689
0.000131635
7.88351e-05
7.81692e-05
7.66474e-05
7.60514e-05
7.47221e-05
7.43022e-05
7.34107e-05
7.31644e-05
7.26713e-05
7.24971e-05
7.202e-05
7.1682e-05
7.07459e-05
7.01194e-05
6.83565e-05
6.72545e-05
6.55051e-05
6.48788e-05
6.4032e-05
6.38975e-05
6.37424e-05
6.37975e-05
6.37971e-05
6.37403e-05
6.34026e-05
6.23951e-05
6.14735e-05
6.02375e-05
5.95413e-05
5.87302e-05
5.80138e-05
5.68903e-05
5.57023e-05
5.44309e-05
5.3263e-05
5.25556e-05
5.24596e-05
5.26389e-05
5.27626e-05
5.28735e-05
5.25115e-05
5.23357e-05
5.18622e-05
5.20069e-05
5.17691e-05
5.20307e-05
5.19287e-05
5.22805e-05
5.24801e-05
5.31694e-05
5.45438e-05
5.78238e-05
6.41135e-05
7.89058e-05
9.30959e-05
0.000103338
0.000110823
0.000112758
0.000112394
0.000111266
0.000108922
0.00010617
0.00010337
9.75303e-05
8.7098e-05
7.62306e-05
6.7381e-05
6.09558e-05
5.76907e-05
5.66129e-05
5.67641e-05
5.72681e-05
5.87167e-05
5.98827e-05
6.02364e-05
6.03504e-05
6.18692e-05
6.27133e-05
6.27331e-05
6.24015e-05
6.23343e-05
6.24062e-05
6.28999e-05
6.47226e-05
6.91773e-05
7.75676e-05
8.49662e-05
8.99303e-05
9.14765e-05
9.1417e-05
9.09483e-05
9.05537e-05
9.05351e-05
9.07967e-05
9.17937e-05
9.26605e-05
9.4221e-05
9.73251e-05
0.000100344
0.000101536
0.000101425
0.00010025
9.77498e-05
8.7577e-05
7.50889e-05
6.55911e-05
5.90914e-05
5.48896e-05
5.24e-05
5.07653e-05
4.96483e-05
4.89068e-05
4.86784e-05
4.86829e-05
4.89274e-05
4.95773e-05
4.98741e-05
4.98904e-05
4.95058e-05
4.85456e-05
4.7895e-05
4.73477e-05
4.71261e-05
4.70625e-05
4.69455e-05
4.69038e-05
4.65435e-05
4.564e-05
4.57716e-05
4.65849e-05
4.85679e-05
5.29859e-05
5.73589e-05
6.22907e-05
6.70237e-05
6.87886e-05
6.86878e-05
6.76678e-05
6.55171e-05
6.09847e-05
5.88969e-05
5.92398e-05
6.21728e-05
6.27799e-05
6.17193e-05
6.08153e-05
6.10378e-05
6.47925e-05
8.03906e-05
0.000111486
0.000119783
0.000118298
0.000111954
9.29552e-05
7.84072e-05
6.88398e-05
6.57931e-05
6.48299e-05
6.21696e-05
6.08088e-05
6.01882e-05
5.99579e-05
5.93715e-05
5.81287e-05
5.78537e-05
5.75492e-05
5.74585e-05
5.75098e-05
5.80071e-05
5.94949e-05
6.46236e-05
6.71143e-05
6.67409e-05
6.48477e-05
5.99078e-05
5.7818e-05
5.82926e-05
6.17839e-05
7.58061e-05
8.16674e-05
9.06295e-05
0.000104248
0.000114583
0.000124756
0.000162092
0.000166941
0.000168461
0.000156499
0.000146802
0.000128631
0.00013737
0.000129061
0.000140872
0.000142493
0.000156177
0.000184929
0.000197259
0.000190974
0.000159365
0.000140293
6.85039e-05
6.79092e-05
6.65878e-05
6.60002e-05
6.47672e-05
6.43515e-05
6.36818e-05
6.353e-05
6.33121e-05
6.3277e-05
6.31195e-05
6.29693e-05
6.24153e-05
6.15802e-05
6.02148e-05
5.93053e-05
5.8277e-05
5.762e-05
5.69956e-05
5.67549e-05
5.66582e-05
5.6694e-05
5.67167e-05
5.65124e-05
5.59505e-05
5.51403e-05
5.46948e-05
5.42209e-05
5.39601e-05
5.34892e-05
5.32119e-05
5.2851e-05
5.24129e-05
5.19815e-05
5.1869e-05
5.19166e-05
5.21743e-05
5.2869e-05
5.3479e-05
5.36182e-05
5.33508e-05
5.20295e-05
5.08948e-05
5.05573e-05
5.05524e-05
5.13406e-05
5.20461e-05
5.25854e-05
5.26675e-05
5.27419e-05
5.28482e-05
5.32173e-05
5.44468e-05
5.7571e-05
6.52787e-05
7.2849e-05
8.02673e-05
8.64417e-05
8.85742e-05
8.84142e-05
8.70919e-05
8.40699e-05
7.75217e-05
7.06983e-05
6.51444e-05
6.06525e-05
5.73065e-05
5.52627e-05
5.47704e-05
5.49414e-05
5.5969e-05
5.71059e-05
5.83411e-05
6.11393e-05
6.36637e-05
6.40966e-05
6.39378e-05
6.44857e-05
6.76602e-05
6.80985e-05
6.76067e-05
6.55975e-05
6.39634e-05
6.35218e-05
6.375e-05
6.50552e-05
6.85326e-05
7.43506e-05
7.86475e-05
8.19682e-05
8.39032e-05
8.47498e-05
8.49731e-05
8.53842e-05
8.56325e-05
8.69232e-05
8.9152e-05
9.02649e-05
9.0335e-05
8.97554e-05
8.81632e-05
8.42304e-05
7.57754e-05
6.72472e-05
6.09679e-05
5.68787e-05
5.41175e-05
5.20391e-05
5.0328e-05
4.90927e-05
4.84202e-05
4.81956e-05
4.82075e-05
4.88095e-05
4.96706e-05
5.01247e-05
5.02479e-05
5.01168e-05
4.94646e-05
4.87139e-05
4.86992e-05
4.8881e-05
4.93792e-05
5.01166e-05
5.09255e-05
5.11706e-05
5.16298e-05
5.29736e-05
5.60644e-05
6.15446e-05
7.07589e-05
8.02762e-05
8.70696e-05
9.4502e-05
9.63262e-05
9.56296e-05
9.36736e-05
8.93978e-05
8.30322e-05
7.54984e-05
6.74942e-05
6.35243e-05
6.32404e-05
6.23219e-05
6.10038e-05
5.84667e-05
5.81543e-05
6.0311e-05
6.6781e-05
8.99124e-05
0.000110652
0.000115242
0.000113249
0.000106793
8.9192e-05
7.57336e-05
6.89104e-05
6.68752e-05
6.4617e-05
6.24595e-05
6.1493e-05
6.13294e-05
6.10136e-05
5.97375e-05
5.97817e-05
5.97163e-05
5.98986e-05
6.05737e-05
6.30099e-05
6.81093e-05
6.9586e-05
6.90147e-05
6.64555e-05
6.02204e-05
5.77753e-05
5.80674e-05
6.24355e-05
7.82467e-05
9.35769e-05
0.000102643
0.000107781
0.000119886
0.000131288
0.000152305
0.000166812
0.000169799
0.000169871
0.000160923
0.000153007
0.000131485
0.000139727
0.000133022
0.000150749
0.000149172
0.000157358
0.000181476
0.000201693
0.000225269
0.000217596
0.000176041
5.88894e-05
5.86037e-05
5.83508e-05
5.80691e-05
5.77943e-05
5.75815e-05
5.73246e-05
5.71693e-05
5.69242e-05
5.67595e-05
5.6481e-05
5.62581e-05
5.59877e-05
5.58684e-05
5.57903e-05
5.58016e-05
5.58114e-05
5.57914e-05
5.54422e-05
5.47553e-05
5.39593e-05
5.3285e-05
5.27691e-05
5.252e-05
5.24505e-05
5.24853e-05
5.26786e-05
5.29856e-05
5.3155e-05
5.32324e-05
5.31702e-05
5.29838e-05
5.28381e-05
5.28037e-05
5.28692e-05
5.35252e-05
5.46887e-05
5.59709e-05
5.72007e-05
5.80115e-05
5.82552e-05
5.81463e-05
5.74232e-05
5.6061e-05
5.52018e-05
5.49647e-05
5.60326e-05
5.77161e-05
5.80729e-05
5.76894e-05
5.55786e-05
5.36784e-05
5.30231e-05
5.31187e-05
5.3946e-05
5.60086e-05
5.96363e-05
6.34798e-05
6.49383e-05
6.48825e-05
6.43169e-05
6.26725e-05
6.04269e-05
5.85597e-05
5.71311e-05
5.57613e-05
5.45611e-05
5.43263e-05
5.44483e-05
5.48861e-05
5.60106e-05
5.78802e-05
5.8963e-05
5.97407e-05
6.28696e-05
6.59732e-05
6.64941e-05
6.6703e-05
6.71795e-05
7.09455e-05
7.46127e-05
7.48052e-05
7.22454e-05
6.75545e-05
6.44229e-05
6.26391e-05
6.25131e-05
6.30362e-05
6.47817e-05
6.69779e-05
6.8306e-05
6.87581e-05
6.86382e-05
6.84945e-05
6.93105e-05
7.05874e-05
7.07991e-05
7.05846e-05
6.93448e-05
6.81951e-05
6.73273e-05
6.53622e-05
6.16631e-05
5.78912e-05
5.53287e-05
5.37901e-05
5.27222e-05
5.15572e-05
5.03847e-05
4.96383e-05
4.94996e-05
5.03019e-05
5.13854e-05
5.19376e-05
5.2164e-05
5.23028e-05
5.21023e-05
5.21823e-05
5.24947e-05
5.31003e-05
5.41041e-05
5.49952e-05
5.5797e-05
5.62558e-05
5.68446e-05
5.83971e-05
6.23603e-05
7.0163e-05
8.22083e-05
9.74478e-05
0.00011114
0.000122589
0.000130911
0.00013436
0.000133476
0.000129531
0.000124872
0.000113966
0.000104363
9.58273e-05
8.28383e-05
7.30844e-05
6.61125e-05
6.28703e-05
6.08379e-05
5.70146e-05
5.62028e-05
5.68476e-05
5.89265e-05
6.72417e-05
9.28924e-05
0.000108193
0.000110288
0.000108516
0.000102861
9.10086e-05
7.8274e-05
7.23808e-05
6.9812e-05
6.57096e-05
6.42438e-05
6.39493e-05
6.30708e-05
6.26757e-05
6.2777e-05
6.32541e-05
6.43406e-05
6.9093e-05
7.21164e-05
7.23238e-05
7.14939e-05
6.78601e-05
6.01765e-05
5.76671e-05
5.83876e-05
6.41146e-05
8.32023e-05
0.00010844
0.000115654
0.000117161
0.000118758
0.00013155
0.00013713
0.000154726
0.000165507
0.000170001
0.000169245
0.000156779
0.000158201
0.00014172
0.000161948
0.000150018
0.000178994
0.000176793
0.000178922
0.000182564
0.000187811
0.000224953
0.000241357
0.000234599
5.81388e-05
5.82501e-05
5.82886e-05
5.83655e-05
5.8395e-05
5.84761e-05
5.84665e-05
5.84619e-05
5.8374e-05
5.83477e-05
5.83188e-05
5.83287e-05
5.83095e-05
5.82811e-05
5.82511e-05
5.82566e-05
5.83915e-05
5.86775e-05
5.8826e-05
5.88069e-05
5.84452e-05
5.79821e-05
5.77527e-05
5.76633e-05
5.76487e-05
5.76345e-05
5.7632e-05
5.7616e-05
5.75661e-05
5.74959e-05
5.72915e-05
5.65972e-05
5.56183e-05
5.48862e-05
5.45693e-05
5.45696e-05
5.48118e-05
5.60942e-05
5.75661e-05
5.9954e-05
6.23268e-05
6.43399e-05
6.50234e-05
6.50464e-05
6.41634e-05
6.23084e-05
6.11707e-05
6.10383e-05
6.22925e-05
6.33733e-05
6.32925e-05
6.24792e-05