/*--------------------------------*- C++ -*----------------------------------*\
| =========                 |                                                 |
| \\      /  F ield         | OpenFOAM: The Open Source CFD Toolbox           |
|  \\    /   O peration     | Version:  2.4.0                                 |
|   \\  /    A nd           | Web:      www.OpenFOAM.org                      |
|    \\/     M anipulation  |                                                 |
\*---------------------------------------------------------------------------*/
FoamFile
{
    version     2.0;
    format      ascii;
    class       volScalarField;
    location    "1.06";
    object      pMean;
}
// * * * * * * * * * * * * * * * * * * * * * * * * * * * * * * * * * * * * * //

dimensions      [0 2 -2 0 0 0 0];

internalField   nonuniform List<scalar> 
8800
(
87.9471
75.485
68.0635
64.4827
62.5785
61.1233
59.8985
58.7249
57.6782
56.6193
55.6531
54.6373
53.7176
52.7437
51.8892
50.9847
50.2175
49.4135
48.7383
47.9777
84.8378
75.1308
68.2318
64.5965
62.6382
61.1487
59.9059
58.7252
57.676
56.6169
55.6502
54.6353
53.7149
52.742
51.8868
50.9825
50.2181
49.4095
48.7413
47.939
82.8739
75.2069
68.8321
64.972
62.8054
61.2281
59.9525
58.7578
57.7001
56.634
55.6603
54.6402
53.7161
52.7402
51.8845
50.9743
50.2178
49.3963
48.8059
47.9903
81.3396
75.2688
69.4166
65.3956
62.9886
61.3165
60.0146
58.8147
57.748
56.6733
55.6871
54.6587
53.7261
52.7453
51.884
50.9675
50.2076
49.3843
48.8709
48.227
80.0924
75.2425
69.8904
65.8017
63.1568
61.3852
60.0627
58.8735
57.8028
56.7262
55.7213
54.6882
53.7374
52.7581
51.8789
50.9683
50.181
49.3747
48.7972
48.5549
79.1093
75.1461
70.254
66.1487
63.3068
61.4302
60.0895
58.92
57.8511
56.7773
55.7549
54.7179
53.747
52.7698
51.871
50.9672
50.1544
49.3706
48.811
49.0235
78.3533
75.0312
70.5203
66.4287
63.4416
61.4579
60.0971
58.953
57.8892
56.8192
55.783
54.7419
53.7542
52.7765
51.863
50.9625
50.1379
49.3798
48.8936
49.3406
77.8015
74.9298
70.7032
66.64
63.5609
61.4759
60.0925
58.9751
57.9175
56.8518
55.8042
54.7605
53.7583
52.7815
51.8558
50.963
50.1311
49.406
48.9669
49.5755
77.4417
74.8577
70.819
66.7837
63.6452
61.4878
60.0857
58.9892
57.9372
56.8761
55.8192
54.7748
53.7615
52.7873
51.8531
50.9696
50.1353
49.4378
49.0357
49.7553
77.2616
74.8233
70.8768
66.8585
63.6885
61.4955
60.0811
58.9979
57.9482
56.8914
55.828
54.7848
53.7649
52.795
51.8564
50.9816
50.1477
49.4702
49.0931
49.874
77.2549
74.8315
70.8778
66.8617
63.6877
61.4976
60.0794
59.0009
57.9481
56.8952
55.8287
54.7899
53.7675
52.8033
51.8636
50.9967
50.1641
49.4996
49.1328
49.9409
77.4234
74.8801
70.8217
66.792
63.6428
61.4937
60.0812
58.9975
57.9373
56.887
55.8216
54.7895
53.7695
52.8116
51.8751
51.0141
50.1855
49.5242
49.1547
49.9544
77.7749
74.9621
70.7063
66.6503
63.5562
61.4842
60.0857
58.9869
57.9171
56.8681
55.8075
54.7833
53.7703
52.8199
51.8904
51.0349
50.2128
49.5481
49.1564
49.9094
78.3208
75.0686
70.5229
66.4382
63.4329
61.4668
60.088
58.9661
57.8873
56.8384
55.7859
54.7704
53.7687
52.8266
51.9074
51.0594
50.2468
49.5779
49.1429
49.7878
79.0741
75.1852
70.2567
66.1568
63.2946
61.4381
60.0802
58.9331
57.8479
56.7979
55.7579
54.7502
53.7643
52.8293
51.9249
51.0851
50.289
49.6177
49.1402
49.5839
80.0553
75.2839
69.8934
65.8105
63.1424
61.3933
60.054
58.8879
57.7994
56.749
55.7256
54.7253
53.7582
52.828
51.942
51.1088
50.3378
49.6684
49.1676
49.3179
81.3011
75.3118
69.4207
65.4074
62.9732
61.3257
60.0064
58.8316
57.7449
56.6991
55.6929
54.7008
53.7511
52.8243
51.9564
51.1267
50.3851
49.7168
49.225
49.041
82.8345
75.2495
68.8382
64.9862
62.7898
61.2377
59.9448
58.7755
57.6981
56.6608
55.6687
54.6842
53.7463
52.8229
51.967
51.1403
50.4189
49.7539
49.2825
48.8968
84.7971
75.1715
68.2393
64.6124
62.6231
61.1582
59.8986
58.7433
57.6748
56.6442
55.6596
54.6803
53.747
52.8264
51.9739
51.1505
50.4347
49.7754
49.2795
48.8189
87.9053
75.524
68.0709
64.499
62.5638
61.1329
59.8912
58.7432
57.6768
56.6472
55.6623
54.683
53.7497
52.8288
51.9771
51.154
50.4383
49.7812
49.281
48.938
47.9623
47.8136
47.5076
47.1969
46.9507
46.771
46.6492
46.5649
46.5003
46.4481
46.4039
46.3589
46.312
46.2616
46.2058
46.1425
46.0714
45.9875
45.8939
45.7862
45.6707
45.5547
45.4458
45.3456
45.2604
45.1927
45.1443
45.1064
45.0732
45.0334
44.9854
44.9292
44.8729
44.8229
44.7831
44.7496
44.7187
44.6788
44.6289
44.5669
44.4993
44.427
44.3649
44.3175
44.2969
44.298
44.3263
44.3691
44.4244
44.4753
44.5149
44.5259
44.5079
44.4503
44.3651
44.2465
44.1149
43.9684
43.8219
43.6648
43.504
43.3307
43.158
42.9845
42.8269
42.6948
42.6013
42.5544
42.5568
42.5957
42.6698
42.7631
42.876
42.99
43.1107
43.2162
43.3153
43.3821
43.4253
43.4223
43.385
43.3015
43.1936
43.0491
42.9021
42.746
42.6066
42.489
42.4018
42.3578
42.3619
42.4231
42.5388
42.7
42.8997
43.1224
43.3606
43.5973
43.8267
44.0381
44.2325
44.4035
44.5563
44.6697
44.7715
44.8429
44.9137
44.9679
45.0368
45.089
45.1467
45.1907
45.2329
45.2624
45.2861
45.3015
45.3143
45.3204
45.3262
45.3225
45.32
45.3054
45.3015
45.2851
45.2903
45.2733
45.291
45.2811
45.3127
45.3311
45.3889
45.4422
45.5248
45.6097
45.7225
45.8396
45.9812
46.1239
46.2853
46.4458
46.6247
46.8094
47.0118
47.2208
47.4449
47.6685
47.9033
48.1389
48.3783
48.6174
48.8535
49.0844
49.315
49.5334
49.7506
49.9583
50.1779
50.3776
50.5942
50.7922
51.0104
51.1895
51.3938
51.55
51.7322
51.8561
52.0093
52.0985
52.2143
52.2661
52.3665
52.3889
52.489
52.5041
52.6312
52.645
52.8205
52.8363
53.0489
53.0909
53.3194
53.4005
53.6599
53.8006
54.0924
54.2988
54.621
54.8583
55.2081
55.4435
55.7854
55.9595
56.1802
56.102
55.9446
55.1703
53.9523
50.7486
46.6833
26.5077
47.768
47.7006
47.5568
47.3095
47.0454
46.8301
46.6897
46.6102
46.5684
46.5391
46.5115
46.4755
46.4328
46.3821
46.3266
46.2626
46.192
46.1105
46.0214
45.9213
45.8156
45.7086
45.6087
45.5164
45.4378
45.3718
45.3211
45.2794
45.2447
45.2076
45.1672
45.1199
45.0723
45.0258
44.9859
44.948
44.912
44.8692
44.8204
44.7607
44.6975
44.631
44.5735
44.5272
44.5028
44.4966
44.5131
44.5425
44.5823
44.6176
44.6439
44.6455
44.6238
44.5674
44.4868
44.3758
44.2497
44.1066
43.9599
43.8037
43.6447
43.4778
43.311
43.1466
42.9944
42.8651
42.769
42.7111
42.6971
42.7173
42.7718
42.8462
42.9409
43.0405
43.1443
43.2376
43.3182
43.3719
43.3981
43.3849
43.3394
43.2552
43.1479
43.0169
42.8795
42.7424
42.6146
42.5125
42.4346
42.3964
42.4006
42.4577
42.5636
42.7111
42.8944
43.1023
43.3253
43.5502
43.7715
43.981
44.1752
44.3492
44.5008
44.6164
44.7182
44.7926
44.8618
44.914
44.971
45.016
45.0584
45.0909
45.1152
45.126
45.1256
45.1174
45.1019
45.0838
45.0633
45.0358
45.0141
44.9803
44.963
44.9328
44.928
44.9026
44.9085
44.895
44.9167
44.9309
44.9816
45.0306
45.1106
45.1934
45.307
45.422
45.5642
45.706
45.8676
46.0258
46.2061
46.3878
46.5901
46.7928
47.0164
47.2311
47.4652
47.6916
47.9306
48.1614
48.393
48.6141
48.8419
49.0465
49.2609
49.4588
49.6801
49.8708
50.096
50.2904
50.5144
50.6924
50.9004
51.0503
51.2264
51.3394
51.4806
51.547
51.6475
51.6702
51.7536
51.7372
51.8238
51.7951
51.9143
51.8847
52.0482
52.039
52.2252
52.2542
52.4527
52.5147
52.7292
52.8437
53.0865
53.2355
53.5137
53.6625
53.9469
54.0518
54.2616
54.2206
54.228
53.7676
53.2383
51.6229
49.9001
44.2198
38.4421
19.8529
47.7284
47.7301
47.7251
47.5281
47.2103
46.908
46.7103
46.6185
46.5999
46.6043
46.6055
46.5868
46.5517
46.5008
46.4422
46.3741
46.3014
46.2203
46.1344
46.0408
45.9452
45.8484
45.7586
45.6752
45.6038
45.542
45.4928
45.451
45.4168
45.3822
45.3477
45.3079
45.2676
45.2253
45.1864
45.1462
45.1069
45.0619
45.0141
44.9586
44.9014
44.8423
44.7907
44.748
44.7221
44.7106
44.7166
44.7322
44.7559
44.7749
44.7866
44.7775
44.7489
44.6913
44.6112
44.505
44.3822
44.2435
44.0977
43.9446
43.7882
43.6286
43.4699
43.3157
43.1731
43.0495
42.955
42.8918
42.8654
42.8702
42.9069
42.9647
43.0425
43.1278
43.2168
43.2963
43.3605
43.4002
43.4104
43.3879
43.3345
43.2533
43.1489
43.0312
42.904
42.782
42.6672
42.5752
42.5032
42.4658
42.4666
42.5159
42.6081
42.7415
42.9074
43.101
43.3081
43.5226
43.7355
43.9412
44.1339
44.3089
44.4594
44.5777
44.6814
44.7605
44.8298
44.8827
44.9327
44.9743
45.0081
45.0336
45.0442
45.0394
45.019
44.9897
44.9532
44.9093
44.8688
44.8168
44.782
44.7296
44.7048
44.6622
44.6512
44.6225
44.6197
44.6064
44.6198
44.634
44.6784
44.726
44.8052
44.8884
45.0031
45.1178
45.2607
45.4016
45.5636
45.7198
45.9025
46.0848
46.2902
46.4929
46.716
46.9274
47.1608
47.3814
47.6202
47.8361
48.0601
48.2663
48.4865
48.6753
48.8855
49.0741
49.2888
49.474
49.7033
49.9003
50.1227
50.3047
50.5116
50.6541
50.8232
50.9178
51.047
51.0837
51.1719
51.1679
51.2367
51.1861
51.2627
51.1962
51.3063
51.251
51.379
51.3602
51.4988
51.5173
51.667
51.7104
51.8797
51.9471
52.1528
52.2209
52.4493
52.4918
52.6936
52.6463
52.7478
52.429
52.2948
51.2904
50.666
47.886
46.0248
38.9687
31.9921
19.3158
47.8738
47.8433
47.7744
47.4847
47.1086
46.7964
46.6227
46.5754
46.6099
46.6646
46.7061
46.7138
46.6916
46.6424
46.5788
46.5037
46.4251
46.3414
46.2572
46.1691
46.0825
45.9962
45.9172
45.8437
45.7809
45.7253
45.6803
45.6408
45.6083
45.5762
45.5457
45.5111
45.4758
45.4365
45.3981
45.3567
45.3159
45.2708
45.225
45.1746
45.1248
45.0736
45.0286
44.9889
44.9617
44.9439
44.9389
44.9399
44.9466
44.9486
44.9444
44.9241
44.8874
44.8279
44.748
44.6464
44.5284
44.3963
44.2557
44.1089
43.9594
43.809
43.6611
43.5186
43.3874
43.2726
43.1821
43.1171
43.0822
43.0741
43.095
43.1368
43.1982
43.2683
43.3414
43.4054
43.4534
43.4789
43.4758
43.4462
43.3882
43.3092
43.2088
43.1005
42.984
42.8732
42.7686
42.6804
42.6084
42.5661
42.5597
42.5979
42.676
42.7939
42.9449
43.1228
43.3168
43.5194
43.7262
43.9264
44.1176
44.291
44.441
44.5604
44.6661
44.7503
44.8215
44.8785
44.9285
44.9709
45.0029
45.023
45.0224
45.0036
44.9678
44.9185
44.8678
44.8027
44.7489
44.6781
44.6316
44.5632
44.5318
44.4804
44.4664
44.4342
44.4289
44.4125
44.4253
44.4404
44.4866
44.5389
44.6204
44.7084
44.8252
44.9426
45.0864
45.2265
45.3888
45.5443
45.7293
45.9114
46.1195
46.3245
46.5496
46.7641
46.9985
47.2149
47.45
47.6478
47.8648
48.0494
48.259
48.4266
48.6331
48.8089
49.0201
49.1991
49.434
49.6207
49.8485
50.0186
50.2342
50.3549
50.5281
50.595
50.7216
50.7222
50.8047
50.7659
50.8268
50.745
50.8187
50.7319
50.816
50.7559
50.8356
50.8083
50.8967
50.8946
50.9999
51.0121
51.1445
51.1516
51.3154
51.2903
51.4708
51.3601
51.5481
51.2307
51.3686
50.5939
50.544
48.7872
48.188
44.5391
42.1209
35.4728
28.0162
19.5209
49.3048
48.988
48.0018
47.1696
46.6345
46.3847
46.3556
46.4478
46.5877
46.7164
46.8086
46.8491
46.8441
46.7998
46.7327
46.6502
46.564
46.4753
46.3901
46.3061
46.2275
46.152
46.0845
46.0225
45.9696
45.9223
45.8833
45.8481
45.8183
45.7889
45.7609
45.7297
45.6977
45.6615
45.6249
45.585
45.5453
45.502
45.4589
45.413
45.3684
45.3227
45.2811
45.2423
45.2113
45.1857
45.1681
45.1543
45.1438
45.1304
45.1117
45.0817
45.0378
44.9767
44.8981
44.8025
44.6921
44.5697
44.4392
44.3032
44.165
44.0266
43.8918
43.7626
43.6443
43.5398
43.4555
43.3922
43.3531
43.3367
43.3448
43.3735
43.4191
43.4737
43.5287
43.5757
43.6069
43.6188
43.6056
43.57
43.5095
43.4307
43.3346
43.2312
43.1218
43.0154
42.9142
42.8232
42.7457
42.6939
42.6778
42.7022
42.7675
42.8706
43.0099
43.1744
43.3579
43.5524
43.7532
43.949
44.1391
44.3106
44.4605
44.5813
44.69
44.7793
44.8537
44.9174
44.969
45.0135
45.044
45.0575
45.0475
45.0138
44.9664
44.9019
44.8418
44.7635
44.6986
44.6174
44.5596
44.4871
44.4498
44.4006
44.3815
44.3501
44.342
44.3253
44.3438
44.3596
44.4169
44.474
44.5666
44.6596
44.7844
44.9047
45.0554
45.1944
45.361
45.5139
45.7021
45.8791
46.0932
46.2985
46.5326
46.7496
46.9888
47.1993
47.4314
47.6087
47.8203
47.9778
48.1777
48.3181
48.5202
48.6726
48.8882
49.0525
49.2955
49.4604
49.7001
49.8461
50.0717
50.1664
50.3455
50.3818
50.5087
50.4756
50.5525
50.4773
50.5306
50.4275
50.496
50.4091
50.4697
50.4009
50.4535
50.3966
50.458
50.4122
50.502
50.4492
50.576
50.4829
50.6478
50.45
50.6605
50.2781
50.5329
49.8346
50.038
48.7991
48.6759
46.4963
45.4494
41.8315
38.6242
33.3396
26.2968
20.0147
50.2908
49.8357
48.2806
47.0135
46.2644
46.0019
46.075
46.2989
46.553
46.7673
46.9184
46.997
47.0122
46.975
46.9048
46.8145
46.7187
46.6227
46.5336
46.451
46.3778
46.3118
46.255
46.2044
46.1618
46.1239
46.0918
46.062
46.0355
46.0087
45.9826
45.954
45.9244
45.8913
45.8572
45.8201
45.7824
45.7421
45.7016
45.6594
45.6179
45.5754
45.5347
45.495
45.4591
45.4262
45.3974
45.3707
45.3451
45.3177
45.286
45.2465
45.1961
45.1334
45.0571
44.9679
44.8667
44.7559
44.6377
44.5148
44.39
44.2663
44.1464
44.0324
43.9283
43.8362
43.7604
43.702
43.6632
43.6435
43.6448
43.6652
43.6989
43.7393
43.7777
43.8089
43.8254
43.8249
43.803
43.7617
43.6981
43.6175
43.5215
43.4169
43.3075
43.1996
43.0966
42.9996
42.9137
42.8476
42.8206
42.8319
42.8852
42.9765
43.1071
43.2619
43.4361
43.6251
43.8212
44.0145
44.2032
44.3763
44.5275
44.6524
44.7649
44.858
44.9372
45.0064
45.061
45.1042
45.1315
45.1343
45.1146
45.0648
45.0102
44.9362
44.8695
44.7856
44.7125
44.629
44.5659
44.5002
44.4614
44.4206
44.3979
44.3716
44.3605
44.3544
44.379
44.4095
44.4799
44.5454
44.6529
44.7499
44.8855
45.0081
45.1684
45.3074
45.4818
45.6341
45.8244
45.9995
46.2227
46.426
46.6743
46.8924
47.1395
47.3444
47.5694
47.7297
47.9292
48.0613
48.248
48.3554
48.5561
48.6759
48.8947
49.0375
49.2857
49.422
49.679
49.7894
50.0308
50.0906
50.2795
50.2824
50.415
50.3379
50.4206
50.3039
50.3677
50.2429
50.3226
50.218
50.294
50.1838
50.2472
50.1301
50.1996
50.0727
50.1818
50.032
50.1747
49.9542
50.1179
49.7533
49.9369
49.3555
49.5226
48.6228
48.5945
47.2116
46.6665
44.5226
42.9769
39.8498
36.3618
32.3824
26.3096
21.0978
50.8982
50.4287
48.5968
47.0484
46.1073
45.767
45.8668
46.173
46.5178
46.8105
47.0207
47.1413
47.18
47.1515
47.0783
46.9795
46.8728
46.7683
46.6736
46.5905
46.5204
46.4618
46.414
46.3741
46.3413
46.3129
46.2882
46.2648
46.2422
46.2186
46.1941
46.1674
46.139
46.1081
46.0756
46.0411
46.0055
45.9682
45.9301
45.8907
45.8508
45.81
45.7692
45.7284
45.6885
45.6496
45.6119
45.5753
45.5383
45.4998
45.4575
45.4099
45.3544
45.2907
45.2171
45.1344
45.0426
44.9433
44.8381
44.7293
44.6192
44.5106
44.4054
44.3064
44.2157
44.1357
44.0688
44.0172
43.9825
43.966
43.9673
43.9849
44.0128
44.043
44.0684
44.0855
44.0901
44.0806
44.0522
44.0048
43.9373
43.853
43.7531
43.6426
43.5288
43.4166
43.3089
43.2031
43.1062
43.0254
42.9851
42.9861
43.0318
43.1173
43.2431
43.3922
43.5617
43.7472
43.9388
44.1322
44.3201
44.4949
44.648
44.7799
44.8917
44.986
45.0686
45.1386
45.1938
45.2319
45.2559
45.2487
45.2201
45.1575
45.0947
45.0147
44.9432
44.8607
44.7848
44.7089
44.6504
44.5999
44.5672
44.5377
44.5177
44.4989
44.4907
44.4975
44.5325
44.5853
44.6663
44.7537
44.8684
44.9798
45.1209
45.2532
45.4195
45.5682
45.751
45.9097
46.1047
46.2881
46.517
46.7242
46.9757
47.2006
47.4512
47.6509
47.8635
48.0109
48.1893
48.308
48.472
48.5477
48.7416
48.8314
49.0334
49.1611
49.4092
49.5157
49.7867
49.8691
50.111
50.1507
50.3385
50.3333
50.4598
50.3603
50.4251
50.2923
50.3527
50.2346
50.3108
50.2075
50.2785
50.1538
50.2001
50.0499
50.0925
49.9208
49.9799
49.7805
49.8427
49.5638
49.6165
49.1725
49.2109
48.5421
48.4899
47.5673
47.2507
45.8596
45.0674
43.0322
41.3257
38.8096
35.4818
32.3951
27.3746
22.7486
51.2991
50.847
48.8854
47.1724
46.0976
45.6631
45.7379
46.0821
46.4888
46.844
47.1052
47.2651
47.3276
47.3098
47.2355
47.1304
47.0148
46.9034
46.8038
46.72
46.6522
46.5995
46.5591
46.5286
46.5046
46.4851
46.4674
46.4503
46.4319
46.4119
46.3893
46.3646
46.3372
46.3079
46.2764
46.2436
46.2091
46.1737
46.1365
46.0985
46.0589
46.0186
45.9768
45.9347
45.8914
45.8483
45.8044
45.7606
45.7151
45.6685
45.6186
45.5657
45.5076
45.4446
45.3748
45.2993
45.217
45.1298
45.0375
44.9431
44.8468
44.7521
44.6601
44.5743
44.4955
44.4275
44.3709
44.3288
44.3013
44.2911
44.2952
44.3128
44.3366
44.3595
44.3749
44.3821
44.3779
44.3631
44.3312
44.2798
44.208
44.1187
44.0122
43.8939
43.7738
43.6548
43.5426
43.4289
43.3215
43.2306
43.1801
43.1754
43.2178
43.3029
43.4242
43.5693
43.7351
43.9169
44.1074
44.3016
44.4924
44.6718
44.8263
44.9606
45.068
45.1634
45.2448
45.3094
45.3595
45.3895
45.4082
45.396
45.3585
45.2891
45.2166
45.1373
45.066
44.9922
44.9239
44.8646
44.8193
44.7892
44.7699
44.7569
44.7463
44.7398
44.7421
44.7666
44.8177
44.8903
44.985
45.0883
45.2088
45.3403
45.4877
45.6364
45.8088
45.9751
46.1666
46.3416
46.542
46.7401
46.9728
47.1852
47.4418
47.6661
47.9161
48.1092
48.3166
48.4425
48.5982
48.7145
48.8526
48.9119
49.0911
49.1455
49.3292
49.4287
49.6721
49.7561
50.0241
50.1069
50.3339
50.3736
50.5617
50.5605
50.6789
50.5593
50.5902
50.4612
50.4979
50.4035
50.4736
50.3818
50.4492
50.3153
50.3498
50.1742
50.1843
49.9752
49.9618
49.7156
49.6767
49.3353
49.2768
48.7321
48.6495
47.9303
47.7193
46.7947
46.3471
44.963
44.1106
42.2756
40.5379
38.5696
35.5678
32.9573
28.8093
24.6241
51.5426
51.112
49.1082
47.3108
46.1537
45.6473
45.6858
46.042
46.4862
46.8862
47.1858
47.3761
47.4588
47.451
47.3771
47.2684
47.1468
47.031
46.9284
46.8446
46.7788
46.7309
46.6965
46.6734
46.6566
46.6444
46.6329
46.6212
46.6068
46.59
46.5694
46.5464
46.52
46.4919
46.461
46.4291
46.3949
46.3599
46.3226
46.2845
46.2442
46.2032
46.16
46.1162
46.0703
46.0239
45.9754
45.9263
45.8751
45.8233
45.7692
45.714
45.6555
45.5949
45.53
45.4622
45.3895
45.3138
45.2337
45.1525
45.0697
44.9887
44.9096
44.8368
44.7707
44.7156
44.6711
44.6403
44.6215
44.618
44.6261
44.6444
44.664
44.6811
44.6886
44.6882
44.6787
44.6615
44.6275
44.5745
44.5009
44.408
44.2951
44.1681
44.0378
43.9109
43.7926
43.6706
43.5607
43.4641
43.4114
43.4064
43.4515
43.5369
43.6545
43.7928
43.956
44.1361
44.3299
44.5259
44.7225
44.9102
45.0698
45.2031
45.3079
45.4005
45.474
45.5273
45.5651
45.586
45.5995
45.5818
45.5397
45.4703
45.3969
45.3238
45.26
45.1988
45.1466
45.1072
45.0832
45.0769
45.0772
45.0868
45.0919
45.1025
45.1224
45.1635
45.2317
45.3214
45.4327
45.5499
45.6825
45.8322
45.9875
46.1513
46.335
46.5136
46.7173
46.9103
47.122
47.3383
47.5753
47.7956
48.0562
48.2789
48.5339
48.7097
48.9282
49.0144
49.1563
49.2617
49.3686
49.4213
49.5906
49.5977
49.7817
49.8458
50.0875
50.1516
50.4156
50.4876
50.7213
50.7339
50.9573
50.96
51.0854
50.9
50.9032
50.7949
50.8252
50.7501
50.8135
50.734
50.8133
50.6673
50.6993
50.4977
50.4873
50.2467
50.179
49.8692
49.7643
49.351
49.154
48.5987
48.3739
47.7706
47.4812
46.541
46.0541
44.6922
43.7759
42.1831
40.4539
38.8577
36.2211
33.8184
30.3079
26.536
51.7034
51.2862
49.2662
47.4303
46.232
45.6881
45.7049
46.0655
46.5302
46.9555
47.2767
47.4835
47.5765
47.5737
47.4997
47.3888
47.2647
47.1476
47.0451
46.963
46.9001
46.8565
46.8273
46.81
46.7989
46.7922
46.7855
46.7781
46.7669
46.7528
46.7341
46.7127
46.6873
46.66
46.6295
46.5977
46.5634
46.5281
46.4901
46.4512
46.4097
46.3673
46.3223
46.2765
46.2281
46.1791
46.1276
46.0757
46.0216
45.9675
45.9117
45.8563
45.7994
45.7428
45.6841
45.6248
45.562
45.4973
45.4291
45.3607
45.2909
45.2231
45.1571
45.0979
45.0451
45.0032
44.9718
44.9531
44.9446
44.9498
44.9637
44.9823
44.998
45.0105
45.0138
45.0078
44.9939
44.9752
44.9419
44.8905
44.8171
44.7208
44.6028
44.4696
44.3303
44.1917
44.0659
43.9366
43.8279
43.7305
43.6823
43.6797
43.7343
43.8225
43.9399
44.0727
44.2375
44.4177
44.6132
44.8102
45.0166
45.2139
45.3815
45.5118
45.612
45.6943
45.7553
45.7942
45.8194
45.8329
45.8424
45.8222
45.782
45.7179
45.6515
45.5911
45.5418
45.4991
45.4671
45.4494
45.4518
45.4703
45.4982
45.5322
45.5603
45.5927
45.6349
45.6897
45.7733
45.8737
46.0006
46.1284
46.2787
46.4403
46.6108
46.7847
46.9843
47.1701
47.3951
47.6019
47.8321
48.0658
48.3172
48.5438
48.8134
49.0252
49.294
49.445
49.6755
49.6993
49.8542
49.9213
50.0315
50.0585
50.2121
50.17
50.3732
50.4001
50.6561
50.6804
50.9783
51.0132
51.2995
51.237
51.5314
51.5189
51.6911
51.3816
51.4119
51.2932
51.3481
51.2809
51.3789
51.2856
51.3974
51.2174
51.2755
51.0239
51.0334
50.7547
50.6846
50.2783
50.0885
49.6094
49.3787
48.8612
48.6015
48.0046
47.6894
46.7351
46.1808
44.8957
43.8442
42.4935
40.8667
39.4493
37.1218
34.8183
31.7477
28.3689
51.7986
51.3849
49.358
47.5155
46.3137
45.769
45.7886
46.1542
46.6252
47.0552
47.3789
47.5862
47.6784
47.6738
47.599
47.4884
47.3664
47.2525
47.1541
47.0764
47.0182
46.9793
46.9548
46.942
46.9351
46.9319
46.9282
46.9233
46.9143
46.902
46.8848
46.8646
46.8404
46.8137
46.7836
46.7518
46.7173
46.6814
46.6426
46.6025
46.5597
46.5157
46.4691
46.4216
46.3717
46.321
46.268
46.2147
46.16
46.106
46.0512
45.9976
45.9439
45.8919
45.8401
45.7895
45.7372
45.6841
45.6289
45.574
45.518
45.464
45.4129
45.3682
45.3289
45.2997
45.2821
45.2766
45.279
45.2922
45.3106
45.3291
45.3425
45.3519
45.3517
45.3431
45.3286
45.31
45.2792
45.2321
45.1612
45.0639
44.9425
44.8023
44.6559
44.5073
44.3752
44.2418
44.1375
44.0427
44.0093
44.0107
44.0787
44.1705
44.2916
44.4195
44.5914
44.7717
44.9704
45.1652
45.3833
45.5863
45.7602
45.8837
45.975
46.0389
46.0839
46.1077
46.1268
46.1369
46.1449
46.1254
46.0962
46.0416
45.9958
45.9519
45.9292
45.9022
45.9002
45.9042
45.9378
45.9773
46.0374
46.0914
46.1554
46.2086
46.2811
46.349
46.4494
46.5508
46.6935
46.8214
46.9913
47.153
47.3443
47.5246
47.7438
47.9356
48.1862
48.4064
48.6652
48.9116
49.1875
49.4123
49.7
49.8889
50.1879
50.2901
50.5369
50.4792
50.6837
50.689
50.8357
50.7966
50.9626
50.8802
51.1217
51.098
51.3817
51.3454
51.6837
51.697
52.0477
51.9273
52.3154
52.2485
52.4555
52.0287
52.1513
51.9886
52.1166
51.9946
52.154
52.0516
52.1895
51.9765
52.0557
51.7689
51.7998
51.4964
51.3704
50.9175
50.7396
50.2902
50.01
49.4312
49.1049
48.513
48.2643
47.2546
46.5398
45.3626
44.2353
43.0759
41.6197
40.2245
38.0973
35.8753
33.1141
30.0818
51.8217
51.4013
49.3804
47.5662
46.3999
45.892
45.9392
46.3123
46.7752
47.1885
47.495
47.6865
47.7662
47.7538
47.6776
47.57
47.4546
47.3483
47.2579
47.1873
47.1356
47.1018
47.0815
47.0715
47.0669
47.0651
47.0627
47.0588
47.0511
47.0397
47.0237
47.0044
46.9812
46.9551
46.9255
46.8937
46.8592
46.8229
46.7841
46.7436
46.7004
46.6554
46.6081
46.5595
46.5088
46.4575
46.4047
46.3521
46.2993
46.2474
46.1955
46.1452
46.0964
46.0502
46.0056
45.9632
45.9213
45.8804
45.8391
45.7982
45.7569
45.7179
45.6829
45.6536
45.6294
45.6142
45.6108
45.617
45.6281
45.6459
45.6669
45.6855
45.697
45.7012
45.6953
45.6844
45.671
45.6564
45.6325
45.5932
45.5288
45.4363
45.3157
45.1722
45.0194
44.8634
44.7257
44.5934
44.496
44.4131
44.4014
44.4079
44.491
44.5835
44.709
44.8286
45.0101
45.1895
45.3932
45.5839
45.8161
46.0213
46.2036
46.3174
46.3965
46.4295
46.4638
46.4675
46.4884
46.4961
46.5101
46.4951
46.4863
46.4482
46.4357
46.4112
46.4253
46.418
46.4551
46.4781
46.5474
46.6064
46.7051
46.7782
46.8749
46.9473
47.0534
47.1335
47.2537
47.3598
47.5081
47.6354
47.8202
47.982
48.19
48.3818
48.6146
48.8279
49.1007
49.3334
49.6149
49.8711
50.1644
50.3938
50.6829
50.8481
51.157
51.2412
51.4397
51.3503
51.6259
51.5344
51.7409
51.6051
51.8051
51.6901
51.9618
51.9384
52.2251
52.1671
52.5492
52.5468
52.9231
52.8071
53.213
53.1377
53.3195
52.8502
53.0335
52.8534
53.0572
52.9442
53.1402
53.0262
53.17
52.9588
53.0367
52.7438
52.7436
52.4125
52.2281
51.8052
51.5883
51.1308
50.7704
50.2599
49.9994
49.396
48.9378
47.9234
47.1034
46.0166
44.9414
43.8462
42.5238
41.0793
39.0844
36.9563
34.4278
31.6788
51.7464
51.3146
49.3313
47.5923
46.5054
46.0741
46.1688
46.5444
46.9794
47.353
47.6217
47.7804
47.8361
47.8112
47.7341
47.6332
47.5289
47.4345
47.3558
47.2951
47.2516
47.2234
47.2068
47.1984
47.1945
47.1925
47.19
47.1858
47.1783
47.1673
47.1522
47.1336
47.1113
47.0859
47.0572
47.0261
46.9925
46.9569
46.9188
46.8785
46.8354
46.7902
46.7427
46.694
46.6442
46.5941
46.5438
46.4942
46.4449
46.3965
46.3494
46.3042
46.2615
46.2224
46.1864
46.1531
46.1215
46.092
46.0644
46.0385
46.0126
45.9883
45.9689
45.955
45.9467
45.9474
45.9579
45.9743
45.9933
46.0158
46.0383
46.0544
46.0615
46.0591
46.0484
46.0363
46.0245
46.0136
45.9981
45.9688
45.9145
45.8316
45.7179
45.5763
45.4209
45.2654
45.1273
45.0007
44.909
44.8449
44.8532
44.8716
44.9659
45.0551
45.1782
45.2955
45.4909
45.6663
45.8721
46.0599
46.3094
46.5133
46.7064
46.8069
46.8752
46.8788
46.9019
46.8893
46.9212
46.9245
46.9525
46.9439
46.9605
46.9457
46.974
46.9756
47.032
47.054
47.1364
47.1849
47.296
47.3739
47.505
47.5924
47.7223
47.81
47.9492
48.0432
48.1843
48.2899
48.4448
48.5727
48.7662
48.9374
49.1643
49.3736
49.6202
49.8587
50.1391
50.3874
50.6898
50.9465
51.2394
51.4748
51.7437
51.9082
52.1743
52.2817
52.4048
52.3259
52.6075
52.4595
52.6633
52.5251
52.7746
52.6321
52.9017
52.9126
53.1338
53.117
53.5151
53.5661
53.9381
53.8921
54.2173
54.1907
54.2755
53.812
54.0862
53.8529
54.1386
54.0281
54.2476
54.1995
54.3038
54.1293
54.1435
53.9027
53.8697
53.4659
53.2282
52.8574
52.5818
52.1737
51.8152
51.433
50.9757
50.3278
49.7011
48.7542
47.8826
46.8727
45.8994
44.7547
43.4957
41.9617
40.0838
38.0482
35.71
33.1874
51.5252
51.0882
49.213
47.6263
46.6745
46.3528
46.494
46.8504
47.2302
47.5395
47.7499
47.8608
47.8851
47.8468
47.7713
47.6814
47.5925
47.5139
47.4497
47.4009
47.3661
47.3432
47.3291
47.3211
47.3162
47.3126
47.3086
47.303
47.2948
47.2834
47.2684
47.2502
47.2285
47.2039
47.1766
47.147
47.1151
47.0812
47.0449
47.0059
46.9641
46.9197
46.873
46.8255
46.7785
46.7325
46.6864
46.6407
46.5958
46.5527
46.5112
46.4723
46.4369
46.406
46.379
46.3559
46.3367
46.3216
46.3093
46.2969
46.2846
46.2757
46.272
46.2734
46.2816
46.2976
46.3202
46.3454
46.3716
46.3989
46.4229
46.4382
46.4416
46.4321
46.4149
46.4003
46.3905
46.3854
46.3792
46.3618
46.3222
46.2542
46.152
46.0194
45.8675
45.7195
45.5825
45.4668
45.3845
45.3442
45.3613
45.3856
45.4817
45.5681
45.6875
45.8245
46.0367
46.2145
46.4197
46.6142
46.8695
47.0646
47.2589
47.352
47.4155
47.3999
47.416
47.3976
47.4393
47.4443
47.4876
47.4872
47.5306
47.5443
47.6127
47.6483
47.7491
47.8082
47.9355
48.0201
48.1683
48.2707
48.4266
48.5302
48.6867
48.7906
48.9561
49.069
49.2266
49.337
49.4966
49.6299
49.8343
50.0162
50.2634
50.4925
50.7549
51.0186
51.29
51.5546
51.8491
52.1134
52.3915
52.64
52.857
53.0277
53.2539
53.3695
53.4389
53.4813
53.6448
53.4992
53.6432
53.5597
53.7825
53.6957
53.9247
54.0192
54.1094
54.2017
54.5699
54.6583
55.036
55.137
55.3386
55.3578
55.3975
54.9769
55.2343
55.089
55.3331
55.2121
55.4678
55.5148
55.5821
55.4349
55.3866
55.134
55.0374
54.6121
54.3488
54.0508
53.6701
53.4087
52.9468
52.5814
52.0113
51.468
50.536
49.7189
48.7955
47.9191
46.9751
45.7576
44.4974
42.8642
41.0887
39.1311
36.9472
34.5993
51.0514
50.6384
49.031
47.7205
46.9746
46.7674
46.9211
47.2178
47.5088
47.7297
47.8654
47.9213
47.9143
47.8657
47.7958
47.7202
47.649
47.5878
47.5384
47.5007
47.4732
47.454
47.4406
47.4313
47.4241
47.418
47.4116
47.4041
47.3946
47.3824
47.3673
47.3492
47.3284
47.3049
47.2792
47.2515
47.222
47.1907
47.1571
47.1206
47.0811
47.0394
46.9963
46.9525
46.9091
46.8677
46.8286
46.7902
46.7518
46.714
46.6783
46.6469
46.621
46.5997
46.5827
46.5712
46.5652
46.5639
46.5668
46.5714
46.5764
46.5825
46.5929
46.6089
46.6312
46.6588
46.6907
46.7241
46.7572
46.7887
46.8139
46.8276
46.8271
46.8119
46.7883
46.7691
46.7607
46.7622
46.7665
46.763
46.7413
46.6928
46.6073
46.489
46.35
46.218
46.0857
45.9885
45.915
45.892
45.9103
45.9461
46.0379
46.1173
46.2376
46.411
46.6348
46.82
47.0218
47.2388
47.4818
47.6705
47.8546
47.9481
48.0086
48.0007
48.0055
47.9939
48.0405
48.0616
48.1189
48.1388
48.2003
48.2447
48.3444
48.4289
48.5626
48.6743
48.8318
48.9649
49.131
49.2674
49.4384
49.5658
49.7375
49.8651
50.0437
50.1767
50.3535
50.4706
50.6447
50.7927
51.0023
51.2067
51.4618
51.7046
51.9762
52.2445
52.505
52.7831
53.0596
53.3248
53.5973
53.8611
54.0283
54.2105
54.3721
54.4769
54.5761
54.6852
54.7059
54.701
54.7085
54.7439
54.9066
54.8536
55.0048
55.1452
55.201
55.4377
55.6132
55.9136
56.2624
56.3671
56.528
56.6061
56.5738
56.3258
56.5417
56.4765
56.6106
56.5711
56.7724
56.9036
56.8631
56.7946
56.6774
56.455
56.2644
55.8835
55.5703
55.2931
54.8385
54.6943
54.1372
53.8204
53.0182
52.5848
51.4639
50.8223
49.8377
49.1166
48.0973
46.8388
45.5333
43.8196
42.1199
40.2135
38.1518
35.9364
50.2879
49.968
48.8357
47.9258
47.4251
47.3024
47.4118
47.5998
47.7717
47.8907
47.9504
47.9579
47.9274
47.875
47.8138
47.7534
47.6989
47.6529
47.6154
47.5858
47.5627
47.5447
47.5305
47.5191
47.5095
47.5007
47.4921
47.4829
47.4723
47.4596
47.4442
47.4263
47.4061
47.3839
47.3597
47.3346
47.3089
47.2816
47.2516
47.2188
47.1833
47.1456
47.1071
47.0695
47.0329
46.9979
46.9658
46.9364
46.9079
46.8786
46.8508
46.8292
46.8152
46.8066
46.8021
46.8031
46.8104
46.8234
46.8391
46.8553
46.8736
46.8957
46.9215
46.9515
46.9854
47.0215
47.0591
47.0971
47.1345
47.1689
47.1942
47.2064
47.2028
47.1838
47.1563
47.1339
47.1271
47.1337
47.1449
47.1511
47.1434
47.1136
47.0496
46.9523
46.833
46.7238
46.5992
46.5322
46.4726
46.4645
46.48
46.5367
46.6162
46.7055
46.8388
47.0335
47.2479
47.4481
47.6589
47.9
48.1217
48.3149
48.4786
48.583
48.6359
48.6516
48.65
48.666
48.707
48.7585
48.8204
48.8793
48.9491
49.0358
49.1492
49.2879
49.4451
49.6122
49.7859
49.9646
50.1314
50.307
50.4731
50.6296
50.8011
50.9645
51.144
51.3211
51.4969
51.6519
51.8222
52.0072
52.2098
52.4461
52.6899
52.9593
53.2177
53.4957
53.7444
54.0326
54.2798
54.551
54.7978
55.0504
55.1992
55.4228
55.4886
55.659
55.6749
55.8176
55.8078
55.8888
55.8474
55.9972
55.9893
56.0383
56.1193
56.2965
56.2886
56.6932
56.803
57.3178
57.385
57.5848
57.715
57.8666
57.8566
57.8726
57.9082
57.8969
57.9039
58.0176
58.0974
58.2167
58.1375
58.1282
57.8699
57.8493
57.4011
57.1952
56.8212
56.5801
56.111
56.0342
55.3144
54.9418
54.037
53.6953
52.4823
52.0185
50.9447
50.311
49.1288
47.9194
46.5576
44.8167
43.1648
41.2827
39.3171
37.1937
49.4542
49.2868
48.7335
48.26
47.9755
47.8674
47.8722
47.9226
47.9727
48.0007
48
47.974
47.9309
47.8798
47.8279
47.7799
47.7378
47.7019
47.6717
47.6463
47.6248
47.6065
47.591
47.5777
47.5662
47.5556
47.5454
47.5348
47.5233
47.5101
47.4946
47.4766
47.4571
47.4368
47.4158
47.3933
47.3701
47.3467
47.322
47.2941
47.2633
47.2322
47.2014
47.1706
47.1412
47.1163
47.0956
47.0768
47.0585
47.0406
47.0262
47.0183
47.0167
47.0201
47.0289
47.0435
47.0631
47.0869
47.1141
47.1431
47.1721
47.2018
47.2348
47.272
47.3117
47.3519
47.3925
47.4327
47.4711
47.5037
47.5265
47.5385
47.538
47.5231
47.4978
47.4759
47.469
47.4757
47.4905
47.5032
47.5056
47.4902
47.4446
47.3705
47.2787
47.2063
47.1071
47.0699
47.0204
47.0329
47.0546
47.1397
47.205
47.3189