/*--------------------------------*- C++ -*----------------------------------*\
| =========                 |                                                 |
| \\      /  F ield         | OpenFOAM: The Open Source CFD Toolbox           |
|  \\    /   O peration     | Version:  2.4.0                                 |
|   \\  /    A nd           | Web:      www.OpenFOAM.org                      |
|    \\/     M anipulation  |                                                 |
\*---------------------------------------------------------------------------*/
FoamFile
{
    version     2.0;
    format      ascii;
    class       volVectorField;
    location    "1.06";
    object      UMean;
}
// * * * * * * * * * * * * * * * * * * * * * * * * * * * * * * * * * * * * * //

dimensions      [0 1 -1 0 0 0 0];

internalField   nonuniform List<vector> 
8800
(
(8.09353 0.387046 0)
(5.45936 0.242547 0)
(3.92974 0.0429934 0)
(3.16571 -0.015125 0)
(2.82514 -0.0184628 0)
(2.60539 -0.0107444 0)
(2.51645 -0.00600345 0)
(2.38777 -0.00180697 0)
(2.35893 -0.00197353 0)
(2.25792 6.88147e-05 0)
(2.26319 -0.0012948 0)
(2.17392 0.000747852 0)
(2.19607 -0.000877278 0)
(2.10702 0.00137767 0)
(2.13448 -0.000556505 0)
(2.04263 0.00205724 0)
(2.06756 -0.000472784 0)
(1.96988 0.00183051 0)
(2.01207 0.00632372 0)
(1.74487 -0.0562105 0)
(10.0875 0.835903 0)
(9.65067 0.865926 0)
(8.89796 0.505253 0)
(8.06846 0.261553 0)
(7.53409 0.136654 0)
(6.9858 0.0821791 0)
(6.75599 0.052108 0)
(6.37461 0.0409929 0)
(6.30442 0.0275397 0)
(5.99716 0.0253249 0)
(6.02446 0.0160003 0)
(5.75034 0.0193402 0)
(5.83373 0.0118111 0)
(5.568 0.0187031 0)
(5.67805 0.0112179 0)
(5.4109 0.019963 0)
(5.52825 0.0151202 0)
(5.24797 0.0160477 0)
(5.38914 0.0300597 0)
(5.02549 -0.0414467 0)
(10.0829 0.629704 0)
(10.6275 0.861071 0)
(10.9135 0.598812 0)
(10.6419 0.372934 0)
(10.5185 0.253398 0)
(10.0231 0.196253 0)
(9.91956 0.149636 0)
(9.42314 0.122885 0)
(9.42167 0.0896818 0)
(8.95641 0.0774207 0)
(9.05861 0.0535928 0)
(8.61742 0.0546447 0)
(8.7968 0.0366878 0)
(8.36065 0.046353 0)
(8.58879 0.0307799 0)
(8.14464 0.0449101 0)
(8.39925 0.0348415 0)
(7.93272 0.0445535 0)
(8.20495 0.046882 0)
(7.70954 -0.0296167 0)
(10.0616 0.456471 0)
(10.4952 0.702873 0)
(11.2531 0.543283 0)
(11.2803 0.351978 0)
(11.6556 0.259064 0)
(11.3496 0.227618 0)
(11.6066 0.195541 0)
(11.177 0.176545 0)
(11.4322 0.141226 0)
(10.9456 0.127744 0)
(11.2379 0.0967221 0)
(10.7201 0.0964828 0)
(11.0574 0.070593 0)
(10.5124 0.0819409 0)
(10.8894 0.0571279 0)
(10.3163 0.0789542 0)
(10.7226 0.053039 0)
(10.1163 0.0892345 0)
(10.5253 0.0512418 0)
(9.88479 0.0911822 0)
(10.1723 0.346777 0)
(10.2723 0.56473 0)
(11.1824 0.458316 0)
(11.1673 0.294608 0)
(11.7968 0.205498 0)
(11.5294 0.194189 0)
(12.0289 0.172546 0)
(11.6699 0.172249 0)
(12.1409 0.137123 0)
(11.7338 0.137474 0)
(12.1992 0.0995984 0)
(11.7561 0.113487 0)
(12.2216 0.0759038 0)
(11.7457 0.104954 0)
(12.2103 0.0624841 0)
(11.7053 0.108068 0)
(12.1641 0.0556376 0)
(11.6322 0.125314 0)
(12.0626 0.0497616 0)
(11.4789 0.143798 0)
(10.1862 0.250886 0)
(10.2016 0.454459 0)
(11.0127 0.3722 0)
(11.0765 0.249271 0)
(11.6342 0.155538 0)
(11.5049 0.154468 0)
(11.9054 0.134661 0)
(11.7224 0.146444 0)
(12.0814 0.109993 0)
(11.8942 0.119561 0)
(12.2323 0.0797134 0)
(12.0435 0.0998352 0)
(12.3627 0.0620064 0)
(12.1693 0.0942279 0)
(12.4669 0.0551849 0)
(12.2685 0.0984178 0)
(12.5408 0.0556186 0)
(12.3341 0.109977 0)
(12.5625 0.0517787 0)
(12.2812 0.0739237 0)
(10.0584 0.169789 0)
(10.2679 0.357561 0)
(10.7807 0.281327 0)
(11.0913 0.210052 0)
(11.4077 0.109753 0)
(11.5354 0.121915 0)
(11.6881 0.0955248 0)
(11.7513 0.122768 0)
(11.8647 0.0776479 0)
(11.9286 0.101683 0)
(12.0271 0.0526281 0)
(12.0938 0.0856541 0)
(12.1787 0.0379764 0)
(12.2436 0.0821681 0)
(12.314 0.0328947 0)
(12.3757 0.0870696 0)
(12.4303 0.0326498 0)
(12.4821 0.0942973 0)
(12.5006 0.0186535 0)
(12.4565 0.0440045 0)
(9.95649 0.108227 0)
(10.3145 0.258452 0)
(10.6213 0.195745 0)
(11.0868 0.159406 0)
(11.2556 0.0726206 0)
(11.5395 0.0879423 0)
(11.5468 0.0631901 0)
(11.7483 0.0929913 0)
(11.7201 0.0515518 0)
(11.9188 0.0776363 0)
(11.8831 0.0324747 0)
(12.0815 0.0656808 0)
(12.0371 0.0213571 0)
(12.2305 0.0634895 0)
(12.1767 0.0170718 0)
(12.363 0.0669626 0)
(12.2984 0.0142237 0)
(12.4702 0.0682144 0)
(12.3711 -0.00531673 0)
(12.4348 0.0230563 0)
(9.88685 0.0571613 0)
(10.3492 0.160146 0)
(10.5111 0.112584 0)
(11.0885 0.102565 0)
(11.1495 0.0375115 0)
(11.5478 0.0582472 0)
(11.4475 0.0319538 0)
(11.7527 0.0633796 0)
(11.6168 0.0253714 0)
(11.9191 0.0542707 0)
(11.7796 0.0126921 0)
(12.0818 0.0468493 0)
(11.935 0.005317 0)
(12.2321 0.0453677 0)
(12.0761 0.00119543 0)
(12.3663 0.0460907 0)
(12.1987 -0.00404843 0)
(12.4745 0.0417852 0)
(12.2686 -0.0237614 0)
(12.4324 0.00248625 0)
(9.87097 0.0133373 0)
(10.3496 0.0621772 0)
(10.4762 0.0308094 0)
(11.0758 0.0424291 0)
(11.1194 0.0047266 0)
(11.5394 0.0283932 0)
(11.4243 0.00248377 0)
(11.7439 0.0313059 0)
(11.5947 -0.000149434 0)
(11.9112 0.0285646 0)
(11.7612 -0.00573627 0)
(12.0766 0.025822 0)
(11.92 -0.00953807 0)
(12.2303 0.0246806 0)
(12.064 -0.0137829 0)
(12.3678 0.0222655 0)
(12.1891 -0.0210772 0)
(12.4798 0.0138924 0)
(12.2598 -0.0394521 0)
(12.439 -0.0161084 0)
(9.90219 -0.0287392 0)
(10.3212 -0.0360015 0)
(10.5086 -0.052522 0)
(11.0532 -0.0187689 0)
(11.1528 -0.0287432 0)
(11.5207 -0.00211605 0)
(11.461 -0.0276908 0)
(11.7293 -0.00232799 0)
(11.6343 -0.026947 0)
(11.9013 0.00150858 0)
(11.8038 -0.0248359 0)
(12.0704 0.00385133 0)
(11.9652 -0.0253248 0)
(12.2282 0.00282969 0)
(12.1115 -0.0298087 0)
(12.37 -0.00266313 0)
(12.2395 -0.0391098 0)
(12.4867 -0.0146021 0)
(12.313 -0.0554657 0)
(12.4498 -0.0341053 0)
(9.95129 -0.072098 0)
(10.2886 -0.136739 0)
(10.5779 -0.133847 0)
(11.0386 -0.0811943 0)
(11.2212 -0.060174 0)
(11.5047 -0.0348038 0)
(11.5273 -0.0557199 0)
(11.7163 -0.0376307 0)
(11.7035 -0.0510485 0)
(11.8914 -0.0274395 0)
(11.8742 -0.0415625 0)
(12.0617 -0.0202645 0)
(12.0369 -0.0386342 0)
(12.2203 -0.0209534 0)
(12.1847 -0.0433629 0)
(12.3626 -0.029323 0)
(12.3146 -0.0550954 0)
(12.4791 -0.0451643 0)
(12.3908 -0.0706332 0)
(12.4422 -0.0533593 0)
(9.98464 -0.121893 0)
(10.2831 -0.239112 0)
(10.6548 -0.215484 0)
(11.0595 -0.141714 0)
(11.296 -0.0927536 0)
(11.5157 -0.0684306 0)
(11.5941 -0.0844793 0)
(11.7279 -0.0719326 0)
(11.7734 -0.0748769 0)
(11.9037 -0.0557812 0)
(11.9438 -0.0588034 0)
(12.072 -0.0440818 0)
(12.1059 -0.0524323 0)
(12.2278 -0.0437885 0)
(12.2526 -0.0573963 0)
(12.3671 -0.0542498 0)
(12.3817 -0.0724423 0)
(12.4804 -0.0744522 0)
(12.4591 -0.0909789 0)
(12.445 -0.0722467 0)
(10.0168 -0.181231 0)
(10.2946 -0.343335 0)
(10.7534 -0.297673 0)
(11.1093 -0.196581 0)
(11.3899 -0.126549 0)
(11.5514 -0.106762 0)
(11.6757 -0.113245 0)
(11.7661 -0.107226 0)
(11.8576 -0.0973525 0)
(11.944 -0.0855424 0)
(12.0261 -0.0751319 0)
(12.1113 -0.0700759 0)
(12.1844 -0.0652013 0)
(12.2641 -0.0686419 0)
(12.326 -0.069431 0)
(12.3992 -0.0802789 0)
(12.4474 -0.0870385 0)
(12.5062 -0.105413 0)
(12.518 -0.111816 0)
(12.472 -0.1021 0)
(10.0544 -0.256876 0)
(10.3157 -0.447431 0)
(10.8928 -0.381584 0)
(11.1774 -0.242249 0)
(11.522 -0.165661 0)
(11.6013 -0.146126 0)
(11.7957 -0.145256 0)
(11.8161 -0.138783 0)
(11.9738 -0.122121 0)
(11.9869 -0.112081 0)
(12.1268 -0.0939576 0)
(12.1369 -0.0938812 0)
(12.2589 -0.0800212 0)
(12.2627 -0.0913891 0)
(12.3632 -0.0811473 0)
(12.3597 -0.103128 0)
(12.4321 -0.097411 0)
(12.4145 -0.132666 0)
(12.4349 -0.127374 0)
(12.3269 -0.140746 0)
(10.0486 -0.350713 0)
(10.3933 -0.559766 0)
(11.0454 -0.463887 0)
(11.2958 -0.289202 0)
(11.6534 -0.212721 0)
(11.6617 -0.187492 0)
(11.8762 -0.180669 0)
(11.8071 -0.165681 0)
(11.9778 -0.147211 0)
(11.8761 -0.130555 0)
(12.0245 -0.112283 0)
(11.9029 -0.107231 0)
(12.0323 -0.0930029 0)
(11.8944 -0.10057 0)
(12.0004 -0.0881761 0)
(11.8492 -0.108761 0)
(11.921 -0.0982271 0)
(11.7543 -0.138542 0)
(11.759 -0.127226 0)
(11.5278 -0.163034 0)
(10.0018 -0.459046 0)
(10.5604 -0.699913 0)
(11.1667 -0.545778 0)
(11.3669 -0.349534 0)
(11.5558 -0.263322 0)
(11.4472 -0.224379 0)
(11.492 -0.200358 0)
(11.2841 -0.173274 0)
(11.3021 -0.147284 0)
(11.0599 -0.124502 0)
(11.0912 -0.104274 0)
(10.8383 -0.0945448 0)
(10.8903 -0.0804909 0)
(10.6294 -0.0834202 0)
(10.693 -0.0714224 0)
(10.4212 -0.0883238 0)
(10.4784 -0.0757379 0)
(10.187 -0.116921 0)
(10.1923 -0.0974042 0)
(9.85309 -0.160283 0)
(10.0578 -0.63228 0)
(10.6552 -0.858341 0)
(10.8656 -0.600184 0)
(10.6911 -0.371333 0)
(10.4581 -0.256358 0)
(10.0838 -0.194149 0)
(9.8449 -0.153043 0)
(9.49186 -0.120327 0)
(9.33406 -0.0940533 0)
(9.02955 -0.0746776 0)
(8.95854 -0.0592274 0)
(8.68955 -0.0524635 0)
(8.68211 -0.0442968 0)
(8.42365 -0.0462042 0)
(8.45212 -0.0415165 0)
(8.18385 -0.0508991 0)
(8.22171 -0.0492013 0)
(7.92298 -0.0706344 0)
(7.92399 -0.0719774 0)
(7.57422 -0.0897436 0)
(10.0795 -0.837262 0)
(9.65753 -0.864245 0)
(8.87637 -0.505725 0)
(8.09286 -0.260746 0)
(7.503 -0.138376 0)
(7.01786 -0.0811857 0)
(6.71363 -0.0537898 0)
(6.41177 -0.0396636 0)
(6.25367 -0.0296902 0)
(6.03597 -0.0239536 0)
(5.96603 -0.0187302 0)
(5.78553 -0.0183019 0)
(5.76636 -0.0155115 0)
(5.59135 -0.0186514 0)
(5.59607 -0.0166526 0)
(5.40717 -0.0232117 0)
(5.41523 -0.0224907 0)
(5.19112 -0.0331804 0)
(5.17864 -0.0388565 0)
(4.88073 -0.0203742 0)
(8.09182 -0.387422 0)
(5.45814 -0.242021 0)
(3.92539 -0.0433 0)
(3.17344 0.0152579 0)
(2.81647 0.0180027 0)
(2.61455 0.0111355 0)
(2.50264 0.00558361 0)
(2.3985 0.00228453 0)
(2.3422 0.00143783 0)
(2.26875 0.000427224 0)
(2.24309 0.000679612 0)
(2.18239 -0.000271416 0)
(2.17141 0.000160625 0)
(2.10856 -0.00110186 0)
(2.10129 -0.000384598 0)
(2.02807 -0.00230338 0)
(2.01505 -0.00118234 0)
(1.92267 -0.00386708 0)
(1.88412 -0.00437262 0)
(1.73078 0.0115248 0)
(2.24122 -0.102382 0)
(2.31315 -0.0187836 0)
(2.56209 -0.0139215 0)
(2.6718 -0.0293109 0)
(2.90991 -0.0508323 0)
(2.97725 -0.0538578 0)
(3.17425 -0.057332 0)
(3.1944 -0.047823 0)
(3.3557 -0.0514417 0)
(3.35099 -0.0508568 0)
(3.50537 -0.0601015 0)
(3.49003 -0.0620555 0)
(3.64809 -0.0738164 0)
(3.62893 -0.0761053 0)
(3.7893 -0.0873246 0)
(3.76698 -0.0892225 0)
(3.93382 -0.0999444 0)
(3.91068 -0.101659 0)
(4.09201 -0.1119 0)
(4.07024 -0.111172 0)
(4.2602 -0.124204 0)
(4.23292 -0.128264 0)
(4.42602 -0.145097 0)
(4.38924 -0.151575 0)
(4.58333 -0.171536 0)
(4.53511 -0.180412 0)
(4.72926 -0.201384 0)
(4.66917 -0.207737 0)
(4.86515 -0.225525 0)
(4.80032 -0.228605 0)
(5.003 -0.246867 0)
(4.94131 -0.25153 0)
(5.15308 -0.272699 0)
(5.09187 -0.278678 0)
(5.30657 -0.300056 0)
(5.23966 -0.304411 0)
(5.45594 -0.324469 0)
(5.38234 -0.326278 0)
(5.60355 -0.346631 0)
(5.52228 -0.348591 0)
(5.75036 -0.371095 0)
(5.65782 -0.375391 0)
(5.89339 -0.402661 0)
(5.78461 -0.410052 0)
(6.02537 -0.439971 0)
(5.89696 -0.446532 0)
(6.14393 -0.475698 0)
(6.00013 -0.47682 0)
(6.25573 -0.503816 0)
(6.10279 -0.498872 0)
(6.36952 -0.523581 0)
(6.2126 -0.513161 0)
(6.49449 -0.536406 0)
(6.33258 -0.524201 0)
(6.63212 -0.54965 0)
(6.45993 -0.538532 0)
(6.77807 -0.56774 0)
(6.58982 -0.557252 0)
(6.92459 -0.588266 0)
(6.71538 -0.577421 0)
(7.06838 -0.611774 0)
(6.84537 -0.602907 0)
(7.21518 -0.643317 0)
(6.99142 -0.636692 0)
(7.3637 -0.683358 0)
(7.14442 -0.677985 0)
(7.50187 -0.725946 0)
(7.27742 -0.718794 0)
(7.61982 -0.761663 0)
(7.38449 -0.750192 0)
(7.72612 -0.793424 0)
(7.47814 -0.775874 0)
(7.82436 -0.81762 0)
(7.56069 -0.794119 0)
(7.92658 -0.835696 0)
(7.64894 -0.807242 0)
(8.03902 -0.84844 0)
(7.75548 -0.81565 0)
(8.16773 -0.860323 0)
(7.87988 -0.821661 0)
(8.31551 -0.868063 0)
(8.0175 -0.823822 0)
(8.47582 -0.867698 0)
(8.16173 -0.823663 0)
(8.63714 -0.870192 0)
(8.31595 -0.827662 0)
(8.78369 -0.884824 0)
(8.47663 -0.844708 0)
(8.91347 -0.909308 0)
(8.62469 -0.871017 0)
(9.026 -0.936419 0)
(8.74899 -0.894797 0)
(9.11372 -0.956165 0)
(8.84042 -0.911452 0)
(9.17901 -0.969871 0)
(8.9108 -0.918632 0)
(9.22877 -0.973047 0)
(8.96708 -0.917199 0)
(9.27081 -0.971439 0)
(9.02947 -0.916985 0)
(9.32537 -0.975134 0)
(9.1045 -0.920624 0)
(9.40077 -0.986592 0)
(9.19444 -0.927394 0)
(9.48427 -0.991223 0)
(9.27979 -0.919663 0)
(9.55526 -0.988344 0)
(9.33665 -0.912463 0)
(9.60116 -0.985292 0)
(9.36294 -0.900395 0)
(9.61659 -0.973998 0)
(9.35727 -0.881862 0)
(9.58827 -0.950382 0)
(9.31798 -0.850327 0)
(9.53153 -0.91801 0)
(9.28013 -0.813371 0)
(9.48228 -0.880139 0)
(9.26031 -0.773617 0)
(9.44132 -0.839516 0)
(9.23623 -0.729181 0)
(9.40178 -0.791463 0)
(9.2123 -0.680381 0)
(9.37502 -0.743894 0)
(9.19235 -0.631382 0)
(9.35538 -0.697348 0)
(9.1629 -0.58464 0)
(9.33941 -0.647002 0)
(9.12133 -0.528459 0)
(9.31622 -0.583037 0)
(9.07915 -0.462039 0)
(9.28393 -0.51182 0)
(9.04472 -0.394411 0)
(9.24173 -0.445978 0)
(9.0178 -0.334096 0)
(9.20073 -0.391541 0)
(8.995 -0.283054 0)
(9.16114 -0.339104 0)
(8.97237 -0.23049 0)
(9.12448 -0.280162 0)
(8.94829 -0.172831 0)
(9.08467 -0.22462 0)
(8.9306 -0.12476 0)
(9.04153 -0.168768 0)
(8.91635 -0.0778685 0)
(9.00351 -0.122931 0)
(8.91077 -0.0367642 0)
(8.95903 -0.0666211 0)
(8.90036 0.0196485 0)
(8.90812 -0.0119946 0)
(8.89256 0.0731363 0)
(8.85822 0.038494 0)
(8.87909 0.126549 0)
(8.81938 0.0993043 0)
(8.86389 0.186922 0)
(8.78965 0.160191 0)
(8.84738 0.258897 0)
(8.77128 0.240009 0)
(8.81273 0.335068 0)
(8.75812 0.321683 0)
(8.78454 0.41683 0)
(8.75039 0.385049 0)
(8.74887 0.485023 0)
(8.74004 0.448672 0)
(8.69316 0.559461 0)
(8.71325 0.516739 0)
(8.61214 0.635892 0)
(8.69306 0.587592 0)
(8.53121 0.712344 0)
(8.64865 0.661096 0)
(8.43517 0.805817 0)
(8.58473 0.735624 0)
(8.3022 0.891696 0)
(8.5028 0.814821 0)
(8.13625 0.996464 0)
(8.40884 0.893748 0)
(7.97087 1.12295 0)
(8.32274 0.984842 0)
(7.79936 1.25093 0)
(8.26233 1.08022 0)
(7.64997 1.40129 0)
(8.19533 1.19943 0)
(7.52683 1.56769 0)
(8.11306 1.34008 0)
(7.41535 1.74136 0)
(7.98563 1.49089 0)
(7.30981 1.92065 0)
(7.81662 1.67445 0)
(7.17356 2.11601 0)
(7.63744 1.9111 0)
(6.98581 2.34121 0)
(7.45561 2.20496 0)
(6.74188 2.628 0)
(7.20745 2.57185 0)
(6.45963 3.04393 0)
(6.83124 3.0395 0)
(6.13688 3.73232 0)
(6.3505 3.75746 0)
(5.46734 4.84419 0)
(6.43999 5.37417 0)
(4.13122 8.31819 0)
(5.29335 -0.0656992 0)
(5.22119 -0.0319027 0)
(5.34293 -0.0468879 0)
(5.32728 -0.0774938 0)
(5.51966 -0.111251 0)
(5.51564 -0.118456 0)
(5.69393 -0.120997 0)
(5.64847 -0.108383 0)
(5.79794 -0.107121 0)
(5.72422 -0.101648 0)
(5.87271 -0.110776 0)
(5.79344 -0.112677 0)
(5.95535 -0.12631 0)
(5.8767 -0.128885 0)
(6.05167 -0.141753 0)
(5.97092 -0.143029 0)
(6.15676 -0.155543 0)
(6.07176 -0.155927 0)
(6.26731 -0.169201 0)
(6.17861 -0.169284 0)
(6.38281 -0.184043 0)
(6.28885 -0.186507 0)
(6.49861 -0.204082 0)
(6.39616 -0.208278 0)
(6.61097 -0.228236 0)
(6.49929 -0.233597 0)
(6.72001 -0.254345 0)
(6.59954 -0.258432 0)
(6.8265 -0.278717 0)
(6.69848 -0.281525 0)
(6.93382 -0.302453 0)
(6.79999 -0.305573 0)
(7.04495 -0.3287 0)
(6.90393 -0.331981 0)
(7.15599 -0.355562 0)
(7.00462 -0.356289 0)
(7.26211 -0.378774 0)
(7.09968 -0.376809 0)
(7.36328 -0.399721 0)
(7.19024 -0.397536 0)
(7.46177 -0.423012 0)
(7.27879 -0.422518 0)
(7.55924 -0.451733 0)
(7.36646 -0.452701 0)
(7.65521 -0.484362 0)
(7.45154 -0.484855 0)
(7.74723 -0.517279 0)
(7.53272 -0.514518 0)
(7.83606 -0.545091 0)
(7.61004 -0.538269 0)
(7.92332 -0.566841 0)
(7.68382 -0.556296 0)
(8.01172 -0.583705 0)
(7.75798 -0.570235 0)
(8.10318 -0.598936 0)
(7.8344 -0.584584 0)
(8.19708 -0.616373 0)
(7.91333 -0.602912 0)
(8.293 -0.638258 0)
(7.99667 -0.625761 0)
(8.39052 -0.665023 0)
(8.08593 -0.654075 0)
(8.48834 -0.698242 0)
(8.17983 -0.688182 0)
(8.58278 -0.735764 0)
(8.2748 -0.724663 0)
(8.6711 -0.771536 0)
(8.36268 -0.758156 0)
(8.7554 -0.804617 0)
(8.4435 -0.789289 0)
(8.83798 -0.833133 0)
(8.51571 -0.811395 0)
(8.91835 -0.854659 0)
(8.5855 -0.828741 0)
(8.99759 -0.875154 0)
(8.66056 -0.843259 0)
(9.07871 -0.892767 0)
(8.74345 -0.856415 0)
(9.16419 -0.907974 0)
(8.83095 -0.868225 0)
(9.2592 -0.919299 0)
(8.92386 -0.8734 0)
(9.35899 -0.92494 0)
(9.0262 -0.874085 0)
(9.45501 -0.927186 0)
(9.13505 -0.877185 0)
(9.54571 -0.937779 0)
(9.24408 -0.889939 0)
(9.62539 -0.955886 0)
(9.33918 -0.910091 0)
(9.69319 -0.974662 0)
(9.41381 -0.923607 0)
(9.73987 -0.985552 0)
(9.46146 -0.930991 0)
(9.76495 -0.990413 0)
(9.48871 -0.930741 0)
(9.77724 -0.988879 0)
(9.50914 -0.928243 0)
(9.79407 -0.990421 0)
(9.53988 -0.933189 0)
(9.82298 -1.00269 0)
(9.58428 -0.944462 0)
(9.86619 -1.02085 0)
(9.62802 -0.952179 0)
(9.9084 -1.0184 0)
(9.6607 -0.939659 0)
(9.93669 -1.00467 0)
(9.67511 -0.92179 0)
(9.93816 -0.992626 0)
(9.66255 -0.900526 0)
(9.90732 -0.966199 0)
(9.61714 -0.861556 0)
(9.84323 -0.925954 0)
(9.54878 -0.822543 0)
(9.77479 -0.894389 0)
(9.49298 -0.793158 0)
(9.71876 -0.865748 0)
(9.45129 -0.757772 0)
(9.67284 -0.824091 0)
(9.40732 -0.71387 0)
(9.63286 -0.778084 0)
(9.36153 -0.668097 0)
(9.59973 -0.733056 0)
(9.32 -0.616442 0)
(9.56934 -0.685611 0)
(9.27037 -0.56149 0)
(9.53417 -0.633512 0)
(9.21227 -0.502944 0)
(9.49153 -0.56801 0)
(9.15266 -0.43636 0)
(9.44064 -0.501444 0)
(9.09676 -0.370617 0)
(9.38743 -0.437112 0)
(9.05018 -0.311827 0)
(9.33734 -0.380546 0)
(8.99828 -0.258694 0)
(9.2854 -0.328086 0)
(8.95033 -0.209892 0)
(9.23459 -0.271498 0)
(8.91219 -0.15846 0)
(9.19695 -0.219782 0)
(8.87933 -0.107931 0)
(9.15916 -0.164506 0)
(8.85084 -0.0577563 0)
(9.12899 -0.121992 0)
(8.82782 -0.0108335 0)
(9.09269 -0.0646934 0)
(8.81326 0.0428286 0)
(9.06217 -0.0111004 0)
(8.81311 0.0920625 0)
(9.02605 0.0394954 0)
(8.81131 0.143275 0)
(8.98692 0.0928554 0)
(8.80463 0.202856 0)
(8.95663 0.154655 0)
(8.78803 0.276482 0)
(8.93873 0.229974 0)
(8.76525 0.358649 0)
(8.93581 0.304827 0)
(8.74983 0.444337 0)
(8.94216 0.364949 0)
(8.7181 0.521679 0)
(8.93824 0.437201 0)
(8.67754 0.600418 0)
(8.92744 0.50243 0)
(8.64159 0.67627 0)
(8.90853 0.562867 0)
(8.59816 0.774365 0)
(8.85746 0.639386 0)
(8.52938 0.885444 0)
(8.81291 0.716798 0)
(8.41741 0.992637 0)
(8.75706 0.799988 0)
(8.27235 1.1113 0)
(8.68536 0.878174 0)
(8.11755 1.23113 0)
(8.63988 0.957405 0)
(7.96738 1.3568 0)
(8.59725 1.04743 0)
(7.8381 1.50107 0)
(8.54831 1.17446 0)
(7.74189 1.66312 0)
(8.48223 1.32746 0)
(7.66083 1.83261 0)
(8.39504 1.49846 0)
(7.55847 2.00011 0)
(8.309 1.69938 0)
(7.41694 2.19603 0)
(8.20744 1.9351 0)
(7.26978 2.45934 0)
(8.05764 2.21064 0)
(7.15763 2.82407 0)
(7.83443 2.5493 0)
(7.02809 3.32323 0)
(7.58412 3.03879 0)
(6.74782 4.01339 0)
(7.60777 3.85667 0)
(6.08681 5.25677 0)
(8.50581 4.68831 0)
(6.54646 8.78358 0)
(7.96719 -0.0948628 0)
(7.85625 -0.0939017 0)
(7.99008 -0.116961 0)
(7.92383 -0.129935 0)
(8.12506 -0.145031 0)
(8.06866 -0.137235 0)
(8.25274 -0.135341 0)
(8.14805 -0.119852 0)
(8.30294 -0.12075 0)
(8.16946 -0.114006 0)
(8.327 -0.126202 0)
(8.1911 -0.127986 0)
(8.36584 -0.146081 0)
(8.23196 -0.149582 0)
(8.42217 -0.167821 0)
(8.28678 -0.169293 0)
(8.48832 -0.186116 0)
(8.34789 -0.185457 0)
(8.55716 -0.201849 0)
(8.41021 -0.20075 0)
(8.62617 -0.218513 0)
(8.4728 -0.218819 0)
(8.6952 -0.238882 0)
(8.53497 -0.240498 0)
(8.76403 -0.262478 0)
(8.59705 -0.264706 0)
(8.83309 -0.287539 0)
(8.6591 -0.289147 0)
(8.90176 -0.312041 0)
(8.71896 -0.312729 0)
(8.96817 -0.336236 0)
(8.77541 -0.336869 0)
(9.0319 -0.361875 0)
(8.82772 -0.362254 0)
(9.09158 -0.387767 0)
(8.87501 -0.386132 0)
(9.14726 -0.41088 0)
(8.91956 -0.406583 0)
(9.20127 -0.431446 0)
(8.96458 -0.426096 0)
(9.25617 -0.453345 0)
(9.01342 -0.448829 0)
(9.31349 -0.479984 0)
(9.0657 -0.47692 0)
(9.37212 -0.511244 0)
(9.11865 -0.508091 0)
(9.42893 -0.54317 0)
(9.16646 -0.537956 0)
(9.481 -0.571468 0)
(9.20806 -0.56186 0)
(9.52927 -0.592717 0)
(9.24339 -0.579161 0)
(9.57352 -0.609609 0)
(9.2745 -0.593325 0)
(9.61619 -0.625592 0)
(9.30711 -0.608182 0)
(9.66081 -0.644741 0)
(9.3462 -0.627978 0)
(9.70868 -0.669478 0)
(9.39226 -0.653067 0)
(9.75664 -0.697165 0)
(9.43964 -0.680812 0)
(9.80021 -0.72671 0)
(9.4815 -0.711235 0)
(9.83743 -0.758487 0)
(9.51435 -0.743319 0)
(9.8701 -0.792502 0)
(9.54407 -0.777357 0)
(9.90669 -0.828601 0)
(9.57466 -0.810305 0)
(9.94218 -0.85938 0)
(9.60391 -0.834506 0)
(9.97827 -0.880828 0)
(9.63449 -0.852719 0)
(10.0145 -0.901218 0)
(9.66679 -0.868692 0)
(10.0481 -0.918752 0)
(9.70153 -0.881497 0)
(10.0812 -0.935372 0)
(9.74247 -0.895691 0)
(10.1191 -0.949191 0)
(9.79101 -0.90306 0)
(10.1619 -0.956224 0)
(9.84655 -0.90227 0)
(10.2031 -0.956793 0)
(9.90523 -0.904456 0)
(10.2402 -0.961793 0)
(9.95436 -0.912232 0)
(10.2684 -0.974826 0)
(9.99069 -0.927163 0)
(10.2838 -0.986327 0)
(10.0096 -0.93293 0)
(10.2782 -0.991379 0)
(10.0082 -0.933759 0)
(10.2552 -0.990882 0)
(9.99592 -0.930629 0)
(10.2223 -0.991126 0)
(9.98285 -0.932409 0)
(10.2032 -0.999678 0)
(9.98259 -0.94264 0)
(10.1977 -1.01737 0)
(9.98915 -0.956883 0)
(10.1933 -1.03447 0)
(9.98291 -0.959548 0)
(10.1823 -1.02692 0)
(9.96923 -0.941993 0)
(10.1616 -1.00848 0)
(9.94696 -0.915134 0)
(10.1198 -0.981807 0)
(9.89909 -0.876789 0)
(10.0443 -0.939977 0)
(9.82432 -0.825107 0)
(9.95548 -0.894515 0)
(9.75859 -0.789862 0)
(9.88797 -0.869142 0)
(9.69952 -0.763541 0)
(9.8182 -0.842263 0)
(9.63174 -0.730071 0)
(9.75189 -0.805143 0)
(9.56955 -0.6872 0)
(9.69829 -0.762972 0)
(9.51173 -0.639828 0)
(9.64884 -0.719497 0)
(9.45134 -0.58768 0)
(9.5962 -0.669124 0)
(9.38654 -0.528986 0)
(9.5366 -0.614692 0)
(9.31634 -0.467635 0)
(9.46686 -0.550496 0)
(9.24454 -0.396546 0)
(9.39213 -0.482521 0)
(9.16469 -0.329119 0)
(9.32794 -0.422437 0)
(9.09114 -0.272011 0)
(9.26773 -0.36367 0)
(9.01609 -0.217919 0)
(9.20697 -0.313545 0)
(8.94838 -0.174882 0)
(9.14892 -0.264626 0)
(8.89386 -0.128644 0)
(9.10489 -0.220415 0)
(8.85444 -0.073121 0)
(9.05852 -0.169148 0)
(8.82731 -0.0259208 0)
(9.02878 -0.129312 0)
(8.80893 0.0219258 0)
(9.00467 -0.0727012 0)
(8.80197 0.0733304 0)
(8.99458 -0.0232399 0)
(8.807 0.12348 0)
(8.97571 0.0264694 0)
(8.82527 0.181837 0)
(8.95062 0.0758772 0)
(8.82435 0.241645 0)
(8.93164 0.139746 0)
(8.81179 0.321832 0)
(8.90711 0.201515 0)
(8.80073 0.399592 0)
(8.89752 0.26799 0)
(8.7837 0.480441 0)
(8.89319 0.342229 0)
(8.76033 0.564491 0)
(8.88077 0.413897 0)
(8.74343 0.643908 0)
(8.8693 0.472877 0)
(8.73002 0.728141 0)
(8.84587 0.536806 0)
(8.69014 0.83494 0)
(8.82788 0.626264 0)
(8.62028 0.951801 0)
(8.82633 0.712929 0)
(8.50947 1.07569 0)
(8.82589 0.806581 0)
(8.3663 1.20266 0)
(8.83067 0.886432 0)
(8.20981 1.32356 0)
(8.83619 0.956402 0)
(8.07124 1.4421 0)
(8.82045 1.04063 0)
(7.95443 1.57189 0)
(8.78356 1.15339 0)
(7.86943 1.7342 0)
(8.73814 1.30492 0)
(7.78673 1.91591 0)
(8.68619 1.47539 0)
(7.69336 2.11105 0)
(8.61861 1.66081 0)
(7.61952 2.34672 0)
(8.50217 1.86851 0)
(7.58071 2.63489 0)
(8.35476 2.1318 0)
(7.53901 3.00616 0)
(8.2858 2.50434 0)
(7.40417 3.47693 0)
(8.43768 3.01563 0)
(7.08747 4.23125 0)
(9.00095 3.52367 0)
(6.82007 5.80242 0)
(9.73197 3.61613 0)
(8.17635 8.06604 0)
(10.186 -0.127126 0)
(10.0633 -0.225786 0)
(10.2371 -0.274918 0)
(10.1498 -0.254894 0)
(10.3562 -0.229453 0)
(10.2546 -0.183725 0)
(10.4351 -0.164167 0)
(10.2884 -0.136408 0)
(10.4482 -0.137477 0)
(10.2806 -0.126596 0)
(10.4461 -0.141925 0)
(10.2776 -0.140545 0)
(10.4585 -0.162831 0)
(10.2914 -0.163915 0)
(10.4853 -0.187055 0)
(10.3159 -0.186077 0)
(10.5185 -0.207427 0)
(10.3434 -0.203599 0)
(10.5527 -0.223811 0)
(10.3714 -0.218784 0)
(10.5872 -0.239863 0)
(10.3998 -0.235529 0)
(10.6218 -0.258918 0)
(10.4282 -0.255831 0)
(10.6558 -0.281409 0)
(10.4559 -0.278934 0)
(10.6883 -0.30566 0)
(10.482 -0.302604 0)
(10.7183 -0.329605 0)
(10.505 -0.325544 0)
(10.7443 -0.352794 0)
(10.5237 -0.348027 0)
(10.766 -0.375908 0)
(10.5375 -0.370827 0)
(10.7837 -0.399245 0)
(10.5472 -0.393203 0)
(10.7991 -0.421573 0)
(10.5555 -0.41458 0)
(10.8158 -0.443632 0)
(10.5661 -0.436231 0)
(10.8359 -0.467294 0)
(10.5806 -0.460953 0)
(10.8593 -0.495305 0)
(10.5977 -0.489816 0)
(10.8828 -0.526745 0)
(10.6135 -0.520644 0)
(10.9023 -0.557977 0)
(10.6248 -0.548645 0)
(10.9156 -0.584733 0)
(10.6305 -0.570647 0)
(10.924 -0.604515 0)
(10.6339 -0.585516 0)
(10.9296 -0.618378 0)
(10.6357 -0.597252 0)
(10.9342 -0.632441 0)
(10.6395 -0.612178 0)
(10.9411 -0.652029 0)
(10.6469 -0.633016 0)
(10.9489 -0.676448 0)
(10.6529 -0.656987 0)
(10.9517 -0.702424 0)
(10.6528 -0.681966 0)
(10.9462 -0.72919 0)
(10.6446 -0.708282 0)
(10.9319 -0.757016 0)
(10.6288 -0.738101 0)
(10.9148 -0.792118 0)
(10.6114 -0.776011 0)
(10.8991 -0.829723 0)
(10.5917 -0.809215 0)
(10.8811 -0.861276 0)
(10.5676 -0.834606 0)
(10.8604 -0.883579 0)
(10.5469 -0.854196 0)
(10.839 -0.902826 0)
(10.5237 -0.87062 0)
(10.8149 -0.919463 0)
(10.5065 -0.885963 0)
(10.7984 -0.939225 0)
(10.5041 -0.903117 0)
(10.7893 -0.954457 0)
(10.511 -0.913815 0)
(10.7832 -0.960911 0)
(10.5193 -0.913138 0)
(10.7781 -0.96193 0)
(10.5257 -0.912557 0)
(10.7668 -0.96258 0)
(10.523 -0.919879 0)
(10.7502 -0.973674 0)
(10.5134 -0.928329 0)
(10.7191 -0.978144 0)
(10.4867 -0.924385 0)
(10.6702 -0.975002 0)
(10.4466 -0.918309 0)
(10.614 -0.972001 0)
(10.4038 -0.913771 0)
(10.5547 -0.975722 0)
(10.3641 -0.921504 0)
(10.5068 -0.99077 0)
(10.3282 -0.934652 0)
(10.4652 -1.00827 0)
(10.2893 -0.946529 0)
(10.4179 -1.02362 0)
(10.2455 -0.947576 0)
(10.3698 -1.018 0)
(10.1986 -0.929595 0)
(10.3125 -0.99616 0)
(10.1395 -0.892935 0)
(10.2353 -0.956206 0)
(10.059 -0.841236 0)
(10.1296 -0.900238 0)
(9.96301 -0.787704 0)
(10.0341 -0.867216 0)
(9.89476 -0.764173 0)
(9.95009 -0.843738 0)
(9.81626 -0.732003 0)
(9.85772 -0.8113 0)
(9.72038 -0.693261 0)
(9.76063 -0.779045 0)
(9.63137 -0.650091 0)
(9.68014 -0.742972 0)
(9.55053 -0.603925 0)
(9.61307 -0.697925 0)
(9.46412 -0.553057 0)
(9.54621 -0.646942 0)
(9.37701 -0.498848 0)
(9.47029 -0.590184 0)
(9.29041 -0.431568 0)
(9.38672 -0.521762 0)
(9.20258 -0.358004 0)
(9.30264 -0.452864 0)
(9.11171 -0.292505 0)
(9.22623 -0.395611 0)
(9.02261 -0.23439 0)
(9.15586 -0.338414 0)
(8.93491 -0.182117 0)
(9.09157 -0.290836 0)
(8.85027 -0.141566 0)
(9.02892 -0.248448 0)
(8.77928 -0.0996647 0)
(8.97928 -0.210934 0)
(8.72236 -0.0453837 0)
(8.9413 -0.167294 0)
(8.69033 -0.00435575 0)
(8.92714 -0.135169 0)
(8.67205 0.0439258 0)
(8.91703 -0.0878559 0)
(8.67118 0.0906223 0)
(8.92586 -0.0463978 0)
(8.67711 0.138447 0)
(8.94106 -0.00191556 0)
(8.68762 0.199551 0)
(8.96049 0.0553859 0)
(8.67564 0.260993 0)
(8.96911 0.122626 0)
(8.67202 0.344647 0)
(8.95593 0.188914 0)
(8.65917 0.431967 0)
(8.95251 0.263904 0)
(8.61983 0.501351 0)
(8.95589 0.324891 0)
(8.60249 0.588425 0)
(8.96668 0.381231 0)
(8.56709 0.667369 0)
(8.9933 0.443828 0)
(8.51765 0.76615 0)
(9.00164 0.5179 0)
(8.44412 0.876232 0)
(9.02607 0.602927 0)
(8.36889 0.99951 0)
(9.05395 0.685146 0)
(8.28567 1.13421 0)
(9.07519 0.777715 0)
(8.19284 1.26531 0)
(9.10121 0.851698 0)
(8.10849 1.38122 0)
(9.08892 0.927985 0)
(8.04319 1.50573 0)
(9.04341 1.01634 0)
(7.99551 1.64835 0)
(8.982 1.11925 0)
(7.95842 1.81965 0)
(8.9303 1.25783 0)
(7.93494 2.01678 0)
(8.87734 1.41819 0)
(7.92315 2.22674 0)
(8.8196 1.59561 0)
(7.91433 2.46625 0)
(8.79162 1.81558 0)
(7.864 2.75539 0)
(8.84667 2.08351 0)
(7.74295 3.12765 0)
(9.06151 2.40893 0)
(7.55733 3.68005 0)
(9.47334 2.69103 0)
(7.4211 4.61723 0)
(10.0636 2.81393 0)
(7.7742 6.01683 0)
(10.3329 3.03742 0)
(9.16558 7.06948 0)
(11.6545 -0.111261 0)
(11.5687 -0.238734 0)
(11.7942 -0.307096 0)
(11.7514 -0.283249 0)
(11.9362 -0.253969 0)
(11.829 -0.19332 0)
(11.9679 -0.170315 0)
(11.8193 -0.134361 0)
(11.9458 -0.139209 0)
(11.7867 -0.124539 0)
(11.9217 -0.145452 0)
(11.7648 -0.140435 0)
(11.913 -0.167997 0)
(11.7589 -0.165134 0)
(11.918 -0.19348 0)
(11.7631 -0.18857 0)
(11.9293 -0.215079 0)
(11.7705 -0.207171 0)
(11.942 -0.232265 0)
(11.778 -0.222805 0)
(11.9539 -0.248478 0)
(11.7841 -0.239378 0)
(11.9636 -0.26718 0)
(11.7873 -0.259141 0)
(11.9701 -0.289092 0)
(11.7871 -0.281528 0)
(11.9729 -0.312681 0)
(11.7836 -0.304419 0)
(11.9727 -0.335957 0)
(11.778 -0.326299 0)
(11.9704 -0.357864 0)
(11.771 -0.346858 0)
(11.9664 -0.379007 0)
(11.7634 -0.367229 0)
(11.9612 -0.400213 0)
(11.7553 -0.387956 0)
(11.9556 -0.422039 0)
(11.7477 -0.409713 0)
(11.9509 -0.445192 0)
(11.7411 -0.43335 0)
(11.9473 -0.470889 0)
(11.7349 -0.460033 0)
(11.9438 -0.499857 0)
(11.7276 -0.489505 0)
(11.9384 -0.530802 0)
(11.7173 -0.519096 0)
(11.9287 -0.560194 0)
(11.7028 -0.545251 0)
(11.9133 -0.584743 0)
(11.6832 -0.565312 0)
(11.8915 -0.602887 0)
(11.6599 -0.579363 0)
(11.8667 -0.61643 0)
(11.638 -0.591646 0)
(11.8434 -0.631214 0)
(11.619 -0.60742 0)
(11.8205 -0.649877 0)
(11.5976 -0.626676 0)
(11.7928 -0.670709 0)
(11.5681 -0.647775 0)
(11.7588 -0.693539 0)
(11.5293 -0.670166 0)
(11.7182 -0.716592 0)
(11.4814 -0.691976 0)
(11.6724 -0.741548 0)
(11.4304 -0.720044 0)
(11.6258 -0.775185 0)
(11.3756 -0.754529 0)
(11.5692 -0.809904 0)
(11.3127 -0.784466 0)
(11.5043 -0.837803 0)
(11.2442 -0.80803 0)
(11.4358 -0.860527 0)
(11.1788 -0.827583 0)
(11.3648 -0.878874 0)
(11.113 -0.845444 0)
(11.2952 -0.89959 0)
(11.0592 -0.869 0)
(11.2426 -0.926297 0)
(11.0207 -0.891445 0)
(11.1975 -0.944668 0)
(10.9865 -0.904324 0)
(11.152 -0.950263 0)
(10.9525 -0.906027 0)
(11.1102 -0.951271 0)
(10.9141 -0.903696 0)
(11.0689 -0.951487 0)
(10.8759 -0.909084 0)
(11.0229 -0.958924 0)
(10.8313 -0.907319 0)
(10.9619 -0.953242 0)
(10.7691 -0.897078 0)
(10.8945 -0.949221 0)
(10.7039 -0.890646 0)
(10.827 -0.949173 0)
(10.6409 -0.887534 0)
(10.7576 -0.956821 0)
(10.5815 -0.895427 0)
(10.685 -0.973089 0)
(10.52 -0.909664 0)
(10.6158 -0.99013 0)
(10.4588 -0.920553 0)
(10.5482 -1.00455 0)
(10.3963 -0.920617 0)
(10.4734 -0.992895 0)
(10.3198 -0.897031 0)
(10.3795 -0.962514 0)
(10.228 -0.852088 0)
(10.2641 -0.913375 0)
(10.1161 -0.789064 0)
(10.1312 -0.853412 0)
(10.0177 -0.748014 0)
(10.025 -0.83381 0)
(9.92298 -0.722387 0)
(9.9061 -0.803572 0)
(9.8129 -0.68028 0)
(9.77953 -0.766058 0)
(9.68862 -0.635902 0)
(9.66005 -0.738897 0)
(9.57056 -0.598816 0)
(9.55721 -0.711192 0)
(9.46028 -0.556956 0)
(9.46835 -0.666674 0)
(9.3539 -0.506357 0)
(9.38097 -0.615462 0)
(9.24888 -0.451051 0)
(9.28142 -0.558978 0)
(9.14765 -0.383103 0)
(9.18606 -0.490122 0)
(9.04855 -0.308789 0)
(9.10052 -0.421037 0)
(8.95421 -0.247221 0)
(9.01658 -0.363359 0)
(8.86021 -0.188811 0)
(8.93997 -0.312083 0)
(8.77087 -0.137228 0)
(8.87196 -0.265105 0)
(8.67765 -0.0930756 0)
(8.80448 -0.231421 0)
(8.5927 -0.0539682 0)
(8.75324 -0.199553 0)
(8.52101 -0.0132097 0)
(8.72845 -0.17171 0)