/*--------------------------------*- C++ -*----------------------------------*\
| =========                 |                                                 |
| \\      /  F ield         | OpenFOAM: The Open Source CFD Toolbox           |
|  \\    /   O peration     | Version:  2.4.0                                 |
|   \\  /    A nd           | Web:      www.OpenFOAM.org                      |
|    \\/     M anipulation  |                                                 |
\*---------------------------------------------------------------------------*/
FoamFile
{
    version     2.0;
    format      ascii;
    class       volScalarField;
    location    "1.83";
    object      k;
}
// * * * * * * * * * * * * * * * * * * * * * * * * * * * * * * * * * * * * * //

dimensions      [0 2 -2 0 0 0 0];

internalField   nonuniform List<scalar> 
8800
(
8.1119
10.2779
8.77952
6.84501
5.67628
5.01272
4.48105
4.19445
3.86054
3.722
3.48462
3.4213
3.23612
3.20791
3.04284
3.02332
2.87867
2.8483
2.78536
2.5719
1.38962
4.36665
5.30698
5.29394
5.10568
4.86178
4.51958
4.34892
4.05918
3.94146
3.71576
3.64029
3.4644
3.42159
3.28425
3.24674
3.14012
3.09946
2.99357
2.99677
0.0832332
0.749998
1.53927
1.96835
2.24007
2.47227
2.54619
2.62389
2.61363
2.61062
2.57714
2.55853
2.50908
2.49002
2.45212
2.41698
2.39892
2.36617
2.30845
2.29672
0.00327494
0.0716655
0.240672
0.440345
0.571332
0.710436
0.833489
0.930153
1.0272
1.0937
1.16599
1.20682
1.26975
1.29217
1.35184
1.36509
1.40756
1.41536
1.43657
1.42898
0.000118336
0.00511097
0.0207617
0.0545424
0.0900815
0.115366
0.16957
0.197574
0.251355
0.277959
0.326433
0.349796
0.399075
0.418672
0.46961
0.491056
0.53632
0.559682
0.605785
0.622134
2.5573e-05
0.000326941
0.00138874
0.00409257
0.00819217
0.0111936
0.0187443
0.023876
0.035077
0.0421265
0.0530385
0.061311
0.0760652
0.0821825
0.0956638
0.110294
0.119485
0.137157
0.150232
0.171919
2.21337e-05
4.59193e-05
0.000116726
0.000334194
0.000566042
0.000765602
0.00129165
0.00171954
0.00254696
0.00389961
0.0045288
0.00608184
0.00799734
0.00887569
0.0103838
0.0144477
0.0158305
0.0192912
0.0218636
0.0300106
2.13842e-05
3.1318e-05
4.30745e-05
7.60643e-05
9.97399e-05
0.000120657
0.000138319
0.000169888
0.000197115
0.000283953
0.000315063
0.000463511
0.000525443
0.000616259
0.000705936
0.00110225
0.00117039
0.00156466
0.00190731
0.00345225
2.11141e-05
3.11688e-05
3.97986e-05
5.88234e-05
6.92224e-05
7.55748e-05
8.05037e-05
8.5567e-05
8.59955e-05
9.09858e-05
9.33933e-05
0.000104085
0.000106367
0.000110616
0.000113526
0.000129066
0.000131957
0.000157575
0.00017866
0.000293701
2.05439e-05
3.10421e-05
4.51932e-05
4.95738e-05
5.97804e-05
6.56693e-05
7.03326e-05
7.68882e-05
7.71234e-05
7.6678e-05
7.60309e-05
7.59916e-05
7.69552e-05
8.06009e-05
8.17937e-05
8.19784e-05
8.17412e-05
8.26983e-05
8.46973e-05
9.12715e-05
2.04745e-05
3.48516e-05
4.26575e-05
4.93366e-05
6.32967e-05
6.6152e-05
7.18864e-05
7.36292e-05
7.22699e-05
7.30702e-05
7.22397e-05
7.24451e-05
7.55529e-05
7.95162e-05
8.01404e-05
8.18655e-05
8.27991e-05
8.25993e-05
8.25281e-05
8.65244e-05
2.07185e-05
3.17804e-05
3.91551e-05
5.93049e-05
6.99226e-05
7.65563e-05
7.8432e-05
7.82091e-05
7.86361e-05
8.05109e-05
8.49381e-05
0.000100185
0.000104652
0.000110198
0.00011269
0.000118817
0.000125077
0.000138567
0.000152516
0.000182963
2.10135e-05
2.91968e-05
4.31288e-05
8.13934e-05
9.73331e-05
0.000116067
0.00013153
0.000176241
0.000204003
0.00027499
0.000327184
0.000442059
0.000501485
0.000672252
0.00076547
0.000976565
0.00112789
0.00148289
0.00171581
0.00220235
2.16387e-05
4.28733e-05
0.000118006
0.000361562
0.000535049
0.000903221
0.00123577
0.0020491
0.00254746
0.00382754
0.00462407
0.00644025
0.0073879
0.00972593
0.0109308
0.0137956
0.0155359
0.0195805
0.0219632
0.0283609
2.49688e-05
0.000306527
0.00142365
0.00478521
0.0074712
0.0129347
0.0172746
0.0269676
0.0322639
0.0445977
0.0510554
0.0650535
0.0715409
0.0866396
0.09377
0.110781
0.119782
0.141168
0.1524
0.183752
0.00012408
0.00492786
0.0215451
0.0565709
0.0873181
0.123807
0.159398
0.210748
0.236284
0.28957
0.314361
0.363626
0.384709
0.432331
0.453281
0.503002
0.525863
0.581837
0.607944
0.677365
0.00337529
0.0696078
0.256563
0.421074
0.588503
0.696364
0.836508
0.933266
1.01947
1.09713
1.15885
1.21776
1.25214
1.30704
1.32991
1.3787
1.39741
1.44587
1.46525
1.51319
0.0847027
0.72798
1.5656
1.93863
2.28438
2.42414
2.58311
2.59756
2.62465
2.59855
2.58903
2.53967
2.52321
2.47325
2.45922
2.41706
2.40635
2.37755
2.36688
2.34074
1.40787
4.34676
5.32126
5.28497
5.13168
4.79759
4.5875
4.2747
4.13209
3.86923
3.77925
3.57735
3.52238
3.3678
3.33207
3.20569
3.17844
3.06298
3.02817
2.93298
8.1228
10.2575
8.79757
6.81221
5.71514
4.96014
4.53851
4.12907
3.92933
3.64999
3.55666
3.34892
3.30816
3.13942
3.11313
2.95486
2.92875
2.75947
2.70646
2.50059
1.80858
1.34946
1.02137
0.790978
0.620647
0.500881
0.416319
0.360669
0.323323
0.301793
0.290194
0.288685
0.289416
0.291438
0.292638
0.29357
0.293968
0.294971
0.297464
0.304445
0.314813
0.330713
0.346745
0.366129
0.382415
0.400435
0.410235
0.4226
0.428992
0.435529
0.437765
0.440019
0.441022
0.443233
0.444567
0.446194
0.447674
0.448391
0.448447
0.448377
0.448173
0.446839
0.446448
0.444466
0.443713
0.441211
0.439346
0.437451
0.434951
0.430992
0.423142
0.402773
0.372159
0.32741
0.276916
0.231493
0.203281
0.178563
0.162125
0.150353
0.141812
0.139231
0.139961
0.143703
0.153618
0.170015
0.195485
0.227297
0.255658
0.279986
0.296356
0.299137
0.298639
0.295654
0.287365
0.274941
0.249551
0.221598
0.182239
0.141852
0.0990349
0.0671085
0.0459859
0.0320392
0.0228937
0.0167663
0.0125113
0.00968053
0.00783727
0.00642262
0.00565905
0.00495313
0.00469879
0.00471924
0.00485485
0.00522775
0.00559783
0.00642728
0.00716138
0.00814419
0.0106382
0.0131937
0.0142848
0.0145519
0.0156316
0.0164708
0.0164506
0.0160737
0.0151673
0.0131375
0.0119725
0.0126813
0.0155272
0.0173679
0.0175822
0.0167344
0.0154795
0.0153277
0.0159605
0.0187582
0.0278282
0.0539486
0.115214
0.170612
0.193105
0.195337
0.192692
0.193829
0.199809
0.205025
0.20933
0.205227
0.207646
0.207519
0.213493
0.212502
0.214704
0.220699
0.220498
0.223356
0.222771
0.213438
0.18921
0.167166
0.147941
0.127324
0.117924
0.104541
0.0969713
0.090085
0.0808616
0.0728745
0.0671159
0.0631136
0.0598601
0.05323
0.050165
0.0452935
0.0416715
0.0415177
0.0400322
0.0392582
0.0379455
0.0373529
0.0370887
0.0354561
0.0318417
0.0288719
0.0262649
0.0253987
0.0260918
0.0316436
0.0363984
0.0369676
0.0327801
0.0231152
0.0160215
0.0125528
0.0117947
0.0119275
0.0128353
0.0163843
0.0297011
0.0399172
0.0463466
0.0457443
0.045101
0.0448396
0.0464223
0.0520971
0.0557826
0.0601864
0.0660814
0.0659484
0.0676589
0.0651657
0.0699216
0.0750731
0.112701
0.343474
2.55643
2.10578
1.75735
1.50628
1.31285
1.1654
1.04698
0.955037
0.877475
0.816404
0.765442
0.729017
0.696524
0.673696
0.651124
0.63444
0.61613
0.603453
0.587631
0.578499
0.566337
0.560828
0.553013
0.549775
0.544843
0.542432
0.538223
0.534963
0.532254
0.527249
0.523314
0.518311
0.513815
0.509871
0.505749
0.50266
0.498662
0.496554
0.493229
0.489266
0.487848
0.483777
0.48273
0.480474
0.480227
0.4807
0.482142
0.483641
0.488643
0.488853
0.48889
0.487472
0.483111
0.469745
0.45757
0.435986
0.408859
0.378504
0.355164
0.336788
0.32293
0.311252
0.310978
0.312762
0.319211
0.324442
0.327609
0.32715
0.326003
0.322152
0.317005
0.305162
0.290395
0.261109
0.236598
0.196741
0.15612
0.110582
0.0742556
0.0496139
0.0330865
0.0222315
0.0151459
0.0105374
0.00757461
0.00562562
0.00431563
0.00343942
0.00284799
0.00247202
0.00224887
0.00211832
0.00208144
0.00209581
0.00212774
0.00219861
0.002265
0.002328
0.00240836
0.00268614
0.00296771
0.0033087
0.00343661
0.00365989
0.00379733
0.00405944
0.00459348
0.00491664
0.00583862
0.00637771
0.0072094
0.0101545
0.0120129
0.0128404
0.013796
0.014257
0.0151876
0.0168174
0.0199256
0.0271477
0.0460911
0.0950421
0.154416
0.193797
0.201365
0.19848
0.189027
0.189924
0.193874
0.19893
0.193636
0.186541
0.189511
0.185622
0.192461
0.186354
0.188209
0.191777
0.196243
0.205227
0.208209
0.208362
0.19662
0.18822
0.170642
0.158513
0.138151
0.132788
0.120614
0.115247
0.102102
0.0880964
0.0760648
0.0675303
0.0653803
0.0594476
0.0551858
0.0542921
0.0506834
0.0480595
0.0440951
0.0422623
0.0417145
0.0413048
0.0413773
0.0374286
0.0319336
0.0289276
0.0267905
0.0263845
0.0283581
0.0347628
0.0366442
0.0360797
0.030525
0.022768
0.0163694
0.012787
0.0114237
0.0115296
0.0122285
0.0135578
0.0196188
0.0307513
0.0404549
0.0427111
0.0425831
0.0416278
0.0421307
0.0440051
0.0514594
0.0552784
0.0646989
0.0646568
0.0669061
0.0648732
0.0662449
0.0691526
0.0754324
0.134276
2.08734
1.86556
1.65639
1.48129
1.33755
1.22256
1.12988
1.0527
0.987863
0.931605
0.881411
0.838641
0.798271
0.766514
0.734545
0.71184
0.68605
0.668235
0.646993
0.631333
0.613572
0.59891
0.58444
0.571034
0.559892
0.548363
0.538224
0.529255
0.518371
0.509734
0.49912
0.490194
0.478208
0.472168
0.459723
0.453014
0.445651
0.437244
0.434116
0.427933
0.424394
0.421853
0.420168
0.418747
0.418482
0.418883
0.420074
0.423452
0.426865
0.432295
0.441675
0.445478
0.453624
0.454578
0.454133
0.451634
0.445135
0.435976
0.42956
0.417354
0.408567
0.397469
0.389728
0.3811
0.369002
0.359916
0.344983
0.332539
0.316418
0.289516
0.264297
0.234315
0.19323
0.15535
0.113211
0.0784255
0.0533368
0.035927
0.023988
0.0159965
0.0106738
0.00727735
0.0050742
0.00371176
0.00288496
0.00235586
0.00201045
0.00180395
0.00169146
0.00165929
0.00166002
0.00169005
0.00172251
0.00179824
0.00185784
0.00189137
0.00190681
0.00196849
0.00197561
0.00197835
0.00194967
0.00192083
0.00192612
0.00194597
0.00198881
0.00218093
0.00247054
0.00291279
0.00395762
0.00452024
0.00615707
0.00854643
0.00919081
0.010422
0.0121171
0.0136587
0.0176233
0.0217368
0.028083
0.041486
0.0779355
0.132063
0.181555
0.202528
0.202524
0.187631
0.173947
0.177912
0.178871
0.179392
0.171518
0.175421
0.172804
0.178524
0.179097
0.177046
0.171398
0.172093
0.179772
0.186658
0.190819
0.197786
0.195784
0.194231
0.173475
0.165422
0.146096
0.13985
0.131431
0.124142
0.119526
0.105483
0.0968603
0.0790364
0.0716094
0.0680273
0.0607051
0.05984
0.0569041
0.0518911
0.0513963
0.0514971
0.0533751
0.0494379
0.0415909
0.037645
0.0331239
0.032238
0.031321
0.0309103
0.0316994
0.0362996
0.038
0.0361855
0.0287434
0.0223649
0.0168518
0.0133129
0.0117724
0.0118011
0.0128448
0.0132243
0.0150435
0.0209058
0.0329349
0.0388164
0.0399142
0.0394131
0.0394398
0.0400148
0.0449711
0.048284
0.0571481
0.0595295
0.0616188
0.0630592
0.0618273
0.0629394
0.0620946
0.0737593
1.34237
1.24998
1.16542
1.0812
1.00636
0.935281
0.877515
0.831432
0.792085
0.759207
0.727831
0.694041
0.662644
0.631393
0.599923
0.576353
0.550036
0.53041
0.512131
0.491898
0.478478
0.460067
0.446723
0.432879
0.420493
0.410752
0.400298
0.393334
0.382286
0.374416
0.36231
0.351577
0.338551
0.326579
0.314872
0.303148
0.294809
0.284713
0.278675
0.272821
0.268195
0.265464
0.264691
0.265192
0.267203
0.27065
0.274856
0.280804
0.284816
0.290252
0.298835
0.304945
0.312256
0.326362
0.334092
0.344119
0.350997
0.353036
0.352098
0.348936
0.340839
0.333337
0.320707
0.305037
0.287469
0.268815
0.244615
0.217949
0.186404
0.15627
0.123726
0.0928112
0.0682301
0.048853
0.0345205
0.0240473
0.0164479
0.0112065
0.00759159
0.00518568
0.00364913
0.00271255
0.00214438
0.00184833
0.00169516
0.00163151
0.001571
0.00157866
0.00163018
0.00170742
0.00189389
0.00211496
0.00231622
0.00265015
0.00276898
0.0029998
0.00318468
0.00318559
0.00312805
0.00297166
0.00266234
0.00238652
0.00220511
0.00216348
0.0021896
0.00232459
0.00245343
0.00288049
0.00339777
0.00403626
0.00626084
0.00731882
0.00808873
0.00982974
0.011809
0.0168103
0.0242347
0.030011
0.0390643
0.0600263
0.108739
0.159103
0.19397
0.203372
0.193085
0.161286
0.154517
0.159148
0.166438
0.171773
0.169225
0.177943
0.176404
0.190587
0.181034
0.182734
0.167504
0.168748
0.162932
0.169161
0.178631
0.190857
0.195827
0.193984
0.178212
0.163274
0.155758
0.137359
0.133093
0.122966
0.122164
0.114758
0.109429
0.0965195
0.0825851
0.0800217
0.0727061
0.0721831
0.0715751
0.0666799
0.0660887
0.0621517
0.0556209
0.0521198
0.0430248
0.0398542
0.0381093
0.0387974
0.0399646
0.0387932
0.0358495
0.0360726
0.0366934
0.0339013
0.0259436
0.0224459
0.0186367
0.015427
0.0128438
0.0125028
0.0132999
0.0135178
0.0140406
0.0157704
0.0239823
0.0332721
0.0370783
0.0376463
0.0376066
0.0376952
0.0391913
0.0452349
0.0498331
0.0539339
0.0549364
0.0575026
0.0561458
0.0572472
0.0557195
0.0578213
0.601764
0.578402
0.557982
0.532621
0.509224
0.484071
0.45673
0.438016
0.42087
0.408999
0.402703
0.391494
0.382633
0.367705
0.350444
0.333362
0.314471
0.298695
0.2845
0.271998
0.260227
0.24971
0.237498
0.226152
0.215251
0.2051
0.197915
0.191559
0.187665
0.183258
0.179423
0.174535
0.167873
0.16139
0.153396
0.145157
0.138988
0.131111
0.124631
0.120262
0.114974
0.111278
0.107734
0.10641
0.106617
0.107849
0.109944
0.11539
0.121162
0.129104
0.135286
0.143254
0.15013
0.153831
0.160434
0.165648
0.167231
0.169663
0.169656
0.16803
0.163593
0.157592
0.146511
0.134239
0.120499
0.104099
0.0878456
0.0725069
0.0579433
0.045409
0.0347518
0.0259101
0.019205
0.0138978
0.00996364
0.00713652
0.00499411
0.0035402
0.00256842
0.00198621
0.00166542
0.0015617
0.00151985
0.00152652
0.00157557
0.00168983
0.00184416
0.00216443
0.00259723
0.00297053
0.00387079
0.00435368
0.00507651
0.00603975
0.00654285
0.00727177
0.00773597
0.00768908
0.00751465
0.00708532
0.00630217
0.00572917
0.00528165
0.00463154
0.00425843
0.00418858
0.00426337
0.00487189
0.00532059
0.00661535
0.00764919
0.00805363
0.00887309
0.0105967
0.0144318
0.0243508
0.032582
0.0397221
0.0512257
0.0840287
0.132757
0.175554
0.197734
0.19691
0.173865
0.146336
0.148517
0.156365
0.169117
0.18008
0.19201
0.207715
0.213102
0.234686
0.206798
0.19742
0.169521
0.169914
0.158716
0.158907
0.157697
0.15379
0.156689
0.158287
0.169124
0.16097
0.161077
0.143095
0.139054
0.126669
0.12156
0.117546
0.10914
0.10469
0.0910208
0.0901913
0.0862642
0.080851
0.0837017
0.0784407
0.0718915
0.0682719
0.0555794
0.0552248
0.052058
0.0523953
0.0519575
0.0452452
0.0418068
0.0386212
0.0371207
0.035681
0.0318818
0.0278021
0.0232385
0.0214589
0.0190893
0.0163899
0.0143233
0.0135002
0.0140594
0.0142669
0.0144511
0.0148025
0.0170311
0.0254531
0.0315913
0.0345138
0.0352299
0.0355791
0.036226
0.0416118
0.0464227
0.0513775
0.0519903
0.0533135
0.052081
0.0524266
0.0508126
0.0509903
0.169596
0.166797
0.163248
0.159161
0.153704
0.148768
0.141314
0.134789
0.129641
0.126908
0.126682
0.126483
0.126482
0.126096
0.124853
0.122038
0.1133
0.106213
0.0984604
0.0926437
0.0878695
0.084338
0.0802711
0.0758388
0.0712748
0.0660024
0.0621617
0.0586415
0.0561815
0.0546881
0.0537017
0.0530834
0.0524257
0.05153
0.049719
0.0477184
0.0452406
0.0425518
0.0398356
0.0376194
0.0354057
0.0337285
0.0319835
0.0306226
0.0303622
0.0304358
0.0307784
0.0317824
0.0341467
0.0357893
0.0397386
0.0434616
0.0466703
0.0499353
0.0527897
0.0550234
0.0561736
0.0561627
0.0556444
0.0541423
0.0512708
0.0475865
0.0429817
0.037883
0.0328631
0.0276035
0.022728
0.018384
0.0144497
0.0112578
0.00867965
0.00657767
0.00500419
0.00375633
0.00282489
0.00213347
0.00166633
0.00139258
0.0013062
0.00130675
0.00134214
0.0014761
0.00169319
0.0019617
0.00267808
0.00324354
0.00394509
0.00527439
0.00610018
0.00764848
0.00954818
0.0106867
0.0126147
0.0149107
0.0159141
0.0172268
0.0178034
0.0176939
0.0173511
0.0165372
0.0151322
0.0140542
0.0126532
0.0108969
0.00953006
0.00886523
0.00894292
0.00920948
0.00977803
0.0118517
0.0122752
0.012884
0.0142146
0.0164937
0.02226
0.0342023
0.042825
0.0504363
0.0651375
0.108183
0.155317
0.183453
0.187006
0.171344
0.142517
0.139773
0.149327
0.168771
0.196764
0.218058
0.245172
0.262612
0.282856
0.274243
0.220368
0.195849
0.173247
0.170965
0.161298
0.161169
0.158101
0.148545
0.144731
0.134958
0.136916
0.135006
0.143669
0.138935
0.138161
0.134477
0.123574
0.119868
0.109342
0.106527
0.0947813
0.0906681
0.0918575
0.0850336
0.0848775
0.0826333
0.0719517
0.0713178
0.0662399
0.0621531
0.0633834
0.0592044
0.0567583
0.0496944
0.0411695
0.0370968
0.033519
0.0322919
0.0296514
0.0266114
0.0228141
0.0209202
0.01933
0.0184808
0.017909
0.01672
0.0169099
0.0167946
0.0160973
0.0153966
0.015876
0.0193965
0.0262358
0.0309741
0.0327617
0.0337545
0.0340572
0.0364735
0.04159
0.0477884
0.0484063
0.0499345
0.0491548
0.049594
0.0490113
0.0476575
0.0299615
0.0295895
0.0286001
0.0280661
0.0272696
0.0263528
0.0247643
0.0237063
0.0231382
0.0227628
0.0227594
0.0234853
0.025213
0.0261156
0.0262971
0.0262382
0.0249339
0.0229986
0.020987
0.0194994
0.0184754
0.0178973
0.0175484
0.016785
0.0157556
0.0143498
0.0130472
0.0120658
0.0115189
0.0113957
0.0114445
0.011637
0.0118763
0.0120216
0.0120745
0.0119439
0.0112127
0.0104125
0.00954915
0.00883307
0.00816915
0.00749629
0.00698044
0.00663092
0.0065484
0.00657222
0.00666663
0.00693538
0.00764239
0.00812034
0.00929868
0.0103633
0.0114449
0.0126516
0.0137581
0.0145574
0.0148272
0.0147475
0.0144266
0.0136336
0.0123416
0.0110902
0.00966871
0.00827322
0.00692984
0.00568881
0.0046433
0.00373354
0.00299849
0.00242892
0.00193813
0.00158565
0.00133855
0.00114272
0.00103455
0.0010157
0.00103346
0.00109086
0.00123867
0.00150891
0.00197565
0.00302124
0.00372433
0.00497429
0.00714074
0.00836769
0.0107667
0.0131816
0.0156953
0.020191
0.0233061
0.0270062
0.0318513
0.0359688
0.0380098
0.0412694
0.0421906
0.0419152
0.0409147
0.0384869
0.0351432
0.0326045
0.0281736
0.0245454
0.0217754
0.0195825
0.0180391
0.0175403
0.018145
0.0188086
0.0191258
0.0199979
0.0219581
0.0260399
0.0366311
0.0453073
0.0517755
0.0606768
0.0853296
0.135109
0.167374
0.171305
0.157393
0.128582
0.126448
0.13817
0.166796
0.206407
0.242216
0.267337
0.288599
0.307181
0.312087
0.283742
0.215918
0.183091
0.174149
0.166925
0.166318
0.164307
0.159557
0.150761
0.143874
0.137768
0.12695
0.125671
0.120795
0.128349
0.127657
0.131455
0.123415
0.12657
0.114447
0.112854
0.102726
0.0920214
0.101632
0.0969711
0.0883907
0.0925731
0.0823559
0.0798991
0.0772621
0.0691942
0.0678818
0.0581418
0.0531736
0.0464757
0.0383477
0.0360453
0.0319852
0.0328717
0.0313024
0.0277138
0.0233479
0.0213978
0.0208604
0.0207035
0.0205633
0.0199882
0.0200978
0.0213225
0.0212343
0.018496
0.0172819
0.0181246
0.0217717
0.0273273
0.0300879
0.031925
0.0325663
0.0339243
0.0367488
0.0448787
0.0465072
0.0492037
0.0485498
0.0488202
0.048717
0.0473498
0.00356123
0.0035249
0.00340101
0.00329918
0.0031455
0.00296718
0.00279722
0.00272355
0.00271688
0.00271797
0.00274652
0.00294922
0.00321651
0.0033586
0.00338406
0.00336502
0.00317642
0.00297133
0.00277377
0.00263785
0.00254521
0.00247394
0.00238066
0.00222124
0.00204307
0.00184833
0.00170886
0.00164566
0.00163669
0.00166513
0.00172882
0.00176566
0.00179782
0.00181009
0.00180499
0.00175222
0.00166149
0.00158203
0.0014948
0.00139331
0.00128748
0.00116399
0.0010701
0.00101055
0.000993217
0.000995559
0.00101099
0.00105785
0.00118153
0.00126706
0.00143442
0.0016587
0.00182614
0.00207881
0.00237583
0.00256001
0.00261142
0.00259103
0.00253066
0.00232226
0.00204114
0.00181106
0.00151098
0.00128189
0.00107442
0.000943581
0.000810129
0.000743586
0.00069218
0.000667441
0.00067766
0.000691093
0.000725058
0.000785627
0.000917777
0.0011042
0.00146462
0.0020202
0.00304979
0.00398345
0.00605491
0.00844742
0.0101195
0.0139845
0.0181145
0.0209073
0.0271868
0.0315531
0.0395077
0.0477039
0.0552744
0.0654347
0.0745421
0.0825015
0.0885628
0.0951581
0.0962708
0.0954065
0.092861
0.0860895
0.0805471
0.0712573
0.0607723
0.0539376
0.0469152
0.0408415
0.0355583
0.0332989
0.0326645
0.0304166
0.0299943
0.0307191
0.0330046
0.0386255
0.0524424
0.0595143
0.0641535
0.0724741
0.102938
0.149193
0.161536
0.152294
0.12332
0.114114
0.121034
0.150744
0.211776
0.257143
0.271108
0.282054
0.309008
0.327715
0.325996
0.293286
0.220389
0.186882
0.175516
0.169613
0.15835
0.151035
0.153308
0.15175
0.146351
0.142418
0.129778
0.128324
0.120063
0.121763
0.113743
0.122784
0.11849
0.126732
0.118227
0.112706
0.121808
0.107389
0.111391
0.110882
0.10292
0.107221
0.100761
0.0822276
0.0852049
0.0777853
0.0649357
0.0561202
0.0452052
0.0431144
0.0375342
0.0356377
0.0316843
0.032542
0.0314222
0.0297606
0.0257565
0.0230319
0.0222464
0.0216738
0.0220595
0.0216789
0.0218272
0.0233857
0.0234116
0.0211899
0.0194215
0.0193149
0.0201946
0.0244388
0.0286402
0.0312482
0.0320781
0.0329082
0.0342611
0.0402949
0.0448297
0.0486698
0.0484434
0.0485934
0.0488028
0.0478588
0.000296911
0.000300802
0.000301397
0.000298734
0.000290275
0.000281736
0.000275885
0.000274365
0.000275281
0.000274624
0.000275286
0.000282983
0.000288813
0.000294191
0.000295801
0.000301428
0.000308412
0.000312224
0.000313286
0.000303393
0.000281493
0.000259787
0.000239911
0.000226036
0.000218829
0.000218422
0.000220917
0.000222271
0.000222156
0.000221623
0.000222512
0.000223514
0.000222912
0.000220502
0.000219763
0.000220995
0.000225565
0.000229204
0.000229169
0.00022099
0.000207915
0.000196122
0.00018759
0.000180839
0.000177272
0.000175851
0.000175744
0.000176646
0.000182791
0.00018865
0.00019785
0.000216461
0.000227536
0.000252902
0.00029664
0.000321696
0.000324877
0.000323281
0.00031672
0.000286475
0.000276491
0.000270406
0.000273111
0.000286222
0.000300014
0.000341221
0.000382043
0.000423971
0.000499889
0.00057351
0.000755148
0.000912523
0.00131188
0.00171569
0.00255561
0.00346893
0.00465615
0.00728059
0.00910974
0.0121427
0.0174869
0.0215313
0.0260845
0.0353851
0.0413702
0.0501299
0.0622842
0.0730622
0.0909717
0.108574
0.127118
0.148979
0.165493
0.181512
0.196638
0.206083
0.206102
0.203683
0.19575
0.183548
0.170315
0.149257
0.130018
0.11138
0.0925588
0.0766469
0.0634188
0.0542841
0.0492582
0.0474089
0.0476314
0.049238
0.0530588
0.0619135
0.0652715
0.0668923
0.0708917
0.0841381
0.127006
0.152722
0.152249
0.130573
0.110244
0.109459
0.123732
0.188181
0.251615
0.272966
0.272374
0.282707
0.321371
0.365487
0.381307
0.367223
0.293263
0.22578
0.193604
0.171449
0.148467
0.139285
0.137026
0.138703
0.148561
0.14844
0.139724
0.131794
0.120586
0.119339
0.109324
0.109588
0.106523
0.113038
0.116923
0.108711
0.124842
0.115425
0.107972
0.125463
0.110162
0.0974667
0.120856
0.0890857
0.0827918
0.0731449
0.0654961
0.0553095
0.0494296
0.0446688
0.0381257
0.0356406
0.0314459
0.0314271
0.0308635
0.0291668
0.0267464
0.023878
0.0247473
0.0242229
0.0258666
0.0255452
0.026242
0.0272125
0.0271991
0.0260396
0.0246718
0.0223976
0.0218179
0.0228355
0.0261705
0.0296851
0.0313192
0.0323153
0.0332505
0.037141
0.0420833
0.0472859
0.0480769
0.0492883
0.0504946
0.0504514
9.11528e-05
9.20746e-05
9.58376e-05
9.8262e-05
9.8808e-05
9.88082e-05
9.89844e-05
9.89963e-05
9.88279e-05
9.8518e-05
9.85209e-05
9.90087e-05
0.000100966
0.000103879
0.000106983
0.000108046
0.000108239
0.000106556
0.000104326
0.00010311
0.000102716
0.000102724
0.000102755
0.00010353
0.00010598
0.000107066
0.000106829
0.000105635
0.000105389
0.000106826
0.000112174
0.000118632
0.000124305
0.000127685
0.000129002
0.000128457
0.000125336
0.000123063
0.000121778
0.000121359
0.000123815
0.000133329
0.000143415
0.000149239
0.000151375
0.000151534
0.000149961
0.000144925
0.000137367
0.000131761
0.000127137
0.000125148
0.000125213
0.000127004
0.000130246
0.000137492
0.000142927
0.000145941
0.00015424
0.000163808
0.000178403
0.00020701
0.000258158
0.000349869
0.000421403
0.000596102
0.000812991
0.00100459
0.00152521
0.00191691
0.00272435
0.00350924
0.00515355
0.00639226
0.00931286
0.0115744
0.0150828
0.0214814
0.0254645
0.0333003
0.0428411
0.051028
0.0636264
0.0787287
0.0915883
0.112592
0.136576
0.167832
0.196667
0.240094
0.277257
0.312865
0.333111
0.351068
0.35935
0.357639
0.355555
0.350959
0.338904
0.327631
0.309513
0.279405
0.254871
0.224587
0.188224
0.154051
0.12258
0.101052
0.0806466
0.068112
0.0675208
0.0684744
0.0696661
0.072584
0.0723262
0.0729591
0.0783891
0.105696
0.140292
0.150364
0.143735
0.116814
0.107451
0.113152
0.149569
0.216433
0.252252
0.242437
0.253149
0.312066
0.384393
0.464978
0.503553
0.50903
0.453474
0.329387
0.248148
0.18601
0.149466
0.137335
0.133971
0.134515
0.143556
0.143795
0.15824
0.130253
0.125981
0.118343
0.11033
0.108111
0.105219
0.101087
0.110328
0.0995284
0.113277
0.114401
0.100842
0.115754
0.108536
0.098408
0.143112
0.0995678
0.106026
0.0906366
0.079429
0.0610266
0.0555164
0.0485923
0.0427626
0.037259
0.0327949
0.0316549
0.0312776
0.0290701
0.0271125
0.0243898
0.0258614
0.0261344
0.0287789
0.0297617
0.0312724
0.0320169
0.031939
0.0310859
0.028397
0.0251385
0.0240106
0.024017
0.0257101
0.0288353
0.0315861
0.0326898
0.0334119
0.0360119
0.0380956
0.0431359
0.0461918
0.0492183
0.0499868
0.0522423
8.71958e-05
8.81818e-05
9.19134e-05
9.4965e-05
9.60995e-05
9.60341e-05
9.57117e-05
9.56059e-05
9.59599e-05
9.66695e-05
9.73973e-05
9.87262e-05
0.000101595
0.000103392
0.000105457
0.000107918
0.00010943
0.000111811
0.000113019
0.000114757
0.00012212
0.000137761
0.000149713
0.000155917
0.000158379
0.000158299
0.000157752
0.000157889
0.000163561
0.000205195
0.000257781
0.000300066
0.000326117
0.000333675
0.000333836
0.000325116
0.000301505
0.000283695
0.000273607
0.000275784
0.00032593
0.000394501
0.000464209
0.000514259
0.000541689
0.000551942
0.000551177
0.000532394
0.00049042
0.000449097
0.000414812
0.000388406
0.000374175
0.000373682
0.000376526
0.000386262
0.000411794
0.000452431
0.00051564
0.000571762
0.000699515
0.00086492
0.00117904
0.00168724
0.00205675
0.00289739
0.00369583
0.00449228
0.00648586
0.007851
0.0101217
0.0131231
0.0173601
0.0207483
0.0284834
0.0337265
0.0434549
0.0552656
0.063557
0.0825917
0.0981949
0.116034
0.141292
0.163786
0.2008
0.236064
0.293557
0.344693
0.393855
0.422263
0.432287
0.430425
0.427697
0.422574
0.416532
0.407187
0.404029
0.40106
0.395349
0.392269
0.38435
0.372359
0.348792
0.319104
0.28883
0.24324
0.205425
0.176524
0.140311
0.116689
0.103849
0.0905867
0.0832674
0.0814992
0.0821477
0.0857246
0.0923135
0.116764
0.143902
0.147715
0.132632
0.109139
0.107295
0.118685
0.158272
0.200937
0.2149
0.23259
0.297455
0.37594
0.435928
0.508708
0.589272
0.666723
0.688314
0.566474
0.404593
0.256086
0.17103
0.143006
0.134086
0.130866
0.133006
0.141344
0.144551
0.13635
0.148397
0.125403
0.125842
0.112109
0.109843
0.0999498
0.107102
0.0959601
0.0916158
0.106345
0.091419
0.088167
0.102185
0.0998551
0.241274
0.131954
0.232405
0.212644
0.220994
0.143057
0.0868289
0.0591483
0.0535528
0.0424968
0.0387631
0.0341175
0.0351085
0.0313796
0.0289596
0.0256014
0.0262163
0.0271052
0.029433
0.0348618
0.0381121
0.0385994
0.0388106
0.0378167
0.0337975
0.0294623
0.0289316
0.0278919
0.0282446
0.0292596
0.03197
0.0335541
0.0340592
0.0355658
0.036879
0.0402782
0.0441034
0.0480908
0.0488091
0.051712
0.000197236
0.000199524
0.000202404
0.000205775
0.000205529
0.000206492
0.000212196
0.000219214
0.000234297
0.000249539
0.000267675
0.00030177
0.000331858
0.000365779
0.000396276
0.000418884
0.000442006
0.000459871
0.000476168
0.000524783
0.000606062
0.000709906
0.000798731
0.000858759
0.000902691
0.000921604
0.000942511
0.000968682
0.00108389
0.00140217
0.0017061
0.00197563
0.00212922
0.00216756
0.00215429
0.00202968
0.00186434
0.00176205
0.00172004
0.00178304
0.00214899
0.00253838
0.00290358
0.00312491
0.00321785
0.00323331
0.00316455
0.00293213
0.00271988
0.00251477
0.0024082
0.00237507
0.00237338
0.00241925
0.0025449
0.00266052
0.00280972
0.00307003
0.0033044
0.00367195
0.0043495
0.00492953
0.0064986
0.00786106
0.00952112
0.0123701
0.0144607
0.0173865
0.0230155
0.0268388
0.03241
0.0426642
0.0488714
0.061415
0.0764977
0.0876348
0.109654
0.129506
0.152272
0.179974
0.214003
0.236447
0.287275
0.330104
0.38781
0.445258
0.477132
0.489029
0.48552
0.478228
0.466675
0.444244
0.432814
0.414381
0.396697
0.39457
0.390344
0.389264
0.391252
0.393412
0.39358
0.392268
0.386533
0.36886
0.34709
0.307233
0.266816
0.218326
0.18527
0.172281
0.145274
0.119043
0.111634
0.107273
0.102505
0.102814
0.109272
0.131473
0.142426
0.137509
0.111194
0.101751
0.103959
0.116535
0.14053
0.179128
0.225422
0.286687
0.338431
0.37619
0.439131
0.502331
0.58146
0.713644
0.81768
0.89751
0.767312
0.467486
0.241429
0.161052
0.134118
0.12517
0.122429
0.127324
0.14463
0.150285
0.15255
0.133684
0.136989
0.117044
0.126273
0.102978
0.105847
0.0962164
0.0868849
0.0982143
0.0873342
0.0836489
0.0967171
0.111459
0.338703
0.204359
0.352357
0.391746
0.658337
0.503304
0.230809
0.101195
0.0698705
0.0515158
0.0488741
0.0436173
0.0454714
0.0391103
0.0350138
0.0294448
0.0293301
0.031499
0.0377058
0.0456799
0.0504541
0.0504578
0.0507055
0.048174
0.0451886
0.0362738
0.0338758
0.0310939
0.031392
0.0313608
0.0321771
0.0346726
0.0353908
0.0367679
0.0376602
0.0405802
0.0446226
0.047257
0.0476996
0.0498634
0.00252159
0.00259892
0.00265845
0.00268368
0.00268054
0.00267111
0.00268909
0.00272461
0.00280013
0.0029648
0.00309147
0.00344958
0.00364686
0.00399908
0.00432233
0.00449209
0.00480775
0.00496772
0.00523042
0.00557861
0.00589429
0.00635997
0.00668222
0.00696957
0.00716126
0.00724115
0.00744871
0.00810635
0.00919161
0.0103746
0.0112701
0.0119337
0.012154
0.012152
0.0119103
0.0113311
0.010938
0.0108105
0.0110157
0.0121726
0.013376
0.0141998
0.0147374
0.014882
0.014854
0.0145824
0.0137689
0.0130812
0.0126383
0.0123287
0.0122948
0.0125223
0.0127732
0.0133035
0.0138179
0.0141506
0.0147536
0.0156626
0.0164155
0.017942
0.0197847
0.021746
0.026696
0.0297326
0.0356134
0.0410339
0.0487871
0.0562597
0.0678712
0.07963
0.0926572
0.115307
0.129007
0.157572
0.18114
0.209918
0.242366
0.277653
0.315372
0.359705
0.397733
0.435796
0.482527
0.508848
0.527832
0.532807
0.526824
0.510288
0.479594
0.427085
0.393281
0.362324
0.351773
0.350406
0.348451
0.349569
0.351794
0.354642
0.358163
0.36545
0.374244
0.380624
0.382503
0.380093
0.369887
0.347557
0.313906
0.280602
0.244864
0.197297
0.16435
0.153928
0.140406
0.121746
0.111244
0.109494
0.119464
0.133518
0.133945
0.11597
0.0997811
0.0965686
0.0982304
0.106947
0.131679
0.181085
0.22981
0.276736
0.340092
0.399905
0.440823
0.475401
0.532062
0.625764
0.802469
1.00023
1.16016
0.941806
0.432246
0.216275
0.144844
0.124585
0.121218
0.125717
0.148702
0.154254
0.152538
0.148453
0.146692
0.123714
0.125294
0.111544
0.112628
0.10804
0.0920002
0.099133
0.0900881
0.0935583
0.107225
0.141333
0.27557
0.245299
0.467348
0.564331
0.544019
0.622756
0.533781
0.240845
0.117689
0.0680029
0.0584719