/*--------------------------------*- C++ -*----------------------------------*\
| =========                 |                                                 |
| \\      /  F ield         | OpenFOAM: The Open Source CFD Toolbox           |
|  \\    /   O peration     | Version:  2.4.0                                 |
|   \\  /    A nd           | Web:      www.OpenFOAM.org                      |
|    \\/     M anipulation  |                                                 |
\*---------------------------------------------------------------------------*/
FoamFile
{
    version     2.0;
    format      ascii;
    class       volScalarField;
    location    "1.83";
    object      pMean;
}
// * * * * * * * * * * * * * * * * * * * * * * * * * * * * * * * * * * * * * //

dimensions      [0 2 -2 0 0 0 0];

internalField   nonuniform List<scalar> 
8800
(
86.8112
74.3729
66.9694
63.4097
61.5181
60.0861
58.8777
57.7295
56.6998
55.669
54.7181
53.7316
52.8257
51.8832
51.041
50.1687
49.4047
48.6192
47.917
47.1366
83.7
74.0185
67.1379
63.5236
61.5781
60.1113
58.8853
57.7298
56.6978
55.6666
54.7152
53.7294
52.8232
51.8815
51.0393
50.1668
49.4067
48.6133
47.9178
47.0943
81.735
74.0943
67.7398
63.8992
61.7458
60.1904
58.9319
57.7625
56.7222
55.6836
54.7256
53.734
52.8247
51.8796
51.0385
50.1606
49.4116
48.6045
47.9674
47.1248
80.1996
74.1557
68.3264
64.3227
61.9297
60.2781
58.9946
57.8189
56.7709
55.7223
54.7534
53.7512
52.8361
51.8831
51.042
50.1551
49.4173
48.6091
48.0613
47.2844
78.9508
74.129
68.802
64.7283
62.0985
60.3453
59.0439
57.8764
56.8268
55.7739
54.789
53.7779
52.8493
51.8926
51.0418
50.1556
49.412
48.6306
48.0731
47.4979
77.9654
74.0321
69.1672
65.0743
62.2491
60.3877
59.0726
57.9206
56.8773
55.8233
54.8245
53.8044
52.861
51.9008
51.0381
50.154
49.3986
48.6457
48.1254
47.808
77.209
73.9154
69.4349
65.3538
62.3846
60.4132
59.0817
57.9517
56.9168
55.865
54.8536
53.8272
52.8681
51.9069
51.0302
50.1508
49.3784
48.6484
48.1985
48.183
76.6553
73.8153
69.6155
65.5665
62.5025
60.433
59.074
57.9759
56.9436
55.8992
54.8726
53.8485
52.8687
51.9151
51.0171
50.1535
49.3529
48.6424
48.134
48.5246
76.2949
73.745
69.7288
65.7114
62.5876
60.4467
59.0647
57.9921
56.9637
55.9238
54.8875
53.8637
52.8724
51.9215
51.0131
50.1549
49.3406
48.6532
48.2017
48.8499
76.1156
73.7129
69.7863
65.7885
62.6329
60.4565
59.0599
58.0026
56.9767
55.94
54.8975
53.8745
52.8777
51.9287
51.0156
50.1609
49.3471
48.673
48.2649
48.964
76.1087
73.7234
69.7867
65.7936
62.6325
60.4603
59.0572
58.0066
56.9767
55.9446
54.898
53.8799
52.8796
51.9364
51.0199
50.1715
49.3554
48.695
48.3009
49.0596
76.2779
73.7718
69.7307
65.7221
62.5879
60.4552
59.0596
58.0008
56.965
55.9345
54.8904
53.8779
52.8804
51.9416
51.0275
50.1829
49.37
48.7108
48.3244
49.0926
76.629
73.854
69.6154
65.5795
62.5015
60.4461
59.0649
57.9895
56.944
55.9155
54.8761
53.8719
52.8803
51.9488
51.0399
50.2005
49.3918
48.7309
48.328
49.0616
77.1753
73.9598
69.4332
65.3668
62.3781
60.4285
59.0683
57.9682
56.9135
55.8855
54.8542
53.8589
52.8778
51.9545
51.0544
50.2225
49.4216
48.7581
48.316
48.9507
77.929
74.0759
69.1677
65.0845
62.2391
60.3996
59.0611
57.9349
56.8733
55.8445
54.8255
53.8384
52.8724
51.9559
51.0698
50.2459
49.4607
48.7957
48.3151
48.7549
78.9111
74.1737
68.8046
64.7373
62.0862
60.3546
59.0351
57.8897
56.8241
55.7953
54.7923
53.813
52.8654
51.9535
51.0852
50.2675
49.5073
48.845
48.3442
48.4942
80.1579
74.2009
68.3317
64.3334
61.9166
60.2871
58.9876
57.8334
56.769
55.7449
54.759
53.788
52.8577
51.9488
51.0984
50.2838
49.5531
48.8924
48.4036
48.2194
81.6925
74.1377
67.7484
63.9115
61.733
60.1991
58.9261
57.7773
56.7218
55.7062
54.7343
53.771
52.8524
51.9467
51.1082
50.2962
49.5861
48.929
48.4628
48.0772
83.6568
74.059
67.1486
63.5373
61.5662
60.1196
58.8797
57.7449
56.6982
55.6894
54.7251
53.7669
52.8529
51.9499
51.1147
50.3059
49.6016
48.9504
48.4596
48.0007
86.7676
74.4115
66.9798
63.4239
61.5069
60.0942
58.8723
57.7448
56.7003
55.6924
54.7279
53.7696
52.8556
51.9523
51.1178
50.3093
49.6051
48.9561
48.4609
48.121
47.2121
47.146
46.9367
46.6932
46.478
46.3024
46.1708
46.0778
46.0184
45.9883
45.9824
45.9875
45.9958
45.999
45.993
45.9734
45.9392
45.885
45.8126
45.7184
45.6085
45.4892
45.3703
45.257
45.1584
45.0787
45.0206
44.9793
44.9503
44.9245
44.896
44.8598
44.8158
44.7634
44.7026
44.6303
44.5466
44.4459
44.3312
44.1997
44.0585
43.9074
43.7617
43.6267
43.5148
43.4249
43.3635
43.3248
43.3085
43.3038
43.3036
43.2933
43.2691
43.2214
43.1554
43.0616
42.9505
42.8188
42.6788
42.5229
42.3583
42.1788
41.9946
41.8054
41.6273
41.4682
41.343
41.2607
41.2302
41.2437
41.3028
41.3923
41.5106
41.6384
41.7783
41.9096
42.0381
42.1435
42.2339
42.2941
42.3343
42.3474
42.349
42.3298
42.3108
42.2855
42.2701
42.2646
42.2745
42.3024
42.3508
42.4201
42.51
42.6134
42.7309
42.8548
42.9905
43.1275
43.271
43.409
43.5464
43.6706
43.7907
43.8854
43.9767
44.0436
44.1084
44.1544
44.2035
44.2333
44.262
44.2721
44.2792
44.267
44.253
44.2256
44.2011
44.1674
44.141
44.1103
44.0938
44.0796
44.0873
44.096
44.1307
44.159
44.2205
44.2734
44.3623
44.4535
44.5782
44.7098
44.8647
45.0218
45.195
45.3659
45.5494
45.7259
45.9075
46.0805
46.2612
46.4387
46.6253
46.8095
47.0011
47.1872
47.3798
47.5705
47.7639
47.9529
48.1398
48.319
48.4958
48.6603
48.8227
48.9769
49.1374
49.2838
49.4413
49.5851
49.7482
49.8809
50.0408
50.1609
50.308
50.4135
50.5496
50.6379
50.7602
50.8202
50.9412
50.9757
51.112
51.1406
51.3076
51.3432
51.5505
51.5977
51.8504
51.9281
52.2184
52.3431
52.6749
52.871
53.2385
53.506
53.9029
54.2087
54.6271
54.9334
55.3346
55.564
55.8336
55.795
55.6671
54.8987
53.6657
50.4029
46.2258
25.8549
46.977
46.9508
46.8872
46.7338
46.5404
46.3556
46.2132
46.1178
46.0659
46.0446
46.0458
46.0549
46.0653
46.0681
46.0616
46.0404
46.0053
45.9522
45.8834
45.7966
45.6975
45.5897
45.4828
45.3807
45.2918
45.2177
45.162
45.1206
45.0919
45.0675
45.0432
45.0119
44.9735
44.9249
44.868
44.798
44.7172
44.6204
44.5116
44.3876
44.2558
44.1171
43.9828
43.8573
43.7506
43.6632
43.6002
43.5573
43.5336
43.5189
43.5098
43.4928
43.4663
43.419
43.3563
43.269
43.1657
43.0417
42.9073
42.7581
42.6011
42.4323
42.2592
42.0842
41.9186
41.7704
41.6522
41.57
41.5332
41.536
41.5804
41.6534
41.7545
41.8671
41.9896
42.107
42.2179
42.3091
42.3828
42.4303
42.4589
42.4634
42.4564
42.4349
42.4108
42.3849
42.3641
42.3545
42.3568
42.3757
42.4132
42.4707
42.5478
42.6392
42.7461
42.8616
42.9876
43.1151
43.2471
43.3747
43.5013
43.617
43.7253
43.8115
43.8915
43.9516
44.0061
44.0442
44.0803
44.1014
44.1177
44.1193
44.1136
44.092
44.0624
44.0247
43.9845
43.9408
43.9001
43.8581
43.8313
43.8081
43.8084
43.8108
43.8396
43.8663
43.9226
43.9761
44.0575
44.1435
44.2578
44.3797
44.5249
44.6721
44.836
44.9949
45.1673
45.3325
45.5015
45.6623
45.831
45.9955
46.168
46.3381
46.5181
46.6875
46.8713
47.0478
47.2354
47.4148
47.597
47.7692
47.9486
48.1085
48.2782
48.431
48.6032
48.7465
48.9134
49.0534
49.218
49.3402
49.4965
49.6047
49.7456
49.8372
49.9647
50.0283
50.1427
50.1679
50.2786
50.2734
50.3983
50.3839
50.5418
50.5356
50.7339
50.7459
50.9822
51.0368
51.296
51.404
51.6891
51.8609
52.1798
52.3933
52.7449
52.9597
53.3133
53.4783
53.7563
53.7571
53.8133
53.3765
52.8746
51.2535
49.5067
43.7883
37.9097
19.1284
46.9597
46.9612
46.9688
46.8676
46.6708
46.4445
46.2575
46.1357
46.0829
46.0746
46.0925
46.1147
46.1331
46.1377
46.1299
46.1048
46.0663
46.0114
45.9443
45.8632
45.7739
45.6779
45.5837
45.4932
45.4141
45.3465
45.2946
45.2545
45.2262
45.202
45.1798
45.1513
45.1173
45.0723
45.0192
44.9527
44.8757
44.7842
44.6827
44.5689
44.449
44.3243
44.2033
44.0895
43.9908
43.9079
43.845
43.7983
43.7681
43.7448
43.7269
43.7026
43.6716
43.6237
43.5622
43.4801
43.3826
43.2667
43.1388
42.9978
42.849
42.6921
42.5328
42.3739
42.224
42.0894
41.981
41.9024
41.8616
41.8561
41.8873
41.9462
42.0304
42.1275
42.2327
42.3338
42.4266
42.502
42.5583
42.5927
42.6083
42.6059
42.5904
42.5661
42.5364
42.5077
42.4823
42.4667
42.4603
42.4682
42.493
42.5374
42.6005
42.681
42.7778
42.8864
43.003
43.1223
43.244
43.3619
43.4772
43.5841
43.6805
43.759
43.83
43.886
43.9341
43.9691
43.9987
44.0169
44.0263
44.0247
44.0099
43.9813
43.9405
43.8941
43.843
43.7887
43.7387
43.6881
43.6586
43.6302
43.6288
43.6288
43.6567
43.6869
43.74
43.7959
43.8718
43.9562
44.0613
44.1753
44.311
44.4491
44.6029
44.7502
44.9088
45.0617
45.2167
45.3644
45.5209
45.673
45.8342
45.9939
46.1641
46.324
46.5018
46.6679
46.8497
47.0151
47.1899
47.3512
47.5293
47.6847
47.8632
48.0161
48.1979
48.3424
48.5191
48.6614
48.8241
48.941
49.0916
49.1855
49.3216
49.3905
49.511
49.5412
49.6498
49.6399
49.742
49.6987
49.8187
49.7648
49.9174
49.8777
50.0516
50.0453
50.2361
50.2786
50.4836
50.5693
50.8058
50.929
51.2085
51.3421
51.6478
51.7498
52.028
52.0219
52.1886
51.8998
51.8011
50.8241
50.196
47.449
45.5207
38.452
31.3934
18.5957
46.7732
46.8019
46.9914
46.9639
46.7574
46.485
46.2572
46.1202
46.0765
46.0917
46.1374
46.1832
46.2169
46.2275
46.2183
46.1877
46.1428
46.0832
46.0152
45.9375
45.8564
45.7713
45.6898
45.6117
45.5437
45.4843
45.4379
45.4001
45.3724
45.3478
45.3258
45.2987
45.2672
45.2252
45.1753
45.1129
45.041
44.9565
44.8639
44.7617
44.6555
44.5457
44.4393
44.3378
44.2482
44.17
44.108
44.0578
44.0211
43.9898
43.9634
43.9329
43.8974
43.8491
43.789
43.7121
43.6209
43.5139
43.395
43.265
43.1279
42.9849
42.8408
42.6987
42.5652
42.445
42.3467
42.273
42.2301
42.217
42.2356
42.2793
42.3456
42.4246
42.5105
42.5925
42.666
42.7245
42.7649
42.7873
42.7921
42.7823
42.7595
42.7305
42.6964
42.6636
42.6331
42.6091
42.5918
42.5866
42.5976
42.6287
42.6799
42.7506
42.8393
42.9401
43.0484
43.1587
43.2712
43.3792
43.4836
43.5797
43.6645
43.734
43.7982
43.8524
43.8992
43.9363
43.9656
43.9852
43.9938
43.9909
43.9708
43.9368
43.8909
43.8365
43.7809
43.7194
43.667
43.6153
43.5868
43.5573
43.5577
43.5594
43.5912
43.6241
43.678
43.7337
43.8101
43.8932
43.996
44.1053
44.2319
44.3623
44.5049
44.6415
44.787
44.9257
45.0659
45.1996
45.3449
45.4852
45.6394
45.7929
45.9574
46.1161
46.2903
46.4483
46.6225
46.7718
46.938
47.0855
47.2619
47.4095
47.5967
47.7524
47.9438
48.0933
48.2813
48.419
48.5814
48.688
48.8408
48.9059
49.0479
49.0792
49.2036
49.1916
49.3016
49.2513
49.3507
49.2728
49.3915
49.3161
49.4464
49.3974
49.5226
49.5108
49.6417
49.6642
49.8159
49.8646
50.0545
50.1123
50.3448
50.382
50.6382
50.5899
50.8359
50.5746
50.7257
50.0108
49.9288
48.2452
47.5997
43.9956
41.5363
34.8678
27.3749
18.8072
47.4919
47.4213
47.2332
46.9596
46.6457
46.3459
46.1388
46.0418
46.039
46.0939
46.1772
46.2542
46.3082
46.3282
46.3191
46.2834
46.2311
46.1653
46.0941
46.018
45.9431
45.8682
45.7989
45.7338
45.6777
45.6283
45.5888
45.5552
45.5291
45.505
45.4829
45.4569
45.4272
45.3888
45.3431
45.2868
45.2223
45.1472
45.0653
44.976
44.8836
44.7883
44.6954
44.6054
44.5238
44.4501
44.3882
44.3352
44.2925
44.255
44.2217
44.1863
44.147
44.0987
44.0403
43.9691
43.8857
43.7893
43.6823
43.5656
43.4426
43.3149
43.187
43.0611
42.9434
42.8369
42.7485
42.6801
42.6365
42.6169
42.6235
42.6519
42.6993
42.7581
42.8222
42.8836
42.9375
42.9794
43.0059
43.0173
43.0132
42.9962
42.968
42.9336
42.8944
42.8544
42.8155
42.7791
42.7476
42.7267
42.7239
42.7418
42.7835
42.8457
42.9286
43.0235
43.1258
43.2301
43.3352
43.4348
43.5295
43.6146
43.6892
43.7519
43.8123
43.8666
43.9145
43.9565
43.9877
44.0108
44.0209
44.0171
43.9952
43.9576
43.9103
43.8529
43.7985
43.737
43.6884
43.6429
43.6182
43.5961
43.601
43.6113
43.6465
43.6841
43.7404
43.7986
43.8797
43.9613
44.0672
44.1718
44.294
44.4148
44.5481
44.6725
44.8096
44.932
45.0626
45.1821
45.3187
45.4475
45.6
45.7491
45.9156
46.0758
46.2491
46.3983
46.5672
46.6982
46.8593
46.9908
47.1655
47.3058
47.499
47.6544
47.8577
48.0044
48.2076
48.3292
48.4993
48.5851
48.7447
48.778
48.9312
48.9168
49.0479
48.9925
49.104
49.0152
49.1056
49.0124
49.1181
49.0483
49.1461
49.0949
49.1811
49.1468
49.2335
49.2133
49.3291
49.3166
49.476
49.4376
49.6451
49.5352
49.7797
49.5105
49.7601
49.1776
49.3283
48.1842
48.0229
45.8817
44.8596
41.2246
38.0343
32.7193
25.6616
19.3306
48.089
47.9772
47.4913
46.96
46.494
46.1521
45.9787
45.9467
46.0092
46.1207
46.2468
46.3525
46.4215
46.4465
46.4349
46.3929
46.3323
46.2598
46.1843
46.1086
46.0378
45.9715
45.9128
45.8599
45.8151
45.7761
45.7442
45.7162
45.6929
45.6704
45.6488
45.6242
45.5963
45.5618
45.5212
45.4721
45.4159
45.3514
45.2811
45.2048
45.1256
45.0438
44.963
44.8838
44.8097
44.7411
44.6803
44.6261
44.5791
44.5365
44.497
44.4569
44.4138
44.3648
44.3082
44.2423
44.1665
44.0806
43.9856
43.8825
43.7739
43.6619
43.5501
43.4406
43.3384
43.2454
43.1669
43.1042
43.0612
43.0372
43.0342
43.0498
43.0802
43.1198
43.1628
43.2044
43.2397
43.2659
43.2798
43.2814
43.2694
43.2457
43.2113
43.169
43.1212
43.0706
43.0197
42.9683
42.9207
42.8824
42.8666
42.8735
42.9069
42.9637
43.0437
43.1353
43.2333
43.3341
43.4334
43.5268
43.6136
43.6918
43.7601
43.8209
43.8809
43.937
43.9885
44.0365
44.0724
44.0988
44.1108
44.1057
44.0829
44.0418
43.9959
43.9412
43.8916
43.839
43.7995
43.7658
43.7506
43.7437
43.7582
43.7826
43.8239
43.8705
43.9299
43.9968
44.0815
44.1701
44.279
44.3817
44.502
44.6123
44.7377
44.8491
44.9789
45.0874
45.2128
45.3219
45.4516
45.5732
45.7269
45.8739
46.0494
46.2114
46.3861
46.5295
46.6895
46.8054
46.9578
47.077
47.2468
47.3749
47.577
47.7221
47.94
48.0739
48.2908
48.3897
48.5798
48.6348
48.8125
48.8063
48.9731
48.9171
49.0529
48.9526
49.0641
48.938
49.0236
48.9231
49.0217
48.9522
49.0428
48.9684
49.0425
48.9638
49.029
48.9381
49.0398
48.9365
49.0744
48.9195
49.089
48.8362
49.0291
48.5881
48.7355
47.951
47.9076
46.5614
46.0682
43.9004
42.4011
39.2528
35.7862
31.7724
25.6845
20.4445
48.7318
48.5242
47.6594
46.8151
46.1852
45.8339
45.7473
45.8298
45.9921
46.1758
46.3448
46.4729
46.5482
46.5706
46.5503
46.4983
46.4276
46.348
46.2683
46.193
46.1258
46.0669
46.0172
45.9753
45.9408
45.9116
45.8872
45.8655
45.8459
45.8261
45.8058
45.7828
45.7567
45.7257
45.6897
45.6474
45.5993
45.545
45.4856
45.4215
45.3543
45.2849
45.2151
45.1459
45.0791
45.0158
44.9571
44.9032
44.8539
44.8081
44.7644
44.7209
44.6754
44.6264
44.5719
44.5111
44.4426
44.3666
44.283
44.1932
44.0988
44.0021
43.9054
43.8114
43.7228
43.6421
43.5723
43.5155
43.4741
43.4491
43.4405
43.4469
43.4646
43.4882
43.5131
43.5367
43.5556
43.5685
43.5715
43.5639
43.544
43.5129
43.4701
43.4173
43.3584
43.2958
43.2316
43.1646
43.1007
43.0461
43.0171
43.0157
43.045
43.1018
43.1827
43.2742
43.371
43.4698
43.5639
43.6536
43.7347
43.8093
43.8765
43.9421
44.004
44.0642
44.1221
44.1756
44.2164
44.245
44.2603
44.2549
44.232
44.1889
44.1444
44.0953
44.0542
44.0174
43.9913
43.9761
43.9787
43.994
44.026
44.0699
44.1239
44.1826
44.2486
44.3237
44.4135
44.5115
44.6212
44.7293
44.8447
44.9518
45.0686
45.1736
45.2943
45.3976
45.5165
45.6219
45.748
45.8705
46.0256
46.1746
46.3549
46.5238
46.6979
46.8401
46.9865
47.0915
47.2311
47.3422
47.5038
47.614
47.825
47.9568
48.1799
48.3132
48.5367
48.6116
48.8224
48.8549
49.0436
49.0122
49.1733
49.0955
49.2205
49.1027
49.1906
49.0483
49.1212
49.0343
49.1191
49.0572
49.1309
49.0522
49.1016
48.9929
49.0154
48.8762
48.9239
48.7528
48.8027
48.569
48.6297
48.2875
48.3552
47.8073
47.7772
46.9
46.6385
45.2366
44.4928
42.4706
40.7727
38.243
34.9177
31.7969
26.7453
22.0999
49.9811
49.5435
47.9088
46.553
45.7168
45.3824
45.4289
45.675
45.9739
46.2456
46.4582
46.6024
46.6772
46.6908
46.6569
46.5918
46.5101
46.4241
46.3418
46.2682
46.2054
46.1539
46.1126
46.0802
46.0547
46.0343
46.0168
46.0011
45.9854
45.9689
45.9503
45.9293
45.905
45.8771
45.8449
45.8083
45.7668
45.7209
45.6703
45.6162
45.5587
45.4993
45.4385
45.3778
45.3178
45.26
45.2044
45.1523
45.1027
45.056
45.0106
44.9662
44.9205
44.8733
44.8222
44.7673
44.7064
44.6403
44.5679
44.491
44.4096
44.3265
44.2428
44.1618
44.0847
44.0148
43.9532
43.9028
43.8641
43.8396
43.8272
43.8269
43.8339
43.8445
43.8542
43.8629
43.8677
43.8695
43.8634
43.8473
43.8193
43.7797
43.7271
43.6638
43.5942
43.5199
43.4442
43.3638
43.2855
43.2188
43.18
43.1752
43.2049
43.266
43.3486
43.4414
43.5376
43.6346
43.726
43.8131
43.8929
43.9702
44.0424
44.1169
44.1841
44.2524
44.3174
44.375
44.4188
44.4487
44.4658
44.4625
44.44
44.3993
44.3568
44.3167
44.2887
44.2719
44.2649
44.2752
44.303
44.3474
44.4031
44.4707
44.5414
44.6149
44.6929
44.7785
44.8766
44.9807
45.0917
45.2018
45.3124
45.4223
45.5352
45.6386
45.7545
45.858
45.9699
46.0798
46.201
46.3285
46.4896
46.6396
46.8299
47.0065
47.1787
47.3147
47.4612
47.547
47.6795
47.7815
47.9365
48.0369
48.2484
48.3697
48.5857
48.7164
48.9462
49.0059
49.2254
49.2473
49.4407
49.3973
49.5495
49.474
49.578
49.4515
49.508
49.3589
49.4107
49.3449
49.4238
49.3738
49.4314
49.3505
49.382
49.2356
49.2162
49.0319
49.0165
48.767
48.7198
48.3982
48.3582
47.9247
47.9037
47.2503
47.1073
46.1578
45.7708
44.3955
43.5479
41.7745
40.0513
38.0526
35.0326
32.3866
28.2018
23.9996
50.4856
49.9954
48.0859
46.4741
45.4957
45.1398
45.249
45.5937
45.9836
46.3227
46.5748
46.7357
46.8094
46.8114
46.7607
46.6806
46.5877
46.4959
46.412
46.3409
46.2829
46.2385
46.2051
46.1813
46.1636
46.1506
46.1392
46.1286
46.1165
46.1029
46.0863
46.0673
46.0447
46.0195
45.9903
45.9581
45.9217
45.8821
45.8382
45.7917
45.7418
45.6902
45.6367
45.583
45.5288
45.476
45.4239
45.3742
45.3257
45.2798
45.2348
45.1913
45.1472
45.1031
45.0564
45.0076
44.9544
44.8975
44.8353
44.7698
44.7003
44.6296
44.5578
44.4886
44.4224
44.3629
44.31
44.2664
44.2314
44.2078
44.193
44.1868
44.1837
44.1822
44.1778
44.1725
44.1652
44.1576
44.1436
44.1214
44.0877
44.042
43.9816
43.9093
43.8292
43.7446
43.6584
43.5661
43.4797
43.4051
43.3626
43.3585
43.3934
43.4597
43.5456
43.6389
43.7358
43.8317
43.9234
44.01
44.0943
44.1816
44.2669
44.3528
44.4303
44.5091
44.5805
44.6395
44.683
44.7129
44.732
44.7309
44.7117
44.6774
44.6435
44.6188
44.6085
44.613
44.6311
44.67
44.7286
44.8061
44.8898
44.9848
45.0757
45.1675
45.2605
45.3569
45.4642
45.5707
45.6839
45.7935
45.9016
46.0161
46.1267
46.2319
46.348
46.4487
46.5607
46.6741
46.7918
46.9295
47.1008
47.2545
47.4545
47.6432
47.8252
47.9377
48.1108
48.1587
48.3015
48.3882
48.5282
48.6328
48.839
48.9416
49.1667
49.2813
49.528
49.5498
49.8053
49.8036
50.011
49.9322
50.1063
50.0199
50.1406
49.9675
50.0149
49.8605
49.9156
49.8614
49.9342
49.8949
49.9443
49.8619
49.8814
49.6707
49.6344
49.3977
49.3228
48.9844
48.8774
48.4466
48.3306
47.8602
47.7599
47.0996
46.8999
45.8846
45.4428
44.1265
43.2344
41.7289
40.0415
38.3876
35.7012
33.2775
29.7398
25.9512
50.7338
50.2845
48.2981
46.5701
45.4946
45.0772
45.1802
45.5641
46.0072
46.3926
46.6753
46.8507
46.9245
46.9171
46.8529
46.7602
46.6581
46.5619
46.4775
46.4094
46.3565
46.3189
46.2929
46.2767
46.2658
46.2589
46.2523
46.2456
46.2365
46.2255
46.2108
46.1938
46.1731
46.1502
46.1239
46.0952
46.0629
46.0282
45.9898
45.9493
45.9057
45.8605
45.8131
45.7652
45.716
45.6678
45.6194
45.5729
45.527
45.4833
45.4402
45.3992
45.3581
45.3181
45.2766
45.2343
45.1886
45.1403
45.0874
45.0322
44.9734
44.9137
44.8528
44.7946
44.7388
44.689
44.6448
44.6085
44.5781
44.5566
44.5403
44.5278
44.5142
44.5008
44.4846
44.4673
44.4497
44.4351
44.4164
44.3911
44.3546
44.3056
44.2415
44.1645
44.077
43.982
43.886
43.7835
43.692
43.6126
43.5708
43.5692
43.6131
43.6867
43.7788
43.874
43.9746
44.0707
44.1636
44.2517
44.3456
44.4471
44.5506
44.651
44.7424
44.8297
44.9059
44.9659
45.0105
45.0417
45.0627
45.0634
45.0512
45.0281
45.0093
45.0056
45.0194
45.0504
45.0975
45.1675
45.2594
45.3704
45.487
45.6096
45.7239
45.8369
45.9458
46.0517
46.164
46.2702
46.384
46.4903
46.6012
46.7186
46.8318
46.9395
47.06
47.1591
47.2776
47.3926
47.5155
47.6602
47.8473
48.0077
48.2187
48.4154
48.6228
48.702
48.9188
48.9099
49.0785
49.1355
49.2829
49.3739
49.5828
49.6517
49.9069
49.9898
50.2791
50.23
50.5664
50.4938
50.7715
50.6026
50.8561
50.7405
50.9209
50.6514
50.7247
50.5303
50.6323
50.5726
50.6735
50.6143
50.673
50.5623
50.5895
50.2875
50.2684
49.9846
49.8493
49.3951
49.244
48.724
48.62
48.143
48.0308
47.2847
47.0853
45.9908
45.5318
44.2933
43.3748
42.0954
40.4937
39.0105
36.6298
34.325
31.2394
27.8395
50.888
50.4611
48.4501
46.6667
45.5419
45.0859
45.1801
45.5813
46.0524
46.463
46.7625
46.9452
47.0171
47.0016
46.9275
46.8267
46.72
46.6228
46.5404
46.4764
46.4291
46.398
46.3786
46.3686
46.3631
46.3605
46.3574
46.3534
46.3464
46.3372
46.3243
46.3091
46.2905
46.27
46.2463
46.2208
46.1921
46.1617
46.1279
46.0923
46.0538
46.014
45.9719
45.9292
45.885
45.8413
45.7971
45.7542
45.7119
45.6716
45.632
45.5944
45.5572
45.5215
45.4855
45.4497
45.4115
45.3716
45.3282
45.283
45.2347
45.1856
45.1359
45.0885
45.0425
45.0016
44.966
44.937
44.9113
44.8911
44.8722
44.8525
44.8292
44.8054
44.7784
44.7517
44.7272
44.7077
44.6872
44.6635
44.6296
44.5819
44.5184
44.44
44.3493
44.2469
44.1431
44.0329
43.9391
43.8576
43.8228
43.8235
43.8773
43.9576
44.0567
44.1535
44.2619
44.3608
44.4587
44.5494
44.6579
44.7752
44.8985
45.0123
45.1164
45.2088
45.2883
45.3494
45.3986
45.4336
45.4591
45.4656
45.4673
45.4587
45.4642
45.4847
45.5317
45.5906
45.6734
45.7755
45.9043
46.0453
46.197
46.3414
46.4855
46.6159
46.7431
46.8556
46.9713
47.0713
47.1846
47.2832
47.4017
47.5166
47.6408
47.7517
47.8789
47.9817
48.1094
48.2276
48.3656
48.5159
48.7239
48.8887
49.1135
49.3069
49.5458
49.6
49.8498
49.7834
49.9973
50.0028
50.1928
50.2355
50.4759
50.5088
50.7997
50.8418
51.1579
51.0458
51.4748
51.3233
51.6614
51.4346
51.7981
51.6305
51.8849
51.5115
51.6532
51.3848
51.5803
51.4598
51.6211
51.52
51.606
51.4703
51.5063
51.0878
51.0759
50.7439
50.5111
50.0348
49.8523
49.3368
49.279
48.696
48.557
47.7204
47.5757
46.4108
45.9224
44.7696
43.8413
42.7092
41.2437
39.8005
37.6524
35.4493
32.6794
29.6193
50.9456
50.5179
48.5041
46.7218
45.6032
45.1559
45.2617
45.6726
46.149
46.5587
46.8532
47.0277
47.0896
47.0644
46.9839
46.8802
46.7744
46.6803
46.6029
46.5447
46.5038
46.4787
46.4647
46.459
46.457
46.4569
46.4558
46.4534
46.448
46.4402
46.429
46.4157
46.3994
46.3812
46.3604
46.3379
46.3127
46.286
46.2565
46.2255
46.1918
46.1565
46.1191
46.0809
46.0414
46.0022
45.9626
45.9242
45.8865
45.8505
45.8153
45.7819
45.7495
45.7188
45.6883
45.6586
45.6278
45.5963
45.5625
45.5273
45.4895
45.451
45.4129
45.3765
45.3412
45.3099
45.2835
45.2609
45.2387
45.2178
45.1952
45.1685
45.1357
45.1001
45.0619
45.0269
44.9981
44.9782
44.9623
44.9455
44.9193
44.88
44.8236
44.749
44.6576
44.5508
44.4415
44.3287
44.2363
44.1602
44.1372
44.1408
44.2043
44.2857
44.3886
44.4825
44.5995
44.7027
44.8103
44.9088
45.0398
45.1751
45.3208
45.4454
45.5576
45.6444
45.7279
45.7858
45.8445
45.8857
45.9216
45.9378
45.9601
45.9729
46.0129
46.0621
46.149
46.2372
46.3616
46.4947
46.6623
46.831
47.0197
47.1853
47.3559
47.4989
47.6457
47.7618
47.8819
47.9776
48.0854
48.1787
48.3023
48.4143
48.5492
48.6694
48.8034
48.9169
49.055
49.1796
49.3312
49.4879
49.7081
49.8891
50.1177
50.3053
50.5684
50.6383
50.8373
50.7489
51.042
50.9587
51.2183
51.1907
51.4853
51.4979
51.8026
51.8474
52.1302
52.0009
52.4905
52.2938
52.6585
52.4356
52.8723
52.6803
52.9586
52.5271
52.7093
52.391
52.7109
52.5468
52.7535
52.6034
52.7146
52.5745
52.521
52.0785
52.0419
51.5891
51.3749
50.9233
50.7035
50.1766
50.0473
49.4259
49.2898
48.4699
48.1669
47.0772
46.5546
45.4891
44.6004
43.4894
42.152
40.6836
38.7201
36.6217
34.0808
31.2981
50.896
50.4597
48.4776
46.756
45.6989
45.3087
45.4466
45.8556
46.3085
46.6869
46.9513
47.0991
47.141
47.1045
47.0212
46.9206
46.8214
46.7353
46.6663
46.616
46.5822
46.5625
46.5526
46.5493
46.549
46.5497
46.5494
46.5476
46.5432
46.5366
46.5273
46.5159
46.5021
46.4865
46.4687
46.4494
46.4281
46.4051
46.38
46.3531
46.3239
46.293
46.2602
46.2265
46.192
46.1576
46.1235
46.0904
46.0581
46.027
45.997
45.9687
45.9418
45.9168
45.8928
45.8696
45.8461
45.8224
45.798
45.773
45.746
45.7181
45.6914
45.6663
45.6425
45.622
45.6048
45.5882
45.5693
45.5481
45.5212
45.4858
45.4429
45.3965
45.3502
45.3107
45.2809
45.263
45.2541
45.2477
45.234
45.209
45.1659
45.0995
45.0109
44.9056
44.796
44.6858
44.5965
44.5312
44.5204
44.5318
44.6022
44.6791
44.7781
44.8705
44.9994
45.1077
45.2279
45.3411
45.5023
45.6567
45.8257
45.9562
46.0727
46.15
46.2324
46.2876
46.3604
46.405
46.4551
46.4844
46.5348
46.5767
46.6571
46.7391
46.8685
46.9915
47.1605
47.3247
47.5311
47.7235
47.9419
48.1239
48.3196
48.4735
48.6392
48.7597
48.8868
48.9768
49.0846
49.1761
49.3028
49.4199
49.5673
49.6977
49.8407
49.9681
50.1116
50.2431
50.4104
50.5745
50.7977
50.9985
51.2251
51.4267
51.674
51.7962
51.8986
51.8288
52.1404
51.9886
52.3198
52.2735
52.6284
52.6263
52.9048
52.9785
53.2056
53.1171
53.5565
53.3682
53.8091
53.6421
54.0562
53.9381
54.1154
53.6852
53.9245
53.5395
53.9707
53.7641
54.0079
53.849
53.947
53.7676
53.6848
53.2364
53.1349
52.5986
52.4156
51.933
51.6649
51.2477
51.0023
50.5367
50.1053
49.3942
48.9075
47.9503
47.3992
46.3954
45.5664
44.4039
43.1723
41.6365
39.8334
37.8235
35.4591
32.9006
50.6927
50.252
48.3732
46.7948
45.8622
45.5691
45.7414
46.1239
46.5204
46.8372
47.0475
47.1521
47.167
47.1197
47.0384
46.9469
46.8602
46.7868
46.7295
46.6888
46.6622
46.6469
46.6392
46.6365
46.636
46.6361
46.6354
46.6334
46.6295
46.6239
46.6162
46.6068
46.5955
46.5827
46.5683
46.5526
46.5353
46.5165
46.4958
46.4734
46.4487
46.4222
46.3939
46.3649
46.3361
46.3079
46.2799
46.2525
46.2257
46.2004
46.1762
46.1535
46.1327
46.1141
46.0969
46.0811
46.0663
46.0525
46.0388
46.0233
46.0063
45.9896
45.9746
45.961
45.9492
45.9396
45.9308
45.92
45.9045
45.8829
45.8524
45.812
45.7624
45.7074
45.6537
45.611
45.5837
45.5734
45.5757
45.5831
45.5866
45.5797
45.5527
45.4981
45.4155
45.3175
45.2105
45.1076
45.0268
44.9791
44.9769
44.9924
45.063
45.1365
45.2306
45.334
45.4765
45.5966
45.7347
45.8739
46.0607
46.2293
46.4143
46.5501
46.6688
46.7374
46.8193
46.8755
46.9586
47.0104
47.0787
47.1251
47.2055
47.279
47.3984
47.5156
47.6861
47.8457
48.0557
48.253
48.4919
48.7081
48.9477
49.1445
49.3573
49.5207
49.7007
49.8318
49.9659
50.0566
50.1678
50.2633
50.3982
50.5233
50.6874
50.8318
50.9871
51.1274
51.2663
51.4082
51.5774
51.7565
51.978
52.2067
52.4171
52.6427
52.8636
53.0102
53.0327
53.0726
53.2897
53.1248
53.5091
53.4792
53.8547
53.8588
54.1128
54.2415
54.3612
54.4004
54.6774
54.5746
55.058
55.009
55.3555
55.2709
55.3854
55.022
55.2365
54.9756
55.3095
55.0809
55.3264
55.2019
55.2651
55.0647
54.8718
54.4211
54.2998
53.7396
53.5114
53.1044
52.7736
52.5154
52.044
51.7657
51.0457
50.5701
49.7817
49.0146
48.3804
47.4844
46.6885
45.4502
44.2866
42.6588
40.9824
39.0228
36.808
34.4269
50.2289
49.8128
48.1993
46.8923
46.1588
45.9715
46.1471
46.4624
46.7661
46.9938
47.1308
47.1839
47.1713
47.1168
47.0425
46.965
46.8947
46.8366
46.7922
46.7607
46.7398
46.7271
46.7198
46.7159
46.7137
46.7122
46.7104
46.708
46.7045
46.6998
46.6937
46.6863
46.6776
46.6677
46.6567
46.6446
46.6314
46.6169
46.6008
46.5829
46.5628
46.5412
46.5184
46.495
46.4717
46.4496
46.4288
46.4086
46.3884
46.3687
46.3501
46.3338
46.3204
46.3091
46.2994
46.2919
46.2864
46.2824
46.2793
46.2757
46.2709
46.2653
46.261
46.2585
46.2578
46.2574
46.2558
46.2504
46.2387
46.2188
46.1872
46.1429
46.0891
46.0295
45.9716
45.9293
45.9093
45.9108
45.9278
45.9521
45.9743
45.9854
45.9733
45.9306
45.8592
45.7738
45.6736
45.5878
45.519
45.4889
45.4945
45.5214
45.5892
45.6544
45.7466
45.8735
46.0319
46.1722
46.3297
46.5057
46.7069
46.8888
47.0794
47.2203
47.3371
47.4103
47.4882
47.5522
47.6429
47.7115
47.8001
47.8747
47.9829
48.0888
48.2383
48.3929
48.5912
48.789
49.0245
49.2576
49.5145
49.7551
50.0067
50.2224
50.4452
50.6218
50.8087
50.9514
51.0955
51.1918
51.3165
51.4236
51.5661
51.7084
51.8805
52.0365
52.2015
52.347
52.4838
52.6383
52.8102
53.0068
53.2348
53.4918
53.6858
53.9419
54.106
54.2337
54.2701
54.3898
54.4631
54.4886
54.7875
54.8157
55.1768
55.1781
55.3956
55.5576
55.6319
55.7703
55.8623
56.0298
56.4303
56.4261
56.6718
56.5986
56.6746
56.475
56.6506
56.5443
56.6838
56.5539
56.6643
56.5882
56.5411
56.3299
56.0986
55.7496
55.5096
55.0352
54.7443
54.4225
53.9913
53.838
53.2336
53.0278
52.0416
51.8111
50.7886
50.239
49.4634
48.7461
47.864
46.6078
45.473
43.7664
42.1618
40.2199
38.144
35.8961
49.4691
49.1465
48.0106
47.1027
46.6096
46.4988
46.6216
46.8212
47.0016
47.1257
47.1874
47.1942
47.1611
47.1053
47.0415
46.9799
46.926
46.8823
46.8486
46.8239
46.8063
46.794
46.7855
46.7797
46.7754
46.7722
46.7694
46.7667
46.7637
46.76
46.7554
46.7498
46.7433
46.736
46.7278
46.7193
46.7103
46.7004
46.6888
46.6754
46.6603
46.6436
46.6262
46.6091
46.5925
46.5767
46.5624
46.5498
46.5376
46.5249
46.5128
46.5041
46.4993
46.4969
46.4961
46.4974
46.5013
46.5072
46.5133
46.5182
46.5233
46.5298
46.5375
46.5456
46.5536
46.5602
46.5645
46.5635
46.5554
46.5379
46.5077
46.4653
46.412
46.3523
46.2979
46.2634
46.2555
46.271
46.3012
46.3386
46.3747
46.3992
46.3996
46.3704
46.3156
46.2506
46.163
46.1053
46.0574
46.048
46.0587
46.0987
46.1587
46.2298
46.3324
46.4784
46.6454
46.8139
46.9982
47.2088
47.413
47.6071
47.791
47.9404
48.0551
48.1439
48.2196
48.3015
48.3935
48.4892
48.5942
48.708
48.8385
48.9841
49.1525
49.3443
49.558
49.7875
50.0328
50.2923
50.5506
50.815
51.0655
51.2987
51.5212
51.7204
51.9099
52.0807
52.2266
52.3521
52.4809
52.6118
52.7564
52.9208
53.0876
53.2663
53.4297
53.5903
53.7316
53.9054
54.0798
54.3016
54.5294
54.7949
54.984
55.2835
55.3682
55.5226
55.5065
55.6863
55.7417
55.9547
56.1023
56.253
56.4659
56.5286
56.7311
56.9082
56.9077
57.1717
57.1931
57.6019
57.7262
57.8229
57.9315
57.9451
58.0077
58.0156
58.0568
58.0288
58.0117
58.0322
57.9682
57.9486
57.7857
57.6263
57.2679
57.1225
56.6696
56.4249
55.9962
55.7733
55.2781
55.2014
54.3662
54.1555
53.1134
53.0007
51.8212
51.5663
50.5756
50.0028
48.9459
47.8104
46.6227
44.8976
43.3098
41.3977
39.4373
37.2755
48.6347
48.4672
47.9141
47.4431
47.1625
47.0595
47.0703
47.1267
47.1821
47.2141
47.2156
47.1901
47.1462
47.0939
47.0411
46.993
46.9519
46.9182
46.8913
46.8701
46.8534
46.8404
46.8303
46.8226
46.8168
46.8125
46.8091
46.8063
46.8036
46.8007
46.7972
46.7928
46.788
46.7832
46.7782
46.7725
46.7666
46.7605
46.7537
46.7448
46.7342
46.7232
46.7121
46.7009
46.6903
46.6822
46.6763
46.6715
46.6668
46.6622
46.6595
46.6601
46.6639
46.6698
46.678
46.6885
46.7008
46.7146
46.7295
46.7439
46.7569
46.7697
46.7838
46.7991
46.8135
46.8245
46.8314
46.8336
46.8292
46.8153
46.7904
46.7558
46.7125
46.6648
46.6232
46.6019
46.6073
46.6346
46.6746
46.718
46.7588
46.7913
46.8037
46.7922
46.7586
46.7249
46.6662
46.6421
46.6142
46.6264
46.6467