/*--------------------------------*- C++ -*----------------------------------*\
| =========                 |                                                 |
| \\      /  F ield         | OpenFOAM: The Open Source CFD Toolbox           |
|  \\    /   O peration     | Version:  2.4.0                                 |
|   \\  /    A nd           | Web:      www.OpenFOAM.org                      |
|    \\/     M anipulation  |                                                 |
\*---------------------------------------------------------------------------*/
FoamFile
{
    version     2.0;
    format      ascii;
    class       volScalarField;
    location    "1.24";
    object      nuSgs;
}
// * * * * * * * * * * * * * * * * * * * * * * * * * * * * * * * * * * * * * //

dimensions      [0 2 -1 0 0 0 0];

internalField   nonuniform List<scalar> 
8800
(
0.00133857
0.00150689
0.00139271
0.00122953
0.00112024
0.00105136
0.000996378
0.000961121
0.000924579
0.000906221
0.00087791
0.000869205
0.000846377
0.000841548
0.000821407
0.000817957
0.000798932
0.000796623
0.000788221
0.000763477
0.000554301
0.000982013
0.0010829
0.00108142
0.00106255
0.00103513
0.00100087
0.000978508
0.000947925
0.000933025
0.000905753
0.00089664
0.000875507
0.000868892
0.000852569
0.000847171
0.000832432
0.000828355
0.000815219
0.000813756
0.000135689
0.000406358
0.000583765
0.000658763
0.000704348
0.000738457
0.000750269
0.000761208
0.000760091
0.000759351
0.000754429
0.000751687
0.000744682
0.000740639
0.000736195
0.000730798
0.000726767
0.000722452
0.000714436
0.000710517
2.6923e-05
0.000125551
0.000232468
0.000309862
0.000355756
0.000397325
0.000427256
0.000454766
0.000476283
0.000490699
0.000508479
0.000515753
0.000529635
0.000534315
0.000544969
0.000548347
0.000557393
0.00055775
0.000561559
0.000559264
5.11553e-06
3.34641e-05
6.99658e-05
0.000105095
0.000140385
0.000163923
0.000190808
0.000210884
0.000235428
0.000246641
0.000269507
0.000278539
0.000296359
0.000304318
0.000320205
0.000327686
0.000344954
0.000349618
0.00036283
0.000368288
2.37633e-06
8.45972e-06
1.82328e-05
2.7688e-05
4.14477e-05
5.05793e-05
6.25784e-05
7.49824e-05
8.82757e-05
9.47623e-05
0.00010934
0.000117145
0.000127265
0.000137381
0.000143047
0.000152615
0.000166339
0.00017041
0.000179165
0.000192938
2.22136e-06
3.19941e-06
5.18538e-06
7.64901e-06
1.02064e-05
1.36097e-05
1.59205e-05
2.0933e-05
2.41286e-05
2.73839e-05
3.26783e-05
3.73031e-05
3.9841e-05
4.63495e-05
4.86531e-05
5.41217e-05
5.82158e-05
6.35648e-05
6.75476e-05
7.95701e-05
2.15974e-06
2.63429e-06
3.20966e-06
4.05014e-06
4.41787e-06
5.14446e-06
5.41408e-06
6.30875e-06
6.7801e-06
7.70863e-06
8.35186e-06
9.9564e-06
1.0477e-05
1.25728e-05
1.28602e-05
1.46943e-05
1.56723e-05
1.78184e-05
1.93134e-05
2.63591e-05
2.14148e-06
2.62969e-06
3.11732e-06
3.38393e-06
3.76031e-06
4.16106e-06
4.23258e-06
4.25789e-06
4.20906e-06
4.22757e-06
4.3143e-06
4.75612e-06
4.84008e-06
5.0399e-06
4.99386e-06
5.22084e-06
5.41096e-06
5.66039e-06
5.79788e-06
7.67394e-06
2.13542e-06
2.58501e-06
3.04651e-06
3.2968e-06
3.54882e-06
3.79555e-06
3.95136e-06
4.09707e-06
4.09396e-06
4.01174e-06
3.96377e-06
3.9694e-06
4.0695e-06
4.23095e-06
4.22547e-06
4.2347e-06
4.35532e-06
4.33125e-06
4.29706e-06
4.48191e-06
2.13318e-06
2.47368e-06
2.84497e-06
3.67934e-06
3.78776e-06
3.74776e-06
3.74649e-06
3.949e-06
4.01798e-06
4.00706e-06
3.98103e-06
3.981e-06
3.99669e-06
4.18092e-06
4.2012e-06
4.22309e-06
4.32932e-06
4.3289e-06
4.30474e-06
4.35586e-06
2.14513e-06
2.46812e-06
3.03556e-06
3.75286e-06
3.80445e-06
3.84658e-06
3.96411e-06
4.23519e-06
4.28333e-06
4.31118e-06
4.38354e-06
4.42231e-06
4.54383e-06
4.90523e-06
4.97444e-06
5.20529e-06
5.84894e-06
5.92523e-06
5.92863e-06
6.26747e-06
2.15572e-06
2.59891e-06
3.14786e-06
4.15481e-06
4.66893e-06
5.10385e-06
5.43726e-06
6.22611e-06
6.6221e-06
7.62983e-06
8.63959e-06
9.44386e-06
1.04617e-05
1.28047e-05
1.34095e-05
1.47063e-05
1.70076e-05
1.84642e-05
1.96215e-05
2.20949e-05
2.18805e-06
3.07792e-06
5.08568e-06
9.04706e-06
1.10321e-05
1.42896e-05
1.65698e-05
2.10769e-05
2.34181e-05
2.88832e-05
3.18891e-05
3.76701e-05
4.06303e-05
4.71152e-05
4.97141e-05
5.59789e-05
5.96514e-05
6.63822e-05
7.0379e-05
8.03542e-05
2.34875e-06
8.19148e-06
1.77783e-05
3.27932e-05
4.12074e-05
5.36389e-05
6.1721e-05
7.68494e-05
8.39609e-05
9.89891e-05
0.000106161
0.000119917
0.000126103
0.000139304
0.000144621
0.000157383
0.000163909
0.000177137
0.000184415
0.000203873
5.23855e-06
3.28714e-05
6.90969e-05
0.000112044
0.000140534
0.000164919
0.000187257
0.000215674
0.000228181
0.000252607
0.000263673
0.000283296
0.000291912
0.000309993
0.000317131
0.000334304
0.000341831
0.00035894
0.00036768
0.000389153
2.73001e-05
0.000123712
0.000238083
0.000306023
0.000360671
0.000391958
0.000429865
0.00045388
0.0004738
0.000492688
0.000506065
0.000518366
0.000526889
0.000537864
0.000542411
0.000552312
0.000556076
0.000565869
0.000570034
0.000579387
0.000136709
0.000400354
0.000588265
0.000655173
0.000710128
0.000731864
0.000755353
0.00075725
0.000761432
0.000757614
0.000756217
0.000749279
0.000746846
0.000739272
0.000737262
0.00073069
0.000729183
0.000725251
0.000723462
0.000719199
0.000557338
0.00097989
0.00108441
0.00108069
0.00106473
0.00102942
0.00100654
0.000971489
0.000955781
0.000924214
0.000913535
0.000889307
0.000882003
0.000862172
0.000857855
0.000840917
0.000837225
0.000822034
0.000816712
0.000803047
0.00133923
0.00150548
0.0013942
0.00122666
0.00112353
0.00104681
0.00100114
0.000954944
0.00093186
0.000897616
0.000886259
0.000860078
0.000854392
0.000832098
0.000828556
0.000806616
0.000802428
0.000778109
0.000769555
0.000738344
0.000349138
0.000300471
0.000269323
0.000248115
0.000232181
0.000221419
0.000213449
0.000208391
0.000204295
0.000201444
0.000198845
0.000196686
0.000194648
0.000192828
0.000190849
0.000188791
0.000186342
0.000183493
0.000180578
0.000177304
0.000174311
0.000171212
0.000169001
0.000166449
0.000165031
0.000163385
0.000162593
0.000162001
0.0001621
0.000162398
0.000163285
0.000163751
0.000164828
0.000165028
0.000165459
0.00016538
0.000165415
0.000165465
0.000165589
0.000165735
0.000165745
0.00016586
0.000165752
0.000165816
0.000165756
0.000165906
0.000166162
0.000166706
0.00016738
0.00016811
0.000168882
0.00016878
0.000167628
0.000163805
0.000152901
0.000133379
0.000116443
0.000107127
0.000102824
0.000101573
0.000100611
0.00010019
9.97912e-05
9.90052e-05
9.72032e-05
9.45999e-05
9.03099e-05
8.41749e-05
7.99248e-05
7.97374e-05
8.11942e-05
8.64921e-05
9.22839e-05
0.000103182
0.000112162
0.000122558
0.000127613
0.00013525
0.000137908
0.000142966
0.000144236
0.0001466
0.000147588
0.000148447
0.000148839
0.000149027
0.00014963
0.000149691
0.000149362
0.000149828
0.000149663
0.000149496
0.000149547
0.000149776
0.000149879
0.000149492
0.000149716
0.00014997
0.000148352
0.000147995
0.000147356
0.000144513
0.000143559
0.000142306
0.000138147
0.000137894
0.000136702
0.000133459
0.000132984
0.000132101
0.000128763
0.00012846
0.000127562
0.000124539
0.000123564
0.000120908
0.00011799
0.000115023
0.000109518
0.000104759
9.56706e-05
8.65588e-05
7.63159e-05
6.28488e-05
5.19053e-05
4.20673e-05
3.47084e-05
2.91876e-05
2.54516e-05
2.41726e-05
2.35715e-05
2.36505e-05
2.46585e-05
2.50448e-05
2.63462e-05
2.7066e-05
2.68424e-05
2.71749e-05
2.75688e-05
2.7418e-05
2.77938e-05
2.85753e-05
2.89951e-05
3.05299e-05
3.55086e-05
3.92697e-05
4.24426e-05
4.99313e-05
6.45433e-05
9.70403e-05
0.00011609
0.000129093
0.000135111
0.000133556
0.000128704
0.000119181
0.00010822
0.000100407
9.53595e-05
9.03296e-05
8.44678e-05
8.08384e-05
8.0433e-05
8.16188e-05
8.69546e-05
9.14772e-05
9.17758e-05
9.07187e-05
8.72391e-05
7.75982e-05
6.65232e-05
5.98729e-05
5.77518e-05
5.37903e-05
4.55031e-05
3.86855e-05
3.45118e-05
3.20591e-05
3.20146e-05
3.41383e-05
4.02284e-05
5.27848e-05
6.8532e-05
7.70748e-05
7.81581e-05
7.58123e-05
6.91242e-05
6.85687e-05
7.25361e-05
7.25559e-05
7.35008e-05
6.9075e-05
6.50074e-05
6.29426e-05
5.8029e-05
5.43868e-05
5.36341e-05
5.35924e-05
6.72181e-05
0.000118876
0.000411922
0.000373804
0.000342343
0.000317799
0.000298372
0.000282887
0.0002704
0.000260424
0.000252129
0.000245271
0.000239453
0.000234314
0.000230028
0.00022605
0.000222894
0.000219788
0.000217288
0.000214643
0.000212393
0.000210071
0.00020785
0.000205604
0.000203603
0.000201513
0.000199807
0.000197784
0.000196509
0.00019464
0.000193489
0.000192035
0.000191104
0.000190133
0.000189273
0.000188591
0.000187873
0.000187093
0.000186369
0.000185598
0.000184911
0.000184324
0.00018372
0.000183183
0.000182644
0.000181773
0.000181343
0.00018038
0.000180113
0.000179493
0.0001795
0.000179599
0.000180037
0.000180702
0.000182119
0.000182469
0.000182264
0.00018059
0.000175767
0.00016486
0.000151009
0.00013442
0.000122471
0.000114405
0.000108911
0.000104523
0.000101617
9.7896e-05
9.34638e-05
9.27202e-05
9.3827e-05
9.72317e-05
0.000105534
0.000114751
0.000125841
0.000133276
0.000140075
0.000144487
0.000146588
0.000149291
0.000149872
0.000150823
0.000150813
0.00015065
0.0001503
0.000149282
0.000148451
0.000146814
0.000144848
0.000143097
0.000139749
0.000138088
0.000135079
0.000132619
0.000131516
0.000128037
0.000127331
0.00012719
0.000126338
0.00012685
0.000127263
0.000127156
0.000128616
0.000128301
0.000128083
0.000128659
0.000128056
0.000126473
0.000126339
0.000124165
0.000121886
0.000120661
0.000115806
0.00011323
0.000109146
0.000102906
9.94887e-05
9.17817e-05
8.40988e-05
7.78007e-05
6.77771e-05
5.93114e-05
5.07777e-05
4.35829e-05
3.697e-05
3.1399e-05
2.71316e-05
2.37267e-05
2.22088e-05
2.10819e-05
2.12327e-05
2.19741e-05
2.21535e-05
2.29922e-05
2.44548e-05
2.49217e-05
2.6761e-05
2.72268e-05
2.73652e-05
2.90549e-05
2.97082e-05
3.09565e-05
3.2755e-05
3.29433e-05
3.39489e-05
3.78163e-05
4.16584e-05
4.42801e-05
4.9095e-05
5.98166e-05
8.6859e-05
0.000115081
0.000131543
0.000141341
0.000140446
0.000135081
0.000121092
0.000108314
9.8155e-05
9.19351e-05
8.71602e-05
8.30598e-05
7.85014e-05
7.51309e-05
7.43994e-05
7.49808e-05
7.72212e-05
8.40785e-05
8.94341e-05
8.99415e-05
8.89466e-05
8.44877e-05
7.11279e-05
6.30487e-05
6.14438e-05
6.10879e-05
5.80712e-05
4.92401e-05
3.99306e-05
3.56125e-05
3.42862e-05
3.51448e-05
3.94699e-05
4.98374e-05
6.48453e-05
7.49136e-05
7.66314e-05
7.46448e-05
7.02632e-05
6.84782e-05
7.30985e-05
7.26693e-05
7.27294e-05
6.89847e-05
6.4605e-05
6.27529e-05
5.84239e-05
5.53031e-05
5.55557e-05
5.62469e-05
6.53541e-05
8.95143e-05
0.000370452
0.000349537
0.00032934
0.000311627
0.000296131
0.000283238
0.000271949
0.000262961
0.000254719
0.000247914
0.000241605
0.000236091
0.000231211
0.000226661
0.000222713
0.000219317
0.00021592
0.000213528
0.000210411
0.000208579
0.000205971
0.000204127
0.000202181
0.000200156
0.000198788
0.000196696
0.000195608
0.000193785
0.000192578
0.000191257
0.000189673
0.000188975
0.000187331
0.000186562
0.000185459
0.000184408
0.000183631
0.000182384
0.000181799
0.000180683
0.000179944
0.000179373
0.000178396
0.000177983
0.000177047
0.000176488
0.000176059
0.000175368
0.000175498
0.000175551
0.000175912
0.000176699
0.00017734
0.000179034
0.000180167
0.000180982
0.000181739
0.000181164
0.000179115
0.000176285
0.00017068
0.000162137
0.000155611
0.000147158
0.000141537
0.000136905
0.000134566
0.000134686
0.000136071
0.000137727
0.000141212
0.000143152
0.000146084
0.000147274
0.000148991
0.000150515
0.000150787
0.000150572
0.000150278
0.000149239
0.000147476
0.000145712
0.000142809
0.000139383
0.000135164
0.000132441
0.000125926
0.000121951
0.000118312
0.000110702
0.00010787
0.000102209
9.78991e-05
9.54171e-05
9.01578e-05
8.8714e-05
8.6521e-05
8.38516e-05
8.35877e-05
8.20864e-05
8.17681e-05
8.17133e-05
8.06431e-05
8.01702e-05
7.94925e-05
7.71776e-05
7.63056e-05
7.38468e-05
7.07685e-05
6.88564e-05
6.36836e-05
6.06309e-05
5.64102e-05
5.15789e-05
4.77265e-05
4.27777e-05
3.87771e-05
3.4515e-05
3.07178e-05
2.72182e-05
2.4167e-05
2.1763e-05
2.00889e-05
1.91912e-05
1.86781e-05
1.88068e-05
1.93485e-05
1.97239e-05
2.07971e-05
2.15986e-05
2.23103e-05
2.49472e-05
2.5978e-05
2.72403e-05
2.9244e-05
3.02178e-05
3.21946e-05
3.53134e-05
3.56433e-05
3.68609e-05
3.73074e-05
3.81281e-05
4.14967e-05
4.59543e-05
4.93871e-05
5.21888e-05
5.912e-05
7.5488e-05
0.000111036
0.000133971
0.00014652
0.000147427
0.000142459
0.000127348
0.000108382
9.7552e-05
8.81402e-05
8.25136e-05
7.71935e-05
7.36434e-05
7.02027e-05
6.81549e-05
6.78527e-05
6.82579e-05
7.05567e-05
7.44484e-05
8.3118e-05
8.79833e-05
8.84209e-05
8.66755e-05
7.83027e-05
6.81915e-05
6.33407e-05
6.20748e-05
6.1286e-05
5.77915e-05
4.56395e-05
3.76363e-05
3.58468e-05
3.6033e-05
3.88282e-05
4.55562e-05
6.20947e-05
7.162e-05
7.65365e-05
7.40944e-05
7.22079e-05
6.88967e-05
7.2607e-05
7.25395e-05
7.22487e-05
6.88617e-05
6.49528e-05
6.26531e-05
6.2196e-05
6.11713e-05
6.33725e-05
6.32162e-05
6.66121e-05
8.25003e-05
0.000296307
0.000285315
0.000274038
0.000263515
0.000253732
0.000244921
0.000236934
0.000230248
0.000224238
0.000219036
0.000214162
0.000209513
0.000205127
0.00020117
0.00019687
0.000193955
0.000190237
0.000187874
0.000185345
0.000182748
0.000181146
0.000178578
0.000176864
0.000174899
0.000173041
0.000171257
0.000169807
0.000168033
0.000166679
0.000165559
0.000163605
0.00016283
0.000161336
0.000160057
0.000159153
0.000157724
0.000157236
0.000156168
0.0001553
0.000154762
0.000153301
0.000152802
0.000151773
0.000150874
0.000150581
0.000149619
0.000149504
0.000149304
0.000149316
0.000149571
0.000150248
0.000151174
0.000153321
0.0001555
0.000157883
0.000162284
0.000165334
0.000168007
0.000170696
0.000170839
0.00017035
0.000169251
0.000166496
0.000164654
0.000161297
0.000158568
0.000156605
0.000153912
0.00015261
0.000150608
0.000149284
0.000148355
0.000146908
0.000146012
0.000144472
0.000141971
0.000140405
0.0001365
0.000134295
0.000129573
0.000126639
0.000121476
0.000114694
0.000111162
0.000102199
9.69717e-05
8.94439e-05
8.15624e-05
7.66296e-05
6.82604e-05
6.47225e-05
6.01477e-05
5.52809e-05
5.37842e-05
5.03313e-05
4.86358e-05
4.75195e-05
4.54802e-05
4.4863e-05
4.44682e-05
4.31071e-05
4.28448e-05
4.23025e-05
4.124e-05
4.07039e-05
3.94561e-05
3.79922e-05
3.66811e-05
3.45444e-05
3.27409e-05
3.04516e-05
2.84785e-05
2.61094e-05
2.41756e-05
2.20522e-05
2.02504e-05
1.87271e-05
1.75851e-05
1.67146e-05
1.61886e-05
1.62686e-05
1.64222e-05
1.66972e-05
1.74169e-05
1.79593e-05
1.90427e-05
2.0502e-05
2.16568e-05
2.4267e-05
2.58353e-05
2.81375e-05
3.13716e-05
3.24843e-05
3.49134e-05
3.67509e-05
3.81519e-05
4.09106e-05
4.14555e-05
4.22484e-05
4.4525e-05
4.52687e-05
4.68252e-05
4.95107e-05
5.21489e-05
5.44435e-05
5.90032e-05
7.17108e-05
0.000103273
0.000134999
0.000149841
0.000153573
0.000149999
0.000136207
0.000114545
0.00010057
9.10673e-05
8.26384e-05
7.73973e-05
7.22832e-05
6.83488e-05
6.61064e-05
6.41863e-05
6.38222e-05
6.44112e-05
6.67785e-05
6.9315e-05
7.41482e-05
8.3961e-05
8.69904e-05
8.63809e-05
8.22611e-05
7.29679e-05
6.68407e-05
6.46698e-05
6.46839e-05
6.28481e-05
5.31449e-05
4.14698e-05
3.75041e-05
3.70667e-05
3.82739e-05
4.27564e-05
5.82659e-05
6.95671e-05
7.61035e-05
7.44529e-05
7.2036e-05
6.93355e-05
7.07432e-05
7.1358e-05
7.1449e-05
6.92409e-05
6.63209e-05
6.31664e-05
6.31935e-05
6.3369e-05
6.55712e-05
6.75479e-05
7.03351e-05
8.11181e-05
0.000197849
0.000192984
0.000188625
0.000182236
0.000178403
0.000172816
0.00016917
0.000164986
0.000162066
0.000159317
0.000156743
0.000155006
0.00015179
0.000150298
0.000147205
0.000144853
0.000142664
0.000139473
0.000138223
0.000135718
0.000134067
0.00013311
0.000130976
0.000130191
0.000128488
0.000127237
0.000125838
0.000123792
0.000123002
0.000121462
0.000120014
0.000119442
0.000118003
0.000117276
0.000116017
0.000114694
0.000113929
0.000112492
0.000111982
0.000111727
0.00011107
0.000110878
0.000110014
0.000109201
0.000108388
0.000107403
0.0001074
0.000107432
0.000107609
0.000108362
0.000108958
0.000109774
0.000111696
0.000113012
0.000115282
0.000119031
0.000121393
0.000126362
0.000131225
0.000135082
0.000140158
0.000142979
0.000144947
0.000145456
0.000144959
0.000143698
0.000141764
0.000139022
0.000135435
0.000132943
0.000128475
0.000125042
0.000120062
0.00011651
0.000110291
0.000106587
0.000101992
9.52315e-05
9.19783e-05
8.50603e-05
7.99583e-05
7.46481e-05
6.836e-05
6.45841e-05
5.82239e-05
5.43942e-05
4.97573e-05
4.48729e-05
4.21524e-05
3.76006e-05
3.48961e-05
3.24769e-05
2.96367e-05
2.818e-05
2.66617e-05
2.52006e-05
2.44102e-05
2.37184e-05
2.27626e-05
2.24295e-05
2.18651e-05
2.12879e-05
2.10314e-05
2.04387e-05
1.98775e-05
1.93898e-05
1.8443e-05
1.77632e-05
1.68478e-05
1.59233e-05
1.50733e-05
1.42766e-05
1.37023e-05
1.32346e-05
1.30849e-05
1.32489e-05
1.34375e-05
1.38551e-05
1.43911e-05
1.49702e-05
1.62854e-05
1.75275e-05
1.89772e-05
2.18639e-05
2.35242e-05
2.69362e-05
2.8888e-05
3.23229e-05
3.541e-05
3.71762e-05
4.0722e-05
4.29663e-05
4.39964e-05
4.67505e-05
4.74873e-05
4.86101e-05
5.00875e-05
5.07396e-05
5.25743e-05
5.25774e-05
5.27173e-05
5.33632e-05
5.6712e-05
6.1426e-05
6.36796e-05
7.10733e-05
9.26837e-05
0.000124901
0.00014685
0.000157095
0.000158194
0.000149851
0.000126518
0.000105691
9.66275e-05
8.53798e-05
7.85783e-05
7.32919e-05
6.87971e-05
6.52383e-05
6.28418e-05
6.10995e-05
6.04715e-05
6.09273e-05
6.40443e-05
6.69141e-05
6.98541e-05
7.67921e-05
8.30424e-05
8.44309e-05
8.24078e-05
7.57824e-05
6.85428e-05
6.51798e-05
6.52598e-05
6.45967e-05
5.83792e-05
4.55375e-05
3.89618e-05
3.85077e-05
3.87577e-05
4.21238e-05
5.63164e-05
6.81568e-05
7.50946e-05
7.46793e-05
7.22638e-05
6.89893e-05
6.92513e-05
7.00805e-05
7.04527e-05
6.92686e-05
6.6355e-05
6.39563e-05
6.29757e-05
6.33441e-05
6.4618e-05
6.75281e-05
6.96147e-05
7.722e-05
0.000104401
0.000102236
0.000100848
9.75207e-05
9.6096e-05
9.38661e-05
9.28083e-05
9.12426e-05
8.98042e-05
8.9281e-05
8.8356e-05
8.80716e-05
8.7358e-05
8.69918e-05
8.61834e-05
8.49345e-05
8.41987e-05
8.184e-05
8.09575e-05
7.946e-05
7.83639e-05
7.80425e-05
7.68622e-05
7.66512e-05
7.61453e-05
7.55384e-05
7.5075e-05
7.33051e-05
7.27596e-05
7.17519e-05
7.06472e-05
7.02738e-05
6.92316e-05
6.90385e-05
6.85765e-05
6.7992e-05
6.74118e-05
6.60317e-05
6.56706e-05
6.50805e-05
6.48778e-05
6.49735e-05
6.49628e-05
6.50277e-05
6.50177e-05
6.42648e-05
6.37003e-05
6.34881e-05
6.34921e-05
6.38758e-05
6.4504e-05
6.53565e-05
6.72883e-05
6.83592e-05
7.00435e-05
7.28559e-05
7.45159e-05
7.80346e-05
8.10443e-05
8.39182e-05
8.84506e-05
9.0562e-05
9.29686e-05
9.50495e-05
9.54044e-05
9.51286e-05
9.42562e-05
9.19437e-05
8.94263e-05
8.56903e-05
8.15015e-05
7.7549e-05
7.30099e-05
6.90422e-05
6.45553e-05
6.09681e-05
5.68015e-05
5.2971e-05
4.98266e-05
4.56532e-05
4.29706e-05
3.97793e-05
3.65637e-05
3.45056e-05
3.14541e-05
2.93046e-05
2.70169e-05
2.45735e-05
2.2671e-05
2.06097e-05
1.87655e-05
1.72165e-05
1.59886e-05
1.47519e-05
1.39919e-05
1.34371e-05
1.27078e-05
1.24792e-05
1.19952e-05
1.17942e-05
1.15571e-05
1.12242e-05
1.11134e-05
1.08777e-05
1.0629e-05
1.05496e-05
1.02244e-05
1.00686e-05
1.0009e-05
1.00278e-05
1.02245e-05
1.04155e-05
1.08018e-05
1.13155e-05
1.20185e-05
1.33346e-05
1.44279e-05
1.63884e-05
1.9052e-05
2.10759e-05
2.53372e-05
2.78495e-05
3.20958e-05
3.60395e-05
3.86487e-05
4.38091e-05
4.61616e-05
4.98227e-05
5.26426e-05
5.47198e-05
5.75229e-05
5.8689e-05
5.95617e-05
6.07896e-05
6.09049e-05
6.21152e-05
6.2458e-05
6.16404e-05
6.08469e-05
6.06188e-05
6.1336e-05
6.27591e-05
6.44704e-05
6.49904e-05
6.8203e-05
8.54642e-05
0.000117532
0.000138322
0.000155535
0.00016483
0.000162703
0.000142455
0.000117129
0.00010035
9.25439e-05
7.83215e-05
7.37482e-05
6.79074e-05
6.48109e-05
6.32431e-05
6.06516e-05
6.01233e-05
6.01864e-05
6.01286e-05
6.19997e-05
6.38485e-05
6.71978e-05
7.37593e-05
7.99914e-05
8.13551e-05
8.10092e-05
7.75723e-05
7.01285e-05
6.5645e-05
6.51375e-05
6.44309e-05
5.90987e-05
4.93743e-05
4.19058e-05
4.08938e-05
4.04836e-05
4.26706e-05
5.52235e-05
6.71872e-05
7.5324e-05
7.51485e-05
7.30493e-05
6.93194e-05
6.75394e-05
6.75588e-05
6.79134e-05
6.84035e-05
6.65069e-05
6.46223e-05
6.24029e-05
6.27049e-05
6.2607e-05
6.39468e-05
6.59279e-05
6.81042e-05
4.31933e-05
4.23445e-05
4.16203e-05
4.01209e-05
3.97012e-05
3.91191e-05
3.8922e-05
3.86466e-05
3.85615e-05
3.85809e-05
3.8548e-05
3.85917e-05
3.8494e-05
3.84668e-05
3.83471e-05
3.79792e-05
3.78992e-05
3.7277e-05
3.69609e-05
3.63703e-05
3.58458e-05
3.57425e-05
3.52157e-05
3.52715e-05
3.50754e-05
3.50403e-05
3.50904e-05
3.48308e-05
3.48311e-05
3.44303e-05
3.38759e-05
3.34424e-05
3.29287e-05
3.29844e-05
3.28476e-05
3.2861e-05
3.2853e-05
3.24127e-05
3.21646e-05
3.18089e-05
3.17835e-05
3.18956e-05
3.21027e-05
3.24925e-05
3.2714e-05
3.26997e-05
3.24411e-05
3.23082e-05
3.22736e-05
3.24513e-05
3.286e-05
3.3418e-05
3.49896e-05
3.58508e-05
3.69924e-05
3.88551e-05
3.98556e-05
4.18874e-05
4.36593e-05
4.52635e-05
4.77628e-05
4.98923e-05
5.13626e-05
5.30326e-05
5.37734e-05
5.36716e-05
5.32191e-05
5.22253e-05
5.04665e-05
4.82025e-05
4.61218e-05
4.32152e-05
4.07903e-05
3.82031e-05
3.53337e-05
3.31502e-05
3.04159e-05
2.81147e-05
2.61091e-05
2.37348e-05
2.21537e-05
2.04926e-05
1.89211e-05
1.77668e-05
1.65553e-05
1.53173e-05
1.4307e-05
1.31327e-05
1.20635e-05
1.1132e-05
1.0171e-05
9.44127e-06
8.93676e-06
8.41351e-06
8.11402e-06
7.90728e-06
7.68888e-06
7.574e-06
7.54774e-06
7.47819e-06
7.48291e-06
7.50268e-06
7.59598e-06
7.64899e-06
7.77965e-06
7.96972e-06
8.1529e-06
8.39958e-06
8.95706e-06
9.47506e-06
1.05406e-05
1.15377e-05
1.32548e-05
1.53051e-05
1.78486e-05
2.17034e-05
2.44806e-05
2.96157e-05
3.34501e-05
3.84338e-05
4.45069e-05
4.7893e-05
5.47768e-05
5.82424e-05
6.31732e-05
6.77315e-05
6.98171e-05
7.39032e-05
7.57537e-05
7.74532e-05
7.84021e-05
7.82516e-05
7.84789e-05
7.84191e-05
7.75286e-05
7.6627e-05
7.42992e-05
7.19964e-05
7.13199e-05
6.99553e-05
6.85635e-05
6.85845e-05
6.94757e-05
7.10716e-05
7.86162e-05
0.000103186
0.00012978
0.000143331
0.000165565
0.000171802
0.000164235
0.000134973
0.000110284
9.68647e-05
8.19852e-05
7.2539e-05
6.95887e-05
6.2652e-05
6.1178e-05
5.94454e-05
5.99622e-05
5.9586e-05
5.95708e-05
6.03364e-05
6.39011e-05
6.34274e-05
6.44083e-05
7.13281e-05
7.55468e-05
8.15004e-05
8.10493e-05
7.79934e-05
7.12186e-05
6.61788e-05
6.42392e-05
6.38218e-05
5.95372e-05
5.13309e-05
4.56682e-05
4.4257e-05
4.40588e-05
4.49078e-05
5.32783e-05
6.6169e-05
7.49986e-05
7.55162e-05
7.47654e-05
7.06883e-05
6.73081e-05
6.59265e-05
6.51692e-05
6.59754e-05
6.56112e-05
6.45754e-05
6.24429e-05
6.19816e-05
6.05177e-05
6.05539e-05
6.14902e-05
6.27786e-05
1.44979e-05
1.4375e-05
1.40793e-05
1.36559e-05
1.34431e-05
1.3217e-05
1.31772e-05
1.31872e-05
1.326e-05
1.33398e-05
1.34908e-05
1.35654e-05
1.35533e-05
1.35619e-05
1.35272e-05
1.34953e-05
1.34906e-05
1.33254e-05
1.32304e-05
1.30139e-05
1.28467e-05
1.27849e-05
1.26101e-05
1.26222e-05
1.25759e-05
1.25844e-05
1.27127e-05
1.27396e-05
1.28472e-05
1.28027e-05
1.26975e-05
1.24533e-05
1.22828e-05
1.23153e-05
1.23131e-05
1.24336e-05
1.24929e-05
1.24588e-05
1.24531e-05
1.23671e-05
1.23853e-05
1.24625e-05
1.26328e-05
1.31025e-05
1.32516e-05
1.33639e-05
1.34063e-05
1.34397e-05
1.35e-05
1.36421e-05
1.38728e-05
1.44877e-05
1.50653e-05
1.58351e-05
1.66192e-05
1.72734e-05
1.83634e-05
1.91374e-05
2.01433e-05
2.14737e-05
2.23295e-05
2.41716e-05
2.50847e-05
2.6146e-05
2.69093e-05
2.6906e-05
2.66892e-05
2.62474e-05
2.54756e-05
2.41647e-05
2.33138e-05
2.16367e-05
2.03455e-05
1.90666e-05
1.74324e-05
1.63718e-05
1.49285e-05
1.37362e-05
1.26953e-05
1.15331e-05
1.06738e-05
9.93573e-06
9.19587e-06
8.77649e-06
8.32765e-06
7.89259e-06
7.64623e-06
7.26044e-06
7.09849e-06
6.9368e-06
6.80764e-06
6.79068e-06
6.76365e-06
6.73485e-06
6.74316e-06
6.75426e-06
6.7767e-06
6.85471e-06
6.92331e-06
7.08265e-06
7.25552e-06
7.425e-06
7.82803e-06
8.12801e-06
8.66389e-06
9.52094e-06
1.02366e-05
1.16762e-05
1.30706e-05
1.4866e-05
1.82753e-05
2.06858e-05
2.37071e-05
2.90961e-05
3.35468e-05
3.88862e-05
4.55284e-05
5.24719e-05
5.79662e-05
6.6467e-05
7.2427e-05
7.90797e-05
8.59068e-05
8.96778e-05
9.5998e-05
9.85324e-05
0.00010189
0.000103936
0.000104185
0.00010407
0.000103601
0.000102057
0.000100723
9.77265e-05
9.41348e-05
9.20725e-05
8.69906e-05
8.45871e-05
8.08267e-05
7.77977e-05
7.76147e-05
7.86305e-05
7.81992e-05
7.92853e-05
9.07986e-05
0.000122062
0.000137042
0.000158395
0.000173517
0.000176584
0.000162166
0.000129392
0.000105523
8.75406e-05
7.58081e-05
7.0135e-05
6.40773e-05
5.90839e-05
5.82662e-05
5.71953e-05
5.71173e-05
5.68715e-05
6.11027e-05
5.97038e-05
6.28298e-05
6.41473e-05
6.43061e-05
6.81638e-05
7.4562e-05
7.9907e-05
8.24249e-05
7.94212e-05
7.37832e-05
6.76375e-05
6.41946e-05
6.41374e-05
6.07537e-05
5.41754e-05
5.04046e-05
4.80142e-05
4.76915e-05
4.80625e-05
5.14577e-05
6.41231e-05
7.35321e-05
7.57756e-05
7.54844e-05
7.32184e-05
6.80427e-05
6.6288e-05
6.34883e-05
6.29704e-05
6.31172e-05
6.32706e-05
6.2127e-05
6.15165e-05
6.01267e-05
5.92444e-05
5.91777e-05
5.94521e-05
4.32715e-06
4.32441e-06
4.30733e-06
4.27185e-06
4.21436e-06
4.15641e-06
4.12072e-06
4.11718e-06
4.12746e-06
4.17073e-06
4.25473e-06
4.28518e-06
4.32295e-06
4.31113e-06
4.27197e-06
4.21095e-06
4.1933e-06
4.17132e-06
4.16974e-06
4.1393e-06
4.10787e-06
4.0941e-06
4.05803e-06
4.02909e-06
4.00587e-06
3.9897e-06
4.00575e-06
4.06034e-06
4.13184e-06
4.16328e-06
4.15986e-06
4.12434e-06
4.05932e-06
4.04351e-06
4.04425e-06
4.10217e-06
4.16133e-06
4.16947e-06
4.17969e-06
4.15833e-06
4.16108e-06
4.17793e-06
4.20848e-06
4.37404e-06
4.42052e-06
4.50389e-06
4.57046e-06
4.61575e-06
4.77259e-06
4.85941e-06
5.01581e-06
5.25571e-06
5.40864e-06
5.76475e-06
6.09377e-06
6.38601e-06
7.08811e-06
7.43694e-06
7.93388e-06
8.6734e-06
9.03434e-06
9.95757e-06
1.03814e-05
1.0931e-05
1.14473e-05
1.154e-05
1.14803e-05
1.13082e-05
1.10367e-05
1.03599e-05
1.00283e-05
9.24741e-06
8.72805e-06
8.21593e-06
7.60984e-06
7.25695e-06
6.78962e-06
6.36262e-06
6.08309e-06
5.78687e-06
5.61667e-06
5.59764e-06
5.59896e-06
5.64105e-06
5.69426e-06
5.83441e-06
5.96023e-06
6.0738e-06
6.39415e-06
6.59847e-06
6.93795e-06
7.2639e-06
7.77073e-06
8.03552e-06
8.48258e-06
8.86203e-06
9.15207e-06
9.76208e-06
1.00597e-05
1.06268e-05
1.12987e-05
1.18469e-05
1.30331e-05
1.3842e-05
1.55313e-05
1.69462e-05
1.89302e-05
2.18925e-05
2.4411e-05
2.82266e-05
3.35251e-05
3.79878e-05
4.3211e-05
5.26241e-05
5.87931e-05
6.77676e-05
7.80067e-05
8.54851e-05
9.57366e-05
0.000105015
0.000111713
0.00012055
0.000125414
0.000130792
0.00013492
0.00013713
0.000138573
0.000138323
0.000137333
0.000135855
0.00013226
0.000128026
0.000124608
0.000117516
0.00011412
0.00010859
0.000101836
9.87715e-05
9.42754e-05
8.7295e-05
8.53643e-05
8.54273e-05
8.51687e-05
8.8892e-05
0.000114507
0.000138029
0.000146642
0.00016401
0.000176153
0.000180606
0.00015695
0.000127935
0.000101297
8.28988e-05
7.39642e-05
6.77819e-05
6.21141e-05
5.75125e-05
5.80797e-05
5.69047e-05
5.8616e-05
5.70875e-05
6.20551e-05
6.00808e-05
5.92808e-05
6.16216e-05
6.45894e-05
7.18864e-05
7.51304e-05
7.79023e-05
8.75601e-05
8.37659e-05
7.51922e-05
7.14466e-05
6.51407e-05
6.59045e-05
6.26757e-05
5.8152e-05
5.29311e-05
5.18979e-05
5.03035e-05
5.01533e-05
5.16959e-05
6.03366e-05
7.0823e-05
7.58374e-05
7.61042e-05
7.58553e-05
7.17178e-05
6.74968e-05
6.36463e-05
6.28281e-05
6.08989e-05
6.0735e-05
6.02395e-05
6.01349e-05
5.9743e-05
5.91635e-05
5.87621e-05
5.8341e-05
2.47265e-06
2.50038e-06
2.55922e-06
2.57953e-06
2.58342e-06
2.60132e-06
2.6303e-06
2.65121e-06
2.65056e-06
2.63599e-06
2.61973e-06
2.61609e-06
2.61328e-06
2.60093e-06
2.58596e-06
2.57672e-06
2.57609e-06
2.59671e-06
2.6637e-06
2.71473e-06
2.73063e-06
2.72335e-06
2.67535e-06
2.6444e-06
2.62803e-06
2.62573e-06
2.61964e-06
2.59199e-06
2.57937e-06
2.56971e-06
2.56224e-06
2.5571e-06
2.55683e-06
2.55656e-06
2.55312e-06
2.55103e-06
2.57241e-06
2.62581e-06
2.66432e-06
2.67596e-06
2.67642e-06
2.66932e-06
2.66894e-06
2.67372e-06
2.67339e-06
2.68219e-06
2.69601e-06
2.70912e-06
2.74808e-06
2.76199e-06
2.799e-06
2.84355e-06
2.86768e-06
2.93124e-06
2.97996e-06
3.05557e-06
3.25184e-06
3.35503e-06
3.5622e-06
3.67193e-06
3.87806e-06
4.01736e-06
4.14111e-06
4.3454e-06
4.40979e-06
4.68163e-06
4.72334e-06
4.71088e-06
4.70388e-06
4.64496e-06
4.49086e-06
4.44836e-06
4.37682e-06
4.34949e-06
4.36164e-06
4.37363e-06
4.44524e-06
4.5491e-06
4.76968e-06
4.98587e-06
5.27358e-06
5.75965e-06
6.06191e-06
6.67451e-06
7.07595e-06
7.88807e-06
8.38071e-06
9.10442e-06
1.01004e-05
1.09505e-05
1.19647e-05
1.28758e-05
1.40337e-05
1.45431e-05
1.55002e-05
1.6061e-05
1.67675e-05
1.78412e-05
1.83746e-05
1.94858e-05
2.03332e-05
2.206e-05
2.36383e-05
2.50741e-05
2.83504e-05
3.05948e-05
3.48747e-05
3.83386e-05
4.38109e-05
5.02478e-05
5.82554e-05
6.57377e-05
7.56978e-05
8.76131e-05
9.80781e-05
0.000111001
0.000121865
0.000133785
0.000144912
0.000153676
0.000161215
0.000166933
0.000170736
0.00017392
0.000175495
0.00017566
0.000175298
0.00017378
0.000171369
0.000166439
0.000159272
0.000155327
0.000147439
0.00013911
0.000134276
0.000126192
0.000120167
0.000115175
0.000106807
0.000102766
9.77863e-05
9.45473e-05
9.44847e-05
0.000104842
0.000131249
0.000140528
0.00014655
0.000162409
0.000181804
0.000184511
0.000155845
0.000132927
0.00010001
8.17201e-05
7.37786e-05
6.78485e-05
6.1788e-05
5.70733e-05
5.78928e-05
5.55378e-05
6.60307e-05
5.54639e-05
6.17506e-05
6.07515e-05
5.90861e-05
6.41576e-05
6.40518e-05
7.13799e-05
8.18496e-05
8.09231e-05
9.01277e-05
8.70889e-05
7.77469e-05
7.63009e-05
6.92563e-05
6.9447e-05
6.54638e-05
6.22205e-05
5.72508e-05
5.35896e-05
5.37547e-05
5.29992e-05
5.38111e-05
5.8206e-05
6.8997e-05
7.56728e-05
7.63423e-05
7.69623e-05
7.56054e-05
7.05141e-05
6.46597e-05
6.33377e-05
6.06241e-05
5.999e-05
5.85706e-05
5.83419e-05
5.86248e-05
5.87304e-05
5.85987e-05
5.8145e-05
2.39903e-06
2.42767e-06
2.5228e-06
2.62751e-06
2.64776e-06
2.64245e-06
2.6184e-06
2.60306e-06
2.60912e-06
2.65151e-06
2.6674e-06
2.67248e-06
2.66689e-06
2.64296e-06
2.6343e-06
2.62877e-06
2.6338e-06
2.73443e-06
2.89941e-06
3.05719e-06
3.13553e-06
3.16432e-06
3.16056e-06
3.0533e-06
2.92148e-06
2.80409e-06
2.70111e-06
2.65343e-06
2.61842e-06
2.60816e-06
2.61689e-06
2.68499e-06
2.7957e-06
2.83916e-06
2.86672e-06
2.88356e-06
2.9652e-06
3.22998e-06
3.36601e-06
3.46118e-06
3.47206e-06
3.37173e-06
3.20033e-06
3.05381e-06
2.98754e-06
2.98507e-06
2.99773e-06
3.03734e-06
3.0454e-06
3.03164e-06
2.99217e-06
2.94688e-06
2.92445e-06
2.9336e-06
2.95512e-06