/*--------------------------------*- C++ -*----------------------------------*\
| =========                 |                                                 |
| \\      /  F ield         | OpenFOAM: The Open Source CFD Toolbox           |
|  \\    /   O peration     | Version:  2.4.0                                 |
|   \\  /    A nd           | Web:      www.OpenFOAM.org                      |
|    \\/     M anipulation  |                                                 |
\*---------------------------------------------------------------------------*/
FoamFile
{
    version     2.0;
    format      ascii;
    class       surfaceScalarField;
    location    "1.24";
    object      phi;
}
// * * * * * * * * * * * * * * * * * * * * * * * * * * * * * * * * * * * * * //

dimensions      [0 3 -1 0 0 0 0];

internalField   nonuniform List<scalar> 
17320
(
1.76387e-05
7.36129e-06
1.16181e-05
6.0206e-06
8.68192e-06
2.93619e-06
7.3554e-06
1.32651e-06
6.7196e-06
6.35806e-07
6.34066e-06
3.78942e-07
6.08017e-06
2.60486e-07
5.87202e-06
2.08149e-07
5.69997e-06
1.72052e-07
5.59098e-06
1.08993e-07
5.47738e-06
1.13593e-07
5.38651e-06
9.08705e-08
5.30824e-06
7.8269e-08
5.23002e-06
7.82264e-08
5.13204e-06
9.79737e-08
5.0973e-06
3.47438e-08
4.96273e-06
1.34574e-07
5.01088e-06
-4.81557e-08
4.82663e-06
1.84252e-07
-3.73773e-07
5.2004e-06
2.54636e-05
6.89765e-06
2.32472e-05
8.23704e-06
2.09911e-05
5.19227e-06
1.93189e-05
2.99876e-06
1.8077e-05
1.87771e-06
1.71105e-05
1.34545e-06
1.63712e-05
9.99719e-07
1.57722e-05
8.07203e-07
1.53034e-05
6.40853e-07
1.49446e-05
4.67818e-07
1.46297e-05
4.2841e-07
1.43741e-05
3.46496e-07
1.41489e-05
3.03504e-07
1.3946e-05
2.81132e-07
1.37233e-05
3.20691e-07
1.35855e-05
1.72506e-07
1.33236e-05
3.96429e-07
1.3321e-05
-4.55077e-08
1.32017e-05
3.03575e-07
-4.23959e-07
1.32519e-05
2.66244e-05
5.27321e-06
2.71509e-05
7.71054e-06
2.67832e-05
5.55997e-06
2.62516e-05
3.53043e-06
2.56066e-05
2.52271e-06
2.48707e-05
2.08128e-06
2.417e-05
1.70045e-06
2.34975e-05
1.47974e-06
2.29328e-05
1.20548e-06
2.24562e-05
9.44438e-07
2.20292e-05
8.55394e-07
2.16774e-05
6.98289e-07
2.13573e-05
6.23626e-07
2.10778e-05
5.60615e-07
2.07902e-05
6.08316e-07
2.05686e-05
3.94084e-07
2.02679e-05
6.97177e-07
2.01736e-05
4.87847e-08
2.01505e-05
3.26665e-07
-7.35296e-07
2.04618e-05
2.63325e-05
3.94074e-06
2.75326e-05
6.51037e-06
2.80843e-05
5.00834e-06
2.84579e-05
3.15678e-06
2.86503e-05
2.33037e-06
2.86222e-05
2.10931e-06
2.84905e-05
1.83213e-06
2.8226e-05
1.74427e-06
2.79686e-05
1.46294e-06
2.77068e-05
1.20617e-06
2.74213e-05
1.14095e-06
2.71749e-05
9.4467e-07
2.69175e-05
8.80983e-07
2.66653e-05
8.12893e-07
2.64443e-05
8.29249e-07
2.61839e-05
6.54486e-07
2.59507e-05
9.30364e-07
2.57299e-05
2.69593e-07
2.55581e-05
4.98527e-07
-2.77348e-07
2.51001e-05
2.60472e-05
2.89354e-06
2.72425e-05
5.3151e-06
2.80337e-05
4.21714e-06
2.85067e-05
2.68376e-06
2.89816e-05
1.85544e-06
2.93227e-05
1.76824e-06
2.96088e-05
1.54604e-06
2.97288e-05
1.62426e-06
2.98457e-05
1.34604e-06
2.99319e-05
1.11999e-06
2.99463e-05
1.12655e-06
2.9966e-05
9.24937e-07
2.99768e-05
8.70158e-07
2.98838e-05
9.05889e-07
2.99192e-05
7.93852e-07
2.97701e-05
8.03624e-07
2.96999e-05
1.00052e-06
2.95107e-05
4.58866e-07
2.93426e-05
6.66578e-07
4.55083e-07
2.86102e-05
2.58406e-05
2.05291e-06
2.69653e-05
4.19043e-06
2.78072e-05
3.37529e-06
2.82366e-05
2.25432e-06
2.87066e-05
1.38547e-06
2.90854e-05
1.38936e-06
2.94944e-05
1.1371e-06
2.96921e-05
1.42658e-06
2.99821e-05
1.05599e-06
3.01859e-05
9.16167e-07
3.04209e-05
8.91618e-07
3.05109e-05
8.34916e-07
3.07847e-05
5.96303e-07
3.07508e-05
9.39845e-07
3.10399e-05
5.04724e-07
3.10096e-05
8.33893e-07
3.11799e-05
8.30312e-07
3.09792e-05
6.59545e-07
3.10288e-05
6.1697e-07
1.32383e-06
3.016e-05
2.56717e-05
1.38125e-06
2.67469e-05
3.11522e-06
2.76245e-05
2.49765e-06
2.80165e-05
1.86229e-06
2.84874e-05
9.14648e-07
2.88335e-05
1.04324e-06
2.92294e-05
7.41212e-07
2.9486e-05
1.16992e-06
2.97996e-05
7.42405e-07
2.99232e-05
7.92586e-07
3.03035e-05
5.11332e-07
3.03514e-05
7.87028e-07
3.06891e-05
2.58581e-07
3.06801e-05
9.48807e-07
3.1028e-05
1.56887e-07
3.10562e-05
8.05664e-07
3.13558e-05
5.30708e-07
3.10814e-05
9.33971e-07
3.10576e-05
6.40717e-07
2.16756e-06
3.02139e-05
2.55496e-05
8.31654e-07
2.65682e-05
2.09657e-06
2.74452e-05
1.62069e-06
2.80063e-05
1.30121e-06
2.83082e-05
6.12788e-07
2.86493e-05
7.02061e-07
2.90721e-05
3.18436e-07
2.93593e-05
8.82714e-07
2.95271e-05
5.74577e-07
2.97808e-05
5.38936e-07
3.01052e-05
1.86902e-07
3.02755e-05
6.16781e-07
3.03945e-05
1.39547e-07
3.06818e-05
6.6153e-07
3.07626e-05
7.60945e-08
3.10118e-05
5.564e-07
3.11125e-05
4.3002e-07
3.13799e-05
6.66566e-07
3.18443e-05
1.7636e-07
8.78816e-07
3.3133e-05
2.54533e-05
3.78369e-07
2.64891e-05
1.0608e-06
2.73698e-05
7.39912e-07
2.79295e-05
7.41564e-07
2.81943e-05
3.48003e-07
2.85982e-05
2.98109e-07
2.89282e-05
-1.15089e-08
2.92006e-05
6.10299e-07
2.94055e-05
3.69642e-07
2.97445e-05
1.99937e-07
2.9961e-05
-2.96205e-08
3.01732e-05
4.04574e-07
3.0287e-05
2.5805e-08
3.06073e-05
3.41179e-07
3.05654e-05
1.18068e-07
3.08761e-05
2.4564e-07
3.11518e-05
1.54308e-07
3.14083e-05
4.10073e-07
3.15596e-05
2.50805e-08
2.37791e-07
3.22006e-05
2.5412e-05
-3.35844e-08
2.64508e-05
2.19315e-08
2.72937e-05
-1.0293e-07
2.78637e-05
1.71575e-07
2.82109e-05
7.17006e-10
2.85157e-05
-6.68081e-09
2.87573e-05
-2.53071e-07
2.91795e-05
1.88137e-07
2.94734e-05
7.57261e-08
2.9714e-05
-4.07071e-08
2.98747e-05
-1.90342e-07
3.00685e-05
2.10807e-07
3.02363e-05
-1.42022e-07
3.05469e-05
3.06326e-08
3.0615e-05
4.99372e-08
3.07545e-05
1.06109e-07
3.11536e-05
-2.44755e-07
3.14527e-05
1.10989e-07
3.14623e-05
1.54769e-08
-5.51765e-08
3.17553e-05
2.5424e-05
-4.57535e-07
2.64425e-05
-9.96601e-07
2.72323e-05
-8.9272e-07
2.78952e-05
-4.91321e-07
2.82328e-05
-3.36906e-07
2.85226e-05
-2.96506e-07
2.87584e-05
-4.88861e-07
2.91922e-05
-2.45664e-07
2.94647e-05
-1.96752e-07
2.96996e-05
-2.75586e-07
2.98552e-05
-3.45993e-07
3.0104e-05
-3.79985e-08
3.0151e-05
-1.89024e-07
3.05506e-05
-3.68919e-07
3.06577e-05
-5.71608e-08
3.07721e-05
-8.31905e-09
3.10833e-05
-5.55967e-07
3.14762e-05
-2.81865e-07
3.15044e-05
-1.27094e-08
-3.05184e-07
3.17544e-05
2.54743e-05
-9.31869e-07
2.64867e-05
-2.00894e-06
2.72942e-05
-1.70023e-06
2.79414e-05
-1.1385e-06
2.82536e-05
-6.491e-07
2.85755e-05
-6.18421e-07
2.88388e-05
-7.52191e-07
2.92236e-05
-6.30487e-07
2.95088e-05
-4.8189e-07
2.97557e-05
-5.2249e-07
2.99023e-05
-4.92617e-07
3.01628e-05
-2.98533e-07
3.03095e-05
-3.35702e-07
3.04934e-05
-5.52808e-07
3.06652e-05
-2.28979e-07
3.09502e-05
-2.9331e-07
3.11469e-05
-7.52712e-07
3.14288e-05
-5.63759e-07
3.17473e-05
-3.31195e-07
-3.46995e-07
3.17891e-05
2.5544e-05
-1.4759e-06
2.6589e-05
-3.05392e-06
2.74105e-05
-2.52172e-06
2.80115e-05
-1.73954e-06
2.83545e-05
-9.92083e-07
2.86907e-05
-9.54646e-07
2.89548e-05
-1.01621e-06
2.93326e-05
-1.00834e-06
2.95811e-05
-7.3038e-07
2.98601e-05
-8.0143e-07
3.00165e-05
-6.49045e-07
3.02579e-05
-5.3991e-07
3.04089e-05
-4.86776e-07
3.05939e-05
-7.37744e-07
3.07776e-05
-4.12709e-07
3.11406e-05
-6.56275e-07
3.12322e-05
-8.44363e-07
3.14052e-05
-7.36707e-07
3.1793e-05
-7.19042e-07
-6.29519e-07
3.20755e-05
2.56805e-05
-2.15635e-06
2.67459e-05
-4.11933e-06
2.75718e-05
-3.34768e-06
2.80651e-05
-2.23282e-06
2.84864e-05
-1.41337e-06
2.88559e-05
-1.32412e-06
2.9177e-05
-1.33732e-06
2.94922e-05
-1.32359e-06
2.97489e-05
-9.87026e-07
3.0013e-05
-1.06554e-06
3.01792e-05
-8.15261e-07
3.04258e-05
-7.8649e-07
3.06072e-05
-6.68196e-07
3.07792e-05
-9.09765e-07
3.09471e-05
-5.80615e-07
3.12423e-05
-9.51468e-07
3.13292e-05
-9.31251e-07
3.15785e-05
-9.86024e-07
3.18706e-05
-1.01115e-06
-1.05961e-06
3.23007e-05
2.58415e-05
-2.99787e-06
2.69406e-05
-5.21836e-06
2.77901e-05
-4.19723e-06
2.82548e-05
-2.69753e-06
2.87274e-05
-1.88591e-06
2.91078e-05
-1.70458e-06
2.94434e-05
-1.67289e-06
2.9701e-05
-1.58123e-06
2.99613e-05
-1.24734e-06
3.01717e-05
-1.27591e-06
3.0366e-05
-1.00951e-06
3.05579e-05
-9.78423e-07
3.07218e-05
-8.32136e-07
3.08362e-05
-1.02409e-06
3.09898e-05
-7.3431e-07
3.11162e-05
-1.07783e-06
3.11474e-05
-9.6246e-07
3.13927e-05
-1.23135e-06
3.15599e-05
-1.1783e-06
-1.35735e-06
3.18576e-05
2.60282e-05
-4.02602e-06
2.72207e-05
-6.41086e-06
2.80392e-05
-5.01574e-06
2.85228e-05
-3.18121e-06
2.89811e-05
-2.3442e-06
2.93283e-05
-2.05172e-06
2.95769e-05
-1.92156e-06
2.97068e-05
-1.71107e-06
2.98502e-05
-1.39073e-06
2.9894e-05
-1.31973e-06
2.99555e-05
-1.07102e-06
2.99638e-05
-9.86677e-07
2.9967e-05
-8.3538e-07
2.98989e-05
-9.55993e-07
2.98872e-05
-7.2256e-07
2.97757e-05
-9.66424e-07
2.96752e-05
-8.61888e-07
2.96418e-05
-1.19798e-06
2.95386e-05
-1.07506e-06
-1.45658e-06
2.96378e-05
2.6296e-05
-5.322e-06
2.7539e-05
-7.65384e-06
2.80892e-05
-5.56597e-06
2.84549e-05
-3.54692e-06
2.8637e-05
-2.52631e-06
2.86293e-05
-2.04401e-06
2.84613e-05
-1.75357e-06
2.82171e-05
-1.46689e-06
2.7977e-05
-1.15065e-06
2.76799e-05
-1.02262e-06
2.74287e-05
-8.19773e-07
2.71615e-05
-7.19472e-07
2.6918e-05
-5.91861e-07
2.66405e-05
-6.78547e-07
2.64288e-05
-5.10852e-07
2.61305e-05
-6.68116e-07
2.5888e-05
-6.19421e-07
2.55731e-05
-8.83072e-07
2.53237e-05
-8.25633e-07
-1.32375e-06
2.51909e-05
2.65988e-05
-6.92084e-06
2.71606e-05
-8.21557e-06
2.6783e-05
-5.18843e-06
2.62437e-05
-3.00764e-06
2.55975e-05
-1.88011e-06
2.48787e-05
-1.32512e-06
2.41488e-05
-1.0237e-06
2.34955e-05
-8.13614e-07
2.29402e-05
-5.95378e-07
2.24379e-05
-5.20235e-07
2.20293e-05
-4.11236e-07
2.16652e-05
-3.55367e-07
2.13566e-05
-2.83279e-07
2.10368e-05
-3.58728e-07
2.07842e-05
-2.58252e-07
2.04706e-05
-3.5448e-07
2.01997e-05
-3.48499e-07
1.97966e-05
-4.79975e-07
1.9433e-05
-4.62054e-07
-4.77283e-07
1.85865e-05
2.54474e-05
-7.36823e-06
2.32481e-05
-6.01626e-06
2.099e-05
-2.93037e-06
1.93135e-05
-1.33114e-06
1.80722e-05
-6.38821e-07
1.71164e-05
-3.69308e-07
1.63604e-05
-2.67663e-07
1.57656e-05
-2.18859e-07
1.53145e-05
-1.44279e-07
1.49296e-05
-1.35348e-07
1.46254e-05
-1.07024e-07
1.43634e-05
-9.33109e-08
1.41481e-05
-6.80094e-08
1.39036e-05
-1.14177e-07
1.37165e-05
-7.12111e-08
1.34743e-05
-1.12287e-07
1.3242e-05
-1.16127e-07
1.29223e-05
-1.60323e-07
1.26634e-05
-2.03162e-07
-8.06081e-08
1.22667e-05
1.76318e-05
1.16155e-05
8.68513e-06
7.354e-06
6.71518e-06
6.34587e-06
6.07821e-06
5.85935e-06
5.71507e-06
5.57972e-06
5.4727e-06
5.37939e-06
5.31138e-06
5.1972e-06
5.12599e-06
5.0137e-06
4.89757e-06
4.73725e-06
4.53409e-06
4.45348e-06
5.68091e-06
-2.58901e-07
-2.2161e-07
6.05321e-06
-1.59264e-07
-2.13034e-07
6.30663e-06
-9.31078e-08
-1.6031e-07
6.51157e-06
-8.34102e-08
-1.21529e-07
6.69512e-06
-1.06801e-07
-7.67449e-08
6.88786e-06
-1.4646e-07
-4.62873e-08
7.07691e-06
-1.72798e-07
-1.62487e-08
7.24967e-06
-1.70618e-07
-2.13894e-09
7.40002e-06
-1.49158e-07
-1.19403e-09
7.52351e-06
-1.08674e-07
-1.48135e-08
7.61989e-06
-7.72081e-08
-1.91736e-08
7.70256e-06
-5.02511e-08
-3.24184e-08
7.78118e-06
-3.06451e-08
-4.7975e-08
7.85507e-06
-1.77519e-08
-5.61397e-08
7.94615e-06
-2.84945e-09
-8.82273e-08
8.06084e-06
1.53468e-08
-1.30037e-07
8.18777e-06
4.24988e-08
-1.69437e-07
8.33913e-06
4.81981e-08
-1.99556e-07
8.49643e-06
6.12488e-08
-2.18547e-07
8.64812e-06
5.42044e-08
-2.05892e-07
8.79341e-06
3.51038e-08
-1.80398e-07
8.92083e-06
2.61313e-08
-1.53552e-07
9.05064e-06
-1.18973e-08
-1.17907e-07
9.16336e-06
-2.08936e-08
-9.18283e-08
9.2747e-06
-6.01916e-08
-5.115e-08
9.3745e-06
-9.99339e-08
1.34147e-10
9.43849e-06
-1.31783e-07
6.77964e-08
9.49531e-06
-2.02812e-07
1.45992e-07
9.52402e-06
-2.26448e-07
1.97735e-07
9.54754e-06
-2.5979e-07
2.36275e-07
9.57422e-06
-2.74876e-07
2.48187e-07
9.60401e-06
-2.51574e-07
2.21786e-07
9.67274e-06
-2.53262e-07
1.84531e-07
9.74234e-06
-2.12053e-07
1.42455e-07
9.81533e-06
-2.1275e-07
1.39764e-07
9.87596e-06
-2.15135e-07
1.54499e-07
9.91768e-06
-2.15924e-07
1.74212e-07
9.94956e-06
-2.36378e-07
2.04494e-07
9.98296e-06
-2.09336e-07
1.75938e-07
1.00363e-05
-1.85585e-07
1.32244e-07
1.0098e-05
-1.76533e-07
1.14849e-07
1.01481e-05
-1.60927e-07
1.10791e-07
1.01893e-05
-2.07677e-07
1.66471e-07
1.01957e-05
-2.50237e-07
2.43891e-07
1.01612e-05
-3.12832e-07
3.47302e-07
1.00952e-05
-3.90832e-07
4.56863e-07
9.978e-06
-4.40628e-07
5.57799e-07
9.80966e-06
-4.89833e-07
6.58171e-07
9.59786e-06
-4.99144e-07
7.10945e-07
9.33929e-06
-4.82518e-07
7.41089e-07
9.05075e-06
-3.89183e-07
6.77719e-07
8.73812e-06
-2.54797e-07
5.6743e-07
8.44726e-06
-1.69318e-09
2.92554e-07
8.2426e-06
2.79512e-07
-7.48517e-08
8.23241e-06
6.47379e-07
-6.37196e-07
8.47968e-06
1.08625e-06
-1.33351e-06
9.03644e-06
1.56917e-06
-2.12593e-06
9.89532e-06
2.07948e-06
-2.93836e-06
1.09351e-05
2.60955e-06
-3.64937e-06
1.20632e-05
3.00997e-06
-4.13802e-06
1.31865e-05
3.30703e-06
-4.43031e-06
1.42203e-05
3.39957e-06
-4.43337e-06
1.52095e-05
3.19841e-06
-4.18767e-06
1.60326e-05
2.84132e-06
-3.66436e-06
1.66575e-05
2.21978e-06
-2.84472e-06
1.7127e-05
1.31306e-06
-1.7826e-06
1.72864e-05
4.08691e-07
-5.68075e-07
1.69785e-05
-6.20155e-07
9.28119e-07
1.63253e-05
-1.52828e-06
2.18144e-06
1.53397e-05
-2.00144e-06
2.98703e-06
1.43533e-05
-2.2085e-06
3.19492e-06
1.35974e-05
-2.20148e-06
2.95734e-06
1.31242e-05
-1.89039e-06
2.36362e-06
1.29636e-05
-1.64654e-06
1.80716e-06
1.30903e-05
-1.46838e-06
1.34161e-06
1.33749e-05
-1.16797e-06
8.83393e-07
1.37947e-05
-1.00723e-06
5.87438e-07
1.43609e-05
-1.09856e-06
5.32366e-07
1.48568e-05
-9.74454e-07
4.78596e-07
1.54922e-05
-1.17579e-06
5.40331e-07
1.60576e-05
-1.3455e-06
7.80147e-07
1.6536e-05
-1.51301e-06
1.03462e-06
1.71214e-05
-1.93609e-06
1.35062e-06
1.7615e-05
-2.03482e-06
1.54126e-06
1.80543e-05
-2.43243e-06
1.99313e-06
1.85328e-05
-2.70999e-06
2.23144e-06
1.89061e-05
-2.83239e-06
2.45917e-06
1.93045e-05
-3.14389e-06
2.7455e-06
1.97009e-05
-3.10802e-06
2.71159e-06
2.0009e-05
-3.26764e-06
2.95956e-06
2.03765e-05
-3.23503e-06
2.86749e-06
2.07029e-05
-3.05831e-06
2.73192e-06
2.09605e-05
-3.06592e-06
2.80831e-06
2.13505e-05
-2.8542e-06
2.46417e-06
2.16032e-05
-2.65251e-06
2.39982e-06
2.17876e-05
-2.46088e-06
2.27653e-06
2.22139e-05
-2.30314e-06
1.8768e-06
2.24931e-05
-2.16579e-06
1.88665e-06
2.26972e-05
-1.90614e-06
1.70197e-06
2.31136e-05
-1.9468e-06
1.5304e-06
2.33607e-05
-1.73419e-06
1.48713e-06
2.37845e-05
-1.76473e-06
1.34089e-06
2.43294e-05
-1.9599e-06
1.41502e-06
2.45899e-05
-1.68627e-06
1.42578e-06
2.50729e-05
-2.12293e-06
1.63994e-06
2.57615e-05
-2.40407e-06
1.71541e-06
2.615e-05
-2.01514e-06
1.62671e-06
2.67685e-05
-2.99943e-06
2.38093e-06
2.75152e-05
-2.9629e-06
2.21617e-06
2.80542e-05
-2.9154e-06
2.37636e-06
2.86169e-05
-4.09786e-06
3.53521e-06
2.94505e-05
-3.68138e-06
2.8478e-06
3.01563e-05
-4.15368e-06
3.44787e-06
3.07226e-05
-5.04184e-06
4.4755e-06
3.16119e-05
-4.74132e-06
3.85201e-06
3.23194e-05
-5.56682e-06
4.85936e-06
3.28873e-05
-5.88957e-06
5.32167e-06
3.38025e-05
-5.99611e-06
5.08087e-06
3.44038e-05
-6.75169e-06
6.15043e-06
3.50243e-05
-6.90838e-06
6.28786e-06
3.57187e-05
-7.54928e-06
6.85488e-06
3.60107e-05
-7.8233e-06
7.53129e-06
3.64931e-05
-8.20767e-06
7.72532e-06
3.67443e-05
-8.88284e-06
8.63164e-06
3.65201e-05
-8.83922e-06
9.06338e-06
3.6642e-05
-9.5216e-06
9.39973e-06
3.61633e-05
-9.78781e-06
1.02665e-05
3.55228e-05
-9.59872e-06
1.02392e-05
3.49427e-05
-1.0243e-05
1.08231e-05
3.37659e-05
-9.79186e-06
1.09686e-05
3.24045e-05
-9.37961e-06
1.0741e-05
3.11716e-05
-9.64346e-06
1.08764e-05
2.97353e-05
-8.70294e-06
1.01393e-05
2.86338e-05
-8.60917e-06
9.71059e-06
2.73635e-05
-8.21113e-06
9.48148e-06
2.59761e-05
-7.31194e-06
8.69936e-06
2.50589e-05
-7.03595e-06
7.95308e-06
2.39169e-05
-7.0075e-06
8.1495e-06
2.28144e-05
-6.11523e-06
7.21775e-06
2.24244e-05
-6.42283e-06
6.81282e-06
2.17386e-05
-6.34018e-06
7.02606e-06
2.09241e-05
-5.67974e-06
6.49425e-06
2.0706e-05
-6.47219e-06
6.69024e-06
2.00237e-05
-6.81076e-06
7.49308e-06
1.89998e-05
-6.42093e-06
7.44478e-06
1.85459e-05
-7.36461e-06
7.81853e-06
1.81473e-05
-8.1512e-06
8.54978e-06
1.75323e-05
-8.29238e-06
8.90744e-06
1.68819e-05
-8.7739e-06
9.42429e-06
1.67657e-05
-9.29602e-06
9.41221e-06
1.74966e-05
-1.07229e-05
9.992e-06
1.90369e-05
-1.28659e-05
1.13256e-05
2.09347e-05
-1.43722e-05
1.24744e-05
2.24933e-05
-1.46141e-05
1.30555e-05
2.40739e-05
-1.43113e-05
1.27307e-05
2.52079e-05
-1.32795e-05
1.21455e-05
2.59292e-05
-1.17255e-05
1.10042e-05
2.62597e-05
-9.02433e-06
8.69384e-06
2.65857e-05
-6.76217e-06
6.43612e-06
2.67077e-05
-4.36858e-06
4.24662e-06
2.66276e-05
-1.43858e-06
1.5186e-06
2.64609e-05
1.1819e-06
-1.01519e-06
2.6415e-05
3.39449e-06
-3.34854e-06
2.62073e-05
6.42907e-06
-6.2214e-06
2.59584e-05
9.55564e-06
-9.30672e-06
2.51407e-05
1.18896e-05
-1.1072e-05
2.40192e-05
1.32753e-05
-1.21539e-05
2.28544e-05
1.44798e-05
-1.3315e-05
2.19862e-05
1.37845e-05
-1.29163e-05
2.18627e-05
1.34697e-05
-1.33462e-05
2.11382e-05
1.54147e-05
-1.46903e-05
2.05024e-05
1.55183e-05
-1.48825e-05
1.95406e-05
1.46161e-05
-1.36543e-05
1.83841e-05
1.32177e-05
-1.20611e-05
1.81698e-05
1.23276e-05
-1.21133e-05
1.78621e-05
1.17161e-05
-1.14083e-05
1.78412e-05
1.06097e-05
-1.05888e-05
1.7422e-05
1.18824e-05
-1.14632e-05
1.69088e-05
1.31032e-05
-1.259e-05
1.69538e-05
1.32425e-05
-1.32874e-05
1.62917e-05
1.26964e-05
-1.20343e-05
1.61104e-05
1.05809e-05
-1.03995e-05
1.54628e-05
1.06005e-05
-9.95289e-06
1.48818e-05
1.08846e-05
-1.03036e-05
1.45571e-05
1.20181e-05
-1.16934e-05
1.35049e-05
1.31989e-05
-1.21467e-05
1.30445e-05
1.28868e-05
-1.24264e-05
1.21081e-05
1.37647e-05
-1.28283e-05
1.12684e-05
1.43451e-05
-1.35055e-05
1.04709e-05
1.64838e-05
-1.56863e-05
9.88557e-06
1.70436e-05
-1.64583e-05
9.22639e-06
1.8685e-05
-1.80258e-05
8.78021e-06
1.68999e-05
-1.64537e-05
8.45551e-06
1.58529e-05
-1.55282e-05
8.19562e-06
1.18518e-05
-1.15919e-05
7.05417e-06
1.09391e-05
-9.79762e-06
7.18379e-06
7.92839e-06
-8.05801e-06
5.98635e-06
9.9995e-06
-8.80206e-06
9.02672e-06
6.54833e-06
-9.5887e-06
1.43617e-05
-1.46979e-05
9.36284e-06
1.32651e-05
-2.72193e-07
1.32946e-05
-1.8872e-07
1.33168e-05
-1.15322e-07
1.3363e-05
-1.29546e-07
1.34346e-05
-1.78423e-07
1.35321e-05
-2.43965e-07
1.36401e-05
-2.80829e-07
1.3738e-05
-2.68551e-07
1.38175e-05
-2.28579e-07
1.38725e-05
-1.63751e-07
1.39158e-05
-1.20458e-07
1.39455e-05
-7.99626e-08
1.39763e-05
-6.14797e-08
1.40092e-05
-5.06654e-08
1.40503e-05
-4.39481e-08
1.41123e-05
-4.65606e-08
1.41761e-05
-2.13754e-08
1.42611e-05
-3.67339e-08
1.43424e-05
-2.00677e-08
1.44232e-05
-2.65907e-08
1.45102e-05
-5.19261e-08
1.45696e-05
-3.33154e-08
1.46526e-05
-9.48101e-08
1.47107e-05
-7.9057e-08
1.47702e-05
-1.19629e-07
1.48398e-05
-1.69595e-07
1.48677e-05
-1.59705e-07
1.49165e-05
-2.5161e-07
1.49312e-05
-2.41068e-07
1.49513e-05
-2.79938e-07
1.49876e-05
-3.11212e-07
1.49988e-05
-2.62718e-07
1.50607e-05
-3.15182e-07
1.51016e-05
-2.52957e-07
1.51525e-05
-2.636e-07
1.52055e-05
-2.6815e-07
1.52215e-05
-2.3191e-07
1.52578e-05
-2.72734e-07
1.52759e-05
-2.27409e-07
1.53089e-05
-2.18593e-07
1.53555e-05
-2.23096e-07
1.53785e-05
-1.83916e-07
1.53967e-05
-2.25967e-07
1.5385e-05
-2.38453e-07
1.5338e-05
-2.65845e-07
1.52674e-05
-3.20245e-07
1.51472e-05
-3.20479e-07
1.49918e-05
-3.34384e-07
1.48044e-05
-3.11723e-07
1.4563e-05
-2.41176e-07
1.43131e-05
-1.3929e-07
1.40251e-05
3.32359e-08
1.37462e-05
2.7718e-07
1.35038e-05
5.21969e-07
1.32828e-05
8.68316e-07
1.3163e-05
1.20613e-06
1.31961e-05
1.53606e-06
1.33738e-05
1.90176e-06
1.37955e-05
2.18786e-06
1.439e-05
2.41544e-06
1.51073e-05
2.58972e-06
1.59205e-05
2.58639e-06
1.66943e-05
2.42462e-06
1.73951e-05
2.14054e-06
1.796e-05
1.65482e-06
1.8298e-05
9.7507e-07
1.84613e-05
2.45376e-07
1.82537e-05
-4.1253e-07
1.78558e-05
-1.13039e-06
1.74366e-05
-1.58223e-06
1.70286e-05
-1.80047e-06
1.6788e-05
-1.96088e-06
1.67919e-05
-1.89433e-06
1.68961e-05
-1.75069e-06
1.72106e-05
-1.78294e-06
1.76165e-05
-1.5738e-06
1.80824e-05
-1.47317e-06
1.87076e-05
-1.72375e-06
1.92313e-05
-1.49812e-06
1.98374e-05
-1.78197e-06
2.04746e-05
-1.98264e-06
2.09948e-05
-2.03325e-06
2.15447e-05
-2.48598e-06
2.20833e-05
-2.57345e-06
2.25346e-05
-2.88371e-06
2.29356e-05
-3.11092e-06
2.34076e-05
-3.30443e-06
2.36919e-05
-3.42816e-06
2.40286e-05
-3.4447e-06
2.44403e-05
-3.67936e-06
2.45626e-05
-3.35738e-06
2.49317e-05
-3.42737e-06
2.52485e-05
-3.38277e-06
2.53423e-05
-2.94798e-06
2.57797e-05
-3.08989e-06
2.59585e-05
-2.63967e-06
2.62311e-05
-2.57581e-06
2.66091e-05
-2.54377e-06
2.67906e-05
-2.08759e-06
2.71756e-05
-2.33181e-06
2.75908e-05
-2.14945e-06
2.77717e-05
-1.9456e-06
2.82832e-05
-2.47139e-06
2.87361e-05
-2.13919e-06
2.90185e-05
-2.4053e-06
2.95565e-05
-2.9421e-06
3.01336e-05
-2.59223e-06
3.0468e-05
-3.33386e-06
3.11236e-05
-3.61847e-06
3.17725e-05
-3.56429e-06
3.21532e-05
-4.47854e-06
3.28932e-05
-4.42142e-06
3.35761e-05
-4.83653e-06
3.40269e-05
-5.49263e-06
3.4757e-05
-5.47148e-06
3.5326e-05
-6.13576e-06
3.57599e-05
-6.32346e-06
3.64725e-05
-6.70873e-06
3.68138e-05
-7.09297e-06
3.71877e-05
-7.28234e-06
3.75301e-05
-7.89161e-06
3.75694e-05
-7.86261e-06
3.76554e-05
-8.29368e-06
3.74804e-05
-8.70789e-06
3.71273e-05
-8.48607e-06
3.6762e-05
-9.15631e-06
3.5895e-05
-8.92083e-06
3.52074e-05
-8.91114e-06
3.40699e-05
-9.10548e-06
3.27477e-05
-8.46968e-06
3.19101e-05
-8.54201e-06
3.07469e-05
-8.48029e-06
2.95003e-05
-7.4563e-06
2.8418e-05
-7.52689e-06
2.70148e-05
-6.80789e-06
2.59727e-05
-6.26984e-06
2.54396e-05
-6.50288e-06
2.43754e-05
-5.94333e-06
2.37044e-05
-5.44421e-06
2.28685e-05
-5.58695e-06
2.14797e-05
-4.9514e-06
2.09187e-05
-5.11869e-06
2.0237e-05
-5.79047e-06
1.93093e-05
-5.88309e-06
1.85372e-05
-5.64886e-06
1.82876e-05
-7.11501e-06
1.74896e-05
-7.35321e-06
1.65431e-05
-7.34583e-06
1.58124e-05
-8.04325e-06
1.60017e-05
-9.48527e-06
1.71303e-05
-1.18515e-05
1.91096e-05
-1.48451e-05
2.0859e-05
-1.61217e-05
2.23164e-05
-1.60715e-05
2.33951e-05
-1.539e-05
2.406e-05
-1.39443e-05
2.43301e-05
-1.19956e-05
2.46145e-05
-9.30878e-06
2.49104e-05
-7.05805e-06
2.51402e-05
-4.59835e-06
2.50961e-05
-1.39455e-06
2.49087e-05
1.36929e-06
2.49003e-05
3.40296e-06
2.46143e-05
6.71499e-06
2.45794e-05
9.59062e-06
2.42486e-05
1.22204e-05
2.30881e-05
1.44358e-05
2.20629e-05
1.55051e-05
2.09191e-05
1.49282e-05
2.03187e-05
1.40701e-05
1.99242e-05
1.58092e-05
1.93047e-05
1.61379e-05
1.86488e-05
1.52719e-05
1.69411e-05
1.49254e-05
1.61462e-05
1.31224e-05
1.62187e-05
1.16437e-05
1.60787e-05
1.07496e-05
1.62342e-05
1.17269e-05
1.57228e-05
1.36145e-05
1.5591e-05
1.33743e-05
1.5449e-05
1.28384e-05
1.50555e-05
1.09743e-05
1.52048e-05
1.04511e-05
1.47559e-05
1.13335e-05
1.45082e-05
1.22657e-05
1.39184e-05
1.37887e-05
1.35762e-05
1.3229e-05
1.2782e-05
1.45589e-05
1.22547e-05
1.48725e-05
1.1512e-05
1.72265e-05
1.14963e-05
1.70594e-05
1.09162e-05
1.9265e-05
1.06095e-05
1.72066e-05
1.00075e-05
1.64549e-05
9.25156e-06
1.26077e-05
8.0053e-06
1.21853e-05
8.27392e-06
7.65978e-06
7.40147e-06
1.0872e-05
9.92128e-06
4.02852e-06
1.21893e-05
1.20937e-05
2.02405e-05
-5.08466e-08
2.00009e-05
5.09168e-08
1.98278e-05
5.77187e-08
1.98117e-05
-1.13412e-07
1.98717e-05
-2.38433e-07
1.99687e-05
-3.40936e-07
2.00544e-05
-3.6661e-07
2.01017e-05
-3.1583e-07
2.01371e-05
-2.63909e-07
2.01496e-05
-1.76328e-07
2.01621e-05
-1.32937e-07
2.01639e-05
-8.17423e-08
2.01707e-05
-6.82694e-08
2.01794e-05
-5.93929e-08
2.01935e-05
-5.80247e-08
2.0229e-05
-8.20886e-08
2.02546e-05
-4.69428e-08
2.03113e-05
-9.34166e-08
2.03543e-05
-6.30812e-08
2.04005e-05
-7.28499e-08
2.04634e-05
-1.1479e-07
2.04819e-05
-5.18274e-08
2.05401e-05
-1.52994e-07
2.05621e-05
-1.01101e-07
2.05851e-05
-1.42541e-07
2.06356e-05
-2.20178e-07
2.06292e-05
-1.53285e-07
2.06738e-05
-2.96167e-07
2.06671e-05
-2.34379e-07
2.06716e-05
-2.84427e-07
2.06993e-05
-3.38894e-07
2.06786e-05
-2.42085e-07
2.07216e-05
-3.58146e-07
2.0725e-05
-2.56321e-07
2.07491e-05
-2.87753e-07
2.07805e-05
-2.99561e-07
2.07681e-05
-2.19539e-07
2.07993e-05
-3.03876e-07
2.07895e-05
-2.17657e-07
2.08004e-05
-2.29434e-07
2.08169e-05
-2.39642e-07
2.08064e-05
-1.73407e-07
2.08051e-05
-2.24678e-07
2.07673e-05
-2.00619e-07
2.07101e-05
-2.08649e-07
2.06243e-05
-2.34443e-07
2.05072e-05
-2.03388e-07
2.03523e-05
-1.79484e-07
2.01729e-05
-1.32344e-07
1.99691e-05
-3.73873e-08
1.97256e-05
1.04236e-07
1.94985e-05
2.60375e-07
1.92536e-05
5.22094e-07
1.90207e-05
7.54846e-07
1.88394e-05
1.04956e-06
1.86811e-05
1.36445e-06
1.85922e-05
1.62494e-06
1.85881e-05
1.90593e-06
1.86849e-05
2.09105e-06
1.88554e-05
2.24495e-06
1.91672e-05
2.27791e-06
1.9558e-05
2.19554e-06
1.99266e-05
2.05603e-06
2.03855e-05
1.6816e-06
2.07981e-05
1.24227e-06
2.10072e-05
7.65983e-07
2.11959e-05
5.66412e-08
2.12583e-05
-4.74964e-07
2.11329e-05
-1.00492e-06
2.11089e-05
-1.55828e-06
2.10732e-05
-1.76475e-06
2.10601e-05
-1.94773e-06
2.13244e-05
-2.15864e-06
2.15285e-05
-1.95482e-06
2.18713e-05
-2.12573e-06
2.23642e-05
-2.06672e-06
2.28025e-05
-1.91145e-06
2.33191e-05
-2.24036e-06
2.3891e-05
-2.07004e-06
2.44232e-05
-2.3141e-06
2.49109e-05
-2.47041e-06
2.5481e-05
-2.60336e-06
2.59262e-05
-2.93112e-06
2.6283e-05
-2.93032e-06
2.68171e-05
-3.41781e-06
2.70494e-05
-3.34322e-06
2.73471e-05
-3.60204e-06
2.77295e-05
-3.8106e-06
2.78121e-05
-3.52727e-06
2.81263e-05
-3.99362e-06
2.82876e-05
-3.51866e-06
2.84269e-05
-3.56668e-06
2.8697e-05
-3.65287e-06
2.87576e-05
-3.00851e-06
2.90011e-05
-3.33346e-06
2.92616e-05
-2.90009e-06
2.93168e-05
-2.63102e-06
2.96469e-05
-2.87387e-06
2.9954e-05
-2.39476e-06
3.00635e-05
-2.44124e-06
3.05059e-05
-2.59194e-06
3.08634e-05
-2.30307e-06
3.10245e-05
-2.6325e-06
3.16242e-05
-2.73891e-06
3.19289e-05
-2.70991e-06
3.22282e-05
-3.24144e-06
3.29385e-05
-3.30257e-06
3.31702e-05
-3.56556e-06
3.36788e-05
-4.12709e-06
3.43049e-05
-4.19032e-06
3.45735e-05
-4.74714e-06
3.51495e-05
-4.99742e-06
3.57214e-05
-5.40848e-06
3.59718e-05
-5.743e-06
3.65464e-05
-6.04613e-06
3.68946e-05
-6.48392e-06
3.71727e-05
-6.60153e-06
3.75567e-05
-7.0928e-06
3.76657e-05
-7.20189e-06
3.77923e-05
-7.40899e-06
3.77916e-05
-7.89086e-06
3.76365e-05
-7.70759e-06
3.74778e-05
-8.13499e-06
3.70209e-05
-8.2509e-06
3.65399e-05
-8.00507e-06
3.59085e-05
-8.52497e-06
3.50684e-05
-8.08075e-06
3.43007e-05
-8.14345e-06
3.33258e-05
-8.13049e-06
3.25572e-05
-7.70107e-06
3.17092e-05
-7.69404e-06
3.03487e-05
-7.11979e-06
2.93532e-05
-6.46086e-06
2.85353e-05
-6.70897e-06
2.75569e-05
-5.82943e-06
2.69661e-05
-5.67906e-06
2.58965e-05
-5.43332e-06
2.4503e-05
-4.54985e-06
2.37227e-05
-4.66386e-06
2.26458e-05
-4.51e-06
2.18377e-05
-4.14339e-06
2.12486e-05
-4.52959e-06
2.00487e-05
-4.59052e-06
1.87277e-05
-4.56206e-06
1.77794e-05
-4.70056e-06
1.70166e-05
-6.35226e-06
1.59362e-05
-6.27283e-06
1.49709e-05
-6.38052e-06
1.44467e-05
-7.519e-06
1.50795e-05
-1.01181e-05
1.67275e-05
-1.34996e-05
1.87805e-05
-1.68981e-05
2.02071e-05
-1.75482e-05
2.11899e-05
-1.70543e-05
2.15729e-05
-1.5773e-05
2.20155e-05
-1.43869e-05
2.19467e-05
-1.19268e-05
2.22958e-05
-9.65786e-06
2.25455e-05
-7.30776e-06
2.26046e-05
-4.65742e-06
2.26748e-05
-1.46476e-06
2.26508e-05
1.39336e-06
2.27108e-05
3.34297e-06
2.27047e-05
6.72107e-06
2.24773e-05
9.81794e-06
2.26978e-05
1.2e-05
2.20978e-05
1.50358e-05
2.11826e-05
1.64202e-05
2.02077e-05
1.59032e-05
1.94004e-05
1.48774e-05
1.93888e-05
1.58208e-05
1.87398e-05
1.6787e-05
1.82054e-05
1.58063e-05
1.72178e-05
1.5913e-05
1.56519e-05
1.46882e-05
1.50455e-05
1.22501e-05
1.42675e-05
1.15276e-05
1.45228e-05
1.14716e-05
1.47797e-05
1.33576e-05
1.45705e-05
1.35836e-05
1.51098e-05
1.2299e-05
1.47802e-05
1.1304e-05
1.49331e-05
1.02982e-05
1.48448e-05
1.14218e-05
1.48446e-05
1.22659e-05
1.45451e-05
1.40882e-05
1.42285e-05
1.35456e-05
1.36962e-05
1.50911e-05
1.36281e-05
1.49407e-05
1.31165e-05
1.7738e-05
1.30468e-05
1.7129e-05
1.28891e-05
1.94228e-05
1.28052e-05
1.72905e-05
1.24201e-05
1.684e-05
1.16774e-05
1.33504e-05
1.0426e-05
1.34367e-05
9.6661e-06
8.41971e-06
9.90209e-06
1.0636e-05
9.75809e-06
4.17252e-06
9.45941e-06
1.24879e-05
2.51396e-05
-9.03478e-08
2.52215e-05
-3.09502e-08
2.53179e-05
-3.87021e-08
2.54307e-05
-2.26159e-07
2.54973e-05
-3.05106e-07
2.55436e-05
-3.87169e-07
2.55536e-05
-3.7664e-07
2.55449e-05
-3.07185e-07
2.55311e-05
-2.5006e-07
2.5519e-05
-1.64188e-07
2.55115e-05
-1.25502e-07
2.54987e-05
-6.89399e-08
2.55022e-05
-7.17311e-08
2.54932e-05
-5.03683e-08
2.55031e-05
-6.79259e-08
2.55219e-05
-1.00968e-07
2.55325e-05
-5.75517e-08
2.55794e-05
-1.40242e-07
2.55978e-05
-8.14868e-08
2.56332e-05
-1.08263e-07
2.5672e-05
-1.5358e-07
2.56756e-05
-5.5413e-08
2.57213e-05
-1.98735e-07
2.57237e-05
-1.0352e-07
2.57366e-05
-1.55381e-07
2.57659e-05
-2.49538e-07
2.57451e-05
-1.32478e-07
2.57744e-05
-3.25497e-07
2.5758e-05
-2.17895e-07
2.57489e-05
-2.75333e-07
2.5768e-05
-3.57981e-07
2.57282e-05
-2.023e-07
2.57584e-05
-3.88348e-07
2.57401e-05
-2.38054e-07
2.57386e-05
-2.8627e-07
2.5765e-05
-3.25984e-07
2.57224e-05
-1.76907e-07
2.57522e-05
-3.33688e-07
2.57165e-05
-1.81978e-07
2.56955e-05
-2.08423e-07
2.57079e-05
-2.51973e-07
2.56469e-05
-1.12392e-07
2.565e-05
-2.27791e-07
2.5592e-05
-1.42628e-07
2.55073e-05
-1.23974e-07
2.54514e-05
-1.78526e-07
2.53054e-05
-5.74311e-08
2.51834e-05
-5.74633e-08
2.50418e-05
9.28045e-09
2.48361e-05
1.68256e-07
2.46817e-05
2.58659e-07
2.44965e-05
4.45622e-07
2.43002e-05
7.18407e-07
2.41695e-05
8.85524e-07
2.40133e-05
1.20573e-06
2.3912e-05
1.46576e-06
2.38736e-05
1.66338e-06
2.38328e-05
1.94673e-06
2.38986e-05
2.02524e-06
2.4016e-05
2.12755e-06
2.41394e-05
2.15443e-06
2.43829e-05
1.9521e-06
2.46438e-05
1.79512e-06
2.48514e-05
1.474e-06
2.51216e-05
9.72077e-07
2.53387e-05
5.48858e-07
2.54074e-05
-1.2009e-08
2.55772e-05
-6.44808e-07
2.56385e-05
-1.06621e-06
2.56124e-05
-1.53212e-06
2.57531e-05
-1.90545e-06
2.58647e-05
-2.05941e-06
2.60113e-05
-2.30522e-06
2.63023e-05
-2.24579e-06
2.66219e-05
-2.44537e-06
2.69248e-05
-2.36962e-06
2.73669e-05
-2.3535e-06
2.77772e-05
-2.65064e-06
2.81473e-05
-2.44023e-06
2.86221e-05
-2.78886e-06
2.89949e-05
-2.84323e-06
2.93338e-05
-2.94221e-06
2.97149e-05
-3.31226e-06
2.99552e-05
-3.17057e-06
3.02049e-05
-3.6675e-06
3.03958e-05
-3.53415e-06
3.05234e-05
-3.72964e-06
3.06711e-05
-3.95827e-06
3.07053e-05
-3.56149e-06
3.07834e-05
-4.07171e-06
3.08813e-05
-3.61662e-06
3.08686e-05
-3.55393e-06
3.09321e-05
-3.71643e-06
3.10966e-05
-3.17295e-06
3.10238e-05
-3.26073e-06
3.12384e-05
-3.11463e-06
3.13979e-05
-2.7905e-06
3.13916e-05
-2.8676e-06
3.17931e-05
-2.79623e-06
3.18846e-05
-2.53277e-06
3.20884e-05
-2.79571e-06
3.25447e-05
-2.7594e-06