/*--------------------------------*- C++ -*----------------------------------*\
| =========                 |                                                 |
| \\      /  F ield         | OpenFOAM: The Open Source CFD Toolbox           |
|  \\    /   O peration     | Version:  2.4.0                                 |
|   \\  /    A nd           | Web:      www.OpenFOAM.org                      |
|    \\/     M anipulation  |                                                 |
\*---------------------------------------------------------------------------*/
FoamFile
{
    version     2.0;
    format      ascii;
    class       volVectorField;
    location    "1.24";
    object      UMean;
}
// * * * * * * * * * * * * * * * * * * * * * * * * * * * * * * * * * * * * * //

dimensions      [0 1 -1 0 0 0 0];

internalField   nonuniform List<vector> 
8800
(
(8.09335 0.387156 0)
(5.45789 0.242569 0)
(3.92768 0.0429852 0)
(3.16337 -0.0151816 0)
(2.82264 -0.0184302 0)
(2.60297 -0.0108175 0)
(2.51321 -0.00592846 0)
(2.38509 -0.00189926 0)
(2.35489 -0.00187535 0)
(2.25547 -6.37717e-05 0)
(2.25848 -0.00115559 0)
(2.17184 0.000593036 0)
(2.19073 -0.000697955 0)
(2.10504 0.00117211 0)
(2.12873 -0.000361898 0)
(2.04068 0.0017254 0)
(2.06347 -0.000369495 0)
(1.96918 0.00129587 0)
(2.01835 0.00711953 0)
(1.73628 -0.0600465 0)
(10.0882 0.8362 0)
(9.64995 0.866293 0)
(8.89739 0.505477 0)
(8.06687 0.261552 0)
(7.53247 0.13688 0)
(6.98422 0.082142 0)
(6.75251 0.0524515 0)
(6.37284 0.0408623 0)
(6.29869 0.0278758 0)
(5.99606 0.0250208 0)
(6.01658 0.0164621 0)
(5.75019 0.0188627 0)
(5.82414 0.0125234 0)
(5.56796 0.0179894 0)
(5.66767 0.0121956 0)
(5.40939 0.0185116 0)
(5.52123 0.015979 0)
(5.24443 0.0124519 0)
(5.39944 0.0310533 0)
(5.01988 -0.0428648 0)
(10.0849 0.629967 0)
(10.626 0.861501 0)
(10.9148 0.599164 0)
(10.6408 0.37294 0)
(10.5186 0.253737 0)
(10.0233 0.196279 0)
(9.91707 0.150243 0)
(9.42432 0.122798 0)
(9.41592 0.0903368 0)
(8.95892 0.0769731 0)
(9.04978 0.054508 0)
(8.62129 0.0538027 0)
(8.78543 0.0381086 0)
(8.36489 0.0450146 0)
(8.57592 0.0328797 0)
(8.14721 0.0423036 0)
(8.38864 0.036923 0)
(7.93366 0.0380425 0)
(8.20995 0.0460105 0)
(7.71762 -0.0371713 0)
(10.0668 0.456746 0)
(10.4916 0.703249 0)
(11.256 0.543507 0)
(11.2787 0.352071 0)
(11.6565 0.25931 0)
(11.3509 0.227701 0)
(11.6048 0.196267 0)
(11.1808 0.176412 0)
(11.4271 0.142153 0)
(10.9516 0.127077 0)
(11.2298 0.0980997 0)
(10.7284 0.0951822 0)
(11.0464 0.0728514 0)
(10.5221 0.0797835 0)
(10.876 0.0606904 0)
(10.326 0.074892 0)
(10.7086 0.0575265 0)
(10.1265 0.0790616 0)
(10.5209 0.0514879 0)
(9.91096 0.0651828 0)
(10.1829 0.346661 0)
(10.2665 0.565515 0)
(11.189 0.458058 0)
(11.1646 0.295159 0)
(11.8009 0.205468 0)
(11.5303 0.194479 0)
(12.0306 0.173206 0)
(11.6741 0.17216 0)
(12.1401 0.138164 0)
(11.7408 0.136644 0)
(12.1965 0.101192 0)
(11.7658 0.111944 0)
(12.2169 0.0784607 0)
(11.7576 0.102606 0)
(12.2038 0.0663183 0)
(11.7185 0.104202 0)
(12.1562 0.0601825 0)
(11.6462 0.116922 0)
(12.0582 0.0492505 0)
(11.5097 0.120904 0)
(10.2028 0.249938 0)
(10.1911 0.455566 0)
(11.0251 0.371548 0)
(11.0699 0.250028 0)
(11.6452 0.155414 0)
(11.5013 0.154745 0)
(11.9145 0.135201 0)
(11.7218 0.146243 0)
(12.0893 0.11104 0)
(11.8958 0.118545 0)
(12.2401 0.0812353 0)
(12.0477 0.0982577 0)
(12.3703 0.0642725 0)
(12.1759 0.0921861 0)
(12.4742 0.0583504 0)
(12.2767 0.0956716 0)
(12.5472 0.059108 0)
(12.3432 0.105959 0)
(12.5692 0.054278 0)
(12.3087 0.0660905 0)
(10.0764 0.168741 0)
(10.2542 0.358709 0)
(10.7942 0.280379 0)
(11.0809 0.211111 0)
(11.4205 0.109088 0)
(11.5272 0.122844 0)
(11.6996 0.0949367 0)
(11.7449 0.123786 0)
(11.8753 0.0770986 0)
(11.9232 0.102169 0)
(12.0385 0.0520993 0)
(12.09 0.0861723 0)
(12.1905 0.0374433 0)
(12.2418 0.0829127 0)
(12.3262 0.0324946 0)
(12.3751 0.0883902 0)
(12.4422 0.032204 0)
(12.4826 0.0979844 0)
(12.5127 0.0229965 0)
(12.4728 0.0636666 0)
(9.97322 0.105647 0)
(10.3002 0.261289 0)
(10.6346 0.193259 0)
(11.0751 0.162209 0)
(11.2689 0.0703809 0)
(11.5293 0.0905128 0)
(11.5602 0.0607373 0)
(11.7387 0.0960862 0)
(11.7334 0.0490306 0)
(11.9096 0.0801076 0)
(11.8977 0.030081 0)
(12.0732 0.068327 0)
(12.0525 0.0189547 0)
(12.2232 0.066238 0)
(12.1924 0.015024 0)
(12.3562 0.0703821 0)
(12.3144 0.0133118 0)
(12.4647 0.0753688 0)
(12.3906 0.00109316 0)
(12.4404 0.0449322 0)
(9.90673 0.0559034 0)
(10.3305 0.161371 0)
(10.5293 0.111503 0)
(11.0721 0.103459 0)
(11.1677 0.036946 0)
(11.5328 0.0584109 0)
(11.4671 0.0313458 0)
(11.7379 0.0637786 0)
(11.6373 0.0249348 0)
(11.9051 0.0536244 0)
(11.8016 0.0127526 0)
(12.068 0.0461062 0)
(11.9578 0.00574377 0)
(12.2187 0.0442769 0)
(12.0989 0.00267212 0)
(12.353 0.0452025 0)
(12.2222 -0.000347648 0)
(12.4625 0.0434773 0)
(12.2949 -0.0148716 0)
(12.4263 0.00372232 0)
(9.88955 0.0109483 0)
(10.3317 0.0643286 0)
(10.4938 0.0285552 0)
(11.0584 0.0444515 0)
(11.1365 0.00310533 0)
(11.5239 0.0295653 0)
(11.4431 0.000880916 0)
(11.7284 0.0324678 0)
(11.6145 -0.00158639 0)
(11.8952 0.0290681 0)
(11.7811 -0.00659592 0)
(12.0602 0.0264092 0)
(11.9401 -0.0101483 0)
(12.2136 0.0251676 0)
(12.0839 -0.0134124 0)
(12.3511 0.023197 0)
(12.2097 -0.0188993 0)
(12.4641 0.0166276 0)
(12.2824 -0.0341196 0)
(12.4281 -0.013338 0)
(9.91341 -0.0297675 0)
(10.3097 -0.0354778 0)
(10.5191 -0.0530277 0)
(11.0403 -0.018455 0)
(11.1639 -0.0286312 0)
(11.5088 -0.00278114 0)
(11.4728 -0.0273324 0)
(11.7163 -0.00330978 0)
(11.6464 -0.0261703 0)
(11.8865 0.000323357 0)
(11.8154 -0.0235624 0)
(12.0548 0.00261721 0)
(11.9767 -0.0239928 0)
(12.2118 0.0016111 0)
(12.1232 -0.0277101 0)
(12.3533 -0.00332773 0)
(12.2517 -0.0357296 0)
(12.4703 -0.0136004 0)
(12.3267 -0.0499194 0)
(12.436 -0.0329428 0)
(9.95289 -0.0735554 0)
(10.2858 -0.135897 0)
(10.5797 -0.134674 0)
(11.0339 -0.0807303 0)
(11.2247 -0.060471 0)
(11.4997 -0.0350206 0)
(11.5309 -0.0556529 0)
(11.7101 -0.0384189 0)
(11.7075 -0.0505268 0)
(11.8834 -0.0280805 0)
(11.8785 -0.0407364 0)
(12.0532 -0.0209282 0)
(12.0416 -0.0378514 0)
(12.2112 -0.0214983 0)
(12.19 -0.0420347 0)
(12.3534 -0.0292695 0)
(12.3206 -0.0528072 0)
(12.4702 -0.0436019 0)
(12.3982 -0.0667262 0)
(12.4353 -0.0519939 0)
(9.9826 -0.122279 0)
(10.2844 -0.23942 0)
(10.6525 -0.21521 0)
(11.0597 -0.142438 0)
(11.2956 -0.092106 0)
(11.5154 -0.069419 0)
(11.5944 -0.0835832 0)
(11.7272 -0.0734734 0)
(11.7743 -0.0736162 0)
(11.9019 -0.0569373 0)
(11.9459 -0.0574629 0)
(12.0704 -0.04509 0)
(12.1087 -0.0512131 0)
(12.2264 -0.0445642 0)
(12.2565 -0.0558412 0)
(12.366 -0.054408 0)
(12.3865 -0.0701962 0)
(12.4802 -0.0732497 0)
(12.4659 -0.0878131 0)
(12.4472 -0.0709885 0)
(10.0167 -0.181674 0)
(10.2951 -0.343691 0)
(10.7521 -0.297346 0)
(11.1099 -0.197502 0)
(11.3898 -0.125998 0)
(11.5521 -0.107682 0)
(11.6764 -0.112536 0)
(11.7671 -0.10857 0)
(11.8585 -0.0964194 0)
(11.9447 -0.0865555 0)
(12.0281 -0.0742527 0)
(12.1124 -0.070782 0)
(12.1869 -0.0644182 0)
(12.2659 -0.0691557 0)
(12.3295 -0.068323 0)
(12.4013 -0.0802551 0)
(12.4519 -0.085415 0)
(12.5095 -0.10433 0)
(12.5244 -0.109587 0)
(12.4776 -0.100967 0)
(10.0562 -0.257058 0)
(10.3147 -0.448048 0)
(10.893 -0.381105 0)
(11.1773 -0.243323 0)
(11.5229 -0.165006 0)
(11.6014 -0.147067 0)
(11.7971 -0.144656 0)
(11.8167 -0.139939 0)
(11.9751 -0.121406 0)
(11.9877 -0.112957 0)
(12.1288 -0.0933192 0)
(12.138 -0.0943704 0)
(12.2611 -0.0794828 0)
(12.2647 -0.0917542 0)
(12.366 -0.0802485 0)
(12.3621 -0.103107 0)
(12.4359 -0.0961203 0)
(12.4183 -0.131818 0)
(12.4404 -0.125647 0)
(12.333 -0.139937 0)
(10.051 -0.350998 0)
(10.3916 -0.560275 0)
(11.0468 -0.463669 0)
(11.2947 -0.290012 0)
(11.655 -0.21225 0)
(11.6611 -0.188234 0)
(11.8782 -0.180408 0)
(11.807 -0.166554 0)
(11.9795 -0.146887 0)
(11.8762 -0.131233 0)
(12.0263 -0.111971 0)
(11.9034 -0.107514 0)
(12.0342 -0.0927528 0)
(11.8956 -0.100792 0)
(12.0027 -0.0875722 0)
(11.851 -0.108694 0)
(11.924 -0.0973013 0)
(11.7575 -0.137865 0)
(11.7636 -0.126009 0)
(11.5333 -0.162472 0)
(10.0039 -0.459301 0)
(10.5588 -0.700428 0)
(11.1684 -0.545774 0)
(11.3653 -0.350079 0)
(11.5577 -0.263105 0)
(11.4461 -0.224993 0)
(11.4939 -0.200367 0)
(11.2829 -0.173943 0)
(11.3034 -0.147194 0)
(11.0586 -0.124985 0)
(11.0919 -0.104113 0)
(10.8373 -0.0947221 0)
(10.8906 -0.0803457 0)
(10.6285 -0.0835624 0)
(10.6935 -0.0709675 0)
(10.4207 -0.0882698 0)
(10.4794 -0.074996 0)
(10.1881 -0.116496 0)
(10.1947 -0.0964235 0)
(9.85652 -0.160194 0)
(10.0592 -0.632571 0)
(10.6543 -0.858888 0)
(10.8666 -0.600307 0)
(10.6894 -0.371687 0)
(10.459 -0.256326 0)
(10.0819 -0.194585 0)
(9.84517 -0.153141 0)
(9.48915 -0.120749 0)
(9.33325 -0.0940149 0)
(9.02621 -0.0749364 0)
(8.95686 -0.0591297 0)
(8.68621 -0.052524 0)
(8.68 -0.044192 0)
(8.42037 -0.0462547 0)
(8.45014 -0.0412112 0)
(8.18109 -0.0507885 0)
(8.22033 -0.0487369 0)
(7.92183 -0.070291 0)
(7.92406 -0.0714165 0)
(7.5754 -0.0895323 0)
(10.0804 -0.83758 0)
(9.6566 -0.864681 0)
(8.87579 -0.505821 0)
(8.09053 -0.260914 0)
(7.50206 -0.138374 0)
(7.01482 -0.0813942 0)
(6.71177 -0.0538358 0)
(6.40771 -0.0398314 0)
(6.25083 -0.0296411 0)
(6.03139 -0.02404 0)
(5.96261 -0.0186699 0)
(5.78102 -0.0182941 0)
(5.76277 -0.0154433 0)
(5.587 -0.0186686 0)
(5.59269 -0.0164738 0)
(5.40341 -0.0231332 0)
(5.41254 -0.0222536 0)
(5.18884 -0.0329996 0)
(5.17729 -0.038587 0)
(4.8806 -0.0200351 0)
(8.09168 -0.387528 0)
(5.45646 -0.242061 0)
(3.92334 -0.0432355 0)
(3.17089 0.0152611 0)
(2.81427 0.0180298 0)
(2.61158 0.0111213 0)
(2.49999 0.00560456 0)
(2.39502 0.00227518 0)
(2.33918 0.00146567 0)
(2.26516 0.000419866 0)
(2.23996 0.00069336 0)
(2.17893 -0.000261209 0)
(2.16838 0.000174089 0)
(2.10527 -0.00110932 0)
(2.09846 -0.00034402 0)
(2.02525 -0.0022929 0)
(2.01276 -0.00114964 0)
(1.92071 -0.00385443 0)
(1.8826 -0.00431547 0)
(1.73 0.0114387 0)
(2.25859 -0.103654 0)
(2.31558 -0.0151622 0)
(2.56454 -0.00614373 0)
(2.65293 -0.0195595 0)
(2.89331 -0.0417333 0)
(2.94183 -0.0474479 0)
(3.14646 -0.0540796 0)
(3.15058 -0.0471411 0)
(3.32275 -0.0514942 0)
(3.30108 -0.0495528 0)
(3.46574 -0.0570738 0)
(3.43214 -0.0566149 0)
(3.60077 -0.0666448 0)
(3.56307 -0.0671626 0)
(3.73579 -0.0773346 0)
(3.6948 -0.0777483 0)
(3.87438 -0.088034 0)
(3.83174 -0.0885363 0)
(4.02443 -0.0986274 0)
(3.98164 -0.0968726 0)
(4.18194 -0.109301 0)
(4.13315 -0.111354 0)
(4.33625 -0.126903 0)
(4.27824 -0.130765 0)
(4.48243 -0.148848 0)
(4.41384 -0.154616 0)
(4.61854 -0.173525 0)
(4.53918 -0.177039 0)
(4.74611 -0.193105 0)
(4.66195 -0.193535 0)
(4.87553 -0.209857 0)
(4.79355 -0.211522 0)
(5.01649 -0.230809 0)
(4.93494 -0.234044 0)
(5.16228 -0.253956 0)
(5.07521 -0.25599 0)
(5.30606 -0.274665 0)
(5.21247 -0.274771 0)
(5.44998 -0.293472 0)
(5.35043 -0.294449 0)
(5.59472 -0.315535 0)
(5.48877 -0.319591 0)
(5.73709 -0.345791 0)
(5.62197 -0.353142 0)
(5.86952 -0.38217 0)
(5.74213 -0.388866 0)
(5.98881 -0.417392 0)
(5.85187 -0.419257 0)
(6.1006 -0.445703 0)
(5.95956 -0.441424 0)
(6.21322 -0.464729 0)
(6.0707 -0.454161 0)
(6.3359 -0.473953 0)
(6.1899 -0.459575 0)
(6.47422 -0.479367 0)
(6.31989 -0.464634 0)
(6.6268 -0.486661 0)
(6.45784 -0.473029 0)
(6.78399 -0.496991 0)
(6.59515 -0.48445 0)
(6.93728 -0.512223 0)
(6.73601 -0.502411 0)
(7.09088 -0.537326 0)
(6.89093 -0.53185 0)
(7.24704 -0.57542 0)
(7.05499 -0.574759 0)
(7.39873 -0.623539 0)
(7.2051 -0.62512 0)
(7.53388 -0.672187 0)
(7.33104 -0.67133 0)
(7.65574 -0.718943 0)
(7.44214 -0.712099 0)
(7.76834 -0.756909 0)
(7.54273 -0.743486 0)
(7.88423 -0.786721 0)
(7.64907 -0.767868 0)
(8.01138 -0.809486 0)
(7.77406 -0.786518 0)
(8.15637 -0.831219 0)
(7.9181 -0.803395 0)
(8.32015 -0.849827 0)
(8.07554 -0.8173 0)
(8.49649 -0.861591 0)
(8.24025 -0.829539 0)
(8.67548 -0.87657 0)
(8.41419 -0.846695 0)
(8.84225 -0.903964 0)
(8.59267 -0.877483 0)
(8.99288 -0.942315 0)
(8.75792 -0.918251 0)
(9.12583 -0.984247 0)
(8.89971 -0.958075 0)
(9.23447 -1.02144 0)
(9.00951 -0.993005 0)
(9.31972 -1.05442 0)
(9.09709 -1.02037 0)
(9.38816 -1.07806 0)
(9.17139 -1.03999 0)
(9.45181 -1.09574 0)
(9.25338 -1.05752 0)
(9.52567 -1.11588 0)
(9.34371 -1.07688 0)
(9.61107 -1.14124 0)
(9.43618 -1.09725 0)
(9.69271 -1.15936 0)
(9.51375 -1.1027 0)
(9.75276 -1.16705 0)
(9.55834 -1.10376 0)
(9.78163 -1.1689 0)
(9.5705 -1.09559 0)
(9.77917 -1.15925 0)
(9.55215 -1.07808 0)
(9.73791 -1.1366 0)
(9.50498 -1.04751 0)
(9.67186 -1.10408 0)
(9.45677 -1.00846 0)
(9.61305 -1.06003 0)
(9.42189 -0.960135 0)
(9.56309 -1.00809 0)
(9.38733 -0.903693 0)
(9.51738 -0.946235 0)
(9.35619 -0.841283 0)
(9.48244 -0.884817 0)
(9.32459 -0.779515 0)
(9.44883 -0.825823 0)
(9.27953 -0.720481 0)
(9.4174 -0.763942 0)
(9.22625 -0.65275 0)
(9.38405 -0.690454 0)
(9.17665 -0.577443 0)
(9.34414 -0.611525 0)
(9.13523 -0.500745 0)
(9.29585 -0.535974 0)
(9.0986 -0.427469 0)
(9.24492 -0.466601 0)
(9.06217 -0.35817 0)
(9.19042 -0.39425 0)
(9.02158 -0.283578 0)
(9.14152 -0.317644 0)
(8.98969 -0.212497 0)
(9.09739 -0.25006 0)
(8.96333 -0.1495 0)
(9.0481 -0.18043 0)
(8.94035 -0.0884864 0)
(9.00332 -0.119345 0)
(8.92054 -0.034197 0)
(8.95176 -0.0507878 0)
(8.89573 0.032825 0)
(8.89598 0.0177439 0)
(8.87403 0.100947 0)
(8.83848 0.0857517 0)
(8.8464 0.174501 0)
(8.78871 0.169153 0)
(8.81488 0.258868 0)
(8.74287 0.251395 0)
(8.78225 0.351682 0)
(8.70782 0.349649 0)
(8.73052 0.443652 0)
(8.67753 0.442964 0)
(8.68438 0.537175 0)
(8.64971 0.514073 0)
(8.63311 0.614169 0)
(8.62777 0.579382 0)
(8.56762 0.68271 0)
(8.59243 0.641156 0)
(8.48801 0.755091 0)
(8.55862 0.702005 0)
(8.40302 0.822521 0)
(8.51386 0.767143 0)
(8.30896 0.902851 0)
(8.44111 0.822943 0)
(8.18479 0.975365 0)
(8.36381 0.884924 0)
(8.01441 1.06202 0)
(8.28296 0.951279 0)
(7.83911 1.18108 0)
(8.20761 1.03171 0)
(7.66445 1.30607 0)
(8.14894 1.1172 0)
(7.52342 1.45061 0)
(8.08052 1.22662 0)
(7.40432 1.60789 0)
(8.0055 1.36085 0)
(7.29263 1.77726 0)
(7.89167 1.51069 0)
(7.17957 1.95446 0)
(7.72547 1.69246 0)
(7.0436 2.14872 0)
(7.54316 1.92738 0)
(6.8634 2.37201 0)
(7.35157 2.21517 0)
(6.62279 2.65321 0)
(7.08967 2.5693 0)
(6.3281 3.0545 0)
(6.70486 3.03415 0)
(5.99548 3.73534 0)
(6.22592 3.76578 0)
(5.35043 4.87087 0)
(6.34592 5.42319 0)
(4.06842 8.37323 0)
(5.31218 -0.0682026 0)
(5.23353 -0.0327258 0)
(5.35732 -0.0418923 0)
(5.32218 -0.0674432 0)
(5.51328 -0.100026 0)
(5.49222 -0.109824 0)
(5.67689 -0.115942 0)
(5.62036 -0.105979 0)
(5.78072 -0.105353 0)
(5.69621 -0.098603 0)
(5.85441 -0.105421 0)
(5.76212 -0.104764 0)
(5.9324 -0.116159 0)
(5.83977 -0.116998 0)
(6.02309 -0.128667 0)
(5.92844 -0.128936 0)
(6.12254 -0.140638 0)
(6.0237 -0.140148 0)
(6.22697 -0.15241 0)
(6.12397 -0.15141 0)
(6.33505 -0.164757 0)
(6.22637 -0.165558 0)
(6.44244 -0.181196 0)
(6.3254 -0.183331 0)
(6.54616 -0.200977 0)
(6.4203 -0.204054 0)
(6.64675 -0.222404 0)
(6.51257 -0.224354 0)
(6.74524 -0.242321 0)
(6.60386 -0.24306 0)
(6.84478 -0.261586 0)
(6.69798 -0.262593 0)
(6.94822 -0.283284 0)
(6.79537 -0.284873 0)
(7.05253 -0.306323 0)
(6.89131 -0.306165 0)
(7.15323 -0.326757 0)
(6.98382 -0.324598 0)
(7.25008 -0.345665 0)
(7.07438 -0.343702 0)
(7.34507 -0.367508 0)
(7.16509 -0.367456 0)
(7.43972 -0.395242 0)
(7.25543 -0.397113 0)
(7.53309 -0.427413 0)
(7.34249 -0.428717 0)
(7.62258 -0.459316 0)
(7.42407 -0.457759 0)
(7.70767 -0.486822 0)
(7.49981 -0.481249 0)
(7.791 -0.50732 0)
(7.57105 -0.497063 0)
(7.87581 -0.52049 0)
(7.64199 -0.506362 0)
(7.96488 -0.529436 0)
(7.71788 -0.513721 0)
(8.06026 -0.538588 0)
(7.80238 -0.523622 0)
(8.1622 -0.55186 0)
(7.89684 -0.538339 0)
(8.26896 -0.570855 0)
(7.99999 -0.559477 0)
(8.37841 -0.597952 0)
(8.10996 -0.589551 0)
(8.48782 -0.63398 0)
(8.2235 -0.628102 0)
(8.59484 -0.67537 0)
(8.33268 -0.671003 0)
(8.69918 -0.720767 0)
(8.43474 -0.716323 0)
(8.80055 -0.764182 0)
(8.52703 -0.753803 0)
(8.89812 -0.80003 0)
(8.61557 -0.784727 0)
(8.9943 -0.832428 0)
(8.70806 -0.811103 0)
(9.09269 -0.860635 0)
(8.80844 -0.834636 0)
(9.19646 -0.88582 0)
(8.91472 -0.857194 0)
(9.30976 -0.908111 0)
(9.02681 -0.874396 0)
(9.42785 -0.925814 0)
(9.1475 -0.888137 0)
(9.5428 -0.941298 0)
(9.27402 -0.904965 0)
(9.65276 -0.965165 0)
(9.3998 -0.931602 0)
(9.75149 -0.997012 0)
(9.51183 -0.965846 0)
(9.83771 -1.03046 0)
(9.60357 -0.995371 0)
(9.90318 -1.05823 0)
(9.66898 -1.02084 0)
(9.94675 -1.08181 0)
(9.71339 -1.04033 0)
(9.97505 -1.09997 0)
(9.74805 -1.05782 0)
(10.003 -1.11992 0)
(9.78832 -1.07936 0)
(10.0372 -1.1456 0)
(9.83482 -1.10273 0)
(10.0784 -1.17291 0)
(9.87256 -1.11957 0)
(10.1102 -1.17998 0)
(9.89145 -1.11643 0)
(10.1208 -1.17443 0)
(9.88651 -1.1056 0)
(10.1034 -1.16729 0)
(9.85528 -1.08897 0)
(10.0573 -1.14534 0)
(9.79771 -1.05405 0)
(9.98165 -1.10895 0)
(9.72186 -1.01695 0)
(9.90088 -1.07607 0)
(9.65453 -0.982586 0)
(9.82895 -1.04017 0)
(9.59533 -0.9382 0)
(9.7662 -0.989166 0)
(9.5354 -0.883642 0)
(9.71204 -0.930142 0)
(9.47722 -0.82349 0)
(9.66504 -0.869639 0)
(9.42252 -0.756843 0)
(9.61983 -0.807724 0)
(9.36005 -0.691026 0)
(9.57177 -0.746636 0)
(9.29306 -0.62479 0)
(9.5211 -0.674648 0)
(9.22769 -0.550119 0)
(9.46307 -0.59929 0)
(9.16468 -0.473763 0)
(9.3997 -0.522446 0)
(9.10683 -0.399959 0)
(9.33564 -0.449507 0)
(9.04103 -0.327234 0)
(9.26909 -0.377083 0)
(8.98045 -0.25973 0)
(9.21206 -0.307465 0)
(8.93643 -0.194299 0)
(9.16586 -0.241617 0)
(8.89755 -0.129901 0)
(9.12268 -0.175364 0)
(8.86197 -0.0659545 0)
(9.08422 -0.1147 0)
(8.82609 -0.00532459 0)
(9.0421 -0.045244 0)
(8.79474 0.0590708 0)
(9.00214 0.0217873 0)
(8.78259 0.124891 0)
(8.95798 0.0925958 0)
(8.76818 0.196498 0)
(8.90921 0.169279 0)
(8.74755 0.281051 0)
(8.8681 0.252962 0)
(8.71542 0.374187 0)
(8.83689 0.347052 0)
(8.67499 0.472035 0)
(8.82059 0.434953 0)
(8.64035 0.568778 0)
(8.8118 0.50329 0)
(8.59583 0.650863 0)
(8.79792 0.571567 0)
(8.55239 0.726268 0)
(8.77564 0.630944 0)
(8.51063 0.799701 0)
(8.749 0.682538 0)
(8.46361 0.88132 0)
(8.69525 0.74299 0)
(8.40022 0.979554 0)
(8.65494 0.805747 0)
(8.28405 1.06992 0)
(8.6131 0.875595 0)
(8.1369 1.17495 0)
(8.54851 0.935613 0)
(7.97787 1.2871 0)
(8.50547 1.00331 0)
(7.82617 1.40671 0)
(8.47254 1.08064 0)
(7.69146 1.54504 0)
(8.444 1.19765 0)
(7.58554 1.70102 0)
(8.3925 1.3436 0)
(7.50193 1.86936 0)
(8.31198 1.51132 0)
(7.40736 2.0425 0)
(8.22102 1.70818 0)
(7.27445 2.23913 0)
(8.11963 1.94172 0)
(7.13657 2.50201 0)
(7.97162 2.21567 0)
(7.02265 2.85623 0)
(7.75312 2.55506 0)
(6.88051 3.33774 0)
(7.49533 3.03341 0)
(6.59939 4.02559 0)
(7.50474 3.84778 0)
(5.96261 5.27525 0)
(8.41378 4.70929 0)
(6.45769 8.83326 0)
(7.98855 -0.0898449 0)
(7.87265 -0.0802673 0)
(8.00475 -0.0980719 0)
(7.92306 -0.111407 0)
(8.11743 -0.130699 0)
(8.04976 -0.129035 0)
(8.23615 -0.131679 0)
(8.1288 -0.11895 0)
(8.29012 -0.119775 0)
(8.1545 -0.111662 0)
(8.31605 -0.120964 0)
(8.17575 -0.120214 0)
(8.3521 -0.135458 0)
(8.21325 -0.137233 0)
(8.40427 -0.153571 0)
(8.2646 -0.15421 0)
(8.46653 -0.169603 0)
(8.32261 -0.168363 0)
(8.53168 -0.183168 0)
(8.38172 -0.181244 0)
(8.59655 -0.196939 0)
(8.44038 -0.195951 0)
(8.66063 -0.213444 0)
(8.49787 -0.213441 0)
(8.72385 -0.232538 0)
(8.55472 -0.233052 0)
(8.7869 -0.252933 0)
(8.61138 -0.252968 0)
(8.84954 -0.272972 0)
(8.66637 -0.272279 0)
(8.91034 -0.292912 0)
(8.71899 -0.29232 0)
(8.96908 -0.314487 0)
(8.76889 -0.314047 0)
(9.0247 -0.337011 0)
(8.81531 -0.335242 0)
(9.07708 -0.35781 0)
(8.86005 -0.354046 0)
(9.12807 -0.37697 0)
(8.9056 -0.37253 0)
(9.17992 -0.397861 0)
(8.95453 -0.394593 0)
(9.23421 -0.423736 0)
(9.00613 -0.422094 0)
(9.28948 -0.454013 0)
(9.05684 -0.452424 0)
(9.34254 -0.484693 0)
(9.10203 -0.480887 0)
(9.39062 -0.511332 0)
(9.13934 -0.50366 0)
(9.43387 -0.531324 0)
(9.17025 -0.519211 0)
(9.47411 -0.545037 0)
(9.19877 -0.529352 0)
(9.514 -0.555724 0)
(9.23107 -0.538577 0)
(9.55771 -0.568474 0)
(9.27352 -0.551923 0)
(9.60827 -0.586686 0)
(9.32771 -0.570892 0)
(9.66412 -0.608771 0)
(9.38853 -0.593857 0)
(9.72143 -0.634682 0)
(9.44922 -0.62263 0)
(9.77766 -0.666946 0)
(9.50517 -0.657909 0)
(9.83263 -0.706653 0)
(9.55951 -0.700585 0)
(9.89151 -0.753391 0)
(9.61339 -0.746358 0)
(9.94792 -0.797803 0)
(9.66338 -0.784968 0)
(10.0027 -0.833255 0)
(9.71204 -0.816583 0)
(10.0563 -0.865596 0)
(9.76087 -0.844168 0)
(10.107 -0.894165 0)
(9.81182 -0.868241 0)
(10.1581 -0.921074 0)
(9.86973 -0.892914 0)
(10.2141 -0.945584 0)
(9.93475 -0.912127 0)
(10.2746 -0.964746 0)
(10.0061 -0.924653 0)
(10.3336 -0.978567 0)
(10.0804 -0.940034 0)
(10.3885 -0.99686 0)
(10.1456 -0.961228 0)
(10.434 -1.0232 0)
(10.198 -0.989784 0)
(10.4661 -1.04928 0)
(10.2329 -1.01147 0)
(10.4776 -1.07069 0)
(10.2476 -1.02947 0)
(10.4709 -1.08769 0)
(10.2492 -1.04405 0)
(10.45 -1.10471 0)
(10.2439 -1.06206 0)
(10.4334 -1.12764 0)
(10.2413 -1.0857 0)
(10.4207 -1.15617 0)
(10.2369 -1.1103 0)
(10.4036 -1.18153 0)
(10.2165 -1.12172 0)
(10.376 -1.18172 0)
(10.1851 -1.11173 0)
(10.3368 -1.16921 0)
(10.1439 -1.0915 0)
(10.2799 -1.14843 0)
(10.08 -1.05969 0)
(10.1937 -1.11299 0)
(9.9924 -1.01507 0)
(10.0937 -1.07265 0)
(9.91137 -0.981191 0)
(10.008 -1.04433 0)
(9.83403 -0.948272 0)
(9.91617 -1.00916 0)
(9.74683 -0.904747 0)
(9.82802 -0.962758 0)
(9.66328 -0.850922 0)
(9.75401 -0.908346 0)
(9.58662 -0.789873 0)
(9.68656 -0.848808 0)
(9.51339 -0.723316 0)
(9.62155 -0.785446 0)
(9.44031 -0.655889 0)
(9.55332 -0.72348 0)
(9.36111 -0.588419 0)
(9.47422 -0.652118 0)
(9.27809 -0.509401 0)
(9.38977 -0.573858 0)
(9.18712 -0.430151 0)
(9.31292 -0.500049 0)
(9.10151 -0.357848 0)
(9.23874 -0.424963 0)
(9.016 -0.284557 0)
(9.16604 -0.357987 0)
(8.9451 -0.225412 0)
(9.10175 -0.295711 0)
(8.8854 -0.163956 0)
(9.05015 -0.237727 0)
(8.8411 -0.0971405 0)
(8.99723 -0.172544 0)
(8.80159 -0.0334626 0)
(8.95797 -0.113097 0)
(8.77008 0.0290405 0)
(8.92486 -0.0432474 0)
(8.74493 0.0938983 0)
(8.90279 0.0183295 0)
(8.73746 0.157615 0)
(8.87671 0.0850581 0)
(8.74464 0.237664 0)
(8.84505 0.156389 0)
(8.73006 0.321262 0)
(8.82005 0.243188 0)
(8.70073 0.423011 0)
(8.79186 0.3256 0)
(8.67211 0.518317 0)
(8.77349 0.406089 0)
(8.64184 0.610547 0)
(8.75749 0.486285 0)
(8.61184 0.695472 0)
(8.73689 0.55013 0)
(8.5938 0.770557 0)
(8.72081 0.606301 0)
(8.56792 0.849699 0)
(8.69931 0.663433 0)
(8.53089 0.943369 0)
(8.68173 0.733063 0)
(8.46259 1.04215 0)
(8.69179 0.800099 0)
(8.35227 1.14999 0)
(8.69526 0.874768 0)
(8.21021 1.27196 0)
(8.70355 0.942117 0)
(8.04972 1.3826 0)
(8.71642 0.998972 0)
(7.90745 1.49525 0)
(8.71237 1.07051 0)
(7.78618 1.62117 0)
(8.69074 1.17045 0)
(7.70362 1.77922 0)
(8.65107 1.30982 0)
(7.62767 1.95935 0)
(8.6049 1.47697 0)
(7.54015 2.15713 0)
(8.54794 1.66096 0)
(7.46572 2.39177 0)
(8.4461 1.86493 0)
(7.42862 2.67899 0)
(8.3205 2.13052 0)
(7.38337 3.04314 0)
(8.25249 2.49611 0)
(7.25957 3.51451 0)
(8.37773 2.99572 0)
(6.95647 4.25413 0)
(8.91325 3.50843 0)
(6.7004 5.80838 0)
(9.65022 3.61483 0)
(8.07726 8.10529 0)
(10.2185 -0.113852 0)
(10.0906 -0.188298 0)
(10.2473 -0.230791 0)
(10.1465 -0.218643 0)
(10.3412 -0.205141 0)
(10.2388 -0.171212 0)
(10.4183 -0.158295 0)
(10.2785 -0.134437 0)
(10.4382 -0.135141 0)
(10.2765 -0.123274 0)
(10.4383 -0.135302 0)
(10.2738 -0.131833 0)
(10.4483 -0.150756 0)
(10.2854 -0.15046 0)
(10.4721 -0.171044 0)
(10.3082 -0.169596 0)
(10.5034 -0.188916 0)
(10.3354 -0.184993 0)
(10.5364 -0.203086 0)
(10.3631 -0.197809 0)
(10.5694 -0.216293 0)
(10.3906 -0.211299 0)
(10.6018 -0.231536 0)
(10.4173 -0.227442 0)
(10.633 -0.249503 0)
(10.4432 -0.245937 0)
(10.6626 -0.26905 0)
(10.4676 -0.265098 0)
(10.6899 -0.288558 0)
(10.4898 -0.283906 0)
(10.714 -0.307741 0)
(10.5085 -0.302676 0)
(10.7345 -0.327312 0)
(10.5235 -0.322273 0)
(10.7516 -0.347692 0)
(10.535 -0.342167 0)
(10.7667 -0.367865 0)
(10.5451 -0.361793 0)
(10.7826 -0.388276 0)
(10.5566 -0.382168 0)
(10.8013 -0.410596 0)
(10.5708 -0.40569 0)
(10.8226 -0.437175 0)
(10.5863 -0.433417 0)
(10.8436 -0.467177 0)
(10.5997 -0.462899 0)
(10.8606 -0.496817 0)
(10.6083 -0.489521 0)
(10.8718 -0.521658 0)
(10.612 -0.509674 0)
(10.8777 -0.539451 0)
(10.6124 -0.522869 0)
(10.8804 -0.551108 0)
(10.6125 -0.531744 0)
(10.883 -0.561171 0)
(10.617 -0.541847 0)
(10.8897 -0.575251 0)
(10.6281 -0.557206 0)
(10.9002 -0.594384 0)
(10.6417 -0.576852 0)
(10.9104 -0.6169 0)
(10.6536 -0.599935 0)
(10.9175 -0.642941 0)
(10.662 -0.62758 0)
(10.9207 -0.673734 0)
(10.6664 -0.662333 0)
(10.9237 -0.71499 0)
(10.6706 -0.708326 0)
(10.9288 -0.762648 0)
(10.6723 -0.753666 0)
(10.9307 -0.807044 0)
(10.6679 -0.79265 0)
(10.9286 -0.84265 0)
(10.6642 -0.824985 0)
(10.9246 -0.873796 0)
(10.6575 -0.852743 0)
(10.918 -0.90128 0)
(10.6558 -0.878859 0)
(10.9181 -0.931026 0)
(10.6677 -0.90608 0)
(10.9254 -0.956391 0)
(10.6884 -0.927489 0)
(10.9353 -0.974472 0)
(10.71 -0.939694 0)
(10.945 -0.988515 0)
(10.7291 -0.952583 0)
(10.9485 -1.00289 0)
(10.7396 -0.972987 0)
(10.9456 -1.02697 0)
(10.7423 -0.995227 0)
(10.9279 -1.04611 0)
(10.7277 -1.00746 0)
(10.8917 -1.05922 0)
(10.6979 -1.01788 0)
(10.8447 -1.07215 0)
(10.6605 -1.02901 0)
(10.7888 -1.08971 0)
(10.6191 -1.04932 0)
(10.7355 -1.11539 0)
(10.5737 -1.07278 0)
(10.6817 -1.14159 0)
(10.5205 -1.09301 0)
(10.6187 -1.16323 0)
(10.4592 -1.10099 0)
(10.5522 -1.1638 0)
(10.3943 -1.09063 0)
(10.4787 -1.14928 0)
(10.3205 -1.06271 0)
(10.3887 -1.11724 0)
(10.2274 -1.01959 0)
(10.2733 -1.06914 0)
(10.118 -0.972485 0)
(10.1643 -1.03734 0)
(10.0287 -0.946021 0)
(10.0597 -1.00807 0)
(9.92685 -0.906383 0)
(9.94235 -0.966864 0)
(9.80917 -0.859092 0)
(9.82017 -0.925248 0)
(9.69633 -0.805555 0)
(9.71511 -0.877407 0)
(9.59213 -0.746961 0)
(9.62822 -0.819499 0)
(9.49296 -0.685704 0)
(9.5489 -0.75891 0)
(9.39871 -0.62312 0)
(9.46192 -0.693359 0)
(9.30103 -0.548745 0)
(9.36326 -0.616277 0)
(9.19869 -0.467313 0)
(9.26383 -0.537957 0)
(9.09409 -0.390482 0)
(9.17382 -0.467546 0)
(8.99279 -0.317926 0)
(9.09166 -0.393814 0)
(8.89623 -0.248685 0)
(9.02028 -0.331843 0)
(8.81096 -0.192899 0)
(8.95074 -0.275919 0)
(8.73821 -0.135547 0)
(8.89354 -0.223676 0)
(8.67425 -0.0664926 0)
(8.84243 -0.161332 0)
(8.62827 -0.00702038 0)
(8.81748 -0.111588 0)
(8.59886 0.0545445 0)
(8.79632 -0.0483087 0)
(8.58334 0.113053 0)
(8.79531 0.00440293 0)
(8.57816 0.173266 0)
(8.79896 0.0640462 0)
(8.57483 0.256831 0)
(8.8133 0.14594 0)
(8.54784 0.344332 0)
(8.81838 0.233768 0)
(8.52823 0.450153 0)
(8.80352 0.31723 0)
(8.50852 0.556521 0)
(8.79269 0.40235 0)
(8.46578 0.637684 0)
(8.78743 0.470154 0)
(8.44646 0.723159 0)
(8.79185 0.520914 0)
(8.41205 0.799031 0)
(8.81537 0.580437 0)
(8.36091 0.883367 0)
(8.82825 0.63994 0)
(8.2998 0.982536 0)
(8.86099 0.709015 0)
(8.2304 1.09266 0)
(8.89481 0.771942 0)
(8.14782 1.21845 0)
(8.92822 0.840024 0)
(8.03759 1.34076 0)
(8.97004 0.898549 0)
(7.94369 1.45054 0)
(8.96898 0.959138 0)
(7.88057 1.56517 0)
(8.9328 1.03606 0)
(7.83573 1.69769 0)
(8.87777 1.12984 0)
(7.80049 1.86547 0)
(8.83714 1.25816 0)
(7.76986 2.05817 0)
(8.80372 1.41303 0)
(7.75146 2.27244 0)
(8.76557 1.58378 0)
(7.74663 2.51369 0)
(8.75075 1.79806 0)
(7.70377 2.79992 0)
(8.80854 2.06764 0)
(7.61143 3.17537 0)
(8.99681 2.38756 0)
(7.45053 3.71404 0)
(9.38395 2.67797 0)
(7.318 4.62886 0)
(9.96274 2.81039 0)
(7.65691 6.02349 0)
(10.2455 3.03203 0)
(9.05935 7.10112 0)
(11.7021 -0.0979885 0)
(11.6098 -0.204594 0)
(11.8038 -0.267049 0)
(11.7464 -0.250913 0)
(11.9179 -0.23186 0)
(11.8173 -0.182495 0)
(11.9553 -0.165052 0)
(11.8193 -0.133286 0)
(11.9433 -0.137334 0)
(11.7943 -0.122499 0)
(11.9221 -0.139998 0)
(11.7731 -0.133773 0)
(11.9115 -0.157619 0)
(11.7656 -0.153901 0)
(11.9143 -0.178996 0)
(11.7691 -0.173942 0)
(11.9248 -0.197672 0)
(11.7773 -0.19005 0)
(11.9375 -0.212362 0)
(11.7859 -0.203158 0)
(11.9494 -0.225631 0)
(11.7928 -0.216438 0)
(11.959 -0.240499 0)
(11.7969 -0.232036 0)
(11.9653 -0.257864 0)
(11.7978 -0.249815 0)
(11.9683 -0.276731 0)
(11.7959 -0.268233 0)
(11.9687 -0.295597 0)
(11.7926 -0.28612 0)
(11.9675 -0.313689 0)
(11.7884 -0.303277 0)
(11.9651 -0.331582 0)
(11.7836 -0.320755 0)
(11.9616 -0.350035 0)
(11.7782 -0.33907 0)
(11.9575 -0.369482 0)
(11.7725 -0.358753 0)
(11.9537 -0.39053 0)
(11.7669 -0.380479 0)
(11.9505 -0.414237 0)
(11.7608 -0.405309 0)
(11.947 -0.441226 0)
(11.7529 -0.432894 0)
(11.9413 -0.470205 0)
(11.7417 -0.460837 0)
(11.9311 -0.497889 0)
(11.7262 -0.485535 0)
(11.9155 -0.520793 0)
(11.7066 -0.504049 0)
(11.8942 -0.537076 0)
(11.6844 -0.516232 0)
(11.8697 -0.548456 0)
(11.6635 -0.526066 0)
(11.8465 -0.560016 0)
(11.6465 -0.538074 0)
(11.8252 -0.574389 0)
(11.6297 -0.553174 0)
(11.8024 -0.591418 0)
(11.6082 -0.571572 0)
(11.7767 -0.612381 0)
(11.5807 -0.593678 0)
(11.7477 -0.636559 0)
(11.547 -0.618711 0)
(11.716 -0.665918 0)
(11.5119 -0.652565 0)
(11.6849 -0.706402 0)
(11.4746 -0.695635 0)
(11.6458 -0.751216 0)
(11.4298 -0.737589 0)
(11.5986 -0.791823 0)
(11.3787 -0.774278 0)
(11.5469 -0.827302 0)
(11.3288 -0.806263 0)
(11.4923 -0.85747 0)
(11.2778 -0.83516 0)
(11.4387 -0.888318 0)
(11.2371 -0.868136 0)
(11.3997 -0.923964 0)
(11.2095 -0.900108 0)
(11.3673 -0.952347 0)
(11.1861 -0.923608 0)
(11.3348 -0.969673 0)
(11.1626 -0.937676 0)
(11.3042 -0.983505 0)
(11.1339 -0.948863 0)
(11.2722 -0.997207 0)
(11.1039 -0.967179 0)
(11.2342 -1.01733 0)
(11.0664 -0.979631 0)
(11.1811 -1.02638 0)
(11.0114 -0.984756 0)
(11.1191 -1.03676 0)
(10.95 -0.99291 0)
(11.0527 -1.05001 0)
(10.8857 -1.00313 0)
(10.9798 -1.06887 0)
(10.82 -1.02162 0)
(10.8999 -1.09373 0)
(10.7484 -1.04383 0)
(10.8194 -1.11717 0)
(10.673 -1.06068 0)
(10.7363 -1.13586 0)
(10.5935 -1.06689 0)
(10.6463 -1.13223 0)
(10.5024 -1.05319 0)
(10.5397 -1.11169 0)
(10.3967 -1.01862 0)
(10.4123 -1.07196 0)
(10.2725 -0.965587 0)
(10.268 -1.01954 0)
(10.1576 -0.926781 0)
(10.1445 -0.996405 0)
(10.0412 -0.895306 0)
(10.0056 -0.958232 0)
(9.907 -0.845292 0)
(9.85637 -0.911881 0)
(9.75889 -0.793288 0)
(9.70907 -0.87357 0)
(9.61541 -0.74558 0)
(9.57736 -0.83432 0)
(9.4812 -0.69429 0)
(9.46817 -0.78231 0)
(9.35918 -0.637128 0)
(9.36587 -0.722746 0)
(9.24357 -0.57281 0)
(9.25217 -0.656428 0)
(9.12895 -0.495769 0)
(9.13946 -0.578389 0)
(9.01312 -0.413616 0)
(9.03347 -0.500507 0)
(8.90199 -0.340503 0)
(8.93127 -0.429963 0)
(8.79418 -0.267561 0)
(8.83981 -0.363553 0)
(8.69631 -0.203449 0)
(8.76614 -0.303915 0)
(8.59845 -0.14662 0)
(8.69406 -0.255222 0)
(8.51058 -0.0909633 0)
(8.63201 -0.204413 0)
(8.42932 -0.0294907 0)
(8.59223 -0.156185 0)
(8.38927 0.0161714 0)
(8.56831 -0.115214 0)
(8.35808 0.08425 0)
(8.55339 -0.0658877 0)
(8.34805 0.138642 0)
(8.56777 -0.0226484 0)
(8.34107 0.20298 0)