/*--------------------------------*- C++ -*----------------------------------*\
| =========                 |                                                 |
| \\      /  F ield         | OpenFOAM: The Open Source CFD Toolbox           |
|  \\    /   O peration     | Version:  2.4.0                                 |
|   \\  /    A nd           | Web:      www.OpenFOAM.org                      |
|    \\/     M anipulation  |                                                 |
\*---------------------------------------------------------------------------*/
FoamFile
{
    version     2.0;
    format      ascii;
    class       volScalarField;
    location    "39";
    object      p;
}
// * * * * * * * * * * * * * * * * * * * * * * * * * * * * * * * * * * * * * //

dimensions      [0 2 -2 0 0 0 0];

internalField   nonuniform List<scalar> 
4400
(
-0.104263
-0.11695
-0.114373
-0.102992
-0.109072
-0.113019
-0.1138
-0.116388
-0.1181
-0.117483
-0.112228
-0.117945
-0.122076
-0.117987
-0.12294
-0.125033
-0.120566
-0.125991
-0.130394
-0.126548
-0.104097
-0.117078
-0.114807
-0.102695
-0.109009
-0.1132
-0.113718
-0.116404
-0.118181
-0.117627
-0.112055
-0.117883
-0.122437
-0.117823
-0.122919
-0.125268
-0.120371
-0.12597
-0.130574
-0.126423
-0.1039
-0.117322
-0.115232
-0.102286
-0.10906
-0.113358
-0.113629
-0.11642
-0.118211
-0.117804
-0.111832
-0.117875
-0.122702
-0.117564
-0.122935
-0.125517
-0.120074
-0.125982
-0.13059
-0.126104
-0.103782
-0.117485
-0.115452
-0.102013
-0.109264
-0.113451
-0.113524
-0.116403
-0.118193
-0.117967
-0.11168
-0.117946
-0.12285
-0.117289
-0.122968
-0.125667
-0.119776
-0.126008
-0.130536
-0.12551
-0.103822
-0.117441
-0.115431
-0.102107
-0.109626
-0.113425
-0.113418
-0.116312
-0.118088
-0.118087
-0.111693
-0.118096
-0.122812
-0.117089
-0.122977
-0.125626
-0.119623
-0.125937
-0.130337
-0.124799
-0.104069
-0.117099
-0.115289
-0.102719
-0.110114
-0.113259
-0.113336
-0.11614
-0.117878
-0.118146
-0.111938
-0.118303
-0.122615
-0.117042
-0.12294
-0.125366
-0.119714
-0.125731
-0.129951
-0.124216
-0.10459
-0.116347
-0.115047
-0.103934
-0.110653
-0.113092
-0.113308
-0.115902
-0.117553
-0.118091
-0.112486
-0.118517
-0.122261
-0.117239
-0.122812
-0.124872
-0.120122
-0.125374
-0.129286
-0.123946
-0.105436
-0.115105
-0.114594
-0.106116
-0.111183
-0.112917
-0.113347
-0.115621
-0.117123
-0.11786
-0.113384
-0.118693
-0.121705
-0.117739
-0.122549
-0.12415
-0.120848
-0.124876
-0.128286
-0.124019
-0.1066
-0.113373
-0.1138
-0.10852
-0.111647
-0.112754
-0.113448
-0.115297
-0.116604
-0.117438
-0.114628
-0.118794
-0.12092
-0.11852
-0.122126
-0.12324
-0.12182
-0.124267
-0.126981
-0.124373
-0.108
-0.111252
-0.112627
-0.111136
-0.112012
-0.112611
-0.113584
-0.114928
-0.116014
-0.116861
-0.11614
-0.118789
-0.119922
-0.119519
-0.121542
-0.122213
-0.122915
-0.123585
-0.12548
-0.124872
-0.109497
-0.108932
-0.111137
-0.113721
-0.112281
-0.11248
-0.113718
-0.114522
-0.115372
-0.116204
-0.117776
-0.118671
-0.118786
-0.120593
-0.120831
-0.121164
-0.123989
-0.122882
-0.123944
-0.125347
-0.110925
-0.106668
-0.109477
-0.116009
-0.11251
-0.112363
-0.113818
-0.114101
-0.114701
-0.115563
-0.119364
-0.118461
-0.117627
-0.121574
-0.12007
-0.12019
-0.124902
-0.122225
-0.12253
-0.12566
-0.112134
-0.104729
-0.107839
-0.117785
-0.11277
-0.112262
-0.113868
-0.113686
-0.11404
-0.115029
-0.120744
-0.118227
-0.116571
-0.122325
-0.11937
-0.119353
-0.125392
-0.121685
-0.121341
-0.125744
-0.113027
-0.103305
-0.106416
-0.118958
-0.113092
-0.112175
-0.113869
-0.113302
-0.113448
-0.114653
-0.121808
-0.118052
-0.115721
-0.122763
-0.118827
-0.118703
-0.125536
-0.121305
-0.120418
-0.125606
-0.113577
-0.102451
-0.105363
-0.119528
-0.113458
-0.112109
-0.113832
-0.112984
-0.11299
-0.114448
-0.122501
-0.117989
-0.115142
-0.12289
-0.118493
-0.118266
-0.125584
-0.121097
-0.119758
-0.125311
-0.113827
-0.102087
-0.10475
-0.119733
-0.113829
-0.112078
-0.11377
-0.112755
-0.112699
-0.114398
-0.122831
-0.118024
-0.114847
-0.12278
-0.118359
-0.118029
-0.125462
-0.121034
-0.119342
-0.124939
-0.113839
-0.102036
-0.104556
-0.119605
-0.114126
-0.112103
-0.113694
-0.11262
-0.112592
-0.114473
-0.122851
-0.118081
-0.114811
-0.122533
-0.118354
-0.117971
-0.125218
-0.121041
-0.119156
-0.124556
-0.113669
-0.102129
-0.104697
-0.119229
-0.114263
-0.112185
-0.113604
-0.112572
-0.112577
-0.114623
-0.122656
-0.118088
-0.114974
-0.122228
-0.118385
-0.118068
-0.124911
-0.121051
-0.119181
-0.124203
-0.113434
-0.102249
-0.105037
-0.118754
-0.11423
-0.112312
-0.113516
-0.112572
-0.112609
-0.114797
-0.122381
-0.118027
-0.115242
-0.121941
-0.11839
-0.118267
-0.124613
-0.121034
-0.11934
-0.123919
-0.113271
-0.102297
-0.105406
-0.118439
-0.114106
-0.112451
-0.113426
-0.112589
-0.112654
-0.114938
-0.12219
-0.117928
-0.115605
-0.121767
-0.118349
-0.118479
-0.124421
-0.12099
-0.119544
-0.123768
-0.131453
-0.137081
-0.122315
-0.109442
-0.118331
-0.136139
-0.150221
-0.171982
-0.181898
-0.142085
-0.131633
-0.113694
-0.0675299
-0.120791
-0.160534
-0.130065
-0.13748
-0.132565
-0.0553261
-0.0109601
-0.062767
-0.162764
-0.226594
-0.244784
-0.213391
-0.122416
-0.0505292
-0.0597347
-0.0947078
-0.101716
-0.0895174
-0.0683817
-0.0346092
-0.0062038
0.00281103
-0.00228288
-0.0143348
-0.0303841
-0.0448057
-0.0459821
-0.0322165
-0.0163722
-0.00624613
0.0008184
0.00708133
0.0118188
0.01472
0.0163211
0.0171324
0.0174614
0.0175025
0.0173793
0.0171662
0.016905
0.0166182
0.0163178
0.0160094
0.015696
0.0153789
0.015059
0.0147365
0.0144117
0.0140844
0.0137548
0.0134228
0.0130885
0.0127518
0.0124127
0.0120712
0.0117273
0.0113811
0.0110323
0.0106813
0.0103277
0.00997166
0.00961308
0.009252
0.00888851
0.00852233
0.00815377
0.00778248
0.00740867
0.00703228
0.00665316
0.0062715
0.00588704
0.00549994
0.00511016
0.00471761
0.00432235
0.00392423
0.00352326
0.00311951
0.00271289
0.00230345
0.00189116
0.00147593
0.00105778
0.000636718
0.000212725
-0.1313
-0.136662
-0.121622
-0.109791
-0.117629
-0.135701
-0.151085
-0.169138
-0.180439
-0.14209
-0.126405
-0.115439
-0.0760002
-0.115583
-0.153756
-0.129279
-0.125415
-0.114345
-0.0441672
-0.00563224
-0.0620962
-0.168879
-0.233975
-0.252433
-0.219224
-0.118815
-0.036531
-0.0456832
-0.0875733
-0.102875
-0.0957348
-0.0752543
-0.0382173
-0.00651134
0.00397663
-0.000842123
-0.0126663
-0.0284832
-0.0428317
-0.0442671
-0.0317804
-0.0176383
-0.00846529
-0.00108414
0.00595518
0.0112691
0.0144774
0.0162286
0.0171091
0.0174654
0.0175138
0.0173901
0.017174
0.01691
0.0166212
0.0163194
0.0160102
0.0156963
0.015379
0.0150591
0.0147365
0.0144117
0.0140844
0.0137548
0.0134228
0.0130885
0.0127518
0.0124127
0.0120712
0.0117273
0.0113811
0.0110323
0.0106813
0.0103277
0.00997167
0.00961308
0.00925199
0.00888852
0.00852233
0.00815377
0.00778248
0.00740867
0.00703228
0.00665317
0.00627149
0.00588704
0.00549994
0.00511016
0.0047176
0.00432236
0.00392422
0.00352327
0.00311951
0.00271289
0.00230346
0.00189116
0.00147593
0.00105778
0.000636722
0.000212724
-0.130979
-0.135467
-0.121138
-0.110982
-0.117026
-0.135489
-0.151736
-0.16486
-0.176965
-0.142788
-0.122145
-0.116962
-0.0842236
-0.111196
-0.147346
-0.128074
-0.114175
-0.0971284
-0.0335028
-0.000235016
-0.0604862
-0.17342
-0.24027
-0.259238
-0.223461
-0.113753
-0.0231867
-0.0330756
-0.0812554
-0.104102
-0.102135
-0.0815137
-0.0413477
-0.00652465
0.00543254
0.000895744
-0.0107103
-0.0263024
-0.0404968
-0.0422115
-0.0312242
-0.019073
-0.0109375
-0.00314013
0.00477494
0.0107109
0.0142405
0.0161436
0.0170911
0.0174726
0.0175271
0.0174019
0.0171825
0.0169154
0.0166243
0.0163211
0.016011
0.0156967
0.0153792
0.0150591
0.0147365
0.0144117
0.0140844
0.0137548
0.0134228
0.0130885
0.0127518
0.0124127
0.0120712
0.0117273
0.0113811
0.0110323
0.0106813
0.0103277
0.00997167
0.00961308
0.00925199
0.00888852
0.00852233
0.00815377
0.00778249
0.00740868
0.00703228
0.00665317
0.00627149
0.00588704
0.00549994
0.00511017
0.0047176
0.00432236
0.00392422
0.00352327
0.00311951
0.00271289
0.00230346
0.00189116
0.00147593
0.00105779
0.000636724
0.000212726
-0.130649
-0.133961
-0.120667
-0.112668
-0.116169
-0.134544
-0.15204
-0.159924
-0.17175
-0.143723
-0.119359
-0.118088
-0.0918068
-0.10818
-0.141846
-0.126431
-0.104227
-0.0818216
-0.0239851
0.00479833
-0.0583055
-0.176163
-0.245613
-0.265231
-0.226277
-0.107624
-0.0111628
-0.0223821
-0.075984
-0.105335
-0.107408
-0.0869834
-0.0438684
-0.0061763
0.00719613
0.00294259
-0.00846137
-0.0238536
-0.0378033
-0.039837
-0.0305553
-0.0206677
-0.0136344
-0.00532298
0.00355396
0.0101517
0.0140132
0.0160675
0.0170792
0.0174835
0.0175425
0.0174149
0.0171916
0.0169211
0.0166276
0.0163228
0.0160119
0.0156971
0.0153793
0.0150592
0.0147365
0.0144117
0.0140844
0.0137548
0.0134228
0.0130885
0.0127518
0.0124127
0.0120712
0.0117273
0.0113811
0.0110323
0.0106813
0.0103277
0.00997167
0.00961308
0.00925199
0.00888852
0.00852234
0.00815377
0.00778249
0.00740868
0.00703228
0.00665317
0.00627149
0.00588704
0.00549994
0.00511017
0.0047176
0.00432235
0.00392421
0.00352327
0.00311951
0.00271289
0.00230346
0.00189116
0.00147593
0.00105779
0.000636727
0.000212727
-0.130236
-0.132451
-0.120156
-0.114614
-0.115545
-0.132798
-0.151427
-0.154976
-0.165456
-0.144348
-0.118227
-0.118901
-0.0982898
-0.106737
-0.137602
-0.12446
-0.0958331
-0.0690663
-0.0161769
0.00897978
-0.0558318
-0.17675
-0.24988
-0.270193
-0.227734
-0.100881
-0.000972206
-0.0138999
-0.0718893
-0.106533
-0.111985
-0.0915224
-0.0456748
-0.00541108
0.00927647
0.00530442
-0.0059295
-0.021155
-0.0347611
-0.0371746
-0.0297775
-0.0223946
-0.0165049
-0.00759134
0.00230039
0.0095991
0.0137984
0.0160017
0.0170739
0.0174983
0.01756
0.0174291
0.0172014
0.0169272
0.0166311
0.0163247
0.0160128
0.0156975
0.0153795
0.0150592
0.0147365
0.0144117
0.0140843
0.0137548
0.0134228
0.0130885
0.0127518
0.0124127
0.0120712
0.0117273
0.0113811
0.0110323
0.0106814
0.0103277
0.00997167
0.00961308
0.009252
0.00888852
0.00852234
0.00815378
0.00778249
0.00740868
0.00703228
0.00665317
0.00627149
0.00588704
0.00549994
0.00511017
0.0047176
0.00432235
0.00392421
0.00352327
0.00311951
0.00271289
0.00230346
0.00189116
0.00147593
0.00105779
0.000636729
0.000212728
-0.12955
-0.131053
-0.119757
-0.116311
-0.115335
-0.130377
-0.149496
-0.150354
-0.158793
-0.144249
-0.118624
-0.119541
-0.103386
-0.106832
-0.134745
-0.122313
-0.0891412
-0.0592433
-0.0105255
0.0118308
-0.0531726
-0.174963
-0.252565
-0.273499
-0.22772
-0.0940423
0.00709963
-0.00777131
-0.0690068
-0.107646
-0.115768
-0.095023
-0.0466901
-0.00418675
0.0116701
0.00797639
-0.0031416
-0.0182262
-0.031393
-0.0342628
-0.0288914
-0.0242034
-0.0194716
-0.00988817
0.00106048
0.00906049
0.013599
0.0159477
0.017076
0.0175172
0.0175798
0.0174445
0.0172117
0.0169335
0.0166347
0.0163266
0.0160137
0.0156979
0.0153797
0.0150593
0.0147365
0.0144116
0.0140843
0.0137548
0.0134228
0.0130885
0.0127518
0.0124127
0.0120712
0.0117273
0.0113812
0.0110323
0.0106814
0.0103277
0.00997167
0.00961308
0.009252
0.00888852
0.00852234
0.00815378
0.0077825
0.00740869
0.00703229
0.00665317
0.00627149
0.00588704
0.00549995
0.00511017
0.0047176
0.00432235
0.00392421
0.00352326
0.00311951
0.00271289
0.00230346
0.00189116
0.00147594
0.0010578
0.000636731
0.000212729
-0.128569
-0.129705
-0.119574
-0.117449
-0.115445
-0.127703
-0.146184
-0.146103
-0.152326
-0.143229
-0.120164
-0.120087
-0.107061
-0.108227
-0.133194
-0.120156
-0.084223
-0.0524601
-0.00728736
0.0129593
-0.0504446
-0.170978
-0.252885
-0.274316
-0.226045
-0.0875798
0.0130129
-0.00400314
-0.0672976
-0.108595
-0.118669
-0.09742
-0.0468654
-0.00248511
0.0143561
0.0109392
-0.000135538
-0.0150873
-0.0277412
-0.0311438
-0.0278945
-0.026021
-0.0224308
-0.012145
-0.000146287
0.00854552
0.0134185
0.0159065
0.0170856
0.0175402
0.0176017
0.017461
0.0172227
0.0169401
0.0166385
0.0163286
0.0160147
0.0156984
0.0153798
0.0150593
0.0147365
0.0144116
0.0140843
0.0137548
0.0134228
0.0130885
0.0127518
0.0124127
0.0120712
0.0117273
0.0113812
0.0110323
0.0106814
0.0103277
0.00997167
0.00961309
0.009252
0.00888852
0.00852234
0.00815378
0.0077825
0.00740869
0.00703229
0.00665317
0.00627149
0.00588704
0.00549995
0.00511017
0.0047176
0.00432235
0.00392421
0.00352326
0.00311951
0.00271289
0.00230346
0.00189117
0.00147594
0.0010578
0.000636733
0.00021273
-0.127112
-0.128278
-0.119679
-0.11796
-0.115676
-0.125109
-0.141676
-0.142062
-0.146402
-0.141343
-0.122352
-0.120557
-0.109443
-0.110533
-0.13269
-0.118177
-0.0810627
-0.0485379
-0.00646829
0.0121426
-0.0478574
-0.165218
-0.250215
-0.271997
-0.22253
-0.0818705
0.01688
-0.00261227
-0.0666687
-0.109303
-0.120624
-0.0986887
-0.0461861
-0.000310298
0.0173043
0.0141617
0.00303832
-0.011762
-0.0238702
-0.027858
-0.0267833
-0.0277529
-0.0252559
-0.0142867
-0.00128973
0.00806489
0.01326
0.0158789
0.0171028
0.0175672
0.0176256
0.0174785
0.0172341
0.016947
0.0166423
0.0163306
0.0160157
0.0156988
0.01538
0.0150594
0.0147366
0.0144116
0.0140843
0.0137548
0.0134228
0.0130885
0.0127518
0.0124127
0.0120712
0.0117273
0.0113812
0.0110323
0.0106814
0.0103277
0.00997167
0.00961309
0.009252
0.00888852
0.00852234
0.00815378
0.0077825
0.0074087
0.00703229
0.00665317
0.00627149
0.00588704
0.00549995
0.00511017
0.00471761
0.00432234
0.0039242
0.00352326
0.00311951
0.0027129
0.00230346
0.00189117
0.00147594
0.0010578
0.000636735
0.00021273
-0.125803
-0.126697
-0.120017
-0.117896
-0.115816
-0.122737
-0.136349
-0.138064
-0.1412
-0.138821
-0.124679
-0.120931
-0.110786
-0.113288
-0.132853
-0.116555
-0.0795975
-0.0471109
-0.00781566
0.00939135
-0.0455761
-0.158065
-0.244501
-0.266557
-0.217023
-0.0772217
0.0187588
-0.00354078
-0.0669621
-0.109717
-0.121615
-0.0988503
-0.0446725
0.00230446
0.0204726
0.017594
0.00631569
-0.00827401
-0.0198677
-0.0244422
-0.0255546
-0.0292904
-0.0278095
-0.0162374
-0.00234031
0.00762873
0.0131258
0.0158649
0.0171272
0.0175978
0.0176513
0.0174968
0.0172459
0.016954
0.0166462
0.0163326
0.0160166
0.0156992
0.0153802
0.0150594
0.0147366
0.0144116
0.0140843
0.0137547
0.0134228
0.0130884
0.0127518
0.0124127
0.0120712
0.0117273
0.0113812
0.0110323
0.0106814
0.0103277
0.00997167
0.00961309
0.009252
0.00888852
0.00852235
0.00815379
0.0077825
0.0074087
0.00703229
0.00665316
0.00627148
0.00588704
0.00549995
0.00511018
0.00471761
0.00432234
0.0039242
0.00352326
0.00311951
0.0027129
0.00230346
0.00189117
0.00147594
0.0010578
0.000636737
0.000212731
-0.124527
-0.124962
-0.120437
-0.117438
-0.115718
-0.120619
-0.130711
-0.134015
-0.136775
-0.135993
-0.126717
-0.121238
-0.111453
-0.116042
-0.133275
-0.115388
-0.079706
-0.0476751
-0.0109139
0.00493496
-0.0436746
-0.14988
-0.236085
-0.257875
-0.209513
-0.0738892
0.0184567
-0.00633609
-0.067965
-0.109802
-0.121688
-0.0979801
-0.0423846
0.00529382
0.0238157
0.021161
0.00963559
-0.00464929
-0.015842
-0.0209382
-0.0242075
-0.0305247
-0.0299651
-0.017907
-0.00326622
0.00724631
0.0130171
0.0158638
0.017158
0.0176314
0.0176783
0.0175157
0.0172578
0.016961
0.01665
0.0163345
0.0160175
0.0156996
0.0153803
0.0150595
0.0147366
0.0144116
0.0140843
0.0137547
0.0134227
0.0130884
0.0127518
0.0124127
0.0120712
0.0117273
0.0113812
0.0110324
0.0106814
0.0103277
0.00997167
0.00961309
0.009252
0.00888853
0.00852235
0.00815379
0.00778251
0.0074087
0.00703229
0.00665316
0.00627148
0.00588704
0.00549995
0.00511018
0.00471761
0.00432234
0.0039242
0.00352326
0.00311951
0.0027129
0.00230346
0.00189117
0.00147595
0.00105781
0.000636738
0.000212732
-0.123391
-0.123179
-0.120776
-0.116837
-0.115334
-0.118736
-0.125263
-0.129936
-0.133099
-0.133192
-0.128181
-0.121536
-0.111811
-0.11847
-0.13364
-0.114758
-0.0810558
-0.0496085
-0.0151146
-0.000869793
-0.042116
-0.140924
-0.225795
-0.247123
-0.20024
-0.0717613
0.0157139
-0.0104103
-0.0693995
-0.109541
-0.120927
-0.0961894
-0.0394198
0.00857268
0.02729
0.0247601
0.0129472
-0.000937084
-0.0118975
-0.0174066
-0.0227531
-0.0313653
-0.0316238
-0.0192391
-0.00403948
0.00692425
0.0129333
0.0158738
0.0171937
0.0176669
0.0177059
0.0175345
0.0172696
0.0169678
0.0166537
0.0163364
0.0160184
0.0157
0.0153805
0.0150595
0.0147366
0.0144116
0.0140843
0.0137547
0.0134227
0.0130884
0.0127518
0.0124127
0.0120712
0.0117273
0.0113812
0.0110324
0.0106814
0.0103277
0.00997167
0.00961309
0.009252
0.00888853
0.00852235
0.00815379
0.00778251
0.00740871
0.00703229
0.00665316
0.00627148
0.00588704
0.00549995
0.00511018
0.00471761
0.00432234
0.0039242
0.00352326
0.00311951
0.0027129
0.00230346
0.00189117
0.00147595
0.00105781
0.000636739
0.000212732
-0.122465
-0.121492
-0.120929
-0.116276
-0.114713
-0.117066
-0.120397
-0.125954
-0.13008
-0.130683
-0.128952
-0.121832
-0.112167
-0.120436
-0.133783
-0.11464
-0.0830442
-0.0520677
-0.0197847
-0.0075328
-0.0407977
-0.13124
-0.214283
-0.236944
-0.18982
-0.069939
0.0103724
-0.0150293
-0.0708981
-0.108914
-0.119456
-0.0936147
-0.0359107
0.0120382
0.0308366
0.0282666
0.0162073
0.00277409
-0.00811224
-0.0139399
-0.0212287
-0.0317639
-0.032732
-0.0202003
-0.00464341
0.00666507
0.012872
0.015892
0.0172319
0.0177027
0.017733
0.0175528
0.0172809
0.0169742
0.0166571
0.0163381
0.0160192
0.0157003
0.0153806
0.0150595
0.0147366
0.0144116
0.0140843
0.0137547
0.0134227
0.0130884
0.0127518
0.0124127
0.0120713
0.0117273
0.0113812
0.0110324
0.0106814
0.0103277
0.00997167
0.00961309
0.009252
0.00888853
0.00852235
0.00815379
0.00778251
0.00740871
0.0070323
0.00665316
0.00627148
0.00588703
0.00549995
0.00511018
0.00471761
0.00432234
0.0039242
0.00352326
0.00311951
0.0027129
0.00230346
0.00189117
0.00147595
0.00105781
0.000636741
0.000212733
-0.121783
-0.120024
-0.120866
-0.115841
-0.113953
-0.115599
-0.116349
-0.122267
-0.127601
-0.128603
-0.129067
-0.122056
-0.112651
-0.121919
-0.133625
-0.114804
-0.0852389
-0.0542471
-0.024203
-0.0144259
-0.0395405
-0.120812
-0.201901
-0.226292
-0.178727
-0.0681755
0.00299682
-0.0196183
-0.0720872
-0.107948
-0.117391
-0.0904034
-0.0320284
0.01558
0.0343768
0.0315621
0.0193839
0.00636045
-0.00453465
-0.0106643
-0.0197002
-0.0317325
-0.0332953
-0.0207911
-0.00507536
0.00646615
0.0128285
0.0159143
0.0172697
0.0177368
0.0177582
0.0175694
0.0172909
0.0169799
0.0166601
0.0163395
0.0160198
0.0157006
0.0153807
0.0150595
0.0147366
0.0144116
0.0140843
0.0137547
0.0134227
0.0130884
0.0127517
0.0124127
0.0120713
0.0117273
0.0113812
0.0110324
0.0106814
0.0103277
0.00997167
0.00961309
0.009252
0.00888853
0.00852235
0.00815379
0.00778251
0.00740871
0.0070323
0.00665316
0.00627148
0.00588703
0.00549995
0.00511018
0.00471761
0.00432234
0.0039242
0.00352325
0.00311951
0.0027129
0.00230347
0.00189118
0.00147595
0.00105781
0.000636742
0.000212733
-0.121376
-0.118842
-0.120623
-0.115547
-0.113178
-0.114342
-0.113232
-0.119087
-0.125564
-0.126976
-0.128679
-0.122121
-0.113217
-0.122957
-0.133095
-0.114921
-0.0869701
-0.055583
-0.0276787
-0.0208091
-0.0382107
-0.109796
-0.188884
-0.215152
-0.167351
-0.0663473
-0.00539595
-0.0240101
-0.0727835
-0.106689
-0.114849
-0.0867188
-0.0279762
0.0191078
0.037808
0.0345712
0.0224473
0.00961726
-0.00121049
-0.00772723
-0.0182479
-0.0313394
-0.0333776
-0.0210467
-0.00534901
0.0063191
0.0127961
0.0159357
0.0173035
0.0177666
0.0177799
0.0175835
0.0172993
0.0169845
0.0166624
0.0163407
0.0160203
0.0157008
0.0153807
0.0150596
0.0147366
0.0144116
0.0140842
0.0137547
0.0134227
0.0130884
0.0127517
0.0124127
0.0120713
0.0117273
0.0113812
0.0110324
0.0106814
0.0103277
0.00997167
0.00961309
0.009252
0.00888853
0.00852235
0.0081538
0.00778251
0.00740871
0.0070323
0.00665316
0.00627148
0.00588703
0.00549996
0.00511018
0.00471761
0.00432234
0.00392419
0.00352325
0.00311951
0.0027129
0.00230347
0.00189118
0.00147595
0.00105781
0.000636743
0.000212734
-0.121124
-0.117968
-0.12027
-0.115375
-0.112502
-0.113318
-0.111063
-0.116591
-0.123914
-0.125769
-0.127998
-0.121976
-0.113794
-0.123601
-0.13212
-0.114688
-0.0879077
-0.0557019
-0.0297454
-0.0259276
-0.0367119
-0.0985083
-0.175613
-0.203408
-0.155947
-0.0643984
-0.013825
-0.0280022
-0.0728976
-0.105178
-0.111936
-0.0827034
-0.0239823
0.0225028
0.0409689
0.037277
0.0253441
0.012371
0.00176205
-0.00527963
-0.0169553
-0.0307007
-0.0330941
-0.021036
-0.0054938
0.00621057
0.0127669
0.0159504
0.0173293
0.0177895
0.0177965
0.0175942
0.0173056
0.0169879
0.0166641
0.0163415
0.0160207
0.0157009
0.0153808
0.0150596
0.0147366
0.0144116
0.0140842
0.0137547
0.0134227
0.0130884
0.0127517
0.0124127
0.0120713
0.0117273
0.0113812
0.0110324
0.0106814
0.0103277
0.00997167
0.00961309
0.009252
0.00888853
0.00852236
0.0081538
0.00778251
0.00740871
0.0070323
0.00665316
0.00627148
0.00588703
0.00549996
0.00511018
0.00471761
0.00432233
0.00392419
0.00352325
0.00311951
0.0027129
0.00230347
0.00189118
0.00147596
0.00105781
0.000636743
0.000212734
-0.120982
-0.117401
-0.119884
-0.115283
-0.112017
-0.112562
-0.109767
-0.114871
-0.122631
-0.124922
-0.127238
-0.12168
-0.114351
-0.123919
-0.130739
-0.113928
-0.0878604
-0.0545938
-0.0302576
-0.0292157
-0.0350419
-0.0875306
-0.162683
-0.191294
-0.144768
-0.0623833
-0.0214457
-0.0312146
-0.0723916
-0.103332
-0.108743
-0.078548
-0.020276
0.0256695
0.0436479
0.039703
0.0279311
0.0145931
0.00421824
-0.00344459
-0.0158985
-0.0299555
-0.0325855
-0.0208516
-0.00554986
0.00612479
0.0127328
0.0159533
0.0173437
0.0178037
0.0178071
0.017601
0.0173096
0.0169901
0.0166653
0.016342
0.0160209
0.015701
0.0153808
0.0150596
0.0147366
0.0144116
0.0140842
0.0137547
0.0134227
0.0130884
0.0127517
0.0124127
0.0120713
0.0117273
0.0113812
0.0110324
0.0106814
0.0103277
0.00997167
0.00961309
0.009252
0.00888853
0.00852236
0.0081538
0.00778252
0.00740872
0.0070323
0.00665316
0.00627148
0.00588703
0.00549996
0.00511018
0.00471761
0.00432233
0.00392419
0.00352325
0.00311951
0.0027129
0.00230347
0.00189118
0.00147596
0.00105781
0.000636744
0.000212735
-0.120885
-0.117124
-0.119522
-0.11523
-0.11177
-0.112083
-0.109203
-0.113904
-0.121698
-0.124359
-0.12658
-0.121366
-0.114875
-0.124021
-0.129142
-0.112779
-0.0868947
-0.0525869
-0.0294356
-0.0306292
-0.0334287
-0.0777991
-0.150879
-0.17941
-0.134175
-0.0602851
-0.0272643
-0.0333538
-0.071313
-0.101132
-0.105513
-0.0746527
-0.0168583
0.0284298
0.0457646
0.0418441
0.029975
0.0163151
0.00599554
-0.00227059
-0.0151326
-0.0292323
-0.0319896
-0.0205896
-0.00555755
0.006048
0.0126883
0.0159413
0.0173453
0.0178085
0.0178116
0.0176043
0.0173117
0.0169913
0.0166659
0.0163423
0.016021
0.015701
0.0153808
0.0150596
0.0147366
0.0144116
0.0140842
0.0137547
0.0134227
0.0130884
0.0127517
0.0124127
0.0120713
0.0117273
0.0113812
0.0110324
0.0106814
0.0103277
0.00997167
0.00961309
0.00925201
0.00888853
0.00852236
0.0081538
0.00778252
0.00740872
0.0070323
0.00665316
0.00627147
0.00588703
0.00549996
0.00511018
0.00471761
0.00432233
0.00392419
0.00352325
0.00311951
0.0027129
0.00230347
0.00189118
0.00147596
0.00105781
0.000636745
0.000212735
-0.120807
-0.117098
-0.119215
-0.115213
-0.111755
-0.11184
-0.10917
-0.113557
-0.121097
-0.124009
-0.126115
-0.121161
-0.115363
-0.124034
-0.12759
-0.111507
-0.0853378
-0.0503195
-0.0278531
-0.0305672
-0.0323755
-0.0702765
-0.141431
-0.168907
-0.124904
-0.0580264
-0.0308142
-0.0344114
-0.0699417
-0.0987962
-0.10266
-0.0712653
-0.0140161
0.0305732
0.0474258
0.0435523
0.031346
0.0175221
0.00703206
-0.00169414
-0.0146754
-0.0286302
-0.0314183
-0.0203281
-0.00554445
0.00597444
0.0126335
0.0159161
0.0173359
0.0178058
0.0178114
0.0176049
0.0173124
0.0169918
0.0166662
0.0163425
0.0160211
0.0157011
0.0153808
0.0150596
0.0147366
0.0144116
0.0140842
0.0137547
0.0134227
0.0130884
0.0127517
0.0124127
0.0120713
0.0117273
0.0113812
0.0110324
0.0106814
0.0103277
0.00997167
0.00961309
0.00925201
0.00888852
0.00852236
0.0081538
0.00778252
0.00740872
0.0070323
0.00665316
0.00627147
0.00588703
0.00549996
0.00511018
0.00471761
0.00432233
0.00392419
0.00352325
0.00311951
0.0027129
0.00230347
0.00189118
0.00147596
0.00105781
0.000636745
0.000212735
-0.120725
-0.117229
-0.119001
-0.115204
-0.111874
-0.111754
-0.109366
-0.113596
-0.120787
-0.123809
-0.125857
-0.120989
-0.11586
-0.124029
-0.126429
-0.110474
-0.0840858
-0.0485361
-0.0265218
-0.0300153
-0.0318522
-0.0660608
-0.135787
-0.161912
-0.11846
-0.0557799
-0.0322691
-0.0348382
-0.0688789
-0.0968249
-0.100442
-0.0687725
-0.0119969
0.032028
0.048573
0.0446054
0.032032
0.0181131
0.00741752
-0.00156076
-0.0145018
-0.0282301
-0.0309621
-0.0201224
-0.00551969
0.00591375
0.0125809
0.0158875
0.0173224
0.0177997
0.0178089
0.0176041
0.0173122
0.016992
0.0166664
0.0163426
0.0160212
0.0157011
0.0153808
0.0150596
0.0147366
0.0144116
0.0140842
0.0137547
0.0134227
0.0130884
0.0127517
0.0124127
0.0120713
0.0117273
0.0113812
0.0110324
0.0106814
0.0103277
0.00997167
0.00961309
0.00925201
0.00888852
0.00852236
0.0081538
0.00778252
0.00740872
0.0070323
0.00665316
0.00627147
0.00588703
0.00549996
0.00511018
0.00471761
0.00432233
0.00392419
0.00352325
0.00311951
0.0027129
0.00230347
0.00189118
0.00147596
0.00105781
0.000636745
0.000212736
-0.120663
-0.117428
-0.118914
-0.115191
-0.112048
-0.111769
-0.1096
-0.113814
-0.12072
-0.123753
-0.125776
-0.120958
-0.116208
-0.124087
-0.125841
-0.109884
-0.0834478
-0.0476374
-0.0259313
-0.0296528
-0.0324709
-0.0652668
-0.134266
-0.159048
-0.1154
-0.0540456
-0.0325907
-0.035289
-0.0687819
-0.0958882
-0.099283
-0.0673817
-0.0108877
0.0327921
0.0491443
0.0449843
0.0320655
0.0180149
0.00728706
-0.00173647
-0.0145746
-0.0280875
-0.0307205
-0.0199692
-0.00547788
0.0058992
0.0125603
0.0158758
0.0173168
0.0177971
0.0178077
0.0176036
0.0173121
0.0169919
0.0166664
0.0163426
0.0160212
0.0157011
0.0153809
0.0150596
0.0147366
0.0144116
0.0140842
0.0137547
0.0134227
0.0130884
0.0127517
0.0124127
0.0120713
0.0117273
0.0113812
0.0110324
0.0106814
0.0103277
0.00997167
0.00961309
0.00925201
0.00888852
0.00852236
0.0081538
0.00778252
0.00740872
0.0070323
0.00665317
0.00627147
0.00588703
0.00549996
0.00511018
0.00471761
0.00432233
0.00392419
0.00352325
0.00311951
0.0027129
0.00230347
0.00189118
0.00147596
0.00105781
0.000636745
0.000212736
-0.126941
-0.128994
-0.132146
-0.131633
-0.132284
-0.136684
-0.139102
-0.146271
-0.147856
-0.13616
-0.129476
-0.119647
-0.113581
-0.124204
-0.136665
-0.161075
-0.21119
-0.167364
-0.0130663
0.100546
0.111906
0.0637715
0.0103947
-0.0217142
-0.0287204
-0.0428274
-0.0886025
-0.136055
-0.13025
-0.0828716
-0.0403899
-0.0166369
-0.00682089
-0.0029482
-0.00306645
-0.00825284
-0.0182444
-0.0309932
-0.0387613
-0.0362592
-0.0224542
-0.00630545
0.00599794
0.0128246
0.0158859
0.017065
0.0174604
0.0175654
0.0175713
0.0175284
0.0174371
0.0172925
0.0170971
0.0168602
0.0165929
0.0163049
0.0160036
0.0156938
0.0153784
0.0150591
0.0147368
0.014412
0.0140846
0.013755
0.0134229
0.0130886
0.0127518
0.0124127
0.0120713
0.0117273
0.0113811
0.0110323
0.0106813
0.0103277
0.00997172
0.00961315
0.0092521
0.00888856
0.00852236
0.00815376
0.00778246
0.00740869
0.00703227
0.00665317
0.00627151
0.00588704
0.00549996
0.00511017
0.0047176
0.00432232
0.00392419
0.00352323
0.00311949
0.00271289
0.00230345
0.00189114
0.00147591
0.00105778
0.000636717
0.000212733
-0.127085
-0.129133
-0.132163
-0.131506
-0.132198
-0.136595
-0.139051
-0.146298
-0.14826
-0.136875
-0.130208
-0.119766
-0.113737
-0.124105
-0.136844
-0.162674
-0.21539
-0.173262
-0.018328
0.097893
0.110483
0.062783
0.00957476
-0.0222134
-0.028491
-0.0421484
-0.0889735
-0.137417
-0.131831
-0.0833083
-0.0402777
-0.0165054
-0.00671641
-0.0029014
-0.00296997
-0.00808249
-0.0181025
-0.0310251
-0.0389507
-0.0365252
-0.0226497
-0.00637479
0.00598984
0.0128357
0.0158935
0.0170693
0.0174634
0.0175682
0.0175729
0.0175294
0.0174379
0.0172931
0.0170976
0.0168605
0.016593
0.016305
0.0160037
0.0156939
0.0153784
0.0150591
0.0147368
0.014412
0.0140846
0.013755
0.0134229
0.0130886
0.0127518
0.0124127
0.0120713
0.0117273
0.0113811
0.0110323
0.0106813
0.0103277
0.00997172
0.00961315
0.00925209
0.00888856
0.00852235
0.00815376
0.00778246
0.00740868
0.00703227
0.00665317
0.00627151
0.00588704
0.00549996
0.00511017
0.0047176
0.00432232
0.00392419
0.00352323
0.00311949
0.00271289
0.00230345
0.00189114
0.00147591
0.00105778
0.000636717
0.000212733
-0.127279
-0.129461
-0.13236
-0.131554
-0.132087
-0.136495
-0.138983
-0.146804
-0.149528
-0.138571
-0.13183
-0.120384
-0.113708
-0.125274
-0.140068
-0.166021
-0.221931
-0.181994
-0.0270493
0.0919862
0.10695
0.0601882
0.00747201
-0.0237128
-0.0291151
-0.0424717
-0.090607
-0.140238
-0.134201
-0.0838879
-0.0399524
-0.0160814
-0.00646774
-0.00276412
-0.00278135
-0.00789936
-0.0180771
-0.0312098
-0.0393888
-0.0370261
-0.0229627
-0.00647122
0.00599968
0.0128625
0.0159061
0.0170738
0.0174662
0.0175709
0.0175758
0.0175321
0.0174403
0.0172949
0.0170988
0.0168612
0.0165935
0.0163053
0.0160038
0.0156939
0.0153784
0.0150592
0.0147368
0.014412
0.0140846
0.013755
0.0134229
0.0130886
0.0127518
0.0124127
0.0120713
0.0117273
0.0113811
0.0110323
0.0106813
0.0103277
0.00997172
0.00961316
0.00925209
0.00888856
0.00852235
0.00815376
0.00778246
0.00740868
0.00703227
0.00665317
0.00627151
0.00588703
0.00549996
0.00511017
0.0047176
0.00432232
0.00392419
0.00352323
0.00311949
0.00271289
0.00230345
0.00189114
0.00147591
0.00105778
0.000636717
0.000212733
-0.127536
-0.129991
-0.132692
-0.131751
-0.131964
-0.136431
-0.138933
-0.147752
-0.151131
-0.141107
-0.134048
-0.121896
-0.113131
-0.127435
-0.146226
-0.16994
-0.227853
-0.191794
-0.0367679
0.0832032
0.100849
0.0556455
0.00370038
-0.0265991
-0.0308802
-0.0438929
-0.0936125
-0.144115
-0.13745
-0.084665
-0.0394342
-0.0154188
-0.00609543
-0.00255095
-0.00251519
-0.00768617
-0.0181506
-0.0315024
-0.0400424
-0.0377666
-0.0234116
-0.00665946
0.00597194
0.012858
0.0158909
0.0170601
0.0174607
0.0175717
0.0175797
0.0175367
0.0174443
0.0172978
0.0171007
0.0168624
0.0165941
0.0163056
0.016004
0.015694
0.0153785
0.0150592
0.0147368
0.014412
0.0140846
0.0137549
0.0134229
0.0130886
0.0127518
0.0124127
0.0120713
0.0117273
0.0113811
0.0110323
0.0106813
0.0103277
0.00997172
0.00961316
0.00925209
0.00888856
0.00852235
0.00815376
0.00778246
0.00740868
0.00703228
0.00665317
0.00627151
0.00588703
0.00549996
0.00511017
0.0047176
0.00432232
0.00392419
0.00352323
0.00311949
0.00271289
0.00230345
0.00189114
0.00147591
0.00105778
0.000636718
0.000212733
-0.127827
-0.130602
-0.133091
-0.132033
-0.131877
-0.136441
-0.138972
-0.149125
-0.153071
-0.143855
-0.136899
-0.124234
-0.110884
-0.130342
-0.15418
-0.173568
-0.232159
-0.200804
-0.0455299
0.0722359