/*--------------------------------*- C++ -*----------------------------------*\
| =========                 |                                                 |
| \\      /  F ield         | OpenFOAM: The Open Source CFD Toolbox           |
|  \\    /   O peration     | Version:  2.4.0                                 |
|   \\  /    A nd           | Web:      www.OpenFOAM.org                      |
|    \\/     M anipulation  |                                                 |
\*---------------------------------------------------------------------------*/
FoamFile
{
    version     2.0;
    format      ascii;
    class       volVectorField;
    location    "39";
    object      U;
}
// * * * * * * * * * * * * * * * * * * * * * * * * * * * * * * * * * * * * * //

dimensions      [0 1 -1 0 0 0 0];

internalField   nonuniform List<vector> 
4400
(
(0.0949666 -0.000288094 0)
(0.0859951 0.00175171 0)
(0.0866606 -0.00146725 0)
(0.109126 -0.00187899 0)
(0.10367 0.00157144 0)
(0.103878 -0.000164792 0)
(0.0938911 0.000367229 0)
(0.100625 0.000340975 0)
(0.0887793 5.75541e-05 0)
(0.102896 -0.00051098 0)
(0.10218 -0.00106333 0)
(0.106408 0.00137345 0)
(0.0937004 -7.33695e-05 0)
(0.106373 -0.000936849 0)
(0.0971817 0.00108525 0)
(0.103342 -0.000682435 0)
(0.107472 -0.00102613 0)
(0.108544 0.000960961 0)
(0.113728 -2.04651e-05 0)
(0.0975127 -0.00443176 0)
(0.266835 -0.000655859 0)
(0.26606 0.00615718 0)
(0.268795 -0.00565461 0)
(0.292498 -0.00539229 0)
(0.277035 0.00465404 0)
(0.291691 -0.000365301 0)
(0.260638 0.000954789 0)
(0.289065 0.000800655 0)
(0.258586 7.45341e-05 0)
(0.294783 -0.00186728 0)
(0.275947 -0.00314658 0)
(0.290258 0.00429789 0)
(0.2732 -0.000410721 0)
(0.288484 -0.00294246 0)
(0.274817 0.00323809 0)
(0.289945 -0.00244626 0)
(0.29188 -0.00292642 0)
(0.285117 0.00138256 0)
(0.315208 0.00125608 0)
(0.27956 -0.0120116 0)
(0.415859 -0.000946748 0)
(0.434136 0.0107224 0)
(0.438831 -0.0106402 0)
(0.451313 -0.00764706 0)
(0.435426 0.00758531 0)
(0.459789 -0.000357772 0)
(0.414571 0.00197092 0)
(0.456237 0.00042909 0)
(0.414513 -1.86961e-05 0)
(0.462589 -0.0037007 0)
(0.433712 -0.00462244 0)
(0.45015 0.00718933 0)
(0.443227 -0.00106734 0)
(0.44385 -0.00462044 0)
(0.440876 0.0055243 0)
(0.448435 -0.005586 0)
(0.459504 -0.00346937 0)
(0.437661 0.00128676 0)
(0.483048 -0.00077424 0)
(0.449877 -0.0134666 0)
(0.548261 -0.00087683 0)
(0.567233 0.012939 0)
(0.599991 -0.0144882 0)
(0.588211 -0.00870754 0)
(0.579869 0.0100677 0)
(0.607212 -0.000140754 0)
(0.554486 0.00336655 0)
(0.602339 0.00030736 0)
(0.551239 -0.000204296 0)
(0.604936 -0.00563946 0)
(0.578476 -0.00549036 0)
(0.579436 0.00879671 0)
(0.602415 -0.000873531 0)
(0.578213 -0.00584612 0)
(0.58532 0.00754828 0)
(0.592332 -0.00794142 0)
(0.601648 -0.00441491 0)
(0.575243 0.00243985 0)
(0.621305 -0.00454186 0)
(0.603249 -0.0128007 0)
(0.676475 0.00158059 0)
(0.661511 0.0125619 0)
(0.731096 -0.020988 0)
(0.705993 -0.007828 0)
(0.700916 0.011494 0)
(0.735052 0.000298195 0)
(0.675793 0.0050509 0)
(0.727194 0.000587294 0)
(0.672601 0.000597286 0)
(0.714058 -0.00907192 0)
(0.709557 -0.00480794 0)
(0.680977 0.00966061 0)
(0.729467 -0.00296695 0)
(0.700152 -0.00473544 0)
(0.701294 0.008619 0)
(0.714082 -0.0107326 0)
(0.723655 -0.00442006 0)
(0.693463 0.00455202 0)
(0.73147 -0.0105672 0)
(0.731887 -0.011245 0)
(0.793427 0.00532097 0)
(0.743026 0.0136282 0)
(0.82309 -0.0310007 0)
(0.801175 -0.00646085 0)
(0.794268 0.0116284 0)
(0.83692 8.37438e-05 0)
(0.778045 0.00714111 0)
(0.825 0.00030633 0)
(0.781607 0.0034299 0)
(0.798127 -0.0130328 0)
(0.816399 -0.00428656 0)
(0.769664 0.0122409 0)
(0.820532 -0.00768334 0)
(0.799738 -0.00334266 0)
(0.794811 0.0101759 0)
(0.807811 -0.0143317 0)
(0.820303 -0.00487575 0)
(0.792489 0.00803684 0)
(0.81951 -0.0165204 0)
(0.830828 -0.0106834 0)
(0.885373 0.00837836 0)
(0.823011 0.0173787 0)
(0.891845 -0.0411683 0)
(0.876613 -0.00474506 0)
(0.865378 0.0110688 0)
(0.910039 -0.00136876 0)
(0.86097 0.00963011 0)
(0.896951 -0.000808535 0)
(0.87029 0.0070077 0)
(0.868222 -0.0160213 0)
(0.896666 -0.00461473 0)
(0.847861 0.0165004 0)
(0.889303 -0.0128193 0)
(0.876211 -0.00218015 0)
(0.868733 0.0120777 0)
(0.879451 -0.0179791 0)
(0.891777 -0.00565004 0)
(0.869716 0.01139 0)
(0.888751 -0.0214166 0)
(0.903277 -0.0110121 0)
(0.948786 0.0102099 0)
(0.894816 0.0221932 0)
(0.94425 -0.0494583 0)
(0.935156 -0.00283518 0)
(0.92077 0.0106195 0)
(0.9587 -0.00358531 0)
(0.923167 0.0119669 0)
(0.947782 -0.00226676 0)
(0.934182 0.0101568 0)
(0.924456 -0.0180293 0)
(0.95253 -0.00554645 0)
(0.911244 0.021333 0)
(0.941424 -0.0174075 0)
(0.933001 -0.00106464 0)
(0.925308 0.0139479 0)
(0.933385 -0.0211365 0)
(0.942676 -0.00610968 0)
(0.926491 0.0136859 0)
(0.939923 -0.024641 0)
(0.952381 -0.0118618 0)
(0.985764 0.0110933 0)
(0.951856 0.0263661 0)
(0.978902 -0.0552409 0)
(0.975681 -0.000864468 0)
(0.961284 0.0104467 0)
(0.987421 -0.00557592 0)
(0.964782 0.013825 0)
(0.979877 -0.00359198 0)
(0.973967 0.0124222 0)
(0.964268 -0.0193244 0)
(0.985344 -0.006651 0)
(0.956531 0.025635 0)
(0.976159 -0.0210994 0)
(0.970137 6.30429e-05 0)
(0.965052 0.0154473 0)
(0.969758 -0.023551 0)
(0.975453 -0.00582077 0)
(0.964576 0.0146408 0)
(0.973759 -0.0261285 0)
(0.980955 -0.0126785 0)
(0.999072 0.0113315 0)
(0.99084 0.0289034 0)
(0.99436 -0.0579092 0)
(0.996961 0.000999126 0)
(0.985242 0.0104297 0)
(0.997703 -0.00664738 0)
(0.986818 0.0149664 0)
(0.993952 -0.00439298 0)
(0.991553 0.0137113 0)
(0.986651 -0.0199818 0)
(0.996355 -0.00747044 0)
(0.982827 0.028552 0)
(0.992489 -0.0235078 0)
(0.987052 0.00119856 0)
(0.987595 0.0161323 0)
(0.987214 -0.0249296 0)
(0.990479 -0.00496254 0)
(0.984238 0.0141727 0)
(0.989962 -0.0260217 0)
(0.990549 -0.0131121 0)
(0.99094 0.0111535 0)
(1.01019 0.0291872 0)
(0.989929 -0.0570734 0)
(0.998251 0.00219415 0)
(0.991066 0.0102991 0)
(0.989103 -0.00650833 0)
(0.990054 0.0151707 0)
(0.989651 -0.00435171 0)
(0.98873 0.0139773 0)
(0.991103 -0.0200257 0)
(0.986859 -0.00765471 0)
(0.99047 0.0295094 0)
(0.990007 -0.0242923 0)
(0.984225 0.00227179 0)
(0.992497 0.0156276 0)
(0.985051 -0.0250312 0)
(0.987572 -0.00378378 0)
(0.985349 0.012548 0)
(0.987579 -0.0245824 0)
(0.981786 -0.0128141 0)
(0.963139 0.0106516 0)
(1.0091 0.0271291 0)
(0.964795 -0.052774 0)
(0.979213 0.00236405 0)
(0.97708 0.00994381 0)
(0.960689 -0.00523743 0)
(0.974848 0.0143719 0)
(0.965722 -0.00343385 0)
(0.967408 0.0130927 0)
(0.976712 -0.0194495 0)
(0.958301 -0.00712639 0)
(0.979978 0.0282161 0)
(0.968385 -0.0232016 0)
(0.96278 0.00297196 0)
(0.979115 0.0140883 0)
(0.963307 -0.0237086 0)
(0.966455 -0.00263708 0)
(0.967849 0.0101421 0)
(0.965594 -0.022001 0)
(0.95524 -0.0120101 0)
(0.917815 0.00968531 0)
(0.986546 0.0232642 0)
(0.917654 -0.045549 0)
(0.940623 0.00135736 0)
(0.940892 0.00969703 0)
(0.912665 -0.00325106 0)
(0.941019 0.0127216 0)
(0.92118 -0.00181201 0)
(0.93023 0.01094 0)
(0.942202 -0.0182339 0)
(0.912807 -0.00614432 0)
(0.951498 0.024867 0)
(0.927251 -0.0202912 0)
(0.92382 0.00301365 0)
(0.946735 0.0118636 0)
(0.921893 -0.0209819 0)
(0.926966 -0.00194218 0)
(0.931731 0.00747608 0)
(0.923237 -0.0185056 0)
(0.912174 -0.011208 0)
(0.858349 0.00794725 0)
(0.939457 0.0186074 0)
(0.847703 -0.0364655 0)
(0.883999 -0.000665578 0)
(0.879993 0.00985452 0)
(0.847995 -0.00131091 0)
(0.88771 0.0105246 0)
(0.857906 -3.57142e-05 0)
(0.879932 0.00755022 0)
(0.886084 -0.0161686 0)
(0.852877 -0.00525546 0)
(0.903941 0.0202322 0)
(0.865856 -0.0159578 0)
(0.867866 0.0023467 0)
(0.894231 0.00926819 0)
(0.860284 -0.0171318 0)
(0.869597 -0.00178329 0)
(0.876495 0.00513912 0)
(0.860845 -0.0145722 0)
(0.853711 -0.0106518 0)
(0.787746 0.00508694 0)
(0.861376 0.0147536 0)
(0.757265 -0.0268959 0)
(0.809535 -0.00332855 0)
(0.795359 0.010196 0)
(0.771402 -0.000171116 0)
(0.813769 0.00815414 0)
(0.781077 0.00102998 0)
(0.814556 0.00367293 0)
(0.806249 -0.0130375 0)
(0.779117 -0.00494933 0)
(0.832971 0.0154939 0)
(0.782837 -0.010782 0)
(0.794534 0.00085668 0)
(0.819286 0.00696111 0)
(0.778274 -0.0126494 0)
(0.795229 -0.00253497 0)
(0.800845 0.00347679 0)
(0.779356 -0.0107198 0)
(0.779145 -0.010428 0)
(0.702339 0.00150128 0)
(0.746677 0.0132007 0)
(0.653932 -0.018699 0)
(0.715505 -0.00621636 0)
(0.692307 0.0100495 0)
(0.68208 -2.97922e-05 0)
(0.717654 0.00589772 0)
(0.690953 0.000979101 0)
(0.723613 0.000926477 0)
(0.701869 -0.00923546 0)
(0.687568 -0.00522728 0)
(0.731882 0.0119578 0)
(0.678869 -0.0057982 0)
(0.702471 -0.00133332 0)
(0.718963 0.00558661 0)
(0.677453 -0.00856002 0)
(0.702956 -0.00406482 0)
(0.701273 0.00280682 0)
(0.678644 -0.00744536 0)
(0.68495 -0.0102636 0)
(0.589406 -0.000919475 0)
(0.604337 0.0130042 0)
(0.546093 -0.0133875 0)
(0.59619 -0.0081866 0)
(0.570475 0.00941769 0)
(0.571088 -0.000297887 0)
(0.596606 0.00393743 0)
(0.577686 0.000806315 0)
(0.600488 0.0001233 0)
(0.576467 -0.00589272 0)
(0.571738 -0.00526417 0)
(0.600888 0.00974424 0)
(0.559145 -0.00251975 0)
(0.588419 -0.00337414 0)
(0.591982 0.0051745 0)
(0.560415 -0.00574636 0)
(0.586659 -0.00514547 0)
(0.574176 0.00327579 0)
(0.559727 -0.00531991 0)
(0.56551 -0.00919012 0)
(0.444935 -0.00120271 0)
(0.454404 0.010739 0)
(0.424527 -0.00973702 0)
(0.445197 -0.00727107 0)
(0.427777 0.00803006 0)
(0.434074 -0.000555869 0)
(0.450156 0.00258535 0)
(0.438853 0.000781505 0)
(0.453073 2.15302e-05 0)
(0.433412 -0.00346114 0)
(0.431559 -0.00451571 0)
(0.448798 0.00743267 0)
(0.425483 -0.00117183 0)
(0.44736 -0.0038541 0)
(0.442465 0.00475102 0)
(0.426827 -0.00409251 0)
(0.440581 -0.00446792 0)
(0.426566 0.00342086 0)
(0.422864 -0.0040282 0)
(0.418745 -0.0065952 0)
(0.2789 -0.00101091 0)
(0.294407 0.00646349 0)
(0.276345 -0.00523789 0)
(0.271167 -0.00494538 0)
(0.267764 0.00508444 0)
(0.275032 -0.000688488 0)
(0.283918 0.00128194 0)
(0.280094 0.000759018 0)
(0.287232 0.000243376 0)
(0.274753 -0.00171186 0)
(0.270326 -0.00322848 0)
(0.280445 0.00442575 0)
(0.273865 -0.000395102 0)
(0.280425 -0.0028509 0)
(0.278007 0.00332787 0)
(0.272635 -0.00235996 0)
(0.271439 -0.00284052 0)
(0.266255 0.00244631 0)
(0.264605 -0.00222665 0)
(0.253979 -0.00365996 0)
(0.0950128 -0.000387076 0)
(0.110463 0.00195286 0)
(0.105283 -0.00153919 0)
(0.0887673 -0.00179633 0)
(0.0911867 0.00156806 0)
(0.0969179 -0.000352732 0)
(0.0994853 0.000410883 0)
(0.101078 0.000356088 0)
(0.104913 0.00010756 0)
(0.100132 -0.000510112 0)
(0.091548 -0.00108747 0)
(0.096524 0.00134422 0)
(0.100228 -5.1729e-05 0)
(0.0963236 -0.000972073 0)
(0.0981833 0.00111989 0)
(0.0981848 -0.000716812 0)
(0.090651 -0.000919056 0)
(0.0910103 0.000868925 0)
(0.0911892 -0.00061042 0)
(0.0817168 -0.00102306 0)
(0.185367 0.00612455 0)
(0.121538 -0.0172988 0)
(0.272958 -0.0422208 0)
(0.143146 0.00575962 0)
(0.205399 0.00978231 0)
(0.286935 0.0175353 0)
(0.374056 0.0373465 0)
(0.351747 -0.00633943 0)
(0.568102 -0.104346 0)
(0.602548 -0.07967 0)
(0.57411 -0.0998362 0)
(0.730642 -0.145868 0)
(0.60882 0.00661139 0)
(0.679324 -0.0288976 0)
(0.900993 -0.169325 0)
(0.719519 -0.0442667 0)
(0.798072 -0.0924236 0)
(0.905301 -0.325098 0)
(0.717039 -0.347593 0)
(0.472773 -0.325038 0)
(0.362315 -0.405029 0)
(0.440485 -0.287371 0)
(0.52843 -0.104209 0)
(0.465722 0.041655 0)
(0.633373 0.238025 0)
(0.710235 0.382901 0)
(0.702181 0.308131 0)
(0.764215 0.0692137 0)
(0.828567 -0.086602 0)
(0.79755 -0.096224 0)
(0.718272 -0.0197983 0)
(0.692806 0.116924 0)
(0.643567 0.213037 0)
(0.557814 0.208444 0)
(0.48604 0.159198 0)
(0.442452 0.122539 0)
(0.422195 0.0970251 0)
(0.427236 0.0636669 0)
(0.447191 0.00409353 0)
(0.492475 -0.0881004 0)
(0.543972 -0.155049 0)
(0.572434 -0.14633 0)
(0.572166 -0.0926919 0)
(0.547061 -0.0452066 0)
(0.511858 -0.019968 0)
(0.480293 -0.00910031 0)
(0.456434 -0.00403534 0)
(0.438828 -0.00145107 0)
(0.4255 -0.000410956 0)
(0.41528 -0.000309261 0)
(0.407601 -0.000576398 0)
(0.402098 -0.000826023 0)
(0.398381 -0.000908041 0)
(0.39602 -0.00083253 0)
(0.394601 -0.000670101 0)
(0.393793 -0.000488325 0)
(0.393351 -0.000328686 0)
(0.393122 -0.000207053 0)
(0.393003 -0.000123266 0)
(0.39295 -6.98102e-05 0)
(0.392918 -3.78079e-05 0)
(0.392911 -1.96444e-05 0)
(0.392899 -9.82649e-06 0)
(0.392905 -4.72259e-06 0)
(0.392894 -2.19646e-06 0)
(0.392904 -9.739e-07 0)
(0.392892 -4.22775e-07 0)
(0.392905 -1.70364e-07 0)
(0.392892 -6.93483e-08 0)
(0.392904 -2.92245e-08 0)
(0.392893 -6.15267e-09 0)
(0.392903 -1.44208e-08 0)
(0.392895 7.3405e-09 0)
(0.3929 -1.08119e-08 0)
(0.392898 1.29218e-08 0)
(0.392897 -7.97472e-09 0)
(0.3929 1.26602e-08 0)
(0.392896 -2.70255e-09 0)
(0.3929 2.53083e-10 0)
(0.392897 3.00056e-09 0)
(0.392899 -5.36295e-09 0)
(0.392898 3.54316e-09 0)
(0.392897 -2.29858e-09 0)
(0.392899 7.43515e-10 0)
(0.392898 -1.02401e-09 0)
(0.392898 2.24786e-09 0)
(0.392898 -2.14362e-09 0)
(0.392898 1.02184e-09 0)
(0.392899 1.09749e-09 0)
(0.392898 -2.50089e-09 0)
(0.392898 -2.26199e-09 0)
(0.392898 2.93298e-09 0)
(0.392898 -3.60745e-09 0)
(0.392898 1.80054e-09 0)
(0.392898 -2.00081e-09 0)
(0.392898 -4.02707e-09 0)
(0.392898 1.49111e-09 0)
(0.392898 -1.82107e-09 0)
(0.392898 -3.45668e-09 0)
(0.392898 -5.33915e-10 0)
(0.349969 0.00536913 0)
(0.310606 -0.016743 0)
(0.394361 -0.0448047 0)
(0.318812 0.00898659 0)
(0.321471 0.000555423 0)
(0.36919 0.00363965 0)
(0.488406 0.0195729 0)
(0.510982 -0.0210648 0)
(0.668493 -0.117135 0)
(0.70759 -0.0970831 0)
(0.691944 -0.101747 0)
(0.801151 -0.139309 0)
(0.725388 -0.0104265 0)
(0.786838 -0.0472999 0)
(0.941181 -0.161096 0)
(0.797488 -0.0461978 0)
(0.855729 -0.100054 0)
(0.910924 -0.306277 0)
(0.691297 -0.311597 0)
(0.436565 -0.300831 0)
(0.315973 -0.401072 0)
(0.380458 -0.297602 0)
(0.493734 -0.107796 0)
(0.423724 0.0353644 0)
(0.565878 0.223212 0)
(0.658294 0.369808 0)
(0.677773 0.291057 0)
(0.747529 0.0626563 0)
(0.805928 -0.0836028 0)
(0.772451 -0.087918 0)
(0.691346 -0.0101918 0)
(0.669899 0.123469 0)
(0.631885 0.220913 0)
(0.55764 0.21907 0)
(0.496469 0.168392 0)
(0.458937 0.127764 0)
(0.441437 0.0980517 0)
(0.450893 0.0620523 0)
(0.47304 5.50105e-05 0)
(0.52311 -0.0956516 0)
(0.573652 -0.162211 0)
(0.596045 -0.148639 0)
(0.589437 -0.0900543 0)
(0.558838 -0.0401597 0)
(0.519525 -0.0147327 0)
(0.485106 -0.00475128 0)
(0.459296 -0.000767006 0)
(0.440482 0.000952955 0)
(0.426527 0.00138532 0)
(0.416026 0.00103718 0)
(0.408206 0.000406565 0)
(0.402597 -0.000141628 0)
(0.398774 -0.000457403 0)
(0.396309 -0.000551957 0)
(0.3948 -0.000504312 0)
(0.393922 -0.000394882 0)
(0.393429 -0.000278178 0)
(0.393168 -0.000180752 0)
(0.393028 -0.000110027 0)
(0.392962 -6.33264e-05 0)
(0.392924 -3.47387e-05 0)
(0.392914 -1.8203e-05 0)
(0.392899 -9.19007e-06 0)
(0.392904 -4.42528e-06 0)
(0.392893 -2.0847e-06 0)
(0.392903 -9.09916e-07 0)
(0.392891 -4.07364e-07 0)
(0.392904 -1.60698e-07 0)
(0.39289 -6.44114e-08 0)
(0.392903 -3.61721e-08 0)
(0.392891 6.77942e-09 0)
(0.392901 -3.33675e-08 0)
(0.392894 2.65407e-08 0)
(0.392899 -3.54603e-08 0)
(0.392897 3.43067e-08 0)
(0.392896 -2.9937e-08 0)
(0.392898 2.57755e-08 0)
(0.392895 -1.35413e-08 0)
(0.392899 1.81269e-10 0)
(0.392896 7.66853e-09 0)
(0.392897 -1.72455e-08 0)
(0.392897 1.53458e-08 0)
(0.392896 -1.58137e-08 0)
(0.392898 8.95597e-09 0)
(0.392896 1.9793e-09 0)
(0.392897 -2.93375e-09 0)
(0.392897 3.05487e-09 0)
(0.392896 -3.82149e-09 0)
(0.392897 1.91161e-09 0)
(0.392897 1.48953e-09 0)
(0.392897 1.00863e-10 0)
(0.392897 1.95611e-09 0)
(0.392897 -4.55462e-10 0)
(0.392897 -3.24538e-09 0)
(0.392897 -1.08439e-09 0)
(0.392897 -1.67142e-09 0)
(0.392897 -2.59031e-09 0)
(0.392897 -1.63119e-09 0)
(0.392897 -5.84066e-09 0)
(0.392897 -1.7617e-09 0)
(0.489313 0.000277607 0)
(0.492089 -0.0166275 0)
(0.516056 -0.0452721 0)
(0.487416 0.00862212 0)
(0.495367 -4.402e-05 0)
(0.497343 -0.00430441 0)
(0.610604 -0.00315756 0)
(0.654652 -0.0377018 0)
(0.765009 -0.122938 0)
(0.799427 -0.114441 0)
(0.786756 -0.104359 0)
(0.859304 -0.130651 0)
(0.812844 -0.0289153 0)
(0.864389 -0.0624643 0)
(0.969593 -0.149816 0)
(0.851687 -0.0468706 0)
(0.890495 -0.103745 0)
(0.903581 -0.281796 0)
(0.657436 -0.271709 0)
(0.397965 -0.275098 0)
(0.26511 -0.395668 0)
(0.326058 -0.309044 0)
(0.4501 -0.11496 0)
(0.391279 0.030946 0)
(0.498465 0.209774 0)
(0.597041 0.353429 0)
(0.641992 0.270294 0)
(0.71828 0.0552125 0)
(0.772455 -0.0798639 0)
(0.737896 -0.0792137 0)
(0.657367 -0.000989936 0)
(0.640154 0.128897 0)
(0.613756 0.226752 0)
(0.552207 0.227639 0)
(0.503379 0.176157 0)
(0.472877 0.132291 0)
(0.459453 0.0984726 0)
(0.473361 0.0599293 0)
(0.497203 -0.00460116 0)
(0.552881 -0.10362 0)
(0.600896 -0.168731 0)
(0.615625 -0.149798 0)
(0.602321 -0.0864665 0)
(0.566572 -0.0344879 0)
(0.523786 -0.00905472 0)
(0.487212 -8.85116e-05 0)
(0.46004 0.0027056 0)
(0.440466 0.00346559 0)
(0.426248 0.00322579 0)
(0.415783 0.00239417 0)
(0.408105 0.00138978 0)
(0.40262 0.000544011 0)
(0.398866 -1.98623e-06 0)
(0.396418 -0.000264432 0)
(0.394896 -0.000331388 0)
(0.393994 -0.000295415 0)
(0.393477 -0.000223205 0)
(0.393196 -0.00015144 0)
(0.393043 -9.4903e-05 0)
(0.392969 -5.57301e-05 0)
(0.392926 -3.10457e-05 0)
(0.392913 -1.64264e-05 0)
(0.392896 -8.38067e-06 0)
(0.392901 -4.04181e-06 0)
(0.392889 -1.93176e-06 0)
(0.392899 -8.26763e-07 0)
(0.392886 -3.83275e-07 0)
(0.392899 -1.47353e-07 0)
(0.392886 -5.77932e-08 0)
(0.392899 -4.24299e-08 0)
(0.392887 2.17475e-08 0)
(0.392897 -5.11958e-08 0)
(0.392889 4.67509e-08 0)
(0.392894 -6.10464e-08 0)
(0.392892 5.5856e-08 0)
(0.392892 -5.29575e-08 0)
(0.392894 3.70501e-08 0)
(0.392891 -2.51311e-08 0)
(0.392894 6.28481e-10 0)
(0.392891 1.2949e-08 0)
(0.392893 -2.96399e-08 0)
(0.392893 2.73511e-08 0)
(0.392892 -3.02713e-08 0)
(0.392893 1.9316e-08 0)
(0.392892 2.83914e-09 0)
(0.392893 -7.83893e-09 0)
(0.392893 9.35615e-09 0)
(0.392892 -9.29994e-09 0)
(0.392893 1.26616e-09 0)
(0.392892 8.49312e-09 0)
(0.392892 -2.41586e-11 0)
(0.392893 2.62667e-09 0)
(0.392892 2.37685e-09 0)
(0.392893 -8.73978e-09 0)
(0.392893 6.27117e-10 0)
(0.392893 1.23242e-09 0)
(0.392893 -5.87205e-09 0)
(0.392893 -3.54809e-09 0)
(0.392893 -6.46026e-09 0)
(0.392893 -3.348e-09 0)
(0.605153 -0.00410413 0)
(0.641616 -0.0177175 0)
(0.63466 -0.0412181 0)
(0.618386 0.00369505 0)
(0.649323 -0.0029658 0)
(0.635266 -0.00604409 0)
(0.734669 -0.0230064 0)
(0.776 -0.0532585 0)
(0.848113 -0.12257 0)
(0.876636 -0.129079 0)
(0.862234 -0.106909 0)
(0.905335 -0.11973 0)
(0.876129 -0.0457558 0)
(0.916727 -0.0754006 0)
(0.984053 -0.136783 0)
(0.883936 -0.0455124 0)
(0.906524 -0.104011 0)
(0.883861 -0.252973 0)
(0.616605 -0.228605 0)
(0.357329 -0.247407 0)
(0.212242 -0.389548 0)
(0.277499 -0.320182 0)
(0.390984 -0.125187 0)
(0.361211 0.0283064 0)
(0.432037 0.199492 0)
(0.528535 0.334705 0)
(0.594469 0.246858 0)
(0.67677 0.0470962 0)
(0.729023 -0.0757915 0)
(0.694356 -0.070444 0)
(0.616721 0.00770287 0)
(0.604466 0.133015 0)
(0.589831 0.23037 0)
(0.541706 0.233896 0)
(0.506751 0.182306 0)
(0.483929 0.135945 0)
(0.476319 0.0981355 0)
(0.494179 0.0573771 0)
(0.519623 -0.00992782 0)
(0.581649 -0.111939 0)
(0.62487 -0.174306 0)
(0.630118 -0.149616 0)
(0.609854 -0.0819391 0)
(0.569536 -0.0283049 0)
(0.524133 -0.00302488 0)
(0.486262 0.00479022 0)
(0.458443 0.00630008 0)
(0.438656 0.00602804 0)
(0.424597 0.00506014 0)
(0.414516 0.00371749 0)
(0.407272 0.0023356 0)
(0.40215 0.00120115 0)
(0.398643 0.000436652 0)
(0.396336 1.56374e-05 0)
(0.394881 -0.00016028 0)
(0.394002 -0.000195133 0)
(0.393488 -0.000166651 0)
(0.393203 -0.00012063 0)
(0.393044 -7.8658e-05 0)
(0.392965 -4.73944e-05 0)
(0.392919 -2.69027e-05 0)
(0.392904 -1.43972e-05 0)
(0.392886 -7.43467e-06 0)
(0.39289 -3.5861e-06 0)
(0.392878 -1.7415e-06 0)
(0.392888 -7.28196e-07 0)
(0.392875 -3.52207e-07 0)
(0.392888 -1.28668e-07 0)
(0.392875 -4.89983e-08 0)
(0.392888 -4.66348e-08 0)
(0.392876 3.58907e-08 0)
(0.392886 -6.83311e-08 0)
(0.392878 6.85545e-08 0)
(0.392883 -8.49903e-08 0)
(0.392881 7.94276e-08 0)
(0.39288 -7.35362e-08 0)
(0.392883 5.2783e-08 0)
(0.392879 -3.36258e-08 0)
(0.392883 2.8492e-09 0)
(0.39288 1.8588e-08 0)
(0.392882 -3.99755e-08 0)
(0.392882 3.94223e-08 0)
(0.392881 -4.13651e-08 0)
(0.392882 2.58453e-08 0)
(0.392881 3.37066e-10 0)
(0.392882 -1.0265e-08 0)
(0.392881 1.37314e-08 0)
(0.392881 -1.1994e-08 0)
(0.392882 -8.00411e-11 0)
(0.392881 1.32918e-08 0)
(0.392881 -4.13943e-09 0)
(0.392882 4.66866e-09 0)
(0.392881 3.15273e-09 0)
(0.392881 -1.1269e-08 0)
(0.392881 2.58901e-09 0)
(0.392881 1.82952e-09 0)
(0.392881 -6.88335e-09 0)
(0.392881 -4.08658e-09 0)
(0.392881 -5.60379e-09 0)
(0.392881 -4.44786e-09 0)
(0.708184 -0.00521653 0)
(0.756272 -0.0227821 0)
(0.739684 -0.0353583 0)
(0.725538 -0.00213067 0)
(0.766455 -0.00909715 0)
(0.749003 -0.00517793 0)
(0.836212 -0.0380975 0)
(0.868915 -0.0674861 0)
(0.91105 -0.118803 0)
(0.933377 -0.140633 0)
(0.913046 -0.110106 0)
(0.934734 -0.107513 0)
(0.91822 -0.0603328 0)
(0.946512 -0.0861749 0)
(0.983593 -0.122355 0)
(0.898235 -0.0420948 0)
(0.90549 -0.101187 0)
(0.85293 -0.220351 0)
(0.570024 -0.183239 0)
(0.315633 -0.21852 0)
(0.160829 -0.383314 0)
(0.230968 -0.329175 0)
(0.313118 -0.137309 0)
(0.324091 0.0261027 0)
(0.365036 0.192606 0)
(0.455559 0.314883 0)
(0.534539 0.222089 0)
(0.624413 0.0385221 0)
(0.676501 -0.0717525 0)
(0.642123 -0.06179 0)
(0.569988 0.0161349 0)
(0.56322 0.135869 0)
(0.560346 0.231882 0)
(0.526338 0.237723 0)
(0.506662 0.186628 0)
(0.491775 0.138501 0)
(0.492145 0.0969665 0)
(0.512709 0.0544889 0)
(0.540476 -0.0160135 0)
(0.609116 -0.120463 0)
(0.644511 -0.178556 0)
(0.638356 -0.147889 0)
(0.611017 -0.076525 0)
(0.566974 -0.0217095 0)
(0.520052 0.00313442 0)
(0.481906 0.00973173 0)
(0.454291 0.00991393 0)
(0.434935 0.00856178 0)
(0.42152 0.00682738 0)
(0.412205 0.00495818 0)
(0.405699 0.00320481 0)
(0.401178 0.00179969 0)
(0.398093 0.000836841 0)
(0.396049 0.000273728 0)
(0.39474 -1.00145e-07 0)
(0.393933 -9.94188e-05 0)
(0.39345 -0.000111516 0)
(0.393176 -8.99288e-05 0)
(0.393019 -6.2116e-05 0)
(0.39294 -3.87276e-05 0)
(0.392892 -2.25086e-05 0)
(0.392876 -1.22059e-05 0)
(0.392858 -6.39423e-06 0)
(0.392861 -3.07897e-06 0)
(0.392849 -1.52553e-06 0)
(0.392859 -6.17206e-07 0)
(0.392846 -3.15222e-07 0)
(0.392859 -1.06955e-07 0)
(0.392846 -3.91097e-08 0)
(0.392859 -5.02599e-08 0)
(0.392847 5.08353e-08 0)
(0.392857 -8.54119e-08 0)
(0.392849 9.06795e-08 0)
(0.392854 -1.09025e-07 0)
(0.392852 1.0277e-07 0)
(0.392852 -9.3694e-08 0)
(0.392854 6.81172e-08 0)
(0.392851 -4.23312e-08 0)
(0.392854 4.026e-09 0)
(0.392851 2.4682e-08 0)
(0.392853 -5.03617e-08 0)
(0.392853 5.13956e-08 0)
(0.392852 -5.19525e-08 0)
(0.392853 3.16555e-08 0)
(0.392852 2.09561e-10 0)
(0.392853 -1.32268e-08 0)
(0.392853 1.81623e-08 0)
(0.392852 -1.48762e-08 0)
(0.392853 -5.20209e-12 0)
(0.392852 1.61925e-08 0)
(0.392852 -6.32175e-09 0)
(0.392853 5.28573e-09 0)
(0.392852 4.45633e-09 0)
(0.392853 -1.3805e-08 0)
(0.392853 4.55627e-09 0)
(0.392852 2.41372e-09 0)
(0.392852 -8.61392e-09 0)
(0.392852 -2.39153e-09 0)
(0.392852 -5.86862e-09 0)
(0.392852 -5.0063e-09 0)
(0.79729 -0.00326869 0)
(0.845614 -0.0286945 0)
(0.824775 -0.0293034 0)
(0.813048 -0.00698545 0)
(0.853659 -0.017307 0)
(0.835896 -0.00440039 0)
(0.912745 -0.0489219 0)
(0.933415 -0.0801274 0)
(0.956191 -0.11307 0)
(0.974411 -0.147862 0)
(0.944358 -0.112077 0)
(0.949767 -0.0948102 0)
(0.94199 -0.0723654 0)
(0.954228 -0.0941388 0)
(0.967921 -0.10702 0)
(0.895213 -0.0374116 0)
(0.88857 -0.0955865 0)
(0.811293 -0.185181 0)
(0.518328 -0.13678 0)
(0.274027 -0.188985 0)
(0.11324 -0.376043 0)
(0.180886 -0.334027 0)
(0.219694 -0.149262 0)
(0.272532 0.0232347 0)
(0.294555 0.18871 0)
(0.381075 0.294725 0)
(0.462048 0.196769 0)
(0.563186 0.0290104 0)
(0.615539 -0.0679965 0)
(0.581379 -0.0535864 0)
(0.517136 0.0237339 0)
(0.517263 0.137242 0)
(0.526029 0.231174 0)
(0.506383 0.238943 0)
(0.503067 0.188996 0)
(0.496126 0.139705 0)
(0.506976 0.0949682 0)
(0.528174 0.0512679 0)
(0.560229 -0.0230185 0)
(0.634707 -0.128925 0)
(0.658521 -0.181026 0)
(0.639108 -0.144429 0)
(0.604806 -0.0702981 0)
(0.558145 -0.0148489 0)
(0.511043 0.00926144 0)
(0.473837 0.0145969 0)
(0.447396 0.0134299 0)
(0.429207 0.0109765 0)
(0.416984 0.00845991 0)
(0.408845 0.00606455 0)
(0.403389 0.00395773 0)
(0.3997 0.00230999 0)
(0.397206 0.00117752 0)
(0.395541 0.000495738 0)
(0.394452 0.000140254 0)
(0.393763 -1.35985e-05 0)
(0.393339 -6.08228e-05 0)
(0.393091 -6.09793e-05 0)
(0.392945 -4.6136e-05 0)
(0.392869 -3.01634e-05 0)
(0.392823 -1.80759e-05 0)
(0.392806 -9.95443e-06 0)
(0.392788 -5.30717e-06 0)
(0.392791 -2.54223e-06 0)
(0.392779 -1.29331e-06 0)
(0.392789 -4.97601e-07 0)
(0.392776 -2.74337e-07 0)
(0.392789 -8.33594e-08 0)
(0.392776 -2.83359e-08 0)
(0.392789 -5.36561e-08 0)
(0.392777 6.58567e-08 0)
(0.392787 -1.02849e-07 0)
(0.392779 1.13213e-07 0)
(0.392784 -1.3309e-07 0)
(0.392782 1.26409e-07 0)
(0.392781 -1.13975e-07 0)
(0.392784 8.3041e-08 0)
(0.39278 -5.05646e-08 0)
(0.392784 5.0574e-09 0)
(0.392781 3.06847e-08 0)
(0.392783 -6.07801e-08 0)
(0.392782 6.32297e-08 0)
(0.392781 -6.19574e-08 0)
(0.392783 3.72604e-08 0)
(0.392782 -2.90974e-10 0)
(0.392782 -1.6428e-08 0)
(0.392782 2.27759e-08 0)
(0.392782 -1.75708e-08 0)
(0.392783 -3.24871e-10 0)
(0.392782 1.91267e-08 0)
(0.392782 -9.28125e-09 0)
(0.392782 6.28936e-09 0)
(0.392782 5.52845e-09 0)
(0.392782 -1.63291e-08 0)
(0.392782 6.50734e-09 0)
(0.392782 2.85385e-09 0)
(0.392782 -1.02722e-08 0)
(0.392782 -2.13086e-09 0)
(0.392782 -5.59633e-09 0)
(0.392782 -5.36594e-09 0)
(0.869646 -0.000147323 0)
(0.913248 -0.0335929 0)
(0.88997 -0.0246645 0)
(0.882496 -0.00946659 0)
(0.917073 -0.0255414 0)
(0.898699 -0.00403572 0)
(0.968174 -0.055571 0)
(0.974343 -0.0901487 0)
(0.984484 -0.107268 0)
(0.998305 -0.151111 0)
(0.95389 -0.112664 0)
(0.949577 -0.0831582 0)
(0.947902 -0.0814761 0)
(0.940625 -0.0985657 0)
(0.937445 -0.0913418 0)
(0.87626 -0.0321386 0)
(0.856684 -0.0872756 0)
(0.759829 -0.148053 0)
(0.463855 -0.0903235 0)
(0.234698 -0.159982 0)
(0.0707703 -0.367175 0)
(0.123545 -0.335026 0)
(0.120553 -0.158494 0)
(0.204649 0.0186097 0)
(0.218463 0.185587 0)
(0.308237 0.276153 0)
(0.378666 0.171891 0)
(0.495206 0.0179818 0)
(0.547131 -0.0644638 0)
(0.513109 -0.0459501 0)
(0.458697 0.0301166 0)
(0.466777 0.137162 0)
(0.487161 0.228351 0)
(0.482211 0.237491 0)
(0.496142 0.189346 0)
(0.497074 0.139344 0)
(0.520684 0.0921336 0)
(0.539881 0.0476539 0)
(0.579591 -0.0310769 0)
(0.657443 -0.136879 0)
(0.665406 -0.181219 0)
(0.631181 -0.139089 0)
(0.590316 -0.0633344 0)
(0.542427 -0.00792831 0)
(0.496698 0.0152141 0)
(0.461793 0.01923 0)
(0.437609 0.0167165 0)
(0.42141 0.0131723 0)
(0.410981 0.00988441 0)
(0.404451 0.00698284 0)
(0.400353 0.0045551 0)
(0.397716 0.00270391 0)
(0.395963 0.00143919 0)
(0.394778 0.000668701 0)
(0.393975 0.00025257 0)
(0.393445 5.73644e-05 0)
(0.393104 -1.74508e-05 0)
(0.392896 -3.53802e-05 0)
(0.392768 -3.15749e-05 0)
(0.392701 -2.21468e-05 0)
(0.392657 -1.38293e-05 0)
(0.392642 -7.75306e-06 0)
(0.392624 -4.22647e-06 0)
(0.392628 -2.00072e-06 0)
(0.392615 -1.05644e-06 0)
(0.392625 -3.74781e-07 0)
(0.392612 -2.31986e-07 0)
(0.392625 -5.87185e-08 0)
(0.392612 -1.71109e-08 0)
(0.392625 -5.71813e-08 0)
(0.392613 8.09668e-08 0)
(0.392623 -1.20656e-07 0)
(0.392615 1.36227e-07 0)
(0.39262 -1.57192e-07 0)
(0.392618 1.50133e-07 0)
(0.392617 -1.34255e-07 0)
(0.39262 9.77335e-08 0)
(0.392616 -5.81891e-08 0)
(0.39262 5.7009e-09 0)
(0.392617 3.6581e-08 0)
(0.392619 -7.09757e-08 0)
(0.392619 7.476e-08 0)
(0.392618 -7.11681e-08 0)
(0.392619 4.23968e-08 0)
(0.392618 -7.97329e-10 0)
(0.392619 -1.97798e-08 0)
(0.392619 2.73626e-08 0)
(0.392618 -2.0081e-08 0)
(0.392619 -8.49743e-10 0)
(0.392618 2.20153e-08 0)
(0.392618 -1.2842e-08 0)
(0.392619 7.4734e-09 0)
(0.392618 6.86078e-09 0)
(0.392618 -1.8793e-08 0)
(0.392618 8.52658e-09 0)
(0.392618 3.11504e-09 0)
(0.392618 -1.21276e-08 0)
(0.392618 -1.15283e-09 0)
(0.392618 -4.87663e-09 0)
(0.392618 -5.55474e-09 0)
(0.923834 0.00276979 0)
(0.960579 -0.0371042 0)
(0.934963 -0.0214927 0)
(0.934301 -0.0102855 0)
(0.958665 -0.0324585 0)
(0.940433 -0.00430095 0)
(1.0048 -0.058958 0)
(0.993197 -0.0969343 0)
(0.997069 -0.102141 0)
(1.00487 -0.150157 0)
(0.942343 -0.110614 0)
(0.935084 -0.0730344 0)
(0.935248 -0.0872829 0)
(0.906097 -0.099049 0)
(0.892425 -0.0761384 0)
(0.841859 -0.0269404 0)
(0.810098 -0.0763712 0)
(0.699314 -0.110087 0)
(0.407525 -0.0454188 0)
(0.199456 -0.132204 0)
(0.0342715 -0.356086 0)
(0.0588687 -0.332855 0)
(0.0287933 -0.163205 0)
(0.120575 0.013135 0)
(0.136756 0.181498 0)
(0.237842 0.258203 0)
(0.284125 0.14758 0)
(0.422727 0.00472008 0)
(0.473634 -0.0611884 0)
(0.438935 -0.038903 0)
(0.395736 0.0351748 0)
(0.412757 0.135358 0)
(0.444501 0.223363 0)
(0.454506 0.233328 0)
(0.485795 0.187631 0)
(0.494932 0.137238 0)
(0.532639 0.088513 0)
(0.547462 0.0435931 0)
(0.59929 -0.0402351 0)
(0.675855 -0.143689 0)
(0.663574 -0.17865 0)
(0.613535 -0.131767 0)
(0.566869 -0.0557775 0)
(0.519372 -0.00134231 0)
(0.476741 0.0207202 0)
(0.44562 0.0234254 0)
(0.424858 0.0196196 0)
(0.411534 0.0150383 0)
(0.403536 0.0110223 0)
(0.399052 0.00765854 0)
(0.396603 0.0049597 0)
(0.395205 0.00295638 0)
(0.394316 0.00160521 0)
(0.393687 0.000781805 0)
(0.393221 0.000329989 0)
(0.392882 0.000109266 0)
(0.392642 1.60972e-05 0)
(0.392485 -1.45692e-05 0)
(0.392383 -1.92298e-05 0)
(0.392327 -1.51072e-05 0)
(0.392289 -9.99377e-06 0)
(0.392276 -5.71636e-06 0)
(0.392259 -3.20915e-06 0)
(0.392263 -1.48227e-06 0)
(0.392251 -8.28186e-07 0)
(0.392261 -2.54846e-07 0)
(0.392248 -1.90748e-07 0)
(0.392261 -3.42213e-08 0)
(0.392247 -5.92071e-09 0)
(0.39226 -6.10987e-08 0)
(0.392249 9.62734e-08 0)
(0.392259 -1.38974e-07 0)
(0.392251 1.59692e-07 0)
(0.392256 -1.81416e-07 0)
(0.392254 1.73832e-07 0)
(0.392253 -1.54208e-07 0)
(0.392256 1.11913e-07 0)
(0.392252 -6.50219e-08 0)
(0.392256 5.75052e-09 0)
(0.392253 4.2508e-08 0)
(0.392254 -8.08063e-08 0)
(0.392254 8.57282e-08 0)
(0.392253 -7.93863e-08 0)
(0.392255 4.68501e-08 0)
(0.392253 -1.12419e-09 0)
(0.392254 -2.32674e-08 0)
(0.392254 3.18552e-08 0)
(0.392254 -2.23258e-08 0)
(0.392254 -1.61709e-09 0)
(0.392254 2.49433e-08 0)
(0.392254 -1.69248e-08 0)
(0.392254 8.82627e-09 0)
(0.392254 8.37606e-09 0)
(0.392254 -2.13053e-08 0)
(0.392254 1.06296e-08 0)
(0.392254 3.23804e-09 0)
(0.392254 -1.40913e-08 0)
(0.392254 -4.12617e-11 0)
(0.392254 -3.81614e-09 0)
(0.392254 -5.59146e-09 0)
(0.959813 0.00486523 0)