/*--------------------------------*- C++ -*----------------------------------*\
| =========                 |                                                 |
| \\      /  F ield         | OpenFOAM: The Open Source CFD Toolbox           |
|  \\    /   O peration     | Version:  2.4.0                                 |
|   \\  /    A nd           | Web:      www.OpenFOAM.org                      |
|    \\/     M anipulation  |                                                 |
\*---------------------------------------------------------------------------*/
FoamFile
{
    version     2.0;
    format      ascii;
    class       volScalarField;
    location    "1.89";
    object      k_0;
}
// * * * * * * * * * * * * * * * * * * * * * * * * * * * * * * * * * * * * * //

dimensions      [0 2 -2 0 0 0 0];

internalField   nonuniform List<scalar> 
8800
(
8.10611
10.2838
8.77788
6.84665
5.67869
5.00754
4.4868
4.19219
3.86188
3.72289
3.48799
3.4222
3.24197
3.21207
3.05472
3.03469
2.90245
2.87494
2.83331
2.65641
1.38704
4.36905
5.3073
5.29462
5.1087
4.85593
4.52617
4.3458
4.05914
3.9433
3.7173
3.63911
3.46792
3.4221
3.28711
3.25086
3.14585
3.10743
3.01389
3.01609
0.0831052
0.747748
1.5438
1.96649
2.23877
2.47572
2.54408
2.62233
2.61617
2.61069
2.5767
2.55748
2.50982
2.48727
2.4473
2.41927
2.39125
2.36137
2.30338
2.288
0.00327191
0.0713439
0.246559
0.437912
0.565657
0.717623
0.829657
0.925734
1.03369
1.08978
1.16662
1.20715
1.26823
1.2907
1.34691
1.36037
1.40245
1.40775
1.4198
1.40742
0.000118216
0.00509087
0.0233248
0.0545496
0.083344
0.120632
0.168511
0.195393
0.253106
0.278795
0.327291
0.350296
0.39718
0.416832
0.466589
0.487483
0.53442
0.552934
0.59319
0.602385
2.58278e-05
0.000325835
0.00175551
0.00410138
0.00751922
0.0110126
0.0186677
0.0237587
0.0356545
0.0421503
0.0537782
0.0622371
0.0749364
0.0810067
0.0956267
0.108172
0.117704
0.134702
0.147314
0.161991
2.23415e-05
4.63198e-05
0.000136916
0.000349236
0.000480804
0.000744817
0.00123018
0.00165318
0.00261422
0.00398707
0.0046837
0.00641494
0.00743468
0.00905124
0.01037
0.0135788
0.0150165
0.0189745
0.0211348
0.0272409
2.12491e-05
2.99901e-05
5.17545e-05
8.98721e-05
9.38598e-05
0.000105893
0.000121734
0.000158708
0.000192936
0.000287763
0.000325674
0.000480704
0.000534708
0.000660542
0.000719705
0.000999952
0.00107918
0.00151485
0.00177143
0.00293695
2.08382e-05
2.79859e-05
3.78609e-05
6.49464e-05
7.54406e-05
7.55117e-05
7.35503e-05
7.47869e-05
7.70335e-05
8.40429e-05
8.68823e-05
9.96711e-05
0.000102964
0.000106981
0.000109016
0.000125532
0.000129226
0.000149855
0.000160982
0.000222422
2.05824e-05
2.89716e-05
4.21198e-05
5.0389e-05
5.88293e-05
6.81176e-05
7.04291e-05
6.99436e-05
6.80456e-05
6.80737e-05
6.88523e-05
7.45399e-05
7.69259e-05
7.74724e-05
7.79873e-05
7.99751e-05
7.94131e-05
7.93583e-05
7.96831e-05
8.15278e-05
2.05877e-05
3.04995e-05
3.84256e-05
4.86039e-05
6.00697e-05
6.86191e-05
7.14173e-05
7.31974e-05
7.26025e-05
7.03904e-05
6.83424e-05
6.96705e-05
7.35522e-05
7.84486e-05
8.16857e-05
8.21707e-05
8.02968e-05
7.97798e-05
8.04083e-05
8.47226e-05
2.07781e-05
3.06428e-05
4.0285e-05
5.24406e-05
6.58094e-05
7.76931e-05
8.07268e-05
8.06637e-05
7.93104e-05
7.93477e-05
8.14272e-05
9.47053e-05
0.000101711
0.000109763
0.000114544
0.000121764
0.000126718
0.000138376
0.000162414
0.000214843
2.10434e-05
3.06304e-05
4.39439e-05
7.33343e-05
0.000100542
0.000123556
0.000138331
0.000177867
0.000201275
0.000268606
0.000322837
0.000443626
0.000505526
0.000671311
0.000783844
0.00104611
0.00120318
0.00158308
0.00187378
0.00261718
2.1637e-05
4.30099e-05
0.000117093
0.000365468
0.000554307
0.000936639
0.0012561
0.0020606
0.00253117
0.0037815
0.0046145
0.00644172
0.00741634
0.00988691
0.0112083
0.0142243
0.015991
0.0203568
0.0231579
0.0301851
2.49956e-05
0.000304635
0.00142256
0.00478384
0.00778952
0.0130092
0.0172514
0.0271366
0.032269
0.0442516
0.0510215
0.0651197
0.0717
0.0875151
0.0950495
0.112132
0.121266
0.144318
0.157083
0.191886
0.000124269
0.00489989
0.0215292
0.0561025
0.090317
0.122846
0.157787
0.212583
0.237286
0.28732
0.315924
0.362996
0.384549
0.434903
0.456725
0.505592
0.528984
0.589149
0.618292
0.692688
0.00337456
0.0693663
0.255682
0.423524
0.589901
0.694293
0.835725
0.937502
1.01613
1.09553
1.16415
1.21528
1.25186
1.31194
1.33503
1.3811
1.40135
1.45578
1.47741
1.52788
0.0846397
0.726267
1.56536
1.94292
2.28343
2.42354
2.58425
2.59805
2.62405
2.59845
2.58955
2.54016
2.52394
2.4758
2.4617
2.41798
2.40828
2.38269
2.37146
2.34342
1.40683
4.34622
5.32294
5.28676
5.13177
4.79795
4.58765
4.27179
4.13472
3.86815
3.77689
3.57854
3.52165
3.36425
3.32849
3.20118
3.171
3.0512
3.0122
2.91049
8.12055
10.259
8.79951
6.81188
5.71395
4.96172
4.53795
4.12651
3.93074
3.64812
3.55315
3.3472
3.30373
3.13176
3.10171
2.94062
2.90825
2.72814
2.66421
2.44831
1.84881
1.31009
1.01046
0.840683
0.748996
0.696479
0.664158
0.641921
0.624431
0.609188
0.596344
0.582568
0.573155
0.559725
0.549895
0.538709
0.530788
0.524532
0.520768
0.519124
0.518062
0.51744
0.515884
0.513357
0.509092
0.502858
0.497582
0.491671
0.486268
0.481692
0.477856
0.473946
0.472377
0.470307
0.469609
0.468977
0.466136
0.457771
0.43644
0.39405
0.313674
0.246598
0.195996
0.163588
0.140978
0.121425
0.106951
0.0965473
0.088509
0.0838006
0.0779354
0.074401
0.0710956
0.0680554
0.0681896
0.069802
0.0737464
0.083772
0.0913089
0.106648
0.118089
0.132324
0.15139
0.159965
0.180441
0.189005
0.206506
0.214328
0.231279
0.241374
0.255273
0.268346
0.280184
0.288771
0.297742
0.298182
0.299325
0.29541
0.296997
0.290963
0.292215
0.286384
0.289421
0.287361
0.294171
0.296963
0.3086
0.32066
0.344957
0.376923
0.394638
0.391937
0.387517
0.366909
0.352017
0.318675
0.297291
0.27078
0.253323
0.24097
0.231596
0.228663
0.228599
0.22829
0.227867
0.225675
0.221775
0.218113
0.210982
0.201142
0.185531
0.168799
0.13812
0.107105
0.0702142
0.0440436
0.0274627
0.0174326
0.011369
0.00814624
0.00659438
0.0059538
0.00603237
0.00624615
0.00688466
0.00772638
0.0100082
0.0120558
0.0155959
0.021336
0.0250498
0.0327189
0.0414936
0.0476867
0.0612427
0.068801
0.0809606
0.0888047
0.103842
0.111147
0.124544
0.129706
0.133018
0.131856
0.128826
0.121657
0.114425
0.105905
0.0956691
0.0853868
0.0753146
0.0660534
0.0564263
0.048959
0.0415566
0.036826
0.0296916
0.027363
0.0243871
0.0220754
0.0199598
0.0199403
0.0200438
0.019292
0.016862
0.0118296
0.0104059
0.0115025
0.0263844
0.0739419
0.104587
0.117624
0.117651
0.109313
0.0925041
0.0773469
0.0687376
0.0616909
0.0592616
0.0609103
0.06285
0.0630569
0.0721864
0.0660877
0.0669014
0.0672861
0.0691986
0.0745324
0.0794969
0.0803318
0.0791508
0.0695119
0.0693978
0.0683026
0.0722067
0.0717453
0.0767881
0.0833642
0.102757
0.176835
2.57894
2.1266
1.77344
1.51972
1.33262
1.19613
1.09556
1.01804
0.958669
0.907461
0.865737
0.827994
0.796664
0.768002
0.744173
0.723267
0.70485
0.688844
0.674529
0.662782
0.651285
0.641219
0.631673
0.622368
0.613684
0.604904
0.596403
0.589009
0.581442
0.574467
0.568376
0.563021
0.556103
0.554088
0.549385
0.550048
0.551275
0.556633
0.558175
0.556466
0.547788
0.527386
0.482837
0.419152
0.355638
0.295708
0.241506
0.198468
0.16924
0.147507
0.133769
0.123695
0.118032
0.118144
0.120777
0.12798
0.142675
0.164036
0.186429
0.210382
0.237781
0.249663
0.273968
0.283043
0.297998
0.307739
0.311796
0.322429
0.32396
0.328144
0.328084
0.32688
0.325304
0.320009
0.316731
0.308007
0.302616
0.290051
0.282038
0.264042
0.25417
0.233228
0.224291
0.20811
0.201197
0.2
0.203185
0.208759
0.225942
0.236679
0.267233
0.280274
0.314752
0.320836
0.324348
0.320139
0.316373
0.307128
0.301821
0.289258
0.28257
0.271054
0.259505
0.248427
0.237639
0.222414
0.208134
0.188473
0.163142
0.132274
0.102463
0.0683896
0.0449689
0.0289609
0.0186331
0.0121385
0.00822913
0.00624931
0.00519832
0.00508596
0.00520123
0.00554433
0.00650963
0.00781297
0.011074
0.013852
0.0206215
0.0251623
0.0333755
0.0435111
0.0500765
0.0638717
0.0731887
0.08888
0.105075
0.121162
0.133779
0.158531
0.166461
0.184074
0.192389
0.196014
0.195442
0.191972
0.1857
0.172875
0.165147
0.14863
0.139684
0.122961
0.109838
0.095509
0.0828504
0.0698888
0.057063
0.0483478
0.039586
0.0326652
0.0296306
0.0256759
0.0247987
0.0227476
0.0240136
0.0249152
0.0234159
0.0155245
0.012008
0.0125786
0.0237543
0.0694381
0.0927378
0.100362
0.100398
0.0931456
0.0851512
0.0751784
0.0662023
0.0644156
0.061229
0.0613714
0.071507
0.0655024
0.0711176
0.0671019
0.0669742
0.0675216
0.0703978
0.0760416
0.0781625
0.0779967
0.0756429
0.0676945
0.0675529
0.0713387
0.0732152
0.0774526
0.0795309
0.092072
0.102725
0.138047
2.08001
1.85805
1.64756
1.47039
1.32426
1.20493
1.1125
1.03656
0.976941
0.92458
0.879784
0.83905
0.802742
0.769948
0.740159
0.714509
0.691945
0.673298
0.655792
0.640755
0.627933
0.614274
0.603925
0.590931
0.580627
0.5689
0.558357
0.547756
0.539285
0.530208
0.523019
0.518095
0.511481
0.509372
0.506247
0.506576
0.508141
0.511113
0.518494
0.522503
0.531253
0.531281
0.529808
0.521745
0.510737
0.486151
0.465586
0.440413
0.404279
0.377393
0.349614
0.325659
0.314164
0.304817
0.303662
0.306488
0.310386
0.320775
0.326808
0.337452
0.340874
0.349193
0.35083
0.35622
0.355707
0.357908
0.355112
0.35456
0.349991
0.346842
0.338927
0.332429
0.321537
0.307677
0.291537
0.27503
0.252998
0.233475
0.209886
0.186931
0.161735
0.142324
0.120681
0.109205
0.0979356
0.0918212
0.0919899
0.0938093
0.100875
0.107243
0.124386
0.133505
0.156183
0.168357
0.191102
0.205053
0.217694
0.21903
0.218446
0.214361
0.208668
0.195668
0.184304
0.164704
0.144909
0.121423
0.0979935
0.0726017
0.0523211
0.0370934
0.0255242
0.017351
0.0118597
0.00807608
0.00597149
0.00473151
0.00426365
0.00428406
0.00447314
0.00491945
0.00630617
0.00817044
0.0126688
0.0166377
0.0256606
0.0319259
0.045971
0.0540257
0.0710556
0.0813909
0.0954561
0.115688
0.129095
0.157208
0.173159
0.202093
0.218438
0.244839
0.249439
0.26516
0.263272
0.266711
0.2637
0.258957
0.243534
0.234535
0.216095
0.202914
0.179992
0.169237
0.145755
0.133528
0.113787
0.0999406
0.0821248
0.0716986
0.0579165
0.0452047
0.0380698
0.0313337
0.0271303
0.0263761
0.0276794
0.0277912
0.0262799
0.0211169
0.0156771
0.015485
0.0213154
0.05363
0.0836295
0.0926571
0.0918214
0.0825201
0.0744635
0.0718108
0.0665585
0.0637723
0.0683487
0.0647803
0.0786179
0.0720351
0.0722539
0.0683805
0.0674071
0.0681732
0.0738888
0.0771789
0.0792707
0.078962
0.0747294
0.073979
0.072624
0.0777415
0.0760368
0.0846543
0.0850511
0.0984925
0.101776
0.117553
1.31911
1.22691
1.13622
1.0492
0.969604
0.900127
0.839405
0.791535
0.749526
0.714776
0.683023
0.651028
0.623808
0.595474
0.569386
0.547396
0.524066
0.50809
0.49385
0.477978
0.471861
0.45928
0.451158
0.443514
0.431893
0.425268
0.4144
0.402852
0.396016
0.384003
0.376613
0.371066
0.364129
0.361003
0.359804
0.360036
0.362823
0.366871
0.375358
0.384826
0.399416
0.412425
0.4319
0.442154
0.451741
0.452196
0.449709
0.444679
0.435623
0.423969
0.417517
0.403985
0.394226
0.38893
0.377458
0.373901
0.366494
0.362773
0.359785
0.354461
0.351602
0.349728
0.341734
0.338541
0.329248
0.324571
0.313561
0.304344
0.293624
0.276546
0.264085
0.247737
0.225787
0.206234
0.180985
0.158294
0.133771
0.112137
0.0895161
0.0724593
0.0584634
0.0486342
0.0404647
0.0357157
0.0317499
0.0291494
0.0286949
0.0290328
0.0302996
0.0323023
0.0371468
0.0408688
0.0485279
0.0541752
0.0629899
0.0689817
0.0762262
0.0794955
0.079402
0.0777168
0.0737492
0.0666101
0.0583521
0.0490554
0.0400208
0.0317111
0.0242859
0.0183564
0.0133646
0.00989143
0.00708095
0.005327
0.0042057
0.00359031
0.00348954
0.00357599
0.00386159
0.00447057
0.00624448
0.00862433
0.0143484
0.0199469
0.0314909
0.0407366
0.0587976
0.071398
0.0962791
0.109397
0.13484
0.147845
0.17559
0.192188
0.222169
0.250029
0.278154
0.296068
0.311396
0.310824
0.318133
0.321327
0.327212
0.334421
0.329829
0.31788
0.292262
0.279387
0.253053
0.24237
0.219145
0.207123
0.181649
0.16894
0.145763
0.139167
0.120057
0.112027
0.0964471
0.0815
0.0593006
0.0446434
0.0334517
0.0294788
0.0292743
0.0337936
0.0340321
0.0276407
0.0183034
0.017017
0.0217513
0.0497894
0.0753069
0.0828793
0.0845629
0.0792818
0.070462
0.0669678
0.0685381
0.0659848
0.0791005
0.0741886
0.0843728
0.078574
0.0750985
0.0702987
0.0695906
0.0708578
0.0787422
0.0796935
0.0797377
0.0786108
0.0760515
0.0739788
0.068808
0.0688629
0.0678877
0.0724367
0.0741566
0.0783898
0.0803253
0.0838381
0.581331
0.556238
0.532044
0.502214
0.472428
0.448303
0.417332
0.401072
0.382219
0.369146
0.363038
0.349265
0.341932
0.329081
0.311672
0.300035
0.280451
0.268002
0.257695
0.246277
0.242576
0.237342
0.233307
0.232057
0.228052
0.22568
0.221988
0.216129
0.21323
0.205406
0.200985
0.196017
0.191089
0.188328
0.187029
0.187097
0.188499
0.191404
0.194776
0.203443
0.210167
0.21934
0.233539
0.242195
0.261388
0.275386
0.288548
0.302762
0.310304
0.314645
0.314535
0.312628
0.307568
0.299662
0.294536
0.281345
0.275772
0.262417
0.256517
0.244531
0.233342
0.227038
0.211655
0.204131
0.191882
0.181118
0.170698
0.154976
0.145575
0.128681
0.115964
0.100101
0.0859562
0.073241
0.0608695
0.0507779
0.041337
0.033859
0.0273974
0.0222367
0.0182872
0.0151006
0.012829
0.0111122
0.00991078
0.00906622
0.00848714
0.00847956
0.00861086
0.00906937
0.00964243
0.0109117
0.0119824
0.0136765
0.0154332
0.0169148
0.0184021
0.0194566
0.0194876
0.0191883
0.0183347
0.016802
0.0147345
0.0125062
0.0102652
0.00825135
0.00650329
0.00512174
0.00401524
0.00335072
0.00281288
0.00270679
0.00276414
0.00292906
0.00332136
0.00416112
0.00633401
0.00918075
0.0163546
0.0231844
0.0370552
0.052345
0.0726479
0.0960621
0.121866
0.151989
0.181768
0.205381
0.234919
0.253253
0.290372
0.30954
0.338918
0.348034
0.350251
0.344893
0.350131
0.347579
0.368952
0.375486
0.391751
0.376758
0.353383
0.324007
0.301758
0.276596
0.256191
0.238631
0.223292
0.21033
0.197958
0.180926
0.170666
0.151858
0.14301
0.129425
0.124391
0.110406
0.10232
0.0820505
0.0572833
0.0422064
0.0338758
0.034383
0.0346104
0.030834
0.0252019
0.0208945
0.0228971
0.0422266
0.0699058
0.0808308
0.081125
0.0753643
0.0721507
0.0692658
0.0791825
0.0761173
0.088682
0.0833412
0.0846353
0.083513
0.0776457
0.0751037
0.0752198
0.0767904
0.0796809
0.0799168
0.079664
0.0785752
0.0766689
0.0743686
0.066755
0.0663302
0.0656972
0.0683367
0.0705732
0.0748623
0.0752083
0.0753975
0.158902
0.15414
0.149083
0.142261
0.13417
0.128843
0.120669
0.116411
0.112301
0.110591
0.110821
0.110815
0.11121
0.111129
0.108084
0.104479
0.0957492
0.0893668
0.0839827
0.0779865
0.0760675
0.0740531
0.0734792
0.0739678
0.0739
0.0744071
0.0744837
0.0739202
0.0736512
0.071844
0.0699452
0.0686502
0.0664409
0.0650187
0.0649181
0.0650871
0.0658675
0.0682644
0.0699874
0.074122
0.077597
0.0815759
0.0890602
0.0925532
0.100848
0.107026
0.114242
0.122962
0.126564
0.133943
0.13622
0.136514
0.1356
0.132036
0.128907
0.120622
0.115888
0.106965
0.101445
0.0950696
0.0862111
0.0822638
0.0747893
0.0696727
0.063824
0.0583441
0.0536953
0.0478686
0.0438228
0.0384187
0.0342047
0.0295046
0.0253244
0.0213976
0.0177505
0.0147971
0.0120824
0.00996612
0.00817409
0.00664179
0.0055518
0.00460274
0.0039307
0.00345606
0.00306706
0.0028426
0.00263615
0.00259114
0.00260646
0.00268047
0.00278738
0.00306619
0.00326895
0.00355551
0.00400847
0.00424047
0.00456106
0.00482561
0.00487688
0.00482451
0.00467401
0.0043341
0.00388834
0.00333989
0.0028562
0.00241943
0.00212483
0.00190131
0.00189187
0.00195994
0.0020991
0.00240302
0.00294138
0.00411424
0.00656981
0.0101633
0.0179947
0.0261195
0.0448481
0.0612107
0.0896895
0.123592
0.156528
0.196757
0.237713
0.282914
0.313167
0.354453
0.372766
0.397671
0.400096
0.398561
0.393291
0.382811
0.371628
0.356674
0.365843
0.3807
0.429682
0.431691
0.416176
0.377819
0.329886
0.310266
0.274261
0.246858
0.221335
0.218964
0.216502
0.208664
0.196755
0.186342
0.172677
0.159947
0.151347
0.136127
0.133339
0.12053
0.114438
0.103471
0.0782943
0.0514302
0.0406038
0.0398992
0.0392326
0.0352574
0.0266062
0.0230277
0.0244882
0.0411546
0.0641957
0.0765009
0.0826195
0.0794765
0.085406
0.082129
0.0943181
0.0891881
0.0912346
0.0898068
0.0870591
0.0878567
0.0826523
0.0803732
0.0783854
0.0785733
0.0795032
0.0796547
0.0796759
0.0789277
0.0764009
0.0726921
0.0671713
0.0668101
0.0670183
0.0688391
0.0719911
0.0717842
0.0721686
0.0726863
0.0268753
0.0261361
0.0249562
0.0237928
0.0228059
0.0217599
0.0201774
0.0193852
0.018924
0.0188075
0.01904
0.0197834
0.0211468
0.0218517
0.0219864
0.0220058
0.0207364
0.0187456
0.016998
0.0152004
0.0146396
0.0142395
0.0141958
0.0145971
0.0148659
0.0157132
0.0161433
0.016335
0.0165754
0.0164987
0.0164067
0.0161316
0.0153312
0.0150316
0.0150297
0.0151341
0.0154595
0.016652
0.0174693
0.0193128
0.0206198
0.0224654
0.0251792
0.0263419
0.0289348
0.0311925
0.0335873
0.0371057
0.0383825
0.0417026
0.0431779
0.0445798
0.0445425
0.043733
0.0426948
0.0402801
0.0381021
0.0353934
0.0320857
0.030142
0.0268141
0.0249224
0.0223108
0.0204478
0.0183201
0.0165114
0.0148938
0.0132084
0.0119278
0.0105087
0.00927639
0.00802346
0.00682497
0.00577223
0.00478022
0.00401434
0.00332699
0.00276517
0.00231282
0.00191261
0.00163636
0.00142278
0.00126406
0.00117373
0.00108402
0.0010417
0.00100469
0.000981951
0.00098226
0.000982148
0.000990847
0.00100847
0.00105176
0.00107656
0.00112745
0.0011781
0.0012414
0.00130882
0.00132255
0.00132111
0.0012932
0.00126081
0.0011909
0.00116146
0.00116619
0.001208
0.00127852
0.00143783
0.00165528
0.00217647
0.00292297
0.00465327
0.00704388
0.012543
0.0187098
0.0315784
0.0485258
0.0714114
0.10945
0.146381
0.19949
0.249839
0.295026
0.358303
0.413077
0.458128
0.477086
0.476057
0.461966
0.455065
0.433605
0.419326
0.398559
0.381659
0.356522
0.34212
0.367384
0.446275
0.454134
0.449355
0.412193
0.325306
0.234228
0.181081
0.146498
0.134295
0.128372
0.127403
0.133292
0.138501
0.146715
0.157229
0.157822
0.154843
0.14871
0.138927
0.128919
0.120103
0.11205
0.109144
0.0976428
0.072896
0.0560072
0.0473849
0.044094
0.0375197
0.0297082
0.0278612
0.0278372
0.038292
0.0666594
0.0799884
0.097723
0.0966935
0.100998
0.0955266
0.0949015
0.0919081
0.0925633
0.0967972
0.0945379
0.0950645
0.0888645
0.0824875
0.0804182
0.0794114
0.0782527
0.0785738
0.0785865
0.0776432
0.0728712
0.0696392
0.0675559
0.0675498
0.0682642
0.0686922
0.0695776
0.0699416
0.0697634
0.0683633
0.00295211
0.00291874
0.00282903
0.00270706
0.00257901
0.00236989
0.00214943
0.00203763
0.00197904
0.00197303
0.00206484
0.00233768
0.00267756
0.00285884
0.00292556
0.00293717
0.00274405
0.00243459
0.00212041
0.00185178
0.00173591
0.00165774
0.00164816
0.0017079
0.00177209
0.00198577
0.00210596
0.00222407
0.00235633
0.00237972
0.00240585
0.00236173
0.00220971
0.00215122
0.00214061
0.00216658
0.00225402
0.00251464
0.00276047
0.00332679
0.00384158
0.00428503
0.0051045
0.00545033
0.00607082
0.00661044
0.00707611
0.00813635
0.00851163
0.00951235
0.0101362
0.0109158
0.0113029
0.011234
0.0110649
0.0106015
0.00996559
0.00927918
0.00830796
0.00757061
0.00677007
0.00608722
0.00542628
0.00486827
0.00430538
0.0038148
0.00341054
0.0030016
0.00270892
0.00237957
0.0021087
0.00181446
0.00156407
0.00133814
0.00115237
0.00101407
0.000884476
0.000801659
0.000731689
0.000690452
0.000690118
0.000692808
0.000704208
0.000708557
0.000716488
0.000721024
0.000718871
0.00071073
0.000702642
0.000678472
0.000660371
0.000638678
0.00062158
0.000609457
0.000603864
0.000604795
0.000610562
0.000624185
0.000638028
0.000671685
0.000697831
0.000754218
0.000808319
0.000929522
0.00106302
0.00134543
0.00170221
0.00253791
0.00356108
0.00583975
0.00875056
0.0142995
0.0220988
0.0367731
0.0531913
0.0873368
0.118208
0.180873
0.233017
0.309596
0.374091
0.423821
0.493465
0.537489
0.550491
0.543833
0.530352
0.504252
0.46536
0.439484
0.387041
0.350961
0.304341
0.264052
0.255332
0.303803
0.398023
0.464195
0.51514
0.437989
0.254176
0.152948
0.117151
0.103523
0.100345
0.105813
0.105954
0.113275
0.114773
0.121443
0.122516
0.127657
0.131434
0.137246
0.13589
0.136137
0.129967
0.128046
0.116682
0.113897
0.105079
0.0801558
0.0622864
0.0509037
0.0532302
0.0480381
0.0349728
0.0308919
0.0331487
0.0434541
0.0851225
0.0989254
0.11181
0.107859
0.10278
0.0967186
0.0959897
0.0971413
0.0987832
0.104898
0.103791
0.10299
0.0980756
0.0892877
0.0849026
0.0806329
0.0781638
0.077526
0.0760244
0.072474
0.0691514
0.0685797
0.0690672
0.0689135
0.0689834
0.0692809
0.0693386
0.0686448
0.0677964
0.0671299
0.000229576
0.000236083
0.000239302
0.00023767
0.000234223
0.000224529
0.000213121
0.000206949
0.000206711
0.000205932
0.000209986
0.000230953
0.000262248
0.000281383
0.00028973
0.000290749
0.000276501
0.000252329
0.000229089
0.000210102
0.000196803
0.000187044
0.000183015
0.000184835
0.000190931
0.000212532
0.000225769
0.000241118
0.000263276
0.000269256
0.000277764
0.000273839
0.000257221
0.000242974
0.00023371
0.000235172
0.000242043
0.000275145
0.000314569
0.000394835
0.000530747
0.000608087
0.000790735
0.000861584
0.00098263
0.00107215
0.00111398
0.00127694
0.00134918
0.00149342
0.00159891
0.00174975
0.00194371
0.00200385
0.00200553
0.00198832
0.00190287
0.00179377
0.0015928
0.00142789
0.00125646
0.00110349
0.000977312
0.000861722
0.000772947
0.000689328
0.000633814
0.000585689
0.000547193
0.000524596
0.000500006
0.000482948
0.000481346
0.000476786
0.00047726
0.000482079
0.000492464
0.000516945
0.00054653
0.000596686
0.000666752
0.000744017
0.000816347
0.000897854
0.000977128
0.00104265
0.0010448
0.00103082
0.000997865
0.000924657
0.000875033
0.000819192
0.000784314
0.000772878
0.000750942
0.000750911
0.000758303
0.000782958
0.000826483
0.000916104
0.00102994
0.00128553
0.00153519
0.0020422
0.00271227
0.00382445
0.00522342
0.00809891
0.0114948
0.018217
0.0283617
0.0397465
0.0671183
0.0918588
0.144357
0.197857
0.283222
0.368927
0.436959
0.486623
0.522618
0.564805
0.595706
0.593965
0.580091
0.542652
0.476352
0.390598
0.299043
0.229612
0.190566
0.169792
0.168082
0.176887
0.223843
0.43205
0.360204
0.520826
0.444818
0.234149
0.127994
0.103014
0.0924391
0.0895405
0.0932609
0.0988169
0.101753
0.11555
0.107804
0.124936
0.116085
0.12729
0.118053
0.132096
0.123744
0.128306
0.128238
0.127128
0.117489
0.112593
0.105459
0.0839309
0.0721553
0.0652817
0.0588814
0.0535519
0.0415761
0.0421813
0.0467953
0.0615733
0.0907709
0.10466
0.108397
0.107509
0.104273
0.102491
0.101494
0.104691
0.104759
0.108476
0.107605
0.10666
0.103968
0.0962486
0.0895768
0.0837591
0.0794172
0.0777242
0.0746503
0.0713352
0.0698677
0.0698849
0.0704089
0.0697686
0.0694637
0.0691842
0.0685887
0.067514
0.0674815
0.0664578
8.17387e-05
8.31466e-05
8.59372e-05
9.03998e-05
9.47273e-05
9.74507e-05
9.76926e-05
9.6617e-05
9.46379e-05
9.35164e-05
9.31447e-05
9.32226e-05
9.38429e-05
9.66597e-05
0.000100303
0.000103802
0.000105293
0.000105077
0.00010351
0.000102934
0.000103144
0.000104997
0.000105847
0.000105674
0.00010484
0.000104994
0.000106888
0.000108012
0.000108309
0.000106711
0.000104982
0.000104029
0.000104458
0.000107734
0.000109869
0.000110844
0.000110634
0.000111302
0.000113287
0.000122474
0.000132903
0.000142198
0.000168504
0.000178985
0.000197282
0.000210195
0.000213406
0.000222973
0.000225935
0.000232417
0.000244125
0.000251357
0.00028937
0.000328193
0.000345817
0.000352085
0.00034973
0.000338037
0.000313852
0.000285606
0.000256307
0.000242936
0.000239165
0.000239356
0.000243379
0.000251528
0.000273562
0.000294939
0.000316493
0.000367019
0.000395223
0.000446787
0.000507444
0.000600105
0.000661963
0.000832438
0.000952293
0.00115193
0.00139541
0.00162331
0.00197344
0.00225244
0.00254258
0.00280438
0.0030518
0.00317541
0.00317006
0.00312185
0.00298686
0.0028165
0.00259993
0.00249072
0.00237782
0.00229922
0.00226473
0.00227237
0.00231612
0.00240581
0.00265343
0.0028975
0.00345133
0.00412965
0.00522048
0.00639487
0.00924189
0.0116685
0.0173558
0.0233962
0.034914
0.0530566
0.0767084
0.110575
0.164595
0.230467
0.327359
0.422459
0.478378
0.511391
0.52689
0.54893
0.574387
0.607629
0.603805
0.566069
0.459918
0.318278
0.210246
0.153772
0.126617
0.114447
0.11329
0.121717
0.145688
0.193623
0.365755
0.393341
0.414353
0.438183
0.344936
0.160049
0.102082
0.0905597
0.0854225
0.0880714
0.0906418
0.095291
0.115411
0.10699
0.126297
0.119544
0.128991
0.130514
0.12053
0.125459
0.12853
0.125551
0.126462
0.120108
0.121369
0.1149
0.114423
0.0946828
0.0817746
0.0720503
0.0633273
0.0651682
0.0636169
0.0655708
0.065569
0.0682055
0.0854749
0.0974283
0.11172
0.110218
0.112982
0.111608
0.110909
0.112756
0.111614
0.113249
0.112334
0.111302
0.108597
0.102155
0.0938207
0.0884132
0.0829603
0.0805829
0.0763899
0.0727249
0.072101
0.0712891
0.0711664
0.0707108
0.0708093
0.0706391
0.0705558
0.0692657
0.0684574
0.0664656
8.62005e-05
8.73468e-05
9.12626e-05
9.31688e-05
9.38597e-05
9.73353e-05
0.000102848
0.00010659
0.000108065
0.000107902
0.000106271
0.000104156
0.000100648
9.91195e-05
9.90551e-05
0.000107535
0.000129186
0.000143275
0.000152501
0.000153426
0.000149263
0.000142903
0.000135593
0.000129759
0.000127298
0.000124943
0.000125366
0.00012858
0.000130792
0.000131303
0.000128798
0.000123193
0.000119966
0.000120592
0.000137996
0.000162167
0.000181239
0.000188281
0.000188084
0.000177133
0.000159667
0.000150151
0.000138501
0.000128454
0.000121758
0.00011775
0.000117634
0.000124425
0.000139893
0.000152148
0.00016453
0.000175942
0.000182363
0.000192603
0.000196539
0.000198025
0.00019782
0.000196153
0.000197105
0.000200198
0.000207596
0.000219656
0.000266491
0.000308244
0.000415841
0.000502551
0.000686603
0.000805873
0.000991986
0.00127975
0.00143179
0.00177318
0.0020298
0.00257468
0.00288619
0.00355763
0.00402925
0.00476688
0.00565049
0.00617497
0.00726559
0.00782889
0.00852829
0.0090918
0.00948634
0.00954816
0.00948915
0.00931679
0.00887342
0.00859043
0.00805749
0.00784654
0.00753099
0.00728454
0.0072345
0.00727429
0.00742387
0.00771793
0.0085985
0.00938688
0.0110925
0.012789
0.0165166
0.0199336
0.0269256
0.0344727
0.0510999
0.0664767
0.100587
0.136231
0.194516
0.269546
0.375221
0.4648
0.515497
0.528308
0.536849
0.538519
0.53915
0.553426
0.579402
0.575714
0.488961
0.29481
0.173898
0.130698
0.111159
0.100183
0.100684
0.104527
0.120962
0.146514
0.177338
0.325442
0.363028
0.347961
0.421256
0.41156
0.294617
0.133716
0.0960138
0.0874193
0.0853258
0.0906922
0.0930514
0.107155
0.116783
0.092537
0.17754
0.109614
0.206536
0.138919
0.206282
0.151198
0.262923
0.165583
0.255122
0.173904
0.186463
0.142177
0.122358
0.0982872
0.0784881
0.0945643
0.0844244
0.103684
0.0911095
0.0800158
0.0702744
0.0701533
0.080222
0.0947943
0.111767
0.115595
0.117667
0.116969
0.117043
0.116666
0.115874
0.116669
0.118672
0.119508
0.11805
0.113619
0.102021
0.0954856
0.0898497
0.086823
0.0826393
0.0802111
0.0788833
0.0781272
0.0783439
0.0783247
0.0779948
0.0758751
0.0742312
0.070813
0.069472
0.0664707
0.00021931
0.000216963
0.000220093
0.000225123
0.000242066
0.00029431
0.000338361
0.000374477
0.000388944
0.00038478
0.000360457
0.000340019
0.000327537
0.000325403
0.000334164
0.000427938
0.000579827
0.000696519
0.000772725
0.000787073
0.000777697
0.000712631
0.000631618
0.000579337
0.000539032
0.000522295
0.000523143
0.000551169
0.000587187
0.000617635
0.000631314
0.000659814
0.000700373
0.000741446
0.000799644
0.000842544
0.000875724
0.000890473
0.000884506
0.000807932
0.000662031
0.000533984
0.000425634
0.000345823
0.000300659
0.000280662
0.000286626
0.000326979
0.000416009
0.000501715
0.000563733
0.000649764
0.000685226
0.00070548
0.000680952
0.000664925
0.000669312
0.000682747
0.000717482
0.000821164
0.000910834
0.00113712
0.0014653
0.00173052
0.00243888
0.00286768
0.00360443
0.00416432
0.00504022
0.00605191
0.00660082
0.00795297
0.00889428
0.0106656
0.0116539
0.0137712
0.0151917
0.0171497
0.019359
0.0206489
0.0230535
0.0239448
0.0253365
0.0262339
0.026402
0.0262848
0.0259013
0.0252599
0.0239869
0.0233735
0.0220962
0.0215702
0.0207585
0.0203753
0.0204094
0.0206499
0.0213674
0.0224004
0.0251866
0.0275877
0.0326099
0.0376928
0.0465071
0.0589078
0.0734351
0.0987465
0.135146
0.17417
0.245817
0.327376
0.424339
0.507215
0.548172
0.560374
0.554589
0.53594
0.488828
0.4479
0.454801
0.513084
0.511303
0.399962
0.197348
0.123855
0.102617
0.0989147
0.0970653
0.098132
0.102466
0.120534
0.148374
0.192097
0.285952
0.325478
0.313841
0.344188
0.395682
0.396581
0.275785
0.128923
0.0980724
0.0917274
0.0887686
0.0910255
0.111121
0.118708
0.106755
0.108864
0.114511
0.118029
0.163914
0.18128
0.299964
0.142777
0.239962
0.152379
0.242414
0.175295
0.15407
0.142324
0.11706
0.104893
0.0905981
0.132363
0.106517
0.106865
0.0960873
0.07786
0.0788037
0.0740207
0.0862298
0.0945389
0.109
0.114338
0.11451
0.115887
0.11593
0.115981
0.116198
0.117249
0.119014
0.124808
0.125654
0.12548
0.121699
0.113693
0.10687
0.103249
0.0988308
0.0950707
0.0925191
0.090025
0.0886936
0.0849248
0.0826921
0.0781749
0.0754452
0.0718501
0.0702194
0.0667113
0.00286845
0.00287021
0.00288408
0.00294977
0.00307207
0.00331484
0.00349613
0.00369146
0.00382817
0.00387861
0.00392163
0.00394946
0.00396514
0.00406223
0.00442953
0.00503433
0.00562442
0.00609032
0.00637561
0.00642303
0.00640138
0.0061365
0.00572263
0.00543343
0.00514588
0.00507064
0.00505389
0.00513177
0.00542562
0.00578062
0.00613171
0.00640783
0.00657857
0.00659918
0.00660166
0.00657033
0.00647953
0.00617486
0.00562094
0.0051268
0.0044813
0.00395836
0.00347669
0.003149
0.00303133
0.00299051
0.00312489
0.00328396
0.00360484
0.00389939
0.00411071
0.004448
0.00452624
0.00451975
0.00442145
0.00442175
0.00449187
0.00463252
0.00493865
0.00556334
0.00605707
0.00741949
0.00858013
0.00999166
0.0123822
0.0136854
0.016123
0.0181349
0.0205263
0.0234115
0.0253713
0.0293147
0.0320718
0.0365131
0.0396437
0.0450032
0.0483142
0.0530945
0.0572863
0.0603633
0.0642512
0.0659264
0.068308
0.0689354
0.0687311
0.0679354
0.0665725
0.064786
0.0617639
0.0602061
0.0579174
0.0558755
0.0547519
0.0545123
0.0549038
0.0560493
0.0590675
0.0624497
0.0698236
0.0764412
0.0905847
0.103025
0.128496
0.154029
0.190751
0.254054
0.312515
0.404117
0.469521
0.528759
0.559195
0.585468
0.577958
0.540216
0.446721
0.345228
0.329052
0.346327
0.428206
0.472524
0.311152
0.186388
0.110771
0.0901868
0.0939888
0.0964719
0.0986236
0.102604
0.105034
0.129891
0.199557
0.262751
0.280473
0.284384
0.272243
0.313144
0.389251
0.407781
0.290625
0.145629
0.11038
0.103273
0.103383
0.115904
0.151351
0.16491
0.157615
0.138865
0.127969
0.120604
0.147959
0.173547
0.205559
0.160675
0.292444
0.147936
0.279977