/*--------------------------------*- C++ -*----------------------------------*\
| =========                 |                                                 |
| \\      /  F ield         | OpenFOAM: The Open Source CFD Toolbox           |
|  \\    /   O peration     | Version:  2.4.0                                 |
|   \\  /    A nd           | Web:      www.OpenFOAM.org                      |
|    \\/     M anipulation  |                                                 |
\*---------------------------------------------------------------------------*/
FoamFile
{
    version     2.0;
    format      ascii;
    class       volScalarField;
    location    "1.89";
    object      pPrime2Mean;
}
// * * * * * * * * * * * * * * * * * * * * * * * * * * * * * * * * * * * * * //

dimensions      [0 4 -4 0 0 0 0];

internalField   nonuniform List<scalar> 
8800
(
342303
333672
324411
315228
306171
297246
288452
279790
271260
262861
254592
246452
238439
230549
222772
215097
207491
199899
192180
183907
342315
333673
324410
315228
306171
297246
288452
279790
271260
262861
254592
246452
238439
230550
222774
215102
207500
199917
192223
184047
342323
333672
324407
315226
306171
297245
288452
279790
271260
262861
254592
246453
238441
230552
222779
215110
207516
199950
192301
184320
342329
333672
324405
315225
306170
297245
288452
279790
271260
262861
254593
246454
238442
230555
222785
215121
207539
199998
192409
184637
342334
333672
324403
315223
306169
297245
288452
279790
271260
262861
254593
246455
238445
230560
222793
215136
207568
200057
192540
184966
342338
333672
324402
315222
306169
297245
288452
279790
271260
262861
254594
246456
238447
230565
222803
215154
207603
200125
192683
185286
342341
333673
324401
315221
306168
297245
288452
279790
271260
262862
254595
246458
238451
230571
222814
215175
207641
200199
192833
185591
342343
333673
324400
315220
306168
297245
288452
279790
271260
262862
254596
246460
238454
230577
222826
215197
207682
200278
192984
185874
342344
333673
324400
315219
306168
297245
288452
279790
271261
262863
254597
246462
238458
230584
222838
215220
207725
200357
193132
186135
342345
333674
324399
315219
306167
297245
288452
279790
271261
262863
254598
246464
238462
230591
222851
215243
207769
200436
193273
186372
342345
333674
324399
315219
306167
297245
288453
279791
271261
262864
254599
246466
238466
230598
222864
215267
207811
200512
193407
186586
342344
333674
324400
315219
306168
297245
288453
279791
271262
262865
254600
246468
238470
230605
222877
215290
207853
200584
193529
186778
342343
333673
324400
315220
306168
297245
288453
279791
271262
262865
254601
246470
238473
230612
222889
215311
207891
200651
193641
186947
342341
333673
324401
315221
306168
297245
288453
279791
271262
262866
254602
246472
238477
230618
222900
215331
207927
200712
193740
187094
342338
333673
324402
315222
306169
297246
288453
279792
271263
262867
254604
246474
238480
230623
222910
215349
207958
200766
193825
187219
342334
333672
324403
315223
306170
297246
288453
279792
271263
262867
254605
246475
238483
230628
222919
215365
207985
200811
193897
187323
342329
333672
324405
315225
306170
297246
288453
279792
271264
262868
254605
246477
238485
230633
222926
215378
208007
200848
193955
187406
342323
333673
324408
315227
306171
297246
288454
279793
271264
262868
254606
246478
238487
230636
222932
215388
208024
200876
193998
187467
342315
333673
324410
315228
306172
297247
288454
279793
271264
262869
254606
246479
238488
230638
222936
215395
208036
200895
194028
187508
342303
333672
324411
315229
306172
297247
288454
279793
271264
262869
254607
246479
238488
230639
222938
215398
208042
200905
194042
187528
176408
174389
172848
171516
170281
169106
167973
166872
165795
164737
163696
162667
161650
160642
159642
158649
157663
156681
155704
154731
153762
152797
151836
150880
149928
148979
148034
147093
146154
145219
144287
143359
142435
141516
140602
139692
138787
137887
136991
136098
135209
134322
133438
132557
131678
130803
129930
129060
128194
127331
126471
125613
124758
123905
123054
122206
121361
120520
119682
118847
118015
117185
116357
115531
114707
113886
113068
112253
111442
110634
109828
109024
108222
107422
106623
105826
105031
104239
103450
102665
101884
101108
100336
99568.8
98805.6
98046.2
97290.1
96537.4
95787.8
95041.3
94297.5
93556.3
92817.2
92080.1
91345
90612
89880.9
89152.3
88425.9
87702.3
86981.5
86264.4
85550.6
84841
84135.2
83434.1
82737.1
82044.9
81356.6
80672.9
79992.9
79317.2
78644.9
77976.4
77310.6
76647.7
75986.9
75328.6
74672.4
74019.2
73368.5
72721
72075.7
71433.5
70792.5
70154.6
69517.7
68884
68251.4
67621.6
66992.9
66366.4
65741.1
65117.6
64495.7
63875.8
63258.3
62643.2
62030.8
61421.8
60815.8
60213.5
59614.3
59018.6
58426
57836.6
57250.2
56666.8
56086.1
55508.1
54932.6
54359.7
53788.7
53220
52653.2
52088.7
51526.3
50967.1
50410.6
49857.5
49307.3
48761.3
48218.4
47680.8
47146.4
46617.7
46092.4
45573.6
45058.3
44550.5
44045
43548.5
43051.6
42565.5
42076.8
41600.3
41119.1
40651.9
40177.5
39717.7
39250.3
38796.7
38335.9
37885
37428.8
36976.6
36519.9
36062.8
35598.3
35130
34649.9
34161.2
33654.8
33132.9
32583.7
32008.4
31390.4
30717.2
30001.6
29129.1
177846
175695
173941
172430
171063
169785
168570
167399
166264
165156
164070
163003
161952
160913
159887
158870
157861
156860
155865
154876
153893
152916
151943
150976
150014
149057
148104
147155
146211
145270
144333
143401
142473
141550
140631
139718
138810
137906
137006
136111
135218
134329
133443
132560
131680
130802
129928
129057
128190
127325
126464
125605
124749
123896
123045
122197
121352
120511
119672
118837
118004
117174
116346
115520
114696
113875
113057
112242
111431
110622
109815
109011
108209
107409
106611
105815
105021
104230
103442
102658
101879
101104
100334
99568.5
98806.8
98048.8
97294.2
96542.8
95794.6
95049.2
94306.6
93566.2
92827.8
92091.4
91356.8
90624.2
89893.5
89165.1
88439
87715.7
86995.3
86278.5
85565.1
84855.8
84150.5
83449.4
82752.6
82060.1
81372
80688.1
80008.3
79332.5
78660.4
77991.6
77325.6
76662.1
76000.9
75342
74685.7
74032.5
73382.2
72735.2
72090.6
71448.8
70808.7
70171.3
69535.2
68901.5
68269.4
67639.3
67010.7
66383.7
65758.3
65134.6
64512.9
63893.5
63276.5
62662.2
62050.9
61443
60838.4
60237.3
59639.8
59045.6
58454.6
57866.5
57281.5
56699.2
56119.6
55542.5
54968.1
54395.8
53825.4
53256.8
52689.9
52124.9
51561.9
51001.6
50443.9
49889.2
49337.6
48789.8
48245.2
47705.1
47168.1
46635.9
46107.2
45584.1
45064.1
44551.2
44039.9
43536.9
43033.2
42538.9
42042.3
41556.5
41066.4
40588
40104.1
39630.9
39153.4
38683.7
38211.9
37743.2
37273.7
36802.9
36330.1
35853.1
35370.7
34880
34379.2
33863.7
33332.2
32776.2
32195.6
31569.3
30919.4
30151.2
29381
28523.7
178844
176710
174874
173256
171791
170429
169141
167908
166718
165563
164435
163331
162247
161179
160126
159086
158056
157035
156023
155019
154022
153032
152048
151071
150099
149133
148173
147217
146266
145319
144378
143441
142509
141582
140660
139743
138831
137923
137021
136122
135227
134335
133447
132561
131679
130801
129925
129053
128184
127318
126456
125597
124740
123886
123035
122187
121342
120500
119661
118826
117993
117162
116334
115508
114685
113865
113047
112232
111420
110610
109804
109000
108198
107398
106600
105805
105012
104222
103436
102653
101876
101103
100334
99570.1
98810
98053.5
97300.4
96550.5
95803.7
95059.7
94318.1
93578.7
92841.1
92105.3
91371.3
90639.1
89908.9
89181
88455.4
87732.7
87013
86296.6
85583.9
84874.9
84169.9
83468.8
82772.1
82079.4
81391.3
80707.3
80027.6
79351.6
78679.3
78010
77343.5
76679.2
76017.5
75358.3
74702
74049.2
73399.4
72752.9
72109.1
71467.8
70828.7
70191.6
69556.4
68922.8
68291
67660.3
67031.6
66404
65778.3
65154.3
64532.8
63913.7
63297.3
62683.9
62073.6
61466.9
60863.8
60264.4
59668.7
59076.2
58486.9
57900.4
57316.9
56735.6
56157.2
55580.9
55007.5
54435.8
53865.8
53297.2
52730
52164.2
51600.5
51038.9
50479.7
49923.2
49370
48820.5
48274
47731.5
47192
46656.3
46124.2
45597
45072.3
44553.9
44036.7
43526.4
43015.5
42512.5
42007.7
41511.5
41013.2
40522.4
40030.2
39542.9
39056.1
38570.7
38087.7
37602.3
37119.3
36630.6
36142.8
35645.5
35147.9
34634.3
34117.1
33574.1
33025
32432
31837.6
31157.2
30497.9
29687
28889.7
28071.8
179605
177527
175667
173990
172456
171028
169679
168392
167153
165954
164787
163649
162533
161437
160359
159295
158245
157206
156177
155158
154148
153145
152150
151163
150182
149208
148239
147277
146320
145368
144421
143480
142543
141612
140687
139766
138851
137940
137034
136132
135234
134340
133450
132562
131679
130799
129922
129048
128178
127312
126448
125588
124730
123876
123025
122176
121331
120489
119650
118814
117981
117150
116323
115497
114674
113854
113036
112222
111410
110600
109794
108990
108188
107388
106591
105797
105005
104216
103431
102651
101875
101103
100336
99573.8
98815.2
98060.3
97308.7
96560.4
95815.1
95072.4
94332
93593.4
92856.6
92121.4
91388.1
90656.4
89926.9
89199.5
88474.9
87752.8
87034.1
86318.3
85606.1
84897.3
84192.6
83491.4
82794.6
82101.7
81413.5
80729.3
80049.4
79373
78700.4
78030.3
77363.2
76698
76035.8
75376.2
74720.3
74067.7
73418.7
72772.8
72129.8
71489.2
70850.9
70214.2
69579.5
68946.2
68314.4
67683.3
67054.1
66425.7
65799.8
65175.6
64554.2
63935.4
63319.6
62706.8
62097.9
61492.3
60890.7
60292.9
59699
59108.3
58520.7
57935.7
57353.8
56773.7
56196.5
55621.2
55048.8
54477.5
53907.8
53338.8
52771.5
52204.3
51639.5
51076.1
50515.1
49956.9
49402.6
48850.9
48302.8
47757.7
47216
46677
46141.9
45610.4
45081.3
44557
44034.1
43515.9
42998
42485.1
41973
41465.7
40959.7
40456.6
39955.9
39455.4
38958.8
38458.9
37964.2
37462.7
36967.1
36460.1
35960.2
35441.7
34932.6
34394
33867.3
33292.9
32738.1
32104.7
31506.8
30787.2
30107.6
29312.1
28518.4
27732.9
180218
178196
176341
174635
173057
171579
170180
168846
167564
166326
165124
163953
162808
161686
160583
159498
158428
157371
156327
155293
154269
153255
152250
151252
150262
149280
148304
147335
146372
145415
144464
143518
142578
141643
140713
139790
138871
137957
137048
136143
135242
134346
133453
132564
131679
130797
129919
129044
128173
127305
126441
125580
124722
123867
123015
122166
121321
120479
119640
118803
117970
117140
116312
115487
114665
113845
113028
112213
111401
110592
109785
108981
108180
107380
106584
105790
104999
104212
103429
102650
101875
101105
100340
99579.1
98822.1
98068.7
97318.8
96572
95828.2
95086.8
94347.6
93609.9
92874
92139.5
91406.9
90675.9
89947.1
89220.5
88496.7
87775.5
87057.5
86342.2
85630.5
84921.9
84217
83515.7
82818.7
82125.5
81437.1
80752.6
80072.5
79395.5
78722.4
78051.5
77383.6
76717.7
76055
75395.1
74739.4
74086.9
73438.6
72793.2
72151
71510.9
70873.2
70237
69602.8
68969.5
68337.5
67705.9
67076.1
66447.3
65821.2
65196.9
64575.8
63957.1
63341.9
62729.7
62122.1
61517.4
60917.4
60321.1
59728.9
59139.6
58553.9
57970.3
57389.9
56811.2
56235.3
55661.1
55089.8
54518.2
53948.8
53379.2
52811.4
52242.9
51677.1
51111.3
50548.8
49988.6
49433.3
48879
48329.8
47781.8
47238.1
46696.2
46158.2
45622.2
45089.1
44558.7
44030.3
43503.7
42979.3
42456.6
41937.3
41419.6
40905.6
40391.4
39882
39369
38862.6
38348.6
37843.4
37325.4
36819.8
36293.2
35784
35243.5
34726.3
34162.2
33628.6
33026.3
32462.9
31804.7
31188.8
30467.5
29763.9
29006.3
28234.5
27469.5
180735
178761
176918
175201
173594
172080
170642
169269
167951
166677
165443
164242
163071
161924
160799
159693
158604
157531
156471
155424
154388
153362
152346
151340
150341
149351
148369
147393
146425
145462
144506
143556
142612
141674
140741
139813
138891
137974
137062
136155
135252
134353
133458
132567
131680
130797
129918
129042
128170
127301
126436
125574
124715
123860
123008
122159
121313
120471
119632
118795
117962
117132
116304
115479
114657
113838
113021
112206
111395
110585
109779
108975
108173
107374
106578
105785
104995
104209
103427
102650
101877
101109
100345
99585.3
98829.8
98078
97329.7
96584.5
95842.3
95102.4
94364.4
93627.8
92892.9
92159.3
91427.4
90697
89969
89243.1
88520.1
87799.6
87082.1
86367.2
85655.7
84946.9
84241.7
83540
82842.7
82149.2
81460.6
80775.7
80095.1
79417.7
78744
78072.5
77404
76737.4
76074.3
75414
74758.1
74105.5
73457.4
72812.2
72170.5
71530.6
70893.5
70257.6
69623.9
68990.5
68358.5
67726.3
67096.1
66467
65840.7
65216.3
64595.4
63977
63362.1
62750.5
62143.5
61539.9
60941.5
60346.7
59756.4
59168.6
58584.6
58002.1
57423.3
56845.7
56271.2
55697.9
55127.2
54555.2
53985.9
53415.5
52847.3
52277.2
51710.7
51142.7
50579.5
50017.2
49460.5
48903.7
48353.2
47802.5
47256.9
46711.7
46171.1
45630.9
45093.9
44557.1
44023.7
43488.6
42958
42426.2
41900
41372.4
40851.2
40326
39809
39283.8
38768.6
38240.8
37726.5
37193.2
36677.5
36135
35614.7
35058.1
34528.5
33948.9
33399.5
32784.5
32201.1
31540.2
30902.2
30198.8
29489.2
28759.7
28007.7
27254.3
181178
179245
177418
175696
174072
172532
171064
169659
168309
167006
165743
164516
163320
162150
161004
159880
158774
157684
156610
155550
154502
153466
152440
151425
150418
149421
148432
147450
146476
145509
144549
143594
142646
141704
140768
139838
138913
137993
137078
136168
135263
134362
133465
132573
131684
130799
129919
129042
128168
127299
126433
125570
124711
123856
123003
122154
121308
120466
119626
118790
117957
117126
116299
115474
114652
113832
113016
112201
111390
110580
109774
108970
108168
107370
106574
105782
104993
104208
103427
102651
101880
101113
100350
99592.1
98838
98087.7
97341
96597.4
95856.9
95118.4
94381.9
93646.4
92912.5
92179.7
91448.4
90718.6
89991.2
89265.9
88543.4
87823.1
87105.7
86391
85679.3
84970.2
84264.8
83562.7
82865
82171.3
81482.2
80796.9
80115.8
79438.1
78763.9
78092
77422.9
76755.9
76092.1
75431.3
74774.8
74121.8
73473.3
72827.7
72185.8
71546.1
70909.2
70273.8
69640.6
69007.4
68375.4
67742.9
67112.4
66483
65856.6
65232.1
64611.1
63992.8
63378.1
62767
62160.5
61558.4
60961.6
60368.7
59780.2
59194.1
58611.6
58030
57452.3
56875.4
56301.8
55728.9
55158.5
54586
54016.9
53445.6
52876.8
52305.6
51738.1
51168.1
50603.9
50040.5
49481.9
48923.2
48370.8
47817.6
47270
46721.9
46178.4
45634.4
45093.5
44551.3
44012
43470.1
42932.5
42393.3
41859.6
41323.9
40795
40261
39735.7
39201.2
38675.6
38138.3
37611.8
37069.2
36539.4
35987.7
35452.2
34887.8
34341.4
33756.3
33189.2
32571.6
31971.4
31316.4
30667.4
29981.8
29276.1
28560.7
27819.3
27072.7
181561
179661
177852
176131
174496
172937
171446
170016
168640
167311
166023
164772
163554
162364
161199
160057
158935
157831
156743
155671
154612
153565
152531
151507
150493
149488
148493
147506
146527
145555
144590
143632
142680
141735
140796
139862
138935
138012
137095
136183
135275
134372
133474
132580
131690
130804
129922
129044
128170
127299
126433
125570
124710
123854
123001
122152
121306
120463
119623
118787
117953
117123
116295
115470
114648
113828
113011
112197
111385
110576
109769
108965
108164
107366
106571
105779
104992
104208
103428
102653
101883
101117
100356
99599
98846.1
98097.2
97351.8
96609.6
95870.7
95133.8
94398.7
93664.4
92931.4
92199.2
91468.4
90739
90011.9
89286.8
88564.3
87843.9
87126.3
86411.4
85699.5
84990.1
84284.4
83582
82883.9
82189.7
81500.1
80814.3
80132.8
79454.8
78780.1
78107.9
77438.4
76771
76106.7
75445.2
74788
74134.1
73484.5
72838
72195.5
71555.4
70918.6
70283.4
69650.6
69017.8
68385.9
67753.5
67123
66493.4
65866.9
65242.3
64621
64002.8
63388.4
62777.9
62172.4
61571.8
60977
60386.2
59799.1
59215.2
58633.2
58052.6
57475.5
56898.9
56325.6
55753
55182.7
54609
54040
53468.2
52898.4
52326.5
51758.1
51186.8
50621
50056.4
49495.3
48935.7
48380.4
47825.4
47275
46725.1
46178.7
45631.6
45086.6
44540.8
43995.3
43448.3
42903.2
42357.9
41817.3
41274.9
40738.1
40198.1
39663.4
39122.7
38586.1
38042.4
37503.1
36953.9
36410.7
35852.9
35303.6
34735.4
34175.5
33587.9
33008.1
32391.8
31781.9
31135.6
30481.9
29808.4
29105.5
28394.9
27659
26917.5
181900
180026
178232
176514
174872
173299
171791
170340
168942
167591
166282
165010
163772
162563
161381
160223
159086
157969
156869
155785
154716
153660
152617
151585
150564
149553
148552
147559
146575
145599
144630
143668
142714
141765
140823
139887
138957
138032
137112
136198
135289
134384
133484
132588
131697
130810
129927
129048
128173
127302
126434
125571
124711
123854
123001
122151
121305
120462
119622
118785
117951
117120
116292
115467
114644
113824
113007
112192
111380
110571
109765
108961
108160
107363
106568
105777
104991
104208
103429
102655
101885
101121
100361
99604.9
98853.3
98105.6
97361.5
96620.6
95883.1
95147.7
94413.8
93680.5
92948.1
92216.3
91485.7
90756.3
90029
89303.7
88580.7
87859.8
87141.9
86426.8
85714.6
85004.9
84298.7
83596
82897.4
82202.6
81512.4
80826
80144
79465.5
78790.4
78117.9
77448
76780.3
76115.4
75453.4
74795.2
74140.3
73489.4
72841.7
72198.2
71557.5
70920.3
70285.2
69652.6
69020.3
68388.6
67756.7
67126.3
66497.1
65870.8
65246
64624.9
64006.9
63392.9
62783.4
62179.2
61579.9
60987.3
60398.2
59812.5
59230.3
58648.9
58069
57492.1
56915.6
56341.7
55769.2
55198
54624
54054.9
53481.9
52911.1
52339.4
51769.1
51198
50630.6
50066.5
49501
48941.2
48382.1
47826.2
47271.5
46721.9
46171.3
45623.6
45073.5
44525.9
43973.1
43422.4
42870.7
42320.4
41773.2
41226.6
40681.3
40139.6
39593.6
39050
38503.1
37954.3
37404.4
36850.3
36295.6
35734.3
35174.5
34604.5
34035.2
33447.9
32859.5
32246.7
31629.6
30991.3
30333
29665
28963.5
28253.9
27522.9
26786.5
182198
180345
178563
176849
175203
173621
172099
170632
169216
167847
166519
165229
163973
162748
161550
160378
159228
158098
156986
155892
154813
153749
152698
151658
150631
149614
148607
147610
146621
145641
144668
143703
142745
141794
140849
139911
138978
138051
137130
136213
135302
134396
133495
132598
131706
130817
129933
129053
128177
127305
126437
125573
124712
123855
123001
122151
121304
120460
119620
118783
117948
117117
116288
115463
114640
113820
113002
112187
111375
110566
109760
108956
108156
107359
106565
105776
104989
104207
103430
102656
101888
101123
100364
99609.2
98858.6
98111.9
97369.1
96629.5
95893.4
95159.2
94426.3
93693.6
92961.4
92229.6
91498.6
90768.8
90040.9
89314.9
88591.2
87869.8
87151.4
86436
85723.4
85013.3
84306.6
83603.2
82903.9
82208.4
81517.3
80830.2
80147.6
79468.6
78793
78120
77449.7
76781.6
76116.3
75453.8
74794.8
74139
73487.1
72838.2
72193.4
71551.6
70913.8
70278.4
69645.9
69014.3
68383.2
67752.3
67122.4
66493.9
65867.9
65243.5
64622.9
64005.5
63392.5
62784.3
62181.6
61583.9
60992.8
60405
59820.2
59238.6
58657.9
58078.3
57501.4
56924.2
56350
55777.8
55203.8
54632
54060.5
53487.7
52915.3
52344.6
51771.7
51200.8
50631.7
50069.9
49499
48941
48375
47821.7
47260.5
46712.9
46156.7
45610.4
45054.1
44506.7
43945.7
43392.8
42835
42282
41728.4
41181.1
40626.8
40086.2
39529.9
38984.3
38430
37877.1
37319.3
36762.3
36197.5
35633.9
35066.1
34496.3
33919.3
33335.2
32737.9
32129.5
31504.4
30870.6
30208.4
29541.2
28842
28134.4
27409.3
26678.2
182460
180624
178853
177143
175495
173906
172373
170893
169463
168077
166734
165428
164157
162917
161706
160520
159358
158217
157095
155991
154904
153831
152773
151727
150694
149671
148659
147657
146664
145680
144704
143736
142775
141821
140874
139933
138999
138070
137147
136229
135316
134409
133506
132608
131714
130825
129940
129059
128182
127309
126440
125575
124713
123856
123001
122151
121303
120459
119618
118780
117945
117114
116285
115458
114635
113814
112997
112181
111369
110560
109754
108951
108151
107355
106563
105774
104988
104207
103430
102657
101889
101125
100366
99611.5
98861.5
98115.5
97373.8
96635.3
95900.5
95167.1
94435
93702.2
92969.9
92237.6
91505.9
90775
90046.4
89319.5
88595
87872.8
87154.1
86438.3
85725.4
85014.7
84307.3
83603
82902.7
82206.2
81514.3
80826.5
80143.3
79463.6
78787.3
78113.7
77443.1
76774.7
76109.1
75446.1
74786.5
74129.9
73477
72827
72181
71538.3
70899.5
70263.9
69631.4
68999.9
68369.9
67740.2
67111.5
66484.2
65859.1
65235.8
64616.3
63999.9
63388.3
62781.2
62180.2
61584
60993.7
60406.9
59822.3
59240.4
58660.5
58079.7
57502.7
56924.9
56350.1
55777.5
55201.4
54631.9
54056.6
53486.3
52911.9
52341.6
51767.4
51197.4
50626.5
50065
49491.2
48934.5
48361
47810.4
47242.2
46696.9
46135.2
45592
45028.4
44482.4
43913.8
43361.3
42798.1
42244.1
41685
41137.4
40575.8
40037.3
39473.9
38926.9
38367.7
37809.6
37247.2
36688.3
36115.2
35553.8
34978.7
34410.9
33823.4
33242.6
32636.1
32029.7
31397.7
30764.5
30100.8
29434
28738.6
28034.9
27316.7
26591.2
182690
180867
179105
177399
175750
174156
172615
171124
169682
168283
166927
165607
164323
163071
161847
160650
159477
158326
157195
156082
154987
153907
152842
151790
150751
149724
148707
147701
146704
145717
144738
143767
142803
141847
140897
139955
139018
138087
137163
136243
135329
134420
133516
132617
131722
130832
129946
129064
128186
127312
126442
125577
124714
123856
123001
122150
121302
120457
119615
118777
117942
117109
116280
115453
114630
113809
112991
112176
111363
110554
109749
108946
108147
107352
106560
105772
104987
104207
103430
102657
101889
101125
100366
99611.4
98861.5
98116
97375
96637.3
95903
95169.9
94438
93704.8
92972.2
92239.2
91506.7
90774.4
90045
89317.1
88591.9
87868.8
87149.9
86433.6
85720.3
85008.8
84300.7
83595.3
82894.2
82196.9
81504.3
80815.8
80132.1
79451.6
78774.7
78100.3
77429.6
76760.8
76095
75431.5
74771.5
74114
73460.3
72809.2
72162.4
71518.6
70879.3
70243.2
69610.7
68979.5
68350.5
67721.8
67095.1
66469.2
65845.8
65224
64605.8
63990.3
63380
62773.7
62174
61578.7
60989.4
60403.3
59819.3
59236.2
58657.3
58074.5
57496.9
56917.2
56342.8
55768.1
55191.5
54622.6
54046.4
53477.6
52901.5
52332.1
51757
51187
50616.4
50054.5
49479.7
48920.3
48344.2
47793.2
47220.4
46674.9
46109.3
45567.9
45000.2
44454.3
43880.6
43327.2
42761.3
42206.4
41643.7
41093.3
40531.1
39990.7
39423.5
38878.6
38312.6
37752.4
37185.3
36624.6
36049.4
35488.3
34905.6
34339
33743.6
33160.9
32548.5
31940.2
31304.9
30671.6
30008.3
29343.9
28653.2
27954.8
27243.7
26523.9
182890
181078
179323
177620
175971
174373
172825
171327
169874
168465
167097
165767
164471
163208
161974
160766
159584
158424
157284
156164
155062
153976
152905
151847
150803
149771
148751
147741
146741
145750
144768
143795
142829
141870
140919
139974
139036
138104
137178
136257
135342
134431
133526
132626
131730
130838
129951
129068
128189
127315
126444
125578
124715
123855
123000
122148
121299
120454
119612
118773
117937
117105
116275
115448
114624
113803
112985
112170
111358
110549
109744
108942
108143
107349
106558
105771
104987
104207
103430
102657
101888
101124
100364
99608.9
98858.6
98112.9
97371.9
96634.5
95900
95166.5
94434
93700.2
92967.2
92233.2
91500
90766.8
90036.9
89308
88582.2
87858.4
87139.4
86422.3
85708.7
84996.5
84287.9
83581.5
82879.9
82181.8
81488.8
80799.8
80115.6
79434.3
78756.8
78081.7
77410.8
76741.5
76075.8
75411.8
74751.5
74093.1
73438.9
72786.8
72139.6
71495.1
70855.5
70219
69586.7
68955.7
68327.5
67700
67075.1
66450.9
65829.4
65208.8
64592
63977.4
63368.2
62762.2
62163.2
61568.5
60980
60394
59810.9
59227.1
58648
58062.9
57483.8
56901.9
56326.8
55749.4
55175.7
54604.4
54030.5
53460.2
52884.5
52315.6
51741.9
51170.2
50602.2
50037.4
49463.7
48901.9
48324.3
47769.5
47195.6
46645.1
46080.6
45538
44967.7
44425.1
43847.2
43293.4
42723.8
42166.4
41602.2
41049.9
40487.9
39945.9
39379.7
38837
38266
37705.2
37134.1
36570.2
35995.3
35427.5
34846.7
34274.9
33674.2
33087.5
32472.4
31860.8
31226.1
30592.8
29931.4
29271.3
28585.4
27892.9
27188.4
26474.4
183061
181258
179509
177809
176159
174559
173006
171501
170041
168623
167246
165906
164601
163328
162085
160869
159678
158510
157364
156237
155128
154036
152960
151898
150850
149814
148790
147777
146774
145780
144796
143820
142852
141892
140938
139992
139052
138119
137191
136269
135352
134441
133535
132633
131736
130843
129955
129071
128192
127316
126445
125577
124714
123854
122997
122145
121296
120450
119608
118769
117932
117099
116269
115443
114619
113798
112980
112165
111353
110544
109739
108938
108140
107346
106556
105769
104986
104206
103429
102656
101886
101121
100360
99603.8
98852.6
98106.5
97364.7
96626.7
95891.1
95156.9
94423.5
93689
92955.5
92220.7
91486.5
90752.9
90022.5
89292.9
88566.8
87842.7
87123.6
86405.9
85692.2
84979.4
84270.6
83563.6
82861.9
82163.1
81469.9
80780.2
80095.5
79413.5
78735.6
78060
77388.8
76719.5
76054.1
75389.7
74729
74069.8
73415
72762.2
72114.6
71469.6
70830.1
70193.3
69561.5
68930.9
68303.4
67677
67053.8
66431.2
65811.2
65191.7
64575.9
63961.9
63353.2
62747.6
62149
61554.6
60966.8
60380.4
59797.7
59213
58632.7
58046.2
57464.6
56880.7
56304.8
55723.6
55154
54580.5
54009.2
53435.9
52863.6
52292.7
51722.2
51147.9
50585.4
50014.9
49445
48881.8
48304.7
47740.5
47168.8
46613.4
46048.4
45503.8
44935
44385.1
43812.7
43258.2
42685.7
42124
41562.4
41006.6
40450.3
39906.8
39339.2
38797.5
38226.3
37663.7
37091.9
36523.9
35950.5
35374.4
34794.7
34212.3
33614.8
33021.3
32407.8
31792.6
31162
30528.6
29870.7
29214.8
28533.6
27847
27148.2
26439.5
183207
181411
179666
177968
176318
174715
173159
171648
170182
168758
167373
166025
164712
163432
162181
160957
159759
158585
157432
156300
155186
154089
153009
151943
150891
149851
148824
147808
146802
145807
144820
143842
142872
141910
140955
140008
139066
138131
137203
136279
135362
134449
133542
132639
131741
130847
129958
129073
128193
127317
126444
125576
124712
123851
122994
122141
121292
120446
119603
118764
117927
117094
116264
115437
114613
113792
112974
112159
111348
110540
109735
108934
108137
107343
106553
105767
104984
104203
103426
102652
101882
101116
100354
99596.5
98844.2
98097
97353.9
96614.8
95877.6
95142.2
94407.8
93673.1
92938.9
92203.3
91468.3
90734.6
90003.6
89273.7
88547.1
87823.6
87104.4
86386.7
85672.7
84960
84250.8
83544
82842
82142.9
81449.4
80759
80073.6
79391
78712.6
78037.1
77365.7
76696.8
76031.1
75367.2
74706.2
74046.7
73391
72737.7
72089.6
71444.2
70804.8
70168.4
69536.9
68906.8
68279.9
67654.4
67032.3
66411
65791.6
65173.4
64558.1
63944.9
63336.5
62731.6
62133.3
61539
60951
60363.5
59780.4
59194.4
58612.1
58024.1
57441.8
56857.7
56278.1
55697.3
55127.9
54551.7
53984.2
53407.9
52837.9
52266.2
51701.7
51125.7
50564.6
49990.7
49427.1
48853.1
48277.7
47708.7
47144.7
46586.2
46020.6
45467.7
44899.4
44341.4
43776.9
43216.4
42647.7
42083.4
41527.5
40968.4
40414.8
39864.8
39304.8
38756.8
38189.6
37625
37056.9
36485
35908.2
35327.4
34748
34157.4
33562.6
32963.7
32357.5
31738.8
31113.3
30478.8
29825.6
29171.3
28495.9
27814.4
27119.6
26416.4
183328
181537
179794
178097
176447
174843
173284
171770
170299
168869
167478
166125
164805
163518
162261
161031
159828
158648
157490
156353
155234
154134
153049
151980
150925
149883
148853
147835
146827
145829
144840
143861
142889
141926
140970
140020
139078
138142
137212
136288
135369
134455
133547
132643
131744
130850
129960
129074
128193
127316
126443
125574
124709
123848
122991
122138
121288
120442
119599
118759
117923
117090
116260
115433
114608
113787
112969
112155
111343
110535
109730
108929
108132
107339
106550
105764
104980
104199
103421
102646
101875
101108
100346
99587.5
98834.1
98085.5
97340.6
96600
95861.1
95124.4
94388.5
93653.5
92918.3
92182.6
91447.3
90713.7
89982
89252.4
88526
87803.4
87083.8
86366.6
85652.5
84940.3
84230.9
83524.5
82821.6
82122.7
81428.4
80737.8
80051.3
79368.6
78689.4
78014.4
77342.7
76674.8
76009.2
75346.4
74685
74025.9
73369
72716
72066.9
71421.8
70782.2
70146.6
69514.7
68885.5
68258.2
67633.8
67011.9
66391.6
65772.4
65155.2
64539.5
63927.2
63318.8
62714.7
62116
61521.7
60932.1
60343.5
59758.3
59171.3
58586.7
57998.7
57414.9
56831.1
56253.2
55673.1
55099.4
54524.1
53955.8
53379.5
52813.6
52240.4
51676.6
51101.8
50542.6
49964.9
49399.8
48818.2
48253.3
47680.6
47120.1
46557.7
45990.5
45426.8
44863.3
44302.8
43740.9
43172.8
42613.1
42048.9
41494.3
40934.6
40385.1
39827.2
39275.7
38715
38157
37590.2
37024.3
36447.8
35872
35288.9
34703.7
34112.6
33521.5
32921.5
32318.6
31701.6
31078.5
30443.8
29795.2
29139.6
28470.1
27791.4
27100.3
26402.2
183424
181637
179896
178199
176548
174943
173383
171866
170392
168958
167563
166204
164880
163587
162325
161091
159883
158698
157537
156395
155274
154170
153082
152010
150953
149908
148876
147856
146846
145847
144857
143876
142903
141938
140981
140030
139087
138150
137219
136294
135374
134460
133551
132646
131747
130851
129961
129075
128193
127315
126442
125572
124707
123846
122988
122135
121285
120438
119595
118755
117919
117086
116255
115428
114604
113783
112965
112150
111338
110530
109726
108925
108128
107334
106545
105758
104974
104193
103414
102639
101868
101100
100337
99577.8
98823.1
98073.3
97326.8
96584.6
95843.8
95105.8
94368.4
93632.7
92896.3
92161
91425.6
90692.6
89960.6
89232
88505.5
87783.8
87063.9
86347.7
85633.1
84921.5
84211.8
83505.9
82802.5
82104.1
81408.8
80718.4
80031.1
79348.5
78668.6
77994.1
77322
76654.8
75989.5
75328.2
74666.6
74008.2
73350.8
72698
72048.2
71403.6
70763.8
70128.7
69496.2
68867.4
68239.6
67616.1
66993.6
66374.1
65754.9
65138.1
64521.8
63910.2
63301.5
62698
62098
61503
60910.8
60321.2
59733.2
59145.7
58558.7
57972.5
57387.7
56807.4
56227.2
55647.9
55073.1
54498.7
53926.1
53354
52787.9
52213.7
51650.4
51077.8
50515.2
49935.3
49370.5
48792.9
48231.2
47649.9
47093.2
46521.2
45957
45395.2
44833.2
44265.9
43705.7
43136.1
42581.2
42015.5
41466.3
40907.8
40358.3
39794.3
39246.2
38678.2
38125.9
37557.3
36996.8
36416.2
35842.2
35255.5
34671.4
34082.6
33489.7
32893.2
32290.9
31678.8
31053.5
30421.6
29774.5
29119.1
28452.9
27775.5
27088
26393.6
183496
181712
179971
178274
176623
175018
173456
171938
170461
169024
167626
166263
164935
163639
162374
161136
159924
158736
157572
156428
155303
154197
153107
152033
150973
149927
148894
147872
146861
145860
144869
143886
142913
141947
140989
140038
139093
138156
137224
136298
135378
134463
133553
132648
131748
130852
129961
129075
128192
127314
126440
125571
124705
123844
122986
122132
121282
120435
119592
118752
117916
117082
116252
115425
114600
113779
112961
112146
111334
110526
109721
108920
108123
107329
106539
105752
104967
104186
103407
102631
101860
101092
100329
99568.8
98813.3
98062.2
97314.1
96570.3
95827.8
95089.1
94350.2
93614.3
92876.8
92142.2
91406.5
90674.3
89942
89214.7
88487.9
87767
87046.6
86331.4
85616.1
84905.7
84195.4
83490.6
82786.8
82089
81393.1
80703.3
80015.2
79333.1
78652.4
77978.4
77306.1
76639.7
75974.3
75313.8
74652.6
73995.6
73338.3
72686.6
72035.9
71392
70750.7
70115.7
69482.1
68853.8
68225.6
67602.8
66979.2