/*--------------------------------*- C++ -*----------------------------------*\
| =========                 |                                                 |
| \\      /  F ield         | OpenFOAM: The Open Source CFD Toolbox           |
|  \\    /   O peration     | Version:  2.4.0                                 |
|   \\  /    A nd           | Web:      www.OpenFOAM.org                      |
|    \\/     M anipulation  |                                                 |
\*---------------------------------------------------------------------------*/
FoamFile
{
    version     2.0;
    format      ascii;
    class       surfaceScalarField;
    location    "0.48";
    object      phi;
}
// * * * * * * * * * * * * * * * * * * * * * * * * * * * * * * * * * * * * * //

dimensions      [0 3 -1 0 0 0 0];

internalField   nonuniform List<scalar> 
8640
(
0.0498541
0.000145931
0.0488835
0.000970604
0.0489888
-0.000105347
0.0477637
0.00122509
0.0480942
-0.00033044
0.0469672
0.00112695
0.0469465
2.0728e-05
0.0462023
0.000744194
0.0460418
0.000160502
0.044252
0.00178982
0.0463232
-0.00207126
0.0408384
0.00548486
0.04406
-0.00322168
0.0375921
0.00646794
0.0382835
-0.000691354
0.0412818
-0.0029983
0.0288991
0.0123826
0.0468546
-0.0179555
0.0441692
0.00268544
0.0183449
0.0258243
0.0509169
-0.000770954
0.0497403
0.00214716
0.0505802
-0.000945228
0.0500551
0.00175022
0.0498661
-0.000141462
0.0507998
0.0001933
0.0497265
0.00109395
0.0501228
0.000347929
0.051503
-0.00121974
0.0475072
0.00578562
0.0526512
-0.00721521
0.0451329
0.0130032
0.0495433
-0.00763211
0.0450039
0.0110073
0.04235
0.00196252
0.0588245
-0.0194727
0.0357637
0.0354434
0.0445384
-0.0267302
0.0552324
-0.00800862
0.0267737
0.0468036
0.0502541
-0.00102508
0.0500205
0.00238079
0.0504282
-0.00135296
0.0500772
0.00210129
0.0504997
-0.000563978
0.0502676
0.000425369
0.0504929
0.000868668
0.0502716
0.000569182
0.0511424
-0.00209052
0.0489531
0.00797493
0.0533437
-0.0116058
0.0477107
0.0186362
0.0526027
-0.0125241
0.0565202
0.00708981
0.0452094
0.0132733
0.0580159
-0.0322793
0.0536139
0.0398454
0.0480017
-0.021118
0.0580104
-0.0180173
0.0352519
0.0495323
0.0503895
-0.00141458
0.050036
0.00273433
0.0503138
-0.00163081
0.0503221
0.00209304
0.050087
-0.000328859
0.0506396
-0.000127325
0.0502219
0.00128643
0.0503135
0.000477599
0.0510316
-0.00280862
0.049984
0.00902251
0.0516537
-0.0132756
0.0521053
0.0181847
0.0524954
-0.0129143
0.0569726
0.00261268
0.050758
0.0194879
0.0545982
-0.0361194
0.0587277
0.0357159
0.0521422
-0.0145325
0.0593331
-0.0252081
0.0328017
0.0617832
0.0500412
-0.00145579
0.0501159
0.00265968
0.0502634
-0.00177835
0.0501395
0.00221698
0.0505216
-0.000711016
0.050098
0.000296328
0.0506673
0.000717069
0.0503448
0.000800093
0.0504492
-0.00291295
0.0510508
0.00842087
0.0507964
-0.0130212
0.0523353
0.0166457
0.0517017
-0.0122806
0.0541982
0.000116175
0.0518599
0.0218262
0.0526352
-0.0368948
0.0576785
0.0306726
0.0507207
-0.00757475
0.054148
-0.0286355
0.0266041
0.0603456
0.0500657
-0.00152151
0.0501341
0.00259134
0.050114
-0.00175825
0.0503024
0.00202852
0.0501482
-0.000556809
0.0504047
3.97891e-05
0.0502907
0.000831114
0.0504572
0.000633596
0.0503339
-0.00278963
0.0510951
0.00765968
0.0497299
-0.011656
0.052296
0.0140797
0.0498042
-0.00978878
0.0514517
-0.00153139
0.0531001
0.0201778
0.0496476
-0.0334423
0.0547772
0.025543
0.0512239
-0.00402144
0.0521248
-0.0295364
0.025609
0.0531199
0.0499847
-0.00150626
0.0501052
0.00247087
0.0501762
-0.00182925
0.0501513
0.0020534
0.050404
-0.000809522
0.0501266
0.00031724
0.050517
0.000440726
0.0504133
0.000737292
0.0502385
-0.0026148
0.051225
0.00667313
0.0496037
-0.0100347
0.0518564
0.011827
0.0498146
-0.00774707
0.0506623
-0.00237905
0.0526291
0.0182111
0.0490767
-0.02989
0.0528787
0.0217411
0.0504034
-0.00154613
0.0498863
-0.0290193
0.022573
0.0529223
0.0499264
-0.00143269
0.050166
0.00223127
0.0500285
-0.0016917
0.0502888
0.00179306
0.0501925
-0.000713155
0.0502712
0.000238496
0.0504048
0.000307161
0.0503778
0.000764288
0.0503036
-0.00254058
0.0511134
0.0058633
0.0496161
-0.00853743
0.0519425
0.00950062
0.0497478
-0.00555236
0.0505517
-0.00318292
0.0526088
0.016154
0.0481307
-0.0254119
0.0514571
0.0184147
0.0510352
-0.00112422
0.0487758
-0.0267599
0.020715
0.0506338
0.0499392
-0.00137189
0.0501116
0.00205882
0.0500946
-0.0016747
0.0501947
0.001693
0.0502743
-0.000792701
0.0502243
0.000288501
0.0503463
0.000185083
0.0505126
0.000598017
0.0501327
-0.00216073
0.0511796
0.00481649
0.0495968
-0.00695472
0.0516943
0.00740321
0.0498118
-0.00366987
0.0506804
-0.00405159
0.0520162
0.0148182
0.048886
-0.0222817
0.0516987
0.0156019
0.0509477
-0.000373154
0.0491572
-0.0249694
0.0191677
0.0507046
0.0498946
-0.00126652
0.0501488
0.00180464
0.0500278
-0.00155368
0.0502472
0.00147362
0.0502289
-0.00077448
0.0502143
0.000303124
0.0504208
-2.14255e-05
0.0503973
0.00062158
0.0502474
-0.00201087
0.0510406
0.00402328
0.0497412
-0.00565534
0.0515215
0.00562295
0.0499607
-0.00210904
0.0506317
-0.00472266
0.0520654
0.0133846
0.0491762
-0.0193926
0.0518016
0.0129765
0.0516461
-0.000217641
0.0488941
-0.0222174
0.0174789
0.0505829
0.0499038
-0.00117034
0.0501305
0.00157801
0.0500397
-0.00146292
0.0502385
0.0012748
0.0501968
-0.000732724
0.0502908
0.000209097
0.0502953
-2.59831e-05
0.050506
0.000410968
0.0501912
-0.00169614
0.0509964
0.00321814
0.049866
-0.00452496
0.0514115
0.00407746
0.0501476
-0.000845118
0.050636
-0.00521114
0.0518697
0.0121509
0.0493375
-0.0168604
0.051933
0.0103811
0.0507044
0.00101091
0.0488307
-0.0203437
0.0144794
0.0518301
0.0498907
-0.00106104
0.0501366
0.00133213
0.0500339
-0.00136019
0.0502315
0.0010772
0.0502263
-0.000727566
0.0502282
0.000207215
0.0503749
-0.000172744
0.0504519
0.000334017
0.0502084
-0.00145262
0.0509718
0.00245474
0.0499295
-0.00348267
0.0512172
0.0027897
0.050346
2.6143e-05
0.0505206
-0.00538576
0.0518242
0.0108473
0.0494279
-0.0144642
0.0515255
0.00828347
0.0512962
0.00124026
0.0490523
-0.0180998
0.0129081
0.0506237
0.0498928
-0.000953817
0.0501378
0.00108713
0.0500318
-0.00125421
0.0502457
0.00086327
0.0501844
-0.000666213
0.0503018
8.97602e-05
0.0503027
-0.0001736
0.0504874
0.000149318
0.0502529
-0.00121812
0.0508675
0.0018401
0.0500523
-0.00266742
0.0511498
0.00169217
0.0504017
0.000774265
0.0504727
-0.00545679
0.0518267
0.00949332
0.0495677
-0.0122052
0.0514318
0.0064194
0.0509183
0.00175374
0.049119
-0.0163005
0.0107238
0.0513033
0.0498934
-0.000847224
0.0501405
0.000840014
0.0500396
-0.0011533
0.0502342
0.000668739
0.0502178
-0.000649899
0.0502603
4.73188e-05
0.0503492
-0.000262511
0.0504687
2.98166e-05
0.0502552
-0.00100462
0.0508512
0.00124415
0.0501475
-0.00196382
0.0509463
0.000893462
0.0506399
0.00108062
0.0503792
-0.00519612
0.0517369
0.00813561
0.0496996
-0.0101679
0.0512678
0.00485121
0.0511853
0.00183629
0.0488414
-0.0139567
0.00885451
0.0507108
0.0498983
-0.000745567
0.0501463
0.000592025
0.0500429
-0.00104988
0.0502436
0.000468024
0.0501976
-0.000603893
0.0503043
-5.93598e-05
0.0503252
-0.000283393
0.0504714
-0.000116388
0.0503232
-0.000856393
0.0507589
0.000808406
0.050244
-0.00144894
0.0508793
0.000258185
0.0507337
0.00122618
0.0502689
-0.00473127
0.0517826
0.0066219
0.0497965
-0.00818174
0.0510313
0.00361636
0.0511337
0.00173393
0.0490217
-0.0118447
0.00732775
0.0505484
0.0499056
-0.000651173
0.0501532
0.000344457
0.0500519
-0.000948562
0.0502397
0.000280196
0.0502239
-0.000588086
0.0502872
-0.000122693
0.050353
-0.000349143
0.0504672
-0.000230589
0.0503308
-0.000719983
0.0507406
0.000398566
0.0503362
-0.00104456
0.0507234
-0.000129016
0.0509065
0.0010431
0.0502383
-0.00406309
0.0516687
0.00519146
0.0499421
-0.00645514
0.0509839
0.00257461
0.0511631
0.00155474
0.0488894
-0.009571
0.00571279
0.0505044
0.049917
-0.000568157
0.050162
9.94736e-05
0.0500587
-0.000845299
0.0502474
9.15035e-05
0.0502256
-0.000566283
0.0503093
-0.000206385
0.0503572
-0.000397058
0.050461
-0.000334399
0.0503979
-0.000656848
0.0506693
0.000127136
0.0504175
-0.000792756
0.0506511
-0.000362654
0.0509891
0.000705115
0.0501571
-0.00323102
0.0516707
0.00367777
0.0500491
-0.00483349
0.0507777
0.00184596
0.0512843
0.00104824
0.0489639
-0.00725066
0.00442258
0.0502541
0.0499338
-0.000501933
0.0501713
-0.000138081
0.0500646
-0.000738604
0.0502533
-9.71366e-05
0.0502421
-0.000555111
0.0503137
-0.000277959
0.0503715
-0.00045484
0.0504647
-0.000427592
0.0504018
-0.00059396
0.0506591
-0.000130226
0.0504746
-0.000608255
0.0505631
-0.000451146
0.0510467
0.0002215
0.0501421
-0.00232638
0.0515738
0.00224609
0.0500981
-0.00335782
0.0507335
0.00121053
0.0512389
0.000542891
0.0488987
-0.0049105
0.00312288
0.0501984
0.0499705
-0.000472439
0.050172
-0.000339542
0.0500447
-0.000611289
0.0502356
-0.000288109
0.0501899
-0.000509421
0.0502723
-0.000360333
0.0502694
-0.000451892
0.0503166
-0.000474804
0.0502633
-0.000540646
0.0504181
-0.000285081
0.0502709
-0.000461024
0.0502836
-0.000463841
0.050657
-0.00015192
0.049706
-0.00137536
0.0511049
0.000847185
0.0495587
-0.0018116
0.0502899
0.000479325
0.0507293
0.000103432
0.0483489
-0.00253008
0.00162807
0.0498437
0.0495276
0.049188
0.0485767
0.0482886
0.0477792
0.0474189
0.046967
0.0464922
0.0459515
0.0456664
0.0452054
0.0447416
0.0445897
0.0432143
0.0440615
0.0422499
0.0427292
0.0428326
0.0403026
0.0419306
0.0332102
-0.0460998
0.0387139
0.0488818
-0.0421283
0.0264567
0.0565603
0.0229333
-0.0306118
0.0524656
0.0249324
-0.0208377
0.0459697
-0.0300858
0.0365817
0.0411784
-0.0772356
0.0820269
0.0358083
-0.0881038
0.0934739
0.0307611
-0.0759268
0.080974
0.0280833
-0.0581533
0.0608311
0.0269298
-0.0418564
0.04301
0.0263185
-0.0290812
0.0296925
0.0259105
-0.0197135
0.0201215
0.0256348
-0.0131796
0.0134553
0.0254608
-0.00876801
0.008942
0.0253561
-0.00581842
0.00592308
0.0252954
-0.00384854
0.00390928
0.0252613
-0.00253482
0.00256892
0.0252427
-0.0016619
0.00168056
0.0252326
-0.00108482
0.00109492
0.0252271
-0.000705283
0.000710764
0.0252241
-0.000456825
0.00045984
0.0252224
-0.000294879
0.000296569
0.0252214
-0.000189712
0.000190678
0.0252208
-0.000121658
0.000122222
0.0252205
-7.777e-05
7.81044e-05
0.0252203
-4.9558e-05
4.97591e-05
0.0252202
-3.14808e-05
3.16035e-05
0.0252201
-1.99337e-05
2.00089e-05
0.0252201
-1.25843e-05
1.26306e-05
0.02522
-7.91764e-06
7.9469e-06
0.02522
-4.96722e-06
4.98485e-06
0.02522
-3.1066e-06
3.1171e-06
0.02522
-1.9346e-06
1.94217e-06
0.02522
-1.20311e-06
1.20684e-06
0.02522
-7.4482e-07
7.4725e-07
0.02522
-4.59734e-07
4.61795e-07
0.02522
-2.83034e-07
2.84153e-07
0.02522
-1.72953e-07
1.7311e-07
0.02522
-1.05947e-07
1.06582e-07
0.02522
-6.39651e-08
6.48965e-08
0.02522
-3.9149e-08
3.92082e-08
0.02522
-2.49961e-08
2.47201e-08
0.02522
-1.36149e-08
1.32792e-08
0.02522
-9.9438e-09
9.83639e-09
0.02522
-4.71035e-09
5.11755e-09
0.02522
-2.8942e-09
2.91303e-09
0.02522
-2.62672e-09
2.54684e-09
0.02522
-1.1678e-09
1.5607e-09
0.02522
5.11727e-10
-4.66004e-10
0.02522
-1.6297e-09
1.19902e-09
0.02522
-8.17204e-10
5.22895e-10
0.02522
1.8574e-09
-2.05417e-09
0.02522
-2.64788e-09
2.68394e-09
0.02522
1.93152e-09
-1.48167e-09
0.02522
-6.59794e-10
6.12586e-10
0.02522
-1.03439e-09
5.95669e-10
0.02522
1.53371e-09
-1.61525e-09
0.02522
-1.42322e-09
1.65691e-09
0.02522
2.148e-09
-1.92865e-09
0.02522
-1.25303e-09
1.26149e-09
0.02522
-1.78351e-10
-4.81901e-11
0.02522
2.17545e-09
-2.29611e-09
0.02522
-2.66056e-09
2.96716e-09
0.02522
2.29218e-09
-1.78136e-09
0.02522
1.17552e-09
-1.06221e-09
0.02522
-3.11873e-09
2.87773e-09
0.02522
2.52323e-09
-2.8445e-09
0.02522
-1.50816e-10
-5.78249e-12
0.02522
-2.06898e-09
2.2609e-09
0.02522
3.00309e-09
-2.75382e-09
0.02522
-1.01916e-09
9.91694e-10
0.02522
-2.39931e-09
2.04899e-09
0.02522
3.27947e-09
-3.59786e-09
0.02522
-4.55846e-10
3.30072e-10
0.02522
-3.6163e-09
3.72198e-09
0.02522
3.23006e-09
-2.98508e-09
0.02522
2.51229e-09
-2.2343e-09
0.02522
-4.18021e-09
4.35745e-09
0.02522
-1.44941e-10
3.24734e-11
0.02522
4.01639e-09
-4.13125e-09
0.02522
-1.67081e-09
1.61859e-09
0.02522
-3.50871e-09
3.54559e-09
0.02522
1.28072e-09
-1.15971e-09
0.02522
1.17164e-09
-1.19031e-09
0.02522
-1.47036e-09
1.23765e-09
0.02522
-2.75392e-09
2.53027e-09
0.02522
-3.49094e-10
3.13522e-10
0.02522
1.33612e-09
-1.07391e-09
0.02522
2.01053e-09
-1.72198e-09
0.02522
-1.70686e-09
1.90419e-09
0.02522
-3.0203e-09
2.85616e-09
0.02522
3.17861e-10
-4.39649e-10
0.02522
3.41312e-09
-3.48337e-09
0.02522
1.74268e-09
-1.68503e-09
0.02522
-1.27392e-09
1.46953e-09
0.02522
-2.45851e-10
-1.4757e-10
0.02522
1.63211e-10
-3.84563e-10
0.02522
1.256e-09
-1.27093e-09
0.02522
-4.99298e-10
4.09907e-10
-4.21294e-10
4.86503e-10
0.0532084
-0.0525046
0.0562672
-0.0451871
0.0571585
0.022042
0.0528089
0.0292819
0.0465984
-0.0238753
0.0419305
-0.0725676
0.0375696
-0.0837429
0.0327027
-0.0710599
0.0292106
-0.0546612
0.0275394
-0.0401852
0.0267158
-0.0282577
0.0261901
-0.0191878
0.0258198
-0.0128093
0.0255777
-0.00852583
0.0254306
-0.00567139
0.025344
-0.00376189
0.0252932
-0.00248407
0.0252635
-0.00163222
0.0252461
-0.00106741
0.0252358
-0.000694997
0.0252297
-0.000450688
0.025226
-0.000291162
0.0252237
-0.000187439
0.0252223
-0.000120257
0.0252214
-7.68982e-05
0.0252209
-4.90138e-05
0.0252206
-3.1141e-05
0.0252204
-1.97216e-05
0.0252202
-1.24477e-05
0.0252201
-7.83371e-06
0.0252201
-4.91743e-06
0.02522
-3.07235e-06
0.02522
-1.91318e-06
0.02522
-1.18932e-06
0.02522
-7.36902e-07
0.02522
-4.5327e-07
0.02522
-2.7904e-07
0.02522
-1.72616e-07
0.02522
-1.03567e-07
0.02522
-6.0842e-08
0.02522
-4.01768e-08
0.02522
-2.67234e-08
0.02522
-1.59309e-08
0.02522
-8.49004e-09
0.02522
-2.24853e-09
0.02522
-4.13771e-09
0.02522
-3.89797e-09
0.02522
2.03315e-09
0.02522
-4.68378e-10
0.02522
-3.62067e-09
0.02522
-1.53705e-09
0.02522
-5.96331e-10
0.02522
7.74322e-10
0.02522
2.57169e-09
0.02522
-1.97545e-09
0.02522
-2.92962e-09
0.02522
1.72926e-09
0.02522
1.34157e-09
0.02522
1.05057e-09
0.02522
-4.84261e-10
0.02522
-2.16866e-09
0.02522
9.32102e-10
0.02522
3.05949e-09
0.02522
2.86431e-09
0.02522
3.94508e-10
0.02522
-3.00488e-09
0.02522
-2.07453e-09
0.02522
4.87502e-10
0.02522
1.67717e-09
0.02522
2.00036e-09
0.02522
-5.717e-10
0.02522
-3.04572e-09
0.02522
-1.85032e-09
0.02522
-3.4201e-10
0.02522
7.23674e-10
0.02522
2.41852e-09
0.02522
2.18547e-09
0.02522
2.27401e-10
0.02522
-1.04063e-09
0.02522
-1.58476e-09
0.02522
-8.22671e-10
0.02522
8.36176e-10
0.02522
1.02465e-09
0.02522
-8.7212e-10
0.02522
-2.68804e-09
0.02522
-2.50673e-09
0.02522
-6.21597e-10
0.02522
1.35001e-09
0.02522
1.33625e-09
0.02522
5.90372e-10
0.02522
-4.34871e-10
0.02522
5.37747e-11
0.02522
3.02755e-10
0.02522
8.34107e-10
0.02522
2.24298e-10
0.02522
-1.00985e-09
0.02522
-5.29606e-10
0.02522
2.53059e-10
0.02522
8.00058e-10
4.52248e-10
0.0450528
-0.0480251
0.0523601
-0.0524944
0.0560475
0.0183546
0.0532429
0.0320866
0.0483968
-0.0190293
0.0420175
-0.0661883
0.037326
-0.0790515
0.0336822
-0.0674161
0.0302584
-0.0512374
0.0281934
-0.0381201
0.0271099
-0.0271742
0.0264504
-0.0185283
0.026001
-0.0123599
0.0256987
-0.00822349
0.0255077
-0.00548044
0.0253927
-0.00364689
0.0253245
-0.00241586
0.0252838
-0.00159157
0.0252594
-0.00104292
0.0252444
-0.000680075
0.0252353
-0.000441506
0.0252296
-0.000285467
0.025226
-0.000183885
0.0252238
-0.000118028
0.0252224
-7.54966e-05
0.0252215
-4.81313e-05
0.0252209
-3.05843e-05
0.0252206
-1.93714e-05
0.0252204
-1.2227e-05
0.0252202
-7.69537e-06
0.0252201
-4.83084e-06
0.0252201
-3.01822e-06
0.02522
-1.87913e-06
0.02522
-1.16832e-06
0.02522
-7.24056e-07
0.02522
-4.45638e-07
0.02522
-2.73627e-07
0.02522
-1.6962e-07
0.02522
-1.01488e-07
0.02522
-5.95917e-08
0.02522
-3.99749e-08
0.02522
-2.62156e-08
0.02522
-1.55907e-08
0.02522
-8.49961e-09
0.02522
-1.87076e-09
0.02522
-4.05454e-09
0.02522
-4.18954e-09
0.02522
2.52759e-09
0.02522
-5.80842e-10
0.02522
-4.06431e-09
0.02522
-1.29178e-09
0.02522
-7.8648e-10
0.02522
7.35519e-10
0.02522
2.66582e-09
0.02522
-1.88442e-09
0.02522
-3.21171e-09
0.02522
1.8291e-09
0.02522
1.487e-09
0.02522
8.03909e-10
0.02522
-1.74875e-10
0.02522
-2.16913e-09
0.02522
6.36868e-10
0.02522
3.45455e-09
0.02522
2.90331e-09
0.02522
2.75061e-10
0.02522
-2.72422e-09
0.02522
-2.37621e-09
0.02522
3.99005e-10
0.02522
1.96813e-09
0.02522
1.72397e-09
0.02522
-5.74838e-10
0.02522
-2.9157e-09
0.02522
-2.25002e-09
0.02522
-3.29881e-10
0.02522
1.09731e-09
0.02522
2.17973e-09
0.02522
2.08993e-09
0.02522
7.64368e-10
0.02522
-1.0248e-09
0.02522
-1.99653e-09
0.02522
-7.58746e-10
0.02522
1.1664e-09
0.02522
9.39272e-10
0.02522
-1.21489e-09
0.02522
-2.85811e-09
0.02522
-2.33084e-09
0.02522
-4.37311e-10
0.02522
1.44117e-09
0.02522
1.30034e-09
0.02522
6.59129e-10
0.02522
-4.23621e-10
0.02522
-1.35224e-11
0.02522
6.67804e-11
0.02522
7.52388e-10
0.02522
6.86139e-10
0.02522
-1.19326e-09
0.02522
-5.86901e-10
0.02522
4.03361e-10
0.02522
4.64084e-10
2.55899e-10
0.0516908
-0.0379327
0.0491259
-0.0499295
0.0527199
0.0147606
0.0518843
0.0329221
0.0486307
-0.0157757
0.0418003
-0.0593579
0.0361827
-0.0734339
0.0334887
-0.0647221
0.0309327
-0.0486815
0.0288097
-0.0359971
0.0275245
-0.025889
0.0266986
-0.0177024
0.0261517
-0.011813
0.0258019
-0.00787372
0.0255806
-0.0052591
0.0254419
-0.00350825
0.0253565
-0.00233041
0.0253043
-0.00153943
0.0252725
-0.00101108
0.0252529
-0.000660459
0.0252407
-0.00042931
0.025233
-0.000277825
0.0252282
-0.000179073
0.0252252
-0.00011499
0.0252233
-7.35756e-05
0.0252221
-4.69166e-05
0.0252213
-2.98163e-05
0.0252208
-1.88864e-05
0.0252205
-1.19218e-05
0.0252203
-7.50358e-06
0.0252202
-4.71041e-06
0.0252201
-2.94258e-06
0.0252201
-1.83227e-06
0.02522
-1.13937e-06
0.02522
-7.05888e-07
0.02522
-4.34779e-07
0.02522
-2.66783e-07
0.02522
-1.64949e-07
0.02522
-9.87185e-08
0.02522
-5.86731e-08
0.02522
-3.96544e-08
0.02522
-2.48945e-08
0.02522
-1.4605e-08
0.02522
-8.64047e-09
0.02522
-1.98654e-09
0.02522
-3.73459e-09
0.02522
-4.07244e-09
0.02522
2.43066e-09
0.02522
-8.45541e-10
0.02522
-4.15308e-09
0.02522
-7.30882e-10
0.02522
-6.76684e-10
0.02522
3.11549e-10
0.02522
2.29347e-09
0.02522
-1.61645e-09
0.02522
-2.77773e-09
0.02522
1.66484e-09
0.02522
1.41897e-09
0.02522
3.73447e-10
0.02522
6.26735e-11
0.02522
-1.68348e-09
0.02522
5.17329e-10
0.02522
3.31165e-09
0.02522
2.57653e-09
0.02522
2.32659e-10
0.02522
-2.43125e-09
0.02522
-2.17491e-09
0.02522
5.12923e-10
0.02522
1.73722e-09
0.02522
1.34439e-09
0.02522
-5.51222e-10
0.02522
-2.71537e-09
0.02522
-2.11519e-09
0.02522
-1.74712e-10
0.02522
9.49997e-10
0.02522
1.94453e-09
0.02522
2.16422e-09
0.02522
7.55138e-10
0.02522
-1.04114e-09
0.02522
-1.77483e-09
0.02522
-6.13432e-10
0.02522
1.03766e-09
0.02522
7.23015e-10
0.02522
-1.34293e-09
0.02522
-2.82446e-09
0.02522
-2.18743e-09
0.02522
-2.06205e-10
0.02522
1.60242e-09
0.02522
1.27422e-09
0.02522
4.86356e-10
0.02522
-7.2195e-10
0.02522
-1.55258e-11
0.02522
1.1432e-10
0.02522
7.41223e-10
0.02522
1.04299e-09
0.02522
-1.38287e-09
0.02522
-4.53093e-10
0.02522
6.90402e-10
0.02522
-2.16321e-11
-6.62368e-11
0.0553786
-0.0329657
0.0472954
-0.0418463
0.0465133
0.0155427
0.0486109
0.0308245
0.0481576
-0.0153223
0.0433535
-0.0545538
0.036534
-0.0666144
0.0328832
-0.0610713
0.0311533
-0.0469516
0.0292974
-0.0341411
0.0279234
-0.024515
0.026996
-0.0167751
0.0263274
-0.0111444
0.0258922
-0.0074386
0.0256326
-0.00499947
0.0254778
-0.00335347
0.0253825
-0.00223507
0.0253226
-0.00147955
0.0252848
-0.000973303
0.025261
-0.000636627
0.025246
-0.000414262
0.0252364
-0.000268307
0.0252304
-0.000173042
0.0252266
-0.000111165
0.0252242
-7.11492e-05
0.0252226
-4.53784e-05
0.0252216
-2.88419e-05
0.025221
-1.82706e-05
0.0252206
-1.15339e-05
0.0252204
-7.2595e-06
0.0252202
-4.55703e-06
0.0252201
-2.84639e-06
0.0252201
-1.7726e-06
0.0252201
-1.10244e-06
0.02522
-6.82848e-07
0.02522
-4.20854e-07
0.02522
-2.57774e-07
0.02522
-1.59323e-07
0.02522
-9.57962e-08
0.02522
-5.71371e-08
0.02522
-3.86418e-08
0.02522
-2.35516e-08
0.02522
-1.35531e-08
0.02522
-8.6621e-09
0.02522
-1.94362e-09
0.02522
-3.49008e-09
0.02522
-4.22398e-09
0.02522
2.5191e-09
0.02522
-8.0024e-10
0.02522
-4.3493e-09
0.02522
-4.60573e-10
0.02522
-5.27808e-10
0.02522
-3.15608e-11
0.02522
2.15303e-09
0.02522
-1.31525e-09
0.02522
-2.75554e-09
0.02522
1.62855e-09
0.02522
1.37273e-09
0.02522
1.81036e-10
0.02522
2.02837e-10
0.02522
-1.39313e-09
0.02522
4.0163e-10
0.02522
3.09256e-09
0.02522
2.4895e-09
0.02522
2.06441e-10
0.02522
-2.20576e-09
0.02522
-1.99116e-09
0.02522
4.55e-10
0.02522
1.56494e-09
0.02522
1.16059e-09
0.02522
-5.61645e-10
0.02522
-2.52511e-09
0.02522
-1.98198e-09
0.02522
-1.69513e-10
0.02522
8.70401e-10
0.02522
1.81451e-09
0.02522
2.08883e-09
0.02522
8.15876e-10
0.02522
-9.52774e-10
0.02522
-1.66023e-09
0.02522
-5.6604e-10
0.02522
9.48649e-10
0.02522
6.04056e-10
0.02522
-1.42534e-09
0.02522
-2.81676e-09
0.02522
-2.00678e-09
0.02522
-3.68306e-11
0.02522
1.70781e-09
0.02522
1.20027e-09
0.02522
3.63265e-10
0.02522
-9.40431e-10
0.02522
4.02134e-11
0.02522
1.20738e-10
0.02522
7.16642e-10
0.02522
1.37569e-09
0.02522
-1.61145e-09
0.02522
-3.2971e-10
0.02522
9.28215e-10
0.02522
-4.89816e-10
-3.71765e-10
0.0469585
-0.0268042
0.0421386
-0.0370265
0.0430801
0.0146012
0.0477872
0.0261174
0.0479654
-0.0155005
0.0444711
-0.0510595
0.0380478
-0.0601911
0.0325719
-0.0555953
0.0306919
-0.0450716
0.0294998
-0.032949
0.0281338
-0.0231489
0.0271732
-0.0158145
0.0265264
-0.0104975
0.0260548
-0.00696704
0.0257334
-0.00467803
0.0255334
-0.00315355
0.0254136
-0.00211528
0.0253413
-0.00140725
0.0252968
-0.000928706
0.0252687
-0.000608624
0.025251
-0.00039651
0.0252397
-0.000257011
0.0252325
-0.000165848
0.0252279
-0.000106584
0.025225
-6.82358e-05
0.0252232
-4.35278e-05
0.025222
-2.76684e-05
0.0252212
-1.75283e-05
0.0252208
-1.1066e-05
0.0252205
-6.96495e-06
0.0252203
-4.37177e-06
0.0252202
-2.73024e-06
0.0252201
-1.7006e-06
0.0252201
-1.05794e-06
0.02522
-6.54995e-07
0.02522
-4.03734e-07
0.02522
-2.4701e-07
0.02522
-1.52788e-07
0.02522
-9.22424e-08
0.02522
-5.51456e-08
0.02522
-3.74035e-08
0.02522
-2.19574e-08
0.02522
-1.22502e-08
0.02522
-8.58787e-09
0.02522
-2.05628e-09
0.02522
-3.22984e-09
0.02522
-4.22686e-09
0.02522
2.49897e-09
0.02522
-8.31569e-10
0.02522
-4.50392e-09
0.02522
-8.70424e-11
0.02522
-3.1229e-10
0.02522
-3.99322e-10
0.02522
1.90682e-09
0.02522
-1.11342e-09
0.02522
-2.44721e-09
0.02522
1.49265e-09
0.02522
1.32964e-09
0.02522
-7.32949e-11
0.02522
2.66734e-10
0.02522
-9.87541e-10
0.02522
3.22277e-10
0.02522
2.89618e-09
0.02522
2.28619e-09
0.02522
1.30038e-10
0.02522
-1.98259e-09
0.02522
-1.77993e-09
0.02522
4.95813e-10
0.02522
1.39997e-09
0.02522
8.55892e-10
0.02522
-5.47939e-10
0.02522
-2.30003e-09
0.02522
-1.85495e-09
0.02522
-9.78487e-11
0.02522
7.88867e-10
0.02522
1.61833e-09
0.02522
2.08264e-09
0.02522
8.16214e-10
0.02522
-9.53156e-10
0.02522
-1.49364e-09
0.02522
-4.49024e-10
0.02522
8.54445e-10
0.02522
4.32233e-10
0.02522
-1.50715e-09
0.02522
-2.7361e-09
0.02522
-1.83396e-09
0.02522
1.47177e-10
0.02522
1.7824e-09
0.02522
1.11434e-09
0.02522
2.48425e-10
0.02522
-1.15999e-09
0.02522
9.52184e-11
0.02522
1.35397e-10
0.02522
6.7095e-10
0.02522
1.68499e-09
0.02522
-1.86238e-09
0.02522
-1.47693e-10
0.02522
1.23937e-09
0.02522
-9.91271e-10
-6.86915e-10
0.0487715
-0.0226535
0.0444283
-0.0326833
0.0463102
0.0127193
0.051191
0.0212366
0.0503281
-0.0146376
0.0461423
-0.0468737
0.0415338
-0.0555826
0.035312
-0.0493735
0.0309837
-0.0407434
0.0296538
-0.0316191
0.0285056
-0.0220008
0.0272343
-0.0145431
0.0264189
-0.00968219
0.0259921
-0.0065402
0.0257362
-0.0044221
0.0255604
-0.00297777
0.0254395
-0.00199443
0.0253599
-0.0013276
0.0253089
-0.000877681
0.0252765
-0.000576246
0.0252559
-0.000375961
0.0252429
-0.000243938
0.0252345
-0.000157516
0.0252292
-0.000101274
0.0252258
-6.48546e-05
0.0252237
-4.13776e-05
0.0252223
-2.63037e-05
0.0252215
-1.66647e-05
0.0252209
-1.05214e-05
0.0252206
-6.62192e-06
0.0252203
-4.15584e-06
0.0252202
-2.59507e-06
0.0252201
-1.6168e-06
0.0252201
-1.00606e-06
0.02522
-6.2247e-07
0.02522
-3.83635e-07
0.02522
-2.34555e-07
0.02522
-1.4531e-07
0.02522
-8.82333e-08
0.02522
-5.2729e-08
0.02522
-3.56114e-08
0.02522
-2.02301e-08
0.02522
-1.09235e-08
0.02522
-8.47302e-09
0.02522
-2.11826e-09
0.02522
-2.93524e-09
0.02522
-4.32077e-09
0.02522
2.48049e-09
0.02522
-6.78022e-10
0.02522
-4.62246e-09
0.02522
9.54214e-11
0.02522
-1.17343e-10
0.02522
-6.59812e-10
0.02522
1.70943e-09
0.02522
-8.12877e-10
0.02522
-2.37078e-09
0.02522
1.37621e-09
0.02522
1.33423e-09
0.02522
-2.23224e-10
0.02522
3.00407e-10
0.02522
-7.16682e-10
0.02522
2.61357e-10
0.02522
2.65069e-09
0.02522
2.17218e-09
0.02522
1.18886e-10
0.02522
-1.81074e-09
0.02522
-1.59841e-09
0.02522
4.84454e-10
0.02522
1.20502e-09
0.02522
6.94735e-10
0.02522
-5.16395e-10
0.02522
-2.10671e-09
0.02522
-1.73954e-09
0.02522
-8.60532e-11
0.02522
7.09593e-10
0.02522
1.49943e-09
0.02522
2.00218e-09
0.02522
8.30398e-10
0.02522
-8.94277e-10
0.02522
-1.38264e-09
0.02522
-3.78777e-10
0.02522
7.70928e-10
0.02522
3.14692e-10
0.02522
-1.52985e-09
0.02522
-2.65615e-09
0.02522
-1.64705e-09
0.02522
2.72668e-10
0.02522
1.80348e-09
0.02522
9.94321e-10
0.02522
1.92504e-10
0.02522
-1.33169e-09
0.02522
2.10692e-10
0.02522
1.13518e-10
0.02522
6.00956e-10
0.02522
1.99432e-09
0.02522
-2.17979e-09
0.02522
6.78881e-11
0.02522
1.51012e-09
0.02522
-1.51425e-09
-9.71173e-10
0.0491694
-0.021189
0.0472659
-0.0307798
0.0487936
0.0111916
0.0511061
0.0189241
0.04987
-0.0134014
0.044724
-0.0417278
0.0412168
-0.0520754
0.0384217
-0.0465784
0.0332675
-0.0355891
0.0298247
-0.0281763
0.0288628
-0.0210388
0.0280506
-0.0137309
0.027018
-0.00864964
0.0262503
-0.00577251
0.0258191
-0.0039909
0.0255885
-0.00274714
0.0254553
-0.00186117
0.025372
-0.00124429
0.0253181
-0.000823802
0.0252831
-0.000541224
0.0252604
-0.000353292
0.0252458
-0.00022934
0.0252364
-0.000148151
0.0252304
-9.52831e-05
0.0252266
-6.10315e-05
0.0252242
-3.89432e-05
0.0252226
-2.47576e-05
0.0252216
-1.56858e-05
0.025221
-9.9038e-06
0.0252206
-6.23271e-06
0.0252204
-3.91085e-06
0.0252202
-2.44183e-06
0.0252201
-1.52174e-06
0.0252201
-9.47162e-07
0.0252201
-5.85479e-07
0.02522
-3.60694e-07
0.02522
-2.20569e-07
0.02522
-1.36967e-07
0.02522
-8.36549e-08
0.02522
-4.97866e-08
0.02522
-3.3457e-08
0.02522
-1.84148e-08
0.02522
-9.53605e-09
0.02522
-8.27439e-09
0.02522
-2.22539e-09
0.02522
-2.618e-09
0.02522
-4.34144e-09
0.02522
2.42004e-09
0.02522
-5.38737e-10
0.02522
-4.71943e-09
0.02522
2.90844e-10
0.02522
1.47863e-10
0.02522
-9.42728e-10
0.02522
1.50787e-09
0.02522
-6.10451e-10
0.02522
-2.16043e-09
0.02522
1.24065e-09
0.02522
1.30648e-09
0.02522
-3.52113e-10
0.02522
2.68228e-10
0.02522
-4.17973e-10
0.02522
2.38355e-10
0.02522
2.41858e-09
0.02522
2.00949e-09
0.02522
6.35369e-11
0.02522
-1.65115e-09
0.02522
-1.39748e-09
0.02522
4.98482e-10
0.02522
1.05872e-09
0.02522
4.76637e-10
0.02522
-4.96311e-10
0.02522
-1.89119e-09
0.02522
-1.61015e-09
0.02522
-6.8418e-11
0.02522
6.64852e-10
0.02522
1.34629e-09
0.02522
1.93168e-09
0.02522
8.19876e-10
0.02522
-8.86975e-10
0.02522
-1.24795e-09
0.02522
-2.80343e-10
0.02522
6.93767e-10
0.02522
1.87604e-10
0.02522
-1.55883e-09
0.02522
-2.53e-09
0.02522
-1.4539e-09
0.02522
3.96488e-10
0.02522
1.79591e-09
0.02522
8.61661e-10
0.02522
1.41828e-10
0.02522
-1.4778e-09
0.02522
3.33421e-10
0.02522
6.44998e-11
0.02522
5.26482e-10
0.02522
2.28799e-09
0.02522
-2.53179e-09
0.02522
3.36578e-10
0.02522
1.84251e-09
0.02522
-2.06045e-09
-1.27079e-09
0.0491217
-0.0196062
0.045817
-0.0274751
0.0463701
0.0106385
0.0490537
0.0162405
0.0494133
-0.013761
0.0456343
-0.0379487
0.0393107
-0.0457518
0.0369036
-0.0441714
0.0356194
-0.0343049
0.0314147
-0.0239717
0.0279646
-0.0175887
0.026828
-0.0125943
0.0265188
-0.00834047
0.0262209
-0.00547454
0.0259061
-0.00367619
0.0256597
-0.00250072
0.0254961
-0.00169751
0.0253937
-0.00114197
0.0253302
-0.000760229
0.0252902
-0.000501269
0.0252648
-0.000327905
0.0252486
-0.000213119
0.0252382
-0.000137767
0.0252316
-8.8641e-05
0.0252273
-5.67907e-05
0.0252246
-3.62412e-05
0.0252229
-2.30407e-05
0.0252218
-1.45985e-05
0.0252211
-9.21736e-06
0.0252207
-5.80005e-06
0.0252204
-3.63858e-06
0.0252203
-2.27158e-06
0.0252202
-1.41609e-06
0.0252201
-8.81608e-07
0.0252201
-5.44251e-07
0.02522
-3.35151e-07
0.02522
-2.05152e-07
0.02522
-1.27765e-07
0.02522
-7.8464e-08
0.02522
-4.63798e-08
0.02522
-3.09373e-08
0.02522
-1.65334e-08
0.02522
-8.17813e-09
0.02522
-8.02211e-09
0.02522
-2.31625e-09
0.02522
-2.25254e-09
0.02522
-4.33553e-09
0.02522
2.29504e-09
0.02522
-3.09891e-10
0.02522
-4.74107e-09
0.02522
3.99764e-10
0.02522
3.57027e-10
0.02522
-1.12797e-09
0.02522
1.30233e-09
0.02522
-3.51731e-10
0.02522
-2.03773e-09
0.02522
1.07943e-09
0.02522
1.31454e-09
0.02522
-4.30613e-10
0.02522
2.29025e-10
0.02522
-2.08443e-10
0.02522
2.23451e-10
0.02522
2.16445e-09
0.02522
1.87047e-09
0.02522
5.77795e-11
0.02522
-1.50601e-09
0.02522
-1.23107e-09
0.02522
4.98579e-10
0.02522
8.81853e-10
0.02522
3.34225e-10
0.02522
-4.33097e-10
0.02522
-1.69171e-09
0.02522
-1.51153e-09
0.02522
-5.84439e-11
0.02522
5.98899e-10
0.02522
1.23487e-09
0.02522
1.83356e-09
0.02522
7.8976e-10
0.02522
-8.38124e-10
0.02522
-1.14109e-09
0.02522
-2.08631e-10
0.02522
6.2567e-10
0.02522
8.11818e-11
0.02522
-1.53083e-09
0.02522
-2.38256e-09
0.02522
-1.26371e-09
0.02522
4.67236e-10
0.02522
1.74776e-09
0.02522
7.02235e-10
0.02522
1.52912e-10
0.02522
-1.60387e-09
0.02522
5.04977e-10
0.02522
-8.49464e-12
0.02522
4.23566e-10
0.02522
2.59808e-09
0.02522
-2.9627e-09
0.02522
6.63897e-10
0.02522
2.15667e-09
0.02522
-2.66138e-09
-1.53336e-09
0.0488032
-0.0178265
0.0445288
-0.0232007
0.0454705
0.00969683
0.0474602
0.0142507
0.0461024
-0.0124032
0.0450235
-0.0368698
0.0403534
-0.0410816
0.0335669
-0.0373849
0.0326502
-0.0333882
0.0338234
-0.0251449
0.0317608
-0.0155261
0.0286654
-0.00949891
0.0268573
-0.0065324
0.0261224
-0.00473966
0.025806
-0.00335979
0.0256207
-0.00231538
0.0254912
-0.00156799
0.0253997
-0.00105049
0.0253372
-0.000697773
0.0252958
-0.0004598
0.0252687
-0.000300824
0.0252512
-0.000195594
0.0252399
-0.000126485
0.0252326
-8.14045e-05
0.025228
-5.21636e-05
0.0252251
-3.32907e-05
0.0252232
-2.11652e-05
0.025222
-1.34101e-05
0.0252213
-8.46677e-06
0.0252208
-5.32692e-06
0.0252205
-3.34096e-06
0.0252203
-2.08553e-06
0.0252202
-1.30054e-06
0.0252201
-8.09791e-07
0.0252201
-4.99115e-07
0.02522
-3.07219e-07
0.02522
-1.88417e-07
0.02522
-1.17728e-07
0.02522