/*--------------------------------*- C++ -*----------------------------------*\
| =========                 |                                                 |
| \\      /  F ield         | OpenFOAM: The Open Source CFD Toolbox           |
|  \\    /   O peration     | Version:  2.4.0                                 |
|   \\  /    A nd           | Web:      www.OpenFOAM.org                      |
|    \\/     M anipulation  |                                                 |
\*---------------------------------------------------------------------------*/
FoamFile
{
    version     2.0;
    format      ascii;
    class       volScalarField;
    location    "0.07";
    object      k_0;
}
// * * * * * * * * * * * * * * * * * * * * * * * * * * * * * * * * * * * * * //

dimensions      [0 2 -2 0 0 0 0];

internalField   nonuniform List<scalar> 
8800
(
8.12103
10.2615
8.7947
6.82438
5.70613
4.96874
4.53982
4.12736
3.9288
3.66238
3.56525
3.36117
3.32147
3.18064
3.14664
3.01532
2.99988
2.89179
2.83438
2.71019
1.40564
4.34708
5.31931
5.28992
5.13371
4.80199
4.58985
4.26736
4.13244
3.87502
3.77948
3.58275
3.52754
3.38425
3.34451
3.22527
3.20893
3.11596
3.08713
3.07082
0.0844827
0.730108
1.55827
1.93968
2.29289
2.42511
2.57995
2.6025
2.6222
2.58956
2.58312
2.54379
2.52093
2.46589
2.45624
2.40759
2.39668
2.35855
2.35929
2.35487
0.00336054
0.0696244
0.254643
0.410898
0.602386
0.701196
0.824543
0.944939
1.02603
1.07805
1.15255
1.22016
1.24487
1.29046
1.33173
1.36503
1.37572
1.40559
1.42071
1.46969
0.000123118
0.00489251
0.0239499
0.0453961
0.0944828
0.130425
0.155474
0.213726
0.244961
0.280819
0.309032
0.362002
0.379996
0.422241
0.446932
0.498913
0.514193
0.554796
0.571972
0.624795
2.5027e-05
0.000306181
0.00156179
0.00332575
0.00812152
0.0141633
0.0179449
0.0281671
0.033952
0.0438786
0.0497847
0.063267
0.0687732
0.0826564
0.0911963
0.109932
0.116048
0.132489
0.139159
0.153317
2.17019e-05
4.37707e-05
0.000127515
0.000235812
0.000522871
0.00103344
0.00136049
0.00233361
0.00287243
0.00388109
0.00451019
0.0060563
0.00672225
0.00853532
0.0101611
0.0138419
0.0151112
0.0185082
0.0188205
0.0193249
2.11348e-05
2.99422e-05
5.34618e-05
6.3491e-05
8.37515e-05
0.000123892
0.000145305
0.000208985
0.000245841
0.000289383
0.000322156
0.000409613
0.000436919
0.000507777
0.000626216
0.000962453
0.00116335
0.00139453
0.00135648
0.00146758
2.07917e-05
2.91712e-05
4.53525e-05
5.4537e-05
6.25824e-05
7.04502e-05
7.29858e-05
7.87264e-05
8.35749e-05
8.60961e-05
9.11871e-05
9.57805e-05
9.509e-05
9.5314e-05
9.71097e-05
0.000107334
0.00012093
0.000138479
0.000146642
0.000160133
2.06155e-05
2.74923e-05
3.86811e-05
5.48795e-05
6.19952e-05
6.53218e-05
6.61398e-05
6.64976e-05
6.70288e-05
6.95805e-05
7.29783e-05
7.61673e-05
7.68908e-05
7.59509e-05
7.49174e-05
7.51203e-05
7.47538e-05
7.64305e-05
8.17199e-05
0.000105961
2.06356e-05
2.74715e-05
3.64654e-05
5.73536e-05
6.5e-05
6.69925e-05
6.70325e-05
6.62197e-05
6.5865e-05
6.71889e-05
7.19823e-05
7.58332e-05
7.83859e-05
7.8912e-05
7.77236e-05
7.67075e-05
7.60531e-05
7.6904e-05
8.14909e-05
0.000102033
2.07821e-05
2.75762e-05
3.858e-05
6.57751e-05
7.35941e-05
7.38042e-05
7.34039e-05
7.20527e-05
7.24309e-05
8.28637e-05
9.2345e-05
0.000102782
0.000117676
0.000117829
0.000116556
0.000125204
0.000136289
0.000152823
0.000203534
0.000356689
2.10649e-05
2.88671e-05
4.75996e-05
0.000100644
0.000109491
0.000112457
0.000128858
0.000143965
0.000177494
0.000348179
0.000425999
0.000514577
0.000720727
0.00075332
0.0007834
0.00107189
0.00135012
0.00170124
0.00250191
0.00506709
2.1625e-05
4.26899e-05
0.000146078
0.000520825
0.000619776
0.000751069
0.00126644
0.00171236
0.00237024
0.00471008
0.00565954
0.00695358
0.00869022
0.00992322
0.0107878
0.0144268
0.0171773
0.0225863
0.0283209
0.0445635
2.50816e-05
0.00030716
0.00174844
0.00610258
0.00778639
0.0105573
0.0190037
0.0247913
0.0312303
0.049579
0.0558836
0.0663336
0.074315
0.0873584
0.0939856
0.114218
0.127125
0.155962
0.177903
0.241663
0.000123218
0.00492001
0.0249203
0.0635611
0.0817239
0.112091
0.174151
0.199937
0.234729
0.304004
0.325124
0.359393
0.390942
0.434804
0.4563
0.51277
0.544341
0.620149
0.668245
0.779928
0.0033473
0.0690623
0.264995
0.437005
0.554406
0.697353
0.858844
0.914858
1.01873
1.12454
1.16447
1.20295
1.26703
1.3126
1.33804
1.39397
1.42599
1.4982
1.53452
1.61186
0.0841802
0.72243
1.57933
1.94366
2.25457
2.44356
2.58959
2.59338
2.62837
2.60899
2.59088
2.53446
2.52357
2.48208
2.46769
2.42505
2.42113
2.40235
2.38957
2.36882
1.40014
4.3546
5.32568
5.28388
5.13037
4.80449
4.57449
4.29243
4.12926
3.85729
3.77605
3.5834
3.50973
3.35736
3.31852
3.1781
3.13883
3.00663
2.9461
2.808
8.11308
10.2728
8.79894
6.80489
5.7264
4.95958
4.52248
4.14545
3.92046
3.63426
3.54575
3.34683
3.2805
3.10485
3.06381
2.88876
2.82664
2.60774
2.50346
2.20802
1.8615
1.13031
0.698182
0.478318
0.357085
0.286456
0.23814
0.213748
0.202125
0.203888
0.225227
0.256799
0.306778
0.381404
0.433152
0.493861
0.532801
0.538777
0.536075
0.528182
0.505762
0.479115
0.444236
0.376283
0.32096
0.264626
0.201417
0.155231
0.108603
0.0838455
0.0823777
0.085801
0.0975143
0.124585
0.184116
0.279931
0.311433
0.309992
0.298115
0.276947
0.232596
0.196756
0.16938
0.146927
0.134063
0.128585
0.12881
0.130924
0.135926
0.140519
0.139751
0.136231
0.130678
0.118949
0.0980333
0.0545262
0.0310147
0.0195046
0.0140355
0.0133972
0.0142409
0.0183789
0.0338109
0.082813
0.220335
0.302341
0.311047
0.291969
0.238194
0.162621
0.122113
0.102209
0.0907334
0.0866424
0.0828084
0.0802839
0.0776073
0.0736255
0.0718982
0.0693317
0.067166
0.0665485
0.0671556
0.0701776
0.0817992
0.101152
0.107372
0.106605
0.103307
0.0953597
0.0764332
0.0627798
0.0551452
0.0544468
0.0559986
0.0576556
0.0640822
0.0656485
0.0729113
0.0743356
0.0787302
0.077152
0.0769721
0.074322
0.0730812
0.0690114
0.0674125
0.0635201
0.0575853
0.0474411
0.0380914
0.0286424
0.022856
0.0170713
0.0142833
0.0114611
0.0100764
0.00896874
0.00830478
0.00782
0.00751888
0.00714095
0.00676508
0.00643095
0.00610776
0.00589485
0.00579043
0.00572273
0.00566954
0.00561821
0.00552179
0.00514696
0.00449881
0.00390192
0.00320337
0.00267687
0.00232442
0.00191122
0.00163016
0.0014779
0.00129185
0.00112793
0.00109405
0.00105457
0.00101137
0.00100675
0.0010258
0.00104216
0.001079
0.00109958
0.00117616
0.00121501
0.00133498
0.00137874
0.00152214
0.00157406
0.00177891
0.00183338
0.00205808
0.00210252
0.00234042
0.00238417
0.00270709
0.00273629
0.00299999
0.00298999
0.00326208
0.00318294
0.00330087
0.00312162
0.00312411
0.00290154
0.00277944
0.00240996
0.00209284
0.00174039
0.00160623
0.00142748
0.00122746
0.00113769
0.00103973
0.000995965
0.000884895
0.00086432
0.000784738
0.000810091
0.000803159
0.000852879
0.000957421
0.000957475
0.00100516
0.000848163
0.00086009
0.000992326
0.00114252
0.00172297
0.00325727
0.00815539
0.0793268
0.671717
2.60972
2.1287
1.76353
1.45392
1.20799
1.05153
0.907766
0.834904
0.784068
0.740302
0.732175
0.71731
0.695128
0.683391
0.661591
0.627073
0.610161
0.58161
0.535896
0.506362
0.449784
0.383023
0.322649
0.239143
0.178499
0.116999
0.0772336
0.0590387
0.0440251
0.0354083
0.0329567
0.0333572
0.0363725
0.0468282
0.061015
0.0914326
0.151673
0.217055
0.254418
0.256723
0.252703
0.243927
0.227503
0.214994
0.20274
0.189041
0.17889
0.168461
0.160441
0.152445
0.143959
0.130738
0.114051
0.0792023
0.0431048
0.0240303
0.0163156
0.0121638
0.011754
0.0128075
0.0173943
0.0302725
0.0675511
0.191137
0.318068
0.345931
0.32684
0.269666
0.184658
0.134488
0.108054
0.0944819
0.0883976
0.086477
0.0824086
0.0805427
0.076719
0.0735373
0.0706806
0.0687846
0.0660434
0.0646821
0.0646012
0.0654669
0.0695072
0.0857246
0.0999573
0.104311
0.103252
0.099987
0.0909135
0.0732108
0.0644698
0.0577765
0.057955
0.058949
0.0612346
0.0663213
0.0682151
0.0749266
0.0750646
0.0765304
0.0738983
0.0727817
0.0668001
0.0659178
0.0642691
0.0621509
0.051087
0.0402513
0.0309934
0.0247475
0.0190169
0.0157266
0.0124558
0.0113584
0.00979183
0.00967223
0.00919598
0.00932718
0.00890966
0.0089757
0.00852869
0.00850578
0.00794402
0.00792305
0.00749
0.00749327
0.00721191
0.0071661
0.00684293
0.00676169
0.00610641
0.00564753
0.00455249
0.00397136
0.00298728
0.00276996
0.00226391
0.00208056
0.00175095
0.00167367
0.00144562
0.00144103
0.00137033
0.00132941
0.00124452
0.00126279
0.0012169
0.00121195
0.00119449
0.0011955
0.00118187
0.0011956
0.00120443
0.00120249
0.00122968
0.00125024
0.00132281
0.00134728
0.00150765
0.00154734
0.00169661
0.00177891
0.00212145
0.00221377
0.0025101
0.00268221
0.00305894
0.00340037
0.00364568
0.00417654
0.00427976
0.00472757
0.00475314
0.0049976
0.00476161
0.00454663
0.00377407
0.00338912
0.00267711
0.00227646
0.00199923
0.00162181
0.00154279
0.00128584
0.00125629
0.00109001
0.00117209
0.0011494
0.00120281
0.00147299
0.00135703
0.00167488
0.00160698
0.00180962
0.00556092
0.00849431
0.0717506
0.324129
2.13382
1.88612
1.69552
1.54125
1.37771
1.27001
1.16058
1.06477
0.999222
0.935267
0.86
0.818473
0.76328
0.698158
0.666299
0.600346
0.54471
0.491535
0.410417
0.34613
0.267184
0.193886
0.133551
0.0873372
0.0618946
0.0422537
0.0301279
0.0241723
0.017834
0.0151233
0.0140146
0.0137238
0.0143989
0.0170672
0.0200096
0.0281464
0.0411486
0.0593506
0.0999101
0.131677
0.168058
0.188925
0.191621
0.190972
0.187425
0.180257
0.172461
0.15866
0.1496
0.131714
0.111714
0.0833525
0.0490466
0.0286327
0.0168102
0.0119451
0.0100722
0.0100809
0.0113175
0.0173899
0.0310284
0.0605659
0.142052
0.321893
0.380139
0.366341
0.312496
0.216418
0.155511
0.118234
0.099703
0.0911046
0.088635
0.0863645
0.0817777
0.0795131
0.0745126
0.0732674
0.070059
0.0687465
0.0654572
0.0648431
0.0637041
0.0640892
0.0655094
0.073482
0.0924185
0.101201
0.102203
0.101143
0.0973706
0.0854792
0.072768
0.0664126
0.061511
0.062715
0.0627818
0.0666618
0.0683047
0.0736756
0.0747313
0.0743452
0.0721651
0.0639747
0.0609863
0.0596516
0.0589928
0.0544423
0.0406296
0.0302771
0.0234654
0.0185889
0.0156496
0.0129203
0.0116874
0.0102219
0.0100031
0.00953891
0.00963544
0.00921453
0.00930191
0.00884824
0.00902348
0.00863316
0.00880816
0.00850143
0.00872402
0.00844324
0.00860899
0.00836559
0.00824297
0.00744359
0.00672757
0.0059717
0.00533031
0.00495974
0.00458868
0.00461344
0.00447732
0.00452877
0.00449624
0.00476769
0.00464426
0.00495211
0.004902
0.00512838
0.0050944
0.00560029
0.00543544
0.0056916
0.00568577
0.00613104
0.00591189
0.00618659
0.00611684
0.00637983
0.00606816
0.00618984
0.0060583
0.00599994
0.00543997
0.00530349
0.00517102
0.00470244
0.00414094
0.00395164
0.00385609
0.00351289
0.00336397
0.00343047
0.00347555
0.00367766
0.00382039
0.00440177
0.00462162
0.00537945
0.00563237
0.00640368
0.00669322
0.00717974
0.00704893
0.0065858
0.00586455
0.00441494
0.00340272
0.00287011
0.00229336
0.00232041
0.00202906
0.00221136
0.00181864
0.001758
0.00187169
0.00195308
0.00527106
0.00422641
0.0269139
0.0161015
0.040357
0.14824
1.38379
1.28566
1.18189
1.10157
1.04254
0.953557
0.894738
0.828994
0.747584
0.710244
0.636175
0.588581
0.539408
0.464741
0.423129
0.352829
0.293709
0.238009
0.171355
0.126244
0.0880779
0.061643
0.0423771
0.0291598
0.0214569
0.0149006
0.011526
0.00900533
0.00674092
0.00604501
0.00561686
0.00544029
0.00566741
0.00627774
0.00686198
0.00881531
0.0116888
0.0167157
0.0275122
0.0347752
0.0533226
0.0679504
0.0833964
0.0970024
0.0989159
0.0978722
0.0934603
0.0853229
0.0728716
0.0539203
0.0385165
0.025192
0.0160709
0.0111132
0.00835515
0.00821009
0.00859157
0.0103913
0.0176662
0.0371341
0.0619309
0.11529
0.280847
0.40912
0.411574
0.369623
0.259683
0.18524
0.137777
0.109209
0.0947403
0.0900404
0.0886018
0.0844868
0.0812197
0.0761486
0.0734979
0.0728154
0.071285
0.0699783
0.0660866
0.0650654
0.0641691
0.0638412
0.0644817
0.0680473
0.0848514
0.096725
0.101698
0.10095
0.0999312
0.0954031
0.0819062
0.075353
0.0683171
0.0675529
0.0675308
0.0681677
0.070369
0.0729327
0.0747302
0.0730996
0.0679947
0.0625912
0.061556
0.0614003
0.0600339
0.0494392
0.0342782
0.0247567
0.0185455
0.0148517
0.0123843
0.0107566
0.00982994
0.0090315
0.00849137
0.00809124
0.0075738
0.00725112
0.00702704
0.00688681
0.00683255
0.00680197
0.00684546
0.0068239
0.00686797
0.00687136
0.00680675
0.00656326
0.00626967
0.00550257
0.00519966
0.00455547
0.00431507
0.00384607
0.00375647
0.00342516
0.0035222
0.0033775
0.00340736
0.00335449
0.00358308
0.00346047
0.00378476
0.00379808
0.00406929
0.00400386
0.00468917
0.00468382
0.00523401
0.00523054
0.00613807
0.00605584
0.00706745
0.00699216
0.00819863
0.00805948
0.00964229
0.00941918
0.0109523
0.0107217
0.0128274
0.0122247
0.0136829
0.0131051
0.0147699
0.0135823
0.0141829
0.0131615
0.0134403
0.0123442
0.0113933
0.0104486
0.00903794
0.00820019
0.00736803
0.00741822
0.00761114
0.00799031
0.00921501
0.00972591
0.0116378
0.0120633
0.0116636
0.00981492
0.00831206
0.00546977
0.00476522
0.00344848
0.00558843
0.00460994
0.0152733
0.0096002
0.0418431
0.0270559
0.0542595
0.0421234
0.0440626
0.0852166
0.601665
0.577918
0.54794
0.51223
0.49793
0.46435
0.432671
0.398283
0.348745
0.322174
0.275785
0.242267
0.206127
0.170147
0.142522
0.113377
0.0903644
0.0689793
0.0509392
0.0362885
0.0252373
0.0178995
0.0121555
0.00916083
0.00685384
0.00487106
0.00395365
0.00310252
0.00260897
0.00261399
0.00264748
0.00272561
0.00298913
0.00313261
0.00325323
0.00370831
0.0043266
0.00528747
0.0078549
0.00964594
0.0151786
0.0190332
0.0239729
0.0298991
0.0320931
0.0318747
0.030388
0.0275361
0.0225054
0.0172812
0.0125648
0.00893022
0.00690668
0.00638359
0.00662323
0.00761068
0.0103838
0.0186573
0.0447692
0.0740707
0.1122
0.21634
0.423452
0.462625
0.430164
0.318702
0.226001
0.16529
0.125368
0.102369
0.0922474
0.0896343
0.0875423
0.0824858
0.078953
0.0738313
0.0737739
0.0734738
0.0739359
0.0727375
0.0700782
0.0660347
0.0658097
0.0643494
0.0649967
0.067481
0.0815318
0.096362
0.102172
0.101624
0.100254
0.0995555
0.0934689
0.0849518
0.0789286
0.0734536
0.0719238
0.0715813
0.0738835
0.0748867
0.0753787
0.0728954
0.0678164
0.0662243
0.0650987
0.0635905
0.0506047
0.0370165
0.0244018
0.0185832
0.0140258
0.0117475
0.0100654
0.00891718
0.0083573
0.00774778
0.00738214
0.00701001
0.00687979
0.00672067
0.00676099
0.00675311
0.00679022
0.00679042
0.00680294
0.00673244
0.00666538
0.00644483
0.00630312
0.00591707
0.00565901
0.00518173
0.00483713
0.00438359
0.00421103
0.00376682
0.00357929
0.00333676
0.00309718
0.0029054
0.00283343
0.00263053
0.00256114
0.00250173
0.00246247
0.00245454
0.00249506
0.00247351
0.00248427
0.00253664
0.00259921
0.00262288
0.00280713
0.0029827
0.003071
0.00319894
0.0036587
0.00391105
0.00409014
0.00439975
0.00523177
0.0055711
0.0058988
0.00692166
0.00750877
0.00881641
0.0093542
0.0112767
0.0116188
0.0135076
0.0139035
0.0166945
0.0163654
0.0182904
0.0173469
0.0174535
0.0162092
0.0158841
0.0150475
0.0127805
0.0131835
0.0125408
0.0156415
0.0151926
0.0230429
0.0209392
0.0350777
0.0265222
0.0460198
0.0294781
0.0517974
0.0299968
0.0489389
0.0294345
0.0389111
0.0331775
0.0355226
0.0431145
0.0443612
0.0593861
0.149716
0.147691
0.144262
0.140347
0.138118
0.130537
0.120434
0.106343
0.092123
0.0781185
0.0671237
0.0568933
0.0478165
0.0412423
0.0338561
0.0277126
0.0214924
0.0161321
0.0117594
0.0081024
0.00585775
0.00417434
0.00314998
0.00259915
0.00195934
0.00155026
0.00139381
0.00136816
0.00140884
0.00162823
0.00181641
0.00198943
0.00230028
0.00230044
0.00228393
0.0023278
0.0023467
0.0024317
0.0027883
0.00322349
0.00402765
0.00561347
0.00671742
0.00779889
0.00886121
0.00892075
0.00870022
0.00813907
0.00688646
0.0058281
0.00486539
0.00482092
0.00504446
0.00571193
0.00779873
0.0128231
0.0230376
0.048508
0.0970611
0.129567
0.190691
0.386883
0.510347
0.492397
0.392546
0.273451
0.200638
0.150812
0.117525
0.0985397
0.0906034
0.0884533
0.0859227
0.0811664
0.0770986
0.0728575
0.0726411
0.0721335
0.0736523
0.0734455
0.0740056
0.070542
0.0701872
0.0659957
0.0660807
0.0686551
0.0826281
0.0978988
0.103219
0.103599
0.101289
0.100201
0.0982638
0.0908322
0.0868856
0.0830294
0.079915
0.079391
0.0801562
0.080283
0.0785437
0.0742881
0.0700683
0.0677388
0.0631613
0.0518759
0.0334395
0.0246263
0.0170762
0.0133408
0.0116394
0.0099484
0.00925015
0.00845486
0.00824204
0.00767101
0.00780617
0.00742744
0.00748395
0.00731446
0.00741268
0.00732401
0.00756236
0.00747619
0.00750572
0.00730603
0.007275
0.00693483
0.00688839
0.00646464
0.00632074
0.00585375
0.00583325
0.005408
0.00535605
0.00486863
0.00464923
0.00409251
0.00401321
0.00365107
0.00357443
0.00332717
0.003333
0.00329448
0.00338742
0.00324443
0.00331028
0.00329744
0.00348189
0.00341122
0.00356797
0.00354886
0.00377359
0.00376149
0.0040455
0.00402628
0.00432878
0.00434201
0.00479691
0.00482466
0.00529951
0.00538127
0.00628309
0.00639454
0.00746363
0.00759009
0.00982712
0.0099254
0.0127836
0.0129872
0.0194471
0.0191549
0.0292054
0.0281881
0.047456
0.0435987
0.0749368
0.0651734
0.115535
0.0942632
0.169617
0.133022
0.221584
0.169151
0.256536
0.194153
0.260828
0.194879
0.227098
0.170475
0.179836
0.134496
0.13309
0.0943266
0.0893056
0.0569819
0.0502874
0.0493739
0.0475234
0.0525949
0.0208801
0.0220707
0.0221574
0.0219677
0.0210919
0.0195914
0.0167505
0.0142121
0.0119319
0.00982041
0.00904907
0.00783052
0.00713485
0.00642606
0.00546813
0.00441796
0.00324861
0.00245487
0.00178141
0.00141964
0.00121423
0.00103765
0.000995526
0.000881173
0.000813251
0.000818837
0.000873875
0.00108234
0.00121031
0.0015067
0.00169553
0.00183129
0.00202066
0.0020155
0.00199029
0.00198065
0.00189614
0.00186043
0.00184436
0.0018622
0.00191271
0.00206181
0.00225806
0.00238225
0.00255036
0.00274191
0.00284276
0.00292902
0.00312293
0.00334806
0.0037157
0.00445569
0.00598324
0.00940341
0.0187945
0.0339226
0.0579779
0.118614
0.16974
0.211879
0.325587
0.538874
0.549789
0.4793
0.331922
0.248001
0.186922
0.142965
0.113778
0.0963734
0.0887142
0.0865579
0.0842778
0.0805007
0.0764321
0.0728139
0.0716389
0.0694677
0.0706004
0.0719276
0.0753303
0.0748498
0.0717301
0.0689252
0.0675212
0.0719924
0.0867576
0.102768
0.104564
0.106916
0.104394
0.100847
0.103058
0.100714
0.0972569
0.0913848
0.0902258
0.0877553
0.0867896
0.0869642
0.0808722
0.0759134
0.0686356
0.0624712
0.0462518
0.0340349
0.0228987
0.017875
0.0144286
0.0119223
0.0111861
0.0100744
0.00939757
0.00887414
0.00903741
0.0085497
0.00903171
0.00871967
0.00871048
0.00874135
0.00885182
0.00888792
0.00926199
0.00902184
0.00891848
0.0086166
0.00858854
0.00822555
0.00817975
0.00787991
0.00769943
0.00732063
0.00716732
0.00654037
0.00621043
0.00563703
0.0050453
0.00461574
0.00442992
0.00399462
0.00379844
0.00362943
0.00359421
0.00355821
0.00358581
0.00355925
0.00357412
0.00360741
0.00375679
0.003789
0.00389454
0.00398113
0.00422104
0.00432483
0.00459848
0.00472735
0.00504637
0.0052225
0.00566898
0.00583587
0.00627389
0.00647604
0.00706567
0.00729854
0.00794796
0.00841879
0.00895438
0.00960585
0.0103187
0.011807
0.0123252
0.0139856
0.014846
0.0181558
0.0193805
0.0246865
0.0257596
0.0329115
0.0359328
0.049541
0.0536869
0.0713877
0.0753995
0.0980544
0.103534
0.131677
0.13525
0.156434
0.155616
0.161059
0.158589
0.149987
0.14628
0.12815
0.124568
0.105006
0.0945153
0.0785734
0.0627097
0.0589598
0.0016521
0.00173175
0.00171974
0.00170286
0.00156041
0.00127712
0.00105431
0.000994155
0.000976795
0.000994727
0.000976274
0.000928776
0.000799025
0.000681744
0.000576059
0.000469684
0.000443903
0.000454861
0.000486135
0.000605278
0.000642998
0.000662218
0.000695941
0.000706515
0.000750846
0.000866815
0.00115239
0.00153536
0.00183414
0.00247173
0.00298959
0.00313477
0.00311105
0.00297927
0.00273442
0.00233219
0.00203096
0.00184956
0.00166486
0.0015013
0.00139411
0.00137288
0.00139044
0.00145534
0.00156642
0.00185827
0.00205798
0.00248579
0.00297578
0.00382291
0.00557968
0.00849566
0.0139053
0.0255361
0.053071
0.0852056
0.148035
0.225396
0.264803
0.317715
0.506565
0.604054
0.565491
0.410218
0.298444
0.228211
0.177775
0.13903
0.112238
0.0955714
0.087939
0.0852533
0.0833319
0.0802177
0.076586
0.0746064
0.0716092
0.0692945
0.0701062
0.071242
0.0745781
0.0748341
0.0709582
0.0714804
0.0702323
0.082617
0.0950927
0.109077
0.108078
0.109094
0.109814
0.103773
0.107436
0.107583
0.107232
0.0980932
0.098463
0.0967622
0.0935864
0.0905101
0.0782084
0.0730205
0.0582532
0.0457411
0.0323963
0.0251769
0.0189375
0.0153998
0.0142566
0.0122131
0.0114915
0.0109173
0.0103633
0.00954177
0.0102332
0.00950968
0.00960404
0.00929609
0.0091037
0.0089767
0.00892686
0.00911142
0.00902297
0.00895269
0.00875377
0.00855543
0.00861422
0.00848246
0.00834715
0.0082013
0.00784959
0.00752876
0.0070655
0.00667858
0.00589949
0.00553224
0.00462952
0.00447484
0.00410829
0.0038808
0.00352334
0.00347053
0.00338232
0.00348325
0.00341257
0.00342199
0.00333569
0.00345103
0.00357493
0.00367171
0.00363245
0.00373244
0.00392274
0.00418463
0.00420442
0.00436317
0.00466352
0.00492028
0.00513525
0.00539474
0.00591244
0.00609544
0.00665004
0.00691507
0.00786437
0.00803848
0.00907764
0.00929225
0.0111213
0.0113717
0.013535
0.0135773
0.0166369
0.0172868
0.0220518
0.0225327
0.0271946
0.0288066
0.0373255
0.0411918
0.0480632
0.0568861
0.062059
0.0768777
0.0835844
0.105067
0.108722
0.128082
0.130674
0.140871
0.146154
0.145571
0.145546
0.139634
0.138695
0.133281
0.128672
0.117901
0.1081
0.0842156
0.000204784
0.000200647
0.000194907
0.000181754
0.000185657
0.000212686
0.000290324
0.000301245
0.000297696
0.000258508
0.000229071
0.000214481
0.000213942
0.000217842
0.000232516
0.000276907
0.000359066
0.000467769
0.000659333
0.000765519
0.000840022
0.00096891
0.00124695
0.00149714
0.00194684
0.00253871
0.00338224
0.00423659
0.00532741
0.00697776
0.00777455
0.00783995
0.00770301
0.00729573
0.00647076
0.00540245
0.00442159
0.00365076
0.00302018
0.00251598
0.00213768
0.00200671
0.00202608
0.00210566
0.00234014
0.00282249
0.00334113
0.00461052
0.00615239
0.00922122
0.014059
0.0218817
0.0379574
0.0786618
0.131104
0.209778
0.286992
0.323558
0.349322
0.434115
0.624308
0.626399
0.492727
0.354453
0.276687
0.219158
0.174319
0.137871
0.112334
0.095766
0.0877746
0.0847561
0.0828846
0.0801831
0.078014
0.0764041
0.0747346
0.0733738
0.0725247
0.0726344
0.072936
0.0745674
0.0708699
0.0742738
0.075033
0.0943706
0.113724
0.117865
0.112341
0.109611
0.112423
0.108031
0.109746
0.110013
0.11229
0.103873
0.107128
0.105517
0.0963022
0.0893806
0.0688908
0.0614511
0.0415149
0.0337035
0.0244576
0.0200763
0.0162922
0.0142784
0.0131305
0.0120045
0.0118418
0.0114768
0.0116863
0.0111577
0.0114046
0.010847
0.0108062
0.010348
0.0101382
0.00971202
0.00935433
0.00911432
0.00861245
0.00849255
0.00828214
0.00817167
0.00804733
0.00805718
0.00770138
0.00770204
0.0075544
0.00738036
0.00676921
0.00643051
0.0054634
0.0050838
0.00427982
0.00406812
0.003271
0.00318137
0.0027331
0.00278214
0.00256389
0.00275827
0.00242429
0.00262669
0.00246208
0.00272667
0.00252059
0.00285908
0.00264943
0.00295529
0.00287694
0.00330185
0.00304882
0.00343124
0.0033787
0.00388399
0.00359612
0.00412538
0.00402909
0.00472374
0.00435629
0.00517928
0.00498754
0.00599641
0.00545119
0.00679152
0.00640574
0.00798658
0.00711108
0.00933529
0.00856928
0.0114558
0.0101452
0.0137929
0.0122467
0.0172333
0.0152501
0.0220341
0.0193229
0.0283535
0.024936
0.0380418
0.0340791
0.0528445
0.048339
0.0702259
0.0659063
0.0896919
0.0888866
0.112485
0.115161
0.128243
0.132396
0.135117
0.135068
0.132439
0.129893
0.119255
0.000107656
0.000121087
0.000150109
0.000199224
0.000204498
0.00019179
0.000161373
0.000156783
0.00017144
0.000202121
0.000215553
0.000234838
0.000279952
0.000342489
0.00049345
0.000860833
0.00110325
0.00142371
0.00198497
0.0023522
0.0028487
0.00378979
0.00469504
0.00568194
0.00669177
0.00854805
0.0102863
0.0122198
0.0147926
0.0175479
0.0189258
0.0189563
0.0185882
0.0176589
0.0153685
0.0128195
0.0105197
0.00873932
0.00724764
0.00600117
0.00513035
0.00493209
0.00500244
0.00525926
0.00597959
0.00712468
0.00873574
0.0117771
0.0158787
0.0231993
0.0347705
0.0589094
0.109726
0.216087
0.291043
0.332462
0.353954
0.361839
0.389528
0.542867
0.634431
0.553505
0.398283
0.325422
0.268804
0.216909
0.174178
0.142102
0.117885
0.100271
0.0900454
0.0851224
0.0829767
0.0809775
0.0785888
0.0772136
0.0761682
0.0752933
0.0744299
0.0742323
0.0740219
0.0755778
0.0741969
0.0826199
0.0920076
0.114327
0.127873
0.126803
0.115756
0.1119
0.117983
0.114521
0.113895
0.115811
0.122459
0.113972
0.11508
0.107845
0.0905284
0.0810017
0.0501258
0.0432904
0.0280352
0.0239152
0.0178071
0.0156092
0.0135311
0.0127458
0.011704
0.0115826
0.0109747
0.0109538
0.0109578
0.0109262
0.0105724
0.0105797
0.0103965
0.0100037
0.00999985
0.0099095
0.0093816
0.00915472
0.00866162
0.00838014
0.00829721
0.00811597
0.00761711
0.00756177
0.00705317
0.00699358
0.00675207
0.00677142
0.006132
0.00591161
0.00507614
0.00470416
0.00379096
0.003513
0.00275849
0.0025577
0.00208641
0.00205804
0.00178134
0.00188614
0.00167096
0.00177143
0.00167287
0.00186671
0.00166434
0.00185279
0.00174859
0.00202941
0.0018355
0.00211879
0.00197084
0.00233109
0.00214764
0.0025094
0.00231129
0.00274364
0.00254852
0.00302074
0.0027508
0.0033019
0.00306136
0.00372986
0.00333976
0.00412386
0.00379437
0.00477069
0.00420009
0.00545029
0.00490063
0.00646976
0.00560123
0.00762936
0.00666162
0.00950777
0.00826815
0.0116486
0.0101142
0.0150618
0.0135966
0.0204661
0.018582
0.0282963
0.0267023
0.0397004
0.0391405
0.0539033
0.0549384
0.0726894
0.0767857
0.097035
0.104481
0.120888
0.127098
0.129228
0.129056
0.126825
0.000139243
0.000139504
0.000144723
0.00015317
0.000169058
0.000220343
0.000276102
0.000308295
0.00035507
0.000422352
0.000507828
0.000739768
0.00112241
0.00147377
0.00241224
0.00337837
0.0042499
0.00616126
0.00843175
0.00971222
0.011618
0.0142833
0.0165867
0.0186685
0.0211161
0.0256664
0.0287512
0.0332107
0.0385731
0.0420346
0.0427525
0.0422848
0.0408878
0.0377074
0.0323938
0.0273703
0.0228232
0.019397
0.0164771
0.0139482
0.012658
0.0125362
0.0127714
0.0135922
0.01521
0.0182445
0.0217095
0.0286024
0.0386289
0.0545007
0.0893322
0.168558
0.31648
0.367685
0.365276
0.36897
0.36871
0.36727
0.405782
0.581577
0.582868
0.433711
0.353722
0.314638
0.277068
0.233979
0.190103
0.152926
0.126073
0.10732
0.0956441
0.0893761
0.0861644
0.0842823
0.0823069
0.0809498
0.080209
0.0787564
0.0776206
0.0777195
0.0799272
0.0856965
0.091332
0.110127
0.117607
0.123356
0.130123
0.128604
0.122935
0.111808
0.133737
0.118867
0.120265
0.120241
0.136185
0.123419
0.113004
0.10331
0.0734996
0.062918
0.0397041
0.032945
0.0240348
0.0200682
0.0170097
0.0143443
0.0138834
0.0128009
0.0118783
0.011544
0.0107495
0.0103448
0.00977845
0.00995715
0.00933029
0.00954819
0.00905483
0.00910165
0.00871863
0.00888226
0.00829604
0.00841489
0.00800286
0.00795645
0.00777231
0.00770214
0.00720318
0.00705505
0.0065498
0.00639991
0.00583241
0.00576635
0.00514782
0.0049992
0.00437085
0.00412439
0.00335493
0.00313051
0.00255925
0.00231579
0.00193271
0.00174293
0.00153117
0.00149332
0.00143116
0.00140927
0.00138084
0.00141273
0.00140346
0.00143117
0.00143576
0.00150273
0.00151175
0.00159446
0.00161648
0.00172574
0.00174112
0.00187065
0.00189191
0.00203892
0.00204908
0.00222684
0.00223765
0.0024327
0.00242954
0.00268039
0.00267206
0.00294002
0.00292554
0.00328032
0.00321364
0.00365013
0.00354018
0.00412452
0.00400534
0.00479944
0.00459143
0.00568782
0.00545344
0.00683223
0.0065939
0.0088776
0.00852355
0.0116876
0.0113395
0.0160434
0.0158961
0.0228885
0.0231394
0.0311118
0.0321325
0.0439208
0.047216
0.0619526
0.0666848
0.0819362
0.0893857
0.103214
0.111981
0.116104
0.000544822
0.000766875
0.000939076
0.00106938
0.0011254
0.00119053
0.00127742
0.00142276
0.00190649
0.00243533
0.00304625
0.00424233
0.00599552
0.00793877
0.0118985
0.0156373
0.0202148
0.0261796
0.0307705
0.0342288
0.0397595
0.0448438
0.049165
0.0537516
0.0611317
0.0692521
0.0756834
0.0837955
0.0892929
0.0897873
0.0889596
0.0859992
0.0802438
0.0725551
0.0624349
0.0540494
0.046663
0.0405261
0.0351853
0.0310298
0.0294846
0.0295534
0.0303031
0.0321683
0.0366166
0.0413954
0.0509914
0.0652953
0.0870501
0.133787
0.256374
0.413117
0.431316
0.411537
0.372625
0.340942
0.317422
0.327905
0.43626
0.568405
0.487063
0.369669
0.338885
0.327273
0.309046
0.271246
0.220966
0.174914
0.140977
0.118182
0.102953
0.0944658
0.090194
0.0882815
0.0872761
0.086652
0.0870498
0.0884441
0.0901946
0.0916723
0.0959979
0.10274
0.107793
0.120532
0.125187
0.126256
0.134185
0.137107
0.158272
0.112408
0.175104
0.129347
0.135535
0.130563
0.148075
0.12838
0.109396
0.0877008
0.058729
0.0483841
0.0324299
0.026808
0.0223996
0.0182161
0.0168751
0.0145212
0.0138208
0.0130461
0.0123788
0.0115431
0.0111321
0.0102984
0.00946737
0.00931342
0.00874708
0.00859458
0.00834865
0.00827748
0.00816946
0.008092
0.00777631
0.00775589
0.00758602
0.00747621
0.00734652
0.0072722
0.00704699
0.00673124
0.00638903
0.00597989
0.0055487
0.00526552
0.00481431
0.00438835
0.00401363
0.00350311
0.00314531
0.00268181
0.00247221
0.00206176
0.00196904
0.0017168
0.00174422
0.00157077
0.00164869
0.00152595
0.00161744
0.00151788
0.00164932
0.00156309
0.00169343
0.00162083
0.00179264
0.00172023
0.00188236
0.00182625
0.00201355
0.00195551
0.00212657
0.00210023
0.00228347
0.00225064
0.00241635
0.00242911
0.0026135
0.00259721
0.00274181
0.00276774
0.00298572
0.00304641
0.00317475
0.00322209
0.00336593
0.00370906
0.00382331
0.00411252
0.00421621
0.00473529
0.00492587
0.00570107
0.00581378
0.00686309
0.00703515
0.00874099
0.00892143
0.0112767
0.011389
0.0148441
0.0153223
0.0196508
0.0204579
0.0265224
0.0285734
0.0368326
0.0395437
0.0468594
0.0518424
0.0610789
0.0685009
0.078135
0.00701098
0.00763695
0.00801417
0.00818391
0.00836374
0.00878635
0.00938907
0.0106521
0.012746
0.014622
0.0184491
0.023971
0.0323667
0.0401068
0.0503946
0.0600918
0.0723567
0.0834753
0.0910359
0.100355
0.109014
0.117203
0.127302
0.139234
0.152621
0.164421
0.176334
0.182068
0.18161
0.178684
0.171831
0.158098
0.144778
0.128711
0.112766
0.100314
0.0894244
0.0795074
0.0714811
0.0659592
0.0647317
0.0653163
0.0672093
0.0719715
0.078615
0.0913822
0.112726
0.141876
0.200653
0.369774
0.503753
0.502581
0.459945
0.331942
0.262369
0.246225
0.251631
0.31424
0.492253
0.50481
0.384169
0.331004
0.328769
0.355103
0.364392
0.333947
0.275854
0.214173
0.165866
0.134826
0.115708
0.103348
0.0961465
0.092529
0.0902967
0.0892555
0.0893459
0.0909621
0.094335
0.0978257
0.10137
0.105619
0.110688
0.120738
0.129561
0.134282
0.161431