/*--------------------------------*- C++ -*----------------------------------*\
| =========                 |                                                 |
| \\      /  F ield         | OpenFOAM: The Open Source CFD Toolbox           |
|  \\    /   O peration     | Version:  2.4.0                                 |
|   \\  /    A nd           | Web:      www.OpenFOAM.org                      |
|    \\/     M anipulation  |                                                 |
\*---------------------------------------------------------------------------*/
FoamFile
{
    version     2.0;
    format      ascii;
    class       volScalarField;
    location    "0.07";
    object      nuSgs;
}
// * * * * * * * * * * * * * * * * * * * * * * * * * * * * * * * * * * * * * //

dimensions      [0 2 -1 0 0 0 0];

internalField   nonuniform List<scalar> 
8800
(
0.00133939
0.00150559
0.00139379
0.00122784
0.00112273
0.0010476
0.0010015
0.000954853
0.000931533
0.000899447
0.000887477
0.000861666
0.000856501
0.00083819
0.000833727
0.000816028
0.000813866
0.000799127
0.000790959
0.000772961
0.000557259
0.000979957
0.00108396
0.00108097
0.00106493
0.00102989
0.001007
0.000970924
0.000955366
0.000925226
0.000913742
0.000889589
0.000882714
0.00086464
0.000859561
0.00084403
0.00084188
0.000829682
0.000825633
0.000823393
0.000136618
0.000401672
0.00058674
0.000654405
0.000711741
0.000731995
0.000754854
0.000758244
0.000761151
0.000756332
0.00075534
0.000749622
0.000746262
0.000737998
0.000736598
0.000729352
0.000727685
0.000721877
0.000721939
0.000721199
2.72455e-05
0.000124043
0.000237455
0.000300873
0.000364632
0.000393928
0.000426614
0.000456742
0.000476426
0.000488074
0.00050434
0.00051921
0.000524496
0.000533755
0.000542307
0.000549263
0.000551425
0.000557418
0.000560384
0.000569678
5.2133e-06
3.28826e-05
7.32436e-05
0.000100013
0.000143703
0.000170118
0.00018551
0.00021695
0.000232911
0.000249232
0.000261092
0.000282846
0.000289788
0.000305279
0.000314032
0.000332022
0.000337177
0.000350353
0.000355719
0.000371733
2.35091e-06
8.22406e-06
1.87743e-05
2.70797e-05
4.18704e-05
5.60174e-05
6.304e-05
7.88302e-05
8.67244e-05
9.85571e-05
0.000104932
0.00011831
0.00012329
0.000134941
0.000141732
0.000155811
0.000160176
0.000171244
0.00017566
0.000184474
2.18938e-06
3.10985e-06
5.35784e-06
7.21861e-06
1.0558e-05
1.50906e-05
1.73286e-05
2.26934e-05
2.52445e-05
2.9365e-05
3.1639e-05
3.66656e-05
3.85747e-05
4.33198e-05
4.71752e-05
5.51864e-05
5.77459e-05
6.41386e-05
6.49441e-05
6.53792e-05
2.16058e-06
2.57035e-06
3.45081e-06
3.75877e-06
4.26376e-06
5.21164e-06
5.65087e-06
6.78303e-06
7.39172e-06
8.03012e-06
8.46809e-06
9.55322e-06
9.85013e-06
1.05885e-05
1.16879e-05
1.44405e-05
1.59627e-05
1.76893e-05
1.74206e-05
1.81161e-05
2.14303e-06
2.52931e-06
3.17725e-06
3.48085e-06
3.71169e-06
3.94091e-06
4.01232e-06
4.16607e-06
4.29782e-06
4.36036e-06
4.4855e-06
4.60834e-06
4.59363e-06
4.59731e-06
4.63423e-06
4.8455e-06
5.13993e-06
5.52063e-06
5.72515e-06
5.90575e-06
2.13393e-06
2.46653e-06
2.92194e-06
3.4786e-06
3.69938e-06
3.8003e-06
3.82654e-06
3.83689e-06
3.84974e-06
3.91292e-06
4.00679e-06
4.09905e-06
4.12432e-06
4.10236e-06
4.07189e-06
4.07821e-06
4.06663e-06
4.10676e-06
4.22177e-06
4.89096e-06
2.13507e-06
2.46932e-06
2.83429e-06
3.54533e-06
3.7892e-06
3.85204e-06
3.85498e-06
3.83286e-06
3.8187e-06
3.84836e-06
3.97403e-06
4.08465e-06
4.16078e-06
4.17913e-06
4.15146e-06
4.12533e-06
4.10341e-06
4.12149e-06
4.2412e-06
4.65967e-06
2.14271e-06
2.47232e-06
2.90877e-06
3.79475e-06
4.03896e-06
4.04909e-06
4.04121e-06
4.00073e-06
4.00453e-06
4.25341e-06
4.49873e-06
4.7415e-06
5.10787e-06
5.12667e-06
5.09504e-06
5.26943e-06
5.50866e-06
5.81577e-06
6.64966e-06
8.75771e-06
2.1574e-06
2.52469e-06
3.21829e-06
4.70774e-06
4.95393e-06
5.0192e-06
5.36292e-06
5.65268e-06
6.23009e-06
8.66543e-06
9.67795e-06
1.06103e-05
1.26715e-05
1.30308e-05
1.32439e-05
1.53506e-05
1.73242e-05
1.93484e-05
2.32723e-05
3.2859e-05
2.18596e-06
3.06806e-06
5.61295e-06
1.07383e-05
1.18379e-05
1.29961e-05
1.67315e-05
1.94768e-05
2.27531e-05
3.19972e-05
3.53494e-05
3.91581e-05
4.39621e-05
4.71171e-05
4.89657e-05
5.63122e-05
6.15104e-05
7.04955e-05
7.87892e-05
9.86174e-05
2.35428e-06
8.22706e-06
1.94443e-05
3.67873e-05
4.18199e-05
4.84536e-05
6.4624e-05
7.41491e-05
8.28451e-05
0.000104239
0.000111137
0.000121135
0.000128294
0.00013921
0.000144218
0.000158654
0.000167413
0.000185366
0.000197891
0.000230872
5.22007e-06
3.29582e-05
7.33735e-05
0.000118944
0.000135066
0.000156862
0.000196058
0.000210553
0.000227083
0.000258982
0.000268218
0.000281829
0.000293945
0.000310136
0.000317559
0.000336402
0.00034659
0.000369753
0.000383937
0.000415161
2.71958e-05
0.000123479
0.000241394
0.000311294
0.000350386
0.000391801
0.000435665
0.000449807
0.000473956
0.00049833
0.000507558
0.000515497
0.000528956
0.000538554
0.000543691
0.000554786
0.000561089
0.000575099
0.000582139
0.000596734
0.000136362
0.000399397
0.00059053
0.000655565
0.000705687
0.000734442
0.000756457
0.000756965
0.00076186
0.000759169
0.00075659
0.000748261
0.000746597
0.000740429
0.000738305
0.000731862
0.00073125
0.000728461
0.000726571
0.000723339
0.000556129
0.000980723
0.00108469
0.00108041
0.00106454
0.00103024
0.00100517
0.00097368
0.000955218
0.00092306
0.000913232
0.000889777
0.000880555
0.00086109
0.000856176
0.000837944
0.000832718
0.000815018
0.00080681
0.000787703
0.00133871
0.00150637
0.00139424
0.001226
0.00112465
0.00104682
0.000999423
0.000956877
0.00093075
0.000895996
0.000884931
0.000859872
0.000851351
0.000828171
0.000822684
0.000798931
0.000790356
0.000759164
0.000743898
0.000698826
0.000350863
0.000273507
0.000214834
0.000177761
0.000153271
0.000137216
0.000124974
0.000118134
0.000114936
0.000115392
0.000120969
0.000129819
0.000141302
0.000158418
0.00016887
0.000180238
0.000187675
0.000188912
0.000188428
0.00018715
0.000183369
0.00017827
0.000172231
0.000158685
0.000146113
0.000133059
0.00011586
0.000101886
8.55071e-05
7.40344e-05
7.25928e-05
7.37205e-05
7.78855e-05
8.78296e-05
0.000104675
0.000132538
0.000142521
0.000142621
0.000140347
0.000135991
0.00012561
0.000115414
0.00010727
9.97139e-05
9.49352e-05
9.26558e-05
9.26298e-05
9.32611e-05
9.48171e-05
9.63546e-05
9.61294e-05
9.49465e-05
9.31111e-05
8.9015e-05
8.19155e-05
6.21522e-05
4.65068e-05
3.66732e-05
3.09343e-05
2.97635e-05
3.0603e-05
3.43336e-05
4.55485e-05
7.13134e-05
0.000117316
0.000140881
0.000143927
0.000139698
0.000127408
0.000105224
9.08346e-05
8.27836e-05
7.78022e-05
7.59937e-05
7.42109e-05
7.30285e-05
7.19e-05
6.99986e-05
6.90671e-05
6.78828e-05
6.67359e-05
6.63047e-05
6.65439e-05
6.77588e-05
7.21624e-05
8.10695e-05
8.41312e-05
8.40177e-05
8.28959e-05
7.99983e-05
7.20074e-05
6.51789e-05
6.0632e-05
6.00411e-05
6.07424e-05
6.16425e-05
6.50195e-05
6.58741e-05
6.93927e-05
7.00673e-05
7.23765e-05
7.17633e-05
7.17341e-05
7.05368e-05
6.99485e-05
6.79604e-05
6.71766e-05
6.53902e-05
6.26529e-05
5.72062e-05
5.14282e-05
4.46524e-05
3.98548e-05
3.44141e-05
3.13709e-05
2.80208e-05
2.61764e-05
2.45919e-05
2.36237e-05
2.28579e-05
2.24126e-05
2.18436e-05
2.12667e-05
2.07342e-05
2.01877e-05
1.98108e-05
1.96068e-05
1.94846e-05
1.93863e-05
1.9307e-05
1.91679e-05
1.8647e-05
1.74851e-05
1.63197e-05
1.48222e-05
1.35218e-05
1.26133e-05
1.14591e-05
1.05388e-05
1.0016e-05
9.38542e-06
8.73534e-06
8.5843e-06
8.43122e-06
8.23199e-06
8.19961e-06
8.27256e-06
8.3442e-06
8.48753e-06
8.55793e-06
8.83847e-06
8.98789e-06
9.42387e-06
9.57042e-06
1.00498e-05
1.0223e-05
1.08762e-05
1.10314e-05
1.16755e-05
1.18108e-05
1.24853e-05
1.25856e-05
1.33833e-05
1.3467e-05
1.41285e-05
1.40927e-05
1.46956e-05
1.45231e-05
1.4794e-05
1.43787e-05
1.43726e-05
1.3848e-05
1.3555e-05
1.26425e-05
1.17634e-05
1.06975e-05
1.02812e-05
9.72468e-06
9.02697e-06
8.68187e-06
8.28603e-06
8.11311e-06
7.65803e-06
7.56998e-06
7.21234e-06
7.33612e-06
7.30483e-06
7.52098e-06
7.97298e-06
7.96412e-06
8.16208e-06
7.49441e-06
7.54117e-06
8.09077e-06
8.69607e-06
1.06991e-05
1.4675e-05
2.31893e-05
7.24016e-05
0.00021078
0.000415762
0.000375577
0.000341746
0.000310443
0.00028229
0.000263103
0.00024432
0.00023369
0.000227059
0.000220584
0.000219384
0.000217605
0.000214255
0.000212483
0.000209397
0.000203861
0.000201068
0.000196685
0.00018869
0.000183398
0.000173357
0.000159674
0.000147073
0.000126651
0.000109405
8.90454e-05
7.19144e-05
6.26324e-05
5.41874e-05
4.83669e-05
4.6173e-05
4.62513e-05
4.79799e-05
5.38674e-05
6.12942e-05
7.40372e-05
9.61087e-05
0.000116496
0.000128381
0.000129819
0.000129048
0.000127141
0.000123006
0.000119524
0.000116358
0.000112341
0.000109228
0.000105896
0.000103229
0.000100521
9.77425e-05
9.31943e-05
8.75174e-05
7.42396e-05
5.49877e-05
4.08852e-05
3.34018e-05
2.87507e-05
2.78705e-05
2.89677e-05
3.33082e-05
4.34981e-05
6.40218e-05
0.000108084
0.000143827
0.000151516
0.00014771
0.000135449
0.000112169
9.55108e-05
8.53305e-05
7.94344e-05
7.67441e-05
7.58752e-05
7.4001e-05
7.31532e-05
7.14264e-05
6.99369e-05
6.84848e-05
6.75592e-05
6.62225e-05
6.53992e-05
6.53138e-05
6.56535e-05
6.73225e-05
7.40176e-05
8.07644e-05
8.29844e-05
8.26881e-05
8.15213e-05
7.82667e-05
7.02211e-05
6.56924e-05
6.1941e-05
6.196e-05
6.23389e-05
6.35829e-05
6.61683e-05
6.70839e-05
7.03163e-05
7.05797e-05
7.14723e-05
7.03163e-05
6.98965e-05
6.70146e-05
6.6405e-05
6.53562e-05
6.46689e-05
5.96938e-05
5.29141e-05
4.6402e-05
4.14141e-05
3.63038e-05
3.2929e-05
2.92292e-05
2.77788e-05
2.56661e-05
2.54085e-05
2.47234e-05
2.48965e-05
2.43413e-05
2.44412e-05
2.38282e-05
2.38147e-05
2.30292e-05
2.29989e-05
2.23488e-05
2.23288e-05
2.18978e-05
2.18292e-05
2.13372e-05
2.12532e-05
2.03217e-05
1.95857e-05
1.76609e-05
1.65384e-05
1.43119e-05
1.37674e-05
1.24427e-05
1.19013e-05
1.08777e-05
1.06391e-05
9.88634e-06
9.83821e-06
9.58739e-06
9.43921e-06
9.10479e-06
9.17951e-06
9.01586e-06
8.98222e-06
8.91405e-06
8.92163e-06
8.86644e-06
8.90611e-06
8.95532e-06
8.94369e-06
9.03229e-06
9.10694e-06
9.39428e-06
9.46787e-06
9.98719e-06
1.01311e-05
1.06509e-05
1.08856e-05
1.18499e-05
1.21214e-05
1.29502e-05
1.33696e-05
1.42435e-05
1.50229e-05
1.55657e-05
1.6683e-05
1.68859e-05
1.77312e-05
1.7753e-05
1.81745e-05
1.77573e-05
1.73633e-05
1.58256e-05
1.49571e-05
1.32718e-05
1.22472e-05
1.15048e-05
1.03637e-05
1.01138e-05
9.23699e-06
9.12791e-06
8.49427e-06
8.80903e-06
8.73696e-06
8.93887e-06
9.87877e-06
9.48398e-06
1.05308e-05
1.03312e-05
1.09518e-05
1.91988e-05
2.36733e-05
6.88343e-05
0.000146413
0.000376049
0.000353634
0.000335105
0.000320049
0.000302488
0.000290158
0.000277537
0.000265504
0.000257033
0.000248915
0.000238582
0.000232547
0.00022512
0.000214996
0.00021002
0.000199989
0.000190013
0.000181249
0.000165819
0.000152195
0.000134301
0.000114442
9.51365e-05
7.68133e-05
6.43979e-05
5.34088e-05
4.47477e-05
4.01117e-05
3.44938e-05
3.15311e-05
3.025e-05
2.97513e-05
3.03834e-05
3.29113e-05
3.55258e-05
4.13762e-05
5.08143e-05
5.97145e-05
7.86975e-05
9.07512e-05
0.000103055
0.000110608
0.000111953
0.000111841
0.000111073
0.000108918
0.000106791
0.00010235
9.93611e-05
9.35759e-05
8.6185e-05
7.54887e-05
5.82053e-05
4.46239e-05
3.41257e-05
2.85237e-05
2.59695e-05
2.59068e-05
2.71686e-05
3.31526e-05
4.40299e-05
6.1425e-05
9.18167e-05
0.000143418
0.000158492
0.000156312
0.000145776
0.000121435
0.000102937
8.95164e-05
8.17684e-05
7.78816e-05
7.67743e-05
7.57592e-05
7.37239e-05
7.26675e-05
7.02792e-05
6.96901e-05
6.81845e-05
6.75426e-05
6.58941e-05
6.55087e-05
6.48663e-05
6.50277e-05
6.56081e-05
6.87132e-05
7.72092e-05
8.1606e-05
8.22163e-05
8.18444e-05
8.05476e-05
7.58404e-05
6.99281e-05
6.64688e-05
6.38805e-05
6.44159e-05
6.44184e-05
6.63217e-05
6.71323e-05
6.97077e-05
7.04898e-05
7.03947e-05
6.97534e-05
6.5939e-05
6.39019e-05
6.29514e-05
6.26715e-05
6.10235e-05
5.35512e-05
4.6059e-05
4.03411e-05
3.5806e-05
3.2752e-05
2.96936e-05
2.81502e-05
2.6241e-05
2.58703e-05
2.51804e-05
2.53177e-05
2.47696e-05
2.49066e-05
2.42873e-05
2.45258e-05
2.39807e-05
2.42146e-05
2.37815e-05
2.40932e-05
2.36968e-05
2.39348e-05
2.3594e-05
2.34994e-05
2.24595e-05
2.13923e-05
2.0116e-05
1.90144e-05
1.83099e-05
1.75639e-05
1.75619e-05
1.72974e-05
1.73735e-05
1.7307e-05
1.78346e-05
1.75884e-05
1.81149e-05
1.80458e-05
1.84828e-05
1.83967e-05
1.9267e-05
1.90028e-05
1.94313e-05
1.94145e-05
2.01767e-05
1.98097e-05
2.02328e-05
2.01292e-05
2.05848e-05
2.00565e-05
2.02169e-05
2.00202e-05
1.99605e-05
1.90104e-05
1.86861e-05
1.84525e-05
1.77175e-05
1.65649e-05
1.61206e-05
1.59568e-05
1.52991e-05
1.49388e-05
1.50814e-05
1.51809e-05
1.56349e-05
1.59445e-05
1.71025e-05
1.75308e-05
1.8936e-05
1.93612e-05
2.06171e-05
2.10984e-05
2.18471e-05
2.16326e-05
2.08696e-05
1.96814e-05
1.70886e-05
1.50176e-05
1.37857e-05
1.23117e-05
1.23829e-05
1.15899e-05
1.21255e-05
1.1008e-05
1.07936e-05
1.11314e-05
1.13715e-05
1.87296e-05
1.67513e-05
4.23249e-05
3.26702e-05
5.16983e-05
9.90887e-05
0.000302782
0.000291868
0.000280062
0.000270345
0.000263453
0.000252253
0.000243942
0.000235303
0.000222929
0.000217084
0.00020566
0.000197135
0.000189444
0.000175446
0.000167306
0.000153217
0.000139438
0.000126313
0.000107402
9.22201e-05
7.72358e-05
6.45093e-05
5.3547e-05
4.42138e-05
3.7891e-05
3.16092e-05
2.77002e-05
2.45666e-05
2.11782e-05
1.98939e-05
1.91888e-05
1.87697e-05
1.91044e-05
2.01255e-05
2.09687e-05
2.34072e-05
2.71054e-05
3.15164e-05
4.15768e-05
4.67687e-05
5.69985e-05
6.52588e-05
7.21847e-05
7.8593e-05
7.98068e-05
7.94587e-05
7.7943e-05
7.44809e-05
6.93589e-05
5.99817e-05
5.09722e-05
4.15296e-05
3.31888e-05
2.75657e-05
2.37086e-05
2.3289e-05
2.37853e-05
2.58146e-05
3.3279e-05
4.83351e-05
6.24735e-05
8.44665e-05
0.000131898
0.000163754
0.000165529
0.000158114
0.000133543
0.00011249
9.68341e-05
8.58897e-05
7.95393e-05
7.73447e-05
7.67091e-05
7.48912e-05
7.35138e-05
7.10261e-05
6.97475e-05
6.94151e-05
6.87034e-05
6.81533e-05
6.62407e-05
6.56548e-05
6.51141e-05
6.49509e-05
6.51762e-05
6.66214e-05
7.36932e-05
7.94259e-05
8.18994e-05
8.17234e-05
8.14064e-05
7.96852e-05
7.41224e-05
7.09605e-05
6.72706e-05
6.68715e-05
6.68398e-05
6.71531e-05
6.80544e-05
6.93635e-05
7.05297e-05
6.99643e-05
6.78838e-05
6.47527e-05
6.39333e-05
6.38018e-05
6.34197e-05
5.90829e-05
4.93405e-05
4.17954e-05
3.59141e-05
3.19929e-05
2.90918e-05
2.70189e-05
2.57569e-05
2.46508e-05
2.3868e-05
2.33118e-05
2.25321e-05
2.20331e-05
2.16422e-05
2.14007e-05
2.1292e-05
2.12306e-05
2.13032e-05
2.12674e-05
2.13338e-05
2.13507e-05
2.12722e-05
2.09596e-05
2.05363e-05
1.9308e-05
1.87568e-05
1.75603e-05
1.7076e-05
1.60903e-05
1.58984e-05
1.51696e-05
1.53547e-05
1.50387e-05
1.50881e-05
1.49414e-05
1.54807e-05
1.52171e-05
1.58512e-05
1.58878e-05
1.64774e-05
1.63283e-05
1.76486e-05
1.76475e-05
1.86355e-05
1.86228e-05
2.02023e-05
2.00579e-05
2.1623e-05
2.15188e-05
2.33518e-05
2.31365e-05
2.52495e-05
2.4979e-05
2.69848e-05
2.66753e-05
2.91215e-05
2.84656e-05
3.01364e-05
2.94606e-05
3.12455e-05
2.99969e-05
3.06536e-05
2.94975e-05
2.97893e-05
2.86027e-05
2.74552e-05
2.6226e-05
2.4419e-05
2.33316e-05
2.208e-05
2.21543e-05
2.24909e-05
2.30791e-05
2.47661e-05
2.54402e-05
2.78747e-05
2.83113e-05
2.78224e-05
2.54179e-05
2.33794e-05
1.89902e-05
1.78031e-05
1.51505e-05
1.9307e-05
1.75282e-05
3.18601e-05
2.52794e-05
5.27243e-05
4.2398e-05
5.99112e-05
5.28292e-05
5.4042e-05
7.51611e-05
0.000199767
0.000195495
0.000190893
0.00018436
0.000181809
0.000176313
0.000170143
0.000163831
0.000152827
0.000146705
0.000135709
0.000126665
0.000116964
0.000105983
9.70254e-05
8.65982e-05
7.73152e-05
6.78252e-05
5.84709e-05
4.95215e-05
4.12702e-05
3.47519e-05
2.85931e-05
2.46285e-05
2.1434e-05
1.80717e-05
1.62364e-05
1.44418e-05
1.30937e-05
1.30623e-05
1.31299e-05
1.33051e-05
1.39523e-05
1.43548e-05
1.45887e-05
1.54466e-05
1.67024e-05
1.81718e-05
2.22327e-05
2.46944e-05
3.03492e-05
3.46012e-05
3.8559e-05
4.32827e-05
4.53202e-05
4.52834e-05
4.43801e-05
4.24426e-05
3.86422e-05
3.4001e-05
2.91482e-05
2.46201e-05
2.15663e-05
2.05447e-05
2.08643e-05
2.22515e-05
2.57754e-05
3.39155e-05
5.25901e-05
6.91007e-05
8.47079e-05
0.000113979
0.000165528
0.000175494
0.000169817
0.000147826
0.000124248
0.000106234
9.22504e-05
8.29806e-05
7.84053e-05
7.71269e-05
7.62108e-05
7.40291e-05
7.23924e-05
6.98598e-05
6.98049e-05
6.96424e-05
6.99039e-05
6.94758e-05
6.82241e-05
6.6155e-05
6.59929e-05
6.52197e-05
6.5451e-05
6.64307e-05
7.22041e-05
7.91358e-05
8.20975e-05
8.19462e-05
8.14849e-05
8.13001e-05
7.89351e-05
7.53335e-05
7.25146e-05
6.98745e-05
6.90316e-05
6.87839e-05
6.97454e-05
7.03319e-05
7.07718e-05
6.99947e-05
6.73949e-05
6.63642e-05
6.57616e-05
6.53502e-05
5.97801e-05
5.14851e-05
4.16248e-05
3.60851e-05
3.11466e-05
2.83759e-05
2.61592e-05
2.4569e-05
2.3689e-05
2.2796e-05
2.22151e-05
2.16252e-05
2.14076e-05
2.11181e-05
2.11647e-05
2.11447e-05
2.12015e-05
2.12066e-05
2.12346e-05
2.11376e-05
2.10464e-05
2.07178e-05
2.05052e-05
1.99109e-05
1.94821e-05
1.866e-05
1.80441e-05
1.71625e-05
1.68322e-05
1.59474e-05
1.55075e-05
1.49791e-05
1.44448e-05
1.39598e-05
1.37918e-05
1.32959e-05
1.30858e-05
1.29335e-05
1.28275e-05
1.27894e-05
1.28877e-05
1.28332e-05
1.28532e-05
1.29791e-05
1.31698e-05
1.32062e-05
1.36001e-05
1.40792e-05
1.43163e-05
1.45837e-05
1.55134e-05
1.61182e-05
1.65154e-05
1.70836e-05
1.85781e-05
1.92665e-05
1.98309e-05
2.1418e-05
2.22852e-05
2.41907e-05
2.49307e-05
2.73766e-05
2.77844e-05
2.99458e-05
3.03584e-05
3.32531e-05
3.2933e-05
3.48136e-05
3.39071e-05
3.40044e-05
3.27206e-05
3.2351e-05
3.15364e-05
2.91788e-05
2.95982e-05
2.88463e-05
3.22483e-05
3.17931e-05
3.92499e-05
3.732e-05
4.83522e-05
4.20495e-05
5.53383e-05
4.42808e-05
5.85387e-05
4.45556e-05
5.69275e-05
4.41929e-05
5.08273e-05
4.69399e-05
4.85557e-05
5.3458e-05
5.42237e-05
6.27602e-05
9.96636e-05
9.88499e-05
9.77519e-05
9.63318e-05
9.57042e-05
9.3684e-05
9.02708e-05
8.50873e-05
7.91513e-05
7.27043e-05
6.69999e-05
6.15331e-05
5.60656e-05
5.19442e-05
4.71288e-05
4.27127e-05
3.77742e-05
3.28e-05
2.8153e-05
2.33939e-05
1.98282e-05
1.67204e-05
1.44148e-05
1.31458e-05
1.15093e-05
1.02099e-05
9.6172e-06
9.49386e-06
9.6102e-06
1.0255e-05
1.09147e-05
1.13518e-05
1.23532e-05
1.24246e-05
1.23723e-05
1.24895e-05
1.2514e-05
1.26796e-05
1.34135e-05
1.43951e-05
1.57994e-05
1.86856e-05
2.06507e-05
2.21777e-05
2.3792e-05
2.39757e-05
2.37233e-05
2.30639e-05
2.13475e-05
1.97091e-05
1.80029e-05
1.78267e-05
1.82032e-05
1.9286e-05
2.22865e-05
2.84508e-05
3.80859e-05
5.38227e-05
7.90596e-05
9.15393e-05
0.000110085
0.000155793
0.000183242
0.000181144
0.000163814
0.000136628
0.00011694
0.00010133
8.92456e-05
8.13457e-05
7.7635e-05
7.65651e-05
7.54968e-05
7.34346e-05
7.15237e-05
6.94542e-05
6.92529e-05
6.89376e-05
6.96935e-05
6.96381e-05
6.99417e-05
6.82715e-05
6.82265e-05
6.61612e-05
6.60832e-05
6.69791e-05
7.2697e-05
7.97556e-05
8.25695e-05
8.27387e-05
8.18905e-05
8.16084e-05
8.07882e-05
7.77408e-05
7.58538e-05
7.41924e-05
7.26242e-05
7.23088e-05
7.26919e-05
7.28237e-05
7.2343e-05
7.05491e-05
6.8456e-05
6.7327e-05
6.54105e-05
6.06683e-05
4.88858e-05
4.19343e-05
3.46221e-05
3.03798e-05
2.81533e-05
2.5954e-05
2.49227e-05
2.37824e-05
2.34691e-05
2.26277e-05
2.28083e-05
2.2227e-05
2.22582e-05
2.19985e-05
2.21523e-05
2.20215e-05
2.23986e-05
2.22603e-05
2.23036e-05
2.20154e-05
2.19939e-05
2.15222e-05
2.1446e-05
2.07859e-05
2.05411e-05
1.97492e-05
1.97398e-05
1.9031e-05
1.89399e-05
1.80893e-05
1.76947e-05
1.66241e-05
1.64572e-05
1.56751e-05
1.54877e-05
1.49157e-05
1.49411e-05
1.48394e-05
1.50239e-05
1.46993e-05
1.48412e-05
1.4829e-05
1.52324e-05
1.50527e-05
1.53773e-05
1.53515e-05
1.58444e-05
1.57963e-05
1.63574e-05
1.63396e-05
1.69597e-05
1.69674e-05
1.78103e-05
1.78766e-05
1.87688e-05
1.89051e-05
2.03979e-05
2.05863e-05
2.22828e-05
2.24671e-05
2.55274e-05
2.56735e-05
2.92068e-05
2.94032e-05
3.59052e-05
3.56752e-05
4.41619e-05
4.33401e-05
5.61366e-05
5.38184e-05
7.06509e-05
6.58646e-05
8.76328e-05
7.91261e-05
0.000106049
9.39697e-05
0.000121288
0.000105922
0.000130288
0.000113335
0.000131303
0.000113636
0.000122561
0.000106209
0.000109025
9.42513e-05
9.37652e-05
7.90406e-05
7.69991e-05
6.15843e-05
5.7776e-05
5.72202e-05
5.6097e-05
5.90182e-05
3.67496e-05
3.80279e-05
3.82931e-05
3.82546e-05
3.77199e-05
3.66115e-05
3.40966e-05
3.13541e-05
2.87283e-05
2.57375e-05
2.44684e-05
2.26816e-05
2.14948e-05
2.04044e-05
1.89215e-05
1.71643e-05
1.47859e-05
1.28328e-05
1.09383e-05
9.68237e-06
8.9716e-06
8.28657e-06
8.14229e-06
7.78466e-06
7.43818e-06
7.43649e-06
7.5926e-06
8.38339e-06
8.90609e-06
9.88671e-06
1.0588e-05
1.09849e-05
1.1615e-05
1.16331e-05
1.15541e-05
1.15377e-05
1.13167e-05
1.1174e-05
1.10944e-05
1.11266e-05
1.12556e-05
1.15678e-05
1.21346e-05
1.24782e-05
1.28772e-05
1.33551e-05
1.36316e-05
1.38461e-05
1.43118e-05
1.48546e-05
1.56076e-05
1.70228e-05
1.9585e-05
2.43995e-05
3.3954e-05
4.63967e-05
6.05047e-05
8.59981e-05
0.000105063
0.000117385
0.000141793
0.000187384
0.000191331
0.000180621
0.000150385
0.000129844
0.00011279
9.85608e-05
8.77514e-05
8.04076e-05
7.68245e-05
7.57274e-05
7.47702e-05
7.31277e-05
7.12155e-05
6.94517e-05
6.88275e-05
6.77095e-05
6.8195e-05
6.87875e-05
7.05059e-05
7.03529e-05
6.91641e-05
6.75901e-05
6.6746e-05
6.83622e-05
7.45308e-05
8.1864e-05
8.30769e-05
8.41359e-05
8.30465e-05
8.17295e-05
8.24874e-05
8.15452e-05
8.01627e-05
7.78137e-05
7.72673e-05
7.60916e-05
7.56325e-05
7.58687e-05
7.38007e-05
7.15015e-05
6.81678e-05
6.54968e-05
5.72519e-05
4.92929e-05
4.01856e-05
3.53352e-05
3.15177e-05
2.85158e-05
2.74529e-05
2.59902e-05
2.50584e-05
2.42577e-05
2.45268e-05
2.38513e-05
2.44463e-05
2.40422e-05
2.4002e-05
2.40145e-05
2.42378e-05
2.4271e-05
2.47745e-05
2.44674e-05
2.43298e-05
2.39208e-05
2.39186e-05
2.34374e-05
2.33261e-05
2.28903e-05
2.26552e-05
2.2091e-05
2.1946e-05
2.09925e-05
2.04237e-05
1.94922e-05
1.84756e-05
1.76614e-05
1.72944e-05
1.64086e-05
1.59562e-05
1.559e-05
1.55285e-05
1.5411e-05
1.54512e-05
1.54e-05
1.54381e-05
1.5507e-05
1.58087e-05
1.58728e-05
1.608e-05
1.62585e-05
1.6753e-05
1.69454e-05
1.7447e-05
1.76978e-05
1.8316e-05
1.8616e-05
1.93577e-05
1.96566e-05
2.04296e-05
2.07347e-05
2.1609e-05
2.19761e-05
2.29594e-05
2.36447e-05
2.43593e-05
2.52242e-05
2.61165e-05
2.79769e-05
2.86064e-05
3.0489e-05
3.1372e-05
3.46567e-05
3.58285e-05
4.05293e-05
4.14225e-05
4.67799e-05
4.87569e-05
5.72098e-05
5.96869e-05
6.89871e-05
7.08885e-05
8.07186e-05
8.28179e-05
9.32942e-05
9.45925e-05
0.000101815
0.000101572
0.000103275
0.000102492
9.96698e-05
9.84292e-05
9.21748e-05
9.08885e-05
8.35581e-05
7.92069e-05
7.20288e-05
6.43146e-05
6.2436e-05
1.0406e-05
1.07638e-05
1.07676e-05
1.07765e-05
1.04896e-05
9.5821e-06
8.58122e-06
8.16734e-06
8.01232e-06
8.07928e-06
8.02033e-06
7.86816e-06
7.37877e-06
6.77704e-06
6.2489e-06
5.62658e-06
5.40273e-06
5.4522e-06
5.60177e-06
6.23037e-06
6.56281e-06
6.69403e-06
6.92849e-06
6.98656e-06
7.17098e-06
7.63494e-06
8.63189e-06
1.0074e-05
1.09271e-05
1.26235e-05
1.40872e-05
1.45766e-05
1.4556e-05
1.42884e-05
1.37647e-05
1.27649e-05
1.1846e-05
1.12716e-05
1.0699e-05
1.01586e-05
9.73201e-06
9.60325e-06
9.64678e-06
9.83866e-06
1.0159e-05
1.10259e-05
1.16244e-05
1.27372e-05
1.39561e-05
1.57485e-05
1.89454e-05
2.32984e-05
2.95483e-05
4.00042e-05
5.74832e-05
7.3399e-05
9.64577e-05
0.000120875
0.000131683
0.000143486
0.000179658
0.000199983
0.00019484
0.00016759
0.000142367
0.000124348
0.000109822
9.71161e-05
8.71183e-05
8.0058e-05
7.64974e-05
7.51762e-05
7.4347e-05
7.29851e-05
7.12881e-05
7.03331e-05
6.88399e-05
6.76658e-05
6.79798e-05
6.84753e-05
7.01747e-05
7.04103e-05
6.87055e-05
6.88136e-05
6.79902e-05
7.28424e-05
7.80906e-05
8.46709e-05
8.44829e-05
8.50598e-05
8.52097e-05
8.27858e-05
8.42303e-05
8.43369e-05
8.42941e-05
8.08641e-05
8.07112e-05
7.99396e-05
7.87314e-05
7.7813e-05
7.29951e-05
7.04957e-05
6.37503e-05
5.68447e-05
4.7796e-05
4.20018e-05
3.61836e-05
3.25503e-05
3.11558e-05
2.87164e-05
2.77154e-05
2.69576e-05
2.63101e-05
2.51568e-05
2.6127e-05
2.51735e-05
2.52469e-05
2.48668e-05
2.45841e-05
2.43962e-05
2.43985e-05
2.46109e-05
2.44623e-05
2.43642e-05
2.41091e-05
2.38367e-05
2.3961e-05
2.37934e-05
2.35492e-05
2.33444e-05
2.28785e-05
2.24541e-05
2.18725e-05
2.12245e-05
1.99275e-05
1.93187e-05
1.77228e-05
1.74425e-05
1.66788e-05
1.61688e-05
1.53443e-05
1.523e-05
1.50931e-05
1.5262e-05
1.50567e-05
1.50828e-05
1.49194e-05
1.51921e-05
1.54147e-05
1.56086e-05
1.55345e-05
1.57596e-05
1.61506e-05
1.66516e-05
1.67033e-05
1.70042e-05
1.76057e-05
1.80724e-05
1.84284e-05
1.88921e-05
1.9833e-05
2.01199e-05
2.09814e-05
2.13963e-05
2.28373e-05
2.30995e-05
2.45578e-05
2.48145e-05
2.70943e-05
2.74464e-05
3.00238e-05
3.00376e-05
3.31411e-05
3.3805e-05
3.82265e-05
3.87027e-05
4.2563e-05
4.37122e-05
4.95341e-05
5.21588e-05
5.65398e-05
6.16084e-05
6.42282e-05
7.13078e-05
7.43162e-05
8.33665e-05
8.48717e-05
9.21691e-05
9.30926e-05
9.66546e-05
9.8382e-05
9.81973e-05
9.81825e-05
9.61714e-05
9.58229e-05
9.39428e-05
9.22834e-05
8.82117e-05
8.44116e-05
7.44922e-05
3.69657e-06
3.73188e-06
3.71499e-06
3.56095e-06
3.5196e-06
3.62068e-06
4.29142e-06
4.50072e-06
4.542e-06
4.33013e-06
4.01005e-06
3.82697e-06
3.79165e-06
3.81534e-06
3.9039e-06
4.21583e-06
4.81499e-06
5.43128e-06
6.60699e-06
7.29092e-06
7.65947e-06
8.18249e-06
9.24779e-06
1.01402e-05
1.14505e-05
1.29711e-05
1.49304e-05
1.67161e-05
1.84962e-05
2.13064e-05
2.28271e-05
2.30479e-05
2.28967e-05
2.23971e-05
2.12349e-05
1.94941e-05
1.7636e-05
1.60057e-05
1.455e-05
1.32863e-05
1.21923e-05
1.16725e-05
1.16942e-05
1.18825e-05
1.23908e-05
1.36584e-05
1.48206e-05
1.72812e-05
1.99276e-05
2.43035e-05
3.00214e-05
3.72473e-05
4.86699e-05
7.00214e-05
9.10919e-05
0.000115489
0.000136541
0.000145845
0.000151368
0.000166018
0.000201713
0.000204282
0.000183624
0.000154852
0.000136634
0.000121728
0.000108675
9.66735e-05
8.71002e-05
8.01586e-05
7.64455e-05
7.49668e-05
7.41398e-05
7.29423e-05
7.19115e-05
7.11156e-05
7.03347e-05
6.96736e-05
6.92139e-05
6.92318e-05
6.94312e-05
7.03068e-05
6.85087e-05
7.00406e-05
7.0082e-05
7.80417e-05
8.57384e-05
8.81538e-05
8.63593e-05
8.52648e-05
8.62001e-05
8.42591e-05
8.51422e-05
8.52525e-05
8.63097e-05
8.2902e-05
8.40414e-05
8.35426e-05
8.0491e-05
7.77341e-05
6.91728e-05
6.55625e-05
5.42586e-05
4.87028e-05
4.12953e-05
3.7306e-05
3.33556e-05
3.1182e-05
2.96905e-05
2.83343e-05
2.80611e-05
2.7577e-05
2.7854e-05
2.72017e-05
2.75091e-05
2.68518e-05
2.68111e-05
2.62585e-05
2.60116e-05
2.5468e-05
2.4979e-05
2.46463e-05
2.39609e-05
2.3769e-05
2.3468e-05
2.33287e-05
2.30988e-05
2.31369e-05
2.26374e-05
2.26207e-05
2.24438e-05
2.22154e-05
2.13268e-05
2.08268e-05
1.92581e-05
1.85783e-05
1.70592e-05
1.66289e-05
1.49274e-05
1.46737e-05
1.3575e-05
1.36985e-05
1.31153e-05
1.35939e-05
1.27456e-05
1.32312e-05
1.28312e-05
1.35044e-05
1.29435e-05
1.37696e-05
1.32824e-05
1.40334e-05
1.38129e-05
1.47968e-05
1.4232e-05
1.5085e-05
1.49739e-05
1.60522e-05
1.54425e-05
1.65269e-05
1.63671e-05
1.77044e-05
1.69829e-05
1.85134e-05
1.822e-05
1.9948e-05
1.89905e-05
2.11986e-05
2.06296e-05
2.30283e-05
2.17149e-05
2.4857e-05
2.38162e-05
2.75609e-05
2.59379e-05
3.02457e-05
2.84923e-05
3.37424e-05
3.17562e-05
3.82048e-05
3.57774e-05
4.33978e-05
4.06822e-05
5.01487e-05
4.74484e-05
5.91189e-05
5.65677e-05
6.8265e-05
6.61859e-05
7.71629e-05
7.67505e-05
8.63557e-05
8.73142e-05
9.20979e-05
9.35527e-05
9.45036e-05
9.45054e-05
9.35881e-05
9.26822e-05
8.88287e-05
2.6761e-06
2.75885e-06
3.00718e-06
3.59431e-06
3.73342e-06
3.71247e-06
3.41083e-06
3.26509e-06
3.30932e-06
3.62035e-06
3.77822e-06
3.93951e-06
4.2978e-06
4.76614e-06
5.49996e-06
7.39247e-06
8.61277e-06
9.73303e-06
1.16451e-05
1.28222e-05
1.3958e-05
1.60513e-05
1.79298e-05
1.97744e-05
2.1214e-05
2.38264e-05
2.61396e-05
2.83414e-05
3.09863e-05
3.38782e-05
3.55533e-05
3.57163e-05
3.54645e-05
3.47442e-05
3.27598e-05
3.00077e-05
2.71675e-05
2.47262e-05
2.25269e-05
2.05094e-05
1.8806e-05
1.82273e-05
1.83069e-05
1.86945e-05
1.97608e-05
2.16352e-05
2.37891e-05
2.76606e-05
3.19786e-05
3.8507e-05
4.69593e-05
6.07501e-05
8.20442e-05
0.000116927
0.000137585
0.000147458
0.000152698
0.000154371
0.000159492
0.000186158
0.00020509
0.000193945
0.000163911
0.000147623
0.000134474
0.00012105
0.000108563
9.80787e-05
8.92412e-05
8.21232e-05
7.7557e-05
7.52055e-05
7.41798e-05
7.33007e-05
7.21709e-05
7.14911e-05
7.10012e-05
7.05724e-05
7.01535e-05
7.00585e-05
6.99818e-05
7.06923e-05
6.98839e-05
7.33762e-05
7.67134e-05
8.6618e-05
9.1992e-05
9.18141e-05
8.7685e-05
8.61308e-05
8.81583e-05
8.67471e-05
8.66972e-05
8.73762e-05
9.00014e-05
8.6615e-05
8.74889e-05
8.51038e-05
7.86133e-05
7.48979e-05
5.98479e-05
5.54155e-05
4.44103e-05
4.08632e-05
3.50225e-05
3.27449e-05
3.02032e-05
2.92836e-05
2.7909e-05
2.77266e-05
2.7017e-05
2.69659e-05
2.6981e-05
2.69233e-05
2.64512e-05
2.64887e-05
2.62968e-05
2.58115e-05
2.57862e-05
2.56896e-05
2.49978e-05
2.46851e-05
2.40394e-05
2.36038e-05
2.35243e-05
2.32545e-05
2.25007e-05
2.24253e-05
2.1695e-05
2.15949e-05
2.1197e-05
2.1249e-05
2.02664e-05
1.99347e-05
1.85682e-05
1.79109e-05
1.60852e-05
1.54787e-05
1.37317e-05
1.32084e-05
1.19231e-05
1.18215e-05
1.09367e-05
1.12345e-05
1.05865e-05
1.09021e-05
1.05702e-05
1.11508e-05
1.05384e-05
1.10991e-05
1.08009e-05
1.16223e-05
1.10383e-05
1.18502e-05
1.14497e-05
1.24496e-05
1.19238e-05
1.2894e-05
1.2389e-05
1.3494e-05
1.2986e-05
1.41509e-05
1.35111e-05
1.47943e-05
1.42369e-05
1.57247e-05
1.4885e-05
1.65347e-05
1.5855e-05
1.77793e-05
1.6689e-05
1.90108e-05
1.80032e-05
2.0719e-05
1.92838e-05
2.24833e-05
2.09872e-05
2.50724e-05
2.34239e-05
2.78213e-05
2.58921e-05
3.15653e-05
2.99864e-05
3.67971e-05
3.51157e-05
4.33086e-05
4.20255e-05
5.13131e-05
5.10067e-05
5.98334e-05
6.03548e-05
6.93301e-05
7.11979e-05
7.99651e-05
8.30006e-05
8.93353e-05
9.17222e-05
9.25184e-05
9.24567e-05
9.16918e-05
3.03402e-06
3.07935e-06
3.12316e-06
3.2113e-06
3.31272e-06
3.68568e-06
4.22439e-06
4.51093e-06
4.85516e-06
5.33013e-06
5.84566e-06
6.76024e-06
8.57349e-06
9.8188e-06
1.23023e-05
1.50061e-05
1.68403e-05
1.99902e-05
2.38655e-05
2.58892e-05
2.81201e-05
3.11333e-05
3.36903e-05
3.57727e-05
3.75974e-05
4.13312e-05
4.37071e-05
4.6611e-05
5.02193e-05
5.27531e-05
5.34923e-05
5.32863e-05
5.25505e-05
5.08535e-05
4.74138e-05
4.36702e-05
3.98397e-05
3.66555e-05
3.38166e-05
3.10356e-05
2.92482e-05
2.89293e-05
2.91297e-05
2.98929e-05
3.15125e-05
3.45175e-05
3.75911e-05
4.29361e-05
4.98669e-05
5.89296e-05
7.49082e-05
0.000101594
0.000142239