/*--------------------------------*- C++ -*----------------------------------*\
| =========                 |                                                 |
| \\      /  F ield         | OpenFOAM: The Open Source CFD Toolbox           |
|  \\    /   O peration     | Version:  2.4.0                                 |
|   \\  /    A nd           | Web:      www.OpenFOAM.org                      |
|    \\/     M anipulation  |                                                 |
\*---------------------------------------------------------------------------*/
FoamFile
{
    version     2.0;
    format      ascii;
    class       volScalarField;
    location    "0.07";
    object      pPrime2Mean;
}
// * * * * * * * * * * * * * * * * * * * * * * * * * * * * * * * * * * * * * //

dimensions      [0 4 -4 0 0 0 0];

internalField   nonuniform List<scalar> 
8800
(
9.23078e+06
8.99782e+06
8.74786e+06
8.50001e+06
8.25555e+06
8.01464e+06
7.77729e+06
7.5435e+06
7.31326e+06
7.08657e+06
6.86339e+06
6.6437e+06
6.42743e+06
6.21448e+06
6.00462e+06
5.79746e+06
5.59223e+06
5.38731e+06
5.17906e+06
4.95588e+06
9.23109e+06
8.99786e+06
8.74784e+06
8.5e+06
8.25554e+06
8.01463e+06
7.77729e+06
7.5435e+06
7.31326e+06
7.08657e+06
6.86339e+06
6.64371e+06
6.42745e+06
6.21451e+06
6.00468e+06
5.79757e+06
5.59245e+06
5.38778e+06
5.1802e+06
4.95958e+06
9.23129e+06
8.99785e+06
8.74778e+06
8.49996e+06
8.25553e+06
8.01463e+06
7.77728e+06
7.5435e+06
7.31326e+06
7.08657e+06
6.8634e+06
6.64373e+06
6.42748e+06
6.21457e+06
6.00479e+06
5.79779e+06
5.59288e+06
5.38868e+06
5.18229e+06
4.96689e+06
9.23145e+06
8.99784e+06
8.74772e+06
8.49992e+06
8.25551e+06
8.01462e+06
7.77728e+06
7.54349e+06
7.31326e+06
7.08658e+06
6.86342e+06
6.64375e+06
6.42753e+06
6.21466e+06
6.00496e+06
5.79811e+06
5.5935e+06
5.38996e+06
5.18522e+06
4.97541e+06
9.23157e+06
8.99784e+06
8.74768e+06
8.49988e+06
8.25549e+06
8.01461e+06
7.77728e+06
7.54349e+06
7.31326e+06
7.08658e+06
6.86343e+06
6.64378e+06
6.42759e+06
6.21478e+06
6.00518e+06
5.79852e+06
5.59428e+06
5.39155e+06
5.18872e+06
4.98423e+06
9.23167e+06
8.99785e+06
8.74764e+06
8.49985e+06
8.25548e+06
8.01461e+06
7.77727e+06
7.54349e+06
7.31327e+06
7.08659e+06
6.86345e+06
6.64382e+06
6.42767e+06
6.21491e+06
6.00543e+06
5.799e+06
5.59521e+06
5.39338e+06
5.19257e+06
4.99285e+06
9.23175e+06
8.99786e+06
8.74761e+06
8.49982e+06
8.25547e+06
8.01461e+06
7.77727e+06
7.54349e+06
7.31327e+06
7.0866e+06
6.86347e+06
6.64387e+06
6.42775e+06
6.21507e+06
6.00572e+06
5.79954e+06
5.59624e+06
5.39538e+06
5.19659e+06
5.00105e+06
9.23181e+06
8.99787e+06
8.74759e+06
8.4998e+06
8.25546e+06
8.01461e+06
7.77728e+06
7.54349e+06
7.31327e+06
7.08661e+06
6.8635e+06
6.64392e+06
6.42785e+06
6.21524e+06
6.00604e+06
5.80013e+06
5.59734e+06
5.39748e+06
5.20064e+06
5.0087e+06
9.23184e+06
8.99788e+06
8.74758e+06
8.49979e+06
8.25545e+06
8.01461e+06
7.77728e+06
7.5435e+06
7.31328e+06
7.08663e+06
6.86353e+06
6.64397e+06
6.42795e+06
6.21543e+06
6.00638e+06
5.80075e+06
5.59849e+06
5.39961e+06
5.20461e+06
5.01574e+06
9.23186e+06
8.99789e+06
8.74758e+06
8.49979e+06
8.25545e+06
8.01461e+06
7.77728e+06
7.5435e+06
7.31329e+06
7.08664e+06
6.86356e+06
6.64403e+06
6.42805e+06
6.21562e+06
6.00673e+06
5.80139e+06
5.59965e+06
5.40173e+06
5.20841e+06
5.02215e+06
9.23186e+06
8.99789e+06
8.74758e+06
8.49979e+06
8.25545e+06
8.01461e+06
7.77728e+06
7.54351e+06
7.3133e+06
7.08666e+06
6.86359e+06
6.64409e+06
6.42816e+06
6.21581e+06
6.00707e+06
5.80202e+06
5.6008e+06
5.40379e+06
5.21199e+06
5.02793e+06
9.23184e+06
8.99788e+06
8.74758e+06
8.49979e+06
8.25545e+06
8.01461e+06
7.77729e+06
7.54351e+06
7.31331e+06
7.08668e+06
6.86362e+06
6.64414e+06
6.42826e+06
6.21599e+06
6.00741e+06
5.80263e+06
5.6019e+06
5.40573e+06
5.2153e+06
5.03308e+06
9.23181e+06
8.99788e+06
8.7476e+06
8.49981e+06
8.25546e+06
8.01462e+06
7.77729e+06
7.54352e+06
7.31332e+06
7.0867e+06
6.86365e+06
6.6442e+06
6.42836e+06
6.21617e+06
6.00774e+06
5.80322e+06
5.60294e+06
5.40754e+06
5.21829e+06
5.03762e+06
9.23175e+06
8.99787e+06
8.74761e+06
8.49983e+06
8.25548e+06
8.01462e+06
7.77729e+06
7.54353e+06
7.31333e+06
7.08671e+06
6.86368e+06
6.64425e+06
6.42845e+06
6.21634e+06
6.00804e+06
5.80376e+06
5.60389e+06
5.40917e+06
5.22095e+06
5.04157e+06
9.23167e+06
8.99785e+06
8.74764e+06
8.49986e+06
8.25549e+06
8.01462e+06
7.7773e+06
7.54353e+06
7.31334e+06
7.08673e+06
6.86371e+06
6.6443e+06
6.42853e+06
6.21649e+06
6.00831e+06
5.80424e+06
5.60474e+06
5.4106e+06
5.22326e+06
5.04493e+06
9.23157e+06
8.99784e+06
8.74768e+06
8.49989e+06
8.2555e+06
8.01463e+06
7.7773e+06
7.54354e+06
7.31335e+06
7.08675e+06
6.86373e+06
6.64434e+06
6.42861e+06
6.21662e+06
6.00855e+06
5.80466e+06
5.60546e+06
5.41182e+06
5.22519e+06
5.04772e+06
9.23145e+06
8.99784e+06
8.74773e+06
8.49993e+06
8.25552e+06
8.01464e+06
7.77731e+06
7.54355e+06
7.31337e+06
7.08676e+06
6.86376e+06
6.64437e+06
6.42867e+06
6.21673e+06
6.00874e+06
5.80501e+06
5.60606e+06
5.41282e+06
5.22674e+06
5.04994e+06
9.23129e+06
8.99785e+06
8.74778e+06
8.49997e+06
8.25554e+06
8.01465e+06
7.77732e+06
7.54356e+06
7.31337e+06
7.08677e+06
6.86377e+06
6.6444e+06
6.42872e+06
6.21682e+06
6.00889e+06
5.80527e+06
5.60651e+06
5.41357e+06
5.22792e+06
5.0516e+06
9.23109e+06
8.99785e+06
8.74784e+06
8.50001e+06
8.25556e+06
8.01466e+06
7.77732e+06
7.54356e+06
7.31338e+06
7.08678e+06
6.86378e+06
6.64442e+06
6.42875e+06
6.21687e+06
6.00899e+06
5.80545e+06
5.60682e+06
5.41408e+06
5.2287e+06
5.0527e+06
9.23078e+06
8.99782e+06
8.74786e+06
8.50002e+06
8.25556e+06
8.01466e+06
7.77733e+06
7.54356e+06
7.31338e+06
7.08678e+06
6.86379e+06
6.64443e+06
6.42876e+06
6.2169e+06
6.00905e+06
5.80554e+06
5.60698e+06
5.41433e+06
5.22909e+06
5.05324e+06
4.75358e+06
4.69906e+06
4.65748e+06
4.62154e+06
4.58824e+06
4.55653e+06
4.52596e+06
4.49622e+06
4.46713e+06
4.43855e+06
4.41038e+06
4.38256e+06
4.35503e+06
4.32775e+06
4.30068e+06
4.27381e+06
4.24711e+06
4.22056e+06
4.19415e+06
4.16788e+06
4.14173e+06
4.11569e+06
4.08975e+06
4.06393e+06
4.0382e+06
4.01258e+06
3.98705e+06
3.96162e+06
3.93629e+06
3.91104e+06
3.88589e+06
3.86082e+06
3.83583e+06
3.81093e+06
3.78612e+06
3.76139e+06
3.73674e+06
3.71217e+06
3.68768e+06
3.66328e+06
3.63896e+06
3.61472e+06
3.59057e+06
3.56649e+06
3.5425e+06
3.5186e+06
3.49477e+06
3.47104e+06
3.44738e+06
3.42382e+06
3.40034e+06
3.37695e+06
3.35365e+06
3.33045e+06
3.30733e+06
3.28431e+06
3.26137e+06
3.23852e+06
3.21576e+06
3.19309e+06
3.1705e+06
3.148e+06
3.12558e+06
3.10324e+06
3.08098e+06
3.05881e+06
3.03671e+06
3.01469e+06
2.99274e+06
2.97087e+06
2.94907e+06
2.92733e+06
2.90567e+06
2.88407e+06
2.86253e+06
2.84106e+06
2.81965e+06
2.79831e+06
2.77705e+06
2.75585e+06
2.73474e+06
2.71371e+06
2.69277e+06
2.67191e+06
2.65115e+06
2.63048e+06
2.6099e+06
2.58941e+06
2.56901e+06
2.5487e+06
2.52848e+06
2.50834e+06
2.48829e+06
2.46832e+06
2.44844e+06
2.42864e+06
2.40892e+06
2.38929e+06
2.36973e+06
2.35026e+06
2.33086e+06
2.31155e+06
2.29232e+06
2.27317e+06
2.2541e+06
2.23511e+06
2.2162e+06
2.19737e+06
2.17862e+06
2.15995e+06
2.14136e+06
2.12286e+06
2.10443e+06
2.08608e+06
2.06781e+06
2.04963e+06
2.03152e+06
2.0135e+06
1.99555e+06
1.97769e+06
1.9599e+06
1.9422e+06
1.92457e+06
1.90703e+06
1.88956e+06
1.87218e+06
1.85488e+06
1.83765e+06
1.82051e+06
1.80345e+06
1.78647e+06
1.76956e+06
1.75274e+06
1.736e+06
1.71934e+06
1.70276e+06
1.68626e+06
1.66984e+06
1.6535e+06
1.63724e+06
1.62106e+06
1.60496e+06
1.58894e+06
1.57299e+06
1.55714e+06
1.54135e+06
1.52566e+06
1.51003e+06
1.49449e+06
1.47903e+06
1.46365e+06
1.44835e+06
1.43313e+06
1.41799e+06
1.40293e+06
1.38795e+06
1.37304e+06
1.35822e+06
1.34347e+06
1.32881e+06
1.31422e+06
1.29971e+06
1.28529e+06
1.27093e+06
1.25666e+06
1.24247e+06
1.22835e+06
1.21431e+06
1.20035e+06
1.18646e+06
1.17265e+06
1.15891e+06
1.14525e+06
1.13167e+06
1.11815e+06
1.10471e+06
1.09134e+06
1.07804e+06
1.06481e+06
1.05164e+06
1.03853e+06
1.02549e+06
1.0125e+06
999564
986675
973829
961015
948226
935452
922674
909879
897038
884125
871092
857876
844381
830453
815821
799678
780851
4.7923e+06
4.73425e+06
4.68691e+06
4.64615e+06
4.60928e+06
4.57481e+06
4.542e+06
4.51039e+06
4.47972e+06
4.44978e+06
4.42043e+06
4.39156e+06
4.36312e+06
4.33502e+06
4.30723e+06
4.27971e+06
4.25243e+06
4.22536e+06
4.19848e+06
4.17179e+06
4.14525e+06
4.11887e+06
4.09263e+06
4.06652e+06
4.04055e+06
4.0147e+06
3.98896e+06
3.96335e+06
3.93784e+06
3.91244e+06
3.88714e+06
3.86195e+06
3.83685e+06
3.81185e+06
3.78694e+06
3.76212e+06
3.73739e+06
3.71276e+06
3.68821e+06
3.66376e+06
3.63939e+06
3.61511e+06
3.59092e+06
3.56682e+06
3.5428e+06
3.51887e+06
3.49503e+06
3.47128e+06
3.44762e+06
3.42404e+06
3.40056e+06
3.37717e+06
3.35387e+06
3.33067e+06
3.30755e+06
3.28453e+06
3.26159e+06
3.23875e+06
3.21599e+06
3.19331e+06
3.17073e+06
3.14822e+06
3.1258e+06
3.10347e+06
3.08121e+06
3.05904e+06
3.03694e+06
3.01492e+06
2.99297e+06
2.97109e+06
2.94929e+06
2.92755e+06
2.90587e+06
2.88426e+06
2.86271e+06
2.84123e+06
2.8198e+06
2.79845e+06
2.77717e+06
2.75596e+06
2.73483e+06
2.71378e+06
2.69282e+06
2.67195e+06
2.65118e+06
2.6305e+06
2.60991e+06
2.58941e+06
2.56901e+06
2.5487e+06
2.52847e+06
2.50834e+06
2.48828e+06
2.46832e+06
2.44843e+06
2.42863e+06
2.40892e+06
2.38928e+06
2.36973e+06
2.35025e+06
2.33086e+06
2.31155e+06
2.29232e+06
2.27317e+06
2.2541e+06
2.23511e+06
2.2162e+06
2.19737e+06
2.17862e+06
2.15995e+06
2.14136e+06
2.12285e+06
2.10442e+06
2.08608e+06
2.06781e+06
2.04962e+06
2.03152e+06
2.01349e+06
1.99554e+06
1.97768e+06
1.95989e+06
1.94219e+06
1.92456e+06
1.90702e+06
1.88955e+06
1.87217e+06
1.85486e+06
1.83764e+06
1.82049e+06
1.80343e+06
1.78644e+06
1.76954e+06
1.75272e+06
1.73597e+06
1.71931e+06
1.70272e+06
1.68622e+06
1.66979e+06
1.65345e+06
1.63718e+06
1.621e+06
1.60489e+06
1.58887e+06
1.57292e+06
1.55705e+06
1.54127e+06
1.52556e+06
1.50993e+06
1.49438e+06
1.47891e+06
1.46352e+06
1.4482e+06
1.43297e+06
1.41781e+06
1.40273e+06
1.38773e+06
1.37281e+06
1.35796e+06
1.34319e+06
1.3285e+06
1.31389e+06
1.29935e+06
1.28489e+06
1.2705e+06
1.25618e+06
1.24195e+06
1.22778e+06
1.21369e+06
1.19967e+06
1.18572e+06
1.17184e+06
1.15803e+06
1.14429e+06
1.13061e+06
1.117e+06
1.10345e+06
1.08996e+06
1.07653e+06
1.06316e+06
1.04983e+06
1.03656e+06
1.02333e+06
1.01014e+06
996980
983848
970728
957616
944493
931346
918153
904886
891513
877983
864234
850169
835644
820408
804168
785928
764341
4.81917e+06
4.76159e+06
4.71206e+06
4.66842e+06
4.62888e+06
4.59212e+06
4.55734e+06
4.52405e+06
4.49191e+06
4.46069e+06
4.43022e+06
4.40036e+06
4.37104e+06
4.34216e+06
4.31367e+06
4.28551e+06
4.25766e+06
4.23009e+06
4.20275e+06
4.17564e+06
4.14873e+06
4.12201e+06
4.09546e+06
4.06908e+06
4.04286e+06
4.01678e+06
3.99084e+06
3.96504e+06
3.93936e+06
3.91381e+06
3.88837e+06
3.86305e+06
3.83784e+06
3.81273e+06
3.78773e+06
3.76283e+06
3.73804e+06
3.71334e+06
3.68873e+06
3.66423e+06
3.63982e+06
3.6155e+06
3.59127e+06
3.56714e+06
3.5431e+06
3.51915e+06
3.4953e+06
3.47153e+06
3.44786e+06
3.42428e+06
3.4008e+06
3.37741e+06
3.35411e+06
3.3309e+06
3.30779e+06
3.28476e+06
3.26182e+06
3.23897e+06
3.21621e+06
3.19354e+06
3.17095e+06
3.14845e+06
3.12603e+06
3.1037e+06
3.08144e+06
3.05926e+06
3.03716e+06
3.01514e+06
2.99319e+06
2.97131e+06
2.94949e+06
2.92775e+06
2.90606e+06
2.88444e+06
2.86288e+06
2.84138e+06
2.81995e+06
2.79858e+06
2.77728e+06
2.75605e+06
2.7349e+06
2.71384e+06
2.69287e+06
2.67199e+06
2.6512e+06
2.63051e+06
2.60992e+06
2.58942e+06
2.56901e+06
2.5487e+06
2.52847e+06
2.50833e+06
2.48828e+06
2.46831e+06
2.44843e+06
2.42863e+06
2.40891e+06
2.38928e+06
2.36972e+06
2.35025e+06
2.33086e+06
2.31155e+06
2.29231e+06
2.27316e+06
2.25409e+06
2.2351e+06
2.21619e+06
2.19736e+06
2.17861e+06
2.15995e+06
2.14136e+06
2.12285e+06
2.10442e+06
2.08607e+06
2.0678e+06
2.04962e+06
2.03151e+06
2.01348e+06
1.99554e+06
1.97767e+06
1.95988e+06
1.94218e+06
1.92455e+06
1.907e+06
1.88954e+06
1.87215e+06
1.85485e+06
1.83762e+06
1.82047e+06
1.80341e+06
1.78642e+06
1.76952e+06
1.75269e+06
1.73594e+06
1.71927e+06
1.70269e+06
1.68618e+06
1.66975e+06
1.6534e+06
1.63713e+06
1.62094e+06
1.60483e+06
1.5888e+06
1.57285e+06
1.55697e+06
1.54118e+06
1.52546e+06
1.50983e+06
1.49427e+06
1.47878e+06
1.46338e+06
1.44805e+06
1.4328e+06
1.41763e+06
1.40254e+06
1.38752e+06
1.37258e+06
1.35771e+06
1.34292e+06
1.3282e+06
1.31356e+06
1.29899e+06
1.28449e+06
1.27007e+06
1.25571e+06
1.24143e+06
1.22722e+06
1.21307e+06
1.19899e+06
1.18498e+06
1.17104e+06
1.15715e+06
1.14333e+06
1.12956e+06
1.11586e+06
1.1022e+06
1.0886e+06
1.07504e+06
1.06153e+06
1.04806e+06
1.03462e+06
1.02121e+06
1.00782e+06
994446
981074
967695
954291
940853
927351
913766
900062
886195
872109
857729
842913
827608
811343
794133
774954
753053
4.83956e+06
4.78351e+06
4.73342e+06
4.6882e+06
4.64681e+06
4.60824e+06
4.57182e+06
4.53704e+06
4.50358e+06
4.47119e+06
4.43967e+06
4.40888e+06
4.37872e+06
4.34909e+06
4.31992e+06
4.29116e+06
4.26277e+06
4.2347e+06
4.20691e+06
4.1794e+06
4.15213e+06
4.12508e+06
4.09823e+06
4.07158e+06
4.04511e+06
4.01881e+06
3.99267e+06
3.96669e+06
3.94084e+06
3.91514e+06
3.88957e+06
3.86412e+06
3.8388e+06
3.8136e+06
3.78851e+06
3.76353e+06
3.73866e+06
3.7139e+06
3.68925e+06
3.66469e+06
3.64024e+06
3.61588e+06
3.59162e+06
3.56746e+06
3.5434e+06
3.51944e+06
3.49557e+06
3.47179e+06
3.44812e+06
3.42453e+06
3.40105e+06
3.37765e+06
3.35435e+06
3.33114e+06
3.30803e+06
3.285e+06
3.26206e+06
3.23921e+06
3.21645e+06
3.19377e+06
3.17118e+06
3.14868e+06
3.12626e+06
3.10392e+06
3.08166e+06
3.05948e+06
3.03737e+06
3.01534e+06
2.99339e+06
2.9715e+06
2.94968e+06
2.92793e+06
2.90624e+06
2.88461e+06
2.86304e+06
2.84153e+06
2.82008e+06
2.79869e+06
2.77737e+06
2.75613e+06
2.73497e+06
2.71389e+06
2.69291e+06
2.67202e+06
2.65122e+06
2.63053e+06
2.60993e+06
2.58942e+06
2.56902e+06
2.5487e+06
2.52847e+06
2.50833e+06
2.48828e+06
2.46831e+06
2.44843e+06
2.42863e+06
2.40891e+06
2.38927e+06
2.36972e+06
2.35025e+06
2.33085e+06
2.31154e+06
2.29231e+06
2.27316e+06
2.25409e+06
2.2351e+06
2.21619e+06
2.19736e+06
2.17861e+06
2.15994e+06
2.14135e+06
2.12285e+06
2.10442e+06
2.08607e+06
2.0678e+06
2.04961e+06
2.0315e+06
2.01348e+06
1.99553e+06
1.97766e+06
1.95987e+06
1.94217e+06
1.92454e+06
1.90699e+06
1.88952e+06
1.87214e+06
1.85483e+06
1.8376e+06
1.82046e+06
1.80339e+06
1.7864e+06
1.76949e+06
1.75266e+06
1.73591e+06
1.71924e+06
1.70265e+06
1.68614e+06
1.66971e+06
1.65336e+06
1.63708e+06
1.62089e+06
1.60477e+06
1.58874e+06
1.57278e+06
1.5569e+06
1.5411e+06
1.52537e+06
1.50972e+06
1.49415e+06
1.47866e+06
1.46325e+06
1.44791e+06
1.43264e+06
1.41746e+06
1.40235e+06
1.38731e+06
1.37235e+06
1.35746e+06
1.34264e+06
1.3279e+06
1.31323e+06
1.29863e+06
1.2841e+06
1.26964e+06
1.25525e+06
1.24092e+06
1.22666e+06
1.21247e+06
1.19833e+06
1.18426e+06
1.17025e+06
1.15629e+06
1.14239e+06
1.12854e+06
1.11473e+06
1.10098e+06
1.08726e+06
1.07359e+06
1.05994e+06
1.04632e+06
1.03272e+06
1.01914e+06
1.00556e+06
991977
978376
964747
951070
937329
923495
909549
895432
881145
866520
851669
836175
820321
803398
785574
766187
744762
4.85607e+06
4.80155e+06
4.75156e+06
4.70556e+06
4.66296e+06
4.62305e+06
4.58529e+06
4.54926e+06
4.51464e+06
4.48118e+06
4.4487e+06
4.41705e+06
4.38611e+06
4.35577e+06
4.32597e+06
4.29663e+06
4.26771e+06
4.23917e+06
4.21096e+06
4.18305e+06
4.15543e+06
4.12806e+06
4.10092e+06
4.07401e+06
4.0473e+06
4.02079e+06
3.99445e+06
3.96829e+06
3.94228e+06
3.91644e+06
3.89073e+06
3.86517e+06
3.83975e+06
3.81445e+06
3.78927e+06
3.76422e+06
3.73929e+06
3.71446e+06
3.68975e+06
3.66515e+06
3.64066e+06
3.61627e+06
3.59198e+06
3.56779e+06
3.54371e+06
3.51973e+06
3.49585e+06
3.47207e+06
3.44838e+06
3.4248e+06
3.40131e+06
3.37791e+06
3.3546e+06
3.33139e+06
3.30827e+06
3.28524e+06
3.26229e+06
3.23944e+06
3.21668e+06
3.194e+06
3.1714e+06
3.14889e+06
3.12647e+06
3.10412e+06
3.08185e+06
3.05967e+06
3.03755e+06
3.01552e+06
2.99355e+06
2.97166e+06
2.94983e+06
2.92807e+06
2.90638e+06
2.88474e+06
2.86316e+06
2.84164e+06
2.82017e+06
2.79878e+06
2.77745e+06
2.75619e+06
2.73502e+06
2.71393e+06
2.69294e+06
2.67204e+06
2.65124e+06
2.63054e+06
2.60993e+06
2.58943e+06
2.56902e+06
2.5487e+06
2.52847e+06
2.50833e+06
2.48828e+06
2.46831e+06
2.44843e+06
2.42863e+06
2.40891e+06
2.38927e+06
2.36972e+06
2.35025e+06
2.33085e+06
2.31154e+06
2.29231e+06
2.27316e+06
2.25409e+06
2.2351e+06
2.21619e+06
2.19736e+06
2.17861e+06
2.15994e+06
2.14135e+06
2.12284e+06
2.10441e+06
2.08607e+06
2.0678e+06
2.04961e+06
2.0315e+06
2.01347e+06
1.99552e+06
1.97766e+06
1.95987e+06
1.94216e+06
1.92453e+06
1.90698e+06
1.88951e+06
1.87213e+06
1.85482e+06
1.83759e+06
1.82044e+06
1.80337e+06
1.78638e+06
1.76947e+06
1.75264e+06
1.73589e+06
1.71921e+06
1.70262e+06
1.6861e+06
1.66967e+06
1.65331e+06
1.63704e+06
1.62084e+06
1.60472e+06
1.58867e+06
1.57271e+06
1.55682e+06
1.54101e+06
1.52528e+06
1.50963e+06
1.49404e+06
1.47855e+06
1.46311e+06
1.44777e+06
1.43249e+06
1.41729e+06
1.40216e+06
1.38711e+06
1.37212e+06
1.35722e+06
1.34238e+06
1.32761e+06
1.31291e+06
1.29829e+06
1.28372e+06
1.26923e+06
1.25479e+06
1.24043e+06
1.22612e+06
1.21188e+06
1.19769e+06
1.18356e+06
1.16948e+06
1.15545e+06
1.14147e+06
1.12754e+06
1.11364e+06
1.09979e+06
1.08596e+06
1.07217e+06
1.05839e+06
1.04464e+06
1.03088e+06
1.01713e+06
1.00337e+06
989594
975769
961918
947967
933974
919796
905569
891026
876415
861313
846052
830118
813759
796524
778306
758971
738131
4.86995e+06
4.81674e+06
4.76711e+06
4.72077e+06
4.67739e+06
4.63651e+06
4.5977e+06
4.56062e+06
4.52501e+06
4.49062e+06
4.45728e+06
4.42483e+06
4.39316e+06
4.36217e+06
4.33177e+06
4.30189e+06
4.27248e+06
4.24348e+06
4.21486e+06
4.18658e+06
4.15862e+06
4.13094e+06
4.10353e+06
4.07637e+06
4.04943e+06
4.0227e+06
3.99618e+06
3.96985e+06
3.94369e+06
3.9177e+06
3.89188e+06
3.8662e+06
3.84067e+06
3.81528e+06
3.79003e+06
3.7649e+06
3.7399e+06
3.71502e+06
3.69026e+06
3.66561e+06
3.64108e+06
3.61666e+06
3.59234e+06
3.56813e+06
3.54403e+06
3.52004e+06
3.49614e+06
3.47235e+06
3.44866e+06
3.42507e+06
3.40157e+06
3.37817e+06
3.35486e+06
3.33164e+06
3.30851e+06
3.28548e+06
3.26253e+06
3.23967e+06
3.21689e+06
3.1942e+06
3.1716e+06
3.14908e+06
3.12665e+06
3.10429e+06
3.08202e+06
3.05982e+06
3.0377e+06
3.01565e+06
2.99368e+06
2.97178e+06
2.94995e+06
2.92818e+06
2.90647e+06
2.88483e+06
2.86324e+06
2.8417e+06
2.82023e+06
2.79883e+06
2.77749e+06
2.75623e+06
2.73505e+06
2.71396e+06
2.69296e+06
2.67205e+06
2.65125e+06
2.63054e+06
2.60993e+06
2.58943e+06
2.56901e+06
2.5487e+06
2.52847e+06
2.50833e+06
2.48828e+06
2.46831e+06
2.44843e+06
2.42863e+06
2.40891e+06
2.38927e+06
2.36972e+06
2.35025e+06
2.33085e+06
2.31154e+06
2.29231e+06
2.27316e+06
2.25409e+06
2.2351e+06
2.21619e+06
2.19736e+06
2.17861e+06
2.15994e+06
2.14135e+06
2.12284e+06
2.10441e+06
2.08606e+06
2.06779e+06
2.04961e+06
2.0315e+06
2.01347e+06
1.99552e+06
1.97765e+06
1.95986e+06
1.94215e+06
1.92452e+06
1.90698e+06
1.8895e+06
1.87212e+06
1.8548e+06
1.83758e+06
1.82042e+06
1.80336e+06
1.78636e+06
1.76945e+06
1.75261e+06
1.73586e+06
1.71919e+06
1.70259e+06
1.68607e+06
1.66964e+06
1.65327e+06
1.637e+06
1.62079e+06
1.60467e+06
1.58861e+06
1.57265e+06
1.55675e+06
1.54094e+06
1.52519e+06
1.50954e+06
1.49394e+06
1.47844e+06
1.46299e+06
1.44764e+06
1.43234e+06
1.41713e+06
1.40198e+06
1.38692e+06
1.37191e+06
1.35699e+06
1.34212e+06
1.32734e+06
1.3126e+06
1.29796e+06
1.28335e+06
1.26883e+06
1.25436e+06
1.23996e+06
1.2256e+06
1.21132e+06
1.19706e+06
1.18289e+06
1.16873e+06
1.15465e+06
1.14058e+06
1.12658e+06
1.11258e+06
1.09865e+06
1.0847e+06
1.07081e+06
1.05689e+06
1.04302e+06
1.0291e+06
1.01522e+06
1.00125e+06
987320
973260
959223
945000
930784
916308
901799
886951
871976
856591
840889
824690
807908
790459
772065
752854
732565
4.88189e+06
4.82976e+06
4.78054e+06
4.73409e+06
4.69023e+06
4.64864e+06
4.60902e+06
4.5711e+06
4.53464e+06
4.49944e+06
4.46534e+06
4.43218e+06
4.39985e+06
4.36825e+06
4.3373e+06
4.30691e+06
4.27703e+06
4.24761e+06
4.21861e+06
4.18998e+06
4.16169e+06
4.13372e+06
4.10605e+06
4.07864e+06
4.05148e+06
4.02456e+06
3.99786e+06
3.97136e+06
3.94506e+06
3.91894e+06
3.89299e+06
3.86721e+06
3.84158e+06
3.8161e+06
3.79077e+06
3.76557e+06
3.74051e+06
3.71557e+06
3.69076e+06
3.66607e+06
3.6415e+06
3.61705e+06
3.59271e+06
3.56848e+06
3.54436e+06
3.52035e+06
3.49644e+06
3.47264e+06
3.44894e+06
3.42534e+06
3.40183e+06
3.37842e+06
3.35511e+06
3.33188e+06
3.30875e+06
3.2857e+06
3.26274e+06
3.23987e+06
3.21709e+06
3.19439e+06
3.17177e+06
3.14924e+06
3.1268e+06
3.10443e+06
3.08214e+06
3.05993e+06
3.0378e+06
3.01575e+06
2.99377e+06
2.97186e+06
2.95002e+06
2.92824e+06
2.90652e+06
2.88487e+06
2.86327e+06
2.84173e+06
2.82025e+06
2.79884e+06
2.7775e+06
2.75624e+06
2.73506e+06
2.71396e+06
2.69296e+06
2.67206e+06
2.65125e+06
2.63054e+06
2.60993e+06
2.58942e+06
2.56901e+06
2.5487e+06
2.52847e+06
2.50833e+06
2.48828e+06
2.46831e+06
2.44843e+06
2.42863e+06
2.40891e+06
2.38928e+06
2.36972e+06
2.35025e+06
2.33085e+06
2.31154e+06
2.29231e+06
2.27316e+06
2.25409e+06
2.2351e+06
2.21619e+06
2.19736e+06
2.17861e+06
2.15994e+06
2.14135e+06
2.12284e+06
2.10441e+06
2.08606e+06
2.06779e+06
2.04961e+06
2.03149e+06
2.01347e+06
1.99552e+06
1.97765e+06
1.95986e+06
1.94215e+06
1.92452e+06
1.90697e+06
1.8895e+06
1.87211e+06
1.8548e+06
1.83757e+06
1.82041e+06
1.80334e+06
1.78635e+06
1.76944e+06
1.7526e+06
1.73584e+06
1.71916e+06
1.70257e+06
1.68604e+06
1.66961e+06
1.65324e+06
1.63696e+06
1.62075e+06
1.60462e+06
1.58856e+06
1.57259e+06
1.55669e+06
1.54087e+06
1.52512e+06
1.50945e+06
1.49385e+06
1.47833e+06
1.46288e+06
1.44751e+06
1.4322e+06
1.41698e+06
1.40182e+06
1.38674e+06
1.37171e+06
1.35677e+06
1.34188e+06
1.32708e+06
1.31232e+06
1.29765e+06
1.28301e+06
1.26846e+06
1.25395e+06
1.23951e+06
1.22511e+06
1.21078e+06
1.19648e+06
1.18225e+06
1.16803e+06
1.15389e+06
1.13975e+06
1.12568e+06
1.11159e+06
1.09757e+06
1.08352e+06
1.06953e+06
1.05548e+06
1.04149e+06
1.02743e+06
1.0134e+06
999272
985167
970923
956676
942252
927780
913091
898276
883202
867885
852242
836207
819742
802679
785058
766641
747583
727760
4.8923e+06
4.84103e+06
4.79222e+06
4.74578e+06
4.70163e+06
4.65954e+06
4.6193e+06
4.58069e+06
4.54352e+06
4.50763e+06
4.47285e+06
4.43906e+06
4.40614e+06
4.37399e+06
4.34252e+06
4.31167e+06
4.28136e+06
4.25154e+06
4.22217e+06
4.19321e+06
4.16463e+06
4.13638e+06
4.10845e+06
4.08082e+06
4.05345e+06
4.02634e+06
3.99947e+06
3.97282e+06
3.94637e+06
3.92013e+06
3.89407e+06
3.86818e+06
3.84246e+06
3.8169e+06
3.79149e+06
3.76622e+06
3.7411e+06
3.71611e+06
3.69126e+06
3.66653e+06
3.64192e+06
3.61744e+06
3.59307e+06
3.56882e+06
3.54468e+06
3.52066e+06
3.49674e+06
3.47293e+06
3.44922e+06
3.42561e+06
3.40209e+06
3.37868e+06
3.35535e+06
3.33212e+06
3.30897e+06
3.28591e+06
3.26294e+06
3.24005e+06
3.21725e+06
3.19454e+06
3.17191e+06
3.14936e+06
3.1269e+06
3.10452e+06
3.08222e+06
3.06e+06
3.03786e+06
3.01579e+06
2.9938e+06
2.97188e+06
2.95003e+06
2.92825e+06
2.90653e+06
2.88487e+06
2.86327e+06
2.84172e+06
2.82024e+06
2.79883e+06
2.77749e+06
2.75623e+06
2.73505e+06
2.71395e+06
2.69295e+06
2.67205e+06
2.65124e+06
2.63053e+06
2.60993e+06
2.58942e+06
2.56901e+06
2.54869e+06
2.52847e+06
2.50833e+06
2.48828e+06
2.46831e+06
2.44843e+06
2.42863e+06
2.40891e+06
2.38928e+06
2.36972e+06
2.35025e+06
2.33086e+06
2.31155e+06
2.29231e+06
2.27316e+06
2.25409e+06
2.2351e+06
2.21619e+06
2.19736e+06
2.17861e+06
2.15994e+06
2.14135e+06
2.12284e+06
2.10441e+06
2.08606e+06
2.06779e+06
2.04961e+06
2.03149e+06
2.01347e+06
1.99552e+06
1.97765e+06
1.95986e+06
1.94215e+06
1.92452e+06
1.90697e+06
1.88949e+06
1.8721e+06
1.85479e+06
1.83756e+06
1.8204e+06
1.80333e+06
1.78634e+06
1.76942e+06
1.75258e+06
1.73583e+06
1.71915e+06
1.70255e+06
1.68602e+06
1.66958e+06
1.65321e+06
1.63692e+06
1.62071e+06
1.60458e+06
1.58852e+06
1.57254e+06
1.55663e+06
1.54081e+06
1.52505e+06
1.50937e+06
1.49376e+06
1.47824e+06
1.46278e+06
1.4474e+06
1.43208e+06
1.41685e+06
1.40167e+06
1.38657e+06
1.37153e+06
1.35657e+06
1.34166e+06
1.32684e+06
1.31206e+06
1.29736e+06
1.28269e+06
1.26811e+06
1.25356e+06
1.23909e+06
1.22465e+06
1.21028e+06
1.19593e+06
1.18165e+06
1.16738e+06
1.15317e+06
1.13896e+06
1.12482e+06
1.11065e+06
1.09655e+06
1.0824e+06
1.06831e+06
1.05416e+06
1.04005e+06
1.02586e+06
1.01169e+06
997427
983148
968749
954299
939699
924993
910101
895027
879716
864129
848229
831937
815245
798012
780293
761932
743039
723581
4.90144e+06
4.85086e+06
4.80242e+06
4.75605e+06
4.71172e+06
4.66927e+06
4.62855e+06
4.58939e+06
4.55164e+06
4.51515e+06
4.4798e+06
4.44545e+06
4.412e+06
4.37935e+06
4.34742e+06
4.31613e+06
4.28543e+06
4.25524e+06
4.22554e+06
4.19627e+06
4.1674e+06
4.1389e+06
4.11073e+06
4.08288e+06
4.05532e+06
4.02804e+06
4.001e+06
3.9742e+06
3.94763e+06
3.92126e+06
3.89509e+06
3.86911e+06
3.8433e+06
3.81766e+06
3.79218e+06
3.76685e+06
3.74167e+06
3.71663e+06
3.69173e+06
3.66696e+06
3.64233e+06
3.61782e+06
3.59343e+06
3.56916e+06
3.545e+06
3.52096e+06
3.49703e+06
3.47321e+06
3.44948e+06
3.42586e+06
3.40234e+06
3.37891e+06
3.35557e+06
3.33232e+06
3.30916e+06
3.28608e+06
3.26309e+06
3.24019e+06
3.21737e+06
3.19464e+06
3.172e+06
3.14944e+06
3.12696e+06
3.10457e+06
3.08225e+06
3.06002e+06
3.03786e+06
3.01578e+06
2.99378e+06
2.97185e+06
2.94999e+06
2.92821e+06
2.90648e+06
2.88482e+06
2.86322e+06
2.84168e+06
2.8202e+06
2.79879e+06
2.77745e+06
2.75619e+06
2.73502e+06
2.71393e+06
2.69293e+06
2.67203e+06
2.65123e+06
2.63052e+06
2.60992e+06
2.58942e+06
2.56901e+06
2.54869e+06
2.52847e+06
2.50833e+06
2.48828e+06
2.46832e+06
2.44843e+06
2.42863e+06
2.40892e+06
2.38928e+06
2.36973e+06
2.35025e+06
2.33086e+06
2.31155e+06
2.29232e+06
2.27317e+06
2.25409e+06
2.2351e+06
2.21619e+06
2.19736e+06
2.17861e+06
2.15994e+06
2.14135e+06
2.12284e+06
2.10441e+06
2.08606e+06
2.06779e+06
2.04961e+06
2.03149e+06
2.01347e+06
1.99551e+06
1.97765e+06
1.95985e+06
1.94215e+06
1.92451e+06
1.90696e+06
1.88949e+06
1.8721e+06
1.85478e+06
1.83755e+06
1.8204e+06
1.80332e+06
1.78633e+06
1.76941e+06
1.75257e+06
1.73581e+06
1.71913e+06
1.70253e+06
1.686e+06
1.66956e+06
1.65318e+06
1.63689e+06
1.62068e+06
1.60454e+06
1.58848e+06
1.57249e+06
1.55658e+06
1.54075e+06
1.52499e+06
1.5093e+06
1.49369e+06
1.47815e+06
1.46268e+06
1.44729e+06
1.43197e+06
1.41672e+06
1.40153e+06
1.38642e+06
1.37136e+06
1.35639e+06
1.34146e+06
1.32661e+06
1.31181e+06
1.29708e+06
1.2824e+06
1.26779e+06
1.25321e+06
1.2387e+06
1.22422e+06
1.20981e+06
1.19542e+06
1.18108e+06
1.16676e+06
1.1525e+06
1.13823e+06
1.12401e+06
1.10978e+06
1.09558e+06
1.08137e+06
1.06717e+06
1.05293e+06
1.03869e+06
1.0244e+06
1.01009e+06
995696
981251
966706
952066
937294
922377
907286
891987
876458
860644
844534
828046
811196
793871
776112
757831
739099
719929
4.90949e+06
4.85945e+06
4.81134e+06
4.76507e+06
4.72063e+06
4.67792e+06
4.63683e+06
4.59723e+06
4.55899e+06
4.52201e+06
4.48615e+06
4.45132e+06
4.4174e+06
4.3843e+06
4.35196e+06
4.32028e+06
4.28921e+06
4.25869e+06
4.22868e+06
4.19913e+06
4.17e+06
4.14125e+06
4.11287e+06
4.08482e+06
4.05708e+06
4.02963e+06
4.00244e+06
3.97551e+06
3.94881e+06
3.92233e+06
3.89606e+06
3.86998e+06
3.84409e+06
3.81837e+06
3.79283e+06
3.76744e+06
3.74221e+06
3.71713e+06
3.69219e+06
3.66738e+06
3.64272e+06
3.61818e+06
3.59377e+06
3.56948e+06
3.54531e+06
3.52125e+06
3.49731e+06
3.47347e+06
3.44974e+06
3.4261e+06
3.40257e+06
3.37912e+06
3.35577e+06
3.3325e+06
3.30932e+06
3.28622e+06
3.26321e+06
3.24028e+06
3.21744e+06
3.1947e+06
3.17204e+06
3.14946e+06
3.12697e+06
3.10456e+06
3.08223e+06
3.05998e+06
3.03781e+06
3.01572e+06
2.99371e+06
2.97177e+06
2.94991e+06
2.92812e+06
2.90639e+06
2.88473e+06
2.86313e+06
2.84159e+06
2.82012e+06
2.79872e+06
2.77739e+06
2.75614e+06
2.73497e+06
2.71389e+06
2.6929e+06
2.67201e+06
2.65121e+06
2.63051e+06
2.60991e+06
2.58941e+06
2.569e+06
2.54869e+06
2.52847e+06
2.50834e+06
2.48829e+06
2.46832e+06
2.44844e+06
2.42864e+06
2.40892e+06
2.38929e+06
2.36973e+06
2.35026e+06
2.33086e+06
2.31155e+06
2.29232e+06
2.27317e+06
2.2541e+06
2.23511e+06
2.21619e+06
2.19736e+06
2.17861e+06
2.15994e+06
2.14135e+06
2.12284e+06
2.10441e+06
2.08606e+06
2.06779e+06
2.04961e+06
2.03149e+06
2.01347e+06
1.99551e+06
1.97764e+06
1.95985e+06
1.94214e+06
1.92451e+06
1.90696e+06
1.88949e+06
1.87209e+06
1.85478e+06
1.83755e+06
1.82039e+06
1.80331e+06
1.78632e+06
1.7694e+06
1.75256e+06
1.7358e+06
1.71911e+06
1.70251e+06
1.68598e+06
1.66953e+06
1.65316e+06
1.63686e+06
1.62064e+06
1.6045e+06
1.58844e+06
1.57245e+06
1.55653e+06
1.54069e+06
1.52493e+06
1.50924e+06
1.49362e+06
1.47807e+06
1.46259e+06
1.44719e+06
1.43186e+06
1.4166e+06
1.4014e+06
1.38627e+06
1.3712e+06
1.35621e+06
1.34127e+06
1.3264e+06
1.31158e+06
1.29683e+06
1.28212e+06
1.26748e+06
1.25288e+06
1.23833e+06
1.22382e+06
1.20937e+06
1.19494e+06
1.18055e+06
1.16619e+06
1.15186e+06
1.13755e+06
1.12325e+06
1.10896e+06
1.09468e+06
1.08039e+06
1.06609e+06
1.05177e+06
1.03742e+06
1.02302e+06
1.00857e+06
994058
979463
964773
949965
935028
919925
904654
889159
873450
857450
841185
824557
807601
790225
772458
754258
735673
716734
4.91655e+06
4.86697e+06
4.81913e+06
4.77296e+06
4.72846e+06
4.68557e+06
4.64419e+06
4.60423e+06
4.5656e+06
4.5282e+06
4.49192e+06
4.45666e+06
4.42233e+06
4.38884e+06
4.35612e+06
4.32409e+06
4.2927e+06
4.26188e+06
4.23158e+06
4.20177e+06
4.1724e+06
4.14344e+06
4.11486e+06
4.08662e+06
4.05871e+06
4.03111e+06
4.00378e+06
3.97672e+06
3.94991e+06
3.92332e+06
3.89696e+06
3.87079e+06
3.84483e+06
3.81904e+06
3.79344e+06
3.768e+06
3.74272e+06
3.71759e+06
3.69262e+06
3.66778e+06
3.64309e+06
3.61853e+06
3.59409e+06
3.56979e+06
3.5456e+06
3.52152e+06
3.49756e+06
3.47371e+06
3.44996e+06
3.42631e+06
3.40276e+06
3.3793e+06
3.35593e+06
3.33264e+06
3.30943e+06
3.28631e+06
3.26328e+06
3.24033e+06
3.21748e+06
3.19471e+06
3.17204e+06
3.14945e+06
3.12694e+06
3.10451e+06
3.08217e+06
3.05991e+06
3.03773e+06
3.01563e+06
2.99361e+06
2.97166e+06
2.94979e+06
2.928e+06
2.90627e+06
2.8846e+06
2.86301e+06
2.84147e+06
2.82001e+06
2.79862e+06
2.7773e+06
2.75606e+06
2.73491e+06
2.71384e+06
2.69286e+06
2.67198e+06
2.65119e+06
2.6305e+06
2.6099e+06
2.58941e+06
2.56899e+06
2.5487e+06
2.52847e+06
2.50835e+06
2.48829e+06
2.46832e+06
2.44844e+06
2.42864e+06
2.40892e+06
2.38929e+06
2.36973e+06
2.35026e+06
2.33086e+06
2.31155e+06
2.29232e+06
2.27317e+06
2.2541e+06
2.23511e+06
2.21619e+06
2.19736e+06
2.17861e+06
2.15994e+06
2.14135e+06
2.12284e+06
2.10441e+06
2.08606e+06
2.06779e+06
2.0496e+06
2.03149e+06
2.01346e+06
1.99551e+06