/*--------------------------------*- C++ -*----------------------------------*\
| =========                 |                                                 |
| \\      /  F ield         | OpenFOAM: The Open Source CFD Toolbox           |
|  \\    /   O peration     | Version:  2.4.0                                 |
|   \\  /    A nd           | Web:      www.OpenFOAM.org                      |
|    \\/     M anipulation  |                                                 |
\*---------------------------------------------------------------------------*/
FoamFile
{
    version     2.0;
    format      ascii;
    class       volVectorField;
    location    "0.07";
    object      U;
}
// * * * * * * * * * * * * * * * * * * * * * * * * * * * * * * * * * * * * * //

dimensions      [0 1 -1 0 0 0 0];

internalField   nonuniform List<vector> 
8800
(
(8.09204 0.387947 0)
(5.44877 0.24248 0)
(3.91101 0.0430382 0)
(3.15937 -0.0157904 0)
(2.80049 -0.0178011 0)
(2.5968 -0.0109627 0)
(2.48868 -0.00682306 0)
(2.37877 -0.00122142 0)
(2.31948 -0.000974933 0)
(2.24936 -0.00220187 0)
(2.22969 -0.000574619 0)
(2.16442 0.00143193 0)
(2.15614 -0.00139655 0)
(2.10996 -2.19872e-05 0)
(2.10624 0.000656218 0)
(2.04566 0.00226226 0)
(2.03851 -8.25892e-05 0)
(1.99161 0.00125031 0)
(1.94859 0.0118586 0)
(1.76835 -0.0225873 0)
(10.0864 0.838636 0)
(9.65455 0.867871 0)
(8.87095 0.506432 0)
(8.08822 0.260743 0)
(7.48949 0.139906 0)
(7.006 0.0817811 0)
(6.70923 0.0511376 0)
(6.38637 0.0441292 0)
(6.23486 0.0308714 0)
(6.01976 0.0184135 0)
(5.94942 0.0192705 0)
(5.76743 0.021492 0)
(5.75331 0.00861537 0)
(5.60557 0.0131033 0)
(5.60475 0.0141875 0)
(5.45222 0.0184611 0)
(5.46629 0.010887 0)
(5.33166 0.016362 0)
(5.28879 0.0447004 0)
(5.13613 0.0219195 0)
(10.0661 0.632289 0)
(10.652 0.863397 0)
(10.8654 0.60062 0)
(10.7 0.372078 0)
(10.4548 0.259094 0)
(10.081 0.194113 0)
(9.85939 0.1501 0)
(9.47346 0.129302 0)
(9.32925 0.0946345 0)
(9.02682 0.066763 0)
(8.94955 0.0609552 0)
(8.68427 0.0575675 0)
(8.67957 0.0311429 0)
(8.45104 0.0374816 0)
(8.47153 0.0364959 0)
(8.23671 0.0407532 0)
(8.29827 0.0249239 0)
(8.0733 0.0449913 0)
(8.06731 0.0602346 0)
(7.87627 0.116487 0)
(10.0144 0.458852 0)
(10.5553 0.706475 0)
(11.1528 0.542121 0)
(11.3797 0.350054 0)
(11.5696 0.269471 0)
(11.4477 0.222111 0)
(11.5218 0.195107 0)
(11.2813 0.188496 0)
(11.3091 0.145792 0)
(11.0678 0.113858 0)
(11.0941 0.107922 0)
(10.849 0.102451 0)
(10.9026 0.0609219 0)
(10.6644 0.0711409 0)
(10.7347 0.0664757 0)
(10.4696 0.0724058 0)
(10.5732 0.0391206 0)
(10.3257 0.0847056 0)
(10.3358 0.0697882 0)
(10.1091 0.16359 0)
(10.0578 0.348259 0)
(10.4079 0.572812 0)
(11.0221 0.458224 0)
(11.2828 0.282953 0)
(11.6753 0.219906 0)
(11.6693 0.185485 0)
(11.9034 0.171293 0)
(11.8267 0.187067 0)
(11.9975 0.146158 0)
(11.8815 0.116931 0)
(12.025 0.115414 0)
(11.9243 0.115955 0)
(12.0479 0.0694435 0)
(11.9254 0.0840628 0)
(12.0557 0.0836778 0)
(11.9005 0.0900323 0)
(12.0129 0.0501852 0)
(11.8688 0.103177 0)
(11.8591 0.0872605 0)
(11.6981 0.121885 0)
(10.0479 0.250249 0)
(10.3423 0.463298 0)
(10.8907 0.381265 0)
(11.1572 0.233801 0)
(11.5221 0.167082 0)
(11.616 0.145276 0)
(11.8055 0.13081 0)
(11.8425 0.162488 0)
(12.0079 0.120816 0)
(11.9976 0.102943 0)
(12.1227 0.0967003 0)
(12.1581 0.102993 0)
(12.2629 0.0496725 0)
(12.2791 0.0718599 0)
(12.402 0.0719403 0)
(12.4192 0.0836377 0)
(12.5258 0.0420529 0)
(12.4913 0.101886 0)
(12.4521 0.084348 0)
(12.5331 0.00655554 0)
(10.0106 0.172342 0)
(10.3065 0.358032 0)
(10.7662 0.29915 0)
(11.0989 0.193183 0)
(11.3828 0.12417 0)
(11.5634 0.106484 0)
(11.678 0.0937844 0)
(11.7724 0.130381 0)
(11.8914 0.0950324 0)
(11.9427 0.0795577 0)
(12.0443 0.0768582 0)
(12.1243 0.0801384 0)
(12.1923 0.035201 0)
(12.2571 0.0507919 0)
(12.3381 0.0495857 0)
(12.4468 0.0501229 0)
(12.5204 0.030586 0)
(12.5198 0.0940414 0)
(12.6029 0.030831 0)
(12.8208 -0.1307 0)
(9.99965 0.1127 0)
(10.2657 0.253166 0)
(10.6816 0.215172 0)
(11.0355 0.142559 0)
(11.3092 0.0876626 0)
(11.5103 0.0714211 0)
(11.6013 0.0628253 0)
(11.7149 0.095101 0)
(11.8086 0.070431 0)
(11.8688 0.0506972 0)
(11.9807 0.0592459 0)
(12.0542 0.0576675 0)
(12.1301 0.018642 0)
(12.2087 0.0333123 0)
(12.2745 0.0274121 0)
(12.3562 0.0249023 0)
(12.4058 0.0218542 0)
(12.4939 0.0425522 0)
(12.6769 -0.0504312 0)
(12.4844 -0.0616106 0)
(10.0015 0.0628901 0)
(10.236 0.150595 0)
(10.6323 0.132348 0)
(10.9823 0.0859821 0)
(11.2702 0.0513283 0)
(11.4626 0.0415126 0)
(11.566 0.0303392 0)
(11.6797 0.0649115 0)
(11.7563 0.0460922 0)
(11.8281 0.0207749 0)
(11.9319 0.0396649 0)
(11.9997 0.0383207 0)
(12.0899 0.000157401 0)
(12.1845 0.0177259 0)
(12.2279 0.0104485 0)
(12.2921 0.00604605 0)
(12.3858 -0.0113252 0)
(12.4882 -0.0112783 0)
(12.5013 -0.0257241 0)
(12.133 0.0080997 0)
(10.0012 0.0191695 0)
(10.2291 0.0506543 0)
(10.6016 0.0500128 0)
(10.9566 0.0234452 0)
(11.2521 0.018473 0)
(11.4336 0.0128037 0)
(11.5575 -0.00167321 0)
(11.6563 0.029918 0)
(11.7331 0.0210471 0)
(11.8146 -0.00661494 0)
(11.9038 0.0256832 0)
(11.9756 0.0129109 0)
(12.0637 -0.0232244 0)
(12.1666 0.00414613 0)
(12.2038 -0.00543148 0)
(12.2857 -0.0231633 0)
(12.3963 -0.0389097 0)
(12.3926 -0.0225387 0)
(12.3527 -0.0143811 0)
(12.3732 -0.101119 0)
(10.0004 -0.0240495 0)
(10.2366 -0.0469028 0)
(10.5905 -0.0315258 0)
(10.9602 -0.0393452 0)
(11.2516 -0.0146422 0)
(11.431 -0.0176438 0)
(11.5643 -0.03432 0)
(11.6567 -0.000159696 0)
(11.7322 -0.00584642 0)
(11.8081 -0.0351576 0)
(11.9069 0.00760271 0)
(11.9829 -0.00853774 0)
(12.0442 -0.0428753 0)
(12.1715 -0.0105768 0)
(12.2207 -0.02696 0)
(12.2752 -0.0542859 0)
(12.3837 -0.0484995 0)
(12.3505 -0.0295187 0)
(12.4439 -0.084335 0)
(12.604 -0.203275 0)
(10.0038 -0.0699666 0)
(10.2498 -0.143767 0)
(10.6045 -0.113067 0)
(10.9892 -0.103256 0)
(11.2739 -0.0470489 0)
(11.4531 -0.0479818 0)
(11.5868 -0.0674784 0)
(11.6796 -0.030795 0)
(11.7477 -0.0321338 0)
(11.8212 -0.0624744 0)
(11.9372 -0.0111183 0)
(12.0038 -0.0255738 0)
(12.0425 -0.0670745 0)
(12.2237 -0.0342333 0)
(12.2516 -0.0384386 0)
(12.2467 -0.0728743 0)
(12.415 -0.0700506 0)
(12.4338 -0.0733361 0)
(12.462 -0.125524 0)
(12.4001 -0.127794 0)
(10.0155 -0.121081 0)
(10.2648 -0.242413 0)
(10.6488 -0.194633 0)
(11.0458 -0.166443 0)
(11.3239 -0.0800184 0)
(11.4934 -0.0809648 0)
(11.6367 -0.0996275 0)
(11.7119 -0.0601073 0)
(11.7841 -0.0535594 0)
(11.8589 -0.0919096 0)
(11.9798 -0.0326419 0)
(12.0607 -0.0430046 0)
(12.0963 -0.0894076 0)
(12.2642 -0.0579847 0)
(12.2917 -0.0395653 0)
(12.2938 -0.105306 0)
(12.4464 -0.101084 0)
(12.4717 -0.0811854 0)
(12.4281 -0.13597 0)
(12.4097 -0.158571 0)
(10.044 -0.18328 0)
(10.2733 -0.33922 0)
(10.7412 -0.281658 0)
(11.1238 -0.223079 0)
(11.418 -0.114786 0)
(11.5416 -0.117744 0)
(11.7116 -0.129614 0)
(11.7408 -0.0882194 0)
(11.8567 -0.0804611 0)
(11.9327 -0.118994 0)
(12.0612 -0.0547 0)
(12.1418 -0.0682186 0)
(12.2026 -0.106258 0)
(12.2701 -0.0818771 0)
(12.3657 -0.0485271 0)
(12.3914 -0.12503 0)
(12.4248 -0.117197 0)
(12.4867 -0.101066 0)
(12.5843 -0.167502 0)
(12.6027 -0.275641 0)
(10.0754 -0.258938 0)
(10.2854 -0.438226 0)
(10.9024 -0.375713 0)
(11.2172 -0.270197 0)
(11.5417 -0.151671 0)
(11.5776 -0.15509 0)
(11.8195 -0.160327 0)
(11.7876 -0.111749 0)
(11.9826 -0.114497 0)
(12.0075 -0.149944 0)
(12.18 -0.0805191 0)
(12.1686 -0.0904184 0)
(12.278 -0.114149 0)
(12.2433 -0.10061 0)
(12.3955 -0.0691884 0)
(12.3503 -0.132362 0)
(12.3965 -0.122546 0)
(12.4227 -0.160251 0)
(12.5307 -0.198936 0)
(12.3237 -0.255103 0)
(10.0534 -0.350678 0)
(10.3748 -0.551648 0)
(11.0872 -0.47109 0)
(11.3213 -0.310979 0)
(11.6371 -0.188986 0)
(11.6501 -0.195314 0)
(11.8904 -0.198075 0)
(11.797 -0.141377 0)
(12.0093 -0.148435 0)
(11.8959 -0.167619 0)
(12.0558 -0.0998445 0)
(11.9196 -0.0985535 0)
(12.019 -0.119632 0)
(11.88 -0.111376 0)
(12.018 -0.0805035 0)
(11.8178 -0.129397 0)
(11.8959 -0.127682 0)
(11.7299 -0.170991 0)
(11.7327 -0.18223 0)
(11.4073 -0.261278 0)
(10.0009 -0.458376 0)
(10.5627 -0.6982 0)
(11.2035 -0.554125 0)
(11.3507 -0.357917 0)
(11.5518 -0.24479 0)
(11.4625 -0.235803 0)
(11.4868 -0.215022 0)
(11.2915 -0.155522 0)
(11.3317 -0.151399 0)
(11.0427 -0.151155 0)
(11.0931 -0.0949955 0)
(10.8471 -0.0860939 0)
(10.85 -0.101083 0)
(10.6107 -0.0936263 0)
(10.6747 -0.0681502 0)
(10.3713 -0.100595 0)
(10.4156 -0.104969 0)
(10.1111 -0.139826 0)
(10.0603 -0.14865 0)
(9.64608 -0.219267 0)
(10.0583 -0.632491 0)
(10.6615 -0.859785 0)
(10.8826 -0.604851 0)
(10.6679 -0.376248 0)
(10.4708 -0.247887 0)
(10.0892 -0.20084 0)
(9.82205 -0.161874 0)
(9.49893 -0.111331 0)
(9.33762 -0.0953379 0)
(8.98741 -0.0911145 0)
(8.94386 -0.0557952 0)
(8.67517 -0.0449712 0)
(8.62702 -0.0565672 0)
(8.38608 -0.056281 0)
(8.40236 -0.0379267 0)
(8.11335 -0.0593552 0)
(8.1301 -0.068951 0)
(7.80419 -0.0893886 0)
(7.74909 -0.102863 0)
(7.31646 -0.144066 0)
(10.0821 -0.838615 0)
(9.66013 -0.866602 0)
(8.87753 -0.508036 0)
(8.0686 -0.263477 0)
(7.50502 -0.134198 0)
(7.0071 -0.0831555 0)
(6.68425 -0.0599973 0)
(6.40222 -0.0355225 0)
(6.23697 -0.0273847 0)
(5.9915 -0.0335678 0)
(5.93404 -0.0185774 0)
(5.75449 -0.0112427 0)
(5.71565 -0.022372 0)
(5.54067 -0.0256031 0)
(5.53354 -0.0131948 0)
(5.33516 -0.0267493 0)
(5.32216 -0.0341173 0)
(5.06317 -0.0428 0)
(5.00933 -0.0540038 0)
(4.62415 -0.0645852 0)
(8.0913 -0.388086 0)
(5.45034 -0.24243 0)
(3.91352 -0.0428552 0)
(3.15194 0.0147525 0)
(2.80372 0.0190914 0)
(2.60016 0.0112796 0)
(2.47864 0.00360525 0)
(2.37614 0.0037855 0)
(2.32513 0.00301418 0)
(2.24119 -0.00246432 0)
(2.20845 0.000696914 0)
(2.15541 0.00246584 0)
(2.14416 -0.00154171 0)
(2.06863 -0.00272075 0)
(2.05568 0.00145135 0)
(1.98521 -0.00244076 0)
(1.95838 -0.0030853 0)
(1.84337 -0.00437712 0)
(1.78756 -0.00666235 0)
(1.59284 0.0133045 0)
(2.01945 0.0142974 0)
(2.11708 0.266506 0)
(2.51404 0.535462 0)
(3.15278 0.703665 0)
(3.8096 0.794979 0)
(4.41378 0.75109 0)
(4.91418 0.659198 0)
(5.32156 0.483435 0)
(5.61961 0.240268 0)
(5.88915 0.102337 0)
(6.12074 -0.186974 0)
(6.14047 -0.443878 0)
(6.39647 -0.572126 0)
(6.56046 -0.832672 0)
(6.59528 -0.993908 0)
(7.11363 -1.18748 0)
(7.20777 -1.37881 0)
(7.47435 -1.54104 0)
(8.14396 -1.83707 0)
(8.1909 -1.93913 0)
(8.7918 -2.1997 0)
(9.32163 -2.57126 0)
(9.35087 -2.67836 0)
(9.92527 -3.09644 0)
(9.7943 -3.41785 0)
(9.76603 -3.33765 0)
(9.98129 -3.32889 0)
(9.3835 -2.99123 0)
(9.28719 -2.74204 0)
(9.08549 -2.56447 0)
(8.76239 -1.69534 0)
(8.92295 -1.10561 0)
(8.57029 -0.592842 0)
(8.5757 0.196161 0)
(8.98821 0.442523 0)
(8.65985 0.949804 0)
(8.97842 1.25076 0)
(9.22384 1.15248 0)
(8.88216 1.47434 0)
(9.46318 1.24071 0)
(9.56346 1.13425 0)
(9.66188 1.19418 0)
(10.3185 0.709998 0)
(10.406 0.545294 0)
(10.7537 0.183948 0)
(11.1484 -0.387029 0)
(11.2831 -0.790649 0)
(11.6084 -1.46474 0)
(11.6388 -1.98528 0)
(11.7225 -2.52093 0)
(11.9079 -3.21583 0)
(11.8472 -3.6051 0)
(11.9656 -4.1511 0)
(12.1773 -4.78639 0)
(12.0675 -5.08956 0)
(12.1371 -5.64034 0)
(12.0051 -6.05359 0)
(11.2499 -5.89684 0)
(10.7496 -5.8009 0)
(10.3247 -5.9416 0)
(10.0762 -5.9612 0)
(9.70064 -6.05535 0)
(9.73806 -6.54349 0)
(9.56802 -6.69203 0)
(8.8 -6.38987 0)
(8.35338 -6.01283 0)
(7.75421 -5.90126 0)
(7.86316 -6.25656 0)
(8.261 -6.58043 0)
(8.3218 -6.79032 0)
(8.97888 -6.72297 0)
(9.08976 -6.25523 0)
(9.19785 -5.83123 0)
(9.69542 -5.062 0)
(9.53412 -4.30104 0)
(10.1487 -3.40509 0)
(10.097 -2.42078 0)
(10.474 -1.41463 0)
(10.4429 -0.336524 0)
(10.6075 0.63301 0)
(10.6847 1.78097 0)
(10.708 2.69672 0)
(10.5568 3.60986 0)
(10.7405 4.42556 0)
(10.563 5.2747 0)
(10.4688 5.72087 0)
(9.93426 5.83155 0)
(9.89795 5.98155 0)
(9.88146 6.17021 0)
(9.84519 6.40602 0)
(10.0678 6.33712 0)
(9.52898 6.13902 0)
(9.94265 5.68642 0)
(9.28977 5.30786 0)
(9.69259 4.74768 0)
(9.43777 4.27 0)
(9.54935 3.66287 0)
(9.65963 3.1144 0)
(9.3953 2.39609 0)
(9.68311 1.87705 0)
(8.99204 1.15444 0)
(9.49206 0.593745 0)
(8.58405 0.0460289 0)
(8.97014 -0.236203 0)
(7.88333 -0.505746 0)
(8.24423 -0.772059 0)
(7.1627 -0.983225 0)
(7.48385 -0.906149 0)
(6.33685 -0.775571 0)
(6.70537 -0.343121 0)
(5.54203 -0.0965146 0)
(6.12359 0.279 0)
(5.07502 0.466084 0)
(5.85968 0.643802 0)
(4.90314 0.692069 0)
(5.83995 0.7361 0)
(4.88112 0.60796 0)
(5.89978 0.626878 0)
(4.94037 0.394569 0)
(5.97057 0.447034 0)
(5.03012 0.227594 0)
(6.0703 0.291799 0)
(5.08462 0.200584 0)
(6.21218 0.204645 0)
(5.092 0.22828 0)
(6.27066 0.224175 0)
(5.12234 0.194551 0)
(6.20699 0.265118 0)
(5.08322 0.166894 0)
(6.18776 0.215494 0)
(4.95598 0.159987 0)
(6.12352 0.191751 0)
(4.96052 0.06897 0)
(5.98613 0.219984 0)
(4.91981 0.0548249 0)
(6.03501 0.116011 0)
(4.79577 0.122715 0)
(6.01363 0.109006 0)
(4.85787 0.0292628 0)
(5.96495 0.174229 0)
(4.78082 0.0673595 0)
(6.08447 0.0763045 0)
(4.73783 0.108376 0)
(6.02491 0.153344 0)
(4.79493 0.0401895 0)
(6.08028 0.148233 0)
(4.71242 0.136917 0)
(6.0825 0.132224 0)
(4.81198 0.100816 0)
(6.0348 0.183779 0)
(4.77279 0.174794 0)
(6.08509 0.15094 0)
(4.84048 0.165598 0)
(5.99482 0.225876 0)
(4.85274 0.24615 0)
(6.06163 0.15689 0)
(4.88514 0.27656 0)
(5.94945 0.26895 0)
(4.95751 0.32639 0)
(5.98725 0.193052 0)
(4.98935 0.418363 0)
(5.86359 0.294722 0)
(5.09855 0.457844 0)
(5.84787 0.252149 0)
(5.17815 0.57115 0)
(5.70378 0.332061 0)
(5.30282 0.63913 0)
(5.63236 0.338283 0)
(5.44262 0.736545 0)
(5.49304 0.408065 0)
(5.568 0.835849 0)
(5.38001 0.498411 0)
(5.72481 0.914477 0)
(5.33045 0.580724 0)
(5.83403 1.00125 0)
(5.25302 0.801442 0)
(5.90837 1.07047 0)
(5.37703 0.951903 0)
(5.95139 1.09656 0)
(5.49275 1.26115 0)
(5.86511 1.17677 0)
(5.76147 1.5311 0)
(5.77863 1.20769 0)
(6.07973 1.81136 0)
(5.62793 1.41805 0)
(6.39577 2.0209 0)
(5.62188 1.73772 0)
(6.54602 2.13102 0)
(5.78479 2.24085 0)
(6.44691 2.1634 0)
(6.04379 2.89647 0)
(6.16971 2.29878 0)
(6.25615 3.36138 0)
(6.03073 2.95444 0)
(5.88196 3.65917 0)
(6.24797 4.43124 0)
(5.30916 4.32914 0)
(5.92056 5.89613 0)
(6.39354 7.09537 0)
(4.03379 10.2277 0)
(5.12575 0.083489 0)
(5.12189 0.230079 0)
(5.24574 0.386001 0)
(5.49179 0.449794 0)
(5.84587 0.53582 0)
(6.26051 0.486062 0)
(6.53603 0.38694 0)
(6.95157 0.303465 0)
(7.22648 0.0734066 0)
(7.39308 -0.102616 0)
(7.87998 -0.346509 0)
(7.91282 -0.53816 0)
(8.2115 -0.781502 0)
(8.67732 -1.05341 0)
(8.63714 -1.1078 0)
(9.23319 -1.4851 0)
(9.50037 -1.65579 0)
(9.61084 -1.71274 0)
(10.2778 -2.15451 0)
(10.3053 -2.19599 0)
(10.6494 -2.42552 0)
(11.0275 -2.80316 0)
(10.873 -2.82744 0)
(11.2696 -3.22343 0)
(11.1198 -3.29937 0)
(10.7533 -3.10088 0)
(10.6204 -3.32761 0)
(10.0428 -2.99903 0)
(10.1159 -2.58333 0)
(9.80707 -2.28737 0)
(9.20169 -1.50302 0)
(9.51407 -1.11914 0)
(9.18495 -0.558624 0)
(9.24413 0.198129 0)
(9.81571 0.363465 0)
(9.45155 0.889423 0)
(9.9508 1.13701 0)
(10.2536 1.0981 0)
(10.0147 1.37669 0)
(10.5939 1.13944 0)
(10.5902 1.03401 0)
(10.693 0.953774 0)
(11.0984 0.527815 0)
(11.1382 0.311028 0)
(11.4453 -0.0966802 0)
(11.6272 -0.547459 0)
(11.7815 -0.995573 0)
(12.0809 -1.62871 0)
(12.0985 -2.06279 0)
(12.2743 -2.5905 0)
(12.4569 -3.18713 0)
(12.4377 -3.5796 0)
(12.6236 -4.20168 0)
(12.6061 -4.6874 0)
(12.3693 -5.01126 0)
(12.2171 -5.46603 0)
(11.5819 -5.51722 0)
(10.8537 -5.30512 0)
(10.5236 -5.45701 0)
(10.381 -5.71874 0)
(9.93682 -5.67371 0)
(9.67292 -5.96523 0)
(9.57217 -6.3095 0)
(8.86939 -6.20114 0)
(8.15103 -5.79633 0)
(7.39119 -5.54232 0)
(7.14918 -5.87185 0)
(7.37999 -6.42452 0)
(7.47599 -6.82163 0)
(7.84989 -7.05657 0)
(8.16175 -6.82356 0)
(8.05703 -6.43902 0)
(8.49812 -5.90411 0)
(8.47454 -5.25746 0)
(8.71127 -4.48984 0)
(9.16427 -3.54555 0)
(9.07797 -2.64277 0)
(9.58148 -1.48734 0)
(9.33461 -0.439439 0)
(9.7751 0.637517 0)
(9.54897 1.74091 0)
(9.79234 2.76444 0)
(9.50443 3.57363 0)
(9.79309 4.40908 0)
(9.72493 5.28638 0)
(9.69765 5.87403 0)
(9.35888 6.06288 0)
(9.12705 6.09387 0)
(9.16073 6.20071 0)
(9.18882 6.32617 0)
(9.2548 6.41821 0)
(9.26091 6.13685 0)
(9.03864 5.85945 0)
(9.22081 5.28009 0)
(8.71783 4.78838 0)
(9.18875 4.25049 0)
(8.65186 3.68813 0)
(9.18701 3.05124 0)
(8.69428 2.51687 0)
(8.95792 1.96875 0)
(8.6898 1.34331 0)
(8.66929 0.679482 0)
(8.44994 0.338228 0)
(8.04219 -0.0121548 0)
(7.93321 -0.177193 0)
(7.46111 -0.515163 0)
(7.19116 -0.587751 0)
(6.6295 -0.58698 0)
(6.26286 -0.351674 0)
(5.78471 -0.0948948 0)
(5.66059 0.225437 0)
(5.28218 0.371674 0)
(5.40169 0.646829 0)
(5.13481 0.6348 0)
(5.42052 0.793577 0)
(5.10188 0.664702 0)
(5.61859 0.720153 0)
(5.09422 0.520391 0)
(5.75717 0.49592 0)
(5.12777 0.352231 0)
(5.82319 0.279024 0)
(5.13692 0.205428 0)
(5.9417 0.234609 0)
(5.13825 0.0962622 0)
(6.05317 0.30655 0)
(5.18599 0.112182 0)
(6.11421 0.28867 0)
(5.20954 0.219663 0)
(6.14709 0.244704 0)
(5.19465 0.180831 0)
(6.12356 0.303629 0)
(5.13316 0.097438 0)
(6.11109 0.219704 0)
(4.99888 0.168792 0)
(6.11916 0.135036 0)
(4.90945 0.0467923 0)
(6.08064 0.266346 0)
(4.84986 -0.0237403 0)
(6.08421 0.133288 0)
(4.78847 0.111619 0)
(6.0733 0.141585 0)
(4.80838 -0.0663708 0)
(6.05787 0.265309 0)
(4.75803 0.0342082 0)
(6.10957 0.0857128 0)
(4.75745 0.068826 0)
(6.08361 0.265848 0)
(4.74942 -0.0369286 0)
(6.17943 0.189287 0)
(4.66435 0.134498 0)
(6.1904 0.231772 0)
(4.72456 -0.00142581 0)
(6.23361 0.285168 0)
(4.6223 0.171393 0)
(6.30663 0.239221 0)
(4.70123 0.0661797 0)
(6.29387 0.376972 0)
(4.63456 0.226449 0)
(6.39915 0.259934 0)
(4.72391 0.178686 0)
(6.35508 0.455516 0)
(4.70246 0.311584 0)
(6.45307 0.308682 0)
(4.83511 0.329351 0)
(6.38422 0.501946 0)
(4.86146 0.462352 0)
(6.42152 0.386018 0)
(5.07139 0.516057 0)
(6.33417 0.516093 0)
(5.16985 0.683953 0)
(6.23204 0.49204 0)
(5.44675 0.768573 0)
(6.14548 0.529158 0)
(5.66524 0.928804 0)
(5.87457 0.641103 0)
(5.92191 1.08928 0)
(5.79525 0.663707 0)
(6.23163 1.15987 0)
(5.5563 0.875453 0)
(6.37257 1.34542 0)
(5.52997 1.11115 0)
(6.51855 1.35634 0)
(5.64333 1.40077 0)
(6.43682 1.42429 0)
(5.89313 1.81182 0)
(6.20382 1.51167 0)
(6.25172 2.21308 0)
(5.91601 1.69141 0)
(6.59907 2.47117 0)
(5.84159 2.23284 0)
(6.63209 2.66863 0)
(6.22181 3.03187 0)
(6.29253 2.74233 0)
(6.78937 3.97318 0)
(5.8596 3.487 0)
(6.65461 4.6278 0)
(6.59107 5.17712 0)
(5.35242 5.93595 0)
(8.86093 5.92148 0)
(6.56679 11.3852 0)
(7.90512 0.00429369 0)
(7.86469 -0.016437 0)
(8.04892 0.111053 0)
(8.28588 0.201931 0)
(8.43412 0.289915 0)
(8.86932 0.265739 0)
(8.97199 0.206608 0)
(9.26265 0.0578168 0)
(9.61109 -0.161484 0)
(9.60198 -0.267619 0)
(10.1215 -0.621731 0)
(10.1829 -0.751247 0)
(10.3826 -0.927309 0)
(10.8742 -1.3228 0)
(10.7948 -1.28781 0)
(11.2975 -1.6518 0)
(11.4861 -1.89433 0)
(11.4931 -1.89072 0)
(11.9774 -2.3405 0)
(11.8629 -2.38912 0)
(12.0236 -2.57989 0)
(12.1368 -2.87959 0)
(11.9236 -2.87748 0)
(12.0898 -3.17657 0)
(11.5703 -3.12512 0)
(11.2893 -3.00325 0)
(11.3275 -3.05314 0)
(10.6511 -2.52474 0)
(10.4577 -2.26851 0)
(10.0134 -2.00697 0)
(9.49418 -1.27888 0)
(9.84839 -1.07466 0)
(9.4908 -0.556799 0)
(9.60306 0.027663 0)
(10.1366 0.112349 0)
(9.89038 0.644186 0)
(10.4627 0.860833 0)
(10.7889 0.920898 0)
(10.7773 1.19056 0)
(11.303 1.02603 0)
(11.3912 0.966598 0)
(11.572 0.827606 0)
(11.8714 0.504781 0)
(11.95 0.247021 0)
(12.1929 -0.219127 0)
(12.2884 -0.603165 0)
(12.4265 -1.04446 0)
(12.6759 -1.61846 0)
(12.6964 -2.04006 0)
(12.8601 -2.60662 0)
(12.9235 -3.14319 0)
(12.8163 -3.61389 0)
(12.8292 -4.2118 0)
(12.4826 -4.58508 0)
(12.1166 -4.86025 0)
(11.6907 -5.11028 0)
(11.0518 -4.97354 0)
(10.6107 -4.95875 0)
(10.6303 -5.3639 0)
(10.3244 -5.42261 0)
(9.77583 -5.41484 0)
(9.57075 -5.71298 0)
(9.03634 -5.84992 0)
(8.17622 -5.48608 0)
(7.15843 -5.07425 0)
(6.6167 -5.24985 0)
(6.57366 -5.88565 0)
(6.60287 -6.54678 0)
(6.82325 -7.04596 0)
(6.99994 -7.12831 0)
(7.05752 -6.91761 0)
(7.15552 -6.54602 0)
(7.39685 -6.04249 0)
(7.30292 -5.49642 0)
(7.87243 -4.71891 0)
(7.83358 -3.83758 0)
(8.1958 -2.8358 0)
(8.22653 -1.6393 0)
(8.33619 -0.550401 0)
(8.54442 0.624889 0)
(8.5395 1.68903 0)
(8.56879 2.82389 0)
(8.4838 3.55975 0)
(8.53752 4.40368 0)
(8.74563 5.20213 0)
(8.67981 5.97416 0)
(8.58282 6.20511 0)
(8.34638 6.23007 0)
(8.42744 6.13968 0)
(8.31226 6.26893 0)
(8.60699 6.34495 0)
(8.53336 6.22875 0)
(8.46355 5.85379 0)
(8.46159 5.47955 0)
(8.4201 4.86294 0)
(8.19307 4.30672 0)
(8.48366 3.67697 0)
(8.16335 3.12332 0)
(8.41698 2.55376 0)
(8.02325 1.96867 0)
(8.3543 1.35049 0)
(7.8281 0.838728 0)
(8.05968 0.50372 0)
(7.43795 0.202584 0)
(7.75184 -0.0560435 0)
(6.96583 -0.187371 0)
(7.13743 -0.288414 0)
(6.14324 -0.164202 0)
(6.2571 -0.0490608 0)
(5.46794 0.175472 0)
(5.66907 0.31669 0)
(5.15953 0.555177 0)
(5.50775 0.566688 0)
(5.04726 0.717339 0)
(5.53892 0.700786 0)
(5.09342 0.662496 0)
(5.45674 0.607001 0)
(5.17169 0.5862 0)
(5.3451 0.358596 0)
(5.11233 0.457317 0)
(5.33021 0.188267 0)
(5.08919 0.265498 0)
(5.32968 0.149056 0)
(5.18357 0.168357 0)
(5.3795 0.153991 0)
(5.25691 0.213837 0)
(5.44122 0.15215 0)
(5.32434 0.277627 0)
(5.39848 0.15213 0)
(5.36384 0.284791 0)
(5.34141 0.161931 0)
(5.31591 0.265281 0)
(5.29621 0.122808 0)
(5.28529 0.27188 0)
(5.22327 0.0710176 0)
(5.27375 0.209432 0)
(5.20247 0.107598 0)
(5.27321 0.155475 0)
(5.1649 0.0424134 0)
(5.33221 0.216393 0)
(5.10818 0.0102258 0)
(5.36403 0.134901 0)
(5.08926 0.098367 0)
(5.43816 0.155485 0)
(5.00139 -0.0159848 0)
(5.50728 0.243895 0)
(4.96212 0.0516565 0)
(5.54947 0.140654 0)
(4.89858 0.0806746 0)
(5.6253 0.27078 0)
(4.8501 0.0172117 0)
(5.66229 0.231432 0)
(4.77371 0.131849 0)
(5.76596 0.291153 0)
(4.70789 0.0455471 0)
(5.81688 0.319698 0)
(4.60766 0.17913 0)
(5.956 0.346182 0)
(4.52701 0.0852869 0)
(6.02343 0.420636 0)
(4.41461 0.248922 0)
(6.17624 0.417471 0)
(4.35616 0.154403 0)
(6.2649 0.527006 0)
(4.25024 0.344437 0)
(6.39736 0.519106 0)
(4.27173 0.277174 0)
(6.50017 0.610282 0)
(4.23177 0.491032 0)
(6.55936 0.650246 0)
(4.37733 0.498047 0)
(6.65416 0.659825 0)
(4.52524 0.701321 0)
(6.54785 0.774878 0)
(4.78876 0.859245 0)
(6.56981 0.712608 0)
(5.21309 1.00135 0)
(6.27314 0.843311 0)
(5.58704 1.28195 0)
(6.10681 0.875887 0)
(6.11963 1.43552 0)
(5.82599 0.995068 0)
(6.52421 1.61079 0)
(5.66744 1.26084 0)
(6.77521 1.74927 0)
(5.76999 1.6309 0)
(6.70556 1.77551 0)
(6.19366 2.08724 0)
(6.308 1.82892 0)
(6.83802 2.63346 0)
(5.77841 2.1066 0)
(7.35731 2.976 0)
(5.74136 2.79867 0)
(7.13936 3.27664 0)
(6.88971 3.85926 0)
(6.15517 4.29689 0)
(8.89533 4.02354 0)
(5.97092 7.21412 0)
(10.0702 3.12412 0)
(8.59505 9.99047 0)
(10.2711 -0.0134266 0)
(10.2202 -0.0683552 0)
(10.3671 -0.0534134 0)
(10.682 -0.0013727 0)
(10.666 0.132001 0)
(11.082 0.0332325 0)
(11.136 0.0195885 0)
(11.3102 -0.0974764 0)
(11.6712 -0.362506 0)
(11.5839 -0.416961 0)
(12.021 -0.767028 0)
(12.0811 -0.914488 0)
(12.2041 -1.06791 0)
(12.5576 -1.43661 0)
(12.4657 -1.458 0)
(12.7983 -1.77607 0)
(12.8438 -1.95413 0)
(12.8041 -2.02382 0)
(13.0158 -2.37727 0)
(12.776 -2.3934 0)
(12.8141 -2.60269 0)
(12.7182 -2.78108 0)
(12.4189 -2.74943 0)
(12.3251 -2.98393 0)
(11.8704 -2.80471 0)
(11.6963 -2.67479 0)
(11.2334 -2.70932 0)
(10.4641 -2.23879 0)
(10.5039 -2.03552 0)
(10.1438 -1.70946 0)
(9.89181 -1.16146 0)
(10.1585 -1.05566 0)
(9.74584 -0.518833 0)
(9.87441 -0.0579614 0)
(10.1209 0.0755437 0)
(9.94741 0.548506 0)
(10.4178 0.675961 0)
(10.6708 0.778748 0)
(10.8187 0.954785 0)
(11.2619 0.832223 0)
(11.4682 0.805047 0)
(11.7617 0.621511 0)
(12.0269 0.37365 0)
(12.1897 0.094616 0)
(12.4723 -0.356159 0)
(12.5494 -0.680877 0)
(12.7103 -1.15233 0)
(12.8703 -1.64871 0)
(12.8281 -2.10445 0)
(12.9189 -2.71562 0)
(12.7526 -3.16824 0)
(12.5498 -3.65358 0)
(12.3673 -4.12096 0)
(11.9186 -4.30322 0)
(11.6011 -4.47893 0)
(11.3361 -4.60586 0)
(10.902 -4.54824 0)
(10.8147 -4.84827 0)
(10.726 -5.14431 0)
(10.0994 -5.00338 0)
(9.61059 -5.05445 0)
(9.19483 -5.32668 0)
(8.36806 -5.13563 0)
(7.155 -4.6079 0)
(6.23178 -4.48993 0)
(5.88804 -5.05132 0)
(5.77833 -5.89236 0)
(5.82693 -6.65947 0)
(5.9131 -7.10475 0)
(5.9676 -7.21557 0)
(6.00825 -6.99127 0)
(6.08736 -6.61617 0)
(6.10412 -6.12507 0)
(6.20012 -5.62074 0)
(6.58331 -4.83103 0)
(6.54752 -3.96221 0)
(6.96982 -2.87346 0)
(6.71253 -1.79184 0)
(7.16099 -0.611718 0)
(7.04366 0.484622 0)
(7.46193 1.68782 0)
(7.16376 2.77437 0)
(7.39782 3.58803 0)
(7.24852 4.30876 0)
(7.60047 5.1549 0)
(7.5452 5.94906 0)
(7.56021 6.29716 0)
(7.41631 6.25167 0)
(7.49751 6.27096 0)
(7.55366 6.15961 0)
(7.57629 6.27826 0)
(7.87673 6.22129 0)
(7.70847 5.91026 0)
(7.76583 5.39605 0)
(7.82238 5.01604 0)
(7.64833 4.28568 0)
(7.74817 3.68417 0)
(7.60629 3.16403 0)
(7.64983 2.58562 0)
(7.66877 2.04146 0)
(7.55727 1.45825 0)
(7.59573 1.02515 0)
(7.23816 0.653011 0)
(7.40013 0.338225 0)
(6.97808 0.186738 0)
(6.94188 0.047119 0)
(6.36915 0.0739266 0)
(6.15029 0.176701 0)
(5.57688 0.176851 0)
(5.58109 0.433588 0)
(5.09896 0.387569 0)
(5.33632 0.57214 0)
(4.98893 0.621891 0)
(5.26676 0.66677 0)
(4.92444 0.640328 0)
(5.29276 0.76963 0)
(4.86206 0.520975 0)
(5.23819 0.65396 0)
(4.90345 0.412254 0)
(5.209 0.423231 0)
(4.91845 0.180002 0)
(5.27368 0.310569 0)
(4.96205 0.0170156 0)
(5.34203 0.202921 0)
(5.00039 0.114688 0)
(5.4945 0.17258 0)
(4.99386 0.148724 0)
(5.56352 0.330243 0)
(5.11985 0.110192 0)
(5.55905 0.334993 0)
(5.14723 0.21524 0)
(5.65918 0.242279 0)
(5.18577 0.136233 0)
(5.60191 0.326242 0)
(5.33445 0.0293696 0)
(5.67872 0.175652 0)
(5.26587 0.161729 0)
(5.78644 0.107126 0)
(5.38765 -0.0170223 0)
(5.71739 0.249056 0)
(5.41342 0.0356698 0)
(5.90495 0.0149336 0)
(5.34921 0.149914 0)
(5.85886 0.167103 0)
(5.47977 -0.0368138 0)
(5.90138 0.146454 0)
(5.40544 0.182349 0)
(5.92717 0.0714664 0)
(5.51635 0.0697478 0)
(5.87042 0.213019 0)
(5.49914 0.164792 0)
(5.9032 0.0938654 0)
(5.58766 0.171752 0)
(5.81175 0.231589 0)
(5.61113 0.202382 0)
(5.81126 0.138179 0)
(5.70283 0.273583 0)
(5.70714 0.258272 0)
(5.75223 0.254479 0)
(5.63932 0.208304 0)
(5.88559 0.398799 0)
(5.51676 0.267633 0)
(5.95123 0.34605 0)
(5.36341 0.301298 0)
(6.1399 0.529659 0)
(5.21282 0.29279 0)
(6.24517 0.483797 0)
(4.97389 0.38591 0)
(6.45775 0.677044 0)
(4.80145 0.376412 0)
(6.62889 0.648614 0)
(4.56849 0.468739 0)
(6.78642 0.853541 0)
(4.42051 0.562346 0)
(7.00168 0.815188 0)
(4.42263 0.649344 0)
(6.98728 1.02586 0)
(4.50227 0.886269 0)
(7.07399 0.98481 0)
(4.92458 1.0911 0)
(6.81499 1.13633 0)
(5.49532 1.38049 0)
(6.51691 1.18623 0)
(6.22486 1.72145 0)
(6.02166 1.32914 0)
(6.94972 2.06546 0)
(5.56478 1.58999 0)
(7.51698 2.26494 0)
(5.55742 1.97672 0)
(7.48492 2.54068 0)
(6.20628 2.52895 0)
(6.67761 2.94911 0)
(7.59323 2.7568 0)
(5.6246 4.01713 0)
(9.25147 2.47604 0)
(5.51948 5.93893 0)
(10.2548 1.69404 0)
(7.02428 7.67303 0)
(10.2691 2.6565 0)
(8.82057 8.63494 0)
(11.9689 -0.0902891 0)
(11.9238 -0.0799754 0)
(12.0573 -0.0765483 0)
(12.3721 -0.0840645 0)
(12.2887 0.0612819 0)
(12.6198 -0.0694028 0)
(12.5913 -0.103504 0)
(12.7419 -0.235627 0)
(12.9528 -0.485316 0)
(12.9325 -0.576578 0)
(13.2319 -0.868222 0)
(13.2251 -1.02127 0)
(13.3898 -1.21648 0)
(13.4822 -1.44376 0)
(13.449 -1.55877 0)
(13.5502 -1.80791 0)
(13.4282 -1.90887 0)
(13.4186 -2.07823 0)
(13.3138 -2.23878 0)
(13.0582 -2.33523 0)
(13.0335 -2.54401 0)
(12.6763 -2.57481 0)
(12.4455 -2.64242 0)
(12.3004 -2.6941 0)
(11.6967 -2.52659 0)
(11.4391 -2.49492 0)
(11.0221 -2.31862 0)
(10.6647 -1.91726 0)
(10.6614 -1.78835 0)
(10.1227 -1.4807 0)
(9.97145 -1.09797 0)
(9.99684 -0.946327 0)
(9.65331 -0.463367 0)
(9.82835 -0.137286 0)
(9.95185 0.0162322 0)
(9.95137 0.366607 0)
(10.2934 0.427514 0)
(10.4792 0.54491 0)
(10.7151 0.656901 0)
(11.0325 0.565942 0)
(11.2439 0.53088 0)
(11.582 0.342644 0)
(11.7624 0.163231 0)
(11.9703 -0.138174 0)
(12.2308 -0.504449 0)
(12.2843 -0.813103 0)
(12.4639 -1.31226 0)
(12.4662 -1.712 0)
(12.415 -2.21562 0)
(12.4226 -2.75455 0)
(12.1548 -3.0743 0)
(12.0132 -3.505 0)
(11.876 -3.77371 0)
(11.5568 -3.86976 0)
(11.4956 -4.18236 0)
(11.3083 -4.34039 0)
(10.9967 -4.46128 0)
(10.9111 -4.78162 0)
(10.4442 -4.77355 0)
(9.76838 -4.53781 0)
(9.29953 -4.68149 0)
(8.66018 -4.72728 0)
(7.42906 -4.1616 0)
(6.09543 -3.69043 0)
(5.37844 -4.00891 0)
(5.05072 -4.86199 0)
(4.93079 -5.85671 0)
(4.91738 -6.6305 0)
(4.85383 -7.09295 0)
(4.89497 -7.17229 0)
(4.90417 -6.98634 0)
(4.85284 -6.61789 0)
(4.8682 -6.18806 0)
(4.92285 -5.65362 0)
(5.14252 -4.85344 0)
(5.16466 -3.92225 0)
(5.41874 -2.81942 0)
(5.22863 -1.83143 0)
(5.58643 -0.697081 0)
(5.52077 0.354059 0)
(5.93506 1.633 0)
(5.7762 2.70365 0)
(5.96831 3.56512 0)
(6.05643 4.23087 0)
(6.1985 5.06406 0)
(6.42348 5.82971 0)
(6.36209 6.30991 0)
(6.44656 6.2056 0)
(6.46179 6.12697 0)
(6.80289 6.15906 0)
(6.67649 6.13319 0)
(6.93599 6.09503 0)
(7.15843 5.91896 0)
(6.81908 5.40291 0)
(7.15081 4.95326 0)
(6.99619 4.34216 0)
(7.18143 3.75808 0)
(6.9744 3.17919 0)
(7.16645 2.58405 0)
(7.08936 2.12516 0)
(6.96303 1.41643 0)
(6.98264 1.2105 0)
(6.974 0.547649 0)
(6.71246 0.497377 0)
(6.73801 0.219475 0)
(6.07813 0.399482 0)
(5.92538 0.283553 0)
(5.49555 0.604876 0)
(5.29169 0.298318 0)
(5.08596 0.704743 0)
(5.22103 0.37917 0)
(4.83901 0.794073 0)
(5.22859 0.455306 0)
(4.90051 0.940515 0)
(5.15209 0.499047 0)
(4.97787 0.884257 0)
(5.30082 0.497646 0)
(4.99302 0.755549 0)
(5.49382 0.211946 0)
(5.10165 0.668855 0)
(5.56591 -0.052941 0)
(5.16579 0.426843 0)
(5.60022 -0.0920691 0)
(5.14721 0.308138 0)
(5.59919 -0.138567 0)
(5.14191 0.369427 0)
(5.61872 -0.0685625 0)
(5.14487 0.357333 0)
(5.66802 -0.0214057 0)
(5.20981 0.462493 0)
(5.72138 -0.0891449 0)
(5.20439 0.427699 0)
(5.85478 -0.00814709 0)
(5.20715 0.361467 0)
(5.88459 -0.155846 0)
(5.28308 0.428845 0)
(5.94783 -0.108071 0)
(5.25389 0.200078 0)
(6.01875 -0.0358212 0)
(5.30338 0.353076 0)
(6.02683 -0.242647 0)
(5.31068 0.280137 0)
(6.10181 0.0679065 0)
(5.3083 0.157655 0)
(6.11772 -0.150469 0)
(5.35172 0.430259 0)
(6.14383 -0.0355703 0)
(5.34228 0.117066 0)
(6.22622 0.0636221 0)
(5.33127 0.405965 0)
(6.22239 -0.0818585 0)
(5.3923 0.22083 0)
(6.29783 0.172984 0)
(5.3298 0.370032 0)
(6.31193 -0.0149839 0)
(5.4603 0.300168 0)
(6.32483 0.253136 0)
(5.39621 0.3872 0)
(6.35666 0.0777868 0)
(5.54652 0.367998 0)
(6.34479 0.341174 0)
(5.51691 0.439919 0)
(6.31392 0.198891 0)
(5.70002 0.450341 0)
(6.30399 0.418687 0)
(5.7287 0.538983 0)
(6.14693 0.348778 0)
(5.95405 0.553388 0)
(6.09333 0.494473 0)
(6.09138 0.6788 0)
(5.83107 0.492829 0)
(6.33638 0.722572 0)
(5.58953 0.583759 0)
(6.62607 0.831269 0)
(5.27676 0.597753 0)
(6.86833 1.0023 0)
(4.80055 0.678596 0)
(7.23328 1.01541 0)
(4.45462 0.695687 0)
(7.44153 1.30978 0)