/*--------------------------------*- C++ -*----------------------------------*\
| =========                 |                                                 |
| \\      /  F ield         | OpenFOAM: The Open Source CFD Toolbox           |
|  \\    /   O peration     | Version:  2.4.0                                 |
|   \\  /    A nd           | Web:      www.OpenFOAM.org                      |
|    \\/     M anipulation  |                                                 |
\*---------------------------------------------------------------------------*/
FoamFile
{
    version     2.0;
    format      ascii;
    class       volVectorField;
    location    "0.07";
    object      U_0;
}
// * * * * * * * * * * * * * * * * * * * * * * * * * * * * * * * * * * * * * //

dimensions      [0 1 -1 0 0 0 0];

internalField   nonuniform List<vector> 
8800
(
(8.09207 0.387945 0)
(5.44869 0.242491 0)
(3.91113 0.0430234 0)
(3.15937 -0.0157841 0)
(2.80032 -0.0177719 0)
(2.59701 -0.0110368 0)
(2.4887 -0.00678253 0)
(2.37851 -0.00113763 0)
(2.31952 -0.00110428 0)
(2.24974 -0.00221002 0)
(2.22958 -0.000435789 0)
(2.16418 0.00135338 0)
(2.15656 -0.0014829 0)
(2.11039 4.65816e-05 0)
(2.10618 0.000699474 0)
(2.04588 0.00219317 0)
(2.03952 -0.000178207 0)
(1.99265 0.00130012 0)
(1.94907 0.0120768 0)
(1.77442 -0.0240011 0)
(10.0864 0.838648 0)
(9.65434 0.867861 0)
(8.87134 0.506372 0)
(8.08805 0.260829 0)
(7.48916 0.139953 0)
(7.00669 0.0815615 0)
(6.70875 0.0513043 0)
(6.38601 0.0443244 0)
(6.23546 0.0304534 0)
(6.01987 0.0184432 0)
(5.94915 0.0197074 0)
(5.7675 0.0211785 0)
(5.75386 0.00834776 0)
(5.60589 0.0133694 0)
(5.60464 0.0142773 0)
(5.4529 0.018133 0)
(5.46778 0.0105954 0)
(5.33257 0.0164387 0)
(5.29034 0.045062 0)
(5.14362 0.0178176 0)
(10.066 0.632333 0)
(10.6515 0.86336 0)
(10.8662 0.60051 0)
(10.7 0.37227 0)
(10.4541 0.259072 0)
(10.0821 0.193788 0)
(9.85873 0.150505 0)
(9.47278 0.129472 0)
(9.33022 0.0939237 0)
(9.02668 0.0669406 0)
(8.94926 0.0615953 0)
(8.68462 0.0569797 0)
(8.68011 0.0307937 0)
(8.45131 0.0379796 0)
(8.47118 0.0365573 0)
(8.23762 0.0401578 0)
(8.29985 0.0245493 0)
(8.07339 0.044932 0)
(8.06931 0.0610655 0)
(7.88727 0.111243 0)
(10.0143 0.459006 0)
(10.554 0.70625 0)
(11.1535 0.541884 0)
(11.381 0.350611 0)
(11.5687 0.269378 0)
(11.4485 0.221485 0)
(11.5215 0.195903 0)
(11.2801 0.18863 0)
(11.3097 0.144658 0)
(11.0675 0.114289 0)
(11.094 0.108812 0)
(10.8495 0.10151 0)
(10.903 0.0604446 0)
(10.665 0.0719641 0)
(10.7341 0.0665203 0)
(10.4703 0.0714422 0)
(10.5749 0.0388384 0)
(10.3246 0.084587 0)
(10.3356 0.0697291 0)
(10.1308 0.158807 0)
(10.0584 0.348649 0)
(10.4065 0.572609 0)
(11.0208 0.457355 0)
(11.2849 0.283639 0)
(11.6759 0.220168 0)
(11.6695 0.184618 0)
(11.9039 0.172435 0)
(11.8261 0.187391 0)
(11.9967 0.144558 0)
(11.8804 0.117329 0)
(12.0254 0.116471 0)
(11.9249 0.114852 0)
(12.048 0.0688828 0)
(11.9268 0.0851105 0)
(12.0557 0.0838424 0)
(11.9009 0.0886559 0)
(12.0138 0.0500802 0)
(11.8657 0.103293 0)
(11.8556 0.0854047 0)
(11.7301 0.113946 0)
(10.0485 0.250598 0)
(10.3425 0.463553 0)
(10.8885 0.380114 0)
(11.1571 0.233922 0)
(11.5234 0.167538 0)
(11.6165 0.14444 0)
(11.8061 0.132066 0)
(11.8434 0.163075 0)
(12.0069 0.119318 0)
(11.9955 0.103368 0)
(12.1228 0.0975198 0)
(12.1582 0.101553 0)
(12.2625 0.0489533 0)
(12.2806 0.0730592 0)
(12.4036 0.072298 0)
(12.4214 0.0822799 0)
(12.525 0.0424742 0)
(12.4839 0.10267 0)
(12.4545 0.0777388 0)
(12.5715 -0.00248483 0)
(10.0106 0.172517 0)
(10.3074 0.358574 0)
(10.7652 0.298246 0)
(11.0976 0.192983 0)
(11.3837 0.124406 0)
(11.5637 0.105618 0)
(11.6777 0.0950244 0)
(11.7737 0.131174 0)
(11.891 0.0937033 0)
(11.9419 0.079976 0)
(12.0448 0.0775999 0)
(12.1234 0.07878 0)
(12.1912 0.0344896 0)
(12.2569 0.0513802 0)
(12.3409 0.0493246 0)
(12.4496 0.0494431 0)
(12.517 0.0329577 0)
(12.519 0.0929125 0)
(12.6186 0.0181566 0)
(12.8145 -0.122599 0)
(9.99942 0.112803 0)
(10.2663 0.253716 0)
(10.6815 0.214459 0)
(11.0346 0.142294 0)
(11.3101 0.0878449 0)
(11.5098 0.0706459 0)
(11.6009 0.0638593 0)
(11.7162 0.095919 0)
(11.8076 0.0691636 0)
(11.8691 0.051157 0)
(11.9813 0.0601363 0)
(12.0534 0.0561911 0)
(12.1301 0.0180832 0)
(12.2081 0.0335727 0)
(12.2747 0.0268973 0)
(12.3558 0.0252003 0)
(12.4066 0.0229771 0)
(12.5043 0.0380082 0)
(12.6719 -0.054302 0)
(12.4374 -0.0371884 0)
(10.0012 0.0629376 0)
(10.2365 0.151142 0)
(10.6323 0.131822 0)
(10.9818 0.0855925 0)
(11.2707 0.0514653 0)
(11.4619 0.0407699 0)
(11.5664 0.031352 0)
(11.6803 0.0659776 0)
(11.7551 0.0445166 0)
(11.8286 0.021115 0)
(11.9319 0.0408592 0)
(11.9996 0.0367505 0)
(12.0916 -0.000302695 0)
(12.1833 0.0181807 0)
(12.2259 0.00989362 0)
(12.2936 0.00553186 0)
(12.3899 -0.0117517 0)
(12.4883 -0.0113605 0)
(12.4774 -0.0223487 0)
(12.1345 0.00969376 0)
(10.0012 0.0191948 0)
(10.2292 0.0511996 0)
(10.6012 0.0494779 0)
(10.9568 0.023048 0)
(11.2522 0.0187835 0)
(11.4332 0.0119291 0)
(11.5582 -0.00086254 0)
(11.6562 0.0311852 0)
(11.7326 0.019539 0)
(11.8146 -0.00605984 0)
(11.9031 0.0266467 0)
(11.9757 0.0104468 0)
(12.0657 -0.0231078 0)
(12.1655 0.00515587 0)
(12.2028 -0.00672928 0)
(12.2893 -0.0241031 0)
(12.3946 -0.0378506 0)
(12.3839 -0.0199795 0)
(12.3517 -0.017553 0)
(12.415 -0.118932 0)
(10.0007 -0.0240505 0)
(10.2361 -0.0462262 0)
(10.59 -0.0321452 0)
(10.961 -0.0398233 0)
(11.2513 -0.0142667 0)
(11.431 -0.0186511 0)
(11.5651 -0.0333414 0)
(11.6562 0.00126796 0)
(11.7313 -0.00761981 0)
(11.8083 -0.0345424 0)
(11.9072 0.00859989 0)
(11.9818 -0.0112023 0)
(12.0461 -0.0424769 0)
(12.1726 -0.00963691 0)
(12.2187 -0.0289837 0)
(12.277 -0.0541868 0)
(12.3803 -0.0458343 0)
(12.3488 -0.0305041 0)
(12.4588 -0.093007 0)
(12.5982 -0.20582 0)
(10.0043 -0.0699343 0)
(10.2487 -0.142952 0)
(10.6042 -0.11393 0)
(10.9904 -0.103745 0)
(11.2737 -0.0465143 0)
(11.4533 -0.0491785 0)
(11.5876 -0.06644 0)
(11.6787 -0.0291449 0)
(11.7462 -0.0340354 0)
(11.8222 -0.0618388 0)
(11.9379 -0.00990697 0)
(12.0008 -0.0285371 0)
(12.0462 -0.0671226 0)
(12.2266 -0.0324497 0)
(12.2448 -0.0400252 0)
(12.2488 -0.0731637 0)
(12.4185 -0.0684799 0)
(12.4306 -0.075051 0)
(12.4591 -0.126949 0)
(12.3823 -0.123969 0)
(10.0159 -0.120956 0)
(10.2631 -0.241522 0)
(10.6494 -0.195807 0)
(11.0473 -0.166939 0)
(11.3233 -0.0793757 0)
(11.494 -0.0822677 0)
(11.6369 -0.0983689 0)
(11.7103 -0.0581148 0)
(11.7827 -0.0558103 0)
(11.86 -0.0916725 0)
(11.9818 -0.0309779 0)
(12.0584 -0.0462584 0)
(12.0988 -0.0899368 0)
(12.2666 -0.0548382 0)
(12.2853 -0.0415823 0)
(12.2952 -0.107151 0)
(12.4493 -0.0975299 0)
(12.4644 -0.0810751 0)
(12.4243 -0.139134 0)
(12.4252 -0.163637 0)
(10.0439 -0.182967 0)
(10.2717 -0.338413 0)
(10.7431 -0.283293 0)
(11.1255 -0.223387 0)
(11.4166 -0.113982 0)
(11.5418 -0.118993 0)
(11.7103 -0.128122 0)
(11.7391 -0.0863879 0)
(11.8577 -0.0828623 0)
(11.9341 -0.118925 0)
(12.0637 -0.0531415 0)
(12.1411 -0.0712863 0)
(12.2005 -0.10685 0)
(12.2711 -0.0783768 0)
(12.3651 -0.050111 0)
(12.3871 -0.127169 0)
(12.4235 -0.113405 0)
(12.4914 -0.101289 0)
(12.5912 -0.175563 0)
(12.6043 -0.279942 0)
(10.0746 -0.258396 0)
(10.2851 -0.437828 0)
(10.9057 -0.377654 0)
(11.2173 -0.269951 0)
(11.5383 -0.150666 0)
(11.5774 -0.156277 0)
(11.8188 -0.158604 0)
(11.7871 -0.110537 0)
(11.9854 -0.117435 0)
(12.0093 -0.149813 0)
(12.1808 -0.0787256 0)
(12.167 -0.0925522 0)
(12.2745 -0.114582 0)
(12.2438 -0.0981758 0)
(12.3965 -0.0700323 0)
(12.3462 -0.133699 0)
(12.3973 -0.121554 0)
(12.4309 -0.161664 0)
(12.53 -0.200945 0)
(12.3081 -0.254113 0)
(10.0525 -0.350107 0)
(10.3767 -0.551888 0)
(11.0891 -0.472641 0)
(11.3182 -0.309708 0)
(11.635 -0.188219 0)
(11.6512 -0.197034 0)
(11.8904 -0.196605 0)
(11.7982 -0.140568 0)
(12.011 -0.151146 0)
(11.8958 -0.16708 0)
(12.0558 -0.0978317 0)
(11.9175 -0.100188 0)
(12.0173 -0.120424 0)
(11.8817 -0.109643 0)
(12.0178 -0.080838 0)
(11.8161 -0.130814 0)
(11.8972 -0.12751 0)
(11.7314 -0.171316 0)
(11.7303 -0.183278 0)
(11.4004 -0.262604 0)
(10.0008 -0.458094 0)
(10.5646 -0.698468 0)
(11.2025 -0.554746 0)
(11.3486 -0.35685 0)
(11.5531 -0.244826 0)
(11.4624 -0.237184 0)
(11.4865 -0.213721 0)
(11.2934 -0.154994 0)
(11.3308 -0.153334 0)
(11.0417 -0.150611 0)
(11.0944 -0.0934612 0)
(10.8455 -0.0873079 0)
(10.8491 -0.101926 0)
(10.6124 -0.0923891 0)
(10.6738 -0.0681992 0)
(10.3703 -0.101764 0)
(10.4159 -0.105048 0)
(10.1098 -0.139973 0)
(10.0577 -0.149033 0)
(9.64301 -0.219827 0)
(10.0583 -0.632377 0)
(10.6625 -0.859865 0)
(10.8814 -0.605155 0)
(10.6678 -0.375776 0)
(10.4722 -0.247886 0)
(10.0878 -0.201543 0)
(9.82242 -0.161184 0)
(9.50053 -0.110975 0)
(9.33581 -0.0964413 0)
(8.98702 -0.0909505 0)
(8.94538 -0.0547447 0)
(8.67389 -0.0456191 0)
(8.62647 -0.0573544 0)
(8.38697 -0.0554615 0)
(8.4016 -0.0377947 0)
(8.11254 -0.060258 0)
(8.12951 -0.0690262 0)
(7.80249 -0.0893536 0)
(7.74697 -0.103234 0)
(7.31358 -0.144959 0)
(10.0821 -0.83859 0)
(9.66063 -0.866615 0)
(8.87676 -0.508169 0)
(8.06881 -0.26328 0)
(7.50582 -0.13412 0)
(7.00593 -0.0835818 0)
(6.68465 -0.0597462 0)
(6.40315 -0.0351378 0)
(6.23581 -0.0279806 0)
(5.9912 -0.0336787 0)
(5.93489 -0.0178496 0)
(5.7541 -0.0115421 0)
(5.71515 -0.0229982 0)
(5.54063 -0.0250861 0)
(5.53324 -0.0130106 0)
(5.33459 -0.0273514 0)
(5.32108 -0.0341694 0)
(5.0616 -0.042703 0)
(5.00763 -0.0541974 0)
(4.62129 -0.0651921 0)
(8.09126 -0.388087 0)
(5.45052 -0.242412 0)
(3.91325 -0.0428884 0)
(3.15194 0.014769 0)
(2.80409 0.0191496 0)
(2.59979 0.011149 0)
(2.4785 0.00365341 0)
(2.37661 0.00394797 0)
(2.32508 0.00282099 0)
(2.24058 -0.00253614 0)
(2.20857 0.000942498 0)
(2.15588 0.00238218 0)
(2.14371 -0.0017382 0)
(2.06802 -0.00255775 0)
(2.05582 0.00152208 0)
(1.98501 -0.00261295 0)
(1.9574 -0.00307907 0)
(1.84237 -0.00432651 0)
(1.78664 -0.00668253 0)
(1.59112 0.0132037 0)
(2.02919 0.012594 0)
(2.12675 0.268629 0)
(2.52037 0.535806 0)
(3.1526 0.700261 0)
(3.80276 0.783534 0)
(4.3994 0.735565 0)
(4.89322 0.645684 0)
(5.29795 0.465896 0)
(5.59759 0.237856 0)
(5.8761 0.10152 0)
(6.09685 -0.196182 0)
(6.12974 -0.430402 0)
(6.40674 -0.56694 0)
(6.5413 -0.833087 0)
(6.61463 -0.988918 0)
(7.12935 -1.19613 0)
(7.18585 -1.38397 0)
(7.5171 -1.56084 0)
(8.14015 -1.85235 0)
(8.17926 -1.94857 0)
(8.83639 -2.23634 0)
(9.28761 -2.58342 0)
(9.35858 -2.69958 0)
(9.92272 -3.14665 0)
(9.73218 -3.41779 0)
(9.78716 -3.32152 0)
(9.91855 -3.30247 0)
(9.30267 -2.95938 0)
(9.25857 -2.75048 0)
(9.01442 -2.49959 0)
(8.73806 -1.59468 0)
(8.87483 -1.05599 0)
(8.49748 -0.499309 0)
(8.5904 0.257545 0)
(8.95385 0.482019 0)
(8.61633 1.02101 0)
(9.00683 1.24699 0)
(9.15747 1.17477 0)
(8.86981 1.48976 0)
(9.49176 1.20684 0)
(9.5241 1.15951 0)
(9.70952 1.16831 0)
(10.3466 0.679763 0)
(10.4115 0.540609 0)
(10.8088 0.123735 0)
(11.1641 -0.42276 0)
(11.3117 -0.839402 0)
(11.6314 -1.53063 0)
(11.6338 -2.02721 0)
(11.7452 -2.59354 0)
(11.9104 -3.27056 0)
(11.8441 -3.64699 0)
(11.9969 -4.23151 0)
(12.1848 -4.83865 0)
(12.0745 -5.13968 0)
(12.1586 -5.71713 0)
(11.9658 -6.07609 0)
(11.1879 -5.87994 0)
(10.7182 -5.82275 0)
(10.3064 -5.95825 0)
(10.0422 -5.97177 0)
(9.7045 -6.10267 0)
(9.73862 -6.58947 0)
(9.53722 -6.69369 0)
(8.75602 -6.35564 0)
(8.31245 -6.00354 0)
(7.7759 -5.92991 0)
(7.89927 -6.29658 0)
(8.32206 -6.61651 0)
(8.38553 -6.78894 0)
(9.02312 -6.68663 0)
(9.14928 -6.20789 0)
(9.23344 -5.76674 0)
(9.74462 -4.97476 0)
(9.58042 -4.20871 0)
(10.1927 -3.30579 0)
(10.1355 -2.31151 0)
(10.5051 -1.30243 0)
(10.4572 -0.233063 0)
(10.6503 0.746725 0)
(10.695 1.89506 0)
(10.7193 2.78845 0)
(10.563 3.70008 0)
(10.779 4.52245 0)
(10.5437 5.34501 0)
(10.4416 5.73506 0)
(9.90796 5.82847 0)
(9.89593 5.99363 0)
(9.91081 6.18916 0)
(9.84212 6.39988 0)
(10.0647 6.30297 0)
(9.51356 6.06975 0)
(9.91755 5.61768 0)
(9.2763 5.225 0)
(9.67177 4.65145 0)
(9.42923 4.1756 0)
(9.52137 3.56257 0)
(9.644 3.00634 0)
(9.35402 2.29994 0)
(9.62859 1.78469 0)
(8.95254 1.05123 0)
(9.44226 0.514166 0)
(8.51717 0.00104741 0)
(8.89249 -0.252993 0)
(7.80652 -0.531887 0)
(8.17072 -0.794688 0)
(7.0899 -0.971702 0)
(7.40015 -0.857081 0)
(6.26108 -0.695901 0)
(6.62853 -0.254729 0)
(5.48402 -0.0192853 0)
(6.08528 0.347727 0)
(5.046 0.513114 0)
(5.85234 0.674408 0)
(4.8968 0.708543 0)
(5.84413 0.733882 0)
(4.88422 0.603202 0)
(5.9083 0.610909 0)
(4.94447 0.38248 0)
(5.98111 0.434496 0)
(5.03656 0.217284 0)
(6.07623 0.292101 0)
(5.09568 0.195254 0)
(6.21281 0.21001 0)
(5.09556 0.231763 0)
(6.2741 0.222565 0)
(5.11405 0.20023 0)
(6.2049 0.26317 0)
(5.07979 0.163709 0)
(6.17709 0.215958 0)
(4.94933 0.158576 0)
(6.12488 0.183928 0)
(4.94629 0.0722456 0)
(5.98411 0.218394 0)
(4.92267 0.0460646 0)
(6.02437 0.122754 0)
(4.79358 0.121679 0)
(6.01943 0.100465 0)
(4.85169 0.0348297 0)
(5.95885 0.176355 0)
(4.79069 0.0581844 0)
(6.08033 0.0798335 0)
(4.73154 0.114236 0)
(6.02997 0.14537 0)
(4.79791 0.039279 0)
(6.0721 0.155456 0)
(4.71253 0.134077 0)
(6.09052 0.12723 0)
(4.80604 0.104344 0)
(6.03013 0.18768 0)
(4.7774 0.170053 0)
(6.08935 0.1476 0)
(4.83164 0.171034 0)
(5.99385 0.228873 0)
(4.85937 0.237748 0)
(6.0616 0.156407 0)
(4.87615 0.285042 0)
(5.95228 0.267565 0)
(4.9625 0.317092 0)
(5.98534 0.196702 0)
(4.98177 0.425393 0)
(5.86769 0.29115 0)
(5.10098 0.450851 0)
(5.84779 0.255871 0)
(5.17122 0.575365 0)
(5.70678 0.330164 0)
(5.30305 0.635186 0)
(5.63549 0.339001 0)
(5.4374 0.737698 0)
(5.49372 0.408723 0)
(5.56472 0.836362 0)
(5.38426 0.49649 0)
(5.72498 0.911015 0)
(5.33031 0.580958 0)
(5.82592 1.00788 0)
(5.25347 0.800041 0)
(5.91407 1.06405 0)
(5.37808 0.9483 0)
(5.94536 1.10334 0)
(5.48797 1.26336 0)
(5.86731 1.17469 0)
(5.76267 1.52439 0)
(5.77917 1.2089 0)
(6.07388 1.81472 0)
(5.63102 1.41556 0)
(6.39458 2.01941 0)
(5.61912 1.73626 0)
(6.54418 2.13126 0)
(5.77846 2.24023 0)
(6.44445 2.16936 0)
(6.04305 2.89188 0)
(6.17621 2.29135 0)
(6.25618 3.35821 0)
(6.02364 2.95587 0)
(5.8769 3.66721 0)
(6.2362 4.43171 0)
(5.30381 4.33163 0)
(5.91617 5.89973 0)
(6.38314 7.10049 0)
(4.02753 10.2331 0)
(5.13646 0.0816005 0)
(5.13542 0.235389 0)
(5.25813 0.386143 0)
(5.4981 0.450444 0)
(5.85694 0.530435 0)
(6.25987 0.468579 0)
(6.53674 0.379205 0)
(6.95975 0.288893 0)
(7.21018 0.0613692 0)
(7.4089 -0.106139 0)
(7.88267 -0.349528 0)
(7.89514 -0.533967 0)
(8.24828 -0.788801 0)
(8.66236 -1.03971 0)
(8.6434 -1.11039 0)
(9.26978 -1.50534 0)
(9.47201 -1.63824 0)
(9.64195 -1.73885 0)
(10.2872 -2.17454 0)
(10.2832 -2.19118 0)
(10.6828 -2.46421 0)
(10.9957 -2.80726 0)
(10.8718 -2.84667 0)
(11.2845 -3.2548 0)
(11.0435 -3.26904 0)
(10.7112 -3.11963 0)
(10.5571 -3.33802 0)
(10.0112 -2.94318 0)
(10.1139 -2.55735 0)
(9.70562 -2.22136 0)
(9.18548 -1.43129 0)
(9.51297 -1.07507 0)
(9.13382 -0.45419 0)
(9.30342 0.249265 0)
(9.80446 0.400965 0)
(9.43607 0.952287 0)
(10.0193 1.13036 0)
(10.2116 1.12307 0)
(10.0345 1.38076 0)
(10.6238 1.10808 0)
(10.5561 1.04335 0)
(10.7276 0.91745 0)
(11.0994 0.496989 0)
(11.1399 0.288988 0)
(11.472 -0.149737 0)
(11.6258 -0.582873 0)
(11.807 -1.05442 0)
(12.0878 -1.68451 0)
(12.0958 -2.10435 0)
(12.3007 -2.6607 0)
(12.4557 -3.23873 0)
(12.4536 -3.63884 0)
(12.648 -4.2805 0)
(12.5998 -4.73549 0)
(12.3707 -5.0692 0)
(12.1977 -5.51403 0)
(11.5134 -5.50857 0)
(10.8128 -5.31005 0)
(10.5293 -5.4969 0)
(10.3525 -5.73249 0)
(9.91402 -5.69232 0)
(9.66674 -6.0181 0)
(9.54515 -6.33852 0)
(8.80962 -6.18221 0)
(8.08784 -5.77324 0)
(7.37474 -5.56513 0)
(7.1682 -5.93066 0)
(7.42397 -6.48116 0)
(7.53155 -6.85215 0)
(7.89725 -7.05471 0)
(8.20794 -6.78999 0)
(8.10468 -6.38432 0)
(8.53026 -5.84353 0)
(8.52491 -5.16987 0)
(8.75448 -4.38798 0)
(9.21198 -3.44377 0)
(9.11456 -2.52682 0)
(9.61265 -1.36344 0)
(9.35539 -0.332767 0)
(9.80535 0.756431 0)
(9.55754 1.85769 0)
(9.79896 2.86008 0)
(9.51959 3.65012 0)
(9.82148 4.51434 0)
(9.7409 5.36582 0)
(9.66939 5.90661 0)
(9.33745 6.0591 0)
(9.11735 6.09101 0)
(9.18466 6.20441 0)
(9.19852 6.32971 0)
(9.25685 6.38907 0)
(9.26245 6.08073 0)
(9.00328 5.78397 0)
(9.20743 5.18981 0)
(8.69136 4.7067 0)
(9.15974 4.15691 0)
(8.63985 3.58546 0)
(9.1545 2.95622 0)
(8.65215 2.44225 0)
(8.92664 1.8733 0)
(8.65023 1.2351 0)
(8.62375 0.60857 0)
(8.36876 0.30592 0)
(7.98235 -0.0319332 0)
(7.86562 -0.201364 0)
(7.38552 -0.533485 0)
(7.09561 -0.569393 0)
(6.53895 -0.538546 0)
(6.17473 -0.280582 0)
(5.72468 -0.0189092 0)
(5.61596 0.288014 0)
(5.25247 0.425504 0)
(5.39861 0.683396 0)
(5.12902 0.658335 0)
(5.43211 0.804423 0)
(5.11199 0.664005 0)
(5.62881 0.713013 0)
(5.10009 0.504653 0)
(5.76587 0.48522 0)
(5.12739 0.336609 0)
(5.82719 0.269974 0)
(5.14207 0.204303 0)
(5.94412 0.22807 0)
(5.14398 0.104934 0)
(6.06014 0.30953 0)
(5.18712 0.112412 0)
(6.11919 0.30002 0)
(5.20723 0.21623 0)
(6.14814 0.24302 0)
(5.18708 0.186713 0)
(6.12108 0.296376 0)
(5.12735 0.0909315 0)
(6.10129 0.227213 0)
(4.99529 0.160725 0)
(6.11248 0.125441 0)
(4.90208 0.0585016 0)
(6.07792 0.258864 0)
(4.84755 -0.0354391 0)
(6.0802 0.146399 0)
(4.78419 0.11065 0)
(6.07602 0.125479 0)
(4.80424 -0.0556084 0)
(6.05579 0.272518 0)
(4.76029 0.0167227 0)
(6.11004 0.0896364 0)
(4.75122 0.0832113 0)
(6.08462 0.253887 0)
(4.75498 -0.0446441 0)
(6.17248 0.204098 0)
(4.66194 0.135421 0)
(6.19621 0.21744 0)
(4.72409 0.00213139 0)
(6.22483 0.298308 0)
(4.62566 0.163834 0)
(6.31263 0.22737 0)
(4.69502 0.0767872 0)
(6.28692 0.387033 0)
(4.64101 0.212091 0)
(6.40415 0.252581 0)
(4.71495 0.194192 0)
(6.34902 0.460824 0)
(4.70927 0.294234 0)
(6.45911 0.305506 0)
(4.82559 0.34467 0)
(6.37763 0.505188 0)
(4.86566 0.44754 0)
(6.4304 0.383025 0)
(5.06441 0.525541 0)
(6.32783 0.521007 0)
(5.16647 0.677357 0)
(6.2417 0.48816 0)
(5.44719 0.767208 0)
(6.14496 0.532176 0)
(5.65092 0.933932 0)
(5.87768 0.642584 0)
(5.92937 1.07965 0)
(5.80405 0.657515 0)
(6.2168 1.16728 0)
(5.55195 0.882592 0)
(6.3735 1.34428 0)
(5.53613 1.1022 0)
(6.51834 1.35416 0)
(5.63954 1.40097 0)
(6.43563 1.42819 0)
(5.89068 1.81127 0)
(6.20267 1.51448 0)
(6.24767 2.20827 0)
(5.91916 1.68664 0)
(6.59441 2.47699 0)
(5.8397 2.23499 0)
(6.63421 2.66548 0)
(6.22118 3.02255 0)
(6.28734 2.74769 0)
(6.77845 3.98284 0)
(5.85037 3.49372 0)
(6.64726 4.63081 0)
(6.58887 5.17377 0)
(5.35457 5.93126 0)
(8.86096 5.93 0)
(6.56681 11.3854 0)
(7.90707 -0.0048972 0)
(7.86962 -0.0112595 0)
(8.06952 0.116866 0)
(8.28237 0.203886 0)
(8.449 0.286654 0)
(8.87617 0.252545 0)
(8.96143 0.194702 0)
(9.28964 0.0367496 0)
(9.59547 -0.165307 0)
(9.6164 -0.277511 0)
(10.1414 -0.630222 0)
(10.16 -0.733055 0)
(10.4218 -0.94509 0)
(10.8641 -1.30906 0)
(10.7973 -1.27673 0)
(11.3298 -1.68261 0)
(11.4499 -1.87407 0)
(11.5143 -1.91101 0)
(11.9754 -2.36624 0)
(11.8319 -2.38103 0)
(12.038 -2.61395 0)
(12.1019 -2.88529 0)
(11.9186 -2.89508 0)
(12.0584 -3.1937 0)
(11.4933 -3.09967 0)
(11.3052 -3.01558 0)
(11.2847 -3.02124 0)
(10.5768 -2.47085 0)
(10.4187 -2.26525 0)
(9.91615 -1.94307 0)
(9.4929 -1.23165 0)
(9.85371 -1.05025 0)
(9.45258 -0.473486 0)
(9.67706 0.0531873 0)
(10.1431 0.151522 0)
(9.90868 0.705522 0)
(10.548 0.866929 0)
(10.7811 0.96156 0)
(10.8186 1.20014 0)
(11.3388 1.01284 0)
(11.3831 0.974817 0)
(11.6055 0.799445 0)
(11.8748 0.483353 0)
(11.9576 0.211258 0)
(12.2072 -0.264965 0)
(12.2859 -0.635204 0)
(12.4532 -1.10186 0)
(12.6862 -1.66866 0)
(12.7091 -2.09023 0)
(12.8916 -2.67425 0)
(12.9276 -3.19784 0)
(12.8353 -3.68189 0)
(12.8347 -4.28011 0)
(12.4607 -4.62609 0)
(12.1026 -4.90719 0)
(11.6527 -5.12749 0)
(11.003 -4.96378 0)
(10.6187 -4.99739 0)
(10.635 -5.39677 0)
(10.2856 -5.42328 0)
(9.75298 -5.44011 0)
(9.55104 -5.75729 0)
(8.98081 -5.85036 0)
(8.08646 -5.4538 0)
(7.10501 -5.08195 0)
(6.61151 -5.30986 0)
(6.59464 -5.96566 0)
(6.64714 -6.6126 0)
(6.86068 -7.07299 0)
(7.04229 -7.11992 0)
(7.10508 -6.88155 0)
(7.18863 -6.49428 0)
(7.43952 -5.98384 0)
(7.35454 -5.41406 0)
(7.91194 -4.62097 0)
(7.88228 -3.72918 0)
(8.22964 -2.712 0)
(8.25672 -1.50973 0)
(8.37485 -0.431014 0)
(8.56574 0.746425 0)
(8.56299 1.81266 0)
(8.55936 2.91964 0)
(8.50738 3.63594 0)
(8.55492 4.49587 0)
(8.78204 5.2961 0)
(8.66307 6.02782 0)
(8.57014 6.20139 0)
(8.3446 6.20582 0)
(8.42881 6.13986 0)
(8.33272 6.27485 0)
(8.61243 6.3273 0)
(8.51542 6.19039 0)
(8.45303 5.78913 0)
(8.42955 5.39953 0)
(8.40373 4.77554 0)
(8.16081 4.20591 0)
(8.48161 3.57853 0)
(8.10892 3.04016 0)
(8.38877 2.46067 0)
(7.9908 1.86845 0)
(8.3148 1.26023 0)
(7.77527 0.785772 0)
(8.00366 0.470872 0)
(7.39692 0.174105 0)
(7.69729 -0.068727 0)
(6.89143 -0.185498 0)
(7.04851 -0.262032 0)
(6.0445 -0.117333 0)
(6.18722 0.00538469 0)
(5.40579 0.230725 0)
(5.63685 0.368054 0)
(5.14456 0.592621 0)
(5.49564 0.592481 0)
(5.05367 0.739133 0)
(5.53862 0.702559 0)
(5.09024 0.663311 0)
(5.45631 0.603799 0)
(5.16379 0.570348 0)
(5.33463 0.350721 0)
(5.11217 0.445816 0)
(5.32447 0.174449 0)
(5.0896 0.265623 0)
(5.33423 0.142852 0)
(5.18712 0.171407 0)
(5.38155 0.159105 0)
(5.26299 0.215525 0)
(5.4418 0.15926 0)
(5.32246 0.279345 0)
(5.39746 0.153785 0)
(5.35992 0.286988 0)
(5.3328 0.159895 0)
(5.31393 0.262802 0)
(5.28947 0.123778 0)
(5.28171 0.268082 0)
(5.21979 0.0657093 0)
(5.27368 0.212782 0)
(5.19854 0.101476 0)
(5.27183 0.149926 0)
(5.16759 0.0479041 0)
(5.33003 0.213131 0)
(5.10874 0.00230325 0)
(5.36378 0.142647 0)
(5.09137 0.0981702 0)
(5.43302 0.144818 0)
(5.00569 -0.00844251 0)
(5.50749 0.248455 0)
(4.96154 0.0402542 0)
(5.54613 0.142872 0)
(4.90148 0.0901172 0)
(5.62563 0.263173 0)
(4.84899 0.0119049 0)
(5.65935 0.24057 0)
(4.7773 0.133525 0)
(5.76524 0.281256 0)
(4.70681 0.0458659 0)
(5.81326 0.329837 0)
(4.61274 0.176732 0)
(5.95416 0.334932 0)
(4.52598 0.0891738 0)
(6.01921 0.432572 0)
(4.41948 0.242856 0)
(6.1752 0.404864 0)
(4.35538 0.160754 0)
(6.25891 0.539799 0)
(4.25332 0.337415 0)
(6.39948 0.506432 0)
(4.27166 0.281333 0)
(6.49233 0.622822 0)
(4.23019 0.48873 0)
(6.56367 0.639873 0)
(4.38037 0.494031 0)
(6.6504 0.667579 0)
(4.51379 0.708082 0)
(6.54838 0.773693 0)
(4.79737 0.846821 0)
(6.57763 0.709195 0)
(5.19375 1.01071 0)
(6.26959 0.851362 0)
(5.59187 1.27507 0)
(6.11711 0.870552 0)
(6.10995 1.43409 0)
(5.82873 0.99496 0)
(6.51827 1.61403 0)
(5.66965 1.26188 0)
(6.7732 1.74994 0)
(5.767 1.62728 0)
(6.70659 1.77284 0)
(6.19249 2.0844 0)
(6.31069 1.83333 0)
(6.83699 2.63152 0)
(5.78292 2.1025 0)
(7.34992 2.9752 0)
(5.73383 2.80035 0)
(7.13713 3.28482 0)
(6.88386 3.85731 0)
(6.16274 4.29242 0)
(8.89608 4.02112 0)
(5.97869 7.21153 0)
(10.0709 3.13486 0)
(8.5986 9.9982 0)
(10.2753 -0.0190535 0)
(10.2021 -0.065475 0)
(10.383 -0.0551669 0)
(10.6643 0.00632054 0)
(10.6663 0.124943 0)
(11.0924 0.0168298 0)
(11.1142 0.0164353 0)
(11.3409 -0.123411 0)
(11.6589 -0.366592 0)
(11.5927 -0.424687 0)
(12.0468 -0.77901 0)
(12.0617 -0.895652 0)
(12.2345 -1.08275 0)
(12.5478 -1.42791 0)
(12.4654 -1.44876 0)
(12.8193 -1.79212 0)
(12.8104 -1.93653 0)
(12.8118 -2.04527 0)
(12.9974 -2.39183 0)
(12.7465 -2.38969 0)
(12.8204 -2.63362 0)
(12.6811 -2.77716 0)
(12.3964 -2.76375 0)
(12.294 -2.98969 0)
(11.8341 -2.76836 0)
(11.6645 -2.69157 0)
(11.1304 -2.68825 0)
(10.4282 -2.19331 0)
(10.5111 -2.02303 0)
(10.0967 -1.65084 0)
(9.91931 -1.13733 0)
(10.1492 -1.02464 0)
(9.70716 -0.436496 0)
(9.91364 -0.0322874 0)
(10.1005 0.120539 0)
(9.96414 0.591727 0)
(10.4796 0.681654 0)
(10.6808 0.813271 0)
(10.8693 0.956713 0)
(11.3079 0.829607 0)
(11.4996 0.80735 0)
(11.8112 0.597863 0)
(12.0532 0.357699 0)
(12.2314 0.0563719 0)
(12.5045 -0.392783 0)
(12.5707 -0.716169 0)
(12.7546 -1.2077 0)
(12.8897 -1.6943 0)
(12.8566 -2.16756 0)
(12.9438 -2.77915 0)
(12.7511 -3.22174 0)
(12.5628 -3.72216 0)
(12.3554 -4.16767 0)
(11.8943 -4.33155 0)
(11.6016 -4.51139 0)
(11.31 -4.61558 0)
(10.8921 -4.56928 0)
(10.834 -4.89788 0)
(10.7012 -5.15331 0)
(10.0493 -4.9954 0)
(9.58557 -5.09135 0)
(9.15275 -5.34715 0)
(8.26863 -5.10731 0)
(7.06446 -4.59101 0)
(6.19131 -4.53574 0)
(5.89171 -5.14488 0)
(5.80502 -5.98704 0)
(5.85299 -6.72601 0)
(5.9528 -7.13674 0)
(6.00134 -7.20844 0)
(6.03821 -6.95322 0)
(6.12071 -6.56669 0)
(6.14447 -6.06952 0)
(6.24481 -5.54567 0)
(6.63216 -4.73743 0)
(6.59184 -3.85696 0)
(6.99937 -2.75759 0)
(6.75128 -1.66671 0)
(7.20393 -0.48906 0)
(7.07731 0.609435 0)
(7.48759 1.8208 0)
(7.16033 2.86882 0)
(7.41967 3.66354 0)
(7.2761 4.39186 0)
(7.62499 5.25982 0)
(7.55455 6.00821 0)
(7.54498 6.30331 0)
(7.42458 6.2297 0)
(7.49626 6.25756 0)
(7.58364 6.15721 0)
(7.57273 6.27512 0)
(7.88283 6.18154 0)
(7.70098 5.84741 0)
(7.74296 5.31724 0)
(7.79677 4.93144 0)
(7.62787 4.1748 0)
(7.71589 3.60215 0)
(7.57472 3.08111 0)
(7.6319 2.49447 0)
(7.64267 1.95324 0)
(7.52087 1.37898 0)
(7.54412 0.974186 0)
(7.20278 0.609038 0)
(7.36203 0.318687 0)
(6.91753 0.182832 0)
(6.86802 0.060844 0)
(6.2767 0.109105 0)
(6.06323 0.209342 0)
(5.51214 0.21956 0)
(5.52975 0.473007 0)
(5.06994 0.414176 0)
(5.32183 0.607049 0)
(4.97939 0.638948 0)
(5.26098 0.680814 0)
(4.9224 0.655393 0)
(5.28741 0.769147 0)
(4.85495 0.51566 0)
(5.24039 0.649078 0)
(4.90103 0.394066 0)
(5.21133 0.407221 0)
(4.92354 0.172818 0)
(5.27825 0.299951 0)
(4.96611 0.0110478 0)
(5.34512 0.213104 0)
(5.01236 0.113182 0)
(5.49422 0.177299 0)
(4.99948 0.16399 0)
(5.57372 0.327621 0)
(5.11815 0.112089 0)
(5.56072 0.34464 0)
(5.1563 0.206414 0)
(5.66234 0.23608 0)
(5.18132 0.144182 0)
(5.61486 0.315891 0)
(5.33957 0.0172524 0)
(5.67228 0.187549 0)
(5.27669 0.154734 0)
(5.79762 0.0910033 0)
(5.38037 -0.00316643 0)
(5.71956 0.251548 0)
(5.4291 0.0150095 0)
(5.89841 0.025341 0)
(5.34651 0.161974 0)
(5.87104 0.147785 0)
(5.48151 -0.0376117 0)
(5.89267 0.164881 0)
(5.40932 0.173377 0)
(5.93725 0.0594531 0)
(5.5113 0.0823686 0)
(5.86637 0.218851 0)
(5.50339 0.152289 0)
(5.90967 0.092125 0)
(5.58152 0.182893 0)
(5.81075 0.230654 0)
(5.61377 0.192035 0)
(5.81634 0.141521 0)
(5.69808 0.282426 0)
(5.70677 0.251898 0)
(5.75139 0.248088 0)
(5.64573 0.217067 0)
(5.88293 0.401043 0)
(5.51533 0.257444 0)
(5.94668 0.34703 0)
(5.37175 0.311866 0)
(6.13956 0.524644 0)
(5.21165 0.282348 0)
(6.23706 0.489988 0)
(4.98128 0.395873 0)
(6.45886 0.670463 0)
(4.80332 0.365988 0)
(6.62127 0.652693 0)
(4.56881 0.479481 0)
(6.7843 0.85311 0)
(4.429 0.549006 0)
(7.00219 0.812227 0)
(4.40993 0.661929 0)
(6.98047 1.03118 0)
(4.51226 0.871915 0)
(7.08128 0.982621 0)
(4.90826 1.0992 0)
(6.81649 1.13574 0)
(5.49154 1.37449 0)
(6.51988 1.18913 0)
(6.21552 1.72114 0)
(6.02447 1.33166 0)
(6.94133 2.06685 0)
(5.57745 1.58175 0)
(7.51862 2.26252 0)
(5.5531 1.98191 0)
(7.48042 2.54627 0)
(6.18935 2.52887 0)
(6.67164 2.94493 0)
(7.58076 2.76387 0)
(5.62441 4.02061 0)
(9.24694 2.48177 0)
(5.51791 5.93599 0)
(10.2538 1.69269 0)
(7.02465 7.67575 0)
(10.2667 2.66171 0)
(8.822 8.64116 0)
(11.9814 -0.0866469 0)
(11.8958 -0.0644319 0)
(12.065 -0.0793131 0)
(12.34 -0.0710098 0)
(12.2716 0.0549576 0)
(12.6138 -0.0923734 0)
(12.564 -0.113453 0)
(12.7618 -0.266971 0)
(12.944 -0.494503 0)
(12.9503 -0.586174 0)
(13.2477 -0.876108 0)
(13.2257 -1.00995 0)
(13.4102 -1.21851 0)
(13.4699 -1.43139 0)
(13.4478 -1.556 0)
(13.5427 -1.80707 0)
(13.4112 -1.89897 0)
(13.4161 -2.08766 0)
(13.2815 -2.24613 0)
(13.0502 -2.35135 0)
(13.0209 -2.55833 0)
(12.6348 -2.57566 0)
(12.4474 -2.65135 0)
(12.2475 -2.68394 0)
(11.6341 -2.51235 0)
(11.414 -2.4937 0)
(10.9722 -2.2785 0)
(10.6646 -1.88896 0)
(10.6282 -1.77912 0)
(10.0597 -1.43771 0)
(9.97568 -1.08126 0)
(9.96216 -0.910153 0)
(9.6352 -0.402347 0)
(9.86075 -0.1193 0)
(9.94903 0.0529115 0)
(9.98474 0.388035 0)
(10.3389 0.43287 0)
(10.5078 0.573838 0)
(10.7679 0.657215 0)
(11.0721 0.565687 0)
(11.2942 0.528374 0)
(11.6322 0.328939 0)
(11.7963 0.146934 0)
(12.027 -0.17322 0)
(12.2676 -0.531228 0)
(12.3244 -0.856483 0)
(12.5082 -1.36074 0)
(12.4846 -1.75657 0)
(12.4496 -2.28347 0)
(12.4357 -2.80212 0)
(12.1544 -3.1205 0)
(12.0345 -3.55869 0)
(11.8684 -3.79749 0)
(11.5582 -3.9053 0)
(11.5084 -4.22234 0)
(11.2913 -4.35841 0)
(10.9989 -4.49763 0)
(10.9053 -4.81001 0)
(10.3948 -4.75409 0)
(9.72733 -4.5382 0)
(9.27165 -4.71327 0)
(8.58016 -4.70887 0)
(7.30695 -4.11483 0)
(6.01064 -3.7073 0)
(5.35472 -4.09755 0)
(5.05377 -4.97635 0)
(4.94889 -5.96033 0)
(4.94182 -6.7035 0)
(4.88021 -7.12485 0)
(4.92673 -7.16469 0)
(4.92634 -6.9538 0)
(4.88067 -6.57096 0)
(4.89738 -6.12803 0)
(4.95892 -5.57484 0)
(5.18982 -4.75111 0)
(5.1995 -3.80923 0)
(5.44964 -2.70434 0)
(5.26151 -1.71432 0)
(5.6231 -0.575328 0)
(5.55743 0.486296 0)
(5.95227 1.77134 0)
(5.79441 2.80485 0)
(5.98071 3.63663 0)
(6.10169 4.31362 0)
(6.20611 5.16276 0)
(6.45066 5.90516 0)
(6.35039 6.31595 0)
(6.47053 6.18425 0)
(6.46619 6.10486 0)
(6.82201 6.16907 0)
(6.68897 6.12452 0)
(6.93761 6.06576 0)
(7.14023 5.87403 0)
(6.80247 5.33698 0)
(7.13915 4.86116 0)
(6.9799 4.2499 0)
(7.15384 3.67295 0)
(6.95651 3.08605 0)
(7.14687 2.49581 0)
(7.04794 2.03552 0)
(6.92764 1.34537 0)
(6.96324 1.14777 0)
(6.92918 0.498132 0)
(6.66544 0.493127 0)
(6.6569 0.23178 0)
(5.97774 0.433205 0)
(5.85727 0.318561 0)
(5.42073 0.630226 0)
(5.24595 0.322199 0)
(5.06505 0.729757 0)
(5.19342 0.398326 0)
(4.83167 0.815465 0)
(5.232 0.473904 0)
(4.89008 0.958446 0)
(5.16138 0.500336 0)
(4.98692 0.892725 0)
(5.30335 0.489141 0)
(5.0108 0.735291 0)
(5.50465 0.205734 0)
(5.11005 0.649717 0)
(5.57219 -0.0700594 0)
(5.16864 0.428324 0)
(5.59671 -0.100092 0)
(5.1457 0.306512 0)
(5.59857 -0.132406 0)
(5.14259 0.376818 0)
(5.61975 -0.0684473 0)
(5.14692 0.363964 0)
(5.67323 -0.0118303 0)
(5.21189 0.456682 0)
(5.72204 -0.0924914 0)
(5.21391 0.434899 0)
(5.85538 -0.0141431 0)
(5.207 0.349694 0)
(5.89132 -0.148171 0)
(5.28528 0.431189 0)
(5.94638 -0.128915 0)
(5.25751 0.207329 0)
(6.02299 -0.0218884 0)
(5.30047 0.332491 0)
(6.02843 -0.24708 0)
(5.31377 0.305803 0)
(6.10221 0.0539485 0)
(5.30677 0.137621 0)
(6.12215 -0.123764 0)
(5.34992 0.43612 0)
(6.14372 -0.0658206 0)
(5.3464 0.125283 0)
(6.22477 0.0885033 0)
(5.32782 0.387979 0)
(6.22826 -0.0987778 0)
(5.39479 0.241864 0)
(6.29083 0.183477 0)
(5.32927 0.348097 0)
(6.32343 -0.0214301 0)
(5.45705 0.321431 0)
(6.31637 0.2567 0)
(5.39864 0.365657 0)
(6.36886 0.0749642 0)
(5.5425 0.388029 0)
(6.33636 0.34233 0)
(5.51549 0.420818 0)
(6.32761 0.197682 0)
(5.70064 0.465981 0)
(6.29645 0.420765 0)
(5.71974 0.526071 0)
(6.16106 0.345204 0)
(5.95803 0.561845 0)
(6.09072 0.49914 0)
(6.08082 0.672529 0)
(5.84018 0.489038 0)
(6.33407 0.725906 0)
(5.59751 0.584201 0)
(6.6239 0.827687 0)
(5.27766 0.604504 0)
(6.8571 1.00486 0)
(4.8159 0.664894 0)
(7.2355 1.01177 0)
(4.4537 0.712642 0)
(7.4378 1.31152 0)