/*--------------------------------*- C++ -*----------------------------------*\
| =========                 |                                                 |
| \\      /  F ield         | OpenFOAM: The Open Source CFD Toolbox           |
|  \\    /   O peration     | Version:  2.4.0                                 |
|   \\  /    A nd           | Web:      www.OpenFOAM.org                      |
|    \\/     M anipulation  |                                                 |
\*---------------------------------------------------------------------------*/
FoamFile
{
    version     2.0;
    format      ascii;
    class       volScalarField;
    location    "1.69";
    object      nuSgs;
}
// * * * * * * * * * * * * * * * * * * * * * * * * * * * * * * * * * * * * * //

dimensions      [0 2 -1 0 0 0 0];

internalField   nonuniform List<scalar> 
8800
(
0.00133861
0.00150698
0.00139263
0.00122964
0.00111991
0.0010521
0.00099528
0.000962179
0.000923974
0.000906265
0.000878094
0.000869039
0.00084646
0.000841408
0.000821054
0.000817714
0.000798219
0.000794585
0.000785897
0.000762072
0.000554203
0.000982173
0.00108288
0.00108145
0.00106207
0.00103607
0.00099965
0.000979624
0.000947382
0.000932744
0.000906505
0.000896493
0.000875549
0.000869092
0.000852065
0.000847453
0.000832407
0.000827878
0.000816284
0.000813511
0.000135645
0.000406584
0.000583816
0.00065904
0.000703465
0.000739049
0.000750101
0.000761121
0.000760084
0.000759398
0.000754596
0.000751438
0.000745249
0.000740863
0.000734981
0.000732457
0.000726747
0.00072123
0.00071734
0.000712275
2.69064e-05
0.000125683
0.000232491
0.00031089
0.000354546
0.000396673
0.000429244
0.000452829
0.00047656
0.000491971
0.000507485
0.000515315
0.000529856
0.000534735
0.000544657
0.000548481
0.000558567
0.00055821
0.00056236
0.000561643
5.11761e-06
3.35983e-05
6.81595e-05
0.000109129
0.000138648
0.000160508
0.000194341
0.000209349
0.000234852
0.00024907
0.000268579
0.000277538
0.00029614
0.000304239
0.000320732
0.000328058
0.000345636
0.000351148
0.000361783
0.000370471
2.3814e-06
8.49056e-06
1.76486e-05
3.01138e-05
4.07606e-05
4.84323e-05
6.43774e-05
7.34446e-05
8.78372e-05
9.67825e-05
0.000109726
0.000116042
0.000127205
0.000135904
0.000145324
0.000151379
0.000166085
0.000174583
0.000179279
0.000192352
2.21828e-06
3.19464e-06
5.08261e-06
8.53825e-06
1.06565e-05
1.23518e-05
1.59931e-05
2.06515e-05
2.34788e-05
2.91015e-05
3.24794e-05
3.76853e-05
4.00289e-05
4.54804e-05
4.82067e-05
5.38669e-05
5.85697e-05
6.59367e-05
6.89732e-05
8.01956e-05
2.16008e-06
2.70505e-06
3.24934e-06
4.1509e-06
4.70375e-06
4.87151e-06
5.19094e-06
6.11818e-06
6.52159e-06
7.9856e-06
8.68851e-06
1.02963e-05
1.06626e-05
1.21794e-05
1.25776e-05
1.4536e-05
1.56564e-05
1.88997e-05
2.04297e-05
2.68881e-05
2.13781e-06
2.56119e-06
3.10462e-06
3.46339e-06
3.73786e-06
4.15206e-06
4.22406e-06
4.24334e-06
4.18751e-06
4.28024e-06
4.40607e-06
4.73023e-06
4.80416e-06
5.03509e-06
5.02066e-06
5.17636e-06
5.3407e-06
5.91688e-06
6.15725e-06
7.5891e-06
2.12811e-06
2.67904e-06
3.02604e-06
3.32994e-06
3.56503e-06
3.81577e-06
4.01367e-06
4.03147e-06
3.94691e-06
3.9242e-06
3.94858e-06
4.02672e-06
4.08624e-06
4.23149e-06
4.23986e-06
4.22384e-06
4.23059e-06
4.27431e-06
4.2618e-06
4.34683e-06
2.13524e-06
2.46386e-06
2.84266e-06
3.73334e-06
3.78678e-06
3.72333e-06
3.73867e-06
3.98105e-06
4.02352e-06
4.03722e-06
4.03107e-06
4.04021e-06
4.13225e-06
4.23686e-06
4.21548e-06
4.21895e-06
4.30731e-06
4.32045e-06
4.30173e-06
4.34598e-06
2.14577e-06
2.47436e-06
2.88906e-06
3.83789e-06
4.03143e-06
4.02495e-06
4.03948e-06
4.03132e-06
4.04116e-06
4.28617e-06
4.61797e-06
4.77106e-06
4.84002e-06
4.85489e-06
4.87718e-06
5.10948e-06
5.28689e-06
5.59817e-06
5.82828e-06
6.22994e-06
2.15581e-06
2.5715e-06
3.14312e-06
4.20439e-06
4.57219e-06
5.04857e-06
5.33633e-06
6.0736e-06
6.63674e-06
8.03813e-06
8.72339e-06
9.95806e-06
1.0624e-05
1.2195e-05
1.30232e-05
1.4751e-05
1.57881e-05
1.83049e-05
1.9684e-05
2.26249e-05
2.18523e-06
3.0861e-06
5.15732e-06
8.97064e-06
1.07401e-05
1.37656e-05
1.60618e-05
2.10601e-05
2.37289e-05
2.94993e-05
3.24013e-05
3.78328e-05
4.06035e-05
4.67147e-05
4.93435e-05
5.50901e-05
5.84733e-05
6.62958e-05
7.03379e-05
7.98724e-05
2.34969e-06
8.22321e-06
1.79598e-05
3.28021e-05
4.0169e-05
5.2518e-05
6.09334e-05
7.7109e-05
8.45558e-05
9.98708e-05
0.000106879
0.000119882
0.000125851
0.000138792
0.000144189
0.000156296
0.000162637
0.000177521
0.000184606
0.000203109
5.22821e-06
3.29519e-05
6.96844e-05
0.000113146
0.000136427
0.000165004
0.00018707
0.000216247
0.000228824
0.000253198
0.000264549
0.000282881
0.000291462
0.000309746
0.000316797
0.000333139
0.000340959
0.000359783
0.000367877
0.000388273
2.72764e-05
0.000123838
0.000240443
0.000304426
0.000359114
0.000392957
0.000429661
0.000454081
0.000473948
0.000493148
0.000506785
0.000517508
0.000526459
0.000537976
0.000542241
0.000551643
0.000555839
0.000566243
0.000569857
0.000578804
0.000136687
0.000400649
0.000588874
0.000654303
0.000709809
0.000732236
0.000755394
0.000757338
0.00076145
0.000757946
0.00075633
0.000748808
0.000746579
0.0007394
0.000737075
0.000730615
0.000729173
0.000724989
0.000723059
0.000718768
0.000557248
0.000980221
0.00108424
0.00108054
0.0010647
0.00102937
0.00100685
0.000971506
0.000955615
0.000924419
0.000913449
0.000889215
0.000881919
0.000862179
0.000857715
0.000841162
0.000837345
0.000821658
0.000816802
0.000803405
0.00133921
0.00150572
0.0013939
0.00122681
0.00112364
0.00104668
0.00100131
0.000954899
0.000931879
0.000897601
0.000886021
0.000860379
0.000854421
0.000832188
0.00082867
0.000807286
0.000803258
0.00077894
0.000771384
0.00074112
0.000347312
0.000292164
0.000255953
0.00023184
0.000215235
0.000204085
0.000196293
0.000190452
0.000185574
0.000181384
0.000177644
0.000174827
0.000171967
0.000170696
0.000168391
0.000167051
0.000165619
0.000162522
0.000160096
0.000154956
0.00014631
0.000136222
0.000122361
0.000111928
0.000103955
9.9099e-05
9.63273e-05
9.34348e-05
9.21177e-05
9.25982e-05
9.45603e-05
9.94191e-05
0.000105631
0.000114381
0.000125582
0.00013248
0.000140575
0.000147247
0.000152791
0.000157679
0.000159568
0.000160609
0.000162562
0.000162862
0.000162336
0.000160303
0.000155684
0.000148476
0.000141551
0.000139496
0.000139546
0.000140124
0.000142914
0.000147543
0.000149293
0.000149914
0.000149847
0.000148808
0.000147164
0.000144229
0.000137309
0.000130282
0.000122812
0.000116211
0.000111088
0.000107289
0.000104136
0.000101395
9.84958e-05
9.61353e-05
9.3564e-05
9.18096e-05
8.89683e-05
8.58726e-05
8.16424e-05
7.32494e-05
6.25464e-05
4.73047e-05
3.68353e-05
2.98321e-05
2.46137e-05
2.2905e-05
2.32374e-05
2.44337e-05
2.96536e-05
4.61713e-05
8.07042e-05
0.000137698
0.000166945
0.000170916
0.00016618
0.000153357
0.000139472
0.000128565
0.000120677
0.000116084
0.000115683
0.000116271
0.000116462
0.00011579
0.000113876
0.000110142
9.94895e-05
7.65655e-05
6.80432e-05
6.97315e-05
8.59845e-05
0.000120963
0.000127368
0.000124555
0.000115309
9.68468e-05
8.12476e-05
7.23166e-05
6.75212e-05
6.46043e-05
6.17836e-05
6.08859e-05
6.11678e-05
6.23404e-05
6.61566e-05
7.50461e-05
8.17586e-05
8.48915e-05
8.50024e-05
8.35777e-05
7.68963e-05
7.13339e-05
6.89448e-05
6.65546e-05
6.05517e-05
5.36723e-05
4.82943e-05
4.37393e-05
4.00429e-05
3.64922e-05
3.31683e-05
3.0194e-05
2.83838e-05
2.85055e-05
2.9077e-05
2.92103e-05
2.85563e-05
2.81506e-05
2.81956e-05
2.88035e-05
3.0815e-05
3.51416e-05
4.57411e-05
6.8535e-05
8.35714e-05
0.00010113
0.000104751
0.000108915
0.00010799
9.95599e-05
9.58979e-05
9.30815e-05
9.02718e-05
8.60225e-05
8.59584e-05
8.68685e-05
8.72112e-05
8.51403e-05
7.82043e-05
7.22213e-05
6.67556e-05
6.50044e-05
6.04491e-05
5.77583e-05
5.47326e-05
5.28625e-05
5.22842e-05
5.19815e-05
5.23674e-05
5.40249e-05
5.76662e-05
6.97566e-05
8.12124e-05
8.99659e-05
9.49914e-05
9.57377e-05
9.38702e-05
8.33041e-05
7.17024e-05
6.5279e-05
6.52534e-05
6.4023e-05
6.38941e-05
6.08227e-05
5.48546e-05
5.19707e-05
5.04182e-05
5.02626e-05
5.044e-05
5.21997e-05
5.55667e-05
5.96025e-05
6.7145e-05
9.83722e-05
0.000411521
0.000373757
0.00034189
0.000316371
0.000296312
0.000280739
0.000267775
0.000258131
0.000249184
0.000242575
0.000236034
0.000230886
0.000225829
0.000221568
0.000217958
0.000214612
0.000212306
0.000209271
0.000207837
0.000204758
0.000202052
0.000198448
0.000192878
0.000186464
0.000178329
0.000170843
0.000163575
0.000159296
0.000155762
0.000155762
0.000156599
0.000158487
0.000161969
0.000163879
0.000165939
0.000167977
0.000168266
0.000168055
0.000167319
0.000166165
0.00016493
0.000162443
0.000159755
0.000156371
0.000151345
0.000144155
0.000136084
0.000130157
0.000125247
0.000121961
0.000120089
0.000118704
0.000118396
0.000118615
0.000119054
0.000119402
0.000120208
0.000120589
0.000120905
0.000121341
0.000121232
0.000120596
0.000119679
0.000118312
0.000115507
0.000112575
0.000107913
0.000103772
9.90992e-05
9.45029e-05
9.09838e-05
8.45878e-05
7.70873e-05
6.89325e-05
5.54323e-05
4.4585e-05
3.5297e-05
2.78e-05
2.41767e-05
2.12781e-05
1.93847e-05
1.9985e-05
2.14462e-05
2.54614e-05
3.94483e-05
7.37348e-05
0.000136198
0.000175021
0.000182618
0.000177713
0.000162593
0.00013884
0.000119714
0.000107564
9.87675e-05
9.65502e-05
9.7413e-05
0.000100773
0.000107777
0.000111172
0.000111645
0.000110452
0.00010672
9.18128e-05
7.29144e-05
6.87889e-05
7.31974e-05
9.49838e-05
0.000118698
0.000121693
0.000118957
0.000111635
0.000100031
8.75926e-05
8.00401e-05
7.40044e-05
6.99464e-05
6.98368e-05
7.0918e-05
7.39026e-05
7.97102e-05
8.4417e-05
8.68984e-05
8.71343e-05
8.60972e-05
8.18548e-05
7.50377e-05
7.07409e-05
6.80572e-05
6.30459e-05
5.6825e-05
5.04552e-05
4.57798e-05
4.09773e-05
3.74544e-05
3.45284e-05
3.25329e-05
2.99759e-05
2.88859e-05
2.89728e-05
3.02626e-05
3.03643e-05
2.99399e-05
2.97006e-05
2.99034e-05
3.10917e-05
3.40573e-05
3.98295e-05
5.71797e-05
7.13945e-05
9.25629e-05
0.000104152
0.000105692
0.000107435
0.000103489
9.58737e-05
9.47302e-05
9.57202e-05
9.51427e-05
9.25769e-05
9.22181e-05
9.77028e-05
0.000101237
9.98703e-05
9.2192e-05
7.99806e-05
7.10788e-05
6.67197e-05
6.18806e-05
5.95536e-05
5.84659e-05
5.43111e-05
5.26743e-05
5.20468e-05
5.21394e-05
5.36645e-05
5.6747e-05
6.96697e-05
8.15732e-05
8.92661e-05
9.26124e-05
9.28683e-05
9.11304e-05
8.26705e-05
7.37057e-05
6.63751e-05
6.54577e-05
6.44254e-05
6.32617e-05
5.91737e-05
5.35529e-05
5.05632e-05
4.94273e-05
4.92631e-05
4.94544e-05
5.08638e-05
5.4101e-05
5.60049e-05
5.89201e-05
6.46094e-05
0.000370622
0.000349676
0.000329722
0.000312376
0.000296736
0.000284122
0.000272786
0.000264144
0.000255773
0.000249283
0.000243181
0.000237168
0.000233378
0.000227349
0.000224369
0.00022027
0.000216949
0.000214971
0.000212397
0.000210612
0.000209223
0.00020746
0.00020528
0.000203432
0.000200466
0.000197225
0.000194227
0.000191076
0.000187979
0.000185574
0.000183444
0.00018065
0.000179317
0.000177684
0.000175237
0.000173722
0.000171563
0.000168317
0.000164604
0.00015997
0.000154835
0.000148895
0.000140911
0.000134065
0.000125511
0.000116284
0.000108125
9.97451e-05
9.32406e-05
8.69309e-05
8.17909e-05
7.79965e-05
7.50997e-05
7.45177e-05
7.45926e-05
7.47465e-05
7.51895e-05
7.6159e-05
7.62448e-05
7.67126e-05
7.67066e-05
7.59217e-05
7.50217e-05
7.51875e-05
7.49931e-05
7.44161e-05
7.28027e-05
7.11115e-05
6.69426e-05
6.31066e-05
5.68193e-05
4.91125e-05
4.29935e-05
3.5961e-05
2.9837e-05
2.62031e-05
2.13293e-05
1.85389e-05
1.79611e-05
1.67491e-05
1.71953e-05
1.88971e-05
2.22544e-05
3.25904e-05
6.16394e-05
0.000123464
0.000176113
0.0001914
0.000188944
0.000172945
0.00013883
0.000114736
0.000100438
9.32119e-05
8.84261e-05
8.58981e-05
8.59122e-05
8.71088e-05
9.04025e-05
9.99429e-05
0.000106688
0.000108248
0.000106933
0.000102114
8.23034e-05
7.04259e-05
6.97322e-05
7.62256e-05
9.72717e-05
0.000114276
0.000116643
0.000114728
0.000110069
0.000102285
9.57531e-05
9.06481e-05
8.60843e-05
8.49803e-05
8.53728e-05
8.6406e-05
8.84126e-05
8.94377e-05
8.95155e-05
8.87204e-05
8.44505e-05
7.91126e-05
7.23196e-05
6.80808e-05
6.48103e-05
6.06748e-05
5.36554e-05
4.74097e-05
4.3028e-05
3.94498e-05
3.62133e-05
3.40228e-05
3.23842e-05
3.06001e-05
3.00739e-05
3.01557e-05
3.19979e-05
3.21452e-05
3.19719e-05
3.19044e-05
3.24534e-05
3.47276e-05
3.88918e-05
4.66625e-05
6.23108e-05
8.18455e-05
9.86883e-05
0.00010382
0.000105544
0.000103149
9.85583e-05
9.57324e-05
9.91699e-05
0.000104831
0.000105178
0.000102983
0.000101829
0.00010678
0.000117161
0.000117425
0.000106496
8.53012e-05
7.26551e-05
6.607e-05
6.23448e-05
5.93509e-05
5.88678e-05
5.72602e-05
5.37988e-05
5.30309e-05
5.26875e-05
5.36397e-05
5.65383e-05
7.02834e-05
8.22206e-05
8.71583e-05
9.0573e-05
9.04571e-05
8.81354e-05
8.23208e-05
7.38245e-05
6.84018e-05
6.55226e-05
6.45165e-05
6.15724e-05
5.6479e-05
5.23543e-05
4.98887e-05
4.91912e-05
4.9026e-05
4.926e-05
5.01789e-05
5.24256e-05
5.4592e-05
5.80479e-05
6.01056e-05
0.000298139
0.000287519
0.000276451
0.000266203
0.000256347
0.000246125
0.000238879
0.000231459
0.000225996
0.000221143
0.000216088
0.000212035
0.000208124
0.00020429
0.000201611
0.000198036
0.000195543
0.000193136
0.000190536
0.000189858
0.000188616
0.000187861
0.000187466
0.000186534
0.000185604
0.000183692
0.000181557
0.000178719
0.000175331
0.000171878
0.000168138
0.000164474
0.000160611
0.000157053
0.00015344
0.000148513
0.000144672
0.000138994
0.000132517
0.000125803
0.000117099
0.000108646
9.92172e-05
8.95587e-05
8.03751e-05
7.15308e-05
6.42447e-05
5.77569e-05
5.2786e-05
4.88524e-05
4.59076e-05
4.40113e-05
4.22485e-05
4.10278e-05
4.04316e-05
4.02357e-05
4.02491e-05
4.04076e-05
4.06314e-05
4.08063e-05
4.13107e-05
4.13608e-05
4.14312e-05
4.12954e-05
4.10739e-05
4.0464e-05
3.94031e-05
3.81483e-05
3.53161e-05
3.38162e-05
3.01337e-05
2.70784e-05
2.48613e-05
2.06694e-05
1.88552e-05
1.69959e-05
1.45098e-05
1.46031e-05
1.48509e-05
1.5341e-05
1.71832e-05
2.1114e-05
2.91613e-05
4.9202e-05
9.74833e-05
0.000167711
0.000195865
0.000201117
0.000191555
0.000152296
0.000121798
0.000102932
9.24479e-05
8.78187e-05
8.47974e-05
8.23333e-05
8.19155e-05
8.22676e-05
8.34768e-05
8.67036e-05
9.64005e-05
0.00010396
0.000105154
0.000103346
9.40432e-05
7.52005e-05
6.85619e-05
6.92955e-05
7.69187e-05
9.71527e-05
0.000110279
0.00011267
0.000111356
0.000108088
0.000103961
0.000100049
9.66318e-05
9.48308e-05
9.35081e-05
9.28664e-05
9.25139e-05
9.16378e-05
9.06562e-05
8.72573e-05
8.12212e-05
7.49348e-05
6.88274e-05
6.55758e-05
6.24882e-05
5.44208e-05
4.66481e-05
4.28865e-05
4.01358e-05
3.74374e-05
3.50612e-05
3.35416e-05
3.25203e-05
3.15704e-05
3.14593e-05
3.16855e-05
3.34706e-05
3.40204e-05
3.39383e-05
3.41475e-05
3.58055e-05
3.93571e-05
4.47167e-05
5.36654e-05
7.27249e-05
8.84513e-05
0.000100717
0.000101061
0.000101714
9.88116e-05
9.69886e-05
0.000100236
0.000107061
0.000112837
0.000112361
0.00011042
0.000108528
0.000110354
0.000121009
0.000123155
0.000118472
9.27725e-05
7.33598e-05
6.41418e-05
6.1324e-05
5.93042e-05
5.87684e-05
5.7958e-05
5.57135e-05
5.58259e-05
5.50015e-05
5.45835e-05
5.74582e-05
7.24384e-05
8.34885e-05
8.67609e-05
8.91857e-05
8.92601e-05
8.3329e-05
8.08311e-05
7.30708e-05
6.82667e-05
6.53011e-05
6.29672e-05
5.89553e-05
5.46306e-05
5.17767e-05
4.98964e-05
4.93272e-05
4.91283e-05
4.92702e-05
4.99874e-05
5.23172e-05
5.39568e-05
5.72225e-05
5.88407e-05
0.000199524
0.0001954
0.000191279
0.000186555
0.000182929
0.000176938
0.000171968
0.000167467
0.000163454
0.000161678
0.000159175
0.000156998
0.000154727
0.000152585
0.000150726
0.000149597
0.000147513
0.000145936
0.000144013
0.000142786
0.000142353
0.000141846
0.000141784
0.000141645
0.000141299
0.000140261
0.000139079
0.000136702
0.000133663
0.000130186
0.000125491
0.000120813
0.000115472
0.000109848
0.000104564
9.82405e-05
9.29168e-05
8.67662e-05
8.03942e-05
7.43976e-05
6.78262e-05
6.18927e-05
5.57806e-05
5.00851e-05
4.49041e-05
3.98162e-05
3.55659e-05
3.19594e-05
2.91281e-05
2.7097e-05
2.54921e-05
2.44596e-05
2.35599e-05
2.27148e-05
2.21789e-05
2.18909e-05
2.18754e-05
2.18829e-05
2.19681e-05
2.21609e-05
2.2209e-05
2.27328e-05
2.28406e-05
2.29067e-05
2.28319e-05
2.25017e-05
2.23267e-05
2.15551e-05
2.07317e-05
1.98781e-05
1.75277e-05
1.66775e-05
1.51133e-05
1.33646e-05
1.32409e-05
1.24209e-05
1.24562e-05
1.34975e-05
1.42483e-05
1.6465e-05
2.1788e-05
2.91626e-05
4.26593e-05
7.28599e-05
0.000141923
0.000190153
0.000209723
0.00020884
0.000181596
0.000140621
0.000112963
9.6607e-05
8.85066e-05
8.56076e-05
8.37247e-05
8.14142e-05
8.04516e-05
8.06155e-05
8.11741e-05
8.239e-05
8.58236e-05
9.58646e-05
0.000102037
0.000102163
9.89939e-05
8.41402e-05
7.07048e-05
6.71079e-05
6.87178e-05
7.65994e-05
9.36688e-05
0.000105947
0.000108716
0.000107773
0.000105636
0.000102899
0.000100551
9.86053e-05
9.61849e-05
9.51244e-05
9.39823e-05
9.24713e-05
9.02239e-05
8.18545e-05
7.51167e-05
7.16898e-05
6.69183e-05
6.01989e-05
5.42511e-05
4.81002e-05
4.31561e-05
4.14556e-05
3.95571e-05
3.70633e-05
3.49769e-05
3.42036e-05
3.3858e-05
3.37413e-05
3.37522e-05
3.44811e-05
3.59015e-05
3.6779e-05
3.68745e-05
3.76433e-05
4.08342e-05
4.52691e-05
5.22395e-05
6.06797e-05
7.98422e-05
9.24853e-05
9.92539e-05
9.95027e-05
9.59292e-05
9.492e-05
9.56278e-05
0.000103531
0.000109888
0.000114667
0.000114046
0.000115725
0.000114769
0.000116816
0.00012299
0.000124782
0.000122584
9.93207e-05
7.45714e-05
6.28887e-05
5.95847e-05
5.87472e-05
5.83905e-05
5.87093e-05
5.77309e-05
5.63275e-05
5.66654e-05
5.63091e-05
6.1009e-05
7.60863e-05
8.56666e-05
8.7217e-05
8.54845e-05
8.6131e-05
7.89341e-05
7.52855e-05
6.84e-05
6.6115e-05
6.33324e-05
6.0082e-05
5.68665e-05
5.33768e-05
5.13255e-05
5.00885e-05
4.9756e-05
4.94844e-05
4.95943e-05
5.13194e-05
5.37477e-05
5.48498e-05
5.61719e-05
5.71572e-05
0.000104854
0.000104153
0.000102526
0.000101161
9.9937e-05
9.78624e-05
9.53626e-05
9.26878e-05
9.08338e-05
8.99983e-05
8.99586e-05
9.01418e-05
9.01744e-05
8.95946e-05
8.87291e-05
8.84082e-05
8.81265e-05
8.79921e-05
8.72877e-05
8.60067e-05
8.5332e-05
8.49123e-05
8.47883e-05
8.49058e-05
8.49205e-05
8.47974e-05
8.44236e-05
8.35646e-05
8.20173e-05
7.99335e-05
7.6346e-05
7.21124e-05
6.73006e-05
6.22678e-05
5.78779e-05
5.31227e-05
4.92721e-05
4.55763e-05
4.1958e-05
3.86848e-05
3.54344e-05
3.23785e-05
2.92414e-05
2.62895e-05
2.34747e-05
2.07923e-05
1.85161e-05
1.65838e-05
1.51437e-05
1.4082e-05
1.33894e-05
1.29803e-05
1.26084e-05
1.22994e-05
1.19763e-05
1.18423e-05
1.18215e-05
1.1808e-05
1.18796e-05
1.19238e-05
1.20282e-05
1.24541e-05
1.25463e-05
1.27815e-05
1.27077e-05
1.27047e-05
1.26252e-05
1.21274e-05
1.19129e-05
1.13129e-05
1.08518e-05
1.07412e-05
1.03742e-05
1.07125e-05
1.11029e-05
1.13804e-05
1.26233e-05
1.42686e-05
1.6854e-05
2.40931e-05
3.25407e-05
4.18899e-05
6.00417e-05
0.000105062
0.000172748
0.000208708
0.000220621
0.000213765
0.000172719
0.000131524
0.000105601
9.24702e-05
8.66714e-05
8.47306e-05
8.35164e-05
8.14772e-05
8.00454e-05
7.99734e-05
8.06122e-05
8.1156e-05
8.24652e-05
8.74206e-05
9.67759e-05
9.99041e-05
9.88693e-05
9.25908e-05
7.54561e-05
6.7792e-05
6.64807e-05
6.83686e-05
7.47748e-05
8.82173e-05
9.90586e-05
0.000103711
0.000103574
0.000102527
0.000100874
9.87461e-05
9.67897e-05
9.57083e-05
9.27054e-05
8.90757e-05
8.28383e-05
7.48229e-05
7.15043e-05
6.74466e-05
5.86076e-05
5.26507e-05
4.97887e-05
4.48193e-05
4.14478e-05
4.03695e-05
3.89653e-05
3.71375e-05
3.64477e-05
3.65896e-05
3.67308e-05
3.67945e-05
3.68907e-05
3.76316e-05
4.00184e-05
4.1435e-05
4.16602e-05
4.27141e-05
4.65682e-05
5.25021e-05
5.73894e-05
6.99864e-05
8.42669e-05
9.38114e-05
9.53999e-05
9.68621e-05
9.40341e-05
9.39616e-05
9.47508e-05
0.000102024
0.000112062
0.00011575
0.000116452
0.000118741
0.000118258
0.000126054
0.000128389
0.000127363
0.000123424
0.000101846
7.53724e-05
6.08321e-05
5.65208e-05
5.64931e-05
5.79394e-05
5.886e-05
5.81746e-05
5.71055e-05
5.75623e-05
5.7288e-05
6.7877e-05
8.10898e-05
8.6295e-05
8.72304e-05
8.10586e-05
8.07401e-05
7.43217e-05
6.86759e-05
6.38913e-05
6.15291e-05
5.97581e-05
5.66182e-05
5.49587e-05
5.26373e-05
5.11039e-05
5.02515e-05
5.00922e-05
5.0613e-05
5.24877e-05
5.46649e-05
5.60037e-05
5.6051e-05
5.62392e-05
5.67666e-05
4.37575e-05
4.33057e-05
4.20667e-05
4.15421e-05
4.10709e-05
4.04191e-05
3.94928e-05
3.88554e-05
3.87515e-05
3.87539e-05
3.93363e-05
4.02499e-05
4.07289e-05
4.08842e-05
4.07005e-05
4.06208e-05
4.06324e-05
4.06098e-05
4.02664e-05
3.92448e-05
3.86234e-05
3.8454e-05
3.82756e-05
3.83319e-05
3.92767e-05
4.03466e-05
4.05735e-05
4.04934e-05
4.00739e-05
3.9315e-05
3.74481e-05
3.46138e-05
3.16125e-05
2.85846e-05
2.61008e-05
2.36237e-05
2.16732e-05
2.00773e-05
1.8611e-05
1.73358e-05
1.61025e-05
1.48204e-05
1.34802e-05
1.2146e-05
1.08981e-05
9.78608e-06
8.88614e-06
8.17642e-06
7.63506e-06
7.31735e-06
7.2015e-06
7.20005e-06
7.20725e-06
7.19168e-06
7.11039e-06
7.04063e-06
6.93568e-06
6.89475e-06
6.87053e-06
6.84959e-06
6.89899e-06
6.9456e-06
7.07277e-06
7.20804e-06
7.25773e-06
7.48837e-06
7.4905e-06
7.61482e-06
7.79709e-06
7.94382e-06
8.63826e-06
8.9902e-06
9.46256e-06
1.06539e-05
1.14033e-05
1.29089e-05
1.67874e-05
1.99404e-05
2.51105e-05
3.81336e-05
4.63568e-05
5.76323e-05
8.13029e-05
0.000143857
0.00019608
0.000222612
0.00022797
0.000215338
0.000167294
0.000125662
0.000101413
9.05435e-05
8.61062e-05
8.44663e-05
8.40206e-05
8.30022e-05
8.0974e-05
8.01702e-05
8.02335e-05
8.06276e-05
8.13969e-05
8.34602e-05
9.09823e-05
9.73722e-05
9.78964e-05
9.53905e-05
8.37216e-05
7.03589e-05
6.57475e-05
6.57335e-05
6.74271e-05
7.36224e-05
8.2202e-05
9.06029e-05
9.52781e-05
9.71582e-05
9.6948e-05
9.58417e-05
9.37364e-05
9.11033e-05
8.45745e-05
8.00463e-05
7.43811e-05
7.03871e-05
6.64348e-05
5.98056e-05
5.29696e-05
4.86202e-05
4.53849e-05
4.21741e-05
4.08112e-05
4.03195e-05
3.90606e-05
3.81566e-05
3.80488e-05
3.84377e-05
3.92472e-05
3.95554e-05
4.00655e-05
4.12492e-05
4.53582e-05
4.71722e-05
4.77426e-05
4.87624e-05
5.31589e-05
5.87053e-05
6.29369e-05
7.93374e-05
8.65834e-05
9.15236e-05
9.26881e-05
9.50446e-05
9.38015e-05
9.40457e-05
9.73335e-05
0.00010442
0.000121794
0.000122904
0.000124838
0.000123745
0.00012141
0.000127418
0.000133411
0.000131059
0.000118828
9.48184e-05
7.28124e-05
5.84589e-05
5.46069e-05
5.53052e-05
5.7268e-05
5.88081e-05
6.0389e-05
5.89119e-05
5.81582e-05
5.9277e-05
7.56357e-05
8.42785e-05
8.55961e-05
8.73896e-05
8.01928e-05
7.53778e-05
6.94143e-05
6.33655e-05
6.05152e-05
5.74155e-05
5.63654e-05
5.40826e-05
5.31728e-05
5.24096e-05
5.14341e-05
5.14137e-05
5.3153e-05
5.63904e-05
5.75969e-05
5.80184e-05
5.80259e-05
5.66947e-05
5.62879e-05
5.65838e-05
1.46664e-05
1.45114e-05
1.41594e-05
1.40318e-05
1.39554e-05
1.37269e-05
1.35524e-05
1.34732e-05
1.34907e-05
1.35889e-05
1.40971e-05
1.45877e-05
1.47565e-05
1.4821e-05
1.46069e-05
1.42314e-05
1.40737e-05
1.36113e-05
1.34975e-05
1.33511e-05
1.33004e-05
1.33477e-05
1.33557e-05
1.35259e-05
1.44416e-05
1.51125e-05
1.53189e-05
1.53211e-05
1.52348e-05
1.47843e-05
1.37498e-05
1.24165e-05
1.1263e-05
1.01733e-05
9.30556e-06
8.5584e-06
7.89798e-06
7.5036e-06
7.06515e-06
6.76684e-06
6.43855e-06
6.04e-06
5.7717e-06
5.55738e-06
5.50874e-06
5.47673e-06
5.47588e-06
5.50419e-06
5.54155e-06
5.63948e-06
5.81425e-06
6.01208e-06
6.10082e-06
6.13609e-06
6.13199e-06
6.10287e-06
6.00203e-06
5.9144e-06
5.78299e-06
5.77966e-06
5.782e-06
5.80044e-06
5.9272e-06
6.00492e-06
6.23416e-06
6.37005e-06
6.54811e-06
7.15637e-06
7.47527e-06
8.23126e-06
9.27853e-06
1.01787e-05
1.23565e-05
1.41528e-05
1.62088e-05
2.055e-05
2.54644e-05
3.05219e-05
4.11712e-05
5.56549e-05
6.36135e-05
7.76085e-05
0.000115521
0.000178867
0.000208654
0.000229999
0.000232329
0.000216852
0.000165686
0.000123153
9.95052e-05
8.99149e-05
8.6376e-05
8.52416e-05
8.49009e-05
8.46272e-05
8.30199e-05
8.0769e-05
8.04977e-05
8.06417e-05
8.10741e-05
8.22477e-05
8.65633e-05
9.42235e-05
9.65672e-05
9.58018e-05
9.07318e-05
7.54008e-05
6.71673e-05
6.45957e-05
6.4645e-05
6.65583e-05
7.06158e-05
7.76002e-05
8.19453e-05
8.48509e-05
8.53201e-05
8.47664e-05
8.30175e-05
8.01642e-05
7.46113e-05
7.15877e-05
6.73353e-05
6.34665e-05
5.89819e-05
5.29651e-05
4.8458e-05
4.58499e-05
4.34956e-05
4.15284e-05
4.08258e-05
4.05987e-05
4.04128e-05
4.04512e-05
4.06684e-05
4.17788e-05
4.25947e-05
4.30638e-05
4.41282e-05
4.81562e-05
5.31171e-05
5.42907e-05
5.4784e-05
5.56641e-05
6.02148e-05
6.42784e-05
7.15357e-05
8.62066e-05
8.89885e-05
8.92828e-05
9.21456e-05
9.46424e-05
9.52313e-05
9.78524e-05
0.000104559
0.000124464
0.000140264
0.000140987
0.000138244
0.000132509
0.000126137
0.000128922
0.000138583
0.000133996
0.000107779
8.29282e-05
6.63558e-05
5.69053e-05
5.43163e-05
5.48824e-05
5.73591e-05
5.99691e-05
6.04937e-05
5.92279e-05
5.96544e-05
6.38425e-05
7.7806e-05
8.84629e-05
8.63421e-05
8.70544e-05
7.97857e-05
7.05467e-05
6.52543e-05
5.87482e-05
5.72611e-05
5.4528e-05
5.43571e-05
5.33307e-05
5.27214e-05
5.34419e-05
5.53674e-05
5.81068e-05
5.9111e-05
6.03791e-05
6.03921e-05
6.00176e-05
5.87122e-05
5.65623e-05
5.56795e-05
5.59287e-05
4.27042e-06
4.3017e-06
4.33877e-06
4.32719e-06
4.30293e-06
4.24889e-06
4.21708e-06
4.20393e-06
4.20954e-06
4.27533e-06
4.44505e-06
4.6103e-06
4.63199e-06
4.56801e-06
4.38704e-06
4.22301e-06
4.19562e-06
4.15362e-06
4.16426e-06
4.17227e-06
4.12777e-06
4.11419e-06
4.09396e-06
4.071e-06
4.17954e-06
4.42698e-06
4.55455e-06
4.61607e-06
4.62061e-06
4.57338e-06
4.38202e-06
4.13124e-06
3.91724e-06
3.70838e-06
3.5846e-06
3.56274e-06
3.57103e-06
3.62491e-06
3.72742e-06
3.92447e-06
4.03441e-06
4.18589e-06
4.36019e-06
4.70105e-06
5.18341e-06
5.53216e-06
5.75893e-06
6.06661e-06
6.58079e-06
7.26986e-06
7.9099e-06
8.13228e-06
8.16969e-06
8.15264e-06
8.07259e-06
7.7987e-06
7.53506e-06
7.14865e-06
6.9925e-06
6.98057e-06
6.98144e-06
7.15457e-06
7.28136e-06
7.4839e-06
7.93127e-06
8.2067e-06
8.95447e-06
9.65638e-06
1.05393e-05
1.26414e-05
1.396e-05
1.62718e-05
1.99384e-05
2.2316e-05
2.58629e-05
3.29441e-05
3.9266e-05
4.74707e-05
6.59964e-05
7.97466e-05
8.84714e-05
0.000103766
0.000158836
0.000194758
0.00021477
0.000232708
0.000236093
0.000223783
0.00016909
0.000122621
9.89248e-05
9.00354e-05
8.77131e-05
8.6856e-05
8.62236e-05
8.56871e-05
8.4283e-05
8.21088e-05
8.09802e-05
8.08586e-05
8.13219e-05
8.25496e-05
8.53592e-05
9.2303e-05
9.55597e-05
9.55911e-05
9.32882e-05
8.28353e-05
7.08533e-05
6.54062e-05
6.41717e-05
6.44781e-05
6.54278e-05
6.86456e-05
7.12481e-05
7.44634e-05
7.5147e-05
7.47033e-05
7.35796e-05
7.09459e-05
6.72735e-05
6.45374e-05
6.08638e-05
5.73213e-05
5.2859e-05
4.85263e-05
4.64337e-05
4.48772e-05
4.27348e-05
4.19832e-05
4.21623e-05
4.27768e-05
4.28622e-05
4.30272e-05
4.38358e-05
4.53677e-05
4.58328e-05
4.68794e-05
5.02424e-05
5.92226e-05
6.33931e-05
6.34265e-05
6.31529e-05
6.51349e-05
7.35289e-05
7.76491e-05
8.58904e-05
8.99537e-05
8.86183e-05
8.85566e-05
9.15115e-05
9.58526e-05
9.83749e-05
0.000107458
0.000116574
0.000150668
0.000153316
0.000147444
0.00014129
0.000136557
0.000130394
0.000134491
0.000150544
0.000137658
9.22155e-05
6.77819e-05
5.89972e-05
5.42822e-05
5.38758e-05
5.57281e-05
5.94451e-05
5.97645e-05
5.96573e-05
6.0441e-05
6.39319e-05
7.32034e-05
8.03113e-05
9.21201e-05
8.79759e-05
8.58174e-05
7.77747e-05
6.59413e-05
6.2206e-05
5.61767e-05
5.52423e-05
5.36368e-05
5.36728e-05
5.43195e-05
5.47922e-05
5.73715e-05
5.95247e-05
6.12668e-05
6.09504e-05
6.10401e-05
6.0876e-05
6.02206e-05
5.78704e-05
5.56446e-05
5.48166e-05
5.54146e-05
2.38345e-06
2.39715e-06
2.4292e-06
2.47731e-06
2.51029e-06
2.52444e-06
2.55717e-06
2.57587e-06
2.5946e-06
2.61172e-06
2.63617e-06
2.65382e-06
2.65977e-06
2.65813e-06
2.64985e-06
2.62207e-06
2.61238e-06
2.61143e-06
2.61903e-06
2.62759e-06
2.62125e-06
2.58332e-06
2.55358e-06
2.52696e-06
2.51846e-06
2.52525e-06
2.55725e-06
2.69137e-06
2.8023e-06
2.89996e-06
2.94251e-06
3.01556e-06
3.05771e-06
3.12711e-06
3.29651e-06
3.44433e-06
3.85103e-06
4.25097e-06
4.69593e-06
5.46507e-06
5.91111e-06
6.43297e-06
7.48714e-06
8.41381e-06
9.69189e-06
1.05e-05
1.10035e-05
1.15026e-05
1.22944e-05
1.34705e-05
1.4437e-05
1.47787e-05
1.48366e-05
1.48021e-05
1.45489e-05
1.39764e-05
1.31222e-05
1.24543e-05
1.20414e-05
1.19001e-05
1.1957e-05
1.21122e-05
1.24013e-05
1.29945e-05
1.33533e-05
1.39904e-05
1.51105e-05
1.60653e-05
1.8311e-05
2.02935e-05
2.24182e-05
2.6927e-05
3.11153e-05
3.47939e-05
4.16854e-05
5.1302e-05
6.12142e-05
7.73591e-05
0.000101781
0.000112402
0.000118903
0.000133636
0.0001851
0.000202916
0.000217173
0.000230802
0.000239346
0.000230148
0.000177429
0.000125474
0.000100386
9.13774e-05
8.84341e-05
8.79876e-05
8.76461e-05
8.7148e-05
8.56568e-05
8.29643e-05
8.16282e-05
8.15712e-05
8.22527e-05
8.3541e-05
8.61334e-05
9.22576e-05
9.53315e-05
9.57157e-05
9.48404e-05
8.96179e-05
7.60251e-05
6.77858e-05
6.4707e-05
6.37255e-05
6.38836e-05
6.50402e-05
6.57081e-05
6.71711e-05
6.76183e-05
6.72297e-05
6.62526e-05
6.3801e-05
6.13218e-05
5.84983e-05
5.58026e-05
5.30571e-05
4.94356e-05
4.70009e-05
4.57988e-05
4.4547e-05
4.39385e-05
4.40854e-05
4.52035e-05
4.54577e-05
4.54756e-05
4.5701e-05
4.74688e-05
4.84532e-05
4.93035e-05
5.23987e-05
6.32322e-05
7.03088e-05
7.04662e-05
6.98574e-05
7.05705e-05
7.75788e-05
8.21862e-05
8.27271e-05
8.61421e-05
8.99662e-05
8.79097e-05
8.9164e-05
9.18983e-05
9.99402e-05
0.00010467
0.000115235
0.000129982
0.000163946
0.000158354
0.000145604
0.000140199
0.000135822
0.000137515
0.000151217
0.000158024
0.00013325
7.36867e-05
5.53098e-05
5.30061e-05
5.28378e-05
5.41842e-05
6.08831e-05
5.96953e-05
5.91448e-05
6.03545e-05
6.15187e-05
6.56653e-05
8.7658e-05
8.74511e-05
9.30277e-05
8.99108e-05
8.12253e-05
7.31878e-05
6.23618e-05
5.94987e-05
5.58028e-05
5.49978e-05
5.43593e-05
5.51014e-05
5.88206e-05
5.90406e-05
5.95671e-05
5.99781e-05
6.08132e-05
6.02208e-05
5.9785e-05
5.95695e-05
5.89558e-05
5.64118e-05
5.46946e-05
5.4227e-05
5.50576e-05
2.38604e-06
2.40219e-06
2.45807e-06
2.51097e-06
2.51825e-06
2.52776e-06
2.57819e-06
2.62286e-06
2.643e-06
2.64528e-06
2.62559e-06
2.61458e-06
2.60744e-06
2.61881e-06
2.64891e-06
2.66279e-06
2.67274e-06
2.6676e-06
2.6712e-06
2.6852e-06
2.76686e-06
2.81826e-06
2.84232e-06
2.85894e-06
2.86675e-06
2.88625e-06
2.91209e-06
3.02933e-06
3.25125e-06
3.84319e-06
4.18439e-06
4.83059e-06
5.244e-06
5.85848e-06
6.80051e-06
7.35648e-06
8.68847e-06
9.71881e-06
1.0747e-05
1.21235e-05
1.29128e-05
1.42395e-05
1.62995e-05
1.79393e-05
2.00976e-05
2.09795e-05
2.18838e-05
2.23973e-05
2.33171e-05
2.45446e-05
2.53019e-05