/*--------------------------------*- C++ -*----------------------------------*\
| =========                 |                                                 |
| \\      /  F ield         | OpenFOAM: The Open Source CFD Toolbox           |
|  \\    /   O peration     | Version:  2.4.0                                 |
|   \\  /    A nd           | Web:      www.OpenFOAM.org                      |
|    \\/     M anipulation  |                                                 |
\*---------------------------------------------------------------------------*/
FoamFile
{
    version     2.0;
    format      ascii;
    class       surfaceScalarField;
    location    "1.69";
    object      phi;
}
// * * * * * * * * * * * * * * * * * * * * * * * * * * * * * * * * * * * * * //

dimensions      [0 3 -1 0 0 0 0];

internalField   nonuniform List<scalar> 
17320
(
1.76395e-05
7.36053e-06
1.16178e-05
6.0217e-06
8.6809e-06
2.93688e-06
7.35677e-06
1.32413e-06
6.71679e-06
6.39975e-07
6.3468e-06
3.69995e-07
6.07423e-06
2.72567e-07
5.86933e-06
2.04901e-07
5.71331e-06
1.56016e-07
5.57622e-06
1.37099e-07
5.47688e-06
9.93358e-08
5.39777e-06
7.9113e-08
5.29111e-06
1.06656e-07
5.23028e-06
6.08276e-08
5.12729e-06
1.02991e-07
5.07302e-06
5.42711e-08
4.95501e-06
1.18006e-07
4.96446e-06
-9.44248e-09
4.73723e-06
2.27227e-07
-4.38493e-07
5.17572e-06
2.54655e-05
6.89504e-06
2.32463e-05
8.24087e-06
2.09905e-05
5.19268e-06
1.93189e-05
2.99577e-06
1.80757e-05
1.88311e-06
1.71165e-05
1.32927e-06
1.6362e-05
1.02699e-06
1.57752e-05
7.91756e-07
1.53125e-05
6.1867e-07
1.49292e-05
5.2041e-07
1.46328e-05
3.95767e-07
1.43825e-05
3.29403e-07
1.41328e-05
3.56325e-07
1.39467e-05
2.47005e-07
1.37163e-05
3.33378e-07
1.35625e-05
2.08047e-07
1.33095e-05
3.71029e-07
1.32546e-05
4.53821e-08
1.30805e-05
4.01389e-07
-5.15509e-07
1.31575e-05
2.66272e-05
5.26783e-06
2.71503e-05
7.71778e-06
2.67847e-05
5.55828e-06
2.62481e-05
3.53242e-06
2.56066e-05
2.52451e-06
2.48774e-05
2.05849e-06
2.41565e-05
1.74792e-06
2.35073e-05
1.44094e-06
2.29365e-05
1.18952e-06
2.24422e-05
1.01472e-06
2.20354e-05
8.02532e-07
2.16798e-05
6.84994e-07
2.1348e-05
6.88151e-07
2.10771e-05
5.17859e-07
2.0784e-05
6.26455e-07
2.05519e-05
4.40223e-07
2.02457e-05
6.7718e-07
2.01202e-05
1.70889e-07
2.00257e-05
4.95933e-07
-8.46766e-07
2.03569e-05
2.63341e-05
3.9337e-06
2.75319e-05
6.52001e-06
2.80903e-05
4.99984e-06
2.84487e-05
3.17409e-06
2.86475e-05
2.32568e-06
2.86334e-05
2.07264e-06
2.84686e-05
1.91267e-06
2.82437e-05
1.66589e-06
2.79699e-05
1.46323e-06
2.769e-05
1.29462e-06
2.74335e-05
1.05903e-06
2.71656e-05
9.52986e-07
2.69188e-05
9.34916e-07
2.66637e-05
7.72976e-07
2.64328e-05
8.57376e-07
2.61903e-05
6.82681e-07
2.59118e-05
9.55701e-07
2.56762e-05
4.06421e-07
2.55226e-05
6.49612e-07
-2.90511e-07
2.49663e-05
2.60466e-05
2.88712e-06
2.72386e-05
5.32797e-06
2.80523e-05
4.18613e-06
2.84957e-05
2.73068e-06
2.89658e-05
1.85563e-06
2.93403e-05
1.69818e-06
2.95829e-05
1.66998e-06
2.97381e-05
1.51069e-06
2.98554e-05
1.34592e-06
2.99131e-05
1.23695e-06
2.99593e-05
1.01288e-06
2.99441e-05
9.6811e-07
2.99824e-05
8.96653e-07
2.98928e-05
8.62603e-07
2.98888e-05
8.61391e-07
2.98007e-05
7.70741e-07
2.96882e-05
1.06816e-06
2.94086e-05
6.8605e-07
2.93598e-05
6.98395e-07
4.12726e-07
2.86566e-05
2.58441e-05
2.04301e-06
2.69311e-05
4.24094e-06
2.78219e-05
3.2954e-06
2.82441e-05
2.30846e-06
2.86872e-05
1.4125e-06
2.90867e-05
1.29864e-06
2.94714e-05
1.28532e-06
2.96916e-05
1.29051e-06
3.00203e-05
1.01723e-06
3.01828e-05
1.07446e-06
3.03987e-05
7.9699e-07
3.04847e-05
8.82095e-07
3.07784e-05
6.0298e-07
3.07716e-05
8.69389e-07
3.10276e-05
6.05387e-07
3.10125e-05
7.85809e-07
3.12017e-05
8.78945e-07
3.09345e-05
9.53284e-07
3.10268e-05
6.06116e-07
1.28283e-06
3.01567e-05
2.56854e-05
1.3576e-06
2.67221e-05
3.20429e-06
2.76259e-05
2.39159e-06
2.8044e-05
1.89038e-06
2.84553e-05
1.00111e-06
2.88496e-05
9.04357e-07
2.92582e-05
8.7673e-07
2.94073e-05
1.1414e-06
2.98004e-05
6.24156e-07
2.99762e-05
8.98675e-07
3.02755e-05
4.977e-07
3.03639e-05
7.93678e-07
3.06694e-05
2.97483e-07
3.06703e-05
8.68503e-07
3.10459e-05
2.29756e-07
3.10136e-05
8.18138e-07
3.1407e-05
4.85551e-07
3.11546e-05
1.20561e-06
3.09464e-05
8.1432e-07
2.23661e-06
2.99927e-05
2.55184e-05
8.39219e-07
2.6564e-05
2.15867e-06
2.74575e-05
1.49812e-06
2.79556e-05
1.39221e-06
2.8369e-05
5.87773e-07
2.87017e-05
5.71638e-07
2.89962e-05
5.8223e-07
2.92779e-05
8.59724e-07
2.96088e-05
2.93216e-07
2.98784e-05
6.29053e-07
3.00493e-05
3.2687e-07
3.02527e-05
5.90253e-07
3.04397e-05
1.10504e-07
3.06518e-05
6.56406e-07
3.07463e-05
1.35216e-07
3.10124e-05
5.51998e-07
3.11344e-05
3.63617e-07
3.14223e-05
9.17737e-07
3.17221e-05
5.14523e-07
9.85111e-07
3.29736e-05
2.54641e-05
3.75109e-07
2.64642e-05
1.15862e-06
2.7353e-05
6.09325e-07
2.79384e-05
8.06817e-07
2.82265e-05
2.99597e-07
2.85576e-05
2.40571e-07
2.88809e-05
2.58974e-07
2.92865e-05
4.54084e-07
2.94593e-05
1.20411e-07
2.96777e-05
4.10671e-07
2.99214e-05
8.31938e-08
3.02109e-05
3.00742e-07
3.03017e-05
1.9648e-08
3.05166e-05
4.41578e-07
3.05975e-05
5.42196e-08
3.09854e-05
1.64116e-07
3.10778e-05
2.71215e-07
3.13888e-05
6.06812e-07
3.16467e-05
2.5663e-07
3.51011e-07
3.22808e-05
2.53757e-05
-5.41982e-10
2.64743e-05
5.99401e-08
2.72905e-05
-2.06847e-07
2.78822e-05
2.1515e-07
2.82253e-05
-4.35268e-08
2.84796e-05
-1.37645e-08
2.88434e-05
-1.04812e-07
2.9225e-05
7.24894e-08
2.93818e-05
-3.63708e-08
2.96656e-05
1.26848e-07
2.99247e-05
-1.75917e-07
3.01236e-05
1.01857e-07
3.01803e-05
-3.70875e-08
3.0475e-05
1.46897e-07
3.06993e-05
-1.70022e-07
3.08438e-05
1.95961e-08
3.10265e-05
8.84611e-08
3.14408e-05
1.92505e-07
3.16359e-05
6.16138e-08
2.01436e-07
3.17854e-05
2.54427e-05
-4.43288e-07
2.64508e-05
-9.48153e-07
2.72196e-05
-9.75636e-07
2.79175e-05
-4.82749e-07
2.82458e-05
-3.71815e-07
2.84916e-05
-2.59541e-07
2.87549e-05
-3.68144e-07
2.92222e-05
-3.94742e-07
2.94398e-05
-2.54053e-07
2.97006e-05
-1.33948e-07
2.98313e-05
-3.06576e-07
3.00723e-05
-1.39188e-07
3.02253e-05
-1.90024e-07
3.05618e-05
-1.89614e-07
3.06066e-05
-2.14846e-07
3.07909e-05
-1.64713e-07
3.10939e-05
-2.14496e-07
3.14313e-05
-1.44916e-07
3.15759e-05
-8.29769e-08
-7.47265e-08
3.18521e-05
2.54824e-05
-9.25669e-07
2.64974e-05
-1.9632e-06
2.72638e-05
-1.74203e-06
2.79382e-05
-1.15716e-06
2.82735e-05
-7.07031e-07
2.85813e-05
-5.67414e-07
2.8881e-05
-6.67782e-07
2.92158e-05
-7.29536e-07
2.94261e-05
-4.64361e-07
2.97595e-05
-4.67343e-07
2.99343e-05
-4.81416e-07
3.01423e-05
-3.47238e-07
3.03539e-05
-4.01552e-07
3.0544e-05
-3.79743e-07
3.06433e-05
-3.14176e-07
3.0926e-05
-4.47373e-07
3.11352e-05
-4.23652e-07
3.14048e-05
-4.14534e-07
3.16987e-05
-3.76942e-07
-1.87372e-07
3.18114e-05
2.55493e-05
-1.47498e-06
2.65949e-05
-3.00883e-06
2.74227e-05
-2.56984e-06
2.80048e-05
-1.73919e-06
2.83069e-05
-1.0091e-06
2.87194e-05
-9.79991e-07
2.9013e-05
-9.61363e-07
2.92831e-05
-9.99647e-07
2.95371e-05
-7.1836e-07
2.98818e-05
-8.12002e-07
3.00513e-05
-6.50918e-07
3.02626e-05
-5.586e-07
3.03797e-05
-5.18563e-07
3.0639e-05
-6.39109e-07
3.08291e-05
-5.04223e-07
3.10299e-05
-6.48228e-07
3.11931e-05
-5.86862e-07
3.15421e-05
-7.63533e-07
3.17526e-05
-5.87431e-07
-4.60393e-07
3.20256e-05
2.56676e-05
-2.14259e-06
2.67377e-05
-4.07889e-06
2.75879e-05
-3.42008e-06
2.80844e-05
-2.23565e-06
2.84856e-05
-1.41032e-06
2.88429e-05
-1.33733e-06
2.91645e-05
-1.28292e-06
2.94983e-05
-1.33348e-06
2.97576e-05
-9.77624e-07
3.00161e-05
-1.07053e-06
3.01963e-05
-8.31139e-07
3.04199e-05
-7.82158e-07
3.05795e-05
-6.78231e-07
3.08208e-05
-8.804e-07
3.09423e-05
-6.25721e-07
3.11672e-05
-8.73145e-07
3.13526e-05
-7.72173e-07
3.16531e-05
-1.06407e-06
3.19263e-05
-8.60599e-07
-8.14631e-07
3.22805e-05
2.58378e-05
-2.98038e-06
2.69532e-05
-5.19426e-06
2.78017e-05
-4.26862e-06
2.82486e-05
-2.68257e-06
2.87125e-05
-1.87421e-06
2.90999e-05
-1.72474e-06
2.94458e-05
-1.62878e-06
2.97019e-05
-1.58954e-06
2.99658e-05
-1.24154e-06
3.01842e-05
-1.28894e-06
3.03849e-05
-1.03183e-06
3.05514e-05
-9.48689e-07
3.07156e-05
-8.42374e-07
3.0848e-05
-1.01287e-06
3.09522e-05
-7.29922e-07
3.10959e-05
-1.01685e-06
3.12019e-05
-8.78098e-07
3.14214e-05
-1.28358e-06
3.159e-05
-1.0292e-06
-1.12949e-06
3.19048e-05
2.60287e-05
-4.0091e-06
2.72435e-05
-6.40902e-06
2.80406e-05
-5.06572e-06
2.85088e-05
-3.15079e-06
2.89696e-05
-2.335e-06
2.93203e-05
-2.07548e-06
2.95831e-05
-1.89151e-06
2.97129e-05
-1.71934e-06
2.98598e-05
-1.38848e-06
2.99039e-05
-1.33301e-06
2.9955e-05
-1.08297e-06
2.9955e-05
-9.48695e-07
2.99636e-05
-8.50942e-07
2.99021e-05
-9.51392e-07
2.98731e-05
-7.00896e-07
2.97903e-05
-9.34054e-07
2.9716e-05
-8.03871e-07
2.96519e-05
-1.21942e-06
2.95919e-05
-9.69225e-07
-1.25795e-06
2.97204e-05
2.63047e-05
-5.31377e-06
2.75507e-05
-7.65501e-06
2.80759e-05
-5.59091e-06
2.84492e-05
-3.52415e-06
2.86359e-05
-2.52169e-06
2.8625e-05
-2.06457e-06
2.84697e-05
-1.73628e-06
2.82186e-05
-1.46823e-06
2.79813e-05
-1.15117e-06
2.76822e-05
-1.03384e-06
2.74217e-05
-8.22482e-07
2.71632e-05
-6.90181e-07
2.69194e-05
-6.07227e-07
2.66403e-05
-6.72295e-07
2.64319e-05
-4.92437e-07
2.61513e-05
-6.5349e-07
2.59178e-05
-5.70372e-07
2.55905e-05
-8.92146e-07
2.53798e-05
-7.58463e-07
-1.16843e-06
2.52903e-05
2.66043e-05
-6.91805e-06
2.7164e-05
-8.21475e-06
2.67734e-05
-5.20025e-06
2.62462e-05
-2.99698e-06
2.55999e-05
-1.87542e-06
2.48746e-05
-1.33927e-06
2.41538e-05
-1.01544e-06
2.34959e-05
-8.10357e-07
2.29425e-05
-5.97708e-07
2.24359e-05
-5.27326e-07
2.2024e-05
-4.10527e-07
2.16719e-05
-3.38067e-07
2.13576e-05
-2.92998e-07
2.10389e-05
-3.53509e-07
2.07942e-05
-2.47758e-07
2.04879e-05
-3.4717e-07
2.02294e-05
-3.11894e-07
1.9824e-05
-4.86793e-07
1.94897e-05
-4.24174e-07
-3.69447e-07
1.86908e-05
2.54497e-05
-7.36779e-06
2.32499e-05
-6.0149e-06
2.09845e-05
-2.93485e-06
1.9316e-05
-1.32845e-06
1.80755e-05
-6.34939e-07
1.71126e-05
-3.76377e-07
1.63623e-05
-2.65159e-07
1.57674e-05
-2.1541e-07
1.53156e-05
-1.45996e-07
1.49266e-05
-1.3832e-07
1.46229e-05
-1.06786e-07
1.43706e-05
-8.58167e-08
1.41493e-05
-7.16697e-08
1.39078e-05
-1.12032e-07
1.3727e-05
-6.69272e-08
1.34897e-05
-1.09846e-07
1.32748e-05
-9.69939e-08
1.29532e-05
-1.65166e-07
1.27175e-05
-1.8854e-07
-2.26907e-08
1.23708e-05
1.76322e-05
1.16173e-05
8.68246e-06
7.35401e-06
6.71907e-06
6.34269e-06
6.07753e-06
5.86212e-06
5.71613e-06
5.57781e-06
5.47102e-06
5.3852e-06
5.31353e-06
5.2015e-06
5.13458e-06
5.02473e-06
4.92774e-06
4.76257e-06
4.57403e-06
4.55134e-06
5.62378e-06
-1.89922e-07
-2.58137e-07
6.0248e-06
7.05302e-08
-4.71544e-07
6.28314e-06
1.96042e-07
-4.54384e-07
6.4976e-06
1.75076e-07
-3.89541e-07
6.71465e-06
8.21104e-08
-2.99163e-07
6.92769e-06
-1.83954e-08
-1.94637e-07
7.1246e-06
-8.46646e-08
-1.12247e-07
7.31255e-06
-1.25346e-07
-6.2601e-08
7.47035e-06
-1.20242e-07
-3.75661e-08
7.60141e-06
-9.71884e-08
-3.38642e-08
7.70841e-06
-5.50632e-08
-5.19413e-08
7.78359e-06
-4.13744e-11
-7.51425e-08
7.85039e-06
4.71722e-08
-1.13969e-07
7.8915e-06
1.01901e-07
-1.43008e-07
7.92704e-06
1.47537e-07
-1.83081e-07
7.9578e-06
2.20507e-07
-2.51268e-07
7.98945e-06
3.06855e-07
-3.38506e-07
8.05837e-06
4.40072e-07
-5.08991e-07
8.18657e-06
6.11018e-07
-7.39213e-07
8.39298e-06
8.44458e-07
-1.05087e-06
8.80019e-06
1.13231e-06
-1.53952e-06
9.36002e-06
1.36059e-06
-1.92042e-06
1.00708e-05
1.6479e-06
-2.3587e-06
1.09351e-05
1.76727e-06
-2.63151e-06
1.18118e-05
1.7629e-06
-2.63966e-06
1.26797e-05
1.70927e-06
-2.57712e-06
1.34031e-05
1.37289e-06
-2.09629e-06
1.3903e-05
9.19521e-07
-1.4194e-06
1.42087e-05
4.10676e-07
-7.16428e-07
1.42409e-05
-1.31117e-07
9.8918e-08
1.41726e-05
-5.63514e-07
6.31825e-07
1.41104e-05
-8.59823e-07
9.21976e-07
1.4053e-05
-1.01826e-06
1.07569e-06
1.41656e-05
-1.08958e-06
9.76966e-07
1.43722e-05
-1.10867e-06
9.02045e-07
1.4733e-05
-1.15664e-06
7.95929e-07
1.51942e-05
-1.18891e-06
7.27691e-07
1.56645e-05
-1.36242e-06
8.92053e-07
1.62297e-05
-1.60208e-06
1.03692e-06
1.68131e-05
-1.79685e-06
1.21345e-06
1.73888e-05
-2.16969e-06
1.59404e-06
1.79581e-05
-2.48558e-06
1.91628e-06
1.85667e-05
-2.76465e-06
2.156e-06
1.9273e-05
-3.01073e-06
2.30447e-06
1.99386e-05
-3.22399e-06
2.55832e-06
2.04702e-05
-3.54422e-06
3.01266e-06
2.08741e-05
-3.66192e-06
3.25805e-06
2.1105e-05
-3.56062e-06
3.32966e-06
2.12478e-05
-3.36937e-06
3.22662e-06
2.14096e-05
-2.89862e-06
2.73682e-06
2.16335e-05
-2.34212e-06
2.11818e-06
2.19284e-05
-1.86422e-06
1.56939e-06
2.22588e-05
-1.34686e-06
1.0164e-06
2.25592e-05
-8.33952e-07
5.33525e-07
2.2819e-05
-5.44984e-07
2.85276e-07
2.30424e-05
-3.90552e-07
1.67103e-07
2.32415e-05
-2.06964e-07
7.89705e-09
2.34439e-05
-1.50302e-07
-5.21417e-08
2.37225e-05
-3.18694e-07
4.012e-08
2.40285e-05
-3.74084e-07
6.80939e-08
2.43592e-05
-5.13332e-07
1.82589e-07
2.48138e-05
-9.52629e-07
4.98042e-07
2.51721e-05
-1.22603e-06
8.67779e-07
2.5601e-05
-1.73607e-06
1.30711e-06
2.60174e-05
-2.43585e-06
2.0195e-06
2.62902e-05
-2.98607e-06
2.71327e-06
2.66739e-05
-3.89936e-06
3.51561e-06
2.68442e-05
-4.66935e-06
4.49911e-06
2.69949e-05
-5.44222e-06
5.29145e-06
2.72722e-05
-6.42245e-06
6.14524e-06
2.74084e-05
-7.12584e-06
6.98955e-06
2.77753e-05
-8.15375e-06
7.78687e-06
2.80795e-05
-9.09905e-06
8.79487e-06
2.83638e-05
-9.78089e-06
9.4966e-06
2.8866e-05
-1.09357e-05
1.04335e-05
2.90558e-05
-1.17246e-05
1.15348e-05
2.90246e-05
-1.21545e-05
1.21857e-05
2.89872e-05
-1.30519e-05
1.30892e-05
2.84639e-05
-1.34203e-05
1.39437e-05
2.75749e-05
-1.33148e-05
1.42038e-05
2.68376e-05
-1.39373e-05
1.46746e-05
2.56658e-05
-1.41992e-05
1.5371e-05
2.41784e-05
-1.35667e-05
1.50542e-05
2.3748e-05
-1.42776e-05
1.4708e-05
2.45082e-05
-1.64863e-05
1.57262e-05
2.49869e-05
-1.76671e-05
1.71885e-05
2.45055e-05
-1.75777e-05
1.80591e-05
2.39685e-05
-1.76392e-05
1.81762e-05
2.41498e-05
-1.83726e-05
1.81913e-05
2.51557e-05
-1.92069e-05
1.8201e-05
2.64629e-05
-1.89199e-05
1.76127e-05
2.76108e-05
-1.73646e-05
1.62167e-05
2.85725e-05
-1.51624e-05
1.42007e-05
2.92093e-05
-1.20779e-05
1.1441e-05
2.95107e-05
-8.68983e-06
8.38843e-06
2.96561e-05
-5.228e-06
5.08262e-06
2.95667e-05
-1.47424e-06
1.56367e-06
2.93741e-05
2.08497e-06
-1.89236e-06
2.93193e-05
5.61231e-06
-5.5575e-06
2.93841e-05
8.97308e-06
-9.03786e-06
2.96016e-05
1.24835e-05
-1.27011e-05
2.927e-05
1.63056e-05
-1.59739e-05
2.79207e-05
1.89346e-05
-1.75853e-05
2.68333e-05
1.99254e-05
-1.88381e-05
2.65945e-05
2.12799e-05
-2.10411e-05
2.63233e-05
2.31671e-05
-2.28959e-05
2.53553e-05
2.41805e-05
-2.32125e-05
2.41377e-05
2.39346e-05
-2.2717e-05
2.34069e-05
2.30571e-05
-2.23262e-05
2.33116e-05
2.23068e-05
-2.22115e-05
2.35065e-05
2.13194e-05
-2.15142e-05
2.37744e-05
2.01266e-05
-2.03945e-05
2.38859e-05
1.83094e-05
-1.84209e-05
2.39064e-05
1.61609e-05
-1.61814e-05
2.37856e-05
1.36138e-05
-1.34931e-05
2.37211e-05
1.07626e-05
-1.06981e-05
2.36856e-05
8.31758e-06
-8.28211e-06
2.35683e-05
5.8381e-06
-5.72079e-06
2.33031e-05
3.03701e-06
-2.77185e-06
2.27364e-05
9.55513e-07
-3.88777e-07
2.20789e-05
-1.05106e-06
1.70852e-06
2.15705e-05
-2.97194e-06
3.48042e-06
2.1716e-05
-5.12666e-06
4.98117e-06
2.20978e-05
-7.43328e-06
7.05142e-06
2.25513e-05
-1.03433e-05
9.88984e-06
2.2422e-05
-1.23053e-05
1.24346e-05
2.21061e-05
-1.36121e-05
1.3928e-05
2.14218e-05
-1.45099e-05
1.51942e-05
2.05577e-05
-1.42093e-05
1.50733e-05
1.93561e-05
-1.31796e-05
1.43812e-05
1.82543e-05
-1.21358e-05
1.32376e-05
1.73365e-05
-1.14372e-05
1.2355e-05
1.65151e-05
-1.02972e-05
1.11186e-05
1.57187e-05
-9.60471e-06
1.04011e-05
1.49803e-05
-8.65836e-06
9.39685e-06
1.45537e-05
-7.91653e-06
8.34306e-06
1.4398e-05
-6.98663e-06
7.14235e-06
1.44787e-05
-6.35159e-06
6.27094e-06
1.47121e-05
-6.71619e-06
6.4828e-06
1.48334e-05
-7.12014e-06
6.99883e-06
1.47376e-05
-6.27405e-06
6.36984e-06
1.4734e-05
-4.8393e-06
4.84289e-06
1.44978e-05
-4.00121e-06
4.23737e-06
1.44599e-05
-3.76906e-06
3.80698e-06
1.44159e-05
-3.94853e-06
3.9926e-06
1.48016e-05
-4.70393e-06
4.31821e-06
1.43296e-05
-4.49595e-06
4.9679e-06
1.3833e-05
-3.68144e-06
4.1781e-06
1.38289e-05
-3.38588e-06
3.38998e-06
1.46542e-05
-5.84966e-06
5.02434e-06
1.49965e-05
-7.23267e-06
6.89035e-06
1.50119e-05
-8.5837e-06
8.5683e-06
1.49387e-05
-1.0808e-05
1.08811e-05
1.48571e-05
-9.28348e-06
9.36515e-06
1.66949e-05
-1.83278e-05
1.64899e-05
1.60263e-05
-1.28493e-05
1.35179e-05
1.66659e-05
-1.52297e-05
1.45901e-05
1.72579e-05
-1.53812e-05
1.47892e-05
1.78061e-05
-1.46363e-05
1.40882e-05
1.8006e-05
-1.29625e-05
1.27625e-05
1.83943e-05
-1.14751e-05
1.10868e-05
1.90145e-05
-1.09154e-05
1.02952e-05
2.0329e-05
-9.21593e-06
7.90144e-06
2.13547e-05
-5.85299e-06
4.8273e-06
2.27464e-05
-2.08877e-06
6.9704e-07
2.34149e-05
1.66567e-06
-2.33419e-06
2.3689e-05
5.1569e-06
-5.43097e-06
2.26904e-05
8.86946e-06
-7.87084e-06
2.22329e-05
1.10874e-05
-1.063e-05
2.12973e-05
1.23246e-05
-1.1389e-05
2.04361e-05
1.22995e-05
-1.14382e-05
2.00695e-05
1.42155e-05
-1.38489e-05
1.96285e-05
1.49959e-05
-1.45548e-05
1.9694e-05
1.4233e-05
-1.42986e-05
1.88634e-05
1.60347e-05
-1.52041e-05
1.81099e-05
1.7658e-05
-1.69045e-05
1.8306e-05
1.85673e-05
-1.87634e-05
1.73497e-05
1.83459e-05
-1.73896e-05
1.69849e-05
1.6245e-05
-1.58802e-05
1.70352e-05
1.72386e-05
-1.72889e-05
1.63686e-05
1.94753e-05
-1.88088e-05
1.66773e-05
2.03588e-05
-2.06674e-05
1.68723e-05
2.07136e-05
-2.09087e-05
1.65075e-05
1.92104e-05
-1.88456e-05
1.69121e-05
1.63997e-05
-1.68044e-05
1.68685e-05
1.55789e-05
-1.55353e-05
1.63535e-05
1.44179e-05
-1.39028e-05
1.61355e-05
1.4944e-05
-1.4726e-05
1.63511e-05
1.51586e-05
-1.53742e-05
1.57983e-05
1.64487e-05
-1.58959e-05
1.6025e-05
1.47686e-05
-1.49953e-05
1.59421e-05
1.53511e-05
-1.52682e-05
1.57192e-05
1.36605e-05
-1.34375e-05
1.53613e-05
1.279e-05
-1.24321e-05
1.4857e-05
1.01924e-05
-9.68822e-06
1.40232e-05
8.43244e-06
-7.59862e-06
1.26061e-05
6.15077e-06
-4.73365e-06
1.13077e-05
4.21662e-06
-2.9182e-06
9.76033e-06
2.62231e-06
-1.07496e-06
3.32888e-06
-3.85573e-06
1.02872e-05
1.31344e-05
-1.66816e-07
1.31622e-05
4.27408e-08
1.31956e-05
1.62618e-07
1.32075e-05
1.63214e-07
1.3262e-05
2.75741e-08
1.33395e-05
-9.58951e-08
1.34462e-05
-1.91371e-07
1.35484e-05
-2.27548e-07
1.36326e-05
-2.04398e-07
1.368e-05
-1.44604e-07
1.37069e-05
-8.20226e-08
1.37285e-05
-2.16413e-08
1.3724e-05
5.16796e-08
1.37226e-05
1.03378e-07
1.37126e-05
1.57543e-07
1.36979e-05
2.35205e-07
1.36877e-05
3.16983e-07
1.36973e-05
4.30541e-07
1.37366e-05
5.7164e-07
1.38433e-05
7.37806e-07
1.40324e-05
9.43164e-07
1.42982e-05
1.09481e-06
1.4703e-05
1.24308e-06
1.51436e-05
1.32675e-06
1.56422e-05
1.26428e-06
1.62205e-05
1.13098e-06
1.66908e-05
9.02549e-07
1.71014e-05
5.08897e-07
1.74351e-05
7.70502e-08
1.76273e-05
-3.23306e-07
1.78032e-05
-7.39479e-07
1.79982e-05
-1.05482e-06
1.82117e-05
-1.23177e-06
1.85027e-05
-1.38051e-06
1.89011e-05
-1.50712e-06
1.93788e-05
-1.63429e-06
1.99277e-05
-1.73783e-06
2.05043e-05
-1.93903e-06
2.11193e-05
-2.21715e-06
2.17787e-05
-2.4562e-06
2.23705e-05
-2.76153e-06
2.29524e-05
-3.06741e-06
2.35392e-05
-3.3515e-06
2.40507e-05
-3.5222e-06
2.45197e-05
-3.69307e-06
2.4807e-05
-3.83143e-06
2.49842e-05
-3.83913e-06
2.51833e-05
-3.7598e-06
2.528e-05
-3.46605e-06
2.54256e-05
-3.04416e-06
2.56069e-05
-2.52346e-06
2.57442e-05
-2.00149e-06
2.59711e-05
-1.57376e-06
2.62312e-05
-1.09404e-06
2.64231e-05
-7.36907e-07
2.6643e-05
-6.10495e-07
2.68997e-05
-4.63671e-07
2.71161e-05
-3.66719e-07
2.73628e-05
-5.65384e-07
2.76379e-05
-6.49105e-07
2.79054e-05
-7.80835e-07
2.81549e-05
-1.20215e-06
2.84311e-05
-1.50228e-06
2.86971e-05
-2.00208e-06
2.88668e-05
-2.60553e-06
2.90951e-05
-3.21433e-06
2.92876e-05
-4.0919e-06
2.93604e-05
-4.74212e-06
2.96019e-05
-5.6837e-06
2.98225e-05
-6.64312e-06
2.99743e-05
-7.27759e-06
3.02443e-05
-8.42373e-06
3.0367e-05
-9.22181e-06
3.04063e-05
-9.8202e-06
3.04087e-05
-1.09381e-05
2.99384e-05
-1.12543e-05
2.93282e-05
-1.15443e-05
2.87281e-05
-1.24518e-05
2.74676e-05
-1.21598e-05
2.63114e-05
-1.21586e-05
2.54736e-05
-1.30995e-05
2.41256e-05
-1.28512e-05
2.33474e-05
-1.27885e-05
2.40008e-05
-1.49311e-05
2.44931e-05
-1.69786e-05
2.34444e-05
-1.66184e-05
2.19349e-05
-1.60683e-05
2.17382e-05
-1.74425e-05
2.3013e-05
-1.96474e-05
2.47887e-05
-2.09826e-05
2.63497e-05
-2.04809e-05
2.73936e-05
-1.84086e-05
2.80267e-05
-1.57955e-05
2.85359e-05
-1.2587e-05
2.87795e-05
-8.9334e-06
2.89914e-05
-5.43993e-06
2.90996e-05
-1.58242e-06
2.87111e-05
2.47348e-06
2.83599e-05
5.96344e-06
2.81896e-05
9.14336e-06
2.83757e-05
1.22975e-05
2.8753e-05
1.59282e-05
2.82548e-05
1.94328e-05
2.70348e-05
2.11455e-05
2.64228e-05
2.18919e-05
2.64532e-05
2.31366e-05
2.62537e-05
2.438e-05
2.55203e-05
2.4668e-05
2.45843e-05
2.39931e-05
2.40516e-05
2.28395e-05
2.39969e-05
2.13741e-05
2.4182e-05
1.99415e-05
2.44622e-05
1.80293e-05
2.47095e-05
1.59136e-05
2.46535e-05
1.36699e-05
2.46256e-05
1.07905e-05
2.44835e-05
8.45963e-06
2.42583e-05
6.06336e-06
2.38247e-05
3.47057e-06
2.32632e-05
1.51696e-06
2.29344e-05
-7.22239e-07
2.2994e-05
-3.03148e-06
2.32601e-05
-5.39276e-06
2.36209e-05
-7.79409e-06
2.38921e-05
-1.06145e-05
2.37247e-05
-1.21379e-05
2.30467e-05
-1.29341e-05
2.17308e-05
-1.3194e-05
2.02186e-05
-1.26971e-05
1.87519e-05
-1.17129e-05
1.77046e-05
-1.10885e-05
1.68749e-05
-1.06075e-05
1.62668e-05
-9.68904e-06
1.56264e-05
-8.96435e-06
1.52144e-05
-8.24634e-06
1.4981e-05
-7.6832e-06
1.5072e-05
-7.07756e-06
1.51511e-05
-6.43069e-06
1.54386e-05
-7.0037e-06
1.52338e-05
-6.91535e-06
1.50574e-05
-6.0977e-06
1.48474e-05
-4.62923e-06
1.46267e-05
-3.78057e-06
1.4614e-05
-3.75629e-06
1.45803e-05
-3.91486e-06
1.4618e-05
-4.74166e-06
1.43813e-05
-4.25921e-06
1.34927e-05
-2.79287e-06
1.40687e-05
-3.96186e-06
1.46438e-05
-6.42475e-06
1.42279e-05
-6.81682e-06
1.38945e-05
-8.25022e-06
1.37776e-05
-1.06912e-05
1.4751e-05
-1.02568e-05
1.56919e-05
-1.92686e-05
1.50346e-05
-1.2192e-05
1.59433e-05
-1.61384e-05
1.65853e-05
-1.60233e-05
1.70617e-05
-1.51127e-05
1.65632e-05
-1.2464e-05
1.65717e-05
-1.14835e-05
1.69104e-05
-1.12542e-05
1.836e-05
-1.06655e-05
1.95423e-05
-7.03529e-06
2.11786e-05
-3.72501e-06
2.19648e-05
8.7941e-07
2.22807e-05
4.84107e-06
2.15494e-05
9.60068e-06
2.11235e-05
1.15134e-05
2.04741e-05
1.2974e-05
1.90569e-05
1.37167e-05
1.89596e-05
1.43127e-05
1.84645e-05
1.54909e-05
1.81706e-05
1.45269e-05
1.82495e-05
1.59558e-05
1.71798e-05
1.87277e-05
1.71211e-05
1.8626e-05
1.7057e-05
1.84101e-05
1.6142e-05
1.716e-05
1.64375e-05
1.69431e-05
1.63201e-05
1.95927e-05
1.64368e-05
2.02421e-05
1.73788e-05
1.97716e-05
1.73702e-05
1.92191e-05
1.74293e-05
1.63406e-05
1.75283e-05
1.54799e-05
1.7443e-05
1.45032e-05
1.67931e-05
1.55939e-05
1.70106e-05
1.4941e-05
1.66937e-05
1.67656e-05
1.65377e-05
1.49246e-05
1.65083e-05
1.53805e-05
1.61918e-05
1.3977e-05
1.6379e-05
1.26028e-05
1.61076e-05
1.04639e-05
1.55286e-05
9.01141e-06
1.44516e-05
7.22774e-06
1.36144e-05
5.05388e-06
1.27092e-05
3.52746e-06
2.71506e-06
1.3323e-05
2.02071e-05
-1.7032e-08
1.99517e-05
2.98131e-07
1.97883e-05
3.26011e-07
1.97544e-05
1.97172e-07
1.97481e-05
3.38832e-08
1.98252e-05
-1.72991e-07
1.98681e-05
-2.34254e-07
1.99133e-05
-2.72741e-07
1.99446e-05
-2.35775e-07
1.99552e-05
-1.5522e-07
1.99616e-05
-8.83773e-08
1.99381e-05
1.87205e-09
1.99047e-05
8.50855e-08
1.98781e-05
1.29981e-07
1.98414e-05
1.94244e-07
1.98168e-05
2.59746e-07
1.98058e-05
3.28001e-07
1.98099e-05
4.26465e-07
1.98648e-05
5.16747e-07
1.99345e-05
6.68128e-07
2.008e-05
7.97592e-07
2.0262e-05
9.12812e-07
2.0516e-05
9.89072e-07
2.08293e-05
1.01349e-06
2.11382e-05
9.55333e-07
2.15106e-05
7.5863e-07
2.18684e-05
5.44744e-07
2.21628e-05
2.1448e-07
2.24363e-05
-1.96453e-07
2.26808e-05
-5.67799e-07
2.29057e-05
-9.64347e-07
2.31412e-05
-1.29036e-06
2.34378e-05
-1.52832e-06
2.37656e-05
-1.70836e-06
2.41553e-05
-1.89683e-06
2.46158e-05
-2.09479e-06
2.50742e-05
-2.19625e-06
2.55967e-05
-2.4615e-06
2.60936e-05
-2.714e-06
2.65824e-05
-2.94499e-06
2.70775e-05
-3.25662e-06
2.74612e-05
-3.45119e-06
2.78294e-05
-3.7197e-06
2.81337e-05
-3.82643e-06
2.83601e-05
-3.91949e-06
2.85408e-05
-4.01218e-06
2.86059e-05
-3.90419e-06
2.86358e-05
-3.78974e-06
2.86157e-05
-3.44592e-06
2.86075e-05
-3.03598e-06
2.86587e-05
-2.57467e-06
2.87077e-05
-2.05047e-06
2.88057e-05
-1.67177e-06
2.90025e-05
-1.2908e-06
2.9185e-05
-9.19427e-07
2.93724e-05
-7.97872e-07
2.95808e-05
-6.72067e-07
2.97475e-05
-5.33461e-07
2.99158e-05
-7.33681e-07
3.00925e-05
-8.25822e-07
3.02956e-05
-9.83851e-07
3.04499e-05
-1.35648e-06
3.06255e-05
-1.67788e-06
3.08442e-05
-2.22079e-06
3.09323e-05
-2.69361e-06
3.1122e-05
-3.404e-06
3.12527e-05
-4.22268e-06
3.12912e-05
-4.78054e-06
3.14947e-05
-5.8872e-06
3.1436e-05
-6.58441e-06
3.14051e-05
-7.24674e-06
3.14371e-05
-8.4557e-06
3.09675e-05
-8.7522e-06
3.06579e-05
-9.51064e-06
3.01393e-05
-1.04194e-05
2.90473e-05
-1.01623e-05
2.83529e-05
-1.08499e-05
2.73544e-05
-1.14533e-05
2.59527e-05
-1.07581e-05
2.53573e-05
-1.15631e-05
2.47385e-05
-1.24807e-05
2.36803e-05
-1.1793e-05
2.37666e-05
-1.28748e-05
2.42697e-05
-1.54342e-05
2.29718e-05
-1.56807e-05
2.05538e-05
-1.42004e-05
1.95249e-05
-1.50394e-05
2.05523e-05
-1.84699e-05
2.24568e-05
-2.15519e-05
2.40933e-05
-2.2619e-05
2.51427e-05
-2.15303e-05
2.57117e-05
-1.89775e-05
2.60457e-05
-1.61295e-05
2.64106e-05
-1.29519e-05
2.67346e-05
-9.25734e-06
2.70244e-05
-5.72975e-06
2.75417e-05
-2.09972e-06
2.77256e-05
2.28955e-06
2.74078e-05
6.28128e-06
2.69997e-05
9.55139e-06
2.70524e-05
1.22448e-05
2.74542e-05
1.55264e-05
2.77393e-05
1.91478e-05
2.71705e-05
2.17142e-05
2.62836e-05
2.27788e-05
2.61141e-05
2.33061e-05
2.63062e-05
2.41879e-05
2.62578e-05
2.47164e-05
2.5814e-05
2.44369e-05
2.51817e-05
2.34718e-05
2.4818e-05
2.17378e-05
2.46855e-05
2.0074e-05
2.47441e-05
1.79706e-05
2.49209e-05
1.57368e-05
2.49712e-05
1.36196e-05
2.48922e-05
1.08696e-05
2.47278e-05
8.62398e-06
2.45638e-05
6.22737e-06
2.43673e-05
3.66704e-06
2.41625e-05
1.72181e-06
2.4299e-05
-8.5871e-07
2.45668e-05
-3.29934e-06
2.48146e-05
-5.64057e-06
2.52118e-05
-8.19123e-06
2.50309e-05
-1.04337e-05
2.40617e-05
-1.11687e-05
2.29183e-05
-1.17907e-05
2.17309e-05
-1.20065e-05
2.06661e-05
-1.16323e-05
1.96062e-05
-1.06529e-05
1.85297e-05
-1.00121e-05
1.76022e-05
-9.67998e-06
1.67613e-05
-8.84818e-06
1.60224e-05
-8.22539e-06
1.54933e-05
-7.71729e-06
1.53649e-05
-7.55482e-06
1.54554e-05
-7.16804e-06
1.57255e-05
-6.70077e-06
1.58306e-05
-7.10881e-06
1.56873e-05
-6.77207e-06
1.53562e-05
-5.76652e-06
1.51495e-05
-4.42258e-06
1.4796e-05
-3.42709e-06
1.4646e-05
-3.60631e-06
1.48306e-05
-4.09946e-06
1.46234e-05
-4.53445e-06
1.40648e-05
-3.7006e-06
1.35641e-05
-2.29222e-06
1.40775e-05
-4.47522e-06
1.42294e-05
-6.57665e-06
1.32754e-05
-5.86283e-06
1.29196e-05
-7.89442e-06
1.35927e-05
-1.13643e-05
1.46928e-05
-1.13569e-05
1.45044e-05
-1.90803e-05
1.404e-05
-1.17276e-05
1.58092e-05
-1.79076e-05
1.61174e-05
-1.63314e-05
1.64421e-05
-1.54374e-05
1.60305e-05
-1.20524e-05
1.52755e-05
-1.07285e-05
1.58639e-05
-1.18426e-05
1.71701e-05
-1.19717e-05
1.85677e-05
-8.43294e-06
1.96375e-05
-4.79482e-06
2.02575e-05
2.59451e-07
2.06032e-05
4.49538e-06
2.06663e-05
9.53757e-06
1.99256e-05
1.2254e-05
1.97373e-05
1.31624e-05
1.84143e-05
1.50397e-05
1.77128e-05
1.50142e-05
1.76334e-05
1.55704e-05
1.67636e-05
1.53968e-05
1.68746e-05
1.58448e-05
1.65043e-05
1.9098e-05
1.61021e-05
1.90282e-05
1.65876e-05
1.79246e-05
1.56901e-05
1.80574e-05
1.56705e-05
1.69627e-05
1.63059e-05
1.89574e-05
1.62295e-05
2.03185e-05
1.72444e-05
1.87567e-05
1.78185e-05
1.8645e-05
1.80144e-05
1.61448e-05
1.76814e-05
1.58128e-05
1.77771e-05
1.44076e-05
1.70978e-05
1.62733e-05
1.69418e-05
1.50971e-05
1.68826e-05
1.68247e-05
1.66996e-05
1.51077e-05
1.70317e-05
1.50484e-05
1.71001e-05
1.39086e-05
1.74443e-05
1.22585e-05
1.72054e-05
1.07028e-05
1.6825e-05
9.39186e-06
1.62694e-05
7.78334e-06
1.56037e-05
5.71949e-06
1.51357e-05
3.99554e-06
2.5111e-06
1.53396e-05
2.49364e-05
1.28586e-08
2.50558e-05
1.7879e-07
2.51984e-05
1.83364e-07
2.53139e-05
8.17245e-08
2.53913e-05
-4.35484e-08
2.54624e-05
-2.44108e-07
2.54777e-05
-2.49603e-07
2.5478e-05
-2.72967e-07
2.54705e-05
-2.28286e-07
2.54371e-05
-1.21876e-07
2.54166e-05
-6.7795e-08
2.53745e-05
4.39355e-08
2.53518e-05
1.0779e-07
2.53225e-05
1.5929e-07
2.52943e-05
2.22397e-07
2.52753e-05
2.78815e-07
2.52588e-05
3.44443e-07
2.5263e-05
4.22231e-07
2.53257e-05
4.54079e-07
2.54018e-05
5.92025e-07
2.55419e-05
6.57478e-07
2.57368e-05
7.17929e-07
2.59576e-05
7.68249e-07
2.62163e-05
7.54814e-07
2.64923e-05
6.79319e-07
2.67656e-05
4.85381e-07
2.70237e-05
2.86607e-07
2.72708e-05
-3.2561e-08
2.74756e-05
-4.01269e-07
2.76675e-05
-7.59696e-07
2.78731e-05
-1.16997e-06
2.80544e-05
-1.47168e-06
2.82955e-05
-1.76935e-06
2.85961e-05
-2.00896e-06
2.88695e-05
-2.17029e-06
2.92154e-05
-2.4407e-06
2.954e-05
-2.52086e-06
2.98695e-05
-2.791e-06
3.02094e-05
-3.05384e-06
3.04666e-05
-3.20218e-06
3.07304e-05
-3.52048e-06
3.08998e-05
-3.62059e-06
3.10047e-05
-3.82453e-06
3.11033e-05
-3.92506e-06
3.10705e-05
-3.88671e-06
3.10062e-05
-3.94789e-06
3.08724e-05
-3.77034e-06
3.06486e-05
-3.56591e-06
3.04871e-05
-3.28444e-06
3.03061e-05
-2.855e-06
3.02054e-05
-2.47397e-06
3.01731e-05
-2.01821e-06
3.01461e-05
-1.64471e-06
3.02135e-05
-1.35823e-06
3.03026e-05
-1.00853e-06
3.04239e-05
-9.1919e-07
3.05447e-05
-7.9289e-07
3.07201e-05
-7.08856e-07
3.08576e-05
-8.71102e-07
3.09524e-05
-9.20679e-07
3.11907e-05
-1.22213e-06
3.128e-05
-1.44578e-06
3.14366e-05
-1.83449e-06
3.16104e-05
-2.39462e-06
3.16253e-05
-2.70846e-06
3.18122e-05
-3.59087e-06
3.17218e-05
-4.13228e-06
3.17177e-05
-4.77652e-06
3.16911e-05
-5.86052e-06
3.12668e-05
-6.16018e-06
3.12025e-05
-7.18246e-06
3.07256e-05
-7.97877e-06
2.9984e-05
-8.01056e-06
2.97051e-05
-9.23174e-06
2.87727e-05
-9.48708e-06
2.78363e-05
-9.22591e-06
2.74596e-05
-1.04732e-05
2.64476e-05
-1.04414e-05
2.57251e-05
-1.00356e-05
2.57074e-05
-1.15454e-05
2.4855e-05
-1.16283e-05
2.39426e-05
-1.08806e-05
2.39843e-05
-1.29165e-05
2.29623e-05
-1.44122e-05
2.01409e-05
-1.28594e-05
1.80446e-05
-1.21041e-05
1.81354e-05
-1.51302e-05
1.95365e-05
-1.9871e-05
2.10133e-05
-2.30287e-05
2.2029e-05
-2.36347e-05
2.26576e-05
-2.21589e-05
2.3007e-05
-1.9327e-05
2.32904e-05
-1.64129e-05
2.3704e-05
-1.33655e-05
2.40746e-05
-9.62794e-06
2.42652e-05
-5.92032e-06
2.47037e-05
-2.53824e-06
2.54426e-05
1.55066e-06
2.58946e-05
5.82925e-06
2.56812e-05
9.76482e-06
2.54318e-05
1.24942e-05
2.58489e-05
1.51093e-05
2.65551e-05
1.84416e-05
2.65533e-05
2.17161e-05
2.59789e-05