/*--------------------------------*- C++ -*----------------------------------*\
| =========                 |                                                 |
| \\      /  F ield         | OpenFOAM: The Open Source CFD Toolbox           |
|  \\    /   O peration     | Version:  2.4.0                                 |
|   \\  /    A nd           | Web:      www.OpenFOAM.org                      |
|    \\/     M anipulation  |                                                 |
\*---------------------------------------------------------------------------*/
FoamFile
{
    version     2.0;
    format      ascii;
    class       volScalarField;
    location    "1.69";
    object      pMean;
}
// * * * * * * * * * * * * * * * * * * * * * * * * * * * * * * * * * * * * * //

dimensions      [0 2 -2 0 0 0 0];

internalField   nonuniform List<scalar> 
8800
(
87.16
74.7153
67.3119
63.7487
61.8579
60.4222
59.2138
58.0611
57.0312
55.9949
55.0439
54.0512
53.1458
52.1963
51.3551
50.4745
49.7123
48.918
48.219
47.428
84.0488
74.3609
67.4803
63.8626
61.9179
60.4475
59.2214
58.0615
57.0291
55.9925
55.041
54.049
53.1432
52.1945
51.3533
50.4726
49.7142
48.9122
48.2203
47.3865
82.0837
74.437
68.0818
64.2382
62.0855
60.5268
59.268
58.0942
57.0534
56.0095
55.0513
54.0537
53.1448
52.1927
51.3524
50.4662
49.7186
48.9029
48.2726
47.4218
80.5484
74.4987
68.6679
64.6617
62.2693
60.6147
59.3306
58.1508
57.102
56.0484
55.0789
54.0711
53.1559
52.1966
51.3555
50.4609
49.7226
48.906
48.3641
47.5945
79.2997
74.4723
69.1428
65.0673
62.4378
60.6824
59.3799
58.2086
57.1577
56.1002
55.1142
54.0982
53.1688
52.2067
51.3547
50.462
49.7151
48.9252
48.3674
47.8257
78.3147
74.3755
69.5072
65.4132
62.5881
60.7251
59.4082
58.2532
57.2077
56.1498
55.1491
54.1251
53.1799
52.2157
51.3503
50.4614
49.7004
48.9401
48.4162
48.1574
77.5582
74.2587
69.7743
65.6927
62.7231
60.7508
59.4169
58.2846
57.2469
56.1915
55.1776
54.1481
53.1866
52.2222
51.3422
50.4588
49.6809
48.9454
48.4919
48.5299
77.0047
74.1583
69.955
65.9051
62.8408
60.7703
59.4094
58.3086
57.2737
56.2257
55.1966
54.1691
53.1874
52.2304
51.3299
50.4621
49.6581
48.9447
48.4443
48.8604
76.6442
74.088
70.0686
66.0498
62.9256
60.7838
59.4003
58.3247
57.2939
56.2504
55.2114
54.1844
53.191
52.2372
51.3264
50.4652
49.6485
48.96
48.5146
49.172
76.4647
74.0564
70.1265
66.127
62.9708
60.7937
59.3958
58.3356
57.307
56.2671
55.2215
54.1958
53.1964
52.2454
51.3297
50.4733
49.6569
48.9835
48.5788
49.2898
76.4577
74.0673
70.1274
66.1322
62.9703
60.7975
59.3933
58.3397
57.307
56.2719
55.2222
54.2016
53.1986
52.2538
51.3348
50.4853
49.6672
49.0078
48.617
49.3844
76.6265
74.1161
70.0713
66.0608
62.9256
60.7925
59.3954
58.3341
57.2953
56.2621
55.2147
54.1999
53.1997
52.2596
51.3431
50.4979
49.6831
49.0255
48.6414
49.417
76.9773
74.1986
69.9562
65.9184
62.8392
60.7835
59.4007
58.323
57.2744
56.2433
55.2006
54.1943
53.2
52.2673
51.3562
50.5166
49.7064
49.0473
48.6463
49.3859
77.5233
74.3049
69.774
65.7059
62.716
60.766
59.4039
58.3018
57.2439
56.2135
55.179
54.1817
53.1978
52.2735
51.3714
50.5394
49.7375
49.0757
48.6356
49.275
78.2768
74.4213
69.5087
65.4239
62.5772
60.7371
59.3966
58.2685
57.2038
56.1726
55.1505
54.1614
53.193
52.2753
51.3875
50.5634
49.7778
49.1143
48.6359
49.0793
79.2586
74.5193
69.1459
65.0769
62.4244
60.6921
59.3704
58.2232
57.1546
56.1235
55.1176
54.1363
53.1864
52.2732
51.4035
50.5855
49.8252
49.1643
48.6661
48.8192
80.5052
74.5465
68.6733
64.6734
62.2549
60.6244
59.3229
58.1668
57.0997
56.0733
55.0846
54.1115
53.179
52.2688
51.4172
50.6022
49.8718
49.2125
48.7261
48.5454
82.0396
74.4833
68.0903
64.2518
62.0713
60.5364
59.2613
58.1107
57.0526
56.0347
55.0601
54.0947
53.1739
52.2668
51.4272
50.6149
49.9052
49.2494
48.7855
48.4034
84.0037
74.4045
67.4908
63.8777
61.9045
60.4568
59.2149
58.0783
57.029
56.018
55.051
54.0907
53.1745
52.2701
51.4339
50.6248
49.9208
49.271
48.7826
48.3276
87.1141
74.757
67.3221
63.7643
61.8452
60.4314
59.2075
58.0782
57.0311
56.0209
55.0537
54.0934
53.1772
52.2726
51.437
50.6282
49.9244
49.2767
48.784
48.4474
47.4956
47.4206
47.2096
46.9745
46.7763
46.622
46.5112
46.4336
46.3814
46.3491
46.3322
46.3204
46.3096
46.2939
46.271
46.2375
46.1941
46.1365
46.0681
45.9863
45.8973
45.8058
45.7183
45.6365
45.5664
45.5096
45.4671
45.4318
45.3971
45.3527
45.294
45.2185
45.1311
45.0368
44.9408
44.8418
44.7402
44.6285
44.5079
44.374
44.2338
44.0871
43.9509
43.8308
43.7396
43.6752
43.6424
43.6321
43.642
43.6598
43.678
43.6819
43.6682
43.6269
43.5642
43.4699
43.3555
43.2173
43.0694
42.9044
42.731
42.5438
42.3552
42.1661
41.9948
41.8494
41.7451
41.6896
41.6894
41.7334
41.8202
41.9321
42.067
42.2047
42.3491
42.4792
42.6023
42.6973
42.7739
42.8159
42.8352
42.8235
42.7973
42.7466
42.6945
42.6343
42.5838
42.5432
42.5193
42.5154
42.5349
42.5789
42.6475
42.7335
42.8377
42.9515
43.0804
43.2128
43.354
43.4908
43.6276
43.75
43.8668
43.954
44.0355
44.0883
44.1376
44.1662
44.1992
44.2141
44.2323
44.2369
44.2461
44.244
44.2502
44.2534
44.2713
44.2903
44.3255
44.3601
44.4082
44.4524
44.5108
44.56
44.627
44.6765
44.7511
44.8067
44.8924
44.9721
45.081
45.1905
45.3201
45.4481
45.5901
45.7279
45.8775
46.0174
46.1628
46.2977
46.4394
46.5765
46.7229
46.8658
47.0166
47.1622
47.3158
47.4683
47.6256
47.7818
47.9397
48.0948
48.2523
48.403
48.5555
48.7049
48.8677
49.0186
49.1884
49.3498
49.5354
49.6951
49.8854
50.0386
50.2216
50.36
50.532
50.6509
50.8033
50.8879
51.0329
51.0856
51.2384
51.2828
51.4581
51.5054
51.7163
51.7722
52.0192
52.1082
52.3877
52.524
52.8492
53.0521
53.4211
53.6945
54.0995
54.4127
54.844
55.1587
55.5753
55.816
56.0977
56.0706
55.9478
55.1811
53.9403
50.6553
46.4447
25.9243
47.2682
47.2409
47.1754
47.0251
46.8424
46.674
46.5495
46.4688
46.4253
46.4039
46.3968
46.3913
46.3844
46.3696
46.3476
46.3138
46.2707
46.215
46.1506
46.0755
45.995
45.912
45.8336
45.7602
45.6977
45.6446
45.6031
45.567
45.5333
45.4928
45.4424
45.3773
45.3013
45.2153
45.1255
45.0292
44.9297
44.821
44.7058
44.5794
44.4489
44.315
44.1898
44.0779
43.9896
43.9245
43.8866
43.8693
43.8699
43.8764
43.8851
43.8816
43.8652
43.824
43.7643
43.6766
43.5701
43.4401
43.2986
43.1412
42.9763
42.8006
42.6234
42.4477
42.2863
42.1478
42.0448
41.9821
41.9681
41.9941
42.0602
42.151
42.2652
42.3854
42.5103
42.6246
42.7281
42.8076
42.8658
42.8942
42.9007
42.8803
42.8459
42.7947
42.7393
42.6811
42.6277
42.5862
42.5583
42.5498
42.5637
42.6019
42.6643
42.7451
42.8459
42.959
43.0864
43.2179
43.3568
43.4928
43.6284
43.7515
43.8647
43.9508
44.0271
44.0787
44.1217
44.1449
44.1655
44.1713
44.1759
44.1712
44.167
44.1561
44.1484
44.1444
44.15
44.1625
44.1856
44.2088
44.245
44.2772
44.3258
44.3664
44.4257
44.4712
44.537
44.5896
44.663
44.7326
44.8255
44.9196
45.0342
45.1475
45.2762
45.3983
45.5331
45.6586
45.7886
45.9083
46.0349
46.1561
46.2844
46.4082
46.5423
46.6649
46.8031
46.9339
47.0787
47.2177
47.3644
47.5059
47.6598
47.7999
47.9551
48.0985
48.2703
48.4164
48.595
48.7533
48.9416
49.093
49.2832
49.4274
49.6094
49.739
49.9068
50.0056
50.1544
50.2082
50.3451
50.3644
50.505
50.5121
50.6782
50.6895
50.8879
50.9159
51.1443
51.2104
51.4625
51.5745
51.858
52.0297
52.3523
52.5654
52.9249
53.1409
53.5055
53.6775
53.9666
53.9809
54.0478
53.6208
53.1246
51.4992
49.7499
43.9869
38.0855
19.168
47.2475
47.2549
47.2727
47.1739
46.9789
46.76
46.5863
46.4791
46.4368
46.4316
46.4444
46.4547
46.4579
46.4466
46.4245
46.3883
46.3431
46.2866
46.2239
46.1533
46.0806
46.0061
45.9368
45.8719
45.8165
45.7678
45.7286
45.6931
45.6606
45.6227
45.5786
45.5217
45.4556
45.3778
45.2948
45.2031
45.1074
45.0032
44.8949
44.7785
44.66
44.5401
44.4275
44.326
44.2433
44.1794
44.1381
44.1135
44.1049
44.1009
44.0994
44.0878
44.0661
44.0238
43.9648
43.8822
43.7817
43.6603
43.5256
43.3771
43.221
43.0578
42.8942
42.7336
42.5856
42.4568
42.3584
42.2931
42.2681
42.279
42.3257
42.3974
42.4909
42.5928
42.6983
42.7952
42.8794
42.9421
42.9823
42.9974
42.9912
42.9644
42.9225
42.8701
42.811
42.7525
42.6975
42.6535
42.6211
42.6065
42.6131
42.6442
42.6989
42.7758
42.8737
42.9881
43.1146
43.2478
43.3866
43.5231
43.6573
43.7814
43.8916
43.9786
44.0529
44.1058
44.1451
44.1661
44.1788
44.1798
44.1755
44.1663
44.1525
44.1356
44.1187
44.109
44.1071
44.1113
44.1257
44.1381
44.1673
44.1892
44.2321
44.2667
44.3218
44.3674
44.4264
44.4779
44.5409
44.6037
44.6821
44.7626
44.8626
44.9621
45.0767
45.1838
45.3015
45.4119
45.5258
45.6295
45.7412
45.8474
45.9609
46.0703
46.1898
46.2969
46.4228
46.5364
46.6696
46.7878
46.9207
47.0443
47.1904
47.3183
47.4772
47.617
47.7945
47.9414
48.1293
48.2914
48.4801
48.6285
48.817
48.9502
49.1315
49.2436
49.4086
49.4786
49.624
49.6489
49.7748
49.7644
49.8982
49.8717
50.0319
50.0154
50.1903
50.2004
50.3895
50.4392
50.6437
50.7297
50.9687
51.0876
51.3726
51.502
51.8127
51.9141
52.1951
52.1955
52.3688
52.0899
52.0035
51.0309
50.4163
47.6473
45.7328
38.606
31.5124
18.637
47.1058
47.1315
47.3016
47.2565
47.0436
46.7794
46.57
46.453
46.4246
46.4465
46.49
46.5264
46.547
46.5435
46.5217
46.4815
46.4312
46.3707
46.3071
46.2388
46.1718
46.1049
46.0444
45.988
45.9402
45.8972
45.8618
45.8282
45.7974
45.7619
45.7223
45.6719
45.6136
45.5435
45.467
45.3813
45.2912
45.1939
45.0939
44.9887
44.8835
44.778
44.6792
44.5882
44.5121
44.4499
44.4057
44.3739
44.3553
44.3406
44.3286
44.3095
44.2823
44.2392
44.1812
44.1035
44.0093
43.8971
43.7719
43.6347
43.4907
43.3415
43.1926
43.0477
42.9139
42.7961
42.7033
42.6374
42.6042
42.6013
42.6299
42.6818
42.7539
42.8352
42.9199
42.9967
43.0614
43.1073
43.1319
43.1357
43.1196
43.0866
43.0389
42.9838
42.9228
42.863
42.8063
42.7577
42.7185
42.6954
42.6935
42.7169
42.7659
42.8397
42.9371
43.052
43.1795
43.3134
43.4534
43.5908
43.7246
43.8482
43.9565
44.0434
44.1172
44.1719
44.2108
44.233
44.2434
44.244
44.2371
44.2253
44.2059
44.1843
44.1636
44.1484
44.1443
44.1422
44.1532
44.1597
44.1839
44.1984
44.2372
44.268
44.3218
44.3658
44.4219
44.4693
44.5288
44.5857
44.6565
44.7273
44.8133
44.9007
45.0004
45.0944
45.1961
45.2906
45.388
45.4755
45.5733
45.6652
45.7679
45.8672
45.9764
46.0764
46.193
46.2929
46.4132
46.5099
46.6283
46.7299
46.8676
46.9795
47.1412
47.2804
47.4643
47.6163
47.8163
47.9746
48.1659
48.3068
48.5022
48.6108
48.8019
48.8813
49.0512
49.0867
49.2301
49.2246
49.3431
49.3042
49.4381
49.3943
49.5354
49.5101
49.6424
49.6444
49.7798
49.8083
49.9643
50.0135
50.209
50.263
50.4991
50.536
50.7891
50.7429
50.9863
50.7264
50.8847
50.1707
50.1056
48.4123
47.7934
44.1516
41.6986
34.9872
27.4449
18.8371
47.9104
47.8161
47.5459
47.2184
46.8899
46.6068
46.4306
46.3636
46.3826
46.4481
46.5315
46.6009
46.6437
46.6514
46.6316
46.5876
46.531
46.4649
46.3978
46.3297
46.2667
46.2066
46.1544
46.1068
46.0671
46.0312
46.0009
45.9711
45.9431
45.9108
45.8751
45.8306
45.7791
45.7173
45.6488
45.5718
45.4903
45.4026
45.3128
45.2197
45.1275
45.0355
44.9488
44.8675
44.7969
44.7359
44.6881
44.6497
44.6215
44.5975
44.5762
44.5506
44.5185
44.4746
44.4179
44.3458
44.2593
44.1581
44.0451
43.9216
43.7919
43.6579
43.5247
43.3948
43.275
43.1681
43.0815
43.0167
42.978
42.9639
42.976
43.0088
43.0591
43.1183
43.18
43.2359
43.2811
43.3111
43.3229
43.3172
43.2937
43.2554
43.2044
43.146
43.0826
43.0185
42.9566
42.8991
42.8498
42.8157
42.8051
42.8209
42.8661
42.9378
43.0366
43.1535
43.2834
43.4208
43.5633
43.7028
43.8382
43.9619
44.0699
44.1578
44.2324
44.2892
44.3286
44.3543
44.3646
44.3671
44.3603
44.3469
44.3251
44.2998
44.2789
44.262
44.2592
44.2561
44.2659
44.272
44.2934
44.3086
44.345
44.3779
44.4287
44.4722
44.5257
44.5708
44.631
44.6824
44.752
44.814
44.8918
44.966
45.0537
45.1337
45.2247
45.3014
45.3883
45.4597
45.5474
45.6248
45.7225
45.8131
45.9199
46.0161
46.1261
46.2128
46.3229
46.3962
46.5047
46.5819
46.711
46.8088
46.9707
47.1054
47.2987
47.4472
47.6631
47.8076
48.0087
48.1342
48.3395
48.4228
48.6255
48.6672
48.8392
48.8412
48.9817
48.9436
49.0551
49.0015
49.1283
49.09
49.2062
49.1768
49.2764
49.2538
49.3512
49.3364
49.461
49.4505
49.6182
49.5815
49.7928
49.6832
49.926
49.65
49.9025
49.309
49.4731
48.316
48.1808
46.0178
45.0156
41.3546
38.1368
32.8063
25.7072
19.3507
48.555
48.4068
47.8041
47.1969
46.7091
46.3875
46.2526
46.2576
46.3471
46.4726
46.6013
46.7019
46.7619
46.7768
46.7561
46.7073
46.6431
46.5703
46.4983
46.4292
46.3681
46.3135
46.2681
46.2289
46.197
46.1685
46.144
46.1194
46.095
46.0668
46.0351
45.9962
45.9512
45.8977
45.8379
45.771
45.6994
45.6229
45.5444
45.4636
45.3834
45.3035
45.2272
45.1547
45.0892
45.0304
44.9805
44.9376
44.9019
44.8699
44.8399
44.8077
44.7705
44.725
44.6695
44.6025
44.5236
44.4332
44.3325
44.2229
44.1078
43.9894
43.8719
43.7576
43.6518
43.5566
43.4774
43.4153
43.3738
43.352
43.3512
43.3685
43.3996
43.438
43.4777
43.5135
43.5405
43.5557
43.5561
43.5422
43.5127
43.4699
43.415
43.3514
43.282
43.2102
43.1395
43.0706
43.0092
42.962
42.9434
42.9532
42.9956
43.0674
43.1695
43.2897
43.4225
43.5645
43.7109
43.8555
43.9954
44.1241
44.2356
44.3278
44.405
44.4638
44.5052
44.5339
44.546
44.5494
44.5426
44.5266
44.5034
44.475
44.4568
44.4425
44.4432
44.4444
44.4553
44.466
44.4893
44.5123
44.5507
44.5909
44.6405
44.6865
44.7369
44.7862
44.8462
44.9014
44.9713
45.0286
45.1025
45.163
45.2407
45.3062
45.3882
45.4507
45.5314
45.5911
45.6708
45.7384
45.8349
45.9183
46.0301
46.1238
46.2303
46.3078
46.4066
46.4582
46.5527
46.6112
46.7283
46.8098
46.9746
47.0968
47.2995
47.4363
47.6628
47.7896
48.0126
48.1141
48.3382
48.3894
48.6036
48.6121
48.7871
48.7475
48.8919
48.8146
48.9298
48.8665
48.9945
48.9531
49.0708
49.014
49.11
49.0383
49.1216
49.034
49.1495
49.0528
49.1999
49.0533
49.2337
48.9757
49.1733
48.7167
48.8711
48.0651
48.0378
46.6702
46.2016
44.0178
42.5184
39.3629
35.8641
31.8425
25.7278
20.4645
49.201
48.9646
47.9924
47.0733
46.4161
46.0751
46.0182
46.1332
46.3214
46.5204
46.6951
46.8217
46.8916
46.9067
46.8793
46.8217
46.7478
46.6678
46.5907
46.5206
46.4609
46.4112
46.3718
46.3403
46.3155
46.2946
46.2761
46.2573
46.2373
46.2136
46.1857
46.1519
46.1124
46.0663
46.0145
45.957
45.8954
45.8298
45.7622
45.6929
45.6235
45.5545
45.4875
45.4231
45.3627
45.3069
45.2564
45.2111
45.1704
45.1327
45.0962
45.0588
45.0177
44.9712
44.9174
44.8552
44.7837
44.7033
44.6143
44.5183
44.4175
44.3143
44.2116
44.1122
44.0192
43.9349
43.8626
43.8042
43.7621
43.7369
43.7282
43.7344
43.751
43.7721
43.7927
43.8101
43.8207
43.8234
43.8145
43.7932
43.758
43.7102
43.6495
43.5779
43.5002
43.4198
43.3396
43.2591
43.1857
43.1265
43.0989
43.1049
43.1476
43.2238
43.3313
43.4565
43.5945
43.7429
43.8948
44.0484
44.196
44.3328
44.4513
44.5521
44.6314
44.6924
44.737
44.7673
44.7804
44.7826
44.7766
44.759
44.7357
44.7063
44.6899
44.6798
44.6848
44.6942
44.7095
44.73
44.7623
44.8002
44.8484
44.901
44.9558
45.0069
45.0577
45.1106
45.1714
45.2338
45.3029
45.3648
45.4324
45.4885
45.5564
45.6139
45.6871
45.7446
45.8187
45.8742
45.95
46.0167
46.1103
46.1931
46.303
46.3991
46.5031
46.5754
46.6608
46.6973
46.7711
46.8197
46.9192
46.9838
47.1482
47.258
47.4568
47.5965
47.827
47.9311
48.1803
48.2624
48.5008
48.5319
48.7425
48.7323
48.9026
48.8413
48.9714
48.8739
48.9826
48.9329
49.0531
49.0173
49.1239
49.0596
49.1364
49.0323
49.0761
48.9431
49.0013
48.8494
48.9091
48.6903
48.7656
48.4174
48.4905
47.922
47.8968
46.9946
46.7457
45.3289
44.5953
42.5704
40.8636
38.3317
34.9936
31.8661
26.7971
22.1271
50.3463
49.9123
48.2483
46.8596
46.0037
45.6648
45.7205
45.9825
46.2973
46.5811
46.8007
46.9474
47.0209
47.0308
46.9921
46.9228
46.8383
46.7517
46.6712
46.6015
46.5443
46.4999
46.4663
46.4419
46.4238
46.4098
46.397
46.3836
46.3678
46.3485
46.3243
46.2951
46.2603
46.2204
46.1752
46.1257
46.0722
46.0159
45.9572
45.8973
45.8365
45.7762
45.7165
45.6588
45.6032
45.5508
45.5014
45.4557
45.4124
45.3717
45.3315
45.2915
45.249
45.2035
45.1525
45.096
45.0321
44.9618
44.8841
44.8012
44.7135
44.6239
44.5339
44.4471
44.3647
44.2902
44.2248
44.1713
44.1302
44.1036
44.0894
44.0872
44.0916
44.0984
44.1029
44.1049
44.1017
44.0942
44.0777
44.0499
44.0089
43.9552
43.8874
43.8083
43.7237
43.6358
43.5488
43.4597
43.3762
43.309
43.2753
43.2812
43.3276
43.4116
43.5244
43.6556
43.7995
43.9547
44.1149
44.2791
44.4382
44.5876
44.7161
44.8266
44.9093
44.9757
45.023
45.0522
45.0639
45.0635
45.0575
45.0409
45.0178
44.9899
44.974
44.9708
44.9823
45.002
45.0267
45.0632
45.1119
45.1708
45.2353
45.3052
45.3698
45.4296
45.4864
45.5453
45.6106
45.6773
45.7469
45.8102
45.8723
45.932
45.9941
46.0513
46.1199
46.1786
46.2482
46.3062
46.3788
46.4488
46.5413
46.6262
46.7388
46.8335
46.9385
47.0063
47.0872
47.1046
47.1597
47.2052
47.2879
47.3443
47.5044
47.6
47.79
47.9212
48.1641
48.2476
48.5134
48.5887
48.8359
48.86
49.0658
49.0573
49.2151
49.1407
49.2451
49.1378
49.229
49.2003
49.3167
49.293
49.3869
49.3202
49.3824
49.2408
49.2415
49.0693
49.0592
48.8433
48.8095
48.5144
48.4923
48.0473
48.0333
47.3455
47.203
46.2303
45.8461
44.4737
43.6275
41.854
40.1323
38.1283
35.1081
32.4558
28.2586
24.0354
50.8264
50.3467
48.4332
46.8069
45.8143
45.4465
45.5521
45.9021
46.3016
46.6505
46.9101
47.0756
47.1509
47.1523
47.0994
47.0169
46.9222
46.83
46.7473
46.6789
46.6251
46.5859
46.5582
46.5405
46.5285
46.5204
46.5125
46.5038
46.4915
46.4758
46.4549
46.4296
46.3988
46.3638
46.3239
46.2808
46.2338
46.1846
46.1327
46.0799
46.0257
45.972
45.918
45.8657
45.8141
45.765
45.7171
45.6719
45.6278
45.5861
45.5447
45.5043
45.4622
45.4189
45.3717
45.3212
45.2648
45.2037
45.1363
45.065
44.9891
44.9119
44.8336
44.7582
44.6862
44.6214
44.5637
44.516
44.4772
44.4502
44.432
44.4225
44.4152
44.4088
44.3983
44.3861
44.3711
44.3554
44.3325
44.3008
44.2567
44.1998
44.1275
44.0433
43.9524
43.8593
43.7669
43.6707
43.5838
43.5124
43.4784
43.4884
43.543
43.6355
43.7548
43.8906
44.0411
44.2036
44.3749
44.5505
44.7246
44.8911
45.0351
45.1557
45.2456
45.3176
45.3659
45.3916
45.3986
45.3952
45.3891
45.3726
45.3513
45.3279
45.3163
45.3219
45.3426
45.3737
45.4138
45.4695
45.5402
45.6246
45.7108
45.8022
45.881
45.9541
46.021
46.0869
46.1591
46.2277
46.2988
46.3623
46.422
46.4867
46.5464
46.6063
46.6751
46.7328
46.8036
46.8635
46.9358
47.0138
47.1088
47.1989
47.3202
47.4123
47.5318
47.5895
47.6855
47.668
47.7234
47.7548
47.8237
47.8784
48.0367
48.1046
48.3096
48.4161
48.6813
48.7241
49.0253
49.0874
49.3506
49.341
49.5799
49.5549
49.7367
49.6093
49.7077
49.5915
49.6892
49.6725
49.7843
49.7743
49.8618
49.7948
49.8495
49.6474
49.6253
49.4051
49.3468
49.0493
48.9627
48.5668
48.464
47.9751
47.8788
47.179
46.9704
45.9421
45.4968
44.1958
43.3081
41.7977
40.1186
38.4598
35.7735
33.3467
29.8012
25.998
51.0672
50.6243
48.6391
46.9047
45.8211
45.3949
45.4926
45.8778
46.3264
46.7188
47.0078
47.1879
47.2646
47.2585
47.194
47.1005
46.9976
46.9013
46.8178
46.7516
46.7017
46.6679
46.646
46.6343
46.6276
46.6243
46.6203
46.6151
46.6057
46.5929
46.5747
46.5526
46.5252
46.4944
46.4591
46.421
46.3793
46.3358
46.2895
46.2426
46.1938
46.1455
46.0962
46.0481
46
45.9536
45.9078
45.8642
45.821
45.78
45.7391
45.6997
45.6596
45.6196
45.577
45.5327
45.4836
45.431
45.3729
45.3119
45.2468
45.1806
45.113
45.0485
44.9865
44.9309
44.8812
44.8399
44.8047
44.7789
44.758
44.7407
44.7215
44.7022
44.6793
44.6547
44.6298
44.6082
44.5824
44.5501
44.5062
44.4493
44.3771
44.2926
44.1992
44.1009
44.0046
43.9034
43.8164
43.7446
43.7154
43.7314
43.7983
43.9006
44.0286
44.1693
44.3291
44.4997
44.6817
44.8682
45.0596
45.2446
45.4068
45.5379
45.6367
45.712
45.76
45.7816
45.7853
45.7799
45.7736
45.7568
45.7391
45.7219
45.7182
45.7346
45.7678
45.8144
45.8743
45.9525
46.0494
46.1606
46.2746
46.3889
46.4874
46.5773
46.6569
46.73
46.8064
46.8754
46.9486
47.0102
47.0734
47.1404
47.2023
47.2641
47.3371
47.3923
47.471
47.5321
47.6108
47.6962
47.8013
47.8982
48.0376
48.1236
48.2721
48.3155
48.4379
48.3632
48.452
48.4453
48.5311
48.57
48.7333
48.7609
48.9999
49.0678
49.3747
49.3514
49.723
49.7289
50.0657
49.9604
50.2903
50.2289
50.4793
50.2417
50.3724
50.2094
50.3582
50.3394
50.4832
50.4562
50.5559
50.4649
50.5294
50.2354
50.2303
49.9571
49.8707
49.4722
49.3376
48.8597
48.7461
48.2505
48.1399
47.3459
47.1393
46.0373
45.5857
44.3673
43.4541
42.1625
40.5669
39.0815
36.7
34.3959
31.3055
27.8957
51.2157
50.7929
48.7851
47.0006
45.8726
45.4119
45.502
45.9027
46.3763
46.791
47.0946
47.2812
47.3563
47.3428
47.2698
47.1694
47.0628
46.966
46.8844
46.8218
46.7767
46.7482
46.7318
46.7249
46.7224
46.7224
46.721
46.7178
46.7104
46.6996
46.6838
46.6643
46.64
46.6127
46.5814
46.5476
46.5106
46.4719
46.4305
46.3883
46.3443
46.3002
46.2552
46.2109
46.1663
46.123
46.0798
46.0383
45.9973
45.9583
45.9196
45.8825
45.8451
45.8086
45.7709
45.7326
45.6909
45.6466
45.5981
45.5472
45.4926
45.4371
45.3807
45.3269
45.2745
45.2274
45.186
45.1514
45.1203
45.0947
45.0702
45.0444
45.0144
44.9836
44.9494
44.9154
44.8842
44.8589
44.8335
44.8056
44.7676
44.716
44.6486
44.5674
44.4761
44.3763
44.2785
44.1759
44.0925
44.0237
44.0063
44.0282
44.1085
44.2197
44.3571
44.5022
44.6745
44.8535
45.0464
45.2407
45.4501
45.6506
45.8301
45.9699
46.0759
46.151
46.1979
46.2165
46.2213
46.2167
46.2118
46.1973
46.1884
46.1776
46.1876
46.2146
46.2673
46.3289
46.4154
46.5172
46.6452
46.7815
46.9262
47.0596
47.1857
47.2916
47.389
47.469
47.55
47.6149
47.6907
47.7461
47.818
47.8806
47.9532
48.0155
48.0948
48.1526
48.2408
48.3055
48.3984
48.4911
48.6159
48.7156
48.8795
48.9578
49.1434
49.166
49.312
49.1719
49.3259
49.2691
49.4037
49.3972
49.591
49.579
49.8565
49.8762
50.2021
50.1268
50.5762
50.5197
50.9148
50.7561
51.1994
51.0769
51.4048
51.0498
51.2542
51.0129
51.2648
51.1858
51.3944
51.3333
51.4596
51.3538
51.4251
51.0121
51.0162
50.708
50.5466
50.1159
49.9436
49.4915
49.3987
48.7958
48.6554
47.7571
47.631
46.4598
45.9952
44.8625
43.9256
42.7785
41.3181
39.8727
37.7231
35.524
32.7507
29.6847
51.2722
50.8474
48.8369
47.0558
45.9365
45.4871
45.59
45.9997
46.4767
46.8886
47.1858
47.3634
47.4283
47.4056
47.3269
47.2244
47.1193
47.026
46.9495
46.8924
46.8531
46.8297
46.8178
46.8141
46.8142
46.8158
46.8158
46.8137
46.8077
46.7982
46.7844
46.7672
46.7459
46.7218
46.6942
46.6643
46.6315
46.5971
46.5603
46.5225
46.4829
46.4428
46.4016
46.3607
46.3194
46.2792
46.2392
46.2008
46.1632
46.1272
46.0917
46.0576
46.0241
45.9918
45.9591
45.9263
45.8918
45.8559
45.817
45.7762
45.7323
45.6876
45.6429
45.6002
45.5586
45.5211
45.4887
45.4603
45.432
45.405
45.3758
45.3419
45.3015
45.2579
45.212
45.1699
45.1352
45.1114
45.0931
45.0756
45.0492
45.01
44.9541
44.8814
44.795
44.697
44.6003
44.5016
44.4255
44.3674
44.3671
44.3956
44.4894
44.6046
44.7491
44.8939
45.0781
45.2632
45.4666
45.6662
45.8943
46.1073
46.3032
46.4489
46.5597
46.6256
46.674
46.687
46.6989
46.697
46.6994
46.6901
46.6952
46.6952
46.727
46.7674
46.8462
46.9249
47.044
47.1677
47.3291
47.4891
47.6679
47.8203
47.9723
48.0919
48.2114
48.2982
48.3883
48.4532
48.5264
48.5788
48.657
48.716
48.7977
48.8659
48.9503
49.018
49.1147
49.1864
49.2901
49.3912
49.5334
49.6463
49.8219
49.9052
50.1096
50.1383
50.2487
50.0882
50.3318
50.198
50.3991
50.3344
50.5701
50.5362
50.8309
50.8475
51.1347
51.0399
51.5576
51.4686
51.8816
51.7389
52.2467
52.0958
52.4421
52.0227
52.2653
51.9749
52.3612
52.2414
52.5009
52.3935
52.5463
52.4491
52.4242
51.9893
51.9847
51.5688
51.4127
50.9976
50.7932
50.309
50.1371
49.5163
49.3793
48.496
48.2304
47.139
46.6422
45.5987
44.6814
43.5614
42.2335
40.7593
38.7947
36.7022
34.1608
31.3768
51.2222
50.7882
48.8094
47.0898
46.0332
45.6423
45.7787
46.1866
46.6395
47.0191
47.2853
47.4355
47.4801
47.446
47.3649
47.2658
47.1678
47.0826
47.0146
46.9653
46.9326
46.9141
46.9055
46.9036
46.9045
46.9062
46.9064
46.9044
46.8991
46.8908
46.8788
46.8638
46.8454
46.8244
46.8005
46.7744
46.746
46.7158
46.6836
46.6501
46.6147
46.5785
46.5411
46.5039
46.4664
46.4299
46.3941
46.3598
46.3262
46.294
46.2627
46.2328
46.2039
46.1766
46.1497
46.1231
46.0956
46.0674
46.0381
46.0077
45.9749
45.9411
45.9082
45.8772
45.8474
45.821
45.798
45.7755
45.7503
45.7225
45.6884
45.645
45.5937
45.5389
45.4848
45.439
45.4047
45.3847
45.3764
45.3728
45.3633
45.343
45.3048
45.2449
45.1664
45.0761
44.9854
44.8956
44.8273
44.7847
44.8016
44.842
44.9463
45.061
45.2049
45.3497
45.5463
45.7336
45.944
46.1485
46.3958
46.6162
46.8276
46.9739
47.0868
47.1414
47.1887
47.1981
47.224
47.2245
47.2395
47.2377
47.262
47.2791
47.3386
47.3976
47.5073
47.6103
47.7653
47.9131
48.1088
48.2877
48.4941
48.6621
48.8411
48.9731
49.1156
49.2121
49.3149
49.379
49.4569
49.5104
49.5938
49.6587
49.7517
49.8276
49.9183
49.9975
50.0961
50.1749
50.2922
50.4008
50.5509
50.6842
50.8622
50.9752
51.1606
51.2275
51.2681
51.1436
51.4034
51.2259
51.4761
51.4086
51.6867
51.6394
51.9099
51.9497
52.1806
52.1123
52.6243
52.5529
53.0281
52.9541
53.4176
53.3398
53.571
53.15
53.4475
53.0862
53.5941
53.4286
53.732
53.6204
53.7632
53.628
53.5807
53.1427
53.0887
52.5854
52.4697
51.9979
51.7326
51.339
51.0718
50.633
50.1854
49.4231
48.9849
48.0194
47.487
46.5034
45.6388
44.4802
43.2621
41.713
39.9125
37.9093
35.5475
32.9907
51.0182
50.5797
48.7046
47.1287
46.1973
45.9043
46.076
46.4578
46.8542
47.1717
47.3833
47.4899
47.507
47.462
47.3827
47.2929
47.2075
47.1352
47.0789
47.039
47.0132
46.9987
46.9919
46.99
46.99
46.9905
46.9897
46.9871
46.982
46.9744
46.9639
46.9509
46.9352
46.9173
46.8971
46.8752
46.8512
46.8255
46.7981
46.7691
46.7382
46.7061
46.6727
46.6393
46.6067
46.5754
46.5448
46.5149
46.486
46.4584
46.4319
46.4068
46.3833
46.3618
46.3414
46.322
46.3032
46.2851
46.2668
46.2464
46.2239
46.2019
46.1814
46.1626
46.1456
46.1307
46.1166
46.1003
46.0789
46.0506
46.0128
45.9643
45.9062
45.843
45.782
45.734
45.7038
45.6937
45.6997
45.7138
45.7261
45.7282
45.7098
45.6655
45.5975
45.5195
45.437
45.3594
45.3029
45.2812
45.3093
45.3576
45.4656
45.5788
45.7194
45.8761
46.0842
46.276
46.4913
46.7054
46.9615
47.1815
47.3993
47.5456
47.6597
47.707
47.7559
47.7678
47.8065
47.8155
47.8475
47.8567
47.9019
47.9401
48.0274
48.1106
48.2522
48.3837
48.5729
48.7489
48.9727
49.1708
49.3972
49.5793
49.7779
49.9217
50.0836
50.1966
50.313
50.3837
50.4711
50.5335
50.6288
50.7031
50.8121
50.8992
50.9983
51.0879
51.1767
51.2639
51.3809
51.5037
51.6577
51.8245
51.9885
52.1389
52.2985
52.3922
52.3876
52.383
52.5428
52.3718
52.6481
52.6028
52.8817
52.852
53.094
53.1842
53.3156
53.3749
53.7614
53.7764
54.2852
54.3489
54.7143
54.6732
54.8232
54.4717
54.736
54.5093
54.9106
54.7188
55.0309
54.9525
55.0684
54.9128
54.7601
54.3324
54.2868
53.7404
53.5559
53.1278
52.8147
52.5841
52.1042
51.8655
51.1267
50.6271
49.8824
49.0932
48.4653
47.5788
46.7538
45.5326
44.382
42.7357
41.0676
39.1134
36.9015
34.5227
50.5543
50.1405
48.5306
47.2263
46.4943
46.3077
46.4833
46.7983
47.1022
47.3305
47.4687
47.5233
47.5125
47.46
47.3875
47.3116
47.2426
47.1856
47.1421
47.1113
47.091
47.0788
47.0719
47.0683
47.0662
47.0645
47.0621
47.0586
47.0535
47.0465
47.0374
47.0264
47.0133
46.9984
46.9819
46.9639
46.9443
46.9234
46.9009
46.8766
46.8503
46.8229
46.7948
46.7664
46.7386
46.7127
46.6884
46.6651
46.6419
46.6191
46.5975
46.5783
46.5618
46.5474
46.5344
46.5235
46.5143
46.5065
46.4994
46.4916
46.4823
46.4723
46.4635
46.4568
46.4518
46.4472
46.4412
46.431
46.414
46.388
46.3492
46.2973
46.2358
46.1687
46.1045
46.0581
46.0372
46.0414
46.0651
46.0998
46.1348
46.1589
46.1588
46.1301
46.0767
46.0154
45.9432
45.8856
45.843
45.8404
45.8766
45.9363
46.0419
46.1479
46.2863
46.4646
46.6809
46.88
47.0962
47.3276
47.579
47.7978
48.0109
48.1578
48.2706
48.326
48.3742
48.3988
48.4496
48.4785
48.5299
48.5612
48.6248
48.6872
48.7974
48.9137
49.0775
49.2427
49.4515
49.6589
49.8943
50.113
50.3498
50.5507
50.7615
50.9232
51.0984
51.2296
51.3637
51.4464
51.554
51.6339
51.7408
51.8354
51.9528
52.0489
52.1541
52.2448
52.3251
52.4233
52.5402
52.6805
52.8469
53.0499
53.1991
53.3853
53.5013
53.603
53.6251
53.6965
53.7324
53.7246
53.9085
53.9183
54.1758
54.1557
54.3496
54.4751
54.5861
54.7623
54.963
55.2302
55.6659
55.7791
56.0255
56.0088
56.0978
55.9188
56.1371
56.0764
56.2675
56.1824
56.355
56.3263
56.3325
56.1605
55.98
55.6753
55.5204
55.0149
54.7688
54.4303
54.0216
53.8955
53.3023
53.1338
52.1391
51.9112
50.917
50.3369
49.5486
48.8295
47.922
46.6913
45.5661
43.8423
42.2517
40.3118
38.2389
35.9928
49.7952
49.4746
48.3419
47.4365
46.9453
46.8354
46.9586
47.1584
47.3393
47.4642
47.5271
47.5352
47.5036
47.4494
47.3872
47.3269
47.2742
47.2314
47.1985
47.1744
47.1571
47.1451
47.1367
47.1307
47.1262
47.1223
47.1185
47.1143
47.1093
47.1031
47.0953
47.0859
47.075
47.0628
47.0494
47.0352
47.0204
47.0044
46.9867
46.9671
46.946
46.9234
46.9005
46.8783
46.8569
46.8368
46.8187
46.8025
46.7869
46.7708
46.7555
46.7437
46.736
46.7308
46.727
46.7253
46.7262
46.7291
46.7319
46.7334
46.7349
46.7381
46.7426
46.7478
46.7526
46.7562
46.7572
46.7523
46.7396
46.7169
46.6804
46.6313
46.5713
46.5054
46.4463
46.409
46.4014
46.4212
46.4603
46.5098
46.5596
46.5991
46.6156
46.6048
46.5706
46.5321
46.4731
46.4452
46.4235
46.4402
46.4798
46.5531
46.6478
46.7563
46.9013
47.0929
47.3042
47.5137
47.7367
47.9848
48.2237
48.4441
48.6421
48.7956
48.9064
48.9808
49.0307
49.0803
49.1382
49.1986
49.265
49.3314
49.409
49.5048
49.6283
49.7812
49.9591
50.1559
50.3708
50.6019
50.8333
51.0741
51.307
51.5261
51.7385
51.9289
52.1121
52.279
52.4207
52.5391
52.6549
52.764
52.8763
52.9979
53.1114
53.2308
53.3315
53.4332
53.5137
53.6309
53.7466
53.9124
54.0824
54.301
54.4491
54.682
54.7316
54.8794
54.8702
54.991
55.0092
55.1372
55.2081
55.3209
55.4376
55.4984
55.666
55.8235
55.8795
56.1924
56.305
56.7916
56.9586
57.1532
57.2752
57.3582
57.4207
57.4671
57.5387
57.5633
57.5861
57.6672
57.6559
57.6882
57.5838
57.4608
57.1557
57.0665
56.6783
56.408
56.0034
55.7803
55.3197
55.2728
54.4539
54.2617
53.237
53.1386
51.9684
51.6861
50.6676
50.0856
49.0047
47.895
46.7141
44.9777
43.4054
41.4931
39.5361
37.374
48.9623
48.7964
48.2456
47.7766
47.4976
47.3957
47.4074
47.4647
47.5209
47.5538
47.5565
47.5322
47.4897
47.4387
47.3872
47.3402
47.3001
47.2673
47.241
47.2202
47.2037
47.1907
47.1805
47.1724
47.1659
47.1606
47.1558
47.1512
47.1463
47.1407
47.1338
47.1256
47.1165
47.107
47.097
47.086
47.0744
47.0627
47.0501
47.0354
47.0189
47.0022
46.9858
46.9694
46.954
46.9415
46.9318
46.9234
46.9154
46.9075
46.9018
46.8997
46.9011
46.9047
46.9105
46.9187
46.9288
46.9404
46.9528
46.9648
46.9752
46.9855
46.9973
47.0106
47.0229
47.0317
47.0363
47.0356
47.0275
47.009
46.9786
46.9385
46.89
46.8379
46.793
46.7698
46.7756
46.8067
46.8553
46.9111
46.9659
47.0129
47.0415
47.0498
47.0407
47.0346
47.0031
47.007
47.0034
47.0414