/*--------------------------------*- C++ -*----------------------------------*\
| =========                 |                                                 |
| \\      /  F ield         | OpenFOAM: The Open Source CFD Toolbox           |
|  \\    /   O peration     | Version:  2.4.0                                 |
|   \\  /    A nd           | Web:      www.OpenFOAM.org                      |
|    \\/     M anipulation  |                                                 |
\*---------------------------------------------------------------------------*/
FoamFile
{
    version     2.0;
    format      ascii;
    class       volVectorField;
    location    "1.69";
    object      U_0;
}
// * * * * * * * * * * * * * * * * * * * * * * * * * * * * * * * * * * * * * //

dimensions      [0 1 -1 0 0 0 0];

internalField   nonuniform List<vector> 
8800
(
(8.09285 0.387846 0)
(5.45201 0.242652 0)
(3.90825 0.0431108 0)
(3.16156 -0.0157276 0)
(2.79367 -0.0180954 0)
(2.60915 -0.0114168 0)
(2.47182 -0.00512979 0)
(2.39304 -0.00266593 0)
(2.30544 -0.00147967 0)
(2.26429 -0.000385757 0)
(2.19982 -0.000694681 0)
(2.18447 -0.000652822 0)
(2.12444 0.00106437 0)
(2.11852 -0.000740311 0)
(2.05525 0.00132705 0)
(2.05708 -0.000514664 0)
(1.9889 0.00105831 0)
(1.98853 -0.00078162 0)
(1.97327 0.0108543 0)
(1.76724 -0.0700081 0)
(10.0822 0.837862 0)
(9.6685 0.868546 0)
(8.85726 0.506971 0)
(8.10433 0.261462 0)
(7.46634 0.138579 0)
(7.04145 0.0810668 0)
(6.6589 0.0556645 0)
(6.44044 0.0397478 0)
(6.18336 0.029864 0)
(6.06753 0.0253114 0)
(5.87935 0.0183934 0)
(5.83051 0.0156803 0)
(5.66356 0.0190703 0)
(5.65611 0.0123447 0)
(5.48628 0.0189875 0)
(5.50151 0.0112366 0)
(5.33295 0.0219842 0)
(5.33213 -0.00179032 0)
(5.26713 0.0307929 0)
(5.13199 -0.0258598 0)
(10.048 0.629327 0)
(10.6861 0.865422 0)
(10.8338 0.600909 0)
(10.7355 0.373441 0)
(10.4057 0.256038 0)
(10.1494 0.195398 0)
(9.77004 0.155654 0)
(9.56969 0.121724 0)
(9.24107 0.0945539 0)
(9.10969 0.0781407 0)
(8.84844 0.05872 0)
(8.78258 0.0492429 0)
(8.54939 0.0496443 0)
(8.54219 0.0360108 0)
(8.30531 0.0461637 0)
(8.33372 0.0304762 0)
(8.09864 0.0501163 0)
(8.10885 0.00983959 0)
(7.99829 0.039471 0)
(7.89661 -0.078046 0)
(9.95446 0.453979 0)
(10.6313 0.710739 0)
(11.0983 0.54306 0)
(11.4554 0.354232 0)
(11.4677 0.259962 0)
(11.5603 0.226479 0)
(11.3923 0.203576 0)
(11.4061 0.173709 0)
(11.199 0.149924 0)
(11.1781 0.127405 0)
(10.9821 0.105354 0)
(10.9616 0.0895022 0)
(10.7648 0.0906869 0)
(10.7756 0.0663745 0)
(10.5495 0.0823707 0)
(10.5941 0.0562743 0)
(10.367 0.0898566 0)
(10.3418 0.0232588 0)
(10.2808 0.0704191 0)
(10.1821 -0.0836832 0)
(9.94455 0.338397 0)
(10.5075 0.577958 0)
(10.9438 0.456844 0)
(11.4125 0.297484 0)
(11.5406 0.208212 0)
(11.7836 0.18967 0)
(11.7847 0.18317 0)
(11.9215 0.165661 0)
(11.8951 0.148741 0)
(11.9895 0.137683 0)
(11.9533 0.109133 0)
(11.9995 0.105089 0)
(11.9613 0.0982598 0)
(12.0148 0.0904715 0)
(11.9081 0.0901452 0)
(11.9773 0.0835128 0)
(11.8919 0.105132 0)
(11.8175 0.065039 0)
(11.8508 0.0624088 0)
(11.8238 0.0196257 0)
(9.98025 0.248364 0)
(10.3927 0.460861 0)
(10.8105 0.37196 0)
(11.2647 0.255139 0)
(11.4559 0.157559 0)
(11.6611 0.14677 0)
(11.7544 0.151441 0)
(11.8821 0.134641 0)
(11.9301 0.126294 0)
(12.0657 0.111545 0)
(12.1115 0.0988794 0)
(12.1622 0.0880447 0)
(12.2604 0.0856069 0)
(12.3211 0.0787697 0)
(12.3359 0.0848572 0)
(12.424 0.0693171 0)
(12.4425 0.113142 0)
(12.4428 0.0751051 0)
(12.5066 0.0880998 0)
(12.5449 0.0447795 0)
(9.9848 0.167539 0)
(10.3313 0.367801 0)
(10.7165 0.279176 0)
(11.155 0.206991 0)
(11.3585 0.130488 0)
(11.5636 0.103796 0)
(11.6962 0.110075 0)
(11.7883 0.11646 0)
(11.8169 0.0821105 0)
(11.9833 0.104558 0)
(12.0444 0.0629276 0)
(12.113 0.0852927 0)
(12.2262 0.0380226 0)
(12.2489 0.0937709 0)
(12.3435 0.0374553 0)
(12.4186 0.0866433 0)
(12.4541 0.0632184 0)
(12.5579 0.107229 0)
(12.5455 0.0594748 0)
(12.553 0.248048 0)
(10.0071 0.10794 0)
(10.2339 0.263807 0)
(10.6953 0.185939 0)
(11.0222 0.177289 0)
(11.3027 0.0706703 0)
(11.5395 0.0828608 0)
(11.5983 0.0599644 0)
(11.7199 0.115899 0)
(11.7677 0.0374884 0)
(11.9212 0.0789595 0)
(11.9624 0.0340192 0)
(12.0427 0.0782475 0)
(12.1326 0.0183405 0)
(12.2174 0.0843134 0)
(12.274 0.00214801 0)
(12.3315 0.0867837 0)
(12.4416 0.0253807 0)
(12.4747 0.118303 0)
(12.4394 0.0702978 0)
(12.5035 0.218317 0)
(9.99148 0.0621744 0)
(10.2487 0.16258 0)
(10.6035 0.106917 0)
(11.0265 0.105279 0)
(11.2361 0.0496122 0)
(11.4708 0.0299284 0)
(11.5544 0.0579013 0)
(11.7012 0.0528605 0)
(11.7758 0.0210356 0)
(11.8064 0.0491135 0)
(11.8998 0.0321957 0)
(12.031 0.0365475 0)
(12.0951 0.00703336 0)
(12.1682 0.0447688 0)
(12.2071 0.0245807 0)
(12.3097 0.0192263 0)
(12.4094 0.0466664 0)
(12.3822 0.0670661 0)
(12.4645 0.0524994 0)
(12.453 0.0178821 0)
(9.97901 0.0172677 0)
(10.2137 0.0604373 0)
(10.6506 0.0152784 0)
(10.9249 0.0590636 0)
(11.2776 0.00654307 0)
(11.4184 0.0182489 0)
(11.5414 -0.00573467 0)
(11.696 0.0349694 0)
(11.7238 0.00481807 0)
(11.7938 0.0312621 0)
(11.9063 -0.0157806 0)
(12.017 0.0217519 0)
(12.0378 -0.00163467 0)
(12.1158 0.041046 0)
(12.2471 -0.018101 0)
(12.3101 0.0121525 0)
(12.2979 0.0152154 0)
(12.4228 0.0508889 0)
(12.4869 0.00347278 0)
(12.3412 0.0316189 0)
(9.98887 -0.0173446 0)
(10.2605 -0.0498067 0)
(10.5749 -0.0557694 0)
(10.9515 -0.0129983 0)
(11.2763 -0.0182743 0)
(11.4404 -0.0213859 0)
(11.5189 -0.0157519 0)
(11.652 -0.0185001 0)
(11.7613 -0.0121394 0)
(11.815 -0.00603318 0)
(11.8986 -0.0210915 0)
(11.9684 0.00036665 0)
(12.0459 -0.00522499 0)
(12.1645 -0.0132303 0)
(12.2527 -0.0184089 0)
(12.2403 -0.00420744 0)
(12.3233 0.00216404 0)
(12.4553 -0.0113009 0)
(12.4293 0.00734251 0)
(12.3603 0.0150715 0)
(9.99437 -0.0703245 0)
(10.2669 -0.139828 0)
(10.5998 -0.134239 0)
(10.9657 -0.0853961 0)
(11.2934 -0.0556323 0)
(11.4576 -0.0317551 0)
(11.5768 -0.0556928 0)
(11.6818 -0.0617114 0)
(11.7301 -0.0351761 0)
(11.8282 -0.0243095 0)
(11.9461 -0.0394495 0)
(11.9853 -0.0270967 0)
(12.0935 -0.0328421 0)
(12.1963 -0.0254402 0)
(12.213 -0.0232279 0)
(12.2897 -0.0305366 0)
(12.3893 -0.0430036 0)
(12.4014 -0.0180824 0)
(12.4714 -0.0221693 0)
(12.4206 -0.0258991 0)
(10.0076 -0.118942 0)
(10.2689 -0.2444 0)
(10.6688 -0.209066 0)
(11.035 -0.14741 0)
(11.3023 -0.0888109 0)
(11.4983 -0.0795537 0)
(11.6434 -0.0776948 0)
(11.7052 -0.0799853 0)
(11.7611 -0.0586202 0)
(11.8932 -0.0687772 0)
(11.9827 -0.0581024 0)
(12.0518 -0.0418316 0)
(12.119 -0.046935 0)
(12.1979 -0.0485702 0)
(12.2944 -0.0408034 0)
(12.3707 -0.057494 0)
(12.385 -0.0445531 0)
(12.4646 -0.0635968 0)
(12.5215 -0.0500739 0)
(12.4172 -0.0204817 0)
(10.0267 -0.178867 0)
(10.2864 -0.348274 0)
(10.7569 -0.293663 0)
(11.103 -0.201882 0)
(11.4131 -0.121651 0)
(11.5466 -0.113915 0)
(11.68 -0.109214 0)
(11.7699 -0.117907 0)
(11.8763 -0.0847524 0)
(11.9456 -0.0953215 0)
(12.0472 -0.0719739 0)
(12.1078 -0.0688568 0)
(12.1989 -0.0595604 0)
(12.2767 -0.0769803 0)
(12.3619 -0.0580356 0)
(12.3987 -0.0720058 0)
(12.4815 -0.0720061 0)
(12.5226 -0.0901166 0)
(12.5665 -0.0746237 0)
(12.5396 -0.0715454 0)
(10.0675 -0.255561 0)
(10.31 -0.450006 0)
(10.8974 -0.37906 0)
(11.176 -0.24977 0)
(11.5412 -0.162564 0)
(11.6018 -0.14992 0)
(11.8107 -0.142434 0)
(11.825 -0.146529 0)
(11.9801 -0.111124 0)
(11.9952 -0.121931 0)
(12.1545 -0.0947831 0)
(12.1492 -0.0900442 0)
(12.2808 -0.0782939 0)
(12.2892 -0.0986321 0)
(12.3838 -0.0665219 0)
(12.3777 -0.0984783 0)
(12.4671 -0.0828877 0)
(12.4496 -0.12208 0)
(12.4986 -0.101273 0)
(12.3977 -0.104727 0)
(10.0613 -0.350026 0)
(10.3838 -0.562101 0)
(11.0622 -0.465001 0)
(11.2962 -0.294286 0)
(11.6681 -0.208941 0)
(11.6564 -0.190051 0)
(11.8951 -0.180985 0)
(11.8091 -0.17145 0)
(11.9945 -0.140072 0)
(11.8872 -0.1411 0)
(12.0456 -0.114302 0)
(11.9139 -0.102552 0)
(12.0499 -0.092717 0)
(11.9095 -0.105656 0)
(12.0205 -0.0767949 0)
(11.8679 -0.103457 0)
(11.955 -0.0892799 0)
(11.7905 -0.129206 0)
(11.8169 -0.103974 0)
(11.5971 -0.138748 0)
(10.0119 -0.458829 0)
(10.5563 -0.702929 0)
(11.1815 -0.548411 0)
(11.3602 -0.352528 0)
(11.5682 -0.260435 0)
(11.4439 -0.22687 0)
(11.5094 -0.20224 0)
(11.2787 -0.177594 0)
(11.3192 -0.143945 0)
(11.0582 -0.132164 0)
(11.0966 -0.105799 0)
(10.8385 -0.0908136 0)
(10.8951 -0.0804212 0)
(10.6249 -0.0869118 0)
(10.7024 -0.0625353 0)
(10.4277 -0.0846621 0)
(10.4978 -0.0679607 0)
(10.2099 -0.110247 0)
(10.2371 -0.0807534 0)
(9.91475 -0.141628 0)
(10.0652 -0.632977 0)
(10.6542 -0.861957 0)
(10.8737 -0.602298 0)
(10.6817 -0.373216 0)
(10.4651 -0.255233 0)
(10.0762 -0.196304 0)
(9.85011 -0.154659 0)
(9.47653 -0.123386 0)
(9.33708 -0.0923159 0)
(9.00973 -0.0790927 0)
(8.94604 -0.0605544 0)
(8.67241 -0.0495815 0)
(8.66865 -0.0434062 0)
(8.40158 -0.0483347 0)
(8.44532 -0.0357854 0)
(8.17385 -0.0474117 0)
(8.2249 -0.0441912 0)
(7.93154 -0.0658516 0)
(7.95293 -0.0600861 0)
(7.6235 -0.0771522 0)
(10.0849 -0.838865 0)
(9.65525 -0.867204 0)
(8.87355 -0.507143 0)
(8.078 -0.261765 0)
(7.49751 -0.137792 0)
(7.00176 -0.0821008 0)
(6.70373 -0.054636 0)
(6.38695 -0.041244 0)
(6.24032 -0.0284174 0)
(6.00582 -0.0256411 0)
(5.94124 -0.0195992 0)
(5.75691 -0.0161842 0)
(5.7429 -0.0144772 0)
(5.56206 -0.0199729 0)
(5.57806 -0.0134059 0)
(5.38949 -0.0209698 0)
(5.40962 -0.0199241 0)
(5.1913 -0.0307358 0)
(5.19647 -0.0325507 0)
(4.92048 -0.0115027 0)
(8.09134 -0.38806 0)
(5.44874 -0.242419 0)
(3.91177 -0.0429441 0)
(3.15586 0.0153905 0)
(2.80209 0.0182932 0)
(2.59686 0.0111034 0)
(2.48632 0.00556607 0)
(2.3754 0.00206944 0)
(2.32345 0.00213009 0)
(2.24501 0.000234508 0)
(2.21987 0.000380385 0)
(2.15805 0.000474915 0)
(2.15255 0.000491997 0)
(2.08715 -0.0015965 0)
(2.08414 0.000371929 0)
(2.0148 -0.00190896 0)
(2.00921 -0.000818233 0)
(1.92081 -0.00367732 0)
(1.89214 -0.00304439 0)
(1.75484 0.011426 0)
(2.22425 -0.0976829 0)
(2.31814 0.0367047 0)
(2.43487 0.0826738 0)
(2.54247 0.0785734 0)
(2.64316 0.0459551 0)
(2.73263 0.0161562 0)
(2.8171 -0.0074436 0)
(2.89526 -0.0172319 0)
(2.96212 -0.0191586 0)
(3.02611 -0.0125757 0)
(3.07258 0.000584692 0)
(3.11564 0.00850621 0)
(3.1347 0.0285095 0)
(3.1689 0.0379538 0)
(3.17135 0.0522626 0)
(3.2011 0.0761456 0)
(3.21048 0.103057 0)
(3.23186 0.153069 0)
(3.27624 0.215008 0)
(3.33723 0.304879 0)
(3.41914 0.411552 0)
(3.62454 0.497016 0)
(3.82866 0.61475 0)
(4.14018 0.653776 0)
(4.52845 0.657808 0)
(4.80862 0.637369 0)
(5.19155 0.503809 0)
(5.45241 0.347998 0)
(5.6285 0.158437 0)
(5.75933 -0.0377133 0)
(5.7648 -0.191099 0)
(5.73256 -0.281703 0)
(5.65328 -0.312347 0)
(5.69192 -0.319452 0)
(5.72156 -0.299384 0)
(5.82741 -0.306261 0)
(6.01856 -0.332686 0)
(6.22046 -0.411399 0)
(6.46027 -0.491941 0)
(6.6467 -0.558584 0)
(6.89182 -0.688715 0)
(7.10992 -0.771545 0)
(7.30437 -0.829889 0)
(7.56939 -0.873734 0)
(7.84332 -0.925796 0)
(8.086 -1.06367 0)
(8.28925 -1.13389 0)
(8.38181 -1.1278 0)
(8.46627 -1.1036 0)
(8.5182 -0.951245 0)
(8.58363 -0.742271 0)
(8.7363 -0.565297 0)
(8.86108 -0.366911 0)
(8.93796 -0.181122 0)
(9.07583 -0.0995869 0)
(9.16666 -0.0475852 0)
(9.19339 0.031444 0)
(9.30947 0.00822865 0)
(9.41858 -0.0759129 0)
(9.51732 -0.0555577 0)
(9.65447 -0.153576 0)
(9.84607 -0.32888 0)
(9.9739 -0.389819 0)
(10.1422 -0.607051 0)
(10.3648 -0.861999 0)
(10.4272 -1.06996 0)
(10.6188 -1.34025 0)
(10.7326 -1.62489 0)
(10.716 -1.91779 0)
(10.9052 -2.18089 0)
(10.8748 -2.4544 0)
(11.0393 -2.71476 0)
(11.2334 -3.00673 0)
(11.206 -3.28804 0)
(11.5312 -3.54537 0)
(11.6246 -3.89361 0)
(11.6094 -4.06007 0)
(11.7026 -4.32348 0)
(11.5248 -4.63522 0)
(11.2066 -4.62408 0)
(10.9065 -4.84331 0)
(10.5601 -5.06525 0)
(9.87304 -4.82892 0)
(9.42104 -4.86335 0)
(9.63928 -5.49007 0)
(10.0367 -6.03171 0)
(9.94121 -6.14961 0)
(9.63262 -6.05206 0)
(9.60999 -6.00775 0)
(9.84632 -6.00555 0)
(10.436 -5.79251 0)
(10.8988 -5.27089 0)
(11.2823 -4.5926 0)
(11.6793 -3.65378 0)
(11.7973 -2.59709 0)
(11.9625 -1.47531 0)
(11.8911 -0.337796 0)
(11.8594 0.770854 0)
(11.7918 1.90602 0)
(11.843 3.10233 0)
(11.8459 4.33642 0)
(11.9718 5.52851 0)
(11.4204 6.17606 0)
(10.8122 6.46604 0)
(10.5986 7.06384 0)
(10.6842 7.70223 0)
(10.3375 7.91868 0)
(9.89324 7.69757 0)
(9.3921 7.40753 0)
(9.30374 7.2384 0)
(9.43597 6.98137 0)
(9.41815 6.60541 0)
(9.62953 5.98687 0)
(9.59595 5.26249 0)
(9.53823 4.36978 0)
(9.61049 3.4299 0)
(9.46668 2.64082 0)
(9.58305 1.76507 0)
(9.35822 0.819139 0)
(9.24885 0.158657 0)
(8.97169 -0.526883 0)
(8.66781 -1.08623 0)
(8.63833 -1.73119 0)
(8.89217 -2.46952 0)
(9.07292 -3.47305 0)
(9.06534 -4.16681 0)
(8.9201 -4.72822 0)
(8.78426 -4.99842 0)
(8.32711 -4.7345 0)
(7.98632 -4.31431 0)
(7.38015 -3.96816 0)
(7.13474 -3.78933 0)
(6.65382 -3.43032 0)
(6.48456 -3.25925 0)
(5.99669 -2.91633 0)
(5.91337 -2.68583 0)
(5.67935 -2.28344 0)
(5.83001 -2.1186 0)
(5.79121 -2.20361 0)
(5.98324 -2.38337 0)
(5.87766 -2.03685 0)
(5.88339 -1.61137 0)
(5.86048 -1.34291 0)
(5.81241 -1.27644 0)
(5.66307 -1.38767 0)
(5.92099 -1.56579 0)
(5.96803 -1.54949 0)
(5.35248 -1.30468 0)
(5.64306 -1.11267 0)
(5.5212 -2.02496 0)
(6.06198 -2.51213 0)
(6.16025 -3.05149 0)
(5.56291 -3.75227 0)
(6.54015 -3.32654 0)
(5.2822 -6.03968 0)
(7.57153 -4.40879 0)
(5.95191 -5.11556 0)
(6.90571 -5.05633 0)
(6.9671 -4.85121 0)
(7.34391 -4.31124 0)
(7.19921 -3.73821 0)
(7.46773 -3.59488 0)
(8.03396 -2.53998 0)
(8.46175 -1.45911 0)
(9.10042 -0.177165 0)
(9.38106 0.848754 0)
(9.67568 2.00969 0)
(9.37817 2.96664 0)
(8.80329 3.5861 0)
(8.92455 3.83265 0)
(8.13484 3.87136 0)
(8.07864 4.70981 0)
(7.97728 4.92204 0)
(7.75109 4.84671 0)
(7.88804 5.38779 0)
(7.16617 5.82796 0)
(7.20085 6.25064 0)
(7.2233 5.88963 0)
(6.55341 5.26867 0)
(6.80212 5.94306 0)
(6.7538 6.54186 0)
(6.38417 6.84872 0)
(6.75238 6.95934 0)
(6.84345 6.19512 0)
(6.55083 5.38992 0)
(6.83154 5.17474 0)
(6.95542 4.76641 0)
(5.77282 5.00337 0)
(7.34392 5.21847 0)
(5.47316 5.47274 0)
(6.97888 4.9193 0)
(5.92928 5.12672 0)
(6.47623 4.46445 0)
(6.04845 4.2378 0)
(6.07546 3.25493 0)
(5.83053 2.58236 0)
(5.33054 1.67651 0)
(4.9471 1.12114 0)
(4.21746 0.587153 0)
(3.93678 1.29135 0)
(5.27925 -0.05824 0)
(5.28953 -0.00720477 0)
(5.27411 0.0266526 0)
(5.26462 0.0218311 0)
(5.27831 0.00349217 0)
(5.30788 -0.0362787 0)
(5.3579 -0.050548 0)
(5.40068 -0.0622032 0)
(5.44478 -0.0543094 0)
(5.47301 -0.0422279 0)
(5.48449 -0.0303981 0)
(5.5106 -0.00226939 0)
(5.48712 0.00851364 0)
(5.52165 0.0319405 0)
(5.4869 0.0531833 0)
(5.50583 0.0678792 0)
(5.5052 0.105166 0)
(5.48372 0.137096 0)
(5.52682 0.183173 0)
(5.51973 0.255383 0)
(5.57184 0.322645 0)
(5.65875 0.380648 0)
(5.75575 0.455635 0)
(5.9168 0.477136 0)
(6.116 0.454563 0)
(6.31767 0.436342 0)
(6.5352 0.345349 0)
(6.74516 0.201661 0)
(6.92769 0.0739793 0)
(7.05254 -0.0709495 0)
(7.16601 -0.220142 0)
(7.24515 -0.320383 0)
(7.27879 -0.372959 0)
(7.39256 -0.417807 0)
(7.52025 -0.456333 0)
(7.66936 -0.491673 0)
(7.89968 -0.513982 0)
(8.15554 -0.571391 0)
(8.39284 -0.661435 0)
(8.63256 -0.721173 0)
(8.87245 -0.824871 0)
(9.09727 -0.927531 0)
(9.33561 -1.00998 0)
(9.50593 -1.10025 0)
(9.70771 -1.18858 0)
(9.84241 -1.28515 0)
(9.92834 -1.32606 0)
(10.0262 -1.2724 0)
(10.0643 -1.16226 0)
(10.1354 -0.979884 0)
(10.2033 -0.775208 0)
(10.2593 -0.608192 0)
(10.3706 -0.448452 0)
(10.4313 -0.298089 0)
(10.5142 -0.217607 0)
(10.621 -0.175701 0)
(10.6653 -0.12946 0)
(10.7581 -0.111359 0)
(10.9277 -0.154617 0)
(10.9585 -0.186171 0)
(11.0828 -0.225342 0)
(11.241 -0.351527 0)
(11.2706 -0.463831 0)
(11.4221 -0.620289 0)
(11.4881 -0.858569 0)
(11.5724 -1.03206 0)
(11.6937 -1.34245 0)
(11.6591 -1.60646 0)
(11.8024 -1.84832 0)
(11.894 -2.21056 0)
(11.9344 -2.38032 0)
(12.0518 -2.74603 0)
(12.1438 -3.08646 0)
(12.1887 -3.20752 0)
(12.1824 -3.66181 0)
(12.153 -3.82622 0)
(11.8316 -3.93092 0)
(11.6671 -4.34293 0)
(11.3157 -4.31024 0)
(10.657 -4.30272 0)
(10.4075 -4.62775 0)
(9.93801 -4.56595 0)
(9.28164 -4.41948 0)
(9.42144 -4.99615 0)
(9.85386 -5.7866 0)
(9.72118 -5.88063 0)
(8.92991 -5.62128 0)
(8.5378 -5.71666 0)
(8.89055 -6.20714 0)
(9.61229 -6.64016 0)
(10.3524 -6.50006 0)
(10.8597 -5.90624 0)
(11.1131 -5.04924 0)
(11.4146 -3.93408 0)
(11.6002 -2.76254 0)
(11.6192 -1.59356 0)
(11.7415 -0.300138 0)
(11.6338 0.915156 0)
(11.4283 2.03725 0)
(11.3886 3.05517 0)
(11.3384 4.23175 0)
(11.5911 5.53367 0)
(11.5461 6.51134 0)
(11.0444 6.89062 0)
(10.5166 7.23107 0)
(10.6197 7.77862 0)
(10.5893 8.16716 0)
(10.3807 8.11739 0)
(10.0225 7.78166 0)
(9.62426 7.37439 0)
(9.65086 6.88157 0)
(9.63682 6.42631 0)
(9.69742 5.79625 0)
(9.9655 5.10427 0)
(9.77627 4.3194 0)
(9.95022 3.4017 0)
(9.77779 2.61187 0)
(9.80835 1.81527 0)
(9.64264 0.967908 0)
(9.34553 0.339153 0)
(9.28632 -0.344502 0)
(9.17162 -1.04899 0)
(9.35701 -1.80114 0)
(9.41405 -2.66022 0)
(9.72906 -3.61423 0)
(9.46715 -4.16326 0)
(9.52442 -4.37652 0)
(8.84775 -4.55458 0)
(8.41861 -4.4574 0)
(7.54667 -4.21683 0)
(7.29638 -3.98961 0)
(6.77121 -3.75192 0)
(6.66202 -3.37504 0)
(6.32344 -3.0715 0)
(6.1357 -2.74206 0)
(5.99806 -2.49476 0)
(5.98987 -2.25495 0)
(6.0798 -2.07584 0)
(6.07949 -2.27772 0)
(6.25667 -2.30984 0)
(5.92542 -1.98348 0)
(6.0375 -1.49235 0)
(5.84929 -1.29411 0)
(5.84881 -1.28339 0)
(5.85392 -1.28327 0)
(5.77531 -1.63095 0)
(5.98487 -1.43064 0)
(5.35336 -1.12386 0)
(5.43471 -1.24505 0)
(5.77501 -2.2003 0)
(5.88896 -2.50403 0)
(5.58352 -2.96767 0)
(5.1287 -3.66786 0)
(6.17326 -3.45737 0)
(5.17352 -6.5029 0)
(7.12577 -4.14932 0)
(5.57264 -5.25745 0)
(6.55615 -5.22378 0)
(6.65946 -4.92165 0)
(6.99185 -4.25269 0)
(6.18323 -3.82051 0)
(6.78394 -3.60009 0)
(6.90905 -3.17637 0)
(7.87768 -1.87926 0)
(8.19677 -0.744895 0)
(9.05302 0.574574 0)
(8.93379 1.83742 0)
(9.01715 3.27739 0)
(8.36741 3.87951 0)
(8.53011 4.31238 0)
(7.83658 4.35082 0)
(7.40219 4.86658 0)
(7.72455 5.11325 0)
(7.06632 4.69716 0)
(7.33245 5.54475 0)
(7.22044 6.24182 0)
(6.52304 6.17146 0)
(6.91898 6.17769 0)
(6.647 5.5931 0)
(6.22487 5.83226 0)
(6.68943 6.70634 0)
(6.5569 6.74424 0)
(6.54081 6.75049 0)
(7.25258 6.3517 0)
(6.96539 5.35019 0)
(6.6249 5.1264 0)
(7.71938 4.87182 0)
(5.80122 5.18415 0)
(7.61933 5.0377 0)
(5.93496 5.62299 0)
(7.083 4.89395 0)
(6.17485 5.13132 0)
(6.66758 4.54598 0)
(6.29764 4.12694 0)
(6.68577 3.29175 0)
(6.22831 2.80024 0)
(6.10091 2.14501 0)
(5.65183 1.44388 0)
(5.25707 1.03002 0)
(5.18895 0.8543 0)
(7.96991 -0.00672633 0)
(7.97035 0.0611953 0)
(7.95322 0.0875935 0)
(7.91989 0.0649904 0)
(7.89619 0.000518451 0)
(7.90517 -0.0445987 0)
(7.90824 -0.0845631 0)
(7.96156 -0.0866485 0)
(7.96318 -0.0766471 0)
(8.00711 -0.0559883 0)
(7.98846 -0.0207433 0)
(8.00637 -0.00829981 0)
(7.97799 0.0266137 0)
(7.96831 0.0375939 0)
(7.96343 0.0447135 0)
(7.93505 0.0836256 0)
(7.95678 0.0930772 0)
(7.92508 0.131454 0)
(7.96872 0.183628 0)
(7.95804 0.213673 0)
(8.00231 0.282007 0)
(8.06177 0.329932 0)
(8.10705 0.340917 0)
(8.23288 0.378591 0)
(8.3474 0.362178 0)
(8.47992 0.285496 0)
(8.63473 0.230618 0)
(8.7996 0.116222 0)
(8.92907 -0.0322447 0)
(9.06444 -0.151765 0)
(9.18408 -0.283932 0)
(9.28253 -0.404478 0)
(9.3798 -0.465444 0)
(9.48312 -0.521104 0)
(9.62612 -0.589435 0)
(9.79896 -0.626601 0)
(9.95829 -0.663553 0)
(10.2085 -0.742677 0)
(10.3966 -0.827731 0)
(10.5638 -0.931588 0)
(10.7723 -1.02392 0)
(10.9223 -1.12661 0)
(11.0759 -1.23881 0)
(11.1674 -1.28212 0)
(11.2576 -1.35828 0)
(11.3546 -1.36038 0)
(11.3905 -1.29736 0)
(11.4266 -1.25748 0)
(11.4178 -1.1126 0)
(11.4307 -0.993826 0)
(11.4493 -0.846507 0)
(11.4554 -0.664617 0)
(11.5192 -0.551677 0)
(11.5563 -0.396113 0)
(11.6297 -0.262696 0)
(11.7141 -0.232191 0)
(11.7731 -0.180541 0)
(11.8353 -0.122568 0)
(11.9175 -0.204025 0)
(11.997 -0.23172 0)
(12.0506 -0.268081 0)
(12.1613 -0.422022 0)
(12.198 -0.519928 0)
(12.2825 -0.710764 0)
(12.3823 -0.854974 0)
(12.3669 -1.09627 0)
(12.5185 -1.40863 0)
(12.4854 -1.53321 0)
(12.5507 -1.92089 0)
(12.6963 -2.1506 0)
(12.4923 -2.37257 0)
(12.6427 -2.80537 0)
(12.5677 -2.89924 0)
(12.2453 -3.20974 0)
(12.3062 -3.55015 0)
(11.8257 -3.54583 0)
(11.4346 -3.78947 0)
(11.2806 -3.99716 0)
(10.58 -3.84064 0)
(10.1767 -4.04203 0)
(10.163 -4.30214 0)
(9.58654 -4.10906 0)
(9.31364 -4.34251 0)
(9.76269 -5.22967 0)
(9.63983 -5.57319 0)
(8.59307 -5.08791 0)
(7.68623 -5.07954 0)
(7.85742 -5.98375 0)
(8.58538 -6.97649 0)
(9.40891 -7.42154 0)
(9.98273 -7.15683 0)
(10.2878 -6.34024 0)
(10.4262 -5.39176 0)
(10.6028 -4.247 0)
(10.7838 -2.98691 0)
(10.8586 -1.79945 0)
(10.9989 -0.418523 0)
(11.3008 0.935096 0)
(11.1045 2.15397 0)
(10.9122 3.22955 0)
(10.806 4.16266 0)
(11.0677 5.3385 0)
(11.134 6.60293 0)
(11.1469 7.23949 0)
(10.601 7.44717 0)
(10.4197 7.75542 0)
(10.5314 8.13617 0)
(10.534 8.29416 0)
(10.463 8.09098 0)
(10.206 7.65269 0)
(9.94719 7.0701 0)
(9.98175 6.48846 0)
(9.81602 5.80004 0)
(10.0216 5.07018 0)
(9.96289 4.37426 0)
(9.99816 3.42044 0)
(9.88996 2.71104 0)
(9.8933 1.88953 0)
(9.85763 1.09116 0)
(9.6318 0.477582 0)
(9.81634 -0.325606 0)
(9.84482 -1.10043 0)
(9.9304 -1.94805 0)
(10.067 -2.76203 0)
(10.3075 -3.59483 0)
(9.73176 -3.85824 0)
(9.41255 -4.16122 0)
(8.79721 -4.24195 0)
(8.48484 -4.03386 0)
(7.91972 -3.60061 0)
(7.67918 -3.323 0)
(7.01378 -3.15636 0)
(6.94296 -2.92218 0)
(6.38117 -2.80009 0)
(6.31681 -2.69448 0)
(6.0697 -2.51966 0)
(6.15791 -2.3866 0)
(6.26106 -2.19308 0)
(6.31078 -2.41142 0)
(6.37847 -2.21938 0)
(6.13375 -1.93006 0)
(6.08317 -1.43692 0)
(6.0615 -1.16663 0)
(5.72156 -1.2362 0)
(6.00917 -1.41589 0)
(5.91298 -1.49766 0)
(5.68747 -1.31226 0)
(5.45389 -0.785404 0)
(5.42127 -1.58676 0)
(5.75978 -2.25611 0)
(5.53525 -2.25273 0)
(5.10628 -2.87872 0)
(4.79954 -3.69565 0)
(6.3053 -4.0124 0)
(4.92604 -6.54044 0)
(6.46295 -3.93447 0)
(5.47647 -5.59011 0)
(6.40681 -5.35692 0)
(6.49278 -4.87118 0)
(6.46597 -3.81728 0)
(5.91839 -3.81717 0)
(6.09437 -3.74389 0)
(6.36262 -3.6737 0)
(7.51971 -2.34889 0)
(7.56638 -1.25371 0)
(8.41205 0.351948 0)
(8.15187 1.61991 0)
(8.5979 3.29332 0)
(8.12204 3.85112 0)
(7.85236 4.33514 0)
(7.92003 4.92584 0)
(6.89062 4.76814 0)
(7.16315 5.0405 0)
(6.97776 4.90344 0)
(6.4653 5.35566 0)
(6.81729 6.4051 0)
(6.4478 6.18613 0)
(6.33069 6.00134 0)
(6.65478 5.85378 0)
(5.98639 5.60014 0)
(6.29935 6.55164 0)
(6.78584 6.72398 0)
(6.39206 6.27588 0)
(7.02606 6.20127 0)
(7.61406 5.34215 0)
(6.25084 5.2301 0)
(8.06663 4.91272 0)
(5.77165 5.47894 0)
(7.55601 5.10196 0)
(6.0139 5.69002 0)
(7.04016 4.99407 0)
(6.43224 5.04577 0)
(6.9102 4.58597 0)
(6.86862 4.02605 0)
(7.00593 3.45515 0)
(6.75639 2.99636 0)
(6.718 2.39779 0)
(6.4741 1.64472 0)
(6.12586 1.08244 0)
(6.13576 0.733393 0)
(10.2058 -0.0142253 0)
(10.2009 0.0942104 0)
(10.1293 0.112281 0)
(10.1065 0.0794354 0)
(10.0926 0.0155199 0)
(10.1278 -0.062531 0)
(10.1477 -0.0643387 0)
(10.1943 -0.0911688 0)
(10.1907 -0.0698902 0)
(10.2164 -0.0383427 0)
(10.1862 -0.0294129 0)
(10.1783 0.0162257 0)
(10.17 0.033353 0)
(10.1302 0.0498752 0)
(10.1554 0.079714 0)
(10.1026 0.0856753 0)
(10.1338 0.113906 0)
(10.1059 0.139986 0)
(10.1242 0.148881 0)
(10.1549 0.212852 0)
(10.1745 0.231579 0)
(10.2469 0.259444 0)
(10.3029 0.300186 0)
(10.3974 0.287938 0)
(10.5017 0.271332 0)
(10.6101 0.213956 0)
(10.728 0.135331 0)
(10.8493 0.0273033 0)
(10.9499 -0.0941419 0)
(11.0649 -0.226236 0)
(11.1691 -0.352 0)
(11.2471 -0.449738 0)
(11.3409 -0.550027 0)
(11.4248 -0.609142 0)
(11.5374 -0.672011 0)
(11.673 -0.748671 0)
(11.7646 -0.773847 0)
(11.9396 -0.888367 0)
(12.0563 -0.968579 0)
(12.151 -1.04027 0)
(12.2595 -1.1635 0)
(12.3227 -1.20757 0)
(12.3659 -1.30021 0)
(12.3875 -1.33144 0)
(12.3877 -1.31451 0)
(12.3694 -1.32678 0)
(12.3368 -1.27472 0)
(12.2449 -1.22239 0)
(12.1814 -1.13804 0)
(12.1333 -1.00355 0)
(12.0779 -0.856595 0)
(12.0821 -0.697143 0)
(12.0476 -0.556816 0)
(12.0842 -0.441198 0)
(12.0961 -0.323381 0)
(12.1218 -0.292728 0)
(12.2168 -0.242781 0)
(12.2066 -0.21377 0)
(12.3103 -0.266795 0)
(12.3517 -0.281661 0)
(12.4248 -0.37173 0)
(12.5299 -0.448926 0)
(12.4887 -0.584564 0)
(12.7127 -0.738292 0)
(12.6081 -0.874262 0)
(12.6858 -1.16959 0)
(12.8141 -1.34112 0)
(12.593 -1.58452 0)
(12.8127 -1.9336 0)
(12.5914 -2.11126 0)
(12.4557 -2.43334 0)
(12.5536 -2.74073 0)
(12.043 -2.85881 0)
(11.9878 -3.19482 0)
(11.8132 -3.40282 0)
(11.1669 -3.34167 0)
(11.147 -3.66439 0)
(10.8515 -3.74758 0)
(10.2774 -3.52028 0)
(10.3911 -3.89581 0)
(10.2503 -4.0119 0)
(9.58247 -3.73513 0)
(9.58116 -4.37616 0)
(9.63841 -5.08172 0)
(8.58142 -4.7198 0)
(7.29571 -4.32415 0)
(6.97101 -5.16177 0)
(7.43472 -6.63775 0)
(8.12008 -7.59233 0)
(8.66235 -7.70453 0)
(9.0298 -7.13893 0)
(9.24249 -6.23791 0)
(9.31471 -5.28327 0)
(9.49493 -4.22569 0)
(9.69033 -2.99573 0)
(9.7626 -1.82363 0)
(9.87245 -0.631878 0)
(10.2549 0.841133 0)
(10.457 2.17577 0)
(10.4835 3.26776 0)
(10.1679 4.19387 0)
(10.3392 5.24916 0)
(10.6483 6.38374 0)
(10.7782 7.39236 0)
(10.5463 7.81093 0)
(10.2818 7.84025 0)
(10.2542 8.06394 0)
(10.3919 8.22326 0)
(10.5247 8.20227 0)
(10.5202 7.93505 0)
(10.4067 7.30514 0)
(10.3494 6.71809 0)
(10.2246 5.93947 0)
(10.2519 5.18956 0)
(10.198 4.41174 0)
(10.2493 3.54135 0)
(10.1267 2.78205 0)
(10.2871 1.97306 0)
(10.2096 1.1116 0)
(10.2601 0.436669 0)
(10.3794 -0.42777 0)
(10.5696 -1.25649 0)
(10.4657 -1.98361 0)
(10.6163 -2.80177 0)
(10.3055 -3.38151 0)
(9.78429 -3.62547 0)
(9.46676 -3.75127 0)
(8.98008 -3.64843 0)
(8.23593 -3.44941 0)
(7.60661 -3.27836 0)
(7.22486 -3.29796 0)
(6.96147 -3.2869 0)
(6.91813 -2.92356 0)
(6.72011 -2.6375 0)
(6.64275 -2.39754 0)
(6.57306 -2.44213 0)
(6.5874 -2.26369 0)
(6.55024 -2.20932 0)
(6.60886 -2.31025 0)
(6.42292 -2.20089 0)
(6.40224 -1.77104 0)
(6.08598 -1.35846 0)
(6.18535 -1.09012 0)
(5.8507 -1.19149 0)
(6.08553 -1.37798 0)
(5.89575 -1.47537 0)
(5.66367 -1.00835 0)
(5.12116 -0.743909 0)
(5.66978 -1.7 0)
(5.49355 -2.20453 0)
(5.00972 -1.87845 0)
(5.31467 -2.84015 0)
(4.31977 -4.10699 0)
(6.9192 -4.17376 0)
(4.29097 -6.33163 0)
(6.08557 -3.87907 0)
(5.48972 -6.40489 0)
(6.67277 -5.39653 0)
(6.43985 -5.00489 0)
(6.18925 -3.87225 0)
(6.38309 -3.56144 0)
(5.6757 -4.18524 0)
(6.13085 -4.04976 0)
(6.90954 -2.8405 0)
(7.04398 -1.47319 0)
(7.4641 0.344703 0)
(7.25176 1.86625 0)
(7.28502 3.28575 0)
(7.68569 4.19997 0)
(7.16313 4.40761 0)
(7.29719 5.13038 0)
(6.67859 5.07662 0)
(6.66576 5.21703 0)
(6.82763 5.42063 0)
(5.85658 5.38791 0)
(6.1129 6.46717 0)
(6.23882 6.44251 0)
(5.62386 5.75714 0)
(6.25283 6.11649 0)
(6.02389 5.79422 0)
(5.60154 6.2447 0)
(6.5807 6.75085 0)
(6.4963 6.00908 0)
(6.16445 6.02528 0)
(7.9534 5.23282 0)
(5.64591 5.46986 0)
(7.8964 4.88151 0)
(5.68926 5.6608 0)
(7.22311 5.08153 0)
(6.21862 5.55262 0)
(7.08289 5.04996 0)
(6.80936 4.92936 0)
(7.23878 4.58036 0)
(7.30844 4.01389 0)
(7.27533 3.5975 0)
(7.25281 3.09304 0)
(7.43992 2.52806 0)
(7.33399 1.86152 0)
(7.2355 1.33493 0)
(7.10903 0.813365 0)
(11.8024 0.0272848 0)
(11.7731 0.0374811 0)
(11.6905 0.0290471 0)
(11.633 -0.0074546 0)
(11.643 -0.0403272 0)
(11.687 -0.0939597 0)
(11.73 -0.104039 0)
(11.8004 -0.108153 0)
(11.8015 -0.0905567 0)
(11.8452 -0.0457228 0)
(11.8194 -0.0149593 0)
(11.7972 0.0148315 0)
(11.7861 0.0339207 0)
(11.7347 0.0500963 0)
(11.7662 0.0706113 0)
(11.7095 0.0866497 0)
(11.7601 0.100977 0)
(11.7501 0.121498 0)
(11.7558 0.129653 0)
(11.8224 0.1687 0)
(11.8388 0.185013 0)
(11.9128 0.205452 0)
(11.9851 0.21534 0)
(12.0485 0.21282 0)
(12.1672 0.181867 0)
(12.2507 0.121503 0)
(12.3288 0.0595689 0)
(12.4513 -0.0533605 0)
(12.4981 -0.158558 0)
(12.5832 -0.271992 0)
(12.664 -0.416222 0)
(12.6764 -0.503489 0)
(12.7695 -0.612256 0)
(12.7898 -0.697145 0)
(12.85 -0.743928 0)
(12.9362 -0.845409 0)
(12.9499 -0.869983 0)
(13.0619 -0.962184 0)
(13.0767 -1.0464 0)
(13.1012 -1.09261 0)
(13.1277 -1.19267 0)
(13.0581 -1.20723 0)
(13.0353 -1.26965 0)
(12.9664 -1.27285 0)
(12.8288 -1.25488 0)
(12.7531 -1.29415 0)
(12.6164 -1.23056 0)
(12.4843 -1.17084 0)
(12.4293 -1.05701 0)
(12.2967 -0.894035 0)
(12.2778 -0.778708 0)
(12.216 -0.622693 0)
(12.1643 -0.512783 0)
(12.1849 -0.416648 0)
(12.1018 -0.321558 0)
(12.1746 -0.306494 0)
(12.1626 -0.265175 0)
(12.2255 -0.263291 0)
(12.2724 -0.290667 0)
(12.2654 -0.314407 0)
(12.4564 -0.421114 0)
(12.3372 -0.480647 0)
(12.4789 -0.617282 0)
(12.5479 -0.792278 0)
(12.3888 -0.92009 0)
(12.6333 -1.19119 0)
(12.4168 -1.33725 0)
(12.4344 -1.60242 0)
(12.4795 -1.92877 0)
(12.1378 -1.99784 0)
(12.2678 -2.41337 0)
(12.0177 -2.60385 0)
(11.6918 -2.62079 0)
(11.8273 -3.10227 0)
(11.3933 -2.99925 0)
(11.0825 -2.99723 0)
(11.3004 -3.4605 0)
(10.8323 -3.18687 0)
(10.5419 -3.17352 0)
(10.7375 -3.73888 0)
(10.1031 -3.50856 0)
(9.50995 -3.43905 0)
(9.4849 -4.28628 0)
(8.81707 -4.38168 0)
(7.41492 -3.6727 0)
(6.43222 -3.91418 0)
(6.40732 -5.41793 0)
(6.80744 -7.05997 0)
(7.34436 -7.92802 0)
(7.86478 -7.89993 0)
(8.10031 -7.24122 0)
(8.26539 -6.22826 0)
(8.36145 -5.293 0)
(8.51743 -4.29517 0)
(8.81621 -3.0261 0)
(8.80156 -1.76568 0)
(8.77397 -0.704517 0)
(9.08889 0.526162 0)
(9.41861 1.99943 0)
(9.58642 3.3691 0)
(9.62908 4.21714 0)
(9.58995 5.04026 0)
(9.84694 6.14736 0)
(10.2251 7.24746 0)
(10.3507 7.85252 0)
(10.0224 8.00579 0)
(9.95352 8.03472 0)
(10.1 8.01638 0)
(10.2751 8.04869 0)
(10.484 7.84866 0)
(10.5904 7.36752 0)
(10.6737 6.90212 0)
(10.6436 6.01669 0)
(10.6304 5.30452 0)
(10.6343 4.48853 0)
(10.7014 3.56579 0)
(10.6064 2.89501 0)
(10.746 1.92151 0)
(10.8542 1.16266 0)
(10.7923 0.406881 0)
(11.0123 -0.537418 0)
(11.0843 -1.2599 0)
(10.8437 -1.90093 0)
(10.6158 -2.70555 0)
(10.453 -3.04669 0)
(9.74561 -3.11417 0)
(9.3031 -3.30772 0)
(8.52284 -3.28327 0)
(8.3184 -3.16549 0)
(7.74201 -2.88368 0)
(7.6696 -2.8112 0)
(7.19136 -2.71495 0)
(6.93808 -2.60246 0)
(6.5256 -2.49757 0)
(6.53277 -2.51948 0)
(6.49858 -2.5489 0)
(6.67298 -2.40078 0)
(6.57199 -2.30265 0)
(6.65579 -2.23789 0)
(6.45269 -2.07189 0)
(6.3522 -1.61815 0)
(6.24254 -1.23535 0)
(6.18719 -0.941684 0)
(6.01417 -1.21494 0)
(6.14358 -1.27632 0)
(5.85279 -1.36215 0)
(5.50358 -0.55358 0)
(5.1659 -0.978206 0)
(5.57466 -1.69511 0)
(5.31272 -1.92754 0)
(4.3942 -1.76441 0)
(5.87408 -2.72069 0)
(4.06028 -4.56847 0)
(7.07012 -4.17288 0)
(4.04052 -5.79507 0)
(6.24548 -4.23957 0)
(5.90034 -7.12756 0)
(7.23593 -5.33437 0)
(6.40098 -5.01842 0)
(6.74523 -4.0537 0)
(7.05581 -3.09718 0)
(5.75067 -4.31762 0)
(6.07525 -4.31707 0)
(6.0757 -3.17766 0)
(6.52097 -1.42913 0)
(6.17888 0.16851 0)
(6.42364 1.75435 0)
(6.20414 2.99158 0)
(6.91354 4.30268 0)
(6.18534 4.48484 0)
(6.37964 5.33147 0)
(6.48194 5.55415 0)
(5.70897 4.94483 0)
(6.26788 5.73521 0)