/*--------------------------------*- C++ -*----------------------------------*\
| =========                 |                                                 |
| \\      /  F ield         | OpenFOAM: The Open Source CFD Toolbox           |
|  \\    /   O peration     | Version:  2.4.0                                 |
|   \\  /    A nd           | Web:      www.OpenFOAM.org                      |
|    \\/     M anipulation  |                                                 |
\*---------------------------------------------------------------------------*/
FoamFile
{
    version     2.0;
    format      ascii;
    class       volScalarField;
    location    "0.72";
    object      k_0;
}
// * * * * * * * * * * * * * * * * * * * * * * * * * * * * * * * * * * * * * //

dimensions      [0 2 -2 0 0 0 0];

internalField   nonuniform List<scalar> 
8800
(
8.11302
10.2587
8.80587
6.80342
5.7235
4.96508
4.5216
4.13717
3.92869
3.6579
3.53935
3.3683
3.30717
3.16344
3.11167
2.99224
2.94426
2.81228
2.77948
2.57194
1.40077
4.34577
5.32672
5.28569
5.13075
4.80578
4.57119
4.28553
4.12885
3.87477
3.76892
3.58851
3.51874
3.37228
3.32984
3.21819
3.18362
3.08659
3.0269
2.98706
0.0842493
0.719179
1.56902
1.95454
2.26568
2.43029
2.59157
2.59707
2.61525
2.60794
2.59373
2.53112
2.51557
2.47087
2.45851
2.40501
2.39904
2.36914
2.3511
2.31419
0.00336971
0.0686234
0.252787
0.443995
0.575662
0.685992
0.857879
0.924545
0.997767
1.11177
1.18208
1.20054
1.25031
1.29919
1.34315
1.35732
1.38586
1.41647
1.45408
1.46249
0.000126532
0.00483487
0.0217129
0.063546
0.0908754
0.114087
0.172493
0.206569
0.227439
0.285584
0.337772
0.356281
0.375887
0.429062
0.459229
0.500239
0.517311
0.560359
0.583392
0.643479
2.50379e-05
0.000296051
0.0014765
0.00582293
0.00919526
0.011913
0.0198643
0.0265326
0.0303067
0.0412974
0.058844
0.0665254
0.0709813
0.0836666
0.0941653
0.113178
0.119343
0.133675
0.140196
0.162607
2.15695e-05
4.25214e-05
0.000121017
0.000501619
0.000817474
0.000983386
0.00149617
0.00208805
0.00239554
0.00330062
0.00598761
0.00743404
0.00804843
0.0094193
0.0107737
0.0146057
0.0162522
0.0188614
0.0194057
0.0212515
2.11962e-05
3.06724e-05
4.06995e-05
8.40075e-05
0.000150325
0.000161604
0.000182725
0.000202016
0.000193739
0.000228524
0.000487263
0.000758661
0.000760821
0.00074274
0.000760949
0.00109406
0.00154997
0.00161249
0.00148473
0.00145224
2.08866e-05
2.97875e-05
3.65361e-05
5.11141e-05
7.89367e-05
0.000105327
0.00012117
0.000110107
0.000111331
0.000112673
0.000198825
0.000281974
0.000280372
0.000261723
0.000258744
0.000311979
0.00032959
0.000317252
0.000294604
0.000298168
2.05396e-05
2.72939e-05
5.34566e-05
6.52014e-05
5.81028e-05
5.44419e-05
6.67817e-05
0.000108389
0.000111838
0.000101963
0.000102425
0.000125134
0.000158021
0.000155234
0.00015858
0.000173608
0.000176616
0.00017125
0.000173843
0.000188419
2.05372e-05
2.78321e-05
5.30014e-05
5.72231e-05
5.30093e-05
5.27191e-05
7.77245e-05
0.000110268
0.00011395
0.000108912
0.000107936
0.00014983
0.000159033
0.000159646
0.000157593
0.000159574
0.000163248
0.000165822
0.000173743
0.000206172
2.07723e-05
2.7821e-05
4.70301e-05
5.1131e-05
5.51988e-05
8.16477e-05
0.000107428
0.000102953
9.70568e-05
9.78194e-05
0.000126883
0.000176092
0.000173343
0.000157994
0.000147186
0.000151043
0.000169112
0.000254359
0.000432368
0.000518413
2.10913e-05
2.89067e-05
6.42915e-05
8.82658e-05
9.1306e-05
0.000110937
0.00012688
0.000156814
0.00027081
0.000470926
0.000512504
0.000607506
0.00063047
0.00063598
0.000674084
0.000902135
0.00122577
0.00212213
0.00316919
0.00425564
2.16268e-05
4.42717e-05
0.000225113
0.000309347
0.000388618
0.000785116
0.00121487
0.00181981
0.00369993
0.00535876
0.00570435
0.00693365
0.00767848
0.00845666
0.00965277
0.0136529
0.0166158
0.0240352
0.0281582
0.0370119
2.48945e-05
0.000320956
0.00248315
0.00385814
0.00574526
0.012705
0.0187721
0.0245665
0.0395763
0.050654
0.0538853
0.0642246
0.0707972
0.0813814
0.0894246
0.112391
0.125282
0.155269
0.169738
0.203071
0.000120536
0.00504553
0.0306255
0.0481258
0.0719604
0.13323
0.165496
0.196933
0.261513
0.301383
0.315281
0.35568
0.382648
0.419573
0.444979
0.512322
0.542515
0.609479
0.636948
0.702666
0.00334863
0.070593
0.279472
0.389686
0.560035
0.735418
0.828475
0.918552
1.05757
1.11181
1.13893
1.20661
1.25711
1.28993
1.32852
1.3997
1.42115
1.46876
1.48573
1.52996
0.0847265
0.735744
1.57925
1.90433
2.28018
2.45666
2.56956
2.59902
2.64019
2.59917
2.5786
2.53302
2.52304
2.47252
2.4621
2.43009
2.41892
2.38312
2.36886
2.3398
1.40887
4.36028
5.31129
5.27851
5.13469
4.79489
4.60062
4.28394
4.11414
3.86871
3.78164
3.56886
3.51432
3.3738
3.33135
3.19436
3.16431
3.04003
2.9936
2.88443
8.12611
10.2738
8.77572
6.82617
5.72273
4.94422
4.54801
4.13742
3.90899
3.6438
3.5605
3.34598
3.2929
3.13317
3.101
2.9251
2.88028
2.6956
2.62328
2.39713
1.78542
1.33411
1.05558
0.933721
0.818754
0.785707
0.723622
0.704691
0.663847
0.651725
0.622362
0.613274
0.59005
0.58181
0.560092
0.551911
0.532326
0.525736
0.510107
0.506173
0.496188
0.494605
0.488345
0.486846
0.481293
0.478616
0.468996
0.462987
0.446758
0.436366
0.412875
0.398009
0.367547
0.347902
0.31747
0.297369
0.281394
0.280297
0.282754
0.29223
0.308578
0.325458
0.342999
0.363872
0.377957
0.386397
0.387081
0.386177
0.382837
0.374119
0.355731
0.335177
0.330548
0.333479
0.34307
0.375813
0.458012
0.505179
0.51495
0.49326
0.368844
0.251384
0.187615
0.153682
0.136984
0.127304
0.122558
0.122059
0.12165
0.121199
0.120806
0.119788
0.119673
0.122852
0.125162
0.12541
0.124298
0.121609
0.122602
0.127436
0.144556
0.155642
0.16472
0.167782
0.16519
0.155359
0.133222
0.0946171
0.062055
0.0419539
0.0299673
0.0228289
0.01909
0.0169059
0.0157496
0.0150804
0.014781
0.0147427
0.0147515
0.0149777
0.0152995
0.0165348
0.0177499
0.0192423
0.0226069
0.0248575
0.0252468
0.0245564
0.0221272
0.0204011
0.019541
0.0195325
0.0198357
0.0206628
0.0221412
0.0258098
0.0288224
0.0356692
0.0428164
0.0514543
0.0555037
0.0555171
0.0534698
0.0500118
0.0421298
0.0374034
0.0371815
0.0376433
0.0407513
0.0478454
0.0474205
0.0474965
0.0481166
0.0453249
0.0397994
0.0387944
0.0400028
0.0451063
0.060729
0.0774589
0.0883399
0.0919311
0.0930553
0.096506
0.105023
0.11283
0.129253
0.129488
0.132591
0.132608
0.13121
0.128996
0.120648
0.110455
0.108721
0.108913
0.110255
0.110523
0.111113
0.106408
0.0928107
0.0870977
0.0864599
0.0868671
0.0895184
0.0878452
0.08489
0.0839923
0.08455
0.0881285
0.0992253
0.0987706
0.0942421
0.0889126
0.083463
0.0824518
0.0894157
0.133145
0.164072
0.168409
0.166619
0.14888
0.136882
0.13742
0.14769
0.154556
0.148534
0.144769
0.154511
0.190997
0.187126
0.183168
0.189043
0.189725
0.167364
0.110323
0.0817252
0.0811044
0.140378
2.74311
2.52042
2.06574
1.70922
1.49088
1.3051
1.1956
1.08899
1.02535
0.95323
0.912532
0.860709
0.833842
0.794499
0.77752
0.747035
0.732805
0.707327
0.695553
0.673271
0.663853
0.644824
0.637878
0.623888
0.61868
0.60723
0.603729
0.595353
0.592658
0.586479
0.58419
0.577789
0.57255
0.561927
0.54808
0.53607
0.514088
0.497713
0.478348
0.462777
0.448849
0.439281
0.436177
0.431931
0.427396
0.417826
0.4047
0.394096
0.375954
0.355609
0.321763
0.302205
0.295739
0.289948
0.286797
0.278116
0.26749
0.269447
0.283217
0.33374
0.419872
0.436041
0.426051
0.376362
0.270705
0.202317
0.165718
0.144745
0.134139
0.128979
0.12571
0.124022
0.123788
0.124492
0.126457
0.127195
0.128106
0.130553
0.135972
0.150374
0.159299
0.162861
0.162398
0.157753
0.145126
0.117396
0.0759794
0.0477919
0.031299
0.0220472
0.017188
0.0148727
0.014018
0.0140844
0.0141983
0.0143327
0.0146237
0.0147897
0.0152596
0.0155082
0.0158544
0.0171235
0.018138
0.0189419
0.0212926
0.0235818
0.0242854
0.0240745
0.0231938
0.0213702
0.0206059
0.0206541
0.0212634
0.0231798
0.0257617
0.0294521
0.0374903
0.0460097
0.0634916
0.0763163
0.089945
0.0968597
0.0967885
0.0935674
0.0864743
0.0748959
0.0585738
0.0486603
0.042281
0.0419048
0.0441763
0.0471382
0.0469407
0.0473531
0.0493229
0.0471123
0.0414696
0.0406742
0.0420784
0.048758
0.0633391
0.0786171
0.0882597
0.0911688
0.0914351
0.0923474
0.0941341
0.0992128
0.108445
0.110609
0.117663
0.117962
0.118734
0.117223
0.111749
0.111597
0.111315
0.110987
0.106129
0.100189
0.0891267
0.0852308
0.0863186
0.0939193
0.098465
0.097177
0.0899901
0.0833516
0.079868
0.0795487
0.0829229
0.0953519
0.0950871
0.0916806
0.0902736
0.0883288
0.0890642
0.103333
0.161774
0.197006
0.200376
0.190657
0.161837
0.151571
0.154278
0.157935
0.156669
0.144783
0.139904
0.152406
0.19297
0.193379
0.18324
0.186511
0.186708
0.171488
0.112579
0.0810288
0.0800168
0.138089
1.71009
2.06752
1.81657
1.59258
1.43224
1.29518
1.19467
1.10488
1.03569
0.97074
0.91955
0.870968
0.832349
0.794398
0.765258
0.736373
0.71329
0.688901
0.670559
0.64841
0.634297
0.614101
0.603253
0.587813
0.57988
0.566498
0.561204
0.553968
0.547419
0.54386
0.541782
0.54063
0.54005
0.540409
0.539111
0.537617
0.532955
0.526528
0.520574
0.506677
0.496959
0.484819
0.469849
0.451139
0.429152
0.409677
0.378095
0.34954
0.317362
0.285168
0.252789
0.224689
0.202625
0.170666
0.145858
0.141286
0.143374
0.151811
0.170064
0.188266
0.21775
0.301453
0.367711
0.377393
0.370361
0.346978
0.293969
0.242482
0.204215
0.175292
0.160145
0.153745
0.14836
0.148498
0.15034
0.154597
0.162761
0.171979
0.172781
0.171489
0.167628
0.158318
0.138856
0.104504
0.0646434
0.0399687
0.0257253
0.0179323
0.0142255
0.0124351
0.0123239
0.0124703
0.0131462
0.0143496
0.0157965
0.0176114
0.019016
0.0198326
0.0204972
0.0207892
0.0215561
0.0229407
0.0238199
0.0256013
0.0268052
0.0268416
0.026543
0.0254117
0.0236844
0.0233607
0.0236486
0.0247714
0.0280772
0.0325963
0.0381778
0.0455358
0.0634462
0.0866069
0.115726
0.139738
0.150375
0.14947
0.145381
0.140144
0.128047
0.120178
0.107908
0.085977
0.0628997
0.049088
0.0459269
0.0461566
0.0457827
0.0462984
0.0493733
0.049226
0.0445738
0.0417293
0.0417034
0.0434669
0.0505868
0.0631719
0.0793451
0.0869145
0.0900208
0.092058
0.092643
0.0924134
0.0935
0.0934182
0.0938908
0.0950534
0.0951952
0.0959462
0.0948671
0.0931482
0.0901857
0.087587
0.0840539
0.0842375
0.0841894
0.0870855
0.10389
0.107165
0.104536
0.0887585
0.0695859
0.0588434
0.0575348
0.0606199
0.0716138
0.0881574
0.0904283
0.0915218
0.0908897
0.0912668
0.0948075
0.125192
0.192376
0.214284
0.212851
0.194748
0.16399
0.155354
0.160755
0.165976
0.159502
0.140153
0.134768
0.147728
0.189671
0.195455
0.182871
0.181875
0.184543
0.174526
0.117684
0.0824867
0.0756423
0.119869
0.981987
1.36003
1.24048
1.12516
1.03474
0.957952
0.896275
0.839392
0.792382
0.749596
0.710702
0.676684
0.645015
0.615296
0.589769
0.566176
0.546453
0.526684
0.511404
0.49281
0.478608
0.46117
0.445784
0.432214
0.420816
0.408554
0.400789
0.395956
0.387032
0.384089
0.380015
0.377857
0.378036
0.379157
0.381866
0.386188
0.392075
0.392553
0.391835
0.389073
0.381226
0.3689
0.355297
0.331217
0.306124
0.280941
0.251938
0.2156
0.183353
0.155285
0.125448
0.0992521
0.0827399
0.0697865
0.0598448
0.0553918
0.0551588
0.0565671
0.0612985
0.0729002
0.0964273
0.120477
0.16306
0.242789
0.304366
0.317749
0.314713
0.305904
0.287968
0.267525
0.25156
0.23726
0.227226
0.219089
0.211268
0.205723
0.198464
0.188142
0.178417
0.160029
0.131711
0.0909718
0.0559329
0.0346137
0.0224414
0.0158591
0.0127146
0.0113748
0.0111934
0.0114329
0.0123549
0.0143855
0.0190802
0.0238364
0.0282026
0.0326819
0.0354445
0.0365136
0.0363565
0.0356942
0.0348011
0.0346849
0.0351314
0.0351646
0.0348584
0.034334
0.0330033
0.0307113
0.0299627
0.0300564
0.0314173
0.0357961
0.042952
0.0489036
0.0598255
0.0781837
0.119059
0.160411
0.180865
0.181326
0.176342
0.165318
0.155588
0.150239
0.13963
0.133167
0.12515
0.115152
0.103159
0.0725977
0.0537238
0.0482641
0.0463501
0.0454406
0.0465224
0.0500126
0.049354
0.04405
0.0425463
0.0425341
0.0442277
0.0499483
0.0630301
0.0768003
0.085355
0.0905558
0.0947017
0.095455
0.0969595
0.096348
0.0957454
0.0951096
0.0954138
0.0949783
0.0930796
0.0924154
0.0926005
0.0940888
0.0976148
0.0972931
0.0984747
0.104639
0.110585
0.105088
0.0756612
0.0536844
0.0449621
0.0426408
0.0429562
0.0527954
0.0672534
0.0847856
0.0892941
0.0924638
0.0917852
0.0952989
0.104819
0.152292
0.213754
0.222132
0.214088
0.186572
0.161484
0.153384
0.159265
0.167415
0.15762
0.13553
0.130251
0.145754
0.190624
0.19704
0.180946
0.177439
0.181046
0.175652
0.128109
0.0875489
0.075541
0.111205
0.57346
0.615501
0.577734
0.535155
0.503727
0.469159
0.450092
0.426215
0.406984
0.391531
0.372783
0.358415
0.344176
0.328899
0.315729
0.301953
0.291078
0.278327
0.270923
0.262999
0.254074
0.249318
0.240478
0.23109
0.22572
0.217113
0.208725
0.206138
0.200953
0.197082
0.194606
0.191073
0.188526
0.187413
0.187669
0.187951
0.189729
0.190067
0.189535
0.188195
0.184603
0.176306
0.167461
0.15253
0.134203
0.114735
0.096909
0.0786442
0.0636662
0.05228
0.0420832
0.03474
0.0299256
0.0262861
0.0227871
0.0203802
0.0199483
0.0201949
0.0212507
0.0248302
0.03014
0.0414629
0.0581638
0.0758976
0.115576
0.166188
0.214292
0.244903
0.250882
0.249357
0.244096
0.237829
0.230285
0.216272
0.205366
0.190354
0.16597
0.140807
0.106709
0.0705753
0.0457008
0.0295862
0.0200209
0.0145857
0.0119249
0.0108527
0.0106465
0.0109239
0.0120722
0.0152162
0.0218425
0.0314163
0.0424671
0.0528232
0.0618443
0.0687684
0.0705366
0.0698943
0.0679864
0.0636225
0.0589854
0.0542999
0.0498915
0.0473369
0.0462962
0.0453798
0.0418467
0.0393947
0.0392543
0.0401692
0.0459497
0.0556527
0.0628826
0.0739531
0.096156
0.153508
0.19532
0.207461
0.203045
0.192109
0.175961
0.160942
0.149119
0.142576
0.136079
0.130552
0.125481
0.119797
0.114235
0.102949
0.0738661
0.0563507
0.0490022
0.0458577
0.0457334
0.0488107
0.0499257
0.0470512
0.0435497
0.0428683
0.0429276
0.0443602
0.0492365
0.0607983
0.0725791
0.0825758
0.0898491
0.093443
0.0978721
0.0993818
0.101288
0.104253
0.107904
0.106929
0.105296
0.105322
0.104992
0.10419
0.10258
0.0976104
0.0963629
0.0943285
0.0879943
0.0667854
0.0510586
0.045951
0.042955
0.0429236
0.0433624
0.0535727
0.0694174
0.0834558
0.0907986
0.0930877
0.093541
0.104556
0.120878
0.184409
0.226803
0.227842
0.204709
0.171306
0.152605
0.146674
0.154341
0.160863
0.150383
0.129919
0.126069
0.143614
0.189563
0.195659
0.179743
0.173975
0.177131
0.174282
0.139339
0.104776
0.0781847
0.100869
0.374711
0.1598
0.155347
0.147317
0.143023
0.134737
0.131123
0.127781
0.123473
0.121567
0.117632
0.114054
0.111071
0.105592
0.10232
0.097682
0.093758
0.0904356
0.0872041
0.0853504
0.0828835
0.0816653
0.0803591
0.0779718
0.0767996
0.0743494
0.0713461
0.0705178
0.0690034
0.0680448
0.0676051
0.0663261
0.0655238
0.0636899
0.0627538
0.0614767
0.0610285
0.0606034
0.059358
0.05835
0.0563892
0.0531903
0.0498107
0.044635
0.0388032
0.0328728
0.0277307
0.0227032
0.0187156
0.0156918
0.0131176
0.0114191
0.0101714
0.00914324
0.00811731
0.00738421
0.00725477
0.00731852
0.00763304
0.00848123
0.0105202
0.012961
0.0197533
0.0266387
0.036443
0.0501282
0.0690727
0.0933811
0.112832
0.130083
0.135534
0.134298
0.128747
0.118889
0.102826
0.0828142
0.0642029
0.047641
0.0340334
0.0240967
0.01745
0.0133724
0.0113047
0.010465
0.0103066
0.0105953
0.0118254
0.0153232
0.0225235
0.0380771
0.057109
0.0784338
0.100224
0.116951
0.131125
0.135379
0.134294
0.130332
0.121631
0.109938
0.0980315
0.0865574
0.0746259
0.0663679
0.0620119
0.0572214
0.0531639
0.0526634
0.0533741
0.0566424
0.0695106
0.0792397
0.0901459
0.112483
0.175965
0.220792
0.227647
0.221348
0.205177
0.172309
0.14814
0.134335
0.126421
0.122202
0.118663
0.117273
0.11756
0.11672
0.113634
0.108748
0.097223
0.0737793
0.0565869
0.0484731
0.046129
0.0466488
0.0492918
0.0489464
0.0450999
0.0432424
0.0430849
0.0432499
0.0443381
0.0482383
0.0564465
0.0632535
0.0726142
0.080508
0.0879253
0.0906666
0.0943875
0.0992749
0.101525
0.101003
0.0994169
0.0959959
0.0916402
0.0839593
0.076524
0.0708582
0.0707303
0.0701581
0.061015
0.0513989
0.0453212
0.0449637
0.047175
0.0502235
0.053076
0.0596295
0.0777894
0.0841737
0.0914568
0.0937733
0.0984438
0.115952
0.135075
0.203084
0.230691
0.230541
0.203361
0.165011
0.146367
0.143374
0.15149
0.152169
0.139208
0.124462
0.12346
0.146148
0.188973
0.192229
0.17459
0.168736
0.170681
0.169743
0.150843
0.13415
0.0860414
0.0897827
0.249467
0.0216173
0.02175
0.0218421
0.0218829
0.0218385
0.0218812
0.0220381
0.0221641
0.0222891
0.0222637
0.0220366
0.0216961
0.0208187
0.0203275
0.0194728
0.0187724
0.0182897
0.0177143
0.0174811
0.0171908
0.0170118
0.0169131
0.0166204
0.0164362
0.0159824
0.015686
0.0156876
0.0157021
0.0158132
0.0160538
0.0160683
0.0158728
0.0149932
0.0142669
0.0134442
0.0127772
0.012426
0.0118891
0.0116126
0.0111816
0.0106709
0.0101787
0.00943698
0.00849081
0.00743086
0.00646891
0.00557045
0.00484629
0.00419948
0.00373425
0.00343079
0.00318846
0.00301875
0.00284769
0.00281731
0.00283818
0.00290544
0.00307637
0.00339905
0.00445111
0.00586609
0.00798095
0.0116703
0.0149472
0.0179463
0.0246533
0.0308923
0.0368167
0.0438322
0.0468332
0.0465544
0.045059
0.0416083
0.0362829
0.0300595
0.0239224
0.0183163
0.0142781
0.0116924
0.0102902
0.00989797
0.00992599
0.0102818
0.0116355
0.0150957
0.022488
0.0390162
0.0665483
0.103956
0.145263
0.181526
0.215603
0.239704
0.249028
0.247702
0.241359
0.22605
0.204795
0.183812
0.159784
0.136219
0.115121
0.100264
0.0870437
0.0759136
0.0712208
0.0711061
0.0736398
0.0890597
0.101842
0.110077
0.126878
0.185103
0.236456
0.247313
0.238662
0.212459
0.168469
0.140006
0.127953
0.123192
0.117858
0.113814
0.112086
0.108494
0.105782
0.106462
0.107976
0.10685
0.102387
0.0907026
0.0710357
0.0551054
0.0482539
0.0470299
0.0480996
0.0486461
0.0473099
0.0437462
0.0434454
0.0435018
0.0438013
0.0445247
0.0480422
0.0507392
0.0548412
0.0592768
0.0629772
0.0665041
0.0703874
0.0729259
0.0723167
0.0727691
0.0728636
0.0708598
0.0669417
0.0618299
0.0581583
0.056065
0.0558593
0.0546947
0.0486064
0.0445889
0.0437495
0.0457744
0.0567847
0.0640345
0.0704762
0.0730555
0.0842301
0.0873848
0.0917654
0.0947367
0.106621
0.121168
0.148475
0.215621
0.232894
0.234445
0.203947
0.165593
0.147046
0.146181
0.151494
0.146516
0.129188
0.121344
0.12207
0.151117
0.189019
0.189037
0.171552
0.164054
0.168754
0.169981
0.157307
0.153423
0.111382
0.0906891
0.153304
0.00144203
0.00144764
0.00147398
0.00159507
0.00179702
0.00200003
0.00219504
0.00233572
0.00243586
0.00248269
0.00249764
0.00249407
0.0024396
0.00235145
0.00228013
0.00221694
0.00218462
0.00216098
0.00215431
0.00216086
0.0022113
0.00230863
0.00238161
0.00246577
0.00254065
0.00258368
0.00265925
0.00270991
0.00275634
0.00279592
0.00279961
0.00275894
0.00259522
0.00243744
0.0023061
0.00220218
0.00213449
0.00206604
0.00203863
0.00202826
0.00201825
0.00199874
0.00196131
0.00188375
0.00172477
0.0015643
0.0014353
0.00133786
0.00124236
0.00118283
0.00117514
0.00118336
0.00123158
0.00128375
0.0013552
0.00150113
0.00159758
0.00177798
0.00201756
0.00277024
0.00370064
0.00448052
0.00638549
0.00809946
0.00917763
0.011603
0.0133039
0.0149739
0.0170323
0.0178186
0.0177494
0.0173428
0.0163437
0.0144503
0.0123471
0.0104598
0.00909186
0.00869439
0.0088219
0.00912768
0.00977282
0.0112475
0.0145269
0.0220034
0.0365937
0.0637093
0.119412
0.179324
0.251633
0.311034
0.347833
0.367673
0.369805
0.367081
0.3604
0.345847
0.328496
0.306197
0.270678
0.234133
0.198066
0.168613
0.14727
0.122652
0.105973
0.100244
0.100607
0.110761
0.12028
0.124304
0.133692
0.176252
0.244929
0.262891
0.257209
0.225283
0.173795
0.145098
0.128278
0.122706
0.120226
0.116207
0.112689
0.111751
0.109763
0.106149
0.10243
0.10217
0.102844
0.102024
0.0979049
0.0864955
0.0670309
0.0533515
0.048238
0.0481521
0.0489114
0.0486125
0.0455304
0.0436859
0.0435093
0.0436555
0.0442492
0.046147
0.0492312
0.0500381
0.0514182
0.0520556
0.0539984
0.0544953
0.0561473
0.0555173
0.0554092
0.0562328
0.0562248
0.0559279
0.055196
0.053454
0.0520012
0.0511007
0.0480666
0.0449391
0.0439192
0.0445816
0.0531151
0.0724242
0.0852675
0.0902527
0.0877955
0.089869
0.0902164
0.0922574
0.0970126
0.11086
0.124176
0.168142
0.220785
0.242349
0.248141
0.211795
0.175162
0.157747
0.156756
0.153915
0.138982
0.122464
0.118897
0.123866
0.163876
0.188902
0.182198
0.165401
0.161515
0.170286
0.172729
0.158291
0.154194
0.131757
0.093955
0.109319
0.000301139
0.000304945
0.000319271
0.000336007
0.000355344
0.000372588
0.000387263
0.000402239
0.000413756
0.000421443
0.000424942
0.000425061
0.00042279
0.000416424
0.000412841
0.000407876
0.00040073
0.000393231
0.000386535
0.000390088
0.000434091
0.000538852
0.000649585
0.000755263
0.000868255
0.000951821
0.00103804
0.00110261
0.00114823
0.00118497
0.00119444
0.00119276
0.00116157
0.00110422
0.00105228
0.00100013
0.000961608
0.000940108
0.000926023
0.000914884
0.000905574
0.000892586
0.000865864
0.000831061
0.000788181
0.000756321
0.000752774
0.000756
0.000773899
0.000792072
0.000811712
0.000847452
0.000911153
0.000970326
0.00102159
0.00121188
0.0014508
0.00170473
0.00194015
0.00228847
0.00257591
0.0028678
0.00379621
0.00471342
0.0053921
0.00627086
0.00682941
0.00751776
0.00829863
0.0084742
0.00841436
0.00819076
0.00760991
0.00691957
0.00668859
0.00676945
0.00711994
0.00783893
0.00904981
0.0106784
0.0139298
0.0200248
0.0326243
0.060102
0.105179
0.195521
0.296206
0.379067
0.416538
0.427841
0.426158
0.420153
0.410434
0.40188
0.391416
0.376654
0.365904
0.348668
0.324866
0.299374
0.26068
0.223216
0.189641
0.156206
0.133913
0.127424
0.131701
0.135966
0.134307
0.137015
0.16443
0.245267
0.274898
0.273662
0.251746
0.198123
0.156457
0.134149
0.124079
0.121199
0.119499
0.116042
0.112252
0.110423
0.10872
0.107231
0.102337
0.100387
0.100544
0.101244
0.0998995
0.0948355
0.0810536
0.0656315
0.053496
0.0494546
0.0495994
0.0494848
0.0479945
0.0443168
0.043337
0.0434493
0.0447698
0.0459286
0.0483505
0.0486647
0.0503563
0.0514624
0.051763
0.0517217
0.0531608
0.0533876
0.0530158
0.0538465
0.0553389
0.0558272
0.0556813
0.0554715
0.0532735
0.0516534
0.0515795
0.0524437
0.0543211
0.0600372
0.0806485
0.0994011
0.111977
0.110862
0.0986492
0.0961772
0.0947405
0.0965269
0.100639
0.111693
0.127131
0.190676
0.23834
0.26722
0.267288
0.220654
0.19441
0.178784
0.166518
0.151301
0.126736
0.122128
0.120531
0.130505
0.171311
0.187747
0.17633
0.157634
0.158343
0.176874
0.186424
0.1657
0.148731
0.138415
0.101417
0.0955303
0.000192632
0.000195273
0.000204577
0.000210661
0.00022402
0.000234912
0.000242703
0.000247284
0.000250195
0.000251096
0.000251583
0.000251426
0.00025036
0.000248469
0.000245563
0.000243781
0.00024178
0.000240969
0.000240034
0.000238475
0.000238042
0.000243717
0.000274137
0.000316143
0.000363507
0.000412527
0.000463478
0.00051042
0.000551271
0.000583251
0.000603673
0.000613943
0.000617974
0.000617742
0.000610762
0.000605113
0.000601736
0.000600481
0.000603887
0.000617115
0.000627592
0.000636438
0.000641108
0.000648669
0.000659394
0.000670497
0.000700873
0.000729471
0.000795747
0.00085046
0.000908528
0.000977194
0.00101971
0.00105025
0.00110766
0.00129497
0.00158857
0.0018076
0.00205764
0.00236953
0.00257709
0.00280587
0.00313028
0.00340252
0.00366095
0.00402321
0.00431016
0.00444114
0.00462517
0.00469333
0.00470932
0.0047213
0.00480521
0.00507068
0.0056441
0.0062589
0.00774851
0.00977098
0.0136152
0.019007
0.0301654
0.0500931
0.093505
0.170792
0.309513
0.417345
0.463549
0.471317
0.465502
0.452387
0.438885
0.421144
0.4094
0.399358
0.38822
0.382336
0.370325
0.356525
0.347125
0.322831
0.29687
0.271654
0.219779
0.181439
0.166277
0.164399
0.160724
0.152149
0.1532
0.168749
0.237607
0.277374
0.282621
0.273726
0.240235
0.187872
0.148031
0.128845
0.122861
0.12046
0.119476
0.118049
0.115524
0.109174
0.107433
0.106769
0.102987
0.0995943
0.0992281
0.100229
0.099907
0.0974315
0.0888476
0.0709889
0.0597527
0.0533288
0.05154
0.0508111
0.0492115
0.0452869
0.0434995
0.0433887
0.0439497
0.0444437
0.0452288
0.0468589
0.0493467
0.049288
0.0477734
0.0496532
0.0551421
0.0555118
0.0538528
0.0542082
0.0563749
0.0595962
0.0615584
0.0649635
0.069359
0.0742839
0.0785572
0.0837062
0.0900525
0.109006
0.12962
0.143346
0.143256
0.12565
0.10748
0.100181
0.0990244
0.101204
0.104278
0.111483
0.130711
0.228796
0.25697
0.287744
0.27335
0.231985
0.216175
0.194186
0.183037
0.142883
0.141753
0.134118
0.129279
0.152948
0.182258
0.18635
0.169475
0.155824
0.158646
0.181403
0.201971
0.182083
0.140825
0.135805
0.109003
0.08542
0.000214773
0.000219127
0.000228888
0.000233128
0.000236324
0.000236695
0.000236512
0.000236733
0.000237121
0.000237632
0.000238706
0.000238996
0.000239793
0.000240133
0.000239873
0.000236752
0.000231853
0.000226366
0.000222017
0.000219984
0.000221135
0.000260432
0.000337666
0.000432865
0.000535553
0.00061842
0.000699664
0.000749561
0.000781018
0.000793742
0.00079546
0.000790701
0.000754399
0.000723618
0.000696686
0.000688679
0.000689207
0.000693723
0.000716412
0.000744945
0.000792306
0.000869941
0.000920157
0.0010278
0.00111463
0.00123219
0.0013304
0.00138939
0.00151104
0.00161894
0.00179554
0.00196119
0.0020535
0.00224016
0.00247004
0.0027153
0.00304368
0.00327908
0.00338016
0.00342535
0.00342155
0.00340824
0.00343499
0.00344925
0.00341891
0.00341974
0.00343057
0.00344505
0.00348758
0.0035688
0.00376528
0.0040333
0.00449272
0.00553568
0.00719038
0.00900524
0.0134168
0.0188016
0.0297911
0.0469909
0.0831412
0.144545
0.281105
0.429743
0.498885
0.511466
0.504892
0.484825
0.444155
0.400723
0.377195
0.363264
0.354898
0.351934
0.350901
0.353252
0.355427
0.354252
0.344483
0.33242
0.319587
0.281303
0.250621
0.224668
0.202858
0.189719
0.171464
0.164674
0.167888
0.203837
0.266753
0.277774
0.277541
0.27054
0.239346
0.184139
0.144362
0.126924
0.12275
0.119942
0.119708
0.120335
0.119762
0.113584
0.109913
0.107749
0.105799
0.100873
0.10043
0.10125
0.101173
0.0994407
0.0939993
0.0787832
0.0664748
0.056888
0.0528658
0.0520041
0.0505943
0.0466278
0.0438655
0.0432808
0.0429812
0.0433408
0.0443136
0.0442917
0.0446655
0.0448138
0.0455158
0.0531687
0.0561706
0.055104
0.0549396
0.0575363
0.0721422
0.0874825
0.102739
0.110775
0.124785
0.131815
0.146024
0.155359
0.173462
0.187146
0.191576
0.186865
0.162078
0.123842
0.107958
0.100814
0.102623
0.104624
0.106211
0.110931
0.141888
0.257596
0.281628
0.294236
0.257838
0.259202
0.255223
0.216407
0.226942
0.162323
0.159288
0.17688
0.165909
0.174499
0.184918
0.179531
0.163326
0.158403
0.163497
0.185287
0.203481
0.19285
0.146954
0.132147
0.1052
0.0793183
0.000519184
0.000513187
0.000507871
0.000499201
0.000473858
0.00045872
0.000439403
0.000433434
0.000424942
0.000414132
0.000412151
0.000408926
0.000407995
0.000407774
0.000416168
0.000428962
0.000449408
0.000473445
0.000518716
0.000663347
0.000737505
0.000905994
0.00100477
0.00118039
0.00141566
0.00164027
0.00195932
0.00218524
0.00240122
0.00253219
0.00259892
0.00262211
0.00256904
0.00248467
0.00244234
0.00244447
0.00246714
0.00251809
0.00275446
0.0029614
0.00329352
0.00363627
0.00388536
0.0041809
0.00445239
0.00490067
0.0052693
0.0054905
0.00580854
0.00634651
0.00690408
0.0072427
0.00776756
0.00830956
0.00846097
0.0084326
0.00832197
0.00808607
0.00768704
0.00707706
0.00635727
0.00568596
0.00515009
0.00472678
0.00447794
0.00441515
0.00442515
0.00449825
0.00472703
0.00514889
0.00625239
0.00719865
0.00935473
0.0118217
0.0173666
0.0232508
0.0347778
0.051689
0.0830862
0.136254
0.239632
0.42012
0.520168
0.54738
0.543912
0.520121
0.456983
0.387595
0.361771
0.356453
0.352348
0.349744
0.346289
0.344841
0.343214
0.342595
0.346382
0.346741
0.340908
0.333994
0.317191
0.29141
0.264778
0.230557
0.207869
0.186983
0.168791
0.167404
0.18226
0.241395
0.26184
0.266049
0.27797
0.285195
0.25664
0.185639
0.143464
0.12645
0.122687
0.120185
0.120726
0.12353
0.123812
0.118855
0.114683
0.110657
0.109276
0.103974
0.104293
0.104885
0.105142
0.103998
0.0994063
0.0840127
0.0701469
0.0611695
0.0560132
0.0536151
0.0513576
0.0480872
0.0447792
0.0438715
0.0436391
0.04307
0.0429702
0.0431017
0.0444072
0.0465083
0.0475351
0.0502711
0.0548165
0.0601276
0.0679797
0.0918139
0.127609
0.142581
0.157494
0.171209
0.192055
0.201556
0.223237
0.231881
0.237936
0.234803
0.227378
0.188432
0.143217
0.114386
0.104624
0.102985
0.107404
0.106728
0.103654
0.109004
0.165571
0.270625
0.3095
0.284627
0.25029
0.294317
0.285701
0.255503
0.309016
0.223535
0.243162
0.20972
0.193919
0.197429
0.190759
0.169533
0.160615
0.171426
0.188969
0.193795
0.200019
0.196506
0.15162
0.119596
0.092711
0.0736105
0.00426632
0.00420412
0.00411419
0.00399215
0.00379845
0.00370254
0.00355854
0.00354642
0.00355382
0.00357765
0.00363675
0.00371362
0.0038731
0.00395159
0.004133
0.0042719
0.00459382
0.00490557
0.00528894
0.00592646
0.00620918
0.00679636
0.00720033
0.00792575
0.0089043
0.00977086
0.0109686
0.0117967
0.0125725
0.0130733
0.0133609
0.0134701
0.0133992
0.013194
0.0131353
0.0131659
0.0132709
0.0134844
0.0142782
0.0148902
0.0160238
0.0172373
0.0179143
0.0191672
0.0200154
0.021241
0.0221348
0.023097
0.0244605
0.0253307
0.0259968
0.0269206
0.0273291
0.0272371
0.0268251
0.0261073
0.024918
0.0233785
0.0216845
0.0196172
0.0172691
0.0153911
0.0138986
0.0125636
0.0118631
0.0118054
0.0119369
0.0124343
0.013431
0.0150746
0.0184278
0.021368
0.028577
0.0361841
0.0500307
0.0693573
0.0991293
0.148261
0.223832
0.394503
0.517509
0.572199
0.579136
0.557296
0.478891
0.38845
0.351447
0.34589
0.349164
0.357455
0.364896
0.367421
0.366755
0.360923
0.351754
0.349714
0.349141
0.347367
0.341871
0.327634
0.302826
0.28524
0.256781
0.224353
0.201714
0.175973
0.162465
0.163733
0.199448
0.239417
0.246786
0.264014
0.308156
0.327687
0.29658
0.208865
0.150663
0.129088
0.12256
0.119774
0.120222
0.123321
0.125162
0.12305
0.119804
0.114592
0.110526
0.108735
0.111075
0.112665
0.112575
0.111113
0.104819
0.0900701
0.0762876
0.0666215
0.0601265
0.0566191
0.0537799
0.0504816
0.0479947
0.0464407
0.0451112
0.0438944
0.0438889
0.046221
0.0485688
0.0503126
0.0531621
0.0580076
0.076864
0.0963638
0.112483
0.137482
0.156092
0.16505
0.17619
0.197141
0.210455
0.219385
0.235612
0.245214
0.246205
0.224628
0.177624
0.137848
0.114939
0.104604
0.103088
0.105962
0.110352
0.104205
0.0940452
0.107682
0.179039
0.293136
0.319889
0.268081
0.258348
0.301257
0.303809
0.345937
0.333584
0.288585
0.409784
0.300677
0.256233
0.216536
0.196885
0.165805
0.161454
0.178037
0.200227
0.19841
0.187793
0.189413
0.147249
0.110881
0.0853226
0.0725492
0.0369096
0.0363284
0.0356911
0.0345264
0.0335114
0.0326848
0.0318358
0.031714
0.031744
0.0318464
0.032213
0.0324875
0.0330923
0.0334724
0.0344294
0.0350956
0.0365699
0.0375691
0.0386949