/*--------------------------------*- C++ -*----------------------------------*\
| =========                 |                                                 |
| \\      /  F ield         | OpenFOAM: The Open Source CFD Toolbox           |
|  \\    /   O peration     | Version:  2.4.0                                 |
|   \\  /    A nd           | Web:      www.OpenFOAM.org                      |
|    \\/     M anipulation  |                                                 |
\*---------------------------------------------------------------------------*/
FoamFile
{
    version     2.0;
    format      ascii;
    class       volScalarField;
    location    "0.72";
    object      nuSgs;
}
// * * * * * * * * * * * * * * * * * * * * * * * * * * * * * * * * * * * * * //

dimensions      [0 2 -1 0 0 0 0];

internalField   nonuniform List<scalar> 
8800
(
0.00133878
0.00150531
0.00139474
0.00122593
0.00112432
0.00104741
0.000999395
0.000955888
0.000931599
0.000899019
0.000884186
0.000862532
0.00085472
0.000835992
0.00082907
0.000812953
0.000806445
0.000788219
0.000783536
0.000753765
0.000556363
0.000979714
0.00108475
0.00108059
0.00106459
0.0010304
0.00100486
0.000972876
0.000955045
0.00092525
0.0009124
0.000890331
0.000881664
0.000863102
0.00085764
0.000843126
0.000838582
0.000825714
0.00081766
0.000812313
0.000136442
0.000398667
0.000588497
0.000657202
0.000707599
0.000732518
0.000756664
0.000757532
0.000759987
0.000758915
0.000756978
0.000747859
0.000745446
0.000738731
0.000736964
0.000728947
0.000727967
0.000723334
0.000720587
0.000714961
2.72873e-05
0.000123149
0.000235764
0.00031315
0.000357247
0.000388901
0.000435247
0.000452506
0.000469167
0.000495046
0.000511325
0.000515309
0.000525339
0.000535525
0.000544831
0.000547739
0.000553358
0.000559274
0.000566588
0.000568269
5.2877e-06
3.26775e-05
6.90484e-05
0.000117993
0.000142335
0.000158915
0.000194734
0.000214283
0.000224438
0.000250112
0.000273193
0.000281077
0.000288317
0.000307353
0.000318408
0.000332682
0.000338318
0.000351941
0.000358936
0.000376706
2.3527e-06
8.08558e-06
1.79651e-05
3.55538e-05
4.52961e-05
5.14282e-05
6.61025e-05
7.70138e-05
8.20915e-05
9.4745e-05
0.000113772
0.000121566
0.000125488
0.0001358
0.000143891
0.000158229
0.000162615
0.000172177
0.000176173
0.000189289
2.18274e-06
3.06412e-06
5.13563e-06
1.03588e-05
1.35115e-05
1.48124e-05
1.81916e-05
2.16861e-05
2.31311e-05
2.67849e-05
3.60089e-05
4.06417e-05
4.23182e-05
4.57209e-05
4.87121e-05
5.66518e-05
5.99999e-05
6.48638e-05
6.5776e-05
6.85668e-05
2.16269e-06
2.62202e-06
3.00178e-06
4.20347e-06
5.74533e-06
5.99946e-06
6.3918e-06
6.77891e-06
6.61491e-06
7.07074e-06
1.00638e-05
1.29554e-05
1.30941e-05
1.29321e-05
1.30223e-05
1.52771e-05
1.85317e-05
1.90603e-05
1.83071e-05
1.80133e-05
2.14823e-06
2.5796e-06
2.85064e-06
3.32349e-06
4.12595e-06
4.77811e-06
5.21218e-06
4.97936e-06
4.98621e-06
5.00848e-06
6.42599e-06
7.91928e-06
7.89696e-06
7.66641e-06
7.56575e-06
8.25929e-06
8.56188e-06
8.43994e-06
8.09156e-06
8.12531e-06
2.13058e-06
2.44997e-06
3.41085e-06
3.82975e-06
3.62637e-06
3.47741e-06
3.77309e-06
4.84739e-06
4.98785e-06
4.77524e-06
4.77203e-06
5.1891e-06
5.91338e-06
5.86614e-06
5.91471e-06
6.18385e-06
6.25967e-06
6.16512e-06
6.19894e-06
6.44454e-06
2.12992e-06
2.47082e-06
3.41916e-06
3.5893e-06
3.45335e-06
3.4147e-06
4.03804e-06
4.91815e-06
5.02723e-06
4.93692e-06
4.88398e-06
5.69939e-06
5.94604e-06
5.94333e-06
5.90913e-06
5.93404e-06
6.00763e-06
6.04999e-06
6.17485e-06
6.70646e-06
2.14208e-06
2.47455e-06
3.23494e-06
3.38586e-06
3.48177e-06
4.15697e-06
4.87064e-06
4.80509e-06
4.64839e-06
4.66133e-06
5.18533e-06
6.24862e-06
6.22127e-06
5.96586e-06
5.72868e-06
5.78254e-06
6.06396e-06
7.26432e-06
9.66582e-06
1.07614e-05
2.15862e-06
2.52359e-06
3.75252e-06
4.4508e-06
4.51868e-06
4.9479e-06
5.29095e-06
5.85469e-06
7.55565e-06
1.01862e-05
1.06764e-05
1.16738e-05
1.19274e-05
1.19706e-05
1.22742e-05
1.40297e-05
1.62667e-05
2.12751e-05
2.62445e-05
3.08242e-05
2.18593e-06
3.12078e-06
7.12784e-06
8.43182e-06
9.34325e-06
1.30487e-05
1.63155e-05
1.98702e-05
2.81827e-05
3.45402e-05
3.57081e-05
3.93031e-05
4.1451e-05
4.34071e-05
4.62029e-05
5.46376e-05
6.02298e-05
7.24876e-05
7.86609e-05
9.06484e-05
2.34515e-06
8.41132e-06
2.36367e-05
2.96262e-05
3.57103e-05
5.25066e-05
6.43985e-05
7.3426e-05
9.2923e-05
0.000106123
0.000109495
0.000119288
0.000125289
0.000134202
0.000140485
0.000157193
0.000165982
0.000184954
0.00019358
0.000212106
5.1597e-06
3.33686e-05
8.25685e-05
0.000103973
0.000125945
0.000170703
0.000191509
0.000208118
0.000239888
0.000258527
0.000264388
0.000280344
0.000290895
0.0003045
0.00031336
0.000335992
0.00034588
0.000366928
0.00037525
0.000394278
2.71911e-05
0.000124812
0.000248805
0.000294232
0.000350865
0.000402743
0.000428246
0.000449992
0.000483115
0.000496106
0.000501973
0.000516056
0.000527049
0.000533819
0.000541384
0.000555909
0.000560281
0.000569766
0.000573052
0.000581431
0.00013677
0.000402936
0.000590933
0.000648752
0.000709269
0.000736703
0.000753545
0.000757515
0.000763743
0.000757937
0.000754833
0.000747901
0.000746477
0.000739042
0.000737436
0.000732627
0.000731016
0.000725651
0.000723428
0.000718922
0.000557714
0.0009815
0.00108324
0.0010798
0.00106498
0.00102916
0.00100801
0.000972937
0.000953369
0.000924354
0.000913983
0.000887963
0.000881041
0.00086324
0.000857867
0.000840038
0.000836063
0.000819499
0.000813204
0.000798219
0.0013397
0.00150657
0.00139235
0.00122783
0.00112446
0.00104506
0.00100221
0.000956143
0.000929316
0.000897056
0.000886814
0.000859818
0.000852878
0.000831854
0.00082766
0.000803901
0.000797654
0.000771624
0.000761255
0.000727712
0.000344019
0.000297398
0.000264554
0.000248784
0.000232955
0.000228171
0.000218959
0.000216063
0.000209698
0.000207774
0.000203047
0.000201556
0.000197706
0.000196331
0.000192652
0.00019124
0.000187824
0.000186665
0.000183886
0.000183184
0.000181381
0.000181103
0.000179987
0.000179724
0.000178715
0.000178259
0.00017653
0.000175435
0.000172418
0.000170438
0.000165833
0.00016286
0.000156497
0.000152205
0.000145291
0.000140337
0.000136089
0.000135676
0.000136198
0.000138315
0.00014207
0.000145934
0.000149676
0.000154274
0.000157487
0.00015954
0.000159855
0.000159706
0.000159135
0.000157553
0.000154017
0.000149229
0.000147674
0.000148103
0.000149884
0.000155174
0.000171093
0.000181539
0.000184392
0.000182005
0.000161473
0.000132592
0.000113477
0.000101906
9.57605e-05
9.2126e-05
9.01954e-05
8.99358e-05
8.97456e-05
8.9521e-05
8.93868e-05
8.89668e-05
8.87544e-05
8.95254e-05
9.06109e-05
9.08186e-05
9.06756e-05
8.97523e-05
8.99939e-05
9.15135e-05
9.66949e-05
0.000100724
0.000103591
0.00010479
0.000104143
0.000101227
9.44005e-05
8.02603e-05
6.48705e-05
5.3217e-05
4.48429e-05
3.90087e-05
3.55868e-05
3.35372e-05
3.23836e-05
3.17517e-05
3.14304e-05
3.1408e-05
3.141e-05
3.16183e-05
3.19295e-05
3.29215e-05
3.41728e-05
3.53528e-05
3.8175e-05
4.03864e-05
4.09679e-05
4.06035e-05
3.87647e-05
3.70556e-05
3.60776e-05
3.60047e-05
3.62274e-05
3.69357e-05
3.80801e-05
4.10921e-05
4.33764e-05
4.81927e-05
5.27768e-05
5.82128e-05
6.09849e-05
6.11807e-05
6.02394e-05
5.83356e-05
5.38557e-05
5.00878e-05
4.96614e-05
4.98515e-05
5.13239e-05
5.62024e-05
5.60744e-05
5.60212e-05
5.64902e-05
5.5249e-05
5.13713e-05
5.04637e-05
5.11205e-05
5.37748e-05
6.20479e-05
7.06941e-05
7.59516e-05
7.77122e-05
7.82541e-05
7.97798e-05
8.34483e-05
8.66004e-05
9.27465e-05
9.27847e-05
9.38158e-05
9.382e-05
9.33734e-05
9.27384e-05
9.00933e-05
8.57069e-05
8.45675e-05
8.46104e-05
8.51466e-05
8.53041e-05
8.5757e-05
8.46567e-05
7.94503e-05
7.61998e-05
7.55731e-05
7.56857e-05
7.704e-05
7.65989e-05
7.50084e-05
7.41995e-05
7.41624e-05
7.49921e-05
8.0184e-05
8.04879e-05
7.90589e-05
7.71912e-05
7.48311e-05
7.41238e-05
7.57311e-05
9.08131e-05
0.000104485
0.000106987
0.000106735
0.000101678
9.61998e-05
9.58836e-05
9.82655e-05
0.000101138
9.96196e-05
9.79926e-05
9.9717e-05
0.000111797
0.000112018
0.000110274
0.000111384
0.000111911
0.000107183
8.87857e-05
7.51713e-05
7.43026e-05
9.72737e-05
0.000431767
0.00040871
0.000370023
0.000336578
0.00031432
0.000294094
0.000281459
0.000268668
0.000260689
0.000251369
0.000245922
0.000238834
0.000235067
0.000229432
0.000226953
0.000222494
0.000220368
0.000216513
0.000214715
0.000211236
0.000209766
0.000206722
0.000205591
0.000203309
0.000202464
0.00020057
0.000199977
0.00019859
0.000198136
0.000197092
0.000196726
0.000195712
0.000194856
0.000193151
0.000190743
0.000188727
0.000184844
0.000181776
0.000178136
0.000175074
0.000172308
0.000170303
0.000169625
0.000168901
0.00016811
0.00016645
0.000163802
0.000161715
0.000158114
0.000154161
0.000146684
0.000141502
0.000139811
0.000138327
0.000137516
0.000135725
0.000132738
0.000132899
0.000135741
0.000144818
0.000164662
0.000169506
0.000168142
0.000160532
0.00013721
0.000117656
0.00010583
9.84025e-05
9.43846e-05
9.23917e-05
9.11178e-05
9.0342e-05
9.01402e-05
9.0256e-05
9.09695e-05
9.14008e-05
9.18491e-05
9.27115e-05
9.44885e-05
9.88801e-05
0.000102138
0.000103326
0.000103241
0.000101967
9.81597e-05
8.92354e-05
7.24283e-05
5.72696e-05
4.61612e-05
3.85337e-05
3.38776e-05
3.13959e-05
3.0399e-05
3.04796e-05
3.06913e-05
3.09043e-05
3.12986e-05
3.15038e-05
3.20115e-05
3.23175e-05
3.26308e-05
3.36754e-05
3.47961e-05
3.54991e-05
3.72367e-05
3.9416e-05
4.02559e-05
4.01374e-05
3.95716e-05
3.79932e-05
3.70945e-05
3.70804e-05
3.7536e-05
3.90294e-05
4.12771e-05
4.37797e-05
4.94574e-05
5.44774e-05
6.42303e-05
7.08187e-05
7.71732e-05
8.05913e-05
8.0658e-05
7.95817e-05
7.65441e-05
7.16421e-05
6.32326e-05
5.7291e-05
5.31107e-05
5.24971e-05
5.37201e-05
5.59029e-05
5.58435e-05
5.60023e-05
5.70798e-05
5.6104e-05
5.25171e-05
5.1689e-05
5.24008e-05
5.57906e-05
6.37419e-05
7.13608e-05
7.5953e-05
7.74708e-05
7.76844e-05
7.81192e-05
7.89213e-05
8.11709e-05
8.518e-05
8.60663e-05
8.87628e-05
8.88609e-05
8.90464e-05
8.85114e-05
8.62618e-05
8.59947e-05
8.58446e-05
8.59186e-05
8.42185e-05
8.24498e-05
7.75908e-05
7.52366e-05
7.54e-05
7.81933e-05
8.07944e-05
8.04483e-05
7.76956e-05
7.40856e-05
7.19118e-05
7.13082e-05
7.22681e-05
7.81274e-05
7.86475e-05
7.78624e-05
7.73813e-05
7.65607e-05
7.67118e-05
8.04599e-05
0.000100306
0.000114208
0.000116158
0.000113997
0.000105322
0.000100602
0.000101046
0.000102566
0.000102317
9.87769e-05
9.6351e-05
9.86119e-05
0.000112049
0.000113717
0.000110794
0.000110872
0.000110854
0.000107592
8.97487e-05
7.50813e-05
7.4059e-05
9.68805e-05
0.000341467
0.000370161
0.000346967
0.000324901
0.000308076
0.000292992
0.000281354
0.000270591
0.00026198
0.000253652
0.000246877
0.000240272
0.0002349
0.000229472
0.000225196
0.000220901
0.00021743
0.000213662
0.000210857
0.000207309
0.000205072
0.000201772
0.000199933
0.000197326
0.000196004
0.000193707
0.000192711
0.000191539
0.000190368
0.000189689
0.000189321
0.000189128
0.000189012
0.000189101
0.000188923
0.0001887
0.000188006
0.000186818
0.000185852
0.000183475
0.000181591
0.00017944
0.00017676
0.000173357
0.00016902
0.000165349
0.000159136
0.000152972
0.00014586
0.000138367
0.000130363
0.000122611
0.000116578
0.000107424
9.83842e-05
9.58182e-05
9.63207e-05
9.85794e-05
0.000104456
0.000110018
0.00011775
0.000136909
0.000154264
0.000157721
0.000156649
0.000152445
0.000141258
0.000128059
0.000117231
0.000108331
0.000102978
0.000100672
9.88352e-05
9.88497e-05
9.942e-05
0.00010078
0.000103215
0.000106252
0.000106695
0.000106305
0.000105189
0.000102486
9.6548e-05
8.47578e-05
6.69415e-05
5.25633e-05
4.20653e-05
3.49481e-05
3.09722e-05
2.88248e-05
2.85797e-05
2.8723e-05
2.93656e-05
3.08229e-05
3.24535e-05
3.44067e-05
3.60039e-05
3.68771e-05
3.75043e-05
3.77457e-05
3.81015e-05
3.92508e-05
3.99226e-05
4.13111e-05
4.24546e-05
4.25609e-05
4.23675e-05
4.16461e-05
4.00309e-05
3.95685e-05
3.97405e-05
4.0513e-05
4.29091e-05
4.62774e-05
5.02413e-05
5.45096e-05
6.38556e-05
7.48152e-05
8.68811e-05
9.59289e-05
0.000100049
9.98481e-05
9.84933e-05
9.6889e-05
9.27688e-05
8.97145e-05
8.53939e-05
7.68153e-05
6.55279e-05
5.75488e-05
5.51292e-05
5.53755e-05
5.51213e-05
5.52769e-05
5.70304e-05
5.72107e-05
5.469e-05
5.25357e-05
5.24086e-05
5.32673e-05
5.69628e-05
6.37724e-05
7.17744e-05
7.55293e-05
7.69241e-05
7.78037e-05
7.81311e-05
7.81094e-05
7.86798e-05
7.87259e-05
7.89582e-05
7.94807e-05
7.95692e-05
7.99783e-05
7.95891e-05
7.88933e-05
7.75052e-05
7.66484e-05
7.47413e-05
7.48202e-05
7.46736e-05
7.51653e-05
8.14299e-05
8.40423e-05
8.35295e-05
7.79947e-05
6.79655e-05
6.10499e-05
5.96853e-05
6.07829e-05
6.58205e-05
7.46269e-05
7.65682e-05
7.75523e-05
7.74945e-05
7.76496e-05
7.86931e-05
8.6878e-05
0.00011052
0.00011878
0.000118812
0.000115171
0.000105391
0.000101253
0.000102227
0.000104838
0.00010371
9.74312e-05
9.45035e-05
9.6931e-05
0.000110662
0.000114302
0.000110953
0.000109783
0.000110129
0.000107915
9.1522e-05
7.57373e-05
7.25105e-05
9.1187e-05
0.000258993
0.000300158
0.000286662
0.000272998
0.000261871
0.000251949
0.00024372
0.000235888
0.00022913
0.000222908
0.000217044
0.000211785
0.000206826
0.000201984
0.000197729
0.000193676
0.000190257
0.000186731
0.000184053
0.000180719
0.00017813
0.000174975
0.000172021
0.000169308
0.000167085
0.000164596
0.000162811
0.000161936
0.000160084
0.000159391
0.000158597
0.000158079
0.000158096
0.0001583
0.000158849
0.000159638
0.000161025
0.000161255
0.000161158
0.000160682
0.000159347
0.000156699
0.000154036
0.000149066
0.000143267
0.000137223
0.000130351
0.00012084
0.000111166
0.000102381
9.23333e-05
8.18456e-05
7.44132e-05
6.83939e-05
6.32142e-05
6.02806e-05
5.98928e-05
6.04343e-05
6.26167e-05
6.71299e-05
7.75711e-05
8.70889e-05
0.000100223
0.00012306
0.000140061
0.000144723
0.000144193
0.000142467
0.000138472
0.00013347
0.000129279
0.000125528
0.000122767
0.000120583
0.000118337
0.000116689
0.000114731
0.000111703
0.000108818
0.00010367
9.46912e-05
7.97676e-05
6.26147e-05
4.91735e-05
3.9462e-05
3.30112e-05
2.93932e-05
2.76823e-05
2.73474e-05
2.75919e-05
2.86014e-05
3.08558e-05
3.53368e-05
4.00261e-05
4.37413e-05
4.72413e-05
4.94792e-05
5.03913e-05
5.03045e-05
4.98205e-05
4.89444e-05
4.85457e-05
4.86847e-05
4.87412e-05
4.85671e-05
4.82247e-05
4.75068e-05
4.57543e-05
4.49738e-05
4.49573e-05
4.56836e-05
4.83787e-05
5.32241e-05
5.68146e-05
6.25239e-05
7.12605e-05
8.73051e-05
0.000102389
0.000109344
0.000109784
0.000108419
0.000105135
0.000101776
0.00010008
9.66158e-05
9.41962e-05
9.14851e-05
8.7647e-05
8.34446e-05
7.11511e-05
6.0442e-05
5.67804e-05
5.55592e-05
5.48572e-05
5.53957e-05
5.73566e-05
5.72724e-05
5.43049e-05
5.30048e-05
5.29342e-05
5.37895e-05
5.67625e-05
6.3695e-05
7.06049e-05
7.46746e-05
7.7016e-05
7.88525e-05
7.9153e-05
7.98547e-05
7.96485e-05
7.94372e-05
7.91618e-05
7.93011e-05
7.9247e-05
7.84922e-05
7.80113e-05
7.79946e-05
7.83715e-05
8.00389e-05
8.00383e-05
8.02129e-05
8.18609e-05
8.51591e-05
8.39693e-05
7.39283e-05
6.13092e-05
5.52237e-05
5.32556e-05
5.30387e-05
5.67104e-05
6.42785e-05
7.30793e-05
7.6007e-05
7.7969e-05
7.77979e-05
7.91011e-05
8.22224e-05
9.60326e-05
0.000117163
0.000121081
0.000119212
0.000112099
0.000104005
0.000100319
0.000101337
0.000104996
0.000103225
9.57434e-05
9.2841e-05
9.59254e-05
0.000110701
0.00011487
0.00011068
0.000108428
0.000109051
0.000107846
9.47012e-05
7.78923e-05
7.24558e-05
8.75633e-05
0.000197053
0.000201792
0.000195583
0.000188
0.000182617
0.00017623
0.00017253
0.000168132
0.000164159
0.000161089
0.000157262
0.000154104
0.000151103
0.000147728
0.000144755
0.000141524
0.000138966
0.000135795
0.000133786
0.000131926
0.000129556
0.000128333
0.000126341
0.000123764
0.000122316
0.000120213
0.000117636
0.000116812
0.000115444
0.000114243
0.000113582
0.000112613
0.00011183
0.000111383
0.000111444
0.000111505
0.000111957
0.000112162
0.000112033
0.000111707
0.000110835
0.000108443
0.000105835
0.000101389
9.53594e-05
8.81376e-05
8.10996e-05
7.31684e-05
6.56193e-05
5.93779e-05
5.32485e-05
4.81644e-05
4.45275e-05
4.17883e-05
3.90291e-05
3.66907e-05
3.60564e-05
3.61908e-05
3.69639e-05
3.94321e-05
4.33799e-05
5.02012e-05
6.02394e-05
6.88225e-05
8.4237e-05
0.000101896
0.000116888
0.00012631
0.000128636
0.000128337
0.000127174
0.000125418
0.000123722
0.000120048
0.000116796
0.000112917
0.00010575
9.76696e-05
8.60862e-05
7.032e-05
5.66274e-05
4.54914e-05
3.72895e-05
3.16882e-05
2.8499e-05
2.70765e-05
2.67296e-05
2.70334e-05
2.83329e-05
3.15883e-05
3.78912e-05
4.56202e-05
5.34219e-05
5.98591e-05
6.49827e-05
6.88322e-05
7.00288e-05
6.97661e-05
6.88511e-05
6.67007e-05
6.40629e-05
6.13779e-05
5.85859e-05
5.67102e-05
5.58806e-05
5.54367e-05
5.36623e-05
5.16827e-05
5.13812e-05
5.1776e-05
5.45197e-05
6.0469e-05
6.44941e-05
6.96535e-05
7.90067e-05
9.90073e-05
0.000113115
0.000117341
0.000116312
0.000113235
0.000108427
0.000103577
9.95854e-05
9.72428e-05
9.51078e-05
9.3177e-05
9.13367e-05
8.91968e-05
8.73026e-05
8.32912e-05
7.14894e-05
6.17177e-05
5.73297e-05
5.51792e-05
5.49625e-05
5.6618e-05
5.75581e-05
5.61552e-05
5.37699e-05
5.32078e-05
5.32068e-05
5.39033e-05
5.65067e-05
6.26007e-05
6.86695e-05
7.34316e-05
7.67581e-05
7.82617e-05
8.01461e-05
8.0862e-05
8.15231e-05
8.23987e-05
8.4186e-05
8.41031e-05
8.3301e-05
8.33007e-05
8.31977e-05
8.29058e-05
8.24184e-05
8.03212e-05
7.95627e-05
7.86436e-05
7.70918e-05
6.89516e-05
5.96095e-05
5.59669e-05
5.3783e-05
5.37586e-05
5.37531e-05
5.75816e-05
6.57715e-05
7.26671e-05
7.66919e-05
7.81749e-05
7.84405e-05
8.22976e-05
8.77269e-05
0.000106618
0.000121091
0.000122651
0.000118055
0.000107231
0.000100418
9.78812e-05
9.96789e-05
0.000102636
0.000100768
9.34723e-05
9.12355e-05
9.47924e-05
0.000110374
0.000114454
0.000110441
0.000107462
0.000108044
0.00010747
9.82806e-05
8.35821e-05
7.3386e-05
8.35097e-05
0.000158457
0.000102761
0.000101401
9.85176e-05
9.71523e-05
9.43828e-05
9.29468e-05
9.18985e-05
9.03258e-05
8.96265e-05
8.8336e-05
8.69184e-05
8.59115e-05
8.37922e-05
8.24364e-05
8.06083e-05
7.88901e-05
7.74407e-05
7.59356e-05
7.50796e-05
7.39381e-05
7.32959e-05
7.2821e-05
7.17381e-05
7.12207e-05
7.03058e-05
6.87638e-05
6.83142e-05
6.75804e-05
6.70608e-05
6.68886e-05
6.63648e-05
6.60438e-05
6.51829e-05
6.47126e-05
6.39974e-05
6.36909e-05
6.34845e-05
6.28415e-05
6.23098e-05
6.1343e-05
5.95813e-05
5.77647e-05
5.48946e-05
5.13205e-05
4.72261e-05
4.33858e-05
3.92693e-05
3.55212e-05
3.24455e-05
2.95728e-05
2.74564e-05
2.58597e-05
2.45776e-05
2.32364e-05
2.20647e-05
2.17502e-05
2.18092e-05
2.21797e-05
2.31199e-05
2.56277e-05
2.8331e-05
3.43968e-05
4.05205e-05
4.76073e-05
5.6041e-05
6.55328e-05
7.69833e-05
8.52383e-05
9.20587e-05
9.46729e-05
9.44299e-05
9.27403e-05
8.93015e-05
8.36222e-05
7.52945e-05
6.64805e-05
5.74443e-05
4.86399e-05
4.09105e-05
3.47241e-05
3.02751e-05
2.76885e-05
2.65671e-05
2.63082e-05
2.66392e-05
2.80449e-05
3.17029e-05
3.83714e-05
4.968e-05
6.16616e-05
7.243e-05
8.23945e-05
8.9311e-05
9.48557e-05
9.67998e-05
9.65004e-05
9.5182e-05
9.21409e-05
8.76369e-05
8.26623e-05
7.77509e-05
7.21449e-05
6.75119e-05
6.49975e-05
6.25757e-05
6.00232e-05
5.94729e-05
5.97359e-05
6.11383e-05
6.71522e-05
7.23922e-05
7.70399e-05
8.56267e-05
0.000105891
0.000120381
0.000123046
0.000121436
0.000117384
0.000107575
9.93667e-05
9.43954e-05
9.14095e-05
8.98073e-05
8.8556e-05
8.80271e-05
8.81648e-05
8.79055e-05
8.69101e-05
8.51575e-05
8.10636e-05
7.08797e-05
6.1828e-05
5.68974e-05
5.52213e-05
5.54174e-05
5.70402e-05
5.69875e-05
5.4918e-05
5.3527e-05
5.33353e-05
5.34076e-05
5.39488e-05
5.59455e-05
6.06503e-05
6.44252e-05
6.90143e-05
7.27146e-05
7.61216e-05
7.73793e-05
7.86593e-05
8.06279e-05
8.19069e-05
8.1814e-05
8.12514e-05
7.9991e-05
7.82818e-05
7.51086e-05
7.15845e-05
6.81165e-05
6.77334e-05
6.77417e-05
6.48723e-05
5.94694e-05
5.52674e-05
5.46901e-05
5.57359e-05
5.80706e-05
5.97559e-05
6.23481e-05
7.02804e-05
7.35418e-05
7.71844e-05
7.82191e-05
8.01068e-05
8.62068e-05
9.23754e-05
0.000112654
0.00012246
0.000123318
0.000118033
0.000106105
9.88111e-05
9.70692e-05
9.93475e-05
9.98689e-05
9.68763e-05
9.11093e-05
9.01115e-05
9.5034e-05
0.000110594
0.000113361
0.000109132
0.000105962
0.000106166
0.000106028
0.000101879
9.55527e-05
7.67414e-05
7.80959e-05
0.000129273
3.77365e-05
3.77803e-05
3.77894e-05
3.78212e-05
3.77892e-05
3.78272e-05
3.79749e-05
3.81178e-05
3.8288e-05
3.83024e-05
3.81909e-05
3.79675e-05
3.72473e-05
3.67878e-05
3.60356e-05
3.53179e-05
3.484e-05
3.42389e-05
3.39663e-05
3.36716e-05
3.34602e-05
3.33765e-05
3.31218e-05
3.29657e-05
3.25704e-05
3.21721e-05
3.21479e-05
3.21494e-05
3.22145e-05
3.25068e-05
3.25994e-05
3.25658e-05
3.18954e-05
3.11155e-05
3.02132e-05
2.93473e-05
2.89036e-05
2.82081e-05
2.78235e-05
2.73103e-05
2.6635e-05
2.60134e-05
2.51181e-05
2.39102e-05
2.23898e-05
2.08808e-05
1.9345e-05
1.80058e-05
1.67201e-05
1.56843e-05
1.49817e-05
1.44146e-05
1.40615e-05
1.36575e-05
1.35488e-05
1.35932e-05
1.37249e-05
1.40525e-05
1.47028e-05
1.63155e-05
1.88048e-05
2.17734e-05
2.66091e-05
3.07406e-05
3.36496e-05
3.9177e-05
4.44848e-05
4.86293e-05
5.32912e-05
5.56415e-05
5.55993e-05
5.48331e-05
5.29409e-05
4.96422e-05
4.53427e-05
4.05806e-05
3.55318e-05
3.12733e-05
2.81748e-05
2.62941e-05
2.57238e-05
2.57649e-05
2.61828e-05
2.77239e-05
3.14274e-05
3.81751e-05
5.014e-05
6.57306e-05
8.27686e-05
9.86061e-05
0.000110504
0.000121013
0.000127908
0.000130811
0.000130563
0.000129039
0.00012527
0.000119173
0.000112897
0.000105501
9.75647e-05
8.94736e-05
8.31904e-05
7.75879e-05
7.22207e-05
6.93349e-05
6.90134e-05
6.98548e-05
7.58082e-05
8.21842e-05
8.55216e-05
9.14172e-05
0.000108718
0.000124535
0.000128305
0.000126292
0.000119783
0.000106753
9.677e-05
9.20545e-05
9.02313e-05
8.83259e-05
8.66896e-05
8.60341e-05
8.48262e-05
8.36429e-05
8.38161e-05
8.45304e-05
8.42541e-05
8.2636e-05
7.81733e-05
6.92901e-05
6.08618e-05
5.65992e-05
5.56681e-05
5.6265e-05
5.67364e-05
5.61215e-05
5.39112e-05
5.35682e-05
5.35907e-05
5.37518e-05
5.41241e-05
5.60162e-05
5.76915e-05
6.00162e-05
6.25238e-05
6.46511e-05
6.63353e-05
6.82493e-05
6.97835e-05
6.94197e-05
6.93931e-05
6.95011e-05
6.88045e-05
6.69571e-05
6.43892e-05
6.22649e-05
6.07539e-05
6.05517e-05
6.01551e-05
5.76733e-05
5.47955e-05
5.3861e-05
5.43223e-05
5.98856e-05
6.49818e-05
6.89622e-05
7.00755e-05
7.39776e-05
7.54668e-05
7.76011e-05
7.86766e-05
8.2918e-05
8.78315e-05
9.628e-05
0.000116774
0.000123128
0.000124816
0.000118493
0.000106539
9.92491e-05
9.82844e-05
9.98828e-05
9.85573e-05
9.31244e-05
8.97357e-05
8.94186e-05
9.64292e-05
0.000110788
0.000112537
0.000108115
0.000104408
0.000105335
0.00010608
0.000104082
0.000103023
8.62362e-05
7.88892e-05
0.00010145
9.78745e-06
9.78859e-06
9.82428e-06
1.00476e-05
1.06332e-05
1.1237e-05
1.18346e-05
1.2279e-05
1.26035e-05
1.27731e-05
1.28415e-05
1.28467e-05
1.27707e-05
1.25385e-05
1.23348e-05
1.21368e-05
1.2027e-05
1.1944e-05
1.19119e-05
1.19107e-05
1.1981e-05
1.22402e-05
1.24423e-05
1.26636e-05
1.28854e-05
1.29973e-05
1.31943e-05
1.33389e-05
1.34615e-05
1.35883e-05
1.36236e-05
1.36039e-05
1.3302e-05
1.28756e-05
1.25036e-05
1.21819e-05
1.19752e-05
1.17544e-05
1.16384e-05
1.15853e-05
1.15455e-05
1.14871e-05
1.13798e-05
1.12106e-05
1.07711e-05
1.0251e-05
9.78834e-06
9.43842e-06
9.09183e-06
8.82903e-06
8.76765e-06
8.78726e-06
8.92247e-06
9.13183e-06
9.32534e-06
9.82669e-06
1.01388e-05
1.0631e-05
1.12159e-05
1.27201e-05
1.50191e-05
1.65052e-05
1.95771e-05
2.26254e-05
2.41445e-05
2.71286e-05
2.93937e-05
3.11795e-05
3.33686e-05
3.43894e-05
3.43699e-05
3.4037e-05
3.31809e-05
3.13006e-05
2.89647e-05
2.66625e-05
2.47107e-05
2.39633e-05
2.41318e-05
2.45416e-05
2.53916e-05
2.71642e-05
3.07473e-05
3.75118e-05
4.85185e-05
6.37314e-05
8.77797e-05
0.000108491
0.000129248
0.000144176
0.000152721
0.000156861
0.000157293
0.00015671
0.000155351
0.000152416
0.00014874
0.0001443
0.000136443
0.00012724
0.000117142
0.000107679
0.000100751
9.22401e-05
8.52115e-05
8.20729e-05
8.19445e-05
8.51334e-05
8.9476e-05
9.1087e-05
9.42174e-05
0.000105964
0.000126527
0.000132183
0.000131083
0.000123827
0.000108476
9.86871e-05
9.23879e-05
9.00439e-05
8.90869e-05
8.77013e-05
8.62569e-05
8.5885e-05
8.52024e-05
8.38927e-05
8.23392e-05
8.2175e-05
8.24039e-05
8.21863e-05
8.06588e-05
7.62789e-05
6.72527e-05
5.97588e-05
5.65108e-05
5.63518e-05
5.67586e-05
5.66809e-05
5.50529e-05
5.37808e-05
5.36307e-05
5.37162e-05
5.39618e-05
5.4862e-05
5.68285e-05
5.73927e-05
5.83066e-05
5.8661e-05
5.97322e-05
6.00285e-05
6.10288e-05
6.07301e-05
6.05028e-05
6.08783e-05
6.09347e-05
6.08582e-05
6.05613e-05
5.97228e-05
5.87898e-05
5.83413e-05
5.70482e-05
5.50975e-05
5.41593e-05
5.43467e-05
5.70982e-05
6.72728e-05
7.49161e-05
7.82067e-05
7.71227e-05
7.7352e-05
7.71805e-05
7.78864e-05
7.96599e-05
8.45795e-05
8.89214e-05
0.000102525
0.000118762
0.000126043
0.000129115
0.000121145
0.000109774
0.000103216
0.000102104
0.000101031
9.63877e-05
9.03422e-05
8.85974e-05
8.94467e-05
0.000100732
0.00011115
0.000110761
0.000105938
0.000103526
0.000105669
0.000106943
0.000103952
0.000103079
9.5303e-05
8.09235e-05
8.70112e-05
4.46153e-06
4.48519e-06
4.56332e-06
4.672e-06
4.80137e-06
4.91992e-06
5.02106e-06
5.12419e-06
5.20657e-06
5.26546e-06
5.29785e-06
5.30348e-06
5.29845e-06
5.26121e-06
5.23362e-06
5.20608e-06
5.16199e-06
5.11488e-06
5.05952e-06
5.04787e-06
5.1759e-06
5.70712e-06
6.31347e-06
6.83905e-06
7.3866e-06
7.77469e-06
8.15211e-06
8.44519e-06
8.64452e-06
8.81971e-06
8.88546e-06
8.89836e-06
8.8456e-06
8.63812e-06
8.43493e-06
8.21647e-06
8.03235e-06
7.92054e-06
7.84746e-06
7.79116e-06
7.74925e-06
7.6989e-06
7.5995e-06
7.45878e-06
7.27273e-06
7.10021e-06
7.06392e-06
7.07389e-06
7.14341e-06
7.23665e-06
7.32704e-06
7.45284e-06
7.69985e-06
7.97022e-06
8.13627e-06
8.6607e-06
9.50973e-06
1.03478e-05
1.10218e-05
1.19834e-05
1.27996e-05
1.34441e-05
1.51449e-05
1.72312e-05
1.85467e-05
2.01503e-05
2.11401e-05
2.21025e-05
2.33381e-05
2.37387e-05
2.36898e-05
2.34094e-05
2.27029e-05
2.15646e-05
2.10357e-05
2.10915e-05
2.1539e-05
2.24968e-05
2.42433e-05
2.63299e-05
3.00444e-05
3.58363e-05
4.55626e-05
6.15535e-05
8.17025e-05
0.000111897
0.000139273
0.000158407
0.000166337
0.00016852
0.000168165
0.000166884
0.000164879
0.000163121
0.000161172
0.000158202
0.000155915
0.000152656
0.000147659
0.000142342
0.000133489
0.00012361
0.000114399
0.000104033
9.55779e-05
9.21994e-05
9.32202e-05
9.52995e-05
9.49581e-05
9.56866e-05
0.000102873
0.000125964
0.000134987
0.00013512
0.000130695
0.000116409
0.000102903
9.46934e-05
9.07437e-05
8.94634e-05
8.88104e-05
8.76172e-05
8.61631e-05
8.53915e-05
8.47112e-05
8.42232e-05
8.24321e-05
8.15121e-05
8.15355e-05
8.1855e-05
8.14045e-05
7.95055e-05
7.38395e-05
6.6491e-05
5.97366e-05
5.7147e-05
5.71738e-05
5.71342e-05
5.65124e-05
5.43106e-05
5.35435e-05
5.35586e-05
5.42322e-05
5.48723e-05
5.64892e-05
5.67158e-05
5.75271e-05
5.82936e-05
5.85711e-05
5.8515e-05
5.92052e-05
5.94726e-05
5.92034e-05
5.94462e-05
6.03371e-05
6.0794e-05
6.07471e-05
6.08055e-05
6.00092e-05
5.89359e-05
5.87784e-05
5.91463e-05
6.00765e-05
6.21172e-05
7.0652e-05
7.98709e-05
8.65253e-05
8.70713e-05
8.24731e-05
8.0363e-05
7.93155e-05
7.98063e-05
8.13415e-05
8.50984e-05
8.99159e-05
0.000109645
0.000123858
0.000133269
0.000133634
0.000123497
0.000115482
0.000109859
0.000105664
0.000100516
9.19185e-05
9.01035e-05
8.90971e-05
9.09623e-05
0.000103691
0.000110992
0.000109243
0.000102808
0.000102385
0.000107207
0.00011064
0.000104986
0.000101318
9.83225e-05
8.51233e-05
8.23205e-05
3.56879e-06
3.59052e-06
3.66687e-06
3.71418e-06
3.81691e-06
3.9131e-06
3.98666e-06
4.03325e-06
4.0642e-06
4.07605e-06
4.0828e-06
4.08271e-06
4.07831e-06
4.06506e-06
4.04198e-06
4.02604e-06
4.00769e-06
3.99864e-06
3.99224e-06
3.97786e-06
3.97127e-06
3.98239e-06
4.14294e-06
4.44772e-06
4.77663e-06
5.09942e-06
5.42181e-06
5.71195e-06
5.96077e-06
6.15842e-06
6.2913e-06
6.36443e-06
6.39924e-06
6.40522e-06
6.38159e-06
6.34728e-06
6.32456e-06
6.31257e-06
6.31695e-06
6.37202e-06
6.43354e-06
6.4903e-06
6.52023e-06
6.56039e-06
6.61901e-06
6.67491e-06
6.80587e-06
6.93624e-06
7.21749e-06
7.48827e-06
7.74017e-06
8.04649e-06
8.24169e-06
8.36078e-06
8.49457e-06
8.97317e-06
9.97507e-06
1.06947e-05
1.13921e-05
1.22739e-05
1.28655e-05
1.33994e-05
1.41648e-05
1.48421e-05
1.53948e-05
1.61693e-05
1.68426e-05
1.71271e-05
1.75064e-05
1.76643e-05
1.77002e-05
1.77115e-05
1.78216e-05
1.81753e-05
1.9162e-05
2.01256e-05
2.21973e-05
2.4843e-05
2.95023e-05
3.48572e-05
4.37572e-05
5.6228e-05
7.67706e-05
0.000103313
0.000141027
0.000165635
0.0001752
0.000176884
0.000175816
0.000173128
0.000170371
0.000166649
0.000164074
0.000162036
0.000159824
0.000158797
0.000156615
0.000153716
0.000151807
0.00014721
0.000141083
0.000135895
0.000123209
0.000111244
0.000105313
0.000104351
0.000103822
0.00010111
0.000101229
0.000105238
0.000123777
0.000135265
0.000137172
0.00013565
0.00012819
0.000113304
0.000100029
9.26869e-05
9.02429e-05
8.91772e-05
8.87743e-05
8.82685e-05
8.74761e-05
8.50353e-05
8.41916e-05
8.40069e-05
8.26412e-05
8.12301e-05
8.10085e-05
8.14478e-05
8.13793e-05
8.05052e-05
7.74333e-05
6.94077e-05
6.32644e-05
5.94581e-05
5.84057e-05
5.80379e-05
5.72529e-05
5.4982e-05
5.36784e-05
5.3546e-05
5.38683e-05
5.42022e-05
5.46941e-05
5.54562e-05
5.71277e-05
5.73168e-05
5.63785e-05
5.68262e-05
5.99819e-05
6.06439e-05
5.98243e-05
5.98632e-05
6.07502e-05
6.27565e-05
6.39123e-05
6.56571e-05
6.78598e-05
7.02522e-05
7.24049e-05
7.47103e-05
7.69629e-05
8.32133e-05
9.14513e-05
9.79715e-05
9.86995e-05
9.40732e-05
8.59859e-05
8.19761e-05
8.11028e-05
8.17145e-05
8.29416e-05
8.54011e-05
9.09701e-05
0.000120312
0.000129461
0.000138281
0.000135033
0.000125801
0.000121438
0.000114313
0.000111256
9.81995e-05
9.73387e-05
9.4821e-05
9.21304e-05
9.77427e-05
0.000108356
0.000110776
0.000107131
0.000101624
0.000102311
0.00010862
0.000116377
0.000110332
9.9105e-05
9.77766e-05
8.90563e-05
7.84438e-05
3.76265e-06
3.80045e-06
3.89152e-06
3.93362e-06
3.96107e-06
3.96428e-06
3.96239e-06
3.96293e-06
3.96638e-06
3.97017e-06
3.98027e-06
3.98284e-06
3.98958e-06
3.99463e-06
3.99508e-06
3.98148e-06
3.94271e-06
3.89625e-06
3.8535e-06
3.82929e-06
3.81755e-06
3.96526e-06
4.50119e-06
5.11654e-06
5.75918e-06
6.23996e-06
6.69782e-06
6.98992e-06
7.17769e-06
7.26787e-06
7.28874e-06
7.28977e-06
7.17123e-06
7.01515e-06
6.86333e-06
6.79847e-06
6.79603e-06
6.80903e-06
6.89163e-06
7.02769e-06
7.22192e-06
7.58972e-06
7.81446e-06
8.24646e-06
8.60531e-06
9.06156e-06
9.47998e-06
9.69438e-06
1.00764e-05
1.04023e-05
1.0922e-05