/*--------------------------------*- C++ -*----------------------------------*\
| =========                 |                                                 |
| \\      /  F ield         | OpenFOAM: The Open Source CFD Toolbox           |
|  \\    /   O peration     | Version:  2.4.0                                 |
|   \\  /    A nd           | Web:      www.OpenFOAM.org                      |
|    \\/     M anipulation  |                                                 |
\*---------------------------------------------------------------------------*/
FoamFile
{
    version     2.0;
    format      ascii;
    class       volScalarField;
    location    "0.72";
    object      p;
}
// * * * * * * * * * * * * * * * * * * * * * * * * * * * * * * * * * * * * * //

dimensions      [0 2 -2 0 0 0 0];

internalField   nonuniform List<scalar> 
8800
(
110.599
98.2569
90.9005
87.3224
85.4181
84.1121
82.8292
81.6558
80.7882
79.8063
78.7128
77.828
77.0284
76.078
75.1725
74.3863
73.6484
72.9368
72.233
71.7139
107.486
97.9034
91.0716
87.4373
85.4742
84.1413
82.8385
81.6488
80.7889
79.8103
78.705
77.8217
77.0309
76.0766
75.1679
74.3832
73.6513
72.9321
72.2352
71.6663
105.519
97.9835
91.6752
87.811
85.6414
84.2236
82.8822
81.6791
80.8167
79.8297
78.7115
77.8263
77.0361
76.0733
75.1643
74.3742
73.6548
72.9239
72.3
71.7365
103.983
98.0474
92.2622
88.2362
85.8281
84.3054
82.9404
81.7428
80.8665
79.8625
78.7424
77.8497
77.0462
76.0746
75.165
74.3657
73.6478
72.9192
72.3917
72.0332
102.737
98.0193
92.7357
88.649
86.005
84.3624
82.9832
81.8148
80.9181
79.9024
78.7908
77.8869
77.0515
76.0833
75.1663
74.3642
73.623
72.9173
72.329
72.3648
101.757
97.9179
93.1006
89.0016
86.1623
84.3976
83.0116
81.8753
80.958
79.9403
78.8469
77.9265
77.0536
76.0895
75.1702
74.3617
73.6015
72.9194
72.3708
72.8868
101.005
97.8002
93.3652
89.2848
86.3066
84.4202
83.0201
81.9176
80.9902
79.976
78.8948
77.9581
77.0559
76.0932
75.1752
74.3576
73.5951
72.9375
72.4933
73.1451
100.457
97.6979
93.5437
89.4979
86.4353
84.4311
83.0157
81.9473
81.0126
80
78.929
77.9825
77.0561
76.0915
75.1729
74.3558
73.5976
72.9685
72.5987
73.36
100.101
97.6219
93.6558
89.6441
86.5236
84.4048
83.0099
81.9706
81.0256
80.0107
78.9507
78.0038
77.0545
76.0847
75.1774
74.3617
73.6099
72.9986
72.688
73.5247
99.9267
97.5809
93.7099
89.7219
86.5684
84.403
83.0081
81.9945
81.0469
80.0129
79.0058
78.0258
77.0533
76.0815
75.1911
74.3754
73.6296
73.0443
72.7568
73.6325
99.928
97.582
93.7048
89.7238
86.5715
84.4009
83.0121
82.0116
81.0414
80.0039
79.0142
78.0438
77.0443
76.0803
75.2111
74.3953
73.6513
73.0735
72.8026
73.6869
100.104
97.624
93.6422
89.6519
86.532
84.3936
83.0195
82.0172
81.0253
79.98
79.0149
78.054
77.0347
76.086
75.2381
74.4182
73.6722
73.1003
72.8273
73.6824
100.461
97.7013
93.5183
89.5092
86.4529
84.3772
83.025
82.0194
81.0037
79.9436
79.0055
78.0584
77.0234
76.0959
75.2717
74.4463
73.6936
73.1276
72.8297
73.6268
101.012
97.8058
93.3242
89.2934
86.3372
84.3534
83.024
82.0132
80.9741
79.896
78.9849
78.0528
77.0066
76.1062
75.3087
74.4758
73.7202
73.1631
72.8136
73.496
101.771
97.922
93.0447
89.0062
86.2086
84.3171
83.0124
82.0024
80.9323
79.8318
78.9623
78.0436
76.9814
76.1111
75.3535
74.5076
73.7502
73.2079
72.8188
73.2881
102.758
98.0191
92.6674
88.6547
86.07
84.2645
82.9766
81.9831
80.8833
79.7532
78.9351
78.0365
76.9561
76.1068
75.3972
74.5391
73.7881
73.2613
72.8529
73.0205
104.01
98.049
92.1836
88.2456
85.9174
84.1928
82.913
81.9486
80.8327
79.6775
78.9063
78.0294
76.9362
76.0983
75.43
74.5659
73.8265
73.3086
72.9153
72.7424
105.548
97.9902
91.5946
87.8192
85.7418
84.104
82.8425
81.9018
80.7888
79.6302
78.8818
78.0179
76.9291
76.0961
75.4459
74.5842
73.8592
73.3441
72.9732
72.5964
107.513
97.9159
90.9939
87.4401
85.5739
84.0289
82.7963
81.8666
80.7642
79.6177
78.8706
78.0091
76.9346
76.1025
75.4496
74.5963
73.8785
73.3637
72.9672
72.5271
110.627
98.27
90.8256
87.3285
85.5108
84.0036
82.7958
81.8605
80.7611
79.6302
78.874
78.0028
76.9426
76.11
75.4459
74.5993
73.8868
73.3678
72.9648
72.6434
71.8656
71.8924
71.8605
71.8042
71.7464
71.6991
71.6445
71.6022
71.5812
71.5807
71.5888
71.5822
71.5588
71.5173
71.4485
71.3668
71.2862
71.2276
71.2054
71.2419
71.3329
71.4737
71.6504
71.8336
72.0216
72.2201
72.3971
72.5497
72.6805
72.7529
72.7627
72.672
72.4503
72.0733
71.497
70.6623
69.5542
68.2185
66.6884
65.0253
63.3239
61.6603
60.2381
59.2624
58.793
58.9994
59.9141
61.5484
63.8594
66.7793
70.3819
74.1608
77.6337
80.5509
82.7003
84.4488
86.0501
87.2485
87.6399
87.3187
86.2659
84.4802
82.019
78.8598
74.9991
70.7659
66.1685
61.2699
56.6477
52.3336
48.1834
44.7468
42.1116
39.7962
38.265
37.6417
37.2815
37.3558
38.3669
39.6449
40.7737
42.222
43.6504
44.5323
45.3293
46.1132
46.5196
46.7801
47.1439
47.3225
47.4846
47.9504
48.4785
49.2416
50.5225
52.0788
53.9818
56.3596
59.0149
62.0282
65.2705
68.4771
71.6193
74.7281
77.5096
80.0076
82.1764
83.8672
85.2955
86.3505
86.9812
87.4456
87.4808
87.2021
86.7013
85.6784
84.2666
83.084
81.6976
80.1914
79.2245
78.7271
78.4445
78.4018
79.1283
80.3544
81.7529
83.3765
85.1092
86.8598
88.4166
89.9332
91.1464
92.0101
92.7603
93.419
93.8934
94.0465
94.1565
94.0598
93.744
93.3671
92.5149
91.5459
90.5576
89.2074
87.6695
86.1328
84.3623
82.3326
80.1019
77.6807
75.2101
73.083
71.4883
70.5963
69.2168
68.068
67.6563
67.1479
66.9069
68.1768
69.877
71.7437
74.0853
76.263
78.6667
80.8608
83.0032
84.8848
86.7766
88.2794
89.2641
89.8895
90.19
89.9839
89.2483
88.8861
87.7294
85.3494
83.7246
82.3948
80.3909
78.735
77.6306
76.7346
76.4022
76.3943
76.321
76.2775
76.3798
76.6522
76.1726
75.0806
72.6051
68.0105
62.1753
53.9302
39.6132
1.82489
71.6328
71.7071
71.8172
71.8248
71.753
71.6656
71.5819
71.5444
71.5327
71.5438
71.5653
71.5615
71.5414
71.5047
71.4419
71.3725
71.3041
71.2581
71.2385
71.272
71.361
71.4892
71.6687
71.8551
72.0385
72.2537
72.4241
72.561
72.6914
72.7412
72.7309
72.6273
72.3757
71.9612
71.3645
70.5148
69.3977
68.0983
66.6056
65.0016
63.4231
61.8958
60.5968
59.7774
59.4571
59.7368
60.7357
62.39
64.6907
67.5538
70.9102
74.3137
77.3281
80.006
82.2954
84.2468
85.7694
86.6596
86.7935
86.5015
85.738
84.1356
81.7749
78.8178
75.1831
71.1985
66.9796
62.4786
58.1822
54.2292
50.479
47.3161
44.8466
42.6735
41.1338
40.4673
40.1865
40.1231
40.6687
41.6821
42.5507
43.5451
44.8392
45.6854
46.1006
46.4338
46.6299
46.6515
46.5189
46.41
46.4401
46.5427
46.9222
47.7297
48.9587
50.43
52.3722
55.0174
57.8552
61.0088
64.5245
68.0073
71.4157
74.7197
77.5729
80.1915
82.4745
84.1716
85.6494
86.718
87.3569
87.6884
87.5357
87.0324
86.1796
84.6961
82.814
80.8576
78.9172
76.901
75.5813
74.6577
74.1232
74.1734
74.9874
76.308
77.8685
79.9135
82.1373
84.2738
86.2235
88.086
89.7645
91.0267
92.0144
92.8281
93.536
93.917
94.1374
94.217
93.9875
93.7283
93.1871
92.2346
91.3113
90.0201
88.4191
86.9517
85.2938
83.2892
81.385
79.1188
76.9601
75.0081
73.2735
72.4467
71.2609
70.1343
69.777
69.8184
69.7738
71.0061
72.8652
74.542
76.4557
78.2756
80.3464
82.1861
83.9474
85.6552
87.3485
88.4948
89.2147
89.5682
89.6767
89.2439
88.1447
87.4209
85.9392
82.7895
80.3052
78.6261
76.0558
73.8262
72.3026
71.2858
70.835
70.5558
70.4167
70.2642
70.5867
70.8003
70.5886
69.0493
65.8527
61.0683
54.0938
44.1035
29.5476
-8.3628
71.5786
71.6816
71.8974
71.9312
71.8044
71.6384
71.4957
71.4537
71.4693
71.5023
71.5469
71.5528
71.5368
71.5122
71.4538
71.3961
71.3445
71.3067
71.2887
71.3196
71.4009
71.5107
71.6868
71.8699
72.031
72.2541
72.4084
72.5073
72.6363
72.6494
72.6034
72.4749
72.1977
71.7467
71.1257
70.3154
69.2116
67.9841
66.5934
65.0849
63.6926
62.3616
61.2391
60.6069
60.4862
60.8549
61.8749
63.5606
65.7012
68.2311
71.1287
74.1591
77.0379
79.6501
81.7971
83.3387
84.519
85.4594
85.8873
85.5737
84.8483
83.2873
81.0184
78.3968
75.1195
71.4305
67.6511
63.5835
59.6229
56.1802
52.8998
49.8602
47.4871
45.6591
44.1595
43.259
42.9971
42.9629
43.1626
43.9218
44.8531
45.5403
46.2882
46.9375
47.0805
47.0286
46.8108
46.3247
45.9263
45.466
45.0993
45.1227
45.3602
45.8595
46.9713
48.5868
50.6024
53.2335
56.2733
59.7022
63.4692
67.2627
70.9275
74.5218
77.6725
80.3562
82.7778
84.6604
86.2714
87.4096
88.0526
88.2448
87.9119
87.0856
85.7762
83.8272
81.4608
78.7372
76.0798
73.5436
71.6456
70.2506
69.3565
69.4707
70.3067
71.7222
73.7351
76.2771
78.8148
81.2124
83.8187
86.2787
88.352
90.0256
91.3857
92.4922
93.439
94.0308
94.2871
94.4363
94.4373
94.2604
93.8836
93.2438
92.3515
91.321
89.7751
88.4493
86.9241
84.8599
83.1912
81.2066
79.1794
77.3601
75.7808
74.8856
73.9571
72.8984
72.4158
72.758
72.958
73.93
75.6059
76.7832
78.3539
79.9781
81.7334
83.5282
85.09
86.6649
88.142
89.0488
89.412
89.4936
89.2053
88.3313
87.1603
85.8525
83.5324
79.6607
76.8138
74.6477
71.4425
68.772
67
65.8787
65.4015
65.0154
64.7397
64.5778
64.9607
65.2203
65.0314
63.5892
60.677
55.9334
48.3459
36.576
23.5242
-5.26485
71.7125
71.7512
71.8763
71.7656
71.5618
71.3963
71.2819
71.3034
71.3729
71.4519
71.5315
71.5599
71.5646
71.5485
71.5011
71.456
71.4011
71.3652
71.346
71.3736
71.4448
71.5193
71.6874
71.8606
71.9901
72.197
72.3352
72.4126
72.5155
72.4804
72.4127
72.2579
71.9443
71.4901
70.8875
70.1239
69.0765
67.9775
66.746
65.3647
64.2307
63.1217
62.1981
61.7607
61.8082
62.2613
63.242
64.8218
66.6882
68.9072
71.5018
74.1991
76.7572
78.8464
80.5725
82.0349
83.1498
84.0865
84.5014
84.1262
83.4603
82.1806
80.1709
77.8825
75.0019
71.6284
68.2225
64.6072
61.0627
57.9237
54.9193
52.2813
50.2448
48.5956
47.2016
46.2712
46.0176
46.1124
46.3596
46.9247
47.5089
47.9199
48.2242
48.3338
48.1472
47.6213
46.8949
46.0635
45.219
44.4409
43.7975
43.4034
43.3026
43.6331
44.6092
46.0778
48.103
50.905
54.1484
57.8252
61.9252
66.1439
70.1543
74.0389
77.6081
80.6239
83.3074
85.4324
87.2144
88.425
89.0991
89.1469
88.5614
87.3807
85.5753
83.1325
80.057
76.5426
73.0874
69.8707
67.2596
65.481
64.3469
64.2526
65.1322
66.8688
69.3167
72.2128
75.2868
78.3786
81.5904
84.4488
86.8655
89.0452
90.8308
92.2415
93.3513
94.064
94.5498
94.8797
95.0719
95.0221
94.6137
94.2459
93.4896
92.6998
91.4458
90.3105
88.926
87.168
85.5866
83.964
82.1132
80.3557
79.0271
77.8811
76.6199
75.8935
75.2853
75.3434
75.6767
76.2724
77.4618
78.2001
79.4444
81.2307
82.9937
84.9577
86.5407
87.7731
88.9477
89.7738
90.0182
89.9071
89.4413
87.9156
86.3268
84.7741
81.3473
76.2734
73.2621
70.7485
66.8445
63.5078
61.7765
60.8786
60.2061
59.7617
59.4558
59.3727
59.4802
60.3096
60.7335
59.6672
56.8584
51.9436
44.8367
32.0221
22.1981
1.03153
73.2727
72.9643
72.0655
71.3516
70.9465
70.8274
70.8603
71.055
71.247
71.3969
71.5386
71.603
71.6253
71.6031
71.5466
71.5263
71.472
71.4131
71.3948
71.429
71.4919
71.515
71.6676
71.8327
71.919
72.0935
72.2085
72.2791
72.3458
72.2675
72.1698
72.0174
71.7011
71.2496
70.6596
69.974
69.0759
68.0987
67.0362
65.9389
64.9532
64.0866
63.3971
63.0935
63.2671
63.7729
64.6412
66.0378
67.7055
69.6618
71.8948
74.0507
76.1109
77.9096
79.441
80.8086
81.7508
82.5081
82.9074
82.5666
82.0127
81.0678
79.2915
77.2957
74.9241
71.9621
68.9673
65.9186
62.8104
59.9323
57.3554
55.1833
53.3272
51.8261
50.7382
49.9679
49.7029
49.8307
49.9477
50.1207
50.3526
50.4059
50.2714
49.8719
49.1707
48.2305
47.0829
45.8528
44.5237
43.2131
42.0977
41.2404
40.7765
40.7899
41.4589
42.8069
44.8428
47.7186
51.229
55.3479
59.8602
64.5681
69.2022
73.5526
77.5339
80.9082
83.9075
86.3433
88.3601
89.6867
90.3592
90.2754
89.5048
88.0163
85.6218
82.5366
78.66
74.264
69.8081
65.7316
62.3641
60.1398
58.9121
58.7758
59.6833
61.7273
64.6757
68.1762
71.8774
75.4616
79.1111
82.6854
85.643
88.1132
90.2482
92.0267
93.3513
94.3101
95.0733
95.5424
95.779
95.8425
95.5086
95.152
94.6387
93.8794
93.0045
92.0203
90.6705
89.2844
87.8882
86.4629
84.7717
83.0838
81.8544
80.5327
79.048
78.3888
77.912
77.548
77.6214
77.839
78.5518
79.2067
80.4112
82.5413
84.5596
86.5115
87.988
89.019
89.9147
90.3939
90.5957
90.5544
90.0305
88.3906
86.3903
84.4339
80.3281
74.1638
70.3089
67.2171
62.7495
58.7455
57.0271
56.3673
55.6581
55.1219
54.5489
54.3736
54.8524
56.5759
57.8553
57.0897
53.9018
49.0034
43.7596
30.8463
22.0823
6.20763
74.3974
73.8975
72.2971
71.1189
70.4734
70.3116
70.455
70.7857
71.1174
71.3343
71.5239
71.6646
71.71
71.6816
71.6256
71.6237
71.5611
71.4592
71.4364
71.4681
71.5189
71.5073
71.6289
71.7912
71.8529
71.9761
72.06
72.1439
72.1807
72.0518
71.9542
71.8147
71.4882
71.0365
70.5164
69.9369
69.1682
68.3365
67.4638
66.5535
65.7792
65.1089
64.5978
64.4474
64.6622
65.1478
65.9342
67.1172
68.6069
70.2589
72.0233
73.7619
75.522
77.1735
78.4752
79.6198
80.481
81.0628
81.4795
81.2595
80.6969
79.941
78.4481
76.7588
74.9061
72.4754
69.9917
67.508
64.9166
62.5637
60.3735
58.4902
56.8048
55.5692
54.7213
54.0409
53.6929
53.6083
53.5166
53.3856
53.1862
52.8285
52.2487
51.3783
50.3333
49.0612
47.3598
45.5807
43.7315
41.7932
40.1191
38.7369
37.7658
37.3408
37.6722
38.8986
40.9346
43.9091
47.7087
52.2565
57.3384
62.6113
67.7996
72.7094
77.2382
81.2556
84.5767
87.3716
89.6025
91.0559
91.7663
91.6465
90.7078
88.9217
86.0444
82.1698
77.2331
71.8703
66.3164
61.2885
57.3322
54.6209
53.2065
53.088
54.1122
56.5346
60.0177
64.0318
68.3344
72.7201
77.0393
81.1481
84.3836
87.1693
89.8271
92.0171
93.5806
94.7409
95.6545
96.2871
96.6083
96.7444
96.6092
96.1474
95.68
94.941
94.2816
93.3217
92.0985
90.8897
89.6047
88.4106
86.7573
85.1199
83.7111
82.5671
81.259
80.4074
79.9769
79.4724
79.2745
79.4224
79.9875
80.6691
81.9568
84.2185
86.3601
88.1268
89.3667
90.4617
91.1036
91.2658
91.1957
91.1264
90.5869
88.9733
86.9089
84.4473
80.0532
73.3816
68.4089
64.5299
59.3429
55.0094
53.3413
52.5737
51.7291
50.9033
50.1825
50.1762
51.4997
53.6027
55.3076
55.6616
53.1395
47.7679
45.0521
32.842
21.4912
10.5514
75.0475
74.5503
72.5921
71.1213
70.268
69.9734
70.1546
70.5627
70.9941
71.2828
71.5202
71.7392
71.8011
71.7618
71.7084
71.7058
71.6386
71.4987
71.4688
71.5088
71.522
71.4886
71.5884
71.7387
71.7904
71.8566
71.9427
72.0355
72.0176
71.881
71.7741
71.6489
71.3321
70.9077
70.4643
69.9632
69.3678
68.5979
67.844
67.1863
66.5724
66.0468
65.6716
65.6132
65.8589
66.2798
66.9568
67.951
69.2294
70.5713
72.0104
73.549
75.0518
76.5031
77.6226
78.5728
79.4005
79.9111
80.2423
80.0945
79.6027
78.9927
77.8787
76.53
75.0561
73.1621
71.1568
69.1944
67.1951
65.2912
63.5031
61.7706
60.3637
59.3366
58.5869
57.9449
57.4871
57.1892
56.9156
56.5332
55.9602
55.211
54.3239
53.1831
51.7031
49.9341
47.734
45.3748
42.8796
40.3122
38.0291
35.9928
34.4792
33.6721
33.6044
34.5348
36.542
39.5843
43.6387
48.7083
54.4517
60.2813
66.0645
71.6241
76.7817
81.3327
85.1956
88.2554
90.7704
92.4054
93.1547
93.0161
91.9625
89.8663
86.5508
81.9476
75.9007
69.4343
62.8516
57.0841
52.821
49.5381
47.796
47.7692
48.9448
51.5534
55.4472
60.0706
65.1779
70.3187
75.1674
79.6509
83.3502
86.6401
89.6464
92.0623
93.9069
95.2551
96.3851
97.1718
97.5879
97.7203
97.7699
97.3798
96.7862
96.1715
95.5432
94.6077
93.5054
92.332
91.0071
90.0423
88.5033
86.9902
85.7362
84.5124
83.2784
82.2912
81.7424
81.2523
80.9108
81.1484
81.8496
82.554
83.8675
86.0429
88.1617
89.6245
90.6779
91.7776
92.1526
92.3079
92.1816
91.8628
91.1256
89.4982
87.1556
84.3049
79.6038
72.6993
67.1264
62.3668
56.5487
52.301
50.7144
49.6158
48.5128
47.2011
46.5141
46.7498
48.8675
51.5626
53.856
55.4847
55.3244
48.7342
46.9296
36.6605
23.447
16.5526
75.4152
74.9648
72.8833
71.2461
70.243
69.7913
69.9483
70.3907
70.8814
71.2334
71.5129
71.7984
71.8702
71.8191
71.7945
71.7735
71.6814
71.5403
71.4919
71.5296
71.5138
71.4694
71.578
71.6878
71.7183
71.768
71.8373
71.9287
71.89
71.7476
71.6554
71.5395
71.263
70.8444
70.4546
70.0315
69.51
68.8807
68.263
67.7658
67.3026
66.8702
66.5639
66.5618
66.7775
67.1227
67.6989
68.535
69.6155
70.7394
72.0004
73.358
74.6271
75.8804
76.866
77.7202
78.495
78.9089
79.1785
79.1525
78.8041
78.3418
77.5424
76.4832
75.3616
73.8959
72.2762
70.8028
69.2258
67.6126
66.1115
64.7871
63.6737
62.7895
62.0839
61.3977
60.8455
60.4748
60.0776
59.5217
58.8437
57.9417
56.7369
55.2171
53.2425
50.9589
48.2364
45.2317
42.0582
38.8166
35.9754
33.3841
31.3426
30.0983
29.5929
30.2056
32.0515
35.0891
39.3726
44.9479
51.2626
57.7906
64.2704
70.4361
76.1184
81.1495
85.4489
89.0499
91.6157
93.3521
94.2084
94.1231
93.0231
90.6955
86.9176
81.598
74.7179
67.2341
59.8149
53.4861
48.9373
45.4007
43.47
43.4387
44.5312
47.2056
51.3647
56.3588
62.2146
68.1586
73.6782
78.5409
82.757
86.4879
89.6277
92.3133
94.5414
96.0989
97.3813
98.2587
98.7245
98.8954
99.0532
98.8039
98.171
97.6221
96.9529
96.1019
95.0135
93.909
92.6745
91.6473
90.5016
88.9614
87.6693
86.473
85.0991
84.0391
83.3743
82.6917
82.4103
82.7475
83.556
84.3266
85.5512
87.5565
89.5978
90.9227
91.9176
92.8809
93.1373
93.1906
93.2276
92.9662
91.9905
90.2941
87.5428
84.3072
79.0269
71.6947
66.0546
60.3459
54.3259
50.3838
48.875
47.4589
45.7461
43.9917
43.4657
44.1025
47.1448
51.2683
54.8354
56.592
58.89
51.6979
48.0953
40.5815
29.1473
24.0364
75.5896
75.1627
73.0873
71.3799
70.288
69.734
69.831
70.2817
70.7986
71.1881
71.5148
71.8291
71.9093
71.8741
71.8575
71.8188
71.7201
71.5729
71.5259
71.5413
71.4899
71.4691
71.5573
71.6331
71.6667
71.6903
71.7677
71.8559
71.7808
71.6654
71.579
71.4532
71.2153
70.8334
70.4775
70.1409
69.7073
69.1719
68.6697
68.2599
67.8999
67.5389
67.2772
67.3052
67.486
67.7723
68.2681
68.9854
69.9155
70.9064
71.9861
73.1413
74.2129
75.3032
76.2158
76.9286
77.6302
78.0981
78.326
78.3991
78.2265
77.9007
77.3399
76.5353
75.7197
74.6085
73.3362
72.1616
70.8593
69.5998
68.4996
67.5008
66.5896
65.7948
65.119
64.5548
64.0868
63.646
63.2011
62.6629
61.8975
60.8208
59.2965
57.3742
55.0486
52.2283
48.9724
45.3751
41.6628
37.8629
34.3913
31.3374
28.8158
27.0733
26.1851
26.4499
27.9865
31.0211
35.4417
41.3524
48.1597
55.2682
62.3046
69.022
75.2086
80.6428
85.2439
89.024
91.8343
93.7199
94.8812
94.9711
93.8618
91.3163
87.0216
80.9507
73.4467
65.3597
57.5122
50.7512
45.7171
42.0987
40.3076
40.2608
41.2324
44.0008
48.2382
53.4905
59.9261
66.5064
72.6386
77.8445
82.5154
86.6
89.9455
93.0537
95.5558
97.2512
98.5639
99.5034
99.9616
100.225
100.413
100.178
99.6996
99.1703
98.4703
97.7028
96.5771
95.5272
94.488
93.2403
92.2095
90.756
89.2816
88.1264
86.7395
85.7035
84.9964
83.9837
83.5642
83.8304
84.6254
85.5677
86.7628
88.7731
90.6152
91.8728
92.8652
93.7302
94.1247
94.1376
94.2276
94.0583
93.1953
91.4597
88.5171
84.7472
79.054
71.4943
65.0606
58.9139
53.2217
49.1272
47.7212
45.9463
43.2796
41.4638
41.135
42.7889
46.6671
52.4967
57.5107
58.6141
62.2312
55.6153
50.0879
45.0607
36.9222
32.0036
75.7113
75.2851
73.2195
71.4816
70.3294
69.7378
69.7971
70.2299
70.7696
71.1835
71.5327
71.8583
71.946
71.9271
71.9038
71.8385
71.743
71.6084
71.543
71.5394
71.4764
71.4713
71.5509
71.5987
71.6388
71.655
71.7208
71.7784
71.7009
71.6081
71.5141
71.41
71.2001
70.8596
70.5634
70.2745
69.892
69.4371
69.03
68.6926
68.3884
68.091
67.8744
67.918
68.0859
68.317
68.7456
69.358
70.1574
70.994
71.8547
72.8483
73.8237
74.751
75.588
76.2639
76.8786
77.406
77.669
77.8607
77.8177
77.5909
77.2686
76.6988
76.0418
75.2221
74.2842
73.352
72.3865
71.4679
70.6658
69.8543
69.0757
68.5252
67.9793
67.5461
67.1952
66.8402
66.3959
65.7217
64.8673
63.6185
61.9964
59.7714
57.1249
53.9831
50.256
46.1281
41.8431
37.6697
33.6915
30.2348
27.3451
25.1533
23.883
23.683
24.8664
27.6584
32.2178
38.2638
45.363
52.844
60.3518
67.5036
74.0276
79.7765
84.5864
88.5118
91.5899
93.8662
95.0643
95.2535
94.1678
91.4961
86.8516
80.1962
72.1857
63.8178
55.9142
49.0286
43.6864
39.8772
38.0663
37.8734
38.9955
41.9739
46.186
51.7292
58.5279
65.6372
72.2002
77.6842
82.7562
87.1582
90.7365
94.016
96.5992
98.4963
99.9018
100.836
101.326
101.701
101.792
101.476
101.162
100.608
99.9111
99.1635
98.0233
97.0628
96.0315
94.6812
93.749
92.4295
90.8693
89.5536
88.0036
86.9351
86.3161
85.2543
84.5803
84.682
85.4381
86.3649
87.3438
89.4139
91.254
92.5735
93.6
94.3737
94.8484
94.9258
95.0954
95.0639
94.3561
92.7053
89.9996
85.6611
79.7426
72.616
64.5296
58.5132
53.3851
48.7832
47.6512
44.3546
41.1193
39.7038
39.8524
42.7459
47.4791
54.4979
61.0887
61.6528
65.0046
60.3789
54.3918
51.5402
45.6227
39.826
75.7581
75.3414
73.2835
71.5257
70.369
69.7894
69.8427
70.2638
70.7996
71.2281
71.5672
71.865
71.9696
71.9637
71.9236
71.8419
71.7523
71.6411
71.5654
71.5356
71.4916
71.4879
71.5319
71.5633
71.6035
71.6225
71.6687
71.7253
71.6625
71.5762
71.496
71.3798
71.1952
70.9144
70.6483
70.4152
70.0862
69.6921
69.3862
69.1032
68.8347
68.5848
68.3974
68.4634
68.5968
68.7371
69.1058
69.6337
70.2637
70.9504
71.6797
72.5419
73.3903
74.199
75.0191
75.6788
76.2961
76.8276
77.1612
77.3695
77.4769
77.4345
77.2149
76.8464
76.3794
75.8411
75.2217
74.5091
73.8896
73.2463
72.5325
71.9484
71.4246
71.0577
70.6768
70.3879
70.1467
69.7803
69.4321
68.7287
67.8227
66.5406
64.7907
62.4201
59.4558
56.0238
51.773
47.2986
42.6022
38.0142
33.7896
29.9449
26.8335
24.2796
22.6077
22.143
22.9736
25.6605
30.0605
35.9393
43.1929
50.9885
58.6748
66.0112
72.743
78.6072
83.5553
87.5977
90.7378
93.0871
94.5114
94.8011
93.7848
91.1761
86.5515
79.7091
71.4091
62.8983
55.0537
48.2158
42.7467
38.832
36.8377
36.5187
37.8658
40.8883
45.1425
50.9396
58.0352
65.5439
72.3242
78.1407
83.458
87.954
91.7014
95.1412
97.8793
99.9878
101.401
102.295
102.803
103.179
103.091
102.745
102.526
101.845
101.232
100.42
99.2776
98.4516
97.377
96.0309
95.0226
93.7744
92.3802
91.0933
89.4328
88
87.0345
85.9695
85.083
85.2091
86.0447
86.8196
87.7469
89.6131
91.3855
92.8775
94.088
94.8388
95.3508
95.5446
95.8115
95.9311
95.2852
93.8563
91.2645
86.791
80.9513
73.891
65.3314
59.2039
53.8998
48.898
48.2594
43.1508
40.086
38.6016
39.6248
43.993
50.5129
57.398
65.7572
66.1895
68.0142
65.7477
61.2408
59.3901
53.9625
46.9814
75.717
75.3327
73.3002
71.5364
70.4244
69.8919
69.949
70.3639
70.8774
71.3133
71.6213
71.8702
71.9894
71.9822
71.925
71.8301
71.7462
71.6586
71.5658
71.5264
71.502
71.5014
71.5426
71.553
71.5913
71.621
71.6311
71.6753
71.629
71.5484
71.4833
71.3752
71.236
71
70.7591
70.5842
70.2821
69.9378
69.7136
69.4697
69.2285
69.025
68.8579
68.9168
69.0117
69.0729
69.374
69.771
70.2536
70.8493
71.4378
72.1826
72.986
73.7023
74.4068
75.0753
75.6845
76.2165
76.6618
76.9683
77.1463
77.2603
77.2202
77.0638
76.8331
76.498
76.1389
75.6678
75.2677
74.8663
74.2974
73.9431
73.675
73.3802
73.1977
72.9683
72.8004
72.5848
72.3373
71.7312
70.7385
69.5633
67.6629
65.0333
61.6841
57.9207
53.4749
48.5754
43.6799
38.7265
34.224
30.1815
26.7463
24.083
22.1553
21.4275
22.1491
24.5492
28.8681
34.8402
41.9417
49.6239
57.4198
64.796
71.4676
77.3341
82.2485
86.2126
89.3713
91.7559
93.2079
93.5762
92.7068
90.3026
85.9774
79.4689
71.3351
62.9367
55.1995
48.4361
42.9
38.9008
36.7549
36.4748
37.879
40.9203
45.3354
51.2789
58.5592
66.176
73.0787
79.1505
84.5279
89.1089
93.1215
96.5725
99.3941
101.612
103.034
103.848
104.33
104.692
104.406
104.115
103.799
103.03
102.558
101.581
100.421
99.6571
98.6285
97.5208
96.4013
94.9262
93.4338
92.0038
90.5747
89.2503
88.0377
86.7086
85.382
85.2841
86.0773
86.7709
87.8523
89.633
91.3328
92.9306
94.2518
95.0098
95.7807
96.1032
96.2922
96.5913
96.046
94.8515
92.239
87.7785
82.2254
75.4327
67.1729
60.9291
53.7794
49.4662
48.4454
42.6574
40.5255
38.2661
41.6832
46.6774
55.6351
61.8182
70.8232
71.9892
72.0261
72.2177
69.4258
66.8236
60.8932
53.2864
75.5823
75.2147
73.2415
71.5166
70.4908
70.0577
70.1377
70.5478
71.0253
71.4336
71.6982
71.8737
71.9856
71.9708
71.8934
71.8144
71.7308
71.6688
71.5896
71.5248
71.5143
71.5199
71.5414
71.5485
71.5858
71.6181
71.6147
71.6526
71.6126
71.542
71.496
71.3852
71.2749
71.0931
70.8886
70.7487
70.5038
70.2155
70.0297
69.8309
69.6084
69.41
69.2528
69.2638
69.3069
69.33
69.5345
69.8611
70.2486
70.7007
71.2019
71.8173
72.4766
73.1105
73.791
74.4402
75.0554
75.6807
76.1988
76.6067
76.9285
77.195
77.36
77.367
77.3206
77.1976
77.0114
76.8239
76.5503
76.3131
76.0389
75.7944
75.6942
75.5643
75.48
75.4051
75.3301
75.2876
75.023
74.4835
73.4096
72.0538
70.0949
67.2437
63.7946
59.6768
55.0764
50.0267
44.8434
39.7924
34.9681
30.6879
27.1098
24.2748
22.3385
21.5601
22.1951
24.5116
28.7191
34.6159
41.6339
49.2094
56.763
63.872
70.3827
76.0953
80.8075
84.6096
87.6613
89.9249
91.2719
91.6872
91.0005
88.9729
85.1958
79.3789
71.8596
63.8849
56.3984
49.8039
44.2921
40.2117
37.8914
37.4002
38.9599
42.0748
46.5934
52.6595
60.0725
67.5876
74.4488
80.6011
86.0058
90.6683
94.7637
98.2331
101.22
103.402
104.775
105.53
106.12
106.287
105.862
105.621
105.048
104.332
103.822
102.69
101.666
100.856
99.6381
98.5433
97.4823
96.2918
94.8442
93.0625
91.435
89.9122
88.652
87.4668
86.1955
85.8767
86.3201
86.7549
87.8484
89.6749
91.2314
92.8205
94.1747
94.9974
95.9826
96.4169
96.6601
97.0768
96.7447
95.6066
93.1677
88.7538
83.4168
77.1696
69.2301
63.8585
54.4737
51.6126
48.7732
42.6728
42.6368
38.9437
46.4241
49.4159
62.4632
67.6514
75.6016
78.298
77.6128
79.6619
76.8731
72.8315
66.6495
59.2815
75.3114
74.9442
73.0898
71.4932
70.6137
70.3137
70.4341
70.8129
71.2256
71.5713
71.7701
71.885
71.9624
71.9393
71.8621
71.7799
71.709
71.6594
71.5954
71.5392
71.5398
71.545
71.5514
71.5555
71.5708
71.6091
71.6079
71.6193
71.6129
71.5626
71.509
71.4305
71.3375
71.193
71.0429
70.9141
70.7088
70.4956
70.3243
70.143
69.9653
69.7623
69.6214
69.5992
69.5709
69.5656
69.6844
69.8831
70.1353
70.4852
70.8733
71.3617
71.9784
72.5544
73.1824
73.8734
74.5033
75.1385
75.7771
76.3027
76.7583
77.2124
77.5055
77.7014
77.8663
77.9316
77.9495
77.8848
77.7912
77.6864
77.6264
77.5152
77.5036
77.5433
77.4503
77.4776
77.5049
77.4635
77.1785
76.5198
75.4653
73.9283
71.8636
68.9679
65.5016
61.4836
56.7876
51.6809
46.3714
41.1845
36.2772
31.8065
28.0796
25.1753
23.249
22.5645
23.2208
25.5379
29.6617
35.3932
42.179
49.4732
56.6898
63.4826
69.678
75.0494
79.4583
83.0432
85.8636
87.8382
88.9666
89.359
88.9201
87.4926
84.5357
79.6031
72.8807
65.5128
58.4522
52.142
46.8151
42.7801
40.3907
39.833
41.1167
44.1926
48.7904
54.9531
62.2297
69.4534
76.1996
82.3587
87.7297
92.3553
96.4907
100.093
103.048
105.214
106.583
107.407
107.983
107.826
107.433
107.061
106.308
105.745
105.106
103.786
102.578
101.848
100.929
99.5836
98.0215
97.016
95.7689
94.0635
92.6507
91.1051
89.4884
88.1129
86.9438
86.6897
86.9693
87.365
88.596
89.9349
91.2546
92.7056
94.0492
94.9642
95.9406
96.5699
96.9679
97.3798
97.1734
96.0583
93.8988
89.7416
84.7359
78.9882
72.2565
67.2455
56.65
56.8369
50.0583
42.5651
43.701
41.0728
52.7769
53.0235
70.1477
74.1793
80.369
85.102
84.5232
86.5533
83.002
78.4489
72.644
65.7097
74.7954
74.4526
72.8786
71.5656
70.8758
70.692
70.8305
71.1393
71.4561
71.7081
71.8318
71.8898
71.9266
71.8965
71.8232
71.7459
71.687
71.6373
71.5923
71.5531
71.556
71.5677
71.5589
71.5733
71.5864
71.6077
71.6106
71.6083
71.6095
71.5681
71.528
71.4748
71.4038
71.3095
71.2011
71.085
70.9279
70.7717
70.6025
70.442
70.2727
70.0692
69.9453
69.8591
69.78
69.7511
69.7756
69.8746
70.0305
70.2557
70.5486
70.9613
71.4757
72.0019
72.6414
73.3357
73.9777
74.6944
75.4418
76.0432
76.6359
77.2596
77.6894
78.0459
78.4095
78.6168
78.7543
78.8487
78.885
78.9183
78.9418
78.9241
78.9696
79.0647
79.0219
78.9547
79.0072
78.9617
78.5942
77.8468
76.7046
75.1379
73.0353
70.2755
66.8886
62.9549
58.4161
53.3739
48.1671
43.0237
38.1043
33.6073
29.7824
26.8453
24.9863
24.4066
25.2265
27.594
31.5649
36.9912
43.4471
50.3565
57.1664
63.5838
69.356
74.3919
78.5123
81.787
84.2109
85.7609
86.5724
86.8437
86.7569
85.9781
83.9689
80.1573
74.5056
67.876
61.2408
55.2172
50.1521
46.3236
43.9918
43.3788
44.5817
47.5168
52.0802
58.017
64.7593
71.5894
78.1845
84.22
89.4253
94.0592
98.349
101.995
104.914
107.034
108.336
109.32
109.671
109.359
108.988
108.373
107.639
107.053
106.071
104.621
103.509
102.542
101.459
100.267
99.0289
97.6611
96.1029
94.5775
93.3351
91.9239
90.4339
89.1683
88.1768
87.7705
87.6905
87.9963
88.9496
89.8694
90.95
92.4595
93.913
94.9038
95.8605
96.6605
97.1384
97.553
97.2884
96.2787
94.3233
90.8378
86.1323
80.9708
75.4459
70.1003
60.0067
60.2171
52.2318
46.8335
45.822
45.282
58.4163
60.2739
77.4147
81.215
85.5746
92.1045
91.4213
92.3558
88.9208
84.6101
79.0177
72.0953
74.0156
73.7333
72.6464
71.7529
71.2965
71.1966
71.3006
71.4949
71.6812
71.8213
71.8726
71.884
71.8781
71.8326
71.7731
71.7165
71.6741
71.6328
71.6071
71.5805
71.5737
71.5777
71.5589
71.5782
71.5856
71.5937
71.6146
71.6114
71.6184
71.5954
71.5612
71.5272
71.4724
71.4029
71.3239
71.2272
71.1038
70.9892
70.8427
70.6849
70.5308
70.3439
70.1984
70.0621
69.9339
69.8655
69.8305
69.8472
69.9299
70.0833
70.3074
70.6404
71.0851
71.6001
72.2307
72.9196
73.5991
74.3704
75.1804
75.8685
76.5858
77.3265
77.8668
78.3594
78.8588
79.1594
79.3721
79.6007
79.7291
79.7841
79.8883
79.9226
79.9372
80.0065
79.9989
79.8739
79.7314
79.6528
79.2887
78.4382
77.2158
75.697
73.763
71.155
67.8661
64.0143
59.6802
54.8937
49.9152
44.9527
40.1497
35.807
32.0694
29.1788
27.4029
26.904
27.7991
30.2225
34.1206
39.2373
45.2463
51.6887
58.0794
64.0644
69.3823
74.2559
78.0788
80.965
82.9246
83.9736
84.4451
84.6695
84.8122
84.5937
83.5396
80.9226
76.5503
70.8691
64.7355
58.9324
54.0037
50.2808
47.9957
47.3312
48.4647
51.2997
55.6108
61.0793
67.2885
73.7527
80.1045
85.9014
91.0273
95.8603
100.207
103.771
106.597
108.596
110.059
111.052
111.122
110.785
110.267
109.538
108.799
108.023
106.888
105.345
104.018
103.137
102.07
100.643
99.2564
97.9803
96.6144
95.1649
93.8764
92.5793
91.2242
89.9776
89.1134
88.7295
88.3944
88.4109
89.0403
89.7522
90.5922
91.9539
93.509
94.6711
95.7534
96.7524
97.2404
97.6014
97.4216
96.5576
94.9501
92.1354
87.4482
82.5087
77.4275
72.5243
64.5336
62.2672
54.8009
51.7482
48.349
50.9171
66.4131
68.4783
83.0276
88.0856
91.1598
98.3553
97.6453
97.5689
94.5851
90.3291
84.7034
77.7872
73.1614
73.0285
72.5223
72.0805
71.8239
71.7252
71.7347
71.7916
71.8462
71.888
71.8928
71.8776
71.8448
71.7933
71.7422
71.6927
71.6532
71.6221
71.6097
71.597
71.5902
71.5864
71.5725
71.5843
71.5835
71.5909
71.6124
71.6126
71.6224
71.6109
71.5859
71.5678
71.5281
71.4778
71.4222
71.3392
71.2389
71.1379
70.994
70.8391
70.6986
70.5216
70.358
70.2092
70.0572
69.952
69.8786
69.8375
69.8658
69.9773
70.161
70.4592
70.8846
71.3863
71.9946
72.6893
73.3913
74.1876
75.0375
75.7928
76.5693
77.3698
77.9932
78.5626
79.1194
79.4868
79.7724
80.049
80.2156
80.3
80.4027
80.4503
80.4342
80.3532
80.246
80.1874
79.9793
79.6203
79.2048
78.5727
77.5112
75.9449
73.8954
71.3884
68.3691
64.8378
60.7832
56.2509
51.4395
46.6487
42.078
37.9012
34.3204
31.6264