/*--------------------------------*- C++ -*----------------------------------*\
| =========                 |                                                 |
| \\      /  F ield         | OpenFOAM: The Open Source CFD Toolbox           |
|  \\    /   O peration     | Version:  2.4.0                                 |
|   \\  /    A nd           | Web:      www.OpenFOAM.org                      |
|    \\/     M anipulation  |                                                 |
\*---------------------------------------------------------------------------*/
FoamFile
{
    version     2.0;
    format      ascii;
    class       volScalarField;
    location    "0.9";
    object      p;
}
// * * * * * * * * * * * * * * * * * * * * * * * * * * * * * * * * * * * * * //

dimensions      [0 2 -2 0 0 0 0];

internalField   nonuniform List<scalar> 
4400
(
-21.0597
-20.7936
-21.0617
-21.5573
-20.9291
-22.3642
-21.5362
-21.6195
-22.4005
-21.3127
-22.9907
-22.0222
-22.218
-23.1246
-21.9978
-22.6327
-23.5284
-22.0384
-21.7272
-21.3982
-21.1701
-20.8726
-21.1772
-21.7071
-21.0444
-22.3692
-21.5943
-21.7106
-22.5233
-21.3604
-22.9696
-21.9514
-22.2138
-23.175
-21.9259
-22.6349
-23.5651
-22.1144
-21.7133
-21.7594
-21.145
-21.167
-21.5031
-21.9558
-21.1694
-22.3066
-21.5932
-21.8146
-22.7181
-21.4402
-22.8803
-22.1996
-22.2136
-23.1557
-22.3093
-22.6248
-23.5197
-22.1357
-21.8066
-22.3963
-21.3137
-21.4398
-21.5087
-21.9265
-21.0903
-22.1396
-21.6495
-21.7474
-22.7363
-21.5402
-22.727
-22.2072
-22.1798
-23.1318
-22.0889
-22.5973
-23.4737
-22.381
-21.877
-22.5723
-21.4644
-21.4977
-21.2578
-21.7999
-21.0882
-22.088
-21.6817
-21.6773
-22.7227
-21.6041
-22.7799
-22.3577
-22.1455
-23.0527
-22.3374
-22.5484
-23.5485
-22.6512
-22.0043
-23.1022
-21.5343
-21.4518
-21.0832
-21.7275
-21.1347
-22.0205
-21.7349
-21.601
-22.6413
-21.6578
-22.6487
-22.3977
-22.1186
-23.0629
-22.3387
-22.5938
-23.5841
-22.862
-22.5726
-23.5982
-21.4566
-21.4172
-21.0261
-21.6678
-21.2091
-21.9685
-21.782
-21.5199
-22.5712
-21.7168
-22.5296
-22.4662
-22.1244
-23.0232
-22.4701
-22.6407
-23.5452
-23.0111
-22.7879
-23.9422
-21.3852
-21.4079
-20.9996
-21.649
-21.2544
-21.9137
-21.8232
-21.4854
-22.5058
-21.742
-22.4982
-22.5121
-22.1001
-23.0038
-22.5098
-22.6331
-23.4824
-23.1059
-22.9253
-24.1319
-21.3027
-21.4085
-21.0069
-21.6286
-21.3341
-21.8536
-21.8786
-21.4786
-22.456
-21.7903
-22.3661
-22.5546
-22.0991
-22.9683
-22.5948
-22.6382
-23.3875
-23.2065
-23.03
-24.1967
-21.2114
-21.4261
-21.0097
-21.6109
-21.3271
-21.794
-21.9343
-21.4837
-22.427
-21.8329
-22.2988
-22.6035
-22.0915
-22.9332
-22.6624
-22.6262
-23.3369
-23.2982
-23.1024
-24.2815
-21.1218
-21.4415
-21.0201
-21.5803
-21.497
-21.7333
-21.9821
-21.4962
-22.3891
-21.8957
-22.2244
-22.6375
-22.1037
-22.8917
-22.7221
-22.6411
-23.3136
-23.3814
-23.225
-24.3702
-21.0268
-21.4582
-21.0283
-21.546
-21.4266
-21.6725
-22.0239
-21.4882
-22.3536
-21.9507
-22.1513
-22.6712
-22.1131
-22.8429
-22.7822
-22.631
-23.3036
-23.4644
-23.3092
-24.4644
-20.9346
-21.4758
-21.038
-21.504
-21.4796
-21.6141
-22.0521
-21.4931
-22.3148
-22.0049
-22.0946
-22.6998
-22.1244
-22.7985
-22.841
-22.6384
-23.3029
-23.528
-23.4457
-24.5642
-20.8442
-21.4896
-21.0481
-21.4684
-21.5118
-21.5563
-22.0846
-21.488
-22.2773
-22.0692
-22.028
-22.7213
-22.1507
-22.7468
-22.8943
-22.6498
-23.3004
-23.5855
-23.5371
-24.6416
-20.7578
-21.504
-21.0607
-21.4298
-21.5514
-21.5069
-22.1031
-21.4879
-22.2439
-22.1195
-21.9775
-22.7398
-22.1649
-22.6995
-22.9477
-22.6531
-23.299
-23.633
-23.6417
-24.7185
-20.6759
-21.5139
-21.0709
-21.3978
-21.5769
-21.4579
-22.1241
-21.4823
-22.2055
-22.1753
-21.9235
-22.7501
-22.1903
-22.6469
-22.99
-22.671
-23.298
-23.6742
-23.7292
-24.7809
-20.6016
-21.5196
-21.0826
-21.3677
-21.6081
-21.4207
-22.1335
-21.4806
-22.1748
-22.2177
-21.8838
-22.7579
-22.2108
-22.601
-23.0285
-22.6915
-23.2801
-23.7031
-23.8197
-24.8273
-20.5351
-21.5234
-21.0875
-21.3465
-21.613
-21.3857
-22.1436
-21.472
-22.1468
-22.2543
-21.8435
-22.7623
-22.2309
-22.5746
-23.0604
-22.7092
-23.285
-23.7276
-23.8792
-24.8629
-20.4741
-21.5222
-21.0924
-21.3296
-21.7267
-21.3626
-22.1457
-21.463
-22.1154
-22.3188
-21.8057
-22.7583
-22.2555
-22.5017
-23.0861
-22.7393
-23.2398
-23.7482
-24.0587
-24.8569
-20.4198
-21.5136
-21.0889
-21.3173
-21.7211
-21.3516
-22.1421
-21.4543
-22.092
-22.3273
-21.7958
-22.7383
-22.2589
-22.4922
-23.078
-22.7475
-23.2475
-23.7336
-24.0207
-24.8699
-21.8254
-22.2147
-27.8624
-50.1038
-59.2844
-56.3718
-48.5983
-37.3334
-22.9812
-11.361
-4.62045
-1.53231
-0.0240922
0.780949
1.26401
1.5885
1.81444
1.96963
2.06856
2.11974
2.13747
2.13617
2.12514
2.10905
2.09043
2.0705
2.04985
2.02876
2.00736
1.98573
1.96391
1.94191
1.91975
1.89743
1.87495
1.85231
1.82951
1.80655
1.78343
1.76014
1.7367
1.71308
1.68931
1.66536
1.64125
1.61696
1.59251
1.56789
1.54309
1.51811
1.49297
1.46764
1.44214
1.41645
1.39059
1.36454
1.33831
1.3119
1.2853
1.25852
1.23154
1.20438
1.17702
1.14948
1.12174
1.0938
1.06567
1.03735
1.00882
0.980098
0.951172
0.922043
0.89271
0.863171
0.833424
0.803469
0.773302
0.742923
0.712331
0.681523
0.650498
0.619255
0.587791
0.556107
0.524199
0.492068
0.459708
0.427123
0.394308
0.361261
0.327988
0.294471
0.260732
0.226746
0.192522
0.158072
0.123358
0.0884152
0.0532313
0.0177835
-22.6024
-22.2987
-27.7129
-49.623
-57.9277
-53.8196
-46.0655
-35.8682
-22.7264
-11.8253
-5.31683
-2.0379
-0.365752
0.53201
1.09416
1.47957
1.74244
1.92149
2.03808
2.10118
2.12605
2.12894
2.12054
2.10615
2.08862
2.0694
2.04918
2.02835
2.00711
1.98558
1.96382
1.94186
1.91973
1.89742
1.87494
1.85231
1.82951
1.80655
1.78343
1.76014
1.7367
1.71308
1.68931
1.66536
1.64125
1.61696
1.59251
1.56789
1.54309
1.51811
1.49297
1.46764
1.44214
1.41645
1.39059
1.36454
1.33832
1.3119
1.2853
1.25852
1.23154
1.20438
1.17702
1.14948
1.12174
1.0938
1.06567
1.03735
1.00882
0.980099
0.951172
0.922043
0.89271
0.863171
0.833424
0.803469
0.773302
0.742923
0.712331
0.681523
0.650498
0.619255
0.587791
0.556107
0.524199
0.492067
0.459708
0.427123
0.394308
0.361261
0.327989
0.29447
0.260733
0.226745
0.192523
0.158071
0.123358
0.0884142
0.0532322
0.0177832
-23.0965
-22.0342
-28.3373
-48.8742
-56.5602
-51.4929
-43.8342
-34.3082
-22.4675
-12.2028
-5.89795
-2.56098
-0.711567
0.311737
0.946173
1.38131
1.67625
1.87616
2.0083
2.08268
2.11479
2.12198
2.1162
2.10342
2.08692
2.06834
2.04853
2.02795
2.00687
1.98544
1.96374
1.94182
1.9197
1.8974
1.87493
1.8523
1.8295
1.80655
1.78343
1.76014
1.7367
1.71308
1.68931
1.66536
1.64125
1.61696
1.59251
1.56789
1.54309
1.51811
1.49297
1.46764
1.44214
1.41645
1.39059
1.36454
1.33832
1.3119
1.2853
1.25852
1.23154
1.20438
1.17702
1.14948
1.12174
1.0938
1.06567
1.03735
1.00882
0.980099
0.951172
0.922043
0.89271
0.863171
0.833424
0.803469
0.773302
0.742923
0.712331
0.681523
0.650498
0.619255
0.587791
0.556107
0.524199
0.492067
0.459708
0.427123
0.394308
0.361261
0.327989
0.29447
0.260733
0.226745
0.192523
0.158071
0.123359
0.0884141
0.0532321
0.0177832
-23.5672
-22.458
-29.107
-47.7277
-54.7162
-49.2318
-41.8902
-32.8175
-21.9388
-12.5017
-6.35887
-3.00394
-1.07222
0.0747019
0.80028
1.28494
1.61054
1.83241
1.98045
2.06497
2.10342
2.11466
2.1116
2.10056
2.08516
2.06727
2.04788
2.02756
2.00664
1.9853
1.96366
1.94177
1.91967
1.89738
1.87492
1.8523
1.8295
1.80655
1.78343
1.76014
1.7367
1.71308
1.68931
1.66536
1.64125
1.61696
1.59251
1.56789
1.54309
1.51811
1.49297
1.46764
1.44214
1.41645
1.39059
1.36454
1.33832
1.3119
1.2853
1.25852
1.23154
1.20438
1.17702
1.14948
1.12174
1.0938
1.06567
1.03735
1.00882
0.980099
0.951172
0.922043
0.89271
0.863171
0.833424
0.803468
0.773302
0.742923
0.712331
0.681523
0.650498
0.619255
0.587791
0.556107
0.524199
0.492067
0.459708
0.427123
0.394308
0.361261
0.327989
0.29447
0.260733
0.226745
0.192523
0.158071
0.123359
0.0884142
0.053232
0.0177832
-24.1199
-23.1166
-29.4725
-45.9889
-52.0422
-46.6698
-39.9448
-31.7389
-21.5118
-12.6741
-6.83527
-3.39817
-1.37137
-0.148928
0.655204
1.19239
1.54923
1.7928
1.95761
2.05236
2.09596
2.1097
2.10821
2.09827
2.08366
2.06631
2.04728
2.02719
2.00641
1.98517
1.96358
1.94172
1.91964
1.89737
1.87492
1.85229
1.8295
1.80654
1.78342
1.76014
1.7367
1.71308
1.68931
1.66536
1.64125
1.61696
1.59251
1.56789
1.54309
1.51811
1.49297
1.46764
1.44214
1.41645
1.39059
1.36454
1.33832
1.3119
1.2853
1.25852
1.23154
1.20438
1.17702
1.14948
1.12174
1.0938
1.06567
1.03735
1.00882
0.980099
0.951173
0.922043
0.89271
0.863171
0.833424
0.803468
0.773302
0.742923
0.712331
0.681523
0.650498
0.619255
0.587791
0.556107
0.524199
0.492067
0.459708
0.427123
0.394308
0.361261
0.327989
0.29447
0.260733
0.226745
0.192523
0.158071
0.123359
0.0884143
0.0532319
0.0177832
-24.4906
-23.931
-29.5772
-43.6243
-48.7202
-44.1595
-38.1547
-30.8029
-21.3703
-12.8588
-7.26242
-3.90494
-1.68904
-0.33505
0.536685
1.10712
1.4809
1.74042
1.92246
2.03041
2.08268
2.10174
2.10354
2.09551
2.08202
2.06532
2.04668
2.02683
2.0062
1.98504
1.9635
1.94168
1.91962
1.89735
1.87491
1.85229
1.8295
1.80654
1.78342
1.76014
1.73669
1.71308
1.68931
1.66536
1.64125
1.61696
1.59251
1.56789
1.54309
1.51811
1.49297
1.46764
1.44214
1.41645
1.39059
1.36454
1.33832
1.3119
1.2853
1.25852
1.23154
1.20438
1.17702
1.14948
1.12174
1.0938
1.06567
1.03735
1.00882
0.980099
0.951173
0.922043
0.89271
0.863171
0.833424
0.803468
0.773302
0.742923
0.712331
0.681523
0.650498
0.619255
0.587791
0.556107
0.524199
0.492067
0.459708
0.427123
0.394308
0.361261
0.327989
0.29447
0.260733
0.226746
0.192523
0.158071
0.123359
0.0884144
0.0532319
0.0177832
-24.8213
-24.8067
-29.5027
-41.0365
-45.5102
-41.8655
-36.5515
-29.7116
-21.1133
-13.2458
-7.69912
-4.35995
-2.14415
-0.623915
0.394622
1.05815
1.4628
1.73058
1.9177
2.02743
2.07974
2.09868
2.10099
2.0936
2.08072
2.06448
2.04615
2.02651
2.006
1.98492
1.96343
1.94164
1.91959
1.89734
1.8749
1.85228
1.8295
1.80654
1.78342
1.76014
1.73669
1.71308
1.68931
1.66536
1.64125
1.61696
1.59251
1.56789
1.54309
1.51811
1.49297
1.46764
1.44214
1.41645
1.39059
1.36454
1.33831
1.3119
1.2853
1.25852
1.23154
1.20438
1.17702
1.14948
1.12174
1.0938
1.06567
1.03735
1.00882
0.980099
0.951173
0.922043
0.89271
0.863171
0.833424
0.803468
0.773302
0.742923
0.712331
0.681523
0.650498
0.619255
0.587791
0.556107
0.524199
0.492067
0.459708
0.427123
0.394308
0.361261
0.327989
0.29447
0.260733
0.226746
0.192523
0.158071
0.123359
0.0884144
0.0532318
0.0177832
-25.1327
-25.4117
-29.2243
-38.8576
-42.7517
-39.8212
-35.1221
-28.818
-20.673
-13.4529
-8.25788
-4.77288
-2.42713
-0.836882
0.231779
0.92235
1.34931
1.65362
1.87442
2.00457
2.06774
2.0919
2.0971
2.09127
2.07932
2.06362
2.04563
2.02619
2.00581
1.98481
1.96337
1.9416
1.91957
1.89733
1.87489
1.85228
1.82949
1.80654
1.78342
1.76014
1.73669
1.71308
1.68931
1.66536
1.64125
1.61696
1.59251
1.56789
1.54309
1.51811
1.49297
1.46764
1.44214
1.41645
1.39059
1.36454
1.33831
1.3119
1.2853
1.25852
1.23154
1.20438
1.17702
1.14948
1.12174
1.0938
1.06567
1.03735
1.00882
0.980099
0.951173
0.922043
0.89271
0.863171
0.833424
0.803468
0.773302
0.742923
0.712331
0.681523
0.650498
0.619255
0.587791
0.556107
0.524199
0.492067
0.459708
0.427123
0.394308
0.361261
0.327989
0.29447
0.260733
0.226746
0.192523
0.158071
0.123359
0.0884145
0.0532317
0.0177833
-25.3789
-25.8122
-29.0883
-37.1703
-40.5153
-38.1277
-33.836
-27.9534
-20.4929
-13.5367
-8.61866
-5.32267
-2.82655
-0.988533
0.18506
0.908167
1.36408
1.6673
1.87999
2.00447
2.0642
2.08807
2.0943
2.08942
2.07815
2.06289
2.04518
2.02591
2.00564
1.98471
1.96331
1.94156
1.91955
1.89732
1.87489
1.85228
1.82949
1.80654
1.78342
1.76014
1.73669
1.71308
1.68931
1.66536
1.64125
1.61696
1.59251
1.56789
1.54309
1.51811
1.49297
1.46764
1.44214
1.41645
1.39059
1.36454
1.33831
1.3119
1.2853
1.25852
1.23154
1.20438
1.17702
1.14948
1.12174
1.0938
1.06567
1.03735
1.00882
0.980099
0.951173
0.922043
0.89271
0.863171
0.833424
0.803468
0.773302
0.742923
0.712331
0.681523
0.650498
0.619255
0.587791
0.556107
0.524199
0.492067
0.459708
0.427123
0.394308
0.361261
0.327989
0.29447
0.260733
0.226746
0.192523
0.158071
0.123359
0.0884145
0.0532316
0.0177833
-25.5866
-26.0782
-29.0476
-35.83
-38.7696
-36.6668
-32.7189
-27.0787
-20.162
-13.7616
-8.91425
-5.58169
-3.13296
-1.24869
0.0169717
0.775997
1.23639
1.58344
1.84315
1.9921
2.06112
2.08696
2.09277
2.08797
2.07713
2.06221
2.04475
2.02565
2.00549
1.98461
1.96325
1.94153
1.91953
1.89731
1.87488
1.85227
1.82949
1.80654
1.78342
1.76014
1.73669
1.71308
1.68931
1.66536
1.64125
1.61696
1.59251
1.56789
1.54309
1.51811
1.49297
1.46764
1.44214
1.41645
1.39059
1.36454
1.33831
1.3119
1.2853
1.25852
1.23154
1.20438
1.17702
1.14948
1.12174
1.0938
1.06567
1.03735
1.00882
0.980099
0.951173
0.922044
0.89271
0.863171
0.833424
0.803468
0.773302
0.742923
0.712331
0.681523
0.650497
0.619255
0.587791
0.556107
0.524199
0.492067
0.459708
0.427123
0.394308
0.361261
0.327989
0.294471
0.260733
0.226746
0.192523
0.158071
0.123359
0.0884146
0.0532315
0.0177833
-25.7395
-26.3004
-29.0198
-34.736
-37.2849
-35.3768
-31.6716
-26.3902
-19.8065
-13.835
-9.37515
-5.99318
-3.21033
-1.29953
-0.0370238
0.761558
1.26863
1.59995
1.83768
1.98387
2.04877
2.07757
2.08833
2.08602
2.07611
2.06161
2.0444
2.02543
2.00535
1.98453
1.9632
1.9415
1.91952
1.8973
1.87488
1.85227
1.82949
1.80654
1.78342
1.76014
1.73669
1.71308
1.68931
1.66536
1.64125
1.61696
1.59251
1.56789
1.54309
1.51811
1.49297
1.46764
1.44214
1.41645
1.39059
1.36454
1.33831
1.3119
1.2853
1.25852
1.23154
1.20438
1.17702
1.14948
1.12174
1.0938
1.06567
1.03735
1.00882
0.980099
0.951173
0.922044
0.89271
0.863171
0.833424
0.803468
0.773302
0.742923
0.71233
0.681523
0.650497
0.619255
0.587791
0.556107
0.524198
0.492067
0.459708
0.427123
0.394308
0.361261
0.327989
0.294471
0.260733
0.226746
0.192523
0.158071
0.123359
0.0884146
0.0532315
0.0177833
-25.8822
-26.4582
-28.9732
-33.8651
-36.0566
-34.2999
-30.6822
-25.6328
-19.6691
-14.1186
-9.74408
-6.48843
-3.68463
-1.48609
-0.100307
0.687619
1.14521
1.53528
1.82102
1.98779
2.06127
2.08362
2.08994
2.08547
2.07544
2.06112
2.04407
2.02523
2.00523
1.98446
1.96316
1.94148
1.91951
1.89729
1.87487
1.85227
1.82949
1.80654
1.78342
1.76014
1.73669
1.71308
1.68931
1.66536
1.64125
1.61696
1.59251
1.56789
1.54309
1.51811
1.49297
1.46764
1.44214
1.41645
1.39059
1.36454
1.33831
1.3119
1.2853
1.25852
1.23154
1.20438
1.17702
1.14948
1.12174
1.0938
1.06568
1.03735
1.00882
0.980099
0.951173
0.922044
0.89271
0.863171
0.833424
0.803468
0.773302
0.742923
0.71233
0.681523
0.650497
0.619255
0.587791
0.556107
0.524198
0.492067
0.459708
0.427123
0.394308
0.361261
0.327989
0.294471
0.260733
0.226746
0.192523
0.158071
0.123359
0.0884146
0.0532314
0.0177833
-25.9619
-26.67
-28.9315
-33.104
-34.9557
-33.3754
-29.8724
-24.8859
-19.3204
-14.4744
-10.3093
-6.74052
-3.88949
-1.78243
-0.298817
0.652594
1.20476
1.52964
1.80736
1.9658
2.03374
2.07281
2.08441
2.08352
2.07466
2.06068
2.04382
2.02508
2.00514
1.98441
1.96313
1.94146
1.91949
1.89729
1.87487
1.85227
1.82949
1.80654
1.78342
1.76014
1.73669
1.71308
1.68931
1.66536
1.64125
1.61696
1.59251
1.56789
1.54309
1.51811
1.49297
1.46764
1.44214
1.41645
1.39059
1.36454
1.33831
1.3119
1.2853
1.25852
1.23154
1.20438
1.17702
1.14948
1.12174
1.09381
1.06568
1.03735
1.00882
0.980099
0.951173
0.922044
0.89271
0.863171
0.833424
0.803468
0.773302
0.742923
0.71233
0.681522
0.650497
0.619255
0.587791
0.556107
0.524198
0.492067
0.459708
0.427123
0.394309
0.361261
0.327989
0.294471
0.260733
0.226746
0.192523
0.158071
0.123359
0.0884146
0.0532313
0.0177833
-26.0359
-26.7669
-28.8751
-32.4222
-33.9909
-32.5212
-29.067
-24.2436
-19.0614
-14.6105
-10.7921
-7.17112
-3.93575
-1.58034
-0.259626
0.606978
1.11139
1.50661
1.81982
1.99234
2.05919
2.08064
2.08683
2.08394
2.07431
2.06038
2.04362
2.02495
2.00507
1.98436
1.96311
1.94145
1.91949
1.89728
1.87487
1.85227
1.82949
1.80654
1.78342
1.76014
1.73669
1.71308
1.68931
1.66536
1.64125
1.61696
1.59251
1.56789
1.54309
1.51811
1.49297
1.46764
1.44214
1.41645
1.39059
1.36454
1.33831
1.3119
1.2853
1.25852
1.23154
1.20438
1.17702
1.14948
1.12174
1.09381
1.06568
1.03735
1.00882
0.980099
0.951173
0.922044
0.89271
0.863171
0.833424
0.803468
0.773302
0.742923
0.71233
0.681522
0.650497
0.619255
0.587791
0.556107
0.524198
0.492067
0.459708
0.427123
0.394309
0.361261
0.327989
0.294471
0.260733
0.226746
0.192523
0.158071
0.123359
0.0884146
0.0532312
0.0177834
-26.062
-26.9345
-28.855
-31.7955
-33.2583
-31.8262
-28.2978
-23.5597
-18.8097
-14.874
-11.248
-7.54879
-4.45402
-2.09039
-0.365776
0.59704
1.17065
1.50814
1.77844
1.94759
2.02848
2.06757
2.0819
2.08224
2.07366
2.06012
2.04348
2.02487
2.00502
1.98434
1.96309
1.94144
1.91948
1.89728
1.87487
1.85227
1.82949
1.80654
1.78342
1.76014
1.7367
1.71308
1.68931
1.66536
1.64125
1.61696
1.59251
1.56789
1.54309
1.51811
1.49297
1.46764
1.44214
1.41645
1.39059
1.36454
1.33831
1.3119
1.2853
1.25852
1.23154
1.20438
1.17702
1.14948
1.12174
1.09381
1.06568
1.03735
1.00882
0.980099
0.951173
0.922044
0.89271
0.863171
0.833424
0.803468
0.773302
0.742923
0.71233
0.681522
0.650497
0.619255
0.587791
0.556107
0.524198
0.492067
0.459708
0.427123
0.394309
0.361261
0.327989
0.294471
0.260733
0.226746
0.192523
0.158071
0.123359
0.0884146
0.0532312
0.0177834
-26.0848
-27.0408
-28.8174
-31.3065
-32.6215
-31.2983
-27.6576
-22.8507
-18.501
-15.2311
-11.7891
-7.82863
-4.30822
-1.81656
-0.386985
0.562069
1.1211
1.51412
1.80818
1.97786
2.05042
2.07776
2.08563
2.08314
2.07374
2.06009
2.0434
2.02482
2.00498
1.98432
1.96308
1.94143
1.91948
1.89728
1.87487
1.85227
1.82949
1.80654
1.78342
1.76014
1.7367
1.71308
1.68931
1.66536
1.64125
1.61696
1.59251
1.56789
1.54309
1.51811
1.49297
1.46764
1.44214
1.41645
1.39059
1.36454
1.33831
1.3119
1.2853
1.25852
1.23154
1.20438
1.17702
1.14948
1.12174
1.09381
1.06568
1.03735
1.00882
0.980099
0.951173
0.922044
0.89271
0.863171
0.833424
0.803468
0.773302
0.742923
0.71233
0.681522
0.650497
0.619255
0.587791
0.556107
0.524198
0.492067
0.459708
0.427123
0.394309
0.361261
0.327989
0.294471
0.260732
0.226746
0.192523
0.158071
0.123359
0.0884146
0.0532311
0.0177834
-26.0647
-27.1623
-28.8016
-30.8602
-32.1234
-30.8335
-27.0474
-22.1563
-18.2107
-15.6585
-12.2975
-8.15511
-4.73361
-2.1687
-0.438872
0.591799
1.14628
1.50879
1.77636
1.9449
2.02874
2.06744
2.08171
2.08191
2.07343
2.06
2.04337
2.02481
2.00498
1.98432
1.96308
1.94144
1.91948
1.89728
1.87487
1.85227
1.82949
1.80654
1.78342
1.76014
1.7367
1.71308
1.68931
1.66536
1.64125
1.61696
1.59251
1.56789
1.54309
1.51811
1.49297
1.46764
1.44214
1.41645
1.39059
1.36454
1.33831
1.3119
1.2853
1.25852
1.23154
1.20438
1.17702
1.14948
1.12174
1.09381
1.06568
1.03735
1.00882
0.980099
0.951173
0.922044
0.89271
0.863171
0.833424
0.803468
0.773302
0.742923
0.71233
0.681522
0.650497
0.619255
0.587791
0.556107
0.524198
0.492067
0.459708
0.427123
0.394309
0.361261
0.327989
0.294471
0.260732
0.226746
0.192523
0.158071
0.123359
0.0884145
0.053231
0.0177835
-26.0562
-27.2688
-28.7849
-30.4827
-31.7696
-30.5122
-26.4639
-21.4108
-17.8938
-16.0248
-12.9105
-8.45723
-4.65213
-2.02603
-0.4415
0.531902
1.13547
1.52489
1.80919
1.97441
2.04837
2.07735
2.0857
2.08319
2.07381
2.0601
2.04341
2.02482
2.00499
1.98432
1.96309
1.94144
1.91949
1.89728
1.87487
1.85227
1.82949
1.80654
1.78342
1.76014
1.7367
1.71308
1.68931
1.66536
1.64125
1.61696
1.59251
1.56789
1.54309
1.51811
1.49297
1.46764
1.44214
1.41645
1.39059
1.36454
1.33831
1.3119
1.2853
1.25852
1.23154
1.20438
1.17702
1.14948
1.12174
1.09381
1.06568
1.03735
1.00882
0.980099
0.951173
0.922044
0.89271
0.863171
0.833424
0.803468
0.773302
0.742923
0.71233
0.681522
0.650497
0.619254
0.587791
0.556107
0.524198
0.492067
0.459708
0.427123
0.394309
0.361261
0.327989
0.294471
0.260732
0.226747
0.192523
0.158071
0.123359
0.0884146
0.053231
0.0177835
-26.0009
-27.3919
-28.7702
-30.1538
-31.4764
-30.3405
-25.9661
-20.5376
-17.4664
-16.3269
-13.1363
-8.5694
-4.86929
-2.15459
-0.438608
0.582535
1.15045
1.52295
1.79
1.95416
2.03495
2.0708
2.08338
2.08272
2.07389
2.06022
2.04352
2.0249
2.00504
1.98436
1.96311
1.94146
1.9195
1.89729
1.87488
1.85227
1.82949
1.80654
1.78342
1.76014
1.7367
1.71308
1.68931
1.66536
1.64125
1.61696
1.59251
1.56789
1.54309
1.51811
1.49297
1.46764
1.44214
1.41645
1.39059
1.36454
1.33831
1.3119
1.2853
1.25852
1.23154
1.20438
1.17702
1.14948
1.12174
1.09381
1.06568
1.03735
1.00882
0.980099
0.951173
0.922044
0.89271
0.863171
0.833424
0.803468
0.773302
0.742923
0.71233
0.681522
0.650497
0.619254
0.587791
0.556107
0.524198
0.492067
0.459708
0.427123
0.394309
0.361261
0.327989
0.294471
0.260732
0.226747
0.192523
0.158071
0.123359
0.0884144
0.0532309
0.0177836
-25.9639
-27.4154
-28.733
-29.9924
-31.3107
-30.1975
-25.6735
-20.1077
-17.0222
-16.2598
-13.2722
-8.63025
-4.79288
-2.11957
-0.445371
0.560266
1.15066
1.53555
1.80972
1.97249
2.04787
2.07794
2.08659
2.08394
2.07435
2.06041
2.04361
2.02495
2.00507
1.98438
1.96312
1.94146
1.9195
1.89729
1.87488
1.85227
1.82949
1.80654
1.78342
1.76014
1.7367
1.71308
1.68931
1.66536
1.64125
1.61696
1.59251
1.56789
1.54309
1.51811
1.49297
1.46764
1.44214
1.41645
1.39059
1.36454
1.33831
1.3119
1.2853
1.25852
1.23154
1.20438
1.17702
1.14948
1.12174
1.09381
1.06568
1.03735
1.00882
0.980099
0.951173
0.922044
0.89271
0.863171
0.833424
0.803468
0.773302
0.742923
0.71233
0.681522
0.650497
0.619254
0.587791
0.556107
0.524198
0.492067
0.459708
0.427123
0.394309
0.361261
0.327989
0.294471
0.260732
0.226747
0.192523
0.158071
0.123359
0.0884145
0.0532308
0.0177836
-19.4039
-21.3003
-27.2564
-47.2938
-59.0745
-58.1948
-47.5728
-29.5075
-12.3793
-1.09439
4.29772
4.88585
4.85093
4.26109
3.69451
3.2542
2.9416
2.71684
2.54823
2.4195
2.32181
2.24823
2.19245
2.14923
2.11425
2.08456
2.05811
2.03359
2.01017
1.98735
1.96484
1.94244
1.92005
1.89759
1.87504
1.85236
1.82953
1.80656
1.78343
1.76015
1.7367
1.71308
1.6893
1.66536
1.64125
1.61696
1.59251
1.56789
1.54309
1.51811
1.49297
1.46764
1.44214
1.41645
1.39059
1.36454
1.33831
1.3119
1.2853
1.25852
1.23154
1.20438
1.17702
1.14948
1.12174
1.0938
1.06568
1.03735
1.00882
0.980099
0.951173
0.922044
0.89271
0.863171
0.833424
0.803468
0.773302
0.742923
0.71233
0.681522
0.650497
0.619254
0.587791
0.556107
0.524198
0.492067
0.459708
0.427123
0.394308
0.361262
0.327988
0.294472
0.260731
0.226748
0.192522
0.158072
0.123358
0.0884155
0.0532301
0.0177839
-19.6715
-21.09
-27.5891
-47.8762
-59.7992
-58.7604
-48.0659
-29.8164
-12.6058
-1.19943
4.25255
4.85289
4.8182
4.23611
3.67651
3.24223
2.93387
2.71184
2.54498
2.41741
2.32055
2.24754
2.1921
2.1491
2.11422
2.08457
2.05813
2.03361
2.01018
1.98737
1.96485
1.94245
1.92005
1.8976
1.87504
1.85236
1.82953
1.80656
1.78343
1.76015
1.7367
1.71308
1.68931
1.66536
1.64125
1.61696
1.59251
1.56789
1.54309
1.51811
1.49297
1.46764
1.44214
1.41645
1.39059
1.36454
1.33831
1.3119
1.2853
1.25852
1.23154
1.20438
1.17702
1.14948
1.12174
1.0938
1.06568
1.03735
1.00882
0.980099
0.951173
0.922044
0.89271
0.863171
0.833424
0.803468
0.773302
0.742923
0.71233
0.681522
0.650497
0.619254
0.587791
0.556107
0.524198
0.492067
0.459708
0.427123
0.394308
0.361261
0.327988
0.294472
0.260731
0.226748
0.192522
0.158072
0.123358
0.0884155
0.0532301
0.0177838
-19.6408
-21.4299
-28.2448
-48.8671
-60.9329
-59.7452
-48.9286
-30.4734
-12.9745
-1.38687
4.15181
4.79132
4.75191
4.18491
3.6392
3.21682
2.91704
2.70087
2.538
2.41322
2.3183
2.24655
2.19188
2.14908
2.1143
2.08467
2.05822
2.03368
2.01023
1.9874
1.96487
1.94246
1.92006
1.8976
1.87504
1.85236
1.82954
1.80656
1.78343
1.76015
1.7367
1.71308
1.68931
1.66536
1.64125
1.61696
1.59251
1.56789
1.54309
1.51811
1.49297
1.46764
1.44214
1.41645
1.39059
1.36454
1.33831
1.3119
1.2853
1.25852
1.23154
1.20438
1.17702
1.14948
1.12174
1.0938
1.06568
1.03735
1.00882
0.980099
0.951173
0.922044
0.89271
0.863171
0.833424
0.803468
0.773302
0.742923
0.71233
0.681522
0.650497
0.619254
0.587791
0.556107
0.524198
0.492067
0.459708
0.427123
0.394308
0.361262
0.327988
0.294472
0.260731
0.226748
0.192522
0.158072
0.123358
0.0884157
0.0532302
0.0177838
-20.0198
-21.5054
-29.4907
-50.3052
-62.2813
-61.1621
-50.1733
-31.6114
-13.5038
-1.64006
4.01659
4.70139
4.65273
4.10768
3.58305
3.17869
2.89206
2.68496
2.52811
2.40726
2.31487
2.24466
2.19085
2.14855
2.11404
2.08454
2.05816
2.03365
2.01023
1.9874
1.96487
1.94246
1.92007
1.89761
1.87505
1.85236
1.82954
1.80656
1.78343
1.76015
1.7367
1.71308
1.68931
1.66536
1.64125
1.61696
1.59251
1.56789
1.54309
1.51811
1.49297
1.46764
1.44214
1.41645
1.39059
1.36454
1.33831
1.3119
1.2853
1.25852
1.23154
1.20438
1.17702
1.14948
1.12174
1.0938
1.06568
1.03735
1.00882
0.980099
0.951173
0.922044
0.89271
0.863171
0.833424
0.803468
0.773302
0.742923
0.71233
0.681522
0.650497
0.619254
0.587791
0.556107
0.524198
0.492067
0.459707
0.427123
0.394308
0.361262
0.327988
0.294472
0.260731
0.226748
0.192522
0.158072
0.123358
0.0884157
0.0532302
0.0177838
-20.6026
-22.0935
-30.7883
-51.7417
-63.9981
-62.8714
-51.8256
-33.2336
-14.3411
-2.02383
3.82144
4.58385
4.52371
4.00568
3.50882
3.12828
2.8589
2.66369
2.51476
2.3991
2.31004
2.24191
2.18935
2.14777
2.11365
2.08435
2.05808
2.03361
2.01021
1.98739
1.96487
1.94247
1.92007
1.89761
1.87505
1.85236
1.82954
1.80656
1.78343
1.76015
1.7367
1.71308
1.68931
1.66536
1.64125
1.61696
1.59251
1.56789
1.54309
1.51811
1.49297
1.46764
1.44214
1.41645
1.39059
1.36454
1.33831
1.3119
1.2853
1.25852
1.23154
1.20438
1.17702
1.14948
1.12174
1.0938
1.06568
1.03735
1.00882
0.980099
0.951173
0.922044
0.89271
0.863171
0.833424
0.803468
0.773302
0.742923
0.71233
0.681522
0.650497
0.619254
0.587791
0.556107
0.524198
0.492067
0.459707
0.427123
0.394308
0.361262
0.327988
0.294472
0.260731
0.226748
0.192522
0.158072
0.123358
0.0884157
0.0532303
0.0177837
-20.9182
-22.9063
-32.4157
-53.2124
-65.8162
-64.7839
-53.6815
-35.0357
-15.5235
-2.63916
3.57285
4.43334
4.36762
3.88141
3.41792
3.06635
2.81817
2.63763
2.49848
2.38915
2.30411
2.23849
2.18743
2.14671
2.11307
2.08404
2.05791
2.03352
2.01016
1.98737
1.96486
1.94246
1.92007
1.89761
1.87505
1.85236
1.82954
1.80656
1.78343
1.76015
1.7367
1.71308
1.68931
1.66536
1.64125
1.61696
1.59251
1.56789
1.54309
1.51811
1.49297
1.46764
1.44214
1.41645
1.39059
1.36454
1.33831
1.3119
1.2853
1.25852
1.23154
1.20438
1.17702
1.14948
1.12174
1.0938
1.06568
1.03735
1.00882
0.980099
0.951173
0.922044
0.89271
0.863171
0.833424
0.803468
0.773302
0.742923
0.71233
0.681522
0.650498
0.619254
0.587791
0.556107
0.524198
0.492067
0.459707
0.427123
0.394308
0.361262
0.327988
0.294472
0.260731
0.226748
0.192522
0.158072
0.123358
0.0884158
0.0532303
0.0177837
-21.3089
-23.7141
-33.808
-55.0802
-67.5812
-66.7342
-55.3471
-36.8726
-16.887
-3.43448
3.26174
4.2414
4.18542
3.73743
3.31245
2.99394
2.7703
2.60694
2.47927
2.37736
2.29704
2.23434
2.18504
2.14536
2.11231
2.08362
2.05767
2.03339
2.01009
1.98733
1.96484
1.94245
1.92006
1.8976
1.87505
1.85236
1.82954
1.80656
1.78343
1.76015
1.7367
1.71308
1.68931
1.66536
1.64125
1.61696
1.59251
1.56789
1.54309
1.51811
1.49297
1.46764
1.44214
1.41645
1.39059
1.36454
1.33831
1.3119
1.2853
1.25852
1.23154
1.20438
1.17702
1.14948
1.12174
1.0938
1.06568
1.03735
1.00882
0.980099
0.951173
0.922044
0.89271
0.863171
0.833424
0.803468
0.773302
0.742923
0.71233
0.681522
0.650498
0.619254
0.587791
0.556107
0.524198
0.492067
0.459707
0.427123
0.394308
0.361262
0.327988
0.294472
0.260731
0.226748
0.192522
0.158072
0.123358
0.0884158
0.0532304
0.0177837
-20.9771
-24.1733
-34.8504
-56.6623
-69.3045
-68.5849
-57.1542
-38.7424
-18.2445
-4.35142
2.84598
4.01183
3.97912
3.5765
3.19498
2.91266
2.71617
2.57214
2.45746
2.36396
2.28895
2.22955
2.18226
2.14376
2.1114
2.0831
2.05738
2.03323
2.01
1.98728
1.96481
1.94244
1.92005
1.8976
1.87504
1.85236
1.82954
1.80656
1.78343
1.76015
1.7367
1.71308
1.68931
1.66536
1.64125
1.61696
1.59251
1.56789
1.54309
1.51811
1.49297
1.46764
1.44214
1.41645
1.39059
1.36454
1.33831
1.3119
1.2853
1.25852
1.23154
1.20438
1.17702
1.14948
1.12174
1.0938
1.06568
1.03735
1.00882
0.980099
0.951173
0.922044
0.89271
0.863171
0.833424
0.803468
0.773302
0.742923
0.71233
0.681523
0.650498
0.619254
0.587791
0.556107
0.524198
0.492067
0.459707
0.427123
0.394308
0.361262
0.327988
0.294472
0.260731
0.226748
0.192522
0.158072
0.123358
0.0884159
0.0532304
0.0177837
-21.1482
-24.25
-35.5641
-57.7879
-70.7007
-70.3345
-58.6863
-40.498
-19.5788
-5.27733
2.32924
3.75359
3.75438
3.40166
3.06811
2.82414
2.6566
2.5336
2.43325
2.34904
2.2799
2.22415
2.17908
2.14191
2.11032
2.08248
2.05702
2.03302
2.00988
1.98721
1.96477
1.94242
1.92004
1.89759
1.87504
1.85236
1.82954
1.80656
1.78343
1.76015
1.7367
1.71308
1.68931
1.66536
1.64125
1.61696
1.59251
1.56789
1.54309
1.51811
1.49297
1.46764
1.44214
1.41645
1.39059
1.36454
1.33831
1.3119
1.2853
1.25852
1.23154
1.20438
1.17702
1.14948
1.12174
1.0938
1.06568
1.03735
1.00882
0.980099
0.951173
0.922044
0.89271
0.863171
0.833424
0.803468
0.773302
0.742923
0.71233
0.681523
0.650498
0.619254
0.587791
0.556107
0.524198
0.492067
0.459707
0.427123
0.394308
0.361262
0.327988
0.294472
0.260731
0.226748
0.192522
0.158072
0.123358
0.0884159
0.0532304
0.0177837
-21.4688
-24.7821
-36.043
-58.6449
-71.5824
-71.4138
-59.7894
-41.9352
-20.7449
-6.13804
1.74959
3.45846
3.51853
3.2164
2.93408
2.73027
2.59276
2.49195
2.407
2.33282
2.27002
2.21822
2.17556
2.13984
2.10911
2.08177
2.05661
2.03278
2.00974
1.98713
1.96473
1.94239
1.92003
1.89759
1.87504
1.85236
1.82954
1.80656
1.78343
1.76015
1.7367
1.71308
1.68931
1.66536
1.64125
1.61696
1.59251
1.56789
1.54309
1.51811
1.49297
1.46764
1.44214
1.41645
1.39059
1.36454
1.33831
1.3119
1.2853
1.25852
1.23154
1.20438
1.17702
1.14948
1.12174
1.0938
1.06568
1.03735
1.00882
0.980099
0.951173
0.922044
0.89271
0.863171
0.833424
0.803468
0.773302
0.742923
0.71233
0.681523
0.650498
0.619254
0.587791
0.556107
0.524198
0.492068
0.459707
0.427123
0.394308
0.361262
0.327988
0.294472
0.260731
0.226748
0.192522
0.158072
0.123357
0.088416
0.0532305
0.0177837
-21.4872
-24.9223
-36.2705
-58.8738
-72.1145
-72.0088
-60.3444
-43.0113
-21.777
-6.90797
1.16866
3.12764
3.27617
3.02614
2.79501
2.63248
2.52565
2.44773
2.37897
2.31545
2.25939
2.21179
2.17172
2.13756
2.10777
2.08098
2.05615
2.03252
2.00959
1.98704
1.96468
1.94236
1.92001
1.89758
1.87503
1.85236
1.82953
1.80656
1.78343
1.76015
1.7367
1.71308
1.68931
1.66536
1.64125
1.61696
1.59251
1.56789
1.54309
1.51811
1.49297
1.46764