/*--------------------------------*- C++ -*----------------------------------*\
| =========                 |                                                 |
| \\      /  F ield         | OpenFOAM: The Open Source CFD Toolbox           |
|  \\    /   O peration     | Version:  2.4.0                                 |
|   \\  /    A nd           | Web:      www.OpenFOAM.org                      |
|    \\/     M anipulation  |                                                 |
\*---------------------------------------------------------------------------*/
FoamFile
{
    version     2.0;
    format      ascii;
    class       volScalarField;
    location    "0.73";
    object      pPrime2Mean;
}
// * * * * * * * * * * * * * * * * * * * * * * * * * * * * * * * * * * * * * //

dimensions      [0 4 -4 0 0 0 0];

internalField   nonuniform List<scalar> 
8800
(
885756
863410
839432
815660
792211
769103
746337
723911
701826
680080
658672
637598
616853
596425
576293
556421
536731
517073
497091
475670
885787
863413
839431
815659
792211
769103
746337
723911
701826
680080
658672
637599
616854
596428
576299
556432
536753
517118
497202
476033
885807
863412
839425
815655
792209
769102
746336
723911
701826
680081
658673
637601
616857
596433
576310
556453
536794
517205
497403
476739
885822
863411
839419
815651
792207
769102
746336
723910
701826
680081
658674
637603
616862
596442
576326
556484
536854
517328
497685
477559
885835
863411
839414
815647
792206
769101
746336
723910
701826
680081
658676
637606
616868
596453
576347
556523
536930
517482
498023
478408
885845
863412
839410
815643
792204
769101
746336
723910
701826
680082
658678
637610
616875
596466
576371
556569
537019
517658
498394
479236
885852
863413
839407
815640
792203
769101
746336
723910
701827
680083
658680
637614
616883
596482
576400
556622
537119
517851
498781
480024
885858
863414
839405
815638
792202
769101
746336
723911
701827
680084
658682
637619
616892
596498
576431
556679
537225
518053
499171
480759
885861
863415
839404
815637
792201
769101
746336
723911
701828
680086
658685
637624
616902
596516
576463
556738
537336
518259
499553
481436
885863
863415
839404
815636
792201
769101
746337
723911
701829
680087
658688
637629
616912
596534
576497
556800
537448
518463
499920
482052
885863
863415
839404
815636
792201
769101
746337
723912
701829
680089
658691
637635
616922
596553
576530
556861
537559
518661
500264
482607
885861
863415
839405
815637
792202
769101
746337
723912
701830
680091
658694
637640
616932
596571
576563
556920
537665
518848
500582
483103
885858
863414
839406
815639
792203
769101
746337
723913
701831
680092
658697
637646
616942
596588
576594
556976
537765
519022
500871
483541
885852
863413
839408
815641
792204
769102
746338
723914
701833
680094
658700
637651
616951
596605
576624
557028
537857
519179
501127
483921
885845
863412
839411
815644
792205
769102
746338
723914
701834
680096
658703
637656
616959
596619
576650
557075
537939
519318
501349
484245
885835
863411
839414
815647
792207
769103
746338
723915
701835
680098
658705
637660
616966
596632
576673
557116
538009
519435
501535
484514
885822
863411
839419
815651
792209
769103
746339
723916
701836
680099
658707
637663
616972
596643
576691
557149
538066
519531
501685
484728
885807
863412
839425
815656
792211
769104
746340
723917
701837
680100
658709
637666
616976
596651
576706
557174
538110
519604
501797
484888
885787
863412
839431
815659
792212
769105
746340
723917
701837
680101
658710
637668
616980
596656
576716
557192
538140
519652
501873
484993
885756
863409
839432
815661
792213
769106
746340
723917
701837
680101
658710
637669
616981
596659
576721
557201
538155
519677
501910
485045
456259
451032
447044
443596
440400
437358
434424
431572
428782
426043
423346
420682
418047
415437
412849
410278
407722
405180
402649
400129
397620
395122
392635
390158
387691
385233
382784
380344
377913
375492
373080
370678
368286
365906
363536
361177
358829
356492
354164
351845
349535
347234
344939
342651
340369
338095
335827
333566
331313
329067
326828
324596
322370
320150
317936
315729
313529
311337
309151
306974
304803
302640
300483
298334
296193
294060
291936
289822
287717
285622
283534
281454
279383
277319
275263
273214
271174
269141
267118
265103
263098
261102
259116
257138
255168
253204
251247
249296
247351
245413
243480
241554
239633
237717
235806
233900
232000
230105
228216
226334
224459
222593
220735
218886
217046
215217
213396
211586
209784
207991
206206
204430
202661
200900
199147
197402
195665
193935
192214
190502
188798
187104
185418
183743
182077
180423
178775
177140
175511
173892
172278
170672
169071
167476
165884
164299
162717
161141
159570
158006
156447
154895
153349
151811
150278
148753
147234
145723
144217
142719
141228
139745
138268
136798
135336
133882
132435
130997
129566
128144
126731
125327
123932
122548
121172
119808
118451
117107
115770
114445
113128
111821
110522
109234
107952
106682
105414
104162
102909
101673
100433
99211
97984.9
96771.9
95555.5
94346.3
93132.4
91921.9
90702.4
89481.8
88246.8
87002.3
85735
84446.1
83118.9
81749
80308.6
78769.7
77093.6
75074.5
459982
454413
449872
445961
442424
439116
435968
432937
429997
427127
424315
421552
418829
416140
413481
410848
408236
405643
403067
400506
397960
395429
392912
390407
387915
385435
382966
380508
378061
375625
373200
370786
368384
365993
363614
361246
358890
356544
354209
351884
349567
347260
344960
342668
340382
338105
335834
333571
331315
329067
326827
324593
322366
320146
317932
315726
313526
311334
309149
306972
304803
302640
300485
298337
296198
294066
291943
289829
287724
285628
283541
281461
279389
277326
275269
273221
271181
269149
267125
265111
263107
261112
259127
257150
255180
253218
251261
249311
247368
245430
243498
241572
239651
237734
235823
233918
232018
230123
228236
226355
224481
222616
220759
218911
217072
215242
213422
211610
209807
208012
206226
204447
202676
200913
199158
197411
195673
193943
192222
190509
188805
187112
185427
183754
182088
180436
178790
177157
175529
173911
172298
170693
169092
167497
165906
164321
162739
161163
159592
158028
156469
154917
153370
151831
150298
148771
147252
145739
144233
142733
141242
139758
138280
136811
135348
133893
132444
131004
129571
128147
126730
125324
123925
122537
121157
119787
118426
117074
115730
114397
113070
111753
110442
109142
107845
106561
105277
104007
102735
101478
100218
98970.5
97720.8
96478.5
95234.6
93992.4
92745.4
91496.2
90238.3
88971
87688.8
86386.4
85057.5
83692.4
82281.5
80800.1
79249.8
77515.2
75664.9
73498
462566
457040
452287
448100
444307
440781
437446
434254
431172
428180
425260
422401
419593
416828
414101
411406
408739
406097
403477
400876
398295
395731
393184
390652
388136
385634
383145
380670
378207
375756
373318
370893
368480
366079
363691
361314
358950
356596
354253
351921
349599
347285
344980
342684
340395
338113
335840
333574
331316
329066
326824
324589
322362
320141
317928
315722
313523
311331
309147
306971
304802
302641
300487
298341
296203
294073
291951
289838
287733
285637
283550
281470
279398
277334
275278
273230
271189
269157
267134
265120
263117
261123
259139
257163
255194
253232
251277
249328
247385
245449
243518
241591
239670
237754
235843
233938
232038
230145
228259
226379
224508
222644
220788
218941
217103
215273
213452
211639
209835
208038
206249
204468
202694
200929
199172
197423
195684
193953
192231
190519
188815
187123
185439
183766
182103
180452
178808
177175
175549
173931
172320
170715
169115
167519
165928
164342
162761
161185
159614
158049
156490
154938
153392
151852
150318
148791
147270
145756
144249
142748
141257
139772
138294
136825
135362
133905
132455
131013
129577
128150
126731
125321
123919
122527
121143
119768
118402
117044
115692
114350
113014
111686
110363
109050
107739
106439
105140
103852
102563
101284
100005
98731.6
97459.5
96188.2
94917.3
93642.2
92364.8
91077.2
89783.8
88471.6
87145.9
85788.8
84407.5
82969
81501.3
79914.5
78301.1
76458.3
74523.6
72388.7
464533
459154
454342
450000
446029
442332
438839
435505
432297
429192
426171
423222
420333
417496
414703
411949
409229
406539
403876
401237
398620
396025
393449
390892
388352
385829
383321
380828
378350
375885
373434
370997
368574
366163
363766
361381
359008
356647
354297
351958
349629
347310
345000
342699
340407
338122
335846
333577
331317
329066
326822
324586
322358
320137
317924
315718
313520
311329
309146
306970
304803
302643
300490
298346
296209
294081
291960
289848
287744
285649
283561
281481
279409
277344
275288
273239
271198
269166
267143
265130
263127
261135
259151
257176
255208
253248
251294
249346
247404
245469
243538
241612
239691
237775
235865
233960
232062
230170
228285
226407
224538
222675
220821
218975
217137
215308
213486
211672
209866
208067
206276
204491
202716
200947
199188
197438
195697
193965
192243
190530
188827
187135
185452
183781
182120
180469
178828
177195
175571
173953
172342
170736
169136
167540
165949
164362
162781
161204
159633
158068
156510
154957
153411
151871
150337
148810
147289
145773
144265
142765
141273
139788
138311
136840
135376
133918
132467
131022
129584
128154
126732
125318
123914
122518
121130
119750
118378
117013
115655
114305
112958
111620
110285
108959
107635
106319
105006
103699
102394
101094
99795.4
98497.4
97202.4
95902.9
94606.2
93298.9
91993.5
90667.9
89343.8
87985.8
86627.9
85211.4
83799
82284.4
80781.2
79114.4
77441.7
75579.5
73630
71566.9
466114
460883
456085
451671
447584
443757
440136
436682
433362
430156
427043
424010
421045
418140
415285
412475
409704
406968
404263
401587
398937
396311
393708
391125
388563
386019
383493
380983
378490
376012
373549
371101
368667
366247
363840
361447
359066
356698
354341
351995
349660
347336
345021
342716
340419
338132
335852
333582
331320
329067
326821
324584
322356
320135
317922
315716
313518
311328
309146
306972
304805
302647
300496
298353
296218
294090
291971
289860
287757
285662
283574
281494
279421
277355
275298
273248
271207
269175
267152
265140
263138
261145
259163
257189
255222
253263
251310
249364
247423
245488
243559
241633
239713
237797
235888
233984
232087
230196
228313
226438
224570
222710
220857
219012
217175
215345
213523
211708
209900
208098
206304
204517
202739
200968
199207
197455
195712
193979
192256
190543
188841
187148
185467
183796
182137
180487
178847
177215
175591
173973
172362
170756
169156
167559
165968
164380
162799
161221
159650
158084
156526
154973
153428
151888
150355
148826
147306
145790
144283
142781
141290
139804
138327
136855
135391
133931
132478
131030
129589
128156
126732
125315
123907
122507
121115
119730
118353
116982
115617
114258
112904
111554
110209
108869
107533
106202
104875
103550
102230
100907
99590.8
98267.2
96952
95622.6
94304.9
92962.4
91635.5
90269.3
88922.9
87516.4
86134.1
84664.6
83219.4
81654.4
80103.2
78408.7
76684.1
74845
72920.1
70918.5
467445
462341
457580
453135
448975
445053
441331
437776
434361
431065
427869
424759
421725
418755
415843
412980
410161
407382
404638
401926
399244
396589
393959
391353
388768
386205
383661
381136
378628
376137
373662
371203
368759
366329
363914
361513
359124
356749
354385
352033
349693
347363
345043
342734
340434
338143
335861
333589
331325
329070
326824
324586
322356
320135
317922
315717
313520
311331
309149
306976
304811
302653
300503
298362
296228
294102
291984
289873
287770
285675
283587
281506
279431
277365
275306
273256
271214
269181
267159
265147
263146
261154
259172
257199
255234
253276
251325
249380
247441
245508
243579
241654
239735
237820
235912
234008
232112
230223
228342
226469
224603
222745
220894
219050
217213
215383
213560
211743
209933
208129
206332
204542
202761
200989
199226
197472
195728
193994
192270
190556
188854
187162
185481
183811
182152
180502
178864
177232
175609
173991
172380
170773
169173
167575
165983
164395
162813
161235
159663
158096
156538
154985
153441
151901
150369
148841
147321
145805
144298
142796
141305
139817
138341
136867
135403
133941
132487
131035
129593
128156
126729
125308
123898
122492
121097
119707
118326
116948
115578
114210
112848
111487
110134
108780
107433
106087
104748
103403
102069
100724
99391.4
98041.2
96708.5
95350.1
94012.4
92639.8
91289.5
89891.5
88516.9
87078.1
85659.1
84160.2
82670.3
81084.2
79487.7
77793.1
76046.5
74231.1
72336.2
70380
468592
463591
458872
454417
450211
446222
442422
438786
435290
431915
428645
425467
422369
419341
416375
413463
410599
407779
404998
402253
399540
396858
394203
391573
388968
386386
383825
381285
378763
376259
373773
371303
368850
366411
363988
361578
359183
356800
354430
352073
349727
347392
345068
342754
340451
338157
335873
333598
331333
329076
326829
324590
322360
320139
317926
315721
313524
311336
309155
306983
304818
302661
300513
298372
296238
294113
291995
289885
287782
285686
283597
281514
279439
277371
275312
273260
271218
269186
267163
265152
263151
261160
259179
257207
255243
253286
251337
249393
247457
245526
243599
241676
239758
237844
235935
234032
232137
230249
228370
226498
224635
222778
220929
219085
217248
215418
213594
211775
209963
208156
206357
204564
202781
201007
199243
197488
195743
194008
192283
190568
188865
187173
185492
183822
182164
180515
178878
177246
175624
174006
172395
170788
169186
167587
165995
164406
162822
161243
159671
158104
156546
154993
153449
151910
150379
148851
147331
145815
144307
142805
141314
139825
138349
136874
135409
133945
132490
131035
129590
128151
126720
125296
123883
122474
121075
119680
118294
116910
115534
114158
112789
111418
110056
108690
107332
105973
104621
103260
101910
100545
99193.7
97823.5
96467.6
95089.6
93725.6
92334.3
90955
89537.2
88129.5
86671.5
85217
83699.7
82176.6
80579.2
78956
77266.6
75515.7
73714.3
71841.2
69918.7
469593
464675
459995
455542
451308
447271
443412
439709
436146
432704
429370
426131
422975
419894
416878
413920
411015
408157
405342
402565
399824
397115
394437
391786
389161
386561
383984
381429
378894
376378
373881
371401
368938
366491
364060
361643
359241
356852
354476
352113
349762
347423
345095
342777
340471
338174
335888
333611
331344
329086
326837
324598
322367
320145
317932
315727
313531
311343
309162
306990
304826
302670
300521
298380
296247
294122
292004
289893
287789
285692
283602
281519
279443
277374
275313
273262
271219
269187
267165
265154
263153
261163
259183
257212
255249
253293
251345
249404
247470
245541
243617
241696
239778
237865
235956
234054
232159
230272
228393
226523
224661
222806
220958
219115
217279
215448
213623
211803
209988
208179
206377
204582
202798
201022
199257
197502
195756
194020
192295
190579
188875
187181
185500
183830
182172
180524
178886
177255
175633
174016
172404
170797
169194
167595
166001
164411
162826
161246
159673
158106
156547
154995
153452
151915
150383
148856
147335
145819
144311
142808
141317
139826
138350
136875
135408
133944
132488
131030
129583
128140
126706
125279
123862
122450
121046
119647
118256
116868
115486
114105
112727
111350
109977
108602
107232
105862
104496
103121
101754
100375
99002.2
97615.9
96235.7
94842.6
93455.1
92048.2
90644
89210.4
87775.7
86301.2
84820.6
83289.2
81743.9
80142.5
78503.8
76817
75065.1
73270.6
71414.6
69519.4
470471
465620
460975
456530
452279
448209
444303
440548
436928
433429
430039
426746
423539
420410
417350
414351
411408
408515
405667
402861
400093
397360
394659
391988
389345
386728
384136
381567
379019
376492
373985
371495
369024
366569
364130
361707
359298
356903
354522
352154
349798
347455
345123
342802
340493
338193
335905
333626
331357
329098
326848
324607
322376
320153
317939
315734
313538
311349
309169
306997
304833
302676
300527
298386
296252
294126
292008
289896
287791
285693
283602
281518
279441
277372
275311
273259
271217
269184
267163
265151
263151
261162
259182
257212
255251
253297
251351
249412
247480
245554
243631
241711
239795
237882
235973
234070
232176
230289
228411
226542
224681
222827
220979
219137
217301
215469
213643
211821
210005
208194
206390
204594
202808
201032
199267
197511
195765
194029
192302
190586
188880
187185
185503
183832
182174
180526
178889
177258
175636
174018
172406
170798
169196
167595
166001
164410
162825
161244
159670
158102
156544
154992
153449
151913
150381
148854
147333
145816
144307
142804
141312
139821
138344
136869
135399
133938
132478
131020
129569
128126
126687
125258
123836
122422
121011
119610
118213
116825
115435
114049
112662
111281
109898
108516
107134
105757
104375
102991
101606
100215
98822.7
97422
96022.1
94613.9
93207.6
91789.1
90363.7
88918.1
87460.9
85972.7
84472.5
82931.8
81370.4
79766.6
78114.1
76425.7
74674.4
72885.3
71045.8
69174.1
471244
466446
461833
457397
453137
449042
445101
441303
437637
434091
430652
427312
424061
420888
417788
414752
411774
408849
405972
403138
400346
397590
394868
392179
389518
386886
384280
381697
379138
376600
374083
371585
369105
366643
364197
361767
359353
356953
354567
352194
349834
347487
345152
342828
340516
338214
335923
333642
331371
329110
326859
324617
322384
320161
317946
315740
313543
311354
309173
307001
304836
302678
300529
298387
296252
294125
292005
289893
287787
285688
283597
281512
279434
277365
275304
273253
271210
269178
267156
265145
263145
261156
259177
257208
255248
253296
251352
249415
247486
245562
243641
241722
239805
237892
235983
234080
232185
230299
228421
226552
224691
222838
220991
219149
217312
215480
213654
211830
210012
208199
206394
204598
202811
201035
199269
197514
195768
194032
192305
190588
188882
187185
185501
183828
182169
180521
178884
177253
175631
174013
172401
170793
169190
167590
165995
164404
162818
161238
159662
158094
156536
154983
153440
151903
150372
148843
147323
145804
144296
142792
141299
139809
138331
136857
135385
133928
132462
131006
129550
128110
126662
125236
123803
122391
120972
119572
118166
116780
115379
113994
112596
111212
109818
108434
107040
105658
104261
102872
101469
100070
98660.3
97244.9
95831.2
94411.6
92990.2
91562.1
90116.5
88659.8
87184.1
85684.4
84168.7
82622.2
81044.2
79436.1
77771.6
76079.3
74332
72550.3
70727.4
68876.4
471924
467169
462583
458157
453891
449778
445810
441979
438274
434687
431208
427828
424537
421327
418190
415120
412111
409157
406253
403395
400580
397803
395063
392356
389680
387033
384414
381819
379249
376702
374175
371669
369182
366713
364261
361825
359405
357000
354610
352233
349869
347519
345180
342853
340538
338234
335940
333657
331384
329122
326869
324625
322391
320167
317951
315744
313545
311356
309174
307000
304834
302676
300526
298382
296247
294119
291998
289884
287778
285678
283586
281501
279423
277354
275294
273242
271200
269168
267146
265135
263134
261145
259167
257198
255240
253290
251349
249414
247488
245564
243644
241725
239808
237894
235985
234081
232186
230299
228421
226551
224691
222838
220991
219149
217313
215480
213652
211828
210009
208196
206391
204594
202807
201030
199265
197510
195765
194030
192303
190586
188879
187181
185495
183820
182159
180510
178872
177241
175618
174000
172388
170780
169177
167578
165984
164394
162808
161228
159652
158084
156524
154970
153426
151887
150355
148825
147304
145784
144275
142773
141278
139792
138311
136840
135368
133912
132441
130988
129527
128091
126635
125212
123769
122358
120928
119531
118116
116734
115319
113936
112528
111147
109742
108354
106950
105568
104155
102763
101345
99938.4
98515.4
97086.1
95663.6
94234.1
92796.7
91367.5
89900.5
88435.6
86942
85434.1
83903.3
82351.3
80756.6
79140
77469
75774.4
74033.6
72261.1
70454.1
68621.7
472518
467798
463235
458819
454550
450424
446435
442576
438841
435221
431707
428292
424967
421724
418556
415456
412419
409438
406510
403630
400794
397999
395241
392518
389828
387168
384537
381932
379352
376795
374261
371747
369253
366777
364320
361879
359454
357045
354650
352270
349903
347549
345207
342877
340559
338252
335956
333671
331396
329131
326877
324632
322396
320170
317952
315744
313544
311353
309170
306995
304828
302669
300517
298373
296237
294108
291986
289872
287765
285665
283572
281487
279410
277341
275281
273231
271189
269156
267134
265122
263120
261131
259152
257184
255227
253279
251341
249408
247482
245559
243639
241718
239801
237886
235977
234072
232177
230289
228411
226540
224680
222826
220980
219138
217301
215468
213639
211815
209997
208184
206380
204583
202797
201020
199256
197501
195757
194022
192297
190580
188872
187172
185485
183808
182145
180494
178854
177222
175599
173980
172368
170760
169159
167561
165968
164379
162794
161214
159637
158069
156507
154953
153406
151864
150332
148800
147279
145757
144248
142747
141250
139769
138288
136820
135348
133892
132419
130967
129505
128068
126607
125183
123734
122323
120887
119487
118070
116684
115264
113876
112463
111078
109666
108278
106865
105482
104056
102659
101230
99818.6
98385
96948.8
95514.7
94077.5
92631.2
91190.9
89707.5
88237.9
86730
85215.7
83673.9
82110
80502.1
78877.6
77204.3
75511.1
73777.5
72014.5
70222
68405.8
473035
468344
463799
459391
455122
450986
446980
443099
439339
435691
432149
428704
425349
422078
418883
415757
412695
409691
406742
403842
400987
398175
395402
392666
389963
387291
384649
382034
379446
376881
374339
371818
369318
366837
364374
361928
359499
357086
354688
352303
349933
347576
345231
342899
340578
338268
335970
333682
331405
329138
326881
324634
322397
320169
317950
315740
313539
311347
309163
306986
304818
302658
300505
298360
296223
294094
291971
289857
287749
285649
283557
281472
279395
277327
275268
273218
271176
269144
267120
265107
263105
261114
259135
257168
255211
253264
251326
249395
247469
245545
243624
241702
239785
237869
235959
234053
232159
230270
228392
226520
224660
222805
220959
219116
217280
215445
213618
211794
209977
208165
206363
204567
202782
201006
199242
197488
195745
194010
192286
190569
188861
187160
185472
183793
182129
180475
178833
177199
175575
173955
172344
170735
169135
167538
165947
164358
162775
161193
159617
158047
156483
154928
153380
151836
150303
148769
147248
145725
144217
142718
141222
139740
138263
136795
135323
133867
132397
130942
129484
128043
126580
125148
123701
122282
120844
119437
118021
116632
115207
113822
112403
111013
109595
108199
106780
105391
103960
102560
101125
99708.7
98267.4
96826.6
95383.2
93941.9
92481
91029.3
89542.1
88060.7
86546.5
85022.2
83472.9
81895.8
80280
78650.9
76977.8
75287.9
73560.4
71806.8
70027.1
68225.1
473480
468811
464282
459881
455610
451466
447448
443550
439769
436099
432533
429064
425685
422389
419170
416022
412938
409915
406946
404029
401159
398332
395546
392797
390082
387401
384749
382126
379529
376957
374409
371882
369377
366891
364423
361973
359540
357123
354721
352333
349960
347599
345252
342916
340593
338281
335980
333690
331410
329141
326882
324633
322394
320164
317944
315733
313530
311337
309151
306974
304805
302644
300491
298345
296208
294078
291955
289840
287733
285633
283541
281456
279380
277313
275255
273205
271163
269130
267106
265092
263089
261097
259117
257148
255191
253244
251307
249375
247447
245522
243600
241677
239759
237843
235933
234028
232133
230244
228365
226492
224632
222777
220931
219087
217251
215417
213591
211767
209952
208142
206341
204547
202763
200988
199225
197471
195730
193995
192272
190554
188847
187146
185457
183776
182110
180453
178810
177173
175548
173927
172315
170708
169108
167511
165920
164332
162749
161166
159591
158019
156455
154899
153349
151805
150271
148737
147214
145691
144186
142684
141191
139711
138236
136765
135295
133837
132373
130911
129462
128014
126550
125116
123668
122230
120796
119383
117968
116573
115152
113759
112344
110951
109524
108117
106698
105299
103867
102465
101025
99604.8
98160
96717.5
95266.2
93820
92351
90890.2
89397.2
87899.9
86387.4
84849.3
83297
81709.2
80090.9
78459.9
76788.4
75101.3
73378.9
71634.4
69865.4
68075.5
473857
469207
464688
460291
456020
451870
447842
443931
440135
436447
432862
429372
425973
422657
419418
416250
413149
410108
407124
404191
401307
398468
395670
392910
390187
387496
384837
382206
379603
377024
374470
371938
369428
366937
364465
362011
359575
357154
354749
352358
349982
347619
345268
342930
340604
338290
335986
333694
331412
329141
326880
324629
322388
320157
317935
315723
313519
311325
309138
306961
304791
302629
300476
298330
296192
294062
291939
289824
287717
285617
283525
281441
279366
277299
275241
273192
271150
269117
267092
265077
263072
261079
259097
257127
255169
253222
251282
249349
247419
245492
243568
241646
239729
237812
235901
233997
232102
230212
228332
226461
224601
222746
220900
219057
217220
215387
213561
211738
209925
208116
206317
204524
202742
200968
199205
197452
195710
193977
192254
190537
188829
187128
185439
183757
182090
180431
178786
177147
175519
173898
172285
170678
169077
167480
165889
164301
162718
161137
159562
157989
156425
154867
153317
151772
150236
148703
147180
145660
144153
142651
141163
139680
138207
136734
135267
133804
132345
130883
129435
127976
126522
125072
123624
122178
120752
119335
117918
116512
115094
113688
112284
110879
109454
108036
106624
105210
103784
102375
100934
99507.7
98063.9
96621
95167.6
93717.4
92236.2
90765.5
89267.9
87760.5
86249.4
84699.2
83147.8
81553.1
79935
78303.1
76633
74948.1
73230.8
71493.7
69732.9
67954
474170
469534
465021
460627
456354
452201
448165
444245
440437
436735
433134
429629
426213
422880
419625
416442
413325
410270
407272
404328
401432
398582
395775
393006
390275
387577
384910
382274
379664
377081
374522
371986
369471
366976
364501
362043
359603
357179
354771
352378
349999
347633
345281
342940
340612
338295
335989
333695
331411
329138
326875
324623
322380
320148
317925
315712
313508
311312
309126
306948
304777
302615
300461
298315
296177
294046
291924
289808
287701
285602
283510
281427
279352
277286
275228
273179
271138
269103
267078
265062
263057
261062
259079
257107
255147
253197
251254
249319
247387
245458
243533
241611
239693
237778
235867
233964
232068
230178
228299
226429
224568
222714
220868
219026
217189
215357
213530
211710
209897
208090
206291
204501
202719
200947
199183
197431
195688
193957
192233
190518
188809
187110
185420
183738
182070
180411
178762
177123
175492
173869
172254
170646
169043
167447
165855
164269
162685
161106
159530
157959
156394
154835
153285
151740
150203
148669
147148
145631
144125
142625
141135
139650
138176
136702
135238
133772
132315
130849
129405
127936
126482
125018
123582
122131
120709
119288
117869
116450
115037
113625
112224
110801
109392
107969
106553
105133
103713
102290
100855
99421.7
97979.8
96536
95083
93624.3
92139
90660.4
89156.1
87644.2
86131
84576.1
83023.1
81426.8
79810.8
78177.3
76508.5
74825.1
73112.4
71380.5
69626.5
67856.7
474420
469793
465284
460891
456617
452461
448421
444494
440677
436965
433352
429834
426405
423060
419791
416595
413467
410401
407392
404438
401533
398675
395859
393084
390345
387642
384970
382328
379714
377126
374563
372023
369505
367007
364528
362068
359625
357199
354788
352393
350011
347644
345289
342947
340616
338298
335990
333694
331409
329134
326870
324617
322373
320140
317916
315702
313497
311302
309114
306936
304765
302603
300449
298302
296164
294033
291910
289794
287687
285588
283496
281413
279339
277273
275216
273167
271126
269091
267065
265049
263043
261048
259063
257089
255126
253173
251227
249290
247354
245425
243499
241577
239658
237744
235834
233932
232035
230148
228268
226400
224538
222685
220838
218996
217160
215329
213503
211685
209871
208067
206268
204479
202697
200926
199162
197410
195666
193936
192211
190497
188788
187091
185401
183721
182052
180393
178742
177102
175467
173843
172225
170615
169010
167414
165821
164235
162652
161075
159499
157929
156363
154806
153254
151710
150172
148640
147119
145605
144099
142598
141108
139619
138141
136667
135206
133735
132280
130815
129365
127889
126440
124980
123551
122087
120669
119235
117816
116395
114985
113564
112162
110736
109332
107903
106491
105072
103652
102220
100791
99346.8
97909.3
96462.9
95013.8
93542.3
92057.9
90570
89065.9
87552.4
86035.1
84479.7
82923.8
81330.9
79715.2
78079.7
76412.1
74729
73019.9
71291.9
69543.9
67780.9
474606
469986
465478
461085
456812
452654
448611
444680
440856
437136
433515
429988
426549
423194
419916
416711
413573
410499
407483
404521
401609
398744
395923
393142
390399
387690
385014
382368
379751
377160
374594
372051
369530
367029
364548
362086
359641
357213
354800
352403
350020
347650
345294
342950
340619
338299
335990
333693
331407
329131
326866
324612
322368
320134
317910
315695
313490
311293
309106
306927
304756
302593
300439
298292
296153
294022
291898
289783
287675
285576
283485
281402
279328
277262
275206
273157
271115
269081
267055
265038
263032
261036
259051
257075
255109
253153
251204
249264
247326
245397
243469
241549
239628
237717
235806
233906
232008
230123
228242
226375
224511
222661
220811
218973
217134
215307
213480
211664
209850
208048
206249
204462
202679
200908
199142
197391
195646
193916
192190
190478
188770
187076
185385
183708
182038
180381
178727
177086
175449
173824
172201
170590
168981
167384
165789
164205
162621
161046
159471
157903
156338
154782
153228
151685
150145
148617
147094
145582
144074
142573
141080
139588
138110
136633
135170
133697
132243
130776
129324
127855
126409
124942
123513
122049
120631
119188
117773
116347
114937
113516
112112
110684
109280
107850
106444
105019
103603
102167
100740
99290.1
97857.1
96404
94953.4
93474.7
91995.2
90500.8
89000.6
87483
85962.6
84412.2
82851.6
81263.6
79645.7
78009.9
76342.1
74659
72952.8
71227.4
69483.4
67725
474725
470111
465607
461216
456942
452783
448738
444803
440975
437250
433624
430090
426645
423284
419999
416788
413645
410564
407543
404576
401660
398791
395966
393181
390434
387723
385044
382395
379775
377182
374614
372069
369546
367044
364561
362098
359651
357222
354808
352409
350025
347655
345297
342953
340620
338300
335990
333692
331406
329129
326864
324609
322365
320130
317906
315691
313485
311288
309100
306920
304749
302586
300431
298284
296144
294013
291889
289774
287666
285567
283476
281393
279319
277254
275197
273148
271106
269073
267047
265031
263025
261029
259041
257064
255097
253139
251186
249243
247303
245375
243446
241528
239606
237696
235785
233887
231988
230105
228223
226357
224492
222643
220792
218955
217116
215290
213463
211649
209835
208035
206235
204449
202664
200894
199127
197375
195629
193900
192175
190464
188757
187065