/*--------------------------------*- C++ -*----------------------------------*\
| =========                 |                                                 |
| \\      /  F ield         | OpenFOAM: The Open Source CFD Toolbox           |
|  \\    /   O peration     | Version:  2.4.0                                 |
|   \\  /    A nd           | Web:      www.OpenFOAM.org                      |
|    \\/     M anipulation  |                                                 |
\*---------------------------------------------------------------------------*/
FoamFile
{
    version     2.0;
    format      ascii;
    class       volVectorField;
    location    "0.73";
    object      U_0;
}
// * * * * * * * * * * * * * * * * * * * * * * * * * * * * * * * * * * * * * //

dimensions      [0 1 -1 0 0 0 0];

internalField   nonuniform List<vector> 
8800
(
(8.09256 0.387875 0)
(5.44715 0.242665 0)
(3.91107 0.04283 0)
(3.16137 -0.0159633 0)
(2.79815 -0.0172595 0)
(2.59673 -0.0113655 0)
(2.48803 -0.00696261 0)
(2.38028 -0.000841606 0)
(2.3142 -0.000831051 0)
(2.25097 -0.00262608 0)
(2.22386 -0.000398912 0)
(2.16387 0.00170625 0)
(2.14456 -0.0014022 0)
(2.10839 -0.000373004 0)
(2.08759 0.0015168 0)
(2.03873 0.00135496 0)
(2.01158 -3.9559e-05 0)
(1.97399 -0.000924039 0)
(1.9671 0.00955276 0)
(1.71229 -0.0696966 0)
(10.0883 0.838736 0)
(9.6502 0.868552 0)
(8.87101 0.505037 0)
(8.09261 0.260923 0)
(7.48318 0.141819 0)
(7.0095 0.0800564 0)
(6.7049 0.0507728 0)
(6.39162 0.0458014 0)
(6.22206 0.030901 0)
(6.02917 0.0179084 0)
(5.93196 0.020292 0)
(5.77203 0.0227843 0)
(5.72848 0.00931058 0)
(5.60789 0.0133708 0)
(5.56235 0.0185412 0)
(5.4464 0.0179769 0)
(5.40209 0.0165216 0)
(5.29263 0.00854282 0)
(5.26481 0.0349856 0)
(5.05851 -0.0542841 0)
(10.0699 0.632497 0)
(10.6466 0.865441 0)
(10.8622 0.5968 0)
(10.7072 0.372783 0)
(10.4462 0.262367 0)
(10.0881 0.191209 0)
(9.84856 0.149457 0)
(9.48583 0.132992 0)
(9.3102 0.0937846 0)
(9.04281 0.0661566 0)
(8.92534 0.0633778 0)
(8.69288 0.0594993 0)
(8.65191 0.0324857 0)
(8.45738 0.0384052 0)
(8.41933 0.0446982 0)
(8.23897 0.0398717 0)
(8.21277 0.0392707 0)
(8.04521 0.0322347 0)
(7.99686 0.0546171 0)
(7.8289 -0.0494855 0)
(10.0127 0.459419 0)
(10.5557 0.709906 0)
(11.1462 0.536161 0)
(11.3925 0.351019 0)
(11.5628 0.274248 0)
(11.4589 0.218022 0)
(11.5 0.19362 0)
(11.2995 0.192845 0)
(11.2904 0.146092 0)
(11.0829 0.111909 0)
(11.0716 0.11272 0)
(10.8539 0.10327 0)
(10.8871 0.0638588 0)
(10.6679 0.0724545 0)
(10.693 0.0780681 0)
(10.4703 0.0729559 0)
(10.4951 0.0562264 0)
(10.2976 0.0784013 0)
(10.2747 0.0605073 0)
(10.0415 0.0750528 0)
(10.0564 0.347725 0)
(10.4078 0.577959 0)
(11.006 0.448262 0)
(11.2859 0.28568 0)
(11.6953 0.224806 0)
(11.6906 0.184155 0)
(11.8788 0.168581 0)
(11.8285 0.192112 0)
(11.997 0.144835 0)
(11.8866 0.117101 0)
(12.016 0.119719 0)
(11.9002 0.118722 0)
(12.0623 0.0680026 0)
(11.9241 0.0928243 0)
(12.0451 0.0893702 0)
(11.8874 0.103157 0)
(11.9539 0.057503 0)
(11.8311 0.109794 0)
(11.8707 0.0684206 0)
(11.6407 0.130051 0)
(10.0541 0.251683 0)
(10.3279 0.470782 0)
(10.8969 0.373153 0)
(11.1364 0.226005 0)
(11.5452 0.170082 0)
(11.6367 0.14905 0)
(11.7985 0.137054 0)
(11.8349 0.159171 0)
(12.0256 0.121805 0)
(12.0128 0.101072 0)
(12.1143 0.111004 0)
(12.096 0.0963104 0)
(12.2715 0.0490304 0)
(12.3003 0.0775577 0)
(12.4422 0.0888134 0)
(12.4042 0.0933553 0)
(12.4348 0.0636575 0)
(12.4524 0.0789264 0)
(12.5278 0.0805976 0)
(12.4154 0.0480801 0)
(10.0077 0.174179 0)
(10.3095 0.362959 0)
(10.8067 0.289548 0)
(11.0466 0.193114 0)
(11.37 0.119279 0)
(11.5949 0.110485 0)
(11.7095 0.0997625 0)
(11.7305 0.129411 0)
(11.8682 0.0876999 0)
(12.0107 0.0881332 0)
(12.096 0.0996537 0)
(12.051 0.078604 0)
(12.0923 0.0154495 0)
(12.2286 0.0498999 0)
(12.5021 0.0713409 0)
(12.4824 0.0943128 0)
(12.4008 0.0458139 0)
(12.4472 0.0543668 0)
(12.5558 0.0367183 0)
(12.5627 0.00620146 0)
(9.99729 0.11324 0)
(10.2969 0.251038 0)
(10.661 0.219389 0)
(11.0013 0.14911 0)
(11.3329 0.0692631 0)
(11.5583 0.0634081 0)
(11.6111 0.0875721 0)
(11.5869 0.10662 0)
(11.7612 0.0402611 0)
(12.0216 0.0343125 0)
(12.1238 0.100667 0)
(11.9827 0.0933983 0)
(11.8692 0.00325778 0)
(12.1534 -0.0264851 0)
(12.5101 0.0228224 0)
(12.4991 0.108883 0)
(12.2881 0.0614053 0)
(12.3277 0.00439933 0)
(12.5238 -0.0124446 0)
(12.5126 -0.0434108 0)
(10.0027 0.0588083 0)
(10.251 0.15892 0)
(10.5841 0.139306 0)
(11.0128 0.0749672 0)
(11.2914 0.0275348 0)
(11.4741 0.0446864 0)
(11.5333 0.0836954 0)
(11.6183 0.075336 0)
(11.7736 -0.0313846 0)
(11.9074 -0.0178174 0)
(11.9488 0.115078 0)
(11.987 0.134508 0)
(11.9891 -0.0216239 0)
(12.2178 -0.117461 0)
(12.3293 -0.00983054 0)
(12.3106 0.129708 0)
(12.346 0.0761308 0)
(12.4417 -0.0445655 0)
(12.5246 -0.0699684 0)
(12.4439 -0.0427675 0)
(9.99872 0.0159704 0)
(10.2241 0.0610442 0)
(10.592 0.0488422 0)
(10.9879 0.0140647 0)
(11.252 0.00469294 0)
(11.4024 0.0178981 0)
(11.5053 0.0429178 0)
(11.7232 0.0281977 0)
(11.8347 -0.0453482 0)
(11.7411 -0.0181493 0)
(11.7342 0.08959 0)
(11.9747 0.085954 0)
(12.2588 -0.0463152 0)
(12.2886 -0.107269 0)
(12.068 0.00316853 0)
(12.1551 0.0974757 0)
(12.3828 0.0181374 0)
(12.5088 -0.0723021 0)
(12.4797 -0.0642039 0)
(12.3108 -0.0398244 0)
(9.99626 -0.0254883 0)
(10.2323 -0.0371507 0)
(10.5933 -0.0351219 0)
(10.9643 -0.0504818 0)
(11.2566 -0.023845 0)
(11.4078 -0.00278916 0)
(11.529 -0.00334523 0)
(11.731 -0.0284753 0)
(11.7884 -0.0496331 0)
(11.7152 -0.0021078 0)
(11.7787 0.0612608 0)
(12.0282 0.000325364 0)
(12.2413 -0.0932311 0)
(12.1773 -0.0678015 0)
(12.0497 0.0213137 0)
(12.207 0.0341406 0)
(12.3982 -0.0304274 0)
(12.46 -0.0989031 0)
(12.3641 -0.0789927 0)
(12.2586 -0.0355239 0)
(9.98771 -0.0699338 0)
(10.2563 -0.136817 0)
(10.6341 -0.116872 0)
(10.9849 -0.111637 0)
(11.2487 -0.0541288 0)
(11.434 -0.0357697 0)
(11.5941 -0.042686 0)
(11.7347 -0.0599863 0)
(11.7144 -0.0545218 0)
(11.7489 -0.0289888 0)
(11.9504 0.0138351 0)
(12.138 -0.0334349 0)
(12.1007 -0.0784818 0)
(12.0421 -0.0599372 0)
(12.1416 -0.0112372 0)
(12.3346 -0.00439894 0)
(12.4731 -0.0587076 0)
(12.4533 -0.0999334 0)
(12.3267 -0.0689376 0)
(12.2631 -0.0635163 0)
(9.99743 -0.119685 0)
(10.2758 -0.24415 0)
(10.6804 -0.196456 0)
(11.035 -0.163042 0)
(11.2991 -0.0852741 0)
(11.4683 -0.0759111 0)
(11.6477 -0.084081 0)
(11.7691 -0.0816782 0)
(11.7629 -0.063842 0)
(11.8092 -0.0705235 0)
(11.9967 -0.0326438 0)
(12.1301 -0.0425045 0)
(12.1136 -0.0595252 0)
(12.1397 -0.0762403 0)
(12.2464 -0.051713 0)
(12.3762 -0.0604449 0)
(12.4937 -0.0740882 0)
(12.4711 -0.0912007 0)
(12.4019 -0.0899213 0)
(12.372 -0.086057 0)
(10.0304 -0.180954 0)
(10.2891 -0.345365 0)
(10.7441 -0.280726 0)
(11.11 -0.215607 0)
(11.4105 -0.118874 0)
(11.5426 -0.116592 0)
(11.7072 -0.123631 0)
(11.7938 -0.109729 0)
(11.8378 -0.0760267 0)
(11.8946 -0.0955628 0)
(12.0608 -0.0626013 0)
(12.145 -0.0702194 0)
(12.2095 -0.0740417 0)
(12.2942 -0.0950094 0)
(12.3592 -0.0692379 0)
(12.3866 -0.0825261 0)
(12.4513 -0.089854 0)
(12.4941 -0.115747 0)
(12.5297 -0.106791 0)
(12.4809 -0.119338 0)
(10.0716 -0.257895 0)
(10.2996 -0.444148 0)
(10.8877 -0.370507 0)
(11.1998 -0.263437 0)
(11.5568 -0.161143 0)
(11.5986 -0.152785 0)
(11.8073 -0.15519 0)
(11.8082 -0.130943 0)
(11.9491 -0.101661 0)
(11.9868 -0.132586 0)
(12.1951 -0.0927358 0)
(12.1795 -0.0890493 0)
(12.2846 -0.0896627 0)
(12.2866 -0.116408 0)
(12.3749 -0.0716841 0)
(12.3325 -0.0974206 0)
(12.4259 -0.103446 0)
(12.4295 -0.146103 0)
(12.4684 -0.133735 0)
(12.342 -0.159201 0)
(10.0569 -0.350995 0)
(10.371 -0.55424 0)
(11.0793 -0.464759 0)
(11.3254 -0.309253 0)
(11.6596 -0.201808 0)
(11.6447 -0.188568 0)
(11.8823 -0.191947 0)
(11.7982 -0.156545 0)
(11.9912 -0.135161 0)
(11.8928 -0.155814 0)
(12.0704 -0.114857 0)
(11.9245 -0.0971374 0)
(12.0429 -0.0989288 0)
(11.8923 -0.118008 0)
(12.0023 -0.0797495 0)
(11.8382 -0.104616 0)
(11.9248 -0.109618 0)
(11.7661 -0.155725 0)
(11.7667 -0.131184 0)
(11.5071 -0.17463 0)
(10.0021 -0.457617 0)
(10.5596 -0.700571 0)
(11.2048 -0.551952 0)
(11.3576 -0.357839 0)
(11.5559 -0.251288 0)
(11.4479 -0.227887 0)
(11.4949 -0.211823 0)
(11.281 -0.167514 0)
(11.3303 -0.141052 0)
(11.0535 -0.14408 0)
(11.1017 -0.106004 0)
(10.8403 -0.0849219 0)
(10.8834 -0.0842031 0)
(10.6083 -0.0977252 0)
(10.6873 -0.0661091 0)
(10.4071 -0.0851909 0)
(10.4631 -0.0861029 0)
(10.1653 -0.130361 0)
(10.159 -0.0986727 0)
(9.80241 -0.1701 0)
(10.0603 -0.632386 0)
(10.6603 -0.861512 0)
(10.8818 -0.603051 0)
(10.6709 -0.375395 0)
(10.4664 -0.251642 0)
(10.0836 -0.196698 0)
(9.83507 -0.160116 0)
(9.48505 -0.118153 0)
(9.34418 -0.0896145 0)
(8.99995 -0.0864466 0)
(8.94595 -0.0618745 0)
(8.67082 -0.0448724 0)
(8.65836 -0.0454538 0)
(8.38826 -0.0565319 0)
(8.42747 -0.0387224 0)
(8.1526 -0.0480216 0)
(8.18496 -0.0564997 0)
(7.87527 -0.0799745 0)
(7.86427 -0.0725652 0)
(7.50377 -0.0953974 0)
(10.0835 -0.838557 0)
(9.65828 -0.867153 0)
(8.87671 -0.507372 0)
(8.07113 -0.263134 0)
(7.50062 -0.136062 0)
(7.00594 -0.0812847 0)
(6.69368 -0.0583444 0)
(6.39253 -0.0392642 0)
(6.24338 -0.0254454 0)
(6.0003 -0.029996 0)
(5.93699 -0.0213277 0)
(5.75325 -0.0126219 0)
(5.73762 -0.015487 0)
(5.55075 -0.0252178 0)
(5.55776 -0.0152488 0)
(5.36797 -0.0207705 0)
(5.37138 -0.0266685 0)
(5.13477 -0.0383447 0)
(5.11055 -0.0382367 0)
(4.81048 -0.0215624 0)
(8.09158 -0.388041 0)
(5.44972 -0.242555 0)
(3.91295 -0.0427542 0)
(3.1534 0.0149872 0)
(2.80205 0.0185736 0)
(2.59928 0.0115766 0)
(2.48319 0.00432248 0)
(2.37402 0.0025549 0)
(2.32539 0.00329666 0)
(2.24566 -0.00108467 0)
(2.21412 -0.000212374 0)
(2.15407 0.00160107 0)
(2.15202 0.000298394 0)
(2.07996 -0.00290511 0)
(2.06794 -6.44084e-06 0)
(1.99834 -0.00133328 0)
(1.98511 -0.00196283 0)
(1.8827 -0.00481169 0)
(1.83778 -0.00357315 0)
(1.68773 0.0109857 0)
(2.26147 -0.140865 0)
(2.32371 -0.0774233 0)
(2.5089 -0.0582207 0)
(2.57189 -0.0560909 0)
(2.76217 -0.0691405 0)
(2.83329 -0.0614939 0)
(2.98222 -0.05925 0)
(3.023 -0.0507577 0)
(3.13559 -0.051461 0)
(3.14471 -0.0464691 0)
(3.22895 -0.0480739 0)
(3.22572 -0.0408058 0)
(3.30145 -0.0366824 0)
(3.30836 -0.0268585 0)
(3.38675 -0.0208303 0)
(3.41013 -0.0129493 0)
(3.49697 -0.0102331 0)
(3.53465 -0.00610333 0)
(3.62578 -0.00793147 0)
(3.67018 -0.00574986 0)
(3.75198 -0.00953177 0)
(3.79484 -0.00504769 0)
(3.86408 -0.00175399 0)
(3.90134 0.0083826 0)
(3.9681 0.0163685 0)
(4.01552 0.020382 0)
(4.09432 0.0206598 0)
(4.15569 0.0158204 0)
(4.24191 -0.00232045 0)
(4.30849 -0.0270874 0)
(4.3922 -0.0643387 0)
(4.45128 -0.113513 0)
(4.52112 -0.165318 0)
(4.55842 -0.21987 0)
(4.59971 -0.280843 0)
(4.5999 -0.329138 0)
(4.60522 -0.368862 0)
(4.5643 -0.396412 0)
(4.54117 -0.404802 0)
(4.41597 -0.394603 0)
(4.31955 -0.382054 0)
(4.15939 -0.329482 0)
(4.07177 -0.257579 0)
(3.97997 -0.117088 0)
(3.98279 0.0806525 0)
(4.07958 0.333571 0)
(4.2884 0.643139 0)
(4.58767 0.973706 0)
(5.02295 1.24029 0)
(5.42341 1.42376 0)
(5.8298 1.50179 0)
(6.2261 1.44881 0)
(6.59629 1.29527 0)
(6.90369 1.03853 0)
(7.1474 0.701539 0)
(7.34881 0.341821 0)
(7.52962 -0.0208231 0)
(7.65825 -0.369993 0)
(7.78841 -0.657736 0)
(7.92694 -0.944054 0)
(8.06282 -1.24619 0)
(8.19442 -1.60145 0)
(8.33159 -1.90293 0)
(8.44183 -2.15651 0)
(8.49625 -2.37407 0)
(8.51417 -2.56046 0)
(8.54654 -2.64075 0)
(8.59177 -2.48286 0)
(8.77604 -2.19552 0)
(8.76987 -1.73041 0)
(8.76489 -1.28101 0)
(8.73725 -0.914843 0)
(8.86143 -0.600657 0)
(9.07646 -0.268912 0)
(9.30689 0.0872871 0)
(9.56491 0.343309 0)
(9.58638 0.556296 0)
(9.67444 0.522622 0)
(9.74617 0.463113 0)
(9.83359 0.411864 0)
(9.93485 0.202978 0)
(10.1738 0.105847 0)
(10.3655 -0.0419127 0)
(10.5613 -0.310012 0)
(10.8105 -0.595091 0)
(11.029 -0.888992 0)
(11.2546 -1.3434 0)
(11.5672 -1.84705 0)
(11.68 -2.40458 0)
(11.9367 -3.05132 0)
(12.092 -3.67792 0)
(12.1655 -4.29011 0)
(12.2831 -4.91739 0)
(12.4085 -5.45464 0)
(12.4677 -5.90063 0)
(12.6395 -6.45342 0)
(12.7713 -6.77813 0)
(12.5784 -6.99289 0)
(12.4425 -6.96194 0)
(12.3701 -7.0263 0)
(12.5437 -7.08634 0)
(12.8351 -7.15598 0)
(13.116 -7.06122 0)
(13.3866 -6.81599 0)
(13.5241 -6.38233 0)
(13.5986 -5.85551 0)
(13.5896 -5.21573 0)
(13.7833 -4.5285 0)
(13.6792 -3.8424 0)
(13.8504 -2.96881 0)
(13.6671 -2.23363 0)
(13.7941 -1.44905 0)
(13.6852 -0.722909 0)
(13.7437 0.0305219 0)
(13.7511 0.737273 0)
(13.5338 1.26829 0)
(13.399 1.86443 0)
(12.9021 2.06259 0)
(12.5343 2.14481 0)
(12.0813 2.10008 0)
(11.4854 1.87932 0)
(11.2913 1.73382 0)
(10.7805 1.42643 0)
(10.503 1.19073 0)
(10.1384 1.09521 0)
(9.9156 0.915108 0)
(9.60996 0.922359 0)
(9.48524 0.927946 0)
(9.18966 1.02712 0)
(9.27282 1.15819 0)
(8.8808 1.33408 0)
(8.88025 1.54642 0)
(8.78358 1.70208 0)
(8.76625 1.7203 0)
(8.58896 1.93618 0)
(8.38691 2.16533 0)
(8.06036 2.40772 0)
(7.86642 2.64922 0)
(7.73287 2.80297 0)
(7.36001 2.88178 0)
(7.07723 2.9595 0)
(6.90546 2.9975 0)
(6.36714 2.91902 0)
(6.2493 2.78757 0)
(6.01482 2.86449 0)
(6.27514 2.85963 0)
(6.05595 2.94563 0)
(5.96649 3.2153 0)
(6.42863 3.5921 0)
(6.33061 3.78938 0)
(6.60524 3.6889 0)
(6.11606 3.80537 0)
(6.14679 3.41445 0)
(5.38062 3.10407 0)
(5.3258 2.89246 0)
(5.2759 2.75379 0)
(5.76981 2.86831 0)
(6.29634 3.14301 0)
(7.0007 3.30873 0)
(7.47874 3.5196 0)
(8.06008 3.72298 0)
(8.23785 3.69451 0)
(8.42944 3.45637 0)
(8.66221 3.2423 0)
(8.75391 3.227 0)
(8.70916 2.89206 0)
(8.74341 2.63735 0)
(8.95516 1.74492 0)
(9.29021 1.45709 0)
(9.33373 1.30818 0)
(9.71204 0.445938 0)
(10.0661 -0.450541 0)
(10.1417 -1.34824 0)
(9.93765 -1.7517 0)
(9.70184 -2.20127 0)
(9.173 -1.98289 0)
(8.97598 -2.25743 0)
(9.16296 -2.42948 0)
(9.2165 -3.18214 0)
(9.34199 -3.19027 0)
(8.93829 -3.49127 0)
(8.73231 -3.14015 0)
(8.88713 -3.33898 0)
(8.62031 -3.05709 0)
(8.73544 -2.56306 0)
(8.6157 -1.76778 0)
(8.74975 -1.04962 0)
(8.76409 -0.467257 0)
(8.79662 0.0701258 0)
(8.53265 0.773498 0)
(8.6961 1.30467 0)
(8.42326 1.10954 0)
(7.93479 1.87495 0)
(7.5778 1.76939 0)
(7.57702 3.41109 0)
(7.24449 4.75119 0)
(6.45193 4.70528 0)
(6.18212 6.82996 0)
(6.90807 8.55242 0)
(4.28821 12.0248 0)
(5.23085 -0.100615 0)
(5.24548 -0.0790646 0)
(5.30471 -0.0808611 0)
(5.34931 -0.0978277 0)
(5.44958 -0.114364 0)
(5.52064 -0.114484 0)
(5.60622 -0.110924 0)
(5.64599 -0.095655 0)
(5.69833 -0.0892947 0)
(5.71094 -0.0811739 0)
(5.74885 -0.0787751 0)
(5.75659 -0.0742463 0)
(5.79271 -0.070252 0)
(5.80805 -0.0683528 0)
(5.84514 -0.0620649 0)
(5.87001 -0.0579642 0)
(5.91165 -0.0537816 0)
(5.94398 -0.0504201 0)
(5.98728 -0.0508056 0)
(6.02293 -0.0468226 0)
(6.06836 -0.0480014 0)
(6.09989 -0.0468284 0)
(6.14573 -0.0450828 0)
(6.17495 -0.0358912 0)
(6.22177 -0.0339942 0)
(6.2633 -0.0304877 0)
(6.3168 -0.0358622 0)
(6.3725 -0.043618 0)
(6.44464 -0.0622821 0)
(6.50474 -0.0932255 0)
(6.58095 -0.119805 0)
(6.63832 -0.16907 0)
(6.70376 -0.211013 0)
(6.75004 -0.256874 0)
(6.78697 -0.311369 0)
(6.80079 -0.341283 0)
(6.80794 -0.371089 0)
(6.78375 -0.390368 0)
(6.74307 -0.388632 0)
(6.67577 -0.353113 0)
(6.61025 -0.306078 0)
(6.52188 -0.217686 0)
(6.42965 -0.11348 0)
(6.2976 0.00928851 0)
(6.1773 0.158054 0)
(6.07917 0.313421 0)
(6.07259 0.492744 0)
(6.12467 0.688991 0)
(6.3764 0.867916 0)
(6.69086 1.00646 0)
(7.05073 1.07588 0)
(7.45215 1.05028 0)
(7.8196 0.932775 0)
(8.15941 0.716873 0)
(8.41147 0.450653 0)
(8.64289 0.149243 0)
(8.85746 -0.168275 0)
(9.01144 -0.490364 0)
(9.17105 -0.798774 0)
(9.33597 -1.0968 0)
(9.53447 -1.41879 0)
(9.7354 -1.74491 0)
(9.89027 -2.02649 0)
(10.0257 -2.23296 0)
(10.1554 -2.42015 0)
(10.2706 -2.55801 0)
(10.3239 -2.56583 0)
(10.2021 -2.35621 0)
(10.0393 -2.11925 0)
(9.82883 -1.81125 0)
(9.87343 -1.47284 0)
(10.0503 -1.07922 0)
(10.1766 -0.674635 0)
(10.2704 -0.375371 0)
(10.3837 -0.0739908 0)
(10.4764 0.169659 0)
(10.6429 0.326378 0)
(10.8111 0.458688 0)
(10.92 0.487906 0)
(10.9528 0.384613 0)
(11.021 0.220592 0)
(10.9764 0.0457284 0)
(11.0533 -0.220677 0)
(11.1634 -0.507013 0)
(11.256 -0.846788 0)
(11.4442 -1.24036 0)
(11.7004 -1.6674 0)
(11.7672 -2.1753 0)
(12.0399 -2.77201 0)
(12.1625 -3.29366 0)
(12.2997 -3.91316 0)
(12.4638 -4.47657 0)
(12.5682 -4.99153 0)
(12.6211 -5.51229 0)
(12.6378 -6.01016 0)
(12.6744 -6.47888 0)
(12.3628 -6.69918 0)
(12.0291 -6.7591 0)
(11.9495 -6.91009 0)
(12.1126 -7.25974 0)
(12.4765 -7.46025 0)
(12.6461 -7.48578 0)
(12.8645 -7.30756 0)
(12.7537 -6.9333 0)
(12.7747 -6.33257 0)
(12.6434 -5.6769 0)
(12.5855 -5.07596 0)
(12.7666 -4.39282 0)
(12.6299 -3.71471 0)
(12.8586 -2.84353 0)
(12.4389 -2.16377 0)
(12.6351 -1.40761 0)
(12.3514 -0.666551 0)
(12.506 -0.0142588 0)
(12.5479 0.717127 0)
(12.4643 1.31754 0)
(12.4666 2.03047 0)
(12.1997 2.33547 0)
(11.7686 2.44722 0)
(11.5339 2.50683 0)
(10.8426 2.2535 0)
(10.7096 1.98212 0)
(10.2408 1.78068 0)
(9.92815 1.45276 0)
(9.72788 1.30425 0)
(9.60073 1.12152 0)
(9.40978 1.10039 0)
(9.41764 1.03167 0)
(9.24739 1.13351 0)
(9.30925 1.29097 0)
(9.12919 1.39887 0)
(9.146 1.60016 0)
(9.23904 1.73074 0)
(8.9978 1.83999 0)
(8.93659 2.04492 0)
(8.62466 2.36985 0)
(8.44733 2.51696 0)
(8.18807 2.77914 0)
(8.07565 2.96817 0)
(7.8608 3.03407 0)
(7.43383 3.16041 0)
(7.29785 3.33566 0)
(6.81695 3.23963 0)
(6.37282 2.99914 0)
(6.16949 2.92021 0)
(6.09575 2.97755 0)
(6.24529 3.09191 0)
(5.70826 3.19783 0)
(6.34865 3.35056 0)
(6.27021 3.73412 0)
(6.80077 3.74057 0)
(6.36332 3.90272 0)
(6.51841 3.76429 0)
(6.14711 3.53075 0)
(5.80097 3.1921 0)
(5.48495 2.64232 0)
(5.5445 2.46002 0)
(5.65861 2.54775 0)
(6.30937 2.62104 0)
(6.87922 3.07645 0)
(7.65653 3.16915 0)
(8.37871 3.35504 0)
(8.86933 3.32683 0)
(9.26391 3.10321 0)
(9.59823 3.15457 0)
(9.65363 2.9447 0)
(9.88126 2.57527 0)
(9.98426 1.63589 0)
(10.2627 1.39163 0)
(10.1229 1.15 0)
(10.5825 0.287028 0)
(10.8209 -0.633535 0)
(10.7122 -1.28607 0)
(10.1053 -1.29559 0)
(9.80445 -1.85998 0)
(9.42391 -1.50675 0)
(9.43256 -2.30315 0)
(9.58602 -2.52311 0)
(9.64095 -3.46744 0)
(9.25262 -2.96411 0)
(9.13622 -3.31696 0)
(8.90873 -2.95017 0)
(9.17852 -3.49417 0)
(9.13888 -3.2599 0)
(9.47558 -2.78957 0)
(9.43115 -1.96786 0)
(9.94113 -0.962866 0)
(9.46011 -0.530035 0)
(9.83601 0.588485 0)
(9.02478 0.508782 0)
(9.29159 1.53486 0)
(9.00626 1.67665 0)
(8.51928 1.33591 0)
(8.66995 3.10717 0)
(7.87943 2.87607 0)
(8.40402 5.00117 0)
(8.08933 6.023 0)
(6.4569 6.304 0)
(9.87133 7.25494 0)
(7.22512 13.4288 0)
(7.87637 -0.132712 0)
(7.87576 -0.154678 0)
(7.90635 -0.160479 0)
(7.95583 -0.16504 0)
(8.03022 -0.152767 0)
(8.09738 -0.136016 0)
(8.15315 -0.12126 0)
(8.17764 -0.100598 0)
(8.20511 -0.0948895 0)
(8.20034 -0.0871572 0)
(8.22365 -0.0860062 0)
(8.2214 -0.0842938 0)
(8.24703 -0.0805365 0)
(8.25997 -0.0816786 0)
(8.28122 -0.0763098 0)
(8.3068 -0.0749196 0)
(8.32314 -0.0723445 0)
(8.35701 -0.0674455 0)
(8.37265 -0.0688776 0)
(8.4031 -0.065239 0)
(8.4295 -0.0683471 0)
(8.44754 -0.0646153 0)
(8.48629 -0.0662448 0)
(8.49866 -0.0634163 0)
(8.54353 -0.0605311 0)
(8.56307 -0.0673297 0)
(8.61837 -0.0687176 0)
(8.6454 -0.0818364 0)
(8.70877 -0.109478 0)
(8.74767 -0.129324 0)
(8.80146 -0.1654 0)
(8.84893 -0.20881 0)
(8.88166 -0.245666 0)
(8.9233 -0.286344 0)
(8.93768 -0.324088 0)
(8.93912 -0.352856 0)
(8.93784 -0.367255 0)
(8.90904 -0.366229 0)
(8.86481 -0.354454 0)
(8.81419 -0.301232 0)
(8.75504 -0.243192 0)
(8.66277 -0.157836 0)
(8.60882 -0.0459975 0)
(8.49616 0.0682718 0)
(8.42963 0.220348 0)
(8.36461 0.373152 0)
(8.32174 0.512759 0)
(8.3252 0.653595 0)
(8.39551 0.761597 0)
(8.55551 0.813778 0)
(8.75649 0.817483 0)
(9.0358 0.755815 0)
(9.30257 0.643978 0)
(9.59718 0.46145 0)
(9.85098 0.214874 0)
(10.0627 -0.040333 0)
(10.3079 -0.337353 0)
(10.5288 -0.650689 0)
(10.7275 -0.956217 0)
(10.909 -1.25509 0)
(11.1428 -1.56256 0)
(11.3418 -1.849 0)
(11.4737 -2.0981 0)
(11.5745 -2.28746 0)
(11.6262 -2.45942 0)
(11.59 -2.59651 0)
(11.3973 -2.56462 0)
(11.1707 -2.34978 0)
(11.1088 -2.10665 0)
(11.0967 -1.77289 0)
(11.079 -1.38725 0)
(10.9597 -1.07419 0)
(10.9329 -0.758129 0)
(10.9317 -0.469729 0)
(11.0174 -0.139714 0)
(11.0746 0.148742 0)
(11.2603 0.290787 0)
(11.3152 0.36879 0)
(11.4965 0.401124 0)
(11.652 0.332115 0)
(11.7469 0.233588 0)
(11.8457 0.0410709 0)
(11.9336 -0.195631 0)
(11.9724 -0.49873 0)
(12.0807 -0.837511 0)
(12.2259 -1.27102 0)
(12.2922 -1.73702 0)
(12.4684 -2.23703 0)
(12.5887 -2.75009 0)
(12.6659 -3.27862 0)
(12.7735 -3.81905 0)
(12.8346 -4.36422 0)
(12.7369 -4.88535 0)
(12.5726 -5.40308 0)
(12.4571 -5.95333 0)
(12.0083 -6.25968 0)
(11.6307 -6.38521 0)
(11.4543 -6.70414 0)
(11.7683 -7.19665 0)
(12.0611 -7.59031 0)
(12.2288 -7.61008 0)
(12.0504 -7.44757 0)
(11.8985 -7.07009 0)
(11.6992 -6.59355 0)
(11.7257 -6.06801 0)
(11.6 -5.50972 0)
(11.7564 -5.02031 0)
(11.9048 -4.31663 0)
(11.8471 -3.56722 0)
(11.9227 -2.66303 0)
(11.425 -1.92095 0)
(11.44 -1.19369 0)
(11.0038 -0.591117 0)
(11.0147 0.000899307 0)
(11.0715 0.701437 0)
(10.9923 1.30471 0)
(11.126 2.05753 0)
(11.0373 2.53096 0)
(10.714 2.69647 0)
(10.612 2.8057 0)
(10.1825 2.52247 0)
(9.96002 2.31072 0)
(9.75002 2.06469 0)
(9.40955 1.70422 0)
(9.48895 1.44204 0)
(9.36092 1.23114 0)
(9.30102 1.08634 0)
(9.34652 1.12893 0)
(9.32061 1.12261 0)
(9.34047 1.31883 0)
(9.50937 1.39 0)
(9.43329 1.5595 0)
(9.60239 1.73513 0)
(9.29178 2.00365 0)
(9.24321 2.21372 0)
(8.9977 2.51356 0)
(8.77561 2.7093 0)
(8.555 2.9364 0)
(8.37836 3.07417 0)
(8.09315 3.35054 0)
(7.81287 3.42045 0)
(7.48189 3.53898 0)
(7.28133 3.55607 0)
(6.61164 3.34548 0)
(6.56215 2.92631 0)
(6.06563 3.01624 0)
(6.47049 3.10252 0)
(5.77991 3.30574 0)
(6.43924 3.03314 0)
(6.17764 3.56027 0)
(6.89828 3.67923 0)
(6.64733 4.06734 0)
(6.76469 3.80913 0)
(6.72397 3.6913 0)
(6.56901 3.37413 0)
(6.31266 3.07416 0)
(5.89311 2.62258 0)
(5.55819 2.42199 0)
(5.62073 1.95372 0)
(6.14571 2.60329 0)
(6.594 2.10109 0)
(7.84644 2.56186 0)
(8.54091 2.69358 0)
(9.18566 2.66949 0)
(9.90088 2.80073 0)
(10.0279 2.81064 0)
(10.5352 2.34002 0)
(10.5967 1.63171 0)
(10.7455 1.42226 0)
(10.7119 1.01801 0)
(11.1274 0.134295 0)
(10.8984 -0.586655 0)
(10.5308 -1.0286 0)
(9.79846 -0.835481 0)
(9.90903 -1.75332 0)
(9.70566 -1.41841 0)
(10.0454 -2.59945 0)
(9.93996 -2.36874 0)
(10.0754 -3.40076 0)
(9.363 -2.39653 0)
(9.57835 -3.60823 0)
(9.48143 -2.78899 0)
(9.77079 -3.8408 0)
(9.85255 -3.15372 0)
(9.84853 -2.99415 0)
(10.2168 -2.03143 0)
(10.1319 -1.35535 0)
(10.7032 -0.265485 0)
(9.87536 0.0184766 0)
(10.8174 1.75127 0)
(9.07882 0.792575 0)
(10.7078 2.43643 0)
(8.60382 1.90109 0)
(9.22285 2.42073 0)
(8.96982 3.73567 0)
(8.25137 4.43712 0)
(10.9905 5.66991 0)
(6.95195 8.54607 0)
(11.5934 3.92289 0)
(9.40666 12.074 0)
(10.0963 -0.149802 0)
(10.0943 -0.286159 0)
(10.1435 -0.319686 0)
(10.2055 -0.301765 0)
(10.2549 -0.247079 0)
(10.3115 -0.184559 0)
(10.3326 -0.154128 0)
(10.3354 -0.115548 0)
(10.3445 -0.110364 0)
(10.3173 -0.103967 0)
(10.332 -0.103674 0)
(10.3193 -0.102665 0)
(10.3323 -0.0974882 0)
(10.3452 -0.103681 0)
(10.3478 -0.0939786 0)
(10.3812 -0.0971399 0)
(10.3716 -0.0957845 0)
(10.4099 -0.0871449 0)
(10.4138 -0.089141 0)
(10.428 -0.0868329 0)
(10.4632 -0.0830386 0)
(10.459 -0.0865447 0)
(10.5 -0.0867774 0)
(10.5002 -0.0830043 0)
(10.534 -0.0885265 0)
(10.549 -0.0911283 0)
(10.58 -0.10413 0)
(10.6101 -0.107204 0)
(10.6428 -0.142068 0)
(10.6769 -0.16772 0)
(10.7057 -0.182707 0)
(10.7405 -0.243348 0)
(10.7427 -0.262315 0)
(10.7738 -0.297582 0)
(10.7591 -0.335956 0)
(10.7499 -0.346262 0)
(10.7325 -0.360091 0)
(10.6929 -0.348409 0)
(10.6629 -0.321827 0)
(10.5867 -0.263495 0)
(10.5613 -0.199393 0)
(10.4776 -0.113864 0)
(10.4367 0.00481902 0)
(10.3738 0.126388 0)
(10.3293 0.248818 0)
(10.3129 0.389966 0)
(10.3197 0.529127 0)
(10.3577 0.622691 0)
(10.4108 0.715175 0)
(10.5689 0.743489 0)
(10.7223 0.713062 0)
(10.9083 0.627463 0)
(11.1222 0.497257 0)
(11.3597 0.297775 0)
(11.5677 0.0470516 0)
(11.764 -0.207765 0)
(11.961 -0.486839 0)
(12.1582 -0.810598 0)
(12.3292 -1.10226 0)
(12.4854 -1.37235 0)
(12.6275 -1.67851 0)
(12.7295 -1.91643 0)
(12.739 -2.13084 0)
(12.7175 -2.35493 0)
(12.5952 -2.46475 0)
(12.4182 -2.475 0)
(12.1638 -2.36086 0)
(12.0385 -2.15226 0)
(11.8231 -1.90246 0)
(11.5193 -1.62565 0)
(11.2354 -1.33586 0)
(11.1202 -1.05906 0)
(11.0285 -0.732736 0)
(11.0384 -0.440248 0)
(11.0998 -0.195187 0)
(11.1567 0.0286545 0)
(11.3134 0.13586 0)
(11.4679 0.211183 0)
(11.625 0.268232 0)
(11.8404 0.19505 0)
(11.9674 0.100627 0)
(12.173 -0.0518021 0)
(12.2917 -0.302227 0)
(12.4079 -0.566733 0)
(12.5239 -0.901595 0)
(12.6478 -1.32406 0)
(12.6959 -1.71955 0)
(12.8425 -2.21908 0)
(12.7948 -2.70686 0)
(12.7929 -3.18188 0)
(12.7326 -3.76892 0)
(12.502 -4.30879 0)
(12.2178 -4.81435 0)
(11.9323 -5.42363 0)
(11.606 -5.77711 0)
(11.1319 -5.95876 0)
(11.0947 -6.35911 0)
(11.4292 -7.00909 0)
(11.7579 -7.48577 0)
(11.6684 -7.54611 0)
(11.2357 -7.32399 0)
(10.8556 -7.0214 0)
(10.7305 -6.76856 0)
(10.7772 -6.52937 0)
(10.9259 -6.14253 0)
(10.9942 -5.72535 0)
(11.2146 -5.24495 0)
(11.1859 -4.52341 0)
(11.1591 -3.61122 0)
(10.9412 -2.50861 0)
(10.5678 -1.6805 0)
(10.1733 -0.891447 0)
(9.78468 -0.386614 0)
(9.59737 0.000451308 0)
(9.56707 0.743042 0)
(9.35369 1.32955 0)
(9.70422 1.9717 0)
(9.49733 2.56043 0)
(9.40036 2.82024 0)
(9.47109 2.9418 0)
(9.26619 2.73533 0)
(9.01681 2.51485 0)
(9.08692 2.1856 0)
(8.8763 1.75159 0)
(9.1246 1.3921 0)
(9.01381 1.32557 0)
(9.12346 1.07905 0)
(9.24532 1.12558 0)
(9.42029 1.07174 0)
(9.48655 1.21047 0)
(9.70322 1.36433 0)
(9.63614 1.53224 0)
(9.6715 1.84813 0)
(9.44523 2.15815 0)
(9.34843 2.38426 0)
(9.10799 2.76268 0)
(8.82528 2.91431 0)
(8.67327 3.02119 0)
(8.46005 3.31334 0)
(8.14391 3.54266 0)
(8.02864 3.55994 0)
(7.51479 3.86318 0)
(7.61004 3.87821 0)
(6.91397 3.76814 0)
(6.80227 3.14634 0)
(6.15003 3.30364 0)
(6.56557 3.0264 0)
(5.96604 3.44234 0)
(6.39841 2.87498 0)
(6.16095 3.44515 0)
(6.63074 3.39338 0)
(6.8355 4.00986 0)
(6.98719 3.69046 0)
(7.05828 3.81733 0)
(7.03966 3.49423 0)
(7.13745 3.36126 0)
(6.81634 2.96282 0)
(6.69412 2.79973 0)
(6.03463 1.93726 0)
(6.18369 2.31995 0)
(5.80227 1.23151 0)
(7.14984 1.80438 0)
(7.46861 1.78412 0)
(8.532 2.04382 0)
(9.25897 2.21043 0)
(9.57772 2.45199 0)
(10.1789 1.86954 0)
(10.2844 1.50127 0)
(10.4657 1.15595 0)
(10.4848 0.769658 0)
(10.7003 0.142824 0)
(10.223 -0.195012 0)
(10.1539 -0.68287 0)
(9.71563 -0.597047 0)
(10.386 -1.89383 0)
(10.1845 -1.41839 0)
(10.5863 -3.00253 0)
(9.99483 -2.07419 0)
(10.4096 -3.48889 0)
(9.3845 -1.98616 0)
(10.2957 -4.12446 0)
(9.5994 -2.62141 0)
(10.3485 -4.70969 0)
(10.2824 -2.79355 0)
(10.4017 -3.97418 0)
(11.3594 -1.33805 0)
(10.3056 -1.98678 0)
(11.769 0.339647 0)
(10.1994 0.304476 0)
(11.1017 1.26704 0)
(10.679 1.89115 0)
(9.92734 2.16675 0)
(11.3417 2.74511 0)
(8.03828 3.31908 0)
(11.5253 2.90055 0)
(6.9454 6.11702 0)
(12.559 2.95208 0)
(8.55299 9.44768 0)
(12.0526 3.48319 0)
(10.2347 10.4017 0)
(11.5894 -0.133405 0)
(11.6223 -0.301959 0)
(11.7173 -0.349617 0)
(11.8284 -0.335591 0)
(11.8549 -0.272031 0)
(11.8939 -0.202798 0)
(11.8923 -0.158085 0)
(11.8684 -0.117544 0)
(11.872 -0.107599 0)
(11.8329 -0.0945709 0)
(11.8318 -0.103845 0)
(11.8229 -0.104393 0)
(11.8145 -0.100945 0)
(11.8344 -0.112608 0)
(11.8274 -0.102294 0)
(11.8627 -0.100464 0)
(11.857 -0.0967172 0)
(11.8715 -0.0988099 0)
(11.8892 -0.0889271 0)
(11.874 -0.0956102 0)
(11.8995 -0.0956237 0)
(11.8941 -0.0882152 0)
(11.9135 -0.103447 0)
(11.9143 -0.0898194 0)
(11.9326 -0.104034 0)
(11.943 -0.112065 0)
(11.9605 -0.122923 0)
(11.9737 -0.134238 0)
(11.9967 -0.159682 0)
(12.0121 -0.190673 0)
(12.0188 -0.197825 0)
(12.0464 -0.247073 0)
(12.0198 -0.264786 0)
(12.0389 -0.295539 0)
(12.0153 -0.314792 0)
(11.9809 -0.330428 0)
(11.9599 -0.332252 0)
(11.9229 -0.31651 0)
(11.8747 -0.288069 0)
(11.8101 -0.221645 0)
(11.8047 -0.175363 0)
(11.7356 -0.0621586 0)
(11.7044 0.0342296 0)
(11.7011 0.141682 0)
(11.682 0.261418 0)
(11.7143 0.371209 0)
(11.7599 0.497756 0)
(11.8399 0.558758 0)
(11.9383 0.636211 0)
(12.1028 0.646236 0)
(12.2688 0.583861 0)
(12.4439 0.513256 0)
(12.6425 0.358104 0)
(12.8444 0.137386 0)
(13.0017 -0.0777074 0)
(13.179 -0.354516 0)
(13.3213 -0.626573 0)
(13.4239 -0.898911 0)
(13.5207 -1.2048 0)
(13.5881 -1.45273 0)
(13.5888 -1.70001 0)
(13.5119 -1.93367 0)
(13.4123 -2.12407 0)
(13.2604 -2.24945 0)
(13.0018 -2.28566 0)
(12.7597 -2.22402 0)
(12.5033 -2.12469 0)
(12.1545 -1.95896 0)
(11.7615 -1.71413 0)
(11.5832 -1.44332 0)
(11.4329 -1.11186 0)
(11.2878 -0.81949 0)
(11.241 -0.627599 0)
(11.1264 -0.434636 0)
(11.1829 -0.21461 0)
(11.227 -0.0379362 0)
(11.3109 0.0775784 0)
(11.4482 0.152561 0)
(11.569 0.111313 0)
(11.6797 0.0680984 0)
(11.8859 -0.0265506 0)
(11.9875 -0.19991 0)
(12.173 -0.376191 0)
(12.2811 -0.665816 0)
(12.3789 -1.0001 0)
(12.4519 -1.32546 0)
(12.4968 -1.79347 0)
(12.4631 -2.24602 0)
(12.3834 -2.6986 0)
(12.2296 -3.25924 0)
(12.02 -3.78478 0)
(11.7006 -4.25367 0)
(11.4886 -4.79956 0)
(11.3121 -5.1963 0)
(10.9217 -5.40103 0)
(10.8495 -5.83443 0)
(11.1995 -6.58704 0)
(11.4182 -7.16731 0)
(11.0939 -7.2511 0)
(10.3803 -7.01768 0)
(9.93009 -6.84859 0)
(9.82157 -6.90845 0)
(9.97527 -6.9806 0)
(10.1204 -6.8031 0)
(10.1731 -6.3835 0)
(10.114 -5.89381 0)
(10.1057 -5.32023 0)
(9.88383 -4.55016 0)
(9.81167 -3.5478 0)
(9.52975 -2.4055 0)
(9.04198 -1.35203 0)
(8.74637 -0.655832 0)
(8.3967 -0.185154 0)
(7.97334 0.300883 0)
(8.14663 0.785952 0)
(7.75903 1.30641 0)
(7.97565 2.08553 0)
(7.89155 2.59764 0)
(7.94618 2.76042 0)
(7.9988 2.96685 0)
(7.93253 2.83166 0)
(8.00746 2.51669 0)
(8.25965 2.17953 0)
(8.17679 1.69718 0)
(8.49328 1.40863 0)
(8.62635 1.20416 0)
(8.85583 0.927198 0)
(9.19019 0.886296 0)
(9.35399 0.953294 0)
(9.48565 1.04975 0)
(9.70604 1.34078 0)
(9.6584 1.55695 0)
(9.59533 1.93158 0)
(9.52375 2.26005 0)
(9.19017 2.60043 0)
(9.10719 2.95069 0)
(8.78238 3.15511 0)
(8.42639 3.36306 0)
(8.39051 3.39267 0)
(7.8774 3.69164 0)
(7.99535 3.77563 0)
(7.53792 3.98773 0)
(7.72465 3.92145 0)
(7.12473 4.22336 0)
(7.06514 3.35387 0)
(6.34702 3.517 0)
(6.59363 3.01508 0)
(6.23745 3.5797 0)
(6.28994 2.91591 0)
(6.2977 3.29255 0)
(6.32485 3.12574 0)
(6.74948 3.8587 0)
(6.99639 3.55334 0)
(7.26078 3.81896 0)
(7.30887 3.4633 0)
(7.69042 3.35882 0)
(7.4403 3.12013 0)
(7.80756 3.25986 0)
(7.16564 2.44788 0)
(7.50092 2.5586 0)
(6.66142 1.35273 0)
(7.36655 1.4772 0)
(6.87147 1.00858 0)
(7.99502 1.44704 0)
(8.18927 1.60784 0)
(8.73687 1.99881 0)
(9.30818 1.41187 0)
(9.52935 1.37406 0)
(9.68654 0.994829 0)
(9.87991 0.773558 0)
(10.0585 0.208702 0)
(9.79775 0.0732462 0)
(10.2815 -0.712515 0)