/*--------------------------------*- C++ -*----------------------------------*\
| =========                 |                                                 |
| \\      /  F ield         | OpenFOAM: The Open Source CFD Toolbox           |
|  \\    /   O peration     | Version:  2.4.0                                 |
|   \\  /    A nd           | Web:      www.OpenFOAM.org                      |
|    \\/     M anipulation  |                                                 |
\*---------------------------------------------------------------------------*/
FoamFile
{
    version     2.0;
    format      ascii;
    class       volScalarField;
    location    "7";
    object      p;
}
// * * * * * * * * * * * * * * * * * * * * * * * * * * * * * * * * * * * * * //

dimensions      [0 2 -2 0 0 0 0];

internalField   nonuniform List<scalar> 
4400
(
-0.116955
-0.11863
-0.119788
-0.120564
-0.121714
-0.122355
-0.123539
-0.124537
-0.124619
-0.125314
-0.122932
-0.122193
-0.118866
-0.11221
-0.11644
-0.100318
-0.101742
-0.108758
-0.0768725
-0.139675
-0.116937
-0.118629
-0.119814
-0.120553
-0.121732
-0.12233
-0.123543
-0.124551
-0.124623
-0.12544
-0.122945
-0.122306
-0.119003
-0.112029
-0.116716
-0.100222
-0.101538
-0.109196
-0.076355
-0.132123
-0.116917
-0.11863
-0.119833
-0.120538
-0.121766
-0.122311
-0.12356
-0.124554
-0.124601
-0.125522
-0.122949
-0.12244
-0.11925
-0.112062
-0.117182
-0.100002
-0.101725
-0.110922
-0.078251
-0.122437
-0.116907
-0.11863
-0.119844
-0.120512
-0.121812
-0.122296
-0.123567
-0.124528
-0.124541
-0.125572
-0.122965
-0.122698
-0.119622
-0.112217
-0.117543
-0.0999792
-0.101605
-0.113513
-0.0791408
-0.115931
-0.116911
-0.118624
-0.119852
-0.120467
-0.121847
-0.122314
-0.123567
-0.124478
-0.124457
-0.12554
-0.12301
-0.122524
-0.119905
-0.112211
-0.117248
-0.100432
-0.101271
-0.114374
-0.0797683
-0.108952
-0.116935
-0.118607
-0.119862
-0.12041
-0.121856
-0.122372
-0.12356
-0.124395
-0.124375
-0.125426
-0.123102
-0.122165
-0.120013
-0.112123
-0.116382
-0.101322
-0.100286
-0.113042
-0.0803377
-0.101467
-0.116982
-0.118574
-0.119868
-0.120358
-0.121822
-0.122462
-0.123563
-0.124291
-0.124313
-0.125254
-0.12323
-0.12175
-0.11997
-0.112124
-0.115157
-0.102401
-0.0988541
-0.110417
-0.0808113
-0.0948389
-0.117053
-0.118526
-0.119863
-0.12033
-0.121746
-0.122583
-0.123567
-0.124186
-0.124276
-0.12506
-0.123374
-0.121375
-0.119812
-0.11228
-0.113773
-0.103416
-0.0975265
-0.107216
-0.0823652
-0.0893025
-0.117146
-0.118469
-0.119838
-0.12033
-0.121649
-0.122699
-0.123569
-0.124091
-0.124268
-0.124877
-0.123514
-0.121097
-0.119568
-0.112574
-0.112388
-0.104233
-0.0965465
-0.103863
-0.0838862
-0.0848341
-0.117254
-0.118413
-0.119783
-0.120359
-0.12155
-0.122796
-0.123562
-0.124022
-0.124315
-0.124712
-0.123633
-0.12094
-0.119279
-0.112958
-0.111145
-0.104767
-0.0959657
-0.10063
-0.085161
-0.0814019
-0.117366
-0.118367
-0.119703
-0.120406
-0.121469
-0.122859
-0.123535
-0.123996
-0.1244
-0.124577
-0.123728
-0.120895
-0.118997
-0.113377
-0.110111
-0.105018
-0.0957304
-0.0976832
-0.0860886
-0.0789456
-0.117471
-0.118336
-0.11961
-0.12046
-0.121418
-0.122881
-0.123495
-0.124014
-0.124512
-0.124512
-0.123795
-0.120947
-0.118764
-0.113768
-0.109346
-0.105032
-0.0957236
-0.0951449
-0.086631
-0.0772843
-0.11756
-0.118323
-0.119518
-0.120516
-0.121395
-0.122862
-0.123452
-0.124074
-0.124638
-0.124496
-0.123844
-0.121072
-0.118596
-0.114099
-0.108823
-0.10487
-0.0958481
-0.0930588
-0.0868105
-0.0761985
-0.117629
-0.118325
-0.119443
-0.120565
-0.121388
-0.122808
-0.123421
-0.124163
-0.124759
-0.124524
-0.123877
-0.121233
-0.118495
-0.11434
-0.108496
-0.104601
-0.095994
-0.0914236
-0.0866954
-0.075469
-0.117672
-0.118342
-0.119394
-0.120597
-0.121385
-0.12274
-0.123408
-0.124259
-0.124861
-0.124582
-0.123893
-0.121398
-0.118439
-0.114481
-0.108307
-0.104269
-0.0960886
-0.0901906
-0.0863397
-0.0749416
-0.117693
-0.118369
-0.119375
-0.120606
-0.121378
-0.122675
-0.123415
-0.124349
-0.124938
-0.124652
-0.123894
-0.121534
-0.118396
-0.114519
-0.108182
-0.103906
-0.0960816
-0.089281
-0.085892
-0.0744921
-0.117699
-0.118404
-0.119377
-0.120593
-0.121371
-0.122623
-0.123428
-0.124406
-0.124984
-0.124709
-0.123875
-0.121616
-0.118337
-0.114456
-0.108062
-0.103541
-0.0959684
-0.0886176
-0.0854456
-0.0740842
-0.117699
-0.118438
-0.119389
-0.120561
-0.121367
-0.122589
-0.123451
-0.124434
-0.124999
-0.124731
-0.123819
-0.121615
-0.118235
-0.114317
-0.107924
-0.10322
-0.0958015
-0.0881598
-0.0850692
-0.0737439
-0.117701
-0.118458
-0.119393
-0.120537
-0.12137
-0.122568
-0.123454
-0.124435
-0.124982
-0.124715
-0.123744
-0.121559
-0.118128
-0.114172
-0.107807
-0.102997
-0.0956557
-0.087929
-0.0847924
-0.0735454
-0.11771
-0.118462
-0.119392
-0.120521
-0.121375
-0.122562
-0.123458
-0.124429
-0.124945
-0.124669
-0.12367
-0.121479
-0.118042
-0.114056
-0.107734
-0.102879
-0.0955485
-0.0879129
-0.0846176
-0.0734705
-0.0744411
-0.0122215
-0.125752
-0.210781
-0.184948
-0.0929803
-0.0142307
0.0269117
0.0456991
0.0538948
0.0571405
0.0583268
0.058668
0.0585943
0.0583048
0.0579097
0.0574611
0.0569827
0.0564867
0.0559797
0.0554653
0.0549449
0.0544197
0.05389
0.0533561
0.0528183
0.0522766
0.0517309
0.0511813
0.0506279
0.0500706
0.0495093
0.0489441
0.0483749
0.0478017
0.0472244
0.0466431
0.0460578
0.0454683
0.0448746
0.0442768
0.0436748
0.0430686
0.0424581
0.0418434
0.0412243
0.0406008
0.039973
0.0393407
0.0387041
0.0380629
0.0374172
0.036767
0.0361122
0.0354529
0.0347889
0.0341202
0.0334468
0.0327688
0.0320859
0.0313983
0.0307058
0.0300084
0.0293062
0.028599
0.0278869
0.0271697
0.0264475
0.0257203
0.0249879
0.0242503
0.0235076
0.0227597
0.0220065
0.021248
0.0204842
0.019715
0.0189405
0.0181604
0.017375
0.0165839
0.0157874
0.0149852
0.0141775
0.013364
0.0125448
0.0117198
0.0108891
0.0100524
0.00921014
0.00836141
0.00750751
0.0066467
0.00578057
0.0049083
0.00402887
0.00314527
0.00225343
0.00135594
0.000453292
-0.0882184
-0.0184732
-0.116039
-0.198182
-0.175554
-0.0880359
-0.0132264
0.0258222
0.0443022
0.0527936
0.0563318
0.05775
0.0582739
0.0583319
0.058132
0.0577971
0.0573884
0.0569361
0.056457
0.055961
0.0554535
0.0549375
0.0544151
0.0538871
0.0533544
0.0528173
0.0522759
0.0517305
0.0511811
0.0506278
0.0500705
0.0495092
0.048944
0.0483748
0.0478016
0.0472244
0.0466431
0.0460578
0.0454683
0.0448746
0.0442768
0.0436748
0.0430686
0.0424581
0.0418434
0.0412242
0.0406008
0.039973
0.0393407
0.0387041
0.0380629
0.0374172
0.036767
0.0361122
0.0354529
0.0347889
0.0341202
0.0334468
0.0327688
0.0320859
0.0313983
0.0307058
0.0300084
0.0293062
0.028599
0.0278869
0.0271697
0.0264475
0.0257203
0.0249879
0.0242503
0.0235076
0.0227597
0.0220065
0.021248
0.0204842
0.019715
0.0189405
0.0181604
0.0173749
0.0165839
0.0157874
0.0149852
0.0141775
0.013364
0.0125448
0.0117198
0.0108891
0.0100524
0.00921014
0.00836141
0.0075075
0.0066467
0.00578057
0.0049083
0.00402887
0.00314527
0.00225343
0.00135594
0.000453291
-0.0991695
-0.0294762
-0.108725
-0.185991
-0.165697
-0.0829605
-0.012185
0.0248019
0.0429077
0.0516948
0.0555355
0.057184
0.0578872
0.0580743
0.0579624
0.0576865
0.057317
0.0568903
0.0564278
0.0559425
0.0554418
0.0549302
0.0544105
0.0538843
0.0533527
0.0528162
0.0522753
0.0517301
0.0511809
0.0506276
0.0500704
0.0495092
0.048944
0.0483748
0.0478016
0.0472244
0.0466431
0.0460578
0.0454683
0.0448746
0.0442768
0.0436748
0.0430686
0.0424581
0.0418434
0.0412242
0.0406008
0.039973
0.0393407
0.0387041
0.0380629
0.0374172
0.036767
0.0361122
0.0354529
0.0347889
0.0341202
0.0334468
0.0327688
0.0320859
0.0313983
0.0307058
0.0300084
0.0293062
0.028599
0.0278869
0.0271697
0.0264475
0.0257203
0.0249879
0.0242503
0.0235076
0.0227597
0.0220065
0.021248
0.0204842
0.019715
0.0189405
0.0181604
0.017375
0.016584
0.0157874
0.0149852
0.0141775
0.013364
0.0125448
0.0117198
0.0108891
0.0100524
0.00921014
0.00836141
0.0075075
0.0066467
0.00578057
0.0049083
0.00402887
0.00314527
0.00225343
0.00135594
0.000453291
-0.104893
-0.0363724
-0.101973
-0.1736
-0.155476
-0.0780078
-0.0113878
0.0237732
0.0415409
0.0506048
0.05475
0.0566298
0.0575097
0.0578233
0.0577971
0.0575787
0.0572473
0.0568456
0.0563993
0.0559244
0.0554304
0.0549231
0.0544061
0.0538816
0.053351
0.0528152
0.0522746
0.0517297
0.0511807
0.0506275
0.0500703
0.0495091
0.048944
0.0483748
0.0478016
0.0472244
0.0466431
0.0460578
0.0454683
0.0448746
0.0442768
0.0436748
0.0430686
0.0424581
0.0418434
0.0412242
0.0406008
0.039973
0.0393407
0.0387041
0.0380629
0.0374172
0.036767
0.0361122
0.0354529
0.0347889
0.0341202
0.0334468
0.0327688
0.0320859
0.0313983
0.0307058
0.0300084
0.0293062
0.028599
0.0278869
0.0271697
0.0264475
0.0257202
0.0249879
0.0242503
0.0235076
0.0227597
0.0220065
0.021248
0.0204842
0.019715
0.0189405
0.0181604
0.017375
0.016584
0.0157874
0.0149852
0.0141775
0.013364
0.0125448
0.0117198
0.0108891
0.0100524
0.00921014
0.00836141
0.0075075
0.0066467
0.00578057
0.0049083
0.00402887
0.00314527
0.00225343
0.00135594
0.00045329
-0.105888
-0.0422485
-0.0955132
-0.160827
-0.14505
-0.0732459
-0.0108691
0.0226121
0.0401621
0.0495318
0.053983
0.0560902
0.0571429
0.05758
0.0576372
0.0574744
0.0571798
0.0568022
0.0563717
0.0559069
0.0554194
0.0549162
0.0544018
0.0538789
0.0533494
0.0528142
0.052274
0.0517294
0.0511804
0.0506274
0.0500702
0.0495091
0.048944
0.0483748
0.0478016
0.0472244
0.0466431
0.0460578
0.0454683
0.0448746
0.0442768
0.0436748
0.0430686
0.0424581
0.0418433
0.0412242
0.0406008
0.039973
0.0393407
0.0387041
0.0380629
0.0374172
0.036767
0.0361122
0.0354529
0.0347889
0.0341202
0.0334468
0.0327688
0.0320859
0.0313983
0.0307058
0.0300084
0.0293062
0.028599
0.0278869
0.0271697
0.0264475
0.0257202
0.0249879
0.0242503
0.0235076
0.0227597
0.0220065
0.021248
0.0204842
0.019715
0.0189405
0.0181604
0.017375
0.016584
0.0157874
0.0149852
0.0141775
0.013364
0.0125448
0.0117198
0.0108891
0.0100524
0.00921014
0.00836141
0.0075075
0.0066467
0.00578057
0.0049083
0.00402887
0.00314527
0.00225343
0.00135594
0.000453289
-0.104225
-0.0469963
-0.0882021
-0.147295
-0.134631
-0.0688675
-0.0105364
0.0213912
0.0387351
0.0484461
0.0532323
0.0555706
0.0567904
0.0573461
0.0574836
0.0573742
0.057115
0.0567606
0.0563451
0.05589
0.0554087
0.0549095
0.0543976
0.0538763
0.0533478
0.0528132
0.0522735
0.051729
0.0511802
0.0506272
0.0500702
0.049509
0.0489439
0.0483748
0.0478016
0.0472244
0.0466431
0.0460578
0.0454683
0.0448746
0.0442768
0.0436748
0.0430686
0.0424581
0.0418433
0.0412242
0.0406008
0.039973
0.0393407
0.0387041
0.0380629
0.0374172
0.036767
0.0361122
0.0354529
0.0347889
0.0341202
0.0334468
0.0327688
0.0320859
0.0313983
0.0307058
0.0300084
0.0293062
0.028599
0.0278869
0.0271697
0.0264475
0.0257202
0.0249879
0.0242503
0.0235076
0.0227597
0.0220065
0.021248
0.0204842
0.019715
0.0189405
0.0181604
0.017375
0.016584
0.0157874
0.0149852
0.0141775
0.013364
0.0125448
0.0117198
0.0108891
0.0100524
0.00921014
0.00836141
0.0075075
0.0066467
0.00578057
0.0049083
0.00402887
0.00314526
0.00225344
0.00135594
0.000453288
-0.100788
-0.0497603
-0.0798921
-0.133823
-0.124512
-0.0651293
-0.0105986
0.0201866
0.0373612
0.0473599
0.0524848
0.0550661
0.0564531
0.0571234
0.0573376
0.057279
0.0570533
0.0567209
0.0563197
0.0558739
0.0553986
0.0549032
0.0543937
0.0538739
0.0533463
0.0528123
0.0522729
0.0517287
0.05118
0.0506271
0.0500701
0.049509
0.0489439
0.0483748
0.0478016
0.0472244
0.0466431
0.0460578
0.0454683
0.0448746
0.0442768
0.0436748
0.0430686
0.0424581
0.0418433
0.0412242
0.0406008
0.039973
0.0393407
0.0387041
0.0380629
0.0374172
0.036767
0.0361122
0.0354529
0.0347889
0.0341202
0.0334468
0.0327688
0.0320859
0.0313983
0.0307058
0.0300084
0.0293062
0.028599
0.0278869
0.0271697
0.0264475
0.0257202
0.0249879
0.0242503
0.0235076
0.0227597
0.0220065
0.021248
0.0204842
0.019715
0.0189405
0.0181604
0.017375
0.016584
0.0157874
0.0149852
0.0141775
0.013364
0.0125448
0.0117198
0.0108891
0.0100524
0.00921014
0.00836141
0.0075075
0.0066467
0.00578057
0.0049083
0.00402887
0.00314526
0.00225344
0.00135594
0.000453287
-0.0965045
-0.0529373
-0.0725191
-0.121073
-0.114818
-0.0619478
-0.0112656
0.0187504
0.0360303
0.0463371
0.0517713
0.0545824
0.0561306
0.0569118
0.0571996
0.0571892
0.0569951
0.0566835
0.0562958
0.0558587
0.055389
0.0548972
0.0543899
0.0538716
0.0533448
0.0528114
0.0522724
0.0517284
0.0511798
0.050627
0.05007
0.049509
0.0489439
0.0483748
0.0478016
0.0472244
0.0466431
0.0460578
0.0454683
0.0448746
0.0442768
0.0436748
0.0430686
0.0424581
0.0418433
0.0412242
0.0406008
0.039973
0.0393407
0.0387041
0.0380629
0.0374172
0.036767
0.0361122
0.0354529
0.0347889
0.0341202
0.0334468
0.0327688
0.0320859
0.0313983
0.0307058
0.0300084
0.0293062
0.028599
0.0278869
0.0271697
0.0264475
0.0257202
0.0249879
0.0242503
0.0235076
0.0227597
0.0220065
0.021248
0.0204842
0.019715
0.0189405
0.0181604
0.017375
0.016584
0.0157874
0.0149852
0.0141775
0.013364
0.0125448
0.0117198
0.0108891
0.0100524
0.00921014
0.00836141
0.0075075
0.0066467
0.00578057
0.0049083
0.00402887
0.00314526
0.00225344
0.00135594
0.000453285
-0.0920297
-0.0562866
-0.0669478
-0.109043
-0.105578
-0.0592372
-0.0123476
0.0169997
0.0345619
0.0453001
0.0510935
0.0541356
0.0558322
0.0567147
0.0570709
0.0571055
0.0569409
0.0566486
0.0562735
0.0558446
0.0553801
0.0548916
0.0543865
0.0538694
0.0533435
0.0528106
0.0522719
0.0517281
0.0511797
0.0506269
0.05007
0.0495089
0.0489439
0.0483747
0.0478016
0.0472244
0.0466431
0.0460578
0.0454683
0.0448746
0.0442768
0.0436748
0.0430686
0.0424581
0.0418433
0.0412242
0.0406008
0.039973
0.0393407
0.0387041
0.0380629
0.0374172
0.036767
0.0361122
0.0354529
0.0347889
0.0341202
0.0334469
0.0327688
0.0320859
0.0313983
0.0307058
0.0300084
0.0293062
0.028599
0.0278869
0.0271697
0.0264475
0.0257202
0.0249879
0.0242503
0.0235076
0.0227597
0.0220065
0.021248
0.0204842
0.019715
0.0189405
0.0181604
0.017375
0.016584
0.0157874
0.0149852
0.0141775
0.013364
0.0125448
0.0117198
0.0108891
0.0100524
0.00921014
0.00836141
0.0075075
0.0066467
0.00578057
0.0049083
0.00402887
0.00314526
0.00225344
0.00135594
0.000453283
-0.0877656
-0.0596765
-0.062752
-0.0977421
-0.0968514
-0.0571137
-0.0138316
0.0151673
0.033089
0.0442274
0.0504038
0.0537045
0.0555537
0.0565329
0.0569526
0.0570286
0.056891
0.0566164
0.0562529
0.0558315
0.0553718
0.0548864
0.0543833
0.0538675
0.0533423
0.0528099
0.0522714
0.0517278
0.0511795
0.0506268
0.0500699
0.0495089
0.0489438
0.0483747
0.0478016
0.0472244
0.0466431
0.0460578
0.0454683
0.0448746
0.0442768
0.0436748
0.0430686
0.0424581
0.0418433
0.0412242
0.0406008
0.039973
0.0393407
0.0387041
0.0380629
0.0374172
0.036767
0.0361122
0.0354529
0.0347889
0.0341202
0.0334469
0.0327688
0.0320859
0.0313983
0.0307058
0.0300084
0.0293062
0.028599
0.0278869
0.0271697
0.0264475
0.0257202
0.0249879
0.0242503
0.0235076
0.0227597
0.0220065
0.021248
0.0204842
0.019715
0.0189405
0.0181605
0.017375
0.016584
0.0157874
0.0149852
0.0141775
0.013364
0.0125448
0.0117198
0.0108891
0.0100524
0.00921014
0.00836141
0.0075075
0.0066467
0.00578057
0.0049083
0.00402887
0.00314526
0.00225345
0.00135594
0.000453281
-0.0838864
-0.0623011
-0.0594765
-0.0874241
-0.0886855
-0.055501
-0.0159132
0.0130755
0.0316887
0.0432527
0.0497658
0.0533043
0.0552963
0.0563658
0.0568448
0.0569588
0.0568458
0.0565873
0.0562343
0.0558197
0.0553644
0.0548817
0.0543803
0.0538657
0.0533412
0.0528092
0.052271
0.0517276
0.0511794
0.0506267
0.0500699
0.0495089
0.0489438
0.0483747
0.0478016
0.0472244
0.0466431
0.0460578
0.0454683
0.0448746
0.0442768
0.0436748
0.0430686
0.0424581
0.0418433
0.0412242
0.0406008
0.039973
0.0393407
0.0387041
0.0380629
0.0374172
0.036767
0.0361122
0.0354529
0.0347889
0.0341202
0.0334469
0.0327688
0.0320859
0.0313983
0.0307058
0.0300084
0.0293062
0.028599
0.0278869
0.0271697
0.0264475
0.0257202
0.0249879
0.0242503
0.0235076
0.0227597
0.0220065
0.021248
0.0204842
0.019715
0.0189405
0.0181605
0.017375
0.016584
0.0157874
0.0149852
0.0141775
0.013364
0.0125448
0.0117198
0.0108891
0.0100524
0.00921014
0.00836141
0.0075075
0.0066467
0.00578057
0.0049083
0.00402887
0.00314526
0.00225345
0.00135594
0.000453278
-0.0804258
-0.0642844
-0.057004
-0.0781974
-0.08116
-0.054356
-0.018456
0.0106745
0.0302092
0.0423006
0.0491793
0.0529511
0.055071
0.0562186
0.0567493
0.0568968
0.0568056
0.0565613
0.0562176
0.0558091
0.0553577
0.0548776
0.0543778
0.0538641
0.0533402
0.0528086
0.0522707
0.0517274
0.0511792
0.0506266
0.0500698
0.0495088
0.0489438
0.0483747
0.0478016
0.0472244
0.0466431
0.0460578
0.0454683
0.0448746
0.0442768
0.0436748
0.0430686
0.0424581
0.0418433
0.0412242
0.0406008
0.039973
0.0393407
0.0387041
0.0380629
0.0374172
0.036767
0.0361122
0.0354529
0.0347889
0.0341202
0.0334469
0.0327688
0.0320859
0.0313983
0.0307058
0.0300084
0.0293062
0.028599
0.0278869
0.0271697
0.0264475
0.0257202
0.0249879
0.0242503
0.0235076
0.0227597
0.0220065
0.021248
0.0204842
0.019715
0.0189405
0.0181605
0.017375
0.016584
0.0157874
0.0149852
0.0141775
0.013364
0.0125448
0.0117198
0.0108891
0.0100524
0.00921014
0.00836141
0.0075075
0.0066467
0.00578057
0.0049083
0.00402887
0.00314526
0.00225345
0.00135594
0.000453275
-0.0773757
-0.0653143
-0.0551792
-0.0699847
-0.0742032
-0.0536898
-0.0214804
0.0080745
0.0287548
0.0413872
0.048623
0.0526278
0.0548703
0.056089
0.056666
0.056843
0.0567706
0.0565387
0.0562032
0.0557999
0.0553519
0.054874
0.0543755
0.0538627
0.0533394
0.0528081
0.0522704
0.0517272
0.0511791
0.0506266
0.0500698
0.0495088
0.0489438
0.0483747
0.0478016
0.0472244
0.0466431
0.0460578
0.0454683
0.0448746
0.0442768
0.0436748
0.0430686
0.0424581
0.0418433
0.0412242
0.0406008
0.039973
0.0393407
0.0387041
0.0380629
0.0374172
0.036767
0.0361122
0.0354529
0.0347889
0.0341202
0.0334469
0.0327688
0.0320859
0.0313983
0.0307058
0.0300084
0.0293062
0.028599
0.0278869
0.0271697
0.0264475
0.0257202
0.0249879
0.0242503
0.0235076
0.0227597
0.0220065
0.021248
0.0204842
0.019715
0.0189405
0.0181605
0.017375
0.016584
0.0157874
0.0149852
0.0141775
0.013364
0.0125448
0.0117198
0.0108891
0.0100524
0.00921014
0.00836141
0.0075075
0.00664671
0.00578057
0.0049083
0.00402887
0.00314526
0.00225346
0.00135594
0.000453271
-0.0747488
-0.0657811
-0.0537568
-0.0626563
-0.0678286
-0.0534245
-0.0248751
0.00531416
0.0273553
0.0405763
0.0481486
0.0523594
0.0547048
0.0559812
0.0565962
0.0567978
0.0567411
0.0565196
0.056191
0.0557922
0.0553471
0.0548709
0.0543737
0.0538616
0.0533387
0.0528077
0.0522701
0.051727
0.051179
0.0506265
0.0500698
0.0495088
0.0489438
0.0483747
0.0478016
0.0472244
0.0466431
0.0460578
0.0454683
0.0448746
0.0442768
0.0436748
0.0430686
0.0424581
0.0418433
0.0412242
0.0406008
0.039973
0.0393407
0.0387041
0.0380629
0.0374172
0.036767
0.0361122
0.0354529
0.0347889
0.0341202
0.0334469
0.0327688
0.0320859
0.0313983
0.0307058
0.0300084
0.0293062
0.028599
0.0278869
0.0271697
0.0264475
0.0257202
0.0249879
0.0242503
0.0235076
0.0227597
0.0220065
0.021248
0.0204842
0.019715
0.0189405
0.0181605
0.017375
0.016584
0.0157874
0.0149852
0.0141775
0.013364
0.0125448
0.0117198
0.0108891
0.0100524
0.00921014
0.00836141
0.0075075
0.00664671
0.00578057
0.0049083
0.00402887
0.00314525
0.00225346
0.00135593
0.000453267
-0.0725305
-0.0658004
-0.0525764
-0.0560822
-0.0619172
-0.0534814
-0.0284588
0.0025744
0.0259334
0.0398796
0.047755
0.0521433
0.0545732
0.0558953
0.0565405
0.0567616
0.0567174
0.0565042
0.0561811
0.0557859
0.0553431
0.0548685
0.0543722
0.0538606
0.0533382
0.0528074
0.0522699
0.0517269
0.051179
0.0506265
0.0500697
0.0495088
0.0489438
0.0483747
0.0478016
0.0472244
0.0466431
0.0460577
0.0454683
0.0448746
0.0442769
0.0436749
0.0430686
0.0424581
0.0418433
0.0412242
0.0406008
0.039973
0.0393407
0.0387041
0.0380629
0.0374172
0.036767
0.0361122
0.0354529
0.0347889
0.0341202
0.0334469
0.0327688
0.0320859
0.0313983
0.0307058
0.0300084
0.0293062
0.028599
0.0278869
0.0271697
0.0264475
0.0257202
0.0249879
0.0242503
0.0235076
0.0227597
0.0220065
0.021248
0.0204842
0.019715
0.0189405
0.0181605
0.017375
0.016584
0.0157874
0.0149852
0.0141775
0.013364
0.0125448
0.0117198
0.0108891
0.0100524
0.00921014
0.00836141
0.0075075
0.00664671
0.00578056
0.0049083
0.00402887
0.00314525
0.00225347
0.00135593
0.000453263
-0.0706936
-0.0655328
-0.0514826
-0.0502868
-0.0564711
-0.0536141
-0.0318282
4.27423e-05
0.0248437
0.0393299
0.0474596
0.0519876
0.0544794
0.055833
0.0564996
0.0567346
0.0566996
0.0564926
0.0561737
0.0557812
0.0553402
0.0548667
0.0543711
0.05386
0.0533378
0.0528071
0.0522698
0.0517268
0.0511789
0.0506265
0.0500697
0.0495088
0.0489438
0.0483747
0.0478016
0.0472244
0.0466431
0.0460577
0.0454683
0.0448746
0.0442769
0.0436749
0.0430686
0.0424581
0.0418433
0.0412242
0.0406008
0.039973
0.0393407
0.0387041
0.0380629
0.0374172
0.036767
0.0361122
0.0354529
0.0347889
0.0341202
0.0334469
0.0327688
0.0320859
0.0313983
0.0307058
0.0300084
0.0293062
0.028599
0.0278869
0.0271697
0.0264475
0.0257202
0.0249879
0.0242503
0.0235076
0.0227597
0.0220065
0.021248
0.0204842
0.019715
0.0189405
0.0181605
0.017375
0.016584
0.0157874
0.0149852
0.0141775
0.013364
0.0125448
0.0117198
0.0108891
0.0100524
0.00921014
0.00836141
0.0075075
0.00664671
0.00578056
0.00490831
0.00402886
0.00314525
0.00225348
0.00135593
0.000453257
-0.0691969
-0.0651094
-0.0504264
-0.0454481
-0.0517461
-0.0535485
-0.0343628
-0.0017887
0.0240143
0.0389423
0.0472665
0.0518908
0.0544219
0.0557935
0.056473
0.056717
0.0566878
0.0564849
0.0561687
0.0557781
0.0553383
0.0548655
0.0543703
0.0538596
0.0533375
0.052807
0.0522697
0.0517268
0.0511789
0.0506265
0.0500697
0.0495088
0.0489438
0.0483747
0.0478016
0.0472244
0.0466431
0.0460577
0.0454683
0.0448746
0.0442769
0.0436749
0.0430686
0.0424581
0.0418433
0.0412242
0.0406008
0.039973
0.0393407
0.0387041
0.0380629
0.0374172
0.036767
0.0361122
0.0354529
0.0347889
0.0341202
0.0334469
0.0327688
0.0320859
0.0313983
0.0307058
0.0300084
0.0293062
0.028599
0.0278869
0.0271697
0.0264475
0.0257202
0.0249879
0.0242503
0.0235076
0.0227597
0.0220065
0.021248
0.0204842
0.019715
0.0189405
0.0181605
0.017375
0.016584
0.0157874
0.0149852
0.0141775
0.013364
0.0125448
0.0117198
0.0108891
0.0100524
0.00921014
0.00836141
0.0075075
0.00664671
0.00578056
0.00490831
0.00402886
0.00314525
0.00225348
0.00135593
0.000453252
-0.0680625
-0.0646433
-0.0494221
-0.0420371
-0.0483126
-0.0530885
-0.0355408
-0.00278392
0.0234754
0.0387015
0.0471579
0.0518402
0.0543928
0.0557726
0.0564585
0.0567072
0.0566812
0.0564805
0.0561659
0.0557763
0.0553372
0.0548649
0.05437
0.0538593
0.0533374
0.0528069
0.0522697
0.0517268
0.0511789
0.0506265
0.0500697
0.0495088
0.0489438
0.0483747
0.0478016
0.0472244
0.0466431
0.0460577
0.0454683
0.0448746
0.0442769
0.0436749
0.0430686
0.0424581
0.0418433
0.0412242
0.0406008
0.039973
0.0393407
0.0387041
0.0380629
0.0374172
0.036767
0.0361122
0.0354529
0.0347889
0.0341202
0.0334469
0.0327688
0.0320859
0.0313983
0.0307058
0.0300084
0.0293062
0.028599
0.0278869
0.0271697
0.0264475
0.0257202
0.0249879
0.0242503
0.0235076
0.0227597
0.0220065
0.021248
0.0204842
0.019715
0.0189405
0.0181605
0.017375
0.016584
0.0157874
0.0149852
0.0141775
0.013364
0.0125448
0.0117198
0.0108891
0.0100524
0.00921014
0.00836142
0.0075075
0.00664671
0.00578056
0.00490831
0.00402886
0.00314525
0.00225349
0.00135593
0.000453245
-0.0674321
-0.0641873
-0.0488581
-0.0405095
-0.0465839
-0.0524036
-0.0351558
-0.00303245
0.0231925
0.0385584
0.0470964
0.0518117
0.0543776
0.055762
0.0564512
0.0567024
0.0566781
0.0564784
0.0561646
0.0557755
0.0553367
0.0548646
0.0543698
0.0538593
0.0533374
0.0528069
0.0522697
0.0517268
0.0511789
0.0506265
0.0500697
0.0495088
0.0489438
0.0483747
0.0478016
0.0472244
0.0466431
0.0460577
0.0454683
0.0448746
0.0442769
0.0436749
0.0430686
0.0424581
0.0418433
0.0412242
0.0406008
0.039973
0.0393407
0.0387041
0.0380629
0.0374172
0.036767
0.0361122
0.0354529
0.0347889
0.0341202
0.0334469
0.0327688
0.0320859
0.0313983
0.0307058
0.0300084
0.0293062
0.028599
0.0278869
0.0271697
0.0264475
0.0257202
0.0249879
0.0242503
0.0235076
0.0227597
0.0220065
0.021248
0.0204842
0.019715
0.0189405
0.0181605
0.017375
0.016584
0.0157874
0.0149852
0.0141775
0.013364
0.0125448
0.0117198
0.0108891
0.0100524
0.00921013
0.00836142
0.0075075
0.00664671
0.00578056
0.00490831
0.00402886
0.00314524
0.00225349
0.00135592
0.00045324
-0.0674032
-0.0639174
-0.0489554
-0.0409846
-0.046474
-0.0520411
-0.0345052
-0.00286051
0.0231154
0.0384993
0.0470749
0.0518032
0.0543748
0.0557608
0.0564504
0.0567021
0.056678
0.0564784
0.0561646
0.0557756
0.0553368
0.0548646
0.0543699
0.0538593
0.0533374
0.0528069
0.0522697
0.0517268
0.0511789
0.0506265
0.0500697
0.0495088
0.0489438
0.0483747
0.0478016
0.0472244
0.0466431
0.0460577
0.0454683
0.0448746
0.0442769
0.0436749
0.0430686
0.0424581
0.0418433
0.0412242
0.0406008
0.039973
0.0393407
0.0387041
0.0380629
0.0374172
0.036767
0.0361123
0.0354529
0.0347889
0.0341202
0.0334469
0.0327688
0.0320859
0.0313983
0.0307058
0.0300084
0.0293062
0.028599
0.0278869
0.0271697
0.0264475
0.0257202
0.0249879
0.0242503
0.0235076
0.0227597
0.0220065
0.021248
0.0204842
0.019715
0.0189405
0.0181605
0.017375
0.016584
0.0157874
0.0149852
0.0141775
0.013364
0.0125448
0.0117198
0.0108891
0.0100524
0.00921013
0.00836142
0.00750749
0.00664671
0.00578057
0.0049083
0.00402887
0.00314524
0.00225349
0.00135593
0.000453237
-0.054963
-0.0759062
-0.119957
-0.12814
-0.0908616
-0.0268246
0.0272863
0.0558332
0.0678951
0.0704458
0.0691084
0.0666625
0.0642623
0.0622573
0.0606682
0.0594177
0.0584152
0.0575829
0.0568627
0.0562143
0.055611
0.0550351
0.0544752
0.053924
0.0533769
0.0528309
0.0522841
0.0517354
0.051184
0.0506295
0.0500715
0.0495098
0.0489444
0.048375
0.0478018
0.0472245
0.0466432
0.0460578
0.0454683
0.0448747
0.0442768
0.0436748
0.0430686
0.0424581
0.0418433
0.0412242
0.0406008
0.039973
0.0393407
0.038704
0.0380629
0.0374172
0.036767
0.0361122
0.0354529
0.0347889
0.0341202
0.0334469
0.0327688
0.0320859
0.0313983
0.0307058
0.0300084
0.0293062
0.028599
0.0278869
0.0271697
0.0264475
0.0257203
0.0249879
0.0242503
0.0235076
0.0227597
0.0220065
0.021248
0.0204842
0.019715
0.0189405
0.0181605
0.017375
0.016584
0.0157874
0.0149852
0.0141774
0.013364
0.0125448
0.0117198
0.0108891
0.0100524
0.00921013
0.00836142
0.0075075
0.00664672
0.00578057
0.0049083
0.00402887
0.00314524
0.00225349
0.00135593
0.000453238
-0.0541817
-0.0756564
-0.122174
-0.131184
-0.0931354
-0.028067
0.0268679
0.0556502
0.067821
0.0703942
0.0690702
0.0666376
0.0642494
0.0622506
0.0606649
0.0594163
0.0584146
0.0575826
0.0568626
0.0562143
0.055611
0.0550351
0.0544752
0.053924
0.0533769
0.0528309
0.0522841
0.0517354
0.051184
0.0506295
0.0500715
0.0495098
0.0489444
0.048375
0.0478018
0.0472245
0.0466432
0.0460578
0.0454683
0.0448747
0.0442768
0.0436748
0.0430686
0.0424581
0.0418433
0.0412242
0.0406008
0.039973
0.0393407
0.038704
0.0380629
0.0374172
0.036767
0.0361122
0.0354529
0.0347889
0.0341202
0.0334469
0.0327688
0.0320859
0.0313983
0.0307058
0.0300084
0.0293062
0.028599
0.0278869
0.0271697
0.0264475
0.0257203
0.0249879
0.0242503
0.0235076
0.0227597
0.0220065
0.021248
0.0204842
0.019715
0.0189405
0.0181605
0.017375
0.016584
0.0157874
0.0149852
0.0141774
0.013364
0.0125448
0.0117198
0.0108891
0.0100524
0.00921014
0.00836142
0.00750751
0.00664672
0.00578057
0.00490831
0.00402886
0.00314524
0.00225349
0.00135592
0.000453241
-0.0518926
-0.0758015
-0.127221
-0.137489
-0.0975108
-0.0306093
0.0260419
0.0552228
0.0676269
0.0702548
0.0689611
0.0665598
0.0641994
0.0622205
0.060647
0.059406
0.0584088
0.0575793
0.0568607
0.0562133
0.0556105
0.0550348
0.0544751
0.0539239
0.0533769
0.0528309
0.0522841
0.0517354
0.051184
0.0506295
0.0500715
0.0495098
0.0489444
0.048375
0.0478018
0.0472245
0.0466432
0.0460578
0.0454683
0.0448747
0.0442768
0.0436748
0.0430686
0.0424581
0.0418433
0.0412242
0.0406008
0.039973
0.0393407
0.038704
0.0380629
0.0374172
0.036767
0.0361122
0.0354529
0.0347889
0.0341202
0.0334469
0.0327688
0.0320859
0.0313983
0.0307058
0.0300084
0.0293062
0.028599
0.0278869
0.0271697
0.0264475
0.0257203
0.0249879
0.0242503
0.0235076
0.0227597
0.0220065
0.021248
0.0204842
0.019715
0.0189405
0.0181605
0.017375
0.016584
0.0157874
0.0149852
0.0141774
0.013364
0.0125448
0.0117198
0.0108891
0.0100524
0.00921014
0.00836142
0.00750751
0.00664672
0.00578057
0.00490831
0.00402886
0.00314524
0.00225349
0.00135593
0.000453247
-0.0499993
-0.0763841
-0.134416
-0.146659
-0.103951
-0.0344675
0.0247457
0.0544291
0.0672403
0.069989
0.0687611
0.0664187
0.064107
0.062163
0.0606126
0.0593858
0.0583971
0.0575727
0.0568569
0.0562111
0.0556092
0.0550341
0.0544746
0.0539237
0.0533767
0.0528308
0.0522841
0.0517354
0.051184
0.0506295
0.0500715
0.0495098
0.0489444
0.048375
0.0478018
0.0472245
0.0466432
0.0460578
0.0454683
0.0448747
0.0442768
0.0436748
0.0430686
0.0424581
0.0418433
0.0412242
0.0406008
0.039973
0.0393407
0.038704
0.0380629
0.0374172
0.036767
0.0361122
0.0354529
0.0347889
0.0341202
0.0334469
0.0327688
0.0320859
0.0313983
0.0307058
0.0300084
0.0293062
0.028599
0.0278869
0.0271697
0.0264475
0.0257203
0.0249879
0.0242503
0.0235076
0.0227597
0.0220065
0.021248
0.0204842
0.019715
0.0189405
0.0181605
0.017375
0.016584
0.0157874
0.0149852
0.0141775
0.013364
0.0125448
0.0117198
0.0108891
0.0100524
0.00921014
0.00836142
0.00750751
0.00664672
0.00578057
0.00490831
0.00402886
0.00314524
0.00225348
0.00135593
0.000453253
-0.048583
-0.077411
-0.14318
-0.158313
-0.112529
-0.0395286
0.0229549
0.0532912
0.066664
0.0696013
0.0684777
0.0662205
0.0639757
0.0620796
0.0605612
0.0593549
0.0583787
0.0575618
0.0568505
0.0562073
0.055607
0.0550328
0.0544739
0.0539233
0.0533765
0.0528307
0.052284
0.0517354
0.051184
0.0506295
0.0500715
0.0495098
0.0489444
0.048375
0.0478018
0.0472245
0.0466432
0.0460578
0.0454683
0.0448747
0.0442768
0.0436748
0.0430686
0.0424581
0.0418433
0.0412242
0.0406008
0.039973
0.0393407
0.038704
0.0380629
0.0374172
0.036767
0.0361122
0.0354529
0.0347889
0.0341202
0.0334469
0.0327688
0.0320859
0.0313983
0.0307058
0.0300084
0.0293062
0.028599
0.0278869
0.0271697
0.0264475
0.0257203
0.0249879
0.0242503
0.0235076
0.0227597
0.0220065
0.021248
0.0204842
0.019715
0.0189405
0.0181605
0.017375
0.016584
0.0157874
0.0149852
0.0141775
0.013364
0.0125448
0.0117198
0.0108891
0.0100524
0.00921014
0.00836142
0.00750751
0.00664672
0.00578057
0.00490831
0.00402886
0.00314524
0.00225347
0.00135593
0.000453259
-0.0478513
-0.0787718
-0.153178
-0.172194