/*--------------------------------*- C++ -*----------------------------------*\
| =========                 |                                                 |
| \\      /  F ield         | OpenFOAM: The Open Source CFD Toolbox           |
|  \\    /   O peration     | Version:  2.4.0                                 |
|   \\  /    A nd           | Web:      www.OpenFOAM.org                      |
|    \\/     M anipulation  |                                                 |
\*---------------------------------------------------------------------------*/
FoamFile
{
    version     2.0;
    format      ascii;
    class       volScalarField;
    location    "0.48";
    object      p;
}
// * * * * * * * * * * * * * * * * * * * * * * * * * * * * * * * * * * * * * //

dimensions      [0 2 -2 0 0 0 0];

internalField   nonuniform List<scalar> 
8800
(
61.4237
49.072
41.6789
38.1459
36.2533
34.854
33.6617
32.552
31.5195
30.5684
29.6333
28.6638
27.7941
26.9335
26.0684
25.2482
24.5235
23.8723
23.1904
22.6686
58.3108
48.7182
41.8487
38.26
36.3127
34.879
33.6693
32.5531
31.5164
30.5662
29.6325
28.6599
27.7909
26.9332
26.066
25.2442
24.5233
23.8692
23.1913
22.5951
56.3437
48.7955
42.4525
38.6363
36.4799
34.9573
33.7155
32.5853
31.5401
30.5845
29.6436
28.6634
27.7925
26.932
26.0634
25.2343
24.5231
23.8594
23.2532
22.632
54.8085
48.8565
43.0406
39.0606
36.6642
35.0441
33.7769
32.6401
31.5887
30.6234
29.6716
28.6826
27.8043
26.9342
26.0627
25.2256
24.5131
23.8463
23.3243
22.8606
53.5568
48.8302
43.5199
39.4703
36.8335
35.1095
33.8233
32.6962
31.6483
30.6728
29.7043
28.7153
27.8188
26.9417
26.0587
25.2245
24.4872
23.829
23.2468
23.1796
52.5741
48.7305
43.8891
39.8191
36.9882
35.1528
33.8489
32.74
31.7011
30.7215
29.7402
28.7489
27.834
26.9425
26.0564
25.2242
24.4618
23.8127
23.2571
23.6807
51.8151
48.6194
44.1567
40.1042
37.1278
35.1822
33.8532
32.7735
31.747
30.7589
29.7697
28.7784
27.8475
26.9448
26.052
25.2193
24.4519
23.8043
23.3597
23.9777
51.2659
48.5184
44.341
40.3174
37.2554
35.2003
33.8525
32.7903
31.7796
30.7912
29.7944
28.7996
27.8571
26.942
26.0523
25.2187
24.4446
23.8203
23.4402
24.1982
50.9085
48.4428
44.4573
40.4608
37.3432
35.2128
33.8446
32.8046
31.8025
30.8112
29.8093
28.8153
27.8641
26.9425
26.0516
25.2211
24.4528
23.831
23.5137
24.3285
50.7335
48.4031
44.5121
40.5342
37.3869
35.2189
33.8429
32.8067
31.8179
30.8229
29.8172
28.8248
27.8678
26.9422
26.0569
25.2305
24.46
23.8467
23.5621
24.4152
50.7344
48.3991
44.514
40.5324
37.3872
35.2186
33.8413
32.8087
31.8184
30.8225
29.816
28.8281
27.8714
26.9408
26.0637
25.2411
24.4748
23.8581
23.5891
24.4579
50.9075
48.4433
44.4563
40.4605
37.3413
35.2148
33.8453
32.8018
31.8098
30.8111
29.8061
28.829
27.8706
26.9436
26.0753
25.2578
24.4878
23.8727
23.5989
24.451
51.2669
48.5161
44.3441
40.3136
37.2554
35.2046
33.8492
32.7916
31.7905
30.7888
29.788
28.8207
27.8725
26.9466
26.086
25.2792
24.5084
23.8923
23.5763
24.3994
51.8154
48.6194
44.1566
40.1003
37.1277
35.1898
33.8534
32.7678
31.7627
30.7571
29.76
28.8114
27.8669
26.9493
26.1041
25.3033
24.5346
23.9148
23.5519
24.2548
52.5748
48.7296
43.89
39.8148
36.9888
35.1625
33.8425
32.7381
31.7248
30.7143
29.7287
28.79
27.8617
26.9499
26.1162
25.3335
24.5712
23.9493
23.5324
24.0259
53.5578
48.8297
43.5198
39.4653
36.8352
35.1193
33.8185
32.6913
31.6779
30.6654
29.688
28.7688
27.8546
26.9414
26.1345
25.3611
24.6125
23.9923
23.5498
23.7291
54.808
48.8562
43.0412
39.057
36.6656
35.0551
33.7683
32.6356
31.6262
30.6139
29.6515
28.7442
27.8463
26.9362
26.1464
25.3793
24.6574
24.0357
23.5987
23.4336
56.3446
48.7946
42.4529
38.632
36.4819
34.9683
33.7079
32.5802
31.5789
30.5754
29.6245
28.7268
27.8414
26.9333
26.1551
25.3934
24.6894
24.0688
23.6523
23.2808
58.3114
48.7167
41.8498
38.2563
36.3147
34.8896
33.662
32.5485
31.5548
30.5584
29.6153
28.7218
27.8408
26.938
26.1616
25.402
24.705
24.089
23.6441
23.198
61.4251
49.0706
41.6798
38.1421
36.2557
34.8636
33.6547
32.5489
31.5557
30.5608
29.6195
28.7236
27.8422
26.9419
26.165
25.4039
24.7091
24.0947
23.6438
23.318
22.8942
22.9472
22.8833
22.7158
22.4866
22.2426
22.0248
21.8644
21.782
21.799
21.9089
22.0925
22.3152
22.5248
22.7086
22.8518
22.9836
23.1094
23.2439
23.4038
23.564
23.6978
23.7144
23.6155
23.4256
23.1587
22.8598
22.541
22.2147
21.8761
21.5061
21.1337
20.7781
20.446
20.166
19.9215
19.7188
19.59
19.5126
19.4649
19.468
19.5047
19.5479
19.553
19.5317
19.4385
19.2501
18.9289
18.5035
18.0058
17.4571
16.8762
16.3021
15.7197
15.2191
14.7556
14.3866
14.1022
13.8965
13.7333
13.5585
13.4505
13.148
12.9125
12.4572
12.0781
11.6863
11.2855
10.9968
10.5142
10.2049
9.61925
9.06211
8.49138
7.8613
7.54929
7.25984
7.47255
7.99715
9.08462
10.7067
12.9466
15.9061
19.3527
22.998
26.5895
30.106
33.2443
35.8954
37.5072
38.1225
37.7268
36.4878
34.7242
32.4985
30.0243
27.4325
24.8194
22.3083
19.8426
17.5184
15.3832
13.456
11.7304
10.306
9.2185
8.1674
7.40846
6.93779
6.56753
6.3916
6.41255
6.51122
6.80913
7.21819
7.8155
8.44035
9.24916
10.1951
11.3499
12.5123
13.7127
15.0253
16.3536
17.5027
18.7825
19.8631
20.7879
21.6341
22.4749
23.2276
23.8836
24.6877
25.3057
26.042
26.4454
26.6575
26.5052
26.0156
25.4336
24.2254
22.5083
20.3514
17.8187
15.1768
12.4412
9.64987
7.19611
5.20875
3.80603
3.05414
2.9311
3.47652
4.53218
6.10127
8.20711
10.4767
12.8927
15.4368
17.7992
20.1694
22.2982
24.1158
25.6464
26.9934
28.0579
28.6716
29.186
29.1481
28.7808
28.1171
26.776
25.4094
23.8089
22.0046
19.8147
17.1074
14.8268
12.5853
10.6924
9.12306
7.87291
7.03229
6.00649
5.92538
5.2823
6.61641
7.05721
9.22771
10.5927
12.9469
14.9873
18.3335
21.9776
27.874
32.5197
38.403
41.9984
45.4191
38.4454
22.6756
22.7515
22.7844
22.6866
22.4699
22.2156
22.0009
21.8643
21.8059
21.8361
21.9434
22.1088
22.3175
22.5092
22.6899
22.8384
22.9669
23.0955
23.2118
23.3456
23.4797
23.5904
23.6328
23.5705
23.3998
23.155
22.8665
22.5453
22.2183
21.8736
21.5083
21.154
20.8127
20.4934
20.2131
19.9647
19.76
19.5992
19.5056
19.4558
19.4346
19.445
19.4572
19.4443
19.3966
19.2837
19.0962
18.7758
18.3852
17.8926
17.3941
16.8361
16.3024
15.77
15.2542
14.8506
14.4425
14.2013
13.9327
13.7988
13.5935
13.4488
13.2005
12.9205
12.5846
12.1598
11.8538
11.435
11.1635
10.7686
10.402
9.97952
9.39609
8.93756
8.42257
8.1274
8.01202
8.19097
8.77235
9.79686
11.3965
13.5775
16.3091
19.3748
22.7131
26.099
29.4672
32.4024
34.6781
36.1507
36.7634
36.6098
35.5463
33.9798
32.0216
29.6846
27.331
24.9023
22.4845
20.258
18.025
16.0318
14.2177
12.5714
11.212
10.0882
9.21656
8.52241
8.07355
7.74536
7.60706
7.65083
7.83953
8.15591
8.64238
9.25407
10.0135
10.8945
11.8275
12.9836
14.1129
15.1965
16.3931
17.549
18.5417
19.541
20.3564
21.2261
21.9126
22.6522
23.2804
23.9007
24.4994
25.2119
25.9998
26.4179
26.5594
26.3676
25.9855
25.3582
24.0105
22.0994
19.6333
16.7978
13.7685
10.4712
7.18679
4.10877
1.65247
-0.136366
-1.34797
-1.62205
-1.16002
-0.228768
1.11825
3.19892
5.71756
8.33739
11.1472
14.1692
17.0331
19.4708
21.6471
23.6226
25.2915
26.5544
27.5912
28.3665
28.6822
28.5209
28.0204
27.0139
25.6038
24.3845
22.3429
20.5193
18.2918
16.1928
14.0945
12.1042
10.8348
9.24672
8.59121
7.31333
7.45627
6.87246
7.95098
8.4257
10.0367
11.5076
13.3771
15.6505
18.1237
21.7413
25.5756
29.6709
33.6144
35.5059
34.3848
31.1835
22.5847
22.714
22.8507
22.7857
22.5276
22.2154
21.9732
21.8445
21.81
21.8644
21.9804
22.1365
22.3353
22.5055
22.6789
22.8167
22.9362
23.0617
23.164
23.2798
23.3855
23.4635
23.4849
23.4422
23.3023
23.0897
22.8329
22.5151
22.2006
21.8579
21.5025
21.1784
20.8347
20.5382
20.257
20.0076
19.8087
19.6335
19.5107
19.4455
19.4059
19.3838
19.3797
19.3328
19.2659
19.1244
18.9402
18.6383
18.2797
17.8179
17.3373
16.8324
16.3183
15.8537
15.3456
14.9837
14.5693
14.3369
14.0628
13.8841
13.7084
13.4947
13.3156
12.9999
12.7517
12.3452
12.0356
11.6897
11.3599
11.0767
10.6863
10.3441
9.85383
9.42562
9.05307
8.80464
8.8218
9.03533
9.64374
10.685
12.2073
14.2366
16.6833
19.5011
22.6257
25.6758
28.5414
31.046
33.0579
34.4738
35.1111
35.0798
34.2244
32.8744
31.2127
29.2443
27.1394
24.9954
22.7368
20.7104
18.6601
16.7689
15.1206
13.5663
12.33
11.387
10.5611
9.94461
9.50639
9.24198
9.16583
9.25505
9.5483
9.92065
10.5161
11.1077
11.9609
12.8637
13.7316
14.7893
15.7692
16.7247
17.7518
18.6316
19.498
20.2152
20.8781
21.661
22.1322
22.7328
23.2785
23.8205
24.3716
25.2471
26.0884
26.5166
26.6709
26.5809
26.4345
25.7761
24.4936
22.4054
19.648
16.6178
13.1891
9.19435
5.43295
1.90528
-1.02476
-3.24406
-4.71284
-5.32457
-5.1566
-4.35386
-3.00852
-1.1317
1.23723
4.10836
7.24789
10.4749
13.6741
16.8112
19.4114
21.7902
23.7667
25.3514
26.7435
27.7858
28.3223
28.6407
28.2379
27.6778
26.3955
25.0795
23.3376
21.4626
19.7384
17.4126
15.8353
13.8134
12.6607
10.8739
10.1297
9.27379
9.13474
8.90348
9.21734
10.1875
11.0669
12.8641
14.1282
16.462
18.1712
21.4156
23.8209
27.1425
28.5352
29.8486
28.2296
26.1246
22.6841
22.7602
22.7937
22.612
22.2977
22.0036
21.8203
21.7624
21.7905
21.8984
22.0442
22.1934
22.3781
22.5177
22.6732
22.7919
22.8866
23.0023
23.082
23.1629
23.2339
23.2752
23.277
23.2466
23.1361
22.9746
22.7585
22.4638
22.1647
21.8427
21.4938
21.1951
20.857
20.5673
20.3081
20.0506
19.8645
19.6827
19.5358
19.4453
19.3782
19.3279
19.3082
19.2279
19.1504
18.9964
18.8028
18.5375
18.1905
17.7839
17.3117
16.8625
16.3743
15.9574
15.511
15.1502
14.7772
14.5097
14.2722
14.0335
13.8933
13.6454
13.4605
13.2008
12.9313
12.6182
12.281
12.0001
11.6747
11.4088
11.1067
10.7631
10.4028
10.0346
9.76457
9.62176
9.69896
10.0275
10.6626
11.6914
13.1311
14.9764
17.2314
19.7518
22.4067
24.9892
27.3865
29.63
31.4031
32.6236
33.1605
33.1295
32.646
31.5886
30.2407
28.6375
26.867
25.0358
23.091
21.2583
19.5274
17.8057
16.3401
14.9839
13.8789
12.9963
12.2513
11.727
11.3416
11.1728
11.1703
11.3623
11.6342
12.1236
12.7009
13.2715
14.0712
14.9062
15.6871
16.5784
17.4311
18.204
18.9449
19.6595
20.4497
20.9551
21.5289
22.0587
22.3556
22.7405
23.2257
23.6572
24.2524
25.3008
26.2156
26.6756
26.9743
27.1412
27.2118
26.6423
25.4288
23.1798
20.1962
16.9687
12.7659
8.16694
3.87149
-0.160397
-3.58588
-6.09415
-7.88248
-8.68377
-8.59273
-7.96776
-6.50783
-4.63231
-2.34372
0.559226
3.73511
7.18193
10.7027
14.0009
17.2447
20.1303
22.5224
24.659
26.2153
27.6147
28.3057
29.0017
28.8731
28.4899
27.7454
26.1925
24.9798
22.7381
21.3569
19.0964
17.612
15.6311
14.4091
12.9463
12.0197
11.4354
10.794
10.88
11.1474
12.0459
12.7518
14.1145
15.347
17.1174
18.6419
21.336
23.5742
26.4545
27.5694
28.5248
26.4114
24.3543
24.169
23.9069
22.9364
22.1585
21.6645
21.4657
21.4591
21.5791
21.7332
21.9166
22.1043
22.2511
22.4236
22.5408
22.6824
22.7689
22.8239
22.9055
22.952
23.0052
23.0329
23.0566
23.0484
23.0218
22.9282
22.8094
22.6368
22.3809
22.1131
21.8147
21.4898
21.2039
20.8759
20.5929
20.3591
20.0937
19.9215
19.7336
19.5789
19.4716
19.3684
19.3023
19.2513
19.1588
19.0592
18.9054
18.697
18.4608
18.1291
17.7669
17.3512
16.9249
16.5112
16.0971
15.7072
15.3714
15.0197
14.739
14.5031
14.2645
14.1
13.8776
13.6723
13.4546
13.1835
12.926
12.6138
12.3397
12.0817
11.8123
11.5785
11.2867
11.0145
10.7654
10.5718
10.5411
10.6908
11.0883
11.7524
12.7427
14.0751
15.7399
17.713
19.8437
22.0528
24.3009
26.3918
28.2718
29.7632
30.732
31.2528
31.3006
31.0979
30.3279
29.2343
27.9675
26.5534
25.0815
23.4828
21.9425
20.5534
19.0886
17.8127
16.7207
15.7405
14.8703
14.2471
13.8708
13.5569
13.4092
13.4825
13.6833
13.9403
14.4222
14.965
15.4519
16.1549
16.8757
17.5209
18.2325
18.938
19.5857
20.1554
20.7477
21.448
21.8398
22.2643
22.5478
22.6194
22.7429
23.0403
23.3222
24.1052
25.3933
26.3517
26.906
27.3777
27.8109
28.0055
27.6337
26.429
23.9778
20.7874
17.1118
12.046
6.83541
2.10385
-2.50317
-6.32503
-9.24255
-11.1504
-12.0775
-11.906
-11.1882
-9.69326
-7.68376
-5.23993
-2.25303
0.982415
4.45442
8.12904
11.7477
15.3325
18.6455
21.4606
24.1026
25.8838
27.7297
28.7673
29.4165
30.094
29.5589
29.402
27.9428
26.9378
25.0067
23.6688
21.5639
19.8353
18.1025
16.7911
15.3925
14.251
13.7784
13.0963
13.1917
13.343
13.7899
14.2184
15.3417
16.4001
18.1616
19.4019
22.1339
24.1685
26.5272
27.0054
27.55
26.3833
24.2291
25.1985
24.7406
23.1484
21.8948
21.1575
20.9603
21.0809
21.3519
21.6357
21.9062
22.1673
22.3358
22.4869
22.589
22.6915
22.7343
22.7596
22.794
22.8211
22.8365
22.8154
22.8326
22.808
22.7893
22.7119
22.6234
22.4982
22.2832
22.0571
21.782
21.5019
21.213
20.8987
20.6287
20.3904
20.1401
19.9592
19.777
19.6261
19.5121
19.3814
19.2957
19.2182
19.114
19.0051
18.8425
18.6474
18.4145
18.1202
17.7832
17.415
17.0301
16.6369
16.261
15.9094
15.5919
15.2884
15.0099
14.7679
14.5527
14.3537
14.1581
13.9317
13.7418
13.4864
13.2445
13.0014
12.7202
12.5268
12.2995
12.0845
11.888
11.6771
11.533
11.4276
11.4585
11.6975
12.0883
12.7829
13.6935
14.8791
16.3261
17.9728
19.8065
21.7165
23.6646
25.4231
26.9603
28.2382
29.1192
29.6716
29.8332
29.7357
29.1989
28.3497
27.3727
26.3115
25.1491
23.8968
22.6436
21.5774
20.4072
19.3216
18.4783
17.6028
16.8574
16.3387
16.1165
15.8308
15.6864
15.7855
15.9696
16.2177
16.5986
17.1104
17.4791
18.0761
18.6483
19.1741
19.7833
20.3604
20.9791
21.4918
21.9754
22.5334
22.7998
23.0852
23.098
22.8985
22.7559
22.6782
22.8938
24.0123
25.4352
26.4176
27.0482
27.6776
28.2554
28.5939
28.1764
26.8456
24.431
20.9141
16.6739
11.0088
5.45739
0.415602
-4.80485
-8.89503
-12.1324
-14.3017
-15.0576
-15.0258
-14.0741
-12.5288
-10.5627
-7.64797
-4.53894
-1.28984
2.38362
6.14126
9.88286
13.735
17.5925
20.8026
23.8922
26.1094
27.8095
29.4991
30.1138
31.4512
30.9757
31.2977
30.2791
29.4079
27.9201
26.4525
24.7072
22.9054
21.3985
19.7103
18.2961
17.1025
16.5428
15.7177
15.5318
15.4891
15.5468
15.6286
17.0193
18.0157
19.7529
20.6806
22.7785
24.5394
25.9765
26.4333
25.7504
24.9956
22.8292
25.7824
25.3025
23.4303
21.8826
20.9168
20.6401
20.7933
21.1553
21.5349
21.8865
22.2076
22.3954
22.5344
22.6274
22.6978
22.7075
22.6987
22.7052
22.6937
22.6807
22.6294
22.6221
22.6148
22.5611
22.5142
22.4467
22.3454
22.1816
21.9823
21.743
21.4993
21.2185
20.9118
20.6604
20.4178
20.1806
19.9931
19.8186
19.6726
19.5662
19.4159
19.3133
19.2195
19.0897
18.9807
18.7991
18.6183
18.3981
18.1218
17.8194
17.489
17.1461
16.7812
16.4295
16.12
15.8133
15.547
15.2854
15.0385
14.8382
14.6401
14.4389
14.2353
14.041
13.8213
13.5985
13.3793
13.1499
12.9637
12.8044
12.6173
12.4695
12.353
12.2608
12.2284
12.3164
12.5844
12.9906
13.6238
14.4607
15.4387
16.6825
18.0898
19.6726
21.3441
22.9421
24.464
25.789
26.9541
27.8344
28.3924
28.6933
28.56
28.2404
27.6375
26.9186
26.1725
25.2728
24.2969
23.342
22.4851
21.6017
20.7253
20.0412
19.3304
18.7289
18.3647
18.1641
17.9697
17.8117
17.9428
18.0939
18.2697
18.6083
19.0023
19.2936
19.7985
20.2738
20.7717
21.3356
21.8305
22.416
22.8838
23.3051
23.6783
23.8138
23.9002
23.6575
23.208
22.7589
22.2454
22.4543
23.8368
25.3254
26.3275
27.0483
27.6578
28.275
28.4405
27.8098
26.4612
24.148
20.3208
15.7168
9.73822
4.4288
-0.943635
-6.60943
-10.8859
-14.5674
-16.6328
-17.4367
-17.5952
-16.6144
-14.9245
-12.7335
-9.7136
-6.38397
-2.97979
0.763086
4.66824
8.60223
12.6754
16.7249
20.4514
23.7356
26.6576
28.3881
30.5668
31.2833
32.8192
32.957
33.3856
32.806
32.1432
31.0719
29.6003
28.0482
26.1438
24.7293
23.0218
21.6063
20.2818
19.3921
18.3817
17.9903
17.9228
17.8276
17.6983
18.8065
19.738
20.9487
21.8306
23.1249
24.4606
24.997
25.4938
24.6627
23.8734
22.373
26.1107
25.654
23.688
21.9795
20.8684
20.4809
20.5985
20.9864
21.4308
21.8361
22.2125
22.4229
22.5657
22.6682
22.6988
22.6757
22.6293
22.6104
22.562
22.5335
22.4614
22.449
22.4434
22.3636
22.3452
22.2856
22.206
22.0865
21.9018
21.7103
21.4969
21.2297
20.9329
20.6981
20.4528
20.2117
20.0268
19.8341
19.7089
19.5981
19.4367
19.3459
19.2237
19.1009
18.9717
18.7882
18.613
18.3998
18.1436
17.8679
17.5641
17.2603
16.9184
16.5955
16.298
16.0213
15.7767
15.5359
15.3201
15.1084
14.9402
14.7292
14.541
14.3581
14.1496
13.9619
13.7482
13.5781
13.4129
13.2788
13.1682
13.0259
12.9926
12.9437
12.933
13.0842
13.3141
13.7175
14.2567
14.9901
15.8301
16.8909
18.1326
19.4412
20.8763
22.2277
23.5771
24.822
25.8399
26.7049
27.2634
27.5667
27.5897
27.413
27.0822
26.5634
26.0657
25.4295
24.6699
23.99
23.3123
22.6653
21.9538
21.445
20.9411
20.4719
20.2167
20.0295
19.8954
19.7578
19.8818
19.9784
20.1265
20.4322
20.7181
21.0259
21.4271
21.8746
22.3558
22.9151
23.3426
23.8546
24.2355
24.6112
24.8193
24.8364
24.6727
24.1588
23.4222
22.6691
21.8023
22.0399
23.5071
25.0315
26.0293
26.8324
27.2366
27.3063
27.1223
26.4539
25.0165
22.786
19.175
14.4205
8.62508
3.94418
-2.07608
-7.63363
-12.1868
-16.2681
-18.1461
-19.3381
-19.5685
-18.643
-16.9515
-14.382
-11.2663
-7.8123
-4.13618
-0.291858
3.52493
7.94654
12.271
16.3593
20.6648
23.9802
27.2533
29.2359
31.6407
32.947
34.3524
34.9915
35.5482
35.3504
34.845
33.97
32.5593
31.2698
29.5454
28.1078
26.3934
24.7879
23.4046
22.4481
21.4575
21.0103
20.6631
20.4546
20.2174
20.6792
21.3407
21.9455
22.7673
23.4448
24.3508
24.331
24.6223
23.7399
22.7095
21.7769
26.3048
25.8944
23.8841
22.0887
20.8873
20.402
20.4853
20.8689
21.3563
21.802
22.1964
22.4349
22.5805
22.6731
22.6815
22.6303
22.571
22.5402
22.4594
22.4141
22.3306
22.3011
22.3012
22.1921
22.1976
22.1454
22.0672
21.9991
21.8055
21.6744
21.4792
21.2204
20.9552
20.7189
20.4849
20.2416
20.0658
19.8549
19.756
19.6294
19.4698
19.3887
19.2322
19.1211
18.9693
18.7777
18.6206
18.408
18.1701
17.9145
17.6461
17.3693
17.0506
16.7637
16.4648
16.2253
15.9907
15.7689
15.5829
15.3786
15.2145
15.029
14.8402
14.6818
14.4928
14.3237
14.1426
13.9922
13.87
13.7381
13.6894
13.566
13.5556
13.5691
13.5435
13.7193
13.9265
14.2592
14.7655
15.3574
16.13
17.0216
18.0803
19.1891
20.3921
21.6276
22.7588
23.9059
24.7985
25.595
26.2022
26.5118
26.7267
26.7183
26.5829
26.2798
25.9594
25.5892
25.0326
24.5589
24.1051
23.5746
23.131
22.7445
22.4317
22.0806
21.8649
21.7441
21.6098
21.5711
21.6236
21.7275
21.8451
22.1346
22.3872
22.6934
23.0601
23.4681
23.8868
24.3972
24.7854
25.1907
25.5144
25.8092
25.9732
25.8322
25.4425
24.6172
23.4948
22.3113
21.2514
21.4441
22.9569
24.5306
25.6073
26.0977
25.8799
25.3954
24.7252
23.8073
22.6495
20.6176
17.468
13.0111
7.92092
3.62254
-3.02444
-7.90828
-12.9822
-16.7107
-18.7887
-20.2473
-20.6625
-19.8119
-18.1683
-15.5824
-12.2721
-8.71598
-4.92149
-0.998488
2.93841
7.28261
12.2325
16.4561
21.4265
24.5623
28.0962
30.5518
32.8535
34.6425
36.0765
37.0708
37.5252
37.4275
37.2113
36.6608
35.3986
34.2348
32.7598
31.302
29.8122
28.3183
26.9692
25.9036
24.6686
23.8941
23.1506
22.7553
22.6003
22.6624
22.7753
22.8776
23.1974
23.4015
23.9236
23.7578
23.979
23.1142
21.9376
21.3124
26.4019
26.0209
23.9994
22.1592
20.923
20.3842
20.4532
20.8217
21.3303
21.7887
22.1822
22.4479
22.581
22.6709
22.6521
22.5814
22.5111
22.4527
22.3579
22.2957
22.22
22.1768
22.1912
22.0554
22.0694
22.0379
21.941
21.9108
21.7205
21.6208
21.4589
21.1996
20.9721
20.743
20.5161
20.2804
20.0965
19.8872
19.7872
19.6621
19.4924
19.4225
19.2612
19.1441
19.0108
18.7878
18.641
18.4338
18.2048
17.9619
17.7364
17.4614
17.1873
16.9134
16.6298
16.4079
16.1878
15.9893
15.814
15.651
15.473
15.3308
15.1508
14.9932
14.8537
14.6764
14.5372
14.4149
14.2971
14.2128
14.1548
14.0859
14.0724
14.1087
14.1084
14.2389
14.4503
14.7004
15.166
15.6645
16.3269
17.1025
17.9319
18.9238
19.9276
21.0032
21.9926
22.9701
23.8207
24.5327
25.222
25.6026
25.9057
26.1275
26.1161
26.0399
25.9035
25.7209
25.403
25.1114
24.861
24.4851
24.248
24.0225
23.7925
23.5524
23.3872
23.3328
23.2035
23.2123
23.259
23.372
23.493
23.7736
24.0254
24.2569
24.625
24.9575
25.3493
25.6701
26.079
26.4031
26.6899
26.9337
27.0242
26.7745
26.1278
24.97
23.4166
21.4909
20.0721
20.3187
21.7868
23.2699
24.4016
24.5779
23.5572
22.3841
21.4614
20.4057
19.3614
17.8749
15.2989
11.7076
7.40582
2.85654
-3.00562
-7.73812
-13.0354
-16.3865
-18.6995
-20.1824
-20.8465
-20.0465
-18.7064
-16.3179
-12.7201
-8.79794
-5.05323
-1.68988
3.15358
7.19056
12.811
16.8211
22.2621
25.3593
29.0891
31.6954
34.0988
36.3527
37.8446
38.943
39.4807
39.7472
39.4921
39.0449
38.0434
37.0733
35.9028
34.3739
32.9894
31.4825
29.9604
28.771
27.3557
26.3338
25.3544
24.5327
24.033
23.7723
23.657
23.4048
23.5546
23.5215
23.7321
23.58
23.448
22.5025
21.4581
20.9314
26.435
26.0686
24.0332
22.1937
20.9638
20.4053
20.4755
20.843
21.3493
21.8063
22.1779
22.4527
22.5722
22.6407
22.608
22.5229
22.4545
22.3782
22.2739
22.2004
22.1247
22.0826
22.0831
21.9428
21.9546
21.9397
21.8256
21.8111
21.6352
21.5515
21.4342
21.1662
20.9814
20.7676
20.5446
20.3295
20.1337
19.9291
19.8272
19.6983
19.5258
19.4624
19.2948
19.169
19.0269
18.8126
18.6594
18.475
18.2346
18.024
17.8112
17.5497
17.3197
17.0555
16.8038
16.584
16.3899
16.2002
16.0392
15.9051
15.7343
15.6016
15.4672
15.2905
15.198
15.0436
14.9065
14.8404
14.708
14.6662
14.6027
14.5595
14.5652
14.5853
14.6228
14.7097
14.8987
15.1173
15.4868
15.9261
16.4286
17.0756
17.7464
18.5674
19.4424
20.3068
21.217
22.057
22.8709
23.5829
24.2656
24.7961
25.1665
25.5775
25.7211
25.8126
25.9058
25.8718
25.8001
25.6683
25.5974
25.42
25.3106
25.2337
25.0374
24.9154
24.806
24.7969
24.7205
24.743
24.8463
24.9319
25.1146
25.3168
25.5797
25.7166
26.0387
26.3037
26.6304
26.887
27.142
27.4488
27.6175
27.8216
27.742
27.5313
26.7945
25.1532
23.0463
20.4431
18.2719
18.3059
19.8416
21.3182
22.1964
21.8013
20.2202
18.4628
17.0569
16.2915
15.734
15.0426
13.3313
10.5193
7.18561
3.02146
-2.06575
-7.15465
-11.6721
-15.2493
-17.635
-19.6325
-19.9489
-19.4725
-18.95
-16.1736
-12.3041
-8.92994
-4.89671
-2.17425
3.01211
7.55978
13.8504
17.6123
23.1812
26.218
29.8569
32.5398
35.2092
37.6415
39.5628
41.1766
41.9135
42.3676
42.0869
41.8676
41.0106
39.84
38.7223
37.1367
35.7589
34.1426
32.5338
31.0713
29.4914
28.2791
27.1683
26.2339
25.5292
25.129
24.712
24.0241
24.1141
23.9524
23.6845
23.4588
22.9862
22.0805
21.1808
20.4276
26.4075
26.0059
24.0008
22.2008
21.0113
20.4855
20.5665
20.9494
21.4376
21.8645
22.2006
22.4577
22.5549
22.5954
22.5422
22.4511
22.3773
22.2872
22.1907
22.1042
22.0411
22.0036
21.9965
21.8608
21.8569
21.8535
21.7464
21.7165
21.5592
21.4881
21.3898
21.1414
20.9766
20.7831
20.5695
20.376
20.1701
19.9797
19.877
19.7351
19.5705
19.4882
19.3372
19.191
19.0621
18.8493
18.6798
18.5253
18.274
18.0845
17.8874
17.6388
17.4377
17.2008
16.9622
16.7613
16.5749
16.4135
16.2497
16.1462
15.9964
15.8599
15.7745
15.5886
15.5306
15.404
15.2784
15.2497
15.1253
15.1033
15.0558
15.0164
15.0428
15.0403
15.0865
15.1513
15.2861
15.4832
15.7429
16.0887
16.4651
16.9633
17.5096
18.15
18.8855
19.5927
20.3966
21.1744
21.9239
22.6656
23.3487
23.9916
24.5199
25.0261
25.3826
25.6431
25.934
26.1023
26.2025
26.2794
26.3178
26.3322
26.3281
26.3446
26.2414
26.1896
26.1875
26.1716
26.1973
26.2077
26.3508
26.421
26.5994
26.7628
26.9623
27.113
27.2944
27.5151
27.6202
27.9334
27.9275
28.0993
28.2441
28.2493
28.3042
27.971
27.1302
25.3311
22.554
19.3227
16.897
16.6432
17.9418
19.2675
19.7435
18.6303
16.4843
14.5188
13.1177
12.7394
12.8144
12.7211
11.7957
9.99234
7.524
3.8604
-0.585291
-4.93693
-9.13934
-12.9354
-15.74
-17.777
-18.389
-18.426
-18.5398
-15.5086
-10.9446
-8.3552
-4.46753
-2.33676
3.52047
8.03916
14.2942
18.8116
23.8085
26.5845
30.5392
32.9389
36.1196
39.3271
41.7007
43.5882
44.6246
45.2767
45.0718
44.8824
43.8865
42.7107
41.4837
39.7283
38.2482
36.4168
34.8096
33.0314
31.3607
30.1749
28.9262
27.8282
26.9775
26.1718
25.4356
24.6386
24.5353
24.2231
23.7069
23.4258
22.6982
21.9632
21.1669
20.2779
26.2936
25.8546
23.891
22.176
21.0742
20.6128
20.7339
21.1217
21.5714
21.9455
22.234
22.4469
22.5163
22.5234
22.4601
22.3658
22.2985
22.2079
22.1204
22.0405
21.963
21.936
21.8879
21.784
21.7657
21.761
21.6722
21.6248
21.4881
21.4165
21.3371
21.113
20.9647
20.8012
20.6008
20.4308
20.2248
20.043
19.9314
19.7791
19.6171
19.5203
19.3761
19.2228
19.0918
18.888
18.712
18.5605
18.3317
18.1329
17.9656
17.7273
17.549
17.3381
17.1143
16.9411
16.7507
16.622
16.4566
16.3709
16.2466
16.1182
16.0538
15.9018
15.8434
15.7532
15.6587
15.6308
15.5461
15.5324
15.4934
15.4716
15.4977
15.4833
15.5332
15.5655
15.6591
15.7968
15.9545
16.2041
16.4582
16.8202
17.2368
17.7043
18.2879
18.8734
19.5545
20.2638
20.9733
21.732
22.4657
23.2047
23.8899
24.5197
25.0789
25.5491
26.0066
26.3765
26.644
26.886
27.0588
27.1712
27.3182
27.4076
27.4287
27.4418
27.4977
27.5063
27.5737
27.6007
27.7258
27.8204
27.9193
28.0699
28.11
28.3219
28.3623
28.4482
28.3784
28.4213
28.5098
28.3125
28.4706
28.5471
28.4184
28.1149
27.2557
25.3981
22.2461
18.6469
16.1584
15.8492
16.8277
17.767
17.5821
15.7558
13.3121
11.5148
10.4681
10.7086
11.0842
11.4655
10.9742
9.80367
7.97362
5.2072
1.70478
-2.01028
-5.74752
-9.54248
-12.6856
-14.9401
-16.1625
-16.911
-17.3361
-14.1524
-10.2266
-7.0893
-4.9543
-2.43395
4.29064
9.26139
14.1426
19.9561
24.4823
26.7501
31.494
33.1134
37.5457
41.4057
43.9131
46.3519
47.6291
48.037
47.8616
47.8
46.6319
45.426
43.891
41.9549
40.5246
38.5632
36.8393
34.929
33.1471
31.7696
30.3053
28.9553
27.9666
26.9758
25.9481
25.3453
25.0297
24.4888
23.9443
23.4533
22.6173
22.0338
21.3612
20.3658
26.0381
25.5891
23.7173
22.1594
21.1916
20.8515
21.0011
21.3736
21.759
22.0592
22.2812
22.426
22.4615
22.4382
22.3686
22.2781
22.2101
22.1249
22.0412
21.9634
21.8974
21.875
21.8324
21.7416
21.721
21.6901
21.6169
21.5479
21.4249
21.3634
21.2714
21.0953
20.9513
20.8008
20.635
20.464
20.2806
20.1054
19.9884
19.8353
19.6735
19.5614
19.4101
19.2656
19.1156
18.9328
18.7545
18.5965
18.3924
18.1937
18.0314
17.8219
17.6486
17.4605
17.2671
17.095
16.9381
16.8061
16.6734
16.5828
16.4801
16.3805
16.3093
16.2098
16.1446
16.0913
16.0295
15.9965
15.964
15.9391
15.9213
15.9207
15.9204
15.9271
15.9469
15.9587
16.0025
16.0698
16.1505
16.2822
16.443
16.6543
16.9284
17.2578
17.6848
18.1579
18.7352
19.3846
20.0637
20.8465
21.6533
22.482
23.2983
24.0703
24.808
25.4846
26.1045
26.6474
27.1002
27.4971
27.821
28.0725
28.2833
28.4356
28.5512
28.6113
28.6883
28.7281
28.7684
28.8441
28.9016
29.0091
29.0215
29.06
29.0303
29.1144
29.1158
28.9309
28.8878
28.6606
28.5728
28.4992
28.3259
28.456
28.5722
28.2443
27.2651
25.3029
22.2223
18.7892
16.3421
15.7347
16.4453
16.9709
16.0137
13.6792
11.197
9.53545
9.15418
9.84114
10.755
11.1271
10.8043
9.67899
8.50914
6.70538
4.19791
1.44094
-1.6428
-5.38042
-9.0165
-11.6807
-13.1632
-14.7236
-15.7829
-11.9218
-8.95381
-6.58717
-5.6615
-0.856417
4.71551
8.11233
15.1444
21.5293
24.5923
26.2711
33.1047
33.4113
39.8025
44.0221
46.3073
49.1599
50.4712
50.5155
50.3963
50.5772
48.9078
47.8204
46.2173
44.0871
42.7418
40.6718
38.5109
36.5846
34.8414
33.1101
31.7518
30.2095
28.9714
27.9749
26.534
25.9899
25.477
24.6635
24.1759
23.4858
22.7376
22.0747
21.3102
20.4425
25.5305
25.1048
23.5044
22.2038
21.4461
21.2236
21.3693
21.6807
21.9647
22.174
22.3191
22.3823
22.3914
22.3393
22.2621
22.1875
22.1106
22.0474
21.973
21.9104
21.8563
21.8188
21.7683
21.6885
21.6504
21.5995
21.5511
21.4696
21.3643
21.3108
21.202
21.0763
20.9421
20.8018
20.67
20.4973
20.3422
20.1798
20.0435
19.895
19.7305
19.6095
19.4502
19.309
19.1497
18.969
18.8038
18.6261
18.4454
18.2586
18.0887
17.9156
17.7379
17.5744
17.4002
17.2422
17.1091
16.9773
16.8717
16.7799
16.6968
16.6233
16.549
16.4897
16.4381
16.3974
16.3761
16.3422
16.3375
16.325
16.3156
16.3279
16.3155
16.3265
16.3135
16.3059
16.3034
16.303
16.3222
16.3501
16.4173
16.4997
16.6527
16.8661
17.1481
17.5359
18.0239
18.6142
19.3179
20.1258
20.9825
21.8833
22.8059
23.7138
24.6049
25.4447
26.2153
26.9159
27.5219
28.0549
28.4978
28.8522
29.1215
29.3359
29.4898
29.5967
29.6605
29.7002
29.7186
29.7539
29.7853
29.8289
29.7771
29.6704
29.6312
29.5522
29.4356
29.1839
28.9727
28.8015
28.533
28.402
28.4246
28.3937
28.2528
27.9795
27.2597
25.6411
22.8528
19.7761
17.612
17.0119
17.4063
17.3368
15.7
12.88
9.99429
7.7334
6.9715
8.67507
10.6825
11.4758
11.0106
9.75073
9.10514
8.64012
7.07901
4.99604
2.33475
-1.07442
-4.58908
-7.44011
-10.0974
-12.3303
-12.1522
-9.14667
-8.13668
-6.12227
-3.85815
0.836232
5.28388
11.0911
15.883
19.6646
22.6673
27.0034
35.2507
33.478
43.0533
46.3877
48.5669
51.6464
52.813
52.7122
52.7955
52.8569
51.0288
50.1765
48.2443
46.263
44.901
42.7498
40.2058
38.3735
36.579
34.3662
33.3232
31.4652
29.9589
28.8631
26.9867
26.37
25.7462
24.8522
24.3794
23.6966
22.9405
22.0075
21.1804
20.4681
24.7152
24.4031
23.2788
22.3671
21.8565
21.7264
21.8204
22.0097
22.1682
22.2736
22.332
22.3303
22.3142
22.2464
22.1779
22.1128
22.0366
21.9853
21.9131
21.8588
21.8076
21.7599
21.7156
21.655
21.6158
21.5488
21.4983
21.4217
21.3276
21.2728
21.1529
21.0544
20.9364
20.7996
20.6926
20.5299
20.3931
20.2416
20.0925
19.946
19.7849
19.6531
19.4861
19.3446
19.1814
19.0021
18.85
18.6602
18.4922
18.3172
18.1424
17.9864
17.818
17.6673
17.5129
17.3739
17.2508
17.1304
17.0374
16.9532
16.8794
16.8214
16.7589
16.7236
16.6892
16.6644
16.6604
16.6411
16.6454
16.6443
16.6425
16.6489
16.6424
16.6371
16.6098
16.5818
16.535
16.484
16.4407
16.3928
16.3786
16.3845
16.453
16.5862
16.7923
17.1148
17.5403
18.106
18.8256
19.626
20.5054
21.4704
22.472
23.4889
24.4834
25.4349
26.3241
27.1213
27.8442
28.4696
28.9803
29.4059
29.7188
29.9757
30.166
30.2788
30.3281
30.3418
30.3276
30.2972
30.3034
30.2425
30.0753
29.9495
29.8441
29.681
29.5012
29.2968
29.0498
28.801
28.583
28.4209
28.3226
28.2512
28.1556
27.748
27.1451
26.0369
24.1389
21.7893
20.1041
19.6473
19.7087
18.8992
16.524
13.0839
9.54691
7.04222
6.11385
8.02461
10.6794
12.0494
11.4879
10.4083
10.1221
11.4256
10.1577
8.68119
6.43711
3.12149
-0.664246
-3.67124
-6.55692
-9.07003
-9.06891
-7.81395
-8.01535
-6.11953
-3.64746
3.03137
7.54359
13.8958
13.7521
22.7294
26.2519
29.0957
35.9532
34.6298
46.6844
47.6776
50.6649
53.4244
54.6397
54.5215
54.8425
54.7041
53.0903
51.991
49.9844
48.4325
46.7564
44.3967
41.6219
39.9222
37.9675
35.6355
34.5245
32.31
30.7677
29.3457
27.5049
26.6582
25.8514
25.3626
24.5982
23.8345
23.0187
21.8812
21.1934
20.5738
23.8492
23.69
23.1501
22.6732
22.3842
22.2669
22.2482
22.2915
22.3231
22.3337
22.3248
22.2815
22.2414
22.1721
22.108
22.0534
21.984
21.9388
21.8776
21.8258
21.7779
21.7199
21.6715
21.6152
21.5684
21.5043
21.4531
21.3811
21.2988
21.2362
21.1229
21.0391
20.9331
20.8048
20.7043
20.5582
20.427
20.2834
20.1326
19.9864
19.8307
19.6872
19.519
19.3717
19.2026
19.0285
18.8731
18.6868
18.5239
18.358
18.1889
18.0387
17.8826
17.7355
17.5977
17.4678
17.3529
17.2457
17.1587
17.0841
17.0157
16.9677
16.9214
16.891
16.8732
16.8551
16.8584
16.8561
16.8602
16.8713
16.8701