/*--------------------------------*- C++ -*----------------------------------*\
| =========                 |                                                 |
| \\      /  F ield         | OpenFOAM: The Open Source CFD Toolbox           |
|  \\    /   O peration     | Version:  2.4.0                                 |
|   \\  /    A nd           | Web:      www.OpenFOAM.org                      |
|    \\/     M anipulation  |                                                 |
\*---------------------------------------------------------------------------*/
FoamFile
{
    version     2.0;
    format      ascii;
    class       surfaceScalarField;
    location    "0.48";
    object      phi;
}
// * * * * * * * * * * * * * * * * * * * * * * * * * * * * * * * * * * * * * //

dimensions      [0 3 -1 0 0 0 0];

internalField   nonuniform List<scalar> 
17320
(
1.76343e-05
7.36573e-06
1.1617e-05
6.01725e-06
8.68357e-06
2.93346e-06
7.35484e-06
1.32873e-06
6.71894e-06
6.35902e-07
6.34111e-06
3.77826e-07
6.08217e-06
2.58947e-07
5.86635e-06
2.15816e-07
5.70704e-06
1.59312e-07
5.5859e-06
1.2114e-07
5.48351e-06
1.02386e-07
5.37544e-06
1.08074e-07
5.31525e-06
6.01906e-08
5.22565e-06
8.96031e-08
5.13917e-06
8.64788e-08
5.04175e-06
9.74136e-08
4.95214e-06
8.96138e-08
4.88301e-06
6.91271e-08
4.62052e-06
2.62494e-07
-4.70434e-07
5.09095e-06
2.5453e-05
6.91275e-06
2.32487e-05
8.22155e-06
2.09891e-05
5.19302e-06
1.93173e-05
3.00056e-06
1.80753e-05
1.87787e-06
1.71117e-05
1.34142e-06
1.63708e-05
9.99873e-07
1.57675e-05
8.19074e-07
1.53107e-05
6.16099e-07
1.49401e-05
4.91749e-07
1.46349e-05
4.07623e-07
1.43607e-05
3.82297e-07
1.41625e-05
2.5837e-07
1.39344e-05
3.17649e-07
1.37361e-05
2.84791e-07
1.35208e-05
3.12756e-07
1.33208e-05
2.89613e-07
1.31133e-05
2.76598e-07
1.28996e-05
4.76201e-07
-4.10025e-07
1.28392e-05
2.66074e-05
5.30533e-06
2.71592e-05
7.6698e-06
2.67807e-05
5.5715e-06
2.62506e-05
3.53061e-06
2.56013e-05
2.52718e-06
2.48724e-05
2.07032e-06
2.41659e-05
1.70639e-06
2.34936e-05
1.49144e-06
2.29377e-05
1.17198e-06
2.24529e-05
9.76552e-07
2.20339e-05
8.26577e-07
2.16627e-05
7.53476e-07
2.13758e-05
5.45277e-07
2.10652e-05
6.28326e-07
2.08041e-05
5.45848e-07
2.05172e-05
5.99639e-07
2.0288e-05
5.18877e-07
1.99337e-05
6.30813e-07
1.97789e-05
6.3105e-07
1.67076e-07
1.92018e-05
2.63103e-05
3.99503e-06
2.75416e-05
6.43851e-06
2.80814e-05
5.03168e-06
2.84588e-05
3.15321e-06
2.86439e-05
2.34205e-06
2.86213e-05
2.09291e-06
2.84851e-05
1.84264e-06
2.82196e-05
1.75687e-06
2.79695e-05
1.42207e-06
2.76986e-05
1.24749e-06
2.74299e-05
1.09532e-06
2.71566e-05
1.02678e-06
2.69353e-05
7.66536e-07
2.66664e-05
8.97217e-07
2.6442e-05
7.70216e-07
2.61687e-05
8.72969e-07
2.59945e-05
6.93054e-07
2.55791e-05
1.04629e-06
2.52866e-05
9.23513e-07
1.21383e-06
2.42398e-05
2.6035e-05
2.96001e-06
2.72344e-05
5.23917e-06
2.80336e-05
4.23242e-06
2.85191e-05
2.66772e-06
2.89879e-05
1.87332e-06
2.93188e-05
1.76203e-06
2.95877e-05
1.57366e-06
2.97275e-05
1.61714e-06
2.98453e-05
1.30425e-06
2.99097e-05
1.18304e-06
2.9956e-05
1.04905e-06
2.9962e-05
1.02084e-06
2.99664e-05
7.6211e-07
2.9925e-05
9.38597e-07
2.98861e-05
8.09145e-07
2.97985e-05
9.60537e-07
2.97573e-05
7.3423e-07
2.96565e-05
1.14709e-06
2.97073e-05
8.72722e-07
8.71092e-07
3.00501e-05
2.58455e-05
2.11448e-06
2.69589e-05
4.12579e-06
2.78028e-05
3.3885e-06
2.82415e-05
2.22907e-06
2.87201e-05
1.39471e-06
2.91022e-05
1.37991e-06
2.94565e-05
1.21936e-06
2.97144e-05
1.35924e-06
2.99817e-05
1.03696e-06
3.01602e-05
1.00453e-06
3.03845e-05
8.24785e-07
3.05587e-05
8.46556e-07
3.07139e-05
6.06977e-07
3.08552e-05
7.97266e-07
3.09691e-05
6.9529e-07
3.11124e-05
8.17163e-07
3.12274e-05
6.19243e-07
3.14413e-05
9.33252e-07
3.1572e-05
7.41949e-07
4.7895e-07
3.19642e-05
2.56743e-05
1.44014e-06
2.67409e-05
3.05925e-06
2.75762e-05
2.55322e-06
2.80625e-05
1.74278e-06
2.85075e-05
9.49677e-07
2.88628e-05
1.02463e-06
2.9166e-05
9.16144e-07
2.94834e-05
1.0418e-06
2.9757e-05
7.63419e-07
2.99982e-05
7.63292e-07
3.01849e-05
6.38061e-07
3.04394e-05
5.92067e-07
3.06337e-05
4.12684e-07
3.08097e-05
6.21321e-07
3.09589e-05
5.46033e-07
3.11406e-05
6.35447e-07
3.13735e-05
3.8636e-07
3.16827e-05
6.24021e-07
3.18738e-05
5.50845e-07
1.53695e-07
3.21991e-05
2.55557e-05
8.84416e-07
2.65715e-05
2.04348e-06
2.7448e-05
1.67673e-06
2.79961e-05
1.19468e-06
2.83528e-05
5.92995e-07
2.86688e-05
7.08615e-07
2.89583e-05
6.26597e-07
2.93752e-05
6.24922e-07
2.95731e-05
5.65519e-07
2.984e-05
4.96388e-07
3.00305e-05
4.47605e-07
3.02342e-05
3.88283e-07
3.04374e-05
2.09568e-07
3.07011e-05
3.57582e-07
3.07778e-05
4.69358e-07
3.09742e-05
4.39028e-07
3.12213e-05
1.39293e-07
3.15269e-05
3.18365e-07
3.18429e-05
2.34821e-07
-3.1083e-08
3.20277e-05
2.54624e-05
4.22001e-07
2.65005e-05
1.00541e-06
2.72949e-05
8.82288e-07
2.79413e-05
5.48259e-07
2.82308e-05
3.03552e-07
2.85949e-05
3.4451e-07
2.88973e-05
3.24155e-07
2.91652e-05
3.57077e-07
2.95117e-05
2.18997e-07
2.97343e-05
2.73744e-07
2.99286e-05
2.53308e-07
3.01526e-05
1.64333e-07
3.03366e-05
2.55535e-08
3.05658e-05
1.28388e-07
3.07018e-05
3.33345e-07
3.09024e-05
2.38425e-07
3.10867e-05
-4.49972e-08
3.14161e-05
-1.10226e-08
3.17475e-05
-9.65611e-08
-8.13842e-08
3.17978e-05
2.54265e-05
-4.46268e-09
2.64341e-05
-2.17498e-09
2.72822e-05
3.41582e-08
2.78624e-05
-3.20042e-08
2.82244e-05
-5.83706e-08
2.8498e-05
7.08422e-08
2.88043e-05
1.78877e-08
2.92063e-05
-4.49458e-08
2.94222e-05
3.15195e-09
2.96952e-05
7.16188e-10
2.98787e-05
6.97855e-08
3.00855e-05
-4.24836e-08
3.03093e-05
-1.9825e-07
3.04687e-05
-3.09446e-08
3.06148e-05
1.87226e-07
3.09004e-05
-4.71414e-08
3.11023e-05
-2.46945e-07
3.13285e-05
-2.37171e-07
3.15614e-05
-3.29509e-07
-1.03814e-07
3.15838e-05
2.54268e-05
-4.3122e-07
2.64381e-05
-1.01349e-06
2.72662e-05
-7.94009e-07
2.78877e-05
-6.53475e-07
2.8185e-05
-3.55679e-07
2.85248e-05
-2.68896e-07
2.88455e-05
-3.02808e-07
2.91483e-05
-3.47826e-07
2.94262e-05
-2.74712e-07
2.96883e-05
-2.61366e-07
2.99262e-05
-1.6811e-07
3.00953e-05
-2.11556e-07
3.02143e-05
-3.17317e-07
3.04487e-05
-2.65289e-07
3.07339e-05
-9.80577e-08
3.0914e-05
-2.27155e-07
3.10486e-05
-3.81623e-07
3.12819e-05
-4.70446e-07
3.14803e-05
-5.27876e-07
-3.18164e-07
3.16946e-05
2.54598e-05
-8.90972e-07
2.64782e-05
-2.03194e-06
2.7337e-05
-1.65281e-06
2.79288e-05
-1.24527e-06
2.82351e-05
-6.6199e-07
2.85737e-05
-6.07477e-07
2.8883e-05
-6.12113e-07
2.92071e-05
-6.71919e-07
2.9461e-05
-5.28585e-07
2.97611e-05
-5.61514e-07
2.99472e-05
-3.54251e-07
3.01727e-05
-4.36985e-07
3.03069e-05
-4.51551e-07
3.05003e-05
-4.58704e-07
3.06991e-05
-2.96844e-07
3.09771e-05
-5.05172e-07
3.11502e-05
-5.54696e-07
3.13365e-05
-6.56696e-07
3.15196e-05
-7.11032e-07
-5.7776e-07
3.17792e-05
2.5554e-05
-1.44501e-06
2.65847e-05
-3.06263e-06
2.74356e-05
-2.50366e-06
2.80015e-05
-1.81115e-06
2.83223e-05
-9.82867e-07
2.86807e-05
-9.65875e-07
2.90121e-05
-9.43478e-07
2.93215e-05
-9.81311e-07
2.95626e-05
-7.69703e-07
2.98456e-05
-8.44468e-07
3.00655e-05
-5.74221e-07
3.02661e-05
-6.37574e-07
3.04138e-05
-5.99238e-07
3.06065e-05
-6.51416e-07
3.07977e-05
-4.88016e-07
3.10594e-05
-7.66889e-07
3.1256e-05
-7.51265e-07
3.14827e-05
-8.8345e-07
3.16546e-05
-8.82905e-07
-7.85315e-07
3.18622e-05
2.56757e-05
-2.1207e-06
2.67314e-05
-4.11833e-06
2.75988e-05
-3.37108e-06
2.80699e-05
-2.28221e-06
2.8475e-05
-1.388e-06
2.88513e-05
-1.34223e-06
2.91882e-05
-1.28034e-06
2.94907e-05
-1.28379e-06
2.97477e-05
-1.02669e-06
3.00091e-05
-1.1059e-06
3.02077e-05
-7.72835e-07
3.04381e-05
-8.67938e-07
3.05876e-05
-7.48788e-07
3.07876e-05
-8.51354e-07
3.09458e-05
-6.46202e-07
3.11807e-05
-1.00178e-06
3.13256e-05
-8.9619e-07
3.16122e-05
-1.1701e-06
3.18384e-05
-1.10902e-06
-1.07637e-06
3.21294e-05
2.58442e-05
-2.96493e-06
2.69474e-05
-5.22148e-06
2.78181e-05
-4.2418e-06
2.82427e-05
-2.7068e-06
2.87067e-05
-1.852e-06
2.9098e-05
-1.73355e-06
2.94449e-05
-1.6272e-06
2.97085e-05
-1.54743e-06
2.99831e-05
-1.30127e-06
3.01899e-05
-1.31269e-06
3.03979e-05
-9.8085e-07
3.05478e-05
-1.01788e-06
3.06895e-05
-8.90488e-07
3.08293e-05
-9.91094e-07
3.09571e-05
-7.73998e-07
3.1083e-05
-1.12775e-06
3.11755e-05
-9.88619e-07
3.1378e-05
-1.37267e-06
3.14932e-05
-1.2242e-06
-1.35407e-06
3.17709e-05
2.6034e-05
-3.99891e-06
2.72385e-05
-6.42601e-06
2.80467e-05
-5.04999e-06
2.85017e-05
-3.16179e-06
2.89704e-05
-2.32073e-06
2.93243e-05
-2.08747e-06
2.95886e-05
-1.89148e-06
2.97297e-05
-1.68849e-06
2.98665e-05
-1.43809e-06
2.98983e-05
-1.34447e-06
2.99576e-05
-1.04014e-06
2.99451e-05
-1.00543e-06
2.99436e-05
-8.89001e-07
2.98916e-05
-9.39029e-07
2.98638e-05
-7.46216e-07
2.9759e-05
-1.02293e-06
2.96647e-05
-8.94353e-07
2.95781e-05
-1.28607e-06
2.94717e-05
-1.11783e-06
-1.43715e-06
2.95548e-05
2.63078e-05
-5.30675e-06
2.7547e-05
-7.6652e-06
2.80795e-05
-5.58243e-06
2.84465e-05
-3.52885e-06
2.86424e-05
-2.51657e-06
2.86272e-05
-2.0723e-06
2.84707e-05
-1.73496e-06
2.82324e-05
-1.4502e-06
2.79765e-05
-1.18219e-06
2.76741e-05
-1.04209e-06
2.7428e-05
-7.94043e-07
2.71501e-05
-7.27514e-07
2.68995e-05
-6.38373e-07
2.6629e-05
-6.68593e-07
2.64057e-05
-5.22884e-07
2.61004e-05
-7.17621e-07
2.58454e-05
-6.39383e-07
2.54958e-05
-9.36464e-07
2.52347e-05
-8.56705e-07
-1.29383e-06
2.50914e-05
2.66066e-05
-6.91339e-06
2.71624e-05
-8.22094e-06
2.67762e-05
-5.19621e-06
2.62468e-05
-2.99947e-06
2.5604e-05
-1.87379e-06
2.48736e-05
-1.34187e-06
2.41548e-05
-1.01613e-06
2.35043e-05
-7.99793e-07
2.29354e-05
-6.1322e-07
2.24297e-05
-5.36389e-07
2.20281e-05
-3.92509e-07
2.16579e-05
-3.57251e-07
2.13365e-05
-3.16967e-07
2.102e-05
-3.52104e-07
2.07593e-05
-2.6219e-07
2.04293e-05
-3.87657e-07
2.01457e-05
-3.55741e-07
1.97188e-05
-5.0955e-07
1.93407e-05
-4.78682e-07
-4.56498e-07
1.85034e-05
2.54524e-05
-7.36581e-06
2.3249e-05
-6.0175e-06
2.09864e-05
-2.93364e-06
1.93163e-05
-1.32939e-06
1.8077e-05
-6.34455e-07
1.71118e-05
-3.76641e-07
1.63623e-05
-2.66691e-07
1.57725e-05
-2.09942e-07
1.53107e-05
-1.5141e-07
1.49196e-05
-1.45285e-07
1.46245e-05
-9.74434e-08
1.43592e-05
-9.19227e-08
1.41269e-05
-8.4698e-08
1.38854e-05
-1.10631e-07
1.36936e-05
-7.03222e-08
1.34329e-05
-1.26958e-07
1.31932e-05
-1.1605e-07
1.28541e-05
-1.70541e-07
1.25832e-05
-2.07709e-07
-6.76599e-08
1.21943e-05
1.76342e-05
1.16167e-05
8.68305e-06
7.35366e-06
6.7192e-06
6.34256e-06
6.07587e-06
5.86593e-06
5.71452e-06
5.56923e-06
5.47179e-06
5.37987e-06
5.29517e-06
5.18454e-06
5.11422e-06
4.98726e-06
4.87121e-06
4.70067e-06
4.49296e-06
4.4253e-06
5.52731e-06
-2.65157e-07
-1.71202e-07
5.87934e-06
-1.0528e-07
-2.46747e-07
6.19126e-06
-4.99236e-08
-2.61994e-07
6.525e-06
-5.38877e-08
-2.79859e-07
6.86236e-06
-7.56759e-08
-2.61683e-07
7.18083e-06
-8.02674e-08
-2.38203e-07
7.45027e-06
-7.70833e-08
-1.92356e-07
7.65097e-06
-7.97764e-08
-1.20918e-07
7.77801e-06
-1.00578e-07
-2.64654e-08
7.86432e-06
-1.36957e-07
5.06467e-08
7.92045e-06
-1.7913e-07
1.22997e-07
7.9679e-06
-2.21008e-07
1.73567e-07
8.01551e-06
-2.38625e-07
1.91014e-07
8.07604e-06
-2.34731e-07
1.74196e-07
8.15068e-06
-2.31704e-07
1.57067e-07
8.21353e-06
-2.27879e-07
1.65028e-07
8.2765e-06
-2.38934e-07
1.75966e-07
8.31698e-06
-2.32373e-07
1.91887e-07
8.35837e-06
-2.44778e-07
2.0339e-07
8.35131e-06
-1.98231e-07
2.05298e-07
8.35625e-06
-1.8431e-07
1.79366e-07
8.40713e-06
-5.18716e-08
9.91711e-10
8.38599e-06
4.05868e-08
-1.94489e-08
8.43477e-06
1.2427e-07
-1.7305e-07
8.51593e-06
1.95315e-07
-2.76469e-07
8.56854e-06
2.46448e-07
-2.99059e-07
8.64332e-06
2.7813e-07
-3.52909e-07
8.72796e-06
3.29288e-07
-4.13933e-07
8.82624e-06
3.50966e-07
-4.49247e-07
8.96835e-06
4.03534e-07
-5.45641e-07
9.11009e-06
4.18083e-07
-5.59821e-07
9.26894e-06
4.36026e-07
-5.94879e-07
9.42093e-06
4.29636e-07
-5.81624e-07
9.57534e-06
4.08626e-07
-5.63039e-07
9.71345e-06
3.98e-07
-5.36106e-07
9.82908e-06
3.73702e-07
-4.89335e-07
9.94328e-06
3.36218e-07
-4.50419e-07
1.00503e-05
3.3129e-07
-4.38345e-07
1.01358e-05
3.04087e-07
-3.89561e-07
1.0202e-05
2.90797e-07
-3.56943e-07
1.02476e-05
2.65451e-07
-3.11046e-07
1.02826e-05
2.78264e-07
-3.13298e-07
1.03301e-05
2.64999e-07
-3.12551e-07
1.03786e-05
3.28498e-07
-3.76957e-07
1.04562e-05
3.36264e-07
-4.13879e-07
1.05422e-05
4.43762e-07
-5.29731e-07
1.07009e-05
4.50957e-07
-6.09686e-07
1.08591e-05
5.74454e-07
-7.32604e-07
1.1094e-05
5.21073e-07
-7.56053e-07
1.13007e-05
6.52298e-07
-8.58968e-07
1.15512e-05
5.39993e-07
-7.90513e-07
1.17827e-05
6.27238e-07
-8.58664e-07
1.20037e-05
4.78388e-07
-6.99476e-07
1.22359e-05
4.92322e-07
-7.24462e-07
1.24145e-05
3.26119e-07
-5.04776e-07
1.26231e-05
2.98421e-07
-5.06956e-07
1.27543e-05
1.22522e-07
-2.53714e-07
1.29096e-05
7.87007e-08
-2.33988e-07
1.30594e-05
-7.18773e-08
-7.79959e-08
1.31372e-05
-4.98425e-08
-2.79192e-08
1.33761e-05
-2.45293e-07
6.42869e-09
1.3446e-05
-6.67351e-08
-3.17584e-09
1.37496e-05
-3.42991e-07
3.93936e-08
1.38896e-05
-9.54936e-08
-4.4516e-08
1.4131e-05
-3.92441e-07
1.51057e-07
1.44104e-05
-2.65637e-07
-1.37759e-08
1.44929e-05
-4.18164e-07
3.3567e-07
1.48852e-05
-4.91135e-07
9.87555e-08
1.48989e-05
-4.15843e-07
4.02199e-07
1.52787e-05
-6.65179e-07
2.85339e-07
1.54625e-05
-4.79048e-07
2.95315e-07
1.57591e-05
-6.34723e-07
3.38097e-07
1.62344e-05
-6.73017e-07
1.97726e-07
1.65447e-05
-6.73091e-07
3.62753e-07
1.70491e-05
-1.04711e-06
5.42765e-07
1.73931e-05
-1.08963e-06
7.45636e-07
1.77074e-05
-1.71348e-06
1.39912e-06
1.80708e-05
-1.92326e-06
1.55984e-06
1.82155e-05
-2.62263e-06
2.47799e-06
1.85192e-05
-3.056e-06
2.75228e-06
1.85328e-05
-3.77183e-06
3.75819e-06
1.86208e-05
-4.27764e-06
4.18967e-06
1.83618e-05
-4.78622e-06
5.04525e-06
1.82909e-05
-5.04747e-06
5.11835e-06
1.8186e-05
-5.1966e-06
5.30145e-06
1.83162e-05
-5.16375e-06
5.03361e-06
1.82214e-05
-4.81333e-06
4.90809e-06
1.80615e-05
-4.16752e-06
4.3274e-06
1.78292e-05
-3.26309e-06
3.49542e-06
1.77721e-05
-2.24099e-06
2.29808e-06
1.78328e-05
-1.16193e-06
1.10127e-06
1.78752e-05
2.35652e-09
-4.48027e-08
1.79262e-05
8.58152e-07
-9.09095e-07
1.78344e-05
1.79759e-06
-1.70582e-06
1.78638e-05
2.23651e-06
-2.26588e-06
1.78648e-05
2.79172e-06
-2.79272e-06
1.805e-05
2.82061e-06
-3.00585e-06
1.82927e-05
3.06659e-06
-3.30922e-06
1.86919e-05
2.89076e-06
-3.29001e-06
1.90241e-05
2.87415e-06
-3.20634e-06
1.9488e-05
2.47324e-06
-2.93709e-06
1.98783e-05
2.28085e-06
-2.67123e-06
2.02881e-05
1.63996e-06
-2.04972e-06
2.06261e-05
1.29141e-06
-1.62947e-06
2.09688e-05
4.85354e-07
-8.28043e-07
2.13355e-05
2.94557e-08
-3.96164e-07
2.15981e-05
-7.80275e-07
5.17743e-07
2.1942e-05
-1.33405e-06
9.90109e-07
2.23482e-05
-2.20184e-06
1.79567e-06
2.26694e-05
-2.69376e-06
2.37257e-06
2.31662e-05
-3.71151e-06
3.21472e-06
2.36058e-05
-4.22055e-06
3.78092e-06
2.42394e-05
-5.27428e-06
4.64072e-06
2.48986e-05
-5.88471e-06
5.22548e-06
2.57119e-05
-6.95772e-06
6.14443e-06
2.65958e-05
-7.73959e-06
6.8557e-06
2.75364e-05
-8.7622e-06
7.82155e-06
2.85215e-05
-9.67234e-06
8.68722e-06
2.94732e-05
-1.0674e-05
9.72231e-06
3.03194e-05
-1.14324e-05
1.05863e-05
3.10556e-05
-1.23868e-05
1.16506e-05
3.15528e-05
-1.29163e-05
1.24191e-05
3.18641e-05
-1.35755e-05
1.32642e-05
3.18486e-05
-1.38084e-05
1.38239e-05
3.16184e-05
-1.4099e-05
1.43293e-05
3.1239e-05
-1.41247e-05
1.45041e-05
3.07286e-05
-1.4152e-05
1.46624e-05
3.02197e-05
-1.40015e-05
1.45104e-05
2.98123e-05
-1.40576e-05
1.4465e-05
2.9472e-05
-1.38049e-05
1.41452e-05
2.93108e-05
-1.38664e-05
1.40276e-05
2.92946e-05
-1.36364e-05
1.36526e-05
2.9344e-05
-1.37274e-05
1.3678e-05
2.93955e-05
-1.32905e-05
1.3239e-05
2.94753e-05
-1.33578e-05
1.3278e-05
2.93589e-05
-1.2861e-05
1.29774e-05
2.92466e-05
-1.26571e-05
1.27694e-05
2.88493e-05
-1.20459e-05
1.24432e-05
2.85253e-05
-1.1655e-05
1.19791e-05
2.80877e-05
-1.11373e-05
1.15749e-05
2.76269e-05
-1.05612e-05
1.1022e-05
2.73107e-05
-1.00233e-05
1.03395e-05
2.69537e-05
-9.30979e-06
9.66679e-06
2.67916e-05
-8.56023e-06
8.72228e-06
2.68111e-05
-7.82488e-06
7.80538e-06
2.69738e-05
-6.86642e-06
6.70379e-06
2.72949e-05
-5.73412e-06
5.41297e-06
2.76345e-05
-4.37811e-06
4.03857e-06
2.80539e-05
-2.83839e-06
2.41893e-06
2.85309e-05
-1.28316e-06
8.06139e-07
2.90209e-05
6.03021e-07
-1.09299e-06
2.93954e-05
2.52448e-06
-2.89894e-06
2.98486e-05
4.27235e-06
-4.72555e-06
3.01311e-05
6.27145e-06
-6.55401e-06
3.03159e-05
8.05152e-06
-8.23628e-06
3.02726e-05
9.93931e-06
-9.89605e-06
3.01397e-05
1.15423e-05
-1.14093e-05
2.97129e-05
1.3163e-05
-1.27362e-05
2.89943e-05
1.43756e-05
-1.3657e-05
2.85024e-05
1.52894e-05
-1.47974e-05
2.75086e-05
1.62577e-05
-1.5264e-05
2.69052e-05
1.65424e-05
-1.59389e-05
2.64306e-05
1.71896e-05
-1.6715e-05
2.61277e-05
1.74739e-05
-1.71711e-05
2.637e-05
1.79239e-05
-1.81662e-05
2.62773e-05
1.86983e-05
-1.86057e-05
2.66982e-05
1.89502e-05
-1.93712e-05
2.65044e-05
1.97239e-05
-1.953e-05
2.59064e-05
1.96624e-05
-1.90645e-05
2.54905e-05
1.93791e-05
-1.89632e-05
2.39433e-05
1.91982e-05
-1.76511e-05
2.26147e-05
1.77638e-05
-1.64352e-05
2.08129e-05
1.67123e-05
-1.49105e-05
1.9683e-05
1.50264e-05
-1.38965e-05
1.94013e-05
1.42357e-05
-1.3954e-05
1.91592e-05
1.37544e-05
-1.35123e-05
1.99e-05
1.29476e-05
-1.36884e-05
1.95157e-05
1.28266e-05
-1.24422e-05
1.97529e-05
1.10107e-05
-1.12479e-05
1.9293e-05
1.04303e-05
-9.97049e-06
1.92677e-05
8.1367e-06
-8.11137e-06
1.87849e-05
8.1208e-06
-7.63797e-06
1.89757e-05
5.52004e-06
-5.71092e-06
1.87388e-05
5.82862e-06
-5.59167e-06
1.89844e-05
2.96073e-06
-3.20631e-06
1.86124e-05
3.55116e-06
-3.17924e-06
1.90022e-05
-4.51179e-07
6.14461e-08
1.83527e-05
1.7866e-06
-1.13709e-06
1.89584e-05
-3.26042e-06
2.65472e-06
1.83104e-05
4.36986e-07
2.11034e-07
1.9462e-05
-5.216e-06
4.06432e-06
1.85603e-05
-8.04719e-07
1.70645e-06
2.01297e-05
-7.34611e-06
5.77672e-06
1.85382e-05
-2.62312e-06
4.21466e-06
1.9306e-05
-8.14788e-06
7.38003e-06
1.66865e-05
-1.79815e-06
4.41762e-06
1.8067e-05
-5.69387e-06
4.3134e-06
1.43885e-05
3.70701e-06
-2.85009e-08
1.61101e-05
-4.10971e-07
-1.31062e-06
1.2255e-05
-1.13431e-05
1.51981e-05
1.2811e-05
-2.3697e-07
1.29254e-05
-2.19632e-07
1.31119e-05
-2.36496e-07
1.33283e-05
-2.70226e-07
1.35317e-05
-2.7914e-07
1.37061e-05
-2.54663e-07
1.38492e-05
-2.20106e-07
1.39541e-05
-1.8473e-07
1.40196e-05
-1.66022e-07
1.40669e-05
-1.84321e-07
1.41001e-05
-2.12284e-07
1.41349e-05
-2.5584e-07
1.41722e-05
-2.75941e-07
1.42142e-05
-2.76739e-07
1.42683e-05
-2.85803e-07
1.43071e-05
-2.66671e-07
1.4346e-05
-2.77758e-07
1.43678e-05
-2.54212e-07
1.43669e-05
-2.43852e-07
1.43688e-05
-2.00172e-07
1.4331e-05
-1.46472e-07
1.43324e-05
-5.32888e-08
1.43318e-05
4.11645e-08
1.43235e-05
1.32557e-07
1.43129e-05
2.05942e-07
1.43023e-05
2.57084e-07
1.42798e-05
3.0062e-07
1.42699e-05
3.39136e-07
1.42635e-05
3.57403e-07
1.42762e-05
3.90799e-07
1.42868e-05
4.07463e-07
1.43157e-05
4.07211e-07
1.43325e-05
4.12759e-07
1.43581e-05
3.83074e-07
1.43872e-05
3.6888e-07
1.44109e-05
3.50051e-07
1.44358e-05
3.11278e-07
1.447e-05
2.97124e-07
1.45041e-05
2.6996e-07
1.45269e-05
2.68013e-07
1.45592e-05
2.33089e-07
1.45903e-05
2.47189e-07
1.46306e-05
2.2466e-07
1.4681e-05
2.78114e-07
1.47565e-05
2.60814e-07
1.48529e-05
3.47374e-07
1.49687e-05
3.3511e-07
1.51256e-05
4.17576e-07
1.52631e-05
3.8361e-07
1.54726e-05
4.42734e-07
1.56261e-05
3.86488e-07
1.58453e-05
4.08062e-07
1.60196e-05
3.04134e-07
1.61988e-05
3.13087e-07
1.63946e-05
1.30295e-07
1.65201e-05
1.7296e-07
1.67176e-05
-7.49604e-08
1.67959e-05
3.67458e-10
1.69815e-05
-2.57495e-07
1.7075e-05
-1.43335e-07
1.72094e-05
-3.79653e-07
1.74095e-05
-2.66914e-07
1.74757e-05
-4.09165e-07
1.77878e-05
-4.0761e-07
1.78134e-05
-4.17998e-07
1.81332e-05
-5.85498e-07
1.82155e-05
-5.00418e-07
1.84416e-05
-7.17262e-07
1.867e-05
-6.44191e-07
1.87908e-05
-7.85966e-07
1.91617e-05
-8.50005e-07
1.93577e-05
-8.30742e-07
1.97563e-05
-1.07161e-06
2.01588e-05
-1.07559e-06
2.05015e-05
-1.38977e-06
2.10086e-05
-1.59671e-06
2.12797e-05
-1.98464e-06
2.17627e-05
-2.40622e-06
2.20128e-05
-2.87269e-06
2.23604e-05
-3.40359e-06
2.25098e-05
-3.92122e-06
2.26494e-05
-4.41727e-06
2.27092e-05
-4.846e-06
2.27542e-05
-5.09252e-06
2.27269e-05
-5.16929e-06
2.2529e-05
-4.9659e-06
2.22829e-05
-4.56723e-06
2.20273e-05
-3.91191e-06
2.19366e-05
-3.17239e-06
2.18185e-05
-2.12289e-06
2.18648e-05
-1.20819e-06
2.19074e-05
-4.02828e-08
2.19664e-05
7.99223e-07
2.2068e-05
1.69595e-06
2.20809e-05
2.22365e-06
2.21263e-05
2.7463e-06
2.20948e-05
2.85212e-06
2.20852e-05
3.07615e-06
2.2156e-05
2.81998e-06
2.2239e-05
2.79114e-06
2.23535e-05
2.35876e-06
2.26181e-05
2.01629e-06
2.27529e-05
1.50514e-06
2.31207e-05
9.23595e-07
2.32632e-05
3.42849e-07
2.37087e-05
-4.16029e-07
2.39071e-05
-9.78695e-07
2.43922e-05
-1.81911e-06
2.47211e-05
-2.53075e-06
2.53058e-05
-3.27851e-06
2.58181e-05
-4.22382e-06
2.65159e-05
-4.91829e-06
2.72122e-05
-5.97061e-06
2.80289e-05
-6.70141e-06
2.88429e-05
-7.77175e-06
2.97053e-05
-8.60194e-06
3.04703e-05
-9.52727e-06
3.12045e-05
-1.04065e-05
3.17281e-05
-1.11976e-05
3.21573e-05
-1.18616e-05
3.23034e-05
-1.25329e-05
3.22312e-05
-1.28441e-05
3.19794e-05
-1.33237e-05
3.14917e-05
-1.33206e-05
3.09905e-05
-1.35978e-05
3.0445e-05
-1.35792e-05
2.99913e-05
-1.36983e-05
2.96798e-05
-1.36901e-05
2.94995e-05
-1.38772e-05
2.94608e-05
-1.37661e-05
2.95133e-05
-1.3919e-05
2.95542e-05
-1.36773e-05
2.94538e-05
-1.3627e-05
2.92448e-05
-1.30815e-05
2.88795e-05
-1.29926e-05
2.82994e-05
-1.22809e-05
2.76152e-05
-1.19729e-05
2.67204e-05
-1.11511e-05
2.59002e-05
-1.08349e-05
2.49491e-05
-1.01862e-05
2.40748e-05
-9.68695e-06
2.33595e-05
-9.30805e-06
2.26536e-05
-8.6039e-06
2.24256e-05
-8.33216e-06
2.24837e-05
-7.88305e-06
2.27481e-05
-7.1308e-06
2.32312e-05
-6.21716e-06
2.39345e-05
-5.08141e-06
2.45834e-05
-3.48736e-06
2.52094e-05
-1.90913e-06
2.58643e-05
-5.19102e-08
2.65222e-05
1.86665e-06
2.71113e-05
3.68321e-06
2.78057e-05
5.57707e-06
2.82772e-05
7.58005e-06
2.88354e-05
9.38102e-06
2.90051e-05
1.13726e-05
2.92183e-05
1.29498e-05
2.89513e-05
1.46426e-05
2.85086e-05
1.57321e-05
2.79393e-05
1.6827e-05
2.71709e-05
1.73109e-05
2.66753e-05
1.76851e-05
2.59454e-05
1.82039e-05
2.5904e-05
1.79654e-05
2.59283e-05
1.8674e-05
2.59642e-05
1.89144e-05
2.65987e-05
1.90894e-05
2.62443e-05
2.00168e-05
2.64845e-05
1.91389e-05
2.61019e-05
1.95808e-05
2.51707e-05
1.86949e-05
2.42714e-05
1.76116e-05
2.26799e-05
1.66179e-05
2.22541e-05
1.46615e-05
2.14726e-05
1.45358e-05
2.17142e-05
1.2706e-05
2.1591e-05
1.29497e-05
2.18928e-05
1.07089e-05
2.1417e-05
1.09062e-05
2.15865e-05
7.96727e-06
2.10734e-05
8.63381e-06
2.17361e-05
4.85734e-06
2.13136e-05
6.25119e-06
2.23991e-05
1.87521e-06
2.14173e-05
4.53293e-06
2.24571e-05
-1.49095e-06
2.15559e-05
2.68781e-06
2.29273e-05
-4.63178e-06
2.1877e-05
1.48722e-06
2.32051e-05
-6.54413e-06
2.18761e-05
5.24291e-07
2.29006e-05
-8.37061e-06
2.07741e-05
-4.96551e-07
2.19011e-05
-9.27492e-06
1.94948e-05
6.08171e-07
2.08581e-05
-7.05719e-06
2.06951e-05
3.87005e-06
2.26687e-05
-2.3846e-06
1.07981e-05
2.41257e-05
1.92188e-05
-2.53959e-07
1.93936e-05
-3.94465e-07
1.96354e-05
-4.7829e-07
1.98751e-05
-5.09951e-07
2.00426e-05
-4.46578e-07
2.01471e-05
-3.59194e-07
2.02026e-05
-2.75598e-07
2.02397e-05
-2.218e-07
2.02604e-05
-1.86795e-07
2.02808e-05
-2.04738e-07
2.02878e-05
-2.192e-07
2.03023e-05
-2.70371e-07
2.03168e-05
-2.90407e-07
2.03312e-05
-2.91144e-07
2.03548e-05
-3.09446e-07
2.03639e-05
-2.75761e-07
2.03701e-05
-2.83953e-07
2.03651e-05
-2.4922e-07
2.03428e-05
-2.21566e-07
2.03274e-05
-1.84741e-07
2.02975e-05
-1.16567e-07
2.02843e-05
-4.00672e-08
2.02669e-05
5.85018e-08
2.02599e-05
1.3957e-07
2.02207e-05
2.45163e-07
2.01976e-05
2.80154e-07
2.01543e-05
3.43933e-07
2.01234e-05
3.70043e-07
2.00964e-05
3.84382e-07
2.00635e-05
4.23743e-07
2.00504e-05
4.20578e-07
2.00305e-05
4.2704e-07
2.00133e-05
4.30003e-07
1.9996e-05
4.00368e-07
1.99775e-05
3.8738e-07
1.99635e-05
3.64092e-07
1.99477e-05
3.27053e-07
1.99348e-05
3.10046e-07
1.99268e-05
2.77887e-07
1.99334e-05
2.61472e-07
1.99206e-05
2.45898e-07
1.99519e-05
2.15836e-07
1.99445e-05
2.32083e-07
2.00084e-05
2.14252e-07
2.00257e-05
2.43513e-07
2.01367e-05
2.36287e-07
2.0188e-05
2.83898e-07
2.03257e-05
2.79861e-07
2.04231e-05
2.8619e-07
2.05633e-05
3.02497e-07
2.07189e-05
2.30897e-07
2.08476e-05
2.79358e-07
2.10341e-05
1.17652e-07
2.11502e-05
1.9696e-07
2.13138e-05
-3.32551e-08
2.14482e-05
3.8561e-08
2.15492e-05
-1.75954e-07
2.17215e-05
-1.71974e-07
2.17672e-05
-3.0315e-07
2.19722e-05
-3.4839e-07
2.20045e-05
-4.11957e-07
2.22235e-05
-4.85911e-07
2.22931e-05
-4.78733e-07
2.24886e-05
-6.03137e-07
2.26334e-05
-5.62753e-07
2.27448e-05
-6.96923e-07
2.29694e-05
-7.25023e-07
2.30477e-05
-7.95555e-07
2.32894e-05
-8.85861e-07
2.34369e-05
-9.33504e-07
2.36479e-05
-1.061e-06
2.39343e-05
-1.11713e-06
2.41486e-05
-1.28589e-06
2.45346e-05
-1.46158e-06
2.48147e-05
-1.66995e-06
2.52082e-05
-1.99014e-06
2.5533e-05
-2.30948e-06
2.58649e-05
-2.73815e-06
2.61581e-05
-3.16583e-06
2.64015e-05
-3.64697e-06
2.65548e-05
-4.0746e-06
2.66674e-05
-4.52979e-06
2.66194e-05
-4.79802e-06
2.65315e-05
-5.00464e-06
2.63009e-05
-4.93872e-06
2.60929e-05
-4.7579e-06
2.58733e-05
-4.34755e-06
2.56829e-05
-3.72154e-06
2.54726e-05
-2.9621e-06
2.53578e-05
-2.00806e-06
2.52627e-05
-1.11311e-06
2.53283e-05
-1.05902e-07
2.53453e-05
7.82193e-07
2.54987e-05
1.5426e-06
2.5578e-05
2.14429e-06
2.5697e-05
2.62732e-06
2.57626e-05
2.78655e-06
2.58482e-05
2.99048e-06
2.58586e-05
2.80958e-06
2.59928e-05
2.65699e-06
2.59963e-05
2.35525e-06
2.61892e-05
1.82336e-06
2.6271e-05
1.42335e-06
2.64745e-05
7.20153e-07
2.66632e-05
1.54162e-07
2.69504e-05
-7.03267e-07
2.72581e-05
-1.2864e-06
2.76842e-05
-2.24521e-06
2.80877e-05
-2.93426e-06
2.86964e-05
-3.88725e-06
2.91634e-05
-4.6908e-06
2.98515e-05
-5.60642e-06
3.04029e-05
-6.52193e-06
3.10551e-05
-7.35361e-06
3.15965e-05
-8.31316e-06
3.20778e-05
-9.08327e-06
3.24505e-05
-9.89993e-06
3.26514e-05
-1.06075e-05
3.26687e-05
-1.12148e-05
3.25631e-05
-1.1756e-05
3.21595e-05
-1.21294e-05
3.17349e-05
-1.24195e-05
3.11751e-05
-1.27639e-05
3.06505e-05
-1.2796e-05
3.02297e-05
-1.3177e-05
2.98743e-05
-1.32238e-05
2.97193e-05
-1.35432e-05
2.9666e-05
-1.36368e-05
2.96808e-05
-1.3892e-05
2.97035e-05
-1.37888e-05
2.95926e-05
-1.38081e-05
2.93262e-05
-1.3411e-05
2.87352e-05
-1.3036e-05
2.80843e-05
-1.24306e-05
2.71479e-05
-1.20561e-05
2.60585e-05
-1.11915e-05
2.47578e-05
-1.06722e-05
2.33808e-05
-9.77411e-06
2.20055e-05
-9.45963e-06
2.05054e-05
-8.68606e-06
1.92756e-05
-8.45717e-06
1.82192e-05
-8.25161e-06
1.75709e-05
-7.95564e-06
1.75296e-05
-8.29081e-06
1.80533e-05
-8.40678e-06
1.87543e-05
-7.83184e-06
1.9742e-05
-7.20479e-06
2.06879e-05
-6.02732e-06
2.15784e-05
-4.37786e-06
2.22626e-05
-2.59335e-06
2.29136e-05
-7.02874e-07
2.36113e-05
1.16896e-06
2.41601e-05
3.13432e-06
2.48597e-05
4.87753e-06
2.55769e-05
6.86282e-06
2.63587e-05
8.59923e-06
2.70243e-05
1.0707e-05
2.75759e-05
1.23982e-05
2.80682e-05
1.41502e-05
2.80065e-05
1.57938e-05
2.79741e-05
1.68593e-05
2.71856e-05
1.80993e-05
2.66238e-05
1.8247e-05
2.62496e-05
1.85781e-05
2.54493e-05
1.87656e-05
2.59112e-05
1.82121e-05
2.57188e-05
1.91068e-05
2.60904e-05
1.87178e-05
2.65959e-05
1.95113e-05
2.62337e-05
1.95011e-05
2.65147e-05
1.92999e-05
2.58634e-05
1.93462e-05
2.54664e-05
1.80086e-05
2.43582e-05
1.77261e-05
2.36434e-05
1.53763e-05
2.27762e-05
1.5403e-05
2.30519e-05
1.24303e-05
2.24703e-05
1.35314e-05
2.35886e-05
9.59056e-06
2.30506e-05
1.14442e-05
2.40276e-05
6.99021e-06
2.32794e-05
9.38208e-06
2.42313e-05
3.90544e-06
2.36448e-05
6.83762e-06
2.48248e-05
6.95257e-07
2.42662e-05
5.09155e-06
2.50415e-05
-2.26631e-06
2.42414e-05
3.48795e-06
2.42694e-05
-4.65983e-06
2.364e-05
2.1167e-06
2.34017e-05
-6.30586e-06
2.23887e-05
1.53728e-06
2.15218e-05
-7.50366e-06
2.05994e-05
4.25841e-07
1.98688e-05
-8.54431e-06
1.98397e-05
6.37229e-07
1.98656e-05
-7.0831e-06
2.08889e-05
2.84673e-06
2.15171e-05
-3.01273e-06
6.54424e-06
2.57709e-05
2.44964e-05
-5.10476e-07
2.49713e-05
-8.6942e-07
2.53506e-05
-8.57575e-07
2.55245e-05
-6.83865e-07
2.55931e-05
-5.15143e-07
2.56219e-05
-3.88049e-07
2.56307e-05
-2.84405e-07
2.5637e-05
-2.28056e-07
2.56374e-05
-1.87206e-07
2.56387e-05
-2.06082e-07
2.56209e-05
-2.01311e-07
2.56105e-05
-2.60018e-07
2.56009e-05
-2.80761e-07
2.55923e-05
-2.82541e-07
2.5597e-05
-3.14164e-07
2.55891e-05
-2.67839e-07
2.55733e-05
-2.68221e-07
2.55543e-05
-2.30249e-07
2.55181e-05
-1.85342e-07
2.54971e-05
-1.6368e-07
2.54682e-05
-8.77167e-08
2.5453e-05
-2.49018e-08
2.54412e-05
7.03444e-08
2.54367e-05
1.4411e-07
2.54187e-05
2.63085e-07
2.53932e-05
3.05663e-07
2.53605e-05
3.76621e-07
2.53195e-05
4.11101e-07
2.53029e-05
4.00937e-07
2.52703e-05
4.564e-07
2.52608e-05
4.30073e-07
2.52575e-05
4.30302e-07
2.52376e-05
4.49904e-07
2.52372e-05
4.00771e-07
2.52051e-05
4.19454e-07
2.51916e-05
3.77601e-07
2.51551e-05
3.63625e-07
2.51392e-05
3.25866e-07
2.51006e-05
3.16525e-07
2.51186e-05
2.43505e-07
2.50892e-05
2.75253e-07
2.51196e-05
1.85436e-07
2.51132e-05
2.38498e-07
2.51574e-05
1.70019e-07
2.51838e-05
2.17166e-07
2.52425e-05
1.77549e-07
2.53058e-05
2.20631e-07
2.53846e-05
2.01082e-07
2.54688e-05
2.01913e-07
2.55698e-05
2.01533e-07
2.5669e-05
1.31716e-07
2.57956e-05
1.52786e-07
2.58885e-05
2.4736e-08
2.60349e-05
5.05445e-08
2.60994e-05
-9.77895e-08
2.626e-05
-1.22009e-07
2.62993e-05
-2.15286e-07
2.64575e-05
-3.30168e-07
2.64991e-05
-3.44769e-07
2.66317e-05
-4.80907e-07
2.67104e-05
-4.9073e-07
2.68223e-05
-5.97762e-07
2.69458e-05
-6.02225e-07
2.70401e-05
-6.97519e-07
2.7205e-05
-7.27581e-07
2.72859e-05
-7.77827e-07
2.74514e-05
-8.90582e-07
2.7568e-05
-9.12108e-07
2.77172e-05
-1.03506e-06
2.78874e-05
-1.10373e-06
2.8044e-05
-1.21756e-06
2.8273e-05
-1.34613e-06
2.84722e-05
-1.4851e-06
2.87274e-05
-1.71682e-06
2.89847e-05
-1.9272e-06
2.92386e-05
-2.2441e-06
2.94924e-05
-2.56322e-06
2.96939e-05
-2.93965e-06
2.98603e-05
-3.3323e-06
2.99564e-05
-3.74308e-06
2.99748e-05
-4.09294e-06
2.98866e-05
-4.44162e-06
2.97e-05
-4.61141e-06
2.94499e-05
-4.75457e-06
2.91536e-05
-4.64236e-06
2.8834e-05
-4.43837e-06
2.84796e-05
-3.99308e-06
2.81554e-05
-3.39739e-06
2.78605e-05
-2.66717e-06
2.7691e-05
-1.83862e-06
2.75262e-05
-9.48288e-07
2.75774e-05
-1.57115e-07
2.7608e-05
7.51567e-07
2.77706e-05
1.38009e-06
2.79712e-05
1.94361e-06
2.82015e-05
2.39706e-06
2.84168e-05
2.57123e-06
2.86695e-05
2.73776e-06
2.88254e-05
2.65368e-06
2.90542e-05
2.42819e-06
2.91879e-05
2.22158e-06
2.93749e-05
1.63634e-06
2.95643e-05
1.23396e-06
2.97112e-05
5.73313e-07
2.99862e-05
-1.20883e-07
3.01772e-05