/*--------------------------------*- C++ -*----------------------------------*\
| =========                 |                                                 |
| \\      /  F ield         | OpenFOAM: The Open Source CFD Toolbox           |
|  \\    /   O peration     | Version:  2.4.0                                 |
|   \\  /    A nd           | Web:      www.OpenFOAM.org                      |
|    \\/     M anipulation  |                                                 |
\*---------------------------------------------------------------------------*/
FoamFile
{
    version     2.0;
    format      ascii;
    class       volVectorField;
    location    "0.48";
    object      U;
}
// * * * * * * * * * * * * * * * * * * * * * * * * * * * * * * * * * * * * * //

dimensions      [0 1 -1 0 0 0 0];

internalField   nonuniform List<vector> 
8800
(
(8.09189 0.387901 0)
(5.44926 0.242537 0)
(3.91175 0.0429374 0)
(3.15697 -0.0154391 0)
(2.80101 -0.0182672 0)
(2.59796 -0.011004 0)
(2.48528 -0.00582598 0)
(2.37952 -0.00210669 0)
(2.31842 -0.00133134 0)
(2.25057 -0.00115119 0)
(2.21787 -0.000517175 0)
(2.16448 0.000540254 0)
(2.14411 -0.000916464 0)
(2.10161 0.0005769 0)
(2.07778 0.00072753 0)
(2.03261 0.00129921 0)
(2.00196 0.000405684 0)
(1.96129 8.39823e-05 0)
(1.93181 0.00954998 0)
(1.71441 -0.062416 0)
(10.0849 0.838744 0)
(9.6568 0.867548 0)
(8.87246 0.506733 0)
(8.083 0.261889 0)
(7.4928 0.138011 0)
(7.00656 0.0821579 0)
(6.69974 0.0536424 0)
(6.39685 0.0416059 0)
(6.22556 0.03003 0)
(6.02674 0.0229725 0)
(5.92596 0.0193242 0)
(5.77676 0.0194928 0)
(5.72183 0.0120158 0)
(5.59876 0.017247 0)
(5.54854 0.0159189 0)
(5.43798 0.0187273 0)
(5.38137 0.0178604 0)
(5.27353 0.0143046 0)
(5.21516 0.0369926 0)
(5.02718 -0.0461989 0)
(10.0632 0.631707 0)
(10.6573 0.863023 0)
(10.8687 0.601358 0)
(10.6926 0.374064 0)
(10.4571 0.255444 0)
(10.0855 0.19651 0)
(9.84068 0.152526 0)
(9.49478 0.125214 0)
(9.31147 0.0940871 0)
(9.04265 0.0746847 0)
(8.92044 0.0603689 0)
(8.70103 0.0549288 0)
(8.64052 0.0383084 0)
(8.4485 0.0446299 0)
(8.4059 0.0400096 0)
(8.23016 0.0420381 0)
(8.19359 0.0424516 0)
(8.01493 0.0396525 0)
(7.96137 0.0654334 0)
(7.77445 -0.045301 0)
(10.0029 0.459432 0)
(10.5675 0.703528 0)
(11.1661 0.545086 0)
(11.3784 0.35277 0)
(11.558 0.261857 0)
(11.4602 0.227687 0)
(11.4923 0.198234 0)
(11.3063 0.180299 0)
(11.2877 0.14593 0)
(11.0906 0.124889 0)
(11.071 0.108513 0)
(10.8655 0.0968233 0)
(10.8732 0.0733229 0)
(10.6595 0.0803171 0)
(10.6801 0.071342 0)
(10.4599 0.0753208 0)
(10.49 0.0638798 0)
(10.2586 0.0861234 0)
(10.2464 0.0761479 0)
(10.0122 0.0850964 0)
(10.0473 0.34493 0)
(10.4005 0.570194 0)
(11.0407 0.459674 0)
(11.3084 0.295613 0)
(11.6646 0.206979 0)
(11.6754 0.194238 0)
(11.877 0.174882 0)
(11.8299 0.177858 0)
(11.9796 0.14417 0)
(11.9014 0.129366 0)
(12.0274 0.114058 0)
(11.9322 0.113671 0)
(12.0453 0.0811734 0)
(11.9157 0.103263 0)
(12.0256 0.0800068 0)
(11.8757 0.103181 0)
(11.9609 0.0694856 0)
(11.8128 0.121278 0)
(11.8157 0.0854672 0)
(11.664 0.139934 0)
(10.0566 0.258128 0)
(10.3237 0.448703 0)
(10.8938 0.378805 0)
(11.1743 0.242838 0)
(11.5396 0.166526 0)
(11.608 0.151514 0)
(11.8116 0.140261 0)
(11.8281 0.144711 0)
(11.9858 0.120871 0)
(12.0075 0.111736 0)
(12.1184 0.0991428 0)
(12.1831 0.0930144 0)
(12.2626 0.0723343 0)
(12.301 0.0849551 0)
(12.3764 0.0837113 0)
(12.3983 0.0868443 0)
(12.4636 0.073137 0)
(12.4741 0.103523 0)
(12.4715 0.0920019 0)
(12.4301 0.0651419 0)
(10.0323 0.169484 0)
(10.283 0.361093 0)
(10.7677 0.285955 0)
(11.0767 0.208974 0)
(11.4288 0.110386 0)
(11.5478 0.122945 0)
(11.7009 0.0972939 0)
(11.7439 0.130156 0)
(11.89 0.0838573 0)
(11.9344 0.0903295 0)
(12.0456 0.0675603 0)
(12.0949 0.0786964 0)
(12.239 0.049967 0)
(12.2647 0.0743739 0)
(12.3671 0.0530693 0)
(12.3976 0.0754606 0)
(12.4625 0.0509251 0)
(12.5487 0.0812084 0)
(12.5581 0.0709142 0)
(12.5124 0.0172774 0)
(10.0023 0.123141 0)
(10.2747 0.239395 0)
(10.6507 0.215146 0)
(11.0679 0.138398 0)
(11.275 0.0880457 0)
(11.5545 0.078175 0)
(11.5532 0.0830714 0)
(11.7452 0.0725719 0)
(11.807 0.0718507 0)
(11.87 0.0615804 0)
(11.9747 0.0611725 0)
(12.0343 0.0378735 0)
(12.1281 0.0335279 0)
(12.2163 0.0476677 0)
(12.3272 0.0575286 0)
(12.278 0.0484317 0)
(12.4366 0.0269063 0)
(12.4264 0.0497895 0)
(12.543 0.0379307 0)
(12.4738 0.016245 0)
(9.99615 0.0562805 0)
(10.2461 0.162773 0)
(10.6306 0.113936 0)
(10.9544 0.102195 0)
(11.3124 0.0334147 0)
(11.3984 0.0624862 0)
(11.6558 0.0393452 0)
(11.6069 0.0536205 0)
(11.7768 0.0380849 0)
(11.8468 0.0389029 0)
(11.9069 0.0272504 0)
(12.0157 0.0412138 0)
(12.0738 0.00743276 0)
(12.1859 0.0241242 0)
(12.2427 0.033936 0)
(12.2968 0.0412493 0)
(12.3504 0.00222368 0)
(12.3962 0.0127023 0)
(12.4818 0.0126269 0)
(12.4478 -0.0241241 0)
(10 0.0299422 0)
(10.2334 0.0346201 0)
(10.595 0.0588478 0)
(10.9754 0.00991081 0)
(11.2149 0.0261425 0)
(11.4791 0.00797299 0)
(11.4991 0.0241869 0)
(11.6948 0.0155124 0)
(11.7241 0.00814735 0)
(11.8232 0.0151899 0)
(11.8986 0.0242845 0)
(11.9798 -0.00922266 0)
(12.0564 -0.00243582 0)
(12.1792 0.00162918 0)
(12.1732 0.0340189 0)
(12.2911 0.00634612 0)
(12.3546 -0.0120887 0)
(12.3999 -0.0146096 0)
(12.4069 -0.032405 0)
(12.3757 0.00784869 0)
(10.0001 -0.0306346 0)
(10.2329 -0.0352221 0)
(10.5996 -0.0513352 0)
(10.9567 -0.0170903 0)
(11.2563 -0.0373773 0)
(11.4035 0.00520539 0)
(11.598 -0.0207341 0)
(11.6274 -0.023475 0)
(11.7474 -0.00789051 0)
(11.7979 -0.015153 0)
(11.9217 -0.0105945 0)
(11.9904 0.00095783 0)
(12.0567 -0.0361513 0)
(12.0972 -0.00819205 0)
(12.2436 0.00286934 0)
(12.3105 -0.015328 0)
(12.3495 -0.035983 0)
(12.3582 -0.0355583 0)
(12.4162 -0.0314544 0)
(12.2979 -0.0279773 0)
(10.0006 -0.0582024 0)
(10.2397 -0.161304 0)
(10.6187 -0.108335 0)
(11.0006 -0.110901 0)
(11.2554 -0.036578 0)
(11.46 -0.0568858 0)
(11.5755 -0.0411826 0)
(11.6774 -0.0460887 0)
(11.7386 -0.0463708 0)
(11.8457 -0.0381407 0)
(11.9292 -0.0225387 0)
(12.0102 -0.0432007 0)
(12.0908 -0.0285179 0)
(12.1503 -0.0433748 0)
(12.2226 -0.0226568 0)
(12.316 -0.030248 0)
(12.3894 -0.0426413 0)
(12.4083 -0.0569803 0)
(12.4086 -0.075081 0)
(12.3368 -0.0369312 0)
(10.0024 -0.121707 0)
(10.2726 -0.24082 0)
(10.6645 -0.212956 0)
(11.0425 -0.143521 0)
(11.3083 -0.0934471 0)
(11.4949 -0.0677352 0)
(11.6228 -0.0778458 0)
(11.7192 -0.0874529 0)
(11.79 -0.0606728 0)
(11.8756 -0.0740351 0)
(11.9766 -0.0493303 0)
(12.0585 -0.0440023 0)
(12.1245 -0.059553 0)
(12.2009 -0.0504682 0)
(12.266 -0.0358483 0)
(12.3517 -0.0702789 0)
(12.4279 -0.0689803 0)
(12.4665 -0.0773492 0)
(12.4683 -0.0727124 0)
(12.3976 -0.0685126 0)
(10.0285 -0.172402 0)
(10.2878 -0.359087 0)
(10.7554 -0.280924 0)
(11.1067 -0.214179 0)
(11.4056 -0.112187 0)
(11.5453 -0.1198 0)
(11.6929 -0.110087 0)
(11.7709 -0.108101 0)
(11.8688 -0.0918735 0)
(11.9449 -0.095781 0)
(12.0468 -0.0651879 0)
(12.1135 -0.082312 0)
(12.21 -0.0627577 0)
(12.2657 -0.07605 0)
(12.3447 -0.0617032 0)
(12.4108 -0.0835216 0)
(12.4755 -0.0821239 0)
(12.5057 -0.102201 0)
(12.5479 -0.109716 0)
(12.4857 -0.0891498 0)
(10.068 -0.256233 0)
(10.3111 -0.449538 0)
(10.8975 -0.379251 0)
(11.1817 -0.249384 0)
(11.535 -0.162075 0)
(11.6014 -0.14872 0)
(11.8134 -0.140839 0)
(11.8194 -0.146825 0)
(11.9888 -0.115545 0)
(12.0001 -0.12523 0)
(12.1566 -0.0911648 0)
(12.1533 -0.0942743 0)
(12.2763 -0.0852332 0)
(12.2716 -0.0957124 0)
(12.3863 -0.0676573 0)
(12.3747 -0.112102 0)
(12.4562 -0.0970407 0)
(12.4411 -0.131148 0)
(12.4681 -0.120851 0)
(12.3519 -0.133521 0)
(10.0648 -0.347544 0)
(10.3818 -0.566192 0)
(11.0631 -0.461418 0)
(11.295 -0.296668 0)
(11.6661 -0.206453 0)
(11.6586 -0.191907 0)
(11.8977 -0.183477 0)
(11.8106 -0.166108 0)
(12.0028 -0.145697 0)
(11.8843 -0.14231 0)
(12.0477 -0.108143 0)
(11.9094 -0.110383 0)
(12.0471 -0.0959026 0)
(11.8991 -0.103051 0)
(12.0209 -0.0839923 0)
(11.8567 -0.113075 0)
(11.9393 -0.0973567 0)
(11.7697 -0.13741 0)
(11.7754 -0.12353 0)
(11.5406 -0.155792 0)
(10.0141 -0.458622 0)
(10.5542 -0.703512 0)
(11.1839 -0.547288 0)
(11.3583 -0.353086 0)
(11.5696 -0.259756 0)
(11.4466 -0.228121 0)
(11.5087 -0.20097 0)
(11.2821 -0.175801 0)
(11.3222 -0.147978 0)
(11.0518 -0.132346 0)
(11.1015 -0.103374 0)
(10.8329 -0.0951884 0)
(10.8902 -0.0831969 0)
(10.618 -0.0871943 0)
(10.6978 -0.065993 0)
(10.4083 -0.0915867 0)
(10.4762 -0.0766063 0)
(10.1788 -0.115812 0)
(10.1882 -0.0920334 0)
(9.84531 -0.156045 0)
(10.0663 -0.632173 0)
(10.6533 -0.86285 0)
(10.876 -0.601653 0)
(10.6807 -0.37366 0)
(10.4674 -0.255065 0)
(10.0765 -0.196559 0)
(9.84895 -0.15482 0)
(9.48063 -0.12229 0)
(9.33597 -0.0942527 0)
(9.00532 -0.0797993 0)
(8.9505 -0.0586383 0)
(8.66606 -0.0523194 0)
(8.66294 -0.0459289 0)
(8.39488 -0.0482921 0)
(8.43497 -0.0382001 0)
(8.15344 -0.0526631 0)
(8.19857 -0.0495728 0)
(7.89616 -0.069383 0)
(7.90017 -0.0681533 0)
(7.55623 -0.0865431 0)
(10.0857 -0.838634 0)
(9.65533 -0.867566 0)
(8.87504 -0.506925 0)
(8.07739 -0.261956 0)
(7.49887 -0.137709 0)
(7.00118 -0.0821587 0)
(6.70327 -0.0547171 0)
(6.38958 -0.0405771 0)
(6.23858 -0.0293119 0)
(6.00332 -0.0263894 0)
(5.9429 -0.0184699 0)
(5.75197 -0.0174074 0)
(5.73731 -0.0161742 0)
(5.55404 -0.019975 0)
(5.56673 -0.0145097 0)
(5.37117 -0.023834 0)
(5.38272 -0.0230385 0)
(5.1576 -0.032282 0)
(5.14715 -0.0362639 0)
(4.8613 -0.0171385 0)
(8.09178 -0.387963 0)
(5.44911 -0.242541 0)
(3.91212 -0.0428733 0)
(3.15561 0.0153599 0)
(2.80231 0.018315 0)
(2.59655 0.0111114 0)
(2.48605 0.00545604 0)
(2.37629 0.00233121 0)
(2.32319 0.00190558 0)
(2.2432 -7.4808e-05 0)
(2.21911 0.000859138 0)
(2.15616 0.000233214 0)
(2.14826 2.0802e-05 0)
(2.08046 -0.00143981 0)
(2.07675 0.000222158 0)
(2.00316 -0.00249004 0)
(1.99078 -0.00140965 0)
(1.89805 -0.00354401 0)
(1.86226 -0.00362466 0)
(1.717 0.0111436 0)
(2.18443 -0.130145 0)
(2.28236 -0.045204 0)
(2.40455 -0.00893728 0)
(2.51932 0.00277848 0)
(2.67536 0.00318086 0)
(2.79467 0.00457856 0)
(2.93496 0.00557124 0)
(3.00329 0.00182118 0)
(3.10211 -0.00728464 0)
(3.12416 -0.0224086 0)
(3.18174 -0.0395213 0)
(3.1764 -0.0552457 0)
(3.22039 -0.0620985 0)
(3.20843 -0.0652155 0)
(3.25697 -0.0649704 0)
(3.24184 -0.0684217 0)
(3.3142 -0.07521 0)
(3.28619 -0.0816194 0)
(3.37861 -0.0937068 0)
(3.3249 -0.0800074 0)
(3.40079 -0.0819819 0)
(3.34186 -0.0150805 0)
(3.35808 0.0171915 0)
(3.35735 0.0514012 0)
(3.37786 0.0767223 0)
(3.39042 0.0920538 0)
(3.44065 0.0994643 0)
(3.46238 0.114934 0)
(3.517 0.118633 0)
(3.53599 0.133336 0)
(3.60842 0.135492 0)
(3.65428 0.145359 0)
(3.73534 0.14474 0)
(3.77869 0.138051 0)
(3.87642 0.135299 0)
(3.88098 0.126164 0)
(4.00252 0.109778 0)
(3.98029 0.111945 0)
(4.08648 0.101078 0)
(4.04792 0.101094 0)
(4.15353 0.0917972 0)
(4.0742 0.0971453 0)
(4.18468 0.0993067 0)
(4.0995 0.122126 0)
(4.22986 0.136182 0)
(4.13534 0.166176 0)
(4.29967 0.182745 0)
(4.23495 0.215417 0)
(4.44543 0.210008 0)
(4.40673 0.254515 0)
(4.61278 0.208556 0)
(4.59402 0.254765 0)
(4.80126 0.176053 0)
(4.75354 0.205776 0)
(5.02485 0.122209 0)
(4.86337 0.12408 0)
(5.25391 0.0733363 0)
(4.93427 0.0254191 0)
(5.43876 0.0290365 0)
(5.00018 -0.0286917 0)
(5.55857 -0.0314878 0)
(5.15067 -0.00862823 0)
(5.58258 -0.0948773 0)
(5.45175 0.0326594 0)
(5.57233 -0.148389 0)
(5.82801 -0.00306639 0)
(5.6174 -0.147422 0)
(6.06849 -0.105065 0)
(5.77945 -0.100836 0)
(6.15029 -0.199993 0)
(6.06981 -0.0757102 0)
(6.18571 -0.190905 0)
(6.46965 -0.137748 0)
(6.39029 -0.158996 0)
(6.84202 -0.289176 0)
(6.73847 -0.261367 0)
(7.12032 -0.526881 0)
(7.10956 -0.537361 0)
(7.30788 -0.841077 0)
(7.39597 -0.954713 0)
(7.42734 -1.21861 0)
(7.57179 -1.40483 0)
(7.41148 -1.61174 0)
(7.45121 -1.75423 0)
(7.23975 -1.77182 0)
(7.44511 -1.73608 0)
(7.24937 -1.60058 0)
(7.41318 -1.39068 0)
(7.02056 -1.13759 0)
(7.17334 -0.807302 0)
(6.95956 -0.39567 0)
(7.18615 -0.00133811 0)
(7.00447 0.321741 0)
(7.25718 0.588482 0)
(6.91187 0.748973 0)
(7.34243 0.87663 0)
(6.89282 0.945967 0)
(7.55099 0.98125 0)
(7.10228 1.01131 0)
(7.80606 0.972129 0)
(7.47974 0.886252 0)
(8.07476 0.827912 0)
(7.88298 0.598441 0)
(8.32017 0.524944 0)
(8.25999 0.200341 0)
(8.50919 0.110473 0)
(8.56806 -0.247538 0)
(8.73565 -0.359956 0)
(8.84959 -0.708561 0)
(9.02465 -0.822994 0)
(9.13363 -1.19953 0)
(9.41811 -1.32609 0)
(9.4634 -1.70351 0)
(9.97589 -1.84897 0)
(9.93371 -2.22091 0)
(10.6842 -2.41127 0)
(10.5707 -2.78102 0)
(11.5279 -3.02605 0)
(11.2887 -3.40441 0)
(12.3445 -3.64022 0)
(11.909 -3.99533 0)
(12.9531 -4.22786 0)
(12.3269 -4.4717 0)
(13.1358 -4.62403 0)
(12.3679 -4.74954 0)
(12.9107 -4.79811 0)
(12.0709 -4.8106 0)
(12.4888 -4.72574 0)
(11.725 -4.70065 0)
(12.1204 -4.60542 0)
(11.4946 -4.5745 0)
(11.9877 -4.53328 0)
(11.519 -4.56051 0)
(11.9787 -4.45116 0)
(11.6526 -4.46507 0)
(11.8619 -4.36167 0)
(11.6858 -4.29855 0)
(11.6183 -4.1729 0)
(11.5169 -4.02229 0)
(11.2602 -3.89013 0)
(11.1013 -3.70933 0)
(10.9278 -3.47344 0)
(10.7874 -3.26427 0)
(10.6863 -2.95404 0)
(10.6972 -2.66601 0)
(10.6505 -2.28079 0)
(10.8283 -1.92191 0)
(10.9713 -1.4351 0)
(11.1243 -0.876448 0)
(11.3604 -0.332315 0)
(11.5214 0.245519 0)
(11.7714 0.868283 0)
(11.8532 1.49675 0)
(12.1039 2.07324 0)
(12.1326 2.64377 0)
(12.218 3.29211 0)
(12.0652 3.81082 0)
(12.1299 4.26151 0)
(11.707 4.69988 0)
(11.508 5.06904 0)
(11.3452 5.22809 0)
(10.632 5.3695 0)
(10.8934 5.72157 0)
(10.2526 5.78142 0)
(10.6222 6.12114 0)
(10.4928 6.16908 0)
(10.4789 6.42177 0)
(10.8994 6.54717 0)
(10.2279 6.43458 0)
(10.4325 6.39135 0)
(9.92174 6.20547 0)
(9.11318 5.69127 0)
(8.99834 5.28408 0)
(7.61972 4.8516 0)
(8.03756 4.50917 0)
(7.45125 4.5727 0)
(7.82135 4.35192 0)
(8.0474 4.34875 0)
(7.64808 3.62137 0)
(8.00021 3.47682 0)
(7.62167 2.75604 0)
(7.58875 2.69631 0)
(7.63343 1.93601 0)
(7.29402 1.89669 0)
(7.96757 1.09503 0)
(6.89247 1.05549 0)
(8.44467 0.145592 0)
(6.29398 0.46451 0)
(8.92892 -0.775186 0)
(5.73078 -0.0898948 0)
(9.37051 -1.24162 0)
(5.75533 -0.56146 0)
(9.56335 -1.91417 0)
(6.14034 -1.30613 0)
(9.36746 -2.22767 0)
(5.42605 -1.39044 0)
(8.73452 -1.22706 0)
(4.98094 0.992674 0)
(7.6933 -0.0408891 0)
(4.86783 4.12367 0)
(5.16945 -0.0745541 0)
(5.18177 -0.0419458 0)
(5.21932 -0.0349716 0)
(5.25778 -0.0473888 0)
(5.35319 -0.0618515 0)
(5.42492 -0.0651613 0)
(5.51415 -0.0621996 0)
(5.55738 -0.0545522 0)
(5.60822 -0.0547748 0)
(5.62174 -0.0634486 0)
(5.64637 -0.0750981 0)
(5.65057 -0.0887976 0)
(5.67263 -0.0951172 0)
(5.67342 -0.0961265 0)
(5.70088 -0.0957806 0)
(5.69874 -0.0894674 0)
(5.73525 -0.0920556 0)
(5.72894 -0.0822598 0)
(5.76741 -0.0807641 0)
(5.75423 -0.0639082 0)
(5.77443 -0.0476417 0)
(5.74641 -0.0164898 0)
(5.74342 0.0145938 0)
(5.71111 0.0423412 0)
(5.72288 0.0645421 0)
(5.69082 0.0822057 0)
(5.71915 0.0932962 0)
(5.68231 0.106213 0)
(5.7214 0.110375 0)
(5.67583 0.125243 0)
(5.73069 0.130765 0)
(5.678 0.133859 0)
(5.75422 0.134701 0)
(5.6862 0.128222 0)
(5.79189 0.122336 0)
(5.70753 0.115248 0)
(5.8312 0.107419 0)
(5.73925 0.0966522 0)
(5.8711 0.0942447 0)
(5.75497 0.0905458 0)
(5.90044 0.0826272 0)
(5.77369 0.0878149 0)
(5.92709 0.0792492 0)
(5.80023 0.1045 0)
(5.96601 0.0878342 0)
(5.84641 0.136353 0)
(6.03426 0.117402 0)
(5.91671 0.170886 0)
(6.17509 0.142163 0)
(6.0066 0.17652 0)
(6.37093 0.15516 0)
(6.08188 0.152782 0)
(6.59313 0.142346 0)
(6.16205 0.112221 0)
(6.80034 0.0845023 0)
(6.28417 0.0709569 0)
(6.93195 0.000318511 0)
(6.45481 0.0301656 0)
(6.97558 -0.0849511 0)
(6.65915 -0.000101574 0)
(6.96922 -0.140233 0)
(6.87391 -0.0384135 0)
(6.98207 -0.134304 0)
(7.07053 -0.106217 0)
(7.07213 -0.106091 0)
(7.23756 -0.187914 0)
(7.23655 -0.121615 0)
(7.35405 -0.234635 0)
(7.41837 -0.17507 0)
(7.45574 -0.235151 0)
(7.60667 -0.262385 0)
(7.62342 -0.216333 0)
(7.84093 -0.333573 0)
(7.9226 -0.286706 0)
(8.1352 -0.418774 0)
(8.26997 -0.46984 0)
(8.47538 -0.594129 0)
(8.60185 -0.758677 0)
(8.81465 -0.895621 0)
(8.8962 -1.10078 0)
(9.06222 -1.27855 0)
(9.08975 -1.46898 0)
(9.12738 -1.62726 0)
(9.17723 -1.67748 0)
(9.12198 -1.70408 0)
(9.17259 -1.67497 0)
(8.91289 -1.57312 0)
(8.92511 -1.4008 0)
(8.66036 -1.1039 0)
(8.80526 -0.728167 0)
(8.55992 -0.399573 0)
(8.81375 0.000614543 0)
(8.59007 0.23987 0)
(8.89483 0.582065 0)
(8.67902 0.709652 0)
(8.90837 0.926695 0)
(8.79756 0.906751 0)
(8.80825 1.02156 0)
(8.91687 0.87372 0)
(8.76857 0.928041 0)
(9.04403 0.718572 0)
(8.85922 0.6728 0)
(9.225 0.460991 0)
(9.01893 0.319324 0)
(9.47687 0.116178 0)
(9.1907 -0.0979174 0)
(9.7506 -0.309264 0)
(9.43396 -0.569649 0)
(10.0619 -0.813141 0)
(9.76171 -1.03955 0)
(10.466 -1.3401 0)
(10.2422 -1.5502 0)
(10.9488 -1.86217 0)
(10.8793 -2.10778 0)
(11.5253 -2.42099 0)
(11.616 -2.71813 0)
(12.1184 -3.00022 0)
(12.3446 -3.32902 0)
(12.5679 -3.6274 0)
(12.9286 -3.87015 0)
(12.7105 -4.17735 0)
(13.2229 -4.28598 0)
(12.5239 -4.52005 0)
(13.0787 -4.54143 0)
(12.0899 -4.63953 0)
(12.7009 -4.61811 0)
(11.6437 -4.60745 0)
(12.3605 -4.55173 0)
(11.3903 -4.61074 0)
(12.2084 -4.54284 0)
(11.4076 -4.61338 0)
(12.2264 -4.55235 0)
(11.5035 -4.57854 0)
(12.1321 -4.41814 0)
(11.3662 -4.44491 0)
(11.6701 -4.24875 0)
(11.0397 -4.19889 0)
(10.9768 -3.93416 0)
(10.5194 -3.81089 0)
(10.1042 -3.60797 0)
(9.77702 -3.40902 0)
(9.39848 -3.25891 0)
(9.12636 -3.00403 0)
(8.96563 -2.79953 0)
(8.90154 -2.57371 0)
(8.93514 -2.30259 0)
(9.1425 -1.93215 0)
(9.40738 -1.51553 0)
(9.72676 -1.02993 0)
(9.97081 -0.520163 0)
(10.2573 0.109362 0)
(10.5462 0.746402 0)
(10.7538 1.26661 0)
(10.9968 1.97334 0)
(11.3398 2.53866 0)
(11.4332 3.17089 0)
(11.7097 3.73795 0)
(11.5847 4.38293 0)
(11.8753 4.83474 0)
(11.3687 5.16467 0)
(11.4154 5.60006 0)
(10.9568 5.66378 0)
(10.7278 5.7253 0)
(10.6506 5.9083 0)
(10.0747 5.86918 0)
(10.6242 6.32115 0)
(10.1809 6.32381 0)
(10.5063 6.55044 0)
(10.7756 6.67747 0)
(10.1777 6.48856 0)
(10.8499 6.47312 0)
(10.0903 6.18407 0)
(9.86095 5.67188 0)
(9.62042 5.22761 0)
(8.49027 4.86409 0)
(9.16642 4.64782 0)
(8.21597 4.39836 0)
(8.81539 4.1227 0)
(8.80933 3.8634 0)
(8.31764 3.45102 0)
(9.21495 2.81732 0)
(7.63605 2.69246 0)
(9.6272 1.84955 0)
(7.29532 1.97224 0)
(10.2459 0.978841 0)
(7.15326 1.33952 0)
(10.5117 -0.408463 0)
(6.93988 0.755139 0)
(10.8376 -1.35858 0)
(6.98639 0.374591 0)
(11.0022 -2.14878 0)
(7.07467 -0.011643 0)
(10.92 -2.92704 0)
(6.93065 -0.571405 0)
(10.2601 -3.452 0)
(6.79255 0.0674211 0)
(9.45322 -2.92889 0)
(6.78347 1.02715 0)
(10.3507 -0.406268 0)
(8.19315 4.13411 0)
(7.81442 -0.0964901 0)
(7.81455 -0.0930499 0)
(7.82879 -0.0990865 0)
(7.86796 -0.102767 0)
(7.94308 -0.0950928 0)
(8.01091 -0.0819233 0)
(8.06983 -0.0698325 0)
(8.09928 -0.0620789 0)
(8.11713 -0.057504 0)
(8.1214 -0.0636508 0)
(8.12086 -0.0701225 0)
(8.12428 -0.0840509 0)
(8.12472 -0.0917319 0)
(8.12821 -0.0914859 0)
(8.13741 -0.0980734 0)
(8.13405 -0.0901678 0)
(8.15341 -0.0904841 0)
(8.13703 -0.0833343 0)
(8.16326 -0.0740329 0)
(8.1343 -0.0611225 0)
(8.16206 -0.0427841 0)
(8.11489 -0.015115 0)
(8.14226 0.0105264 0)
(8.07498 0.0414121 0)
(8.11254 0.0693424 0)
(8.03335 0.0864584 0)
(8.09119 0.105186 0)
(8.00002 0.115208 0)
(8.08006 0.125564 0)
(7.97366 0.131844 0)
(8.06904 0.140058 0)
(7.95226 0.133948 0)
(8.05427 0.138304 0)
(7.94097 0.129775 0)
(8.03885 0.123003 0)
(7.94464 0.122309 0)
(8.02429 0.102849 0)
(7.95445 0.105842 0)
(8.02006 0.0815013 0)
(7.95516 0.0894508 0)
(8.01627 0.0715273 0)
(7.95255 0.0758044 0)
(8.03093 0.0710751 0)
(7.94755 0.0761993 0)
(8.07684 0.0819029 0)
(7.95188 0.0871256 0)
(8.16043 0.104731 0)
(7.96768 0.105239 0)
(8.28643 0.115919 0)
(8.01681 0.114398 0)
(8.43672 0.0982614 0)
(8.09795 0.116349 0)
(8.57508 0.0553093 0)
(8.21382 0.0977553 0)
(8.68597 -0.0019289 0)
(8.36413 0.0449459 0)
(8.76215 -0.0537682 0)
(8.5228 -0.0293761 0)
(8.80845 -0.0897176 0)
(8.6799 -0.100045 0)
(8.84467 -0.111912 0)
(8.82733 -0.149325 0)
(8.90834 -0.132749 0)
(8.95203 -0.178435 0)
(9.02253 -0.162271 0)
(9.06385 -0.209625 0)
(9.16661 -0.215394 0)
(9.17024 -0.241391 0)
(9.30544 -0.272735 0)
(9.27631 -0.281266 0)
(9.45627 -0.32443 0)
(9.4232 -0.338178 0)
(9.65395 -0.387285 0)
(9.66082 -0.443605 0)
(9.90881 -0.507616 0)
(9.95635 -0.606291 0)
(10.1909 -0.720881 0)
(10.2618 -0.847708 0)
(10.4851 -1.00824 0)
(10.5198 -1.16477 0)
(10.7005 -1.33875 0)
(10.6604 -1.48965 0)
(10.7785 -1.60917 0)
(10.6473 -1.68595 0)
(10.6757 -1.73744 0)
(10.4324 -1.6797 0)
(10.4785 -1.56627 0)
(10.2047 -1.29836 0)
(10.2998 -1.05114 0)
(9.99614 -0.703356 0)
(10.1851 -0.406607 0)
(9.91266 -0.0416177 0)
(10.231 0.254736 0)
(9.95183 0.507252 0)
(10.3819 0.746182 0)
(10.0091 0.893159 0)
(10.5229 0.958969 0)
(10.0583 1.01041 0)
(10.6013 0.957143 0)
(10.1321 0.886263 0)
(10.6071 0.805801 0)
(10.2616 0.615512 0)
(10.6535 0.499856 0)
(10.4083 0.256893 0)
(10.7828 0.0927088 0)
(10.589 -0.192929 0)
(10.9642 -0.37476 0)
(10.8798 -0.683864 0)
(11.2639 -0.909354 0)
(11.2515 -1.17792 0)
(11.7018 -1.47683 0)
(11.6763 -1.7143 0)
(12.2096 -2.06368 0)
(12.1485 -2.30021 0)
(12.717 -2.65227 0)
(12.5793 -2.92315 0)
(13.1247 -3.2116 0)
(12.8469 -3.5093 0)
(13.2722 -3.72821 0)
(12.9275 -3.9774 0)
(13.0465 -4.1329 0)
(12.7824 -4.25095 0)
(12.5172 -4.399 0)
(12.4916 -4.36999 0)
(11.9622 -4.47408 0)
(12.2546 -4.44356 0)
(11.6111 -4.50981 0)
(12.2068 -4.53398 0)
(11.4708 -4.6133 0)
(12.3392 -4.57731 0)
(11.417 -4.63037 0)
(12.3205 -4.52974 0)
(11.2101 -4.48913 0)
(11.9164 -4.29189 0)
(10.6122 -4.22593 0)
(11.0708 -3.96017 0)
(9.84901 -3.80179 0)
(9.93586 -3.49313 0)
(8.92701 -3.37755 0)
(8.52776 -3.158 0)
(7.90716 -3.00041 0)
(7.33876 -2.90313 0)
(7.12036 -2.68574 0)
(6.96488 -2.65498 0)
(6.93869 -2.54097 0)
(7.28146 -2.3471 0)
(7.66495 -2.07734 0)
(8.04738 -1.74866 0)
(8.51966 -1.19216 0)
(8.73837 -0.689332 0)
(9.14418 -0.115643 0)
(9.29944 0.531174 0)
(9.65277 1.16532 0)
(9.76971 1.73296 0)
(10.1662 2.41759 0)
(10.4093 2.90834 0)
(10.7869 3.6547 0)
(10.9597 4.10304 0)
(11.1785 4.78475 0)
(11.3676 5.23637 0)
(11.0811 5.65775 0)
(11.2951 5.95511 0)
(10.4455 6.11809 0)
(10.8015 6.19672 0)
(10.2547 6.12905 0)
(10.0494 6.09856 0)
(10.7054 6.29548 0)
(9.9467 6.27369 0)
(10.7407 6.65687 0)
(10.6993 6.43733 0)
(10.0748 6.55605 0)
(11.0894 6.32607 0)
(9.73312 6.06802 0)
(10.2787 5.61409 0)
(9.63543 4.98489 0)
(8.76135 4.76008 0)
(9.98025 4.04084 0)
(7.90321 4.33561 0)
(10.5809 3.21548 0)
(7.81132 3.74886 0)
(11.0386 2.39026 0)
(7.77282 3.02675 0)
(11.2041 1.35612 0)
(7.87402 2.26445 0)
(11.2915 0.238308 0)
(8.32462 1.73753 0)
(11.2954 -0.664382 0)
(8.61062 1.11925 0)
(10.8935 -1.75116 0)
(8.45081 0.693932 0)
(10.5508 -2.3115 0)
(8.0985 0.377913 0)
(9.96244 -2.87895 0)
(7.20761 0.195149 0)
(9.4058 -3.12978 0)
(6.57157 0.228627 0)
(9.28326 -2.34106 0)
(7.01617 1.15523 0)
(9.21817 -1.15049 0)
(8.66869 2.91872 0)
(10.0218 -0.128266 0)
(10.0457 -0.227541 0)
(10.0764 -0.255257 0)
(10.1235 -0.234387 0)
(10.1824 -0.183694 0)
(10.2254 -0.140006 0)
(10.2581 -0.100215 0)
(10.274 -0.0767243 0)
(10.2738 -0.0600212 0)
(10.2762 -0.0658623 0)
(10.2525 -0.0702249 0)
(10.2549 -0.0920318 0)
(10.2336 -0.0993025 0)
(10.2391 -0.101087 0)
(10.2334 -0.106918 0)
(10.23 -0.0922846 0)
(10.244 -0.0969753 0)
(10.2142 -0.0805485 0)
(10.2405 -0.0746514 0)
(10.1934 -0.0630498 0)
(10.2335 -0.0372369 0)
(10.1706 -0.0144392 0)
(10.2211 0.0244282 0)
(10.1475 0.0449201 0)
(10.1946 0.0882043 0)
(10.1189 0.0972209 0)
(10.1575 0.122029 0)
(10.0954 0.131867 0)
(10.1308 0.130626 0)
(10.0854 0.153714 0)
(10.1115 0.138781 0)
(10.0868 0.151916 0)
(10.0945 0.145265 0)
(10.0963 0.138559 0)
(10.0715 0.138808 0)
(10.102 0.123565 0)
(10.0485 0.120243 0)
(10.0939 0.104885 0)
(10.0388 0.10274 0)
(10.0797 0.0795801 0)
(10.0403 0.0894344 0)
(10.0656 0.0644392 0)
(10.054 0.0813301 0)
(10.0533 0.0624368 0)
(10.0944 0.0803286 0)
(10.0511 0.0668026 0)
(10.1567 0.0822414 0)
(10.0636 0.0794933 0)
(10.2363 0.0717896 0)
(10.1067 0.0871799 0)
(10.3349 0.0487001 0)
(10.1817 0.0727375 0)
(10.4254 0.0175338 0)
(10.2823 0.0376491 0)
(10.499 -0.0162327 0)
(10.397 -0.0208014 0)
(10.5686 -0.0553544 0)
(10.509 -0.0897087 0)
(10.6248 -0.100775 0)
(10.6145 -0.139454 0)
(10.6802 -0.150597 0)
(10.7014 -0.181232 0)
(10.7677 -0.183231 0)
(10.7741 -0.218109 0)
(10.8727 -0.222612 0)
(10.8639 -0.240209 0)
(10.9825 -0.280044 0)
(10.9648 -0.276049 0)
(11.0868 -0.327019 0)
(11.0754 -0.336578 0)
(11.1952 -0.376506 0)
(11.2161 -0.414783 0)
(11.3542 -0.450126 0)
(11.4052 -0.529575 0)
(11.5645 -0.585978 0)
(11.6227 -0.699451 0)
(11.7923 -0.793461 0)
(11.8291 -0.931809 0)
(11.9892 -1.06318 0)
(11.9771 -1.22446 0)
(12.0886 -1.3526 0)
(11.9908 -1.51063 0)
(12.0326 -1.57979 0)
(11.8172 -1.68758 0)
(11.8251 -1.63403 0)
(11.5275 -1.58324 0)
(11.5649 -1.40151 0)
(11.2091 -1.22025 0)
(11.2463 -0.970409 0)
(10.9711 -0.678666 0)
(11.0538 -0.370784 0)
(10.9061 -0.0361838 0)
(11.0145 0.218806 0)
(11.004 0.487908 0)
(11.1288 0.652282 0)
(11.2084 0.858577 0)
(11.2936 0.898885 0)
(11.4438 0.996396 0)
(11.4418 0.938033 0)
(11.6679 0.891422 0)
(11.5411 0.796275 0)
(11.8379 0.609579 0)
(11.6813 0.468543 0)
(11.9751 0.233129 0)
(11.8493 0.014495 0)
(12.1328 -0.256101 0)
(12.0558 -0.458231 0)
(12.3749 -0.781462 0)
(12.3106 -0.993657 0)
(12.6715 -1.34085 0)
(12.616 -1.56458 0)
(12.9406 -1.91332 0)
(12.9373 -2.17769 0)
(13.1506 -2.46395 0)
(13.1693 -2.77579 0)
(13.2159 -3.0092 0)
(13.2692 -3.29731 0)
(13.0432 -3.49401 0)
(13.1445 -3.70927 0)
(12.7036 -3.87643 0)
(12.7811 -3.98037 0)
(12.2993 -4.11534 0)
(12.3692 -4.17775 0)
(12.0251 -4.21807 0)
(12.028 -4.33438 0)
(11.9645 -4.37559 0)
(11.8743 -4.51505 0)
(12.038 -4.55681 0)
(11.7334 -4.62521 0)
(12.0953 -4.59331 0)
(11.3823 -4.55689 0)
(11.838 -4.41321 0)
(10.7193 -4.21503 0)
(11.1432 -3.98443 0)
(9.53901 -3.79155 0)
(9.99499 -3.45782 0)
(8.22328 -3.23779 0)
(8.54 -2.92972 0)
(6.80457 -2.82599 0)
(6.69995 -2.53739 0)
(5.495 -2.49488 0)
(5.10456 -2.46673 0)
(5.12791 -2.46514 0)
(5.12612 -2.67759 0)
(5.56727 -2.89228 0)
(6.28618 -2.70154 0)
(6.80909 -2.58187 0)
(7.36366 -2.12971 0)
(7.74707 -1.61868 0)
(8.08579 -0.938209 0)
(8.3569 -0.326323 0)
(8.54108 0.325053 0)
(8.70183 1.0124 0)
(8.91452 1.58603 0)
(9.06813 2.26941 0)
(9.3178 2.81565 0)
(9.58862 3.4039 0)
(10.0314 4.02777 0)
(10.1883 4.48903 0)
(10.6832 5.13123 0)
(10.6928 5.45997 0)
(10.9323 6.05312 0)
(10.9078 6.14832 0)
(10.2525 6.27865 0)
(10.7091 6.46052 0)
(9.66637 6.16941 0)
(10.1139 6.40777 0)
(10.3065 6.29642 0)
(9.9013 6.36315 0)
(11.2051 6.60209 0)
(10.3912 6.4767 0)
(11.1542 6.53754 0)
(11.3422 6.14273 0)
(10.1611 6.22685 0)
(11.9699 5.21705 0)
(8.90343 5.588 0)
(12.0192 4.04342 0)
(8.24309 4.71382 0)
(11.9581 2.9943 0)
(7.93357 3.82313 0)
(12.0308 2.17564 0)
(8.20544 3.18948 0)
(12.001 1.17348 0)
(8.31319 2.24523 0)
(11.8057 0.172867 0)
(8.50469 1.68377 0)
(11.5156 -0.8134 0)
(8.63147 1.16549 0)
(10.965 -1.4003 0)
(8.05894 0.646462 0)
(10.2931 -2.0079 0)
(7.6409 0.548058 0)
(9.78927 -2.28337 0)
(7.22314 0.0456681 0)
(9.75491 -2.4494 0)
(7.3206 0.299845 0)
(9.17009 -1.90011 0)
(7.3862 0.973251 0)
(8.9496 -0.693373 0)
(7.76223 1.51738 0)
(11.5307 -0.111163 0)
(11.5751 -0.251347 0)
(11.685 -0.287571 0)
(11.7772 -0.273012 0)
(11.8267 -0.207505 0)
(11.8639 -0.152989 0)
(11.8333 -0.110585 0)
(11.8492 -0.0856788 0)
(11.7955 -0.0695394 0)
(11.8244 -0.0724305 0)
(11.7722 -0.0650246 0)
(11.8127 -0.0812913 0)
(11.7616 -0.0866528 0)
(11.7842 -0.0858418 0)
(11.7472 -0.101187 0)
(11.742 -0.0901456 0)
(11.7517 -0.0878868 0)
(11.7207 -0.0800909 0)
(11.7522 -0.0564945 0)
(11.7154 -0.0514105 0)
(11.7308 -0.0260655 0)
(11.7062 -0.00390006 0)
(11.6915 0.0186481 0)
(11.6924 0.0442705 0)
(11.6657 0.0779604 0)
(11.6937 0.0970738 0)
(11.6499 0.120969 0)
(11.706 0.140013 0)
(11.6448 0.137038 0)
(11.708 0.15361 0)
(11.6439 0.150148 0)
(11.7138 0.138063 0)
(11.6422 0.157048 0)
(11.7472 0.131563 0)
(11.6319 0.146456 0)
(11.7753 0.130902 0)
(11.6312 0.129182 0)
(11.7699 0.115573 0)
(11.635 0.114753 0)
(11.755 0.0823294 0)
(11.6317 0.0952948 0)
(11.7514 0.0588663 0)
(11.6294 0.0749288 0)
(11.7566 0.0522485 0)
(11.6504 0.0606823 0)
(11.7665 0.0533041 0)
(11.6948 0.0596828 0)
(11.7848 0.0554921 0)
(11.7541 0.0591479 0)
(11.8277 0.0511031 0)
(11.8278 0.042987 0)
(11.8887 0.0308775 0)
(11.9052 0.00281856 0)
(11.953 -0.00458122 0)
(11.9715 -0.0427353 0)
(12.0129 -0.0594551 0)
(12.0146 -0.084532 0)
(12.0757 -0.127704 0)
(12.0462 -0.125938 0)
(12.1293 -0.173827 0)
(12.0962 -0.176103 0)
(12.1792 -0.204831 0)
(12.1752 -0.220085 0)
(12.2431 -0.236133 0)
(12.2605 -0.263437 0)
(12.3213 -0.270181 0)
(12.3403 -0.30785 0)
(12.4033 -0.326614 0)
(12.4034 -0.348228 0)
(12.4822 -0.394121 0)
(12.4731 -0.415244 0)
(12.5752 -0.464602 0)
(12.5787 -0.513848 0)
(12.7022 -0.57866 0)
(12.7097 -0.662463 0)
(12.8547 -0.747568 0)
(12.8259 -0.865659 0)
(12.9773 -0.969726 0)
(12.8861 -1.10531 0)
(13.016 -1.22217 0)
(12.824 -1.35184 0)
(12.9113 -1.44009 0)
(12.5956 -1.52355 0)
(12.6406 -1.52259 0)
(12.2486 -1.49964 0)
(12.2476 -1.39751 0)
(11.8252 -1.28731 0)
(11.8422 -1.09562 0)
(11.4691 -0.862634 0)
(11.5765 -0.605348 0)
(11.3016 -0.28803 0)
(11.4758 -0.073762 0)
(11.2792 0.248126 0)
(11.537 0.390621 0)
(11.449 0.619069 0)
(11.7373 0.726754 0)
(11.7195 0.831503 0)
(11.9932 0.858513 0)
(12.0376 0.87198 0)
(12.2838 0.779975 0)
(12.3093 0.732617 0)
(12.5247 0.530786 0)
(12.5701 0.39565 0)
(12.7127 0.171767 0)
(12.7725 -0.0716164 0)
(12.9051 -0.296539 0)
(12.9567 -0.57039 0)
(13.0874 -0.810672 0)
(13.0856 -1.1348 0)
(13.2846 -1.37837 0)
(13.1728 -1.68868 0)
(13.3969 -1.966 0)
(13.1962 -2.23115 0)
(13.3951 -2.53233 0)
(13.0913 -2.74442 0)
(13.2252 -3.03656 0)
(12.9087 -3.20374 0)
(12.8518 -3.44156 0)
(12.6383 -3.57022 0)
(12.4467 -3.73242 0)
(12.331 -3.82642 0)
(12.1322 -3.95406 0)
(12.1369 -4.04224 0)
(11.9635 -4.1798 0)
(12.0506 -4.29306 0)
(11.8677 -4.41079 0)
(11.9952 -4.51096 0)
(11.7472 -4.55953 0)
(11.7199 -4.56049 0)
(11.5189 -4.4577 0)
(11.0863 -4.35784 0)
(10.9334 -4.02973 0)
(10.0513 -3.77319 0)
(9.78489 -3.45884 0)
(8.30182 -3.17901 0)
(8.32757 -2.78529 0)
(6.47553 -2.56975 0)
(6.69673 -2.21327 0)
(4.48196 -2.09032 0)
(4.53105 -1.73184 0)
(2.85084 -1.97369 0)
(3.43565 -2.31764 0)
(3.69075 -2.72106 0)
(4.2228 -3.28699 0)
(4.93922 -3.59459 0)
(5.72586 -3.37022 0)
(6.1809 -3.20135 0)
(6.72041 -2.60925 0)
(7.03421 -1.97043 0)
(7.56331 -1.32996 0)
(7.62362 -0.515643 0)
(8.08411 0.105317 0)
(7.97274 0.807628 0)
(8.33552 1.4221 0)
(8.23595 1.94371 0)
(8.61524 2.70045 0)
(8.51452 3.17463 0)
(9.07931 3.76462 0)
(9.13313 4.35111 0)
(9.65075 4.91069 0)