/*--------------------------------*- C++ -*----------------------------------*\
| =========                 |                                                 |
| \\      /  F ield         | OpenFOAM: The Open Source CFD Toolbox           |
|  \\    /   O peration     | Version:  2.4.0                                 |
|   \\  /    A nd           | Web:      www.OpenFOAM.org                      |
|    \\/     M anipulation  |                                                 |
\*---------------------------------------------------------------------------*/
FoamFile
{
    version     2.0;
    format      ascii;
    class       volVectorField;
    location    "0.48";
    object      UMean;
}
// * * * * * * * * * * * * * * * * * * * * * * * * * * * * * * * * * * * * * //

dimensions      [0 1 -1 0 0 0 0];

internalField   nonuniform List<vector> 
8800
(
(8.09364 0.3864 0)
(5.47044 0.24206 0)
(3.9424 0.0432561 0)
(3.19178 -0.0151082 0)
(2.83922 -0.018101 0)
(2.63861 -0.0109146 0)
(2.52829 -0.00564742 0)
(2.42556 -0.00219679 0)
(2.36915 -0.00155434 0)
(2.29973 -0.000425773 0)
(2.27147 -0.000788344 0)
(2.21924 0.000144506 0)
(2.20222 -0.000284305 0)
(2.15562 0.000740429 0)
(2.13785 0.000146936 0)
(2.09343 0.00143611 0)
(2.0672 0.000245815 0)
(2.02186 0.00156694 0)
(2.00508 0.0039468 0)
(1.83488 -0.0436552 0)
(10.0768 0.834393 0)
(9.66003 0.862586 0)
(8.88544 0.503351 0)
(8.1024 0.259618 0)
(7.51994 0.136409 0)
(7.03803 0.080917 0)
(6.73697 0.0525943 0)
(6.441 0.0396756 0)
(6.27992 0.0284104 0)
(6.07595 0.0238445 0)
(5.99358 0.0172694 0)
(5.83972 0.017599 0)
(5.79544 0.0134834 0)
(5.66702 0.0167367 0)
(5.63071 0.0136492 0)
(5.51788 0.0177685 0)
(5.46847 0.0185678 0)
(5.36321 0.0140007 0)
(5.30776 0.0316023 0)
(5.17025 -0.0377857 0)
(10.0562 0.628917 0)
(10.6537 0.857757 0)
(10.8675 0.596402 0)
(10.6905 0.369904 0)
(10.461 0.25226 0)
(10.0911 0.193751 0)
(9.85121 0.149804 0)
(9.50941 0.120429 0)
(9.3423 0.0906496 0)
(9.06021 0.0747601 0)
(8.96761 0.0554733 0)
(8.73691 0.0516606 0)
(8.69312 0.0394453 0)
(8.49418 0.043165 0)
(8.47074 0.0347421 0)
(8.28935 0.0420555 0)
(8.26337 0.0396801 0)
(8.0857 0.0437658 0)
(8.04343 0.0507732 0)
(7.86936 -0.0201926 0)
(9.99756 0.455585 0)
(10.5628 0.701063 0)
(11.1641 0.541345 0)
(11.3663 0.348973 0)
(11.5486 0.257828 0)
(11.448 0.224604 0)
(11.4833 0.195656 0)
(11.2889 0.173493 0)
(11.2926 0.142438 0)
(11.0715 0.124223 0)
(11.0823 0.0992785 0)
(10.8596 0.092336 0)
(10.8853 0.0745921 0)
(10.6651 0.0772238 0)
(10.6997 0.0634075 0)
(10.4796 0.0739943 0)
(10.5128 0.0622352 0)
(10.2854 0.0847889 0)
(10.2903 0.0645529 0)
(10.0514 0.0909681 0)
(10.0413 0.345416 0)
(10.398 0.564062 0)
(11.0428 0.457219 0)
(11.2954 0.291742 0)
(11.6476 0.205263 0)
(11.6579 0.190545 0)
(11.869 0.173657 0)
(11.8008 0.168384 0)
(11.9692 0.1398 0)
(11.8682 0.132893 0)
(12.016 0.104142 0)
(11.8948 0.107768 0)
(12.0266 0.0824262 0)
(11.8896 0.0979747 0)
(12.004 0.0723297 0)
(11.8537 0.0999148 0)
(11.9459 0.0703475 0)
(11.7827 0.115948 0)
(11.8311 0.0719991 0)
(11.6229 0.131411 0)
(10.0516 0.251752 0)
(10.3159 0.452373 0)
(10.8942 0.374372 0)
(11.1731 0.24548 0)
(11.5212 0.158984 0)
(11.5932 0.149326 0)
(11.7931 0.139021 0)
(11.8048 0.140803 0)
(11.969 0.116125 0)
(11.9724 0.112952 0)
(12.1201 0.0880471 0)
(12.1198 0.0917117 0)
(12.2506 0.0726084 0)
(12.2456 0.0843261 0)
(12.3565 0.0696086 0)
(12.3463 0.0868445 0)
(12.4331 0.0756077 0)
(12.4153 0.0963947 0)
(12.4594 0.0793808 0)
(12.3678 0.0562161 0)
(10.0102 0.174052 0)
(10.2967 0.351672 0)
(10.7515 0.287011 0)
(11.1048 0.203958 0)
(11.3865 0.116658 0)
(11.5423 0.114144 0)
(11.6699 0.103015 0)
(11.7531 0.114095 0)
(11.8491 0.0868985 0)
(11.9266 0.0917188 0)
(12.015 0.064164 0)
(12.0903 0.0738272 0)
(12.1705 0.0518611 0)
(12.2411 0.0679902 0)
(12.3115 0.0507933 0)
(12.3763 0.0706237 0)
(12.4353 0.0561371 0)
(12.4894 0.0744502 0)
(12.5171 0.0491777 0)
(12.4764 0.0153715 0)
(9.99829 0.114396 0)
(10.2625 0.249168 0)
(10.6725 0.20424 0)
(11.0313 0.151161 0)
(11.3119 0.082152 0)
(11.4815 0.0777967 0)
(11.6062 0.0732614 0)
(11.6884 0.0813224 0)
(11.7821 0.0634499 0)
(11.8577 0.0644269 0)
(11.9487 0.0465448 0)
(12.0203 0.0504648 0)
(12.1067 0.0377306 0)
(12.1714 0.0458273 0)
(12.2511 0.0371903 0)
(12.3074 0.0466658 0)
(12.3795 0.0389361 0)
(12.4207 0.0436819 0)
(12.4617 0.0245336 0)
(12.3958 -0.0124572 0)
(9.98887 0.0641636 0)
(10.2442 0.148557 0)
(10.6175 0.122136 0)
(10.9882 0.0924484 0)
(11.2581 0.0481891 0)
(11.4486 0.0465532 0)
(11.5602 0.0430004 0)
(11.6539 0.0498645 0)
(11.733 0.037937 0)
(11.8212 0.0392521 0)
(11.8986 0.0271612 0)
(11.984 0.0302736 0)
(12.0566 0.021574 0)
(12.1356 0.026995 0)
(12.2004 0.0203035 0)
(12.2712 0.0256043 0)
(12.3265 0.0178495 0)
(12.3821 0.0178374 0)
(12.4012 0.000258931 0)
(12.3451 -0.0298098 0)
(9.99442 0.0206264 0)
(10.2257 0.0493086 0)
(10.6002 0.0407777 0)
(10.9574 0.0307864 0)
(11.2408 0.0160786 0)
(11.4236 0.0152095 0)
(11.5464 0.0143589 0)
(11.6289 0.0163679 0)
(11.7171 0.0127657 0)
(11.7952 0.012553 0)
(11.8826 0.00877898 0)
(11.9581 0.00893483 0)
(12.0408 0.00632112 0)
(12.1096 0.00667343 0)
(12.1844 0.0039642 0)
(12.2448 0.002793 0)
(12.3094 -0.00206744 0)
(12.3534 -0.00797832 0)
(12.3795 -0.0206765 0)
(12.3089 -0.0441769 0)
(9.99173 -0.0220436 0)
(10.2284 -0.0475477 0)
(10.5975 -0.0424397 0)
(10.9601 -0.0293043 0)
(11.2381 -0.017737 0)
(11.4262 -0.0138091 0)
(11.5439 -0.0161674 0)
(11.6311 -0.0151627 0)
(11.7148 -0.0147866 0)
(11.7973 -0.0119437 0)
(11.8802 -0.011687 0)
(11.9601 -0.00984107 0)
(12.0382 -0.0113985 0)
(12.1114 -0.0110252 0)
(12.1817 -0.0149253 0)
(12.2458 -0.0170269 0)
(12.3058 -0.0242024 0)
(12.3529 -0.0299854 0)
(12.3741 -0.042934 0)
(12.3049 -0.053564 0)
(9.99084 -0.0654144 0)
(10.2421 -0.14707 0)
(10.6194 -0.123541 0)
(10.9861 -0.0911727 0)
(11.2598 -0.0495801 0)
(11.4467 -0.0455674 0)
(11.5617 -0.0444882 0)
(11.6523 -0.0490723 0)
(11.7342 -0.0396432 0)
(11.8195 -0.0390922 0)
(11.8997 -0.0297997 0)
(11.9821 -0.0316462 0)
(12.0573 -0.0263314 0)
(12.1329 -0.031815 0)
(12.2002 -0.0307658 0)
(12.267 -0.0400035 0)
(12.3238 -0.0433994 0)
(12.3738 -0.0559194 0)
(12.3923 -0.0626396 0)
(12.3274 -0.0666748 0)
(9.99617 -0.115626 0)
(10.2646 -0.247566 0)
(10.67 -0.205731 0)
(11.0336 -0.14958 0)
(11.3092 -0.0836112 0)
(11.4838 -0.0763414 0)
(11.6036 -0.074996 0)
(11.6907 -0.0799203 0)
(11.7793 -0.0654938 0)
(11.8599 -0.0637025 0)
(11.9454 -0.0495085 0)
(12.0223 -0.0512336 0)
(12.1026 -0.0428891 0)
(12.1726 -0.0499001 0)
(12.245 -0.0480098 0)
(12.3064 -0.0598002 0)
(12.3688 -0.0642815 0)
(12.4136 -0.0796334 0)
(12.4402 -0.0867075 0)
(12.3731 -0.079584 0)
(10.0144 -0.175476 0)
(10.2924 -0.349933 0)
(10.7551 -0.288817 0)
(11.1011 -0.202195 0)
(11.3898 -0.11849 0)
(11.5388 -0.112299 0)
(11.6732 -0.10512 0)
(11.7497 -0.112378 0)
(11.8521 -0.0895915 0)
(11.9231 -0.0905324 0)
(12.0176 -0.067797 0)
(12.0862 -0.0740371 0)
(12.1723 -0.0577876 0)
(12.2356 -0.0715088 0)
(12.3109 -0.0622961 0)
(12.3669 -0.0824434 0)
(12.4288 -0.0812438 0)
(12.4699 -0.107198 0)
(12.4953 -0.109414 0)
(12.4318 -0.106173 0)
(10.0525 -0.252148 0)
(10.3151 -0.451867 0)
(10.8941 -0.374873 0)
(11.1732 -0.245357 0)
(11.5206 -0.159287 0)
(11.5936 -0.149309 0)
(11.7921 -0.139196 0)
(11.8055 -0.141511 0)
(11.9674 -0.116376 0)
(11.9731 -0.114588 0)
(12.1177 -0.0885924 0)
(12.1199 -0.0952642 0)
(12.2469 -0.074697 0)
(12.2436 -0.0917757 0)
(12.3489 -0.0760026 0)
(12.3381 -0.102894 0)
(12.4158 -0.0933756 0)
(12.3906 -0.13211 0)
(12.4161 -0.125767 0)
(12.3004 -0.142808 0)
(10.0487 -0.347001 0)
(10.3909 -0.562058 0)
(11.0483 -0.459054 0)
(11.2897 -0.290048 0)
(11.6521 -0.20731 0)
(11.6529 -0.188619 0)
(11.8725 -0.175949 0)
(11.7964 -0.166536 0)
(11.9716 -0.142766 0)
(11.8641 -0.131226 0)
(12.0164 -0.108082 0)
(11.8905 -0.106937 0)
(12.0231 -0.0888488 0)
(11.8831 -0.0995317 0)
(11.9918 -0.0841873 0)
(11.8396 -0.107274 0)
(11.9137 -0.0952526 0)
(11.7467 -0.136898 0)
(11.7535 -0.126092 0)
(11.521 -0.16368 0)
(10.0029 -0.456031 0)
(10.5559 -0.700363 0)
(11.1702 -0.541965 0)
(11.3585 -0.348434 0)
(11.556 -0.258709 0)
(11.4387 -0.223918 0)
(11.4922 -0.196676 0)
(11.2772 -0.17292 0)
(11.3031 -0.143821 0)
(11.0563 -0.124101 0)
(11.0939 -0.101065 0)
(10.8395 -0.093575 0)
(10.8959 -0.0774541 0)
(10.6363 -0.0820052 0)
(10.7033 -0.0686918 0)
(10.4343 -0.0866623 0)
(10.4937 -0.0740789 0)
(10.206 -0.11509 0)
(10.2123 -0.0976621 0)
(9.87476 -0.15953 0)
(10.057 -0.629424 0)
(10.6513 -0.857248 0)
(10.8697 -0.59678 0)
(10.6867 -0.369507 0)
(10.465 -0.252864 0)
(10.0852 -0.193244 0)
(9.85737 -0.1506 0)
(9.49978 -0.119852 0)
(9.35159 -0.0918881 0)
(9.04438 -0.0743249 0)
(8.98076 -0.057295 0)
(8.71152 -0.0518269 0)
(8.70932 -0.0424794 0)
(8.45289 -0.0453501 0)
(8.48524 -0.0399376 0)
(8.21992 -0.0499577 0)
(8.26068 -0.0483613 0)
(7.96436 -0.0698249 0)
(7.96772 -0.0724272 0)
(7.61621 -0.0907448 0)
(10.0768 -0.834507 0)
(9.65903 -0.862414 0)
(8.88605 -0.503413 0)
(8.1009 -0.259512 0)
(7.52168 -0.136637 0)
(7.03498 -0.0808176 0)
(6.73987 -0.0528332 0)
(6.43535 -0.0395894 0)
(6.28477 -0.0288309 0)
(6.06534 -0.0238882 0)
(6.00104 -0.0179381 0)
(5.82047 -0.0180543 0)
(5.80547 -0.0147253 0)
(5.63198 -0.0183296 0)
(5.63983 -0.0159921 0)
(5.45286 -0.0228779 0)
(5.46354 -0.0223161 0)
(5.23959 -0.032988 0)
(5.2305 -0.0395459 0)
(4.92503 -0.0228439 0)
(8.09343 -0.386449 0)
(5.4701 -0.242012 0)
(3.94247 -0.0432704 0)
(3.19162 0.0151078 0)
(2.83951 0.0180459 0)
(2.63762 0.0109515 0)
(2.52892 0.00561853 0)
(2.42358 0.00219144 0)
(2.3701 0.00154193 0)
(2.29586 0.000358146 0)
(2.27238 0.000770905 0)
(2.21166 -0.000294601 0)
(2.20246 0.000238461 0)
(2.14023 -0.00114803 0)
(2.13422 -0.000330541 0)
(2.0618 -0.00237288 0)
(2.0495 -0.00122342 0)
(1.95685 -0.00396336 0)
(1.91935 -0.00484932 0)
(1.75915 0.0119782 0)
(2.22337 -0.0852951 0)
(2.37498 0.0098788 0)
(2.63659 0.011821 0)
(2.86717 -0.0139379 0)
(3.08524 -0.0398386 0)
(3.25007 -0.0533548 0)
(3.40929 -0.0625958 0)
(3.52431 -0.0644386 0)
(3.64129 -0.0777585 0)
(3.74107 -0.0929835 0)
(3.84795 -0.110097 0)
(3.94214 -0.124795 0)
(4.04427 -0.142196 0)
(4.13876 -0.156864 0)
(4.2326 -0.172771 0)
(4.32956 -0.187091 0)
(4.42636 -0.200937 0)
(4.535 -0.215335 0)
(4.65557 -0.228236 0)
(4.78324 -0.240646 0)
(4.91405 -0.261852 0)
(5.04273 -0.287142 0)
(5.16671 -0.316339 0)
(5.28367 -0.345038 0)
(5.39409 -0.374767 0)
(5.49519 -0.402155 0)
(5.59502 -0.42749 0)
(5.68471 -0.44753 0)
(5.78439 -0.464711 0)
(5.87956 -0.481869 0)
(5.99198 -0.503977 0)
(6.10627 -0.529418 0)
(6.23084 -0.560573 0)
(6.35531 -0.592991 0)
(6.47565 -0.62564 0)
(6.59718 -0.657764 0)
(6.70903 -0.687442 0)
(6.82746 -0.717508 0)
(6.93482 -0.749061 0)
(7.05198 -0.784185 0)
(7.15544 -0.820218 0)
(7.26336 -0.860144 0)
(7.3575 -0.901668 0)
(7.44769 -0.943975 0)
(7.52717 -0.983891 0)
(7.59799 -1.01946 0)
(7.6679 -1.05113 0)
(7.73015 -1.07598 0)
(7.79966 -1.09883 0)
(7.86422 -1.1136 0)
(7.93965 -1.13032 0)
(8.0146 -1.14012 0)
(8.09738 -1.15696 0)
(8.1801 -1.16886 0)
(8.26449 -1.19073 0)
(8.34429 -1.20817 0)
(8.42373 -1.2352 0)
(8.4896 -1.25547 0)
(8.55832 -1.28182 0)
(8.60794 -1.30061 0)
(8.67055 -1.32732 0)
(8.71409 -1.34722 0)
(8.77433 -1.37682 0)
(8.82247 -1.39632 0)
(8.87271 -1.42331 0)
(8.92393 -1.43767 0)
(8.9594 -1.45268 0)
(9.0032 -1.45467 0)
(9.0322 -1.458 0)
(9.07194 -1.45513 0)
(9.10418 -1.45778 0)
(9.14303 -1.45037 0)
(9.16562 -1.45088 0)
(9.20812 -1.44095 0)
(9.22691 -1.44397 0)
(9.27797 -1.43474 0)
(9.29483 -1.43956 0)
(9.35605 -1.43639 0)
(9.37494 -1.44526 0)
(9.43667 -1.44093 0)
(9.45946 -1.4454 0)
(9.5118 -1.42521 0)
(9.52964 -1.41401 0)
(9.56829 -1.37865 0)
(9.58166 -1.35118 0)
(9.60328 -1.30384 0)
(9.6125 -1.27136 0)
(9.63118 -1.22192 0)
(9.63065 -1.18827 0)
(9.64821 -1.13693 0)
(9.63661 -1.09906 0)
(9.65247 -1.03995 0)
(9.62314 -0.996342 0)
(9.63162 -0.939223 0)
(9.59019 -0.898591 0)
(9.60096 -0.844715 0)
(9.54599 -0.807433 0)
(9.5625 -0.760637 0)
(9.50029 -0.73286 0)
(9.54142 -0.700631 0)
(9.46896 -0.688144 0)
(9.53814 -0.66256 0)
(9.46152 -0.668291 0)
(9.5517 -0.648337 0)
(9.46493 -0.639257 0)
(9.55665 -0.612217 0)
(9.45837 -0.597512 0)
(9.5398 -0.563288 0)
(9.42711 -0.542036 0)
(9.48676 -0.50415 0)
(9.35723 -0.478864 0)
(9.39228 -0.437324 0)
(9.24337 -0.413273 0)
(9.2661 -0.367158 0)
(9.10607 -0.350506 0)
(9.15412 -0.302311 0)
(8.99405 -0.291385 0)
(9.05607 -0.236487 0)
(8.88306 -0.218417 0)
(8.93161 -0.151387 0)
(8.76198 -0.130666 0)
(8.81357 -0.067515 0)
(8.66364 -0.0583723 0)
(8.72546 -0.00094044 0)
(8.58192 -0.00505256 0)
(8.64916 0.0485193 0)
(8.51508 0.0373257 0)
(8.57732 0.0958244 0)
(8.45877 0.0940697 0)
(8.50751 0.153128 0)
(8.40008 0.156249 0)
(8.44607 0.214489 0)
(8.33801 0.220829 0)
(8.38478 0.283657 0)
(8.27052 0.281848 0)
(8.32432 0.347767 0)
(8.20365 0.344283 0)
(8.26406 0.420804 0)
(8.13848 0.412907 0)
(8.2106 0.487177 0)
(8.07408 0.472243 0)
(8.14703 0.544482 0)
(8.00854 0.534059 0)
(8.08685 0.598985 0)
(7.96246 0.575605 0)
(8.05866 0.626476 0)
(7.92071 0.608413 0)
(8.0442 0.664077 0)
(7.87382 0.634913 0)
(8.03093 0.690707 0)
(7.83611 0.655062 0)
(7.99542 0.713964 0)
(7.80714 0.687384 0)
(7.95211 0.738123 0)
(7.77544 0.699782 0)
(7.91199 0.756325 0)
(7.7537 0.72231 0)
(7.86782 0.774457 0)
(7.74903 0.746917 0)
(7.83852 0.796373 0)
(7.76091 0.754925 0)
(7.81655 0.801498 0)
(7.76564 0.763096 0)
(7.78273 0.817945 0)
(7.72977 0.783827 0)
(7.71504 0.835397 0)
(7.69273 0.806411 0)
(7.63103 0.842525 0)
(7.63463 0.8161 0)
(7.51101 0.8594 0)
(7.56617 0.827485 0)
(7.34106 0.878144 0)
(7.46676 0.841658 0)
(7.17301 0.922887 0)
(7.36481 0.854501 0)
(7.02507 1.00463 0)
(7.28946 0.890942 0)
(6.88526 1.1088 0)
(7.2651 0.961861 0)
(6.74818 1.23684 0)
(7.23029 1.05914 0)
(6.65526 1.39609 0)
(7.13132 1.16975 0)
(6.61496 1.5807 0)
(6.98636 1.33154 0)
(6.56488 1.78206 0)
(6.86312 1.56879 0)
(6.46318 2.00918 0)
(6.77804 1.88337 0)
(6.27789 2.26821 0)
(6.69479 2.24639 0)
(6.02854 2.59422 0)
(6.52325 2.67094 0)
(5.80361 3.0844 0)
(6.21054 3.19537 0)
(5.65723 3.90427 0)
(5.81943 3.99569 0)
(5.22188 5.17952 0)
(6.17763 5.86854 0)
(3.91274 8.77546 0)
(5.27273 -0.055956 0)
(5.27115 -0.0237584 0)
(5.32038 -0.039944 0)
(5.41624 -0.0821398 0)
(5.5368 -0.118442 0)
(5.64453 -0.136089 0)
(5.73721 -0.143031 0)
(5.80666 -0.145148 0)
(5.86357 -0.15169 0)
(5.91378 -0.163643 0)
(5.96559 -0.180278 0)
(6.02006 -0.198173 0)
(6.08113 -0.21658 0)
(6.14634 -0.233438 0)
(6.21625 -0.248811 0)
(6.28924 -0.264217 0)
(6.36705 -0.278979 0)
(6.44633 -0.294498 0)
(6.53195 -0.31201 0)
(6.62016 -0.330186 0)
(6.71187 -0.352413 0)
(6.80485 -0.377844 0)
(6.89426 -0.404586 0)
(6.9829 -0.431857 0)
(7.06781 -0.45812 0)
(7.15014 -0.483427 0)
(7.23384 -0.505729 0)
(7.31332 -0.526645 0)
(7.39921 -0.546569 0)
(7.48055 -0.567634 0)
(7.57365 -0.591324 0)
(7.66063 -0.617952 0)
(7.76027 -0.648548 0)
(7.84829 -0.679766 0)
(7.94547 -0.712246 0)
(8.02813 -0.741557 0)
(8.11668 -0.771992 0)
(8.19448 -0.798976 0)
(8.27395 -0.830112 0)
(8.34983 -0.85977 0)
(8.42308 -0.895165 0)
(8.49769 -0.928755 0)
(8.56588 -0.967403 0)
(8.63671 -1.00238 0)
(8.70054 -1.03923 0)
(8.76464 -1.07048 0)
(8.82624 -1.10152 0)
(8.8837 -1.1264 0)
(8.94571 -1.15036 0)
(8.99823 -1.16823 0)
(9.06234 -1.18592 0)
(9.11127 -1.19904 0)
(9.17715 -1.21464 0)
(9.2221 -1.22715 0)
(9.28663 -1.24464 0)
(9.32602 -1.25952 0)
(9.38565 -1.2802 0)
(9.41936 -1.29907 0)
(9.47421 -1.32183 0)
(9.503 -1.34432 0)
(9.55676 -1.36856 0)
(9.57751 -1.39243 0)
(9.63047 -1.4168 0)
(9.63846 -1.43645 0)
(9.68554 -1.4556 0)
(9.68328 -1.46466 0)
(9.71585 -1.47165 0)
(9.71235 -1.47154 0)
(9.7383 -1.47526 0)
(9.74231 -1.47735 0)
(9.76376 -1.47443 0)
(9.76759 -1.47041 0)
(9.78712 -1.46593 0)
(9.7932 -1.4623 0)
(9.80785 -1.46387 0)
(9.82249 -1.45864 0)
(9.82861 -1.46466 0)
(9.85365 -1.46 0)
(9.84648 -1.46704 0)
(9.87597 -1.46148 0)
(9.86144 -1.461 0)
(9.88391 -1.43914 0)
(9.86649 -1.4254 0)
(9.88071 -1.38497 0)
(9.85846 -1.35326 0)
(9.8655 -1.30531 0)
(9.84536 -1.2704 0)
(9.84567 -1.21735 0)
(9.81927 -1.18273 0)
(9.81334 -1.12772 0)
(9.78421 -1.08678 0)
(9.76439 -1.02245 0)
(9.72643 -0.979664 0)
(9.69204 -0.91758 0)
(9.64727 -0.877416 0)
(9.60543 -0.817696 0)
(9.56217 -0.783511 0)
(9.52381 -0.735855 0)
(9.49932 -0.716761 0)
(9.47534 -0.686946 0)
(9.46131 -0.683901 0)
(9.46061 -0.663411 0)
(9.4479 -0.672642 0)
(9.45091 -0.648582 0)
(9.42979 -0.635475 0)
(9.42921 -0.603998 0)
(9.39166 -0.581128 0)
(9.38104 -0.542379 0)
(9.32288 -0.512088 0)
(9.29643 -0.467483 0)
(9.22711 -0.430942 0)
(9.1792 -0.382976 0)
(9.10072 -0.34862 0)
(9.03871 -0.310142 0)
(8.98078 -0.296675 0)
(8.92447 -0.260963 0)
(8.87245 -0.243276 0)
(8.80777 -0.191181 0)
(8.7564 -0.163282 0)
(8.67861 -0.107849 0)
(8.65243 -0.0840832 0)
(8.56987 -0.0389497 0)
(8.57613 -0.0239742 0)
(8.49328 0.0194354 0)
(8.52126 0.0248167 0)
(8.43214 0.0692793 0)
(8.47748 0.066807 0)
(8.36752 0.116258 0)
(8.42649 0.124692 0)
(8.3019 0.175082 0)
(8.36397 0.182589 0)
(8.23611 0.23879 0)
(8.29607 0.245211 0)
(8.16826 0.309758 0)
(8.23045 0.313044 0)
(8.08941 0.374633 0)
(8.17006 0.376352 0)
(8.01374 0.435709 0)
(8.11982 0.440445 0)
(7.95347 0.494155 0)
(8.08098 0.501877 0)
(7.88811 0.559371 0)
(8.02964 0.563174 0)
(7.83797 0.611498 0)
(7.99031 0.587633 0)
(7.81257 0.641692 0)
(7.95773 0.615863 0)
(7.78749 0.673812 0)
(7.94727 0.640341 0)
(7.77794 0.697695 0)
(7.92854 0.658018 0)
(7.7633 0.721221 0)
(7.90516 0.684893 0)
(7.7464 0.744797 0)
(7.88786 0.696399 0)
(7.72848 0.771518 0)
(7.88391 0.706353 0)
(7.69611 0.795506 0)
(7.91014 0.723521 0)
(7.6812 0.816558 0)
(7.95553 0.725869 0)
(7.67957 0.830829 0)
(7.96682 0.743867 0)
(7.67531 0.858288 0)
(7.94678 0.760273 0)
(7.66232 0.880059 0)
(7.92623 0.766221 0)
(7.62497 0.918532 0)
(7.87724 0.779768 0)
(7.54794 0.959643 0)
(7.80887 0.791836 0)
(7.4524 1.00558 0)
(7.71419 0.793439 0)
(7.33681 1.05509 0)
(7.62743 0.801215 0)
(7.20676 1.11813 0)
(7.6008 0.836935 0)
(7.07743 1.20424 0)
(7.59787 0.910209 0)
(6.99407 1.32912 0)
(7.54896 1.0079 0)
(6.94775 1.47331 0)
(7.48231 1.15941 0)
(6.87207 1.62391 0)
(7.46 1.36584 0)
(6.74283 1.79219 0)
(7.47334 1.61085 0)
(6.60057 2.02111 0)
(7.48789 1.89215 0)
(6.501 2.36172 0)
(7.41652 2.19599 0)
(6.46182 2.81492 0)
(7.20519 2.55729 0)
(6.43639 3.4032 0)
(6.94618 3.11777 0)
(6.26734 4.1706 0)
(7.07247 4.09164 0)
(5.6543 5.4732 0)
(8.3198 5.06701 0)
(6.30978 9.34399 0)
(7.89374 -0.0819817 0)
(7.89824 -0.0894113 0)
(7.92647 -0.110018 0)
(7.99602 -0.134538 0)
(8.08418 -0.151872 0)
(8.16366 -0.159586 0)
(8.21875 -0.162478 0)
(8.2521 -0.164829 0)
(8.26858 -0.17132 0)
(8.28279 -0.183712 0)
(8.29797 -0.201585 0)
(8.32227 -0.222667 0)
(8.35125 -0.244953 0)
(8.3889 -0.266972 0)
(8.42925 -0.287773 0)
(8.47599 -0.307506 0)
(8.52384 -0.32632 0)
(8.57531 -0.344821 0)
(8.62568 -0.364111 0)
(8.68 -0.38483 0)
(8.73145 -0.407663 0)
(8.78863 -0.433014 0)
(8.84011 -0.459019 0)
(8.89836 -0.486025 0)
(8.94952 -0.511734 0)
(9.0091 -0.537177 0)
(9.06097 -0.559888 0)
(9.12286 -0.582611 0)
(9.17587 -0.603271 0)
(9.23776 -0.626125 0)
(9.29194 -0.648895 0)
(9.35178 -0.676092 0)
(9.40684 -0.703606 0)
(9.46056 -0.734769 0)
(9.51388 -0.764186 0)
(9.55895 -0.794815 0)
(9.61075 -0.822579 0)
(9.64985 -0.85083 0)
(9.70157 -0.878204 0)
(9.73855 -0.906812 0)
(9.79126 -0.937416 0)
(9.8308 -0.969007 0)
(9.88304 -1.00371 0)
(9.92527 -1.03734 0)
(9.97333 -1.07267 0)
(10.0154 -1.10447 0)
(10.056 -1.13587 0)
(10.0945 -1.16216 0)
(10.1269 -1.18667 0)
(10.1603 -1.20595 0)
(10.187 -1.22316 0)
(10.215 -1.2371 0)
(10.2394 -1.25031 0)
(10.2621 -1.26229 0)
(10.2866 -1.27632 0)
(10.3055 -1.28993 0)
(10.3314 -1.30899 0)
(10.3497 -1.32692 0)
(10.3757 -1.35079 0)
(10.3937 -1.37059 0)
(10.4119 -1.39305 0)
(10.4247 -1.41086 0)
(10.4278 -1.42792 0)
(10.4284 -1.44195 0)
(10.4165 -1.4511 0)
(10.4013 -1.45815 0)
(10.3837 -1.46177 0)
(10.3645 -1.46615 0)
(10.3554 -1.47039 0)
(10.3334 -1.47329 0)
(10.325 -1.47277 0)
(10.301 -1.46909 0)
(10.2958 -1.46299 0)
(10.2675 -1.46157 0)
(10.2646 -1.45921 0)
(10.2281 -1.45755 0)
(10.2209 -1.45822 0)
(10.1816 -1.45357 0)
(10.1681 -1.45928 0)
(10.1347 -1.453 0)
(10.1159 -1.45039 0)
(10.0839 -1.42943 0)
(10.0674 -1.4126 0)
(10.0294 -1.36813 0)
(10.0139 -1.33809 0)
(9.9742 -1.28673 0)
(9.95525 -1.24871 0)
(9.90357 -1.19289 0)
(9.88548 -1.15748 0)
(9.8225 -1.10014 0)
(9.80609 -1.05403 0)
(9.72912 -0.986206 0)
(9.70431 -0.942138 0)
(9.61772 -0.87497 0)
(9.59051 -0.834696 0)
(9.5052 -0.774757 0)
(9.47483 -0.747547 0)
(9.40441 -0.705008 0)
(9.39853 -0.69583 0)
(9.34253 -0.669984 0)
(9.35302 -0.677555 0)
(9.31341 -0.658477 0)
(9.31252 -0.671631 0)
(9.27926 -0.63724 0)
(9.25973 -0.625454 0)
(9.23077 -0.579496 0)
(9.18202 -0.56026 0)
(9.1613 -0.503968 0)
(9.08112 -0.479702 0)
(9.06638 -0.413593 0)
(8.9585 -0.385609 0)
(8.94303 -0.314161 0)
(8.8208 -0.299762 0)
(8.83876 -0.256536 0)
(8.72209 -0.256998 0)
(8.73707 -0.204951 0)
(8.59934 -0.196028 0)
(8.61523 -0.130517 0)
(8.46478 -0.119758 0)
(8.50422 -0.0528573 0)
(8.35956 -0.0540536 0)
(8.41716 0.00299336 0)
(8.28848 -0.00803167 0)
(8.35604 0.0489508 0)
(8.23746 0.0349308 0)
(8.31019 0.0996046 0)
(8.18927 0.0809759 0)
(8.25841 0.155371 0)
(8.13125 0.139275 0)
(8.20022 0.220388 0)
(8.06302 0.199667 0)
(8.12567 0.291583 0)
(7.9895 0.26355 0)
(8.04532 0.365506 0)
(7.91859 0.335046 0)
(7.96024 0.433754 0)
(7.84957 0.398282 0)
(7.8864 0.482712 0)
(7.79004 0.448498 0)
(7.83722 0.53315 0)
(7.74047 0.503156 0)
(7.80338 0.604488 0)
(7.68381 0.561478 0)
(7.78793 0.646247 0)
(7.65494 0.580078 0)
(7.77995 0.675523 0)
(7.63125 0.61312 0)
(7.77375 0.702908 0)
(7.62427 0.631387 0)
(7.7825 0.72983 0)
(7.60495 0.647407 0)
(7.80362 0.763858 0)
(7.58209 0.661609 0)
(7.80973 0.788044 0)
(7.5866 0.672922 0)
(7.81581 0.824455 0)
(7.5971 0.671909 0)
(7.80989 0.837123 0)
(7.64001 0.671617 0)
(7.82186 0.84193 0)
(7.68787 0.681851 0)
(7.84132 0.870245 0)
(7.69288 0.710376 0)
(7.85189 0.912848 0)
(7.70095 0.72483 0)
(7.85108 0.944205 0)
(7.69592 0.736456 0)
(7.81638 0.993723 0)
(7.69217 0.763883 0)
(7.7534 1.04773 0)
(7.68047 0.787955 0)
(7.64701 1.09897 0)
(7.70182 0.801935 0)
(7.4805 1.13822 0)
(7.76003 0.816815 0)
(7.29796 1.19479 0)
(7.81938 0.843462 0)
(7.15565 1.27907 0)
(7.8513 0.90542 0)
(7.06762 1.39319 0)
(7.87541 1.01641 0)
(6.95967 1.52243 0)
(7.90864 1.16464 0)
(6.83113 1.69162 0)
(7.92659 1.32835 0)
(6.74372 1.91464 0)
(7.89117 1.50834 0)
(6.72573 2.20403 0)
(7.78337 1.72774 0)
(6.80157 2.56842 0)
(7.63986 2.04102 0)
(6.88728 2.99117 0)
(7.58224 2.48303 0)
(6.8345 3.47778 0)
(7.824 3.08018 0)
(6.53656 4.28767 0)
(8.60999 3.65075 0)
(6.30681 6.05478 0)
(9.53959 3.6546 0)
(7.95351 8.54661 0)
(10.0621 -0.116119 0)
(10.0812 -0.22749 0)
(10.128 -0.271438 0)
(10.1935 -0.263912 0)
(10.2624 -0.236853 0)
(10.314 -0.209652 0)
(10.3439 -0.192047 0)
(10.3545 -0.184881 0)
(10.3556 -0.188048 0)
(10.3546 -0.199031 0)
(10.357 -0.216928 0)
(10.3646 -0.238639 0)
(10.3769 -0.263063 0)
(10.3933 -0.287256 0)
(10.4123 -0.311194 0)
(10.4332 -0.332988 0)
(10.4551 -0.354158 0)
(10.4773 -0.373584 0)
(10.5005 -0.393901 0)
(10.5244 -0.414083 0)
(10.55 -0.436672 0)
(10.5756 -0.459986 0)
(10.6028 -0.485821 0)
(10.6291 -0.511234 0)
(10.6564 -0.537992 0)
(10.6832 -0.562849 0)
(10.7092 -0.587767 0)
(10.7367 -0.610328 0)
(10.7606 -0.63321 0)
(10.7886 -0.65514 0)
(10.8088 -0.678457 0)
(10.8364 -0.702612 0)
(10.8522 -0.728408 0)
(10.8779 -0.756174 0)
(10.8895 -0.783806 0)
(10.9121 -0.813157 0)
(10.9223 -0.840481 0)
(10.9429 -0.870565 0)
(10.9568 -0.898095 0)
(10.9768 -0.929397 0)
(10.997 -0.958834 0)
(11.0162 -0.993105 0)
(11.0411 -1.02564 0)
(11.0569 -1.06129 0)
(11.0813 -1.09419 0)
(11.0906 -1.12715 0)
(11.1097 -1.15589 0)
(11.1117 -1.18203 0)
(11.1238 -1.20364 0)
(11.1206 -1.22158 0)
(11.1265 -1.23612 0)
(11.1206 -1.24803 0)
(11.1221 -1.25823 0)
(11.1153 -1.26878 0)
(11.1167 -1.28029 0)
(11.1114 -1.29505 0)
(11.1155 -1.31176 0)
(11.1087 -1.33029 0)
(11.1117 -1.34934 0)
(11.0947 -1.36589 0)
(11.0891 -1.38274 0)
(11.0581 -1.39432 0)
(11.0385 -1.4069 0)
(10.9955 -1.41247 0)
(10.9575 -1.4189 0)
(10.9094 -1.42327 0)
(10.8622 -1.4323 0)
(10.8194 -1.44101 0)
(10.769 -1.44512 0)
(10.7281 -1.44798 0)
(10.6738 -1.44741 0)
(10.6282 -1.44328 0)
(10.575 -1.43633 0)
(10.5312 -1.43407 0)
(10.4734 -1.42702 0)
(10.4198 -1.42604 0)
(10.3608 -1.41957 0)
(10.3073 -1.4221 0)
(10.2572 -1.42333 0)
(10.2137 -1.42226 0)
(10.1636 -1.41258 0)
(10.1273 -1.39913 0)
(10.0703 -1.37111 0)
(10.0331 -1.33484 0)
(9.97445 -1.29973 0)
(9.93306 -1.24985 0)
(9.86856 -1.20649 0)
(9.82195 -1.1625 0)
(9.76273 -1.11943 0)
(9.71363 -1.06573 0)
(9.64564 -1.01028 0)
(9.5912 -0.940812 0)
(9.51466 -0.888287 0)
(9.46123 -0.821499 0)
(9.3908 -0.780277 0)
(9.34234 -0.723123 0)
(9.27559 -0.705222 0)
(9.243 -0.670038 0)
(9.19522 -0.672675 0)
(9.1686 -0.646848 0)
(9.13971 -0.661582 0)
(9.1074 -0.635855 0)
(9.07852 -0.655277 0)
(9.04354 -0.608563 0)
(9.00896 -0.60633 0)
(8.96963 -0.545344 0)
(8.91572 -0.533873 0)
(8.87726 -0.459193 0)
(8.80407 -0.44309 0)
(8.76323 -0.358792 0)
(8.6631 -0.336644 0)
(8.62966 -0.262008 0)
(8.54894 -0.275293 0)
(8.55153 -0.221229 0)
(8.45161 -0.222062 0)
(8.45455 -0.151443 0)
(8.32699 -0.148631 0)
(8.32933 -0.0720913 0)
(8.18989 -0.0778571 0)
(8.22419 -0.00504444 0)
(8.08869 -0.0302031 0)
(8.14381 0.0377399 0)
(8.02495 0.00366626 0)
(8.0769 0.0778645 0)
(7.98006 0.0422287 0)
(8.01999 0.12496 0)
(7.92751 0.0920542 0)
(7.96556 0.188762 0)
(7.87183 0.15064 0)
(7.90447 0.262548 0)
(7.81353 0.217697 0)
(7.8306 0.338853 0)
(7.74251 0.287017 0)
(7.75575 0.410484 0)
(7.67356 0.356301 0)
(7.68471 0.474802 0)
(7.60783 0.417641 0)
(7.62138 0.516535 0)
(7.54319 0.460743 0)
(7.58423 0.563824 0)
(7.49349 0.509977 0)
(7.56508 0.63028 0)
(7.47564 0.559255 0)
(7.567 0.658766 0)
(7.493 0.57956 0)
(7.57037 0.692386 0)
(7.50315 0.611278 0)
(7.57816 0.712104 0)
(7.52873 0.624001 0)
(7.57239 0.731578 0)
(7.55932 0.636167 0)
(7.57447 0.769197 0)
(7.60061 0.650915 0)
(7.5698 0.783892 0)
(7.65019 0.660473 0)
(7.58149 0.814819 0)
(7.67951 0.661015 0)
(7.61159 0.831759 0)
(7.73033 0.658917 0)
(7.6223 0.830326 0)
(7.77899 0.660715 0)
(7.63263 0.875995 0)
(7.82945 0.674774 0)
(7.59968 0.905858 0)
(7.92111 0.69281 0)
(7.54437 0.956331 0)
(7.98576 0.716808 0)
(7.46905 1.02206 0)
(8.05544 0.728351 0)
(7.38836 1.08968 0)
(8.14045 0.741776 0)
(7.27583 1.1493 0)
(8.22951 0.757676 0)
(7.15361 1.19844 0)
(8.2763 0.768479 0)
(7.05556 1.25501 0)
(8.25877 0.789504 0)
(7.00637 1.3351 0)
(8.22366 0.840456 0)
(6.97344 1.45536 0)
(8.21836 0.942189 0)
(6.96318 1.63054 0)
(8.1911 1.05741 0)
(7.00426 1.84096 0)
(8.11371 1.1945 0)
(7.08561 2.07827 0)
(8.0292 1.3804 0)
(7.15095 2.34711 0)
(8.00324 1.64679 0)
(7.14167 2.66676 0)
(8.12081 1.99148 0)
(7.03004 3.09357 0)
(8.44033 2.37112 0)
(6.81668 3.72715 0)
(8.99533 2.64597 0)
(6.69392 4.78579 0)
(9.72052 2.69239 0)
(7.22258 6.3204 0)
(10.0465 2.94105 0)
(8.82568 7.45543 0)
(11.5446 -0.10102 0)
(11.5848 -0.24265 0)
(11.6997 -0.300371 0)
(11.7925 -0.293236 0)
(11.855 -0.257713 0)
(11.8826 -0.219724 0)
(11.8892 -0.194197 0)
(11.8792 -0.184006 0)
(11.8672 -0.187365 0)
(11.8522 -0.200041 0)
(11.8433 -0.219619 0)
(11.835 -0.242716 0)
(11.8332 -0.26797 0)
(11.8318 -0.293014 0)
(11.8349 -0.317604 0)
(11.8373 -0.3404 0)
(11.8425 -0.362166 0)
(11.8467 -0.382588 0)
(11.853 -0.403073 0)
(11.8582 -0.423835 0)
(11.8652 -0.446044 0)
(11.8698 -0.469555 0)
(11.876 -0.494778 0)
(11.8777 -0.520507 0)
(11.8818 -0.547064 0)
(11.8797 -0.572572 0)
(11.8819 -0.597998 0)
(11.8769 -0.621177 0)
(11.8784 -0.644869 0)
(11.8729 -0.6661 0)
(11.874 -0.68933 0)
(11.8697 -0.710705 0)
(11.8695 -0.736027 0)
(11.8676 -0.759627 0)
(11.8643 -0.787538 0)
(11.8653 -0.813493 0)
(11.8585 -0.843617 0)
(11.8631 -0.871899 0)
(11.8537 -0.903685 0)
(11.8613 -0.934477 0)
(11.8501 -0.968045 0)
(11.8581 -1.00148 0)
(11.8451 -1.03581 0)
(11.8501 -1.06973 0)
(11.8346 -1.10209 0)
(11.8331 -1.13242 0)
(11.8145 -1.15917 0)
(11.8053 -1.1825 0)
(11.7833 -1.20162 0)
(11.7665 -1.21666 0)
(11.7406 -1.22886 0)
(11.7185 -1.23793 0)
(11.6905 -1.24787 0)
(11.6686 -1.25755 0)
(11.6413 -1.27081 0)
(11.621 -1.28452 0)
(11.5902 -1.30006 0)
(11.5651 -1.31472 0)
(11.5238 -1.32878 0)
(11.488 -1.34227 0)
(11.4369 -1.35389 0)
(11.3869 -1.36288 0)
(11.3281 -1.36854 0)
(11.2622 -1.37045 0)
(11.2011 -1.37436 0)
(11.1291 -1.37825 0)
(11.0706 -1.38709 0)
(10.9901 -1.39089 0)
(10.9222 -1.39589 0)
(10.8374 -1.39186 0)
(10.7625 -1.39055 0)
(10.6742 -1.38213 0)
(10.6011 -1.37935 0)
(10.5159 -1.37039 0)
(10.4379 -1.36574 0)
(10.3511 -1.36144 0)
(10.2764 -1.36311 0)
(10.2042 -1.36918 0)
(10.1458 -1.37704 0)
(10.0815 -1.37435 0)
(10.0239 -1.36944 0)
(9.96166 -1.35039 0)
(9.89425 -1.32349 0)
(9.83821 -1.28853 0)
(9.76732 -1.25268 0)
(9.70543 -1.202 0)
(9.64337 -1.16393 0)
(9.58229 -1.1175 0)
(9.52062 -1.07718 0)
(9.46129 -1.00765 0)
(9.38404 -0.955094 0)
(9.32143 -0.878378 0)
(9.25462 -0.839335 0)
(9.19186 -0.765442 0)
(9.14373 -0.743435 0)
(9.08017 -0.674287 0)
(9.04416 -0.68089 0)
(8.98724 -0.625361 0)
(8.95256 -0.65472 0)
(8.89904 -0.608161 0)
(8.87883 -0.644759 0)
(8.81369 -0.59423 0)
(8.80656 -0.635029 0)
(8.72429 -0.561965 0)
(8.72085 -0.576684 0)
(8.62003 -0.494301 0)
(8.61552 -0.496578 0)
(8.50345 -0.400618 0)
(8.48485 -0.397531 0)
(8.35995 -0.286169 0)
(8.33199 -0.290213 0)
(8.24951 -0.216251 0)
(8.23856 -0.254357 0)
(8.16048 -0.167924 0)
(8.12741 -0.189751 0)
(8.05673 -0.0833407 0)
(7.9896 -0.101431 0)
(7.92657 0.00368366 0)
(7.86458 -0.040346 0)
(7.81558 0.0547534 0)
(7.76617 -0.0105535 0)
(7.72873 0.0886992 0)
(7.69742 0.0184693 0)
(7.65645 0.124225 0)
(7.64557 0.0575033 0)
(7.58967 0.169688 0)
(7.5855 0.103494 0)
(7.5355 0.232968 0)
(7.525 0.164121 0)
(7.48472 0.312276 0)
(7.47137 0.23556 0)
(7.42699 0.388284 0)
(7.40855 0.305184 0)
(7.37055 0.459721 0)
(7.35057 0.366542 0)
(7.31861 0.523716 0)
(7.2973 0.42303 0)
(7.26635 0.567398 0)
(7.24774 0.456242 0)
(7.23226 0.608173 0)
(7.22957 0.493822 0)
(7.21801 0.657837 0)
(7.25929 0.523141 0)
(7.24635 0.669753 0)
(7.30283 0.545499 0)
(7.27723 0.709729 0)
(7.34055 0.572418 0)
(7.29328 0.732683 0)
(7.38826 0.582614 0)
(7.30138 0.764351 0)
(7.44105 0.591458 0)
(7.30112 0.797709 0)
(7.50506 0.603614 0)
(7.32787 0.823433 0)
(7.54758 0.61642 0)
(7.36683 0.843099 0)
(7.58453 0.603079 0)
(7.42338 0.865173 0)
(7.62893 0.593567 0)
(7.46259 0.887496 0)
(7.66329 0.590832 0)