/*--------------------------------*- C++ -*----------------------------------*\
| =========                 |                                                 |
| \\      /  F ield         | OpenFOAM: The Open Source CFD Toolbox           |
|  \\    /   O peration     | Version:  2.4.0                                 |
|   \\  /    A nd           | Web:      www.OpenFOAM.org                      |
|    \\/     M anipulation  |                                                 |
\*---------------------------------------------------------------------------*/
FoamFile
{
    version     2.0;
    format      ascii;
    class       volSymmTensorField;
    location    "0.48";
    object      UPrime2Mean;
}
// * * * * * * * * * * * * * * * * * * * * * * * * * * * * * * * * * * * * * //

dimensions      [0 2 -2 0 0 0 0];

internalField   nonuniform List<symmTensor> 
8800
(
(0.0034567 0.00022069 0 0.000395369 0 0)
(0.0665488 -0.0026141 0 0.000142225 0 0)
(0.13027 -0.000225465 0 2.95396e-05 0 0)
(0.162284 0.000414182 0 8.11017e-06 0 0)
(0.185577 0.00034085 0 2.04114e-06 0 0)
(0.203947 0.000254957 0 1.35138e-06 0 0)
(0.215327 0.000191578 0 1.48745e-06 0 0)
(0.225419 0.000101224 0 1.51932e-06 0 0)
(0.231082 7.63914e-05 0 1.88172e-06 0 0)
(0.238139 1.89122e-05 0 1.77975e-06 0 0)
(0.241006 3.4498e-05 0 1.85832e-06 0 0)
(0.247468 -3.89935e-05 0 2.04636e-06 0 0)
(0.249107 -1.59852e-05 0 2.14896e-06 0 0)
(0.257644 -0.000123944 0 2.39981e-06 0 0)
(0.259905 -0.000218701 0 3.00868e-06 0 0)
(0.27411 -0.000113541 0 4.05118e-06 0 0)
(0.289885 -0.00188222 0 2.56377e-05 0 0)
(0.302254 0.00389991 0 0.000143262 0 0)
(0.472953 -0.0353907 0 0.0035842 0 0)
(0.489933 0.055242 0 0.0109192 0 0)
(0.0181489 0.00601216 0 0.00235116 0 0)
(0.00157375 -0.0020826 0 0.00307819 0 0)
(0.0159235 -0.00423456 0 0.00123274 0 0)
(0.0325503 -0.00371351 0 0.000444294 0 0)
(0.0513928 -0.00326726 0 0.00022398 0 0)
(0.0776487 -0.00298723 0 0.000160019 0 0)
(0.100599 -0.00240752 0 0.000117669 0 0)
(0.127015 -0.00201278 0 8.48293e-05 0 0)
(0.143701 -0.00148136 0 5.06977e-05 0 0)
(0.166222 -0.00143037 0 4.17509e-05 0 0)
(0.174351 -0.00105007 0 2.11222e-05 0 0)
(0.198686 -0.00136547 0 2.71862e-05 0 0)
(0.197508 -0.00105705 0 2.05401e-05 0 0)
(0.231743 -0.00205432 0 4.8628e-05 0 0)
(0.220843 -0.00109025 0 2.69576e-05 0 0)
(0.275969 -0.00557395 0 0.000172199 0 0)
(0.266238 0.000405647 0 0.000101403 0 0)
(0.353866 -0.0220926 0 0.0016007 0 0)
(0.429583 -0.0094108 0 0.000996852 0 0)
(0.615531 -0.124752 0 0.0397275 0 0)
(0.0179951 0.00443375 0 0.00128242 0 0)
(0.001569 0.00200676 0 0.00326158 0 0)
(0.00163115 0.00105652 0 0.00199863 0 0)
(0.00235142 0.000447997 0 0.00104897 0 0)
(0.00177276 -0.000148516 0 0.000777963 0 0)
(0.00343545 -0.00127499 0 0.000725078 0 0)
(0.00742457 -0.00183089 0 0.00062257 0 0)
(0.0176383 -0.0024375 0 0.000489706 0 0)
(0.0256634 -0.00222572 0 0.000343525 0 0)
(0.0412217 -0.00251083 0 0.000244234 0 0)
(0.045883 -0.00207203 0 0.000132611 0 0)
(0.0681158 -0.00239149 0 0.000150604 0 0)
(0.0659841 -0.00227322 0 0.000110835 0 0)
(0.0950094 -0.00295471 0 0.000218928 0 0)
(0.0923252 -0.00306145 0 0.000213811 0 0)
(0.124116 -0.00518099 0 0.000450369 0 0)
(0.137675 -0.00666819 0 0.000680152 0 0)
(0.175399 -0.0129259 0 0.00144883 0 0)
(0.231417 -0.0328301 0 0.00694021 0 0)
(0.330814 -0.0836087 0 0.0422334 0 0)
(0.01744 0.00304347 0 0.000633179 0 0)
(0.00163869 0.00134273 0 0.00214758 0 0)
(0.0038972 0.00211867 0 0.00173255 0 0)
(0.0082603 0.00232521 0 0.000972172 0 0)
(0.0136089 0.00278188 0 0.000815204 0 0)
(0.0121818 0.00251959 0 0.000944498 0 0)
(0.0131254 0.00245533 0 0.00098254 0 0)
(0.00885117 0.00142365 0 0.000950546 0 0)
(0.00925094 0.00111208 0 0.000760957 0 0)
(0.00648371 3.72831e-05 0 0.000620143 0 0)
(0.00642761 0.000211569 0 0.000351981 0 0)
(0.00702438 -0.000832422 0 0.000488163 0 0)
(0.00616478 -0.000359945 0 0.000252078 0 0)
(0.00971464 -0.00177584 0 0.000605581 0 0)
(0.0100938 -0.000849858 0 0.000347636 0 0)
(0.0158875 -0.00319334 0 0.00100902 0 0)
(0.0198123 -0.00261749 0 0.000731239 0 0)
(0.0322349 -0.00745051 0 0.00332268 0 0)
(0.0482169 -0.0152683 0 0.00816741 0 0)
(0.077791 -0.035971 0 0.0389281 0 0)
(0.0187973 0.00234619 0 0.000370654 0 0)
(0.00160169 0.000651606 0 0.00140484 0 0)
(0.00352988 0.00156313 0 0.00129377 0 0)
(0.00783183 0.00185054 0 0.000734918 0 0)
(0.0163488 0.00244578 0 0.00056632 0 0)
(0.0175676 0.00270926 0 0.000724236 0 0)
(0.0248942 0.0033436 0 0.000839363 0 0)
(0.0222246 0.00307924 0 0.000920994 0 0)
(0.0292842 0.0031292 0 0.000779636 0 0)
(0.0250377 0.00241737 0 0.00081626 0 0)
(0.0316755 0.00251687 0 0.000414433 0 0)
(0.0262741 0.00212588 0 0.000731048 0 0)
(0.0321114 0.00203557 0 0.000346034 0 0)
(0.0254651 0.00233965 0 0.000917744 0 0)
(0.0296634 0.00198485 0 0.000509315 0 0)
(0.0221086 0.00296649 0 0.00156122 0 0)
(0.0233008 0.00297548 0 0.00116444 0 0)
(0.015595 0.00490715 0 0.00549398 0 0)
(0.0153601 0.00622041 0 0.00930796 0 0)
(0.0168479 0.00900226 0 0.0530281 0 0)
(0.0192951 0.00167413 0 0.000224435 0 0)
(0.0015633 0.000384898 0 0.00098949 0 0)
(0.00263636 0.00100553 0 0.000952265 0 0)
(0.0064267 0.00137111 0 0.000580076 0 0)
(0.013512 0.00165143 0 0.000375705 0 0)
(0.0158996 0.00195637 0 0.000492718 0 0)
(0.0221979 0.00251779 0 0.000615211 0 0)
(0.0225357 0.00271048 0 0.000735547 0 0)
(0.0293126 0.00258836 0 0.000630206 0 0)
(0.0298679 0.00247974 0 0.0006874 0 0)
(0.0369321 0.00232117 0 0.000387995 0 0)
(0.0378754 0.00267333 0 0.000619235 0 0)
(0.0450242 0.00235258 0 0.000400826 0 0)
(0.0453374 0.00349149 0 0.000731416 0 0)
(0.0512672 0.00337391 0 0.000596394 0 0)
(0.050482 0.00525302 0 0.00124327 0 0)
(0.0532577 0.00721419 0 0.00161139 0 0)
(0.0507291 0.0118151 0 0.00481873 0 0)
(0.0511483 0.0207439 0 0.0126308 0 0)
(0.0554871 0.0358921 0 0.0408685 0 0)
(0.0185296 0.00108481 0 0.000146027 0 0)
(0.00191725 0.000271531 0 0.000706828 0 0)
(0.00240913 0.000507682 0 0.000659998 0 0)
(0.00619849 0.00104417 0 0.000480716 0 0)
(0.0114228 0.00105139 0 0.000277213 0 0)
(0.015321 0.00141693 0 0.000385864 0 0)
(0.0188107 0.00166179 0 0.000483696 0 0)
(0.02155 0.00212386 0 0.000563007 0 0)
(0.0250777 0.00169605 0 0.000408193 0 0)
(0.0286313 0.00204359 0 0.000591769 0 0)
(0.0324414 0.00143976 0 0.000297548 0 0)
(0.0371028 0.00244333 0 0.000572662 0 0)
(0.0411919 0.00143033 0 0.000332713 0 0)
(0.0461232 0.00338403 0 0.000708256 0 0)
(0.0495757 0.0023557 0 0.000507654 0 0)
(0.0544738 0.00598458 0 0.00132996 0 0)
(0.0564487 0.00645658 0 0.00159917 0 0)
(0.0610002 0.0147938 0 0.00539749 0 0)
(0.0634266 0.021706 0 0.0116201 0 0)
(0.0767996 0.0436945 0 0.0365181 0 0)
(0.0183801 0.000717482 0 0.000103378 0 0)
(0.0019929 0.00016751 0 0.000463892 0 0)
(0.00223867 0.000243582 0 0.000447937 0 0)
(0.00562343 0.000633322 0 0.00034545 0 0)
(0.0102843 0.000619631 0 0.00023187 0 0)
(0.0141677 0.000876277 0 0.000328221 0 0)
(0.0173917 0.00107125 0 0.000394519 0 0)
(0.0198774 0.0013611 0 0.000425106 0 0)
(0.0229748 0.00109735 0 0.000360952 0 0)
(0.0261738 0.00126654 0 0.000466408 0 0)
(0.0298927 0.000935318 0 0.000352096 0 0)
(0.0337785 0.00145894 0 0.000475484 0 0)
(0.038182 0.00105734 0 0.000388424 0 0)
(0.0425619 0.00210586 0 0.000562222 0 0)
(0.0468187 0.00211549 0 0.000508153 0 0)
(0.0508516 0.00447606 0 0.00109639 0 0)
(0.0547599 0.00639251 0 0.0016013 0 0)
(0.0593535 0.0133232 0 0.00484404 0 0)
(0.0662721 0.0215175 0 0.0106871 0 0)
(0.0809312 0.0424117 0 0.0315572 0 0)
(0.0179223 0.000318183 0 8.13466e-05 0 0)
(0.00167919 -4.69122e-05 0 0.000284614 0 0)
(0.00203711 -1.03472e-05 0 0.000283012 0 0)
(0.00508746 0.000251592 0 0.000226073 0 0)
(0.00926435 0.000233113 0 0.000194447 0 0)
(0.0132988 0.000367669 0 0.000270423 0 0)
(0.0159226 0.000481718 0 0.000313779 0 0)
(0.0185013 0.000708405 0 0.000321005 0 0)
(0.0208248 0.000490147 0 0.000277804 0 0)
(0.0242357 0.000653428 0 0.000356457 0 0)
(0.0272973 0.000393884 0 0.00029904 0 0)
(0.0317168 0.000907158 0 0.000375136 0 0)
(0.035254 0.000617366 0 0.000301046 0 0)
(0.0401743 0.00153517 0 0.00042978 0 0)
(0.0433778 0.00170797 0 0.000440829 0 0)
(0.0486924 0.00370259 0 0.000952415 0 0)
(0.0521542 0.00605196 0 0.00146879 0 0)
(0.0592845 0.0117829 0 0.00420476 0 0)
(0.0671393 0.0213679 0 0.00948837 0 0)
(0.085157 0.038688 0 0.0260245 0 0)
(0.0176723 8.54217e-05 0 6.19436e-05 0 0)
(0.00126303 -8.46555e-05 0 0.000184667 0 0)
(0.00176299 -9.57588e-05 0 0.000203958 0 0)
(0.00447229 1.32573e-05 0 0.000159696 0 0)
(0.0085237 8.49977e-06 0 0.000179172 0 0)
(0.0122204 1.82983e-05 0 0.000260645 0 0)
(0.0151261 4.64236e-05 0 0.000283611 0 0)
(0.0173009 0.000167427 0 0.000250817 0 0)
(0.0198412 0.000105045 0 0.000245953 0 0)
(0.0227216 0.000129128 0 0.00031159 0 0)
(0.0263077 -4.93889e-05 0 0.000324254 0 0)
(0.0301461 0.00026836 0 0.000335466 0 0)
(0.0340873 0.000169129 0 0.00031759 0 0)
(0.0382452 0.000891596 0 0.000364246 0 0)
(0.0424633 0.00113168 0 0.000399419 0 0)
(0.0473668 0.00318962 0 0.000720576 0 0)
(0.0524404 0.00505711 0 0.00135199 0 0)
(0.0598478 0.0114164 0 0.00346827 0 0)
(0.0699207 0.019293 0 0.00833175 0 0)
(0.0898817 0.0371354 0 0.0210407 0 0)
(0.0174809 -0.000206589 0 6.22685e-05 0 0)
(0.00108518 -0.000176752 0 0.000180555 0 0)
(0.00154028 -0.000184371 0 0.000214453 0 0)
(0.00413398 -0.000235257 0 0.000197882 0 0)
(0.00820982 -0.000251665 0 0.000221134 0 0)
(0.0121403 -0.000310621 0 0.00027949 0 0)
(0.0150002 -0.000389189 0 0.000294821 0 0)
(0.0172842 -0.000350504 0 0.000265434 0 0)
(0.0197585 -0.000364582 0 0.000248584 0 0)
(0.0228628 -0.000301992 0 0.000263142 0 0)
(0.0262212 -0.000401926 0 0.000298825 0 0)
(0.0301064 -0.000181716 0 0.00033302 0 0)
(0.0339582 -0.000184873 0 0.000305818 0 0)
(0.0383596 0.00034151 0 0.000332044 0 0)
(0.0425116 0.000809038 0 0.000327493 0 0)
(0.0479565 0.00236199 0 0.000644331 0 0)
(0.0537243 0.00468267 0 0.00105851 0 0)
(0.0624831 0.00996894 0 0.00299215 0 0)
(0.0748028 0.0182867 0 0.00665476 0 0)
(0.0955969 0.0336899 0 0.0170953 0 0)
(0.0173047 -0.000451331 0 5.49155e-05 0 0)
(0.000777557 -0.000188002 0 0.000217361 0 0)
(0.00128773 -0.000197673 0 0.000224701 0 0)
(0.00419067 -0.000410442 0 0.000172394 0 0)
(0.00844907 -0.000403421 0 0.000132788 0 0)
(0.0123241 -0.00056241 0 0.000191937 0 0)
(0.0150158 -0.000705386 0 0.000243731 0 0)
(0.0174282 -0.00086017 0 0.000263131 0 0)
(0.0199455 -0.000747733 0 0.00023824 0 0)
(0.0232575 -0.000770376 0 0.000230303 0 0)
(0.0265977 -0.000679178 0 0.000245656 0 0)
(0.0307233 -0.000603279 0 0.000252038 0 0)
(0.0346191 -0.000435961 0 0.000218574 0 0)
(0.0395291 -0.00023467 0 0.000219426 0 0)
(0.0439608 0.000349689 0 0.000249849 0 0)
(0.0500619 0.00162718 0 0.000413798 0 0)
(0.0565339 0.00393795 0 0.000853669 0 0)
(0.0670533 0.0086453 0 0.0021994 0 0)
(0.0808905 0.0164574 0 0.00535685 0 0)
(0.104003 0.0305909 0 0.012928 0 0)
(0.0173208 -0.000779888 0 7.87735e-05 0 0)
(0.000701686 -0.000295829 0 0.000380647 0 0)
(0.00124517 -0.000360348 0 0.000358776 0 0)
(0.00434053 -0.000733361 0 0.000270744 0 0)
(0.00892567 -0.000765846 0 0.00017661 0 0)
(0.0129168 -0.00103415 0 0.000250309 0 0)
(0.0160298 -0.00127855 0 0.000316944 0 0)
(0.0184833 -0.00148794 0 0.000354539 0 0)
(0.0214089 -0.00132458 0 0.000313407 0 0)
(0.0247091 -0.00136397 0 0.000299423 0 0)
(0.0284701 -0.00118537 0 0.000266461 0 0)
(0.0325031 -0.00119232 0 0.000284933 0 0)
(0.0370004 -0.000955225 0 0.000228113 0 0)
(0.0419562 -0.000923204 0 0.000234387 0 0)
(0.047241 -0.000267368 0 0.000236799 0 0)
(0.0535802 0.000708566 0 0.000361162 0 0)
(0.0615545 0.00290559 0 0.000685241 0 0)
(0.0729421 0.00696236 0 0.00165206 0 0)
(0.0895414 0.0140433 0 0.00410638 0 0)
(0.113907 0.026831 0 0.00973825 0 0)
(0.0175477 -0.00118369 0 0.000125338 0 0)
(0.000577095 -0.000402998 0 0.000639885 0 0)
(0.001342 -0.000615867 0 0.000594811 0 0)
(0.00493133 -0.00108415 0 0.000409314 0 0)
(0.0102845 -0.00115032 0 0.000228786 0 0)
(0.0140694 -0.00151356 0 0.000312447 0 0)
(0.0178829 -0.00181778 0 0.000400418 0 0)
(0.0202815 -0.00217336 0 0.000496507 0 0)
(0.0240884 -0.00192065 0 0.000414943 0 0)
(0.0272497 -0.00202782 0 0.000410874 0 0)
(0.031815 -0.00168334 0 0.00029284 0 0)
(0.0357886 -0.00191265 0 0.000349671 0 0)
(0.0410138 -0.00145754 0 0.000233901 0 0)
(0.0459547 -0.00180889 0 0.000282571 0 0)
(0.0521813 -0.000853394 0 0.00022699 0 0)
(0.0588839 -0.000497174 0 0.000346477 0 0)
(0.0679206 0.00193049 0 0.000506572 0 0)
(0.0802959 0.00476519 0 0.00121102 0 0)
(0.0987535 0.0114352 0 0.00289133 0 0)
(0.124726 0.0218334 0 0.00705491 0 0)
(0.0183794 -0.0017487 0 0.000217836 0 0)
(0.000680897 -0.000487758 0 0.000970537 0 0)
(0.00199835 -0.00109802 0 0.000932085 0 0)
(0.00579924 -0.00144643 0 0.000565106 0 0)
(0.0129505 -0.00176143 0 0.000369476 0 0)
(0.0153568 -0.00208572 0 0.000476278 0 0)
(0.0216384 -0.00261793 0 0.000598228 0 0)
(0.0219847 -0.00282896 0 0.000727881 0 0)
(0.0288133 -0.002795 0 0.000630546 0 0)
(0.0292128 -0.0026456 0 0.000612464 0 0)
(0.0368578 -0.00241442 0 0.00041235 0 0)
(0.0373899 -0.00254447 0 0.000485923 0 0)
(0.0455422 -0.00209982 0 0.000300046 0 0)
(0.0462605 -0.00254934 0 0.00039476 0 0)
(0.0550589 -0.00145796 0 0.000269963 0 0)
(0.0569871 -0.00155588 0 0.000392616 0 0)
(0.0678118 0.000966887 0 0.000420995 0 0)
(0.0747807 0.00245058 0 0.000856701 0 0)
(0.0933398 0.00845701 0 0.00197572 0 0)
(0.113532 0.0152599 0 0.0045006 0 0)
(0.0183882 -0.00242126 0 0.00037913 0 0)
(0.00105994 -0.000716025 0 0.00140304 0 0)
(0.00304669 -0.00169514 0 0.00132086 0 0)
(0.00718968 -0.00191318 0 0.000736003 0 0)
(0.0159353 -0.00259389 0 0.000587152 0 0)
(0.0168956 -0.00279374 0 0.000722071 0 0)
(0.0244611 -0.0035113 0 0.000859911 0 0)
(0.021472 -0.00315354 0 0.000937252 0 0)
(0.0288406 -0.00335351 0 0.000828672 0 0)
(0.0242257 -0.00255603 0 0.000729553 0 0)
(0.0314188 -0.00265006 0 0.000509823 0 0)
(0.0258196 -0.00212362 0 0.000546799 0 0)
(0.0324816 -0.00204601 0 0.000337245 0 0)
(0.0263041 -0.00178338 0 0.00044048 0 0)
(0.0325597 -0.00123125 0 0.00026477 0 0)
(0.0272642 -0.000947284 0 0.000406326 0 0)
(0.0341623 0.000599155 0 0.000319539 0 0)
(0.0328221 0.00147321 0 0.000639152 0 0)
(0.0446242 0.00525341 0 0.00127824 0 0)
(0.0545592 0.00858095 0 0.00267594 0 0)
(0.0173108 -0.00307226 0 0.000635288 0 0)
(0.00139501 -0.00134509 0 0.00214429 0 0)
(0.00362366 -0.00218378 0 0.00174614 0 0)
(0.00773709 -0.0023266 0 0.000980095 0 0)
(0.0132939 -0.00286313 0 0.000834631 0 0)
(0.0114394 -0.00252719 0 0.00095452 0 0)
(0.0127783 -0.00254306 0 0.00100859 0 0)
(0.00800745 -0.0014002 0 0.000952019 0 0)
(0.00865746 -0.00126903 0 0.000764537 0 0)
(0.00559772 -0.000143033 0 0.000592023 0 0)
(0.00576203 -0.000317471 0 0.000395164 0 0)
(0.00600943 0.000555964 0 0.000384585 0 0)
(0.00517665 0.00021577 0 0.000234805 0 0)
(0.00880501 0.00102901 0 0.000293658 0 0)
(0.00736736 0.000461054 0 0.000166791 0 0)
(0.0134428 0.00136162 0 0.000263515 0 0)
(0.0122302 0.000610977 0 0.000220236 0 0)
(0.019595 0.00189338 0 0.000376643 0 0)
(0.0216484 0.00184119 0 0.000894196 0 0)
(0.0313938 0.00434057 0 0.00124372 0 0)
(0.0179699 -0.00444526 0 0.00128475 0 0)
(0.00151862 -0.00200018 0 0.00325438 0 0)
(0.00151598 -0.00107211 0 0.00200209 0 0)
(0.00219566 -0.00043845 0 0.00104643 0 0)
(0.00155604 0.000123966 0 0.000782522 0 0)
(0.00324714 0.00127737 0 0.000723586 0 0)
(0.00695101 0.00179937 0 0.00062792 0 0)
(0.0176021 0.00246297 0 0.000495643 0 0)
(0.0244168 0.00217941 0 0.000337245 0 0)
(0.0409373 0.00241088 0 0.000229669 0 0)
(0.0448179 0.00189015 0 0.000134821 0 0)
(0.0653786 0.00218403 0 0.000127178 0 0)
(0.0641011 0.00157764 0 8.0777e-05 0 0)
(0.087831 0.00203426 0 9.85261e-05 0 0)
(0.0819885 0.000989303 0 6.13927e-05 0 0)
(0.105715 0.00172552 0 0.000101049 0 0)
(0.0969649 -0.000311904 0 0.000103169 0 0)
(0.114236 0.00136157 0 0.000190163 0 0)
(0.107051 -0.00162315 0 0.000416065 0 0)
(0.111173 0.00291534 0 0.000827453 0 0)
(0.0181429 -0.00601351 0 0.00235185 0 0)
(0.00157974 0.00208559 0 0.00307587 0 0)
(0.0158826 0.00423272 0 0.00123305 0 0)
(0.0325658 0.00371464 0 0.000443659 0 0)
(0.0512445 0.00326736 0 0.000224438 0 0)
(0.0777596 0.00298485 0 0.000159839 0 0)
(0.100229 0.00240369 0 0.000117743 0 0)
(0.127337 0.00200624 0 8.36026e-05 0 0)
(0.142714 0.00147866 0 5.15284e-05 0 0)
(0.166214 0.00133662 0 3.65017e-05 0 0)
(0.17328 0.000994529 0 2.23459e-05 0 0)
(0.195504 0.0010866 0 2.44676e-05 0 0)
(0.195796 0.000744922 0 1.96549e-05 0 0)
(0.218351 0.000938702 0 2.17859e-05 0 0)
(0.212946 0.000326412 0 1.78563e-05 0 0)
(0.233691 0.000559278 0 2.40244e-05 0 0)
(0.222932 -0.000736937 0 3.42831e-05 0 0)
(0.233667 0.000140587 0 5.56851e-05 0 0)
(0.224175 -0.00246259 0 0.000141842 0 0)
(0.208797 0.00130516 0 0.00050519 0 0)
(0.00345704 -0.000220277 0 0.000395441 0 0)
(0.0665611 0.00261357 0 0.000142179 0 0)
(0.130257 0.000226667 0 2.94862e-05 0 0)
(0.162288 -0.000414915 0 8.07829e-06 0 0)
(0.185533 -0.000339408 0 1.99426e-06 0 0)
(0.204003 -0.00025656 0 1.35247e-06 0 0)
(0.215213 -0.000191893 0 1.50643e-06 0 0)
(0.225498 -0.000103301 0 1.54364e-06 0 0)
(0.230754 -8.46538e-05 0 1.62449e-06 0 0)
(0.238032 -2.92133e-05 0 1.55896e-06 0 0)
(0.240184 -5.17696e-05 0 1.79165e-06 0 0)
(0.246239 -3.17746e-06 0 1.72212e-06 0 0)
(0.246415 -5.47647e-05 0 1.56587e-06 0 0)
(0.251991 -7.64907e-06 0 1.23597e-06 0 0)
(0.250047 -0.000119624 0 1.27045e-06 0 0)
(0.253956 -9.61694e-05 0 1.16133e-06 0 0)
(0.248222 -0.000309521 0 1.86772e-06 0 0)
(0.24666 -0.000253608 0 2.96071e-06 0 0)
(0.239189 -0.000873898 0 9.15671e-06 0 0)
(0.216814 0.00116505 0 7.94695e-05 0 0)
(0.970326 -0.495716 0 0.305235 0 0)
(1.09601 -0.590278 0 0.430867 0 0)
(1.09729 -0.567708 0 0.515252 0 0)
(1.0962 -0.498189 0 0.574394 0 0)
(1.12593 -0.416605 0 0.608655 0 0)
(1.22706 -0.360689 0 0.633257 0 0)
(1.37713 -0.345218 0 0.656864 0 0)
(1.59666 -0.373356 0 0.690532 0 0)
(1.81529 -0.424298 0 0.730216 0 0)
(2.0277 -0.477325 0 0.769114 0 0)
(2.19369 -0.525925 0 0.812043 0 0)
(2.35307 -0.56788 0 0.864502 0 0)
(2.48686 -0.596914 0 0.920756 0 0)
(2.62658 -0.629496 0 0.969086 0 0)
(2.78342 -0.66699 0 1.00104 0 0)
(2.9262 -0.719349 0 1.02284 0 0)
(3.07783 -0.793546 0 1.0552 0 0)
(3.21113 -0.879255 0 1.1029 0 0)
(3.32402 -0.96297 0 1.17633 0 0)
(3.47333 -1.04796 0 1.26617 0 0)
(3.65646 -1.11269 0 1.34025 0 0)
(3.85564 -1.1945 0 1.41277 0 0)
(4.08822 -1.28234 0 1.48389 0 0)
(4.29806 -1.37364 0 1.55697 0 0)
(4.5649 -1.47571 0 1.62977 0 0)
(4.78971 -1.56623 0 1.70941 0 0)
(5.08678 -1.67719 0 1.78955 0 0)
(5.3358 -1.79194 0 1.87021 0 0)
(5.64763 -1.93203 0 1.9557 0 0)
(5.89575 -2.07058 0 2.04911 0 0)
(6.19166 -2.21968 0 2.14994 0 0)
(6.44068 -2.35693 0 2.24716 0 0)
(6.72661 -2.50516 0 2.34575 0 0)
(7.02538 -2.65623 0 2.4358 0 0)
(7.31289 -2.82252 0 2.53213 0 0)
(7.65013 -3.00232 0 2.61646 0 0)
(7.88241 -3.16626 0 2.70116 0 0)
(8.17728 -3.33938 0 2.77054 0 0)
(8.31186 -3.47026 0 2.83761 0 0)
(8.50883 -3.59321 0 2.8924 0 0)
(8.54539 -3.66312 0 2.94427 0 0)
(8.63485 -3.71641 0 2.98545 0 0)
(8.62692 -3.73559 0 3.01728 0 0)
(8.67708 -3.74807 0 3.0504 0 0)
(8.70515 -3.76853 0 3.08184 0 0)
(8.783 -3.79033 0 3.12867 0 0)
(8.86902 -3.84236 0 3.18298 0 0)
(8.99613 -3.89828 0 3.26052 0 0)
(9.12292 -3.98355 0 3.35326 0 0)
(9.28289 -4.07267 0 3.46991 0 0)
(9.39769 -4.17159 0 3.59869 0 0)
(9.52921 -4.25487 0 3.73999 0 0)
(9.55174 -4.31161 0 3.87672 0 0)
(9.60561 -4.33368 0 4.00247 0 0)
(9.4934 -4.29541 0 4.09808 0 0)
(9.45743 -4.22976 0 4.1729 0 0)
(9.24276 -4.0935 0 4.18985 0 0)
(9.15649 -3.96206 0 4.20658 0 0)
(8.94035 -3.80512 0 4.1752 0 0)
(8.8794 -3.66644 0 4.1683 0 0)
(8.7213 -3.55533 0 4.14925 0 0)
(8.74852 -3.45727 0 4.16178 0 0)
(8.62799 -3.38536 0 4.19105 0 0)
(8.73268 -3.34976 0 4.25238 0 0)
(8.59587 -3.25548 0 4.30094 0 0)
(8.67895 -3.2358 0 4.37392 0 0)
(8.49598 -3.07748 0 4.3736 0 0)
(8.48069 -2.97807 0 4.38251 0 0)
(8.28468 -2.80184 0 4.35774 0 0)
(8.24661 -2.67624 0 4.43028 0 0)
(8.08262 -2.53964 0 4.52629 0 0)
(8.07608 -2.39429 0 4.61529 0 0)
(7.99095 -2.24259 0 4.69434 0 0)
(8.05283 -2.13756 0 4.76327 0 0)
(8.02905 -2.00883 0 4.90662 0 0)
(8.13013 -1.94741 0 5.06249 0 0)
(8.21015 -1.84038 0 5.29515 0 0)
(8.27961 -1.79417 0 5.54206 0 0)
(8.39093 -1.68988 0 5.8339 0 0)
(8.3647 -1.5993 0 6.12427 0 0)
(8.4212 -1.48616 0 6.41498 0 0)
(8.29724 -1.37602 0 6.6478 0 0)
(8.39749 -1.28971 0 6.85507 0 0)
(8.22528 -1.19935 0 7.02891 0 0)
(8.37708 -1.14738 0 7.13578 0 0)
(8.21876 -1.0456 0 7.27456 0 0)
(8.40869 -0.999374 0 7.3797 0 0)
(8.25833 -0.893463 0 7.58829 0 0)
(8.49461 -0.830928 0 7.75969 0 0)
(8.40738 -0.711301 0 8.01304 0 0)
(8.6765 -0.677966 0 8.17702 0 0)
(8.6645 -0.620455 0 8.36497 0 0)
(9.01449 -0.593494 0 8.49676 0 0)
(9.07907 -0.543849 0 8.65623 0 0)
(9.40848 -0.500938 0 8.78557 0 0)
(9.43428 -0.428739 0 8.95585 0 0)
(9.73018 -0.378497 0 9.12386 0 0)
(9.72942 -0.260147 0 9.3479 0 0)
(9.85476 -0.195513 0 9.58696 0 0)
(9.7048 -0.0569769 0 9.88042 0 0)
(9.68969 0.0696334 0 10.2154 0 0)
(9.46112 0.104473 0 10.5609 0 0)
(9.33345 0.237308 0 11.0262 0 0)
(9.15716 0.177842 0 11.4432 0 0)
(9.03103 0.190575 0 11.7451 0 0)
(8.95551 0.0409477 0 12.0644 0 0)
(8.84306 0.0767956 0 12.2986 0 0)
(8.80192 -0.102204 0 12.5403 0 0)
(8.66444 -0.0428204 0 12.6791 0 0)
(8.63134 -0.187683 0 12.8421 0 0)
(8.45551 -0.143177 0 12.8483 0 0)
(8.40038 -0.286563 0 12.9096 0 0)
(8.25108 -0.247431 0 12.8443 0 0)
(8.176 -0.363583 0 12.8905 0 0)
(8.11552 -0.276443 0 12.8707 0 0)
(7.92733 -0.411408 0 12.9814 0 0)
(7.94728 -0.288855 0 13.0335 0 0)
(7.74992 -0.410736 0 13.1432 0 0)
(7.9523 -0.267416 0 13.1631 0 0)
(7.87225 -0.330932 0 13.2129 0 0)
(8.20993 -0.215115 0 13.2641 0 0)
(8.08161 -0.238132 0 13.3626 0 0)
(8.35814 -0.0682691 0 13.5281 0 0)
(8.0511 -0.130191 0 13.6116 0 0)
(8.28603 0.0678039 0 13.7298 0 0)
(7.82924 -0.0487519 0 13.7202 0 0)
(8.05795 0.127019 0 13.8143 0 0)
(7.55968 -0.0383429 0 13.832 0 0)
(7.87034 0.148714 0 13.8926 0 0)
(7.37185 -0.0675691 0 13.8374 0 0)
(7.78916 0.145079 0 13.9068 0 0)
(7.27453 -0.0366291 0 13.8443 0 0)
(7.74477 0.196947 0 13.8413 0 0)
(7.2025 0.0707866 0 13.8045 0 0)
(7.64924 0.2614 0 13.7409 0 0)
(7.05797 0.235806 0 13.7791 0 0)
(7.4866 0.434914 0 13.7154 0 0)
(6.86472 0.455682 0 13.8932 0 0)
(7.27159 0.697661 0 13.9128 0 0)
(6.58969 0.732525 0 14.1025 0 0)
(7.00981 0.903656 0 14.1115 0 0)
(6.29103 0.963604 0 14.1388 0 0)
(6.82186 1.17381 0 14.1299 0 0)
(6.02256 1.21674 0 14.1793 0 0)
(6.59891 1.43768 0 14.3936 0 0)
(5.69881 1.42932 0 14.4179 0 0)
(6.34491 1.63903 0 14.5258 0 0)
(5.46686 1.67247 0 14.5557 0 0)
(6.12833 1.86995 0 14.7181 0 0)
(5.24521 1.76024 0 14.6603 0 0)
(5.9065 2.08283 0 14.956 0 0)
(5.07845 1.81535 0 14.7765 0 0)
(5.66889 2.23247 0 14.9127 0 0)
(4.9395 1.89622 0 14.7673 0 0)
(5.43101 2.3293 0 14.9743 0 0)
(4.8295 1.90429 0 14.7004 0 0)
(5.16663 2.31121 0 14.8881 0 0)
(4.75898 1.99447 0 14.7091 0 0)
(4.91166 2.1872 0 14.7564 0 0)
(4.63933 1.9628 0 14.6932 0 0)
(4.66832 2.00061 0 14.842 0 0)
(4.48328 1.69179 0 14.8179 0 0)
(4.53832 1.74319 0 14.8677 0 0)
(4.36021 1.43565 0 14.7293 0 0)
(4.43962 1.40939 0 14.6443 0 0)
(4.30185 1.20482 0 14.4575 0 0)
(4.28173 1.01349 0 14.4105 0 0)
(4.22764 0.786237 0 14.1367 0 0)
(4.06453 0.554273 0 13.9347 0 0)
(4.09153 0.277773 0 13.5883 0 0)
(3.86489 0.108863 0 13.241 0 0)
(3.93878 -0.347771 0 12.7158 0 0)
(3.65057 -0.341117 0 12.1752 0 0)
(3.87586 -0.892558 0 11.7538 0 0)
(3.63047 -0.684214 0 11.0625 0 0)
(3.89047 -1.1396 0 10.7985 0 0)
(3.75449 -0.884501 0 10.0721 0 0)
(3.92751 -1.26337 0 9.87091 0 0)
(3.82031 -0.911315 0 9.37148 0 0)
(3.99637 -1.30968 0 8.90129 0 0)
(3.95161 -0.851501 0 8.74874 0 0)
(3.99065 -1.13869 0 8.02675 0 0)
(3.90698 -0.883419 0 8.06348 0 0)
(3.93736 -0.689025 0 7.29549 0 0)
(3.77576 -0.82855 0 7.56797 0 0)
(3.88895 -0.209082 0 6.71224 0 0)
(3.6173 -0.613745 0 7.38186 0 0)
(3.7402 0.170864 0 6.35964 0 0)
(3.39133 -0.350002 0 7.48739 0 0)
(3.57347 0.55689 0 6.26445 0 0)
(3.03551 -0.171767 0 7.79136 0 0)
(3.24291 0.94342 0 6.30562 0 0)
(2.60999 -0.0741182 0 8.38521 0 0)
(2.76196 1.42688 0 6.74417 0 0)
(2.24554 0.161828 0 9.55839 0 0)
(2.5087 2.24729 0 7.99613 0 0)
(1.87115 0.460942 0 11.5192 0 0)
(2.22329 3.40517 0 10.8999 0 0)
(1.98332 2.37632 0 16.8493 0 0)
(0.647519 1.00894 0 18.9844 0 0)
(0.81358 -0.409671 0 0.346841 0 0)
(0.818494 -0.433876 0 0.451655 0 0)
(0.783638 -0.399856 0 0.477572 0 0)
(0.756713 -0.354946 0 0.48893 0 0)
(0.752394 -0.314958 0 0.487236 0 0)
(0.780176 -0.302756 0 0.484127 0 0)
(0.841426 -0.323278 0 0.495013 0 0)
(0.928325 -0.364235 0 0.522048 0 0)
(1.02553 -0.40949 0 0.554117 0 0)
(1.11209 -0.449006 0 0.584962 0 0)
(1.18582 -0.485671 0 0.619761 0 0)
(1.25214 -0.518407 0 0.661942 0 0)
(1.31836 -0.551259 0 0.707481 0 0)
(1.40062 -0.5824 0 0.750586 0 0)
(1.495 -0.621243 0 0.790252 0 0)
(1.62345 -0.669633 0 0.828201 0 0)
(1.75964 -0.737872 0 0.873918 0 0)
(1.93608 -0.824786 0 0.927681 0 0)
(2.09169 -0.911305 0 0.988366 0 0)
(2.27016 -1.0054 0 1.05722 0 0)
(2.42232 -1.08217 0 1.12536 0 0)
(2.59739 -1.16451 0 1.19465 0 0)
(2.76578 -1.23943 0 1.26468 0 0)
(2.95448 -1.324 0 1.33776 0 0)
(3.14121 -1.40279 0 1.41462 0 0)
(3.35604 -1.49394 0 1.50029 0 0)
(3.57972 -1.58225 0 1.59252 0 0)
(3.83213 -1.68932 0 1.68932 0 0)
(4.11106 -1.80549 0 1.789 0 0)
(4.38087 -1.93479 0 1.89227 0 0)
(4.69255 -2.07812 0 1.99568 0 0)
(4.94161 -2.21384 0 2.09645 0 0)
(5.24673 -2.36516 0 2.19464 0 0)
(5.45598 -2.49327 0 2.28629 0 0)
(5.72522 -2.64139 0 2.37629 0 0)
(5.88859 -2.75842 0 2.45863 0 0)
(6.07943 -2.88334 0 2.5384 0 0)
(6.18236 -2.972 0 2.60398 0 0)
(6.26907 -3.05539 0 2.66662 0 0)
(6.3261 -3.11148 0 2.71407 0 0)
(6.332 -3.14516 0 2.75576 0 0)
(6.37387 -3.1713 0 2.78948 0 0)
(6.36119 -3.17634 0 2.81921 0 0)
(6.4315 -3.1981 0 2.85574 0 0)
(6.46545 -3.21477 0 2.89536 0 0)
(6.58098 -3.26021 0 2.95966 0 0)
(6.67864 -3.31007 0 3.03143 0 0)
(6.81461 -3.38114 0 3.13244 0 0)
(6.94512 -3.4514 0 3.23883 0 0)
(7.04295 -3.5205 0 3.36802 0 0)
(7.14893 -3.57629 0 3.49154 0 0)
(7.15675 -3.60033 0 3.61994 0 0)
(7.1818 -3.59671 0 3.73139 0 0)
(7.09333 -3.54615 0 3.82435 0 0)
(7.02317 -3.45698 0 3.89782 0 0)
(6.89639 -3.34658 0 3.94208 0 0)
(6.78269 -3.1908 0 3.96989 0 0)
(6.69772 -3.07277 0 3.99001 0 0)
(6.6168 -2.91307 0 4.00631 0 0)
(6.61497 -2.84386 0 4.0535 0 0)
(6.60288 -2.7316 0 4.08874 0 0)
(6.6724 -2.70334 0 4.15949 0 0)
(6.69874 -2.62996 0 4.19911 0 0)
(6.80648 -2.58321 0 4.25636 0 0)
(6.80336 -2.49123 0 4.27559 0 0)
(6.89817 -2.38968 0 4.27379 0 0)
(6.85724 -2.25101 0 4.25365 0 0)
(6.94729 -2.15143 0 4.25474 0 0)
(6.9156 -2.02613 0 4.28902 0 0)
(7.00877 -1.95841 0 4.37839 0 0)
(7.03157 -1.86312 0 4.47114 0 0)
(7.20215 -1.79452 0 4.60433 0 0)
(7.26936 -1.71597 0 4.70147 0 0)
(7.52119 -1.6717 0 4.83357 0 0)
(7.63067 -1.61685 0 4.98993 0 0)
(7.91511 -1.61955 0 5.19042 0 0)
(8.03924 -1.55131 0 5.45236 0 0)
(8.23279 -1.52841 0 5.7188 0 0)
(8.31794 -1.38765 0 6.00345 0 0)
(8.34302 -1.30039 0 6.28458 0 0)
(8.36562 -1.15554 0 6.53897 0 0)
(8.3723 -1.0945 0 6.77038 0 0)
(8.41604 -0.996377 0 6.97101 0 0)
(8.4331 -0.977655 0 7.11154 0 0)
(8.55114 -0.925763 0 7.21311 0 0)
(8.59564 -0.88596 0 7.36347 0 0)
(8.74409 -0.872336 0 7.49541 0 0)
(8.82574 -0.803284 0 7.71243 0 0)
(9.05612 -0.774514 0 7.88814 0 0)
(9.14946 -0.690869 0 8.14365 0 0)
(9.41311 -0.700342 0 8.29019 0 0)
(9.56226 -0.676029 0 8.46088 0 0)
(9.8127 -0.639076 0 8.60214 0 0)
(10.005 -0.600784 0 8.77292 0 0)
(10.174 -0.549133 0 8.90264 0 0)
(10.3628 -0.514985 0 9.07562 0 0)
(10.4602 -0.449497 0 9.26381 0 0)
(10.6202 -0.369498 0 9.50561 0 0)
(10.5187 -0.29159 0 9.7616 0 0)
(10.5734 -0.166289 0 10.0836 0 0)
(10.3139 -0.0482549 0 10.4354 0 0)
(10.2696 -0.0230187 0 10.8466 0 0)
(9.86036 0.129316 0 11.3403 0 0)
(9.92816 0.0345507 0 11.7019 0 0)
(9.39611 0.117281 0 11.9873 0 0)
(9.61054 -0.0582296 0 12.2255 0 0)
(8.97458 0.100453 0 12.4277 0 0)
(9.3352 -0.0913877 0 12.5871 0 0)
(8.60625 0.132319 0 12.7146 0 0)
(9.13989 -0.0362479 0 12.8149 0 0)
(8.30709 0.185963 0 12.8312 0 0)
(9.0268 0.0304601 0 12.8891 0 0)
(8.14696 0.208884 0 12.8334 0 0)
(8.95511 0.0666814 0 12.9528 0 0)
(7.93611 0.1414 0 12.9708 0 0)
(8.6843 -0.049977 0 13.105 0 0)
(7.7933 0.0395617 0 13.1168 0 0)
(8.61951 -0.142574 0 13.1736 0 0)
(7.94537 0.0444374 0 13.1975 0 0)
(8.8343 -0.140433 0 13.2543 0 0)
(8.1962 0.0600294 0 13.3644 0 0)
(8.97829 -0.0363743 0 13.4863 0 0)
(8.23165 0.188664 0 13.6911 0 0)
(8.93454 0.135217 0 13.8526 0 0)
(8.03758 0.38484 0 14.046 0 0)
(8.68606 0.246802 0 14.1026 0 0)
(7.71245 0.478926 0 14.2325 0 0)
(8.35199 0.24596 0 14.2011 0 0)
(7.39929 0.448268 0 14.3087 0 0)
(8.05363 0.218333 0 14.2242 0 0)
(7.10566 0.35877 0 14.2936 0 0)
(7.79114 0.235098 0 14.1956 0 0)
(6.863 0.374984 0 14.1637 0 0)
(7.55169 0.353166 0 14.1364 0 0)
(6.59217 0.453685 0 14.0697 0 0)
(7.32332 0.514207 0 14.074 0 0)
(6.32309 0.601421 0 13.9378 0 0)
(7.09987 0.723595 0 14.103 0 0)
(6.10975 0.835749 0 14.1175 0 0)
(6.81872 0.974586 0 14.3486 0 0)
(5.88968 1.0959 0 14.3652 0 0)
(6.53224 1.17731 0 14.3781 0 0)
(5.68743 1.28004 0 14.3599 0 0)
(6.30032 1.41569 0 14.4896 0 0)
(5.37038 1.4064 0 14.6967 0 0)
(6.07661 1.60997 0 14.7366 0 0)
(5.08968 1.49829 0 14.8114 0 0)
(5.92525 1.75287 0 14.8593 0 0)
(4.84162 1.66596 0 15.0457 0 0)
(5.73706 1.78471 0 14.9804 0 0)
(4.69428 1.90208 0 15.214 0 0)
(5.60936 1.84169 0 14.9534 0 0)
(4.48827 2.04768 0 15.1416 0 0)
(5.52696 1.96647 0 15.0238 0 0)
(4.32544 2.18012 0 15.1765 0 0)
(5.39783 1.92684 0 14.8557 0 0)
(4.17742 2.22464 0 15.0721 0 0)
(5.29616 1.92929 0 14.871 0 0)
(4.01968 2.10959 0 15.0092 0 0)
(5.14617 1.85471 0 15.0389 0 0)
(3.85553 1.89309 0 15.1943 0 0)
(4.92959 1.65033 0 15.0761 0 0)
(3.76451 1.63968 0 15.1203 0 0)
(4.84529 1.54025 0 14.7964 0 0)
(3.68255 1.45378 0 14.8861 0 0)
(4.70979 1.26555 0 14.5411 0 0)
(3.67075 1.23167 0 14.6881 0 0)
(4.52565 0.947737 0 14.3863 0 0)
(3.74661 1.00539 0 14.2389 0 0)
(4.27133 0.460292 0 13.9383 0 0)
(3.76683 0.654186 0 13.5621 0 0)
(4.00048 0.0300128 0 13.1795 0 0)
(3.7545 0.113588 0 12.5398 0 0)
(3.72445 -0.527832 0 12.1975 0 0)
(3.91482 -0.358513 0 11.4581 0 0)
(3.56502 -1.07846 0 11.0575 0 0)
(4.1706 -0.634617 0 10.5111 0 0)
(3.49186 -1.48877 0 10.0443 0 0)
(4.32625 -0.869034 0 9.68053 0 0)
(3.48596 -1.53642 0 9.13851 0 0)
(4.289 -1.19491 0 8.96148 0 0)
(3.48492 -1.25874 0 8.3121 0 0)