/*--------------------------------*- C++ -*----------------------------------*\
| =========                 |                                                 |
| \\      /  F ield         | OpenFOAM: The Open Source CFD Toolbox           |
|  \\    /   O peration     | Version:  2.4.0                                 |
|   \\  /    A nd           | Web:      www.OpenFOAM.org                      |
|    \\/     M anipulation  |                                                 |
\*---------------------------------------------------------------------------*/
FoamFile
{
    version     2.0;
    format      ascii;
    class       volScalarField;
    location    "0.87";
    object      k;
}
// * * * * * * * * * * * * * * * * * * * * * * * * * * * * * * * * * * * * * //

dimensions      [0 2 -2 0 0 0 0];

internalField   nonuniform List<scalar> 
8800
(
8.11853
10.2662
8.7939
6.81935
5.70975
4.96992
4.52861
4.14153
3.91924
3.66306
3.54758
3.3663
3.29952
3.16035
3.10154
2.99102
2.92022
2.82358
2.75217
2.56689
1.4033
4.35223
5.31969
5.28778
5.13087
4.80765
4.5749
4.28695
4.12132
3.87997
3.7763
3.5863
3.51895
3.37764
3.32706
3.21805
3.17308
3.08664
3.00685
2.97159
0.0843444
0.730751
1.56364
1.94432
2.27366
2.43699
2.57614
2.60022
2.62336
2.60148
2.58961
2.53996
2.52346
2.47106
2.45935
2.41088
2.40284
2.3685
2.3459
2.30259
0.00335071
0.0698311
0.257812
0.422928
0.582322
0.700313
0.83878
0.927497
1.02546
1.09107
1.16821
1.20649
1.26612
1.29015
1.34388
1.36267
1.39907
1.42218
1.46078
1.45642
0.000122757
0.0049472
0.0217057
0.056921
0.0858021
0.121986
0.16106
0.208899
0.237679
0.289559
0.315638
0.361913
0.385091
0.427765
0.452703
0.500255
0.521286
0.572188
0.596169
0.649328
2.51981e-05
0.000309412
0.00143575
0.0047613
0.00729784
0.0125435
0.0169783
0.0267655
0.0322507
0.044925
0.0511496
0.0648956
0.0715514
0.0857419
0.0930023
0.109945
0.117966
0.13747
0.146564
0.171488
2.18278e-05
4.35748e-05
0.00011746
0.000360663
0.000518807
0.000858329
0.00119035
0.00200445
0.00253031
0.00390736
0.00465051
0.0064002
0.00741173
0.00954839
0.0107159
0.0136653
0.0151498
0.0185617
0.0205434
0.0256157
2.10346e-05
3.03253e-05
4.37588e-05
7.54263e-05
9.96e-05
0.00011437
0.000129964
0.000170968
0.00019977
0.000286801
0.000328455
0.000433505
0.000549449
0.000635976
0.000715152
0.000976129
0.00111628
0.00126001
0.00155244
0.00193452
2.07709e-05
3.0324e-05
4.29021e-05
5.01691e-05
6.63403e-05
7.7011e-05
7.94738e-05
7.95799e-05
7.94986e-05
8.11366e-05
8.30006e-05
9.3548e-05
0.000105019
0.000108246
0.000109551
0.000119346
0.000123267
0.000138927
0.000145245
0.000152099
2.05891e-05
2.69594e-05
4.63135e-05
5.79377e-05
5.71011e-05
5.81009e-05
6.5142e-05
7.0311e-05
7.22816e-05
7.48245e-05
7.43161e-05
7.43665e-05
7.54046e-05
7.57932e-05
7.59759e-05
7.59527e-05
7.64642e-05
8.00014e-05
8.13056e-05
8.6088e-05
2.06547e-05
2.95819e-05
3.70793e-05
5.18028e-05
6.60152e-05
7.01929e-05
6.94438e-05
6.80278e-05
6.78866e-05
6.8724e-05
7.00768e-05
7.45232e-05
7.85437e-05
7.76543e-05
7.70288e-05
7.75273e-05
7.79e-05
7.97165e-05
8.1079e-05
8.59051e-05
2.07236e-05
2.77147e-05
4.35044e-05
6.68553e-05
6.83139e-05
6.62236e-05
6.56644e-05
7.36267e-05
8.26949e-05
9.21731e-05
9.33658e-05
9.84386e-05
9.9239e-05
0.000100102
0.000106333
0.00011579
0.000137846
0.000168235
0.00018351
0.000222335
2.10255e-05
2.91165e-05
5.15094e-05
8.03559e-05
8.66304e-05
0.00010293
0.000125716
0.000183934
0.000218243
0.000297608
0.000337695
0.0004522
0.000506578
0.000646231
0.000762282
0.00102906
0.00125053
0.00178644
0.00206629
0.00273473
2.16561e-05
4.35459e-05
0.000123732
0.000339791
0.00048213
0.00087042
0.00120687
0.0020519
0.00263975
0.00400473
0.00471837
0.0064834
0.00740809
0.0095786
0.0109763
0.0143485
0.0165208
0.0216228
0.0243875
0.0318936
2.49316e-05
0.000307507
0.00156717
0.00454894
0.00686363
0.0129188
0.0172418
0.0270124
0.0328932
0.0454466
0.0513266
0.0649441
0.071558
0.0864974
0.0945484
0.113504
0.123836
0.148293
0.160644
0.196272
0.000123084
0.00492816
0.0246378
0.0540608
0.0800092
0.130171
0.158935
0.208584
0.241366
0.291103
0.313752
0.362787
0.385223
0.433569
0.45661
0.510359
0.535753
0.59659
0.624665
0.700172
0.00335981
0.0695655
0.26326
0.414366
0.582746
0.708095
0.832194
0.92908
1.02865
1.09818
1.15373
1.21942
1.25738
1.30988
1.33529
1.38864
1.41004
1.46185
1.48297
1.53367
0.0845178
0.727842
1.56972
1.93395
2.28481
2.4316
2.58065
2.5958
2.62818
2.59899
2.58819
2.54175
2.52698
2.47639
2.46305
2.42285
2.41252
2.38301
2.37136
2.34175
1.40553
4.35055
5.32141
5.28607
5.13393
4.79557
4.59278
4.27325
4.13028
3.86997
3.77968
3.57558
3.51968
3.36587
3.32652
3.19603
3.16414
3.04114
2.99993
2.89364
8.1201
10.2654
8.79518
6.81603
5.71675
4.95618
4.54252
4.12779
3.92675
3.64732
3.55506
3.34385
3.29699
3.12646
3.09356
2.9261
2.88674
2.70285
2.63534
2.41628
1.78118
1.31542
1.06481
0.923152
0.831164
0.774756
0.727802
0.692568
0.660721
0.633166
0.609689
0.589864
0.573319
0.559138
0.547378
0.53636
0.52802
0.520334
0.515662
0.510577
0.507208
0.49994
0.495141
0.486537
0.480986
0.470965
0.462076
0.458026
0.44968
0.449853
0.450012
0.450897
0.453092
0.456945
0.457477
0.459466
0.458559
0.45833
0.457393
0.456712
0.453822
0.450691
0.443211
0.43996
0.432582
0.430341
0.424884
0.424016
0.421755
0.422055
0.422657
0.424399
0.427246
0.434054
0.43923
0.451805
0.462518
0.460516
0.444575
0.405389
0.338285
0.275816
0.226996
0.193556
0.168188
0.150141
0.138285
0.127088
0.122334
0.123068
0.127169
0.136278
0.157513
0.175906
0.202821
0.232724
0.254998
0.277993
0.291833
0.303882
0.311358
0.316014
0.321559
0.318777
0.318925
0.318334
0.315822
0.312806
0.306664
0.302802
0.300247
0.295208
0.285737
0.281551
0.272533
0.265576
0.250408
0.241343
0.222066
0.212234
0.191841
0.175475
0.154949
0.133581
0.113727
0.096335
0.0775435
0.0632051
0.0515344
0.0411529
0.0338645
0.0275845
0.0222315
0.0184012
0.0154612
0.012682
0.0110104
0.00935942
0.00816025
0.00724827
0.00651662
0.00581365
0.00544342
0.00495087
0.00462296
0.00440176
0.00416978
0.00394732
0.00388013
0.00372037
0.00367639
0.00359524
0.00357482
0.00352664
0.00351132
0.00344484
0.00340706
0.00334844
0.00330226
0.00324873
0.00322106
0.00319152
0.00321406
0.00322714
0.00327181
0.00328946
0.00332641
0.00332815
0.00338378
0.00340291
0.00360783
0.00365848
0.00408358
0.00422385
0.00468225
0.0049951
0.00590476
0.00632841
0.00787513
0.00875381
0.0106703
0.0141837
0.0175009
0.0191261
0.0234851
0.0248276
0.0274318
0.0291848
0.0285415
0.0287195
0.0289306
0.0299817
0.0353867
0.0457069
0.093443
0.196892
0.254891
0.262205
0.240369
0.203886
0.185371
0.17471
0.167822
0.164622
0.158685
0.137477
0.121142
0.106903
0.100431
0.108189
0.145932
0.161423
0.166494
0.169664
0.172968
0.159112
0.0974369
0.0826793
0.153758
2.74592
2.51517
2.05446
1.71128
1.47396
1.30299
1.18109
1.08954
1.01752
0.959636
0.907785
0.86606
0.826369
0.795625
0.765659
0.74321
0.721005
0.704843
0.688242
0.675806
0.663581
0.653493
0.64319
0.632812
0.622461
0.612549
0.603429
0.592236
0.584804
0.574014
0.568106
0.5601
0.555234
0.550571
0.547512
0.543573
0.540809
0.53662
0.53403
0.528188
0.525962
0.521006
0.518168
0.511916
0.508583
0.501388
0.49806
0.49121
0.488107
0.48203
0.479779
0.474744
0.473861
0.47135
0.473351
0.474685
0.480766
0.484184
0.493635
0.494057
0.493708
0.485196
0.471009
0.440059
0.413001
0.375565
0.351723
0.326095
0.308561
0.298333
0.297954
0.299389
0.305943
0.310145
0.319777
0.32217
0.327549
0.329086
0.333894
0.334109
0.334179
0.334545
0.331532
0.328837
0.324446
0.315465
0.309773
0.303874
0.28753
0.278102
0.2636
0.253459
0.231743
0.220993
0.199895
0.18401
0.160866
0.142255
0.124498
0.103141
0.0866976
0.0698213
0.0567065
0.0465146
0.037085
0.0300995
0.024236
0.0193209
0.0155603
0.0126237
0.0100232
0.00819397
0.00671044
0.00551376
0.00466429
0.00409235
0.00361485
0.00335743
0.00318151
0.00310965
0.00306155
0.00306333
0.00304716
0.00304187
0.00304065
0.00304355
0.00304852
0.00307094
0.00308547
0.00313628
0.00316307
0.00321407
0.00324168
0.0032855
0.00328599
0.00330656
0.00329052
0.00329113
0.00326082
0.00324385
0.00319988
0.00314379
0.00311566
0.00311052
0.00315593
0.00318036
0.00321757
0.00321063
0.0032149
0.00321573
0.00322545
0.0033246
0.00341651
0.00371862
0.00394839
0.00449726
0.00498225
0.00548549
0.00604966
0.00725879
0.00824902
0.00943367
0.0153719
0.0175717
0.0220551
0.0226458
0.0229541
0.0264002
0.028453
0.0277399
0.027987
0.0274766
0.029035
0.0332778
0.0450617
0.126186
0.222461
0.250172
0.248417
0.224298
0.200411
0.184755
0.17634
0.173554
0.174206
0.170828
0.148203
0.127801
0.107578
0.0983691
0.100891
0.136475
0.154221
0.16295
0.165627
0.165946
0.156493
0.100355
0.0820611
0.144982
1.72996
2.05816
1.80739
1.59244
1.42208
1.29021
1.18222
1.0989
1.02498
0.969818
0.916139
0.875196
0.833143
0.799944
0.766465
0.738861
0.7134
0.689785
0.672621
0.653476
0.641188
0.628523
0.615659
0.607784
0.593354
0.58538
0.572411
0.562595
0.550738
0.542197
0.530093
0.52487
0.514017
0.510058
0.502249
0.499061
0.492394
0.488907
0.483772
0.478853
0.474672
0.470176
0.46402
0.461131
0.454275
0.449923
0.443289
0.439859
0.432746
0.430223
0.425203
0.4229
0.420277
0.418823
0.419589
0.421299
0.425663
0.429781
0.439771
0.444554
0.454096
0.458445
0.458107
0.453046
0.447618
0.435915
0.426964
0.412402
0.405795
0.391064
0.384779
0.372067
0.366424
0.355249
0.350387
0.340388
0.331494
0.326138
0.316329
0.303423
0.294933
0.281246
0.269525
0.252763
0.239598
0.224207
0.206813
0.188761
0.170767
0.153278
0.135176
0.118271
0.0993222
0.0855045
0.0705238
0.0593442
0.0492044
0.0406125
0.0334644
0.0271991
0.0221628
0.0178222
0.014199
0.0114528
0.00909618
0.00731598
0.00596491
0.00489013
0.00405749
0.00346473
0.0030008
0.00268701
0.00248902
0.00236566
0.00233258
0.00234943
0.00238521
0.00244305
0.00259332
0.00275435
0.00293503
0.00305128
0.0032859
0.0033792
0.00355936
0.00370883
0.00377716
0.00393545
0.00403734
0.00408398
0.00420048
0.00421981
0.00425721
0.00425627
0.00430656
0.00435976
0.00448622
0.00448942
0.00448563
0.00444539
0.00439027
0.0042522
0.00424963
0.00426471
0.00456583
0.00471403
0.004775
0.00473053
0.00469573
0.00438809
0.00424751
0.00400034
0.00405401
0.00408109
0.0042945
0.00460724
0.005252
0.0056742
0.00654546
0.00710286
0.00807184
0.00957505
0.0142747
0.0167515
0.0224979
0.0229616
0.0235041
0.026959
0.0278207
0.0275216
0.0270209
0.0266841
0.0274725
0.0315335
0.0515475
0.166236
0.243326
0.252997
0.246291
0.22115
0.203717
0.190684
0.184404
0.184783
0.188274
0.187241
0.166508
0.13556
0.10964
0.0964176
0.0973726
0.126992
0.14737
0.152161
0.160807
0.162531
0.154153
0.10355
0.0825026
0.125038
1.00929
1.35199
1.23228
1.11995
1.02708
0.954425
0.887192
0.8344
0.786091
0.744569
0.710725
0.678695
0.651258
0.625296
0.599738
0.575748
0.5541
0.53048
0.512861
0.495038
0.478544
0.469839
0.456035
0.449994
0.440115
0.433638
0.424342
0.415947
0.404935
0.397328
0.38439
0.377833
0.366206
0.360357
0.351806
0.346093
0.340866
0.335768
0.330954
0.328334
0.322148
0.319936
0.314718
0.312301
0.306659
0.303747
0.297865
0.295317
0.289301
0.286987
0.282258
0.280423
0.277958
0.277311
0.277629
0.279634
0.282125
0.287862
0.294525
0.303396
0.311783
0.324882
0.33316
0.341948
0.347996
0.347734
0.346235
0.341362
0.335765
0.323766
0.316606
0.301571
0.290796
0.27664
0.258729
0.248595
0.227664
0.212904
0.196643
0.176971
0.162411
0.145073
0.129057
0.113438
0.0988318
0.0853863
0.0736513
0.0632347
0.0544121
0.046021
0.0391321
0.0330358
0.0274552
0.0229602
0.0189694
0.0155706
0.0128232
0.010432
0.00851317
0.00689057
0.00558235
0.00449956
0.00366862
0.00302194
0.00255264
0.00220939
0.00198735
0.00187351
0.00178566
0.00179311
0.00184092
0.00188846
0.00195348
0.00213033
0.00228071
0.00257503
0.00300645
0.00336772
0.00423154
0.00503863
0.00571799
0.00645215
0.0073375
0.00781786
0.00849988
0.00884294
0.00901289
0.00931057
0.00944498
0.0095491
0.00954678
0.00952
0.00939537
0.00936373
0.00936469
0.00944617
0.00951391
0.00951698
0.00940012
0.00934743
0.00916477
0.00904438
0.00904984
0.00938774
0.00976743
0.00984475
0.00976152
0.00962885
0.0093448
0.00833192
0.00772581
0.00670599
0.0062445
0.00589558
0.0058567
0.00619765
0.00649525
0.00746932
0.00804836
0.00882519
0.00950294
0.0116928
0.0128152
0.016601
0.0216011
0.0229262
0.0243208
0.0263431
0.0268896
0.0271278
0.0264311
0.0270084
0.027874
0.0339003
0.0671094
0.209082
0.255021
0.267338
0.254356
0.233411
0.217317
0.202764
0.195742
0.198824
0.203092
0.202694
0.179747
0.141156
0.111578
0.0948862
0.0961838
0.122363
0.140889
0.147479
0.155165
0.157274
0.150922
0.107462
0.0848249
0.113629
0.567356
0.619858
0.581136
0.539521
0.498506
0.471307
0.443404
0.417454
0.401949
0.37922
0.367933
0.356261
0.344825
0.339324
0.326461
0.318669
0.308278
0.293402
0.285207
0.269901
0.258853
0.249785
0.239099
0.234778
0.228473
0.223856
0.221675
0.216109
0.213383
0.207878
0.203576
0.196356
0.191014
0.185153
0.178791
0.173836
0.17024
0.164075
0.16113
0.158509
0.154031
0.152283
0.148848
0.146482
0.145034
0.14113
0.139008
0.137336
0.133702
0.132372
0.129775
0.128081
0.126617
0.125957
0.12606
0.127217
0.128594
0.132043
0.134981
0.14124
0.144946
0.152595
0.158118
0.16429
0.169466
0.172504
0.172542
0.171485
0.168536
0.162582
0.155166
0.145457
0.13529
0.124649
0.111483
0.100727
0.0883118
0.0774539
0.0685817
0.0592325
0.0517898
0.0448847
0.0388225
0.0333194
0.0285459
0.0242716
0.0205602
0.0173439
0.0145849
0.012192
0.0101977
0.00852865
0.00704162
0.00583373
0.00481975
0.00398041
0.00329763
0.00274983
0.0022759
0.00193044
0.0016449
0.00145752
0.00133253
0.00125418
0.0012613
0.00130002
0.00133846
0.00145295
0.00156322
0.00172037
0.00204589
0.00232843
0.00284084
0.0038428
0.00458096
0.00604519
0.00749397
0.00915581
0.0118349
0.0141219
0.0159891
0.0183191
0.0200553
0.0215492
0.0224549
0.0229229
0.0230796
0.0230752
0.0227844
0.0225662
0.0219813
0.0217222
0.0210164
0.0208099
0.0204438
0.0202986
0.0200591
0.0199628
0.0196157
0.0196452
0.0194311
0.0194748
0.0199128
0.02016
0.0201165
0.0199408
0.0190046
0.0183213
0.0167417
0.0155779
0.0137311
0.0125305
0.0109919
0.0103049
0.00945769
0.00968647
0.00973218
0.010658
0.0114372
0.0118615
0.0129581
0.0139244
0.0142738
0.0180171
0.021618
0.0231838
0.0253569
0.0269995
0.0291235
0.0283393
0.0272713
0.0275766
0.0286724
0.038239
0.0970324
0.235623
0.256445
0.298325
0.292049
0.267918
0.238768
0.212941
0.203649
0.208559
0.214479
0.211151
0.18042
0.13946
0.108872
0.0928296
0.0932485
0.117435
0.135027
0.141164
0.151502
0.152796
0.148405
0.114079
0.0909019
0.111234
0.358564
0.167878
0.161747
0.155303
0.144778
0.13875
0.132702
0.125794
0.122543
0.116316
0.113421
0.111051
0.108923
0.108608
0.107541
0.106574
0.105359
0.101103
0.0990921
0.0941209
0.0898719
0.0854979
0.0803647
0.0782486
0.0750591
0.0733029
0.0724758
0.0709604
0.0703608
0.0690317
0.0680638
0.066147
0.0641305
0.0628211
0.0600432
0.0583745
0.0570752
0.0543575
0.0530766
0.0515819
0.0496304
0.0488771
0.0474866
0.0462717
0.0458455
0.0447164
0.0441736
0.0432116
0.0423561
0.042035
0.0409974
0.0404008
0.0400405
0.039489
0.0394875
0.0396846
0.0401486
0.0412935
0.0424709
0.0447139
0.0461316
0.0486873
0.050899
0.0530795
0.0551616
0.0568769
0.0570964
0.0567183
0.0555869
0.0532801
0.050009
0.0464048
0.0421004
0.0380274
0.0336645
0.0296233
0.0258942
0.0222339
0.0193033
0.0164444
0.014125
0.0120164
0.0102768
0.00871356
0.00735402
0.00622717
0.00518365
0.00433745
0.00363288
0.00301225
0.00252308
0.00212695
0.0017815
0.00150349
0.0013078
0.00114932
0.00103917
0.000957116
0.000905649
0.000907552
0.000915659
0.000934832
0.00100218
0.00107407
0.00121342
0.0014545
0.00167281
0.00227037
0.00275805
0.00366104
0.00485104
0.00582895
0.0083624
0.0105639
0.013405
0.0174685
0.0212754
0.0265096
0.0325107
0.0376636
0.0428838
0.0477797
0.0510976
0.0536531
0.0550452
0.0549334
0.0542152
0.0533782
0.0509874
0.0498984
0.0476863
0.0467925
0.0450214
0.0444611
0.0431288
0.0423479
0.0416504
0.041294
0.0408181
0.0411732
0.0410519
0.0417259
0.0425918
0.042802
0.0425256
0.0418383
0.0391089
0.0372711
0.0329005
0.0304438
0.0257072
0.0238018
0.0203501
0.0187563
0.0166663
0.0158494
0.015336
0.0154857
0.0160768
0.0162964
0.0173288
0.0171703
0.0173099
0.0190415
0.023051
0.0251969
0.0296404
0.0298098
0.0311103
0.0287634
0.0280998
0.0277833
0.0300823
0.0459441
0.14007
0.234077
0.263182
0.3228
0.320421
0.29299
0.251405
0.224626
0.214442
0.216616
0.218063
0.213251
0.171963
0.132056
0.101024
0.0899404
0.089973
0.113813
0.131076
0.133951
0.144409
0.148891
0.148403
0.130401
0.094071
0.0985581
0.239109
0.025393
0.024877
0.0244018
0.0233868
0.0228308
0.0223288
0.0218246
0.0215236
0.0205112
0.0200784
0.0197883
0.0196655
0.0199184
0.0200357
0.0203098
0.0203347
0.0201133
0.0199106
0.0191036
0.018467
0.0175966
0.0165429
0.0160053
0.0152623
0.0149884
0.0148597
0.0147216
0.0147072
0.014599
0.0144867
0.0143323
0.013903
0.0137252
0.0133339
0.0130163
0.0128768
0.0124662
0.0122119
0.0118418
0.0112708
0.0110755
0.0106935
0.0104445
0.0103565
0.0101164
0.0100396
0.00994882
0.00981835
0.00980533
0.009738
0.0096816
0.0096712
0.00956386
0.00956069
0.00959749
0.00970043
0.00997506
0.0102974
0.0108046
0.0113335
0.011837
0.0124755
0.0130433
0.0135322
0.0141942
0.0144816
0.0144158
0.0141628
0.0136902
0.0126352
0.0116657
0.0104305
0.00925845
0.00819003
0.00706388
0.00612559
0.00521661
0.00441763
0.00374272
0.00317928
0.00267773
0.00229079
0.00194359
0.00163438
0.00139567
0.00117171
0.000991741
0.000872853
0.000754915
0.000687088
0.000642676
0.000625559
0.00063059
0.000642198
0.000657926
0.000697647
0.000733255
0.000811477
0.00092083
0.00107456
0.00124735
0.0017311
0.00209239
0.00285325
0.00374796
0.00467191
0.00673624
0.00810281
0.0108392
0.0141336
0.0170419
0.024099
0.0289942
0.0370746
0.0467179
0.0568269
0.0703045
0.0827927
0.0943792
0.106957
0.114322
0.121291
0.124624
0.124537
0.122655
0.12009
0.115094
0.10915
0.104316
0.0982683
0.0956567
0.0914654
0.0891855
0.0872244
0.0863955
0.085847
0.0860318
0.0859398
0.0872479
0.0873627
0.0891351
0.0891103
0.0887556
0.0877697
0.0849138
0.0807556
0.0769873
0.068014
0.0623204
0.0531972
0.0475147
0.0395715
0.0352367
0.0310905
0.0271803
0.0236531
0.0231122
0.0220154
0.0218582
0.0220213
0.0204193
0.0200782
0.0204917
0.0237357
0.0269175
0.0307099
0.0307499
0.0309062
0.0284614
0.0269496
0.0269258
0.0299332
0.0472938
0.165015
0.215253
0.291302
0.322802
0.32061
0.292738
0.250622
0.226881
0.217397
0.218365
0.216343
0.200495
0.151366
0.117689
0.0935188
0.0874077
0.0889732
0.109643
0.129558
0.132725
0.136065
0.144836
0.152509
0.154926
0.108761
0.0983787
0.151774
0.00194012
0.00193809
0.0019337
0.00192057
0.00190095
0.00188462
0.001868
0.00183176
0.00178119
0.00175547
0.00174149
0.00174279
0.00181791
0.00190538
0.00196935
0.00199045
0.00198316
0.00196653
0.00187734
0.00181185
0.00173595
0.00166245
0.00163549
0.0016035
0.0016025
0.00160232
0.00159962
0.00160033
0.00158698
0.00157058
0.00153142
0.00148712
0.00146906
0.00144987
0.00144869
0.00145263
0.0014525
0.00145465
0.0014345
0.00138859
0.00135373
0.00131382
0.00128927
0.00127767
0.00126507
0.00126499
0.00126702
0.00127078
0.00128582
0.00129742
0.00131168
0.00131455
0.00130549
0.00130657
0.00131567
0.00133699
0.0013975
0.00146202
0.00156778
0.0016926
0.00180515
0.00191406
0.00202345
0.00213272
0.00230521
0.00237972
0.00237286
0.00233145
0.00224649
0.00205114
0.00189476
0.0016898
0.00152116
0.00134641
0.0011628
0.00100361
0.000859874
0.000734439
0.000638114
0.000568259
0.000506305
0.00046263
0.000429056
0.000403603
0.000390322
0.000389104
0.000391454
0.000400404
0.000418973
0.000460884
0.000511478
0.00056628
0.000710559
0.00081515
0.000985555
0.0012639
0.00146564
0.0019823
0.00239823
0.0032259
0.00392208
0.00543549
0.0066164
0.00923931
0.0112098
0.0145954
0.019185
0.0224541
0.0300955
0.0379931
0.046009
0.0621648
0.0740971
0.0948201
0.116565
0.142191
0.169978
0.193785
0.218659
0.238529
0.253022
0.259657
0.259353
0.255727
0.245355
0.238428
0.223026
0.211849
0.197424
0.187688
0.176964
0.171471
0.168315
0.168635
0.168874
0.170317
0.172696
0.173967
0.178547
0.179781
0.184269
0.185525
0.184104
0.182096
0.1753
0.170387
0.159144
0.148664
0.135624
0.119135
0.104289
0.0857156
0.0707403
0.0584535
0.050594
0.0414978
0.0355067
0.0302405
0.0276003
0.0263895
0.0248163
0.024824
0.0247442
0.026549
0.0315522
0.0337987
0.0340796
0.0333274
0.0300326
0.0281582
0.028167
0.0322611
0.0514963
0.162132
0.205427
0.298833
0.323541
0.32167
0.283343
0.244912
0.21737
0.210883
0.208801
0.198145
0.157048
0.118484
0.094959
0.0841514
0.0827116
0.0891999
0.109045
0.123837
0.132852
0.135806
0.146164
0.150614
0.155293
0.125748
0.105138
0.118988
0.000165539
0.000167852
0.000172215
0.000176903
0.00017779
0.000177001
0.000174108
0.000173535
0.000174257
0.000177921
0.000184076
0.000185088
0.000185366
0.000182845
0.00017944
0.00017824
0.000175919
0.000175129
0.000172498
0.00017068
0.00016968
0.000168592
0.000169098
0.000169722
0.000170515
0.000170866
0.000170073
0.000168384
0.000164126
0.000160629
0.000157917
0.000155846
0.000155413
0.000155221
0.000155532
0.000156095
0.000156636
0.000156787
0.000156684
0.000155267
0.000153305
0.000152113
0.000151239
0.000150947
0.000151226
0.000152672
0.00015491
0.000157578
0.000159152
0.000161696
0.000163658
0.000165202
0.00016623
0.000166295
0.000166836
0.00016824
0.000172132
0.000176645
0.000185846
0.000195055
0.000207228
0.000219212
0.000227199
0.000246822
0.000259843
0.000267534
0.000267817
0.000266869
0.000263576
0.000255985
0.000244553
0.000236134
0.000221664
0.000208053
0.000203882
0.000203867
0.000205111
0.000210635
0.000221116
0.000229575
0.000248411
0.000272806
0.000290006
0.000327372
0.000376326
0.000419555
0.000522584
0.000628723
0.000807489
0.00110166
0.00130571
0.00167531
0.00229266
0.00269218
0.00340868
0.00431575
0.00498984
0.00670984
0.00797671
0.00991839
0.0127614
0.0162477
0.019367
0.0261677
0.0308163
0.0391855
0.0489241
0.0572804
0.0767815
0.092652
0.114059
0.148759
0.178594
0.22575
0.274279
0.323368
0.36806
0.402482
0.422532
0.43453
0.435998
0.434752
0.43117
0.420796
0.410602
0.396366
0.374082
0.353878
0.332922
0.320013
0.30574
0.303355
0.302307
0.305265
0.307504
0.317911
0.319889
0.327767
0.327973
0.32713
0.321814
0.316103
0.30318
0.296503
0.279991
0.271484
0.25705
0.242284
0.229247
0.206038
0.190301
0.165128
0.144571
0.116975
0.088097
0.0725323
0.0612634
0.0475458
0.0392779
0.0329201
0.0299707
0.0285608
0.0286529
0.0311144
0.0350345
0.0367677
0.0374011
0.0364057
0.0314069
0.0292309
0.0297465
0.0415346
0.0687635
0.150908
0.188985
0.303743
0.339571
0.340462
0.276793
0.228997
0.181636
0.176111
0.159564
0.129653
0.0996365
0.0855948
0.0786113
0.078425
0.0792381
0.0888887
0.110103
0.117147
0.129336
0.135767
0.153591
0.14697
0.148456
0.138209
0.114025
0.114689
8.54034e-05
8.58579e-05
8.78542e-05
9.23751e-05
9.53248e-05
9.63846e-05
9.63761e-05
9.66935e-05
9.65064e-05
9.61967e-05
9.50904e-05
9.44631e-05
9.40196e-05
9.36481e-05
9.29228e-05
9.26448e-05
9.2712e-05
9.38203e-05
9.55374e-05
9.64236e-05
9.66728e-05
9.62916e-05
9.47626e-05
9.36305e-05
9.2566e-05
9.20434e-05
9.18258e-05
9.17171e-05
9.19535e-05
9.32791e-05
9.64508e-05
9.97474e-05
0.000102111
0.000103504
0.000103844
0.000103153
0.000100924
9.87799e-05
9.73363e-05
9.64345e-05
9.60921e-05
9.60493e-05
9.61146e-05
9.66243e-05
9.87266e-05
0.000101923
0.000104659
0.00010611
0.000106748
0.000106747
0.000106124
0.000104996
0.000103766
0.000103035
0.000103016
0.000103167
0.000103765
0.00010457
0.000104888
0.000105537
0.000105911
0.000106409
0.000107175
0.000107785
0.000109444
0.000111967
0.000114045
0.000118479
0.000123295
0.000126997
0.000135428
0.000140453
0.000151138
0.000162822
0.000187463
0.000221405
0.00025141
0.000333856
0.000410867
0.000469123
0.000621259
0.000761998
0.000860384
0.00111561
0.00134304
0.00159845
0.00209592
0.00248148
0.00334508
0.00411107
0.00482006
0.0064058
0.00763902
0.00904694
0.011149
0.0136587
0.0154525
0.0196656
0.0235882
0.028137
0.0366584
0.0421473
0.0531274
0.0652865
0.0772895
0.0941798
0.117193
0.139177
0.178734
0.208951
0.267753
0.330365
0.400259
0.456237
0.487626
0.508189
0.513182
0.511597
0.505204
0.500754
0.494232
0.49203
0.487941
0.485422
0.483609
0.477206
0.471294
0.463321
0.450894
0.447902
0.447487
0.448511
0.452868
0.451957
0.445667
0.43788
0.419563
0.410052
0.388051
0.378708
0.359675
0.347366
0.333279
0.322689
0.307799
0.297041
0.29188
0.280708
0.276485
0.268596
0.250402
0.238439
0.213049
0.196657
0.162251
0.12514
0.0940166
0.0716851
0.0627627
0.0490512
0.042959
0.0374495
0.0354158
0.0358834
0.0375428
0.0382638
0.0384627
0.0367017
0.0312977
0.0294843
0.0310114
0.0452016
0.0781504
0.127824
0.175449
0.305376
0.352197
0.355202
0.265899
0.187531
0.134559
0.109508
0.0865385
0.0760982
0.068347
0.0669975
0.0684593
0.0728484
0.0771448
0.0888586
0.11318
0.117421
0.129253
0.133945
0.157209
0.146545
0.144886
0.144821
0.134611
0.117038
9.02155e-05
9.17112e-05
9.67361e-05
9.84015e-05
9.9848e-05
9.98417e-05
9.99733e-05
9.95198e-05
9.81899e-05
9.68118e-05
9.53226e-05
9.48009e-05
9.47407e-05
9.48003e-05
9.52698e-05
9.95185e-05
0.000117884
0.000134802
0.000150628
0.000158314
0.000159879
0.000157736
0.000144223
0.000134658
0.000124215
0.000117944
0.000115005
0.000113373
0.000115699
0.000134542
0.000169543
0.00020746
0.000232103
0.000246899
0.000249014
0.000242653
0.000224185
0.000205714
0.000193298
0.000183925
0.000180209
0.000179449
0.000180974
0.000196148
0.000219442
0.000246275
0.000270386
0.000281289
0.000286193
0.000286346
0.000278745
0.000270772
0.000258197
0.000248074
0.000242439
0.000237211
0.000234147
0.000232327
0.000231077
0.000231455
0.000234382
0.000236884
0.000239431
0.000246005
0.000255166
0.000267794
0.000278174
0.00029531
0.000311137
0.000340296
0.000382964
0.000421234
0.000519092
0.000609474
0.000798548
0.000985417
0.00117639
0.0015954
0.00187737
0.00221015
0.00284361
0.00326994
0.00380085
0.00474499
0.00538118
0.00669186
0.00770832
0.00951117
0.0118096
0.0133661
0.0164174
0.0199355
0.0223893
0.0278898
0.0316972
0.037546
0.0439542
0.0534262
0.0621309
0.0762286
0.0913985
0.104592
0.130835
0.150309
0.181643
0.214331
0.260197
0.311572
0.368131
0.447656
0.502551
0.535179
0.54947
0.551969
0.549837
0.542759
0.527072
0.506591
0.486323
0.482112
0.483366
0.486998
0.488572
0.493093
0.49617
0.502793
0.50786
0.511817
0.515567
0.517146
0.516054
0.511672
0.502489
0.481361
0.460146
0.430079
0.405179
0.385256
0.362209
0.354202
0.336563
0.327603
0.317884
0.303778
0.299063
0.290764
0.285812
0.282775
0.278565
0.276504
0.26954
0.265336
0.247483
0.235926
0.211577
0.186984
0.148927
0.111631
0.0825076
0.0646798
0.0544152
0.0511869
0.0470022
0.0448957
0.0435287
0.0427481
0.0406938
0.0365811
0.0336882
0.0314371
0.0322548
0.0394997
0.0650438
0.0963602
0.161796
0.297726
0.370362
0.357176
0.236508
0.170371
0.128117
0.0883077
0.0728417
0.0653373
0.0615601
0.0619792
0.066263
0.0688897
0.0779609
0.0879494
0.115548
0.119808
0.133096
0.130697
0.151981
0.146876
0.146624
0.151149
0.146894
0.12384
0.00025884
0.000275311
0.000307081
0.000328468
0.000345792
0.000348674
0.000350326
0.00033899
0.000309063
0.000291252
0.000273843
0.000271348
0.000272351
0.000278144
0.000306464
0.0004113
0.000594148
0.000737003
0.000849771
0.000896018
0.000898484
0.00086321
0.000745303
0.000668614
0.00059355
0.000549694
0.000539916
0.000544502
0.00068586
0.000917939
0.00114778
0.00135605
0.00146245
0.0015126
0.00151032
0.00143852
0.00134695
0.00124978
0.00119497
0.00115626
0.00114207
0.00115913
0.00121792
0.00133941
0.00147169
0.00159961
0.00172331
0.00178063
0.00180216
0.00180427
0.00177536
0.00170937
0.0016282
0.00154951
0.00149394
0.00145447
0.00143786
0.00143905
0.00146411
0.00150463
0.00153553
0.00155366
0.00158285
0.00164708
0.00171194
0.00177666
0.00183282
0.00191149
0.00198612
0.00213952
0.00231479
0.00253381
0.00308432
0.00346505
0.00425341
0.00499501
0.00582347
0.00711956
0.00792858
0.00949766
0.0110909
0.0122618
0.0148636
0.0166553
0.0193821
0.0229572
0.0253873
0.031068
0.0352563
0.0404512
0.0482233
0.0547301
0.0626831
0.0732872
0.0845228
0.0962582
0.113296
0.133702
0.153693
0.183513
0.205459
0.243424
0.284046
0.326136
0.375822
0.437454
0.484551
0.524171
0.554848
0.578722
0.583935
0.578725
0.561925
0.520277
0.463316
0.409062
0.369916
0.368322
0.377117
0.396848
0.417878
0.436813
0.452131
0.473974
0.485592
0.50704
0.51873
0.527234
0.525841
0.516139
0.492073
0.451873
0.412135
0.379422
0.368488
0.361431
0.361713
0.359204
0.359569
0.358654
0.354654
0.351475
0.341285
0.334406
0.322126
0.302905
0.295762
0.288211
0.28304
0.278674
0.275876
0.268755
0.261296
0.246001
0.231907
0.205832
0.172841
0.152766
0.122401
0.0945402
0.0782965
0.0658552
0.0549588
0.0495214
0.0473236
0.0456363
0.0402696
0.0351061
0.0341673
0.0331338
0.0349985
0.044688
0.0620768
0.0921528
0.151829
0.324297
0.38307
0.328367
0.228329
0.183914
0.136191
0.0854099
0.0746253
0.0645742
0.0604077
0.0623962
0.0659871
0.0688215
0.0821949
0.0897536
0.118493
0.121163
0.143236
0.131657
0.139957
0.149533
0.149819
0.152046
0.149585
0.132104
0.00327299
0.00350913
0.00365367
0.00371587
0.00373657
0.00372747
0.00371429
0.0035321
0.00338455
0.00333582
0.00331692
0.00335017
0.00346842
0.00387854
0.00452397
0.00518792
0.00594209
0.00643608
0.00675656
0.00683907
0.00677604
0.00651297
0.00608748
0.00587771
0.00569028
0.00562626
0.00573945
0.00618539
0.00721037
0.00803551
0.00873362
0.00925399
0.00938982
0.00941501
0.00929383
0.00894155
0.00872874
0.00848018
0.0083773
0.00834082
0.00833849
0.00856929
0.00885826
0.00915501
0.00949385
0.00975318
0.00999114
0.0100852
0.0100892
0.0100706
0.00999738
0.00975778
0.00953665
0.00924673
0.00900036
0.0088399
0.00876898
0.00877013
0.00884471
0.00889755
0.00894476
0.00905056
0.00915694
0.00927991
0.00942406
0.00954495
0.00979182
0.0100348
0.0105131
0.0110708
0.011795
0.0131848
0.0143495
0.0161543
0.0184606
0.0200701
0.0233581
0.0261085
0.028634
0.033582
0.036627
0.0413518
0.0477635
0.0517455
0.060077
0.0672367
0.0740903
0.0871061
0.0954497
0.108389
0.123826
0.138821
0.156338
0.177885
0.201419
0.225562
0.260035
0.297252
0.337163
0.375249
0.421372
0.462485
0.494466
0.521075
0.548589
0.56134
0.577335
0.592238
0.589602
0.571042
0.514261
0.426092
0.333347
0.283159
0.274433
0.278877
0.29417
0.317457
0.346641
0.369891
0.394298
0.41619
0.439197
0.448367
0.450696
0.448323
0.44036
0.417566
0.381537
0.352757
0.342194
0.33842
0.339075
0.341657
0.348492
0.359598
0.370707
0.376999