/*--------------------------------*- C++ -*----------------------------------*\
| =========                 |                                                 |
| \\      /  F ield         | OpenFOAM: The Open Source CFD Toolbox           |
|  \\    /   O peration     | Version:  2.4.0                                 |
|   \\  /    A nd           | Web:      www.OpenFOAM.org                      |
|    \\/     M anipulation  |                                                 |
\*---------------------------------------------------------------------------*/
FoamFile
{
    version     2.0;
    format      ascii;
    class       volScalarField;
    location    "0.87";
    object      k_0;
}
// * * * * * * * * * * * * * * * * * * * * * * * * * * * * * * * * * * * * * //

dimensions      [0 2 -2 0 0 0 0];

internalField   nonuniform List<scalar> 
8800
(
8.11854
10.2662
8.79388
6.81931
5.70989
4.96983
4.52854
4.14175
3.91906
3.66309
3.54753
3.36633
3.29958
3.16019
3.10163
2.99092
2.92027
2.82357
2.75198
2.56637
1.40331
4.35225
5.31968
5.28772
5.13089
4.80769
4.57478
4.28723
4.12109
3.88007
3.77628
3.58623
3.51898
3.37758
3.32711
3.21801
3.17319
3.08647
3.00683
2.9717
0.0843452
0.730733
1.56376
1.94419
2.27352
2.43723
2.57606
2.6002
2.62341
2.6016
2.58961
2.53983
2.52339
2.47113
2.4594
2.41071
2.40295
2.36846
2.34572
2.30296
0.00335072
0.0698315
0.257924
0.422904
0.582025
0.700559
0.838826
0.927255
1.02556
1.09127
1.16822
1.20643
1.26587
1.29012
1.34414
1.36256
1.39911
1.42246
1.46055
1.4563
0.000122767
0.00494752
0.0217125
0.0570576
0.085511
0.122018
0.161247
0.208692
0.237745
0.289704
0.315658
0.361942
0.384906
0.427796
0.452874
0.500028
0.521149
0.572376
0.596303
0.649403
2.52025e-05
0.000309434
0.00143623
0.00477166
0.00729173
0.0125322
0.0169776
0.0267442
0.0322481
0.0449567
0.0511725
0.0649231
0.0715454
0.0857066
0.0929941
0.109922
0.117923
0.137457
0.146638
0.171597
2.18232e-05
4.35674e-05
0.0001175
0.000361248
0.000518378
0.000857517
0.00119009
0.00200104
0.00252975
0.00391191
0.00465337
0.00640935
0.00741527
0.00953512
0.0107104
0.0136618
0.015133
0.0185592
0.0205754
0.0256053
2.10327e-05
3.02344e-05
4.37123e-05
7.60769e-05
9.95183e-05
0.000113995
0.000129697
0.000170672
0.00019988
0.000287232
0.000328797
0.000436896
0.000548568
0.000630903
0.00071452
0.000980622
0.00110954
0.00125868
0.00156331
0.00192922
2.07705e-05
3.04156e-05
4.23379e-05
5.03267e-05
6.71637e-05
7.72453e-05
7.9224e-05
7.91891e-05
7.91274e-05
8.08772e-05
8.30671e-05
9.45979e-05
0.000105161
0.00010784
0.000109237
0.000119255
0.000123238
0.000138912
0.000144618
0.00015311
2.05864e-05
2.70031e-05
4.66119e-05
5.73156e-05
5.65519e-05
5.81889e-05
6.57906e-05
7.04956e-05
7.24292e-05
7.47337e-05
7.41756e-05
7.42781e-05
7.53813e-05
7.56588e-05
7.58456e-05
7.58702e-05
7.65306e-05
8.02662e-05
8.13271e-05
8.5734e-05
2.06569e-05
2.94475e-05
3.69439e-05
5.2329e-05
6.64134e-05
7.00357e-05
6.91052e-05
6.7765e-05
6.76936e-05
6.87201e-05
7.02884e-05
7.50149e-05
7.84938e-05
7.74607e-05
7.69004e-05
7.74328e-05
7.78529e-05
7.97746e-05
8.11858e-05
8.64314e-05
2.07232e-05
2.77307e-05
4.40472e-05
6.66189e-05
6.76577e-05
6.56102e-05
6.54116e-05
7.46177e-05
8.33821e-05
9.21727e-05
9.32249e-05
9.81313e-05
9.8711e-05
9.9638e-05
0.000106431
0.000116209
0.000139281
0.000167716
0.000182751
0.000223894
2.10211e-05
2.91281e-05
5.19266e-05
7.95578e-05
8.58126e-05
0.000103328
0.000126689
0.000184843
0.000218577
0.000296856
0.000337046
0.000451023
0.00050497
0.000646523
0.000763491
0.00103124
0.00125616
0.0017812
0.00205743
0.00275535
2.1659e-05
4.35513e-05
0.000123519
0.00033781
0.000481461
0.000873061
0.00120883
0.00205464
0.00264185
0.00400056
0.00471371
0.0064774
0.00739933
0.00957768
0.0109834
0.0143718
0.0165427
0.0216023
0.0243648
0.0320388
2.49306e-05
0.000307577
0.00156597
0.0045186
0.00685772
0.0129499
0.0172581
0.0270289
0.0329015
0.0454098
0.0512942
0.064932
0.0715376
0.0865061
0.0945815
0.113571
0.123886
0.148213
0.160572
0.196387
0.000123072
0.00492745
0.0246665
0.0537141
0.0802924
0.130361
0.15877
0.208681
0.241415
0.290923
0.313634
0.362829
0.385237
0.433608
0.456691
0.510464
0.535785
0.596428
0.624575
0.700248
0.00335984
0.0695737
0.263209
0.414111
0.583163
0.708115
0.83184
0.929431
1.02875
1.09771
1.15375
1.21965
1.25729
1.3099
1.33537
1.38872
1.40999
1.46171
1.48294
1.53357
0.084521
0.727924
1.56958
1.9339
2.28513
2.43144
2.58054
2.59591
2.62817
2.59885
2.58816
2.5419
2.52704
2.47633
2.46307
2.42286
2.41246
2.38299
2.37135
2.34169
1.40559
4.35052
5.32137
5.28612
5.13393
4.79555
4.59288
4.27304
4.13032
3.87009
3.77965
3.57553
3.51976
3.36583
3.3265
3.19604
3.16411
3.04125
3.00001
2.89359
8.1202
10.2654
8.79512
6.8162
5.71654
4.95627
4.54261
4.12762
3.92677
3.64744
3.55506
3.34376
3.29704
3.12651
3.09359
2.92606
2.88676
2.70307
2.63556
2.41606
1.78106
1.31611
1.06551
0.923383
0.830957
0.774264
0.727195
0.692112
0.660366
0.633009
0.609645
0.589935
0.573463
0.559304
0.547527
0.536525
0.528094
0.520455
0.515713
0.51062
0.507258
0.499991
0.495242
0.486628
0.481056
0.470879
0.462022
0.457755
0.4494
0.449577
0.449715
0.450603
0.45286
0.456709
0.457287
0.45939
0.45854
0.458372
0.45752
0.456826
0.453926
0.450775
0.443216
0.439903
0.432423
0.430123
0.424599
0.423746
0.421488
0.421831
0.422437
0.424224
0.427142
0.433985
0.439194
0.451996
0.461948
0.459668
0.443184
0.402877
0.335484
0.273739
0.225487
0.192693
0.167598
0.149906
0.138109
0.126957
0.122687
0.123587
0.128039
0.137536
0.159484
0.177548
0.205519
0.234595
0.256747
0.279335
0.292702
0.304594
0.311702
0.316714
0.321543
0.318697
0.31912
0.318394
0.315634
0.31256
0.306423
0.303039
0.300455
0.294868
0.28589
0.281837
0.272825
0.265787
0.250567
0.241296
0.222635
0.212951
0.1921
0.176213
0.155117
0.13393
0.11443
0.0967095
0.0778949
0.063556
0.051584
0.041244
0.0340181
0.0275529
0.0222618
0.0185135
0.0154711
0.012739
0.0110742
0.00937246
0.00820546
0.00728142
0.00651269
0.00582415
0.00543869
0.00492307
0.00462156
0.00439286
0.00414389
0.00394146
0.00387304
0.00370519
0.00366583
0.00358885
0.00356821
0.00351768
0.00349666
0.00342141
0.00338609
0.00332727
0.00328042
0.00323164
0.00320684
0.00318804
0.00321839
0.0032348
0.00327906
0.00329371
0.00331986
0.0033237
0.00337684
0.0034033
0.00361187
0.00367117
0.00411542
0.00423204
0.00474206
0.00508566
0.00599816
0.00644917
0.00811872
0.00903928
0.0113211
0.0149012
0.0178937
0.0196717
0.0240812
0.0252525
0.028044
0.0293432
0.0285625
0.028519
0.0289411
0.0305787
0.0372112
0.0493496
0.113299
0.214256
0.263261
0.26559
0.236132
0.201136
0.184718
0.174459
0.167849
0.164426
0.155212
0.131493
0.115568
0.102394
0.0983912
0.111909
0.149559
0.160314
0.16665
0.169673
0.171308
0.150922
0.0899226
0.0806006
0.153812
2.71515
2.51506
2.05396
1.71072
1.47369
1.3031
1.18159
1.09
1.01797
0.959677
0.907685
0.865705
0.825934
0.795255
0.765365
0.743141
0.721087
0.705114
0.688487
0.676105
0.663742
0.653625
0.643154
0.632703
0.622366
0.612491
0.603326
0.59223
0.584804
0.574012
0.56819
0.560035
0.555306
0.550543
0.547465
0.543504
0.540687
0.536593
0.533863
0.528151
0.525976
0.520966
0.518141
0.51199
0.508659
0.501464
0.498157
0.491251
0.488174
0.482153
0.479907
0.474921
0.47399
0.471559
0.473584
0.47488
0.481014
0.484396
0.49364
0.494004
0.493531
0.484565
0.470284
0.438829
0.411855
0.374682
0.35126
0.325539
0.308656
0.299087
0.298882
0.300415
0.307098
0.311203
0.320539
0.322772
0.327941
0.329456
0.334114
0.334133
0.334443
0.334617
0.331427
0.32889
0.324131
0.315562
0.31047
0.303626
0.287099
0.278224
0.264068
0.253202
0.231989
0.221402
0.200314
0.184381
0.160959
0.143095
0.124705
0.103367
0.0871124
0.0699265
0.0570935
0.0467248
0.0372641
0.0303189
0.024357
0.0194291
0.0156778
0.0126688
0.0100468
0.00822409
0.00670113
0.00550916
0.00467549
0.00409054
0.00362121
0.00337189
0.00319798
0.00312207
0.00306585
0.00306072
0.00303726
0.00303317
0.00303117
0.00303386
0.0030393
0.00306247
0.00307674
0.00313402
0.00315901
0.00320545
0.00323448
0.00326999
0.00327025
0.00328771
0.00327033
0.00326862
0.00323502
0.00321781
0.00316659
0.00311622
0.00310208
0.00310742
0.00317113
0.00319122
0.00321679
0.00320466
0.00320228
0.00320202
0.00321669
0.00332997
0.00343398
0.00375163
0.00398029
0.00458427
0.00503356
0.00553824
0.00621697
0.00742727
0.00840656
0.00996512
0.0164275
0.0182688
0.0223051
0.0227193
0.0232524
0.0272247
0.0285527
0.0276761
0.0278391
0.0274469
0.0294841
0.0348444
0.0508551
0.149728
0.234697
0.254147
0.248303
0.220033
0.197944
0.183822
0.176534
0.174083
0.174289
0.166864
0.140478
0.120926
0.102415
0.0960627
0.102284
0.141391
0.154276
0.162161
0.165906
0.165658
0.149835
0.0926015
0.0795521
0.144831
1.69853
2.05871
1.80776
1.59212
1.42149
1.28957
1.18207
1.09896
1.02548
0.97042
0.916533
0.875467
0.832945
0.799705
0.765863
0.738536
0.712825
0.68978
0.672684
0.653708
0.641984
0.628737
0.616374
0.607932
0.593334
0.58543
0.571997
0.562383
0.550549
0.54186
0.530196
0.524808
0.5141
0.510223
0.502447
0.499225
0.492387
0.489067
0.483712
0.478918
0.474811
0.469952
0.464191
0.461319
0.45404
0.449924
0.443496
0.439881
0.433004
0.430582
0.425586
0.423434
0.420688
0.419462
0.420273
0.421991
0.426344
0.430492
0.440386
0.445087
0.454637
0.458575
0.458085
0.452789
0.447342
0.435418
0.426441
0.412178
0.405533
0.390479
0.384265
0.37165
0.366023
0.354926
0.349985
0.339558
0.331182
0.325837
0.315179
0.302711
0.294456
0.280441
0.268627
0.252058
0.239188
0.223724
0.206407
0.188399
0.170763
0.153409
0.135294
0.118154
0.0996086
0.0858095
0.0706577
0.0596121
0.0493293
0.0407571
0.033569
0.0272697
0.0222301
0.0178377
0.0142429
0.011486
0.00912541
0.00736492
0.00600819
0.00491988
0.00408538
0.00348144
0.00300728
0.00269213
0.00249379
0.00236375
0.00233243
0.00234983
0.00238573
0.00244764
0.00261584
0.00275665
0.0029229
0.00304019
0.00325348
0.00333845
0.00353044
0.00365804
0.00373451
0.00389795
0.00397823
0.00403591
0.00413813
0.00415281
0.00418274
0.00419
0.00426342
0.00432737
0.00442902
0.00442141
0.00441166
0.0043635
0.00429894
0.00419387
0.00422495
0.00430688
0.00465827
0.00474608
0.00477366
0.00470878
0.0046472
0.0042796
0.00415684
0.00396674
0.00403893
0.00407767
0.00435385
0.00468466
0.00533769
0.00576792
0.00664828
0.00722571
0.00829229
0.0101221
0.0150485
0.0176972
0.0228058
0.0230662
0.0239259
0.0274958
0.0279445
0.0274334
0.0269574
0.026767
0.0278355
0.0334219
0.062962
0.188588
0.249479
0.25356
0.241766
0.217161
0.20061
0.188842
0.184283
0.185357
0.188362
0.18466
0.156279
0.127051
0.103799
0.0940184
0.0984378
0.131778
0.14698
0.151396
0.161614
0.162621
0.148973
0.0953452
0.0798214
0.123666
0.979504
1.3521
1.23279
1.12011
1.02719
0.954046
0.886659
0.834449
0.785962
0.74523
0.71144
0.679261
0.651818
0.625226
0.59926
0.575184
0.55299
0.529553
0.512354
0.494345
0.47902
0.470328
0.456815
0.45107
0.440981
0.434458
0.424607
0.415951
0.404907
0.39683
0.384079
0.377452
0.365853
0.360286
0.351564
0.346265
0.340904
0.33584
0.331322
0.328329
0.322363
0.320171
0.3149
0.312427
0.306666
0.303816
0.298071
0.295481
0.289417
0.287192
0.282555
0.2809
0.278433
0.277924
0.27831
0.280375
0.282872
0.288879
0.295315
0.304227
0.312812
0.325652
0.333625
0.342453
0.347826
0.347463
0.345855
0.340706
0.335009
0.322961
0.315699
0.300253
0.289859
0.274709
0.25777
0.247348
0.22572
0.211988
0.195021
0.175643
0.161447
0.143834
0.128005
0.11257
0.0981461
0.084818
0.0732777
0.0630393
0.0542454
0.045965
0.0391425
0.0330158
0.0274728
0.0230076
0.0189861
0.015609
0.0128526
0.0104515
0.00853558
0.00689473
0.00558247
0.00449764
0.00367173
0.00302795
0.00256408
0.00222113
0.00200699
0.00188815
0.00179591
0.00180477
0.00185126
0.00189356
0.0019608
0.00213932
0.00228251
0.00259072
0.00299112
0.00337482
0.00429907
0.00498616
0.00564635
0.0063886
0.00721674
0.00767919
0.00834339
0.00861868
0.00883153
0.00912628
0.0092497
0.0093341
0.00932582
0.00927878
0.00917539
0.0091677
0.00920014
0.00930003
0.00934621
0.00933606
0.00920919
0.00917101
0.00899383
0.00893733
0.00907397
0.00953809
0.00984595
0.00986911
0.00976103
0.00959172
0.00913574
0.00808574
0.00747344
0.00651665
0.00615751
0.00589265
0.00589704
0.00633489
0.0066586
0.00766786
0.00819361
0.00897386
0.00979371
0.0120155
0.0131719
0.0177816
0.0221859
0.0232537
0.0247429
0.0266406
0.0270449
0.0270781
0.0263723
0.027033
0.0283058
0.036732
0.0850317
0.226154
0.259233
0.263418
0.245109
0.226703
0.212221
0.20017
0.195892
0.200226
0.203441
0.201128
0.16945
0.132139
0.105203
0.0925777
0.0970592
0.126908
0.140726
0.147657
0.155877
0.157178
0.147113
0.0992532
0.0822131
0.112325
0.548723
0.619927
0.581683
0.539439
0.498447
0.471382
0.442066
0.417265
0.401312
0.379015
0.369068
0.357022
0.34644
0.340426
0.326708
0.319237
0.307303
0.292808
0.28406
0.268245
0.258099
0.248865
0.239113
0.235267
0.228953
0.225033
0.222597
0.216905
0.214273
0.208133
0.203623
0.196192
0.190932
0.184749
0.178454
0.173857
0.169805
0.163818
0.161328
0.15838
0.15408
0.15238
0.14896
0.146877
0.145139
0.141172
0.139404
0.137455
0.133943
0.132659
0.129898
0.128352
0.126894
0.126325
0.126486
0.127703
0.129087
0.132631
0.135569
0.141777
0.145507
0.153245
0.158694
0.164881
0.169809
0.172384
0.17229
0.171054
0.16783
0.161779
0.154176
0.14448
0.134471
0.123523
0.110509
0.0997951
0.087255
0.0767808
0.0679091
0.0586187
0.051364
0.0444973
0.0384889
0.0330435
0.0283199
0.0240814
0.0204165
0.017251
0.0145113
0.0121591
0.0101876
0.00851989
0.00703434
0.00583991
0.00482404
0.00398638
0.00330341
0.00274976
0.00227809
0.00192857
0.00164115
0.00146034
0.00133348
0.00126055
0.00127213
0.0013097
0.00134946
0.00147245
0.00157181
0.00174271
0.00204955
0.00233378
0.00290516
0.00386169
0.00457441
0.00611504
0.00746985
0.00926561
0.0119123
0.0139494
0.0158181
0.0180851
0.0197113
0.0211074
0.0218901
0.0223111
0.0225019
0.022493
0.0222004
0.0219918
0.0214214
0.0211616
0.0204913
0.0203332
0.0200184
0.0198946
0.019688
0.0195818
0.0193232
0.0194001
0.0192286
0.0194784
0.0200222
0.0202271
0.0201608
0.0199176
0.0188275
0.0181632
0.016403
0.0152648
0.0134253
0.0122716
0.0108687
0.0102227
0.00956214
0.00985509
0.00995432
0.0110183
0.0116403
0.0120546
0.013192
0.0139827
0.0144987
0.0190783
0.0221585
0.023644
0.0257385
0.0273987
0.0291373
0.0280908
0.0272514
0.0275474
0.0292513
0.0424498
0.12186
0.247611
0.263009
0.289538
0.277558
0.255012
0.230201
0.209357
0.203999
0.211273
0.215808
0.209411
0.169983
0.130817
0.102897
0.090942
0.0933103
0.121892
0.135405
0.141077
0.151733
0.152783
0.145959
0.10662
0.0874661
0.10883
0.348255
0.167932
0.161961
0.155325
0.144701
0.138969
0.132289
0.125611
0.122056
0.115984
0.113607
0.111332
0.109678
0.109415
0.108193
0.107161
0.105424
0.100954
0.0989528
0.0930915
0.0891734
0.0845703
0.0799672
0.0780326
0.0750232
0.0736468
0.0728411
0.0714523
0.070861
0.0694174
0.0683426
0.0662512
0.0643177
0.0627749
0.059932
0.0584594
0.0568643
0.054168
0.0530332
0.0513995
0.0495979
0.0488865
0.047441
0.0464171
0.0460099
0.0447994
0.0442782
0.0432939
0.0425656
0.0421683
0.0409969
0.0405369
0.0401082
0.0395981
0.0396181
0.0398422
0.040331
0.0415469
0.0427473
0.0448899
0.0463197
0.0488793
0.0510669
0.0532599
0.0553591
0.0569224
0.057029
0.0565887
0.0553343
0.0529131
0.0496056
0.0459684
0.0416801
0.0376261
0.0332789
0.0293017
0.02558
0.0219891
0.0191006
0.0162724
0.0140003
0.0119132
0.0102003
0.00863855
0.00729818
0.00617474
0.00513605
0.00430972
0.00360668
0.00299738
0.00251762
0.00212298
0.00177527
0.00150426
0.00130927
0.00115043
0.00103917
0.000955002
0.000905322
0.000907318
0.000915545
0.000936898
0.00100896
0.00107663
0.00123685
0.00145716
0.00168745
0.00231345
0.00277312
0.0037346
0.00481682
0.00590865
0.00853316
0.0106065
0.013557
0.0175413
0.0213544
0.0266935
0.0324468
0.0373423
0.0424153
0.0470448
0.0500367
0.0524395
0.0535555
0.0533772
0.0526716
0.0517897
0.0494369
0.0484976
0.046379
0.045527
0.0439268
0.0433795
0.0419976
0.0413956
0.0408297
0.0405437
0.0402789
0.0408277
0.0408414
0.0419776
0.0428186
0.042949
0.0426202
0.0417132
0.0387322
0.0369489
0.0322451
0.0298694
0.0253382
0.0235725
0.0201838
0.0187091
0.0167712
0.0160472
0.0155955
0.0158225
0.0163014
0.0165073
0.017409
0.0171607
0.0174018
0.0198432
0.0236999
0.0260382
0.0299539
0.029978
0.03099
0.0284017
0.0278641
0.027861
0.0314625
0.0529217
0.163009
0.245248
0.26883
0.322375
0.315786
0.284059
0.246033
0.221584
0.215263
0.219856
0.22052
0.211209
0.161707
0.124424
0.0964585
0.0887297
0.0905491
0.11809
0.131475
0.134389
0.144621
0.14825
0.147061
0.125341
0.0906698
0.0951776
0.23161
0.0253672
0.0248713
0.024421
0.0233903
0.0229064
0.0223691
0.0218439
0.02136
0.0203595
0.0200397
0.0198196
0.0197705
0.0201193
0.0202413
0.0204529
0.020442
0.0201323
0.0198794
0.0189011
0.0183033
0.0173532
0.0163909
0.0158757
0.0152234
0.0150433
0.0149418
0.0148424
0.0148256
0.0146933
0.0145763
0.0143705
0.0139464
0.0137681
0.0133326
0.0130624
0.0129052
0.0124289
0.0121856
0.0117502
0.0112263
0.0110472
0.0106634
0.0104693
0.0103804
0.0101453
0.0100884
0.00999197
0.00988233
0.00986984
0.00977747
0.00972795
0.00970018
0.00957256
0.00957568
0.00961732
0.00972719
0.0100314
0.0103487
0.0108568
0.0113603
0.0118634
0.012508
0.0130605
0.013606
0.0142801
0.0144941
0.0144066
0.0141289
0.0135713
0.0124904
0.0115241
0.0102776
0.00914556
0.00807919
0.00696657
0.00604705
0.00514218
0.00436142
0.00370318
0.00314925
0.00265774
0.00227803
0.00192808
0.00162326
0.00138503
0.00115898
0.000985536
0.000866782
0.000750012
0.000686958
0.000643016
0.000627286
0.000631958
0.000642034
0.000658041
0.000696077
0.000731212
0.000814039
0.000922724
0.00106366
0.00127149
0.00175073
0.00209263
0.00292876
0.00375749
0.00478824
0.00677726
0.00812548
0.011066
0.0140998
0.0174341
0.0243757
0.0291325
0.0374921
0.0469492
0.0571697
0.0704696
0.0822946
0.0937591
0.105427
0.112152
0.118764
0.121406
0.121154
0.119122
0.116603
0.111334
0.105747
0.100957
0.095486
0.0930773
0.0889958
0.0870068
0.0853659
0.0847616
0.0844578
0.0848055
0.0850103
0.0867188
0.0870479
0.0892378
0.089261
0.0889659
0.0879125
0.0847359
0.0809026
0.0765622
0.0673515
0.0618412
0.0527571
0.047125
0.0392605
0.0354062
0.0310434
0.0270848
0.0238537
0.0233498
0.0221054
0.021978
0.021988
0.0201517
0.0200743
0.0208678
0.0246934
0.0278145
0.0310329
0.0309274
0.0306916
0.0279421
0.0267995
0.0270559
0.0313736
0.0554503
0.184482
0.228603
0.299043
0.326266
0.320589
0.286398
0.247834
0.227251
0.220427
0.221971
0.219361
0.195809
0.1446
0.112067
0.0907384
0.0867115
0.0904167
0.113605
0.129726
0.133449
0.136799
0.145143
0.151224
0.15123
0.105297
0.0955273
0.150079
0.00194073
0.00193946
0.00193582
0.00192259
0.00190415
0.00188741
0.0018616
0.00181513
0.00176833
0.00174883
0.0017409
0.00175688
0.00185923
0.00193503
0.00198511
0.00199514
0.00198106
0.00195386
0.00184771
0.00179103
0.0017148
0.00165336
0.00163144
0.00160754
0.00160949
0.00160946
0.00160673
0.00160601
0.00158731
0.00156877
0.001524
0.00148706
0.00147289
0.00145841
0.00145931
0.00146259
0.00146207
0.00146059
0.00142399
0.00138007
0.00134543
0.00130858
0.00128933
0.00127963
0.00127062
0.0012721
0.00127509
0.0012811
0.00129682
0.00130732
0.00131764
0.00131565
0.00130367
0.0013057
0.00131555
0.0013386
0.00140532
0.00146892
0.00157845
0.0016971
0.00180316
0.0019105
0.00202253
0.00215341
0.00232736
0.00238006
0.0023677
0.00231708
0.0022145
0.00201815
0.00186646
0.00166442
0.00150257
0.00132529
0.00114344
0.000987567
0.0008458
0.000725046
0.000633064
0.000565743
0.000504216
0.000460985
0.000427382
0.000401321
0.000388012
0.000387278
0.00039034
0.000400898
0.0004199
0.000464202
0.000511982
0.000572721
0.000715191
0.000811349
0.000992507
0.00124867
0.00145572
0.00200388
0.00241169
0.00324003
0.00394893
0.00550947
0.00672202
0.00936206
0.0113055
0.0148811
0.0191589
0.0225365
0.0308469
0.0380718
0.0469515
0.0627197
0.0747089
0.0957948
0.11717
0.142781
0.16952
0.192852
0.216389
0.234523
0.247882
0.253267
0.252639
0.248395
0.238751
0.231895
0.215899
0.205269
0.191331
0.182021
0.172136
0.167551
0.165427
0.165994
0.166488
0.168402
0.17097
0.172708
0.177917
0.179388
0.185218
0.18616
0.184867
0.182727
0.175807
0.170764
0.159011
0.148746
0.135205
0.118518
0.103472
0.0847835
0.0702434
0.0584716
0.0502202
0.0411388
0.0351735
0.0300052
0.0275268
0.0261726
0.0248899
0.0249516
0.0250324
0.0277641
0.0324514
0.0341605
0.0342513
0.0328745
0.0295607
0.0280478
0.0283921
0.0343929
0.0598146
0.179821
0.218825
0.308831
0.326271
0.321224
0.278756
0.244552
0.221702
0.21664
0.214323
0.201371
0.152874
0.115135
0.0922585
0.0832913
0.0826391
0.0920305
0.111878
0.123386
0.132417
0.136933
0.146542
0.148997
0.151143
0.12178
0.102699
0.116969
0.00016589
0.000167499
0.000171927
0.000176677
0.000177346
0.000176134
0.000173683
0.000173607
0.000175192
0.000179898
0.000184687
0.000184965
0.000184661
0.000181163
0.000178603
0.000177586
0.000175498
0.00017466
0.000171719
0.000170325
0.000169519
0.000168846
0.000169616
0.000170291
0.000170906
0.000171009
0.000169506
0.000167261
0.0001628
0.000159705
0.000157314
0.000155755
0.000155596
0.000155538
0.000156044
0.000156551
0.000156972
0.000157012
0.000156567
0.00015467
0.000152903
0.000151893
0.000151233
0.000151112
0.000151863
0.000153666
0.000156037
0.000158546
0.000160107
0.000162633
0.000164346
0.000165618
0.000166234
0.000165973
0.00016637
0.00016771
0.000171717
0.000176313
0.00018541
0.000194607
0.000206584
0.000217723
0.000227577
0.000248691
0.000261103
0.000267039
0.000266815
0.000265372
0.000261616
0.000252741
0.000242007
0.00023292
0.000217837
0.000205566
0.000202972
0.000203138
0.00020472
0.000211821
0.000220936
0.000230433
0.000249278
0.000270955
0.000288136
0.000328783
0.000373293
0.000416998
0.000530611
0.000637569
0.00082853
0.00110566
0.00130729
0.00171879
0.00229682
0.00267774
0.0034347
0.00425783
0.00501799
0.0067694
0.00793744
0.0100841
0.0129225
0.0163362
0.0197254
0.0264728
0.0310526
0.0397914
0.0488906
0.0583296
0.0779956
0.0932767
0.116103
0.150354
0.18029
0.227958
0.274982
0.323482
0.3671
0.399365
0.41965
0.431172
0.432048
0.430553
0.426264
0.414641
0.404173
0.388312
0.365225
0.344965
0.325076
0.312621
0.30014
0.298616
0.29812
0.3016
0.304514
0.315834
0.318137
0.327523
0.327821
0.326916
0.321044
0.315196
0.302301
0.29552
0.278823
0.270747
0.255869
0.241985
0.227926
0.205281
0.189134
0.16431
0.143316
0.114614
0.0868155
0.072464
0.0602701
0.0464233
0.038603
0.0324421
0.029921
0.0288115
0.0291
0.0322934
0.035754
0.0371365
0.0375096
0.0357776
0.0307193
0.029135
0.029934
0.046667
0.0776785
0.163231
0.201412
0.318579
0.34209
0.336391
0.269728
0.231395
0.191392
0.18617
0.168591
0.133699
0.100597
0.0855109
0.0784669
0.078474
0.0796408
0.0920335
0.11262
0.118142
0.128017
0.13679
0.153241
0.145805
0.145434
0.133803
0.111468
0.112613
8.4976e-05
8.56005e-05
8.78744e-05
9.26683e-05
9.56396e-05
9.63635e-05
9.62909e-05
9.65267e-05
9.61759e-05
9.57025e-05
9.46932e-05
9.42512e-05
9.38383e-05
9.33727e-05
9.27277e-05
9.2577e-05
9.28809e-05
9.43953e-05
9.58268e-05
9.63975e-05
9.64311e-05
9.55968e-05
9.41018e-05
9.31048e-05
9.22324e-05
9.18607e-05
9.1721e-05
9.16791e-05
9.22602e-05
9.42403e-05
9.75299e-05
0.000100496
0.000102426
0.000103344
0.00010338
0.00010199
9.97552e-05
9.78555e-05
9.67084e-05
9.60539e-05
9.58784e-05
9.58998e-05
9.60564e-05
9.70648e-05
9.96674e-05
0.000102804
0.000105116
0.000106187
0.00010655
0.000106452
0.000105506
0.000104425
0.000103369
0.000102883
0.000102938
0.000103156
0.00010384
0.000104489
0.000104756
0.000105358
0.000105691
0.000106276
0.00010701
0.000107701
0.00010968
0.000111958
0.000113977
0.000118716
0.000123101
0.000127136
0.000135009
0.000139999
0.000151412
0.00016368
0.000191071
0.000222462
0.000256389
0.000344251
0.000408013
0.000472017
0.000633094
0.000748809
0.000852049
0.00112948
0.0013317
0.00161421
0.00210805
0.00251421
0.00341446
0.00409733
0.00489803
0.00648117
0.0076091
0.00905914
0.0112578
0.0135223
0.0153905
0.0200065
0.0236008
0.0286387
0.0368946
0.0424621
0.0539797
0.0657791
0.0777354
0.0956635
0.118176
0.141456
0.18074
0.211689
0.271885
0.334296
0.40344
0.457646
0.487984
0.507994
0.512483
0.510701
0.504075
0.499674
0.493465
0.491307
0.486951
0.484179
0.481807
0.473923
0.467598
0.458167
0.446066
0.443881
0.443791
0.445326
0.45053
0.449499
0.443258
0.43554
0.417443
0.408019
0.386205
0.376913
0.357482
0.345506
0.33131
0.320782
0.305844
0.296431
0.290867
0.28069
0.276581
0.267996
0.249627
0.237712
0.212467
0.195602
0.158561
0.122064
0.0917672
0.0711006
0.0617301
0.0481605
0.042556
0.0374358
0.0358761
0.036583
0.0380141
0.0385327
0.038533
0.0358288
0.0307761
0.0294185
0.0312568
0.0508262
0.0855259
0.138302
0.190375
0.323266
0.356258
0.352695
0.257122
0.190575
0.1355
0.115587
0.0898569
0.0778799
0.0692593
0.0676603
0.0691889
0.0734033
0.0781612
0.09172
0.115163
0.118524
0.128259
0.133768
0.155434
0.145152
0.143454
0.142666
0.130831
0.114812
9.03594e-05
9.1779e-05
9.66458e-05
9.80758e-05
9.93894e-05
9.93481e-05
9.93297e-05
9.86735e-05
9.72754e-05
9.59668e-05
9.47765e-05
9.45217e-05
9.4544e-05
9.47162e-05
9.59002e-05
0.000104419
0.000124121
0.000139528
0.000152465
0.000157179
0.000157219
0.000151679
0.000137703
0.000129317
0.000120186
0.000115483
0.000113467
0.000112727
0.000119289
0.000145861
0.000181633
0.000215671
0.000235187
0.00024458
0.000244224
0.000232081
0.000213496
0.000197077
0.000186753
0.000179597
0.000177613
0.00017783
0.000182377
0.000203771
0.000227516
0.00025372
0.000273956
0.000281477
0.000284175
0.000283347
0.000272816
0.000265226
0.000253152
0.000244749
0.000240074
0.000235646
0.000233306
0.000231925
0.000231217
0.000232378
0.000235764
0.000237952
0.000240784
0.000248101
0.000256673
0.000267747
0.000277071
0.000293103
0.000308645
0.000339648
0.000380073
0.000419726
0.000530536
0.000624925
0.00081932
0.000992568
0.00121606
0.00162029
0.0018695
0.00224614
0.00285478
0.00323678
0.0038278
0.00473951
0.00536353
0.00673729
0.00775837
0.00967405
0.0118287
0.0133837
0.0166731
0.019898
0.0224888
0.028038
0.0316001
0.0376986
0.0442698
0.053693
0.0627226
0.0771206
0.0916852
0.105787
0.132054
0.151327
0.183651
0.216923
0.263503
0.314471
0.373637
0.452228
0.505146
0.536141
0.549578
0.551913
0.549748
0.542677
0.526897
0.507469
0.488922
0.485266
0.486432
0.489034
0.489992
0.493918
0.496727
0.502966
0.50738
0.510957
0.514417
0.51585
0.514625
0.510098
0.500674
0.479477
0.457783
0.427787
0.402978
0.382727
0.360386
0.352488
0.334841
0.326628
0.316163
0.302678
0.29827
0.289899
0.28516
0.282441
0.278539
0.276386
0.269481
0.264851
0.246354
0.234608
0.210036
0.184073
0.144663
0.108563
0.0802749
0.063813
0.0545235
0.0513926
0.0470436
0.0449488
0.0436738
0.042826
0.0400708
0.035986
0.0332154
0.0314368
0.032716
0.0425341
0.0701433
0.105129
0.181001
0.315678
0.375163
0.354856
0.227421
0.165782
0.124725
0.0878518
0.0722782
0.065642
0.0621284
0.0626298
0.0669213
0.069603
0.0796676
0.0901353
0.117138
0.120751
0.132436
0.130494
0.15009
0.145639
0.146256
0.149258
0.143713
0.120398
0.000261357
0.000281067
0.000312269
0.000331482
0.000343639
0.000344026
0.00034299
0.000321947
0.000294252
0.00027868
0.00026628
0.000266213
0.000269737
0.000278541
0.000332764
0.00046566
0.000644487
0.000769991
0.000857782
0.000882468
0.00087225
0.000807324
0.000693852
0.000625578
0.000561315
0.00053113
0.000529209
0.000556999
0.000768119
0.000992333
0.00121174
0.00138787
0.00146405
0.00149129
0.00146935
0.00137617
0.00128854
0.0012034
0.00116026
0.00113206
0.00112695
0.00116729
0.0012433
0.00137722
0.00151024
0.0016353
0.00174139
0.00178108
0.00179228
0.00179035
0.00174134
0.00167319
0.00159344
0.00152253
0.00147534
0.0014454
0.00143661
0.00144697
0.00148166
0.00152039
0.00154618
0.00156295
0.0015983
0.00166238
0.00171907
0.00177313
0.00182223
0.00189359
0.00196867
0.00212788
0.00229987
0.00256736
0.00312129
0.00350156
0.0043509
0.00503932
0.00592068
0.00715138
0.00795425
0.00959619
0.0110393
0.0122905
0.014936
0.016652
0.0195189
0.0229255
0.0254941
0.0314205
0.0352572
0.0407963
0.0484354
0.0547038
0.0629517
0.0736153
0.0845441
0.0967919
0.114387
0.134474
0.155099
0.184346
0.206674
0.245987
0.285855
0.328644
0.380217
0.441411
0.487353
0.526674
0.557104
0.580042
0.583661
0.578096
0.560939
0.519074
0.463289
0.410589
0.374155
0.372984
0.382128
0.401894
0.422603
0.440929
0.455936
0.477253
0.488471
0.509651
0.520942
0.528602
0.526648
0.515935
0.490126
0.449343
0.409292
0.37768
0.367628
0.360995
0.361337
0.358852
0.35928
0.358252
0.354028
0.350679
0.340207
0.33324
0.320192
0.301412
0.29486
0.287079
0.282147
0.278147
0.275268
0.267732
0.260143
0.244216
0.22987
0.202255
0.170532
0.150669
0.119153
0.0927724
0.0776009
0.0648517
0.0542244
0.0493218
0.0473378
0.0451089
0.0392344
0.0346418
0.0339533
0.0332557
0.0363247
0.0478644
0.0661126
0.100098
0.169114
0.343535
0.388703
0.320394
0.219026
0.174661
0.130219
0.0834013
0.0728728
0.0645772
0.0607189
0.0630836
0.0664839
0.0695728
0.0840806
0.09187
0.119835
0.121458
0.142052
0.131513
0.13895
0.149469
0.1497
0.150663
0.147213
0.12939
0.00331925
0.00354983
0.00367007
0.00371147
0.00371551
0.00369311
0.00363538
0.00340873
0.00329793
0.00326825
0.0032651
0.00332902
0.00351924
0.00405253
0.00471736
0.00539705
0.00609282
0.00649971
0.00672565
0.00675092
0.00659919
0.00628639
0.00589956
0.00572795
0.00558231
0.00556044
0.00582146
0.00644028
0.00748982
0.00824875
0.00887577
0.00926549
0.00932278
0.00931137
0.00908884
0.00875919
0.00856454
0.00835666
0.00829103
0.00827904
0.00832228
0.00865638
0.00893135
0.00924294
0.00957368
0.00981954
0.0100199
0.010075
0.0100692
0.0100351
0.0099209
0.00966306
0.00943913
0.00915541
0.00894073
0.00882019
0.00878213
0.0088104
0.00889641
0.00893983
0.00898619
0.00909576
0.00919113
0.00929668
0.00941393
0.0095283
0.00976318
0.0100087
0.0105091
0.0110544
0.0118766
0.0132865
0.0144369
0.0163619
0.0185444
0.02022
0.0235687
0.0260785
0.0288454
0.033689
0.0365851
0.0416522
0.0477383
0.0517324
0.0605309
0.0671171
0.0746536
0.0873747
0.0954265
0.109149
0.124159
0.139062
0.156933
0.178678
0.202032
0.227023
0.262034
0.299168
0.338748
0.37744
0.424145
0.464746
0.496287
0.523289
0.550455
0.562152
0.579047
0.592763
0.589309
0.569291
0.510196
0.423509
0.332842
0.284616
0.276813
0.281564
0.297461
0.321358
0.350833
0.374096
0.398944
0.421141
0.443926
0.452621
0.454643
0.452154
0.443585
0.418968
0.381402
0.352276
0.341743
0.338004
0.338734
0.341523
0.348769
0.3598
0.370884
0.376926
0.380512
0.377624
0.377788