/*--------------------------------*- C++ -*----------------------------------*\
| =========                 |                                                 |
| \\      /  F ield         | OpenFOAM: The Open Source CFD Toolbox           |
|  \\    /   O peration     | Version:  2.4.0                                 |
|   \\  /    A nd           | Web:      www.OpenFOAM.org                      |
|    \\/     M anipulation  |                                                 |
\*---------------------------------------------------------------------------*/
FoamFile
{
    version     2.0;
    format      ascii;
    class       volScalarField;
    location    "0.87";
    object      p;
}
// * * * * * * * * * * * * * * * * * * * * * * * * * * * * * * * * * * * * * //

dimensions      [0 2 -2 0 0 0 0];

internalField   nonuniform List<scalar> 
8800
(
116.17
103.818
96.4228
92.8924
90.9983
89.6064
88.4037
87.2825
86.291
85.3037
84.3497
83.4339
82.5306
81.6497
80.7927
79.9853
79.2336
78.5145
77.9134
77.3587
113.056
103.464
96.5927
93.0068
91.0577
89.6316
88.4117
87.2819
86.2895
85.3023
84.3458
83.4324
82.528
81.6483
80.7905
79.982
79.2358
78.506
77.9115
77.295
111.09
103.542
97.1958
93.3824
91.225
89.7105
88.4578
87.3137
86.3144
85.3198
84.3557
83.4386
82.529
81.6469
80.7888
79.9726
79.2391
78.4908
77.9845
77.3648
109.553
103.603
97.7857
93.8073
91.4089
89.7961
88.5187
87.3703
86.3637
85.3579
84.3846
83.4581
82.5391
81.6521
80.7902
79.964
79.2327
78.4796
78.0703
77.6188
108.303
103.575
98.2639
94.2163
91.5799
89.862
88.5645
87.4284
86.4183
85.4083
84.424
83.4883
82.5515
81.6639
80.7902
79.9623
79.2128
78.4695
77.9993
77.965
107.318
103.478
98.6336
94.5659
91.7339
89.9048
88.5913
87.4753
86.4671
85.4559
84.465
83.518
82.5658
81.6738
80.7896
79.9609
79.1923
78.4711
78.0208
78.4525
106.56
103.365
98.9029
94.8487
91.8757
89.9324
88.5992
87.5089
86.5058
85.4967
84.5014
83.5429
82.5785
81.6812
80.7912
79.9545
79.1895
78.4794
78.1337
78.7616
106.009
103.265
99.0863
95.0619
92.0023
89.9505
88.5959
87.5321
86.5357
85.5267
84.5298
83.5623
82.5893
81.6849
80.793
79.9563
79.1891
78.5185
78.2108
78.9791
105.652
103.19
99.2021
95.2063
92.0915
89.9613
88.5904
87.5451
86.5555
85.5488
84.5498
83.576
82.5967
81.6889
80.798
79.9591
79.2053
78.5431
78.2922
79.113
105.478
103.149
99.2581
95.2784
92.1371
89.9658
88.5871
87.5528
86.5659
85.5594
84.5626
83.5834
82.602
81.693
80.805
79.971
79.2167
78.5802
78.3254
79.1983
105.478
103.149
99.2585
95.2786
92.1379
89.9651
88.5868
87.5539
86.5656
85.5601
84.565
83.586
82.6054
81.6981
80.8171
79.9828
79.237
78.6038
78.3701
79.2185
105.653
103.19
99.2017
95.2061
92.0942
89.9582
88.5897
87.5522
86.5545
85.5481
84.5595
83.5838
82.6062
81.7055
80.8305
80.002
79.2568
78.632
78.3803
79.1819
106.01
103.266
99.0866
95.0622
92.0067
89.9459
88.5943
87.5432
86.534
85.5265
84.545
83.5762
82.6045
81.7124
80.8479
80.026
79.2809
78.6612
78.3625
79.1371
106.562
103.366
98.9009
94.8478
91.8817
89.9268
88.5975
87.5259
86.5038
85.494
84.5234
83.5625
82.5989
81.7203
80.8668
80.0519
79.3157
78.6933
78.3393
79.0246
107.319
103.48
98.631
94.5645
91.7428
89.8977
88.5886
87.4966
86.4634
85.4521
84.4956
83.5422
82.5908
81.7237
80.8858
80.0821
79.357
78.7356
78.3265
78.8482
108.304
103.577
98.2615
94.2141
91.5906
89.8517
88.5625
87.4571
86.4138
85.3997
84.463
83.5186
82.5798
81.723
80.9059
80.1078
79.4057
78.788
78.3453
78.606
109.553
103.605
97.783
93.8057
91.4224
89.7858
88.5138
87.4041
86.3586
85.347
84.4305
83.4949
82.5698
81.7192
80.9219
80.1281
79.4529
78.8371
78.3992
78.337
111.091
103.543
97.1946
93.3802
91.2393
89.6993
88.4518
87.3501
86.3115
85.3074
84.4052
83.4781
82.5643
81.7176
80.9331
80.1434
79.4863
78.874
78.4563
78.1925
113.057
103.466
96.5916
93.0039
91.0721
89.6217
88.4059
87.3177
86.2876
85.2911
84.3951
83.4732
82.566
81.7209
80.9395
80.1546
79.5017
78.895
78.4541
78.1152
116.171
103.82
96.4219
92.8902
91.0122
89.5963
88.3994
87.3164
86.289
85.2954
84.3974
83.4743
82.5701
81.7236
80.9418
80.1589
79.505
78.9004
78.457
78.2376
77.3966
77.3909
77.3478
77.3124
77.3185
77.3587
77.4115
77.4414
77.4303
77.395
77.3327
77.266
77.187
77.101
77.024
76.9425
76.8909
76.8685
76.857
76.8345
76.7536
76.6344
76.4822
76.3238
76.1863
76.0644
76.0292
76.0742
76.2202
76.4755
76.7858
77.155
77.5131
77.8094
78.0222
78.1441
78.1859
78.168
78.1077
78.016
77.8578
77.6487
77.4662
77.3446
77.3197
77.3903
77.5337
77.7634
78.0742
78.4551
78.9417
79.5172
80.1753
80.8923
81.5727
82.0952
82.3442
82.2349
81.5761
80.4567
78.8731
76.8507
74.7792
72.8556
71.0502
69.4596
68.1329
67.0735
66.4573
66.3028
66.5342
67.0714
67.8124
68.6699
69.48
70.3952
71.2107
71.7503
72.0659
72.1758
72.0448
71.7032
71.3741
70.9076
70.5132
70.2398
69.9161
69.6559
69.6027
69.8301
69.8977
70.0653
70.5088
70.9027
71.1752
71.4959
71.9707
72.0914
72.2575
72.6944
72.8133
73.1073
73.4429
73.6483
74.0088
74.2076
74.4383
74.6455
74.7481
74.7981
74.6378
74.3873
74.1176
73.4686
72.7343
72.013
70.9317
69.9432
68.8849
67.7182
66.6247
65.5816
64.5477
63.5027
62.6988
61.8582
61.0378
60.5696
60.1844
59.8382
59.7296
59.517
59.442
59.2893
59.168
59.1553
59.0679
59.1664
59.2922
59.5945
59.8937
60.3967
61.1228
62.0452
63.062
64.2141
65.7528
67.4161
69.113
71.1084
73.2656
75.4876
77.8206
80.1835
82.5929
85.1513
87.5909
89.8482
92.139
94.0586
96.0744
97.6227
99.0689
100.067
100.678
101.124
101.452
101.966
101.431
100.887
101.606
100.64
100.881
100.611
99.9899
99.6183
98.1756
96.2653
93.8357
90.6372
87.7785
84.7776
81.6005
78.5726
75.9658
73.5534
71.5872
70.7929
71.2645
72.0845
73.4338
75.0578
76.0482
75.2284
73.1981
69.3348
62.5576
53.4755
39.1809
1.86262
77.2191
77.2276
77.2698
77.2933
77.3014
77.3087
77.3486
77.3813
77.3916
77.3864
77.3289
77.2694
77.187
77.092
77.023
76.9341
76.887
76.854
76.8184
76.7979
76.724
76.6323
76.5075
76.3678
76.2624
76.1662
76.137
76.1799
76.3057
76.5262
76.7972
77.1284
77.4402
77.7162
77.9351
78.0504
78.1127
78.1041
78.0336
77.955
77.828
77.6713
77.5394
77.4289
77.4058
77.4831
77.6175
77.8558
78.176
78.5527
79.0378
79.5861
80.1803
80.8203
81.3884
81.8022
81.9778
81.8151
81.1805
80.1209
78.6917
76.8706
74.9216
73.0875
71.3705
69.8266
68.5683
67.5653
66.9626
66.8142
66.9672
67.3903
67.9975
68.7813
69.4812
70.3185
71.0892
71.5196
71.9386
72.0839
71.9874
71.7401
71.4364
71.1805
70.8653
70.5428
70.3745
70.2123
70.1067
70.3033
70.3728
70.5739
70.9603
71.1441
71.51
71.8656
72.1425
72.3946
72.6009
72.9338
73.1443
73.302
73.6464
73.8696
74.1808
74.4321
74.5004
74.5528
74.5554
74.4634
74.3172
74.0512
73.7058
72.9488
72.1171
71.3031
70.1567
69.0628
68.0564
66.882
65.8818
64.8857
63.8361
62.8677
62.1781
61.4568
60.7039
60.3165
60.013
59.5736
59.5502
59.4333
59.1681
59.0556
58.905
58.7049
58.6103
58.5601
58.6276
58.8515
59.026
59.4557
60.223
61.0722
62.056
63.3044
64.8432
66.5967
68.3656
70.4639
72.7296
74.9705
77.4455
79.9331
82.5351
85.1191
87.6124
89.9991
92.3981
94.3284
96.2727
97.8919
99.2827
100.282
100.669
101.21
101.575
101.972
101.318
101.145
101.262
99.9221
100.782
100.462
99.8395
99.353
97.3689
94.7119
91.7535
88.8651
85.4774
82.1772
78.581
75.2386
72.2513
69.3245
66.9662
65.8214
65.9184
66.658
67.8676
68.9341
69.3435
68.7419
66.3352
61.6129
53.1326
41.9246
27.1118
-10.6415
77.1271
77.2142
77.3723
77.4035
77.3488
77.2642
77.2529
77.2698
77.3002
77.3484
77.316
77.285
77.2095
77.104
77.0465
76.9318
76.8852
76.8405
76.7806
76.7768
76.6948
76.6375
76.544
76.4233
76.3596
76.2713
76.2668
76.3037
76.405
76.5986
76.8152
77.1065
77.372
77.6149
77.8337
77.9431
78.0141
78.0305
77.9621
77.9092
77.8127
77.6842
77.618
77.5295
77.5183
77.6106
77.7238
77.9599
78.2774
78.6268
79.0846
79.5877
80.0902
80.6312
81.081
81.3649
81.4719
81.2753
80.6762
79.7223
78.4492
76.8142
75.0799
73.3681
71.7354
70.3087
69.1479
68.2111
67.6328
67.4717
67.5234
67.8642
68.3762
69.0535
69.6728
70.3715
71.1187
71.4546
71.8954
72.1193
71.9783
71.9051
71.6568
71.397
71.2776
70.9845
70.8411
70.8286
70.6695
70.8214
71.0231
71.0762
71.3473
71.6402
71.9585
72.2181
72.4231
72.7615
72.983
73.1628
73.4868
73.6797
73.9215
74.0903
74.251
74.5572
74.5936
74.5625
74.5339
74.2693
74.0722
73.7518
73.1989
72.4312
71.5654
70.6103
69.4876
68.3463
67.2773
66.0929
65.078
64.1614
63.1432
62.2272
61.5632
60.9342
60.3061
59.9836
59.8005
59.4104
59.4163
59.3502
58.986
58.7978
58.6036
58.2154
58.0372
57.9062
57.8443
57.9669
58.0935
58.4413
59.1523
60.0538
60.9797
62.2637
63.8557
65.5671
67.4242
69.6414
72.0064
74.3285
76.8658
79.4738
82.3251
85.0334
87.6095
90.0765
92.4407
94.5848
96.3855
98.1112
99.337
100.38
100.807
101.381
101.763
102.055
101.405
101.61
101.078
99.9611
100.829
100.258
99.8797
99.4042
97.1241
93.872
90.1305
86.8745
83.2221
79.438
75.6198
72.0326
68.6079
65.3626
62.6439
61.3051
61.1541
61.7743
62.4232
63.3271
63.6034
63.1358
60.315
54.6711
46.0692
33.845
20.7446
-8.19125
77.2553
77.3247
77.4052
77.2826
77.1071
76.9813
77.013
77.0906
77.1739
77.2908
77.2952
77.3078
77.2441
77.129
77.0797
76.9427
76.8936
76.8399
76.7598
76.766
76.6811
76.648
76.5837
76.4827
76.4616
76.3851
76.4025
76.4407
76.5151
76.6922
76.8428
77.09
77.3138
77.5116
77.7221
77.819
77.9017
77.9453
77.8866
77.8668
77.8099
77.7045
77.6898
77.6265
77.6306
77.7361
77.8267
78.054
78.3432
78.6598
79.0683
79.4957
79.9122
80.3331
80.671
80.8586
80.8942
80.6803
80.1456
79.2942
78.1747
76.7739
75.2591
73.6976
72.2358
70.9549
69.8663
69.0483
68.483
68.22
68.2608
68.5523
68.9062
69.4861
70.1084
70.5831
71.2497
71.6489
71.9497
72.2345
72.1684
72.1206
71.9758
71.7089
71.6927
71.5524
71.3337
71.3813
71.3469
71.403
71.6104
71.6554
71.8509
72.2081
72.3589
72.5762
72.8932
73.1318
73.3154
73.5024
73.7662
73.9933
74.2714
74.4148
74.415
74.6317
74.5927
74.5236
74.6022
74.3028
73.8929
73.4441
72.7181
71.9412
71.0481
70.0485
68.9186
67.7121
66.5083
65.2993
64.1943
63.2545
62.3488
61.5271
60.8901
60.3681
59.9079
59.5969
59.5262
59.2965
59.2996
59.1832
58.8056
58.562
58.209
57.6899
57.3863
57.1914
56.9767
57.0172
57.06
57.323
57.9187
58.7278
59.6873
60.9486
62.5423
64.3453
66.3084
68.5629
71.0184
73.5848
76.2193
78.8523
81.864
84.7509
87.5392
90.1554
92.3737
94.7493
96.4879
98.2236
99.5228
100.51
101.087
101.598
101.901
102.164
101.725
102.014
101.389
100.432
101.106
100.182
99.7744
99.3547
97.225
93.3118
89.223
84.81
80.7661
76.6175
72.6154
68.8813
65.0152
61.4431
58.6745
57.0973
56.8729
57.3517
57.8331
58.9358
59.4747
58.4202
55.6172
50.4968
42.9652
29.9768
19.9536
-0.803931
78.7732
78.5258
77.6144
76.8916
76.5116
76.3928
76.5624
76.8002
76.9936
77.196
77.2459
77.3163
77.293
77.1822
77.1473
76.9855
76.936
76.8514
76.7527
76.7621
76.6558
76.6589
76.6109
76.5355
76.5595
76.4884
76.542
76.5744
76.6191
76.8017
76.8826
77.0856
77.2757
77.4152
77.62
77.6863
77.7849
77.8547
77.8076
77.8258
77.8024
77.7357
77.7452
77.7078
77.737
77.8393
77.9134
78.1295
78.3663
78.6403
78.992
79.3141
79.6689
79.973
80.2018
80.3545
80.3033
80.0807
79.6451
78.876
77.9064
76.7616
75.4572
74.1106
72.8514
71.7077
70.754
70.0183
69.4267
69.1601
69.1788
69.3463
69.6634
70.1146
70.6166
71.0357
71.5497
71.9264
72.1833
72.4574
72.4703
72.4093
72.322
72.1722
72.1327
72.0524
71.9095
71.9657
71.9896
72.0016
72.1479
72.2691
72.4224
72.6914
72.8025
73.0067
73.3203
73.4681
73.6899
73.9436
74.0417
74.1957
74.5407
74.6999
74.6623
74.8339
74.7278
74.4868
74.5776
74.344
73.7356
73.2009
72.4534
71.5718
70.6626
69.5108
68.2833
67.0364
65.683
64.3937
63.2874
62.2638
61.4099
60.7259
60.1127
59.7053
59.3677
59.1869
59.1532
59.0947
59.1119
59.0103
58.6237
58.3489
57.8927
57.2076
56.7176
56.4379
55.9711
55.85
55.9122
55.9501
56.501
57.2206
58.0927
59.4612
61.0243
62.8295
65.0131
67.346
69.7804
72.4546
75.3887
78.1828
81.2478
84.1566
87.1779
90.1773
92.4889
94.835
96.6145
98.3152
99.7208
100.66
101.309
101.882
102.204
102.388
102.174
102.301
101.945
101.202
101.411
100.609
99.8469
99.3003
97.3471
92.6429
88.0285
82.8014
78.0318
73.5433
69.4328
65.5026
61.5263
57.5941
54.5746
53.2234
53.2274
53.6685
54.4388
55.5795
56.6878
55.9072
52.9825
48.7229
42.5551
29.0422
20.6079
5.75109
79.8479
79.4333
77.8952
76.6856
76.0538
75.888
76.1106
76.4922
76.8188
77.0867
77.2167
77.3191
77.3382
77.2553
77.1917
77.048
76.9824
76.8757
76.789
76.7668
76.6629
76.6882
76.6289
76.599
76.6275
76.5798
76.667
76.681
76.7222
76.8881
76.9427
77.0827
77.2484
77.354
77.5133
77.5917
77.6707
77.7607
77.7564
77.766
77.796
77.7778
77.7698
77.783
77.8259
77.8973
77.9899
78.1639
78.3471
78.5876
78.8666
79.1043
79.3905
79.6093
79.7481
79.8811
79.7751
79.5304
79.2151
78.5245
77.6661
76.7944
75.6999
74.5475
73.5122
72.5298
71.6706
71.0287
70.4523
70.1471
70.1659
70.2702
70.4864
70.8312
71.2253
71.6113
71.95
72.2611
72.5508
72.7533
72.7752
72.7775
72.7277
72.6424
72.5915
72.5291
72.5139
72.5347
72.5379
72.6045
72.7059
72.7954
72.9379
73.1497
73.2815
73.4548
73.7205
73.8417
74.0217
74.3108
74.4345
74.477
74.7513
74.9028
74.8397
75.0384
75.0608
74.6595
74.5389
74.3086
73.6269
73.0877
72.3979
71.3696
70.2796
68.9888
67.6087
66.2681
64.8121
63.4582
62.2848
61.2391
60.3676
59.7221
59.1156
58.8696
58.7247
58.7109
58.8258
58.9683
59.0216
58.8962
58.5464
58.1162
57.5335
56.7433
56.0299
55.5757
54.9468
54.586
54.5381
54.465
54.9317
55.5019
56.3544
57.8061
59.2868
61.1421
63.4183
65.8546
68.4261
71.1304
74.1749
77.2338
80.5717
83.6706
86.7007
89.698
92.4077
94.9106
96.8634
98.4886
99.8872
100.852
101.584
102.223
102.509
102.597
102.593
102.597
102.272
102.076
101.536
101.185
100.208
99.3718
97.0294
92.1946
86.444
80.4772
75.2905
70.2755
66.0579
61.8598
57.8512
54.1609
51.3278
50.0966
50.3878
50.8272
51.9985
53.1759
54.6548
54.8024
52.0595
47.3336
43.6598
30.9317
20.9819
10.768
80.4649
80.0632
78.2237
76.6914
75.8238
75.5582
75.7575
76.2226
76.6556
76.9895
77.1978
77.3258
77.4007
77.3435
77.2529
77.133
77.0423
76.922
76.8409
76.7775
76.6812
76.7111
76.6507
76.64
76.6845
76.6466
76.7607
76.7699
76.7974
76.9723
76.988
77.0871
77.2412
77.2992
77.4311
77.5185
77.5731
77.6844
77.7044
77.7066
77.7938
77.7911
77.7773
77.8459
77.872
77.9321
78.0444
78.1568
78.3111
78.5143
78.7173
78.9136
79.1241
79.271
79.3856
79.4554
79.3257
79.1189
78.8505
78.2561
77.5358
76.8525
75.9594
74.9928
74.1302
73.283
72.545
71.9688
71.4132
71.1158
71.1358
71.1503
71.2805
71.5662
71.8444
72.1786
72.4224
72.6416
72.954
73.0815
73.1006
73.1991
73.1151
73.0626
73.1277
72.9734
73.0004
73.1216
73.0379
73.1125
73.2872
73.2974
73.4161
73.6278
73.7146
73.8633
74.1449
74.2539
74.3324
74.6198
74.8194
74.8387
75.0267
75.1921
75.0805
75.1805
75.322
75.0011
74.6778
74.3798
73.7324
73.1057
72.3304
71.1719
69.9048
68.5038
67.0286
65.5379
63.9484
62.4706
61.1956
60.0675
59.1704
58.5614
58.0798
57.9493
58.0347
58.2721
58.5841
58.9325
59.0919
58.9044
58.5438
57.9485
57.1707
56.2447
55.3868
54.66
53.8136
53.3093
53.0343
52.796
53.2094
53.6662
54.5259
55.9796
57.4916
59.4826
61.6416
64.0767
66.8896
69.8157
72.7745
75.9863
79.5356
82.9406
86.3169
89.4016
92.2901
94.745
96.8538
98.7113
100.126
101.16
101.887
102.494
102.774
102.855
102.98
103.054
102.575
102.604
101.871
101.737
100.588
99.3202
96.4289
91.8447
85.3646
78.3153
72.6249
67.2175
62.7318
58.4727
54.4196
50.993
48.5957
47.9134
48.3411
48.9956
50.3007
51.882
53.1191
53.9902
53.2391
47.555
46.1038
35.4467
23.749
17.1625
80.8527
80.4657
78.5108
76.7971
75.7926
75.399
75.5318
76.0067
76.5099
76.9065
77.1585
77.3258
77.4288
77.4081
77.3107
77.1862
77.0872
76.9568
76.8763
76.8011
76.7012
76.744
76.6831
76.6786
76.7339
76.7055
76.8269
76.8213
76.8613
77.0226
77.0094
77.1052
77.2291
77.2672
77.3793
77.4484
77.513
77.6107
77.6391
77.6757
77.7685
77.7824
77.7846
77.8731
77.8995
77.9444
78.0616
78.138
78.2661
78.4288
78.5795
78.7526
78.8877
79.0009
79.0968
79.0983
78.9846
78.8167
78.5561
78.095
77.4964
76.9059
76.2271
75.4277
74.6571
73.9515
73.3349
72.7929
72.2994
72.0426
72.003
71.9442
72.0513
72.2579
72.4135
72.7301
72.9295
73.0008
73.3469
73.4956
73.4176
73.5913
73.5636
73.4667
73.6091
73.4409
73.4445
73.6876
73.5191
73.5419
73.844
73.8071
73.8345
74.1229
74.2202
74.2454
74.516
74.6854
74.7154
74.964
75.1639
75.1446
75.3259
75.5882
75.5055
75.4215
75.5024
75.3199
74.9912
74.6944
74.0564
73.1613
72.2139
71.016
69.6764
68.2141
66.5937
64.8373
63.1012
61.4642
60.0466
58.8807
58.0216
57.4097
57.0898
57.1379
57.3798
57.8359
58.3711
58.9196
59.1566
59.0154
58.6845
57.9866
56.9289
55.789
54.73
53.679
52.5997
51.9366
51.4859
51.0861
51.3422
51.7978
52.6544
54.0866
55.6167
57.7085
59.9224
62.3794
65.0474
68.198
71.461
74.7432
78.3119
81.8785
85.559
88.9962
92.1874
94.8341
96.9629
98.8936
100.238
101.34
102.239
102.843
103.096
103.408
103.378
103.478
103.27
102.948
103.173
102.594
101.307
99.5526
96.4844
91.5372
84.7915
77.2837
70.5395
64.8785
60.2475
55.631
51.9153
48.7793
46.7969
46.5582
47.0305
48.0779
49.3042
51.8638
53.6166
54.7534
56.3178
50.6449
48.2332
40.29
30.0195
25.3071
81.0943
80.7194
78.7055
76.9152
75.8302
75.3394
75.3937
75.8436
76.3897
76.8484
77.1334
77.3334
77.4519
77.4561
77.3678
77.227
77.1224
76.9925
76.9073
76.8295
76.7292
76.7627
76.7166
76.7035
76.7677
76.7598
76.8634
76.8692
76.9147
77.0534
77.0336
77.1247
77.2139
77.2509
77.3346
77.3979
77.4772
77.5393
77.5922
77.6534
77.7269
77.7625
77.7797
77.8711
77.9103
77.9331
78.0557
78.1257
78.2031
78.349
78.4681
78.6001
78.6978
78.7709
78.8584
78.8407
78.7229
78.5795
78.3721
78.0017
77.4824
76.9967
76.483
75.7907
75.1087
74.539
74.0181
73.546
73.1227
72.8526
72.7894
72.7182
72.7403
72.9015
73.0084
73.2496
73.4064
73.4173
73.7584
73.8972
73.746
74.0015
74.0299
73.8116
74.0424
73.9912
73.842
74.144
74.0802
74.0079
74.3162
74.2861
74.2561
74.6086
74.6983
74.6423
74.9078
75.1047
75.1192
75.3063
75.5238
75.5397
75.653
75.8969
75.9568
75.8825
75.8078
75.6353
75.3633
75.083
74.4585
73.3942
72.2709
71.0921
69.6807
68.0818
66.2681
64.3191
62.4393
60.6682
59.1379
57.9694
57.0445
56.4036
56.2292
56.3843
56.7999
57.5159
58.3042
58.965
59.3038
59.2262
58.7523
57.9811
56.8093
55.4708
54.1103
52.7889
51.4957
50.5177
49.8872
49.3588
49.4875
49.9068
50.8859
52.311
53.8667
55.9864
58.1873
60.7487
63.5072
66.5461
69.7426
73.2953
77.2569
81.0044
84.751
88.4404
91.8233
94.749
97.1646
99.1831
100.538
101.683
102.654
103.254
103.516
103.986
103.922
103.854
103.951
103.368
103.591
103.284
102.265
100.436
97.4099
91.8976
84.5591
77.3425
69.8461
63.7616
59.3816
54.3856
50.6054
47.7336
46.2837
46.2389
46.7511
47.9845
49.6048
52.9535
56.2817
56.5758
59.592
54.9319
50.2657
45.593
38.5827
34.1427
81.2541
80.8867
78.8194
76.9946
75.8941
75.3423
75.3455
75.7678
76.3251
76.8162
77.1312
77.3397
77.4604
77.4824
77.4035
77.2583
77.1419
77.0202
76.9281
76.8576
76.7556
76.7877
76.7558
76.7304
76.8128
76.8006
76.8899
76.9092
76.9455
77.0701
77.0478
77.1309
77.2136
77.2303
77.3174
77.3682
77.4404
77.4932
77.5416
77.6301
77.6809
77.727
77.7707
77.8525
77.8974
77.9123
78.0318
78.1065
78.1355
78.2654
78.3838
78.4643
78.5498
78.5855
78.6616
78.6597
78.5115
78.3996
78.2688
77.9235
77.4885
77.1351
76.6857
76.1045
75.5561
75.0509
74.6339
74.2685
73.8212
73.5669
73.564
73.4064
73.3493
73.5634
73.5843
73.7042
73.9382
73.9106
74.1029
74.317
74.1972
74.3466
74.4362
74.2406
74.4572
74.4872
74.2421
74.5535
74.6727
74.4499
74.6687
74.8496
74.7762
74.9405
75.1009
75.1238
75.3161
75.4979
75.5133
75.6367
75.8832
75.9931
76.0199
76.1738
76.3401
76.3511
76.2503
76.096
75.829
75.4412
74.809
73.8427
72.6759
71.3714
69.8447
68.0994
66.2058
64.1861
62.1715
60.3061
58.6582
57.3916
56.4272
55.7743
55.6403
55.8911
56.4932
57.3896
58.3778
59.1337
59.5375
59.4813
58.9537
57.9394
56.5789
55.1226
53.469
51.915
50.4903
49.3384
48.4906
47.8272
47.9601
48.3245
49.2352
50.7639
52.5105
54.5321
56.7938
59.3439
62.1217
65.2407
68.3593
71.8459
75.7967
79.886
84.0399
88.0833
91.7057
94.751
97.3828
99.4178
100.816
102.108
103.08
103.691
104.003
104.349
104.417
104.328
104.359
103.911
103.952
103.856
102.95
101.332
98.4723
93.1164
85.4159
78.3041
70.6213
64.3941
59.6847
54.706
50.9795
48.1025
46.8739
46.7474
47.422
48.7681
51.2471
54.3904
59.3467
59.1891
62.5568
59.5843
54.64
53.2082
48.1043
42.7571
81.3477
80.979
78.8515
77.0332
75.9365
75.378
75.375
75.7919
76.335
76.8244
77.1598
77.3544
77.4746
77.4849
77.4269
77.2798
77.1464
77.0458
76.9494
76.8752
76.7999
76.8131
76.7898
76.7688
76.8348
76.8519
76.9053
76.9371
76.9796
77.0791
77.0592
77.1379
77.2099
77.2094
77.3012
77.3343
77.4123
77.4583
77.4893
77.6157
77.6382
77.673
77.7642
77.8093
77.865
77.8922
77.9807
78.0885
78.0764
78.1751
78.3208
78.3524
78.4133
78.47
78.5021
78.5115
78.3767
78.2647
78.1961
77.8961
77.5197
77.2686
76.8894
76.4011
75.9839
75.5302
75.1869
74.9061
74.4539
74.2437
74.2659
74.0475
73.9834
74.1789
74.1278
74.2125
74.4616
74.358
74.4792
74.7753
74.6265
74.657
74.8708
74.7454
74.8019
74.908
74.7683
74.9635
75.0897
74.8954
75.1029
75.3466
75.2294
75.3137
75.5513
75.585
75.661
75.8416
75.9349
76.0345
76.2152
76.343
76.3885
76.5195
76.6868
76.6996
76.6425
76.573
76.3304
75.8652
75.2282
74.3118
73.1147
71.7249
70.1458
68.3676
66.4195
64.3204
62.2089
60.2956
58.6154
57.2689
56.2845
55.6791
55.5323
55.7988
56.4979
57.4814
58.5251
59.3624
59.7696
59.6813
59.0856
57.9478
56.4287
54.7321
52.8986
51.1093
49.4653
48.2184
47.2286
46.6173
46.6963
47.0146
47.9535
49.5362
51.3833
53.4687
55.8535
58.3499
61.1723
64.2201
67.2198
70.9691
74.8499
78.8429
83.2208
87.6126
91.5603
94.9411
97.7515
99.8128
101.2
102.553
103.502
104.014
104.417
104.711
104.87
104.828
104.663
104.334
104.222
104.243
103.353
101.906
99.2638
94.5502
87.4964
80.3465
72.7212
66.6009
61.1041
55.9692
52.3495
49.5288
48.2297
48.0175
48.8226
50.1572
53.8706
56.4425
62.771
63.2087
65.6604
64.6265
61.7605
62.0434
57.0574
50.4547
81.374
80.9989
78.8444
77.0685
75.9872
75.4432
75.4866
75.8894
76.4096
76.874
77.1916
77.3881
77.4738
77.4776
77.4222
77.2912
77.1398
77.0607
76.9708
76.8802
76.8491
76.8372
76.8303
76.8073
76.8597
76.9052
76.9257
76.9487
77.0089
77.0803
77.0579
77.136
77.1997
77.2025
77.2779
77.3132
77.3916
77.4327
77.4429
77.5869
77.607
77.6118
77.741
77.7667
77.8192
77.8679
77.9188
78.0537
78.0329
78.0786
78.2654
78.2638
78.2915
78.3779
78.3641
78.3973
78.3012
78.1525
78.15
77.9184
77.5629
77.4018
77.1101
76.6898
76.3695
76.0038
75.69
75.4583
75.1104
74.874
74.8646
74.731
74.5912
74.701
74.7378
74.7471
74.8841
74.8729
74.9418
75.1357
75.05
75.0574
75.2615
75.1715
75.147
75.3387
75.3045
75.315
75.4678
75.4695
75.5322
75.656
75.6707
75.7866
75.951
75.9706
76.0346
76.1846
76.2815
76.3824
76.5175
76.6211
76.6757
76.7956
76.9923
77.0382
76.9148
76.8335
76.7161
76.3513
75.6656
74.6531
73.4129
72.0524
70.5132
68.7329
66.7228
64.5787
62.4805
60.581
58.8902
57.4954
56.5102
55.9536
55.8235
56.1075
56.8045
57.7552
58.7712
59.5687
59.9337
59.8084
59.1046
57.8414
56.2039
54.3289
52.3404
50.3607
48.6205
47.2302
46.1058
45.4998
45.4891
45.9598
46.9599
48.567
50.5944
52.8191
55.2134
57.7185
60.6659
63.604
66.586
70.2337
74.065
78.3299
82.9484
87.4263
91.5669
95.1649
98.1261
100.207
101.686
103.108
103.983
104.437
104.882
105.156
105.259
105.261
105.057
104.786
104.767
104.913
104.233
102.84
100.354
95.8141
89.6315
82.6265
75.116
69.1597
63.3505
58.1948
54.3972
51.3308
50.0839
49.8292
50.7602
52.3764
57.281
59.8541
66.6182
68.019
69.5816
71.2757
70.3115
70.1161
64.5408
57.2676
81.2759
80.8834
78.7593
77.0612
76.037
75.5538
75.673
76.0686
76.5521
76.9671
77.2501
77.4188
77.4692
77.452
77.3924
77.2818
77.1341
77.0602
76.9918
76.895
76.8828
76.8794
76.8593
76.857
76.8817
76.9475
76.9499
76.9549
77.0332
77.0804
77.0668
77.1233
77.2001
77.1956
77.2526
77.2964
77.3621
77.4099
77.4006
77.5436
77.5808
77.5624
77.6962
77.7335
77.7652
77.8338
77.864
77.9914
77.9987
77.9994
78.1923
78.1963
78.1948
78.2986
78.2714
78.3008
78.2475
78.0991
78.1127
77.9666
77.6416
77.5345
77.3487
76.9584
76.7271
76.4664
76.1435
75.9971
75.7277
75.4483
75.4644
75.3665
75.1657
75.2634
75.3174
75.2368
75.3451
75.3959
75.3781
75.4853
75.5109
75.5057
75.5739
75.5779
75.6009
75.6995
75.7011
75.717
75.8756
75.9291
75.8967
76.01
76.1385
76.1721
76.2197
76.3246
76.4356
76.4868
76.5206
76.6075
76.7254
76.8326
76.8623
76.9264
77.156
77.2508
77.0959
76.9816
76.8942
76.5592
75.8918
74.911
73.6745
72.2713
70.7128
68.9493
66.9839
64.9189
62.9184
61.0846
59.4242
58.0295
57.035
56.4842
56.3882
56.6795
57.3345
58.1988
59.064
59.7345
60.0036
59.7842
58.9993
57.6613
55.9144
53.937
51.8272
49.7546
47.968
46.4898
45.3884
44.7724
44.7353
45.3172
46.3331
48.0297
50.1341
52.4342
54.9567
57.5407
60.4415
63.3564
66.4186
69.9977
73.8628
78.1707
82.7937
87.5567
91.9551
95.6072
98.6403
100.665
102.25
103.639
104.372
104.82
105.271
105.491
105.559
105.601
105.429
105.303
105.503
105.782
105.363
104.046
101.861
97.5659
91.5592
84.9214
77.3797
71.4519
65.6702
60.7046
57.0497
53.7005
52.51
52.0394
53.5274
55.404
61.1365
64.2006
70.3011
73.0965
75.3332
79.4807
78.9222
76.9862
71.1227
63.9578
80.9983
80.5967
78.6018
77.0299
76.1406
75.7848
75.9481
76.3281
76.7451
77.0876
77.3157
77.4374
77.4523
77.419
77.3464
77.2549
77.1252
77.0499
77.0048
76.9141
76.9159
76.9112
76.8988
76.9003
76.9162
76.9799
76.9699
76.9789
77.0438
77.0774
77.0718
77.114
77.1794
77.1869
77.2218
77.2785
77.3383
77.3751
77.3912
77.4936
77.5439
77.5315
77.6348
77.6891
77.7158
77.7857
77.8199
77.9245
77.9499
77.9515
78.0989
78.1287
78.1284
78.2161
78.2135
78.2278
78.2069
78.089
78.1022
78.0065
77.7676
77.6814
77.5322
77.2594
77.0729
76.855
76.6328
76.4828
76.256
76.068
76.0185
75.9148
75.7965
75.8027
75.8119
75.7815
75.8109
75.8353
75.8218
75.8668
75.9186
75.8881
75.8982
75.9815
75.9861
75.9925
76.0852
76.1468
76.189
76.228
76.267
76.3679
76.4477
76.4735
76.5174
76.5826
76.6435
76.6706
76.7142
76.7986
76.8499
76.8712
76.8954
76.9832
77.1678
77.2607
77.1618
77.0374
76.8808
76.5145
75.8604
74.9153
73.7391
72.3948
70.8772
69.1556
67.2525
65.2866
63.416
61.7074
60.1571
58.8312
57.8483
57.2617
57.1036
57.3258
57.8758
58.5773
59.2774
59.7972
59.9558
59.6381
58.7852
57.4322
55.6607
53.6226
51.4842
49.3955
47.5767
46.1052
45.0569
44.5008
44.5664
45.1089
46.2073
47.9312
50.038
52.4167
54.972
57.6284
60.5361
63.4651
66.5634
70.1619
74.1599
78.496
83.2487
88.1188
92.4404
96.1875
99.1727
101.207
102.895
104.245
104.871
105.272
105.664
105.762
105.884
105.933
105.776
105.752
106.131
106.624
106.351
105.164
103.146
99.5686
94.0463
87.4056
79.9278
74.1922
68.303
63.3372
60.0352
56.517
56.7153
54.7634
56.9195
59.1718
64.975
68.5636
74.0943
79.0409
82.8855
87.6704
86.6411
83.5731
78.01
71.0947
80.4559
80.0374
78.3721
77.0804
76.3688
76.1464
76.3176
76.6452
76.9736
77.2162
77.3764
77.4417
77.4249
77.3747
77.2919
77.2113
77.1081
77.0453
77.0055
76.9485
76.9497
76.9436
76.936
76.9398
76.9513
76.9936
76.9852
76.9982
77.0484
77.0552
77.0806
77.1101
77.1542
77.1881
77.2044
77.2677
77.3125
77.3385
77.3814
77.4477
77.4892
77.5137
77.5801
77.6353
77.6777
77.7234
77.7807
77.8514
77.8851
77.9233
78.0144
78.0633
78.0883
78.1422
78.1656
78.1847
78.1709
78.1297
78.1115
78.0383
77.9156
77.8188
77.7125
77.551
77.3783
77.2301
77.0764
76.9086
76.7581
76.6248
76.5074
76.4322
76.351
76.2793
76.2789
76.2615
76.2204
76.2293
76.2335
76.2184
76.2272
76.2221
76.2185
76.2583
76.2678
76.2945
76.3925
76.426
76.4388
76.5088
76.5321
76.5573
76.6462
76.6999
76.702
76.7226
76.7703
76.7835
76.7909
76.8414
76.8682
76.8596
76.8735
76.9579
77.1013
77.1578
77.0602
76.9114
76.7115
76.3278
75.687
74.7877
73.6754
72.3821
70.919
69.2877
67.5105
65.6849
63.936
62.3306
60.8933
59.669
58.7334
58.1364
57.8924
57.9752
58.3271
58.82
59.3168
59.6599
59.6847
59.2884
58.4308
57.1426
55.45
53.462
51.3922
49.3674
47.5749
46.1282
45.1244
44.6288
44.7105
45.3343
46.4272
48.1175
50.2458
52.6513
55.2547
57.9287
60.836
63.8238
67.0465
70.7587
74.8315
79.2373
84.1798
89.0315
93.2906
96.96
99.7869
101.917
103.645
104.732
105.221
105.614
105.843
105.909
106.141
106.237
106.018
106.128
106.592
107.262
107.163
106.012
103.958
100.96
96.3448
90.0009
83.0055
77.414
71.2794
66.9329
62.7893
59.8781
59.6037
57.9694
60.6045
63.6026
68.6989
73.2601
79.1029
86.5324
90.9509
94.907
93.8432
90.6334
85.2084
78.1496
79.6566
79.2979
78.1434
77.2504
76.7378
76.6176
76.7479
76.9775
77.1933
77.3269
77.4178
77.4335
77.3894
77.3313
77.2471
77.1733
77.0973
77.0397
77.0071
76.9734
76.9762
76.9692
76.968
76.9791
76.9791
77.0065
76.9987
77.0172
77.0487
77.045
77.0869
77.1073
77.1331
77.1766
77.193
77.2445
77.2874
77.3121
77.371
77.4112
77.4439
77.4963
77.5338
77.5884
77.6401
77.6788
77.7459
77.7932
77.8317
77.8955
77.9467
78.0027
78.0563
78.0901
78.1355
78.1573
78.1514
78.1591
78.1315
78.083
78.0333
77.9542
77.87
77.7786
77.6519
77.5353
77.4249
77.2834
77.1615
77.0531
76.9304
76.8444
76.7698
76.6837
76.6427
76.6052
76.5447
76.5296
76.518
76.4733
76.4749
76.4744
76.4336
76.45
76.4785
76.4956
76.5623
76.604
76.6223
76.6597
76.6676
76.6909
76.759
76.7901
76.7764
76.778
76.7996
76.8088
76.8167
76.8397
76.8396
76.8127
76.8125
76.8744
76.9698
76.996
76.9093
76.7325
76.4628
76.0242
75.3759
74.5121
73.4635
72.2349
70.8514
69.3334
67.7183
66.0657
64.4506
62.9395
61.5826
60.4267
59.5214
58.8976
58.5646
58.5054
58.657
58.9258
59.2136
59.3825
59.2893
58.847
58.0334
56.8517
55.2928
53.4479
51.5283
49.6409
47.9213
46.5343
45.5751
45.152
45.2698
45.8289
46.9039
48.5676
50.6413
53.0417
55.7259
58.5125
61.3904
64.4768
67.9521
71.8104
75.9964
80.4789
85.5055
90.1547
94.2296
97.6948
100.432
102.567
104.273
105.117
105.497
105.909
106.048
106.118
106.546
106.589
106.363
106.471
106.978
107.47
107.618
106.503
104.53
101.993
98.2148
93.089
86.7924
80.9161
74.7203
70.5896
65.6131
63.5654
62.7621
61.1663
64.8902
68.6624
72.9294
78.7443
85.2559
94.6892
98.2997
101.425
100.802
97.5679
91.9395
84.6421
78.7862
78.5834
78.025
77.5508
77.241
77.1536
77.1841
77.2672
77.3612
77.408
77.4314
77.4078
77.3463
77.284
77.2075
77.1451
77.0905
77.0464
77.0229
77.0051
77.0003
76.9924
76.9948
76.9986
76.9966
77.0081
77.0076
77.0227
77.0401
77.0452
77.0831
77.1011
77.1243
77.1698
77.1866
77.2295
77.2704
77.2985
77.3527
77.3831
77.4187
77.4731
77.5023
77.5523
77.6088
77.6489
77.7118
77.7548
77.8013
77.8691
77.9086
77.9683
78.0305
78.0623
78.11
78.1387
78.1452
78.1675
78.1543
78.1245
78.1136
78.0589
77.9916
77.9409
77.8475
77.7505
77.6674
77.5471
77.4363
77.3454
77.223
77.1229
77.0495
76.9518
76.8817
76.831
76.7605
76.718
76.6869
76.6405
76.6228
76.6037
76.5662
76.571
76.5868
76.5971
76.6519
76.6937
76.6959
76.714
76.7313