/*--------------------------------*- C++ -*----------------------------------*\
| =========                 |                                                 |
| \\      /  F ield         | OpenFOAM: The Open Source CFD Toolbox           |
|  \\    /   O peration     | Version:  2.4.0                                 |
|   \\  /    A nd           | Web:      www.OpenFOAM.org                      |
|    \\/     M anipulation  |                                                 |
\*---------------------------------------------------------------------------*/
FoamFile
{
    version     2.0;
    format      ascii;
    class       volScalarField;
    location    "0.87";
    object      pMean;
}
// * * * * * * * * * * * * * * * * * * * * * * * * * * * * * * * * * * * * * //

dimensions      [0 2 -2 0 0 0 0];

internalField   nonuniform List<scalar> 
8800
(
88.7898
76.3345
68.8956
65.3093
63.3843
61.9254
60.682
59.5059
58.4394
57.3797
56.3911
55.3758
54.4314
53.4596
52.5777
51.6775
50.8814
50.0826
49.3793
48.6114
85.6819
75.9807
69.0638
65.4229
63.4439
61.9507
60.6894
59.5063
58.4373
57.3772
56.3883
55.3737
54.4288
53.4578
52.5755
51.6751
50.8824
50.0789
49.3827
48.5799
83.7187
76.0568
69.664
65.7979
63.6106
62.0298
60.7357
59.5387
58.4613
57.3943
56.3984
55.3785
54.4301
53.4558
52.5733
51.6669
50.8819
50.0666
49.4461
48.6327
82.1849
76.1184
70.2487
66.2205
63.7935
62.1175
60.7978
59.5953
58.5094
57.4333
56.4253
55.3967
54.4402
53.4605
52.5729
51.6598
50.8709
50.0547
49.5065
48.8726
80.9379
76.0919
70.7231
66.6258
63.9616
62.1853
60.8459
59.6535
58.5647
57.4856
56.4601
55.4255
54.4522
53.4723
52.5683
51.6595
50.8443
50.0433
49.4283
49.2093
79.9552
75.9954
71.0877
66.9726
64.1125
62.2299
60.8735
59.6997
58.6143
57.5362
56.4951
55.4546
54.4634
53.4829
52.562
51.6569
50.8191
50.0366
49.4428
49.6813
79.1998
75.8808
71.3545
67.2527
64.2486
62.2578
60.8819
59.7327
58.6537
57.578
56.5248
55.4783
54.4723
53.4888
52.5559
51.651
50.8049
50.0441
49.5314
49.998
78.649
75.7788
71.5373
67.4639
64.3691
62.2753
60.8781
59.7541
58.683
57.6099
56.5473
55.496
54.4778
53.4922
52.5504
51.6491
50.8011
50.0676
49.6158
50.226
78.29
75.705
71.6528
67.6072
64.4543
62.2865
60.872
59.7672
58.7034
57.6332
56.5633
55.5088
54.482
53.496
52.5488
51.653
50.8073
50.0962
49.6894
50.3944
78.1107
75.6684
71.71
67.6814
64.4983
62.2936
60.8676
59.7749
58.7147
57.6475
56.5726
55.5175
54.4859
53.502
52.5526
51.663
50.8204
50.1256
49.7475
50.5071
78.1056
75.6737
71.7103
67.6839
64.4981
62.2951
60.8662
59.7768
58.7151
57.6503
56.5737
55.5213
54.4889
53.5087
52.5602
51.676
50.8375
50.1521
49.7879
50.5694
78.2763
75.7196
71.6543
67.6136
64.454
62.2907
60.8686
59.7726
58.7048
57.6413
56.5669
55.5199
54.491
53.5158
52.5719
51.6921
50.859
50.1758
49.8099
50.5832
78.6302
75.799
71.5395
67.4714
64.3679
62.2805
60.8736
59.7611
58.6847
57.6216
56.5526
55.5129
54.4917
53.5233
52.5867
51.7125
50.8856
50.2004
49.81
50.5407
79.1778
75.9029
71.3562
67.2591
64.2448
62.2626
60.8759
59.7398
58.6546
57.5912
56.5305
55.4993
54.4892
53.5297
52.6028
51.7373
50.9183
50.2318
49.7945
50.4225
79.9323
76.0179
71.0898
66.9776
64.1066
62.2338
60.868
59.7067
58.6146
57.5504
56.5017
55.4791
54.4842
53.5325
52.6195
51.7639
50.9595
50.2737
49.791
50.2222
80.9142
76.1157
70.7256
66.6311
63.9546
62.1893
60.8415
59.6616
58.5655
57.5014
56.4686
55.4543
54.4774
53.5316
52.6359
51.7884
51.0078
50.3258
49.8181
49.959
82.1603
76.1436
70.2521
66.2277
63.7857
62.1224
60.7938
59.6053
58.5105
57.4516
56.4354
55.4301
54.4699
53.5283
52.65
51.807
51.0548
50.3751
49.8753
49.6843
83.6938
76.0817
69.6687
65.8064
63.6027
62.0352
60.7323
59.5494
58.4634
57.4134
56.4108
55.4136
54.4648
53.5272
52.6604
51.8211
51.0884
50.4128
49.9327
49.5407
85.656
76.0045
69.0693
65.4326
63.4362
61.9562
60.6861
59.5173
58.4399
57.3968
56.4016
55.4098
54.4654
53.5308
52.6673
51.8315
51.1043
50.4347
49.9301
49.4628
88.7632
76.3574
68.9009
65.3193
63.377
61.9309
60.6788
59.5171
58.4419
57.3997
56.4044
55.4124
54.4682
53.5332
52.6706
51.835
51.108
50.4406
49.9316
49.5818
48.5429
48.3486
47.9762
47.6064
47.3157
47.1061
46.9668
46.8743
46.8051
46.7502
46.7016
46.6494
46.5918
46.5301
46.4626
46.3891
46.3077
46.2119
46.1033
45.9787
45.8452
45.7147
45.5949
45.4892
45.4026
45.338
45.2941
45.2606
45.2265
45.1795
45.1179
45.0447
44.9701
44.9045
44.8524
44.8107
44.774
44.7297
44.6739
44.6056
44.5297
44.4489
44.3772
44.3231
44.2983
44.3016
44.3379
44.3977
44.4753
44.5556
44.6237
44.6626
44.6625
44.6173
44.5311
44.4083
44.2669
44.1176
43.9759
43.838
43.7076
43.5751
43.4438
43.3097
43.1788
43.0571
42.9578
42.8971
42.8797
42.9017
42.9586
43.0422
43.144
43.2563
43.3738
43.4895
43.5973
43.6869
43.7535
43.7866
43.7903
43.761
43.7148
43.6426
43.5722
43.4944
43.4267
43.377
43.3484
43.3601
43.4155
43.5307
43.7023
43.925
44.1908
44.4876
44.8063
45.1334
45.4591
45.7726
46.067
46.3358
46.5719
46.7568
46.9118
47.0229
47.1209
47.1925
47.2727
47.3294
47.3878
47.4308
47.4693
47.4964
47.5151
47.5286
47.5358
47.5402
47.5383
47.5268
47.5092
47.4781
47.4508
47.4106
47.3879
47.3418
47.3329
47.2954
47.3083
47.3106
47.3643
47.4163
47.5082
47.6053
47.7381
47.8762
48.0426
48.2083
48.3922
48.5716
48.7668
48.9655
49.1797
49.3985
49.6319
49.8621
50.1045
50.347
50.5934
50.8419
51.0846
51.324
51.5581
51.7824
51.9959
52.2051
52.4166
52.6127
52.8158
53.0064
53.2079
53.372
53.5538
53.6885
53.8403
53.9356
54.0546
54.1144
54.1909
54.2168
54.2808
54.2804
54.3531
54.3485
54.4619
54.4597
54.6408
54.6505
54.8871
54.9463
55.2094
55.3206
55.6105
55.771
56.079
56.2819
56.5981
56.8003
57.1052
57.2584
57.5036
57.5422
57.5996
57.3235
56.9383
55.9115
54.4128
50.9353
46.6307
26.3099
48.3532
48.2494
48.0489
47.7429
47.4318
47.1869
47.0298
46.9431
46.8973
46.8651
46.8327
46.7901
46.7379
46.6771
46.6103
46.5357
46.4536
46.3607
46.2582
46.1441
46.0234
45.9041
45.7944
45.6968
45.616
45.5513
45.5027
45.4633
45.4272
45.3847
45.3331
45.2718
45.2082
45.1474
45.0951
45.0483
45.0049
44.9567
44.9017
44.8358
44.7644
44.6901
44.6243
44.5729
44.5455
44.5424
44.5664
44.6115
44.6707
44.7315
44.782
44.8087
44.8042
44.7609
44.6832
44.5715
44.4401
44.2956
44.1526
44.0113
43.8757
43.741
43.6081
43.4761
43.3475
43.2295
43.1297
43.0604
43.0281
43.0318
43.0695
43.1333
43.2187
43.3168
43.4206
43.5222
43.6137
43.6865
43.7369
43.7563
43.7501
43.7152
43.6656
43.6001
43.5328
43.4682
43.41
43.3741
43.3564
43.3742
43.4316
43.5432
43.7056
43.9145
44.1636
44.4438
44.7456
45.0551
45.3674
45.6693
45.9568
46.2182
46.4487
46.6283
46.783
46.8953
46.9934
47.0637
47.1334
47.1844
47.2283
47.2594
47.2786
47.2837
47.2743
47.2578
47.232
47.2041
47.171
47.1286
47.0888
47.0323
46.9912
46.9329
46.9027
46.8468
46.8294
46.7888
46.7945
46.7925
46.8401
46.8873
46.9766
47.0711
47.205
47.342
47.5106
47.6786
47.8662
48.0486
48.2519
48.4559
48.6784
48.9006
49.1427
49.3742
49.6248
49.8681
50.1219
50.3704
50.6145
50.8506
51.0867
51.3014
51.5182
51.7221
51.9442
52.1359
52.3582
52.5505
52.7685
52.9372
53.1332
53.2654
53.4197
53.5085
53.6222
53.663
53.7306
53.7263
53.7794
53.7335
53.7976
53.7388
53.8463
53.7891
53.9506
53.9256
54.1214
54.1559
54.3761
54.4556
54.6977
54.8219
55.0813
55.2178
55.4933
55.6005
55.8467
55.8714
55.9932
55.8268
55.6937
55.0567
54.3401
52.5012
50.5765
44.66
38.8104
20.0541
48.3295
48.2972
48.2364
47.9827
47.6173
47.2859
47.0723
46.9743
46.9519
46.9533
46.949
46.9237
46.8796
46.8193
46.7501
46.672
46.5883
46.4966
46.3988
46.2935
46.1852
46.078
45.9794
45.8908
45.8165
45.7546
45.706
45.6652
45.6294
45.5908
45.5478
45.4972
45.4436
45.3892
45.3385
45.2895
45.2419
45.1909
45.1364
45.0751
45.0104
44.945
44.8863
44.84
44.8121
44.8042
44.8169
44.8464
44.8865
44.9269
44.9591
44.9711
44.9586
44.9136
44.8393
44.7352
44.6109
44.4724
44.3297
44.1873
44.0475
43.9117
43.7788
43.6503
43.5272
43.415
43.3197
43.2485
43.2075
43.198
43.2204
43.2687
43.3397
43.4243
43.5159
43.6038
43.6807
43.7382
43.7724
43.7794
43.763
43.726
43.6737
43.6145
43.5512
43.4947
43.4458
43.4168
43.404
43.4215
43.4755
43.5787
43.7274
43.9205
44.1519
44.415
44.6988
44.9923
45.2907
45.5809
45.8603
46.1146
46.3387
46.5161
46.6714
46.7878
46.8867
46.9583
47.0218
47.0703
47.1067
47.1307
47.1358
47.1222
47.09
47.0468
46.9958
46.9349
46.8777
46.8043
46.7496
46.6701
46.6224
46.5501
46.5161
46.4583
46.4346
46.397
46.3963
46.3965
46.4383
46.4852
46.574
46.6704
46.8062
46.9451
47.1165
47.2879
47.4803
47.6675
47.8804
48.0942
48.3287
48.5619
48.8126
49.0524
49.3108
49.5587
49.8195
50.0591
50.2992
50.5245
50.7568
50.9586
51.1777
51.377
51.5987
51.791
52.026
52.2289
52.4536
52.6346
52.8378
52.9679
53.1231
53.1977
53.3079
53.3192
53.3833
53.3487
53.3915
53.3046
53.3595
53.2531
53.3491
53.2569
53.3739
53.3294
53.4684
53.477
53.6405
53.686
53.8778
53.9456
54.1651
54.2138
54.4323
54.4331
54.5914
54.4713
54.4874
54.0546
53.7948
52.6325
51.8601
48.8798
46.9054
39.621
32.5951
19.7834
48.4928
48.4279
48.2961
47.9493
47.5298
47.1934
47.0072
46.9556
46.9872
47.0391
47.0747
47.0758
47.0446
46.9867
46.9133
46.829
46.7403
46.6472
46.5526
46.4549
46.3578
46.2628
46.1759
46.0977
46.0315
45.9753
45.9297
45.8905
45.8563
45.8214
45.7847
45.7424
45.6968
45.6477
45.5989
45.5492
45.5001
45.4488
45.3963
45.3406
45.2843
45.2282
45.1777
45.1357
45.1071
45.0926
45.0935
45.1055
45.1252
45.1438
45.1563
45.153
45.1304
45.0824
45.0099
44.9124
44.7957
44.6651
44.5271
44.3876
44.2495
44.1156
43.9862
43.8632
43.7477
43.6435
43.5549
43.4858
43.441
43.4226
43.4331
43.4679
43.5254
43.5964
43.6747
43.7476
43.8097
43.8521
43.8721
43.869
43.8445
43.8043
43.7499
43.6928
43.6331
43.5808
43.5363
43.506
43.489
43.4988
43.5442
43.6348
43.7686
43.9444
44.1593
44.4039
44.6711
44.9479
45.2349
45.5134
45.785
46.0314
46.2496
46.4237
46.5786
46.6991
46.8001
46.8762
46.9406
46.9901
47.0261
47.0439
47.0375
47.0063
46.9565
46.8883
46.8206
46.7329
46.6604
46.5637
46.4971
46.3994
46.3472
46.2667
46.2333
46.1747
46.1516
46.1135
46.1147
46.1188
46.1642
46.2196
46.3124
46.4173
46.5578
46.7039
46.8807
47.0567
47.2558
47.4492
47.6729
47.8949
48.1418
48.3868
48.6488
48.9015
49.1698
49.421
49.6859
49.9099
50.1485
50.3539
50.5802
50.7638
50.9858
51.1778
51.4019
51.5948
51.844
52.0442
52.2823
52.4592
52.6784
52.791
52.9591
53.0082
53.125
53.0977
53.1629
53.087
53.1256
52.9996
53.0509
52.9144
52.9769
52.8724
52.9314
52.87
52.9495
52.9272
53.0361
53.0409
53.1859
53.1882
53.3531
53.3083
53.4675
53.3153
53.4597
53.0716
53.1429
52.2506
52.1097
50.1847
49.4719
45.6186
43.0973
36.2507
28.687
20.1134
49.9635
49.6032
48.5309
47.6342
47.061
46.7967
46.7625
46.8544
46.9924
47.1184
47.2045
47.2383
47.2245
47.1723
47.0961
47.0057
46.9108
46.8143
46.7204
46.6286
46.5415
46.4592
46.3851
46.319
46.2627
46.2143
46.1741
46.1386
46.1071
46.0756
46.0431
46.0067
45.9669
45.9234
45.8782
45.8312
45.7837
45.7344
45.6848
45.6339
45.5836
45.5338
45.488
45.4471
45.4152
45.3919
45.3789
45.373
45.3727
45.3718
45.3663
45.3496
45.3178
45.2672
45.1964
45.1062
44.9987
44.879
44.7509
44.6199
44.4891
44.3615
44.2391
44.1237
44.0176
43.9223
43.8418
43.7782
43.735
43.7133
43.7164
43.7417
43.7871
43.8442
43.9063
43.9624
44.0078
44.0356
44.0437
44.032
44.0011
43.9557
43.8988
43.8391
43.7781
43.7222
43.6731
43.6329
43.6043
43.6
43.6326
43.707
43.8259
43.985
44.186
44.4148
44.6678
44.9332
45.2092
45.4783
45.7428
45.982
46.1948
46.3666
46.5215
46.6458
46.7491
46.8325
46.8993
46.9513
46.9865
46.9963
46.9793
46.9301
46.8671
46.7804
46.7024
46.5989
46.5147
46.4065
46.3292
46.229
46.1739
46.0995
46.0644
46.0108
45.9882
45.9537
45.9646
45.973
46.034
46.0978
46.2065
46.3206
46.4746
46.6283
46.8188
46.9989
47.2104
47.4071
47.6428
47.8652
48.1281
48.3798
48.6616
48.9233
49.2066
49.457
49.7264
49.9319
50.1709
50.3508
50.5728
50.7334
50.9583
51.1306
51.3688
51.5532
51.8222
52.0064
52.2664
52.4239
52.6615
52.7511
52.935
52.954
53.0778
53.013
53.0761
52.9573
52.9912
52.8337
52.8782
52.7309
52.7613
52.6367
52.66
52.5567
52.6023
52.5233
52.6119
52.5365
52.673
52.5579
52.7273
52.4919
52.6897
52.2477
52.4796
51.6967
51.8566
50.5043
50.2912
47.9643
46.7861
42.9914
39.6355
34.2109
27.0202
20.6897
50.9664
50.4691
48.8239
47.4912
46.7063
46.4327
46.5045
46.7307
46.9843
47.1964
47.3418
47.414
47.4212
47.3768
47.299
47.202
47.099
46.9967
46.9009
46.8123
46.7327
46.6613
46.5991
46.5452
46.4994
46.4599
46.4262
46.3956
46.3674
46.3389
46.3095
46.2772
46.2419
46.2033
46.1625
46.1193
46.0748
46.0286
45.982
45.9349
45.8881
45.8416
45.7972
45.7554
45.7185
45.6869
45.6613
45.6402
45.6224
45.6044
45.5831
45.5543
45.5144
45.461
45.3925
45.3093
45.2123
45.1047
44.9891
44.8694
44.7491
44.6317
44.5194
44.4146
44.3196
44.2351
44.1647
44.1091
44.0714
44.0518
44.0537
44.0756
44.1131
44.1588
44.2054
44.2465
44.2764
44.2911
44.2882
44.2682
44.2297
44.1771
44.1131
44.044
43.9737
43.9073
43.8474
43.793
43.7488
43.7237
43.7406
43.7983
43.9022
44.0476
44.2379
44.455
44.6953
44.9522
45.2193
45.4819
45.7397
45.9765
46.186
46.3591
46.5151
46.6418
46.7493
46.8388
46.9093
46.9602
46.992
46.9896
46.9616
46.8934
46.8227
46.7253
46.6408
46.5317
46.4396
46.3308
46.2501
46.1619
46.109
46.0497
46.0144
45.9719
45.9496
45.9321
45.9539
45.9833
46.063
46.1396
46.2694
46.3914
46.562
46.7222
46.9285
47.1133
47.3392
47.5409
47.7855
48.0115
48.2928
48.5478
48.8551
49.1231
49.4255
49.6743
49.9428
50.1337
50.365
50.5217
50.7362
50.8702
51.1001
51.2442
51.4965
51.6654
51.9523
52.112
52.4034
52.5279
52.7912
52.847
53.0506
53.0345
53.17
53.0541
53.1278
52.96
53.0069
52.8162
52.8695
52.6895
52.7315
52.544
52.5751
52.3892
52.4417
52.2603
52.3704
52.1769
52.3285
52.0702
52.2364
51.8258
51.9896
51.3611
51.487
50.5384
50.4311
48.9843
48.2974
46.0537
44.3369
41.0736
37.419
33.3424
27.1137
21.838
51.5782
51.0739
49.1638
47.556
46.5798
46.225
46.321
46.6284
46.9732
47.2643
47.4703
47.5855
47.6177
47.583
47.5034
47.3988
47.2863
47.1767
47.0769
46.9893
46.9147
46.8521
46.8004
46.7578
46.7225
46.6925
46.6661
46.6416
46.6176
46.5924
46.5654
46.5357
46.5032
46.4678
46.4302
46.3903
46.349
46.3063
46.2626
46.2181
46.1733
46.1282
46.0837
46.0402
45.9987
45.9599
45.9242
45.8912
45.8598
45.8283
45.7942
45.7551
45.7085
45.653
45.587
45.5105
45.4236
45.3282
45.2259
45.1197
45.0127
44.9079
44.8077
44.7149
44.6312
44.5581
44.4974
44.451
44.4213
44.4097
44.4168
44.4408
44.4765
44.5146
44.5492
44.5765
44.5933
44.5981
44.5863
44.5571
44.5101
44.4483
44.3733
44.2899
44.2062
44.1264
44.0532
43.9811
43.9179
43.8708
43.8688
43.912
44.0059
44.1438
44.3279
44.5375
44.771
45.0221
45.281
45.5408
45.7939
46.0289
46.2369
46.4154
46.5677
46.6942
46.8046
46.8948
46.9656
47.011
47.039
47.0257
46.9874
46.9052
46.8256
46.7227
46.6337
46.5286
46.4351
46.3387
46.2665
46.2009
46.1594
46.1186
46.0908
46.0624
46.048
46.0505
46.0885
46.1481
46.244
46.3492
46.4903
46.6314
46.8109
46.985
47.2014
47.4011
47.6403
47.8538
48.1082
48.3501
48.6437
48.9104
49.2293
49.5116
49.8299
50.0755
50.339
50.5156
50.7318
50.875
51.0739
51.1794
51.4079
51.5293
51.7739
51.9365
52.233
52.3695
52.69
52.7883
53.056
53.0933
53.2994
53.2767
53.4076
53.266
53.3229
53.1379
53.1779
52.9888
53.0279
52.8383
52.8649
52.6461
52.6493
52.4116
52.4253
52.1849
52.2298
51.9792
52.0359
51.7139
51.7527
51.2703
51.2621
50.5798
50.4537
49.5298
49.1102
47.6924
46.7535
44.6227
42.7593
40.1173
36.6234
33.448
28.2816
23.5629
51.9451
51.4744
49.4711
47.7168
46.6103
46.1555
46.2201
46.5608
46.9661
47.32
47.5786
47.7345
47.7922
47.7692
47.6898
47.5799
47.4597
47.3439
47.2405
47.1533
47.0826
47.0272
46.9845
46.9519
46.9263
46.9053
46.8865
46.868
46.8485
46.827
46.8026
46.7753
46.7448
46.7118
46.6764
46.6391
46.6001
46.5596
46.5176
46.4744
46.43
46.385
46.3393
46.2937
46.2483
46.2042
46.1609
46.1191
46.0775
46.0358
45.9923
45.9462
45.8956
45.8398
45.7772
45.708
45.6313
45.5485
45.4601
45.3685
45.2753
45.1836
45.0953
45.0142
44.9414
44.8799
44.8305
44.7955
44.776
44.7745
44.7885
44.8164
44.8512
44.8841
44.9095
44.9267
44.9339
44.932
44.9149
44.8783
44.8227
44.7504
44.6619
44.5626
44.4646
44.3693
44.2842
44.1962
44.115
44.0509
44.0336
44.0675
44.1561
44.2924
44.4704
44.6741
44.9023
45.1473
45.4028
45.6609
45.9149
46.1524
46.359
46.5377
46.6825
46.8089
46.9169
46.9999
47.0645
47.1007
47.1228
47.1045
47.0564
46.9677
46.8775
46.7775
46.69
46.5982
46.5161
46.4434
46.3904
46.3538
46.3324
46.3162
46.3048
46.2957
46.2988
46.3263
46.3879
46.4739
46.5896
46.7152
46.8658
47.0309
47.2199
47.4142
47.6402
47.8626
48.1148
48.3504
48.6148
48.8791
49.1824
49.4632
49.7943
50.0867
50.4131
50.653
50.9208
51.0697
51.2717
51.4098
51.595
51.68
51.9007
51.9935
52.2248
52.3691
52.6732
52.7945
53.117
53.2221
53.4722
53.518
53.7238
53.7105
53.8303
53.6683
53.6902
53.5101
53.5155
53.3447
53.3636
53.1762
53.1867
52.9469
52.9231
52.6435
52.6055
52.3137
52.2677
51.9589
51.9081
51.5097
51.4203
50.8614
50.6975
49.9928
49.7035
48.8187
48.2674
46.8618
45.8761
43.92
42.0458
39.9454
36.7838
34.0808
29.802
25.5007
52.1775
51.7377
49.7092
47.8809
46.6962
46.1673
46.1921
46.5412
46.9828
47.3815
47.6799
47.868
47.9478
47.9364
47.859
47.7461
47.621
47.5014
47.396
47.3097
47.2422
47.1926
47.1571
47.1328
47.1153
47.1021
47.0898
47.077
47.0617
47.0435
47.0215
46.9965
46.9678
46.9366
46.9028
46.8672
46.8291
46.7895
46.7476
46.7045
46.6594
46.6133
46.5658
46.5179
46.4692
46.4208
46.3719
46.3234
46.2745
46.2262
46.1771
46.1274
46.0755
46.0216
45.9639
45.9026
45.8362
45.7657
45.6904
45.6129
45.5337
45.4559
45.3807
45.3123
45.2523
45.2042
45.168
45.146
45.1377
45.1456
45.1667
45.198
45.2307
45.2593
45.2776
45.2868
45.2884
45.2831
45.2622
45.2213
45.1605
45.0795
44.9784
44.8629
44.7471
44.636
44.5377
44.4341
44.3451
44.2699
44.2465
44.2775
44.3675
44.5027
44.6753
44.8695
45.0935
45.335
45.5929
45.8509
46.1097
46.3547
46.5653
46.7403
46.8803
47.0016
47.0992
47.1682
47.2179
47.2437
47.26
47.2361
47.1837
47.0964
47.006
46.9155
46.8388
46.765
46.7048
46.6597
46.6357
46.6319
46.6384
46.6543
46.6667
46.6828
46.7119
46.763
46.8493
46.9579
47.0966
47.2389
47.4065
47.5923
47.7936
48.0041
48.246
48.4825
48.7525
49.0115
49.2938
49.5838
49.8991
50.1961
50.5363
50.8417
51.1761
51.4
51.6848
51.7874
51.9841
52.1116
52.2758
52.3447
52.5712
52.6133
52.856
52.9722
53.2902
53.3899
53.7113
53.8084
54.0676
54.0951
54.3399
54.3435
54.4629
54.229
54.2196
54.0591
54.0478
53.8869
53.8817
53.6944
53.7036
53.4361
53.392
53.0712
52.995
52.6556
52.538
52.1714
52.026
51.5773
51.3682
50.7761
50.493
49.8729
49.5071
48.662
48.0589
46.6521
45.6105
43.8649
41.9921
40.2731
37.5023
34.9921
31.3541
27.4508
52.3379
51.9132
49.8755
48.0152
46.7943
46.2298
46.233
46.5848
47.046
47.4695
47.7903
47.9961
48.0882
48.0831
48.007
47.8928
47.766
47.6457
47.5411
47.4571
47.3935
47.3491
47.3197
47.3021
47.2913
47.2842
47.2774
47.2692
47.2576
47.2424
47.2228
47.1997
47.1725
47.1427
47.1097
47.0746
47.0368
46.9971
46.9548
46.9108
46.8644
46.8168
46.7672
46.7169
46.665
46.6132
46.5606
46.5084
46.4558
46.4041
46.3524
46.3016
46.251
46.2009
46.1497
46.0974
46.0419
45.9835
45.9211
45.8575
45.7925
45.7289
45.6676
45.6137
45.568
45.5339
45.5125
45.5046
45.5087
45.5277
45.5567
45.5899
45.6197
45.6445
45.6591
45.6627
45.6594
45.6518
45.6306
45.5897
45.5262
45.4376
45.3266
45.1989
45.0672
44.937
44.8247
44.7074
44.6154
44.5352
44.5142
44.5455
44.6448
44.7817
44.9526
45.1389
45.3634
45.6036
45.8619
46.1195
46.388
46.6428
46.8608
47.0306
47.1629
47.2707
47.3518
47.4032
47.4373
47.4545
47.4666
47.4404
47.391
47.3113
47.2307
47.1571
47.0998
47.0506
47.0173
47.0017
47.013
47.0433
47.0873
47.1375
47.1821
47.2294
47.2896
47.361
47.4692
47.5927
47.7524
47.9076
48.0988
48.2975
48.5213
48.7422
49.0084
49.2513
49.5518
49.8272
50.1362
50.4489
50.7897
51.0993
51.4585
51.7637
52.1126
52.3127
52.6113
52.6449
52.8624
52.9521
53.1274
53.1543
53.3884
53.3664
53.6565
53.73
54.0781
54.1257
54.4962
54.5459
54.8728
54.8205
55.1501
55.1532
55.3181
54.9487
54.9642
54.7823
54.7906
54.6233
54.6453
54.4229
54.4543
54.1275
54.0975
53.6997
53.6363
53.2239
53.104
52.6616
52.4684
51.9326
51.6532
51.0606
50.7462
50.183
49.8135
48.9628
48.2718
46.8864
45.7117
44.1964
42.4218
40.8995
38.4573
36.029
32.825
29.3078
52.4283
52.0085
49.9716
48.1121
46.8932
46.3308
46.3375
46.6935
47.1602
47.5876
47.911
48.1181
48.2106
48.2051
48.1294
48.0166
47.8928
47.7765
47.6768
47.5978
47.5396
47.5007
47.477
47.4647
47.4589
47.4561
47.453
47.4478
47.4389
47.4259
47.4083
47.3868
47.3611
47.3323
47.3001
47.2653
47.2276
47.1875
47.1446
47.0996
47.052
47.0028
46.9516
46.8992
46.8456
46.7917
46.7373
46.6832
46.6297
46.5777
46.5267
46.4776
46.43
46.3845
46.3405
46.2976
46.2535
46.208
46.1602
46.1117
46.0622
46.014
45.9694
45.9317
45.9009
45.881
45.8752
45.8826
45.8996
45.9281
45.9629
45.9964
46.0241
46.0459
46.0568
46.0578
46.0534
46.0456
46.0261
45.9887
45.9261
45.8335
45.7149
45.5751
45.4306
45.284
45.1595
45.0332
44.9426
44.8621
44.8559
44.8893
45.0024
45.1418
45.3155
45.4944
45.7258
45.9649
46.2254
46.4789
46.7597
47.0198
47.2436
47.4038
47.5237
47.6081
47.6688
47.7013
47.7274
47.7406
47.7511
47.7266
47.6911
47.6242
47.5698
47.518
47.4945
47.4665
47.472
47.4854
47.5378
47.5971
47.6841
47.763
47.8554
47.9323
48.033
48.124
48.2547
48.3817
48.5612
48.718
48.9335
49.1344
49.3849
49.6145
49.9104
50.1588
50.4991
50.7874
51.1367
51.4683
51.8451
52.1532
52.5487
52.8305
53.2126
53.36
53.6784
53.6186
53.8963
53.9183
54.135
54.0772
54.3469
54.2704
54.6367
54.6433
55.037
55.0047
55.4358
55.4431
55.858
55.734
56.1803
56.117
56.3254
55.837
55.9492
55.7101
55.7925
55.5437
55.6281
55.3764
55.4184
55.0273
55.0073
54.5527
54.5117
54.0278
53.9105
53.4242
53.1843
52.6472
52.3484
51.7394
51.4237
50.8631
50.4507
49.5415
48.6647
47.3559
46.099
44.7826
43.2048
41.7094
39.4743
37.1136
34.2125
31.0377
52.4419
52.0188
49.9966
48.1732
46.9949
46.4724
46.5078
46.8714
47.3294
47.7399
48.0459
48.2377
48.3184
48.3063
48.2301
48.1218
48.0055
47.8978
47.8067
47.7358
47.6847
47.6516
47.6326
47.624
47.621
47.6204
47.6192
47.6156
47.6083
47.5969
47.5808
47.5607
47.5363
47.5084
47.4769
47.4423
47.4047
47.3645
47.3217
47.2765
47.2287
47.1786
47.1266
47.0732
47.0188
46.9642
46.9099
46.8566
46.8049
46.7552
46.707
46.6615
46.619
46.58
46.5436
46.5098
46.4772
46.4456
46.4137
46.3814
46.3487
46.3177
46.2916
46.2718
46.2583
46.2546
46.2651
46.2863
46.3131
46.347
46.3845
46.418
46.4428
46.4583
46.4621
46.46
46.4566
46.453
46.4407
46.4114
46.3545
46.2655
46.1449
45.998
45.842
45.683
45.5476
45.419
45.333
45.2637
45.2803
45.3174
45.4463
45.5846
45.7614
45.9288
46.1702
46.4069
46.6719
46.9189
47.2153
47.4771
47.7096
47.8571
47.9611
48.0071
48.0537
48.0616
48.0892
48.0998
48.1174
48.0993
48.0892
48.0437
48.0309
48.0044
48.0272
48.0254
48.0803
48.1194
48.2177
48.3039
48.4412
48.5465
48.682
48.7856
48.9305
49.0396
49.1968
49.3317
49.5192
49.6779
49.9119
50.1171
50.389
50.6379
50.9499
51.2257
51.5972
51.8999
52.2882
52.6316
53.041
53.3564
53.7712
54.0166
54.4083
54.5347
54.7901
54.692
55.0559
54.9674
55.2434
55.0673
55.3859
55.2816
55.7054
55.6924
56.1046
56.0379
56.539
56.5005
56.9719
56.8384
57.3151
57.2194
57.4079
56.8807
57.06
56.8114
56.9552
56.7038
56.8147
56.5325
56.5602
56.1407
56.0984
55.6255
55.5544
55.0355
54.8836
54.4023
54.1425
53.6828
53.2831
52.7552
52.4119
51.7607
51.207
50.2311
49.1988
47.9918
46.7951
45.566
44.1493
42.599
40.4879
38.2134
35.543
32.6506
52.3656
51.932
49.9506
48.2072
47.1122
46.6697
46.7542
47.1217
47.5519
47.9229
48.191
48.3503
48.4074
48.3836
48.3074
48.2069
48.1027
48.0081
47.9296
47.8694
47.827
47.8003
47.7856
47.7793
47.7776
47.7776
47.7767
47.7735
47.7669
47.7563
47.7414
47.7224
47.6992
47.6722
47.6417
47.6081
47.5715
47.5322
47.4902
47.4454
47.3978
47.3478
47.2957
47.2425
47.189
47.1361
47.0844
47.0347
46.9866
46.9408
46.8977
46.8578
46.8219
46.7908
46.764
46.7406
46.7197
46.7012
46.6851
46.6705
46.6557
46.6423
46.6345
46.6329
46.6378
46.6529
46.6795
46.7123
46.7477
46.7866
46.8248
46.8546
46.8731
46.8803
46.8776
46.8738
46.8717
46.8719
46.8688
46.8505
46.804
46.7248
46.61
46.4629
46.3006
46.1393
46
45.875
45.7926
45.7429
45.7809
45.8298
45.9698
46.102
46.2739
46.437
46.6937
46.9242
47.1904
47.4329
47.7493
48.0086
48.2533
48.384
48.474
48.4837
48.5159
48.5034
48.5442
48.5495
48.5843
48.5746
48.596
48.5801
48.6179
48.6246
48.7002
48.7359
48.8473
48.9193
49.0698
49.1813
49.3598
49.4853
49.6635
49.7886
49.9764
50.1048
50.2893
50.4254
50.6221
50.7828
51.0292
51.2488
51.5463
51.8203
52.1511
52.4655
52.8443
53.1736
53.5847
53.9292
54.3533
54.6775
55.0919
55.3181
55.6566
55.8096
55.9656
55.8685
56.2475
56.0865
56.3396
56.1567
56.535
56.4242
56.8472
56.862
57.2235
57.1858
57.7234
57.7235
58.2173
58.1411
58.5321
58.4742
58.5649
58.0309
58.3064
58.0169
58.219
57.9674
58.0764
57.8623
57.8299
57.4274
57.2945
56.8746
56.7589
56.2173
56.0087
55.5727
55.248
54.843
54.4549
53.9694
53.4924
52.7715
51.9965
51.0014
49.9179
48.8175
47.7452
46.5014
45.1637
43.5174
41.5066
39.3188
36.8376
34.1707
52.1498
51.7102
49.8363
48.2473
47.2904
46.9609
47.0943
47.4442
47.8201
48.1276
48.3377
48.4495
48.4754
48.4387
48.3649
48.2763
48.1884
48.1108
48.0477
48.0002
47.9672
47.9464
47.9347
47.9292
47.9271
47.926
47.924
47.9201
47.913
47.9024
47.8879
47.8694
47.8469
47.821
47.792
47.7601
47.7254
47.6881
47.6481
47.6052
47.559
47.5103
47.4592
47.4076
47.3576
47.3096
47.2629
47.2176
47.1745
47.1345
47.0977
47.0646
47.0369
47.0152
46.9985
46.9869
46.9802
46.9787
46.9806
46.9819
46.9832
46.9882
46.9991
47.0157
47.0399
47.0729
47.1132
47.1558
47.1986
47.2421
47.281
47.3086
47.3217
47.3193
47.3078
47.3004
47.3
47.3069
47.3141
47.3095
47.2797
47.2169
47.1143
46.976
46.8156
46.6608
46.52
46.4053
46.3313
46.308
46.3538
46.4075
46.5475
46.6744
46.8401
47.0258
47.3016
47.534
47.7984
48.0484
48.3711
48.6189
48.8646
48.9855
49.069
49.0546
49.0779
49.0578
49.1102
49.1174
49.1709
49.1716
49.2265
49.246
49.3335
49.3823
49.5126
49.5941
49.7608
49.8777
50.0745
50.2174
50.4273
50.574
50.7858
50.9324
51.1531
51.3059
51.5109
51.6544
51.8574
52.0258
52.2855
52.5199
52.8439
53.146
53.4982
53.8468
54.2169
54.5691
54.9762
55.337
55.7471
56.0892
56.4478
56.6684
56.9592
57.1002
57.1867
57.2236
57.461
57.3026
57.4673
57.3494
57.7155
57.6672
58.024
58.1563
58.3761
58.4495
58.9684
59.0146
59.5308
59.5859
59.8527
59.7972
59.8205
59.3475
59.6197
59.3965
59.5091
59.2561
59.388
59.2809
59.1787
58.8089
58.606
58.1692
57.9956
57.4749
57.2263
56.8477
56.4494
56.134
55.6695
55.1747
54.5654
53.8582
52.7889
51.9168
50.7749
49.835
48.8332
47.528
46.1932
44.4532
42.5271
40.4132
38.0821
35.5849
51.681
51.266
49.6587
48.3467
47.5974
47.3853
47.534
47.8266
48.1152
48.3351
48.471
48.5281
48.5228
48.4763
48.4084
48.3348
48.2656
48.2062
48.1586
48.123
48.0978
48.0811
48.0706
48.0642
48.06
48.0566
48.0526
48.047
48.039
48.0279
48.0133
47.9952
47.9737
47.949
47.9217
47.8921
47.8601
47.8258
47.7891
47.7491
47.7058
47.6604
47.6138
47.5669
47.5212
47.4789
47.4404
47.4039
47.3683
47.3344
47.3039
47.2796
47.2626
47.2519
47.2466
47.2486
47.2574
47.2721
47.2919
47.3136
47.3354
47.3583
47.3859
47.4197
47.4605
47.5067
47.5573
47.6087
47.6589
47.7061
47.7452
47.7698
47.7768
47.7665
47.7465
47.7327
47.7336
47.748
47.7674
47.779
47.7701
47.7299
47.6463
47.5238
47.377
47.2395
47.102
47.0074
46.9418
46.9371
46.9822
47.0478
47.1808
47.2975
47.4628
47.6917
47.9807
48.2213
48.4808
48.7574
49.0645
49.3039
49.5365
49.6574
49.7365
49.731
49.7397
49.7277
49.7858
49.8122
49.8827
49.9081
49.985
50.0419
50.1678
50.2768
50.4479
50.5942
50.7983
50.9746
51.1934
51.3776
51.6055
51.7811
52.0116
52.1877
52.4249
52.6032
52.832
52.984
53.2043
53.391
53.6567
53.9196
54.2532
54.5746
54.938
55.2977
55.6543
56.0284
56.4146
56.777
57.1787
57.5321
57.8221
58.0384
58.2724
58.3935
58.4869
58.5955
58.6684
58.6429
58.6741
58.7207
58.9514
58.987
59.2715
59.4414
59.606
59.8331
60.1814
60.4816
60.8738
60.9453
61.1969
61.156
61.1243
60.8162
60.9904
60.8552
60.8313
60.6487
60.7116
60.7081
60.451
60.1893
59.9112
59.5212
59.3044
58.8398
58.5213
58.1412
57.6728
57.4212
56.883
56.3576
55.5659
54.9384
53.6448
52.9444
51.7695
51.0195
49.9676
48.6103
47.2341
45.4314
43.5687
41.506
39.2868
36.9168
50.9231
50.6014
49.4682
48.5568
48.054
47.9287
48.0357
48.2217
48.3925
48.5113
48.5717
48.5806
48.5521
48.5018
48.4431
48.3851
48.3331
48.2894
48.2543
48.2272
48.2067
48.1916
48.1804
48.1721
48.1655
48.1596
48.1536
48.1466
48.1377
48.1263
48.1116
48.0937
48.0729
48.0496
48.0241
47.9973
47.9697
47.9403
47.9078
47.8722
47.8339
47.7933
47.7522
47.7129
47.6756
47.6411
47.611
47.5851
47.5612
47.5372
47.5158
47.5029
47.4999
47.504
47.5135
47.53
47.5546
47.5861
47.621
47.6563
47.694
47.7357
47.7815
47.8318
47.886
47.9419
47.9987
48.0548
48.1091
48.1588
48.1969
48.2187
48.2212
48.2054
48.18
48.162
48.1643
48.1846
48.212
48.235
48.2425
48.2244
48.1658
48.0675
47.9432
47.8317
47.7018
47.6422
47.5915
47.6032
47.6431
47.7326
47.8492
47.9767
48.1569
48.4108
48.6875
48.9456
49.2154
49.5208
49.8013
50.0458
50.253
50.3866
50.4558
50.4784
50.479
50.4999
50.5507
50.6139
50.69
50.7631
50.8505
50.9596
51.1029
51.2781
51.4775
51.6906
51.9136
52.145
52.364
52.5957
52.8172
53.0279
53.2574
53.4764
53.7138
53.9457
54.173
54.3715
54.5868
54.8187
55.0745
55.3753
55.6922
56.0435
56.3896
56.7611
57.1008
57.488
57.8348
58.204
58.5565
58.8917
59.1379
59.3988
59.5197
59.6903
59.74
59.8697
59.8675
59.9669
59.9457
60.1182
60.169
60.3491
60.4935
60.7284
60.7992
61.235
61.4753
62.0081
62.0966
62.2882
62.4399
62.5128
62.4609
62.3699
62.3613
62.2774
62.0688
62.0746
61.9973
61.9735
61.6801
61.5079
61.0836
60.9427
60.4826
60.2013
59.7944
59.4148
58.9644
58.7263
58.0234
57.4257
56.5504
55.9711
54.6019
54.1068
52.8781
52.2377
51.0128
49.6966
48.2596
46.4388
44.6176
42.5842
40.4535
38.1755
50.0939
49.9247
49.3694
48.8944
48.6089
48.5001
48.5044
48.5544
48.6045
48.633
48.6333
48.6089
48.5677
48.5189
48.4696
48.4242
48.3847
48.3514
48.3239
48.3011
48.2825
48.2672
48.2547
48.2445
48.236
48.2284
48.2208
48.2125
48.2028
48.191
48.1761
48.1582
48.1382
48.1173
48.0953
48.0716
48.047
48.0222
47.9962
47.9665
47.9337
47.9011
47.8695
47.8384
47.8098
47.7876
47.7712
47.758
47.7463
47.7358
47.7304
47.7337
47.7453
47.7635
47.7887
47.8214
47.8604
47.9045
47.9529
48.0034
48.0535
48.1041
48.1582
48.2167
48.2774
48.3377
48.3974
48.4554
48.5102
48.5571
48.5915
48.6126
48.6185
48.6074
48.5844
48.5667
48.5687
48.5889
48.6204
48.651
48.6704
48.6692
48.6323
48.5614
48.4695
48.4018
48.3016
48.277
48.2373
48.2728
48.3192
48.4422
48.5404