/*--------------------------------*- C++ -*----------------------------------*\
| =========                 |                                                 |
| \\      /  F ield         | OpenFOAM: The Open Source CFD Toolbox           |
|  \\    /   O peration     | Version:  2.4.0                                 |
|   \\  /    A nd           | Web:      www.OpenFOAM.org                      |
|    \\/     M anipulation  |                                                 |
\*---------------------------------------------------------------------------*/
FoamFile
{
    version     2.0;
    format      ascii;
    class       volScalarField;
    location    "0.87";
    object      pPrime2Mean;
}
// * * * * * * * * * * * * * * * * * * * * * * * * * * * * * * * * * * * * * //

dimensions      [0 4 -4 0 0 0 0];

internalField   nonuniform List<scalar> 
8800
(
743270
724519
704400
684453
664778
645388
626285
607468
588936
570689
552726
535043
517636
500495
483603
466929
450407
433912
417146
399171
743296
724522
704399
684452
664777
645388
626285
607468
588936
570690
552727
535044
517637
500498
483608
466938
450425
433950
417238
399476
743313
724521
704394
684449
664776
645387
626284
607467
588936
570690
552727
535045
517640
500503
483617
466955
450460
434023
417407
400067
743325
724520
704389
684445
664774
645386
626284
607467
588936
570690
552728
535047
517644
500510
483630
466981
450510
434126
417643
400756
743336
724521
704384
684442
664773
645386
626284
607467
588936
570691
552730
535050
517649
500519
483648
467014
450574
434255
417927
401468
743344
724521
704381
684439
664772
645386
626284
607467
588937
570691
552731
535053
517655
500530
483669
467053
450649
434403
418238
402163
743351
724522
704379
684436
664771
645386
626284
607467
588937
570692
552733
535057
517662
500543
483692
467097
450732
434565
418563
402824
743355
724523
704377
684435
664770
645386
626284
607467
588937
570693
552735
535061
517669
500557
483718
467145
450822
434734
418890
403441
743358
724523
704377
684434
664769
645386
626285
607468
588938
570694
552737
535065
517677
500572
483746
467195
450915
434907
419211
404008
743360
724524
704376
684433
664769
645386
626285
607468
588938
570695
552740
535070
517686
500587
483774
467246
451009
435078
419518
404526
743360
724524
704376
684433
664769
645386
626285
607468
588939
570697
552742
535074
517694
500603
483802
467297
451101
435244
419808
404992
743358
724523
704377
684434
664769
645386
626285
607469
588940
570698
552745
535079
517703
500618
483830
467347
451191
435402
420074
405408
743355
724523
704378
684435
664770
645386
626285
607469
588941
570700
552747
535083
517711
500632
483856
467394
451275
435547
420316
405775
743351
724522
704379
684437
664771
645387
626286
607470
588942
570701
552750
535088
517718
500646
483880
467438
451352
435679
420532
406094
743344
724521
704382
684439
664773
645387
626286
607471
588943
570703
552752
535092
517725
500658
483902
467477
451420
435795
420718
406366
743336
724520
704385
684442
664774
645387
626286
607471
588944
570704
552754
535095
517731
500669
483921
467511
451479
435894
420874
406592
743326
724520
704389
684446
664775
645388
626287
607472
588945
570706
552756
535098
517736
500678
483937
467539
451527
435974
421000
406772
743313
724521
704394
684449
664777
645389
626287
607473
588945
570707
552757
535100
517740
500685
483949
467561
451564
436035
421094
406906
743296
724521
704399
684453
664778
645390
626288
607473
588946
570707
552758
535102
517743
500689
483958
467575
451589
436076
421157
406994
743270
724518
704400
684454
664779
645390
626288
607473
588946
570707
552758
535102
517744
500692
483962
467583
451601
436097
421189
407037
382883
378496
375149
372256
369573
367020
364558
362165
359824
357526
355262
353027
350816
348626
346453
344296
342152
340018
337894
335780
333674
331578
329491
327413
325343
323281
321226
319179
317140
315108
313084
311068
309061
307063
305075
303096
301126
299165
297212
295267
293330
291399
289474
287555
285641
283733
281830
279934
278044
276160
274282
272410
270543
268681
266824
264973
263129
261291
259461
257637
255818
254006
252199
250396
248599
246809
245024
243248
241480
239719
237965
236218
234478
232745
231018
229298
227584
225877
224178
222487
220804
219129
217463
215805
214154
212509
210870
209237
207609
205987
204370
202757
201149
199544
197944
196347
194754
193165
191581
190001
188427
186860
185299
183746
182201
180665
179137
177618
176107
174605
173109
171622
170142
168668
167202
165741
164288
162840
161400
159967
158540
157121
155709
154306
152908
151520
150136
148763
147393
146032
144674
143323
141975
140632
139293
137959
136629
135304
133984
132670
131361
130059
128762
127472
126187
124909
123638
122372
121113
119859
118612
117370
116134
114904
113680
112461
111249
110043
108843
107650
106463
105284
104112
102949
101793
100646
99504.7
98373.4
97248.8
96133.7
95025
93925.8
92831.9
91748.7
90668.7
89602.4
88534.5
87484.7
86429.4
85393.1
84352.5
83328.2
82300.7
81285.5
80267
79255.8
78239.8
77228.4
76207.4
75187.5
74152.4
73110.6
72046.6
70963.4
69844.7
68687.4
67466.5
66159
64737.7
63024.4
386007
381333
377523
374240
371271
368496
365854
363311
360843
358435
356076
353757
351472
349216
346984
344775
342583
340407
338245
336097
333960
331837
329724
327623
325532
323451
321380
319317
317264
315220
313185
311159
309143
307137
305141
303154
301177
299209
297250
295300
293357
291421
289492
287569
285652
283741
281836
279938
278046
276160
274281
272407
270539
268677
266821
264970
263126
261289
259458
257634
255816
254004
252198
250396
248601
246811
245028
243252
241484
239723
237969
236222
234482
232749
231022
229302
227588
225882
224183
222492
220810
219136
217471
215813
214163
212518
210879
209246
207619
205996
204379
202766
201157
199552
197951
196354
194761
193173
191589
190011
188439
186873
185314
183763
182219
180684
179157
177638
176128
174625
173130
171641
170160
168686
167218
165757
164303
162856
161416
159983
158558
157140
155729
154327
152930
151543
150161
148788
147420
146059
144702
143350
142002
140659
139320
137985
136655
135330
134010
132696
131387
130084
128787
127496
126211
124933
123661
122395
121135
119881
118633
117392
116156
114926
113701
112482
111268
110061
108859
107663
106474
105293
104118
102951
101791
100638
99492.4
98354.7
97223.6
96100.5
94982.9
93874.2
92769.4
91675.2
90582
89502.9
88420.6
87354.4
86284.4
85228.8
84171
83124.7
82077
81036.2
79994
78954.3
77909.4
76864.8
75810.6
74750
73675.2
72582.8
71467
70318
69129.2
67876.6
66566.3
65090.4
63527
61702.8
388175
383538
379550
376035
372852
369893
367094
364416
361830
359319
356869
354469
352113
349793
347505
345244
343006
340788
338590
336408
334241
332090
329953
327829
325718
323619
321530
319453
317387
315330
313285
311249
309224
307210
305206
303212
301228
299253
297288
295332
293383
291443
289509
287583
285663
283749
281842
279941
278047
276160
274279
272404
270535
268673
266817
264966
263123
261286
259455
257631
255814
254002
252197
250396
248602
246814
245032
243257
241489
239728
237974
236228
234487
232754
231027
229307
227594
225888
224189
222499
220817
219144
217480
215823
214172
212528
210890
209257
207630
206007
204390
202777
201167
199562
197961
196364
194771
193184
191602
190025
188455
186891
185334
183784
182242
180708
179182
177664
176154
174651
173155
171666
170184
168708
167239
165777
164323
162876
161436
160005
158580
157164
155754
154353
152958
151571
150191
148818
147451
146089
144732
143380
142032
140688
139348
138013
136682
135357
134036
132721
131412
130108
128811
127520
126235
124956
123684
122417
121156
119902
118655
117413
116177
114948
113723
112502
111288
110078
108874
107676
106484
105300
104122
102951
101788
100630
99479.8
98336.6
97198.5
96067.5
94940.7
93822.6
92706.5
91600.9
90495.2
89401.5
88306.9
87223.3
86139.9
85064.7
83990.9
82921.9
81854.8
80788.8
79723.1
78655.2
77584.2
76505.8
75422.3
74321.9
73211
72070.4
70910.9
69698.2
68463.1
67118.7
65758.9
64191.6
62558.2
60766.6
389826
385312
381273
377630
374298
371194
368263
365466
362774
360168
357634
355159
352735
350354
348010
345700
343417
341160
338925
336711
334515
332337
330176
328030
325899
323782
321678
319586
317507
315439
313383
311338
309304
307281
305269
303268
301278
299297
297325
295363
293409
291464
289526
287596
285673
283756
281847
279944
278048
276159
274277
272401
270532
268669
266813
264963
263119
261283
259453
257629
255812
254001
252196
250397
248604
246817
245037
243263
241496
239735
237982
236235
234495
232761
231034
229313
227600
225894
224196
222506
220825
219153
217489
215832
214182
212539
210901
209268
207642
206020
204402
202788
201179
199573
197972
196376
194785
193198
191618
190044
188476
186914
185359
183811
182271
180738
179213
177695
176185
174681
173185
171694
170211
168734
167264
165801
164347
162899
161460
160029
158606
157190
155782
154382
152988
151602
150224
148851
147484
146122
144764
143411
142062
140717
139376
138040
136708
135381
134060
132744
131434
130130
128833
127541
126256
124977
123705
122437
121177
119923
118676
117435
116199
114969
113744
112522
111306
110094
108887
107686
106491
105304
104123
102949
101782
100620
99465.3
98316.5
97172
96033.2
94897.9
93770.1
92643.3
91525.3
90408.7
89300.2
88194.2
87094
85997
84903.2
83813
82722.6
81635.3
80545
79456.8
78360.6
77266.4
76154.2
75045.1
73904.5
72766.8
71574.5
70389.8
69110.4
67847.7
66433.6
65024.8
63445.6
61801.4
60071.4
391152
386762
382736
379032
375602
372391
369352
366453
363668
360977
358365
355820
353332
350894
348499
346141
343816
341520
339251
337005
334781
332578
330393
328227
326077
323942
321823
319717
317625
315546
313479
311425
309382
307352
305333
303324
301327
299340
297362
295395
293436
291486
289544
287610
285684
283764
281852
279948
278050
276159
274276
272399
270530
268667
266810
264960
263117
261281
259451
257628
255812
254001
252197
250400
248608
246822
245043
243270
241504
239744
237990
236243
234502
232768
231040
229320
227606
225900
224202
222513
220833
219161
217497
215841
214192
212549
210912
209280
207654
206032
204415
202801
201192
199587
197986
196391
194800
193216
191637
190065
188499
186940
185387
183841
182302
180771
179246
177729
176218
174714
173216
171724
170240
168761
167291
165828
164373
162925
161487
160056
158633
157218
155811
154411
153019
151634
150256
148883
147516
146153
144795
143440
142090
140743
139401
138063
136731
135402
134081
132763
131453
130148
128851
127559
126274
124994
123723
122455
121196
119942
118696
117455
116220
114989
113763
112539
111321
110106
108896
107691
106495
105303
104120
102942
101772
100606
99447.3
98293
97142.8
95996.4
94853.6
93715.6
92580
91449.4
90322.8
89200.6
88083.1
86967.2
85856.8
84744.5
83638.2
82525.9
81421
80304.6
79198.8
78071.5
76959.3
75811.6
74683.8
73500.9
72343.2
71104.5
69893.5
68570.1
67267.6
65831.7
64377.9
62824.5
61202.6
59523.7
392269
387986
383991
380261
376770
373479
370356
367372
364507
361740
359059
356450
353903
351411
348967
346565
344200
341868
339565
337290
335039
332812
330605
328418
326250
324099
321964
319845
317741
315651
313575
311511
309460
307422
305395
303380
301376
299383
297400
295427
293464
291509
289563
287625
285696
283774
281860
279953
278054
276162
274278
272400
270530
268666
266810
264960
263117
261281
259452
257630
255814
254004
252201
250404
248613
246829
245050
243278
241512
239753
237999
236251
234510
232775
231046
229325
227610
225904
224207
222518
220838
219167
217504
215849
214200
212558
210922
209291
207666
206045
204428
202815
201206
199602
198002
196407
194818
193235
191659
190089
188525
186968
185418
183873
182336
180805
179281
177763
176252
174747
173248
171755
170269
168790
167319
165855
164399
162952
161513
160082
158661
157246
155839
154439
153048
151662
150285
148912
147544
146180
144821
143465
142113
140765
139422
138082
136749
135419
134096
132777
131466
130161
128864
127572
126288
125008
123737
122470
121211
119958
118713
117470
116236
115004
113777
112551
111332
110113
108901
107692
106492
105297
104111
102929
101757
100587
99424.4
98264.8
97109.7
95955.1
94806.3
93657.6
92514.8
91372.4
90237.2
89101.1
87973.9
86841.1
85719.5
84587.3
83467.2
82332
81212.2
80070.5
78948
77794.5
76662.7
75487.3
74336
73124.8
71936.3
70672.4
69422.9
68083.2
66741
65309.2
63836.5
62307
60711.6
59069.7
393231
389035
385075
381337
377807
374460
371271
368220
365286
362454
359711
357044
354444
351903
349414
346970
344568
342201
339868
337565
335288
333037
330810
328604
326418
324251
322103
319971
317855
315754
313668
311596
309537
307491
305458
303436
301426
299427
297439
295461
293492
291534
289584
287643
285710
283786
281870
279961
278061
276167
274282
272404
270533
268669
266812
264963
263120
261285
259456
257634
255818
254009
252206
250410
248620
246836
245058
243286
241520
239760
238006
236258
234515
232779
231050
229328
227613
225907
224210
222521
220842
219171
217509
215854
214207
212565
210930
209301
207677
206058
204442
202830
201222
199618
198019
196424
194836
193254
191680
190112
188551
186996
185447
183904
182368
180837
179314
177796
176284
174778
173277
171783
170296
168816
167345
165880
164425
162977
161538
160107
158685
157270
155863
154463
153071
151686
150308
148935
147567
146202
144842
143484
142131
140781
139436
138095
136760
135429
134104
132785
131473
130168
128871
127579
126296
125016
123745
122478
121220
119967
118723
117479
116245
115011
113784
112556
111336
110112
108898
107686
106483
105283
104095
102910
101734
100560
99394.8
98230.5
97070.7
95908.9
94753.2
93596.2
92445.4
91293.2
90148.6
89001.7
87863.6
86717.2
85582.1
84434.1
83297.4
82145.1
81005.5
79846.9
78702.2
77532.4
76376.4
75183.8
74004.2
72777.3
71557.6
70279.6
69000.8
67653.8
66288.2
64864.3
63388.6
61872.8
60296.2
58681.3
394071
389944
386017
382280
378728
375341
372102
368995
366005
363117
360319
357601
354953
352367
349837
347355
344918
342519
340157
337827
335527
333254
331007
328783
326580
324399
322237
320092
317965
315855
313759
311679
309612
307559
305519
303491
301475
299471
297478
295495
293522
291560
289607
287662
285727
283801
281882
279972
278070
276175
274289
272410
270538
268674
266817
264968
263125
261290
259461
257639
255823
254014
252211
250415
248625
246841
245063
243291
241525
239764
238010
236260
234517
232781
231051
229328
227614
225908
224211
222522
220844
219173
217512
215858
214211
212570
210936
209308
207686
206069
204455
202844
201237
199634
198035
196440
194853
193272
191699
190132
188573
187020
185473
183931
182396
180866
179342
177824
176312
174804
173302
171807
170319
168839
167367
165902
164446
162999
161560
160128
158705
157289
155881
154480
153088
151702
150324
148950
147581
146215
144853
143494
142140
140788
139442
138100
136763
135431
134105
132785
131474
130168
128872
127581
126297
125019
123747
122480
121222
119969
118725
117479
116245
115011
113782
112553
111331
110105
108888
107673
106466
105263
104071
102884
101704
100528
99358.9
98190.7
97025.2
95858.4
94696.2
93533.3
92373.8
91213.6
90059.5
88903.8
87753.8
86597.7
85447.3
84287.5
83133.3
81967.1
80807.1
79635.4
78470.7
77287.6
76110
74904.8
73701.6
72461.9
71219.3
69930.7
68632.7
67284.3
65905.2
64486.1
63010.4
61501
59938.7
58345.6
394808
390737
386840
383110
379543
376127
372850
369699
366661
363725
360881
358118
355427
352801
350233
347717
345247
342820
340430
338076
335753
333460
331194
328953
326735
324540
322364
320209
318071
315951
313847
311758
309684
307624
305578
303545
301524
299514
297516
295530
293553
291587
289631
287684
285746
283817
281896
279985
278081
276185
274297
272418
270545
268681
266823
264973
263130
261295
259466
257643
255827
254018
252215
250418
248628
246844
245065
243292
241526
239764
238009
236259
234516
232779
231049
229326
227612
225906
224209
222521
220842
219172
217511
215858
214212
212573
210940
209313
207693
206078
204466
202856
201249
199646
198047
196453
194866
193285
191713
190148
188590
187038
185492
183952
182417
180887
179364
177845
176332
174823
173320
171824
170335
168855
167383
165918
164463
163015
161575
160143
158719
157301
155892
154489
153096
151709
150330
148955
147585
146218
144855
143495
142140
140787
139440
138097
136759
135426
134100
132779
131468
130162
128867
127577
126293
125014
123742
122475
121217
119964
118719
117472
116238
115003
113771
112544
111318
110091
108871
107654
106443
105238
104040
102853
101667
100490
99317.3
98147.6
96975
95805.2
94634.7
93468.1
92300.9
91135.2
89971.1
88810.5
87647.2
86485.9
85318.6
84151.2
82979.4
81801.8
80624.5
79440.1
78258.6
77066.5
75870.3
74656.1
73433.6
72183.1
70924
69628.5
68316.6
66968.2
65577.8
64158.5
62683.8
61178.9
59630.6
58056.4
395457
391431
387560
383838
380263
376826
373520
370333
367257
364281
361396
358593
355864
353203
350601
348053
345555
343100
340686
338309
335966
333653
331370
329113
326881
324672
322485
320319
318171
316042
313930
311834
309753
307687
305635
303596
301570
299556
297554
295564
293584
291614
289655
287705
285765
283834
281912
279998
278093
276196
274307
272426
270553
268687
266829
264978
263135
261298
259468
257646
255829
254019
252215
250418
248627
246842
245062
243289
241521
239760
238004
236254
234510
232773
231043
229321
227606
225901
224204
222516
220837
219167
217507
215854
214210
212572
210941
209316
207698
206084
204473
202864
201257
199654
198055
196460
194873
193293
191721
190156
188599
187048
185504
183964
182430
180900
179376
177857
176342
174832
173329
171832
170344
168862
167390
165926
164471
163023
161583
160150
158725
157305
155894
154489
153093
151705
150325
148950
147579
146211
144847
143487
142131
140778
139430
138086
136748
135416
134089
132769
131457
130152
128856
127565
126281
125002
123731
122462
121204
119952
118704
117459
116223
114988
113754
112530
111298
110073
108848
107634
106413
105211
104004
102819
101625
100450
99271
98102.1
96920.2
95751.7
94571.6
93402.9
92226.8
91059.5
89884.9
88724.6
87546.2
86384.3
85200.5
84028.2
82840.6
81651.4
80461.4
79268
78072.8
76873.1
75659.7
74437.1
73199
71939.7
70667.4
69368.2
68042.3
66691.8
65291.6
63869.3
62398.5
60899.8
59365.6
57808.4
396027
392037
388189
384475
380896
377445
374115
370900
367792
364782
361863
359026
356264
353571
350939
348363
345838
343359
340923
338525
336162
333833
331533
329262
327017
324796
322598
320422
318265
316127
314008
311905
309818
307746
305689
303645
301614
299597
297591
295597
293614
291641
289679
287727
285784
283851
281926
280011
278104
276205
274315
272433
270558
268692
266833
264981
263136
261299
259469
257645
255827
254017
252212
250414
248621
246835
245055
243281
241513
239751
237995
236244
234501
232764
231034
229313
227599
225893
224196
222508
220829
219159
217499
215847
214203
212567
210938
209315
207699
206086
204476
202866
201259
199655
198055
196460
194873
193293
191721
190156
188600
187050
185506
183966
182432
180902
179378
177857
176342
174832
173329
171832
170343
168862
167390
165926
164471
163023
161583
160150
158723
157302
155888
154481
153082
151693
150311
148934
147563
146195
144830
143469
142113
140761
139414
138071
136733
135402
134075
132755
131443
130137
128840
127548
126264
124982
123712
122442
121184
119933
118681
117440
116200
114969
113733
112510
111273
110051
108821
107610
106383
105182
103966
102783
101579
100407
99221
98055.1
96862.1
95695.6
94506.4
93340.7
92156.2
90988
89804.1
88646.1
87454.3
86291.2
85094.9
83916.7
82717.5
81516.6
80318.6
79116.4
77907.9
76707.5
75475.9
74248
72994.7
71729.5
70444.2
69141.5
67801.8
66444.9
65039.8
63615.8
62150.8
60659.8
59139.1
57597.2
396526
392566
388737
385031
381449
377987
374640
371402
368267
365229
362281
359415
356625
353904
351246
348645
346096
343596
341139
338722
336343
333997
331683
329399
327142
324910
322702
320516
318352
316207
314080
311971
309878
307801
305739
303691
301656
299634
297625
295628
293642
291667
289702
287747
285802
283866
281940
280022
278114
276213
274322
272438
270562
268694
266834
264981
263135
261297
259465
257640
255822
254010
252205
250405
248612
246826
245045
243270
241502
239740
237983
236233
234490
232753
231024
229303
227589
225884
224186
222497
220818
219148
217488
215836
214193
212559
210932
209310
207695
206081
204471
202860
201253
199648
198048
196452
194866
193285
191713
190147
188591
187041
185497
183958
182423
180893
179368
177848
176333
174824
173321
171824
170335
168854
167382
165918
164463
163015
161575
160141
158713
157290
155874
154465
153064
151672
150288
148910
147538
146169
144805
143444
142089
140738
139392
138050
136714
135382
134055
132736
131423
130117
128819
127525
126241
124958
123686
122415
121159
119906
118653
117415
116174
114947
113710
112488
111248
110027
108795
107584
106352
105151
103930
102746
101536
100361
99172.8
98006.4
96808.8
95638.9
94445.2
93277
92086.7
90918.9
89729.7
88570.7
87370.9
86203.9
84998.6
83816.2
82607.8
81400
80192.5
78982.2
77766.9
76557.4
75312.4
74082.2
72816.1
71546.9
70252
68940.3
67590
66226.8
64820
63397.6
61939
60456
58947.6
57419.2
396960
393023
389210
385511
381929
378458
375097
371841
368685
365624
362652
359762
356947
354202
351521
348898
346329
343808
341334
338900
336505
334146
331819
329523
327255
325013
322797
320603
318431
316279
314146
312031
309933
307851
305785
303733
301694
299669
297657
295657
293668
291690
289722
287765
285818
283880
281951
280032
278121
276219
274326
272440
270563
268694
266832
264978
263131
261291
259459
257633
255813
254001
252194
250394
248601
246814
245033
243258
241489
239727
237971
236221
234478
232742
231014
229293
227580
225874
224176
222486
220806
219135
217475
215823
214181
212547
210921
209300
207684
206070
204459
202847
201239
199634
198033
196437
194851
193269
191697
190130
188574
187023
185480
183940
182406
180875
179350
177830
176316
174807
173306
171809
170321
168839
167368
165903
164449
163000
161560
160125
158697
157271
155854
154443
153041
151646
150260
148879
147506
146136
144773
143413
142059
140709
139365
138023
136689
135356
134031
132711
131398
130092
128792
127497
126212
124928
123656
122383
121128
119875
118623
117385
116148
114920
113683
112462
111223
110000
108771
107556
106322
105114
103894
102702
101492
100312
99123.7
97955.8
96754
95587
94389.3
93217.8
92022.3
90847.7
89656.7
88492.3
87291.3
86121
84910.7
83725
82509
81295.4
80081.7
78866.1
77640.6
76420.8
75173
73934.4
72661.8
71385.6
70084.5
68762.4
67406
66039.4
64633
63213.5
61760.3
60285.2
58787.6
57271.2
397333
393416
389615
385922
382339
378862
375490
372219
369047
365967
362975
360064
357229
354463
351762
349121
346533
343996
341506
339058
336650
334278
331940
329633
327356
325106
322881
320680
318501
316343
314205
312085
309983
307896
305826
303770
301729
299700
297685
295682
293690
291710
289740
287780
285831
283891
281960
280038
278126
276222
274326
272439
270561
268690
266827
264971
263123
261283
259449
257622
255802
253989
252182
250382
248588
246801
245019
243245
241476
239714
237958
236208
234466
232731
231003
229283
227570
225863
224165
222475
220794
219122
217460
215808
214165
212531
210905
209284
207667
206051
204439
202826
201219
199612
198011
196415
194829
193247
191674
190107
188552
187000
185457
183916
182383
180851
179327
177807
176294
174786
173286
171790
170302
168819
167348
165883
164429
162979
161539
160103
158674
157247
155829
154416
153013
151615
150228
148846
147471
146101
144738
143379
142026
140677
139334
137993
136659
135327
134002
132682
131369
130062
128763
127468
126181
124897
123623
122350
121096
119839
118592
117354
116121
114891
113655
112432
111198
109969
108746
107526
106290
105080
103860
102651
101446
100261
99071.3
97902.1
96701.7
95528.9
94335.1
93161
91958.8
90774
89587
88411.9
87214.5
86042.3
84827.1
83639.3
82419
81202.2
79984.2
78763.2
77531.5
76303.5
75051.8
73800.6
72529.3
71241.8
69938.6
68608.6
67250.2
65882.6
64477.8
63060.3
61611.6
60144.1
58655.5
57149.4
397650
393748
389956
386267
382683
379201
375820
372539
369354
366259
363251
360323
357471
354688
351971
349313
346710
344159
341655
339194
336775
334392
332044
329729
327444
325186
322955
320747
318563
316400
314257
312132
310026
307936
305862
303803
301758
299727
297709
295703
293709
291726
289754
287792
285840
283898
281966
280042
278127
276222
274325
272436
270556
268683
266819
264963
263114
261273
259438
257611
255790
253977
252170
250369
248575
246787
245006
243231
241463
239701
237945
236196
234455
232720
230993
229273
227560
225853
224154
222463
220781
219108
217445
215791
214148
212513
210885
209263
207644
206027
204413
202801
201193
199587
197985
196390
194803
193220
191647
190081
188526
186975
185432
183891
182357
180826
179302
177782
176270
174762
173262
171767
170279
168797
167324
165859
164404
162955
161514
160077
158646
157219
155801
154386
152982
151584
150195
148811
147436
146065
144702
143343
141991
140642
139300
137961
136627
135296
133972
132652
131340
130031
128732
127437
126149
124865
123591
122319
121062
119805
118562
117322
116091
114857
113627
112400
111169
109939
108717
107487
106261
105037
103820
102603
101404
100215
99023.1
97844
96647.3
95464.7
94279.7
93096.7
91898.2
90704.7
89524.3
88336.6
87144.6
85961.3
84750.4
83556.5
82337.9
81121.4
79903.3
78677.4
77435.7
76201.2
74945.7
73685.4
72414.2
71117.4
69816.4
68480.7
67122.9
65754.7
64351.4
62935.4
61491
60029.6
58548
57050.9
397912
394022
390236
386548
382963
379478
376092
372803
369607
366501
363480
360539
357672
354876
352145
349474
346858
344295
341780
339309
336880
334488
332133
329810
327518
325254
323017
320804
318615
316447
314300
312172
310062
307969
305892
303830
301782
299749
297728
295720
293724
291739
289764
287801
285847
283903
281968
280043
278127
276219
274321
272431
270550
268676
266811
264954
263105
261263
259428
257600
255780
253965
252158
250357
248563
246775
244994
243219
241450
239688
237933
236185
234443
232709
230983
229263
227550
225843
224143
222451
220769
219095
217431
215776
214130
212494
210863
209239
207618
206000
204384
202773
201164
199559
197957
196363
194774
193193
191619
190056
188499
186949
185405
183866
182331
180801
179276
177757
176245
174738
173237
171742
170253
168772
167298
165834
164377
162930
161487
160051
158619
157192
155772
154358
152953
151555
150164
148780
147402
146032
144667
143309
141955
140608
139265
137928
136595
135266
133942
132622
131309
130002
128702
127407
126119
124835
123560
122292
121033
119779
118534
117292
116060
114825
113597
112365
111139
109905
108686
107449
106222
104988
103781
102560
101366
100171
98976.5
97783.1
96593.6
95406.6
94225.9
93028.5
91844.7
90649.7
89465.5
88272
87083.7
85886.4
84686
83479.5
82267.5
81051.6
79832
78600.3
77356.1
76117
74853.6
73587.7
72316.9
71017.3
69714.7
68378.5
67022.7
65653
64251
62836.1
61395.5
59938.3
58462.1
56972.6
398122
394240
390456
386770
383184
379697
376307
373012
369809
366694
363663
360711
357834
355027
352284
349603
346978
344405
341881
339402
336965
334566
332204
329875
327577
325309
323067
320850
318657
316486
314335
312204
310091
307995
305915
303851
301801
299765
297743
295732
293734
291747
289772
287806
285851
283905
281969
280043
278125
276216
274317
272426
270544
268670
266804
264947
263097
261254
259419
257591
255770
253956
252148
250347
248552
246764
244983
243208
241439
239678
237923
236174
234433
232700
230973
229254
227541
225834
224134
222442
220758
219084
217418
215762
214114
212475
210842
209216
207592
205973
204357
202746
201136
199532
197931
196337
194748
193168
191595
190032
188474
186926
185381
183842
182307
180778
179253
177735
176221
174716
173214
171720
170230
168749
167274
165810
164352
162905
161461
160025
158592
157167
155746
154333
152927
151530
150137
148753
147374
146003
144636
143277
141922
140576
139232
137896
136563
135236
133912
132594
131280
129974
128673
127379
126090
124808
123534
122269
121008
119753
118509
117262
116027
114791
113565
112329
111104
109870
108648
107404
106183
104953
103752
102520
101329
100122
98927.3
97731.4
96545.7
95351.6
94171.3
92972
91794
90596.4
89415.8
88220.1
87030.9
85827
84630.8
83414
82207.9
80989.4
79775.2
78533.9
77292.2
76044
74781.3
73512.1
72238.8
70938.5
69634.9
68301.8
66946.5
65575
64174.2
62759.4
61321.5
59867.3
58395.9
56911.9
398278
394402
390619
386933
383347
379859
376466
373168
369959
366838
363800
360840
357955
355139
352389
349700
347067
344487
341957
339471
337028
334625
332258
329924
327622
325350
323104
320884
318688
316514
314361
312227
310112
308014
305932
303866
301814
299777
297753
295741
293741
291753
289776
287810
285853
283907
281970
280042
278124
276215
274314
272423
270540
268666
266799
264941
263091
261248
259412
257584
255763
253948
252140
250339
248544
246756
244974
243199
241430
239668
237914
236166
234425
232692
230965
229246
227533
225826
224126
222433
220750
219075
217409
215750
214100
212459
210823
209195
207569
205951
204334
202724
201113
199510
197909
196317
194727
193149
191574
190013
188454
186906
185360
183823
182287
180760
179233
177716
176202
174697
173194
171701
170210
168730
167254
165790
164331
162884
161439
160005
158571
157148
155726
154315
152908
151511
150117
148734
147352
145981
144611
143252
141894
140548
139202
137868
136534
135210
133885
132569
131255
129950
128648
127355
126066
124787
123511
122248
120984
119730
118481
117234
115996
114758
113530
112292
111068
109833
108609
107371
106154
104919
103719
102486
101294
100079
98888.6
97688.6
96502.3
95306.8
94127.1
92927.5
91750
90552.9
89375.8
88174.5
86987.9
85781.1
84585.4
83366.1
82163.8
80941.4
79725.6
78479
77246.2
75986.2
74726.9
73454.1
72179.9
70885.2
69577.2
68248.3
66891.5
65519.7
64118.5
62703.7
61268.1
59815.8
58347.6
56867.2
398378
394506
390727
387043
383457
379967
376573
373271
370059
366934
363891
360926
358036
355215
352459
349765
347127
344542
342007
339518
337071
334664
332293
329957
327652
325377
323129
320907
318709
316533
314378
312242
310125
308026
305943
303876
301823
299784
297759
295747
293746
291757
289779
287812
285855
283908
281970
280042
278123
276213
274313
272421
270538
268663
266796
264938
263087
261244
259408
257579
255758
253943
252134
250332
248537
246749
244967
243192
241423
239661
237906
236159
234418
232685
230958
229239
227526
225819
224120
222428
220744
219069
217401
215742
214091
212448
210809
209179
207551
205934
204316
202707
201096
199495