/*--------------------------------*- C++ -*----------------------------------*\
| =========                 |                                                 |
| \\      /  F ield         | OpenFOAM: The Open Source CFD Toolbox           |
|  \\    /   O peration     | Version:  2.4.0                                 |
|   \\  /    A nd           | Web:      www.OpenFOAM.org                      |
|    \\/     M anipulation  |                                                 |
\*---------------------------------------------------------------------------*/
FoamFile
{
    version     2.0;
    format      ascii;
    class       volVectorField;
    location    "0.87";
    object      U_0;
}
// * * * * * * * * * * * * * * * * * * * * * * * * * * * * * * * * * * * * * //

dimensions      [0 1 -1 0 0 0 0];

internalField   nonuniform List<vector> 
8800
(
(8.09181 0.38799 0)
(5.44938 0.242513 0)
(3.91132 0.042922 0)
(3.15701 -0.0154817 0)
(2.80088 -0.0182145 0)
(2.59931 -0.0111578 0)
(2.48407 -0.00555495 0)
(2.3793 -0.00209397 0)
(2.32079 -0.00210673 0)
(2.24926 -0.000105222 0)
(2.21808 -0.000797148 0)
(2.16528 -0.000192744 0)
(2.14698 -0.000151597 0)
(2.10173 0.00028043 0)
(2.07957 0.000631939 0)
(2.03967 0.000602997 0)
(2.00762 0.000875044 0)
(1.96917 3.69839e-05 0)
(1.94734 0.00812768 0)
(1.73887 -0.0588313 0)
(10.0849 0.838576 0)
(9.65715 0.867622 0)
(8.87136 0.507007 0)
(8.08313 0.261721 0)
(7.49192 0.137931 0)
(7.01019 0.0818411 0)
(6.69571 0.0545545 0)
(6.39825 0.0412868 0)
(6.23061 0.0281517 0)
(6.01931 0.0260444 0)
(5.93222 0.0180264 0)
(5.77526 0.0173052 0)
(5.72534 0.0143903 0)
(5.59965 0.0163659 0)
(5.55133 0.0149223 0)
(5.44977 0.0165982 0)
(5.38486 0.0187167 0)
(5.29192 0.0133449 0)
(5.23585 0.0286706 0)
(5.0712 -0.0454415 0)
(10.0634 0.632132 0)
(10.6588 0.863017 0)
(10.8673 0.601236 0)
(10.6925 0.373464 0)
(10.4536 0.255339 0)
(10.0919 0.1963 0)
(9.8352 0.154296 0)
(9.49527 0.123625 0)
(9.32105 0.0917026 0)
(9.02876 0.0798159 0)
(8.93285 0.0574673 0)
(8.69608 0.0522181 0)
(8.64433 0.041937 0)
(8.44986 0.0428646 0)
(8.40787 0.0383158 0)
(8.2446 0.0386541 0)
(8.19163 0.0437668 0)
(8.04135 0.0370197 0)
(7.97432 0.0501338 0)
(7.82558 -0.0482753 0)
(10.0024 0.457622 0)
(10.5684 0.705214 0)
(11.1655 0.546957 0)
(11.3811 0.352817 0)
(11.549 0.259874 0)
(11.4681 0.226467 0)
(11.4887 0.202322 0)
(11.3013 0.177249 0)
(11.3031 0.144164 0)
(11.0733 0.131931 0)
(11.0879 0.102379 0)
(10.8564 0.0944014 0)
(10.878 0.0782681 0)
(10.6588 0.0783325 0)
(10.6837 0.0678476 0)
(10.4716 0.0717728 0)
(10.4835 0.0637709 0)
(10.287 0.0854496 0)
(10.2636 0.0508793 0)
(10.0275 0.0821232 0)
(10.0478 0.347665 0)
(10.4024 0.566147 0)
(11.0385 0.459942 0)
(11.3152 0.296921 0)
(11.6484 0.208459 0)
(11.6798 0.190405 0)
(11.8865 0.180283 0)
(11.8174 0.170631 0)
(11.9957 0.140794 0)
(11.8824 0.142143 0)
(12.0504 0.106715 0)
(11.9151 0.110934 0)
(12.0588 0.0867218 0)
(11.9011 0.0986762 0)
(12.0404 0.0782311 0)
(11.8792 0.0983689 0)
(11.95 0.0696321 0)
(11.8245 0.113798 0)
(11.8739 0.0655407 0)
(11.6097 0.136308 0)
(10.0518 0.252721 0)
(10.3337 0.456648 0)
(10.8745 0.376256 0)
(11.1938 0.247751 0)
(11.5225 0.161515 0)
(11.6128 0.146345 0)
(11.8151 0.148754 0)
(11.8207 0.141289 0)
(11.9969 0.116593 0)
(11.9917 0.119852 0)
(12.1538 0.0891934 0)
(12.1496 0.0932569 0)
(12.2965 0.0810889 0)
(12.2559 0.0808052 0)
(12.4103 0.0746054 0)
(12.3983 0.0893429 0)
(12.4412 0.0722467 0)
(12.4776 0.0924613 0)
(12.5221 0.0655368 0)
(12.3576 0.0663599 0)
(10.0276 0.173753 0)
(10.2997 0.354605 0)
(10.75 0.288785 0)
(11.1165 0.20561 0)
(11.3901 0.122424 0)
(11.5369 0.107446 0)
(11.6962 0.111164 0)
(11.7783 0.11415 0)
(11.8667 0.0860615 0)
(11.9482 0.101742 0)
(12.0293 0.0619199 0)
(12.1476 0.0739165 0)
(12.2078 0.0616693 0)
(12.2507 0.0649526 0)
(12.3685 0.0475163 0)
(12.4099 0.076003 0)
(12.4754 0.0560037 0)
(12.525 0.0529927 0)
(12.5835 0.0617421 0)
(12.4167 0.0230281 0)
(10.0171 0.112588 0)
(10.2535 0.255706 0)
(10.6824 0.202483 0)
(11.0124 0.15281 0)
(11.3173 0.0905272 0)
(11.5064 0.0698108 0)
(11.6209 0.0763174 0)
(11.7057 0.0839768 0)
(11.8074 0.062255 0)
(11.8753 0.0727448 0)
(11.9552 0.0375019 0)
(12.0675 0.0462355 0)
(12.1432 0.0589432 0)
(12.1934 0.03412 0)
(12.266 0.0397377 0)
(12.3742 0.0506836 0)
(12.3828 0.0322531 0)
(12.5576 0.0418118 0)
(12.3834 0.0137414 0)
(12.4101 0.00984635 0)
(9.99314 0.063505 0)
(10.2482 0.148961 0)
(10.6232 0.128038 0)
(10.9925 0.0945941 0)
(11.2559 0.0452966 0)
(11.4691 0.0376796 0)
(11.5673 0.0540336 0)
(11.6968 0.0462099 0)
(11.7457 0.0364745 0)
(11.8195 0.055645 0)
(11.9321 0.0138214 0)
(11.9954 0.0242568 0)
(12.1011 0.0363646 0)
(12.1496 0.0290275 0)
(12.2344 0.00603947 0)
(12.3254 0.0310415 0)
(12.333 0.00400718 0)
(12.4617 0.00959158 0)
(12.4575 0.0512992 0)
(12.3061 -0.100274 0)
(10.0171 0.0195957 0)
(10.2074 0.0520214 0)
(10.598 0.037426 0)
(10.9765 0.0343306 0)
(11.2549 0.0221624 0)
(11.4239 0.00595371 0)
(11.5567 0.0134696 0)
(11.6602 0.0174353 0)
(11.7114 0.0207797 0)
(11.8077 0.0160627 0)
(11.936 -0.0048416 0)
(11.951 0.000698511 0)
(12.0852 0.0284261 0)
(12.1333 -0.00574876 0)
(12.2599 0.0003957 0)
(12.2463 0.0127711 0)
(12.3594 -0.0172919 0)
(12.3653 -0.0156683 0)
(12.4496 -0.0164221 0)
(12.3936 -0.00302213 0)
(9.9965 -0.0214183 0)
(10.2362 -0.0455506 0)
(10.6059 -0.0446639 0)
(10.945 -0.0317583 0)
(11.2436 -0.0140587 0)
(11.438 -0.0203697 0)
(11.5725 -0.0125218 0)
(11.6388 -0.0157091 0)
(11.7407 -0.011944 0)
(11.8214 -0.00998567 0)
(11.923 -0.0234003 0)
(11.9426 -0.0122011 0)
(12.067 -0.00424876 0)
(12.1953 -0.0180508 0)
(12.1527 -0.0212299 0)
(12.3266 -0.00901198 0)
(12.3094 -0.0357653 0)
(12.4113 -0.0491471 0)
(12.3976 0.000389339 0)
(12.3235 -0.0653678 0)
(9.99083 -0.0669939 0)
(10.2465 -0.148634 0)
(10.6076 -0.122296 0)
(11.0061 -0.0864728 0)
(11.2675 -0.049135 0)
(11.481 -0.059191 0)
(11.55 -0.0437313 0)
(11.6718 -0.04676 0)
(11.7436 -0.0383272 0)
(11.8546 -0.0389205 0)
(11.9379 -0.0349166 0)
(11.9631 -0.0359003 0)
(12.1325 -0.0293144 0)
(12.141 -0.0309492 0)
(12.2304 -0.03315 0)
(12.299 -0.0368028 0)
(12.3817 -0.0565797 0)
(12.379 -0.0627041 0)
(12.4268 -0.0566611 0)
(12.4518 -0.0476604 0)
(10.0119 -0.114246 0)
(10.2571 -0.246122 0)
(10.6632 -0.211258 0)
(11.0428 -0.157643 0)
(11.3279 -0.0820583 0)
(11.4989 -0.0765728 0)
(11.5989 -0.067745 0)
(11.7172 -0.0860575 0)
(11.7841 -0.0661204 0)
(11.9046 -0.0695167 0)
(11.9567 -0.0498637 0)
(12.0505 -0.0617257 0)
(12.133 -0.0426341 0)
(12.2002 -0.0477096 0)
(12.2749 -0.0570237 0)
(12.3491 -0.0614876 0)
(12.4095 -0.0686355 0)
(12.4603 -0.0932686 0)
(12.4673 -0.0744762 0)
(12.4308 -0.0840051 0)
(10.0231 -0.176382 0)
(10.2912 -0.350128 0)
(10.7682 -0.29239 0)
(11.1068 -0.203381 0)
(11.3867 -0.117685 0)
(11.5476 -0.118173 0)
(11.7027 -0.106553 0)
(11.7579 -0.113583 0)
(11.8741 -0.0932373 0)
(11.9587 -0.0929116 0)
(12.0444 -0.0697595 0)
(12.1101 -0.083715 0)
(12.2015 -0.0589631 0)
(12.2724 -0.0728239 0)
(12.3429 -0.0669525 0)
(12.3992 -0.0832963 0)
(12.4823 -0.0920247 0)
(12.5049 -0.115011 0)
(12.5399 -0.10169 0)
(12.491 -0.103706 0)
(10.0653 -0.251268 0)
(10.3103 -0.45378 0)
(10.9046 -0.382309 0)
(11.1786 -0.248329 0)
(11.5305 -0.157972 0)
(11.6076 -0.156071 0)
(11.8129 -0.133791 0)
(11.8163 -0.145121 0)
(11.9981 -0.124059 0)
(12.0022 -0.120154 0)
(12.147 -0.0890552 0)
(12.1403 -0.104677 0)
(12.279 -0.0775786 0)
(12.2754 -0.0924685 0)
(12.3788 -0.0814202 0)
(12.3821 -0.109857 0)
(12.4635 -0.10071 0)
(12.4214 -0.140421 0)
(12.4596 -0.121787 0)
(12.367 -0.142898 0)
(10.0608 -0.34791 0)
(10.3923 -0.565001 0)
(11.0633 -0.466058 0)
(11.2831 -0.289964 0)
(11.6685 -0.208024 0)
(11.6629 -0.195773 0)
(11.897 -0.175532 0)
(11.8122 -0.171673 0)
(12.0036 -0.151028 0)
(11.8822 -0.134854 0)
(12.0441 -0.108395 0)
(11.9028 -0.116638 0)
(12.0508 -0.0926653 0)
(11.903 -0.101759 0)
(12.0122 -0.0901436 0)
(11.8616 -0.114561 0)
(11.9336 -0.100942 0)
(11.7483 -0.144489 0)
(11.7692 -0.125998 0)
(11.5453 -0.163252 0)
(10.0135 -0.457388 0)
(10.5594 -0.705075 0)
(11.1772 -0.548054 0)
(11.3574 -0.350109 0)
(11.5765 -0.261801 0)
(11.4422 -0.230792 0)
(11.5117 -0.196835 0)
(11.2841 -0.177631 0)
(11.315 -0.15144 0)
(11.0538 -0.127862 0)
(11.1028 -0.102337 0)
(10.8251 -0.101311 0)
(10.8939 -0.0813575 0)
(10.6205 -0.0839049 0)
(10.6865 -0.0729153 0)
(10.4096 -0.0934738 0)
(10.465 -0.077053 0)
(10.1607 -0.122151 0)
(10.1757 -0.0969443 0)
(9.83073 -0.156537 0)
(10.0662 -0.632248 0)
(10.6558 -0.862776 0)
(10.8715 -0.602282 0)
(10.6838 -0.372309 0)
(10.4695 -0.255593 0)
(10.0712 -0.198143 0)
(9.85397 -0.152098 0)
(9.47968 -0.123316 0)
(9.33004 -0.0969272 0)
(9.00927 -0.0769794 0)
(8.95096 -0.0575086 0)
(8.65983 -0.0564738 0)
(8.66507 -0.0452713 0)
(8.39461 -0.0458608 0)
(8.42542 -0.04252 0)
(8.15102 -0.0541948 0)
(8.18622 -0.0498324 0)
(7.87941 -0.0740439 0)
(7.88233 -0.0709026 0)
(7.53126 -0.0837286 0)
(10.0855 -0.838545 0)
(9.65644 -0.867585 0)
(8.87264 -0.507205 0)
(8.07975 -0.261339 0)
(7.49942 -0.137788 0)
(6.99798 -0.0833958 0)
(6.70663 -0.0533843 0)
(6.38844 -0.040506 0)
(6.23523 -0.0312115 0)
(6.00502 -0.0250355 0)
(5.94344 -0.0171922 0)
(5.74857 -0.0201479 0)
(5.73632 -0.0161409 0)
(5.55277 -0.0179559 0)
(5.56069 -0.0171311 0)
(5.36587 -0.0249892 0)
(5.37142 -0.0226607 0)
(5.14274 -0.0349674 0)
(5.12852 -0.0377817 0)
(4.83831 -0.0161423 0)
(8.09163 -0.38801 0)
(5.44949 -0.242473 0)
(3.91136 -0.0429893 0)
(3.15616 0.0154693 0)
(2.80303 0.0184129 0)
(2.59537 0.010672 0)
(2.48632 0.0058973 0)
(2.3768 0.00244428 0)
(2.322 0.00119351 0)
(2.24196 0.000339113 0)
(2.22037 0.00136128 0)
(2.15557 -0.00061195 0)
(2.1452 2.58492e-05 0)
(2.07946 -0.00078138 0)
(2.07478 -0.000499884 0)
(1.99796 -0.00268231 0)
(1.98366 -0.00112864 0)
(1.88868 -0.00426098 0)
(1.84897 -0.00371751 0)
(1.7058 0.0117304 0)
(2.19508 -0.13673 0)
(2.32084 -0.0749373 0)
(2.44722 -0.0618825 0)
(2.56273 -0.0727039 0)
(2.69325 -0.082617 0)
(2.80195 -0.0744278 0)
(2.90243 -0.0583801 0)
(2.98066 -0.0319408 0)
(3.03972 -0.0143198 0)
(3.09803 -0.0024483 0)
(3.14349 0.00353004 0)
(3.19633 0.0029136 0)
(3.2396 0.00313163 0)
(3.29442 -0.00171863 0)
(3.33923 -0.00405728 0)
(3.3976 -0.0105088 0)
(3.44606 -0.0190519 0)
(3.50146 -0.0227203 0)
(3.54386 -0.0226346 0)
(3.58479 -0.0117839 0)
(3.62957 -0.00165237 0)
(3.67723 0.00324318 0)
(3.73156 0.00203277 0)
(3.78599 0.00076295 0)
(3.83284 -0.00952571 0)
(3.89266 -0.0287744 0)
(3.94402 -0.064187 0)
(3.99244 -0.0855561 0)
(4.04118 -0.121724 0)
(4.06114 -0.138805 0)
(4.09501 -0.146783 0)
(4.09956 -0.153007 0)
(4.11731 -0.137181 0)
(4.1235 -0.117203 0)
(4.1528 -0.0956612 0)
(4.17419 -0.0728024 0)
(4.21163 -0.0593487 0)
(4.25328 -0.049218 0)
(4.29906 -0.0350891 0)
(4.33517 -0.017524 0)
(4.37033 -0.00785841 0)
(4.42067 -0.0194764 0)
(4.47013 -0.0426199 0)
(4.52792 -0.0683328 0)
(4.55702 -0.0970505 0)
(4.60109 -0.120956 0)
(4.60975 -0.142547 0)
(4.63014 -0.171016 0)
(4.62471 -0.185589 0)
(4.61946 -0.213093 0)
(4.60277 -0.226081 0)
(4.55145 -0.235836 0)
(4.52368 -0.235434 0)
(4.41374 -0.208186 0)
(4.36763 -0.16232 0)
(4.23703 -0.0718078 0)
(4.20621 0.0406217 0)
(4.08078 0.193936 0)
(4.14135 0.316381 0)
(4.12366 0.420915 0)
(4.34706 0.550183 0)
(4.53252 0.633013 0)
(4.94433 0.602558 0)
(5.14442 0.615083 0)
(5.51959 0.565956 0)
(5.69049 0.459707 0)
(5.96709 0.323738 0)
(6.08013 0.215869 0)
(6.27527 0.0327038 0)
(6.19888 -0.121082 0)
(6.3018 -0.246662 0)
(6.15518 -0.366218 0)
(6.2441 -0.467215 0)
(6.08988 -0.477325 0)
(6.24616 -0.534542 0)
(6.17328 -0.557353 0)
(6.27448 -0.548987 0)
(6.36237 -0.515923 0)
(6.50899 -0.563624 0)
(6.74177 -0.498721 0)
(6.85023 -0.53907 0)
(7.15462 -0.584796 0)
(7.36169 -0.518713 0)
(7.61122 -0.651282 0)
(7.84516 -0.702217 0)
(8.05729 -0.687898 0)
(8.27512 -0.826498 0)
(8.56684 -0.897864 0)
(8.77533 -0.954887 0)
(8.93611 -1.05285 0)
(9.18803 -1.10157 0)
(9.47406 -1.16727 0)
(9.56271 -1.25447 0)
(9.84076 -1.3149 0)
(10.02 -1.31177 0)
(10.2995 -1.39885 0)
(10.4255 -1.44172 0)
(10.6886 -1.47338 0)
(10.9629 -1.55026 0)
(11.0474 -1.54598 0)
(11.3703 -1.64426 0)
(11.4897 -1.68281 0)
(11.7102 -1.67279 0)
(11.884 -1.78226 0)
(12.0663 -1.76619 0)
(12.2102 -1.83572 0)
(12.4056 -1.85404 0)
(12.5028 -1.85756 0)
(12.7022 -1.82058 0)
(12.7791 -1.87051 0)
(12.983 -1.78484 0)
(13.0629 -1.78545 0)
(13.2323 -1.7846 0)
(13.3269 -1.73936 0)
(13.5287 -1.65327 0)
(13.5574 -1.68487 0)
(13.8157 -1.5357 0)
(13.8152 -1.51022 0)
(14.0216 -1.41153 0)
(14.041 -1.32247 0)
(14.1973 -1.22639 0)
(14.1866 -1.20507 0)
(14.31 -1.03467 0)
(14.2671 -1.06828 0)
(14.3478 -0.958091 0)
(14.2801 -0.923349 0)
(14.3468 -0.936438 0)
(14.2635 -0.889185 0)
(14.2546 -0.857782 0)
(14.1599 -0.934853 0)
(14.1317 -0.773476 0)
(13.9976 -0.91923 0)
(13.9747 -0.737707 0)
(13.8354 -0.853098 0)
(13.8609 -0.696573 0)
(13.7034 -0.779995 0)
(13.8065 -0.649947 0)
(13.6131 -0.659096 0)
(13.7198 -0.571476 0)
(13.5093 -0.548359 0)
(13.5771 -0.448185 0)
(13.3535 -0.426396 0)
(13.3902 -0.29216 0)
(13.1464 -0.307191 0)
(13.1498 -0.153507 0)
(13.0221 -0.130171 0)
(12.8746 -0.010434 0)
(12.8383 0.0314882 0)
(12.5828 0.149126 0)
(12.5777 0.161421 0)
(12.1846 0.198059 0)
(12.082 0.234104 0)
(11.7438 0.220165 0)
(11.4722 0.128312 0)
(11.14 0.184442 0)
(10.9721 0.0658479 0)
(10.361 -0.0352253 0)
(10.5186 -0.0667395 0)
(9.60202 -0.0823655 0)
(9.94498 -0.397989 0)
(8.96213 -0.374598 0)
(9.03509 -0.364544 0)
(8.18751 -0.451136 0)
(8.36766 -0.931166 0)
(7.51999 -0.49664 0)
(7.44337 -0.237856 0)
(7.06913 -0.378562 0)
(7.24711 -0.581433 0)
(6.69654 -1.27843 0)
(7.13693 0.00931839 0)
(5.85774 -1.15679 0)
(7.69885 -0.27469 0)
(5.92992 -0.465396 0)
(6.64056 0.0236825 0)
(6.31303 -0.604526 0)
(6.76799 -1.33392 0)
(7.04977 -2.38349 0)
(7.5757 -4.2339 0)
(8.15023 -5.47589 0)
(8.73317 -5.66953 0)
(8.58883 -5.33057 0)
(8.44578 -5.48702 0)
(8.57687 -5.34639 0)
(8.47089 -4.63504 0)
(8.51553 -3.61747 0)
(8.35826 -2.49092 0)
(8.3116 -0.590502 0)
(8.20817 1.8332 0)
(8.06002 3.87335 0)
(8.04755 5.58101 0)
(7.8744 7.4713 0)
(7.90686 9.5049 0)
(7.46328 10.6219 0)
(7.24858 11.3318 0)
(7.08572 11.7154 0)
(6.52578 11.7316 0)
(6.09039 11.9152 0)
(6.09437 12.1759 0)
(5.81635 13.2479 0)
(3.38482 15.5714 0)
(5.19043 -0.0788701 0)
(5.22391 -0.0594512 0)
(5.25388 -0.0700276 0)
(5.30994 -0.0978562 0)
(5.38729 -0.121377 0)
(5.47441 -0.125634 0)
(5.54059 -0.109305 0)
(5.59517 -0.0771209 0)
(5.62627 -0.0542186 0)
(5.65187 -0.037641 0)
(5.67082 -0.0317036 0)
(5.69239 -0.0335687 0)
(5.71397 -0.031636 0)
(5.74348 -0.0400318 0)
(5.77082 -0.042491 0)
(5.80751 -0.0475602 0)
(5.8403 -0.0563971 0)
(5.87531 -0.0544409 0)
(5.91319 -0.0562251 0)
(5.94237 -0.0489932 0)
(5.98043 -0.0395792 0)
(6.00886 -0.0390896 0)
(6.04978 -0.0332668 0)
(6.08165 -0.0447437 0)
(6.11973 -0.0519542 0)
(6.15141 -0.0690138 0)
(6.19189 -0.0941039 0)
(6.22479 -0.112517 0)
(6.25626 -0.141209 0)
(6.28347 -0.150404 0)
(6.30314 -0.163449 0)
(6.32092 -0.161891 0)
(6.33123 -0.150754 0)
(6.35084 -0.135246 0)
(6.35809 -0.115758 0)
(6.39394 -0.0989144 0)
(6.40138 -0.0839968 0)
(6.44877 -0.0728747 0)
(6.46558 -0.0616649 0)
(6.51674 -0.0600645 0)
(6.5283 -0.047198 0)
(6.58291 -0.0575516 0)
(6.59695 -0.0675098 0)
(6.65801 -0.0848493 0)
(6.66038 -0.109114 0)
(6.71158 -0.128606 0)
(6.69628 -0.145065 0)
(6.73455 -0.16502 0)
(6.69548 -0.177226 0)
(6.71887 -0.189355 0)
(6.66385 -0.195676 0)
(6.64717 -0.197198 0)
(6.59096 -0.178767 0)
(6.53308 -0.153636 0)
(6.45163 -0.0931225 0)
(6.4028 -0.0162317 0)
(6.31958 0.0764798 0)
(6.2581 0.195248 0)
(6.25719 0.305148 0)
(6.25102 0.388477 0)
(6.28466 0.48194 0)
(6.3962 0.518937 0)
(6.55302 0.501889 0)
(6.66289 0.490097 0)
(6.86346 0.41639 0)
(6.99531 0.336148 0)
(7.16384 0.261249 0)
(7.26541 0.119393 0)
(7.46094 -0.0168961 0)
(7.42572 -0.127115 0)
(7.59758 -0.27838 0)
(7.57688 -0.38132 0)
(7.71504 -0.469216 0)
(7.73069 -0.528434 0)
(7.87039 -0.605343 0)
(7.96382 -0.64324 0)
(8.03529 -0.657339 0)
(8.26222 -0.664398 0)
(8.34556 -0.695158 0)
(8.57073 -0.719643 0)
(8.78174 -0.68345 0)
(8.95773 -0.753344 0)
(9.23839 -0.790805 0)
(9.41831 -0.793419 0)
(9.61211 -0.883201 0)
(9.87298 -0.917996 0)
(10.0731 -0.979778 0)
(10.2472 -1.06014 0)
(10.4936 -1.14344 0)
(10.6319 -1.18652 0)
(10.8336 -1.25429 0)
(11.0473 -1.36634 0)
(11.1241 -1.37007 0)
(11.4173 -1.45252 0)
(11.4775 -1.46824 0)
(11.7117 -1.56729 0)
(11.7956 -1.57839 0)
(12.0207 -1.60094 0)
(12.1037 -1.68913 0)
(12.2789 -1.70408 0)
(12.3798 -1.75214 0)
(12.5572 -1.8207 0)
(12.5992 -1.80705 0)
(12.7519 -1.89759 0)
(12.8036 -1.86971 0)
(12.9032 -1.90939 0)
(12.9835 -1.94044 0)
(13.064 -1.93479 0)
(13.125 -1.91347 0)
(13.2019 -1.95335 0)
(13.2464 -1.85467 0)
(13.3077 -1.88892 0)
(13.3799 -1.86386 0)
(13.4381 -1.80312 0)
(13.5675 -1.72428 0)
(13.5876 -1.76607 0)
(13.7604 -1.53925 0)
(13.7786 -1.60281 0)
(13.9151 -1.40674 0)
(13.9174 -1.38914 0)
(14.0538 -1.22754 0)
(14.0014 -1.25437 0)
(14.133 -1.0316 0)
(14.0594 -1.10738 0)
(14.1217 -0.925445 0)
(14.0069 -0.919212 0)
(14.1039 -0.883983 0)
(13.9551 -0.851614 0)
(13.9659 -0.785661 0)
(13.8858 -0.866807 0)
(13.8057 -0.685885 0)
(13.7007 -0.832438 0)
(13.6455 -0.685624 0)
(13.5663 -0.774184 0)
(13.4892 -0.673748 0)
(13.5052 -0.769841 0)
(13.4401 -0.623765 0)
(13.4281 -0.671897 0)
(13.4212 -0.544848 0)
(13.3224 -0.504183 0)
(13.2944 -0.364302 0)
(13.2498 -0.363157 0)
(13.0768 -0.158258 0)
(13.0785 -0.199212 0)
(12.8888 -0.0399994 0)
(12.9111 -0.000967149 0)
(12.6039 0.093563 0)
(12.7243 0.133814 0)
(12.2402 0.301161 0)
(12.4871 0.2612 0)
(11.7843 0.440643 0)
(12.0757 0.3533 0)
(11.2335 0.51512 0)
(11.5355 0.405804 0)
(10.5023 0.426366 0)
(10.9545 0.390537 0)
(9.75433 0.229344 0)
(10.3364 0.232908 0)
(9.0442 0.21983 0)
(9.6145 -0.0784668 0)
(8.52627 -0.0542429 0)
(8.60341 0.0404413 0)
(7.74307 -0.432826 0)
(8.03394 -0.4758 0)
(6.86845 -0.304272 0)
(7.45907 -0.022212 0)
(6.69906 -0.382462 0)
(6.97849 -0.448923 0)
(6.56108 -1.0472 0)
(6.72174 0.23166 0)
(6.03441 -1.63875 0)
(7.34685 0.306131 0)
(5.50401 -0.625333 0)
(6.58608 0.143731 0)
(6.05252 -0.917828 0)
(6.63197 -1.65827 0)
(7.25712 -2.8703 0)
(7.75036 -4.60908 0)
(8.16205 -5.96186 0)
(8.60171 -5.67369 0)
(8.33214 -5.29701 0)
(8.24053 -5.35952 0)
(8.19608 -5.3349 0)
(8.16531 -4.66439 0)
(8.19198 -3.56655 0)
(8.1314 -2.39995 0)
(7.99334 -0.518202 0)
(7.87366 1.92211 0)
(7.77894 3.8847 0)
(7.74311 5.69174 0)
(7.67754 7.47843 0)
(7.65504 9.63334 0)
(7.63985 11.0625 0)
(7.22934 11.5483 0)
(7.11482 12.0618 0)
(6.93602 12.2944 0)
(6.53797 12.3166 0)
(6.34572 12.4189 0)
(7.56169 13.1058 0)
(5.64644 16.785 0)
(7.85476 -0.0989237 0)
(7.85848 -0.106369 0)
(7.86674 -0.130944 0)
(7.91298 -0.159375 0)
(7.9675 -0.162541 0)
(8.03229 -0.147638 0)
(8.07848 -0.125444 0)
(8.1169 -0.0891413 0)
(8.14976 -0.0659409 0)
(8.15947 -0.0415307 0)
(8.18213 -0.028766 0)
(8.18178 -0.036776 0)
(8.19298 -0.0314645 0)
(8.19968 -0.0502591 0)
(8.20684 -0.0554409 0)
(8.22582 -0.0626186 0)
(8.24436 -0.0773029 0)
(8.26566 -0.0715051 0)
(8.29874 -0.0790815 0)
(8.31942 -0.0711102 0)
(8.35304 -0.0650232 0)
(8.37585 -0.0645817 0)
(8.40082 -0.0600489 0)
(8.42789 -0.066618 0)
(8.44437 -0.0766457 0)
(8.47151 -0.0860658 0)
(8.48429 -0.11101 0)
(8.51232 -0.122418 0)
(8.52615 -0.147726 0)
(8.54199 -0.158167 0)
(8.5621 -0.166488 0)
(8.56198 -0.173568 0)
(8.5829 -0.155401 0)
(8.58373 -0.15716 0)
(8.5967 -0.132371 0)
(8.61327 -0.118493 0)
(8.62108 -0.110909 0)
(8.65114 -0.0895262 0)
(8.65617 -0.0904176 0)
(8.70183 -0.0825666 0)
(8.69402 -0.0759695 0)
(8.7534 -0.0855195 0)
(8.73566 -0.0899645 0)
(8.79757 -0.100841 0)
(8.7761 -0.123518 0)
(8.82423 -0.136211 0)
(8.79789 -0.148297 0)
(8.82775 -0.169562 0)
(8.78659 -0.164649 0)
(8.80008 -0.180667 0)
(8.74194 -0.169403 0)
(8.74055 -0.162589 0)
(8.65457 -0.140295 0)
(8.65698 -0.0972044 0)
(8.53714 -0.0462903 0)
(8.54502 0.0226535 0)
(8.44562 0.124549 0)
(8.43482 0.195666 0)
(8.37936 0.301963 0)
(8.43762 0.374326 0)
(8.38614 0.425842 0)
(8.51823 0.45835 0)
(8.56404 0.46047 0)
(8.65679 0.396978 0)
(8.78616 0.354833 0)
(8.87839 0.274654 0)
(8.97932 0.152717 0)
(9.08367 0.0482134 0)
(9.21848 -0.0869799 0)
(9.23035 -0.219185 0)
(9.37988 -0.344925 0)
(9.4375 -0.429602 0)
(9.51123 -0.559447 0)
(9.61858 -0.620302 0)
(9.7164 -0.672275 0)
(9.84656 -0.777669 0)
(9.87727 -0.751783 0)
(10.1339 -0.81718 0)
(10.1861 -0.836079 0)
(10.3377 -0.851877 0)
(10.5711 -0.870362 0)
(10.6835 -0.903884 0)
(10.8907 -0.957697 0)
(11.0686 -0.973254 0)
(11.2058 -1.02449 0)
(11.3875 -1.08444 0)
(11.5854 -1.14197 0)
(11.6246 -1.19308 0)
(11.917 -1.269 0)
(11.9232 -1.32239 0)
(12.1119 -1.37583 0)
(12.2165 -1.46911 0)
(12.3232 -1.46608 0)
(12.4322 -1.54952 0)
(12.4908 -1.60437 0)
(12.6334 -1.62507 0)
(12.6603 -1.67443 0)
(12.7859 -1.70907 0)
(12.7817 -1.75966 0)
(12.9149 -1.77664 0)
(12.8891 -1.81406 0)
(12.9849 -1.87185 0)
(12.9678 -1.87203 0)
(13.0298 -1.94967 0)
(13.0311 -1.93747 0)
(13.0225 -1.9364 0)
(13.0336 -1.9655 0)
(13.0734 -1.94351 0)
(13.0536 -1.94151 0)
(13.1181 -1.97862 0)
(13.0934 -1.91179 0)
(13.1572 -1.93413 0)
(13.1922 -1.90535 0)
(13.2471 -1.79887 0)
(13.3287 -1.7765 0)
(13.4261 -1.76559 0)
(13.4675 -1.59523 0)
(13.6214 -1.63917 0)
(13.6279 -1.47818 0)
(13.7765 -1.42992 0)
(13.7938 -1.29002 0)
(13.8572 -1.24642 0)
(13.8789 -1.03753 0)
(13.9427 -1.0663 0)
(13.8883 -0.90777 0)
(13.9115 -0.855462 0)
(13.8924 -0.840958 0)
(13.8274 -0.790061 0)
(13.7462 -0.710954 0)
(13.7522 -0.797281 0)
(13.573 -0.656722 0)
(13.6034 -0.763934 0)
(13.4102 -0.64201 0)
(13.5531 -0.769832 0)
(13.2869 -0.637084 0)
(13.5236 -0.767239 0)
(13.2638 -0.579571 0)
(13.4696 -0.640729 0)
(13.2103 -0.483904 0)
(13.4152 -0.426805 0)
(13.11 -0.312114 0)
(13.3871 -0.281708 0)
(12.9933 -0.107549 0)
(13.2372 -0.134093 0)
(12.8702 0.0223736 0)
(13.0526 0.0828687 0)
(12.5631 0.153997 0)
(12.8183 0.281963 0)
(12.1275 0.41028 0)
(12.5055 0.459435 0)
(11.5395 0.63099 0)
(12.1079 0.659386 0)
(10.8891 0.711379 0)
(11.5621 0.740824 0)
(10.1416 0.696254 0)
(10.7563 0.71406 0)
(9.52124 0.452896 0)
(9.8974 0.51928 0)
(8.89835 0.437957 0)
(9.07272 0.181204 0)
(8.41973 0.251175 0)
(8.03464 0.502063 0)
(7.76122 -0.264749 0)
(7.40595 0.0503457 0)
(6.75185 -0.132762 0)
(7.06573 -0.00405771 0)
(6.41371 -0.0950087 0)
(6.5762 -0.485853 0)
(6.38231 -0.873263 0)
(6.35947 0.148928 0)
(6.03844 -1.64476 0)
(6.65976 0.862874 0)
(5.47802 -0.736154 0)
(6.42278 0.321726 0)
(5.77103 -1.05054 0)
(6.5732 -2.17196 0)
(7.54931 -3.28568 0)
(7.83743 -4.86204 0)
(8.39252 -6.25294 0)
(8.58149 -5.71061 0)
(8.47119 -5.19654 0)
(8.37979 -5.18795 0)
(8.0151 -5.34192 0)
(8.08346 -4.64258 0)
(7.89536 -3.57042 0)
(7.91722 -2.26757 0)
(7.69617 -0.34228 0)
(7.46074 2.00063 0)
(7.43116 3.94333 0)
(7.34636 5.61186 0)
(7.58902 7.59271 0)
(7.43538 9.53023 0)
(7.52884 11.1766 0)
(7.39617 11.7229 0)
(7.22052 12.0683 0)
(7.24964 12.4982 0)
(7.27561 12.6065 0)
(6.82759 12.8556 0)
(9.10891 12.0558 0)
(7.34419 16.6536 0)
(10.0691 -0.12184 0)
(10.0833 -0.241254 0)
(10.1172 -0.27849 0)
(10.1699 -0.277593 0)
(10.2232 -0.237053 0)
(10.2569 -0.192329 0)
(10.2823 -0.154738 0)
(10.2702 -0.113116 0)
(10.2994 -0.0984613 0)
(10.2725 -0.0734119 0)
(10.3001 -0.053668 0)
(10.2891 -0.058043 0)
(10.2974 -0.0381934 0)
(10.3136 -0.0587609 0)
(10.302 -0.0598264 0)
(10.327 -0.0614957 0)
(10.3211 -0.0963181 0)
(10.3348 -0.0737165 0)
(10.3556 -0.106771 0)
(10.3565 -0.0926235 0)
(10.4001 -0.0854905 0)
(10.3961 -0.101989 0)
(10.4422 -0.0698665 0)
(10.4452 -0.0977477 0)
(10.4695 -0.0871832 0)
(10.4801 -0.0971593 0)
(10.4893 -0.126026 0)
(10.4879 -0.122646 0)
(10.5154 -0.15781 0)
(10.479 -0.158536 0)
(10.5329 -0.173819 0)
(10.4855 -0.177328 0)
(10.5272 -0.165005 0)
(10.5057 -0.164754 0)
(10.52 -0.14976 0)
(10.5267 -0.127138 0)
(10.5293 -0.129529 0)
(10.5445 -0.103352 0)
(10.5529 -0.102945 0)
(10.5701 -0.103735 0)
(10.5792 -0.0870599 0)
(10.5963 -0.105146 0)
(10.6096 -0.10905 0)
(10.6155 -0.104594 0)
(10.6296 -0.136526 0)
(10.6239 -0.135603 0)
(10.629 -0.14197 0)
(10.6159 -0.164105 0)
(10.6014 -0.152328 0)
(10.5845 -0.151246 0)
(10.5447 -0.15768 0)
(10.5362 -0.116891 0)
(10.4604 -0.104649 0)
(10.4665 -0.0660522 0)
(10.3758 0.00963978 0)
(10.3794 0.0477262 0)
(10.3052 0.140738 0)
(10.3295 0.218849 0)
(10.2557 0.283245 0)
(10.3476 0.344741 0)
(10.3095 0.403317 0)
(10.4131 0.402603 0)
(10.4495 0.398016 0)
(10.5666 0.367219 0)
(10.6218 0.279498 0)
(10.7321 0.214175 0)
(10.8133 0.102435 0)
(10.8894 -0.0171938 0)
(10.9761 -0.155652 0)
(11.0618 -0.250244 0)
(11.1186 -0.397614 0)
(11.1721 -0.494636 0)
(11.2693 -0.588671 0)
(11.3236 -0.6957 0)
(11.3577 -0.737875 0)
(11.5214 -0.837432 0)
(11.4936 -0.851154 0)
(11.6713 -0.896247 0)
(11.7157 -0.944637 0)
(11.8167 -0.946447 0)
(11.9479 -0.986632 0)
(12.0486 -1.02257 0)
(12.1462 -1.05407 0)
(12.293 -1.09 0)
(12.3669 -1.1317 0)
(12.4329 -1.18963 0)
(12.6157 -1.22834 0)
(12.5858 -1.27865 0)
(12.7612 -1.34372 0)
(12.7415 -1.39465 0)
(12.8487 -1.43854 0)
(12.8556 -1.49953 0)
(12.9428 -1.54385 0)
(12.8984 -1.59048 0)
(12.9754 -1.64953 0)
(12.9765 -1.64028 0)
(12.9579 -1.71504 0)
(12.9765 -1.74171 0)
(12.9754 -1.75696 0)
(12.9528 -1.80736 0)
(12.9453 -1.84799 0)
(12.9136 -1.85183 0)
(12.8828 -1.88267 0)
(12.8587 -1.93086 0)
(12.8543 -1.94188 0)
(12.7935 -1.94308 0)
(12.8014 -1.97637 0)
(12.8013 -1.94677 0)
(12.7708 -1.94581 0)
(12.8271 -1.977 0)
(12.8715 -1.97898 0)
(12.9295 -1.93514 0)
(13.0218 -1.94768 0)
(13.0844 -1.82825 0)
(13.2258 -1.87471 0)
(13.305 -1.78838 0)
(13.3933 -1.71567 0)
(13.5787 -1.69403 0)
(13.6099 -1.58315 0)
(13.7884 -1.47146 0)
(13.8068 -1.37852 0)
(13.9386 -1.25414 0)
(13.8905 -1.09246 0)
(14.0633 -1.05173 0)
(13.9283 -0.922397 0)
(14.0283 -0.844455 0)
(13.9222 -0.834599 0)
(13.9285 -0.737068 0)
(13.7572 -0.734398 0)
(13.8308 -0.689302 0)
(13.5803 -0.693981 0)
(13.6891 -0.635065 0)
(13.5058 -0.684598 0)
(13.6538 -0.669466 0)
(13.419 -0.672642 0)
(13.6291 -0.677115 0)
(13.3601 -0.640351 0)
(13.5346 -0.539026 0)
(13.2667 -0.559666 0)
(13.5081 -0.355743 0)
(13.2187 -0.372236 0)
(13.5419 -0.241802 0)
(13.1999 -0.124716 0)
(13.486 -0.0747182 0)
(13.1261 0.0968595 0)
(13.2969 0.22531 0)
(12.8402 0.282474 0)
(12.9683 0.535666 0)
(12.3239 0.542303 0)
(12.5751 0.738079 0)
(11.6569 0.791142 0)
(12.0991 0.966161 0)
(10.9912 0.918501 0)
(11.5487 1.05884 0)
(10.3667 0.964694 0)
(10.6232 1.05435 0)
(9.76015 0.835167 0)
(9.61486 0.89114 0)
(9.15141 0.70732 0)
(8.68442 0.466165 0)
(8.41493 0.661567 0)
(7.75904 0.672281 0)
(7.84319 0.126783 0)
(7.02563 0.345722 0)
(6.96513 0.132425 0)
(6.76318 0.0615323 0)
(6.34142 0.162397 0)
(6.74183 -0.579459 0)
(5.85205 -0.438823 0)
(6.69545 -0.145195 0)
(5.48301 -1.32866 0)
(6.4539 0.803609 0)
(5.42433 -0.763921 0)
(6.10979 0.541886 0)
(5.7367 -1.50822 0)
(6.73439 -2.94381 0)
(7.53844 -3.73866 0)
(8.21549 -5.1781 0)
(8.64766 -6.34588 0)
(8.70083 -5.93906 0)
(8.87945 -5.0341 0)
(8.6836 -4.92815 0)
(8.31635 -5.13018 0)
(8.05199 -4.49625 0)
(7.75308 -3.5453 0)
(7.61633 -2.09678 0)
(7.31654 -0.116545 0)
(7.16012 2.0943 0)
(7.07296 4.06959 0)
(7.0646 5.54791 0)
(7.25969 7.6363 0)
(7.28601 9.61961 0)
(7.32326 11.0471 0)
(7.44951 12.0236 0)
(7.41475 12.3533 0)
(7.33414 12.5273 0)
(7.73795 12.1717 0)
(6.91476 12.9859 0)
(10.321 10.51 0)
(8.85071 16.0707 0)
(11.5472 -0.116695 0)
(11.5903 -0.268263 0)
(11.7031 -0.320581 0)
(11.7978 -0.314353 0)
(11.8578 -0.260128 0)
(11.8757 -0.207759 0)
(11.8871 -0.161981 0)
(11.8477 -0.106284 0)
(11.8609 -0.100322 0)
(11.8279 -0.0627245 0)
(11.8333 -0.0522821 0)
(11.8296 -0.0520402 0)
(11.8023 -0.0325891 0)
(11.8319 -0.060869 0)
(11.7933 -0.0603222 0)
(11.8148 -0.067475 0)
(11.811 -0.101888 0)
(11.792 -0.0877564 0)
(11.8416 -0.113595 0)
(11.7947 -0.117263 0)
(11.8638 -0.0987798 0)
(11.8382 -0.122409 0)
(11.8747 -0.0932417 0)
(11.9012 -0.102822 0)
(11.8926 -0.107456 0)
(11.9315 -0.0929178 0)
(11.9261 -0.125962 0)
(11.9132 -0.118892 0)
(11.9603 -0.142605 0)
(11.8804 -0.151229 0)
(11.952 -0.162236 0)
(11.8829 -0.172394 0)
(11.9029 -0.162266 0)
(11.894 -0.167305 0)
(11.8698 -0.155396 0)
(11.8844 -0.134222 0)
(11.8811 -0.139721 0)
(11.8632 -0.113997 0)
(11.9069 -0.110364 0)
(11.8744 -0.121226 0)
(11.9149 -0.0908028 0)
(11.8948 -0.11564 0)
(11.9317 -0.118672 0)
(11.8972 -0.0963247 0)
(11.9453 -0.144664 0)
(11.8906 -0.120517 0)
(11.932 -0.136779 0)
(11.8825 -0.152273 0)
(11.8862 -0.135501 0)
(11.8521 -0.134279 0)
(11.8308 -0.132169 0)
(11.7984 -0.0894881 0)
(11.7709 -0.0733545 0)
(11.7412 -0.0315072 0)
(11.7107 0.0297299 0)
(11.6978 0.0766967 0)
(11.6612 0.133194 0)
(11.6985 0.214432 0)
(11.6548 0.262605 0)
(11.7448 0.304344 0)
(11.752 0.355213 0)
(11.8433 0.359605 0)
(11.8945 0.337614 0)
(12.0042 0.310363 0)
(12.0596 0.228088 0)
(12.1607 0.156815 0)
(12.2228 0.0423022 0)
(12.2913 -0.0667071 0)
(12.3718 -0.193669 0)
(12.4208 -0.300606 0)
(12.4574 -0.428042 0)
(12.5073 -0.53106 0)
(12.5275 -0.628124 0)
(12.5681 -0.729508 0)
(12.5657 -0.788404 0)
(12.6407 -0.855685 0)
(12.6082 -0.929455 0)
(12.6896 -0.931197 0)
(12.6946 -0.998505 0)
(12.736 -1.01275 0)
(12.775 -1.04581 0)
(12.8349 -1.07644 0)
(12.859 -1.10822 0)
(12.9154 -1.14362 0)
(12.9276 -1.19563 0)
(12.9561 -1.21671 0)
(13.0029 -1.27237 0)
(12.9793 -1.32012 0)
(13.0033 -1.37048 0)
(13.0113 -1.40794 0)
(12.9826 -1.45987 0)
(12.9834 -1.4967 0)
(12.9616 -1.55451 0)
(12.9279 -1.57734 0)
(12.9101 -1.63154 0)
(12.8844 -1.65232 0)
(12.8187 -1.6981 0)
(12.8041 -1.72801 0)
(12.7726 -1.74217 0)
(12.7092 -1.79814 0)
(12.7324 -1.83951 0)
(12.6689 -1.84484 0)
(12.6382 -1.87407 0)
(12.5871 -1.89177 0)
(12.5983 -1.90518 0)
(12.5524 -1.9347 0)
(12.5963 -1.96713 0)
(12.6273 -2.00261 0)
(12.649 -1.98911 0)
(12.706 -2.0231 0)
(12.8192 -2.014 0)
(12.9083 -1.97973 0)
(13.0227 -2.01686 0)
(13.1414 -1.95279 0)
(13.2874 -1.98335 0)
(13.3734 -1.92156 0)
(13.5626 -1.84376 0)
(13.6509 -1.80715 0)
(13.7957 -1.67865 0)
(13.9059 -1.55912 0)
(13.9788 -1.45542 0)
(14.0545 -1.31921 0)
(14.1016 -1.17526 0)
(14.123 -1.09609 0)
(14.1091 -0.941532 0)
(14.1064 -0.844544 0)
(14.0422 -0.81127 0)
(13.9721 -0.649454 0)
(13.863 -0.732085 0)
(13.8464 -0.580791 0)
(13.6498 -0.682262 0)
(13.7088 -0.567297 0)
(13.6031 -0.705427 0)
(13.6332 -0.599876 0)
(13.4944 -0.684313 0)
(13.6261 -0.617601 0)
(13.4274 -0.640927 0)
(13.5139 -0.477038 0)
(13.4024 -0.593789 0)
(13.5298 -0.312418 0)
(13.351 -0.406165 0)
(13.5986 -0.219149 0)
(13.3386 -0.123534 0)
(13.5169 -0.0199999 0)
(13.2646 0.132321 0)