/*--------------------------------*- C++ -*----------------------------------*\
| =========                 |                                                 |
| \\      /  F ield         | OpenFOAM: The Open Source CFD Toolbox           |
|  \\    /   O peration     | Version:  2.4.0                                 |
|   \\  /    A nd           | Web:      www.OpenFOAM.org                      |
|    \\/     M anipulation  |                                                 |
\*---------------------------------------------------------------------------*/
FoamFile
{
    version     2.0;
    format      ascii;
    class       volScalarField;
    location    "0.1";
    object      k_0;
}
// * * * * * * * * * * * * * * * * * * * * * * * * * * * * * * * * * * * * * //

dimensions      [0 2 -2 0 0 0 0];

internalField   nonuniform List<scalar> 
8800
(
8.11818
10.2647
8.79119
6.83064
5.69562
4.98394
4.51856
4.15744
3.89399
3.70697
3.51618
3.40677
3.2911
3.20088
3.13012
3.0332
2.99785
2.92597
2.90863
2.74204
1.40164
4.35251
5.31564
5.29141
5.12675
4.82103
4.55762
4.30924
4.08607
3.92618
3.73482
3.619
3.51225
3.38443
3.34152
3.22219
3.1938
3.13463
3.04987
3.04591
0.084191
0.735912
1.55275
1.94974
2.27718
2.44265
2.55708
2.62
2.61439
2.60134
2.5839
2.54303
2.5233
2.45693
2.45568
2.39995
2.39088
2.35189
2.32896
2.27962
0.00333939
0.0702462
0.24953
0.423847
0.589266
0.711066
0.814172
0.949722
1.0208
1.07865
1.16554
1.21058
1.26399
1.28174
1.33791
1.35371
1.38111
1.38696
1.4158
1.39806
0.000122426
0.00496949
0.0217581
0.0496567
0.0933904
0.129974
0.153839
0.20565
0.250949
0.272783
0.314695
0.36429
0.384161
0.426506
0.446918
0.497527
0.511405
0.544604
0.568357
0.590393
2.54715e-05
0.000314844
0.00140368
0.00355637
0.00829614
0.0142106
0.0175578
0.0246506
0.0359362
0.0407877
0.0533479
0.0601787
0.0730629
0.0847341
0.0911237
0.110404
0.115505
0.124726
0.137262
0.143036
2.1604e-05
4.42521e-05
0.000119102
0.000248662
0.000605763
0.001035
0.00134058
0.00181349
0.00293586
0.00347739
0.00480866
0.00566479
0.00776282
0.00931049
0.0106728
0.0145222
0.0151352
0.01654
0.0180386
0.0188158
2.11549e-05
2.90664e-05
5.05264e-05
5.9804e-05
0.00010044
0.00012696
0.000156001
0.000174381
0.000235604
0.000264228
0.000363088
0.000410412
0.000592028
0.000677068
0.000864575
0.00112815
0.00115844
0.0012122
0.00123356
0.001309
2.0743e-05
3.29873e-05
4.12225e-05
5.51952e-05
5.88041e-05
8.0869e-05
8.67454e-05
9.89048e-05
9.96362e-05
0.000101553
0.000103835
0.000104913
0.000119579
0.000128113
0.000145032
0.000155477
0.000166255
0.000162547
0.000168026
0.000165823
2.05754e-05
2.86277e-05
4.7237e-05
4.94281e-05
5.22855e-05
6.54283e-05
7.66461e-05
8.10031e-05
8.04688e-05
8.03557e-05
7.77078e-05
7.98554e-05
8.59203e-05
0.000103606
0.000108479
0.000120532
0.000118817
0.000121661
0.000119754
0.000130175
2.06224e-05
2.68365e-05
4.5125e-05
5.44931e-05
5.66583e-05
5.86919e-05
7.05426e-05
7.44214e-05
7.49332e-05
7.62511e-05
7.68295e-05
8.28657e-05
8.37364e-05
9.20049e-05
9.46255e-05
9.49189e-05
9.6691e-05
9.97632e-05
0.00010396
0.000112528
2.08336e-05
2.75538e-05
4.0641e-05
6.48472e-05
6.54325e-05
6.66417e-05
7.72616e-05
8.22065e-05
8.52866e-05
8.58016e-05
9.51886e-05
9.75576e-05
0.000105095
0.000116823
0.000120905
0.000129275
0.000144234
0.000178252
0.000229735
0.000352408
2.12087e-05
2.99654e-05
4.38737e-05
7.62887e-05
0.00010319
0.000133162
0.000145605
0.000171542
0.000183681
0.000279137
0.000346813
0.000493155
0.00057063
0.0007502
0.000857029
0.00106761
0.00133331
0.00205362
0.00274268
0.00431545
2.1643e-05
4.36877e-05
0.000124535
0.000413268
0.000620618
0.000928234
0.00120188
0.00189611
0.00242039
0.00403441
0.00494789
0.00675352
0.00777494
0.0103444
0.0115741
0.014581
0.0172992
0.0240449
0.0287822
0.0405351
2.49797e-05
0.000308659
0.00153187
0.00533506
0.00777557
0.0126529
0.0168007
0.0264324
0.031916
0.0459639
0.0528603
0.065607
0.0726596
0.0894654
0.0968623
0.114804
0.127851
0.159286
0.177266
0.22993
0.00012322
0.00495468
0.0225726
0.0600103
0.084466
0.121898
0.159853
0.210313
0.235599
0.292885
0.321061
0.361196
0.386116
0.441123
0.462462
0.514017
0.546867
0.623655
0.661897
0.761625
0.00335303
0.0695369
0.262792
0.419665
0.581901
0.699762
0.83772
0.932593
1.01534
1.10761
1.16677
1.2075
1.26272
1.32013
1.34364
1.3961
1.4282
1.49732
1.52688
1.59559
0.0843208
0.727385
1.57068
1.93616
2.28124
2.42926
2.58405
2.59709
2.62571
2.60362
2.59152
2.5382
2.52754
2.48323
2.46972
2.42927
2.42465
2.40194
2.38997
2.36144
1.40255
4.35235
5.32061
5.28521
5.13276
4.79736
4.58905
4.27363
4.1335
3.86559
3.77508
3.57856
3.5162
3.35535
3.31884
3.184
3.14207
3.0061
2.94932
2.8182
8.11739
10.2656
8.79449
6.81548
5.71512
4.95809
4.53746
4.126
3.92897
3.64022
3.54443
3.34097
3.28405
3.10011
3.06058
2.88137
2.81633
2.59626
2.49121
2.22715
1.88705
1.40989
1.15463
1.00278
0.900012
0.874859
0.8551
0.85421
0.854079
0.837048
0.824182
0.788033
0.788877
0.785029
0.771913
0.759642
0.71875
0.586399
0.411089
0.305933
0.248183
0.214888
0.191667
0.172597
0.158684
0.144804
0.130674
0.116056
0.103631
0.096723
0.0960202
0.0975088
0.10303
0.109522
0.120778
0.12848
0.140097
0.157527
0.169138
0.187753
0.204227
0.214231
0.213314
0.209909
0.202382
0.186875
0.16523
0.122406
0.0681194
0.0365675
0.0213683
0.0147481
0.0129678
0.0131766
0.0144085
0.0174535
0.0248305
0.0312883
0.0400976
0.046696
0.0468409
0.0454246
0.0413449
0.0355534
0.0288582
0.0237991
0.0206038
0.018612
0.0177263
0.0177854
0.0185148
0.0209415
0.0235081
0.0290945
0.0336604
0.0366243
0.037568
0.0371826
0.0366763
0.0373044
0.0394046
0.0392969
0.0373508
0.0333549
0.0293048
0.0271272
0.0235366
0.0215465
0.0186032
0.0176287
0.0155801
0.0146143
0.0145472
0.0154173
0.0188649
0.0309268
0.0780393
0.150791
0.2144
0.248007
0.266754
0.277573
0.279545
0.249962
0.182175
0.140453
0.11041
0.0868047
0.0674389
0.0555
0.0504553
0.0471064
0.0430303
0.0414745
0.0416514
0.0419775
0.0429906
0.0463107
0.0486634
0.0522579
0.0604095
0.0726897
0.0795527
0.0790346
0.075209
0.0602377
0.0512794
0.0485497
0.0506314
0.0620656
0.0952659
0.175553
0.229306
0.233733
0.221858
0.190816
0.146865
0.106436
0.0795323
0.060039
0.0505086
0.0436476
0.0408901
0.0400771
0.0412001
0.0431549
0.0492269
0.0520903
0.058594
0.060992
0.0630322
0.0606784
0.0588058
0.0558778
0.0541569
0.0486023
0.0439771
0.0433945
0.0429747
0.04547
0.0452617
0.0471016
0.0445452
0.0427888
0.0331641
0.0293177
0.021712
0.0200992
0.0163965
0.0155034
0.0135037
0.0130912
0.0121412
0.0119304
0.0111015
0.0110956
0.0104615
0.0107516
0.0100349
0.0102703
0.00944983
0.00918096
0.00787971
0.00714929
0.00544477
0.00441942
0.00373146
0.0029751
0.0028654
0.00225831
0.00228635
0.00198268
0.00209755
0.00260363
0.00262501
0.00331029
0.00530542
0.0125246
0.0969994
0.695014
2.61415
2.16282
1.81226
1.57629
1.39022
1.24427
1.13454
1.02567
0.958267
0.87835
0.825208
0.782191
0.73889
0.730086
0.728168
0.737074
0.768882
0.767528
0.748176
0.700372
0.597701
0.506609
0.422296
0.3436
0.278044
0.23293
0.199751
0.172352
0.160057
0.161041
0.167356
0.185579
0.202556
0.221867
0.240071
0.249242
0.255083
0.25792
0.256107
0.24704
0.240298
0.230967
0.217083
0.197727
0.168431
0.127928
0.07428
0.0411613
0.0229818
0.0147291
0.0112693
0.0112172
0.0119205
0.0148458
0.0224175
0.0384149
0.0586364
0.0743592
0.0937622
0.0987782
0.0979219
0.0930395
0.0852725
0.0736654
0.0613384
0.0479489
0.0367025
0.0280208
0.0226925
0.0198216
0.0186414
0.0186359
0.0187848
0.0200359
0.0210213
0.0236816
0.0248305
0.0260913
0.0282229
0.0311366
0.0308318
0.0289302
0.0263553
0.0252989
0.0252124
0.0242992
0.0228069
0.020484
0.0195254
0.0177882
0.0162847
0.0151626
0.0153776
0.0165419
0.0211278
0.0339399
0.0779103
0.157042
0.2056
0.246685
0.255
0.284765
0.29184
0.273691
0.201181
0.15079
0.114523
0.0866865
0.0652269
0.0539043
0.048202
0.0450305
0.0422509
0.0408978
0.0409331
0.0404365
0.0403759
0.041597
0.0445494
0.0475196
0.0532009
0.0638296
0.0738206
0.0766735
0.0754385
0.0686656
0.0543909
0.0493781
0.0478957
0.0509691
0.0631377
0.0942298
0.169116
0.208402
0.210269
0.198792
0.179037
0.145965
0.123055
0.0951238
0.078323
0.0644392
0.0595653
0.0560633
0.0567254
0.0580109
0.0598868
0.0628905
0.0658383
0.0665627
0.0659436
0.0619241
0.060643
0.0580173
0.0572804
0.0501277
0.0459308
0.0421588
0.0434321
0.0434965
0.0461446
0.045906
0.0456498
0.0430361
0.0357022
0.0305684
0.0251116
0.0231347
0.0203101
0.019115
0.0174006
0.0166999
0.0156897
0.0150404
0.0140664
0.0129475
0.0122977
0.01147
0.0113147
0.0108184
0.0111403
0.0105232
0.0109798
0.0102597
0.0100286
0.00850527
0.00752486
0.00533584
0.00435014
0.00341046
0.0028858
0.00290455
0.00255744
0.00279256
0.00319725
0.00343186
0.0085805
0.0118563
0.0729329
0.319198
2.03987
1.79435
1.58569
1.40523
1.2801
1.16001
1.06221
0.977484
0.887847
0.83121
0.754238
0.713623
0.667893
0.633792
0.617137
0.593334
0.585894
0.589202
0.597533
0.601513
0.591584
0.577605
0.548801
0.523567
0.481819
0.458537
0.418294
0.3972
0.37218
0.358855
0.341441
0.332084
0.321798
0.317421
0.305555
0.298608
0.286633
0.27401
0.262088
0.236509
0.216276
0.184844
0.146432
0.105822
0.0640316
0.0377951
0.0217779
0.0138877
0.00975686
0.00900551
0.00947809
0.0113725
0.0172521
0.0308483
0.060518
0.102656
0.135401
0.16701
0.186384
0.187065
0.182951
0.170914
0.15289
0.131628
0.109207
0.0886943
0.0696784
0.0533689
0.0404191
0.0304208
0.024735
0.0212366
0.0198991
0.0199074
0.0201505
0.0207506
0.0215851
0.0228959
0.0257245
0.0262841
0.0254188
0.0233052
0.0225674
0.0225589
0.0229385
0.0222679
0.0214213
0.0208185
0.0205153
0.0195499
0.0192394
0.0189079
0.0191581
0.0202327
0.0244416
0.0365989
0.080134
0.150655
0.209002
0.228288
0.242398
0.278633
0.308445
0.301706
0.222
0.161962
0.1207
0.0858436
0.0648533
0.0533785
0.0463754
0.0443957
0.0434374
0.0432811
0.0432143
0.0419965
0.0406358
0.0415051
0.0426346
0.0444477
0.0486963
0.0565738
0.0687596
0.074936
0.0746604
0.0723907
0.0607615
0.050761
0.0484921
0.0479148
0.0516041
0.0627977
0.0903781
0.149564
0.184281
0.186331
0.180073
0.163057
0.150139
0.123908
0.107972
0.0912995
0.0865858
0.0791123
0.0758458
0.0731052
0.0726037
0.0725043
0.0716683
0.0716999
0.067406
0.0659501
0.0613847
0.0609367
0.057217
0.05154
0.0440426
0.0420025
0.0426084
0.0435644
0.0472269
0.0460713
0.0470644
0.0425968
0.0403501
0.0314537
0.0297637
0.0254849
0.0262885
0.0243628
0.0255395
0.0241878
0.025034
0.0239106
0.0241161
0.0230987
0.0226448
0.0208273
0.0195702
0.0164198
0.0148777
0.0134696
0.0121466
0.0121518
0.0112726
0.0118078
0.0101042
0.0106443
0.00857545
0.00739557
0.00496433
0.00358329
0.00397892
0.0037809
0.00889385
0.00697719
0.0341575
0.0205618
0.0388929
0.138471
1.28497
1.1596
1.05009
0.940547
0.869779
0.794639
0.731761
0.672751
0.618551
0.562172
0.520428
0.475595
0.446989
0.412279
0.393081
0.373129
0.367025
0.367455
0.370843
0.376381
0.391963
0.404786
0.419094
0.420955
0.418184
0.410021
0.401994
0.38253
0.371865
0.35685
0.339076
0.321793
0.306806
0.288673
0.263049
0.243376
0.213812
0.18361
0.149319
0.120488
0.086105
0.0594919
0.0399435
0.0259053
0.0166538
0.0110027
0.00787518
0.0068622
0.00710785
0.00808628
0.011471
0.021274
0.0452319
0.0909079
0.16869
0.230392
0.277913
0.289503
0.286409
0.277875
0.264578
0.252399
0.236634
0.214741
0.1871
0.156335
0.125133
0.0951245
0.0702916
0.0516502
0.0390536
0.0300517
0.0258063
0.0228588
0.0217923
0.0217898
0.0219764
0.0230651
0.0248371
0.0247687
0.023162
0.0220209
0.0215304
0.0214695
0.0214474
0.0211668
0.0208919
0.020937
0.0208159
0.0206726
0.0202212
0.0203121
0.0204534
0.0214427
0.0250642
0.0361248
0.0744914
0.148246
0.204158
0.222521
0.225163
0.256486
0.323761
0.321515
0.248945
0.179081
0.12399
0.0865757
0.0666759
0.0531937
0.0457729
0.0448686
0.0439367
0.0436423
0.0432779
0.0418766
0.0404797
0.0406486
0.0415821
0.0424948
0.04534
0.0521423
0.0616126
0.0716512
0.0737392
0.072793
0.0687104
0.0544995
0.0487553
0.0482958
0.0483489
0.0527568
0.0621902
0.0856375
0.123796
0.15673
0.164812
0.160963
0.152092
0.139356
0.125975
0.11185
0.105998
0.0956512
0.0898452
0.0841675
0.0825065
0.0805249
0.0774237
0.075136
0.0693294
0.0672694
0.0634767
0.062305
0.0567815
0.0524911
0.0438224
0.0432766
0.0414821
0.0447125
0.0439782
0.0466055
0.0439095
0.0428941
0.0345197
0.0313764
0.0245275
0.023552
0.0206477
0.0201661
0.0181286
0.0182224
0.017544
0.018245
0.018625
0.0199153
0.0230362
0.0238001
0.0275205
0.0271013
0.0285306
0.0261259
0.0254396
0.021776
0.0197414
0.0160767
0.0147976
0.0121561
0.0134467
0.0115487
0.0174613
0.0120978
0.0276748
0.0170159
0.0433703
0.0292458
0.0466655
0.0416125
0.0427041
0.0778981
0.556715
0.515196
0.46561
0.414317
0.377418
0.3447
0.315171
0.29
0.264688
0.238
0.212196
0.191371
0.176269
0.163107
0.155389
0.147069
0.144311
0.144725
0.147753
0.151484
0.15899
0.167521
0.174018
0.18749
0.19748
0.202889
0.203003
0.199992
0.19345
0.184435
0.170074
0.155323
0.138617
0.118574
0.0993929
0.081039
0.064826
0.0508223
0.0386988
0.0292
0.0211349
0.0150461
0.010395
0.00743289
0.00561939
0.00485191
0.00506265
0.00563656
0.00735366
0.0124665
0.0266701
0.0618708
0.136068
0.256664
0.34428
0.359882
0.351936
0.332648
0.312732
0.293627
0.279277
0.267489
0.256915
0.247806
0.233528
0.215732
0.188868
0.157305
0.12509
0.0957866
0.0694403
0.0507556
0.0388429
0.031131
0.0275305
0.0257173
0.0251579
0.0258193
0.0261506
0.0257624
0.0247345
0.0235734
0.0225981
0.0224338
0.0224521
0.0227603
0.0234088
0.0234875
0.0232648
0.0232581
0.0231827
0.022846
0.0224025
0.022479
0.0242168
0.0314988
0.0599666
0.142406
0.199375
0.212513
0.21068
0.235755
0.324278
0.343117
0.288713
0.195793
0.132692
0.0953141
0.0702965
0.0535717
0.0458548
0.0450537
0.0440835
0.0419343
0.0402183
0.0392571
0.039671
0.0401989
0.04056
0.0410435
0.0425814
0.0480611
0.0574363
0.0682442
0.0735348
0.0732025
0.0714958
0.0628145
0.0506034
0.049085
0.0484473
0.0491647
0.0534664
0.0610256
0.0743856
0.101521
0.119886
0.141159
0.141418
0.13685
0.131709
0.119731
0.11577
0.106833
0.102361
0.0955493
0.0909726
0.0863487
0.0808761
0.0774449
0.070144
0.0688959
0.065123
0.0622069
0.0547547
0.0477781
0.0437845
0.0410425
0.040821
0.0410195
0.0430138
0.0434448
0.0432546
0.0408113
0.0334618
0.029669
0.0272551
0.0267619
0.0270485
0.0271743
0.0292473
0.0291194
0.0324235
0.0309356
0.036065
0.03237
0.0394967
0.0343339
0.0466021
0.0393028
0.0566394
0.0453473
0.0672267
0.0514758
0.0780829
0.0547361
0.0866245
0.0559947
0.0880947
0.0536111
0.0784351
0.0466011
0.0602698
0.0392615
0.0436966
0.0365815
0.0377295
0.0427661
0.0435704
0.0556203
0.137436
0.130244
0.119566
0.107878
0.0972617
0.0903202
0.0830778
0.0775086
0.0715241
0.0647968
0.057685
0.052175
0.0477915
0.0450021
0.0428479
0.0419524
0.040507
0.0405523
0.0410275
0.0421412
0.043893
0.0474446
0.0493277
0.0542515
0.0590663
0.0635636
0.0651908
0.0646496
0.0627957
0.0588111
0.0524127
0.045774
0.0394698
0.0331726
0.027822
0.0226259
0.0180497
0.01412
0.0108058
0.00798537
0.00576805
0.00442507
0.00339716
0.00318466
0.00335391
0.00382774
0.00490184
0.00770791
0.0149479
0.0334129
0.0827837
0.198918
0.364896
0.430154
0.424183
0.39756
0.361217
0.323484
0.293254
0.273187
0.259198
0.250902
0.24981
0.247042
0.241342
0.236748
0.226512
0.206262
0.174003
0.138202
0.108253
0.0889217
0.0669059
0.0501848
0.0390036
0.0347675
0.0333759
0.0319392
0.0299051
0.0288991
0.0284988
0.0277913
0.0272736
0.0271327
0.0270346
0.0267722
0.0267907
0.0265204
0.0251697
0.0247811
0.0253004
0.028173
0.0290119
0.0286114
0.0286879
0.032716
0.0550279
0.13274
0.195835
0.201551
0.199181
0.210031
0.313983
0.36539
0.326346
0.220202
0.150794
0.108657
0.0747217
0.0571245
0.0483415
0.0468244
0.0447772
0.0417878
0.0395114
0.0384604
0.0401406
0.0408063
0.0408211
0.0411955
0.0421663
0.0453529
0.0539843
0.0629849
0.0727087
0.0744281
0.0730326
0.0692958
0.0557675
0.0504682
0.049299
0.0495122
0.0511668
0.0575134
0.0612272
0.0744869
0.0813065
0.0985135
0.106376
0.118959
0.118856
0.116602
0.111104
0.10682
0.100399
0.0958397
0.0893052
0.0857776
0.0788071
0.0748356
0.0687445
0.0662978
0.0611497
0.0584543
0.05283
0.0478113
0.0427952
0.0411122
0.0408689
0.04174
0.0423757
0.0431777
0.0411572
0.0384524
0.0281558
0.0253331
0.0203896
0.0212353
0.0209785
0.0223384
0.0260798
0.0286806
0.0355696
0.038038
0.049784
0.0515163
0.0697154
0.067999
0.0941189
0.088296
0.123369
0.111699
0.148783
0.132819
0.165419
0.146065
0.166879
0.147649
0.155833
0.137766
0.137306
0.118281
0.114704
0.0892983
0.0850931
0.0609748
0.0524073
0.0503775
0.0469512
0.0510512
0.0184069
0.0178839
0.0169256
0.0159467
0.0146175
0.0139809
0.0130128
0.0122563
0.0114188
0.0102302
0.00933079
0.00836313
0.00778905
0.00750517
0.00739456
0.00743686
0.00732736
0.00733391
0.00743288
0.00761365
0.00805694
0.00849021
0.00902806
0.0103167
0.0125913
0.0145255
0.0152765
0.0152007
0.0147432
0.0135018
0.0115484
0.00968361
0.00825351
0.00695623
0.00602836
0.00498494
0.00410678
0.00330538
0.00262265
0.00206256
0.00184896
0.00189814
0.00209278
0.00251897
0.00342553
0.00548866
0.00998647
0.0197463
0.042549
0.102337
0.266163
0.453226
0.500067
0.482038
0.438791
0.366078
0.305311
0.267131
0.246053
0.235352
0.222794
0.214909
0.21449
0.219599
0.230336
0.232874
0.232131
0.228095
0.216855
0.187588
0.151389
0.116759
0.0966588
0.0806027
0.0637646
0.0527069
0.0446125
0.0395755
0.0386357
0.0390658
0.0390638
0.0377171
0.0357088
0.0343533
0.0337859
0.0334598
0.033316
0.033042
0.0319382
0.029806
0.0293404
0.0302708
0.0320602
0.0326821
0.0335603
0.0367447
0.0535472
0.12794
0.183003
0.192586
0.182206
0.186546
0.286057
0.376187
0.362282
0.258796
0.172669
0.124379
0.0834888
0.0629011
0.0539598
0.0504782
0.0447372
0.0449257
0.0438479
0.0416508
0.0414804
0.0419474
0.0410196
0.0419863
0.0429049
0.0456073
0.0529897
0.0624412
0.0708871
0.0761767
0.075389
0.0733436
0.0657788
0.0555871
0.0516182
0.0515971
0.052198
0.0550941
0.0608054
0.0650924
0.0682603
0.0747774
0.078647
0.0875708
0.0898776
0.0969441
0.0964604
0.0970312
0.0947171
0.0927074
0.0867532
0.0844732
0.0774419
0.0751094
0.0676658
0.0662613
0.0596779
0.0601382
0.0549179
0.0523746
0.0438317
0.0418976
0.0397419
0.0418822
0.0412038
0.0421563
0.0392467
0.0335443
0.024838
0.0193542
0.0147458
0.0133221
0.012545
0.0135418
0.0144747
0.0189101
0.0202994
0.0252877
0.0279545
0.0348985
0.0460416
0.0526436
0.0677916
0.0736043
0.0912143
0.096143
0.114977
0.118458
0.136114
0.136747
0.148155
0.144515
0.149972
0.142564
0.143407
0.134133
0.132245
0.117713
0.114281
0.100279
0.0892581
0.076566
0.0612912
0.0568736
0.00130034
0.00128907
0.00126333
0.00123247
0.00116536
0.00111181
0.00106731
0.00100954
0.000963744
0.000909406
0.000858905
0.000815125
0.000791183
0.000784448
0.000784357
0.000791326
0.000798252
0.000804626
0.000820614
0.000844976
0.000887293
0.000969536
0.00103584
0.00120828
0.00171821
0.00201219
0.0020642
0.00204781
0.00190331
0.0017296
0.00143893
0.00129579
0.00119003
0.00112912
0.00101741
0.000990775
0.000911548
0.000899726
0.000945546
0.00108039
0.00130675
0.00174797
0.00268087
0.0044472
0.00806407
0.0153188
0.0279973
0.0540685
0.120061
0.315472
0.535843
0.572468
0.543604
0.464252
0.351909
0.292661
0.262398
0.248241
0.23813
0.230729
0.22062
0.209921
0.203666
0.203357
0.20662
0.221648
0.23067
0.231312
0.229048
0.21629
0.19265
0.158896
0.12512
0.10176
0.0912629
0.0752819
0.0622246
0.0549027
0.0531818
0.0507315
0.0477103
0.045524
0.0447415
0.044371
0.0439737
0.0437039
0.0427399
0.0395305
0.0383138
0.0381733
0.0378664
0.0357039
0.0336147
0.0330532
0.0337242
0.0373997
0.0516269
0.120613
0.174056
0.183995
0.169891
0.170064
0.245799
0.375256
0.39651
0.307331
0.196984
0.144768
0.0976325
0.0694868
0.059757
0.0521226
0.0446698
0.048411
0.0456042
0.0480066
0.0441949
0.043652
0.0415763
0.0425845
0.045045
0.0466348
0.0516766
0.0628977
0.0710917
0.0771042
0.0768105
0.0757106
0.0718682
0.0615023
0.0553549
0.0540954
0.0553604
0.0562514
0.0624329
0.0647981
0.0685576
0.0693721
0.0701046
0.0730859
0.0734397
0.0765128
0.0765988
0.0784845
0.0774767
0.07786
0.075782
0.074554
0.0704078
0.0679901
0.0614639
0.0578988
0.0538602
0.0525707
0.0490792
0.0452189
0.0401236
0.0379414
0.0375079
0.0390073
0.0404149
0.0405396
0.0376632
0.0345454
0.0261515
0.0226637
0.0159888
0.0140912
0.0109632
0.0113624
0.0104722
0.0119187
0.011167
0.0137261
0.012907
0.0179501
0.0172827
0.0252172
0.0238633
0.036249
0.0351789
0.0527845
0.0521492
0.0732366
0.0714889
0.095381
0.0930906
0.115435
0.113855
0.126142
0.126432
0.128091
0.129317
0.125414
0.12501
0.12161
0.118456
0.110042
0.101513
0.0801863
0.000166434
0.000166357
0.000169077
0.000169707
0.000168234
0.00016504
0.000167211
0.00017019
0.000176564
0.000177804
0.00017675
0.000172179
0.000169083
0.000169475
0.000169964
0.000173084
0.00018009
0.000186276
0.000188332
0.000189862
0.000192279
0.000196245
0.00020708
0.000214652
0.000240082
0.000257976
0.00027049
0.000272954
0.000282574
0.00028737
0.00029905
0.000314485
0.000333337
0.000355209
0.000392835
0.000447783
0.000546442
0.000683983
0.000973972
0.00163246
0.00258782
0.00469625
0.00843009
0.0137349
0.0251943
0.043186
0.0714019
0.137946
0.347544
0.615906
0.643779
0.605216
0.480741
0.360625
0.297353
0.266402
0.254034
0.248338
0.247947
0.246097
0.242294
0.229825
0.213325
0.209316
0.209646
0.21186
0.224536
0.232458
0.2335
0.230598
0.221064
0.190657
0.159222
0.137746
0.113916
0.0926809
0.0825761
0.0759117
0.0696203
0.0636142
0.0599267
0.0580679
0.0580638
0.0580487
0.0570644
0.0550929
0.0533137
0.0491867
0.0467826
0.0447171
0.0409271
0.0372694
0.0354561
0.0342237
0.0342215
0.0366941
0.0474347
0.105409
0.165202
0.177408
0.163655
0.156306
0.203065
0.357611
0.421049
0.360142
0.226681
0.166931
0.116986
0.0832763
0.0663785
0.0538477
0.0476666
0.050029
0.0446323
0.0459035
0.0436041
0.0425184
0.0433663
0.0448569
0.0502655
0.0503861
0.0529687
0.064532
0.0721222
0.0789714
0.0791158
0.0785358
0.076622
0.0692139
0.0640011
0.0572235
0.0582829
0.0578787
0.0634562
0.065329
0.0702795
0.0695738
0.0701894
0.0696749
0.0695391
0.0686285
0.0677714
0.0675569
0.0671649
0.0669282
0.0657635
0.0648566
0.0628689
0.0604318
0.0573698
0.0548109
0.0536342
0.0521622
0.0479029
0.0426148
0.0390976
0.0384569
0.0387976
0.041685
0.0422539
0.0423335
0.0385711
0.0322738
0.0233714
0.0190708
0.0141199
0.0124057
0.0096884
0.00924496
0.00831064
0.008768
0.00826069
0.00927094
0.00869401
0.0107293
0.0099783
0.0132672
0.012067
0.0174253
0.0158274
0.0248615
0.0224756
0.035149
0.0316389
0.047949
0.0440335
0.0633489
0.0607671
0.0821779
0.082126
0.100092
0.10283
0.114931
0.117873
0.120582
0.120473
0.119173
0.11736
0.110194
0.000129546
0.000130844
0.000133984
0.000137838
0.000137144
0.000135671
0.000134986
0.000135267
0.000135971
0.000137926
0.000141675
0.000143511
0.00014509
0.000146351
0.000153009
0.000158427
0.000160713
0.000160853
0.000160153
0.000158693
0.000158702
0.000158798
0.000155807
0.000155336
0.000155777
0.000158945
0.000164311
0.000179768
0.00018862
0.000201463
0.000235394
0.00026346
0.000314564
0.000412815
0.000540586
0.000825872
0.00129174
0.0019718
0.00360736
0.00584064
0.00909
0.016949
0.0250273
0.0397897
0.0693151
0.100392
0.164471
0.363036
0.681116
0.721029
0.669155
0.503465
0.386734
0.31379
0.275359
0.25585
0.253572
0.255867
0.257536
0.258254
0.258854
0.257793
0.247131
0.232425
0.224201
0.222885
0.229386
0.236693
0.237711
0.237196
0.234085
0.219676
0.199829
0.171704
0.142846
0.12422
0.109628
0.0983875
0.0921191
0.0895888
0.0886355
0.086248
0.0823812
0.077077
0.0705356
0.0646236
0.0603607
0.0558681
0.0526896
0.0491465
0.0441276
0.0391081
0.0362033
0.0346978
0.0345853
0.0367838
0.0454582
0.0942665
0.160811
0.175831
0.161344
0.144364
0.170738
0.321436
0.424247
0.408513
0.268932
0.192614
0.145591
0.106865
0.0797216
0.0620513
0.0564128
0.051701
0.0475988
0.0437942
0.045037
0.0432101
0.0468383
0.04832
0.0531083
0.0527425
0.0551562
0.0670029
0.0757324
0.0808253
0.0808159
0.0799299
0.0796139
0.0731662
0.0705204
0.0617606
0.0616795
0.060293
0.0640813
0.0654544
0.0704378
0.0698179
0.070298
0.0689949
0.0684851
0.0671147
0.0652584
0.0635894
0.0616113
0.0604761
0.0598743
0.0585841
0.0576982
0.0562723
0.0546045
0.0536925
0.052964
0.0496279
0.0444737
0.0410776
0.040069
0.0393725
0.0404712
0.0406479
0.0416801
0.0412615
0.0376049
0.0315834
0.0240199
0.0193895
0.0148487
0.0124094
0.0100875
0.00891409
0.00787707
0.00769947
0.00743648
0.00764457
0.00744474
0.00806906
0.00779764
0.00899011
0.00860959
0.0108228
0.0103612
0.0142726
0.0134777
0.0194693
0.0182961
0.0265337
0.0254529
0.0368375
0.0368994
0.0507661
0.0518399
0.0669604
0.0697178
0.0860842
0.0910198
0.104958
0.109742
0.114299
0.115448
0.115128
0.000121079
0.000126339
0.00013932
0.000151941
0.000160031
0.000162343
0.00016247
0.000163403
0.000166645
0.00018028
0.000225802
0.000264688
0.000281766
0.000282326
0.000269763
0.000257724
0.000258349
0.000272079
0.000289595
0.000292102
0.000290642
0.00027782
0.000269669
0.000270249
0.00027485
0.000295505
0.000327554
0.000396717
0.000477539
0.000568188
0.0007443
0.000920036
0.00130935
0.00173069
0.00245654
0.00399097
0.0055169
0.00852774
0.0139661
0.0195483
0.0313701
0.048004
0.0654512
0.106601
0.152075
0.213653
0.380814
0.725831
0.791979
0.717535
0.546717
0.439895
0.352385
0.289614
0.258527
0.249529
0.251709
0.256458
0.257202
0.259128
0.261098
0.262422
0.262592
0.256038
0.246972
0.242473
0.242375
0.247724
0.248488
0.247229
0.243738
0.233335
0.214961
0.191568
0.173802
0.159193
0.146346
0.134881
0.127977
0.120921
0.109416
0.10283
0.0985853
0.0918673
0.0829656
0.0772693
0.0728099
0.0654368
0.0592607
0.0543486
0.0485664
0.0423343
0.0376652
0.035784
0.0357373
0.0376194
0.0445685
0.0841842
0.153077
0.172032
0.157061
0.135902
0.150517
0.273005
0.412183
0.434646
0.327911
0.235995
0.181743
0.136522
0.103661
0.0753171
0.0636091
0.0601129
0.0558617
0.0534216
0.0538974
0.0538675
0.0595273
0.0570608
0.0578705
0.058339
0.0608031
0.071544
0.0822608
0.0837907
0.0852473
0.0823721
0.0822907
0.0765507
0.0763826
0.0681787
0.0667838
0.0624959
0.0654339
0.0660595
0.069099
0.0691231
0.0700505
0.0685415
0.0677655
0.0657411
0.0649023
0.0625053
0.0616254
0.0597508
0.0592669
0.0578267
0.0572825
0.0561402
0.0545429
0.0531377
0.0521207
0.0480475
0.0434958
0.0408017
0.0411775
0.0413446
0.0435316
0.0439877
0.0441466
0.0419842
0.0357392
0.0270064
0.0221499
0.0169583
0.0141365
0.0111978
0.0101918
0.00870675
0.00848588
0.00782393
0.00774447
0.00741473
0.00739179
0.0073651
0.00740305
0.00766842
0.00778934
0.00850819
0.00871029
0.0102948
0.0104697
0.0130556
0.013005
0.0167871
0.0168944
0.0227699
0.0231772
0.0309534
0.0318473
0.0411166
0.0431107
0.0536474
0.0571286
0.0689264
0.0747714
0.0871382
0.0969282
0.102615
0.000463276
0.000534969
0.000669056
0.000748099
0.000798876
0.000818747
0.000821625
0.000827858
0.000858218
0.00102486
0.00130455
0.00152096
0.00158204
0.00158163
0.00154124
0.00155522
0.00169506
0.0017766
0.00181239
0.00180233
0.00168249
0.00150716
0.00145796
0.00146809
0.0015142
0.00177625
0.0020274
0.00246786
0.00287084
0.00344618
0.00408142
0.00505849
0.00679988
0.00832885
0.0117169
0.0160832
0.020679
0.0326109
0.0423869
0.059203
0.0886346
0.115487
0.166365
0.24374
0.300399
0.427066
0.747489
0.847191
0.751003
0.569933
0.496284
0.416592
0.335547
0.275682
0.246789
0.244744
0.253739
0.263984
0.26435
0.260862
0.259114
0.259001
0.259001
0.255304
0.251917
0.248114
0.247785
0.252033
0.255476
0.2562
0.256096
0.252492
0.236203
0.218008
0.19809
0.177778
0.166453
0.161811
0.154443
0.144722
0.13672
0.131115
0.124259
0.116969
0.108844
0.103511
0.0991463
0.0888353
0.0782801
0.0724067
0.0650411
0.0547974
0.0462182
0.0408885
0.0392585
0.0398503
0.0437879
0.0714439
0.144428
0.166097
0.151256
0.129993
0.139568
0.229929
0.393269
0.438568
0.394626
0.289303
0.21415
0.174072
0.138093
0.0958264
0.075709
0.0665557
0.0610184
0.0599971
0.0599356
0.0618835
0.0643322
0.0612494
0.0621157
0.0597449
0.07178
0.0761569
0.0966446
0.0885595
0.0935873
0.0852096
0.0885926
0.082489
0.084114
0.0758309
0.0750611
0.0688381
0.0705065
0.0686044
0.0696783
0.069861
0.0704205
0.0689153
0.0676945
0.0646554
0.0637101
0.0616148
0.0608999
0.059404
0.059117
0.0580009
0.0575206
0.055695
0.0541411
0.050686
0.0487691
0.0446567
0.0437185
0.0421734
0.0428594
0.0429458
0.0447623
0.0446231
0.0442794
0.0410772
0.0363677
0.0290597
0.0241569
0.0178259
0.0156261
0.0117541
0.0111225
0.00958643
0.00967542
0.00882439
0.00898474
0.00823534
0.00849193
0.00810382
0.00834639
0.00820247
0.00837823
0.00871599
0.00896145
0.00994489
0.0101617
0.0114767
0.0116142
0.0135602
0.0137702
0.0167602
0.0171039
0.0209883
0.021446
0.0255957
0.0268254
0.0321966
0.034366
0.0410593
0.0445338
0.0521137
0.0596297
0.0654878
0.00524506
0.00572174
0.00646515
0.00685512
0.00702947
0.00713215
0.0071751
0.00723275
0.00775733
0.00905357
0.0102291
0.0109011
0.0109488
0.0107717
0.0105048
0.0105083
0.0110891
0.0114955
0.0116765
0.0116472
0.0111473
0.0103996
0.0102738
0.0103869
0.010678
0.0116265
0.0126458
0.0137365
0.0158112
0.0172604
0.0201341
0.0234491
0.0282758
0.0335522
0.0447181
0.0547389
0.0693444
0.0945135
0.11476
0.162874
0.203123
0.275494
0.384051
0.436644
0.518538
0.734313
0.869358
0.777016
0.555681
0.507096
0.479711
0.410556
0.330857
0.271112
0.240606
0.237245
0.252882
0.267142
0.275521
0.270741
0.26389
0.259476
0.25777
0.25916
0.257201
0.253698
0.253247
0.256024
0.258222
0.260908
0.261702
0.26206
0.244796
0.234551
0.219008
0.213904
0.203681
0.196765
0.185696
0.180903
0.178103
0.176082
0.170531
0.160496
0.148964
0.141199
0.125533
0.107331
0.0913024
0.083326
0.0748875
0.0657062
0.0563197
0.0481282
0.0433518
0.0426437
0.0444624
0.0678836
0.133682
0.150145
0.136394
0.124772
0.13541
0.220522
0.374121
0.433119
0.424881
0.352873
0.255656
0.210516
0.179624
0.139456
0.105706
0.0892532
0.0718069
0.0683871
0.0677595
0.0659256
0.0683281
0.0671505
0.0730323
0.0685545
0.108806
0.0847385
0.137176
0.0994102
0.119094
0.0936338
0.0993732
0.0878836
0.0898114
0.0821802
0.0830999
0.0783718
0.0789457
0.0750692
0.0733047
0.0716095
0.0709522
0.0696588
0.0674354
0.0641446
0.0617671
0.0601093
0.0595158
0.0585832
0.0581037
0.0569173
0.0559263
0.053397
0.0521782
0.0495436
0.0474984
0.0449437
0.0453003
0.0451751
0.046764
0.0472601
0.0502366
0.0496423
0.0484815
0.0397207
0.0337422
0.0254035
0.0222141
0.0168844
0.0157083
0.0133402
0.0135173
0.0123113
0.0123943
0.0112622
0.0115275
0.0105876
0.0108343
0.0101662
0.0104452
0.00981031
0.0101096
0.00995829
0.0100754
0.010427
0.0104965
0.0112464
0.0113191
0.0124725