/*--------------------------------*- C++ -*----------------------------------*\
| =========                 |                                                 |
| \\      /  F ield         | OpenFOAM: The Open Source CFD Toolbox           |
|  \\    /   O peration     | Version:  2.4.0                                 |
|   \\  /    A nd           | Web:      www.OpenFOAM.org                      |
|    \\/     M anipulation  |                                                 |
\*---------------------------------------------------------------------------*/
FoamFile
{
    version     2.0;
    format      ascii;
    class       volScalarField;
    location    "0.1";
    object      pMean;
}
// * * * * * * * * * * * * * * * * * * * * * * * * * * * * * * * * * * * * * //

dimensions      [0 2 -2 0 0 0 0];

internalField   nonuniform List<scalar> 
8800
(
129.263
116.332
108.428
104.462
102.113
100.252
98.5483
96.9245
95.3597
93.8295
92.3176
90.8213
89.34
87.8749
86.4195
84.9863
83.527
82.0466
80.4592
77.9892
126.21
115.981
108.59
104.571
102.172
100.277
98.5551
96.9243
95.3574
93.8269
92.3154
90.8189
89.3389
87.8726
86.4221
84.9817
83.5401
82.0533
80.4863
78.6467
124.28
116.047
109.17
104.933
102.335
100.354
98.6002
96.955
95.3788
93.8414
92.3237
90.8233
89.3415
87.8728
86.4244
84.979
83.5524
82.0694
80.6728
79.1006
122.771
116.1
109.734
105.337
102.512
100.441
98.6635
97.0106
95.4249
93.876
92.3479
90.8391
89.3525
87.88
86.4318
84.9868
83.5622
82.1178
80.7722
79.5973
121.546
116.066
110.193
105.722
102.676
100.508
98.7159
97.0686
95.4818
93.9216
92.3825
90.8619
89.3702
87.8917
86.4437
85.0004
83.5809
82.1743
80.8965
80.1873
120.579
115.965
110.548
106.053
102.821
100.553
98.7492
97.116
95.5338
93.968
92.4173
90.8874
89.386
87.9067
86.4551
85.0206
83.61
82.2519
81.0768
80.7288
119.838
115.848
110.809
106.321
102.953
100.581
98.7659
97.1513
95.577
94.008
92.4479
90.9097
89.4006
87.9203
86.4679
85.0445
83.651
82.3473
81.2798
81.1897
119.301
115.743
110.989
106.523
103.068
100.599
98.7716
97.1752
95.6103
94.0387
92.4727
90.9269
89.4139
87.9325
86.4854
85.0731
83.7071
82.447
81.4862
81.558
118.953
115.665
111.101
106.659
103.15
100.61
98.7719
97.1901
95.633
94.0614
92.4904
90.9404
89.4249
87.9454
86.5044
85.1068
83.767
82.549
81.6739
81.8521
118.783
115.623
111.156
106.727
103.191
100.616
98.7712
97.1978
95.6456
94.074
92.5011
90.9499
89.4351
87.9607
86.528
85.1458
83.8291
82.6501
81.8358
82.0928
118.783
115.622
111.156
106.728
103.191
100.616
98.7714
97.1989
95.6469
94.0766
92.5047
90.9556
89.4444
87.9767
86.5547
85.1878
83.893
82.7459
81.9721
82.2813
118.955
115.664
111.101
106.659
103.15
100.611
98.7727
97.1932
95.6373
94.0692
92.5011
90.958
89.4527
87.9944
86.5843
85.2325
83.9578
82.8361
82.0835
82.417
119.304
115.741
110.989
106.524
103.069
100.6
98.7735
97.1798
95.6173
94.0519
92.4908
90.9565
89.4595
88.0129
86.6153
85.2808
84.0238
82.9243
82.1691
82.4966
119.842
115.845
110.81
106.322
102.955
100.582
98.7694
97.1569
95.5875
94.0249
92.474
90.9502
89.4649
88.0306
86.6472
85.331
84.0929
83.0135
82.2383
82.5033
120.584
115.961
110.549
106.054
102.824
100.553
98.7544
97.1227
95.5477
93.9886
92.4513
90.9392
89.4686
88.0449
86.6789
85.3799
84.1664
83.1048
82.3138
82.4331
121.55
116.062
110.195
105.724
102.679
100.509
98.7224
97.0766
95.4991
93.945
92.4244
90.9244
89.4705
88.0553
86.7087
85.4243
84.2422
83.1971
82.4054
82.2999
122.777
116.095
109.736
105.338
102.517
100.443
98.6711
97.02
95.4455
93.9016
92.3975
90.9097
89.4704
88.0626
86.7335
85.4604
84.3104
83.2792
82.5033
82.142
124.285
116.044
109.171
104.933
102.34
100.357
98.6088
96.9656
95.4016
93.8693
92.3781
90.9003
89.4706
88.0696
86.7511
85.4877
84.3585
83.3406
82.5769
82.0352
126.216
115.978
108.591
104.572
102.177
100.28
98.564
96.9358
95.381
93.8564
92.3719
90.8997
89.4738
88.0767
86.7618
85.5046
84.3828
83.3758
82.6064
81.9825
129.269
116.329
108.43
104.462
102.119
100.255
98.5573
96.9361
95.3834
93.8594
92.375
90.9026
89.4769
88.0802
86.7659
85.5103
84.389
83.3871
82.6155
82.0812
77.0992
77.1412
76.8612
76.3022
75.5719
74.7312
73.8082
72.8673
71.9711
71.1593
70.4415
69.8231
69.3105
68.9096
68.6343
68.4706
68.3839
68.3498
68.3504
68.3683
68.3942
68.4259
68.4776
68.5674
68.7083
68.9063
69.1641
69.4859
69.8727
70.3266
70.8475
71.4342
72.0808
72.7821
73.5236
74.294
75.0793
75.8637
76.633
77.3787
78.0921
78.7593
79.3797
79.9482
80.4639
80.9227
81.3257
81.6748
81.971
82.2152
82.4141
82.5733
82.6996
82.8018
82.8905
82.981
83.0808
83.2031
83.3539
83.5364
83.7539
84.0025
84.2818
84.5876
84.9087
85.2423
85.5769
85.9059
86.2272
86.5301
86.8164
87.0831
87.3263
87.5518
87.7539
87.9365
88.097
88.2341
88.3582
88.4608
88.5462
88.6141
88.6749
88.7164
88.7515
88.7722
88.7794
88.7796
88.7714
88.7529
88.7193
88.6858
88.6611
88.6344
88.6057
88.578
88.5543
88.5337
88.5386
88.5636
88.6005
88.6554
88.7207
88.7961
88.8916
89.0144
89.1648
89.3552
89.5889
89.8652
90.1846
90.5425
90.9386
91.351
91.776
92.205
92.6222
93.0123
93.3735
93.6962
93.9734
94.2013
94.3811
94.5181
94.6104
94.6696
94.6913
94.6874
94.6586
94.6149
94.5615
94.5081
94.4585
94.4237
94.4
94.3942
94.4005
94.4268
94.4643
94.5198
94.5827
94.6633
94.7441
94.8386
94.9235
95.0181
95.0937
95.174
95.2275
95.2828
95.3074
95.3344
95.3303
95.3291
95.2966
95.2673
95.2089
95.1546
95.0733
94.9947
94.8915
94.7905
94.6696
94.5495
94.4152
94.2783
94.1338
93.98
93.826
93.6538
93.4891
93.296
93.1171
92.9011
92.7035
92.4625
92.2412
91.9716
91.7217
91.4183
91.1348
90.7936
90.4653
90.0863
89.6922
89.282
88.7992
88.3309
87.7553
87.1735
86.4354
85.6347
84.5986
83.315
81.6498
79.4245
76.1977
70.7706
64.4927
36.3496
77.7611
77.5424
77.3328
76.842
76.1357
75.3277
74.4839
73.6465
72.8443
72.0974
71.4227
70.8295
70.3269
69.9257
69.6309
69.436
69.3218
69.2671
69.255
69.27
69.3015
69.345
69.4048
69.494
69.6265
69.811
70.0505
70.3502
70.7139
71.1422
71.6346
72.1868
72.7935
73.4477
74.1356
74.8467
75.5683
76.2881
76.9878
77.6627
78.3051
78.9044
79.4558
79.9604
80.4147
80.8173
81.169
81.4674
81.7188
81.9189
82.0771
82.1989
82.2935
82.3711
82.4432
82.5251
82.6197
82.7385
82.885
83.0624
83.2746
83.5148
83.7848
84.0799
84.3902
84.7101
85.0301
85.3473
85.6545
85.9479
86.2258
86.4821
86.7182
86.9318
87.1197
87.2906
87.4345
87.5637
87.6769
87.7728
87.8553
87.9276
87.9922
88.0409
88.087
88.1149
88.133
88.1441
88.142
88.1234
88.0922
88.0649
88.0498
88.0274
88.0085
87.9915
87.9832
87.987
88.0236
88.0799
88.1558
88.2464
88.3467
88.4503
88.5778
88.72
88.9027
89.1145
89.3803
89.6795
90.0322
90.4208
90.8566
91.3063
91.7797
92.2498
92.7148
93.1405
93.5449
93.9007
94.2165
94.471
94.6822
94.8346
94.9485
95.011
95.0501
95.0445
95.0258
94.9754
94.9218
94.8536
94.7978
94.7399
94.7073
94.674
94.6722
94.6691
94.696
94.7206
94.7728
94.8205
94.8906
94.9507
95.0276
95.0874
95.1579
95.2046
95.2575
95.282
95.3109
95.3108
95.3144
95.2882
95.2645
95.211
95.1618
95.0835
95.0108
94.9082
94.8132
94.6884
94.5754
94.432
94.3036
94.1443
94.0014
93.8272
93.6684
93.4793
93.3019
93.0975
92.8959
92.6741
92.4413
92.2011
91.9296
91.667
91.3513
91.0573
90.695
90.357
89.9409
89.5463
89.0606
88.5975
88.0355
87.4549
86.8107
86.0442
85.2012
84.139
82.8767
81.2352
79.1349
76.0053
72.9483
63.5434
56.7913
30.5666
78.35
78.0677
77.7358
77.2152
76.5358
75.7898
75.0383
74.3073
73.6021
72.9308
72.3115
71.7588
71.2866
70.902
70.6064
70.3974
70.2673
70.1979
70.1745
70.184
70.2168
70.2686
70.3402
70.4371
70.5721
70.7564
70.9945
71.2911
71.648
72.0621
72.5336
73.055
73.6219
74.2267
74.8597
75.5059
76.1557
76.8006
77.4269
78.0239
78.5889
79.1166
79.597
80.0347
80.4227
80.7612
81.047
81.2808
81.4658
81.6041
81.7033
81.7734
81.8254
81.8686
81.916
81.9771
82.0592
82.171
82.3144
82.4926
82.7057
82.9511
83.2265
83.527
83.8444
84.1676
84.4933
84.8135
85.124
85.419
85.6945
85.9482
86.1788
86.3826
86.5636
86.7251
86.8627
86.9921
87.1026
87.2014
87.2859
87.3658
87.4294
87.4891
87.5424
87.5728
87.6024
87.6219
87.6221
87.5993
87.5715
87.5536
87.5425
87.5232
87.5132
87.5129
87.5248
87.5579
87.6281
87.7138
87.8249
87.9451
88.0793
88.2157
88.3773
88.5475
88.7567
88.9913
89.2863
89.6078
89.9919
90.4086
90.8746
91.3526
91.8585
92.3595
92.8614
93.3201
93.7635
94.1478
94.495
94.7702
95.0119
95.1778
95.3121
95.3793
95.4291
95.4248
95.4122
95.3555
95.3045
95.2179
95.1579
95.0724
95.0275
94.9657
94.9484
94.9182
94.9289
94.9274
94.9615
94.9819
95.0335
95.067
95.1258
95.1615
95.2152
95.2416
95.2813
95.291
95.3101
95.3003
95.2954
95.2608
95.2274
95.1683
95.1089
95.0291
94.9435
94.8421
94.7298
94.6086
94.4741
94.337
94.1836
94.0325
93.8615
93.6965
93.5066
93.3254
93.114
92.9133
92.677
92.4529
92.1878
91.9337
91.6361
91.3418
91.0088
90.6598
90.2879
89.8695
89.4511
88.9548
88.4697
87.8837
87.3042
86.5886
85.8508
84.9344
83.8905
82.6042
81.2055
78.7917
77.4962
71.7178
70.4557
58.1618
49.4915
31.8292
79.4345
79.0374
78.2107
77.3615
76.613
75.967
75.3852
74.8342
74.2921
73.7568
73.2412
72.7635
72.3395
71.9808
71.6934
71.4802
71.3378
71.2565
71.2207
71.2203
71.25
71.3069
71.3909
71.5031
71.6512
71.8452
72.0887
72.385
72.7331
73.1294
73.572
74.0551
74.5729
75.1186
75.6833
76.2559
76.8285
77.391
77.9365
78.4517
78.9353
79.381
79.7827
80.138
80.4443
80.6994
80.9018
81.0528
81.1552
81.2178
81.2474
81.2585
81.2609
81.2664
81.2876
81.3313
81.4066
81.5183
81.6698
81.8611
82.0931
82.3625
82.6616
82.9865
83.3252
83.6707
84.0135
84.3487
84.671
84.9725
85.2514
85.5029
85.7296
85.9298
86.111
86.2692
86.4124
86.5439
86.6602
86.7629
86.8527
86.9387
87.0066
87.078
87.1337
87.1707
87.2106
87.2328
87.2301
87.2035
87.1795
87.1659
87.163
87.148
87.1593
87.1731
87.2214
87.2813
87.3913
87.5036
87.6532
87.795
87.9598
88.1142
88.3051
88.4956
88.7292
88.9822
89.3024
89.6373
90.0543
90.4829
90.9804
91.4712
92.0106
92.5245
93.0592
93.5334
94.0171
94.4165
94.7985
95.0805
95.3554
95.5233
95.681
95.7417
95.8102
95.7931
95.7984
95.7209
95.6837
95.5724
95.5152
95.3992
95.3459
95.2491
95.2198
95.1519
95.1527
95.1126
95.1385
95.1204
95.1651
95.1605
95.2137
95.2144
95.2658
95.2613
95.3023
95.284
95.3082
95.2718
95.2749
95.213
95.1905
95.1034
95.058
94.9497
94.8819
94.7509
94.6581
94.5053
94.3895
94.2187
94.0835
93.8962
93.7438
93.5394
93.3692
93.1443
92.9539
92.705
92.4901
92.2104
91.9656
91.6484
91.3674
91.0053
90.6787
90.2623
89.8771
89.3936
88.9394
88.377
87.8379
87.1636
86.5374
85.6528
84.9933
83.6247
83.0635
80.5242
80.5625
75.6618
76.1598
67.9523
65.6253
54.8444
43.9297
32.8586
80.6963
80.1267
78.6854
77.4338
76.553
75.9892
75.6053
75.2782
74.9423
74.5791
74.1963
73.812
73.4466
73.12
72.8462
72.6349
72.4868
72.3964
72.3533
72.3511
72.3847
72.4512
72.5496
72.6791
72.8412
73.043
73.2858
73.5705
73.8977
74.265
74.6673
75.1023
75.5619
76.0404
76.5302
77.0252
77.5132
77.9879
78.4436
78.8705
79.2619
79.6143
79.9235
80.1832
80.3935
80.5508
80.6592
80.7208
80.7423
80.7311
80.6981
80.6554
80.6148
80.5894
80.5893
80.6238
80.7025
80.8297
81.0065
81.2316
81.5013
81.807
82.1434
82.5001
82.8701
83.2458
83.6164
83.976
84.3163
84.6323
84.9189
85.1755
85.4061
85.6104
85.7957
85.9578
86.1072
86.2434
86.366
86.4721
86.5719
86.6578
86.7364
86.8137
86.8739
86.9166
86.9635
86.9817
86.9713
86.9392
86.921
86.9015
86.9109
86.9051
86.9481
86.9882
87.078
87.1781
87.3244
87.4662
87.6544
87.8212
88.011
88.1845
88.3969
88.5961
88.8489
89.111
89.4411
89.7835
90.2181
90.6505
91.1684
91.666
92.2328
92.7558
93.3171
93.7973
94.3087
94.7128
95.1214
95.4052
95.7048
95.8712
96.0478
96.0958
96.1825
96.1462
96.1681
96.0682
96.0438
95.9052
95.8569
95.7006
95.6547
95.5056
95.4838
95.3568
95.3682
95.2672
95.3084
95.2292
95.2927
95.2275
95.3057
95.2436
95.3265
95.2588
95.3358
95.2524
95.316
95.2107
95.2567
95.1267
95.1539
95.0009
95.0093
94.8325
94.8212
94.6193
94.5881
94.3621
94.3128
94.065
93.9986
93.7296
93.6458
93.3551
93.2531
92.9372
92.8152
92.469
92.3234
91.9399
91.7642
91.333
91.1221
90.6285
90.3798
89.7964
89.515
88.7959
88.5025
87.5633
87.3338
86.0167
85.9953
84.0319
84.4262
81.4866
82.2578
78.0219
78.6735
73.0318
71.7656
65.1422
59.434
52.3992
41.7851
34.1917
81.6986
81.0791
79.2616
77.6976
76.6482
76.0728
75.805
75.6592
75.5186
75.3335
75.0969
74.8207
74.5282
74.2444
73.9922
73.7866
73.6353
73.5396
73.4952
73.4961
73.5369
73.6133
73.7243
73.8669
74.0377
74.2388
74.4715
74.7357
75.0331
75.362
75.7183
76.0974
76.4939
76.9008
77.313
77.7242
78.1252
78.5107
78.8737
79.2074
79.5031
79.7585
79.9691
80.1322
80.2464
80.3124
80.3332
80.3133
80.2604
80.1837
80.0948
80.0055
79.9301
79.8814
79.8723
79.9126
80.0101
80.1683
80.3823
80.6502
80.9633
81.3128
81.6914
82.0901
82.5015
82.9141
83.3182
83.7061
84.0712
84.4064
84.7089
84.9799
85.22
85.4353
85.6289
85.8014
85.9602
86.1059
86.2327
86.3454
86.4428
86.5277
86.6124
86.6882
86.7467
86.793
86.8425
86.857
86.8497
86.809
86.8045
86.7893
86.8058
86.8137
86.8876
86.9687
87.0951
87.2357
87.4237
87.5934
87.8086
87.9927
88.2042
88.3996
88.6299
88.8355
89.1027
89.3689
89.7
90.0452
90.4837
90.9127
91.4367
91.9328
92.5121
93.0353
93.611
94.095
94.619
95.022
95.4405
95.7242
96.0345
96.1953
96.3813
96.4145
96.5072
96.4532
96.4815
96.3611
96.3442
96.1782
96.1382
95.9456
95.906
95.7128
95.6915
95.5159
95.5276
95.3752
95.4209
95.2866
95.3616
95.2365
95.3336
95.2055
95.3149
95.174
95.2886
95.1236
95.2373
95.0437
95.1551
94.9298
95.0376
94.7786
94.8833
94.5852
94.6865
94.3454
94.4444
94.0597
94.1607
93.7345
93.8403
93.3708
93.4823
92.9651
93.0816
92.5102
92.6328
91.9965
92.1264
91.4093
91.5476
90.7307
90.8824
89.9379
90.1126
88.9965
89.2123
87.8613
88.1406
86.4696
86.8457
84.7356
85.2026
82.5325
82.9314
79.7652
79.5735
76.1197
74.4765
70.8278
67.0213
62.8311
56.2173
51.7235
42.8748
36.2078
82.4221
81.8066
79.8018
78.0345
76.8472
76.2297
76.0266
76.0187
76.0423
76.0178
75.9215
75.7569
75.5427
75.3054
75.0741
74.8726
74.7173
74.6169
74.5709
74.5742
74.6222
74.7085
74.8292
74.9794
75.1529
75.3486
75.568
75.8098
76.0745
76.3619
76.6683
76.9889
77.3205
77.657
77.9931
78.3236
78.6423
78.94
79.2122
79.4531
79.656
79.8171
79.9343
80.0064
80.0325
80.0147
79.957
79.8663
79.7486
79.6147
79.4765
79.3483
79.2471
79.1866
79.1813
79.2398
79.3666
79.5612
79.8186
80.1322
80.4921
80.8911
81.3181
81.7625
82.2168
82.6686
83.1069
83.5263
83.9211
84.2839
84.612
84.9026
85.1613
85.3925
85.6006
85.789
85.9621
86.1183
86.2541
86.3683
86.4622
86.5504
86.6359
86.7029
86.7633
86.8125
86.8626
86.8687
86.8659
86.8233
86.823
86.8268
86.8601
86.8958
87.0133
87.1379
87.3087
87.48
87.705
87.9034
88.1394
88.3235
88.5488
88.7578
88.9898
89.1933
89.4667
89.7315
90.068
90.4126
90.8502
91.273
91.7958
92.2827
92.8531
93.3629
93.9301
94.4106
94.9324
95.3303
95.7462
96.026
96.3339
96.4874
96.6697
96.6916
96.775
96.7089
96.7272
96.5942
96.5686
96.3889
96.3361
96.1304
96.0722
95.8603
95.8154
95.6149
95.6005
95.4174
95.4379
95.2695
95.3225
95.1611
95.2389
95.0733
95.168
94.9894
95.0952
94.8934
95.0053
94.7751
94.8914
94.6275
94.7452
94.4393
94.5588
94.2068
94.3291
93.9293
94.0557
93.6051
93.7392
93.2371
93.3826
92.8241
92.9836
92.3636
92.5376
91.8483
92.035
91.2654
91.4616
90.5994
90.8031
89.8308
90.0402
88.9326
89.1395
87.8697
88.0594
86.5962
86.736
85.0499
85.0722
83.152
82.8845
80.77
79.9408
77.7373
76.0978
73.7784
71.2018
68.6251
64.6911
62.006
56.4813
52.8238
45.5867
39.0291
82.9059
82.3298
80.2794
78.4292
77.1786
76.5278
76.3513
76.4266
76.5625
76.6546
76.6658
76.5919
76.4455
76.2527
76.0465
75.8573
75.706
75.6063
75.5617
75.569
75.6232
75.7167
75.842
75.9937
76.1652
76.3526
76.556
76.7735
77.0049
77.2507
77.5083
77.775
78.0463
78.3171
78.5826
78.838
79.0769
79.2924
79.4797
79.6333
79.7484
79.8215
79.8519
79.84
79.7872
79.6965
79.5724
79.421
79.2473
79.0635
78.885
78.7281
78.6099
78.5473
78.5528
78.6343
78.7953
79.0316
79.3376
79.703
80.1155
80.5655
81.0406
81.5313
82.0277
82.5188
82.9964
83.4547
83.8835
84.2778
84.6323
84.9474
85.2262
85.4778
85.7041
85.9096
86.0954
86.2617
86.4035
86.5127
86.6063
86.6968
86.7781
86.8354
86.8995
86.9459
87.0165
87.0156
87.0211
86.9871
86.9887
87.0109
87.0651
87.1513
87.3128
87.4913
87.7071
87.919
88.166
88.3826
88.634
88.8279
89.0546
89.27
89.4954
89.684
89.9461
90.1985
90.5248
90.862
91.2869
91.7021
92.211
92.693
93.2401
93.7379
94.2842
94.7564
95.2613
95.6492
96.0517
96.3241
96.6185
96.7635
96.9302
96.9423
97.006
96.9283
96.9259
96.7836
96.7363
96.5496
96.4731
96.2602
96.1745
95.9514
95.8754
95.6599
95.6085
95.4083
95.3883
95.2035
95.2126
95.0372
95.07
94.8953
94.9447
94.7604
94.8214
94.6205
94.6853
94.4582
94.5226
94.262
94.3265
94.0289
94.0932
93.7546
93.8173
93.4341
93.4969
93.0666
93.133
92.6538
92.726
92.193
92.2704
91.6775
91.7591
91.0971
91.1797
90.4384
90.5153
89.6831
89.7435
88.8049
88.831
87.7703
87.733
86.5379
86.3971
85.0619
84.7594
83.29
82.7432
81.1591
80.2648
78.5964
77.2478
75.5077
73.72
71.9182
69.5993
67.6928
64.3862
62.2569
57.6497
53.9081
47.8111
41.5741
83.2646
82.7289
80.6959
78.826
77.55
76.8765
76.7088
76.8341
77.0478
77.2267
77.3228
77.3272
77.2467
77.1033
76.9307
76.7623
76.6231
76.529
76.4872
76.497
76.5528
76.6478
76.7727
76.9213
77.0866
77.2629
77.4481
77.6421
77.843
78.0503
78.2642
78.4816
78.6972
78.9075
79.109
79.2945
79.4584
79.5971
79.7038
79.775
79.8086
79.801
79.753
79.668
79.5484
79.3955
79.2135
79.0074
78.7855
78.5606
78.3497
78.1692
78.0396
77.9794
78.0003
78.1096
78.3098
78.5964
78.957
79.3772
79.8456
80.3498
80.8768
81.4158
81.9565
82.4888
83.0075
83.5045
83.9694
84.396
84.7797
85.1192
85.4212
85.6918
85.9327
86.1502
86.3424
86.5133
86.6565
86.7613
86.8526
86.9371
87.016
87.0707
87.1235
87.1717
87.2695
87.2635
87.309
87.2691
87.2975
87.3304
87.435
87.5785
87.7927
88.008
88.2658
88.514
88.7878
89.0113
89.2624
89.4727
89.7091
89.9108
90.1379
90.3152
90.5563
90.7902
91.093
91.4051
91.8156
92.199
92.686
93.1401
93.6612
94.1371
94.6653
95.1241
95.6086
95.9794
96.3635
96.6225
96.8983
97.0308
97.1758
97.1754
97.2154
97.1254
97.097
96.946
96.8708
96.6787
96.5742
96.3567
96.2399
96.0121
95.9008
95.6777
95.5853
95.3765
95.3108
95.117
95.0765
94.8933
94.8746
94.694
94.689
94.5023
94.5048
94.3039
94.3074
94.0843
94.0858
93.8354
93.8321
93.5525
93.5436
93.2321
93.2141
92.865
92.8366
92.4476
92.4096
91.9796
91.932
91.4613
91.4005
90.8838
90.8036
90.236
90.1274
89.5033
89.3535
88.666
88.4584
87.7007
87.4113
86.5766
86.1774
85.258
84.717
83.7134
82.9986
81.9158
81.0022
79.8329
78.6934
77.471
76.0987
74.8278
73.1832
71.8469
69.7022
68.161
65.1216
62.8426
58.7084
54.7197
49.4186
43.7012
83.5456
83.0424
81.0458
79.1924
77.9257
77.2618
77.1178
77.2881
77.561
77.8027
77.9594
78.02
77.9887
77.8849
77.7416
77.5934
77.4683
77.3827
77.3458
77.3576
77.4141
77.508
77.631
77.7747
77.9323
78.0973
78.2662
78.4381
78.611
78.7843
78.9578
79.1289
79.2935
79.4474
79.587
79.7066
79.8004
79.8645
79.895
79.8894
79.8466
79.7668
79.6514
79.5032
79.3247
79.1191
78.8904
78.6425
78.383
78.1252
77.8873
77.6924
77.5623
77.5132
77.5588
77.7074
77.9568
78.2963
78.7106
79.1874
79.7098
80.2652
80.8427
81.4306
82.0149
82.5879
83.144
83.6754
84.1733
84.6306
85.0429
85.4089
85.733
86.0198
86.2753
86.4999
86.6958
86.8689
87.0091
87.1076
87.1925
87.2677
87.3424
87.3822
87.4336
87.4819
87.6137
87.6028
87.7002
87.6504
87.721
87.7607
87.9581
88.1659
88.4406
88.6571
88.9677
89.2378
89.5261
89.7365
89.9913
90.2104
90.453
90.6457
90.856
91.0156
91.238
91.4462
91.7351
92.0251
92.4086
92.7685
93.2241
93.6448
94.1319
94.5835
95.0791
95.5194
95.9745
96.3265
96.6859
96.9321
97.1825
97.3064
97.4186
97.4147
97.4182
97.327
97.2605
97.1123
96.9985
96.8127
96.6675
96.459
96.2993
96.0819
95.9235
95.7101
95.5656
95.3655
95.2411
95.0562
94.9528
94.7804
94.6931
94.5266
94.4494
94.2806
94.2062
94.0288
93.9529
93.7615
93.6787
93.4693
93.3765
93.1456
93.038
92.7788
92.6535
92.3632
92.2205
91.9005
91.7391
91.3886
91.2051
90.8228
90.6129
90.1954
89.9527
89.4975
89.2137
88.7157
88.3799
87.8354
87.4347
86.8396
86.3586
85.709
85.1332
84.4254
83.7398
82.9787
82.1659
81.3505
80.3999
79.5455
78.432
77.5792
76.2578
75.3891
73.7038
72.6359
70.3495
68.7822
65.7553
63.1649
59.3469
55.2974
50.5559
45.4468
83.7639
83.2854
81.3289
79.5196
78.2951
77.6718
77.5671
77.7762
78.0876
78.3665
78.5584
78.6529
78.6538
78.5813
78.4665
78.344
78.2404
78.1718
78.1462
78.1655
78.226
78.3203
78.4411
78.5793
78.7272
78.8794
79.0312
79.1803
79.3259
79.4669
79.6015
79.729
79.8452
79.9441
80.024
80.0795
80.1053
80.0988
80.0589
79.984
79.8747
79.7328
79.5602
79.3597
79.1351
78.8881
78.6202
78.3367
78.049
77.7715
77.5232
77.3269
77.2047
77.1769
77.2582
77.454
77.7561
78.1494
78.62
79.1543
79.7314
80.3384
80.9647
81.5956
82.2171
82.8242
83.4113
83.9721
84.4983
84.9822
85.4199
85.8082
86.1505
86.4526
86.72
86.9504
87.1486
87.3229
87.4608
87.5548
87.6303
87.6943
87.7627
87.7835
87.8407
87.8804
88.0518
88.0575
88.2058
88.1292
88.2899
88.3232
88.6512
88.9077
89.2417
89.4132
89.8038
90.0766
90.3825
90.5332
90.8224
91.0411
91.2933
91.4576
91.6691
91.7833
92.0064
92.1646
92.4476
92.6858
93.057
93.3683
93.8188
94.1825
94.6703
95.0574
95.5565
95.925
96.382
96.6771
97.0477
97.2444
97.5016
97.5888
97.6868
97.669
97.6463
97.5504
97.4542
97.3055
97.1606
96.977
96.7997
96.5955
96.4025
96.1908
95.9967
95.7893
95.6051
95.4101
95.2415
95.0627
94.9109
94.7448
94.6048
94.4474
94.3145
94.1588
94.0269
93.8684
93.7326
93.5652
93.4199
93.2393
93.0802
92.8816
92.7053
92.4863
92.2895
92.0468
91.827
91.5612
91.3175
91.0295
90.7603
90.448
90.1494
89.811
89.4778
89.1105
88.7373
88.3378
87.9171
87.4834
87.0068
86.5372
85.9944
85.4913
84.8741
84.3464
83.6417
83.1005
82.2839
81.7382
80.7838
80.2362
79.0867
78.497
77.0687
76.2975
74.4266
73.2666
70.8674
69.0387
66.0904
63.2377
59.6672
55.7847
51.4865
46.934
83.919
83.4591
81.5509
79.8114
78.6584
78.1041
78.056
78.3031
78.6381
78.9343
79.1435
79.257
79.2796
79.2324
79.1458
79.0513
78.9731
78.9254
78.9147
78.9436
79.0077
79.1004
79.2153
79.3433
79.4773
79.6128
79.7447
79.8711
79.9898
80.0995
80.1982
80.2832
80.3512
80.3972
80.4186
80.4115
80.3728
80.3033
80.2018
80.0707
79.9082
79.7146
79.4936
79.2483
78.9825
78.6994
78.4021
78.098
77.801
77.5247
77.284
77.1032
77.0067
77.0132
77.1317
77.3697
77.7203
78.17
78.699
79.2847
79.9089
80.5613
81.2288
81.896
82.5526
83.1916
83.8056
84.3879
84.9321
85.4342
85.8891
86.2927
86.6456
86.9545
87.2248
87.4539
87.6472
87.8229
87.9628
88.0629
88.1334
88.1964
88.2563
88.2677
88.3267
88.3795
88.5715
88.6143
88.7762
88.7109
88.9978
89.0114
89.4755
89.7438
90.1281
90.2226
90.7131
90.9572
91.2821
91.3369
91.7034
91.8825
92.1787
92.2912
92.5385
92.5758
92.8377
92.9132
93.215
93.3773
93.7522
93.9774
94.4419
94.71
95.2319
95.5191
96.0645
96.32
96.8283
97.0208
97.4513
97.5525
97.8648
97.8727
98.0026
97.9464
97.9224
97.8162
97.7021
97.5529
97.3888
97.2036
97.0065
96.8011
96.5878
96.376
96.161
95.9538
95.7465
95.5508
95.3573
95.1778
94.9983
94.8312
94.6622
94.5053
94.3426
94.1902
94.0289
93.8773
93.7115
93.554
93.3787
93.2123
93.0241
92.8467
92.6415
92.449
92.2222
92.0124
91.7617
91.5346
91.2596
91.016
90.7142
90.4535
90.1215
89.8453
89.4787
89.1875
88.7802
88.4762
88.0204
87.7053
87.192
86.8702
86.2879
85.9648
85.3005
84.9813
84.215
83.896
82.9967
82.6601
81.588
81.1894
79.8898
79.3319
77.7252
76.8429
74.8546
73.4484
71.0624
68.941
66.1364
63.2042
59.8521
56.2309
52.3081
48.1929
83.9962
83.5484
81.7088
80.0753
79.0286
78.5736
78.5957
78.8736
79.2137
79.5063
79.7124
79.8268
79.8578
79.8284
79.7674
79.7017
79.6516
79.6279
79.6356
79.6757
79.7446
79.8354
79.9427
80.0596
80.1791
80.2971
80.4101
80.5141
80.6067
80.6859
80.7485
80.7908
80.8111
80.8051
80.7709
80.7083
80.6138
80.4902
80.3371
80.1534
79.9402
79.6978
79.4324
79.149
78.8527
78.5496
78.2463
77.9496
77.6657
77.412
77.2103
77.0753
77.022
77.0685
77.2286
77.5073
77.8971
78.3881
78.9632
79.5981
80.2671
80.9544
81.6517
82.3487
83.0361
83.7008
84.3335
84.9275
85.482
85.9953
86.4626
86.8742
87.2315
87.5394
87.8037
88.0251
88.2095
88.3735
88.5127
88.6142
88.6813
88.7424
88.7952
88.8101
88.8644
88.9634
89.1676
89.2478
89.3963
89.4217
89.7869
89.8167
90.3691
90.6093
90.9892
91.0405
91.6256
91.793
92.1199
92.1046
92.5824
92.6754
93.0469
93.0798
93.386
93.3438
93.6705
93.6563
94.0182
94.0874
94.487
94.6094
95.0853
95.2469
95.7968
95.9717
96.5595
96.701
97.2705
97.3529
97.8685
97.8494
98.2581
98.139
98.3519
98.2253
98.2477
98.1208
98.0076
97.8648
97.6852
97.5057
97.2905
97.0912
96.8577
96.6532
96.4177
96.2197
95.9896
95.8044
95.5867
95.4185
95.2119
95.0577
94.8607
94.7196
94.5282
94.395
94.2046
94.076
93.8808
93.7525
93.5476
93.4175
93.1993
93.0649
92.8283
92.6863
92.426
92.2745
91.9876
91.8296
91.515
91.353
91.0065
90.8424
90.4597
90.2956
89.8717
89.7096
89.2372
89.0796
88.5511
88.3981
87.8028
87.6533
86.9801
86.8278
86.063
85.8947
85.0205
84.8102
83.803
83.5076
82.335
81.877
80.4871
79.7627
78.0977
76.9639
74.996
73.3217
71.0467
68.7573
66.0831
63.2095
60.0506
56.6711
53.0577
49.2756
83.942
83.5117
81.8003
80.3344
79.4384
79.109
79.1993
79.4893
79.8099
80.0752
80.2584
80.3589
80.3905
80.3771
80.3436
80.3106
80.2922
80.296
80.3239
80.3758
80.4479
80.5343
80.6307
80.7323
80.8334
80.9306
81.021
81.0986
81.1617
81.2062
81.2279
81.2256
81.195
81.138
81.0539
80.9421
80.8019
80.6319
80.4368
80.2106
79.9551
79.6763
79.3747
79.0675
78.7683
78.4784
78.1937
77.9194
77.6761
77.4778
77.3322
77.2517
77.2552
77.3575
77.5626
77.8736
78.292
78.8154
79.427
80.098
80.7976
81.5092
82.2294
82.9502
83.6596
84.342
84.9865
85.5896
86.1521
86.6747
87.149
87.5666
87.925
88.2283
88.4849
88.7003
88.8758
89.0278
89.1584
89.2552
89.318
89.3741
89.4138
89.4337
89.4731
89.6148
89.7792
89.8999
90.0387
90.2291
90.6214
90.6962
91.2681
91.4602
91.7591
91.8823
92.4899
92.5804
92.8597
92.86
93.3936
93.4188
93.847
93.8313
94.1586
94.0567
94.4257
94.3459
94.7492
94.7385
95.1532
95.199
95.6708
95.7551
96.301
96.3983
96.9899
97.0526
97.6517
97.6642
98.2188
98.1346
98.5844
98.3911
98.694
98.4915
98.6025
98.4412
98.3573
98.2326
98.0332
97.8767
97.6346
97.4579
97.1949
97.0149
96.7479
96.577
96.3145
96.1596
95.907
95.7709
95.5273
95.4091
95.1731
95.072
94.8396
94.752
94.5182
94.4413
94.2011
94.1317
93.8803
93.8166
93.5499
93.4895
93.2021
93.1432
92.8303
92.7724
92.4292
92.3725
91.9963
91.9417
91.5298
91.4785
91.0275
90.9802
90.4856
90.4418
89.8977
89.8538
89.2534
89.2038
88.5377
88.4711
87.7297
87.6291
86.7993
86.6406
85.7052
85.4513
84.3882
83.9822
82.7639
82.1331
80.7301
79.774
78.1561
76.7846
74.9274
73.0882
70.9186
68.6061
66.0405
63.2742
60.2864
57.1089
53.737
50.1995
83.665
83.2809
81.823
80.6206
79.9313
79.7344
79.8689
80.1373
80.4074
80.6209
80.7639
80.8417
80.8719
80.8749
80.869
80.8677
80.8785
80.9052
80.9476
81.0039
81.0714
81.1463
81.2255
81.3058
81.3839
81.4555
81.5187
81.5679
81.5986
81.6076
81.5897
81.5451
81.4709
81.369
81.2431
81.0909
80.9162
80.715
80.49
80.2397
79.9603
79.6666
79.3673
79.0659
78.7754
78.5094
78.2715
78.0591
77.8786
77.745
77.6703
77.6641
77.741
77.9066
78.1568
78.4963
78.938
79.4885
80.1286
80.8199
81.5309
82.2511
82.9794
83.7092
84.4254
85.1109
85.7586
86.366
86.9332
87.4597
87.9383
88.3565
88.712
89.0078
89.2528
89.459
89.6255
89.7601
89.8789
89.9689
90.0322
90.0945
90.1355
90.1616
90.186
90.3542
90.4211
90.6044
90.7332
91.0523
91.4077
91.5859
92.1051
92.1923
92.4038
92.7328
93.2702
93.2715
93.4474
93.6466
94.104
94.1204
94.4999
94.4722
94.731
94.7421
95.0395
95.0163
95.3805
95.3489
95.7217
95.7349
96.1324
96.2244
96.6655
96.8082
97.2654
97.426
97.8899
98.0038
98.4357
98.4139
98.82
98.6347
98.9679
98.7362
98.9327
98.7625
98.7205
98.6113
98.3955
98.2643
97.9965
97.844
97.5529
97.3987
97.1024
96.9595
96.6681
96.5442
96.2612
96.1581
95.8827
95.8001
95.5309
95.468
95.2018
95.156
94.8878
94.8566
94.5822
94.5618
94.2759
94.2646
93.9639
93.9611
93.6416
93.6441
93.2991
93.3035
92.9281
92.933
92.5247
92.5303
92.0871
92.0916
91.6107
91.6114
91.0892
91.0817
90.5137
90.49
89.8703
89.8193
89.141
89.0453
88.2996
88.1349
87.3119
87.0455
86.1284
85.7215
84.6909
84.0915
82.9274
82.0748
80.7535
79.59
78.0744
76.555
74.7818
72.8891
70.7903
68.5186
66.0501
63.3977
60.5563
57.5404
54.3539
51.0131
83.133
82.8356
81.7998
80.9698
80.526
80.4362
80.5612
80.7602
80.9488
81.0938
81.1901
81.2461
81.2765
81.2951
81.3126
81.3359
81.3666
81.406
81.4524
81.5039
81.5594
81.6166
81.6746
81.7315
81.785
81.8322
81.8699
81.8942
81.8991
81.8796
81.8297
81.7491
81.6415
81.5074
81.3489
81.1732
80.9865
80.7812
80.5506
80.298
80.0293
79.7481
79.4684
79.2065
78.9625
78.7347
78.5418
78.4015
78.3102
78.2615
78.2671
78.3535
78.5219
78.7568
79.0516
79.4208
79.8848
80.4455
81.084
81.7654
82.4673
83.1815
83.9037
84.6245
85.3288
86.0031
86.6418
87.2409
87.7992
88.3177
88.7885
89.2007
89.5482
89.8298
90.0577
90.2469
90.3942
90.5035
90.595
90.6719
90.739
90.8112
90.8726
90.9293
90.9633
91.1721
91.1065
91.3905
91.4706
91.824
92.1035
92.499
92.8229
92.9042
93.1155
93.5524
93.862
93.8834
94.045
94.4412
94.677
94.7742
94.9931
95.0462
95.208
95.3927
95.5341
95.6994
95.8659
95.9567
96.1451
96.2681
96.4818
96.7095
96.9474
97.239
97.4889
97.8372
98.0589
98.3606
98.5501
98.7564
98.9118
98.9882
99.1203
99.1473
99.2129
99.1678
99.0583
98.9802
98.7342
98.6252
98.329
98.1987
97.8809
97.7492
97.4284
97.3094
96.9953
96.896
96.5903
96.5122
96.2143
96.1571
95.8655
95.8291
95.5413
95.5228
95.2348
95.231
94.9381
94.9447
94.6427
94.6581
94.345
94.3679
94.0393
94.0649
93.7148
93.7383
93.3618
93.379
92.9732
92.9815
92.5452
92.5411
92.0724
92.0506
91.5465
91.499
90.9552
90.8709
90.2828
90.1461
89.5077
89.2992
88.6022
88.3003
87.5338
87.1122
86.2649
85.6851
84.7392
83.9633
82.892
81.8846
80.649
79.3764
77.9212
76.3558
74.6247
72.7441
70.696
68.4833
66.1007
63.55
60.8312
57.9495
54.9118
51.7271
82.5104
82.3467
81.8139
81.3789
81.1477
81.0986
81.1594
81.2609
81.3608
81.441
81.4985
81.5388
81.5707
81.6009
81.6335
81.6702
81.7096
81.7511
81.7929
81.8337
81.8737
81.9124
81.9505
81.9876
82.0219
82.0504
82.0688
82.0731
82.0583
82.0185
81.9468
81.8424
81.7141
81.5714
81.4126
81.2319
81.0407
80.8456
80.642
80.414
80.1712
79.9393
79.7189
79.5031
79.3039
79.1493
79.0514
79.001
78.9896
79.0315
79.1455
79.3308
79.5719
79.8588
80.1937
80.5893
81.0589
81.6039
82.2137
82.8646
83.538
84.2244
84.9145
85.5997
86.2672
86.9072
87.516
88.0888
88.6253
89.1237
89.5773
89.9765
90.3129
90.5834
90.7974
90.969
91.0913
91.1689
91.227
91.2842
91.3556
91.4405
91.5228
91.6199
91.6841
91.9634
91.8549
92.2158
92.2278
92.6195
92.7851
93.3398
93.4319
93.7508
93.8594
94.2835
94.3033