/*--------------------------------*- C++ -*----------------------------------*\
| =========                 |                                                 |
| \\      /  F ield         | OpenFOAM: The Open Source CFD Toolbox           |
|  \\    /   O peration     | Version:  2.4.0                                 |
|   \\  /    A nd           | Web:      www.OpenFOAM.org                      |
|    \\/     M anipulation  |                                                 |
\*---------------------------------------------------------------------------*/
FoamFile
{
    version     2.0;
    format      ascii;
    class       volScalarField;
    location    "0.08";
    object      k;
}
// * * * * * * * * * * * * * * * * * * * * * * * * * * * * * * * * * * * * * //

dimensions      [0 2 -2 0 0 0 0];

internalField   nonuniform List<scalar> 
8800
(
8.11805
10.2699
8.79244
6.8154
5.72265
4.9497
4.54387
4.13706
3.91791
3.65211
3.56136
3.35431
3.29632
3.15185
3.09923
2.97178
2.8852
2.76411
2.65166
2.37045
1.40364
4.35391
5.32055
5.28421
5.13475
4.79456
4.59106
4.28309
4.12141
3.87195
3.78277
3.58125
3.51651
3.38212
3.33037
3.21836
3.16746
3.08884
2.99033
2.96271
0.0843931
0.72793
1.57386
1.93026
2.27711
2.4444
2.57264
2.59356
2.63339
2.59921
2.58269
2.5431
2.52531
2.47415
2.45912
2.42263
2.41474
2.38272
2.37794
2.37338
0.0033512
0.0695824
0.267196
0.41474
0.568594
0.720292
0.83296
0.91422
1.04107
1.10458
1.14028
1.21689
1.26404
1.29483
1.33119
1.37654
1.41569
1.43752
1.48034
1.55752
0.00012216
0.00494052
0.0277506
0.0551828
0.0762897
0.1284
0.164369
0.198319
0.249723
0.29489
0.312619
0.358586
0.384869
0.428389
0.450641
0.501137
0.532342
0.582662
0.618011
0.715549
2.49266e-05
0.000309447
0.00213316
0.00481271
0.00654398
0.012467
0.017614
0.025252
0.035209
0.0471169
0.0515619
0.0642736
0.0709809
0.0851036
0.0923177
0.11027
0.121284
0.143602
0.157331
0.201699
2.16703e-05
4.35421e-05
0.000178981
0.000380842
0.000463252
0.00080934
0.00116502
0.00187355
0.00291032
0.00436634
0.00487071
0.0065171
0.0074152
0.00931765
0.0104263
0.0134798
0.0159052
0.020553
0.0234444
0.0326508
2.10625e-05
2.93537e-05
5.5516e-05
8.46779e-05
8.86111e-05
0.000102471
0.000119386
0.000153988
0.000230042
0.000338275
0.000366994
0.000469358
0.000523605
0.000629958
0.000693908
0.000867017
0.00124461
0.00162206
0.00190469
0.0029153
2.06918e-05
2.76899e-05
4.45562e-05
6.29043e-05
6.65604e-05
6.96995e-05
7.01327e-05
7.21337e-05
7.83785e-05
8.95372e-05
9.28015e-05
9.94825e-05
0.000100972
0.00010345
0.000104113
0.000109039
0.000130327
0.000150728
0.000163723
0.000213656
2.05734e-05
2.90778e-05
4.20059e-05
5.15603e-05
5.89052e-05
6.5233e-05
6.61413e-05
6.81802e-05
7.07411e-05
7.08578e-05
7.15353e-05
7.33024e-05
7.32376e-05
7.41612e-05
7.62156e-05
7.68388e-05
7.92309e-05
8.02749e-05
7.9816e-05
8.27335e-05
2.06217e-05
2.91389e-05
4.12624e-05
4.97152e-05
5.65821e-05
6.57814e-05
6.99978e-05
7.19509e-05
7.2434e-05
7.16007e-05
7.04156e-05
7.0584e-05
7.09354e-05
7.32197e-05
7.82583e-05
8.1288e-05
8.1602e-05
8.10279e-05
8.07139e-05
8.56285e-05
2.08122e-05
2.9839e-05
4.15562e-05
5.09503e-05
6.29164e-05
7.73318e-05
8.12693e-05
8.39324e-05
8.49196e-05
8.25315e-05
8.24373e-05
8.88678e-05
9.34551e-05
0.000102772
0.000131394
0.0001403
0.000141111
0.000144611
0.000158913
0.00016645
2.11514e-05
2.96984e-05
4.48419e-05
6.10883e-05
0.000109536
0.000145685
0.000158536
0.000195711
0.000229921
0.000238987
0.000278563
0.000472413
0.00054522
0.000670448
0.00102174
0.00119226
0.00125815
0.00146099
0.0016815
0.00212232
2.17597e-05
4.28521e-05
0.00011565
0.000267474
0.00074006
0.00108771
0.00135509
0.00211858
0.00281089
0.00323153
0.00419452
0.00692871
0.0078377
0.00991035
0.0124307
0.0146282
0.0158358
0.0191924
0.0216688
0.0278023
2.51873e-05
0.000303595
0.0014031
0.00381203
0.0098605
0.013551
0.01728
0.0271529
0.0343913
0.0392968
0.0506168
0.0678589
0.0732103
0.0872715
0.097842
0.111823
0.119376
0.140308
0.152751
0.187948
0.000124689
0.00488102
0.0210977
0.0528316
0.0990805
0.122979
0.155169
0.21353
0.243697
0.269106
0.321596
0.370803
0.386611
0.430346
0.462283
0.502026
0.522574
0.580007
0.610765
0.689901
0.00336733
0.0692204
0.248895
0.42749
0.601437
0.688705
0.830885
0.943307
1.01807
1.07444
1.17564
1.22753
1.24924
1.30558
1.34215
1.37191
1.39116
1.4483
1.472
1.52688
0.0844374
0.725839
1.55922
1.95188
2.28571
2.42032
2.582
2.6023
2.62097
2.59451
2.59207
2.54756
2.52308
2.4716
2.45954
2.41361
2.40075
2.38002
2.36498
2.34255
1.40462
4.34474
5.32419
5.29045
5.13199
4.80231
4.58182
4.27363
4.13098
3.87705
3.77561
3.57686
3.52208
3.3652
3.32343
3.20345
3.17201
3.05405
3.01481
2.91501
8.11903
10.2587
8.80245
6.81516
5.70882
4.96902
4.5334
4.12864
3.92488
3.66135
3.54833
3.34611
3.30623
3.14301
3.10204
2.95212
2.92739
2.7549
2.69689
2.47617
1.62162
1.10412
0.709746
0.470828
0.360433
0.31565
0.293163
0.271717
0.255323
0.239404
0.211057
0.192925
0.181043
0.168675
0.167545
0.169977
0.177493
0.196411
0.231221
0.303531
0.347222
0.388596
0.430565
0.440406
0.44193
0.453726
0.451954
0.441126
0.423099
0.397071
0.342592
0.288039
0.23705
0.165005
0.108838
0.0685134
0.0455836
0.0325044
0.024382
0.0205937
0.0169041
0.0140437
0.0130907
0.0124439
0.0120632
0.0122832
0.012475
0.012997
0.0150083
0.0168713
0.0215166
0.0242085
0.0300391
0.0344953
0.0368294
0.0402448
0.0406418
0.0400141
0.0387318
0.0352141
0.0327118
0.0277906
0.0228754
0.019126
0.0142698
0.0115011
0.0100722
0.00862183
0.00823361
0.00864836
0.0101459
0.0153582
0.0359641
0.128021
0.234713
0.255922
0.25089
0.230161
0.190829
0.164814
0.135703
0.115963
0.103054
0.0873109
0.07474
0.0645385
0.0595123
0.0570179
0.0558095
0.0551999
0.0538992
0.0523799
0.0523154
0.0528821
0.0547794
0.0568503
0.0612702
0.0772653
0.0894978
0.0916081
0.0897201
0.0842478
0.0676685
0.0557665
0.0516934
0.0518625
0.0586049
0.0807715
0.0968621
0.0992579
0.0982564
0.0935463
0.0769035
0.0665856
0.0599358
0.0602826
0.0616469
0.0696517
0.0740931
0.0826899
0.0864907
0.0883492
0.0873405
0.0819356
0.077523
0.0676442
0.0591423
0.0449031
0.0349898
0.0249731
0.0189918
0.014713
0.0121095
0.010913
0.00938197
0.00888328
0.00812037
0.00783051
0.00718458
0.00703204
0.0065465
0.00627873
0.00608895
0.00601644
0.00604977
0.00604138
0.00613325
0.00607226
0.00619862
0.00602396
0.00592563
0.00529684
0.00508996
0.00444107
0.00427088
0.00377809
0.00375443
0.00353749
0.00360362
0.00344841
0.00356911
0.00345604
0.00362262
0.00350181
0.00361465
0.00344452
0.00348211
0.00328425
0.00318457
0.00283676
0.00264636
0.00229327
0.00202055
0.00186152
0.00161531
0.00154406
0.00137991
0.00136457
0.00127862
0.00126041
0.00112506
0.00109367
0.000962093
0.000977257
0.000924293
0.000993826
0.000994528
0.00101264
0.00108127
0.000968968
0.00095268
0.000842728
0.000937343
0.00135268
0.00137706
0.00185865
0.00353541
0.00933652
0.0918026
0.658561
2.48187
2.01301
1.68777
1.3794
1.08807
0.844903
0.657159
0.510369
0.425339
0.37462
0.332718
0.291714
0.271956
0.271889
0.28037
0.300917
0.336069
0.396041
0.425762
0.444749
0.456779
0.455283
0.451213
0.447539
0.437173
0.413034
0.393202
0.353857
0.308911
0.266423
0.20602
0.148567
0.0976115
0.0618017
0.0396675
0.024989
0.0175017
0.0127585
0.0103531
0.00905369
0.00734824
0.00649901
0.00653927
0.00664475
0.00716579
0.00724718
0.00699724
0.00697922
0.00719692
0.00769611
0.0086932
0.0101238
0.0122155
0.0134773
0.0150382
0.0163854
0.0181416
0.0185162
0.0184252
0.0177455
0.0168292
0.0141072
0.0120864
0.00988074
0.00818373
0.00762518
0.00741265
0.00743683
0.00784421
0.00967263
0.0140931
0.0270149
0.0717745
0.217532
0.271884
0.270537
0.253416
0.20784
0.184173
0.157447
0.129386
0.112309
0.0972113
0.0821589
0.0700589
0.0606341
0.0574689
0.0551425
0.0542434
0.0520997
0.0517423
0.0504306
0.0494439
0.0495436
0.0506789
0.0519917
0.0553006
0.0680446
0.0835798
0.0887563
0.0885066
0.0857271
0.0742974
0.0586809
0.0531787
0.0518221
0.0540967
0.0687171
0.0852599
0.0955331
0.0957004
0.0942353
0.0866686
0.0752715
0.0711485
0.0700817
0.0728276
0.0754826
0.0825317
0.0869536
0.0902533
0.0898126
0.0860619
0.0824307
0.077262
0.0659735
0.0522556
0.0394752
0.0319403
0.0231113
0.0191039
0.0149767
0.0127657
0.0112258
0.00996423
0.00944124
0.00915271
0.0090763
0.00873819
0.00879187
0.00859815
0.00833423
0.007645
0.00738093
0.00680292
0.00649338
0.00631462
0.00617279
0.00607006
0.00584666
0.00565956
0.0050469
0.00465187
0.00390187
0.00367391
0.00314177
0.00299277
0.00267537
0.00270718
0.00269384
0.00285405
0.0028623
0.00303551
0.00316345
0.00355081
0.00374972
0.00399721
0.00447429
0.00465773
0.00514252
0.00530233
0.0057565
0.00565891
0.00557615
0.00512835
0.00480281
0.00405499
0.00358834
0.0030219
0.00250384
0.00229753
0.00199812
0.00197305
0.00178091
0.00185612
0.0015837
0.00153768
0.00133755
0.00138554
0.00138055
0.00142562
0.0016789
0.00138245
0.00152813
0.00176158
0.00193403
0.00661824
0.00964969
0.0717617
0.313356
2.136
1.87296
1.67279
1.50607
1.37302
1.25377
1.13235
1.01685
0.914051
0.836752
0.753
0.690435
0.641925
0.602408
0.575129
0.563687
0.543836
0.522218
0.509019
0.480118
0.459271
0.433975
0.37883
0.339021
0.300926
0.236925
0.195249
0.159399
0.121852
0.0928745
0.0664915
0.0465014
0.0307004
0.0202857
0.0134335
0.0090762
0.00746409
0.00611551
0.0054261
0.00481455
0.00421464
0.00420135
0.0044388
0.00495856
0.00546548
0.00550813
0.00526984
0.0048002
0.00464136
0.00471507
0.00480811
0.00527274
0.00565746
0.00678715
0.00732933
0.00853991
0.00959298
0.0102273
0.00991287
0.00958801
0.00868169
0.00743738
0.00680533
0.00615923
0.0061178
0.0064534
0.00675842
0.00734643
0.00970858
0.0147644
0.0244284
0.0491596
0.15583
0.279114
0.293184
0.278066
0.23136
0.193182
0.179542
0.155631
0.126201
0.107904
0.0940119
0.0789068
0.0653087
0.0583391
0.0559267
0.0541493
0.0525809
0.05057
0.0502337
0.0495874
0.0479183
0.0479506
0.0491042
0.0499879
0.0518217
0.0610289
0.0766933
0.0838896
0.0863576
0.0853317
0.0803329
0.0631228
0.0544538
0.0524546
0.0526651
0.0577002
0.0754305
0.0877281
0.0929782
0.0923794
0.0904042
0.0826916
0.0807849
0.0792957
0.0813524
0.0833334
0.0884563
0.0924979
0.092802
0.0906633
0.0845366
0.0816835
0.0750776
0.0658546
0.0448019
0.0350131
0.0240948
0.0200782
0.0152825
0.0139684
0.0122335
0.0115945
0.0114381
0.0112446
0.0114329
0.0112973
0.0116812
0.0114346
0.0116346
0.0113984
0.0116991
0.0113618
0.0113762
0.0109259
0.0110671
0.0107399
0.0106375
0.0100346
0.00977883
0.00876325
0.00788484
0.00722767
0.00702951
0.006508
0.00598391
0.00574485
0.0056223
0.00516281
0.00470784
0.0045015
0.00442578
0.00407398
0.00388146
0.00389248
0.0039329
0.00404239
0.00418549
0.00460934
0.00485638
0.0055548
0.00592029
0.00678982
0.00721371
0.00804105
0.00869356
0.00887484
0.00866746
0.00794501
0.00669276
0.00527801
0.00435856
0.00375407
0.00299211
0.00301368
0.00277044
0.00313755
0.00265742
0.00257172
0.00215231
0.00192315
0.00247783
0.00233127
0.0071674
0.00528669
0.0327488
0.0188404
0.0366848
0.135853
1.45831
1.33583
1.22537
1.17604
1.12904
1.08521
1.03678
0.974512
0.909536
0.852589
0.809986
0.759892
0.717903
0.679731
0.628425
0.593151
0.556071
0.500871
0.457156
0.403938
0.328744
0.262571
0.189929
0.13291
0.0952957
0.0670808
0.0510613
0.0398442
0.0314686
0.0246681
0.0182881
0.0131942
0.00901549
0.00659231
0.00495226
0.00430987
0.00419727
0.0038819
0.00371815
0.00366968
0.00362209
0.00379493
0.00439978
0.00495681
0.00514976
0.0051603
0.00495962
0.00463268
0.0042985
0.00405491
0.0039929
0.00396521
0.0040917
0.00429067
0.00479802
0.00507156
0.00576617
0.0057836
0.00564576
0.00548297
0.00501167
0.00497983
0.00512447
0.00531004
0.00567054
0.00644858
0.00743204
0.00991394
0.01733
0.0259894
0.042912
0.0910691
0.257492
0.319801
0.308751
0.259152
0.204864
0.18603
0.178005
0.157503
0.121785
0.105162
0.0924063
0.074536
0.0621148
0.057099
0.0532535
0.053027
0.0516463
0.0503145
0.0502329
0.048756
0.0469133
0.0469459
0.047881
0.0485736
0.0499851
0.0559792
0.0732481
0.0807652
0.0844761
0.0846795
0.0823523
0.0706989
0.0570654
0.0537679
0.0532126
0.0544868
0.0636716
0.0780356
0.0875891
0.0893401
0.0884365
0.0868531
0.0840692
0.0854566
0.0856899
0.0900548
0.0919688
0.0965406
0.0941623
0.0907121
0.0832643
0.0805464
0.0724424
0.0538919
0.0347362
0.0242564
0.0174089
0.0134206
0.0112152
0.0103415
0.0094652
0.0089905
0.00883103
0.00850592
0.00797053
0.00751061
0.00748146
0.0073652
0.00742217
0.00753175
0.0077586
0.00791046
0.00844538
0.00884086
0.00908923
0.00909392
0.0093305
0.00914225
0.0092019
0.00875976
0.00908765
0.00877852
0.0094957
0.00920386
0.0100668
0.00986364
0.0111234
0.0107684
0.0117752
0.0114504
0.0126034
0.011891
0.0123977
0.011811
0.0121103
0.0113682
0.0110677
0.0103818
0.0094986
0.00909632
0.0080847
0.00797641
0.0080054
0.0082915
0.00901059
0.0096973
0.011716
0.0124982
0.0153497
0.0158833
0.0158058
0.0137957
0.0119292
0.00795918
0.00680888
0.00492626
0.0056056
0.00506196
0.0102953
0.00763179
0.024134
0.0151852
0.0431703
0.0291686
0.0477453
0.0420032
0.0428935
0.0777782
0.693127
0.665941
0.629084
0.608461
0.603186
0.596455
0.589681
0.582113
0.561666
0.528588
0.505452
0.464138
0.43875
0.408582
0.375439
0.343663
0.306587
0.270557
0.2211
0.166598
0.118026
0.0811809
0.0544577
0.0357955
0.0240994
0.0166283
0.0124045
0.00975607
0.00803183
0.00631626
0.00494258
0.00382936
0.0031313
0.00293028
0.00298951
0.00314881
0.00330872
0.00340749
0.00370043
0.00414415
0.00479524
0.00565833
0.00645549
0.00639826
0.00626484
0.00590263
0.00529503
0.00498908
0.00474224
0.00450713
0.00443469
0.00431863
0.00414517
0.00409293
0.00410512
0.00409944
0.00420104
0.00416802
0.00423795
0.00422238
0.00427045
0.00450057
0.00497083
0.00549008
0.00700201
0.00909633
0.0118283
0.0186853
0.0315888
0.044468
0.0727411
0.188576
0.33134
0.341384
0.297412
0.225392
0.189012
0.183969
0.182861
0.162305
0.119518
0.104559
0.0916888
0.0731838
0.0609828
0.0540789
0.0522151
0.052531
0.0513101
0.051785
0.0503814
0.0491277
0.0465811
0.0471277
0.047831
0.048749
0.0493174
0.0536477
0.0694446
0.0789508
0.0830375
0.0842599
0.0825937
0.0749523
0.061695
0.0550977
0.0542192
0.0547576
0.057556
0.0677435
0.0765649
0.0840725
0.0860135
0.0856836
0.086105
0.0867156
0.0903375
0.0937116
0.0967765
0.0965349
0.0925902
0.086443
0.0829638
0.0780768
0.0590116
0.0418887
0.0261568
0.0190861
0.0142238
0.011464
0.010025
0.00890199
0.00831313
0.0076909
0.0075278
0.00712595
0.00712256
0.00702551
0.00696597
0.00680431
0.00683228
0.00677848
0.00670893
0.00661816
0.00659401
0.00653506
0.00652826
0.00645247
0.00633605
0.00612326
0.0058731
0.00576075
0.00569923
0.00560602
0.00557999
0.00561137
0.00570736
0.00584324
0.0060237
0.00653846
0.00678029
0.00742582
0.00780592
0.00905381
0.00937034
0.0106842
0.0109922
0.0128756
0.0130359
0.0146709
0.0143953
0.0153036
0.0146357
0.0148099
0.0143754
0.0137971
0.0135983
0.0128121
0.0148267
0.0143674
0.0194879
0.0188374
0.0298234
0.0262538
0.0455967
0.0338024
0.0584171
0.0386121
0.0636751
0.0386145
0.0599318
0.0352754
0.0489981
0.0326401
0.0382242
0.0342208
0.0357296
0.0425357
0.043434
0.055711
0.201251
0.198825
0.195091
0.195348
0.197975
0.205132
0.206846
0.206779
0.20319
0.189026
0.173003
0.150392
0.135859
0.121258
0.109219
0.0990755
0.0899928
0.0797914
0.0637521
0.0476119
0.0326468
0.0212374
0.0135061
0.00853249
0.00558201
0.00386911
0.00291198
0.00242118
0.00211289
0.0019241
0.00194339
0.00201009
0.00213339
0.00240082
0.00286111
0.00319837
0.00373983
0.00520195
0.00636964
0.00820288
0.00889774
0.00891786
0.00876021
0.00802129
0.00688633
0.00620843
0.00589665
0.00586045
0.00594201
0.00593068
0.00593199
0.00584821
0.00526483
0.00504497
0.00447787
0.00433089
0.00409241
0.00411008
0.00414566
0.00428076
0.00458887
0.00552327
0.00660628
0.00829517
0.0125021
0.0164345
0.0218934
0.0368568
0.0547122
0.0756973
0.126494
0.308481
0.371171
0.349442
0.256764
0.203639
0.184082
0.191565
0.195866
0.163593
0.119234
0.106254
0.0943544
0.073527
0.0604231
0.0531091
0.0524967
0.0524207
0.051805
0.0518397
0.0502826
0.0473427
0.0474672
0.0483164
0.0486857
0.0488084
0.0496147
0.053882
0.0698127
0.07928
0.0825217
0.0848266
0.0840447
0.0780571
0.0650792
0.0576036
0.0559763
0.0559383
0.0575042
0.0613063
0.0701599
0.0745607
0.0821058
0.0829551
0.0858635
0.0879367
0.0916428
0.0976315
0.0981155
0.0961922
0.0890678
0.0849616
0.0793567
0.0712175
0.045928
0.0332483
0.0213417
0.0160467
0.0126779
0.0106945
0.00981837
0.00888328
0.00854707
0.00809942
0.00826093
0.00803659
0.00821936
0.00805468
0.00814875
0.00808358
0.00825883
0.00802317
0.00800971
0.00778654
0.00786137
0.00751413
0.00750394
0.0071886
0.00725459
0.00691125
0.00706882
0.00673937
0.00687734
0.00656818
0.00679712
0.00647484
0.00670311
0.00646918
0.00702042
0.00683816
0.00752439
0.00749401
0.00889437
0.00889261
0.010731
0.0107693
0.0144492
0.0144452
0.0201035
0.0198938
0.0298311
0.02893
0.0455344
0.0419637
0.0684473
0.0605369
0.10104
0.0844501
0.138864
0.113997
0.180155
0.143055
0.210845
0.166401
0.22254
0.176867
0.210215
0.169439
0.183775
0.148731
0.149842
0.11841
0.115102
0.082022
0.0781705
0.0540875
0.0480737
0.0480715
0.0466173
0.0506805
0.0354215
0.0353573
0.0361761
0.0377886
0.0409435
0.0439009
0.0441422
0.0438719
0.0403183
0.03513
0.0301213
0.0250165
0.0214295
0.0202532
0.0198838
0.0195838
0.0188789
0.017805
0.014222
0.0100069
0.00659495
0.00418514
0.00264066
0.00179758
0.00130365
0.00103826
0.00102931
0.00110783
0.00122443
0.00146545
0.00177414
0.00225556
0.00277421
0.00358821
0.00542457
0.00672334
0.00953789
0.0124422
0.0144675
0.0162118
0.0164054
0.0162158
0.0156053
0.0139338
0.011966
0.0106656
0.00965258
0.00918806
0.00901135
0.00877421
0.00869908
0.00798216
0.00751429
0.00643935
0.00578337
0.00520829
0.00509932
0.0051599
0.00551591
0.00618595
0.00735906
0.00962398
0.0115877
0.0157722
0.0229151
0.029654
0.0417569
0.0722968
0.0945707
0.124146
0.229133
0.383909
0.3892
0.31807
0.235811
0.197155
0.188106
0.206527
0.208977
0.164921
0.123988
0.113155
0.101139
0.0776939
0.0610484
0.0541805
0.053565
0.0523927
0.0523047
0.0503898
0.0516608
0.0479659
0.0483985
0.0514347
0.0519761
0.0495547
0.0501974
0.0555212
0.0719448
0.0812607
0.0828652
0.0854339
0.0852699
0.0825733
0.0727606
0.0620995
0.0600419
0.058859
0.060062
0.0621541
0.0681444
0.0714463
0.081004
0.0827578
0.0854443
0.0922474
0.0946951
0.0975196
0.0956426
0.0894735
0.085196
0.0821272
0.0726241
0.0589325
0.0344006
0.025148
0.0177516
0.0139478
0.0118793
0.0105764
0.0101194
0.00941605
0.00937376
0.00913327
0.00938176
0.00914564
0.00926249
0.00915398
0.00926887
0.00924621
0.0094068
0.00923178
0.00929102
0.00915981
0.0092858
0.00898714
0.00903449
0.00879663
0.00889226
0.00863306
0.00861289
0.00833024
0.00825325
0.00792395
0.00775889
0.0074042
0.00730334
0.00726617
0.0072862
0.00731334
0.00740773
0.00763305
0.00775174
0.00812104
0.00835733
0.00918209
0.00945704
0.0105282
0.0108121
0.0127848
0.0133318
0.0164506
0.0168769
0.0217497
0.0228119
0.0303495
0.031785
0.0424905
0.0448281
0.0596289
0.0644016
0.0849902
0.0910208
0.113075
0.118086
0.137713
0.140962
0.152086
0.155072
0.150673
0.149314
0.139118
0.135945
0.117638
0.113726
0.0967686
0.0868186
0.0731988
0.0592535
0.0558722
0.00352822
0.00363936
0.00402893
0.0045264
0.0049282
0.00513474
0.00507711
0.00437787
0.00354317
0.00302989
0.00262493
0.00216842
0.00196167
0.00202752
0.0023259
0.0024666
0.00247058
0.00237516
0.00187715
0.00137229
0.00102839
0.000804782
0.000700019
0.000683623
0.000732273
0.00085207
0.00109309
0.00161912
0.00203991
0.0031367
0.00425929
0.00576224
0.00809019
0.0110783
0.0156971
0.0200892
0.0248146
0.0283029
0.0315406
0.0330404
0.0328322
0.0317687
0.0301548
0.0265902
0.0234129
0.0205561
0.0179282
0.0166241
0.0159777
0.0157472
0.0144302
0.0129264
0.0110607
0.00907093
0.00816805
0.0078649
0.00795476
0.00839682
0.00973289
0.010755
0.0131154
0.0155569
0.0196718
0.0297709
0.0425009
0.0568717
0.0909066
0.127026
0.148952
0.185253
0.324175
0.41779
0.397189
0.293021
0.230788
0.201499
0.201622
0.219552
0.21866
0.172233
0.138104
0.116328
0.102087
0.0820396
0.0665334
0.0585283
0.0553246
0.05301
0.0521121
0.0517868
0.0496211
0.055236
0.0502341
0.0571677
0.0526507
0.0512583
0.0531431
0.0591285
0.0752319
0.0851339
0.0850337
0.085745
0.0865002
0.0839069
0.0746406
0.06543
0.064486
0.0635481
0.0670025
0.0670031
0.0704153
0.0727207
0.0826289
0.0843592
0.0886053
0.0943173
0.0948939
0.0955853
0.0917741
0.0870788
0.0817398
0.0759674
0.0558487
0.0450507
0.0259584
0.0208334
0.0152816
0.0128925
0.0111912
0.0107569
0.01043
0.0103465
0.0101077
0.00975891
0.0099883
0.00984822
0.00968535
0.00954193
0.0094781
0.00964526
0.00966044
0.00959489
0.00953718
0.00950228
0.00968235
0.00951501
0.00945073
0.00920203
0.00933898
0.00916526
0.00881104
0.00840338
0.0080613
0.00774071
0.00727136
0.00707301
0.0069608
0.00692181
0.00692746
0.00696125
0.00717403
0.00725571
0.00771164
0.007792
0.00845121
0.00867113
0.00980338
0.00991401
0.0111114
0.0116892
0.0139947
0.0145341
0.0165572
0.0180978
0.0213807
0.0248116
0.027267
0.0329169
0.0351479
0.0436258
0.0476772
0.0626708
0.0653746
0.0812147
0.0820035
0.100945
0.102393
0.122182
0.12394
0.13614
0.137749
0.136185
0.135954
0.130457
0.129372
0.124
0.119808
0.109877
0.0999518
0.0763703
0.000291081
0.000312643
0.000349462
0.000428768
0.000459031
0.000459961
0.000426101
0.000341746
0.000285599
0.000246504
0.000228145
0.000212278
0.000207937
0.000231452
0.000282767
0.000341994
0.00036161
0.000393241
0.000425227
0.000448531
0.000480676
0.000554365
0.000695873
0.000976578
0.00190067
0.00254714
0.00373373
0.00556259
0.00713072
0.0108188
0.0138392
0.0187267
0.0260922
0.0333562
0.0418347
0.0505671
0.0566013
0.0619963
0.0640468
0.0637211
0.0623823
0.0590974
0.0555942
0.0496028
0.0433689
0.0382036
0.0347217
0.0312252
0.0292568
0.0266534
0.022685
0.0196374
0.0163457
0.0140299
0.0131968
0.0132517
0.013619
0.0149977
0.0162117
0.0177798
0.0208752
0.0263031
0.0377396
0.0631908
0.0835689
0.124119
0.166479
0.185447
0.202978
0.260319
0.42174
0.437471
0.364091
0.269801
0.232236
0.224949
0.219013
0.225105
0.225101
0.191489
0.156351
0.115541
0.102782
0.0906106
0.0755615
0.0649431
0.0594286
0.0556442
0.0547357
0.0550453
0.0536395
0.0578853
0.0556829
0.0560231
0.0559132
0.0518512
0.0571496
0.0727355
0.083019
0.0888624
0.0911907
0.08925
0.0888351
0.0859821
0.0765309
0.0661589
0.066472
0.0646646
0.0693366
0.0728981
0.0769898
0.0774506
0.0865527
0.0876828
0.0907547
0.0942978
0.092804
0.0912292
0.0849563
0.080591
0.0706603
0.0647442
0.043863
0.0345419
0.0208233
0.0167073
0.0120658
0.0111511
0.0101883
0.0101543
0.0096917
0.0097998
0.00968678
0.00967912
0.0095171
0.00953338
0.00921362
0.00922226
0.00902156
0.00918615
0.00876766
0.00894688
0.00866148
0.00890182
0.00859426
0.00884653
0.00845216
0.00861115
0.00837783
0.008499
0.00793283
0.00786775
0.00732512
0.00716859
0.00622855
0.00619376
0.00573059
0.0059683
0.00532571
0.00569052
0.00533628
0.00586976
0.00525459
0.00602
0.00567942
0.00655857
0.00584761
0.00711101
0.00659181
0.00808834
0.00719534
0.00911489
0.00824317
0.010675
0.00949133
0.0131022
0.0116818
0.016347
0.0141795
0.021199
0.018726
0.0295614
0.0258678
0.0389472
0.0342016
0.0514472
0.0476415
0.0685551
0.0662393
0.0906447
0.0898724
0.109674
0.111542
0.121416
0.124037
0.124517
0.124108
0.122251
0.119833
0.11035
8.55153e-05
9.03179e-05
0.000100318
0.00012288
0.000129211
0.000128051
0.000121328
0.000117181
0.000117041
0.000117416
0.000121297
0.000128688
0.000134306
0.000145865
0.000181893
0.000225291
0.000262232
0.000342666
0.000464144
0.000728018
0.00106528
0.00195751
0.00286516
0.00442306
0.00768654
0.00967711
0.0136967
0.0177304
0.0235706
0.0326055
0.0414299
0.0550134
0.0678702
0.0830993
0.0999547
0.109257
0.118583
0.123653
0.123088
0.120532
0.115702
0.105535
0.0956564
0.0852431
0.0747411
0.0684158
0.0590203
0.0505241
0.0442408
0.0380812
0.0338021
0.028402
0.0258058
0.0239055
0.0233339
0.0235284
0.0244598
0.0251968
0.0266145
0.0294993
0.0358723
0.0508728
0.0859236
0.136172
0.169997
0.192208
0.204431
0.213049
0.23493
0.362674
0.453147
0.418394
0.301213
0.252879
0.254818
0.258927
0.240126
0.225735
0.227569
0.216569
0.169369
0.115312
0.105331
0.100921
0.087347
0.0728704
0.0662547
0.0591007
0.0558553
0.0562604
0.0570375
0.0562915
0.0589418
0.0551077
0.0591692
0.0554635
0.0624483
0.085749
0.0883055
0.0919946
0.0944605
0.0952766
0.0982192
0.0895313
0.0839103
0.0694877
0.0691849
0.0655233
0.0706752
0.0744175
0.0780482
0.0797083
0.0884551
0.0889598
0.0906881
0.0911508
0.0885942
0.0861449
0.079086
0.0742383
0.0618446
0.0546046
0.0339334
0.0263864
0.0170184
0.0139384
0.0105521
0.01011
0.00926082
0.00932354
0.00891727
0.00907636
0.00880529
0.00899215
0.0085472
0.00869722
0.00834173
0.00844972
0.00804859
0.00815281
0.00764102
0.00770611
0.00738159
0.00758577
0.0070511
0.00727394
0.00686592
0.007158
0.00653857
0.00679569
0.00620906
0.00639254
0.00568305
0.00568367
0.00486569
0.0047891
0.00411745
0.00423523
0.00366218
0.00392887
0.00349394
0.00389175
0.00343206
0.00390433
0.00353521
0.00416417
0.00368533
0.00443272
0.00399112
0.00492456
0.00433611
0.00549293
0.00486166
0.00632106
0.00554472
0.00739979
0.00648059
0.00894461
0.00789077
0.011443
0.0100982
0.0153212
0.0135883
0.0202796
0.0186299
0.0280991
0.0270281
0.0401819
0.0401702
0.0551844
0.0559416
0.071356
0.0742374
0.091872
0.0979016
0.111727
0.115883
0.119378
0.119414
0.118046
8.83333e-05
9.02816e-05
9.5303e-05
9.70755e-05
9.72907e-05
0.000102286
0.000108608
0.000118595
0.000129701
0.000141613
0.000154924
0.000176606
0.000234402
0.000288985
0.000383973
0.000582547
0.00081949
0.00142797
0.00223675
0.00374872
0.00534995
0.00918885
0.0122144
0.0172736
0.0256554
0.0309436
0.041736
0.0516481
0.0688046
0.0870737
0.108549
0.134058
0.160929
0.185274
0.205252
0.221933
0.23321
0.233157
0.228684
0.220265
0.204251
0.185454
0.167388
0.142786
0.123298
0.102411
0.0825606
0.0691263
0.0578354
0.0508352
0.0447141
0.0411472
0.0409218
0.041793
0.0420653
0.0401481
0.0385374
0.0389004
0.0412209
0.0487925
0.0704103
0.124248
0.197344
0.211642
0.211876
0.215754
0.216217
0.22259
0.287337
0.431244
0.437811
0.334721
0.259281
0.251657
0.279303
0.29585
0.256768
0.220843
0.229744
0.246969
0.194658
0.122643
0.116017
0.11752
0.105094
0.0887062
0.0782191
0.0650624
0.058058
0.0565459
0.0566824
0.0566583
0.0590027
0.057488
0.0665935
0.0720584
0.0823834
0.0999629
0.0978067
0.0976872
0.0973813
0.0962605
0.100416
0.0923955
0.0931457
0.079357
0.0777973
0.0694885
0.0740189
0.075753
0.0802289
0.0810225
0.089127
0.088548
0.0894125
0.0889703
0.0856465
0.0823856
0.0731173
0.0673972
0.0510285
0.0421267
0.0250529
0.0195831
0.0137774
0.0120313
0.00989146
0.00933865
0.00864526
0.00850969
0.00815979
0.00821792
0.00799168
0.00799772
0.00778523
0.00784678
0.00758469
0.00756141
0.00729572
0.00730155
0.00706763
0.00700039
0.006742
0.00673008
0.00647154
0.006423
0.00610928
0.00611301
0.00578402
0.00574969
0.00535934
0.005344
0.00487742
0.00476629
0.00422657
0.0041057
0.00360103
0.00347787
0.00308473
0.00305621
0.0028862
0.00294797
0.00283685
0.00293714
0.00285721
0.00303023
0.0029626
0.0031728
0.00311701
0.00342469
0.00334999
0.0037382
0.00362177
0.0041478
0.00403568
0.00471581
0.00461251
0.00559129
0.00540757
0.00682448
0.00665664
0.00877356
0.00847347
0.0116462
0.0114012
0.0160389
0.0160286
0.0231178
0.0234076
0.0316256
0.0322617
0.0418145
0.0443261
0.05722
0.0620332
0.0766617
0.0833156
0.0970506
0.105732
0.109413
0.00016573
0.000167455
0.000176912
0.000183676
0.000200379
0.000232262
0.000296668
0.000408691
0.00049533
0.000684797
0.000912636
0.00110775
0.00157938
0.00197921
0.00279115
0.00397685
0.00526123
0.00872324
0.0124484
0.0164483
0.0241407
0.0349809
0.0423009
0.0557333
0.0738631
0.0883318
0.11288
0.136662
0.169788
0.204351
0.252851
0.285899
0.330896
0.368346
0.400612
0.419823
0.420219
0.414392
0.396015
0.370393
0.335019
0.292619
0.254112
0.212389
0.174834
0.144295
0.119042
0.0974217
0.0864777
0.0782561
0.0748319
0.0766252
0.0773638
0.0713505
0.0608591
0.0536688
0.0532524
0.0563732
0.0670816
0.0969414
0.185522
0.251652
0.254374
0.236411
0.218939
0.217786
0.217493
0.230151
0.340634
0.422224
0.367938
0.26064
0.232192
0.236677
0.283476
0.331349
0.285398
0.222141
0.249806
0.304144
0.240342
0.145882
0.134011
0.132314
0.126286
0.114932
0.0995981
0.0794585
0.0658219
0.0614853
0.0604257
0.061894
0.067898
0.0738115
0.0924104
0.101748
0.10692
0.114775
0.103458
0.097027
0.102892
0.0950891
0.106221
0.0919884
0.104112
0.0853965
0.0883006
0.0761757
0.0850308
0.0816064
0.0850216
0.0843332
0.0885832
0.0879458
0.0884458
0.0876226
0.0811241
0.077004
0.0644578
0.0574612
0.0371234
0.0290822
0.0184825
0.0149171
0.0120573
0.0107047
0.00951815
0.00899373
0.00866377
0.00818464
0.00799424
0.00798891
0.00785386
0.007685
0.00767072
0.00752733
0.00742844
0.00726274
0.00718561
0.00705431
0.00699126
0.00683054
0.00672409
0.00656382
0.00643652
0.00621498
0.00603545
0.00582999
0.00568353
0.00541225
0.00521077
0.00491305
0.0047093
0.00430009
0.00409101
0.00368996
0.00354826
0.00321657
0.00316321
0.00298143
0.00300744
0.00288055
0.00293051
0.00285641
0.00294968
0.00291925
0.00300978
0.00298639
0.00310333
0.00317197
0.00333425
0.00337678
0.00347501
0.00371684
0.00385619
0.00426972
0.00436239
0.00477216
0.00492319
0.0058038
0.00596888
0.00703273
0.00713844
0.0087051
0.00887172
0.0112781
0.0115781
0.0150761
0.0152478
0.0189695
0.0196574
0.0247381
0.0266061
0.0339997
0.0372893
0.0458764
0.0505496
0.0559256
0.0670943
0.0747842
0.00222343
0.00229805
0.00245769
0.00274291
0.00324742
0.00358831
0.00405039
0.00480129
0.00538768
0.00652367
0.00811409
0.00929887
0.0119387
0.0142055
0.0188658
0.0229573
0.0297948
0.0422892
0.0508815
0.0632184
0.0849203
0.103196
0.122603
0.151483
0.181911
0.219045
0.260164
0.300978
0.361755
0.424457
0.482489
0.536141
0.570889
0.585797
0.583661
0.576603
0.561788
0.535736
0.518403
0.480761
0.455236
0.413705
0.36757
0.335715
0.279952
0.240659
0.21379
0.179725
0.160301
0.147925
0.132977
0.116297
0.101209
0.0859717
0.0767885
0.0766384
0.0817495
0.0980733
0.137423
0.25212
0.301313
0.29478
0.272472
0.214222
0.185551
0.184005
0.19381
0.263891
0.369498
0.370296
0.272206
0.216447
0.20131
0.207962
0.2652
0.351143
0.338575
0.257968
0.302897
0.37558
0.297199
0.172597
0.150901
0.150643
0.153229
0.145883
0.123547
0.10144
0.0861797
0.0783859
0.0758419
0.0765084
0.0907404
0.109813
0.11705
0.118547
0.122134
0.126355
0.11582
0.0977306
0.111294
0.0950979
0.126935
0.0951113
0.153516
0.0993906