/*--------------------------------*- C++ -*----------------------------------*\
| =========                 |                                                 |
| \\      /  F ield         | OpenFOAM: The Open Source CFD Toolbox           |
|  \\    /   O peration     | Version:  2.4.0                                 |
|   \\  /    A nd           | Web:      www.OpenFOAM.org                      |
|    \\/     M anipulation  |                                                 |
\*---------------------------------------------------------------------------*/
FoamFile
{
    version     2.0;
    format      ascii;
    class       surfaceScalarField;
    location    "0.08";
    object      phi;
}
// * * * * * * * * * * * * * * * * * * * * * * * * * * * * * * * * * * * * * //

dimensions      [0 3 -1 0 0 0 0];

internalField   nonuniform List<scalar> 
17320
(
1.76345e-05
7.36545e-06
1.16198e-05
6.01473e-06
8.68018e-06
2.93963e-06
7.35205e-06
1.32813e-06
6.73199e-06
6.20065e-07
6.32934e-06
4.02648e-07
6.07133e-06
2.58012e-07
5.89029e-06
1.81035e-07
5.70184e-06
1.88451e-07
5.5561e-06
1.45745e-07
5.50079e-06
5.53097e-08
5.3874e-06
1.13384e-07
5.28189e-06
1.05516e-07
5.20216e-06
7.9724e-08
5.13016e-06
7.20039e-08
5.00407e-06
1.26088e-07
4.84432e-06
1.59747e-07
4.73255e-06
1.11771e-07
4.32769e-06
4.0486e-07
-3.48621e-07
4.67632e-06
2.54552e-05
6.91026e-06
2.32533e-05
8.21661e-06
2.09787e-05
5.2142e-06
1.93205e-05
2.98635e-06
1.80891e-05
1.85145e-06
1.70904e-05
1.40134e-06
1.63704e-05
9.78016e-07
1.57942e-05
7.57305e-07
1.52879e-05
6.9471e-07
1.49178e-05
5.15871e-07
1.46623e-05
3.10823e-07
1.43578e-05
4.17844e-07
1.41316e-05
3.31763e-07
1.39149e-05
2.96368e-07
1.37281e-05
2.588e-07
1.34687e-05
3.85496e-07
1.31923e-05
4.36164e-07
1.29261e-05
3.7793e-07
1.25347e-05
7.96253e-07
2.49782e-07
1.19363e-05
2.66127e-05
5.29754e-06
2.71686e-05
7.66069e-06
2.67615e-05
5.62136e-06
2.62545e-05
3.49331e-06
2.56194e-05
2.48658e-06
2.48449e-05
2.17584e-06
2.41702e-05
1.65272e-06
2.3526e-05
1.40145e-06
2.2906e-05
1.31473e-06
2.24312e-05
9.90673e-07
2.20693e-05
6.72728e-07
2.16457e-05
8.41422e-07
2.13494e-05
6.2812e-07
2.10538e-05
5.91993e-07
2.07987e-05
5.13813e-07
2.04697e-05
7.14524e-07
2.01674e-05
7.38432e-07
1.97622e-05
7.83157e-07
1.93917e-05
1.16673e-06
1.2967e-06
1.83448e-05
2.63185e-05
3.97903e-06
2.7563e-05
6.41623e-06
2.80522e-05
5.13212e-06
2.84419e-05
3.1036e-06
2.86649e-05
2.2636e-06
2.85988e-05
2.2419e-06
2.84843e-05
1.76723e-06
2.82589e-05
1.62689e-06
2.79497e-05
1.62391e-06
2.76688e-05
1.2716e-06
2.74627e-05
8.78809e-07
2.7134e-05
1.1701e-06
2.69068e-05
8.55347e-07
2.6658e-05
8.40828e-07
2.64405e-05
7.31319e-07
2.61385e-05
1.01647e-06
2.58696e-05
1.00738e-06
2.54675e-05
1.18525e-06
2.5176e-05
1.45815e-06
2.35592e-06
2.41168e-05
2.60405e-05
2.93852e-06
2.72765e-05
5.18021e-06
2.80333e-05
4.37539e-06
2.8468e-05
2.66886e-06
2.89789e-05
1.75274e-06
2.9309e-05
1.91177e-06
2.95849e-05
1.49135e-06
2.9753e-05
1.45876e-06
2.98684e-05
1.50855e-06
2.98917e-05
1.2483e-06
2.99658e-05
8.04647e-07
2.99334e-05
1.20254e-06
2.99397e-05
8.49071e-07
2.9898e-05
8.8252e-07
2.98759e-05
7.53357e-07
2.97894e-05
1.10303e-06
2.96779e-05
1.11884e-06
2.95185e-05
1.34469e-06
2.9505e-05
1.47162e-06
2.23651e-06
2.96244e-05
2.58304e-05
2.10808e-06
2.69818e-05
4.02883e-06
2.78439e-05
3.51335e-06
2.82262e-05
2.28654e-06
2.86918e-05
1.2871e-06
2.90815e-05
1.5221e-06
2.94258e-05
1.14707e-06
2.9716e-05
1.16855e-06
3.00103e-05
1.2142e-06
3.01978e-05
1.06081e-06
3.0383e-05
6.19446e-07
3.05442e-05
1.04137e-06
3.06877e-05
7.05559e-07
3.08096e-05
7.60612e-07
3.09391e-05
6.23873e-07
3.10885e-05
9.5359e-07
3.11786e-05
1.02875e-06
3.1317e-05
1.20627e-06
3.15637e-05
1.22496e-06
1.8322e-06
3.1968e-05
2.56678e-05
1.44029e-06
2.67388e-05
2.9578e-06
2.76267e-05
2.6255e-06
2.80666e-05
1.84666e-06
2.84737e-05
8.79972e-07
2.88478e-05
1.14801e-06
2.91524e-05
8.4246e-07
2.94691e-05
8.51884e-07
2.97779e-05
9.05379e-07
3.00235e-05
8.15194e-07
3.02116e-05
4.31328e-07
3.04449e-05
8.08058e-07
3.05868e-05
5.63658e-07
3.07639e-05
5.83505e-07
3.0919e-05
4.68811e-07
3.1153e-05
7.19618e-07
3.1339e-05
8.42743e-07
3.1587e-05
9.58273e-07
3.18892e-05
9.22705e-07
1.32788e-06
3.23935e-05
2.55381e-05
9.02157e-07
2.65613e-05
1.93459e-06
2.74547e-05
1.73219e-06
2.80121e-05
1.28921e-06
2.83343e-05
5.57725e-07
2.86941e-05
7.8829e-07
2.89743e-05
5.62201e-07
2.92995e-05
5.26662e-07
2.96004e-05
6.04568e-07
2.98406e-05
5.7494e-07
3.00397e-05
2.32256e-07
3.02891e-05
5.58645e-07
3.04089e-05
4.43829e-07
3.06105e-05
3.81962e-07
3.07977e-05
2.81551e-07
3.10087e-05
5.08679e-07
3.12217e-05
6.29758e-07
3.14469e-05
7.33015e-07
3.17442e-05
6.25377e-07
7.27449e-07
3.23447e-05
2.54488e-05
4.53309e-07
2.64629e-05
9.20513e-07
2.73474e-05
8.47685e-07
2.79285e-05
7.08128e-07
2.82505e-05
2.35691e-07
2.85962e-05
4.42602e-07
2.88618e-05
2.96651e-07
2.91955e-05
1.92904e-07
2.95028e-05
2.97316e-07
2.97193e-05
3.58476e-07
2.99319e-05
1.96539e-08
3.01886e-05
3.01939e-07
3.02929e-05
3.39542e-07
3.05056e-05
1.69169e-07
3.07173e-05
6.98746e-08
3.08721e-05
3.53926e-07
3.11211e-05
3.80743e-07
3.14232e-05
4.30885e-07
3.17334e-05
3.15178e-07
4.05399e-07
3.20555e-05
2.54132e-05
4.01048e-08
2.64313e-05
-9.75741e-08
2.7291e-05
-1.20122e-08
2.78831e-05
1.16018e-07
2.8207e-05
-8.82076e-08
2.8534e-05
1.15585e-07
2.88045e-05
2.6144e-08
2.91478e-05
-1.50333e-07
2.94631e-05
-1.79837e-08
2.96642e-05
1.57328e-07
2.98761e-05
-1.92272e-07
3.01452e-05
3.28458e-08
3.02477e-05
2.37047e-07
3.04424e-05
-2.54815e-08
3.06629e-05
-1.50637e-07
3.08196e-05
1.97172e-07
3.11016e-05
9.87948e-08
3.14462e-05
8.63117e-08
3.16454e-05
1.15917e-07
4.78387e-07
3.15724e-05
2.5423e-05
-3.82934e-07
2.64394e-05
-1.11391e-06
2.72835e-05
-8.56163e-07
2.78864e-05
-4.8685e-07
2.81897e-05
-3.91469e-07
2.85222e-05
-2.16913e-07
2.88225e-05
-2.74248e-07
2.91383e-05
-4.66048e-07
2.94643e-05
-3.43999e-07
2.96935e-05
-7.18985e-08
2.98643e-05
-3.63041e-07
3.01327e-05
-2.35622e-07
3.02677e-05
1.02128e-07
3.04262e-05
-1.84061e-07
3.06469e-05
-3.71264e-07
3.08867e-05
-4.26784e-08
3.11111e-05
-1.25631e-07
3.13668e-05
-1.69339e-07
3.15751e-05
-9.23825e-08
2.06764e-07
3.18467e-05
2.5474e-05
-8.5694e-07
2.64907e-05
-2.13062e-06
2.73278e-05
-1.69323e-06
2.7932e-05
-1.09103e-06
2.82082e-05
-6.67718e-07
2.85766e-05
-5.85247e-07
2.88996e-05
-5.97277e-07
2.91836e-05
-7.50077e-07
2.95138e-05
-6.7423e-07
2.97784e-05
-3.36417e-07
2.98883e-05
-4.73027e-07
3.01587e-05
-5.05967e-07
3.03508e-05
-8.99963e-08
3.04813e-05
-3.14561e-07
3.06732e-05
-5.63136e-07
3.09852e-05
-3.54703e-07
3.11629e-05
-3.03335e-07
3.13797e-05
-3.86121e-07
3.17245e-05
-4.37204e-07
-1.88253e-07
3.21195e-05
2.55728e-05
-1.4297e-06
2.6601e-05
-3.15885e-06
2.74133e-05
-2.50558e-06
2.79984e-05
-1.67613e-06
2.83042e-05
-9.73482e-07
2.86793e-05
-9.60316e-07
2.90194e-05
-9.37444e-07
2.93366e-05
-1.06721e-06
2.95946e-05
-9.3228e-07
2.98595e-05
-6.01325e-07
3.00184e-05
-6.31866e-07
3.02472e-05
-7.34804e-07
3.04208e-05
-2.6355e-07
3.06446e-05
-5.38443e-07
3.08082e-05
-7.26718e-07
3.10678e-05
-6.14295e-07
3.12728e-05
-5.08281e-07
3.15659e-05
-6.7928e-07
3.18123e-05
-6.83547e-07
-4.15838e-07
3.20399e-05
2.57072e-05
-2.13694e-06
2.67556e-05
-4.20718e-06
2.75489e-05
-3.29889e-06
2.80379e-05
-2.16519e-06
2.8496e-05
-1.43155e-06
2.88457e-05
-1.30996e-06
2.92056e-05
-1.29743e-06
2.9561e-05
-1.4226e-06
2.97226e-05
-1.09386e-06
2.99569e-05
-8.35611e-07
3.02312e-05
-9.06195e-07
3.04129e-05
-9.16466e-07
3.05535e-05
-4.04201e-07
3.08748e-05
-8.59758e-07
3.10217e-05
-8.73564e-07
3.11667e-05
-7.5933e-07
3.13439e-05
-6.8548e-07
3.1687e-05
-1.02236e-06
3.18867e-05
-8.83213e-07
-7.85514e-07
3.22563e-05
2.58637e-05
-3.00063e-06
2.6937e-05
-5.28046e-06
2.7752e-05
-4.11394e-06
2.8245e-05
-2.65818e-06
2.87566e-05
-1.94315e-06
2.91127e-05
-1.66605e-06
2.94729e-05
-1.65761e-06
2.9746e-05
-1.69574e-06
2.99127e-05
-1.26056e-06
3.01332e-05
-1.05609e-06
3.04074e-05
-1.18037e-06
3.05527e-05
-1.06183e-06
3.07154e-05
-5.66904e-07
3.09098e-05
-1.05415e-06
3.10023e-05
-9.66045e-07
3.10768e-05
-8.33852e-07
3.117e-05
-7.78698e-07
3.14202e-05
-1.27254e-06
3.16222e-05
-1.08517e-06
-1.18794e-06
3.20246e-05
2.60359e-05
-4.03658e-06
2.71862e-05
-6.43075e-06
2.80171e-05
-4.94483e-06
2.85538e-05
-3.19483e-06
2.90057e-05
-2.39508e-06
2.93357e-05
-1.996e-06
2.95976e-05
-1.91958e-06
2.97043e-05
-1.80245e-06
2.98087e-05
-1.36491e-06
2.99117e-05
-1.1591e-06
2.99683e-05
-1.23699e-06
2.99476e-05
-1.0411e-06
2.99992e-05
-6.18498e-07
2.99268e-05
-9.81745e-07
2.98571e-05
-8.96378e-07
2.97838e-05
-7.60542e-07
2.97273e-05
-7.22129e-07
2.96718e-05
-1.21714e-06
2.96257e-05
-1.03905e-06
-1.31193e-06
2.97497e-05
2.62879e-05
-5.32443e-06
2.75162e-05
-7.65905e-06
2.81056e-05
-5.53432e-06
2.84767e-05
-3.56592e-06
2.86322e-05
-2.55055e-06
2.86377e-05
-2.00149e-06
2.84743e-05
-1.75617e-06
2.81979e-05
-1.52606e-06
2.79649e-05
-1.13188e-06
2.77198e-05
-9.14078e-07
2.74147e-05
-9.3182e-07
2.71402e-05
-7.66659e-07
2.69594e-05
-4.37713e-07
2.66505e-05
-6.7277e-07
2.64005e-05
-6.46443e-07
2.61681e-05
-5.28111e-07
2.59497e-05
-5.03765e-07
2.56183e-05
-8.85689e-07
2.53888e-05
-8.09588e-07
-1.17842e-06
2.52553e-05
2.65951e-05
-6.91955e-06
2.71558e-05
-8.21968e-06
2.67967e-05
-5.17529e-06
2.62456e-05
-3.01476e-06
2.55901e-05
-1.8951e-06
2.48904e-05
-1.30176e-06
2.41552e-05
-1.02098e-06
2.34778e-05
-8.48645e-07
2.29382e-05
-5.92327e-07
2.24718e-05
-4.47598e-07
2.20118e-05
-4.71834e-07
2.1645e-05
-3.99883e-07
2.13915e-05
-1.84271e-07
2.10544e-05
-3.35574e-07
2.07638e-05
-3.55869e-07
2.05099e-05
-2.74222e-07
2.02636e-05
-2.57495e-07
1.98668e-05
-4.88915e-07
1.95395e-05
-4.82276e-07
-4.44762e-07
1.88059e-05
2.54475e-05
-7.36707e-06
2.32464e-05
-6.01858e-06
2.09976e-05
-2.92645e-06
1.93142e-05
-1.33139e-06
1.80664e-05
-6.47282e-07
1.7125e-05
-3.60332e-07
1.63662e-05
-2.62199e-07
1.57525e-05
-2.34954e-07
1.53095e-05
-1.49387e-07
1.49591e-05
-9.70995e-08
1.46156e-05
-1.28413e-07
1.43398e-05
-1.24086e-07
1.41776e-05
-2.20512e-08
1.39345e-05
-9.2416e-08
1.37005e-05
-1.21937e-07
1.35089e-05
-8.26356e-08
1.33171e-05
-6.56274e-08
1.29952e-05
-1.67033e-07
1.27183e-05
-2.05356e-07
-6.74423e-08
1.23409e-05
1.76329e-05
1.16143e-05
8.68789e-06
7.35651e-06
6.70923e-06
6.34889e-06
6.08669e-06
5.85174e-06
5.70235e-06
5.60525e-06
5.47684e-06
5.35275e-06
5.3307e-06
5.23829e-06
5.11635e-06
5.03371e-06
4.96809e-06
4.80105e-06
4.5957e-06
4.52826e-06
4.56421e-06
-1.09872e-07
2.2198e-07
4.82229e-06
4.7194e-07
-7.30021e-07
5.45689e-06
8.63336e-07
-1.49794e-06
6.86444e-06
1.56372e-06
-2.97126e-06
8.9019e-06
2.35954e-06
-4.397e-06
1.12492e-05
3.15634e-06
-5.50368e-06
1.35197e-05
3.63732e-06
-5.90779e-06
1.54159e-05
3.63695e-06
-5.53317e-06
1.70789e-05
3.10544e-06
-4.76838e-06
1.85857e-05
2.47914e-06
-3.98593e-06
1.95297e-05
1.96864e-06
-2.91268e-06
1.99366e-05
8.14972e-07
-1.22184e-06
2.02889e-05
-3.91876e-07
3.95762e-08
2.02132e-05
-1.0941e-06
1.16975e-06
1.98523e-05
-2.02685e-06
2.38777e-06
1.95849e-05
-2.69016e-06
2.95759e-06
1.91718e-05
-2.86916e-06
3.28223e-06
1.86275e-05
-3.36162e-06
3.90589e-06
1.84014e-05
-3.79324e-06
4.01937e-06
1.8339e-05
-4.00535e-06
4.06773e-06
1.85427e-05
-4.25915e-06
4.05546e-06
1.94095e-05
-4.60485e-06
3.73804e-06
2.05104e-05
-5.04864e-06
3.94774e-06
2.15539e-05
-5.12929e-06
4.0858e-06
2.28018e-05
-5.30808e-06
4.06022e-06
2.41852e-05
-5.83927e-06
4.4558e-06
2.53648e-05
-5.96667e-06
4.78707e-06
2.66622e-05
-6.56553e-06
5.26817e-06
2.78167e-05
-6.93914e-06
5.78468e-06
2.87385e-05
-7.03944e-06
6.11758e-06
2.95142e-05
-8.08783e-06
7.31217e-06
3.01083e-05
-8.342e-06
7.74786e-06
3.05691e-05
-8.54691e-06
8.08614e-06
3.08249e-05
-9.39405e-06
9.13829e-06
3.09792e-05
-9.49036e-06
9.33598e-06
3.07184e-05
-9.54617e-06
9.80701e-06
3.01913e-05
-9.53751e-06
1.00646e-05
2.97293e-05
-8.58959e-06
9.05158e-06
2.95075e-05
-8.25872e-06
8.48052e-06
2.88355e-05
-6.93876e-06
7.61077e-06
2.82423e-05
-5.42055e-06
6.01376e-06
2.75727e-05
-4.78944e-06
5.459e-06
2.6975e-05
-3.20946e-06
3.80716e-06
2.69083e-05
-2.52232e-06
2.58899e-06
2.67031e-05
-1.84479e-06
2.05001e-06
2.67428e-05
-4.72341e-07
4.32656e-07
2.6997e-05
-1.80249e-07
-7.39677e-08
2.71151e-05
5.99381e-07
-7.17509e-07
2.74921e-05
1.23933e-06
-1.61631e-06
2.77196e-05
9.22333e-07
-1.14985e-06
2.80006e-05
1.19009e-06
-1.47106e-06
2.8407e-05
7.2525e-07
-1.13163e-06
2.84574e-05
1.87401e-07
-2.37808e-07
2.87749e-05
-4.0603e-07
8.85109e-08
2.89587e-05
-1.38405e-06
1.20021e-06
2.8844e-05
-2.04351e-06
2.15823e-06
2.90236e-05
-3.40368e-06
3.22406e-06
2.8828e-05
-4.48074e-06
4.67634e-06
2.86712e-05
-5.27032e-06
5.42713e-06
2.84416e-05
-6.77726e-06
7.00688e-06
2.78108e-05
-7.51965e-06
8.15046e-06
2.73903e-05
-8.38815e-06
8.80866e-06
2.67101e-05
-9.4652e-06
1.01454e-05
2.56565e-05
-9.63253e-06
1.06862e-05
2.49515e-05
-1.0256e-05
1.0961e-05
2.40535e-05
-1.11088e-05
1.20067e-05
2.28365e-05
-1.08586e-05
1.20756e-05
2.19905e-05
-1.09454e-05
1.17914e-05
2.17524e-05
-1.21461e-05
1.23842e-05
2.11787e-05
-1.23505e-05
1.29242e-05
2.06897e-05
-1.2217e-05
1.2706e-05
2.05314e-05
-1.36296e-05
1.37879e-05
1.97063e-05
-1.44985e-05
1.53236e-05
1.80914e-05
-1.36604e-05
1.52752e-05
1.61676e-05
-1.20941e-05
1.40179e-05
1.52193e-05
-1.19717e-05
1.29201e-05
1.48132e-05
-1.32517e-05
1.36578e-05
1.48436e-05
-1.51837e-05
1.51532e-05
1.54757e-05
-1.77993e-05
1.71672e-05
1.63662e-05
-2.00079e-05
1.91175e-05
1.73973e-05
-2.10231e-05
1.9992e-05
1.82639e-05
-2.09806e-05
2.01139e-05
1.92173e-05
-2.06399e-05
1.96865e-05
2.00826e-05
-1.97359e-05
1.88706e-05
2.07441e-05
-1.76472e-05
1.69857e-05
2.13808e-05
-1.55517e-05
1.49151e-05
2.18738e-05
-1.272e-05
1.2227e-05
2.24322e-05
-9.3724e-06
8.81398e-06
2.28932e-05
-6.58693e-06
6.1259e-06
2.33436e-05
-2.72285e-06
2.27249e-06
2.35895e-05
1.42626e-06
-1.67215e-06
2.38899e-05
4.11039e-06
-4.41083e-06
2.40463e-05
8.0769e-06
-8.23332e-06
2.40308e-05
1.17189e-05
-1.17034e-05
2.37692e-05
1.36661e-05
-1.34044e-05
2.37343e-05
1.5471e-05
-1.54362e-05
2.35877e-05
1.86542e-05
-1.85076e-05
2.29296e-05
2.0035e-05
-1.93769e-05
2.23239e-05
1.97597e-05
-1.9154e-05
2.19732e-05
2.02227e-05
-1.9872e-05
2.17608e-05
2.12184e-05
-2.1006e-05
2.1707e-05
2.15789e-05
-2.15251e-05
2.13943e-05
2.10232e-05
-2.07106e-05
2.17094e-05
2.07573e-05
-2.10724e-05
2.18406e-05
2.1494e-05
-2.16252e-05
2.18557e-05
2.16695e-05
-2.16845e-05
2.18819e-05
2.09454e-05
-2.09715e-05
2.13593e-05
1.99207e-05
-1.93981e-05
2.12506e-05
1.81781e-05
-1.80694e-05
2.11278e-05
1.69612e-05
-1.68384e-05
2.12005e-05
1.51437e-05
-1.52164e-05
2.14328e-05
1.36032e-05
-1.38354e-05
2.1499e-05
1.21084e-05
-1.21746e-05
2.18122e-05
1.01584e-05
-1.04715e-05
2.17926e-05
7.82026e-06
-7.80069e-06
2.16531e-05
5.46742e-06
-5.3279e-06
2.14991e-05
3.06884e-06
-2.91482e-06
2.16044e-05
4.92095e-08
-1.54522e-07
2.16789e-05
-3.66342e-06
3.58891e-06
2.13949e-05
-6.36274e-06
6.64676e-06
2.07775e-05
-8.25271e-06
8.87008e-06
1.98725e-05
-9.26332e-06
1.01683e-05
1.89404e-05
-9.83578e-06
1.07679e-05
1.79792e-05
-9.81848e-06
1.07797e-05
1.70072e-05
-9.207e-06
1.0179e-05
1.60744e-05
-7.7895e-06
8.72228e-06
1.51375e-05
-6.47753e-06
7.41441e-06
1.4312e-05
-5.41523e-06
6.24078e-06
1.34334e-05
-4.00785e-06
4.88638e-06
1.31553e-05
-3.02349e-06
3.30164e-06
1.28335e-05
-2.21618e-06
2.53792e-06
1.2741e-05
-1.18022e-06
1.27277e-06
1.26723e-05
-4.43744e-07
5.12487e-07
1.30233e-05
-3.69937e-07
1.88875e-08
1.29383e-05
5.97881e-08
2.51941e-08
1.32421e-05
2.01144e-07
-5.04955e-07
1.33799e-05
3.6017e-08
-1.73759e-07
1.37121e-05
-9.95014e-08
-2.32703e-07
1.36442e-05
2.05744e-07
-1.37899e-07
1.40609e-05
-3.62498e-08
-3.8043e-07
1.40452e-05
3.81572e-08
-2.24221e-08
1.42549e-05
1.24872e-07
-3.34599e-07
1.41119e-05
4.24725e-07
-2.81743e-07
1.43951e-05
1.97661e-07
-4.80822e-07
1.4115e-05
4.62522e-07
-1.82462e-07
1.42152e-05
4.81775e-07
-5.81964e-07
1.39739e-05
6.71057e-07
-4.29753e-07
1.41565e-05
3.14369e-07
-4.96969e-07
1.37753e-05
6.70783e-07
-2.89526e-07
1.39459e-05
5.44063e-07
-7.14654e-07
1.37246e-05
6.56481e-07
-4.35278e-07
1.39139e-05
3.01891e-07
-4.91155e-07
1.35618e-05
8.18301e-07
-4.66195e-07
1.3817e-05
5.49999e-07
-8.05161e-07
1.3626e-05
7.00547e-07
-5.09534e-07
1.38246e-05
4.20892e-07
-6.19571e-07
1.35263e-05
1.00898e-06
-7.10692e-07
1.37908e-05
6.59722e-07
-9.24184e-07
1.36304e-05
8.69913e-07
-7.09507e-07
1.38232e-05
6.5788e-07
-8.50655e-07
1.3584e-05
1.2145e-06
-9.75297e-07
1.37931e-05
9.07074e-07
-1.11622e-06
1.3679e-05
1.15049e-06
-1.0364e-06
1.38388e-05
9.76522e-07
-1.13633e-06
1.36961e-05
1.4569e-06
-1.31411e-06
1.37888e-05
1.26569e-06
-1.35849e-06
1.37669e-05
1.53344e-06
-1.51152e-06
1.38228e-05
1.39239e-06
-1.44825e-06
1.38646e-05
1.76766e-06
-1.80948e-06
1.37974e-05
1.70511e-06
-1.63794e-06
1.39681e-05
1.95203e-06
-2.12271e-06
1.37975e-05
1.99555e-06
-1.82493e-06
1.41256e-05
2.16531e-06
-2.49341e-06
1.38628e-05
2.34557e-06
-2.08271e-06
1.43272e-05
2.3243e-06
-2.78871e-06
1.39247e-05
2.82512e-06
-2.4227e-06
1.44518e-05
2.67936e-06
-3.2064e-06
1.40431e-05
3.32264e-06
-2.91393e-06
1.4599e-05
2.92144e-06
-3.47735e-06
1.43227e-05
3.71215e-06
-3.43584e-06
1.47186e-05
3.43004e-06
-3.82599e-06
1.4539e-05
4.37417e-06
-4.19458e-06
1.46727e-05
4.15208e-06
-4.28576e-06
1.4979e-05
4.72555e-06
-5.03189e-06
1.48095e-05
4.87112e-06
-4.70157e-06
1.55394e-05
5.13508e-06
-5.86503e-06
1.50028e-05
6.05279e-06
-5.5162e-06
1.58291e-05
5.78705e-06
-6.61334e-06
1.52217e-05
7.2186e-06
-6.61125e-06
1.57664e-05
6.77377e-06
-7.31839e-06
1.54884e-05
8.34095e-06
-8.06298e-06
1.53854e-05
8.10723e-06
-8.00426e-06
1.56708e-05
9.22388e-06
-9.50927e-06
1.47305e-05
1.05161e-05
-9.57584e-06
1.51975e-05
1.11003e-05
-1.15672e-05
1.43806e-05
1.31535e-05
-1.23366e-05
1.49173e-05
1.34708e-05
-1.40075e-05
1.3971e-05
1.82894e-05
-1.73431e-05
1.47815e-05
1.91916e-05
-2.00021e-05
2.96892e-05
-2.94689e-05
1.45612e-05
1.16939e-05
1.32605e-07
1.17304e-05
4.35379e-07
1.18075e-05
7.86225e-07
1.20899e-05
1.28137e-06
1.26753e-05
1.77415e-06
1.36243e-05
2.20736e-06
1.48978e-05
2.36378e-06
1.61743e-05
2.36051e-06
1.72833e-05
1.99637e-06
1.83893e-05
1.37319e-06
1.94972e-05
8.60727e-07
2.03026e-05
9.53683e-09
2.06065e-05
-6.95716e-07
2.08549e-05
-1.34255e-06
2.08982e-05
-2.07009e-06
2.0868e-05
-2.66001e-06
2.11673e-05
-3.16844e-06
2.14488e-05
-3.64311e-06
2.18278e-05
-4.1722e-06
2.2638e-05
-4.81559e-06
2.35071e-05
-5.12825e-06
2.4407e-05
-5.50475e-06
2.55939e-05
-6.23557e-06
2.6627e-05
-6.16235e-06
2.77082e-05
-6.38926e-06
2.90335e-05
-7.16458e-06
3.00356e-05
-6.96879e-06
3.08339e-05
-7.36382e-06
3.16023e-05
-7.70755e-06
3.22916e-05
-7.72872e-06
3.25077e-05
-8.30391e-06
3.26232e-05
-8.45749e-06
3.27201e-05
-8.64385e-06
3.25947e-05
-9.26864e-06
3.2149e-05
-9.0447e-06
3.17285e-05
-9.12564e-06
3.11031e-05
-8.91207e-06
3.04654e-05
-7.95198e-06
2.94265e-05
-7.21974e-06
2.81633e-05
-5.6756e-06
2.75943e-05
-4.85153e-06
2.70989e-05
-4.29404e-06
2.69777e-05
-3.08822e-06
2.68825e-05
-2.42719e-06
2.65936e-05
-1.5559e-06
2.64942e-05
-3.72926e-07
2.64171e-05
-1.03104e-07
2.63979e-05
6.18569e-07
2.67703e-05
8.66925e-07
2.68689e-05
8.23726e-07
2.73183e-05
7.40742e-07
2.7693e-05
3.50525e-07
2.78471e-05
3.3302e-08
2.82181e-05
-7.77084e-07
2.82874e-05
-1.45333e-06
2.83109e-05
-2.06704e-06
2.83033e-05
-3.396e-06
2.79557e-05
-4.13322e-06
2.78212e-05
-5.13581e-06
2.73003e-05
-6.25635e-06
2.66268e-05
-6.84611e-06
2.61172e-05
-7.87853e-06
2.53261e-05
-8.67413e-06
2.45453e-05
-8.85176e-06
2.40003e-05
-9.71092e-06
2.32248e-05
-1.03333e-05
2.23631e-05
-9.99691e-06
2.2212e-05
-1.07943e-05
2.19315e-05
-1.18656e-05
2.09899e-05
-1.14089e-05
2.0435e-05
-1.16621e-05
1.98256e-05
-1.30202e-05
1.84949e-05
-1.31677e-05
1.63726e-05
-1.15382e-05
1.47211e-05
-1.04425e-05
1.37756e-05
-1.10263e-05
1.32848e-05
-1.27609e-05
1.34394e-05
-1.53383e-05
1.40236e-05
-1.83836e-05
1.50545e-05
-2.10387e-05
1.58345e-05
-2.18032e-05
1.64009e-05
-2.15469e-05
1.71367e-05
-2.13757e-05
1.76091e-05
-2.02083e-05
1.82488e-05
-1.82869e-05
1.87485e-05
-1.60514e-05
1.91184e-05
-1.30899e-05
1.97598e-05
-1.00138e-05
2.01979e-05
-7.02494e-06
2.04528e-05
-2.97775e-06
2.08144e-05
1.06465e-06
2.10654e-05
3.85936e-06
2.13863e-05
7.75601e-06
2.15797e-05
1.15255e-05
2.14684e-05
1.37774e-05
2.13879e-05
1.55516e-05
2.1491e-05
1.85511e-05
2.11309e-05
2.03951e-05
2.06154e-05
2.02752e-05
2.05188e-05
2.03193e-05
2.03099e-05
2.14273e-05
2.03546e-05
2.15342e-05
2.0296e-05
2.10818e-05
2.0406e-05
2.06473e-05
2.10801e-05
2.08198e-05
2.13637e-05
2.13859e-05
2.14459e-05
2.08632e-05
2.14247e-05
1.99418e-05
2.11777e-05
1.84251e-05
2.12766e-05
1.68624e-05
2.11968e-05
1.52234e-05
2.13358e-05
1.34642e-05
2.16314e-05
1.18128e-05
2.18072e-05
9.98254e-06
2.20818e-05
7.54563e-06
2.19039e-05
5.64531e-06
2.22096e-05
2.76318e-06
2.23246e-05
-6.57586e-08
2.24156e-05
-3.7544e-06
2.17863e-05
-5.73347e-06
2.11358e-05
-7.60225e-06
2.01914e-05
-8.31887e-06
1.92761e-05
-8.92048e-06
1.80641e-05
-8.60648e-06
1.7073e-05
-8.21596e-06
1.60421e-05
-6.75853e-06
1.52635e-05
-5.69894e-06
1.43795e-05
-4.53126e-06
1.37046e-05
-3.33295e-06
1.31805e-05
-2.49945e-06
1.29174e-05
-1.95303e-06
1.27233e-05
-9.86092e-07
1.28102e-05
-5.30639e-07
1.29296e-05
-4.89386e-07
1.307e-05
-8.0568e-08
1.31736e-05
9.75217e-08
1.34395e-05
-2.29905e-07
1.35115e-05
-1.7146e-07
1.36483e-05
6.89211e-08
1.37906e-05
-1.78598e-07
1.39937e-05
-1.64873e-07
1.39889e-05
1.296e-07
1.41758e-05
2.37826e-07
1.42576e-05
1.15851e-07
1.43232e-05
3.96939e-07
1.4246e-05
5.59026e-07
1.44306e-05
4.86466e-07
1.43221e-05
4.22813e-07
1.43225e-05
6.70435e-07
1.41818e-05
6.84726e-07
1.43517e-05
4.86595e-07
1.40879e-05
5.65695e-07
1.41456e-05
7.60572e-07
1.39745e-05
7.21105e-07
1.42161e-05
4.59004e-07
1.38921e-05
7.44884e-07
1.40768e-05
8.24256e-07
1.38931e-05
8.4342e-07
1.42487e-05
5.14291e-07
1.39032e-05
1.00339e-06
1.4171e-05
9.46667e-07
1.39554e-05
1.12271e-06
1.43966e-05
7.09283e-07
1.4068e-05
1.30518e-06
1.43553e-05
1.16958e-06
1.40964e-05
1.52452e-06
1.45462e-05
1.08368e-06
1.4304e-05
1.63462e-06
1.45813e-05
1.49032e-06
1.43311e-05
1.95536e-06
1.46338e-05
1.64933e-06
1.45317e-05
2.0976e-06
1.47537e-05
1.94329e-06
1.47243e-05
2.37503e-06
1.47258e-05
2.32275e-06
1.48303e-05
2.72064e-06
1.47485e-05
2.76114e-06
1.51973e-05
2.87391e-06
1.49319e-05
3.18682e-06
1.54403e-05
3.20373e-06
1.48569e-05
4.01345e-06
1.55139e-05
3.71719e-06
1.50683e-05
4.59763e-06
1.5758e-05
4.03592e-06
1.53688e-05
5.26027e-06
1.56731e-05
4.83078e-06
1.56468e-05
6.07914e-06
1.55125e-05
5.92128e-06
1.61955e-05
6.53568e-06
1.56702e-05
7.29908e-06
1.6713e-05
7.29816e-06
1.61359e-05
8.68432e-06
1.67592e-05
8.60056e-06
1.61825e-05
1.10929e-05
1.69491e-05
1.03336e-05
1.6216e-05
1.38866e-05
1.73309e-05
1.23558e-05
1.63164e-05
1.93039e-05
2.18823e-05
1.36257e-05
2.99573e-05
2.16143e-05
1.81562e-05
3.21253e-07
1.83783e-05
2.13263e-07
1.87193e-05
4.45209e-07
1.90465e-05
9.54219e-07
1.93964e-05
1.42423e-06
1.97618e-05
1.84191e-06
2.02297e-05
1.89589e-06
2.08286e-05
1.76161e-06
2.14801e-05
1.3449e-06
2.21458e-05
7.07459e-07
2.28027e-05
2.03836e-07
2.33953e-05
-5.83068e-07
2.39325e-05
-1.23287e-06
2.44036e-05
-1.8137e-06
2.4878e-05
-2.54448e-06
2.52555e-05
-3.0375e-06
2.57338e-05
-3.6468e-06
2.63594e-05
-4.26864e-06
2.69401e-05
-4.75293e-06
2.75838e-05
-5.4593e-06
2.84367e-05
-5.98109e-06
2.91751e-05
-6.24315e-06
2.99405e-05
-7.00102e-06
3.08843e-05
-7.10618e-06
3.17474e-05
-7.25231e-06
3.24284e-05
-7.84559e-06
3.31455e-05
-7.68593e-06
3.35656e-05
-7.78385e-06
3.38878e-05
-8.0298e-06
3.40684e-05
-7.9093e-06
3.39114e-05
-8.1469e-06
3.36736e-05
-8.21968e-06
3.35541e-05
-8.52442e-06
3.30064e-05
-8.72089e-06
3.24359e-05
-8.47422e-06
3.1897e-05
-8.58674e-06
3.07657e-05
-7.78073e-06
2.97403e-05
-6.92656e-06
2.86899e-05
-6.16937e-06
2.81962e-05
-5.18194e-06
2.79976e-05
-4.65294e-06
2.77221e-05
-4.01847e-06
2.75068e-05
-2.87299e-06
2.71175e-05
-2.03783e-06
2.65369e-05
-9.75326e-07
2.62172e-05
-5.32219e-08
2.57993e-05
3.14826e-07
2.57124e-05
7.05469e-07
2.58286e-05
7.50662e-07
2.58579e-05
7.94464e-07
2.6283e-05
3.15603e-07
2.65199e-05
1.13639e-07
2.67797e-05
-2.26456e-07
2.70211e-05
-1.01852e-06
2.70425e-05
-1.47472e-06
2.71604e-05
-2.18491e-06
2.69084e-05
-3.14406e-06
2.66046e-05
-3.82944e-06
2.64259e-05
-4.95705e-06
2.5899e-05
-5.72947e-06
2.54781e-05
-6.42521e-06
2.51627e-05
-7.56318e-06
2.46488e-05
-8.16019e-06
2.42214e-05
-8.42442e-06
2.39128e-05
-9.40229e-06
2.31887e-05
-9.60914e-06
2.27661e-05
-9.57437e-06
2.26448e-05
-1.06729e-05
2.16874e-05
-1.09082e-05
2.05782e-05
-1.02997e-05
1.99267e-05
-1.10106e-05
1.90394e-05
-1.21329e-05
1.70611e-05
-1.11894e-05
1.47991e-05
-9.2761e-06
1.32395e-05
-8.88298e-06
1.23317e-05
-1.01185e-05
1.19204e-05
-1.23496e-05
1.20367e-05
-1.54546e-05
1.28483e-05
-1.91952e-05
1.35338e-05
-2.17242e-05
1.37075e-05
-2.19769e-05
1.41163e-05
-2.19557e-05
1.45857e-05
-2.18451e-05
1.49808e-05
-2.06034e-05
1.56121e-05
-1.89183e-05
1.58428e-05
-1.6282e-05
1.63583e-05
-1.36054e-05
1.68859e-05
-1.05415e-05
1.72975e-05
-7.43651e-06
1.73356e-05
-3.01587e-06
1.77568e-05
6.43472e-07
1.81138e-05
3.50234e-06
1.84703e-05
7.39954e-06
1.86872e-05
1.13086e-05
1.90018e-05
1.34627e-05
1.90775e-05
1.54759e-05
1.92281e-05
1.84005e-05
1.93078e-05
2.03154e-05
1.89721e-05
2.06109e-05
1.89712e-05
2.03202e-05
1.91308e-05
2.12677e-05
1.91813e-05
2.14838e-05
1.92733e-05
2.09899e-05
1.94587e-05
2.04619e-05
1.99238e-05
2.03547e-05
2.06488e-05
2.0661e-05
2.0937e-05
2.0575e-05
2.11338e-05
1.9745e-05
2.11557e-05
1.84032e-05
2.10784e-05
1.69397e-05
2.1343e-05
1.49588e-05
2.126e-05
1.35472e-05
2.16608e-05
1.1412e-05
2.17781e-05
9.86519e-06
2.21186e-05
7.20514e-06
2.21684e-05
5.59554e-06
2.25872e-05
2.34438e-06
2.26937e-05
-1.72268e-07
2.26663e-05
-3.72698e-06
2.18242e-05
-4.89137e-06
2.11286e-05
-6.90662e-06
2.00579e-05
-7.24817e-06
1.91637e-05
-8.02635e-06
1.7929e-05
-7.37169e-06
1.69245e-05
-7.21153e-06
1.57808e-05
-5.61482e-06
1.51841e-05
-5.1022e-06
1.44422e-05
-3.7894e-06
1.40639e-05
-2.95464e-06
1.35108e-05
-1.94633e-06
1.34446e-05
-1.88682e-06
1.30997e-05
-6.41217e-07
1.31917e-05
-6.22598e-07
1.30431e-05
-3.40851e-07
1.32084e-05
-2.45799e-07
1.29803e-05
3.25587e-07
1.31994e-05
-4.48985e-07
1.30736e-05
-4.56516e-08
1.32759e-05
-1.33359e-07
1.31874e-05
-9.013e-08
1.34808e-05
-4.58298e-07
1.34216e-05
1.88858e-07
1.36732e-05
-1.38037e-08
1.36104e-05
1.7866e-07
1.38198e-05
1.87533e-07
1.37001e-05
6.78678e-07
1.38103e-05
3.76281e-07
1.36105e-05
6.22628e-07
1.36983e-05
5.82679e-07
1.35098e-05
8.73217e-07
1.35168e-05
4.79522e-07
1.33256e-05
7.56961e-07
1.34063e-05
6.7983e-07
1.33022e-05
8.25174e-07
1.33055e-05
4.55798e-07
1.32194e-05
8.30928e-07
1.32846e-05
7.59076e-07
1.3315e-05
8.13015e-07
1.32848e-05
5.44457e-07
1.32967e-05
9.91554e-07
1.32705e-05
9.72797e-07
1.3471e-05
9.2223e-07
1.33744e-05
8.05868e-07
1.35137e-05
1.16594e-06
1.33373e-05
1.34599e-06
1.3729e-05
1.13275e-06
1.35696e-05
1.24309e-06
1.38836e-05
1.32062e-06
1.35577e-05
1.81622e-06
1.40619e-05
1.45113e-06
1.38193e-05
1.89194e-06
1.43519e-05
1.56506e-06
1.39939e-05
2.3013e-06
1.44895e-05
1.87941e-06
1.41127e-05
2.69952e-06
1.47106e-05
2.12278e-06
1.45433e-05
2.92848e-06
1.49512e-05
2.46599e-06
1.47481e-05
3.38987e-06
1.48887e-05
3.06317e-06
1.50889e-05
3.81321e-06
1.51355e-05
3.6706e-06
1.57034e-05
4.02972e-06
1.53249e-05
4.41446e-06
1.60345e-05
4.55069e-06
1.53263e-05
5.53889e-06
1.61616e-05
5.24389e-06
1.55484e-05
6.53446e-06
1.63128e-05
5.77126e-06
1.57152e-05
7.89675e-06
1.65588e-05
6.45453e-06
1.59562e-05
9.28687e-06
1.6972e-05
7.58477e-06
1.63954e-05
1.16694e-05
1.82675e-05
8.4616e-06
1.70494e-05
1.51047e-05
2.09743e-05
8.43096e-06
1.88502e-05
2.14279e-05
2.38664e-05
8.60952e-06
2.69252e-05
2.68985e-05
2.41312e-05
3.0684e-07
2.42739e-05
7.06342e-08
2.4603e-05
1.16088e-07
2.49355e-05
6.21732e-07
2.53079e-05
1.05176e-06
2.57639e-05
1.38595e-06
2.62564e-05
1.40342e-06
2.66658e-05
1.35219e-06
2.7104e-05
9.06744e-07
2.75157e-05
2.95685e-07
2.78984e-05
-1.78858e-07
2.83877e-05
-1.07234e-06
2.87745e-05
-1.61968e-06
2.92236e-05
-2.26275e-06
2.96834e-05
-3.0043e-06
3.01032e-05
-3.45737e-06
3.04999e-05
-4.04348e-06
3.09289e-05
-4.69763e-06
3.14122e-05
-5.23617e-06
3.17106e-05
-5.75777e-06
3.21288e-05
-6.39932e-06
3.26875e-05
-6.80181e-06
3.29166e-05
-7.23009e-06
3.34685e-05
-7.65809e-06
3.40055e-05
-7.78931e-06
3.41756e-05
-8.0157e-06
3.4431e-05
-7.94131e-06
3.45702e-05
-7.9231e-06
3.43904e-05
-7.84995e-06
3.41803e-05
-7.69921e-06
3.39787e-05
-7.94533e-06
3.36886e-05
-7.92956e-06
3.34045e-05
-8.24031e-06
3.28728e-05
-8.18916e-06
3.23483e-05
-7.94971e-06
3.13363e-05
-7.57481e-06
3.03506e-05
-6.79501e-06
2.95855e-05
-6.16145e-06
2.89641e-05
-5.54798e-06
2.85181e-05
-4.73594e-06
2.80541e-05
-4.18895e-06
2.75281e-05
-3.49244e-06
2.7038e-05
-2.38292e-06
2.65272e-05
-1.52703e-06
2.60141e-05
-4.62267e-07
2.58371e-05
1.23807e-07
2.55034e-05
6.48473e-07
2.55904e-05
6.18472e-07
2.55703e-05
7.70836e-07
2.57288e-05
6.35974e-07
2.58237e-05
2.20636e-07
2.59262e-05
1.11942e-08
2.59795e-05
-2.79755e-07
2.59066e-05
-9.45609e-07
2.5797e-05
-1.36518e-06
2.57702e-05
-2.1581e-06
2.5463e-05
-2.83685e-06
2.53596e-05
-3.72599e-06
2.5205e-05
-4.80245e-06
2.49296e-05
-5.4541e-06
2.48423e-05
-6.33795e-06
2.46662e-05
-7.38701e-06
2.41591e-05
-7.65315e-06
2.39417e-05
-8.20703e-06
2.35918e-05
-9.0524e-06
2.29501e-05
-8.96739e-06
2.27211e-05
-9.34535e-06
2.20819e-05
-1.00337e-05
2.08827e-05
-9.709e-06
1.99536e-05
-9.37058e-06
1.93838e-05
-1.04408e-05
1.79054e-05
-1.06545e-05
1.53767e-05
-8.66075e-06
1.31167e-05
-7.01611e-06
1.16958e-05
-7.46205e-06
1.08753e-05
-9.29803e-06
1.05443e-05
-1.20186e-05
1.10144e-05
-1.59247e-05
1.14946e-05
-1.96753e-05
1.14186e-05
-2.16483e-05
1.14408e-05
-2.19991e-05
1.16929e-05
-2.22078e-05
1.19285e-05
-2.20807e-05
1.24212e-05
-2.10961e-05
1.26888e-05
-1.91859e-05
1.2946e-05
-1.65392e-05
1.32813e-05
-1.39407e-05
1.37696e-05
-1.10298e-05
1.38485e-05
-7.51545e-06
1.40772e-05
-3.24448e-06
1.45585e-05
1.62146e-07
1.48101e-05
3.25073e-06
1.52915e-05
6.91815e-06
1.55404e-05
1.10597e-05
1.59339e-05
1.30692e-05
1.62966e-05
1.51133e-05
1.6519e-05
1.81781e-05
1.67607e-05
2.00737e-05
1.68337e-05
2.05379e-05
1.68903e-05
2.02636e-05
1.72017e-05
2.09562e-05
1.75174e-05
2.11682e-05
1.78096e-05
2.06976e-05
1.82222e-05
2.00492e-05
1.87332e-05
1.98437e-05
1.96326e-05
1.97615e-05
2.02928e-05