/*--------------------------------*- C++ -*----------------------------------*\
| =========                 |                                                 |
| \\      /  F ield         | OpenFOAM: The Open Source CFD Toolbox           |
|  \\    /   O peration     | Version:  2.4.0                                 |
|   \\  /    A nd           | Web:      www.OpenFOAM.org                      |
|    \\/     M anipulation  |                                                 |
\*---------------------------------------------------------------------------*/
FoamFile
{
    version     2.0;
    format      ascii;
    class       volVectorField;
    location    "0.08";
    object      UMean;
}
// * * * * * * * * * * * * * * * * * * * * * * * * * * * * * * * * * * * * * //

dimensions      [0 1 -1 0 0 0 0];

internalField   nonuniform List<vector> 
8800
(
(8.1016 0.378804 0)
(5.57543 0.239424 0)
(4.09537 0.0451036 0)
(3.36981 -0.0134254 0)
(3.02486 -0.0170359 0)
(2.84616 -0.010684 0)
(2.7409 -0.00517607 0)
(2.663 -0.00220742 0)
(2.60885 -0.00105919 0)
(2.56327 -0.000527796 0)
(2.5336 -0.000317653 0)
(2.50212 2.04958e-05 0)
(2.48262 -4.01789e-05 0)
(2.45645 0.00034285 0)
(2.44309 -0.00057239 0)
(2.41949 0.0013004 0)
(2.42406 -0.00349991 0)
(2.37736 0.00643473 0)
(2.51541 -0.0217991 0)
(2.21801 -0.0145661 0)
(10.03 0.814138 0)
(9.6801 0.835949 0)
(8.9428 0.486279 0)
(8.21379 0.248825 0)
(7.63695 0.129583 0)
(7.21019 0.0730272 0)
(6.91201 0.046236 0)
(6.67896 0.0320123 0)
(6.51716 0.0233316 0)
(6.37713 0.0173647 0)
(6.28812 0.0141359 0)
(6.19107 0.0120717 0)
(6.13995 0.0109393 0)
(6.06094 0.00905904 0)
(6.03199 0.0105611 0)
(5.96018 0.00258339 0)
(5.96291 0.0162787 0)
(5.87623 -0.021498 0)
(5.97984 0.0209584 0)
(5.84003 -0.163688 0)
(10.0042 0.614958 0)
(10.6468 0.828644 0)
(10.8421 0.57292 0)
(10.7108 0.351084 0)
(10.4507 0.238472 0)
(10.1418 0.176287 0)
(9.88029 0.134696 0)
(9.617 0.101628 0)
(9.4338 0.0766579 0)
(9.23632 0.0573908 0)
(9.12945 0.0456219 0)
(8.97285 0.0368673 0)
(8.92306 0.0314548 0)
(8.78111 0.0268732 0)
(8.77528 0.0240408 0)
(8.63267 0.0192071 0)
(8.67074 0.0164944 0)
(8.52291 0.00626859 0)
(8.60015 -0.0190872 0)
(8.46899 -0.118051 0)
(9.93543 0.445812 0)
(10.5705 0.67805 0)
(11.114 0.519422 0)
(11.3579 0.329838 0)
(11.4675 0.24498 0)
(11.4179 0.204693 0)
(11.3936 0.177955 0)
(11.265 0.147992 0)
(11.2235 0.122572 0)
(11.0757 0.0969825 0)
(11.0543 0.0830439 0)
(10.8996 0.0670158 0)
(10.9069 0.0610272 0)
(10.7446 0.0493506 0)
(10.7797 0.0473725 0)
(10.6121 0.0359321 0)
(10.6741 0.03043 0)
(10.5076 0.0177974 0)
(10.5843 -0.0281296 0)
(10.4019 -0.081854 0)
(9.96141 0.339785 0)
(10.4223 0.543995 0)
(10.9884 0.441931 0)
(11.2959 0.272482 0)
(11.5528 0.199138 0)
(11.6154 0.17148 0)
(11.7417 0.162554 0)
(11.7318 0.140961 0)
(11.8257 0.124508 0)
(11.7861 0.100243 0)
(11.8677 0.0907842 0)
(11.8085 0.0748301 0)
(11.8812 0.071199 0)
(11.8072 0.0598389 0)
(11.8719 0.0580545 0)
(11.7908 0.046453 0)
(11.8497 0.0388157 0)
(11.7684 0.0175946 0)
(11.8113 -0.0258013 0)
(11.6807 -0.127589 0)
(9.97161 0.248136 0)
(10.338 0.435634 0)
(10.8527 0.363768 0)
(11.1713 0.228052 0)
(11.4429 0.15569 0)
(11.5453 0.134963 0)
(11.6807 0.131699 0)
(11.7242 0.118393 0)
(11.8335 0.103665 0)
(11.8658 0.0860715 0)
(11.9635 0.0745461 0)
(11.9885 0.0658664 0)
(12.0735 0.0577902 0)
(12.0904 0.0554953 0)
(12.1629 0.0462411 0)
(12.1746 0.0446937 0)
(12.2355 0.0249783 0)
(12.2415 0.0102409 0)
(12.2749 -0.0512004 0)
(12.2015 -0.148998 0)
(9.96072 0.175661 0)
(10.2925 0.333601 0)
(10.7411 0.284169 0)
(11.0841 0.184053 0)
(11.3395 0.11923 0)
(11.4779 0.0994025 0)
(11.5869 0.102996 0)
(11.6588 0.0912692 0)
(11.7433 0.0826504 0)
(11.8089 0.0649156 0)
(11.8867 0.0589051 0)
(11.9476 0.0474337 0)
(12.0166 0.0453427 0)
(12.0705 0.0375591 0)
(12.1317 0.0354848 0)
(12.1801 0.0241801 0)
(12.2338 0.0122377 0)
(12.2713 -0.0193462 0)
(12.2958 -0.0700813 0)
(12.2328 -0.181561 0)
(9.95383 0.115918 0)
(10.2579 0.235797 0)
(10.6658 0.202416 0)
(11.0157 0.136465 0)
(11.2693 0.0834958 0)
(11.4239 0.0685921 0)
(11.5259 0.0724678 0)
(11.6026 0.065972 0)
(11.68 0.0587141 0)
(11.7512 0.0464986 0)
(11.8251 0.0402656 0)
(11.8914 0.0329512 0)
(11.9572 0.0293264 0)
(12.0158 0.0239695 0)
(12.0741 0.019247 0)
(12.1251 0.00841996 0)
(12.1754 -0.00766354 0)
(12.2122 -0.0411302 0)
(12.2273 -0.0920743 0)
(12.1523 -0.19859 0)
(9.95257 0.0670525 0)
(10.2333 0.138503 0)
(10.6199 0.122939 0)
(10.9684 0.0819563 0)
(11.2259 0.0508226 0)
(11.3873 0.0394208 0)
(11.4895 0.0441181 0)
(11.5651 0.0392159 0)
(11.6415 0.0359967 0)
(11.7126 0.0267094 0)
(11.7874 0.0236282 0)
(11.854 0.0175488 0)
(11.9201 0.0153009 0)
(11.9786 0.00912722 0)
(12.0365 0.00416412 0)
(12.0857 -0.00842462 0)
(12.1338 -0.0262519 0)
(12.1664 -0.0596749 0)
(12.1732 -0.111051 0)
(12.0874 -0.20172 0)
(9.95239 0.0227691 0)
(10.2216 0.0443062 0)
(10.5974 0.0424295 0)
(10.9452 0.0261048 0)
(11.2044 0.0178917 0)
(11.3695 0.0117676 0)
(11.4719 0.0153774 0)
(11.547 0.0117735 0)
(11.6227 0.0124158 0)
(11.694 0.00674375 0)
(11.7688 0.00670026 0)
(11.8361 0.00218322 0)
(11.9016 0.00103869 0)
(11.9602 -0.00593405 0)
(12.0169 -0.0110201 0)
(12.0651 -0.0258742 0)
(12.1107 -0.0439965 0)
(12.1398 -0.0779734 0)
(12.14 -0.125277 0)
(12.0467 -0.202011 0)
(9.9519 -0.0195527 0)
(10.2223 -0.0488293 0)
(10.5969 -0.0382878 0)
(10.9458 -0.0301182 0)
(11.2039 -0.0148066 0)
(11.37 -0.0155668 0)
(11.4719 -0.013262 0)
(11.5472 -0.0160086 0)
(11.6224 -0.0112123 0)
(11.6943 -0.0132243 0)
(11.7682 -0.0102936 0)
(11.8359 -0.0131945 0)
(11.9008 -0.0135273 0)
(11.9589 -0.0207065 0)
(12.0143 -0.0264297 0)
(12.0618 -0.0419011 0)
(12.1041 -0.061152 0)
(12.1306 -0.0939025 0)
(12.1265 -0.137841 0)
(12.0293 -0.199581 0)
(9.9516 -0.0638656 0)
(10.2351 -0.142909 0)
(10.6185 -0.118723 0)
(10.97 -0.0861328 0)
(11.2247 -0.0475546 0)
(11.3885 -0.0433352 0)
(11.4893 -0.0418695 0)
(11.5656 -0.0435681 0)
(11.6408 -0.0346579 0)
(11.713 -0.0332032 0)
(11.7857 -0.0270698 0)
(11.8533 -0.0287685 0)
(11.9176 -0.0277809 0)
(11.9747 -0.0355395 0)
(12.0287 -0.0414046 0)
(12.0754 -0.0577483 0)
(12.115 -0.0773855 0)
(12.1391 -0.109558 0)
(12.1329 -0.150411 0)
(12.0333 -0.196729 0)
(9.95415 -0.113441 0)
(10.259 -0.23942 0)
(10.6649 -0.19873 0)
(11.0169 -0.14027 0)
(11.269 -0.0806132 0)
(11.4248 -0.0724279 0)
(11.5261 -0.0703196 0)
(11.603 -0.0705206 0)
(11.6791 -0.0572374 0)
(11.7506 -0.0530293 0)
(11.8237 -0.0431685 0)
(11.8893 -0.0445719 0)
(11.9535 -0.0410959 0)
(12.0095 -0.050348 0)
(12.0625 -0.05481 0)
(12.1067 -0.07286 0)
(12.1453 -0.0915596 0)
(12.1669 -0.124969 0)
(12.1597 -0.162575 0)
(12.0599 -0.196371 0)
(9.96643 -0.173073 0)
(10.2889 -0.337182 0)
(10.7447 -0.280198 0)
(11.0815 -0.188333 0)
(11.3437 -0.115785 0)
(11.4751 -0.104123 0)
(11.5907 -0.0999685 0)
(11.6562 -0.096881 0)
(11.745 -0.0799021 0)
(11.8048 -0.0732455 0)
(11.8885 -0.0596945 0)
(11.9419 -0.0610038 0)
(12.0139 -0.0548257 0)
(12.0598 -0.0660947 0)
(12.1178 -0.0669604 0)
(12.1507 -0.0882967 0)
(12.1919 -0.103289 0)
(12.2029 -0.140899 0)
(12.1954 -0.173006 0)
(12.0905 -0.205722 0)
(9.98457 -0.246997 0)
(10.3274 -0.437259 0)
(10.8635 -0.36165 0)
(11.163 -0.230526 0)
(11.4536 -0.153936 0)
(11.5364 -0.13776 0)
(11.6902 -0.130796 0)
(11.7154 -0.121791 0)
(11.8406 -0.103111 0)
(11.8561 -0.0924512 0)
(11.97 -0.0773948 0)
(11.9758 -0.0768002 0)
(12.0734 -0.0693126 0)
(12.0689 -0.0806786 0)
(12.1457 -0.0776885 0)
(12.1261 -0.101392 0)
(12.1751 -0.11011 0)
(12.1304 -0.154244 0)
(12.117 -0.176483 0)
(11.9628 -0.220596 0)
(9.9763 -0.338582 0)
(10.4089 -0.545378 0)
(11.0033 -0.440362 0)
(11.2836 -0.274647 0)
(11.5662 -0.197238 0)
(11.6024 -0.17401 0)
(11.7543 -0.161795 0)
(11.7183 -0.144102 0)
(11.8363 -0.123915 0)
(11.7712 -0.106757 0)
(11.8747 -0.0923614 0)
(11.7881 -0.0860264 0)
(11.8781 -0.0796813 0)
(11.7712 -0.0853777 0)
(11.842 -0.0824315 0)
(11.7137 -0.101405 0)
(11.7526 -0.10707 0)
(11.5926 -0.150713 0)
(11.557 -0.165102 0)
(11.298 -0.219621 0)
(9.946 -0.445458 0)
(10.56 -0.678535 0)
(11.1274 -0.519163 0)
(11.3453 -0.330554 0)
(11.4804 -0.244108 0)
(11.4047 -0.205866 0)
(11.4062 -0.178351 0)
(11.2497 -0.149551 0)
(11.2343 -0.123317 0)
(11.0569 -0.101226 0)
(11.0581 -0.0856225 0)
(10.8735 -0.075078 0)
(10.8943 -0.069412 0)
(10.6964 -0.0692709 0)
(10.7278 -0.0687953 0)
(10.5081 -0.079618 0)
(10.5291 -0.0875816 0)
(10.269 -0.12099 0)
(10.2243 -0.136278 0)
(9.87084 -0.185124 0)
(10.0088 -0.614452 0)
(10.6416 -0.829269 0)
(10.8507 -0.572782 0)
(10.7016 -0.351506 0)
(10.4605 -0.237983 0)
(10.1308 -0.177045 0)
(9.89081 -0.13514 0)
(9.60139 -0.102644 0)
(9.44445 -0.0774957 0)
(9.21276 -0.0600084 0)
(9.13459 -0.0482174 0)
(8.93654 -0.0418588 0)
(8.91189 -0.0388425 0)
(8.71376 -0.0396337 0)
(8.71993 -0.0415622 0)
(8.49451 -0.0482305 0)
(8.5083 -0.0585774 0)
(8.21893 -0.0779809 0)
(8.19026 -0.0989405 0)
(7.78067 -0.123166 0)
(10.0315 -0.813919 0)
(9.67868 -0.836317 0)
(8.94673 -0.486218 0)
(8.20869 -0.249019 0)
(7.64221 -0.129293 0)
(7.20341 -0.073456 0)
(6.91762 -0.0464591 0)
(6.66777 -0.0326509 0)
(6.52264 -0.0236691 0)
(6.3578 -0.0188488 0)
(6.28882 -0.0155184 0)
(6.15702 -0.015067 0)
(6.12707 -0.0146174 0)
(5.99188 -0.017041 0)
(5.97989 -0.0181315 0)
(5.81506 -0.0232312 0)
(5.80696 -0.0289813 0)
(5.56829 -0.0386364 0)
(5.5444 -0.0564588 0)
(5.13516 -0.0583076 0)
(8.10189 -0.37873 0)
(5.57561 -0.239534 0)
(4.09601 -0.0450306 0)
(3.36819 0.0133839 0)
(3.02608 0.0170928 0)
(2.84378 0.010579 0)
(2.74204 0.00517233 0)
(2.6582 0.00207288 0)
(2.60886 0.00112234 0)
(2.55433 0.000231288 0)
(2.52941 0.000163515 0)
(2.48425 -0.000508411 0)
(2.46814 -0.00040048 0)
(2.41698 -0.00137426 0)
(2.40031 -0.00105888 0)
(2.33269 -0.00271732 0)
(2.30724 -0.00248796 0)
(2.20077 -0.00528182 0)
(2.1507 -0.00959485 0)
(1.91494 0.0176803 0)
(2.95312 -0.422852 0)
(3.15262 -0.350789 0)
(3.4298 -0.306549 0)
(3.73375 -0.287704 0)
(4.05677 -0.283442 0)
(4.3686 -0.278465 0)
(4.68938 -0.297219 0)
(5.00655 -0.338406 0)
(5.31412 -0.407391 0)
(5.60318 -0.493964 0)
(5.86685 -0.591603 0)
(6.10238 -0.697139 0)
(6.31243 -0.80433 0)
(6.4977 -0.908671 0)
(6.66007 -1.00789 0)
(6.81138 -1.10013 0)
(6.95837 -1.18991 0)
(7.11154 -1.28036 0)
(7.271 -1.36529 0)
(7.4336 -1.44708 0)
(7.59441 -1.52492 0)
(7.75013 -1.59593 0)
(7.89246 -1.65983 0)
(8.02119 -1.71748 0)
(8.1355 -1.76785 0)
(8.2322 -1.81138 0)
(8.32061 -1.85064 0)
(8.39992 -1.88618 0)
(8.47566 -1.91912 0)
(8.55122 -1.95224 0)
(8.63132 -1.98608 0)
(8.70967 -2.01577 0)
(8.79607 -2.04745 0)
(8.87993 -2.07524 0)
(8.96173 -2.10112 0)
(9.04237 -2.12328 0)
(9.10557 -2.14032 0)
(9.17096 -2.15324 0)
(9.20469 -2.16183 0)
(9.23892 -2.16631 0)
(9.23371 -2.16601 0)
(9.23209 -2.16378 0)
(9.18828 -2.15326 0)
(9.15848 -2.1448 0)
(9.08759 -2.12803 0)
(9.04248 -2.11453 0)
(8.96804 -2.10027 0)
(8.924 -2.0893 0)
(8.85942 -2.08233 0)
(8.8282 -2.08028 0)
(8.76938 -2.07772 0)
(8.74271 -2.0784 0)
(8.67766 -2.06941 0)
(8.63618 -2.05696 0)
(8.55257 -2.0269 0)
(8.48023 -1.99071 0)
(8.37753 -1.93289 0)
(8.26149 -1.86936 0)
(8.15317 -1.79014 0)
(8.00029 -1.70829 0)
(7.90102 -1.62493 0)
(7.74056 -1.53496 0)
(7.6395 -1.4553 0)
(7.51507 -1.36017 0)
(7.3857 -1.27238 0)
(7.31185 -1.17695 0)
(7.16796 -1.07239 0)
(7.10694 -0.980733 0)
(7.00185 -0.87715 0)
(6.90769 -0.780099 0)
(6.84383 -0.681173 0)
(6.73977 -0.576159 0)
(6.68135 -0.47905 0)
(6.60889 -0.366877 0)
(6.54854 -0.280424 0)
(6.53198 -0.189127 0)
(6.47879 -0.111045 0)
(6.48048 -0.0150375 0)
(6.44127 0.0773623 0)
(6.43739 0.179363 0)
(6.41457 0.283747 0)
(6.39595 0.391413 0)
(6.39245 0.496579 0)
(6.34788 0.59851 0)
(6.35383 0.700479 0)
(6.29508 0.789336 0)
(6.30043 0.871849 0)
(6.24948 0.942305 0)
(6.23601 0.99754 0)
(6.20913 1.04863 0)
(6.16791 1.07404 0)
(6.16287 1.10021 0)
(6.1039 1.10094 0)
(6.11467 1.09909 0)
(6.03553 1.0701 0)
(6.07321 1.05088 0)
(5.98008 1.00166 0)
(6.03607 0.967838 0)
(5.93155 0.905559 0)
(6.01364 0.870556 0)
(5.89489 0.803851 0)
(5.998 0.759679 0)
(5.85173 0.687045 0)
(5.9831 0.638649 0)
(5.79051 0.556653 0)
(5.95045 0.498694 0)
(5.71235 0.410269 0)
(5.90414 0.355346 0)
(5.6384 0.273101 0)
(5.85364 0.226202 0)
(5.57495 0.154977 0)
(5.80373 0.115776 0)
(5.51256 0.0554511 0)
(5.75438 0.0246887 0)
(5.44485 -0.0249626 0)
(5.70597 -0.0426127 0)
(5.37282 -0.0787579 0)
(5.66132 -0.083281 0)
(5.30043 -0.104269 0)
(5.61819 -0.0905219 0)
(5.2289 -0.0967102 0)
(5.58014 -0.0699076 0)
(5.16646 -0.0684914 0)
(5.5533 -0.0355801 0)
(5.11592 -0.0318743 0)
(5.53778 0.000832751 0)
(5.07989 -0.000515374 0)
(5.534 0.028148 0)
(5.05498 0.0220329 0)
(5.54112 0.0451751 0)
(5.04124 0.033883 0)
(5.55282 0.054527 0)
(5.03099 0.0392714 0)
(5.56785 0.0569326 0)
(5.02134 0.0414573 0)
(5.58061 0.0585621 0)
(5.01167 0.0430977 0)
(5.59239 0.0612663 0)
(4.99896 0.0474556 0)
(5.60233 0.0654059 0)
(4.98593 0.0533343 0)
(5.60975 0.0712903 0)
(4.97157 0.0610487 0)
(5.61661 0.0776072 0)
(4.95781 0.070217 0)
(5.62202 0.0853517 0)
(4.9461 0.0815251 0)
(5.62787 0.0938389 0)
(4.93644 0.0959369 0)
(5.63289 0.104533 0)
(4.93081 0.113196 0)
(5.63686 0.116652 0)
(4.92807 0.135307 0)
(5.6388 0.130802 0)
(4.9304 0.16107 0)
(5.63723 0.147055 0)
(4.9371 0.192988 0)
(5.6314 0.165218 0)
(4.95048 0.230047 0)
(5.61921 0.186175 0)
(4.97068 0.274597 0)
(5.59954 0.20977 0)
(5.00011 0.32625 0)
(5.57037 0.237138 0)
(5.03957 0.386914 0)
(5.53007 0.269151 0)
(5.09121 0.456688 0)
(5.47771 0.307468 0)
(5.15571 0.536642 0)
(5.41304 0.354991 0)
(5.23349 0.626791 0)
(5.33887 0.415545 0)
(5.32315 0.726543 0)
(5.26125 0.495149 0)
(5.42046 0.83457 0)
(5.19082 0.602463 0)
(5.51706 0.948344 0)
(5.14388 0.747347 0)
(5.59968 1.06511 0)
(5.13985 0.941129 0)
(5.6497 1.18428 0)
(5.19767 1.19315 0)
(5.64719 1.31034 0)
(5.32715 1.50582 0)
(5.57727 1.46159 0)
(5.51028 1.87106 0)
(5.44072 1.68088 0)
(5.69209 2.25357 0)
(5.27773 2.0471 0)
(5.76736 2.59839 0)
(5.20307 2.65893 0)
(5.62703 2.88069 0)
(5.3286 3.53392 0)
(5.38981 3.29612 0)
(5.45412 4.41323 0)
(5.53119 4.59704 0)
(5.21839 5.14763 0)
(5.60614 6.67947 0)
(6.05724 7.72529 0)
(3.89406 10.8346 0)
(6.09815 -0.427793 0)
(6.11564 -0.44244 0)
(6.14625 -0.435097 0)
(6.24151 -0.430974 0)
(6.39419 -0.430377 0)
(6.56789 -0.431707 0)
(6.74944 -0.448426 0)
(6.92361 -0.488532 0)
(7.08037 -0.550418 0)
(7.2182 -0.627622 0)
(7.34209 -0.718585 0)
(7.45821 -0.818672 0)
(7.57407 -0.92081 0)
(7.69523 -1.02206 0)
(7.82187 -1.12087 0)
(7.95762 -1.21738 0)
(8.10136 -1.30964 0)
(8.2485 -1.39853 0)
(8.39364 -1.48293 0)
(8.52995 -1.56009 0)
(8.65198 -1.63052 0)
(8.76144 -1.69536 0)
(8.85238 -1.75095 0)
(8.9301 -1.79917 0)
(8.99907 -1.84263 0)
(9.06105 -1.8807 0)
(9.11949 -1.91485 0)
(9.18201 -1.94928 0)
(9.24434 -1.98018 0)
(9.30995 -2.012 0)
(9.37759 -2.04206 0)
(9.43813 -2.06941 0)
(9.50068 -2.09587 0)
(9.54434 -2.11734 0)
(9.58658 -2.13499 0)
(9.60218 -2.14622 0)
(9.6133 -2.15376 0)
(9.59454 -2.15326 0)
(9.57016 -2.15184 0)
(9.51988 -2.14004 0)
(9.47004 -2.13156 0)
(9.4017 -2.11363 0)
(9.33665 -2.09962 0)
(9.26825 -2.08167 0)
(9.20497 -2.06853 0)
(9.14929 -2.05564 0)
(9.10187 -2.05141 0)
(9.05666 -2.04551 0)
(9.01836 -2.0487 0)
(8.9729 -2.04575 0)
(8.92286 -2.04462 0)
(8.86171 -2.03173 0)
(8.78384 -2.01383 0)
(8.69877 -1.97985 0)
(8.58024 -1.93704 0)
(8.47381 -1.88037 0)
(8.31687 -1.81515 0)
(8.19921 -1.74538 0)
(8.02523 -1.66854 0)
(7.90903 -1.60159 0)
(7.75072 -1.52002 0)
(7.62219 -1.44939 0)
(7.5037 -1.36047 0)
(7.34992 -1.27197 0)
(7.26703 -1.18255 0)
(7.11233 -1.07971 0)
(7.02604 -0.989828 0)
(6.91064 -0.891215 0)
(6.79583 -0.796368 0)
(6.70792 -0.699448 0)
(6.59235 -0.596946 0)
(6.50975 -0.508927 0)
(6.42675 -0.404564 0)
(6.35065 -0.32061 0)
(6.3002 -0.240372 0)
(6.26837 -0.164692 0)
(6.21509 -0.0888953 0)
(6.21451 0.00198482 0)
(6.16175 0.0910481 0)
(6.16917 0.192497 0)
(6.13476 0.297719 0)
(6.13836 0.404351 0)
(6.11125 0.51541 0)
(6.10252 0.619139 0)
(6.08133 0.7246 0)
(6.07196 0.811443 0)
(6.0414 0.893613 0)
(6.04573 0.964883 0)
(6.00416 1.0168 0)
(6.0102 1.06853 0)
(5.97434 1.0938 0)
(5.97048 1.11544 0)
(5.94609 1.11791 0)
(5.92954 1.11781 0)
(5.91372 1.08903 0)
(5.88236 1.07138 0)
(5.8858 1.02189 0)
(5.84219 0.983784 0)
(5.86772 0.919189 0)
(5.81137 0.88051 0)
(5.86708 0.813081 0)
(5.78907 0.771151 0)
(5.87179 0.697836 0)
(5.76236 0.657845 0)
(5.87587 0.579329 0)
(5.71331 0.530857 0)
(5.86358 0.441649 0)
(5.63911 0.389177 0)
(5.84153 0.305746 0)
(5.56195 0.259292 0)
(5.81227 0.184753 0)
(5.49204 0.148041 0)
(5.77759 0.0840273 0)
(5.42544 0.0565379 0)
(5.73814 0.00436503 0)
(5.3561 -0.0124904 0)
(5.69731 -0.0493135 0)
(5.28592 -0.0563724 0)
(5.65653 -0.0736434 0)
(5.21419 -0.0684165 0)
(5.61868 -0.0665126 0)
(5.14912 -0.0554186 0)
(5.59055 -0.0406026 0)
(5.09479 -0.0297871 0)
(5.57348 -0.00681366 0)
(5.0544 -0.00226939 0)
(5.56932 0.022045 0)
(5.02518 0.0170058 0)
(5.57614 0.0428919 0)
(5.00578 0.0270459 0)
(5.59198 0.0553728 0)
(4.99099 0.0321036 0)
(5.61234 0.0617193 0)
(4.9781 0.031237 0)
(5.63295 0.0674386 0)
(4.96285 0.0300286 0)
(5.6536 0.0718039 0)
(4.94592 0.0308941 0)
(5.67263 0.0797069 0)
(4.92735 0.0320344 0)
(5.69198 0.0888061 0)
(4.90626 0.0361347 0)
(5.71087 0.0984568 0)
(4.88445 0.0396483 0)
(5.7299 0.109863 0)
(4.86078 0.0450116 0)
(5.75044 0.121045 0)
(4.83733 0.0516949 0)
(5.77165 0.135515 0)
(4.81434 0.0608128 0)
(5.7958 0.15074 0)
(4.79256 0.0737338 0)
(5.82129 0.169904 0)
(4.77369 0.089382 0)
(5.84958 0.190505 0)
(4.75749 0.110906 0)
(5.87839 0.214791 0)
(4.74662 0.136082 0)
(5.90814 0.241119 0)
(4.74103 0.169309 0)
(5.93576 0.2708 0)
(4.74441 0.208344 0)
(5.96084 0.302821 0)
(4.75802 0.257944 0)
(5.97871 0.338309 0)
(4.78608 0.316954 0)
(5.98767 0.376349 0)
(4.83166 0.389536 0)
(5.98106 0.418588 0)
(4.89858 0.476252 0)
(5.95482 0.464771 0)
(4.99109 0.579817 0)
(5.90222 0.517575 0)
(5.11134 0.701437 0)
(5.81854 0.58051 0)
(5.2601 0.84189 0)
(5.70426 0.660373 0)
(5.43402 0.999178 0)
(5.56728 0.769326 0)
(5.62073 1.17055 0)
(5.43073 0.926263 0)
(5.79784 1.34776 0)
(5.3397 1.15318 0)
(5.92706 1.52262 0)
(5.35534 1.47724 0)
(5.96018 1.69391 0)
(5.52945 1.91316 0)
(5.86511 1.88463 0)
(5.84683 2.4378 0)
(5.68256 2.20127 0)
(6.15121 2.96949 0)
(5.6083 2.8601 0)
(6.11436 3.395 0)
(5.90233 4.0115 0)
(5.65056 3.84515 0)
(6.18739 5.25561 0)
(5.95159 5.33819 0)
(5.35326 6.52034 0)
(8.60593 6.91583 0)
(6.36988 11.9872 0)
(8.54007 -0.366601 0)
(8.57226 -0.461431 0)
(8.63846 -0.508377 0)
(8.72794 -0.515422 0)
(8.82477 -0.506337 0)
(8.91551 -0.507224 0)
(8.99313 -0.529558 0)
(9.05323 -0.570701 0)
(9.1006 -0.628866 0)
(9.14478 -0.701904 0)
(9.19606 -0.788185 0)
(9.25786 -0.883674 0)
(9.32888 -0.984008 0)
(9.40705 -1.08679 0)
(9.48958 -1.18885 0)
(9.57486 -1.28835 0)
(9.65877 -1.38361 0)
(9.73323 -1.47179 0)
(9.79727 -1.55274 0)
(9.84959 -1.62551 0)
(9.89014 -1.68929 0)
(9.92313 -1.74554 0)
(9.94935 -1.79394 0)
(9.97237 -1.83456 0)
(9.99555 -1.87266 0)
(10.0206 -1.90649 0)
(10.0448 -1.9374 0)
(10.0746 -1.96859 0)
(10.0965 -1.99669 0)
(10.1193 -2.02418 0)
(10.1278 -2.04832 0)
(10.1327 -2.07155 0)
(10.1188 -2.08935 0)
(10.0952 -2.10411 0)
(10.0528 -2.11103 0)
(9.99906 -2.11611 0)
(9.93123 -2.11147 0)
(9.85283 -2.10609 0)
(9.77423 -2.09314 0)
(9.68357 -2.08056 0)
(9.61058 -2.06579 0)
(9.5213 -2.05113 0)
(9.46327 -2.03772 0)
(9.38797 -2.02753 0)
(9.34532 -2.02041 0)
(9.28167 -2.01796 0)
(9.24604 -2.0177 0)
(9.17782 -2.01704 0)
(9.13181 -2.01521 0)
(9.04477 -2.00639 0)
(8.97641 -1.99181 0)
(8.85919 -1.96453 0)
(8.76432 -1.93036 0)
(8.61284 -1.88046 0)
(8.48986 -1.82632 0)
(8.31604 -1.7594 0)
(8.18041 -1.69981 0)
(8.01126 -1.62899 0)
(7.8738 -1.57097 0)
(7.73253 -1.49684 0)
(7.57911 -1.42469 0)
(7.46733 -1.34165 0)
(7.29512 -1.24928 0)
(7.1955 -1.16453 0)
(7.03433 -1.06608 0)
(6.91829 -0.979366 0)
(6.79011 -0.884472 0)
(6.65235 -0.794292 0)
(6.548 -0.702756 0)
(6.41158 -0.604014 0)
(6.32344 -0.523975 0)
(6.2183 -0.431084 0)
(6.14598 -0.349785 0)
(6.06404 -0.274241 0)
(6.03677 -0.203799 0)
(5.97185 -0.135651 0)
(5.9523 -0.0607641 0)
(5.91135 0.027862 0)
(5.88761 0.109922 0)
(5.86941 0.210261 0)
(5.85608 0.310019 0)
(5.83294 0.422035 0)
(5.82449 0.527729 0)
(5.81121 0.634337 0)
(5.79773 0.730588 0)
(5.80061 0.825089 0)
(5.78055 0.898486 0)
(5.78417 0.976365 0)
(5.7828 1.02766 0)
(5.75435 1.08068 0)
(5.78155 1.10401 0)
(5.74225 1.13777 0)
(5.77351 1.11948 0)
(5.73114 1.13815 0)
(5.76578 1.08591 0)
(5.72445 1.08911 0)
(5.74422 1.01358 0)
(5.70928 1.00408 0)
(5.73066 0.905793 0)
(5.70122 0.894257 0)
(5.71963 0.789922 0)
(5.70211 0.780935 0)
(5.72141 0.670261 0)
(5.70377 0.666975 0)
(5.72295 0.552754 0)
(5.69767 0.551877 0)
(5.70232 0.425797 0)
(5.67725 0.421884 0)
(5.65491 0.291673 0)
(5.65149 0.298894 0)
(5.59567 0.170086 0)
(5.62059 0.191784 0)
(5.53565 0.0682036 0)
(5.5825 0.103887 0)
(5.47695 -0.0117567 0)
(5.53655 0.0390597 0)
(5.41813 -0.0670366 0)
(5.48647 -0.000705791 0)
(5.35794 -0.0918937 0)
(5.43446 -0.00917322 0)
(5.29996 -0.0892877 0)
(5.38944 0.00377482 0)
(5.25015 -0.0696997 0)
(5.35464 0.0275076 0)
(5.21071 -0.0437633 0)
(5.33347 0.0526266 0)
(5.18197 -0.0213819 0)
(5.32607 0.0708666 0)
(5.16088 -0.00609532 0)
(5.32811 0.0811164 0)
(5.14473 0.00190062 0)
(5.3358 0.0874621 0)
(5.12992 0.00532303 0)
(5.34692 0.0897752 0)
(5.11515 0.00836674 0)
(5.35861 0.0921431 0)
(5.09979 0.0102615 0)
(5.37242 0.096633 0)
(5.08235 0.0145214 0)
(5.38761 0.101836 0)
(5.06306 0.0204206 0)
(5.40411 0.109949 0)
(5.03997 0.026118 0)
(5.42215 0.118834 0)
(5.01331 0.0334105 0)
(5.44204 0.129014 0)
(4.98298 0.0402934 0)
(5.46499 0.141603 0)
(4.94946 0.0490347 0)
(5.49247 0.15581 0)
(4.91265 0.058853 0)
(5.52511 0.174032 0)
(4.87265 0.0708998 0)
(5.56388 0.194574 0)
(4.82841 0.0854815 0)
(5.60882 0.220412 0)
(4.78016 0.102738 0)
(5.66073 0.249269 0)
(4.72753 0.12414 0)
(5.71922 0.284345 0)
(4.67215 0.149494 0)
(5.78501 0.322982 0)
(4.61598 0.181132 0)
(5.85632 0.368357 0)
(4.56294 0.219904 0)
(5.93288 0.417726 0)
(4.51892 0.268602 0)
(6.0103 0.473757 0)
(4.49058 0.330358 0)
(6.08527 0.53398 0)
(4.48846 0.408181 0)
(6.14959 0.599534 0)
(4.52247 0.507379 0)
(6.19286 0.669643 0)
(4.60562 0.632269 0)
(6.20175 0.743886 0)
(4.7493 0.787613 0)
(6.15833 0.824616 0)
(4.95926 0.978398 0)
(6.04661 0.917422 0)
(5.23482 1.20362 0)
(5.86005 1.03492 0)
(5.55512 1.45866 0)
(5.61552 1.20492 0)
(5.86994 1.72689 0)
(5.38464 1.46725 0)
(6.08591 1.97616 0)
(5.3231 1.88024 0)
(6.08017 2.17572 0)
(5.63957 2.48833 0)
(5.79869 2.37736 0)
(6.32616 3.2301 0)
(5.53931 2.87757 0)
(6.79296 3.86906 0)
(6.19444 3.97878 0)
(6.25498 4.62719 0)
(8.29257 4.89925 0)
(5.68971 7.33682 0)
(10.0086 3.93833 0)
(8.44647 10.8171 0)
(10.3733 -0.367148 0)
(10.4149 -0.524 0)
(10.5099 -0.607197 0)
(10.5941 -0.621627 0)
(10.6542 -0.606818 0)
(10.692 -0.592969 0)
(10.7145 -0.595974 0)
(10.7299 -0.619727 0)
(10.7488 -0.665121 0)
(10.7753 -0.730773 0)
(10.8107 -0.813977 0)
(10.8495 -0.909672 0)
(10.8861 -1.01184 0)
(10.9182 -1.11677 0)
(10.9428 -1.21947 0)
(10.9574 -1.31751 0)
(10.9614 -1.40908 0)
(10.9528 -1.49135 0)
(10.9368 -1.56446 0)
(10.9156 -1.6293 0)
(10.8925 -1.68545 0)
(10.8683 -1.73427 0)
(10.8461 -1.77828 0)
(10.8234 -1.81703 0)
(10.804 -1.85409 0)
(10.7807 -1.88715 0)
(10.7568 -1.91859 0)
(10.7253 -1.94678 0)
(10.6883 -1.97324 0)
(10.6403 -1.99557 0)
(10.5832 -2.01599 0)
(10.5157 -2.02997 0)
(10.4365 -2.0412 0)
(10.3519 -2.04492 0)
(10.2534 -2.0462 0)
(10.16 -2.0412 0)
(10.0521 -2.03261 0)
(9.96422 -2.02328 0)
(9.85962 -2.01115 0)
(9.78445 -2.00129 0)
(9.69228 -1.98967 0)
(9.6323 -1.98237 0)
(9.55143 -1.97468 0)
(9.50124 -1.97399 0)
(9.42144 -1.97084 0)
(9.36809 -1.97347 0)
(9.27876 -1.96915 0)
(9.21025 -1.96585 0)
(9.10153 -1.95024 0)
(9.01212 -1.93251 0)
(8.8788 -1.89853 0)
(8.75873 -1.85961 0)
(8.60037 -1.80483 0)
(8.45225 -1.74987 0)
(8.28436 -1.68502 0)
(8.12975 -1.63002 0)
(7.98081 -1.56941 0)
(7.82535 -1.51214 0)
(7.6982 -1.44553 0)
(7.52515 -1.36824 0)
(7.40645 -1.29194 0)
(7.2268 -1.20194 0)
(7.09999 -1.12313 0)
(6.93757 -1.03136 0)
(6.79161 -0.94796 0)
(6.65273 -0.856858 0)
(6.49265 -0.768588 0)
(6.37471 -0.685394 0)
(6.22262 -0.591888 0)
(6.11892 -0.519172 0)
(6.00299 -0.436199 0)
(5.90853 -0.364636 0)
(5.82372 -0.289132 0)
(5.759 -0.227477 0)
(5.71331 -0.164371 0)
(5.65987 -0.103513 0)
(5.63946 -0.0232293 0)
(5.59549 0.0502732 0)
(5.59188 0.134133 0)
(5.56863 0.227345 0)
(5.55874 0.334278 0)
(5.54478 0.440382 0)
(5.53052 0.539525 0)
(5.54028 0.647008 0)
(5.50847 0.729795 0)
(5.54256 0.835051 0)
(5.51039 0.896602 0)
(5.53505 0.978386 0)
(5.52738 1.02252 0)
(5.54416 1.08794 0)
(5.52351 1.08446 0)
(5.5715 1.1486 0)
(5.53242 1.11381 0)
(5.57982 1.15096 0)
(5.54649 1.08262 0)
(5.59611 1.10848 0)
(5.56672 1.00765 0)
(5.59458 1.0203 0)
(5.58244 0.89857 0)
(5.61225 0.916957 0)
(5.59258 0.773784 0)
(5.62474 0.803723 0)
(5.60865 0.650127 0)
(5.6491 0.692809 0)
(5.62428 0.531709 0)
(5.67136 0.583005 0)
(5.62271 0.406967 0)
(5.67469 0.465604 0)
(5.60156 0.274793 0)
(5.65866 0.348805 0)
(5.57185 0.153574 0)
(5.62945 0.245983 0)
(5.5376 0.0511063 0)
(5.59416 0.161089 0)
(5.49794 -0.028998 0)
(5.55613 0.0986412 0)
(5.45257 -0.0840069 0)
(5.51591 0.0610303 0)
(5.40208 -0.110018 0)
(5.476 0.0516533 0)
(5.35452 -0.11126 0)
(5.44479 0.0610496 0)
(5.31568 -0.0954223 0)
(5.4233 0.0807182 0)
(5.29013 -0.0737319 0)
(5.41567 0.10004 0)
(5.27986 -0.0569731 0)
(5.42074 0.113165 0)
(5.27901 -0.0437702 0)
(5.43342 0.11912 0)
(5.28336 -0.0358526 0)
(5.44834 0.123171 0)
(5.29151 -0.0313447 0)
(5.46616 0.122063 0)
(5.30054 -0.0256041 0)
(5.48475 0.121104 0)
(5.31196 -0.021336 0)
(5.50233 0.122336 0)
(5.32293 -0.0126745 0)
(5.51958 0.123225 0)
(5.33425 -0.00235052 0)
(5.53331 0.127653 0)
(5.34575 0.00915146 0)
(5.54559 0.130651 0)
(5.35741 0.0225271 0)
(5.55399 0.134851 0)
(5.37044 0.035901 0)
(5.55979 0.13894 0)
(5.3849 0.0521748 0)
(5.56129 0.144665 0)
(5.40217 0.0700677 0)
(5.55841 0.152522 0)
(5.42268 0.0922908 0)
(5.54885 0.162637 0)
(5.44737 0.117686 0)
(5.53192 0.176303 0)
(5.47787 0.147928 0)
(5.50459 0.192108 0)
(5.51524 0.182924 0)
(5.46591 0.212367 0)
(5.56244 0.223261 0)
(5.41254 0.234733 0)
(5.62054 0.270485 0)
(5.34304 0.262221 0)
(5.69362 0.324261 0)
(5.25511 0.292272 0)
(5.78199 0.387218 0)
(5.14763 0.329284 0)
(5.8895 0.459025 0)
(5.02316 0.371715 0)
(6.01471 0.541588 0)
(4.88703 0.425683 0)
(6.15687 0.635368 0)
(4.75414 0.494298 0)
(6.309 0.739792 0)
(4.64876 0.586479 0)
(6.45814 0.855375 0)
(4.60596 0.714231 0)
(6.58251 0.978965 0)
(4.67366 0.890966 0)
(6.64902 1.11048 0)
(4.89575 1.1351 0)
(6.61043 1.25291 0)
(5.2979 1.45911 0)
(6.41931 1.41714 0)
(5.85782 1.85983 0)
(6.06089 1.63341 0)
(6.4581 2.30662 0)
(5.64112 1.96593 0)
(6.83535 2.73298 0)
(5.55582 2.47629 0)
(6.64377 3.14517 0)
(6.38269 3.1014 0)
(5.76151 3.92037 0)
(8.21643 3.31656 0)
(5.17069 5.80759 0)
(9.88995 2.57645 0)
(6.63735 8.23032 0)
(10.215 2.70106 0)
(8.91172 9.34003 0)
(11.5914 -0.347552 0)
(11.6251 -0.467028 0)
(11.7368 -0.533524 0)
(11.8252 -0.556375 0)
(11.8747 -0.55827 0)
(11.8921 -0.556818 0)
(11.8918 -0.567374 0)
(11.8864 -0.59896 0)
(11.8837 -0.653803 0)
(11.8825 -0.727873 0)
(11.8814 -0.817485 0)
(11.8747 -0.915373 0)
(11.8591 -1.01548 0)
(11.8351 -1.11513 0)
(11.8012 -1.21066 0)
(11.7587 -1.30082 0)
(11.7089 -1.38379 0)
(11.6541 -1.45923 0)
(11.596 -1.52707 0)
(11.5371 -1.58889 0)
(11.4766 -1.64507 0)
(11.4152 -1.69595 0)
(11.3513 -1.7424 0)
(11.2858 -1.78493 0)
(11.2155 -1.82168 0)
(11.1414 -1.85541 0)
(11.0627 -1.88376 0)
(10.9769 -1.90843 0)
(10.8888 -1.92814 0)
(10.7924 -1.94497 0)
(10.6968 -1.9564 0)
(10.5905 -1.96413 0)
(10.4904 -1.9683 0)
(10.3788 -1.96833 0)
(10.2807 -1.967 0)
(10.1725 -1.96155 0)
(10.0826 -1.95798 0)
(9.98372 -1.95167 0)
(9.90436 -1.94781 0)
(9.81584 -1.9412 0)
(9.74341 -1.93966 0)
(9.65986 -1.9352 0)
(9.58696 -1.93612 0)
(9.50184 -1.93296 0)
(9.42128 -1.93205 0)
(9.32645 -1.9239 0)
(9.23277 -1.91435 0)
(9.12226 -1.89426 0)
(9.00429 -1.86812 0)
(8.87054 -1.82991 0)
(8.7192 -1.78296 0)
(8.55856 -1.72532 0)
(8.38521 -1.66771 0)
(8.22587 -1.61158 0)
(8.05605 -1.55998 0)
(7.91652 -1.51021 0)
(7.74438 -1.45135 0)
(7.60952 -1.38962 0)
(7.42339 -1.31121 0)
(7.27887 -1.23921 0)
(7.10023 -1.15596 0)
(6.94593 -1.08015 0)
(6.78501 -0.993892 0)
(6.61951 -0.909766 0)
(6.47695 -0.823009 0)
(6.30697 -0.73307 0)
(6.18022 -0.654722 0)
(6.02488 -0.564854 0)
(5.90344 -0.493155 0)
(5.7776 -0.41481 0)
(5.66313 -0.350575 0)
(5.56382 -0.280218 0)
(5.4787 -0.221706 0)
(5.41005 -0.173299 0)
(5.36206 -0.120977 0)
(5.30716 -0.0634717 0)
(5.27893 0.00300783 0)
(5.24614 0.0659749 0)
(5.24852 0.145026 0)
(5.22293 0.235576 0)
(5.2362 0.341383 0)
(5.22423 0.44376 0)
(5.23408 0.540056 0)
(5.23852 0.647864 0)
(5.2514 0.731523 0)
(5.25291 0.828875 0)
(5.27759 0.896481 0)
(5.27368 0.982485 0)
(5.288 1.00676 0)
(5.32213 1.09873 0)
(5.31756 1.0638 0)
(5.3348 1.14104 0)
(5.39403 1.08049 0)
(5.34755 1.1522 0)
(5.45273 1.04215 0)
(5.37252 1.11661 0)
(5.50448 0.971687 0)
(5.3971 1.03825 0)
(5.52849 0.849987 0)
(5.43115 0.942727 0)
(5.56432 0.725811 0)
(5.45205 0.828509 0)
(5.59135 0.591108 0)
(5.47557 0.721746 0)
(5.62581 0.470099 0)
(5.50152 0.626666 0)
(5.65367 0.350377 0)
(5.50795 0.524187 0)
(5.66339 0.22363 0)
(5.49053 0.419583 0)
(5.65889 0.10357 0)
(5.46051 0.32608 0)
(5.64198 0.000529653 0)
(5.423 0.249409 0)
(5.6166 -0.082156 0)
(5.37806 0.193707 0)
(5.58716 -0.140013 0)
(5.32674 0.162114 0)
(5.55515 -0.169826 0)
(5.27579 0.155286 0)
(5.52827 -0.178261 0)
(5.23232 0.164828 0)
(5.512 -0.171355 0)
(5.19992 0.182353 0)
(5.51025 -0.15981 0)
(5.18179 0.19831 0)
(5.52059 -0.150111 0)
(5.17405 0.211367 0)
(5.53885 -0.142849 0)
(5.1716 0.218704 0)
(5.56294 -0.137785 0)
(5.172 0.222716 0)
(5.59036 -0.136882 0)
(5.17474 0.224445 0)
(5.62006 -0.133788 0)
(5.17671 0.223803 0)
(5.6509 -0.129747 0)
(5.178 0.227641 0)
(5.68125 -0.123032 0)
(5.17852 0.230255 0)
(5.71277 -0.111284 0)
(5.1786 0.23572 0)
(5.74478 -0.100342 0)
(5.18002 0.240949 0)
(5.77773 -0.084923 0)
(5.18084 0.245405 0)
(5.81116 -0.0703148 0)
(5.18347 0.251455 0)
(5.84365 -0.0514736 0)
(5.18603 0.257153 0)
(5.87631 -0.0309324 0)
(5.19056 0.266527 0)
(5.90637 -0.00545262 0)
(5.1963 0.27697 0)
(5.93544 0.0232335 0)
(5.20482 0.292157 0)
(5.95967 0.0569566 0)
(5.21623 0.309527 0)
(5.98013 0.094473 0)
(5.23266 0.332284 0)
(5.99192 0.137048 0)
(5.25437 0.359148 0)
(5.99431 0.184262 0)
(5.28542 0.392682 0)
(5.98184 0.236354 0)