/*--------------------------------*- C++ -*----------------------------------*\
| =========                 |                                                 |
| \\      /  F ield         | OpenFOAM: The Open Source CFD Toolbox           |
|  \\    /   O peration     | Version:  2.4.0                                 |
|   \\  /    A nd           | Web:      www.OpenFOAM.org                      |
|    \\/     M anipulation  |                                                 |
\*---------------------------------------------------------------------------*/
FoamFile
{
    version     2.0;
    format      ascii;
    class       volScalarField;
    location    "76";
    object      p;
}
// * * * * * * * * * * * * * * * * * * * * * * * * * * * * * * * * * * * * * //

dimensions      [0 2 -2 0 0 0 0];

internalField   nonuniform List<scalar> 
4400
(
-0.118984
-0.122229
-0.105267
-0.115446
-0.127543
-0.115595
-0.123272
-0.11932
-0.11837
-0.128608
-0.11893
-0.124901
-0.126829
-0.121511
-0.132296
-0.125301
-0.126648
-0.135676
-0.126122
-0.142124
-0.118895
-0.122658
-0.105149
-0.115181
-0.128049
-0.115499
-0.12327
-0.119479
-0.11797
-0.128924
-0.118966
-0.124789
-0.127169
-0.121181
-0.132468
-0.125456
-0.126321
-0.136276
-0.125911
-0.141485
-0.118822
-0.123095
-0.104908
-0.114991
-0.128794
-0.115202
-0.1234
-0.119611
-0.117556
-0.129447
-0.118889
-0.124736
-0.127439
-0.120726
-0.13279
-0.12562
-0.12599
-0.136835
-0.125491
-0.140612
-0.118765
-0.123414
-0.104736
-0.115011
-0.129289
-0.114821
-0.123616
-0.119642
-0.117255
-0.129922
-0.118723
-0.124769
-0.127549
-0.120346
-0.133041
-0.12572
-0.12573
-0.137253
-0.124991
-0.139455
-0.118725
-0.123528
-0.104849
-0.115369
-0.129426
-0.114513
-0.123844
-0.119627
-0.11721
-0.130053
-0.118553
-0.124917
-0.127474
-0.120161
-0.133054
-0.125746
-0.125703
-0.137319
-0.124658
-0.138096
-0.118725
-0.123487
-0.105538
-0.116185
-0.129354
-0.11454
-0.123988
-0.119789
-0.1176
-0.130144
-0.11859
-0.125159
-0.127397
-0.120445
-0.132802
-0.125813
-0.12599
-0.137039
-0.124624
-0.136649
-0.118775
-0.123183
-0.107085
-0.117481
-0.129004
-0.115131
-0.123905
-0.120339
-0.118568
-0.129967
-0.119033
-0.125389
-0.127449
-0.121242
-0.132246
-0.12607
-0.126564
-0.136363
-0.125031
-0.135181
-0.118812
-0.122415
-0.109643
-0.119094
-0.128148
-0.116389
-0.12346
-0.121261
-0.120093
-0.129322
-0.119979
-0.125498
-0.127598
-0.122586
-0.131378
-0.126552
-0.12733
-0.135221
-0.125911
-0.133702
-0.118714
-0.121069
-0.113141
-0.120709
-0.1265
-0.118261
-0.122602
-0.122354
-0.121949
-0.127981
-0.121414
-0.1254
-0.127689
-0.124371
-0.129979
-0.127215
-0.128132
-0.133605
-0.127209
-0.132219
-0.118377
-0.1192
-0.117258
-0.121967
-0.123899
-0.120492
-0.121388
-0.123293
-0.123773
-0.125886
-0.123193
-0.125058
-0.127491
-0.126344
-0.128161
-0.12797
-0.128804
-0.131596
-0.128779
-0.130741
-0.117777
-0.117033
-0.121503
-0.122566
-0.120497
-0.12266
-0.119955
-0.123814
-0.125193
-0.123264
-0.125053
-0.124484
-0.126849
-0.128175
-0.126131
-0.128697
-0.129207
-0.129369
-0.130282
-0.129296
-0.116992
-0.114873
-0.125347
-0.122414
-0.116759
-0.124417
-0.118539
-0.123895
-0.125968
-0.120507
-0.126711
-0.123745
-0.125824
-0.129557
-0.124114
-0.129289
-0.129279
-0.127158
-0.131355
-0.12795
-0.116167
-0.11298
-0.128378
-0.121743
-0.113238
-0.125506
-0.117428
-0.123679
-0.126126
-0.118031
-0.127949
-0.123008
-0.124647
-0.130341
-0.122389
-0.129677
-0.129111
-0.125186
-0.131922
-0.12682
-0.115462
-0.111518
-0.130409
-0.120931
-0.110416
-0.125932
-0.116803
-0.123356
-0.125906
-0.116132
-0.12868
-0.122473
-0.123589
-0.130608
-0.121146
-0.12985
-0.128862
-0.123621
-0.132007
-0.125978
-0.114997
-0.110584
-0.131488
-0.120312
-0.108566
-0.125906
-0.116667
-0.123077
-0.125586
-0.114935
-0.12897
-0.122243
-0.122841
-0.130557
-0.12044
-0.129839
-0.128663
-0.122563
-0.13206
-0.125446
-0.114784
-0.11018
-0.131847
-0.120041
-0.107687
-0.125663
-0.116879
-0.122902
-0.125334
-0.114414
-0.128939
-0.122284
-0.12245
-0.130366
-0.120213
-0.129695
-0.12856
-0.122015
-0.131878
-0.125194
-0.114696
-0.110208
-0.13171
-0.119957
-0.107611
-0.125247
-0.11718
-0.122822
-0.125113
-0.114513
-0.128702
-0.122415
-0.122361
-0.130106
-0.120335
-0.129486
-0.128486
-0.121902
-0.131542
-0.125128
-0.114609
-0.110519
-0.131236
-0.119755
-0.108103
-0.124711
-0.117345
-0.122807
-0.124779
-0.1149
-0.12835
-0.122445
-0.122494
-0.129712
-0.120623
-0.12928
-0.128323
-0.1221
-0.131144
-0.125104
-0.114482
-0.110942
-0.130675
-0.119364
-0.108799
-0.124202
-0.117329
-0.122852
-0.124363
-0.11539
-0.128018
-0.122332
-0.122743
-0.129277
-0.120922
-0.129144
-0.12807
-0.122436
-0.130785
-0.125039
-0.114361
-0.111506
-0.130386
-0.118989
-0.109353
-0.123971
-0.117216
-0.122946
-0.123969
-0.115735
-0.127891
-0.122172
-0.122998
-0.128951
-0.121084
-0.129137
-0.127822
-0.122824
-0.130613
-0.124939
-0.126807
-0.123812
-0.126753
-0.125404
-0.114263
-0.110695
-0.119562
-0.109903
-0.142798
-0.16405
-0.166332
-0.169855
-0.161881
-0.114671
-0.112275
-0.150623
-0.0961755
-0.109453
-0.192013
-0.19171
-0.145968
-0.116714
-0.0764152
-0.0372255
-0.0441517
-0.0843248
-0.16295
-0.226712
-0.185401
-0.112135
-0.0429516
0.00404
-0.064535
-0.140255
-0.156985
-0.148044
-0.114154
-0.0547115
-0.0137683
-0.0133673
-0.0352592
-0.0582924
-0.08555
-0.101185
-0.0835859
-0.0478387
-0.0202378
-0.0135019
-0.020756
-0.0283294
-0.0306143
-0.0214952
-0.0050931
0.00304428
-0.00731886
-0.0260476
-0.0323633
-0.0196193
-0.00805361
-0.0100397
-0.0169728
-0.0163554
-0.00637749
0.00133237
0.00138983
-0.000658924
-0.00174824
-0.0061293
-0.0111431
-0.0104216
-0.00592593
-0.00328951
-0.00318446
-0.00347977
-0.00324835
-0.00255998
-0.00158031
-0.000515856
0.000470754
0.00134174
0.0021123
0.00277689
0.00331046
0.00369126
0.00391279
0.00398661
0.00393787
0.00379656
0.00359021
0.0033404
0.00306239
0.00276631
0.00245855
0.00214305
0.00182215
0.00149723
0.00116908
0.000838123
0.000504596
0.000168604
-0.127291
-0.123174
-0.1272
-0.125193
-0.113321
-0.1101
-0.120063
-0.109674
-0.142859
-0.164993
-0.163852
-0.166603
-0.161608
-0.117953
-0.112538
-0.146919
-0.103364
-0.111568
-0.181763
-0.183118
-0.140145
-0.107695
-0.0679519
-0.0333142
-0.0428848
-0.0866748
-0.166488
-0.230889
-0.1873
-0.113603
-0.0374242
0.0145743
-0.0642042
-0.145106
-0.16331
-0.155552
-0.119697
-0.0562773
-0.0130777
-0.0115309
-0.0320649
-0.054105
-0.0805765
-0.0959342
-0.0802348
-0.0467323
-0.0205521
-0.0151626
-0.0239414
-0.0320172
-0.0337855
-0.0238443
-0.00632414
0.00371722
-0.00448002
-0.021494
-0.0279744
-0.0172834
-0.00826868
-0.0121296
-0.0197485
-0.0186658
-0.00712864
0.00248296
0.00369262
0.00126715
-0.00136206
-0.00747809
-0.0131838
-0.0117098
-0.00595473
-0.00240994
-0.00206285
-0.00257602
-0.00274791
-0.00244075
-0.00170679
-0.000735002
0.000267043
0.00120221
0.0020403
0.00275243
0.00330975
0.00369777
0.00391868
0.00398987
0.00393895
0.00379643
0.00358963
0.00333975
0.00306186
0.00276589
0.00245827
0.00214286
0.00182203
0.00149716
0.00116903
0.000838105
0.000504579
0.000168601
-0.12796
-0.12268
-0.127381
-0.124573
-0.113058
-0.109786
-0.120862
-0.109968
-0.142079
-0.166081
-0.161389
-0.162205
-0.16052
-0.122025
-0.113562
-0.142793
-0.110441
-0.114044
-0.171124
-0.174153
-0.134981
-0.0999073
-0.0603752
-0.0295863
-0.0412573
-0.088132
-0.170086
-0.234308
-0.189423
-0.115749
-0.0332806
0.0238802
-0.0644295
-0.150007
-0.169253
-0.162291
-0.12413
-0.0572489
-0.0120292
-0.00912452
-0.0282735
-0.0495694
-0.0752443
-0.0900902
-0.0764052
-0.0453815
-0.0206648
-0.0165414
-0.026807
-0.0353813
-0.0367027
-0.0259322
-0.00722041
0.00465347
-0.00146977
-0.0167961
-0.023482
-0.0147841
-0.00828575
-0.0139684
-0.0222451
-0.0207413
-0.00772866
0.00367929
0.00595657
0.00315265
-0.000947672
-0.00870508
-0.015082
-0.0129018
-0.00594603
-0.00151185
-0.000919097
-0.00165248
-0.00224124
-0.00232488
-0.00183873
-0.000956985
6.33512e-05
0.00106402
0.0019695
0.00272874
0.00330958
0.00370477
0.00392509
0.00399364
0.0039405
0.00379671
0.00358936
0.00333933
0.00306147
0.00276559
0.00245805
0.00214271
0.00182193
0.0014971
0.00116899
0.000838084
0.000504569
0.000168598
-0.128651
-0.122239
-0.127367
-0.123531
-0.113515
-0.10966
-0.121107
-0.110825
-0.140055
-0.166083
-0.159274
-0.157261
-0.158424
-0.126455
-0.115277
-0.138559
-0.116789
-0.116792
-0.16091
-0.165265
-0.130513
-0.0934436
-0.0539195
-0.0262728
-0.0394739
-0.0888417
-0.173375
-0.236919
-0.192104
-0.118471
-0.0306946
0.0315793
-0.0653659
-0.154836
-0.174792
-0.168204
-0.127423
-0.0575861
-0.0105821
-0.00611816
-0.023895
-0.0447443
-0.0696149
-0.0837343
-0.0721546
-0.0438163
-0.0205938
-0.0176259
-0.0293195
-0.0383939
-0.0393368
-0.0277166
-0.00776687
0.00582313
0.00166762
-0.0120217
-0.0189633
-0.0121672
-0.0081085
-0.015536
-0.0244381
-0.0225568
-0.00816616
0.00490274
0.00813768
0.0049639
-0.000514355
-0.00979396
-0.0168515
-0.0139734
-0.00589774
-0.00061289
0.000223399
-0.000727772
-0.00173904
-0.0022159
-0.00197508
-0.00117869
-0.000136863
0.000929886
0.00190159
0.0027065
0.00331015
0.00371228
0.00393199
0.0039979
0.00394251
0.00379737
0.00358939
0.00333913
0.00306124
0.00276539
0.0024579
0.00214259
0.00182185
0.00149705
0.00116896
0.000838067
0.000504562
0.000168595
-0.129207
-0.121938
-0.127327
-0.122276
-0.114504
-0.109633
-0.120532
-0.112216
-0.136932
-0.163991
-0.157318
-0.152478
-0.155424
-0.130766
-0.117504
-0.134511
-0.122088
-0.119657
-0.151699
-0.156904
-0.126761
-0.0883523
-0.0487736
-0.0235925
-0.0377439
-0.0889988
-0.175785
-0.238392
-0.195017
-0.12146
-0.0296663
0.0372386
-0.0668675
-0.159256
-0.179797
-0.173173
-0.129574
-0.0572765
-0.00870115
-0.00250309
-0.0189662
-0.0396941
-0.0637394
-0.0769629
-0.0675485
-0.042073
-0.0203605
-0.0184123
-0.0314572
-0.0410372
-0.0416646
-0.0291606
-0.00796043
0.00719451
0.00489073
-0.00724508
-0.014491
-0.00947869
-0.00774558
-0.0168198
-0.0263119
-0.024094
-0.00843313
0.00613315
0.0101937
0.00667147
-7.04454e-05
-0.0107302
-0.0183563
-0.0149044
-0.00580855
0.000270135
0.00134202
0.00017886
-0.00125166
-0.00211693
-0.00211456
-0.00139692
-0.000330194
0.000802365
0.00183809
0.0026865
0.00331173
0.00372033
0.00393935
0.00400263
0.00394497
0.00379843
0.00358973
0.00333917
0.00306116
0.00276529
0.0024578
0.00214252
0.0018218
0.00149701
0.00116894
0.000838054
0.000504556
0.000168593
-0.129613
-0.121889
-0.127282
-0.12107
-0.115571
-0.109769
-0.119288
-0.113863
-0.133201
-0.159641
-0.155159
-0.148281
-0.151839
-0.134586
-0.120022
-0.13089
-0.126255
-0.122469
-0.143843
-0.149463
-0.123753
-0.084653
-0.0450692
-0.0217514
-0.0362855
-0.08866
-0.176837
-0.238167
-0.19723
-0.124381
-0.0298986
0.0405093
-0.0684281
-0.162696
-0.18403
-0.177046
-0.130591
-0.056327
-0.00635617
0.00171081
-0.0135592
-0.0344841
-0.0576597
-0.0698902
-0.0626565
-0.0401937
-0.0199909
-0.0189072
-0.0332101
-0.0433038
-0.0436667
-0.0302364
-0.00780833
0.00873332
0.00816225
-0.00254357
-0.0101309
-0.00676619
-0.00721071
-0.0178147
-0.0278582
-0.02534
-0.00852482
0.00734832
0.0120875
0.0082512
0.00037708
-0.0115059
-0.0196246
-0.0156784
-0.00567805
0.00112192
0.00241557
0.00104851
-0.000788662
-0.00203047
-0.00225559
-0.00160847
-0.000513337
0.000683265
0.00178042
0.00266946
0.00331459
0.00372901
0.00394715
0.00400779
0.00394783
0.00379983
0.00359035
0.0033394
0.00306122
0.00276528
0.00245777
0.00214248
0.00182177
0.00149699
0.00116893
0.000838045
0.000504553
0.000168592
-0.129807
-0.122163
-0.127144
-0.120035
-0.116461
-0.110132
-0.117551
-0.115647
-0.12938
-0.15347
-0.152444
-0.144851
-0.148107
-0.137702
-0.122637
-0.127904
-0.129375
-0.125123
-0.137528
-0.14319
-0.121498
-0.08231
-0.042869
-0.0209111
-0.0353219
-0.0877788
-0.176437
-0.23576
-0.197803
-0.126787
-0.0309564
0.0411431
-0.069866
-0.164639
-0.187197
-0.179663
-0.130498
-0.0547542
-0.00353006
0.00648581
-0.00777657
-0.029177
-0.0514114
-0.0626437
-0.0575532
-0.0382267
-0.019516
-0.0191303
-0.0345794
-0.0451962
-0.0453284
-0.0309267
-0.00732722
0.0104019
0.0114524
0.0020042
-0.00594227
-0.00407775
-0.00652228
-0.0185221
-0.0290752
-0.0262866
-0.00843995
0.00852615
0.0137891
0.0096834
0.000822106
-0.0121177
-0.0206522
-0.0162841
-0.00550678
0.00192877
0.00342511
0.00186438
-0.000358406
-0.00195825
-0.00239618
-0.00181008
-0.000683226
0.000575922
0.0017298
0.002656
0.00331896
0.00373832
0.00395536
0.0040133
0.00395103
0.00380153
0.0035912
0.00333981
0.00306141
0.00276535
0.00245779
0.00214248
0.00182176
0.00149698
0.00116892
0.000838039
0.000504551
0.000168592
-0.129713
-0.122772
-0.126784
-0.119265
-0.117121
-0.110667
-0.115571
-0.116641
-0.125594
-0.14625
-0.148973
-0.14216
-0.14463
-0.140025
-0.125214
-0.125687
-0.131625
-0.127547
-0.132798
-0.138179
-0.119957
-0.0812103
-0.0421451
-0.0211714
-0.0350693
-0.0864002
-0.174654
-0.231175
-0.196492
-0.128108
-0.0325967
0.0390498
-0.0714553
-0.164987
-0.189111
-0.180893
-0.129354
-0.0525895
-0.000214592
0.01177
-0.00175321
-0.0238399
-0.0450281
-0.0553564
-0.052323
-0.0362263
-0.0189721
-0.0191161
-0.0355775
-0.0467226
-0.0466386
-0.0312256
-0.00654567
0.0121647
0.014732
0.00631631
-0.00197347
-0.00146014
-0.00570445
-0.0189495
-0.029966
-0.02693
-0.00818045
0.00964511
0.0152749
0.0109538
0.00126003
-0.012566
-0.021435
-0.016716
-0.00529645
0.00267877
0.00435468
0.00261314
3.22558e-05
-0.00190101
-0.00253386
-0.00199844
-0.000837198
0.000481545
0.00168723
0.00264652
0.00332491
0.0037482
0.00396383
0.00401903
0.00395444
0.00380342
0.00359221
0.00334034
0.00306167
0.00276548
0.00245784
0.0021425
0.00182176
0.00149697
0.00116891
0.000838037
0.000504551
0.000168593
-0.129281
-0.123663
-0.126137
-0.118805
-0.117622
-0.111249
-0.113654
-0.116834
-0.12243
-0.138791
-0.144749
-0.140046
-0.141691
-0.141551
-0.127658
-0.124272
-0.133177
-0.129725
-0.12958
-0.134406
-0.119061
-0.0811662
-0.0427316
-0.0225503
-0.035656
-0.0847702
-0.171503
-0.224909
-0.193702
-0.127968
-0.0348218
0.0342803
-0.0732042
-0.164023
-0.189683
-0.180686
-0.127269
-0.0498711
0.00358358
0.0174832
0.00434087
-0.018543
-0.0385431
-0.0481618
-0.0470679
-0.0342545
-0.0183993
-0.0189134
-0.0362285
-0.0478943
-0.0475868
-0.0311393
-0.00550435
0.0139936
0.017964
0.0103158
0.00173426
0.00104058
-0.00478827
-0.0191106
-0.0305369
-0.0272699
-0.00775227
0.0106835
0.0165298
0.012054
0.00168755
-0.0128542
-0.0219747
-0.016975
-0.00505036
0.00336226
0.0051917
0.00328447
0.000378331
-0.00185833
-0.0026656
-0.00217023
-0.000972958
0.000401376
0.0016533
0.00264116
0.00333238
0.00375847
0.00397234
0.00402476
0.00395788
0.00380536
0.00359327
0.00334091
0.00306198
0.00276564
0.00245792
0.00214253
0.00182177
0.00149697
0.00116891
0.000838036
0.000504551
0.000168594
-0.128516
-0.124716
-0.125228
-0.118628
-0.118016
-0.111727
-0.112043
-0.116239
-0.119565
-0.1317
-0.139994
-0.138306
-0.139395
-0.142336
-0.129872
-0.123585
-0.134149
-0.131644
-0.127715
-0.131776
-0.118716
-0.0819254
-0.0444336
-0.0249563
-0.0370945
-0.0831627
-0.167373
-0.21712
-0.189997
-0.126375
-0.0376233
0.0272405
-0.0747682
-0.162114
-0.189097
-0.179104
-0.124409
-0.0466599
0.00784225
0.0235344
0.0103221
-0.0133475
-0.032001
-0.0411851
-0.0419053
-0.0323801
-0.0178396
-0.0185836
-0.0365632
-0.0487193
-0.0481599
-0.0306866
-0.0042541
0.0158663
0.0211095
0.0139366
0.0051422
0.00337811
-0.00381042
-0.0190279
-0.030798
-0.0273114
-0.00716713
0.0116207
0.0175482
0.012981
0.00210115
-0.0129895
-0.0222804
-0.0170675
-0.0047736
0.00397233
0.00592688
0.00387066
0.000677065
-0.00182844
-0.0027877
-0.00232222
-0.00108868
0.000336074
0.00162804
0.00263968
0.00334101
0.00376877
0.00398058
0.00403022
0.00396112
0.00380717
0.00359426
0.00334145
0.00306226
0.00276579
0.00245799
0.00214256
0.00182178
0.00149698
0.00116891
0.000838036
0.000504553
0.000168595
-0.127518
-0.125765
-0.124143
-0.118664
-0.11831
-0.111994
-0.11082
-0.115038
-0.116899
-0.12534
-0.135031
-0.136736
-0.137698
-0.142497
-0.131753
-0.123477
-0.13462
-0.133263
-0.126965
-0.130132
-0.118726
-0.083176
-0.0467527
-0.02821
-0.0392902
-0.0816779
-0.162128
-0.208662
-0.185459
-0.123555
-0.0406467
0.0188965
-0.0762216
-0.159552
-0.187676
-0.176329
-0.120969
-0.0430202
0.012517
0.0297999
0.0159922
-0.00830568
-0.0254931
-0.0345231
-0.0369578
-0.03067
-0.0173348
-0.0181952
-0.0366134
-0.0491971
-0.0483406
-0.0298984
-0.00285407
0.017761
0.0241262
0.0171255
0.0082173
0.00550772
-0.00281173
-0.0187333
-0.0307668
-0.0270671
-0.00644427
0.0124387
0.0183341
0.0137373
0.00249652
-0.0129839
-0.0223685
-0.0170062
-0.00447308
0.00450505
0.00655376
0.00436671
0.000928281
-0.00180821
-0.00289584
-0.00245138
-0.00118317
0.00028556
0.00161088
0.00264145
0.00335025
0.0037786
0.00398812
0.00403507
0.00396392
0.00380869
0.00359506
0.00334186
0.00306247
0.00276589
0.00245804
0.00214258
0.00182179
0.00149698
0.00116892
0.000838037
0.000504554
0.000168596
-0.126457
-0.126651
-0.123013
-0.118837
-0.118507
-0.111976
-0.109937
-0.113513
-0.114367
-0.11986
-0.130193
-0.135177
-0.13646
-0.142172
-0.133202
-0.123771
-0.134677
-0.134488
-0.12702
-0.129237
-0.118782
-0.0844056
-0.049353
-0.0325967
-0.0420865
-0.0803096
-0.155871
-0.199724
-0.18001
-0.119554
-0.0430651
0.0100143
-0.077443
-0.156431
-0.185472
-0.172599
-0.117147
-0.0390433
0.0175368
0.0361138
0.0211865
-0.00346345
-0.0191608
-0.0282374
-0.0323463
-0.0291778
-0.0169245
-0.0178192
-0.0364061
-0.0493141
-0.0481111
-0.0288192
-0.00136984
0.0196543
0.0269606
0.0198581
0.0109292
0.00738807
-0.00183631
-0.0182668
-0.0304715
-0.0265631
-0.00561298
0.0131231
0.0189004
0.0143303
0.00286899
-0.012855
-0.0222669
-0.0168122
-0.00415724
0.00495909
0.00706817
0.00477095
0.00113433
-0.00179324
-0.00298535
-0.00255524
-0.00125627
0.000248909
0.00160066
0.00264546
0.00335929
0.00378736
0.00399451
0.00403898
0.00396604
0.00380974
0.00359556
0.00334209
0.00306258
0.00276594
0.00245806
0.00214259
0.00182179
0.00149698
0.00116891
0.000838037
0.000504555
0.000168597
-0.125476
-0.127271
-0.121987
-0.119066
-0.118616
-0.111731
-0.109307
-0.111927
-0.111977
-0.1153
-0.125769
-0.133543
-0.135513
-0.141497
-0.134152
-0.124319
-0.134453
-0.135227
-0.127527
-0.128776
-0.118618
-0.0852683
-0.0518445
-0.0366391
-0.0452206
-0.0790217
-0.148803
-0.190362
-0.173517
-0.11423
-0.0441741
0.000736859
-0.0775775
-0.152299
-0.182528
-0.168228
-0.113102
-0.0348375
0.0228059
0.0422729
0.0258008
0.00114029
-0.0132147
-0.0223802
-0.0281894
-0.0279292
-0.0166394
-0.0175282
-0.0359653
-0.0490491
-0.0474653
-0.0275131
0.000131159
0.0215199
0.0295426
0.0221107
0.0132491
0.00898399
-0.000929503
-0.0176764
-0.0299554
-0.0258439
-0.00471458
0.0136661
0.0192685
0.0147718
0.00321405
-0.0126269
-0.0220129
-0.0165129
-0.00383528
0.00533477
0.00746833
0.00508614
0.00129944
-0.00177836
-0.00305199
-0.00263246
-0.00130889
0.000224378
0.0015957
0.00265042
0.00336723
0.00379442
0.00399933
0.00404169
0.00396732
0.00381026
0.00359572
0.00334212
0.00306257
0.00276592
0.00245804
0.00214258
0.00182178
0.00149697
0.00116891
0.000838036
0.000504555
0.000168597
-0.124653
-0.127618
-0.121178
-0.119274
-0.118635
-0.111356
-0.108848
-0.11048
-0.109811
-0.111685
-0.121987
-0.131848
-0.134727
-0.140602
-0.134587
-0.125003
-0.134113
-0.135483
-0.128145
-0.128449
-0.118044
-0.0855197
-0.0539059
-0.0404873
-0.0483933
-0.0777717
-0.14128
-0.180679
-0.165914
-0.10779
-0.0437646
-0.00801847
-0.0758507
-0.147047
-0.178653
-0.163436
-0.108928
-0.0305472
0.0281998
0.0480001
0.0298069
0.00549823
-0.00799984
-0.0170425
-0.0246068
-0.0269164
-0.0164902
-0.0173859
-0.0353301
-0.0483992
-0.0464373
-0.026079
0.00159049
0.0233295
0.0317821
0.0239123
0.0151526
0.0102698
-0.000133826
-0.0170167
-0.0292791
-0.024975
-0.00380138
0.0140679
0.0194674
0.0150768
0.00352621
-0.0123268
-0.0216468
-0.0161373
-0.00351574
0.00563187
0.00775596
0.00531885
0.00142881
-0.00175861
-0.00309301
-0.00268327
-0.00134309
0.000209549
0.00159403
0.00265498
0.00337319
0.00379928
0.00400231
0.00404308
0.00396774
0.00381022
0.00359555
0.00334195
0.00306244
0.00276584
0.00245799
0.00214255
0.00182176
0.00149696
0.00116891
0.000838033
0.000504555
0.000168597
-0.12403
-0.127739
-0.120649
-0.119414
-0.118583
-0.11099
-0.1085
-0.109288
-0.108014
-0.109052
-0.11902
-0.130191
-0.134036
-0.139606
-0.134557
-0.125724
-0.133786
-0.135347
-0.128644
-0.128038
-0.116914
-0.0850949
-0.0553552
-0.0437983
-0.0512929
-0.0765491
-0.133728
-0.170967
-0.157421
-0.100544
-0.0420635
-0.0154675
-0.0721032
-0.140632
-0.173739
-0.158527
-0.104638
-0.0263394
0.0335799
0.0530546
0.0333074
0.00959969
-0.00365659
-0.0123725
-0.021709
-0.0261064
-0.0164591
-0.0174238
-0.0345865
-0.0474365
-0.0451416
-0.0246675
0.00297253
0.0250544
0.033575
0.0253078
0.0166251
0.0112327
0.000515779
-0.0163447
-0.0285184
-0.0240399
-0.00293208
0.0143378
0.0195321
0.0152622
0.00379674
-0.0119815
-0.021204
-0.0157108
-0.00320684
0.00584735
0.00793841
0.00547811
0.00152767
-0.00173066
-0.00310827
-0.00270455
-0.00136194
0.000201649
0.00159369
0.00265793
0.00337659
0.00380169
0.00400343
0.00404321
0.00396737
0.00380973
0.00359511
0.00334163
0.00306222
0.0027657
0.00245791
0.0021425
0.00182174
0.00149695
0.0011689
0.000838029
0.000504553
0.000168597
-0.123623
-0.127681
-0.120397
-0.119473
-0.118478
-0.110742
-0.108239
-0.108406
-0.106742
-0.107404
-0.116958
-0.128719
-0.133434
-0.138635
-0.134215
-0.126417
-0.133525
-0.134939
-0.128923
-0.127441
-0.115322
-0.0841661
-0.0561735
-0.046312
-0.0536387
-0.0754016
-0.126617
-0.161687
-0.14855
-0.0929278
-0.0393496
-0.0214059
-0.0671103
-0.133496
-0.16795
-0.153753
-0.100203
-0.0224635
0.0387808
0.0571792
0.0364326
0.0133181
-0.000198655
-0.00856825
-0.0195636
-0.0254554
-0.0165125
-0.0176166
-0.0338853
-0.0463808
-0.0438467
-0.0234477
0.0042534
0.0266622
0.0348326
0.02634
0.0176714
0.0118782
0.000997035
-0.0157148
-0.0277553
-0.0231299
-0.00216372
0.014494
0.0195019
0.0153467
0.00401307
-0.0116214
-0.0207193
-0.0152616
-0.00292447
0.00597772
0.00803023
0.00557381
0.0016003
-0.00169421
-0.003101
-0.00271022
-0.00136913
0.000198085
0.00159317
0.00265865
0.00337729
0.00380183
0.00400294
0.00404234
0.00396643
0.00380891
0.00359449
0.0033412
0.00306195
0.00276554
0.00245782
0.00214245
0.0018217
0.00149693
0.00116889
0.000838025
0.000504552
0.000168597
-0.123434
-0.127518
-0.120363
-0.119481
-0.118334
-0.110651
-0.108085
-0.107856
-0.106049
-0.10664
-0.115767
-0.127566
-0.132933
-0.137824
-0.133776
-0.127043
-0.133337
-0.134382
-0.12902
-0.12628
-0.113426
-0.0830921
-0.0564693
-0.0479219
-0.0552456
-0.0744373
-0.120511
-0.153405
-0.139872
-0.0856779
-0.0363582
-0.0254879
-0.0620795
-0.126492
-0.161925
-0.149522
-0.0962508
-0.0185974
0.0434936
0.0600637
0.0391811
0.0163622
0.00247383
-0.00582137
-0.0181616
-0.0249284
-0.016613
-0.0178902
-0.0333246
-0.0454441
-0.0427348
-0.0224632
0.00542161
0.0280648
0.0355596
0.0270344
0.018321
0.0122352
0.00130336
-0.015172
-0.0270666
-0.0223292
-0.00154168
0.0145631
0.0194175
0.0153506
0.00416195
-0.0112842
-0.0202444
-0.0148375
-0.00269613
0.00602733
0.00805058
0.00561652
0.00164963
-0.0016529
-0.00307754
-0.00270151
-0.0013683
0.00019699
0.00159185
0.00265723
0.00337578
0.00380024
0.00400135
0.00404086
0.00396517
0.00380794
0.0035938
0.00334075
0.00306166
0.00276536
0.00245771
0.00214239
0.00182167
0.00149691
0.00116888
0.00083802
0.00050455
0.000168596
-0.123443
-0.12724
-0.120456
-0.11948
-0.118157
-0.110701
-0.108067
-0.107627
-0.10586
-0.106535
-0.115285
-0.126794
-0.132554
-0.137247
-0.133416
-0.127601
-0.133163
-0.13386
-0.129026
-0.125431
-0.11177
-0.0820414
-0.0564129
-0.0486973
-0.0560696
-0.0737777
-0.115989
-0.146948
-0.132814
-0.0796758
-0.0335924
-0.0277409
-0.0581552
-0.120491
-0.156508
-0.146016
-0.0927485
-0.014908
0.0471641
0.0619478
0.0413902
0.0185361
0.00437239
-0.00421011
-0.0173998
-0.0245111
-0.0167043
-0.0181808
-0.032913
-0.0446811
-0.0418441
-0.0215724
0.00642097
0.0290849
0.0358756
0.0274102
0.0186391
0.0123605
0.00144421
-0.0147537
-0.0265132
-0.0216958
-0.00109001
0.0145748
0.0193133
0.0152972
0.00423352
-0.0110117
-0.019842
-0.0144897
-0.00254338
0.00601478
0.00802141
0.00561908
0.00167732
-0.0016139
-0.00304674
-0.00268433
-0.00136272
0.000197405
0.00159006
0.00265464
0.00337312
0.00379787
0.00399934
0.00403923
0.0039639
0.00380701
0.00359316
0.00334032
0.0030614
0.0027652
0.00245762
0.00214233
0.00182164
0.0014969
0.00116887
0.000838016
0.000504548
0.000168595
-0.123592
-0.126943
-0.120549
-0.119505
-0.117995
-0.110917
-0.10815
-0.107584
-0.105931
-0.106753
-0.115247
-0.126387
-0.132309
-0.136923
-0.13316
-0.128096
-0.133055
-0.133481
-0.129018
-0.124884
-0.110634
-0.0812699
-0.0562194
-0.0489093
-0.0562181
-0.0736244
-0.113282
-0.142927
-0.128553
-0.0758703
-0.0315307
-0.0283468
-0.0559464
-0.116349
-0.152353
-0.143138
-0.0898324
-0.0121131
0.0496188
0.0632257
0.0428733
0.0197193
0.00534747
-0.00360736
-0.0171061
-0.0242107
-0.0167539
-0.0184434
-0.0326994
-0.0441365
-0.0411163
-0.0208224
0.00705982
0.0295822
0.0359096
0.0275242
0.018735
0.0123394
0.00144212
-0.0145027
-0.0261394
-0.0212574
-0.000803192
0.0145608
0.0192152
0.0152114
0.00422191
-0.0108478
-0.0195585
-0.0142421
-0.0024573
0.00597418
0.00797096
0.00559733
0.00168386
-0.00158753
-0.00301972
-0.00266592
-0.00135497
0.000199463
0.00158929
0.00265272
0.00337098
0.00379595
0.00399778
0.004038
0.00396298
0.00380634
0.0035927
0.00334002
0.00306121
0.00276509
0.00245755
0.00214229
0.00182162
0.00149688
0.00116887
0.000838012
0.000504546
0.000168595
-0.123793
-0.12674
-0.120586
-0.119564
-0.117761
-0.111
-0.108275
-0.107588
-0.106074
-0.107059
-0.115437
-0.1263
-0.132231
-0.136826
-0.133079
-0.128415
-0.133076
-0.133312
-0.129014
-0.124606
-0.110014
-0.0808151
-0.0559773
-0.0488305
-0.0562957
-0.0741284
-0.11261
-0.141443
-0.127404
-0.0742795
-0.0303587
-0.0281916
-0.0560228
-0.114814
-0.150325
-0.141447
-0.0881173
-0.0106191
0.0508335
0.063919
0.04352
0.0200361
0.00530736
-0.00386892
-0.0171281
-0.023983
-0.0167429
-0.01872
-0.0327487
-0.0439264
-0.0407514
-0.0204064
0.00737567
0.0297476
0.0358252
0.027449
0.018707
0.0122242
0.00129925
-0.0144807
-0.0259729
-0.0209497
-0.000651089
0.0145779
0.0191668
0.0150929
0.00410713
-0.0108346
-0.0194209
-0.0140936
-0.00239181
0.00596092
0.00793814
0.00556113
0.00166537
-0.00158585
-0.00300891
-0.0026555
-0.00134593
0.000205117
0.00159252
0.00265435
0.00337166
0.00379614
0.00399774
0.00403788
0.00396284
0.00380621
0.00359259
0.00333995
0.00306116
0.00276506
0.00245753
0.00214228
0.00182161
0.00149688
0.00116886
0.000838011
0.000504546
0.000168594
-0.124194
-0.124936
-0.123119
-0.124567
-0.122454
-0.125139
-0.126834
-0.130622
-0.13814
-0.141198
-0.147667
-0.146754
-0.145732
-0.134718
-0.132226
-0.132713
-0.125709
-0.142906
-0.165725
-0.187415
-0.199386
-0.171465
-0.0913115
0.0302151
0.115212
0.086629
0.0220469
-0.0180841
-0.0438372
-0.0822412
-0.112423
-0.113217
-0.0782886
-0.0502409
-0.0413618
-0.0441519
-0.0446906
-0.031651
-0.0205843
-0.0222305
-0.0372556
-0.0644103
-0.0895981
-0.0932723
-0.066611
-0.0275792
0.00545082
0.0304664
0.0411855
0.0326877
0.0170644
0.0128255
0.0224893
0.019558
-0.00553764
-0.0401042
-0.0431666
-0.0144204
0.016586
0.0292238
0.0259817
0.0193786
0.0112834
-0.0022196
-0.0141093
-0.0121756
0.0019885
0.0110481
0.0105122
0.00423857
-0.00277286
-0.00747925
-0.00914224
-0.0083692
-0.00603877
-0.00314716
-0.000583404
0.00116771
0.00209812
0.00252172
0.00277638
0.00305174
0.00337316
0.00367646
0.00389095
0.00398067
0.00394703
0.00381314
0.00360758
0.00335503
0.00307325
0.00277374
0.00246333
0.002146
0.0018239
0.00149825
0.00116966
0.00083844
0.000504756
0.000168652
-0.124229
-0.124938
-0.123133
-0.124559
-0.122465
-0.125094
-0.126796
-0.130461
-0.138113
-0.141297
-0.147728
-0.1469
-0.14585
-0.134645
-0.132146
-0.132831
-0.125858
-0.142806
-0.166109
-0.189289
-0.201747
-0.174116
-0.0939819
0.0260888
0.111662
0.0850626
0.0211027
-0.0185582
-0.0437206
-0.0826073
-0.113146
-0.113967
-0.0784353
-0.049934
-0.0410559
-0.044139
-0.0450107
-0.0320409
-0.0206571
-0.022051
-0.0368658
-0.0645029
-0.0901283
-0.0940542
-0.0673121
-0.0279345
0.00513538
0.0299389
0.0410761
0.0327875
0.0170126
0.0126378
0.0225097
0.0199682
-0.00557219
-0.0403722
-0.0437843
-0.0149434
0.0163466
0.029234
0.0260743
0.0194379
0.0114123
-0.00218249
-0.0142246
-0.0123372
0.00187462
0.0110968
0.0106179
0.00429255
-0.00276209
-0.00749466
-0.00916426
-0.00839219
-0.00605851
-0.00316014
-0.000588065
0.00116779
0.00209933
0.00252175
0.00277492
0.00304971
0.00337146
0.00367548
0.00389061
0.0039807
0.0039472
0.00381333
0.00360772
0.00335513
0.00307331
0.00277378
0.00246335
0.00214601
0.00182391
0.00149825
0.00116966
0.000838441
0.000504756
0.000168652
-0.12427
-0.124952
-0.123144
-0.124541
-0.122437
-0.125002
-0.126724
-0.130334
-0.138078
-0.141458
-0.147885
-0.147299
-0.146067
-0.134426
-0.132046
-0.133038
-0.125839
-0.142597
-0.168758
-0.193798
-0.206144
-0.17857
-0.0982817
0.0191662
0.104502
0.0814047
0.018609
-0.020391
-0.0449228
-0.0841029
-0.114778
-0.115305
-0.078611
-0.0493783
-0.040709
-0.0441758
-0.0453862
-0.0325738
-0.0205052
-0.0218018
-0.037062
-0.0652893
-0.0914252
-0.0955654
-0.0684942
-0.0284972
0.00453162
0.0288323
0.0405323
0.0325427
0.0167677
0.0126536
0.022642
0.020175
-0.00621458
-0.0413383
-0.0450699
-0.0158677
0.0157542
0.0291326
0.0260083
0.0193722
0.0114136
-0.00228696
-0.0144919
-0.0126106
0.00175115
0.0112072
0.0107081
0.00430935
-0.00280566
-0.00755419
-0.00921457
-0.00842792
-0.00608016
-0.00316781
-0.000584951
0.00117441
0.00210409
0.00252278
0.00277348
0.00304796
0.0033707
0.0036759
0.00389175
0.00398202
0.00394835
0.00381417
0.00360828
0.00335547
0.00307351
0.00277389
0.00246341
0.00214604
0.00182393
0.00149826
0.00116967
0.000838442
0.000504757
0.000168652
-0.124324
-0.124977
-0.123155
-0.124517
-0.122372
-0.124855
-0.126614
-0.130154
-0.138094
-0.141695
-0.148167
-0.147948
-0.146451
-0.13404
-0.131986
-0.133651
-0.125245
-0.14143
-0.173342
-0.199644
-0.21054
-0.183579
-0.103773
0.0106973
0.0941642
0.0754475
0.0144805
-0.0237052
-0.0475399
-0.0866387
-0.116987
-0.117143
-0.0789603
-0.0488363
-0.0404395
-0.0442397
-0.0458125
-0.0331222
-0.0200145
-0.0212912
-0.0375947
-0.0665254
-0.0931486
-0.0975157
-0.0701133
-0.0292092
0.00376955
0.0272674
0.0393338
0.0319808
0.0163285
0.0125247
0.0228369
0.0201793
-0.0073983
-0.0427593
-0.0467914
-0.0171114
0.0147307
0.028759
0.0257723
0.019139