/*--------------------------------*- C++ -*----------------------------------*\
| =========                 |                                                 |
| \\      /  F ield         | OpenFOAM: The Open Source CFD Toolbox           |
|  \\    /   O peration     | Version:  2.4.0                                 |
|   \\  /    A nd           | Web:      www.OpenFOAM.org                      |
|    \\/     M anipulation  |                                                 |
\*---------------------------------------------------------------------------*/
FoamFile
{
    version     2.0;
    format      ascii;
    class       volScalarField;
    location    "0.04";
    object      k;
}
// * * * * * * * * * * * * * * * * * * * * * * * * * * * * * * * * * * * * * //

dimensions      [0 2 -2 0 0 0 0];

internalField   nonuniform List<scalar> 
8800
(
8.12027
10.2902
8.74151
6.86315
5.68846
4.96497
4.54631
4.13734
3.89993
3.69466
3.51905
3.38585
3.30356
3.17748
3.11467
3.00049
2.95547
2.81476
2.78706
2.53217
1.39908
4.38339
5.29107
5.2785
5.12831
4.797
4.60305
4.28329
4.0932
3.92881
3.73757
3.59135
3.5287
3.37759
3.32317
3.22613
3.19087
3.08833
3.02397
2.9755
0.0840134
0.754448
1.57397
1.89259
2.28918
2.44542
2.54791
2.61891
2.62394
2.60275
2.58568
2.53924
2.51986
2.46569
2.45237
2.40852
2.39809
2.36733
2.35421
2.31328
0.00329039
0.0726144
0.284435
0.379968
0.573649
0.733012
0.799003
0.941033
1.05189
1.08322
1.15827
1.2165
1.24777
1.28683
1.34096
1.35851
1.37637
1.41496
1.45327
1.45388
0.000116682
0.00523817
0.0318328
0.0460443
0.0781358
0.133946
0.15493
0.203557
0.263937
0.281077
0.316907
0.363928
0.382082
0.416073
0.461639
0.494862
0.512518
0.557318
0.586656
0.628573
2.52785e-05
0.000341339
0.0026392
0.00363852
0.00617849
0.0139142
0.0171838
0.0252697
0.0404551
0.0445934
0.0534641
0.066933
0.0718595
0.0806432
0.0980971
0.110366
0.116568
0.132178
0.140924
0.159536
2.20022e-05
4.75929e-05
0.000235931
0.000277751
0.000404534
0.000955981
0.00121018
0.00192404
0.00391667
0.00440376
0.00557518
0.00711392
0.00760425
0.00864213
0.0119277
0.0142457
0.0153076
0.0179304
0.0192814
0.0222409
2.11459e-05
2.9962e-05
7.085e-05
7.70727e-05
8.07397e-05
0.000108462
0.00012686
0.000179483
0.000348589
0.000382732
0.000469866
0.000539766
0.000540895
0.000586331
0.000855561
0.0010611
0.0011456
0.00135593
0.00142749
0.00156101
2.07347e-05
2.74245e-05
5.30191e-05
6.66786e-05
6.55694e-05
6.59797e-05
6.68242e-05
7.23746e-05
9.53228e-05
0.00010095
0.000105792
0.000106659
0.000103
0.000102623
0.000111953
0.00012326
0.000127366
0.000136949
0.000139133
0.000144447
2.06021e-05
2.64303e-05
4.63439e-05
6.33124e-05
6.30737e-05
6.14982e-05
6.06976e-05
6.31115e-05
7.41974e-05
7.91957e-05
7.97263e-05
7.91099e-05
7.58265e-05
7.4165e-05
7.45892e-05
7.78488e-05
8.04788e-05
8.12113e-05
8.11798e-05
8.17485e-05
2.06445e-05
2.63136e-05
4.21094e-05
6.36312e-05
6.53058e-05
6.39334e-05
6.23887e-05
6.35991e-05
7.14556e-05
7.78828e-05
7.84251e-05
7.72873e-05
7.49942e-05
7.39911e-05
7.40967e-05
7.73853e-05
8.21969e-05
8.34761e-05
8.39535e-05
8.66048e-05
2.08369e-05
2.68581e-05
3.98911e-05
6.99082e-05
7.4683e-05
7.34702e-05
7.34468e-05
7.44438e-05
7.76633e-05
9.29883e-05
9.51626e-05
9.4497e-05
9.75759e-05
0.000108052
0.000114561
0.000139817
0.000172262
0.000187919
0.000203066
0.000248002
2.11659e-05
2.82653e-05
4.81095e-05
0.00011138
0.000122522
0.000124256
0.000149646
0.00017066
0.000192921
0.000332571
0.000383066
0.000406634
0.000513594
0.000772155
0.000889861
0.00128373
0.00165254
0.002001
0.00227458
0.00292106
2.17188e-05
4.15399e-05
0.000177672
0.000621578
0.000712466
0.00083351
0.00147579
0.00194476
0.00236387
0.00433205
0.00525162
0.00579852
0.00748484
0.010546
0.0118422
0.015789
0.0183253
0.0225786
0.0252322
0.0322846
2.54118e-05
0.000299619
0.00212647
0.00667305
0.00825271
0.0109964
0.0203175
0.0257571
0.0302036
0.0467504
0.0548228
0.0596936
0.0729547
0.090224
0.096769
0.116107
0.127313
0.1499
0.162492
0.20063
0.000122973
0.00488389
0.0282623
0.0643913
0.0829891
0.112972
0.176986
0.202605
0.226259
0.297654
0.32348
0.341973
0.392211
0.441709
0.459088
0.510137
0.53857
0.598087
0.628374
0.710525
0.00329707
0.0688516
0.273752
0.434295
0.562641
0.695108
0.860954
0.916716
0.995102
1.11958
1.15687
1.18707
1.27522
1.31852
1.33435
1.38544
1.41213
1.46814
1.4894
1.5485
0.0829999
0.721216
1.5866
1.94187
2.26873
2.43277
2.59275
2.59141
2.60937
2.60462
2.5874
2.52834
2.52607
2.48535
2.46126
2.42265
2.41578
2.39391
2.37208
2.35543
1.38235
4.36853
5.32173
5.28612
5.13312
4.79903
4.57952
4.27872
4.12666
3.86388
3.77614
3.58729
3.51533
3.36419
3.32901
3.1946
3.1619
3.03766
2.99129
2.875
8.09478
10.2846
8.79125
6.81819
5.71445
4.96376
4.5214
4.12937
3.93391
3.63849
3.54445
3.36444
3.29531
3.12354
3.09453
2.92499
2.87314
2.66512
2.60519
2.34411
1.74878
1.37579
1.1573
1.04089
0.950057
0.873396
0.801834
0.710321
0.591041
0.447823
0.328414
0.252549
0.208004
0.187047
0.176387
0.169966
0.166839
0.162904
0.156943
0.153436
0.150529
0.145181
0.144697
0.146021
0.150718
0.159991
0.179604
0.207042
0.243247
0.26944
0.276528
0.275152
0.273367
0.265896
0.24715
0.204311
0.152875
0.0942755
0.0573918
0.0354276
0.0227183
0.0155466
0.0117871
0.00973087
0.0090344
0.00925259
0.0100719
0.0114679
0.0126334
0.0128546
0.0131195
0.0165579
0.0205247
0.0207669
0.0180433
0.0144452
0.0130914
0.0130755
0.0137969
0.0140206
0.0137277
0.0125332
0.0114553
0.0103016
0.00911155
0.00818151
0.00764469
0.00745364
0.00743976
0.00747251
0.00748056
0.00747378
0.00746539
0.00745147
0.0074079
0.00728323
0.00691248
0.0058236
0.00455708
0.00338463
0.00240593
0.00164836
0.00109526
0.000709505
0.00044993
0.000280209
0.000171961
0.000104366
6.28879e-05
3.77772e-05
2.27156e-05
1.37244e-05
8.35829e-06
5.14277e-06
3.20099e-06
2.01605e-06
1.28413e-06
8.26278e-07
5.36351e-07
3.50714e-07
2.30704e-07
1.52493e-07
1.01187e-07
6.73508e-08
4.49427e-08
3.00499e-08
2.01299e-08
1.34997e-08
9.07353e-09
6.09382e-09
4.11757e-09
2.75806e-09
1.89353e-09
1.24548e-09
9.05562e-10
5.59216e-10
4.78233e-10
2.86646e-10
3.02766e-10
2.64779e-10
4.51975e-10
6.05285e-10
1.31144e-09
3.13533e-09
8.15508e-09
2.75857e-08
7.54145e-08
2.95526e-07
7.68955e-07
2.54799e-06
5.99452e-06
1.56656e-05
3.15939e-05
6.78482e-05
0.000120044
0.000190624
0.000322067
0.000420907
0.00053304
0.000617905
0.000709345
0.000731385
0.000791856
0.000818425
0.000872522
0.000884993
0.000920692
0.000941524
0.000996097
0.00101303
0.00106139
0.00107714
0.00112387
0.00114871
0.00121862
0.00124503
0.00133353
0.00136688
0.00147895
0.00152179
0.00168519
0.00171511
0.00181816
0.00188252
0.00215531
0.00216667
0.00239119
0.00242655
0.00259058
0.00261298
0.00292427
0.00280957
0.00287009
0.00280267
0.00293636
0.00272832
0.00261426
0.00227271
0.00220634
0.00185407
0.00166694
0.00136459
0.00137021
0.00132998
0.0012297
0.00123305
0.00115127
0.0012671
0.00114066
0.00129626
0.00132171
0.00141357
0.00151802
0.00168816
0.00202193
0.00320903
0.00616389
0.0134766
0.0775406
0.905196
2.501
2.03038
1.69748
1.46912
1.30993
1.19763
1.11117
1.04561
0.989311
0.930739
0.854094
0.766563
0.663003
0.553383
0.465659
0.391468
0.336036
0.290091
0.262419
0.23825
0.21935
0.2202
0.229827
0.246729
0.271863
0.292025
0.317419
0.322151
0.317353
0.307736
0.290404
0.268658
0.24423
0.194793
0.134837
0.0791795
0.0466829
0.0281416
0.0175113
0.0113072
0.00827343
0.00699939
0.00685045
0.00709248
0.00756589
0.00833293
0.00967451
0.0109688
0.0129835
0.0137064
0.0134892
0.0138438
0.0180381
0.0208279
0.0206679
0.0171183
0.0137262
0.0128773
0.0133462
0.0145418
0.0147114
0.0142514
0.0121431
0.0102303
0.00894052
0.00817918
0.00785283
0.00779511
0.00790468
0.00816643
0.00822844
0.00818748
0.00792436
0.00755621
0.00716352
0.00658084
0.00574849
0.00476625
0.00376108
0.00283661
0.00205618
0.00144034
0.000979172
0.000648366
0.000419694
0.000266562
0.000166685
0.000102976
6.30783e-05
3.84461e-05
2.33973e-05
1.42658e-05
8.74113e-06
5.39553e-06
3.36058e-06
2.11382e-06
1.34283e-06
8.61076e-07
5.56837e-07
3.62741e-07
2.37767e-07
1.5665e-07
1.03641e-07
6.88047e-08
4.58072e-08
3.05652e-08
2.04388e-08
1.36837e-08
9.1863e-09
6.15853e-09
4.16253e-09
2.77776e-09
1.91939e-09
1.24739e-09
9.33108e-10
5.66002e-10
5.02041e-10
3.34111e-10
3.79148e-10
4.08124e-10
5.42105e-10
1.24017e-09
1.872e-09
7.15517e-09
1.46134e-08
4.38108e-08
1.44241e-07
3.65109e-07
1.30392e-06
2.74461e-06
9.14215e-06
1.58611e-05
3.99812e-05
5.63222e-05
0.000100912
0.000113845
0.000149953
0.000157146
0.000175325
0.000182918
0.000200796
0.000206186
0.000219259
0.000230322
0.000254285
0.000268961
0.000303667
0.000313056
0.000337154
0.000356232
0.000378044
0.000414169
0.0004638
0.000475967
0.00050936
0.00052907
0.000584605
0.000600442
0.000655515
0.000696452
0.000710163
0.000764684
0.00091526
0.000905074
0.000997496
0.001102
0.00118823
0.00127092
0.00153977
0.00163554
0.00171981
0.00197418
0.00221806
0.00264525
0.00276467
0.00315339
0.00330007
0.00394184
0.00396644
0.00428911
0.00403139
0.00398437
0.00352364
0.00319386
0.00235303
0.00215839
0.00175584
0.00166845
0.00164942
0.00158684
0.00181637
0.00180647
0.00221082
0.00320379
0.00330184
0.00376865
0.00708969
0.0132942
0.0768766
0.41719
2.05242
1.78183
1.56439
1.39956
1.27835
1.18034
1.10273
1.0393
0.98656
0.945734
0.90558
0.867351
0.832246
0.79462
0.748132
0.706842
0.665214
0.6248
0.587613
0.550421
0.521213
0.489623
0.461842
0.442545
0.423682
0.398302
0.37594
0.348225
0.316757
0.279503
0.213699
0.158788
0.0977788
0.0596251
0.0360726
0.021596
0.0133001
0.00898112
0.00673461
0.00541797
0.00514536
0.00533629
0.00606501
0.00694261
0.00779653
0.00885067
0.0111752
0.0124015
0.0150516
0.0178362
0.0178555
0.0166058
0.0166795
0.020312
0.0219314
0.0212282
0.0166848
0.013553
0.0129546
0.0138104
0.014868
0.0148303
0.0133504
0.0105713
0.00884921
0.00800513
0.00772402
0.00771362
0.00800701
0.00848595
0.00865018
0.00862972
0.00833656
0.00741275
0.00652209
0.00568934
0.00484588
0.00398707
0.0031542
0.00239925
0.00175943
0.00124861
0.00086089
0.000578811
0.000380763
0.000245849
0.000156284
9.81055e-05
6.10018e-05
3.7697e-05
2.32289e-05
1.43177e-05
8.85219e-06
5.50213e-06
3.4436e-06
2.17228e-06
1.38163e-06
8.85858e-07
5.72268e-07
3.72186e-07
2.43485e-07
1.60089e-07
1.05702e-07
7.0038e-08
4.65454e-08
3.10075e-08
2.07048e-08
1.38428e-08
9.28468e-09
6.21414e-09
4.20509e-09
2.7918e-09
1.9553e-09
1.24175e-09
9.99833e-10
5.89038e-10
6.38149e-10
5.82321e-10
1.28921e-09
1.99327e-09
7.28626e-09
1.78073e-08
5.5543e-08
1.49689e-07
3.61281e-07
8.48465e-07
1.86411e-06
3.29941e-06
9.30529e-06
1.13539e-05
2.93136e-05
3.19271e-05
4.99146e-05
6.16922e-05
5.80552e-05
8.73891e-05
8.29186e-05
0.000129901
0.00012365
0.000209271
0.000209511
0.000336892
0.00032424
0.000473436
0.000453838
0.000600884
0.000596604
0.00079695
0.000781509
0.00102513
0.000998299
0.0012086
0.00119548
0.00143918
0.00139308
0.00166884
0.00162414
0.00186049
0.00178655
0.0020459
0.0019901
0.00212278
0.00210996
0.00230376
0.00211756
0.00223602
0.00218455
0.00220218
0.00211527
0.00220071
0.00212831
0.00213486
0.00214444
0.00223254
0.00226601
0.0023616
0.0024896
0.00273529
0.0033302
0.00353874
0.00420443
0.0044208
0.00575892
0.00559788
0.00619243
0.00532335
0.00471311
0.00336779
0.00284588
0.0024171
0.00235211
0.00254906
0.00262894
0.00300168
0.00434016
0.00459153
0.0192562
0.0168927
0.0585341
0.204785
1.35298
1.2343
1.11254
1.01586
0.940222
0.881739
0.834458
0.790269
0.754892
0.736486
0.721389
0.703903
0.691087
0.678201
0.656762
0.639881
0.621251
0.598582
0.569206
0.548892
0.526526
0.49807
0.459472
0.420428
0.382134
0.336293
0.288095
0.227753
0.168533
0.107997
0.0664683
0.0402079
0.0243771
0.0151479
0.00953559
0.0064207
0.00480398
0.00452478
0.00464196
0.00474917
0.00502232
0.00609582
0.00842285
0.00954238
0.011538
0.014148
0.0159415
0.0176458
0.0204399
0.0237161
0.0244173
0.0230701
0.0198249
0.019557
0.0221374
0.0236404
0.0230286
0.0185273
0.0149234
0.0140387
0.0141558
0.0141996
0.0136762
0.0112166
0.00904904
0.00795333
0.00760456
0.00759658
0.00785137
0.00816237
0.00831922
0.00835834
0.00834002
0.00822148
0.00780818
0.00662
0.00536606
0.00424182
0.00326819
0.00245081
0.00178664
0.00126617
0.000873359
0.000587552
0.000386554
0.000249466
0.000158446
9.93864e-05
6.17841e-05
3.81982e-05
2.35649e-05
1.45491e-05
9.01242e-06
5.61233e-06
3.51843e-06
2.22227e-06
1.41443e-06
9.06997e-07
5.85671e-07
3.80568e-07
2.48668e-07
1.63266e-07
1.07636e-07
7.12112e-08
4.72543e-08
3.14359e-08
2.09627e-08
1.39992e-08
9.379e-09
6.27197e-09
4.24238e-09
2.81472e-09
1.98181e-09
1.25819e-09
1.05402e-09
6.74458e-10
8.525e-10
1.00726e-09
3.02855e-09
5.62708e-09
3.09548e-08
6.57434e-08
3.20043e-07
6.66253e-07
2.39353e-06
4.39719e-06
1.33668e-05
1.9415e-05
5.54791e-05
6.60767e-05
0.000163564
0.000170469
0.000325072
0.000334915
0.000529347
0.00057806
0.000899275
0.000991519
0.00146224
0.00148088
0.00181018
0.00178815
0.0020313
0.00201139
0.00242677
0.00238503
0.00282107
0.00278849
0.0031033
0.00304459
0.00352695
0.00341497
0.00399582
0.00391936
0.00449965
0.00438654
0.00515587
0.00498066
0.00589431
0.00578239
0.00685854
0.00654492
0.00754062
0.00733855
0.00845972
0.00825872
0.00968783
0.00894873
0.00993848
0.0097591
0.0110726
0.00995526
0.0105476
0.01002
0.010343
0.00911921
0.00854823
0.00798397
0.00719551
0.00534945
0.00512734
0.00502962
0.00527391
0.00566632
0.00608604
0.00754314
0.00785672
0.00986448
0.00774469
0.00609497
0.00470025
0.00345543
0.00683148
0.00550301
0.0248857
0.0145656
0.068775
0.0439497
0.0508437
0.114733
0.599855
0.564627
0.523359
0.482474
0.446133
0.426254
0.420638
0.407499
0.386198
0.377642
0.376817
0.376254
0.376052
0.375511
0.371405
0.363029
0.355106
0.346182
0.328819
0.305341
0.286885
0.268691
0.233053
0.191923
0.149998
0.113445
0.0829159
0.0583406
0.0399058
0.0266455
0.0168326
0.0103402
0.00643594
0.00452013
0.00345086
0.00322727
0.00335919
0.00406617
0.00534844
0.0064419
0.0081618
0.0131814
0.0178802
0.0203298
0.0227856
0.0272756
0.0303734
0.0306234
0.0302207
0.0321554
0.0351882
0.0351715
0.030887
0.0239811
0.0220366
0.022685
0.0246682
0.0246504
0.0221581
0.0175533
0.0156527
0.0149519
0.0136122
0.0113996
0.0095237
0.00834434
0.00788865
0.00785774
0.00798777
0.00803637
0.00797275
0.00770304
0.00759572
0.00761772
0.00776753
0.00780397
0.00772337
0.00723208
0.005611
0.00406688
0.00286912
0.00197285
0.00132228
0.000864105
0.000551322
0.000344282
0.000211157
0.000127736
7.6574e-05
4.57098e-05
2.72962e-05
1.63723e-05
9.89529e-06
6.03987e-06
3.7275e-06
2.32654e-06
1.46794e-06
9.35425e-07
6.01307e-07
3.89435e-07
2.53817e-07
1.66307e-07
1.09451e-07
7.23022e-08
4.79114e-08
3.18342e-08
2.12021e-08
1.41469e-08
9.46535e-09
6.33017e-09
4.27189e-09
2.84589e-09
1.99114e-09
1.29377e-09
1.06581e-09
7.44902e-10
9.01639e-10
1.20872e-09
3.32054e-09
6.46424e-09
3.68536e-08
6.58898e-08
4.51642e-07
6.57597e-07
3.69e-06
4.76603e-06
1.82813e-05
2.16273e-05
4.77208e-05
5.32627e-05
8.79582e-05
9.68234e-05
0.000179108
0.000206453
0.000379903
0.000396494
0.000511766
0.000524772
0.000558607
0.000688532
0.000786128
0.000829608
0.000996825
0.00100603
0.00101671
0.0010999
0.00117642
0.0013653
0.00142016
0.00143934
0.00155027
0.00166596
0.00168985
0.00180037
0.00188228
0.00198964
0.00208388
0.00226057
0.00228734
0.00242243
0.00259758
0.00294721
0.00296489
0.00322814
0.00363701
0.00401332
0.00414929
0.00504611
0.0053237
0.00618228
0.00643087
0.00771346
0.00794847
0.0100177
0.00994832
0.0112814
0.0114863
0.013825
0.012766
0.0123726
0.0120456
0.0118865
0.0114027
0.00923236
0.00929576
0.00928867
0.0111093
0.0122735
0.0181383
0.0158766
0.0280107
0.0190445
0.0440956
0.0245212
0.0501812
0.031562
0.0445113
0.0487546
0.0508777
0.0754346
0.155711
0.150127
0.144548
0.138325
0.126748
0.119969
0.120266
0.12281
0.120989
0.11859
0.118765
0.120155
0.124191
0.126368
0.12624
0.124806
0.120457
0.11636
0.108418
0.0963761
0.0869515
0.0782482
0.0662756
0.051893
0.0389913
0.0284612
0.0200294
0.0137974
0.0095102
0.00646967
0.00435138
0.00312911
0.00256487
0.00254235
0.0026406
0.00302291
0.00415032
0.00807587
0.0124024
0.0152885
0.0205933
0.0327915
0.0403449
0.0455676
0.0499736
0.0538794
0.0540031
0.0533547
0.0513905
0.0444584
0.0417508
0.0436654
0.0449968
0.0409441
0.0293973
0.0250248
0.0246264
0.0260588
0.0265306
0.0253336
0.0202279
0.0163421
0.0139017
0.0121887
0.010896
0.00976537
0.00888998
0.00848409
0.00838328
0.00829965
0.00804615
0.00774875
0.00750921
0.00731296
0.00719266
0.00714269
0.00710698
0.0070217
0.00678734
0.00587879
0.00435226
0.00304758
0.00204083
0.00131777
0.000825986
0.000505245
0.000302953
0.000178822
0.000104352
6.04766e-05
3.49757e-05
2.02841e-05
1.18506e-05
7.00154e-06
4.19463e-06
2.55178e-06
1.57642e-06
9.87997e-07
6.27163e-07
4.02447e-07
2.60557e-07
1.69912e-07
1.1144e-07
7.34305e-08
4.85639e-08
3.22204e-08
2.14297e-08
1.42873e-08
9.5463e-09
6.38595e-09
4.30305e-09
2.87689e-09
2.02166e-09
1.34906e-09
1.15554e-09
1.07488e-09
1.62162e-09
3.28992e-09
1.22788e-08
3.61523e-08
1.75284e-07
4.3674e-07
2.38835e-06
3.58088e-06
1.6946e-05
1.89457e-05
4.57439e-05
5.00496e-05
7.82141e-05
8.51568e-05
0.000244401
0.000279738
0.000666453
0.00076351
0.00103508
0.00101925
0.00108966
0.00111055
0.00116068
0.00115953
0.00127827
0.00142124
0.00187703
0.00182737
0.00188676
0.00194831
0.00206881
0.00212859
0.00249588
0.00253224
0.00291934
0.0029059
0.00302227
0.00300317
0.00348135
0.00349835
0.00386102
0.00380332
0.0041457
0.00404411
0.00466368
0.00457886
0.00500658
0.00490811
0.0057454
0.00567504
0.00684035
0.00667
0.00807007
0.00793142
0.0110236
0.0104047
0.0148567
0.0144708
0.0228932
0.0211796
0.0368175
0.0340934
0.0628129
0.0523943
0.105829
0.0870858
0.172975
0.127284
0.253096
0.181448
0.33131
0.225672
0.326517
0.214143
0.254151
0.164637
0.177752
0.108996
0.106232
0.0641609
0.0600515
0.0583706
0.0552125
0.0631463
0.0220958
0.0219343
0.0217312
0.0214582
0.0202305
0.0193691
0.0195026
0.0206608
0.0206653
0.020746
0.0213322
0.0217712
0.0222565
0.0237638
0.0239537
0.0237684
0.0231194
0.0220145
0.0200574
0.0175404
0.0152996
0.013939
0.0119613
0.0092832
0.00698912
0.00512857
0.00362203
0.00257925
0.00201892
0.00171211
0.00174927
0.00187814
0.00222558
0.00285766
0.00402854
0.0063075
0.0120565
0.0233816
0.0328115
0.0398634
0.0549467
0.0741174
0.0877867
0.0951025
0.0962265
0.094947
0.0920289
0.0847639
0.0806141
0.0742808
0.0614959
0.05376
0.0504416
0.0477586
0.0410371
0.0326708
0.0305741
0.0314037
0.0318827
0.0297506
0.0218608
0.016245
0.0135128
0.0126377
0.0123675
0.0120782
0.0113075
0.00990916
0.00899679
0.00846491
0.00805733
0.00773705
0.00758193
0.00755902
0.00755794
0.00751642
0.00734416
0.00686652
0.00610778
0.00509135
0.00396438
0.00290261
0.00201535
0.00133909
0.000858196
0.000533897
0.000324152
0.000192999
0.000113221
6.57643e-05
3.80155e-05
2.1983e-05
1.27796e-05
7.50122e-06
4.46023e-06
2.6919e-06
1.65011e-06
1.0268e-06
6.47713e-07
4.13439e-07
2.66518e-07
1.73198e-07
1.13282e-07
7.44832e-08
4.91719e-08
3.25814e-08
2.16384e-08
1.44224e-08
9.61349e-09
6.45286e-09
4.31176e-09
2.95236e-09
2.00829e-09
1.53038e-09
1.32269e-09
1.73579e-09
3.42565e-09
1.07678e-08
3.82487e-08
1.5479e-07
5.25387e-07
1.69199e-06
4.48204e-06
9.54332e-06
2.16217e-05
2.70137e-05
4.65315e-05
6.16089e-05
0.000145449
0.000183701
0.000439435
0.000478188
0.000460307
0.000576898
0.000577095
0.000626768
0.000750651
0.000872474
0.000870784
0.000956317
0.0011667
0.00134716
0.00131934
0.00147373
0.00161652
0.00172677
0.00177248
0.00198996
0.00263259
0.00262708
0.00268399
0.00305233
0.00313437
0.00335732
0.00409728
0.00406766
0.00419527
0.00475726
0.00504701
0.00522435
0.00590085
0.00609355
0.00630726
0.00663864
0.00752548
0.00774053
0.00831593
0.00895129
0.00986679
0.0103725
0.0118096
0.0125236
0.0140806
0.0148296
0.0173355
0.0187458
0.0217848
0.0239151
0.0302059
0.0340674
0.0429212
0.0492959
0.0637109
0.0785647
0.0953079
0.12136
0.134638
0.167039
0.174342
0.19937
0.198911
0.195563
0.190106
0.165748
0.162531
0.131964
0.121498
0.0993678
0.0738192
0.0691594
0.00160161
0.0016493
0.00167687
0.00166001
0.00164121
0.00160192
0.00160933
0.00179448
0.00185486
0.00186967
0.00190368
0.00187966
0.0018951
0.00210806
0.00224898
0.00226612
0.0021626
0.00195566
0.00183995
0.0016827
0.0014966
0.00138112
0.00128393
0.00110796
0.00100425
0.000863712
0.000832196
0.000865016
0.000995676
0.00124292
0.00167952
0.00279451
0.00520378
0.00784931
0.0124103
0.0195705
0.0378601
0.059347
0.0803474
0.102225
0.131811
0.158479
0.179059
0.182292
0.179112
0.170013
0.156066
0.131343
0.117284
0.110946
0.0963185
0.0730698
0.0610191
0.0585157
0.0572422
0.0507167
0.039627
0.034617
0.0330835
0.0305526
0.0236278
0.0180444
0.0148653
0.0135904
0.0135429
0.0138907
0.0138373
0.0129875
0.0108583
0.0093986
0.0087483
0.00863018
0.00865541
0.0086573
0.00861336
0.00850015
0.00825561
0.00762341
0.0066299
0.00539604
0.00410052
0.00292425
0.00197405
0.00127382
0.000793957
0.00048261
0.000288343
0.000170374
0.00010002
5.85561e-05
3.4302e-05
2.01703e-05
1.19409e-05
7.13517e-06
4.31169e-06
2.63795e-06
1.63452e-06
1.02522e-06
6.50269e-07
4.16507e-07
2.69014e-07
1.74972e-07
1.14462e-07
7.52412e-08
4.96457e-08
3.28795e-08
2.18151e-08
1.45431e-08
9.66796e-09
6.52066e-09
4.30301e-09
3.03715e-09
1.95348e-09
1.67477e-09
1.3802e-09
1.97271e-09
3.75235e-09
1.24372e-08
3.64755e-08
1.40947e-07
3.5639e-07
1.29543e-06
1.9429e-06
6.03225e-06
7.08134e-06
1.43517e-05
3.31875e-05
6.98656e-05
0.000171397
0.000211059
0.000190376
0.000319709
0.000311041
0.000384164
0.000388133
0.000467009
0.000528166
0.000635283
0.000885668
0.000935733
0.00105111
0.00121862
0.00115948
0.00125414
0.00132702
0.00146397
0.001736
0.00190485
0.00193722
0.0023123
0.00227245
0.00239574
0.00250293
0.00295313
0.00307576
0.00359564
0.00359581
0.00383945
0.00398918
0.00469897
0.00499813
0.0055366
0.00555241
0.00594144
0.00696128
0.00714812
0.00788093
0.00830455
0.00919683
0.00963287
0.0117921
0.0120452
0.0140602
0.0144307
0.0189081
0.0188029
0.023954
0.0240981
0.0333557
0.0335258
0.0449279
0.0457613
0.0608447
0.0665191
0.0863447
0.0993747
0.110779
0.135679
0.14464
0.169713
0.179966
0.185926
0.185107
0.175608
0.17262
0.164628
0.156098
0.145506
0.12958
0.093193
0.000144967
0.00014732
0.000149088
0.00015423
0.000160283
0.000160043
0.000157492
0.000164872
0.000172883
0.000175933
0.000176162
0.000179985
0.000202306
0.00020902
0.000211105
0.000212957
0.000212019
0.000222207
0.000249007
0.000257223
0.000263107
0.000276924
0.000336552
0.000399035
0.000465812
0.000565015
0.000723079
0.00110576
0.00185152
0.00287322
0.00474701
0.0100422
0.0170486
0.0240287
0.0367946
0.0594265
0.09503
0.136795
0.190631
0.235847
0.278663
0.317405
0.328633
0.324563
0.310733
0.273652
0.242871
0.210602
0.166589
0.13881
0.123491
0.104652
0.0864904
0.0731077
0.0664331
0.0585283
0.0471102
0.0380123
0.033261
0.0300677
0.0266101
0.0231763
0.0199698
0.0172923
0.0163743
0.0164767
0.016266
0.014174
0.0121002
0.0109067
0.0100169
0.00957619
0.00957257
0.0101109
0.0104626
0.0102968
0.00877038
0.00653064
0.00490728
0.00366807
0.0026791
0.00189471
0.00129678
0.000861994
0.000558466
0.000353806
0.000219906
0.000134563
8.14043e-05
4.89111e-05
2.93253e-05
1.7622e-05
1.06527e-05
6.49605e-06
4.00238e-06
2.49283e-06
1.56902e-06
9.97131e-07
6.391e-07
4.12635e-07
2.68071e-07
1.75068e-07
1.14831e-07
7.56086e-08
4.99323e-08
3.30848e-08
2.19487e-08
1.46372e-08
9.71595e-09
6.57087e-09
4.30431e-09
3.08469e-09
1.92426e-09
1.73232e-09
1.35776e-09
1.95338e-09
3.49088e-09
1.08089e-08
2.8919e-08
9.64781e-08
2.18987e-07
6.85492e-07
8.33217e-07
2.11402e-06
2.27993e-06
4.90165e-06
1.2345e-05
5.38579e-05
5.27622e-05
0.000136771
0.000106762
0.000163582
0.000206056
0.000257641
0.000247773
0.000288984
0.000355235
0.000538895
0.000525161
0.000689857
0.000617807
0.000857926
0.000804403
0.000911258
0.00105676
0.00140701
0.00132432
0.0015552
0.0014053
0.00172576
0.00170998
0.00192903
0.00201549
0.00248784
0.00217901
0.0026327
0.00255003
0.00283987
0.00285639
0.0035586
0.00315172
0.00374289
0.00363408
0.0044151
0.00417777
0.00512961
0.00462786
0.00570585
0.00554626
0.00681015
0.00615557
0.00805703
0.0073364
0.00980357
0.00895657
0.0123997
0.010928
0.0160822
0.0145543
0.0215746
0.0186676
0.0279367
0.0248563
0.0384125
0.0345588
0.0523288
0.0459606
0.0721
0.0680213
0.103358
0.103094
0.138807
0.140921
0.160119
0.163553
0.165691
0.164307
0.159824
0.155204
0.134645
8.19869e-05
8.27429e-05
8.50253e-05
8.88246e-05
9.77393e-05
9.83486e-05
9.72234e-05
9.5035e-05
9.45085e-05
9.43098e-05
0.000101497
0.000108082
0.000112912
0.000121639
0.000129103
0.000131532
0.00013241
0.000136829
0.00017658
0.000232252
0.000274027
0.000320872
0.00040878
0.000586323
0.000940903
0.00141019
0.00222266
0.00434157
0.00709263
0.0102836
0.0162788
0.0331252
0.0467812
0.0638768
0.0985094
0.151611
0.218214
0.315623
0.409042
0.464419
0.502948
0.502509
0.495318
0.477314
0.444577
0.402774
0.355256
0.299798
0.242609
0.190191
0.153299
0.132489
0.10709
0.0826674
0.0719147
0.0667438
0.0553848
0.0431367
0.0350676
0.0319379
0.0304186
0.0272895
0.0240156
0.0216203
0.0195921
0.0173826
0.0150091
0.0130511
0.0121477
0.0120826
0.0128014
0.0137899
0.0139628
0.0137074
0.0120439
0.00977522
0.00822083
0.00743404
0.00694682
0.00627133
0.00530398
0.00416795
0.00304318
0.00207314
0.00132751
0.000806937
0.00047087
0.000266771
0.000148297
8.16559e-05
4.49124e-05
2.48618e-05
1.39414e-05
7.95961e-06
4.64176e-06
2.76784e-06
1.68606e-06
1.04681e-06
6.60385e-07
4.2199e-07
2.72373e-07
1.77172e-07
1.15932e-07
7.62201e-08
5.0289e-08
3.32981e-08
2.20805e-08
1.47167e-08
9.76768e-09
6.59795e-09
4.3258e-09
3.08269e-09
1.9288e-09
1.69615e-09
1.2758e-09
1.73807e-09
2.92391e-09
8.32155e-09
2.14772e-08
6.67815e-08
1.49444e-07
4.14904e-07
4.87292e-07
9.204e-07
8.25742e-07
1.36856e-06
2.7734e-06
1.97846e-05
1.42116e-05
6.18657e-05
4.53887e-05
7.73423e-05
9.1343e-05
0.000143064
0.000132201
0.000165696
0.000163896
0.000306314
0.000265501
0.000419477
0.000341223
0.000485183
0.000441113
0.000536906
0.000512436
0.000789072
0.000614034
0.000901472
0.000779593
0.000980057
0.000980366
0.00125963
0.00111553
0.00150793
0.0012873
0.00160314
0.0016556
0.00193019
0.00173845
0.0022305
0.00200513
0.00238735
0.00236462
0.00287532
0.00251062
0.00314048
0.00295457
0.00361121
0.00332508
0.00423092
0.00379424
0.00484721
0.00438424
0.00575554
0.00507415
0.00692259
0.00603707
0.00867387
0.00749658
0.0110172
0.00935157
0.0145844
0.0126223
0.0205747
0.0176759
0.0268391
0.0243674
0.0394361
0.038648
0.061468
0.0619343
0.0861111
0.0873937
0.112283
0.1204
0.143084
0.155617
0.155876
0.156836
0.153272
8.73413e-05
8.95318e-05
8.95731e-05
9.02386e-05
9.78378e-05
0.000124482
0.000131333
0.000128699
0.000117528
0.000114847
0.000116923
0.000149453
0.000196966
0.000207907
0.000206193
0.000209413
0.000220972
0.00028966
0.000494403
0.000661312
0.00084497
0.00112581
0.00173321
0.00294765
0.00419378
0.00583648
0.00954623
0.0172085
0.0243155
0.0321617
0.0525826
0.0861347
0.112616
0.161252
0.233327
0.357174
0.492506
0.587508
0.609294
0.601841
0.585113
0.562458
0.543053
0.517146
0.48577
0.46456
0.423294
0.363744
0.305211
0.24106
0.192095
0.160861
0.127782
0.0998228
0.0849433
0.0754347
0.0649713
0.0525508
0.0418117
0.0353165
0.0318196
0.0310695
0.0305371
0.0267694
0.0215804
0.0180905
0.0153874
0.014373
0.0144868
0.0145811
0.0138519
0.0121246
0.0113482
0.0111423
0.0109939
0.0107279
0.0103074
0.00963005
0.00861257
0.00737235
0.0060643
0.00480954
0.00366642
0.00266153
0.00182273
0.00117368
0.000713325
0.000412872
0.000230144
0.000124986
6.68662e-05
3.56086e-05
1.90602e-05
1.03449e-05
5.73405e-06
3.26136e-06
1.90697e-06
1.1452e-06
7.0422e-07
4.41647e-07
2.81306e-07
1.81314e-07
1.17909e-07
7.71956e-08
5.07926e-08
3.35637e-08
2.22337e-08
1.47944e-08
9.82806e-09
6.60766e-09
4.36678e-09
3.04041e-09
1.96636e-09
1.5849e-09
1.15529e-09
1.38335e-09
2.11988e-09
4.93506e-09
1.25221e-08
3.57445e-08
8.33888e-08
2.17682e-07
2.82499e-07
5.78059e-07
4.63041e-07
6.33285e-07
8.79784e-07
2.79362e-06
3.89492e-06
1.85e-05
1.91234e-05
2.67988e-05
3.90519e-05
4.7677e-05
4.69285e-05
6.05141e-05
6.63694e-05
9.53041e-05
0.000100103
0.000174343
0.00018311
0.000208225
0.0002221
0.000286945
0.000297553
0.000386405
0.000371838
0.000479063
0.000521005
0.000604213
0.000617145
0.000787463
0.000767916
0.000943641
0.000948452
0.00109345
0.00116292
0.0013965
0.00135896
0.0016001
0.00159958
0.00182266
0.00180658
0.00207267
0.00205799
0.00233033
0.00233361
0.00259202
0.00257861
0.00296076
0.00295345
0.00330955
0.00329324
0.00385588
0.00384201
0.00453052
0.00439205
0.0053686
0.00514123
0.00649108
0.00625729
0.00870552
0.00801223
0.0110551
0.0106184
0.0153202
0.0151052
0.0235729
0.0234755
0.0356541
0.0361052
0.0478373
0.0502417
0.0694384
0.0780111
0.0997738
0.119024
0.134046
0.145119
0.148018
0.000288828
0.000298579
0.000291661
0.000263544
0.000272949
0.000439765
0.00054032
0.000525041
0.000456742
0.000432462
0.000494356
0.000842405
0.00102654
0.00109764
0.00118137
0.00138228
0.00157239
0.0019331
0.00305924
0.00395679
0.00479848
0.00640695
0.0101521
0.0142177
0.0178293
0.0227684
0.0378774
0.0559909
0.0701172
0.0886968
0.140366
0.192137
0.252383
0.359157
0.544492
0.660037
0.694582
0.68451
0.657785
0.617666
0.579985
0.554451
0.536102
0.51613
0.492183
0.4685
0.439916
0.398863
0.346013
0.285142
0.227861
0.182717
0.149173
0.120348
0.0961
0.0811319
0.0719696
0.0611176
0.0500615
0.0419731
0.0374205
0.03447
0.0309174
0.0263598
0.0222322
0.0191426
0.0173632
0.016448
0.0156067
0.0144371
0.0133314
0.0129312
0.0129759
0.0130186
0.0127148
0.0106853
0.00784021
0.0058263
0.00441153
0.0033929
0.0026258
0.0020104
0.00149167
0.00105521
0.000706621
0.000448834
0.000272768
0.000160578
9.28236e-05
5.33667e-05
3.08427e-05
1.80549e-05
1.07499e-05
6.51679e-06
4.01765e-06
2.51295e-06
1.59038e-06
1.01593e-06
6.53774e-07
4.23209e-07
2.75295e-07
1.79822e-07
1.17885e-07
7.75339e-08
5.1143e-08
3.38295e-08
2.24275e-08
1.49117e-08
9.92529e-09
6.63883e-09
4.43442e-09
3.00152e-09
2.03969e-09
1.43969e-09
1.12456e-09
1.05658e-09
1.39957e-09
2.37752e-09
5.73394e-09
1.24755e-08
3.20233e-08
5.60303e-08
8.0032e-08
1.81121e-07
2.35036e-07
5.79172e-07
2.65801e-06
2.63874e-06
1.59552e-05
1.28677e-05
2.86286e-05
3.8805e-05
6.95414e-05
6.50331e-05
7.74883e-05
7.81847e-05
0.00010229
0.000102646
0.000171817
0.000158906
0.000212111
0.000220451
0.00028265
0.000276446
0.000323871
0.000332956