/*--------------------------------*- C++ -*----------------------------------*\
| =========                 |                                                 |
| \\      /  F ield         | OpenFOAM: The Open Source CFD Toolbox           |
|  \\    /   O peration     | Version:  2.4.0                                 |
|   \\  /    A nd           | Web:      www.OpenFOAM.org                      |
|    \\/     M anipulation  |                                                 |
\*---------------------------------------------------------------------------*/
FoamFile
{
    version     2.0;
    format      ascii;
    class       volScalarField;
    location    "0.04";
    object      k_0;
}
// * * * * * * * * * * * * * * * * * * * * * * * * * * * * * * * * * * * * * //

dimensions      [0 2 -2 0 0 0 0];

internalField   nonuniform List<scalar> 
8800
(
8.12215
10.288
8.74129
6.865
5.68594
4.96718
4.54609
4.13594
3.90131
3.69408
3.51846
3.38646
3.30347
3.17726
3.11454
3.00089
2.9556
2.81394
2.78645
2.53156
1.40053
4.38214
5.29019
5.27899
5.12774
4.79851
4.60351
4.28095
4.09555
3.92824
3.73598
3.5929
3.52895
3.37623
3.32327
3.22691
3.19097
3.08804
3.02376
2.97536
0.0841035
0.755728
1.57103
1.89286
2.29133
2.44362
2.54881
2.61963
2.62366
2.60252
2.58564
2.53937
2.51975
2.46552
2.45229
2.40834
2.39806
2.36808
2.35471
2.31326
0.00329388
0.0727418
0.282831
0.37848
0.576789
0.731767
0.798312
0.944305
1.05072
1.08181
1.15923
1.21627
1.24719
1.28778
1.34085
1.35751
1.37596
1.41616
1.45384
1.45419
0.000116754
0.00524908
0.0313476
0.045493
0.079183
0.133656
0.154686
0.20511
0.263457
0.280358
0.317362
0.363656
0.381724
0.416717
0.461961
0.494007
0.511883
0.557782
0.587328
0.628932
2.52756e-05
0.000342407
0.00256135
0.00354867
0.00626503
0.0139589
0.0171578
0.0257379
0.0403653
0.0444242
0.0536056
0.0667655
0.0716665
0.0809291
0.0983392
0.110049
0.116266
0.132112
0.141049
0.159779
2.20057e-05
4.77526e-05
0.000227144
0.000267779
0.000408494
0.000964619
0.00121386
0.00198973
0.00393016
0.00438365
0.00558476
0.00705049
0.00754992
0.00865309
0.0120539
0.01419
0.0152376
0.0178837
0.0192564
0.0222907
2.11477e-05
3.00776e-05
7.01912e-05
7.55309e-05
8.00255e-05
0.00010939
0.000128311
0.000186327
0.000351782
0.000381343
0.000467868
0.000530229
0.000533219
0.000585677
0.000871071
0.00105802
0.00114052
0.00135012
0.00142131
0.0015622
2.07321e-05
2.74984e-05
5.34534e-05
6.59571e-05
6.489e-05
6.55956e-05
6.68274e-05
7.34453e-05
9.65647e-05
0.000101024
0.000105323
0.000105844
0.000102176
0.000102144
0.000112652
0.000123335
0.000127406
0.000136828
0.000138924
0.000144225
2.0595e-05
2.64689e-05
4.69376e-05
6.28803e-05
6.24693e-05
6.10085e-05
6.0515e-05
6.3698e-05
7.51116e-05
7.9305e-05
7.96083e-05
7.87378e-05
7.53587e-05
7.40139e-05
7.46042e-05
7.81909e-05
8.05674e-05
8.11624e-05
8.10783e-05
8.15627e-05
2.06339e-05
2.63194e-05
4.2763e-05
6.35199e-05
6.48221e-05
6.33791e-05
6.21204e-05
6.38217e-05
7.23649e-05
7.80253e-05
7.83145e-05
7.69002e-05
7.46851e-05
7.38385e-05
7.40735e-05
7.78736e-05
8.23248e-05
8.33706e-05
8.38136e-05
8.62851e-05
2.08237e-05
2.68428e-05
4.06352e-05
7.01417e-05
7.41557e-05
7.29149e-05
7.30043e-05
7.43022e-05
7.812e-05
9.3535e-05
9.47954e-05
9.41845e-05
9.76431e-05
0.00010832
0.000115046
0.000141673
0.00017182
0.000186063
0.000201227
0.000248383
2.11538e-05
2.82662e-05
4.92442e-05
0.00011184
0.000120564
0.000122487
0.000148765
0.000168921
0.000193112
0.000335957
0.000379906
0.000405403
0.000522932
0.000775963
0.000895102
0.00129756
0.00164571
0.00197791
0.00225204
0.00292738
2.17145e-05
4.16345e-05
0.000187028
0.000616459
0.00069437
0.000819458
0.00147778
0.00191966
0.00236298
0.00438013
0.00521516
0.00578734
0.00757966
0.0105583
0.0118688
0.0158485
0.018293
0.0224554
0.025121
0.0323154
2.54071e-05
0.000300329
0.00222965
0.00658577
0.00810308
0.0109444
0.0204094
0.0254871
0.0301611
0.0471647
0.054596
0.0596291
0.0734665
0.0901424
0.0967369
0.116254
0.127279
0.149543
0.162245
0.200772
0.000122663
0.00489136
0.028892
0.0637918
0.0820861
0.11398
0.176867
0.201143
0.226367
0.299135
0.322531
0.341817
0.393905
0.441233
0.458685
0.510312
0.538487
0.597645
0.628219
0.710939
0.0032952
0.0689304
0.275331
0.432412
0.561291
0.697488
0.860084
0.914207
0.997376
1.1201
1.15503
1.18753
1.27769
1.31745
1.33358
1.3858
1.41221
1.4678
1.48938
1.54887
0.0829987
0.721931
1.58754
1.94001
2.26861
2.43397
2.5917
2.59034
2.61015
2.60517
2.58721
2.52887
2.52664
2.48459
2.46081
2.42298
2.41588
2.39366
2.37226
2.35556
1.38227
4.36974
5.32103
5.28579
5.1332
4.79836
4.5801
4.27914
4.12589
3.8643
3.7769
3.58668
3.51493
3.36484
3.32903
3.19432
3.16204
3.03777
2.99127
2.87497
8.0946
10.2859
8.78977
6.81911
5.71446
4.96293
4.52169
4.13034
3.93316
3.63817
3.54538
3.3642
3.29463
3.12411
3.09502
2.92469
2.87299
2.66558
2.60552
2.34412
1.74919
1.37618
1.15724
1.0405
0.948984
0.871696
0.799612
0.707373
0.587283
0.443641
0.325339
0.250385
0.20683
0.186792
0.17658
0.170711
0.167764
0.163184
0.156942
0.153513
0.150238
0.145273
0.145048
0.146455
0.151581
0.161099
0.181502
0.208633
0.244146
0.269846
0.277397
0.27641
0.274504
0.266117
0.245439
0.20143
0.150973
0.0932357
0.0569517
0.0353123
0.0227769
0.0156189
0.0117857
0.00966942
0.00903864
0.00931821
0.0102033
0.0115388
0.0124721
0.0126902
0.0132232
0.0177584
0.0206486
0.0204006
0.0169087
0.0138881
0.0129622
0.01315
0.0139177
0.014038
0.0135634
0.0123125
0.011263
0.0101012
0.00894282
0.0080782
0.0076078
0.00746127
0.00746102
0.00749655
0.0074999
0.00749182
0.00748297
0.00746575
0.00741138
0.00726284
0.00678203
0.00559957
0.00434046
0.00319616
0.00225542
0.00153564
0.001015
0.000654548
0.000413438
0.00025661
0.000157046
9.51221e-05
5.72475e-05
3.43757e-05
2.06792e-05
1.25086e-05
7.63124e-06
4.70548e-06
2.93562e-06
1.85318e-06
1.18292e-06
7.62591e-07
4.95807e-07
3.24632e-07
2.13777e-07
1.41426e-07
9.39079e-08
6.25403e-08
4.17512e-08
2.79263e-08
1.87128e-08
1.25528e-08
8.4386e-09
5.66901e-09
3.83037e-09
2.56713e-09
1.761e-09
1.16021e-09
8.40545e-10
5.20922e-10
4.42836e-10
2.62276e-10
2.74039e-10
2.34763e-10
3.97166e-10
5.12772e-10
1.11533e-09
2.58269e-09
6.67541e-09
2.21233e-08
6.08134e-08
2.39444e-07
6.29291e-07
2.13521e-06
5.0914e-06
1.35521e-05
2.78223e-05
6.0835e-05
0.000108391
0.000176592
0.000304233
0.000399765
0.000518928
0.000607923
0.00070143
0.000724735
0.000790379
0.00081763
0.000871338
0.000883935
0.000921021
0.000941994
0.000995877
0.00101271
0.00106228
0.00107887
0.00112574
0.00114903
0.001217
0.00124356
0.00133362
0.0013667
0.00147331
0.00151938
0.00168707
0.00171132
0.00181704
0.00187806
0.00214037
0.00216076
0.0023999
0.00242804
0.00256661
0.00260708
0.00293272
0.00280579
0.00286219
0.00280119
0.00293976
0.00272089
0.00260323
0.00228039
0.00221652
0.00184946
0.00166209
0.00136744
0.00137239
0.00133051
0.00123232
0.00123184
0.00115188
0.0012721
0.0011446
0.00129555
0.00132721
0.00142753
0.00151402
0.0016731
0.00202418
0.00325369
0.00627391
0.0137196
0.0779643
0.90607
2.50079
2.03026
1.69743
1.46908
1.31019
1.19794
1.11119
1.04581
0.989293
0.929727
0.852585
0.764616
0.659479
0.550149
0.463611
0.389786
0.33458
0.288265
0.260838
0.23557
0.218192
0.219807
0.230768
0.247173
0.272107
0.29245
0.317931
0.322083
0.317097
0.307038
0.290389
0.270106
0.245031
0.194112
0.132908
0.0778849
0.0459786
0.0277797
0.0172202
0.0111946
0.00830756
0.0071319
0.00692419
0.00713178
0.00754716
0.00841602
0.00970393
0.0110538
0.0128584
0.0133398
0.0132043
0.0141825
0.0189907
0.0208729
0.0201932
0.0160386
0.0133034
0.012818
0.0135943
0.0146602
0.014729
0.0140059
0.0117307
0.00995784
0.00877799
0.00810833
0.00784576
0.00781619
0.00797309
0.00821092
0.0082495
0.00818811
0.00787942
0.00751132
0.00709065
0.00645933
0.00558725
0.00459054
0.00359136
0.00268777
0.00193516
0.00134751
0.000911168
0.000600478
0.000387109
0.000245015
0.000152776
9.41779e-05
5.76031e-05
3.50807e-05
2.13471e-05
1.30232e-05
7.98887e-06
4.939e-06
3.08194e-06
1.94234e-06
1.23627e-06
7.94151e-07
5.14365e-07
3.35524e-07
2.20174e-07
1.45193e-07
9.61332e-08
6.38595e-08
4.25362e-08
2.83944e-08
1.89935e-08
1.27202e-08
8.54105e-09
5.72794e-09
3.87103e-09
2.58516e-09
1.78404e-09
1.16184e-09
8.64992e-10
5.25472e-10
4.63522e-10
3.03354e-10
3.41595e-10
3.55689e-10
4.74991e-10
1.04518e-09
1.58122e-09
6.09256e-09
1.18455e-08
3.65479e-08
1.18773e-07
3.05969e-07
1.08883e-06
2.34269e-06
7.92638e-06
1.39884e-05
3.63052e-05
5.22122e-05
9.62794e-05
0.000110227
0.00014857
0.000155817
0.000174895
0.000182786
0.000201063
0.000206333
0.000219587
0.000230185
0.000252925
0.000267758
0.000302846
0.000312331
0.000337256
0.000354642
0.00037689
0.000413558
0.000461353
0.000473644
0.000508966
0.000529239
0.000583508
0.0005993
0.00065678
0.000692232
0.000708014
0.000771659
0.000906138
0.000898825
0.00100487
0.00110229
0.0011764
0.00126684
0.00154824
0.00162987
0.00171088
0.00196732
0.00221901
0.00265088
0.00275988
0.00311948
0.00329208
0.00397045
0.00396996
0.00425731
0.00401693
0.00399767
0.00353641
0.00319708
0.00235076
0.00215084
0.00175461
0.00167836
0.00165705
0.00157714
0.00181223
0.00181213
0.00223396
0.00321983
0.00332858
0.0037983
0.00722476
0.0133992
0.0770978
0.41747
2.05196
1.7812
1.56398
1.39952
1.27873
1.18054
1.10293
1.03979
0.987808
0.946578
0.905559
0.867551
0.832437
0.793942
0.747018
0.706235
0.664372
0.624623
0.586279
0.547969
0.518327
0.486983
0.461324
0.442833
0.422932
0.397377
0.375117
0.347394
0.315782
0.275873
0.211779
0.159178
0.0985271
0.0598839
0.0360115
0.0214247
0.0132671
0.00894385
0.00660492
0.00529055
0.00513151
0.00545401
0.00613943
0.00694488
0.00771503
0.00893964
0.0111513
0.0123463
0.0153014
0.0174392
0.0172045
0.0161343
0.0168993
0.0209259
0.021869
0.0205515
0.0156826
0.0132246
0.0129467
0.014116
0.0149511
0.0147818
0.0128392
0.0101863
0.00864221
0.00792906
0.00772252
0.0077438
0.00812552
0.00855741
0.0086756
0.0086319
0.00823593
0.00726991
0.0063933
0.00555706
0.00470535
0.00384395
0.00301849
0.00227971
0.00166087
0.00117176
0.000803695
0.000537864
0.000352394
0.000226738
0.000143714
9.00025e-05
5.58675e-05
3.44884e-05
2.12437e-05
1.30972e-05
8.10375e-06
5.04279e-06
3.16065e-06
1.99695e-06
1.27216e-06
8.16931e-07
5.28487e-07
3.44143e-07
2.25381e-07
1.48321e-07
9.80064e-08
6.49804e-08
4.32071e-08
2.87964e-08
1.92353e-08
1.28648e-08
8.63038e-09
5.77868e-09
3.90923e-09
2.59826e-09
1.81513e-09
1.1569e-09
9.21277e-10
5.41374e-10
5.73024e-10
5.05888e-10
1.08405e-09
1.61782e-09
6.03065e-09
1.4362e-08
4.6161e-08
1.25344e-07
3.08804e-07
7.4308e-07
1.61456e-06
2.96151e-06
8.16296e-06
1.02151e-05
2.71874e-05
2.97115e-05
4.89427e-05
5.88657e-05
5.66553e-05
8.54384e-05
8.03793e-05
0.00012425
0.000118127
0.000199756
0.000199537
0.000322948
0.000311746
0.000460912
0.000440847
0.000586739
0.000582498
0.000776262
0.000762137
0.00100574
0.000978941
0.00119065
0.00117812
0.00141571
0.00137229
0.00164898
0.0016035
0.00183846
0.00176969
0.00202745
0.00196504
0.00210588
0.00209825
0.00228004
0.00210156
0.00223578
0.00217329
0.00218024
0.00210726
0.00219633
0.00212043
0.00212735
0.00214131
0.00222489
0.00225894
0.00235363
0.00248839
0.0027256
0.00331416
0.00352726
0.00420837
0.00442212
0.00575049
0.00558834
0.00618188
0.00530215
0.00469723
0.00339899
0.00285042
0.0024103
0.002365
0.00257939
0.00265058
0.00300646
0.00431352
0.00457536
0.0193184
0.0169274
0.0586513
0.204978
1.35312
1.23402
1.11187
1.01597
0.941215
0.882821
0.834061
0.789207
0.756202
0.738837
0.722345
0.704825
0.692166
0.677995
0.656803
0.640855
0.621251
0.597522
0.569541
0.550871
0.527138
0.496279
0.456789
0.419265
0.381725
0.337144
0.288212
0.226315
0.166398
0.106068
0.0650745
0.0396202
0.0242932
0.0151891
0.00955409
0.00642699
0.0048934
0.00458778
0.00457736
0.00465018
0.0049456
0.00631123
0.00824377
0.00924896
0.0115379
0.0139046
0.0155975
0.0175822
0.0207159
0.0235167
0.0237803
0.0218613
0.0193146
0.0195786
0.0226953
0.0236291
0.0224905
0.0174993
0.0145518
0.0140001
0.014192
0.0141946
0.0134153
0.0107312
0.00878038
0.00784973
0.00759708
0.00762894
0.0079426
0.0082218
0.0083515
0.00837579
0.00834708
0.0081998
0.00768114
0.00641967
0.00518092
0.00407443
0.00312227
0.00232815
0.0016875
0.00118922
0.000815958
0.000546284
0.000357862
0.000230098
0.000145702
9.11794e-05
5.659e-05
3.49546e-05
2.1558e-05
1.33141e-05
8.25376e-06
5.14576e-06
3.23037e-06
2.04337e-06
1.3025e-06
8.36416e-07
5.40803e-07
3.51824e-07
2.30121e-07
1.51221e-07
9.97706e-08
6.60492e-08
4.38525e-08
2.91863e-08
1.947e-08
1.30071e-08
8.71613e-09
5.83121e-09
3.94285e-09
2.61887e-09
1.83794e-09
1.17069e-09
9.66966e-10
6.09679e-10
7.46988e-10
8.52328e-10
2.43723e-09
4.45523e-09
2.46281e-08
5.22303e-08
2.61893e-07
5.48745e-07
2.02219e-06
3.78538e-06
1.1588e-05
1.72254e-05
4.96796e-05
6.00365e-05
0.000151483
0.00015901
0.000310991
0.000319213
0.000508605
0.00055259
0.000860241
0.000952374
0.00142025
0.00144819
0.0018009
0.00177737
0.00201447
0.0019959
0.00240229
0.00235908
0.00280628
0.0027745
0.0030935
0.00303476
0.00350156
0.00339471
0.00398045
0.00389728
0.0044754
0.00436381
0.00512535
0.0049478
0.00584945
0.00574518
0.00681404
0.00651582
0.00752749
0.00728713
0.00839262
0.00821766
0.00964973
0.00889816
0.00991152
0.00972034
0.010955
0.00991823
0.0105827
0.00999681
0.0102466
0.00905844
0.00857414
0.00801961
0.00708392
0.00530703
0.00514782
0.00505185
0.00527476
0.00563196
0.00605253
0.0075069
0.0079127
0.00996913
0.0077188
0.00603085
0.00468708
0.00347432
0.00681457
0.005493
0.0249232
0.0146322
0.0689465
0.0439861
0.0508092
0.114606
0.600215
0.565525
0.522882
0.480722
0.446487
0.430073
0.423178
0.404617
0.384574
0.378786
0.378666
0.37805
0.377522
0.376236
0.37065
0.362897
0.355757
0.346403
0.327964
0.305998
0.289786
0.269254
0.23047
0.189658
0.148863
0.112928
0.0826523
0.0581908
0.0397942
0.0263284
0.016433
0.0100909
0.00636497
0.0045115
0.00343319
0.00326583
0.00343173
0.00420356
0.00520503
0.00617921
0.00848978
0.0133344
0.0172817
0.0193521
0.0223898
0.0270034
0.029485
0.0295272
0.0295272
0.0326965
0.0349084
0.0344606
0.0288387
0.0230112
0.0218079
0.0230437
0.0247699
0.0245452
0.0212395
0.0170234
0.0154795
0.0147956
0.0132498
0.0110356
0.0092652
0.00822202
0.00787445
0.00788083
0.00803065
0.00805782
0.00795744
0.00768647
0.00760782
0.00765181
0.00780309
0.0078202
0.00770884
0.00705253
0.00533313
0.00384782
0.00269984
0.00184629
0.00123062
0.000799877
0.000507785
0.000315696
0.000192923
0.000116391
6.96543e-05
4.15506e-05
2.48184e-05
1.49016e-05
9.02123e-06
5.51755e-06
3.41268e-06
2.13474e-06
1.34972e-06
8.61688e-07
5.54803e-07
3.59811e-07
2.34779e-07
1.53981e-07
1.0142e-07
6.70418e-08
4.44507e-08
2.95489e-08
1.9688e-08
1.31414e-08
8.7948e-09
5.88389e-09
3.96978e-09
2.64647e-09
1.84632e-09
1.20114e-09
9.7715e-10
6.68699e-10
7.89965e-10
1.02741e-09
2.66305e-09
5.18158e-09
2.89828e-08
5.28347e-08
3.65136e-07
5.3895e-07
3.12179e-06
4.06996e-06
1.63347e-05
1.93824e-05
4.48909e-05
5.07075e-05
8.50266e-05
9.19697e-05
0.000166043
0.000192708
0.000363502
0.000383188
0.000508849
0.000516718
0.000548956
0.000675468
0.000764754
0.000821969
0.000996047
0.000997002
0.00100803
0.00109253
0.00116579
0.00134883
0.00140257
0.00143224
0.00155966
0.00165338
0.00167391
0.00178998
0.00187073
0.00198206
0.0020836
0.00224666
0.00226968
0.00240864
0.00259326
0.00292494
0.00294292
0.00323356
0.00359368
0.00397598
0.00413447
0.00505591
0.00527838
0.00613509
0.00641753
0.00769661
0.00790369
0.00996265
0.00989564
0.0112386
0.0114614
0.0137856
0.0126595
0.0123114
0.0120998
0.0119581
0.0113565
0.00908875
0.00925663
0.00930056
0.0111574
0.012264
0.01801
0.0157941
0.0279029
0.0190894
0.0438997
0.0244323
0.0502898
0.0316044
0.0447617
0.0488873
0.0508761
0.0753143
0.155981
0.150617
0.145189
0.137456
0.125754
0.120924
0.122052
0.123605
0.120154
0.118324
0.118854
0.121214
0.125208
0.126733
0.126419
0.12463
0.120417
0.116323
0.107569
0.0962256
0.0880089
0.0789853
0.0658359
0.0510682
0.0384124
0.0280993
0.0198593
0.0137985
0.00954598
0.00643162
0.00427867
0.00307967
0.00252328
0.00250885
0.00261838
0.00304282
0.0043775
0.00835223
0.0116967
0.01437
0.0215742
0.0328955
0.0390185
0.044049
0.0487431
0.052367
0.0524284
0.0517618
0.0491641
0.0427881
0.0414457
0.0440621
0.0445872
0.0383464
0.0279039
0.0246888
0.0246627
0.0264018
0.0265941
0.024727
0.019303
0.0157574
0.0135141
0.0119321
0.0107058
0.00960946
0.00880537
0.00847129
0.00839028
0.00829465
0.00801177
0.00772386
0.0074891
0.00730141
0.00719315
0.00714986
0.00710987
0.00700797
0.00672068
0.00562709
0.00411009
0.00285093
0.00189418
0.00121505
0.000757392
0.000461131
0.000275437
0.000162087
9.43826e-05
5.46332e-05
3.15902e-05
1.83357e-05
1.07308e-05
6.35545e-06
3.81864e-06
2.33022e-06
1.44387e-06
9.07407e-07
5.77376e-07
3.71233e-07
2.40736e-07
1.57189e-07
1.03201e-07
6.80575e-08
4.50404e-08
2.98988e-08
1.98947e-08
1.32689e-08
8.86842e-09
5.93436e-09
3.99765e-09
2.67373e-09
1.87175e-09
1.24599e-09
1.05148e-09
9.30604e-10
1.35488e-09
2.64699e-09
9.58944e-09
2.83606e-08
1.38122e-07
3.53695e-07
1.93256e-06
3.02908e-06
1.49221e-05
1.68467e-05
4.37089e-05
4.77766e-05
7.47001e-05
8.05692e-05
0.000219435
0.000249327
0.000630456
0.000733055
0.00102424
0.0010119
0.0010947
0.00111733
0.00116689
0.00115812
0.00125626
0.00139945
0.00186026
0.00181461
0.00189787
0.0019644
0.00207444
0.00211117
0.00244096
0.00251572
0.00295194
0.0029146
0.00301689
0.00299373
0.00345617
0.00348664
0.00387663
0.0038136
0.00413946
0.00403871
0.00465963
0.00457163
0.00501681
0.00492322
0.0057173
0.00564
0.00686385
0.00668575
0.00804834
0.00789877
0.0110038
0.010391
0.0148888
0.0144329
0.0227812
0.0211567
0.0370107
0.0340692
0.0623332
0.052301
0.10666
0.0872867
0.172062
0.12684
0.253745
0.182344
0.331756
0.225142
0.325479
0.213785
0.255288
0.165967
0.178505
0.109138
0.106277
0.0640853
0.0601918
0.0585688
0.0551676
0.062907
0.0221715
0.0220491
0.0218451
0.0214212
0.0200303
0.0195028
0.0199104
0.020807
0.0206549
0.0207248
0.0214118
0.021811
0.0225679
0.0239836
0.0240485
0.0238149
0.0230593
0.0218484
0.0198032
0.0174066
0.015487
0.0142036
0.0119219
0.00913399
0.00686733
0.00502404
0.0035501
0.00257289
0.0020466
0.00173003
0.00176339
0.00188969
0.00220778
0.00280481
0.0039769
0.00634422
0.0132555
0.0233737
0.0309734
0.038239
0.0557862
0.0737178
0.0853217
0.0915928
0.0930096
0.0919445
0.0891739
0.0824134
0.0786906
0.0713527
0.059142
0.0525853
0.0496913
0.0468759
0.0394636
0.0320346
0.0307216
0.0316344
0.0317885
0.0286354
0.0205831
0.0155416
0.0132332
0.0125815
0.0123574
0.0120616
0.0111415
0.00975896
0.00891213
0.00841179
0.00801631
0.00771973
0.00759308
0.00758004
0.00757553
0.00751835
0.0072998
0.00676013
0.00595229
0.00489998
0.00377078
0.00273208
0.00187991
0.00123967
0.00078941
0.000488453
0.000295221
0.000175132
0.000102459
5.94104e-05
3.43194e-05
1.98534e-05
1.15575e-05
6.79883e-06
4.05384e-06
2.45416e-06
1.50904e-06
9.41748e-07
5.95592e-07
3.81001e-07
2.46049e-07
1.60128e-07
1.04855e-07
6.90057e-08
4.55898e-08
3.02255e-08
2.00843e-08
1.33911e-08
8.92995e-09
5.99392e-09
4.00611e-09
2.73826e-09
1.85808e-09
1.40024e-09
1.16283e-09
1.47552e-09
2.7625e-09
8.36936e-09
2.96834e-08
1.21748e-07
4.22175e-07
1.40497e-06
3.82322e-06
8.49665e-06
1.96159e-05
2.52599e-05
4.46394e-05
5.76706e-05
0.000127587
0.000165483
0.000422399
0.000457463
0.000466388
0.000581439
0.000566169
0.000619437
0.000748203
0.000860132
0.00085745
0.000959044
0.00115452
0.00132047
0.00130836
0.0014954
0.00160874
0.00170639
0.00175917
0.00198166
0.0025857
0.00260074
0.0027135
0.00305897
0.00312172
0.00332479
0.00405062
0.0040464
0.00424467
0.00477645
0.00499653
0.005202
0.00593818
0.00609577
0.00628609
0.00663663
0.00754137
0.0077268
0.00830673
0.00894116
0.00987977
0.0103719
0.0117739
0.0125083
0.0141119
0.0148443
0.0173189
0.0187436
0.0217734
0.0238924
0.030169
0.0340861
0.0427374
0.0491129
0.0638884
0.0788932
0.0950028
0.121207
0.134084
0.16659
0.174662
0.199858
0.199401
0.196055
0.190457
0.165924
0.162658
0.131872
0.121328
0.0993026
0.0734969
0.0687306
0.0016163
0.00166062
0.00167869
0.00165484
0.00163605
0.00160973
0.00164924
0.00184519
0.00186225
0.00187101
0.00189051
0.0018686
0.00194168
0.00218525
0.002274
0.00226972
0.00210291
0.00192919
0.00182775
0.00166824
0.00150161
0.00140885
0.00129329
0.00110951
0.000991656
0.000840684
0.000821253
0.000863384
0.00101758
0.00126185
0.00170365
0.00295753
0.00509739
0.00766889
0.0122361
0.0203361
0.0398103
0.0587903
0.077309
0.100034
0.13052
0.155876
0.174339
0.176284
0.172891
0.164217
0.149498
0.126447
0.115285
0.108818
0.0911812
0.0696813
0.0602379
0.0586492
0.0570667
0.0486972
0.0383294
0.0341483
0.0326867
0.0296823
0.0225601
0.0174192
0.01457
0.0135624
0.013633
0.0139729
0.0138526
0.0127178
0.0106037
0.0092655
0.00872685
0.0086557
0.00868566
0.00868173
0.00862689
0.00849767
0.00819507
0.00747692
0.00642985
0.00516719
0.0038786
0.00273569
0.00182945
0.00117155
0.000726013
0.000439473
0.00026182
0.000154419
9.05596e-05
5.29999e-05
3.10575e-05
1.82803e-05
1.08389e-05
6.4898e-06
3.93097e-06
2.41109e-06
1.49771e-06
9.41621e-07
5.98501e-07
3.84044e-07
2.48427e-07
1.61787e-07
1.05947e-07
6.97028e-08
4.60241e-08
3.04979e-08
2.02459e-08
1.35007e-08
8.98039e-09
6.05409e-09
3.9997e-09
2.81165e-09
1.80886e-09
1.52673e-09
1.20492e-09
1.66455e-09
3.04304e-09
9.84148e-09
2.89549e-08
1.13959e-07
2.96971e-07
1.08469e-06
1.72378e-06
5.52883e-06
6.37363e-06
1.32149e-05
2.8679e-05
6.15201e-05
0.00015711
0.000198787
0.000196141
0.00031935
0.000297336
0.000381293
0.00039117
0.000467401
0.000512173
0.000611708
0.000861727
0.000923237
0.00106799
0.00120574
0.00114897
0.00126159
0.0013253
0.00145034
0.00169988
0.0018733
0.00195019
0.00232342
0.00226332
0.00238927
0.00248271
0.00291199
0.00307715
0.00361253
0.00358688
0.00383264
0.00394906
0.00466213
0.00502403
0.00553013
0.0055528
0.00594652
0.00688348
0.00712104
0.00794741
0.00833926
0.00912738
0.00960001
0.0118186
0.012041
0.0140154
0.0144184
0.018918
0.0187791
0.0239003
0.0241033
0.0334101
0.0334783
0.0447832
0.0456493
0.0609123
0.0667703
0.0863921
0.0989258
0.110176
0.135397
0.144833
0.170628
0.18007
0.186075
0.185094
0.175582
0.172611
0.164506
0.156461
0.145386
0.129129
0.0923239
0.00014536
0.000147517
0.000149125
0.000156402
0.000160502
0.000159241
0.000157649
0.000168027
0.000174207
0.000176339
0.000176242
0.000185959
0.000205226
0.000208597
0.000209868
0.00021074
0.000211112
0.000228717
0.000249301
0.000253718
0.000258848
0.00028065
0.00034644
0.000402108
0.000465395
0.000560967
0.000720269
0.0011459
0.00183409
0.00288037
0.00489218
0.0105178
0.0166857
0.0236844
0.0373246
0.0609721
0.0964407
0.136144
0.187141
0.231172
0.272798
0.310253
0.319071
0.314521
0.299693
0.262718
0.235943
0.201978
0.159376
0.135448
0.120615
0.101713
0.0840979
0.0714394
0.0651359
0.0567906
0.0454628
0.0370308
0.0326629
0.0295315
0.0261576
0.022783
0.0195753
0.0170846
0.0164106
0.0165254
0.016121
0.013735
0.0118757
0.010755
0.00992542
0.00957651
0.00963258
0.0102524
0.0104956
0.010213
0.00837163
0.0062213
0.00467084
0.0034773
0.00252437
0.00177369
0.00120691
0.000798152
0.000514753
0.000324798
0.000201171
0.000122753
7.41137e-05
4.44847e-05
2.66688e-05
1.60378e-05
9.70908e-06
5.93191e-06
3.66262e-06
2.28614e-06
1.44187e-06
9.17998e-07
5.89317e-07
3.81006e-07
2.47805e-07
1.61985e-07
1.06335e-07
7.00613e-08
4.62959e-08
3.06895e-08
2.03698e-08
1.3587e-08
9.02491e-09
6.09924e-09
4.00181e-09
2.85353e-09
1.78335e-09
1.57718e-09
1.18743e-09
1.65621e-09
2.85462e-09
8.69646e-09
2.33405e-08
7.96474e-08
1.87647e-07
5.92382e-07
7.64148e-07
2.01187e-06
2.06642e-06
4.22292e-06
1.05497e-05
4.45143e-05
4.89305e-05
0.00013555
0.000101287
0.000160507
0.000200402
0.000252213
0.000245294
0.000288224
0.000346634
0.000510466
0.000515805
0.000692895
0.000614249
0.000856722
0.000798322
0.000904819
0.00103839
0.0013768
0.00132457
0.00155739
0.00140278
0.00173799
0.00169172
0.00190143
0.00202074
0.00249091
0.0021709
0.00264602
0.00253998
0.00281211
0.00286539
0.00355892
0.00313699
0.00375838
0.00362201
0.00438583
0.00419224
0.00513425
0.00461689
0.00570014
0.0055264
0.00678343
0.00615962
0.008066
0.00732402
0.00977204
0.00895599
0.0123868
0.0109074
0.0160782
0.0145873
0.0214729
0.0185484
0.0279591
0.024958
0.0385996
0.0345446
0.0519126
0.045788
0.0721768
0.0682766
0.104014
0.103246
0.138836
0.140824
0.159948
0.163428
0.16537
0.164078
0.15979
0.155131
0.134615
8.18142e-05
8.2609e-05
8.53879e-05
9.09246e-05
9.83264e-05
9.81318e-05
9.6091e-05
9.38917e-05
9.41719e-05
9.48476e-05
0.000104621
0.000109217
0.000114261
0.00012186
0.000127696
0.000129157
0.0001297
0.000139979
0.000190169
0.000235462
0.000268686
0.000316964
0.000402331
0.000604716
0.000944043
0.00141118
0.0023068
0.00448233
0.00695468
0.0101584
0.0176673
0.0335821
0.0456965
0.0638176
0.100637
0.152019
0.220084
0.314023
0.403658
0.457201
0.498086
0.498001
0.490516
0.471284
0.437002
0.394207
0.345726
0.289117
0.232745
0.182625
0.149058
0.128873
0.102642
0.0799453
0.071006
0.0655996
0.0535867
0.0417561
0.0343468
0.0317701
0.0301663
0.0269113
0.023686
0.0213344
0.0192635
0.0170013
0.0146409
0.0128383
0.0121214
0.0121362
0.0130414
0.013888
0.013977
0.0135908
0.0116243
0.00946174
0.00803858
0.00735454
0.00686989
0.00614436
0.00512985
0.00397521
0.00286262
0.00192518
0.00121888
0.000733994
0.000425213
0.000239663
0.000132797
7.3015e-05
4.01669e-05
2.2272e-05
1.25259e-05
7.17929e-06
4.2051e-06
2.51862e-06
1.54057e-06
9.59892e-07
6.07323e-07
3.88979e-07
2.51514e-07
1.63827e-07
1.07312e-07
7.06104e-08
4.66188e-08
3.08837e-08
2.049e-08
1.36598e-08
9.07203e-09
6.12444e-09
4.02125e-09
2.8531e-09
1.78812e-09
1.54775e-09
1.12272e-09
1.48626e-09
2.41146e-09
6.74015e-09
1.74085e-08
5.55155e-08
1.2888e-07
3.63462e-07
4.55733e-07
9.12723e-07
7.93459e-07
1.20086e-06
2.40152e-06
1.60614e-05
1.26554e-05
6.17468e-05
4.25738e-05
7.49921e-05
8.80346e-05
0.000137948
0.000130327
0.000165847
0.000160217
0.000287342
0.000259337
0.000427559
0.000336072
0.000477157
0.00043897
0.00053564
0.000504883
0.000768165
0.000611953
0.000909034
0.000775054
0.000978523
0.000961677
0.00124545
0.00112747
0.00150817
0.00127799
0.00160028
0.00163714
0.00191644
0.00174767
0.00223493
0.00199068
0.00238866
0.00236983
0.00285597
0.00250495
0.00315413
0.00295332
0.00357915
0.00333111
0.00424568
0.00379281
0.00482641
0.0043831
0.00575759
0.00506714
0.00691268
0.00603678
0.00866437
0.00748108
0.0109802
0.0093487
0.0146278
0.0126494
0.0205559
0.0175698
0.0266522
0.0243598
0.0397697
0.0388905
0.0616717
0.0615705
0.0852053
0.0865462
0.111533
0.120051
0.143388
0.155804
0.156097
0.157442
0.153887
8.68428e-05
8.80615e-05
8.87235e-05
8.94972e-05
0.000106099
0.000126889
0.000130285
0.000123166
0.000114341
0.000113665
0.000121838
0.000164196
0.000197643
0.000200081
0.000196263
0.000199935
0.000216891
0.00032788
0.000507935
0.000651177
0.000828158
0.00111616
0.0018199
0.00295098
0.0041057
0.00581157
0.0102282
0.0173484
0.0237576
0.0320477
0.0561646
0.0862184
0.111805
0.162653
0.235675
0.358665
0.491538
0.584691
0.606264
0.599788
0.585272
0.562699
0.542935
0.515302
0.485223
0.462639
0.415814
0.355053
0.296031
0.232833
0.186877
0.155821
0.123106
0.0972893
0.0836278
0.0740672
0.0634315
0.0510466
0.0408655
0.0347655
0.0316734
0.0311347
0.0304096
0.0259117
0.0209823
0.0175885
0.0150995
0.0143654
0.0145533
0.0145838
0.0136036
0.0119607
0.0112967
0.011119
0.0109569
0.0106734
0.0102235
0.00948562
0.00841655
0.00714861
0.00583811
0.00459663
0.00347395
0.00249525
0.00168878
0.00107478
0.000646448
0.000371
0.000205498
0.000111135
5.93322e-05
3.15944e-05
1.6943e-05
9.22856e-06
5.14017e-06
2.93993e-06
1.72881e-06
1.04366e-06
6.44664e-07
4.05757e-07
2.59166e-07
1.67394e-07
1.09027e-07
7.14635e-08
4.7063e-08
3.112e-08
2.06269e-08
1.37302e-08
9.12606e-09
6.13456e-09
4.05746e-09
2.81809e-09
1.82264e-09
1.45351e-09
1.02897e-09
1.20418e-09
1.77692e-09
4.02585e-09
1.01775e-08
2.96969e-08
7.15484e-08
1.88693e-07
2.61953e-07
5.61138e-07
4.55672e-07
6.29952e-07
8.07132e-07
2.22927e-06
3.38652e-06
1.73134e-05
1.73206e-05
2.62553e-05
3.80896e-05
4.59755e-05
4.59485e-05
6.0857e-05
6.5136e-05
8.92732e-05
9.64053e-05
0.000173744
0.000176866
0.00020221
0.000223968
0.000286945
0.000290333
0.000375081
0.000366626
0.000481718
0.000519239
0.000597147
0.000607106
0.000778007
0.00076322
0.000938316
0.000947188
0.00108773
0.00115881
0.00139421
0.00134905
0.00160027
0.00158685
0.00181674
0.00180592
0.00207004
0.00205265
0.00232236
0.00233583
0.00258895
0.00257351
0.00295775
0.00295013
0.00330817
0.00328078
0.00385788
0.00383986
0.00454161
0.00438496
0.00534452
0.00514723
0.00651317
0.00626106
0.00869258
0.00799747
0.0109834
0.0106041
0.0154068
0.0151498
0.0236429
0.0234611
0.0354123
0.0356707
0.0472561
0.0502091
0.0703149
0.0790122
0.101325
0.119145
0.134162
0.145622
0.148543
0.00028358
0.000288451
0.000276158
0.000258234
0.000303849
0.000486334
0.000535152
0.000489004
0.000429536
0.000420092
0.000571675
0.000891376
0.00101486
0.00106649
0.00115075
0.00134946
0.00154162
0.00205296
0.00312601
0.00388279
0.00473335
0.00668805
0.0103526
0.0140065
0.0174423
0.0231545
0.0400023
0.0556125
0.0688333
0.0900692
0.14566
0.191798
0.252832
0.365179
0.54783
0.659485
0.693018
0.682942
0.656158
0.618084
0.584046
0.559231
0.539528
0.518191
0.4927
0.467993
0.437839
0.39432
0.339259
0.277904
0.22118
0.177414
0.145362
0.117065
0.0936141
0.0797364
0.0708098
0.0597617
0.0489577
0.0413083
0.0371323
0.0341238
0.0303148
0.0257214
0.0217511
0.0188611
0.0172608
0.0163926
0.0154991
0.0142834
0.0132504
0.0129589
0.013031
0.0130475
0.0126026
0.0101962
0.00745788
0.00554614
0.00420415
0.00323552
0.00250072
0.00190571
0.00140261
0.000982183
0.000650863
0.00040957
0.000247108
0.000144794
8.3528e-05
4.80382e-05
2.7824e-05
1.6343e-05
9.76846e-06
5.94445e-06
3.67718e-06
2.30642e-06
1.46292e-06
9.36129e-07
6.03236e-07
3.90918e-07
2.54518e-07
1.66377e-07
1.09144e-07
7.18271e-08
4.7404e-08
3.13712e-08
2.0807e-08
1.38395e-08
9.21492e-09
6.16523e-09
4.11827e-09
2.78719e-09
1.88878e-09
1.32935e-09
1.02248e-09
9.26292e-10
1.19899e-09
1.99022e-09
4.75445e-09
1.04894e-08
2.76026e-08
4.91017e-08
7.57901e-08
1.67271e-07
2.01283e-07
4.90986e-07
2.06855e-06
2.34012e-06
1.4858e-05
1.12294e-05
2.6986e-05
3.71325e-05
6.645e-05
6.30001e-05
7.8173e-05
7.78575e-05
9.80974e-05
9.99867e-05
0.000169171
0.000154123
0.000207696
0.000217652
0.000281297
0.000273758
0.000318379
0.000329