/*--------------------------------*- C++ -*----------------------------------*\
| =========                 |                                                 |
| \\      /  F ield         | OpenFOAM: The Open Source CFD Toolbox           |
|  \\    /   O peration     | Version:  2.4.0                                 |
|   \\  /    A nd           | Web:      www.OpenFOAM.org                      |
|    \\/     M anipulation  |                                                 |
\*---------------------------------------------------------------------------*/
FoamFile
{
    version     2.0;
    format      ascii;
    class       volScalarField;
    location    "0.04";
    object      nuSgs;
}
// * * * * * * * * * * * * * * * * * * * * * * * * * * * * * * * * * * * * * //

dimensions      [0 2 -1 0 0 0 0];

internalField   nonuniform List<scalar> 
8800
(
0.00133932
0.00150768
0.0013896
0.00123129
0.00112097
0.00104726
0.00100214
0.000956002
0.000928168
0.000903411
0.00088168
0.000864832
0.000854258
0.000837798
0.000829475
0.000814131
0.000807999
0.000788531
0.000784641
0.000747901
0.00055593
0.000984018
0.00108111
0.00107982
0.00106435
0.0010294
0.00100837
0.000972717
0.000950888
0.000931597
0.000908642
0.00089069
0.000882887
0.000863777
0.000856789
0.000844188
0.000839561
0.000825961
0.00081731
0.000810733
0.00013623
0.000408237
0.000589652
0.000646586
0.000711112
0.000734978
0.000750223
0.000760603
0.000761333
0.000758253
0.000755763
0.000748944
0.000746081
0.000738019
0.000736022
0.000729413
0.00072783
0.000723148
0.000721142
0.000714845
2.69601e-05
0.000126651
0.000250662
0.000289715
0.000355976
0.000402396
0.000420119
0.000455932
0.000482041
0.000489166
0.000505829
0.000518388
0.000525007
0.000533162
0.000544259
0.000547809
0.000551398
0.000559076
0.000566592
0.000566712
5.07692e-06
3.40164e-05
8.38562e-05
0.000100852
0.000131378
0.000172013
0.000184997
0.000212051
0.000241461
0.000249178
0.000264584
0.000283534
0.00029052
0.000303168
0.000319337
0.000330628
0.000336475
0.000350873
0.000359989
0.000372628
2.36305e-06
8.68341e-06
2.41454e-05
2.83505e-05
3.69436e-05
5.54406e-05
6.1611e-05
7.47132e-05
9.45332e-05
9.92506e-05
0.000108675
0.000121596
0.000125991
0.000133469
0.000147206
0.000156141
0.000160467
0.000170875
0.000176438
0.000187727
2.2046e-06
3.24242e-06
7.21922e-06
7.83296e-06
9.45313e-06
1.45319e-05
1.63502e-05
2.0616e-05
2.94142e-05
3.11896e-05
3.50936e-05
3.96417e-05
4.09851e-05
4.36926e-05
5.13306e-05
5.6097e-05
5.81501e-05
6.29351e-05
6.5263e-05
7.0093e-05
2.16128e-06
2.57266e-06
3.9561e-06
4.12618e-06
4.2232e-06
4.89481e-06
5.2937e-06
6.29666e-06
8.77515e-06
9.19486e-06
1.01879e-05
1.09194e-05
1.09309e-05
1.13807e-05
1.37475e-05
1.53101e-05
1.5908e-05
1.73068e-05
1.77576e-05
1.85695e-05
2.14016e-06
2.46132e-06
3.42227e-06
3.83788e-06
3.80582e-06
3.81771e-06
3.84206e-06
3.99844e-06
4.58877e-06
4.72227e-06
4.8342e-06
4.85397e-06
4.76998e-06
4.76125e-06
4.97298e-06
5.21806e-06
5.30427e-06
5.50018e-06
5.54387e-06
5.64874e-06
2.13331e-06
2.41629e-06
3.19959e-06
3.73975e-06
3.73269e-06
3.68578e-06
3.66171e-06
3.73381e-06
4.04848e-06
4.18262e-06
4.19661e-06
4.18036e-06
4.09269e-06
4.0476e-06
4.05916e-06
4.1469e-06
4.21637e-06
4.23551e-06
4.23469e-06
4.2495e-06
2.1355e-06
2.41095e-06
3.04991e-06
3.74915e-06
3.79816e-06
3.75804e-06
3.71237e-06
3.7482e-06
3.97298e-06
4.14781e-06
4.16222e-06
4.13192e-06
4.07016e-06
4.04285e-06
4.04573e-06
4.13454e-06
4.26114e-06
4.29417e-06
4.30643e-06
4.3739e-06
2.14543e-06
2.43576e-06
2.96849e-06
3.92972e-06
4.06171e-06
4.02859e-06
4.02795e-06
4.0552e-06
4.14196e-06
4.53223e-06
4.58491e-06
4.56885e-06
4.64268e-06
4.88556e-06
5.03057e-06
5.55747e-06
6.16869e-06
6.44293e-06
6.69755e-06
7.40159e-06
2.1623e-06
2.49876e-06
3.25997e-06
4.96022e-06
5.20241e-06
5.23909e-06
5.7495e-06
6.13993e-06
6.52812e-06
8.57117e-06
9.19888e-06
9.47763e-06
1.06514e-05
1.30602e-05
1.40204e-05
1.68397e-05
1.91062e-05
2.10243e-05
2.24155e-05
2.5402e-05
2.19036e-06
3.02922e-06
6.26479e-06
1.17178e-05
1.25453e-05
1.35692e-05
1.80555e-05
2.07267e-05
2.28512e-05
3.09346e-05
3.406e-05
3.57896e-05
4.0662e-05
4.82662e-05
5.11464e-05
5.90575e-05
6.36243e-05
7.06231e-05
7.46578e-05
8.44492e-05
2.36927e-06
8.13547e-06
2.16734e-05
3.83937e-05
4.26969e-05
4.92859e-05
6.69935e-05
7.54304e-05
8.16821e-05
0.000101623
0.000110047
0.000114832
0.000126948
0.000141175
0.000146206
0.00016015
0.0001677
0.00018197
0.000189458
0.000210521
5.21199e-06
3.28459e-05
7.90135e-05
0.000119265
0.000135397
0.000157973
0.000197728
0.000211555
0.000223563
0.000256421
0.000267314
0.000274849
0.000294346
0.000312368
0.000318453
0.000335692
0.00034492
0.00036348
0.000372569
0.000396175
2.69874e-05
0.000123326
0.00024591
0.000309735
0.000352544
0.000391854
0.000436102
0.000450003
0.000468848
0.000497307
0.000505522
0.000512079
0.00053075
0.000539686
0.000542917
0.000553211
0.000558515
0.000569485
0.000573593
0.000584862
0.000135406
0.000399145
0.000592014
0.000654949
0.000707928
0.000733074
0.000756794
0.000756599
0.000759217
0.000758525
0.000756014
0.000747336
0.000747
0.000740955
0.000737354
0.000731549
0.000730511
0.000727196
0.000723874
0.000721328
0.000552595
0.000982348
0.00108424
0.0010806
0.00106485
0.00102961
0.00100579
0.000972198
0.000954766
0.000923868
0.000913318
0.000890186
0.000881214
0.000862062
0.000857543
0.000840052
0.000835741
0.000819157
0.000812882
0.000796924
0.00133721
0.00150727
0.00139355
0.00122725
0.00112353
0.00104714
0.000999389
0.00095508
0.000932202
0.000896517
0.000884855
0.000862093
0.000853191
0.000830657
0.00082679
0.000803822
0.000796666
0.000767284
0.000758608
0.000719592
0.000340429
0.000301949
0.000276937
0.00026264
0.000250919
0.000240582
0.000230516
0.000216963
0.00019791
0.000172271
0.000147526
0.000129369
0.000117407
0.000111336
0.000108117
0.00010613
0.000105149
0.000103902
0.000101983
0.000100837
9.98777e-05
9.80874e-05
9.79238e-05
9.83708e-05
9.99405e-05
0.000102969
0.000109098
0.000117135
0.000126964
0.000133625
0.000135372
0.000135035
0.000134596
0.000132744
0.000127979
0.00011636
0.000100653
7.9042e-05
6.16713e-05
4.8454e-05
3.88013e-05
3.20979e-05
2.79487e-05
2.53942e-05
2.44686e-05
2.47622e-05
2.58353e-05
2.75677e-05
2.89346e-05
2.91868e-05
2.9486e-05
3.31254e-05
3.68805e-05
3.70974e-05
3.45794e-05
3.094e-05
2.94545e-05
2.94366e-05
3.02377e-05
3.04819e-05
3.01618e-05
2.88197e-05
2.75525e-05
2.61283e-05
2.45728e-05
2.32849e-05
2.25081e-05
2.22251e-05
2.22043e-05
2.22532e-05
2.22652e-05
2.2255e-05
2.22426e-05
2.22218e-05
2.21568e-05
2.19695e-05
2.1403e-05
1.96451e-05
1.73781e-05
1.49766e-05
1.2627e-05
1.04516e-05
8.51955e-06
6.85703e-06
5.46048e-06
4.30923e-06
3.37577e-06
2.6299e-06
2.04147e-06
1.58224e-06
1.22693e-06
9.53685e-07
7.44247e-07
5.8379e-07
4.60576e-07
3.65518e-07
2.91718e-07
2.34003e-07
1.88531e-07
1.52453e-07
1.23648e-07
1.00527e-07
8.18881e-08
6.68082e-08
5.45743e-08
4.46252e-08
3.65241e-08
2.99102e-08
2.45215e-08
2.00957e-08
1.65188e-08
1.35195e-08
1.1202e-08
9.08505e-09
7.74671e-09
6.08763e-09
5.62961e-09
4.35844e-09
4.47932e-09
4.1889e-09
5.47288e-09
6.33342e-09
9.3225e-09
1.44145e-08
2.32473e-08
4.27564e-08
7.06946e-08
1.39945e-07
2.2574e-07
4.1092e-07
6.30283e-07
1.0189e-06
1.44697e-06
2.12045e-06
2.82052e-06
3.55424e-06
4.61989e-06
5.28143e-06
5.94345e-06
6.3991e-06
6.85626e-06
6.96196e-06
7.24405e-06
7.36458e-06
7.60408e-06
7.65823e-06
7.81116e-06
7.89904e-06
8.12474e-06
8.19352e-06
8.3868e-06
8.4488e-06
8.6301e-06
8.72498e-06
8.98656e-06
9.0834e-06
9.40069e-06
9.51751e-06
9.89999e-06
1.00424e-05
1.05677e-05
1.06612e-05
1.09768e-05
1.11694e-05
1.19513e-05
1.19827e-05
1.25882e-05
1.2681e-05
1.31026e-05
1.31591e-05
1.39209e-05
1.36451e-05
1.37913e-05
1.36284e-05
1.39497e-05
1.34464e-05
1.31623e-05
1.22724e-05
1.20919e-05
1.10846e-05
1.05104e-05
9.50953e-06
9.52912e-06
9.38817e-06
9.02729e-06
9.03958e-06
8.73467e-06
9.16355e-06
8.69433e-06
9.26839e-06
9.35895e-06
9.67871e-06
1.00299e-05
1.05771e-05
1.15756e-05
1.4583e-05
2.02109e-05
2.98847e-05
7.16841e-05
0.000244923
0.000407113
0.000366815
0.000335399
0.000312023
0.000294634
0.000281721
0.000271362
0.000263235
0.00025605
0.000248355
0.000237909
0.000225389
0.000209612
0.000191501
0.000175668
0.000161067
0.000149228
0.000138652
0.000131873
0.000125654
0.000120567
0.0001208
0.000123413
0.00012787
0.000134225
0.000139113
0.000145036
0.000146113
0.000145021
0.000142806
0.000138727
0.000133431
0.000127221
0.000113618
9.45285e-05
7.24377e-05
5.56208e-05
4.3185e-05
3.40657e-05
2.73738e-05
2.34154e-05
2.15372e-05
2.13068e-05
2.16799e-05
2.23918e-05
2.34994e-05
2.53205e-05
2.69611e-05
2.93328e-05
3.01384e-05
2.98987e-05
3.02891e-05
3.45744e-05
3.7152e-05
3.70089e-05
3.36813e-05
3.01601e-05
2.92127e-05
2.97398e-05
3.10432e-05
3.12238e-05
3.07317e-05
2.83676e-05
2.60377e-05
2.43411e-05
2.32816e-05
2.28124e-05
2.27284e-05
2.28876e-05
2.32635e-05
2.33516e-05
2.32934e-05
2.29161e-05
2.23774e-05
2.17882e-05
2.08833e-05
1.9518e-05
1.77724e-05
1.57876e-05
1.37106e-05
1.16732e-05
9.76993e-06
8.05542e-06
6.55494e-06
5.27381e-06
4.20298e-06
3.32358e-06
2.61232e-06
2.04455e-06
1.59619e-06
1.24521e-06
9.72316e-07
7.61101e-07
5.97965e-07
4.71917e-07
3.74276e-07
2.98311e-07
2.3888e-07
1.92098e-07
1.55045e-07
1.25526e-07
1.01888e-07
8.28751e-08
6.75254e-08
5.50967e-08
4.50062e-08
3.68032e-08
3.01135e-08
2.46734e-08
2.02021e-08
1.66088e-08
1.35677e-08
1.12782e-08
9.092e-09
7.86366e-09
6.12446e-09
5.76804e-09
4.70548e-09
5.0126e-09
5.20061e-09
5.99377e-09
9.06566e-09
1.11381e-08
2.17755e-08
3.11196e-08
5.38827e-08
9.77693e-08
1.5555e-07
2.93957e-07
4.2648e-07
7.78364e-07
1.02524e-06
1.62774e-06
1.93196e-06
2.586e-06
2.74672e-06
3.15237e-06
3.22709e-06
3.40863e-06
3.48166e-06
3.64784e-06
3.69647e-06
3.81186e-06
3.90685e-06
4.10505e-06
4.22186e-06
4.48598e-06
4.5548e-06
4.72686e-06
4.85876e-06
5.00529e-06
5.23899e-06
5.54401e-06
5.61626e-06
5.80993e-06
5.92127e-06
6.22429e-06
6.30804e-06
6.59098e-06
6.79366e-06
6.86021e-06
7.11868e-06
7.78809e-06
7.74463e-06
8.13044e-06
8.54574e-06
8.87378e-06
9.17737e-06
1.01015e-05
1.04109e-05
1.06758e-05
1.14381e-05
1.2124e-05
1.32401e-05
1.35357e-05
1.4456e-05
1.47884e-05
1.61625e-05
1.62128e-05
1.68594e-05
1.6345e-05
1.62494e-05
1.52811e-05
1.45485e-05
1.24874e-05
1.19598e-05
1.0787e-05
1.05151e-05
1.0455e-05
1.02548e-05
1.09714e-05
1.09414e-05
1.21042e-05
1.4571e-05
1.47923e-05
1.58034e-05
2.16756e-05
2.96818e-05
7.13765e-05
0.000166274
0.000368801
0.000343631
0.000321981
0.000304547
0.000291061
0.00027968
0.000270329
0.000262439
0.000255694
0.000250347
0.000244975
0.000239748
0.000234847
0.000229477
0.000222663
0.000216431
0.000209961
0.000203483
0.000197335
0.000190988
0.000185852
0.000180131
0.000174947
0.000171253
0.000167563
0.000162467
0.00015784
0.000151911
0.000144884
0.000136098
0.000119003
0.000102581
8.04972e-05
6.28598e-05
4.88931e-05
3.78308e-05
2.96884e-05
2.43963e-05
2.11259e-05
1.89486e-05
1.84657e-05
1.88052e-05
2.00481e-05
2.14496e-05
2.27305e-05
2.42185e-05
2.72137e-05
2.86679e-05
3.15827e-05
3.43803e-05
3.43989e-05
3.31733e-05
3.32468e-05
3.66889e-05
3.81234e-05
3.75072e-05
3.32521e-05
2.99693e-05
2.93002e-05
3.02525e-05
3.13895e-05
3.13497e-05
2.97444e-05
2.6468e-05
2.42165e-05
2.30326e-05
2.26246e-05
2.26093e-05
2.30353e-05
2.37142e-05
2.39426e-05
2.39143e-05
2.35045e-05
2.2164e-05
2.07899e-05
1.94173e-05
1.79203e-05
1.62549e-05
1.44578e-05
1.26095e-05
1.0798e-05
9.09644e-06
7.55322e-06
6.19337e-06
5.02326e-06
4.03639e-06
3.21822e-06
2.54979e-06
2.01062e-06
1.58056e-06
1.24072e-06
9.7408e-07
7.65921e-07
6.03843e-07
4.7771e-07
3.79416e-07
3.02589e-07
2.42293e-07
1.94741e-07
1.5705e-07
1.27027e-07
1.03e-07
8.3695e-08
6.81279e-08
5.55389e-08
4.53306e-08
3.7042e-08
3.0288e-08
2.48052e-08
2.02931e-08
1.66934e-08
1.36019e-08
1.13832e-08
9.07142e-09
8.13996e-09
6.24785e-09
6.50309e-09
6.21212e-09
9.24315e-09
1.14932e-08
2.19741e-08
3.43525e-08
6.06699e-08
9.95986e-08
1.54732e-07
2.37124e-07
3.51475e-07
4.67602e-07
7.85278e-07
8.67422e-07
1.39378e-06
1.45458e-06
1.81875e-06
2.02196e-06
1.96146e-06
2.40651e-06
2.34414e-06
2.93403e-06
2.86257e-06
3.72402e-06
3.72616e-06
4.72502e-06
4.63545e-06
5.6013e-06
5.48415e-06
6.31036e-06
6.28784e-06
7.26731e-06
7.19657e-06
8.24227e-06
8.13371e-06
8.94953e-06
8.90082e-06
9.76599e-06
9.6083e-06
1.05164e-05
1.03746e-05
1.11038e-05
1.08809e-05
1.1644e-05
1.14841e-05
1.18607e-05
1.18249e-05
1.2356e-05
1.18461e-05
1.2173e-05
1.2032e-05
1.20805e-05
1.18397e-05
1.20765e-05
1.18762e-05
1.18944e-05
1.19211e-05
1.21635e-05
1.22543e-05
1.25101e-05
1.28447e-05
1.34636e-05
1.48557e-05
1.53138e-05
1.66921e-05
1.71163e-05
1.95357e-05
1.92606e-05
2.02577e-05
1.87824e-05
1.76731e-05
1.49393e-05
1.37331e-05
1.26563e-05
1.2485e-05
1.29972e-05
1.31992e-05
1.41039e-05
1.69594e-05
1.74436e-05
3.57226e-05
3.34586e-05
6.22821e-05
0.000116495
0.000299436
0.000286002
0.000271529
0.000259463
0.000249617
0.000241729
0.000235158
0.000228847
0.000223666
0.000220923
0.000218647
0.000215981
0.000214005
0.000212001
0.000208623
0.000205925
0.000202905
0.000199168
0.00019422
0.000190723
0.000186796
0.000181678
0.000174497
0.000166918
0.000159135
0.000149285
0.000138174
0.000122854
0.000105682
8.45986e-05
6.63691e-05
5.16195e-05
4.01929e-05
3.16836e-05
2.51381e-05
2.06276e-05
1.78426e-05
1.73164e-05
1.75392e-05
1.77406e-05
1.82436e-05
2.0099e-05
2.36259e-05
2.5147e-05
2.76518e-05
3.06201e-05
3.2503e-05
3.41963e-05
3.68043e-05
3.96443e-05
4.0226e-05
3.91006e-05
3.62463e-05
3.60006e-05
3.8302e-05
3.95809e-05
3.90654e-05
3.504e-05
3.1448e-05
3.05016e-05
3.06285e-05
3.06759e-05
3.01052e-05
2.7264e-05
2.44884e-05
2.2958e-05
2.24489e-05
2.24371e-05
2.28103e-05
2.32577e-05
2.34801e-05
2.35352e-05
2.35094e-05
2.33418e-05
2.27475e-05
2.09453e-05
1.88576e-05
1.67662e-05
1.47168e-05
1.27442e-05
1.08812e-05
9.16018e-06
7.60773e-06
6.23996e-06
5.06132e-06
4.06597e-06
3.24041e-06
2.56639e-06
2.02347e-06
1.59104e-06
1.24966e-06
9.81922e-07
7.72821e-07
6.0986e-07
4.82873e-07
3.83757e-07
3.0616e-07
2.45167e-07
1.97009e-07
1.58809e-07
1.28371e-07
1.04017e-07
8.44574e-08
6.86962e-08
5.59602e-08
4.56427e-08
3.7272e-08
3.04586e-08
2.49308e-08
2.03873e-08
1.67673e-08
1.36576e-08
1.14601e-08
9.13127e-09
8.35763e-09
6.68553e-09
7.51633e-09
8.17014e-09
1.41669e-08
1.93108e-08
4.52921e-08
6.60062e-08
1.45634e-07
2.10125e-07
3.9827e-07
5.39816e-07
9.41178e-07
1.1343e-06
1.91745e-06
2.09258e-06
3.29232e-06
3.3611e-06
4.64139e-06
4.71114e-06
5.92282e-06
6.18935e-06
7.71978e-06
8.10605e-06
9.8439e-06
9.90645e-06
1.09527e-05
1.08858e-05
1.16023e-05
1.15453e-05
1.26816e-05
1.2572e-05
1.36731e-05
1.35939e-05
1.43407e-05
1.42044e-05
1.52883e-05
1.50436e-05
1.62728e-05
1.61163e-05
1.72682e-05
1.70498e-05
1.84846e-05
1.81678e-05
1.9764e-05
1.95755e-05
2.13194e-05
2.08262e-05
2.23543e-05
2.20528e-05
2.36775e-05
2.33946e-05
2.5338e-05
2.43523e-05
2.56637e-05
2.5431e-05
2.70884e-05
2.56853e-05
2.64384e-05
2.57687e-05
2.61808e-05
2.45831e-05
2.38011e-05
2.30021e-05
2.18368e-05
1.88284e-05
1.84334e-05
1.82569e-05
1.8695e-05
1.9378e-05
2.00829e-05
2.23581e-05
2.28181e-05
2.55679e-05
2.26548e-05
2.00976e-05
1.7649e-05
1.51325e-05
2.12773e-05
1.90967e-05
4.06101e-05
3.10687e-05
6.75109e-05
5.3968e-05
5.80467e-05
8.71971e-05
0.00019938
0.000193437
0.000186234
0.000178811
0.000171945
0.000168071
0.00016696
0.000164332
0.000159979
0.000158197
0.000158024
0.000157906
0.000157864
0.00015775
0.000156885
0.000155106
0.000153404
0.000151465
0.000147617
0.00014225
0.000137884
0.00013344
0.000124276
0.000112777
9.97014e-05
8.67065e-05
7.41272e-05
6.2179e-05
5.14253e-05
4.20214e-05
3.33991e-05
2.61772e-05
2.06521e-05
1.73075e-05
1.51224e-05
1.46243e-05
1.49202e-05
1.64154e-05
1.88266e-05
2.06617e-05
2.32569e-05
2.95556e-05
3.44227e-05
3.6705e-05
3.88588e-05
4.25153e-05
4.48647e-05
4.5049e-05
4.47518e-05
4.61621e-05
4.829e-05
4.82785e-05
4.52425e-05
3.98651e-05
3.82147e-05
3.87729e-05
4.04322e-05
4.04176e-05
3.832e-05
3.41065e-05
3.22072e-05
3.1478e-05
3.00346e-05
2.74855e-05
2.51224e-05
2.35155e-05
2.28644e-05
2.28196e-05
2.30076e-05
2.30775e-05
2.2986e-05
2.25938e-05
2.24359e-05
2.24683e-05
2.26882e-05
2.27413e-05
2.26236e-05
2.18922e-05
1.92832e-05
1.64168e-05
1.3789e-05
1.14342e-05
9.36094e-06
7.56731e-06
6.04451e-06
4.77657e-06
3.74077e-06
2.90948e-06
2.25268e-06
1.74046e-06
1.34496e-06
1.04163e-06
8.09791e-07
6.32663e-07
4.97013e-07
3.92657e-07
3.11898e-07
2.48979e-07
1.99621e-07
1.60648e-07
1.29694e-07
1.04982e-07
8.51665e-08
6.92204e-08
5.63479e-08
4.5931e-08
3.74842e-08
3.06188e-08
2.50453e-08
2.04817e-08
1.68255e-08
1.37331e-08
1.14871e-08
9.2595e-09
8.40423e-09
7.026e-09
7.72992e-09
8.94995e-09
1.48341e-08
2.06975e-08
4.94195e-08
6.60796e-08
1.73004e-07
2.08756e-07
4.94506e-07
5.62001e-07
1.10068e-06
1.19718e-06
1.77833e-06
1.87875e-06
2.41433e-06
2.53308e-06
3.44521e-06
3.69887e-06
5.01758e-06
5.12598e-06
5.82364e-06
5.89717e-06
6.08432e-06
6.75492e-06
7.2178e-06
7.41472e-06
8.12771e-06
8.16513e-06
8.20835e-06
8.53758e-06
8.82958e-06
9.512e-06
9.70123e-06
9.76653e-06
1.01359e-05
1.05073e-05
1.05824e-05
1.09229e-05
1.11686e-05
1.14827e-05
1.17515e-05
1.22396e-05
1.23119e-05
1.26702e-05
1.31203e-05
1.39754e-05
1.40172e-05
1.46263e-05
1.5525e-05
1.63084e-05
1.65823e-05
1.82868e-05
1.8783e-05
2.0241e-05
2.0644e-05
2.26091e-05
2.29509e-05
2.57658e-05
2.56764e-05
2.73426e-05
2.75898e-05
3.02685e-05
2.90861e-05
2.86345e-05
2.82536e-05
2.80663e-05
2.74892e-05
2.47352e-05
2.482e-05
2.48105e-05
2.71333e-05
2.85195e-05
3.46702e-05
3.24367e-05
4.30845e-05
3.55258e-05
5.40575e-05
4.03116e-05
5.76672e-05
4.57341e-05
5.43117e-05
5.68416e-05
5.8066e-05
7.0704e-05
0.000101582
9.97442e-05
9.78734e-05
9.57432e-05
9.16492e-05
8.91647e-05
8.9275e-05
9.02144e-05
8.95431e-05
8.86507e-05
8.87161e-05
8.92338e-05
9.072e-05
9.1512e-05
9.14656e-05
9.09445e-05
8.9346e-05
8.78135e-05
8.47637e-05
7.99177e-05
7.59096e-05
7.20105e-05
6.62728e-05
5.86426e-05
5.08326e-05
4.34296e-05
3.64328e-05
3.02383e-05
2.51046e-05
2.07062e-05
1.69813e-05
1.44002e-05
1.30374e-05
1.298e-05
1.32285e-05
1.41537e-05
1.65844e-05
2.31341e-05
2.86689e-05
3.18303e-05
3.69421e-05
4.66165e-05
5.17074e-05
5.49524e-05
5.75478e-05
5.97544e-05
5.9823e-05
5.94627e-05
5.83579e-05
5.42795e-05
5.26006e-05
5.37932e-05
5.46071e-05
5.209e-05
4.4138e-05
4.07233e-05
4.03979e-05
4.15562e-05
4.19307e-05
4.09739e-05
3.66128e-05
3.29088e-05
3.03524e-05
2.84208e-05
2.68715e-05
2.54392e-05
2.42722e-05
2.37116e-05
2.35703e-05
2.34525e-05
2.30915e-05
2.26607e-05
2.23077e-05
2.20143e-05
2.18325e-05
2.17565e-05
2.17021e-05
2.15715e-05
2.12084e-05
1.9738e-05
1.69831e-05
1.42114e-05
1.16295e-05
9.34499e-06
7.39852e-06
5.78641e-06
4.4807e-06
3.44246e-06
2.62971e-06
2.00195e-06
1.52244e-06
1.15941e-06
8.86195e-07
6.8117e-07
5.27236e-07
4.11226e-07
3.23217e-07
2.5588e-07
2.03868e-07
1.6331e-07
1.31404e-07
1.06114e-07
8.59368e-08
6.97585e-08
5.67303e-08
4.62087e-08
3.76849e-08
3.07704e-08
2.51522e-08
2.05718e-08
1.68868e-08
1.38077e-08
1.15748e-08
9.45528e-09
8.75086e-09
8.43991e-09
1.03665e-08
1.47656e-08
2.85257e-08
4.8947e-08
1.07778e-07
1.70126e-07
3.97839e-07
4.87139e-07
1.05972e-06
1.12051e-06
1.74111e-06
1.8212e-06
2.27667e-06
2.37557e-06
4.02448e-06
4.30561e-06
6.64574e-06
7.11321e-06
8.2822e-06
8.21863e-06
8.49777e-06
8.57882e-06
8.77032e-06
8.76596e-06
9.20384e-06
9.70492e-06
1.1153e-05
1.10045e-05
1.11819e-05
1.13628e-05
1.1709e-05
1.18769e-05
1.28609e-05
1.29542e-05
1.39092e-05
1.38771e-05
1.41522e-05
1.41074e-05
1.51891e-05
1.52262e-05
1.59959e-05
1.58759e-05
1.65752e-05
1.63708e-05
1.75802e-05
1.74196e-05
1.8215e-05
1.8035e-05
1.95128e-05
1.93929e-05
2.12911e-05
2.10243e-05
2.31258e-05
2.29263e-05
2.70284e-05
2.62587e-05
3.13776e-05
3.09674e-05
3.89504e-05
3.74643e-05
4.93953e-05
4.75328e-05
6.45183e-05
5.89251e-05
8.37453e-05
7.59683e-05
0.000107066
9.1843e-05
0.000129509
0.000109656
0.000148175
0.000122292
0.0001471
0.000119127
0.000129779
0.000104453
0.000108534
8.49892e-05
8.39047e-05
6.52069e-05
6.30842e-05
6.2195e-05
6.04891e-05
6.46893e-05
3.8266e-05
3.81259e-05
3.7949e-05
3.77099e-05
3.66152e-05
3.58272e-05
3.59505e-05
3.70026e-05
3.70066e-05
3.70788e-05
3.7599e-05
3.79839e-05
3.8405e-05
3.96841e-05
3.98423e-05
3.9688e-05
3.91423e-05
3.81956e-05
3.64583e-05
3.4094e-05
3.18419e-05
3.03931e-05
2.81545e-05
2.48032e-05
2.15214e-05
1.84356e-05
1.5493e-05
1.30739e-05
1.15669e-05
1.06518e-05
1.07668e-05
1.11564e-05
1.21445e-05
1.37614e-05
1.63393e-05
2.0445e-05
2.82664e-05
3.93637e-05
4.66307e-05
5.13979e-05
6.03433e-05
7.00839e-05
7.62733e-05
7.93879e-05
7.98557e-05
7.9323e-05
7.80945e-05
7.49487e-05
7.3091e-05
7.01612e-05
6.38383e-05
5.96881e-05
5.78166e-05
5.6258e-05
5.21491e-05
4.65306e-05
4.50127e-05
4.56193e-05
4.59659e-05
4.44024e-05
3.8062e-05
3.28109e-05
2.99248e-05
2.89396e-05
2.86285e-05
2.82917e-05
2.73742e-05
2.56258e-05
2.44176e-05
2.36848e-05
2.31076e-05
2.26436e-05
2.24155e-05
2.23816e-05
2.238e-05
2.23185e-05
2.20612e-05
2.13318e-05
2.01187e-05
1.83685e-05
1.62086e-05
1.38693e-05
1.15567e-05
9.42028e-06
7.54139e-06
5.94822e-06
4.63482e-06
3.57632e-06
2.73919e-06
2.08763e-06
1.58723e-06
1.20698e-06
9.20275e-07
7.05057e-07
5.43672e-07
4.22365e-07
3.30686e-07
2.60857e-07
2.07181e-07
1.65525e-07
1.32899e-07
1.07135e-07
8.66442e-08
7.02567e-08
5.70844e-08
4.64669e-08
3.78679e-08
3.09155e-08
2.52406e-08
2.06792e-08
1.69039e-08
1.39876e-08
1.15364e-08
1.00707e-08
9.3624e-09
1.07252e-08
1.50671e-08
2.6713e-08
5.03462e-08
1.01282e-07
1.86594e-07
3.34855e-07
5.45e-07
7.95258e-07
1.19703e-06
1.33798e-06
1.75603e-06
2.0206e-06
3.10465e-06
3.4891e-06
5.39642e-06
5.62934e-06
5.52309e-06
6.18313e-06
6.18418e-06
6.44483e-06
7.05306e-06
7.60387e-06
7.5965e-06
7.96085e-06
8.79304e-06
9.44862e-06
9.35055e-06
9.88252e-06
1.03502e-05
1.06973e-05
1.0838e-05
1.14837e-05
1.32084e-05
1.31946e-05
1.33367e-05
1.42224e-05
1.44123e-05
1.49161e-05
1.64781e-05
1.64184e-05
1.66739e-05
1.77557e-05
1.82884e-05
1.86069e-05
1.9775e-05
2.00953e-05
2.04446e-05
2.09748e-05
2.23319e-05
2.26487e-05
2.34754e-05
2.43557e-05
2.55709e-05
2.6218e-05
2.79754e-05
2.88086e-05
3.0547e-05
3.13489e-05
3.38943e-05
3.5246e-05
3.79957e-05
3.98102e-05
4.47408e-05
4.75147e-05
5.33328e-05
5.71563e-05
6.49778e-05
7.2156e-05
7.94736e-05
8.968e-05
9.44588e-05
0.000105212
0.000107488
0.000114945
0.000114812
0.000113842
0.000112242
0.000104805
0.000103783
9.35162e-05
8.9731e-05
8.11487e-05
6.99428e-05
6.76993e-05
1.03024e-05
1.04546e-05
1.05416e-05
1.04885e-05
1.04289e-05
1.03034e-05
1.03272e-05
1.0905e-05
1.1087e-05
1.11312e-05
1.1232e-05
1.11609e-05
1.12066e-05
1.18195e-05
1.22082e-05
1.22546e-05
1.19715e-05
1.13843e-05
1.10423e-05
1.05599e-05
9.95889e-06
9.56696e-06
9.22422e-06
8.56882e-06
8.15793e-06
7.56559e-06
7.42628e-06
7.5713e-06
8.12302e-06
9.07571e-06
1.055e-05
1.36085e-05
1.85703e-05
2.28073e-05
2.86781e-05
3.6013e-05
5.00898e-05
6.2713e-05
7.297e-05
8.23069e-05
9.34618e-05
0.000102481
0.000108932
0.000109911
0.000108948
0.000106145
0.000101698
9.32956e-05
8.81611e-05
8.57463e-05
7.98938e-05
6.95869e-05
6.35904e-05
6.22723e-05
6.15909e-05
5.79741e-05
5.12453e-05
4.78964e-05
4.68235e-05
4.49969e-05
3.95704e-05
3.45803e-05
3.13866e-05
3.00106e-05
2.99581e-05
3.03403e-05
3.0282e-05
2.93373e-05
2.6825e-05
2.49569e-05
2.4078e-05
2.39149e-05
2.39498e-05
2.39524e-05
2.38916e-05
2.3734e-05
2.33902e-05
2.24767e-05
2.0961e-05
1.89102e-05
1.64846e-05
1.39209e-05
1.14377e-05
9.18782e-06
7.25366e-06
5.65531e-06
4.37132e-06
3.36016e-06
2.57455e-06
1.9699e-06
1.50771e-06
1.15615e-06
8.89564e-07
6.87639e-07
5.34543e-07
4.18111e-07
3.2912e-07
2.60656e-07
2.07589e-07
1.66138e-07
1.3352e-07
1.07682e-07
8.70941e-08
7.06133e-08
5.73587e-08
4.6679e-08
3.80222e-08
3.10447e-08
2.5312e-08
2.07876e-08
1.68867e-08
1.4187e-08
1.13779e-08
1.0535e-08
9.56378e-09
1.14338e-08
1.57692e-08
2.87091e-08
4.91654e-08
9.66465e-08
1.53681e-07
2.92998e-07
3.58825e-07
6.32263e-07
6.8504e-07
9.75236e-07
1.48302e-06
2.15174e-06
3.37024e-06
3.7399e-06
3.55193e-06
4.60295e-06
4.54012e-06
5.04564e-06
5.07165e-06
5.56315e-06
5.91621e-06
6.48847e-06
7.66115e-06
7.87471e-06
8.34608e-06
8.98655e-06
8.76578e-06
9.11658e-06
9.37771e-06
9.84974e-06
1.07259e-05
1.12354e-05
1.13305e-05
1.23789e-05
1.22717e-05
1.26002e-05
1.2879e-05
1.39894e-05
1.42769e-05
1.54364e-05
1.54368e-05
1.59512e-05
1.62593e-05
1.76466e-05
1.81996e-05
1.91549e-05
1.91822e-05
1.98429e-05
2.14784e-05
2.17648e-05
2.28532e-05
2.34594e-05
2.46875e-05
2.5266e-05
2.79546e-05
2.8253e-05
3.05249e-05
3.09244e-05
3.53983e-05
3.52997e-05
3.98426e-05
3.99623e-05
4.70157e-05
4.71355e-05
5.45653e-05
5.50691e-05
6.34994e-05
6.63944e-05
7.56443e-05
8.11515e-05
8.56816e-05
9.48234e-05
9.79046e-05
0.000106051
0.000109208
0.000111001
0.000110757
0.000107877
0.000106956
0.00010445
0.000101709
9.81972e-05
9.26674e-05
7.85869e-05
3.09951e-06
3.12457e-06
3.14326e-06
3.197e-06
3.25913e-06
3.25669e-06
3.23064e-06
3.30546e-06
3.38481e-06
3.41454e-06
3.41676e-06
3.45363e-06
3.66153e-06
3.7218e-06
3.74031e-06
3.75668e-06
3.7484e-06
3.83741e-06
4.06223e-06
4.1287e-06
4.17566e-06
4.28389e-06
4.72264e-06
5.14238e-06
5.55602e-06
6.11911e-06
6.92232e-06
8.5603e-06
1.1077e-05
1.37988e-05
1.77365e-05
2.57972e-05
3.36126e-05
3.99046e-05
4.93799e-05
6.2755e-05
7.93577e-05
9.52124e-05
0.000112397
0.000125018
0.000135893
0.000145032
0.000147575
0.000146659
0.0001435
0.000134666
0.000126866
0.000118138
0.000105071
9.59109e-05
9.04639e-05
8.32783e-05
7.57081e-05
6.96049e-05
6.63515e-05
6.2279e-05
5.58748e-05
5.01904e-05
4.6949e-05
4.46384e-05
4.19935e-05
3.91905e-05
3.63785e-05
3.3852e-05
3.29412e-05
3.30441e-05
3.28321e-05
3.06482e-05
2.83175e-05
2.68846e-05
2.57647e-05
2.51915e-05
2.51868e-05
2.58853e-05
2.63316e-05
2.61222e-05
2.41084e-05
2.08035e-05
1.80334e-05
1.55911e-05
1.33246e-05
1.12055e-05
9.27027e-06
7.55806e-06
6.08355e-06
4.84218e-06
3.81748e-06
2.98622e-06
2.32264e-06
1.80037e-06
1.39405e-06
1.08065e-06
8.40213e-07
6.5612e-07
5.15012e-07
4.06448e-07
3.22458e-07
2.5706e-07
2.05799e-07
1.65364e-07
1.33286e-07
1.07711e-07
8.72343e-08
7.07855e-08
5.7524e-08
4.68244e-08
3.81384e-08
3.1145e-08
2.53747e-08
2.08675e-08
1.68893e-08
1.42976e-08
1.12925e-08
1.07145e-08
9.4857e-09
1.13776e-08
1.52099e-08
2.6764e-08
4.37774e-08
7.996e-08
1.20467e-07
2.13137e-07
2.34984e-07
3.74294e-07
3.88704e-07
5.69941e-07
9.0449e-07
1.88922e-06
1.86991e-06
3.01062e-06
2.6599e-06
3.2925e-06
3.69531e-06
4.13205e-06
4.05215e-06
4.37618e-06
4.85195e-06
5.976e-06
5.89936e-06
6.76142e-06
6.3986e-06
7.54021e-06
7.30122e-06
7.77104e-06
8.3685e-06
9.6562e-06
9.36819e-06
1.0152e-05
9.65033e-06
1.06942e-05
1.06452e-05
1.13065e-05
1.15571e-05
1.28402e-05
1.20168e-05
1.32087e-05
1.29996e-05
1.37185e-05
1.37584e-05
1.53567e-05
1.44521e-05
1.57493e-05
1.55187e-05
1.71052e-05
1.66391e-05
1.84374e-05
1.75125e-05
1.94455e-05
1.91716e-05
2.1244e-05
2.01973e-05
2.31071e-05
2.20496e-05
2.54889e-05
2.43629e-05
2.86658e-05
2.6911e-05
3.26461e-05
3.10566e-05
3.7812e-05
3.51725e-05
4.30275e-05
4.05861e-05
5.04539e-05
4.78562e-05
5.88883e-05
5.51888e-05
6.91236e-05
6.714e-05
8.27619e-05
8.26562e-05
9.59101e-05
9.66377e-05
0.00010301
0.000104109
0.000104787
0.000104349
0.000102915
0.000101417
9.44611e-05
2.33094e-06
2.34166e-06
2.37374e-06
2.42619e-06
2.54503e-06
2.55295e-06
2.53831e-06
2.50958e-06
2.50261e-06
2.49998e-06
2.59349e-06
2.6763e-06
2.73544e-06
2.83919e-06
2.92501e-06
2.95239e-06
2.96223e-06
3.01125e-06
3.42081e-06
3.92318e-06
4.26143e-06
4.61131e-06
5.20479e-06
6.23343e-06
7.89643e-06
9.66711e-06
1.21365e-05
1.69622e-05
2.16801e-05
2.61054e-05
3.2845e-05
4.6853e-05
5.56793e-05
6.50624e-05
8.07974e-05
0.000100236
0.000120254
0.000144625
0.000164643
0.000175434
0.000182566
0.000182486
0.000181176
0.000177853
0.000171645
0.000163376
0.000153437
0.000140953
0.000126798
0.000112267
0.000100793
9.37019e-05
8.42427e-05
7.4016e-05
6.90347e-05
6.65065e-05
6.05834e-05
5.34665e-05
4.82071e-05
4.60057e-05
4.48981e-05
4.25261e-05
3.98938e-05
3.7852e-05
3.60329e-05
3.39403e-05
3.15381e-05
2.94091e-05
2.83731e-05
2.82969e-05
2.91265e-05
3.02301e-05
3.0419e-05
3.01395e-05
2.82515e-05
2.5452e-05
2.33408e-05
2.21958e-05
2.14561e-05
2.03863e-05
1.87482e-05
1.66196e-05
1.42011e-05
1.17212e-05
9.37946e-06
7.31271e-06
5.5861e-06
4.20463e-06
3.1349e-06
2.32623e-06
1.72521e-06
1.28359e-06
9.61194e-07
7.26281e-07
5.54626e-07
4.28281e-07
3.34269e-07
2.63386e-07
2.09198e-07
1.67228e-07
1.34351e-07
1.08357e-07
8.76517e-08
7.10711e-08
5.77291e-08
4.69751e-08
3.82528e-08
3.12294e-08
2.54422e-08
2.09104e-08
1.69314e-08
1.4293e-08
1.13058e-08
1.06021e-08
9.19497e-09
1.07323e-08
1.392e-08
2.34834e-08
3.77266e-08
6.65253e-08
9.9517e-08
1.65818e-07
1.79702e-07
2.46971e-07
2.33927e-07
3.01156e-07
4.28711e-07
1.14504e-06
9.70464e-07
2.02481e-06
1.73433e-06
2.26395e-06
2.46035e-06
3.0791e-06
2.95989e-06
3.31371e-06
3.29566e-06
4.50549e-06
4.19461e-06
5.27245e-06
4.7553e-06
5.67037e-06
5.40672e-06
5.96496e-06
5.82745e-06
7.23131e-06
6.37903e-06
7.7292e-06
7.18774e-06
8.05906e-06
8.06032e-06
9.13652e-06
8.59803e-06
9.99653e-06
9.23632e-06
1.03073e-05
1.04746e-05
1.13099e-05
1.07335e-05
1.21579e-05
1.15273e-05
1.25781e-05
1.25181e-05
1.38039e-05
1.28988e-05
1.44264e-05
1.39928e-05
1.54698e-05
1.48443e-05
1.67446e-05
1.5857e-05
1.79227e-05
1.70453e-05
1.953e-05
1.83375e-05
2.14187e-05
2.00019e-05
2.39753e-05
2.2289e-05
2.70205e-05
2.48944e-05
3.10887e-05
2.8922e-05
3.69254e-05
3.42255e-05
4.21738e-05
4.01849e-05
5.11217e-05
5.06083e-05
6.38239e-05
6.40655e-05
7.55419e-05
7.61024e-05
8.62613e-05
8.93247e-05
9.73763e-05
0.000101552
0.000101636
0.000101949
0.000100784
2.40585e-06
2.43583e-06
2.43639e-06
2.44543e-06
2.54631e-06
2.87218e-06
2.95016e-06
2.92042e-06
2.7908e-06
2.75879e-06
2.78361e-06
3.1471e-06
3.61289e-06
3.71188e-06
3.69654e-06
3.72529e-06
3.82672e-06
4.3813e-06
5.72399e-06
6.62006e-06
7.48306e-06
8.63757e-06
1.07173e-05
1.39764e-05
1.6671e-05
1.96668e-05
2.51521e-05
3.37699e-05
4.01421e-05
4.61666e-05
5.90309e-05
7.55523e-05
8.63891e-05
0.000103374
0.000124349
0.00015385
0.000180661
0.000197317
0.000200943
0.00019971
0.000196915
0.000193065
0.000189705
0.000185125
0.000179421
0.000175461
0.000167486
0.000155259
0.000142219
0.000126392
0.000112828
0.000103249
9.20223e-05
8.13342e-05
7.5028e-05
7.0704e-05
6.56174e-05