/*--------------------------------*- C++ -*----------------------------------*\
| =========                 |                                                 |
| \\      /  F ield         | OpenFOAM: The Open Source CFD Toolbox           |
|  \\    /   O peration     | Version:  2.4.0                                 |
|   \\  /    A nd           | Web:      www.OpenFOAM.org                      |
|    \\/     M anipulation  |                                                 |
\*---------------------------------------------------------------------------*/
FoamFile
{
    version     2.0;
    format      ascii;
    class       volScalarField;
    location    "0.04";
    object      p;
}
// * * * * * * * * * * * * * * * * * * * * * * * * * * * * * * * * * * * * * //

dimensions      [0 2 -2 0 0 0 0];

internalField   nonuniform List<scalar> 
8800
(
93.5598
81.2126
73.7172
70.2949
68.454
66.8719
65.7744
64.8229
63.5652
62.6389
61.8537
60.7484
59.8082
59.058
58.1049
57.1769
56.4974
55.8075
55.0349
54.3677
90.4485
80.8575
73.8838
70.4056
68.5209
66.8934
65.775
64.8348
63.5597
62.6271
61.862
60.7456
59.7972
59.0628
58.1066
57.1666
56.5006
55.8038
55.043
54.3234
88.486
80.9268
74.4856
70.7852
68.6863
66.9689
65.8244
64.8703
63.5816
62.6421
61.8802
60.7492
59.7931
59.0655
58.1071
57.1533
56.502
55.796
55.1106
54.5813
86.9476
80.9802
75.0823
71.2064
68.8559
67.0695
65.8901
64.9131
63.6375
62.6829
61.9065
60.774
59.8012
59.0676
58.1101
57.1481
56.4947
55.8019
55.1269
54.8407
85.6927
80.9453
75.5778
71.606
69.0041
67.1608
65.9373
64.9427
63.7208
62.7335
61.9312
60.8196
59.8164
59.0613
58.1157
57.1545
56.4816
55.8173
55.1896
55.3345
84.7024
80.8461
75.966
71.9429
69.1418
67.2361
65.953
64.96
63.8063
62.7789
61.9556
60.8751
59.8303
59.049
58.1243
57.1671
56.4742
55.8452
55.3024
55.7687
83.9429
80.7276
76.2575
72.2176
69.2719
67.2864
65.9494
64.9759
63.8792
62.8119
61.9839
60.9264
59.8353
59.0357
58.1354
57.1815
56.4781
55.892
55.4439
56.1311
83.3926
80.6202
76.4639
72.4233
69.3872
67.3243
65.9391
64.9832
63.9327
62.8405
62.0063
60.9631
59.8424
59.0275
58.1443
57.1983
56.4966
55.9445
55.5848
56.3851
83.0351
80.5401
76.5974
72.5591
69.4678
67.3538
65.9223
64.9839
63.9733
62.8626
62.0184
60.9913
59.8531
59.0174
58.1546
57.224
56.522
55.9933
55.7027
56.563
82.8601
80.4973
76.6667
72.6229
69.5072
67.3763
65.9076
64.9802
64.0028
62.8745
62.0168
61.0122
59.868
59.0087
58.1688
57.2583
56.5488
56.0368
55.7922
56.6841
82.8595
80.4944
76.6755
72.6181
69.5031
67.3876
65.9004
64.9729
64.0154
62.8771
62.0047
61.0261
59.886
59.0025
58.1863
57.2991
56.5756
56.0734
55.858
56.7525
83.0335
80.5393
76.6252
72.5416
69.4554
67.3908
65.899
64.9595
64.0153
62.8691
61.9793
61.0345
59.9063
58.9974
58.2067
57.3463
56.6038
56.104
55.8962
56.7789
83.3891
80.6215
76.5128
72.3955
69.3666
67.3874
65.8984
64.937
64.0098
62.851
61.9385
61.0408
59.9289
58.992
58.2298
57.3998
56.6347
56.1322
55.9063
56.749
83.9361
80.7318
76.3294
72.1836
69.2375
67.3743
65.8994
64.901
63.9948
62.8249
61.885
61.0427
59.9505
58.9849
58.2566
57.4585
56.6701
56.1638
55.9062
56.6401
84.6892
80.8576
76.0525
71.902
69.0976
67.3499
65.8908
64.8507
63.9739
62.7902
61.8153
61.0423
59.9753
58.9679
58.2846
57.5219
56.7129
56.2002
55.9206
56.4576
85.6703
80.9664
75.6747
71.5503
68.9456
67.3102
65.8653
64.7851
63.9451
62.7528
61.7367
61.0362
60.0021
58.944
58.31
57.5831
56.764
56.242
55.9629
56.2203
86.9171
81.0021
75.1918
71.1343
68.7762
67.2537
65.8214
64.7067
63.9049
62.7193
61.6659
61.0206
60.0235
58.9275
58.3253
57.6298
56.8166
56.2849
56.0208
55.9895
88.4527
80.9425
74.6015
70.7082
68.594
67.1704
65.7649
64.6396
63.8591
62.693
61.6268
61.0007
60.0325
58.9288
58.3342
57.656
56.8578
56.3221
56.0665
55.8378
90.4151
80.8647
74.0001
70.3347
68.4261
67.0889
65.7246
64.6078
63.8276
62.6807
61.6224
60.9878
60.034
58.9445
58.3396
57.6641
56.8824
56.3469
56.089
55.7886
93.5238
81.2185
73.8286
70.2215
68.3701
67.0572
65.7187
64.6168
63.8195
62.6805
61.6393
60.982
60.0298
58.9598
58.3428
57.6598
56.8918
56.3578
56.092
55.8722
54.6812
54.8681
55.1394
55.4861
55.8902
56.2874
56.5719
56.613
56.2609
55.4754
54.249
52.5899
50.5234
48.0334
45.1941
42.1044
38.7462
35.109
31.3456
27.5733
23.7113
20.0288
16.711
13.9968
12.098
11.2168
11.4356
12.5633
14.2627
16.4944
19.3239
22.2987
25.0851
27.9581
30.7859
33.1861
35.4886
37.7194
39.5113
41.247
43.1131
45.1274
47.5373
50.2633
53.3086
56.7714
60.5613
64.293
67.5372
70.4008
73.0457
75.3108
77.0904
78.4555
79.5128
80.3602
81.0733
81.6903
82.2241
82.681
83.0567
83.3566
83.59
83.7664
83.9043
84.0232
84.1291
84.2178
84.2956
84.354
84.396
84.4175
84.432
84.4512
84.4776
84.5063
84.5309
84.5481
84.558
84.5622
84.5624
84.56
84.5559
84.5506
84.5445
84.5375
84.5299
84.5217
84.513
84.5039
84.4944
84.4845
84.4744
84.464
84.4534
84.4427
84.4318
84.4207
84.4096
84.3983
84.3869
84.3754
84.3638
84.352
84.3402
84.3282
84.3163
84.3039
84.2919
84.279
84.2671
84.2536
84.2424
84.228
84.2189
84.204
84.2003
84.1871
84.1954
84.1904
84.2216
84.2362
84.2996
84.3452
84.4408
84.5016
84.5953
84.6444
84.7033
84.6965
84.6733
84.6269
84.5355
84.507
84.4073
84.4005
84.3505
84.365
84.3519
84.3722
84.3351
84.3443
84.2942
84.2905
84.2732
84.2723
84.2634
84.2686
84.2385
84.2466
84.2071
84.2243
84.1738
84.1892
84.1479
84.1451
84.1105
84.0992
84.039
84.0218
83.9793
83.9861
83.91
83.9081
83.8293
83.7956
83.7472
83.7153
83.6258
83.5463
83.5114
83.4311
83.3204
83.2359
83.1253
83.0231
82.8559
82.7022
82.5952
82.3831
82.2126
81.9492
81.8061
81.4726
81.2538
80.9144
80.5767
80.2272
79.7986
79.3157
78.6169
77.8861
76.7228
75.4015
73.5746
71.2475
67.8061
62.0393
54.8375
25.6577
54.5857
54.7955
55.1287
55.4999
55.86
56.1805
56.3733
56.3041
55.9375
55.2169
54.0508
52.4793
50.5342
48.1449
45.4241
42.513
39.362
35.9875
32.5519
29.1815
25.7181
22.1825
19.2569
17.0242
15.2979
14.3104
14.2679
15.1593
16.7093
18.599
21.0985
23.8631
26.279
28.8389
31.4453
33.4247
35.2199
37.1255
38.6423
40.104
42.0283
44.0805
46.3235
49.0934
52.2512
55.5745
59.0707
62.7301
66.2187
69.216
71.7672
73.9944
75.9191
77.499
78.7281
79.6838
80.4758
81.1725
81.7855
82.3226
82.7533
83.0895
83.3496
83.5512
83.7137
83.8554
83.9838
84.0967
84.1924
84.2607
84.3261
84.3603
84.3812
84.4021
84.4286
84.4582
84.4859
84.508
84.5233
84.5323
84.5365
84.5373
84.5357
84.5326
84.5283
84.5231
84.517
84.5101
84.5026
84.4945
84.4859
84.4768
84.4673
84.4575
84.4473
84.4369
84.4262
84.4153
84.4042
84.3929
84.3814
84.3698
84.358
84.346
84.3338
84.3213
84.3089
84.2958
84.283
84.269
84.2561
84.2407
84.2283
84.2106
84.2002
84.1794
84.1747
84.1512
84.1603
84.1403
84.1799
84.1789
84.2714
84.3021
84.4457
84.5027
84.6639
84.701
84.8138
84.7803
84.778
84.681
84.5684
84.4814
84.3795
84.362
84.3283
84.3396
84.3609
84.3321
84.345
84.2884
84.28
84.2515
84.2325
84.2473
84.2453
84.2415
84.2237
84.1945
84.1781
84.154
84.1451
84.123
84.1123
84.0788
84.0548
84.0041
83.9878
83.948
83.9244
83.8746
83.8223
83.7431
83.7355
83.669
83.6272
83.531
83.4849
83.3751
83.3519
83.1945
83.127
82.9993
82.8864
82.7388
82.559
82.4079
82.2395
82.0061
81.7703
81.5278
81.2472
80.9489
80.5705
80.2426
79.7283
79.3339
78.8037
78.1472
77.3445
76.361
75.1666
73.4974
71.215
68.1828
64.5479
55.0387
47.8269
20.3385
54.6993
54.8839
55.1343
55.3493
55.5604
55.8027
55.9547
55.8473
55.4824
54.8302
53.7117
52.1859
50.3575
48.1184
45.5297
42.7611
39.8064
36.6388
33.4616
30.4462
27.3923
24.3289
21.7994
19.881
18.4364
17.6331
17.5001
18.1914
19.6537
21.3932
23.5728
26.0829
28.0937
30.0568
32.2214
33.679
34.9192
36.5549
37.9307
39.072
40.6143
42.5267
44.6695
47.2856
50.4514
53.9181
57.477
61.0036
64.3875
67.5731
70.4125
72.7706
74.7428
76.4586
77.8832
79.0074
79.9161
80.705
81.3984
81.9826
82.4644
82.8396
83.1272
83.3537
83.541
83.7038
83.8511
83.9838
84.1013
84.2069
84.2666
84.3099
84.3393
84.3658
84.3938
84.4224
84.4487
84.4709
84.4881
84.5005
84.5086
84.5132
84.5151
84.5149
84.513
84.5097
84.5052
84.4997
84.4934
84.4862
84.4783
84.4698
84.4608
84.4513
84.4415
84.4313
84.4208
84.41
84.399
84.3877
84.3761
84.3643
84.3523
84.34
84.3276
84.3146
84.3016
84.2878
84.2744
84.2592
84.2454
84.228
84.2145
84.1932
84.1815
84.154
84.1481
84.1115
84.1193
84.0786
84.123
84.0944
84.2076
84.2161
84.4125
84.4571
84.6938
84.7106
84.892
84.8183
84.8464
84.7104
84.5735
84.4697
84.3374
84.2986
84.3105
84.3099
84.374
84.376
84.3463
84.3192
84.2565
84.2065
84.24
84.2123
84.2552
84.2411
84.2142
84.1638
84.14
84.1201
84.0943
84.1244
84.0825
84.017
83.9971
83.9525
83.9093
83.8914
83.8769
83.7767
83.6931
83.7066
83.633
83.5416
83.5032
83.427
83.297
83.2395
83.176
83.0212
82.8785
82.8243
82.6374
82.4875
82.2433
82.1157
81.8703
81.6363
81.3343
81.0408
80.7534
80.3729
79.9626
79.4799
78.9917
78.3611
77.8151
76.9622
75.951
74.7777
73.3046
71.2704
69.3166
64.1269
62.376
49.6205
41.3543
22.575
55.5929
55.5902
55.2363
55.0013
54.9639
55.1424
55.2974
55.1872
54.8907
54.3314
53.3139
51.9243
50.2243
48.1512
45.7901
43.2502
40.5594
37.6964
34.877
32.2138
29.5544
26.9408
24.7064
23.0275
22.0253
21.4252
21.1801
22.0056
23.4201
24.6199
26.3428
28.5609
30.091
31.293
32.9313
34.0717
34.7781
35.9644
36.9591
37.7284
39.0318
40.7036
42.6602
45.1
48.0641
51.4787
55.1627
58.9173
62.4651
65.7139
68.7207
71.3646
73.5586
75.4387
77.0487
78.3481
79.3785
80.2453
80.9964
81.6339
82.1683
82.5974
82.924
83.1775
83.3905
83.5775
83.742
83.887
84.0131
84.118
84.1926
84.2477
84.2909
84.3281
84.3613
84.3906
84.4163
84.4386
84.4574
84.4725
84.4836
84.4911
84.4955
84.4974
84.4975
84.4959
84.493
84.4887
84.4834
84.4772
84.4702
84.4624
84.454
84.4451
84.4356
84.4258
84.4155
84.4049
84.3939
84.3826
84.371
84.3591
84.3469
84.3343
84.3215
84.3081
84.2946
84.2801
84.266
84.2497
84.2352
84.2158
84.2014
84.1764
84.1635
84.1283
84.1198
84.0693
84.076
84.0061
84.0527
83.9768
84.1125
84.0646
84.3328
84.322
84.6788
84.6211
84.9239
84.7563
84.8639
84.6537
84.5263
84.3788
84.2246
84.1862
84.182
84.1734
84.3109
84.299
84.423
84.2955
84.2175
84.146
84.1071
84.1481
84.2085
84.2211
84.2372
84.1067
84.087
84.0448
84.0552
84.0913
84.0555
83.9674
83.9002
83.859
83.8546
83.812
83.7924
83.695
83.5848
83.6282
83.5443
83.4037
83.3683
83.3013
83.1609
83.0579
83.0234
82.8196
82.6853
82.6121
82.4322
82.2082
81.9745
81.7756
81.5774
81.2439
80.9244
80.5517
80.2562
79.7562
79.3006
78.764
78.2086
77.6278
76.9591
76.0442
74.8757
72.8829
72.4593
68.1119
68.6991
60.1052
58.271
46.5724
35.7918
24.062
56.6258
56.4463
55.4446
54.675
54.2945
54.338
54.4962
54.4442
54.2634
53.8334
52.9511
51.753
50.2405
48.3608
46.2496
44
41.6553
39.2092
36.7077
34.3497
32.0932
29.9184
28.0739
26.6304
25.8166
25.5529
25.3557
25.872
27.1299
28.0946
29.2591
30.9001
31.9628
32.5993
33.6646
34.4503
34.5894
35.1874
35.9144
36.2189
37.1027
38.5348
40.1541
42.4212
45.3057
48.5521
52.0993
55.97
59.9438
63.6521
66.966
69.8582
72.2776
74.3206
76.0782
77.5966
78.8718
79.9036
80.7097
81.3422
81.8816
82.3538
82.7363
83.0276
83.2589
83.4564
83.631
83.7906
83.9329
84.0473
84.1276
84.1859
84.2366
84.285
84.3273
84.3598
84.3832
84.4022
84.4205
84.4381
84.4537
84.4662
84.4753
84.481
84.4839
84.4845
84.4831
84.4802
84.4759
84.4704
84.4639
84.4566
84.4485
84.4398
84.4305
84.4208
84.4106
84.4
84.3891
84.3778
84.3661
84.354
84.3416
84.3288
84.3157
84.3018
84.288
84.2727
84.2581
84.2407
84.2256
84.2043
84.1892
84.1607
84.1471
84.1047
84.0957
84.0289
84.0332
83.9301
83.9728
83.84
83.9839
83.8747
84.1935
84.1673
84.6039
84.5765
84.8884
84.735
84.7648
84.5412
84.4146
84.2135
84.1791
84.0206
84.135
84.0235
84.223
84.1523
84.3696
84.1962
84.2416
84.0507
84.0614
83.995
84.168
84.142
84.3083
84.0604
84.0553
83.9322
84.0083
83.9901
84.0926
83.8343
83.856
83.741
83.7865
83.6977
83.7744
83.55
83.5202
83.4653
83.4819
83.2855
83.3059
83.0975
83.0338
82.8979
82.9113
82.5934
82.4939
82.3684
82.2728
81.8962
81.6758
81.4323
81.2921
80.8541
80.4593
80.0247
79.7129
79.1015
78.5916
77.7133
77.3815
76.0418
76.1756
73.7693
74.5022
70.193
71.5778
65.5511
65.1985
57.2382
51.8922
44.2808
33.3753
25.4723
57.4997
57.2148
55.7039
54.481
53.7959
53.6473
53.7341
53.7569
53.6897
53.3792
52.6959
51.7284
50.3625
48.7136
46.9934
45.0353
42.9057
40.8606
38.7807
36.6974
34.7702
33.0125
31.5298
30.326
29.6334
29.5366
29.4685
29.6769
30.5132
31.3177
32.0717
33.0569
33.6931
33.973
34.4812
34.7362
34.447
34.4526
34.6715
34.4955
34.7402
35.8057
37.0742
38.8575
41.5493
44.9516
48.7409
52.7415
56.9254
60.9779
64.7054
68.1086
71.0796
73.4529
75.3621
76.9444
78.3044
79.4951
80.4526
81.1281
81.6542
82.1396
82.5604
82.8872
83.1466
83.362
83.5425
83.7049
83.8526
83.974
84.0637
84.1334
84.1963
84.2527
84.2965
84.3295
84.3559
84.379
84.4003
84.4195
84.4359
84.4491
84.4589
84.4659
84.4701
84.472
84.4719
84.47
84.4667
84.462
84.4563
84.4497
84.4422
84.434
84.4252
84.4158
84.4058
84.3953
84.3845
84.3731
84.3614
84.3492
84.3366
84.3235
84.3101
84.2959
84.2817
84.2659
84.2507
84.2324
84.2167
84.1939
84.1781
84.147
84.1325
84.0849
84.0742
83.9954
83.9935
83.8613
83.888
83.6959
83.8255
83.6422
84.0097
83.9626
84.5171
84.5111
84.7747
84.5529
84.2741
83.9778
83.7808
83.6759
83.8364
83.7918
84.0273
83.931
84.1632
83.9273
84.0935
83.8205
83.9545
83.8182
83.9503
83.8212
84.0704
83.8992
84.1247
83.8061
83.8979
83.6854
83.9348
83.7972
83.9935
83.6029
83.6879
83.4268
83.7759
83.4824
83.6325
83.2168
83.4124
83.1533
83.3968
82.976
83.167
82.7289
82.9422
82.5634
82.8219
82.1489
82.3505
82.0183
82.1523
81.3353
81.4631
80.9689
81.1995
80.1379
80.1732
79.2238
79.6731
78.1365
78.5286
76.3192
77.0606
74.354
75.4054
71.9907
72.4597
68.1518
67.0344
63.1905
59.4058
54.8306
48.0571
43.4366
34.1044
27.3029
58.0866
57.751
55.9746
54.4391
53.4705
53.1285
53.1504
53.2282
53.2633
53.0613
52.5357
51.7734
50.6781
49.2771
47.7891
46.0993
44.2867
42.5471
40.7254
38.971
37.4441
35.9906
34.754
33.8351
33.2944
33.128
33.0399
33.2481
33.7907
34.2107
34.6039
35.1738
35.4737
35.3074
35.3158
35.1777
34.3007
33.5736
33.1382
32.4424
32.0318
32.3897
33.2445
34.7503
37.1817
40.4269
44.4067
48.9206
53.6762
58.3065
62.5345
66.3228
69.5922
72.3031
74.5385
76.3712
77.9014
79.1992
80.2054
80.9081
81.4594
81.9683
82.4068
82.7363
82.9975
83.2395
83.4581
83.6394
83.7937
83.917
84.0014
84.0655
84.1335
84.2048
84.2612
84.299
84.3237
84.3463
84.3706
84.3949
84.4164
84.4337
84.4465
84.4555
84.4615
84.4649
84.4659
84.4648
84.462
84.4576
84.4521
84.4455
84.438
84.4298
84.421
84.4116
84.4016
84.3912
84.3802
84.3688
84.357
84.3447
84.332
84.3186
84.305
84.2904
84.2758
84.2595
84.244
84.2249
84.2086
84.1848
84.1684
84.1355
84.1207
84.0701
84.0588
83.974
83.9673
83.8205
83.8241
83.5997
83.6655
83.4463
83.7287
83.718
84.2009
84.2877
84.2782
83.9661
83.3475
82.9969
82.8622
82.9051
83.3256
83.4227
83.9175
83.8126
84.09
83.6105
83.497
83.1815
83.4024
83.4617
83.7746
83.6778
83.8154
83.4411
83.5106
83.2644
83.5697
83.4289
83.5828
83.362
83.543
83.0283
83.3165
83.0608
83.3061
82.974
83.2573
82.6332
82.9027
82.6566
83.0378
82.3198
82.6263
82.0712
82.4724
81.8616
82.2561
81.4124
81.7111
81.0762
81.5302
80.4564
80.7348
79.798
80.3546
79.0593
79.2558
77.8313
78.5563
76.7856
77.0624
74.8215
74.9031
72.7196
72.644
70.3686
68.8178
66.1462
63.6517
60.9594
56.6172
54.0242
48.1414
44.6035
36.9136
30.0886
58.4293
58.0924
56.1661
54.4379
53.3287
52.8298
52.7609
52.8813
52.9898
52.8813
52.5095
51.9557
51.0505
49.8729
48.658
47.1769
45.5516
44.1707
42.7118
41.128
39.8419
38.7571
37.7647
37.0164
36.5998
36.4591
36.342
36.4342
36.7717
36.9863
37.1688
37.353
37.3114
36.8612
36.251
35.534
34.1847
32.7378
31.4713
29.9371
28.7367
28.3799
28.6899
29.7862
32.0399
35.2935
39.3476
44.2743
49.8367
55.2167
59.9748
64.2829
68.1237
71.3197
73.8834
75.8908
77.4689
78.7795
79.8512
80.6578
81.2777
81.8125
82.2612
82.6056
82.9114
83.2119
83.4498
83.6168
83.7587
83.8808
83.9679
84.0344
84.1067
84.1845
84.2469
84.2813
84.3041
84.3279
84.3554
84.3824
84.4052
84.4224
84.4349
84.4438
84.4501
84.4539
84.4555
84.4552
84.4532
84.4497
84.445
84.4391
84.4323
84.4247
84.4162
84.4071
84.3974
84.3871
84.3762
84.3648
84.3529
84.3405
84.3276
84.3141
84.3002
84.2854
84.2704
84.2538
84.2378
84.2183
84.2014
84.1771
84.16
84.1268
84.111
84.0614
84.0486
83.9684
83.9566
83.8203
83.7991
83.5807
83.5512
83.2939
83.3593
83.2495
83.4869
83.4941
83.2955
83.0562
82.5177
82.4752
82.6202
82.7337
83.149
83.1868
83.6913
83.5723
83.7555
83.1194
82.9145
82.6254
82.98
83.102
83.505
83.4
83.3103
82.7596
82.7511
82.7276
83.2144
83.0598
83.1194
82.643
82.6366
82.5072
82.8737
82.5395
82.6794
82.2489
82.3925
82.0657
82.3966
81.9442
82.1827
81.6305
81.8353
81.3132
81.7613
81.0461
81.2102
80.5438
80.8716
80.0075
80.3211
79.3839
79.6467
78.5572
78.8094
77.5183
77.7504
76.309
76.2236
74.7403
74.5426
72.7713
72.0698
70.2665
69.0732
67.476
65.6454
64.053
61.7966
59.7175
56.1605
54.1583
49.2734
45.6528
39.2658
32.7742
58.608
58.2731
56.3136
54.4984
53.2829
52.6829
52.5674
52.6966
52.87
52.8501
52.5895
52.1946
51.49
50.4928
49.4618
48.2569
46.8938
45.6821
44.4496
43.1632
42.1976
41.3341
40.4204
39.8667
39.6703
39.525
39.3594
39.4646
39.7487
39.7699
39.7601
39.7653
39.3609
38.5142
37.4762
36.1889
34.2032
31.8208
29.5245
27.224
25.2964
24.0575
23.6562
24.3025
26.1188
29.2783
33.7173
39.2104
45.3994
51.624
57.3968
62.5248
66.8165
70.2813
73.1156
75.371
77.0909
78.4597
79.5845
80.4769
81.1816
81.7633
82.2218
82.5549
82.8548
83.1708
83.4295
83.6055
83.7538
83.8794
83.9498
83.995
84.066
84.159
84.2361
84.2749
84.2932
84.3116
84.3359
84.3615
84.3846
84.4044
84.421
84.4344
84.4447
84.4513
84.4544
84.4546
84.4524
84.4485
84.4433
84.437
84.4298
84.4218
84.4132
84.4039
84.3941
84.3837
84.3727
84.3612
84.3492
84.3367
84.3236
84.3099
84.2959
84.2808
84.2656
84.2487
84.2323
84.2126
84.1951
84.1708
84.1529
84.1203
84.1033
84.0564
84.042
83.97
83.9567
83.8398
83.8084
83.6097
83.5045
83.1913
82.9674
82.6325
82.4108
82.3133
82.0973
82.3221
82.29
82.5637
82.8597
82.7734
83.0621
82.8021
83.1235
82.9277
83.0415
82.7132
82.6161
82.4462
82.6693
82.6551
82.9238
82.7735
82.5808
82.1348
82.3116
82.3033
82.7475
82.5646
82.359
81.7926
81.8982
81.9539
82.3559
81.9844
81.7573
81.2578
81.5914
81.4759
81.6102
81.0893
81.1028
80.7221
80.9442
80.5554
80.6325
79.9824
80.0265
79.535
79.605
78.8725
78.8563
78.195
78.041
77.164
77.1219
76.1624
75.6859
74.7364
74.1422
73.0168
72.5213
71.2271
69.8572
68.7704
67.6307
66.3465
64.978
63.7236
61.5771
59.9589
56.9308
54.5935
50.3641
46.4622
40.9544
34.9759
58.7227
58.376
56.4021
54.5549
53.2963
52.6563
52.5227
52.6542
52.8684
52.9339
52.7755
52.4991
51.9476
51.143
50.3084
49.2657
48.095
47.1653
46.1975
45.0796
44.2528
43.6159
43.0131
42.5856
42.369
42.3716
42.3595
42.3656
42.5939
42.7036
42.5678
42.2619
41.6547
40.6229
39.0789
37.0369
34.4112
31.2918
27.9324
24.6538
21.97
19.8958
18.5961
18.6322
20.0206
23.0619
27.798
33.9358
40.9868
48.1365
54.6953
60.5145
65.3968
69.2688
72.4033
74.937
76.8422
78.2703
79.4395
80.4124
81.1689
81.7596
82.224
82.5606
82.8516
83.1481
83.3885
83.5606
83.7159
83.8516
83.9564
84.0324
84.0959
84.1617
84.2089
84.2452
84.2792
84.3112
84.3383
84.3583
84.3731
84.3864
84.401
84.4158
84.4285
84.4373
84.4423
84.444
84.4432
84.4406
84.4364
84.4311
84.4247
84.4173
84.4091
84.4002
84.3905
84.3802
84.3693
84.3579
84.3458
84.3332
84.32
84.3062
84.2919
84.2767
84.2612
84.2442
84.2274
84.2078
84.1898
84.1658
84.1468
84.1158
84.0966
84.0541
84.0356
83.9749
83.9554
83.8651
83.8225
83.6648
83.5033
83.1699
82.6874
82.1177
81.4265
81.2006
81.1608
81.8125
82.329
82.7558
83.0423
82.8851
82.9508
82.4801
82.485
82.1224
82.1902
82.4417
82.4124
82.4848
82.416
82.1421
82.2174
81.9808
81.9788
81.9395
82.0124
81.8883
82.0703
81.8788
81.5908
81.3281
81.4529
81.3996
81.7005
81.3269
80.888
80.6062
80.987
80.8766
80.7374
80.1917
80.0947
80.0842
80.1699
79.5637
79.3439
79.1439
79.0138
78.4638
78.3539
77.9115
77.5319
77.032
76.8002
76.0356
75.5748
75.1076
74.4439
73.6099
72.958
72.2056
71.4688
70.7432
69.4967
68.6405
67.5455
66.7035
65.4355
64.492
62.074
60.581
57.5197
54.8247
51.0785
46.9964
42.0931
36.8533
58.7716
58.4338
56.4454
54.5906
53.3463
52.7098
52.5752
52.7488
53.0074
53.1163
53.055
52.8832
52.4252
51.776
51.1177
50.2736
49.3365
48.5449
47.6955
46.8785
46.3587
45.8086
45.2494
45.0174
45.0457
45.1324
45.0985
45.1737
45.5051
45.6139
45.4461
45.1005
44.3015
42.9871
41.0512
38.3998
35.0937
31.2237
27.0335
22.9273
19.2404
16.2555
14.4439
13.913
14.7465
17.6587
22.6139
29.1019
36.7498
44.6176
51.9564
58.6106
64.1849
68.4641
71.8495
74.6002
76.6937
78.2403
79.4468
80.4024
81.1577
81.7776
82.2534
82.5765
82.8609
83.1578
83.4006
83.5926
83.768
83.8878
83.9311
83.9598
84.0322
84.1264
84.2074
84.2623
84.2955
84.3184
84.3342
84.3439
84.353
84.3674
84.3875
84.4102
84.4307
84.4444
84.4507
84.4513
84.4485
84.4437
84.4379
84.4312
84.4239
84.4159
84.4072
84.398
84.3881
84.3777
84.3667
84.355
84.3429
84.3301
84.3168
84.3029
84.2884
84.2731
84.2574
84.2404
84.2233
84.2039
84.1853
84.1622
84.1421
84.1133
84.0916
84.0542
84.0305
83.9814
83.9529
83.8876
83.8331
83.7183
83.5301
83.2183
82.6247
81.9391
81.0148
80.6214
80.712
81.4381
82.3268
82.8128
83.1143
82.9972
82.9006
82.4591
82.0061
81.539
81.5099
81.9809
82.3336
82.4591
82.3118
81.8988
81.6119
81.4591
81.6281
81.8439
81.8594
81.5116
81.3463
81.2201
81.1794
81.268
81.1915
80.8853
80.9312
80.7981
80.5657
80.406
80.4219
80.3089
80.1142
79.7687
79.5786
79.5819
79.5558
79.0307
78.5596
78.5416
78.4859
77.9286
77.4669
77.3429
77.0446
76.4675
76.0816
75.7219
75.146
74.687
74.1661
73.5606
72.8785
72.554
71.7576
71.2366
70.2634
69.6922
68.43
67.7295
66.061
64.9873
62.5011
60.7518
57.8152
54.9494
51.4714
47.5067
43.141
38.5247
58.7629
58.4047
56.4428
54.6262
53.4113
52.8185
52.7477
52.9616
53.253
53.409
53.4055
53.2811
52.943
52.4508
51.8972
51.2219
50.4768
49.8836
49.2583
48.5542
48.1421
47.8744
47.5283
47.3249
47.4534
47.7105
47.7629
47.8739
48.2675
48.5119
48.4217
48.0025
47.1002
45.6598
43.3932
40.1646
36.2606
31.7807
26.8573
22.0877
17.8856
14.3034
11.8071
10.6659
11.0879
13.7684
18.6522
25.2735
33.3302
41.7851
49.7879
57.1203
63.258
67.8944
71.4973
74.427
76.67
78.2875
79.5069
80.4953
81.2882
81.8878
82.3191
82.64
82.9235
83.1892
83.4077
83.5821
83.7283
83.8305
83.8918
83.9633
84.0637
84.1578
84.2147
84.2386
84.2556
84.2776
84.3061
84.3386
84.3671
84.3894
84.4077
84.4219
84.4313
84.4369
84.4395
84.4397
84.4382
84.4351
84.4309
84.4256
84.4193
84.4121
84.404
84.3951
84.3854
84.3751
84.3641
84.3525
84.3403
84.3274
84.314
84.3
84.2854
84.27
84.2542
84.2372
84.2199
84.2008
84.1818
84.1598
84.1386
84.1127
84.0883
84.0574
84.0277
83.9919
83.951
83.9108
83.8351
83.7676
83.5621
83.3423
82.7814
82.2266
81.3329
80.8261
80.7775
81.162
82.1172
82.631
82.9984
83.0071
82.8345
82.554
81.9521
81.5033
81.4029
81.7092
82.2675
82.4579
82.2916
81.9718
81.396
81.2718
81.4675
81.7835
81.9178
81.4868
81.0739
80.8772
80.9853
81.3874
81.2205
80.7456
80.5409
80.5182
80.6621
80.5896
80.1947
79.9513
79.8965
79.9593
79.6618
79.2336
79.2108
79.1735
78.6378
78.2944
78.2946
78.1168
77.5002
77.2084
77.1021
76.8519
76.1527
75.9718
75.597
75.2592
74.6329
74.519
73.7073
73.4274
72.6503
72.3507
71.111
70.5966
69.0963
68.3287
66.4369
65.0638
62.7031
60.699
57.8844
55.0013
51.6971
48.0033
44.0831
39.9178
58.6945
58.323
56.3712
54.6364
53.5346
53.0409
53.0343
53.2886
53.5872
53.7753
53.825
53.7316
53.4644
53.0697
52.6597
52.18
51.5794
51.1074
50.6553
50.1988
49.9699
49.7473
49.5269
49.5205
49.7662
50.1085
50.2656
50.4275
50.8397
51.2126
51.3038
50.8998
49.8523
48.2561
45.803
42.1705
37.64
32.6537
27.4237
22.1885
17.4411
13.5221
10.6344
9.03241
9.19446
11.6359
16.2626
22.9129
31.1936
39.9463
48.3708
56.1591
62.6793
67.6217
71.4197
74.4365
76.7375
78.4184
79.67
80.6384
81.3885
81.9795
82.4327
82.7479
82.9919
83.2244
83.43
83.5957
83.7381
83.8617
83.9567
84.0309
84.1002
84.1595
84.2038
84.2321
84.2496
84.2659
84.2901
84.3213
84.3538
84.3821
84.4033
84.4192
84.4307
84.4382
84.4421
84.4429
84.4412
84.4376
84.4326
84.4265
84.4195
84.4116
84.4031
84.3938
84.3839
84.3734
84.3622
84.3505
84.3381
84.3252
84.3117
84.2976
84.2829
84.2674
84.2514
84.2346
84.2171
84.1985
84.1791
84.1585
84.1365
84.1137
84.0872
84.0628
84.0281
84.0047
83.9525
83.9336
83.8375
83.8139
83.606
83.5198
83.0831
82.8313
82.1627
81.7276
81.3904
81.2408
81.8654
82.2931
82.7529
82.9247
82.8099
82.7783
82.2991
82.1347
81.7699
81.7242
82.1848
82.3302
82.3873
82.2833
81.7682
81.6376
81.4714
81.748
81.9767
81.8267
81.4476
81.0716
81.0215
81.3518
81.4103
81.2787
80.7784
80.6262
80.795
80.9571
80.6175
80.2731
79.9987
80.2681
80.1265
79.7508
79.35
79.4393
79.2243
79.0213
78.5498
78.5654
78.2183
78.0219
77.6051
77.6778
77.0297
76.8775
76.4007
76.44
75.5328
75.4644
74.6833
74.432
73.3387
73.0745
71.752
71.0223
69.471
68.5242
66.577
64.9332
62.7095
60.5121
57.8689
55.0924
51.9386
48.5393
44.9472
41.0595
58.4987
58.1018
56.2532
54.695
53.7547
53.3749
53.4288
53.7171
54.0156
54.2207
54.2758
54.1631
53.9837
53.7206
53.3832
53.011
52.6677
52.3868
51.9461
51.5952
51.6315
51.6607
51.461
51.3708
51.7962
52.3991
52.5344
52.5959
53.1105
53.5788
53.6576
53.3102
52.3109
50.5796
47.8643
43.9642
39.1328
33.7542
28.1964
22.7682
17.7595
13.5366
10.4263
8.69652
8.7549
11.0131
15.5057
22.1546
30.4123
39.2111
47.8504
55.8276
62.5098
67.6251
71.5238
74.5643
76.8882
78.5959
79.8488
80.8005
81.5387
82.107
82.5261
82.8291
83.0797
83.3101
83.5011
83.6454
83.7657
83.8697
83.9517
84.0196
84.0839
84.1456
84.1999
84.2429
84.2774
84.3037
84.3206
84.3405
84.3626
84.3819
84.3985
84.4121
84.4223
84.4293
84.4332
84.4346
84.4339
84.4315
84.4277
84.4226
84.4163
84.4091
84.4009
84.3919
84.3821
84.3717
84.3605
84.3487
84.3363
84.3233
84.3097
84.2955
84.2807
84.2653
84.2492
84.2325
84.2149
84.1968
84.1773
84.158
84.1354
84.1156
84.0877
84.0694
84.0308
84.0188
83.9569
83.9583
83.846
83.8687
83.6651
83.725
83.411
83.5099
83.0907
82.9702
82.4483
81.9606
81.9524
82.0283
82.4757
82.7824
82.8241
83.0514
82.8143
82.9533
82.5188
82.2224
82.2221
82.2878
82.4973
82.6813
82.4571
82.4707
81.9586
81.9006
81.9468
82.1965
82.0599
81.982
81.5845
81.4682
81.5856
81.8444
81.524
81.4736
81.1047
81.2827
81.2142
81.2026
80.6954
80.7262
80.5715
80.6905
80.1599
80.1142
79.8251
80.0329
79.4228
79.3723
78.9451
79.119
78.5181
78.5191
77.9388
77.981
77.2835
77.3057
76.4049
76.2103
75.3117
75.0696
73.8168
73.3163
72.0316
71.1343
69.5537
68.4085
66.566
64.7019
62.5698
60.3892
57.9138
55.2057
52.2206
49.0333
45.6129
41.9871
58.0569
57.6805
56.0555
54.793
54.1252
53.8733
53.956
54.2166
54.4643
54.6675
54.7187
54.6194
54.4801
54.2896
54.1125
53.8772
53.5853
53.4265
53.2396
53.0314
53.0564
53.179
53.1408
53.1246
53.4677
54.0507
54.3418
54.3959
54.7238
55.1522
55.3096
54.9967
53.9834
52.2067
49.4207
45.4335
40.5087
35.0295
29.3376
23.7705
18.6442
14.3274
11.1474
9.41075
9.49752
11.7607
16.2474
22.8428
30.9235
39.5697
48.1922
56.078
62.7059
67.8441
71.7665
74.7909
77.0913
78.7955
80.0563
81.0025
81.7129
82.241
82.6299
82.9208
83.1569
83.3636
83.5418
83.6905
83.8166
83.9212
84.0006
84.059
84.1064
84.1504
84.1925
84.2291
84.2573
84.2818
84.3093
84.3346
84.359
84.3819
84.4011
84.4162
84.4271
84.4343
84.4382
84.4393
84.438
84.4349
84.4302
84.4243
84.4174
84.4095
84.4009
84.3915
84.3815
84.3708
84.3595
84.3475
84.335
84.3219
84.3082
84.2939
84.279
84.2636
84.2475
84.2309
84.2133
84.1957
84.1761
84.158
84.1353
84.1181
84.0895
84.0764
84.0356
84.0332
83.9663
83.9856
83.8684
83.9329
83.7469
83.9187
83.6976
84.0393
83.8037
84.0283
83.5364
83.1382
82.585
82.2969
82.3935
82.6617
82.8888
83.2132
83.2534
83.6136
83.3164
83.1862
82.6983
82.5912
82.6667
82.9577
83.0044
83.2435
82.7494
82.5667
82.1687
82.4261
82.5107
82.8159
82.4384
82.2622
81.9147
82.1553
82.1789
82.3798
81.8786
81.8731
81.6055
81.9328
81.581
81.5801
81.0463
81.2966
80.9998
81.0866
80.5051
80.7035
80.2368
80.3132
79.6635
79.8192
79.2454
79.2618
78.5939
78.6378
77.9198
77.7857
76.9163
76.6289
75.6729
75.2209
74.1286
73.3754
72.0869
71.0005
69.5288
68.1943
66.4888
64.5761
62.4976
60.3092
57.9398
55.3463
52.4636
49.4216
46.2081
42.8172
57.2983
57.015
55.8793
55.033
54.6038
54.4581
54.551
54.7283
54.9065
55.094
55.1233
54.9959
54.9088
54.8484
54.7104
54.5373
54.4833
54.4578
54.2186
54.0195
54.2174
54.4801
54.4294
54.349
54.6385
55.1499
55.4108
55.4439
55.6973
56.0051
56.0506
55.7579
54.8265
53.0744
50.3761
46.5848
41.8281
36.4429
30.7964
25.2748
20.1983
15.9324
12.8338
11.231
11.4037
13.8231
18.2849
24.6943
32.4448
40.7208
49.2414
56.796
63.1995
68.2281
72.09
75.0476
77.3004
78.994
80.2594
81.1989
81.8867
82.3839
82.7451
83.0185
83.2431
83.4384
83.6052
83.7417
83.8529
83.9434
84.0156
84.0765
84.1321
84.1842
84.2302
84.2668
84.2937
84.3126
84.3295
84.3482
84.3677
84.3853
84.4005
84.413
84.4225
84.4291
84.433
84.4345
84.4339
84.4315
84.4276
84.4223
84.4159
84.4084
84.4
84.3907
84.3807
84.37
84.3586
84.3466
84.334
84.3208
84.307
84.2927
84.2778
84.2624
84.2462
84.2298
84.2122
84.1951
84.1756
84.1585
84.136
84.1209
84.0924
84.0836
84.0424
84.0483
83.9808
84.0172
83.9038
84.0062
83.84
84.0869
83.9084
84.3736
84.1973
84.6783
84.2784
84.2532
83.5444
83.1956
82.8483
82.9101
83.036
83.378
83.5049
83.9485
83.7858
83.946
83.3889
83.2296
83.0549
83.2722
83.334
83.7047
83.3714
83.4039
82.8015
82.8488
82.8682
83.2551
83.0695
83.1684
82.579
82.6141
82.6125
82.9091
82.5992
82.6339
82.1253
82.3415
82.1606
82.348
81.7019
81.7507
81.5245
81.7304
81.1867
81.2112
80.7295
80.897
80.2973
80.2585
79.6457
79.6651
79.0703
78.8771
78.1378
77.9024
77.1092
76.643
75.7586
75.0961
74.0635
73.2116
72.0226
70.7981
69.3785
67.9395
66.3483
64.4734
62.4453
60.3002
57.9465
55.422
52.7441
49.8576
46.7398
43.5252
56.5019
56.3482
55.7661
55.359
55.1552
55.0501
55.0889
55.185
55.2761
55.3737
55.3854
55.3154
55.2688
55.2379
55.1945
55.1166
55.0392
55.046
55.0066
54.8846
54.9221
55.1128
55.2194
55.2063
55.31
55.6175
55.8287
55.8351
55.9397
56.1875
56.1908
55.7685
54.8702
53.3025
50.8159
47.2437
42.8104
37.7901
32.4754
27.1741
22.274
18.1792
15.2542
13.8488
14.2968
16.7294
21.1207
27.2656
34.6258
42.5473
50.4912
57.7055
63.8166
68.6483
72.3894
75.2568
77.4715
79.1594
80.4254
81.3562
82.0257
82.5019
82.8457
83.1065
83.3189
83.5005
83.656
83.7864
83.8939
83.9804
84.0484
84.1019
84.146
84.1842
84.2176
84.246
84.271
84.2958
84.321
84.3449
84.3673
84.388
84.4058
84.4198
84.4301
84.4368
84.4403
84.441
84.4395
84.4361
84.4312
84.425
84.4178
84.4098
84.4009
84.3913
84.381
84.37