/*--------------------------------*- C++ -*----------------------------------*\
| =========                 |                                                 |
| \\      /  F ield         | OpenFOAM: The Open Source CFD Toolbox           |
|  \\    /   O peration     | Version:  2.4.0                                 |
|   \\  /    A nd           | Web:      www.OpenFOAM.org                      |
|    \\/     M anipulation  |                                                 |
\*---------------------------------------------------------------------------*/
FoamFile
{
    version     2.0;
    format      ascii;
    class       volScalarField;
    location    "0.04";
    object      pMean;
}
// * * * * * * * * * * * * * * * * * * * * * * * * * * * * * * * * * * * * * //

dimensions      [0 2 -2 0 0 0 0];

internalField   nonuniform List<scalar> 
8800
(
188.995
175.185
166.526
161.907
158.876
156.315
153.865
151.455
149.071
146.724
144.362
142.029
139.7
137.4
135.068
132.769
130.346
127.8
124.955
119.856
186.031
174.837
166.676
162.011
158.932
156.339
153.871
151.454
149.068
146.722
144.36
142.026
139.701
137.397
135.077
132.761
130.376
127.826
125.023
121.592
184.155
174.887
167.22
162.35
159.088
156.415
153.915
151.482
149.085
146.731
144.364
142.028
139.703
137.398
135.083
132.762
130.405
127.881
125.381
122.531
182.688
174.926
167.749
162.724
159.257
156.503
153.98
151.536
149.126
146.756
144.38
142.036
139.711
137.404
135.095
132.782
130.432
128.005
125.59
123.415
181.497
174.884
168.178
163.075
159.41
156.573
154.038
151.597
149.182
146.79
144.407
142.046
139.727
137.413
135.117
132.805
130.486
128.129
125.894
124.307
180.557
174.781
168.51
163.377
159.544
156.619
154.079
151.65
149.234
146.827
144.431
142.061
139.736
137.429
135.137
132.844
130.554
128.282
126.222
125.009
179.839
174.661
168.756
163.621
159.662
156.647
154.105
151.691
149.279
146.859
144.453
142.072
139.745
137.445
135.159
132.888
130.631
128.447
126.538
125.611
179.319
174.553
168.927
163.806
159.762
156.666
154.12
151.72
149.313
146.885
144.47
142.082
139.755
137.462
135.189
132.939
130.726
128.61
126.84
126.105
178.982
174.474
169.035
163.93
159.833
156.677
154.126
151.74
149.337
146.905
144.481
142.09
139.763
137.479
135.218
132.993
130.82
128.772
127.111
126.51
178.818
174.431
169.087
163.993
159.87
156.682
154.129
151.75
149.35
146.916
144.489
142.098
139.773
137.498
135.253
133.051
130.914
128.926
127.35
126.846
178.819
174.43
169.087
163.993
159.871
156.681
154.129
151.751
149.351
146.919
144.492
142.104
139.783
137.517
135.289
133.108
131.007
129.069
127.557
127.119
178.985
174.472
169.035
163.93
159.835
156.676
154.127
151.742
149.341
146.913
144.492
142.109
139.793
137.538
135.325
133.166
131.096
129.201
127.731
127.332
179.323
174.55
168.929
163.805
159.765
156.664
154.12
151.725
149.321
146.899
144.488
142.114
139.803
137.558
135.361
133.223
131.181
129.323
127.873
127.484
179.845
174.657
168.758
163.62
159.666
156.645
154.106
151.697
149.29
146.876
144.48
142.116
139.814
137.578
135.396
133.279
131.263
129.436
127.987
127.564
180.565
174.775
168.512
163.375
159.55
156.616
154.079
151.658
149.25
146.845
144.468
142.118
139.824
137.595
135.429
133.33
131.343
129.543
128.087
127.565
181.505
174.879
168.18
163.073
159.418
156.571
154.038
151.607
149.201
146.808
144.452
142.117
139.832
137.609
135.46
133.375
131.422
129.642
128.187
127.491
182.698
174.92
167.75
162.72
159.266
156.504
153.979
151.548
149.15
146.773
144.435
142.115
139.838
137.621
135.486
133.415
131.491
129.729
128.284
127.374
184.164
174.882
167.221
162.346
159.098
156.417
153.914
151.494
149.112
146.749
144.424
142.115
139.843
137.632
135.505
133.447
131.543
129.797
128.357
127.264
186.041
174.833
166.676
162.007
158.942
156.342
153.871
151.468
149.096
146.741
144.422
142.119
139.849
137.641
135.516
133.467
131.57
129.84
128.395
127.186
189.005
175.181
166.526
161.903
158.886
156.318
153.865
151.469
149.099
146.745
144.425
142.121
139.852
137.645
135.52
133.475
131.579
129.856
128.41
127.282
117.343
117.394
117.277
116.962
116.581
116.17
115.655
115.027
114.296
113.48
112.574
111.563
110.471
109.37
108.358
107.517
106.901
106.559
106.527
106.825
107.46
108.417
109.662
111.152
112.83
114.627
116.478
118.329
120.142
121.895
123.569
125.147
126.627
128.005
129.279
130.453
131.537
132.534
133.453
134.304
135.088
135.806
136.457
137.036
137.541
137.966
138.31
138.571
138.756
138.875
138.937
138.947
138.916
138.851
138.76
138.647
138.518
138.375
138.22
138.055
137.882
137.701
137.516
137.326
137.133
136.937
136.738
136.538
136.336
136.132
135.927
135.721
135.514
135.307
135.099
134.89
134.681
134.471
134.261
134.05
133.839
133.628
133.416
133.205
132.993
132.781
132.569
132.357
132.145
131.933
131.721
131.509
131.297
131.085
130.872
130.66
130.448
130.236
130.023
129.811
129.598
129.386
129.174
128.961
128.749
128.536
128.324
128.111
127.899
127.686
127.474
127.261
127.049
126.836
126.623
126.411
126.198
125.985
125.773
125.56
125.349
125.137
124.927
124.716
124.509
124.3
124.096
123.89
123.688
123.483
123.282
123.076
122.874
122.668
122.463
122.258
122.051
121.846
121.639
121.435
121.227
121.025
120.816
120.614
120.404
120.202
119.992
119.791
119.581
119.38
119.168
118.969
118.756
118.557
118.342
118.143
117.926
117.728
117.509
117.309
117.088
116.887
116.663
116.46
116.232
116.026
115.794
115.582
115.347
115.126
114.887
114.653
114.409
114.16
113.906
113.638
113.37
113.078
112.793
112.463
112.157
111.777
111.439
110.995
110.602
110.093
109.582
108.993
108.312
107.571
106.611
105.566
104.142
102.445
100.195
97.264
93.1367
86.6025
78.8658
48.1299
119.431
118.871
118.701
118.358
117.911
117.45
116.96
116.397
115.724
114.937
114.039
113.046
111.994
110.956
110.015
109.232
108.657
108.337
108.31
108.588
109.169
110.04
111.176
112.527
114.044
115.678
117.376
119.089
120.777
122.413
123.978
125.453
126.836
128.125
129.315
130.411
131.426
132.366
133.237
134.05
134.804
135.498
136.134
136.708
137.212
137.643
137.999
138.281
138.488
138.629
138.713
138.747
138.739
138.694
138.621
138.524
138.409
138.278
138.134
137.979
137.813
137.641
137.462
137.278
137.09
136.899
136.705
136.508
136.308
136.107
135.905
135.701
135.496
135.29
135.084
134.877
134.669
134.46
134.251
134.041
133.831
133.621
133.41
133.199
132.988
132.777
132.565
132.354
132.142
131.93
131.718
131.507
131.295
131.082
130.87
130.658
130.446
130.234
130.021
129.809
129.597
129.384
129.172
128.96
128.747
128.535
128.322
128.109
127.897
127.684
127.471
127.258
127.046
126.833
126.62
126.407
126.194
125.98
125.768
125.554
125.342
125.128
124.919
124.706
124.5
124.289
124.088
123.878
123.682
123.473
123.278
123.068
122.872
122.659
122.46
122.246
122.045
121.832
121.631
121.419
121.218
121.005
120.805
120.591
120.39
120.176
119.975
119.761
119.56
119.346
119.143
118.928
118.725
118.509
118.305
118.087
117.882
117.662
117.455
117.232
117.024
116.796
116.586
116.353
116.139
115.899
115.682
115.434
115.211
114.951
114.721
114.448
114.207
113.92
113.659
113.356
113.066
112.746
112.416
112.066
111.687
111.298
110.852
110.406
109.854
109.339
108.653
108.018
107.195
106.3
105.225
103.899
102.34
100.249
97.6245
93.9507
89.8688
79.5078
71.6799
42.7462
121.003
120.387
119.896
119.455
119.023
118.597
118.139
117.611
116.969
116.204
115.333
114.387
113.413
112.468
111.614
110.908
110.402
110.137
110.139
110.414
110.957
111.755
112.781
113.999
115.369
116.85
118.396
119.965
121.514
123.013
124.445
125.791
127.047
128.219
129.306
130.313
131.257
132.138
132.96
133.733
134.46
135.14
135.769
136.345
136.858
137.302
137.676
137.978
138.212
138.382
138.493
138.55
138.564
138.542
138.488
138.408
138.306
138.187
138.053
137.907
137.75
137.584
137.411
137.233
137.05
136.864
136.673
136.48
136.283
136.085
135.884
135.682
135.479
135.275
135.07
134.864
134.657
134.45
134.242
134.033
133.824
133.614
133.404
133.194
132.983
132.772
132.561
132.35
132.139
131.927
131.716
131.504
131.292
131.08
130.868
130.656
130.444
130.232
130.02
129.807
129.595
129.383
129.17
128.958
128.745
128.533
128.32
128.107
127.895
127.682
127.469
127.256
127.043
126.829
126.616
126.403
126.189
125.975
125.762
125.547
125.335
125.119
124.909
124.693
124.488
124.274
124.076
123.862
123.671
123.457
123.269
123.053
122.863
122.644
122.45
122.229
122.033
121.813
121.618
121.399
121.204
120.985
120.788
120.569
120.371
120.151
119.953
119.733
119.534
119.314
119.113
118.892
118.688
118.468
118.26
118.04
117.829
117.606
117.391
117.167
116.948
116.72
116.495
116.264
116.03
115.795
115.553
115.309
115.055
114.804
114.534
114.271
113.983
113.706
113.391
113.095
112.747
112.424
112.035
111.667
111.234
110.799
110.311
109.779
109.211
108.55
107.873
107.009
106.157
105.026
103.793
102.246
100.418
97.8667
95.6975
89.6909
87.7183
73.9486
64.8834
45.1389
122.954
122.273
121.122
120.212
119.641
119.266
118.922
118.513
117.987
117.333
116.574
115.748
114.9
114.079
113.337
112.728
112.298
112.08
112.096
112.351
112.841
113.556
114.474
115.566
116.794
118.117
119.5
120.903
122.282
123.616
124.89
126.087
127.204
128.253
129.237
130.156
131.025
131.848
132.624
133.364
134.069
134.737
135.363
135.943
136.469
136.934
137.332
137.663
137.926
138.127
138.268
138.354
138.392
138.391
138.357
138.293
138.206
138.099
137.976
137.839
137.69
137.531
137.364
137.191
137.012
136.83
136.643
136.453
136.259
136.063
135.864
135.664
135.463
135.26
135.057
134.852
134.646
134.44
134.233
134.025
133.816
133.608
133.398
133.189
132.978
132.768
132.558
132.347
132.136
131.924
131.713
131.502
131.29
131.078
130.866
130.654
130.442
130.23
130.018
129.806
129.594
129.381
129.169
128.956
128.744
128.531
128.318
128.105
127.892
127.679
127.466
127.253
127.04
126.826
126.613
126.399
126.185
125.97
125.757
125.54
125.327
125.109
124.899
124.679
124.475
124.254
124.06
123.839
123.655
123.431
123.254
123.024
122.847
122.612
122.431
122.194
122.011
121.773
121.594
121.355
121.18
120.94
120.765
120.521
120.343
120.099
119.921
119.679
119.501
119.257
119.076
118.829
118.647
118.4
118.215
117.967
117.777
117.526
117.33
117.077
116.878
116.619
116.412
116.15
115.933
115.664
115.439
115.158
114.92
114.628
114.375
114.062
113.792
113.458
113.162
112.796
112.47
112.063
111.694
111.228
110.807
110.262
109.766
109.118
108.516
107.739
106.994
106.028
105.122
103.765
102.654
100.249
99.5082
94.6205
94.8383
85.5529
83.388
70.6584
58.9576
46.7293
124.385
123.616
122.025
120.772
120.035
119.679
119.473
119.235
118.878
118.385
117.778
117.094
116.378
115.682
115.056
114.548
114.193
114.019
114.045
114.281
114.724
115.363
116.177
117.14
118.218
119.373
120.575
121.792
122.991
124.15
125.261
126.311
127.296
128.231
129.115
129.948
130.743
131.508
132.238
132.942
133.624
134.278
134.901
135.489
136.032
136.522
136.954
137.324
137.626
137.862
138.036
138.152
138.218
138.242
138.228
138.182
138.109
138.014
137.9
137.771
137.63
137.478
137.317
137.148
136.974
136.795
136.612
136.425
136.234
136.041
135.845
135.647
135.447
135.246
135.044
134.841
134.636
134.431
134.225
134.018
133.81
133.602
133.393
133.184
132.974
132.764
132.554
132.343
132.133
131.922
131.711
131.499
131.288
131.076
130.864
130.653
130.441
130.229
130.016
129.804
129.592
129.38
129.167
128.955
128.742
128.529
128.316
128.103
127.89
127.677
127.464
127.251
127.037
126.823
126.61
126.395
126.181
125.965
125.751
125.533
125.32
125.098
124.888
124.663
124.46
124.233
124.041
123.814
123.634
123.404
123.23
122.994
122.82
122.576
122.401
122.152
121.98
121.725
121.56
121.301
121.144
120.88
120.728
120.457
120.306
120.029
119.882
119.602
119.463
119.175
119.039
118.741
118.606
118.304
118.173
117.862
117.731
117.41
117.278
116.951
116.818
116.479
116.343
115.994
115.851
115.491
115.341
114.964
114.802
114.409
114.233
113.814
113.622
113.172
112.955
112.464
112.217
111.674
111.381
110.763
110.412
109.684
109.26
108.35
107.868
106.656
106.234
104.435
104.366
101.445
102.007
97.3028
98.274
91.6478
90.8886
82.5222
76.5388
68.2167
56.5046
48.2892
125.491
124.756
122.965
121.483
120.555
120.106
119.927
119.805
119.608
119.289
118.85
118.32
117.743
117.176
116.663
116.247
115.961
115.83
115.872
116.093
116.489
117.05
117.758
118.59
119.517
120.506
121.531
122.57
123.598
124.595
125.556
126.47
127.337
128.162
128.948
129.695
130.414
131.113
131.789
132.451
133.105
133.745
134.367
134.969
135.54
136.069
136.544
136.959
137.309
137.591
137.806
137.959
138.056
138.101
138.105
138.076
138.018
137.935
137.83
137.709
137.575
137.43
137.275
137.111
136.941
136.765
136.585
136.4
136.212
136.021
135.827
135.63
135.432
135.233
135.031
134.829
134.625
134.421
134.215
134.009
133.803
133.595
133.387
133.179
132.97
132.76
132.55
132.34
132.13
131.919
131.708
131.497
131.286
131.074
130.863
130.651
130.439
130.227
130.015
129.803
129.59
129.378
129.166
128.953
128.74
128.527
128.315
128.102
127.888
127.675
127.462
127.248
127.035
126.82
126.606
126.391
126.177
125.96
125.746
125.527
125.313
125.089
124.877
124.647
124.443
124.21
124.02
123.786
123.61
123.372
123.197
122.949
122.767
122.512
122.333
122.074
121.904
121.64
121.48
121.208
121.057
120.773
120.63
120.336
120.2
119.897
119.771
119.457
119.344
119.016
118.912
118.567
118.473
118.114
118.035
117.656
117.586
117.184
117.129
116.705
116.665
116.21
116.182
115.696
115.683
115.163
115.162
114.599
114.612
114.002
114.028
113.357
113.399
112.654
112.706
111.868
111.936
110.982
111.063
109.944
110.054
108.712
108.863
107.181
107.428
105.239
105.657
102.705
103.242
99.4325
99.6453
95.2336
93.94
89.2267
84.9941
79.7516
72.5267
67.4586
57.5667
50.5715
126.32
125.627
123.733
122.082
121.001
120.469
120.309
120.291
120.248
120.101
119.833
119.46
119.018
118.557
118.13
117.778
117.542
117.443
117.493
117.696
118.047
118.537
119.149
119.863
120.655
121.497
122.366
123.247
124.119
124.97
125.794
126.583
127.332
128.047
128.731
129.384
130.016
130.64
131.255
131.869
132.493
133.121
133.75
134.373
134.98
135.557
136.091
136.567
136.975
137.309
137.569
137.761
137.89
137.963
137.99
137.976
137.931
137.858
137.762
137.648
137.52
137.38
137.23
137.071
136.905
136.733
136.556
136.375
136.189
136
135.809
135.615
135.419
135.221
135.021
134.82
134.618
134.414
134.21
134.004
133.798
133.591
133.383
133.175
132.966
132.757
132.547
132.337
132.127
131.917
131.706
131.495
131.284
131.072
130.861
130.649
130.437
130.225
130.013
129.801
129.589
129.377
129.164
128.951
128.739
128.526
128.313
128.1
127.887
127.673
127.46
127.246
127.032
126.818
126.604
126.388
126.174
125.957
125.742
125.522
125.307
125.081
124.868
124.635
124.427
124.19
123.994
123.758
123.572
123.333
123.136
122.884
122.677
122.419
122.218
121.962
121.777
121.518
121.347
121.076
120.909
120.62
120.456
120.16
120.009
119.708
119.567
119.251
119.117
118.782
118.66
118.311
118.201
117.836
117.739
117.347
117.265
116.843
116.779
116.33
116.285
115.793
115.769
115.235
115.234
114.651
114.674
114.027
114.077
113.364
113.439
112.641
112.742
111.851
111.972
110.963
111.108
109.954
110.116
108.773
108.94
107.371
107.517
105.646
105.728
103.489
103.388
100.765
100.15
97.2818
95.6324
92.6563
89.6383
86.2901
81.7806
78.527
72.4269
68.6597
60.653
53.6814
126.909
126.267
124.375
122.682
121.555
120.981
120.821
120.856
120.906
120.873
120.727
120.47
120.13
119.755
119.397
119.104
118.913
118.843
118.9
119.09
119.406
119.836
120.365
120.977
121.649
122.361
123.094
123.835
124.567
125.283
125.977
126.64
127.271
127.87
128.444
128.994
129.532
130.071
130.619
131.184
131.78
132.402
133.043
133.697
134.352
134.99
135.593
136.147
136.629
137.026
137.34
137.576
137.741
137.842
137.889
137.892
137.859
137.797
137.711
137.604
137.482
137.347
137.201
137.046
136.883
136.713
136.537
136.357
136.172
135.984
135.793
135.601
135.406
135.208
135.009
134.809
134.608
134.405
134.201
133.997
133.791
133.585
133.378
133.17
132.962
132.753
132.544
132.334
132.124
131.914
131.704
131.493
131.282
131.071
130.859
130.648
130.436
130.224
130.012
129.8
129.588
129.375
129.163
128.95
128.737
128.524
128.311
128.098
127.885
127.671
127.458
127.244
127.03
126.815
126.601
126.385
126.171
125.953
125.738
125.518
125.303
125.077
124.861
124.628
124.413
124.174
123.963
123.723
123.515
123.27
123.05
122.798
122.572
122.321
122.105
121.854
121.652
121.399
121.209
120.941
120.749
120.461
120.273
119.98
119.807
119.51
119.345
119.03
118.86
118.529
118.373
118.032
117.889
117.526
117.383
116.999
116.868
116.462
116.343
115.907
115.795
115.327
115.228
114.72
114.638
114.082
114.01
113.398
113.344
112.664
112.623
111.859
111.828
110.967
110.942
109.96
109.925
108.797
108.735
107.432
107.289
105.783
105.502
103.775
103.251
101.302
100.385
98.249
96.747
94.5001
92.3697
90.0564
87.3131
84.9275
81.2406
78.9145
73.8628
70.0571
63.3263
56.5936
127.376
126.78
124.93
123.241
122.089
121.477
121.301
121.361
121.472
121.526
121.482
121.332
121.094
120.809
120.526
120.291
120.141
120.094
120.157
120.332
120.613
120.986
121.44
121.961
122.526
123.121
123.732
124.347
124.952
125.541
126.108
126.647
127.154
127.633
128.09
128.53
128.965
129.415
129.893
130.411
130.978
131.594
132.253
132.947
133.658
134.369
135.058
135.7
136.267
136.74
137.116
137.4
137.599
137.727
137.795
137.813
137.792
137.74
137.662
137.562
137.445
137.314
137.172
137.02
136.86
136.693
136.52
136.341
136.158
135.971
135.782
135.59
135.397
135.201
135.003
134.803
134.602
134.4
134.196
133.992
133.787
133.581
133.375
133.167
132.959
132.751
132.542
132.332
132.122
131.912
131.702
131.491
131.28
131.069
130.858
130.646
130.435
130.223
130.011
129.799
129.586
129.374
129.161
128.949
128.736
128.523
128.31
128.097
127.883
127.669
127.456
127.242
127.028
126.813
126.598
126.383
126.168
125.95
125.735
125.515
125.3
125.075
124.858
124.625
124.403
124.16
123.931
123.681
123.446
123.197
122.957
122.715
122.479
122.238
122.011
121.762
121.543
121.285
121.075
120.806
120.593
120.313
120.103
119.815
119.614
119.32
119.121
118.809
118.606
118.281
118.092
117.757
117.573
117.212
117.022
116.643
116.466
116.069
115.893
115.462
115.283
114.827
114.656
114.167
113.991
113.46
113.282
112.706
112.523
111.891
111.691
110.99
110.771
109.994
109.732
108.861
108.541
107.562
107.142
106.041
105.472
104.235
103.463
102.088
101.049
99.5409
98.1937
96.6
94.9295
93.2283
91.2466
89.5956
87.2365
85.5666
82.2391
79.9272
75.3042
71.0971
65.2587
59.0193
127.751
127.194
125.395
123.732
122.588
121.98
121.817
121.913
122.08
122.201
122.231
122.159
121.996
121.779
121.551
121.358
121.235
121.202
121.263
121.42
121.668
121.993
122.383
122.823
123.299
123.795
124.299
124.801
125.29
125.759
126.203
126.616
126.998
127.351
127.682
128.002
128.33
128.685
129.087
129.551
130.086
130.694
131.375
132.116
132.9
133.703
134.497
135.241
135.901
136.456
136.901
137.239
137.479
137.636
137.726
137.76
137.748
137.702
137.629
137.534
137.419
137.289
137.148
136.997
136.839
136.673
136.501
136.324
136.143
135.957
135.769
135.578
135.384
135.189
134.992
134.793
134.593
134.392
134.189
133.986
133.781
133.576
133.37
133.163
132.956
132.747
132.539
132.33
132.12
131.91
131.7
131.489
131.279
131.068
130.856
130.645
130.433
130.221
130.01
129.797
129.585
129.373
129.16
128.947
128.735
128.522
128.308
128.095
127.882
127.668
127.454
127.24
127.026
126.811
126.596
126.38
126.165
125.948
125.732
125.513
125.297
125.074
124.855
124.625
124.396
124.152
123.905
123.647
123.387
123.135
122.884
122.649
122.409
122.175
121.939
121.693
121.456
121.194
120.958
120.692
120.455
120.193
119.953
119.683
119.44
119.157
118.916
118.623
118.379
118.077
117.837
117.522
117.278
116.946
116.692
116.345
116.099
115.733
115.477
115.082
114.817
114.403
114.137
113.688
113.4
112.92
112.622
112.103
111.776
111.21
110.849
110.232
109.825
109.15
108.677
107.931
107.376
106.554
105.884
104.976
104.169
103.178
102.201
101.129
99.9764
98.8166
97.4674
96.3
94.7365
93.6393
91.7793
90.6801
88.2061
86.6473
83.2223
80.5318
76.2228
71.8016
66.572
60.9564
128.044
127.517
125.772
124.159
123.057
122.481
122.348
122.473
122.672
122.831
122.903
122.879
122.769
122.606
122.429
122.279
122.189
122.174
122.241
122.389
122.612
122.897
123.235
123.61
124.008
124.415
124.82
125.218
125.596
125.948
126.27
126.559
126.811
127.031
127.23
127.425
127.638
127.895
128.221
128.635
129.147
129.763
130.479
131.279
132.147
133.051
133.947
134.79
135.544
136.183
136.698
137.091
137.369
137.553
137.664
137.713
137.712
137.673
137.605
137.512
137.4
137.273
137.132
136.983
136.826
136.662
136.491
136.314
136.133
135.948
135.76
135.57
135.379
135.185
134.988
134.79
134.59
134.388
134.186
133.983
133.778
133.574
133.368
133.161
132.954
132.746
132.537
132.328
132.118
131.909
131.698
131.488
131.277
131.066
130.855
130.644
130.432
130.22
130.008
129.796
129.584
129.372
129.159
128.946
128.733
128.52
128.307
128.094
127.88
127.666
127.452
127.238
127.024
126.809
126.594
126.378
126.163
125.946
125.73
125.511
125.294
125.073
124.852
124.625
124.394
124.151
123.896
123.633
123.362
123.105
122.851
122.614
122.376
122.141
121.904
121.659
121.412
121.148
120.889
120.624
120.372
120.116
119.864
119.598
119.335
119.054
118.786
118.504
118.237
117.947
117.672
117.365
117.081
116.77
116.477
116.152
115.851
115.508
115.196
114.836
114.506
114.128
113.785
113.382
113.008
112.58
112.189
111.731
111.297
110.8
110.33
109.797
109.27
108.688
108.102
107.47
106.804
106.114
105.361
104.616
103.757
102.973
101.985
101.187
100.066
99.2944
97.994
97.2755
95.6941
94.9305
92.8795
91.755
89.0431
87.1793
83.7812
80.6962
76.6732
72.354
67.5822
62.5471
128.268
127.764
126.075
124.531
123.493
122.974
122.885
123.04
123.263
123.446
123.548
123.56
123.493
123.377
123.247
123.139
123.079
123.083
123.153
123.29
123.489
123.736
124.02
124.33
124.653
124.974
125.287
125.586
125.859
126.101
126.306
126.47
126.594
126.683
126.751
126.822
126.928
127.102
127.371
127.758
128.27
128.909
129.671
130.537
131.484
132.477
133.463
134.399
135.241
135.957
136.536
136.978
137.291
137.497
137.623
137.682
137.688
137.652
137.586
137.495
137.383
137.256
137.116
136.966
136.809
136.646
136.475
136.3
136.12
135.937
135.751
135.562
135.371
135.176
134.98
134.782
134.583
134.383
134.182
133.979
133.775
133.57
133.365
133.158
132.951
132.743
132.535
132.326
132.116
131.907
131.697
131.487
131.276
131.065
130.854
130.643
130.431
130.219
130.007
129.795
129.583
129.371
129.158
128.945
128.732
128.519
128.306
128.093
127.879
127.665
127.451
127.237
127.022
126.807
126.592
126.377
126.161
125.944
125.728
125.51
125.292
125.072
124.85
124.627
124.394
124.159
123.903
123.649
123.375
123.118
122.861
122.619
122.38
122.143
121.905
121.662
121.409
121.151
120.883
120.62
120.361
120.106
119.85
119.589
119.316
119.041
118.756
118.484
118.204
117.925
117.632
117.333
117.028
116.73
116.42
116.112
115.782
115.454
115.116
114.782
114.424
114.068
113.687
113.319
112.914
112.521
112.087
111.674
111.203
110.762
110.249
109.785
109.219
108.725
108.099
107.588
106.884
106.354
105.568
105.043
104.148
103.641
102.611
102.134
100.929
100.471
99.0259
98.4912
96.6981
95.8748
93.6175
92.2069
89.4271
87.1538
83.9291
80.6602
76.8873
72.8357
68.4584
63.8875
128.416
127.929
126.307
124.856
123.909
123.471
123.439
123.623
123.858
124.047
124.158
124.186
124.144
124.06
123.968
123.895
123.863
123.884
123.959
124.089
124.265
124.477
124.714
124.966
125.221
125.467
125.697
125.906
126.085
126.225
126.32
126.369
126.374
126.345
126.302
126.277
126.306
126.426
126.665
127.042
127.565
128.233
129.037
129.957
130.968
132.029
133.09
134.103
135.018
135.797
136.429
136.911
137.25
137.475
137.611
137.677
137.687
137.653
137.586
137.494
137.383
137.255
137.115
136.964
136.806
136.642
136.472
136.297
136.117
135.934
135.747
135.558
135.366
135.172
134.976
134.779
134.58
134.38
134.179
133.977
133.773
133.569
133.363
133.157
132.95
132.742
132.533
132.325
132.115
131.906
131.696
131.486
131.275
131.064
130.853
130.642
130.43
130.219
130.007
129.795
129.582
129.37
129.157
128.944
128.731
128.518
128.305
128.091
127.878
127.664
127.45
127.235
127.021
126.806
126.591
126.375
126.159
125.943
125.726
125.509
125.29
125.072
124.849
124.63
124.397
124.172
123.922
123.687
123.419
123.172
122.908
122.665
122.419
122.184
121.94
121.705
121.449
121.209
120.936
120.69
120.417
120.172
119.906
119.658
119.381
119.125
118.829
118.573
118.277
118.021
117.715
117.443
117.12
116.843
116.516
116.241
115.893
115.603
115.236
114.944
114.563
114.259
113.845
113.533
113.097
112.779
112.304
111.972
111.46
111.128
110.563
110.223
109.605
109.268
108.578
108.249
107.48
107.166
106.295
106.002
105.01
104.724
103.581
103.269
101.931
101.504
99.9194
99.2401
97.3311
96.205
93.9041
92.1283
89.4861
86.9377
83.8887
80.6498
77.0903
73.303
69.2606
65.0459
128.458
127.989
126.469
125.153
124.329
123.994
124.023
124.224
124.451
124.626
124.727
124.756
124.73
124.675
124.62
124.585
124.584
124.625
124.706
124.829
124.984
125.16
125.349
125.545
125.735
125.908
126.058
126.183
126.272
126.317
126.315
126.263
126.168
126.048
125.927
125.842
125.831
125.931
126.167
126.551
127.091
127.786
128.626
129.589
130.647
131.756
132.868
133.929
134.887
135.706
136.37
136.875
137.23
137.464
137.605
137.674
137.686
137.653
137.586
137.494
137.381
137.252
137.111
136.96
136.802
136.637
136.466
136.291
136.111
135.928
135.742
135.553
135.362
135.168
134.973
134.776
134.577
134.377
134.175
133.973
133.77
133.565
133.36
133.154
132.947
132.74
132.532
132.323
132.114
131.905
131.695
131.485
131.274
131.063
130.852
130.641
130.429
130.218
130.006
129.794
129.581
129.369
129.156
128.944
128.731
128.517
128.304
128.09
127.877
127.663
127.449
127.234
127.02
126.805
126.589
126.374
126.158
125.942
125.724
125.509
125.289
125.073
124.848
124.633
124.401
124.188
123.945
123.732
123.474
123.25
122.981
122.749
122.487
122.261
122.005
121.785
121.523
121.309
121.034
120.815
120.529
120.303
120.02
119.798
119.51
119.29
118.985
118.759
118.44
118.218
117.893
117.672
117.328
117.099
116.741
116.514
116.144
115.918
115.519
115.292
114.873
114.651
114.201
113.976
113.491
113.275
112.752
112.536
111.965
111.761
111.137
110.939
110.249
110.065
109.302
109.126
108.278
108.104
107.153
106.957
105.884
105.628
104.403
104.019
102.611
102.003
100.362
99.4034
97.5017
96.0487
93.8891
91.8509
89.3654
86.7508
83.8357
80.7086
77.3367
73.7681
69.9899
66.0442
128.329
127.895
126.561
125.449
124.792
124.571
124.646
124.838
125.029
125.169
125.244
125.266
125.252
125.225
125.204
125.201
125.225
125.278
125.358
125.464
125.589
125.725
125.865
126.001
126.126
126.228
126.304
126.353
126.368
126.34
126.267
126.151
126.001
125.835
125.68
125.571
125.55
125.65
125.894
126.292
126.852
127.572
128.439
129.433
130.521
131.661
132.8
133.884
134.861
135.697
136.373
136.886
137.247
137.483
137.624
137.692
137.701
137.666
137.597
137.501
137.386
137.255
137.113
136.961
136.802
136.636
136.465
136.289
136.109
135.926
135.739
135.55
135.358
135.165
134.97
134.773
134.575
134.375
134.174
133.972
133.769
133.565
133.359
133.153
132.947
132.739
132.531
132.322
132.113
131.904
131.694
131.484
131.273
131.063
130.852
130.64
130.429
130.217
130.005
129.793
129.581
129.368
129.156
128.943
128.73
128.517
128.303
128.09
127.876
127.662
127.448
127.233
127.019
126.804
126.588
126.373
126.157
125.941
125.724
125.508
125.288
125.074
124.849
124.638
124.407
124.203
123.965
123.771
123.522
123.324
123.058
122.846
122.571
122.36
122.09
121.887
121.619
121.426
121.152
120.963
120.671
120.475
120.174
119.981
119.68
119.496
119.184
118.998
118.662
118.475
118.131
117.955
117.599
117.424
117.042
116.865
116.47
116.305
115.888
115.723
115.274
115.119
114.644
114.496
113.98
113.837
113.284
113.15
112.549
112.42
111.765
111.64
110.922
110.792
110.001
109.853
108.982
108.792
107.827
107.558
106.481
106.084
104.867
104.271
102.893
102.01
100.452
99.207
97.4483
95.7665
93.7344
91.5984
89.2114
86.6369
83.836
80.8339
77.621
74.224
70.6464
66.9128
127.978
127.611
126.599
125.785
125.333
125.21
125.285
125.425
125.553
125.64
125.684
125.696
125.693
125.689
125.693
125.713
125.75
125.803
125.871
125.954
126.047
126.141
126.232
126.316
126.383
126.428
126.447
126.444
126.416
126.353
126.25
126.113
125.948
125.777
125.626
125.525
125.513
125.626
125.883
126.295
126.872
127.612
128.5
129.509
130.606
131.746
132.881
133.957
134.926
135.753
136.422
136.926
137.281
137.512
137.65
137.714
137.721
137.684
137.612
137.514
137.396
137.263
137.119
136.965
136.805
136.638
136.467
136.29
136.11
135.926
135.739
135.55
135.359
135.165
134.969
134.772
134.574
134.374
134.172
133.97
133.767
133.563
133.358
133.152
132.945
132.738
132.53
132.322
132.113
131.903
131.693
131.483
131.273
131.062
130.851
130.64
130.428
130.217
130.005
129.793
129.58
129.368
129.155
128.942
128.729
128.516
128.303
128.089
127.875
127.661
127.447
127.232
127.018
126.803
126.587
126.372
126.156
125.941
125.723
125.508
125.288
125.075
124.851
124.643
124.413
124.215
123.98
123.797
123.554
123.378
123.117
122.934
122.654
122.466
122.183
122.001
121.721
121.551
121.269
121.109
120.811
120.649
120.336
120.175
119.858
119.707
119.382
119.238
118.891
118.744
118.382
118.244
117.874
117.745
117.35
117.22
116.805
116.682
116.253
116.134
115.673
115.555
115.069
114.957
114.438
114.323
113.765
113.648
113.053
112.925
112.279
112.132
111.437
111.256
110.494
110.258
109.427
109.107
108.187
107.749
106.733
106.124
104.995
104.163
102.902
101.801
100.37
98.9521
97.2882
95.5216
93.5514
91.4168
89.0912
86.5827
83.8804
80.9906
77.9119
74.6555
71.2359
67.67
127.507
127.247
126.638
126.154
125.892
125.817
125.846
125.906
125.959
125.992
126.006
126.011
126.015
126.025
126.043
126.071
126.108
126.153
126.205
126.263
126.325
126.386
126.44
126.484
126.515
126.526
126.515
126.487
126.443
126.374
126.266
126.129
125.98
125.834
125.708
125.626
125.639
125.779
126.062
126.497
127.092
127.844
128.737
129.744
130.831
131.953
133.061
134.107
135.046
135.847
136.492
136.978
137.32
137.544
137.675
137.736
137.74
137.7
137.626
137.525
137.405
137.27
137.123
136.969
136.807
136.64
136.467
136.29
136.109
135.925
135.738
135.548
135.357
135.163
134.968
134.771
134.573
134.373
134.172
133.97
133.767
133.563
133.358
133.152
132.945
132.738
132.53
132.322
132.113
131.903
131.693
131.483
131.273
131.062
130.851
130.64
130.428