/*--------------------------------*- C++ -*----------------------------------*\
| =========                 |                                                 |
| \\      /  F ield         | OpenFOAM: The Open Source CFD Toolbox           |
|  \\    /   O peration     | Version:  2.4.0                                 |
|   \\  /    A nd           | Web:      www.OpenFOAM.org                      |
|    \\/     M anipulation  |                                                 |
\*---------------------------------------------------------------------------*/
FoamFile
{
    version     2.0;
    format      ascii;
    class       volScalarField;
    location    "0.75";
    object      k;
}
// * * * * * * * * * * * * * * * * * * * * * * * * * * * * * * * * * * * * * //

dimensions      [0 2 -2 0 0 0 0];

internalField   nonuniform List<scalar> 
8800
(
8.11411
10.2678
8.79771
6.81574
5.7106
4.97247
4.52509
4.14186
3.92057
3.66778
3.53782
3.37566
3.30131
3.16346
3.10005
3.00489
2.92797
2.83061
2.7677
2.57657
1.40018
4.35269
5.32205
5.2884
5.13001
4.80783
4.57311
4.28802
4.12061
3.88507
3.76638
3.59545
3.51881
3.37479
3.32649
3.229
3.17013
3.09196
3.01586
2.97612
0.0841536
0.727958
1.56528
1.95076
2.26849
2.43134
2.58239
2.60015
2.61887
2.60459
2.59237
2.53794
2.51983
2.47257
2.45701
2.40959
2.40331
2.3653
2.34788
2.3021
0.00334626
0.0695055
0.256706
0.431842
0.580661
0.689548
0.842083
0.934294
1.014
1.09105
1.17928
1.20652
1.25762
1.29816
1.33466
1.35221
1.40588
1.42254
1.45372
1.45125
0.000123277
0.00492994
0.0219258
0.0597239
0.0914383
0.113804
0.160096
0.212876
0.236809
0.280777
0.32673
0.360921
0.382079
0.43388
0.45343
0.484432
0.519523
0.578031
0.595211
0.640748
2.51963e-05
0.000307698
0.00148623
0.00515078
0.00893195
0.0115111
0.0160284
0.0272225
0.0325185
0.043101
0.0528074
0.0653863
0.0716495
0.0885162
0.0950423
0.103694
0.113184
0.139839
0.14827
0.167923
2.16493e-05
4.28333e-05
0.000123936
0.000394938
0.000694693
0.000860432
0.00112474
0.00194518
0.00250708
0.0034543
0.00500755
0.00660693
0.00749264
0.0104829
0.011791
0.0123989
0.0137184
0.018656
0.0208339
0.0252132
2.10122e-05
2.90233e-05
4.50826e-05
8.73167e-05
0.000112964
0.000120142
0.000130224
0.000164989
0.000196133
0.00023887
0.000354508
0.000443159
0.000499483
0.000794926
0.000942561
0.000918648
0.000959687
0.00119923
0.0016428
0.00204347
2.07711e-05
2.95396e-05
3.85372e-05
6.01391e-05
7.12095e-05
7.18421e-05
7.21843e-05
7.63021e-05
8.30224e-05
8.62509e-05
8.78843e-05
8.94633e-05
9.39448e-05
0.00013682
0.000147333
0.000142077
0.000139337
0.000168316
0.000234431
0.000242193
2.06926e-05
2.77093e-05
3.58878e-05
5.67567e-05
6.7746e-05
6.89921e-05
6.80793e-05
6.6047e-05
6.62086e-05
7.25509e-05
7.80142e-05
7.66389e-05
7.59741e-05
7.9336e-05
9.2136e-05
9.31606e-05
9.08804e-05
9.73738e-05
0.000111351
0.000118043
2.06416e-05
2.6856e-05
3.80545e-05
5.82334e-05
6.7369e-05
6.89544e-05
6.68593e-05
6.38724e-05
6.43667e-05
7.39188e-05
7.95829e-05
7.87696e-05
7.70558e-05
8.34555e-05
9.13599e-05
9.04858e-05
8.85886e-05
8.91549e-05
0.000100045
0.000111647
2.07742e-05
2.98639e-05
4.02304e-05
5.72204e-05
7.07815e-05
7.13834e-05
6.93087e-05
7.07216e-05
8.38238e-05
9.56802e-05
9.53965e-05
9.55979e-05
9.72976e-05
0.000111648
0.000115104
0.000122203
0.000136016
0.000182857
0.000225971
0.0002583
2.1076e-05
3.10065e-05
4.41274e-05
7.55033e-05
9.52879e-05
0.000109727
0.000124551
0.000176046
0.000218553
0.000318576
0.000359939
0.00045906
0.000511553
0.000621779
0.000712376
0.00100756
0.00127926
0.0019505
0.00234455
0.00314634
2.16348e-05
4.33985e-05
0.00012307
0.000339033
0.000479619
0.000837527
0.00118183
0.00209839
0.00272824
0.00419429
0.00486336
0.00647433
0.00736236
0.00934261
0.0106932
0.0144614
0.0168435
0.0222885
0.0254515
0.0334682
2.4969e-05
0.00030991
0.00157538
0.00444306
0.00675317
0.0127264
0.0172303
0.0273439
0.033379
0.0462115
0.0517842
0.0646007
0.0711998
0.0858135
0.0938545
0.114405
0.125251
0.150104
0.163359
0.199157
0.000122655
0.00494868
0.0250072
0.0528422
0.079945
0.129569
0.160001
0.208363
0.242848
0.29285
0.3143
0.361025
0.384281
0.433082
0.456214
0.512871
0.538939
0.599652
0.628543
0.703862
0.00335751
0.0697598
0.263512
0.411782
0.58351
0.707721
0.833366
0.929724
1.02963
1.10091
1.15102
1.21717
1.26002
1.30918
1.3348
1.39209
1.41407
1.4646
1.48551
1.53717
0.0845397
0.729337
1.56934
1.9317
2.2853
2.43261
2.5802
2.59784
2.62878
2.59858
2.58722
2.54169
2.52718
2.477
2.46363
2.42386
2.41397
2.38407
2.37163
2.34269
1.40625
4.3511
5.32046
5.28586
5.13361
4.79735
4.59186
4.27468
4.12892
3.86894
3.7798
3.57601
3.51785
3.36663
3.32714
3.19224
3.16114
3.03924
2.99411
2.88448
8.12205
10.2657
8.79362
6.8176
5.7152
4.95786
4.54167
4.12847
3.92478
3.6468
3.55496
3.34365
3.294
3.12544
3.09259
2.92129
2.87908
2.6939
2.62168
2.39643
1.8071
1.34385
1.07573
0.926751
0.827549
0.771953
0.722746
0.693659
0.661341
0.64494
0.622934
0.615594
0.601232
0.596399
0.585525
0.579575
0.566723
0.559104
0.543787
0.535779
0.521926
0.513536
0.499917
0.491216
0.477776
0.470032
0.457807
0.451001
0.441399
0.435783
0.428509
0.425263
0.419499
0.417688
0.414075
0.412416
0.410364
0.408918
0.407211
0.405506
0.402277
0.397462
0.389432
0.380204
0.365878
0.352911
0.339113
0.324489
0.317962
0.319347
0.325256
0.337468
0.355184
0.365962
0.372026
0.375196
0.373446
0.365597
0.363634
0.360408
0.359583
0.360672
0.36271
0.363314
0.362439
0.359542
0.35704
0.347383
0.334104
0.324815
0.296843
0.286284
0.268499
0.257205
0.262432
0.270686
0.288881
0.331496
0.348105
0.362544
0.36233
0.348125
0.32367
0.293023
0.25189
0.237958
0.231308
0.212635
0.204232
0.193988
0.182921
0.175037
0.163515
0.158551
0.150009
0.141819
0.136295
0.125658
0.119249
0.111209
0.102783
0.0954015
0.0869036
0.0745122
0.0628331
0.0467547
0.0326012
0.02359
0.0203813
0.0205952
0.0224516
0.0277011
0.0352173
0.0379492
0.037933
0.0366033
0.0313986
0.0265064
0.0208655
0.0176171
0.0172673
0.0191397
0.0258861
0.0437766
0.11562
0.385467
0.627288
0.707478
0.682304
0.53098
0.334318
0.190015
0.119035
0.0874878
0.0758651
0.0756932
0.0751042
0.0792891
0.087738
0.0862307
0.0774631
0.0732659
0.0738924
0.0767274
0.0832229
0.0931224
0.0994963
0.100533
0.0946183
0.0883336
0.0894065
0.102767
0.141822
0.15274
0.148815
0.126892
0.0943596
0.0753141
0.0680857
0.0654279
0.0635532
0.063632
0.0623501
0.0617926
0.0632255
0.0658497
0.0733013
0.0769048
0.093183
0.096761
0.120048
0.123071
0.134945
0.127274
0.133731
0.132344
0.149571
0.1394
0.141965
0.113001
0.105119
0.0736566
0.0747306
0.068112
0.0694817
0.0749831
0.0750353
0.0781347
0.080693
0.0821089
0.0812593
0.0814814
0.0802597
0.0801341
0.0782386
0.0793231
0.0806189
0.0961998
0.114244
0.369865
2.51742
2.05932
1.72061
1.48817
1.31477
1.19272
1.09284
1.02017
0.954519
0.906467
0.860673
0.828121
0.795138
0.772367
0.748871
0.732195
0.713384
0.699579
0.68366
0.671538
0.65793
0.647668
0.636079
0.627679
0.616511
0.60961
0.599223
0.592771
0.582934
0.576426
0.567746
0.561302
0.553197
0.547048
0.54087
0.534294
0.530007
0.52373
0.521335
0.515517
0.513473
0.510156
0.507672
0.505996
0.499745
0.496154
0.490824
0.48017
0.476342
0.464348
0.453597
0.444523
0.42963
0.425778
0.420921
0.41567
0.413682
0.407108
0.404454
0.398492
0.393924
0.390899
0.382205
0.372129
0.36508
0.349243
0.330621
0.313723
0.275709
0.257948
0.22405
0.1947
0.175917
0.150929
0.147932
0.147544
0.147574
0.156324
0.171911
0.186254
0.232695
0.260956
0.283664
0.290336
0.284405
0.276888
0.269912
0.251714
0.236241
0.221117
0.205386
0.191258
0.173754
0.163878
0.150054
0.138996
0.126761
0.113238
0.098396
0.0831522
0.065972
0.0521323
0.0378327
0.0270317
0.0201642
0.0159932
0.0138327
0.0139696
0.015329
0.0178055
0.0216659
0.0280256
0.0334994
0.034858
0.0345317
0.0333214
0.0295762
0.0241823
0.0195052
0.0171593
0.0168317
0.0182699
0.0238736
0.0391971
0.0937839
0.336376
0.61523
0.740794
0.745735
0.635329
0.412291
0.22392
0.128499
0.0889348
0.0768271
0.0746247
0.0748442
0.0817654
0.088228
0.0879195
0.0805909
0.076841
0.0767531
0.0787295
0.081332
0.0876666
0.0945732
0.0953295
0.0929265
0.0870852
0.0860081
0.0909245
0.121301
0.143288
0.145886
0.137619
0.111192
0.0846138
0.0726092
0.0687837
0.064827
0.0645716
0.0653059
0.0667045
0.0764653
0.0790676
0.0939373
0.0945705
0.113282
0.10906
0.13371
0.129176
0.164534
0.149195
0.171439
0.151691
0.165663
0.149651
0.155177
0.139069
0.131238
0.106203
0.085671
0.0762133
0.0702408
0.0735998
0.0733249
0.0772234
0.0781611
0.082406
0.0815507
0.0816917
0.0802635
0.0799374
0.0777695
0.0771505
0.0738629
0.0782814
0.0803328
0.117618
2.05161
1.7969
1.58091
1.4186
1.28747
1.18542
1.09873
1.02781
0.965492
0.912271
0.866336
0.826313
0.79221
0.761738
0.735473
0.712168
0.691127
0.671745
0.654407
0.638459
0.623377
0.611463
0.598139
0.588407
0.578219
0.568445
0.561741
0.55254
0.547318
0.539834
0.534558
0.528296
0.523106
0.515904
0.512036
0.503754
0.500619
0.493008
0.489989
0.485524
0.48052
0.479716
0.475507
0.474838
0.473678
0.471503
0.472522
0.469995
0.47044
0.469859
0.465437
0.465252
0.458739
0.45561
0.44942
0.438418
0.434723
0.425429
0.411965
0.404791
0.389703
0.370938
0.358266
0.333814
0.30651
0.286635
0.250852
0.225289
0.193591
0.160805
0.134495
0.108114
0.0951776
0.0783578
0.0715183
0.0657686
0.0606359
0.0619057
0.0652917
0.0683999
0.0763325
0.0915273
0.100478
0.121295
0.141001
0.150369
0.16185
0.162002
0.159453
0.153958
0.143904
0.131061
0.118878
0.101904
0.0858798
0.0699301
0.0536889
0.0385207
0.0278586
0.0201738
0.0148812
0.0117518
0.00984903
0.00893343
0.00910358
0.00967076
0.0105216
0.0121313
0.0151274
0.0183351
0.0223802
0.0282832
0.0321435
0.0326028
0.0323153
0.0313976
0.0290815
0.0242784
0.0197662
0.0175638
0.0171012
0.0179452
0.0218778
0.0337726
0.0753273
0.273938
0.578864
0.744472
0.788629
0.737451
0.517384
0.272195
0.140304
0.0947613
0.0780029
0.0733304
0.0753646
0.0822561
0.0871515
0.0874824
0.0818329
0.0786397
0.0783036
0.0790519
0.0819832
0.0844016
0.0886727
0.0914721
0.0889682
0.0854267
0.0844542
0.0861632
0.102463
0.133609
0.138262
0.136023
0.126076
0.101653
0.0843042
0.0760792
0.0711617
0.0711463
0.0736335
0.0764881
0.0860732
0.0886425
0.0968209
0.097576
0.103553
0.101349
0.103798
0.10411
0.121867
0.135736
0.164849
0.157534
0.161596
0.152531
0.150353
0.144963
0.132591
0.123923
0.104207
0.0947559
0.0783139
0.0763814
0.0741986
0.0762734
0.0757144
0.0788285
0.0769596
0.0773067
0.074503
0.0741044
0.0701655
0.0695504
0.0670289
0.068714
0.0658969
0.0694501
1.34698
1.22626
1.11017
1.01872
0.945119
0.880965
0.827235
0.778504
0.736142
0.698294
0.662724
0.633462
0.604956
0.581897
0.560029
0.541884
0.524953
0.51039
0.494958
0.483829
0.467928
0.458326
0.444751
0.433596
0.424442
0.412963
0.405883
0.397828
0.390452
0.386444
0.379991
0.376648
0.372753
0.369333
0.366449
0.362005
0.358676
0.353251
0.347746
0.34473
0.338025
0.335998
0.332302
0.331232
0.330001
0.330094
0.33108
0.332176
0.335439
0.33993
0.342238
0.348565
0.351313
0.351292
0.35129
0.348851
0.340663
0.333463
0.319284
0.29892
0.285906
0.259753
0.235928
0.214305
0.180622
0.153647
0.127891
0.0985965
0.0776454
0.0599758
0.0463581
0.0374284
0.0299147
0.0243081
0.0210589
0.0181584
0.0172565
0.0174349
0.0180573
0.0198584
0.0216751
0.0261489
0.0294812
0.0328367
0.038221
0.0403539
0.0415145
0.0411922
0.0397979
0.0375616
0.0335161
0.0288735
0.0242245
0.0196633
0.0155506
0.0120648
0.00947315
0.00749769
0.00627576
0.00566601
0.00573836
0.00600534
0.0065073
0.00729747
0.00876287
0.0106987
0.0121548
0.0154972
0.0197813
0.0217694
0.0259802
0.0311065
0.0320926
0.0318342
0.0315996
0.0312532
0.030171
0.026587
0.0220027
0.0201628
0.0199436
0.0206292
0.0235415
0.0322284
0.0624471
0.205003
0.513738
0.711846
0.806523
0.809853
0.644364
0.336576
0.163247
0.100676
0.0783994
0.0748294
0.0766343
0.0795959
0.0853675
0.084496
0.0801194
0.0777764
0.0782781
0.0790019
0.0803518
0.084677
0.0854449
0.0876077
0.0871374
0.0819556
0.0827146
0.083595
0.0910682
0.115771
0.131944
0.132497
0.128398
0.117269
0.095667
0.089367
0.0824194
0.0818147
0.0831332
0.0849033
0.0902423
0.0927734
0.0958367
0.0962462
0.0950701
0.0905496
0.0844262
0.0807377
0.0805238
0.0827729
0.0945256
0.131346
0.140464
0.145425
0.140064
0.137753
0.128662
0.123246
0.110753
0.10374
0.0936577
0.0876422
0.0812557
0.0802161
0.0769402
0.0774284
0.0755543
0.0745669
0.0716265
0.0691774
0.0650798
0.0636777
0.063966
0.065193
0.0639418
0.0641484
0.611287
0.572233
0.528102
0.489449
0.460755
0.435594
0.41413
0.397141
0.377141
0.364323
0.346004
0.33241
0.319152
0.303932
0.29519
0.281781
0.274835
0.266825
0.258575
0.255186
0.247832
0.24326
0.238064
0.230197
0.225772
0.217567
0.211532
0.207363
0.201774
0.198327
0.196312
0.192147
0.190377
0.188504
0.185127
0.184375
0.182147
0.181321
0.17979
0.176554
0.17535
0.169475
0.167399
0.164217
0.161503
0.16151
0.159779
0.160938
0.161427
0.16199
0.165551
0.165719
0.168297
0.168248
0.167845
0.16749
0.163814
0.159814
0.154459
0.139366
0.129826
0.114128
0.0949106
0.0820294
0.0645736
0.0518623
0.041672
0.0313624
0.0251676
0.0195671
0.0151668
0.0126573
0.00986185
0.00802841
0.0068234
0.00549075
0.00500728
0.00495516
0.00499452
0.00528784
0.00580602
0.0067101
0.00743113
0.00844713
0.00938236
0.00982703
0.0100658
0.00996892
0.00953754
0.00891962
0.00813792
0.0070326
0.00597332
0.00508757
0.00439192
0.00378259
0.0036449
0.00372997
0.00394324
0.00453058
0.00552175
0.00719263
0.00970984
0.0138722
0.0184458
0.0226482
0.0268032
0.0320075
0.0353216
0.0363032
0.0394357
0.0414125
0.0412752
0.0404646
0.0374779
0.0352163
0.0336869
0.0294492
0.0238179
0.021149
0.0208346
0.02153
0.0244851
0.0317733
0.0540878
0.145042
0.420634
0.64936
0.786498
0.847228
0.767261
0.431734
0.192755
0.107329
0.0833345
0.0778154
0.0762723
0.0806675
0.0846125
0.0818211
0.07796
0.0765351
0.0773261
0.0783671
0.0793926
0.0817228
0.0856783
0.0859659
0.0870643
0.0829282
0.0780295
0.080625
0.0846086
0.102596
0.12347
0.128805
0.127921
0.12813
0.118677
0.106898
0.100357
0.0958196
0.0966399
0.096836
0.0989427
0.0995602
0.100495
0.0992273
0.0927396
0.0881829
0.0828852
0.0798558
0.0758874
0.0748975
0.0733075
0.0791878
0.081275
0.10179
0.10945
0.120697
0.118167
0.117529
0.111191
0.106858
0.097099
0.0931958
0.0862784
0.0844002
0.0795979
0.0783666
0.0756324
0.0741709
0.0721903
0.0704273
0.0673622
0.0671517
0.0670371
0.0682599
0.0680886
0.0685435
0.16402
0.157942
0.149626
0.140746
0.133418
0.128064
0.122328
0.119585
0.114922
0.112746
0.10895
0.105957
0.102769
0.0983483
0.0962696
0.0915711
0.0895759
0.0865088
0.0838139
0.0826858
0.0805282
0.0795095
0.0790122
0.0780473
0.0768398
0.074805
0.071404
0.0690732
0.0667514
0.0642763
0.0638009
0.0626465
0.0626066
0.0625697
0.0618425
0.0620938
0.061284
0.0614339
0.0611381
0.0606499
0.0611028
0.0599566
0.0597286
0.058353
0.0557413
0.0553062
0.0521217
0.0521321
0.0514614
0.0511224
0.0522046
0.0514105
0.0521548
0.0522436
0.0509663
0.0508748
0.0496992
0.0470574
0.0455493
0.0410572
0.0376893
0.0338334
0.0282911
0.0245175
0.0193543
0.0155367
0.0122124
0.0093841
0.00752036
0.00580181
0.00466248
0.00382575
0.00298271
0.00249906
0.00207892
0.00167344
0.00151365
0.00145711
0.00144907
0.00148168
0.001643
0.00191829
0.00205444
0.00244186
0.00270997
0.00276389
0.00286327
0.00285293
0.00277807
0.00257847
0.00244519
0.00230147
0.00221269
0.00225174
0.00240445
0.00260942
0.00309471
0.00388494
0.00544229
0.00929087
0.0135482
0.020465
0.030577
0.0401225
0.0501855
0.0577673
0.0629909
0.0664794
0.0663941
0.064753
0.0629938
0.0606101
0.0547645
0.0519413
0.0485131
0.0437808
0.0415578
0.0365569
0.0286059
0.0238768
0.0223
0.0223477
0.0240444
0.0292274
0.0457182
0.105299
0.321891
0.538747
0.725001
0.851305
0.847149
0.553462
0.234517
0.123054
0.0903828
0.0790304
0.0777628
0.0833735
0.0829915
0.0795595
0.0741057
0.0731119
0.0740149
0.0752906
0.0776454
0.0797522
0.0845025
0.0840561
0.084752
0.0864693
0.0794984
0.0768315
0.0814811
0.0910304
0.106771
0.127495
0.127961
0.129174
0.126389
0.117138
0.114473
0.108074
0.108134
0.107147
0.108077
0.107931
0.105967
0.103591
0.0947077
0.0913233
0.0829913
0.0827163
0.0810883
0.0793502
0.0725719
0.070048
0.0698871
0.0765998
0.0807204
0.093599
0.0970377
0.102266
0.101666
0.101212
0.0960199
0.0928352
0.0863398
0.0841633
0.0796163
0.0778835
0.075048
0.0731395
0.0712522
0.0701851
0.066466
0.0653019
0.0638454
0.063379
0.0611361
0.0581294
0.0250606
0.0247384
0.0240327
0.0232722
0.022257
0.0216531
0.020749
0.0203519
0.0198422
0.0196045
0.0193282
0.0190435
0.0187391
0.018247
0.018056
0.0176443
0.0173942
0.0169207
0.0163393
0.0160803
0.0158452
0.015796
0.0158816
0.0159858
0.016177
0.0162535
0.0158779
0.0151717
0.0140578
0.0132288
0.0129592
0.0125458
0.012601
0.0126279
0.0127035
0.0133809
0.0135192
0.0140417
0.0142679
0.0145507
0.0150989
0.0150192
0.0153272
0.0153004
0.0148538
0.0146724
0.0133932
0.0129389
0.0123959
0.0117609
0.011832
0.0114453
0.0113034
0.0112636
0.0107373
0.0105025
0.0100964
0.0093225
0.00903733
0.00833942
0.00773591
0.00716675
0.00648324
0.00565878
0.00481643
0.00392618
0.00305812
0.0024797
0.0019316
0.00150606
0.00125806
0.00104358
0.00087672
0.000848735
0.000800537
0.000741202
0.000730877
0.000698543
0.000662235
0.000648248
0.000649471
0.000674333
0.000697933
0.000771239
0.000857835
0.000889093
0.000956967
0.00101333
0.00111295
0.00119533
0.00128406
0.00150392
0.00176528
0.00209463
0.00295025
0.00414219
0.00698368
0.0109204
0.0192166
0.0307357
0.0458402
0.0656522
0.0877707
0.105457
0.12093
0.13004
0.129925
0.127037
0.119798
0.10689
0.100391
0.0880249
0.0722554
0.0663818
0.0641122
0.0581571
0.0470474
0.0388144
0.0346836
0.0316378
0.0275447
0.0251339
0.0251896
0.0271271
0.0367168
0.0729635
0.219123
0.408757
0.608321
0.809705
0.881802
0.68373
0.293671
0.140912
0.0955859
0.0823887
0.0807771
0.0838373
0.0828614
0.0784779
0.0723482
0.0705844
0.0718969
0.0717038
0.0736961
0.0760778
0.0814834
0.0857634
0.0821678
0.0862091
0.0875221
0.0786247
0.0783306
0.0908798
0.0986762
0.121646
0.124789
0.126573
0.126003
0.121206
0.119326
0.114644
0.114447
0.113124
0.112149
0.110668
0.104819
0.100872
0.0926211
0.0910954
0.0845247
0.0830577
0.0799874
0.0825332
0.080915
0.079522
0.069499
0.0688883
0.0689129
0.0758732
0.0851688
0.0868529
0.0857867
0.0863891
0.0855655
0.0852643
0.0832417
0.0814668
0.0782411
0.075694
0.0732589
0.0706749
0.0689402
0.066948
0.0627534
0.05982
0.0588218
0.0567789
0.054232
0.05061
0.00206225
0.0020563
0.00203608
0.001994
0.00191821
0.00185994
0.00178471
0.00172172
0.00166948
0.00164572
0.001639
0.00163843
0.00164667
0.00165739
0.0016982
0.0017184
0.00174397
0.0017554
0.00174873
0.00174959
0.00174105
0.00174284
0.00175546
0.0017806
0.00180747
0.00180696
0.00173417
0.00158976
0.00142288
0.00130415
0.00122388
0.00116246
0.00114978
0.00114947
0.00122505
0.00147877
0.00160425
0.00185739
0.00198607
0.00210272
0.00228315
0.00232893
0.00245131
0.00247263
0.00244927
0.00240496
0.00209812
0.00193578
0.00176703
0.0015363
0.00149373
0.00139888
0.0012993
0.00126493
0.00115888
0.00107686
0.00102393
0.000974088
0.000992013
0.00110083
0.00113192
0.00115449
0.0011438
0.00111082
0.00105232
0.000884863
0.000757621
0.000659817
0.000575652
0.000517636
0.000500975
0.000494551
0.000496897
0.00056091
0.000606993
0.000638915
0.00065074
0.000643161
0.000612035
0.000564071
0.000523322
0.000495002
0.000488845
0.000493435
0.000522396
0.000565002
0.000679933
0.000814856
0.00104368
0.00136436
0.00171844
0.0026335
0.00373791
0.00534749
0.00931159
0.0139833
0.0245793
0.0393802
0.065197
0.0948267
0.134412
0.171497
0.206937
0.235518
0.248895
0.248111
0.241356
0.220519
0.200194
0.173353
0.145482
0.123324
0.106919
0.0903565
0.076302
0.0667708
0.0549892
0.0454855
0.0409728
0.0372313
0.0312811
0.027034
0.0261266
0.0266965
0.0320892
0.053933
0.145342
0.278327
0.408315
0.686897
0.887158
0.793547
0.368833
0.163916
0.105238
0.0871855
0.0820903
0.0829965
0.0856701
0.0809696
0.0731512
0.06982
0.0716131
0.0715536
0.0727678
0.0759696
0.0775746
0.08393
0.0846111
0.0815509
0.0892533
0.0849506
0.0791551
0.0905035
0.0952485
0.111033
0.124189
0.125111
0.126268
0.123891
0.123132
0.120103
0.119981
0.117297
0.115524
0.110776
0.103937
0.0955656
0.0928994
0.0894286
0.0839961
0.0814096
0.0770766
0.0769223
0.0746939
0.0758303
0.0738114
0.0668213
0.0620581
0.0636496
0.0730051
0.0783674
0.0783343
0.0788913
0.0787202
0.0767699
0.0728506
0.0703366
0.0693203
0.0675705
0.0659876
0.0648627
0.0629562
0.0618034
0.0595265
0.0570159
0.0558566
0.0529906
0.0506718
0.048421
0.000240401
0.000237006
0.000236538
0.000232701
0.000222365
0.000214278
0.000207705
0.000202275
0.000198698
0.000196735
0.000196311
0.000203004
0.000226105
0.000256431
0.000285168
0.000307796
0.000328132
0.000334718
0.000336324
0.000325862
0.000303563
0.00029055
0.000285018
0.000283919
0.000288246
0.000289347
0.000287025
0.000270116
0.000244396
0.000222879
0.000203578
0.000192048
0.000185769
0.000191292
0.000213254
0.000291346
0.000342518
0.000402143
0.000447267
0.00046549
0.000489237
0.000490864
0.00049237
0.000478055
0.000448657
0.000425291
0.000386055
0.000363567
0.000337649
0.000310839
0.00029253
0.000275014
0.00025954
0.000249452
0.00024148
0.000235569
0.000237034
0.000244591
0.000280433
0.000323391
0.000354112
0.000380342
0.000394326
0.000415409
0.000417976
0.000420191
0.000426128
0.00043634
0.000464865
0.000488339
0.000515109
0.000548234
0.00062009
0.000799503
0.000950672
0.00105483
0.00108386
0.00107897
0.00105645
0.000969123
0.000839845
0.000764979
0.000743504
0.000745098
0.00078788
0.000920794
0.00132058
0.00180857
0.00260827
0.00379143
0.00513589
0.0080886
0.0114039
0.0180117
0.0301754
0.0466278
0.0825762
0.124992
0.182012
0.251588
0.309782
0.353215
0.378587
0.385578
0.383122
0.374512
0.355958
0.327133
0.293954
0.250557
0.20033
0.163555
0.141447
0.113905
0.0931555
0.0813198
0.0674448
0.0534411
0.0446646
0.0391867
0.0322101
0.0273658
0.0262042
0.0264252
0.0297267
0.0429257
0.108548
0.172006
0.221587
0.456357
0.854701
0.859549
0.463494
0.196668
0.117881
0.092369
0.083483
0.0829341
0.0889216
0.084255
0.0765615
0.0708685
0.0709411
0.0725057
0.0717201
0.0785835
0.0771518
0.0814751
0.101111
0.0872078
0.0866403
0.0971443
0.0852913
0.0868234
0.0899323
0.0970078
0.119439
0.123297
0.128148
0.126918
0.127441
0.123664
0.123687
0.120815
0.118496
0.11194
0.108069
0.0992269
0.0955444
0.088357
0.0849982
0.0836463
0.0832447
0.0817339
0.0745343
0.0710699
0.0672364
0.0612122
0.0543404
0.0534655
0.0540865
0.0589396
0.0650519
0.0682798
0.0683073
0.0681498
0.0674186
0.0630347
0.0586159
0.054993
0.052026
0.0507903
0.0493315
0.0489038
0.0483469
0.0471823
0.0466673
0.0454081
0.0445866
0.0442556
0.00011846
0.000119366
0.000123504
0.000125481
0.000125253
0.000124579
0.000122866
0.000122068
0.000121829
0.000121869
0.000125567
0.000132696
0.000140782
0.000147415
0.000150071
0.000151486
0.000150482
0.000147925
0.000146608
0.000147566
0.000150499
0.000161235
0.000165946
0.000168271
0.000168713
0.000162848
0.00015876
0.000157184
0.000156982
0.000157789
0.000159818
0.000159096
0.000159066
0.000158377
0.000158966
0.000165753
0.000170804
0.000176361
0.000178809
0.000179939
0.000182648
0.000187017
0.00019354
0.000200103
0.000203708
0.000204573
0.000204075
0.000199403
0.000196831
0.000196172
0.000195787
0.000197814
0.000203194
0.000213492
0.000222594
0.0002347
0.00024164
0.000253253
0.000265199
0.000274661
0.000296074
0.000318272
0.000356009
0.000436811
0.000500377
0.000639401
0.000826613
0.00101262
0.00123447
0.00135632
0.00145399
0.00161226
0.00185739
0.00226342
0.00265722
0.0028964
0.00299443
0.00299259
0.00295685
0.00278678
0.00250001
0.00237737
0.00236221
0.00238509
0.00261098
0.0030963
0.0044578
0.00594847
0.00792857
0.0115294
0.0158018
0.0235059
0.0338833
0.0582031
0.0905199
0.153701
0.232059
0.321132
0.386125
0.421334
0.438408
0.441788
0.440506
0.43595
0.426579
0.409016
0.394007
0.375612
0.34096
0.304142
0.255091
0.204528
0.165078
0.133037
0.106659
0.0871177
0.0728454
0.0611807
0.0513543
0.04184
0.0328194
0.0275444
0.0262697
0.026351
0.0288515
0.0442056
0.102628
0.14414
0.166524
0.245315
0.754255
0.891049
0.572208
0.241294
0.133322
0.100452
0.0867312
0.0835325
0.0887648
0.0859327
0.078424
0.0731668
0.0696585
0.0782083
0.0709461
0.075178
0.0827661
0.083328
0.120349
0.100275
0.0866033
0.0991521
0.101996
0.0912102
0.091622
0.0927563
0.102627
0.11159
0.123507
0.124193
0.128214
0.125352
0.125534
0.122321
0.117639
0.107916
0.102886
0.0958735
0.0929707
0.0903256
0.0907607
0.0905823
0.0900805
0.0854736
0.0746851
0.0681216
0.062798
0.0567374
0.0484286
0.043116
0.0414041
0.0419475
0.0477705
0.0566732
0.0603584
0.0612359
0.0614379
0.0600809
0.0558585
0.0523025
0.0494158
0.0472025
0.0451321
0.044029
0.0429563
0.0421737
0.0417762
0.0405838
0.0397056
0.0391341
0.000113274
0.000114823
0.000119842
0.000122484
0.000124168
0.000124717
0.000125702
0.000128559
0.000131252
0.000132974
0.000133122
0.000132223
0.000128202
0.00012676
0.000126671
0.000129128
0.000139929
0.000143563
0.000151132
0.000154244
0.000159582
0.000171692
0.000184203
0.000196914
0.000206312
0.000211428
0.000213371
0.000215224
0.000215578
0.000222045
0.000228024
0.000235436
0.000237868
0.000236041
0.00022152
0.00020609
0.00019495
0.000189446
0.000189584
0.000199854
0.00022215
0.000241027
0.000253504
0.000261313
0.000265105
0.000265012
0.000267462
0.000276706
0.000307088
0.00035396
0.000388398
0.00044996
0.000481026
0.000537026
0.000570154
0.000619322
0.000672891
0.00071321
0.000816344
0.000903539
0.00108713
0.00125692
0.00150594
0.00193894
0.00228129
0.00287369
0.00351484
0.00402982
0.0045551
0.00483958
0.00511112
0.00559385
0.00613651
0.00700448
0.00778501
0.00825207
0.00843108
0.00841335
0.00830749
0.00793641
0.00758176
0.00753486
0.0075948
0.0078158
0.008772
0.0102713
0.0136828
0.0184861
0.0228131
0.0329034
0.0445727
0.0672158
0.10437
0.171868
0.275893
0.373012
0.42748
0.453243
0.464139
0.466031
0.462632
0.453314
0.442594
0.433629
0.419152
0.409032
0.400367
0.383115
0.361956
0.329217
0.278917
0.228953
0.188641
0.147831
0.11113
0.0898755
0.077822
0.0656335
0.0545674
0.044847
0.0347213
0.02844
0.0266595
0.0265878
0.0289503
0.0515658
0.110033
0.138714
0.147556
0.179057
0.604125
0.9189
0.685053
0.297689
0.153011
0.10996
0.091823
0.0853492
0.0852508
0.0850247
0.0806243
0.079572
0.0697073
0.0747874
0.0745622
0.0703638
0.084254
0.102754
0.286319
0.162461
0.0988955
0.09283
0.119811
0.106805
0.110997
0.0997408
0.103424
0.106915
0.116791
0.117087
0.122359
0.120715
0.118387
0.115367
0.110475
0.106362
0.105717
0.105835
0.103459
0.0994882
0.0975632
0.0950026
0.0922061
0.0823666
0.0690935
0.0585243
0.0515154
0.0467915
0.0401383
0.0353359
0.0332746
0.0332145
0.0349164
0.0427681
0.0494887
0.0519204
0.0573967
0.0588725
0.0581656
0.0567492
0.0542747
0.050944
0.0487948
0.0472133
0.0468841
0.0465843
0.0459867
0.045267
0.0434936
0.0420094
0.000266101
0.000275636
0.000286766
0.00029582
0.000303422
0.000310185
0.000330652
0.000356792
0.000404577
0.000443906
0.000482012
0.000509107
0.000514035
0.000515036
0.000503654
0.000495452
0.000483047
0.000473742
0.000473517
0.000474905
0.000559151
0.000689178
0.000848046
0.00098382
0.00104291
0.00109263
0.00109047
0.00108881
0.00107904
0.00106805
0.00108462
0.00109839
0.00113825
0.0011491
0.00114713
0.00114941
0.00113738
0.00113197
0.00112156
0.00111569
0.00111302
0.00111173
0.00111329
0.00115083
0.0012206
0.0012766
0.00140835
0.00147776
0.00163187
0.00176387
0.00200848
0.00225666
0.0024029
0.00277155
0.00296438
0.00330247
0.00360131
0.00386687
0.00461021
0.00504748
0.00588967
0.00660899
0.00759917
0.0090077
0.00998242
0.011749
0.012973
0.0142474
0.015227
0.0161906
0.0170572
0.0182376
0.0194463
0.0206725
0.0216424
0.0218921
0.0218998
0.0217839
0.0212429
0.0208549
0.0207875
0.0209358
0.0214748
0.0227501
0.0268458
0.0308628
0.0383077
0.0498111
0.0619746
0.0882534
0.123778
0.192957
0.312358
0.404331
0.453542
0.472305
0.478907
0.476006
0.465292
0.440765
0.409874
0.389775
0.376943
0.37032
0.371159
0.373733
0.373109
0.366357
0.353105
0.326467
0.284622
0.247113
0.20461
0.151705
0.115289
0.10403
0.0933405
0.0715012
0.0550698
0.0455764
0.0368537
0.0301165
0.0274797
0.0272757
0.0308105
0.0643998
0.1191
0.136754
0.133219
0.146122
0.479857
0.941524
0.784894
0.375185
0.181181
0.121457
0.0982243
0.0867418
0.0844499
0.084403
0.0839004
0.0832167
0.0716622
0.0714346
0.0731985
0.0767317
0.0929001
0.20714
1.18788
0.534292
0.279014
0.116543
0.121938
0.111285
0.124125
0.113771
0.114125
0.112559
0.118842
0.117085
0.120923
0.119885
0.117911
0.116712
0.116366
0.114195
0.115274
0.114521
0.104175
0.097986
0.0960694
0.0929528
0.0902736
0.0862137
0.0735349
0.0607034
0.0511145
0.0449639
0.0383263
0.0338101
0.0312925
0.0304518
0.0306642
0.0318231
0.0346779
0.0435946
0.0536339
0.0565147
0.0570952
0.0597929
0.0606961
0.0604562
0.0595828
0.0589117
0.0589718
0.0586472
0.0571912
0.0545554
0.0503991
0.0480476
0.00337226
0.00337428
0.00336184
0.00332368
0.00328235
0.00327755
0.00334257
0.00360395
0.0040163
0.00442651
0.00473055
0.00501555
0.00510547
0.00511164
0.00507967
0.00502259
0.00497911
0.0049385
0.004954
0.00511392
0.00582094
0.00648896
0.00719912
0.00780233
0.00806621
0.00826999
0.0082549
0.00820289
0.00803552
0.00787078
0.00788039
0.00785496
0.00794191
0.00804185
0.00809759
0.00816958
0.00814436
0.00815687
0.00813763
0.00813547
0.00814389
0.00815097
0.00819047
0.00837129
0.00859845
0.00890411
0.00946254
0.00973656
0.0103102
0.0106719
0.011448
0.0120811
0.0125388
0.0136868
0.0143125
0.0154906
0.0164633
0.0177193
0.0198979
0.0211627
0.0237605
0.0258768
0.0285827
0.0319411
0.0347233
0.0382056
0.0409227
0.0434439
0.0460089
0.0485537
0.0506255
0.0530232
0.0550279
0.0557893
0.0557927
0.055452
0.0547203
0.0532478
0.0524254
0.0524226
0.0527226
0.0536818
0.0571544
0.0616144
0.0715752
0.0839728
0.0970411
0.125293
0.160697
0.227789
0.347058
0.425645
0.468769
0.489586
0.488801
0.479074
0.451005
0.406527
0.383375
0.372675
0.365484
0.360232
0.355509
0.351757
0.35031
0.349658
0.348528
0.344903
0.336633
0.315018
0.277661
0.245531
0.204913
0.161344
0.136506
0.121088
0.095624
0.0695654
0.0543907
0.0467145
0.0386276
0.0326282
0.0296906
0.0294365
0.0382765
0.0857287
0.127876
0.134922
0.117783
0.120525
0.366102
0.938289
0.894996
0.488346
0.221685
0.138545
0.108367
0.0916144
0.086192
0.085
0.0844555
0.0834658
0.0779744
0.0754195
0.072427
0.0834647
0.129475
0.483594
0.614662
0.597415
0.83943
0.330499
0.3034
0.151631
0.160334
0.14469
0.139535