/*--------------------------------*- C++ -*----------------------------------*\
| =========                 |                                                 |
| \\      /  F ield         | OpenFOAM: The Open Source CFD Toolbox           |
|  \\    /   O peration     | Version:  2.4.0                                 |
|   \\  /    A nd           | Web:      www.OpenFOAM.org                      |
|    \\/     M anipulation  |                                                 |
\*---------------------------------------------------------------------------*/
FoamFile
{
    version     2.0;
    format      ascii;
    class       volScalarField;
    location    "0.75";
    object      pMean;
}
// * * * * * * * * * * * * * * * * * * * * * * * * * * * * * * * * * * * * * //

dimensions      [0 2 -2 0 0 0 0];

internalField   nonuniform List<scalar> 
8800
(
90.2122
77.7407
70.2947
66.6995
64.7693
63.3008
62.0504
60.8631
59.7885
58.7161
57.7192
56.6907
55.7386
54.753
53.8647
52.9502
52.1478
51.3318
50.6199
49.8151
87.1053
77.3869
70.4628
66.813
64.8288
63.3261
62.0578
60.8634
59.7864
58.7136
57.7164
56.6885
55.7361
54.7513
53.8626
52.9477
52.1489
51.3283
50.624
49.7908
85.1426
77.4629
71.0623
67.1878
64.9955
63.4053
62.1042
60.8958
59.8103
58.7306
57.7263
56.6933
55.7373
54.7493
53.8603
52.9396
52.1482
51.3158
50.6868
49.8431
83.6092
77.5246
71.6464
67.6101
65.1782
63.4933
62.1662
60.9526
59.8583
58.7696
57.753
56.7114
55.7471
54.754
53.8597
52.9328
52.1368
51.3037
50.7435
50.0811
82.3627
77.4982
72.1201
68.0149
65.3461
63.5613
62.2146
61.0112
59.9135
58.8219
57.7875
56.7401
55.7588
54.7659
53.8548
52.9325
52.1096
51.292
50.6648
50.4175
81.3804
77.4018
72.4839
68.3612
65.4965
63.6061
62.2423
61.0577
59.963
58.8726
57.8219
56.7692
55.7693
54.7767
53.8479
52.9302
52.0834
51.2852
50.6777
50.8835
80.6253
77.287
72.7503
68.6409
65.6319
63.6339
62.2507
61.0909
60.0021
58.9144
57.851
56.7927
55.7775
54.7826
53.841
52.9243
52.068
51.2927
50.7637
51.201
80.0744
77.1847
72.9328
68.8516
65.7514
63.6512
62.2468
61.1123
60.0312
58.9463
57.8729
56.8101
55.7822
54.7859
53.8347
52.9225
52.0632
51.3162
50.847
51.4316
79.715
77.1112
73.0483
68.9948
65.8361
63.6624
62.2405
61.1256
60.0516
58.9697
57.8884
56.8228
55.7858
54.7898
53.8326
52.9265
52.0688
51.3452
50.9207
51.603
79.535
77.0753
73.1057
69.0693
65.88
63.6697
62.2359
61.1337
60.0629
58.9843
57.8975
56.8318
55.7894
54.7962
53.836
52.9368
52.0816
51.3753
50.9789
51.719
79.5291
77.0815
73.1061
69.0722
65.8798
63.6714
62.2342
61.1359
60.0632
58.9874
57.8985
56.8358
55.7922
54.803
53.8435
52.9499
52.0986
51.4023
51.0202
51.7844
79.6991
77.1282
73.0502
69.0022
65.8357
63.6671
62.2364
61.1317
60.0529
58.9785
57.8919
56.8345
55.7945
54.8101
53.8552
52.9659
52.1204
51.4262
51.0442
51.8016
80.0524
77.2083
72.9354
68.8604
65.7499
63.6571
62.2413
61.1202
60.0328
58.959
57.8778
56.8277
55.7953
54.8176
53.8701
52.9861
52.1472
51.4509
51.0463
51.7624
80.5995
77.3127
72.7523
68.6482
65.6273
63.6393
62.2435
61.0986
60.0025
58.9286
57.856
56.8143
55.7931
54.8239
53.8862
53.0106
52.1801
51.4826
51.0328
51.6476
81.3535
77.428
72.4864
68.367
65.4894
63.6104
62.2355
61.0652
59.9624
58.8877
57.8275
56.7943
55.7882
54.8266
53.9028
53.0369
52.2214
51.5248
51.0307
51.4502
82.335
77.526
72.1229
68.021
65.3376
63.5658
62.2089
61.0198
59.9132
58.8387
57.7946
56.7697
55.7818
54.8256
53.9193
53.0612
52.2697
51.5771
51.0589
51.1902
83.5806
77.5538
71.6502
67.6183
65.1689
63.4988
62.1611
60.9634
59.8581
58.789
57.7616
56.7456
55.7744
54.8223
53.9334
53.0798
52.3168
51.6268
51.117
50.9181
85.1135
77.492
71.0676
67.1976
64.9859
63.4114
62.0995
60.9074
59.8111
58.7508
57.7372
56.7292
55.7694
54.8212
53.9438
53.0938
52.3506
51.6648
51.1749
50.7755
87.075
77.4148
70.4689
66.8243
64.8195
63.3323
62.0533
60.8753
59.7877
58.7344
57.7282
56.7255
55.7701
54.8248
53.9507
53.1043
52.3666
51.6869
51.1728
50.6977
90.1811
77.7675
70.3007
66.7111
64.7603
63.307
62.046
60.8752
59.7898
58.7372
57.731
56.7281
55.7728
54.8273
53.9539
53.1078
52.3703
51.6929
51.1746
50.8166
49.7212
49.4979
49.0779
48.6597
48.3281
48.0859
47.9215
47.8083
47.7202
47.6483
47.5854
47.5216
47.4551
47.3859
47.3109
47.2291
47.1381
47.0304
46.9085
46.7708
46.6279
46.4955
46.3828
46.2934
46.2308
46.1927
46.1718
46.1522
46.1196
46.0605
45.9758
45.8734
45.7701
45.6814
45.6156
45.5714
45.5442
45.5201
45.4946
45.4656
45.4356
45.4029
45.3763
45.358
45.3555
45.3642
45.3902
45.4272
45.4753
45.5243
45.5647
45.5841
45.576
45.536
45.4693
45.3805
45.288
45.1998
45.1285
45.0654
45.012
44.9538
44.8909
44.8158
44.7341
44.6525
44.5853
44.5483
44.5462
44.5725
44.6202
44.6822
44.7525
44.8272
44.9035
44.9767
45.0433
45.0933
45.1233
45.1238
45.1004
45.0518
44.9971
44.9258
44.8702
44.8193
44.7884
44.7839
44.8039
44.865
44.9679
45.129
45.3436
45.6052
45.9056
46.2331
46.5795
46.9319
47.2816
47.6192
47.9382
48.2313
48.4908
48.6933
48.863
48.9813
49.0829
49.1505
49.224
49.2659
49.3057
49.3245
49.3356
49.3323
49.3183
49.2984
49.2719
49.2425
49.2074
49.1625
49.1124
49.0468
48.9865
48.9113
48.8572
48.776
48.7382
48.6674
48.6563
48.6356
48.6776
48.7215
48.8145
48.9152
49.0587
49.2102
49.3962
49.5841
49.7951
50.0023
50.2281
50.4579
50.7058
50.96
51.2316
51.4985
51.7778
52.058
52.3462
52.6365
52.9167
53.1895
53.4558
53.7085
53.9467
54.1728
54.3971
54.5973
54.8009
54.9813
55.1676
55.3078
55.4645
55.5619
55.6762
55.7259
55.7966
55.8028
55.835
55.8035
55.8183
55.7727
55.7912
55.7398
55.7843
55.7445
55.8419
55.8194
55.9782
55.9932
56.2069
56.275
56.5339
56.6661
56.953
57.147
57.453
57.6684
57.9806
58.171
58.4427
58.532
58.6331
58.4032
58.0573
57.0553
55.5618
52.056
47.7037
27.022
49.5321
49.4079
49.1691
48.8158
48.4626
48.1854
48.0047
47.8993
47.837
47.7891
47.7427
47.6878
47.6258
47.5569
47.4829
47.4003
47.3093
47.2061
47.093
46.9691
46.8418
46.7218
46.6191
46.5357
46.4751
46.4325
46.4035
46.3765
46.3431
46.2922
46.2229
46.1381
46.0505
45.9699
45.9056
45.8565
45.8216
45.7921
45.7652
45.7347
45.7038
45.6712
45.6442
45.6237
45.616
45.6188
45.6355
45.6619
45.6953
45.728
45.7534
45.762
45.7497
45.7105
45.6507
45.5701
45.4836
45.3946
45.3158
45.2431
45.1776
45.1113
45.0412
44.9642
44.8817
44.8005
44.7291
44.6795
44.6583
44.664
44.6923
44.7359
44.792
44.8545
44.9197
44.981
45.0331
45.068
45.083
45.0706
45.0382
44.9831
44.9231
44.8562
44.7979
44.7529
44.7224
44.7214
44.742
44.8003
44.8978
45.0491
45.2496
45.4944
45.7763
46.0867
46.4166
46.7521
47.0891
47.4148
47.7262
48.0103
48.262
48.4578
48.627
48.7486
48.854
48.9263
48.9965
49.043
49.0794
49.099
49.1032
49.0898
49.0584
49.0184
48.967
48.9133
48.854
48.7843
48.7172
48.6297
48.5591
48.4664
48.4058
48.3148
48.2689
48.197
48.1813
48.1598
48.1988
48.2408
48.3327
48.4323
48.5789
48.7308
48.923
49.1167
49.3364
49.5507
49.7903
50.0291
50.29
50.5511
50.834
51.1037
51.3939
51.679
51.9773
52.2691
52.552
52.8242
53.095
53.3395
53.5831
53.8055
54.0429
54.2376
54.4597
54.638
54.8384
54.9787
55.1444
55.2341
55.3457
55.3828
55.443
55.4294
55.4503
55.3865
55.3887
55.2965
55.2989
55.1886
55.2119
55.1117
55.181
55.1056
55.2312
55.2055
55.3764
55.4058
55.6108
55.7027
55.9341
56.0597
56.3186
56.4393
56.6872
56.7422
56.8919
56.7645
56.6744
56.0746
55.3948
53.5742
51.6704
45.6864
39.8363
20.7401
49.5182
49.4654
49.3689
49.0719
48.6663
48.3033
48.0667
47.951
47.9136
47.9006
47.883
47.8455
47.7913
47.7225
47.6459
47.5604
47.4691
47.3692
47.2634
47.1511
47.0388
46.9319
46.8396
46.7627
46.7047
46.6608
46.6286
46.5991
46.5672
46.5239
46.4687
46.4006
46.3285
46.2581
46.1979
46.147
46.1069
46.0723
46.0424
46.012
45.9821
45.9523
45.9264
45.9069
45.8966
45.8954
45.9036
45.9185
45.9376
45.9543
45.9646
45.9603
45.9399
45.8977
45.8387
45.7617
45.6769
45.5876
45.5019
45.4213
45.3443
45.2701
45.194
45.1155
45.0347
44.9559
44.8856
44.8312
44.7979
44.7878
44.8004
44.8293
44.8736
44.9254
44.9815
45.032
45.0716
45.0928
45.0929
45.0684
45.0256
44.9677
44.9021
44.8382
44.778
44.7334
44.7036
44.6998
44.7149
44.7629
44.8489
44.985
45.166
45.3909
45.6528
45.9453
46.2568
46.5767
46.9009
47.2157
47.52
47.7983
48.045
48.2415
48.4158
48.548
48.6621
48.7458
48.8207
48.8778
48.9197
48.9457
48.9481
48.9269
48.8829
48.8252
48.7577
48.6781
48.6014
48.5041
48.4256
48.3158
48.2395
48.1317
48.0665
47.9734
47.9206
47.8543
47.834
47.8177
47.8517
47.893
47.983
48.084
48.2313
48.3858
48.5811
48.7803
49.0069
49.2284
49.4807
49.7329
50.0095
50.2834
50.5761
50.8555
51.1554
51.4493
51.7561
52.042
52.323
52.5889
52.8585
53.0922
53.341
53.5609
53.7986
53.9935
54.2267
54.4114
54.6136
54.7622
54.9264
55.0088
55.117
55.1344
55.1899
55.146
55.1635
55.0659
55.058
54.9191
54.9048
54.7412
54.7429
54.5906
54.6182
54.5019
54.5746
54.5119
54.6213
54.61
54.7574
54.7898
54.9738
55.0116
55.2118
55.2198
55.3893
55.2887
55.3364
54.9298
54.7127
53.5708
52.8491
49.8467
47.9322
40.5347
33.4893
20.4602
49.6881
49.6033
49.4376
49.0542
48.6002
48.2343
48.025
47.9555
47.9725
48.0112
48.0348
48.0246
47.9837
47.9173
47.8365
47.7454
47.6503
47.551
47.4509
47.3486
47.2495
47.1556
47.0742
47.0055
46.9522
46.91
46.8778
46.8486
46.8193
46.783
46.7391
46.6854
46.6268
46.5661
46.51
46.4591
46.4164
46.3787
46.3468
46.317
46.2897
46.2633
46.2403
46.2208
46.2078
46.1999
46.1987
46.2
46.2034
46.2028
46.1966
46.1791
46.1491
46.1025
46.0421
45.9669
45.8834
45.795
45.7059
45.6203
45.5367
45.4567
45.3775
45.2987
45.2208
45.1465
45.0794
45.0244
44.9851
44.9641
44.9645
44.981
45.0144
45.0559
45.1017
45.1405
45.1677
45.1757
45.1629
45.1292
45.078
45.0164
44.9456
44.8799
44.8181
44.7706
44.7366
44.7219
44.723
44.7533
44.8219
44.9382
45.0985
45.3018
45.5453
45.8182
46.1134
46.4175
46.7329
47.0387
47.3388
47.6129
47.8584
48.0577
48.2393
48.3852
48.5122
48.613
48.7014
48.7728
48.8275
48.8594
48.8613
48.8332
48.7822
48.7086
48.6342
48.5338
48.4474
48.3282
48.2391
48.1094
48.0276
47.9091
47.8436
47.7488
47.697
47.6307
47.6133
47.6012
47.6376
47.6847
47.7754
47.8815
48.0306
48.1903
48.3891
48.5934
48.8265
49.0563
49.3208
49.5825
49.8733
50.1567
50.4608
50.7508
51.0639
51.3623
51.6778
51.9514
52.2372
52.4874
52.7559
52.9745
53.2301
53.4436
53.6835
53.8759
54.1208
54.2965
54.5066
54.6427
54.8151
54.8705
54.9892
54.974
55.0428
54.959
54.9805
54.8405
54.8276
54.6487
54.6166
54.4158
54.3816
54.1938
54.1672
54.0203
54.0302
53.9297
53.9781
53.9228
54.0132
53.9767
54.1014
54.0345
54.183
54.019
54.1907
53.8002
53.9277
53.0308
52.9624
51.0136
50.3749
46.4668
43.993
37.0552
29.4294
20.748
51.1498
50.7746
49.6786
48.7537
48.1533
47.8637
47.8077
47.8812
48.0043
48.1175
48.1925
48.2162
48.1935
48.1332
48.0502
47.9538
47.8539
47.7531
47.6559
47.5619
47.4745
47.394
47.3248
47.2662
47.2199
47.1824
47.1529
47.126
47.0998
47.0695
47.0341
46.9913
46.9437
46.8927
46.843
46.7956
46.7535
46.7151
46.6818
46.6516
46.6244
46.5983
46.5744
46.5518
46.5329
46.5155
46.5018
46.4884
46.4758
46.4603
46.4398
46.4113
46.3727
46.3221
46.2602
46.1874
46.1064
46.0213
45.9335
45.8474
45.7627
45.6804
45.601
45.5234
45.4496
45.38
45.3177
45.2652
45.2257
45.2001
45.1931
45.2018
45.2257
45.2572
45.2901
45.3154
45.3288
45.3245
45.3018
45.261
45.2034
45.1358
45.0603
44.9876
44.9193
44.8614
44.8145
44.7804
44.7608
44.768
44.8156
44.9091
45.05
45.2332
45.4612
45.718
46.0001
46.2954
46.6031
46.9043
47.2026
47.4755
47.7228
47.9281
48.1191
48.2797
48.4202
48.5405
48.6428
48.7286
48.7942
48.8292
48.8325
48.7974
48.745
48.6625
48.5862
48.4751
48.3794
48.2487
48.1474
48.0132
47.9259
47.8127
47.7441
47.654
47.6021
47.5386
47.5308
47.5201
47.5694
47.62
47.7223
47.8318
47.9903
48.1534
48.3646
48.571
48.8177
49.05
49.327
49.587
49.8923
50.1766
50.4977
50.7929
51.1237
51.4195
51.746
52.0026
52.299
52.5268
52.7989
53.001
53.2651
53.4565
53.7114
53.8889
54.1502
54.2988
54.5242
54.6282
54.8116
54.8321
54.9643
54.912
54.995
54.8772
54.8995
54.7231
54.6992
54.4924
54.4406
54.2145
54.1497
53.9221
53.8626
53.6669
53.6394
53.4802
53.5017
53.3643
53.4434
53.2731
53.4135
53.1246
53.3309
52.8413
53.1255
52.3085
52.5401
51.1673
51.0188
48.6694
47.5299
43.7146
40.3628
34.9051
27.6338
21.2605
52.1428
51.6364
49.978
48.6258
47.82
47.5245
47.5761
47.7843
48.0234
48.2231
48.3581
48.4211
48.4203
48.3689
48.2852
48.1835
48.0768
47.9718
47.8745
47.7856
47.7071
47.6384
47.5809
47.5331
47.4953
47.4643
47.439
47.4158
47.3929
47.3672
47.3378
47.3032
47.2643
47.222
47.1792
47.1365
47.0965
47.0588
47.0246
46.9931
46.9637
46.9354
46.9078
46.88
46.8535
46.8268
46.8013
46.7751
46.7482
46.7193
46.6863
46.6477
46.6018
46.5471
46.4843
46.4139
46.3368
46.2564
46.1728
46.089
46.0063
45.9259
45.8492
45.776
45.7079
45.6448
45.5894
45.5425
45.5073
45.4834
45.4761
45.4841
45.5033
45.5269
45.5479
45.5612
45.562
45.5467
45.5148
45.467
45.4019
45.3256
45.2408
45.1545
45.0714
44.9965
44.9316
44.8752
44.8319
44.81
44.8355
44.9066
45.0288
45.196
45.4128
45.6588
45.9303
46.2208
46.524
46.8242
47.1222
47.4
47.6515
47.8667
48.0678
48.2402
48.395
48.532
48.6488
48.7446
48.8188
48.8538
48.8589
48.8157
48.7667
48.6812
48.6035
48.4893
48.3853
48.2532
48.146
48.0232
47.9361
47.8388
47.7687
47.6898
47.6361
47.589
47.5895
47.5968
47.6599
47.7166
47.8343
47.9446
48.1154
48.28
48.5047
48.7127
48.973
49.2077
49.4918
49.7523
50.0704
50.3521
50.693
50.9922
51.3424
51.6373
51.9676
52.2141
52.5086
52.7175
52.9915
53.1693
53.4456
53.6061
53.8748
54.0305
54.3039
54.4162
54.6657
54.7172
54.9183
54.89
55.042
54.9488
55.0494
54.8885
54.9248
54.7115
54.6987
54.4484
54.4045
54.1221
54.0794
53.7657
53.7201
53.4362
53.4193
53.156
53.201
52.9327
53.034
52.6989
52.8421
52.3588
52.5243
51.8498
52.0023
51.0433
50.9681
49.5258
48.8588
46.6213
44.9115
41.6609
37.9983
33.9329
27.6361
22.3373
52.7538
52.2409
50.3229
48.7019
47.7099
47.3369
47.4148
47.706
48.0373
48.3172
48.5135
48.6204
48.6454
48.6048
48.5205
48.4123
48.2973
48.1864
48.0864
48
47.9277
47.8685
47.8215
47.7845
47.7558
47.7327
47.7134
47.6952
47.6763
47.6549
47.6298
47.6004
47.5672
47.5309
47.4931
47.4546
47.4172
47.3809
47.3464
47.3133
47.2813
47.2496
47.2175
47.1845
47.1507
47.1157
47.0801
47.0437
47.0055
46.9656
46.9221
46.8748
46.8225
46.7648
46.7018
46.6341
46.5616
46.4865
46.409
46.3308
46.2537
46.1788
46.1072
46.0404
45.9788
45.9233
45.8749
45.8355
45.8078
45.793
45.7928
45.8057
45.8265
45.8459
45.8579
45.8599
45.85
45.8269
45.7874
45.7309
45.657
45.57
45.4718
45.3669
45.2652
45.1714
45.0873
45.0063
44.9368
44.8859
44.8868
44.9389
45.0485
45.2074
45.4184
45.6581
45.9255
46.2136
46.5125
46.8154
47.1143
47.397
47.6537
47.8826
48.0871
48.2674
48.4345
48.5824
48.7114
48.8136
48.8973
48.9337
48.9399
48.8917
48.8407
48.7548
48.6752
48.5663
48.4598
48.3399
48.2392
48.1395
48.0635
47.9862
47.9222
47.8565
47.8077
47.7788
47.7913
47.8251
47.8975
47.976
48.0962
48.2194
48.3937
48.5681
48.8002
49.0211
49.291
49.5349
49.8236
50.094
50.4165
50.7029
51.0527
51.3646
51.7279
52.0247
52.3513
52.5907
52.8732
53.072
53.3366
53.4857
53.7625
53.8984
54.1565
54.3014
54.5765
54.6547
54.9271
54.9346
55.1283
55.0679
55.2155
55.113
55.2065
55.0397
55.0625
54.8452
54.8334
54.5639
54.5106
54.1975
54.1395
53.7866
53.7094
53.38
53.3235
53.009
52.9853
52.659
52.6534
52.2569
52.2391
51.6974
51.6475
50.9444
50.814
49.901
49.502
48.0877
47.1747
45.0455
43.2058
40.5947
37.1117
33.9597
28.7445
24.003
53.1218
52.6425
50.6339
48.8707
47.7527
47.2842
47.3338
47.6604
48.0536
48.3974
48.6472
48.7955
48.8467
48.8187
48.7356
48.6231
48.5015
48.3855
48.283
48.198
48.1304
48.0791
48.0412
48.014
47.9944
47.9795
47.9667
47.954
47.9394
47.922
47.9005
47.8751
47.8458
47.8137
47.7794
47.7441
47.7084
47.6729
47.6375
47.6024
47.5671
47.5314
47.4945
47.4563
47.4162
47.3747
47.3312
47.2866
47.2394
47.1909
47.1397
47.0864
47.0304
46.972
46.9105
46.8469
46.7803
46.7124
46.6427
46.5727
46.5028
46.4346
46.369
46.3089
46.254
46.207
46.168
46.1392
46.122
46.1188
46.1275
46.147
46.1695
46.1865
46.1917
46.186
46.1685
46.1409
46.0973
46.0341
45.9513
45.8519
45.7375
45.6127
45.4924
45.3779
45.277
45.1743
45.0808
45.0073
44.9882
45.0277
45.1302
45.2874
45.4925
45.7272
45.991
46.2758
46.575
46.8808
47.1863
47.4776
47.7394
47.9754
48.1787
48.3671
48.5405
48.6907
48.8245
48.9288
49.0191
49.0626
49.0686
49.0215
48.9644
48.8853
48.8085
48.714
48.6183
48.5226
48.4409
48.3722
48.3167
48.2648
48.215
48.167
48.132
48.1245
48.1544
48.2088
48.2931
48.3839
48.5042
48.6455
48.8224
49.0125
49.2514
49.4932
49.7738
50.0374
50.3295
50.6137
50.9367
51.2298
51.587
51.9093
52.2847
52.5776
52.9069
53.1235
53.3968
53.591
53.8402
53.9656
54.2312
54.3323
54.577
54.7011
54.9802
55.029
55.2937
55.2947
55.4595
55.4019
55.5325
55.4388
55.5063
55.3552
55.3559
55.1448
55.1096
54.8381
54.7594
54.4472
54.3607
53.9886
53.8764
53.525
53.408
53.0614
52.9359
52.5602
52.4282
51.9612
51.7846
51.1649
50.942
50.2189
49.9343
49.0551
48.5373
47.1266
46.1739
44.2271
42.399
40.3356
37.1924
34.513
30.2038
25.8805
53.3584
52.9104
50.8775
49.043
47.8497
47.3105
47.3233
47.6607
48.0916
48.4813
48.7719
48.9534
49.0276
49.0121
48.9318
48.8175
48.6918
48.5729
48.4692
48.3857
48.3218
48.2768
48.2463
48.2274
48.2154
48.2079
48.2011
48.1936
48.183
48.1691
48.1506
48.1283
48.1019
48.0727
48.0407
48.0074
47.9721
47.9363
47.8991
47.8614
47.8224
47.7824
47.7406
47.6974
47.6518
47.6046
47.5546
47.5032
47.4494
47.3951
47.3393
47.2833
47.2264
47.1697
47.1117
47.0539
46.9944
46.9345
46.873
46.8117
46.7503
46.6908
46.6334
46.5818
46.5364
46.5005
46.4736
46.4577
46.4521
46.4597
46.4773
46.5023
46.5247
46.5392
46.5395
46.5277
46.5067
46.4777
46.4317
46.3648
46.2767
46.1675
46.0378
45.8933
45.7505
45.6155
45.4969
45.3735
45.2682
45.1795
45.1513
45.186
45.2892
45.4449
45.6442
45.8693
46.1302
46.4139
46.7197
47.0295
47.3452
47.6509
47.9232
48.1613
48.3659
48.5565
48.7268
48.8709
48.9992
49.1045
49.2012
49.2496
49.26
49.2216
49.1686
49.1016
49.036
48.9592
48.8854
48.8184
48.7673
48.733
48.7051
48.6844
48.6561
48.6305
48.6182
48.6302
48.6785
48.7475
48.8453
48.9427
49.0728
49.228
49.4097
49.6127
49.8654
50.1171
50.4152
50.6957
51.0009
51.3038
51.6275
51.9312
52.292
52.6262
53.01
53.2906
53.6388
53.8134
54.0792
54.2608
54.4845
54.5903
54.8513
54.8922
55.1475
55.2335
55.5285
55.5434
55.7996
55.7745
55.9353
55.8708
56.0125
55.9316
55.9724
55.8121
55.8099
55.6101
55.5553
55.2853
55.1672
54.8647
54.7523
54.3724
54.2215
53.8783
53.6979
53.3429
53.12
52.7079
52.4538
51.9375
51.6268
50.9666
50.6273
49.9978
49.6481
48.8135
48.2364
46.8228
45.8148
44.0871
42.2587
40.5803
37.8306
35.3403
31.69
27.7715
53.5267
53.0939
51.0509
49.1855
47.958
47.3859
47.3799
47.7223
48.1745
48.5903
48.9043
49.1045
49.1919
49.1836
49.1054
48.9906
48.8639
48.745
48.6427
48.562
48.5024
48.4628
48.4386
48.4264
48.421
48.4194
48.4178
48.4147
48.4077
48.3969
48.381
48.3611
48.3367
48.3092
48.2784
48.2456
48.2101
48.1731
48.1338
48.0932
48.0504
48.0062
47.9597
47.9115
47.8607
47.8086
47.754
47.6986
47.6412
47.5839
47.5261
47.4697
47.4144
47.3613
47.3093
47.259
47.2082
47.1571
47.1047
47.053
47.0014
46.9517
46.9043
46.8637
46.83
46.8065
46.7935
46.7918
46.7994
46.8195
46.8468
46.8751
46.8959
46.9081
46.9066
46.8908
46.8663
46.8372
46.7926
46.7268
46.6365
46.5185
46.3767
46.2174
46.0549
45.8959
45.7591
45.6176
45.5067
45.4102
45.3828
45.4165
45.5295
45.6866
45.8842
46.101
46.3642
46.6488
46.958
47.2712
47.6026
47.9245
48.2109
48.4489
48.6515
48.8341
48.9943
49.1287
49.2511
49.359
49.4624
49.5185
49.5396
49.5139
49.4727
49.424
49.3776
49.3254
49.2792
49.2431
49.2293
49.2297
49.2397
49.252
49.2535
49.2553
49.2698
49.2961
49.3608
49.436
49.5452
49.6442
49.7896
49.949
50.1488
50.3567
50.6302
50.8863
51.2164
51.5083
51.8372
52.1544
52.4964
52.8065
53.1819
53.5126
53.9143
54.1637
54.5282
54.6429
54.9103
55.0605
55.2808
55.3434
55.6008
55.5659
55.866
55.9002
56.2258
56.1699
56.4761
56.3799
56.6032
56.4886
56.6704
56.5788
56.6376
56.4359
56.466
56.2389
56.203
55.9202
55.8204
55.4832
55.3655
54.9696
54.8116
54.4521
54.2525
53.8682
53.6099
53.1537
52.8222
52.2295
51.83
51.1659
50.8
50.2536
49.894
49.0667
48.3748
46.9813
45.8308
44.3382
42.6056
41.1207
38.7019
36.2929
33.0936
29.5737
53.6246
53.1974
51.1548
49.2907
48.0667
47.4987
47.4986
47.8473
48.3065
48.7276
49.0454
49.2478
49.3366
49.3287
49.2518
49.1391
49.0162
48.9019
48.805
48.7297
48.6759
48.6419
48.6234
48.6165
48.616
48.6187
48.6207
48.6205
48.6161
48.6074
48.5937
48.5755
48.5527
48.5264
48.4964
48.4636
48.4275
48.3892
48.348
48.3046
48.2586
48.2106
48.1602
48.1081
48.0537
47.9981
47.9408
47.8828
47.8245
47.7671
47.7105
47.6562
47.6041
47.5557
47.5104
47.4685
47.4275
47.3871
47.3465
47.3069
47.2673
47.2298
47.1962
47.1694
47.1484
47.1375
47.1396
47.1535
47.1746
47.2052
47.2394
47.2688
47.2884
47.2988
47.295
47.2783
47.2547
47.2272
47.1862
47.1257
47.037
46.9148
46.7638
46.5899
46.4116
46.2322
46.0798
45.9261
45.8151
45.7164
45.7044
45.7391
45.8672
46.0266
46.2273
46.4363
46.7091
46.9944
47.3092
47.6212
47.9714
48.3048
48.6036
48.8367
49.0318
49.1953
49.3413
49.4645
49.589
49.7035
49.8148
49.88
49.921
49.9099
49.8961
49.8684
49.8561
49.8236
49.8182
49.8124
49.8425
49.8721
49.9265
49.9648
50.0135
50.0407
50.0916
50.1281
50.2065
50.2744
50.3948
50.4839
50.6453
50.7963
51.0178
51.2288
51.5309
51.7898
52.1596
52.463
52.8315
53.1613
53.5376
53.8377
54.2456
54.5435
54.9831
55.1746
55.575
55.5769
55.8865
55.973
56.2192
56.1992
56.474
56.3857
56.7477
56.7149
57.0816
56.9267
57.3006
57.1264
57.451
57.3005
57.5459
57.4018
57.5205
57.251
57.3677
57.0919
57.1216
56.733
56.6991
56.3284
56.2239
55.7846
55.6614
55.2621
55.085
54.6303
54.3688
53.8738
53.4765
52.8967
52.4718
51.7931
51.4175
50.9173
50.4835
49.6124
48.6994
47.3766
46.1396
44.8447
43.3115
41.844
39.6375
37.3032
34.4204
31.2559
53.6439
53.2147
51.1878
49.3606
48.1783
47.6517
47.6821
48.0402
48.4924
48.8978
49.1995
49.3877
49.4658
49.4522
49.3757
49.2681
49.1534
49.0483
48.9605
48.8935
48.8469
48.8188
48.8051
48.8017
48.8041
48.8088
48.8127
48.814
48.8112
48.804
48.7918
48.775
48.7535
48.7279
48.6983
48.6653
48.6288
48.5895
48.5472
48.5023
48.4545
48.404
48.3511
48.2962
48.2394
48.1819
48.1238
48.0661
48.0095
47.9545
47.9011
47.8506
47.8038
47.7618
47.7239
47.6903
47.6597
47.6318
47.6053
47.5798
47.5546
47.5319
47.5148
47.504
47.4988
47.5031
47.5211
47.5488
47.5797
47.6157
47.6529
47.6826
47.7
47.7045
47.694
47.6756
47.6551
47.6341
47.603
47.553
47.4716
47.3539
47.2007
47.0181
46.8258
46.6311
46.4648
46.3072
46.2
46.1128
46.126
46.1638
46.3092
46.4669
46.6715
46.8682
47.1542
47.4395
47.7631
48.0722
48.4456
48.7865
49.1015
49.3262
49.5105
49.6382
49.7769
49.881
50.0171
50.1369
50.2623
50.3372
50.4056
50.4142
50.4425
50.4373
50.4721
50.465
50.514
50.5356
50.6149
50.6695
50.7749
50.8361
50.9261
50.9739
51.0647
51.1096
51.2051
51.2691
51.388
51.4699
51.6408
51.786
52.0219
52.2461
52.5597
52.8454
53.2457
53.5632
53.9732
54.3115
54.7202
55.021
55.4448
55.6991
56.1486
56.3038
56.6667
56.5999
56.991
56.9508
57.2385
57.108
57.4134
57.3067
57.7093
57.6513
58.022
57.8303
58.2796
58.0541
58.4458
58.2774
58.5469
58.3983
58.5334
58.2466
58.4125
58.1402
58.2061
57.8071
57.7899
57.3823
57.2983
56.8291
56.739
56.302
56.1077
55.6059
55.3193
54.8237
54.4069
53.8943
53.3509
52.7674
52.3647
51.809
51.1826
50.2635
49.165
47.9403
46.7654
45.5445
44.1775
42.6521
40.5768
38.3389
35.697
32.8253
53.5727
53.1342
51.1498
49.4039
48.3061
47.8603
47.941
48.3042
48.7302
49.0975
49.3626
49.5196
49.5751
49.5508
49.475
49.3759
49.2739
49.1824
49.1074
49.0514
49.0137
48.9919
48.9824
48.9815
48.985
48.9902
48.9945
48.9961
48.994
48.9876
48.9765
48.9606
48.9401
48.9153
48.8863
48.8538
48.8177
48.7786
48.7362
48.6907
48.6418
48.59
48.5355
48.4796
48.4226
48.3658
48.3098
48.2554
48.2024
48.1513
48.1031
48.0584
48.0185
47.9845
47.9561
47.9325
47.9128
47.897
47.885
47.8759
47.8671
47.8601
47.8596
47.8656
47.8779
47.9004
47.9342
47.9729
48.0122
48.053
48.0906
48.1163
48.127
48.1229
48.1064
48.0876
48.0702
48.0553
48.0365
48.0004
47.932
47.8262
47.68
47.497
47.2971
47.0991
46.9274
46.7733
46.6692
46.6039
46.641
46.692
46.85
47.0009
47.2007
47.3938
47.7001
47.9816
48.3109
48.62
49.0223
49.3662
49.7017
49.9144
50.0896
50.1818
50.3112
50.3994
50.5569
50.6752
50.8224
50.9033
50.9998
51.0329
51.1095
51.1321
51.2207
51.2533
51.3666
51.4242
51.5606
51.6393
51.7853
51.8614
51.9914
52.0514
52.1784
52.2323
52.3465
52.3992
52.5168
52.5902
52.7644
52.9147
53.17
53.4142
53.7424
54.0663
54.4718
54.8197
55.255
55.5969
56.0198
56.3237
56.7434
56.9763
57.3666
57.5403
57.7998
57.7088
58.1218
57.9936
58.2734
58.1287
58.4673
58.3607
58.7329
58.7141
59.0025
58.841
59.3167
59.1259
59.5594
59.4135
59.6808
59.5848
59.6786
59.3912
59.5975
59.2959
59.3834
58.9827
58.961
58.6111
58.5345
58.0699
57.9399
57.519
57.2997
56.7578
56.4295
55.946
55.4978
55.0176
54.5097
53.9628
53.4104
52.8114
51.9104
50.9792
49.8114
48.6952
47.6484
46.4031
45.1198
43.4988
41.5306
39.3891
36.9441
34.3049
53.3622
52.919
51.0439
49.4537
48.4948
48.1626
48.2928
48.6395
49.0125
49.3177
49.5262
49.637
49.6625
49.6263
49.5537
49.4672
49.3821
49.3078
49.2485
49.2054
49.1771
49.1613
49.1548
49.1546
49.1576
49.1616
49.1647
49.1655
49.1628
49.1562
49.1451
49.1296
49.1094
49.0852
49.0574
49.0262
48.9916
48.9539
48.913
48.8685
48.8202
48.7687
48.7142
48.6588
48.6048
48.5525
48.5012
48.451
48.4028
48.3577
48.3158
48.2783
48.2468
48.2223
48.2041
48.1921
48.1866
48.1877
48.1933
48.199
48.2049
48.2152
48.2322
48.2552
48.2863
48.3262
48.3729
48.4206
48.4668
48.5117
48.5496
48.5729
48.5779
48.5638
48.5384
48.517
48.5033
48.4978
48.4926
48.4736
48.4256
48.3399
48.2083
48.0358
47.8381
47.6473
47.4736
47.3312
47.2367
47.2019
47.2484
47.3054
47.4644
47.6105
47.8049
48.0268
48.3586
48.6461
48.978
49.3007
49.7155
50.0519
50.3942
50.5998
50.7717
50.8411
50.9646
51.0466
51.22
51.3414
51.5052
51.5869
51.7087
51.7689
51.8905
51.9527
52.0996
52.1833
52.3586
52.4647
52.6508
52.7617
52.9381
53.0299
53.1869
53.2585
53.4089
53.4762
53.6001
53.6483
53.7608
53.8305
54.0077
54.1659
54.4458
54.7193
55.0703
55.4332
55.8295
56.2063
56.6363
56.9967
57.4053
57.7292
58.0813
58.3057
58.6415
58.7985
58.9595
58.9828
59.2775
59.1264
59.3308
59.2814
59.57
59.5504
59.7949
59.9037
60.005
59.9642
60.4127
60.2498
60.7467
60.7052
60.9424
60.8818
60.9268
60.6777
60.8298
60.6065
60.5592
60.1743
60.2008
59.937
59.8354
59.3993
59.2379
58.7807
58.5092
57.9974
57.624
57.1679
56.6983
56.2782
55.7016
55.1423
54.4662
53.8776
52.6622
51.8291
50.5867
49.6424
48.6734
47.3667
46.091
44.3777
42.4971
40.4341
38.1423
35.6763
52.8997
52.4825
50.8745
49.5614
48.8105
48.5966
48.7431
49.0339
49.321
49.54
49.6755
49.7327
49.7281
49.683
49.6171
49.5462
49.4801
49.4243
49.3808
49.3495
49.329
49.3171
49.3116
49.3102
49.3111
49.3126
49.3134
49.3123
49.3084
49.301
49.2895
49.274
49.2544
49.2312
49.2047
49.1754
49.1433
49.1083
49.0704
49.0285
48.9825
48.9337
48.8833
48.8321
48.7821
48.7354
48.6926
48.6516
48.6111
48.5721
48.5368
48.5082
48.488
48.475
48.4686
48.4706
48.4808
48.4982
48.5218
48.5479
48.5743
48.6018
48.6345
48.674
48.7207
48.7729
48.8291
48.885
48.9381
48.9867
49.0245
49.0444
49.0432
49.021
48.987
48.9599
48.9494
48.9543
48.965
48.9663
48.9438
48.8853
48.7767
48.6232
48.4418
48.2715
48.1019
47.9831
47.899
47.8869
47.934
48.0065
48.1592
48.2957
48.4921
48.7668
49.117
49.4174
49.7471
50.1052
50.5067
50.8368
51.1658
51.3733
51.5415
51.6206
51.7263
51.816
51.9912
52.1248
52.2958
52.3943
52.5296
52.6204
52.7739
52.898
53.0894
53.2459
53.4601
53.631
53.839
53.9923
54.1809
54.2976
54.4673
54.5607
54.7152
54.797
54.935
54.9804
55.101
55.1822
55.3596
55.547
55.8377
56.1356
56.5014
56.8812
57.266
57.671
58.0765
58.4362
58.8346
59.1734
59.4521
59.6722
59.9319
60.0619
60.1988
60.304
60.4026
60.3854
60.4692
60.5462
60.712
60.8113
60.9167
61.0777
61.0828
61.2119
61.4665
61.5955
62.0045
61.972
62.2221
62.1412
62.1422
62.0029
62.0816
61.9506
61.7605
61.4799
61.4397
61.3003
61.0578
60.7474
60.5001
60.0381
59.7688
59.3162
58.8621
58.4523
57.9459
57.5016
56.8919
56.3405
55.4902
54.9268
53.433
52.7714
51.5131
50.7656
49.7673
48.4107
47.0925
45.3156
43.5031
41.4886
39.3098
36.9742
52.1488
51.8253
50.6906
49.778
49.2743
49.1482
49.2544
49.4398
49.6104
49.7292
49.7902
49.8001
49.7732
49.725
49.6689
49.6139
49.5653
49.5253
49.4942
49.4713
49.4553
49.4448
49.4384
49.4348
49.4329
49.4317
49.4302
49.4275
49.4225
49.4144
49.4025
49.3868
49.3677
49.3455
49.3206
49.294
49.2664
49.2364
49.2026
49.165
49.124
49.0799
49.0351
48.9918
48.9505
48.9119
48.8779
48.8484
48.8207
48.7924
48.7667
48.7505
48.7456
48.7487
48.758
48.7755
48.8022
48.8371
48.876
48.9153
48.9573
49.0039
49.0549
49.1106
49.1705
49.2316
49.293
49.3529
49.4098
49.4608
49.4975
49.5147
49.509
49.4818
49.443
49.4124
49.4052
49.4185
49.4399
49.4558
49.4536
49.4217
49.3429
49.2183
49.0638
48.9246
48.7649
48.6876
48.6222
48.631
48.6743
48.7771
48.913
49.064
49.2791
49.5841
49.9215
50.2451
50.5906
50.9844
51.3559
51.692
51.9917
52.2135
52.3662
52.4723
52.5604
52.6799
52.8352
52.9953
53.1558
53.2946
53.4335
53.5817
53.752
53.9469
54.163
54.3923
54.6263
54.8573
55.0594
55.2588
55.4306
55.5793
55.7373
55.8675
56.009
56.14
56.2642
56.3535
56.4625
56.5928
56.7586
56.9931
57.2672
57.6033
57.9535
58.3493
58.7165
59.1381
59.4983
59.8697
60.2142
60.5359
60.7694
61.0464
61.172
61.3487
61.3992
61.5337
61.5367
61.6575
61.6606
61.8336
61.8556
62.0123
62.0202
62.2512
62.1252
62.5026
62.6266
63.0598
63.1278
63.2343
63.3967
63.3204
63.3106
63.3215
63.2912
63.2128
62.8894
62.8239
62.6572
62.5282
62.2326
62.0339
61.6148
61.3765
60.9175
60.557
60.1125
59.7303
59.178
58.7447
58.0575
57.4297
56.4384
55.8637
54.3469
53.8886
52.5655
51.9623
50.7936
49.4851
48.1032
46.3066
44.5423
42.5501
40.4617
38.2203
51.3246
51.1537
50.5964
50.1202
49.8342
49.7255
49.7303
49.7808
49.8315
49.8609
49.8626
49.8398
49.8007
49.7544
49.7079
49.6657
49.6297
49.6001
49.5764
49.5577
49.5432
49.5322
49.5242
49.5185
49.5145
49.5113
49.5079
49.5036
49.4976
49.4889
49.4766
49.4606
49.442
49.4221
49.401
49.3775
49.3528
49.3278
49.301
49.2696
49.2344
49.199
49.1645
49.1301
49.0982
49.0732
49.0546
49.0392
49.025
49.0118
49.0041
49.0061
49.0174
49.0361
49.0627
49.0978
49.14
49.1881
49.2411
49.2962
49.3507
49.4056
49.4643
49.5277
49.5933
49.6581
49.7216
49.7829
49.8399
49.8874
49.9201
49.9371
49.9362
49.9153
49.8806
49.8517
49.8454
49.8599
49.8873
49.913
49.9258
49.9145
49.862
49.77
49.6539
49.5663
49.4419
49.4067
49.3556
49.3938
49.4463
49.5892
49.705
49.891
50.0978
50.4105
50.7198
51.0987