/*--------------------------------*- C++ -*----------------------------------*\
| =========                 |                                                 |
| \\      /  F ield         | OpenFOAM: The Open Source CFD Toolbox           |
|  \\    /   O peration     | Version:  2.4.0                                 |
|   \\  /    A nd           | Web:      www.OpenFOAM.org                      |
|    \\/     M anipulation  |                                                 |
\*---------------------------------------------------------------------------*/
FoamFile
{
    version     2.0;
    format      ascii;
    class       volVectorField;
    location    "0.75";
    object      U;
}
// * * * * * * * * * * * * * * * * * * * * * * * * * * * * * * * * * * * * * //

dimensions      [0 1 -1 0 0 0 0];

internalField   nonuniform List<vector> 
8800
(
(8.09175 0.388043 0)
(5.44915 0.24252 0)
(3.91286 0.0427884 0)
(3.15606 -0.0151738 0)
(2.8001 -0.0183297 0)
(2.60086 -0.0115438 0)
(2.48372 -0.00502157 0)
(2.37798 -0.00200183 0)
(2.32037 -0.00259079 0)
(2.25392 -0.000510262 0)
(2.21485 0.000546127 0)
(2.16504 -0.000715955 0)
(2.1504 -0.00146131 0)
(2.10681 0.00171605 0)
(2.07577 0.0011555 0)
(2.04346 -0.000990208 0)
(2.01596 0.000642942 0)
(1.97477 0.00127235 0)
(1.95404 0.00884639 0)
(1.72703 -0.0648602 0)
(10.0831 0.838723 0)
(9.65756 0.86711 0)
(8.87454 0.506882 0)
(8.08013 0.263029 0)
(7.4919 0.137137 0)
(7.01305 0.0808099 0)
(6.69276 0.0563712 0)
(6.39796 0.0412465 0)
(6.2306 0.0264534 0)
(6.02694 0.0253668 0)
(5.92114 0.0219366 0)
(5.78322 0.01493 0)
(5.72749 0.0104805 0)
(5.60358 0.0209451 0)
(5.54797 0.0159382 0)
(5.46201 0.0108845 0)
(5.39365 0.0190433 0)
(5.29925 0.01502 0)
(5.25103 0.0312656 0)
(5.07476 -0.0642601 0)
(10.0586 0.632725 0)
(10.6597 0.861368 0)
(10.8729 0.601286 0)
(10.6889 0.376015 0)
(10.453 0.253374 0)
(10.0948 0.195114 0)
(9.83154 0.157575 0)
(9.49612 0.12294 0)
(9.31854 0.0885401 0)
(9.04153 0.0797962 0)
(8.91457 0.0635789 0)
(8.71026 0.046958 0)
(8.64503 0.0368651 0)
(8.45097 0.0504788 0)
(8.40276 0.0384569 0)
(8.26523 0.0291849 0)
(8.19517 0.0448412 0)
(8.04717 0.0402573 0)
(7.99957 0.0510769 0)
(7.82941 -0.075004 0)
(9.99476 0.45895 0)
(10.5677 0.701594 0)
(11.1762 0.547376 0)
(11.3821 0.357406 0)
(11.5464 0.256686 0)
(11.4654 0.224463 0)
(11.4865 0.206977 0)
(11.3046 0.176763 0)
(11.2929 0.138639 0)
(11.0923 0.132844 0)
(11.0695 0.1118 0)
(10.8695 0.0848592 0)
(10.8785 0.0724301 0)
(10.6615 0.0902299 0)
(10.6677 0.0653289 0)
(10.4985 0.0594007 0)
(10.4923 0.0673784 0)
(10.2724 0.0844034 0)
(10.2984 0.0550581 0)
(10.057 0.0614979 0)
(10.0426 0.350601 0)
(10.3894 0.559519 0)
(11.0484 0.459505 0)
(11.3307 0.304268 0)
(11.6583 0.205597 0)
(11.6641 0.1881 0)
(11.8772 0.185108 0)
(11.8301 0.171463 0)
(11.9738 0.1324 0)
(11.8973 0.141472 0)
(12.0461 0.121098 0)
(11.9259 0.0978894 0)
(12.0526 0.078565 0)
(11.9233 0.117825 0)
(12.0028 0.0726354 0)
(11.8874 0.0776406 0)
(11.9886 0.0800975 0)
(11.7998 0.118081 0)
(11.8704 0.0518565 0)
(11.6755 0.122357 0)
(10.0598 0.259013 0)
(10.3146 0.448393 0)
(10.8805 0.37007 0)
(11.1941 0.253429 0)
(11.5442 0.166417 0)
(11.6003 0.147183 0)
(11.8035 0.147377 0)
(11.8469 0.14359 0)
(11.968 0.110561 0)
(11.9741 0.114682 0)
(12.1647 0.105335 0)
(12.1626 0.0810054 0)
(12.2924 0.0674467 0)
(12.3139 0.108244 0)
(12.3584 0.0749416 0)
(12.3604 0.0536803 0)
(12.4893 0.0844087 0)
(12.4818 0.100791 0)
(12.4927 0.0556591 0)
(12.4207 0.0351836 0)
(10.0308 0.180046 0)
(10.2823 0.348486 0)
(10.7371 0.282969 0)
(11.1184 0.20958 0)
(11.4199 0.12141 0)
(11.5478 0.114828 0)
(11.679 0.107502 0)
(11.7882 0.118767 0)
(11.8761 0.0875365 0)
(11.9347 0.0899275 0)
(12.0379 0.0716215 0)
(12.0937 0.062246 0)
(12.1943 0.0411044 0)
(12.3482 0.102565 0)
(12.3568 0.0624789 0)
(12.3577 0.0304656 0)
(12.4526 0.0557657 0)
(12.5658 0.0846708 0)
(12.6005 0.0289455 0)
(12.4892 -0.00448416 0)
(10.0108 0.122038 0)
(10.2582 0.25122 0)
(10.6504 0.191516 0)
(11.0549 0.148699 0)
(11.3382 0.0934858 0)
(11.4787 0.0800566 0)
(11.6032 0.0756558 0)
(11.7297 0.0802395 0)
(11.8164 0.062293 0)
(11.9033 0.0670182 0)
(11.9356 0.0664749 0)
(11.9708 0.0380916 0)
(12.1398 0.00250456 0)
(12.3418 0.0656483 0)
(12.3322 0.0735939 0)
(12.2059 0.0203194 0)
(12.294 0.0208076 0)
(12.6077 0.033332 0)
(12.5951 0.0116065 0)
(12.4415 -0.00929598 0)
(9.99402 0.0710973 0)
(10.2482 0.148825 0)
(10.6315 0.111214 0)
(10.981 0.0868811 0)
(11.2712 0.060118 0)
(11.4543 0.0549832 0)
(11.5609 0.0395658 0)
(11.6749 0.0424747 0)
(11.7613 0.0367408 0)
(11.8539 0.0489647 0)
(11.8938 0.0591519 0)
(11.9889 0.00391227 0)
(12.1251 -0.0438054 0)
(12.2153 0.0508554 0)
(12.2181 0.0988983 0)
(12.2443 0.0198694 0)
(12.3216 -0.0535904 0)
(12.5262 -0.031459 0)
(12.5003 0.0185731 0)
(12.342 0.00505691 0)
(10.0004 0.0274002 0)
(10.2486 0.047058 0)
(10.5851 0.0295133 0)
(10.9506 0.0292142 0)
(11.2455 0.0258865 0)
(11.4233 0.0213776 0)
(11.5669 0.0131184 0)
(11.6751 0.00984198 0)
(11.7259 0.00572567 0)
(11.7709 0.0247554 0)
(11.9089 0.0355536 0)
(12.0635 -0.021731 0)
(12.088 -0.0489099 0)
(12.0201 0.0438867 0)
(12.1854 0.0681407 0)
(12.3739 -0.0170332 0)
(12.4281 -0.0646518 0)
(12.3551 -0.0396565 0)
(12.3114 0.00210231 0)
(12.3211 -0.00904405 0)
(10.0067 -0.0195064 0)
(10.231 -0.0460278 0)
(10.5859 -0.0467531 0)
(10.966 -0.0385946 0)
(11.2277 -0.00691302 0)
(11.4418 -0.00862235 0)
(11.579 -0.0288364 0)
(11.667 -0.0209095 0)
(11.7115 0.000461307 0)
(11.7772 -0.00668077 0)
(11.9219 -0.0136109 0)
(12.0561 -0.0419745 0)
(12.054 -0.0261545 0)
(12.013 0.0255472 0)
(12.2445 0.00801685 0)
(12.3776 -0.0538537 0)
(12.3857 -0.0608668 0)
(12.2989 -0.0340297 0)
(12.33 -0.0287056 0)
(12.3586 -0.0505606 0)
(9.9985 -0.0613741 0)
(10.2374 -0.145381 0)
(10.6371 -0.135852 0)
(10.9796 -0.0934995 0)
(11.2503 -0.0408483 0)
(11.4855 -0.0494485 0)
(11.5862 -0.0504816 0)
(11.6414 -0.0458545 0)
(11.7365 -0.034452 0)
(11.8648 -0.038478 0)
(11.9417 -0.032858 0)
(12.0153 -0.0549727 0)
(12.026 -0.0344285 0)
(12.1313 -0.00693255 0)
(12.3106 -0.0243698 0)
(12.3508 -0.0643818 0)
(12.3242 -0.0641615 0)
(12.3363 -0.0569564 0)
(12.422 -0.0702473 0)
(12.399 -0.0617231 0)
(9.99925 -0.111654 0)
(10.2708 -0.251722 0)
(10.6822 -0.211048 0)
(11.0194 -0.150606 0)
(11.316 -0.0830811 0)
(11.5171 -0.0789548 0)
(11.6175 -0.0732344 0)
(11.6817 -0.0814892 0)
(11.7973 -0.0649487 0)
(11.8984 -0.0679385 0)
(11.9873 -0.0507535 0)
(12.0504 -0.0652249 0)
(12.0937 -0.0473122 0)
(12.1966 -0.0480148 0)
(12.309 -0.0474667 0)
(12.367 -0.0688311 0)
(12.3954 -0.0699385 0)
(12.4229 -0.0920213 0)
(12.4734 -0.10244 0)
(12.4157 -0.088745 0)
(10.0237 -0.172238 0)
(10.2953 -0.353134 0)
(10.7604 -0.296076 0)
(11.0992 -0.203545 0)
(11.4054 -0.119921 0)
(11.5501 -0.116597 0)
(11.6863 -0.10084 0)
(11.7612 -0.111468 0)
(11.8747 -0.0949318 0)
(11.9542 -0.0975196 0)
(12.0614 -0.06918 0)
(12.1028 -0.0850634 0)
(12.1955 -0.063902 0)
(12.272 -0.0674569 0)
(12.3364 -0.0628637 0)
(12.3993 -0.0965432 0)
(12.4827 -0.0889515 0)
(12.524 -0.113688 0)
(12.5394 -0.124332 0)
(12.4652 -0.119173 0)
(10.0633 -0.249683 0)
(10.3157 -0.457061 0)
(10.9062 -0.381092 0)
(11.1762 -0.247013 0)
(11.5291 -0.160795 0)
(11.5996 -0.150911 0)
(11.8093 -0.136215 0)
(11.8222 -0.146226 0)
(12.0019 -0.122586 0)
(12.01 -0.122171 0)
(12.1497 -0.0882165 0)
(12.1341 -0.105044 0)
(12.2746 -0.0819236 0)
(12.273 -0.0902583 0)
(12.3801 -0.0758278 0)
(12.3758 -0.118439 0)
(12.4665 -0.102931 0)
(12.4369 -0.141452 0)
(12.4491 -0.136348 0)
(12.3271 -0.156932 0)
(10.0614 -0.345547 0)
(10.3956 -0.567841 0)
(11.0603 -0.467168 0)
(11.2834 -0.28932 0)
(11.6617 -0.208729 0)
(11.6638 -0.193572 0)
(11.898 -0.175553 0)
(11.8155 -0.170929 0)
(12.0065 -0.151937 0)
(11.884 -0.137935 0)
(12.0419 -0.10606 0)
(11.9027 -0.115808 0)
(12.0431 -0.0975897 0)
(11.9021 -0.0990267 0)
(12.017 -0.0857267 0)
(11.8554 -0.123782 0)
(11.9333 -0.104695 0)
(11.7535 -0.14253 0)
(11.7494 -0.134274 0)
(11.5071 -0.176532 0)
(10.0153 -0.456596 0)
(10.5618 -0.707094 0)
(11.174 -0.547487 0)
(11.3573 -0.348305 0)
(11.5716 -0.263377 0)
(11.4465 -0.229469 0)
(11.5106 -0.197058 0)
(11.2866 -0.178792 0)
(11.3169 -0.151554 0)
(11.0506 -0.128402 0)
(11.1015 -0.100879 0)
(10.8284 -0.101143 0)
(10.8851 -0.0844686 0)
(10.6218 -0.0831147 0)
(10.6907 -0.0700347 0)
(10.4012 -0.0990657 0)
(10.46 -0.0805765 0)
(10.1589 -0.120434 0)
(10.1543 -0.102525 0)
(9.80458 -0.169464 0)
(10.0679 -0.631668 0)
(10.6563 -0.863556 0)
(10.8692 -0.602354 0)
(10.6857 -0.3716 0)
(10.467 -0.256636 0)
(10.0739 -0.197347 0)
(9.85278 -0.152105 0)
(9.48123 -0.123889 0)
(9.32937 -0.0965875 0)
(9.00664 -0.0776821 0)
(8.95135 -0.0571621 0)
(8.66143 -0.0556496 0)
(8.65812 -0.0474579 0)
(8.39592 -0.0460825 0)
(8.4266 -0.0397716 0)
(8.14331 -0.0578748 0)
(8.18001 -0.053225 0)
(7.87301 -0.0722511 0)
(7.86443 -0.0744959 0)
(7.50738 -0.0956442 0)
(10.0864 -0.838371 0)
(9.65687 -0.867975 0)
(8.87137 -0.507262 0)
(8.08113 -0.260754 0)
(7.49787 -0.138303 0)
(6.99948 -0.0830907 0)
(6.70593 -0.0533214 0)
(6.38914 -0.0408852 0)
(6.23423 -0.0309726 0)
(6.00373 -0.0255038 0)
(5.94326 -0.0169784 0)
(5.74939 -0.0193866 0)
(5.73239 -0.0176386 0)
(5.55196 -0.0183116 0)
(5.56037 -0.0152008 0)
(5.36149 -0.0271115 0)
(5.36446 -0.0248728 0)
(5.13476 -0.0334823 0)
(5.11461 -0.0397186 0)
(4.8151 -0.0222749 0)
(8.09181 -0.387958 0)
(5.44985 -0.242486 0)
(3.9107 -0.0430385 0)
(3.15659 0.0155903 0)
(2.80266 0.018255 0)
(2.59563 0.0107529 0)
(2.48614 0.00595839 0)
(2.37701 0.00234685 0)
(2.32163 0.00129635 0)
(2.24143 0.000173022 0)
(2.2196 0.00141302 0)
(2.15631 -0.00031028 0)
(2.14421 -0.000432897 0)
(2.07721 -0.00092288 0)
(2.07429 0.000173803 0)
(1.99735 -0.00319189 0)
(1.97852 -0.00168199 0)
(1.88311 -0.003507 0)
(1.84286 -0.00396316 0)
(1.69122 0.0109852 0)
(2.25141 -0.167889 0)
(2.35782 -0.0876407 0)
(2.48388 -0.053458 0)
(2.59448 -0.0523664 0)
(2.74305 -0.0608916 0)
(2.84789 -0.0611825 0)
(2.96946 -0.0581137 0)
(3.04026 -0.0518303 0)
(3.12516 -0.0499063 0)
(3.16353 -0.0499967 0)
(3.22662 -0.053017 0)
(3.24799 -0.0497162 0)
(3.30407 -0.0449477 0)
(3.32359 -0.0335205 0)
(3.37741 -0.0242728 0)
(3.4059 -0.0145435 0)
(3.46432 -0.00734311 0)
(3.50106 -0.00482773 0)
(3.56653 -0.00765398 0)
(3.60325 -0.00559955 0)
(3.65984 -0.00677823 0)
(3.69295 -0.00430035 0)
(3.7472 -0.0052268 0)
(3.78086 -0.00567039 0)
(3.83364 -0.00763071 0)
(3.86318 -0.00845428 0)
(3.91188 -0.0121648 0)
(3.93976 -0.012473 0)
(3.98024 -0.0155766 0)
(4.01067 -0.018485 0)
(4.0444 -0.0156181 0)
(4.07408 -0.0172392 0)
(4.10556 -0.0157919 0)
(4.13109 -0.0122777 0)
(4.16049 -0.0185337 0)
(4.18427 -0.0195964 0)
(4.20692 -0.0332721 0)
(4.22551 -0.0365562 0)
(4.24726 -0.0435651 0)
(4.25945 -0.04762 0)
(4.26447 -0.0378846 0)
(4.27216 -0.0441166 0)
(4.27097 -0.0334821 0)
(4.27909 -0.035398 0)
(4.31662 -0.0370331 0)
(4.32201 -0.00733914 0)
(4.37522 0.0124338 0)
(4.37343 0.0765464 0)
(4.41751 0.152601 0)
(4.45561 0.237471 0)
(4.51078 0.361433 0)
(4.62423 0.472324 0)
(4.71554 0.571154 0)
(4.91972 0.641303 0)
(5.05187 0.731828 0)
(5.32216 0.732128 0)
(5.51096 0.668665 0)
(5.85887 0.645669 0)
(6.08944 0.453416 0)
(6.26251 0.26352 0)
(6.66937 0.178683 0)
(6.78878 -0.161736 0)
(6.96975 -0.410729 0)
(7.40884 -0.514213 0)
(7.36424 -0.883109 0)
(7.71364 -1.09829 0)
(8.05869 -1.1841 0)
(7.96691 -1.57874 0)
(8.43249 -1.73365 0)
(8.37611 -1.83593 0)
(8.35016 -2.11261 0)
(8.64774 -1.95172 0)
(8.29247 -1.8789 0)
(8.43513 -1.88326 0)
(8.34808 -1.48531 0)
(8.12347 -1.35073 0)
(8.34703 -1.09717 0)
(8.18051 -0.629099 0)
(8.07749 -0.461161 0)
(8.12128 -0.150866 0)
(7.92744 0.183688 0)
(8.08825 0.190652 0)
(8.28154 0.443594 0)
(8.39508 0.717545 0)
(8.97185 0.530655 0)
(9.30375 0.585442 0)
(9.64138 0.686759 0)
(10.2902 0.321786 0)
(10.5543 0.126339 0)
(11.0114 -0.059203 0)
(11.398 -0.375496 0)
(11.777 -0.701789 0)
(12.2182 -1.07405 0)
(12.3843 -1.30945 0)
(12.8485 -1.65099 0)
(13.0549 -1.97124 0)
(13.3471 -2.20494 0)
(13.5949 -2.48704 0)
(13.7608 -2.65496 0)
(13.9881 -2.8559 0)
(14.0779 -3.00838 0)
(14.2431 -3.11529 0)
(14.2641 -3.22744 0)
(14.2737 -3.23655 0)
(14.2757 -3.35872 0)
(14.0827 -3.3783 0)
(13.8863 -3.30305 0)
(13.5446 -3.3741 0)
(13.0498 -3.25795 0)
(12.4178 -3.04286 0)
(11.7224 -2.91171 0)
(10.8991 -2.51424 0)
(10.026 -2.10894 0)
(9.20789 -1.82977 0)
(8.52132 -1.27237 0)
(7.94578 -0.861483 0)
(7.39602 -0.765596 0)
(7.03505 -0.285963 0)
(6.81119 0.238689 0)
(6.62568 0.10039 0)
(6.40752 -0.272088 0)
(6.14837 -0.0875326 0)
(6.02135 0.774796 0)
(5.93074 1.45045 0)
(5.79474 1.14948 0)
(5.45408 -0.274302 0)
(4.83322 -2.43203 0)
(3.99783 -4.95173 0)
(3.51303 -7.33792 0)
(3.26967 -9.26008 0)
(3.42463 -10.547 0)
(3.97155 -10.7346 0)
(4.21365 -10.3976 0)
(4.92158 -9.50359 0)
(5.2909 -8.47649 0)
(5.71618 -7.44611 0)
(6.5146 -5.9655 0)
(6.6741 -4.76138 0)
(7.20683 -2.8036 0)
(7.33754 -0.878285 0)
(7.70797 0.379446 0)
(7.59894 1.32079 0)
(8.15264 2.51058 0)
(7.86621 4.03594 0)
(8.69631 5.56883 0)
(8.64769 7.00174 0)
(8.95141 7.97391 0)
(8.91104 8.3126 0)
(9.10538 9.13215 0)
(9.42913 9.72156 0)
(8.99929 9.57441 0)
(8.99977 9.55759 0)
(9.09239 9.38294 0)
(8.25619 8.54724 0)
(7.84508 7.78711 0)
(7.78041 7.54536 0)
(7.52821 6.9526 0)
(7.19311 6.28086 0)
(7.29974 5.61912 0)
(6.84154 4.64797 0)
(6.70028 3.70422 0)
(6.63073 3.03756 0)
(5.77365 2.06214 0)
(6.05334 1.54687 0)
(5.21843 0.696274 0)
(5.68548 0.350581 0)
(4.95373 -0.415817 0)
(5.34944 -0.819849 0)
(4.70647 -1.34941 0)
(5.18387 -1.50826 0)
(4.43995 -1.93543 0)
(5.2599 -1.65474 0)
(4.3115 -1.72422 0)
(5.37828 -1.15587 0)
(4.78593 -0.552744 0)
(6.20709 0.421406 0)
(5.85397 1.05061 0)
(6.73969 1.84597 0)
(6.88426 2.12671 0)
(6.44199 2.6413 0)
(8.3162 3.02592 0)
(6.07654 3.09938 0)
(8.8942 2.84725 0)
(5.76447 3.18481 0)
(9.03688 2.34941 0)
(5.58099 3.08007 0)
(8.77514 1.88304 0)
(5.55499 2.84192 0)
(8.54963 1.13207 0)
(6.26616 2.67744 0)
(8.6739 0.675733 0)
(6.66348 1.72494 0)
(8.4377 -0.267713 0)
(6.67095 0.579776 0)
(7.92385 -1.30774 0)
(5.96348 -0.177956 0)
(7.20507 -2.02235 0)
(5.17712 -0.00188056 0)
(6.03174 -1.54726 0)
(4.61443 1.93948 0)
(5.23651 -0.0987175 0)
(5.26703 -0.0710458 0)
(5.30351 -0.0718361 0)
(5.3564 -0.0927447 0)
(5.44295 -0.110252 0)
(5.51944 -0.113907 0)
(5.59514 -0.107568 0)
(5.64336 -0.0971319 0)
(5.68811 -0.0897528 0)
(5.71093 -0.0832971 0)
(5.74162 -0.081453 0)
(5.7593 -0.0757502 0)
(5.79015 -0.071744 0)
(5.81251 -0.0652129 0)
(5.84168 -0.0576859 0)
(5.86682 -0.0512889 0)
(5.89782 -0.045715 0)
(5.9263 -0.0442084 0)
(5.95907 -0.0449855 0)
(5.98657 -0.0418971 0)
(6.02004 -0.0418823 0)
(6.04091 -0.0386901 0)
(6.07443 -0.0362538 0)
(6.09187 -0.0352573 0)
(6.12356 -0.0344834 0)
(6.14112 -0.0346658 0)
(6.16643 -0.0357251 0)
(6.18395 -0.0370244 0)
(6.20363 -0.0352315 0)
(6.22392 -0.0397236 0)
(6.23596 -0.0368019 0)
(6.26253 -0.0355097 0)
(6.26806 -0.0392472 0)
(6.29716 -0.0331485 0)
(6.3019 -0.0434022 0)
(6.32546 -0.0363592 0)
(6.33578 -0.0470917 0)
(6.34868 -0.0502497 0)
(6.3615 -0.0456094 0)
(6.3681 -0.0611891 0)
(6.36813 -0.0407736 0)
(6.37535 -0.0562682 0)
(6.36257 -0.0331406 0)
(6.37038 -0.0227266 0)
(6.35794 -0.0255936 0)
(6.37067 0.0156766 0)
(6.36665 0.0132614 0)
(6.37589 0.0879224 0)
(6.38192 0.124433 0)
(6.40031 0.194937 0)
(6.46283 0.316031 0)
(6.50371 0.319555 0)
(6.6359 0.474471 0)
(6.80386 0.49248 0)
(6.88446 0.461385 0)
(7.21381 0.589508 0)
(7.38361 0.437409 0)
(7.52561 0.341445 0)
(8.04048 0.317774 0)
(8.00344 0.0324055 0)
(8.3816 -0.140864 0)
(8.74401 -0.222712 0)
(8.7197 -0.580272 0)
(9.16278 -0.771298 0)
(9.33708 -0.900891 0)
(9.39727 -1.28587 0)
(9.81255 -1.39954 0)
(9.76507 -1.57475 0)
(9.96356 -1.9504 0)
(10.0718 -1.87809 0)
(9.88932 -2.07105 0)
(10.0285 -2.1242 0)
(9.77327 -1.82132 0)
(9.74392 -1.94565 0)
(9.73874 -1.54398 0)
(9.5743 -1.21296 0)
(9.66104 -1.19758 0)
(9.62003 -0.646345 0)
(9.62753 -0.450815 0)
(9.74005 -0.340918 0)
(9.85689 0.148459 0)
(9.94689 0.268569 0)
(10.1503 0.280799 0)
(10.2603 0.547571 0)
(10.4483 0.519796 0)
(10.7351 0.316192 0)
(10.9342 0.324764 0)
(11.2989 0.0993679 0)
(11.5638 -0.211628 0)
(11.9637 -0.473771 0)
(12.2631 -0.747711 0)
(12.5942 -1.03955 0)
(12.9614 -1.4147 0)
(13.2285 -1.69602 0)
(13.5991 -1.98933 0)
(13.7679 -2.21575 0)
(14.1533 -2.50257 0)
(14.3487 -2.71295 0)
(14.5444 -2.8456 0)
(14.7586 -3.03503 0)
(14.871 -3.13319 0)
(15.0308 -3.20063 0)
(14.9824 -3.25526 0)
(14.9927 -3.23777 0)
(14.8497 -3.2473 0)
(14.5991 -3.18403 0)
(14.2555 -3.03289 0)
(13.7566 -2.98688 0)
(13.1689 -2.76245 0)
(12.4188 -2.45631 0)
(11.6063 -2.25201 0)
(10.7648 -1.85161 0)
(9.96259 -1.43047 0)
(9.1811 -1.17044 0)
(8.58494 -0.707165 0)
(8.06385 -0.357133 0)
(7.51588 -0.414482 0)
(7.2019 -0.0903861 0)
(7.08517 0.388398 0)
(6.87374 0.271945 0)
(6.68471 -0.103102 0)
(6.45238 0.09166 0)
(6.30061 0.894948 0)
(6.19519 1.56133 0)
(6.00582 1.35597 0)
(5.66536 0.125638 0)
(5.00191 -1.89192 0)
(4.16633 -4.36931 0)
(3.4415 -6.96202 0)
(3.1123 -9.20864 0)
(3.20284 -10.6751 0)
(3.38391 -11.1695 0)
(3.89544 -10.8309 0)
(4.46559 -9.89525 0)
(4.60818 -8.94394 0)
(5.22067 -7.83496 0)
(5.81328 -6.47908 0)
(6.01454 -4.98415 0)
(6.51748 -3.0215 0)
(6.72753 -1.12942 0)
(7.05118 0.207114 0)
(7.045 1.18017 0)
(7.15187 2.47036 0)
(7.47 3.75469 0)
(7.4705 5.4504 0)
(8.04551 6.72832 0)
(8.17744 7.74043 0)
(8.529 8.35178 0)
(8.48443 8.64836 0)
(9.03836 9.50152 0)
(9.23854 9.89646 0)
(8.62312 9.56993 0)
(8.88276 9.28854 0)
(8.89762 9.20096 0)
(8.26087 8.57562 0)
(8.0626 7.85941 0)
(7.94963 7.36793 0)
(7.68549 6.47236 0)
(7.31755 5.66624 0)
(7.75038 4.84818 0)
(6.69127 3.8488 0)
(7.18715 3.1289 0)
(6.62106 2.46701 0)
(6.26496 1.60335 0)
(6.61443 0.873011 0)
(5.50827 0.391389 0)
(6.80787 -0.434161 0)
(5.29834 -0.632987 0)
(6.8572 -1.39708 0)
(5.19319 -1.42352 0)
(6.84336 -1.87013 0)
(5.39759 -1.77186 0)
(6.79526 -1.57023 0)
(5.38574 -1.1807 0)
(6.61504 -0.784844 0)
(5.4481 0.0672357 0)
(7.72995 0.856663 0)
(5.90166 1.62687 0)
(8.96695 2.1543 0)
(6.19681 2.79716 0)
(9.49115 2.54597 0)
(6.64788 3.32129 0)
(9.78434 2.6288 0)
(6.86783 3.37466 0)
(9.61556 2.25074 0)
(6.88863 3.20468 0)
(9.39256 1.87235 0)
(6.9718 3.03354 0)
(9.29906 1.23667 0)
(6.95126 2.28409 0)
(9.32546 0.897632 0)
(7.36109 1.52065 0)
(9.17785 0.0352746 0)
(7.36656 0.690302 0)
(8.79715 -0.682939 0)
(6.89316 0.00620595 0)
(8.13613 -1.25061 0)
(6.42144 0.178275 0)
(7.45594 -0.859874 0)
(6.60761 1.20365 0)
(7.87966 -0.12109 0)
(7.89364 -0.128061 0)
(7.90827 -0.142731 0)
(7.96114 -0.149586 0)
(8.03193 -0.145512 0)
(8.10599 -0.131665 0)
(8.15569 -0.115879 0)
(8.1897 -0.0988924 0)
(8.20344 -0.0936915 0)
(8.20903 -0.0873156 0)
(8.2152 -0.0900542 0)
(8.21861 -0.0883796 0)
(8.23327 -0.0831675 0)
(8.24739 -0.0853281 0)
(8.27027 -0.0729861 0)
(8.29083 -0.072318 0)
(8.31212 -0.0629067 0)
(8.33375 -0.0574984 0)
(8.35285 -0.058648 0)
(8.36809 -0.0510885 0)
(8.38816 -0.0538374 0)
(8.39627 -0.049673 0)
(8.41442 -0.0477392 0)
(8.42651 -0.0473461 0)
(8.43857 -0.0476422 0)
(8.45684 -0.0439347 0)
(8.46436 -0.0487116 0)
(8.48211 -0.0445339 0)
(8.48707 -0.0424018 0)
(8.50462 -0.0510498 0)
(8.50432 -0.0347296 0)
(8.52309 -0.0497103 0)
(8.5222 -0.0429122 0)
(8.53204 -0.036932 0)
(8.54403 -0.0605401 0)
(8.53198 -0.0315121 0)
(8.565 -0.064596 0)
(8.53145 -0.0514909 0)
(8.57791 -0.042467 0)
(8.53832 -0.0810851 0)
(8.5653 -0.0200201 0)
(8.55953 -0.0696176 0)
(8.52815 -0.032218 0)
(8.5703 0.000747325 0)
(8.51234 -0.0556584 0)
(8.54042 0.0634349 0)
(8.55927 0.00344873 0)
(8.47551 0.0743419 0)
(8.62982 0.165904 0)
(8.48353 0.110009 0)
(8.62374 0.294331 0)
(8.70951 0.283318 0)
(8.59801 0.297232 0)
(9.00257 0.426393 0)
(8.9166 0.333909 0)
(9.11985 0.334163 0)
(9.50157 0.313849 0)
(9.39897 0.167775 0)
(9.88484 0.0416383 0)
(10.0339 -0.0723246 0)
(10.1392 -0.311606 0)
(10.5626 -0.506092 0)
(10.5875 -0.66721 0)
(10.846 -0.959351 0)
(11.0925 -1.13743 0)
(11.0881 -1.34079 0)
(11.3438 -1.58734 0)
(11.3915 -1.69647 0)
(11.3797 -1.91566 0)
(11.4574 -1.96722 0)
(11.3057 -1.97562 0)
(11.2802 -2.03204 0)
(11.1473 -1.77763 0)
(11.0792 -1.73518 0)
(10.9291 -1.49165 0)
(10.9166 -1.16326 0)
(10.8141 -1.08284 0)
(10.8162 -0.721792 0)
(10.9138 -0.44253 0)
(10.7967 -0.313709 0)
(11.0219 -0.0672206 0)
(11.0347 0.191482 0)
(11.1912 0.154384 0)
(11.5051 0.233783 0)
(11.5996 0.357321 0)
(11.9691 0.125566 0)
(12.2278 0.0558433 0)
(12.5609 -0.104261 0)
(12.7881 -0.355674 0)
(13.1491 -0.617422 0)
(13.4467 -0.939967 0)
(13.7269 -1.19183 0)
(13.9798 -1.49349 0)
(14.2686 -1.83319 0)
(14.5417 -2.10375 0)
(14.6937 -2.31818 0)
(14.9764 -2.57908 0)
(15.1161 -2.80222 0)
(15.2787 -2.93561 0)
(15.3527 -3.06046 0)
(15.4197 -3.17777 0)
(15.4339 -3.19316 0)
(15.2873 -3.20701 0)
(15.1904 -3.1375 0)
(14.9109 -3.0363 0)
(14.5823 -2.90247 0)
(14.1249 -2.66407 0)
(13.5719 -2.47784 0)
(12.9223 -2.18242 0)
(12.1632 -1.8062 0)
(11.3787 -1.57261 0)
(10.595 -1.21439 0)
(9.84758 -0.784841 0)
(9.15045 -0.604122 0)
(8.60256 -0.283489 0)
(8.14751 0.013739 0)
(7.68836 -0.0749637 0)
(7.36204 0.0468591 0)
(7.22411 0.510541 0)
(7.02987 0.458177 0)
(6.77711 0.0644893 0)
(6.58794 0.237971 0)
(6.51564 0.993647 0)
(6.40489 1.69716 0)
(6.25127 1.57208 0)
(5.87265 0.534794 0)
(5.27715 -1.27921 0)
(4.38873 -3.68635 0)
(3.60221 -6.47447 0)
(3.13452 -9.0092 0)
(2.88559 -10.8337 0)
(3.15424 -11.4438 0)
(3.58413 -11.1126 0)
(3.67089 -10.2919 0)
(4.27617 -9.35514 0)
(4.74823 -8.17667 0)
(4.79462 -6.80358 0)
(5.54833 -5.27866 0)
(5.6835 -3.34801 0)
(6.09123 -1.38803 0)
(6.24903 0.0478114 0)
(6.42795 1.10311 0)
(6.49371 2.38141 0)
(6.40399 3.65542 0)
(6.73818 5.11678 0)
(7.18388 6.60763 0)
(7.32443 7.39625 0)
(7.77759 8.15855 0)
(8.22286 8.65225 0)
(8.14402 9.14974 0)
(9.05022 9.90297 0)
(9.09422 9.78543 0)
(8.31368 9.29923 0)
(8.81479 8.88855 0)
(8.87524 8.6138 0)
(8.32229 7.94324 0)
(8.23057 7.31103 0)
(8.37887 6.68126 0)
(7.70406 5.70851 0)
(7.71318 4.96644 0)
(7.89607 4.01356 0)
(6.55146 3.30614 0)
(8.20617 2.38127 0)
(6.0188 2.06776 0)
(8.4085 0.825703 0)
(5.58354 0.704392 0)
(8.59327 -0.710337 0)
(5.5342 -0.472279 0)
(8.99121 -1.59155 0)
(5.80967 -1.19396 0)
(8.96485 -2.24592 0)
(6.03521 -1.49116 0)
(9.04378 -1.69406 0)
(6.13008 -0.828256 0)
(8.83777 -0.860555 0)
(5.7021 -0.0568074 0)
(8.90708 -0.039475 0)
(6.41202 1.50501 0)
(9.73696 1.15947 0)
(7.38039 2.66396 0)
(10.3214 2.19498 0)
(7.79235 3.26515 0)
(10.1991 2.23789 0)
(8.04489 3.43519 0)
(10.0673 2.22163 0)
(8.06754 3.1911 0)
(9.83678 1.78374 0)
(8.06879 2.88884 0)
(9.88956 1.50305 0)
(8.30318 2.21398 0)
(9.57156 0.996009 0)
(8.61607 1.44858 0)
(9.47756 0.209792 0)
(8.62091 0.662673 0)
(9.29124 -0.352326 0)
(8.34346 0.0622503 0)
(8.71974 -0.933995 0)
(7.84678 -0.0697544 0)
(8.20463 -0.599273 0)
(7.78077 0.376472 0)
(10.0623 -0.15163 0)
(10.0912 -0.267126 0)
(10.1219 -0.30896 0)
(10.1855 -0.289503 0)
(10.2434 -0.240234 0)
(10.2981 -0.193061 0)
(10.3266 -0.150688 0)
(10.3401 -0.123292 0)
(10.344 -0.105694 0)
(10.3318 -0.0970293 0)
(10.3395 -0.0981706 0)
(10.3258 -0.0964097 0)
(10.3355 -0.094751 0)
(10.3381 -0.0967378 0)
(10.3456 -0.0893159 0)
(10.3645 -0.0894536 0)
(10.3693 -0.0807608 0)
(10.3847 -0.0776671 0)
(10.3954 -0.0766899 0)
(10.4001 -0.0675035 0)
(10.4146 -0.0729039 0)
(10.4166 -0.0610803 0)
(10.4299 -0.0632904 0)
(10.4301 -0.0560933 0)
(10.4454 -0.055868 0)
(10.4406 -0.0561903 0)
(10.4601 -0.0505207 0)
(10.4524 -0.0608774 0)
(10.4657 -0.0431075 0)
(10.4755 -0.0636233 0)
(10.4647 -0.0432144 0)
(10.4962 -0.048527 0)
(10.4773 -0.0573741 0)
(10.4936 -0.0280761 0)
(10.511 -0.0744851 0)
(10.4631 -0.0269665 0)
(10.545 -0.0662079 0)
(10.4443 -0.0660714 0)
(10.5227 -0.0307704 0)
(10.494 -0.0939429 0)
(10.4277 -0.0184706 0)
(10.5708 -0.0619187 0)
(10.3713 -0.0370098 0)
(10.5392 0.0101151 0)
(10.457 -0.0451108 0)
(10.3976 0.0620757 0)
(10.5988 0.0224 0)
(10.3408 0.071044 0)
(10.595 0.138319 0)
(10.5285 0.124454 0)
(10.4513 0.224205 0)
(10.8023 0.209959 0)
(10.5167 0.280124 0)
(10.9038 0.254659 0)
(10.927 0.242432 0)
(10.9483 0.236562 0)
(11.3833 0.0888832 0)
(11.2627 0.0609305 0)
(11.6039 -0.095742 0)
(11.8053 -0.309917 0)
(11.8031 -0.388774 0)
(12.167 -0.658192 0)
(12.1922 -0.860858 0)
(12.2895 -0.979696 0)
(12.5107 -1.2851 0)
(12.4358 -1.42172 0)
(12.5338 -1.53764 0)
(12.5541 -1.78935 0)
(12.4109 -1.81076 0)
(12.382 -1.86223 0)
(12.2229 -1.9608 0)
(12.0281 -1.82979 0)
(11.8762 -1.74359 0)
(11.7012 -1.68777 0)
(11.4656 -1.38463 0)
(11.5493 -1.26032 0)
(11.3236 -1.02572 0)
(11.387 -0.745467 0)
(11.5156 -0.582875 0)
(11.3373 -0.316623 0)
(11.6996 -0.201835 0)
(11.7095 0.0296786 0)
(11.8641 0.0611373 0)
(12.2035 0.0581361 0)
(12.3246 0.120338 0)
(12.6104 -0.048295 0)
(12.8463 -0.159586 0)
(13.1984 -0.405518 0)
(13.3344 -0.60543 0)
(13.6284 -0.848331 0)
(13.8799 -1.19089 0)
(14.1336 -1.46504 0)
(14.2818 -1.70224 0)
(14.5051 -2.01868 0)
(14.7174 -2.3081 0)
(14.8376 -2.49836 0)
(14.9483 -2.74827 0)
(15.0741 -2.94003 0)
(15.1511 -3.06006 0)
(15.1229 -3.14388 0)
(15.1691 -3.21047 0)
(15.085 -3.18205 0)
(14.974 -3.09807 0)
(14.8336 -2.97021 0)
(14.5918 -2.77579 0)
(14.2402 -2.52661 0)
(13.857 -2.19811 0)
(13.3787 -1.9304 0)
(12.7098 -1.5741 0)
(12.0643 -1.14679 0)
(11.3429 -0.96055 0)
(10.6217 -0.579172 0)
(9.97161 -0.189203 0)
(9.399 -0.155662 0)
(8.92845 0.0986237 0)
(8.48056 0.386197 0)
(8.01305 0.244509 0)
(7.67683 0.274554 0)
(7.46319 0.699061 0)
(7.25485 0.666848 0)
(6.92433 0.284297 0)
(6.71986 0.349162 0)
(6.57874 1.07501 0)
(6.51812 1.77356 0)
(6.46031 1.78502 0)
(6.13237 0.878525 0)
(5.56571 -0.683628 0)
(4.83088 -3.03954 0)
(4.01654 -5.83405 0)
(3.2024 -8.74766 0)
(2.92674 -10.8023 0)
(2.90658 -11.5763 0)
(2.95493 -11.365 0)
(3.41361 -10.7824 0)
(3.78049 -9.60747 0)
(3.76788 -8.43345 0)
(4.4273 -7.21768 0)
(4.7467 -5.45201 0)
(4.75575 -3.61074 0)
(5.44177 -1.59565 0)
(5.35805 -0.180332 0)
(5.80385 1.10144 0)
(5.42481 2.23327 0)
(5.86914 3.73366 0)
(5.68842 4.70006 0)
(6.13194 6.21457 0)
(6.86801 7.15626 0)
(6.83835 7.68908 0)
(7.71059 8.33363 0)
(8.00919 8.65393 0)
(7.99824 9.34412 0)
(9.17787 10.0536 0)
(9.02354 9.65356 0)
(8.13755 9.07411 0)
(8.70421 8.7208 0)
(8.89227 8.34318 0)
(8.2816 7.59485 0)
(8.59478 7.11039 0)
(8.86782 6.02976 0)
(7.51338 5.34138 0)
(9.35621 4.06714 0)
(6.57121 3.66965 0)
(9.34225 2.19389 0)
(6.34972 2.15525 0)
(9.35012 0.568927 0)
(6.37917 0.918339 0)
(9.48755 -1.01817 0)
(6.30428 -0.340394 0)
(9.6875 -2.11316 0)
(6.60296 -0.995074 0)
(9.82454 -2.66263 0)
(6.44916 -1.57421 0)
(9.76857 -2.36248 0)
(6.9218 -0.500318 0)
(10.0529 -1.10287 0)
(7.15784 0.614442 0)
(9.68763 -0.270572 0)
(7.04795 1.4712 0)
(9.90539 0.860994 0)
(7.70643 2.59301 0)
(10.3599 1.96363 0)
(8.65333 3.32549 0)
(10.6073 2.48008 0)
(8.96605 3.35368 0)
(10.4713 2.29085 0)
(9.06953 3.17645 0)
(10.4725 2.08925 0)
(8.96989 2.56525 0)
(10.2658 1.61287 0)
(9.39892 1.95832 0)
(10.1281 1.11505 0)
(9.56938 1.14592 0)
(9.97233 0.378318 0)
(9.42454 0.450457 0)
(9.77201 -0.0882317 0)
(9.17499 -0.0134549 0)
(9.4184 -0.467541 0)
(8.8112 -0.0253057 0)
(8.86944 -0.291906 0)
(8.63359 0.14476 0)
(11.5739 -0.117115 0)
(11.6125 -0.281475 0)
(11.7162 -0.339241 0)
(11.8017 -0.327193 0)
(11.8531 -0.268977 0)
(11.8785 -0.210212 0)
(11.8792 -0.160338 0)
(11.8668 -0.123331 0)
(11.8502 -0.111914 0)
(11.8257 -0.0933999 0)
(11.8184 -0.105014 0)
(11.8071 -0.0993763 0)
(11.8014 -0.101616 0)
(11.8116 -0.110587 0)
(11.8015 -0.0933393 0)
(11.831 -0.105341 0)
(11.8251 -0.0823358 0)
(11.8532 -0.0803485 0)
(11.8545 -0.0784787 0)
(11.8787 -0.0568838 0)
(11.8724 -0.0696924 0)
(11.8863 -0.0604802 0)
(11.8794 -0.056628 0)
(11.8689 -0.0642511 0)
(11.877 -0.0586187 0)
(11.8546 -0.0588198 0)
(11.8666 -0.0651464 0)
(11.8707 -0.0579682 0)
(11.8414 -0.0522689 0)
(11.9063 -0.0738611 0)
(11.8367 -0.0360802 0)
(11.9138 -0.0698812 0)
(11.8794 -0.0535228 0)
(11.88 -0.0344322 0)
(11.9547 -0.085166 0)
(11.8433 -0.0113116 0)
(11.9864 -0.0798085 0)
(11.8709 -0.0392426 0)
(11.9095 -0.0365614 0)
(11.9594 -0.0888979 0)
(11.7863 0.0134685 0)
(12.0032 -0.104493 0)
(11.7671 0.0121371 0)
(11.9118 -0.0160376 0)
(11.9073 -0.054228 0)
(11.7475 0.102229 0)
(12.0625 -0.0454712 0)
(11.7432 0.120768 0)
(12.0148 0.0940698 0)
(12.0105 0.066732 0)
(11.8742 0.247134 0)
(12.2746 0.0831614 0)
(12.0078 0.23086 0)
(12.3146 0.190881 0)
(12.4319 0.085487 0)
(12.3492 0.173449 0)
(12.7612 -0.0415321 0)
(12.6835 -0.107545 0)
(12.8398 -0.149482 0)
(13.1017 -0.464569 0)
(13.0125 -0.497638 0)
(13.209 -0.689167 0)
(13.3157 -0.990241 0)
(13.1638 -0.993484 0)
(13.3737 -1.29451 0)
(13.2314 -1.453 0)
(13.0954 -1.44848 0)
(13.1814 -1.74848 0)
(12.8401 -1.70629 0)
(12.7322 -1.70462 0)
(12.5992 -1.86756 0)
(12.1761 -1.60513 0)
(12.1506 -1.59893 0)
(11.8829 -1.54255 0)
(11.6173 -1.17467 0)
(11.7471 -1.20975 0)
(11.4408 -0.911888 0)
(11.5455 -0.690886 0)
(11.6542 -0.626072 0)
(11.5525 -0.329102 0)
(11.8043 -0.280183 0)
(11.8621 -0.140879 0)
(12.0284 -0.0946736 0)
(12.2093 -0.0883862 0)
(12.4644 -0.139683 0)
(12.6698 -0.249919 0)
(12.8246 -0.335207 0)
(13.2008 -0.607122 0)
(13.3325 -0.7943 0)
(13.5218 -0.99992 0)
(13.738 -1.31576 0)
(13.9683 -1.63432 0)
(14.0559 -1.86375 0)
(14.1951 -2.1435 0)
(14.4016 -2.45829 0)
(14.4725 -2.65924 0)
(14.5432 -2.87522 0)
(14.7135 -3.04881 0)
(14.7585 -3.13021 0)
(14.8187 -3.21847 0)
(14.8874 -3.1962 0)
(14.8622 -3.11049 0)
(14.8904 -2.99952 0)
(14.7725 -2.79279 0)
(14.6279 -2.53688 0)
(14.3828 -2.23422 0)
(14.0201 -1.83031 0)
(13.5672 -1.49774 0)
(12.9785 -1.08781 0)
(12.3455 -0.63131 0)
(11.6739 -0.397649 0)
(10.9905 -0.0207396 0)
(10.314 0.308877 0)
(9.65508 0.271673 0)
(9.11617 0.470785 0)
(8.72949 0.778046 0)
(8.25477 0.533912 0)
(7.83503 0.42001 0)
(7.668 0.825346 0)
(7.54099 0.969504 0)
(7.30034 0.583509 0)
(7.01433 0.537124 0)
(6.81572 1.10816 0)
(6.73863 1.78898 0)
(6.65842 1.86676 0)
(6.45511 1.20916 0)
(5.9391 -0.208011 0)
(5.36086 -2.3682 0)
(4.48982 -5.17695 0)
(3.72984 -8.15908 0)
(2.97234 -10.4801 0)
(2.65441 -11.6206 0)
(2.85053 -11.5693 0)
(2.90839 -10.7629 0)
(3.02191 -9.82004 0)
(3.35235 -8.86669 0)
(3.73159 -7.25984 0)
(3.59882 -5.67163 0)
(4.21613 -3.82672 0)
(4.37047 -1.84485 0)
(4.60254 -0.36302 0)
(4.70475 1.08663 0)
(4.99846 2.32993 0)
(4.45684 3.44927 0)
(5.11806 4.88416 0)
(5.12493 5.61536 0)
(5.66062 6.77223 0)
(6.47703 7.24076 0)
(6.67758 8.01142 0)
(7.73399 8.74539 0)
(7.87237 8.77253 0)
(7.98653 9.26362 0)
(9.32977 9.76391 0)
(9.10421 9.20497 0)
(8.29102 8.43239 0)
(8.9489 8.10563 0)