/*--------------------------------*- C++ -*----------------------------------*\
| =========                 |                                                 |
| \\      /  F ield         | OpenFOAM: The Open Source CFD Toolbox           |
|  \\    /   O peration     | Version:  2.4.0                                 |
|   \\  /    A nd           | Web:      www.OpenFOAM.org                      |
|    \\/     M anipulation  |                                                 |
\*---------------------------------------------------------------------------*/
FoamFile
{
    version     2.0;
    format      ascii;
    class       volSymmTensorField;
    location    "0.75";
    object      UPrime2Mean;
}
// * * * * * * * * * * * * * * * * * * * * * * * * * * * * * * * * * * * * * //

dimensions      [0 2 -2 0 0 0 0];

internalField   nonuniform List<symmTensor> 
8800
(
(0.00223544 0.000136639 0 0.000254288 0 0)
(0.0427537 -0.00167418 0 9.29127e-05 0 0)
(0.0836256 -0.000145261 0 2.0773e-05 0 0)
(0.104867 0.000258113 0 7.38027e-06 0 0)
(0.119265 0.000205581 0 4.19682e-06 0 0)
(0.132412 0.000140096 0 4.62993e-06 0 0)
(0.138942 9.81238e-05 0 5.30107e-06 0 0)
(0.146707 1.61161e-05 0 6.46784e-06 0 0)
(0.149751 1.00775e-05 0 7.10059e-06 0 0)
(0.155346 -5.46772e-05 0 8.38746e-06 0 0)
(0.156825 -3.01108e-05 0 8.93078e-06 0 0)
(0.161994 -0.000112256 0 1.04112e-05 0 0)
(0.16268 -8.14444e-05 0 1.07158e-05 0 0)
(0.16934 -0.000183855 0 1.22928e-05 0 0)
(0.170533 -0.000239576 0 1.31107e-05 0 0)
(0.180524 -0.000190534 0 1.51893e-05 0 0)
(0.191232 -0.00133459 0 2.8754e-05 0 0)
(0.199165 0.0023549 0 0.000108454 0 0)
(0.310723 -0.0226208 0 0.00231068 0 0)
(0.331402 0.0372203 0 0.00728424 0 0)
(0.0121773 0.00378941 0 0.00152144 0 0)
(0.0016634 -0.00142926 0 0.00200732 0 0)
(0.0137634 -0.00268086 0 0.000818814 0 0)
(0.0265691 -0.00257228 0 0.000308048 0 0)
(0.0397244 -0.00225859 0 0.000167113 0 0)
(0.0620355 -0.00214246 0 0.000132085 0 0)
(0.0768363 -0.00190933 0 0.000115211 0 0)
(0.0992391 -0.00157452 0 9.00813e-05 0 0)
(0.111727 -0.00148721 0 8.30431e-05 0 0)
(0.129415 -0.00137566 0 7.54591e-05 0 0)
(0.139484 -0.00131845 0 7.71211e-05 0 0)
(0.155976 -0.00154961 0 8.15425e-05 0 0)
(0.162832 -0.00152328 0 9.41312e-05 0 0)
(0.183767 -0.00214913 0 0.000110342 0 0)
(0.188179 -0.00198141 0 0.000131986 0 0)
(0.217863 -0.00452067 0 0.000216622 0 0)
(0.231906 -0.00158729 0 0.000243121 0 0)
(0.273991 -0.0152547 0 0.0012213 0 0)
(0.359426 -0.00680209 0 0.000893362 0 0)
(0.466994 -0.0795957 0 0.0260762 0 0)
(0.0169157 0.00252597 0 0.000880899 0 0)
(0.00855637 0.000909486 0 0.00220912 0 0)
(0.0217061 0.000656438 0 0.00137013 0 0)
(0.0245525 -0.000333225 0 0.000735153 0 0)
(0.0331107 -0.00047579 0 0.000567156 0 0)
(0.0412973 -0.00160467 0 0.000548993 0 0)
(0.0519318 -0.00235967 0 0.000512764 0 0)
(0.065709 -0.00237194 0 0.000400933 0 0)
(0.0841406 -0.00330887 0 0.000358922 0 0)
(0.0955844 -0.00293788 0 0.000272285 0 0)
(0.120633 -0.00369344 0 0.000257801 0 0)
(0.128778 -0.00355209 0 0.000252048 0 0)
(0.158911 -0.00458362 0 0.000307564 0 0)
(0.163042 -0.00445622 0 0.00034978 0 0)
(0.205391 -0.0066092 0 0.000520147 0 0)
(0.195992 -0.00615592 0 0.000603699 0 0)
(0.27294 -0.0106803 0 0.00108428 0 0)
(0.239368 -0.0111384 0 0.00147264 0 0)
(0.386993 -0.0266807 0 0.00524437 0 0)
(0.352277 -0.0571572 0 0.028521 0 0)
(0.0483052 0.00134626 0 0.000522899 0 0)
(0.0487706 0.000266402 0 0.00158073 0 0)
(0.0778873 0.000611861 0 0.0012526 0 0)
(0.084862 -5.37701e-05 0 0.000742602 0 0)
(0.106393 0.000945816 0 0.000686735 0 0)
(0.111216 -0.000456491 0 0.000785596 0 0)
(0.132289 -0.000911091 0 0.000844877 0 0)
(0.132562 -0.000949053 0 0.000774472 0 0)
(0.163703 -0.00351729 0 0.000764845 0 0)
(0.153436 -0.00279196 0 0.000608519 0 0)
(0.200346 -0.00530085 0 0.000566298 0 0)
(0.176941 -0.00474119 0 0.000585745 0 0)
(0.241582 -0.00738433 0 0.000622845 0 0)
(0.202348 -0.00653124 0 0.000760896 0 0)
(0.290289 -0.0109728 0 0.000986284 0 0)
(0.224914 -0.00834751 0 0.00119907 0 0)
(0.351715 -0.0164873 0 0.00174064 0 0)
(0.243517 -0.0121602 0 0.00297401 0 0)
(0.440014 -0.0290419 0 0.00700072 0 0)
(0.270507 -0.0346283 0 0.0266515 0 0)
(0.185383 0.000820067 0 0.000409673 0 0)
(0.175932 -0.000612755 0 0.00120256 0 0)
(0.199773 -0.00168134 0 0.00115927 0 0)
(0.195892 -0.00230708 0 0.000774796 0 0)
(0.217563 -0.00138257 0 0.000708097 0 0)
(0.211228 -0.00308831 0 0.000834348 0 0)
(0.238899 -0.00313637 0 0.00100993 0 0)
(0.223855 -0.0024233 0 0.000956581 0 0)
(0.265194 -0.00628187 0 0.00111343 0 0)
(0.236193 -0.00416195 0 0.000935148 0 0)
(0.29273 -0.00875935 0 0.000963738 0 0)
(0.249215 -0.00645167 0 0.000964935 0 0)
(0.319482 -0.0118028 0 0.00109075 0 0)
(0.262646 -0.00827119 0 0.0012192 0 0)
(0.344904 -0.0166138 0 0.00165455 0 0)
(0.273172 -0.00987755 0 0.00184962 0 0)
(0.370513 -0.0225407 0 0.00287011 0 0)
(0.277236 -0.0115838 0 0.00477802 0 0)
(0.400307 -0.0289587 0 0.00940032 0 0)
(0.270934 -0.0142463 0 0.0363682 0 0)
(0.243371 -0.00354048 0 0.000867559 0 0)
(0.196647 -0.00339906 0 0.00160657 0 0)
(0.190424 -0.0062201 0 0.00177951 0 0)
(0.167363 -0.00520563 0 0.00126163 0 0)
(0.176712 -0.00637901 0 0.00140194 0 0)
(0.160867 -0.00599061 0 0.00141707 0 0)
(0.173127 -0.00703119 0 0.00171174 0 0)
(0.157686 -0.00541804 0 0.00149956 0 0)
(0.1745 -0.00902606 0 0.00198752 0 0)
(0.160596 -0.00678231 0 0.00155922 0 0)
(0.178116 -0.010897 0 0.00202297 0 0)
(0.168467 -0.00855361 0 0.00169654 0 0)
(0.182487 -0.0127866 0 0.00231178 0 0)
(0.179735 -0.00999916 0 0.00202529 0 0)
(0.185598 -0.0149966 0 0.00320215 0 0)
(0.192944 -0.0111938 0 0.00271112 0 0)
(0.185603 -0.0161729 0 0.00515742 0 0)
(0.206648 -0.0108866 0 0.00583551 0 0)
(0.18275 -0.0117018 0 0.0145249 0 0)
(0.221255 -0.00262738 0 0.0315616 0 0)
(0.11549 -0.00640068 0 0.00193225 0 0)
(0.106441 -0.00770803 0 0.00303747 0 0)
(0.0933696 -0.00620655 0 0.00279346 0 0)
(0.0982931 -0.00838421 0 0.00268686 0 0)
(0.103756 -0.00712367 0 0.00282966 0 0)
(0.102743 -0.00701463 0 0.0028673 0 0)
(0.112154 -0.0067802 0 0.00290202 0 0)
(0.108249 -0.00689207 0 0.00296946 0 0)
(0.117768 -0.00655714 0 0.00320174 0 0)
(0.119782 -0.00732212 0 0.00314969 0 0)
(0.122027 -0.00668934 0 0.00338985 0 0)
(0.133177 -0.00759674 0 0.00342432 0 0)
(0.130447 -0.00631069 0 0.00382404 0 0)
(0.146304 -0.00746183 0 0.00396048 0 0)
(0.140889 -0.00452773 0 0.004854 0 0)
(0.15979 -0.00669449 0 0.00491182 0 0)
(0.151561 -3.6347e-05 0 0.00695941 0 0)
(0.176839 -0.00279258 0 0.00895448 0 0)
(0.162736 0.0125765 0 0.0160069 0 0)
(0.203018 0.0116806 0 0.0330665 0 0)
(0.182392 -0.00638204 0 0.00284505 0 0)
(0.209574 -0.0134093 0 0.00638751 0 0)
(0.173452 -0.00447222 0 0.00442422 0 0)
(0.207117 -0.0103785 0 0.00419738 0 0)
(0.20994 -0.00672243 0 0.00442305 0 0)
(0.206167 -0.007061 0 0.00470556 0 0)
(0.232767 -0.0051613 0 0.00414508 0 0)
(0.21453 -0.00717593 0 0.00491918 0 0)
(0.243786 -0.00311259 0 0.00451242 0 0)
(0.226937 -0.00659432 0 0.0051576 0 0)
(0.2578 -0.0014316 0 0.00466219 0 0)
(0.237316 -0.00502093 0 0.00542443 0 0)
(0.280116 0.00113448 0 0.00509885 0 0)
(0.246326 -0.00296376 0 0.00604587 0 0)
(0.300922 0.00586064 0 0.00581933 0 0)
(0.258069 0.000366571 0 0.00685084 0 0)
(0.323729 0.0134914 0 0.00741442 0 0)
(0.273474 0.00815861 0 0.0109427 0 0)
(0.348444 0.0298644 0 0.0151396 0 0)
(0.299679 0.0275888 0 0.0325078 0 0)
(0.294096 -0.00255177 0 0.00316846 0 0)
(0.30101 -0.00649978 0 0.0090842 0 0)
(0.276279 0.00149416 0 0.00483033 0 0)
(0.269915 -0.00241913 0 0.0050218 0 0)
(0.30724 -0.000155863 0 0.00488316 0 0)
(0.2578 -2.64372e-05 0 0.00557269 0 0)
(0.339588 0.0016449 0 0.00434996 0 0)
(0.254683 0.000552584 0 0.00586839 0 0)
(0.358191 0.00466868 0 0.00462355 0 0)
(0.258515 0.00168697 0 0.00605947 0 0)
(0.375266 0.00723944 0 0.00478839 0 0)
(0.266526 0.00430711 0 0.00626004 0 0)
(0.393995 0.0104401 0 0.00530815 0 0)
(0.277981 0.00713866 0 0.00677756 0 0)
(0.411065 0.0155375 0 0.0055876 0 0)
(0.2927 0.0124181 0 0.00723815 0 0)
(0.425458 0.0230719 0 0.00660238 0 0)
(0.312438 0.0229505 0 0.0105161 0 0)
(0.439572 0.0387776 0 0.0127335 0 0)
(0.350989 0.0457252 0 0.0272782 0 0)
(0.268209 0.00310154 0 0.0026336 0 0)
(0.264894 0.00661915 0 0.00735878 0 0)
(0.259491 0.00590424 0 0.00386156 0 0)
(0.227824 0.00739455 0 0.004082 0 0)
(0.260964 0.00675852 0 0.00397386 0 0)
(0.224799 0.00752262 0 0.00464984 0 0)
(0.268587 0.00742641 0 0.00362709 0 0)
(0.220637 0.00978703 0 0.00475124 0 0)
(0.271362 0.00944769 0 0.00387233 0 0)
(0.22601 0.0106097 0 0.00498252 0 0)
(0.275539 0.0111758 0 0.00399157 0 0)
(0.236952 0.0131952 0 0.00496629 0 0)
(0.281438 0.0130936 0 0.00429575 0 0)
(0.251525 0.0156467 0 0.00531705 0 0)
(0.284878 0.0162186 0 0.00442091 0 0)
(0.27085 0.0206093 0 0.00552337 0 0)
(0.284807 0.0211771 0 0.00521593 0 0)
(0.298601 0.0304048 0 0.00773133 0 0)
(0.283448 0.0318595 0 0.0099813 0 0)
(0.352078 0.0498685 0 0.0201902 0 0)
(0.128681 0.00308587 0 0.00235171 0 0)
(0.126721 0.00687659 0 0.00565378 0 0)
(0.109043 0.00415943 0 0.00348987 0 0)
(0.120905 0.00772878 0 0.00313151 0 0)
(0.105487 0.00581057 0 0.00352754 0 0)
(0.125512 0.00731303 0 0.00404909 0 0)
(0.1066 0.00524663 0 0.00330488 0 0)
(0.131375 0.0096604 0 0.00380507 0 0)
(0.10256 0.00608955 0 0.00330484 0 0)
(0.141353 0.00990019 0 0.00394223 0 0)
(0.103175 0.00654275 0 0.00338078 0 0)
(0.152869 0.0110346 0 0.00374417 0 0)
(0.106107 0.00737012 0 0.00336833 0 0)
(0.165497 0.0121523 0 0.00375842 0 0)
(0.107899 0.00877095 0 0.00335673 0 0)
(0.181417 0.0144905 0 0.00383189 0 0)
(0.110617 0.0116403 0 0.00375484 0 0)
(0.204058 0.0202007 0 0.00528236 0 0)
(0.117938 0.0198202 0 0.00716846 0 0)
(0.245628 0.0337991 0 0.0146209 0 0)
(0.0324235 0.000938857 0 0.00218406 0 0)
(0.0281918 0.00197043 0 0.00449795 0 0)
(0.0207895 0.000830935 0 0.00311805 0 0)
(0.0342654 0.00329326 0 0.0026359 0 0)
(0.0224288 0.00165966 0 0.00316901 0 0)
(0.0410237 0.00286941 0 0.00325429 0 0)
(0.0266707 0.00104218 0 0.00289024 0 0)
(0.0463385 0.00363486 0 0.0030872 0 0)
(0.0282792 0.00138269 0 0.002759 0 0)
(0.0529819 0.0037421 0 0.00298095 0 0)
(0.0319298 0.00136542 0 0.00271931 0 0)
(0.0603433 0.00391487 0 0.00268007 0 0)
(0.037569 0.00180661 0 0.00255991 0 0)
(0.0677005 0.00414992 0 0.00254152 0 0)
(0.0438096 0.00238028 0 0.00238471 0 0)
(0.0766549 0.0051765 0 0.00244109 0 0)
(0.05255 0.00459009 0 0.0025623 0 0)
(0.0906617 0.00922714 0 0.00334473 0 0)
(0.0688508 0.0122928 0 0.00510732 0 0)
(0.117817 0.0214969 0 0.0102735 0 0)
(0.0125791 -0.00119943 0 0.00175034 0 0)
(0.00429825 -0.00177587 0 0.00334155 0 0)
(0.00444679 -0.00154109 0 0.00247055 0 0)
(0.00589123 -0.000347372 0 0.00187999 0 0)
(0.00870668 -0.00111362 0 0.00236124 0 0)
(0.0117479 -0.000807321 0 0.00223538 0 0)
(0.0132385 -0.00131051 0 0.00214682 0 0)
(0.016042 -0.000721147 0 0.00211015 0 0)
(0.0164215 -0.000968943 0 0.00192309 0 0)
(0.0201265 -0.000483209 0 0.0019377 0 0)
(0.0213215 -0.000949381 0 0.001829 0 0)
(0.0253025 -0.000243433 0 0.00167977 0 0)
(0.0272422 -0.000593249 0 0.00162465 0 0)
(0.0315764 -5.70471e-06 0 0.00147668 0 0)
(0.0340365 -8.73415e-05 0 0.00142249 0 0)
(0.0394092 0.000953153 0 0.0013748 0 0)
(0.043468 0.00199615 0 0.0015398 0 0)
(0.051958 0.00488422 0 0.0020467 0 0)
(0.0615903 0.00914514 0 0.00355986 0 0)
(0.0785488 0.0171735 0 0.00739371 0 0)
(0.0120072 -0.00139183 0 0.00142076 0 0)
(0.00305381 -0.00226479 0 0.00295794 0 0)
(0.00392795 -0.00225558 0 0.00237485 0 0)
(0.00497374 -0.00119952 0 0.00152242 0 0)
(0.00774465 -0.00130893 0 0.00179951 0 0)
(0.0107862 -0.00191471 0 0.00179664 0 0)
(0.0134191 -0.00187654 0 0.00183461 0 0)
(0.0148446 -0.00199992 0 0.00174145 0 0)
(0.0170106 -0.00172127 0 0.00154097 0 0)
(0.0190136 -0.001657 0 0.0015173 0 0)
(0.0220046 -0.00168451 0 0.00146585 0 0)
(0.0244625 -0.00153364 0 0.00131194 0 0)
(0.0278974 -0.00140077 0 0.0012242 0 0)
(0.0309723 -0.00140504 0 0.00108629 0 0)
(0.0349823 -0.000927354 0 0.00097853 0 0)
(0.0393715 -0.000516111 0 0.000919429 0 0)
(0.0451656 0.000893182 0 0.000998732 0 0)
(0.0532099 0.00282712 0 0.00135156 0 0)
(0.065127 0.00705883 0 0.0023959 0 0)
(0.0819583 0.0138164 0 0.0052644 0 0)
(0.0125875 -0.0013255 0 0.00106303 0 0)
(0.00281784 -0.00169932 0 0.00251701 0 0)
(0.00396877 -0.00225239 0 0.00220809 0 0)
(0.00539122 -0.00144884 0 0.00135196 0 0)
(0.00935019 -0.00130019 0 0.0014694 0 0)
(0.0108193 -0.00174019 0 0.00150491 0 0)
(0.0149449 -0.00209209 0 0.00163731 0 0)
(0.0155252 -0.00228675 0 0.00161632 0 0)
(0.0196022 -0.00206724 0 0.00141966 0 0)
(0.0198885 -0.00175449 0 0.00131285 0 0)
(0.0245871 -0.00178173 0 0.00120028 0 0)
(0.0249438 -0.00171957 0 0.0011072 0 0)
(0.0301622 -0.00154316 0 0.00096779 0 0)
(0.0307435 -0.00174369 0 0.000890614 0 0)
(0.0361972 -0.00108209 0 0.00073121 0 0)
(0.0375942 -0.00106234 0 0.000689092 0 0)
(0.0444498 0.000483004 0 0.000661622 0 0)
(0.049221 0.001465 0 0.000858931 0 0)
(0.0613086 0.00531803 0 0.00153615 0 0)
(0.0749054 0.00982766 0 0.00322643 0 0)
(0.0133839 -0.00133941 0 0.000716391 0 0)
(0.00365916 -0.0007275 0 0.00193815 0 0)
(0.00393647 -0.0015986 0 0.0018163 0 0)
(0.00602598 -0.00123359 0 0.00112864 0 0)
(0.011609 -0.00133499 0 0.00120092 0 0)
(0.0117948 -0.00146012 0 0.00121038 0 0)
(0.0166628 -0.00192274 0 0.00131295 0 0)
(0.0150176 -0.00181238 0 0.00131827 0 0)
(0.0192912 -0.00189081 0 0.00119161 0 0)
(0.0166073 -0.00126768 0 0.00103413 0 0)
(0.0208941 -0.00141559 0 0.000900082 0 0)
(0.017278 -0.00105649 0 0.000821546 0 0)
(0.0214536 -0.00108425 0 0.000671453 0 0)
(0.0174443 -0.000953411 0 0.000654509 0 0)
(0.0212937 -0.000658515 0 0.000490302 0 0)
(0.0179054 -0.000499471 0 0.000508339 0 0)
(0.0222562 0.000448127 0 0.000412438 0 0)
(0.0214798 0.000982139 0 0.00056415 0 0)
(0.0292891 0.00340564 0 0.000937152 0 0)
(0.0362099 0.00561393 0 0.00184333 0 0)
(0.012576 -0.00172094 0 0.000590045 0 0)
(0.00334118 -0.000637868 0 0.00179886 0 0)
(0.00378695 -0.00120939 0 0.0015241 0 0)
(0.00662584 -0.00111839 0 0.000908667 0 0)
(0.0104238 -0.00127988 0 0.000899866 0 0)
(0.00881423 -0.00107032 0 0.000943278 0 0)
(0.00986065 -0.00104583 0 0.000984594 0 0)
(0.00684913 -0.000395173 0 0.00091414 0 0)
(0.00680345 -0.000319093 0 0.000778032 0 0)
(0.00498613 0.000374866 0 0.000617447 0 0)
(0.00476896 0.000230816 0 0.000502488 0 0)
(0.00475468 0.000729924 0 0.000453249 0 0)
(0.00409572 0.00047509 0 0.000352422 0 0)
(0.00625287 0.000921836 0 0.000351958 0 0)
(0.00518227 0.000512371 0 0.000249751 0 0)
(0.00905099 0.00103688 0 0.000280383 0 0)
(0.00821596 0.000514152 0 0.000234615 0 0)
(0.013016 0.0013137 0 0.000313251 0 0)
(0.0144511 0.00124457 0 0.000632352 0 0)
(0.0209429 0.00288706 0 0.000885773 0 0)
(0.0122014 -0.00274258 0 0.0008867 0 0)
(0.0021543 -0.00112065 0 0.00223123 0 0)
(0.00181085 -0.000492859 0 0.00143261 0 0)
(0.0025526 -4.11893e-05 0 0.000781716 0 0)
(0.00243872 0.000430413 0 0.000625854 0 0)
(0.00328989 0.00114895 0 0.000574222 0 0)
(0.00588598 0.00150611 0 0.000524211 0 0)
(0.012646 0.00187994 0 0.000427495 0 0)
(0.0168566 0.00169457 0 0.000326302 0 0)
(0.0274247 0.00179488 0 0.000237267 0 0)
(0.0298621 0.00146583 0 0.000180692 0 0)
(0.0428746 0.00159969 0 0.00016275 0 0)
(0.0420992 0.00120879 0 0.00013211 0 0)
(0.0572515 0.00145411 0 0.000129701 0 0)
(0.053534 0.00076815 0 9.75679e-05 0 0)
(0.0688383 0.00120842 0 0.000110326 0 0)
(0.063326 -0.000120734 0 0.000105335 0 0)
(0.0745277 0.000939945 0 0.000151761 0 0)
(0.070139 -0.00100877 0 0.000296489 0 0)
(0.0727778 0.00188944 0 0.000586753 0 0)
(0.0117993 -0.00383235 0 0.00151991 0 0)
(0.00147846 0.00137935 0 0.00200025 0 0)
(0.0105518 0.00278334 0 0.000828819 0 0)
(0.0212736 0.0024564 0 0.000319735 0 0)
(0.0335771 0.00221885 0 0.000180518 0 0)
(0.0505271 0.00201795 0 0.000135255 0 0)
(0.0651818 0.00165139 0 0.000112652 0 0)
(0.082466 0.00137132 0 8.7833e-05 0 0)
(0.0924168 0.00103542 0 6.95137e-05 0 0)
(0.10742 0.000921753 0 5.562e-05 0 0)
(0.112076 0.000713575 0 4.80641e-05 0 0)
(0.126256 0.00075155 0 4.60868e-05 0 0)
(0.126599 0.000539912 0 4.21755e-05 0 0)
(0.141101 0.000647206 0 3.84996e-05 0 0)
(0.137782 0.000252586 0 3.28417e-05 0 0)
(0.151202 0.00039142 0 3.19775e-05 0 0)
(0.144491 -0.000450169 0 3.62312e-05 0 0)
(0.151402 0.000111615 0 4.63425e-05 0 0)
(0.145652 -0.00158443 0 0.000101855 0 0)
(0.135362 0.00077999 0 0.000350124 0 0)
(0.00222604 -0.00013758 0 0.000254278 0 0)
(0.0428117 0.00167287 0 9.20154e-05 0 0)
(0.0836443 0.000148922 0 2.07205e-05 0 0)
(0.104164 -0.000261746 0 7.77051e-06 0 0)
(0.119207 -0.000208632 0 4.70624e-06 0 0)
(0.131052 -0.000159089 0 4.42197e-06 0 0)
(0.138325 -0.000114691 0 4.9662e-06 0 0)
(0.144868 -6.05947e-05 0 4.99358e-06 0 0)
(0.148304 -4.73477e-05 0 5.20709e-06 0 0)
(0.152938 -1.5283e-05 0 4.90684e-06 0 0)
(0.154377 -2.71535e-05 0 5.04977e-06 0 0)
(0.158253 8.8025e-07 0 4.61325e-06 0 0)
(0.158433 -3.07464e-05 0 4.29638e-06 0 0)
(0.162041 -3.72128e-06 0 3.48384e-06 0 0)
(0.160854 -7.49193e-05 0 3.13577e-06 0 0)
(0.163407 -6.25304e-05 0 2.52888e-06 0 0)
(0.159784 -0.000198765 0 2.66173e-06 0 0)
(0.158787 -0.000163908 0 3.00908e-06 0 0)
(0.154093 -0.000570633 0 6.79654e-06 0 0)
(0.139477 0.000759092 0 5.18019e-05 0 0)
(0.628735 -0.317831 0 0.196354 0 0)
(0.713015 -0.377846 0 0.27678 0 0)
(0.712665 -0.363779 0 0.331007 0 0)
(0.740552 -0.316666 0 0.368857 0 0)
(0.744757 -0.266521 0 0.391072 0 0)
(0.85236 -0.230316 0 0.40665 0 0)
(0.920838 -0.221564 0 0.421832 0 0)
(1.11907 -0.243678 0 0.443655 0 0)
(1.2228 -0.276049 0 0.469392 0 0)
(1.4331 -0.320258 0 0.495593 0 0)
(1.49593 -0.348485 0 0.523666 0 0)
(1.683 -0.388385 0 0.558964 0 0)
(1.71645 -0.40201 0 0.595546 0 0)
(1.89932 -0.438201 0 0.628687 0 0)
(1.93857 -0.455986 0 0.649779 0 0)
(2.13295 -0.505868 0 0.666295 0 0)
(2.16304 -0.546461 0 0.687812 0 0)
(2.37205 -0.620132 0 0.72151 0 0)
(2.37831 -0.667153 0 0.76967 0 0)
(2.63264 -0.744106 0 0.830946 0 0)
(2.67557 -0.780967 0 0.881125 0 0)
(2.99334 -0.865576 0 0.934084 0 0)
(3.0504 -0.917785 0 0.984596 0 0)
(3.39539 -1.01526 0 1.04001 0 0)
(3.45113 -1.0714 0 1.0928 0 0)
(3.81746 -1.17354 0 1.15441 0 0)
(3.87525 -1.22872 0 1.21272 0 0)
(4.26667 -1.35051 0 1.27708 0 0)
(4.32852 -1.41905 0 1.33951 0 0)
(4.7397 -1.56227 0 1.41507 0 0)
(4.79355 -1.63689 0 1.49075 0 0)
(5.23959 -1.79064 0 1.57335 0 0)
(5.28386 -1.86503 0 1.65231 0 0)
(5.79749 -2.03939 0 1.73516 0 0)
(5.82523 -2.12133 0 1.8148 0 0)
(6.39531 -2.32058 0 1.89639 0 0)
(6.36267 -2.39758 0 1.96805 0 0)
(6.94831 -2.60193 0 2.04171 0 0)
(6.82627 -2.66146 0 2.10157 0 0)
(7.4046 -2.85623 0 2.1719 0 0)
(7.18219 -2.88081 0 2.22448 0 0)
(7.72735 -3.05475 0 2.29422 0 0)
(7.41136 -3.04052 0 2.33964 0 0)
(7.93908 -3.20453 0 2.40894 0 0)
(7.56697 -3.16268 0 2.45516 0 0)
(8.10472 -3.33423 0 2.52893 0 0)
(7.71677 -3.27214 0 2.58205 0 0)
(8.28235 -3.45632 0 2.67036 0 0)
(7.91331 -3.38929 0 2.7386 0 0)
(8.50224 -3.5804 0 2.85033 0 0)
(8.15118 -3.52229 0 2.93679 0 0)
(8.74081 -3.70328 0 3.07016 0 0)
(8.35891 -3.63653 0 3.16615 0 0)
(8.92084 -3.78047 0 3.29771 0 0)
(8.44382 -3.6634 0 3.37274 0 0)
(8.96649 -3.75962 0 3.48042 0 0)
(8.38132 -3.56886 0 3.50581 0 0)
(8.88922 -3.63846 0 3.58016 0 0)
(8.24948 -3.40522 0 3.57131 0 0)
(8.79936 -3.50013 0 3.63289 0 0)
(8.15534 -3.27069 0 3.62937 0 0)
(8.76997 -3.42948 0 3.7094 0 0)
(8.10146 -3.21294 0 3.74031 0 0)
(8.72925 -3.42247 0 3.85874 0 0)
(7.95991 -3.1649 0 3.90087 0 0)
(8.52973 -3.34359 0 4.0124 0 0)
(7.72263 -3.01732 0 3.98817 0 0)
(8.26098 -3.08273 0 4.00837 0 0)
(7.48673 -2.77271 0 3.95305 0 0)
(8.0963 -2.80916 0 3.99694 0 0)
(7.37191 -2.56148 0 4.01628 0 0)
(8.06691 -2.58546 0 4.06584 0 0)
(7.38572 -2.35029 0 4.07829 0 0)
(8.17975 -2.41022 0 4.12573 0 0)
(7.518 -2.2019 0 4.18672 0 0)
(8.38034 -2.30287 0 4.29929 0 0)
(7.75956 -2.11272 0 4.42357 0 0)
(8.64525 -2.25281 0 4.60713 0 0)
(7.9914 -2.06129 0 4.77133 0 0)
(8.88937 -2.20705 0 4.99877 0 0)
(8.06085 -1.98327 0 5.14709 0 0)
(9.05871 -2.15514 0 5.33348 0 0)
(8.02455 -1.89528 0 5.42615 0 0)
(9.17444 -2.14002 0 5.56449 0 0)
(8.01025 -1.82464 0 5.59847 0 0)
(9.09157 -2.11138 0 5.73182 0 0)
(8.09676 -1.768 0 5.764 0 0)
(8.91085 -2.02404 0 5.96709 0 0)
(8.21766 -1.72411 0 6.05611 0 0)
(8.87246 -1.90047 0 6.29712 0 0)
(8.35905 -1.69158 0 6.40641 0 0)
(9.00739 -1.86201 0 6.60354 0 0)
(8.61517 -1.72188 0 6.71739 0 0)
(9.32215 -1.8803 0 6.90231 0 0)
(8.92452 -1.76892 0 7.02986 0 0)
(9.60642 -1.89852 0 7.23107 0 0)
(9.18679 -1.8043 0 7.39571 0 0)
(9.82718 -1.86701 0 7.63989 0 0)
(9.33276 -1.78254 0 7.84763 0 0)
(9.79423 -1.76262 0 8.13687 0 0)
(9.19359 -1.66142 0 8.40513 0 0)
(9.55904 -1.65385 0 8.73545 0 0)
(8.79398 -1.54073 0 9.08066 0 0)
(9.22631 -1.6134 0 9.49249 0 0)
(8.30084 -1.47561 0 9.6943 0 0)
(8.90595 -1.64308 0 10.0382 0 0)
(7.85932 -1.35125 0 10.1042 0 0)
(8.70568 -1.59693 0 10.3003 0 0)
(7.57985 -1.1887 0 10.2842 0 0)
(8.55334 -1.56149 0 10.5249 0 0)
(7.4321 -1.13392 0 10.4331 0 0)
(8.3286 -1.50587 0 10.5865 0 0)
(7.41344 -1.0856 0 10.4064 0 0)
(8.12719 -1.39485 0 10.5473 0 0)
(7.43462 -0.987503 0 10.4332 0 0)
(7.86842 -1.24613 0 10.6377 0 0)
(7.37344 -0.902863 0 10.6692 0 0)
(7.60006 -1.09455 0 10.926 0 0)
(7.38381 -0.799429 0 11.0114 0 0)
(7.57047 -0.912657 0 11.2359 0 0)
(7.58393 -0.691237 0 11.3682 0 0)
(7.65562 -0.751474 0 11.5614 0 0)
(7.71381 -0.536305 0 11.7155 0 0)
(7.66083 -0.621855 0 11.8716 0 0)
(7.71584 -0.435271 0 11.9972 0 0)
(7.64181 -0.569986 0 12.1379 0 0)
(7.57583 -0.355098 0 12.2598 0 0)
(7.60887 -0.539203 0 12.388 0 0)
(7.52256 -0.304813 0 12.4096 0 0)
(7.60068 -0.556427 0 12.3856 0 0)
(7.65653 -0.375687 0 12.392 0 0)
(7.70739 -0.613623 0 12.3284 0 0)
(7.93129 -0.488962 0 12.337 0 0)
(7.8339 -0.633175 0 12.3253 0 0)
(8.11567 -0.572331 0 12.3738 0 0)
(7.8988 -0.600083 0 12.4261 0 0)
(8.22913 -0.528046 0 12.5345 0 0)
(7.92284 -0.460235 0 12.7232 0 0)
(8.21235 -0.389351 0 12.8985 0 0)
(7.89051 -0.245843 0 13.0975 0 0)
(8.07325 -0.243122 0 13.324 0 0)
(7.69282 -0.0265743 0 13.4129 0 0)
(7.93422 -0.0726985 0 13.5968 0 0)
(7.46534 0.172524 0 13.7107 0 0)
(7.65937 0.132341 0 14.0422 0 0)
(7.18167 0.334193 0 14.0844 0 0)
(7.41755 0.327905 0 14.2103 0 0)
(6.97889 0.461885 0 14.194 0 0)
(7.2018 0.491389 0 14.2818 0 0)
(6.75938 0.533891 0 14.2069 0 0)
(6.98621 0.645032 0 14.2708 0 0)
(6.53402 0.556842 0 14.0705 0 0)
(6.75223 0.785229 0 14.0941 0 0)
(6.37256 0.66404 0 13.9164 0 0)
(6.54797 0.886269 0 13.9174 0 0)
(6.25355 0.73926 0 13.7073 0 0)
(6.39742 0.976709 0 13.7531 0 0)
(6.20345 0.855983 0 13.5765 0 0)
(6.27918 1.0039 0 13.609 0 0)
(6.07522 0.87679 0 13.5136 0 0)
(6.02532 0.980993 0 13.6859 0 0)
(5.88976 0.767845 0 13.6815 0 0)
(5.76292 0.871019 0 13.7593 0 0)
(5.72008 0.624858 0 13.8103 0 0)
(5.60917 0.739527 0 13.7358 0 0)
(5.60162 0.406565 0 13.7905 0 0)
(5.49303 0.566772 0 13.8182 0 0)
(5.48103 0.0909029 0 13.6846 0 0)
(5.34749 0.282455 0 13.586 0 0)
(5.37012 -0.144485 0 13.4307 0 0)
(5.15242 -0.0855081 0 13.217 0 0)
(5.2472 -0.468431 0 12.939 0 0)
(4.98441 -0.413803 0 12.4857 0 0)
(5.13357 -0.830007 0 12.1699 0 0)
(4.97258 -0.635836 0 11.6807 0 0)
(5.0646 -1.03954 0 11.4633 0 0)
(5.02868 -0.784008 0 11.0229 0 0)
(5.02389 -1.23793 0 10.6794 0 0)
(5.02497 -0.90972 0 10.4359 0 0)
(5.05053 -1.23986 0 9.99999 0 0)
(5.07474 -1.00392 0 9.89748 0 0)
(4.9922 -1.17928 0 9.19474 0 0)
(4.95073 -1.16136 0 9.23569 0 0)
(4.88725 -1.06732 0 8.29782 0 0)
(4.83154 -1.28484 0 8.63761 0 0)
(4.73106 -0.777488 0 7.50686 0 0)
(4.67913 -1.30959 0 8.30933 0 0)
(4.52034 -0.465582 0 6.95249 0 0)
(4.36561 -1.24944 0 8.26367 0 0)
(4.25567 -0.044482 0 6.77591 0 0)
(3.93587 -1.06383 0 8.62012 0 0)
(3.89896 0.465255 0 6.96055 0 0)
(3.48721 -0.769391 0 9.43757 0 0)
(3.32713 1.0308 0 7.62534 0 0)
(3.07814 -0.282264 0 10.9795 0 0)
(2.86547 2.02086 0 9.39479 0 0)
(2.69737 0.240423 0 13.4768 0 0)
(2.50015 3.47074 0 12.7198 0 0)
(2.77978 2.54548 0 19.4228 0 0)
(0.854836 0.868455 0 21.9766 0 0)
(0.540575 -0.26262 0 0.222718 0 0)
(0.533306 -0.278867 0 0.28994 0 0)
(0.522276 -0.256949 0 0.30639 0 0)
(0.499305 -0.228394 0 0.313658 0 0)
(0.503941 -0.203222 0 0.312658 0 0)
(0.521838 -0.19614 0 0.310815 0 0)
(0.562182 -0.208413 0 0.317991 0 0)
(0.6257 -0.238838 0 0.336069 0 0)
(0.683584 -0.264151 0 0.357101 0 0)
(0.755275 -0.29886 0 0.378661 0 0)
(0.793787 -0.31546 0 0.401626 0 0)
(0.859867 -0.35026 0 0.431109 0 0)
(0.889591 -0.361777 0 0.460757 0 0)
(0.974423 -0.398852 0 0.491138 0 0)
(1.01674 -0.412642 0 0.516877 0 0)
(1.143 -0.46344 0 0.5443 0 0)
(1.20427 -0.495278 0 0.574163 0 0)
(1.37813 -0.574056 0 0.612378 0 0)
(1.44163 -0.617064 0 0.652545 0 0)
(1.64015 -0.705762 0 0.701715 0 0)
(1.68855 -0.741625 0 0.747741 0 0)
(1.91188 -0.83054 0 0.799662 0 0)
(1.95443 -0.863104 0 0.8481 0 0)
(2.21169 -0.960679 0 0.904519 0 0)
(2.24795 -0.991602 0 0.957711 0 0)
(2.5463 -1.09977 0 1.02369 0 0)
(2.58795 -1.13191 0 1.08688 0 0)
(2.93839 -1.25721 0 1.16139 0 0)
(2.99568 -1.30284 0 1.23062 0 0)
(3.39075 -1.45216 0 1.31213 0 0)
(3.44755 -1.5115 0 1.38651 0 0)
(3.86752 -1.67771 0 1.47112 0 0)
(3.89465 -1.73767 0 1.54523 0 0)
(4.32705 -1.9117 0 1.62951 0 0)
(4.29943 -1.96243 0 1.70004 0 0)
(4.73804 -2.13907 0 1.78215 0 0)
(4.62419 -2.16565 0 1.8465 0 0)
(5.06382 -2.33608 0 1.92141 0 0)
(4.84692 -2.32822 0 1.97633 0 0)
(5.30254 -2.49722 0 2.04458 0 0)
(4.99785 -2.45079 0 2.09039 0 0)
(5.48417 -2.62432 0 2.15519 0 0)
(5.12927 -2.54721 0 2.19727 0 0)
(5.65667 -2.73737 0 2.26807 0 0)
(5.29698 -2.64815 0 2.31296 0 0)
(5.85118 -2.8585 0 2.40249 0 0)
(5.51889 -2.77486 0 2.45758 0 0)
(6.07122 -2.99051 0 2.56777 0 0)
(5.76564 -2.91428 0 2.63481 0 0)
(6.28828 -3.11195 0 2.75976 0 0)
(5.97062 -3.02701 0 2.83392 0 0)
(6.45726 -3.19181 0 2.95993 0 0)
(6.07115 -3.06544 0 3.02884 0 0)
(6.53759 -3.1971 0 3.13951 0 0)
(6.04823 -2.99804 0 3.18672 0 0)
(6.53072 -3.11948 0 3.27408 0 0)
(5.96412 -2.84407 0 3.29311 0 0)
(6.49712 -2.99688 0 3.37134 0 0)
(5.92591 -2.68348 0 3.37913 0 0)
(6.50179 -2.8979 0 3.48329 0 0)
(5.98851 -2.60299 0 3.50196 0 0)
(6.56398 -2.85046 0 3.62595 0 0)
(6.09721 -2.58811 0 3.64916 0 0)
(6.62978 -2.79731 0 3.76069 0 0)
(6.13975 -2.53181 0 3.76726 0 0)
(6.59567 -2.64884 0 3.82105 0 0)
(6.06564 -2.35475 0 3.78382 0 0)
(6.51254 -2.41963 0 3.80967 0 0)
(6.00583 -2.15603 0 3.79592 0 0)
(6.50909 -2.23261 0 3.87056 0 0)
(6.05382 -2.0092 0 3.88656 0 0)
(6.65669 -2.08726 0 3.98403 0 0)
(6.22953 -1.88459 0 4.00191 0 0)
(6.93029 -1.99601 0 4.10294 0 0)
(6.52042 -1.80816 0 4.16462 0 0)
(7.28399 -1.97598 0 4.31646 0 0)
(6.86459 -1.7715 0 4.44597 0 0)
(7.61934 -1.9582 0 4.65152 0 0)
(7.12226 -1.69153 0 4.79509 0 0)
(7.8389 -1.88231 0 5.02254 0 0)
(7.20144 -1.57665 0 5.14207 0 0)
(7.98082 -1.82694 0 5.33746 0 0)
(7.28098 -1.51159 0 5.41795 0 0)
(8.05074 -1.81594 0 5.56066 0 0)
(7.45169 -1.52466 0 5.56934 0 0)
(8.08109 -1.79142 0 5.72953 0 0)
(7.67573 -1.57615 0 5.76942 0 0)
(8.14408 -1.75557 0 5.97437 0 0)
(7.94962 -1.60212 0 6.07235 0 0)
(8.32419 -1.71334 0 6.30105 0 0)
(8.21947 -1.63695 0 6.41224 0 0)
(8.58987 -1.75514 0 6.59473 0 0)
(8.49235 -1.68203 0 6.73026 0 0)
(8.90125 -1.78642 0 6.92158 0 0)
(8.74147 -1.71469 0 7.06273 0 0)
(9.16858 -1.81478 0 7.25881 0 0)
(8.94508 -1.72661 0 7.44411 0 0)
(9.37433 -1.78447 0 7.68986 0 0)
(9.01769 -1.6838 0 7.91924 0 0)
(9.3977 -1.68796 0 8.22054 0 0)
(8.92853 -1.55352 0 8.4979 0 0)
(9.24325 -1.60079 0 8.86923 0 0)
(8.60772 -1.40308 0 9.19187 0 0)
(9.00241 -1.53079 0 9.55937 0 0)
(8.10845 -1.28484 0 9.69792 0 0)
(8.72913 -1.50446 0 10.0071 0 0)
(7.61761 -1.10654 0 10.0624 0 0)
(8.52567 -1.43519 0 10.3175 0 0)
(7.3082 -0.935342 0 10.2922 0 0)
(8.42742 -1.32439 0 10.5183 0 0)
(7.17435 -0.789247 0 10.3987 0 0)
(8.379 -1.13433 0 10.5441 0 0)
(7.20997 -0.655402 0 10.3688 0 0)
(8.37798 -0.930593 0 10.5644 0 0)
(7.26836 -0.603953 0 10.4992 0 0)
(8.29202 -0.856514 0 10.722 0 0)
(7.37212 -0.602346 0 10.7461 0 0)
(8.24353 -0.794151 0 10.9732 0 0)
(7.54473 -0.53384 0 11.0785 0 0)
(8.376 -0.703825 0 11.3117 0 0)
(7.77205 -0.45273 0 11.4724 0 0)
(8.58536 -0.58756 0 11.6789 0 0)
(7.90089 -0.328085 0 11.8539 0 0)
(8.68736 -0.492617 0 12.075 0 0)
(7.90125 -0.160732 0 12.2386 0 0)
(8.6801 -0.434959 0 12.4063 0 0)
(7.83407 -0.0339324 0 12.5094 0 0)
(8.58819 -0.409968 0 12.5941 0 0)
(7.83046 -0.0745007 0 12.6603 0 0)
(8.56273 -0.470174 0 12.6212 0 0)
(7.95548 -0.308543 0 12.6321 0 0)
(8.61085 -0.563316 0 12.5675 0 0)
(8.17001 -0.507312 0 12.5921 0 0)
(8.63476 -0.591483 0 12.5899 0 0)
(8.27904 -0.623823 0 12.6474 0 0)
(8.71169 -0.56569 0 12.6551 0 0)
(8.33503 -0.609405 0 12.7474 0 0)
(8.73555 -0.425406 0 12.8755 0 0)
(8.27542 -0.480952 0 13.0869 0 0)
(8.66147 -0.20143 0 13.2637 0 0)
(8.03253 -0.261117 0 13.5505 0 0)
(8.47006 0.0208046 0 13.5681 0 0)
(7.78596 -0.100574 0 13.7883 0 0)
(8.24581 0.228719 0 13.9046 0 0)
(7.43639 0.0761928 0 14.256 0 0)
(8.03548 0.42872 0 14.2742 0 0)
(7.14322 0.209518 0 14.4079 0 0)
(7.80541 0.566368 0 14.3974 0 0)
(6.80203 0.331008 0 14.5126 0 0)
(7.45554 0.641761 0 14.4286 0 0)
(6.60442 0.535965 0 14.5295 0 0)
(7.14137 0.651205 0 14.2139 0 0)
(6.42441 0.619641 0 14.2581 0 0)
(7.0069 0.736186 0 14.0953 0 0)
(6.32123 0.749077 0 14.0739 0 0)
(6.96015 0.692843 0 13.7578 0 0)
(6.2416 0.866577 0 13.8654 0 0)
(6.90741 0.744528 0 13.6549 0 0)
(6.07086 0.883991 0 13.7206 0 0)
(6.68655 0.776879 0 13.7875 0 0)
(5.85039 0.913987 0 13.8654 0 0)
(6.42652 0.6622 0 13.8632 0 0)
(5.67442 0.873121 0 13.9159 0 0)
(6.26231 0.5824 0 13.8884 0 0)
(5.44198 0.789879 0 13.9744 0 0)
(6.02903 0.355664 0 13.9348 0 0)
(5.28741 0.658858 0 14.0479 0 0)
(5.80008 0.17016 0 13.9253 0 0)
(5.21899 0.522601 0 13.8022 0 0)
(5.59267 -0.0533029 0 13.7751 0 0)
(5.10681 0.309249 0 13.4997 0 0)
(5.29261 -0.316986 0 13.318 0 0)
(5.09943 0.0523953 0 12.8617 0 0)
(4.96381 -0.645742 0 12.5855 0 0)
(5.22847 -0.335082 0 12.0337 0 0)
(4.71678 -1.03389 0 11.6885 0 0)
(5.45313 -0.615609 0 11.3805 0 0)
(4.62101 -1.30106 0 10.9599 0 0)
(5.52317 -0.946017 0 10.7295 0 0)
(4.56462 -1.40096 0 10.2531 0 0)
(5.41531 -1.20919 0 10.3084 0 0)
(4.57062 -1.34268 0 9.52705 0 0)
(5.26589 -1.51907 0 9.8134 0 0)
(4.49629 -1.21373 0 8.51228 0 0)
(5.077 -1.79877 0 9.26216 0 0)
(4.43533 -0.942399 0 7.55158 0 0)
(4.81477 -1.89577 0 8.91115 0 0)
(4.46217 -0.575573 0 6.90497 0 0)
(4.4338 -1.87968 0 8.85166 0 0)
(4.32052 -0.204685 0 6.6366 0 0)
(4.07128 -1.70511 0 9.21235 0 0)