/*--------------------------------*- C++ -*----------------------------------*\
| =========                 |                                                 |
| \\      /  F ield         | OpenFOAM: The Open Source CFD Toolbox           |
|  \\    /   O peration     | Version:  2.4.0                                 |
|   \\  /    A nd           | Web:      www.OpenFOAM.org                      |
|    \\/     M anipulation  |                                                 |
\*---------------------------------------------------------------------------*/
FoamFile
{
    version     2.0;
    format      ascii;
    class       surfaceScalarField;
    location    "65";
    object      phi;
}
// * * * * * * * * * * * * * * * * * * * * * * * * * * * * * * * * * * * * * //

dimensions      [0 3 -1 0 0 0 0];

internalField   nonuniform List<scalar> 
8640
(
0.000459257
2.8243e-05
0.000403054
5.62025e-05
0.000556161
-0.000153107
0.00057339
-1.72285e-05
0.000429424
0.000143966
0.000502816
-7.33924e-05
0.000513324
-1.05077e-05
0.000446928
6.63956e-05
0.000540025
-9.30974e-05
0.000498835
4.11905e-05
0.000469586
2.92489e-05
0.000561936
-9.23494e-05
0.000471796
9.01397e-05
0.000489767
-1.7971e-05
0.000550206
-6.04392e-05
0.000494661
5.55451e-05
0.000542669
-4.80077e-05
0.0005744
-3.17317e-05
0.0005287
4.57e-05
-5.49532e-05
0.000583654
0.00134288
7.28632e-05
0.00130013
9.89535e-05
0.00148499
-0.000337964
0.0014558
1.19531e-05
0.0013121
0.000287667
0.00141038
-0.000171669
0.00139562
4.24807e-06
0.00135413
0.000107885
0.00145344
-0.000192403
0.00139258
0.000102048
0.00139075
3.10835e-05
0.00147046
-0.000172059
0.00136596
0.000194635
0.00141359
-6.55953e-05
0.00145868
-0.000105527
0.00140862
0.000105601
0.00148441
-0.000123803
0.00147011
-1.74261e-05
0.00153607
-2.02567e-05
7.01637e-06
0.0014741
0.00215024
0.000110121
0.00213597
0.000113225
0.00229305
-0.000495042
0.00224557
5.94282e-05
0.00214099
0.000392248
0.0022198
-0.000250472
0.00219363
3.04183e-05
0.00218556
0.000115951
0.00225987
-0.000266714
0.00220202
0.000159896
0.00222812
4.99085e-06
0.0022677
-0.000211642
0.00219396
0.000268376
0.00223602
-0.000107658
0.00226538
-0.000134889
0.0022268
0.000144182
0.00230712
-0.000204119
0.00226963
2.00661e-05
0.00234787
-9.85029e-05
7.1635e-06
0.00234773
0.00283709
0.000160527
0.00288928
6.10352e-05
0.00302668
-0.000632435
0.0029257
0.000160405
0.00287897
0.000438976
0.00293925
-0.000310752
0.00288029
8.93813e-05
0.00292287
7.33661e-05
0.00297024
-0.000314081
0.00289619
0.000233945
0.00297799
-7.68077e-05
0.00296549
-0.000199145
0.00291538
0.000318489
0.00297799
-0.000170266
0.0029594
-0.000116298
0.00294934
0.000154241
0.00301919
-0.000273965
0.00297893
6.03221e-05
0.00302293
-0.0001425
-8.70867e-05
0.00311718
0.00338939
0.000258638
0.00348961
-3.91814e-05
0.00368419
-0.000827016
0.00350491
0.000339678
0.00348794
0.00045595
0.00356516
-0.000387973
0.00343594
0.000218604
0.00352084
-1.1537e-05
0.00357817
-0.000371413
0.00345118
0.000360937
0.00359387
-0.000219502
0.00355944
-0.000164717
0.00348738
0.000390551
0.00360543
-0.000288316
0.00354475
-5.56157e-05
0.0035409
0.000158087
0.00361623
-0.00034929
0.00357858
9.7971e-05
0.00357026
-0.000134184
-0.000248293
0.00373147
0.00386115
0.000384991
0.00392777
-0.000105801
0.00419479
-0.00109404
0.00399311
0.00054136
0.00396837
0.000480691
0.00408709
-0.000506689
0.00390085
0.000404842
0.00397522
-8.59039e-05
0.00406777
-0.000463969
0.00389329
0.00053542
0.00405586
-0.00038207
0.00404171
-0.000150571
0.00393185
0.000500418
0.00408411
-0.000440581
0.00401446
1.40303e-05
0.00400365
0.000168904
0.00408121
-0.000426851
0.00406092
0.000118259
0.00401378
-8.70435e-05
-0.000425831
0.00419132
0.00427353
0.000498964
0.00428522
-0.000117497
0.00456027
-0.00136909
0.00438069
0.000720944
0.00434567
0.000515709
0.00449093
-0.000651947
0.00429852
0.000597247
0.00434151
-0.000128894
0.00444953
-0.000571988
0.00426152
0.000723434
0.00440613
-0.00052668
0.00441684
-0.00016128
0.00428906
0.000628191
0.0044433
-0.00059482
0.00437848
7.88517e-05
0.0043644
0.000182988
0.00443305
-0.000495507
0.00442649
0.000124819
0.00436989
-3.04405e-05
-0.000578505
0.00452256
0.0046056
0.00058086
0.00458885
-0.000100745
0.00481289
-0.00159313
0.00466964
0.000864193
0.00463361
0.000551735
0.00477039
-0.000788722
0.00461023
0.000757405
0.00463156
-0.000150223
0.00472844
-0.000668873
0.00456398
0.000887893
0.00467258
-0.000635274
0.00469305
-0.000181751
0.00457311
0.000748128
0.0047047
-0.000726402
0.00464964
0.000133908
0.00463875
0.000193878
0.00469056
-0.000547317
0.00468793
0.000127447
0.00464474
1.27492e-05
-0.000677843
0.00474408
0.00484158
0.000626779
0.00482333
-8.24941e-05
0.00496087
-0.00173067
0.00486263
0.000962429
0.0048353
0.000579065
0.00493105
-0.000884475
0.00482285
0.000865605
0.00483243
-0.000159803
0.00489764
-0.000734075
0.00478717
0.000998358
0.00485201
-0.000700112
0.00486992
-0.00019966
0.00478129
0.00083675
0.00487092
-0.000816024
0.00482986
0.000174968
0.00482735
0.000196386
0.00485654
-0.000576507
0.0048537
0.000130288
0.00483598
3.04673e-05
-0.000710872
0.00486901
0.00497691
0.000637369
0.00497141
-7.69907e-05
0.0050041
-0.00176336
0.00496108
0.00100544
0.00494774
0.000592405
0.00498206
-0.000918795
0.0049366
0.00091107
0.00493905
-0.000162252
0.00495857
-0.000753598
0.00492133
0.0010356
0.00493806
-0.000716844
0.00494609
-0.000207688
0.00490742
0.000875414
0.00494109
-0.000849688
0.00491906
0.000196993
0.00492717
0.000188277
0.00492885
-0.00057819
0.00492818
0.000130963
0.00493603
2.26185e-05
-0.000681806
0.00490696
0.0050109
0.000613971
0.00501851
-8.45983e-05
0.00494522
-0.00169007
0.00496493
0.00098573
0.00496584
0.000591495
0.00493153
-0.000884485
0.00495415
0.000888451
0.00495021
-0.000158315
0.00491878
-0.000722166
0.00496087
0.000993516
0.00492928
-0.000685254
0.00492361
-0.000202017
0.004946
0.00085302
0.00491409
-0.00081778
0.00491756
0.000193527
0.00493465
0.000171188
0.00490666
-0.000550204
0.00491418
0.000123449
0.00493652
2.76471e-07
-0.00061074
0.00486545
0.00494318
0.000558286
0.00495608
-9.74978e-05
0.00478997
-0.00152396
0.00486848
0.000907221
0.00488381
0.000576168
0.00478749
-0.000788162
0.00487508
0.00080086
0.00486478
-0.000148011
0.0047882
-0.000645593
0.00490179
0.000879925
0.00482559
-0.000609055
0.00480697
-0.000183392
0.00488806
0.000771934
0.00479294
-0.000722668
0.004824
0.000162475
0.00484715
0.000148031
0.0047908
-0.000493854
0.00481342
0.00010083
0.00483386
-2.01644e-05
-0.000521454
0.00474458
0.00477374
0.000472048
0.00477718
-0.000100936
0.0045394
-0.00128618
0.00466776
0.000778859
0.004695
0.000548933
0.00455604
-0.000649207
0.00470201
0.00065489
0.00468033
-0.000126333
0.00457553
-0.000540789
0.00474261
0.000712838
0.00462472
-0.000491158
0.00460351
-0.00016218
0.00472422
0.000651224
0.00458399
-0.000582444
0.00463927
0.000107198
0.00466322
0.000124078
0.00458626
-0.000416894
0.00462478
6.23113e-05
0.00463161
-2.69945e-05
-0.000433448
0.0045436
0.0044994
0.000360151
0.00447158
-7.31153e-05
0.00419643
-0.00101103
0.00436537
0.00060992
0.00439869
0.000515611
0.00425177
-0.000502288
0.00444178
0.000464881
0.00439688
-8.14309e-05
0.00429016
-0.000434072
0.0044799
0.000523095
0.00432919
-0.000340444
0.00432169
-0.000154683
0.00445295
0.000519968
0.00429452
-0.000424012
0.00436732
3.43943e-05
0.00438286
0.000108538
0.00429929
-0.000333321
0.0043459
1.56959e-05
0.0043369
-1.79886e-05
-0.000358494
0.00426194
0.00410867
0.000238978
0.00403415
1.40367e-06
0.00378018
-0.00075706
0.00397921
0.000410891
0.00401103
0.000483788
0.00389557
-0.000386828
0.00409234
0.000268116
0.00401467
-3.76542e-06
0.00393441
-0.000353807
0.00410532
0.000352178
0.0039469
-0.000182015
0.0039634
-0.000171186
0.00407484
0.000408529
0.00392736
-0.000276531
0.00400411
-4.23584e-05
0.00400476
0.000107882
0.00392902
-0.000257576
0.00397233
-2.76186e-05
0.00395241
1.93329e-06
-0.000297288
0.00389121
0.00358278
0.000143698
0.00349175
9.24364e-05
0.00332213
-0.000587442
0.00351482
0.000218198
0.00354248
0.000456135
0.00346922
-0.000313568
0.00361386
0.000123471
0.00352787
8.22254e-05
0.00348477
-0.000310712
0.00360177
0.000235187
0.00347594
-5.61894e-05
0.00350222
-0.000197464
0.00357938
0.000331372
0.00346873
-0.000165888
0.00352875
-0.000102374
0.00352002
0.000116612
0.00346058
-0.000198136
0.00348755
-5.45903e-05
0.00346417
2.53123e-05
-0.000241718
0.0034086
0.00293828
9.29135e-05
0.00290102
0.0001297
0.00278945
-0.000475867
0.00291512
9.25254e-05
0.0029656
0.000405657
0.00290538
-0.000253353
0.00297668
5.2177e-05
0.0029365
0.000122403
0.00289666
-0.000270871
0.00296257
0.00016927
0.00289851
7.87442e-06
0.00289819
-0.00019714
0.00296379
0.000265767
0.00289762
-9.97143e-05
0.00291849
-0.000123252
0.00291726
0.00011785
0.00286866
-0.000149538
0.00287143
-5.73599e-05
0.00285577
4.09658e-05
-0.000184612
0.00279867
0.0022217
5.87095e-05
0.00224343
0.000107973
0.00210171
-0.000334145
0.00216784
2.63894e-05
0.00227076
0.000302739
0.00219196
-0.000174549
0.00222723
1.69004e-05
0.00224021
0.000109432
0.00216526
-0.000195927
0.00222304
0.000111496
0.00220554
2.53761e-05
0.00216415
-0.000155756
0.00224776
0.000182153
0.00220031
-5.22548e-05
0.00218089
-0.000103835
0.00220208
9.66618e-05
0.00215191
-9.93769e-05
0.00213929
-4.474e-05
0.00213836
4.18996e-05
-0.000120718
0.00207447
0.0014228
2.34045e-05
0.00146805
6.27297e-05
0.00128779
-0.000153888
0.00132578
-1.16038e-05
0.00147381
0.000154711
0.00137608
-7.6814e-05
0.00139888
-5.90707e-06
0.00144169
6.66296e-05
0.00133979
-9.40317e-05
0.0014065
4.47914e-05
0.00140746
2.44077e-05
0.00133605
-8.43445e-05
0.00143574
8.24693e-05
0.00139402
-1.05427e-05
0.00135076
-6.05707e-05
0.00139457
5.28525e-05
0.00133793
-4.27406e-05
0.00131965
-2.6452e-05
0.00133191
2.96369e-05
-5.20752e-05
0.00126327
0.000510905
0.000573634
0.000419747
0.000408143
0.000562854
0.00048604
0.000480133
0.000546763
0.000452731
0.000497523
0.00052193
0.000437586
0.000520055
0.000509512
0.000448942
0.000501794
0.000459054
0.000432602
0.000462239
0.000410163
0.000903753
-0.000323072
2.97195e-06
0.000641591
4.93007e-06
0.000257232
0.000975261
7.38805e-05
-0.000407551
0.00127149
-0.000933046
0.000636821
0.000928344
5.53953e-05
0.000287747
0.00136484
-0.000697435
0.000260941
0.00144405
0.000112116
-0.000191326
0.001524
-0.000181686
0.000101734
0.00186844
-0.000318204
-2.62404e-05
0.00212046
0.00034013
-0.000592146
0.00249166
-0.00112559
0.000754385
0.00280536
-0.000437304
0.000123601
0.00313803
-0.00351442
0.00318175
0.00333959
-0.00419528
0.00399372
0.00329682
-0.00145108
0.00149385
0.00375029
-0.000728909
0.000275442
0.00409327
-0.00292456
0.00258157
0.00420391
-0.00352543
0.00341479
0.00457517
-0.00430322
0.00393196
0.00479122
-0.00619858
0.00598254
0.00460616
-0.00564825
0.0058333
0.00427069
-0.00466078
0.00499626
0.00358987
-0.00507464
0.00575546
0.00258547
-0.0030832
0.0040876
0.0018778
-0.000817757
0.00152543
0.00189839
-0.00494474
0.00492415
0.00208381
-0.00884506
0.00865964
0.00241352
-0.00533285
0.00500314
0.00266342
-0.000513083
0.000263183
0.00280837
0.00149936
-0.00164431
0.00331647
0.00720065
-0.00770876
0.00364386
0.0120996
-0.012427
0.00361586
0.0118881
-0.0118601
0.00335406
0.00985078
-0.00958898
0.00297407
0.00708472
-0.00670473
0.00269459
0.00223262
-0.00195314
0.00258852
-0.00205055
0.00215662
0.00246477
-0.00358832
0.00371207
0.0022805
-0.00603836
0.00622263
0.00224827
-0.00897213
0.00900436
0.0022887
-0.00902075
0.00898031
0.00236154
-0.00560595
0.00553312
0.00252373
0.00166166
-0.00182386
0.00263083
0.00684226
-0.00694936
0.00254303
0.00715824
-0.00707044
0.00239547
0.00719178
-0.00704421
0.00248239
0.00619705
-0.00628397
0.00254102
0.00405744
-0.00411607
0.00261027
0.00153117
-0.00160042
0.00278848
-0.00344607
0.00326786
0.00285497
-0.00747805
0.00741155
0.00271111
-0.00764385
0.00778772
0.00251054
-0.00452733
0.0047279
0.00248734
-3.44736e-05
5.76739e-05
0.00258068
0.00312356
-0.0032169
0.00259048
0.00408135
-0.00409115
0.00259445
0.00270113
-0.0027051
0.00264826
-0.000744913
0.000691102
0.0026626
-0.00374468
0.00373033
0.00259899
-0.00472005
0.00478367
0.00256123
-0.00331829
0.00335605
0.00261737
0.000171835
-0.000227972
0.00267208
0.00321361
-0.00326833
0.00264014
0.00399582
-0.00396387
0.002543
0.00319852
-0.00310139
0.0024562
0.00197612
-0.00188932
0.00242673
0.000684954
-0.00065549
0.00243708
-0.000437036
0.000426686
0.00244624
-0.00104894
0.00103978
0.0024339
-0.00109249
0.00110483
0.00240051
-0.000805686
0.00083908
0.0023535
-0.000464854
0.000511866
0.00230077
-0.000218287
0.000271013
0.00224896
-8.74756e-05
0.00013928
0.00220264
-3.61775e-05
8.25023e-05
0.00216412
-2.38218e-05
6.23382e-05
0.00213395
-2.45576e-05
5.47262e-05
0.00211152
-2.65209e-05
4.89605e-05
0.00209559
-2.60701e-05
4.19973e-05
0.00208477
-2.3169e-05
3.39916e-05
0.00207771
-1.88858e-05
2.59417e-05
0.00207329
-1.4303e-05
1.87246e-05
0.00207062
-1.01571e-05
1.28243e-05
0.00206907
-6.80931e-06
8.36016e-06
0.0020682
-4.32965e-06
5.2e-06
0.00206773
-2.62192e-06
3.09389e-06
0.00206748
-1.51614e-06
1.76375e-06
0.00206735
-8.39987e-07
9.65831e-07
0.00206729
-4.46309e-07
5.08296e-07
0.00206726
-2.28319e-07
2.57961e-07
0.00206725
-1.12511e-07
1.26299e-07
0.00206724
-5.33492e-08
5.95618e-08
0.00206724
-2.47532e-08
2.74776e-08
0.00206724
-1.09694e-08
1.21289e-08
0.00206724
-4.50549e-09
4.96416e-09
0.00206724
-2.27308e-09
2.46991e-09
0.00206724
-5.39484e-10
6.30539e-10
0.00206724
-4.30165e-10
4.392e-10
0.00206724
-6.87973e-11
5.64034e-11
-1.89818e-12
-5.37088e-12
0.00164674
-0.000495716
0.0015953
5.63658e-05
0.00159933
6.98578e-05
0.00193451
-0.00126823
0.00178242
0.000207484
0.0018917
-0.000806713
0.00210488
-0.000101067
0.00210045
-0.00017725
0.0023107
-0.000528452
0.00274568
-9.48532e-05
0.00313235
-0.00151225
0.00336129
-0.000666249
0.00360445
-0.00375758
0.00379295
-0.00438378
0.00371789
-0.00137601
0.0040778
-0.00108882
0.0043846
-0.00323136
0.00447102
-0.00361185
0.0047246
-0.0045568
0.0048088
-0.00628278
0.00455795
-0.00539739
0.00416326
-0.0042661
0.0034166
-0.00432797
0.00237907
-0.00204567
0.00167096
-0.000109649
0.00171573
-0.0049895
0.00186111
-0.00899044
0.00212254
-0.00559427
0.00242407
-0.000814617
0.00256126
0.00136217
0.00306057
0.00670135
0.00348509
0.0116751
0.00357888
0.0117943
0.00340091
0.0100288
0.00306914
0.00741649
0.00279197
0.00250979
0.00266352
-0.00192209
0.00251748
-0.00344228
0.00230012
-0.00582101
0.00221145
-0.00888346
0.00221157
-0.00902087
0.00224426
-0.00563864
0.00239464
0.00151129
0.00255281
0.00668409
0.00252044
0.00719061
0.00242963
0.00728259
0.00255317
0.00607351
0.00261711
0.0039935
0.00271149
0.00143679
0.00288471
-0.00361928
0.00289572
-0.00748906
0.00269651
-0.00744464
0.00246575
-0.00429657
0.00244118
-9.90506e-06
0.00254421
0.00302053
0.0025748
0.00405076
0.00260255
0.00267338
0.00264791
-0.000790282
0.00263112
-0.00372788
0.00254138
-0.00463032
0.00248353
-0.00326044
0.00253633
0.000119033
0.00261144
0.00313851
0.00261026
0.00399699
0.00254137
0.00326742
0.0024765
0.00204099
0.00246027
0.000701186
0.00247259
-0.00044935
0.00247474
-0.00105109
0.00245239
-0.00107014
0.0024108
-0.000764094
0.00235892
-0.000412969
0.00230395
-0.000163317
0.00225131
-3.48417e-05
0.00220471
1.04306e-05
0.00216603
1.48546e-05
0.00213567
5.79819e-06
0.00211299
-3.83581e-06
0.00209677
-9.85318e-06
0.00208565
-1.20426e-05
0.0020783
-1.15435e-05
0.00207363
-9.63491e-06
0.00207077
-7.29513e-06
0.00206908
-5.11481e-06
0.00206811
-3.3606e-06
0.00206757
-2.08554e-06
0.00206729
-1.22916e-06
0.00206714
-6.90771e-07
0.00206706
-3.71478e-07
0.00206703
-1.91629e-07
0.00206701
-9.50227e-08
0.002067
-4.54546e-08
0.002067
-2.1025e-08
0.002067
-9.32811e-09
0.00206699
-4.04386e-09
0.00206699
-1.65096e-09
0.00206699
-6.62364e-10
0.00206699
-2.608e-10
0.00206699
-1.10944e-10
-6.77976e-12
0.00236446
-0.000512453
0.00256447
-0.000143644
0.00244712
0.000187206
0.00254873
-0.00136984
0.00264533
0.000110883
0.00255641
-0.000717794
0.00283925
-0.000383901
0.00287396
-0.000211962
0.00288215
-0.000536641
0.0033485
-0.000561211
0.0037238
-0.00188755
0.00387283
-0.000815279
0.00401807
-0.00390282
0.00415719
-0.0045229
0.00406422
-0.00128304
0.00434398
-0.00136858
0.00458288
-0.00347027
0.00463129
-0.00366026
0.00477828
-0.00470378
0.00474583
-0.00625033
0.00444272
-0.00509428
0.00400041
-0.00382379
0.00320128
-0.00352884
0.00215045
-0.000994849
0.00146844
0.000572369
0.00150848
-0.00502955
0.00160548
-0.00908744
0.00180482
-0.00579361
0.00214231
-0.0011521
0.00229392
0.00121056
0.00278626
0.006209
0.00329335
0.011168
0.00349982
0.0115878
0.00340921
0.0101194
0.00313678
0.00768892
0.00287129
0.00277528
0.00272341
-0.00177421
0.00255633
-0.0032752
0.00230843
-0.00557311
0.00216349
-0.00873851
0.00211925
-0.00897664
0.0021121
-0.00563149
0.00225212
0.00137127
0.00245891
0.0064773
0.00247994
0.00716958
0.00244977
0.00731275
0.00260838
0.0059149
0.00267742
0.00392446
0.00279865
0.00131556
0.00296269
-0.00378332
0.00291395
-0.00744032
0.00266134
-0.00719203
0.00240736
-0.00404259
0.00238211
1.53417e-05
0.00249093
0.00291171
0.00254224
0.00399945
0.00259366
0.00262196
0.00262869
-0.000825311
0.00258057
-0.00367976
0.00246672
-0.00451646
0.00239093
-0.00318465
0.00243992
7.00418e-05
0.00253381
0.00304462
0.00256292
0.00396788
0.00252328
0.00330706
0.00248199
0.00208228
0.00247992
0.000703252
0.00249408
-0.000463509
0.00248876
-0.00104577
0.00245628
-0.00103766
0.00240692
-0.00071473
0.00235114
-0.000357189
0.00229536
-0.000107546
0.00224364
1.68794e-05
0.0021986
5.54699e-05
0.00216155
5.19084e-05
0.00213259
3.47595e-05
0.00211097
1.77866e-05
0.00209548
5.63784e-06
0.00208479
-1.35778e-06
0.00207768
-4.4335e-06
0.00207311
-5.06532e-06
0.00207027
-4.45682e-06
0.00206857
-3.41038e-06
0.00206758
-2.37068e-06
0.00206702
-1.52928e-06
0.00206672
-9.26559e-07
0.00206656
-5.31315e-07
0.00206648
-2.90071e-07
0.00206644
-1.51299e-07
0.00206642
-7.5634e-08
0.00206641
-3.64137e-08
0.00206641
-1.69146e-08
0.0020664
-7.53173e-09
0.0020664
-3.28388e-09
0.0020664
-1.3331e-09
0.0020664
-5.13465e-10
0.0020664
-2.27319e-10
0.0020664
-1.1322e-10
-7.89517e-12
0.00300128
-0.000396556
0.0032637
-0.000406066
0.00319369
0.000257219
0.00312039
-0.00129654
0.00339237
-0.000161091
0.00317941
-0.000504839
0.00342022
-0.000624709
0.00356941
-0.000361157
0.00346995
-0.000437175
0.00388932
-0.000980584
0.0042107
-0.00220893
0.00428962
-0.000894203
0.00433689
-0.00395009
0.00439328
-0.00457929
0.00430403
-0.00119378
0.00452264
-0.00158719
0.00467333
-0.00362095
0.0046896
-0.00367652
0.0047493
-0.00476349
0.00460707
-0.0061081
0.00425726
-0.00474447
0.00377834
-0.00334487
0.00294463
-0.00269514
0.00190481
4.49747e-05
0.00127216
0.00120501
0.00127388
-0.00503127
0.00131854
-0.0091321
0.00147138
-0.00594645
0.001823
-0.00150372
0.00200578
0.00102778
0.00249584
0.00571895
0.00307058
0.0105933
0.0033794
0.011279
0.00337823
0.0101205
0.00317435
0.0078928
0.00293075
0.00301887
0.00276787
-0.00161133
0.00258234
-0.00308968
0.00230589
-0.00529666
0.00210472
-0.00853734
0.00201216
-0.00888408
0.00196467
-0.00558399
0.00209673
0.00123921
0.00234962
0.00622441
0.00242195
0.00709725
0.00245611
0.00727859
0.0026475
0.00572352
0.00272248
0.00384947
0.00287172
0.00116632
0.0030213
-0.00393289
0.00290906
-0.00732809
0.00260601
-0.00688897
0.00233636
-0.00377295
0.00231094
4.07613e-05
0.00242182
0.00280083
0.00249371
0.00392756
0.00256804
0.00254763
0.00259088
-0.000848146
0.00251192
-0.00360081
0.00237585
-0.00438039
0.00228429
-0.0030931
0.00232912
2.52156e-05
0.00244012
0.00293362
0.00249875
0.00390925
0.00248904
0.00331677
0.00247263
0.00209869
0.00248543
0.000690451
0.00250108
-0.000479161
0.00248779
-0.00103248
0.00244519
-0.000995054
0.00238866
-0.000658206
0.0023301
-0.000298631
0.00227503
-5.247e-05
0.00222597
6.59371e-05
0.00218433
9.71101e-05
0.00215065
8.55896e-05
0.00212463
6.07833e-05
0.00210533
3.70797e-05
0.00209155
1.94254e-05
0.00208202
8.17165e-06
0.00207564
1.94735e-06
0.00207149
-9.24407e-07
0.00206889
-1.85323e-06
0.00206731
-1.82523e-06
0.00206637
-1.43653e-06
0.00206584
-9.96563e-07
0.00206554
-6.32568e-07
0.00206539
-3.74233e-07
0.00206531
-2.08825e-07
0.00206527
-1.10575e-07
0.00206525
-5.58261e-08
0.00206524
-2.70875e-08
0.00206523
-1.26308e-08
0.00206523
-5.63656e-09
0.00206523
-2.48176e-09
0.00206523
-9.8888e-10
0.00206523
-3.60826e-10
0.00206523
-1.83803e-10
0.00206523
-1.04682e-10
-7.67593e-12
0.00354995
-0.000215038
0.00377479
-0.000630906
0.00379537
0.000236645
0.0036014
-0.00110257
0.00395264
-0.000512334
0.00371892
-0.000271115
0.00386903
-0.000774828
0.00410039
-0.000592514
0.00395433
-0.000291112
0.00430276
-0.00132902
0.00455319
-0.00245935
0.00459609
-0.000937103
0.00457509
-0.00392909
0.00453081
-0.00453502
0.00445356
-0.00111653
0.00461263
-0.00174627
0.00466506
-0.00367338
0.00466091
-0.00367237
0.00464459
-0.00474716
0.00439375
-0.00585727
0.004
-0.00435071
0.0034943
-0.00283918
0.00265086
-0.00185169
0.00165091
0.00104493
0.0010814
0.00177452
0.00101445
-0.00496432
0.00101137
-0.00912902
0.00113916
-0.00607424
0.00147928
-0.00184385
0.00170178
0.000805282
0.00219235
0.00522837
0.00281912
0.00996651
0.00321972
0.0108784
0.00330951
0.0100307
0.00318197
0.00802034
0.00297048
0.00323037
0.00279744
-0.00143829
0.00259635
-0.00288859
0.00229272
-0.00499303
0.0020354
-0.00828003
0.00189081
-0.00873949
0.00180196
-0.00549514
0.00192937
0.0011118
0.00222561
0.00592817
0.00234714
0.00697572
0.00244879
0.00717695
0.00267001
0.0055023
0.00275304
0.00376644
0.00293079
0.000988573
0.00305944
-0.00406154
0.00288062
-0.00714927
0.00253103
-0.00653938
0.0022534
-0.00349531
0.00222826
6.58973e-05
0.00233797
0.00269112
0.00243048
0.00383505
0.00252605
0.00245206
0.00253517
-0.000857262
0.00242636
-0.003492
0.0022699
-0.00422393
0.00216454
-0.00298773
0.00220503
-1.52766e-05
0.00233144
0.00280721
0.00241852
0.00382217
0.00243912
0.00329617
0.00244873
0.00208908
0.00247674
0.000662442
0.0024933
-0.000495722
0.00247152
-0.00101071
0.00241898
-0.00094252
0.00235615
-0.000595372
0.00229609
-0.000238572
0.00224328
3.38195e-07
0.00219863
0.000110588
0.00216216
0.000133579
0.00213351
0.000114243
0.00211185
8.24426e-05
0.00209603
5.28967e-05
0.00208482
3.06413e-05
0.00207707
1.59206e-05
0.00207185
7.16816e-06
0.00206842
2.50204e-06
0.00206623
3.32847e-07
0.00206488
-4.7231e-07
0.00206407
-6.25627e-07
0.0020636
-5.26407e-07
0.00206334
-3.69002e-07
0.00206319
-2.31359e-07
0.00206312
-1.33958e-07
0.00206308
-7.26098e-08
0.00206306
-3.71716e-08
0.00206305
-1.82246e-08
0.00206305
-8.52925e-09
0.00206305
-3.80638e-09
0.00206305
-1.69898e-09
0.00206305
-6.50584e-10
0.00206305
-2.15791e-10
0.00206305
-1.39516e-10
0.00206305
-9.30062e-11
-5.5899e-12
0.00401133
-3.50549e-05
0.00415658
-0.000776151
0.00426164
0.000131583
0.00400559
-0.000846523
0.00434809
-0.000854828
0.00415759
-8.06212e-05
0.00421617
-0.000833409
0.0044777
-0.000854043
0.00433137
-0.000144779
0.00459779
-0.00159544
0.00476688
-0.00262843
0.00480221
-0.000972432
0.00472084
-0.00384772
0.0045717
-0.00438588
0.00452229
-0.00106711
0.00461848
-0.00184247
0.0045785
-0.0036334
0.00456245
-0.00365632
0.00446447
-0.00464918
0.00409926
-0.00549206
0.00366632
-0.00391777
0.00314572
-0.00231858
0.00232427
-0.00103025
0.00139756
0.00197164
0.000895908
0.00227617
0.000740305
-0.00480872
0.00070164
-0.00909035
0.000828598
-0.0062012
0.0011305
-0.00214575
0.00139046
0.000545327
0.00187939
0.00473945
0.00254303
0.00930286
0.00302266
0.0103987
0.00320569
0.00984771
0.00315989
0.00806614
0.00298838
0.00340187
0.00281197
-0.00126187
0.00259936
-0.00267598
0.00226991
-0.00466358
0.00195655
-0.00796667
0.0017567
-0.00853964
0.00162481
-0.00536325
0.0017512
0.000985411
0.00208771
0.00559166
0.00225663
0.0068068
0.00242815
0.00700543
0.00267564
0.00525481
0.0027702
0.00367188
0.002976
0.000782773
0.00307602
-0.00416156
0.00282837
-0.00690162
0.002437
-0.00614801
0.00215863
-0.00321695
0.00213423
9.03e-05
0.00224042
0.00258493
0.00235378
0.00372169
0.00246854
0.00233729
0.00246257
-0.000851291
0.0023253
-0.00335473
0.00215005
-0.00404868
0.00203256
-0.00287024
0.00206874
-5.14601e-05
0.00220891
0.00266704
0.00232318
0.00370791
0.00237425
0.0032451
0.00241077
0.00205256
0.00245399
0.000619215
0.00247056
-0.000512286
0.00243982
-0.000979969
0.00237783
-0.000880535
0.00230982
-0.000527353
0.00224972
-0.000178478
0.00220082
4.92373e-05
0.00216229
0.000149124
0.00213265
0.000163219
0.0021105
0.000136391
0.00209442
9.85222e-05
0.00208301
6.43058e-05
0.00207504
3.86092e-05
0.00206954
2.14183e-05
0.0020658
1.09115e-05
0.0020633
5.00555e-06
0.00206166
1.96789e-06
0.00206063
5.6506e-07
0.00205999
1.14256e-08
0.00205961
-1.4865e-07
0.00205939
-1.5293e-07
0.00205928
-1.12155e-07
0.00205921
-7.055e-08
0.00205918
-4.00464e-08
0.00205916
-2.10044e-08
0.00205916
-1.04775e-08
0.00205915
-4.92043e-09
0.00205915
-2.18502e-09
0.00205915
-9.9822e-10
0.00205915
-3.46692e-10
0.00205915
-8.99296e-11
0.00205915
-9.99589e-11
0.00205915
-8.00473e-11
-2.13949e-12
0.00438851
9.90019e-05
0.00444221
-0.000829851
0.00460345
-2.96616e-05
0.00434028
-0.000583353
0.00461447
-0.00112901
0.00450034
3.35119e-05
0.00447953
-0.000812602
0.00471642
-0.00109094
0.00460694
-3.52941e-05
0.00478935
-0.00177786
0.00487272
-0.0027118
0.00492312
-0.00102283
0.00478041
-0.00370501
0.0045301
-0.00413557
0.0045136
-0.0010506
0.00454011
-0.00186899
0.0044284
-0.00352169
0.0043953
-0.00362323
0.00419788
-0.00445176
0.00371705
-0.00501123
0.00325386
-0.00345459
0.00273535
-0.00180006
0.00197099
-0.000265888
0.00115438
0.00278825
0.00072062
0.00270994
0.000468551
-0.00455665
0.000406452
-0.00902825
0.00055568
-0.00635043
0.00079834
-0.00238841
0.00108301
0.00026066
0.00156012
0.00426234
0.0022454
0.00861757
0.00279169
0.00985245
0.00306921
0.00957019
0.00310893
0.00802643
0.00298441
0.00352639
0.00281239
-0.00108986
0.00259246
-0.00245604
0.00223832
-0.00430944
0.00186927
-0.00759761
0.00161157
-0.00828194
0.00143522
-0.00518689
0.00156421
0.000856412
0.00193691
0.00521897
0.00215154
0.00659216
0.00239424
0.00676273
0.002664
0.00498505
0.00277479
0.00356109
0.00300744
0.000550121
0.0030698
-0.00422391
0.00275219
-0.00658401
0.00232448
-0.00572029
0.00205165
-0.00294412
0.00202832
0.00011363
0.00213005
0.0024832
0.00226504
0.0035867
0.00239647
0.00220587
0.00237431
-0.000829133
0.00221026
-0.00319068
0.00201757
-0.003856
0.00188927
-0.00274194
0.0019213
-8.349e-05
0.00207374
0.0025146
0.00221376
0.00356789
0.00229532
0.00316353
0.0023595
0.00198839
0.00241746
0.000561254
0.00243282
-0.000527642
0.00239281
-0.000939963
0.00232223
-0.000809951
0.00225049
-0.000455616
0.00219202
-0.000120003
0.00214872
9.25384e-05
0.00211792
0.000179922
0.00209656
0.000184578
0.0020821
0.000150849
0.00207248
0.00010814
0.00206609
7.07006e-05
0.00206176
4.29348e-05
0.00205877
2.44151e-05
0.00205666
1.30196e-05
0.00205518
6.48553e-06
0.00205416
2.98702e-06
0.00205348
1.24498e-06
0.00205304
4.479e-07
0.00205277
1.20052e-07
0.00205262
5.57999e-09
0.00205253
-2.24946e-08
0.00205248
-2.19007e-08
0.00205245
-1.46699e-08
0.00205244
-8.25481e-09
0.00205243
-4.31488e-09
0.00205243
-2.03113e-09
0.00205243
-8.80083e-10
0.00205243
-4.28758e-10
0.00205243
-9.97562e-11
0.00205243
7.96136e-12
0.00205243
-6.8501e-11
0.00205243
-6.72375e-11
2.03384e-12
0.00467725
0.00016583
0.0046518
-0.000804401
0.00482453
-0.000202389
0.00460141
-0.000360236
0.00477275
-0.00130036
0.00474288
6.33883e-05
0.00466978
-0.000739503
0.00483613
-0.00125729
0.00478989
1.09464e-05
0.00488751
-0.00187548
0.00488664
-0.00271094
0.00496148
-0.00109767
0.00475286
-0.0034964
0.0044201
-0.00380281
0.00443245
-0.00106295
0.00438906
-0.00182561
0.00422608
-0.0033587
0.00414724
-0.00354438
0.00383472
-0.00413924
0.0032604
-0.00443691
0.00277323
-0.00296741
0.00227965
-0.00130649
0.00160201
0.000411748
0.000929347
0.00346091
0.000564729
0.00307456
0.000219986
-0.00421191
0.000132874
-0.00894114
0.000324773
-0.00654233
0.000496306
-0.00255994
0.000785995
-2.9029e-05
0.00123898
0.00380935
0.00193101
0.00792554
0.00253487
0.00924859
0.00290561
0.00919945
0.00303123
0.00790081
0.00295963
0.00359799
0.00279925
-0.000929475
0.00257675
-0.00223354
0.00219966
-0.00393236
0.00177534
-0.00717329
0.00145808
-0.00796469
0.00123662
-0.00496543
0.00137104
0.000721992
0.00177463
0.00481537
0.0020337
0.0063331
0.00234747
0.00644896
0.00263513
0.00469738
0.00276843
0.00342779
0.00302455
0.000293999
0.00303958
-0.00423894
0.00265219
-0.00619663
0.00219399
-0.00526209
0.00193121
-0.00268134
0.00190918
0.000135661
0.00200762
0.00238476
0.00216581
0.00342852
0.00231092
0.00206076
0.00227194
-0.000790154
0.00208297
-0.00300171
0.00187385
-0.00364687
0.00173561
-0.0026037
0.00176375
-0.00011163
0.00192712
0.00235123
0.00209141
0.0034036
0.00220353
0.00305141
0.0022959
0.00189601
0.00236749
0.000489672
0.00238018
-0.000540337
0.00233089
-0.000890676
0.00225302
-0.000732081
0.00217939
-0.000381986
0.00212438
-6.49918e-05
0.00208836
0.000128564
0.00206673
0.000201547
0.00205476
0.000196548
0.00204873
0.000156878
0.00204598
0.000110894
0.00204476
7.19183e-05
0.00204411
4.35897e-05
0.00204358
2.49377e-05
0.00204307
1.35294e-05
0.00204259
6.97019e-06
0.00204217
3.40635e-06
0.00204184
1.57425e-06
0.0020416
6.85177e-07
0.00204144
2.78684e-07
0.00204134
1.04881e-07
0.00204129
3.61476e-08
0.00204125
1.09199e-08
0.00204124
2.83531e-09
0.00204123
6.77278e-10
0.00204122
4.44449e-11
0.00204122
2.66537e-11
0.00204122
5.29577e-11
0.00204122
-1.7918e-11
0.00204122
7.72405e-11
0.00204122
7.36109e-11
0.00204122
-4.67232e-11
0.00204122
-5.58684e-11
6.2545e-12
0.00486994
0.000164895
0.00479177
-0.000726222
0.00493496
-0.000345582
0.00478046
-0.000205737
0.00483335
-0.00135324
0.0048738
2.29387e-05
0.00478702
-0.000652725
0.00485575
-0.00132602
0.00488595
-1.92566e-05
0.00489721
-0.00188673
0.00482019
-0.00263392
0.00491838
-0.00119586
0.00464028
-0.0032183
0.00425623
-0.00341876
0.00427804
-0.00108475
0.00417172
-0.00171929
0.00395881
-0.00314579
0.00379144
-0.00337701
0.00336848
-0.00371629
0.00274047
-0.0038089
0.0022467
-0.00247364
0.00179782
-0.000857602
0.001237
0.000972566
0.000731024
0.00396688
0.000441576
0.003364
8.21027e-06
-0.00377854
-8.06784e-05
-0.00885225
0.000121621
-0.00674463
0.000220729