/*--------------------------------*- C++ -*----------------------------------*\
| =========                 |                                                 |
| \\      /  F ield         | OpenFOAM: The Open Source CFD Toolbox           |
|  \\    /   O peration     | Version:  2.4.0                                 |
|   \\  /    A nd           | Web:      www.OpenFOAM.org                      |
|    \\/     M anipulation  |                                                 |
\*---------------------------------------------------------------------------*/
FoamFile
{
    version     2.0;
    format      ascii;
    class       volScalarField;
    location    "1.23";
    object      p;
}
// * * * * * * * * * * * * * * * * * * * * * * * * * * * * * * * * * * * * * //

dimensions      [0 2 -2 0 0 0 0];

internalField   nonuniform List<scalar> 
8800
(
66.0331
53.6676
46.2639
42.7526
40.8446
39.4594
38.2561
37.152
36.1322
35.1692
34.201
33.2974
32.3976
31.5173
30.6601
29.8799
29.0917
28.3921
27.556
26.8942
62.9219
53.3125
46.4336
42.867
40.9049
39.4839
38.264
37.1521
36.1302
35.1674
34.1978
33.2945
32.3967
31.5147
30.6594
29.8781
29.0953
28.3889
27.5498
26.8384
60.9577
53.3852
47.0388
43.242
41.0734
39.5619
38.3103
37.184
36.1552
35.1847
34.2081
33.2986
32.3995
31.5119
30.6605
29.875
29.1076
28.392
27.5688
26.8318
59.421
53.4417
47.6329
43.6643
41.2592
39.646
38.3734
37.2382
36.2054
35.2219
34.2386
33.3133
32.4135
31.5118
30.67
29.8697
29.1372
28.4238
27.7105
26.8706
58.1688
53.4124
48.1172
44.0699
41.431
39.7097
38.4229
37.2922
36.2643
35.2695
34.2809
33.3346
32.4302
31.5165
30.68
29.8659
29.1637
28.4798
27.8474
26.9231
57.1788
53.3164
48.4932
44.4149
41.5866
39.7472
38.4551
37.3332
36.3189
35.3157
34.3266
33.3582
32.4465
31.5172
30.6883
29.858
29.1724
28.5118
27.9645
26.9798
56.4229
53.2008
48.7679
44.6952
41.7293
39.77
38.4654
37.3632
36.363
35.3552
34.3645
33.3791
32.4593
31.5219
30.6863
29.8529
29.1493
28.4911
28.047
27.4464
55.8669
53.1062
48.9469
44.9106
41.8508
39.7938
38.4538
37.3915
36.389
35.3901
34.3863
33.4064
32.4562
31.5309
30.6685
29.8521
29.0974
28.433
27.797
27.9311
55.5075
53.0365
49.056
45.0567
41.943
39.8108
38.4381
37.4087
36.4109
35.4115
34.4028
33.4207
32.461
31.535
30.6616
29.8378
29.0561
28.397
27.8688
28.482
55.3308
53.0001
49.1074
45.1303
41.9914
39.8195
38.4341
37.4144
36.4234
35.4214
34.4133
33.4284
32.4627
31.5322
30.6592
29.8244
29.0481
28.3815
27.9186
28.5245
55.327
53.0059
49.1028
45.1359
41.9934
39.8244
38.4265
37.42
36.4264
35.421
34.4129
33.4315
32.4591
31.5347
30.6578
29.8196
29.04
28.3822
27.938
28.6683
55.5008
53.0503
49.0474
45.0599
41.9519
39.8191
38.4292
37.4134
36.4176
35.4058
34.4064
33.4299
32.4579
31.531
30.6624
29.8221
29.0398
28.3826
27.9863
28.7034
55.8556
53.1297
48.9301
44.9133
41.866
39.8105
38.4323
37.3995
36.3994
35.3819
34.3888
33.4241
32.4501
31.5353
30.6719
29.8261
29.0514
28.3925
27.9768
28.6931
56.4055
53.2318
48.7495
44.6963
41.741
39.7922
38.4351
37.3776
36.3696
35.3473
34.3653
33.4112
32.4417
31.5347
30.6818
29.8432
29.0675
28.4055
27.9695
28.6061
57.1622
53.347
48.4802
44.4093
41.602
39.7645
38.4256
37.3445
36.334
35.302
34.3322
33.3931
32.4266
31.533
30.6984
29.8572
29.0958
28.4407
27.9537
28.4283
58.1468
53.444
48.1143
44.0549
41.4491
39.7219
38.3962
37.3012
36.288
35.2468
34.296
33.3703
32.4132
31.526
30.7113
29.8746
29.1348
28.4805
27.9727
28.196
59.3956
53.4725
47.6379
43.6422
41.2807
39.6595
38.3458
37.2448
36.2369
35.1928
34.2573
33.347
32.4003
31.5164
30.7246
29.8882
29.1724
28.5244
28.0307
27.9066
60.9326
53.4089
47.0525
43.2161
41.0969
39.575
38.2832
37.1882
36.1904
35.1522
34.2298
33.3293
32.3933
31.5127
30.7323
29.8992
29.2021
28.5585
28.0898
27.7525
62.8988
53.3302
46.4509
42.8398
40.9288
39.4969
38.2382
37.1555
36.1655
35.136
34.2197
33.3229
32.3941
31.516
30.7362
29.9093
29.2164
28.5782
28.0861
27.657
66.0123
53.683
46.2811
42.7269
40.8695
39.4698
38.2324
37.1557
36.1648
35.14
34.2237
33.3229
32.3975
31.5196
30.7375
29.9133
29.2206
28.5833
28.0889
27.7798
27.0484
27.0753
27.0189
26.9376
26.8713
26.8255
26.789
26.7661
26.7675
26.7918
26.8313
26.8722
26.9017
26.9142
26.9012
26.8544
26.7705
26.6517
26.495
26.3131
26.1131
25.9115
25.7179
25.5324
25.364
25.2152
25.1083
25.0611
25.0929
25.2147
25.4282
25.7105
26.033
26.3593
26.6631
26.9485
27.2183
27.4727
27.7109
27.9107
28.0607
28.1443
28.1451
28.0995
28.0235
27.9278
27.8368
27.7114
27.5262
27.2454
26.7813
26.1097
25.1171
23.7857
22.1615
20.2283
18.172
16.0784
14.1791
12.6123
11.4505
10.7694
10.4777
10.687
11.272
12.1376
13.3133
14.5312
15.9063
17.2483
18.441
19.763
20.8862
21.9741
23.0769
23.8237
24.5863
25.1353
25.3234
25.5327
25.2668
24.7276
24.2374
23.3379
22.4038
21.488
20.383
19.4903
18.6042
17.6094
16.8581
16.0108
15.0117
14.4336
13.4689
12.3311
11.966
10.9535
9.76468
9.63895
8.89035
8.124
8.09363
7.64262
7.63856
7.74964
7.54836
8.06885
8.34527
8.67076
9.63612
9.91804
10.762
12.3751
12.8628
14.0496
16.2322
16.9814
18.1102
20.6272
21.813
22.6676
25.1533
26.8719
27.6558
29.8044
31.8684
32.86
34.6083
36.711
38.0014
39.368
41.1241
42.3682
43.2057
44.0675
44.5326
44.3245
43.4649
41.9115
39.7098
36.9962
33.7643
30.0949
26.1668
22.3255
18.9319
15.9841
14.0079
12.703
12.1044
12.6396
14.0866
16.3793
19.3744
22.7646
26.1446
29.4058
32.2399
35.2095
38.0003
40.3974
42.1567
44.121
45.8384
47.0344
47.5189
47.4863
46.8492
45.3111
43.2115
40.4946
37.3456
33.7689
29.2829
24.6188
19.8658
13.1031
10.1097
3.22313
0.801607
-3.03589
-4.89111
-5.54541
-5.42623
-2.99158
-0.129293
3.46618
6.56574
9.83892
13.7337
17.1337
21.3282
24.1727
28.6941
30.91
35.5564
36.6281
39.57
32.9881
26.8243
26.8411
26.8688
26.8862
26.8872
26.8576
26.8042
26.7563
26.7374
26.7516
26.7934
26.8404
26.8738
26.8889
26.8773
26.8294
26.7473
26.6341
26.4859
26.3172
26.1246
25.927
25.7379
25.552
25.3974
25.2671
25.179
25.1502
25.1924
25.3058
25.499
25.7467
26.0337
26.3403
26.6302
26.9166
27.1805
27.4269
27.6541
27.8406
27.9816
28.0637
28.0829
28.0576
27.9944
27.8893
27.7737
27.6092
27.3723
27.0385
26.5184
25.8133
24.8188
23.5364
22.0013
20.1939
18.3273
16.3779
14.62
13.1658
12.0009
11.4062
11.0744
11.2468
11.7998
12.5104
13.6719
14.7891
16.0696
17.4271
18.5396
19.8682
20.9425
21.9097
23.0041
23.7073
24.4111
24.939
25.1026
25.2646
24.991
24.5674
24.1243
23.1964
22.4229
21.5537
20.37
19.5991
18.716
17.6281
16.9711
16.1291
15.0473
14.4793
13.6928
12.5939
12.0363
11.2496
10.3462
9.9402
9.24295
8.90811
8.72732
8.19311
8.47764
8.56907
8.43422
9.20358
9.42285
9.6853
11.0568
11.4942
12.0144
13.8877
14.7337
15.4914
17.5986
18.8159
19.6292
21.716
23.2973
24.1396
26.0105
27.7702
28.7015
30.4171
32.2617
33.408
34.992
36.9479
38.4899
39.9699
41.6297
42.9939
44.029
44.9394
45.4004
45.1615
44.1598
42.3168
39.7524
36.561
32.5311
27.8312
22.8638
18.0583
13.667
10.2303
8.01647
6.29564
5.56587
6.72437
8.23914
10.5983
14.3509
18.3618
22.4263
26.4584
29.992
33.2844
36.4396
38.8418
40.9983
42.9912
44.8666
45.9789
46.7519
46.8665
46.4586
45.3893
43.3462
41.0387
37.6238
34.1132
29.8277
24.432
20.8429
13.0218
10.0312
4.62896
1.21577
-1.70749
-3.44792
-3.77651
-3.6642
-1.9556
0.410802
3.57441
5.88926
8.57393
11.3172
14.7779
17.9184
21.1961
24.861
27.1596
30.8252
30.7875
30.7743
27.9093
26.8815
26.8925
26.8716
26.9052
26.9393
26.9163
26.8311
26.7285
26.6777
26.6785
26.7266
26.7879
26.8326
26.856
26.8429
26.7915
26.7059
26.5989
26.4539
26.3082
26.1288
25.9415
25.7658
25.5832
25.4458
25.3316
25.2629
25.2489
25.2984
25.4057
25.578
25.7965
26.0443
26.3253
26.5878
26.863
27.1138
27.3411
27.5586
27.7217
27.8522
27.9383
27.9535
27.945
27.8845
27.757
27.6305
27.4153
27.1304
26.7582
26.1793
25.4718
24.4812
23.2695
21.8654
20.1689
18.5155
16.7413
15.1388
13.8127
12.6899
12.1641
11.796
11.9717
12.4512
13.0175
14.1991
15.1093
16.3622
17.7093
18.607
20.0461
20.9297
21.8059
23.0126
23.4055
24.2152
24.7395
24.6306
25.0334
24.698
24.2131
24.0266
22.9732
22.3639
21.6608
20.2649
19.7736
18.8843
17.5699
17.274
16.2665
15.0662
14.8856
13.8967
12.7659
12.5126
11.6164
10.7948
10.5142
9.78637
9.55847
9.39908
8.91219
9.30724
9.53533
9.39216
10.1636
10.6837
10.8882
12.2151
13.0126
13.4265
15.226
16.3872
17.0127
18.9531
20.3484
21.1203
22.9301
24.4487
25.3337
26.975
28.4999
29.4117
30.9071
32.5406
33.7897
35.3863
37.1991
38.903
40.5873
42.2347
43.725
44.9988
46.0856
46.5727
46.3245
45.2475
43.1598
40.1086
36.1408
31.2477
25.4609
19.5132
13.9789
8.73979
5.13353
2.64767
0.588513
-0.0234832
0.777637
2.53847
4.93456
9.07321
13.5985
18.201
23.0517
27.7044
31.416
34.8228
37.5354
39.9357
41.9351
43.9338
45.2979
46.3292
46.6691
46.4746
45.7168
43.7668
41.6751
38.3094
34.1511
31.3924
24.8091
21.712
14.5957
10.6441
6.32657
2.31994
0.17332
-1.35382
-1.77197
-1.90431
-0.705103
1.43809
4.31598
6.22097
8.33618
10.37
14.1958
16.726
20.317
22.3863
25.0644
25.7243
26.9128
25.6932
24.4976
26.2337
26.3446
26.8757
27.2195
27.2945
27.1386
26.8924
26.6769
26.5698
26.5679
26.6359
26.7154
26.7804
26.8199
26.8176
26.7719
26.6854
26.5842
26.4443
26.3057
26.1372
25.9575
25.8002
25.6318
25.5092
25.4139
25.3634
25.3601
25.4108
25.5073
25.6591
25.8466
26.0595
26.3072
26.5394
26.7902
27.0191
27.2189
27.4164
27.5581
27.6654
27.7569
27.7553
27.7485
27.6909
27.5324
27.4017
27.1327
26.8157
26.4158
25.7894
25.1247
24.1425
23.0359
21.7881
20.2138
18.8209
17.1983
15.7937
14.6436
13.5089
13.144
12.6898
12.8186
13.3266
13.6554
14.8669
15.6172
16.6986
18.1395
18.708
20.1818
21.046
21.599
22.9987
23.1463
23.8526
24.563
24.0822
24.7297
24.4583
23.6351
23.9722
22.8225
21.9875
21.9437
20.3003
19.6409
19.347
17.7229
17.2816
16.7481
15.3398
15.0674
14.3367
13.1399
12.9541
12.0774
11.2658
11.1957
10.3687
10.0827
10.253
9.752
9.96039
10.4755
10.3736
11.0164
11.8652
12.0836
13.2336
14.4407
14.9191
16.3982
17.8696
18.6021
20.1542
21.6715
22.5344
24.0119
25.4896
26.333
27.6705
29.1136
30.0321
31.2957
32.8183
34.179
35.7082
37.4441
39.3247
41.0905
42.7748
44.5357
46.0998
47.3636
48.076
47.9596
46.7544
44.262
40.5573
35.6942
29.7714
23.1247
16.4571
10.2841
4.90508
0.822235
-1.81876
-4.15225
-4.83055
-3.93961
-2.8553
-0.129745
4.22497
8.52878
13.6864
19.3772
24.8967
29.4288
33.244
36.3247
38.9669
41.4325
43.5084
45.1437
46.2064
46.895
46.7725
46.3342
44.5302
41.9113
39.9309
34.7638
33.0246
26.8114
22.9433
16.9881
12.3374
8.20576
4.34259
2.3723
1.15495
0.134135
-0.161028
0.436103
2.51412
4.86305
6.74206
8.64358
10.8104
14.4247
17.259
21.051
22.8031
25.9886
26.1839
27.6637
24.7158
24.2876
25.9694
26.2679
27.1538
27.6521
27.6737
27.3211
26.9094
26.5816
26.412
26.4061
26.493
26.6179
26.7243
26.776
26.7979
26.7537
26.6671
26.5641
26.4026
26.2816
26.1182
25.9561
25.8237
25.677
25.581
25.501
25.4555
25.4773
25.5155
25.5947
25.7464
25.8897
26.0767
26.277
26.4778
26.6989
26.8744
27.0639
27.2301
27.3437
27.435
27.5131
27.5012
27.4772
27.4135
27.2357
27.0967
26.7824
26.4561
26.0589
25.3923
24.7981
23.8668
22.8498
21.7755
20.3581
19.2068
17.7812
16.5783
15.6354
14.582
14.2818
13.7845
13.7855
14.3736
14.4786
15.5626
16.3662
17.0759
18.5501
19.0292
20.1745
21.254
21.4723
22.7878
23.0912
23.3478
24.3229
23.7929
24.1258
24.3452
23.2838
23.5463
22.9462
21.7546
21.8872
20.6917
19.5762
19.5884
18.2161
17.322
17.1869
15.8338
15.2147
14.8665
13.6403
13.2776
12.6995
11.7972
11.6698
11.0413
10.6394
10.9136
10.488
10.5572
11.32
11.2943
11.8365
12.8954
13.2077
14.3028
15.6166
16.2218
17.636
19.0593
19.9282
21.3552
22.8274
23.7509
25.0275
26.4871
27.2997
28.3299
29.6575
30.6212
31.6898
33.0012
34.4108
35.8771
37.5627
39.6052
41.4992
43.2951
45.3449
47.2954
48.8243
49.7939
49.8056
48.4693
45.4846
41.0673
35.3554
28.397
20.996
13.7199
7.09171
1.75799
-2.53672
-5.78083
-8.09544
-9.66621
-8.21974
-6.98569
-4.29453
-0.00679968
4.46843
9.32418
15.8097
22.0207
27.0798
31.3051
35.3318
38.5594
41.3559
43.3914
45.3488
46.3959
47.4173
47.5799
46.8269
46.1922
42.6535
41.9838
36.913
34.5596
29.5465
25.0846
19.7522
14.7354
10.7382
6.55241
4.63493
3.32077
1.9249
0.37415
1.40451
3.29969
5.43605
7.1044
9.38408
11.4656
14.6831
17.4412
21.3845
23.1606
26.0664
26.0363
27.2851
25.6246
25.2648
26.0279
26.4151
27.3894
27.905
27.8504
27.3769
26.8576
26.4874
26.3198
26.3124
26.4147
26.5585
26.6926
26.7495
26.7654
26.7393
26.6509
26.5532
26.394
26.2655
26.1392
25.9674
25.839
25.7366
25.638
25.5794
25.5465
25.5773
25.6186
25.6736
25.8129
25.9373
26.0777
26.2396
26.42
26.5908
26.7356
26.8826
27.0354
27.1094
27.1734
27.2629
27.2083
27.1852
27.096
26.9155
26.7694
26.4056
26.1105
25.696
25.044
24.5093
23.6476
22.7547
21.8254
20.6127
19.6581
18.475
17.4102
16.6495
15.745
15.3864
15.0366
14.8776
15.3749
15.5329
16.2471
17.1361
17.6617
18.8222
19.494
20.2183
21.3352
21.603
22.4343
23.0657
23.0853
23.874
23.7277
23.6048
24.1039
23.2554
23.028
23.0495
21.8374
21.6225
21.1349
19.7734
19.6313
18.8151
17.5733
17.4521
16.3867
15.5037
15.2802
14.1376
13.6327
13.2173
12.2484
12.0662
11.6742
11.1224
11.3118
11.213
11.1773
11.895
12.1762
12.6124
13.71
14.2349
15.2275
16.5888
17.3909
18.7551
20.1623
21.189
22.5105
23.9344
24.9881
26.002
27.3919
28.2846
28.9923
30.1271
31.105
31.9955
33.023
34.3967
35.8641
37.5013
39.6987
41.7248
43.6287
45.9619
48.247
50.1803
51.4725
51.5677
50.0453
46.5793
41.6057
35.0812
27.5573
19.3878
11.4165
4.67531
-0.965085
-5.22749
-8.61112
-11.4006
-11.8389
-11.4868
-10.428
-7.4505
-3.41481
1.25749
6.20151
12.9277
19.1228
24.9173
29.7838
34.4127
38.1722
41.2349
43.425
45.7169
47.0552
47.7789
48.8928
47.3286
48.3691
44.4779
43.9026
39.7105
36.8035
32.2523
27.4664
22.7395
17.749
13.539
9.07109
7.26516
5.83591
4.143
2.35915
2.89794
4.33561
6.36391
7.71385
9.73599
11.8134
14.7141
17.8492
21.7038
23.9988
26.1217
26.0547
26.3605
24.7598
22.7523
26.7
26.8714
27.3041
27.4786
27.3101
26.911
26.5817
26.3345
26.2911
26.3274
26.4153
26.5827
26.6993
26.7317
26.7502
26.7177
26.64
26.5353
26.3709
26.2449
26.1374
25.9672
25.8547
25.7781
25.6871
25.647
25.6135
25.6668
25.6901
25.7377
25.8612
25.9609
26.0812
26.1876
26.3619
26.474
26.5866
26.7133
26.8228
26.8937
26.9088
27.0055
26.9271
26.8719
26.7979
26.6013
26.4458
26.0784
25.7903
25.3913
24.773
24.2824
23.5256
22.7434
21.9309
20.9278
20.123
19.154
18.2228
17.5915
16.8734
16.4391
16.2009
15.9849
16.3208
16.5694
16.9554
17.814
18.3003
19.0986
19.8911
20.392
21.3546
21.7443
22.2111
22.9669
22.9947
23.4651
23.6491
23.3565
23.7683
23.2875
22.7553
22.9856
22.0434
21.5012
21.3975
20.1329
19.7363
19.2588
17.9611
17.6747
16.8314
15.8918
15.6185
14.5761
13.9938
13.5648
12.6489
12.4465
12.0703
11.5502
11.7588
11.7338
11.6977
12.406
12.8099
13.2843
14.3829
15.0372
16.0884
17.494
18.4511
19.8227
21.2741
22.3961
23.6182
24.9733
26.1733
27.0657
28.2198
29.2206
29.7955
30.668
31.4468
32.099
32.8844
34.0842
35.5903
37.2411
39.5186
41.6256
43.6106
46.2596
48.8442
51.0702
52.7525
53.0531
51.181
47.2102
41.6702
34.8067
26.8855
18.4218
10.2255
2.88944
-2.96015
-7.30837
-10.8819
-13.6404
-14.4318
-14.3467
-13.0276
-10.5556
-5.93403
-1.47236
3.7365
10.7138
17.3278
23.0657
28.6008
33.8742
38.2281
41.7123
44.1404
46.0482
48.0526
48.0713
50.7747
48.7386
50.2498
47.1843
45.8649
42.5549
39.2665
34.9378
30.0205
25.9059
21.086
16.7878
12.5043
10.4065
8.62542
6.67526
4.80012
4.53901
5.71775
7.22121
8.58673
10.3179
12.3257
14.6244
17.7761
21.1861
23.8274
25.381
25.5439
25.015
24.4226
23.1183
29.1639
28.7385
27.5017
26.6618
26.1582
25.8974
25.9053
26.0382
26.2003
26.3897
26.4873
26.6502
26.7448
26.7281
26.7235
26.6734
26.5957
26.4898
26.3366
26.2153
26.1297
25.9672
25.8793
25.8179
25.7349
25.7033
25.6723
25.7318
25.7396
25.7812
25.893
25.9625
26.0599
26.1506
26.2761
26.3777
26.4429
26.547
26.6515
26.6565
26.6937
26.7578
26.6651
26.6081
26.5112
26.3324
26.1521
25.8153
25.5181
25.1605
24.5799
24.1163
23.5038
22.7648
22.0815
21.272
20.5494
19.7813
18.9665
18.4272
17.8657
17.3879
17.2026
17.0142
17.1927
17.4599
17.6737
18.4055
18.8922
19.4163
20.2084
20.6347
21.3727
21.8564
22.1311
22.8616
22.9533
23.2009
23.5642
23.2301
23.5017
23.3196
22.6627
22.8777
22.2543
21.5569
21.5298
20.5174
19.9427
19.5523
18.4014
17.9075
17.1861
16.3292
15.8672
14.9272
14.3539
13.8632
13.0749
12.7542
12.3664
11.9469
12.0464
12.0926
12.0961
12.76
13.2925
13.8352
14.9554
15.7873
16.8689
18.281
19.4537
20.7794
22.2452
23.6042
24.7326
26.0375
27.3468
28.2317
29.2497
30.1454
30.5658
31.1298
31.6112
31.937
32.5659
33.5882
35.0715
36.792
38.9846
41.1519
43.2197
46.0853
48.9154
51.3796
53.3709
53.6956
51.4335
47.1178
41.1748
34.1077
26.1429
17.8622
9.71809
2.03651
-3.93788
-8.49651
-12.4859
-15.029
-16.1939
-16.1526
-14.6771
-11.96
-7.39704
-3.40234
2.59943
9.04568
16.0787
21.8425
27.85
33.6997
38.5587
42.2222
45.2488
46.575
49.9664
49.2534
52.6702
51.2525
51.7867
49.8291
48.0078
45.152
41.5585
37.7229
32.8345
29.1703
24.6309
20.5508
16.1874
13.6607
11.3172
9.21995
7.09838
6.66249
7.1181
8.32384
9.74905
11.0228
13.0124
15.2413
17.6257
20.4475
22.8482
23.8944
24.3335
24.0801
23.1067
21.7142
30.0081
29.415
27.5584
26.2241
25.5126
25.3255
25.5515
25.905
26.2474
26.4829
26.6009
26.7685
26.8242
26.7724
26.7237
26.6386
26.5588
26.4436
26.2997
26.1986
26.1089
25.9744
25.9041
25.8393
25.7877
25.7412
25.7281
25.7837
25.7616
25.8278
25.8952
25.9572
26.037
26.1021
26.2071
26.276
26.3338
26.3931
26.498
26.4612
26.4983
26.5285
26.4339
26.3854
26.2401
26.121
25.8886
25.5968
25.3277
24.9497
24.484
24
23.5344
22.8445
22.2283
21.6366
20.9155
20.327
19.6291
19.1269
18.7271
18.2257
18.0637
17.9425
17.9877
18.2134
18.3823
18.9362
19.4002
19.7958
20.4647
20.8986
21.4629
21.9306
22.1821
22.7726
22.934
23.0977
23.4348
23.1911
23.3509
23.3042
22.7089
22.8023
22.414
21.7404
21.6109
20.8417
20.2294
19.8031
18.8137
18.2231
17.5456
16.7206
16.1386
15.288
14.6567
14.1439
13.4445
12.9472
12.5897
12.2286
12.1842
12.3243
12.375
12.9674
13.6683
14.2958
15.3864
16.3823
17.5256
18.9412
20.3098
21.693
23.1893
24.7354
25.8638
27.202
28.5281
29.4162
30.4376
30.9957
31.2562
31.5869
31.7317
31.795
32.0961
32.8867
34.2364
36.0653
38.0792
40.1091
42.4199
45.3422
48.3043
50.9479
52.8006
52.9144
50.6351
46.3391
40.4463
33.2615
25.4501
17.5051
9.52578
1.99037
-3.8517
-8.63575
-12.6734
-15.3769
-16.9762
-16.046
-15.1376
-11.8752
-8.16898
-3.73622
1.91411
8.85274
15.8237
21.5569
27.931
34.6385
39.778
42.9886
47.3763
47.8259
52.1102
51.3299
53.7498
53.6391
53.332
51.9947
49.9115
47.5284
43.9925
40.7884
36.261
32.8048
28.638
24.3873
19.8448
16.9518
14.2374
12.0233
9.8552
9.1529
9.47115
10.0941
11.405
12.3081
13.7951
15.7429
17.6463
20.0272
22.1248
22.9525
23.1922
22.8511
22.191
21.2974
30.3681
29.8347
27.822
26.2771
25.3936
25.0951
25.3109
25.7449
26.1697
26.4927
26.6592
26.8222
26.8807
26.8025
26.7198
26.6169
26.5037
26.3979
26.2635
26.1633
26.0869
25.9675
25.9183
25.8603
25.8201
25.7903
25.7584
25.822
25.7879
25.8407
25.9087
25.9239
26.0123
26.0505
26.1204
26.191
26.2126
26.2621
26.3328
26.2814
26.3163
26.3314
26.2153
26.1799
26.0354
25.8894
25.7056
25.4036
25.1687
24.8247
24.3895
23.9839
23.5474
22.9553
22.4158
21.9152
21.2936
20.7802
20.2197
19.7574
19.4337
19.0095
18.813
18.7523
18.7362
18.8578
19.068
19.4381
19.8379
20.2191
20.6984
21.1551
21.6187
21.9971
22.2845
22.721
22.9566
23.0802
23.3045
23.2516
23.2741
23.2683
22.8763
22.7581
22.5563
22.0176
21.6801
21.1557
20.5737
20.0309
19.2713
18.5711
17.8622
17.189
16.3991
15.6316
14.9907
14.2495
13.7026
13.0599
12.6231
12.4542
12.224
12.4023
12.5877
13.0352
13.8542
14.5606
15.6384
16.8107
18.0354
19.5463
21.0531
22.5095
24.1402
25.7387
26.9246
28.43
29.7423
30.5443
31.6034
31.9962
31.9908
32.1241
31.8237
31.5196
31.4085
31.8666
33.2341
35.0909
36.9372
38.6768
40.9627
43.9406
46.9842
49.4143
50.921
50.8245
48.8518
45.0674
39.6644
32.8564
25.275
17.6881
9.92124
2.52876
-3.12443
-7.66748
-11.646
-14.7447
-15.9897
-15.9035
-14.6587
-11.4751
-8.51234
-3.4016
2.30315
9.48332
15.9241
22.0311
28.4637
35.3429
41.419
44.3153
49.966
50.1862
54.0387
54.2652
55.4438
55.5497
54.7995
54.0233
51.9052
50.2995
47.0032
44.3091
40.2515
36.5943
32.6078
28.254
24.1151
20.814
17.6066
15.4131
13.1862
12.3709
12.0749
12.1205
13.513
13.8397
14.6846
16.3058
17.8134
19.9262
21.4977
21.8151
22.0427
22.1049
21.3885
20.4899
30.5903
30.1148
28.0402
26.3673
25.3487
24.9379
25.1167
25.5631
26.084
26.4607
26.6737
26.8501
26.9035
26.8216
26.7316
26.602
26.4628
26.3601
26.2333
26.1383
26.0674
25.9715
25.9288
25.8805
25.8513
25.8268
25.7957
25.8332
25.8175
25.8465
25.8949
25.9034
25.9704
25.9999
26.036
26.1072
26.1061
26.1481
26.1896
26.1609
26.1643
26.1368
26.0478
25.9731
25.8676
25.712
25.5198
25.2902
25.016
24.7402
24.3484
23.9669
23.6158
23.0607
22.612
22.1888
21.6357
21.1968
20.7221
20.3349
20.058
19.6976
19.4891
19.4714
19.4064
19.4674
19.6821
19.9236
20.269
20.5957
20.9745
21.3923
21.7782
22.1362
22.3562
22.738
23.0345
23.0533
23.2804
23.3293
23.2498
23.3273
23.0294
22.8281
22.7525
22.2533
21.8835
21.4873
20.8987
20.3714
19.6964
18.9498
18.2426
17.5459
16.6993
15.9285
15.2038
14.3881
13.8251
13.132
12.6535
12.4645
12.1725
12.3535
12.5699
13.0069
13.8289
14.6101
15.783
17.0614
18.4182
20.0551
21.6644
23.1893
24.9732
26.6263
27.9322
29.583
30.9091
31.7476
32.6829
33.0362
32.8917
32.5908
31.8557
31.0143
30.5155
30.7909
32.0782
33.8991
35.564
37.0917
39.0465
41.8779
44.8369
46.8763
47.8294
47.6072
46.1568
43.2889
38.8124
32.8111
25.9271
18.9755
11.4151
4.04948
-1.41226
-5.84437
-9.86154
-13.1279
-13.9499
-14.3668
-12.7995
-10.4553
-7.20385
-2.14033
3.40089
10.3837
17.614
22.1607
30.5428
36.3753
43.9102
46.2437
52.6542
53.2657
55.7576
56.7255
57.4684
57.4591
56.7184
56.5834
54.3567
53.5806
50.4283
47.9398
44.0689
40.0151
36.4614
32.267
28.4243
24.6966
21.3693
19.179
16.4319
15.5423
14.9221
14.2465
15.3023
15.3367
15.9196
17.5134
18.0956
19.437
20.8726
21.0013
21.0521
21.1681
20.6271
19.8242
30.6457
30.1832
28.0907
26.3808
25.3556
24.9193
25.0808
25.5386
26.0563
26.4605
26.6953
26.8697
26.9165
26.818
26.7255
26.5944
26.4215
26.327
26.2165
26.1071
26.057
25.9675
25.9365
25.9029
25.8664
25.8625
25.8244
25.8372
25.8407
25.8483
25.8757
25.8832
25.9213
25.9509
25.9594
26.0117
26.0123
26.0172
26.0508
25.9983
26.0109
25.9736
25.878
25.8154
25.7052
25.5595
25.3779
25.167
24.9319
24.6601
24.3225
24.0022
23.6639
23.2016
22.8009
22.4441
21.9811
21.5593
21.211
20.8529
20.5905
20.3284
20.0942
20.0865
20.0441
20.0221
20.2251
20.4294
20.6585
20.9623
21.271
21.6057
21.9723
22.2592
22.4639
22.8133
23.0725
23.1243
23.305
23.3957
23.3622
23.3915
23.2117
23.0271
22.9105
22.5398
22.1805
21.8163
21.2784
20.7627
20.1437
19.369
18.6379
17.8719
16.9849
16.202
15.3815
14.5478
13.9162
13.1482
12.6459
12.3183
12.0172
12.181
12.3436
12.8724
13.6698
14.5567
15.8525
17.1067
18.6738
20.3666
21.9959
23.8335
25.6141
27.3242
28.927
30.5229
31.8886
33.0051
33.7792
33.9735
33.7843
32.9585
31.7847
30.3891
29.4083
29.8418
31.0638
32.6056
34.276
35.6921
37.2151
39.6787
42.1996
43.6337
43.8963
43.5916
42.9148
41.2197
37.9599
32.9893
27.0583
20.9247
14.0893
6.97962
1.75004
-2.63101
-7.2298
-10.6048
-11.4184
-11.9383
-10.4305
-8.38624
-4.98913
0.276044
7.75372
10.8604
20.8057
20.74
34.4368
36.4742
46.7589
49.0978
54.7141
56.4622
58.1452
59.4561
59.8548
59.7987
59.2643
59.1705
56.9516
56.7535
53.288
50.9548
47.4591
43.4069
40.1166
36.117
32.4271
28.3944
25.1683
22.8553
19.9352
18.6454
17.7961
16.6503
17.1787
17.0274
17.1957
18.4309
18.6947
19.3902
20.3578
20.2042
20.0118
20.3187
19.9907
19.0684
30.5739
30.115
28.0584
26.3845
25.4076
24.999
25.1727
25.62
26.1105
26.499
26.7153
26.8668
26.8894
26.7861
26.6924
26.572
26.394
26.2921
26.2115
26.0979
26.0517
25.9841
25.9483
25.9304
25.8871
25.8841
25.8572
25.8312
25.8425
25.8493
25.8379
25.8561
25.8704
25.8872
25.8931
25.9084
25.9284
25.9156
25.9115
25.8994
25.8736
25.8132
25.7545
25.6504
25.5689
25.4418
25.2301
25.0934
24.8574
24.6012
24.3356
24.0332
23.7474
23.3444
22.9961
22.7006
22.2935
21.944
21.6467
21.3245
21.1112
20.8775
20.6678
20.6562
20.5998
20.5657
20.7148
20.8904
21.05
21.2879
21.576
21.8323
22.1448
22.4165
22.6019
22.8949
23.1418
23.2255
23.3721
23.502
23.4927
23.5148
23.4256
23.2542
23.124
22.8629
22.5334
22.1478
21.7246
21.1981
20.5382
19.8488
19.0333
18.2269
17.3607
16.4569
15.6193
14.7026
13.9041
13.153
12.5405
12.1352
11.8962
11.9103
12.1144
12.7091
13.3975
14.416
15.7808
17.0415
18.7917
20.5793
22.2118
24.2327
26.0876
27.7222
29.6604
31.3604
32.5299
34.0149
34.8999
34.7908
34.5617
33.2869
31.3856
29.7317
28.4487
28.7371
30.3172
31.9421
33.4482
34.608
35.8331
37.9106
39.7514
40.3341
39.9938
39.7108
39.8375
39.4516
37.5586
33.6745
28.7177
23.3599
17.1365
10.658
5.86735
1.49202
-3.36601
-6.79721
-8.1239
-8.55188
-7.26101
-5.43889
-2.0618
2.74907
7.88372
11.3479
25.1701
19.2295
39.3985
36.0891
50.2413
52.4168
56.6555
59.496
60.7228
63.0183
62.589
62.4304
62.0874
61.2
59.5532
59.1906
55.6158
53.7894
50.6625
47.1546
43.6395
39.7714
36.0683
32.0129
29.1597
26.2269
23.347
21.7423
20.2748
19.1059
19.2573
18.8291
18.3019
19.084
19.3459
19.4014
19.9044
19.707
19.2859
19.2636
18.9777
18.278
30.3131
29.8663
27.9407
26.3776
25.5065
25.2031
25.3957
25.8113
26.2353
26.5558
26.7424
26.8412
26.8465
26.7484
26.6395
26.538
26.3596
26.2576
26.2003
26.09
26.0503
25.9997
25.9567
25.9421
25.8993
25.8896
25.8732
25.8294
25.8392
25.8439
25.8053
25.8295
25.8175
25.8263
25.8303
25.8084
25.8487
25.7975
25.793
25.7738
25.7234
25.694
25.6044
25.5299
25.4385
25.319
25.1471
25.0021
24.8184
24.5637
24.3547
24.0928
23.8181
23.5084
23.1954
22.9316
22.6033
22.291
22.0337
21.7929
21.5661
21.3724
21.2176
21.1437
21.1215
21.0804
21.1675
21.3201
21.4231
21.6202
21.8598
22.0628
22.3315
22.5673
22.7515
23.0085
23.2129
23.3495
23.4963
23.5972
23.6627
23.6785
23.6101
23.5227
23.3726
23.1639
22.9153
22.5266
22.1424
21.6297
20.9292
20.2671
19.4623
18.6146
17.7336
16.7496
15.8415
14.8583
13.9588
13.1899
12.4329
12.0092
11.7869
11.689
12.0255
12.5331
13.2006
14.3585
15.5958
17.0299
18.8304
20.56
22.3889
24.3477
26.2447
28.023
29.9562
31.8575
33.1141
34.5297
35.6605
35.5723
35.066
33.5676
31.0487
28.7829
27.3403
27.4393
29.0933
31.1659
32.8188
33.8955
35.0808
36.8343
38.044
37.8267
37.1506
37.0016
37.8146
38.5681
37.9276
35.2509
31.1413
26.3641
20.5734
14.4198
9.86856
5.71784
1.26312
-2.1045
-4.12889
-4.59
-3.35199
-1.99194
0.425892
5.06074
8.35648
14.6931
22.8394
20.8571
43.5171
37.3891
52.9213
54.1834
59.1942
61.4412
62.6388
66.929
65.159
65.3398
64.8952
63.2214
62.5144
61.1876
58.161
56.5376
53.4537
50.3346
46.4016
43.1521
39.2838
35.1684
32.7317
29.3235
26.4302
24.8918
22.8191
21.432
20.85
20.5522
19.7661
19.7252
19.6389
19.2977
19.7001
19.1206
18.3759
18.6016
18.0421
17.1503
29.8153
29.3876
27.7621
26.4561
25.7551
25.5658
25.7374
26.0716
26.393
26.6162
26.7498
26.7934
26.7609
26.6835
26.5745
26.4798
26.3399
26.2404
26.1843
26.0934
26.052
26.0158
25.974
25.9581
25.9227
25.8985
25.8812
25.8308
25.8259
25.8247
25.7771
25.7923
25.7701
25.7584
25.766
25.7225
25.7535
25.7062
25.6756
25.6779
25.6022
25.5706
25.4925
25.4152
25.3294
25.2104
25.0778
24.9313
24.774
24.562
24.3719
24.1558
23.9059
23.6599
23.3907
23.158
22.8978
22.6211
22.4076
22.1911
21.9858
21.8272
21.683
21.6103
21.5761
21.537
21.599
21.6875
21.7779
21.9424
22.1049
22.2962
22.5095
22.7021
22.9109
23.1078
23.31
23.4728
23.6013
23.7388
23.8021
23.8388
23.8201
23.7282
23.6277
23.452
23.2093
22.8857
22.4874
21.9843
21.3367
20.6304
19.8414
18.9681
17.9985
17.0073
16.0644
15.0569
14.1307
13.3073
12.5234
12.0344
11.7578
11.6466
11.957
12.4196
13.1486
14.3348
15.5469
17.0883
18.8347
20.5387
22.4277
24.2712
26.1954
28.0757
29.8877
31.9473
33.4696
34.6772
35.8729
36.2546
35.6366
33.6608
30.6131
27.6632
25.8449
26.2124
28.2319
30.4995
32.2413
33.4554
34.9002
36.5045
37.2592
36.6308
35.9839
36.0334
37.2076
38.6308
38.9012
37.1603
33.8752
29.6313
24.1919
18.4579
14.2009
10.365
6.23068
2.69344
0.377754
-0.156568
0.339435
0.803746
3.46987
9.2039
9.37999
19.4088
22.692
23.4433
44.4703
40.6012
52.7468
52.6894
61.8592
61.8088
65.3956
70.1557
67.9659
68.6954
67.4978
65.7337
65.3918
62.9957
60.5605
58.5423
55.5433
52.6168
48.8091
45.8201
41.8718
38.1342
35.4425
31.8587
29.0477
26.5696
24.7189
23.3912
22.3208
21.7775
20.9945
20.8122
20.3333
19.1054
18.983
18.5881
17.6503
17.4238
16.9964
16.2662
29.0456
28.653
27.5365
26.6348
26.146
26.0471
26.1656
26.365
26.5599
26.6658
26.737
26.7457
26.6864
26.6304
26.516
26.4223
26.322
26.2265
26.1785
26.1101
26.0643
26.031
25.9856
25.9614
25.9318
25.894
25.8767
25.8314
25.8123
25.8028
25.7539
25.7617
25.7274
25.7076
25.7096
25.6533
25.6722
25.619
25.5846
25.5736
25.4949
25.4762
25.3897
25.3207
25.2439
25.1228
25.0269
24.8786
24.7425
24.5715
24.3951
24.2151
23.9989
23.7918
23.5738
23.3559
23.1345
22.917
22.703
22.5192
22.3508
22.1903
22.0869
21.9969
21.9416
21.9314
21.9418
21.9967
22.0772
22.184
22.3191
22.4764
22.6547
22.828
23.0175
23.2095
23.3826
23.5529
23.6975
23.8256
23.9106
23.9623
23.9698
23.8962
23.8082
23.652
23.4136
23.117
22.7257
22.2533
21.6371
20.9145
20.1338
19.2258
18.2515
17.2735
16.2759
15.2852
14.3406
13.4606
12.7169
12.1826
11.8518
11.7798
12.0143
12.4645
13.2365
14.3479
15.6077
17.1435
18.8265
20.5176
22.3591
24.1525
26.0537
27.9704
29.6071
31.3697
33.3786
34.9117
35.7229
36.1223
35.7102
33.8735
30.7119
27.4388
25.4838
25.842
28.0347
30.3074
32.0614
33.5409
35.4378
37.0165
37.4799
36.9391
36.4411
36.9003
37.9011
39.2939
39.8675
38.5513
35.8845
32.0247
27.1662
22.5428
18.49
14.6419
11.0553
7.72578
5.45512
4.52515
4.05256
4.67629
7.57285
11.0721
13.2712
24.6866
24.6078
31.369
44.1777
44.1529
53.4446
47.7285
63.7618
62.6862
68.5436
71.8372
70.5287
71.5751
69.6778
68.2589
67.2968
64.3973
62.4404
60.2574
57.3538
54.5176
51.2781
47.865
43.8196
40.4737
37.5015
33.9119
30.9477
28.5553
26.3654
24.6904
23.7238
22.8766
21.8617
21.513
20.7299
19.4768
18.6007
17.5451
17.0862
16.5353
15.4131
15.05
28.1699
27.9499
27.4226
26.9623
26.6771
26.5843
26.5838
26.6293
26.6881
26.7025
26.7132
26.6872
26.6222
26.5705
26.4734
26.3886
26.3094
26.225
26.1713
26.1162
26.0714
26.0368
25.9984
25.9685
25.9358
25.8952
25.87
25.8325
25.8033
25.7834
25.7443
25.7279
25.6951
25.6654
25.6541
25.6093
25.6011
25.5625
25.52
25.4991
25.4293
25.3946
25.322
25.2518
25.1785
25.0701
24.9835
24.8481
24.7278
24.583
24.4181
24.2665
24.0693
23.8986
23.7084
23.504
23.3227
23.12
22.9349
22.7708
22.6117
22.4761
22.3653
22.2751
22.2192
22.1953
22.1916
22.2206
22.2774
22.3622
22.4701
22.598
22.753
22.9087
23.0831
23.2683
23.4287
23.596
23.749