/*--------------------------------*- C++ -*----------------------------------*\
| =========                 |                                                 |
| \\      /  F ield         | OpenFOAM: The Open Source CFD Toolbox           |
|  \\    /   O peration     | Version:  2.4.0                                 |
|   \\  /    A nd           | Web:      www.OpenFOAM.org                      |
|    \\/     M anipulation  |                                                 |
\*---------------------------------------------------------------------------*/
FoamFile
{
    version     2.0;
    format      ascii;
    class       volScalarField;
    location    "1.23";
    object      pPrime2Mean;
}
// * * * * * * * * * * * * * * * * * * * * * * * * * * * * * * * * * * * * * //

dimensions      [0 4 -4 0 0 0 0];

internalField   nonuniform List<scalar> 
8800
(
525819
512556
498326
484217
470300
456585
443074
429764
416656
403750
391044
378537
366224
354100
342152
330358
318672
307005
295145
282431
525838
512558
498325
484216
470300
456585
443074
429764
416656
403750
391044
378537
366225
354102
342155
330364
318684
307031
295210
282647
525850
512558
498321
484214
470299
456585
443073
429764
416656
403750
391045
378538
366227
354105
342161
330377
318709
307083
295330
283065
525859
512557
498318
484211
470298
456584
443073
429763
416656
403750
391045
378540
366229
354110
342171
330395
318744
307156
295497
283553
525866
512557
498315
484209
470297
456584
443073
429763
416656
403751
391046
378541
366233
354117
342183
330418
318789
307247
295698
284056
525872
512558
498313
484207
470296
456584
443073
429763
416656
403751
391047
378543
366237
354125
342198
330446
318842
307352
295918
284548
525877
512559
498311
484205
470295
456584
443073
429763
416657
403752
391049
378546
366242
354134
342215
330477
318902
307466
296148
285016
525880
512559
498310
484204
470295
456584
443073
429763
416657
403752
391050
378549
366248
354144
342233
330510
318965
307586
296379
285452
525882
512560
498309
484203
470294
456584
443073
429764
416657
403753
391052
378552
366253
354154
342253
330546
319031
307708
296606
285853
525883
512560
498309
484203
470294
456584
443074
429764
416658
403754
391053
378555
366259
354165
342273
330582
319097
307829
296824
286219
525883
512560
498309
484203
470294
456584
443074
429764
416658
403755
391055
378558
366265
354176
342293
330618
319163
307947
297028
286548
525882
512560
498309
484203
470294
456584
443074
429765
416659
403756
391057
378562
366271
354187
342312
330654
319226
308058
297217
286843
525880
512559
498310
484204
470295
456585
443074
429765
416659
403757
391059
378565
366277
354197
342331
330687
319285
308161
297388
287102
525876
512559
498311
484206
470296
456585
443074
429765
416660
403758
391061
378568
366282
354207
342348
330718
319340
308254
297540
287328
525872
512558
498313
484207
470297
456585
443074
429766
416661
403759
391062
378571
366287
354215
342363
330746
319388
308336
297672
287520
525866
512558
498315
484209
470298
456585
443075
429766
416661
403760
391064
378573
366291
354223
342377
330770
319430
308406
297782
287680
525859
512558
498318
484212
470299
456586
443075
429767
416662
403761
391065
378575
366295
354229
342388
330789
319464
308463
297871
287807
525849
512558
498322
484214
470300
456586
443075
429767
416663
403762
391066
378577
366298
354234
342397
330805
319490
308506
297938
287902
525838
512558
498325
484217
470301
456587
443076
429768
416663
403762
391067
378578
366299
354237
342403
330815
319507
308535
297983
287965
525819
512556
498326
484217
470301
456587
443076
429768
416663
403762
391067
378578
366300
354239
342406
330820
319516
308550
298005
287995
270910
267807
265440
263393
261495
259689
257948
256255
254600
252974
251373
249792
248229
246680
245144
243618
242102
240593
239091
237595
236106
234624
233148
231677
230213
228753
227299
225850
224406
222968
221536
220110
218691
217278
215873
214474
213082
211696
210316
208943
207574
206210
204851
203496
202144
200797
199454
198115
196780
195450
194123
192801
191481
190165
188852
187544
186240
184941
183647
182356
181070
179788
178509
177233
175962
174696
173435
172180
170930
169687
168448
167214
165984
164758
163536
162319
161106
159898
158694
157497
156306
155122
153943
152771
151604
150441
149283
148128
146977
145830
144685
143544
142405
141269
140135
139004
137875
136749
135626
134507
133393
132284
131181
130083
128993
127909
126832
125762
124698
123641
122590
121544
120504
119469
118439
117414
116393
115377
114365
113358
112356
111359
110366
109378
108394
107415
106438
105467
104497
103532
102568
101608
100649
99693.3
98740.1
97790.3
96843.7
95901.2
94962.6
94029
93099.8
92176.1
91257.1
90343.7
89435.1
88531.7
87633.1
86739.4
85849.7
84964.3
84082.5
83204.5
82329.7
81458.5
80590.7
79726.4
78865.5
78009
77156.4
76308.5
75465.1
74627.8
73795.2
72970
72149.9
71337.6
70530.4
69731.9
68939.2
68155.1
67376.2
66606.6
65840.3
65084.6
64329.1
63586.7
62840
62109
61371
60648.3
59919.7
59204.3
58483.8
57772.7
57057.2
56346.5
55631.7
54918.2
54196.8
53474.1
52738
51994.8
51231.7
50451.7
49641.1
48798.1
47903.2
46938.2
45897.9
44641.3
273120
269814
267118
264797
262696
260733
258865
257066
255320
253617
251949
250309
248693
247097
245519
243957
242406
240868
239339
237819
236309
234806
233312
231825
230346
228874
227407
225948
224495
223048
221608
220175
218749
217331
215919
214515
213118
211728
210343
208965
207593
206226
204863
203505
202151
200802
199457
198116
196780
195448
194120
192796
191476
190160
188847
187539
186235
184936
183641
182351
181065
179783
178505
177230
175960
174694
173434
172179
170929
169685
168446
167212
165982
164756
163535
162317
161105
159897
158694
157497
156307
155123
153945
152773
151606
150443
149285
148130
146979
145832
144687
143546
142406
141270
140135
139004
137875
136749
135627
134510
133397
132289
131187
130092
129002
127919
126844
125774
124711
123654
122603
121558
120518
119482
118452
117426
116405
115388
114377
113370
112368
111372
110380
109393
108410
107432
106456
105485
104517
103552
102588
101628
100670
99714.1
98761.1
97811.5
96865.3
95923.4
94985.7
94053
93125
92202.4
91284.9
90372.5
89465
88562.3
87664.6
86771.2
85881.9
84996.3
84114.8
83236.6
82361.6
81489.9
80621.3
79755.8
78893.6
78035.4
77180.7
76330.5
75484.8
74644.7
73809.7
72981.1
72157.9
71341.4
70530.3
69726.7
68928.7
68138.2
67352.4
66575
65800.2
65035.4
64269.7
63516.7
62759.3
62014.8
61265.4
60526.8
59784.7
59050.6
58314.4
57581.9
56848.3
56114.5
55377.4
54638.2
53891.7
53138.2
52373
51591.7
50791.5
49962.7
49102.7
48188.8
47234.8
46142
45006.7
43710
274653
271373
268552
266066
263815
261722
259742
257847
256019
254243
252510
250813
249146
247506
245887
244288
242706
241137
239582
238039
236507
234985
233473
231971
230477
228992
227514
226044
224581
223126
221679
220239
218807
217382
215965
214556
213154
211759
210370
208988
207611
206240
204874
203513
202157
200806
199459
198116
196778
195445
194116
192791
191470
190154
188841
187533
186229
184930
183635
182345
181060
179778
178500
177227
175958
174693
173433
172178
170929
169685
168446
167211
165981
164755
163534
162317
161104
159897
158695
157498
156308
155125
153948
152776
151609
150446
149288
148133
146982
145834
144690
143548
142408
141271
140137
139005
137877
136752
135632
134516
133404
132298
131198
130104
129016
127935
126860
125791
124729
123673
122622
121576
120535
119499
118468
117441
116420
115404
114392
113387
112386
111390
110399
109413
108431
107453
106479
105508
104541
103575
102613
101652
100694
99737.6
98784.6
97835
96889.1
95947.6
95010.6
94078.9
93152.2
92230.9
91314.8
90403.8
89497.4
88595.8
87698.8
86805.7
85916.6
85031.1
84149.6
83271.3
82395.9
81523.7
80654.1
79787.2
78923.4
78063.1
77206.1
76353.3
75505.3
74662.5
73824.9
72993.1
72167
71346.4
70531.6
69723.3
68919.8
68122.9
67329.9
66544.7
65760.7
64986.4
64210.9
63445.6
62678.6
61919.8
61160.1
60405.1
59650.8
58897.6
58146.5
57393.2
56641.3
55884.9
55127.5
54361.5
53593.7
52809.1
52018.9
51200.5
50371.3
49493.2
48604.8
47619.3
46637.9
45479.7
44298.7
43037.4
275821
272627
269771
267194
264838
262643
260569
258591
256686
254843
253051
251300
249586
247902
246245
244611
242996
241400
239819
238253
236700
235160
233631
232113
230605
229107
227618
226138
224666
223203
221748
220302
218863
217433
216011
214596
213189
211789
210396
209009
207629
206254
204885
203522
202163
200809
199460
198116
196777
195442
194112
192786
191465
190148
188835
187527
186223
184924
183630
182340
181054
179773
178497
177224
175956
174692
173433
172179
170930
169686
168447
167212
165981
164755
163534
162317
161104
159897
158695
157499
156310
155127
153950
152778
151612
150449
149291
148137
146986
145838
144693
143551
142411
141274
140140
139009
137882
136758
135639
134525
133416
132311
131213
130120
129034
127954
126880
125812
124751
123694
122643
121596
120555
119518
118486
117459
116438
115422
114411
113406
112406
111411
110420
109435
108454
107477
106504
105534
104567
103601
102638
101677
100718
99762
98808.8
97858.9
96913.3
95971.9
95035.8
94104.7
93179.3
92259.1
91344.5
90434.8
89529.8
88629.3
87733.4
86840.7
85952.1
85066.8
84185.7
83307
82431.5
81558.6
80688
79819.3
78953.6
78090.6
77230.8
76375.3
75525
74679.3
73839.2
73004.4
72175.5
71351.1
70532.9
69719.8
68911.3
68107.8
67308
66514.5
65722
64936.8
64152.7
63374.7
62598.7
61825.8
61055.6
60285.1
59518.2
58747.5
57980.6
57207.6
56438.3
55658.7
54884.1
54090.7
53305
52488.3
51680.4
50821.5
49977.3
49047.3
48143.8
47105.1
46090.6
44935
43751.5
42535.1
276759
273654
270806
268187
265761
263490
261340
259289
257319
255416
253568
251768
250009
248284
246590
244923
243278
241654
240049
238461
236888
235330
233784
232252
230730
229220
227720
226231
224750
223279
221817
220364
218919
217483
216056
214636
213224
211819
210422
209031
207647
206269
204897
203530
202169
200813
199462
198117
196776
195440
194108
192782
191460
190143
188830
187522
186218
184919
183625
182336
181051
179770
178494
177222
175955
174692
173434
172181
170932
169688
168449
167213
165983
164756
163534
162317
161104
159897
158696
157501
156312
155129
153952
152781
151615
150453
149295
148141
146990
145843
144698
143556
142416
141279
140146
139016
137890
136767
135650
134537
133430
132328
131232
130141
129056
127977
126904
125836
124775
123718
122666
121619
120577
119539
118507
117479
116458
115441
114431
113426
112427
111432
110443
109458
108478
107501
106529
105559
104592
103626
102663
101701
100742
99785
98831.7
97881.5
96936.1
95994.8
95059.6
94128.8
93204.6
92285.2
91372.1
90463.2
89560.1
88660.6
87766.2
86874.3
85986.7
85101.6
84221.1
83341.6
82466.3
81592.3
80720.9
79850
78982.6
78116.2
77254
76395.4
75542.7
74693.6
73851.5
73013.5
72182.1
71354.4
70533
69715.2
68902
68092
67285.8
66483.3
65683.6
64887.4
64095.1
63305.1
62519.7
61733.8
60952.7
60167.5
59387.8
58599.8
57818.9
57025
56242.1
55437.3
54649
53827.7
53028.4
52178.8
51357.2
50462.2
49600.5
48637
47705.2
46655.2
45607.4
44484.3
43323.6
42141.6
277549
274519
271693
269056
266588
264260
262050
259940
257912
255955
254059
252213
250412
248650
246922
245223
243550
241900
240272
238662
237070
235495
233934
232387
230853
229331
227821
226322
224833
223354
221885
220425
218975
217533
216100
214676
213259
211850
210448
209054
207666
206284
204909
203540
202177
200819
199466
198119
196776
195439
194107
192780
191457
190140
188827
187519
186215
184917
183623
182334
181049
179769
178494
177223
175956
174694
173437
172184
170935
169691
168451
167216
165984
164757
163535
162317
161104
159897
158696
157501
156313
155130
153954
152783
151617
150456
149299
148145
146995
145849
144705
143563
142424
141288
140155
139025
137900
136779
135664
134553
133448
132347
131253
130163
129079
128001
126929
125861
124800
123742
122690
121642
120599
119561
118528
117500
116478
115461
114451
113446
112447
111453
110464
109479
108499
107523
106551
105581
104614
103648
102684
101722
100762
99804.4
98850.8
97900.4
96955.1
96014
95079
94148.6
93225.4
92307
91395.3
90487.7
89586.4
88687.8
87794.9
86903.8
86017.1
85132.5
84252.5
83372.1
82496.9
81621.3
80749.2
79876.3
79007.7
78137.9
77273.9
76412.1
75557.1
74704.5
73860.4
73019.3
72186
71354.6
70530.7
69708.5
68891
68073.9
67262.4
66450.3
65644.3
64837.4
64037.6
63235.6
62442
61642.1
60851.9
60050.9
59260.2
58454.1
57661.4
56847.3
56051.3
55225.7
54422
53579.8
52762.4
51892.1
51047.5
50134.1
49244.2
48270.5
47309.4
46270
45210.6
44114
42976.3
41817.3
278230
275262
272460
269817
267321
264954
262698
260539
258464
256461
254520
252634
250795
248998
247238
245509
243810
242136
240486
238857
237246
235654
234078
232518
230972
229439
227919
226410
224914
223427
221952
220486
219030
217583
216145
214715
213294
211881
210476
209077
207686
206302
204924
203552
202186
200826
199472
198123
196779
195441
194108
192780
191457
190139
188826
187518
186215
184917
183623
182334
181050
179770
178495
177225
175959
174697
173440
172187
170938
169694
168454
167217
165985
164757
163534
162316
161103
159896
158695
157501
156313
155131
153956
152785
151620
150459
149303
148150
147002
145856
144713
143572
142434
141298
140166
139037
137912
136793
135679
134570
133466
132368
131275
130186
129103
128025
126953
125886
124824
123766
122713
121664
120620
119581
118548
117519
116497
115480
114469
113464
112465
111470
110481
109496
108516
107540
106568
105598
104631
103664
102700
101737
100776
99818
98864
97913.4
96967.9
96027
95092
94162.5
93240.1
92323
91412.7
90506.9
89607.1
88709.4
87817.3
86926.6
86040.7
85156.2
84276.4
83395.1
82520
81643.5
80770
79896
79026.1
78153.6
77287.7
76423.4
75565.8
74710.4
73863.9
73020.5
72184.9
71350.6
70523.9
69697.7
68876.1
68052.9
67235.1
66415.5
65601.9
64786
63977.6
63165.8
62362.7
61551.6
60750.4
59937.1
59133.1
58313.9
57505.5
56678.5
55864.1
55026.5
54202.9
53349.4
52509.7
51629.8
50761.5
49839.9
48927.6
47952.8
46975.1
45949.1
44890.2
43808
42684.4
41541.1
278824
275905
273127
270484
267972
265576
263285
261088
258972
256929
254950
253028
251155
249326
247536
245781
244057
242361
240690
239042
237415
235807
234218
232644
231086
229543
228013
226497
224992
223499
222016
220545
219083
217631
216188
214755
213329
211912
210503
209101
207707
206320
204939
203565
202197
200835
199479
198129
196784
195445
194112
192783
191460
190142
188828
187520
186217
184919
183625
182336
181052
179773
178498
177227
175961
174700
173442
172189
170940
169695
168454
167218
165985
164757
163533
162315
161102
159895
158695
157501
156313
155132
153957
152787
151622
150462
149306
148155
147008
145863
144722
143582
142445
141309
140177
139049
137925
136806
135693
134586
133484
132387
131295
130207
129125
128048
126976
125908
124845
123786
122732
121682
120638
119598
118564
117535
116512
115495
114484
113477
112477
111482
110492
109506
108526
107549
106577
105606
104639
103672
102707
101743
100783
99823.7
98869.2
97918.4
96973.1
96032.6
95098.1
94169.7
93248.3
92332.6
91423.5
90519.6
89620.3
88724.2
87832.3
86941.8
86055.9
85171.8
84291.9
83409.3
82533.9
81656.9
80781.9
79907.8
79036.2
78162.6
77294.7
76428.4
75567.7
74710.6
73861
73016.4
72177.7
71341.8
70512.1
69682.7
68856.4
68028.7
67204.6
66379.2
65557.2
64733.8
63916.4
63096.5
62282.9
61463.6
60649.9
59827.5
59009.6
58180.5
57355.9
56519.3
55688.2
54841.8
54000.8
53139.7
52282.6
51395.4
50510.4
49583.8
48657.2
47686.4
46698.9
45682.4
44624.8
43548.2
42434.1
41303.3
279345
276466
273709
271071
268548
266132
263814
261585
259437
257360
255348
253394
251490
249633
247817
246037
244290
242573
240883
239218
237575
235953
234350
232765
231196
229643
228104
226579
225067
223567
222079
220601
219135
217678
216231
214793
213364
211943
210531
209126
207729
206339
204956
203580
202210
200846
199489
198137
196791
195451
194117
192787
191464
190145
188831
187523
186220
184921
183627
182339
181054
179774
178499
177229
175962
174700
173443
172189
170940
169694
168453
167216
165983
164754
163531
162312
161100
159893
158693
157499
156311
155131
153956
152787
151623
150464
149310
148159
147013
145871
144730
143591
142455
141320
140188
139060
137937
136818
135706
134599
133498
132402
131311
130224
129143
128065
126994
125925
124862
123802
122747
121696
120651
119610
118575
117546
116522
115504
114492
113485
112484
111486
110495
109508
108527
107549
106576
105605
104637
103670
102704
101740
100780
99820.5
98866.1
97915.6
96970.9
96031.2
95097.7
94170.3
93250.1
92335.4
91427.7
90525
89626.3
88731.1
87839.5
86949.1
86062.6
85178.9
84297.9
83415
82539.5
81661.2
80784.9
79911.8
79038.1
78164.7
77294.2
76428.6
75563.2
74706.6
73851.7
73007.8
72164.5
71328.6
70495.5
69664.7
68832.5
68001.6
67169.8
66340.1
65510.3
64681.1
63854.5
63029.6
62204.4
61380.6
60553.3
59725.2
58893.6
58056.5
57218.1
56372.7
55528.8
54676
53821.3
52955.1
52084.8
51193.5
50295.7
49367.3
48429.9
47464.2
46468.4
45455.6
44399.3
43325.1
42219.7
41099.9
279804
276956
274219
271586
269057
266627
264288
262034
259858
257753
255712
253730
251800
249917
248077
246275
244508
242772
241064
239383
237725
236090
234474
232878
231299
229737
228190
226657
225138
223632
222138
220655
219184
217722
216271
214829
213397
211973
210558
209150
207750
206358
204973
203595
202223
200858
199499
198146
196799
195458
194122
192792
191468
190148
188834
187526
186222
184923
183629
182339
181055
179775
178499
177228
175961
174699
173440
172186
170936
169691
168449
167211
165978
164750
163526
162308
161096
159889
158689
157495
156308
155127
153953
152785
151622
150464
149311
148162
147018
145877
144738
143599
142463
141328
140197
139068
137945
136827
135715
134609
133508
132413
131322
130236
129154
128077
127005
125936
124871
123810
122754
121703
120656
119615
118579
117549
116525
115506
114493
113485
112482
111483
110490
109501
108518
107539
106566
105594
104626
103658
102692
101728
100768
99809.3
98855.8
97906.4
96963
96024.8
95092.6
94166.3
93247
92332.9
91425.7
90523.2
89624.9
88730.3
87838.9
86947.6
86061.3
85178.1
84294.4
83413.6
82536.1
81658.1
80780.7
79909.5
79032.7
78160.9
77287.3
76424.8
75552.6
74699.5
73836.8
72996.8
72145.9
71313.5
70473.8
69644.1
68803.8
67972.2
67132
66299
65461.3
64628.8
63793.3
62967.1
62129.7
61304.9
60464.8
59632.4
58789
57943.9
57096.4
56244.4
55390.1
54532.1
53665.8
52797.8
51915.4
51023.2
50112.3
49184.5
48236.2
47272.6
46270.9
45257.7
44204.4
43133.6
42037.5
40928.1
280207
277385
274664
272037
269505
267064
264709
262435
260236
258107
256043
254036
252083
250178
248316
246494
244708
242955
241232
239535
237865
236217
234590
232984
231395
229824
228270
226730
225205
223693
222193
220706
219230
217764
216309
214864
213428
212002
210583
209173
207771
206377
204990
203610
202236
200869
199509
198154
196806
195464
194127
192796
191471
190151
188836
187527
186222
184923
183628
182338
181053
179773
178496
177224
175957
174694
173435
172181
170930
169684
168442
167205
165971
164743
163520
162302
161090
159884
158684
157490
156303
155122
153948
152780
151619
150462
149311
148164
147021
145881
144742
143604
142467
141333
140201
139072
137949
136831
135719
134612
133512
132417
131327
130240
129159
128081
127007
125938
124872
123811
122754
121702
120654
119612
118576
117545
116520
115501
114487
113478
112473
111473
110477
109486
108501
107520
106546
105573
104604
103637
102672
101708
100749
99791.8
98840.2
97892.5
96951
96014.5
95083.9
94158.7
93239.8
92326
91418.5
90515.2
89617.5
88721.7
87830.3
86938.5
86051.7
85168.8
84283.1
83404.8
82524.5
81648.6
80770.8
79900.9
79021.7
78152.3
77276
76414.9
75539.4
74687.1
73818.1
72981.1
72121.4
71291.9
70445.8
69619.5
68769.4
67938.6
67090.2
66257.4
65412.7
64577.9
63734.7
62908.9
62061.2
61235.3
60385.7
59548.4
58697.3
57843.7
56989.2
56132.3
55269
54412.5
53536.2
52668
51769.3
50878.4
49955.1
49027.7
48069.3
47103.6
46099.3
45086.1
44036.7
42971.2
41884.6
40785
280560
277759
275051
272430
269896
267448
265080
262790
260573
258424
256339
254312
252338
250413
248533
246694
244891
243122
241385
239675
237992
236333
234696
233081
231484
229905
228343
226797
225266
223749
222245
220753
219273
217803
216345
214897
213458
212028
210608
209195
207791
206395
205006
203624
202248
200880
199518
198162
196813
195469
194131
192799
191473
190152
188837
187526
186221
184921
183626
182335
181049
179768
178491
177219
175951
174687
173428
172173
170923
169676
168434
167197
165964
164736
163513
162296
161084
159878
158677
157483
156296
155115
153941
152774
151613
150458
149308
148163
147021
145881
144742
143603
142467
141332
140200
139071
137948
136830
135717
134610
133510
132414
131324
130237
129155
128076
127002
125932
124866
123804
122747
121694
120647
119603
118567
117535
116510
115489
114474
113464
112458
111455
110457
109464
108477
107495
106518
105545
104576
103608
102644
101682
100724
99769.3
98820
97874.2
96935
95999.6
95070.5
94145.9
93227.7
92313.9
91406.4
90501.5
89605
88707.3
87815.4
86921.9
86036.1
85151.7
84265.2
83388.8
82508
81634.1
80756.9
79887.8
79009
78139
77262.9
76401.2
75524.3
74669.3
73799.4
72960
72096.5
71264.2
70415.1
69589.5
68734.8
67902.7
67048.7
66213.3
65363.1
64527.4
63679.8
62852.3
61998.3
61169.4
60313.2
59473
58615.1
57757.3
56896.6
56036
55168.8
54308.1
53421.9
52553
51644.4
50752.1
49820.5
48889.2
47923.9
46956.4
45951.5
44940.1
43895.1
42835.8
41758.8
40668.5
280867
278083
275386
272770
270236
267781
265403
263100
260868
258703
256601
254557
252566
250624
248728
246873
245055
243273
241522
239801
238107
236438
234793
233168
231564
229979
228410
226859
225322
223800
222291
220796
219312
217839
216378
214927
213485
212053
210630
209216
207809
206411
205020
203636
202259
200889
199526
198168
196817
195473
194134
192801
191473
190151
188835
187524
186218
184917
183621
182330
181043
179761
178484
177211
175943
174679
173420
172165
170914
169668
168426
167189
165956
164729
163507
162290
161078
159872
158671
157477
156289
155108
153934
152766
151606
150451
149303
148158
147016
145875
144737
143597
142461
141325
140193
139064
137941
136822
135710
134602
133502
132405
131315
130227
129145
128065
126990
125919
124854
123792
122735
121681
120634
119589
118552
117519
116494
115472
114456
113444
112437
111432
110433
109437
108449
107465
106487
105512
104543
103575
102613
101652
100697
99743.5
98796.5
97852.3
96914.8
95980.1
95052
94127.9
93210
92296.1
91389.2
90483.5
89587.7
88687.7
87795.1
86899.5
86014.3
85128.4
84245.1
83367.3
82488.4
81613.4
80737.7
79869.3
78993.5
78120.5
77250.4
76384.5
75508.2
74646.8
73779.1
72931.4
72069
71230
70382.2
69553.7
68695.7
67868.7
67008.3
66170.7
65314.9
64474.6
63625.2
62793.4
61937.9
61106.8
60246.8
59405.4
58542.5
57681.4
56816.5
55952.9
55080.9
54211
53326.2
52450.3
51536.4
50638.2
49702.9
48765.9
47799.2
46830.7
45826.1
44818.2
43777.5
42725.4
41657.3
40575.5
281131
278361
275672
273060
270526
268066
265681
263368
261124
258946
256830
254771
252765
250809
248899
247030
245200
243406
241644
239913
238209
236532
234878
233246
231636
230044
228470
226914
225372
223846
222334
220834
219347
217872
216407
214953
213510
212075
210650
209234
207825
206425
205032
203647
202268
200896
199531
198173
196820
195474
194134
192800
191471
190148
188831
187519
186213
184911
183614
182323
181036
179753
178476
177203
175935
174671
173411
172156
170906
169660
168418
167181
165949
164722
163500
162284
161072
159866
158665
157470
156281
155100
153925
152757
151596
150442
149294
148149
147006
145865
144725
143585
142449
141313
140181
139052
137929
136810
135697
134589
133489
132392
131301
130213
129130
128048
126974
125902
124837
123774
122718
121664
120616
119572
118534
117500
116474
115451
114435
113421
112412
111406
110406
109408
108419
107433
106454
105478
104509
103542
102580
101621
100667
99716
98770.8
97828
96891.5
95957.4
95030.1
94105.8
93188.6
92274.4
91368.2
90462.2
89566.2
88665.2
87771.3
86873.7
85989.6
85098.8
84220.4
83343.4
82465.9
81589.3
80715.9
79845.6
78974
78096.8
77235.9
76364.2
75490.7
74626.4
73760.3
72897.5
72039.4
71192.1
70343
69513.4
68657.8
67824.4
66965.3
66126.7
65265.6
64418.4
63571
62731.9
61879.4
61047.1
60183.9
59343.1
58478
57614.2
56748.4
55880.2
55006.3
54129.2
53241.1
52352.4
51442.6
50535.3
49601
48658.4
47694.4
46724.8
45722.2
44717.7
43681.8
42637.3
41576.5
40502.3
281355
278595
275914
273304
270769
268306
265915
263594
261341
259152
257025
254954
252936
250968
249046
247166
245325
243521
241750
240009
238298
236613
234952
233314
231698
230101
228523
226961
225416
223886
222370
220868
219378
217900
216433
214977
213531
212094
210667
209249
207839
206436
205042
203655
202275
200902
199535
198175
196821
195474
194132
192797
191468
190144
188826
187513
186206
184904
183607
182315
181028
179745
178468
177195
175926
174662
173403
172148
170897
169651
168410
167174
165942
164715
163494
162278
161066
159859
158658
157462
156273
155091
153916
152747
151586
150431
149281
148135
146991
145849
144709
143570
142433
141297
140164
139036
137913
136793
135680
134572
133472
132375
131285
130196
129112
128030
126955
125883
124817
123755
122698
121644
120596
119551
118513
117479
116452
115429
114411
113396
112386
111378
110377
109379
108388
107402
106422
105446
104476
103509
102548
101591
100638
99688.2
98744.1
97802.9
96867.1
95934.1
95007.1
94083
93166
92250.9
91344.9
90438.4
89541.2
88639.2
87746.2
86849.4
85960.9
85070
84194.6
83314.1
82440.1
81562.9
80689.2
79819.3
78953.3
78074.7
77215.4
76336.7
75474.6
74600.3
73730.8
72862.7
72012.2
71158.8
70309.2
69470.1
68615.2
67772.4
66920.7
66074
65215.6
64363.1
63519.8
62672.7
61825
60985.3
60127.6
59283.7
58420.3
57556.3
56693
55819.9
54940.4
54055.4
53166.1
52268.4
51360.2
50444.9
49517.3
48569.3
47610
46637.9
45638.5
44635.7
43606.5
42568.1
41512.6
40445.7
281541
278790
276111
273503
270968
268502
266107
263781
261521
259324
257187
255106
253079
251101
249169
247280
245430
243617
241838
240091
238372
236681
235015
233372
231750
230149
228567
227002
225453
223920
222401
220896
219404
217923
216454
214996
213548
212110
210681
209261
207849
206445
205049
203661
202279
200905
199537
198176
196821
195472
194130
192794
191463
190139
188820
187507
186200
184898
183600
182308
181021
179738
178460
177187
175918
174654
173395
172140
170890
169644
168403
167166
165935
164709
163488
162272
161060
159853
158651
157456
156266
155083
153907
152737
151574
150418
149266
148119
146974
145831
144689
143551
142413
141278
140146
139018
137894
136775
135662
134555
133455
132358
131267
130178
129094
128013
126936
125864
124797
123735
122677
121623
120574
119530
118491
117458
116430
115408
114388
113373
112361
111353
110350
109352
108361
107375
106394
105418
104447
103481
102520
101563
100610
99662.2
98717.7
97778.2
96842.4
95910.8
94983.4
94060
93141.9
92227.1
91319.5
90413
89513.8
88611.9
87718.2
86822
85936.3
85046.4
84166.8
83286.7
82413.3
81534.8
80665.3
79794.4
78928
78051.4
77193.7
76311
75446.7
74562.7
73703.8
72833.3
71982.8
71126.8
70273.2
69418.9
68570.6
67724.5
66874.5
66017.4
65169.4
64316.4
63470.9
62621
61777.4
60928.7
60081.3
59227.8
58370
57506.3
56643.6
55764.3
54882.8
53994.8
53099.5
52197.5
51291.7
50372.8
49448.4
48500.7
47544.5
46570.1
45575.1
44572
43549.4
42514
41463.3
40403.1
281689
278944
276267
273660
271124
268657
266259
263929
261663
259460
257316
255228
253193
251208
249268
247371
245515
243695
241910
240156
238432
236736
235065
233418
231793
230188
228602
227034
225483
223947
222426
220919
219424
217942
216471
215011
213561
212121
210691
209270
207856
206452
205054
203665
202282
200906
199538
198175
196819
195470
194127
192790
191460
190135
188816
187502
186194
184892
183595
182302
181015
179732
178454
177180
175912
174647
173388
172133
170883
169637
168396
167160
165929
164703
163482
162266
161055
159848
158645
157449
156259
155075
153898
152728
151563
150405
149251
148103
146956
145812
144670
143531
142393
141259
140127
139000
137876
136758
135645
134539
133438
132342
131250
130162
129077
127996
126918
125846
124778
123716
122657
121604
120554
119510
118470
117438
116409
115388
114368
113353
112340
111333
110329
109331
108339
107354
106372
105396
104424
103459
102496
101540
100586
99638.7
98693.5
97754.9
96818.7
95888.2
94959.6
94036.8
93116.8
92202.6
91292.6
90386.5
89484.7
88585.4
87690.4
86798.9
85909.7
85020.8
84141.4
83260
82384.1
81509.8
80641.5
79767
78901.3
78027.6
77164.3
76279.1
75416.3
74535.9
73680.8
72798.3
71952
71085.8
70230.8
69381.5
68533.5
67676.2
66827.6
65969
65125.8
64271.6
63429.1
62578.6
61736
60882.9
60040.8
59178.6
58327
57461.9
56603.1
55715.2
54835.5
53941.6
53047.7
52145
51237.6
50318
49395
48451.6
47494.1
46520.9
45528.7
44525.5
43506.6
42473
41426.9
40371.3
281800
279058
276383
273776
271239
268772
266372
264039
261770
259562
257413
255320
253279
251288
249342
247440
245578
243753
241963
240206
238478
236778
235103
233453
231825
230217
228629
227059
225505
223967
222444
220935
219439
217955
216483
215022
213571
212130
210698
209276
207862
206456
205058
203667
202284
200908
199538
198175
196819
195469
194125
192788
191457
190132
188813
187499
186191
184888
183590
182298
181010
179727
178449
177175
175906
174642
173382
172127
170877
169631
168390
167154
165923
164698
163477
162261
161049
159842
158640
157444
156253
155070
153892
152720
151554
150394
149238
148088
146940
145796
144653
143516
142377
141244
140111
138985
137861
136744
135630
134526
133423
132329
131235
130149
129062
127983
126904
125833
124763
123701
122641
121589
120537
119495
118454
117422
116393
115372
114352
113338
112325
111319
110314
109317
108324
107339
106356
105381
104408
103443
102479
101522
100566
99619.2
98672.7
97734.9
96797.7
95867.9
94938
94015.6
93094.2
92180
91267.3
90361.9
89457.8
88562.3
87664.6
86776.2
85884.9
84999.4
84115.7
83236.2
82358.7
81485.9
80614
79741.5
78875.5
78001.6
77133.2
76252.3
75387.7
74506.4
73653
72767.8
71921.5
71047
70198.5
69343.3
68491.8
67635.2
66789.5
65931.1
65089
64235
63395
62542.7
61701.7
60846.7
60004.4
59141
58293
57424.7
56564.8
55672.9
54799.2
53900.2
53007.7
52105.1
51197.9
50284.9
49358.2
48419.2
47457
46488.8
45496.4
44494
43475.9
42444.4
41401.1
40348.3
281871
279132
276459
273853
271317
268848
266448
264112
261840
259630
257477
255381
253336
251341
249392
247486
245620
243792
241999
240239
238508
236805
235129
233476
231846
230236