/*--------------------------------*- C++ -*----------------------------------*\
| =========                 |                                                 |
| \\      /  F ield         | OpenFOAM: The Open Source CFD Toolbox           |
|  \\    /   O peration     | Version:  2.4.0                                 |
|   \\  /    A nd           | Web:      www.OpenFOAM.org                      |
|    \\/     M anipulation  |                                                 |
\*---------------------------------------------------------------------------*/
FoamFile
{
    version     2.0;
    format      ascii;
    class       volSymmTensorField;
    location    "1.23";
    object      UPrime2Mean;
}
// * * * * * * * * * * * * * * * * * * * * * * * * * * * * * * * * * * * * * //

dimensions      [0 2 -2 0 0 0 0];

internalField   nonuniform List<symmTensor> 
8800
(
(0.00138283 7.9256e-05 0 0.000156072 0 0)
(0.0261571 -0.00101891 0 5.79065e-05 0 0)
(0.0512695 -8.98907e-05 0 1.38417e-05 0 0)
(0.0646209 0.000147566 0 5.79938e-06 0 0)
(0.0732942 0.000106487 0 4.4111e-06 0 0)
(0.0819544 5.92214e-05 0 5.10401e-06 0 0)
(0.0861388 2.37079e-05 0 5.9812e-06 0 0)
(0.0908976 -3.49283e-05 0 7.69249e-06 0 0)
(0.0935877 -4.72457e-05 0 8.34778e-06 0 0)
(0.0963687 -8.9866e-05 0 1.01811e-05 0 0)
(0.0987113 -8.93632e-05 0 1.05518e-05 0 0)
(0.100669 -0.000138808 0 1.27343e-05 0 0)
(0.102943 -0.000139696 0 1.27838e-05 0 0)
(0.105362 -0.000190312 0 1.49551e-05 0 0)
(0.108426 -0.000259675 0 1.54482e-05 0 0)
(0.112104 -0.00019175 0 1.79232e-05 0 0)
(0.12184 -0.000948118 0 2.59236e-05 0 0)
(0.123077 0.00137165 0 7.75751e-05 0 0)
(0.196711 -0.0138088 0 0.00142055 0 0)
(0.207714 0.0235001 0 0.00462867 0 0)
(0.00791291 0.00224311 0 0.000942611 0 0)
(0.0016154 -0.000929538 0 0.001243 0 0)
(0.0124856 -0.0016221 0 0.000517375 0 0)
(0.0213542 -0.00177244 0 0.000204481 0 0)
(0.0317348 -0.00161278 0 0.000119458 0 0)
(0.0481277 -0.00151506 0 9.66468e-05 0 0)
(0.0605206 -0.00166159 0 0.000101993 0 0)
(0.0740669 -0.00125852 0 7.65555e-05 0 0)
(0.0892528 -0.00160347 0 9.24865e-05 0 0)
(0.0948702 -0.00128462 0 7.79523e-05 0 0)
(0.114045 -0.00167548 0 9.83691e-05 0 0)
(0.113025 -0.00156478 0 9.61246e-05 0 0)
(0.135567 -0.00204634 0 0.000126148 0 0)
(0.131265 -0.0020362 0 0.000128064 0 0)
(0.158046 -0.00271534 0 0.000181035 0 0)
(0.151531 -0.00347079 0 0.00022032 0 0)
(0.191997 -0.00281324 0 0.000294584 0 0)
(0.184478 -0.00969412 0 0.000939316 0 0)
(0.281789 -0.00490849 0 0.00070989 0 0)
(0.30752 -0.0470997 0 0.0163062 0 0)
(0.0156649 0.0012162 0 0.000584039 0 0)
(0.0127447 0.000348055 0 0.00140594 0 0)
(0.033329 0.000235565 0 0.00089051 0 0)
(0.0360078 -0.000854886 0 0.000496569 0 0)
(0.0506467 -0.000993303 0 0.000393045 0 0)
(0.0588808 -0.00170937 0 0.000379671 0 0)
(0.0769669 -0.00309635 0 0.00041119 0 0)
(0.0833945 -0.00229722 0 0.00029775 0 0)
(0.115607 -0.00444567 0 0.000355734 0 0)
(0.109167 -0.00310834 0 0.000247059 0 0)
(0.15866 -0.00537143 0 0.000331977 0 0)
(0.135148 -0.00408928 0 0.000279095 0 0)
(0.202482 -0.00688314 0 0.00044208 0 0)
(0.15944 -0.00509491 0 0.00039563 0 0)
(0.251141 -0.00963218 0 0.000736308 0 0)
(0.178434 -0.00623929 0 0.00066103 0 0)
(0.313928 -0.0135237 0 0.00131225 0 0)
(0.200607 -0.00867865 0 0.00153127 0 0)
(0.412104 -0.0224055 0 0.0038753 0 0)
(0.266703 -0.0358215 0 0.0185187 0 0)
(0.0654937 0.000113712 0 0.000405903 0 0)
(0.0723826 -0.000126075 0 0.00106393 0 0)
(0.115741 -0.00063425 0 0.000852935 0 0)
(0.118498 -0.00166892 0 0.000549228 0 0)
(0.150815 -0.00112324 0 0.000520578 0 0)
(0.151507 -0.00220226 0 0.000588474 0 0)
(0.188955 -0.00421963 0 0.000727113 0 0)
(0.178738 -0.00246156 0 0.000585871 0 0)
(0.236178 -0.00765536 0 0.000789391 0 0)
(0.203067 -0.00439969 0 0.000539449 0 0)
(0.289771 -0.010322 0 0.0007746 0 0)
(0.226508 -0.00687172 0 0.000616267 0 0)
(0.347507 -0.0136889 0 0.00100978 0 0)
(0.248358 -0.0090787 0 0.000847152 0 0)
(0.411829 -0.0190727 0 0.00163104 0 0)
(0.262464 -0.0107678 0 0.00133109 0 0)
(0.489037 -0.0256665 0 0.00260777 0 0)
(0.266703 -0.0127952 0 0.00307358 0 0)
(0.596077 -0.0344337 0 0.00583705 0 0)
(0.270407 -0.0266231 0 0.0210489 0 0)
(0.254673 -0.00109073 0 0.000407902 0 0)
(0.238857 -0.00106943 0 0.000915579 0 0)
(0.281325 -0.0043784 0 0.000980246 0 0)
(0.256129 -0.00468811 0 0.000751763 0 0)
(0.295028 -0.00466719 0 0.000735195 0 0)
(0.270394 -0.00604585 0 0.000817031 0 0)
(0.318136 -0.0081801 0 0.00110554 0 0)
(0.283718 -0.00554427 0 0.000897347 0 0)
(0.349588 -0.0127496 0 0.00140325 0 0)
(0.297695 -0.00754916 0 0.000988472 0 0)
(0.384231 -0.0163516 0 0.00152584 0 0)
(0.312841 -0.0107592 0 0.00115661 0 0)
(0.419181 -0.0208572 0 0.00195155 0 0)
(0.329175 -0.0136705 0 0.00148236 0 0)
(0.45505 -0.0278724 0 0.0029099 0 0)
(0.342496 -0.0161964 0 0.002108 0 0)
(0.496036 -0.036323 0 0.00444482 0 0)
(0.347749 -0.0184785 0 0.00439939 0 0)
(0.551925 -0.0453968 0 0.00895335 0 0)
(0.335461 -0.0211632 0 0.0264085 0 0)
(0.310747 -0.00625656 0 0.00129624 0 0)
(0.252681 -0.00366558 0 0.00181972 0 0)
(0.252409 -0.00990838 0 0.00227004 0 0)
(0.208011 -0.00663408 0 0.00154624 0 0)
(0.224641 -0.00949326 0 0.00197442 0 0)
(0.199016 -0.00846312 0 0.00173902 0 0)
(0.21177 -0.0110673 0 0.0023938 0 0)
(0.193354 -0.00805186 0 0.00180115 0 0)
(0.206299 -0.0137385 0 0.00291989 0 0)
(0.194652 -0.00975398 0 0.00198545 0 0)
(0.204454 -0.0159591 0 0.00329385 0 0)
(0.201788 -0.0125776 0 0.00232487 0 0)
(0.202637 -0.0183865 0 0.00392729 0 0)
(0.214062 -0.0152698 0 0.00282684 0 0)
(0.199701 -0.0217539 0 0.00535826 0 0)
(0.231152 -0.0181872 0 0.0036158 0 0)
(0.194711 -0.0250385 0 0.0078376 0 0)
(0.252671 -0.0212307 0 0.00615376 0 0)
(0.188975 -0.0258307 0 0.0152591 0 0)
(0.273563 -0.0228546 0 0.0238522 0 0)
(0.132363 -0.00833222 0 0.00273238 0 0)
(0.111417 -0.00816214 0 0.00384977 0 0)
(0.101459 -0.00851759 0 0.00370537 0 0)
(0.0959451 -0.00895129 0 0.0031801 0 0)
(0.0959179 -0.00835301 0 0.00376891 0 0)
(0.0992928 -0.0091099 0 0.0035412 0 0)
(0.0937454 -0.00823189 0 0.0039592 0 0)
(0.102634 -0.00893677 0 0.00362311 0 0)
(0.0935823 -0.00837834 0 0.00441563 0 0)
(0.110544 -0.00962689 0 0.00390199 0 0)
(0.0931613 -0.00864799 0 0.00491793 0 0)
(0.120545 -0.010673 0 0.00441976 0 0)
(0.0958203 -0.00844154 0 0.0056954 0 0)
(0.13187 -0.0117256 0 0.00519018 0 0)
(0.0999942 -0.00700883 0 0.00726501 0 0)
(0.146187 -0.0128562 0 0.00642446 0 0)
(0.103874 -0.00344424 0 0.0100954 0 0)
(0.16622 -0.0133814 0 0.0102496 0 0)
(0.10885 0.00613392 0 0.0181807 0 0)
(0.191501 -0.0106081 0 0.0319432 0 0)
(0.135329 -0.00828608 0 0.00358156 0 0)
(0.15935 -0.013775 0 0.00700664 0 0)
(0.129246 -0.00677862 0 0.00525471 0 0)
(0.161118 -0.0108522 0 0.00477584 0 0)
(0.151737 -0.00779249 0 0.00530583 0 0)
(0.163647 -0.00900829 0 0.0054925 0 0)
(0.165882 -0.00602621 0 0.0051128 0 0)
(0.170852 -0.00877361 0 0.00559351 0 0)
(0.17571 -0.00451931 0 0.00562479 0 0)
(0.179783 -0.00813778 0 0.0059226 0 0)
(0.187316 -0.00320392 0 0.00616431 0 0)
(0.186752 -0.00713672 0 0.00657072 0 0)
(0.204574 -0.000784678 0 0.00690855 0 0)
(0.195512 -0.00646557 0 0.00761611 0 0)
(0.219795 0.00368851 0 0.00835482 0 0)
(0.207588 -0.00507724 0 0.00907327 0 0)
(0.237454 0.0106798 0 0.0108292 0 0)
(0.223045 -0.00187361 0 0.0138335 0 0)
(0.257155 0.0247661 0 0.0183009 0 0)
(0.242069 0.0072138 0 0.0351175 0 0)
(0.24514 -0.00452327 0 0.00358847 0 0)
(0.265238 -0.00955823 0 0.00917857 0 0)
(0.236178 -0.00194004 0 0.00579849 0 0)
(0.238259 -0.00511242 0 0.00552125 0 0)
(0.262146 -0.00260062 0 0.00574612 0 0)
(0.227422 -0.00305843 0 0.00614716 0 0)
(0.288901 -0.000296809 0 0.00527723 0 0)
(0.224242 -0.00223602 0 0.00630443 0 0)
(0.303267 0.00273123 0 0.00566539 0 0)
(0.226538 -0.00125376 0 0.00677204 0 0)
(0.315817 0.0052697 0 0.00616359 0 0)
(0.232575 0.000953255 0 0.00725613 0 0)
(0.32868 0.00887091 0 0.00689804 0 0)
(0.242068 0.00289823 0 0.00826736 0 0)
(0.342109 0.0140742 0 0.00781071 0 0)
(0.254616 0.00630349 0 0.00952376 0 0)
(0.354361 0.0218149 0 0.00941633 0 0)
(0.271051 0.0125784 0 0.0134737 0 0)
(0.367341 0.0361976 0 0.0152475 0 0)
(0.298725 0.0262887 0 0.0275515 0 0)
(0.271021 0.00012103 0 0.00296216 0 0)
(0.28432 0.000342925 0 0.00804481 0 0)
(0.267416 0.00213755 0 0.00490948 0 0)
(0.241815 0.00257509 0 0.00507639 0 0)
(0.282628 0.00296386 0 0.00481195 0 0)
(0.230075 0.00335289 0 0.00555241 0 0)
(0.292448 0.00478042 0 0.0045004 0 0)
(0.227588 0.00484461 0 0.00573538 0 0)
(0.291665 0.00770358 0 0.00469546 0 0)
(0.231026 0.00590735 0 0.00612613 0 0)
(0.29416 0.00962545 0 0.0051744 0 0)
(0.241023 0.0082716 0 0.00639644 0 0)
(0.298486 0.0126532 0 0.00557821 0 0)
(0.254601 0.0106135 0 0.00710807 0 0)
(0.300858 0.0169282 0 0.00601066 0 0)
(0.272799 0.0146175 0 0.00800925 0 0)
(0.303093 0.0229467 0 0.00694281 0 0)
(0.297721 0.0225025 0 0.010702 0 0)
(0.303654 0.0340164 0 0.0110508 0 0)
(0.345025 0.0374314 0 0.020877 0 0)
(0.172212 0.00233775 0 0.00241965 0 0)
(0.182986 0.00493192 0 0.00597708 0 0)
(0.159048 0.0044217 0 0.00392181 0 0)
(0.167029 0.00658259 0 0.00372618 0 0)
(0.165114 0.00560175 0 0.0040061 0 0)
(0.163242 0.00677846 0 0.00448352 0 0)
(0.168362 0.00648389 0 0.00381986 0 0)
(0.16844 0.00876011 0 0.00457819 0 0)
(0.164609 0.0084215 0 0.00387288 0 0)
(0.17684 0.0104275 0 0.00480222 0 0)
(0.164523 0.00972221 0 0.00417952 0 0)
(0.190389 0.0123487 0 0.00494255 0 0)
(0.166916 0.0118656 0 0.00435333 0 0)
(0.205413 0.0149178 0 0.00529978 0 0)
(0.168402 0.0144178 0 0.00454471 0 0)
(0.22478 0.0187675 0 0.00577146 0 0)
(0.171171 0.0176658 0 0.00507621 0 0)
(0.254129 0.0257705 0 0.00725175 0 0)
(0.172771 0.0243627 0 0.00773142 0 0)
(0.309251 0.0383258 0 0.013752 0 0)
(0.0687369 0.00222744 0 0.00207327 0 0)
(0.0728561 0.00442402 0 0.00461957 0 0)
(0.0590669 0.00355916 0 0.00324417 0 0)
(0.0767161 0.00583256 0 0.00303592 0 0)
(0.0616407 0.00422051 0 0.00331774 0 0)
(0.080507 0.00594662 0 0.0035947 0 0)
(0.0649185 0.00411949 0 0.00324009 0 0)
(0.0877764 0.0074544 0 0.00372639 0 0)
(0.0647755 0.00490216 0 0.00316499 0 0)
(0.0972539 0.00879759 0 0.00372484 0 0)
(0.0646228 0.00535848 0 0.00330248 0 0)
(0.109139 0.00977941 0 0.00369369 0 0)
(0.067035 0.00605571 0 0.00333347 0 0)
(0.122259 0.0111341 0 0.00374825 0 0)
(0.0689987 0.00654905 0 0.0033012 0 0)
(0.138559 0.0130582 0 0.00381948 0 0)
(0.0706569 0.00760201 0 0.00346798 0 0)
(0.162507 0.0167363 0 0.0044073 0 0)
(0.0744768 0.0117599 0 0.0049537 0 0)
(0.204605 0.0232414 0 0.00843798 0 0)
(0.0207367 0.000648515 0 0.00167112 0 0)
(0.0192542 0.0014127 0 0.00350841 0 0)
(0.0153825 0.000895517 0 0.00272994 0 0)
(0.0244296 0.00258105 0 0.00238802 0 0)
(0.0182448 0.00129422 0 0.00258444 0 0)
(0.02873 0.00254616 0 0.00261159 0 0)
(0.0205579 0.000908352 0 0.00257469 0 0)
(0.034628 0.00301529 0 0.0027811 0 0)
(0.0208164 0.00105328 0 0.00243906 0 0)
(0.0407077 0.00354817 0 0.00267378 0 0)
(0.0217263 0.00109472 0 0.00247173 0 0)
(0.0470894 0.00360907 0 0.00259379 0 0)
(0.0243554 0.00116067 0 0.00248412 0 0)
(0.0540715 0.00378704 0 0.00243764 0 0)
(0.0274189 0.00135003 0 0.00224632 0 0)
(0.062024 0.00438238 0 0.00229878 0 0)
(0.0319774 0.00231555 0 0.00224294 0 0)
(0.0735788 0.00648359 0 0.00255093 0 0)
(0.041911 0.00638652 0 0.00324278 0 0)
(0.0958816 0.0119464 0 0.00552957 0 0)
(0.00814944 -0.000524323 0 0.00130152 0 0)
(0.00350223 -0.00102171 0 0.00281719 0 0)
(0.00413803 -0.00130145 0 0.00239468 0 0)
(0.00646061 -0.00019711 0 0.00176686 0 0)
(0.00649822 -0.00040907 0 0.00193584 0 0)
(0.00957816 -0.000491523 0 0.00191719 0 0)
(0.00993271 -0.000833732 0 0.00201825 0 0)
(0.0130453 -0.0005762 0 0.00205409 0 0)
(0.0121168 -0.000861692 0 0.00183403 0 0)
(0.0162386 -0.00024179 0 0.0018851 0 0)
(0.014609 -0.000764664 0 0.00180268 0 0)
(0.0197379 -0.00025741 0 0.00177004 0 0)
(0.0180806 -0.000711008 0 0.00175009 0 0)
(0.0240406 -0.000306027 0 0.00161217 0 0)
(0.0223631 -0.000396098 0 0.00146963 0 0)
(0.0293016 0.000258782 0 0.00136824 0 0)
(0.0284849 0.000675286 0 0.00133792 0 0)
(0.0381065 0.00217732 0 0.0015096 0 0)
(0.0406778 0.0043853 0 0.00198892 0 0)
(0.0567141 0.00858347 0 0.0037317 0 0)
(0.00852037 -0.000648826 0 0.000954383 0 0)
(0.00257798 -0.00114179 0 0.00223898 0 0)
(0.00363141 -0.00150564 0 0.00198239 0 0)
(0.00464287 -0.000960189 0 0.00136366 0 0)
(0.00696691 -0.000679965 0 0.00147251 0 0)
(0.00742847 -0.000938055 0 0.00146423 0 0)
(0.0100442 -0.00110031 0 0.00162225 0 0)
(0.010344 -0.00140853 0 0.00167144 0 0)
(0.0130448 -0.00125237 0 0.00152054 0 0)
(0.0131525 -0.00100205 0 0.00145807 0 0)
(0.0158961 -0.000925006 0 0.00134971 0 0)
(0.016 -0.000861142 0 0.00129557 0 0)
(0.0191133 -0.00082931 0 0.0012583 0 0)
(0.0195368 -0.000984476 0 0.00114016 0 0)
(0.0227803 -0.000597432 0 0.000999897 0 0)
(0.0236886 -0.000522113 0 0.000885971 0 0)
(0.0277827 0.000373667 0 0.000815627 0 0)
(0.0308361 0.00102635 0 0.000872494 0 0)
(0.0380919 0.00335051 0 0.00120345 0 0)
(0.0471521 0.0061987 0 0.00221862 0 0)
(0.00986124 -0.000583089 0 0.000582903 0 0)
(0.00380787 -0.000302651 0 0.00154336 0 0)
(0.00409282 -0.000857619 0 0.00141893 0 0)
(0.00538008 -0.000655835 0 0.000964632 0 0)
(0.00856687 -0.000569222 0 0.00112347 0 0)
(0.00839452 -0.00059491 0 0.00106901 0 0)
(0.0114018 -0.00082596 0 0.00115702 0 0)
(0.0102999 -0.000844056 0 0.00121107 0 0)
(0.0128691 -0.000915716 0 0.00113008 0 0)
(0.0111318 -0.000507472 0 0.00104558 0 0)
(0.0135982 -0.000559476 0 0.000926365 0 0)
(0.0113659 -0.000302744 0 0.000854282 0 0)
(0.0137446 -0.00036677 0 0.000779551 0 0)
(0.0112308 -0.0003263 0 0.000727756 0 0)
(0.0134545 -0.000211163 0 0.000609307 0 0)
(0.0113407 -0.000133715 0 0.000564072 0 0)
(0.0139449 0.000412139 0 0.000466292 0 0)
(0.0134767 0.000735226 0 0.000519414 0 0)
(0.018306 0.00220987 0 0.000703743 0 0)
(0.0229711 0.00357711 0 0.00125309 0 0)
(0.00893584 -0.000887763 0 0.000419043 0 0)
(0.003311 -0.000192902 0 0.00124722 0 0)
(0.00390031 -0.000541358 0 0.00102986 0 0)
(0.00568203 -0.000507638 0 0.000636153 0 0)
(0.00796351 -0.000459423 0 0.000724726 0 0)
(0.00683411 -0.000332144 0 0.000726466 0 0)
(0.00760974 -0.000295583 0 0.000751549 0 0)
(0.00569835 0.000103164 0 0.000734096 0 0)
(0.00551444 0.000141433 0 0.000648452 0 0)
(0.00434401 0.000579614 0 0.000557025 0 0)
(0.00392245 0.000469968 0 0.000477883 0 0)
(0.00391512 0.000779008 0 0.000434347 0 0)
(0.00324952 0.000592378 0 0.000382876 0 0)
(0.00445589 0.000824235 0 0.000362195 0 0)
(0.00361644 0.000521004 0 0.000295208 0 0)
(0.00587968 0.000788618 0 0.000292568 0 0)
(0.0052966 0.00043771 0 0.000249772 0 0)
(0.00820315 0.000898381 0 0.000280421 0 0)
(0.00912943 0.000836853 0 0.000460839 0 0)
(0.0132447 0.00181586 0 0.000634674 0 0)
(0.00785398 -0.00160777 0 0.000564465 0 0)
(0.00176635 -0.000587331 0 0.00142243 0 0)
(0.00190749 -0.000192404 0 0.000907434 0 0)
(0.00249861 5.66578e-05 0 0.000501308 0 0)
(0.00266355 0.000468354 0 0.000440418 0 0)
(0.00298398 0.000885395 0 0.000400376 0 0)
(0.0048809 0.0011097 0 0.000369598 0 0)
(0.00888424 0.00134553 0 0.00032395 0 0)
(0.0114167 0.00124036 0 0.00026336 0 0)
(0.0178202 0.00130188 0 0.000212443 0 0)
(0.0191339 0.00108781 0 0.000176857 0 0)
(0.0270704 0.00115269 0 0.000161093 0 0)
(0.0264498 0.000907435 0 0.000147723 0 0)
(0.0356251 0.00102264 0 0.00013949 0 0)
(0.0332563 0.000583706 0 0.000119264 0 0)
(0.0425499 0.000815551 0 0.000119182 0 0)
(0.0391498 -1.15311e-05 0 0.000111989 0 0)
(0.0459838 0.000620228 0 0.000133782 0 0)
(0.0433766 -0.000589041 0 0.000218446 0 0)
(0.0449885 0.0011648 0 0.00041635 0 0)
(0.00728469 -0.00232592 0 0.000932697 0 0)
(0.00101072 0.000860366 0 0.00123613 0 0)
(0.00667051 0.0017325 0 0.000514761 0 0)
(0.0133186 0.0015184 0 0.000202169 0 0)
(0.0210747 0.0014296 0 0.000125197 0 0)
(0.0312685 0.0012921 0 9.68484e-05 0 0)
(0.0405125 0.00106743 0 8.39286e-05 0 0)
(0.0509411 0.000897325 0 7.19445e-05 0 0)
(0.0570839 0.000700339 0 6.22735e-05 0 0)
(0.0662043 0.000624994 0 5.53913e-05 0 0)
(0.0690506 0.000497859 0 5.18985e-05 0 0)
(0.0776978 0.000508157 0 4.97713e-05 0 0)
(0.0779047 0.000382876 0 4.87358e-05 0 0)
(0.0867322 0.000432607 0 4.46564e-05 0 0)
(0.0846989 0.00018884 0 4.07185e-05 0 0)
(0.0928857 0.000260515 0 3.7861e-05 0 0)
(0.0887959 -0.000258114 0 3.90913e-05 0 0)
(0.0929967 8.19645e-05 0 4.30362e-05 0 0)
(0.0895907 -0.000968018 0 7.55206e-05 0 0)
(0.0831447 0.000460923 0 0.00023897 0 0)
(0.00136417 -8.23235e-05 0 0.000155548 0 0)
(0.0261696 0.00101974 0 5.68996e-05 0 0)
(0.0511142 9.18856e-05 0 1.34462e-05 0 0)
(0.0636544 -0.000159465 0 5.36193e-06 0 0)
(0.0729189 -0.000122054 0 3.77977e-06 0 0)
(0.0801188 -9.40968e-05 0 3.98353e-06 0 0)
(0.0846332 -6.59752e-05 0 4.64249e-06 0 0)
(0.0885928 -3.30603e-05 0 4.81177e-06 0 0)
(0.0907301 -2.30428e-05 0 5.2492e-06 0 0)
(0.0935518 -5.47449e-06 0 5.21191e-06 0 0)
(0.0944577 -1.19817e-05 0 5.38058e-06 0 0)
(0.0968198 3.31622e-06 0 5.06695e-06 0 0)
(0.096948 -1.50001e-05 0 4.88968e-06 0 0)
(0.099147 -1.94881e-07 0 4.24127e-06 0 0)
(0.098428 -4.36014e-05 0 3.91828e-06 0 0)
(0.0999877 -3.73614e-05 0 3.29581e-06 0 0)
(0.0977736 -0.000120572 0 3.20285e-06 0 0)
(0.0971609 -9.97008e-05 0 3.17993e-06 0 0)
(0.0943189 -0.00035269 0 5.07588e-06 0 0)
(0.0852939 0.000468125 0 3.26669e-05 0 0)
(0.39344 -0.194103 0 0.120502 0 0)
(0.436811 -0.230492 0 0.169987 0 0)
(0.442191 -0.220505 0 0.202957 0 0)
(0.465478 -0.193605 0 0.226074 0 0)
(0.472059 -0.16238 0 0.239419 0 0)
(0.549154 -0.142699 0 0.248792 0 0)
(0.592305 -0.136316 0 0.257887 0 0)
(0.721489 -0.151146 0 0.271375 0 0)
(0.787574 -0.171432 0 0.28724 0 0)
(0.923326 -0.199789 0 0.303529 0 0)
(0.968412 -0.219256 0 0.321038 0 0)
(1.09252 -0.244902 0 0.342997 0 0)
(1.12057 -0.25597 0 0.365953 0 0)
(1.24568 -0.279589 0 0.386734 0 0)
(1.2753 -0.293033 0 0.400448 0 0)
(1.41065 -0.326407 0 0.411455 0 0)
(1.43603 -0.353521 0 0.425663 0 0)
(1.58437 -0.402346 0 0.447573 0 0)
(1.60192 -0.434158 0 0.47838 0 0)
(1.78676 -0.486199 0 0.517439 0 0)
(1.83082 -0.513857 0 0.550202 0 0)
(2.06224 -0.5743 0 0.585274 0 0)
(2.11257 -0.612353 0 0.619036 0 0)
(2.36371 -0.684051 0 0.656639 0 0)
(2.40838 -0.722864 0 0.692253 0 0)
(2.67053 -0.798708 0 0.733874 0 0)
(2.71496 -0.832687 0 0.772632 0 0)
(2.99101 -0.921089 0 0.815364 0 0)
(3.04554 -0.959287 0 0.856132 0 0)
(3.33849 -1.06455 0 0.906308 0 0)
(3.40669 -1.10857 0 0.956727 0 0)
(3.73141 -1.2284 0 1.01387 0 0)
(3.81137 -1.27569 0 1.0682 0 0)
(4.1826 -1.41553 0 1.12896 0 0)
(4.25914 -1.46895 0 1.18567 0 0)
(4.6642 -1.62864 0 1.2494 0 0)
(4.70271 -1.67789 0 1.30367 0 0)
(5.11359 -1.84277 0 1.36452 0 0)
(5.09433 -1.87644 0 1.41561 0 0)
(5.49175 -2.03828 0 1.4749 0 0)
(5.41507 -2.04228 0 1.52469 0 0)
(5.77748 -2.18936 0 1.58304 0 0)
(5.65055 -2.16522 0 1.62952 0 0)
(5.99859 -2.3011 0 1.68854 0 0)
(5.84032 -2.2625 0 1.73402 0 0)
(6.21133 -2.39881 0 1.79558 0 0)
(6.03615 -2.35324 0 1.84237 0 0)
(6.45935 -2.50085 0 1.91174 0 0)
(6.27415 -2.45639 0 1.96278 0 0)
(6.75755 -2.61687 0 2.04618 0 0)
(6.54709 -2.58023 0 2.10717 0 0)
(7.08252 -2.74692 0 2.20946 0 0)
(6.79361 -2.69996 0 2.28448 0 0)
(7.35848 -2.86014 0 2.39631 0 0)
(6.94334 -2.76476 0 2.4648 0 0)
(7.51404 -2.90914 0 2.56765 0 0)
(6.96998 -2.75017 0 2.60818 0 0)
(7.55679 -2.88647 0 2.68571 0 0)
(6.91265 -2.68852 0 2.70277 0 0)
(7.56535 -2.84346 0 2.76579 0 0)
(6.83546 -2.64172 0 2.7849 0 0)
(7.57898 -2.83172 0 2.85771 0 0)
(6.74091 -2.62354 0 2.8928 0 0)
(7.53696 -2.83195 0 2.98592 0 0)
(6.57788 -2.58226 0 3.01724 0 0)
(7.38588 -2.75579 0 3.09884 0 0)
(6.34872 -2.45234 0 3.07892 0 0)
(7.21492 -2.55331 0 3.09871 0 0)
(6.1395 -2.25392 0 3.0482 0 0)
(7.17127 -2.35479 0 3.07427 0 0)
(6.03936 -2.08555 0 3.05949 0 0)
(7.27858 -2.22321 0 3.09331 0 0)
(6.04454 -1.94251 0 3.07486 0 0)
(7.51258 -2.162 0 3.11646 0 0)
(6.14016 -1.85731 0 3.13325 0 0)
(7.79189 -2.16871 0 3.22641 0 0)
(6.31712 -1.82327 0 3.28383 0 0)
(8.04118 -2.20554 0 3.43389 0 0)
(6.49574 -1.82604 0 3.50615 0 0)
(8.23999 -2.2223 0 3.68968 0 0)
(6.57201 -1.82437 0 3.74741 0 0)
(8.39332 -2.22243 0 3.90812 0 0)
(6.55858 -1.81325 0 3.93087 0 0)
(8.50972 -2.2339 0 4.06487 0 0)
(6.53338 -1.79402 0 4.05138 0 0)
(8.52274 -2.22295 0 4.17854 0 0)
(6.57529 -1.76495 0 4.16314 0 0)
(8.51729 -2.18775 0 4.33473 0 0)
(6.694 -1.75413 0 4.35255 0 0)
(8.6223 -2.15373 0 4.55658 0 0)
(6.89121 -1.77778 0 4.58829 0 0)
(8.84345 -2.2001 0 4.78153 0 0)
(7.21001 -1.8666 0 4.81973 0 0)
(9.19027 -2.31669 0 5.03026 0 0)
(7.60441 -1.99212 0 5.08587 0 0)
(9.53525 -2.47573 0 5.33943 0 0)
(8.0048 -2.14331 0 5.42956 0 0)
(9.80298 -2.62693 0 5.74242 0 0)
(8.29717 -2.28161 0 5.87831 0 0)
(9.83691 -2.72685 0 6.24738 0 0)
(8.37373 -2.35061 0 6.42224 0 0)
(9.73729 -2.77115 0 6.81511 0 0)
(8.25726 -2.37786 0 7.01976 0 0)
(9.58425 -2.80109 0 7.4419 0 0)
(8.05913 -2.39641 0 7.54149 0 0)
(9.42579 -2.82995 0 7.90883 0 0)
(7.85983 -2.34013 0 7.91906 0 0)
(9.31673 -2.77263 0 8.18406 0 0)
(7.71856 -2.2091 0 8.13332 0 0)
(9.21586 -2.69002 0 8.42041 0 0)
(7.62368 -2.09665 0 8.32253 0 0)
(9.0696 -2.58285 0 8.55765 0 0)
(7.61964 -1.96731 0 8.40931 0 0)
(8.93298 -2.42838 0 8.65077 0 0)
(7.6709 -1.7893 0 8.53092 0 0)
(8.7542 -2.21195 0 8.79154 0 0)
(7.67941 -1.62 0 8.75255 0 0)
(8.55233 -2.00672 0 9.06999 0 0)
(7.70799 -1.48561 0 9.10204 0 0)
(8.4399 -1.83072 0 9.45693 0 0)
(7.79469 -1.38253 0 9.56354 0 0)
(8.34733 -1.6659 0 9.9051 0 0)
(7.78733 -1.21458 0 10.0411 0 0)
(8.18802 -1.46822 0 10.3251 0 0)
(7.68188 -1.04242 0 10.4159 0 0)
(8.00108 -1.27544 0 10.6383 0 0)
(7.47403 -0.864237 0 10.7252 0 0)
(7.80675 -1.09855 0 10.9299 0 0)
(7.34336 -0.744646 0 11.0074 0 0)
(7.67125 -0.984031 0 11.1507 0 0)
(7.38527 -0.741347 0 11.295 0 0)
(7.65088 -0.929954 0 11.4453 0 0)
(7.5297 -0.79 0 11.6123 0 0)
(7.6693 -0.872004 0 11.7264 0 0)
(7.63065 -0.836679 0 11.9045 0 0)
(7.68142 -0.796573 0 12.0025 0 0)
(7.73494 -0.8085 0 12.172 0 0)
(7.74676 -0.683415 0 12.3071 0 0)
(7.80605 -0.72685 0 12.5314 0 0)
(7.78083 -0.553348 0 12.6823 0 0)
(7.79152 -0.628845 0 12.9363 0 0)
(7.6921 -0.39954 0 13.0392 0 0)
(7.75188 -0.500023 0 13.2999 0 0)
(7.54935 -0.253645 0 13.448 0 0)
(7.56695 -0.308367 0 13.7699 0 0)
(7.32747 -0.085399 0 13.8359 0 0)
(7.36941 -0.0754648 0 14.0123 0 0)
(7.16066 0.048878 0 14.066 0 0)
(7.21382 0.158619 0 14.2813 0 0)
(6.99963 0.152594 0 14.3248 0 0)
(7.04206 0.318089 0 14.4637 0 0)
(6.83005 0.223921 0 14.4415 0 0)
(6.85983 0.452445 0 14.5586 0 0)
(6.70026 0.31082 0 14.5169 0 0)
(6.70727 0.536379 0 14.5995 0 0)
(6.60712 0.350224 0 14.5208 0 0)
(6.61491 0.565706 0 14.6045 0 0)
(6.61076 0.406163 0 14.5248 0 0)
(6.58621 0.546394 0 14.5719 0 0)
(6.54316 0.38302 0 14.5269 0 0)
(6.49294 0.502929 0 14.6267 0 0)
(6.45436 0.283966 0 14.6485 0 0)
(6.36997 0.403878 0 14.669 0 0)
(6.39204 0.136154 0 14.6577 0 0)
(6.34692 0.267882 0 14.566 0 0)
(6.38903 -0.0573533 0 14.5121 0 0)
(6.35554 0.109868 0 14.4415 0 0)
(6.37349 -0.318071 0 14.3401 0 0)
(6.31297 -0.0762159 0 14.2304 0 0)
(6.37388 -0.516609 0 13.951 0 0)
(6.19649 -0.391851 0 13.7804 0 0)
(6.37734 -0.752325 0 13.5194 0 0)
(5.99627 -0.633168 0 13.0684 0 0)
(6.42277 -1.06918 0 12.7276 0 0)
(5.90351 -0.714958 0 12.2274 0 0)
(6.4623 -1.20206 0 11.9332 0 0)
(5.95359 -0.721892 0 11.4566 0 0)
(6.52206 -1.23527 0 11.1036 0 0)
(6.07581 -0.751501 0 10.8618 0 0)
(6.5104 -1.10909 0 10.3919 0 0)
(6.23633 -0.81853 0 10.3833 0 0)
(6.33883 -0.978518 0 9.6376 0 0)
(6.20113 -0.93889 0 9.97018 0 0)
(6.14889 -0.795301 0 8.90945 0 0)
(6.0615 -1.05711 0 9.55142 0 0)
(5.94783 -0.483662 0 8.22753 0 0)
(5.87154 -1.11725 0 9.24154 0 0)
(5.65572 -0.153594 0 7.73017 0 0)
(5.54305 -1.03529 0 9.18705 0 0)
(5.2904 0.253592 0 7.54557 0 0)
(5.07716 -0.839121 0 9.47375 0 0)
(4.86076 0.729624 0 7.69258 0 0)
(4.53278 -0.616243 0 10.1722 0 0)
(4.19133 1.26439 0 8.30537 0 0)
(4.08485 -0.171805 0 11.6702 0 0)
(3.58226 2.23999 0 10.0246 0 0)
(3.66858 0.300436 0 14.1067 0 0)
(2.87107 3.52917 0 13.1277 0 0)
(3.44114 2.37717 0 19.7521 0 0)
(1.08466 0.696404 0 22.0863 0 0)
(0.354122 -0.160289 0 0.136239 0 0)
(0.328833 -0.170429 0 0.177546 0 0)
(0.338073 -0.154491 0 0.187593 0 0)
(0.309422 -0.140428 0 0.192554 0 0)
(0.325086 -0.123232 0 0.191842 0 0)
(0.329085 -0.122185 0 0.190572 0 0)
(0.365884 -0.127933 0 0.194687 0 0)
(0.395628 -0.148286 0 0.205974 0 0)
(0.445987 -0.163598 0 0.219062 0 0)
(0.476903 -0.186081 0 0.232703 0 0)
(0.520285 -0.197603 0 0.247246 0 0)
(0.546133 -0.219906 0 0.265883 0 0)
(0.587277 -0.22901 0 0.284743 0 0)
(0.625196 -0.253015 0 0.304041 0 0)
(0.675949 -0.263482 0 0.320587 0 0)
(0.74042 -0.296819 0 0.338327 0 0)
(0.805369 -0.318569 0 0.357677 0 0)
(0.900248 -0.37001 0 0.382377 0 0)
(0.970185 -0.399501 0 0.408568 0 0)
(1.08262 -0.458472 0 0.44047 0 0)
(1.14678 -0.484663 0 0.470975 0 0)
(1.27832 -0.546513 0 0.505479 0 0)
(1.34013 -0.570849 0 0.538229 0 0)
(1.49537 -0.640692 0 0.576206 0 0)
(1.55352 -0.66266 0 0.612138 0 0)
(1.7359 -0.741078 0 0.656136 0 0)
(1.79826 -0.761217 0 0.69774 0 0)
(2.01557 -0.852333 0 0.746949 0 0)
(2.09034 -0.878601 0 0.792016 0 0)
(2.34031 -0.988398 0 0.846514 0 0)
(2.42039 -1.02296 0 0.895936 0 0)
(2.69294 -1.14959 0 0.954647 0 0)
(2.76066 -1.18528 0 1.00618 0 0)
(3.04525 -1.32317 0 1.06722 0 0)
(3.08183 -1.3529 0 1.11912 0 0)
(3.3699 -1.49652 0 1.18042 0 0)
(3.35298 -1.51011 0 1.23121 0 0)
(3.63655 -1.65125 0 1.28883 0 0)
(3.55544 -1.64251 0 1.33608 0 0)
(3.83998 -1.78084 0 1.39071 0 0)
(3.70563 -1.74892 0 1.43343 0 0)
(4.00468 -1.88447 0 1.48708 0 0)
(3.83625 -1.8346 0 1.52729 0 0)
(4.17041 -1.97556 0 1.58622 0 0)
(3.98731 -1.91688 0 1.62774 0 0)
(4.36611 -2.07242 0 1.69916 0 0)
(4.17715 -2.0115 0 1.74565 0 0)
(4.59811 -2.1828 0 1.82998 0 0)
(4.39267 -2.11725 0 1.88107 0 0)
(4.84818 -2.29758 0 1.97411 0 0)
(4.59191 -2.2146 0 2.02872 0 0)
(5.0802 -2.39824 0 2.12492 0 0)
(4.73027 -2.27424 0 2.18011 0 0)
(5.24892 -2.45752 0 2.2724 0 0)
(4.78513 -2.27226 0 2.3194 0 0)
(5.33574 -2.45833 0 2.40068 0 0)
(4.77957 -2.21616 0 2.43346 0 0)
(5.37649 -2.41907 0 2.50855 0 0)
(4.77121 -2.15199 0 2.53273 0 0)
(5.42341 -2.38316 0 2.62355 0 0)
(4.79679 -2.13025 0 2.65114 0 0)
(5.49618 -2.36979 0 2.75433 0 0)
(4.8329 -2.1348 0 2.77796 0 0)
(5.56067 -2.33594 0 2.87005 0 0)
(4.81611 -2.09255 0 2.87342 0 0)
(5.57093 -2.22881 0 2.92207 0 0)
(4.72391 -1.9546 0 2.88767 0 0)
(5.57197 -2.07101 0 2.91297 0 0)
(4.6522 -1.79737 0 2.88697 0 0)
(5.64854 -1.95539 0 2.94203 0 0)
(4.66445 -1.67631 0 2.92728 0 0)
(5.83697 -1.884 0 2.99987 0 0)
(4.77806 -1.5837 0 2.98653 0 0)
(6.11091 -1.87054 0 3.07114 0 0)
(4.98114 -1.54066 0 3.08541 0 0)
(6.41037 -1.91295 0 3.21229 0 0)
(5.22997 -1.54068 0 3.26419 0 0)
(6.666 -1.95069 0 3.43376 0 0)
(5.43295 -1.52632 0 3.49025 0 0)
(6.84045 -1.93852 0 3.67579 0 0)
(5.53021 -1.49641 0 3.7167 0 0)
(6.98327 -1.92982 0 3.88259 0 0)
(5.62578 -1.49492 0 3.9001 0 0)
(7.10551 -1.94302 0 4.03417 0 0)
(5.77609 -1.53275 0 4.0079 0 0)
(7.22447 -1.94679 0 4.15409 0 0)
(5.97526 -1.58864 0 4.14494 0 0)
(7.38735 -1.95243 0 4.32395 0 0)
(6.24284 -1.63783 0 4.34878 0 0)
(7.64719 -1.97399 0 4.55407 0 0)
(6.54868 -1.71179 0 4.5875 0 0)
(7.98966 -2.07565 0 4.7816 0 0)
(6.89343 -1.8142 0 4.83608 0 0)
(8.38256 -2.20781 0 5.05904 0 0)
(7.26457 -1.93433 0 5.12592 0 0)
(8.75397 -2.37413 0 5.38091 0 0)
(7.64793 -2.07128 0 5.48333 0 0)
(9.06132 -2.52089 0 5.79465 0 0)
(7.94697 -2.18455 0 5.92575 0 0)
(9.18368 -2.60321 0 6.29125 0 0)
(8.06927 -2.22038 0 6.44337 0 0)
(9.11301 -2.62724 0 6.85673 0 0)
(7.9469 -2.19091 0 7.02348 0 0)
(8.94195 -2.60163 0 7.43089 0 0)
(7.65298 -2.14309 0 7.48077 0 0)
(8.73191 -2.5616 0 7.83663 0 0)
(7.33167 -2.01225 0 7.82467 0 0)
(8.55761 -2.45237 0 8.12766 0 0)
(7.11204 -1.84426 0 8.06597 0 0)
(8.45851 -2.30218 0 8.34607 0 0)
(7.01283 -1.67394 0 8.23712 0 0)
(8.4084 -2.1124 0 8.47545 0 0)
(7.06012 -1.50519 0 8.3415 0 0)
(8.41221 -1.90078 0 8.595 0 0)
(7.16112 -1.36311 0 8.51273 0 0)
(8.39844 -1.76147 0 8.77024 0 0)
(7.33487 -1.27705 0 8.76834 0 0)
(8.42195 -1.6495 0 9.06893 0 0)
(7.54512 -1.19235 0 9.15698 0 0)
(8.50068 -1.53966 0 9.49627 0 0)
(7.67392 -1.10014 0 9.6332 0 0)
(8.52126 -1.39361 0 9.96524 0 0)
(7.63261 -0.919541 0 10.106 0 0)
(8.41248 -1.19829 0 10.4101 0 0)
(7.48777 -0.681606 0 10.5219 0 0)
(8.25397 -1.00941 0 10.7619 0 0)
(7.36231 -0.506147 0 10.8548 0 0)
(8.10444 -0.888664 0 11.0628 0 0)
(7.33696 -0.502467 0 11.1922 0 0)
(8.03401 -0.850021 0 11.3407 0 0)
(7.43016 -0.635392 0 11.4975 0 0)
(8.04664 -0.820513 0 11.6255 0 0)
(7.60569 -0.733478 0 11.7875 0 0)
(8.08053 -0.75931 0 11.9136 0 0)
(7.76134 -0.789546 0 12.1 0 0)
(8.22679 -0.706416 0 12.16 0 0)
(7.9635 -0.801286 0 12.3436 0 0)
(8.38905 -0.630643 0 12.4473 0 0)
(8.09983 -0.761368 0 12.7186 0 0)
(8.45689 -0.506533 0 12.8394 0 0)
(8.09853 -0.636517 0 13.1611 0 0)
(8.39289 -0.361376 0 13.2224 0 0)
(7.99518 -0.504554 0 13.5285 0 0)
(8.21732 -0.180806 0 13.6504 0 0)
(7.72196 -0.290208 0 14.0141 0 0)
(8.00192 0.0315881 0 14.0335 0 0)
(7.45182 -0.10476 0 14.2743 0 0)
(7.80164 0.182071 0 14.2965 0 0)
(7.16486 0.0752059 0 14.5341 0 0)
(7.53877 0.294482 0 14.5613 0 0)
(6.97411 0.277988 0 14.7391 0 0)
(7.31263 0.341179 0 14.6291 0 0)
(6.82089 0.393346 0 14.7725 0 0)
(7.22148 0.392768 0 14.7792 0 0)
(6.72884 0.472678 0 14.829 0 0)
(7.17907 0.321447 0 14.7086 0 0)
(6.69741 0.526337 0 14.8285 0 0)
(7.14693 0.320557 0 14.7836 0 0)
(6.62976 0.500013 0 14.8131 0 0)
(7.00255 0.280375 0 14.8953 0 0)
(6.54135 0.49236 0 14.9037 0 0)
(6.86205 0.175782 0 14.9308 0 0)
(6.46278 0.420718 0 14.9553 0 0)
(6.78797 0.089155 0 14.921 0 0)
(6.36152 0.296205 0 14.8785 0 0)
(6.72721 -0.095093 0 14.8005 0 0)
(6.26966 0.178622 0 14.8261 0 0)
(6.69926 -0.240759 0 14.7001 0 0)
(6.25019 0.0527661 0 14.5325 0 0)
(6.65667 -0.397268 0 14.394 0 0)
(6.14082 -0.0735242 0 14.2077 0 0)
(6.52519 -0.624636 0 13.9363 0 0)
(6.03415 -0.186032 0 13.5266 0 0)
(6.28557 -0.900112 0 13.1383 0 0)
(6.09143 -0.32712 0 12.5889 0 0)
(6.06469 -1.15678 0 12.1496 0 0)
(6.27436 -0.491859 0 11.8005 0 0)
(5.92173 -1.28106 0 11.3522 0 0)
(6.41299 -0.771183 0 11.1815 0 0)
(5.86583 -1.23202 0 10.5656 0 0)
(6.45634 -1.01133 0 10.8344 0 0)
(5.83616 -1.08923 0 9.85866 0 0)
(6.35195 -1.33674 0 10.4885 0 0)
(5.68589 -0.87484 0 9.05652 0 0)
(6.16914 -1.62428 0 10.1137 0 0)
(5.54674 -0.570716 0 8.24736 0 0)
(5.92705 -1.73705 0 9.86485 0 0)
(5.50428 -0.261299 0 7.61021 0 0)
(5.55384 -1.72369 0 9.83319 0 0)