/*--------------------------------*- C++ -*----------------------------------*\
| =========                 |                                                 |
| \\      /  F ield         | OpenFOAM: The Open Source CFD Toolbox           |
|  \\    /   O peration     | Version:  2.4.0                                 |
|   \\  /    A nd           | Web:      www.OpenFOAM.org                      |
|    \\/     M anipulation  |                                                 |
\*---------------------------------------------------------------------------*/
FoamFile
{
    version     2.0;
    format      ascii;
    class       surfaceScalarField;
    location    "0.68";
    object      phi;
}
// * * * * * * * * * * * * * * * * * * * * * * * * * * * * * * * * * * * * * //

dimensions      [0 3 -1 0 0 0 0];

internalField   nonuniform List<scalar> 
8640
(
0.049909
9.10309e-05
0.048912
0.000997015
0.0493608
-0.000448817
0.0470413
0.00231942
0.0487138
-0.0016724
0.0448235
0.00389028
0.0464481
-0.00162468
0.0435431
0.00290505
0.0429586
0.000584534
0.0458501
-0.00289155
0.0391228
0.00672732
0.0468946
-0.00777176
0.0392217
0.00767281
0.0389368
0.00028491
0.0455008
-0.00656393
0.0339118
0.011589
0.0388974
-0.00498555
0.0417364
-0.00283904
0.0328348
0.00890159
-0.00317857
0.0360134
0.0503226
-0.000231522
0.0483033
0.00301631
0.0516677
-0.00381329
0.0471365
0.00685069
0.0509143
-0.00545025
0.0465386
0.00826595
0.0481048
-0.0031908
0.0489211
0.00208873
0.0429064
0.00659919
0.0562326
-0.0162177
0.0405952
0.0223648
0.0476639
-0.0148405
0.0497251
0.00561158
0.0411083
0.00890176
0.0514983
-0.0169539
0.0468178
0.0162694
0.0462112
-0.00437893
0.0495903
-0.00621818
0.0447608
0.0137311
-0.00348231
0.0450645
0.0507651
-0.00099662
0.0488473
0.00493407
0.0519032
-0.00686918
0.0478423
0.0109116
0.0518276
-0.00943554
0.0499468
0.0101468
0.0483966
-0.00164063
0.056837
-0.00635163
0.0457867
0.0176495
0.0518812
-0.0223122
0.0522539
0.021992
0.0485075
-0.011094
0.0527951
0.00132393
0.0521132
0.00958369
0.0514127
-0.0162533
0.0509656
0.0167164
0.0524965
-0.0059098
0.052542
-0.00626367
0.0503118
0.0159613
-0.00347596
0.0503055
0.0503248
-0.00132142
0.0493204
0.00593851
0.0511833
-0.00873213
0.0501554
0.0119395
0.0516025
-0.0108826
0.0538319
0.00791731
0.0504957
0.00169562
0.0549773
-0.0108332
0.0511727
0.021454
0.0509994
-0.0221389
0.0542979
0.0186935
0.0523501
-0.00914623
0.0530934
0.000580627
0.053467
0.00921009
0.0528675
-0.0156539
0.0536229
0.015961
0.0525487
-0.00483556
0.0549361
-0.00865112
0.0528471
0.0180503
-0.00206916
0.0514403
0.0502469
-0.00156836
0.0502181
0.00596738
0.0505346
-0.00904863
0.0510497
0.0114243
0.0510377
-0.0108706
0.0528509
0.00610409
0.0503462
0.00420032
0.0530206
-0.0135076
0.0519498
0.0225248
0.0508475
-0.0210366
0.0544231
0.015118
0.0506035
-0.00532667
0.0529468
-0.00176263
0.0536019
0.00855495
0.0506879
-0.0127398
0.0527668
0.013882
0.053241
-0.00530974
0.0530824
-0.00849249
0.0516939
0.0194389
-0.00325576
0.0528805
0.0499137
-0.0014821
0.0502964
0.00558471
0.0498717
-0.0086239
0.0509759
0.0103201
0.0498727
-0.00976741
0.0515842
0.00439257
0.0503002
0.00548437
0.0508988
-0.0141062
0.0526512
0.0207725
0.050662
-0.0190474
0.0535688
0.0122112
0.0512002
-0.00295811
0.0525033
-0.00306566
0.0533947
0.00766355
0.050431
-0.00977613
0.0535713
0.0107417
0.0529293
-0.00466778
0.0503349
-0.00589808
0.0527657
0.0170081
-0.00340901
0.0529189
0.0499905
-0.00147264
0.0504661
0.00510912
0.0497178
-0.00787561
0.0509031
0.00913487
0.049676
-0.00854027
0.0506711
0.00339746
0.0505082
0.00564728
0.0502832
-0.0138812
0.0515932
0.0194625
0.0502494
-0.0177037
0.052148
0.0103126
0.0499257
-0.000735819
0.0513266
-0.00446653
0.052179
0.00681108
0.0498746
-0.00747167
0.0524931
0.00812324
0.0513213
-0.00349603
0.0503074
-0.00488417
0.0525424
0.014773
-0.00239086
0.0515243
0.0499949
-0.00146753
0.0504259
0.00467811
0.0496337
-0.0070834
0.0508866
0.00788193
0.049549
-0.00720263
0.05059
0.00235648
0.0505731
0.00566419
0.0497679
-0.0130761
0.0512861
0.0179443
0.0497512
-0.0161687
0.0507657
0.00929811
0.0502599
-0.000230018
0.0507097
-0.00491634
0.050534
0.00698676
0.0503757
-0.00731338
0.0517958
0.00670317
0.0500338
-0.00173404
0.0497574
-0.00460779
0.0524404
0.01209
-0.00162214
0.0516717
0.0498843
-0.00135182
0.0504784
0.00408398
0.0495981
-0.00620304
0.0508216
0.00665844
0.0495336
-0.00591471
0.050484
0.00140612
0.0504708
0.00567739
0.0497503
-0.0123556
0.0512108
0.0164838
0.0497906
-0.0147485
0.0505823
0.00850639
0.0503133
3.8985e-05
0.0508995
-0.00550251
0.0500626
0.00782357
0.0505163
-0.00776704
0.0515599
0.00565954
0.049986
-0.00016012
0.0502118
-0.00483356
0.052213
0.0100888
-0.000431088
0.0510219
0.0499815
-0.00133335
0.0504332
0.00363232
0.0496365
-0.00540636
0.0507332
0.00556174
0.0495815
-0.00476302
0.0503865
0.000601076
0.0504993
0.00556465
0.0497873
-0.0116436
0.0512238
0.0150473
0.0500306
-0.0135552
0.0507143
0.00782272
0.0506865
6.67597e-05
0.0510002
-0.00581626
0.0502049
0.00861887
0.0510327
-0.00859476
0.0514502
0.00524196
0.0503367
0.000953401
0.0508786
-0.00537546
0.052143
0.00882441
0.000705938
0.051006
0.049907
-0.00124034
0.0503911
0.00314817
0.0496984
-0.00471362
0.0506561
0.00460404
0.0497147
-0.00382166
0.0504035
-8.76958e-05
0.0505283
0.00543989
0.049781
-0.0108963
0.0512497
0.0135786
0.0497868
-0.0120924
0.0508408
0.00676877
0.0505708
0.000336717
0.0504866
-0.00573204
0.0507646
0.00834088
0.0503684
-0.00819858
0.0508064
0.00480395
0.0506821
0.00107774
0.0505564
-0.00524976
0.0512833
0.00809754
0.00145022
0.050539
0.0499189
-0.0011592
0.0504109
0.00265611
0.0497001
-0.00400285
0.0506112
0.003693
0.0497979
-0.00300837
0.0502741
-0.000563907
0.0505848
0.00512921
0.0497405
-0.0100521
0.0511435
0.0121757
0.0498595
-0.0108085
0.0507555
0.0058728
0.0504942
0.000598006
0.050702
-0.00593986
0.0506038
0.00843914
0.0505185
-0.00811332
0.0512701
0.00405231
0.0502898
0.00205809
0.0508951
-0.00585511
0.0519159
0.00707673
0.00226316
0.051103
0.049904
-0.00106321
0.0503484
0.0022117
0.0497613
-0.00341575
0.0505393
0.00291498
0.049844
-0.00231301
0.0502852
-0.0010051
0.0505905
0.00482386
0.0497025
-0.00916401
0.051209
0.0106691
0.0498434
-0.00944286
0.0507237
0.00499258
0.050672
0.000649657
0.0504854
-0.00575324
0.0508901
0.00803446
0.0505466
-0.00776985
0.0508392
0.00375974
0.0510855
0.00181179
0.0508659
-0.00563551
0.051031
0.0069116
0.00162033
0.0516738
0.0498966
-0.000959771
0.0503618
0.00174648
0.0497914
-0.00284538
0.0504839
0.00222253
0.0499747
-0.00180383
0.0501485
-0.00117895
0.0506808
0.00429158
0.049687
-0.00817019
0.0511172
0.00923882
0.0499345
-0.0082601
0.0506921
0.00423493
0.0506691
0.000672735
0.0505028
-0.00558696
0.0509082
0.00762904
0.050492
-0.00735365
0.05108
0.00317173
0.0507069
0.00218492
0.0507109
-0.00563956
0.0519363
0.00568624
0.00246027
0.0510963
0.0498986
-0.000858412
0.0503213
0.00132385
0.0498361
-0.00236026
0.0504377
0.00162095
0.0500089
-0.00137504
0.0501307
-0.00130072
0.0507214
0.0037009
0.0496094
-0.00705822
0.0511551
0.0076931
0.0499358
-0.00704079
0.0506061
0.00356469
0.0507954
0.000483366
0.0503646
-0.0051561
0.0510363
0.00695729
0.0504621
-0.00677944
0.0509226
0.00271123
0.051048
0.00205958
0.0507444
-0.00533596
0.0512693
0.00516136
0.00175781
0.0519717
0.0498981
-0.000756534
0.0503261
0.000895882
0.0498743
-0.00190844
0.0503854
0.00110979
0.05012
-0.00110959
0.0500221
-0.00120281
0.0508059
0.00291708
0.0496016
-0.0058539
0.0511143
0.0061804
0.0500004
-0.00592691
0.0506084
0.0029567
0.0508423
0.000249439
0.0502734
-0.00458721
0.0511575
0.0060732
0.0505026
-0.00612453
0.0508973
0.0023165
0.0509885
0.00196838
0.0508137
-0.0051611
0.0515964
0.0043786
0.00194251
0.0514117
0.0499112
-0.000667701
0.0503038
0.000503205
0.0499116
-0.0015162
0.0503524
0.000669017
0.0501699
-0.000927153
0.0499831
-0.001016
0.0508653
0.00203493
0.0495436
-0.00453219
0.051128
0.00459593
0.0500342
-0.00483308
0.0505174
0.00247351
0.0509577
-0.000190842
0.0501643
-0.0037938
0.0511912
0.00504625
0.0504867
-0.00541997
0.0508994
0.00190376
0.051103
0.00176485
0.0506828
-0.00474099
0.0515572
0.0035043
0.00167734
0.0518223
0.0499175
-0.000585168
0.0503094
0.000111244
0.0499308
-0.00113753
0.0503295
0.000270311
0.0502317
-0.000829393
0.0499426
-0.000726936
0.0509038
0.0010738
0.0495246
-0.00315306
0.0511218
0.0029988
0.0499826
-0.00369393
0.0505401
0.00191601
0.0509664
-0.000617085
0.0499657
-0.00279309
0.0512961
0.00371577
0.0503727
-0.00449653
0.0507485
0.00152799
0.051169
0.00134436
0.0505711
-0.00414316
0.0514615
0.00261389
0.00146637
0.0516725
0.04993
-0.000515183
0.0502734
-0.000232164
0.0499078
-0.000771954
0.050311
-0.000132876
0.0501281
-0.000646448
0.0499536
-0.000552421
0.050786
0.000241387
0.049363
-0.00173008
0.0511435
0.00121829
0.0495403
-0.00209073
0.0505858
0.000870564
0.0506263
-0.000657615
0.0494571
-0.00162387
0.0513327
0.0018401
0.0495411
-0.00270496
0.0504318
0.000637371
0.0510045
0.000771599
0.0495724
-0.00271101
0.0510129
0.00117339
0.00110239
0.0513769
0.0494848
0.0492527
0.0484807
0.0483478
0.0477014
0.047149
0.0473903
0.0456603
0.0468785
0.0447878
0.0456584
0.0450008
0.0433769
0.045217
0.042512
0.0431494
0.043921
0.04121
0.0423834
0.0434858
0.0353343
-0.00486329
0.00554236
0.0368087
0.00742626
-0.00890069
0.038715
0.0770178
-0.0789241
0.0459239
0.0370043
-0.0442131
0.0510748
-0.0717484
0.0665974
0.0455061
-0.115715
0.121284
0.0353514
-0.110394
0.120548
0.0275263
-0.0849957
0.0928208
0.0276213
-0.056011
0.055916
0.0292898
-0.0357061
0.0340376
0.0289051
-0.0284317
0.0288164
0.0277534
-0.0257918
0.0269436
0.0268865
-0.0222273
0.0230942
0.0263662
-0.0174489
0.0179692
0.0260206
-0.0126819
0.0130275
0.0257681
-0.00870899
0.00896151
0.0255877
-0.00575826
0.00593863
0.0254678
-0.0037279
0.00384782
0.0253938
-0.00239121
0.00246514
0.025351
-0.00152722
0.00157003
0.0253274
-0.000971654
0.000995283
0.0253148
-0.000615215
0.000627805
0.0253083
-0.00038738
0.000393925
0.0253049
-0.000242537
0.000245891
0.0253032
-0.000150995
0.00015271
0.0253023
-9.34869e-05
9.43693e-05
0.0253019
-5.75726e-05
5.80337e-05
0.0253016
-3.52639e-05
3.55098e-05
0.0253015
-2.14869e-05
2.16196e-05
0.0253014
-1.30204e-05
1.30941e-05
0.0253014
-7.84475e-06
7.88691e-06
0.0253013
-4.70069e-06
4.72444e-06
0.0253013
-2.79801e-06
2.81197e-06
0.0253013
-1.65634e-06
1.66358e-06
0.0253013
-9.72893e-07
9.77809e-07
0.0253013
-5.66377e-07
5.69536e-07
0.0253013
-3.28553e-07
3.29791e-07
0.0253013
-1.8859e-07
1.8939e-07
0.0253013
-1.0685e-07
1.07645e-07
0.0253013
-6.05891e-08
6.10235e-08
0.0253013
-3.17573e-08
3.18236e-08
0.0253013
-1.85726e-08
1.8975e-08
0.0253013
-9.17867e-09
9.94079e-09
0.0253013
-5.20938e-09
4.93342e-09
0.0253013
-3.95709e-09
3.12909e-09
0.0253013
-1.51224e-09
1.59014e-09
0.0253013
1.51455e-11
1.88204e-10
0.0253013
-7.0496e-10
5.75482e-10
0.0253013
-1.29341e-09
1.49861e-09
0.0253013
2.17385e-09
-1.91039e-09
0.0253013
-2.55746e-09
2.74627e-09
0.0253013
1.57646e-09
-1.68861e-09
0.0253013
-2.25101e-10
-5.0146e-10
0.0253013
-1.46841e-09
1.04836e-09
0.0253013
2.02267e-09
-1.67692e-09
0.0253013
-1.759e-09
2.14039e-09
0.0253013
1.29887e-09
-1.55944e-09
0.0253013
-8.98384e-10
5.13549e-10
0.0253013
-7.87974e-10
7.65924e-10
0.0253013
2.56864e-09
-2.30697e-09
0.0253013
-2.21597e-09
2.52777e-09
0.0253013
1.21058e-09
-1.32647e-09
0.0253013
1.05521e-09
-1.50187e-09
0.0253013
-2.46161e-09
2.44138e-09
0.0253013
2.29416e-09
-1.78121e-09
0.0253013
1.06705e-09
-4.73783e-10
0.0253013
-2.24952e-09
2.42962e-09
0.0253013
2.25259e-09
-2.57818e-09
0.0253013
-2.75733e-10
-1.87826e-10
0.0253013
-2.37556e-09
2.25503e-09
0.0253013
3.19339e-09
-2.90391e-09
0.0253013
-2.26798e-10
5.3408e-10
0.0253013
-2.99007e-09
2.90874e-09
0.0253013
2.74459e-09
-3.15083e-09
0.0253013
7.19904e-10
-1.14516e-09
0.0253013
-3.85772e-09
3.62093e-09
0.0253013
1.32174e-09
-1.27638e-09
0.0253013
3.38068e-09
-2.99979e-09
0.0253013
-2.18261e-09
2.53141e-09
0.0253013
-1.81207e-09
1.98544e-09
0.0253013
2.79217e-09
-2.86515e-09
0.0253013
7.55665e-10
-1.0008e-09
0.0253013
-2.2545e-09
2.14993e-09
0.0253013
-1.3287e-09
1.48176e-09
0.0253013
1.08152e-09
-9.19474e-10
0.0253013
7.43764e-10
-7.50317e-10
0.0253013
-2.07752e-09
1.71525e-09
0.0253013
-2.48491e-09
2.21922e-09
0.0253013
-2.86429e-10
1.52172e-10
0.0253013
2.45179e-09
-2.06277e-09
0.0253013
4.86701e-10
-1.42478e-10
0.0253013
-2.41614e-09
2.42774e-09
0.0253013
-1.91306e-09
2.04823e-09
0.0253013
1.64765e-09
-2.08454e-09
0.0253013
2.34026e-09
-2.03038e-09
0.0253013
5.42453e-10
-3.44578e-10
0.0253013
-5.68587e-10
-5.73509e-12
0.0253013
2.21478e-10
-2.69398e-10
0.0253013
3.15676e-10
-6.3356e-10
-3.18283e-11
-2.59648e-10
0.0471283
-0.00692701
0.0429855
0.011569
0.0428016
0.0772017
0.0518725
0.0279334
0.0535927
-0.0734686
0.0471697
-0.109292
0.0391394
-0.102363
0.0305669
-0.0764231
0.0269792
-0.0524233
0.0284727
-0.0371995
0.029177
-0.029136
0.0283256
-0.0249404
0.0273084
-0.0212101
0.0266405
-0.016781
0.0262111
-0.0122524
0.0259011
-0.00839898
0.0256758
-0.00553303
0.0255232
-0.00357522
0.0254278
-0.00229585
0.0253719
-0.00147128
0.0253403
-0.000940106
0.0253229
-0.000597782
0.0253133
-0.00037782
0.0253081
-0.000237284
0.0253052
-0.000148088
0.0253035
-9.18588e-05
0.0253026
-5.6644e-05
0.0253021
-3.47293e-05
0.0253018
-2.11784e-05
0.0253016
-1.28379e-05
0.0253015
-7.73447e-06
0.0253014
-4.63593e-06
0.0253014
-2.76264e-06
0.0253013
-1.63323e-06
0.0253013
-9.57994e-07
0.0253013
-5.59715e-07
0.0253013
-3.24246e-07
0.0253013
-1.83272e-07
0.0253013
-1.06144e-07
0.0253013
-6.08069e-08
0.0253013
-3.05483e-08
0.0253013
-1.59851e-08
0.0253013
-7.68941e-09
0.0253013
-7.71431e-09
0.0253013
-7.30642e-09
0.0253013
1.23024e-09
0.0253013
6.62289e-10
0.0253013
-2.96842e-09
0.0253013
5.25497e-10
0.0253013
1.70887e-09
0.0253013
-4.76629e-10
0.0253013
2.25342e-10
0.0253013
-2.94264e-09
0.0253013
-2.57782e-09
0.0253013
3.55748e-09
0.0253013
7.82819e-10
0.0253013
-1.54746e-09
0.0253013
-1.32236e-09
0.0253013
-6.9367e-10
0.0253013
2.29375e-09
0.0253013
1.24793e-09
0.0253013
-9.2961e-10
0.0253013
-1.5463e-09
0.0253013
-4.40797e-10
0.0253013
3.22978e-09
0.0253013
3.12004e-09
0.0253013
2.8977e-11
0.0253013
-1.42666e-09
0.0253013
-2.14214e-09
0.0253013
-5.74876e-10
0.0253013
2.40724e-09
0.0253013
1.77164e-09
0.0253013
-8.27625e-10
0.0253013
-1.70233e-09
0.0253013
-1.91775e-09
0.0253013
-1.06947e-09
0.0253013
1.1478e-09
0.0253013
2.14747e-09
0.0253013
1.83484e-09
0.0253013
8.62293e-10
0.0253013
-6.36734e-10
0.0253013
-1.45479e-09
0.0253013
-4.40195e-10
0.0253013
9.53761e-10
0.0253013
7.32126e-10
0.0253013
-7.82245e-10
0.0253013
-2.46668e-09
0.0253013
-2.08372e-09
0.0253013
-7.41748e-10
0.0253013
1.4492e-09
0.0253013
1.23288e-09
0.0253013
3.74687e-10
0.0253013
2.17338e-10
0.0253013
-3.68985e-10
0.0253013
1.21647e-09
0.0253013
8.26182e-10
0.0253013
-9.32512e-10
0.0253013
-2.89544e-10
0.0253013
-3.3137e-10
-2.72318e-10
0.0509043
-0.00752582
0.0422103
0.020263
0.0440592
0.0753529
0.0561701
0.0158225
0.0563305
-0.073629
0.0493271
-0.102289
0.0422186
-0.0952548
0.0379353
-0.0721398
0.0345578
-0.0490459
0.0329845
-0.0356263
0.031688
-0.0278395
0.02971
-0.0229624
0.027998
-0.0194981
0.0269857
-0.0157687
0.0264116
-0.0116784
0.0260305
-0.00801781
0.0257605
-0.00526306
0.0255773
-0.00339205
0.0254616
-0.00218013
0.0253927
-0.00140234
0.0253531
-0.000900539
0.0253308
-0.00057547
0.0253182
-0.000365274
0.0253111
-0.000230182
0.0253071
-0.000144022
0.0253047
-8.9503e-05
0.0253033
-5.52631e-05
0.0253025
-3.39136e-05
0.025302
-2.06932e-05
0.0253017
-1.25477e-05
0.0253016
-7.56056e-06
0.0253015
-4.53207e-06
0.0253014
-2.70044e-06
0.0253014
-1.59653e-06
0.0253013
-9.35496e-07
0.0253013
-5.46336e-07
0.0253013
-3.16641e-07
0.0253013
-1.79209e-07
0.0253013
-1.03592e-07
0.0253013
-5.86175e-08
0.0253013
-2.94596e-08
0.0253013
-1.58751e-08
0.0253013
-7.21014e-09
0.0253013
-7.47626e-09
0.0253013
-7.83579e-09
0.0253013
1.61748e-09
0.0253013
8.20852e-10
0.0253013
-3.27316e-09
0.0253013
1.01735e-09
0.0253013
1.53419e-09
0.0253013
-3.75855e-10
0.0253013
1.50686e-10
0.0253013
-3.2105e-09
0.0253013
-2.72282e-09
0.0253013
3.57934e-09
0.0253013
1.06408e-09
0.0253013
-1.91491e-09
0.0253013
-1.31482e-09
0.0253013
-5.66998e-10
0.0253013
2.06644e-09
0.0253013
1.70938e-09
0.0253013
-1.11397e-09
0.0253013
-1.87214e-09
0.0253013
-1.67283e-11
0.0253013
3.13774e-09
0.0253013
3.35717e-09
0.0253013
3.63578e-10
0.0253013
-1.90504e-09
0.0253013
-2.16336e-09
0.0253013
-3.06484e-10
0.0253013
2.10416e-09
0.0253013
1.8628e-09
0.0253013
-5.67559e-10
0.0253013
-2.24494e-09
0.0253013
-2.12432e-09
0.0253013
-6.55035e-10
0.0253013
9.12484e-10
0.0253013
1.8886e-09
0.0253013
2.33017e-09
0.0253013
1.23397e-09
0.0253013
-1.0022e-09
0.0253013
-1.6795e-09
0.0253013
-1.9466e-10
0.0253013
1.17228e-09
0.0253013
5.20206e-10
0.0253013
-1.05389e-09
0.0253013
-2.63143e-09
0.0253013
-1.84895e-09
0.0253013
-6.9704e-10
0.0253013
1.43081e-09
0.0253013
1.30778e-09
0.0253013
4.79999e-10
0.0253013
5.29115e-10
0.0253013
-1.0806e-09
0.0253013
1.36135e-09
0.0253013
1.14583e-09
0.0253013
-1.45204e-09
0.0253013
1.29229e-10
0.0253013
-3.04127e-10
-6.78607e-10
0.0562526
-0.0123381
0.0486938
0.0278218
0.0513132
0.0727335
0.0603914
0.0067443
0.0558431
-0.0690808
0.0485473
-0.0949929
0.0393727
-0.0860803
0.0318337
-0.0646007
0.0290713
-0.0462835
0.0295218
-0.0360768
0.0302892
-0.0286069
0.0296657
-0.022339
0.0283292
-0.0181616
0.0272585
-0.014698
0.0265923
-0.0110122
0.0261485
-0.007574
0.0258354
-0.00494999
0.0256243
-0.00318097
0.0254915
-0.00204734
0.0254119
-0.00132271
0.0253654
-0.000854016
0.0253385
-0.00054862
0.0253231
-0.000349818
0.0253141
-0.000221246
0.0253089
-0.00013881
0.0253059
-8.64328e-05
0.025304
-5.34386e-05
0.025303
-3.28225e-05
0.0253023
-2.00377e-05
0.0253019
-1.21526e-05
0.0253017
-7.32313e-06
0.0253015
-4.38947e-06
0.0253014
-2.61441e-06
0.0253014
-1.54534e-06
0.0253014
-9.04811e-07
0.0253013
-5.27875e-07
0.0253013
-3.06215e-07
0.0253013
-1.73374e-07
0.0253013
-9.9857e-08
0.0253013
-5.58509e-08
0.0253013
-2.81199e-08
0.0253013
-1.59632e-08
0.0253013
-7.17031e-09
0.0253013
-6.67363e-09
0.0253013
-7.62635e-09
0.0253013
1.6083e-09
0.0253013
1.08271e-09
0.0253013
-3.33965e-09
0.0253013
1.13413e-09
0.0253013
1.40484e-09
0.0253013
-6.63895e-10
0.0253013
2.62427e-10
0.0253013
-2.783e-09
0.0253013
-2.82319e-09
0.0253013
3.15627e-09
0.0253013
1.18359e-09
0.0253013
-2.01402e-09
0.0253013
-9.81644e-10
0.0253013
-5.31689e-10
0.0253013
1.68022e-09
0.0253013
1.66687e-09
0.0253013
-9.59207e-10
0.0253013
-1.54425e-09
0.0253013
3.21204e-11
0.0253013
2.89045e-09
0.0253013
3.10224e-09
0.0253013
2.72e-10
0.0253013
-1.64514e-09
0.0253013
-1.83207e-09
0.0253013
-2.95563e-10
0.0253013
1.90292e-09
0.0253013
1.56063e-09
0.0253013
-7.31051e-10
0.0253013
-1.99386e-09
0.0253013
-1.89873e-09
0.0253013
-6.75704e-10
0.0253013
9.21105e-10
0.0253013
1.73368e-09
0.0253013
2.09026e-09
0.0253013
1.25962e-09
0.0253013
-7.8011e-10
0.0253013
-1.51559e-09
0.0253013
-1.87965e-10
0.0253013
1.0728e-09
0.0253013
3.51148e-10
0.0253013
-1.20138e-09
0.0253013
-2.69803e-09
0.0253013
-1.61336e-09
0.0253013
-4.93812e-10
0.0253013
1.64969e-09
0.0253013
1.17931e-09
0.0253013
1.29585e-10
0.0253013
7.15947e-10
0.0253013
-1.58126e-09
0.0253013
1.69286e-09
0.0253013
1.43321e-09
0.0253013
-2.10685e-09
0.0253013
7.73407e-10
0.0253013
-9.42092e-11
-1.10636e-09
0.0543313
-0.013789
0.0524502
0.0297028
0.0603379
0.0648457
0.0637679
0.0033143
0.0550265
-0.0603394
0.0470939
-0.0870602
0.0451193
-0.0841057
0.0437712
-0.0632527
0.039131
-0.0416432
0.0344696
-0.0314154
0.0321347
-0.026272
0.0306096
-0.0208138
0.0289762
-0.0165282
0.0276438
-0.0133656
0.026802
-0.0101704
0.0262729
-0.00704486
0.025912
-0.00458914
0.0256691
-0.00293799
0.025517
-0.00189526
0.0254271
-0.00123277
0.0253751
-0.000802023
0.025345
-0.00051851
0.0253273
-0.000332197
0.0253169
-0.000210825
0.0253107
-0.000132596
0.025307
-8.27062e-05
0.0253047
-5.11947e-05
0.0253034
-3.14672e-05
0.0253026
-1.92177e-05
0.0253021
-1.16565e-05
0.0253018
-7.0239e-06
0.0253016
-4.20915e-06
0.0253015
-2.50554e-06
0.0253014
-1.48029e-06
0.0253014
-8.65846e-07
0.0253013
-5.04737e-07
0.0253013
-2.92927e-07
0.0253013
-1.65685e-07
0.0253013
-9.51049e-08
0.0253013
-5.25685e-08
0.0253013
-2.66026e-08
0.0253013
-1.60847e-08
0.0253013
-6.93291e-09
0.0253013
-5.7021e-09
0.0253013
-7.22828e-09
0.0253013
1.67629e-09
0.0253013
1.18284e-09
0.0253013
-3.37548e-09
0.0253013
1.25931e-09
0.0253013
1.32229e-09
0.0253013
-8.67594e-10
0.0253013
3.32892e-10
0.0253013
-2.54047e-09
0.0253013
-2.87852e-09
0.0253013
2.93913e-09
0.0253013
1.18266e-09
0.0253013
-1.99728e-09
0.0253013
-8.69466e-10
0.0253013
-4.31814e-10
0.0253013
1.43692e-09
0.0253013
1.63495e-09
0.0253013
-8.07818e-10
0.0253013
-1.46495e-09
0.0253013
9.84213e-11
0.0253013
2.70862e-09
0.0253013
2.94682e-09
0.0253013
2.85443e-10
0.0253013
-1.537e-09
0.0253013
-1.63409e-09
0.0253013
-2.39722e-10
0.0253013
1.69757e-09
0.0253013
1.36474e-09
0.0253013
-7.56683e-10
0.0253013
-1.87583e-09
0.0253013
-1.71269e-09
0.0253013
-6.43241e-10
0.0253013
7.79927e-10
0.0253013
1.63959e-09
0.0253013
2.00296e-09
0.0253013
1.26322e-09
0.0253013
-6.52366e-10
0.0253013
-1.40509e-09
0.0253013
-1.7558e-10
0.0253013
1.00257e-09
0.0253013
1.86122e-10
0.0253013
-1.2503e-09
0.0253013
-2.72723e-09
0.0253013
-1.38051e-09
0.0253013
-3.94021e-10
0.0253013
1.80781e-09
0.0253013
1.06666e-09
0.0253013
-1.32178e-10
0.0253013
9.06311e-10
0.0253013
-2.10447e-09
0.0253013
2.07421e-09
0.0253013
1.68127e-09
0.0253013
-2.73846e-09
0.0253013
1.40551e-09
0.0253013
4.50211e-11
-1.56892e-09
0.0494856
-0.0103556
0.0522399
0.0269485
0.062657
0.0544286
0.0645807
0.00139063
0.0562849
-0.0520436
0.0433808
-0.0741561
0.033894
-0.0746188
0.0330355
-0.0623942
0.0341649
-0.0427726
0.0323177
-0.0295682
0.0305508
-0.0245052
0.0297613
-0.0200244
0.0288868
-0.0156536
0.027841
-0.0123198
0.0269689
-0.00929836
0.0263713
-0.00644727
0.0259792
-0.00419705
0.0257201
-0.00267889
0.0255529
-0.00172798
0.0254496
-0.00112946
0.0253882
-0.000740699
0.0253526
-0.000482838
0.0253318
-0.000311461
0.0253196
-0.000198642
0.0253124
-0.000125341
0.025308
-7.83405e-05
0.0253054
-4.85513e-05
0.0253038
-2.98613e-05
0.0253028
-1.82414e-05
0.0253022
-1.10637e-05
0.0253018
-6.66538e-06
0.0253016
-3.99278e-06
0.0253015
-2.3747e-06
0.0253014
-1.40176e-06
0.0253014
-8.19125e-07
0.0253013
-4.7715e-07
0.0253013
-2.76829e-07
0.0253013
-1.5618e-07
0.0253013
-8.93222e-08
0.0253013
-4.88907e-08
0.0253013
-2.49116e-08
0.0253013
-1.60204e-08
0.0253013
-6.71796e-09
0.0253013
-4.56061e-09
0.0253013
-6.58726e-09
0.0253013
1.68462e-09
0.0253013
1.32149e-09
0.0253013
-3.38657e-09
0.0253013
1.3205e-09
0.0253013
1.20837e-09
0.0253013
-1.1396e-09
0.0253013
4.23569e-10
0.0253013
-2.16557e-09
0.0253013
-2.8532e-09
0.0253013
2.52662e-09
0.0253013
1.2489e-09
0.0253013
-1.98962e-09
0.0253013
-6.70752e-10
0.0253013
-3.10819e-10
0.0253013
1.09321e-09
0.0253013
1.54371e-09
0.0253013
-6.51845e-10
0.0253013
-1.23296e-09
0.0253013
1.59991e-10
0.0253013
2.48261e-09
0.0253013
2.71608e-09
0.0253013
2.04233e-10
0.0253013
-1.36969e-09
0.0253013
-1.32773e-09
0.0253013
-2.27937e-10
0.0253013
1.50674e-09
0.0253013
1.15254e-09
0.0253013
-8.79328e-10
0.0253013
-1.67857e-09
0.0253013
-1.46975e-09
0.0253013
-6.73527e-10
0.0253013
7.3608e-10
0.0253013
1.56939e-09
0.0253013
1.80403e-09
0.0253013
1.19715e-09
0.0253013
-4.87962e-10
0.0253013
-1.23375e-09
0.0253013
-1.66297e-10
0.0253013
9.04573e-10
0.0253013
4.46967e-11
0.0253013
-1.31407e-09
0.0253013
-2.73182e-09
0.0253013
-1.13607e-09
0.0253013
-2.87707e-10
0.0253013
1.99332e-09
0.0253013
9.02936e-10
0.0253013
-4.40198e-10
0.0253013
1.16584e-09
0.0253013
-2.62351e-09
0.0253013
2.47483e-09
0.0253013
1.87945e-09
0.0253013
-3.4568e-09
0.0253013
2.13451e-09
0.0253013
2.04611e-10
-2.03041e-09
0.0493672
-0.00819846
0.0518509
0.0244647
0.0620662
0.0442134
0.0642242
-0.000767341
0.0587917
-0.0466112
0.0522169
-0.0675813
0.0408763
-0.0632782
0.0319838
-0.0535018
0.0314143
-0.0422031
0.0318803
-0.0300342
0.0306104
-0.0232352
0.0295158
-0.0189298
0.0287555
-0.0148933
0.0279634
-0.0115277
0.0271583
-0.00849332
0.0264759
-0.00576481
0.0260005
-0.00372172
0.0257127
-0.00239112
0.025548
-0.00156325
0.0254519
-0.00103332
0.0253937
-0.000682488
0.0253578
-0.000446977
0.0253357
-0.000289397
0.0253223
-0.000185155
0.025314
-0.000117132
0.025309
-7.33482e-05
0.025306
-4.55137e-05
0.0253042
-2.8011e-05
0.025303
-1.71142e-05
0.0253023
-1.03785e-05
0.0253019
-6.25041e-06
0.0253017
-3.742e-06
0.0253015
-2.22286e-06
0.0253014
-1.31058e-06
0.0253014
-7.65065e-07
0.0253014
-4.45235e-07
0.0253013
-2.58079e-07
0.0253013
-1.44898e-07
0.0253013
-8.25652e-08
0.0253013
-4.49561e-08
0.0253013
-2.30463e-08
0.0253013
-1.57746e-08
0.0253013
-6.3183e-09
0.0253013
-3.3226e-09
0.0253013
-5.84404e-09
0.0253013
1.75228e-09
0.0253013
1.36008e-09
0.0253013
-3.40665e-09
0.0253013
1.36501e-09
0.0253013
1.14752e-09
0.0253013
-1.3056e-09
0.0253013
4.52118e-10
0.0253013
-1.87641e-09
0.0253013
-2.86566e-09
0.0253013
2.28231e-09
0.0253013
1.27756e-09
0.0253013
-1.94009e-09
0.0253013
-5.84616e-10
0.0253013
-2.16856e-10
0.0253013
8.72508e-10
0.0253013
1.47611e-09
0.0253013
-4.97631e-10
0.0253013
-1.14656e-09
0.0253013
1.81739e-10
0.0253013
2.31537e-09
0.0253013
2.53655e-09
0.0253013
1.93336e-10
0.0253013
-1.23897e-09
0.0253013
-1.16147e-09
0.0253013
-1.94284e-10
0.0253013
1.32653e-09
0.0253013
9.96521e-10
0.0253013
-8.89438e-10
0.0253013
-1.54916e-09
0.0253013
-1.29719e-09
0.0253013
-6.51018e-10
0.0253013
6.2458e-10
0.0253013
1.49058e-09
0.0253013
1.69989e-09
0.0253013
1.14826e-09
0.0253013
-3.82538e-10
0.0253013
-1.12166e-09
0.0253013
-1.59256e-10
0.0253013
8.45385e-10
0.0253013
-8.99918e-11
0.0253013
-1.31543e-09
0.0253013
-2.69954e-09
0.0253013
-8.82155e-10
0.0253013
-2.72686e-10
0.0253013
2.12203e-09
0.0253013
7.26555e-10
0.0253013
-6.48036e-10
0.0253013
1.46548e-09
0.0253013
-3.19834e-09
0.0253013
2.94541e-09
0.0253013
1.99369e-09
0.0253013
-4.15732e-09
0.0253013
2.91207e-09
0.0253013
2.75234e-10
-2.52692e-09
0.0480123
-0.00453904
0.0515294
0.0209476
0.0608212
0.0349216
0.0609422
-0.000888339
0.0567123
-0.0423813
0.0532007
-0.0640697
0.0486454
-0.058723
0.0404231
-0.0452794
0.0351771
-0.0369571
0.03388
-0.028737
0.0318186
-0.0211739
0.0297258
-0.016837
0.0285381
-0.0137056
0.0277842
-0.0107737
0.0271846
-0.0078937
0.0266477
-0.00522791
0.0261797
-0.00325374
0.0258277
-0.00203907
0.0256032
-0.00133873
0.0254742
-0.000904356
0.0254027
-0.00061094
0.0253623
-0.000406556
0.0253385
-0.000265682
0.0253242
-0.000170809
0.0253154
-0.000108315
0.0253099
-6.79064e-05
0.0253066
-4.21595e-05
0.0253045
-2.59491e-05
0.0253033
-1.58507e-05
0.0253025
-9.60782e-06
0.025302
-5.7827e-06
0.0253017
-3.45892e-06
0.0253016
-2.05133e-06
0.0253015
-1.20755e-06
0.0253014
-7.04135e-07
0.0253014
-4.09253e-07
0.0253013
-2.36743e-07
0.0253013
-1.31978e-07
0.0253013
-7.50042e-08
0.0253013
-4.07636e-08
0.0253013
-2.09722e-08
0.0253013
-1.52243e-08
0.0253013
-5.82201e-09
0.0253013
-2.02056e-09
0.0253013
-4.97641e-09
0.0253013
1.7601e-09
0.0253013
1.37372e-09
0.0253013
-3.38369e-09
0.0253013
1.41176e-09
0.0253013
1.06492e-09
0.0253013
-1.53187e-09
0.0253013
5.15265e-10
0.0253013
-1.55377e-09
0.0253013
-2.77279e-09
0.0253013
1.93839e-09
0.0253013
1.29721e-09
0.0253013
-1.86664e-09
0.0253013
-4.8062e-10
0.0253013
-8.02919e-11
0.0253013
6.14572e-10
0.0253013
1.34657e-09
0.0253013
-3.48354e-10
0.0253013
-9.92013e-10
0.0253013
2.21621e-10
0.0253013
2.13431e-09
0.0253013
2.31583e-09
0.0253013
1.26625e-10
0.0253013
-1.1212e-09
0.0253013
-9.21776e-10
0.0253013
-1.69184e-10
0.0253013
1.15118e-09
0.0253013
8.40569e-10
0.0253013
-9.33185e-10
0.0253013
-1.40831e-09
0.0253013
-1.08856e-09
0.0253013
-6.51329e-10
0.0253013
5.54605e-10
0.0253013
1.44359e-09
0.0253013
1.54343e-09
0.0253013
1.04666e-09
0.0253013
-2.85885e-10
0.0253013
-9.72937e-10
0.0253013
-1.33707e-10
0.0253013
7.62024e-10
0.0253013
-2.1032e-10
0.0253013
-1.30597e-09
0.0253013
-2.64796e-09
0.0253013
-6.18205e-10
0.0253013
-2.76832e-10
0.0253013
2.26124e-09
0.0253013
5.22444e-10
0.0253013
-8.65483e-10
0.0253013
1.80972e-09
0.0253013
-3.79275e-09
0.0253013
3.46369e-09
0.0253013
2.05128e-09
0.0253013
-4.93589e-09
0.0253013
3.78651e-09
0.0253013
3.48699e-10
-3.03568e-09
0.0488795
-0.0023966
0.0523084
0.0175187
0.0589763
0.0282537
0.0603338
-0.00224589
0.0544674
-0.0365149
0.0423496
-0.0519519
0.0362361
-0.0526094
0.0355196
-0.0445629
0.0346334
-0.0360709
0.0347446
-0.0288483
0.0337402
-0.0201695
0.0311248
-0.0142216
0.029154
-0.0117348
0.027961
-0.00958077
0.0270217
-0.00695438
0.0263486
-0.00455479
0.0259593
-0.00286453
0.0257355
-0.00181521
0.0255884
-0.00119161
0.0254853
-0.000801271
0.0254156
-0.000541234
0.025371
-0.000362008
0.0253436
-0.000238281
0.025327
-0.000154211
0.025317
-9.82676e-05
0.0253109
-6.17957e-05
0.0253071
-3.84283e-05
0.0253049
-2.36662e-05
0.0253035
-1.4454e-05
0.0253026
-8.75611e-06
0.0253021
-5.26564e-06
0.0253018
-3.1457e-06
0.0253016
-1.8615e-06
0.0253015
-1.09363e-06
0.0253014
-6.36842e-07
0.0253014
-3.69419e-07
0.0253013
-2.12982e-07
0.0253013
-1.17619e-07
0.0253013
-6.66986e-08
0.0253013
-3.63196e-08
0.0253013
-1.86903e-08
0.0253013
-1.43604e-08
0.0253013
-5.15369e-09
0.0253013
-7.1085e-10
0.0253013
-4.10162e-09
0.0253013
1.76892e-09
0.0253013
1.34875e-09
0.0253013
-3.34332e-09
0.0253013
1.42787e-09
0.0253013
1.00555e-09
0.0253013
-1.65064e-09
0.0253013
5.24181e-10
0.0253013
-1.26343e-09
0.0253013
-2.7038e-09
0.0253013
1.67267e-09
0.0253013
1.32338e-09
0.0253013
-1.77207e-09
0.0253013
-4.35714e-10
0.0253013
1.4895e-11
0.0253013
4.39072e-10
0.0253013
1.23651e-09
0.0253013
-2.13363e-10
0.0253013
-8.94964e-10
0.0253013
2.17023e-10
0.0253013
1.96719e-09
0.0253013
2.12274e-09
0.0253013
9.72031e-11
0.0253013
-9.92416e-10
0.0253013
-7.69102e-10
0.0253013
-1.58555e-10
0.0253013
9.91654e-10
0.0253013
7.28926e-10
0.0253013
-9.21976e-10
0.0253013
-1.27798e-09
0.0253013
-9.35347e-10
0.0253013
-6.25592e-10
0.0253013
4.70186e-10
0.0253013
1.36527e-09
0.0253013
1.43242e-09
0.0253013
9.54333e-10
0.0253013
-2.1609e-10
0.0253013
-8.50926e-10
0.0253013
-1.26429e-10
0.0253013
7.01623e-10
0.0253013
-3.15154e-10
0.0253013
-1.24605e-09
0.0253013
-2.56849e-09
0.0253013
-3.43564e-10
0.0253013
-3.64068e-10
0.0253013