/*--------------------------------*- C++ -*----------------------------------*\
| =========                 |                                                 |
| \\      /  F ield         | OpenFOAM: The Open Source CFD Toolbox           |
|  \\    /   O peration     | Version:  2.4.0                                 |
|   \\  /    A nd           | Web:      www.OpenFOAM.org                      |
|    \\/     M anipulation  |                                                 |
\*---------------------------------------------------------------------------*/
FoamFile
{
    version     2.0;
    format      ascii;
    class       volVectorField;
    location    "0.68";
    object      U;
}
// * * * * * * * * * * * * * * * * * * * * * * * * * * * * * * * * * * * * * //

dimensions      [0 1 -1 0 0 0 0];

internalField   nonuniform List<vector> 
4400
(
(9.30019 -0.0219868 0)
(10.5983 0.00600916 0)
(9.01494 0.0371997 0)
(10.7494 0.0321404 0)
(8.05195 -0.00184883 0)
(11.4608 0.0941499 0)
(6.35794 -0.00455063 0)
(12.4406 0.0512009 0)
(4.6888 -0.0257632 0)
(12.7818 0.217142 0)
(5.40226 -0.218818 0)
(10.1221 0.19266 0)
(9.14017 0.234707 0)
(5.99015 -0.221182 0)
(10.0171 0.236488 0)
(8.1575 0.335951 0)
(4.8569 -0.27901 0)
(11.3112 0.20605 0)
(5.1095 0.30875 0)
(7.47758 0.0586869 0)
(9.18925 0.0268262 0)
(10.8944 0.0767415 0)
(8.4458 -0.0691936 0)
(12.2509 0.160774 0)
(6.57541 -0.119599 0)
(13.828 0.226117 0)
(4.66779 -0.131696 0)
(14.8076 0.19778 0)
(4.45905 0.0799519 0)
(12.9933 -0.437894 0)
(9.33867 0.787553 0)
(6.71118 -0.867309 0)
(12.8749 0.32437 0)
(6.41538 0.246799 0)
(10.4397 -0.799182 0)
(10.0937 0.525549 0)
(8.01813 -0.149823 0)
(11.1285 -0.412209 0)
(8.35399 0.369167 0)
(9.05468 -0.294141 0)
(9.47295 -0.0432948 0)
(10.7897 0.161538 0)
(8.77707 -0.246151 0)
(12.008 0.373271 0)
(7.08965 -0.345359 0)
(13.6894 0.402715 0)
(6.16226 -0.139375 0)
(13.4178 -0.0474324 0)
(9.04893 0.479213 0)
(9.51377 -0.901497 0)
(11.0731 0.863139 0)
(9.61944 -0.418077 0)
(10.3142 0.116996 0)
(10.1737 0.428212 0)
(11.1179 -0.550792 0)
(9.38173 0.740612 0)
(10.3957 -0.237672 0)
(11.2792 -0.118538 0)
(9.39671 0.763108 0)
(10.2358 -0.0224939 0)
(9.64215 -0.0408652 0)
(10.4682 0.228903 0)
(9.23556 -0.314095 0)
(11.2962 0.471984 0)
(8.67574 -0.430335 0)
(12.0579 0.387743 0)
(9.32113 0.0167082 0)
(11.1211 -0.433103 0)
(10.6026 0.86741 0)
(10.0842 -0.953022 0)
(10.1773 0.885171 0)
(11.3571 -0.378877 0)
(10.0924 0.0072756 0)
(10.5776 0.399498 0)
(11.1865 -0.763829 0)
(9.95854 0.638439 0)
(10.906 -0.174125 0)
(10.7296 -0.375245 0)
(10.9342 0.528432 0)
(9.77418 -0.196206 0)
(9.78216 -0.0623509 0)
(10.2975 0.245792 0)
(9.78607 -0.391429 0)
(10.4789 0.497583 0)
(9.84057 -0.446222 0)
(10.6764 0.276221 0)
(10.3344 0.128888 0)
(9.99687 -0.484605 0)
(11.0017 0.849702 0)
(9.9188 -0.819534 0)
(10.3808 0.696867 0)
(11.1419 -0.319782 0)
(9.59426 0.0282138 0)
(11.0487 0.293708 0)
(10.732 -0.482869 0)
(9.59548 0.648951 0)
(10.9469 -0.256221 0)
(10.9139 -0.355645 0)
(10.0819 0.87346 0)
(10.1715 -0.0197267 0)
(9.94517 -0.0652219 0)
(10.0237 0.23177 0)
(10.0342 -0.32334 0)
(10.0013 0.426971 0)
(10.2525 -0.400833 0)
(9.83456 0.226403 0)
(10.6485 0.185232 0)
(9.66013 -0.576889 0)
(10.5078 0.919188 0)
(10.6531 -0.82073 0)
(9.64895 0.539846 0)
(11.4966 -0.0966019 0)
(9.4439 -0.175595 0)
(11.0803 0.412938 0)
(10.5717 -0.501834 0)
(9.69017 0.468596 0)
(11.2057 -0.138346 0)
(10.479 -0.28936 0)
(9.4558 0.710909 0)
(11.2598 -0.191359 0)
(9.86966 -0.0517405 0)
(10.1304 0.218465 0)
(10.0163 -0.362479 0)
(9.94532 0.407736 0)
(10.2867 -0.369707 0)
(9.71454 0.126291 0)
(10.4166 0.257736 0)
(9.94391 -0.568005 0)
(10.0304 0.793984 0)
(10.6372 -0.701403 0)
(9.59245 0.44961 0)
(10.9478 -0.13029 0)
(9.44614 -0.0735394 0)
(10.6667 0.20517 0)
(10.4434 -0.304741 0)
(9.6473 0.407148 0)
(10.8509 -0.226164 0)
(10.1253 -0.195056 0)
(9.86495 0.665381 0)
(10.7561 -0.105967 0)
(9.97876 -0.066846 0)
(10.0389 0.187653 0)
(10.055 -0.266165 0)
(9.89338 0.323268 0)
(10.3197 -0.310252 0)
(9.63757 0.145593 0)
(10.459 0.191662 0)
(9.91342 -0.523012 0)
(9.88634 0.76657 0)
(10.6146 -0.693024 0)
(9.46684 0.367152 0)
(10.5058 0.0571171 0)
(10.0039 -0.268177 0)
(9.89979 0.316582 0)
(10.5211 -0.271728 0)
(9.78658 0.237095 0)
(10.4637 -0.0739486 0)
(9.95618 -0.185994 0)
(9.84509 0.502606 0)
(10.7577 -0.0686925 0)
(9.94407 -0.0504993 0)
(10.0346 0.190095 0)
(10.0832 -0.298381 0)
(9.84558 0.309248 0)
(10.3469 -0.262844 0)
(9.59659 0.0430611 0)
(10.4667 0.261708 0)
(9.8475 -0.519909 0)
(9.97429 0.663137 0)
(10.4612 -0.590225 0)
(9.66339 0.358464 0)
(10.2429 -0.0645196 0)
(10.2515 -0.139048 0)
(9.77961 0.264949 0)
(10.4016 -0.332813 0)
(9.98842 0.285305 0)
(10.2026 -0.0479427 0)
(10.1478 -0.191354 0)
(9.88193 0.463158 0)
(10.6416 -0.0549023 0)
(9.95566 -0.0570135 0)
(10.0681 0.134533 0)
(10.0225 -0.199107 0)
(9.923 0.224298 0)
(10.238 -0.211342 0)
(9.71496 0.0691695 0)
(10.3245 0.194907 0)
(9.97731 -0.473612 0)
(9.8963 0.661254 0)
(10.502 -0.60073 0)
(9.74684 0.32263 0)
(10.2128 0.0573467 0)
(10.4086 -0.287354 0)
(9.69811 0.339248 0)
(10.5054 -0.285996 0)
(10.1054 0.161015 0)
(10.0681 0.0272314 0)
(10.3899 -0.189242 0)
(9.93882 0.338518 0)
(10.5676 0.0105991 0)
(9.97633 -0.050976 0)
(10.0241 0.156903 0)
(10.0431 -0.230603 0)
(9.92688 0.217275 0)
(10.2082 -0.168174 0)
(9.78943 -0.0221671 0)
(10.2692 0.247992 0)
(10.0251 -0.454397 0)
(9.87449 0.540048 0)
(10.5032 -0.481565 0)
(9.66003 0.300265 0)
(10.3686 -0.0430326 0)
(10.1631 -0.187512 0)
(9.78907 0.362029 0)
(10.5944 -0.394538 0)
(9.76314 0.249999 0)
(10.1902 0.0550489 0)
(10.3598 -0.239675 0)
(9.87892 0.363504 0)
(10.3016 0.0492227 0)
(9.96572 -0.0470219 0)
(10.0401 0.0956975 0)
(10.0393 -0.150102 0)
(9.92103 0.153816 0)
(10.2077 -0.14061 0)
(9.80561 0.0138081 0)
(10.2251 0.189996 0)
(10.0637 -0.419047 0)
(9.857 0.543878 0)
(10.4472 -0.483122 0)
(9.75553 0.239204 0)
(10.2508 0.062715 0)
(10.218 -0.263985 0)
(9.8659 0.303133 0)
(10.4049 -0.270453 0)
(10.0384 0.148805 0)
(10.1223 0.0292851 0)
(10.2298 -0.189274 0)
(10.1813 0.288543 0)
(10.2613 0.0688353 0)
(9.98251 -0.0465434 0)
(10.0211 0.11488 0)
(10.0286 -0.166048 0)
(9.95342 0.138103 0)
(10.1551 -0.0978057 0)
(9.86376 -0.058265 0)
(10.1904 0.219031 0)
(10.0755 -0.384354 0)
(9.86177 0.43328 0)
(10.4442 -0.385723 0)
(9.75472 0.230426 0)
(10.2607 -0.00857066 0)
(10.2354 -0.217918 0)
(9.81554 0.36872 0)
(10.519 -0.368488 0)
(9.95315 0.164943 0)
(10.0606 0.130205 0)
(10.5734 -0.268243 0)
(9.86383 0.2712 0)
(10.2327 0.102052 0)
(9.97763 -0.0380506 0)
(10.0212 0.0642759 0)
(10.0405 -0.110677 0)
(9.94028 0.0975083 0)
(10.1608 -0.0891201 0)
(9.88935 -0.0235024 0)
(10.1396 0.168668 0)
(10.1286 -0.348569 0)
(9.84067 0.416364 0)
(10.4062 -0.365456 0)
(9.83039 0.168331 0)
(10.1901 0.0556094 0)
(10.2676 -0.236772 0)
(9.84357 0.278058 0)
(10.4378 -0.260895 0)
(10.033 0.142698 0)
(10.1037 0.0221878 0)
(10.3318 -0.191663 0)
(10.0842 0.283894 0)
(10.3905 0.0361489 0)
(9.98635 -0.0388464 0)
(10.0134 0.0730178 0)
(10.0316 -0.113749 0)
(9.96082 0.077607 0)
(10.1338 -0.0540632 0)
(9.91324 -0.0698047 0)
(10.1337 0.173492 0)
(10.1182 -0.304692 0)
(9.85241 0.3252 0)
(10.3924 -0.298351 0)
(9.84066 0.167642 0)
(10.1703 0.00297101 0)
(10.2912 -0.215647 0)
(9.82842 0.328909 0)
(10.4399 -0.319751 0)
(10.0348 0.104974 0)
(10.0619 0.143408 0)
(10.4704 -0.250098 0)
(10.0009 0.171168 0)
(10.205 0.146761 0)
(9.9847 -0.0299372 0)
(10.0116 0.0350794 0)
(10.0409 -0.0773831 0)
(9.95537 0.0538331 0)
(10.134 -0.0562859 0)
(9.93601 -0.0353569 0)
(10.0993 0.124672 0)
(10.1498 -0.259806 0)
(9.84977 0.288845 0)
(10.3647 -0.262019 0)
(9.88986 0.118882 0)
(10.1418 0.0316591 0)
(10.2994 -0.192594 0)
(9.8459 0.232307 0)
(10.4132 -0.229688 0)
(10.0866 0.117417 0)
(10.0294 0.0302991 0)
(10.4285 -0.186247 0)
(10.1096 0.239914 0)
(10.2472 0.00483868 0)
(9.98912 -0.0305004 0)
(10.0091 0.0343676 0)
(10.037 -0.0734023 0)
(9.96811 0.0328505 0)
(10.1214 -0.0323616 0)
(9.9502 -0.0603653 0)
(10.096 0.107729 0)
(10.1465 -0.207638 0)
(9.85475 0.205174 0)
(10.3554 -0.210301 0)
(9.90516 0.112449 0)
(10.1146 -0.00913552 0)
(10.3263 -0.176903 0)
(9.84455 0.248191 0)
(10.3808 -0.250514 0)
(10.1142 0.0620717 0)
(10.0288 0.119658 0)
(10.4327 -0.216992 0)
(10.0868 0.110895 0)
(10.2533 0.13993 0)
(9.9907 -0.0223016 0)
(10.0052 0.00804477 0)
(10.0466 -0.0481635 0)
(9.96285 0.022247 0)
(10.1286 -0.0409398 0)
(9.95175 -0.0209268 0)
(10.0992 0.0558988 0)
(10.1358 -0.15317 0)
(9.87505 0.162798 0)
(10.3259 -0.17667 0)
(9.90866 0.0888385 0)
(10.1368 -0.0114071 0)
(10.273 -0.125239 0)
(9.86939 0.162068 0)
(10.3664 -0.19228 0)
(10.0802 0.0938838 0)
(10.0297 0.0265965 0)
(10.4099 -0.171763 0)
(10.0912 0.167476 0)
(10.2288 0.002944 0)
(10.0008 -0.0270166 0)
(9.99189 -0.000217548 0)
(10.0523 -0.044368 0)
(9.94627 -0.0018874 0)
(10.1481 -0.025844 0)
(9.87599 -0.0381213 0)
(10.1971 0.0312692 0)
(9.97207 -0.103066 0)
(9.98721 0.0800596 0)
(10.2179 -0.117921 0)
(9.83272 0.0596408 0)
(10.2491 -0.0319813 0)
(9.98526 -0.100433 0)
(9.99972 0.135183 0)
(10.2293 -0.158927 0)
(9.87633 0.0228627 0)
(10.1313 0.0816389 0)
(10.2002 -0.156583 0)
(9.91961 0.0405083 0)
(10.2283 0.110541 0)
(9.94944 -0.00923141 0)
(9.85242 -0.0162292 0)
(9.7946 -0.0167282 0)
(9.63599 -0.00801282 0)
(9.67723 -0.0248667 0)
(9.36953 -0.00511023 0)
(9.58693 -0.0126406 0)
(9.22087 -0.0331418 0)
(9.25525 0.0153734 0)
(9.2525 -0.0480086 0)
(8.88216 0.0135651 0)
(9.24748 -0.0236624 0)
(8.71207 -0.0287192 0)
(8.85609 0.0134873 0)
(8.93283 -0.0547772 0)
(8.33487 0.0306066 0)
(8.79076 -0.0205473 0)
(8.6726 -0.0534801 0)
(8.09605 0.0494637 0)
(8.63052 -0.0199788 0)
(7.58314 -0.278205 0)
(7.17704 0.0474908 0)
(6.93647 3.13412 0)
(7.55338 1.64893 0)
(11.2541 -2.67064 0)
(10.1539 -4.61648 0)
(8.31591 -4.37851 0)
(5.72555 -3.34363 0)
(5.19043 -2.09948 0)
(5.74042 -1.28281 0)
(5.84494 -1.05729 0)
(5.62129 -0.991796 0)
(5.41185 -0.859341 0)
(5.2944 -0.667949 0)
(5.22255 -0.480648 0)
(5.16945 -0.328373 0)
(5.12946 -0.216304 0)
(5.10155 -0.13925 0)
(5.08366 -0.0886184 0)
(5.07298 -0.056091 0)
(5.06697 -0.0353604 0)
(5.06374 -0.0221892 0)
(5.06205 -0.0138514 0)
(5.06118 -0.00859993 0)
(5.06074 -0.00531096 0)
(5.06052 -0.00326247 0)
(5.0604 -0.00199401 0)
(5.06034 -0.00121229 0)
(5.0603 -0.000733326 0)
(5.06029 -0.000441197 0)
(5.06028 -0.000263961 0)
(5.06027 -0.000157066 0)
(5.06027 -9.28463e-05 0)
(5.06026 -5.45436e-05 0)
(5.06026 -3.18542e-05 0)
(5.06026 -1.84198e-05 0)
(5.06026 -1.05933e-05 0)
(5.06026 -6.05644e-06 0)
(5.06026 -3.3936e-06 0)
(5.06026 -1.94495e-06 0)
(5.06026 -1.01702e-06 0)
(5.06026 -5.95192e-07 0)
(5.06026 -3.16583e-07 0)
(5.06026 -1.57256e-07 0)
(5.06026 -8.00907e-08 0)
(5.06026 -7.47359e-08 0)
(5.06026 6.18884e-10 0)
(5.06026 5.05268e-09 0)
(5.06026 -8.04198e-08 0)
(5.06026 1.03978e-07 0)
(5.06026 -1.0935e-07 0)
(5.06026 5.00347e-08 0)
(5.06026 6.68239e-09 0)
(5.06026 -4.37474e-08 0)
(5.06026 6.84153e-08 0)
(5.06026 -8.41426e-08 0)
(5.06026 7.63201e-08 0)
(5.06026 -4.60773e-08 0)
(5.06026 -1.97401e-08 0)
(5.06026 1.02191e-07 0)
(5.06026 -1.10414e-07 0)
(5.06026 5.34008e-08 0)
(5.06026 5.46182e-08 0)
(5.06026 -1.07433e-07 0)
(5.06026 8.62146e-08 0)
(5.06026 2.43465e-08 0)
(5.06026 -9.8968e-08 0)
(5.06026 9.87847e-08 0)
(5.06026 -1.90828e-09 0)
(5.06026 -9.32483e-08 0)
(5.06026 1.21955e-07 0)
(5.06026 -1.56758e-08 0)
(5.06026 -1.2046e-07 0)
(5.06026 1.23012e-07 0)
(5.06026 3.74706e-08 0)
(5.06026 -1.54918e-07 0)
(5.06026 5.2481e-08 0)
(5.06026 1.31476e-07 0)
(5.06026 -9.78934e-08 0)
(5.06026 -8.47441e-08 0)
(5.06026 1.13328e-07 0)
(5.06026 4.19124e-08 0)
(5.06026 -8.66854e-08 0)
(5.06026 -5.13328e-08 0)
(5.06026 4.4744e-08 0)
(5.06026 4.10226e-08 0)
(5.06026 -5.65002e-08 0)
(5.06026 -8.29003e-08 0)
(5.06026 -4.4525e-09 0)
(5.06027 8.4284e-08 0)
(5.06025 1.15624e-08 0)
(5.06027 -8.47195e-08 0)
(5.06025 -6.861e-08 0)
(5.06027 7.11114e-08 0)
(5.06025 6.81944e-08 0)
(5.06026 2.11895e-09 0)
(5.06027 -1.96253e-08 0)
(5.06025 -1.50524e-08 0)
(5.06027 9.65809e-10 0)
(5.06026 8.22492e-09 0)
(9.6819 -0.17186 0)
(9.72343 0.35967 0)
(6.85929 2.89014 0)
(9.26747 1.34166 0)
(11.9692 -2.92714 0)
(10.4002 -4.65429 0)
(8.69798 -4.39296 0)
(6.89197 -3.22463 0)
(5.23656 -2.1799 0)
(5.43732 -1.49671 0)
(5.83583 -1.15974 0)
(5.7481 -0.986935 0)
(5.51471 -0.83032 0)
(5.35929 -0.650135 0)
(5.2665 -0.469233 0)
(5.20044 -0.318255 0)
(5.15048 -0.208205 0)
(5.11495 -0.133878 0)
(5.09187 -0.0854758 0)
(5.07798 -0.0543555 0)
(5.07005 -0.0344185 0)
(5.06565 -0.0216801 0)
(5.06325 -0.0135769 0)
(5.06193 -0.00845239 0)
(5.0612 -0.00523139 0)
(5.0608 -0.00321931 0)
(5.06057 -0.00197013 0)
(5.06044 -0.001199 0)
(5.06037 -0.000725787 0)
(5.06033 -0.00043688 0)
(5.0603 -0.000261433 0)
(5.06028 -0.000155571 0)
(5.06027 -9.20109e-05 0)
(5.06027 -5.40962e-05 0)
(5.06027 -3.1537e-05 0)
(5.06026 -1.82328e-05 0)
(5.06026 -1.05076e-05 0)
(5.06026 -5.97554e-06 0)
(5.06026 -3.40489e-06 0)
(5.06026 -1.89876e-06 0)
(5.06026 -9.77001e-07 0)
(5.06026 -5.65881e-07 0)
(5.06026 -2.69109e-07 0)
(5.06026 -1.82024e-07 0)
(5.06026 -1.66237e-07 0)
(5.06026 -1.07532e-08 0)
(5.06026 1.79276e-10 0)
(5.06026 -5.15422e-08 0)
(5.06026 2.33564e-10 0)
(5.06026 2.70405e-08 0)
(5.06026 -3.85856e-08 0)
(5.06026 3.26735e-08 0)
(5.06026 -1.87073e-08 0)
(5.06026 -4.17432e-08 0)
(5.06026 5.3042e-08 0)
(5.06026 -1.02781e-08 0)
(5.06026 -4.36641e-09 0)
(5.06026 -7.75388e-09 0)
(5.06026 -1.64126e-08 0)
(5.06026 3.77833e-08 0)
(5.06026 -6.01705e-09 0)
(5.06026 5.10019e-09 0)
(5.06026 8.85648e-10 0)
(5.06026 -2.37024e-08 0)
(5.06026 4.0787e-08 0)
(5.06026 2.8e-08 0)
(5.06026 -1.89832e-08 0)
(5.06026 1.31564e-08 0)
(5.06026 -9.68299e-09 0)
(5.06026 -2.38763e-08 0)
(5.06026 4.20347e-08 0)
(5.06026 8.21511e-09 0)
(5.06026 -2.80363e-08 0)
(5.06026 9.01021e-09 0)
(5.06026 -4.98191e-09 0)
(5.06026 -2.98886e-08 0)
(5.06026 1.78814e-08 0)
(5.06026 3.4252e-08 0)
(5.06026 -1.42026e-09 0)
(5.06026 7.1469e-10 0)
(5.06026 1.48226e-08 0)
(5.06026 -6.29633e-09 0)
(5.06026 -1.5151e-08 0)
(5.06026 -3.612e-09 0)
(5.06026 4.72781e-09 0)
(5.06026 -8.74373e-09 0)
(5.06026 -3.58314e-08 0)
(5.06026 -2.91274e-08 0)
(5.06026 -5.89455e-09 0)
(5.06027 2.74752e-08 0)
(5.06025 8.93626e-09 0)
(5.06027 -1.57469e-08 0)
(5.06025 -1.13374e-08 0)
(5.06027 1.4838e-10 0)
(5.06025 2.61878e-08 0)
(5.06026 2.00067e-08 0)
(5.06027 -4.90948e-09 0)
(5.06025 2.22157e-08 0)
(5.06027 1.09655e-08 0)
(5.06026 -9.74759e-09 0)
(10.5932 -0.360642 0)
(10.2325 0.766976 0)
(5.99195 3.37148 0)
(10.6889 0.865394 0)
(12.3302 -2.82711 0)
(11.073 -3.91251 0)
(8.87 -3.71013 0)
(7.99722 -2.85514 0)
(7.10132 -1.89653 0)
(6.5957 -1.3151 0)
(6.47564 -1.03571 0)
(6.11762 -0.895193 0)
(5.70167 -0.764668 0)
(5.44765 -0.609555 0)
(5.31494 -0.448942 0)
(5.23115 -0.307424 0)
(5.1706 -0.200363 0)
(5.12793 -0.12784 0)
(5.10001 -0.0813388 0)
(5.08298 -0.0518369 0)
(5.07311 -0.0329993 0)
(5.06753 -0.0209095 0)
(5.06441 -0.0131619 0)
(5.06265 -0.00822674 0)
(5.06166 -0.00510659 0)
(5.06108 -0.0031493 0)
(5.06075 -0.00192995 0)
(5.06055 -0.00117571 0)
(5.06043 -0.000712351 0)
(5.06036 -0.000428911 0)
(5.06032 -0.000256574 0)
(5.0603 -0.000152786 0)
(5.06028 -9.04757e-05 0)
(5.06027 -5.30719e-05 0)
(5.06027 -3.08733e-05 0)
(5.06027 -1.79834e-05 0)
(5.06026 -1.03478e-05 0)
(5.06026 -5.73847e-06 0)
(5.06026 -3.29253e-06 0)
(5.06026 -1.89343e-06 0)
(5.06026 -9.26133e-07 0)
(5.06026 -4.19139e-07 0)
(5.06026 -1.85242e-07 0)
(5.06026 -2.68004e-07 0)
(5.06026 -2.69862e-07 0)
(5.06026 8.00998e-08 0)
(5.06026 3.5855e-08 0)
(5.06026 -1.16803e-07 0)
(5.06026 3.32952e-08 0)
(5.06026 6.94999e-08 0)
(5.06026 1.07789e-08 0)
(5.06026 -1.88033e-08 0)
(5.06026 -1.42103e-07 0)
(5.06026 -1.00761e-07 0)
(5.06026 1.38672e-07 0)
(5.06026 5.39128e-08 0)
(5.06026 -8.13952e-08 0)
(5.06026 -6.16806e-08 0)
(5.06026 -2.45028e-08 0)
(5.06026 8.57997e-08 0)
(5.06026 7.00078e-08 0)
(5.06026 -5.24988e-08 0)
(5.06026 -8.36504e-08 0)
(5.06026 3.42634e-09 0)
(5.06026 1.21305e-07 0)
(5.06026 1.33478e-07 0)
(5.06026 1.8444e-08 0)
(5.06026 -8.49483e-08 0)
(5.06026 -9.27442e-08 0)
(5.06026 -7.33823e-09 0)
(5.06026 7.68307e-08 0)
(5.06026 7.67395e-08 0)
(5.06026 -1.2607e-08 0)
(5.06026 -9.19071e-08 0)
(5.06026 -8.69455e-08 0)
(5.06026 -2.36406e-08 0)
(5.06026 3.13802e-08 0)
(5.06026 6.67576e-08 0)
(5.06026 8.54119e-08 0)
(5.06026 3.89179e-08 0)
(5.06026 -4.50216e-08 0)
(5.06026 -6.21436e-08 0)
(5.06026 -5.32318e-09 0)
(5.06026 4.41101e-08 0)
(5.06026 2.69278e-08 0)
(5.06026 -2.61755e-08 0)
(5.06026 -7.5125e-08 0)
(5.06026 -6.33262e-08 0)
(5.06026 -2.79155e-08 0)
(5.06027 3.24164e-08 0)
(5.06025 4.36774e-08 0)
(5.06027 2.98666e-08 0)
(5.06025 1.62174e-08 0)
(5.06027 -1.69781e-08 0)
(5.06025 2.86409e-08 0)
(5.06026 1.21762e-08 0)
(5.06027 -3.09028e-08 0)
(5.06025 -3.35805e-08 0)
(5.06027 -2.5386e-08 0)
(5.06026 -1.19806e-09 0)
(11.4022 -0.30786 0)
(11.5529 1.01037 0)
(7.21664 2.91453 0)
(12.3551 0.339201 0)
(12.381 -3.04872 0)
(10.719 -4.23377 0)
(8.92137 -3.68656 0)
(6.82874 -2.73267 0)
(5.82002 -2.00617 0)
(5.69936 -1.53331 0)
(6.00293 -1.14998 0)
(6.03506 -0.887744 0)
(5.76964 -0.729198 0)
(5.51308 -0.577159 0)
(5.35742 -0.421066 0)
(5.2592 -0.288157 0)
(5.18867 -0.189379 0)
(5.13919 -0.121901 0)
(5.1071 -0.0779654 0)
(5.08752 -0.0498008 0)
(5.07601 -0.0317469 0)
(5.06937 -0.0201486 0)
(5.06556 -0.0127082 0)
(5.06337 -0.00795932 0)
(5.0621 -0.00494964 0)
(5.06135 -0.00305669 0)
(5.06091 -0.00187523 0)
(5.06065 -0.00114333 0)
(5.0605 -0.000692915 0)
(5.0604 -0.000417277 0)
(5.06034 -0.0002498 0)
(5.06031 -0.000148686 0)
(5.06029 -8.79058e-05 0)
(5.06028 -5.16634e-05 0)
(5.06027 -3.00944e-05 0)
(5.06027 -1.73731e-05 0)
(5.06026 -9.97615e-06 0)
(5.06026 -5.66375e-06 0)
(5.06026 -3.2507e-06 0)
(5.06026 -1.79387e-06 0)
(5.06026 -9.08423e-07 0)
(5.06026 -5.54905e-07 0)
(5.06026 -2.69722e-07 0)
(5.06026 -2.02643e-07 0)
(5.06026 -2.11247e-07 0)
(5.06026 2.33588e-08 0)
(5.06026 1.65229e-08 0)
(5.06026 -8.35806e-08 0)
(5.06026 2.34597e-08 0)
(5.06026 2.36745e-08 0)
(5.06026 -3.35054e-08 0)
(5.06026 2.5887e-08 0)
(5.06026 -4.78908e-08 0)
(5.06026 -6.01189e-08 0)
(5.06026 7.04947e-08 0)
(5.06026 9.77258e-09 0)
(5.06026 -3.10975e-08 0)
(5.06026 -1.16539e-08 0)
(5.06026 -1.03954e-08 0)
(5.06026 3.1988e-08 0)
(5.06026 2.43767e-08 0)
(5.06026 -9.27256e-09 0)
(5.06026 -1.74109e-08 0)
(5.06026 -3.96908e-09 0)
(5.06026 5.1008e-08 0)
(5.06026 4.64315e-08 0)
(5.06026 -8.16277e-10 0)
(5.06026 -1.79347e-08 0)
(5.06026 -2.36224e-08 0)
(5.06026 -8.28066e-09 0)
(5.06026 3.41812e-08 0)
(5.06026 1.88837e-08 0)
(5.06026 -1.7677e-08 0)
(5.06026 -2.30873e-08 0)
(5.06026 -2.27643e-08 0)
(5.06026 -9.75135e-09 0)
(5.06026 1.771e-08 0)
(5.06026 2.59795e-08 0)
(5.06026 2.80228e-08 0)
(5.06026 2.11938e-08 0)
(5.06026 -5.68784e-09 0)
(5.06026 -1.91209e-08 0)
(5.06026 -4.04224e-09 0)
(5.06026 1.20039e-08 0)
(5.06026 -9.11064e-10 0)
(5.06026 -2.45155e-08 0)
(5.06026 -4.8126e-08 0)
(5.06026 -2.25402e-08 0)
(5.06026 -2.96523e-09 0)
(5.06027 3.25968e-08 0)
(5.06025 1.62532e-08 0)
(5.06027 -8.03881e-09 0)
(5.06025 5.83348e-09 0)
(5.06027 -2.94492e-08 0)
(5.06025 2.86571e-08 0)
(5.06026 3.52025e-08 0)
(5.06027 -3.17073e-08 0)
(5.06025 3.82773e-08 0)
(5.06027 1.31402e-08 0)
(5.06026 -2.56449e-08 0)
(11.5593 -0.699435 0)
(10.4672 1.07108 0)
(9.87579 3.00488 0)
(13.3627 0.24137 0)
(12.6634 -2.44844 0)
(10.0158 -3.42373 0)
(9.03198 -3.2895 0)
(9.08427 -2.34058 0)
(8.36689 -1.47719 0)
(7.15186 -1.16364 0)
(6.52706 -1.00014 0)
(6.25603 -0.786366 0)
(5.92732 -0.642425 0)
(5.61418 -0.535718 0)
(5.41053 -0.401764 0)
(5.28903 -0.26959 0)
(5.20733 -0.17162 0)
(5.15035 -0.108795 0)
(5.11336 -0.0699645 0)
(5.09112 -0.0454034 0)
(5.07825 -0.0294249 0)
(5.07085 -0.01892 0)
(5.06655 -0.0120438 0)
(5.06401 -0.00759071 0)
(5.06251 -0.00474022 0)
(5.06161 -0.00293554 0)
(5.06107 -0.00180416 0)
(5.06075 -0.00110104 0)
(5.06056 -0.000667763 0)
(5.06044 -0.000402311 0)
(5.06037 -0.000240702 0)
(5.06032 -0.000143254 0)
(5.0603 -8.47955e-05 0)
(5.06028 -4.97516e-05 0)
(5.06027 -2.88462e-05 0)
(5.06027 -1.6746e-05 0)
(5.06027 -9.69699e-06 0)
(5.06026 -5.42311e-06 0)
(5.06026 -3.09515e-06 0)
(5.06026 -1.73177e-06 0)
(5.06026 -8.64221e-07 0)
(5.06026 -4.55494e-07 0)
(5.06026 -1.70951e-07 0)
(5.06026 -1.96881e-07 0)
(5.06026 -2.47506e-07 0)
(5.06026 6.78635e-08 0)
(5.06026 4.42672e-08 0)
(5.06026 -1.09839e-07 0)
(5.06026 4.42376e-08 0)
(5.06026 5.55078e-08 0)
(5.06026 -4.07544e-09 0)
(5.06026 -8.55775e-09 0)
(5.06026 -1.08141e-07 0)
(5.06026 -9.52121e-08 0)
(5.06026 1.02999e-07 0)
(5.06026 5.30283e-08 0)
(5.06026 -7.61724e-08 0)
(5.06026 -4.20901e-08 0)
(5.06026 -1.69734e-08 0)
(5.06026 5.60696e-08 0)
(5.06026 6.34141e-08 0)
(5.06026 -3.99134e-08 0)
(5.06026 -6.37449e-08 0)
(5.06026 4.89344e-09 0)
(5.06026 9.51877e-08 0)
(5.06026 1.11103e-07 0)
(5.06026 1.55714e-08 0)
(5.06026 -6.30653e-08 0)
(5.06026 -6.62657e-08 0)
(5.06026 -6.82952e-09 0)
(5.06026 5.75343e-08 0)
(5.06026 5.67798e-08 0)
(5.06026 -1.6242e-08 0)
(5.06026 -7.22035e-08 0)
(5.06026 -6.5873e-08 0)
(5.06026 -2.19005e-08 0)
(5.06026 2.25086e-08 0)
(5.06026 5.47286e-08 0)
(5.06026 6.96797e-08 0)
(5.06026 3.7973e-08 0)
(5.06026 -2.85621e-08 0)
(5.06026 -4.90462e-08 0)
(5.06026 -5.13862e-09 0)
(5.06026 3.5031e-08 0)
(5.06026 1.54565e-08 0)
(5.06026 -2.77844e-08 0)
(5.06026 -6.97112e-08 0)
(5.06026 -4.67658e-08 0)
(5.06026 -1.9356e-08 0)
(5.06027 3.80152e-08 0)
(5.06025 3.38227e-08 0)
(5.06027 1.34911e-08 0)
(5.06025 2.39185e-08 0)
(5.06027 -3.86737e-08 0)
(5.06025 4.51168e-08 0)
(5.06026 2.74356e-08 0)
(5.06027 -5.48139e-08 0)
(5.06025 -2.65014e-09 0)
(5.06027 -1.75736e-08 0)
(5.06026 -2.17647e-08 0)
(10.4584 -0.435006 0)
(9.5427 1.3857 0)
(10.8252 2.39208 0)
(13.4257 0.0261359 0)
(12.8731 -2.27431 0)
(10.2208 -3.32875 0)
(7.33506 -3.3562 0)
(6.29906 -2.78147 0)
(6.8948 -1.91932 0)
(6.65512 -1.33868 0)
(6.16358 -1.06844 0)
(5.99285 -0.82876 0)
(5.85654 -0.607216 0)
(5.64899 -0.472533 0)
(5.45249 -0.369758 0)
(5.31307 -0.264269 0)
(5.22216 -0.173521 0)
(5.16178 -0.109633 0)
(5.12183 -0.0692122 0)
(5.09661 -0.0441302 0)
(5.08149 -0.0282851 0)
(5.0727 -0.0180895 0)
(5.06762 -0.0114905 0)
(5.06466 -0.00723749 0)
(5.06291 -0.00451973 0)
(5.06186 -0.00279977 0)
(5.06123 -0.00172121 0)
(5.06085 -0.00105077 0)
(5.06061 -0.000637363 0)
(5.06047 -0.00038384 0)
(5.06039 -0.000229701 0)
(5.06034 -0.000136746 0)
(5.06031 -8.07599e-05 0)
(5.06029 -4.73367e-05 0)
(5.06028 -2.75475e-05 0)
(5.06027 -1.59453e-05 0)
(5.06027 -9.15179e-06 0)
(5.06026 -5.15312e-06 0)
(5.06026 -2.93377e-06 0)
(5.06026 -1.57353e-06 0)
(5.06026 -7.84225e-07 0)
(5.06026 -5.19472e-07 0)
(5.06026 -2.46961e-07 0)
(5.06026 -1.54573e-07 0)
(5.06026 -1.94201e-07 0)
(5.06026 3.7462e-08 0)
(5.06026 3.00341e-08 0)
(5.06026 -9.33009e-08 0)
(5.06026 3.02978e-08 0)
(5.06026 2.45707e-08 0)
(5.06026 -4.73655e-08 0)
(5.06026 2.50815e-08 0)
(5.06026 -3.98393e-08 0)
(5.06026 -7.2601e-08 0)
(5.06026 6.59984e-08 0)
(5.06026 1.67648e-08 0)
(5.06026 -3.9682e-08 0)
(5.06026 -6.4741e-09 0)
(5.06026 -7.55711e-09 0)
(5.06026 2.50499e-08 0)
(5.06026 2.78224e-08 0)
(5.06026 -6.09449e-09 0)
(5.06026 -1.58676e-08 0)
(5.06026 1.52926e-09 0)
(5.06026 5.26238e-08 0)
(5.06026 4.81219e-08 0)
(5.06026 -1.95706e-09 0)
(5.06026 -2.01721e-08 0)
(5.06026 -2.05031e-08 0)
(5.06026 -5.48095e-09 0)
(5.06026 3.21079e-08 0)
(5.06026 1.45453e-08 0)
(5.06026 -2.38252e-08 0)
(5.06026 -2.39849e-08 0)
(5.06026 -2.2114e-08 0)
(5.06026 -1.07e-08 0)
(5.06026 1.87418e-08 0)
(5.06026 2.73704e-08 0)
(5.06026 2.82249e-08 0)
(5.06026 2.21798e-08 0)
(5.06026 -4.14355e-09 0)
(5.06026 -1.90603e-08 0)
(5.06026 -2.93111e-09 0)
(5.06026 1.34227e-08 0)
(5.06026 -5.9678e-09 0)
(5.06026 -3.09935e-08 0)
(5.06026 -5.71665e-08 0)
(5.06026 -1.79858e-08 0)
(5.06026 1.92806e-09 0)
(5.06027 4.43741e-08 0)
(5.06025 1.44858e-08 0)
(5.06027 -1.84126e-08 0)
(5.06025 1.62839e-08 0)
(5.06027 -5.19716e-08 0)
(5.06025 4.24844e-08 0)
(5.06026 4.25772e-08 0)
(5.06027 -6.26801e-08 0)
(5.06025 5.75993e-08 0)
(5.06027 1.95617e-08 0)
(5.06026 -4.08582e-08 0)
(10.3527 -0.414581 0)
(9.55742 0.956799 0)
(10.7005 2.03487 0)
(13.4454 0.100489 0)
(12.6197 -2.03841 0)
(11.4034 -2.7827 0)
(9.7146 -2.4805 0)
(6.72191 -1.95494 0)
(6.03125 -1.38712 0)
(6.42874 -0.959913 0)
(6.22992 -0.793333 0)
(5.9513 -0.707336 0)
(5.80144 -0.589094 0)
(5.65576 -0.441087 0)
(5.4943 -0.305082 0)
(5.34427 -0.199067 0)
(5.23149 -0.127615 0)
(5.16062 -0.0830122 0)
(5.11986 -0.0552723 0)
(5.09643 -0.0371181 0)
(5.08242 -0.0247615 0)
(5.07381 -0.0162851 0)
(5.06851 -0.0105404 0)
(5.06527 -0.00672036 0)
(5.0633 -0.00422856 0)
(5.0621 -0.00263108 0)
(5.06138 -0.00162158 0)
(5.06094 -0.000991152 0)
(5.06067 -0.000601408 0)
(5.06051 -0.000362287 0)
(5.06041 -0.000216774 0)
(5.06035 -0.000128882 0)
(5.06031 -7.60823e-05 0)
(5.06029 -4.46287e-05 0)
(5.06028 -2.58652e-05 0)
(5.06027 -1.49362e-05 0)
(5.06027 -8.62414e-06 0)
(5.06027 -4.81429e-06 0)
(5.06026 -2.72079e-06 0)
(5.06026 -1.4904e-06 0)
(5.06026 -7.73625e-07 0)
(5.06026 -4.90013e-07 0)
(5.06026 -1.76676e-07 0)
(5.06026 -1.23023e-07 0)
(5.06026 -2.0245e-07 0)
(5.06026 6.03193e-08 0)
(5.06026 4.57009e-08 0)
(5.06026 -1.05667e-07 0)
(5.06026 4.61614e-08 0)
(5.06026 4.35873e-08 0)
(5.06026 -1.78518e-08 0)
(5.06026 2.50308e-09 0)
(5.06026 -8.2181e-08 0)
(5.06026 -8.75895e-08 0)
(5.06026 7.49571e-08 0)
(5.06026 5.00833e-08 0)
(5.06026 -6.69323e-08 0)
(5.06026 -2.99382e-08 0)
(5.06026 -9.56765e-09 0)
(5.06026 3.26705e-08 0)
(5.06026 5.34557e-08 0)
(5.06026 -2.64443e-08 0)
(5.06026 -4.8657e-08 0)
(5.06026 5.69253e-09 0)
(5.06026 7.39281e-08 0)
(5.06026 8.91042e-08 0)
(5.06026 1.32706e-08 0)
(5.06026 -4.6628e-08 0)
(5.06026 -4.52963e-08 0)
(5.06026 -5.96844e-09 0)
(5.06026 4.08665e-08 0)
(5.06026 4.05105e-08 0)
(5.06026 -1.78706e-08 0)
(5.06026 -5.56746e-08 0)
(5.06026 -4.70004e-08 0)
(5.06026 -2.10407e-08 0)
(5.06026 1.41564e-08 0)
(5.06026 4.48276e-08 0)
(5.06026 5.56202e-08 0)
(5.06026 3.42313e-08 0)
(5.06026 -1.70994e-08 0)
(5.06026 -3.66759e-08 0)
(5.06026 -4.79407e-09 0)
(5.06026 2.65673e-08 0)
(5.06026 7.43522e-09 0)
(5.06026 -2.73257e-08 0)
(5.06026 -6.30477e-08 0)
(5.06026 -3.05139e-08 0)
(5.06026 -1.45864e-08 0)
(5.06027 4.16319e-08 0)
(5.06025 2.38576e-08 0)
(5.06027 -1.785e-09 0)
(5.06025 3.32285e-08 0)
(5.06027 -6.06585e-08 0)
(5.06025 6.34897e-08 0)
(5.06026 3.79064e-08 0)
(5.06027 -8.08982e-08 0)
(5.06025 3.54184e-08 0)
(5.06027 -1.11661e-08 0)
(5.06026 -4.49926e-08 0)
(10.3688 -0.243884 0)
(8.95788 0.981014 0)
(11.2147 1.56373 0)
(12.5261 -0.145784 0)
(12.17 -1.66095 0)
(10.9646 -2.46738 0)
(10.5411 -2.50308 0)
(9.04355 -2.19307 0)
(7.07935 -1.78645 0)
(6.8642 -1.31297 0)
(6.60781 -0.973935 0)
(6.06889 -0.710039 0)
(5.76544 -0.546895 0)
(5.6028 -0.45643 0)
(5.47827 -0.35828 0)
(5.37129 -0.246813 0)
(5.27209 -0.155262 0)
(5.19054 -0.0952141 0)
(5.13521 -0.059386 0)
(5.10273 -0.0378437 0)
(5.08481 -0.0243459 0)
(5.07487 -0.0156375 0)
(5.06914 -0.00997571 0)
(5.0657 -0.00630927 0)
(5.0636 -0.00395419 0)
(5.06231 -0.00245631 0)
(5.06151 -0.00151298 0)
(5.06102 -0.000924502 0)
(5.06072 -0.000560879 0)
(5.06054 -0.000337737 0)
(5.06043 -0.000201913 0)
(5.06036 -0.00012001 0)
(5.06032 -7.07808e-05 0)
(5.0603 -4.13909e-05 0)
(5.06028 -2.39793e-05 0)
(5.06027 -1.38677e-05 0)
(5.06027 -7.96893e-06 0)
(5.06027 -4.43469e-06 0)
(5.06026 -2.51758e-06 0)
(5.06026 -1.35132e-06 0)
(5.06026 -6.74234e-07 0)
(5.06026 -4.7871e-07 0)
(5.06026 -2.0407e-07 0)
(5.06026 -8.10342e-08 0)
(5.06026 -1.54808e-07 0)
(5.06026 4.74349e-08 0)
(5.06026 3.78977e-08 0)
(5.06026 -9.72298e-08 0)
(5.06026 3.62374e-08 0)
(5.06026 2.58202e-08 0)
(5.06026 -5.87329e-08 0)
(5.06026 2.05903e-08 0)
(5.06026 -2.76423e-08 0)
(5.06026 -7.61236e-08 0)
(5.06026 5.51062e-08 0)
(5.06026 2.44354e-08 0)
(5.06026 -4.48958e-08 0)
(5.06026 -3.14726e-09 0)
(5.06026 -2.01997e-09 0)
(5.06026 1.60675e-08 0)
(5.06026 2.86863e-08 0)
(5.06026 -2.74684e-09 0)
(5.06026 -1.41186e-08 0)
(5.06026 5.31493e-09 0)
(5.06026 5.15963e-08 0)
(5.06026 4.81329e-08 0)
(5.06026 -3.82157e-09 0)
(5.06026 -2.10406e-08 0)
(5.06026 -1.59419e-08 0)
(5.06026 -3.98177e-09 0)
(5.06026 2.85183e-08 0)
(5.06026 1.20575e-08 0)
(5.06026 -2.80843e-08 0)
(5.06026 -2.43548e-08 0)
(5.06026 -1.90509e-08 0)
(5.06026 -1.19079e-08 0)
(5.06026 1.7977e-08 0)
(5.06026 3.0045e-08 0)
(5.06026 2.79354e-08 0)
(5.06026 2.05095e-08 0)
(5.06026 -2.56177e-09 0)
(5.06026 -1.74097e-08 0)
(5.06026 -2.5447e-09 0)
(5.06026 1.37407e-08 0)
(5.06026 -1.02264e-08 0)
(5.06026 -3.35138e-08 0)
(5.06026 -6.13351e-08 0)
(5.06026 -1.10522e-08 0)
(5.06026 2.20212e-09 0)
(5.06027 5.3817e-08 0)
(5.06025 9.16663e-09 0)
(5.06027 -2.56707e-08 0)
(5.06025 3.10863e-08 0)
(5.06027 -7.7409e-08 0)
(5.06025 6.283e-08 0)
(5.06026 4.59678e-08 0)
(5.06027 -9.56614e-08 0)
(5.06025 8.29555e-08 0)
(5.06027 2.25433e-08 0)
(5.06026 -5.72155e-08 0)
(10.1854 -0.131833 0)
(9.48733 0.790075 0)
(11.0109 1.24864 0)
(12.0971 0.0352352 0)
(12.3242 -1.69601 0)
(9.82524 -2.5467 0)
(7.31521 -2.16623 0)
(7.28956 -1.51258 0)
(6.91567 -1.24879 0)
(6.82478 -0.955482 0)
(6.98832 -0.686778 0)
(6.46316 -0.592059 0)
(5.93923 -0.462256 0)
(5.67452 -0.312367 0)
(5.47222 -0.19996 0)
(5.31033 -0.124868 0)
(5.2138 -0.078604 0)
(5.16114 -0.0528755 0)
(5.12773 -0.0377988 0)
(5.10409 -0.0273664 0)
(5.08769 -0.0193781 0)
(5.07702 -0.0132655 0)
(5.07041 -0.00879586 0)
(5.0664 -0.00568478 0)
(5.06399 -0.00360324 0)
(5.06253 -0.00225061 0)
(5.06164 -0.00138968 0)
(5.0611 -0.000849913 0)
(5.06077 -0.000515612 0)
(5.06057 -0.0003103 0)
(5.06044 -0.000185415 0)
(5.06037 -0.000110103 0)
(5.06033 -6.47703e-05 0)
(5.0603 -3.78308e-05 0)
(5.06028 -2.19056e-05 0)
(5.06027 -1.263e-05 0)
(5.06027 -7.25241e-06 0)
(5.06027 -3.9997e-06 0)
(5.06026 -2.24639e-06 0)
(5.06026 -1.20867e-06 0)
(5.06026 -6.27715e-07 0)
(5.06026 -4.68985e-07 0)
(5.06026 -1.60818e-07 0)
(5.06026 -4.17947e-08 0)
(5.06026 -1.44238e-07 0)
(5.06026 5.67822e-08 0)
(5.06026 4.25453e-08 0)
(5.06026 -1.02697e-07 0)
(5.06026 4.48383e-08 0)
(5.06026 3.4478e-08 0)
(5.06026 -3.04427e-08 0)
(5.06026 1.1946e-08 0)
(5.06026 -5.83596e-08 0)
(5.06026 -8.14509e-08 0)
(5.06026 5.33866e-08 0)
(5.06026 4.59758e-08 0)
(5.06026 -5.59615e-08 0)
(5.06026 -2.24786e-08 0)
(5.06026 -2.60278e-09 0)
(5.06026 1.67385e-08 0)
(5.06026 4.2456e-08 0)
(5.06026 -1.37861e-08 0)