/*--------------------------------*- C++ -*----------------------------------*\
| =========                 |                                                 |
| \\      /  F ield         | OpenFOAM: The Open Source CFD Toolbox           |
|  \\    /   O peration     | Version:  2.4.0                                 |
|   \\  /    A nd           | Web:      www.OpenFOAM.org                      |
|    \\/     M anipulation  |                                                 |
\*---------------------------------------------------------------------------*/
FoamFile
{
    version     2.0;
    format      ascii;
    class       volScalarField;
    location    "70";
    object      p;
}
// * * * * * * * * * * * * * * * * * * * * * * * * * * * * * * * * * * * * * //

dimensions      [0 2 -2 0 0 0 0];

internalField   nonuniform List<scalar> 
4400
(
-0.10526
-0.0992969
-0.0888272
-0.10652
-0.108973
-0.0981312
-0.105299
-0.104813
-0.103606
-0.111365
-0.105996
-0.104799
-0.11356
-0.107282
-0.111272
-0.112689
-0.108594
-0.113694
-0.11187
-0.115019
-0.105348
-0.099544
-0.0883966
-0.106568
-0.109567
-0.0978228
-0.105301
-0.104965
-0.103282
-0.111587
-0.106079
-0.104452
-0.113812
-0.107284
-0.111192
-0.112937
-0.108436
-0.113787
-0.1124
-0.115449
-0.105509
-0.0997794
-0.0878629
-0.106823
-0.110166
-0.0973628
-0.105439
-0.105087
-0.102957
-0.111939
-0.106106
-0.104124
-0.11419
-0.107178
-0.111159
-0.113191
-0.108302
-0.114095
-0.113183
-0.116249
-0.105618
-0.0998905
-0.0875395
-0.107148
-0.110557
-0.0969576
-0.105662
-0.105093
-0.102688
-0.112264
-0.106086
-0.103921
-0.114527
-0.106996
-0.111229
-0.113388
-0.108205
-0.114588
-0.113532
-0.1176
-0.105564
-0.0999383
-0.0874021
-0.107439
-0.110615
-0.0967855
-0.105925
-0.104987
-0.102575
-0.11242
-0.106069
-0.103961
-0.114678
-0.106835
-0.111353
-0.113568
-0.108151
-0.115302
-0.11343
-0.11934
-0.105268
-0.100144
-0.088347
-0.107634
-0.110404
-0.0970068
-0.106162
-0.104883
-0.102701
-0.112318
-0.106154
-0.104317
-0.114618
-0.106846
-0.11147
-0.113869
-0.108301
-0.116356
-0.113421
-0.120778
-0.104651
-0.100631
-0.0902327
-0.107605
-0.109904
-0.097764
-0.106274
-0.104881
-0.103134
-0.111864
-0.106431
-0.105015
-0.114193
-0.107166
-0.111541
-0.114282
-0.108791
-0.117177
-0.113591
-0.12171
-0.10367
-0.101302
-0.0931195
-0.10718
-0.109008
-0.0991138
-0.106148
-0.104982
-0.103892
-0.110979
-0.106924
-0.106027
-0.113316
-0.10785
-0.111543
-0.114636
-0.109674
-0.117461
-0.114203
-0.122198
-0.102323
-0.101982
-0.0968497
-0.106238
-0.107616
-0.100981
-0.105724
-0.105137
-0.104929
-0.109651
-0.107582
-0.107261
-0.111992
-0.108853
-0.111445
-0.114674
-0.110913
-0.117115
-0.115161
-0.122323
-0.100652
-0.102481
-0.101107
-0.104786
-0.105693
-0.103145
-0.105028
-0.105272
-0.106123
-0.10796
-0.108302
-0.108573
-0.110347
-0.110037
-0.111226
-0.114243
-0.112362
-0.11627
-0.116294
-0.122164
-0.0987856
-0.102663
-0.105446
-0.102961
-0.103332
-0.105291
-0.10417
-0.105322
-0.107304
-0.10608
-0.10896
-0.10979
-0.1086
-0.111217
-0.110894
-0.11338
-0.1138
-0.115118
-0.117375
-0.121806
-0.0969332
-0.102506
-0.109355
-0.10101
-0.100795
-0.107123
-0.103326
-0.105268
-0.108305
-0.104253
-0.109456
-0.110762
-0.106984
-0.112229
-0.110517
-0.112279
-0.115032
-0.113982
-0.118222
-0.121352
-0.0953358
-0.102097
-0.112395
-0.0992315
-0.098397
-0.108462
-0.10268
-0.105109
-0.109
-0.102724
-0.109753
-0.111435
-0.105674
-0.11296
-0.110214
-0.111181
-0.115954
-0.113105
-0.118762
-0.12091
-0.094173
-0.101586
-0.114361
-0.0978653
-0.0964009
-0.109287
-0.102355
-0.104884
-0.109355
-0.101647
-0.109875
-0.111857
-0.104766
-0.113362
-0.110077
-0.110288
-0.116557
-0.11257
-0.119011
-0.120578
-0.0935013
-0.101139
-0.115344
-0.0970394
-0.0949766
-0.109668
-0.102355
-0.104661
-0.10943
-0.101049
-0.109869
-0.112119
-0.104285
-0.113466
-0.110112
-0.109694
-0.116891
-0.112356
-0.119039
-0.120391
-0.0932384
-0.100866
-0.115623
-0.0967432
-0.0941809
-0.109709
-0.102572
-0.104497
-0.109337
-0.100862
-0.109778
-0.112273
-0.10418
-0.113362
-0.110251
-0.109395
-0.117018
-0.112378
-0.118933
-0.120308
-0.0932209
-0.100796
-0.115499
-0.096776
-0.0939738
-0.109465
-0.102823
-0.104431
-0.10914
-0.100975
-0.109651
-0.112278
-0.104355
-0.113146
-0.110384
-0.109347
-0.116986
-0.112539
-0.118781
-0.120235
-0.0933147
-0.100884
-0.114959
-0.0968575
-0.0942407
-0.109005
-0.102971
-0.104465
-0.108833
-0.101266
-0.109537
-0.112086
-0.10469
-0.112896
-0.110427
-0.10949
-0.116775
-0.112747
-0.11865
-0.120112
-0.0934308
-0.101078
-0.114273
-0.0968316
-0.0947569
-0.108489
-0.102991
-0.104582
-0.108484
-0.10159
-0.109473
-0.111768
-0.105062
-0.112688
-0.110372
-0.109731
-0.116506
-0.112929
-0.118581
-0.119956
-0.093501
-0.101295
-0.113802
-0.0966918
-0.0953067
-0.10817
-0.102915
-0.104722
-0.108113
-0.101795
-0.1095
-0.111438
-0.105321
-0.11261
-0.11027
-0.109991
-0.116311
-0.113012
-0.118591
-0.119822
-0.140586
-0.14979
-0.144153
-0.139164
-0.134538
-0.145612
-0.12844
-0.135237
-0.15076
-0.140781
-0.131948
-0.0903854
-0.0927637
-0.112824
-0.129518
-0.151712
-0.164147
-0.162517
-0.154403
-0.152124
-0.13821
-0.115644
-0.109311
-0.120236
-0.148423
-0.165656
-0.14334
-0.080761
-0.0132954
-0.0485474
-0.12489
-0.148688
-0.152022
-0.133008
-0.0653852
-0.0355914
-0.0589279
-0.0918108
-0.116498
-0.109257
-0.0704239
-0.0342544
-0.0117449
-0.00124503
-0.0115654
-0.0326486
-0.0388894
-0.0195809
0.000345208
0.00186113
-0.0139958
-0.0357288
-0.0465148
-0.0336054
-0.0149932
-0.00940433
-0.0122185
-0.0109474
-0.00373537
0.000805779
-0.000158669
-0.00176426
-0.00250784
-0.00816757
-0.0152052
-0.0149609
-0.00851378
-0.00303368
-0.000853249
-0.00053339
-0.000693706
-0.000408658
0.000490412
0.00159287
0.0026128
0.00353097
0.00434576
0.00499865
0.00544416
0.00568279
0.00574656
0.00567824
0.00551791
0.00529704
0.0050377
0.00475431
0.00445586
0.00414778
0.00383328
0.00351421
0.00319164
0.00286613
0.00253797
0.00220733
0.00187427
0.00153881
0.00120097
0.000860749
0.000518133
0.000173113
-0.139846
-0.150519
-0.145311
-0.139295
-0.133236
-0.145818
-0.128671
-0.134156
-0.151314
-0.1384
-0.131035
-0.0936094
-0.0923244
-0.111463
-0.126249
-0.14797
-0.159814
-0.156999
-0.154087
-0.155893
-0.141552
-0.116103
-0.106685
-0.119192
-0.152277
-0.172684
-0.149421
-0.0823553
-0.0109669
-0.0504978
-0.130061
-0.157431
-0.163018
-0.141955
-0.0684927
-0.033734
-0.0536957
-0.0858905
-0.110832
-0.104539
-0.0674601
-0.0325521
-0.0104732
-0.000923372
-0.0134518
-0.0364753
-0.0424866
-0.0220012
-0.000693215
0.00311698
-0.0108744
-0.0311409
-0.0416231
-0.030493
-0.0148212
-0.0117921
-0.0154847
-0.0135144
-0.00453445
0.00209338
0.00241304
0.000472336
-0.00192846
-0.0096003
-0.0176274
-0.0167217
-0.00886566
-0.0023041
0.000242444
0.000454036
-1.57055e-05
-9.7166e-05
0.000494527
0.00142482
0.00240846
0.0033718
0.00425287
0.00495761
0.00543193
0.00568215
0.00574869
0.00567997
0.00551863
0.00529709
0.00503741
0.00475395
0.00445553
0.00414753
0.0038331
0.00351411
0.00319157
0.00286609
0.00253795
0.00220732
0.00187426
0.0015388
0.00120097
0.000860743
0.000518136
0.000173111
-0.138924
-0.150611
-0.146176
-0.1383
-0.132285
-0.145638
-0.128735
-0.133177
-0.151229
-0.135868
-0.12988
-0.0972885
-0.0919037
-0.110104
-0.122912
-0.142281
-0.153486
-0.151447
-0.154354
-0.159754
-0.144478
-0.116441
-0.104412
-0.118332
-0.155451
-0.178585
-0.154792
-0.0844566
-0.00978059
-0.0533228
-0.135096
-0.16596
-0.173347
-0.149927
-0.0704827
-0.0307368
-0.0473873
-0.0790332
-0.104206
-0.0989807
-0.0640361
-0.0306228
-0.00889731
-0.000284267
-0.0149116
-0.0397211
-0.0456257
-0.024091
-0.00133743
0.00473379
-0.00756445
-0.0263837
-0.0365795
-0.0271975
-0.0144402
-0.0139359
-0.018476
-0.0158619
-0.00520109
0.00342969
0.00495193
0.00267915
-0.00131
-0.0108751
-0.0198383
-0.0183363
-0.00916344
-0.0015622
0.00136067
0.00147187
0.000681873
0.000218612
0.000494135
0.00125169
0.00220188
0.00321266
0.00416085
0.0049176
0.00542059
0.00568231
0.00575152
0.00568223
0.00551979
0.00529743
0.00503733
0.00475373
0.0044553
0.00414734
0.00383296
0.00351402
0.00319151
0.00286605
0.00253793
0.00220731
0.00187426
0.0015388
0.00120097
0.000860742
0.000518135
0.000173111
-0.137126
-0.148585
-0.146808
-0.136691
-0.131588
-0.145418
-0.128804
-0.132335
-0.150416
-0.133538
-0.128558
-0.101153
-0.0919095
-0.108641
-0.119327
-0.134897
-0.145296
-0.145774
-0.154985
-0.163499
-0.146973
-0.116723
-0.102584
-0.117713
-0.158052
-0.183419
-0.159313
-0.0870999
-0.0100353
-0.0569307
-0.139888
-0.174062
-0.1827
-0.15672
-0.0712793
-0.0265719
-0.0400356
-0.0712974
-0.0967001
-0.0926725
-0.0602186
-0.028525
-0.00706509
0.000654268
-0.015963
-0.042384
-0.0482828
-0.0258036
-0.00155615
0.00666094
-0.00412174
-0.0215144
-0.0314698
-0.0237762
-0.0138641
-0.0158094
-0.0211587
-0.0179598
-0.00572112
0.00478901
0.00740554
0.00481633
-0.000664599
-0.0119775
-0.0218041
-0.0197746
-0.00939818
-0.000818387
0.00248264
0.00250099
0.00138443
0.000530714
0.000487718
0.00107617
0.00199716
0.00305706
0.00407177
0.00487947
0.00541044
0.00568335
0.00575503
0.00568505
0.00552136
0.00529807
0.00503746
0.00475364
0.00445515
0.0041472
0.00383286
0.00351394
0.00319147
0.00286603
0.00253792
0.0022073
0.00187425
0.0015388
0.00120097
0.000860741
0.000518134
0.000173111
-0.134996
-0.145099
-0.147467
-0.135372
-0.130792
-0.144996
-0.129146
-0.131416
-0.148711
-0.131634
-0.127192
-0.104814
-0.0925761
-0.107032
-0.115399
-0.126401
-0.135692
-0.139838
-0.155641
-0.166876
-0.149066
-0.117022
-0.101253
-0.11736
-0.160186
-0.187277
-0.162865
-0.0901706
-0.0120416
-0.0610771
-0.144233
-0.181725
-0.190822
-0.162165
-0.0708224
-0.0212392
-0.0317152
-0.0627661
-0.0884273
-0.0857363
-0.0560965
-0.0263217
-0.00503395
0.00186499
-0.0166234
-0.0444813
-0.0504483
-0.027096
-0.00133153
0.00883606
-0.000594334
-0.0165887
-0.0263765
-0.0202848
-0.0131107
-0.0173924
-0.0235067
-0.0197833
-0.00608466
0.00614485
0.00972436
0.00684695
-3.41617e-06
-0.0128974
-0.0234988
-0.0210131
-0.00956222
-8.21555e-05
0.00358935
0.00352181
0.00207727
0.000831462
0.000474159
0.000901217
0.00179849
0.00290846
0.00398783
0.00484419
0.00540187
0.00568536
0.00575924
0.0056884
0.00552334
0.00529901
0.0050378
0.00475369
0.00445509
0.00414712
0.00383278
0.00351389
0.00319143
0.002866
0.0025379
0.00220729
0.00187425
0.00153879
0.00120097
0.00086074
0.000518134
0.000173111
-0.133175
-0.14114
-0.147688
-0.134692
-0.130022
-0.144096
-0.129733
-0.13047
-0.146179
-0.130259
-0.125872
-0.107928
-0.093938
-0.105288
-0.111113
-0.117357
-0.125255
-0.133551
-0.155955
-0.16964
-0.150805
-0.117399
-0.100429
-0.117287
-0.161916
-0.19021
-0.165332
-0.093419
-0.0159652
-0.0655395
-0.147945
-0.188234
-0.197547
-0.166159
-0.0690949
-0.0147703
-0.0225298
-0.05354
-0.0795334
-0.0783183
-0.0517745
-0.0240821
-0.0028692
0.00331483
-0.0169114
-0.0460424
-0.052125
-0.0279321
-0.000663017
0.0111852
0.00297535
-0.0116692
-0.021373
-0.016777
-0.0122
-0.018671
-0.0255013
-0.0213139
-0.00628528
0.00747024
0.0118634
0.00873736
0.000663764
-0.0136297
-0.0249059
-0.0220343
-0.00964945
0.00063788
0.00466298
0.00451518
0.00274552
0.0011137
0.000452867
0.000729995
0.00160993
0.00277003
0.00391087
0.00481273
0.00539523
0.00568842
0.00576413
0.00569225
0.0055257
0.00530023
0.00503833
0.00475387
0.00445511
0.00414709
0.00383274
0.00351385
0.0031914
0.00286599
0.00253789
0.00220728
0.00187424
0.00153879
0.00120097
0.00086074
0.000518133
0.000173111
-0.131909
-0.137499
-0.147021
-0.134651
-0.129508
-0.142525
-0.130478
-0.12959
-0.142943
-0.129376
-0.124685
-0.110258
-0.09586
-0.103551
-0.106484
-0.108214
-0.114587
-0.126996
-0.155658
-0.171625
-0.152232
-0.117896
-0.100099
-0.1175
-0.163247
-0.192202
-0.166614
-0.0965381
-0.0217344
-0.0701182
-0.150979
-0.193701
-0.202833
-0.168687
-0.0661004
-0.00722886
-0.0126189
-0.0437574
-0.0701885
-0.0705788
-0.0473633
-0.0218792
-0.000645686
0.00496489
-0.0168497
-0.0471075
-0.0533246
-0.0282847
0.000431354
0.013632
0.00654378
-0.00682212
-0.0165241
-0.0133065
-0.0111549
-0.0196372
-0.0271311
-0.0225388
-0.00631877
0.00873613
0.0137854
0.0104606
0.00132775
-0.0141727
-0.0260177
-0.0228282
-0.00965601
0.00133421
0.00568731
0.00546234
0.00337515
0.00137144
0.000423968
0.000565731
0.00143527
0.00264447
0.00384248
0.00478586
0.00539078
0.00569254
0.00576965
0.00569654
0.00552838
0.00530168
0.00503903
0.00475415
0.0044552
0.0041471
0.00383272
0.00351383
0.00319139
0.00286597
0.00253788
0.00220728
0.00187424
0.00153879
0.00120096
0.000860739
0.000518133
0.000173111
-0.131042
-0.134604
-0.145218
-0.135
-0.129352
-0.140272
-0.131237
-0.128842
-0.13921
-0.128849
-0.123687
-0.111744
-0.0981425
-0.101993
-0.101568
-0.0993525
-0.104232
-0.120413
-0.154632
-0.172769
-0.153361
-0.118534
-0.100244
-0.117984
-0.164137
-0.193171
-0.166633
-0.0992673
-0.0290372
-0.0744221
-0.153335
-0.197989
-0.206742
-0.169808
-0.0618884
0.00127613
-0.00214799
-0.0335739
-0.0605784
-0.0626977
-0.0429764
-0.0197826
0.00155191
0.00676658
-0.0164635
-0.0477237
-0.0540665
-0.0281406
0.00191134
0.0161078
0.0100708
-0.00211494
-0.0118879
-0.00992845
-0.0100022
-0.0202906
-0.0283915
-0.0234499
-0.00618626
0.00991535
0.0154629
0.0119959
0.00198033
-0.0145284
-0.0268344
-0.0233925
-0.0095806
0.00200044
0.00664763
0.00634572
0.00395396
0.00160027
0.000388349
0.00041159
0.00127769
0.00253412
0.00378383
0.00476409
0.00538859
0.00569765
0.00577565
0.00570113
0.00553128
0.00530329
0.00503984
0.00475452
0.00445534
0.00414714
0.00383273
0.00351382
0.00319138
0.00286597
0.00253788
0.00220727
0.00187424
0.00153879
0.00120096
0.000860739
0.000518132
0.000173111
-0.130172
-0.132612
-0.142471
-0.135357
-0.129613
-0.137467
-0.131831
-0.128264
-0.135232
-0.128487
-0.122904
-0.112507
-0.100584
-0.100732
-0.0965132
-0.0911011
-0.0946494
-0.114089
-0.152893
-0.173048
-0.154148
-0.119306
-0.100857
-0.118687
-0.164525
-0.193004
-0.165363
-0.101414
-0.0374934
-0.0780314
-0.154875
-0.20093
-0.209381
-0.169611
-0.0565268
0.0105946
0.00868872
-0.02317
-0.0509093
-0.0548602
-0.038725
-0.0178498
0.00363491
0.00865688
-0.015783
-0.0479423
-0.054373
-0.0275031
0.00371555
0.0185474
0.0135232
0.00237545
-0.00751404
-0.00669762
-0.00877388
-0.0206389
-0.0292832
-0.0240446
-0.0058951
0.0109848
0.0168786
0.0133287
0.00261422
-0.0147033
-0.0273641
-0.0237316
-0.0094245
0.00263109
0.00753089
0.00714965
0.00447225
0.00179761
0.000347689
0.000270529
0.00113951
0.00244035
0.00373565
0.00474756
0.00538856
0.00570352
0.00578192
0.00570584
0.00553425
0.00530495
0.00504069
0.00475492
0.00445551
0.0041472
0.00383275
0.00351382
0.00319137
0.00286596
0.00253788
0.00220727
0.00187423
0.00153879
0.00120096
0.000860738
0.000518132
0.000173111
-0.1289
-0.131443
-0.139117
-0.135384
-0.130173
-0.134371
-0.132107
-0.127832
-0.131277
-0.128115
-0.122347
-0.112751
-0.102991
-0.0998109
-0.0915719
-0.0837417
-0.0862427
-0.108268
-0.150496
-0.172414
-0.154482
-0.120163
-0.101938
-0.119517
-0.16435
-0.191598
-0.162828
-0.10296
-0.0467413
-0.0809854
-0.155234
-0.202306
-0.210842
-0.168172
-0.0501238
0.0205269
0.0196686
-0.0127477
-0.0413716
-0.0472445
-0.0347139
-0.0161265
0.00552751
0.0105544
-0.0148443
-0.0478111
-0.054265
-0.0263961
0.00576486
0.0208948
0.0168703
0.00656394
-0.00344681
-0.0036703
-0.00750794
-0.0207004
-0.0298131
-0.0243269
-0.00545766
0.0119251
0.0180261
0.0144516
0.00322231
-0.0147084
-0.0276237
-0.0238565
-0.00919183
0.00322167
0.00832585
0.0078608
0.0049234
0.00196293
0.000304482
0.000145255
0.0010222
0.00236366
0.00369792
0.00473599
0.00539034
0.00570982
0.00578815
0.00571041
0.0055371
0.00530655
0.0050415
0.0047553
0.00445568
0.00414727
0.00383277
0.00351383
0.00319137
0.00286596
0.00253787
0.00220727
0.00187423
0.00153878
0.00120096
0.000860738
0.000518132
0.000173111
-0.1271
-0.130807
-0.135575
-0.134882
-0.130889
-0.131288
-0.131987
-0.127534
-0.127601
-0.127612
-0.121996
-0.112703
-0.105177
-0.0991881
-0.0871081
-0.0775317
-0.0793482
-0.103147
-0.14751
-0.170778
-0.154228
-0.121045
-0.103462
-0.120387
-0.163575
-0.188874
-0.159082
-0.104054
-0.0562692
-0.0832147
-0.154174
-0.201851
-0.21119
-0.165537
-0.0428197
0.0308401
0.0305581
-0.00253781
-0.0316705
-0.0400109
-0.0310356
-0.014654
0.00717495
0.0123768
-0.0136862
-0.0473636
-0.0537539
-0.0248638
0.00796343
0.0231152
0.0200771
0.0103667
0.000275289
-0.000903136
-0.00624837
-0.020505
-0.0299978
-0.0243087
-0.00489217
0.0127217
0.0189104
0.0153644
0.00379724
-0.0145579
-0.0276383
-0.0237871
-0.00888988
0.00376848
0.00902294
0.00846904
0.00530407
0.00209771
0.000262001
3.81807e-05
0.000926456
0.00230364
0.0036699
0.00472869
0.00539334
0.00571605
0.00579395
0.00571456
0.00553963
0.00530792
0.00504218
0.00475561
0.00445581
0.00414732
0.00383278
0.00351383
0.00319137
0.00286596
0.00253787
0.00220727
0.00187423
0.00153878
0.00120096
0.000860738
0.000518131
0.000173111
-0.124953
-0.130359
-0.132343
-0.13386
-0.131593
-0.128533
-0.131472
-0.12737
-0.124448
-0.12693
-0.121804
-0.112579
-0.106982
-0.0987599
-0.0835086
-0.0727056
-0.0741996
-0.0989205
-0.144074
-0.168094
-0.153295
-0.121895
-0.105339
-0.121271
-0.162279
-0.184049
-0.154239
-0.104536
-0.065603
-0.084712
-0.151591
-0.199574
-0.210462
-0.161703
-0.0347963
0.0412752
0.041106
0.00718624
-0.0229387
-0.0333078
-0.0277665
-0.0134743
0.00852946
0.0140634
-0.012345
-0.0466173
-0.052835
-0.0229693
0.0102007
0.0251925
0.023105
0.0137152
0.00361686
0.00155011
-0.00504442
-0.0200947
-0.0298666
-0.0240142
-0.0042257
0.0133671
0.0195465
0.0160734
0.00433165
-0.0142717
-0.0274404
-0.0235497
-0.00852857
0.00426802
0.00961378
0.00896816
0.00561483
0.00220534
0.000224184
-4.86996e-05
0.000852956
0.00225908
0.00365029
0.00472461
0.00539678
0.00572163
0.00579889
0.00571797
0.00554164
0.00530897
0.00504267
0.00475582
0.00445589
0.00414734
0.00383279
0.00351383
0.00319137
0.00286596
0.00253787
0.00220727
0.00187423
0.00153878
0.00120096
0.000860738
0.000518131
0.000173111
-0.12279
-0.12993
-0.12973
-0.132515
-0.132168
-0.126335
-0.130632
-0.127282
-0.121984
-0.126085
-0.121718
-0.112533
-0.108325
-0.0984587
-0.0810383
-0.0694325
-0.0708876
-0.095749
-0.140455
-0.164537
-0.151727
-0.122726
-0.107425
-0.122189
-0.160438
-0.1784
-0.14838
-0.104306
-0.0741791
-0.0856296
-0.147536
-0.195707
-0.208667
-0.15668
-0.0263053
0.051567
0.0510648
0.0161812
-0.0149804
-0.0272666
-0.0249616
-0.0126254
0.00953481
0.0155497
-0.0108289
-0.0455682
-0.0514836
-0.0207881
0.0123589
0.0271204
0.0259104
0.0165615
0.00654007
0.00364284
-0.00394789
-0.019525
-0.0294656
-0.0234844
-0.00349548
0.0138622
0.0199595
0.0165911
0.00481736
-0.0138745
-0.0270689
-0.0231742
-0.00811976
0.00471612
0.0100913
0.00935694
0.0058596
0.00229077
0.000195343
-0.000113914
0.00079925
0.00222812
0.00363732
0.00472248
0.00539977
0.00572594
0.00580255
0.00572039
0.00554299
0.00530961
0.00504293
0.0047559
0.0044559
0.00414733
0.00383278
0.00351382
0.00319137
0.00286595
0.00253787
0.00220727
0.00187423
0.00153878
0.00120096
0.000860737
0.000518131
0.000173111
-0.120929
-0.129343
-0.127783
-0.131102
-0.132571
-0.124794
-0.12961
-0.127221
-0.120254
-0.125148
-0.121682
-0.112629
-0.109206
-0.0983075
-0.0797322
-0.0677195
-0.0693079
-0.0936758
-0.136973
-0.16047
-0.149698
-0.12353
-0.109635
-0.123102
-0.158054
-0.17189
-0.141721
-0.10333
-0.0813759
-0.0860327
-0.142012
-0.190528
-0.205834
-0.150467
-0.017608
0.0614434
0.0602035
0.0242267
-0.00790799
-0.0219905
-0.0226458
-0.0121262
0.010138
0.0167193
-0.0091255
-0.0441879
-0.0496725
-0.0184157
0.0143223
0.0288971
0.0284333
0.0188684
0.00900524
0.00534087
-0.00300635
-0.0188643
-0.0288624
-0.0227811
-0.00274717
0.0142165
0.0201833
0.0169362
0.00524445
-0.0133947
-0.0265667
-0.022692
-0.00767735
0.00510659
0.0104507
0.0096396
0.00604425
0.00235972
0.0001796
-0.000156725
0.000764224
0.00220839
0.00362903
0.00472093
0.00540145
0.00572848
0.00580466
0.0057217
0.00554363
0.00530984
0.00504296
0.00475586
0.00445585
0.00414729
0.00383275
0.0035138
0.00319136
0.00286595
0.00253787
0.00220726
0.00187423
0.00153878
0.00120096
0.000860737
0.00051813
0.000173111
-0.119544
-0.128683
-0.126435
-0.129822
-0.132772
-0.123893
-0.128579
-0.12714
-0.119212
-0.124219
-0.121633
-0.112834
-0.109709
-0.0983648
-0.0794742
-0.0673712
-0.0691507
-0.092581
-0.133888
-0.156405
-0.147486
-0.124286
-0.111783
-0.123956
-0.155305
-0.164903
-0.134542
-0.101727
-0.0866274
-0.0858614
-0.135049
-0.18433
-0.201831
-0.143294
-0.0090546
0.07064
0.0682546
0.0311308
-0.00181726
-0.0175269
-0.0208072
-0.0119506
0.0103274
0.0174332
-0.00730563
-0.0424407
-0.047407
-0.0159784
0.015994
0.0305122
0.0305841
0.0206752
0.0109775
0.00662765
-0.00225534
-0.0181849
-0.0281451
-0.0219875
-0.00203072
0.0144472
0.02026
0.0171329
0.00560085
-0.0128661
-0.0259782
-0.0221337
-0.00721885
0.005429
0.0106918
0.00981782
0.00617603
0.00241784
0.000179809
-0.000177683
0.000745474
0.0021973
0.00362351
0.00471879
0.00540119
0.00572895
0.00580513
0.00572192
0.00554361
0.00530971
0.00504281
0.00475573
0.00445576
0.00414723
0.00383272
0.00351378
0.00319135
0.00286594
0.00253786
0.00220726
0.00187423
0.00153878
0.00120096
0.000860737
0.00051813
0.000173111
-0.118672
-0.127998
-0.125587
-0.128813
-0.132747
-0.123516
-0.12769
-0.126981
-0.118754
-0.123405
-0.121489
-0.113078
-0.109939
-0.0985715
-0.0799803
-0.0679831
-0.0699579
-0.0922155
-0.131329
-0.152674
-0.145386
-0.124979
-0.113758
-0.124716
-0.15245
-0.157947
-0.127266
-0.0996369
-0.0896814
-0.0852161
-0.126973
-0.177468
-0.196677
-0.135502
-0.000716517
0.0788741
0.0750361
0.0368193
0.00323066
-0.0138698
-0.0194036
-0.0120213
0.0101789
0.0176274
-0.00557654
-0.0404177
-0.0448104
-0.0136823
0.0173427
0.0319458
0.0322521
0.0220388
0.0124381
0.0075105
-0.00171215
-0.0175508
-0.0274101
-0.0211966
-0.0013932
0.014579
0.0202354
0.0172079
0.00587313
-0.0123304
-0.0253534
-0.0215377
-0.0067733
0.00566818
0.0108236
0.00992219
0.00626267
0.00246904
0.000196176
-0.000179212
0.000739959
0.0021924
0.00361928
0.00471538
0.00539881
0.00572745
0.00580416
0.00572123
0.0055431
0.00530932
0.00504253
0.00475554
0.00445564
0.00414716
0.00383267
0.00351376
0.00319133
0.00286594
0.00253786
0.00220726
0.00187422
0.00153878
0.00120096
0.000860737
0.00051813
0.000173111
-0.118268
-0.127349
-0.125129
-0.128151
-0.132501
-0.123511
-0.127044
-0.126718
-0.118735
-0.122782
-0.121218
-0.113307
-0.109962
-0.0986845
-0.0805631
-0.0695647
-0.0712225
-0.0922639
-0.129394
-0.14957
-0.143597
-0.125569
-0.115446
-0.125345
-0.149748
-0.151607
-0.120538
-0.0973266
-0.0907707
-0.0843426
-0.118755
-0.170381
-0.190664
-0.127883
0.00738144
0.0858631
0.0803108
0.0412802
0.00717327
-0.0109868
-0.018364
-0.0122196
0.00983071
0.0173939
-0.00417112
-0.0385558
-0.042274
-0.0118794
0.0184088
0.0331649
0.0333598
0.0230057
0.0133936
0.0080246
-0.00137496
-0.0170065
-0.0267403
-0.0204903
-0.000870151
0.0146401
0.0201552
0.0171906
0.00604949
-0.0118369
-0.0247597
-0.0209706
-0.00638683
0.00581278
0.0108651
0.00996054
0.00631137
0.00251424
0.000225191
-0.000165845
0.000744188
0.0021917
0.00361558
0.00471073
0.00539472
0.00572446
0.00580218
0.00571995
0.00554227
0.00530878
0.00504218
0.00475532
0.0044555
0.00414708
0.00383263
0.00351373
0.00319132
0.00286593
0.00253786
0.00220726
0.00187422
0.00153878
0.00120096
0.000860737
0.00051813
0.000173111
-0.11824
-0.126807
-0.124953
-0.127829
-0.132104
-0.123735
-0.126682
-0.126386
-0.118978
-0.122393
-0.12088
-0.113479
-0.109841
-0.0985604
-0.0809502
-0.0704366
-0.0724757
-0.0924349
-0.128155
-0.147245
-0.142211
-0.126005
-0.11675
-0.125818
-0.147494
-0.146699
-0.115073
-0.0953086
-0.0905423
-0.0836137
-0.111935
-0.163693
-0.184287
-0.120945
0.0146765
0.0912335
0.0839413
0.0445133
0.00998397
-0.00889835
-0.0176069
-0.0123683
0.00947325
0.0169322
-0.00332157
-0.0370877
-0.0404231
-0.0104998
0.0192489
0.0340848
0.0339614
0.023593
0.0138983
0.00823758
-0.00122581
-0.0165842
-0.0261927
-0.0199218
-0.00048024
0.0146569
0.0200576
0.0171143
0.00612366
-0.011438
-0.0242714
-0.0205059
-0.00610148
0.00586969
0.0108425
0.00994996
0.00632937
0.00255061
0.000259409
-0.000144072
0.000754275
0.00219376
0.00361254
0.00470573
0.00538997
0.00572088
0.0057998
0.00571847
0.00554137
0.00530823
0.00504185
0.00475512
0.00445538
0.00414701
0.00383258
0.00351371
0.00319131
0.00286592
0.00253785
0.00220726
0.00187422
0.00153878
0.00120096
0.000860737
0.00051813
0.000173111
-0.118433
-0.12643
-0.124927
-0.127775
-0.131699
-0.123993
-0.126573
-0.126084
-0.119277
-0.122235
-0.120591
-0.113562
-0.109682
-0.0983394
-0.0810651
-0.0710223
-0.0733721
-0.0929711
-0.127196
-0.145748
-0.141262
-0.126245
-0.117591
-0.126186
-0.146102
-0.143879
-0.111681
-0.0941654
-0.0901092
-0.0833635
-0.107945
-0.158497
-0.178533
-0.115221
0.02036
0.0946188
0.0861327
0.0465006
0.0116751
-0.00771183
-0.0171303
-0.0123477
0.00927523
0.0164365
-0.00295545
-0.0361429
-0.0391711
-0.00953586
0.0198507
0.0345828
0.034176
0.0238302
0.0140749
0.00825415
-0.00123277
-0.0163285
-0.0258059
-0.0195173
-0.0002223
0.0146541
0.0199685
0.0170124
0.00609604
-0.0111918
-0.0239436
-0.0201813
-0.00592481
0.00587272
0.0107895
0.00991504
0.00632395
0.00257139
0.000287615
-0.000122428
0.000766137
0.00219783
0.00361131
0.0047022
0.00538626
0.00571799
0.00579787
0.00571727
0.00554066
0.00530781
0.0050416
0.00475497
0.00445529
0.00414695
0.00383255
0.00351369
0.0031913
0.00286592
0.00253785
0.00220725
0.00187422
0.00153878
0.00120096
0.000860736
0.00051813
0.000173111
-0.118855
-0.126273
-0.1249
-0.127887
-0.13147
-0.124121
-0.12665
-0.125922
-0.119515
-0.12227
-0.120459
-0.113572
-0.10956
-0.0981631
-0.0809491
-0.0712482
-0.0738422
-0.0934478
-0.1269
-0.145069
-0.140715
-0.126282
-0.118037
-0.12653
-0.145727
-0.143086
-0.110478
-0.0937891
-0.0898739
-0.0841854
-0.107279
-0.156158
-0.175329
-0.111742
0.023556
0.0961878
0.0871335
0.0473147
0.0122634
-0.00748541
-0.0170113
-0.0121222
0.00928497
0.015767
-0.00306699
-0.0358033
-0.0385057
-0.00897667
0.0201858
0.0347341
0.0341437
0.023758
0.0140398
0.00814426
-0.00138386
-0.0163016
-0.0256205
-0.0192312
-7.60238e-05
0.0146819
0.0199317
0.016863
0.00594548
-0.0111382
-0.023841
-0.019964
-0.00582574
0.00588909
0.0107596
0.00986343
0.00629681
0.00256653
0.00029664
-0.000111038
0.000777587
0.00220486
0.00361454
0.00470304
0.005386
0.00571745
0.00579739
0.00571695
0.00554045
0.00530769
0.00504153
0.00475492
0.00445527
0.00414694
0.00383255
0.00351369
0.00319129
0.00286592
0.00253785
0.00220725
0.00187422
0.00153878
0.00120096
0.000860736
0.00051813
0.000173111
-0.140625
-0.142274
-0.13929
-0.140478
-0.137187
-0.137937
-0.135147
-0.135748
-0.132362
-0.128741
-0.125576
-0.121683
-0.123669
-0.129464
-0.139542
-0.146059
-0.157621
-0.162602
-0.157981
-0.138812
-0.114196
-0.116307
-0.11605
-0.102123
-0.0834483
-0.0699244
-0.0587997
-0.0575837
-0.0445057
-0.0166614
-0.00880009
-0.0121234
-0.0159645
-0.0136778
-0.00107284
-0.00715043
-0.0375646
-0.0749598
-0.0969332
-0.0891001
-0.0583183
-0.0260407
0.00357344
0.0437105
0.0592606
0.0441943
0.0245536
0.0184691
0.024731
0.0183497
-0.00879778
-0.046132
-0.0554327
-0.0279828
0.0132021
0.0341614
0.0337
0.026108
0.0145349
-0.0023848
-0.0161049
-0.0143397
0.0024024
0.013765
0.0139047
0.00668913
-0.00165804
-0.00661797
-0.0074667
-0.00633757
-0.00441606
-0.00193147
0.000695681
0.00282899
0.00415439
0.00483021
0.00517875
0.00541523
0.00560255
0.0057231
0.00575069
0.00568002
0.00552505
0.00530762
0.00504847
0.00476328
0.00446247
0.00415222
0.00383608
0.00351589
0.0031926
0.00286665
0.00253824
0.00220746
0.00187432
0.00153884
0.00120099
0.000860778
0.000518154
0.000173123
-0.140619
-0.142295
-0.139275
-0.140468
-0.137216
-0.137964
-0.135178
-0.135743
-0.132397
-0.128878
-0.125686
-0.121577
-0.123569
-0.129276
-0.139499
-0.146343
-0.157801
-0.163007
-0.158805
-0.139598
-0.11414
-0.115848
-0.116523
-0.102832
-0.083395
-0.0701447
-0.0591348
-0.057859
-0.0452645
-0.0172164
-0.00858009
-0.0119823
-0.0159287
-0.0138753
-0.0011191
-0.00660324
-0.0374154
-0.0755032
-0.0978321
-0.0899227
-0.0587504
-0.0263398
0.00306301
0.0428231
0.0592893
0.0442938
0.0244676
0.018282
0.0247572
0.0187536
-0.00876902
-0.0465187
-0.0561744
-0.0287182
0.0127836
0.0341
0.0337279
0.0262019
0.0146787
-0.00236628
-0.016262
-0.0145533
0.00225678
0.0138137
0.0139873
0.00675702
-0.00165404
-0.00664762
-0.00749102
-0.00635367
-0.00443136
-0.00194735
0.000686287
0.00282702
0.00415521
0.00483059
0.00517808
0.00541424
0.00560187
0.00572287
0.00575078
0.00568022
0.00552526
0.00530778
0.00504857
0.00476334
0.0044625
0.00415224
0.00383609
0.0035159
0.0031926
0.00286665
0.00253824
0.00220746
0.00187432
0.00153884
0.00120099
0.000860778
0.000518153
0.000173123
-0.140614
-0.142364
-0.139277
-0.140466
-0.137259
-0.137995
-0.135233
-0.135831
-0.132467
-0.129048
-0.125841
-0.121319
-0.123384
-0.129087
-0.139588
-0.146595
-0.158064
-0.165054
-0.161053
-0.141217
-0.113617
-0.114948
-0.117499
-0.103782
-0.0833968
-0.0704812
-0.0596176
-0.058415
-0.0466235
-0.018418
-0.0091944
-0.0126371
-0.0161661
-0.013816
-0.000776835
-0.00610067
-0.03821
-0.0772504
-0.0997253
-0.0914302
-0.0594455
-0.0268844
0.0018495
0.0406894
0.0588766
0.0438939
0.0241244
0.0181697
0.0249122
0.0189313
-0.00951275
-0.0477705
-0.057692
-0.0301472
0.011909
0.0338724
0.03366
0.0261388
0.0146252
-0.00256234
-0.0166206
-0.0149309
0.00204746
0.0139188
0.0140862
0.00676834
-0.0017274
-0.0067341
-0.0075407
-0.00637386
-0.0044485
-0.0019616
0.000682897
0.00283228
0.00416121
0.0048334
0.0051784
0.00541407
0.00560229
0.00572389
0.005752
0.00568131
0.00552608
0.00530832
0.0050489
0.00476353
0.0044626
0.00415229
0.00383612
0.00351591
0.00319261
0.00286665
0.00253824
0.00220746
0.00187432
0.00153884
0.00120099
0.000860778
0.000518153
0.000173123
-0.140603
-0.14246
-0.139313
-0.140471
-0.137321
-0.138042
-0.135308
-0.135975
-0.132568
-0.129273
-0.126049
-0.12087
-0.123121
-0.128966
-0.140017
-0.146679
-0.157994
-0.168309
-0.163945
-0.142984
-0.113099
-0.113327
-0.118539
-0.104913
-0.0835603
-0.0709925
-0.0601849
-0.0591934
-0.048516
-0.0199985
-0.0108704
-0.014109
-0.0167965
-0.0135518
-7.46056e-05
-0.00543145
-0.0397248
-0.0798275
-0.102214
-0.093384
-0.0603492
-0.0273945
0.000218395
0.0374394
0.0576325
0.0430424
0.0235047
0.0180489
0.0253116
0.0189095
-0.010944
-0.0496358
-0.0599461
-0.0321443
0.0105324
0.0333064
0.0334191
0.0258944
0.0143711
-0.00294323
-0.0171396