/*--------------------------------*- C++ -*----------------------------------*\
| =========                 |                                                 |
| \\      /  F ield         | OpenFOAM: The Open Source CFD Toolbox           |
|  \\    /   O peration     | Version:  2.4.0                                 |
|   \\  /    A nd           | Web:      www.OpenFOAM.org                      |
|    \\/     M anipulation  |                                                 |
\*---------------------------------------------------------------------------*/
FoamFile
{
    version     2.0;
    format      ascii;
    class       surfaceScalarField;
    location    "70";
    object      phi;
}
// * * * * * * * * * * * * * * * * * * * * * * * * * * * * * * * * * * * * * //

dimensions      [0 3 -1 0 0 0 0];

internalField   nonuniform List<scalar> 
8640
(
0.00042112
6.63799e-05
0.000507556
-8.64355e-05
0.00058287
-7.53142e-05
0.000418505
0.000164364
0.000460355
-4.18497e-05
0.000552967
-9.26122e-05
0.000466641
8.63263e-05
0.000513942
-4.73011e-05
0.000505985
7.95722e-06
0.000448733
5.72522e-05
0.000535591
-8.68585e-05
0.000520419
1.5172e-05
0.000460451
5.9968e-05
0.000540509
-8.00585e-05
0.000481664
5.88452e-05
0.00049179
-1.01259e-05
0.000542891
-5.11007e-05
0.000451292
9.15988e-05
0.000489482
-3.81904e-05
0.000484875
4.60696e-06
0.00131837
0.000135509
0.00143543
-0.000203492
0.0014791
-0.000118984
0.00129268
0.000350781
0.00138265
-0.000131824
0.00144727
-0.000157233
0.00136093
0.00017267
0.0014208
-0.000107175
0.0013952
3.35604e-05
0.00135772
9.47292e-05
0.00145483
-0.000183965
0.00140637
6.36353e-05
0.00137943
8.69005e-05
0.00144325
-0.000143874
0.00140158
0.000100516
0.00139995
-8.49225e-06
0.00146292
-0.000114076
0.00132312
0.000231394
0.00139953
-0.000114596
0.000583794
0.00130061
0.00214334
0.000179673
0.00225263
-0.000312781
0.00226129
-0.000127652
0.00211484
0.000497234
0.00220726
-0.000224239
0.00224184
-0.000191817
0.00218907
0.000225446
0.00223157
-0.00014968
0.00220179
6.33411e-05
0.00218298
0.000113535
0.0022689
-0.000269876
0.00220666
0.000125869
0.0022181
7.54594e-05
0.00224042
-0.000166193
0.00221515
0.000125787
0.00223346
-2.68034e-05
0.00224407
-0.000124684
0.0022283
0.00024716
0.00219288
-7.91713e-05
0.000364559
0.00241212
0.00287422
0.000192952
0.00299879
-0.000437347
0.00292853
-5.73912e-05
0.00283126
0.000594502
0.00294115
-0.000334128
0.00292555
-0.000176219
0.00292438
0.000226618
0.00296188
-0.000187181
0.00289911
0.000126103
0.00291181
0.000100838
0.00298003
-0.000338097
0.00290065
0.00020525
0.00295477
2.13366e-05
0.00295597
-0.00016739
0.00290393
0.000177828
0.00300387
-0.00012674
0.00290613
-2.69459e-05
0.00302257
0.000130719
0.00291927
2.41255e-05
0.00020187
0.00308196
0.00346792
0.000212536
0.00367397
-0.000643396
0.00351856
9.80101e-05
0.00340232
0.000710748
0.00355966
-0.000491471
0.00348291
-9.94699e-05
0.00351107
0.000198463
0.00359505
-0.00027116
0.00348142
0.000239725
0.00351528
6.6979e-05
0.00358709
-0.000409908
0.0034633
0.000329048
0.00354909
-6.44539e-05
0.00356922
-0.000187528
0.00345666
0.000290395
0.00365116
-0.000321245
0.00347085
0.00015337
0.00360875
-7.1886e-06
0.00356771
6.51736e-05
0.000215044
0.00355453
0.00392425
0.000275784
0.00420363
-0.000922776
0.00404197
0.000259671
0.00387006
0.000882659
0.00406101
-0.000682419
0.00394612
1.54167e-05
0.00394922
0.000195365
0.00408648
-0.000408418
0.0039539
0.000372303
0.00398605
3.48227e-05
0.00408321
-0.00050706
0.00392631
0.000485942
0.00400532
-0.000143459
0.00406165
-0.000243858
0.00389374
0.000458299
0.00413181
-0.000559315
0.00394051
0.000344673
0.00403749
-0.000104169
0.00409899
3.67431e-06
0.000353064
0.00396097
0.00429221
0.000371078
0.00457666
-0.00120723
0.00445707
0.000379255
0.00426504
0.00107469
0.0044589
-0.00087628
0.00434154
0.000132777
0.00430628
0.000230626
0.00445469
-0.000556825
0.00432677
0.00050022
0.00434784
1.37493e-05
0.00446141
-0.000620629
0.00430883
0.000638519
0.00436898
-0.000203604
0.00444344
-0.000318323
0.0042564
0.000645343
0.00447922
-0.000782131
0.0043207
0.000503195
0.00436499
-0.000148464
0.0044993
-0.000130634
0.000545144
0.00430722
0.00459203
0.000466549
0.00482801
-0.00144321
0.00474905
0.000458222
0.00458075
0.00124299
0.00474486
-0.00104039
0.00465024
0.000227395
0.00459873
0.000282131
0.00472549
-0.000683588
0.00461474
0.000610975
0.00462442
4.07025e-06
0.00472804
-0.000724255
0.00460395
0.000762615
0.00465001
-0.000249662
0.00471705
-0.000385362
0.00455582
0.000806573
0.00472498
-0.000951296
0.00461802
0.000610156
0.00461693
-0.000147373
0.00477638
-0.000290085
0.00073657
0.00458495
0.00481824
0.000535813
0.00497514
-0.00160012
0.00492417
0.000509197
0.00480959
0.00135757
0.00491448
-0.00114527
0.0048549
0.000286976
0.00481035
0.000326679
0.00489751
-0.000770743
0.00481687
0.000691611
0.00482125
-3.07831e-07
0.00489115
-0.000794159
0.00480858
0.000845186
0.00484267
-0.000283752
0.00487998
-0.000422668
0.00478043
0.000906119
0.0048723
-0.00104317
0.00482595
0.000656505
0.00479602
-0.000117438
0.00493511
-0.000429174
0.000881677
0.00479
0.00496046
0.000562855
0.00502086
-0.00166052
0.00499181
0.000538253
0.00494786
0.00140151
0.00497248
-0.00116989
0.00495549
0.00030397
0.00493145
0.000350717
0.00496777
-0.000807065
0.00492819
0.000731193
0.00493336
-5.48264e-06
0.00495374
-0.000814537
0.00492315
0.000875777
0.00494232
-0.000302924
0.00493762
-0.000417963
0.00491997
0.000923765
0.00492079
-0.00104398
0.00493601
0.000641285
0.00489523
-7.66594e-05
0.00498059
-0.000514534
0.000946246
0.00491602
0.00500815
0.000542205
0.00496118
-0.00161356
0.00495969
0.000539752
0.00499096
0.00137024
0.00493039
-0.00110932
0.00495599
0.000278365
0.00495904
0.000347675
0.00493765
-0.000785674
0.00494726
0.000721582
0.0049533
-1.15215e-05
0.00491881
-0.000780048
0.00494562
0.000848964
0.00494417
-0.000301479
0.00489981
-0.000373603
0.00496457
0.000859009
0.00487891
-0.000958318
0.00494433
0.000575861
0.00490729
-3.96234e-05
0.00492522
-0.000532459
0.000915792
0.00495567
0.00495045
0.000479253
0.00479971
-0.00146281
0.00482754
0.00051192
0.0049315
0.00126627
0.00479886
-0.000976682
0.0048599
0.00021733
0.00489
0.00031757
0.00481167
-0.000707343
0.00487042
0.000662833
0.00487435
-1.54463e-05
0.0047884
-0.000694098
0.0048733
0.000764059
0.00484321
-0.000271387
0.00477853
-0.000308928
0.00490395
0.00073359
0.00475355
-0.000807916
0.00485691
0.000472504
0.00482524
-7.95938e-06
0.00478391
-0.00049113
0.000798812
0.00490089
0.00477872
0.000388031
0.00454051
-0.0012246
0.0046008
0.000451631
0.00476203
0.00110504
0.00458134
-0.000795989
0.00467345
0.000125226
0.0047194
0.000271615
0.00459391
-0.000581856
0.00469442
0.000562323
0.00468866
-9.67923e-06
0.00456886
-0.000574305
0.00470432
0.0006286
0.0046413
-0.000208364
0.00458232
-0.00024995
0.00473628
0.00057963
0.00455041
-0.000622041
0.00467966
0.000343253
0.00464541
2.62932e-05
0.00457205
-0.000417774
0.000632863
0.004738
0.00448314
0.000292387
0.00418735
-0.000928809
0.00429247
0.000346507
0.00448378
0.00091373
0.00428696
-0.000599168
0.00440285
9.33946e-06
0.00444061
0.000233857
0.00428853
-0.000429783
0.00441921
0.000431643
0.00439525
1.42821e-05
0.00427518
-0.000454235
0.00444019
0.00046359
0.00435032
-0.000118498
0.00431595
-0.000215577
0.00446109
0.00043449
0.00427336
-0.000434313
0.00441093
0.000205683
0.00436796
6.92694e-05
0.00429471
-0.000344523
0.000461144
0.00446643
0.00405646
0.000223431
0.00376411
-0.000636459
0.00392537
0.000185245
0.0041048
0.000734302
0.00392463
-0.000419002
0.00404121
-0.000107236
0.00404565
0.00022941
0.00390447
-0.000288602
0.00404864
0.000287479
0.00400756
5.53548e-05
0.0039191
-0.000365775
0.00407758
0.000305111
0.00397653
-1.74458e-05
0.00396704
-0.000206086
0.00407537
0.000326162
0.00391719
-0.000276137
0.00404183
8.10407e-05
0.0039968
0.000114299
0.00394171
-0.000289431
0.000316231
0.00408662
0.00351664
0.000194296
0.00330707
-0.00042689
0.00348647
5.84102e-06
0.00361581
0.000604967
0.00347745
-0.000280643
0.0035531
-0.000182888
0.00353556
0.000246945
0.00344679
-0.000199825
0.00357502
0.000159244
0.00353089
9.94825e-05
0.00347566
-0.000310542
0.00358885
0.000191923
0.00350391
6.74906e-05
0.00350538
-0.000207556
0.00357582
0.00025573
0.00346764
-0.000167964
0.00355796
-9.27226e-06
0.00352639
0.000145864
0.00348466
-0.000247706
0.00021357
0.00358733
0.00291004
0.000171759
0.00278963
-0.000306488
0.00289249
-9.70188e-05
0.00299852
0.000498937
0.00290832
-0.000190435
0.00291872
-0.000193291
0.0029304
0.000235266
0.00288496
-0.000154383
0.00296497
7.92248e-05
0.00294274
0.000121722
0.00289203
-0.000259836
0.00295676
0.00012719
0.00292127
0.000102982
0.00291034
-0.000196629
0.00296441
0.000201662
0.00290079
-0.000104337
0.00294192
-5.04027e-05
0.00293842
0.000149362
0.0028921
-0.000201388
0.000144422
0.00296125
0.00223294
0.000126321
0.00212731
-0.000200863
0.00213875
-0.000108455
0.00228526
0.000352428
0.00220937
-0.000114547
0.00217021
-0.000154126
0.00222973
0.000175741
0.00218188
-0.00010653
0.00222595
3.51517e-05
0.00224085
0.000106822
0.00216853
-0.000187513
0.0022182
7.75203e-05
0.00223054
9.06337e-05
0.0021854
-0.000151489
0.00224692
0.000140149
0.00220193
-5.93543e-05
0.0022031
-5.15667e-05
0.00223337
0.000119087
0.00217146
-0.000139476
8.84294e-05
0.00222745
0.0014492
6.46201e-05
0.00133327
-8.493e-05
0.00129655
-7.17347e-05
0.0014827
0.000166273
0.00140356
-3.54068e-05
0.00133835
-8.89102e-05
0.00142775
8.634e-05
0.00136774
-4.65222e-05
0.00139868
4.21096e-06
0.00144149
6.40128e-05
0.00134518
-9.11987e-05
0.00139617
2.65235e-05
0.00143193
5.48784e-05
0.00135799
-7.75518e-05
0.00143392
6.42161e-05
0.00139246
-1.78911e-05
0.00137513
-3.42356e-05
0.0014302
6.40111e-05
0.00135503
-6.43044e-05
3.59475e-05
0.00140751
0.00055212
0.00046719
0.000395455
0.000561729
0.000526322
0.000437412
0.000523751
0.000477229
0.00048144
0.000545453
0.000454254
0.000480778
0.000535656
0.000458104
0.00052232
0.000504429
0.000470194
0.000534205
0.0004699
0.000505848
0.000440423
0.000485021
-0.000920837
0.00122525
-0.000356332
-0.000428495
0.000846703
0.000345479
3.30691e-05
0.00116126
-0.000742806
0.000428245
0.00141019
-0.000188067
-6.08599e-05
0.00139909
-6.87083e-05
7.9814e-05
0.00163195
-0.00109763
0.000864763
0.00184937
0.000238297
-0.000455714
0.00215687
-0.000858349
0.000550854
0.00230061
-0.00113804
0.00099429
0.00231904
-0.00253259
0.00251416
0.00239133
-0.000814331
0.000742043
0.00258962
-0.000819856
0.000621565
0.0027761
-0.000813098
0.000626619
0.00291625
-0.000476397
0.000336242
0.0033142
-0.00167966
0.00128171
0.00417088
-0.00374462
0.00288794
0.0046942
-0.00713592
0.0066126
0.00483516
-0.00759139
0.00745044
0.0047015
-0.00556422
0.00569788
0.00453915
-0.00399388
0.00415623
0.00453037
-0.00354991
0.00355869
0.0043966
-0.00478627
0.00492004
0.00405522
-0.00565418
0.00599556
0.00362905
-0.00519743
0.0056236
0.00340603
-0.00212802
0.00235104
0.00306266
0.000348983
-5.61091e-06
0.00245316
0.00194387
-0.00133437
0.00211744
0.000271017
6.47042e-05
0.00234717
-0.00437929
0.00414956
0.00280138
-0.00174618
0.00129197
0.00297745
0.000539495
-0.00071556
0.00309314
0.00415484
-0.00427053
0.00313818
0.0102936
-0.0103386
0.00290114
0.0129018
-0.0126648
0.00260695
0.0120637
-0.0117695
0.00247757
0.00846112
-0.00833173
0.00243343
0.00504478
-0.00500065
0.00246388
0.00139824
-0.00142869
0.00259362
-0.00358424
0.0034545
0.00268366
-0.00633944
0.0062494
0.00262004
-0.00632626
0.00638988
0.00256022
-0.00654397
0.00660379
0.00250465
-0.00759127
0.00764684
0.00232945
-0.00772553
0.00790074
0.00230887
-0.00368301
0.00370359
0.00246822
0.00238539
-0.00254474
0.00248748
0.00548853
-0.0055078
0.002359
0.00729821
-0.00716972
0.00242277
0.00710929
-0.00717306
0.00251722
0.00490056
-0.00499501
0.00259675
0.00236071
-0.00244023
0.00275033
-0.00225676
0.00210318
0.00280769
-0.0066257
0.00656834
0.00271005
-0.00752163
0.00761927
0.00253369
-0.00533654
0.0055129
0.00244281
-0.00171311
0.00180399
0.00249414
0.0020491
-0.00210043
0.00252945
0.00435277
-0.00438808
0.0025289
0.0040973
-0.00409674
0.00257772
0.00114226
-0.00119109
0.00262332
-0.002339
0.0022934
0.00259126
-0.00411954
0.0041516
0.002547
-0.00355147
0.00359573
0.00258812
-0.000626689
0.000585567
0.00265789
0.00262495
-0.00269472
0.00266258
0.00387107
-0.00387576
0.00260203
0.00318127
-0.00312072
0.00252707
0.00187982
-0.00180486
0.00248185
0.000661459
-0.000616235
0.00247289
-0.000336081
0.000345034
0.00247615
-0.00096316
0.000959902
0.00246993
-0.00112265
0.00112887
0.00244919
-0.000916406
0.000937154
0.00241688
-0.000566182
0.000598488
0.00237633
-0.00026039
0.000300936
0.00233071
-7.71648e-05
0.000122783
0.00228375
-3.36347e-06
5.03259e-05
0.00223912
7.9589e-06
3.66739e-05
0.00219964
-3.62335e-06
4.31034e-05
0.00216689
-1.69844e-05
4.97347e-05
0.00214125
-2.49348e-05
5.0572e-05
0.00212221
-2.70751e-05
4.61131e-05
0.00210874
-2.51828e-05
3.86537e-05
0.00209963
-2.11792e-05
3.02946e-05
0.00209371
-1.65111e-05
2.24274e-05
0.00209002
-1.20853e-05
1.57773e-05
0.0020878
-8.36603e-06
1.05854e-05
0.00208651
-5.50292e-06
6.7902e-06
0.00208579
-3.45069e-06
4.17203e-06
0.0020854
-2.06869e-06
2.45967e-06
0.0020852
-1.18796e-06
1.39317e-06
0.00208509
-6.55143e-07
7.59538e-07
0.00208504
-3.47296e-07
3.98821e-07
0.00208501
-1.7765e-07
2.0236e-07
0.002085
-8.74591e-08
9.89578e-08
0.002085
-4.18385e-08
4.70256e-08
0.002085
-1.90955e-08
2.1382e-08
0.00208499
-8.91218e-09
9.93792e-09
-3.09477e-09
3.43898e-09
0.00113835
0.000647287
0.00166663
-0.000884615
0.00168686
0.000325253
0.00178606
-0.00084201
0.00205558
-0.000457587
0.00216189
-0.000175021
0.00224949
-0.00118523
0.00242115
6.66417e-05
0.00282327
-0.00126048
0.00295083
-0.00126559
0.00285162
-0.00243338
0.0030857
-0.00104841
0.00318979
-0.000923941
0.00325452
-0.000877827
0.00342365
-0.000645534
0.00377684
-0.00203285
0.00449121
-0.00445899
0.0048897
-0.00753442
0.00488891
-0.0075906
0.00465893
-0.00533424
0.00446193
-0.00379688
0.004395
-0.00348297
0.00413528
-0.00452656
0.00370816
-0.00522705
0.00326644
-0.0047557
0.00305545
-0.00191704
0.00270932
0.000695121
0.00202792
0.00262527
0.00175258
0.000546351
0.00211317
-0.00473987
0.0026171
-0.00225011
0.00280259
0.000354005
0.00294249
0.00401493
0.00305786
0.0101782
0.00291869
0.013041
0.00270239
0.01228
0.00261846
0.00854504
0.00260833
0.00505491
0.00266645
0.00134013
0.002776
-0.00369379
0.00281547
-0.00637891
0.00269756
-0.00620835
0.00257454
-0.00642095
0.00246973
-0.00748647
0.00225351
-0.00750932
0.00220136
-0.00363086
0.00237231
0.00221444
0.00242688
0.00543396
0.00235341
0.00737168
0.00246577
0.00699693
0.0025712
0.00479513
0.00266762
0.00226428
0.00282641
-0.00241555
0.00284038
-0.00663967
0.00268671
-0.00736795
0.00247917
-0.00512901
0.00237989
-0.00161383
0.00243735
0.00199164
0.00249127
0.00429885
0.00251977
0.0040688
0.00257775
0.00108428
0.00260329
-0.00236454
0.00254724
-0.00406348
0.00248221
-0.00348645
0.00251425
-0.000658729
0.00259821
0.002541
0.00263215
0.00383713
0.00259957
0.00321384
0.00254404
0.00193535
0.00250982
0.000695678
0.0025043
-0.000330563
0.00250391
-0.000962771
0.00248943
-0.00110817
0.00245982
-0.000886793
0.00242105
-0.000527414
0.00237719
-0.000216531
0.00233057
-3.05463e-05
0.00228375
4.34647e-05
0.00223958
5.2129e-05
0.0022005
3.54548e-05
0.00216797
1.55421e-05
0.00214237
6.62249e-07
0.00212323
-7.93109e-06
0.00210956
-1.15123e-05
0.0021002
-1.18236e-05
0.00209405
-1.0357e-05
0.00209015
-8.18603e-06
0.00208777
-5.98242e-06
0.00208636
-4.09533e-06
0.00208556
-2.647e-06
0.00208511
-1.62443e-06
0.00208487
-9.50244e-07
0.00208475
-5.31634e-07
0.00208469
-2.85271e-07
0.00208466
-1.47147e-07
0.00208464
-7.31178e-08
0.00208464
-3.51352e-08
0.00208463
-1.61542e-08
0.00208463
-7.52028e-09
-2.63928e-09
0.0022633
0.000796099
0.0023326
-0.000953914
0.0025914
6.64596e-05
0.00259433
-0.000844943
0.00266426
-0.000527517
0.00291486
-0.000425626
0.00300849
-0.00127886
0.00304235
3.27847e-05
0.00337757
-0.00159569
0.00353008
-0.00141811
0.00334799
-0.00225129
0.00363277
-0.00133319
0.00369091
-0.00098208
0.00371071
-0.000897632
0.0039041
-0.000838924
0.00417047
-0.00229922
0.0047188
-0.00500731
0.00497473
-0.00779035
0.00483723
-0.0074531
0.00453685
-0.00503387
0.00431557
-0.0035756
0.00416389
-0.00333129
0.0037831
-0.00414577
0.00331126
-0.00475521
0.00289351
-0.00433796
0.00269899
-0.00172252
0.0023339
0.00106022
0.00161503
0.00334413
0.00141069
0.000750691
0.00186885
-0.00519803
0.00240177
-0.00278303
0.0025881
0.000167672
0.00276536
0.00383767
0.00295419
0.00998937
0.00291288
0.0130823
0.00278073
0.0124122
0.00274636
0.00857941
0.00277163
0.00502964
0.00285759
0.00125418
0.00294368
-0.00377988
0.00292871
-0.00636394
0.00275822
-0.00603787
0.00257352
-0.00623624
0.00241914
-0.00733209
0.00216671
-0.00725689
0.00208583
-0.00354998
0.00226471
0.00203556
0.00235076
0.00534791
0.00233469
0.00738775
0.00249508
0.00683654
0.00260998
0.00468022
0.00272507
0.00214919
0.0028864
-0.00257688
0.0028532
-0.00660646
0.00264366
-0.00715842
0.00240936
-0.00489471
0.00230478
-0.00150925
0.00236644
0.00192999
0.00243797
0.00422731
0.00249619
0.00401059
0.00256143
0.00101904
0.00256535
-0.00236847
0.00248613
-0.00398426
0.00240235
-0.00340266
0.0024255
-0.000681888
0.00252199
0.00244451
0.00258391
0.00377521
0.00257933
0.00321842
0.00254413
0.00197056
0.0025222
0.000717607
0.00252105
-0.000329415
0.00251736
-0.000959076
0.00249462
-0.00108543
0.00245622
-0.000848395
0.00241132
-0.000482511
0.0023648
-0.000170014
0.0023182
1.60568e-05
0.00227288
8.87902e-05
0.00223077
9.42362e-05
0.00219378
7.24387e-05
0.00216311
4.62177e-05
0.00213899
2.47776e-05
0.00212093
1.01312e-05
0.00210798
1.44012e-06
0.00209905
-2.89712e-06
0.00209312
-4.42903e-06
0.00208932
-4.38616e-06
0.00208697
-3.62874e-06
0.00208556
-2.68551e-06
0.00208474
-1.82995e-06
0.00208429
-1.166e-06
0.00208404
-7.01132e-07
0.00208391
-4.0043e-07
0.00208384
-2.18277e-07
0.0020838
-1.13928e-07
0.00208379
-5.71459e-08
0.00208378
-2.76868e-08
0.00208378
-1.27744e-08
0.00208378
-5.96695e-09
-2.10317e-09
0.00318898
0.000689078
0.00302344
-0.000788373
0.00329392
-0.000204023
0.00336299
-0.000914006
0.00328241
-0.000446936
0.00351228
-0.000655503
0.00363618
-0.00140276
0.00362673
4.22375e-05
0.0038573
-0.00182627
0.00398919
-0.00155
0.00376814
-0.00203023
0.00404748
-0.00161253
0.00407849
-0.00101309
0.00407583
-0.00089497
0.004264
-0.00102709
0.00445338
-0.0024886
0.00484876
-0.00540269
0.0049465
-0.00788809
0.00468154
-0.00718815
0.00433925
-0.00469157
0.00409382
-0.00333017
0.00383642
-0.00307389
0.00335917
-0.00366851
0.00289211
-0.00428815
0.00252777
-0.00397363
0.00234444
-0.00153918
0.00194775
0.00145691
0.0012365
0.00405537
0.00109921
0.000887991
0.00160353
-0.00570235
0.00215261
-0.00333211
0.00233711
-1.68338e-05
0.00255984
0.00361495
0.00282577
0.00972343
0.00288368
0.0130244
0.00284088
0.012455
0.00285926
0.00856102
0.00292046
0.00496844
0.00303395
0.00114068
0.00309344
-0.00383937
0.0030216
-0.00629211
0.00280102
-0.00581729
0.0025571
-0.00599232
0.00235338
-0.00712837
0.00206975
-0.00697326
0.00196324
-0.00344347
0.00214619
0.00185261
0.00225983
0.00523427
0.00230354
0.00734404
0.00251062
0.00662946
0.00263427
0.00455658
0.00277031
0.00201315
0.00293
-0.00273657
0.00284549
-0.00652195
0.00258113
-0.00689406
0.00232473
-0.00463831
0.00221771
-0.00140223
0.00228174
0.00186596
0.00237041
0.00413864
0.00245814
0.00392285
0.00252872
0.000948464
0.00251016
-0.00234991
0.00240872
-0.00388283
0.00230809
-0.00330203
0.00232271
-0.000696509
0.00243018
0.00233704
0.0025187
0.00368669
0.00254185
0.00319528
0.00252761
0.00198479
0.0025191
0.000726116
0.00252314
-0.000333453
0.00251629
-0.000952226
0.00248522
-0.00105437
0.00243817
-0.00080134
0.00238758
-0.000431923
0.00233917
-0.000121602
0.00229368
6.15487e-05
0.00225123
0.000131231
0.00221278
0.000132689
0.00217955
0.000105672
0.0021523
7.34681e-05
0.00213104
4.60328e-05
0.00211519
2.59876e-05
0.00210381
1.28123e-05
0.00209594
4.9734e-06
0.00209068
8.38489e-07
0.00208726
-9.73817e-07
0.00208512
-1.4886e-06
0.00208382
-1.38606e-06
0.00208306
-1.0662e-06
0.00208263
-7.31451e-07
0.00208239
-4.61743e-07
0.00208226
-2.72711e-07
0.00208219
-1.52257e-07
0.00208216
-8.08265e-08
0.00208214
-4.10622e-08
0.00208214
-2.01042e-08
0.00208213
-9.31222e-09
0.00208213
-4.36201e-09
-1.54493e-09
0.0038442
0.000399414
0.00360832
-0.000552495
0.003804
-0.000399704
0.00395074
-0.00106075
0.00381318
-0.000309374
0.00399995
-0.000842272
0.00412102
-0.00152383
0.00409462
6.86353e-05
0.00423784
-0.00196949
0.00434188
-0.00165404
0.00411264
-0.001801
0.00433912
-0.00183901
0.00435892
-0.00103289
0.00433784
-0.000873896
0.0044839
-0.00117315
0.00462928
-0.00263398
0.00488689
-0.0056603
0.00480909
-0.00781028
0.00443332
-0.00681238
0.0040745
-0.00433275
0.00379489
-0.00305057
0.00342359
-0.00270259
0.00289188
-0.0031368
0.00247494
-0.00387122
0.00217724
-0.00367593
0.0019933
-0.00135524
0.00156083
0.00188938
0.000905476
0.00471073
0.000821569
0.000971897
0.00131692
-0.00619771
0.00187477
-0.00388995
0.00205849
-0.000200557
0.00232977
0.00334367
0.00267245
0.00938076
0.00282858
0.0128682
0.00288141
0.0124021
0.00295702
0.00848541
0.00305495
0.00487051
0.00319264
0.00100299
0.00322237
-0.00386909
0.0030927
-0.00616244
0.00282531
-0.0055499
0.00252536
-0.00569237
0.00227298
-0.00687599
0.00196339
-0.00666367
0.00183454
-0.00331463
0.00201751
0.00166965
0.00215483
0.00509695
0.00226054
0.00723833
0.0025121
0.00637789
0.00264496
0.00442372
0.0028045
0.00185361
0.00295665
-0.00288872
0.00281667
-0.00638197
0.00249948
-0.00657688
0.00222578
-0.0043646
0.00211877
-0.00129523
0.00218374
0.001801
0.00228938
0.004033
0.0024062
0.00380603
0.00247981
0.000874858
0.00243861
-0.00230871
0.00231599
-0.00376021
0.00220027
-0.00318632
0.0022068
-0.00070303
0.00232384
0.00222
0.00243752
0.003573
0.00248783
0.00314497
0.00249498
0.00197765
0.0025009
0.000720187
0.00251076
-0.000343312
0.00250064
-0.000942107
0.00246109
-0.00101481
0.0024056
-0.000745857
0.00234995
-0.000376265
0.00230056
-7.22139e-05
0.00225737
0.000104742
0.00221923
0.000169365
0.002186
0.000165917
0.0021581
0.000133573
0.00213573
9.58396e-05
0.00211857
6.3194e-05
0.0021059
3.86589e-05
0.00209684
2.18694e-05
0.00209055
1.12616e-05
0.00208631
5.08355e-06
0.00208352
1.81109e-06
0.00208175
2.84505e-07
0.00208066
-2.91939e-07
0.00208
-4.12581e-07
0.00207962
-3.53675e-07
0.00207941
-2.50543e-07
0.0020793
-1.58505e-07
0.00207924
-9.24964e-08
0.00207921
-5.05392e-08
0.00207919
-2.62053e-08
0.00207919
-1.30345e-08
0.00207918
-6.06192e-09
0.00207918
-2.84662e-09
-1.01574e-09
0.00431746
4.29226e-05
0.00408916
-0.000324192
0.00419619
-0.000506736
0.00438726
-0.00125182
0.00422993
-0.000152044
0.00436695
-0.000979293
0.00446832
-0.0016252
0.00444435
9.26045e-05
0.0045117
-0.00203683
0.00458137
-0.00172371
0.00437216
-0.00159178
0.00452134
-0.00198819
0.00454248
-0.00105403
0.00450236
-0.000833781
0.00458483
-0.00125562
0.00471399
-0.00276315
0.00483082
-0.00577712
0.00456533
-0.00754479
0.00410567
-0.00635272
0.0037489
-0.00397598
0.00342195
-0.00272361
0.00294759
-0.00222823
0.00241301
-0.00260221
0.00207531
-0.00353352
0.00183898
-0.0034396
0.00164307
-0.00115933
0.00118167
0.00235077
0.000623775
0.00526862
0.000582395
0.00101328
0.0010214
-0.00663671
0.00157824
-0.00444679
0.00176594
-0.000388252
0.0020783
0.00303131
0.00249411
0.00896495
0.00275011
0.0126122
0.00290248
0.0122498
0.00303757
0.00835033
0.0031722
0.00473588
0.00333047
0.000844722
0.00332761
-0.00386623
0.00314099
-0.00597582
0.00283078
-0.00523969
0.00247852
-0.00534011
0.00217843
-0.0065759
0.00184841
-0.00633364
0.00170075
-0.00316696
0.00187965
0.00149074
0.00203696
0.00493964
0.00220657
0.00706872
0.0024993
0.00608516
0.00264304
0.00427998
0.00282861
0.00166804
0.00296556
-0.00302567
0.00276631
-0.00618271
0.00239929
-0.00620986
0.00211291
-0.00407822
0.00200796
-0.00119028
0.00207293
0.00173603
0.00219599
0.00390994
0.00234102
0.003661
0.00241553
0.00080035
0.00235182
-0.002245
0.00220905
-0.00361744
0.00207979
-0.00305705
0.00207866
-0.000701902
0.00220407
0.00209459
0.00234146
0.00343561
0.00241812
0.00306831
0.00244693
0.00194883
0.00246828
0.000698839
0.00248428
-0.000359311
0.00247045
-0.000928274
0.00242218
-0.000966544
0.00235867
-0.000682345
0.0022988
-0.000316398
0.00224955
-2.29636e-05
0.00220997
0.000144325
0.0021776
0.000201731
0.00215112
0.000192403
0.00212999
0.000154705
0.00211373
0.00011209
0.00210166
7.52717e-05
0.00209291
4.74048e-05
0.0020867
2.80821e-05
0.00208236
1.56013e-05
0.00207938
8.05937e-06
0.00207739
3.80596e-06
0.00207609
1.58589e-06
0.00207526
5.31186e-07
0.00207476
9.08184e-08
0.00207446
-5.64245e-08
0.00207429
-8.11719e-08
0.0020742
-6.53962e-08
0.00207415
-4.30822e-08
0.00207413
-2.51985e-08
0.00207411
-1.36527e-08
0.00207411
-7.00698e-09
0.0020741
-3.27118e-09
0.0020741
-1.53977e-09
-5.58464e-10
0.00465573
-0.00030559
0.0044721
-0.000140565
0.00450167
-0.000536306
0.00469648
-0.00144662
0.0045449
-4.6358e-07
0.00462988
-0.00106428
0.00469457
-0.00168989
0.00468694
0.000100239
0.0046903
-0.0020402
0.00472685
-0.00176025
0.00455379
-0.00141872
0.00461409
-0.0020485
0.00464092
-0.00108085
0.00457801
-0.000770876
0.00459679
-0.0012744
0.00471627
-0.00288263
0.00467243
-0.00573328
0.00422622
-0.00709858
0.0037185
-0.005845
0.00337123
-0.00362872
0.00298452
-0.0023369
0.00243552
-0.00167924
0.00194742
-0.00211411
0.00169591
-0.00328201
0.00150443
-0.00324811
0.0012912
-0.0009461
0.000819006
0.00282296
0.000384906
0.00570272
0.000383021
0.00101516
0.000731036
-0.00698473
0.0012715
-0.00498726
0.00147024
-0.00058699
0.00181352
0.00268803
0.00229177
0.0084867
0.00264339
0.0122606
0.00290053
0.0119926
0.0030997
0.00815117
0.0032726
0.00456298
0.00344498
0.000672339
0.00340706
-0.00382832
0.00316598
-0.00573474
0.00281746
-0.00489117
0.00241699
-0.00493963
0.00207021
-0.00622912
0.00172544
-0.00598887
0.00156288
-0.00300441
0.00173337
0.00132026
0.00190712
0.00476588
0.00214213
0.00683371
0.00247191
0.00575538
0.00262983
0.00412206
0.00284302
0.00145484
0.00295575
-0.0031384
0.00269414
-0.00592109
0.00228131
-0.00579704
0.00198644
-0.00378335
0.00188511
-0.00108895
0.00194985
0.00167128
0.00209157
0.00376823
0.00226355
0.00348902
0.00233689
0.000727008
0.0022511
-0.00215921
0.00208916
-0.0034555
0.00194753
-0.00291542
0.00193929
-0.000693666
0.0020721
0.00196178
0.00223173
0.00327598
0.00233367
0.00296637
0.00238443
0.00189808
0.00242213
0.00066114
0.00244412
-0.000381303
0.00242574
-0.00090989
0.00236855
-0.000909354
0.00229769
-0.000611491
0.00223479
-0.0002535
0.00218705
2.47757e-05
0.00215253
0.000178848
0.00212741
0.000226847
0.00210907
0.000210747
0.0020959
0.000167878
0.00208667
0.000121317
0.0020803
8.16427e-05
0.00207588
5.18255e-05
0.00207276
3.12042e-05
0.00207052
1.78418e-05
0.0020689
9.67127e-06
0.00206776
4.94934e-06
0.00206697
2.37471e-06
0.00206645
1.05603e-06
0.00206611
4.26066e-07
0.00206591
1.48853e-07
0.00206579
3.93206e-08
0.00206572
2.44807e-09
0.00206568
-6.38079e-09
0.00206566
-6.09454e-09
0.00206565
-4.08049e-09
0.00206565
-2.36459e-09
0.00206565
-1.10574e-09
0.00206565
-5.22564e-10
-2.02486e-10
0.0048771
-0.000597733
0.00475282
-1.6291e-05
0.00472544
-0.000508919
0.00488496
-0.00160615
0.00476512
0.000119371
0.00479871
-0.00109786
0.00481706
-0.00170824
0.00483829
7.90141e-05
0.00478349
-0.00198539
0.00479104
-0.00176781
0.00465577
-0.00128345
0.00463046
-0.00202319
0.00466079
-0.00111118
0.00457032
-0.000680408
0.00454486
-0.00124893
0.00463524
-0.00297301
0.004405
-0.00550303
0.00380567
-0.00649926
0.00328717
-0.00532649
0.00294428
-0.00328583
0.00249233
-0.00188496
0.00191465
-0.00110156
0.00151287
-0.00171233
0.00133279
-0.00310193
0.00116554
-0.00308085
0.000938036
-0.0007186
0.000480916
0.00328008
0.000182034
0.00600161
0.00021366
0.000983536
0.000444802
-0.00721587
0.000955109
-0.00549756
0.00117821
-0.000810092
0.001537
0.00232924
0.00206726
0.00795643
0.00251561
0.0118123
0.0028774
0.0116308
0.00314162
0.00788695
0.00335339
0.00435121
0.00353315
0.000492581
0.00345848
-0.00375366
0.00316757
-0.00544382
0.00278559
-0.00450919
0.00234123
-0.00449527
0.0019488
-0.0058367
0.00159472
-0.00563479
0.00142185
-0.00283154
0.00157952
0.00116258
0.00176683
0.00457857
0.002068
0.00653255
0.00242991
0.00539347
0.00260619
0.00394579
0.00284808
0.00121296
0.00292596
-0.00321629
0.00260011
-0.00559524
0.00214653
-0.00534346
0.00184655
-0.00348336
0.00174979
-0.000992198
0.00181511
0.00160596
0.00197744
0.0036059
0.00217487
0.00329159
0.00224519
0.000656693
0.002138
-0.00205202
0.00195765
-0.00327515
0.00180454
-0.00276231
0.00178968
-0.000678802
0.0019292
0.00182226
0.00210958
0.0030956
0.00223556
0.00284039
0.00230867
0.00182496
0.00236353
0.000606288
0.00239068
-0.000408458
0.00236646
-0.000885673
0.00230027
-0.000843157
0.00222318
-0.000534404
0.00215887
-0.000189187
0.00211432
6.93256e-05
0.00208644
0.000206721
0.00207001
0.000243285
0.00206095
0.000219802
0.00205651
0.000172319
0.00205471
0.000123114
0.00205417
8.21812e-05
0.00205404
5.19556e-05
0.00205392
3.13327e-05
0.00205367
1.80833e-05
0.00205335
9.99733e-06
0.002053
5.29247e-06
0.0020527
2.6804e-06
0.00205246
1.29742e-06
0.00205228
5.99571e-07
0.00205217
2.64315e-07
0.0020521
1.11265e-07
0.00205205
4.47452e-08
0.00205203
1.72325e-08
0.00205202
6.47598e-09
0.00205201
2.31902e-09
0.00205201
7.79362e-10
0.00205201
3.73389e-10
0.00205201
1.73108e-10
4.03473e-11
0.0049926
-0.00080033
0.00492865
4.76548e-05
0.00486742
-0.00044769
0.00495939
-0.00169811
0.0048931
0.000185667
0.00487681
-0.00108158
0.00484958
-0.00168101
0.00490671
2.18817e-05
0.00480069
-0.00187938
0.00478396
-0.00175107
0.0046765
-0.00117599
0.00458362
-0.00193031
0.00460427
-0.00113183
0.00448679
-0.00056293
0.00444279
-0.00120494
0.00446131
-0.00299153
0.0040306
-0.00507233
0.00332862
-0.00579728
0.00282344
-0.00482131
0.00246876
-0.00293115
0.0019627
-0.00137889
0.00141563
-0.000554488
0.00111995
-0.00141665
0.000978634
-0.00296061
0.000818508
-0.00292073
0.000589422
-0.000489514
0.000179047
0.00369046
2.33965e-05
0.00615726
5.85045e-05
0.000948428
0.00014313
-0.0073005
0.000624714
-0.00597915
0.00088786
-0.00107324
0.00125378
0.00196333
0.00182008
0.00739013