/*--------------------------------*- C++ -*----------------------------------*\
| =========                 |                                                 |
| \\      /  F ield         | OpenFOAM: The Open Source CFD Toolbox           |
|  \\    /   O peration     | Version:  2.4.0                                 |
|   \\  /    A nd           | Web:      www.OpenFOAM.org                      |
|    \\/     M anipulation  |                                                 |
\*---------------------------------------------------------------------------*/
FoamFile
{
    version     2.0;
    format      ascii;
    class       surfaceScalarField;
    location    "0.98";
    object      phi;
}
// * * * * * * * * * * * * * * * * * * * * * * * * * * * * * * * * * * * * * //

dimensions      [0 3 -1 0 0 0 0];

internalField   nonuniform List<scalar> 
8640
(
0.0465724
0.00342765
0.051269
-0.00469665
0.0479808
0.00328823
0.0484581
-0.000477317
0.0498525
-0.00139438
0.0454049
0.00444762
0.0486654
-0.00326057
0.0442684
0.00439705
0.0445196
-0.000251191
0.0458132
-0.00129366
0.0415845
0.00422871
0.0446241
-0.00303955
0.0440934
0.000530683
0.0400335
0.00405992
0.0428411
-0.00280761
0.0415842
0.00125683
0.0387264
0.00285787
0.0408121
-0.00208575
0.0378027
0.00300936
0.00394405
0.0338587
0.0412175
0.0122102
0.0466494
-0.0101286
0.0502503
-0.000312684
0.0456071
0.00416592
0.0545021
-0.0102894
0.0492689
0.00968089
0.0506915
-0.00468323
0.0521529
0.0029357
0.0487957
0.00310599
0.0499339
-0.00243183
0.048968
0.00519459
0.0486723
-0.00274381
0.0486269
0.000576046
0.0488004
0.00388647
0.0487078
-0.00271503
0.0495822
0.000382415
0.0483647
0.00407541
0.0476637
-0.00138474
0.046842
0.00383103
0.0047644
0.0460216
0.0485554
0.0136548
0.0449031
-0.00647631
0.0480336
-0.00344313
0.0489557
0.00324381
0.0503882
-0.011722
0.0502937
0.00977539
0.0542686
-0.00865812
0.0522545
0.00494986
0.0508798
0.00448069
0.0538693
-0.00542135
0.0515898
0.00747404
0.0509941
-0.00214804
0.0516571
-8.69553e-05
0.0531161
0.00242747
0.0505437
-0.000142692
0.0513091
-0.00038295
0.0532316
0.00215294
0.0496672
0.00217966
0.0494285
0.00406967
0.00206153
0.0521314
0.0519717
0.011683
0.0501536
-0.00465819
0.0482947
-0.00158424
0.0493355
0.00220309
0.0496511
-0.0120377
0.0497712
0.00965537
0.0516024
-0.0104894
0.0524357
0.00411658
0.0521052
0.00481123
0.0514951
-0.00481123
0.0529569
0.00601224
0.0517403
-0.000931464
0.0500694
0.00158396
0.0543767
-0.00187992
0.0507117
0.00352238
0.0498512
0.000477552
0.0548181
-0.00281397
0.0502328
0.00676492
0.0487948
0.00550773
-0.0029196
0.0537759
0.0521484
0.00953463
0.0500922
-0.00260199
0.0496387
-0.0011308
0.0503029
0.00153895
0.0488998
-0.0106346
0.0502786
0.00827653
0.0504531
-0.0106638
0.0506381
0.00393154
0.0513454
0.00410396
0.0512941
-0.00475995
0.0517898
0.00551658
0.0511469
-0.000288572
0.0507838
0.001947
0.0536531
-0.00474914
0.0501946
0.00698081
0.0499023
0.000769924
0.0551276
-0.00803932
0.0507518
0.0111407
0.0477957
0.0084639
-0.00939839
0.0542745
0.0516331
0.00790152
0.0509066
-0.00187551
0.0503045
-0.000528638
0.0511515
0.000691876
0.0499731
-0.0094561
0.0507605
0.00748913
0.0508976
-0.0108009
0.0507325
0.0040966
0.051208
0.00362843
0.0519778
-0.00552968
0.0508794
0.00661493
0.0518763
-0.00128549
0.0517029
0.00212049
0.051793
-0.0048393
0.0520103
0.00676352
0.0509813
0.00179893
0.0533047
-0.0103627
0.0523377
0.0121076
0.0493155
0.0114861
-0.0138927
0.0538098
0.0509536
0.00694791
0.0499125
-0.000834348
0.0504593
-0.00107552
0.0506537
0.00049756
0.049312
-0.00811447
0.0507693
0.00603186
0.0498611
-0.00989279
0.0498839
0.00407386
0.050664
0.00284835
0.0504524
-0.00531817
0.0503183
0.00674911
0.050897
-0.00186427
0.0504557
0.00256183
0.0507871
-0.00517072
0.0514006
0.00614999
0.0502689
0.00293066
0.0512512
-0.0113449
0.0521823
0.0111764
0.0498335
0.013835
-0.01582
0.0517607
0.0504733
0.00647457
0.0503798
-0.000740778
0.0506964
-0.00139215
0.0502087
0.000985223
0.0499903
-0.00789601
0.0504028
0.00561935
0.0493512
-0.00884116
0.050155
0.00327006
0.050065
0.00293833
0.0500038
-0.00525701
0.0503
0.00645297
0.0503534
-0.00191772
0.0507659
0.00214938
0.0495223
-0.00392714
0.0511358
0.00453648
0.0513299
0.00273657
0.0493126
-0.00932763
0.0515857
0.00890334
0.0518811
0.0135396
-0.0143667
0.0504278
0.0503556
0.006119
0.0504576
-0.000842806
0.0508515
-0.00178608
0.0500336
0.00180318
0.050255
-0.00811743
0.0503566
0.00551776
0.049205
-0.00768955
0.0501951
0.00227996
0.0499459
0.00318749
0.0500196
-0.00533068
0.0501262
0.0063463
0.0506003
-0.00239175
0.0508177
0.001932
0.0495786
-0.0026881
0.0511866
0.0029285
0.0513996
0.00252361
0.0494617
-0.00738983
0.0510806
0.00728451
0.0525866
0.0120336
-0.0122001
0.05042
0.0503186
0.00580038
0.0504168
-0.000940995
0.0509593
-0.00232856
0.050051
0.00271146
0.0505127
-0.00857917
0.050515
0.00551548
0.0495442
-0.00671875
0.0506258
0.00119836
0.0502497
0.00356366
0.0503033
-0.00538434
0.0508035
0.00584616
0.0507695
-0.00235774
0.0510017
0.00169974
0.0505334
-0.00221975
0.0510635
0.00239838
0.0518779
0.00170915
0.0499974
-0.0055093
0.0508045
0.00647744
0.0535055
0.0093326
-0.00927365
0.0505791
0.0504303
0.00537008
0.0505615
-0.00107217
0.0506057
-0.00237275
0.0503406
0.00297652
0.0502684
-0.00850696
0.0503407
0.00544318
0.0498818
-0.00625988
0.050378
0.000702131
0.0502442
0.00369746
0.0503293
-0.00546937
0.050722
0.00545346
0.0504181
-0.00205384
0.050975
0.00114282
0.0504013
-0.00164606
0.0508973
0.00190243
0.0512626
0.00134379
0.0500222
-0.00426891
0.0511258
0.00537389
0.0523488
0.00810956
-0.00729252
0.0503677
0.0504576
0.0049125
0.0504337
-0.00104826
0.0506332
-0.00257225
0.0504005
0.00320915
0.0500532
-0.00815965
0.0504742
0.00502221
0.0495899
-0.00537558
0.0501989
9.31639e-05
0.0502578
0.00363855
0.0498804
-0.00509199
0.050712
0.00462186
0.0502791
-0.00162095
0.0506453
0.000776663
0.0503756
-0.00137639
0.0507349
0.00154309
0.0509907
0.00108798
0.0503567
-0.00363486
0.0507891
0.00494151
0.0524802
0.00641839
-0.00576494
0.0509527
0.0504622
0.00445025
0.0505503
-0.00113629
0.0505202
-0.00254214
0.0504217
0.00330763
0.0501845
-0.00792248
0.050355
0.00485179
0.0497977
-0.00481833
0.050349
-0.000458111
0.0501004
0.00388714
0.0503179
-0.00530952
0.0507297
0.0042101
0.0501956
-0.00108685
0.051156
-0.00018373
0.0504416
-0.000661981
0.0506487
0.00133598
0.0513789
0.000357733
0.050594
-0.00284994
0.0509936
0.00454186
0.0524093
0.0050027
-0.00443407
0.0510785
0.0504606
0.00398965
0.0504846
-0.00116025
0.0505078
-0.00256542
0.0505552
0.00326027
0.0500798
-0.00744705
0.0504559
0.00447567
0.0498867
-0.00424913
0.0501476
-0.000719047
0.0503348
0.00369996
0.0501052
-0.00507988
0.0505927
0.00372259
0.0505166
-0.00101076
0.0507475
-0.000414663
0.0504042
-0.000318674
0.0509287
0.00081149
0.0510439
0.000242514
0.0504324
-0.00223843
0.0510828
0.00389142
0.0524742
0.00361134
-0.00334095
0.0513811
0.0504812
0.00350848
0.0505921
-0.00127115
0.0504454
-0.00241876
0.0506127
0.00309297
0.0500838
-0.00691816
0.0504488
0.00411069
0.0498855
-0.00368577
0.0502204
-0.00105401
0.0503148
0.00360556
0.0500573
-0.0048224
0.0507358
0.00304414
0.0502038
-0.000478783
0.0508897
-0.00110052
0.0506115
-4.05022e-05
0.0503917
0.00103125
0.0513592
-0.000725003
0.0508069
-0.00168609
0.0507009
0.0039974
0.0522568
0.00205543
-0.00309311
0.052009
0.0504916
0.00301692
0.0505738
-0.0013534
0.0504176
-0.0022626
0.0507287
0.00278189
0.0500496
-0.00623903
0.0504816
0.00367868
0.0499816
-0.00318579
0.0501384
-0.00121079
0.0503701
0.00337388
0.0501007
-0.00455301
0.050624
0.00252086
0.0503741
-0.000228953
0.050854
-0.00158033
0.0504381
0.000375349
0.0508458
0.000623594
0.0511276
-0.00100683
0.050441
-0.000999488
0.0514617
0.0029767
0.0520895
0.00142762
-0.0024376
0.051434
0.0505134
0.00250356
0.0506503
-0.0014903
0.0503778
-0.00199013
0.0507841
0.00237557
0.05004
-0.00549486
0.0505027
0.00321596
0.0500068
-0.00268991
0.0501375
-0.00134152
0.0504482
0.00306321
0.0500629
-0.00416776
0.0506433
0.00194054
0.050382
3.23472e-05
0.0508186
-0.00201703
0.0505565
0.000637524
0.05062
0.000560027
0.05124
-0.00162675
0.0508022
-0.000561701
0.0508389
0.00293999
0.0523526
-8.60932e-05
-0.00236935
0.0522843
0.0506277
0.00187583
0.0507109
-0.00157349
0.0502892
-0.00156846
0.050922
0.0017428
0.0498946
-0.00446741
0.0504704
0.00264012
0.0500802
-0.00229973
0.0499598
-0.00122107
0.0504738
0.0025492
0.0500179
-0.00371192
0.0505097
0.00144877
0.0504069
0.000135159
0.0506606
-0.00227072
0.0504977
0.000800428
0.0507011
0.000356646
0.0509351
-0.00186075
0.0507218
-0.000348439
0.0511126
0.00254921
0.0519422
-0.000915674
-0.002396
0.0519688
0.0510619
0.000813954
0.0507371
-0.00124874
0.0501289
-0.000960236
0.0511604
0.000711339
0.0493605
-0.0026675
0.050626
0.00137459
0.0498736
-0.00154731
0.0495244
-0.000871943
0.0507263
0.00134737
0.0494674
-0.00245301
0.0502161
0.000700008
0.0503951
-4.38308e-05
0.049869
-0.00174457
0.0501552
0.000514163
0.0504351
7.67349e-05
0.0501521
-0.0015777
0.0500734
-0.000269721
0.0507633
0.00185928
0.0514668
-0.00161917
-0.00169512
0.0507659
0.050814
0.0495652
0.048605
0.0493163
0.0466488
0.0480234
0.0464761
0.0456042
0.0469515
0.0444985
0.0451985
0.0451547
0.0434101
0.0439243
0.044001
0.0424233
0.0421536
0.0440129
0.0423937
0.0406986
0.0247169
0.0260569
-0.0169152
0.0274534
0.0322521
-0.0349886
0.0349465
0.00667429
-0.0141675
0.0455448
-0.00551108
-0.00508714
0.045911
0.0212958
-0.021662
0.0427473
0.00599784
-0.00283414
0.0452646
-0.0594137
0.0568964
0.044117
-0.106633
0.10778
0.038788
-0.105993
0.111322
0.0321095
-0.0873332
0.0940117
0.0291488
-0.0658798
0.0688405
0.0286848
-0.045265
0.045729
0.0277964
-0.0302105
0.0310989
0.0274435
-0.0202071
0.0205601
0.0279108
-0.0124666
0.0119993
0.0280857
-0.00765262
0.0074777
0.027661
-0.00599057
0.00641532
0.0269839
-0.0059317
0.00660876
0.0263986
-0.00598716
0.0065725
0.0260156
-0.00549578
0.00587875
0.0257896
-0.00448614
0.00471218
0.0256513
-0.00330293
0.0034412
0.0255608
-0.00225209
0.00234264
0.0255009
-0.00146074
0.00152057
0.025463
-0.000919608
0.000957517
0.0254404
-0.000569073
0.000591715
0.0254276
-0.000348424
0.000361185
0.0254208
-0.000211571
0.000218413
0.0254173
-0.000127469
0.000130993
0.0254155
-7.61779e-05
7.7938e-05
0.0254146
-4.51346e-05
4.59965e-05
0.0254142
-2.65008e-05
2.69176e-05
0.025414
-1.54113e-05
1.56129e-05
0.0254139
-8.87219e-06
8.97036e-06
0.0254139
-5.05234e-06
5.10065e-06
0.0254138
-2.8429e-06
2.86724e-06
0.0254138
-1.57659e-06
1.58918e-06
0.0254138
-8.6281e-07
8.68773e-07
0.0254138
-4.60932e-07
4.64046e-07
0.0254138
-2.40873e-07
2.42771e-07
0.0254138
-1.22882e-07
1.24017e-07
0.0254138
-5.84554e-08
5.91274e-08
0.0254138
-2.72931e-08
2.702e-08
0.0254138
-1.05432e-08
1.05197e-08
0.0254138
-2.50088e-09
3.50199e-09
0.0254138
2.11745e-09
-1.67568e-09
0.0254138
-1.16397e-09
8.64439e-10
0.0254138
3.01879e-09
-3.24521e-09
0.0254138
5.94422e-10
-6.42959e-10
0.0254138
-4.51119e-10
3.42637e-10
0.0254138
2.61627e-09
-2.92244e-09
0.0254138
-2.1416e-09
1.96398e-09
0.0254138
1.90072e-09
-1.34555e-09
0.0254138
8.13876e-11
7.35419e-10
0.0254138
-6.97791e-10
4.5428e-10
0.0254138
9.62755e-10
-1.85037e-09
0.0254138
-1.96249e-09
1.48649e-09
0.0254138
1.60387e-09
-1.41502e-09
0.0254138
5.12342e-10
-1.20529e-10
0.0254138
-2.21826e-09
2.09495e-09
0.0254138
2.00424e-09
-2.52746e-09
0.0254138
-1.00202e-09
8.05762e-10
0.0254138
-1.16862e-09
1.55597e-09
0.0254138
3.01951e-09
-2.60849e-09
0.0254138
-1.58023e-09
1.40803e-09
0.0254138
-8.44972e-10
2.94278e-10
0.0254138
2.49953e-09
-2.6781e-09
0.0254138
-1.82688e-09
2.31656e-09
0.0254138
5.80756e-10
2.68008e-10
0.0254138
3.02499e-09
-2.59555e-09
0.0254138
-2.715e-09
2.37117e-09
0.0254138
-6.69427e-10
3.33558e-11
0.0254138
3.35356e-09
-3.51782e-09
0.0254138
-1.77982e-09
2.13743e-09
0.0254138
-1.57739e-09
1.99438e-09
0.0254138
3.14227e-09
-3.10466e-09
0.0254138
-1.86772e-10
-2.59101e-10
0.0254138
-3.33129e-09
2.71351e-09
0.0254138
1.24697e-09
-1.70332e-09
0.0254138
2.11758e-09
-2.04201e-09
0.0254138
-1.43443e-09
1.91814e-09
0.0254138
-1.0999e-09
1.66085e-09
0.0254138
1.7081e-09
-1.55652e-09
0.0254138
1.45358e-09
-1.57839e-09
0.0254138
-1.59173e-09
1.17577e-09
0.0254138
-1.34405e-09
1.42624e-09
0.0254138
1.87625e-10
1.1481e-11
0.0254138
1.87892e-09
-1.55917e-09
0.0254138
-7.62347e-10
7.9244e-10
0.0254138
-3.57369e-09
2.73968e-09
0.0254138
-1.41844e-09
1.60025e-09
0.0254138
1.57372e-09
-2.16731e-09
0.0254138
1.64844e-09
-1.0417e-09
0.0254138
-1.22473e-09
2.04453e-09
0.0254138
-2.96214e-09
1.98968e-09
0.0254138
9.45069e-10
5.26693e-11
0.0254138
1.65683e-09
-1.66079e-09
0.0254138
5.16589e-11
-7.69183e-10
0.0254138
1.16249e-09
-4.93793e-10
4.33468e-10
-3.10771e-10
0.0417071
0.0303715
0.0466863
0.0272729
0.0526177
0.000742836
0.0514259
-0.00431929
0.0461723
0.0265494
0.0458512
0.00631893
0.0491412
-0.0627037
0.0466557
-0.104147
0.0412819
-0.100619
0.0351658
-0.0812171
0.0309015
-0.0616155
0.0293517
-0.0437152
0.0284073
-0.0292661
0.0274787
-0.0192786
0.0274774
-0.0124653
0.0278439
-0.00801909
0.0277765
-0.00592325
0.0272666
-0.00542174
0.0266675
-0.00538805
0.0262068
-0.00503507
0.0259098
-0.0041892
0.0257237
-0.00311678
0.0256036
-0.00213199
0.0255259
-0.00138312
0.0254775
-0.000871162
0.0254487
-0.00054031
0.0254325
-0.000332153
0.0254236
-0.000202718
0.0254189
-0.000122781
0.0254165
-7.37328e-05
0.0254152
-4.38675e-05
0.0254146
-2.58442e-05
0.0254142
-1.50686e-05
0.025414
-8.68769e-06
0.0254139
-4.95563e-06
0.0254139
-2.79067e-06
0.0254138
-1.54711e-06
0.0254138
-8.47524e-07
0.0254138
-4.53097e-07
0.0254138
-2.36082e-07
0.0254138
-1.1962e-07
0.0254138
-5.57282e-08
0.0254138
-2.8793e-08
0.0254138
-1.10983e-08
0.0254138
2.29088e-09
0.0254138
1.56101e-09
0.0254138
-1.29002e-09
0.0254138
1.77687e-09
0.0254138
3.03519e-10
0.0254138
1.88344e-10
0.0254138
1.3648e-09
0.0254138
-2.00803e-09
0.0254138
2.21318e-09
0.0254138
2.82137e-09
0.0254138
-1.7398e-09
0.0254138
-2.12791e-09
0.0254138
-1.36935e-09
0.0254138
1.22938e-09
0.0254138
1.17269e-09
0.0254138
-1.2118e-09
0.0254138
-1.32435e-09
0.0254138
-6.73803e-10
0.0254138
1.35856e-09
0.0254138
2.02619e-09
0.0254138
-1.12764e-09
0.0254138
-2.04735e-09
0.0254138
2.36606e-10
0.0254138
1.77896e-09
0.0254138
3.09123e-09
0.0254138
1.93274e-09
0.0254138
-1.97976e-09
0.0254138
-2.26144e-09
0.0254138
4.31091e-10
0.0254138
1.29878e-09
0.0254138
1.18647e-09
0.0254138
3.76766e-10
0.0254138
-1.53689e-09
0.0254138
-2.35335e-09
0.0254138
-1.11239e-09
0.0254138
3.71635e-10
0.0254138
1.51168e-09
0.0254138
2.14506e-09
0.0254138
8.33145e-10
0.0254138
-6.97691e-10
0.0254138
-1.83344e-09
0.0254138
-2.57965e-11
0.0254138
9.84504e-10
0.0254138
1.05419e-09
0.0254138
-1.16616e-09
0.0254138
-3.54631e-09
0.0254138
-1.10384e-09
0.0254138
-1.22755e-09
0.0254138
1.67316e-09
0.0254138
1.50277e-09
0.0254138
-2.31766e-09
0.0254138
1.82853e-09
0.0254138
6.227e-10
0.0254138
-9.62365e-10
0.0254138
1.64008e-09
5.76476e-10
0.0482503
0.0342526
0.0536143
0.0219088
0.0594771
-0.00511989
0.0542601
0.000897657
0.0475941
0.0332154
0.0504383
0.00347479
0.0540234
-0.0662888
0.0475992
-0.0977228
0.0414056
-0.0944259
0.0376237
-0.0774352
0.0341564
-0.0581482
0.0314705
-0.0410293
0.0297171
-0.0275127
0.0282864
-0.0178479
0.027449
-0.0116279
0.0273227
-0.00789274
0.0273177
-0.00591826
0.0270738
-0.00517787
0.0266706
-0.00498482
0.026284
-0.00464845
0.0259893
-0.00389449
0.0257827
-0.00291025
0.0256421
-0.00199141
0.0255497
-0.00129067
0.0254917
-0.000813128
0.025457
-0.000505687
0.0254373
-0.000312416
0.0254264
-0.000191846
0.0254206
-0.000116923
0.0254174
-7.06087e-05
0.0254158
-4.22021e-05
0.0254149
-2.49514e-05
0.0254144
-1.45856e-05
0.0254141
-8.42336e-06
0.025414
-4.81005e-06
0.0254139
-2.7102e-06
0.0254139
-1.50217e-06
0.0254138
-8.23017e-07
0.0254138
-4.39037e-07
0.0254138
-2.28152e-07
0.0254138
-1.15968e-07
0.0254138
-5.34186e-08
0.0254138
-2.76567e-08
0.0254138
-1.06056e-08
0.0254138
3.52314e-09
0.0254138
1.36606e-09
0.0254138
-1.39122e-09
0.0254138
1.7472e-09
0.0254138
2.89404e-10
0.0254138
2.06903e-10
0.0254138
1.15345e-09
0.0254138
-1.82729e-09
0.0254138
2.17023e-09
0.0254138
3.37741e-09
0.0254138
-1.94176e-09
0.0254138
-2.80801e-09
0.0254138
-1.02187e-09
0.0254138
9.58599e-10
0.0254138
1.19242e-09
0.0254138
-9.29404e-10
0.0254138
-1.87281e-09
0.0254138
-6.27945e-10
0.0254138
1.70261e-09
0.0254138
1.82643e-09
0.0254138
-1.00649e-09
0.0254138
-2.09118e-09
0.0254138
-1.53016e-10
0.0254138
2.26649e-09
0.0254138
3.50525e-09
0.0254138
1.68958e-09
0.0254138
-1.74854e-09
0.0254138
-2.35425e-09
0.0254138
-1.14328e-10
0.0254138
1.71865e-09
0.0254138
1.62768e-09
0.0254138
-1.93507e-10
0.0254138
-1.7835e-09
0.0254138
-1.99498e-09
0.0254138
-1.51394e-09
0.0254138
-6.21046e-11
0.0254138
1.94751e-09
0.0254138
2.7864e-09
0.0254138
6.7831e-10
0.0254138
-9.98382e-10
0.0254138
-1.90337e-09
0.0254138
4.17814e-10
0.0254138
9.93681e-10
0.0254138
7.83563e-10
0.0254138
-1.19419e-09
0.0254138
-3.92695e-09
0.0254138
-4.26702e-10
0.0254138
-2.01655e-09
0.0254138
1.88337e-09
0.0254138
2.45714e-09
0.0254138
-3.32528e-09
0.0254138
2.78714e-09
0.0254138
3.92849e-10
0.0254138
-2.09685e-09
0.0254138
2.60804e-09
1.0615e-09
0.0510137
0.0370149
0.0532935
0.019629
0.059058
-0.0108844
0.0548311
0.00512457
0.0505966
0.0374499
0.0561472
-0.00207584
0.056739
-0.0668806
0.0474342
-0.0884179
0.0404485
-0.0874402
0.0379877
-0.0749744
0.0360066
-0.0561671
0.0335857
-0.0386084
0.0311951
-0.0251221
0.0293543
-0.0160071
0.028188
-0.0104616
0.0276388
-0.00734358
0.0273679
-0.00564729
0.0270639
-0.00487387
0.0266912
-0.00461212
0.0263357
-0.00429302
0.0260465
-0.00360525
0.0258285
-0.00269221
0.025673
-0.00183592
0.0255689
-0.00118657
0.0255033
-0.000747526
0.0254641
-0.000466462
0.0254415
-0.000289909
0.025429
-0.000179295
0.0254221
-0.000110042
0.0254184
-6.68639e-05
0.0254163
-4.01623e-05
0.0254152
-2.38335e-05
0.0254146
-1.39686e-05
0.0254143
-8.08025e-06
0.0254141
-4.61793e-06
0.025414
-2.60253e-06
0.0254139
-1.44198e-06
0.0254139
-7.89209e-07
0.0254138
-4.19653e-07
0.0254138
-2.17623e-07
0.0254138
-1.11097e-07
0.0254138
-5.0364e-08
0.0254138
-2.54623e-08
0.0254138
-9.66621e-09
0.0254138
3.73379e-09
0.0254138
1.11225e-09
0.0254138
-1.2149e-09
0.0254138
1.94856e-09
0.0254138
2.85408e-10
0.0254138
1.65983e-10
0.0254138
1.28998e-09
0.0254138
-1.53162e-09
0.0254138
1.96658e-09
0.0254138
3.1363e-09
0.0254138
-2.03843e-09
0.0254138
-2.49972e-09
0.0254138
-8.31204e-10
0.0254138
7.39915e-10
0.0254138
8.49509e-10
0.0254138
-8.64451e-10
0.0254138
-1.58922e-09
0.0254138
-5.95501e-10
0.0254138
1.56523e-09
0.0254138
1.60995e-09
0.0254138
-9.35027e-10
0.0254138
-1.80802e-09
0.0254138
-9.23859e-11
0.0254138
2.17724e-09
0.0254138
3.30243e-09
0.0254138
1.5185e-09
0.0254138
-1.53952e-09
0.0254138
-2.04957e-09
0.0254138
-1.39552e-10
0.0254138
1.57138e-09
0.0254138
1.43477e-09
0.0254138
-3.34077e-10
0.0254138
-1.6146e-09
0.0254138
-1.77557e-09
0.0254138
-1.55387e-09
0.0254138
-1.56883e-10
0.0254138
1.88773e-09
0.0254138
2.75349e-09
0.0254138
6.12296e-10
0.0254138
-8.16586e-10
0.0254138
-1.84211e-09
0.0254138
5.9386e-10
0.0254138
8.06515e-10
0.0254138
6.04732e-10
0.0254138
-1.15497e-09
0.0254138
-4.33012e-09
0.0254138
4.13732e-10
0.0254138
-2.48278e-09
0.0254138
2.22317e-09
0.0254138
3.00392e-09
0.0254138
-4.75217e-09
0.0254138
3.83948e-09
0.0254138
3.1703e-10
0.0254138
-3.31665e-09
0.0254138
3.6215e-09
1.65522e-09
0.0543205
0.0369689
0.0536142
0.0203353
0.0576531
-0.0149233
0.054082
0.00869567
0.0537419
0.03779
0.060537
-0.00887098
0.0584444
-0.064788
0.0501341
-0.0801076
0.0428695
-0.0801756
0.0394315
-0.0715364
0.0372737
-0.0540094
0.0350584
-0.0363931
0.0326934
-0.022757
0.0302928
-0.0136065
0.0285384
-0.00870724
0.0277479
-0.0065531
0.0274638
-0.0053632
0.0271932
-0.00460325
0.0268243
-0.00424321
0.0264499
-0.00391862
0.0261335
-0.00328879
0.025888
-0.00244675
0.0257098
-0.00165776
0.02559
-0.00106673
0.0255149
-0.000672398
0.0254704
-0.000422009
0.0254452
-0.000264654
0.0254311
-0.000165272
0.0254234
-0.000102326
0.0254192
-6.2615e-05
0.0254168
-3.78084e-05
0.0254155
-2.25192e-05
0.0254148
-1.32302e-05
0.0254144
-7.66344e-06
0.0254141
-4.38197e-06
0.025414
-2.46925e-06
0.0254139
-1.36661e-06
0.0254139
-7.4659e-07
0.0254138
-3.95673e-07
0.0254138
-2.04502e-07
0.0254138
-1.04518e-07
0.0254138
-4.651e-08
0.0254138
-2.27894e-08
0.0254138
-8.63353e-09
0.0254138
3.94497e-09
0.0254138
9.19545e-10
0.0254138
-1.23166e-09
0.0254138
2.25724e-09
0.0254138
5.36594e-10
0.0254138
1.9127e-10
0.0254138
1.29011e-09
0.0254138
-1.33208e-09
0.0254138
1.82828e-09
0.0254138
2.99422e-09
0.0254138
-2.02454e-09
0.0254138
-2.44839e-09
0.0254138
-6.60129e-10
0.0254138
5.82124e-10
0.0254138
6.69796e-10
0.0254138
-8.00806e-10
0.0254138
-1.42146e-09
0.0254138
-5.51819e-10
0.0254138
1.38931e-09
0.0254138
1.51535e-09
0.0254138
-8.60779e-10
0.0254138
-1.62222e-09
0.0254138
-1.83359e-11
0.0254138
2.02703e-09
0.0254138
3.11614e-09
0.0254138
1.44725e-09
0.0254138
-1.41141e-09
0.0254138
-1.81218e-09
0.0254138
-1.05704e-10
0.0254138
1.37806e-09
0.0254138
1.28909e-09
0.0254138
-3.58382e-10
0.0254138
-1.54812e-09
0.0254138
-1.60706e-09
0.0254138
-1.50236e-09
0.0254138
-2.27431e-10
0.0254138
1.76461e-09
0.0254138
2.71975e-09
0.0254138
5.70839e-10
0.0254138
-6.45727e-10
0.0254138
-1.85344e-09
0.0254138
7.7791e-10
0.0254138
6.19339e-10
0.0254138
5.03932e-10
0.0254138
-1.09402e-09
0.0254138
-4.71293e-09
0.0254138
1.25238e-09
0.0254138
-2.99605e-09
0.0254138
2.58615e-09
0.0254138
3.46328e-09
0.0254138
-6.19161e-09
0.0254138
5.01084e-09
0.0254138
1.95982e-10
0.0254138
-4.50031e-09
0.0254138
4.6715e-09
2.1912e-09
0.0566468
0.0341319
0.0553744
0.0216076
0.0561567
-0.0157055
0.0540533
0.0107991
0.0574817
0.0343616
0.0620672
-0.0134565
0.0590465
-0.0617673
0.0526026
-0.0736637
0.0450948
-0.0726678
0.0397536
-0.0661952
0.0369442
-0.0512
0.0350838
-0.0345327
0.0334911
-0.0211644
0.032012
-0.0121273
0.0298912
-0.00658654
0.0279351
-0.0045969
0.0268932
-0.00432133
0.0265235
-0.0042336
0.0263836
-0.00410328
0.0262461
-0.00378117
0.0260683
-0.00311097
0.0258813
-0.00225973
0.025721
-0.00149743
0.0256032
-0.000948969
0.0255253
-0.000594495
0.0254774
-0.000374136
0.0254495
-0.000236699
0.0254337
-0.000149465
0.0254249
-9.35364e-05
0.02542
-5.77474e-05
0.0254173
-3.51009e-05
0.0254158
-2.10005e-05
0.0254149
-1.2372e-05
0.0254145
-7.17608e-06
0.0254142
-4.1046e-06
0.025414
-2.31149e-06
0.0254139
-1.2769e-06
0.0254139
-6.95824e-07
0.0254138
-3.67198e-07
0.0254138
-1.8887e-07
0.0254138
-9.64824e-08
0.0254138
-4.17929e-08
0.0254138
-1.96785e-08
0.0254138
-7.38015e-09
0.0254138
3.98799e-09
0.0254138
6.93121e-10
0.0254138
-1.10829e-09
0.0254138
2.60838e-09
0.0254138
8.43851e-10
0.0254138
2.27412e-10
0.0254138
1.30852e-09
0.0254138
-1.05939e-09
0.0254138
1.61783e-09
0.0254138
2.74513e-09
0.0254138
-2.06988e-09
0.0254138
-2.21405e-09
0.0254138
-4.83031e-10
0.0254138
4.15008e-10
0.0254138
4.61335e-10
0.0254138
-7.97054e-10
0.0254138
-1.16828e-09
0.0254138
-4.86586e-10
0.0254138
1.20332e-09
0.0254138
1.38597e-09
0.0254138
-8.12574e-10
0.0254138
-1.40748e-09
0.0254138
9.95787e-11
0.0254138
1.86258e-09
0.0254138
2.89067e-09
0.0254138
1.31692e-09
0.0254138
-1.28285e-09
0.0254138
-1.51456e-09
0.0254138
-5.9694e-11
0.0254138
1.15842e-09
0.0254138
1.10826e-09
0.0254138
-3.95869e-10
0.0254138
-1.42801e-09
0.0254138
-1.41877e-09
0.0254138
-1.44477e-09
0.0254138
-2.81904e-10
0.0254138
1.6404e-09
0.0254138
2.64073e-09
0.0254138
4.88313e-10
0.0254138
-4.54406e-10
0.0254138
-1.82185e-09
0.0254138
9.58714e-10
0.0254138
3.89152e-10
0.0254138
4.0443e-10
0.0254138
-1.03079e-09
0.0254138
-5.04474e-09
0.0254138
2.15836e-09
0.0254138
-3.62597e-09
0.0254138
3.03087e-09
0.0254138
3.85758e-09
0.0254138
-7.65295e-09
0.0254138
6.33527e-09
0.0254138
-4.74028e-11
0.0254138
-5.69124e-09
0.0254138
5.71798e-09
2.70825e-09
0.0570911
0.0288015
0.0561832
0.0225155
0.0531994
-0.0127217
0.0539275
0.010071
0.0609677
0.0273213
0.0623791
-0.0148678
0.0568128
-0.0562011
0.0500767
-0.0669277
0.0432162
-0.0658072
0.0374232
-0.0604022
0.0337585
-0.0475353
0.0326864
-0.0334605
0.0313623
-0.0198402
0.031147
-0.0119121
0.0320017
-0.00744117
0.0316796
-0.00427479
0.0300244
-0.00266615
0.0282903
-0.00249952
0.0271669
-0.0029799
0.0265612
-0.00317542
0.0261969
-0.00274669
0.0259329
-0.00199578
0.0257382
-0.00130266
0.0256068
-0.000817656
0.0255255
-0.000513164
0.0254778
-0.00032638
0.0254504
-0.000209306
0.0254347
-0.000133834
0.0254258
-8.46043e-05
0.0254207
-5.26325e-05
0.0254178
-3.21675e-05
0.0254161
-1.93165e-05
0.0254151
-1.14054e-05
0.0254145
-6.62183e-06
0.0254142
-3.78733e-06
0.025414
-2.13028e-06
0.0254139
-1.17361e-06
0.0254139
-6.3726e-07
0.0254139
-3.34526e-07
0.0254138
-1.70989e-07
0.0254138
-8.68817e-08
0.0254138
-3.62744e-08
0.0254138
-1.62149e-08
0.0254138
-6.11587e-09
0.0254138
4.04254e-09
0.0254138
5.94331e-10
0.0254138
-9.8624e-10
0.0254138
2.95153e-09
0.0254138
1.27307e-09
0.0254138
3.39168e-10
0.0254138
1.22912e-09
0.0254138
-8.93406e-10
0.0254138
1.47972e-09
0.0254138
2.54486e-09
0.0254138
-2.01332e-09
0.0254138
-2.12936e-09
0.0254138
-3.66633e-10
0.0254138
3.10711e-10
0.0254138
3.41097e-10
0.0254138
-7.5952e-10
0.0254138
-1.0264e-09
0.0254138
-4.12465e-10
0.0254138
1.04264e-09
0.0254138
1.28452e-09
0.0254138
-7.36459e-10
0.0254138
-1.26437e-09
0.0254138
1.63541e-10
0.0254138
1.73535e-09
0.0254138
2.67235e-09
0.0254138
1.23597e-09
0.0254138
-1.16867e-09
0.0254138
-1.30231e-09
0.0254138
-2.94395e-11
0.0254138
9.72015e-10
0.0254138
9.80342e-10
0.0254138
-3.82744e-10
0.0254138
-1.35861e-09
0.0254138
-1.27257e-09
0.0254138
-1.36597e-09
0.0254138
-3.26824e-10
0.0254138
1.51701e-09
0.0254138
2.57825e-09
0.0254138
4.01395e-10
0.0254138
-2.79512e-10
0.0254138
-1.84144e-09
0.0254138
1.14717e-09
0.0254138
1.48376e-10
0.0254138
3.75034e-10
0.0254138
-9.43297e-10
0.0254138
-5.33845e-09
0.0254138
3.06226e-09
0.0254138
-4.38218e-09
0.0254138
3.55533e-09
0.0254138
4.15919e-09
0.0254138
-9.08529e-09
0.0254138
7.80004e-09
0.0254138
-4.0443e-10
0.0254138
-6.8402e-09
0.0254138
6.80996e-09
3.15928e-09
0.0558884
0.0233409
0.0566105
0.0217934
0.0525831
-0.00869429
0.0546256
0.00802853
0.062709
0.0192379
0.0619347
-0.0140936
0.0541486
-0.0484149
0.0488136
-0.0615927
0.0445105
-0.0615041
0.0400562
-0.0559479
0.0348224
-0.0423015
0.0324754
-0.0311135
0.0318285
-0.0191933
0.0294193
-0.009503
0.0277643
-0.00578613
0.0276264
-0.00413691
0.0276379
-0.00267759
0.0272643
-0.00212599
0.0267848
-0.0025004
0.0264234
-0.00281403
0.0261707
-0.00249397
0.025961
-0.00178609
0.0257791
-0.00112074
0.0256389
-0.000677473
0.0255444
-0.000418645
0.0254871
-0.000269049
0.0254545
-0.000176757
0.0254366
-0.000115888
0.0254267
-7.47277e-05
0.0254212
-4.71202e-05
0.0254181
-2.90363e-05
0.0254163
-1.75135e-05
0.0254152
-1.03606e-05
0.0254146
-6.01625e-06
0.0254143
-3.43742e-06
0.0254141
-1.92885e-06
0.025414
-1.05819e-06
0.0254139
-5.71732e-07
0.0254139
-2.98037e-07
0.0254138
-1.50899e-07
0.0254138
-7.5905e-08
0.0254138
-3.00365e-08
0.0254138
-1.25128e-08
0.0254138
-4.69997e-09
0.0254138
4.05823e-09
0.0254138
5.72494e-10
0.0254138
-7.47949e-10
0.0254138
3.30287e-09
0.0254138
1.71808e-09
0.0254138
4.40809e-10
0.0254138
1.12658e-09
0.0254138
-6.68782e-10
0.0254138
1.29493e-09
0.0254138
2.29084e-09
0.0254138
-1.97482e-09
0.0254138
-1.96762e-09
0.0254138
-2.28046e-10
0.0254138
1.98789e-10
0.0254138
2.25739e-10
0.0254138
-7.45719e-10
0.0254138
-8.64551e-10
0.0254138
-3.20012e-10
0.0254138
8.78881e-10
0.0254138
1.16397e-09
0.0254138
-6.7032e-10
0.0254138
-1.11467e-09
0.0254138
2.59428e-10
0.0254138
1.588e-09
0.0254138
2.43796e-09
0.0254138
1.12318e-09
0.0254138
-1.06939e-09
0.0254138
-1.06908e-09
0.0254138
2.80093e-11
0.0254138
7.69883e-10
0.0254138
8.34582e-10
0.0254138
-3.71948e-10
0.0254138
-1.27257e-09
0.0254138
-1.11547e-09
0.0254138
-1.27188e-09
0.0254138
-3.45418e-10
0.0254138
1.38096e-09
0.0254138
2.48125e-09
0.0254138
2.92513e-10
0.0254138
-9.57697e-11
0.0254138
-1.85189e-09
0.0254138
1.35238e-09
0.0254138
-1.34295e-10
0.0254138
3.75497e-10
0.0254138
-8.64639e-10
0.0254138
-5.59712e-09
0.0254138
4.03272e-09
0.0254138
-5.27225e-09
0.0254138
4.18648e-09
0.0254138
4.37206e-09
0.0254138
-1.05273e-08
0.0254138
9.45253e-09
0.0254138
-9.36703e-10
0.0254138
-7.9688e-09
0.0254138
7.91853e-09
3.56801e-09
0.0543233
0.0194376
0.0560549
0.0200618
0.0536651
-0.00630447
0.0553661
0.00632751
0.0614804
0.0131236
0.0615263
-0.0141395
0.0542198
-0.0411084
0.0480348
-0.0554077
0.044272
-0.0577412
0.0412675
-0.0529434
0.0375908
-0.0386248
0.0323785
-0.0259012
0.0310901
-0.017905
0.0320499
-0.0104628
0.0317883
-0.0055245
0.0306537
-0.00300229
0.0295012
-0.00152515
0.0284318
-0.00105651
0.027454
-0.00152262
0.026702
-0.00206206
0.0262031
-0.00199501
0.0258966
-0.00147963
0.025712
-0.000936147
0.0255995
-0.000564962
0.0255289
-0.000348013
0.025484
-0.000224182
0.0254558
-0.000148561
0.0254385
-9.85921e-05
0.0254282
-6.43876e-05
0.0254221
-4.10572e-05
0.0254186
-2.55205e-05
0.0254166
-1.54836e-05
0.0254154
-9.19028e-06
0.0254147
-5.34239e-06
0.0254143
-3.04994e-06
0.0254141
-1.70637e-06
0.025414
-9.30995e-07
0.0254139
-4.99676e-07
0.0254139
-2.57963e-07
0.0254138
-1.28806e-07
0.0254138
-6.36369e-08
0.0254138
-2.31862e-08
0.0254138
-8.58881e-09
0.0254138
-3.23011e-09
0.0254138
4.11809e-09
0.0254138
7.18399e-10
0.0254138
-4.21304e-10
0.0254138
3.59033e-09
0.0254138
2.16931e-09
0.0254138
5.7308e-10
0.0254138
9.79161e-10
0.0254138
-5.18811e-10
0.0254138
1.15041e-09
0.0254138
2.06989e-09
0.0254138
-1.87337e-09
0.0254138
-1.85591e-09
0.0254138
-1.4888e-10
0.0254138
1.2752e-10
0.0254138
1.64938e-10
0.0254138
-7.07682e-10
0.0254138
-7.64739e-10
0.0254138
-2.36421e-10
0.0254138
7.48718e-10
0.0254138
1.05472e-09
0.0254138
-5.95088e-10
0.0254138
-9.94024e-10
0.0254138
3.00807e-10
0.0254138
1.46274e-09
0.0254138
2.20941e-09
0.0254138
1.03038e-09
0.0254138
-9.62794e-10
0.0254138
-8.89262e-10
0.0254138
4.72554e-11
0.0254138
6.07276e-10
0.0254138
7.24159e-10
0.0254138
-3.34268e-10
0.0254138
-1.19582e-09
0.0254138
-9.92573e-10
0.0254138
-1.16586e-09
0.0254138
-3.56154e-10
0.0254138
1.24165e-09
0.0254138
2.3915e-09
0.0254138
1.72608e-10
0.0254138
8.3704e-11
0.0254138
-1.8923e-09
0.0254138
1.55938e-09
0.0254138
-4.48851e-10
0.0254138
4.53745e-10
0.0254138
-7.76211e-10
0.0254138
-5.80589e-09