/*--------------------------------*- C++ -*----------------------------------*\
| =========                 |                                                 |
| \\      /  F ield         | OpenFOAM: The Open Source CFD Toolbox           |
|  \\    /   O peration     | Version:  2.4.0                                 |
|   \\  /    A nd           | Web:      www.OpenFOAM.org                      |
|    \\/     M anipulation  |                                                 |
\*---------------------------------------------------------------------------*/
FoamFile
{
    version     2.0;
    format      ascii;
    class       volScalarField;
    location    "1.01";
    object      k;
}
// * * * * * * * * * * * * * * * * * * * * * * * * * * * * * * * * * * * * * //

dimensions      [0 2 -2 0 0 0 0];

internalField   nonuniform List<scalar> 
8800
(
8.12506
10.2633
8.78646
6.82256
5.71573
4.9581
4.54392
4.13585
3.91487
3.66334
3.54966
3.36294
3.30218
3.16057
3.11268
2.98366
2.93121
2.80812
2.76606
2.54926
1.40985
4.35234
5.31471
5.28257
5.13334
4.79786
4.5955
4.28341
4.1144
3.88579
3.77293
3.57689
3.52061
3.38083
3.33312
3.21552
3.17977
3.07895
3.01906
2.9727
0.0848337
0.732707
1.56947
1.92045
2.28596
2.43567
2.57678
2.6046
2.62938
2.60105
2.58515
2.53286
2.51988
2.46792
2.45953
2.4177
2.41013
2.3673
2.34619
2.30607
0.0033704
0.0701577
0.270586
0.398983
0.579412
0.713398
0.830125
0.926606
1.0473
1.09428
1.15837
1.20308
1.25659
1.28154
1.33561
1.37331
1.40669
1.43432
1.45227
1.45982
0.000123804
0.00500402
0.0289597
0.0489743
0.0772727
0.130568
0.161443
0.201299
0.255033
0.29341
0.31496
0.360955
0.379708
0.418568
0.442451
0.502688
0.52791
0.587167
0.604836
0.652838
2.51632e-05
0.000314363
0.00226392
0.00408771
0.00614556
0.0124605
0.0173933
0.0261037
0.0371167
0.0474238
0.052772
0.0660357
0.071056
0.0812175
0.0883251
0.106322
0.118103
0.142792
0.155929
0.17496
2.14988e-05
4.23515e-05
0.000197057
0.000340851
0.000428953
0.000758664
0.00113029
0.00183624
0.00347529
0.00443499
0.00546388
0.00748503
0.0077497
0.0082817
0.00911518
0.0123797
0.0148598
0.0206376
0.024111
0.0283355
2.09276e-05
2.88997e-05
5.40154e-05
9.83282e-05
0.000105003
0.00011043
0.000121202
0.000147585
0.000219412
0.000294331
0.000522184
0.00069882
0.000693074
0.000645144
0.000671279
0.00075305
0.00112138
0.00159479
0.0030448
0.00352237
2.07368e-05
3.11814e-05
3.84092e-05
5.42529e-05
7.05429e-05
8.27282e-05
8.32514e-05
8.4483e-05
8.6065e-05
8.37816e-05
8.81131e-05
0.000131673
0.000165459
0.000163029
0.000158475
0.000148976
0.000152953
0.000186708
0.000292574
0.000357333
2.07087e-05
2.77578e-05
4.27456e-05
5.7763e-05
5.62641e-05
5.73321e-05
6.97881e-05
8.34755e-05
8.64825e-05
8.21048e-05
7.49992e-05
7.48586e-05
7.91595e-05
0.000102862
0.000107689
0.000111745
0.000109696
0.00012128
0.000127153
0.000196312
2.06297e-05
2.65979e-05
4.47504e-05
5.69036e-05
5.67154e-05
6.37495e-05
7.59141e-05
7.51277e-05
7.3989e-05
7.40946e-05
7.47302e-05
8.33936e-05
9.4871e-05
0.000104999
0.000104419
9.72198e-05
9.88362e-05
0.000104365
0.000112447
0.000156333
2.07736e-05
3.0214e-05
3.84422e-05
4.78045e-05
7.71757e-05
9.47905e-05
9.49056e-05
8.47693e-05
7.36033e-05
7.38845e-05
8.16875e-05
0.000115964
0.000153509
0.000157146
0.000145303
0.000141113
0.000152619
0.000161297
0.000184932
0.000252627
2.11203e-05
2.83258e-05
4.45418e-05
0.000113802
0.000139524
0.000133731
0.000136678
0.000144
0.000161277
0.000295222
0.000446719
0.000614952
0.000803422
0.000922087
0.000911507
0.000995878
0.00117184
0.00160561
0.0019404
0.00285708
2.17141e-05
4.16301e-05
0.000155
0.000600356
0.000683121
0.000767789
0.00118236
0.00171473
0.00222618
0.00428527
0.00578548
0.00732403
0.00892424
0.0110136
0.011555
0.013591
0.0156897
0.0205169
0.0234996
0.0320325
2.50975e-05
0.000305264
0.001842
0.00659405
0.00810657
0.0104268
0.0182214
0.025241
0.0303095
0.0469592
0.0564101
0.0670546
0.0755547
0.0905894
0.0952113
0.109632
0.120486
0.145208
0.158484
0.198238
0.000123236
0.00491843
0.0254349
0.0660751
0.0830516
0.108255
0.171384
0.203656
0.22812
0.297746
0.33037
0.360146
0.390525
0.439936
0.455031
0.499424
0.527877
0.593673
0.624058
0.704846
0.00334778
0.0690115
0.266188
0.446642
0.550007
0.683898
0.859713
0.920407
1.00001
1.12331
1.17713
1.20332
1.26455
1.31464
1.32986
1.37485
1.40328
1.46526
1.48686
1.53717
0.0841471
0.720929
1.5852
1.94862
2.24675
2.43036
2.59466
2.59464
2.61968
2.61135
2.59662
2.53267
2.52236
2.47869
2.4604
2.41672
2.41189
2.38763
2.37348
2.34202
1.39893
4.35813
5.32741
5.2818
5.12675
4.79979
4.57809
4.28693
4.13804
3.86194
3.77823
3.58447
3.51762
3.35927
3.32741
3.19728
3.16399
3.04255
2.99974
2.89107
8.11133
10.2745
8.79943
6.79799
5.72875
4.96173
4.52392
4.13991
3.93722
3.63909
3.54811
3.35412
3.29956
3.11947
3.09306
2.93229
2.88768
2.69961
2.63476
2.41593
1.77036
1.31928
1.07088
0.925304
0.829945
0.769142
0.717299
0.679017
0.642098
0.613924
0.587253
0.566871
0.549051
0.535211
0.52513
0.51703
0.51287
0.508977
0.509137
0.509253
0.509713
0.510922
0.511506
0.513463
0.512602
0.511068
0.506897
0.505671
0.500621
0.499427
0.493737
0.490927
0.481821
0.477607
0.465431
0.459562
0.443746
0.436145
0.417029
0.407977
0.386954
0.378735
0.360355
0.35512
0.342083
0.339227
0.329705
0.328746
0.321894
0.32139
0.314557
0.312909
0.304054
0.299258
0.284672
0.276646
0.2566
0.24555
0.223688
0.208421
0.191173
0.17675
0.164735
0.152673
0.147016
0.140421
0.139808
0.137496
0.136698
0.134672
0.138621
0.143423
0.161663
0.170338
0.196467
0.204903
0.236448
0.242064
0.275406
0.278807
0.31506
0.312918
0.346363
0.33528
0.371718
0.352237
0.394299
0.365657
0.410718
0.365867
0.404791
0.338342
0.380736
0.323938
0.389609
0.333871
0.41731
0.345863
0.414534
0.322057
0.359888
0.282337
0.29559
0.24745
0.248107
0.22174
0.218875
0.201971
0.201021
0.192644
0.195251
0.189831
0.194867
0.188713
0.192774
0.185549
0.188163
0.18064
0.183305
0.17621
0.179555
0.172438
0.174591
0.166474
0.166041
0.157154
0.155035
0.144611
0.141945
0.131009
0.130275
0.122432
0.121294
0.113049
0.113169
0.107268
0.107992
0.102184
0.102617
0.0964426
0.0967744
0.0923779
0.0987213
0.0969776
0.106235
0.104665
0.116447
0.113289
0.127402
0.122634
0.137229
0.129719
0.151925
0.152647
0.197112
0.201326
0.242978
0.228427
0.248838
0.227297
0.231983
0.215543
0.213559
0.206162
0.196542
0.193535
0.1825
0.184912
0.172639
0.175007
0.161979
0.162765
0.150046
0.148923
0.137945
0.136552
0.128207
0.125676
0.116003
0.110615
0.100365
0.0952935
0.0900465
0.0890248
0.0880667
0.0888722
0.0886816
0.0884193
0.0877201
0.0841585
0.0828242
0.0765743
0.0766402
0.0731607
0.0821405
0.0820748
0.105609
0.130871
0.344675
1.50404
2.5082
2.04632
1.70771
1.47813
1.3062
1.18756
1.089
1.01897
0.953442
0.906402
0.859031
0.824988
0.789661
0.764625
0.737217
0.718417
0.696836
0.682359
0.665173
0.655517
0.643259
0.637871
0.627964
0.623715
0.614749
0.610616
0.60129
0.597822
0.589493
0.586679
0.579318
0.576752
0.569502
0.56704
0.559878
0.557221
0.549516
0.54629
0.537517
0.533784
0.523918
0.519802
0.509293
0.505407
0.495623
0.492479
0.484125
0.481534
0.474307
0.471925
0.465744
0.463329
0.457615
0.454451
0.448259
0.441096
0.436225
0.425179
0.418079
0.402422
0.394429
0.375742
0.367569
0.346208
0.338082
0.317544
0.310888
0.292015
0.287137
0.269397
0.26787
0.256237
0.263077
0.254882
0.271916
0.267465
0.294712
0.291684
0.323678
0.316609
0.350254
0.336682
0.369275
0.348866
0.384246
0.359654
0.401829
0.374433
0.425511
0.394649
0.449533
0.409867
0.458542
0.403741
0.43643
0.382456
0.403239
0.362616
0.373907
0.347581
0.344145
0.330129
0.308581
0.298426
0.274746
0.268367
0.249746
0.244944
0.231807
0.227638
0.218875
0.213321
0.209465
0.199469
0.197113
0.1903
0.188512
0.180468
0.18044
0.176329
0.176494
0.171768
0.167298
0.15868
0.144642
0.136386
0.118041
0.111491
0.0969643
0.0915355
0.0840684
0.0827341
0.0783502
0.0786297
0.0783782
0.0797391
0.0795563
0.0801534
0.0807155
0.0809807
0.0837222
0.0830563
0.0910034
0.0906995
0.107227
0.108473
0.137134
0.135453
0.171916
0.161685
0.194695
0.176366
0.197306
0.180312
0.198927
0.193906
0.211463
0.213323
0.222493
0.22159
0.215211
0.212386
0.199248
0.197277
0.183635
0.180639
0.166024
0.161433
0.147779
0.144415
0.133277
0.130562
0.120837
0.119154
0.111543
0.110733
0.10594
0.105007
0.0993614
0.0947581
0.0917671
0.0877242
0.0872508
0.0864177
0.0867099
0.087927
0.0871819
0.0876756
0.0833735
0.082091
0.0724623
0.0709072
0.0619667
0.063338
0.0619198
0.0671224
0.0715277
0.0889616
0.126091
0.46664
2.05901
1.80593
1.58445
1.42518
1.28918
1.19341
1.10126
1.0366
0.969208
0.921898
0.870381
0.834756
0.794973
0.767992
0.737517
0.714721
0.691607
0.671607
0.654283
0.637279
0.625166
0.610868
0.602704
0.588976
0.583307
0.571002
0.565759
0.555379
0.551168
0.542759
0.538821
0.532696
0.529096
0.52371
0.519428
0.516027
0.510383
0.508283
0.50266
0.500212
0.494911
0.492389
0.48625
0.483266
0.476918
0.474032
0.468037
0.465583
0.460933
0.459606
0.45635
0.455357
0.45292
0.452018
0.448919
0.447863
0.444704
0.443504
0.440695
0.438754
0.437292
0.433557
0.433346
0.427589
0.427867
0.421181
0.422498
0.412643
0.415645
0.400185
0.403671
0.383757
0.390124
0.367658
0.379538
0.357553
0.375284
0.354805
0.374968
0.354582
0.37247
0.351165
0.364153
0.341698
0.348376
0.325562
0.327128
0.308301
0.310779
0.302254
0.311386
0.317294
0.336903
0.35201
0.361116
0.366851
0.35991
0.36057
0.34042
0.338186
0.310931
0.309621
0.284959
0.284741
0.263334
0.263585
0.245423
0.245141
0.230658
0.229923
0.218413
0.217891
0.208746
0.208667
0.20185
0.202413
0.197444
0.197428
0.192741
0.192488
0.18366
0.180733
0.164948
0.158767
0.133384
0.123932
0.0960604
0.0881957
0.0672479
0.0625477
0.0503839
0.0478594
0.0413061
0.0408635
0.0378004
0.0382303
0.0357217
0.036863
0.0346624
0.0365348
0.0348759
0.0371122
0.0365688
0.0387055
0.0404453
0.0442878
0.0512314
0.0603466
0.0813617
0.0968682
0.133924
0.145944
0.170117
0.172991
0.179064
0.18682
0.186848
0.191351
0.188286
0.194489
0.189241
0.191925
0.185515
0.183708
0.174779
0.170591
0.157966
0.152451
0.138897
0.13422
0.122209
0.118551
0.108295
0.106109
0.0988492
0.0982715
0.0940414
0.0947016
0.0917515
0.0929113
0.0909496
0.0931592
0.091327
0.0950376
0.0919547
0.0941664
0.0882405
0.0866739
0.0772328
0.0735041
0.0616764
0.0586213
0.0527742
0.0534919
0.0536212
0.0595134
0.0621384
0.0782895
0.083606
0.16758
1.356
1.23837
1.11293
1.03021
0.946824
0.894655
0.833717
0.795913
0.74737
0.716979
0.67705
0.652074
0.619551
0.597954
0.573065
0.552222
0.533666
0.513841
0.500405
0.481883
0.472723
0.456726
0.450315
0.437452
0.432168
0.421067
0.416118
0.407173
0.401163
0.395318
0.387971
0.385399
0.37916
0.377034
0.372308
0.371242
0.36693
0.365583
0.361246
0.360013
0.355919
0.354317
0.350316
0.349079
0.345513
0.344299
0.340226
0.33907
0.334784
0.333849
0.330441
0.330892
0.329882
0.332026
0.331777
0.334588
0.33547
0.338355
0.340551
0.341352
0.345577
0.345614
0.35056
0.350641
0.359996
0.359703
0.371903
0.371065
0.385243
0.380351
0.393605
0.383144
0.394656
0.379841
0.388722
0.371926
0.376114
0.361055
0.359231
0.348071
0.338331
0.32836
0.299343
0.292878
0.262283
0.253015
0.22086
0.2192
0.194204
0.197772
0.182573
0.19638
0.189254
0.215798
0.21627
0.255098
0.257109
0.293478
0.286018
0.304126
0.288017
0.297493
0.27787
0.283953
0.264597
0.268397
0.251211
0.253137
0.238739
0.241482
0.228631
0.233273
0.221749
0.228048
0.21718
0.223322
0.212085
0.215199
0.200951
0.201251
0.183522
0.178371
0.15012
0.141682
0.106064
0.0957323
0.0645265
0.0580063
0.0391148
0.037286
0.0306301
0.0302721
0.02516
0.024592
0.0211608
0.0212577
0.0190579
0.0195922
0.0181133
0.0191093
0.0181307
0.0194464
0.0187086
0.0203679
0.0201382
0.0221791
0.0225652
0.0264445
0.0278911
0.0365749
0.0423734
0.0655789
0.0772695
0.112062
0.120688
0.148888
0.153334
0.169009
0.168072
0.172316
0.167368
0.16872
0.162993
0.162684
0.156819
0.154899
0.145722
0.141897
0.129949
0.124856
0.111755
0.106632
0.0947108
0.0913078
0.0827438
0.081483
0.077275
0.0783837
0.0760489
0.0788167
0.0774009
0.0806252
0.0777949
0.0796233
0.0754071
0.0747452
0.0685677
0.0661467
0.061458
0.056197
0.051693
0.0496436
0.0510831
0.0528762
0.0629754
0.0687919
0.077559
0.0993986
0.100594
0.12158
0.62105
0.583944
0.528138
0.497085
0.458506
0.441024
0.41559
0.405235
0.385521
0.376843
0.359144
0.350819
0.333576
0.325402
0.30936
0.301571
0.287226
0.280926
0.268243
0.262826
0.252041
0.247271
0.238785
0.234742
0.228083
0.225648
0.220215
0.218326
0.213453
0.211588
0.206631
0.204474
0.199456
0.197661
0.193645
0.192592
0.189605
0.188932
0.186404
0.185511
0.183012
0.181786
0.179014
0.177995
0.175627
0.175061
0.17331
0.173027
0.172054
0.171733
0.171282
0.170731
0.170781
0.170961
0.171627
0.172143
0.174353
0.175055
0.178768
0.180144
0.184845
0.187025
0.192076
0.19508
0.198566
0.205577
0.209083
0.219267
0.223926
0.241657
0.246619
0.266339
0.268548
0.282913
0.276157
0.284548
0.269218
0.273368
0.251815
0.252366
0.224841
0.220264
0.187665
0.18167
0.14985
0.144773
0.117634
0.115251
0.0973866
0.100006
0.0893846
0.0960897
0.0905424
0.103319
0.102313
0.122687
0.124373
0.156522
0.161481
0.202693
0.206548
0.240426
0.234981
0.252597
0.242735
0.251643
0.24039
0.245928
0.234651
0.239207
0.227855
0.23152
0.219696
0.222164
0.208735
0.208816
0.193808
0.190114
0.166535
0.158285
0.125456
0.11287
0.0766216
0.066483
0.0420966
0.0367265
0.0240936
0.0214702
0.0150185
0.0138894
0.0117848
0.0119936
0.0110427
0.0113022
0.0105191
0.0108909
0.010277
0.0107814
0.0103422
0.0111635
0.0108193
0.0119489
0.0118382
0.0132594
0.0133665
0.0148477
0.0151652
0.0170699
0.0176742
0.0205867
0.0224316
0.0298263
0.0349774
0.0514895
0.0597204
0.0837553
0.0931964
0.11929
0.125923
0.143282
0.144278
0.148217
0.144964
0.145175
0.141264
0.140199
0.13399
0.130917
0.121521
0.116487
0.104289
0.098548
0.0856918
0.0803943
0.0687688
0.0649709
0.0558442
0.0547087
0.0519809
0.0531972
0.0524732
0.0549612
0.0555749
0.0582097
0.0587105
0.0585612
0.0589946
0.0584676
0.0533463
0.0516997
0.0484179
0.0548622
0.0566778
0.0732
0.0783277
0.102387
0.107201
0.136322
0.139137
0.146755
0.170425
0.163329
0.154401
0.143631
0.136513
0.128978
0.125422
0.120835
0.119072
0.115782
0.113936
0.111323
0.10848
0.106016
0.10231
0.100349
0.0960282
0.0942472
0.0903885
0.0888939
0.0854357
0.0840908
0.0812933
0.080253
0.0780071
0.0773176
0.0757765
0.0754018
0.0744053
0.0740719
0.0731406
0.0720754
0.0714595
0.0695184
0.0687505
0.0678233
0.0667569
0.0664195
0.0656001
0.0650928
0.0646661
0.0634303
0.0629206
0.0616565
0.0608179
0.0599721
0.0592723
0.0587635
0.0587019
0.0584075
0.0587374
0.0587268
0.0592457
0.0595406
0.0601777
0.0605307
0.0610958
0.0620217
0.0623495
0.0645952
0.0653102
0.0694081
0.0701108
0.0761966
0.0765678
0.0820862
0.0814129
0.088476
0.0874905
0.0972203
0.096278
0.109061
0.107455
0.120875
0.115782
0.12674
0.117001
0.123307
0.109825
0.111357
0.0970863
0.0957314
0.0807935
0.0774451
0.0623779
0.0596813
0.0480689
0.0474772
0.0415639
0.0436764
0.0403043
0.0444232
0.0427241
0.0491152
0.0487424
0.058197
0.0589611
0.074229
0.0769361
0.0986305
0.102569
0.127081
0.13067
0.154749
0.15628
0.172892
0.169969
0.181794
0.175104
0.183106
0.173649
0.175758
0.164279
0.163362
0.147247
0.142284
0.119445
0.111029
0.0840396
0.0749062
0.0511662
0.0444304
0.0288834
0.0252199
0.0170743
0.0154432
0.0117116
0.010936
0.00899031
0.00838429
0.00761622
0.00760497
0.00744298
0.00759293
0.00751343
0.00780207
0.0077394
0.00829829
0.0083113
0.00910245
0.00918196
0.0104314
0.0105206
0.0124403
0.0123825
0.0149766
0.0148825
0.0180773
0.0178989
0.0212961
0.0211085
0.0242668
0.0248502
0.0298736
0.0331846
0.0449065
0.0523086
0.072331
0.0812218
0.101441
0.107029
0.117713
0.120702
0.123044
0.121699
0.120938
0.117321
0.114583
0.107621
0.102824
0.0919726
0.0855458
0.0720197
0.0614372
0.049838
0.0438726
0.0391329
0.0378259
0.0368947
0.0371095
0.0394695
0.0424442
0.0474976
0.0495265
0.0529858
0.0527392
0.0510209
0.0461208
0.0402315
0.0426212
0.0433785
0.0522529
0.0560132
0.0733437
0.0793628
0.0990689
0.10319
0.121892
0.126499
0.141059
0.0277525
0.026963
0.0257621
0.0242782
0.0232156
0.0219622
0.0214139
0.0206918
0.0205232
0.0201798
0.0201268
0.0199813
0.0199321
0.0197319
0.0195867
0.0192375
0.0189064
0.0185677
0.0180251
0.017859
0.0175138
0.0174234
0.017173
0.017133
0.0169548
0.0169011
0.0166578
0.0166337
0.0165762
0.0166086
0.0166444
0.0166003
0.0166627
0.0165339
0.0164963
0.0162983
0.0161849
0.0161414
0.0159446
0.0158082
0.0157579
0.015533
0.0153976
0.0151482
0.0149333
0.0148419
0.0146927
0.0146244
0.0146395
0.0145965
0.0147108
0.0147613
0.0151162
0.0153594
0.0157512
0.0161993
0.0164094
0.017022
0.0171569
0.0180299
0.0180435
0.0196891
0.0201094
0.023204
0.0238538
0.0274551
0.0276096
0.0307039
0.0303674
0.0339619
0.0333698
0.0377244
0.0367568
0.0415007
0.0395819
0.0436061
0.0402347
0.0425009
0.0379016
0.0382908
0.0335868
0.0329043
0.0278157
0.0264445
0.0210042
0.0199097
0.0159528
0.0160169
0.0143121
0.0154219
0.0145022
0.0166675
0.0163302
0.0196786
0.0196431
0.0243188
0.0245669
0.0310675
0.0321193
0.0411582
0.0431135
0.0538972
0.055807
0.066872
0.0678476
0.0772354
0.0764505
0.0826412
0.079586
0.0829686
0.0773222
0.0776166
0.0706339
0.0691705
0.0590843
0.0558677
0.0442903
0.0402988
0.0298573
0.0265671
0.0188982
0.0167234
0.011757
0.0106134
0.00812926
0.00773404
0.00686193
0.00681734
0.00661957
0.00671908
0.00662069
0.00673438
0.00663321
0.00683016
0.00673848
0.0071211
0.00709004
0.00778404
0.0078929
0.00912381
0.00923336
0.0108482
0.0107499
0.0128362
0.0124908
0.0151535
0.0147514
0.0179691
0.0177358
0.0211499
0.0209868
0.0240689
0.023878
0.0263593
0.0264824
0.0296461
0.0319334
0.0404445
0.0461949
0.0605554
0.0697973
0.081368
0.0882241
0.0951229
0.0971367
0.0971639
0.0963573
0.0939859
0.0907565
0.086426
0.0786066
0.0680758
0.0557921
0.0455656
0.0385137
0.034686
0.0329144
0.0325242
0.032658
0.0330537
0.0353671
0.0398185
0.041546
0.041402
0.0408251
0.0377281
0.034017
0.0339938
0.0348801
0.038035
0.0439722
0.053591
0.0754761
0.0991957
0.118188
0.132288
0.139307
0.143874
0.143198
0.144936
0.0034167
0.0032566
0.00312875
0.00289832
0.00272211
0.00252209
0.00236225
0.00223383
0.00211342
0.00203793
0.00197503
0.00195138
0.00193438
0.00192979
0.00192459
0.00191894
0.00190234
0.00189075
0.00186424
0.00186567
0.00186267
0.00188503
0.00190013
0.00193308
0.00194494
0.00196854
0.00197666
0.0020025
0.0020164
0.00205285
0.00209387
0.00210887
0.0021882
0.00219492
0.00222311
0.00223689
0.00223557
0.00225619
0.00223895
0.00223861
0.00223312
0.00220664
0.00219608
0.00218641
0.00215037
0.00214662
0.00213718
0.0021192
0.00212334
0.0021056
0.00212092
0.00212331
0.00219072
0.00226784
0.00247012
0.00257762
0.00279011
0.00299826
0.00309316
0.00345695
0.00353493
0.00398072
0.00422843
0.0054637
0.00586764
0.00722107
0.00743168
0.00847352
0.0083093
0.00916685
0.00885028
0.0097842
0.00936526
0.0104886
0.010001
0.0112452
0.0105295
0.0114384
0.0103516
0.0106831
0.00939572
0.00933613
0.00795267
0.0075952
0.00595064
0.00563256
0.00471505
0.00489677
0.00448893
0.00503169
0.00481684
0.00576712
0.00573039
0.00719719
0.00725113
0.00926385
0.00939646
0.011941
0.0123132
0.0157186
0.0165673
0.0208994
0.0219332
0.0267112
0.0272881
0.0311588
0.0306328
0.0328602
0.0314632
0.03225
0.0299207
0.0297046
0.0264925
0.025448
0.0212717
0.0198137
0.0155412
0.0141095
0.0106729
0.00967227
0.00735649
0.00677266
0.00542326
0.00523104
0.00474503
0.00488443
0.0048633
0.00520981
0.00535781
0.00612449
0.00621467
0.00665062
0.00648454
0.00669474
0.00649878
0.00689603
0.00680528
0.00756641
0.00768793
0.00919518
0.00925684
0.0106827
0.0104825
0.0120619
0.0118143
0.0137401
0.0136201
0.0158514
0.0159692
0.0187251
0.0190003
0.0215183
0.0215509
0.0231938
0.0230768
0.0243242
0.0245859
0.0268498
0.0289612
0.0350585
0.0406083
0.0501653
0.0550498
0.0626332
0.0673303
0.0715693
0.0722871
0.0719792
0.0704262
0.0682075
0.06224
0.0514922
0.0417534
0.0350881
0.0315929
0.0304437
0.0302274
0.0302206
0.0309542
0.0311719
0.0308947
0.030319
0.0299345
0.0289239
0.0286548
0.0289047
0.0297302
0.0319344
0.0360359
0.0455135
0.0634864
0.103462
0.133881
0.149171
0.153461
0.157704
0.158179
0.16063
0.161418
0.16201
0.000359563
0.000356823
0.000356774
0.000350632
0.000344411
0.000327852
0.000321372
0.000306702
0.000302955
0.000295048
0.00029302
0.000285637
0.000282307
0.000274775
0.000271498
0.000263928
0.000259529
0.000252437
0.000246524
0.00024269
0.000238158
0.000236814
0.000235305
0.000235095
0.00023523
0.000234898
0.000235265
0.000235327
0.000235905
0.000238973
0.000245511
0.000251008
0.000270526
0.000277303
0.000290148
0.0003013
0.000304465
0.000318887
0.000319249
0.000323104
0.000323694
0.000322087
0.00032204
0.000321488
0.000313991
0.000312545
0.000306763
0.000301639
0.000297791
0.00029385
0.000293447
0.000295805
0.000295398
0.000304839
0.000311829
0.000337488
0.000348049
0.000387346
0.000401842
0.000472073
0.000486477
0.000586414
0.000628643
0.000852136
0.000920376
0.00120766
0.00124187
0.00144239
0.00140888
0.00157102
0.00151512
0.00167427
0.0016166
0.00183769
0.00180245
0.00211307
0.00205955
0.00234928
0.00222924
0.00241769
0.00221777
0.002291
0.00201355
0.00201111
0.00174214
0.00183351
0.00165938
0.00191726
0.00179488
0.00227878
0.00215447
0.00287169
0.00276131
0.0036942
0.0036599
0.00480529
0.00490085
0.00642293
0.00662588
0.00848052
0.00875195
0.0108543
0.0110185
0.01282
0.0125835
0.0139275
0.0132445
0.0138359
0.012731
0.0126986
0.0112663
0.0108887
0.00914686
0.0086318
0.00702784
0.00656321
0.00528184
0.00494996
0.00409848
0.00393595
0.00347229
0.00345704
0.00339864
0.00354435
0.00365229
0.00404886
0.00419663
0.00477152
0.00496607
0.00568935
0.00582146
0.006299
0.00622292
0.00638065
0.00630022
0.00649527
0.00655906
0.0071877
0.00750655
0.00855802
0.00886523
0.0097658
0.010048
0.010861
0.0113588
0.0129358
0.0136719
0.0162667
0.0170818
0.0195709
0.0200689
0.0220172
0.0222259
0.023165
0.0231261
0.0237851
0.0237774
0.0242759
0.0245407
0.0254949
0.0272456
0.0315444
0.03361
0.0374879
0.0414946
0.0468033
0.049387
0.0497061
0.0492961
0.0481759
0.0429927
0.0353066
0.0300569
0.0276394
0.0273432
0.0279207
0.0286452
0.0289184
0.0288847
0.0282687
0.027339
0.026837
0.0267026
0.0268086
0.0272669
0.0286082
0.0315594
0.0369864
0.0489664
0.0853213
0.132775
0.160923
0.165876
0.166424
0.163596
0.163017
0.162084
0.16259
0.1641
0.168175
0.000188927
0.000179765
0.000175414
0.000168737
0.000168271
0.000166594
0.00016733
0.000167213
0.000166362
0.000164199
0.000163512
0.000163311
0.00016374
0.000164075
0.000164335
0.000163581
0.000161614
0.00015681
0.000154537
0.000150622
0.000148542
0.000145359
0.000142413
0.000139872
0.000137078
0.000135897
0.000135157
0.000134782
0.000134787
0.000134882
0.000135327
0.000136194
0.000139519
0.000141229
0.000144538
0.000146662
0.000149108
0.000153425
0.000154793
0.000157411
0.000160207
0.000161034
0.00016274
0.00016344
0.000163593
0.000164257
0.000163966
0.000164129
0.000162537
0.000162123
0.000159509
0.000159031
0.000157097
0.000157974
0.000158409
0.000160829
0.000164574
0.000172401
0.000181683
0.000196936
0.000208927
0.000233984
0.000251696
0.000295216
0.000317495
0.000373477
0.000390661
0.000441099
0.000447296
0.000477636
0.000478912
0.000513558
0.000517446
0.000560374
0.000563688
0.000606573
0.000606027
0.000622497
0.000633251
0.000639972
0.000657619
0.000661457
0.000674632
0.000697875
0.000710929
0.000759104
0.000775711
0.000875618
0.000885808
0.00108477
0.00107967
0.00137273
0.00133806
0.0016678
0.0016046
0.00200811
0.00195396
0.00252976
0.0024896
0.00318926
0.00310279
0.00378945
0.00359557
0.00409484
0.00376995
0.00397838
0.00357675
0.00358029
0.00323232
0.00315889
0.00285656
0.00274451
0.00250448
0.00245585
0.00239461
0.00239416
0.0024095
0.00242823
0.00250793
0.00255205
0.00270433
0.00278559
0.00308031
0.00319892
0.00361223
0.00378943
0.00429486
0.00455247
0.00533661
0.00555967
0.00614015
0.00616906
0.00647895
0.00644995
0.00680464
0.00699635
0.00808526
0.00870718
0.0104353
0.0111746
0.0129506
0.0137079
0.0158178
0.0169906
0.0205092
0.0223702
0.0264954
0.0290208
0.0312782
0.0323925
0.0319949
0.0314448
0.0297871
0.0287697
0.0266864
0.0260466
0.0248483
0.0247927
0.0245622
0.0245928
0.0246012
0.0249284
0.0255007
0.0263369
0.0273532
0.0301767
0.032571
0.0333333
0.033308
0.0327295
0.0293466
0.0260631
0.0244214
0.0241787
0.0252721
0.0270754
0.028249
0.028613
0.0286138
0.0279406
0.0270526
0.0268359
0.0270185
0.0278161
0.029937
0.0333121
0.0405921
0.0548764
0.108439
0.158345
0.176192
0.178229
0.173956
0.170209
0.162503
0.159493
0.158674
0.158563
0.160349
0.163756
0.000158823
0.000164576
0.000170785
0.000184822
0.00018874
0.000188226
0.000185627
0.000185119
0.000186612
0.000187718
0.000190158
0.0001892
0.000186631
0.000181264
0.000171893
0.000166672
0.000159916
0.000156299
0.00015384
0.000150974
0.000150381
0.000148948
0.000147591
0.000145878
0.000141516
0.000140455
0.000137991
0.000137861
0.000138758
0.000146059
0.000159366
0.000172207
0.000178905
0.000182887
0.000183196
0.000182316
0.000178632
0.000176413
0.000175596
0.000177991
0.00018334
0.000188656
0.000192011
0.000193425
0.000194057
0.000193153
0.000191356
0.000187746
0.000185788
0.000180865
0.000179275
0.000173445
0.000171633
0.000166804
0.000166189
0.000164385
0.000166521
0.000167741
0.000174602
0.000180019
0.000193765
0.00020725
0.000221192
0.0002398
0.000258326
0.000286489
0.000324903
0.000381014
0.000439881
0.000523424
0.000572796
0.00067165
0.000715973
0.000819367
0.000849031
0.000941773
0.000952179
0.00100569
0.00102194
0.00108832
0.00117377
0.00123068
0.00136536
0.0014165
0.00158153
0.00161812
0.00179124
0.00179093
0.00191641
0.0018931
0.00198422
0.001949
0.00199101
0.00194579
0.00196714
0.00195223
0.00190481
0.00189562
0.00185858
0.00190586
0.00188051
0.00195192
0.00193077
0.00201395
0.00200006
0.00209005
0.00208544
0.00215448
0.00218024
0.002274
0.00240299
0.00257496
0.0028856
0.00309906
0.00352145
0.00376319
0.00426153
0.00453915
0.00516496
0.0054974
0.00622269
0.00658495
0.00735932
0.00775619
0.00858702
0.00904369
0.0101086
0.0108672
0.01247
0.0126202
0.0130354
0.0127322
0.0131912
0.0130104
0.0140412
0.014474
0.0170823
0.0180315
0.0207848
0.0217622
0.0245298
0.0263794
0.032228
0.0362825
0.0475615
0.0532741
0.0643973
0.0729849
0.078084
0.0779749
0.0753652
0.0697524
0.0615425
0.0526224
0.0444855
0.0379077
0.0325217
0.0294636
0.0270273
0.0258224
0.0250876
0.0245457
0.024177
0.0239773
0.0240206
0.0243408
0.0255225
0.0257575
0.0260325
0.0257617
0.0244345
0.023128
0.0228083
0.0231368
0.0253393
0.0274072
0.0285142
0.0288177
0.0287528
0.028396
0.0284164
0.0288978
0.0309198
0.0335798
0.0373499
0.0459994
0.0666355
0.129598
0.175426
0.187582
0.18748
0.183092
0.170059
0.166067
0.162019
0.162187
0.164863
0.167103
0.17479
0.17884
0.000346151
0.000375013
0.000395325
0.000418581
0.00042394
0.000434286
0.000445506
0.000465141
0.000500819
0.000517575
0.000566731
0.000588826
0.000601416
0.00060602
0.000587836
0.000576267
0.000551172
0.000541165
0.000540385
0.000537331
0.000555841
0.000568671
0.000586859
0.000590727
0.000583344
0.000582813
0.000576503
0.000582091
0.000621554
0.000701271
0.000809969
0.000877175
0.000924829
0.000939573
0.000939364
0.000923236
0.000896716
0.000882299
0.000889452
0.000944648
0.00102228
0.00108104
0.00112117
0.00113596
0.00114214
0.00111487
0.0010745
0.00100343
0.000962195
0.000900767
0.000874411
0.000808655
0.00078899
0.000736716
0.000726217
0.000703517
0.000711682
0.000704791
0.000725033
0.00071751
0.000742924
0.000726713
0.000740203
0.000712943
0.000712232
0.000695356
0.000708731
0.000717336
0.000762419
0.000806283
0.000911069
0.00100675
0.00112991
0.00125392
0.00137301
0.00151767
0.00166258
0.00184869
0.00206117
0.0022879
0.00262895
0.00289936
0.00342486
0.00373506
0.00438214
0.00466963
0.00529588
0.00549289
0.00596164
0.00605982
0.00636194
0.00636775
0.00644005
0.00635887
0.00633317
0.00616491
0.00579223
0.00559424
0.00510176
0.00510407
0.00488584
0.00510422
0.00497683
0.00536829
0.00535142
0.00583542
0.00592687
0.0065672
0.00670039
0.00734643
0.00749459
0.00809861
0.00828172
0.00896201
0.00927599
0.0101781
0.0107207
0.011605
0.0130186
0.0139343
0.0155748
0.0164989
0.0182328
0.020134
0.0211492
0.0230152
0.0237724
0.0252359
0.0252362
0.0253011
0.0247571
0.0243491
0.0244574
0.0245007
0.0260467
0.026909
0.0300536
0.0308059
0.0335402
0.0359557
0.0442628
0.0512466
0.072848
0.0862673
0.121429
0.136238
0.168626
0.186713
0.196305
0.194837
0.188158
0.172829
0.153723
0.122986
0.100562
0.0771424
0.0604431
0.0477474
0.0386172
0.0329232
0.0291077
0.0268214
0.0253596
0.0245481
0.0242392
0.0242223
0.0243634
0.0242729
0.0242782
0.0237182
0.0233325
0.0229443
0.0231283
0.0247474
0.0275334
0.0286941
0.0292923
0.0296471
0.0300104
0.0306116
0.0319159
0.0357163
0.0391393
0.0446528
0.0563169
0.0788918
0.149777
0.184639
0.196806
0.194201
0.188905
0.17629
0.170427
0.171251
0.173108
0.180608
0.189333
0.192381
0.198096
0.199652
0.00349708
0.00356665
0.0036244
0.00369815
0.00380936
0.00401038
0.00412502
0.00430654
0.00453455
0.00464509
0.00492463
0.00499532
0.00505966
0.00506519
0.00502566
0.00501454
0.00498942
0.00500387
0.00510839
0.00520407
0.00539276
0.00548208
0.00557646
0.00560711
0.0055917
0.00558426
0.00558863
0.00582525
0.00613203
0.00651287
0.00684384
0.00706145
0.00719973
0.00720976
0.00719819
0.0070913
0.00702427
0.00701776
0.00715739
0.0074056
0.00759517
0.00772167
0.00779116
0.00779499
0.00777581
0.00747973
0.00724905
0.00682786
0.00656496
0.0062431
0.00600662
0.00570237
0.00559466
0.00537389
0.00535943
0.00528532
0.00532159
0.00525802
0.00531152
0.0052404
0.00528468
0.00518258
0.00515981
0.00490615
0.00477535
0.00447848
0.0044397
0.00439838
0.00443374
0.00449461
0.00472615
0.00489077
0.00528737
0.00548787
0.00592233
0.00613819
0.00658829
0.00685996
0.00742272
0.00780532
0.00856122
0.00907915
0.0100914
0.0106487
0.0117151
0.0122814
0.0129404
0.0133976
0.013686
0.0136977
0.0135943
0.0134622
0.0129981
0.0127107
0.0119485
0.0115877
0.0106589
0.0102879
0.00936279
0.00915038
0.00851952
0.00860945
0.00842537
0.00874469
0.00871307
0.00911415
0.00919854
0.00985573
0.0101244
0.0112299
0.0117715
0.0135641
0.0145208
0.0172535
0.0187234
0.0225767
0.0245595
0.0294094
0.0317727
0.0370402
0.0393292
0.0437086
0.0459887
0.0498061
0.0503346
0.0508226
0.049885
0.0493137
0.046897
0.0462054
0.0437538
0.0435257
0.0432342
0.0440647
0.0445884
0.0461145
0.0489736
0.0539113