/*--------------------------------*- C++ -*----------------------------------*\
| =========                 |                                                 |
| \\      /  F ield         | OpenFOAM: The Open Source CFD Toolbox           |
|  \\    /   O peration     | Version:  2.4.0                                 |
|   \\  /    A nd           | Web:      www.OpenFOAM.org                      |
|    \\/     M anipulation  |                                                 |
\*---------------------------------------------------------------------------*/
FoamFile
{
    version     2.0;
    format      ascii;
    class       volScalarField;
    location    "1.01";
    object      k_0;
}
// * * * * * * * * * * * * * * * * * * * * * * * * * * * * * * * * * * * * * //

dimensions      [0 2 -2 0 0 0 0];

internalField   nonuniform List<scalar> 
8800
(
8.12545
10.2627
8.78657
6.82306
5.71531
4.9583
4.54424
4.13504
3.91508
3.66346
3.5495
3.36303
3.30242
3.16072
3.11264
2.98335
2.93131
2.80807
2.76605
2.54909
1.4102
4.35183
5.31457
5.28278
5.13353
4.79797
4.59606
4.2823
4.11473
3.88594
3.77219
3.5773
3.52115
3.38074
3.33302
3.21549
3.17977
3.07862
3.01923
2.97266
0.0848548
0.732891
1.56866
1.92037
2.28714
2.43533
2.57699
2.60489
2.62915
2.60054
2.58472
2.53298
2.52007
2.46815
2.4599
2.41786
2.41004
2.36683
2.34607
2.30587
0.00337146
0.0701668
0.270096
0.398122
0.580878
0.713584
0.829562
0.927814
1.04745
1.09308
1.15779
1.20294
1.25626
1.28168
1.33695
1.3738
1.40686
1.43362
1.45191
1.45952
0.000123822
0.00500244
0.0288382
0.0484107
0.0778621
0.130989
0.161025
0.202002
0.255506
0.29267
0.314553
0.360575
0.379271
0.418478
0.442869
0.503773
0.528707
0.587044
0.604456
0.651898
2.51482e-05
0.000314423
0.00224297
0.00399544
0.00611953
0.0125859
0.0174741
0.0263449
0.0372144
0.0472377
0.0526238
0.0658961
0.0708239
0.0810062
0.0883128
0.106756
0.118666
0.143219
0.155874
0.174513
2.14855e-05
4.24173e-05
0.000195988
0.000330638
0.000422128
0.000765413
0.00114264
0.00188514
0.00350444
0.00441814
0.0054962
0.00740427
0.00763401
0.00817413
0.00908145
0.0125335
0.0150571
0.020847
0.0242033
0.0281111
2.09201e-05
2.8929e-05
5.52974e-05
9.78119e-05
0.000103629
0.000109204
0.000120462
0.000148515
0.000221745
0.000301613
0.000537134
0.000689078
0.000672102
0.000627472
0.000655287
0.000743322
0.00114807
0.00163632
0.00308004
0.00346363
2.07472e-05
3.09698e-05
3.82352e-05
5.48095e-05
7.12996e-05
8.27376e-05
8.28553e-05
8.41002e-05
8.52306e-05
8.33879e-05
8.89201e-05
0.000136349
0.000165296
0.000161095
0.00015621
0.000147186
0.000151258
0.000193895
0.00029965
0.000357603
2.07126e-05
2.77842e-05
4.30053e-05
5.71178e-05
5.56777e-05
5.74512e-05
7.15952e-05
8.37365e-05
8.61027e-05
8.09451e-05
7.45433e-05
7.47334e-05
8.03976e-05
0.000104072
0.000107753
0.000111484
0.0001091
0.000119705
0.000125095
0.000191928
2.06247e-05
2.6608e-05
4.50972e-05
5.62166e-05
5.62557e-05
6.49425e-05
7.5975e-05
7.46442e-05
7.37588e-05
7.3901e-05
7.48379e-05
8.48734e-05
9.58188e-05
0.00010419
0.000103338
9.53174e-05
9.72065e-05
0.000103869
0.000112107
0.000156066
2.07769e-05
3.00444e-05
3.80089e-05
4.85012e-05
7.93841e-05
9.47917e-05
9.41808e-05
8.27227e-05
7.27784e-05
7.36269e-05
8.35479e-05
0.000120491
0.000153825
0.000155749
0.000142097
0.000138619
0.000151247
0.000160738
0.000186539
0.000262854
2.11098e-05
2.8308e-05
4.52917e-05
0.000116024
0.000137243
0.000130944
0.000134036
0.000141863
0.000161493
0.000307788
0.000456847
0.000623402
0.00080194
0.000903421
0.000893407
0.000987194
0.00116755
0.00160646
0.00194919
0.00290698
2.16988e-05
4.1695e-05
0.000161016
0.000596588
0.000662989
0.000747846
0.0011837
0.00170385
0.00224375
0.00438948
0.00581777
0.00735121
0.00891998
0.0108894
0.0114376
0.0135657
0.015692
0.020526
0.0235552
0.0322477
2.50898e-05
0.000306257
0.00189875
0.00654399
0.00793715
0.0103147
0.0183657
0.0251076
0.0303583
0.0475106
0.0564883
0.067085
0.0755678
0.0901359
0.0948117
0.109644
0.120569
0.145256
0.15867
0.198568
0.000123047
0.00492376
0.0261075
0.0654482
0.0819752
0.108407
0.172247
0.202672
0.228219
0.299679
0.33001
0.359944
0.390764
0.439033
0.454254
0.499604
0.528212
0.59394
0.624448
0.705179
0.003347
0.0690765
0.267878
0.44453
0.547636
0.686721
0.859914
0.918534
1.00204
1.12487
1.17544
1.2027
1.26551
1.31363
1.32903
1.37536
1.40391
1.46558
1.48707
1.53702
0.0841632
0.72142
1.5862
1.94608
2.24621
2.43271
2.59412
2.59395
2.62061
2.61192
2.59622
2.53219
2.52236
2.47848
2.46022
2.41714
2.41226
2.38758
2.37337
2.3419
1.39915
4.3589
5.32664
5.28113
5.12695
4.79959
4.5788
4.28781
4.13701
3.86192
3.77865
3.58405
3.51724
3.35978
3.32766
3.19705
3.16397
3.04269
2.99964
2.89083
8.11163
10.2752
8.79799
6.79868
5.72968
4.96041
4.52448
4.14093
3.93622
3.63856
3.54865
3.35436
3.29911
3.11953
3.0935
2.93218
2.88737
2.69976
2.63487
2.41569
1.77066
1.31957
1.07092
0.925141
0.829748
0.768942
0.717197
0.679037
0.642192
0.614109
0.587415
0.567083
0.549177
0.535399
0.525218
0.517131
0.512855
0.508987
0.509074
0.509167
0.509618
0.510833
0.511452
0.513475
0.512635
0.511111
0.50699
0.505787
0.500805
0.499623
0.493978
0.491153
0.482007
0.477775
0.465559
0.459669
0.443818
0.436195
0.417049
0.407974
0.386923
0.378692
0.360313
0.355048
0.341967
0.339065
0.329541
0.328549
0.321644
0.321089
0.314152
0.312456
0.3034
0.298482
0.283602
0.275412
0.254975
0.243775
0.221474
0.206151
0.188631
0.174368
0.162174
0.150619
0.145091
0.139094
0.138632
0.136562
0.135894
0.134602
0.139624
0.145366
0.164806
0.173871
0.200686
0.209627
0.241364
0.247186
0.280074
0.283486
0.318658
0.31619
0.348
0.336921
0.371725
0.352617
0.392952
0.364612
0.407143
0.361838
0.396802
0.331104
0.372249
0.318959
0.384664
0.331171
0.413781
0.343363
0.410671
0.319593
0.357343
0.280977
0.294744
0.247211
0.248293
0.22217
0.219684
0.203406
0.202804
0.194948
0.197464
0.192334
0.196699
0.190285
0.19383
0.186404
0.188835
0.181269
0.183963
0.176834
0.180142
0.172831
0.174821
0.166569
0.166107
0.157063
0.155079
0.144712
0.142214
0.131578
0.130997
0.1228
0.121599
0.113265
0.113432
0.107419
0.107983
0.101882
0.102099
0.0956557
0.0960177
0.0918806
0.098605
0.0969696
0.10609
0.104355
0.115948
0.113011
0.127109
0.122201
0.136568
0.129342
0.152395
0.15352
0.19956
0.203419
0.243641
0.228401
0.247877
0.226297
0.230412
0.214338
0.212317
0.2052
0.195124
0.192321
0.181489
0.183754
0.171711
0.17418
0.161567
0.162485
0.150007
0.14903
0.138433
0.13715
0.128749
0.125735
0.115509
0.109508
0.0996459
0.0946144
0.0898686
0.0891179
0.0884294
0.0890796
0.0889268
0.0883259
0.0873575
0.0831617
0.0815828
0.0748787
0.0749051
0.0715866
0.0805219
0.0805653
0.10315
0.129742
0.350467
1.5164
2.50804
2.04631
1.70794
1.47828
1.30627
1.18745
1.08886
1.01885
0.953348
0.906486
0.859003
0.825117
0.789657
0.764715
0.737181
0.718567
0.696814
0.682445
0.665106
0.655606
0.643267
0.637861
0.627937
0.623695
0.614752
0.610616
0.601303
0.597837
0.589523
0.586694
0.579345
0.576777
0.56951
0.56705
0.559874
0.557216
0.549513
0.546288
0.537564
0.533829
0.523976
0.519848
0.509331
0.505437
0.495644
0.492495
0.48412
0.481508
0.474219
0.471838
0.465604
0.463203
0.457448
0.454273
0.447917
0.440906
0.43592
0.424515
0.417204
0.401228
0.392954
0.374046
0.365513
0.34347
0.33523
0.314781
0.308007
0.2896
0.284872
0.268125
0.267051
0.25685
0.263842
0.256814
0.274058
0.270676
0.297895
0.295562
0.326615
0.319792
0.352077
0.338539
0.369815
0.349634
0.384159
0.359883
0.401655
0.374431
0.425403
0.394159
0.448425
0.407486
0.454968
0.398751
0.430566
0.376715
0.398019
0.358229
0.370311
0.344694
0.341518
0.328193
0.307094
0.297268
0.274218
0.268095
0.24971
0.245295
0.232304
0.228502
0.219466
0.214581
0.2097
0.200204
0.197865
0.191036
0.189042
0.181002
0.181303
0.177158
0.177005
0.171312
0.166529
0.156697
0.143357
0.134276
0.117269
0.110678
0.0973926
0.0923704
0.0862954
0.0848708
0.0812552
0.0814784
0.081531
0.0825307
0.0824138
0.08251
0.0829601
0.0825774
0.0855756
0.0845414
0.0927537
0.0921242
0.109459
0.1102
0.139333
0.136916
0.173132
0.162208
0.194616
0.175858
0.196114
0.179644
0.198606
0.193928
0.211283
0.213256
0.221785
0.220576
0.213604
0.210854
0.197507
0.195492
0.182004
0.178722
0.164157
0.159761
0.146701
0.143593
0.132744
0.130271
0.120902
0.119432
0.112105
0.111418
0.106939
0.105121
0.0992705
0.0942749
0.0915422
0.0876844
0.0874805
0.0868425
0.0872159
0.0885336
0.0873653
0.0876478
0.0825473
0.080807
0.0707642
0.0691429
0.0607673
0.0621806
0.0613045
0.0664939
0.0713221
0.0887236
0.126846
0.469797
2.05877
1.80562
1.58475
1.42549
1.28967
1.19376
1.10133
1.0367
0.968954
0.92181
0.8701
0.834758
0.794861
0.76825
0.737356
0.714977
0.691418
0.671797
0.654161
0.637505
0.625135
0.611117
0.602569
0.589066
0.583311
0.570797
0.565654
0.555363
0.551176
0.542666
0.538913
0.532677
0.529115
0.523468
0.519428
0.515643
0.510298
0.508166
0.502392
0.500046
0.494883
0.492287
0.485996
0.483028
0.476668
0.473697
0.467859
0.465359
0.46099
0.459705
0.456453
0.455506
0.45309
0.452104
0.449021
0.448026
0.444885
0.443804
0.440989
0.439334
0.437447
0.434255
0.433701
0.427672
0.427819
0.420936
0.421704
0.411988
0.414249
0.39903
0.40183
0.38273
0.388428
0.367202
0.378433
0.357742
0.374751
0.355186
0.37456
0.354529
0.371861
0.350414
0.363281
0.340274
0.347179
0.323721
0.326348
0.3071
0.311425
0.303095
0.314649
0.320837
0.342228
0.354092
0.363113
0.366477
0.359567
0.359217
0.337239
0.334742
0.307563
0.306351
0.282522
0.28258
0.261558
0.262284
0.244279
0.244617
0.230103
0.229864
0.218346
0.218169
0.209018
0.209192
0.202298
0.203147
0.197915
0.197951
0.192844
0.192134
0.182682
0.179174
0.162292
0.155226
0.128774
0.119289
0.0922644
0.0849593
0.0654836
0.0614121
0.0502181
0.0480776
0.0424234
0.0423033
0.0393153
0.0398829
0.0373153
0.0385995
0.0363797
0.0383816
0.0365796
0.0388174
0.0383011
0.040297
0.0423748
0.0462972
0.0539591
0.0633343
0.0855564
0.101009
0.137766
0.148484
0.170469
0.173117
0.178298
0.186288
0.185778
0.190319
0.187285
0.193552
0.188402
0.190953
0.184521
0.182589
0.173449
0.169006
0.156153
0.150684
0.137365
0.13285
0.121033
0.117561
0.107722
0.105825
0.0991422
0.0988154
0.0949113
0.0955609
0.0927099
0.0937815
0.0917913
0.0941118
0.0922375
0.0959289
0.0925497
0.0942779
0.0878912
0.0858394
0.0758023
0.0719797
0.0601006
0.0570482
0.0524339
0.0533336
0.053811
0.0603634
0.0631038
0.0790141
0.0841616
0.168308
1.35567
1.23779
1.1129
1.03018
0.947141
0.895143
0.834039
0.796259
0.747287
0.71698
0.676755
0.652086
0.619254
0.598229
0.572794
0.552486
0.533461
0.514052
0.500278
0.482091
0.472781
0.456946
0.450571
0.437642
0.432245
0.42095
0.416092
0.406801
0.401134
0.394767
0.387995
0.385357
0.378972
0.376935
0.372426
0.371235
0.3666
0.36522
0.360919
0.359682
0.355483
0.353953
0.350166
0.348966
0.345409
0.344125
0.339988
0.338762
0.334356
0.333443
0.330265
0.330893
0.330088
0.332339
0.332185
0.335351
0.336226
0.339416
0.341232
0.342467
0.346477
0.34658
0.351725
0.352277
0.361514
0.3613
0.373486
0.372634
0.386126
0.381024
0.393372
0.383045
0.393579
0.379105
0.387262
0.370784
0.374714
0.359764
0.358179
0.346318
0.337327
0.324061
0.297912
0.290875
0.258233
0.248885
0.219573
0.217472
0.192597
0.196962
0.182676
0.197594
0.191209
0.219267
0.220091
0.259516
0.261238
0.295578
0.287191
0.303638
0.287263
0.295911
0.276347
0.282273
0.26307
0.267149
0.250054
0.252356
0.23808
0.240891
0.228232
0.233078
0.221585
0.228155
0.217086
0.223436
0.211655
0.214435
0.199723
0.199633
0.180623
0.174929
0.145888
0.136774
0.100762
0.0906904
0.0609907
0.0551335
0.0381297
0.0371694
0.0309751
0.0303853
0.0252744
0.0248276
0.0216489
0.0218103
0.0196659
0.0203066
0.0188523
0.0199247
0.0188484
0.0202292
0.0194114
0.0211025
0.0208152
0.0228961
0.0232776
0.0273249
0.0288635
0.0381614
0.0442302
0.0687136
0.0801889
0.114523
0.122744
0.150004
0.154062
0.168742
0.167177
0.171044
0.166067
0.167437
0.161756
0.161491
0.155616
0.153467
0.143946
0.139906
0.12771
0.122549
0.109508
0.10461
0.093257
0.0902558
0.0825884
0.0818549
0.0783024
0.0796203
0.0775931
0.0805822
0.0792022
0.0822775
0.079196
0.0806163
0.0761339
0.0748007
0.0681167
0.0656908
0.0606833
0.0548308
0.050971
0.0496104
0.0513257
0.0535363
0.0645126
0.0701495
0.0796823
0.100286
0.100864
0.121321
0.620096
0.582811
0.527396
0.496635
0.458364
0.441446
0.416164
0.405909
0.386011
0.377223
0.359268
0.350826
0.333345
0.325205
0.309136
0.301454
0.287227
0.280948
0.268294
0.262899
0.252071
0.247387
0.238864
0.234904
0.228393
0.225927
0.220483
0.218519
0.213473
0.21151
0.206263
0.204049
0.199016
0.197278
0.193415
0.192374
0.189451
0.188764
0.186136
0.185242
0.182632
0.181417
0.178709
0.177735
0.175531
0.175007
0.173348
0.173125
0.172105
0.171821
0.171292
0.170781
0.170841
0.171043
0.171772
0.172441
0.174735
0.175628
0.17963
0.18108
0.186088
0.188233
0.193259
0.196086
0.199974
0.206787
0.210463
0.220906
0.226114
0.244091
0.24882
0.268092
0.270121
0.282871
0.275744
0.283103
0.267557
0.270787
0.249381
0.248863
0.220177
0.215113
0.182584
0.176567
0.145378
0.140511
0.114303
0.112448
0.0957652
0.0989514
0.0886581
0.0960276
0.0908269
0.104311
0.103649
0.124627
0.126724
0.160217
0.165289
0.206732
0.210198
0.241948
0.235797
0.252913
0.242679
0.251343
0.240045
0.245528
0.23425
0.238774
0.227316
0.230965
0.218898
0.221225
0.207461
0.207336
0.191589
0.187268
0.162534
0.15372
0.119769
0.10716
0.0718298
0.0622769
0.0395371
0.0345547
0.0228034
0.020443
0.0143464
0.0137052
0.0120066
0.0122682
0.0112731
0.0115523
0.0107366
0.0111276
0.0104921
0.011024
0.0105633
0.011409
0.0110339
0.0121869
0.0120368
0.0135208
0.0135902
0.0150998
0.0154101
0.0173581
0.0179781
0.0210858
0.0230649
0.0309691
0.0362837
0.0531721
0.0615257
0.0859795
0.0954113
0.121296
0.12755
0.143558
0.143867
0.147201
0.143917
0.144073
0.140238
0.139023
0.132527
0.129201
0.119411
0.114205
0.101834
0.0961553
0.0834819
0.0784963
0.0674328
0.0640064
0.0559547
0.0555731
0.0533563
0.0547635
0.0542527
0.0566972
0.0572242
0.059476
0.0596685
0.0592027
0.0595069
0.0587058
0.0522091
0.0509766
0.0487029
0.0556332
0.0579778
0.0753298
0.0807122
0.104506
0.109392
0.137886
0.140249
0.146618
0.169922
0.162725
0.153907
0.14318
0.136202
0.128856
0.125449
0.12097
0.119248
0.115911
0.114121
0.111352
0.108546
0.105936
0.102361
0.10027
0.0960292
0.0942586
0.0904672
0.0889644
0.0854408
0.0841268
0.081364
0.0803248
0.078106
0.077444
0.0759606
0.0755911
0.0745714
0.0741932
0.0730255
0.0720454
0.0711886
0.0692227
0.0685812
0.067599
0.0666383
0.0663071
0.0654416
0.0649865
0.0644291
0.0632092
0.0627048
0.0613192
0.0606054
0.0597987
0.0591822
0.0587975
0.058731
0.0585147
0.0588634
0.0588787
0.059452
0.0597139
0.0603015
0.0606383
0.0612946
0.0621379
0.0626056
0.0651558
0.066017
0.0702119
0.0711662
0.0771222
0.0773098
0.0824928
0.081871
0.0887695
0.0878935
0.0975787
0.0968327
0.109582
0.107987
0.120881
0.115524
0.125705
0.115649
0.121274
0.107659
0.10885
0.0946934
0.0932318
0.0781208
0.0747576
0.0601827
0.0577159
0.0468169
0.046659
0.0411491
0.0434828
0.0402652
0.0445227
0.0429249
0.0493983
0.0491538
0.0587703
0.0597217
0.0755898
0.0783558
0.100616
0.10441
0.129185
0.132564
0.156466
0.15755
0.173526
0.170411
0.181893
0.175023
0.182728
0.172809
0.174558
0.162946
0.161486
0.144538
0.139058
0.115425
0.106704
0.0796965
0.0706192
0.0478766
0.0414946
0.0270143
0.0236908
0.0162608
0.0148006
0.0113629
0.0106104
0.00866077
0.00819721
0.00760235
0.00764758
0.00748514
0.00766184
0.00758065
0.00786893
0.00780346
0.008371
0.00837699
0.00915641
0.00922891
0.010499
0.0105595
0.0124794
0.0124042
0.0150263
0.0149187
0.0180995
0.0179081
0.0213005
0.0211257
0.0243616
0.0250545
0.0304651
0.0340076
0.046415
0.0540667
0.0744419
0.0831702
0.102608
0.107622
0.118048
0.120601
0.122407
0.120949
0.120051
0.116127
0.113181
0.105746
0.100651
0.0894207
0.0825381
0.0685808
0.0583597
0.0478462
0.0428508
0.0389542
0.0380834
0.0374974
0.037986
0.0415553
0.0443802
0.0494094
0.0512795
0.0540034
0.0534321
0.050471
0.0451315
0.0402212
0.0431117
0.0441836
0.0535738
0.0580553
0.0762039
0.0823508
0.101747
0.10589
0.124463
0.128813
0.142233
0.0275108
0.0267316
0.0255015
0.0240814
0.0230258
0.0218392
0.0213152
0.0206528
0.0205054
0.0202022
0.0201632
0.0200358
0.0199824
0.0197637
0.0196125
0.0192236
0.0189148
0.018534
0.0180498
0.0179042
0.0175716
0.0174759
0.0172412
0.0172014
0.016991
0.01692
0.0166781
0.0166736
0.0166181
0.0166595
0.0166732
0.0166189
0.0166631
0.0164914
0.0164306
0.0162155
0.0161313
0.0160679
0.0158451
0.0157441
0.0156879
0.0154216
0.0152941
0.015044
0.0148643
0.0147814
0.0146499
0.014612
0.014626
0.0145965
0.0147338
0.0148166
0.0152287
0.0154515
0.0158458
0.0162457
0.0164585
0.0170469
0.0172014
0.018034
0.0181313
0.0199566
0.0204822
0.023672
0.0242912
0.0276642
0.0276676
0.0306428
0.0302438
0.0337479
0.0331616
0.0374298
0.0365289
0.0411158
0.039263
0.0430477
0.0396954
0.0417374
0.0371393
0.0374509
0.0327505
0.0320554
0.0268038
0.025387
0.0200658
0.0190796
0.0155425
0.0157893
0.0142259
0.0154552
0.0145988
0.0168451
0.016548
0.019894
0.0198857
0.0245578
0.0248405
0.0315133
0.0326128
0.0418857
0.0437939
0.0545799
0.0564057
0.0672921
0.0681451
0.0773253
0.0762858
0.0823367
0.0790449
0.0821917
0.0763215
0.076479
0.0693305
0.0675629
0.0572418
0.0538557
0.0422647
0.03834
0.0282723
0.0251161
0.0178401
0.0157856
0.011154
0.0101334
0.00790942
0.00758518
0.00683192
0.00680153
0.00660473
0.0066812
0.00657191
0.00668634
0.00659205
0.00680461
0.00673252
0.00712658
0.00711028
0.00785007
0.00796339
0.00918858
0.0092569
0.0108368
0.0107213
0.0127536
0.0123967
0.0150313
0.0146483
0.0178586
0.0176357
0.0210275
0.0208483
0.0239095
0.0237012
0.0261535
0.0263638
0.0297951
0.0323721
0.0413859
0.0473995
0.0622107
0.071065
0.0822075
0.0888151
0.095181
0.0965654
0.0964943
0.0954738
0.0929219
0.0896124
0.0844889
0.0756077
0.0643421
0.0523722
0.0431625
0.0372582
0.0342366
0.0330066
0.0328755
0.0331289
0.0338653
0.0373791
0.0415521
0.04264
0.0423231
0.0414291
0.0372964
0.0341222
0.0343824
0.0355899
0.0390211
0.0463361
0.0568759
0.0829407
0.105626
0.123654
0.136542
0.142707
0.145925
0.144716
0.146042
0.00335568
0.00319725
0.00306487
0.00283451
0.00266131
0.00246473
0.00231357
0.00218942
0.00207923
0.00201189
0.00196059
0.00194393
0.00193195
0.00192922
0.00192487
0.0019185
0.00190072
0.00188821
0.00186793
0.00187186
0.00187281
0.0019018
0.00191616
0.0019454
0.00195555
0.00197578
0.00198418
0.00201091
0.00202523
0.00206727
0.00210055
0.00211982
0.00219286
0.00219123
0.00221915
0.00222295
0.00222246
0.00224031
0.00221884
0.00221886
0.00220964
0.00218419
0.0021765
0.00216143
0.00213081
0.00212924
0.00211695
0.00210416
0.00210639
0.00208997
0.00210719
0.00211617
0.00221069
0.00229729
0.00250342
0.00260609
0.00282922
0.0030031
0.00312092
0.00345861
0.00353077
0.00404869
0.00437449
0.0056773
0.00603891
0.00731744
0.0074826
0.00838598
0.00819622
0.00900946
0.0086883
0.00957549
0.00920021
0.0102855
0.00988133
0.0110758
0.01039
0.0112304
0.0101278
0.0104187
0.00911606
0.00904676
0.00758372
0.00720561
0.00557857
0.00534854
0.00461387
0.00482947
0.00445068
0.00503436
0.00483549
0.0058245
0.00580167
0.00728345
0.00734542
0.00935917
0.00949807
0.012079
0.0124853
0.0160105
0.0168619
0.0212199
0.0221978
0.0268474
0.0273264
0.0309518
0.03028
0.0324754
0.0309496
0.031617
0.0292527
0.0289501
0.0256777
0.0245827
0.0204247
0.0189557
0.0147765
0.0134149
0.0101639
0.00923369
0.0070542
0.00651611
0.00527852
0.00511548
0.00471838
0.00488212
0.00488271
0.00528751
0.00544704
0.00619929
0.00621982
0.00659702
0.00641563
0.0066199
0.0064431
0.00686731
0.00680708
0.00763726
0.00778297
0.00926106
0.00926982
0.0106469
0.0104433
0.0119793
0.0117658
0.013654
0.0135502
0.0158117
0.0159577
0.0187155
0.0189697
0.0213424
0.0213811
0.0229723
0.0228958
0.0241626
0.0245545
0.027092
0.0293765
0.0359929
0.0417773
0.0507921
0.055566
0.0630646
0.0676954
0.0713993
0.0717386
0.0712596
0.0694666
0.0669288
0.0587261
0.0479979
0.0392446
0.0337387
0.03122
0.0305485
0.0304609
0.030604
0.0315091
0.0316039
0.0311895
0.0306926
0.0301831
0.0291128
0.0289459
0.0292699
0.0302855
0.0328298
0.0377843
0.0483387
0.0725061
0.113154
0.140178
0.152956
0.156059
0.159861
0.160198
0.162761
0.163313
0.163524
0.000358087
0.000354708
0.000353956
0.000346485
0.000339807
0.000323352
0.000317098
0.000303543
0.00030059
0.000292969
0.000290727
0.00028317
0.000279602
0.000272878
0.000269085
0.00026183
0.000257292
0.000250191
0.000245005
0.000241303
0.000237297
0.00023632
0.000235058
0.000235108
0.000235115
0.000234837
0.000235129
0.000235309
0.000236219
0.000241091
0.000247763
0.000255188
0.000274556
0.000280314
0.000293452
0.000302221
0.000306036
0.000319073
0.000318045
0.000321687
0.000321373
0.00031957
0.000319478
0.0003177
0.000310035
0.000309073
0.000301948
0.000297633
0.000293938
0.00029121
0.000291334
0.000293786
0.000293744
0.000305717
0.00031405
0.000339373
0.000350557
0.000393248
0.000411578
0.000480315
0.000495823
0.000608944
0.000659626
0.00089687
0.000962498
0.00123335
0.00125166
0.00142654
0.00138859
0.00153931
0.00148143
0.00163126
0.00157953
0.00179401
0.00177079
0.0020636
0.00200472
0.00226339
0.00213815
0.00230266
0.00210684
0.00216679
0.00189339
0.0018993
0.00165376
0.00177758
0.00161791
0.00189312
0.00177613
0.00225129
0.00213115
0.00283156
0.00273512
0.00366205
0.00364424
0.00482123
0.00493279
0.00648087
0.00667832
0.00854189
0.00879044
0.0108397
0.0109248
0.0126485
0.0123508
0.0136298
0.0128812
0.0134326
0.0122991
0.0122276
0.0107932
0.0104119
0.00874256
0.00825644
0.00673425
0.00629256
0.00506842
0.00476907
0.00397625
0.00383592
0.00340907
0.00341056
0.00337346
0.00353255
0.0036484
0.0040441
0.00419729
0.00483137
0.00502591
0.00573937
0.00584236
0.00625382
0.00616521
0.00631382
0.00624005
0.00646215
0.00656956
0.00727759
0.00760584
0.00863944
0.00892223
0.00977794
0.0100515
0.0109107
0.011472
0.0131496
0.0139813
0.0167218
0.0174976
0.0198858
0.0203599
0.0221842
0.0222681
0.0230914
0.0230538
0.0237103
0.0237214
0.0242582
0.024586
0.0256122
0.0278495
0.0316823
0.0336448
0.0378146
0.0421984
0.0472114
0.0491035
0.0491664
0.0486379
0.0468727
0.0400648
0.0331511
0.0290225
0.0275478
0.0275841
0.028422
0.0289679
0.0291113
0.0289514
0.0281055
0.0272659
0.0268978
0.0268409
0.0270146
0.0276275
0.0293225
0.0325615
0.0393901
0.0532716
0.0990298
0.142242
0.165612
0.167682
0.167686
0.164579
0.164378
0.163649
0.164391
0.166732
0.170266
0.00018458
0.000174859
0.000171229
0.000166503
0.000166929
0.000165554
0.000166459
0.000166186
0.000165012
0.000163398
0.000163261
0.000163283
0.000163867
0.000164057
0.000164101
0.000162607
0.000159997
0.000155313
0.000153108
0.000149342
0.000147309
0.000144142
0.000141234
0.000138831
0.000136348
0.00013552
0.000134941
0.000134704
0.000134731
0.000134968
0.000135618
0.000136893
0.000140537
0.000142128
0.000145497
0.000147562
0.000150388
0.000154274
0.000155499
0.000158419
0.000160694
0.000161404
0.000163037
0.000163503
0.000163682
0.000164195
0.000163816
0.000163682
0.00016161
0.000160906
0.000158121
0.00015743
0.000156021
0.000156841
0.000157196
0.000159322
0.000162771
0.00016971
0.000178846
0.000193663
0.00020627
0.000233247
0.000251339
0.000297596
0.00031872
0.000373859
0.000389593
0.00043714
0.000441888
0.000471731
0.000474661
0.00051144
0.000516759
0.000559941
0.000564198
0.000602153
0.000597833
0.000609759
0.00061734
0.000618144
0.000635838
0.000639487
0.000653446
0.000681401
0.000695106
0.000750014
0.000766094
0.000863141
0.00087441
0.00106268
0.00106055
0.0013416
0.00130563
0.00162835
0.00156778
0.00197109
0.00192222
0.00249064
0.0024441
0.00311449
0.0030114
0.00365329
0.00344475
0.00390165
0.00357298
0.00376095
0.00337544
0.00338199
0.0030667
0.00300174
0.00273394
0.00263296
0.0024341
0.00240303
0.00235929
0.002363
0.00238194
0.00240303
0.00248576
0.00252727
0.00268271
0.0027664
0.00306099
0.00318573
0.00360238
0.00378247
0.00430392
0.00456935
0.00532749
0.00551536
0.00603082
0.00605376
0.00634099
0.00632571
0.00674415
0.0069993
0.00821324
0.00884768
0.0105937
0.011306
0.0130354
0.0138128
0.0160079
0.0172688
0.0210477
0.0229624
0.0273149
0.0296277
0.0320146
0.0328847
0.0324128
0.0317908
0.0299221
0.0288336
0.0266732
0.0259917
0.0248172
0.0247699
0.0245367
0.024559
0.0245975
0.0249239
0.0254833
0.026273
0.027673
0.0306395
0.0326371
0.0330674
0.0329802
0.0317537
0.0278985
0.0253003
0.0243016
0.0244178
0.0261328
0.0277256
0.0286202
0.0288087
0.0286326
0.0277004
0.0269738
0.026902
0.0271945
0.0283123
0.0307136
0.0344707
0.0433352
0.062156
0.124605
0.166754
0.178982
0.179341
0.174139
0.169771
0.162377
0.160372
0.159961
0.160036
0.163296
0.167815
0.000159166
0.000165869
0.000172113
0.000185709
0.000187937
0.000187041
0.000184713
0.000184691
0.000186583
0.000187496
0.000189034
0.000187156
0.000183601
0.000177195
0.000168103
0.000163508
0.000157222
0.000154493
0.000152102
0.000149753
0.000149252
0.000147642
0.000146141
0.000143891
0.000140026
0.000139192
0.000137276
0.000137684
0.000139974
0.000150958
0.000164138
0.000175347
0.000180463
0.000183061
0.00018293
0.000180925
0.000177372
0.00017573
0.000175639
0.00018002
0.000185336
0.000190187
0.000192787
0.000193698
0.000193974
0.000192246
0.000190139
0.000186559
0.000184227
0.000179509
0.000177654
0.000171392
0.000169723
0.000165322
0.000164712
0.000163427
0.000165166
0.000166105
0.000172163
0.000177519
0.000189108
0.000202095
0.000214177
0.000230378
0.000248865
0.000273896
0.000314259
0.00036708
0.000426351
0.000505566
0.0005534
0.000650257
0.000692079
0.000792941
0.000820657
0.000912007
0.000922117
0.00097586
0.00100736
0.00107195
0.00116599
0.00122347
0.0013624
0.00141376
0.00157954
0.00161509
0.00178473
0.0017835
0.00191299
0.00188996
0.00198343
0.00194286
0.00198058
0.00193117
0.00194838
0.00192437
0.00186969
0.00186224
0.00182973
0.00187495
0.00184964
0.00192257
0.00190468
0.00199517
0.00198709
0.00208417
0.00208321
0.00215588
0.00218963
0.00229398
0.00244141
0.00262805
0.00294732
0.00315865
0.00357427
0.00380709
0.00429593
0.00456307
0.00517951
0.00549331
0.00619136
0.00653427
0.00730239
0.00768556
0.00853522
0.00899651
0.0101868
0.010997
0.0122928
0.0122995
0.0126205
0.0123343
0.0127916
0.0126748
0.0138984
0.0144627
0.0172323
0.0181396
0.0208196
0.0217804
0.0246441
0.0266885
0.0330261
0.0373479
0.0492276
0.0550027
0.0665288
0.0748141
0.0793134
0.0789397
0.0756716
0.0700642
0.0612166
0.0523221
0.0440982
0.0375474
0.0322946
0.0293036
0.0268946
0.0257393
0.0250033
0.0244511
0.0241115
0.0239754
0.0240658
0.0246177
0.0256288
0.0257622
0.0259394
0.0253529
0.0239304
0.0229526
0.022874
0.0238308
0.0263219
0.028072
0.0288804
0.0289844
0.028727
0.028413
0.0285023
0.0292666
0.0316504
0.0344012
0.038791
0.0491853
0.0785106
0.143612
0.18209
0.189502
0.188612
0.181663
0.16903
0.165835
0.162699
0.16325
0.166572
0.169187
0.178593
0.182772
0.000354643
0.000379248
0.000399401
0.000420158
0.00042495
0.000436638
0.000448689
0.000471191
0.000502729
0.000521609
0.000569099
0.000583163
0.000591348
0.000591989
0.000568177
0.000557693
0.000535844
0.000530673
0.000531037
0.000530208
0.000556009
0.000566909
0.000581266
0.000582213
0.000574344
0.000574582
0.000570569
0.000587826
0.000645289
0.000735783
0.000839021
0.000895465
0.000931983
0.000939146
0.000935346
0.000911547
0.000888837
0.000880892
0.000904717
0.000975265
0.00104896
0.00109992
0.00113096
0.00113977
0.00114048
0.00109517
0.00105167
0.000982302
0.000941862
0.000884617
0.000855496
0.000793703
0.000774958
0.000726432
0.000719244
0.00070375
0.000712827
0.000707918
0.000727325
0.000719678
0.000742612
0.000723491
0.000733768
0.000701413
0.000699175
0.000683967
0.000697718
0.000708221
0.000760312
0.000807701
0.000918631
0.0010081
0.00112863
0.00123756
0.0013555
0.00148338
0.00163566
0.00180281
0.00203002
0.00224377
0.00260377
0.00287633
0.00341964
0.00373133
0.00438239
0.00466475
0.00527765
0.00546633
0.00592355
0.00601355
0.00631044
0.00629411
0.00635418
0.00627229
0.00620644
0.00602355
0.00562112
0.00543886
0.00500995
0.00505217
0.00485202
0.00509027
0.00497847
0.0053914
0.00538521
0.00590697
0.0060067
0.00665109
0.00677791
0.00741145
0.007547
0.00813148
0.00831148
0.00899342
0.00930798
0.0102183
0.0107433
0.0116776
0.013075
0.0139481
0.0155541
0.0164783
0.0183914
0.0200613
0.0211284
0.0228969
0.023651
0.024824
0.0247103
0.0246751
0.0239963
0.0237788
0.0239163
0.0240785
0.0259792
0.0269219
0.0298272
0.0305047
0.0334242
0.0361802
0.0453137
0.0529555
0.0761458
0.090106
0.126212
0.140995
0.174133
0.190748
0.198684
0.196598
0.188482
0.173257
0.151816
0.121366
0.0988402
0.0756324
0.0594176
0.0469029
0.0380336
0.03253
0.0288055
0.026637
0.0252408
0.0245427
0.024332
0.0243471
0.0244478
0.0243213
0.0242379
0.0235341
0.0232465
0.0230164
0.0235647
0.0258242
0.0282362
0.0291
0.0295523
0.0298449
0.0302275
0.0309083
0.0327405
0.0366876
0.040217
0.0469256
0.0596266
0.0933671
0.162112
0.190146
0.198193
0.194422
0.187286
0.174872
0.170483
0.171946
0.174229
0.182766
0.19106
0.194011
0.19983
0.202007
0.00351013
0.00356708
0.00363191
0.00372619
0.00386451
0.00405625
0.00415777
0.00433675
0.00453201
0.00465205
0.00489591
0.00493865
0.00498384
0.0049822
0.00494182
0.00493956
0.00492555
0.00497299
0.00509683
0.00520998
0.00538855
0.00546592
0.00554688
0.00556225
0.0055437
0.00554296
0.00559548
0.0059373
0.00624661
0.00663169
0.0069328
0.00711763
0.00721275
0.00721141
0.00717292
0.0070626
0.00702268
0.00705434
0.00727088
0.00750624
0.00767114
0.00777328
0.00781763
0.00780851
0.00774045
0.00735861
0.00713081
0.00671361
0.00646493
0.00615036
0.0059154
0.00564612
0.00554239
0.00536551
0.00536414
0.00530268
0.0053427
0.0052838
0.00533692
0.00526458
0.00530278
0.00518232
0.00513384
0.00483242
0.0046976
0.00444879
0.00443704
0.00441501
0.00447226
0.00455554
0.00482576
0.0049974
0.00539236
0.0055858
0.00599648
0.00620247
0.00663681
0.00690669
0.00747278
0.00785835
0.00862761
0.00914715
0.010162
0.0107016
0.011774
0.0122622
0.0129251
0.0133452
0.0135723
0.0135683
0.0134366
0.0132861
0.0127703
0.0124653
0.0116786
0.0113109
0.0103748
0.0100219
0.00915399
0.00896383
0.00842573
0.00855205
0.00839547
0.008735
0.00871492
0.00914137
0.00924693
0.0099406
0.0102311
0.0113796
0.0119459
0.0137979
0.0147807
0.0175757
0.0190596
0.0229412
0.0249139
0.0297691
0.0320807
0.037223
0.0393945
0.0436234
0.0459958
0.0491895
0.0493429
0.049563
0.0484268
0.0477488
0.0452994
0.0446411
0.0423345
0.0423419
0.0421981
0.0431572
0.0437715
0.0454585
0.0487261