/*--------------------------------*- C++ -*----------------------------------*\
| =========                 |                                                 |
| \\      /  F ield         | OpenFOAM: The Open Source CFD Toolbox           |
|  \\    /   O peration     | Version:  2.4.0                                 |
|   \\  /    A nd           | Web:      www.OpenFOAM.org                      |
|    \\/     M anipulation  |                                                 |
\*---------------------------------------------------------------------------*/
FoamFile
{
    version     2.0;
    format      ascii;
    class       volScalarField;
    location    "1.01";
    object      nuSgs;
}
// * * * * * * * * * * * * * * * * * * * * * * * * * * * * * * * * * * * * * //

dimensions      [0 2 -1 0 0 0 0];

internalField   nonuniform List<scalar> 
8800
(
0.00133971
0.00150571
0.00139317
0.00122764
0.00112366
0.00104654
0.00100187
0.000955829
0.000929944
0.000899574
0.000885505
0.000861901
0.00085408
0.000835565
0.000829211
0.000811844
0.000804676
0.000787599
0.00078168
0.000750421
0.000558065
0.000980526
0.00108352
0.00108024
0.00106487
0.00102949
0.00100754
0.00097273
0.000953348
0.000926483
0.000912929
0.000888895
0.000881874
0.000864191
0.000858071
0.000842797
0.0008381
0.000824706
0.000816645
0.000810352
0.000136893
0.000402312
0.00058881
0.000651327
0.000710612
0.000733511
0.000754461
0.000758522
0.000762123
0.000758005
0.000755684
0.000748004
0.000746084
0.000738351
0.000737095
0.000730801
0.000729656
0.000723144
0.000719912
0.00071373
2.72859e-05
0.00012449
0.000244484
0.000296876
0.00035776
0.000396976
0.000428223
0.000452424
0.000480986
0.000491658
0.000505849
0.000515521
0.00052686
0.000532063
0.000543173
0.000550784
0.000557438
0.000562887
0.000566398
0.000567868
5.22956e-06
3.32474e-05
7.99824e-05
0.000104012
0.00013065
0.000169831
0.000188846
0.000210872
0.000237354
0.000254587
0.00026377
0.000282374
0.000289616
0.000304075
0.00031263
0.000333232
0.00034149
0.000360146
0.000365525
0.000379752
2.35766e-06
8.33324e-06
2.23629e-05
3.00495e-05
3.6845e-05
5.24646e-05
6.19854e-05
7.59362e-05
9.05487e-05
0.000102352
0.000107969
0.000120778
0.000125285
0.000133944
0.000139682
0.000153253
0.000161521
0.000177603
0.000185593
0.000196593
2.17924e-06
3.05867e-06
6.59771e-06
8.67721e-06
9.73425e-06
1.29456e-05
1.58013e-05
2.01402e-05
2.77072e-05
3.13e-05
3.47415e-05
4.06626e-05
4.13752e-05
4.27718e-05
4.48725e-05
5.22941e-05
5.72933e-05
6.75193e-05
7.29803e-05
7.91158e-05
2.15009e-06
2.52665e-06
3.45427e-06
4.66055e-06
4.81614e-06
4.93903e-06
5.1743e-06
5.70978e-06
6.96191e-06
8.06335e-06
1.07401e-05
1.24245e-05
1.23734e-05
1.19378e-05
1.21773e-05
1.28976e-05
1.57389e-05
1.87694e-05
2.59345e-05
2.78943e-05
2.14027e-06
2.6245e-06
2.91283e-06
3.46186e-06
3.94752e-06
4.27489e-06
4.28838e-06
4.31999e-06
4.36025e-06
4.30202e-06
4.41182e-06
5.3932e-06
6.04565e-06
6.00109e-06
5.91668e-06
5.73662e-06
5.81268e-06
6.42213e-06
8.03925e-06
8.88453e-06
2.13882e-06
2.47623e-06
3.07287e-06
3.57209e-06
3.52544e-06
3.55874e-06
3.92634e-06
4.29415e-06
4.37081e-06
4.25875e-06
4.0703e-06
4.06648e-06
4.18167e-06
4.76679e-06
4.87734e-06
4.96835e-06
4.92258e-06
5.17598e-06
5.29982e-06
6.58524e-06
2.13473e-06
2.42394e-06
3.1441e-06
3.54542e-06
3.53955e-06
3.75264e-06
4.09505e-06
4.07378e-06
4.04279e-06
4.04568e-06
4.06299e-06
4.29205e-06
4.57788e-06
4.81605e-06
4.80271e-06
4.6342e-06
4.67257e-06
4.80149e-06
4.98392e-06
5.87656e-06
2.14217e-06
2.58346e-06
2.91408e-06
3.24962e-06
4.12894e-06
4.57594e-06
4.57872e-06
4.3273e-06
4.03224e-06
4.03994e-06
4.24791e-06
5.06127e-06
5.82325e-06
5.89182e-06
5.66546e-06
5.58318e-06
5.80633e-06
5.96914e-06
6.39152e-06
7.4703e-06
2.15997e-06
2.50143e-06
3.13676e-06
5.01386e-06
5.55165e-06
5.43519e-06
5.49473e-06
5.63999e-06
5.96875e-06
8.07555e-06
9.93379e-06
1.16552e-05
1.3322e-05
1.4272e-05
1.41899e-05
1.4832e-05
1.60891e-05
1.88329e-05
2.07035e-05
2.51223e-05
2.19012e-06
3.03251e-06
5.85146e-06
1.1516e-05
1.22842e-05
1.30232e-05
1.61611e-05
1.94623e-05
2.21758e-05
3.07671e-05
3.57493e-05
4.02229e-05
4.44001e-05
4.93245e-05
5.05223e-05
5.47928e-05
5.88715e-05
6.73215e-05
7.20491e-05
8.41188e-05
2.35458e-06
8.21175e-06
2.01717e-05
3.81658e-05
4.23171e-05
4.79924e-05
6.34437e-05
7.46709e-05
8.18253e-05
0.000101849
0.000111629
0.000121706
0.00012919
0.000141461
0.000145025
0.000155621
0.000163142
0.000179099
0.000187107
0.000209262
5.21756e-06
3.29618e-05
7.49572e-05
0.000120814
0.000135448
0.00015464
0.000194573
0.000212103
0.000224481
0.000256461
0.000270146
0.000282057
0.000293712
0.00031174
0.000317043
0.000332149
0.000341479
0.000362136
0.000371288
0.000394589
2.71942e-05
0.000123469
0.000242489
0.000314107
0.000348563
0.000388681
0.000435787
0.000450908
0.000470003
0.000498136
0.000509929
0.000515571
0.000528525
0.000538892
0.000542002
0.000551094
0.000556763
0.000568926
0.000573103
0.000582718
0.000136338
0.000399065
0.000591753
0.000656087
0.000704491
0.000732712
0.000757073
0.000757071
0.000760715
0.000759505
0.000757359
0.000747976
0.000746451
0.000739961
0.000737226
0.000730653
0.000729923
0.000726243
0.000724087
0.000719272
0.0005559
0.000981178
0.00108482
0.00108016
0.00106419
0.0010297
0.00100563
0.000973131
0.000956082
0.000923635
0.00091357
0.000889836
0.000881499
0.000861431
0.000857335
0.000840405
0.000836018
0.000819817
0.000814028
0.000799148
0.00133858
0.00150653
0.0013942
0.00122543
0.00112494
0.00104692
0.000999667
0.000956298
0.000932594
0.00089659
0.000885313
0.00086077
0.000853741
0.000830115
0.000826594
0.000804825
0.00079868
0.000772232
0.000762902
0.000730533
0.000342522
0.000295683
0.000266396
0.000247629
0.000234522
0.000225768
0.000218026
0.000212128
0.000206281
0.000201705
0.000197275
0.000193821
0.00019075
0.000188331
0.000186549
0.000185104
0.000184358
0.000183657
0.000183686
0.000183707
0.00018379
0.000184008
0.000184113
0.000184465
0.00018431
0.000184034
0.000183281
0.00018306
0.000182143
0.000181926
0.000180887
0.000180371
0.00017869
0.000177907
0.000175625
0.000174514
0.000171485
0.00017001
0.000166242
0.000164428
0.000160136
0.000158426
0.000154534
0.000153407
0.000150565
0.000149935
0.000147816
0.000147601
0.000146055
0.00014594
0.00014438
0.000144002
0.00014195
0.000140826
0.000137351
0.000135401
0.000130403
0.000127564
0.000121753
0.000117525
0.000112557
0.000108228
0.000104484
0.000100586
9.87055e-05
9.64661e-05
9.62551e-05
9.5456e-05
9.51787e-05
9.44709e-05
9.58458e-05
9.74916e-05
0.000103506
0.000106247
0.000114105
0.000116529
0.000125177
0.000126655
0.000135097
0.000135928
0.000144496
0.000144004
0.000151504
0.00014906
0.000156951
0.000152783
0.000161648
0.000155667
0.00016498
0.000155711
0.000163785
0.00014974
0.000158844
0.000146517
0.000160684
0.000148747
0.000166298
0.000151395
0.000165744
0.000146091
0.000154434
0.000136786
0.00013996
0.000128057
0.000128227
0.000121222
0.000120436
0.000115692
0.000115419
0.000112989
0.000113751
0.000112161
0.000113639
0.00011183
0.000113027
0.000110889
0.000111667
0.000109412
0.000110216
0.000108062
0.000109083
0.000106899
0.000107565
0.000105035
0.000104898
0.000102052
0.000101362
9.78947e-05
9.69882e-05
9.31771e-05
9.29157e-05
9.00754e-05
8.96558e-05
8.65549e-05
8.66008e-05
8.43126e-05
8.45969e-05
8.22906e-05
8.24647e-05
7.99453e-05
8.00827e-05
7.82425e-05
8.08842e-05
8.01667e-05
8.39057e-05
8.32834e-05
8.78461e-05
8.66468e-05
9.18856e-05
9.01495e-05
9.53632e-05
9.27171e-05
0.00010034
0.000100578
0.000114292
0.000115507
0.000126894
0.000123036
0.000128415
0.000122731
0.00012399
0.000119516
0.000118965
0.000116886
0.000114126
0.00011325
0.000109974
0.000110698
0.000106962
0.000107693
0.000103607
0.000103858
9.97173e-05
9.93436e-05
9.56119e-05
9.5128e-05
9.21754e-05
9.1261e-05
8.76784e-05
8.56182e-05
8.15547e-05
7.94676e-05
7.72488e-05
7.68093e-05
7.63949e-05
7.67435e-05
7.66611e-05
7.65477e-05
7.62444e-05
7.46805e-05
7.40862e-05
7.12361e-05
7.12667e-05
6.96302e-05
7.37797e-05
7.37503e-05
8.36583e-05
9.3128e-05
0.000151134
0.00031571
0.000407699
0.000368252
0.000336407
0.000312979
0.000294214
0.000280534
0.000268642
0.00025986
0.000251366
0.000245086
0.000238596
0.00023382
0.000228759
0.000225104
0.000221033
0.000218196
0.000214894
0.00021265
0.000209955
0.000208425
0.000206467
0.000205601
0.000203998
0.000203307
0.00020184
0.000201161
0.000199618
0.000199042
0.000197651
0.000197178
0.000195937
0.000195503
0.00019427
0.00019385
0.000192622
0.000192164
0.000190831
0.00019027
0.000188736
0.000188079
0.000186333
0.0001856
0.000183714
0.000183012
0.000181232
0.000180656
0.000179117
0.000178637
0.000177292
0.000176846
0.000175684
0.000175228
0.000174144
0.000173541
0.000172355
0.000170972
0.000170025
0.000167859
0.000166452
0.000163305
0.000161675
0.000157799
0.000156073
0.00015147
0.000149682
0.000145064
0.000143536
0.000139111
0.000137944
0.000133615
0.000133236
0.000130311
0.000132038
0.000129965
0.000134238
0.000133135
0.000139752
0.000139032
0.000146459
0.000144851
0.000152353
0.000149372
0.000156435
0.000152051
0.000159574
0.000154384
0.000163185
0.000157524
0.000167924
0.00016172
0.000172599
0.000164809
0.00017432
0.000163572
0.000170065
0.000159202
0.000163471
0.000155018
0.000157413
0.00015177
0.000151018
0.000147911
0.000143002
0.00014063
0.000134935
0.000133359
0.000128649
0.000127407
0.000123943
0.000122823
0.000120436
0.000118898
0.000117819
0.000114973
0.000114292
0.000112299
0.000111771
0.00010936
0.000109351
0.000108099
0.000108149
0.000106691
0.000105294
0.000102546
9.79051e-05
9.507e-05
8.84454e-05
8.59565e-05
8.01613e-05
7.78849e-05
7.46405e-05
7.40459e-05
7.20574e-05
7.21858e-05
7.20702e-05
7.26933e-05
7.26099e-05
7.28819e-05
7.3137e-05
7.3257e-05
7.44867e-05
7.41899e-05
7.76582e-05
7.75284e-05
8.42966e-05
8.47851e-05
9.53303e-05
9.47441e-05
0.000106737
0.000103513
0.000113589
0.00010811
0.000114348
0.000109313
0.000114817
0.000113359
0.000118379
0.000118899
0.000121427
0.000121181
0.000119424
0.000118637
0.000114909
0.00011434
0.000110315
0.000109412
0.000104892
0.000103432
9.8961e-05
9.78282e-05
9.39802e-05
9.3018e-05
8.94866e-05
8.88612e-05
8.59766e-05
8.56638e-05
8.37893e-05
8.34193e-05
8.1146e-05
7.9244e-05
7.79833e-05
7.62462e-05
7.60402e-05
7.56763e-05
7.58041e-05
7.63343e-05
7.60102e-05
7.62251e-05
7.43314e-05
7.37575e-05
6.9297e-05
6.85494e-05
6.40822e-05
6.47874e-05
6.4058e-05
6.66948e-05
6.88487e-05
7.67821e-05
9.14115e-05
0.000175853
0.000369392
0.000345946
0.00032404
0.000307322
0.000292291
0.000281225
0.000270149
0.000262099
0.000253435
0.000247172
0.000240167
0.0002352
0.000229528
0.000225599
0.000221077
0.000217634
0.000214086
0.000210968
0.000208229
0.000205505
0.000203543
0.000201202
0.000199853
0.000197564
0.000196611
0.000194526
0.000193631
0.000191846
0.000191118
0.000189654
0.000188965
0.000187888
0.000187252
0.000186296
0.000185533
0.000184925
0.00018391
0.000183532
0.000182514
0.000182069
0.000181102
0.000180639
0.00017951
0.000178958
0.000177779
0.00017724
0.000176116
0.000175654
0.000174774
0.000174522
0.000173903
0.000173714
0.000173248
0.000173076
0.000172481
0.000172279
0.00017167
0.000171438
0.000170894
0.000170517
0.000170233
0.000169505
0.000169463
0.000168334
0.000168389
0.000167068
0.000167329
0.000165366
0.000165966
0.000162851
0.000163558
0.000159473
0.00016079
0.000156092
0.000158594
0.000153932
0.000157703
0.000153339
0.000157636
0.000153291
0.00015711
0.000152551
0.000155346
0.00015048
0.000151944
0.000146884
0.000147237
0.000142937
0.000143511
0.000141529
0.000143651
0.000145007
0.000149421
0.000152734
0.000154697
0.000155921
0.000154438
0.00015458
0.000150199
0.000149705
0.000143546
0.000143243
0.00013742
0.000137367
0.000132103
0.000132166
0.000127531
0.000127458
0.000123635
0.000123438
0.000120309
0.000120165
0.000117616
0.000117594
0.000115657
0.000115818
0.000114388
0.000114383
0.000113017
0.000112943
0.000110323
0.00010944
0.000104552
0.000102574
9.40178e-05
9.06256e-05
7.97867e-05
7.64508e-05
6.67572e-05
6.4382e-05
5.77836e-05
5.63173e-05
5.23198e-05
5.20387e-05
5.00503e-05
5.03341e-05
4.86547e-05
4.94258e-05
4.79278e-05
4.92053e-05
4.80752e-05
4.95926e-05
4.92282e-05
5.0646e-05
5.17717e-05
5.41752e-05
5.82675e-05
6.3239e-05
7.34291e-05
8.01215e-05
9.42078e-05
9.83448e-05
0.000106177
0.00010707
0.000108934
0.000111268
0.000111276
0.000112609
0.000111704
0.000113529
0.000111986
0.000112778
0.000110879
0.000110337
0.000107623
0.000106325
0.000102315
0.000100513
9.59411e-05
9.43121e-05
8.99931e-05
8.86363e-05
8.47153e-05
8.38559e-05
8.09366e-05
8.06998e-05
7.89438e-05
7.92204e-05
7.79767e-05
7.8468e-05
7.76352e-05
7.85726e-05
7.77962e-05
7.93608e-05
7.8063e-05
7.89963e-05
7.64702e-05
7.57884e-05
7.15417e-05
6.97934e-05
6.3932e-05
6.23284e-05
5.91383e-05
5.95392e-05
5.96111e-05
6.28009e-05
6.41709e-05
7.20295e-05
7.4435e-05
0.000105383
0.00029977
0.000286473
0.000271576
0.00026129
0.000250492
0.000243493
0.000235054
0.000229663
0.000222549
0.000217977
0.000211821
0.000207877
0.000202627
0.000199064
0.000194877
0.0001913
0.000188059
0.000184532
0.000182104
0.000178702
0.000176995
0.000173975
0.00017275
0.000170264
0.000169233
0.000167045
0.000166061
0.000164266
0.000163049
0.000161857
0.000160346
0.000159814
0.000158515
0.00015807
0.000157076
0.000156851
0.000155937
0.000155651
0.000154725
0.000154461
0.00015358
0.000153234
0.000152366
0.000152097
0.000151318
0.000151052
0.000150156
0.0001499
0.00014895
0.000148742
0.000147981
0.000148082
0.000147856
0.000148335
0.00014828
0.000148906
0.000149103
0.000149742
0.000150228
0.000150404
0.000151332
0.00015134
0.000152419
0.000152437
0.000154457
0.000154394
0.000156991
0.000156814
0.000159781
0.000158764
0.000161506
0.000159345
0.000161722
0.000158657
0.000160501
0.000156995
0.000157877
0.000154684
0.000154293
0.000151877
0.000149737
0.000147514
0.000140846
0.000139316
0.000131839
0.000129489
0.000120981
0.000120525
0.000113445
0.000114483
0.000109996
0.000114079
0.00011199
0.000119586
0.000119717
0.000130021
0.000130532
0.000139459
0.000137675
0.000141966
0.000138155
0.00014041
0.0001357
0.000137177
0.000132419
0.000133367
0.000129026
0.00012952
0.000125783
0.000126503
0.000123091
0.000124334
0.000121224
0.000122934
0.000119969
0.000121653
0.000118553
0.00011942
0.000115399
0.000115485
0.000110281
0.000108723
9.97418e-05
9.68982e-05
8.38381e-05
7.96503e-05
6.53924e-05
6.20006e-05
5.0913e-05
4.97086e-05
4.50539e-05
4.47899e-05
4.08332e-05
4.03697e-05
3.74477e-05
3.75333e-05
3.55382e-05
3.6033e-05
3.46463e-05
3.55861e-05
3.4663e-05
3.58987e-05
3.52111e-05
3.67394e-05
3.65316e-05
3.83381e-05
3.86703e-05
4.18626e-05
4.29924e-05
4.92323e-05
5.29914e-05
6.59236e-05
7.15587e-05
8.61763e-05
8.94314e-05
9.93316e-05
0.000100804
0.000105831
0.000105537
0.000106861
0.000105316
0.000105741
0.000103931
0.000103832
0.000101943
0.000101317
9.82699e-05
9.69718e-05
9.27993e-05
9.09628e-05
8.60583e-05
8.40626e-05
7.92243e-05
7.7788e-05
7.40502e-05
7.34839e-05
7.15613e-05
7.20728e-05
7.09913e-05
7.22716e-05
7.16195e-05
7.3096e-05
7.18016e-05
7.26404e-05
7.06911e-05
7.03801e-05
6.74091e-05
6.62083e-05
6.38186e-05
6.1026e-05
5.85294e-05
5.73575e-05
5.81831e-05
5.91955e-05
6.46017e-05
6.75192e-05
7.16926e-05
8.11612e-05
8.16477e-05
8.97615e-05
0.000202872
0.000196718
0.000187082
0.000181499
0.000174313
0.000170958
0.000165955
0.000163875
0.000159839
0.00015803
0.000154274
0.000152475
0.000148681
0.000146848
0.000143183
0.000141369
0.000137966
0.000136444
0.000133328
0.000131975
0.000129239
0.00012801
0.000125795
0.000124725
0.000122943
0.000122285
0.000120804
0.000120285
0.000118935
0.000118414
0.000117019
0.000116406
0.000114969
0.000114451
0.000113282
0.000112974
0.000112094
0.000111895
0.000111144
0.000110877
0.000110128
0.000109759
0.000108919
0.000108608
0.000107883
0.000107709
0.000107169
0.000107082
0.00010678
0.000106681
0.000106541
0.000106369
0.000106384
0.00010644
0.000106648
0.000106808
0.000107491
0.000107708
0.000108844
0.000109262
0.000110678
0.000111329
0.000112822
0.000113701
0.000114712
0.00011672
0.000117711
0.000120544
0.000121818
0.000126549
0.000127842
0.000132854
0.000133404
0.000136926
0.000135281
0.000137321
0.000133571
0.000134596
0.000129181
0.000129323
0.000122066
0.000120818
0.000111519
0.000109724
9.96521e-05
9.79496e-05
8.82926e-05
8.7394e-05
8.03356e-05
8.14089e-05
7.69644e-05
7.97989e-05
7.74613e-05
8.27461e-05
8.23424e-05
9.01693e-05
9.07865e-05
0.000101846
0.000103447
0.000115898
0.000116996
0.000126226
0.000124789
0.000129382
0.000126831
0.000129137
0.000126217
0.000127662
0.000124701
0.000125906
0.000122882
0.000123866
0.000120662
0.000121338
0.000117613
0.000117636
0.00011333
0.000112245
0.000105054
0.000102419
9.11811e-05
8.64865e-05
7.12581e-05
6.63764e-05
5.2818e-05
4.93342e-05
3.99585e-05
3.77204e-05
3.1548e-05
3.03389e-05
2.7946e-05
2.81924e-05
2.70518e-05
2.73678e-05
2.64027e-05
2.68652e-05
2.60971e-05
2.67298e-05
2.61798e-05
2.71994e-05
2.67767e-05
2.81399e-05
2.80092e-05
2.96429e-05
2.97624e-05
3.13681e-05
3.17017e-05
3.36336e-05
3.42238e-05
3.69362e-05
3.85557e-05
4.44589e-05
4.81451e-05
5.84141e-05
6.291e-05
7.45014e-05
7.85883e-05
8.89119e-05
9.13506e-05
9.74438e-05
9.77818e-05
9.91077e-05
9.80141e-05
9.80853e-05
9.67552e-05
9.63897e-05
9.42314e-05
9.31442e-05
8.97396e-05
8.7861e-05
8.31339e-05
8.08132e-05
7.53578e-05
7.29913e-05
6.75078e-05
6.56173e-05
6.08341e-05
6.02125e-05
5.86922e-05
5.93749e-05
5.89695e-05
6.03513e-05
6.06873e-05
6.21092e-05
6.23759e-05
6.22965e-05
6.25266e-05
6.22466e-05
5.94581e-05
5.85332e-05
5.6645e-05
6.02969e-05
6.12865e-05
6.96489e-05
7.2047e-05
8.23723e-05
8.42864e-05
9.50475e-05
9.6024e-05
9.86177e-05
0.000106274
0.000104038
0.000101154
9.75623e-05
9.51143e-05
9.2452e-05
9.11687e-05
8.9486e-05
8.88308e-05
8.75951e-05
8.68939e-05
8.58915e-05
8.4788e-05
8.38193e-05
8.23412e-05
8.15484e-05
7.97734e-05
7.90301e-05
7.73954e-05
7.67528e-05
7.52451e-05
7.46505e-05
7.33983e-05
7.29271e-05
7.18994e-05
7.1581e-05
7.0864e-05
7.06886e-05
7.02199e-05
7.00624e-05
6.96206e-05
6.91118e-05
6.88158e-05
6.78748e-05
6.74989e-05
6.70421e-05
6.6513e-05
6.63447e-05
6.59342e-05
6.56788e-05
6.54631e-05
6.48346e-05
6.45736e-05
6.39216e-05
6.34854e-05
6.30425e-05
6.26735e-05
6.2404e-05
6.23713e-05
6.22147e-05
6.23901e-05
6.23845e-05
6.26595e-05
6.28153e-05
6.31504e-05
6.33354e-05
6.36303e-05
6.41107e-05
6.42799e-05
6.54272e-05
6.57883e-05
6.78209e-05
6.81634e-05
7.10602e-05
7.12331e-05
7.37554e-05
7.34522e-05
7.65722e-05
7.61446e-05
8.0267e-05
7.98771e-05
8.50147e-05
8.43863e-05
8.95007e-05
8.75949e-05
9.16462e-05
8.80547e-05
9.03967e-05
8.53119e-05
8.59048e-05
8.02117e-05
7.965e-05
7.31723e-05
7.164e-05
6.42945e-05
6.28894e-05
5.64405e-05
5.6092e-05
5.24828e-05
5.37999e-05
5.16814e-05
5.4258e-05
5.32102e-05
5.70514e-05
5.68345e-05
6.21025e-05
6.25088e-05
7.01367e-05
7.14042e-05
8.0847e-05
8.24453e-05
9.17697e-05
9.30563e-05
0.000101268
0.000101768
0.00010704
0.000106131
0.000109761
0.000107722
0.000110156
0.000107274
0.000107923
0.00010434
0.000104048
9.87828e-05
9.71039e-05
8.89697e-05
8.5778e-05
7.46278e-05
7.04559e-05
5.82304e-05
5.42623e-05
4.37504e-05
4.08819e-05
3.3638e-05
3.1991e-05
2.78591e-05
2.69208e-05
2.44088e-05
2.35717e-05
2.24661e-05
2.24495e-05
2.22091e-05
2.24317e-05
2.2314e-05
2.27386e-05
2.26471e-05
2.34505e-05
2.34689e-05
2.45605e-05
2.46676e-05
2.62923e-05
2.64045e-05
2.87127e-05
2.86459e-05
3.15039e-05
3.14048e-05
3.46119e-05
3.44407e-05
3.75671e-05
3.74013e-05
4.01019e-05
4.05811e-05
4.44941e-05
4.68951e-05
5.45523e-05
5.88769e-05
6.92342e-05
7.3366e-05
8.19907e-05
8.42189e-05
8.83225e-05
8.94365e-05
9.03003e-05
8.98052e-05
8.95239e-05
8.81751e-05
8.71403e-05
8.44514e-05
8.25477e-05
7.80706e-05
7.52935e-05
6.90851e-05
6.38079e-05
5.74697e-05
5.39207e-05
5.09248e-05
5.00672e-05
4.94471e-05
4.95908e-05
5.11433e-05
5.30356e-05
5.61041e-05
5.72898e-05
5.92568e-05
5.91188e-05
5.81477e-05
5.5285e-05
5.16347e-05
5.31461e-05
5.36162e-05
5.88456e-05
6.09262e-05
6.97172e-05
7.25215e-05
8.10265e-05
8.26946e-05
8.98766e-05
9.1559e-05
9.66851e-05
4.28854e-05
4.2271e-05
4.1319e-05
4.01113e-05
3.92237e-05
3.81501e-05
3.76709e-05
3.70304e-05
3.68791e-05
3.65693e-05
3.65213e-05
3.63891e-05
3.63442e-05
3.61612e-05
3.60279e-05
3.57053e-05
3.53967e-05
3.50783e-05
3.45619e-05
3.44023e-05
3.40682e-05
3.39802e-05
3.3735e-05
3.36957e-05
3.35201e-05
3.34669e-05
3.32252e-05
3.32011e-05
3.31437e-05
3.31761e-05
3.32118e-05
3.31678e-05
3.323e-05
3.31014e-05
3.30637e-05
3.28647e-05
3.27502e-05
3.27061e-05
3.25061e-05
3.23668e-05
3.23153e-05
3.20838e-05
3.19437e-05
3.1684e-05
3.14584e-05
3.1362e-05
3.1204e-05
3.11313e-05
3.11473e-05
3.11016e-05
3.12231e-05
3.12766e-05
3.16504e-05
3.1904e-05
3.23084e-05
3.27647e-05
3.29766e-05
3.35864e-05
3.37193e-05
3.45665e-05
3.45795e-05
3.61219e-05
3.65055e-05
3.92139e-05
3.97591e-05
4.2655e-05
4.27749e-05
4.51082e-05
4.48603e-05
4.7441e-05
4.70257e-05
5e-05
4.93546e-05
5.24428e-05
5.12161e-05
5.37566e-05
5.16368e-05
5.3071e-05
5.01173e-05
5.03739e-05
4.71784e-05
4.66966e-05
4.29342e-05
4.18626e-05
3.73089e-05
3.63237e-05
3.25145e-05
3.25798e-05
3.07972e-05
3.19689e-05
3.1001e-05
3.32349e-05
3.28969e-05
3.61123e-05
3.60798e-05
4.01448e-05
4.03491e-05
4.53745e-05
4.61362e-05
5.2226e-05
5.34522e-05
5.97643e-05
6.08139e-05
6.65703e-05
6.70541e-05
7.15429e-05
7.11785e-05
7.40043e-05
7.26234e-05
7.41507e-05
7.15831e-05
7.17192e-05
6.84172e-05
6.77047e-05
6.25741e-05
6.0847e-05
5.41767e-05
5.16778e-05
4.4482e-05
4.19595e-05
3.5389e-05
3.32906e-05
2.7913e-05
2.65208e-05
2.32105e-05
2.26392e-05
2.13246e-05
2.12552e-05
2.09447e-05
2.11015e-05
2.09464e-05
2.11255e-05
2.09662e-05
2.12752e-05
2.11319e-05
2.17236e-05
2.16762e-05
2.27123e-05
2.28706e-05
2.45893e-05
2.47365e-05
2.68126e-05
2.66907e-05
2.9166e-05
2.8771e-05
3.16894e-05
3.12662e-05
3.45082e-05
3.42834e-05
3.7438e-05
3.72934e-05
3.99381e-05
3.97793e-05
4.17951e-05
4.18926e-05
4.43243e-05
4.60025e-05
5.17712e-05
5.53293e-05
6.33483e-05
6.80108e-05
7.3432e-05
7.64631e-05
7.93964e-05
8.02325e-05
8.02437e-05
7.99099e-05
7.89205e-05
7.75528e-05
7.56799e-05
7.21752e-05
6.71668e-05
6.08058e-05
5.49512e-05
5.05203e-05
4.79441e-05
4.67037e-05
4.6426e-05
4.65215e-05
4.68025e-05
4.84126e-05
5.13689e-05
5.24715e-05
5.23805e-05
5.20142e-05
5.00024e-05
4.74795e-05
4.74633e-05
4.80781e-05
5.02053e-05
5.39818e-05
5.95942e-05
7.07234e-05
8.10783e-05
8.85006e-05
9.36307e-05
9.60826e-05
9.76449e-05
9.74152e-05
9.80047e-05
1.50474e-05
1.46906e-05
1.43994e-05
1.3859e-05
1.34311e-05
1.29282e-05
1.25118e-05
1.2167e-05
1.18345e-05
1.16213e-05
1.14405e-05
1.13718e-05
1.13222e-05
1.13087e-05
1.12935e-05
1.12769e-05
1.1228e-05
1.11937e-05
1.1115e-05
1.11193e-05
1.11103e-05
1.11768e-05
1.12215e-05
1.13184e-05
1.1353e-05
1.14217e-05
1.14452e-05
1.15198e-05
1.15597e-05
1.16637e-05
1.17797e-05
1.18218e-05
1.20421e-05
1.20606e-05
1.21378e-05
1.21753e-05
1.21717e-05
1.22277e-05
1.21809e-05
1.218e-05
1.21651e-05
1.20927e-05
1.20638e-05
1.20372e-05
1.19375e-05
1.19271e-05
1.19009e-05
1.18507e-05
1.18623e-05
1.18126e-05
1.18555e-05
1.18622e-05
1.2049e-05
1.22593e-05
1.27943e-05
1.30698e-05
1.35978e-05
1.40959e-05
1.43172e-05
1.51358e-05
1.53055e-05
1.6242e-05
1.67397e-05
1.90284e-05
1.97193e-05
2.18756e-05
2.21923e-05
2.36968e-05
2.34661e-05
2.46473e-05
2.42179e-05
2.54637e-05
2.49126e-05
2.63644e-05
2.57443e-05
2.72987e-05
2.64157e-05
2.75322e-05
2.61916e-05
2.66077e-05
2.4953e-05
2.48738e-05
2.2957e-05
2.24351e-05
1.98582e-05
1.93202e-05
1.76767e-05
1.80141e-05
1.72476e-05
1.82606e-05
1.78665e-05
1.95496e-05
1.94873e-05
2.18394e-05
2.19211e-05
2.47773e-05
2.4954e-05
2.81306e-05
2.85657e-05
3.22749e-05
3.31348e-05
3.72156e-05
3.81249e-05
4.20732e-05
4.25251e-05
4.54411e-05
4.50559e-05
4.66652e-05
4.56625e-05
4.62299e-05
4.45291e-05
4.4368e-05
4.19006e-05
4.10662e-05
3.75457e-05
3.62361e-05
3.20923e-05
3.05784e-05
2.6595e-05
2.53176e-05
2.20797e-05
2.11855e-05
1.89578e-05
1.86188e-05
1.77328e-05
1.79914e-05
1.79525e-05
1.8581e-05
1.88431e-05
2.01462e-05
2.0294e-05
2.09937e-05
2.07299e-05
2.10632e-05
2.07527e-05
2.13776e-05
2.12364e-05
2.23925e-05
2.25716e-05
2.46853e-05
2.47679e-05
2.66072e-05
2.63567e-05
2.82726e-05
2.79809e-05
3.01755e-05
3.00434e-05
3.2411e-05
3.25312e-05
3.52266e-05
3.54845e-05
3.77627e-05
3.77912e-05
3.92053e-05
3.91063e-05
4.01493e-05
4.03647e-05
4.21822e-05
4.38093e-05
4.82009e-05
5.18759e-05
5.76581e-05
6.03999e-05
6.44259e-05
6.6798e-05
6.88687e-05
6.92132e-05
6.90656e-05
6.83165e-05
6.72318e-05
6.42234e-05
5.84156e-05
5.26022e-05
4.82212e-05
4.57566e-05
4.49166e-05
4.47568e-05
4.47518e-05
4.52917e-05
4.54507e-05
4.52481e-05
4.48246e-05
4.45394e-05
4.37811e-05
4.3577e-05
4.37666e-05
4.43872e-05
4.60032e-05
4.88682e-05
5.49198e-05
6.48633e-05
8.28037e-05
9.41929e-05
9.9426e-05
0.000100846
0.00010223
0.000102384
0.000103174
0.000103427
0.000103617
4.88142e-06
4.86278e-06
4.86245e-06
4.82041e-06
4.77746e-06
4.66119e-06
4.6149e-06
4.50834e-06
4.48071e-06
4.42186e-06
4.40664e-06
4.35076e-06
4.32533e-06
4.26724e-06
4.24171e-06
4.18216e-06
4.14717e-06
4.09011e-06
4.04192e-06
4.01037e-06
3.97275e-06
3.96153e-06
3.94888e-06
3.94712e-06
3.94825e-06
3.94546e-06
3.94855e-06
3.94907e-06
3.95391e-06
3.97954e-06
4.03361e-06
4.07852e-06
4.23411e-06
4.28682e-06
4.38499e-06
4.46846e-06
4.49187e-06
4.59702e-06
4.59963e-06
4.62732e-06
4.63155e-06
4.62003e-06
4.6197e-06
4.61573e-06
4.5616e-06
4.55108e-06
4.50879e-06
4.47098e-06
4.44236e-06
4.41287e-06
4.40984e-06
4.42753e-06
4.42448e-06
4.49463e-06
4.54586e-06
4.7292e-06
4.80263e-06
5.0665e-06
5.16043e-06
5.59323e-06
5.67792e-06
6.23391e-06
6.45447e-06
7.51472e-06
7.80982e-06
8.94602e-06
9.07185e-06
9.77686e-06
9.66264e-06
1.02035e-05
1.00203e-05
1.05335e-05
1.03505e-05
1.10356e-05
1.09292e-05
1.18336e-05
1.16827e-05
1.24775e-05
1.21545e-05
1.26578e-05
1.21232e-05
1.23217e-05
1.15515e-05
1.15445e-05
1.07448e-05
1.1023e-05
1.04865e-05
1.12719e-05
1.09063e-05
1.22888e-05
1.19489e-05
1.37952e-05
1.35275e-05
1.56466e-05
1.55737e-05
1.78451e-05
1.80216e-05
2.06312e-05
2.09547e-05
2.37066e-05
2.4083e-05
2.682e-05
2.70221e-05
2.91476e-05
2.88774e-05
3.03805e-05
2.96262e-05
3.02805e-05
2.90463e-05
2.90093e-05
2.73243e-05
2.68625e-05
2.46204e-05
2.39171e-05
2.15809e-05
2.08553e-05
1.8709e-05
1.81117e-05
1.64805e-05
1.61504e-05
1.51693e-05
1.5136e-05
1.50076e-05
1.53259e-05
1.55576e-05
1.63804e-05
1.66766e-05
1.77823e-05
1.81412e-05
1.94173e-05
1.96415e-05
2.04312e-05
2.03075e-05
2.05632e-05
2.04332e-05
2.07471e-05
2.08487e-05
2.1825e-05
2.23038e-05
2.38147e-05
2.42384e-05
2.54397e-05
2.58046e-05
2.68283e-05
2.74363e-05
2.9279e-05
3.01004e-05
3.28328e-05
3.36454e-05
3.60134e-05
3.64687e-05
3.81979e-05
3.83785e-05
3.91809e-05
3.9148e-05
3.97018e-05
3.96954e-05
4.01094e-05
4.03276e-05
4.11041e-05
4.24919e-05
4.57214e-05
4.71946e-05
4.9843e-05
5.2439e-05
5.56925e-05
5.72091e-05
5.73936e-05
5.71564e-05
5.65033e-05
5.33772e-05
4.83711e-05
4.46304e-05
4.27979e-05
4.2568e-05
4.30152e-05
4.35697e-05
4.3777e-05
4.37514e-05
4.32824e-05
4.25648e-05
4.21722e-05
4.20664e-05
4.21498e-05
4.25085e-05
4.35416e-05
4.57322e-05
4.95085e-05
5.69649e-05
7.51947e-05
9.38031e-05
0.000103268
0.000104846
0.000105019
0.000104122
0.000103938
0.00010364
0.000103802
0.000104283
0.00010557
3.53838e-06
3.45152e-06
3.4095e-06
3.34398e-06
3.33935e-06
3.32268e-06
3.33001e-06
3.32884e-06
3.32036e-06
3.29871e-06
3.2918e-06
3.28978e-06
3.29409e-06
3.29747e-06
3.30007e-06
3.29249e-06
3.27264e-06
3.22364e-06
3.20019e-06
3.15939e-06
3.1375e-06
3.1037e-06
3.07208e-06
3.04455e-06
3.014e-06
3.00098e-06
2.9928e-06
2.98865e-06
2.9887e-06
2.98976e-06
2.99468e-06
3.00425e-06
3.04072e-06
3.05928e-06
3.09492e-06
3.11757e-06
3.14347e-06
3.18864e-06
3.20283e-06
3.2298e-06
3.25836e-06
3.26676e-06
3.28402e-06
3.29108e-06
3.29262e-06
3.29929e-06
3.29637e-06
3.298e-06
3.28197e-06
3.27779e-06
3.25126e-06
3.24638e-06
3.22658e-06
3.23557e-06
3.24003e-06
3.26468e-06
3.30247e-06
3.38009e-06
3.46989e-06
3.61261e-06
3.72096e-06
3.93778e-06
4.08411e-06
4.42312e-06
4.58698e-06
4.97497e-06
5.08813e-06
5.40663e-06
5.44447e-06
5.62609e-06
5.6336e-06
5.83382e-06
5.85586e-06
6.09393e-06
6.11192e-06
6.34016e-06
6.3373e-06
6.42284e-06
6.47808e-06
6.51237e-06
6.60155e-06
6.62078e-06
6.68639e-06
6.8006e-06
6.86391e-06
7.09266e-06
7.16982e-06
7.61756e-06
7.66176e-06
8.47867e-06
8.45871e-06
9.53787e-06
9.41663e-06
1.05131e-05
1.0312e-05
1.15359e-05
1.13793e-05
1.29479e-05
1.28447e-05
1.45379e-05
1.43395e-05
1.5847e-05
1.54363e-05
1.64732e-05
1.58062e-05
1.62372e-05
1.53958e-05
1.54034e-05
1.46358e-05
1.44686e-05
1.37588e-05
1.34862e-05
1.2883e-05
1.27573e-05
1.25973e-05
1.25961e-05
1.26364e-05
1.26854e-05
1.28919e-05
1.30048e-05
1.33872e-05
1.35868e-05
1.42875e-05
1.456e-05
1.5472e-05
1.58469e-05
1.68707e-05
1.73693e-05
1.88058e-05
1.91948e-05
2.0172e-05
2.02194e-05
2.0721e-05
2.06746e-05
2.12354e-05
2.15325e-05
2.31476e-05
2.40213e-05
2.62973e-05
2.72129e-05
2.92956e-05
3.014e-05
3.23766e-05
3.35554e-05
3.68666e-05
3.85029e-05
4.19029e-05
4.38544e-05
4.55281e-05
4.6332e-05
4.60467e-05
4.56491e-05
4.44296e-05
4.36643e-05
4.20536e-05
4.15465e-05
4.05795e-05
4.05341e-05
4.03452e-05
4.03703e-05
4.03772e-05
4.06449e-05
4.11088e-05
4.17773e-05
4.25758e-05
4.47193e-05
4.64594e-05
4.7e-05
4.69821e-05
4.65724e-05
4.40999e-05
4.15596e-05
4.02294e-05
4.0029e-05
4.09241e-05
4.2359e-05
4.32674e-05
4.35452e-05
4.35458e-05
4.30305e-05
4.23412e-05
4.21713e-05
4.23145e-05
4.29345e-05
4.45413e-05
4.6985e-05
5.18656e-05
6.03047e-05
8.47717e-05
0.000102438
0.000108057
0.000108679
0.000107369
0.000106206
0.000103774
0.000102809
0.000102544
0.000102508
0.000103084
0.000104174
3.24426e-06
3.30249e-06
3.36421e-06
3.49973e-06
3.53663e-06
3.53182e-06
3.50735e-06
3.50255e-06
3.51665e-06
3.52705e-06
3.5499e-06
3.54094e-06
3.51682e-06
3.46589e-06
3.37511e-06
3.32346e-06
3.2554e-06
3.21838e-06
3.19296e-06
3.16308e-06
3.15686e-06
3.14178e-06
3.12744e-06
3.10923e-06
3.06239e-06
3.05089e-06
3.02402e-06
3.02259e-06
3.0324e-06
3.11116e-06
3.2498e-06
3.37819e-06
3.44326e-06
3.48137e-06
3.4843e-06
3.47593e-06
3.44063e-06
3.41919e-06
3.41126e-06
3.43446e-06
3.48568e-06
3.53585e-06
3.56715e-06
3.58026e-06
3.58611e-06
3.57775e-06
3.56106e-06
3.52732e-06
3.50887e-06
3.46207e-06
3.44682e-06
3.39031e-06
3.37255e-06