/*--------------------------------*- C++ -*----------------------------------*\
| =========                 |                                                 |
| \\      /  F ield         | OpenFOAM: The Open Source CFD Toolbox           |
|  \\    /   O peration     | Version:  2.4.0                                 |
|   \\  /    A nd           | Web:      www.OpenFOAM.org                      |
|    \\/     M anipulation  |                                                 |
\*---------------------------------------------------------------------------*/
FoamFile
{
    version     2.0;
    format      ascii;
    class       volScalarField;
    location    "1.01";
    object      pMean;
}
// * * * * * * * * * * * * * * * * * * * * * * * * * * * * * * * * * * * * * //

dimensions      [0 2 -2 0 0 0 0];

internalField   nonuniform List<scalar> 
8800
(
88.3467
75.9043
68.4721
64.8934
62.9735
61.5227
60.2858
59.1193
58.06
57.0109
56.0297
55.025
54.0875
53.1265
52.2509
51.3617
50.5719
49.7858
49.0912
48.3485
85.2381
75.5505
68.6406
65.007
63.033
61.5479
60.2933
59.1196
58.058
57.0084
56.027
55.0228
54.085
53.1247
52.2487
51.3593
50.5728
49.7818
49.0942
48.313
83.2744
75.6268
69.2412
65.3822
63.1998
61.627
60.3396
59.1521
58.0819
57.0255
56.0371
55.0277
54.0863
53.1228
52.2466
51.3511
50.5726
49.7694
49.1586
48.3677
81.7401
75.6884
69.8264
65.8051
63.3828
61.7144
60.4015
59.2086
58.1301
57.0645
56.0641
55.046
54.0965
53.1274
52.2463
51.344
50.5621
49.758
49.2223
48.6135
80.4927
75.6618
70.3013
66.2108
63.5511
61.782
60.4496
59.2665
58.1855
57.1169
56.0992
55.0748
54.1087
53.1391
52.242
51.3438
50.5358
49.7477
49.1448
48.9518
79.5098
75.5652
70.6665
66.5579
63.7024
61.8264
60.4771
59.3124
58.2352
57.1675
56.1345
55.104
54.1202
53.1497
52.236
51.3413
50.5113
49.742
49.1608
49.4302
78.754
75.4506
70.9338
66.8383
63.8389
61.8542
60.4855
59.3452
58.2748
57.2094
56.1647
55.1278
54.1296
53.1556
52.2304
51.3355
50.4982
49.7501
49.2521
49.7461
78.203
75.3488
71.1167
67.0499
63.96
61.8719
60.4816
59.3667
58.3043
57.2415
56.1877
55.1457
54.1357
53.1591
52.2256
51.3339
50.4955
49.7743
49.3377
49.9727
77.8441
75.275
71.2321
67.1936
64.0457
61.8833
60.4754
59.3799
58.325
57.2648
56.2041
55.1587
54.1404
53.1631
52.2247
51.338
50.5027
49.8031
49.4115
50.1393
77.6654
75.2379
71.2891
67.2677
64.0899
61.8903
60.4711
59.3873
58.3364
57.2788
56.2136
55.1672
54.1445
53.1688
52.2288
51.3477
50.5162
49.832
49.4696
50.2485
77.6609
75.2426
71.2894
67.2698
64.0898
61.8916
60.4698
59.3889
58.3367
57.2813
56.2147
55.1709
54.1476
53.1754
52.2366
51.3608
50.5335
49.8582
49.5096
50.3076
77.8321
75.2881
71.2334
67.1993
64.0456
61.8872
60.4725
59.3846
58.3265
57.2721
56.208
55.1694
54.1499
53.1825
52.2484
51.377
50.5551
49.8819
49.5305
50.3183
78.1865
75.367
71.1184
67.0568
63.9593
61.877
60.4776
59.3732
58.3063
57.2522
56.1935
55.1623
54.1504
53.1901
52.2632
51.3977
50.5814
49.9065
49.5288
50.2732
78.7344
75.4705
70.935
66.8442
63.8359
61.8591
60.4801
59.352
58.2762
57.2218
56.1711
55.1488
54.1479
53.1967
52.2795
51.4228
50.6141
49.9378
49.5119
50.1523
79.4893
75.5852
70.6682
66.5624
63.6975
61.8303
60.4724
59.3191
58.2363
57.1809
56.1421
55.1285
54.1427
53.1998
52.2962
51.4497
50.6553
49.9795
49.5072
49.9491
80.4716
75.683
70.3035
66.2155
63.5453
61.7859
60.446
59.2742
58.1872
57.1319
56.1088
55.1037
54.1359
53.1989
52.3128
51.4744
50.7035
50.0314
49.5333
49.6831
81.7182
75.7109
69.8294
65.8115
63.3763
61.7192
60.3985
59.2181
58.1322
57.0819
56.0754
55.0793
54.1283
53.1957
52.327
51.4933
50.7505
50.0805
49.5899
49.4063
83.2522
75.649
69.2454
65.3897
63.1931
61.6321
60.337
59.1623
58.0851
57.0436
56.0507
55.0628
54.1232
53.1946
52.3375
51.5074
50.7841
50.118
49.6468
49.2618
85.215
75.5717
68.6455
65.0157
63.0266
61.5532
60.2909
59.1302
58.0616
57.027
56.0415
55.0589
54.1238
53.1982
52.3444
51.5178
50.8
50.1397
49.6437
49.1838
88.3231
75.9247
68.4769
64.9023
62.9674
61.5279
60.2836
59.13
58.0636
57.0299
56.0442
55.0615
54.1265
53.2007
52.3476
51.5213
50.8036
50.1455
49.6451
49.3028
48.3148
48.155
47.8334
47.5092
47.254
47.0707
46.9495
46.869
46.8085
46.7599
46.7169
46.6707
46.6201
46.5653
46.5047
46.4375
46.3621
46.2728
46.1717
46.0554
45.9306
45.8068
45.6911
45.5858
45.496
45.4245
45.372
45.33
45.2914
45.2453
45.1897
45.1256
45.0617
45.0059
44.9621
44.9274
44.8972
44.8604
44.8139
44.7564
44.6921
44.6231
44.5626
44.518
44.5004
44.5078
44.5443
44.6003
44.6712
44.7435
44.8067
44.8472
44.859
44.8363
44.7821
44.6947
44.5851
44.4535
44.3089
44.1417
43.9556
43.7449
43.5229
43.2936
43.075
42.8834
42.7321
42.6367
42.5992
42.614
42.6757
42.7749
42.9045
43.0548
43.2204
43.3903
43.555
43.6963
43.8043
43.8601
43.8635
43.8088
43.71
43.5652
43.4028
43.2284
43.0631
42.9218
42.8071
42.7386
42.7179
42.7589
42.8581
43.0099
43.2083
43.44
43.7006
43.9717
44.2511
44.5199
44.7802
45.0152
45.2269
45.3896
45.5279
45.6249
45.7091
45.7691
45.8336
45.8785
45.9211
45.9524
45.9779
45.9959
46.0071
46.0166
46.0231
46.0305
46.0367
46.0383
46.0398
46.0331
46.0346
46.0268
46.0373
46.0275
46.0503
46.0461
46.0835
46.1078
46.1729
46.2327
46.3236
46.416
46.5379
46.6631
46.8135
46.963
47.1303
47.2927
47.4714
47.6506
47.8447
48.0393
48.2476
48.4489
48.6618
48.8708
49.0853
49.2983
49.5109
49.7188
49.9296
50.13
50.3316
50.5261
50.7354
50.9267
51.137
51.3319
51.5476
51.7272
51.9316
52.092
52.2751
52.4048
52.5605
52.6591
52.7761
52.8421
52.9451
52.9867
53.0941
53.1315
53.274
53.3123
53.514
53.558
53.8069
53.8843
54.1531
54.2667
54.5594
54.7238
55.0416
55.2614
55.6029
55.8451
56.1992
56.4262
56.7534
56.9022
57.0864
56.9637
56.7507
55.9123
54.6138
51.3083
47.1365
26.6887
48.1247
48.0465
47.8875
47.6269
47.3531
47.1341
46.994
46.9181
46.8803
46.8544
46.828
46.7914
46.7455
46.691
46.6306
46.5621
46.4863
46.3996
46.3036
46.1963
46.0822
45.968
45.8612
45.7636
45.6799
45.6097
45.5542
45.5079
45.4673
45.4241
45.3762
45.3218
45.267
45.2152
45.1713
45.1321
45.0962
45.056
45.01
44.9545
44.8943
44.8315
44.7764
44.7342
44.7138
44.715
44.7403
44.7837
44.8394
44.8963
44.9454
44.9757
44.9822
44.9579
44.9058
44.8221
44.7154
44.5846
44.4379
44.2712
44.0874
43.8855
43.672
43.4563
43.247
43.063
42.9129
42.8104
42.7591
42.7573
42.8007
42.881
42.9926
43.1258
43.2722
43.4212
43.5617
43.6798
43.7655
43.8052
43.7989
43.7423
43.6471
43.5175
43.3694
43.2162
43.0669
42.9424
42.8408
42.7797
42.7627
42.8014
42.8939
43.0336
43.218
43.4349
43.68
43.9354
44.2009
44.4598
44.7109
44.9402
45.1436
45.3031
45.439
45.5381
45.6215
45.6809
45.7364
45.7762
45.8077
45.8285
45.8392
45.8379
45.8263
45.8097
45.7884
45.7671
45.7463
45.7196
45.7009
45.6701
45.6578
45.631
45.6322
45.6098
45.622
45.6109
45.6393
45.6564
45.7145
45.7674
45.8548
45.9428
46.0637
46.1848
46.3341
46.481
46.647
46.8066
46.9866
47.1642
47.36
47.5517
47.7625
47.9594
48.1759
48.3809
48.6002
48.8095
49.0231
49.2252
49.4379
49.6278
49.8311
50.0196
50.2351
50.422
50.6449
50.841
51.0664
51.2491
51.4613
51.6192
51.8002
51.9227
52.0687
52.1477
52.2516
52.2882
52.378
52.3762
52.4735
52.4597
52.5967
52.5827
52.7706
52.7801
52.9968
53.0512
53.2844
53.3737
53.6215
53.7553
54.0239
54.1811
54.4773
54.6269
54.9173
55.0116
55.2124
55.1442
55.1272
54.6188
54.0498
52.3586
50.5831
44.7724
38.9117
20.0586
48.093
48.0842
48.0609
47.8487
47.5199
47.2145
47.0176
46.9302
46.9155
46.9233
46.9252
46.906
46.8679
46.8135
46.7501
46.6776
46.5995
46.5135
46.4214
46.3215
46.2184
46.115
46.0184
45.9295
45.8525
45.7861
45.7318
45.6853
45.6451
45.6049
45.5635
45.5175
45.4706
45.4238
45.3811
45.3399
45.3001
45.2574
45.2118
45.1602
45.1059
45.0511
45.0023
44.9646
44.9433
44.9399
44.9549
44.9846
45.0239
45.0638
45.0974
45.1146
45.1121
45.0827
45.0281
44.9452
44.8388
44.7099
44.5627
44.3989
44.219
44.0271
43.8255
43.6246
43.4301
43.2572
43.114
43.0104
42.9505
42.9353
42.9628
43.0262
43.1205
43.2356
43.3638
43.4919
43.61
43.7053
43.7695
43.7938
43.778
43.7223
43.6319
43.5166
43.3832
43.2472
43.1152
43.0026
42.9105
42.852
42.8348
42.8678
42.9499
43.0773
43.2466
43.4496
43.6778
43.9197
44.1712
44.4198
44.6612
44.884
45.0799
45.2371
45.3724
45.4747
45.5585
45.6191
45.6698
45.7075
45.7333
45.7486
45.748
45.7313
45.7006
45.6616
45.6188
45.5691
45.527
45.4727
45.4398
45.3872
45.3667
45.3248
45.3195
45.2918
45.2952
45.2827
45.3025
45.3178
45.3684
45.4179
45.5027
45.5886
45.7088
45.8266
45.9741
46.1176
46.2822
46.4387
46.6207
46.7996
46.9998
47.1943
47.4077
47.6063
47.8262
48.0312
48.2551
48.4548
48.6652
48.8573
49.0668
49.2451
49.4489
49.6328
49.8459
50.0321
50.2639
50.467
50.6959
50.8868
51.1026
51.2572
51.4354
51.5432
51.6812
51.7313
51.8277
51.8347
51.9137
51.8723
51.9622
51.904
52.0324
51.9863
52.1358
52.129
52.2934
52.3279
52.5075
52.5693
52.7689
52.851
53.0795
53.151
53.3917
53.4309
53.6359
53.5748
53.6706
53.3209
53.1721
52.1122
51.4626
48.5916
46.6918
39.493
32.4148
19.5527
48.2517
48.2073
48.1091
47.7977
47.4098
47.0985
46.9298
46.8901
46.9298
46.9883
47.0299
47.0367
47.0111
46.9587
46.8905
46.8113
46.7276
46.6393
46.5493
46.4558
46.3625
46.2703
46.1845
46.1058
46.0372
45.9771
45.9268
45.8829
45.8447
45.8077
45.771
45.7313
45.6903
45.6475
45.6057
45.5636
45.5223
45.4792
45.4352
45.3886
45.3414
45.2947
45.253
45.2189
45.1966
45.187
45.1911
45.2053
45.2266
45.2473
45.2631
45.2658
45.2522
45.2165
45.1584
45.0759
44.971
44.8461
44.703
44.5457
44.3751
44.1959
44.0103
43.8266
43.6502
43.4917
43.3587
43.258
43.1941
43.1684
43.182
43.2287
43.3058
43.402
43.5106
43.6162
43.712
43.7849
43.8296
43.8405
43.817
43.7613
43.6759
43.5714
43.452
43.3303
43.2119
43.1059
43.0165
42.9557
42.9342
42.9589
43.0294
43.1436
43.2989
43.4867
43.6998
43.9272
44.1673
44.4046
44.6376
44.8521
45.0415
45.195
45.3292
45.4346
45.5203
45.5846
45.6367
45.6759
45.7021
45.7131
45.7029
45.6726
45.6271
45.5676
45.5105
45.4383
45.3821
45.3076
45.2623
45.1922
45.1648
45.1131
45.1045
45.0726
45.0725
45.056
45.0735
45.0885
45.1387
45.1914
45.2761
45.3648
45.4845
45.6026
45.7488
45.8892
46.0522
46.2063
46.3899
46.5683
46.7723
46.9711
47.189
47.3946
47.6193
47.8251
48.0503
48.2372
48.4455
48.6218
48.8257
48.9884
49.1939
49.3708
49.5857
49.7707
50.0144
50.2114
50.4515
50.6345
50.8641
50.9999
51.1876
51.2687
51.4101
51.4224
51.518
51.4864
51.5604
51.4828
51.5711
51.4876
51.5887
51.534
51.6319
51.6119
51.7214
51.7281
51.8575
51.8803
52.0373
52.0533
52.2332
52.2056
52.3923
52.2702
52.4619
52.1216
52.2618
51.4461
51.3912
49.5686
48.9461
45.2006
42.7295
35.9611
28.3878
19.7804
49.7285
49.3839
48.336
47.4666
46.9185
46.6759
46.659
46.7641
46.9116
47.0449
47.1368
47.1761
47.1674
47.12
47.0484
46.9623
46.8713
46.7786
46.688
46.5993
46.5146
46.434
46.3603
46.2934
46.2348
46.1833
46.1391
46.0998
46.0647
46.031
45.9976
45.9624
45.9255
45.8866
45.847
45.8067
45.7663
45.7248
45.6831
45.6406
45.5986
45.5572
45.5192
45.4859
45.4603
45.4427
45.434
45.432
45.435
45.4379
45.4367
45.4259
45.4016
45.3603
45.2994
45.2189
45.1184
45.0007
44.867
44.7211
44.5645
44.4012
44.2347
44.0701
43.9137
43.7717
43.6517
43.5578
43.4949
43.4636
43.4665
43.4995
43.5596
43.6364
43.7225
43.8047
43.8768
43.9288
43.9564
43.9557
43.9258
43.8685
43.7868
43.6888
43.5785
43.4643
43.3518
43.2462
43.1537
43.0864
43.0576
43.0715
43.1311
43.2324
43.3765
43.5509
43.7516
43.9681
44.1977
44.4254
44.6508
44.8574
45.041
45.1911
45.325
45.4331
45.5212
45.5919
45.6465
45.6887
45.715
45.7202
45.7018
45.6571
45.6008
45.5262
45.4601
45.3746
45.3074
45.2222
45.1656
45.0914
45.058
45.0087
44.9944
44.9631
44.9588
44.9414
44.9626
44.9773
45.0364
45.0923
45.1857
45.2773
45.4024
45.5214
45.6721
45.8093
45.9748
46.1245
46.3103
46.4831
46.6937
46.8938
47.1231
47.3338
47.5672
47.771
47.9979
48.1691
48.3773
48.5319
48.7318
48.8731
49.0807
49.2397
49.4667
49.6426
49.9019
50.082
50.3408
50.5034
50.7493
50.8614
51.0611
51.1115
51.2572
51.2335
51.3258
51.2541
51.3214
51.2185
51.3021
51.2157
51.2922
51.2262
51.2942
51.2414
51.3189
51.2775
51.3842
51.3354
51.4784
51.3849
51.5597
51.3485
51.5613
51.1544
51.4147
50.6845
50.8928
49.6125
49.4742
47.237
46.1464
42.4532
39.1728
33.8148
26.6625
20.3082
50.7396
50.2525
48.6216
47.3081
46.5427
46.2881
46.3762
46.6158
46.8795
47.0993
47.2507
47.3282
47.3399
47.2997
47.2255
47.1319
47.0317
46.9321
46.8383
46.7515
46.6731
46.6023
46.54
46.4849
46.4371
46.395
46.358
46.3242
46.2929
46.2622
46.2315
46.1992
46.1655
46.1299
46.0932
46.0554
46.017
45.9778
45.9385
45.899
45.8599
45.8212
45.7843
45.7498
45.7196
45.694
45.6738
45.6576
45.6442
45.6309
45.6143
45.5909
45.557
45.5102
45.4481
45.3705
45.2768
45.1688
45.0473
44.9151
44.7747
44.6295
44.4832
44.3394
44.2039
44.0804
43.9754
43.8919
43.8342
43.8024
43.8002
43.8247
43.8714
43.9309
43.9957
44.0567
44.1074
44.1408
44.1532
44.1419
44.1047
44.0435
43.9609
43.8624
43.7533
43.6401
43.5281
43.4192
43.3207
43.2416
43.2041
43.2069
43.2562
43.3471
43.4829
43.6474
43.8369
44.0454
44.2663
44.487
44.7056
44.9084
45.0884
45.2382
45.3729
45.4824
45.5744
45.6506
45.709
45.751
45.7751
45.7707
45.7436
45.6834
45.621
45.5376
45.4657
45.3752
45.2998
45.2128
45.1507
45.0843
45.0489
45.009
44.9899
44.9643
44.9552
44.9485
44.9741
45.0031
45.0733
45.1361
45.2424
45.3358
45.4691
45.5876
45.7451
45.8796
46.0507
46.1981
46.3849
46.5551
46.7755
46.9745
47.2206
47.4351
47.6802
47.8823
48.1065
48.2652
48.4665
48.6001
48.793
48.9058
49.1188
49.2496
49.4871
49.6468
49.9186
50.0748
50.3592
50.4903
50.7597
50.8388
51.0536
51.0708
51.2242
51.1537
51.2523
51.1354
51.2132
51.086
51.1806
51.0745
51.1669
51.0563
51.1347
51.0181
51.1008
50.9729
51.0938
50.9386
51.089
50.8555
51.0219
50.6322
50.8103
50.1977
50.3602
49.4372
49.399
47.9933
47.41
45.2321
43.6297
40.4535
36.8901
32.8708
26.7078
21.4325
51.3522
50.8569
48.9556
47.361
46.3997
46.0608
46.1717
46.4916
46.8461
47.1446
47.3566
47.4769
47.5131
47.482
47.4053
47.3032
47.1926
47.0845
46.9857
46.8986
46.8241
46.7611
46.7086
46.6645
46.6272
46.5948
46.5657
46.5383
46.5116
46.4842
46.4557
46.4254
46.3935
46.3599
46.3251
46.2894
46.2531
46.2163
46.1792
46.1417
46.1042
46.0666
46.0294
45.9931
45.9585
45.926
45.8962
45.8686
45.8423
45.8156
45.7862
45.7519
45.71
45.6591
45.5971
45.5235
45.4376
45.34
45.232
45.1151
44.992
44.8655
44.7388
44.6153
44.4992
44.3936
44.3031
44.2311
44.1813
44.1553
44.1542
44.1757
44.2147
44.2612
44.3085
44.3507
44.3835
44.4026
44.4028
44.381
44.3359
44.269
44.1812
44.077
43.9644
43.8487
43.7342
43.6187
43.5114
43.4194
43.3707
43.3649
43.4081
43.4945
43.6259
43.7843
43.968
44.1709
44.384
44.6012
44.8148
45.0149
45.1927
45.3461
45.4772
45.586
45.6805
45.7576
45.8168
45.8543
45.8761
45.8627
45.8274
45.7554
45.6855
45.5972
45.5208
45.4329
45.3547
45.2764
45.2188
45.169
45.1394
45.1119
45.0947
45.0772
45.0702
45.077
45.1119
45.1635
45.243
45.3271
45.4381
45.544
45.6797
45.805
45.9653
46.1066
46.2834
46.4352
46.6252
46.8036
47.0301
47.2344
47.4858
47.71
47.9625
48.163
48.3788
48.5289
48.7137
48.8387
49.0139
49.0994
49.3113
49.4164
49.642
49.7917
50.0693
50.2002
50.5053
50.6123
50.8877
50.9487
51.1663
51.1759
51.3245
51.2302
51.3098
51.1758
51.2481
51.1279
51.2165
51.1115
51.1972
51.071
51.1308
50.9787
51.0314
50.8545
50.9181
50.7054
50.7647
50.4627
50.504
50.0272
50.0438
49.3457
49.271
48.3457
48.0121
46.6169
45.7858
43.7254
41.9734
39.4215
36.0258
32.9098
27.8186
23.1271
51.7174
51.2552
49.2582
47.5131
46.4176
45.9751
46.0521
46.4038
46.8181
47.1792
47.4436
47.6043
47.6658
47.6459
47.5687
47.4604
47.3413
47.2262
47.1229
47.0352
46.9636
46.907
46.8627
46.8282
46.8004
46.7771
46.7557
46.7347
46.7127
46.6891
46.663
46.6347
46.6042
46.572
46.5385
46.5042
46.4692
46.4338
46.3976
46.3609
46.3236
46.2857
46.2473
46.2089
46.1705
46.1328
46.0956
46.0594
46.023
45.9861
45.9471
45.9052
45.8582
45.8056
45.7452
45.6769
45.5995
45.5137
45.4193
45.3185
45.212
45.103
44.9936
44.8882
44.7889
44.7003
44.6247
44.5661
44.5264
44.5087
44.5109
44.5321
44.5651
44.6017
44.635
44.663
44.6821
44.6911
44.6831
44.6534
44.6006
44.5265
44.4308
44.3184
44.2002
44.079
43.9621
43.8405
43.7246
43.6243
43.5672
43.5575
43.599
43.6863
43.8136
43.9679
44.1468
44.3447
44.5543
44.7694
44.9828
45.1842
45.3599
45.513
45.6369
45.7456
45.8375
45.9085
45.9625
45.9924
46.0094
45.9921
45.9485
45.8708
45.7915
45.7052
45.6293
45.5516
45.4815
45.4214
45.3775
45.3497
45.3338
45.3242
45.3167
45.3125
45.3163
45.3416
45.3928
45.4646
45.5571
45.6563
45.771
45.8953
46.0342
46.1732
46.3361
46.4922
46.6747
46.8408
47.0345
47.2274
47.4577
47.6683
47.9269
48.1533
48.4083
48.6059
48.8206
48.9529
49.119
49.2467
49.4003
49.4744
49.6764
49.7498
49.9613
50.0864
50.3637
50.4749
50.7807
50.8912
51.1545
51.2178
51.4386
51.4541
51.5959
51.481
51.5249
51.3947
51.4398
51.3436
51.423
51.3297
51.4086
51.2728
51.3187
51.1381
51.155
50.9366
50.921
50.6549
50.6032
50.2301
50.1439
49.5607
49.4356
48.6949
48.4537
47.5484
47.0904
45.7115
44.8316
42.9645
41.1913
39.191
36.1344
33.49
29.2849
25.0354
51.9461
51.5139
49.4905
47.6689
46.4925
45.9731
46.0079
46.3665
46.8161
47.2213
47.5251
47.7175
47.8007
47.7918
47.716
47.6041
47.4793
47.3596
47.2536
47.1661
47.097
47.0455
47.0078
46.9811
46.9612
46.9455
46.9307
46.9155
46.8978
46.8776
46.8539
46.8276
46.7984
46.7675
46.7348
46.7013
46.6665
46.6312
46.5945
46.5574
46.519
46.48
46.4396
46.3989
46.3572
46.3153
46.2725
46.2297
46.186
46.1424
46.0973
46.051
46.0018
45.9498
45.8929
45.8312
45.7627
45.6885
45.6072
45.5213
45.4306
45.3384
45.2456
45.1573
45.0749
45.0035
44.9436
44.8996
44.8709
44.8615
44.8683
44.8897
44.9169
44.9454
44.9677
44.9844
44.9942
44.997
44.983
44.9484
44.8909
44.8111
44.7074
44.5857
44.4575
44.3292
44.2076
44.0794
43.9629
43.859
43.8011
43.7933
43.8388
43.9277
44.0518
44.1992
44.3749
44.5701
44.7814
44.9962
45.2129
45.4205
45.5987
45.7482
45.8671
45.9711
46.0536
46.1125
46.1534
46.1744
46.1864
46.1645
46.1169
46.0404
45.9606
45.882
45.8144
45.7508
45.6979
45.6596
45.6384
45.6362
45.6413
45.6562
45.6656
45.6803
45.7028
45.746
45.815
45.9043
46.0129
46.1249
46.2499
46.3903
46.5339
46.685
46.8556
47.0207
47.2122
47.3944
47.5978
47.8083
48.0427
48.2623
48.5265
48.7537
49.0171
49.2005
49.4311
49.5264
49.6829
49.8045
49.9307
50.0031
50.1999
50.2284
50.4445
50.5361
50.8148
50.9077
51.212
51.3139
51.5865
51.6245
51.8844
51.9067
52.0568
51.8735
51.8869
51.7777
51.8138
51.7359
51.8056
51.7239
51.8114
51.6618
51.7015
51.4915
51.4847
51.2302
51.1541
50.8196
50.6925
50.2397
50.002
49.3986
49.1287
48.5043
48.185
47.2979
46.8031
45.4383
44.4961
42.862
41.1008
39.4745
36.7976
34.3554
30.7962
26.9666
52.0997
51.6824
49.6502
47.7953
46.5809
46.0234
46.0345
46.3938
46.862
47.2912
47.6167
47.8262
47.9213
47.9182
47.8432
47.7294
47.6023
47.4814
47.3756
47.2898
47.2241
47.1771
47.1452
47.1248
47.1112
47.1015
47.092
47.0813
47.0674
47.0502
47.0288
47.0042
46.9763
46.9463
46.914
46.8805
46.8454
46.8094
46.7718
46.7334
46.6934
46.6526
46.61
46.5667
46.5218
46.4764
46.4299
46.3832
46.3356
46.2881
46.2399
46.1919
46.1431
46.0937
46.0421
45.9881
45.9295
45.8665
45.798
45.7263
45.6508
45.5745
45.4981
45.4269
45.3614
45.3066
45.2632
45.2343
45.218
45.2186
45.2316
45.2528
45.2747
45.2964
45.3117
45.3198
45.3217
45.3199
45.3034
45.2678
45.208
45.1228
45.0127
44.8842
44.7468
44.6074
44.4793
44.3453
44.2316
44.1289
44.0774
44.074
44.1306
44.2237
44.3482
44.4902
44.6672
44.8616
45.0733
45.2877
45.5123
45.7279
45.9118
46.0561
46.1678
46.2597
46.3276
46.3708
46.3981
46.4117
46.4198
46.396
46.3509
46.281
46.2091
46.1446
46.0928
46.0494
46.0183
46.0037
46.0108
46.0358
46.0707
46.1124
46.147
46.1854
46.2321
46.2902
46.3753
46.4752
46.5988
46.7199
46.861
47.0104
47.1662
47.3238
47.5068
47.6753
47.8858
48.0793
48.2998
48.5271
48.7761
49.0027
49.2777
49.4954
49.7761
49.9371
50.1845
50.2187
50.3939
50.4804
50.6154
50.6655
50.8507
50.8318
51.0716
51.1268
51.4228
51.4762
51.8183
51.8848
52.2157
52.179
52.5153
52.5241
52.7229
52.4092
52.4489
52.3268
52.3855
52.313
52.4161
52.3172
52.4359
52.2482
52.3111
52.0466
52.0573
51.758
51.6752
51.2368
51.0142
50.4882
50.215
49.6365
49.3347
48.725
48.389
47.5121
46.9365
45.6234
44.5413
43.1479
41.4946
40.0524
37.6946
35.3504
32.2377
28.8104
52.1834
51.7707
49.7395
47.8848
46.6708
46.1135
46.1261
46.4879
46.9603
47.3926
47.72
47.9303
48.0252
48.0212
47.9461
47.8332
47.7085
47.591
47.4895
47.4083
47.3475
47.3056
47.2789
47.2635
47.2546
47.249
47.243
47.2352
47.2239
47.2088
47.1894
47.1663
47.1397
47.1105
47.0787
47.0452
47.0097
46.9729
46.9343
46.8944
46.8528
46.8099
46.7654
46.7199
46.6729
46.6253
46.5767
46.5279
46.4789
46.4307
46.3826
46.3354
46.2887
46.243
46.1975
46.1517
46.1034
46.0524
45.9979
45.9411
45.8814
45.8214
45.7627
45.7092
45.6604
45.6214
45.5948
45.5815
45.5781
45.5878
45.6056
45.6261
45.6442
45.6607
45.6698
45.6725
45.6707
45.6661
45.6493
45.6156
45.5564
45.4686
45.3538
45.2177
45.073
44.9238
44.7901
44.6535
44.5459
44.4478
44.4133
44.4156
44.4876
44.5854
44.7144
44.8516
45.0357
45.2296
45.4436
45.6542
45.8893
46.1089
46.2973
46.4325
46.533
46.6038
46.6538
46.6802
46.7005
46.7104
46.7171
46.6945
46.6614
46.6021
46.5524
46.506
46.4828
46.4567
46.4579
46.4668
46.5077
46.5558
46.6257
46.6897
46.7632
46.8244
46.9036
46.9755
47.078
47.1778
47.3165
47.4353
47.5939
47.74
47.9137
48.0737
48.2729
48.4436
48.6774
48.8819
49.1305
49.3698
49.6443
49.8694
50.1648
50.3603
50.6758
50.7887
51.0573
51.01
51.2423
51.2689
51.4473
51.4326
51.6351
51.5775
51.8601
51.8645
52.1919
52.1843
52.572
52.6197
53.0219
52.928
53.3643
53.3173
53.5516
53.1134
53.2472
53.0758
53.2073
53.0737
53.2375
53.1252
53.2682
53.0421
53.1237
52.8184
52.8475
52.5164
52.3744
51.8791
51.6688
51.1656
50.8476
50.1937
49.8529
49.2374
48.9525
48.0304
47.2744
46.0506
44.8975
43.7027
42.2309
40.8137
38.6604
36.4008
33.6021
30.5276
52.1919
51.7749
49.7575
47.938
46.7635
46.2448
46.2845
46.6526
47.1149
47.5292
47.8385
48.0327
48.1152
48.1039
48.0279
47.9188
47.8012
47.6917
47.5985
47.5248
47.4708
47.4345
47.4122
47.4002
47.394
47.3903
47.3861
47.3797
47.3699
47.3561
47.3381
47.3163
47.2909
47.2625
47.2313
47.1978
47.1622
47.1249
47.0858
47.0452
47.0027
46.9586
46.9128
46.8658
46.8176
46.7689
46.7199
46.6713
46.6235
46.5768
46.5308
46.4865
46.4439
46.4038
46.3648
46.3272
46.2894
46.2513
46.2116
46.1704
46.1272
46.0845
46.0446
46.0094
45.9787
45.9568
45.9471
45.9479
45.9548
45.9701
45.9904
46.0102
46.0247
46.0338
46.0346
46.032
46.0287
46.0254
46.0133
45.9854
45.931
45.8468
45.7319
45.5918
45.4403
45.284
45.1453
45.0111
44.9121
44.8279
44.8175
44.8265
44.9155
45.0149
45.1491
45.2778
45.4717
45.6642
45.8825
46.0874
46.3358
46.556
46.7515
46.8747
46.9609
46.9978
47.0353
47.0397
47.0611
47.0682
47.081
47.0633
47.0521
47.0107
46.9967
46.9714
46.9876
46.983
47.026
47.0557
47.1351
47.2044
47.316
47.4009
47.5096
47.5915
47.7065
47.7913
47.9139
48.0173
48.16
48.2757
48.4469
48.5897
48.777
48.9448
49.1538
49.3431
49.5965
49.8113
50.0817
50.3301
50.6228
50.8533
51.1515
51.3243
51.6532
51.7505
51.9727
51.8966
52.2082
52.1382
52.3843
52.2725
52.515
52.4262
52.7431
52.75
53.083
53.0556
53.4922
53.527
53.9596
53.873
54.3294
54.2736
54.4798
53.9945
54.1883
53.9946
54.1999
54.0713
54.2684
54.1397
54.2842
54.0554
54.1314
53.8151
53.807
53.4428
53.2391
52.767
52.5205
51.998
51.6194
51.0247
50.7425
50.1048
49.6324
48.6793
47.7812
46.6563
45.5734
44.4526
43.1216
41.6571
39.6385
37.4775
34.913
32.1243
52.1111
51.6823
49.704
47.9634
46.8713
46.4319
46.5198
46.8906
47.3241
47.6979
47.9682
48.1292
48.1872
48.1637
48.087
47.9853
47.8794
47.7826
47.7014
47.6382
47.5926
47.5624
47.5442
47.5343
47.5292
47.5258
47.5218
47.5156
47.5062
47.4932
47.4762
47.4554
47.4311
47.4036
47.3732
47.3405
47.3056
47.2687
47.2299
47.1892
47.1463
47.1015
47.0551
47.0076
46.9597
46.9119
46.8648
46.8189
46.7739
46.7303
46.6884
46.6488
46.6119
46.5787
46.5482
46.52
46.4929
46.4669
46.4419
46.4174
46.3913
46.3657
46.3439
46.3269
46.3148
46.3116
46.3183
46.3312
46.3472
46.3678
46.3893
46.4057
46.4141
46.4145
46.408
46.4019
46.3977
46.3958
46.3902
46.3707
46.3251
46.2495
46.1408
46.0022
45.848
45.6927
45.5544
45.4273
45.3357
45.2724
45.2846
45.3071
45.4089
45.5056
45.6379
45.7643
45.9727
46.1604
46.3801
46.5809
46.8463
47.0635
47.2689
47.3768
47.4501
47.4549
47.4794
47.4656
47.4979
47.5
47.5274
47.5166
47.5323
47.5158
47.5453
47.5479
47.6092
47.6359
47.7271
47.7842
47.908
47.9979
48.1441
48.2446
48.3888
48.4872
48.6372
48.7361
48.8798
48.9813
49.1289
49.2425
49.4198
49.5689
49.7725
49.9548
50.1746
50.3863
50.644
50.8724
51.1629
51.411
51.703
51.9405
52.2185
52.3927
52.6792
52.8044
52.9514
52.8909
53.2139
53.0894
53.3374
53.2281
53.5269
53.4126
53.7304
53.7753
54.0421
54.0603
54.5173
54.6119
55.0428
55.0308
55.4018
55.3959
55.4977
55.0147
55.2982
55.0431
55.3287
55.1968
55.4125
55.3473
55.4451
55.2501
55.2532
54.9877
54.94
54.4959
54.2375
53.8129
53.5158
53.0353
52.673
52.1851
51.732
51.0734
50.3847
49.473
48.5078
47.4805
46.5119
45.3519
44.0869
42.5336
40.6337
38.568
36.1922
33.629
51.8905
51.4545
49.5821
47.9949
47.0401
46.7132
46.8494
47.2019
47.58
47.8891
48.1005
48.213
48.239
48.2019
48.127
48.0367
47.9467
47.8665
47.8003
47.7495
47.713
47.6887
47.6733
47.6642
47.6584
47.6538
47.6486
47.6414
47.6315
47.6184
47.6017
47.5815
47.5579
47.5314
47.5023
47.4711
47.4376
47.4022
47.3648
47.3252
47.2831
47.2388
47.1926
47.1459
47.1004
47.0564
47.0131
46.9706
46.9297
46.891
46.8544
46.8207
46.7909
46.7659
46.7445
46.7268
46.7126
46.7022
46.6937
46.6842
46.6736
46.6656
46.6619
46.6627
46.6696
46.684
46.7047
46.7278
46.7518
46.7774
46.8002
46.8147
46.8179
46.8093
46.7939
46.7831
46.7787
46.7809
46.7829
46.7742
46.7425
46.6813
46.5839
46.4543
46.3039
46.1569
46.0205
45.9058
45.8252
45.7883
45.8109
45.8406
45.9455
46.0399
46.1688
46.3162
46.5423
46.732
46.9505
47.1575
47.4279
47.6346
47.84
47.9386
48.0055
47.9888
48.0048
47.9839
48.0258
48.0291
48.0723
48.0701
48.1143
48.1279
48.1999
48.2385
48.3469
48.4129
48.5516
48.6469
48.81
48.926
49.0986
49.2161
49.3883
49.5036
49.6807
49.7985
49.9581
50.0627
50.2131
50.3299
50.5158
50.673
50.8948
51.0947
51.3282
51.5633
51.8087
52.0519
52.3325
52.588
52.8646
53.1164
53.341
53.5237
53.7703
53.9072
54.001
54.072
54.2753
54.1583
54.3486
54.3021
54.5773
54.5256
54.8032
54.9371
55.0685
55.2039
55.6331
55.7678
56.2046
56.3459
56.5849
56.6241
56.6741
56.231
56.4907
56.3217
56.5566
56.4078
56.6548
56.6833
56.7366
56.5651
56.4977
56.2163
56.0992
55.6306
55.3494
55.0002
54.6052
54.2675
53.8095
53.3497
52.7856
52.1969
51.1847
50.4274
49.3839
48.5106
47.5833
46.3513
45.0858
43.437
41.6384
39.6485
37.4234
35.0322
51.4163
51.0037
49.3974
48.0869
47.3394
47.1292
47.2797
47.5738
47.8634
48.084
48.2203
48.2772
48.2712
48.2235
48.154
48.0783
48.0066
47.9443
47.8936
47.8546
47.8258
47.8055
47.7912
47.7811
47.7733
47.7664
47.759
47.7502
47.7393
47.7256
47.7089
47.6891
47.6664
47.6411
47.6136
47.5842
47.553
47.5201
47.4852
47.4477
47.4075
47.3656
47.3227
47.2794
47.2371
47.1975
47.1609
47.1257
47.091
47.0573
47.0262
47
46.9797
46.9643
46.9531
46.9476
46.9474
46.9518
46.9598
46.9689
46.9774
46.9863
46.9987
47.0162
47.0393
47.0669
47.0984
47.1308
47.1626
47.1925
47.2162
47.2282
47.2261
47.2099
47.1862
47.1686
47.1639
47.1712
47.1826
47.1868
47.1727
47.131
47.0506
46.9357
46.7989
46.669
46.5382
46.4437
46.3736
46.3557
46.3808
46.4236
46.5248
46.6127
46.743
46.9287
47.167
47.3643
47.5786
47.8083
48.0649
48.2638
48.4573
48.5551
48.6176
48.6078
48.6108
48.5963
48.6426
48.6621
48.7198
48.7387
48.8018
48.8478
48.9529
49.0431
49.1862
49.3074
49.4778
49.6237
49.8054
49.9567
50.1445
50.2865
50.474
50.6132
50.8029
50.9404
51.1187
51.2285
51.3921
51.5225
51.7117
51.8902
52.1181
52.3298
52.5708
52.8089
53.0413
53.297
53.558
53.8147
54.0859
54.3543
54.5279
54.724
54.9049
55.0324
55.1601
55.3049
55.3618
55.3976
55.4496
55.5333
55.7488
55.7345
55.9316
56.1165
56.2138
56.5005
56.7286
57.0835
57.4885
57.6291
57.8203
57.9172
57.8843
57.6162
57.8235
57.733
57.8446
57.7748
57.959
58.0697
58.0056
57.9117
57.769
57.5188
57.3018
56.8859
56.5528
56.2283
55.7641
55.5509
55.0111
54.5891
53.7904
53.3005
52.0817
51.5037
50.4066
49.7011
48.7065
47.4313
46.1209
44.3977
42.6698
40.7255
38.6185
36.3578
50.6526
50.3329
49.2012
48.2912
47.7896
47.6652
47.7729
47.9594
48.1304
48.2491
48.309
48.3171
48.2873
48.2353
48.1745
48.1141
48.0593
48.0127
47.9744
47.9439
47.92
47.9013
47.8866
47.8746
47.8644
47.855
47.8456
47.8354
47.8236
47.8096
47.7928
47.7733
47.7513
47.7273
47.7013
47.6744
47.6469
47.618
47.5865
47.5524
47.5161
47.4779
47.4392
47.4021
47.3665
47.3332
47.3035
47.2772
47.2524
47.2272
47.2039
47.1876
47.1795
47.1771
47.179
47.1865
47.2005
47.2199
47.2419
47.2637
47.287
47.3134
47.3429
47.376
47.4122
47.4498
47.4881
47.5258
47.5623
47.5952
47.6185
47.6284
47.6222
47.6009
47.5718
47.5495
47.545
47.5562
47.5735
47.5868
47.5866
47.5637
47.5054
47.4124
47.2962
47.1904
47.0683
47.0062
46.9515
46.9502
46.9731
47.0387
47.1277
47.2265
47.3708
47.579
47.8073
48.02
48.2433
48.4977
48.7311
48.9339
49.1051
49.2134
49.2668
49.2809
49.2764
49.29
49.3298
49.3808
49.443
49.5026
49.5744
49.6648
49.7844
49.9314
50.099
50.2779
50.4646
50.6577
50.8392
51.0306
51.2121
51.3834
51.5694
51.745
51.9344
52.1169
52.2929
52.4411
52.5993
52.7671
52.9471
53.1578
53.3723
53.61
53.8361
54.0837
54.3026
54.5684
54.7994
55.0629
55.3079
55.5654
55.7214
55.9625
56.0446
56.2427
56.2855
56.468
56.4964
56.6264
56.6306
56.8378
56.8773
56.9738
57.0982
57.3211
57.3503
57.8124
57.9691
58.5425
58.6483
58.881
59.0338
59.2002
59.1819
59.183
59.1917
59.1531
59.1221
59.2094
59.2585
59.3522
59.2458
59.2102
58.9225
58.8831
58.4009
58.1776
57.7828
57.5021
57.0264
56.8931
56.1769
55.7065
54.8163
54.3995
53.101
52.678
51.5026
50.9055
49.753
48.5246
47.1514
45.4056
43.714
41.7876
39.7738
37.6035
49.8192
49.6517
49.0983
48.6247
48.3398
48.2311
48.2352
48.2849
48.3345
48.3622
48.3616
48.3359
48.2931
48.2422
48.1905
48.1426
48.1003
48.0641
48.0334
48.0075
47.9856
47.9669
47.951
47.9373
47.9252
47.9141
47.9031
47.8917
47.8791
47.8647
47.8479
47.8283
47.8071
47.7851
47.7622
47.7379
47.7129
47.6879
47.6618
47.6325
47.6007
47.569
47.5382
47.5078
47.4794
47.4564
47.4383
47.4228
47.4084
47.3948
47.3853
47.383
47.3876
47.3976
47.4133
47.4351
47.4619
47.4928
47.527
47.5626
47.5975
47.6325
47.6702
47.7114
47.7543
47.7967
47.8385
47.8788
47.9165
47.9476
47.9681
47.9774
47.9741
47.9564
47.9288
47.9061
47.9006
47.9109
47.9312
47.9506
47.9603
47.952
47.9128
47.8439
47.7566
47.6898
47.5947
47.5644
47.5207
47.5417