/*--------------------------------*- C++ -*----------------------------------*\
| =========                 |                                                 |
| \\      /  F ield         | OpenFOAM: The Open Source CFD Toolbox           |
|  \\    /   O peration     | Version:  2.4.0                                 |
|   \\  /    A nd           | Web:      www.OpenFOAM.org                      |
|    \\/     M anipulation  |                                                 |
\*---------------------------------------------------------------------------*/
FoamFile
{
    version     2.0;
    format      ascii;
    class       volScalarField;
    location    "0.3";
    object      k;
}
// * * * * * * * * * * * * * * * * * * * * * * * * * * * * * * * * * * * * * //

dimensions      [0 2 -2 0 0 0 0];

internalField   nonuniform List<scalar> 
8800
(
8.11836
10.2673
8.79825
6.81509
5.71488
4.96162
4.53691
4.13485
3.9231
3.65656
3.55312
3.35608
3.29834
3.14987
3.09591
2.97388
2.89479
2.79745
2.68679
2.55346
1.40259
4.35188
5.32236
5.28783
5.1333
4.80023
4.58468
4.281
4.12536
3.87566
3.78044
3.58106
3.5191
3.37428
3.32639
3.21301
3.16606
3.07447
2.99451
2.95476
0.0842748
0.729906
1.56548
1.943
2.2778
2.4339
2.57885
2.59797
2.62573
2.60067
2.58987
2.54104
2.52535
2.47308
2.46092
2.41649
2.40683
2.37219
2.36085
2.32439
0.00334585
0.0697456
0.259029
0.422161
0.581903
0.702651
0.836661
0.9266
1.02733
1.09355
1.16534
1.20944
1.26552
1.2975
1.33977
1.37473
1.40137
1.43291
1.48437
1.49824
0.000122655
0.00495636
0.0218134
0.0586424
0.081566
0.125516
0.159941
0.208373
0.238686
0.290679
0.314767
0.363305
0.384793
0.431277
0.453492
0.50401
0.527896
0.578343
0.610378
0.68793
2.50444e-05
0.000310791
0.00145684
0.00487499
0.00715469
0.0126555
0.0169656
0.0267954
0.0324792
0.0451861
0.0512927
0.06543
0.0715345
0.0864364
0.0936851
0.111359
0.120614
0.141455
0.152481
0.188528
2.15647e-05
4.2963e-05
0.00012315
0.00036403
0.000503605
0.000863985
0.00118415
0.00202858
0.00259026
0.00395388
0.00469407
0.0066053
0.00746201
0.00970789
0.0108584
0.0137807
0.0164977
0.0188626
0.0211131
0.0313603
2.10653e-05
2.93852e-05
4.65783e-05
9.18921e-05
9.70691e-05
0.000104983
0.000122214
0.000178383
0.000210501
0.000281042
0.000327157
0.000473205
0.000524546
0.000667984
0.000757057
0.00103489
0.00128798
0.00138427
0.00167408
0.00305215
2.07266e-05
2.86152e-05
3.85757e-05
6.52711e-05
7.21186e-05
6.92498e-05
6.8884e-05
7.58637e-05
8.45766e-05
8.63773e-05
8.88861e-05
9.80948e-05
9.94481e-05
0.0001019
0.000108277
0.000132458
0.000139949
0.000144623
0.000158871
0.000225045
2.06547e-05
2.9544e-05
3.76115e-05
4.9524e-05
6.07744e-05
6.89851e-05
7.13451e-05
7.20275e-05
7.23041e-05
7.16864e-05
7.02241e-05
7.14535e-05
7.65537e-05
7.82147e-05
7.93681e-05
8.24377e-05
8.33349e-05
8.41208e-05
8.67018e-05
0.000101522
2.06668e-05
2.77651e-05
3.56251e-05
5.59202e-05
6.91653e-05
7.11316e-05
7.03057e-05
6.65658e-05
6.43027e-05
6.47025e-05
7.29469e-05
7.92182e-05
7.9846e-05
8.05114e-05
8.03584e-05
8.09022e-05
8.30065e-05
8.18079e-05
8.13969e-05
8.98458e-05
2.08356e-05
3.02081e-05
3.87787e-05
5.67641e-05
7.31566e-05
7.52479e-05
7.35196e-05
7.48693e-05
7.62928e-05
8.46116e-05
9.49268e-05
9.68341e-05
9.95362e-05
0.000105304
0.000109334
0.000124905
0.000137234
0.000141531
0.000149123
0.000221222
2.10989e-05
3.14847e-05
4.39572e-05
7.40885e-05
9.92828e-05
0.000114581
0.000134225
0.000180001
0.000201684
0.000277562
0.000326052
0.000434849
0.000505145
0.000679396
0.000769717
0.00100388
0.00117495
0.00154688
0.00183279
0.00252405
2.1687e-05
4.31155e-05
0.000115028
0.000370212
0.000550775
0.000904072
0.00124105
0.00203783
0.00251701
0.00386911
0.00466904
0.00643376
0.007417
0.00981002
0.0110155
0.0139265
0.0158496
0.020378
0.0230248
0.0291916
2.49148e-05
0.000305543
0.00142315
0.0048058
0.00766226
0.0127001
0.0172642
0.0271315
0.0321951
0.0447501
0.0513236
0.0649861
0.071657
0.0871019
0.0942282
0.111363
0.120986
0.143887
0.156338
0.187752
0.000123896
0.00491502
0.021512
0.0561415
0.0899458
0.120087
0.16213
0.211459
0.235613
0.289478
0.315943
0.362512
0.384555
0.434398
0.455181
0.504169
0.528779
0.587874
0.615063
0.684286
0.00336941
0.0694558
0.255596
0.423279
0.588595
0.693287
0.840502
0.934223
1.01497
1.10153
1.16044
1.21283
1.25481
1.31129
1.33309
1.3796
1.40081
1.45334
1.47297
1.51976
0.0846061
0.726808
1.56544
1.94214
2.28197
2.42558
2.58546
2.5978
2.62425
2.59913
2.58905
2.53933
2.52425
2.47624
2.46149
2.41739
2.40858
2.38245
2.37011
2.34044
1.40692
4.34653
5.3232
5.28684
5.13191
4.80065
4.58507
4.2748
4.13512
3.86619
3.77833
3.58062
3.52202
3.36571
3.33129
3.20292
3.17358
3.05665
3.01808
2.91876
8.12189
10.26
8.80002
6.81219
5.7147
4.96352
4.53557
4.13012
3.93084
3.64745
3.55582
3.34951
3.30495
3.13346
3.10628
2.94594
2.91318
2.73588
2.67517
2.46628
1.72452
1.07024
0.722761
0.560285
0.497137
0.479051
0.482336
0.491397
0.501254
0.514323
0.521758
0.530468
0.529202
0.523899
0.510968
0.500205
0.486093
0.476268
0.466449
0.455664
0.438781
0.425621
0.407659
0.398606
0.386849
0.37918
0.376784
0.371483
0.368979
0.362124
0.348011
0.331397
0.306145
0.275813
0.250354
0.22493
0.201956
0.181646
0.166712
0.153686
0.143755
0.13866
0.13556
0.136588
0.140984
0.15157
0.161839
0.177582
0.198022
0.21966
0.242639
0.264981
0.288744
0.303781
0.312814
0.325121
0.330314
0.330717
0.334261
0.33455
0.334765
0.333772
0.329581
0.319878
0.308668
0.290999
0.276095
0.260508
0.241413
0.219754
0.204316
0.186758
0.173284
0.160342
0.152718
0.139627
0.132953
0.12916
0.1234
0.120366
0.116736
0.115225
0.11402
0.111215
0.107718
0.103674
0.0941122
0.086976
0.0765242
0.0646027
0.0540246
0.0429646
0.0333859
0.0252562
0.0189101
0.0140258
0.0107421
0.00830199
0.00693374
0.00607046
0.00584946
0.00601257
0.00655516
0.00824183
0.0119103
0.0193738
0.0330229
0.0530392
0.0682421
0.0870436
0.111194
0.134453
0.163104
0.186641
0.19745
0.199956
0.201707
0.201518
0.20088
0.200621
0.202288
0.210425
0.207967
0.200878
0.191005
0.174893
0.163256
0.151999
0.136182
0.120256
0.105978
0.0971088
0.0906191
0.0839138
0.0822859
0.0826147
0.0837777
0.0871313
0.0882375
0.0880351
0.0857603
0.077938
0.0731741
0.0656848
0.0540164
0.0378502
0.0295428
0.025602
0.0248196
0.0255699
0.0291997
0.0439835
0.0826104
0.100327
0.102101
0.099104
0.0905025
0.0789365
0.067457
0.0563484
0.0477513
0.0430621
0.0384322
0.0368065
0.0369237
0.0379812
0.0393142
0.0463012
0.0521613
0.0612116
0.110055
0.192878
0.207678
0.190854
0.164715
0.158223
0.160434
0.170714
0.181958
0.179867
0.169142
0.15046
0.112592
0.0963043
0.101608
0.112272
0.112105
0.0937057
0.0759624
0.0705041
0.0825298
0.117602
0.121252
0.113347
0.0770421
0.0613203
0.058855
0.0629816
0.0798418
0.171524
2.49403
2.02772
1.65887
1.40208
1.21814
1.09183
1.00014
0.935878
0.885543
0.846814
0.814162
0.789551
0.76427
0.745327
0.722426
0.706634
0.684698
0.672851
0.655684
0.647254
0.632255
0.621281
0.608622
0.592941
0.58367
0.570067
0.561131
0.554524
0.540524
0.535045
0.523852
0.510569
0.501163
0.488403
0.467593
0.45857
0.439622
0.422238
0.411199
0.397431
0.378259
0.374996
0.369265
0.362397
0.362636
0.364348
0.363848
0.364867
0.364892
0.362925
0.360844
0.359593
0.351933
0.349081
0.346228
0.337007
0.33082
0.324392
0.307214
0.29588
0.282297
0.257885
0.245035
0.221175
0.195153
0.181527
0.15374
0.133995
0.117167
0.099384
0.0848807
0.0724812
0.0615439
0.0540279
0.048534
0.0427669
0.041085
0.0386965
0.0367932
0.0363755
0.0355688
0.0352243
0.034753
0.0333552
0.0316552
0.0296581
0.026785
0.023972
0.0211789
0.0181457
0.0152944
0.0127584
0.0106098
0.00868759
0.00728385
0.00619049
0.00557284
0.00504577
0.00496545
0.00510752
0.00547727
0.00666458
0.00976064
0.0180427
0.030163
0.0538168
0.0850361
0.112165
0.13444
0.163594
0.196255
0.227865
0.243715
0.247438
0.248606
0.251854
0.256276
0.25485
0.25538
0.261658
0.261224
0.251401
0.231583
0.213208
0.199182
0.168845
0.142695
0.120971
0.105831
0.0943273
0.0869448
0.0804336
0.0768047
0.0727956
0.0691397
0.068347
0.0687697
0.0712651
0.0780257
0.0838037
0.0843849
0.082144
0.0792226
0.0768558
0.0714693
0.0618868
0.0429777
0.0314087
0.0267904
0.0263728
0.0275535
0.0335194
0.0582529
0.0894843
0.0964921
0.0963542
0.0933728
0.083785
0.070985
0.0612771
0.0519716
0.0462712
0.0414409
0.0408294
0.0402963
0.0402911
0.0406331
0.0474696
0.0540596
0.0618685
0.12465
0.200451
0.208684
0.174168
0.159845
0.156201
0.161322
0.161538
0.182617
0.191108
0.192089
0.185793
0.159798
0.117877
0.10821
0.110575
0.116098
0.106598
0.0834949
0.0762355
0.084922
0.118122
0.124413
0.117182
0.0792072
0.0604258
0.0562934
0.0584835
0.0660354
0.0902766
2.08398
1.84145
1.62226
1.45025
1.30607
1.19137
1.0987
1.01954
0.960697
0.905703
0.863041
0.824326
0.787338
0.762526
0.727085
0.709881
0.682638
0.662395
0.648564
0.628439
0.620731
0.607444
0.596298
0.59165
0.579123
0.574739
0.567138
0.560497
0.555059
0.548458
0.542311
0.539168
0.530952
0.523976
0.520243
0.511044
0.502193
0.497845
0.486798
0.477289
0.47233
0.46113
0.449324
0.444483
0.433747
0.418694
0.413005
0.401546
0.383843
0.376893
0.362635
0.343034
0.333199
0.311932
0.291245
0.273522
0.246123
0.225728
0.196513
0.170631
0.149164
0.122818
0.104262
0.0854491
0.0698879
0.0594262
0.0481871
0.0402974
0.0344691
0.0285786
0.024302
0.0211573
0.0176805
0.0156383
0.0140398
0.0121222
0.0113598
0.0104817
0.00980919
0.00965392
0.00940003
0.00928274
0.00916994
0.00902973
0.00853608
0.00812295
0.00747177
0.0068108
0.00630515
0.00574725
0.00518024
0.00483798
0.00449747
0.00419126
0.00395559
0.00397706
0.00408582
0.00425841
0.0045936
0.00541329
0.00758891
0.0134474
0.0249618
0.0503535
0.0841562
0.134958
0.176646
0.196453
0.224799
0.249913
0.267645
0.275729
0.274217
0.271044
0.272811
0.281037
0.283476
0.287367
0.297077
0.293728
0.28074
0.254293
0.235736
0.204459
0.159496
0.12908
0.114438
0.10373
0.0961405
0.088064
0.0833813
0.0789825
0.0750014
0.0708811
0.066415
0.0634743
0.0615964
0.0620191
0.0638451
0.0698299
0.0766065
0.0796317
0.0787074
0.0782418
0.076805
0.0729703
0.0649736
0.047049
0.0331181
0.0285358
0.0287592
0.0307841
0.0397676
0.0709559
0.0905478
0.094889
0.0946771
0.0915083
0.0799467
0.0678938
0.0564334
0.049449
0.0448025
0.0419603
0.0414843
0.0412642
0.0418932
0.047498
0.054787
0.0647782
0.129745
0.193525
0.181707
0.138355
0.130678
0.128822
0.136637
0.139031
0.165902
0.179081
0.194656
0.193429
0.190579
0.163715
0.127091
0.11691
0.126183
0.123683
0.0999146
0.0833686
0.0872864
0.115061
0.124118
0.121903
0.0886731
0.0626878
0.0539552
0.0538952
0.0555253
0.0613994
1.39518
1.2767
1.16241
1.06372
0.989383
0.913416
0.859546
0.80366
0.760859
0.722501
0.68544
0.657154
0.624718
0.600604
0.573718
0.549941
0.532074
0.506302
0.494647
0.475489
0.464889
0.453437
0.445193
0.441182
0.433055
0.431332
0.428476
0.42774
0.426442
0.423549
0.424445
0.423578
0.422619
0.422848
0.421153
0.418945
0.417084
0.411214
0.406242
0.401681
0.390455
0.379934
0.373099
0.356968
0.341492
0.330214
0.309629
0.292098
0.276959
0.254925
0.232036
0.212616
0.187687
0.164209
0.141893
0.118226
0.0977126
0.08068
0.0660766
0.0542376
0.0445984
0.0363452
0.0299151
0.0244622
0.0199889
0.0164214
0.0135553
0.0111857
0.00936387
0.00792073
0.0066761
0.00579317
0.00501738
0.00442967
0.00401281
0.00356274
0.00326929
0.00304624
0.00284185
0.00276497
0.00276019
0.00277568
0.00284737
0.002892
0.0028894
0.0028666
0.00279926
0.00267774
0.00264429
0.00258376
0.00257093
0.00261621
0.00266641
0.0027686
0.00300979
0.00342827
0.00384446
0.00455232
0.00612703
0.00977876
0.0182344
0.0389133
0.0725825
0.134809
0.199715
0.230235
0.242241
0.249772
0.269073
0.285315
0.29158
0.290029
0.282765
0.28494
0.297457
0.303659
0.312895
0.321608
0.316725
0.299421
0.277683
0.244989
0.189944
0.148453
0.12512
0.114495
0.107651
0.101842
0.0950656
0.0921896
0.0879054
0.0833129
0.0772413
0.0726963
0.0667346
0.0635851
0.059561
0.0584159
0.0588109
0.0604365
0.0654735
0.0701346
0.0745932
0.0764382
0.0770939
0.0757952
0.0725463
0.0653321
0.0485515
0.0343312
0.0309596
0.0316659
0.0354013
0.053339
0.0791136
0.0908862
0.0925157
0.0910115
0.0866587
0.0739227
0.0612375
0.0524038
0.0481332
0.0442836
0.0443275
0.0439847
0.0453403
0.0534129
0.064404
0.073777
0.120419
0.16691
0.162308
0.133606
0.106123
0.0993472
0.10175
0.112397
0.146377
0.157848
0.180362
0.184737
0.190221
0.186126
0.16288
0.131846
0.134052
0.132677
0.121178
0.0961739
0.0935323
0.112964
0.121232
0.121027
0.102656
0.0692857
0.0552715
0.0504865
0.0500207
0.0509183
0.659364
0.619521
0.579224
0.532147
0.498003
0.465819
0.436343
0.415594
0.396208
0.38048
0.369139
0.354302
0.345069
0.329661
0.319209
0.303902
0.294322
0.279674
0.270246
0.259837
0.249918
0.244049
0.236463
0.23323
0.230036
0.228729
0.228948
0.229491
0.230965
0.23174
0.233032
0.233383
0.233217
0.232781
0.232087
0.23099
0.229146
0.226586
0.22294
0.217961
0.213797
0.205127
0.198115
0.188406
0.175368
0.164632
0.149666
0.132587
0.119126
0.10206
0.0872341
0.076159
0.0625877
0.053089
0.0444494
0.0359538
0.0300932
0.02431
0.0197482
0.0161428
0.012884
0.010523
0.00842895
0.00680029
0.00558567
0.00447866
0.00376651
0.003132
0.00262785
0.00229552
0.00199425
0.00179264
0.00166271
0.00154708
0.0014862
0.00144602
0.00139403
0.00135183
0.0013266
0.00132006
0.0013221
0.0013428
0.0014058
0.0014595
0.00150804
0.00153989
0.00159684
0.00162319
0.0016931
0.00177556
0.00187074
0.00206601
0.00223435
0.00248574
0.00310529
0.00410444
0.00546896
0.00816009
0.0136565
0.0257938
0.0538145
0.109761
0.19937
0.246428
0.26145
0.260247
0.261223
0.267637
0.285648
0.296508
0.295191
0.284107
0.286924
0.303232
0.3188
0.347714
0.347139
0.336836
0.320373
0.296113
0.239706
0.176553
0.143399
0.125305
0.117469
0.112372
0.109168
0.105748
0.0998871
0.0965852
0.0895764
0.0839565
0.0775498
0.0734302
0.068607
0.0644284
0.0602946
0.0565499
0.0569793
0.0569259
0.0586772
0.0630036
0.0650359
0.0703033
0.0748876
0.0754064
0.0745567
0.0715256
0.0622107
0.0468994
0.0368502
0.0354624
0.0363561
0.0427656
0.0651014
0.0841749
0.0883773
0.0886625
0.0867252
0.078351
0.0724824
0.0593812
0.0551721
0.0496095
0.0499499
0.049853
0.0522733
0.0617446
0.0692814
0.0770331
0.116939
0.150378
0.148898
0.122367
0.0951315
0.0896201
0.0934878
0.110861
0.135125
0.152157
0.168784
0.170503
0.174055
0.174411
0.172081
0.147542
0.137838
0.138953
0.133765
0.114462
0.103491
0.116191
0.120487
0.119483
0.108578
0.0788417
0.0587519
0.050829
0.0483901
0.0481486
0.186322
0.181326
0.174283
0.164165
0.151158
0.144078
0.13296
0.127826
0.123024
0.118575
0.117456
0.114588
0.11349
0.110979
0.108838
0.106128
0.100463
0.0982115
0.0934288
0.0904771
0.0870325
0.0838855
0.0820352
0.0794523
0.0782201
0.0780963
0.0782677
0.0793306
0.0804872
0.082434
0.0844367
0.0856899
0.0870692
0.0874478
0.0874183
0.0871738
0.0860313
0.0848282
0.0829196
0.0794901
0.0772223
0.0734847
0.068498
0.0647379
0.0592875
0.0534867
0.048783
0.0421028
0.03664
0.0315012
0.0259539
0.0220362
0.0180084
0.0147188
0.0121754
0.00976114
0.00799784
0.00647651
0.00520461
0.00423623
0.00337806
0.00272491
0.00220219
0.00179868
0.00151439
0.00129838
0.0011584
0.00106511
0.000993242
0.000984461
0.000991944
0.00100655
0.00102476
0.00105037
0.00108976
0.00113967
0.00115714
0.00118918
0.00120574
0.00120854
0.00121524
0.00123871
0.00125473
0.00129624
0.0013322
0.00136765
0.00146226
0.00152844
0.00166702
0.00179071
0.0020263
0.00235984
0.00284267
0.00376957
0.00581496
0.00843897
0.0121964
0.0198117
0.0359602
0.0733863
0.165558
0.250227
0.28229
0.281848
0.275321
0.261708
0.262573
0.271524
0.280667
0.272224
0.253233
0.263326
0.298168
0.326133
0.372586
0.371773
0.349045
0.333056
0.301303
0.228477
0.172237
0.14231
0.12684
0.119728
0.117395
0.113924
0.111339
0.10608
0.101359
0.0938541
0.0859962
0.0808208
0.0762518
0.0728485
0.069634
0.0644559
0.0616377
0.0568619
0.055463
0.0559753
0.0552999
0.0598194
0.0600633
0.0614104
0.0693911
0.0731301
0.073732
0.0731585
0.0696978
0.0617242
0.0444179
0.0392599
0.0382114
0.0406303
0.0507822
0.0727052
0.0824992
0.084758
0.0850595
0.0811684
0.0786063
0.0686615
0.0636066
0.0599576
0.0615696
0.0615771
0.063112
0.0673668
0.0733783
0.0810024
0.101599
0.123203
0.123175
0.110225
0.0920115
0.0845799
0.087893
0.115703
0.132065
0.150421
0.166421
0.169045
0.165043
0.164145
0.163324
0.155402
0.139348
0.142813
0.141868
0.138186
0.122133
0.124396
0.12358
0.120004
0.109692
0.086641
0.0655287
0.0531945
0.0488409
0.0479841
0.0329748
0.0325522
0.0314366
0.02967
0.0269097
0.0248507
0.0223834
0.0217327
0.0215417
0.0216441
0.0226649
0.0230346
0.0239042
0.0238955
0.0237794
0.0233128
0.0216603
0.0211428
0.0198283
0.0190989
0.0185105
0.0180739
0.0180473
0.01771
0.0176684
0.0177524
0.0178674
0.0183898
0.018839
0.0194061
0.0206047
0.0209705
0.021761
0.0222056
0.022286
0.0223413
0.0220823
0.0216523
0.0211991
0.0202296
0.0190782
0.0183331
0.0170275
0.0155782
0.0147039
0.0128508
0.011602
0.0101817
0.00847252
0.00732273
0.00598791
0.00487708
0.00402883
0.00318408
0.0025928
0.00209131
0.00169247
0.00140268
0.00116026
0.000978174
0.00085424
0.00075116
0.000700173
0.000682101
0.000687914
0.00070251
0.000727698
0.000780925
0.000823369
0.000929103
0.00102423
0.00113458
0.0012886
0.00144559
0.00161928
0.00175609
0.00180434
0.00187545
0.00199903
0.00203932
0.00208897
0.00213532
0.002158
0.00221438
0.00229752
0.00237597
0.00255075
0.00276533
0.00310425
0.00345379
0.00419517
0.00508355
0.00643148
0.00952993
0.0135156
0.0183055
0.0276526
0.0485819
0.0964902
0.216771
0.29636
0.3096
0.3031
0.285786
0.248515
0.225337
0.225128
0.228621
0.22438
0.223322
0.234262
0.28391
0.325232
0.387312
0.382968
0.354282
0.332675
0.278922
0.21239
0.167772
0.143294
0.127139
0.119382
0.11871
0.116211
0.113789
0.107858
0.0996573
0.0919109
0.0844046
0.0826831
0.0775875
0.0760733
0.0725049
0.0707671
0.0652587
0.0641873
0.0608518
0.0563145
0.0566303
0.055671
0.0562563
0.059122
0.0574624
0.0605673
0.0670599
0.0691134
0.073318
0.0719119
0.0693037
0.0579432
0.0478002
0.0418449
0.0418753
0.0450237
0.0595044
0.0764242
0.0806
0.0833622
0.0816639
0.0809088
0.0759228
0.0743296
0.0704892
0.0705204
0.0699087
0.0705659
0.0715515
0.0760717
0.0905098
0.0969774
0.10149
0.100244
0.0932296
0.0834028
0.0811562
0.0851243
0.110269
0.131171
0.155551
0.168002
0.173211
0.16253
0.155997
0.151336
0.151383
0.140785
0.139977
0.140209
0.148002
0.143757
0.139642
0.133144
0.124294
0.112945
0.0925501
0.0721637
0.0578281
0.0511691
0.0505899
0.00325501
0.00316758
0.00296196
0.00263795
0.00236301
0.00219967
0.00216732
0.00222172
0.00243256
0.00263423
0.00274025
0.00275621
0.00277773
0.00274281
0.0026516
0.00246757
0.00222895
0.00212717
0.00202695
0.00201607
0.00206164
0.00216331
0.00232204
0.0023729
0.00239942
0.00240083
0.00234047
0.00236632
0.00239861
0.00242889
0.00258421
0.00265365
0.00278278
0.00293893
0.00303208
0.00318666
0.00318725
0.00314628
0.00306216
0.00298342
0.00277429
0.0026478
0.00246526
0.00221557
0.00209484
0.00184832
0.00163973
0.00147999
0.00125337
0.00108762
0.000925161
0.000761756
0.000646042
0.000547562
0.000474272
0.000438558
0.00041717
0.000420004
0.000430245
0.000443482
0.000478178
0.000513122
0.000589918
0.000653382
0.000800182
0.000951962
0.00113751
0.00149613
0.00171409
0.00213337
0.00262637
0.00292219
0.00352357
0.00405342
0.00447401
0.00482187
0.00492667
0.00509281
0.00527994
0.00531674
0.00539235
0.00548474
0.00554502
0.00565226
0.00578684
0.00592757
0.00621658
0.00673395
0.00719116
0.00803232
0.00958701
0.0113883
0.015255
0.0206028
0.0263426
0.0372368
0.0622486
0.124091
0.274501
0.337482
0.336262
0.321066
0.275849
0.240823
0.220711
0.209123
0.207323
0.205659
0.20559
0.218809
0.267571
0.332686
0.405663
0.377556
0.343193
0.317183
0.259006
0.216321
0.179046
0.149788
0.13073
0.119784
0.114657
0.112893
0.109274
0.102793
0.09283
0.0876651
0.0821335
0.0809757
0.080687
0.0778248
0.0777277
0.0729504
0.0724687
0.0688026
0.0661291
0.0651951
0.0600983
0.0611023
0.0589191
0.0563535
0.0605223
0.058187
0.0578896
0.0660844
0.0664332
0.0721806
0.0716227
0.0730155
0.0667593
0.0569592
0.0474189
0.0440174
0.0457496
0.0502571
0.0670316
0.0755007
0.0803299
0.0806427
0.080603
0.0772781
0.0763881
0.0746031
0.0745656
0.0739237
0.0737956
0.072813
0.0836629
0.0936037
0.0930864
0.0904862
0.0866329
0.0792241
0.0757317
0.0738068
0.0833445
0.105964
0.122083
0.163137
0.186953
0.193969
0.174496
0.151836
0.139285
0.142115
0.137845
0.136307
0.136693
0.143954
0.149501
0.147462
0.146196
0.137398
0.122975
0.103842
0.0803961
0.0657257
0.0621469
0.0653121
0.000225847
0.000247511
0.000281103
0.000333313
0.00033742
0.000328088
0.000295077
0.000273688
0.000270143
0.00028356
0.000298382
0.000301122
0.000292667
0.000267062
0.000247533
0.000239005
0.00023613
0.000241339
0.000256086
0.000262913
0.000267194
0.000263861
0.000262161
0.000258305
0.000252811
0.000250782
0.00023474
0.000227178
0.000222789
0.000217014
0.000220925
0.000225454
0.00023216
0.000276948
0.000301781
0.000316916
0.000318868
0.000315789
0.000297009
0.000287735
0.000272073
0.000256889
0.000253837
0.000243771
0.000238092
0.000238749
0.000232547
0.000233701
0.00023402
0.00023141
0.000234676
0.000235759
0.000240493
0.000255458
0.000274954
0.000329865
0.000373236
0.000471689
0.000592796
0.000703522
0.000975103
0.00116801
0.00158441
0.00191549
0.00256581
0.00327882
0.00386462
0.00502821
0.00582882
0.00703204
0.00831102
0.00929386
0.0107447
0.0120273
0.0127476
0.0135433
0.0138435
0.0140164
0.0143094
0.0143538
0.0143258
0.0142499
0.0142057
0.0141293
0.0141474
0.0141901
0.0143647
0.0148315
0.0156197
0.0172403
0.0197529
0.0247772
0.0315386
0.0384431
0.0512498
0.0803745
0.156061
0.329258
0.379934
0.369971
0.333544
0.265302
0.241393
0.232096
0.223023
0.211825
0.206154
0.205904
0.225762
0.293782
0.34474
0.415249
0.379542
0.318879
0.291962
0.257527
0.23456
0.201994
0.169616
0.145322
0.12572
0.114849
0.107962
0.102065
0.0942683
0.0886553
0.0872412
0.081203
0.0792707
0.0778611
0.0778297
0.0775987
0.0755786
0.0747811
0.0713318
0.0701381
0.0667288
0.0671771
0.063135
0.0658097
0.0637194
0.057423
0.0632104
0.0614367
0.0581675
0.0668587
0.066598
0.0730408
0.0718243
0.0749209
0.0728974
0.0652297
0.0595079
0.0492953
0.0487712
0.0501376
0.059097
0.0690675
0.0765603
0.0784184
0.0787392
0.0768705
0.0773444
0.077206
0.0755073
0.0735665
0.0735451
0.0728907
0.0875006
0.0936451
0.090648
0.0850159
0.077379
0.0692262
0.0670554
0.0682831
0.0798525
0.10875
0.123313
0.15948
0.205442
0.227624
0.207297
0.155053
0.131436
0.127423
0.125906
0.126432
0.127972
0.133653
0.146401
0.147559
0.149623
0.147194
0.139002
0.11741
0.0966419
0.0845739
0.0796595
0.0803435
0.000139012
0.000141414
0.000136774
0.000125095
0.000119422
0.000124462
0.000154799
0.000171763
0.000174879
0.000162526
0.000139141
0.000128929
0.000134128
0.000161537
0.000181517
0.000188532
0.000181099
0.000157236
0.000141775
0.000136302
0.000137469
0.000141996
0.000145017
0.000141896
0.000131535
0.00012216
0.000116883
0.000115658
0.000117706
0.000120933
0.000122795
0.00012425
0.000122286
0.000120878
0.000118776
0.000115177
0.000112202
0.000109379
0.000107226
0.000107282
0.00010805
0.000110072
0.000119138
0.000129615
0.000138226
0.00015918
0.000174463
0.000198645
0.000217468
0.000255031
0.000305625
0.000349387
0.00046006
0.000573909
0.000750815
0.00106922
0.00130741
0.00187673
0.00229331
0.00292211
0.00383904
0.00445503
0.00598024
0.0070904
0.00888366
0.0109461
0.0125126
0.015647
0.0178839
0.0205197
0.023708
0.0261049
0.0289786
0.0313055
0.0327301
0.0339547
0.0347642
0.0352403
0.0351857
0.0349019
0.0340674
0.0332809
0.0328128
0.031939
0.0309841
0.0303033
0.0303323
0.0308434
0.0322386
0.0351432
0.0417842
0.0503648
0.060081
0.0750034
0.107379
0.196523
0.388743
0.42653
0.404968
0.323825
0.262491
0.243746
0.245545
0.245925
0.242314
0.2418
0.246121
0.262175
0.325217
0.388238
0.403307
0.374415
0.299984
0.272935
0.256291
0.245079
0.22967
0.197611
0.167712
0.145532
0.124129
0.114155
0.103562
0.0927683
0.0874301
0.084099
0.0832249
0.0783253
0.0776127
0.0768988
0.0726036
0.0759974
0.0738579
0.074313
0.0705406
0.0733727
0.067197
0.0723217
0.0690763
0.0644783
0.0764454
0.0625048
0.0641099
0.0681275
0.0620056
0.0687002
0.0680851
0.0765806
0.0735695
0.0754454
0.0749774
0.0660522
0.0643692
0.0574768
0.0563654
0.0540981
0.0571927
0.0619385
0.0711533
0.07383
0.0749787
0.0753331
0.0753733
0.074158
0.0721278
0.0721839
0.0723998
0.0762504
0.0879453
0.0846985
0.075361
0.0712416
0.0643601
0.0622294
0.0637236
0.0674403
0.0793
0.122309
0.151109
0.162574
0.203699
0.240918
0.24533
0.205328
0.14211
0.127706
0.123498
0.119806
0.119615
0.12112
0.132918
0.14329
0.148701
0.148883
0.146799
0.131854
0.119346
0.106821
0.100491
0.0947513
9.0103e-05
9.44392e-05
0.000114227
0.000156085
0.00016241
0.00016128
0.000142916
0.000129051
0.000127039
0.000152126
0.000177405
0.00018752
0.000179027
0.00015547
0.000145383
0.000148916
0.000188141
0.000237109
0.000260009
0.000263724
0.000243231
0.000201708
0.000170719
0.00015431
0.000149236
0.000144699
0.000141799
0.000140871
0.000145855
0.000170178
0.000197547
0.000211975
0.00021646
0.00020879
0.000181785
0.000158846
0.00013988
0.000131263
0.000129205
0.000130225
0.000140428
0.00017811
0.000253986
0.000303784
0.000408023
0.000477138
0.000628179
0.00074936
0.000859162
0.00113879
0.00139148
0.00162215
0.0022349
0.00268485
0.00350376
0.00456764
0.00553266
0.00747816
0.00864007
0.0108409
0.0132978
0.0151488
0.0195754
0.0223202
0.0268791
0.0317986
0.0358652
0.0432023
0.0480507
0.0542097
0.0616012
0.0658829
0.0721651
0.0761885
0.0774555
0.0803707
0.0820756
0.0819908
0.0813654
0.079935
0.0761052
0.072881
0.0690829
0.065309
0.0634798
0.0630893
0.0635157
0.0650866
0.0689428
0.0761561
0.0845825
0.0980902
0.115788
0.15072
0.244898
0.450824
0.480188
0.444485
0.313023
0.254193
0.24156
0.243645
0.249173
0.243046
0.240015
0.252881
0.288969
0.330283
0.360105
0.378113
0.354625
0.278602
0.25141
0.244411
0.243168
0.243098
0.240208
0.216373
0.184871
0.160278
0.133763
0.118557
0.101005
0.0903768
0.0851333
0.0809616
0.0786137
0.0772004
0.0764895
0.0774505
0.0739623
0.0723719
0.0737241
0.0766691
0.0711984
0.0748225
0.070032
0.0713496
0.0793716
0.0691636
0.0817185
0.0728002
0.0639228
0.0902309
0.076401
0.075783
0.0697343
0.0769123
0.0811518
0.0801392
0.0806303
0.0684866
0.0673473
0.0609745
0.060005
0.0590712
0.0596167
0.0608967
0.0665663
0.0701096
0.0712392
0.0712079
0.0712376
0.0711419
0.0726828
0.074527
0.0778162
0.0847501
0.0854866
0.0766907
0.0666918
0.0621374
0.0593193
0.0596963
0.0651784
0.0742919
0.101436
0.15432
0.198851
0.207981
0.203007
0.223091
0.248915
0.258088
0.204838
0.141458
0.126692
0.124245
0.120463
0.11864
0.120092
0.126809
0.140954
0.146489
0.145906
0.138605
0.132504
0.126392
0.11723
0.108065
0.000264256
0.000289567
0.000326339
0.000343201
0.000352185
0.000351807
0.000349423
0.00032705
0.000291208
0.000261106
0.000241849
0.000240306
0.000248391
0.00029206
0.000494793
0.000735466
0.000943279
0.00105849
0.00109101
0.00108485
0.000958504
0.000748134
0.000571768
0.00043538
0.000341036
0.000286527
0.000268443
0.000330788
0.000618058
0.00088494
0.00112957
0.00124105
0.00127727
0.00123976
0.00103812
0.000875304
0.000742422
0.000693072
0.000691759
0.00071311
0.000830591
0.00114611
0.00162574
0.00191063
0.00251422
0.00286235
0.00357317
0.00413586
0.00466722
0.00590604
0.00679854
0.00776583
0.0100411
0.0114398
0.0143055
0.0169841
0.0203851
0.0250846
0.0279976
0.0342808
0.039635
0.0453409
0.0550438
0.0622674
0.0720785
0.0831289
0.0929434
0.107393
0.118488
0.132015
0.145189
0.155727
0.168111
0.172779
0.177869
0.182677
0.182681
0.181016
0.177403
0.172294
0.160041
0.153321
0.143162
0.137814
0.132869
0.131551
0.132006
0.133468
0.140009
0.146866
0.158605
0.184259
0.215405
0.309705
0.514048
0.537334
0.476597
0.308862
0.24967
0.236623
0.232799
0.221383
0.212729
0.215756
0.224824
0.259668
0.297217
0.320108
0.33121
0.311924
0.252842
0.228669
0.223721
0.234721
0.250142
0.264099
0.269888
0.263326
0.233327
0.192649
0.168265
0.139008
0.101862
0.0913699
0.0856856
0.0781915
0.0757546
0.0766912
0.0770566
0.0776022
0.0761601
0.0737162
0.0734397
0.0747452
0.0729457
0.076086
0.075695
0.0684064
0.0793876
0.0751468
0.0770059
0.0799656
0.0665029
0.0932826
0.0928123
0.0836522
0.0733369
0.0754198
0.0881744
0.0878332
0.0926033
0.0763285
0.0733212
0.0636267
0.0643294
0.0643535
0.0641309
0.0633437
0.0672539
0.0700622
0.0717726
0.072241
0.0724617
0.0725668
0.075498
0.0838906
0.0876858
0.0863988
0.0761836
0.0688058
0.0635405
0.0607174
0.0606455
0.0642119
0.0739707
0.0869337
0.144364
0.222282
0.250844
0.2475
0.234622
0.213032
0.211413
0.22818
0.228366
0.198187
0.146938
0.138589
0.130539
0.12389
0.120753
0.120894
0.123812
0.131908
0.13845
0.135873
0.132245
0.127953
0.121354
0.111725
0.0026727
0.00284977
0.00310511
0.0032361
0.00336871
0.00337541
0.00336856
0.0032503
0.00305514
0.00298398
0.0029536
0.00300539
0.00310533
0.00324163
0.00392657
0.00523139
0.00643118
0.00717706
0.00746035
0.00745798
0.00695427
0.00596881
0.00508908
0.00441534
0.0039606
0.0037648
0.00374923
0.00429885
0.0055109
0.00646867
0.00740101
0.00787282
0.00803525
0.00799253
0.00739541
0.00687935
0.00662361
0.00658673
0.00665219
0.00690415
0.00766495
0.00890086
0.0106086
0.0115899
0.0136925
0.0148766
0.0172058
0.0189189
0.0209911
0.0244111
0.0268827
0.0305173
0.0362129
0.0397592
0.0478018
0.0536019
0.0623343
0.0711684
0.0796437
0.0927991
0.103818
0.118928
0.137428
0.15324
0.174332
0.196216
0.216567
0.243682
0.265157
0.291551
0.316015
0.334534
0.347769
0.354281
0.364255
0.368574
0.367228
0.361985
0.351208
0.331795
0.307615
0.293387
0.278061
0.267662
0.264389
0.254311
0.250861
0.25092
0.251186
0.26027
0.277101
0.300588
0.373082
0.561515
0.583181
0.47789
0.301088
0.24282
0.231719
0.228388
0.222852
0.210707
0.198207
0.213028
0.230262
0.256773
0.271441
0.274104
0.249258
0.220703
0.205208
0.200747
0.213553
0.239267
0.273507
0.311928
0.335099
0.343198
0.320565
0.275257
0.239528
0.179232
0.125493
0.10587
0.0909054
0.0784363
0.0748054
0.0755296
0.0776633
0.0774822
0.0772294
0.0775872
0.0771115
0.0747453
0.0744956
0.0762658
0.0752842
0.0695417
0.0776253
0.07948
0.0717491
0.0901544
0.0690238
0.0946273
0.134046
0.093968
0.082878
0.0750066
0.091547
0.0856467
0.0988293
0.0858153
0.0818242
0.0700372
0.0706107
0.0697544
0.0685068
0.0681399
0.0719616
0.0740103
0.0784411
0.0792798
0.0789418
0.0816755
0.0920899
0.0937391
0.0890851
0.0746053
0.0677634
0.0671949
0.0691444
0.0683455
0.0680849
0.0702898