/*--------------------------------*- C++ -*----------------------------------*\
| =========                 |                                                 |
| \\      /  F ield         | OpenFOAM: The Open Source CFD Toolbox           |
|  \\    /   O peration     | Version:  2.4.0                                 |
|   \\  /    A nd           | Web:      www.OpenFOAM.org                      |
|    \\/     M anipulation  |                                                 |
\*---------------------------------------------------------------------------*/
FoamFile
{
    version     2.0;
    format      ascii;
    class       volScalarField;
    location    "0.3";
    object      nuSgs;
}
// * * * * * * * * * * * * * * * * * * * * * * * * * * * * * * * * * * * * * //

dimensions      [0 2 -1 0 0 0 0];

internalField   nonuniform List<scalar> 
8800
(
0.00133916
0.00150601
0.00139411
0.00122697
0.00112357
0.00104691
0.0010011
0.000955714
0.000930921
0.00089874
0.000885937
0.000861021
0.000853582
0.00083415
0.000826975
0.000810513
0.000799662
0.000786102
0.000770397
0.00075104
0.000556626
0.000980475
0.0010843
0.00108078
0.00106487
0.00102974
0.00100636
0.000972458
0.000954616
0.000925274
0.000913837
0.000889413
0.000881685
0.000863353
0.000857204
0.000842468
0.000836291
0.000824106
0.000813318
0.000807902
0.000136442
0.000401542
0.00058806
0.000655141
0.000709342
0.000733245
0.000754763
0.000757557
0.000761593
0.00075795
0.000756375
0.00074921
0.000746893
0.000739123
0.000737304
0.000730619
0.000729156
0.000723891
0.000722158
0.000716559
2.71863e-05
0.000124124
0.000239206
0.000305377
0.000358528
0.000393974
0.000429905
0.000452422
0.000476379
0.000491493
0.000507368
0.00051688
0.000528728
0.000535367
0.000544019
0.000551071
0.000556384
0.000562611
0.000572624
0.000575293
5.20523e-06
3.30887e-05
6.9416e-05
0.000113816
0.000134231
0.000166513
0.000187965
0.000214545
0.000229621
0.000253399
0.000263689
0.000283292
0.000291549
0.000308657
0.000316507
0.00033367
0.000341485
0.00035743
0.000367196
0.000389825
2.35209e-06
8.28575e-06
1.79392e-05
3.28159e-05
3.97551e-05
5.28735e-05
6.12185e-05
7.69357e-05
8.47033e-05
9.9908e-05
0.000106445
0.000120223
0.000125706
0.00013818
0.000143858
0.000156841
0.000163229
0.000176769
0.000183529
0.000204073
2.18258e-06
3.08067e-06
5.21572e-06
8.9674e-06
1.05473e-05
1.3815e-05
1.61734e-05
2.11687e-05
2.39205e-05
2.95535e-05
3.22013e-05
3.81983e-05
4.06e-05
4.63085e-05
4.89757e-05
5.51739e-05
6.03684e-05
6.45503e-05
6.82927e-05
8.32315e-05
2.15716e-06
2.54778e-06
3.20767e-06
4.50544e-06
4.63061e-06
4.81568e-06
5.19586e-06
6.27733e-06
6.81907e-06
7.87923e-06
8.50111e-06
1.0224e-05
1.07644e-05
1.21473e-05
1.29319e-05
1.51198e-05
1.68676e-05
1.74867e-05
1.92303e-05
2.59658e-05
2.13974e-06
2.51418e-06
2.91914e-06
3.79716e-06
3.99137e-06
3.91117e-06
3.90083e-06
4.09369e-06
4.32238e-06
4.36815e-06
4.43113e-06
4.65501e-06
4.68701e-06
4.74444e-06
4.89064e-06
5.40925e-06
5.5601e-06
5.65218e-06
5.92407e-06
7.0507e-06
2.13603e-06
2.55466e-06
2.88243e-06
3.30755e-06
3.66402e-06
3.90369e-06
3.9699e-06
3.98884e-06
3.9965e-06
3.97939e-06
3.93859e-06
3.97292e-06
4.11226e-06
4.15664e-06
4.18717e-06
4.26737e-06
4.29053e-06
4.31072e-06
4.37635e-06
4.73564e-06
2.13665e-06
2.47655e-06
2.80528e-06
3.51465e-06
3.90879e-06
3.96396e-06
3.94088e-06
3.83463e-06
3.76888e-06
3.78058e-06
4.01422e-06
4.18322e-06
4.19976e-06
4.21722e-06
4.21321e-06
4.22745e-06
4.28207e-06
4.25104e-06
4.24035e-06
4.45499e-06
2.14536e-06
2.58321e-06
2.92681e-06
3.54107e-06
4.01999e-06
4.07704e-06
4.02995e-06
4.06677e-06
4.10525e-06
4.32327e-06
4.57923e-06
4.625e-06
4.68909e-06
4.82302e-06
4.91445e-06
5.25277e-06
5.50591e-06
5.59144e-06
5.73946e-06
6.99056e-06
2.15887e-06
2.63723e-06
3.11611e-06
4.04551e-06
4.68311e-06
5.031e-06
5.4452e-06
6.30572e-06
6.67473e-06
7.83029e-06
8.48674e-06
9.80093e-06
1.05634e-05
1.22507e-05
1.30396e-05
1.48915e-05
1.61105e-05
1.84853e-05
2.01212e-05
2.36128e-05
2.18875e-06
3.08613e-06
5.04079e-06
9.04322e-06
1.10302e-05
1.41319e-05
1.65574e-05
2.12169e-05
2.35798e-05
2.9235e-05
3.21153e-05
3.7699e-05
4.04773e-05
4.65514e-05
4.93287e-05
5.5465e-05
5.91707e-05
6.70932e-05
7.13175e-05
8.03021e-05
2.34599e-06
8.2155e-06
1.77306e-05
3.25822e-05
4.11411e-05
5.29665e-05
6.17549e-05
7.74167e-05
8.43321e-05
9.94248e-05
0.000106477
0.000119814
0.000125813
0.000138711
0.000144274
0.000156844
0.00016348
0.000178283
0.000185836
0.000203653
5.23151e-06
3.29504e-05
6.89347e-05
0.000111363
0.000140957
0.000162872
0.000189247
0.000216128
0.000228138
0.000252875
0.000264181
0.000282982
0.000291459
0.000309772
0.000317096
0.000333723
0.000341771
0.000360363
0.000368602
0.000388792
2.72819e-05
0.000123866
0.000237615
0.000305782
0.000360584
0.00039134
0.000430891
0.000454279
0.000473505
0.000493283
0.000506302
0.000517603
0.000526486
0.000538204
0.00054266
0.000552045
0.000556272
0.000566606
0.000570421
0.000579409
0.00013671
0.000400689
0.000588053
0.000654995
0.000709991
0.000731991
0.00075573
0.000757531
0.000761378
0.000757725
0.000756255
0.000748958
0.000746731
0.000739596
0.00073739
0.000730755
0.000729421
0.000725454
0.000723572
0.000719029
0.000557484
0.000979871
0.00108439
0.00108068
0.00106472
0.00102979
0.0010064
0.000971752
0.000955745
0.000924143
0.000913583
0.000889358
0.000882051
0.000862256
0.000857835
0.000841145
0.000837284
0.000821714
0.000816513
0.000802965
0.00133945
0.00150547
0.00139425
0.00122671
0.00112356
0.00104711
0.00100095
0.000955167
0.000931838
0.000897619
0.000886273
0.000860179
0.000854438
0.000831974
0.000828359
0.000806696
0.000802198
0.000777403
0.00076873
0.000738107
0.000338059
0.000266318
0.000218855
0.000192692
0.000181508
0.000178176
0.000178786
0.000180457
0.000182258
0.000184619
0.000185949
0.000187494
0.00018727
0.00018633
0.000184016
0.000182067
0.000179481
0.000177658
0.000175817
0.000173772
0.000170523
0.000167946
0.000164364
0.000162529
0.000160114
0.000158519
0.000158017
0.000156902
0.000156372
0.000154913
0.000151864
0.000148195
0.000142437
0.000135197
0.000128806
0.000122091
0.000115688
0.000109716
0.00010511
0.00010092
9.76045e-05
9.58591e-05
9.47815e-05
9.51405e-05
9.66593e-05
0.000100223
0.000103562
0.000108482
0.000114555
0.000120652
0.000126806
0.000132515
0.00013833
0.000141886
0.00014398
0.000146785
0.000147952
0.000148043
0.000148834
0.000148898
0.000148946
0.000148725
0.000147788
0.000145596
0.000143023
0.000138869
0.000135266
0.000131392
0.000126485
0.000120678
0.000116362
0.00011125
0.000107161
0.000103082
0.000100601
9.6193e-05
9.38659e-05
9.25174e-05
9.04308e-05
8.93123e-05
8.79549e-05
8.7384e-05
8.69258e-05
8.58499e-05
8.44895e-05
8.28882e-05
7.89735e-05
7.59203e-05
7.12127e-05
6.54311e-05
5.98349e-05
5.33598e-05
4.70371e-05
4.09112e-05
3.54002e-05
3.04875e-05
2.6681e-05
2.34558e-05
2.14359e-05
2.00572e-05
1.96887e-05
1.99613e-05
2.08425e-05
2.33706e-05
2.80944e-05
3.58316e-05
4.67807e-05
5.92867e-05
6.72488e-05
7.59498e-05
8.5842e-05
9.43939e-05
0.000103966
0.000111215
0.00011439
0.000115113
0.000115616
0.000115562
0.000115379
0.000115305
0.000115783
0.000118088
0.000117397
0.000115379
0.000112507
0.000107658
0.000104014
0.000100364
9.49988e-05
8.92712e-05
8.38044e-05
8.02209e-05
7.74941e-05
7.45719e-05
7.3845e-05
7.39924e-05
7.45114e-05
7.59881e-05
7.64689e-05
7.63812e-05
7.53879e-05
7.18676e-05
6.96366e-05
6.59767e-05
5.98303e-05
5.00832e-05
4.42471e-05
4.11903e-05
4.05561e-05
4.11645e-05
4.39894e-05
5.39887e-05
7.39905e-05
8.15396e-05
8.22573e-05
8.10409e-05
7.74442e-05
7.23265e-05
6.68609e-05
6.11082e-05
5.62537e-05
5.34203e-05
5.04668e-05
4.9388e-05
4.94665e-05
5.01699e-05
5.10426e-05
5.5393e-05
5.87939e-05
6.36906e-05
8.54009e-05
0.000113058
0.000117315
0.000112463
0.000104478
0.000102399
0.000103112
0.000106363
0.000109811
0.000109178
0.000105873
9.98547e-05
8.63796e-05
7.98879e-05
8.20583e-05
8.62571e-05
8.61929e-05
7.88028e-05
7.09509e-05
6.83543e-05
7.39544e-05
8.82807e-05
8.96403e-05
8.6669e-05
7.14534e-05
6.37471e-05
6.24526e-05
6.46049e-05
7.274e-05
0.000106616
0.000406546
0.000366575
0.000331562
0.000304821
0.000284123
0.00026899
0.000257448
0.000249039
0.00024225
0.000236893
0.000232281
0.000228743
0.000225052
0.000222245
0.000218804
0.000216399
0.000213014
0.000211163
0.000208452
0.000207107
0.000204694
0.00020291
0.000200832
0.000198228
0.000196672
0.000194367
0.000192837
0.000191698
0.000189263
0.000188301
0.000186321
0.000183944
0.000182242
0.000179907
0.000176032
0.000174326
0.000170686
0.000167277
0.000165076
0.000162289
0.000158326
0.000157642
0.000156433
0.000154971
0.000155022
0.000155388
0.000155281
0.000155498
0.000155504
0.000155084
0.000154639
0.00015437
0.000152717
0.000152097
0.000151475
0.000149444
0.000148066
0.00014662
0.000142685
0.000140028
0.000136777
0.000130729
0.00012743
0.000121067
0.000113722
0.00010968
0.000100937
9.42329e-05
8.81174e-05
8.11553e-05
7.50003e-05
6.9306e-05
6.38632e-05
5.98367e-05
5.67128e-05
5.32368e-05
5.21795e-05
5.06401e-05
4.9379e-05
4.90979e-05
4.85504e-05
4.83147e-05
4.79904e-05
4.70154e-05
4.58016e-05
4.43333e-05
4.21312e-05
3.98576e-05
3.74636e-05
3.46773e-05
3.18365e-05
2.90775e-05
2.65162e-05
2.39943e-05
2.19704e-05
2.02545e-05
1.92175e-05
1.82861e-05
1.814e-05
1.83977e-05
1.9052e-05
2.10158e-05
2.5433e-05
3.45787e-05
4.47091e-05
5.97197e-05
7.50689e-05
8.6216e-05
9.43894e-05
0.000104122
0.000114043
0.000122885
0.000127087
0.000128054
0.000128355
0.000129191
0.000130321
0.000129957
0.000130092
0.000131682
0.000131572
0.000129075
0.000123883
0.000118867
0.00011489
0.00010578
9.72441e-05
8.95363e-05
8.37461e-05
7.90637e-05
7.59067e-05
7.30091e-05
7.13432e-05
6.94562e-05
6.76897e-05
6.73005e-05
6.75083e-05
6.87222e-05
7.1908e-05
7.4523e-05
7.47809e-05
7.37813e-05
7.24575e-05
7.13669e-05
6.88206e-05
6.40409e-05
5.33679e-05
4.5623e-05
4.21355e-05
4.18058e-05
4.27314e-05
4.7131e-05
6.21323e-05
7.70073e-05
7.99658e-05
7.99087e-05
7.86627e-05
7.45146e-05
6.8587e-05
6.37247e-05
5.8687e-05
5.5375e-05
5.24051e-05
5.2017e-05
5.16763e-05
5.16729e-05
5.18918e-05
5.60875e-05
5.98542e-05
6.40314e-05
9.08876e-05
0.000115256
0.000117599
0.000107434
0.000102922
0.000101742
0.000103397
0.000103466
0.000110009
0.000112538
0.000112826
0.000110962
0.000102907
8.83837e-05
8.46822e-05
8.56024e-05
8.77145e-05
8.40492e-05
7.43855e-05
7.10783e-05
7.50185e-05
8.84758e-05
9.08013e-05
8.81231e-05
7.24504e-05
6.32805e-05
6.10784e-05
6.22551e-05
6.61526e-05
7.73475e-05
0.000371626
0.000349332
0.000327883
0.000310013
0.000294199
0.000280984
0.000269834
0.000259933
0.00025232
0.000244992
0.000239152
0.000233726
0.000228423
0.000224795
0.000219508
0.000216896
0.000212693
0.000209516
0.000207317
0.000204075
0.00020282
0.000200637
0.000198788
0.000198012
0.000195904
0.000195161
0.000193866
0.000192728
0.000191791
0.000190647
0.000189576
0.000189026
0.00018758
0.000186344
0.000185678
0.00018403
0.000182429
0.000181638
0.000179611
0.000177848
0.000176922
0.000174812
0.000172559
0.000171627
0.000169542
0.000166574
0.000165438
0.000163127
0.000159491
0.00015804
0.000155022
0.000150774
0.000148597
0.000143777
0.000138927
0.000134634
0.000127713
0.000122307
0.000114118
0.000106338
9.94239e-05
9.0217e-05
8.3123e-05
7.5251e-05
6.80549e-05
6.27549e-05
5.65098e-05
5.16769e-05
4.7794e-05
4.3519e-05
4.0131e-05
3.74446e-05
3.42299e-05
3.21924e-05
3.05028e-05
2.83433e-05
2.74374e-05
2.63557e-05
2.54962e-05
2.52936e-05
2.49588e-05
2.48026e-05
2.46514e-05
2.44622e-05
2.37842e-05
2.32015e-05
2.22521e-05
2.1245e-05
2.04412e-05
1.95159e-05
1.85282e-05
1.79057e-05
1.7264e-05
1.6666e-05
1.61906e-05
1.62345e-05
1.6455e-05
1.6799e-05
1.74476e-05
1.89404e-05
2.24258e-05
2.98523e-05
4.06721e-05
5.77661e-05
7.46795e-05
9.45711e-05
0.000108196
0.000114101
0.000122055
0.000128692
0.00013318
0.000135176
0.000134805
0.000134023
0.000134459
0.000136471
0.000137062
0.000137999
0.000140312
0.000139518
0.000136399
0.000129815
0.000124989
0.000116402
0.00010281
9.24886e-05
8.70849e-05
8.29107e-05
7.982e-05
7.63937e-05
7.43349e-05
7.23475e-05
7.05006e-05
6.85368e-05
6.63424e-05
6.48571e-05
6.38905e-05
6.41093e-05
6.50463e-05
6.80267e-05
7.12511e-05
7.26443e-05
7.22214e-05
7.20075e-05
7.13433e-05
6.95395e-05
6.56186e-05
5.58385e-05
4.6848e-05
4.34864e-05
4.36563e-05
4.51671e-05
5.13361e-05
6.85729e-05
7.74636e-05
7.92988e-05
7.92102e-05
7.78733e-05
7.27878e-05
6.7077e-05
6.11542e-05
5.72449e-05
5.44891e-05
5.27324e-05
5.24325e-05
5.22932e-05
5.26903e-05
5.61043e-05
6.02556e-05
6.55198e-05
9.27264e-05
0.000113247
0.000109735
9.57537e-05
9.30594e-05
9.2396e-05
9.51574e-05
9.59873e-05
0.000104854
0.000108939
0.000113578
0.000113219
0.000112382
0.00010416
9.17731e-05
8.80205e-05
9.14448e-05
9.05343e-05
8.13716e-05
7.43293e-05
7.60557e-05
8.73217e-05
9.06936e-05
8.98804e-05
7.66575e-05
6.4454e-05
5.97964e-05
5.97631e-05
6.06602e-05
6.37882e-05
0.00030407
0.000290873
0.000277548
0.000265505
0.000256059
0.000246033
0.000238667
0.000230778
0.000224549
0.000218815
0.000213129
0.000208685
0.00020347
0.000199504
0.000194988
0.000190905
0.000187778
0.000183174
0.000181053
0.000177512
0.000175523
0.000173347
0.000171764
0.000170989
0.000169407
0.000169069
0.000168509
0.000168364
0.000168108
0.000167537
0.000167714
0.000167543
0.000167353
0.000167398
0.000167062
0.000166624
0.000166253
0.000165079
0.000164078
0.000163155
0.000160858
0.000158676
0.000157243
0.000153806
0.000150435
0.00014793
0.000143245
0.000139131
0.000135477
0.000129976
0.000124004
0.000118701
0.000111526
0.000104317
9.69704e-05
8.85147e-05
8.047e-05
7.31209e-05
6.61732e-05
5.99527e-05
5.43649e-05
4.90774e-05
4.4525e-05
4.0263e-05
3.6396e-05
3.29886e-05
2.99718e-05
2.72264e-05
2.49107e-05
2.29108e-05
2.10339e-05
1.95937e-05
1.82346e-05
1.71334e-05
1.63073e-05
1.53656e-05
1.47192e-05
1.42082e-05
1.37233e-05
1.35364e-05
1.35247e-05
1.35626e-05
1.37366e-05
1.38439e-05
1.38377e-05
1.3783e-05
1.36201e-05
1.33212e-05
1.32377e-05
1.30853e-05
1.30528e-05
1.31672e-05
1.3293e-05
1.35453e-05
1.4123e-05
1.50729e-05
1.59616e-05
1.7369e-05
2.01504e-05
2.54566e-05
3.4762e-05
5.07817e-05
6.93545e-05
9.45188e-05
0.000115044
0.000123522
0.000126702
0.000128656
0.000133535
0.000137506
0.000139007
0.000138637
0.00013689
0.000137415
0.000140401
0.000141857
0.000143999
0.00014599
0.000144877
0.000140864
0.000135654
0.000127418
0.000112194
9.91864e-05
9.10589e-05
8.71068e-05
8.44631e-05
8.21528e-05
7.93725e-05
7.81627e-05
7.63249e-05
7.43044e-05
7.15456e-05
6.94088e-05
6.65019e-05
6.49137e-05
6.2826e-05
6.22191e-05
6.24292e-05
6.32861e-05
6.58706e-05
6.81749e-05
7.03086e-05
7.11727e-05
7.14774e-05
7.08728e-05
6.93372e-05
6.57994e-05
5.67231e-05
4.76983e-05
4.52956e-05
4.58094e-05
4.8436e-05
5.9454e-05
7.24076e-05
7.76082e-05
7.83008e-05
7.76616e-05
7.57817e-05
6.99919e-05
6.37041e-05
5.89304e-05
5.64782e-05
5.41726e-05
5.41995e-05
5.39895e-05
5.48152e-05
5.94951e-05
6.53304e-05
6.99228e-05
8.93316e-05
0.000105172
0.000103712
9.4096e-05
8.38615e-05
8.11402e-05
8.21157e-05
8.63049e-05
9.84905e-05
0.000102277
0.000109328
0.000110646
0.000112276
0.000111061
0.000103894
9.34744e-05
9.42529e-05
9.37684e-05
8.96127e-05
7.98338e-05
7.87298e-05
8.65225e-05
8.96327e-05
8.9557e-05
8.24804e-05
6.77611e-05
6.05214e-05
5.78424e-05
5.75749e-05
5.80892e-05
0.000209036
0.000202622
0.000195921
0.000187791
0.000181666
0.000175698
0.000170048
0.000165956
0.000162039
0.00015879
0.000156406
0.00015323
0.000151221
0.000147806
0.000145444
0.000141914
0.000139659
0.00013614
0.000133825
0.000131223
0.000128694
0.000127174
0.000125182
0.000124323
0.000123468
0.000123117
0.000123176
0.000123322
0.000123718
0.000123925
0.00012427
0.000124363
0.000124319
0.000124203
0.000124018
0.000123724
0.00012323
0.000122539
0.000121549
0.000120184
0.000119031
0.000116592
0.000114582
0.000111739
0.000107804
0.000104452
9.95911e-05
9.37366e-05
8.88509e-05
8.22406e-05
7.60329e-05
7.10426e-05
6.44026e-05
5.93145e-05
5.42739e-05
4.88125e-05
4.46573e-05
4.01376e-05
3.61762e-05
3.27075e-05
2.92203e-05
2.64075e-05
2.36344e-05
2.12286e-05
1.92396e-05
1.72279e-05
1.57989e-05
1.44069e-05
1.31965e-05
1.23339e-05
1.1496e-05
1.08995e-05
1.0497e-05
1.01255e-05
9.92424e-06
9.78917e-06
9.61158e-06
9.46499e-06
9.37622e-06
9.3531e-06
9.36031e-06
9.43332e-06
9.65208e-06
9.83468e-06
9.9969e-06
1.01019e-05
1.0287e-05
1.03716e-05
1.05925e-05
1.08474e-05
1.11344e-05
1.1701e-05
1.21684e-05
1.28347e-05
1.43453e-05
1.64925e-05
1.90375e-05
2.32544e-05
3.00834e-05
4.13443e-05
5.97184e-05
8.5287e-05
0.000114944
0.000127792
0.000131629
0.000131326
0.000131572
0.000133178
0.000137586
0.000140177
0.000139865
0.000137214
0.000137893
0.000141758
0.000145351
0.000151799
0.000151674
0.000149406
0.000145709
0.000140084
0.000126037
0.000108167
9.74836e-05
9.1126e-05
8.82308e-05
8.62954e-05
8.50564e-05
8.37134e-05
8.13604e-05
8.00044e-05
7.70469e-05
7.45909e-05
7.16884e-05
6.97583e-05
6.74284e-05
6.53427e-05
6.32117e-05
6.12173e-05
6.14493e-05
6.14205e-05
6.23581e-05
6.46162e-05
6.56501e-05
6.82569e-05
7.04471e-05
7.06907e-05
7.02913e-05
6.88477e-05
6.42083e-05
5.57497e-05
4.94172e-05
4.84778e-05
4.90848e-05
5.3236e-05
6.56831e-05
7.46878e-05
7.65295e-05
7.66529e-05
7.58108e-05
7.20578e-05
6.93066e-05
6.27311e-05
6.0467e-05
5.73378e-05
5.75341e-05
5.74783e-05
5.88571e-05
6.39673e-05
6.7759e-05
7.14492e-05
8.80316e-05
9.98275e-05
9.9335e-05
9.00513e-05
7.94e-05
7.70657e-05
7.87111e-05
8.57134e-05
9.46295e-05
0.000100416
0.000105761
0.000106298
0.000107399
0.000107509
0.000106789
9.88817e-05
9.55746e-05
9.59604e-05
9.4152e-05
8.70942e-05
8.28153e-05
8.77495e-05
8.93568e-05
8.89838e-05
8.4826e-05
7.22831e-05
6.23978e-05
5.80382e-05
5.66287e-05
5.64873e-05
0.00011112
0.00010962
0.00010747
0.000104304
0.000100086
9.77142e-05
9.38684e-05
9.2038e-05
9.02928e-05
8.86451e-05
8.8226e-05
8.71423e-05
8.67238e-05
8.57589e-05
8.49275e-05
8.38635e-05
8.15946e-05
8.06751e-05
7.86863e-05
7.74333e-05
7.5945e-05
7.45593e-05
7.37324e-05
7.25624e-05
7.19975e-05
7.19406e-05
7.20194e-05
7.25068e-05
7.30335e-05
7.39115e-05
7.48039e-05
7.53569e-05
7.5961e-05
7.6126e-05
7.61131e-05
7.60066e-05
7.55069e-05
7.49771e-05
7.41288e-05
7.25797e-05
7.15368e-05
6.97842e-05
6.73748e-05
6.54995e-05
6.26816e-05
5.95362e-05
5.68582e-05
5.28219e-05
4.92761e-05
4.56901e-05
4.14725e-05
3.82144e-05
3.45458e-05
3.12317e-05
2.84054e-05
2.54337e-05
2.30221e-05
2.07171e-05
1.85717e-05
1.67552e-05
1.49621e-05
1.3438e-05
1.20805e-05
1.09178e-05
1.00179e-05
9.27598e-06
8.76168e-06
8.40149e-06
8.11309e-06
8.07714e-06
8.10778e-06
8.16724e-06
8.24081e-06
8.34314e-06
8.49815e-06
8.69055e-06
8.75693e-06
8.87733e-06
8.93894e-06
8.94931e-06
8.97408e-06
9.06032e-06
9.11871e-06
9.26833e-06
9.396e-06
9.52019e-06
9.84398e-06
1.00643e-05
1.05106e-05
1.08936e-05
1.1588e-05
1.25055e-05
1.37253e-05
1.58054e-05
1.96305e-05
2.36485e-05
2.84298e-05
3.62343e-05
4.88168e-05
6.97374e-05
0.000104745
0.000128773
0.000136775
0.000136668
0.000135076
0.000131694
0.000131912
0.000134141
0.000136381
0.000134314
0.000129544
0.000132101
0.000140569
0.000147013
0.000157135
0.000156963
0.000152089
0.000148565
0.000141306
0.000123049
0.000106837
9.71127e-05
9.16825e-05
8.9075e-05
8.82028e-05
8.68893e-05
8.58977e-05
8.38446e-05
8.19576e-05
7.88651e-05
7.54915e-05
7.31847e-05
7.10859e-05
6.94814e-05
6.79312e-05
6.53567e-05
6.39119e-05
6.1386e-05
6.06262e-05
6.09055e-05
6.0537e-05
6.29622e-05
6.30904e-05
6.37939e-05
6.78126e-05
6.96156e-05
6.99015e-05
6.96291e-05
6.79623e-05
6.39567e-05
5.42547e-05
5.10074e-05
5.03216e-05
5.189e-05
5.80115e-05
6.94131e-05
7.39407e-05
7.49461e-05
7.50792e-05
7.33418e-05
7.2175e-05
6.74552e-05
6.49246e-05
6.30348e-05
6.38766e-05
6.38804e-05
6.46717e-05
6.68162e-05
6.97336e-05
7.32668e-05
8.20548e-05
9.03587e-05
9.03481e-05
8.5467e-05
7.80871e-05
7.48673e-05
7.63195e-05
8.75651e-05
9.3552e-05
9.98417e-05
0.000105018
0.000105842
0.000104582
0.000104297
0.000104036
0.000101482
9.60969e-05
9.72843e-05
9.69618e-05
9.56952e-05
8.99653e-05
9.0795e-05
9.04967e-05
8.91776e-05
8.52602e-05
7.5774e-05
6.58983e-05
5.93734e-05
5.68919e-05
5.63907e-05
4.67466e-05
4.6446e-05
4.56432e-05
4.43422e-05
4.22292e-05
4.05815e-05
3.85143e-05
3.79503e-05
3.77832e-05
3.78729e-05
3.87557e-05
3.90705e-05
3.98012e-05
3.97939e-05
3.96971e-05
3.93057e-05
3.7887e-05
3.74317e-05
3.62494e-05
3.55765e-05
3.50242e-05
3.46086e-05
3.45831e-05
3.42585e-05
3.42182e-05
3.42994e-05
3.44104e-05
3.49097e-05
3.53335e-05
3.58614e-05
3.69523e-05
3.72789e-05
3.7975e-05
3.8361e-05
3.84303e-05
3.84781e-05
3.82543e-05
3.78801e-05
3.74815e-05
3.66145e-05
3.55572e-05
3.48559e-05
3.35918e-05
3.21305e-05
3.12158e-05
2.91826e-05
2.77284e-05
2.59758e-05
2.36954e-05
2.2029e-05
1.99203e-05
1.79779e-05
1.63398e-05
1.45261e-05
1.31082e-05
1.17725e-05
1.05906e-05
9.64136e-06
8.76872e-06
8.05131e-06
7.524e-06
7.05545e-06
6.81179e-06
6.7233e-06
6.75189e-06
6.82315e-06
6.94439e-06
7.19388e-06
7.38679e-06
7.84676e-06
8.23867e-06
8.67113e-06
9.24096e-06
9.78772e-06
1.0359e-05
1.07878e-05
1.0935e-05
1.11484e-05
1.15098e-05
1.16252e-05
1.17659e-05
1.18957e-05
1.19587e-05
1.21139e-05
1.23392e-05
1.25481e-05
1.30015e-05
1.35373e-05
1.43429e-05
1.51289e-05
1.66737e-05
1.83545e-05
2.0645e-05
2.51306e-05
2.99279e-05
3.48297e-05
4.28082e-05
5.67408e-05
7.9965e-05
0.000119856
0.000140142
0.000143238
0.000141727
0.000137619
0.000128332
0.000122201
0.000122144
0.000123088
0.000121941
0.000121653
0.000124598
0.000137167
0.00014681
0.00016021
0.000159309
0.000153226
0.00014848
0.000135956
0.000118639
0.000105443
9.74477e-05
9.17906e-05
8.89464e-05
8.86957e-05
8.77571e-05
8.68376e-05
8.45443e-05
8.12668e-05
7.80444e-05
7.47897e-05
7.4023e-05
7.17058e-05
7.10027e-05
6.93174e-05
6.84816e-05
6.57624e-05
6.52203e-05
6.35032e-05
6.10898e-05
6.12608e-05
6.07397e-05
6.10582e-05
6.2594e-05
6.17093e-05
6.33545e-05
6.66638e-05
6.76768e-05
6.9705e-05
6.90333e-05
6.77699e-05
6.19669e-05
5.62825e-05
5.26598e-05
5.2679e-05
5.46235e-05
6.27961e-05
7.11662e-05
7.30846e-05
7.43264e-05
7.35654e-05
7.32245e-05
7.09324e-05
7.01842e-05
6.83471e-05
6.83622e-05
6.8065e-05
6.83842e-05
6.88601e-05
7.10019e-05
7.74473e-05
8.01667e-05
8.20108e-05
8.15057e-05
7.86023e-05
7.43445e-05
7.33363e-05
7.51078e-05
8.54841e-05
9.32348e-05
0.00010153
0.000105515
0.000107139
0.000103783
0.000101676
0.000100145
0.000100161
9.6591e-05
9.63135e-05
9.63932e-05
9.9036e-05
9.76053e-05
9.61982e-05
9.39333e-05
9.07578e-05
8.65153e-05
7.83154e-05
6.91541e-05
6.19053e-05
5.82321e-05
5.79016e-05
1.46871e-05
1.44885e-05
1.40103e-05
1.32218e-05
1.25139e-05
1.20736e-05
1.19845e-05
1.2134e-05
1.26967e-05
1.32125e-05
1.34758e-05
1.35149e-05
1.35676e-05
1.34821e-05
1.3256e-05
1.27877e-05
1.21537e-05
1.1873e-05
1.15899e-05
1.15588e-05
1.16887e-05
1.19734e-05
1.24049e-05
1.254e-05
1.26099e-05
1.26136e-05
1.2454e-05
1.25226e-05
1.26078e-05
1.26871e-05
1.30865e-05
1.32611e-05
1.358e-05
1.39557e-05
1.41752e-05
1.4532e-05
1.45334e-05
1.44397e-05
1.42453e-05
1.4061e-05
1.35592e-05
1.32465e-05
1.27817e-05
1.21172e-05
1.17824e-05
1.10674e-05
1.04243e-05
9.90349e-06
9.11378e-06
8.4898e-06
7.8301e-06
7.10504e-06
6.54318e-06
6.02386e-06
5.60625e-06
5.39103e-06
5.25793e-06
5.27576e-06
5.33969e-06
5.42121e-06
5.62929e-06
5.83135e-06
6.25251e-06
6.58024e-06
7.28204e-06
7.9427e-06
8.68233e-06
9.95732e-06
1.0658e-05
1.18903e-05
1.31928e-05
1.3916e-05
1.52809e-05
1.63896e-05
1.7219e-05
1.78758e-05
1.8069e-05
1.83712e-05
1.87057e-05
1.87707e-05
1.89037e-05
1.9065e-05
1.91695e-05
1.93539e-05
1.9583e-05
1.98197e-05
2.02971e-05
2.11248e-05
2.18302e-05
2.30717e-05
2.52058e-05
2.74719e-05
3.17954e-05
3.69507e-05
4.17819e-05
4.96758e-05
6.42278e-05
9.06835e-05
0.000134875
0.000149549
0.000149279
0.000145866
0.000135205
0.00012633
0.00012094
0.000117722
0.000117215
0.000116743
0.000116724
0.000120418
0.000133161
0.000148483
0.000163961
0.000158179
0.000150809
0.000144982
0.000131013
0.000119731
0.000108928
9.96315e-05
9.30778e-05
8.90958e-05
8.71684e-05
8.6495e-05
8.50976e-05
8.25354e-05
7.84337e-05
7.62205e-05
7.37766e-05
7.32548e-05
7.31241e-05
7.18154e-05
7.17706e-05
6.953e-05
6.93001e-05
6.75245e-05
6.61995e-05
6.57303e-05
6.31088e-05
6.36337e-05
6.24865e-05
6.11109e-05
6.3331e-05
6.20971e-05
6.19382e-05
6.61771e-05
6.63515e-05
6.91622e-05
6.88944e-05
6.95611e-05
6.65142e-05
6.14385e-05
5.60576e-05
5.40096e-05
5.5062e-05
5.77108e-05
6.66497e-05
7.07349e-05
7.2962e-05
7.3104e-05
7.3086e-05
7.15627e-05
7.11494e-05
7.03132e-05
7.02955e-05
6.99923e-05
6.99316e-05
6.94645e-05
7.44603e-05
7.87599e-05
7.85419e-05
7.74372e-05
7.57705e-05
7.24581e-05
7.08431e-05
6.99369e-05
7.43185e-05
8.37987e-05
8.99467e-05
0.000103976
0.000111308
0.000113377
0.000107535
0.00010031
9.6075e-05
9.70461e-05
9.55771e-05
9.50425e-05
9.51769e-05
9.7672e-05
9.95361e-05
9.8855e-05
9.84297e-05
9.54221e-05
9.02749e-05
8.29555e-05
7.29921e-05
6.59973e-05
6.41753e-05
6.57893e-05
3.8687e-06
4.05001e-06
4.3161e-06
4.69985e-06
4.72873e-06
4.66287e-06
4.42208e-06
4.25879e-06
4.23112e-06
4.33492e-06
4.44677e-06
4.46714e-06
4.40398e-06
4.20692e-06
4.05018e-06
3.97981e-06
3.9558e-06
3.99919e-06
4.11957e-06
4.17412e-06
4.20797e-06
4.18163e-06
4.16814e-06
4.13738e-06
4.09314e-06
4.07668e-06
3.94413e-06
3.88008e-06
3.84243e-06
3.7923e-06
3.82631e-06
3.86534e-06
3.92241e-06
4.28408e-06
4.47202e-06
4.58279e-06
4.59689e-06
4.57464e-06
4.43653e-06
4.36672e-06
4.24621e-06
4.12602e-06
4.10144e-06
4.01929e-06
3.9722e-06
3.97767e-06
3.92567e-06
3.9354e-06
3.93809e-06
3.91606e-06
3.9436e-06
3.95269e-06
3.99218e-06
4.11451e-06
4.26863e-06
4.67548e-06
4.97336e-06
5.59096e-06
6.26774e-06
6.82806e-06
8.03866e-06
8.79796e-06
1.02469e-05
1.12668e-05
1.30398e-05
1.47407e-05
1.60034e-05
1.82543e-05
1.96539e-05
2.15873e-05
2.34685e-05
2.48174e-05
2.66843e-05
2.82321e-05
2.90651e-05
2.99586e-05
3.02888e-05
3.04773e-05
3.07942e-05
3.0842e-05
3.08118e-05
3.07302e-05
3.06824e-05
3.05998e-05
3.06194e-05
3.06656e-05
3.08537e-05
3.13509e-05
3.21733e-05
3.38011e-05
3.61805e-05
4.05215e-05
4.57172e-05
5.0474e-05
5.8278e-05
7.29823e-05
0.000101696
0.000147716
0.000158676
0.000156582
0.000148674
0.000132596
0.00012648
0.00012402
0.000121572
0.00011848
0.000116884
0.000116813
0.000122316
0.000139531
0.000151149
0.000165887
0.000158595
0.000145369
0.000139098
0.000130638
0.000124677
0.000115698
0.000106021
9.81349e-05
9.12767e-05
8.72412e-05
8.45853e-05
8.22427e-05
7.9039e-05
7.66498e-05
7.6036e-05
7.33575e-05
7.24795e-05
7.18321e-05
7.18176e-05
7.1711e-05
7.07714e-05
7.03971e-05
6.87544e-05
6.81766e-05
6.6499e-05
6.6722e-05
6.46835e-05
6.60395e-05
6.49822e-05
6.16881e-05
6.47221e-05
6.38076e-05
6.20867e-05
6.65637e-05
6.64338e-05
6.95731e-05
6.89913e-05
7.04628e-05
6.95048e-05
6.57478e-05
6.2798e-05
5.71559e-05
5.68513e-05
5.76422e-05
6.25808e-05
6.76543e-05
7.12296e-05
7.20888e-05
7.22361e-05
7.13737e-05
7.15934e-05
7.15293e-05
7.0738e-05
6.9823e-05
6.98129e-05
6.95016e-05
7.6149e-05
7.87773e-05
7.75064e-05
7.506e-05
7.16094e-05
6.7732e-05
6.66615e-05
6.7269e-05
7.27449e-05
8.48931e-05
9.03988e-05
0.000102804
0.000116682
0.000122819
0.000117207
0.000101367
9.33288e-05
9.18931e-05
9.13445e-05
9.15348e-05
9.20909e-05
9.41126e-05
9.84986e-05
9.88876e-05
9.95768e-05
9.87652e-05
9.59776e-05
8.82087e-05
8.00279e-05
7.48646e-05
7.2657e-05
7.29682e-05
3.03518e-06
3.06129e-06
3.01064e-06
2.87924e-06
2.8132e-06
2.87195e-06
3.2029e-06
3.37383e-06
3.4043e-06
3.28186e-06
3.03659e-06
2.92303e-06
2.98139e-06
3.27185e-06
3.4683e-06
3.53469e-06
3.4643e-06
3.22801e-06
3.0652e-06
3.00545e-06
3.01829e-06
3.06758e-06
3.10005e-06
3.0665e-06
2.95243e-06
2.84527e-06
2.78314e-06
2.76851e-06
2.79291e-06
2.83095e-06
2.85265e-06
2.86951e-06
2.84674e-06
2.8303e-06
2.80558e-06
2.76275e-06
2.72684e-06
2.69232e-06
2.66568e-06
2.66638e-06
2.6759e-06
2.70083e-06
2.80985e-06
2.93079e-06
3.02659e-06
3.2479e-06
3.40024e-06
3.62825e-06
3.79626e-06
4.11107e-06
4.50042e-06
4.81185e-06
5.52161e-06
6.16709e-06
7.05383e-06
8.41769e-06
9.30817e-06
1.11522e-05
1.23279e-05
1.39157e-05
1.59503e-05
1.71824e-05
1.99076e-05
2.16767e-05
2.42636e-05
2.69332e-05
2.8796e-05
3.22013e-05
3.44262e-05
3.6876e-05
3.96375e-05
4.15929e-05
4.38225e-05
4.55479e-05
4.65728e-05
4.7436e-05
4.79982e-05
4.83257e-05
4.82882e-05
4.80931e-05
4.75147e-05
4.6963e-05
4.66316e-05
4.60065e-05
4.53135e-05
4.48129e-05
4.48344e-05
4.52105e-05
4.62218e-05
4.82591e-05
5.26217e-05
5.77726e-05
6.30996e-05
7.05016e-05
8.43562e-05
0.000114121
0.000160506
0.000168125
0.000163821
0.000146492
0.000131891
0.000127095
0.000127563
0.000127661
0.000126721
0.000126586
0.000127712
0.000131812
0.000146807
0.000160401
0.000163484
0.00015752
0.000140996
0.000134489
0.000130324
0.000127442
0.00012337
0.000114436
0.000105424
9.82058e-05
9.06974e-05
8.69775e-05
8.28434e-05
7.84076e-05
7.61183e-05
7.46542e-05
7.42652e-05
7.20459e-05
7.17175e-05
7.13869e-05
6.93645e-05
7.09672e-05
6.99611e-05
7.01764e-05
6.8372e-05
6.9731e-05
6.67319e-05
6.92298e-05
6.76586e-05
6.5368e-05
7.11761e-05
6.43599e-05
6.5181e-05
6.71923e-05
6.41024e-05
6.74741e-05
6.71714e-05
7.1239e-05
6.98244e-05
7.0709e-05
7.04894e-05
6.6161e-05
6.53127e-05
6.1717e-05
6.11174e-05
5.98756e-05
6.15643e-05
6.40677e-05
6.86683e-05
6.99479e-05
7.049e-05
7.06564e-05
7.06752e-05
7.01031e-05
6.91369e-05
6.91638e-05
6.92671e-05
7.10853e-05
7.63422e-05
7.49197e-05
7.06694e-05
6.87109e-05
6.5308e-05
6.42179e-05
6.49843e-05
6.68526e-05
7.24928e-05
9.00301e-05
0.00010007
0.000103797
0.000116186
0.000126355
0.000127507
0.000116649
9.70445e-05
9.19949e-05
9.04667e-05
8.91039e-05
8.90332e-05
8.95913e-05
9.38533e-05
9.74466e-05
9.92695e-05
9.93301e-05
9.86327e-05
9.3477e-05
8.89328e-05
8.4137e-05
8.16062e-05
7.92412e-05
2.44359e-06
2.5017e-06
2.75133e-06
3.21617e-06
3.28069e-06
3.26925e-06
3.07751e-06
2.92442e-06
2.90153e-06
3.17512e-06
3.4288e-06
3.52519e-06
3.44443e-06
3.20983e-06
3.10395e-06
3.14144e-06
3.53102e-06
3.96399e-06
4.151e-06
4.18055e-06
4.01484e-06
3.65612e-06
3.36356e-06
3.19783e-06
3.14482e-06
3.09665e-06
3.06546e-06
3.0554e-06
3.10899e-06
3.35823e-06
3.61821e-06
3.74801e-06
3.78745e-06
3.71974e-06
3.47087e-06
3.24449e-06
3.04464e-06
2.94937e-06
2.92616e-06
2.93768e-06
3.0506e-06
3.4356e-06
4.10264e-06
4.48684e-06
5.19997e-06
5.62316e-06
6.45209e-06
7.04699e-06
7.54564e-06
8.68722e-06
9.60279e-06
1.03682e-05
1.21699e-05
1.33389e-05