/*--------------------------------*- C++ -*----------------------------------*\
| =========                 |                                                 |
| \\      /  F ield         | OpenFOAM: The Open Source CFD Toolbox           |
|  \\    /   O peration     | Version:  2.4.0                                 |
|   \\  /    A nd           | Web:      www.OpenFOAM.org                      |
|    \\/     M anipulation  |                                                 |
\*---------------------------------------------------------------------------*/
FoamFile
{
    version     2.0;
    format      ascii;
    class       volSymmTensorField;
    location    "0.3";
    object      UPrime2Mean;
}
// * * * * * * * * * * * * * * * * * * * * * * * * * * * * * * * * * * * * * //

dimensions      [0 2 -2 0 0 0 0];

internalField   nonuniform List<symmTensor> 
8800
(
(0.00552806 0.000355515 0 0.00063035 0 0)
(0.106053 -0.00417216 0 0.0002273 0 0)
(0.207527 -0.000371257 0 4.71168e-05 0 0)
(0.258448 0.000651155 0 1.28166e-05 0 0)
(0.295589 0.000538459 0 3.14547e-06 0 0)
(0.324673 0.000405759 0 2.02812e-06 0 0)
(0.342772 0.00030345 0 2.19069e-06 0 0)
(0.358528 0.000161536 0 2.20261e-06 0 0)
(0.367509 0.000118844 0 2.74727e-06 0 0)
(0.378385 3.05428e-05 0 2.5613e-06 0 0)
(0.382951 5.16012e-05 0 2.66478e-06 0 0)
(0.392915 -6.26146e-05 0 2.93516e-06 0 0)
(0.395552 -2.68783e-05 0 3.07426e-06 0 0)
(0.408811 -0.00019617 0 3.44945e-06 0 0)
(0.412344 -0.000342296 0 4.35817e-06 0 0)
(0.434586 -0.000182138 0 5.90598e-06 0 0)
(0.459258 -0.00297128 0 4.01086e-05 0 0)
(0.478815 0.00617146 0 0.000227303 0 0)
(0.748693 -0.0562066 0 0.00571167 0 0)
(0.774984 0.0871258 0 0.017271 0 0)
(0.0289556 0.00958358 0 0.00374578 0 0)
(0.00249825 -0.0033118 0 0.00489821 0 0)
(0.0253346 -0.0067349 0 0.00196069 0 0)
(0.0516157 -0.00589546 0 0.000705979 0 0)
(0.0816656 -0.00519239 0 0.000355661 0 0)
(0.123121 -0.00472731 0 0.000252792 0 0)
(0.159725 -0.00380384 0 0.000185187 0 0)
(0.201097 -0.00315002 0 0.000131778 0 0)
(0.227681 -0.00231709 0 7.79199e-05 0 0)
(0.262552 -0.00221715 0 6.31276e-05 0 0)
(0.275538 -0.00163579 0 3.07862e-05 0 0)
(0.313236 -0.00211665 0 3.9727e-05 0 0)
(0.311421 -0.00164941 0 2.94011e-05 0 0)
(0.364887 -0.00318536 0 7.24843e-05 0 0)
(0.34735 -0.00169106 0 3.8685e-05 0 0)
(0.43402 -0.00870069 0 0.000263666 0 0)
(0.41757 0.000696974 0 0.000156471 0 0)
(0.555721 -0.0348136 0 0.00251908 0 0)
(0.673937 -0.0149009 0 0.00158132 0 0)
(0.965558 -0.197776 0 0.0631485 0 0)
(0.028688 0.00706759 0 0.00204377 0 0)
(0.00248695 0.00320284 0 0.0051858 0 0)
(0.00256855 0.0016747 0 0.00317436 0 0)
(0.00372388 0.000733295 0 0.00166314 0 0)
(0.00279741 -0.000233345 0 0.00123445 0 0)
(0.00536824 -0.00200045 0 0.00114628 0 0)
(0.0117826 -0.00289796 0 0.000982985 0 0)
(0.0277621 -0.00381613 0 0.000766118 0 0)
(0.0406433 -0.00349509 0 0.000536404 0 0)
(0.0647627 -0.00389798 0 0.000375406 0 0)
(0.0722857 -0.00323256 0 0.000201898 0 0)
(0.106833 -0.0036948 0 0.000228064 0 0)
(0.103459 -0.00354249 0 0.000167302 0 0)
(0.1488 -0.00456262 0 0.000334587 0 0)
(0.144253 -0.00474458 0 0.000327205 0 0)
(0.193944 -0.0080398 0 0.000694355 0 0)
(0.214569 -0.0103045 0 0.00105354 0 0)
(0.273192 -0.0202531 0 0.00225591 0 0)
(0.360558 -0.0514553 0 0.0109574 0 0)
(0.51624 -0.133031 0 0.0671209 0 0)
(0.0277464 0.00484934 0 0.00100772 0 0)
(0.00255788 0.00215599 0 0.00341294 0 0)
(0.00609219 0.00335675 0 0.00274679 0 0)
(0.0131435 0.00371752 0 0.00153681 0 0)
(0.0214816 0.00442217 0 0.00129 0 0)
(0.0193564 0.00402244 0 0.00148869 0 0)
(0.0206324 0.00388853 0 0.00154812 0 0)
(0.0140277 0.00227328 0 0.0014867 0 0)
(0.0145293 0.00175075 0 0.00118941 0 0)
(0.0102391 8.53367e-05 0 0.00095685 0 0)
(0.0101274 0.000348268 0 0.000539365 0 0)
(0.0110328 -0.00126797 0 0.000748228 0 0)
(0.00968907 -0.000532499 0 0.000381676 0 0)
(0.0151294 -0.00272848 0 0.000930768 0 0)
(0.0157725 -0.00127787 0 0.000530689 0 0)
(0.0245359 -0.0048919 0 0.00155052 0 0)
(0.0306813 -0.00399586 0 0.00112143 0 0)
(0.04943 -0.0113865 0 0.00515081 0 0)
(0.0741954 -0.023735 0 0.0128532 0 0)
(0.119564 -0.056018 0 0.0614793 0 0)
(0.0297732 0.00373524 0 0.000586697 0 0)
(0.00239155 0.00104923 0 0.00221757 0 0)
(0.00537738 0.00244797 0 0.00203822 0 0)
(0.0123823 0.00293647 0 0.0011435 0 0)
(0.0257203 0.00388472 0 0.000884019 0 0)
(0.0278894 0.00431079 0 0.00112351 0 0)
(0.0391377 0.00529931 0 0.00131073 0 0)
(0.0352256 0.00486133 0 0.00142235 0 0)
(0.0459735 0.00492845 0 0.00121141 0 0)
(0.039592 0.00378541 0 0.00124457 0 0)
(0.0497485 0.00396328 0 0.0006262 0 0)
(0.041508 0.00332231 0 0.00110759 0 0)
(0.0504034 0.00320684 0 0.00051745 0 0)
(0.0401672 0.00366389 0 0.00138944 0 0)
(0.0465755 0.00313432 0 0.00077185 0 0)
(0.0347725 0.0046897 0 0.00237568 0 0)
(0.0364305 0.00470791 0 0.00180056 0 0)
(0.0241597 0.00790069 0 0.00848373 0 0)
(0.0234368 0.0100457 0 0.0146422 0 0)
(0.0249165 0.0151283 0 0.0832218 0 0)
(0.0305437 0.00265375 0 0.000343818 0 0)
(0.00217908 0.00056239 0 0.00152875 0 0)
(0.0038222 0.00149535 0 0.00145321 0 0)
(0.00990069 0.00209932 0 0.000869119 0 0)
(0.0210612 0.00257729 0 0.000561698 0 0)
(0.0249872 0.00307817 0 0.000739812 0 0)
(0.0347792 0.00394982 0 0.000924129 0 0)
(0.0353932 0.00421962 0 0.00110364 0 0)
(0.0458678 0.00402556 0 0.000941969 0 0)
(0.0469286 0.00385255 0 0.00102348 0 0)
(0.0579053 0.00359972 0 0.000550114 0 0)
(0.0594006 0.00413468 0 0.000900991 0 0)
(0.0704221 0.00360813 0 0.000547454 0 0)
(0.0709652 0.00542573 0 0.00106352 0 0)
(0.0801999 0.00521723 0 0.000848647 0 0)
(0.0787859 0.00822618 0 0.00185196 0 0)
(0.0829813 0.0112446 0 0.00239333 0 0)
(0.0787653 0.0185989 0 0.00739804 0 0)
(0.0793266 0.032737 0 0.01963 0 0)
(0.0858443 0.0571494 0 0.0642102 0 0)
(0.0290175 0.00173138 0 0.00020973 0 0)
(0.00227012 0.000417256 0 0.00105243 0 0)
(0.00292673 0.000712318 0 0.000973623 0 0)
(0.00901321 0.00159078 0 0.000689488 0 0)
(0.0171653 0.0016253 0 0.000366231 0 0)
(0.0236972 0.00219789 0 0.000515303 0 0)
(0.0288331 0.00260022 0 0.00067486 0 0)
(0.0334772 0.00331586 0 0.000792245 0 0)
(0.0385184 0.00267413 0 0.00056556 0 0)
(0.0446588 0.00319849 0 0.000834548 0 0)
(0.0500509 0.00227748 0 0.000372107 0 0)
(0.0579313 0.00379791 0 0.000770459 0 0)
(0.0636603 0.00224907 0 0.000390084 0 0)
(0.0721911 0.00532713 0 0.000956593 0 0)
(0.0766887 0.00374678 0 0.000639741 0 0)
(0.0851408 0.00942994 0 0.00187265 0 0)
(0.0871782 0.0101474 0 0.00226951 0 0)
(0.095319 0.0233285 0 0.00813018 0 0)
(0.0980741 0.0342367 0 0.0179229 0 0)
(0.120217 0.0695488 0 0.0570016 0 0)
(0.0292182 0.00117122 0 0.000120856 0 0)
(0.00273928 0.000290349 0 0.00060396 0 0)
(0.00314758 0.000413789 0 0.000558309 0 0)
(0.0083706 0.0010337 0 0.000415781 0 0)
(0.0158571 0.0010795 0 0.000220386 0 0)
(0.0216914 0.00144342 0 0.000330073 0 0)
(0.0271411 0.00177252 0 0.000432403 0 0)
(0.0303848 0.00220405 0 0.000489572 0 0)
(0.0357581 0.00182832 0 0.000375949 0 0)
(0.0400848 0.00204876 0 0.00050869 0 0)
(0.0468072 0.00158965 0 0.000320458 0 0)
(0.052157 0.00236607 0 0.000509717 0 0)
(0.0597994 0.00176618 0 0.000365229 0 0)
(0.0654043 0.00341153 0 0.000632467 0 0)
(0.0731112 0.00349819 0 0.000542836 0 0)
(0.0781725 0.00716895 0 0.00142637 0 0)
(0.0857022 0.0102021 0 0.00218488 0 0)
(0.0914711 0.0209559 0 0.00722436 0 0)
(0.103735 0.0340235 0 0.0164194 0 0)
(0.125497 0.0668708 0 0.0490344 0 0)
(0.0283034 0.00052488 0 9.02018e-05 0 0)
(0.00216502 -3.24838e-05 0 0.000337171 0 0)
(0.00255311 3.59077e-06 0 0.000313724 0 0)
(0.00738496 0.000440892 0 0.000239962 0 0)
(0.0139286 0.000457095 0 0.000168953 0 0)
(0.0204893 0.000675191 0 0.000253803 0 0)
(0.0242699 0.000803755 0 0.000327777 0 0)
(0.0288062 0.00113763 0 0.000343335 0 0)
(0.0320847 0.0008214 0 0.000261544 0 0)
(0.0380467 0.001113 0 0.000377079 0 0)
(0.0421947 0.000679406 0 0.000287212 0 0)
(0.0497026 0.00148113 0 0.000408586 0 0)
(0.0543903 0.000980604 0 0.000296576 0 0)
(0.0629133 0.00243917 0 0.000479696 0 0)
(0.0670523 0.00270369 0 0.000426852 0 0)
(0.076421 0.00590069 0 0.00116399 0 0)
(0.0807884 0.00950605 0 0.00193817 0 0)
(0.092933 0.0186059 0 0.00623183 0 0)
(0.104019 0.0334946 0 0.0144777 0 0)
(0.133597 0.0612076 0 0.0401289 0 0)
(0.0278842 0.0001768 0 6.00908e-05 0 0)
(0.00130884 -3.93962e-05 0 0.000178978 0 0)
(0.00190665 -3.64502e-05 0 0.000184375 0 0)
(0.00623019 0.000138227 0 0.000120394 0 0)
(0.0127948 0.000157917 0 0.000109152 0 0)
(0.0187434 0.000184771 0 0.000184967 0 0)
(0.0231589 0.00021003 0 0.000229502 0 0)
(0.0266055 0.000344726 0 0.000199544 0 0)
(0.0306455 0.000242371 0 0.000163136 0 0)
(0.0353572 0.000345366 0 0.000221213 0 0)
(0.0407107 0.00014108 0 0.000238069 0 0)
(0.0466393 0.000651245 0 0.00027307 0 0)
(0.0527757 0.000441683 0 0.000246062 0 0)
(0.059529 0.00154453 0 0.000313595 0 0)
(0.0659466 0.00188147 0 0.000364072 0 0)
(0.0735774 0.00515743 0 0.000840295 0 0)
(0.0813311 0.00805323 0 0.00178536 0 0)
(0.0931945 0.018021 0 0.00506796 0 0)
(0.108957 0.0302796 0 0.0126296 0 0)
(0.140487 0.0585243 0 0.0322917 0 0)
(0.0276209 -0.000293025 0 6.70044e-05 0 0)
(0.000941322 -0.000176597 0 0.000184246 0 0)
(0.0015669 -0.000170631 0 0.000192138 0 0)
(0.00583985 -0.000257793 0 0.000144499 0 0)
(0.0124775 -0.000286094 0 0.000143311 0 0)
(0.018412 -0.000349295 0 0.000199256 0 0)
(0.0228768 -0.000489878 0 0.000236661 0 0)
(0.0262501 -0.000456966 0 0.000225112 0 0)
(0.0304676 -0.000545083 0 0.000205614 0 0)
(0.0350895 -0.000397533 0 0.000212095 0 0)
(0.0405179 -0.000541911 0 0.000253453 0 0)
(0.0462889 -0.000130817 0 0.000293703 0 0)
(0.0526665 -0.000184508 0 0.000240519 0 0)
(0.0593925 0.000613292 0 0.000286659 0 0)
(0.0662733 0.00125707 0 0.000272556 0 0)
(0.0743307 0.00373195 0 0.000757501 0 0)
(0.0838345 0.00730995 0 0.00136255 0 0)
(0.0972526 0.0155636 0 0.00438684 0 0)
(0.117105 0.0285604 0 0.0100216 0 0)
(0.149477 0.0526928 0 0.0261601 0 0)
(0.0274474 -0.00070026 0 6.73017e-05 0 0)
(0.000936049 -0.000262451 0 0.000284241 0 0)
(0.00161236 -0.000269551 0 0.000276827 0 0)
(0.00615828 -0.000637259 0 0.00020584 0 0)
(0.0128234 -0.00065578 0 0.000151778 0 0)
(0.019106 -0.000923051 0 0.00023326 0 0)
(0.023217 -0.00113053 0 0.000295152 0 0)
(0.0272409 -0.00135651 0 0.000315288 0 0)
(0.0309809 -0.00118384 0 0.000281745 0 0)
(0.0364313 -0.00123417 0 0.000276739 0 0)
(0.0414042 -0.0010886 0 0.000303333 0 0)
(0.0481804 -0.000971146 0 0.000314545 0 0)
(0.0539481 -0.000713714 0 0.000266493 0 0)
(0.0619986 -0.000387842 0 0.000269146 0 0)
(0.0684344 0.000512616 0 0.000310197 0 0)
(0.0784368 0.00247738 0 0.000561612 0 0)
(0.0880808 0.00604314 0 0.00122313 0 0)
(0.105117 0.013412 0 0.00329389 0 0)
(0.126353 0.0255086 0 0.00813541 0 0)
(0.163516 0.0476521 0 0.0196651 0 0)
(0.0276111 -0.0012227 0 0.000108972 0 0)
(0.000854125 -0.000380027 0 0.000553144 0 0)
(0.00168396 -0.00048603 0 0.000519355 0 0)
(0.00666479 -0.00109672 0 0.000383885 0 0)
(0.0140809 -0.00117814 0 0.000232236 0 0)
(0.0201654 -0.00153997 0 0.000319864 0 0)
(0.0252241 -0.00195419 0 0.000423684 0 0)
(0.0288714 -0.00225409 0 0.000483414 0 0)
(0.0337326 -0.00205423 0 0.000426896 0 0)
(0.0385905 -0.00203957 0 0.000387901 0 0)
(0.0448559 -0.00184807 0 0.000347351 0 0)
(0.0508904 -0.0018062 0 0.000370211 0 0)
(0.0582985 -0.00150074 0 0.000279947 0 0)
(0.0655404 -0.00137201 0 0.000284042 0 0)
(0.0742607 -0.000444628 0 0.000296664 0 0)
(0.0835994 0.0011437 0 0.000493834 0 0)
(0.0966137 0.00447543 0 0.000979492 0 0)
(0.113846 0.0108423 0 0.00248359 0 0)
(0.14068 0.0217459 0 0.0061857 0 0)
(0.178433 0.041543 0 0.0147332 0 0)
(0.0279201 -0.0018669 0 0.000185539 0 0)
(0.000800585 -0.00058253 0 0.000972239 0 0)
(0.0019596 -0.000896291 0 0.000892654 0 0)
(0.00771992 -0.00166833 0 0.000611072 0 0)
(0.0162124 -0.00179951 0 0.000341454 0 0)
(0.0222214 -0.00236234 0 0.000461924 0 0)
(0.0281566 -0.00284068 0 0.000586951 0 0)
(0.0319773 -0.00337161 0 0.000725179 0 0)
(0.0378839 -0.00298722 0 0.00060763 0 0)
(0.0428937 -0.00313598 0 0.00060479 0 0)
(0.0500323 -0.00263314 0 0.000427628 0 0)
(0.0563404 -0.00297781 0 0.000505592 0 0)
(0.0644584 -0.00227846 0 0.000320113 0 0)
(0.0722091 -0.00280221 0 0.00040014 0 0)
(0.0818511 -0.00133281 0 0.000323117 0 0)
(0.0923717 -0.000785095 0 0.000518838 0 0)
(0.106434 0.00295368 0 0.000760911 0 0)
(0.125884 0.00733048 0 0.00184896 0 0)
(0.154742 0.0175865 0 0.00438796 0 0)
(0.195726 0.0335307 0 0.0106048 0 0)
(0.0292198 -0.00278157 0 0.000337111 0 0)
(0.00102124 -0.000744897 0 0.00150533 0 0)
(0.00302886 -0.0016674 0 0.00143797 0 0)
(0.00910726 -0.00223311 0 0.000853602 0 0)
(0.0204236 -0.00277078 0 0.000559396 0 0)
(0.0243665 -0.00329116 0 0.000720368 0 0)
(0.0341837 -0.00413995 0 0.000909679 0 0)
(0.0347881 -0.00440755 0 0.00109014 0 0)
(0.0454016 -0.00436651 0 0.000940874 0 0)
(0.0460796 -0.00408256 0 0.000897763 0 0)
(0.0580392 -0.00378869 0 0.0006044 0 0)
(0.058946 -0.00395667 0 0.000713803 0 0)
(0.0717168 -0.00332404 0 0.000430652 0 0)
(0.0727911 -0.00395438 0 0.000571729 0 0)
(0.0865271 -0.00231064 0 0.000388555 0 0)
(0.0894359 -0.00241774 0 0.00059006 0 0)
(0.106433 0.00142071 0 0.000634599 0 0)
(0.117165 0.00373879 0 0.00131751 0 0)
(0.146315 0.0128994 0 0.00298033 0 0)
(0.177681 0.0231835 0 0.00672502 0 0)
(0.029158 -0.00384413 0 0.000597214 0 0)
(0.00159264 -0.00113844 0 0.00221137 0 0)
(0.00465658 -0.00262901 0 0.00206654 0 0)
(0.0113966 -0.00300772 0 0.00113521 0 0)
(0.0251167 -0.0040833 0 0.000903152 0 0)
(0.0269224 -0.00443046 0 0.00110971 0 0)
(0.0385493 -0.00554797 0 0.00132573 0 0)
(0.0341305 -0.00497004 0 0.00143127 0 0)
(0.0453832 -0.00525176 0 0.00126096 0 0)
(0.0384362 -0.00398832 0 0.00109035 0 0)
(0.0494452 -0.00414621 0 0.000755241 0 0)
(0.0409193 -0.00332396 0 0.0008096 0 0)
(0.0511368 -0.00322979 0 0.000493044 0 0)
(0.041644 -0.00278919 0 0.000654103 0 0)
(0.0512582 -0.00194681 0 0.000389227 0 0)
(0.0430832 -0.00147361 0 0.000616871 0 0)
(0.0537601 0.00089785 0 0.000482446 0 0)
(0.0517259 0.00226777 0 0.000987152 0 0)
(0.0700741 0.00804596 0 0.0019293 0 0)
(0.0854417 0.0130238 0 0.00398498 0 0)
(0.0275355 -0.00489331 0 0.0010112 0 0)
(0.002172 -0.00215741 0 0.00340558 0 0)
(0.00565055 -0.00344697 0 0.00276399 0 0)
(0.0123371 -0.00371052 0 0.00154223 0 0)
(0.0209948 -0.00453748 0 0.0013111 0 0)
(0.0182485 -0.00403125 0 0.00149458 0 0)
(0.0201035 -0.00401957 0 0.0015791 0 0)
(0.0127666 -0.00223744 0 0.00147677 0 0)
(0.0136137 -0.00199225 0 0.00118082 0 0)
(0.00893209 -0.000254223 0 0.00089799 0 0)
(0.00913872 -0.000503923 0 0.000595445 0 0)
(0.00952819 0.000836992 0 0.000575117 0 0)
(0.00825869 0.000325539 0 0.000349295 0 0)
(0.0138744 0.0015858 0 0.000439065 0 0)
(0.0117335 0.00072144 0 0.000247744 0 0)
(0.021161 0.00212776 0 0.000401047 0 0)
(0.0194157 0.000978909 0 0.000332182 0 0)
(0.0309383 0.00300906 0 0.000585542 0 0)
(0.034358 0.00293341 0 0.0013288 0 0)
(0.0497785 0.00685911 0 0.00187464 0 0)
(0.0286483 -0.00708495 0 0.00204695 0 0)
(0.00240462 -0.00319322 0 0.00517466 0 0)
(0.00238385 -0.00169846 0 0.00317888 0 0)
(0.00347934 -0.000719322 0 0.00165829 0 0)
(0.00246326 0.000194589 0 0.00123916 0 0)
(0.00507873 0.00200213 0 0.00114113 0 0)
(0.0110621 0.0028483 0 0.000987786 0 0)
(0.0277045 0.0038546 0 0.000772236 0 0)
(0.0387352 0.00342239 0 0.000521475 0 0)
(0.0643197 0.00374299 0 0.000347698 0 0)
(0.0708107 0.00295421 0 0.000200098 0 0)
(0.102519 0.00338421 0 0.000186893 0 0)
(0.100968 0.00247859 0 0.000117103 0 0)
(0.137663 0.00316435 0 0.000144901 0 0)
(0.128929 0.0015759 0 8.89347e-05 0 0)
(0.165817 0.00270636 0 0.000152814 0 0)
(0.152413 -0.00042054 0 0.00015393 0 0)
(0.179633 0.0022334 0 0.000293322 0 0)
(0.168742 -0.00234716 0 0.000613653 0 0)
(0.176142 0.00488194 0 0.00121908 0 0)
(0.0289457 -0.00958575 0 0.00374694 0 0)
(0.00250581 0.00331632 0 0.00489466 0 0)
(0.0252691 0.00673204 0 0.00196112 0 0)
(0.0516373 0.00589674 0 0.000704728 0 0)
(0.0814384 0.0051912 0 0.000355733 0 0)
(0.123292 0.00472193 0 0.000251572 0 0)
(0.159169 0.00379784 0 0.000184214 0 0)
(0.201606 0.00314018 0 0.000128552 0 0)
(0.226198 0.00231348 0 7.75556e-05 0 0)
(0.262568 0.00207287 0 5.28612e-05 0 0)
(0.274082 0.00155597 0 3.05657e-05 0 0)
(0.308303 0.00168839 0 3.36794e-05 0 0)
(0.309253 0.00118188 0 2.66283e-05 0 0)
(0.344101 0.00146598 0 3.03386e-05 0 0)
(0.336061 0.000538116 0 2.47092e-05 0 0)
(0.368382 0.000881636 0 3.51706e-05 0 0)
(0.351691 -0.00109735 0 5.02683e-05 0 0)
(0.369061 0.000288882 0 8.49204e-05 0 0)
(0.354221 -0.00369693 0 0.000206043 0 0)
(0.331912 0.00238456 0 0.000730938 0 0)
(0.00552855 -0.000354901 0 0.000630432 0 0)
(0.106071 0.00417139 0 0.000227231 0 0)
(0.207507 0.000373 0 4.70338e-05 0 0)
(0.258456 -0.000652427 0 1.2752e-05 0 0)
(0.295521 -0.000536472 0 3.03275e-06 0 0)
(0.324761 -0.00040829 0 1.95621e-06 0 0)
(0.342605 -0.000303717 0 2.11221e-06 0 0)
(0.358663 -0.000165189 0 2.09392e-06 0 0)
(0.367022 -0.000131995 0 2.14818e-06 0 0)
(0.378254 -4.62086e-05 0 1.9892e-06 0 0)
(0.381748 -7.79507e-05 0 2.3319e-06 0 0)
(0.391061 -3.86539e-06 0 2.2361e-06 0 0)
(0.391507 -8.15791e-05 0 2.01933e-06 0 0)
(0.400121 -1.15771e-05 0 1.58987e-06 0 0)
(0.397234 -0.000184243 0 1.68874e-06 0 0)
(0.403304 -0.000151103 0 1.58939e-06 0 0)
(0.394397 -0.000481567 0 2.67822e-06 0 0)
(0.392121 -0.000391496 0 4.44546e-06 0 0)
(0.380431 -0.00134362 0 1.30786e-05 0 0)
(0.34588 0.00183758 0 0.000126232 0 0)
(1.54113 -0.788112 0 0.484791 0 0)
(1.73556 -0.940344 0 0.683582 0 0)
(1.71391 -0.911269 0 0.821596 0 0)
(1.67225 -0.803481 0 0.917823 0 0)
(1.66271 -0.673989 0 0.972746 0 0)
(1.76906 -0.581437 0 1.01185 0 0)
(1.92451 -0.548638 0 1.04943 0 0)
(2.20519 -0.581011 0 1.10233 0 0)
(2.44942 -0.638666 0 1.16227 0 0)
(2.70152 -0.699955 0 1.22019 0 0)
(2.85815 -0.752347 0 1.28368 0 0)
(3.02947 -0.795569 0 1.3621 0 0)
(3.13526 -0.815497 0 1.44582 0 0)
(3.28331 -0.841971 0 1.51595 0 0)
(3.42652 -0.868286 0 1.55758 0 0)
(3.57723 -0.925753 0 1.58379 0 0)
(3.71604 -1.00964 0 1.62395 0 0)
(3.82609 -1.11535 0 1.69065 0 0)
(3.86781 -1.20913 0 1.79792 0 0)
(3.94734 -1.3034 0 1.93235 0 0)
(4.07211 -1.34857 0 2.03457 0 0)
(4.20666 -1.41808 0 2.1317 0 0)
(4.43608 -1.50816 0 2.22779 0 0)
(4.61717 -1.60748 0 2.32869 0 0)
(4.91108 -1.73926 0 2.43526 0 0)
(5.13647 -1.85828 0 2.55577 0 0)
(5.44593 -2.00331 0 2.67679 0 0)
(5.67268 -2.16071 0 2.80325 0 0)
(5.94509 -2.35312 0 2.9389 0 0)
(6.10153 -2.53988 0 3.08635 0 0)
(6.25387 -2.71812 0 3.23717 0 0)
(6.29677 -2.85574 0 3.37277 0 0)
(6.33997 -2.97239 0 3.494 0 0)
(6.38011 -3.06396 0 3.5876 0 0)
(6.4394 -3.1568 0 3.67476 0 0)
(6.59513 -3.25825 0 3.731 0 0)
(6.70295 -3.34697 0 3.7799 0 0)
(6.9289 -3.45714 0 3.80144 0 0)
(7.05167 -3.53592 0 3.82167 0 0)
(7.23757 -3.61626 0 3.8325 0 0)
(7.31387 -3.66589 0 3.85772 0 0)
(7.39565 -3.69994 0 3.88569 0 0)
(7.42346 -3.72003 0 3.92156 0 0)
(7.42263 -3.71251 0 3.96729 0 0)
(7.45339 -3.72686 0 4.01258 0 0)
(7.44052 -3.71146 0 4.07474 0 0)
(7.51746 -3.74425 0 4.1396 0 0)
(7.54283 -3.75065 0 4.23034 0 0)
(7.68315 -3.81446 0 4.33653 0 0)
(7.7654 -3.85486 0 4.4731 0 0)
(7.93105 -3.93761 0 4.62545 0 0)
(8.04156 -3.9893 0 4.80237 0 0)
(8.15732 -4.04295 0 4.97682 0 0)
(8.24181 -4.04878 0 5.14897 0 0)
(8.24152 -4.00439 0 5.27898 0 0)
(8.27051 -3.925 0 5.39798 0 0)
(8.18051 -3.77519 0 5.43461 0 0)
(8.1876 -3.62708 0 5.48778 0 0)
(8.12369 -3.46119 0 5.4635 0 0)
(8.19095 -3.30488 0 5.48174 0 0)
(8.22136 -3.20467 0 5.46995 0 0)
(8.41889 -3.11062 0 5.516 0 0)
(8.52638 -3.07904 0 5.57937 0 0)
(8.80655 -3.07698 0 5.70048 0 0)
(8.91169 -3.02608 0 5.79947 0 0)
(9.13173 -3.05285 0 5.94689 0 0)
(9.18052 -2.92973 0 5.99015 0 0)
(9.25623 -2.84135 0 6.04538 0 0)
(9.24114 -2.68895 0 6.0582 0 0)
(9.28554 -2.55325 0 6.20956 0 0)
(9.2433 -2.43286 0 6.40333 0 0)
(9.33377 -2.26225 0 6.57791 0 0)
(9.37253 -2.10156 0 6.73429 0 0)
(9.55107 -1.98392 0 6.8693 0 0)
(9.61888 -1.84232 0 7.11588 0 0)
(9.84559 -1.77688 0 7.37581 0 0)
(9.99561 -1.65582 0 7.75527 0 0)
(10.1843 -1.60017 0 8.14257 0 0)
(10.2909 -1.46774 0 8.60708 0 0)
(10.3688 -1.3425 0 9.05279 0 0)
(10.2963 -1.17875 0 9.51173 0 0)
(10.2635 -1.02573 0 9.85783 0 0)
(10.1828 -0.880435 0 10.1813 0 0)
(10.0924 -0.748144 0 10.4127 0 0)
(10.034 -0.623391 0 10.5682 0 0)
(9.94275 -0.447935 0 10.7108 0 0)
(9.90648 -0.296729 0 10.8446 0 0)
(9.76978 -0.0907618 0 11.0672 0 0)
(9.79313 0.117537 0 11.2788 0 0)
(9.68079 0.368116 0 11.5458 0 0)
(9.72472 0.566952 0 11.7083 0 0)
(9.66958 0.742852 0 11.8411 0 0)
(9.78744 0.976433 0 11.9041 0 0)
(9.7764 1.16583 0 11.9643 0 0)
(9.84687 1.43998 0 11.9837 0 0)
(9.73081 1.68722 0 12.0317 0 0)
(9.77123 1.96505 0 12.0729 0 0)
(9.57259 2.30066 0 12.1871 0 0)
(9.43396 2.54513 0 12.3233 0 0)
(9.0105 2.89726 0 12.5531 0 0)
(8.75023 3.15701 0 12.8559 0 0)
(8.20715 3.34994 0 13.1597 0 0)
(7.89682 3.52745 0 13.7117 0 0)
(7.41037 3.59269 0 14.1164 0 0)
(7.1969 3.59733 0 14.3569 0 0)
(6.79184 3.58135 0 14.5578 0 0)
(6.7021 3.62197 0 14.6679 0 0)
(6.29256 3.58446 0 14.7297 0 0)
(6.26823 3.63148 0 14.6861 0 0)
(5.84516 3.60546 0 14.6855 0 0)
(5.83917 3.54475 0 14.4951 0 0)
(5.38831 3.4341 0 14.4464 0 0)
(5.3965 3.26867 0 14.2757 0 0)
(4.96025 3.08501 0 14.3772 0 0)
(5.00638 2.94488 0 14.3681 0 0)
(4.63966 2.70652 0 14.5091 0 0)
(4.82015 2.67945 0 14.5211 0 0)
(4.53049 2.40082 0 14.6637 0 0)
(4.83553 2.42505 0 14.7196 0 0)
(4.57943 2.21234 0 14.8175 0 0)
(4.99428 2.23951 0 14.873 0 0)
(4.70549 2.11935 0 14.9 0 0)
(5.14442 2.20209 0 15.0178 0 0)
(4.69667 2.02345 0 15.014 0 0)
(5.0996 2.1439 0 15.1419 0 0)
(4.54958 1.87868 0 14.9566 0 0)
(4.95968 2.01443 0 14.9932 0 0)
(4.32808 1.67332 0 14.7944 0 0)
(4.82744 1.89585 0 14.8193 0 0)
(4.1444 1.46296 0 14.6129 0 0)
(4.77227 1.72504 0 14.6681 0 0)
(4.0516 1.25775 0 14.5358 0 0)
(4.73547 1.52061 0 14.6067 0 0)
(3.97531 1.08405 0 14.5592 0 0)
(4.65401 1.22919 0 14.532 0 0)
(3.83381 0.876523 0 14.5849 0 0)
(4.52801 1.00922 0 14.5381 0 0)
(3.67366 0.731508 0 14.7549 0 0)
(4.3645 0.880973 0 14.7561 0 0)
(3.45818 0.62092 0 14.9155 0 0)
(4.14761 0.724632 0 14.8417 0 0)
(3.22704 0.456616 0 14.8095 0 0)
(3.98963 0.616572 0 14.7989 0 0)
(3.07603 0.334484 0 14.7047 0 0)
(3.84759 0.454722 0 14.7722 0 0)
(2.98928 0.225621 0 14.6354 0 0)
(3.71564 0.282121 0 14.6415 0 0)
(2.94622 0.181481 0 14.4379 0 0)
(3.6032 0.197936 0 14.4766 0 0)
(2.90568 0.0180234 0 14.2347 0 0)
(3.49213 0.158067 0 14.3172 0 0)
(2.86224 -0.144699 0 13.8984 0 0)
(3.3745 0.121333 0 13.9228 0 0)
(2.81581 -0.243432 0 13.4229 0 0)
(3.28622 0.0138064 0 13.3935 0 0)
(2.80418 -0.323301 0 12.9564 0 0)
(3.2123 -0.0895524 0 12.8712 0 0)
(2.82186 -0.390605 0 12.5766 0 0)
(3.15346 -0.253367 0 12.409 0 0)
(2.83215 -0.512175 0 12.3376 0 0)
(3.06388 -0.410993 0 12.3097 0 0)
(2.86159 -0.702379 0 12.2226 0 0)
(2.97645 -0.649855 0 12.2053 0 0)
(2.85767 -0.82062 0 12.0372 0 0)
(2.96845 -0.905426 0 11.9789 0 0)
(2.79655 -0.98023 0 11.6946 0 0)
(2.92141 -1.18492 0 11.6645 0 0)
(2.75016 -1.24209 0 11.3947 0 0)
(2.85974 -1.3132 0 11.3146 0 0)
(2.74022 -1.50375 0 10.8988 0 0)
(2.83773 -1.42475 0 10.6027 0 0)
(2.75283 -1.68049 0 10.2395 0 0)
(2.85849 -1.47572 0 9.70331 0 0)
(2.76068 -1.8098 0 9.61813 0 0)
(3.00176 -1.43183 0 8.96042 0 0)
(2.79311 -1.76559 0 8.96663 0 0)
(3.25603 -1.23718 0 8.39268 0 0)
(2.89398 -1.59951 0 8.34229 0 0)
(3.38213 -1.0638 0 7.91172 0 0)
(3.02679 -1.23054 0 7.56605 0 0)
(3.31705 -0.895127 0 7.44497 0 0)
(3.13227 -0.752113 0 6.86235 0 0)
(3.20651 -0.659078 0 7.12517 0 0)
(3.11669 -0.269054 0 6.30339 0 0)
(3.03343 -0.443816 0 6.86477 0 0)
(2.94165 0.187738 0 5.92303 0 0)
(2.68202 -0.262295 0 6.81189 0 0)
(2.58676 0.559905 0 5.7578 0 0)
(2.28216 -0.073962 0 6.91624 0 0)
(2.20938 0.830278 0 5.65465 0 0)
(1.85253 0.0362654 0 7.00884 0 0)
(1.91775 1.05537 0 5.50214 0 0)
(1.42108 0.0717825 0 7.21807 0 0)
(1.64202 1.30194 0 5.62642 0 0)
(1.16113 0.225522 0 7.93513 0 0)
(1.56814 1.82849 0 6.48553 0 0)
(1.11604 0.524874 0 9.69745 0 0)
(1.5661 2.83198 0 9.12573 0 0)
(1.33787 1.99141 0 14.0189 0 0)
(0.476539 0.84122 0 15.912 0 0)
(1.28316 -0.650769 0 0.552448 0 0)
(1.29216 -0.688551 0 0.718659 0 0)
(1.23295 -0.635534 0 0.761483 0 0)
(1.18315 -0.565198 0 0.781329 0 0)
(1.16212 -0.500824 0 0.778959 0 0)
(1.19132 -0.478727 0 0.773252 0 0)
(1.26537 -0.505149 0 0.789095 0 0)
(1.38002 -0.56122 0 0.829524 0 0)
(1.50342 -0.619673 0 0.875869 0 0)
(1.61176 -0.667367 0 0.918794 0 0)
(1.69296 -0.70836 0 0.966995 0 0)
(1.76495 -0.743326 0 1.02659 0 0)
(1.82532 -0.775635 0 1.09081 0 0)
(1.9126 -0.805176 0 1.15077 0 0)
(2.00488 -0.842484 0 1.20375 0 0)
(2.15164 -0.894077 0 1.253 0 0)
(2.29685 -0.97276 0 1.31299 0 0)
(2.50475 -1.08023 0 1.38536 0 0)
(2.66435 -1.18211 0 1.4674 0 0)
(2.8532 -1.2942 0 1.56217 0 0)
(2.98737 -1.37293 0 1.65298 0 0)
(3.15064 -1.45715 0 1.74334 0 0)
(3.3062 -1.53308 0 1.8365 0 0)
(3.49458 -1.62763 0 1.93671 0 0)
(3.67812 -1.71898 0 2.04819 0 0)
(3.90754 -1.83455 0 2.17744 0 0)
(4.13003 -1.94443 0 2.31996 0 0)
(4.39693 -2.08389 0 2.47014 0 0)
(4.67149 -2.22977 0 2.624 0 0)
(4.93382 -2.39207 0 2.78016 0 0)
(5.21418 -2.5591 0 2.92982 0 0)
(5.40342 -2.7031 0 3.06637 0 0)
(5.6301 -2.84595 0 3.18608 0 0)
(5.73358 -2.94195 0 3.28442 0 0)
(5.90063 -3.04774 0 3.36671 0 0)
(5.95967 -3.11063 0 3.43206 0 0)
(6.06789 -3.17907 0 3.48444 0 0)
(6.10581 -3.21199 0 3.51773 0 0)
(6.15746 -3.2464 0 3.54454 0 0)
(6.19855 -3.26523 0 3.56106 0 0)
(6.20286 -3.26395 0 3.57232 0 0)
(6.24965 -3.27295 0 3.59415 0 0)
(6.25041 -3.26087 0 3.6156 0 0)
(6.32552 -3.27636 0 3.66246 0 0)
(6.37628 -3.28489 0 3.71056 0 0)
(6.49017 -3.32576 0 3.79996 0 0)
(6.61126 -3.36961 0 3.88949 0 0)
(6.74977 -3.43334 0 4.02218 0 0)
(6.91966 -3.4973 0 4.15527 0 0)
(7.03826 -3.55611 0 4.32124 0 0)
(7.20852 -3.60364 0 4.47777 0 0)
(7.26232 -3.61911 0 4.64893 0 0)
(7.37928 -3.6048 0 4.79685 0 0)
(7.35665 -3.54625 0 4.93214 0 0)
(7.39899 -3.44004 0 5.04095 0 0)
(7.35504 -3.32234 0 5.12217 0 0)
(7.37779 -3.14585 0 5.18202 0 0)
(7.39684 -3.02977 0 5.24119 0 0)
(7.48046 -2.85864 0 5.29386 0 0)
(7.60268 -2.81021 0 5.3922 0 0)
(7.77484 -2.7095 0 5.47196 0 0)
(7.99396 -2.71996 0 5.60078 0 0)
(8.20564 -2.68203 0 5.68883 0 0)
(8.48729 -2.67326 0 5.80181 0 0)
(8.63114 -2.612 0 5.86582 0 0)
(8.87706 -2.52547 0 5.89951 0 0)
(8.94079 -2.39773 0 5.91515 0 0)
(9.13575 -2.30644 0 5.96026 0 0)
(9.1693 -2.18162 0 6.0556 0 0)
(9.31692 -2.11758 0 6.22902 0 0)
(9.39278 -2.02261 0 6.41221 0 0)
(9.62484 -1.94357 0 6.65197 0 0)
(9.73214 -1.85821 0 6.83209 0 0)
(10.0583 -1.80127 0 7.05747 0 0)
(10.1976 -1.74346 0 7.31945 0 0)
(10.5554 -1.74711 0 7.64316 0 0)
(10.6768 -1.66304 0 8.06502 0 0)
(10.8872 -1.61586 0 8.4814 0 0)
(10.8886 -1.4121 0 8.93383 0 0)
(10.8297 -1.25491 0 9.36159 0 0)
(10.6691 -1.02925 0 9.76228 0 0)
(10.5616 -0.894482 0 10.0999 0 0)
(10.374 -0.71053 0 10.4065 0 0)
(10.2549 -0.611281 0 10.5806 0 0)
(10.1209 -0.4516 0 10.7102 0 0)
(10.0146 -0.287557 0 10.8744 0 0)
(9.89714 -0.156746 0 11.0278 0 0)
(9.81397 0.0868239 0 11.2705 0 0)
(9.79559 0.263611 0 11.4682 0 0)
(9.7035 0.554839 0 11.745 0 0)
(9.72835 0.700154 0 11.8618 0 0)
(9.6931 0.930011 0 11.9653 0 0)
(9.66959 1.17639 0 12.0392 0 0)
(9.67937 1.43563 0 12.1101 0 0)
(9.51606 1.72174 0 12.1346 0 0)
(9.52222 1.96943 0 12.1751 0 0)
(9.29741 2.27107 0 12.2636 0 0)
(9.27235 2.55907 0 12.4042 0 0)
(8.91281 2.81025 0 12.5936 0 0)
(8.73236 3.127 0 12.8804 0 0)
(8.31455 3.35455 0 13.2283 0 0)
(7.97929 3.50413 0 13.6638 0 0)
(7.52841 3.69542 0 14.2471 0 0)
(7.24768 3.71808 0 14.5737 0 0)
(6.80972 3.7831 0 14.7507 0 0)
(6.61714 3.7424 0 14.8453 0 0)
(6.21522 3.84794 0 14.8868 0 0)
(6.11968 3.80543 0 14.8588 0 0)
(5.72632 3.9042 0 14.8308 0 0)
(5.77548 3.88013 0 14.7802 0 0)
(5.33 3.84828 0 14.6535 0 0)
(5.52183 3.8177 0 14.6542 0 0)
(4.9627 3.59381 0 14.5664 0 0)
(5.19651 3.54955 0 14.7518 0 0)
(4.537 3.15041 0 14.6953 0 0)
(4.83431 3.05769 0 14.8077 0 0)
(4.26989 2.70365 0 14.7877 0 0)
(4.65929 2.58383 0 14.893 0 0)
(4.21954 2.422 0 14.915 0 0)
(4.72884 2.33947 0 14.9397 0 0)
(4.33861 2.22686 0 14.953 0 0)
(4.87983 2.27288 0 14.9885 0 0)
(4.40215 2.17111 0 15.1477 0 0)
(4.93552 2.2363 0 15.2149 0 0)
(4.38663 2.18656 0 15.3288 0 0)
(4.88568 2.14251 0 15.2234 0 0)
(4.25534 2.10724 0 15.2382 0 0)
(4.68673 1.94553 0 15.039 0 0)
(4.07025 1.94281 0 15.1154 0 0)
(4.50412 1.71612 0 14.9273 0 0)
(3.85359 1.62493 0 14.9814 0 0)
(4.39414 1.45756 0 14.8476 0 0)
(3.70495 1.34135 0 14.887 0 0)
(4.34542 1.262 0 14.8947 0 0)
(3.55751 1.06856 0 14.863 0 0)
(4.27834 1.01598 0 14.8819 0 0)
(3.42783 0.850815 0 14.7227 0 0)
(4.21284 0.850462 0 14.8691 0 0)
(3.33362 0.760948 0 14.8341 0 0)
(4.10927 0.761617 0 15.0051 0 0)
(3.1941 0.693197 0 14.934 0 0)
(3.94339 0.637383 0 14.926 0 0)
(3.01301 0.50576 0 14.8962 0 0)
(3.85838 0.54655 0 14.8904 0 0)
(2.82575 0.268512 0 14.9197 0 0)
(3.80896 0.446104 0 14.8428 0 0)
(2.71877 0.160869 0 14.8114 0 0)
(3.77084 0.287772 0 14.6224 0 0)
(2.63336 0.137878 0 14.7472 0 0)
(3.77663 0.143347 0 14.3912 0 0)
(2.5579 0.0925073 0 14.4956 0 0)
(3.77196 0.0483853 0 14.0485 0 0)
(2.49608 0.11435 0 14.0998 0 0)
(3.76825 -0.0596271 0 13.5869 0 0)
(2.45226 0.116371 0 13.5443 0 0)
(3.75927 -0.222063 0 13.0984 0 0)
(2.422 0.0254962 0 12.9923 0 0)
(3.77214 -0.405835 0 12.7931 0 0)
(2.46052 -0.155835 0 12.6773 0 0)
(3.73268 -0.629887 0 12.6266 0 0)
(2.45721 -0.391621 0 12.5124 0 0)
(3.63582 -0.724192 0 12.4423 0 0)
(2.45619 -0.614574 0 12.2871 0 0)
(3.52242 -0.825421 0 12.0296 0 0)
(2.47447 -0.696544 0 12.1131 0 0)
(3.32791 -0.992339 0 11.7949 0 0)
(2.44983 -0.847884 0 11.7979 0 0)
(3.11288 -1.16292 0 11.5255 0 0)
(2.48542 -0.962693 0 11.2454 0 0)
(2.92986 -1.33102 0 11.1737 0 0)
(2.61358 -1.11847 0 10.4333 0 0)
(2.68644 -1.45093 0 10.4751 0 0)
(2.8789 -1.27365 0 9.62378 0 0)
(2.46471 -1.70082 0 9.74967 0 0)
(3.34021 -1.2522 0 9.01485 0 0)
(2.35984 -1.90613 0 9.01958 0 0)
(3.75688 -1.22312 0 8.51744 0 0)
(2.32037 -1.79129 0 8.39307 0 0)
(3.86661 -1.2039 0 7.99861 0 0)
(2.36005 -1.49202 0 7.59517 0 0)
(3.76678 -1.18434 0 7.59573 0 0)
(2.39429 -1.09353 0 6.87542 0 0)
(3.56157 -1.1233 0 7.37028 0 0)
(2.43345 -0.541352 0 6.2664 0 0)
(3.25931 -1.01947 0 7.22963 0 0)
(2.48581 0.0331872 0 5.7931 0 0)
(2.81798 -0.861156 0 7.25947 0 0)
(2.41019 0.508726 0 5.5029 0 0)
(2.19356 -0.637937 0 7.4343 0 0)
(2.24726 0.823239 0 5.44626 0 0)
(1.68232 -0.398262 0 7.60045 0 0)