/*--------------------------------*- C++ -*----------------------------------*\
| =========                 |                                                 |
| \\      /  F ield         | OpenFOAM: The Open Source CFD Toolbox           |
|  \\    /   O peration     | Version:  2.4.0                                 |
|   \\  /    A nd           | Web:      www.OpenFOAM.org                      |
|    \\/     M anipulation  |                                                 |
\*---------------------------------------------------------------------------*/
FoamFile
{
    version     2.0;
    format      ascii;
    class       volVectorField;
    location    "56";
    object      U;
}
// * * * * * * * * * * * * * * * * * * * * * * * * * * * * * * * * * * * * * //

dimensions      [0 1 -1 0 0 0 0];

internalField   nonuniform List<vector> 
4400
(
(0.0843166 0.00111293 0)
(0.100391 -0.00195704 0)
(0.112524 -0.000825555 0)
(0.0880275 0.00317366 0)
(0.0891642 -0.00149527 0)
(0.100562 -0.00130803 0)
(0.103383 0.00129328 0)
(0.0981318 -0.000724673 0)
(0.103723 0.000108973 0)
(0.093829 0.000956128 0)
(0.0991663 -0.000806527 0)
(0.103708 -0.000834659 0)
(0.0996347 0.00149286 0)
(0.101933 -0.00127178 0)
(0.10586 -6.53086e-05 0)
(0.0988342 0.00135245 0)
(0.109233 -0.0019895 0)
(0.104333 0.000986749 0)
(0.115873 0.000817051 0)
(0.0937471 -0.00423931 0)
(0.26253 0.00373077 0)
(0.289409 -0.00687314 0)
(0.286027 -0.00182267 0)
(0.262962 0.0101125 0)
(0.279086 -0.0053854 0)
(0.272699 -0.00363039 0)
(0.289236 0.00360692 0)
(0.275548 -0.0021121 0)
(0.284839 0.000314804 0)
(0.270743 0.00285231 0)
(0.286266 -0.00277007 0)
(0.281372 -0.00234922 0)
(0.281131 0.0045283 0)
(0.290148 -0.00431058 0)
(0.282229 0.000289853 0)
(0.285051 0.00314068 0)
(0.297381 -0.00577693 0)
(0.281054 0.00228273 0)
(0.312099 0.000310428 0)
(0.284549 -0.00840543 0)
(0.421264 0.00608207 0)
(0.462606 -0.0122506 0)
(0.43339 -0.00118883 0)
(0.427687 0.016724 0)
(0.453547 -0.0100332 0)
(0.424617 -0.00477606 0)
(0.457742 0.00520891 0)
(0.438817 -0.00304021 0)
(0.446022 0.000609146 0)
(0.431925 0.00425053 0)
(0.454681 -0.00497299 0)
(0.438441 -0.00342941 0)
(0.443056 0.00734213 0)
(0.462533 -0.00781495 0)
(0.432841 0.00162809 0)
(0.459184 0.00415556 0)
(0.457904 -0.0101073 0)
(0.43824 0.00472352 0)
(0.487518 -0.00233492 0)
(0.436491 -0.011678 0)
(0.551304 0.00708154 0)
(0.629087 -0.0161166 0)
(0.559371 0.000534557 0)
(0.565974 0.0213687 0)
(0.609843 -0.013488 0)
(0.556326 -0.00510918 0)
(0.603846 0.00587661 0)
(0.586693 -0.00333018 0)
(0.591392 0.00164044 0)
(0.569832 0.00502513 0)
(0.604776 -0.00661435 0)
(0.578039 -0.00382906 0)
(0.574881 0.00857591 0)
(0.624089 -0.00987777 0)
(0.557576 0.00268316 0)
(0.60911 0.00433779 0)
(0.60994 -0.0118357 0)
(0.562312 0.0053164 0)
(0.644671 -0.00371359 0)
(0.577789 -0.0126356 0)
(0.651041 0.0063561 0)
(0.77209 -0.0212022 0)
(0.685643 0.00705738 0)
(0.670598 0.0232037 0)
(0.738495 -0.0183523 0)
(0.665892 -0.00394706 0)
(0.718947 0.00464769 0)
(0.707386 -0.00445354 0)
(0.718911 0.00410998 0)
(0.685794 0.00580787 0)
(0.725496 -0.00934724 0)
(0.706032 -0.00143274 0)
(0.674201 0.0077897 0)
(0.756405 -0.0127422 0)
(0.671314 0.00650505 0)
(0.716733 0.00080985 0)
(0.743639 -0.0122009 0)
(0.670164 0.00775035 0)
(0.758355 -0.00912323 0)
(0.707427 -0.0110232 0)
(0.737958 0.00663944 0)
(0.868792 -0.0313043 0)
(0.804787 0.0161387 0)
(0.759483 0.0263307 0)
(0.839367 -0.0245916 0)
(0.760045 -0.0011591 0)
(0.807611 0.00272099 0)
(0.796027 -0.00769386 0)
(0.818215 0.00617692 0)
(0.783188 0.00778832 0)
(0.815189 -0.0138419 0)
(0.81487 0.00264754 0)
(0.758768 0.0079096 0)
(0.850198 -0.0182422 0)
(0.772538 0.0127026 0)
(0.797152 -0.00360719 0)
(0.840994 -0.0144541 0)
(0.765623 0.0126044 0)
(0.839406 -0.0159958 0)
(0.808071 -0.00967911 0)
(0.819806 0.0089734 0)
(0.930096 -0.0440392 0)
(0.896884 0.0245848 0)
(0.838429 0.0313 0)
(0.917053 -0.0309573 0)
(0.842503 0.00288174 0)
(0.881226 0.00193005 0)
(0.865193 -0.011195 0)
(0.890877 0.00706194 0)
(0.861155 0.0105163 0)
(0.882197 -0.0193114 0)
(0.896699 0.00648825 0)
(0.835002 0.00975766 0)
(0.917468 -0.0248355 0)
(0.855002 0.0196105 0)
(0.864901 -0.00709536 0)
(0.909332 -0.0178571 0)
(0.844381 0.0184089 0)
(0.900712 -0.022605 0)
(0.882381 -0.00875694 0)
(0.891388 0.012244 0)
(0.970696 -0.0560596 0)
(0.958527 0.0316855 0)
(0.90469 0.0363756 0)
(0.96964 -0.0370117 0)
(0.908223 0.00687493 0)
(0.939156 0.00198742 0)
(0.920483 -0.0136927 0)
(0.943837 0.00736216 0)
(0.920218 0.0134512 0)
(0.932687 -0.0246595 0)
(0.951781 0.00933659 0)
(0.898298 0.0122334 0)
(0.964231 -0.0311809 0)
(0.916601 0.0260233 0)
(0.921214 -0.0094095 0)
(0.956085 -0.0211441 0)
(0.90605 0.0240774 0)
(0.946589 -0.0281833 0)
(0.934717 -0.00798191 0)
(0.947473 0.0151713 0)
(0.995168 -0.0652577 0)
(0.992547 0.0371866 0)
(0.955621 0.0406794 0)
(0.997228 -0.0414484 0)
(0.954298 0.0101404 0)
(0.977462 0.00236029 0)
(0.959394 -0.0151281 0)
(0.978686 0.00739045 0)
(0.960749 0.016115 0)
(0.967991 -0.028881 0)
(0.983421 0.0113762 0)
(0.945444 0.0143492 0)
(0.991003 -0.0361854 0)
(0.956786 0.0311235 0)
(0.962513 -0.0109195 0)
(0.982458 -0.0235897 0)
(0.949869 0.0285763 0)
(0.977102 -0.0322177 0)
(0.966254 -0.00705249 0)
(0.985419 0.016914 0)
(1.00285 -0.0703179 0)
(1.00226 0.0408646 0)
(0.988713 0.0434311 0)
(1.00198 -0.043295 0)
(0.980999 0.0121442 0)
(0.995278 0.00272159 0)
(0.98021 -0.0155976 0)
(0.994882 0.00725137 0)
(0.9827 0.0179768 0)
(0.986993 -0.0314206 0)
(0.994103 0.0127438 0)
(0.975217 0.0154818 0)
(0.998505 -0.0389236 0)
(0.976315 0.0343627 0)
(0.986771 -0.011931 0)
(0.988516 -0.0244849 0)
(0.975385 0.0309317 0)
(0.990988 -0.0342487 0)
(0.977312 -0.00610085 0)
(1.00391 0.0169625 0)
(0.991693 -0.0703072 0)
(0.990462 0.0424121 0)
(1.0018 0.0440972 0)
(0.986264 -0.0420574 0)
(0.988877 0.0122895 0)
(0.993452 0.00294601 0)
(0.982743 -0.0152062 0)
(0.992117 0.00702548 0)
(0.986223 0.0186838 0)
(0.988093 -0.0319562 0)
(0.98518 0.0134717 0)
(0.986824 0.0153837 0)
(0.987211 -0.0387687 0)
(0.976429 0.0352977 0)
(0.993236 -0.0124793 0)
(0.974762 -0.0234009 0)
(0.983194 0.0305803 0)
(0.986698 -0.0338348 0)
(0.968899 -0.00520079 0)
(1.00179 0.0153071 0)
(0.959782 -0.0652236 0)
(0.959366 0.0414023 0)
(0.993379 0.0424313 0)
(0.952346 -0.0380955 0)
(0.97812 0.0103931 0)
(0.972964 0.00301197 0)
(0.966795 -0.0140603 0)
(0.970072 0.00674819 0)
(0.971357 0.0180841 0)
(0.969555 -0.0303479 0)
(0.957357 0.0134938 0)
(0.979625 0.0140547 0)
(0.956679 -0.0356232 0)
(0.958876 0.0334999 0)
(0.980838 -0.0122797 0)
(0.942034 -0.0207021 0)
(0.974304 0.0274584 0)
(0.962447 -0.0309864 0)
(0.94323 -0.00469615 0)
(0.977559 0.0124242 0)
(0.905505 -0.0560811 0)
(0.911241 0.0377339 0)
(0.962594 0.0386472 0)
(0.902085 -0.0324843 0)
(0.94878 0.0068514 0)
(0.934188 0.00286367 0)
(0.931508 -0.0121778 0)
(0.928155 0.00645082 0)
(0.937696 0.0162876 0)
(0.929434 -0.0267653 0)
(0.912063 0.0125872 0)
(0.952952 0.0117045 0)
(0.906537 -0.0301069 0)
(0.926585 0.0289716 0)
(0.94745 -0.0110814 0)
(0.892613 -0.0171736 0)
(0.948832 0.0222426 0)
(0.916854 -0.0262139 0)
(0.903534 -0.00494294 0)
(0.928904 0.00908852 0)
(0.827948 -0.0442601 0)
(0.850267 0.0314927 0)
(0.90953 0.0334586 0)
(0.837386 -0.0261955 0)
(0.901251 0.00230677 0)
(0.876497 0.00279695 0)
(0.875261 -0.00956244 0)
(0.866317 0.00606346 0)
(0.884808 0.0137346 0)
(0.866874 -0.0217465 0)
(0.853588 0.0103015 0)
(0.905746 0.00899494 0)
(0.838431 -0.023402 0)
(0.882364 0.0222307 0)
(0.890174 -0.00861011 0)
(0.830696 -0.0138562 0)
(0.904483 0.0161123 0)
(0.850705 -0.0202245 0)
(0.851779 -0.00597242 0)
(0.851767 0.00652268 0)
(0.729852 -0.0316771 0)
(0.784 0.0222797 0)
(0.834533 0.0277235 0)
(0.760262 -0.0202624 0)
(0.834521 -0.00237704 0)
(0.796967 0.00342993 0)
(0.796888 -0.00638882 0)
(0.787222 0.00522697 0)
(0.813341 0.0110499 0)
(0.784635 -0.0163764 0)
(0.786748 0.00632539 0)
(0.834658 0.00699475 0)
(0.756084 -0.0169962 0)
(0.823377 0.0145607 0)
(0.806734 -0.00482517 0)
(0.759378 -0.0116238 0)
(0.836193 0.0104975 0)
(0.7667 -0.0139535 0)
(0.785515 -0.00767397 0)
(0.742035 0.00588185 0)
(0.624147 -0.0215612 0)
(0.711953 0.0108199 0)
(0.731842 0.0230699 0)
(0.67039 -0.0155147 0)
(0.741158 -0.00572767 0)
(0.692457 0.00512211 0)
(0.699121 -0.00384533 0)
(0.694045 0.0034145 0)
(0.721804 0.00860373 0)
(0.685824 -0.0118592 0)
(0.70571 0.0018286 0)
(0.732709 0.00662756 0)
(0.661573 -0.0121069 0)
(0.738204 0.00794366 0)
(0.697953 -0.000468662 0)
(0.675916 -0.0107335 0)
(0.737284 0.0066259 0)
(0.666579 -0.00847453 0)
(0.697174 -0.00916315 0)
(0.605219 0.00629602 0)
(0.522406 -0.0160895 0)
(0.606834 0.00242489 0)
(0.595781 0.0208045 0)
(0.564618 -0.0118922 0)
(0.61236 -0.00652892 0)
(0.568015 0.00648667 0)
(0.5831 -0.00298756 0)
(0.580183 0.00156996 0)
(0.602616 0.00686815 0)
(0.567969 -0.00834678 0)
(0.594783 -0.00100407 0)
(0.598975 0.00718702 0)
(0.553251 -0.00911732 0)
(0.615914 0.00385629 0)
(0.569966 0.00281039 0)
(0.570803 -0.0102624 0)
(0.604681 0.00483998 0)
(0.550542 -0.00466548 0)
(0.578772 -0.00928898 0)
(0.454292 0.00533016 0)
(0.405996 -0.0119402 0)
(0.452191 5.44053e-05 0)
(0.445198 0.0169567 0)
(0.436899 -0.00872933 0)
(0.453267 -0.00507069 0)
(0.429405 0.00580728 0)
(0.441563 -0.00248196 0)
(0.439533 0.000692982 0)
(0.455351 0.00529425 0)
(0.43022 -0.00557308 0)
(0.450091 -0.00180021 0)
(0.445548 0.00658109 0)
(0.425038 -0.00692852 0)
(0.459621 0.0020383 0)
(0.429776 0.00360075 0)
(0.435358 -0.0085438 0)
(0.446932 0.003882 0)
(0.41726 -0.00251196 0)
(0.43017 -0.00746351 0)
(0.289224 0.00335194 0)
(0.260499 -0.00676155 0)
(0.272186 -0.00127146 0)
(0.285801 0.0103673 0)
(0.28241 -0.00469264 0)
(0.278397 -0.00361986 0)
(0.272737 0.00372309 0)
(0.277625 -0.00171661 0)
(0.277405 -6.73531e-05 0)
(0.28779 0.00349439 0)
(0.274573 -0.00310209 0)
(0.28055 -0.0016933 0)
(0.280614 0.00440298 0)
(0.272145 -0.00422125 0)
(0.283185 0.000793355 0)
(0.275102 0.00290843 0)
(0.272757 -0.0052634 0)
(0.275552 0.00242395 0)
(0.264198 -0.000726631 0)
(0.261709 -0.00459005 0)
(0.107041 0.00108152 0)
(0.0934358 -0.0020075 0)
(0.081872 -0.00084799 0)
(0.104133 0.00320196 0)
(0.10788 -0.00147348 0)
(0.0947158 -0.00142176 0)
(0.0959028 0.00122541 0)
(0.0979737 -0.000659012 0)
(0.0957357 -0.000116236 0)
(0.103498 0.00116371 0)
(0.100415 -0.000967854 0)
(0.0950078 -0.000669342 0)
(0.100515 0.00143178 0)
(0.0972193 -0.00131543 0)
(0.0949376 0.000167324 0)
(0.100185 0.00109819 0)
(0.094164 -0.00163381 0)
(0.0930568 0.000793342 0)
(0.0936475 1.371e-05 0)
(0.0854859 -0.00139996 0)
(0.173033 0.000219432 0)
(0.140918 -0.0044797 0)
(0.225326 -0.00851342 0)
(0.166496 0.0105928 0)
(0.281978 -4.5839e-05 0)
(0.272807 0.00987488 0)
(0.277258 -0.0398974 0)
(0.523396 -0.0571276 0)
(0.2198 -0.017864 0)
(0.476587 -0.132043 0)
(0.355049 -0.026212 0)
(0.210325 0.0980113 0)
(0.493447 0.0188864 0)
(0.613482 -0.0406985 0)
(0.712582 -0.151231 0)
(0.878165 -0.22237 0)
(0.957302 -0.248739 0)
(0.947315 -0.206856 0)
(0.933372 -0.23731 0)
(0.895325 -0.272134 0)
(0.673132 -0.264806 0)
(0.439637 -0.274863 0)
(0.521378 -0.237445 0)
(0.501895 -0.133124 0)
(0.632099 0.158933 0)
(0.623939 0.378435 0)
(0.558512 0.45952 0)
(0.520093 0.402116 0)
(0.611429 0.173706 0)
(0.734832 -0.0903215 0)
(0.739437 -0.242867 0)
(0.775572 -0.214049 0)
(0.621501 -0.173127 0)
(0.517059 -0.191627 0)
(0.557448 -0.144915 0)
(0.55303 -0.0414338 0)
(0.588052 0.115424 0)
(0.58083 0.227531 0)
(0.545242 0.259594 0)
(0.473594 0.282953 0)
(0.476677 0.244042 0)
(0.490894 0.129887 0)
(0.515943 -0.00803516 0)
(0.569288 -0.143899 0)
(0.546396 -0.249994 0)
(0.520191 -0.226052 0)
(0.550163 -0.0509057 0)
(0.528177 0.0994783 0)
(0.533951 0.112073 0)
(0.527152 0.0757398 0)
(0.500467 0.0318779 0)
(0.538487 -0.0609546 0)
(0.565734 -0.142625 0)
(0.54547 -0.165485 0)
(0.519958 -0.118184 0)
(0.539373 -0.00723745 0)
(0.554358 0.0882814 0)
(0.533704 0.117874 0)
(0.504463 0.0957363 0)
(0.489016 0.0524912 0)
(0.485113 0.011173 0)
(0.482471 -0.0144003 0)
(0.476172 -0.0228391 0)
(0.466341 -0.0206535 0)
(0.454819 -0.0148652 0)
(0.443462 -0.00944841 0)
(0.433501 -0.00564768 0)
(0.425445 -0.00335349 0)
(0.419313 -0.00207655 0)
(0.414879 -0.00137506 0)
(0.411818 -0.000963095 0)
(0.409797 -0.000690047 0)
(0.40852 -0.000489388 0)
(0.407745 -0.000336359 0)
(0.407294 -0.000221595 0)
(0.40704 -0.000139387 0)
(0.406904 -8.3652e-05 0)
(0.406833 -4.79514e-05 0)
(0.406796 -2.62988e-05 0)
(0.406779 -1.38259e-05 0)
(0.406771 -6.97687e-06 0)
(0.406767 -3.39e-06 0)
(0.406765 -1.58386e-06 0)
(0.406764 -7.15534e-07 0)
(0.406764 -3.16875e-07 0)
(0.406764 -1.29424e-07 0)
(0.406764 -5.78762e-08 0)
(0.406764 -2.06055e-08 0)
(0.406764 -4.88111e-09 0)
(0.406764 -4.45281e-09 0)
(0.406764 4.84637e-09 0)
(0.406764 -4.32144e-09 0)
(0.406764 4.91648e-09 0)
(0.406764 -2.46321e-09 0)
(0.406764 1.04612e-09 0)
(0.406764 8.31647e-10 0)
(0.406764 -4.27281e-09 0)
(0.406764 7.08102e-09 0)
(0.406764 -5.63817e-09 0)
(0.406764 1.46114e-09 0)
(0.34171 0.000711706 0)
(0.294213 -0.00813976 0)
(0.371841 -0.0115674 0)
(0.302157 0.00636653 0)
(0.410126 -0.0123798 0)
(0.430393 0.00567745 0)
(0.387202 -0.0527191 0)
(0.64599 -0.0683014 0)
(0.389627 -0.0134077 0)
(0.571543 -0.12433 0)
(0.498242 -0.0199145 0)
(0.319076 0.0899406 0)
(0.565175 -0.00342529 0)
(0.721679 -0.0793049 0)
(0.814707 -0.176546 0)
(0.946549 -0.232947 0)
(0.996105 -0.252162 0)
(0.965991 -0.209591 0)
(0.930629 -0.225525 0)
(0.856983 -0.241876 0)
(0.617381 -0.229733 0)
(0.376572 -0.267779 0)
(0.483728 -0.241817 0)
(0.455493 -0.13695 0)
(0.585378 0.153054 0)
(0.596242 0.378698 0)
(0.55484 0.461428 0)
(0.523768 0.39763 0)
(0.626075 0.160043 0)
(0.752936 -0.101976 0)
(0.747744 -0.243073 0)
(0.757743 -0.200854 0)
(0.576762 -0.156536 0)
(0.472576 -0.188781 0)
(0.523551 -0.145057 0)
(0.52344 -0.0408832 0)
(0.558568 0.114357 0)
(0.557674 0.228554 0)
(0.536413 0.264356 0)
(0.478446 0.2858 0)
(0.49214 0.243003 0)
(0.508942 0.128829 0)
(0.534576 -0.011887 0)
(0.589289 -0.14706 0)
(0.562743 -0.248066 0)
(0.522489 -0.225367 0)
(0.543628 -0.050144 0)
(0.525495 0.100103 0)
(0.540158 0.111467 0)
(0.530593 0.0782984 0)
(0.51116 0.0315885 0)
(0.551099 -0.0647616 0)
(0.566034 -0.143604 0)
(0.535976 -0.162585 0)
(0.505156 -0.116054 0)
(0.521071 -0.00822363 0)
(0.538827 0.0878068 0)
(0.525005 0.119843 0)
(0.503006 0.0982817 0)
(0.49328 0.0539089 0)
(0.492209 0.0117051 0)
(0.48967 -0.0137749 0)
(0.482035 -0.0217049 0)
(0.470584 -0.0191454 0)
(0.457703 -0.0132702 0)
(0.445377 -0.00798659 0)
(0.43478 -0.00442894 0)
(0.426322 -0.0024039 0)
(0.419933 -0.00137515 0)
(0.415327 -0.000880517 0)
(0.412139 -0.00062918 0)
(0.410023 -0.00047377 0)
(0.408671 -0.00035486 0)
(0.407839 -0.000255888 0)
(0.407347 -0.000175256 0)
(0.407065 -0.00011365 0)
(0.40691 -6.98591e-05 0)
(0.406827 -4.07939e-05 0)
(0.406784 -2.27102e-05 0)
(0.406763 -1.20768e-05 0)
(0.406752 -6.15042e-06 0)
(0.406748 -3.01099e-06 0)
(0.406745 -1.41168e-06 0)
(0.406744 -6.43546e-07 0)
(0.406744 -2.85041e-07 0)
(0.406744 -1.16747e-07 0)
(0.406744 -5.2678e-08 0)
(0.406744 -1.71046e-08 0)
(0.406744 -5.34324e-09 0)
(0.406744 -2.62158e-09 0)
(0.406744 4.41119e-09 0)
(0.406744 -2.42212e-09 0)
(0.406744 2.19302e-09 0)
(0.406744 -8.2783e-10 0)
(0.406744 -9.11303e-10 0)
(0.406744 1.10991e-09 0)
(0.406744 -2.12951e-09 0)
(0.406744 3.62433e-09 0)
(0.406744 -3.30157e-09 0)
(0.406744 8.23705e-10 0)
(0.50689 0.0013312 0)
(0.458229 -0.0108073 0)
(0.518986 -0.0144016 0)
(0.468794 0.0061522 0)
(0.538738 -0.0249989 0)
(0.586498 0.000607512 0)
(0.531529 -0.0542409 0)
(0.73681 -0.08119 0)
(0.541949 -0.0110331 0)
(0.654238 -0.113542 0)
(0.634995 -0.0172934 0)
(0.453428 0.0861817 0)
(0.661028 -0.0202732 0)
(0.827092 -0.115592 0)
(0.896191 -0.198849 0)
(0.992103 -0.238735 0)
(1.0156 -0.250594 0)
(0.96804 -0.208206 0)
(0.913005 -0.209842 0)
(0.806838 -0.207573 0)
(0.555241 -0.193189 0)
(0.314808 -0.261366 0)
(0.439188 -0.248318 0)
(0.404999 -0.140396 0)
(0.534082 0.146123 0)
(0.562703 0.375734 0)
(0.54776 0.460418 0)
(0.522455 0.390736 0)
(0.638738 0.145038 0)
(0.7647 -0.112712 0)
(0.747081 -0.239554 0)
(0.728324 -0.183171 0)
(0.52632 -0.138541 0)
(0.426135 -0.187221 0)
(0.487429 -0.146375 0)
(0.491515 -0.0405869 0)
(0.525594 0.112779 0)
(0.531293 0.227931 0)
(0.523043 0.266943 0)
(0.480477 0.286718 0)
(0.504598 0.240836 0)
(0.524448 0.127515 0)
(0.550726 -0.0158484 0)
(0.606024 -0.150285 0)
(0.575122 -0.244754 0)
(0.520417 -0.222321 0)
(0.5315 -0.0489154 0)
(0.518947 0.0993971 0)
(0.541881 0.110317 0)
(0.530483 0.0805384 0)
(0.519916 0.0304647 0)
(0.559662 -0.0678536 0)
(0.561507 -0.143015 0)
(0.522036 -0.158554 0)
(0.486661 -0.11319 0)
(0.49922 -0.00922696 0)
(0.519396 0.0866382 0)
(0.512442 0.120745 0)
(0.498035 0.0998602 0)
(0.494326 0.0547299 0)
(0.496181 0.0120734 0)
(0.493775 -0.0130533 0)
(0.48493 -0.0203784 0)
(0.472128 -0.0174599 0)
(0.458266 -0.0115499 0)
(0.445394 -0.00644855 0)
(0.434574 -0.00316857 0)
(0.426083 -0.00143346 0)
(0.419746 -0.000663627 0)
(0.415211 -0.000380303 0)
(0.412081 -0.000290919 0)
(0.409998 -0.000253415 0)
(0.408657 -0.000216484 0)
(0.407824 -0.000172062 0)
(0.407325 -0.00012625 0)
(0.407034 -8.59682e-05 0)
(0.406872 -5.47515e-05 0)
(0.406784 -3.28057e-05 0)
(0.406737 -1.86272e-05 0)
(0.406714 -1.00484e-05 0)
(0.406702 -5.17394e-06 0)
(0.406697 -2.55504e-06 0)
(0.406694 -1.20214e-06 0)
(0.406693 -5.53234e-07 0)
(0.406693 -2.44226e-07 0)
(0.406692 -1.00676e-07 0)
(0.406692 -4.5763e-08 0)
(0.406692 -1.38437e-08 0)
(0.406692 -4.71502e-09 0)
(0.406692 -1.94769e-10 0)
(0.406692 3.96165e-09 0)
(0.406692 6.03561e-10 0)
(0.406692 -3.87893e-10 0)
(0.406692 1.20452e-09 0)
(0.406692 -1.92076e-09 0)
(0.406692 1.41819e-10 0)
(0.406692 -2.88498e-10 0)
(0.406692 -8.98013e-10 0)
(0.406692 -1.13562e-09 0)
(0.406692 8.71898e-11 0)
(0.632449 -0.000124399 0)
(0.612878 -0.011766 0)
(0.643659 -0.0168661 0)
(0.616233 0.00524045 0)
(0.664872 -0.0323636 0)
(0.709669 -0.00768338 0)
(0.665742 -0.0518504 0)
(0.807645 -0.0915371 0)
(0.67087 -0.00987692 0)
(0.727238 -0.10071 0)
(0.741561 -0.020292 0)
(0.592591 0.0822129 0)
(0.765173 -0.0300218 0)
(0.915303 -0.144835 0)
(0.954408 -0.216803 0)
(1.01819 -0.240238 0)
(1.01876 -0.24428 0)
(0.954593 -0.202306 0)
(0.88062 -0.190338 0)
(0.745632 -0.170028 0)
(0.488218 -0.156551 0)
(0.25483 -0.255092 0)
(0.390501 -0.255963 0)
(0.352019 -0.14326 0)
(0.478652 0.137785 0)
(0.523327 0.369604 0)
(0.536234 0.45635 0)
(0.516174 0.381318 0)
(0.649983 0.128761 0)
(0.769167 -0.121734 0)
(0.736671 -0.231931 0)
(0.687841 -0.161481 0)
(0.473226 -0.11987 0)
(0.378217 -0.187046 0)
(0.448465 -0.148815 0)
(0.456712 -0.0404176 0)
(0.489051 0.110748 0)
(0.501881 0.225747 0)
(0.505176 0.267381 0)
(0.479434 0.285594 0)
(0.514121 0.237482 0)
(0.537314 0.126001 0)
(0.565071 -0.0199017 0)
(0.619882 -0.1534 0)
(0.583357 -0.239945 0)
(0.513982 -0.216825 0)
(0.514179 -0.0472395 0)
(0.508651 0.0973442 0)
(0.538811 0.108618 0)
(0.526852 0.0822237 0)
(0.526202 0.0286876 0)
(0.563696 -0.0700082 0)
(0.552163 -0.140827 0)
(0.503912 -0.153489 0)
(0.464739 -0.109728 0)
(0.474078 -0.0100063 0)
(0.49629 0.0848218 0)
(0.496145 0.120565 0)
(0.489567 0.100429 0)
(0.492078 0.0549273 0)
(0.496892 0.0122293 0)
(0.494635 -0.0122554 0)
(0.484722 -0.0188884 0)
(0.470862 -0.0156419 0)
(0.456425 -0.00975877 0)
(0.443451 -0.00489034 0)
(0.432838 -0.0019185 0)
(0.424693 -0.000486269 0)
(0.418723 2.20671e-05 0)
(0.414505 9.80905e-05 0)
(0.411615 3.17595e-05 0)
(0.409693 -4.26918e-05 0)
(0.408451 -8.32516e-05 0)
(0.407673 -9.05148e-05 0)
(0.4072 -7.79446e-05 0)
(0.406921 -5.82791e-05 0)
(0.406763 -3.93994e-05 0)
(0.406675 -2.45575e-05 0)
(0.406629 -1.43427e-05 0)
(0.406605 -7.88806e-06 0)
(0.406592 -4.11777e-06 0)
(0.406587 -2.05565e-06 0)
(0.406584 -9.70464e-07 0)
(0.406583 -4.51161e-07 0)
(0.406582 -1.99491e-07 0)
(0.406582 -8.13685e-08 0)
(0.406582 -3.8e-08 0)
(0.406582 -1.07134e-08 0)
(0.406582 -3.85534e-09 0)
(0.406582 -3.18402e-10 0)
(0.406582 4.46773e-09 0)
(0.406582 3.15836e-10 0)
(0.406582 -1.01071e-09 0)
(0.406582 7.41266e-10 0)
(0.406582 -1.46389e-09 0)
(0.406582 -2.59555e-10 0)
(0.406582 1.55464e-09 0)
(0.406582 -1.85696e-09 0)
(0.406582 -9.01147e-10 0)
(0.406582 3.21909e-10 0)
(0.732541 -0.000777118 0)
(0.734396 -0.0148964 0)
(0.748482 -0.0177584 0)
(0.732608 0.00299232 0)
(0.770379 -0.0366595 0)
(0.804703 -0.0165289 0)
(0.772731 -0.0472543 0)
(0.865033 -0.0979054 0)
(0.7698 -0.0115349 0)
(0.795734 -0.0852765 0)
(0.81502 -0.0277426 0)
(0.714594 0.0750042 0)
(0.856931 -0.037105 0)
(0.977822 -0.166528 0)
(0.988714 -0.230109 0)
(1.02388 -0.238189 0)
(1.00312 -0.234284 0)
(0.923374 -0.19232 0)
(0.83259 -0.167743 0)
(0.674765 -0.130505 0)
(0.418488 -0.120946 0)
(0.200221 -0.249772 0)
(0.33906 -0.264016 0)
(0.296418 -0.144824 0)
(0.417406 0.127956 0)
(0.478895 0.360148 0)
(0.519401 0.448968 0)
(0.505764 0.368987 0)
(0.659601 0.111303 0)
(0.765199 -0.12815 0)
(0.715884 -0.219969 0)
(0.63751 -0.136547 0)
(0.420338 -0.101201 0)
(0.329343 -0.187974 0)
(0.406121 -0.15219 0)
(0.418428 -0.0404483 0)
(0.448791 0.108321 0)
(0.469608 0.222063 0)
(0.483066 0.265646 0)
(0.47513 0.282288 0)
(0.520687 0.232841 0)
(0.547297 0.124032 0)
(0.578267 -0.0241164 0)
(0.631093 -0.156117 0)
(0.587235 -0.233519 0)
(0.503261 -0.20889 0)
(0.492256 -0.0451586 0)
(0.49478 0.0939825 0)
(0.530784 0.106391 0)
(0.519776 0.0831365 0)
(0.529533 0.0264316 0)
(0.562876 -0.0710777 0)
(0.538144 -0.137067 0)
(0.481951 -0.147524 0)
(0.439647 -0.105711 0)
(0.445917 -0.01059 0)
(0.469767 0.0823966 0)
(0.476295 0.119305 0)
(0.477689 0.099966 0)
(0.48653 0.0544721 0)
(0.49427 0.0121954 0)
(0.492155 -0.0113809 0)
(0.481336 -0.0172631 0)
(0.466751 -0.0137392 0)
(0.452168 -0.00795408 0)
(0.439551 -0.00336985 0)
(0.429577 -0.000730235 0)
(0.422155 0.000391888 0)
(0.416856 0.000646107 0)
(0.413191 0.000527674 0)
(0.410712 0.000319486 0)
(0.409072 0.000145097 0)
(0.408008 3.61433e-05 0)
(0.407335 -1.66922e-05 0)
(0.406921 -3.36268e-05 0)
(0.406672 -3.24854e-05 0)
(0.406529 -2.48674e-05 0)
(0.406448 -1.66244e-05 0)
(0.406404 -1.01578e-05 0)
(0.406381 -5.74689e-06 0)
(0.40637 -3.05712e-06 0)
(0.406364 -1.54859e-06 0)
(0.406361 -7.32634e-07 0)
(0.40636 -3.45213e-07 0)
(0.40636 -1.5234e-07 0)
(0.406359 -6.04412e-08 0)
(0.406359 -3.03611e-08 0)
(0.406359 -7.00359e-09 0)
(0.406359 -3.15608e-09 0)
(0.406359 -3.08563e-10 0)
(0.406359 5.27927e-09 0)
(0.406359 -2.9243e-10 0)
(0.406359 -8.80357e-10 0)
(0.406359 9.40994e-10 0)
(0.406359 -1.53129e-09 0)
(0.406359 -3.11624e-10 0)
(0.406359 1.88164e-09 0)
(0.406359 -2.66294e-09 0)
(0.406359 -9.29344e-10 0)
(0.406359 5.97416e-10 0)
(0.814849 0.0001111 0)
(0.826966 -0.0187489 0)
(0.831679 -0.017436 0)
(0.822622 -5.61679e-05 0)
(0.853382 -0.0384903 0)
(0.875587 -0.0247559 0)
(0.854837 -0.0424028 0)
(0.912627 -0.0994172 0)
(0.842853 -0.0158024 0)
(0.85378 -0.0698071 0)
(0.86605 -0.0361378 0)
(0.805971 0.0626503 0)
(0.923452 -0.0421581 0)
(1.01508 -0.180378 0)
(1.00115 -0.237919 0)
(1.00999 -0.232856 0)
(0.969602 -0.221052 0)
(0.875816 -0.178673 0)
(0.771143 -0.142586 0)
(0.597235 -0.0900662 0)
(0.34782 -0.0872215 0)
(0.154395 -0.246741 0)
(0.280594 -0.271764 0)
(0.237191 -0.145679 0)
(0.348907 0.117135 0)
(0.430198 0.347702 0)
(0.497206 0.438359 0)
(0.492407 0.353193 0)
(0.666201 0.0930389 0)
(0.751618 -0.131323 0)
(0.684457 -0.203834 0)
(0.579128 -0.109356 0)
(0.369602 -0.0832846 0)
(0.28072 -0.189424 0)
(0.360466 -0.156288 0)
(0.376297 -0.0406745 0)
(0.404824 0.105369 0)
(0.434396 0.216966 0)
(0.456933 0.261831 0)
(0.4674 0.276747 0)
(0.524228 0.227005 0)
(0.554198 0.121401 0)
(0.590856 -0.028442 0)
(0.639684 -0.158054 0)
(0.586492 -0.225363 0)
(0.488425 -0.198602 0)
(0.466461 -0.04271 0)
(0.477554 0.0893968 0)
(0.517781 0.10366 0)
(0.509367 0.083156 0)
(0.529502 0.0236709 0)
(0.557075 -0.0709759 0)
(0.519715 -0.131825 0)
(0.456548 -0.140771 0)
(0.411663 -0.101215 0)
(0.415009 -0.0110238 0)
(0.440115 0.0794294 0)
(0.453127 0.116987 0)
(0.46255 0.0984566 0)
(0.477747 0.0533749 0)
(0.4883 0.011969 0)
(0.486298 -0.0104438 0)
(0.474771 -0.015538 0)
(0.459835 -0.0118044 0)
(0.445564 -0.00619538 0)
(0.433767 -0.00194539 0)
(0.424853 0.000341333 0)
(0.418506 0.00115775 0)
(0.414159 0.00117504 0)
(0.411252 0.000883764 0)
(0.409331 0.000554862 0)
(0.408072 0.00029819 0)
(0.407253 0.000134047 0)
(0.406728 4.46014e-05 0)
(0.406398 3.78983e-06 0)
(0.406195 -1.02952e-05 0)
(0.406076 -1.21236e-05 0)
(0.406007 -9.53686e-06 0)
(0.405969 -6.35466e-06 0)
(0.405949 -3.77041e-06 0)
(0.405938 -2.06485e-06 0)
(0.405933 -1.06882e-06 0)
(0.40593 -5.05116e-07 0)
(0.405929 -2.43037e-07 0)
(0.405929 -1.06595e-07 0)
(0.405928 -4.01461e-08 0)
(0.405928 -2.3026e-08 0)
(0.405928 -3.28259e-09 0)
(0.405928 -2.07343e-09 0)
(0.405928 -5.5728e-10 0)
(0.405928 5.9598e-09 0)
(0.405928 -5.76087e-10 0)
(0.405928 -1.49122e-09 0)
(0.405928 1.16071e-09 0)
(0.405928 -1.77484e-09 0)
(0.405928 -8.29559e-11 0)
(0.405928 1.91479e-09 0)
(0.405928 -2.87746e-09 0)
(0.405928 -1.07202e-09 0)
(0.405928 8.08436e-10 0)
(0.88017 0.0017627 0)
(0.896377 -0.0228556 0)
(0.895152 -0.0162762 0)
(0.890413 -0.00375104 0)
(0.916151 -0.0389283 0)
(0.926368 -0.0311452 0)
(0.915563 -0.038669 0)
(0.947804 -0.09676 0)
(0.893449 -0.021517 0)
(0.89753 -0.0558639 0)
(0.901387 -0.0422937 0)
(0.865513 0.0480706 0)
(0.964266 -0.0459486 0)
(1.02975 -0.18745 0)
(0.991978 -0.240338 0)
(0.976083 -0.224762 0)
(0.91764 -0.205436 0)
(0.811654 -0.161889 0)
(0.696829 -0.115337 0)
(0.514292 -0.0497514 0)
(0.277975 -0.0564258 0)
(0.116522 -0.244941 0)
(0.20815 -0.277268 0)
(0.172382 -0.145361 0)
(0.275815 0.105197 0)
(0.377959 0.332094 0)
(0.467739 0.42446 0)
(0.477367 0.333866 0)
(0.66747 0.0745706 0)
(0.727323 -0.130741 0)
(0.642554 -0.18393 0)
(0.514931 -0.0809329 0)
(0.321883 -0.0667619 0)
(0.234375 -0.190871 0)
(0.311967 -0.160847 0)
(0.330288 -0.0409458 0)
(0.357371 0.101894 0)
(0.396327 0.210391 0)
(0.427242 0.255934 0)
(0.456203 0.268804 0)
(0.524602 0.219934 0)
(0.557896 0.11798 0)
(0.603118 -0.0327838 0)
(0.645464 -0.158802 0)
(0.580832 -0.215389 0)
(0.469763 -0.186196 0)
(0.437639 -0.04002 0)
(0.457232 0.0837575 0)
(0.499915 0.100422 0)
(0.495803 0.0821632 0)
(0.525825 0.0205367 0)
(0.546326 -0.0696306 0)
(0.497244 -0.125219 0)
(0.42814 -0.133345 0)
(0.381058 -0.0963396 0)
(0.381605 -0.0113259 0)
(0.407646 0.0759657 0)
(0.426918 0.113636 0)
(0.444364 0.0958974 0)
(0.46585 0.0516473 0)
(0.479009 0.0115726 0)
(0.477086 -0.00945284 0)
(0.465104 -0.0137538 0)
(0.450246 -0.0098948 0)
(0.436765 -0.00454375 0)
(0.426241 -0.000674435 0)
(0.418775 0.0012476 0)
(0.413813 0.00177399 0)
(0.410643 0.00158031 0)
(0.408654 0.00114611 0)
(0.407396 0.000724136 0)
(0.406588 0.000407595 0)
(0.406056 0.000204672 0)
(0.405706 8.97389e-05 0)
(0.405478 3.20876e-05 0)
(0.405332 6.96861e-06 0)
(0.405243 -1.93625e-06 0)
(0.405189 -3.72735e-06 0)
(0.405159 -3.16939e-06 0)
(0.405143 -2.08352e-06 0)
(0.405134 -1.20495e-06 0)
(0.40513 -6.48032e-07 0)
(0.405128 -3.03335e-07 0)
(0.405127 -1.51919e-07 0)
(0.405126 -6.56436e-08 0)
(0.405126 -2.17528e-08 0)
(0.405126 -1.64789e-08 0)
(0.405126 1.62591e-10 0)
(0.405126 -9.51922e-10 0)
(0.405126 -7.09565e-10 0)
(0.405126 6.55581e-09 0)
(0.405126 -9.3483e-10 0)
(0.405126 -1.71796e-09 0)
(0.405126 1.47506e-09 0)
(0.405126 -1.85352e-09 0)
(0.405126 -4.43667e-11 0)
(0.405126 1.90002e-09 0)
(0.405126 -3.05908e-09 0)
(0.405126 -1.03454e-09 0)
(0.405126 1.02937e-09 0)
(0.929914 0.00348861 0)
(0.945336 -0.0267234 0)
(0.940357 -0.0145622 0)
(0.938706 -0.00785838 0)
(0.959466 -0.0383944 0)
(0.959397 -0.0352091 0)
(0.956549 -0.0366151 0)
(0.96896 -0.090802 0)
(0.924057 -0.0273544 0)
(0.925191 -0.0446664 0)
(0.921453 -0.044357 0)
(0.898062 0.0339135 0)
(0.982491 -0.0499414 0)
(1.02347 -0.188513 0)
(0.961945 -0.236819 0)
(0.92258 -0.213812 0)
(0.847329 -0.187834 0)
(0.731108 -0.142453 0)
(0.611108 -0.0869136 0)
(0.427656 -0.0107913 0)
(0.212058 -0.0296079 0)
(0.0814864 -0.240922 0)
(0.120807 -0.280798 0)
(0.107367 -0.145206 0)
(0.199159 0.0922572 0)
(0.32364 0.313682 0)
(0.429767 0.407136 0)
(0.46282 0.310946 0)
(0.660613 0.0569463 0)
(0.691543 -0.126098 0)
(0.590929 -0.160918 0)
(0.447319 -0.0523226 0)
(0.277489 -0.0520188 0)
(0.192227 -0.192023 0)
(0.260562 -0.16537 0)
(0.280682 -0.0413187 0)
(0.306769 0.0977502 0)
(0.355059 0.202485 0)
(0.394393 0.24811 0)
(0.441633 0.258539 0)
(0.521646 0.21158 0)
(0.558489 0.113644 0)
(0.615029 -0.0371588 0)
(0.648036 -0.157984 0)
(0.569924 -0.203565 0)
(0.447678 -0.172022 0)
(0.406743 -0.0371843 0)
(0.4341 0.077303 0)
(0.477405 0.0966919 0)
(0.479348 0.0800442 0)
(0.518351 0.0171646 0)
(0.530803 -0.0670358 0)
(0.471183 -0.117388 0)
(0.397189 -0.125384 0)
(0.348133 -0.0911335 0)
(0.345947 -0.0114683 0)
(0.372667 0.0720528 0)
(0.39798 0.109281 0)
(0.423404 0.0923095 0)
(0.451008 0.0493042 0)
(0.466461 0.0110276 0)
(0.464602 -0.00842576 0)
(0.452506 -0.0119613 0)
(0.438217 -0.00807385 0)
(0.426015 -0.00306079 0)
(0.417182 0.000390115 0)
(0.411491 0.00194979 0)
(0.408143 0.00220974 0)
(0.406299 0.00184106 0)
(0.405313 0.00130137 0)
(0.404765 0.000819108 0)
(0.404429 0.00046831 0)
(0.404199 0.000244968 0)
(0.404031 0.000116828 0)
(0.40391 5.008e-05 0)
(0.403824 1.85645e-05 0)
(0.403767 5.23999e-06 0)
(0.403731 5.30137e-07 0)
(0.40371 -7.60963e-07 0)
(0.403698 -7.74443e-07 0)
(0.403692 -5.24691e-07 0)
(0.403689 -3.10551e-07 0)
(0.403687 -1.39498e-07 0)
(0.403686 -7.76475e-08 0)
(0.403686 -3.21095e-08 0)
(0.403686 -6.48214e-09 0)
(0.403685 -1.12674e-08 0)
(0.403685 3.05682e-09 0)
(0.403685 1.01238e-10 0)
(0.403685 -8.99506e-10 0)
(0.403685 6.97537e-09 0)
(0.403685 -1.2594e-09 0)
(0.403685 -1.97353e-09 0)
(0.403685 1.84178e-09 0)
(0.403685 -1.87034e-09 0)
(0.403685 -9.86791e-11 0)
(0.403685 1.80814e-09 0)
(0.403685 -3.14467e-09 0)
(0.403685 -9.09263e-10 0)
(0.403685 1.19052e-09 0)
(0.964685 0.00476252 0)
(0.97453 -0.029542 0)
(0.967938 -0.0126345 0)
(0.968743 -0.0118221 0)
(0.983134 -0.0369813 0)
(0.976025 -0.0372942 0)
(0.977816 -0.0358061 0)
(0.975076 -0.0829252 0)
(0.936084 -0.0322704 0)
(0.935602 -0.0361498 0)
(0.92566 -0.0426886 0)
(0.907403 0.0205817 0)
(0.980308 -0.0549028 0)
(0.99677 -0.184096 0)
(0.910907 -0.22734 0)
(0.848981 -0.200171 0)
(0.758454 -0.168584 0)
(0.635695 -0.121205 0)
(0.516916 -0.0580955 0)
(0.340534 0.0250164 0)
(0.154242 -0.00708083 0)