/*--------------------------------*- C++ -*----------------------------------*\
| =========                 |                                                 |
| \\      /  F ield         | OpenFOAM: The Open Source CFD Toolbox           |
|  \\    /   O peration     | Version:  2.4.0                                 |
|   \\  /    A nd           | Web:      www.OpenFOAM.org                      |
|    \\/     M anipulation  |                                                 |
\*---------------------------------------------------------------------------*/
FoamFile
{
    version     2.0;
    format      ascii;
    class       volVectorField;
    location    "1.25";
    object      UMean;
}
// * * * * * * * * * * * * * * * * * * * * * * * * * * * * * * * * * * * * * //

dimensions      [0 1 -1 0 0 0 0];

internalField   nonuniform List<vector> 
8800
(
(8.09335 0.387162 0)
(5.45784 0.242569 0)
(3.92753 0.042986 0)
(3.16335 -0.015185 0)
(2.82242 -0.0184295 0)
(2.603 -0.0108193 0)
(2.51289 -0.00592479 0)
(2.38515 -0.00190572 0)
(2.3545 -0.00186765 0)
(2.25554 -7.29797e-05 0)
(2.25801 -0.00114844 0)
(2.17194 0.00058453 0)
(2.1902 -0.00068913 0)
(2.10517 0.00115892 0)
(2.12816 -0.000348501 0)
(2.04084 0.00170387 0)
(2.06294 -0.000360541 0)
(1.96945 0.00126833 0)
(2.01816 0.00714568 0)
(1.73666 -0.0601104 0)
(10.0882 0.836214 0)
(9.6501 0.866309 0)
(8.89707 0.50549 0)
(8.06716 0.261554 0)
(7.53198 0.136889 0)
(6.98462 0.0821417 0)
(6.75182 0.0524681 0)
(6.37334 0.0408548 0)
(6.29778 0.0279028 0)
(5.99665 0.0250041 0)
(6.01546 0.0164877 0)
(5.75086 0.0188424 0)
(5.82285 0.0125578 0)
(5.5687 0.0179506 0)
(5.66624 0.0122495 0)
(5.41017 0.0184385 0)
(5.51981 0.0160124 0)
(5.24528 0.0123101 0)
(5.39859 0.0310253 0)
(5.021 -0.0428083 0)
(10.0846 0.629966 0)
(10.6265 0.861528 0)
(10.9142 0.599178 0)
(10.6415 0.372947 0)
(10.5178 0.253748 0)
(10.0242 0.196286 0)
(9.91598 0.150268 0)
(9.42542 0.122797 0)
(9.41453 0.0903839 0)
(8.96017 0.0769524 0)
(9.04811 0.0545588 0)
(8.62265 0.0537729 0)
(8.78352 0.0381752 0)
(8.36634 0.0449523 0)
(8.57378 0.0329851 0)
(8.14872 0.0421808 0)
(8.38644 0.0370117 0)
(7.9352 0.0377547 0)
(8.20832 0.0459132 0)
(7.71958 -0.0375792 0)
(10.0659 0.456724 0)
(10.4927 0.703297 0)
(11.2548 0.543515 0)
(11.28 0.352081 0)
(11.6551 0.259317 0)
(11.3524 0.227713 0)
(11.6032 0.196292 0)
(11.1825 0.176413 0)
(11.4253 0.142221 0)
(10.9535 0.127049 0)
(11.2277 0.0981803 0)
(10.7303 0.0951392 0)
(11.0441 0.0729617 0)
(10.5242 0.0796889 0)
(10.8735 0.0608735 0)
(10.3281 0.0746947 0)
(10.706 0.0577503 0)
(10.1285 0.0785819 0)
(10.5188 0.0514858 0)
(9.91359 0.0638598 0)
(10.181 0.346618 0)
(10.2684 0.56559 0)
(11.1871 0.458053 0)
(11.1665 0.295174 0)
(11.799 0.205468 0)
(11.5322 0.194493 0)
(12.0287 0.173231 0)
(11.6761 0.172151 0)
(12.1381 0.138253 0)
(11.7428 0.136595 0)
(12.1945 0.101302 0)
(11.7678 0.11188 0)
(12.2148 0.0786 0)
(11.7597 0.102493 0)
(12.2016 0.066543 0)
(11.7204 0.103985 0)
(12.154 0.0604569 0)
(11.648 0.116497 0)
(12.0563 0.0492609 0)
(11.5121 0.11976 0)
(10.2009 0.249906 0)
(10.1927 0.45561 0)
(11.0236 0.371583 0)
(11.0712 0.250011 0)
(11.6438 0.155452 0)
(11.5026 0.154726 0)
(11.9133 0.135267 0)
(11.7231 0.146189 0)
(12.0882 0.111182 0)
(11.897 0.118446 0)
(12.2391 0.0813879 0)
(12.0489 0.0981645 0)
(12.3692 0.064432 0)
(12.177 0.092053 0)
(12.4733 0.0585938 0)
(12.2778 0.0954599 0)
(12.5463 0.05938 0)
(12.3443 0.105717 0)
(12.5685 0.0544588 0)
(12.3105 0.0656115 0)
(10.0757 0.168792 0)
(10.2547 0.358665 0)
(10.7938 0.280465 0)
(11.0812 0.211079 0)
(11.4202 0.109135 0)
(11.5275 0.122829 0)
(11.6994 0.0949841 0)
(11.7451 0.123752 0)
(11.8753 0.0771942 0)
(11.9234 0.102139 0)
(12.0385 0.0521575 0)
(12.0903 0.086179 0)
(12.1906 0.0374769 0)
(12.2421 0.0829049 0)
(12.3264 0.032585 0)
(12.3754 0.0883705 0)
(12.4424 0.0322863 0)
(12.483 0.0981137 0)
(12.513 0.0232593 0)
(12.4738 0.0645169 0)
(9.97339 0.105632 0)
(10.3 0.261308 0)
(10.6348 0.193255 0)
(11.0749 0.162266 0)
(11.2692 0.0703609 0)
(11.5291 0.0905722 0)
(11.5606 0.0607011 0)
(11.7385 0.0961375 0)
(11.7339 0.0490084 0)
(11.9095 0.0801732 0)
(11.8982 0.0300465 0)
(12.073 0.0684224 0)
(12.0531 0.0188992 0)
(12.223 0.0663105 0)
(12.1932 0.0150185 0)
(12.356 0.0704687 0)
(12.3152 0.0133447 0)
(12.4647 0.0756647 0)
(12.3917 0.00143268 0)
(12.4407 0.0458988 0)
(9.90734 0.0559867 0)
(10.33 0.161262 0)
(10.5298 0.11161 0)
(11.0715 0.103395 0)
(11.1684 0.0370115 0)
(11.5322 0.0583436 0)
(11.4679 0.0314184 0)
(11.7374 0.0636768 0)
(11.6382 0.0250148 0)
(11.9047 0.0535581 0)
(11.8025 0.0128387 0)
(12.0677 0.0460233 0)
(11.9588 0.0058365 0)
(12.2183 0.0441612 0)
(12.1 0.00281888 0)
(12.3527 0.0451077 0)
(12.2232 -0.0001149 0)
(12.4623 0.0435347 0)
(12.2962 -0.0144307 0)
(12.4262 0.00373692 0)
(9.89046 0.0109402 0)
(10.3309 0.0643162 0)
(10.4946 0.0285534 0)
(11.0577 0.0444459 0)
(11.1374 0.00310142 0)
(11.5232 0.0295804 0)
(11.444 0.000865306 0)
(11.7277 0.0324505 0)
(11.6154 -0.00159725 0)
(11.8947 0.0290808 0)
(11.782 -0.00659319 0)
(12.0596 0.0264007 0)
(11.9411 -0.0101403 0)
(12.213 0.0251504 0)
(12.0849 -0.0133701 0)
(12.3507 0.0232212 0)
(12.2107 -0.0187654 0)
(12.4637 0.0167324 0)
(12.2836 -0.0338687 0)
(12.4278 -0.0131976 0)
(9.91415 -0.0296984 0)
(10.309 -0.0355718 0)
(10.5198 -0.0529572 0)
(11.0396 -0.018526 0)
(11.1646 -0.0285589 0)
(11.5082 -0.00284767 0)
(11.4736 -0.0272603 0)
(11.7157 -0.0034001 0)
(11.6471 -0.0261154 0)
(11.886 0.00025536 0)
(11.8161 -0.0234786 0)
(12.0542 0.00252786 0)
(11.9776 -0.0238956 0)
(12.2112 0.00154218 0)
(12.124 -0.0276106 0)
(12.3528 -0.00337532 0)
(12.2525 -0.0355379 0)
(12.4697 -0.0135817 0)
(12.3276 -0.0496433 0)
(12.4355 -0.032893 0)
(9.95323 -0.07355 0)
(10.2855 -0.135925 0)
(10.58 -0.134654 0)
(11.0335 -0.0807694 0)
(11.225 -0.0604261 0)
(11.4994 -0.0350556 0)
(11.5313 -0.0556238 0)
(11.7098 -0.0384735 0)
(11.7079 -0.0504999 0)
(11.8831 -0.0281327 0)
(11.8789 -0.0406634 0)
(12.0528 -0.0210008 0)
(12.042 -0.0377834 0)
(12.2108 -0.0215277 0)
(12.1904 -0.0419733 0)
(12.353 -0.0292726 0)
(12.3209 -0.052662 0)
(12.4698 -0.0435604 0)
(12.3987 -0.0665368 0)
(12.435 -0.0519135 0)
(9.98276 -0.122233 0)
(10.2843 -0.23949 0)
(10.6527 -0.215159 0)
(11.0595 -0.142494 0)
(11.2958 -0.0920531 0)
(11.5152 -0.069466 0)
(11.5946 -0.0835306 0)
(11.727 -0.0735446 0)
(11.7746 -0.0735785 0)
(11.9018 -0.0569915 0)
(11.9461 -0.0574067 0)
(12.0703 -0.0451577 0)
(12.1088 -0.0511323 0)
(12.2263 -0.0446026 0)
(12.2567 -0.055783 0)
(12.3659 -0.0544016 0)
(12.3867 -0.0700839 0)
(12.4802 -0.073212 0)
(12.4661 -0.0876635 0)
(12.4472 -0.0709161 0)
(10.0168 -0.181655 0)
(10.2951 -0.343738 0)
(10.7521 -0.297315 0)
(11.1098 -0.197547 0)
(11.3899 -0.125948 0)
(11.5521 -0.107725 0)
(11.6765 -0.112496 0)
(11.7671 -0.108631 0)
(11.8586 -0.0963897 0)
(11.9446 -0.0866004 0)
(12.0282 -0.0742136 0)
(12.1124 -0.0708341 0)
(12.187 -0.0643546 0)
(12.2659 -0.0691805 0)
(12.3297 -0.0682752 0)
(12.4014 -0.0802345 0)
(12.4521 -0.0853334 0)
(12.5096 -0.104289 0)
(12.5246 -0.109458 0)
(12.4778 -0.100884 0)
(10.0563 -0.257036 0)
(10.3147 -0.448097 0)
(10.8931 -0.381082 0)
(11.1772 -0.243349 0)
(11.523 -0.164978 0)
(11.6014 -0.147096 0)
(11.7972 -0.144622 0)
(11.8167 -0.139998 0)
(11.9752 -0.121383 0)
(11.9877 -0.112993 0)
(12.1289 -0.0933017 0)
(12.1381 -0.0944078 0)
(12.2613 -0.0794285 0)
(12.2648 -0.0917807 0)
(12.3662 -0.080211 0)
(12.3622 -0.103083 0)
(12.4361 -0.0960617 0)
(12.4185 -0.13178 0)
(12.4407 -0.125544 0)
(12.3333 -0.139876 0)
(10.0511 -0.350992 0)
(10.3915 -0.560308 0)
(11.0469 -0.463663 0)
(11.2947 -0.290035 0)
(11.6551 -0.212232 0)
(11.6611 -0.188255 0)
(11.8784 -0.180396 0)
(11.807 -0.166601 0)
(11.9797 -0.146877 0)
(11.8762 -0.131265 0)
(12.0265 -0.111969 0)
(11.9035 -0.107542 0)
(12.0344 -0.0927223 0)
(11.8957 -0.100811 0)
(12.0029 -0.0875437 0)
(11.8511 -0.108677 0)
(11.9242 -0.097257 0)
(11.7577 -0.137832 0)
(11.7638 -0.125934 0)
(11.5337 -0.162421 0)
(10.004 -0.459299 0)
(10.5587 -0.700457 0)
(11.1685 -0.54578 0)
(11.3652 -0.350093 0)
(11.5578 -0.263098 0)
(11.4461 -0.225009 0)
(11.494 -0.200364 0)
(11.2829 -0.17398 0)
(11.3035 -0.147197 0)
(11.0586 -0.125009 0)
(11.092 -0.104115 0)
(10.8372 -0.094743 0)
(10.8907 -0.0803232 0)
(10.6285 -0.0835731 0)
(10.6936 -0.0709474 0)
(10.4207 -0.088257 0)
(10.4795 -0.0749571 0)
(10.1882 -0.116477 0)
(10.1949 -0.0963636 0)
(9.85673 -0.160172 0)
(10.0593 -0.632575 0)
(10.6542 -0.858917 0)
(10.8666 -0.600316 0)
(10.6893 -0.371699 0)
(10.4591 -0.256324 0)
(10.0818 -0.194597 0)
(9.84523 -0.153144 0)
(9.48905 -0.120774 0)
(9.33325 -0.0940193 0)
(9.02607 -0.0749502 0)
(8.95681 -0.0591301 0)
(8.68604 -0.0525355 0)
(8.67993 -0.0441759 0)
(8.4202 -0.0462578 0)
(8.45007 -0.0411986 0)
(8.18098 -0.050776 0)
(8.22029 -0.0487115 0)
(7.9218 -0.0702771 0)
(7.92411 -0.0713802 0)
(7.57551 -0.0895066 0)
(10.0804 -0.83759 0)
(9.65658 -0.864703 0)
(8.87578 -0.505828 0)
(8.09043 -0.260919 0)
(7.50203 -0.138373 0)
(7.0147 -0.0814004 0)
(6.71172 -0.0538365 0)
(6.40755 -0.0398433 0)
(6.25073 -0.0296426 0)
(6.03119 -0.0240437 0)
(5.96247 -0.0186682 0)
(5.78079 -0.0182984 0)
(5.76262 -0.0154325 0)
(5.58678 -0.0186683 0)
(5.59255 -0.0164675 0)
(5.40324 -0.0231257 0)
(5.41244 -0.0222406 0)
(5.18876 -0.0329938 0)
(5.17725 -0.0385685 0)
(4.88065 -0.0200102 0)
(8.09168 -0.387532 0)
(5.4564 -0.242064 0)
(3.92325 -0.0432329 0)
(3.17077 0.0152625 0)
(2.81417 0.0180311 0)
(2.61145 0.0111207 0)
(2.49989 0.0056059 0)
(2.39487 0.00227387 0)
(2.33904 0.00146699 0)
(2.26499 0.00042059 0)
(2.23981 0.000694706 0)
(2.17875 -0.000261869 0)
(2.16823 0.000177104 0)
(2.10511 -0.0011095 0)
(2.09833 -0.000343445 0)
(2.02512 -0.00229201 0)
(2.01266 -0.00114807 0)
(1.92063 -0.00385507 0)
(1.88254 -0.00431197 0)
(1.72999 0.0114342 0)
(2.25854 -0.103967 0)
(2.31606 -0.0155281 0)
(2.56388 -0.00619286 0)
(2.65226 -0.0193563 0)
(2.89135 -0.0414051 0)
(2.94009 -0.0471886 0)
(3.14367 -0.0538863 0)
(3.14836 -0.0470696 0)
(3.31968 -0.0514103 0)
(3.29866 -0.0494632 0)
(3.46236 -0.0568926 0)
(3.42938 -0.0563967 0)
(3.5969 -0.0662902 0)
(3.55976 -0.0667393 0)
(3.73133 -0.0767262 0)
(3.69095 -0.0769922 0)
(3.86941 -0.0870596 0)
(3.82753 -0.0874512 0)
(4.01918 -0.0974218 0)
(3.97726 -0.095704 0)
(4.1765 -0.108097 0)
(4.12858 -0.110224 0)
(4.33055 -0.125766 0)
(4.27336 -0.129725 0)
(4.47628 -0.147798 0)
(4.40847 -0.153655 0)
(4.6118 -0.172542 0)
(4.53323 -0.176145 0)
(4.73874 -0.19217 0)
(4.65536 -0.192636 0)
(4.8674 -0.208807 0)
(4.78614 -0.210396 0)
(5.00747 -0.229425 0)
(4.92669 -0.232516 0)
(5.15243 -0.252181 0)
(5.06632 -0.25415 0)
(5.29559 -0.272657 0)
(5.2031 -0.272715 0)
(5.43889 -0.291197 0)
(5.34051 -0.292069 0)
(5.58294 -0.312958 0)
(5.47833 -0.317021 0)
(5.72475 -0.343115 0)
(5.61112 -0.350583 0)
(5.85674 -0.379564 0)
(5.73091 -0.386476 0)
(5.97559 -0.415058 0)
(5.84015 -0.417324 0)
(6.08665 -0.443999 0)
(5.9468 -0.440299 0)
(6.19773 -0.463889 0)
(6.05586 -0.453827 0)
(6.31764 -0.473662 0)
(6.17171 -0.459349 0)
(6.45211 -0.478421 0)
(6.29791 -0.462916 0)
(6.60108 -0.483473 0)
(6.43304 -0.46837 0)
(6.75658 -0.490143 0)
(6.57077 -0.475695 0)
(6.91262 -0.501123 0)
(6.71651 -0.489667 0)
(7.07236 -0.523422 0)
(6.87766 -0.518005 0)
(7.23374 -0.561656 0)
(7.0457 -0.56183 0)
(7.38856 -0.611389 0)
(7.19817 -0.614583 0)
(7.52534 -0.66306 0)
(7.32478 -0.664105 0)
(7.64661 -0.713142 0)
(7.4341 -0.707704 0)
(7.75658 -0.753119 0)
(7.53161 -0.740343 0)
(7.86937 -0.783393 0)
(7.63529 -0.764745 0)
(7.9944 -0.805929 0)
(7.75884 -0.78301 0)
(8.13836 -0.827357 0)
(7.90244 -0.799697 0)
(8.30205 -0.845799 0)
(8.06029 -0.813639 0)
(8.47898 -0.857763 0)
(8.22605 -0.826283 0)
(8.65919 -0.873364 0)
(8.40154 -0.84421 0)
(8.8276 -0.901512 0)
(8.58192 -0.875919 0)
(8.98024 -0.940749 0)
(8.74925 -0.917454 0)
(9.11554 -0.983568 0)
(8.89329 -0.95812 0)
(9.22677 -1.02139 0)
(9.00565 -0.993773 0)
(9.31468 -1.05502 0)
(9.09594 -1.02152 0)
(9.38582 -1.07902 0)
(9.17285 -1.04143 0)
(9.4523 -1.09671 0)
(9.25719 -1.05889 0)
(9.5288 -1.11675 0)
(9.34985 -1.07801 0)
(9.6166 -1.14181 0)
(9.4448 -1.09825 0)
(9.70062 -1.15979 0)
(9.52476 -1.10384 0)
(9.76357 -1.1678 0)
(9.57182 -1.10526 0)
(9.79534 -1.17041 0)
(9.58705 -1.09806 0)
(9.79576 -1.16171 0)
(9.57202 -1.08193 0)
(9.75772 -1.1406 0)
(9.52814 -1.05294 0)
(9.69511 -1.10989 0)
(9.48326 -1.01572 0)
(9.6395 -1.06771 0)
(9.45155 -0.969318 0)
(9.59254 -1.01764 0)
(9.42005 -0.914743 0)
(9.54973 -0.957501 0)
(9.39184 -0.854067 0)
(9.51745 -0.89761 0)
(9.36282 -0.793699 0)
(9.48642 -0.839982 0)
(9.32005 -0.735813 0)
(9.45707 -0.779169 0)
(9.26863 -0.669155 0)
(9.42518 -0.706492 0)
(9.21999 -0.594634 0)
(9.38593 -0.628091 0)
(9.17825 -0.518185 0)
(9.33704 -0.552579 0)
(9.13989 -0.44457 0)
(9.28405 -0.482525 0)
(9.10045 -0.374392 0)
(9.226 -0.408943 0)
(9.05543 -0.298419 0)
(9.17237 -0.330977 0)
(9.01771 -0.225771 0)
(9.12236 -0.261867 0)
(8.98475 -0.161506 0)
(9.06648 -0.191026 0)
(8.9544 -0.0997039 0)
(9.01473 -0.12963 0)
(8.92709 -0.0454972 0)
(8.95586 -0.0619217 0)
(8.89533 0.0199127 0)
(8.89374 0.00445797 0)
(8.86727 0.0854295 0)
(8.83096 0.0696219 0)
(8.8355 0.155679 0)
(8.77803 0.148664 0)
(8.80368 0.234927 0)
(8.73328 0.225549 0)
(8.77447 0.322769 0)
(8.70296 0.31904 0)
(8.7282 0.411676 0)
(8.67856 0.41106 0)
(8.68782 0.505844 0)
(8.65599 0.485139 0)
(8.64175 0.587861 0)
(8.63751 0.556762 0)
(8.57989 0.663879 0)
(8.60524 0.627423 0)
(8.50336 0.74619 0)
(8.5736 0.69881 0)
(8.4203 0.824445 0)
(8.52969 0.774573 0)
(8.32599 0.914553 0)
(8.45695 0.83999 0)
(8.20077 0.995458 0)
(8.37827 0.909666 0)
(8.02865 1.0876 0)
(8.2934 0.980021 0)
(7.85059 1.20892 0)
(8.2127 1.06113 0)
(7.67297 1.33343 0)
(8.14951 1.14528 0)
(7.52855 1.4765 0)
(8.07918 1.25408 0)
(7.40719 1.63222 0)
(8.00363 1.3867 0)
(7.29484 1.79886 0)
(7.88922 1.53409 0)
(7.18209 1.97391 0)
(7.72298 1.71394 0)
(7.04606 2.16657 0)
(7.53999 1.94668 0)
(6.86453 2.38796 0)
(7.3474 2.23239 0)
(6.62252 2.66806 0)
(7.08459 2.58566 0)
(6.3257 3.06744 0)
(6.69774 3.04927 0)
(5.99097 3.74532 0)
(6.21611 3.77712 0)
(5.3447 4.87987 0)
(6.3387 5.43496 0)
(4.06291 8.38331 0)
(5.3122 -0.0684109 0)
(5.23449 -0.0330747 0)
(5.35734 -0.0419665 0)
(5.32248 -0.067217 0)
(5.5121 -0.0995934 0)
(5.49143 -0.109446 0)
(5.67493 -0.115629 0)
(5.61924 -0.105783 0)
(5.77866 -0.105136 0)
(5.69509 -0.0983713 0)
(5.85223 -0.105054 0)
(5.7608 -0.104328 0)
(5.92985 -0.11556 0)
(5.83803 -0.116327 0)
(6.02002 -0.127822 0)
(5.92623 -0.127997 0)
(6.11898 -0.13951 0)
(6.02109 -0.138949 0)
(6.22304 -0.151083 0)
(6.12109 -0.1501 0)
(6.33083 -0.163394 0)
(6.22323 -0.164259 0)
(6.4379 -0.179871 0)
(6.32197 -0.182096 0)
(6.54122 -0.199711 0)
(6.41649 -0.202871 0)
(6.64132 -0.221175 0)
(6.5083 -0.223189 0)
(6.73928 -0.241084 0)
(6.59912 -0.24184 0)
(6.83824 -0.260221 0)
(6.6927 -0.261165 0)
(6.94105 -0.281626 0)
(6.78956 -0.283118 0)
(7.04477 -0.304322 0)
(6.88505 -0.304111 0)
(7.14501 -0.324503 0)
(6.97725 -0.322335 0)
(7.24148 -0.343199 0)
(7.06751 -0.341209 0)
(7.33611 -0.364797 0)
(7.15793 -0.364767 0)
(7.43044 -0.392392 0)
(7.24802 -0.394381 0)
(7.52354 -0.4246 0)
(7.33484 -0.426122 0)
(7.61269 -0.456725 0)
(7.41604 -0.455502 0)
(7.69716 -0.484658 0)
(7.49098 -0.479489 0)
(7.77926 -0.505639 0)
(7.56067 -0.495662 0)
(7.86192 -0.5189 0)
(7.62917 -0.504643 0)
(7.94802 -0.526966 0)
(7.70201 -0.510592 0)
(8.04011 -0.534143 0)
(7.7836 -0.518043 0)
(8.13961 -0.544546 0)
(7.87654 -0.529756 0)
(8.24596 -0.560821 0)
(7.9806 -0.548638 0)
(8.35759 -0.586331 0)
(8.09366 -0.578073 0)
(8.47039 -0.622408 0)
(8.21023 -0.617223 0)
(8.58013 -0.664948 0)
(8.32164 -0.661682 0)
(8.68608 -0.712399 0)
(8.42451 -0.709335 0)
(8.78747 -0.758063 0)
(8.51599 -0.7489 0)
(8.88371 -0.79549 0)
(8.60299 -0.780864 0)
(8.97842 -0.828554 0)
(8.69432 -0.807527 0)
(9.07613 -0.856808 0)
(8.79454 -0.831144 0)
(9.18026 -0.882009 0)
(8.90152 -0.853744 0)
(9.29483 -0.904527 0)
(9.01513 -0.871216 0)
(9.41485 -0.922658 0)
(9.13792 -0.885646 0)
(9.53219 -0.938882 0)
(9.26702 -0.903372 0)
(9.64477 -0.96375 0)
(9.39551 -0.930977 0)
(9.7463 -0.996537 0)
(9.51022 -0.96621 0)
(9.83541 -1.0309 0)
(9.60466 -0.996572 0)
(9.90363 -1.05952 0)
(9.67297 -1.02274 0)
(9.94983 -1.08363 0)
(9.72018 -1.04276 0)
(9.98068 -1.10205 0)
(9.75742 -1.0604 0)
(10.0111 -1.12205 0)
(9.79984 -1.08174 0)
(10.0476 -1.14749 0)
(9.84857 -1.10484 0)
(10.0907 -1.17439 0)
(9.88847 -1.12158 0)
(10.1246 -1.18139 0)
(9.90937 -1.11852 0)
(10.1376 -1.17626 0)
(9.90654 -1.10819 0)
(10.1227 -1.16974 0)
(9.87778 -1.09253 0)
(10.079 -1.14888 0)
(9.82273 -1.05904 0)
(10.0062 -1.11406 0)
(9.74947 -1.02357 0)
(9.92809 -1.08288 0)
(9.68457 -0.990972 0)
(9.8586 -1.04884 0)
(9.62758 -0.948387 0)
(9.7981 -0.999736 0)
(9.5698 -0.895601 0)
(9.74582 -0.942426 0)
(9.51369 -0.837122 0)
(9.7004 -0.883428 0)
(9.4608 -0.771879 0)
(9.6566 -0.822774 0)
(9.39986 -0.707137 0)
(9.60968 -0.762625 0)
(9.33401 -0.641638 0)
(9.55968 -0.691161 0)
(9.26922 -0.567439 0)
(9.50169 -0.615794 0)
(9.20583 -0.490906 0)
(9.4377 -0.538397 0)
(9.14655 -0.416154 0)
(9.372 -0.464239 0)
(9.07824 -0.341981 0)
(9.30236 -0.390001 0)
(9.014 -0.27266 0)
(9.24111 -0.318433 0)
(8.96489 -0.205183 0)
(9.18957 -0.25069 0)
(8.91967 -0.138963 0)
(9.13982 -0.182843 0)
(8.87674 -0.0741359 0)
(9.09399 -0.12181 0)
(8.83293 -0.0136598 0)
(9.04406 -0.0534143 0)
(8.79427 0.0489231 0)
(8.99684 0.0113537 0)
(8.77497 0.111801 0)
(8.94671 0.0786929 0)
(8.75566 0.178908 0)
(8.89473 0.149245 0)
(8.73454 0.256243 0)
(8.85481 0.225779 0)
(8.70643 0.342672 0)
(8.82749 0.314267 0)
(8.67052 0.437519 0)
(8.81583 0.401189 0)
(8.63947 0.535889 0)
(8.81101 0.473442 0)
(8.5981 0.62342 0)
(8.79966 0.548133 0)
(8.55767 0.706377 0)
(8.78078 0.616506 0)
(8.5186 0.789476 0)
(8.75685 0.679131 0)
(8.47358 0.882451 0)
(8.70447 0.751013 0)
(8.41021 0.99064 0)
(8.66409 0.82356 0)
(8.2942 1.08978 0)
(8.62086 0.90157 0)
(8.14748 1.20153 0)
(8.55338 0.966396 0)
(7.98674 1.31678 0)
(8.50616 1.03518 0)
(7.83145 1.43579 0)
(8.46995 1.11133 0)
(7.69266 1.57115 0)
(8.43873 1.2261 0)
(7.58472 1.72447 0)
(8.38533 1.36964 0)
(7.50104 1.89042 0)
(8.30404 1.53485 0)
(7.40693 2.06155 0)
(8.21359 1.72981 0)
(7.27494 2.25704 0)
(8.11271 1.96183 0)
(7.13583 2.51804 0)
(7.96432 2.23443 0)
(7.01968 2.87022 0)
(7.74523 2.57331 0)
(6.87738 3.35074 0)
(7.48544 3.049 0)
(6.59554 4.03693 0)
(7.49394 3.86003 0)
(5.95469 5.28259 0)
(8.40636 4.71909 0)
(6.45147 8.84496 0)
(7.98868 -0.0896 0)
(7.8737 -0.0796795 0)
(8.00462 -0.0972344 0)
(7.92341 -0.11063 0)
(8.11614 -0.130053 0)
(8.04911 -0.128658 0)
(8.23424 -0.131428 0)
(8.128 -0.118819 0)
(8.28828 -0.119582 0)
(8.15386 -0.111426 0)
(8.31423 -0.120548 0)
(8.17504 -0.119713 0)
(8.35003 -0.134755 0)
(8.21225 -0.136457 0)
(8.40182 -0.152603 0)
(8.26328 -0.153179 0)
(8.46374 -0.168392 0)
(8.32105 -0.16711 0)
(8.52864 -0.181781 0)
(8.38 -0.179873 0)
(8.59333 -0.195488 0)
(8.43852 -0.194566 0)
(8.65721 -0.211999 0)
(8.49583 -0.212092 0)
(8.72015 -0.231128 0)
(8.55243 -0.231733 0)
(8.78284 -0.25154 0)
(8.60878 -0.251639 0)
(8.84509 -0.271543 0)
(8.66344 -0.270875 0)
(8.90551 -0.291351 0)
(8.71575 -0.290734 0)
(8.96388 -0.312674 0)
(8.76537 -0.312182 0)
(9.01917 -0.334897 0)
(8.8116 -0.333092 0)
(9.07132 -0.355438 0)
(8.85621 -0.351668 0)
(9.12215 -0.374388 0)
(8.90165 -0.369956 0)
(9.17384 -0.39508 0)
(8.95045 -0.391861 0)
(9.22796 -0.420823 0)
(9.0019 -0.419311 0)
(9.28305 -0.451109 0)
(9.05244 -0.449728 0)
(9.33584 -0.481954 0)
(9.09734 -0.478412 0)
(9.38341 -0.508865 0)
(9.13402 -0.501462 0)
(9.42569 -0.529055 0)
(9.16374 -0.517086 0)
(9.46429 -0.54255 0)
(9.19041 -0.526667 0)
(9.50195 -0.552248 0)
(9.2204 -0.534417 0)
(9.54322 -0.563072 0)
(9.26061 -0.545487 0)
(9.59179 -0.578749 0)
(9.31317 -0.562013 0)
(9.64665 -0.598631 0)
(9.3736 -0.583224 0)
(9.7043 -0.623446 0)
(9.43511 -0.611621 0)
(9.76168 -0.656025 0)
(9.49234 -0.647666 0)
(9.81788 -0.696855 0)
(9.5478 -0.691822 0)
(9.87772 -0.74525 0)
(9.60231 -0.739461 0)
(9.9345 -0.791565 0)
(9.6524 -0.779773 0)
(9.98913 -0.828529 0)
(9.70095 -0.812588 0)
(10.0427 -0.861657 0)
(9.7501 -0.84085 0)
(10.094 -0.890655 0)
(9.8022 -0.865259 0)
(10.1467 -0.917959 0)
(9.86187 -0.890266 0)
(10.2051 -0.942873 0)
(9.92923 -0.910047 0)
(10.2683 -0.962674 0)
(10.0034 -0.923326 0)
(10.3303 -0.977395 0)
(10.0805 -0.939701 0)
(10.3883 -0.996649 0)
(10.1486 -0.96195 0)
(10.4367 -1.02399 0)
(10.2036 -0.991369 0)
(10.4718 -1.05105 0)
(10.2412 -1.01386 0)
(10.486 -1.07317 0)
(10.2584 -1.03253 0)
(10.4815 -1.0906 0)
(10.2622 -1.04752 0)
(10.4628 -1.10779 0)
(10.2588 -1.06552 0)
(10.448 -1.13068 0)
(10.2579 -1.08886 0)
(10.4368 -1.15881 0)
(10.2551 -1.11319 0)
(10.4209 -1.18377 0)
(10.2364 -1.12438 0)
(10.3948 -1.18398 0)
(10.2065 -1.11452 0)
(10.3572 -1.17184 0)
(10.167 -1.09486 0)
(10.3019 -1.15175 0)
(10.1049 -1.06409 0)
(10.2176 -1.11754 0)
(10.0191 -1.02089 0)
(10.1196 -1.0787 0)
(9.93978 -0.988672 0)
(10.0356 -1.05199 0)
(9.86401 -0.957515 0)
(9.9455 -1.01863 0)
(9.77831 -0.915782 0)
(9.85904 -0.97404 0)
(9.69615 -0.863767 0)
(9.78648 -0.921316 0)
(9.62088 -0.804372 0)
(9.72037 -0.863246 0)
(9.54904 -0.739198 0)
(9.6566 -0.801102 0)
(9.47733 -0.672777 0)
(9.58958 -0.739987 0)
(9.39944 -0.605828 0)
(9.51155 -0.668998 0)
(9.31748 -0.526911 0)
(9.42776 -0.590378 0)
(9.22721 -0.447089 0)
(9.35087 -0.51553 0)
(9.14113 -0.373387 0)
(9.27572 -0.438833 0)
(9.05392 -0.298107 0)
(9.20065 -0.369561 0)
(8.9801 -0.236625 0)
(9.1324 -0.304618 0)
(8.91566 -0.172607 0)
(9.07537 -0.244105 0)
(8.86504 -0.103493 0)
(9.01574 -0.177084 0)
(8.81793 -0.0384596 0)
(8.96838 -0.116783 0)
(8.7778 0.0240972 0)
(8.92647 -0.0480592 0)
(8.74422 0.0869929 0)
(8.8956 0.0110292 0)
(8.72832 0.147391 0)
(8.86234 0.0733763 0)
(8.72963 0.22095 0)
(8.82766 0.136385 0)
(8.71412 0.295277 0)
(8.80412 0.214438 0)
(8.68823 0.389634 0)
(8.77768 0.291955 0)
(8.66273 0.482584 0)
(8.76145 0.372134 0)
(8.63498 0.57686 0)
(8.74918 0.455675 0)
(8.60699 0.666609 0)
(8.73157 0.525825 0)
(8.59157 0.74894 0)
(8.71925 0.590792 0)
(8.56766 0.837708 0)
(8.70085 0.659513 0)
(8.53299 0.943074 0)
(8.6848 0.741255 0)
(8.46574 1.05271 0)
(8.69427 0.818401 0)
(8.35663 1.16978 0)
(8.69579 0.900771 0)
(8.21529 1.29838 0)
(8.70232 0.973189 0)
(8.05394 1.41245 0)
(8.71332 1.0322 0)
(7.90865 1.52474 0)
(8.7067 1.10355 0)
(7.78481 1.6486 0)
(8.68173 1.20101 0)
(7.70107 1.80341 0)
(8.63976 1.33683 0)
(7.62462 1.98031 0)
(8.59276 1.50081 0)
(7.53695 2.17549 0)
(8.53668 1.68266 0)
(7.46298 2.40852 0)
(8.43754 1.88618 0)
(7.42558 2.6942 0)
(8.3123 2.15094 0)
(7.3802 3.05715 0)
(8.24128 2.51448 0)
(7.25721 3.52817 0)
(8.36554 3.01239 0)
(6.95079 4.26418 0)
(8.90348 3.52269 0)
(6.6899 5.81767 0)
(9.64151 3.6194 0)
(8.07023 8.1163 0)
(10.2192 -0.113213 0)
(10.0921 -0.186542 0)
(10.2468 -0.228669 0)
(10.1465 -0.216943 0)
(10.3395 -0.203949 0)
(10.2381 -0.17059 0)
(10.4165 -0.15791 0)
(10.2779 -0.134233 0)
(10.4365 -0.134865 0)
(10.2762 -0.122959 0)
(10.4367 -0.134768 0)
(10.2734 -0.131218 0)
(10.4465 -0.149898 0)
(10.2848 -0.14955 0)
(10.4701 -0.169916 0)
(10.3075 -0.168447 0)
(10.5012 -0.187584 0)
(10.3345 -0.183663 0)
(10.5341 -0.201613 0)
(10.3622 -0.196376 0)
(10.5671 -0.214751 0)
(10.3897 -0.209845 0)
(10.5994 -0.22998 0)
(10.4165 -0.226007 0)
(10.6305 -0.24796 0)
(10.4423 -0.244516 0)
(10.6599 -0.267511 0)
(10.4665 -0.263652 0)
(10.687 -0.286978 0)
(10.4885 -0.282377 0)
(10.7109 -0.306047 0)
(10.5071 -0.300995 0)
(10.7312 -0.325406 0)
(10.5219 -0.320369 0)
(10.7482 -0.34552 0)
(10.5334 -0.340012 0)
(10.7633 -0.365443 0)
(10.5435 -0.359396 0)
(10.7792 -0.385653 0)
(10.555 -0.379566 0)
(10.7979 -0.407796 0)
(10.5693 -0.402938 0)
(10.8192 -0.434234 0)
(10.5847 -0.430594 0)
(10.8401 -0.464193 0)
(10.5981 -0.460104 0)
(10.8569 -0.493909 0)
(10.6065 -0.486844 0)
(10.8677 -0.518884 0)
(10.6097 -0.507102 0)
(10.8729 -0.536701 0)
(10.6092 -0.52015 0)
(10.8743 -0.547971 0)
(10.6078 -0.528327 0)
(10.8754 -0.556927 0)
(10.6107 -0.536972 0)
(10.8804 -0.569138 0)
(10.6202 -0.550222 0)
(10.8897 -0.586042 0)
(10.6328 -0.567686 0)
(10.8993 -0.606617 0)
(10.6448 -0.589244 0)
(10.9068 -0.631711 0)
(10.6538 -0.616575 0)
(10.9108 -0.662795 0)
(10.659 -0.652145 0)
(10.9147 -0.705184 0)
(10.664 -0.699569 0)
(10.9205 -0.754525 0)
(10.6664 -0.7467 0)
(10.923 -0.800788 0)
(10.6626 -0.787475 0)
(10.9213 -0.83798 0)
(10.6595 -0.821227 0)
(10.918 -0.87022 0)
(10.6539 -0.849946 0)
(10.9127 -0.898461 0)
(10.6538 -0.876695 0)
(10.9147 -0.928797 0)
(10.6678 -0.904456 0)
(10.9245 -0.95478 0)
(10.6911 -0.926526 0)
(10.9371 -0.973585 0)
(10.7153 -0.939604 0)
(10.9495 -0.98848 0)
(10.7371 -0.953466 0)
(10.9557 -1.00382 0)
(10.75 -0.97482 0)
(10.9554 -1.02882 0)
(10.7548 -0.997833 0)
(10.9399 -1.04886 0)
(10.7421 -1.01079 0)
(10.9057 -1.06256 0)
(10.7139 -1.02182 0)
(10.8603 -1.0758 0)
(10.6777 -1.03316 0)
(10.8057 -1.09347 0)
(10.637 -1.05333 0)
(10.7534 -1.11889 0)
(10.5924 -1.07649 0)
(10.7004 -1.14464 0)
(10.5399 -1.09637 0)
(10.6381 -1.16592 0)
(10.4794 -1.10408 0)
(10.5724 -1.16651 0)
(10.4155 -1.09387 0)
(10.4998 -1.15229 0)
(10.3427 -1.06661 0)
(10.4107 -1.12108 0)
(10.2509 -1.02457 0)
(10.2966 -1.07431 0)
(10.1428 -0.978928 0)
(10.1889 -1.04401 0)
(10.0547 -0.954057 0)
(10.0856 -1.01641 0)
(9.95427 -0.916241 0)
(9.96955 -0.977076 0)
(9.83811 -0.87087 0)
(9.84895 -0.937291 0)
(9.72682 -0.819206 0)
(9.74559 -0.891162 0)
(9.62428 -0.762283 0)
(9.66044 -0.834783 0)
(9.527 -0.702462 0)
(9.58294 -0.775346 0)
(9.43476 -0.640872 0)
(9.49797 -0.710556 0)
(9.33909 -0.566972 0)
(9.40125 -0.633674 0)
(9.23859 -0.485347 0)
(9.30326 -0.554762 0)
(9.13521 -0.407597 0)
(9.2136 -0.482915 0)
(9.03404 -0.333192 0)
(9.13067 -0.407102 0)
(8.93603 -0.261376 0)
(9.0569 -0.342352 0)
(8.84767 -0.202505 0)
(8.9832 -0.283133 0)
(8.77025 -0.141969 0)
(8.92028 -0.227588 0)
(8.69995 -0.0699748 0)
(8.86174 -0.162696 0)
(8.64585 -0.00855362 0)
(8.82777 -0.111671 0)
(8.607 0.0533354 0)
(8.79693 -0.0493924 0)
(8.58201 0.110148 0)
(8.78561 0.000824659 0)
(8.5673 0.166549 0)
(8.78112 0.0543923 0)
(8.55801 0.241365 0)
(8.79219 0.125946 0)
(8.52949 0.317862 0)
(8.79835 0.204181 0)
(8.51033 0.416458 0)
(8.78308 0.283383 0)
(8.49265 0.520125 0)
(8.7731 0.367636 0)
(8.45399 0.60249 0)
(8.77049 0.438455 0)
(8.43581 0.693195 0)
(8.77755 0.495856 0)
(8.40331 0.776324 0)
(8.80377 0.564116 0)
(8.35423 0.870072 0)
(8.82004 0.635596 0)
(8.29574 0.981237 0)
(8.85428 0.716843 0)
(8.22906 1.10268 0)
(8.888 0.790135 0)
(8.14836 1.23842 0)
(8.9207 0.866975 0)
(8.03841 1.36809 0)
(8.96167 0.931602 0)
(7.94251 1.4809 0)
(8.95967 0.994221 0)
(7.87739 1.59455 0)
(8.92121 1.06996 0)
(7.83158 1.72528 0)
(8.86382 1.16126 0)
(7.79558 1.88992 0)
(8.82247 1.28607 0)
(7.76422 2.07908 0)
(8.78932 1.43761 0)
(7.74452 2.29003 0)
(8.75239 1.60604 0)
(7.73899 2.5288 0)
(8.7392 1.81966 0)
(7.69891 2.81458 0)
(8.79586 2.08825 0)
(7.60952 3.18995 0)
(8.9829 2.40717 0)
(7.44662 3.72633 0)
(9.37369 2.6974 0)
(7.30886 4.64011 0)
(9.9552 2.8219 0)
(7.64672 6.03607 0)
(10.2352 3.03513 0)
(9.05014 7.1102 0)
(11.7035 -0.0973308 0)
(11.6116 -0.203035 0)
(11.8034 -0.265134 0)
(11.746 -0.249422 0)
(11.9162 -0.230779 0)
(11.8166 -0.181964 0)
(11.9538 -0.164711 0)
(11.819 -0.13313 0)
(11.9422 -0.137085 0)
(11.7944 -0.122242 0)
(11.9211 -0.13951 0)
(11.7732 -0.133244 0)
(11.9104 -0.156818 0)
(11.7656 -0.153084 0)
(11.9131 -0.177926 0)
(11.7691 -0.172885 0)
(11.9235 -0.196402 0)
(11.7772 -0.188818 0)
(11.9362 -0.210956 0)
(11.7859 -0.201823 0)
(11.9483 -0.224148 0)
(11.793 -0.215064 0)
(11.9579 -0.23898 0)
(11.7971 -0.230654 0)
(11.9642 -0.25633 0)
(11.7981 -0.248421 0)
(11.9672 -0.275177 0)
(11.7962 -0.2668 0)
(11.9676 -0.29399 0)
(11.7928 -0.284606 0)
(11.9663 -0.311977 0)
(11.7886 -0.301638 0)
(11.9638 -0.329687 0)
(11.7838 -0.318934 0)
(11.9603 -0.34791 0)
(11.7784 -0.337017 0)
(11.9563 -0.367131 0)
(11.7728 -0.35645 0)
(11.9526 -0.387978 0)
(11.7673 -0.377963 0)
(11.9495 -0.411489 0)
(11.7613 -0.402645 0)
(11.9461 -0.438306 0)
(11.7535 -0.430138 0)
(11.9403 -0.467203 0)
(11.7422 -0.458036 0)
(11.9301 -0.494907 0)
(11.7267 -0.482741 0)
(11.9142 -0.517835 0)
(11.7067 -0.501238 0)
(11.8924 -0.53398 0)
(11.6838 -0.513159 0)
(11.8671 -0.544849 0)
(11.6618 -0.522199 0)
(11.8428 -0.555298 0)
(11.6437 -0.532766 0)
(11.8207 -0.567957 0)
(11.6262 -0.545967 0)
(11.7974 -0.58302 0)
(11.6047 -0.56245 0)
(11.772 -0.602274 0)
(11.5779 -0.583229 0)
(11.744 -0.625586 0)
(11.5454 -0.607991 0)
(11.7136 -0.655195 0)
(11.5116 -0.64258 0)
(11.6838 -0.696802 0)
(11.4753 -0.687051 0)
(11.6457 -0.743306 0)
(11.4316 -0.73081 0)
(11.5994 -0.785781 0)
(11.3814 -0.76937 0)
(11.5485 -0.822943 0)
(11.3323 -0.802906 0)
(11.4949 -0.854419 0)
(11.2825 -0.832936 0)
(11.4426 -0.886203 0)
(11.2433 -0.866686 0)
(11.4053 -0.922559 0)
(11.2175 -0.899316 0)
(11.3748 -0.951634 0)
(11.1961 -0.923546 0)
(11.3444 -0.96973 0)
(11.1747 -0.93849 0)
(11.3157 -0.984374 0)
(11.1479 -0.950602 0)
(11.2855 -0.998962 0)
(11.1195 -0.969744 0)
(11.2489 -1.01989 0)
(11.0833 -0.982939 0)
(11.1969 -1.02968 0)
(11.0293 -0.988702 0)
(11.1357 -1.04052 0)
(10.9684 -0.997245 0)
(11.0697 -1.05396 0)
(10.9043 -1.00755 0)
(10.997 -1.07275 0)
(10.8386 -1.02582 0)
(10.9174 -1.09722 0)
(10.7669 -1.04774 0)
(10.837 -1.1202 0)
(10.6915 -1.06421 0)
(10.7542 -1.13862 0)
(10.6122 -1.07023 0)
(10.6647 -1.13502 0)
(10.5215 -1.05678 0)
(10.5588 -1.11494 0)
(10.4165 -1.02298 0)
(10.4325 -1.0762 0)
(10.2933 -0.971171 0)
(10.2896 -1.02523 0)
(10.1796 -0.933867 0)
(10.1672 -1.00359 0)
(10.0646 -0.904082 0)
(10.0299 -0.967265 0)
(9.93215 -0.856023 0)
(9.88251 -0.922948 0)
(9.78615 -0.806041 0)
(9.7373 -0.886504 0)
(9.64508 -0.760238 0)
(9.60785 -0.84895 0)
(9.51344 -0.710659 0)
(9.50109 -0.798504 0)
(9.39401 -0.65488 0)
(9.40135 -0.740153 0)
(9.28098 -0.591521 0)
(9.29019 -0.674496 0)
(9.16874 -0.514884 0)
(9.17965 -0.596449 0)
(9.05467 -0.432371 0)
(9.07499 -0.517701 0)
(8.9444 -0.35788 0)
(8.97294 -0.445268 0)
(8.8362 -0.282673 0)
(8.88013 -0.376148 0)
(8.73627 -0.215399 0)
(8.80349 -0.313094 0)
(8.63495 -0.154784 0)
(8.72702 -0.260459 0)
(8.5421 -0.0951121 0)
(8.65891 -0.205648 0)
(8.45435 -0.0299478 0)
(8.61131 -0.154162 0)
(8.40596 0.0184076 0)
(8.57789 -0.111196 0)
(8.36483 0.086979 0)
(8.55277 -0.062622 0)
(8.34406 0.139995 0)
(8.55581 -0.021945 0)
(8.32737 0.199361 0)
(8.57396 0.0318458 0)