/*--------------------------------*- C++ -*----------------------------------*\
| =========                 |                                                 |
| \\      /  F ield         | OpenFOAM: The Open Source CFD Toolbox           |
|  \\    /   O peration     | Version:  2.4.0                                 |
|   \\  /    A nd           | Web:      www.OpenFOAM.org                      |
|    \\/     M anipulation  |                                                 |
\*---------------------------------------------------------------------------*/
FoamFile
{
    version     2.0;
    format      ascii;
    class       volScalarField;
    location    "0.26";
    object      k;
}
// * * * * * * * * * * * * * * * * * * * * * * * * * * * * * * * * * * * * * //

dimensions      [0 2 -2 0 0 0 0];

internalField   nonuniform List<scalar> 
8800
(
8.11833
10.2655
8.79589
6.81766
5.71072
4.96727
4.5303
4.13811
3.91951
3.65808
3.54392
3.3578
3.28969
3.14148
3.07595
2.9563
2.85366
2.75586
2.58217
2.50583
1.40242
4.35218
5.31999
5.28772
5.13169
4.80517
4.57799
4.28439
4.12342
3.87803
3.77529
3.58497
3.51629
3.37218
3.31922
3.21219
3.14904
3.06242
2.9791
2.91844
0.0842708
0.731631
1.56194
1.94585
2.27495
2.43428
2.57833
2.59932
2.62448
2.60308
2.59096
2.5432
2.5251
2.4771
2.46244
2.42031
2.41239
2.37751
2.37954
2.35097
0.00334646
0.0699065
0.255749
0.424856
0.583782
0.698637
0.837878
0.928974
1.02434
1.09401
1.16894
1.21276
1.26213
1.30356
1.34476
1.37369
1.41641
1.44569
1.50362
1.55067
0.000122513
0.00495434
0.0215784
0.0569473
0.0870394
0.122209
0.158878
0.209709
0.237581
0.289546
0.316639
0.364586
0.386587
0.43446
0.457002
0.505649
0.532521
0.591374
0.627355
0.728077
2.49914e-05
0.0003091
0.00143268
0.00481341
0.00739334
0.012677
0.0168947
0.0265723
0.0321174
0.0450493
0.0514823
0.0658273
0.0723386
0.0878998
0.0951245
0.112269
0.122386
0.146695
0.159716
0.208496
2.17961e-05
4.35534e-05
0.000118424
0.000364712
0.000528403
0.00088635
0.00119539
0.00197334
0.00250505
0.00390252
0.00467253
0.00661751
0.00761958
0.0101269
0.0113068
0.0141474
0.0162829
0.0209789
0.0235995
0.0346498
2.12209e-05
3.09972e-05
4.4668e-05
8.02996e-05
9.3953e-05
0.000114169
0.000129657
0.000173113
0.000203176
0.000283463
0.0003251
0.000453721
0.000528032
0.000728478
0.000814025
0.00102309
0.00133973
0.00160875
0.00181682
0.00316357
2.07062e-05
2.80484e-05
3.85178e-05
6.44595e-05
7.29126e-05
7.18673e-05
6.95661e-05
7.16859e-05
8.30321e-05
9.16055e-05
9.19253e-05
9.31612e-05
9.53364e-05
0.000106783
0.0001145
0.000130532
0.000149495
0.000154681
0.000157516
0.000242887
2.05879e-05
2.84513e-05
3.69119e-05
5.67983e-05
6.45934e-05
6.48813e-05
6.47353e-05
6.5141e-05
7.03832e-05
7.72114e-05
7.80615e-05
7.64336e-05
7.41438e-05
7.45335e-05
7.67717e-05
8.13174e-05
8.4813e-05
8.44607e-05
8.36957e-05
8.66488e-05
2.06408e-05
2.96603e-05
3.69499e-05
4.78783e-05
6.45578e-05
7.4057e-05
7.41565e-05
6.86535e-05
6.71198e-05
7.12473e-05
7.46679e-05
7.55325e-05
7.73203e-05
7.90681e-05
7.9014e-05
7.9425e-05
8.22203e-05
8.23361e-05
8.22519e-05
8.7494e-05
2.07633e-05
2.86529e-05
3.86828e-05
6.30445e-05
7.31302e-05
7.32542e-05
7.12474e-05
7.22832e-05
8.64104e-05
9.42305e-05
9.4294e-05
9.51364e-05
9.71538e-05
0.000104465
0.000110243
0.000125671
0.000136022
0.000141112
0.000151354
0.000180463
2.10629e-05
2.99409e-05
4.64742e-05
8.09711e-05
8.88935e-05
0.000105979
0.000127019
0.000188755
0.000230121
0.000290721
0.00031771
0.000396058
0.000459933
0.000646375
0.000771562
0.00103817
0.00115905
0.00137099
0.00170051
0.00219505
2.1623e-05
4.316e-05
0.000117693
0.00033915
0.000504862
0.000900183
0.00124307
0.00209924
0.00263981
0.00382081
0.00449712
0.00624712
0.00722574
0.00959554
0.0109414
0.0139929
0.0155315
0.019219
0.0213408
0.0271191
2.49963e-05
0.000307685
0.00142364
0.00447271
0.00722412
0.0131875
0.0173338
0.0270839
0.0327786
0.0443978
0.0502656
0.0643036
0.0710197
0.0862134
0.0937526
0.111098
0.119294
0.139333
0.149751
0.177511
0.000123481
0.00492336
0.0216363
0.053937
0.0872787
0.12814
0.156269
0.210384
0.241636
0.286804
0.31034
0.363189
0.385106
0.43174
0.452924
0.50256
0.523783
0.577349
0.601333
0.662744
0.00336817
0.0695735
0.257643
0.416789
0.590923
0.70153
0.831822
0.933395
1.026
1.0904
1.15318
1.22161
1.25264
1.30505
1.32886
1.37782
1.39435
1.43921
1.45581
1.49539
0.0846173
0.728302
1.56454
1.93824
2.28807
2.42568
2.58156
2.5975
2.62554
2.59551
2.58675
2.54275
2.52516
2.4718
2.45837
2.41576
2.40397
2.3733
2.3619
2.33408
1.40705
4.34715
5.32162
5.28722
5.13359
4.7974
4.59044
4.27262
4.13124
3.87136
3.78072
3.57814
3.52379
3.37038
3.33455
3.20791
3.18332
3.07102
3.03954
2.94834
8.12177
10.2606
8.79816
6.81587
5.71365
4.96078
4.54128
4.12872
3.92855
3.65306
3.5605
3.35077
3.31005
3.14599
3.12171
2.96524
2.94554
2.785
2.74172
2.54469
1.57877
0.913919
0.599817
0.46453
0.403745
0.382202
0.375412
0.365589
0.358166
0.344965
0.33729
0.326252
0.322063
0.316204
0.315059
0.312787
0.313301
0.314168
0.318526
0.323807
0.334063
0.348053
0.358345
0.381451
0.395861
0.42738
0.438313
0.460208
0.465616
0.461859
0.451175
0.438702
0.423345
0.418864
0.415307
0.417509
0.421807
0.426909
0.43217
0.434973
0.439425
0.441629
0.446819
0.454466
0.463029
0.467513
0.468631
0.465015
0.453408
0.414139
0.33508
0.265158
0.223701
0.20566
0.192911
0.177184
0.17073
0.16259
0.152301
0.145159
0.137094
0.127017
0.123435
0.123632
0.12729
0.139282
0.155827
0.180434
0.194126
0.195425
0.194664
0.191119
0.181914
0.168891
0.142363
0.106534
0.0723172
0.0458871
0.0284757
0.0189893
0.013391
0.0100995
0.00873424
0.00820284
0.00832146
0.00877543
0.0092984
0.0103403
0.0123532
0.0135352
0.0162844
0.0193091
0.0209758
0.0255901
0.0280633
0.0282564
0.0286943
0.028434
0.0264943
0.0245696
0.024147
0.0213236
0.0161649
0.0149469
0.0160315
0.0307201
0.0517967
0.0660423
0.0910218
0.150636
0.348217
0.507693
0.546002
0.530436
0.430193
0.269599
0.171665
0.120119
0.0965261
0.0893846
0.0845893
0.0842084
0.0860519
0.092561
0.0977816
0.117358
0.139606
0.159688
0.20914
0.244958
0.246518
0.224923
0.163949
0.123868
0.11026
0.100696
0.0957224
0.0934995
0.0876912
0.0799433
0.0752648
0.0717684
0.0666897
0.0605473
0.0568044
0.056108
0.0558715
0.0560893
0.0603391
0.0742049
0.0836613
0.0865516
0.0865852
0.0861097
0.0822066
0.0770677
0.0715751
0.0698675
0.0702693
0.0701928
0.0681561
0.0623859
0.0545326
0.0477121
0.043995
0.044264
0.0467981
0.0663023
0.100268
0.115472
0.118457
0.115039
0.103665
0.0953583
0.0884926
0.080798
0.0715772
0.0641756
0.0602163
0.0604573
0.0645496
0.0801119
0.0862185
0.111612
0.134295
0.141186
0.149747
0.150579
0.149693
0.135503
0.122277
0.105075
0.07521
0.0559218
0.0460187
0.0443102
0.0472604
0.0548893
0.0978639
0.591051
2.44318
1.96407
1.59245
1.33126
1.16001
1.04188
0.962268
0.892521
0.846236
0.79412
0.761272
0.72119
0.694125
0.667974
0.643266
0.628412
0.60575
0.595335
0.579061
0.571019
0.560151
0.556336
0.548845
0.54804
0.546397
0.547931
0.549389
0.552058
0.551375
0.54881
0.541097
0.535253
0.522153
0.514404
0.501085
0.490984
0.482212
0.468813
0.462969
0.451745
0.445803
0.439715
0.436463
0.43632
0.437631
0.441585
0.452837
0.465734
0.483701
0.489103
0.485636
0.473619
0.438454
0.396879
0.348057
0.297877
0.271841
0.243558
0.219215
0.212317
0.208441
0.209219
0.213567
0.223607
0.232832
0.231838
0.229008
0.223875
0.213154
0.198357
0.183992
0.154176
0.116843
0.0787932
0.0484996
0.0292416
0.0185657
0.0123333
0.00884033
0.00720946
0.00667287
0.00677124
0.00724213
0.00779371
0.00912622
0.01128
0.0125122
0.0157206
0.0182149
0.0195673
0.0233994
0.025218
0.026648
0.0303931
0.0308032
0.0301746
0.0301561
0.0297894
0.0276562
0.0251807
0.0243969
0.0219501
0.0180319
0.0172757
0.0185645
0.0315484
0.0480609
0.0620183
0.0885241
0.157423
0.357657
0.517334
0.561209
0.544472
0.438586
0.26795
0.168846
0.117249
0.0955529
0.0888507
0.0833485
0.0817375
0.0831731
0.088722
0.0928557
0.104633
0.130761
0.146555
0.180094
0.224635
0.23873
0.229655
0.190011
0.142751
0.117628
0.106635
0.0968219
0.0933103
0.0879182
0.0802594
0.0751274
0.0713502
0.0663417
0.0606193
0.0574111
0.0568917
0.0569262
0.0580592
0.0661826
0.0804202
0.0886869
0.0896337
0.0887261
0.0874368
0.0825817
0.077125
0.0733865
0.0737661
0.074966
0.0743521
0.0710747
0.0629863
0.0552058
0.0501732
0.0485911
0.0504337
0.0586236
0.0933816
0.121657
0.126872
0.123556
0.11379
0.0962427
0.0846
0.0796864
0.0764582
0.0694664
0.0628051
0.0587098
0.0586938
0.0621791
0.0713383
0.0797238
0.10184
0.135546
0.138682
0.148483
0.15103
0.144382
0.121653
0.112867
0.0960106
0.0737685
0.0583823
0.0477778
0.0426304
0.0446565
0.0495794
0.0950297
0.298095
2.11463
1.86652
1.63905
1.46401
1.31964
1.20672
1.11692
1.0371
0.978719
0.920659
0.878205
0.83792
0.799928
0.772298
0.738401
0.717346
0.69072
0.671163
0.650533
0.634987
0.615566
0.606327
0.588866
0.580749
0.569919
0.560081
0.554099
0.546315
0.538043
0.530691
0.519337
0.505166
0.496043
0.47533
0.464557
0.443696
0.429471
0.411134
0.391443
0.376715
0.359366
0.344865
0.333091
0.322838
0.313961
0.312235
0.313503
0.317846
0.327267
0.341944
0.356876
0.383481
0.393277
0.392497
0.389375
0.379109
0.370065
0.358463
0.348897
0.333613
0.323362
0.313872
0.293031
0.281309
0.265569
0.241023
0.22354
0.194013
0.15354
0.11935
0.0785475
0.0492571
0.0304793
0.0191803
0.0123333
0.00834027
0.00632131
0.0054407
0.00548846
0.00573395
0.00631073
0.00778791
0.0111029
0.0134388
0.0192296
0.024073
0.0270382
0.0336954
0.0357644
0.0363383
0.0394977
0.0397003
0.0398175
0.0400762
0.0387054
0.0353357
0.0345346
0.0334774
0.0301827
0.0273122
0.0265134
0.0247727
0.0212034
0.0197316
0.0203844
0.0293935
0.0442692
0.058714
0.0871887
0.15551
0.350857
0.522446
0.578493
0.561974
0.451812
0.268856
0.168135
0.115828
0.0956548
0.088928
0.0828682
0.0811285
0.0813634
0.0867243
0.0900189
0.09612
0.119211
0.135558
0.163471
0.199448
0.225897
0.225236
0.208886
0.161041
0.12602
0.112248
0.0993352
0.0935701
0.0879674
0.0811086
0.0754773
0.0715468
0.0668315
0.0616446
0.0589462
0.0587184
0.0590337
0.062899
0.0767012
0.0881021
0.0922138
0.091865
0.0897988
0.0884022
0.0838001
0.0793102
0.0765552
0.0771364
0.0781802
0.077663
0.0731248
0.063173
0.0562196
0.0535922
0.0542805
0.0603362
0.0851905
0.120287
0.133694
0.13201
0.121945
0.101581
0.0866204
0.0779996
0.0756639
0.074854
0.06984
0.0628903
0.0593027
0.0590706
0.0623819
0.067914
0.0779463
0.092843
0.129195
0.14141
0.148733
0.15053
0.140978
0.116257
0.0974661
0.0849549
0.0701511
0.0604988
0.0494584
0.0428025
0.0471966
0.0483063
0.0776249
0.162513
1.44787
1.32958
1.21295
1.11634
1.03631
0.966559
0.907135
0.855402
0.807272
0.76846
0.730138
0.700319
0.67202
0.644757
0.622986
0.596453
0.575957
0.553182
0.531164
0.513105
0.493929
0.477138
0.46606
0.449905
0.442975
0.431733
0.422121
0.415891
0.404166
0.393871
0.386372
0.367286
0.357586
0.338544
0.325353
0.306246
0.287218
0.272256
0.251488
0.235156
0.218893
0.202251
0.190035
0.178526
0.169901
0.163577
0.16338
0.165005
0.168961
0.17796
0.191197
0.199016
0.218487
0.231005
0.244159
0.257533
0.257456
0.256337
0.252666
0.240449
0.230414
0.215371
0.190528
0.170705
0.14382
0.112727
0.0837057
0.059275
0.0407703
0.0275993
0.0181071
0.0121172
0.00813878
0.00582873
0.00469322
0.00438819
0.00445721
0.00478761
0.00582006
0.00814331
0.0113518
0.0194594
0.0275344
0.0348309
0.0493554
0.0562686
0.0629113
0.068515
0.0681748
0.0662012
0.0649816
0.0615994
0.0572158
0.0553115
0.0500597
0.0431653
0.0416139
0.0402929
0.0348971
0.0296724
0.0285351
0.0266904
0.0249762
0.0240286
0.0240555
0.0288612
0.0429201
0.0588572
0.0899728
0.16109
0.352759
0.522209
0.58658
0.570256
0.467928
0.277571
0.170205
0.115571
0.0997338
0.088279
0.0840373
0.0811153
0.0811027
0.0852689
0.0887577
0.0923551
0.10947
0.126787
0.145787
0.178922
0.205646
0.215352
0.208148
0.183432
0.139661
0.118579
0.104077
0.095295
0.0887367
0.0821724
0.0767598
0.072481
0.0682808
0.0639542
0.0620056
0.0620567
0.0634558
0.0742766
0.0876719
0.094731
0.0959614
0.093498
0.0914426
0.0895124
0.0843076
0.0812022
0.0816224
0.085796
0.0870002
0.0848036
0.0744303
0.0626998
0.0582508
0.0580144
0.0616517
0.0790811
0.118129
0.13733
0.140024
0.134191
0.110485
0.0905097
0.0791334
0.0737747
0.0741138
0.0744768
0.069738
0.0601169
0.0575585
0.0571516
0.0596955
0.0630246
0.0720891
0.0934253
0.119941
0.141275
0.146354
0.151297
0.137293
0.110309
0.0915482
0.0776634
0.0689807
0.0602441
0.0530649
0.0452761
0.0552101
0.0491479
0.0548667
0.0985764
0.702612
0.665478
0.625275
0.585784
0.54735
0.523723
0.491158
0.475718
0.453084
0.435308
0.422145
0.401975
0.393311
0.376243
0.366374
0.352472
0.340114
0.330727
0.313394
0.300683
0.284952
0.267069
0.255281
0.24376
0.232681
0.228871
0.221057
0.217835
0.211245
0.204832
0.200569
0.186926
0.178868
0.167007
0.153584
0.14278
0.126934
0.117624
0.105032
0.0951597
0.0854895
0.0772476
0.0706141
0.0644736
0.0609208
0.0568632
0.055028
0.0552151
0.0558626
0.0578206
0.0630181
0.065999
0.0749635
0.0799861
0.0855529
0.0927854
0.0927056
0.0921865
0.090211
0.0833082
0.0774297
0.0682642
0.05676
0.0467082
0.0370098
0.0278726
0.0206628
0.0147486
0.0104292
0.00732767
0.00521986
0.00411004
0.003472
0.00349071
0.0036325
0.0041289
0.00529994
0.00768069
0.0141072
0.0210441
0.0329776
0.0547923
0.0693714
0.0892634
0.111274
0.122807
0.128834
0.128123
0.123638
0.11407
0.107293
0.0918474
0.0804065
0.071006
0.0618414
0.056999
0.0512133
0.0442487
0.0389026
0.0348396
0.0309348
0.0272668
0.0260127
0.0260218
0.0269147
0.031111
0.0437145
0.0684483
0.102896
0.17897
0.33241
0.504193
0.587955
0.582294
0.499312
0.298908
0.173085
0.119519
0.101477
0.0878399
0.0855564
0.0813294
0.0814344
0.0841376
0.0893142
0.0906497
0.100221
0.123063
0.135689
0.159105
0.188132
0.201879
0.202689
0.192723
0.163711
0.132516
0.112104
0.0998214
0.0915884
0.0843869
0.0799992
0.0751279
0.0702345
0.0673159
0.066805
0.0677453
0.0749308
0.088705
0.0966258
0.0995002
0.0985665
0.0942045
0.0930766
0.0903001
0.087008
0.0855448
0.0866518
0.0908402
0.091021
0.0872472
0.0726109
0.0631755
0.0617397
0.0630473
0.0743006
0.112013
0.134982
0.14442
0.143215
0.129725
0.103431
0.0855827
0.0747711
0.0716334
0.0722249
0.0714172
0.0622713
0.0540224
0.0529262
0.0525428
0.0537518
0.0571541
0.0696949
0.0986699
0.115327
0.138862
0.146839
0.14787
0.136857
0.107404
0.0913391
0.0727552
0.0671626
0.0639042
0.0622662
0.05384
0.056337
0.0502546
0.0502762
0.0670367
0.208464
0.204857
0.198621
0.189269
0.17727
0.171696
0.161255
0.156798
0.151601
0.148062
0.146626
0.141813
0.139503
0.135282
0.132845
0.12945
0.124213
0.121691
0.118137
0.113319
0.108265
0.0992932
0.0919834
0.0850649
0.0778838
0.0752808
0.0707484
0.0693958
0.0673751
0.0652835
0.0643267
0.0608918
0.0579733
0.0537051
0.0489864
0.0451126
0.0397946
0.0362624
0.032639
0.0292499
0.0261178
0.0235884
0.0210846
0.019223
0.0179169
0.016622
0.0156843
0.0154476
0.0154622
0.0158447
0.0165461
0.0172535
0.0196803
0.0206771
0.0226145
0.0244908
0.024478
0.0241992
0.0234557
0.0215891
0.0191151
0.0166727
0.0138469
0.0110543
0.00878374
0.00670225
0.00505064
0.00380675
0.00300619
0.0024698
0.00246595
0.00257452
0.0028506
0.00350734
0.00490718
0.00830884
0.0136726
0.0223045
0.0416531
0.0588669
0.0946687
0.131964
0.165422
0.201079
0.231311
0.241397
0.239655
0.232743
0.212885
0.190704
0.168153
0.133441
0.113568
0.0998414
0.0811317
0.0677926
0.0591753
0.0498913
0.0455199
0.041774
0.0345589
0.0286961
0.026526
0.0261702
0.0272514
0.0329328
0.0474892
0.0838315
0.14111
0.199838
0.303708
0.460406
0.578834
0.593865
0.539011
0.322174
0.178141
0.123688
0.103301
0.0892609
0.0856943
0.0804253
0.0807858
0.0827599
0.0893142
0.0903856
0.0954594
0.116824
0.131486
0.143775
0.167524
0.18976
0.192317
0.189891
0.178265
0.151997
0.1288
0.110451
0.0982096
0.0896342
0.0848846
0.0789459
0.0750843
0.0748093
0.0759551
0.0822666
0.0913294
0.0997356
0.1032
0.102986
0.0994506
0.095666
0.0949386
0.0926164
0.0902188
0.089963
0.09387
0.0977343
0.0978305
0.0888692
0.070943
0.0653532
0.0660932
0.0727811
0.105155
0.129872
0.144166
0.148353
0.145062
0.126507
0.0997238
0.0828825
0.0726828
0.0690843
0.0669592
0.0607442
0.053008
0.0486018
0.0469544
0.0469845
0.0485898
0.0552904
0.0719027
0.0992648
0.115427
0.139749
0.147591
0.143785
0.135617
0.105132
0.0919094
0.0750781
0.0703874
0.0672965
0.0663668
0.0569663
0.0551124
0.0533713
0.0526435
0.0594016
0.0386254
0.0383865
0.037532
0.036371
0.0343237
0.0330946
0.0310764
0.0298883
0.0291484
0.0286658
0.028673
0.0285895
0.028611
0.028594
0.0284691
0.0283968
0.02817
0.0280622
0.0277943
0.0275522
0.0273393
0.026004
0.0230475
0.0203277
0.0176316
0.0160878
0.0147563
0.0141981
0.0139474
0.0136875
0.0136466
0.0134116
0.0131015
0.0124925
0.0112764
0.0106794
0.0094387
0.00874267
0.0079463
0.00704874
0.0062753
0.00549102
0.00481822
0.00434499
0.00397692
0.00366001
0.00344776
0.00338582
0.00339897
0.00347213
0.00365265
0.00380373
0.00418384
0.00455613
0.00498859
0.00527811
0.00528671
0.00519665
0.00500534
0.00460673
0.0040353
0.00343121
0.00290773
0.0023143
0.00187621
0.00158718
0.00137783
0.00139581
0.00152457
0.00173291
0.00221459
0.0030733
0.00475351
0.00848426
0.0138197
0.0255894
0.040296
0.066982
0.108048
0.159832
0.225248
0.292877
0.350452
0.396212
0.418611
0.415327
0.403367
0.382926
0.334901
0.294548
0.249113
0.195212
0.159127
0.128635
0.0980812
0.0847223
0.0763553
0.0618352
0.0505493
0.0452005
0.0394835
0.0327165
0.0286621
0.0271051
0.0275844
0.032676
0.0480193
0.0972671
0.168151
0.2311
0.283134
0.382731
0.552581
0.623502
0.584422
0.350948
0.18525
0.129424
0.106644
0.0930803
0.0846623
0.0793498
0.0791845
0.0804107
0.0875449
0.0897655
0.0928156
0.108977
0.131595
0.139385
0.150384
0.170277
0.183492
0.183626
0.178953
0.164854
0.147361
0.128015
0.113513
0.10435
0.0959354
0.08954
0.089036
0.0900166
0.0924841
0.098718
0.103962
0.1065
0.106302
0.10495
0.099994
0.0982129
0.097944
0.0966996
0.0960564
0.0977062
0.105845
0.106742
0.102724
0.0836556
0.0696893
0.0691006
0.0741835
0.0955263
0.123676
0.137776
0.153688
0.153765
0.148705
0.124347
0.0964941
0.0808644
0.0697694
0.0643407
0.0600664
0.0537919
0.047548
0.0452858
0.0439095
0.0443636
0.0471787
0.0605682
0.0776579
0.0969034
0.116725
0.130838
0.156349
0.14609
0.134011
0.107407
0.099283
0.0852377
0.0808897
0.066725
0.0648163
0.0585936
0.0552037
0.0562313
0.0543467
0.0559117
0.00433586
0.00440561
0.00435183
0.00421861
0.00395714
0.00368994
0.00336057
0.00304895
0.00287704
0.0027604
0.00273951
0.00274945
0.00277678
0.00291022
0.00301982
0.0033015
0.00349271
0.00369486
0.00383766
0.00391732
0.00395893
0.00389143
0.00341081
0.00278338
0.002253
0.00186888
0.00165499
0.00154815
0.00153744
0.0015505
0.00160968
0.00163623
0.00163332
0.00162578
0.00158236
0.00152232
0.00148428
0.00139173
0.0012892
0.00111204
0.000963837
0.000813874
0.000713589
0.000636816
0.000581534
0.000547516
0.000536849
0.000537458
0.000544632
0.000559369
0.000604654
0.000629789
0.000663077
0.000705999
0.000736669
0.000767276
0.000776178
0.000772515
0.000752972
0.000727026
0.000696747
0.000628853
0.00061765
0.000629647
0.000656173
0.000744217
0.000901566
0.00121639
0.00185065
0.0028738
0.00546779
0.0087062
0.0154278
0.0252734
0.0416956
0.0715489
0.110557
0.175693
0.264612
0.365565
0.461277
0.521858
0.541461
0.539767
0.528162
0.503714
0.481206
0.45222
0.413509
0.37737
0.326155
0.259764
0.211801
0.168442
0.129469
0.108299
0.0891432
0.068505
0.0555726
0.0513208
0.0458036
0.0378776
0.0317018
0.0282353
0.0281848
0.0324084
0.0488129
0.110925
0.190914
0.243955
0.274773
0.313681
0.502584
0.648273
0.622116
0.38464
0.197836
0.134543
0.110915
0.0962641
0.0839607
0.0800187
0.0783456
0.0787498
0.0838102
0.0893456
0.0927019
0.101432
0.129574
0.140024
0.145256
0.154693
0.165267
0.176226
0.175664
0.170117
0.158297
0.145893
0.131298
0.123011
0.114551
0.108044
0.106195
0.106561
0.107927
0.109941
0.111137
0.110925
0.108622
0.105351
0.102569
0.10291
0.102002
0.102091
0.102849
0.110699
0.116064
0.113812
0.101501
0.0784579
0.0715665
0.0739
0.0928455
0.119428
0.130022
0.144161
0.164762
0.16378
0.153372
0.118587
0.091267
0.0781378
0.0660548
0.0601124
0.0568124
0.0506373
0.0466299
0.0450473
0.043817
0.0446613
0.0505077
0.0737849
0.0904542
0.0989305
0.11764
0.129888
0.156601
0.153989
0.144152
0.121581
0.115127
0.090811
0.0842062
0.0670898
0.0628768
0.0598021
0.0545273
0.0552948
0.0531449
0.0529297
0.00037294
0.000399014
0.000402766
0.000396658
0.000367862
0.000330685
0.000296037
0.000264026
0.000243795
0.000230972
0.000226255
0.000226692
0.000225671
0.000238526
0.000262929
0.00031053
0.000348036
0.000379487
0.000405303
0.000416594
0.000421579
0.000406596
0.00034745
0.000288233
0.000239057
0.000203034
0.000180698
0.000168647
0.000165076
0.000169554
0.000176485
0.000192149
0.000198042
0.000206604
0.000212444
0.00021444
0.000215947
0.000213667
0.000200471
0.00019267
0.000191272
0.000188283
0.000188296
0.000188365
0.000187174
0.000188594
0.000188395
0.000188568
0.000187048
0.000184134
0.000182613
0.000181986
0.000185191
0.000190132
0.0002037
0.000219231
0.000237681
0.000258736
0.000292812
0.000314663
0.000364659
0.000407105
0.000489047
0.000606274
0.000794544
0.00129089
0.00203605
0.00364108
0.00593149
0.00980298
0.0179299
0.0266821
0.0451991
0.0688785
0.117316
0.176008
0.278961
0.408026
0.52976
0.585474
0.609376
0.604567
0.589578
0.570432
0.539478
0.512448
0.491627
0.456666
0.42469
0.402536
0.366581
0.312839
0.259315
0.205477
0.157224
0.126898
0.10313
0.0818026
0.067864
0.0589971
0.0495823
0.0403262
0.0334199
0.0296438
0.0294693
0.0332013
0.0504422
0.125018
0.203634
0.246454
0.258869
0.267912
0.418309
0.667763
0.673925
0.441861
0.218361
0.140701
0.115189
0.101622
0.0886831
0.0840444
0.0791124
0.0790723
0.0835888
0.0881109
0.0937466
0.100311
0.126795
0.141632
0.145695
0.152352
0.154518
0.160129
0.166656
0.16688
0.16106
0.154805
0.144918
0.136103
0.128363
0.122375
0.119566
0.117787
0.117433
0.116432
0.115526
0.113101
0.109625
0.108469
0.107809
0.108217
0.109155
0.110895
0.114566
0.12595
0.125555
0.118226
0.091952
0.0756066
0.0732257
0.0824995
0.116973
0.128742
0.134705
0.159605
0.181429
0.175517
0.152724
0.101703
0.0868436
0.0742838
0.0634335
0.0585946
0.0550085
0.0517183
0.0484786
0.046176
0.0461731
0.0503844
0.0691838
0.0833131
0.0969128
0.102755
0.153586
0.140737
0.155921
0.172143
0.163728
0.131182
0.12091
0.0936703
0.0841741
0.0694878
0.0595812
0.0572066
0.0503603
0.0503271
0.0496504
0.0512836
9.52543e-05
9.96973e-05
0.000107762
0.000108255
0.000106801
0.000102411
9.91881e-05
9.77534e-05
9.78118e-05
9.74928e-05
9.68938e-05
9.65542e-05
9.69746e-05
9.94813e-05
0.000106551
0.000109223
0.000115458
0.000117539
0.000120481
0.00012108
0.000120907
0.000117342
0.000113246
0.000109701
0.000108933
0.000108313
0.000108409
0.000108557
0.00010914
0.000113158
0.000120313
0.000124064
0.000128014
0.000128647
0.000128903
0.000129294
0.000129322
0.000130712
0.000134225
0.000148495
0.000185303
0.00022565
0.000268703
0.000291603
0.000301086
0.0003008
0.000296477
0.000283336
0.000251124
0.0002346
0.000219839
0.000216644
0.000223842
0.000263736
0.000327524
0.000400696
0.000476918
0.000556055
0.000677504
0.0007756
0.00100051
0.00121365
0.00159926
0.00222568
0.00302109
0.00531424
0.00791255
0.0128414
0.0201115
0.0312131
0.0495662
0.0740443
0.116527
0.18363
0.277855
0.423243
0.556374
0.621609
0.642047
0.643624
0.628511
0.588546
0.540632
0.487456
0.454746
0.442217
0.430586
0.412844
0.403488
0.388545
0.361453
0.325671
0.282029
0.22361
0.175086
0.142638
0.118311
0.0943814
0.0744405
0.0592315
0.0491431
0.0448456
0.0398731
0.0346723
0.0336342
0.0360401
0.0522384
0.131495
0.210672
0.239015
0.232388
0.222905
0.33569
0.692015
0.741107
0.510759
0.24285
0.149365
0.122244
0.10816
0.0979726
0.0890354
0.0835769
0.0830883
0.0862953
0.0890627
0.0987128
0.102578
0.119928
0.147745
0.14915
0.153612
0.154941
0.155881
0.157681
0.158947
0.157634
0.154286
0.149783
0.140341
0.135951
0.130697
0.127302
0.124025
0.122038
0.119223
0.117456
0.114299
0.114316
0.114659
0.115652
0.11776
0.119747
0.122383
0.133845
0.136817
0.130745
0.107796
0.0813197
0.0747005
0.0760141
0.104255
0.128141
0.132885
0.142708
0.18768
0.200675
0.179654
0.128151
0.0936638
0.0849534
0.0662723
0.0626343
0.0593543
0.0560742
0.055298
0.0523383
0.0517457
0.0567241
0.0682987
0.0863811
0.0886252
0.0962816
0.108971
0.177395
0.202229
0.19719
0.180966
0.169122
0.1312
0.119879
0.0960294
0.0822141
0.0699967
0.0567179
0.0539502
0.0489366
0.0479428
0.0481122
0.0501627
8.87445e-05
9.07015e-05
9.47771e-05
9.93801e-05
9.9221e-05
9.86769e-05
9.68696e-05
9.62779e-05
9.63341e-05
9.67426e-05
9.77357e-05
9.80442e-05
9.86286e-05
9.8873e-05
9.9269e-05
0.000100539
0.000101876
0.000108695
0.000113134
0.00012056
0.000128465
0.00013296
0.000142282
0.000149059
0.000162594
0.000183334
0.000194985
0.000225165
0.000241786
0.000277367
0.000303157
0.000320776
0.000336241
0.00033887
0.000344594
0.000350831
0.000362771
0.000392236
0.000443886
0.000613587
0.000788493
0.000984856
0.0011668
0.00124442
0.00128568
0.0012834
0.00126632
0.00120037
0.0010889
0.000993503
0.000950589
0.000943554
0.00103768
0.0013497
0.00156336
0.00193617
0.00215388
0.00253326
0.00294393
0.00332848
0.00421752
0.00500806
0.00646244
0.00883116
0.0115998
0.0192549
0.0262615
0.0393157
0.0613203
0.0839843
0.130537
0.189194
0.287023
0.428518
0.560851
0.631023
0.666848
0.665251
0.641889
0.577859
0.457141
0.361449
0.312431
0.296952
0.298848
0.304411
0.313958
0.326057
0.333755
0.338831
0.337709
0.318032
0.280584
0.240657
0.193249
0.150537
0.120697
0.0980474
0.0769257
0.0593027
0.0502398
0.0471997
0.0430706
0.0381306
0.0365643
0.0382082
0.0543554
0.134541
0.207718
0.224425
0.209661
0.197189
0.271518
0.700675
0.814791
0.594704
0.278148
0.16252
0.129673
0.116197
0.10239
0.0934674
0.0948666
0.0919412
0.0912885
0.0923519
0.103275
0.108011
0.120286
0.148831
0.157133
0.159795
0.158582
0.158453
0.158619
0.158842
0.156971
0.154224
0.151693
0.144491
0.140118
0.134771
0.132744
0.129364
0.128001
0.126452
0.125449
0.125346
0.126209
0.127129
0.129034
0.132441
0.13594
0.145325
0.147015
0.141943
0.123548
0.0927313
0.0774751
0.0748443
0.0816495
0.121485
0.133315
0.139673
0.162599
0.22165
0.209831
0.15989
0.118896
0.092619
0.077364
0.0623955
0.0680839
0.061306
0.0613737
0.0603786
0.062038
0.0670717
0.0735623
0.0824104
0.0916382
0.0981065
0.122508
0.116847
0.182816
0.244586
0.229283
0.180271
0.164303
0.128657
0.110847
0.0947911
0.0767105
0.0701339
0.0566223
0.0540352
0.0505529
0.0478456
0.0472679
0.0468773
0.0001812
0.000178535
0.000178559
0.000177691
0.000174534
0.000172621
0.000172734
0.000178336
0.000186817
0.000201532
0.000228968
0.000241669
0.000284082
0.000306171
0.000338963
0.000368931
0.000375797
0.000400415
0.000418696
0.000450081
0.000515936
0.000561319
0.0007078
0.000783772
0.000908666
0.00102392
0.00111461
0.00134355
0.00146774
0.00172252
0.00190533
0.00202211
0.00215464
0.00219566
0.00226457
0.00234914
0.00242704
0.00273298
0.00304942
0.00370166
0.00430602
0.00482036
0.00537976
0.00564138
0.00577236
0.00578989
0.00574541
0.00559979
0.00527156
0.00506828
0.005021
0.00506839
0.00570927
0.00646727
0.00718946
0.0082191
0.00888603
0.0100056
0.0111941
0.0128315
0.0154487
0.0180158
0.0227802
0.0311658
0.0395161
0.0591782
0.0767233
0.113388
0.150911
0.219765
0.305783
0.444518
0.565688
0.625245
0.669367
0.674573
0.643337
0.538975
0.385997
0.257919
0.208
0.194931
0.198273
0.205908
0.222713
0.239013
0.252152
0.268195
0.28217
0.290013
0.29197
0.286514
0.265906
0.238631
0.20125
0.157754
0.12395
0.104242
0.0812581
0.0624742
0.0550252
0.0513363
0.0442239
0.039368
0.0393538
0.0427133
0.0584809
0.13318
0.196243
0.209562
0.195135
0.187353
0.241272
0.698981
0.894789
0.697811
0.330221
0.18279
0.140806
0.125007
0.112387
0.105925
0.112339
0.0961699
0.0970013
0.101657
0.110028
0.120031
0.126575
0.151113
0.164928
0.169125
0.16613
0.166723
0.165287
0.162531
0.160814
0.156713
0.15536
0.149932
0.147537
0.142479
0.139993
0.136959
0.136211
0.135016
0.135584
0.136623
0.138943
0.140942
0.146829
0.152737
0.159272
0.158608
0.153145
0.133102
0.102987
0.0846951
0.0788784
0.0802503
0.0984591
0.132417
0.139721
0.153629
0.22136
0.240461
0.197437
0.154535
0.115527
0.0900593
0.0752252
0.0662137
0.0696647
0.0603513
0.0686685
0.0702985
0.0742958
0.079299
0.0836011
0.0868086
0.0914702
0.110419
0.180157
0.198017
0.237096
0.239973
0.206355
0.171826
0.139449
0.120224
0.0963033
0.0887175
0.0747634
0.0707809
0.0593665
0.0561951
0.050756
0.0460896
0.0449849
0.0440781
0.00217069
0.00212139
0.00204645
0.00196783
0.00193328
0.00193934
0.00197988
0.00221985
0.00238425
0.00269387
0.00298878
0.00314601
0.00346015
0.00357
0.00372034
0.00387945
0.00393202
0.00414144
0.00434639
0.00463959
0.00515398
0.00545942
0.00633671
0.0067538
0.00748833
0.00806178
0.00855812
0.00960857
0.0100492
0.0109841
0.0116184
0.0120938
0.0126864
0.0129056
0.0133105
0.0136532
0.0140897
0.0153036
0.0163374
0.0178798
0.0192804
0.0203478
0.0213772
0.0218111
0.0219352
0.0219283
0.0217709
0.0213208
0.0208538
0.0206551
0.0206943
0.0213446
0.0230759
0.0242876
0.0263306
0.0277228
0.0303255
0.0326536
0.0357304
0.0419242
0.0473586
0.0558616
0.0739313
0.0888943
0.11805
0.156696
0.198501
0.274292
0.35944
0.478091
0.572377
0.622408
0.664561
0.665162
0.634587
0.527888
0.327103
0.208922
0.153294
0.129835
0.127304
0.132729
0.147791
0.16041
0.176609
0.202106
0.225219
0.2363
0.243063
0.248408
0.249196
0.24928
0.24718
0.232456
0.19556
0.156277
0.138036
0.118644
0.0894961
0.0673945
0.0584878
0.0536491
0.0461181
0.04117
0.0409354
0.0444819
0.0599722
0.126782
0.182252
0.19424
0.187098
0.18511
0.236415
0.679611
0.979545
0.821247
0.411147
0.216595
0.156062
0.135924
0.125191
0.119366
0.118205
0.106086
0.123141
0.130371
0.127852
0.135084
0.147284
0.158148
0.165463
0.186951
0.184329
0.185532
0.184331
0.175778
0.173284
0.166609
0.165119
0.161992
0.158056
0.156524
0.15472
0.154635
0.154841
0.1525
0.152023
0.152579
0.154545
0.157683
0.169111
0.172839
0.170699
0.163464
0.138482
0.109532
0.0928853
0.087763
0.0893004
0.0964056
0.122448
0.140498
0.147203
0.193681
0.261082
0.247606
0.190357
0.159647
0.110114
0.0878006
0.0837171
0.0743166
0.0670959
0.0670319
0.0776749
0.0743199
0.0771998
0.0834021
0.0854713
0.0987742
0.109265
0.120266
0.235639
0.287161
0.254846
0.226457
0.160508
0.148689
0.115722
0.108482
0.092087
0.0880486
0.0792824
0.0743573
0.0617839
0.0565482
0.0478022
0.0429508
0.0428955
0.0432014
0.026962
0.0265692
0.0258717
0.024802