/*--------------------------------*- C++ -*----------------------------------*\
| =========                 |                                                 |
| \\      /  F ield         | OpenFOAM: The Open Source CFD Toolbox           |
|  \\    /   O peration     | Version:  2.4.0                                 |
|   \\  /    A nd           | Web:      www.OpenFOAM.org                      |
|    \\/     M anipulation  |                                                 |
\*---------------------------------------------------------------------------*/
FoamFile
{
    version     2.0;
    format      ascii;
    class       surfaceScalarField;
    location    "0.26";
    object      phi;
}
// * * * * * * * * * * * * * * * * * * * * * * * * * * * * * * * * * * * * * //

dimensions      [0 3 -1 0 0 0 0];

internalField   nonuniform List<scalar> 
17320
(
1.76348e-05
7.36521e-06
1.16155e-05
6.01926e-06
8.685e-06
2.93052e-06
7.35312e-06
1.33188e-06
6.71866e-06
6.34469e-07
6.34322e-06
3.75431e-07
6.07721e-06
2.66011e-07
5.8617e-06
2.15508e-07
5.71456e-06
1.4714e-07
5.57227e-06
1.42297e-07
5.47211e-06
1.00158e-07
5.37064e-06
1.01467e-07
5.29775e-06
7.28936e-08
5.18698e-06
1.10769e-07
5.09474e-06
9.22384e-08
4.97797e-06
1.16767e-07
4.86172e-06
1.16258e-07
4.67644e-06
1.85272e-07
4.42896e-06
2.4748e-07
1.16472e-07
4.31249e-06
2.54534e-05
6.91183e-06
2.3247e-05
8.22568e-06
2.09908e-05
5.18668e-06
1.93142e-05
3.00848e-06
1.80769e-05
1.87178e-06
1.71128e-05
1.33955e-06
1.63634e-05
1.01541e-06
1.5767e-05
8.11852e-07
1.53149e-05
5.99225e-07
1.49202e-05
5.36991e-07
1.46247e-05
3.95665e-07
1.43483e-05
3.77912e-07
1.41344e-05
2.86751e-07
1.38776e-05
3.67648e-07
1.36772e-05
2.92579e-07
1.34159e-05
3.78074e-07
1.31756e-05
3.56568e-07
1.28006e-05
5.60239e-07
1.24801e-05
5.68015e-07
6.22847e-07
1.19737e-05
2.66084e-05
5.30345e-06
2.71585e-05
7.67555e-06
2.67821e-05
5.56314e-06
2.62448e-05
3.54577e-06
2.5604e-05
2.51255e-06
2.48743e-05
2.06925e-06
2.41557e-05
1.73399e-06
2.34976e-05
1.46997e-06
2.29422e-05
1.15463e-06
2.24307e-05
1.04849e-06
2.20292e-05
7.97166e-07
2.16473e-05
7.59762e-07
2.13484e-05
5.85688e-07
2.10057e-05
7.10386e-07
2.07472e-05
5.51052e-07
2.04122e-05
7.13085e-07
2.01177e-05
6.51044e-07
1.96374e-05
1.04053e-06
1.9314e-05
8.91458e-07
1.31907e-06
1.86177e-05
2.63081e-05
3.9953e-06
2.75427e-05
6.44095e-06
2.80868e-05
5.01912e-06
2.84519e-05
3.18067e-06
2.86429e-05
2.32151e-06
2.86252e-05
2.08699e-06
2.84715e-05
1.88771e-06
2.82236e-05
1.71781e-06
2.79809e-05
1.39737e-06
2.76785e-05
1.35088e-06
2.7433e-05
1.04266e-06
2.71412e-05
1.05159e-06
2.69164e-05
8.10451e-07
2.6613e-05
1.01379e-06
2.63952e-05
7.68839e-07
2.60876e-05
1.02072e-06
2.58217e-05
9.16889e-07
2.53393e-05
1.52296e-06
2.48921e-05
1.33864e-06
2.37278e-06
2.38384e-05
2.60304e-05
2.96488e-06
2.72365e-05
5.23488e-06
2.80448e-05
4.21082e-06
2.85148e-05
2.71069e-06
2.89755e-05
1.86073e-06
2.93211e-05
1.74145e-06
2.95788e-05
1.62996e-06
2.97246e-05
1.57205e-06
2.98573e-05
1.26467e-06
2.99015e-05
1.30668e-06
2.99694e-05
9.74794e-07
2.9948e-05
1.07291e-06
2.99582e-05
8.00288e-07
2.98864e-05
1.08557e-06
2.98479e-05
8.07387e-07
2.9759e-05
1.10955e-06
2.95952e-05
1.08075e-06
2.94938e-05
1.62429e-06
2.95577e-05
1.27476e-06
2.25412e-06
2.96764e-05
2.58373e-05
2.12761e-06
2.69479e-05
4.12429e-06
2.78016e-05
3.35712e-06
2.82527e-05
2.25959e-06
2.87259e-05
1.38748e-06
2.91046e-05
1.36279e-06
2.94395e-05
1.29498e-06
2.9713e-05
1.29863e-06
2.99711e-05
1.00653e-06
3.0163e-05
1.11474e-06
3.03973e-05
7.40548e-07
3.05619e-05
9.08278e-07
3.07163e-05
6.45879e-07
3.08372e-05
9.64651e-07
3.09493e-05
6.95335e-07
3.10889e-05
9.69948e-07
3.10738e-05
1.09584e-06
3.13277e-05
1.37043e-06
3.16195e-05
9.82975e-07
1.95031e-06
3.19233e-05
2.56858e-05
1.44179e-06
2.67429e-05
3.06724e-06
2.75967e-05
2.5033e-06
2.80842e-05
1.77212e-06
2.84884e-05
9.8319e-07
2.88343e-05
1.01697e-06
2.91775e-05
9.51721e-07
2.9504e-05
9.72188e-07
2.97479e-05
7.6258e-07
2.99849e-05
8.77746e-07
3.02285e-05
4.97008e-07
3.04335e-05
7.03203e-07
3.05941e-05
4.85356e-07
3.0784e-05
7.74734e-07
3.0968e-05
5.11356e-07
3.11674e-05
7.70467e-07
3.12585e-05
1.00473e-06
3.15645e-05
1.0645e-06
3.19762e-05
5.71255e-07
1.42552e-06
3.2501e-05
2.55615e-05
8.80271e-07
2.65834e-05
2.04538e-06
2.74318e-05
1.6549e-06
2.79967e-05
1.20715e-06
2.83338e-05
6.46107e-07
2.86883e-05
6.62527e-07
2.89771e-05
6.62892e-07
2.92896e-05
6.59653e-07
2.95987e-05
4.53527e-07
2.99022e-05
5.74247e-07
3.00305e-05
3.68676e-07
3.0206e-05
5.27762e-07
3.03844e-05
3.06884e-07
3.06712e-05
4.8796e-07
3.08452e-05
3.37346e-07
3.10145e-05
6.01217e-07
3.11797e-05
8.39493e-07
3.14654e-05
7.78805e-07
3.17916e-05
2.45103e-07
8.66396e-07
3.23507e-05
2.54611e-05
4.19155e-07
2.6479e-05
1.02748e-06
2.73039e-05
8.29974e-07
2.7896e-05
6.15107e-07
2.82927e-05
2.49436e-07
2.86013e-05
3.53858e-07
2.88328e-05
4.31464e-07
2.91787e-05
3.1376e-07
2.95173e-05
1.14897e-07
2.97804e-05
3.11114e-07
2.99208e-05
2.28259e-07
3.01338e-05
3.14833e-07
3.03037e-05
1.36959e-07
3.05538e-05
2.37847e-07
3.07101e-05
1.81008e-07
3.08847e-05
4.26639e-07
3.11592e-05
5.64971e-07
3.14443e-05
4.93756e-07
3.15127e-05
1.76643e-07
3.65029e-07
3.20141e-05
2.54182e-05
9.26948e-10
2.64489e-05
-3.21269e-09
2.72704e-05
8.4778e-09
2.78864e-05
-8.7825e-10
2.82171e-05
-8.12233e-08
2.85038e-05
6.70906e-08
2.88463e-05
8.89915e-08
2.9167e-05
-6.91231e-09
2.93794e-05
-9.75158e-08
2.96884e-05
2.049e-09
2.99517e-05
-3.49605e-08
3.01352e-05
1.31303e-07
3.02257e-05
4.6438e-08
3.04459e-05
1.771e-08
3.0642e-05
-1.51145e-08
3.08392e-05
2.29384e-07
3.11508e-05
2.53389e-07
3.14545e-05
1.90095e-07
3.14376e-05
1.93482e-07
1.45333e-07
3.16573e-05
2.54332e-05
-4.32251e-07
2.64689e-05
-1.0389e-06
2.72808e-05
-8.03497e-07
2.78479e-05
-5.67913e-07
2.8151e-05
-3.84352e-07
2.8542e-05
-3.23878e-07
2.89174e-05
-2.86425e-07
2.91315e-05
-2.21043e-07
2.93427e-05
-3.0873e-07
2.97141e-05
-3.69336e-07
2.99363e-05
-2.57092e-07
3.01133e-05
-4.57365e-08
3.02479e-05
-8.8183e-08
3.0469e-05
-2.03376e-07
3.06271e-05
-1.73217e-07
3.08436e-05
1.2902e-08
3.11536e-05
-5.6638e-08
3.14385e-05
-9.47988e-08
3.15437e-05
8.83226e-08
1.32765e-07
3.15562e-05
2.54634e-05
-8.9566e-07
2.64837e-05
-2.05924e-06
2.73226e-05
-1.64236e-06
2.79248e-05
-1.17006e-06
2.82378e-05
-6.97424e-07
2.85775e-05
-6.63565e-07
2.88902e-05
-5.99069e-07
2.92045e-05
-5.3541e-07
2.94809e-05
-5.85136e-07
2.97446e-05
-6.3303e-07
2.99199e-05
-4.32376e-07
3.01826e-05
-3.08412e-07
3.03456e-05
-2.512e-07
3.05095e-05
-3.67242e-07
3.06572e-05
-3.20978e-07
3.09556e-05
-2.85476e-07
3.11941e-05
-2.95181e-07
3.14007e-05
-3.01312e-07
3.1621e-05
-1.32039e-07
-1.86584e-07
3.19404e-05
2.55419e-05
-1.43757e-06
2.6577e-05
-3.0943e-06
2.74385e-05
-2.50389e-06
2.80476e-05
-1.77915e-06
2.8345e-05
-9.94817e-07
2.86214e-05
-9.40018e-07
2.894e-05
-9.17598e-07
2.9375e-05
-9.70406e-07
2.96582e-05
-8.68361e-07
2.98409e-05
-8.15736e-07
2.9982e-05
-5.73493e-07
3.02617e-05
-5.88065e-07
3.04319e-05
-4.2142e-07
3.06188e-05
-5.54126e-07
3.07948e-05
-4.97016e-07
3.10857e-05
-5.76378e-07
3.12658e-05
-4.75312e-07
3.15066e-05
-5.42048e-07
3.18039e-05
-4.29361e-07
-5.82768e-07
3.22001e-05
2.56805e-05
-2.11803e-06
2.67387e-05
-4.15252e-06
2.75975e-05
-3.36271e-06
2.806e-05
-2.24167e-06
2.84691e-05
-1.40389e-06
2.88409e-05
-1.31181e-06
2.91832e-05
-1.25992e-06
2.95317e-05
-1.31887e-06
2.9778e-05
-1.11468e-06
2.99766e-05
-1.01431e-06
3.01605e-05
-7.5746e-07
3.04298e-05
-8.57305e-07
3.06055e-05
-5.97196e-07
3.08126e-05
-7.61201e-07
3.09576e-05
-6.41951e-07
3.11994e-05
-8.18253e-07
3.1375e-05
-6.50934e-07
3.16992e-05
-8.66242e-07
3.1982e-05
-7.12089e-07
-8.52312e-07
3.22515e-05
2.58443e-05
-2.96237e-06
2.69564e-05
-5.26459e-06
2.78067e-05
-4.213e-06
2.82262e-05
-2.66118e-06
2.87068e-05
-1.88451e-06
2.91125e-05
-1.71748e-06
2.94633e-05
-1.61074e-06
2.97367e-05
-1.59222e-06
2.99694e-05
-1.34742e-06
3.01478e-05
-1.19274e-06
3.03642e-05
-9.73785e-07
3.05586e-05
-1.05171e-06
3.07201e-05
-7.58768e-07
3.08604e-05
-9.01418e-07
3.09813e-05
-7.62858e-07
3.11303e-05
-9.67269e-07
3.12384e-05
-7.59068e-07
3.14772e-05
-1.10503e-06
3.16509e-05
-8.85784e-07
-1.11149e-06
3.19101e-05
2.6041e-05
-4.00336e-06
2.72272e-05
-6.45076e-06
2.80252e-05
-5.01105e-06
2.85092e-05
-3.14519e-06
2.89901e-05
-2.36544e-06
2.93317e-05
-2.05908e-06
2.95932e-05
-1.87221e-06
2.97325e-05
-1.73148e-06
2.98411e-05
-1.456e-06
2.98879e-05
-1.2396e-06
2.99593e-05
-1.04518e-06
2.99546e-05
-1.04696e-06
2.99758e-05
-7.79964e-07
2.99317e-05
-8.57393e-07
2.99026e-05
-7.33669e-07
2.9827e-05
-8.91756e-07
2.97634e-05
-6.95416e-07
2.97351e-05
-1.07678e-06
2.96852e-05
-8.35822e-07
-1.23399e-06
2.98077e-05
2.63073e-05
-5.31061e-06
2.75328e-05
-7.67632e-06
2.80779e-05
-5.55613e-06
2.84603e-05
-3.52764e-06
2.86414e-05
-2.54652e-06
2.86279e-05
-2.0456e-06
2.84792e-05
-1.7235e-06
2.82258e-05
-1.478e-06
2.79608e-05
-1.19108e-06
2.76914e-05
-9.70129e-07
2.74401e-05
-7.93904e-07
2.71578e-05
-7.64669e-07
2.69393e-05
-5.61514e-07
2.66796e-05
-5.9766e-07
2.64594e-05
-5.13433e-07
2.61937e-05
-6.26134e-07
2.59866e-05
-4.88262e-07
2.5699e-05
-7.89183e-07
2.55217e-05
-6.58541e-07
-1.18081e-06
2.54685e-05
2.66047e-05
-6.91528e-06
2.71537e-05
-8.22532e-06
2.67817e-05
-5.18419e-06
2.62527e-05
-2.99858e-06
2.55965e-05
-1.89035e-06
2.48783e-05
-1.32743e-06
2.41618e-05
-1.00697e-06
2.34982e-05
-8.14421e-07
2.29302e-05
-6.23069e-07
2.24522e-05
-4.92126e-07
2.20447e-05
-3.86381e-07
2.16676e-05
-3.87534e-07
2.13772e-05
-2.71116e-07
2.10791e-05
-2.99624e-07
2.08258e-05
-2.60117e-07
2.05361e-05
-3.36427e-07
2.03099e-05
-2.62044e-07
1.99426e-05
-4.21904e-07
1.96486e-05
-3.64558e-07
-3.81389e-07
1.88492e-05
2.54509e-05
-7.36623e-06
2.32448e-05
-6.01915e-06
2.09907e-05
-2.93012e-06
1.93195e-05
-1.32738e-06
1.80708e-05
-6.41684e-07
1.71158e-05
-3.72433e-07
1.6369e-05
-2.60166e-07
1.57702e-05
-2.15592e-07
1.5307e-05
-1.59871e-07
1.494e-05
-1.25057e-07
1.46443e-05
-9.07777e-08
1.43672e-05
-1.10354e-07
1.41625e-05
-6.64683e-08
1.39468e-05
-8.39501e-08
1.37596e-05
-7.2868e-08
1.35333e-05
-1.10155e-07
1.33489e-05
-7.7611e-08
1.30652e-05
-1.38226e-07
1.28716e-05
-1.70968e-07
-3.69502e-08
1.25272e-05
1.76338e-05
1.16146e-05
8.68449e-06
7.35711e-06
6.71542e-06
6.34299e-06
6.08283e-06
5.86723e-06
5.70736e-06
5.58231e-06
5.49153e-06
5.38117e-06
5.31471e-06
5.23076e-06
5.15789e-06
5.04773e-06
4.97012e-06
4.8319e-06
4.66093e-06
4.62398e-06
4.94604e-06
6.43557e-07
-1.27711e-06
5.9029e-06
1.03984e-06
-1.9967e-06
6.85707e-06
9.49862e-07
-1.90404e-06
7.4754e-06
5.76144e-07
-1.19447e-06
7.80155e-06
1.80939e-07
-5.0709e-07
7.88292e-06
-8.98902e-08
8.51817e-09
7.94659e-06
-2.37271e-07
1.73601e-07
8.00383e-06
-2.67992e-07
2.10755e-07
8.09161e-06
-2.70776e-07
1.82997e-07
8.19139e-06
-2.69516e-07
1.69737e-07
8.27621e-06
-2.48916e-07
1.64087e-07
8.37796e-06
-2.62899e-07
1.61156e-07
8.48922e-06
-2.32003e-07
1.20742e-07
8.64021e-06
-2.32419e-07
8.14342e-08
8.81179e-06
-2.02017e-07
3.04372e-08
8.99811e-06
-2.01762e-07
1.54438e-08
9.18713e-06
-2.24169e-07
3.514e-08
9.35313e-06
-2.61911e-07
9.59112e-08
9.50816e-06
-3.27977e-07
1.72948e-07
9.62058e-06
-3.84531e-07
2.72115e-07
9.69332e-06
-4.36192e-07
3.63447e-07
9.70403e-06
-4.84434e-07
4.73726e-07
9.72629e-06
-4.89862e-07
4.67609e-07
9.69804e-06
-4.45537e-07
4.7378e-07
9.71243e-06
-3.48542e-07
3.34153e-07
9.77722e-06
-7.80094e-08
1.32179e-08
9.96819e-06
1.34733e-07
-3.25701e-07
1.032e-05
4.08442e-07
-7.6028e-07
1.07573e-05
5.74592e-07
-1.01183e-06
1.12974e-05
6.16844e-07
-1.15699e-06
1.18268e-05
5.50303e-07
-1.07966e-06
1.23531e-05
3.18305e-07
-8.4467e-07
1.27856e-05
7.14933e-08
-5.03942e-07
1.31352e-05
-3.11115e-07
-3.8467e-08
1.34544e-05
-7.03635e-07
3.84376e-07
1.36902e-05
-1.05289e-06
8.17135e-07
1.38987e-05
-1.44888e-06
1.24037e-06
1.40663e-05
-1.76386e-06
1.59626e-06
1.41807e-05
-2.06806e-06
1.95365e-06
1.42627e-05
-2.3201e-06
2.23815e-06
1.42605e-05
-2.46488e-06
2.46704e-06
1.42059e-05
-2.58921e-06
2.64375e-06
1.40855e-05
-2.57198e-06
2.69242e-06
1.39171e-05
-2.47592e-06
2.64432e-06
1.36927e-05
-2.27417e-06
2.49854e-06
1.34222e-05
-1.96706e-06
2.23761e-06
1.3144e-05
-1.50922e-06
1.78736e-06
1.29625e-05
-1.00271e-06
1.18427e-06
1.29856e-05
-4.67723e-07
4.44586e-07
1.31973e-05
1.56657e-07
-3.68321e-07
1.36722e-05
7.94294e-07
-1.26923e-06
1.44567e-05
1.34304e-06
-2.12754e-06
1.53499e-05
1.90915e-06
-2.80231e-06
1.64219e-05
2.18113e-06
-3.25315e-06
1.75864e-05
2.30817e-06
-3.47271e-06
1.85789e-05
2.46204e-06
-3.45451e-06
1.95997e-05
1.89162e-06
-2.91243e-06
2.0523e-05
1.58706e-06
-2.51034e-06
2.1288e-05
1.32149e-06
-2.08653e-06
2.21255e-05
1.33524e-07
-9.70975e-07
2.28587e-05
-2.53312e-07
-4.79949e-07
2.35405e-05
-7.9187e-07
1.10132e-07
2.41817e-05
-2.18399e-06
1.54281e-06
2.47258e-05
-2.73375e-06
2.18956e-06
2.53683e-05
-3.57695e-06
2.93451e-06
2.59397e-05
-4.93806e-06
4.36665e-06
2.64353e-05
-5.63834e-06
5.14271e-06
2.71414e-05
-6.61668e-06
5.91065e-06
2.7895e-05
-7.86059e-06
7.10693e-06
2.86572e-05
-8.66065e-06
7.89843e-06
2.9596e-05
-9.46834e-06
8.52959e-06
3.05981e-05
-1.04668e-05
9.46469e-06
3.16236e-05
-1.13501e-05
1.03246e-05
3.25645e-05
-1.16829e-05
1.0742e-05
3.34197e-05
-1.22213e-05
1.1366e-05
3.42723e-05
-1.30192e-05
1.21666e-05
3.4915e-05
-1.29244e-05
1.22817e-05
3.53602e-05
-1.28197e-05
1.23745e-05
3.57532e-05
-1.34891e-05
1.30961e-05
3.60483e-05
-1.31431e-05
1.2848e-05
3.60869e-05
-1.2445e-05
1.24064e-05
3.59477e-05
-1.28402e-05
1.29794e-05
3.58358e-05
-1.2182e-05
1.2294e-05
3.55153e-05
-1.12163e-05
1.15367e-05
3.48934e-05
-1.11981e-05
1.182e-05
3.42581e-05
-9.97657e-06
1.06119e-05
3.34413e-05
-8.96276e-06
9.77954e-06
3.23374e-05
-8.50723e-06
9.61117e-06
3.1054e-05
-6.5866e-06
7.86993e-06
2.97063e-05
-5.62035e-06
6.96812e-06
2.82346e-05
-4.69822e-06
6.16987e-06
2.66381e-05
-2.59206e-06
4.18856e-06
2.51258e-05
-1.87618e-06
3.38851e-06
2.3697e-05
-9.21331e-07
2.35016e-06
2.23103e-05
1.18299e-06
2.03651e-07
2.10973e-05
1.54932e-06
-3.36268e-07
1.99891e-05
1.67217e-06
-5.64006e-07
1.9062e-05
3.44461e-06
-2.51751e-06
1.8224e-05
3.97587e-06
-3.13787e-06
1.73992e-05
3.31698e-06
-2.49212e-06
1.6613e-05
3.97149e-06
-3.18536e-06
1.6102e-05
5.4492e-06
-4.93814e-06
1.58524e-05
5.10732e-06
-4.85781e-06
1.56157e-05
3.51944e-06
-3.28271e-06
1.51041e-05
2.8424e-06
-2.33075e-06
1.45548e-05
4.39239e-06
-3.84314e-06
1.43094e-05
6.39573e-06
-6.15027e-06
1.44561e-05
7.64046e-06
-7.78719e-06
1.46547e-05
7.08428e-06
-7.28287e-06
1.48907e-05
4.50098e-06
-4.73703e-06
1.50506e-05
-3.8091e-07
2.21086e-07
1.53172e-05
-7.65974e-06
7.39307e-06
1.5617e-05
-1.6126e-05
1.58262e-05
1.61613e-05
-2.29116e-05
2.23674e-05
1.69551e-05
-2.67379e-05
2.59441e-05
1.7783e-05
-2.78386e-05
2.70107e-05
1.83946e-05
-2.61982e-05
2.55866e-05
1.92241e-05
-2.41854e-05
2.33559e-05
1.97976e-05
-2.12265e-05
2.06531e-05
2.04502e-05
-1.7278e-05
1.66254e-05
2.10372e-05
-1.20019e-05
1.1415e-05
2.14646e-05
-7.28226e-06
6.85485e-06
2.22992e-05
-2.1519e-06
1.31727e-06
2.2862e-05
4.03967e-06
-4.60246e-06
2.31426e-05
9.15518e-06
-9.43574e-06
2.36581e-05
1.40047e-05
-1.45202e-05
2.42804e-05
1.97541e-05
-2.03764e-05
2.43701e-05
2.52818e-05
-2.53715e-05
2.35773e-05
2.90484e-05
-2.82556e-05
2.21322e-05
3.04752e-05
-2.90301e-05
2.04022e-05
3.04981e-05
-2.87682e-05
1.85793e-05
2.99388e-05
-2.81159e-05
1.7312e-05
2.86648e-05
-2.73975e-05
1.60873e-05
2.7872e-05
-2.66472e-05
1.53812e-05
2.57567e-05
-2.50507e-05
1.48797e-05
2.48701e-05
-2.43686e-05
1.46908e-05
2.2258e-05
-2.2069e-05
1.47519e-05
2.11983e-05
-2.12594e-05
1.51722e-05
1.83837e-05
-1.88041e-05
1.54847e-05
1.7271e-05
-1.75835e-05
1.59968e-05
1.35958e-05
-1.41079e-05
1.65111e-05
1.13606e-05
-1.18749e-05
1.70775e-05
7.42614e-06
-7.99259e-06
1.72976e-05
5.94106e-06
-6.16115e-06
1.7643e-05
2.20994e-06
-2.55534e-06
1.81418e-05
1.08288e-06
-1.58166e-06
1.86443e-05
-2.87624e-06
2.37368e-06
1.89417e-05
-3.30418e-06
3.00687e-06
1.91577e-05
-7.27187e-06
7.05584e-06
1.96215e-05
-9.19918e-06
8.73541e-06
2.02808e-05
-1.24975e-05
1.18381e-05
2.05928e-05
-1.52479e-05
1.4936e-05
2.09595e-05
-1.90505e-05
1.86837e-05
2.09788e-05
-1.97082e-05
1.96889e-05
2.09167e-05
-2.10144e-05
2.10766e-05
2.06146e-05
-2.05817e-05
2.08838e-05
2.01963e-05
-2.06488e-05
2.10671e-05
1.98773e-05
-1.98598e-05
2.01789e-05
1.96172e-05
-1.9922e-05
2.01822e-05
1.92317e-05
-1.73567e-05
1.77422e-05
1.89936e-05
-1.59953e-05
1.62333e-05
1.88573e-05
-1.57464e-05
1.58828e-05
1.87304e-05
-1.59054e-05
1.60322e-05
1.82875e-05
-1.53069e-05
1.57498e-05
1.83058e-05
-1.46065e-05
1.45882e-05
1.87883e-05
-1.31365e-05
1.26541e-05
1.96898e-05
-1.16844e-05
1.07828e-05
2.09087e-05
-1.21405e-05
1.09216e-05
2.19742e-05
-1.35069e-05
1.24414e-05
2.30562e-05
-1.45422e-05
1.34602e-05
2.39116e-05
-1.39908e-05
1.31354e-05
2.44207e-05
-1.20993e-05
1.15902e-05
2.48153e-05
-9.68208e-06
9.28756e-06
2.51451e-05
-7.44399e-06
7.11412e-06
2.57348e-05
-6.27831e-06
5.6886e-06
2.59623e-05
-5.51107e-06
5.28364e-06
2.59765e-05
-4.50201e-06
4.48777e-06
2.54817e-05
-2.48758e-06
2.98241e-06
2.51405e-05
-3.7817e-07
7.1937e-07
2.41797e-05
2.42598e-06
-1.46518e-06
2.33678e-05
6.48314e-06
-5.6713e-06
2.20496e-05
1.0474e-05
-9.15576e-06
2.12086e-05
1.18872e-05
-1.10463e-05
1.94147e-05
1.49677e-05
-1.31737e-05
1.81247e-05
1.84517e-05
-1.71617e-05
1.74297e-05
2.23979e-05
-2.17029e-05
1.58358e-05
2.39046e-05
-2.23107e-05
1.56318e-05
2.26734e-05
-2.24694e-05
1.50255e-05
2.2868e-05
-2.22618e-05
1.39397e-05
2.24421e-05
-2.13562e-05
1.41142e-05
2.30911e-05
-2.32656e-05
1.39778e-05
2.46473e-05
-2.4511e-05
1.35449e-05
2.43981e-05
-2.39652e-05
1.33561e-05
2.29627e-05
-2.27738e-05
1.27851e-05
2.24914e-05
-2.19204e-05
1.19498e-05
2.16221e-05
-2.07868e-05
1.15513e-05
2.17085e-05
-2.131e-05
1.0291e-05
2.30406e-05
-2.17802e-05
1.10714e-05
2.34224e-05
-2.42028e-05
3.01426e-05
-3.05076e-05
1.14364e-05
1.20809e-05
5.36353e-07
1.24462e-05
6.74612e-07
1.28417e-05
5.54342e-07
1.31399e-05
2.77897e-07
1.33145e-05
6.3423e-09
1.34248e-05
-2.00146e-07
1.35012e-05
-3.13708e-07
1.35491e-05
-3.15904e-07
1.36001e-05
-3.21789e-07
1.36541e-05
-3.23517e-07
1.36964e-05
-2.91187e-07
1.37469e-05
-3.13423e-07
1.38096e-05
-2.94684e-07
1.38957e-05
-3.18533e-07
1.40225e-05
-3.28823e-07
1.41553e-05
-3.3452e-07
1.43078e-05
-3.76685e-07
1.44503e-05
-4.04429e-07
1.45835e-05
-4.61186e-07
1.47149e-05
-5.15897e-07
1.48148e-05
-5.36045e-07
1.49031e-05
-5.72731e-07
1.49746e-05
-5.61419e-07
1.50342e-05
-5.05084e-07
1.51153e-05
-4.29662e-07
1.52682e-05
-2.30949e-07
1.55098e-05
-1.0686e-07
1.58319e-05
8.63983e-08
1.62145e-05
1.91978e-07
1.66539e-05
1.77434e-07
1.70718e-05
1.3243e-07
1.75085e-05
-1.18445e-07
1.79e-05
-3.20027e-07
1.82521e-05
-6.63167e-07
1.8555e-05
-1.00653e-06
1.88337e-05
-1.33163e-06
1.90572e-05
-1.67234e-06
1.92542e-05
-1.96089e-06
1.9398e-05
-2.21186e-06
1.94792e-05
-2.40126e-06
1.95228e-05
-2.50848e-06
1.95087e-05
-2.57515e-06
1.94471e-05
-2.51035e-06
1.93587e-05
-2.38749e-06
1.92367e-05
-2.15224e-06
1.90958e-05
-1.82613e-06
1.89857e-05
-1.39913e-06
1.88617e-05
-8.78733e-07
1.8821e-05
-4.2704e-07
1.87776e-05
2.00088e-07
1.88319e-05
7.40003e-07
1.9111e-05
1.06392e-06
1.94365e-05
1.5837e-06
1.99489e-05
1.66865e-06
2.06358e-05
1.62134e-06
2.1288e-05
1.80985e-06
2.20091e-05
1.17053e-06
2.27553e-05
8.40864e-07
2.34874e-05
5.89338e-07
2.41715e-05
-5.50523e-07
2.48775e-05
-9.5936e-07
2.56535e-05
-1.56788e-06
2.63419e-05
-2.87236e-06
2.70228e-05
-3.41463e-06
2.78598e-05
-4.414e-06
2.8637e-05
-5.71521e-06
2.94198e-05
-6.42119e-06
3.03365e-05
-7.53333e-06
3.12008e-05
-8.72497e-06
3.20582e-05
-9.51797e-06
3.29137e-05
-1.03239e-05
3.36805e-05
-1.12336e-05
3.4344e-05
-1.20135e-05
3.48981e-05
-1.2237e-05
3.53159e-05
-1.26391e-05
3.55681e-05
-1.32714e-05
3.57464e-05
-1.31028e-05
3.58608e-05
-1.29342e-05
3.57838e-05
-1.3412e-05
3.57303e-05
-1.30896e-05
3.56919e-05
-1.24066e-05
3.54365e-05
-1.25849e-05
3.52526e-05
-1.19981e-05
3.50578e-05
-1.10214e-05
3.45841e-05
-1.07244e-05
3.4038e-05
-9.43041e-06
3.34351e-05
-8.35991e-06
3.24823e-05
-7.55443e-06
3.13474e-05
-5.45165e-06
3.01457e-05
-4.41875e-06
2.87901e-05
-3.34257e-06
2.73147e-05
-1.11668e-06
2.58462e-05
-4.07695e-07
2.43771e-05
5.47822e-07
2.29392e-05
2.62091e-06
2.17006e-05
2.78787e-06
2.05919e-05
2.78084e-06
1.95729e-05
4.46364e-06
1.86243e-05
4.92447e-06
1.78806e-05
4.0607e-06
1.72777e-05
4.57439e-06
1.674e-05
5.98688e-06
1.6215e-05
5.63237e-06
1.56439e-05
4.09045e-06
1.49654e-05
3.52091e-06
1.4454e-05
4.90378e-06
1.42596e-05
6.59016e-06
1.43117e-05
7.58836e-06
1.44947e-05
6.90127e-06
1.46562e-05
4.33953e-06
1.47523e-05
-4.77005e-07
1.49252e-05
-7.83272e-06
1.50515e-05
-1.62523e-05
1.56542e-05
-2.35143e-05
1.639e-05
-2.74738e-05
1.69506e-05
-2.83992e-05
1.74921e-05
-2.67398e-05
1.823e-05
-2.49233e-05
1.87949e-05
-2.17914e-05
1.93076e-05
-1.77907e-05
1.98628e-05
-1.25572e-05
2.02329e-05
-7.65234e-06
2.09914e-05
-2.91044e-06
2.18757e-05
3.15536e-06
2.2273e-05
8.7579e-06
2.28489e-05
1.34287e-05
2.36379e-05
1.89651e-05
2.42839e-05
2.46358e-05
2.41194e-05
2.92129e-05
2.31174e-05
3.14772e-05
2.18562e-05
3.17593e-05
2.03522e-05
3.14428e-05
1.91217e-05
2.98953e-05
1.79816e-05
2.90121e-05
1.72556e-05
2.64827e-05
1.68676e-05
2.52581e-05
1.67236e-05
2.2402e-05
1.66383e-05
2.12836e-05
1.7035e-05
1.79871e-05
1.75212e-05
1.67848e-05
1.8118e-05
1.2999e-05
1.85457e-05
1.09329e-05
1.88388e-05
7.13303e-06
1.90905e-05
5.68938e-06
1.91504e-05
2.15005e-06
1.97366e-05
4.96642e-07
2.00332e-05
-3.17281e-06
2.062e-05
-3.89102e-06
2.07914e-05
-7.44323e-06
2.12648e-05
-9.67253e-06
2.19186e-05
-1.31514e-05
2.23459e-05
-1.56751e-05
2.25333e-05
-1.9238e-05
2.21085e-05
-1.92834e-05
2.19565e-05
-2.08624e-05
2.16629e-05
-2.02881e-05
2.15317e-05
-2.05175e-05
2.11291e-05
-1.94573e-05
2.01977e-05
-1.89907e-05
1.95913e-05
-1.67503e-05
1.92113e-05
-1.56153e-05
1.89602e-05
-1.54953e-05
1.88199e-05
-1.5765e-05
1.81555e-05
-1.46425e-05
1.81376e-05
-1.45886e-05
1.86879e-05
-1.36868e-05
1.96541e-05
-1.26506e-05
2.06964e-05
-1.31828e-05
2.18297e-05
-1.46401e-05
2.27595e-05
-1.5472e-05
2.33951e-05
-1.46264e-05
2.40523e-05
-1.27565e-05
2.43226e-05
-9.95247e-06
2.46157e-05
-7.73704e-06
2.4881e-05
-6.54365e-06
2.4807e-05
-5.43701e-06
2.4374e-05
-4.069e-06
2.38001e-05
-1.91375e-06
2.33679e-05
5.41151e-08
2.23974e-05
3.39638e-06
2.14534e-05
7.42717e-06
2.03654e-05
1.15621e-05
1.94382e-05
1.28144e-05
1.83233e-05
1.60825e-05
1.63805e-05
2.03944e-05
1.62145e-05
2.2564e-05
1.55575e-05
2.45615e-05
1.41659e-05
2.4065e-05
1.46526e-05
2.23813e-05
1.39154e-05
2.31794e-05
1.37569e-05
2.32495e-05
1.44869e-05
2.39174e-05
1.41827e-05
2.47023e-05
1.38848e-05
2.32606e-05
1.38193e-05
2.25569e-05
1.33475e-05
2.20939e-05
1.42313e-05
2.08246e-05
1.38635e-05
2.34084e-05
1.75136e-05
1.97723e-05
3.03029e-05
1.73533e-05
1.86767e-05
4.7744e-07
1.89928e-05
3.58471e-07
1.93577e-05
1.89402e-07
1.95982e-05
3.73867e-08
1.97629e-05
-1.58286e-07
1.97939e-05
-2.3114e-07
1.98026e-05
-3.2242e-07
1.98156e-05
-3.28898e-07
1.98202e-05
-3.26407e-07
1.98421e-05
-3.45385e-07
1.98563e-05
-3.05389e-07
1.98837e-05
-3.40876e-07
1.99162e-05
-3.27139e-07
1.99578e-05
-3.60204e-07
2.00227e-05
-3.93636e-07
2.01063e-05
-4.18195e-07
2.01941e-05
-4.64482e-07
2.02938e-05
-5.04123e-07
2.03818e-05
-5.4917e-07
2.04685e-05
-6.02596e-07
2.05529e-05
-6.20457e-07
2.06261e-05
-6.45927e-07
2.0691e-05
-6.26347e-07
2.07615e-05
-5.75537e-07
2.08653e-05
-5.33496e-07
2.10108e-05
-3.76432e-07
2.12389e-05
-3.34951e-07
2.14907e-05
-1.65413e-07
2.1812e-05
-1.29267e-07
2.21602e-05
-1.708e-07
2.24794e-05
-1.8675e-07
2.28497e-05
-4.88738e-07
2.31385e-05
-6.08861e-07
2.3442e-05
-9.66619e-07
2.36839e-05
-1.24845e-06
2.38783e-05
-1.52609e-06
2.40714e-05
-1.86541e-06
2.41757e-05
-2.06517e-06
2.42895e-05
-2.32572e-06
2.43114e-05
-2.4231e-06
2.4318e-05
-2.51513e-06
2.4284e-05
-2.54108e-06
2.41769e-05
-2.40329e-06
2.40901e-05
-2.30072e-06
2.39503e-05
-2.01243e-06
2.38231e-05
-1.69886e-06
2.37528e-05
-1.32886e-06
2.36674e-05
-7.93383e-07
2.36894e-05
-4.49046e-07
2.37633e-05
1.26221e-07
2.38513e-05
6.51988e-07
2.41121e-05
8.03168e-07
2.43691e-05
1.32665e-06
2.47443e-05
1.29348e-06
2.51576e-05
1.20799e-06
2.56509e-05
1.31655e-06
2.61874e-05
6.34054e-07
2.66657e-05
3.62547e-07
2.7317e-05
-6.19329e-08
2.7907e-05
-1.14054e-06
2.84817e-05
-1.53404e-06
2.927e-05
-2.35616e-06
2.99372e-05
-3.53957e-06
3.06449e-05
-4.1223e-06
3.14477e-05
-5.21685e-06
3.21492e-05
-6.4167e-06
3.28778e-05
-7.14983e-06
3.35956e-05
-8.25114e-06
3.41478e-05
-9.27713e-06
3.46722e-05
-1.00424e-05
3.51378e-05
-1.07894e-05
3.53753e-05
-1.14712e-05
3.54613e-05
-1.20995e-05
3.55891e-05
-1.23648e-05
3.55326e-05
-1.25826e-05
3.53271e-05
-1.30659e-05
3.52429e-05
-1.30185e-05
3.52176e-05
-1.29089e-05
3.50807e-05
-1.3275e-05
3.50004e-05
-1.30093e-05
3.51316e-05
-1.25377e-05
3.51529e-05
-1.26062e-05
3.51263e-05
-1.19716e-05
3.51369e-05
-1.1032e-05
3.49293e-05
-1.05169e-05
3.45982e-05
-9.09926e-06
3.41216e-05
-7.88337e-06
3.32439e-05
-6.67667e-06
3.2289e-05
-4.49682e-06
3.12304e-05
-3.3601e-06
2.98704e-05
-1.98259e-06
2.83355e-05
4.1823e-07
2.68168e-05
1.11102e-06
2.52408e-05
2.12381e-06
2.37901e-05
4.07167e-06
2.25026e-05
4.07534e-06
2.13062e-05
3.97725e-06
2.01971e-05
5.57276e-06
1.92437e-05
5.87782e-06
1.84224e-05
4.882e-06
1.76751e-05
5.32168e-06
1.70638e-05
6.59819e-06
1.65862e-05
6.10996e-06
1.61936e-05
4.48304e-06
1.56535e-05
4.06105e-06
1.51668e-05
5.39042e-06
1.47406e-05
7.01641e-06
1.4515e-05
7.81395e-06
1.44687e-05
6.94761e-06
1.45648e-05
4.2434e-06
1.46665e-05
-5.78722e-07
1.46567e-05
-7.82289e-06
1.45927e-05
-1.61882e-05
1.50153e-05
-2.39369e-05
1.54417e-05
-2.79002e-05
1.58305e-05
-2.8788e-05
1.64663e-05
-2.73756e-05
1.70595e-05
-2.55165e-05
1.75431e-05
-2.22751e-05
1.79653e-05
-1.82129e-05
1.84913e-05
-1.30831e-05
1.8991e-05
-8.15203e-06
1.95518e-05
-3.4712e-06
2.06026e-05
2.10449e-06
2.12374e-05
8.12314e-06
2.18936e-05
1.27725e-05
2.28575e-05
1.80011e-05
2.37288e-05
2.37645e-05
2.42615e-05
2.86802e-05
2.38039e-05
3.19349e-05
2.29579e-05
3.26053e-05
2.17525e-05
3.26482e-05
2.06846e-05
3.09631e-05
1.98693e-05
2.98275e-05
1.92087e-05
2.71433e-05
1.87071e-05
2.57598e-05
1.85886e-05
2.25204e-05
1.86587e-05
2.12135e-05
1.88842e-05
1.77615e-05
1.92918e-05
1.63772e-05
1.96562e-05
1.26346e-05
2.02126e-05
1.03765e-05
2.04525e-05
6.89309e-06
2.0988e-05
5.15394e-06
2.09441e-05
2.19393e-06
2.15688e-05
-1.28048e-07
2.15482e-05
-3.15222e-06
2.21672e-05
-4.51007e-06
2.23604e-05
-7.63646e-06
2.31146e-05
-1.04267e-05
2.36344e-05
-1.36711e-05
2.39548e-05
-1.59956e-05
2.39756e-05
-1.92588e-05
2.3677e-05
-1.89848e-05
2.326e-05
-2.04454e-05
2.25375e-05
-1.95656e-05
2.19506e-05
-1.99305e-05
2.11051e-05
-1.86118e-05
2.0304e-05
-1.81896e-05
1.97487e-05
-1.61949e-05
1.93369e-05
-1.52036e-05
1.8863e-05
-1.50214e-05
1.83869e-05
-1.52889e-05
1.80326e-05
-1.42883e-05
1.80987e-05
-1.46547e-05
1.84806e-05
-1.40686e-05
1.95523e-05
-1.37223e-05
2.04114e-05
-1.4042e-05
2.15301e-05
-1.57588e-05
2.23138e-05
-1.62557e-05
2.2828e-05
-1.51406e-05
2.31991e-05
-1.31275e-05
2.34655e-05
-1.02189e-05
2.37241e-05
-7.99564e-06
2.35901e-05
-6.40963e-06
2.32739e-05
-5.12083e-06
2.24255e-05
-3.22059e-06
2.16995e-05
-1.18782e-06
2.06702e-05
1.08347e-06
1.95974e-05
4.46917e-06
1.86227e-05
8.40188e-06
1.84909e-05
1.16939e-05
1.7597e-05
1.37084e-05
1.71794e-05
1.65001e-05
1.55411e-05
2.20327e-05
1.39886e-05
2.41166e-05
1.46036e-05
2.39465e-05
1.38478e-05
2.48208e-05
1.3344e-05
2.28851e-05
1.37038e-05
2.28196e-05
1.34075e-05
2.35458e-05
1.45283e-05
2.27965e-05
1.51041e-05
2.41265e-05
1.45602e-05
2.38045e-05
1.53574e-05
2.17597e-05
1.52626e-05
2.21887e-05
1.68256e-05
1.92615e-05
1.61859e-05
2.40481e-05
2.10966e-05
1.48616e-05
2.893e-05
2.24695e-05
2.40974e-05
2.18488e-07
2.46283e-05
-1.72496e-07
2.51008e-05
-2.83051e-07
2.53744e-05
-2.36181e-07
2.54947e-05
-2.78632e-07
2.5496e-05
-2.32462e-07
2.54697e-05
-2.96112e-07
2.54029e-05
-2.62091e-07
2.53867e-05
-3.10251e-07
2.53637e-05
-3.223e-07
2.53644e-05
-3.06176e-07
2.53837e-05
-3.60085e-07
2.53856e-05
-3.29098e-07
2.54318e-05
-4.06389e-07
2.54483e-05
-4.10084e-07
2.54998e-05
-4.69722e-07
2.55488e-05
-5.13478e-07
2.55891e-05
-5.44495e-07
2.56528e-05
-6.12863e-07
2.56948e-05
-6.4458e-07
2.57422e-05
-6.67853e-07
2.5812e-05
-7.15706e-07
2.5841e-05
-6.55352e-07
2.5924e-05
-6.58503e-07
2.60179e-05
-6.27448e-07
2.61188e-05
-4.77265e-07
2.63262e-05
-5.42429e-07
2.64961e-05
-3.35284e-07
2.67558e-05
-3.88939e-07
2.70256e-05
-4.40613e-07
2.72532e-05
-4.14401e-07
2.75311e-05
-7.66573e-07
2.77311e-05
-8.0886e-07
2.79216e-05
-1.15712e-06
2.80921e-05
-1.41902e-06
2.81722e-05
-1.60613e-06
2.82709e-05
-1.96415e-06
2.82773e-05
-2.07155e-06
2.82735e-05
-2.32195e-06
2.82244e-05
-2.37398e-06
2.81396e-05
-2.43036e-06
2.80326e-05
-2.43402e-06
2.79007e-05
-2.27139e-06
2.77816e-05
-2.18168e-06
2.76379e-05
-1.86867e-06
2.75514e-05
-1.61234e-06
2.74865e-05
-1.26405e-06
2.74563e-05
-7.6311e-07
2.75324e-05
-5.25203e-07
2.76086e-05
5.00929e-08
2.78203e-05
4.40276e-07
2.8059e-05
5.64409e-07
2.83151e-05
1.07054e-06
2.87604e-05
8.48271e-07
2.91148e-05
8.53528e-07
2.9557e-05
8.74332e-07
3.00795e-05
1.11612e-07
3.04664e-05
-2.43537e-08
3.10556e-05
-6.51116e-07
3.15408e-05
-1.62579e-06
3.20565e-05
-2.04975e-06
3.26632e-05
-2.96285e-06
3.31488e-05
-4.02514e-06
3.37233e-05
-4.6968e-06
3.42312e-05
-5.72478e-06
3.46071e-05
-6.79259e-06
3.50204e-05
-7.56314e-06
3.53155e-05
-8.54623e-06
3.54272e-05
-9.38884e-06
3.54733e-05
-1.00884e-05
3.55059e-05
-1.08221e-05
3.52949e-05
-1.12601e-05
3.50202e-05
-1.18248e-05
3.48971e-05
-1.22417e-05
3.46731e-05
-1.23585e-05
3.44531e-05
-1.28459e-05
3.44501e-05
-1.30155e-05
3.45882e-05
-1.30471e-05
3.46925e-05
-1.33793e-05
3.48764e-05
-1.31932e-05
3.52691e-05
-1.29304e-05
3.55535e-05
-1.28906e-05
3.56509e-05
-1.2069e-05
3.57979e-05
-1.11789e-05
3.57757e-05
-1.04946e-05
3.547e-05
-8.79363e-06
3.49773e-05
-7.39063e-06
3.42411e-05
-5.94041e-06
3.33597e-05
-3.61551e-06
3.22172e-05
-2.21752e-06
3.08361e-05
-6.01542e-07
2.93103e-05
1.94408e-06
2.77758e-05
2.64545e-06
2.61051e-05
3.79459e-06
2.46711e-05
5.50559e-06
2.3409e-05
5.33744e-06
2.2013e-05
5.37324e-06
2.0682e-05
6.90382e-06
1.97113e-05
6.84851e-06
1.90142e-05
5.57914e-06
1.81899e-05
6.14593e-06
1.7336e-05
7.45205e-06
1.65644e-05
6.88162e-06
1.60292e-05
5.01822e-06
1.55513e-05
4.53895e-06