/*--------------------------------*- C++ -*----------------------------------*\
| =========                 |                                                 |
| \\      /  F ield         | OpenFOAM: The Open Source CFD Toolbox           |
|  \\    /   O peration     | Version:  2.4.0                                 |
|   \\  /    A nd           | Web:      www.OpenFOAM.org                      |
|    \\/     M anipulation  |                                                 |
\*---------------------------------------------------------------------------*/
FoamFile
{
    version     2.0;
    format      ascii;
    class       volVectorField;
    location    "1.7";
    object      U;
}
// * * * * * * * * * * * * * * * * * * * * * * * * * * * * * * * * * * * * * //

dimensions      [0 1 -1 0 0 0 0];

internalField   nonuniform List<vector> 
4400
(
(9.89787 0.0651625 0)
(9.7874 -0.0621091 0)
(9.59704 0.0405414 0)
(10.322 0.0284829 0)
(7.81218 -0.0303171 0)
(11.4345 0.134341 0)
(6.54528 -0.0743924 0)
(11.9258 0.000887319 0)
(6.68324 0.0339424 0)
(11.5375 -0.0849955 0)
(6.89624 0.127785 0)
(11.1027 0.0616767 0)
(6.35787 -0.00863519 0)
(10.4177 0.0229411 0)
(7.73663 -0.00945372 0)
(8.08605 -0.172817 0)
(10.0159 0.153685 0)
(7.34459 -0.00576717 0)
(7.80586 0.0210586 0)
(10.2342 0.193685 0)
(9.46745 -0.00755369 0)
(11.1922 0.105519 0)
(8.17213 -0.0995462 0)
(11.9233 0.267813 0)
(6.89568 -0.150419 0)
(12.6505 0.0479266 0)
(7.10041 0.0427268 0)
(12.3192 -0.093716 0)
(8.09387 0.0905721 0)
(11.853 0.0392773 0)
(7.6604 -0.0645465 0)
(12.3596 0.0746531 0)
(8.20222 0.136994 0)
(10.6152 -0.278055 0)
(10.5116 0.434712 0)
(9.08121 -0.201641 0)
(8.6701 -0.0383198 0)
(11.0302 0.359485 0)
(7.80708 -0.332436 0)
(10.7483 0.667654 0)
(8.9164 -0.0604624 0)
(12.1397 0.185151 0)
(7.47085 -0.075829 0)
(12.1774 0.234074 0)
(7.51552 -0.116807 0)
(12.3352 0.0473578 0)
(7.64521 0.0819655 0)
(11.7393 -0.279775 0)
(8.5751 0.181615 0)
(11.7976 -0.00991107 0)
(8.29013 -0.0245048 0)
(12.0606 0.0204546 0)
(9.32749 0.321947 0)
(9.04864 -0.453589 0)
(11.3087 0.263178 0)
(9.52022 0.236224 0)
(7.9617 -0.273867 0)
(12.5374 0.13049 0)
(7.18002 0.292251 0)
(11.0094 0.0315299 0)
(8.86915 -0.230002 0)
(12.072 0.340262 0)
(8.76734 -0.0369628 0)
(11.1374 0.202772 0)
(8.65763 -0.105161 0)
(11.6051 -0.0382086 0)
(8.63477 0.21624 0)
(11.296 -0.339579 0)
(9.26934 0.118443 0)
(11.4058 0.082398 0)
(8.83927 -0.122935 0)
(11.3631 -0.103211 0)
(10.331 0.669648 0)
(8.83275 -0.668766 0)
(11.1454 0.276663 0)
(10.2506 0.557132 0)
(8.27871 -0.746261 0)
(12.9882 0.35374 0)
(7.6894 0.261591 0)
(11.534 -0.204478 0)
(9.39398 -0.258553 0)
(11.0921 0.207757 0)
(10.0109 0.147297 0)
(10.0658 0.217783 0)
(9.76533 -0.172976 0)
(10.881 -0.0223174 0)
(9.23641 0.233053 0)
(10.6751 -0.491518 0)
(10.1054 0.18823 0)
(10.6376 0.0879114 0)
(9.54326 -0.0770255 0)
(10.8423 -0.227036 0)
(10.6504 0.786371 0)
(9.33441 -0.58647 0)
(10.8465 -0.0186152 0)
(10.9093 0.830619 0)
(9.3087 -0.860358 0)
(12.2868 0.192591 0)
(9.30127 0.70575 0)
(11.1717 -0.626085 0)
(9.86192 -0.308917 0)
(9.98067 0.204062 0)
(10.6224 0.223393 0)
(9.73082 0.176449 0)
(10.1431 -0.200483 0)
(10.5369 0.0149752 0)
(9.36078 0.300859 0)
(10.3523 -0.566796 0)
(10.2487 0.184899 0)
(9.97685 0.17043 0)
(10.1164 -0.168145 0)
(10.6489 -0.280415 0)
(10.2517 0.9275 0)
(9.97115 -0.625418 0)
(10.6616 -0.131028 0)
(10.7808 0.968694 0)
(10.0148 -1.00658 0)
(11.0693 0.256956 0)
(10.648 0.768109 0)
(10.5804 -0.705937 0)
(10.1379 -0.228638 0)
(9.33767 0.0566428 0)
(10.8332 0.228933 0)
(9.76199 0.258174 0)
(10.1019 -0.276969 0)
(10.4844 0.0739064 0)
(9.45007 0.337452 0)
(10.3172 -0.733146 0)
(10.2531 0.27488 0)
(9.73771 0.137013 0)
(10.3446 -0.278492 0)
(10.3877 -0.194815 0)
(9.80342 0.912106 0)
(10.2329 -0.631661 0)
(10.3922 -0.227714 0)
(10.4679 0.990004 0)
(10.3473 -0.902642 0)
(9.86872 0.0540189 0)
(11.3462 0.864355 0)
(10.2366 -0.636196 0)
(10.2534 -0.199964 0)
(9.2315 0.0327302 0)
(10.4849 0.198814 0)
(10.0828 0.261029 0)
(9.9714 -0.294572 0)
(10.362 0.0975346 0)
(9.88582 0.372416 0)
(10.2617 -0.761945 0)
(9.9716 0.338368 0)
(9.88797 0.132503 0)
(10.3616 -0.322479 0)
(9.97518 -0.104 0)
(9.90247 0.857798 0)
(10.4199 -0.635536 0)
(10.0092 -0.239133 0)
(10.1922 0.988707 0)
(10.4356 -0.827063 0)
(9.35506 -0.0421556 0)
(11.1285 0.835412 0)
(10.3333 -0.472989 0)
(10.1696 -0.132788 0)
(9.50677 -0.00560086 0)
(10.1311 0.108194 0)
(10.2876 0.292211 0)
(9.93429 -0.275792 0)
(10.1109 0.0586964 0)
(10.2014 0.409932 0)
(10.2451 -0.776124 0)
(9.69635 0.386481 0)
(10.3099 0.0869413 0)
(10.1505 -0.344947 0)
(9.7844 -0.0449248 0)
(10.1335 0.766893 0)
(10.5402 -0.586144 0)
(9.69473 -0.228541 0)
(10.2198 0.951909 0)
(10.4067 -0.741682 0)
(9.4775 -0.140131 0)
(10.4713 0.767683 0)
(10.764 -0.316172 0)
(10.1477 -0.131299 0)
(9.73789 0.00938334 0)
(9.90351 0.0970075 0)
(10.3091 0.238013 0)
(10.0098 -0.207229 0)
(9.91486 0.00906194 0)
(10.4413 0.372971 0)
(10.1998 -0.690957 0)
(9.56896 0.356297 0)
(10.5347 0.0504978 0)
(9.98484 -0.261202 0)
(9.70754 -0.0292508 0)
(10.2087 0.632292 0)
(10.6193 -0.480716 0)
(9.45297 -0.229159 0)
(10.3276 0.87342 0)
(10.3401 -0.675002 0)
(9.76887 -0.105451 0)
(9.90162 0.686961 0)
(11.0635 -0.192207 0)
(10.1481 -0.108974 0)
(9.79106 0.0225403 0)
(9.86509 0.0504415 0)
(10.3412 0.208271 0)
(10.0054 -0.151804 0)
(9.93439 -0.0547827 0)
(10.3785 0.371817 0)
(10.1925 -0.626814 0)
(9.54652 0.324904 0)
(10.5461 0.026294 0)
(9.99935 -0.228179 0)
(9.69888 -0.0302665 0)
(10.3026 0.521351 0)
(10.5595 -0.392387 0)
(9.42664 -0.217608 0)
(10.4132 0.803359 0)
(10.2613 -0.640502 0)
(10.0688 -0.0833111 0)
(9.49033 0.571942 0)
(11.2357 -0.0951831 0)
(10.1562 -0.114442 0)
(9.87494 0.0400765 0)
(9.82015 0.0392568 0)
(10.3136 0.149458 0)
(9.95624 -0.0864457 0)
(9.95881 -0.0895277 0)
(10.3268 0.335902 0)
(10.2223 -0.547087 0)
(9.63197 0.276314 0)
(10.5012 -0.0147752 0)
(10.065 -0.150169 0)
(9.66494 -0.0329411 0)
(10.4399 0.396852 0)
(10.457 -0.267015 0)
(9.48328 -0.247121 0)
(10.6261 0.715328 0)
(10.232 -0.619859 0)
(10.2042 0.0014924 0)
(9.65285 0.479133 0)
(10.9488 -0.107341 0)
(10.1963 -0.113382 0)
(9.75443 0.0649244 0)
(9.87682 0.0247944 0)
(10.2522 0.12103 0)
(10.0015 -0.0525212 0)
(9.99806 -0.13124 0)
(10.3058 0.316154 0)
(10.1269 -0.482434 0)
(9.74811 0.257518 0)
(10.2363 -0.0232058 0)
(10.2282 -0.110039 0)
(9.53254 -0.0509406 0)
(10.5026 0.318486 0)
(10.4066 -0.162521 0)
(9.45207 -0.282242 0)
(10.5605 0.673038 0)
(10.6567 -0.536416 0)
(9.64558 0.00773577 0)
(10.4097 0.452088 0)
(10.6111 -0.0655232 0)
(10.2015 -0.0986492 0)
(9.70933 0.0779508 0)
(10.0356 -0.0061961 0)
(10.1619 0.0691445 0)
(10.0556 -0.00303142 0)
(9.95088 -0.151178 0)
(10.3261 0.298185 0)
(9.95492 -0.417922 0)
(10.0336 0.224062 0)
(9.88268 -0.0724535 0)
(10.4861 -0.0523847 0)
(9.41504 -0.0447499 0)
(10.442 0.189938 0)
(10.2331 -0.0295017 0)
(9.84633 -0.283985 0)
(9.9939 0.498055 0)
(11.0713 -0.404435 0)
(9.25677 0.0393312 0)
(10.8059 0.316006 0)
(10.0833 -0.0716279 0)
(10.3463 -0.0942542 0)
(9.54842 0.0682555 0)
(10.1012 -0.00236005 0)
(10.0611 0.0591816 0)
(10.1315 0.0046024 0)
(9.85491 -0.16701 0)
(10.5395 0.276832 0)
(9.6747 -0.397687 0)
(10.3391 0.233934 0)
(9.69051 -0.0788685 0)
(10.5476 -0.0635471 0)
(9.38943 -0.00603778 0)
(10.67 0.127392 0)
(9.7599 -0.0394695 0)
(10.3454 -0.230942 0)
(9.76224 0.414013 0)
(10.8063 -0.383603 0)
(9.25614 0.0214543 0)
(10.8814 0.275752 0)
(9.66866 -0.112161 0)
(10.3284 -0.0704203 0)
(9.42837 0.100441 0)
(10.2743 -0.0538322 0)
(9.92525 0.0130928 0)
(10.2577 0.0553455 0)
(9.73199 -0.216398 0)
(10.5913 0.29975 0)
(9.65244 -0.343378 0)
(10.3549 0.182418 0)
(9.82711 -0.0664314 0)
(10.6097 -0.0208869 0)
(9.42758 -0.0514939 0)
(10.7519 0.122886 0)
(9.95181 0.014949 0)
(10.1681 -0.247782 0)
(10.0493 0.349616 0)
(10.5621 -0.256156 0)
(9.55983 -0.0143251 0)
(10.4168 0.218463 0)
(10.4101 -0.0675674 0)
(10.1522 -0.0449102 0)
(9.67577 0.0467691 0)
(10.1569 -0.0323245 0)
(9.9913 0.00665461 0)
(10.1788 0.0452601 0)
(9.90376 -0.190684 0)
(10.3081 0.229893 0)
(10.1325 -0.290854 0)
(10.054 0.158325 0)
(10.2914 -0.0942589 0)
(10.3022 -0.00983583 0)
(10.1451 -0.0260245 0)
(10.0707 0.0346047 0)
(10.878 0.0441561 0)
(9.51887 -0.200693 0)
(10.757 0.287304 0)
(9.94311 -0.235728 0)
(10.5573 0.0282288 0)
(9.26355 0.121608 0)
(11.7039 -0.0656027 0)
(9.84337 -0.0308359 0)
(10.0566 0.0688076 0)
(9.87427 -0.0591071 0)
(10.4277 -0.0363858 0)
(9.68396 0.0780948 0)
(10.5428 -0.204961 0)
(9.5788 0.218514 0)
(10.87 -0.248684 0)
(9.19592 0.113143 0)
(11.2345 -0.0850476 0)
(9.18603 -0.00747178 0)
(11.2358 -0.023113 0)
(8.95512 0.0307272 0)
(11.8384 0.0580248 0)
(8.43882 -0.167011 0)
(11.7842 0.216091 0)
(9.03417 -0.174731 0)
(11.4792 0.0826808 0)
(8.54504 -0.0328667 0)
(12.4409 0.0404497 0)
(9.5903 -0.024934 0)
(10.4282 0.00666057 0)
(9.68181 -0.0438074 0)
(10.6379 -0.00686614 0)
(9.44221 0.0198768 0)
(10.8382 -0.112462 0)
(9.03408 0.0888991 0)
(11.3856 -0.134658 0)
(8.31328 0.0291 0)
(11.8025 -0.0585405 0)
(8.12015 -0.0133804 0)
(11.7928 -0.00648507 0)
(7.98007 -0.0351722 0)
(12.2612 0.078829 0)
(7.71664 -0.108801 0)
(12.2111 0.0873316 0)
(8.57363 -0.114941 0)
(11.4631 0.103235 0)
(8.99787 -0.0986011 0)
(11.6614 0.0157127 0)
(9.84746 -0.0243305 0)
(9.88229 0.0232159 0)
(9.85394 -0.0357695 0)
(9.7808 -0.0301561 0)
(9.43459 0.0271237 0)
(9.95966 -0.0684206 0)
(8.81223 0.0390262 0)
(10.219 -0.0568723 0)
(8.15959 -0.0100768 0)
(10.0952 -0.0277515 0)
(7.83665 0.00149908 0)
(10.0897 -0.0358345 0)
(7.3981 0.0121954 0)
(10.3204 0.016363 0)
(7.47445 -0.0611334 0)
(9.84946 -0.00453192 0)
(7.53112 0.0252479 0)
(9.63257 -0.0446263 0)
(7.69416 -0.0719146 0)
(8.65344 0.109756 0)
(1.50451 0.677255 0)
(9.1971 -0.1581 0)
(4.60232 0.983478 0)
(7.6776 0.974457 0)
(8.59978 1.30806 0)
(10.0958 -0.936955 0)
(9.46108 -0.689829 0)
(8.09931 -1.07785 0)
(10.8848 -4.34378 0)
(10.718 -4.0308 0)
(8.80292 -4.0574 0)
(9.27188 -4.10356 0)
(9.9142 -2.30938 0)
(8.98276 -0.896913 0)
(7.57451 -0.388432 0)
(6.8843 -0.21678 0)
(6.38973 -0.17557 0)
(6.13033 -0.12398 0)
(6.02531 -0.0586248 0)
(5.76811 -0.0741821 0)
(5.48218 -0.116365 0)
(5.37072 -0.0983557 0)
(5.36167 -0.0332998 0)
(5.33271 0.0290875 0)
(5.29038 0.0788589 0)
(5.28777 0.105353 0)
(5.3296 0.0960264 0)
(5.37444 0.0542029 0)
(5.38476 -0.00289626 0)
(5.35707 -0.0569634 0)
(5.31023 -0.0953216 0)
(5.26197 -0.113218 0)
(5.22109 -0.112301 0)
(5.19004 -0.0981441 0)
(5.16806 -0.0776996 0)
(5.15324 -0.0568605 0)
(5.14362 -0.0391292 0)
(5.13759 -0.0256924 0)
(5.13394 -0.0162872 0)
(5.13182 -0.0100612 0)
(5.13063 -0.00609832 0)
(5.12999 -0.00364522 0)
(5.12965 -0.00215604 0)
(5.12948 -0.00126496 0)
(5.1294 -0.000737218 0)
(5.12936 -0.000427186 0)
(5.12934 -0.000246409 0)
(5.12933 -0.000141358 0)
(5.12932 -8.08543e-05 0)
(5.12932 -4.6054e-05 0)
(5.12932 -2.60468e-05 0)
(5.12932 -1.48225e-05 0)
(5.12932 -8.26625e-06 0)
(5.12932 -4.61941e-06 0)
(5.12932 -2.67442e-06 0)
(5.12932 -1.3728e-06 0)
(5.12932 -8.26005e-07 0)
(5.12932 -4.8619e-07 0)
(5.12932 -1.79594e-07 0)
(5.12932 -1.81716e-07 0)
(5.12932 -9.24297e-08 0)
(5.12932 3.30866e-09 0)
(5.12932 -7.36619e-08 0)
(5.12932 -2.75811e-08 0)
(5.12932 6.47873e-08 0)
(5.12932 -8.50358e-08 0)
(5.12932 3.07784e-08 0)
(5.12932 2.85272e-08 0)
(5.12932 -5.3356e-08 0)
(5.12932 -1.44051e-08 0)
(5.12932 8.69919e-08 0)
(5.12932 -7.3583e-08 0)
(5.12931 -1.28465e-08 0)
(5.12932 6.82666e-08 0)
(5.12931 -3.04859e-09 0)
(5.12932 -6.03506e-08 0)
(5.12931 4.29889e-08 0)
(5.12932 5.53611e-08 0)
(5.12931 -6.80511e-08 0)
(5.12932 2.75714e-09 0)
(5.12931 5.18248e-08 0)
(5.12932 1.63838e-09 0)
(5.12931 -3.81267e-08 0)
(5.12932 -5.54321e-09 0)
(5.12931 5.50227e-08 0)
(5.12932 -1.02703e-08 0)
(5.12932 -3.43403e-08 0)
(5.12931 -7.12989e-09 0)
(5.12932 3.12718e-08 0)
(5.12931 4.89469e-08 0)
(5.12932 -7.75961e-08 0)
(5.12932 -2.10065e-08 0)
(5.12931 7.82658e-08 0)
(5.12932 -8.89312e-09 0)
(5.12931 -1.54003e-08 0)
(5.12932 -6.10019e-08 0)
(5.12932 -2.89971e-08 0)
(5.12931 5.67546e-08 0)
(5.12932 -5.18534e-09 0)
(5.12932 -3.40304e-08 0)
(8.22619 1.01703 0)
(10.231 -0.210166 0)
(8.87572 1.35422 0)
(7.86889 1.04109 0)
(9.80014 1.14815 0)
(10.9026 -0.824856 0)
(9.23208 -0.565164 0)
(9.26064 -0.864928 0)
(11.8947 -4.24056 0)
(11.1169 -3.76448 0)
(9.26396 -3.86369 0)
(10.38 -4.03884 0)
(10.3757 -2.15176 0)
(9.09604 -0.662353 0)
(7.63557 -0.19885 0)
(6.81885 -0.0590712 0)
(6.18832 -0.0411776 0)
(5.83628 -0.0737345 0)
(5.85671 -0.0505637 0)
(5.80312 -0.0322058 0)
(5.55621 -0.0606713 0)
(5.37333 -0.074542 0)
(5.33851 -0.0396426 0)
(5.33583 0.0257038 0)
(5.32133 0.085794 0)
(5.32618 0.115842 0)
(5.35113 0.100969 0)
(5.36311 0.0489119 0)
(5.34722 -0.0159652 0)
(5.31447 -0.0690788 0)
(5.27851 -0.102911 0)
(5.24557 -0.11633 0)
(5.21702 -0.112626 0)
(5.19294 -0.0972532 0)
(5.17339 -0.076528 0)
(5.15835 -0.0558214 0)
(5.14752 -0.0383443 0)
(5.14022 -0.0251523 0)
(5.13559 -0.0159389 0)
(5.13281 -0.00984756 0)
(5.13121 -0.00597292 0)
(5.13032 -0.00357427 0)
(5.12985 -0.00211713 0)
(5.12959 -0.00124409 0)
(5.12946 -0.000726267 0)
(5.12939 -0.000421521 0)
(5.12936 -0.00024343 0)
(5.12934 -0.000139828 0)
(5.12933 -8.00109e-05 0)
(5.12932 -4.56326e-05 0)
(5.12932 -2.5882e-05 0)
(5.12932 -1.46424e-05 0)
(5.12932 -8.20181e-06 0)
(5.12932 -4.59882e-06 0)
(5.12932 -2.59522e-06 0)
(5.12932 -1.3802e-06 0)
(5.12932 -8.01049e-07 0)
(5.12931 -4.73328e-07 0)
(5.12932 -2.45403e-07 0)
(5.12932 -1.57014e-07 0)
(5.12932 -5.33295e-08 0)
(5.12932 -1.87639e-08 0)
(5.12932 -5.71194e-08 0)
(5.12932 -3.1459e-08 0)
(5.12932 2.1803e-08 0)
(5.12932 -1.91298e-08 0)
(5.12931 7.84997e-09 0)
(5.12932 -1.72792e-08 0)
(5.12932 -3.05819e-08 0)
(5.12932 2.58564e-09 0)
(5.12932 4.96781e-08 0)
(5.12932 -2.22085e-08 0)
(5.12931 -2.44927e-08 0)
(5.12932 6.33689e-09 0)
(5.12931 1.38523e-08 0)
(5.12932 1.29017e-08 0)
(5.12931 2.81946e-08 0)
(5.12932 2.92595e-08 0)
(5.12931 -3.98207e-08 0)
(5.12932 5.94516e-09 0)
(5.12931 2.43977e-08 0)
(5.12933 4.75579e-09 0)
(5.12931 2.11334e-08 0)
(5.12932 -3.06751e-08 0)
(5.12931 3.69948e-08 0)
(5.12932 -6.43113e-08 0)
(5.12932 4.01739e-09 0)
(5.12931 3.57493e-08 0)
(5.12932 -3.64014e-08 0)
(5.12931 1.13689e-07 0)
(5.12932 -1.2166e-07 0)
(5.12932 1.27605e-08 0)
(5.12931 1.11647e-07 0)
(5.12932 -1.13071e-07 0)
(5.12931 8.50275e-08 0)
(5.12931 -4.27755e-08 0)
(5.12932 -1.23e-07 0)
(5.12931 8.5838e-08 0)
(5.12932 -4.91626e-09 0)
(5.12932 -4.67292e-08 0)
(9.65935 1.00398 0)
(10.5934 -0.205758 0)
(11.678 1.27028 0)
(9.62314 1.19453 0)
(11.4354 0.940527 0)
(11.6803 -0.837588 0)
(10.3939 -0.422426 0)
(10.6808 -1.20752 0)
(12.1183 -4.64899 0)
(11.0936 -3.63753 0)
(9.49524 -3.95286 0)
(10.9211 -4.18222 0)
(11.2318 -1.97544 0)
(9.51775 -0.439382 0)
(7.62136 -0.0125869 0)
(6.7655 0.0562226 0)
(6.29445 0.0187105 0)
(5.90799 -0.0560775 0)
(5.87144 -0.0534528 0)
(5.90179 -0.0290262 0)
(5.69118 -0.0432767 0)
(5.41904 -0.0561537 0)
(5.31764 -0.0220366 0)
(5.34513 0.0374037 0)
(5.37999 0.0824805 0)
(5.38749 0.0972819 0)
(5.37747 0.0843958 0)
(5.35861 0.0522188 0)
(5.33423 0.0102081 0)
(5.3057 -0.036902 0)
(5.2756 -0.0746504 0)
(5.24694 -0.0955179 0)
(5.22098 -0.0984055 0)
(5.19817 -0.0876917 0)
(5.17874 -0.0701024 0)
(5.16297 -0.0515639 0)
(5.15103 -0.0356172 0)
(5.14264 -0.0234826 0)
(5.13715 -0.0149632 0)
(5.13377 -0.00930139 0)
(5.13178 -0.00567818 0)
(5.13066 -0.00341974 0)
(5.13004 -0.0020377 0)
(5.12971 -0.00120366 0)
(5.12953 -0.000705807 0)
(5.12943 -0.000411151 0)
(5.12938 -0.000238065 0)
(5.12935 -0.00013701 0)
(5.12933 -7.84883e-05 0)
(5.12933 -4.48716e-05 0)
(5.12932 -2.54957e-05 0)
(5.12932 -1.4351e-05 0)
(5.12932 -8.05411e-06 0)
(5.12932 -4.54741e-06 0)
(5.12932 -2.52058e-06 0)
(5.12932 -1.34136e-06 0)
(5.12932 -7.69592e-07 0)
(5.12932 -4.97695e-07 0)
(5.12932 -3.15542e-07 0)
(5.12932 -1.33778e-07 0)
(5.12932 7.95869e-09 0)
(5.12932 -6.23482e-09 0)
(5.12932 -8.02441e-08 0)
(5.12932 -6.22348e-08 0)
(5.12932 1.82193e-09 0)
(5.12932 3.35168e-08 0)
(5.12932 -1.97415e-08 0)
(5.12932 -7.19611e-08 0)
(5.12932 -4.061e-08 0)
(5.12932 4.23795e-08 0)
(5.12932 5.69853e-08 0)
(5.12932 1.56195e-09 0)
(5.12931 -7.88951e-08 0)
(5.12932 -4.62094e-08 0)
(5.12931 3.8721e-08 0)
(5.12932 1.05524e-07 0)
(5.12931 4.8565e-08 0)
(5.12932 9.84613e-09 0)
(5.12931 -4.80148e-08 0)
(5.12932 -3.99636e-09 0)
(5.12931 2.16511e-08 0)
(5.12933 3.95003e-08 0)
(5.12931 7.36272e-08 0)
(5.12932 -7.24557e-08 0)
(5.12931 8.32256e-09 0)
(5.12932 -1.47017e-07 0)
(5.12932 4.31702e-08 0)
(5.12931 8.85377e-08 0)
(5.12932 -6.67503e-08 0)
(5.12931 1.94595e-07 0)
(5.12932 -2.05727e-07 0)
(5.12932 4.78734e-08 0)
(5.12931 1.59595e-07 0)
(5.12932 -2.06533e-07 0)
(5.12931 2.0028e-07 0)
(5.12932 -5.19825e-08 0)
(5.12932 -2.25266e-07 0)
(5.12931 1.15433e-07 0)
(5.12932 -1.22439e-08 0)
(5.12932 -6.24148e-08 0)
(10.1739 1.16468 0)
(10.8495 -0.351382 0)
(11.5286 1.12158 0)
(10.5594 1.21727 0)
(12.0165 0.832913 0)
(12.5317 -0.773688 0)
(10.8809 -0.44825 0)
(12.0779 -1.11992 0)
(12.7584 -4.36086 0)
(10.9055 -3.26936 0)
(10.0671 -4.01284 0)
(11.3351 -4.37967 0)
(11.942 -1.75644 0)
(9.90765 -0.0375836 0)
(7.83771 0.215239 0)
(6.97644 0.187249 0)
(6.4611 0.145456 0)
(5.90138 0.0161981 0)
(5.72947 -0.0445473 0)
(5.82051 0.0108379 0)
(5.73859 0.033356 0)
(5.48842 -0.0107885 0)
(5.31249 -0.0308015 0)
(5.29488 0.0103075 0)
(5.35404 0.0765784 0)
(5.40959 0.119211 0)
(5.43467 0.111715 0)
(5.42674 0.0596007 0)
(5.39323 -0.0101662 0)
(5.34847 -0.0688846 0)
(5.30418 -0.104442 0)
(5.26528 -0.116927 0)
(5.23309 -0.111474 0)
(5.20668 -0.0947156 0)
(5.18493 -0.0733771 0)
(5.16742 -0.0527752 0)
(5.1541 -0.0358439 0)
(5.14468 -0.0233307 0)
(5.13845 -0.0147256 0)
(5.13457 -0.00909311 0)
(5.13227 -0.00552768 0)
(5.13095 -0.00332154 0)
(5.13021 -0.00197758 0)
(5.12981 -0.00116835 0)
(5.12959 -0.000685576 0)
(5.12946 -0.000399708 0)
(5.1294 -0.00023166 0)
(5.12936 -0.000133467 0)
(5.12934 -7.6523e-05 0)
(5.12933 -4.37467e-05 0)
(5.12932 -2.48675e-05 0)
(5.12932 -1.40194e-05 0)
(5.12932 -7.87199e-06 0)
(5.12932 -4.43666e-06 0)
(5.12932 -2.45829e-06 0)
(5.12932 -1.33444e-06 0)
(5.12932 -7.66407e-07 0)
(5.12932 -4.62779e-07 0)
(5.12932 -2.78736e-07 0)
(5.12932 -1.38071e-07 0)
(5.12932 -2.20748e-08 0)
(5.12932 -1.96523e-08 0)
(5.12932 -5.7209e-08 0)
(5.12932 -3.69679e-08 0)
(5.12932 -5.38784e-09 0)
(5.12932 1.61389e-08 0)
(5.12932 -9.08378e-09 0)
(5.12932 -4.701e-08 0)
(5.12932 -2.59275e-08 0)
(5.12932 2.41452e-08 0)
(5.12932 3.13732e-08 0)
(5.12932 5.3355e-09 0)
(5.12931 -4.64972e-08 0)
(5.12932 -2.31732e-08 0)
(5.12931 2.27578e-08 0)
(5.12932 7.115e-08 0)
(5.12931 2.09378e-08 0)
(5.12932 2.0148e-08 0)
(5.12931 -2.94403e-08 0)
(5.12932 7.77427e-09 0)
(5.12931 1.12045e-08 0)
(5.12933 1.03055e-08 0)
(5.12931 7.29247e-08 0)
(5.12932 -8.21914e-08 0)
(5.12931 6.23244e-08 0)
(5.12932 -1.50783e-07 0)
(5.12932 5.51319e-08 0)
(5.12931 8.16543e-08 0)
(5.12932 -1.31926e-07 0)
(5.12931 2.57432e-07 0)
(5.12932 -2.51068e-07 0)
(5.12932 7.11829e-08 0)
(5.12931 2.05244e-07 0)
(5.12932 -3.06802e-07 0)
(5.12931 2.52185e-07 0)
(5.12932 -4.55552e-08 0)
(5.12932 -2.71129e-07 0)
(5.12931 1.81729e-07 0)
(5.12932 -3.60884e-09 0)
(5.12932 -8.88704e-08 0)
(10.5122 1.09689 0)
(11.2346 -0.251604 0)
(11.0297 1.01828 0)
(10.3302 1.18138 0)
(12.1638 0.728598 0)
(13.1044 -0.793706 0)
(11.4955 -0.372409 0)
(13.0949 -1.2543 0)
(12.8254 -4.3892 0)
(11.0064 -3.26806 0)
(10.9024 -4.16102 0)
(11.3371 -4.51883 0)
(12.346 -1.69969 0)
(10.5678 0.236225 0)
(7.90723 0.475204 0)
(6.65367 0.330795 0)
(6.30165 0.227149 0)
(5.85766 0.0703427 0)
(5.57098 -0.0523319 0)
(5.67511 -0.0356423 0)
(5.77143 0.0158845 0)
(5.63905 0.0235033 0)
(5.44729 0.0174683 0)
(5.3673 0.0367162 0)
(5.38795 0.0663224 0)
(5.42893 0.0819953 0)
(5.44226 0.0773703 0)
(5.42647 0.0569375 0)
(5.3977 0.0257767 0)
(5.36231 -0.011809 0)
(5.32148 -0.0479122 0)
(5.28058 -0.0723103 0)
(5.24474 -0.080458 0)
(5.21541 -0.0744706 0)
(5.19159 -0.060542 0)
(5.17239 -0.0448041 0)
(5.15759 -0.0310229 0)
(5.14697 -0.0205106 0)
(5.13988 -0.0131335 0)
(5.13543 -0.00822327 0)
(5.13278 -0.00506507 0)
(5.13125 -0.00308023 0)
(5.13039 -0.00185305 0)
(5.12991 -0.00110422 0)
(5.12964 -0.00065239 0)
(5.1295 -0.000382363 0)
(5.12942 -0.000222463 0)
(5.12937 -0.000128525 0)
(5.12935 -7.38325e-05 0)
(5.12933 -4.22857e-05 0)
(5.12933 -2.40655e-05 0)
(5.12932 -1.35455e-05 0)
(5.12932 -7.61691e-06 0)
(5.12932 -4.30486e-06 0)
(5.12932 -2.3767e-06 0)
(5.12932 -1.27952e-06 0)
(5.12932 -7.38581e-07 0)
(5.12932 -4.60339e-07 0)
(5.12932 -2.89286e-07 0)
(5.12932 -1.278e-07 0)
(5.12932 5.64847e-09 0)
(5.12932 -1.01942e-08 0)
(5.12932 -6.63241e-08 0)
(5.12932 -5.0187e-08 0)
(5.12932 -7.12657e-09 0)
(5.12932 2.58706e-08 0)
(5.12932 -1.83738e-08 0)
(5.12932 -6.93936e-08 0)
(5.12932 -3.16377e-08 0)
(5.12932 3.47081e-08 0)
(5.12932 4.24999e-08 0)
(5.12932 4.85355e-09 0)
(5.12931 -6.8777e-08 0)
(5.12932 -3.81795e-08 0)
(5.12931 3.24748e-08 0)
(5.12932 9.8766e-08 0)
(5.12931 3.16554e-08 0)
(5.12932 2.12922e-08 0)
(5.12931 -4.40543e-08 0)
(5.12932 6.30824e-09 0)
(5.12931 1.299e-08 0)
(5.12933 1.9831e-08 0)
(5.12931 9.56228e-08 0)
(5.12932 -1.13214e-07 0)
(5.12931 7.0915e-08 0)
(5.12932 -2.02939e-07 0)
(5.12932 7.91337e-08 0)
(5.12931 1.01347e-07 0)
(5.12932 -1.65089e-07 0)
(5.12931 3.32913e-07 0)
(5.12932 -3.32433e-07 0)
(5.12932 1.00211e-07 0)
(5.12931 2.49069e-07 0)
(5.12932 -3.92141e-07 0)
(5.12931 3.40325e-07 0)
(5.12932 -6.17302e-08 0)
(5.12932 -3.39904e-07 0)
(5.12931 2.30159e-07 0)
(5.12932 -1.01202e-08 0)
(5.12932 -1.11102e-07 0)
(10.4826 1.1333 0)
(11.3521 -0.153972 0)
(10.7501 0.948936 0)
(10.5133 1.12092 0)
(11.8455 0.448877 0)
(13.7279 -0.830495 0)
(11.7838 -0.370384 0)
(13.7649 -1.33204 0)
(12.4863 -3.96956 0)
(10.6115 -2.88319 0)
(11.4341 -4.17069 0)
(11.9306 -4.46951 0)
(12.4443 -1.40988 0)
(10.778 0.690919 0)
(8.36318 0.810002 0)
(6.99662 0.500581 0)
(6.50546 0.336165 0)
(6.07026 0.162862 0)
(5.61957 -0.00558471 0)
(5.54764 -0.0169811 0)
(5.688 0.047933 0)
(5.6549 0.0471767 0)
(5.47921 0.0130319 0)
(5.3797 0.0147734 0)
(5.40866 0.0620411 0)
(5.46519 0.109615 0)
(5.48922 0.114184 0)
(5.49663 0.0685969 0)
(5.49483 -0.00193903 0)
(5.46599 -0.0663536 0)
(5.40624 -0.104935 0)
(5.33476 -0.117085 0)
(5.2727 -0.110108 0)
(5.22752 -0.0919426 0)
(5.19639 -0.0698117 0)
(5.17452 -0.049155 0)
(5.1589 -0.0327443 0)
(5.14797 -0.0209997 0)
(5.14065 -0.0131368 0)
(5.13599 -0.0080871 0)
(5.13316 -0.0049239 0)
(5.13149 -0.00297249 0)
(5.13054 -0.00178067 0)
(5.13 -0.0010588 0)
(5.1297 -0.000624985 0)
(5.12953 -0.000366205 0)
(5.12944 -0.000213102 0)
(5.12938 -0.00012318 0)
(5.12935 -7.07923e-05 0)
(5.12934 -4.05352e-05 0)
(5.12933 -2.30598e-05 0)
(5.12932 -1.30006e-05 0)
(5.12932 -7.31505e-06 0)
(5.12932 -4.13307e-06 0)
(5.12932 -2.28871e-06 0)
(5.12932 -1.24972e-06 0)
(5.12932 -7.24238e-07 0)
(5.12932 -4.24169e-07 0)
(5.12932 -2.51189e-07 0)
(5.12932 -1.29416e-07 0)
(5.12932 -2.10649e-08 0)
(5.12932 -1.8687e-08 0)
(5.12932 -5.20895e-08 0)
(5.12932 -3.20973e-08 0)
(5.12932 -9.80885e-09 0)
(5.12932 8.8396e-09 0)
(5.12932 -9.97281e-09 0)
(5.12932 -4.41834e-08 0)
(5.12932 -2.38506e-08 0)
(5.12932 2.32532e-08 0)
(5.12932 2.53106e-08 0)
(5.12932 3.37266e-09 0)
(5.12931 -4.40949e-08 0)
(5.12932 -1.36074e-08 0)
(5.12931 1.87581e-08 0)
(5.12932 7.09202e-08 0)
(5.12931 9.63019e-09 0)
(5.12932 3.257e-08 0)
(5.12931 -3.41802e-08 0)
(5.12932 1.97168e-08 0)
(5.12931 4.93252e-09 0)
(5.12933 -7.19632e-10 0)
(5.12931 9.57751e-08 0)
(5.12932 -1.27556e-07 0)
(5.12931 1.22991e-07 0)
(5.12932 -2.13543e-07 0)
(5.12932 9.67967e-08 0)
(5.12931 9.05469e-08 0)
(5.12932 -2.16989e-07 0)
(5.12931 3.9563e-07 0)
(5.12932 -3.88631e-07 0)
(5.12932 1.36139e-07 0)
(5.12931 2.83552e-07 0)
(5.12932 -4.85384e-07 0)
(5.12931 3.99528e-07 0)
(5.12932 -6.73923e-08 0)
(5.12932 -3.81084e-07 0)
(5.12931 2.9419e-07 0)
(5.12932 -7.25408e-09 0)
(5.12932 -1.35609e-07 0)
(9.66977 1.02723 0)
(11.5021 -0.0693485 0)
(10.219 0.927011 0)
(11.0078 0.989889 0)
(11.342 0.293232 0)
(13.7866 -0.97422 0)
(11.0885 -0.340748 0)
(13.945 -1.32689 0)
(11.4756 -3.8142 0)
(10.1761 -3.01318 0)
(11.8425 -4.6404 0)
(12.029 -4.66927 0)
(12.5399 -1.29772 0)
(10.8162 0.947486 0)
(8.53897 1.09121 0)
(7.19486 0.689544 0)
(6.67025 0.406332 0)
(6.35355 0.225448 0)
(5.87173 0.0369382 0)
(5.53807 -0.0518798 0)
(5.61549 -0.00517145 0)
(5.78137 0.0647891 0)
(5.70643 0.0753463 0)
(5.47261 0.0578403 0)
(5.32449 0.0566615 0)
(5.3424 0.0713042 0)
(5.47247 0.0742548 0)
(5.63405 0.0572358 0)
(5.73943 0.0336048 0)
(5.73087 0.0125987 0)
(5.6247 -0.0118393 0)
(5.4856 -0.0366819 0)
(5.36521 -0.052854 0)
(5.27976 -0.0556862 0)
(5.22398 -0.0482919 0)
(5.18827 -0.0367875 0)
(5.16543 -0.0257641 0)
(5.151 -0.0171181 0)
(5.14207 -0.0110115 0)
(5.1367 -0.00694212 0)
(5.13353 -0.00431632 0)
(5.13171 -0.00265391 0)
(5.13067 -0.00161475 0)
(5.13008 -0.000972412 0)
(5.12975 -0.000579747 0)
(5.12956 -0.000342266 0)
(5.12945 -0.000200276 0)
(5.12939 -0.000116221 0)
(5.12936 -6.69743e-05 0)
(5.12934 -3.84244e-05 0)
(5.12933 -2.18877e-05 0)
(5.12932 -1.23337e-05 0)
(5.12932 -6.95304e-06 0)
(5.12932 -3.9424e-06 0)
(5.12932 -2.1766e-06 0)
(5.12932 -1.18216e-06 0)
(5.12932 -6.82719e-07 0)
(5.12932 -4.07331e-07 0)
(5.12932 -2.48682e-07 0)
(5.12932 -1.16787e-07 0)
(5.12932 4.26198e-12 0)
(5.12932 -1.00684e-08 0)
(5.12932 -5.59228e-08 0)
(5.12932 -3.93996e-08 0)
(5.12932 -1.11418e-08 0)
(5.12932 1.45339e-08 0)
(5.12932 -1.55099e-08 0)
(5.12932 -5.8111e-08 0)
(5.12932 -2.76086e-08 0)
(5.12932 2.98375e-08 0)
(5.12932 3.09394e-08 0)
(5.12932 3.61924e-09 0)
(5.12931 -5.69221e-08 0)
(5.12932 -2.38686e-08 0)
(5.12931 2.18198e-08 0)
(5.12932 8.79421e-08 0)
(5.12931 1.46848e-08 0)
(5.12932 3.55446e-08 0)
(5.12931 -4.36909e-08 0)
(5.12932 1.90718e-08 0)
(5.12931 3.18923e-09 0)
(5.12933 4.8693e-09 0)
(5.12931 1.1318e-07 0)
(5.12932 -1.52875e-07 0)
(5.12931 1.40892e-07 0)
(5.12932 -2.62271e-07 0)
(5.12932 1.26338e-07 0)
(5.12931 9.47209e-08 0)
(5.12932 -2.46551e-07 0)
(5.12931 4.6819e-07 0)
(5.12932 -4.71579e-07 0)
(5.12932 1.77256e-07 0)
(5.12931 3.0958e-07 0)
(5.12932 -5.63417e-07 0)
(5.12931 4.88613e-07 0)
(5.12932 -8.98969e-08 0)
(5.12932 -4.34164e-07 0)
(5.12931 3.44058e-07 0)
(5.12932 -1.71734e-08 0)
(5.12932 -1.57346e-07 0)
(9.1657 0.833985 0)
(11.5121 -0.0416732 0)
(9.92051 0.826021 0)
(11.5466 0.890436 0)
(10.8226 0.100081 0)
(13.2878 -0.961891 0)
(9.67104 -0.289731 0)
(13.7767 -1.46954 0)
(10.8843 -3.41312 0)
(10.2073 -2.93185 0)
(12.7551 -4.75991 0)
(11.8085 -4.57726 0)
(12.526 -1.04462 0)
(10.8741 1.3077 0)
(8.48928 1.37829 0)
(7.03701 0.889862 0)
(6.38098 0.532588 0)
(6.14704 0.307352 0)
(5.87322 0.133032 0)
(5.54036 0.0346367 0)
(5.41991 0.0147964 0)
(5.55519 0.029308 0)
(5.71344 0.0548321 0)
(5.70378 0.0726648 0)
(5.56472 0.0819258 0)
(5.44573 0.0830158 0)
(5.40377 0.0633316 0)
(5.39962 0.0236178 0)
(5.38978 -0.0195302 0)
(5.36239 -0.0545708 0)
(5.32503 -0.0762502 0)
(5.28731 -0.0864323 0)
(5.2541 -0.0857292 0)
(5.22585 -0.0749115 0)
(5.20146 -0.058344 0)
(5.1806 -0.0414298 0)
(5.16377 -0.0275857 0)
(5.15128 -0.0176485 0)
(5.14273 -0.0110396 0)
(5.13724 -0.0068209 0)
(5.1339 -0.00418082 0)
(5.13193 -0.00254498 0)
(5.1308 -0.00153772 0)
(5.13016 -0.000921596 0)
(5.12979 -0.000547662 0)
(5.12959 -0.000322624 0)
(5.12947 -0.000188545 0)
(5.1294 -0.000109355 0)
(5.12937 -6.30007e-05 0)
(5.12934 -3.61201e-05 0)
(5.12933 -2.0557e-05 0)
(5.12932 -1.15972e-05 0)
(5.12932 -6.54517e-06 0)
(5.12932 -3.71338e-06 0)
(5.12932 -2.0575e-06 0)
(5.12932 -1.12775e-06 0)
(5.12932 -6.53593e-07 0)
(5.12932 -3.69305e-07 0)
(5.12932 -2.13977e-07 0)
(5.12932 -1.14288e-07 0)
(5.12932 -1.82122e-08 0)
(5.12932 -1.70007e-08 0)
(5.12932 -4.70081e-08 0)
(5.12932 -2.74668e-08 0)
(5.12932 -1.22843e-08 0)
(5.12932 2.50689e-09 0)
(5.12932 -1.04264e-08 0)
(5.12932 -3.97893e-08 0)
(5.12932 -2.16455e-08 0)
(5.12932 2.27455e-08 0)
(5.12932 1.93942e-08 0)
(5.12932 1.51187e-09 0)
(5.12931 -4.00055e-08 0)
(5.12932 -4.3079e-09 0)
(5.12931 1.21728e-08 0)
(5.12932 7.01442e-08 0)
(5.12931 -2.71189e-09 0)
(5.12932 4.41801e-08 0)
(5.12931 -4.07014e-08 0)
(5.12932 3.19377e-08 0)
(5.12931 -6.47584e-09 0)
(5.12933 -7.63299e-09 0)
(5.12931 1.13332e-07 0)
(5.12932 -1.69658e-07 0)
(5.12931 1.86364e-07 0)
(5.12932 -2.81977e-07 0)
(5.12932 1.55142e-07 0)
(5.12931 7.72365e-08 0)
(5.12932 -2.84132e-07 0)
(5.12931 5.26229e-07 0)
(5.12932 -5.37675e-07 0)
(5.12932 2.29303e-07 0)
(5.12931 3.2465e-07 0)
(5.12932 -6.43697e-07 0)
(5.12931 5.54899e-07 0)
(5.12932 -1.11289e-07 0)
(5.12932 -4.66393e-07 0)
(5.12931 4.03141e-07 0)
(5.12932 -1.93155e-08 0)
(5.12932 -1.78605e-07 0)
(8.93717 0.620812 0)
(11.7199 0.00825395 0)
(9.73868 0.66537 0)
(12.1038 0.790594 0)
(10.266 0.11596 0)
(12.8477 -0.894955 0)
(8.97344 -0.348395 0)
(13.5508 -1.59742 0)
(10.4822 -3.04656 0)
(10.3696 -3.33113 0)
(12.8941 -5.27495 0)
(11.3703 -4.56902 0)
(11.529 -0.875644 0)
(10.6229 1.58744 0)
(8.39851 1.65363 0)
(7.06042 1.09761 0)
(6.70743 0.601059 0)
(6.3878 0.33338 0)
(5.89198 0.154948 0)
(5.51458 0.0340538 0)
(5.44376 -0.00790148 0)
(5.57622 0.0174622 0)
(5.64712 0.064973 0)
(5.59467 0.0959479 0)
(5.52949 0.102552 0)
(5.51324 0.0958847 0)
(5.54588 0.0788155 0)
(5.60919 0.0560672 0)
(5.66338 0.039482 0)
(5.66194 0.0284583 0)
(5.59218 0.0104084 0)
(5.48322 -0.0142995 0)
(5.37499 -0.0342361 0)
(5.28993 -0.0415962 0)
(5.23092 -0.0379792 0)
(5.19234 -0.0294157 0)
(5.16781 -0.0206112 0)
(5.15251 -0.0136219 0)
(5.14312 -0.00873713 0)
(5.13745 -0.00552856 0)
(5.13406 -0.00347208 0)
(5.13207 -0.00216454 0)
(5.1309 -0.00133654 0)
(5.13023 -0.000815858 0)
(5.12984 -0.00049194 0)
(5.12961 -0.000292991 0)
(5.12949 -0.000172588 0)
(5.12941 -0.00010065 0)
(5.12937 -5.81927e-05 0)
(5.12935 -3.34354e-05 0)
(5.12933 -1.90525e-05 0)
(5.12933 -1.07555e-05 0)
(5.12932 -6.08486e-06 0)
(5.12932 -3.46607e-06 0)
(5.12932 -1.91615e-06 0)
(5.12932 -1.04632e-06 0)
(5.12932 -6.01489e-07 0)
(5.12932 -3.42152e-07 0)
(5.12932 -2.05119e-07 0)
(5.12932 -1.00375e-07 0)
(5.12932 -2.68474e-09 0)
(5.12932 -1.03411e-08 0)
(5.12932 -4.62097e-08 0)
(5.12932 -3.13609e-08 0)
(5.12932 -1.27978e-08 0)
(5.12932 6.90258e-09 0)
(5.12932 -1.33125e-08 0)
(5.12932 -4.74546e-08 0)
(5.12932 -2.3704e-08 0)
(5.12932 2.60813e-08 0)
(5.12932 2.19367e-08 0)
(5.12932 2.00428e-09 0)
(5.12931 -4.66916e-08 0)
(5.12932 -1.08974e-08 0)