/*--------------------------------*- C++ -*----------------------------------*\
| =========                 |                                                 |
| \\      /  F ield         | OpenFOAM: The Open Source CFD Toolbox           |
|  \\    /   O peration     | Version:  2.4.0                                 |
|   \\  /    A nd           | Web:      www.OpenFOAM.org                      |
|    \\/     M anipulation  |                                                 |
\*---------------------------------------------------------------------------*/
FoamFile
{
    version     2.0;
    format      ascii;
    class       volScalarField;
    location    "1.51";
    object      k;
}
// * * * * * * * * * * * * * * * * * * * * * * * * * * * * * * * * * * * * * //

dimensions      [0 2 -2 0 0 0 0];

internalField   nonuniform List<scalar> 
8800
(
8.18732
10.1991
8.94333
6.62199
5.93976
4.72783
4.70914
3.98968
4.12262
3.52696
3.7435
3.24269
3.50798
3.01146
3.30967
2.82962
3.17931
2.63382
3.18159
2.47182
1.49841
4.23651
5.44909
5.18419
5.22619
4.69449
4.70326
4.21202
4.25477
3.82606
3.90035
3.5429
3.65048
3.325
3.45441
3.1667
3.2951
3.0281
3.16472
3.08438
0.0916903
0.624653
1.69193
1.88955
2.37901
2.41298
2.64105
2.56269
2.67701
2.57429
2.63876
2.52518
2.56904
2.48663
2.49922
2.43677
2.42797
2.41211
2.33076
2.39713
0.00434259
0.0639313
0.299508
0.40438
0.626931
0.706096
0.880152
0.93633
1.04099
1.11888
1.16824
1.23196
1.25374
1.34426
1.34769
1.40913
1.4006
1.4641
1.41495
1.45575
0.000301451
0.00488955
0.031442
0.0612693
0.084808
0.138985
0.168871
0.232206
0.253734
0.31465
0.332677
0.385533
0.398252
0.460848
0.471894
0.519759
0.53606
0.594271
0.595764
0.61041
5.75255e-05
0.000544524
0.00397713
0.00902558
0.01243
0.0222811
0.0288618
0.0452605
0.052328
0.069422
0.0765905
0.0929382
0.0991453
0.119003
0.124775
0.139052
0.147181
0.169889
0.175844
0.184601
0.00156365
0.00241547
0.0067173
0.00763361
0.0101163
0.0129429
0.0146461
0.0191623
0.020865
0.0252084
0.0267377
0.030191
0.0309118
0.0343837
0.0356184
0.0394991
0.0416784
0.0481539
0.0499809
0.054175
8.93626e-05
0.000710257
0.0012706
0.00279571
0.00314147
0.00427689
0.00466292
0.00609837
0.00659471
0.00827896
0.00872546
0.00955553
0.00965
0.0106177
0.0109269
0.011566
0.0114662
0.0124443
0.0129835
0.0147755
2.1623e-05
0.000117079
0.000152062
0.000463796
0.000559496
0.000915766
0.00103113
0.00133341
0.00139181
0.00189246
0.00219525
0.0022123
0.00222854
0.00247882
0.00299011
0.00338748
0.00307482
0.00301893
0.00303842
0.0034388
2.83231e-05
0.000118098
0.000137119
0.000227387
0.000240281
0.000287911
0.000287125
0.000300857
0.00033484
0.000468565
0.000468764
0.000449448
0.000456685
0.000586707
0.000715156
0.000715861
0.000682622
0.000659597
0.000736017
0.000809597
2.27671e-05
5.40724e-05
8.37212e-05
0.000158119
0.000158783
0.000170269
0.000165236
0.00016449
0.00017468
0.000223173
0.000227376
0.000215715
0.000219636
0.000243899
0.000321011
0.000481206
0.000462406
0.000501142
0.000520688
0.000612138
2.05899e-05
3.43262e-05
4.09909e-05
5.27544e-05
5.98462e-05
9.38278e-05
0.000107619
0.000122008
0.000123744
0.000125296
0.000132444
0.000141702
0.000203752
0.00023009
0.000248021
0.000283335
0.000316937
0.000480119
0.000601661
0.000668139
2.10691e-05
3.18199e-05
3.93841e-05
9.12904e-05
0.000109423
0.000159193
0.000171845
0.000231037
0.000264016
0.000369346
0.000419001
0.000546557
0.000704475
0.000876197
0.000888948
0.00095569
0.00124952
0.00233738
0.00310388
0.00371861
2.13915e-05
4.1322e-05
0.000108739
0.000446542
0.000548225
0.00101476
0.00131483
0.00234616
0.00294707
0.00454593
0.00552609
0.00659839
0.00825562
0.00999004
0.0107594
0.0128162
0.0169385
0.0248169
0.0276812
0.0337282
2.4756e-05
0.000306022
0.00131696
0.00535569
0.00711981
0.0136707
0.0176687
0.028244
0.0339408
0.0463151
0.0534028
0.0621055
0.0719428
0.0859833
0.092017
0.108732
0.123841
0.154429
0.165567
0.194773
0.000137397
0.00501798
0.0196349
0.0607648
0.0795633
0.130458
0.156377
0.210313
0.239115
0.285628
0.317718
0.348441
0.380391
0.427727
0.448544
0.506
0.538267
0.603464
0.626513
0.693114
0.00365798
0.070962
0.231226
0.448564
0.540282
0.722637
0.819865
0.927753
1.0195
1.08964
1.15836
1.18743
1.25215
1.30625
1.33125
1.39114
1.4147
1.4627
1.47959
1.53235
0.0890297
0.735383
1.55295
1.92404
2.2487
2.43579
2.56309
2.5927
2.61389
2.59682
2.58172
2.52588
2.52184
2.48218
2.4685
2.42797
2.41717
2.38718
2.37481
2.35011
1.45773
4.31102
5.30444
5.24598
5.11928
4.76592
4.59069
4.27425
4.1095
3.88137
3.77007
3.58998
3.5284
3.37261
3.33977
3.2056
3.17358
3.05611
3.01499
2.90921
8.16177
10.17
8.7926
6.75045
5.76072
4.88679
4.55575
4.10889
3.92429
3.65863
3.55277
3.38347
3.31324
3.13917
3.11126
2.94333
2.90572
2.72382
2.65664
2.43006
1.505
1.19241
1.02626
0.865863
0.785821
0.702586
0.662071
0.618421
0.596421
0.573525
0.555424
0.543734
0.526177
0.519351
0.502708
0.494776
0.47669
0.469474
0.453229
0.447968
0.441245
0.441681
0.443232
0.451626
0.456793
0.470158
0.477852
0.489184
0.489761
0.488849
0.477797
0.466598
0.453301
0.449053
0.442922
0.427489
0.423247
0.42855
0.476453
0.542947
0.578791
0.576527
0.524349
0.326749
0.194568
0.122988
0.0930988
0.0804873
0.0775744
0.0795827
0.0863349
0.098055
0.109224
0.11376
0.112896
0.109687
0.102629
0.0924978
0.0825582
0.0754147
0.0737749
0.0781363
0.103649
0.136278
0.155624
0.160203
0.157583
0.138059
0.108275
0.0818194
0.075422
0.0671707
0.0542581
0.0482252
0.0427031
0.0393689
0.0389239
0.0417371
0.061211
0.0840326
0.0925879
0.0959042
0.100803
0.108426
0.122696
0.137697
0.144333
0.142855
0.139069
0.134264
0.126806
0.118824
0.1115
0.102547
0.0930998
0.078715
0.0664943
0.0570737
0.0506706
0.0478473
0.0469308
0.046486
0.0467302
0.0477052
0.0497051
0.0553743
0.0697993
0.117054
0.251244
0.343697
0.373284
0.369765
0.339203
0.267779
0.19998
0.164354
0.145361
0.134363
0.126561
0.121544
0.117567
0.115476
0.11488
0.115231
0.114139
0.106637
0.101629
0.101945
0.116357
0.132132
0.138935
0.148969
0.175741
0.190223
0.1928
0.18342
0.146151
0.110099
0.0865603
0.0669149
0.0536687
0.0441565
0.0397534
0.0355397
0.030602
0.0281843
0.0261237
0.0230432
0.0189052
0.0161609
0.0144642
0.0134138
0.01286
0.0127901
0.013046
0.0139651
0.0171675
0.0197112
0.0220918
0.0282399
0.0356721
0.0370573
0.0366054
0.0350795
0.0348446
0.039253
0.0570492
0.0757035
0.0935153
0.0968077
0.0941174
0.091885
0.0931316
0.0966345
0.103836
0.125682
0.137973
0.137296
0.130953
0.0976799
0.0925325
0.0824066
0.086236
0.0791642
0.0828242
0.0763877
0.0783525
0.0757239
0.0689298
0.0695948
0.0659912
0.0637957
0.0639385
0.0704578
0.0809618
0.0870795
0.0899342
0.126998
0.14112
0.365569
2.5634
2.11349
1.73497
1.54261
1.31634
1.22738
1.08368
1.03893
0.945718
0.917853
0.853473
0.835333
0.788221
0.776274
0.741609
0.732618
0.705345
0.696727
0.672456
0.663958
0.640373
0.63237
0.611217
0.604123
0.586594
0.579691
0.561459
0.550939
0.525521
0.511728
0.481979
0.465292
0.442023
0.424804
0.395796
0.368921
0.344769
0.337406
0.335586
0.341497
0.360325
0.442305
0.52709
0.535237
0.501233
0.356684
0.208381
0.132638
0.0977454
0.0835871
0.0776905
0.0760999
0.0760706
0.0763045
0.0758938
0.0748442
0.0730194
0.0686277
0.0658632
0.065546
0.066867
0.0794062
0.124135
0.158057
0.165826
0.163243
0.151489
0.111195
0.0846192
0.0616644
0.0469147
0.0456334
0.0443794
0.0406404
0.0401355
0.0389322
0.0365468
0.0366444
0.0397214
0.056963
0.0762715
0.0834024
0.0851414
0.0860451
0.0881025
0.0914217
0.0955656
0.0996756
0.0994925
0.0981003
0.0934661
0.0886405
0.0817701
0.0744009
0.0650362
0.0557998
0.0511622
0.048148
0.0463322
0.0463795
0.0463626
0.0465067
0.0474705
0.0484098
0.0514103
0.0595514
0.0914139
0.21134
0.348321
0.413276
0.420507
0.384908
0.296216
0.202121
0.161182
0.143053
0.133045
0.127178
0.123442
0.120186
0.116354
0.114946
0.115202
0.116633
0.11607
0.109011
0.101842
0.10022
0.106798
0.122615
0.132117
0.146165
0.17072
0.186617
0.189693
0.18287
0.150848
0.111896
0.0881526
0.0663523
0.0527804
0.0420969
0.037598
0.0349494
0.0303556
0.0285848
0.026989
0.0244214
0.0203352
0.0177625
0.0162262
0.0150983
0.0139594
0.0134517
0.0133839
0.0136721
0.015874
0.0238802
0.0274231
0.0292425
0.031504
0.0335104
0.0324093
0.0309483
0.0312159
0.0371791
0.0456192
0.0583658
0.0808266
0.101216
0.110621
0.109336
0.105286
0.10001
0.10337
0.10605
0.123908
0.128172
0.14837
0.136339
0.133948
0.109266
0.10339
0.084343
0.0830393
0.0783068
0.0740795
0.0744882
0.0712278
0.0692698
0.0614055
0.0588416
0.064715
0.0669284
0.0905659
0.101277
0.121699
0.117512
0.141284
0.207164
2.17288
1.95243
1.68087
1.5448
1.35014
1.2693
1.13266
1.08467
0.98843
0.955155
0.885627
0.861401
0.808952
0.79139
0.751572
0.73917
0.708722
0.699251
0.674407
0.666032
0.643515
0.634531
0.61103
0.600454
0.573744
0.56033
0.529113
0.511193
0.47347
0.451904
0.409388
0.382357
0.345419
0.317962
0.276107
0.25844
0.241026
0.235207
0.23214
0.234253
0.238484
0.250579
0.278014
0.375864
0.43572
0.43669
0.417737
0.362986
0.253529
0.168223
0.122935
0.0993414
0.0861965
0.0801229
0.0765264
0.0732871
0.0710629
0.0711714
0.0724412
0.0780868
0.0920722
0.13981
0.172421
0.176329
0.172949
0.159148
0.119451
0.0764882
0.0495171
0.0434625
0.0358081
0.0335732
0.0348203
0.0347112
0.0337051
0.0344469
0.0349404
0.0345524
0.0350358
0.0380504
0.0499275
0.0680443
0.074349
0.0754647
0.0759039
0.0740764
0.0725866
0.0722021
0.0714937
0.0687271
0.0649566
0.0620204
0.0584817
0.0560427
0.051269
0.04821
0.0472566
0.0460167
0.0458913
0.0463485
0.0465816
0.0470703
0.0475854
0.0484732
0.052258
0.0695407
0.143795
0.327055
0.442908
0.474499
0.44522
0.344202
0.220485
0.165455
0.144618
0.133999
0.128418
0.125616
0.124008
0.119772
0.11738
0.117596
0.122886
0.1257
0.125763
0.117768
0.10508
0.101908
0.106488
0.121025
0.130131
0.147028
0.169929
0.186399
0.189655
0.182016
0.153384
0.111593
0.0899566
0.0645187
0.0517922
0.0405763
0.0375791
0.0337425
0.0315825
0.0294109
0.027994
0.0244024
0.0213089
0.0183853
0.0175915
0.0166898
0.016051
0.0152156
0.0149849
0.0152316
0.0194605
0.028189
0.0309068
0.0313737
0.0301324
0.0298942
0.0290124
0.0284989
0.0310521
0.0390475
0.0601997
0.0664149
0.0848819
0.0898605
0.107682
0.11067
0.117305
0.108871
0.114922
0.109741
0.125266
0.12503
0.143581
0.142744
0.154101
0.14266
0.137686
0.10874
0.0941366
0.0834029
0.0801739
0.0738114
0.074486
0.070955
0.0711569
0.0644043
0.0719677
0.077596
0.0927137
0.103589
0.145313
0.128772
0.139841
0.16185
1.36716
1.28639
1.15688
1.09788
0.992943
0.948179
0.865385
0.832832
0.769003
0.744546
0.694735
0.675578
0.635258
0.619809
0.586594
0.574257
0.547575
0.537623
0.515226
0.506499
0.48618
0.476663
0.455418
0.444199
0.419109
0.404491
0.376712
0.352699
0.320728
0.297181
0.261164
0.231634
0.201996
0.178003
0.150737
0.137217
0.124074
0.110829
0.103157
0.103511
0.106882
0.11678
0.136122
0.160944
0.205462
0.295389
0.354353
0.362373
0.357009
0.340482
0.305151
0.257552
0.210869
0.172162
0.142394
0.127151
0.126623
0.13104
0.140336
0.16866
0.192274
0.194889
0.192731
0.18364
0.163814
0.108561
0.0626163
0.0404171
0.027534
0.024191
0.0254196
0.0249508
0.0249205
0.026729
0.0281721
0.0307955
0.0335293
0.0337227
0.0327783
0.0330074
0.0352856
0.0428363
0.056695
0.0653546
0.0671351
0.0667668
0.0658801
0.0642907
0.0618037
0.057648
0.0556569
0.0532693
0.0521487
0.0507611
0.0479468
0.0473053
0.0464697
0.0461618
0.0468524
0.0468828
0.0467709
0.0466516
0.0465449
0.0475035
0.0552261
0.0952909
0.248805
0.434461
0.525255
0.526247
0.450268
0.269208
0.184025
0.148872
0.137063
0.129814
0.126703
0.126036
0.123604
0.121159
0.12278
0.131164
0.137412
0.138114
0.135965
0.122843
0.111052
0.107177
0.109635
0.122067
0.130987
0.15025
0.172452
0.185824
0.190917
0.180303
0.15247
0.110719
0.0891418
0.0633564
0.0507125
0.0400959
0.0371886
0.0322031
0.0309875
0.0279029
0.0270511
0.0245548
0.0234216
0.020688
0.0205931
0.0199336
0.0195479
0.0181388
0.0180022
0.0193162
0.0283117
0.0325885
0.0327626
0.0316375
0.0289157
0.0276202
0.0273159
0.0280276
0.03731
0.0449
0.0768973
0.0809366
0.104266
0.101159
0.122872
0.118228
0.1402
0.128956
0.142512
0.129014
0.132971
0.128049
0.132447
0.135823
0.15019
0.150618
0.149575
0.134018
0.125259
0.103109
0.0988695
0.0850762
0.0776679
0.0770685
0.0773875
0.0697935
0.0685578
0.0905768
0.102795
0.0965803
0.10908
0.138874
0.149506
0.175287
0.586034
0.566277
0.526048
0.508291
0.472726
0.457885
0.428265
0.415991
0.390975
0.380686
0.360224
0.351915
0.335058
0.328028
0.313389
0.307018
0.293783
0.287837
0.275333
0.269225
0.257554
0.24852
0.235804
0.227361
0.21041
0.197101
0.181729
0.164686
0.144945
0.129784
0.111613
0.095676
0.0833105
0.0721142
0.0613017
0.0555857
0.0505237
0.0456014
0.0442856
0.0446777
0.0457959
0.0483893
0.0529048
0.0635851
0.0775133
0.100038
0.139953
0.197897
0.257799
0.290956
0.29382
0.292589
0.289215
0.280963
0.269517
0.261438
0.25359
0.245602
0.240125
0.234158
0.220825
0.204528
0.184505
0.137969
0.0802938
0.047058
0.0287497
0.0209924
0.0177773
0.0167953
0.0173308
0.0184044
0.0188966
0.0202119
0.0249191
0.0262897
0.0271935
0.028428
0.0285388
0.0273449
0.0273644
0.028935
0.0337994
0.0451826
0.0536723
0.0584914
0.0592831
0.0591594
0.0578854
0.055827
0.0536757
0.0521292
0.0515017
0.0494727
0.0484402
0.0481264
0.0471981
0.0472422
0.0473359
0.0468613
0.0463275
0.0451513
0.044508
0.0465107
0.0646849
0.154112
0.367261
0.538725
0.597769
0.556122
0.371874
0.227655
0.163312
0.140328
0.132632
0.12711
0.125556
0.121899
0.121188
0.124146
0.135028
0.14237
0.145215
0.143918
0.137742
0.128568
0.119256
0.115493
0.116931
0.125332
0.134283
0.154388
0.1798
0.187414
0.19303
0.179121
0.147248
0.111005
0.0831563
0.060975
0.0466745
0.0384975
0.0335467
0.0297788
0.0280618
0.0263963
0.0269612
0.025879
0.0258427
0.0250969
0.0256013
0.0249888
0.0251711
0.0235537
0.0236462
0.0265649
0.0338276
0.0344809
0.033228
0.0299961
0.0291474
0.0282822
0.0298547
0.0337329
0.0580377
0.0659606
0.0982539
0.0994987
0.119603
0.113401
0.134844
0.126949
0.140844
0.132633
0.137296
0.130269
0.130236
0.127112
0.128545
0.128508
0.132589
0.145618
0.146021
0.141676
0.135435
0.117928
0.111997
0.101104
0.0897481
0.0783422
0.0810918
0.0810226
0.0762526
0.0777606
0.100405
0.143791
0.143395
0.184784
0.169778
0.17793
0.180134
0.175538
0.165717
0.160485
0.151567
0.147848
0.141312
0.138141
0.132805
0.129778
0.125673
0.123359
0.119903
0.118369
0.115423
0.113317
0.11067
0.108675
0.105268
0.102514
0.0992666
0.0949614
0.0902458
0.086594
0.080328
0.0745795
0.0689224
0.0620902
0.0551951
0.0494841
0.0430948
0.0373659
0.0328835
0.0284109
0.0249305
0.0227519
0.0207108
0.0191711
0.0189744
0.0191529
0.0197081
0.0213165
0.0231267
0.0264748
0.032322
0.0380474
0.0496129
0.0630168
0.0840173
0.117053
0.154289
0.181226
0.204148
0.218886
0.222147
0.221283
0.218192
0.212175
0.19878
0.179874
0.156383
0.11736
0.0759802
0.0466909
0.0287915
0.0197014
0.0146447
0.0126721
0.0129433
0.0141402
0.0147168
0.0161718
0.0167499
0.0166962
0.0171136
0.021423
0.0234004
0.0238556
0.0245299
0.0245636
0.0238763
0.0237964
0.0251156
0.0283115
0.037063
0.0461205
0.0513914
0.0535121
0.0535042
0.0531393
0.0518758
0.0513808
0.050936
0.0493823
0.0489501
0.0481484
0.047201
0.0472267
0.0468167
0.045519
0.0447008
0.0419885
0.0404894
0.0457953
0.0885213
0.256632
0.468623
0.637614
0.665948
0.56932
0.325446
0.196693
0.148828
0.134773
0.12922
0.122782
0.118104
0.11702
0.120911
0.129979
0.139762
0.143591
0.144574
0.143261
0.140638
0.137611
0.130616
0.126685
0.126667
0.130654
0.143388
0.161001
0.188429
0.193592
0.194342
0.177485
0.133933
0.108368
0.0743931
0.056919
0.040808
0.0340489
0.0286198
0.0257141
0.024819
0.0248845
0.0277474
0.027373
0.0277866
0.0277
0.0292
0.0294953
0.0296812
0.0298064
0.0318298
0.0350386
0.0371672
0.0357518
0.0307776
0.0285592
0.0294054
0.0301025
0.0333821
0.0405012
0.0753046
0.0819916
0.11596
0.111809
0.124584
0.115566
0.121701
0.117949
0.11766
0.121162
0.121882
0.123356
0.121545
0.12154
0.120123
0.121543
0.121611
0.131663
0.135545
0.137899
0.134612
0.127209
0.116157
0.110553
0.10863
0.0911834
0.0827059
0.0818745
0.0776136
0.0795637
0.0864181
0.134041
0.126166
0.133754
0.158516
0.169432
0.0529841
0.0514212
0.0481642
0.0459451
0.0436481
0.0422379
0.0411102
0.039996
0.0392161
0.0382177
0.0375119
0.036961
0.0365411
0.0362283
0.0360202
0.03575
0.0355282
0.0353905
0.0350653
0.0345147
0.0339111
0.0328011
0.0315564
0.0303636
0.0284958
0.0264817
0.0243951
0.0219486
0.0195296
0.0172179
0.0150488
0.0130995
0.0114349
0.010019
0.00905093
0.00826382
0.00759338
0.00721055
0.00719725
0.00733837
0.00773508
0.00860428
0.00977846
0.0115983
0.0145379
0.0172368
0.0196377
0.0246824
0.0315335
0.0369898
0.0494853
0.0621209
0.0707355
0.0825168
0.0917511
0.0928526
0.0911671
0.0864348
0.0757869
0.0627159
0.0479659
0.0339402
0.0229683
0.016309
0.0121499
0.0100248
0.00999858
0.0104583
0.0115077
0.0138557
0.0145555
0.014665
0.0156552
0.0158199
0.0157138
0.0174465
0.0203565
0.02068
0.0203792
0.0204183
0.0207299
0.0208745
0.0211349
0.0218795
0.0242069
0.0293195
0.0374772
0.0427257
0.0459321
0.0475227
0.047953
0.0480129
0.0476828
0.0473558
0.0471872
0.046407
0.0458864
0.0454387
0.043746
0.0416252
0.0397616
0.0352023
0.0348723
0.0500221
0.149549
0.344096
0.566587
0.731283
0.735856
0.556618
0.303989
0.182956
0.141792
0.130331
0.124035
0.113661
0.11177
0.115099
0.124898
0.131528
0.134608
0.139953
0.14468
0.14571
0.144381
0.13999
0.138065
0.136871
0.134791
0.138373
0.158628
0.173998
0.194109
0.19828
0.192523
0.169849
0.123028
0.0982172
0.0654771
0.0476631
0.0347743
0.0280451
0.0242808
0.0222527
0.0225322
0.0259663
0.028856
0.0290739
0.0293564
0.0296755
0.0322926
0.0315188
0.0307159
0.030714
0.0316079
0.0344005
0.034074
0.0316077
0.0267349
0.0259941
0.0260924
0.0271862
0.0314314
0.0372721
0.0903323
0.0946983
0.134355
0.125667
0.138546
0.12522
0.128349
0.123013
0.111607
0.104141
0.101546
0.10409
0.103187
0.107697
0.108019
0.112571
0.113132
0.119168
0.121005
0.126511
0.127998
0.125819
0.120168
0.110456
0.106047
0.10319
0.0923995
0.083418
0.0726562
0.0753192
0.0745277
0.0795642
0.0971731
0.103505
0.115479
0.127011
0.0145258
0.0141124
0.0132795
0.012569
0.011965
0.0114888
0.0111747
0.0107393
0.0104178
0.01006
0.00983251
0.0096907
0.00960823
0.00958423
0.00960399
0.00968485
0.00974774
0.00978634
0.00978891
0.0097724
0.00971704
0.00952356
0.00930103
0.00901038
0.00859556
0.00801224
0.00739528
0.00663355
0.00586004
0.00516046
0.00452379
0.00398836
0.00359517
0.00324749
0.00303664
0.0028879
0.00268438
0.00256915
0.00256448
0.0025905
0.00267092
0.00291999
0.00329153
0.00379752
0.00549613
0.0073068
0.00839874
0.0106251
0.0127201
0.0140986
0.0178795
0.0209211
0.0225658
0.0265646
0.0290986
0.0291429
0.0284162
0.0264813
0.0230419
0.0187066
0.0143481
0.0109942
0.00890734
0.00779069
0.00782786
0.00813598
0.00913171
0.0108202
0.0133167
0.0166979
0.0191695
0.0199448
0.0199205
0.0194307
0.0171201
0.01617
0.0167053
0.0180488
0.018199
0.0178538
0.0167149
0.0163145
0.0162883
0.016371
0.0167302
0.0180965
0.0218464
0.0248622
0.029541
0.0336664
0.037245
0.0389466
0.0397436
0.0402576
0.0400573
0.0389757
0.0383637
0.0373644
0.0343677
0.0320111
0.027428
0.0252098
0.029583
0.0666748
0.230855
0.418797
0.662832
0.823268
0.803289
0.557481
0.297928
0.177835
0.137211
0.12536
0.115112
0.105318
0.106895
0.114625
0.123516
0.125614
0.130532
0.139405
0.142586
0.143194
0.141757
0.139842
0.13953
0.139766
0.144347
0.151203
0.174505
0.185753
0.196177
0.200001
0.181281
0.151169
0.108548
0.0807961
0.0540753
0.0376741
0.0294208
0.0236371
0.0216728
0.0206344
0.0215282
0.0278886
0.0302198
0.0325723
0.0327489
0.0335706
0.0307953
0.0269576
0.0260077
0.0280738
0.0278242
0.0298757
0.0286448
0.0271964
0.0246668
0.0245936
0.0247702
0.0252714
0.0395174
0.0446043
0.0923728
0.100581
0.122863
0.123171
0.122659
0.119094
0.128167
0.121788
0.12634
0.111771
0.113129
0.107438
0.0969834
0.0938909
0.0931692
0.0974608
0.0992527
0.107198
0.109386
0.115255
0.115972
0.120022
0.118502
0.113201
0.103464
0.100961
0.0995022
0.0955474
0.0809907
0.0752155
0.0701855
0.0691297
0.0714528
0.0687401
0.0704448
0.0825709
0.00343114
0.00339263
0.00331888
0.00320024
0.00309164
0.00296912
0.0028459
0.00266673
0.00251389
0.00239652
0.00233059
0.00230091
0.00228879
0.00230213
0.00237444
0.00245734
0.00251274
0.00255054
0.00256244
0.00256405
0.00255544
0.00250971
0.00246155
0.00241633
0.00238072
0.00233511
0.00221885
0.00209242
0.00195571
0.00180763
0.00170637
0.00163305
0.00155351
0.00152041
0.0015063
0.00147045
0.00146007
0.0014601
0.00145048
0.0014427
0.00143957
0.00144668
0.0015085
0.00164566
0.0019588
0.00245404
0.00307904
0.00433258
0.00532054
0.00574205
0.00674587
0.00751924
0.00772194
0.00813804
0.00814851
0.00799796
0.00764049
0.00698871
0.00639201
0.0057281
0.00554538
0.0056657
0.00593935
0.00649165
0.00785807
0.0102584
0.0143213
0.0190817
0.0247043
0.0318897
0.0351466
0.0349695
0.0333627
0.0292246
0.0231999
0.0190843
0.0183071
0.0184841
0.0185225
0.0182011
0.0167299
0.0146653
0.0131598
0.0124784
0.0123291
0.0124714
0.012929
0.0145435
0.0165556
0.0189343
0.0219653
0.0230408
0.0246421
0.0259924
0.0258626
0.0253728
0.0247571
0.0229782
0.0193348
0.0180247
0.0176919
0.019499
0.0306631
0.118445
0.303363
0.486035
0.743703
0.909043
0.879572
0.617205
0.319628
0.179242
0.136105
0.122562
0.10954
0.0996263
0.101326
0.110967
0.110877
0.116191
0.127623
0.130291
0.133769
0.135943
0.136259
0.138774
0.141198
0.145671
0.152839
0.162685
0.186833
0.192044
0.195268
0.195807
0.155395
0.121467
0.0865394
0.0615998
0.041411
0.0298306
0.0248186
0.0215572
0.0201889
0.020346
0.0228683
0.0334292
0.0347315
0.0354744
0.0345351
0.0311182
0.0257458
0.023705
0.0238245
0.0262257
0.0250019
0.0279595
0.0256817
0.0256356
0.0252893
0.0258167
0.027929
0.0282153
0.0401693
0.0509379
0.0859881
0.0983532
0.107874
0.111929
0.104295
0.100433
0.0944928
0.101267
0.120431
0.11607
0.126509
0.122856
0.105099
0.0970322
0.0886453
0.086713
0.0871403
0.0900231
0.095567
0.105933
0.107643
0.110265
0.111969
0.110482
0.105355
0.0967979
0.0963231
0.0963623
0.0881664
0.0805414
0.0681919
0.0608702
0.0597481
0.0567976
0.0524129
0.0532916
0.000810267
0.000812729
0.000818156
0.00081727
0.000815204
0.000814442
0.000815086
0.000815746
0.000815706
0.000815197
0.000811165
0.000802556
0.000796356
0.000797408
0.000829965
0.000897456
0.000966787
0.00103246
0.00108966
0.00114182
0.00118297
0.00121927
0.00124135
0.00125454
0.00126209
0.00126554
0.00126725
0.00127157
0.00127423
0.00127881
0.00126947
0.0012548
0.00125268
0.00125366
0.00126189
0.00129752
0.00136556
0.0014569
0.00151126
0.00151873
0.00150403
0.0014727
0.0014551
0.00145202
0.00146594
0.00157053
0.0016764
0.001839
0.00218423
0.00243138
0.00250682
0.0026584
0.00275271
0.00276768
0.00281271
0.00285214
0.00291681
0.00304267
0.00337123
0.00393742
0.00461614
0.0057115
0.00794643
0.0109888
0.0188659
0.0262486
0.0342705
0.0471446
0.0571287
0.0597074
0.059287
0.0570861
0.0502085
0.044775
0.037419
0.0295402
0.023906
0.0212409
0.0205651
0.019928
0.0178969
0.0151977
0.0134769
0.011598
0.0103629
0.00984615
0.00969935
0.00975837
0.00999526
0.0105465
0.0118855
0.01257
0.0133309
0.0133646
0.0132131
0.0132117
0.0129409
0.0118682
0.0119149
0.012446
0.0137506
0.0184692
0.0444115
0.197515
0.353581
0.526576
0.802916
0.993162
0.988614
0.75358
0.404029
0.206819
0.139918
0.1215
0.107366
0.0968754
0.097186
0.103053
0.105812
0.110901
0.114801
0.118597
0.123905
0.131518
0.135188
0.140415
0.145722
0.14932
0.160783
0.176281
0.189731
0.191049
0.188108
0.169228
0.116892
0.0903151
0.0674444
0.0462496
0.0328026
0.0258363
0.0226136
0.0205366
0.0196997
0.0206778
0.027972
0.0361931
0.0364236
0.0358215
0.0312405
0.0255116
0.0228518
0.0221653
0.0236426
0.0245173
0.0232779
0.0239533
0.0235429
0.0256588
0.025436
0.0290925
0.0284702
0.0302415
0.0386823
0.0517223
0.0890667
0.097244
0.108034
0.108357
0.103647
0.0967894
0.0870333
0.0865507
0.0865978
0.104074
0.110356
0.130638
0.125047
0.10801
0.0957058
0.0885834
0.083335
0.0816704
0.0823661
0.0863072
0.0972564
0.101887
0.106978
0.106581
0.10436
0.0969103
0.0916036
0.0909703
0.086456
0.0778241
0.0674761
0.0601166
0.0570643
0.0530188
0.0509741
0.0530026
0.000720631
0.000767127
0.00082137
0.000844125
0.00084532
0.000841934
0.000821128
0.000794825
0.000774487
0.000765593
0.000771154
0.000843041
0.000958
0.00106332
0.00114306
0.00118793
0.00120067
0.00119856
0.00117841
0.00116499
0.00116256
0.00118492
0.00126878
0.00137196
0.00147949
0.00157315
0.001634
0.00165246
0.00162626
0.00152686
0.00146348
0.00144195
0.00144124
0.00146584
0.00159768
0.00183107
0.00210295
0.00230956
0.00238596
0.00239184
0.00234586
0.00216091
0.00195475
0.00180083
0.00172749
0.00171638
0.00173675
0.00187786
0.00196695
0.00211783
0.00222297
0.00225979
0.00230403
0.00234237
0.00239878
0.00248548
0.00271964
0.00332067
0.0047535
0.00643492
0.0102997
0.015446
0.0236826
0.0372908
0.0551479
0.0730779
0.0941121
0.110874
0.113628
0.111721
0.105533
0.0950597
0.07851
0.0657827
0.0579752
0.0468748
0.0355621
0.0285505
0.0252883
0.0234146
0.0204236
0.0171977
0.0142483
0.0120949
0.0108066
0.00944796
0.00861988
0.0080233
0.00767395
0.00755662
0.00748779
0.00755993
0.00792953
0.00801284
0.00842804
0.00863905
0.00857335
0.00872085
0.00948198
0.0105963
0.0134572
0.0261205
0.0903256
0.276114
0.381984
0.538958
0.816029
1.05952
1.14067
0.96462
0.562185
0.271388
0.158935
0.122493
0.107054
0.0961551
0.0946098
0.0972957
0.0991324
0.10188
0.104384
0.108143
0.116138
0.129545
0.135408
0.14249
0.147287
0.155221
0.170529
0.179635
0.182697
0.17824
0.162955
0.12329
0.0844448
0.0712844
0.0540595
0.0372667
0.0292138
0.0252019
0.0221387
0.0204528
0.0200013
0.0223896
0.0320485
0.0367239
0.0363467
0.0327876
0.0265644
0.0232069
0.0219785
0.021517
0.0230488
0.0226275
0.0224257
0.0222734
0.0225349
0.024081
0.02445
0.0289457
0.0274993
0.0301611
0.0381676
0.0516511
0.0982559
0.105062
0.120301
0.115045
0.115448
0.0966356
0.0949507
0.0858332
0.0883855
0.103822
0.108078
0.13519
0.138442
0.126008
0.120154
0.0975469
0.0855546
0.0821319
0.0772779
0.0770078
0.0785986
0.0855294
0.0947974
0.097116
0.0968381
0.0955961
0.0927566
0.0891879
0.0847325
0.0763677
0.0665692
0.0605613
0.0595348
0.0571762
0.0565361
0.0575764
0.000667527
0.000664679
0.000663508
0.00065608
0.00064201
0.000626894
0.000618591
0.000616257
0.000616507
0.000636414
0.000746331
0.000899423
0.00110621
0.001292
0.0014849
0.00166126
0.00179038
0.00192674
0.00202406
0.00214936
0.00224864
0.00235016
0.00244293
0.00250304
0.00257161
0.00264062
0.002692
0.00276579
0.00287389
0.00298184
0.00322939
0.00357134
0.00399944
0.00439472
0.00463138
0.00489528
0.00523843
0.00543134
0.00543838
0.00538863
0.00526788
0.00505451
0.00466438
0.00413723
0.00359958
0.00313484
0.00274703
0.002503
0.00238786
0.00232012
0.00231498
0.00235649
0.00247719
0.00268671
0.00316136
0.00436814
0.00642782
0.00916102
0.0160001
0.0220559
0.0357096
0.0528654
0.0782454
0.114662
0.150201
0.188741
0.218474
0.223816
0.220521
0.208158
0.183283
0.15631
0.122661
0.0945752
0.0777767
0.0653343
0.0512609
0.0395824
0.0327169
0.0282109
0.0242341
0.0204153
0.0166234
0.0140487
0.0121282
0.0103859
0.00928389
0.00869001
0.00798534
0.00760732
0.00749069
0.00741917
0.00723703
0.00723303
0.00740395
0.00738577
0.00749302
0.00801854
0.00919604
0.0120145
0.0217725
0.0544178
0.186851
0.314219
0.391373
0.523724
0.803321
1.06665
1.27377
1.27582
0.870833
0.40914
0.202586
0.134627
0.111171
0.0968708
0.0941015
0.0944862
0.0954853
0.0978327
0.100148
0.103593
0.111644
0.1216
0.131735
0.138993
0.146963
0.160414
0.169806
0.167915
0.148791
0.147866
0.124596
0.0871087
0.0671297
0.0600783
0.0455547
0.03397
0.0293483
0.0262288
0.0229318
0.021883
0.0218529
0.0263965
0.0342179
0.0366455
0.0354286
0.0298631
0.0254542
0.0238418
0.0229931
0.0226317
0.0233462
0.0226101
0.0226497
0.0235272
0.0240024
0.0244068
0.0250435
0.0263083
0.0261296
0.029222
0.0373659
0.0531235
0.103029
0.113747
0.137954
0.133005
0.135973
0.112892
0.111384
0.0987669
0.101065
0.1151
0.119391
0.137222
0.14932
0.135004
0.136838
0.115867
0.0957965
0.084527
0.0805558
0.076588
0.0765444
0.0774376
0.0832923
0.0906451
0.0934881
0.093154
0.0923485
0.0901111
0.0825692
0.0754951
0.068404
0.065167
0.0633932
0.062804
0.0627599
0.0677676
0.00370327
0.00365864
0.00357599
0.00348177
0.00339891
0.00338589
0.00340625
0.00346606
0.00358342
0.00372446
0.00407835
0.00468295
0.0056387
0.00651673
0.00736933
0.00829503
0.00882542
0.00953083
0.00999014
0.0105358
0.0109744
0.0114217
0.0119865
0.0123165
0.0129517
0.0134351
0.0138002
0.0145676
0.0152958
0.0159794
0.0170007
0.0180433
0.0187353
0.0195347
0.0202669
0.0204196
0.0203414
0.0200514
0.0194295
0.0182207
0.0169068
0.0157096
0.0143266
0.0129495
0.0116452
0.0103382
0.00903983
0.00783267
0.0068565
0.00650977
0.00656273
0.00687987
0.00762746
0.0095569
0.0119388
0.0182128
0.0250005
0.0357584
0.0566595
0.0756867
0.114301
0.163339
0.22037
0.294495
0.355008
0.404141
0.416082
0.411167
0.395889
0.356066
0.307077
0.25708
0.199084
0.14786
0.11204
0.0890578
0.0725507
0.0584257
0.0464611
0.0398264
0.0343764
0.0282234
0.0238062
0.0196672
0.0162862
0.0137777
0.0120316
0.0106113
0.00964175
0.00885066
0.00817115
0.00773904
0.00745919
0.00748104
0.00746385
0.00772899
0.00857962
0.0104216
0.0143804
0.02487
0.053262
0.153927
0.255774
0.323852
0.374355
0.477726
0.735252
1.01584
1.28303
1.51933
1.37535
0.703744
0.307417
0.166768
0.121314
0.102647
0.0955063
0.094591
0.0950725
0.0960591
0.0977568
0.0993237
0.102017
0.105671
0.112423
0.12327
0.140147
0.149523
0.145109
0.127685
0.122105
0.121008
0.0888719
0.0671785
0.0615648
0.0544672
0.041319
0.0339227
0.0326156
0.0306902
0.027728
0.0274735
0.0298264
0.0344653
0.0375076
0.037973
0.0350233
0.0294243
0.0265968
0.0260255
0.0257609
0.0256694
0.0256876
0.0244003
0.0235551
0.0242288
0.0241631
0.0253661
0.0256881
0.0261232
0.0269021
0.0293377
0.0357661
0.0621945
0.102065
0.129548
0.167959
0.15253
0.159004
0.144377
0.133373
0.118533
0.111203
0.108865
0.114425
0.148412
0.168572
0.15814
0.168901
0.142351
0.126603
0.0953321
0.0902375
0.0843803
0.0797572
0.0793321
0.0847635
0.0930508
0.0952554
0.0941776
0.09283
0.0890948
0.0846358
0.0807475
0.0758056
0.0708867
0.067501
0.0667468
0.0714805
0.0809217
0.0335404
0.0330995
0.0325845
0.0319861
0.0313566
0.0313346
0.0315081
0.0320307
0.0327399
0.0343802
0.0365069
0.0386041
0.0412601
0.0432016
0.0449054
0.0466393
0.0474507
0.0486709
0.049442
0.0504032
0.051282
0.0520305
0.0533542