/*--------------------------------*- C++ -*----------------------------------*\
| =========                 |                                                 |
| \\      /  F ield         | OpenFOAM: The Open Source CFD Toolbox           |
|  \\    /   O peration     | Version:  2.4.0                                 |
|   \\  /    A nd           | Web:      www.OpenFOAM.org                      |
|    \\/     M anipulation  |                                                 |
\*---------------------------------------------------------------------------*/
FoamFile
{
    version     2.0;
    format      ascii;
    class       volScalarField;
    location    "1.09";
    object      pPrime2Mean;
}
// * * * * * * * * * * * * * * * * * * * * * * * * * * * * * * * * * * * * * //

dimensions      [0 4 -4 0 0 0 0];

internalField   nonuniform List<scalar> 
8800
(
593322
578356
562298
546376
530672
515196
499949
484929
470138
455574
441236
427123
413228
399547
386064
372756
359568
346403
333020
318673
593343
578358
562297
546376
530672
515196
499949
484929
470138
455574
441237
427123
413230
399549
386068
372763
359583
346433
333094
318917
593357
578358
562293
546373
530671
515196
499949
484929
470138
455575
441237
427124
413232
399553
386075
372777
359610
346491
333229
319389
593367
578357
562289
546370
530670
515195
499948
484929
470138
455575
441238
427126
413235
399559
386086
372797
359650
346574
333417
319939
593375
578357
562285
546368
530669
515195
499948
484929
470138
455575
441239
427128
413239
399566
386100
372824
359701
346677
333644
320507
593382
578358
562283
546365
530668
515195
499948
484929
470139
455576
441240
427130
413244
399575
386117
372855
359761
346795
333892
321062
593387
578359
562281
546363
530667
515194
499948
484929
470139
455576
441242
427133
413249
399585
386136
372890
359828
346924
334152
321590
593391
578359
562280
546362
530666
515194
499948
484929
470139
455577
441243
427136
413255
399597
386156
372928
359899
347059
334413
322082
593393
578360
562279
546361
530666
515195
499949
484929
470139
455578
441245
427140
413262
399608
386178
372968
359974
347197
334669
322535
593394
578360
562279
546361
530665
515195
499949
484930
470140
455579
441247
427144
413268
399621
386201
373009
360049
347334
334914
322947
593394
578360
562279
546361
530665
515195
499949
484930
470141
455580
441249
427147
413275
399633
386223
373050
360123
347466
335145
323319
593393
578360
562279
546361
530666
515195
499949
484930
470141
455581
441251
427151
413282
399645
386245
373090
360194
347591
335358
323651
593391
578359
562280
546362
530667
515195
499949
484931
470142
455583
441253
427155
413288
399657
386266
373127
360261
347708
335551
323944
593387
578359
562281
546364
530667
515195
499949
484931
470143
455584
441255
427158
413294
399668
386286
373162
360323
347813
335723
324199
593382
578358
562283
546366
530668
515196
499950
484932
470144
455585
441257
427161
413300
399677
386303
373193
360377
347906
335871
324416
593375
578357
562286
546368
530670
515196
499950
484932
470144
455586
441259
427164
413305
399686
386319
373220
360424
347985
335996
324596
593367
578357
562289
546371
530671
515196
499950
484933
470145
455587
441260
427166
413309
399693
386331
373243
360463
348049
336096
324740
593357
578358
562293
546374
530672
515197
499951
484933
470146
455588
441261
427168
413312
399699
386341
373260
360492
348097
336172
324847
593343
578358
562297
546376
530673
515198
499951
484934
470146
455588
441262
427169
413314
399702
386348
373272
360512
348130
336222
324918
593322
578356
562298
546377
530674
515198
499951
484934
470146
455588
441262
427170
413315
399704
386351
373277
360522
348147
336248
324952
305672
302171
299499
297189
295048
293010
291045
289135
287267
285432
283626
281842
280077
278330
276596
274874
273163
271460
269765
268078
266397
264724
263059
261399
259746
258099
256458
254823
253194
251572
249956
248347
246745
245152
243566
241988
240417
238854
237297
235748
234204
232665
231131
229602
228077
226556
225039
223526
222017
220513
219013
217517
216026
214538
213054
211576
210103
208635
207173
205716
204263
202815
201371
199932
198497
197067
195643
194226
192814
191410
190010
188617
187229
185846
184469
183098
181732
180372
179017
177670
176329
174994
173666
172344
171026
169714
168406
167102
165802
164506
163214
161925
160640
159358
158079
156803
155530
154262
152997
151736
150481
149232
147988
146751
145521
144298
143081
141873
140670
139474
138284
137101
135923
134751
133584
132423
131267
130116
128971
127832
126697
125569
124446
123329
122216
121110
120006
118909
117815
116727
115641
114559
113480
112405
111332
110263
109198
108136
107079
106027
104979
103936
102898
101866
100838
99815.7
98798.5
97786.6
96779.3
95777.3
94779.8
93787.3
92799.2
91816
90837.5
89863.8
88894.7
87931.2
86972.6
86019.8
85072
84131.1
83195.4
82267.6
81345
80430.7
79521.4
78621
77726.3
76840.5
75959.7
75088.7
74221
73364.8
72509.5
71668.4
70824.3
69997.2
69164.5
68348.8
67528.3
66722.7
65912.3
65112.3
64307.8
63507.7
62702.9
61898.5
61085.4
60269.6
59439.5
58600.4
57740.4
56861.1
55949.8
55002.9
54001.6
52922.8
51760.4
50350.5
308166
304435
301393
298774
296404
294188
292080
290050
288080
286158
284275
282425
280601
278801
277020
275256
273507
271771
270045
268330
266626
264930
263244
261566
259897
258235
256581
254934
253294
251662
250037
248420
246811
245211
243619
242035
240458
238890
237328
235773
234225
232682
231145
229613
228085
226561
225042
223527
222017
220511
219010
217513
216021
214533
213050
211572
210099
208631
207169
205712
204260
202812
201369
199931
198497
197068
195645
194228
192817
191412
190012
188619
187231
185848
184471
183099
181734
180374
179020
177672
176332
174997
173670
172347
171031
169718
168410
167107
165807
164511
163219
161931
160645
159363
158084
156808
155536
154267
153003
151744
150490
149241
147999
146763
145533
144311
143095
141886
140684
139488
138298
137113
135935
134762
133594
132432
131275
130124
128979
127839
126705
125577
124454
123337
122225
121119
120017
118921
117828
116740
115654
114573
113494
112419
111347
110279
109214
108154
107097
106046
104999
103957
102921
101889
100862
99840
98823.4
97811.6
96804.7
95802.5
94805.5
93813.1
92825.2
91841.9
90863.1
89888.5
88918.5
87953.5
86993.1
86037.9
85088.1
84144.5
83206.3
82275.1
81349.3
80430.6
79517.2
78611.4
77711
76818.3
75930
75050.4
74173.4
73307.2
72440.7
71587.8
70731.6
69889.9
69044.5
68211.5
67376.2
66550.2
65722.7
64899.2
64074.8
63249.3
62420.2
61587.4
60746.6
59896.7
59034.2
58153
57251.4
56317.8
55350.9
54325
53255.5
52035.2
50761.3
49292.5
309896
306195
303011
300206
297666
295304
293070
290932
288868
286864
284908
282994
281113
279262
277435
275631
273845
272075
270320
268579
266850
265132
263426
261731
260045
258369
256701
255042
253392
251750
250117
248492
246877
245269
243671
242081
240499
238925
237358
235799
234246
232699
231158
229622
228091
226565
225044
223527
222015
220508
219006
217508
216016
214528
213045
211567
210094
208627
207165
205708
204256
202809
201367
199930
198497
197070
195647
194231
192820
191415
190016
188622
187234
185851
184474
183102
181736
180376
179023
177675
176335
175001
173674
172352
171035
169723
168416
167112
165813
164518
163226
161937
160652
159369
158090
156814
155543
154275
153012
151754
150502
149254
148013
146778
145550
144328
143113
141904
140702
139505
138315
137129
135950
134775
133607
132444
131287
130135
128989
127850
126716
125588
124465
123349
122237
121132
120031
118935
117843
116755
115670
114589
113510
112435
111364
110296
109232
108172
107116
106066
105020
103980
102944
101913
100887
99866.3
98850.2
97838.5
96831.9
95829.8
94833.2
93841
92853
91869.8
90890.3
89914.8
88943.7
87976.9
87014.3
86056.8
85104.8
84158.6
83217.9
82283.3
81354.7
80431.7
79514.4
78603.6
77697.4
76797.7
75901.5
75013.3
74126.4
73249.7
72372.6
71506.3
70639.6
69782.3
68925.5
68074.6
67225.7
66378.9
65534.8
64688.4
63844
62993.6
62142.3
61280.3
60415.4
59531.7
58640.4
57718.7
56783.5
55796
54795.4
53691.4
52587.4
51294.8
49968
48537.2
311214
307611
304387
301479
298819
296343
294003
291770
289622
287542
285519
283544
281609
279709
277839
275995
274173
272371
270588
268820
267068
265329
263604
261891
260190
258499
256819
255149
253488
251837
250196
248563
246941
245327
243722
242126
240539
238959
237387
235823
234266
232715
231170
229631
228097
226569
225045
223527
222014
220505
219002
217504
216011
214523
213040
211562
210090
208622
207161
205704
204253
202807
201366
199929
198498
197071
195650
194234
192824
191420
190020
188627
187238
185856
184478
183106
181740
180379
179026
177679
176339
175005
173678
172357
171041
169729
168422
167119
165820
164525
163234
161945
160659
159377
158098
156823
155552
154285
153024
151767
150516
149271
148031
146797
145570
144349
143134
141925
140723
139525
138334
137148
135967
134791
133622
132458
131300
130148
129003
127863
126730
125602
124480
123364
122253
121147
120047
118952
117860
116772
115687
114605
113527
112452
111380
110313
109249
108190
107136
106086
105042
104002
102968
101938
100913
99892.5
98877.4
97866
96860
95858.2
94862.1
93869.9
92882.2
91898.7
90918.9
89941.9
88969.3
88000.2
87035.1
86075.2
85121
84171.9
83228.8
82291
81359.5
80432.6
79511.7
78595.8
77684.2
76777.2
75873.7
74976.5
74080.5
73192
72305.6
71425.7
70549.1
69676.5
68808.1
67940.4
67077.3
66211.2
65349.6
64481.6
63617.7
62742.4
61871.4
60980.3
60094.8
59176.4
58264.7
57298.9
56345.9
55301.8
54282.3
53120.8
51978.5
50685.2
49354.1
47975
312273
308769
305555
302599
299861
297298
294873
292559
290335
288188
286103
284072
282086
280140
278229
276347
274491
272659
270847
269055
267280
265521
263777
262048
260331
258627
256935
255253
253583
251923
250273
248634
247004
245384
243773
242171
240578
238993
237417
235848
234286
232731
231183
229640
228104
226573
225048
223528
222013
220504
219000
217501
216007
214519
213036
211558
210086
208619
207158
205702
204251
202806
201365
199930
198500
197074
195654
194239
192830
191426
190026
188633
187244
185861
184482
183110
181743
180383
179029
177682
176342
175009
173683
172362
171046
169735
168428
167126
165828
164533
163242
161953
160668
159386
158107
156833
155563
154298
153038
151783
150534
149290
148052
146819
145592
144372
143157
141948
140745
139547
138355
137167
135985
134808
133638
132473
131315
130163
129018
127878
126745
125618
124496
123380
122269
121164
120064
118969
117877
116788
115704
114621
113543
112467
111396
110328
109266
108207
107154
106104
105061
104022
102989
101960
100937
99917.4
98903.7
97892.9
96887.8
95886.4
94891.2
93898.4
92911.3
91927.1
90946.9
89968.3
88994.2
88022.1
87054.8
86091.9
85135.5
84183.1
83237.6
82296.5
81362.5
80432
79507.7
78586.9
77670.2
76756.3
75846.2
74939.3
74035.6
73135.4
72240
71347.4
70460.6
69573.9
68693.5
67809.5
66932.2
66047
65169.7
64279
63399.5
62497.1
61610.8
60688.9
59788.4
58834
57907
56902
55928.9
54848.8
53797.4
52622.3
51443.9
50181
48872.5
47533.3
313164
309745
306556
303580
300793
298167
295674
293292
291005
288797
286656
284574
282542
280553
278602
276685
274797
272936
271098
269282
267486
265708
263946
262200
260469
258752
257048
255356
253676
252008
250350
248703
247067
245440
243824
242216
240618
239028
237447
235873
234307
232748
231197
229651
228112
226579
225052
223530
222014
220504
218999
217499
216006
214517
213034
211557
210085
208619
207158
205702
204252
202807
201367
199933
198503
197079
195660
194246
192836
191432
190033
188639
187249
185865
184486
183113
181746
180385
179032
177685
176345
175012
173686
172365
171050
169740
168434
167132
165835
164541
163250
161962
160678
159396
158119
156845
155576
154312
153054
151801
150553
149311
148074
146842
145616
144396
143181
141972
140769
139569
138376
137187
136004
134826
133655
132489
131331
130178
129033
127893
126761
125633
124512
123395
122285
121179
120080
118984
117892
116803
115718
114635
113556
112480
111409
110341
109279
108221
107168
106119
105077
104039
103008
101980
100958
99939.6
98927.1
97917
96912.9
95911.9
94917.2
93923.6
92937.3
91951.8
90971.3
89990.9
89016
88040.6
87071.7
86105.7
85146.8
84190.7
83243.2
82298.4
81362.5
80428
79501
78575.3
77654.4
76733
75817.3
74900.5
73990.2
73078.8
72175.4
71269.9
70374.2
69472.3
68581.8
67680.4
66791
65885.9
64995.4
64082.7
63188.4
62263.2
61359.9
60414.6
59494.3
58516.9
57564.5
56539.7
55534.9
54443.8
53360.4
52194
51002
49765.2
48480.4
47168.8
313933
310583
307421
304438
301621
298950
296405
293969
291627
289367
287177
285049
282974
280946
278959
277009
275091
273202
271340
269501
267685
265888
264110
262349
260604
258874
257159
255457
253768
252091
250426
248772
247129
245496
243874
242261
240658
239063
237477
235899
234330
232767
231212
229664
228122
226587
225058
223535
222018
220506
219001
217501
216007
214518
213035
211558
210087
208621
207160
205705
204255
202811
201371
199937
198508
197084
195666
194252
192842
191438
190038
188643
187253
185868
184489
183115
181747
180386
179033
177686
176347
175014
173688
172368
171053
169743
168439
167138
165842
164549
163260
161973
160689
159408
158131
156858
155590
154327
153070
151818
150572
149332
148096
146865
145640
144420
143205
141995
140791
139590
138395
137205
136021
134843
133671
132505
131346
130193
129047
127907
126774
125646
124525
123408
122298
121192
120092
118995
117904
116814
115728
114645
113565
112489
111418
110350
109288
108230
107177
106130
105089
104052
103022
101996
100976
99958
98946
97936.4
96932.7
95931.6
94937.3
93942.8
92956.9
91970.7
90989
90007.7
89031.7
88053.7
87083
86114.3
85152.6
84193.5
83243.3
82295.9
81357.1
80419.2
79489.2
78559.3
77634
76706.3
75784.1
74859.7
73941.6
73021
72108.5
71192.7
70286.8
69372.7
68470
67555
66650.8
65731.1
64823.3
63896.2
62982
62043.3
61118.2
60159.7
59214.7
58226.2
57247.8
56213.1
55184.5
54090.2
52989.1
51834.3
50641.7
49420.1
48151.1
46858.9
314603
311309
308174
305192
302356
299653
297068
294588
292201
289896
287663
285493
283380
281316
279296
277316
275370
273456
271571
269711
267875
266061
264267
262491
260733
258992
257266
255554
253856
252171
250499
248838
247189
245551
243923
242305
240697
239098
237508
235927
234353
232788
231230
229679
228135
226598
225067
223542
222024
220512
219005
217505
216010
214522
213039
211562
210090
208624
207164
205709
204259
202815
201376
199942
198513
197089
195670
194256
192846
191441
190041
188645
187255
185869
184489
183115
181747
180386
179033
177686
176347
175014
173689
172369
171055
169746
168442
167143
165848
164557
163269
161983
160700
159420
158143
156870
155603
154340
153084
151834
150590
149350
148116
146885
145661
144440
143226
142015
140809
139608
138411
137220
136035
134856
133684
132518
131359
130206
129060
127919
126785
125656
124534
123417
122306
121199
120099
119002
117909
116819
115732
114648
113569
112492
111420
110353
109291
108233
107181
106135
105095
104061
103032
102008
100988
99971.6
98959.6
97949.9
96946.2
95945
94950.9
93955
92968.9
91982.4
90999
90017.8
89040.1
88060.8
87088.1
86117.1
85152
84190.6
83236.8
82287.9
81345.1
80405.4
79472
78538.6
77608.4
76676
75747.7
74817.3
73890.8
72962.4
72040.7
71116.4
70199.5
69276.4
68360
67434.8
66515.1
65584
64658.3
63720.3
62788
61839
60894.5
59926.8
58962
57964.9
56968.4
55926.9
54883.2
53791
52678.9
51532.8
50341.1
49126.6
47869.4
46592.5
315191
311942
308831
305854
303007
300281
297665
295150
292725
290382
288111
285906
283758
281662
279613
277605
275633
273696
271789
269910
268056
266225
264416
262627
260857
259104
257368
255647
253941
252249
250569
248902
247247
245603
243971
242348
240736
239133
237539
235954
234377
232809
231248
229695
228149
226610
225077
223551
222032
220519
219012
217511
216016
214527
213044
211566
210094
208628
207168
205713
204263
202818
201379
199945
198515
197091
195672
194257
192847
191441
190041
188644
187253
185867
184487
183113
181745
180384
179030
177684
176344
175012
173687
172368
171055
169747
168444
167146
165853
164564
163277
161992
160710
159430
158153
156880
155613
154351
153096
151847
150603
149364
148131
146901
145677
144456
143241
142030
140823
139620
138423
137230
136045
134865
133693
132527
131368
130214
129068
127927
126792
125662
124538
123419
122307
121200
120099
119001
117908
116817
115729
114645
113565
112488
111417
110350
109288
108231
107181
106135
105097
104064
103037
102014
100995
99979.4
98967.4
97957.4
96953.1
95951.5
94956.8
93960.1
92974.3
91986.3
91001.4
90021.3
89041.3
88062
87086.3
86115.9
85145.3
84184
83224.2
82275.3
81327.3
80387.3
79450
78515
77578.7
76643.1
75707
74772.5
73838.3
72903.9
71972.9
71043.2
70114.1
69185.8
68254.8
67322.8
66388
65447.7
64506.5
63558.4
62612
61655.1
60695.1
59720.8
58740.8
57738.5
56728.4
55683.2
54627.6
53538.9
52417.3
51274.5
50084.6
48874.3
47628.2
46364.8
315709
312495
309406
306435
303581
300839
298200
295656
293201
290825
288523
286286
284108
281983
279907
277873
275879
273920
271993
270096
268225
266379
264557
262755
260974
259211
257465
255735
254021
252322
250636
248963
247303
245654
244016
242389
240773
239166
237569
235981
234402
232830
231267
229712
228164
226623
225089
223561
222041
220526
219018
217517
216021
214531
213048
211570
210098
208631
207170
205715
204265
202820
201380
199945
198515
197090
195670
194254
192844
191438
190037
188640
187249
185863
184482
183108
181741
180380
179026
177679
176340
175008
173683
172364
171052
169745
168444
167148
165856
164568
163283
161998
160716
159436
158160
156887
155620
154359
153104
151854
150611
149373
148140
146911
145686
144466
143250
142037
140829
139625
138427
137234
136048
134868
133696
132530
131371
130218
129071
127929
126794
125662
124536
123416
122302
121194
120092
118994
117900
116808
115720
114635
113555
112479
111408
110342
109281
108226
107177
106133
105096
104064
103038
102015
100997
99981.1
98969.7
97957.7
96953.9
95951.9
94954.9
93959.8
92972
91983.6
90997.9
90019.4
89036
88058.2
87078.8
86111.4
85132.9
84174.9
83206
82260.8
81304.4
80367.7
79423.3
78489.4
77544.5
76608.7
75664.1
74726.5
73784.1
72846.9
71906.3
70975.9
70033.5
69103.4
68158.7
67221.6
66274.1
65324.2
64373.1
63417
62458.9
61495.5
60522.4
59544
58551.3
57546.3
56522
55475.7
54407.7
53320.1
52191.6
51048.2
49862.5
48657.4
47422.7
46171.8
316164
312979
309908
306944
304087
301332
298675
296108
293628
291225
288895
286631
284427
282277
280176
278121
276105
274127
272182
270268
268382
266523
264687
262874
261082
259310
257555
255818
254096
252390
250698
249020
247355
245701
244059
242429
240809
239199
237598
236007
234425
232852
231286
229728
228178
226636
225100
223571
222049
220534
219025
217522
216026
214535
213051
211572
210099
208632
207171
205715
204264
202818
201377
199942
198511
197085
195665
194248
192837
191431
190029
188633
187241
185855
184475
183102
181734
180373
179019
177672
176333
175001
173676
172358
171047
169741
168442
167147
165857
164570
163285
162001
160718
159438
158162
156889
155622
154360
153105
151856
150613
149375
148142
146913
145688
144467
143250
142037
140828
139624
138425
137232
136046
134865
133693
132527
131368
130215
129068
127926
126790
125657
124529
123406
122291
121181
120078
118979
117885
116793
115705
114620
113541
112465
111396
110331
109272
108219
107171
106128
105092
104060
103034
102011
100994
99976.2
98964.8
97951.7
96947.3
95945.5
94946.2
93953.4
92962.8
91975.5
90989.7
90011.7
89026.1
88050.1
87067.8
86101.1
85118.7
84160.8
83184.7
82241.9
81276.1
80341.9
79391.2
78460.4
77505.2
76570.7
75617.9
74681.3
73731.5
72792.3
71843.5
70913.7
69960.1
69028.4
68073.5
67130.1
66174.6
65214.6
64256.1
63293.5
62325.6
61362.5
60377.2
59396.4
58387.2
57381.6
56343.9
55296.4
54217
53125.9
51995.1
50851.4
49671.3
48472.5
47248.9
46009.7
316562
313401
310345
307387
304529
301765
299093
296509
294007
291583
289229
286942
284715
282543
280422
278346
276312
274316
272355
270426
268526
266654
264807
262984
261182
259401
257638
255894
254166
252454
250756
249073
247403
245745
244099
242465
240842
239229
237626
236032
234447
232871
231304
229744
228192
226648
225110
223580
222056
220540
219030
217526
216028
214537
213052
211572
210099
208631
207169
205712
204260
202814
201372
199936
198504
197078
195657
194240
192829
191422
190021
188624
187232
185847
184467
183094
181727
180365
179011
177664
176324
174991
173667
172349
171039
169734
168436
167143
165854
164567
163282
161997
160715
159435
158158
156884
155618
154356
153101
151850
150608
149370
148137
146908
145682
144460
143242
142029
140820
139616
138418
137224
136038
134857
133685
132519
131360
130207
129060
127918
126780
125646
124517
123392
122275
121164
120059
118959
117864
116771
115684
114600
113522
112448
111380
110317
109260
108208
107162
106120
105084
104053
103027
102002
100986
99966.4
98954.2
97939.1
96935.2
95931.7
94931.1
93940.2
92948.5
91963.1
90977.8
90000.1
89014.9
88037.2
87055.4
86086.8
85103
84140.8
83163.9
82218
81248.1
80310.7
79357.3
78426.9
77467.2
76530.8
75573.2
74633.8
73678.5
72738.8
71785.2
70853.5
69892.8
68957.9
67996.1
67048.7
66086.3
65120.2
64155.5
63187.4
62214.8
61246.3
60247.3
59264.2
58245.8
57237
56190.3
55137.7
54050.2
52956.2
51825.2
50683.3
49509
48316.8
47103.6
45875.1
316909
313767
310723
307771
304911
302141
299458
296859
294341
291898
289525
287218
284972
282781
280641
278547
276497
274485
272510
270568
268656
266773
264916
263083
261273
259484
257714
255963
254229
252512
250809
249121
247447
245786
244136
242499
240872
239257
237651
236055
234468
232890
231320
229758
228204
226658
225119
223587
222062
220544
219033
217528
216029
214537
213051
211570
210096
208627
207164
205706
204254
202807
201365
199928
198496
197069
195648
194231
192819
191413
190011
188614
187223
185838
184459
183086
181719
180358
179003
177655
176314
174981
173656
172339
171028
169725
168428
167135
165846
164559
163274
161988
160706
159425
158148
156874
155608
154346
153090
151839
150597
149358
148126
146895
145670
144446
143229
142015
140807
139603
138405
137212
136026
134845
133673
132506
131348
130194
129048
127904
126766
125630
124501
123375
122256
121143
120037
118935
117839
116746
115660
114576
113500
112427
111361
110299
109244
108192
107148
106106
105071
104040
103014
101989
100973
99951.7
98938.6
97921.6
96917.1
95912.5
94913.8
93921.2
92931.6
91944.1
90960.2
89983.5
89000.3
88020
87043.6
86069.7
85086.1
84116.2
83141.7
82187
81217.9
80273.9
79321.5
78388.5
77425.5
76493.4
75530.7
74588.6
73627.3
72682.6
71727
70790.4
69828.2
68891
67925.3
66976.4
66008.6
65038.3
64068.8
63096.4
62117.4
61138.2
60138.7
59148
58123.3
57106.7
56055.8
54996.4
53906.2
52811.3
51681.4
50542.1
49373.2
48187.6
46983.7
45765
317206
314080
311046
308099
305239
302464
299772
297162
294630
292172
289783
287460
285197
282990
280834
278725
276660
274636
272648
270694
268772
266878
265012
263171
261353
259557
257782
256025
254286
252564
250857
249165
247487
245822
244170
242529
240900
239281
237673
236075
234486
232905
231334
229770
228214
226666
225125
223592
222066
220546
219033
217527
216028
214534
213047
211566
210091
208621
207158
205699
204246
202798
201356
199919
198487
197060
195638
194221
192810
191403
190001
188605
187215
185830
184451
183078
181711
180350
178994
177646
176305
174971
173645
172327
171016
169713
168416
167123
165833
164545
163259
161973
160691
159410
158133
156859
155593
154331
153075
151824
150582
149343
148110
146879
145653
144429
143212
141997
140790
139587
138390
137197
136011
134830
133657
132490
131332
130178
129031
127887
126749
125612
124482
123354
122235
121120
120013
118910
117813
116720
115634
114552
113476
112404
111340
110279
109225
108174
107130
106089
105055
104023
102998
101972
100957
99933.8
98919.4
97900.5
96896
95887.3
94892.3
93899.5
92911.7
91922.2
90940.1
89962
88981.5
87997.6
87029
86048.3
85067.4
84093.9
83121.5
82150.5
81186.3
80233.7
79279.3
78345.8
77385.5
76447.7
75485.8
74542.5
73575.2
72623.1
71669.2
70724.8
69765.6
68827.4
67858.1
66909.5
65939.2
64966.1
63994.8
63016.7
62034.3
61046.7
60043.4
59039.8
58017
56990
55938.5
54874
53785.2
52690
51562
50425
49260.8
48082.1
46886.2
45676.1
317459
314345
311319
308374
305513
302734
300036
297417
294874
292405
290004
287667
285390
283169
281000
278879
276802
274765
272767
270803
268871
266970
265096
263248
261424
259622
257841
256079
254335
252609
250898
249203
247522
245854
244198
242555
240923
239303
237692
236092
234500
232918
231345
229779
228222
226672
225130
223595
222067
220546
219032
217525
216024
214530
213042
211560
210084
208614
207150
205691
204238
202790
201347
199910
198477
197050
195628
194212
192800
191393
189992
188596
187206
185822
184443
183071
181704
180342
178986
177637
176295
174961
173634
172315
171004
169700
168401
167108
165816
164527
163240
161955
160673
159392
158114
156841
155575
154312
153056
151806
150564
149325
148092
146861
145635
144411
143193
141979
140773
139569
138373
137180
135994
134813
133639
132472
131314
130160
129013
127868
126729
125591
124461
123333
122213
121097
119989
118885
117788
116694
115609
114527
113452
112381
111317
110258
109204
108154
107111
106070
105036
104003
102979
101953
100936
99911.5
98898.4
97880
96870.7
95862.2
94869.5
93873.5
92888.4
91898.1
90915.3
89937.7
88961.8
87976.8
87007.3
86018.4
85049.5
84066.1
83089.7
82113.1
81157.7
80198.4
79243.3
78300.3
77341
76394.7
75439.2
74487.4
73522.8
72565
71614.8
70662
69707.4
68761.4
67797.6
66846.1
65877.1
64903.8
63934.1
62950.1
61960.5
60963.3
59959
58947.2
57923.1
56889
55841.5
54773
53686.8
52590.7
51464.7
50329.6
49170
47997.4
46807.8
45605.6
317669
314564
311542
308599
305737
302956
300253
297628
295077
292598
290187
287839
285551
283319
281139
279007
276920
274874
272867
270895
268956
267047
265167
263313
261483
259676
257891
256125
254377
252647
250933
249235
247551
245880
244222
242577
240943
239320
237707
236105
234512
232928
231353
229786
228227
226676
225132
223595
222066
220544
219029
217521
216019
214524
213036
211554
210078
208607
207143
205684
204230
202782
201339
199901
198469
197041
195619
194202
192791
191384
189983
188588
187198
185814
184436
183064
181697
180334
178978
177629
176286
174951
173623
172303
170991
169686
168385
167090
165797
164507
163219
161934
160651
159371
158094
156822
155555
154292
153037
151788
150545
149307
148074
146843
145617
144394
143175
141962
140755
139552
138355
137163
135976
134795
133621
132455
131295
130142
128994
127850
126709
125573
124441
123313
122193
121078
119968
118864
117765
116672
115585
114504
113428
112359
111294
110236
109183
108134
107090
106050
105015
103983
102957
101931
100911
99887.1
98873.4
97855.1
96849.3
95841.9
94844.4
93849.5
92863.1
91872.3
90893
89913.6
88937.1
87952.2
86983.5
85991.4
85019.2
84026.1
83061
82082.3
81126.7
80164.8
79205.5
78246.4
77294.3
76344.8
75390.4
74427.8
73475.1
72515.7
71562.8
70607.1
69656.1
68701
67747.4
66786.4
65822.1
64849.5
63879.2
62888.3
61896
60894.7
59884.6
58868
57845.2
56808.5
55761.1
54693.8
53610
52512.4
51388.3
50254.1
49098.8
47930.3
46745.6
45550.5
317836
314738
311718
308775
305913
303130
300424
297794
295238
292752
290333
287977
285680
283440
281251
279111
277015
274962
272947
270969
269023
267109
265224
263365
261531
259720
257931
256161
254411
252678
250961
249260
247574
245901
244241
242594
240958
239333
237719
236115
234520
232935
231358
229790
228230
226678
225133
223595
222065
220542
219026
217517
216015
214520
213031
211548
210072
208601
207136
205677
204223
202775
201332
199894
198461
197034
195611
194194
192783
191376
189976
188580
187191
185807
184429
183057
181690
180328
178972
177622
176279
174943
173614
172293
170978
169671
168369
167072
165777
164487
163198
161914
160630
159351
158074
156803
155535
154275
153019
151771
150528
149291
148057
146827
145600
144378
143159
141947
140738
139537
138339
137147
135960
134780
133604
132439
131278
130126
128976
127833
126692
125556
124424
123297
122176
121062
119951
118847
117747
116654
115566
114485
113407
112338
111273
110216
109162
108114
107069
106030
104992
103961
102932
101906
100884
99862.8
98847.7
97834.7
96825.9
95818.6
94822
93824.3
92835.7
91848.9
90869.8
89885.2
88908.1
87924.8
86951
85957.5
84986.6
83997.9
83036.8
82045.8
81093.1
80121.9
79161.2
78207.7
77255.2
76293.7
75340
74376.1
73428.6
72467.4
71518.2
70561.3
69611.3
68652
67703.5
66733.1
65774.3
64800.2
63833.2
62833.7
61842.3
60835
59826.7
58807.8
57783.5
56744.7
55698.7
54635.5
53551.7
52453
51330.3
50196.6
49044.3
47878.4
46698.1
45508.3
317961
314867
311848
308906
306044
303259
300552
297919
295358
292867
290442
288080
285777
283530
281335
279188
277087
275028
273008
271024
269074
267156
265267
263404
261567
259753
257961
256189
254436
252700
250982
249279
247590
245916
244255
242606
240969
239343
237727
236122
234526
232940
231362
229793
228232
226679
225133
223595
222064
220541
219024
217515
216013
214517
213027
211544
210067
208597
207131
205672
204218
202769
201326
199888
198455
197027
195605
194188
192776
191370
189969
188574
187185
185801
184424
183051
181684
180322
178966
177616
176273
174937
173607
172285
170969
169660
168355
167057
165761
164471
163181
161897
160613
159335
158058
156788
155520
154261
153004
151757
150513
149277
148042
146814
145586
144366
143146
141935
140725
139525
138326
137136
135947
134768
133592
132426
131264
130113
128963
127821
126679
125546
124412
123287
122165
121051
119939
118836
117735
116642
115551
114470
113390
112321
111254
110197
109142
108095
107048
106009
104971
103939
102908
101883
100858
99841.6
98823.7
97814.4
96803.6
95798.9
94798.4
93801.5
92812.4
91824.5
90842
89856.8
88880
87894.9
86917.4
85929.4
84956.5
83967.2
83007.4
82014
81060.5
80081.4
79127.5
78167.8
77211.1
76250.5
75298.8
74335.4
73388.2
72427.8
71481.4
70522.2
69574.1
68613
67663.5
66692.1
65736.9
64759.1
63790.1
62786.8
61801.3
60788.4
59781.4
58760.8
57737.4
56703.3
55655.2
54594.9
53508.1
52410.9
51288.5
50155.2
49005.3
47840.8
46663.9
45477.5
318041
314951
311934
308993
306131
303346
300637
298002
295438
292943
290515
288148
285841
283590
281390
279240
277135
275072
273048
271061
269109
267187
265295
263430
261591
259775
257981
256207
254452
252715
250995
249291
247601
245926
244263
242614
240975
239349
237732
236126
234530
232943
231365
229795
228233
226680
225134
223595
222064
220540
219023
217514
216011