/*--------------------------------*- C++ -*----------------------------------*\
| =========                 |                                                 |
| \\      /  F ield         | OpenFOAM: The Open Source CFD Toolbox           |
|  \\    /   O peration     | Version:  2.4.0                                 |
|   \\  /    A nd           | Web:      www.OpenFOAM.org                      |
|    \\/     M anipulation  |                                                 |
\*---------------------------------------------------------------------------*/
FoamFile
{
    version     2.0;
    format      ascii;
    class       volScalarField;
    location    "0.2";
    object      pPrime2Mean;
}
// * * * * * * * * * * * * * * * * * * * * * * * * * * * * * * * * * * * * * //

dimensions      [0 4 -4 0 0 0 0];

internalField   nonuniform List<scalar> 
8800
(
3.23167e+06
3.15012e+06
3.06261e+06
2.97585e+06
2.89027e+06
2.80593e+06
2.72284e+06
2.641e+06
2.5604e+06
2.48103e+06
2.4029e+06
2.32599e+06
2.25028e+06
2.17573e+06
2.10226e+06
2.02973e+06
1.95788e+06
1.88613e+06
1.81321e+06
1.73505e+06
3.23179e+06
3.15013e+06
3.0626e+06
2.97584e+06
2.89027e+06
2.80593e+06
2.72284e+06
2.641e+06
2.5604e+06
2.48103e+06
2.4029e+06
2.32599e+06
2.25028e+06
2.17574e+06
2.10228e+06
2.02977e+06
1.95795e+06
1.8863e+06
1.81362e+06
1.73636e+06
3.23186e+06
3.15013e+06
3.06258e+06
2.97583e+06
2.89026e+06
2.80593e+06
2.72284e+06
2.641e+06
2.5604e+06
2.48104e+06
2.40291e+06
2.326e+06
2.2503e+06
2.17576e+06
2.10232e+06
2.02985e+06
1.9581e+06
1.88661e+06
1.81435e+06
1.73893e+06
3.23191e+06
3.15012e+06
3.06256e+06
2.97582e+06
2.89026e+06
2.80593e+06
2.72284e+06
2.641e+06
2.5604e+06
2.48104e+06
2.40291e+06
2.32601e+06
2.25031e+06
2.17579e+06
2.10237e+06
2.02996e+06
1.95832e+06
1.88706e+06
1.81538e+06
1.74193e+06
3.23196e+06
3.15012e+06
3.06254e+06
2.9758e+06
2.89025e+06
2.80593e+06
2.72284e+06
2.641e+06
2.5604e+06
2.48104e+06
2.40292e+06
2.32602e+06
2.25033e+06
2.17583e+06
2.10245e+06
2.0301e+06
1.9586e+06
1.88762e+06
1.81661e+06
1.74502e+06
3.23199e+06
3.15013e+06
3.06253e+06
2.97579e+06
2.89024e+06
2.80592e+06
2.72284e+06
2.641e+06
2.5604e+06
2.48104e+06
2.40292e+06
2.32603e+06
2.25036e+06
2.17588e+06
2.10254e+06
2.03027e+06
1.95892e+06
1.88826e+06
1.81796e+06
1.74804e+06
3.23202e+06
3.15013e+06
3.06252e+06
2.97578e+06
2.89024e+06
2.80592e+06
2.72284e+06
2.641e+06
2.5604e+06
2.48104e+06
2.40293e+06
2.32605e+06
2.25039e+06
2.17593e+06
2.10264e+06
2.03046e+06
1.95929e+06
1.88897e+06
1.81937e+06
1.75092e+06
3.23204e+06
3.15013e+06
3.06251e+06
2.97577e+06
2.89024e+06
2.80592e+06
2.72284e+06
2.641e+06
2.5604e+06
2.48105e+06
2.40294e+06
2.32607e+06
2.25042e+06
2.17599e+06
2.10276e+06
2.03067e+06
1.95968e+06
1.8897e+06
1.82079e+06
1.7536e+06
3.23206e+06
3.15014e+06
3.06251e+06
2.97577e+06
2.89023e+06
2.80592e+06
2.72284e+06
2.641e+06
2.5604e+06
2.48105e+06
2.40295e+06
2.32609e+06
2.25046e+06
2.17606e+06
2.10287e+06
2.03089e+06
1.96008e+06
1.89046e+06
1.82219e+06
1.75607e+06
3.23206e+06
3.15014e+06
3.06251e+06
2.97576e+06
2.89023e+06
2.80592e+06
2.72284e+06
2.641e+06
2.56041e+06
2.48106e+06
2.40296e+06
2.32611e+06
2.2505e+06
2.17613e+06
2.103e+06
2.03111e+06
1.96049e+06
1.8912e+06
1.82352e+06
1.75832e+06
3.23206e+06
3.15014e+06
3.06251e+06
2.97577e+06
2.89023e+06
2.80592e+06
2.72284e+06
2.641e+06
2.56041e+06
2.48107e+06
2.40297e+06
2.32613e+06
2.25053e+06
2.17619e+06
2.10312e+06
2.03133e+06
1.96089e+06
1.89192e+06
1.82478e+06
1.76034e+06
3.23206e+06
3.15014e+06
3.06251e+06
2.97577e+06
2.89023e+06
2.80593e+06
2.72284e+06
2.641e+06
2.56041e+06
2.48107e+06
2.40298e+06
2.32615e+06
2.25057e+06
2.17626e+06
2.10324e+06
2.03155e+06
1.96128e+06
1.8926e+06
1.82594e+06
1.76215e+06
3.23204e+06
3.15014e+06
3.06252e+06
2.97577e+06
2.89024e+06
2.80593e+06
2.72284e+06
2.64101e+06
2.56042e+06
2.48108e+06
2.40299e+06
2.32617e+06
2.2506e+06
2.17632e+06
2.10335e+06
2.03175e+06
1.96164e+06
1.89324e+06
1.82699e+06
1.76374e+06
3.23202e+06
3.15013e+06
3.06252e+06
2.97578e+06
2.89024e+06
2.80593e+06
2.72285e+06
2.64101e+06
2.56042e+06
2.48108e+06
2.403e+06
2.32618e+06
2.25064e+06
2.17638e+06
2.10346e+06
2.03194e+06
1.96198e+06
1.89381e+06
1.82792e+06
1.76513e+06
3.23199e+06
3.15013e+06
3.06253e+06
2.97579e+06
2.89025e+06
2.80593e+06
2.72285e+06
2.64101e+06
2.56042e+06
2.48109e+06
2.40301e+06
2.3262e+06
2.25067e+06
2.17643e+06
2.10355e+06
2.03211e+06
1.96227e+06
1.89431e+06
1.82873e+06
1.76631e+06
3.23196e+06
3.15012e+06
3.06255e+06
2.9758e+06
2.89025e+06
2.80593e+06
2.72285e+06
2.64101e+06
2.56043e+06
2.4811e+06
2.40302e+06
2.32622e+06
2.25069e+06
2.17648e+06
2.10364e+06
2.03226e+06
1.96253e+06
1.89474e+06
1.82941e+06
1.76729e+06
3.23191e+06
3.15012e+06
3.06256e+06
2.97582e+06
2.89026e+06
2.80593e+06
2.72285e+06
2.64102e+06
2.56043e+06
2.4811e+06
2.40303e+06
2.32623e+06
2.25071e+06
2.17652e+06
2.10371e+06
2.03238e+06
1.96274e+06
1.89509e+06
1.82996e+06
1.76807e+06
3.23186e+06
3.15013e+06
3.06258e+06
2.97583e+06
2.89027e+06
2.80594e+06
2.72285e+06
2.64102e+06
2.56044e+06
2.48111e+06
2.40304e+06
2.32624e+06
2.25073e+06
2.17655e+06
2.10376e+06
2.03248e+06
1.9629e+06
1.89535e+06
1.83037e+06
1.76865e+06
3.23179e+06
3.15013e+06
3.06261e+06
2.97585e+06
2.89027e+06
2.80594e+06
2.72286e+06
2.64102e+06
2.56044e+06
2.48111e+06
2.40304e+06
2.32624e+06
2.25074e+06
2.17657e+06
2.10379e+06
2.03254e+06
1.96301e+06
1.89553e+06
1.83064e+06
1.76903e+06
3.23167e+06
3.15012e+06
3.06261e+06
2.97585e+06
2.89028e+06
2.80594e+06
2.72286e+06
2.64102e+06
2.56044e+06
2.48111e+06
2.40304e+06
2.32625e+06
2.25075e+06
2.17658e+06
2.10381e+06
2.03257e+06
1.96306e+06
1.89562e+06
1.83078e+06
1.76922e+06
1.66422e+06
1.64515e+06
1.6306e+06
1.61802e+06
1.60636e+06
1.59527e+06
1.58457e+06
1.57417e+06
1.564e+06
1.55401e+06
1.54417e+06
1.53445e+06
1.52483e+06
1.5153e+06
1.50586e+06
1.49648e+06
1.48715e+06
1.47789e+06
1.46866e+06
1.45948e+06
1.45034e+06
1.44123e+06
1.43216e+06
1.42312e+06
1.41411e+06
1.40514e+06
1.3962e+06
1.38729e+06
1.37842e+06
1.36958e+06
1.36077e+06
1.352e+06
1.34326e+06
1.33456e+06
1.3259e+06
1.31728e+06
1.30869e+06
1.30013e+06
1.2916e+06
1.28311e+06
1.27464e+06
1.2662e+06
1.25778e+06
1.24939e+06
1.24103e+06
1.23269e+06
1.22437e+06
1.21609e+06
1.20782e+06
1.19959e+06
1.19138e+06
1.1832e+06
1.17504e+06
1.16692e+06
1.15882e+06
1.15075e+06
1.14271e+06
1.1347e+06
1.12671e+06
1.11876e+06
1.11083e+06
1.10293e+06
1.09506e+06
1.08722e+06
1.07941e+06
1.07162e+06
1.06387e+06
1.05614e+06
1.04845e+06
1.04078e+06
1.03315e+06
1.02554e+06
1.01796e+06
1.01041e+06
1.00289e+06
995392
987926
980490
973084
965710
958369
951061
943785
936539
929319
922124
914951
907802
900676
893573
886492
879431
872389
865368
858369
851393
844444
837522
830629
823766
816935
810136
803371
796643
789950
783292
776666
770073
763510
756975
750468
743989
737536
731111
724715
718347
712006
705694
699409
693152
686922
680719
674543
668394
662272
656176
650108
644067
638053
632068
626110
620180
614279
608407
602564
596749
590965
585208
579482
573785
568117
562478
556869
551288
545737
540214
534720
529255
523819
518411
513032
507681
502357
497062
491793
486552
481337
476149
470986
465850
460740
455656
450598
445568
440563
435586
430637
425716
420822
415959
411119
406312
401526
396774
392040
387338
382652
377998
373356
368746
364145
359577
355015
350484
345958
341457
336958
332477
327990
323510
319011
314502
309955
305370
300708
295950
291024
285841
280137
273434
1.6778e+06
1.65748e+06
1.64091e+06
1.62665e+06
1.61374e+06
1.60168e+06
1.5902e+06
1.57914e+06
1.56842e+06
1.55795e+06
1.5477e+06
1.53761e+06
1.52767e+06
1.51786e+06
1.50816e+06
1.49855e+06
1.48902e+06
1.47957e+06
1.47018e+06
1.46085e+06
1.45157e+06
1.44234e+06
1.43315e+06
1.42402e+06
1.41492e+06
1.40587e+06
1.39685e+06
1.38788e+06
1.37895e+06
1.37005e+06
1.3612e+06
1.35238e+06
1.3436e+06
1.33487e+06
1.32617e+06
1.31752e+06
1.3089e+06
1.30031e+06
1.29176e+06
1.28324e+06
1.27475e+06
1.26629e+06
1.25786e+06
1.24946e+06
1.24108e+06
1.23273e+06
1.22441e+06
1.21611e+06
1.20784e+06
1.1996e+06
1.19139e+06
1.18321e+06
1.17505e+06
1.16693e+06
1.15883e+06
1.15077e+06
1.14273e+06
1.13472e+06
1.12674e+06
1.11879e+06
1.11087e+06
1.10298e+06
1.09512e+06
1.08728e+06
1.07948e+06
1.0717e+06
1.06395e+06
1.05624e+06
1.04854e+06
1.04088e+06
1.03325e+06
1.02565e+06
1.01807e+06
1.01052e+06
1.003e+06
995505
988040
980604
973199
965827
958488
951183
943908
936663
929444
922248
915076
907926
900800
893697
886614
879550
872504
865477
858472
851491
844535
837606
830706
823836
816998
810194
803424
796691
789994
783331
776702
770105
763538
756999
750487
744002
737544
731115
724715
718343
712000
705684
699397
693138
686905
680701
674523
668372
662249
656152
650083
644042
638028
632043
626085
620156
614256
608384
602542
596728
590944
585189
579463
573766
568098
562459
556850
551269
545717
540193
534698
529232
523793
518384
513001
507648
502320
497021
491747
486500
481278
476083
470912
465767
460647
455552
450482
445438
440417
435425
430455
425515
420598
415712
410846
406012
401195
396411
391641
386902
382174
377476
372784
368120
363461
358827
354193
349582
344969
340370
335766
331165
326548
321919
317257
312558
307797
302957
297998
292872
287500
281722
275302
267670
1.68722e+06
1.66706e+06
1.64973e+06
1.63445e+06
1.62061e+06
1.60775e+06
1.59558e+06
1.58394e+06
1.5727e+06
1.56179e+06
1.55114e+06
1.5407e+06
1.53046e+06
1.52037e+06
1.51041e+06
1.50058e+06
1.49085e+06
1.48122e+06
1.47167e+06
1.46219e+06
1.45278e+06
1.44343e+06
1.43413e+06
1.4249e+06
1.41572e+06
1.40658e+06
1.3975e+06
1.38846e+06
1.37947e+06
1.37052e+06
1.36162e+06
1.35276e+06
1.34394e+06
1.33517e+06
1.32644e+06
1.31775e+06
1.3091e+06
1.30049e+06
1.29191e+06
1.28337e+06
1.27486e+06
1.26638e+06
1.25794e+06
1.24952e+06
1.24113e+06
1.23277e+06
1.22444e+06
1.21614e+06
1.20786e+06
1.19962e+06
1.19141e+06
1.18322e+06
1.17507e+06
1.16695e+06
1.15886e+06
1.15079e+06
1.14276e+06
1.13476e+06
1.12678e+06
1.11884e+06
1.11093e+06
1.10304e+06
1.09519e+06
1.08736e+06
1.07956e+06
1.07179e+06
1.06405e+06
1.05634e+06
1.04865e+06
1.04099e+06
1.03336e+06
1.02576e+06
1.01819e+06
1.01064e+06
1.00312e+06
995621
988155
980718
973313
965941
958604
951300
944027
936782
929563
922367
915195
908045
900920
893816
886730
879662
872612
865580
858569
851581
844619
837684
830778
823902
817059
810249
803475
796739
790037
783371
776738
770136
763564
757020
750502
744010
737547
731113
724708
718333
711986
705667
699377
693115
686880
680674
674495
668343
662219
656122
650052
644011
637997
632012
626055
620126
614226
608355
602513
596700
590917
585163
579437
573741
568073
562434
556824
551243
545690
540166
534669
529201
523760
518348
512963
507606
502276
496972
491692
486440
481211
476008
470829
465676
460546
455441
450358
445301
440266
435258
430270
425310
420370
415461
410569
405708
400862
396046
391241
386466
381697
376955
372216
367499
362783
358084
353383
348692
343998
339304
334599
329882
325143
320372
315558
310683
305728
300661
295452
290026
284326
278182
271425
263715
1.69439e+06
1.67476e+06
1.65722e+06
1.64138e+06
1.6269e+06
1.6134e+06
1.60066e+06
1.5885e+06
1.5768e+06
1.56547e+06
1.55445e+06
1.54369e+06
1.53315e+06
1.5228e+06
1.51261e+06
1.50256e+06
1.49264e+06
1.48283e+06
1.47312e+06
1.46349e+06
1.45395e+06
1.44449e+06
1.43509e+06
1.42576e+06
1.41649e+06
1.40728e+06
1.39812e+06
1.38902e+06
1.37997e+06
1.37097e+06
1.36202e+06
1.35312e+06
1.34427e+06
1.33546e+06
1.3267e+06
1.31798e+06
1.3093e+06
1.30066e+06
1.29206e+06
1.2835e+06
1.27497e+06
1.26647e+06
1.25801e+06
1.24958e+06
1.24118e+06
1.23281e+06
1.22447e+06
1.21617e+06
1.20789e+06
1.19964e+06
1.19143e+06
1.18325e+06
1.1751e+06
1.16698e+06
1.15889e+06
1.15083e+06
1.1428e+06
1.1348e+06
1.12683e+06
1.1189e+06
1.11099e+06
1.10311e+06
1.09526e+06
1.08744e+06
1.07965e+06
1.07189e+06
1.06415e+06
1.05644e+06
1.04876e+06
1.04111e+06
1.03348e+06
1.02588e+06
1.0183e+06
1.01075e+06
1.00323e+06
995731
988262
980824
973418
966047
958710
951407
944134
936890
929671
922475
915303
908155
901029
893924
886836
879763
872707
865669
858653
851660
844692
837751
830840
823960
817113
810298
803521
796782
790077
783408
776772
770166
763588
757038
750513
744015
737545
731105
724696
718315
711963
705641
699348
693083
686847
680639
674459
668307
662182
656085
650016
643974
637961
631975
626018
620089
614190
608319
602478
596665
590882
585129
579404
573708
568041
562403
556793
551211
545657
540132
534633
529163
523719
518304
512917
507556
502222
496912
491628
486369
481133
475924
470737
465575
460436
455321
450228
445159
440109
435085
430080
425101
420140
415208
410292
405404
400529
395682
390844
386031
381225
376438
371654
366885
362115
357353
352588
347821
343048
338263
333462
328636
323781
318879
313925
308890
303767
298503
293092
287437
281506
275166
268321
260803
1.70016e+06
1.68108e+06
1.66357e+06
1.64747e+06
1.63256e+06
1.6186e+06
1.60539e+06
1.59278e+06
1.58068e+06
1.56898e+06
1.55762e+06
1.54656e+06
1.53574e+06
1.52514e+06
1.51472e+06
1.50447e+06
1.49436e+06
1.48438e+06
1.47452e+06
1.46476e+06
1.45509e+06
1.44551e+06
1.43602e+06
1.42659e+06
1.41724e+06
1.40796e+06
1.39873e+06
1.38957e+06
1.38047e+06
1.37142e+06
1.36242e+06
1.35348e+06
1.34459e+06
1.33575e+06
1.32695e+06
1.3182e+06
1.3095e+06
1.30083e+06
1.29221e+06
1.28363e+06
1.27508e+06
1.26657e+06
1.25809e+06
1.24965e+06
1.24124e+06
1.23286e+06
1.22452e+06
1.21621e+06
1.20793e+06
1.19968e+06
1.19147e+06
1.18329e+06
1.17514e+06
1.16702e+06
1.15893e+06
1.15088e+06
1.14285e+06
1.13486e+06
1.12689e+06
1.11896e+06
1.11106e+06
1.10319e+06
1.09534e+06
1.08753e+06
1.07974e+06
1.07198e+06
1.06425e+06
1.05655e+06
1.04887e+06
1.04122e+06
1.03359e+06
1.02599e+06
1.01841e+06
1.01085e+06
1.00333e+06
995827
988355
980915
973509
966137
958801
951498
944226
936982
929763
922568
915396
908248
901123
894016
886925
879848
872787
865744
858723
851725
844752
837806
830891
824007
817155
810338
803558
796817
790110
783439
776800
770190
763609
757053
750521
744017
737541
731094
724678
718291
711934
705607
699310
693043
686805
680596
674416
668263
662138
656041
649973
643931
637918
631932
625975
620046
614147
608276
602435
596623
590841
585088
579364
573669
568002
562364
556754
551172
545618
540090
534589
529116
523670
518252
512862
507498
502158
496844
491554
486288
481046
475829
470635
465465
460317
455193
450090
445009
439947
434908
429886
424889
419909
414954
410015
405100
400198
395319
390450
385600
380757
375928
371101
366281
361460
356637
351810
346971
342123
337250
332362
327432
322472
317447
312372
307192
301927
296501
290927
285110
279032
272601
265782
258479
1.70502e+06
1.6864e+06
1.66903e+06
1.65281e+06
1.63763e+06
1.62332e+06
1.60974e+06
1.59677e+06
1.58431e+06
1.57229e+06
1.56063e+06
1.54928e+06
1.53821e+06
1.52737e+06
1.51675e+06
1.5063e+06
1.49602e+06
1.48588e+06
1.47587e+06
1.46598e+06
1.4562e+06
1.44651e+06
1.43691e+06
1.4274e+06
1.41797e+06
1.40861e+06
1.39933e+06
1.39011e+06
1.38095e+06
1.37185e+06
1.36282e+06
1.35383e+06
1.34491e+06
1.33603e+06
1.3272e+06
1.31843e+06
1.30969e+06
1.30101e+06
1.29236e+06
1.28376e+06
1.27519e+06
1.26667e+06
1.25818e+06
1.24972e+06
1.2413e+06
1.23292e+06
1.22457e+06
1.21626e+06
1.20798e+06
1.19973e+06
1.19151e+06
1.18333e+06
1.17518e+06
1.16707e+06
1.15898e+06
1.15093e+06
1.14291e+06
1.13492e+06
1.12696e+06
1.11903e+06
1.11113e+06
1.10326e+06
1.09542e+06
1.08761e+06
1.07983e+06
1.07207e+06
1.06435e+06
1.05664e+06
1.04897e+06
1.04131e+06
1.03368e+06
1.02608e+06
1.0185e+06
1.01094e+06
1.00341e+06
995901
988427
980986
973579
966207
958871
951568
944296
937052
929833
922639
915469
908322
901197
894091
886997
879916
872851
865804
858778
851774
844798
837848
830929
824042
817188
810368
803587
796843
790135
783463
776822
770210
763625
757063
750526
744015
737533
731080
724656
718263
711900
705568
699267
692997
686757
680547
674366
668213
662088
655991
649923
643881
637869
631883
625927
619999
614100
608229
602387
596575
590792
585040
579316
573622
567956
562318
556708
551125
545569
540039
534536
529060
523613
518192
512800
507431
502087
496768
491472
486200
480952
475728
470526
465350
460193
455060
449946
444853
439778
434725
429688
424674
419676
414698
409738
404796
399870
394959
390062
385175
380299
375425
370560
365688
360821
355938
351056
346146
341231
336276
331307
326281
321226
316091
310905
305605
300215
294663
288960
283036
276873
270411
263646
256531
1.7092e+06
1.69096e+06
1.67373e+06
1.65748e+06
1.64213e+06
1.62758e+06
1.61371e+06
1.60045e+06
1.58769e+06
1.57538e+06
1.56345e+06
1.55185e+06
1.54055e+06
1.5295e+06
1.51868e+06
1.50805e+06
1.4976e+06
1.48732e+06
1.47717e+06
1.46716e+06
1.45726e+06
1.44747e+06
1.43778e+06
1.42819e+06
1.41868e+06
1.40926e+06
1.39991e+06
1.39063e+06
1.38142e+06
1.37228e+06
1.3632e+06
1.35418e+06
1.34522e+06
1.33631e+06
1.32745e+06
1.31865e+06
1.30989e+06
1.30118e+06
1.29252e+06
1.28389e+06
1.27531e+06
1.26677e+06
1.25827e+06
1.24981e+06
1.24138e+06
1.23299e+06
1.22463e+06
1.21632e+06
1.20803e+06
1.19978e+06
1.19157e+06
1.18339e+06
1.17524e+06
1.16712e+06
1.15904e+06
1.15099e+06
1.14297e+06
1.13498e+06
1.12703e+06
1.1191e+06
1.11121e+06
1.10334e+06
1.0955e+06
1.08769e+06
1.07991e+06
1.07216e+06
1.06443e+06
1.05673e+06
1.04905e+06
1.04139e+06
1.03376e+06
1.02615e+06
1.01856e+06
1.011e+06
1.00346e+06
995953
988477
981033
973625
966254
958917
951613
944341
937097
929878
922686
915517
908371
901248
894142
887048
879964
872896
865845
858815
851806
844825
837873
830952
824062
817207
810387
803604
796859
790152
783480
776839
770224
763636
757069
750525
744007
737518
731058
724629
718229
711860
705523
699219
692945
686704
680493
674310
668157
662032
655936
649868
643827
637814
631830
625874
619948
614048
608177
602335
596522
590739
584987
579264
573571
567905
562267
556656
551071
545512
539980
534475
528998
523549
518127
512731
507358
502010
496685
491384
486106
480852
475621
470412
465228
460063
454922
449797
444694
439605
434538
429487
424455
419439
414441
409460
404493
399543
394603
389678
384757
379848
374935
370031
365113
360200
355263
350325
345354
340373
335346
330299
325191
320046
314820
309532
304134
298636
292990
287189
281194
274984
268522
261816
254854
1.71285e+06
1.69491e+06
1.67783e+06
1.66158e+06
1.64613e+06
1.6314e+06
1.61732e+06
1.60381e+06
1.59081e+06
1.57825e+06
1.56608e+06
1.55426e+06
1.54275e+06
1.53151e+06
1.5205e+06
1.50971e+06
1.49911e+06
1.48868e+06
1.47841e+06
1.46828e+06
1.45828e+06
1.44839e+06
1.43862e+06
1.42894e+06
1.41936e+06
1.40987e+06
1.40047e+06
1.39114e+06
1.38188e+06
1.37269e+06
1.36357e+06
1.35452e+06
1.34552e+06
1.33658e+06
1.3277e+06
1.31887e+06
1.31009e+06
1.30136e+06
1.29267e+06
1.28403e+06
1.27544e+06
1.26688e+06
1.25837e+06
1.2499e+06
1.24146e+06
1.23306e+06
1.22471e+06
1.21638e+06
1.2081e+06
1.19984e+06
1.19163e+06
1.18345e+06
1.1753e+06
1.16718e+06
1.1591e+06
1.15105e+06
1.14303e+06
1.13505e+06
1.12709e+06
1.11916e+06
1.11127e+06
1.1034e+06
1.09557e+06
1.08776e+06
1.07997e+06
1.07222e+06
1.06449e+06
1.05678e+06
1.0491e+06
1.04144e+06
1.0338e+06
1.02619e+06
1.01859e+06
1.01103e+06
1.00349e+06
995979
988502
981057
973647
966274
958936
951631
944359
937117
929898
922707
915538
908393
901272
894166
887072
879987
872919
865865
858832
851819
844836
837881
830959
824068
817211
810390
803608
796863
790160
783488
776847
770233
763641
757070
750520
743995
737498
731032
724596
718190
711816
705474
699166
692890
686646
680433
674249
668097
661972
655876
649809
643768
637757
631774
625820
619895
613995
608124
602280
596468
590684
584933
579209
573517
567851
562213
556601
551014
545452
539916
534409
528930
523479
518056
512656
507279
501925
496595
491290
486005
480746
475508
470294
465104
459931
454782
449646
444532
439430
434351
429284
424238
419204
414188
409185
404198
399222
394258
389303
384353
379409
374463
369519
364562
359603
354620
349628
344602
339558
334468
329348
324168
318941
313636
308259
302783
297196
291477
285606
279563
273326
266879
260231
253393
1.71606e+06
1.69835e+06
1.6814e+06
1.66518e+06
1.64967e+06
1.63481e+06
1.62056e+06
1.60686e+06
1.59365e+06
1.58089e+06
1.56852e+06
1.5565e+06
1.5448e+06
1.53338e+06
1.52221e+06
1.51127e+06
1.50053e+06
1.48997e+06
1.47958e+06
1.46934e+06
1.45924e+06
1.44927e+06
1.43941e+06
1.42966e+06
1.42002e+06
1.41046e+06
1.401e+06
1.39162e+06
1.38232e+06
1.37309e+06
1.36393e+06
1.35484e+06
1.34581e+06
1.33685e+06
1.32794e+06
1.31908e+06
1.31028e+06
1.30153e+06
1.29283e+06
1.28417e+06
1.27556e+06
1.267e+06
1.25847e+06
1.24999e+06
1.24155e+06
1.23315e+06
1.22478e+06
1.21646e+06
1.20816e+06
1.19991e+06
1.19169e+06
1.18351e+06
1.17536e+06
1.16724e+06
1.15916e+06
1.15111e+06
1.14309e+06
1.1351e+06
1.12714e+06
1.11922e+06
1.11132e+06
1.10345e+06
1.09561e+06
1.0878e+06
1.08001e+06
1.07226e+06
1.06452e+06
1.05681e+06
1.04912e+06
1.04146e+06
1.03382e+06
1.0262e+06
1.0186e+06
1.01103e+06
1.00349e+06
995979
988500
981054
973642
966267
958927
951623
944351
937109
929894
922704
915536
908390
901268
894162
887068
879984
872915
865861
858827
851815
844831
837875
830952
824059
817202
810379
803599
796856
790154
783483
776843
770228
763636
757062
750507
743977
737474
731001
724559
718148
711768
705422
699110
692831
686585
680371
674187
668034
661909
655814
649747
643708
637697
631718
625763
619841
613941
608070
602226
596414
590628
584879
579154
573464
567797
562159
556545
550956
545390
539852
534342
528861
523407
517982
512578
507197
501836
496502
491190
485902
480636
475393
470172
464979
459797
454644
449495
444374
439257
434169
429085
424028
418973
413943
408917
403913
398912
393927
388942
383968
378990
374015
369031
364039
359036
354011
348970
343895
338793
333647
328460
323218
317915
312546
307093
301552
295896
290117
284195
278117
271868
265444
258854
252115
1.71888e+06
1.70136e+06
1.68453e+06
1.66834e+06
1.65279e+06
1.63785e+06
1.62347e+06
1.60961e+06
1.59623e+06
1.58329e+06
1.57074e+06
1.55856e+06
1.54669e+06
1.53511e+06
1.5238e+06
1.51272e+06
1.50185e+06
1.49118e+06
1.48068e+06
1.47034e+06
1.46015e+06
1.45009e+06
1.44016e+06
1.43034e+06
1.42063e+06
1.41102e+06
1.4015e+06
1.39208e+06
1.38273e+06
1.37346e+06
1.36427e+06
1.35515e+06
1.34609e+06
1.3371e+06
1.32816e+06
1.31929e+06
1.31047e+06
1.3017e+06
1.29298e+06
1.28431e+06
1.27569e+06
1.26711e+06
1.25858e+06
1.25009e+06
1.24164e+06
1.23323e+06
1.22486e+06
1.21653e+06
1.20823e+06
1.19998e+06
1.19175e+06
1.18357e+06
1.17541e+06
1.16729e+06
1.15921e+06
1.15115e+06
1.14313e+06
1.13514e+06
1.12718e+06
1.11925e+06
1.11135e+06
1.10348e+06
1.09563e+06
1.08782e+06
1.08003e+06
1.07226e+06
1.06452e+06
1.05681e+06
1.04911e+06
1.04144e+06
1.0338e+06
1.02617e+06
1.01858e+06
1.01101e+06
1.00346e+06
995953
988474
981026
973613
966236
958895
951589
944317
937076
929863
922675
915510
908364
901240
894131
887038
879955
872886
865834
858800
851790
844807
837853
830929
824038
817181
810358
803579
796838
790138
783468
776829
770213
763619
757043
750485
743952
737443
730965
724517
718101
711717
705367
699052
692771
686523
680308
674124
667971
661847
655753
649685
643648
637637
631661
625707
619788
613886
608019
602172
596363
590575
584828
579100
573413
567743
562108
556489
550899
545329
539789
534274
528792
523335
517909
512498
507115
501747
496412
491090
485801
480523
475284
470050
464861
459662
454511
449344
444222
439086
433995
428889
423827
418750
413712
408662
403645
398617
393615
388601
383606
378594
373595
368572
363552
358506
353444
348356
343238
338084
332888
327642
322343
316977
311553
306036
300440
294728
288900
282939
276838
270589
264190
257654
250997
1.72135e+06
1.704e+06
1.68726e+06
1.67111e+06
1.65554e+06
1.64053e+06
1.62605e+06
1.61207e+06
1.59855e+06
1.58546e+06
1.57276e+06
1.56043e+06
1.54842e+06
1.5367e+06
1.52526e+06
1.51405e+06
1.50307e+06
1.49229e+06
1.48169e+06
1.47126e+06
1.46098e+06
1.45085e+06
1.44085e+06
1.43097e+06
1.4212e+06
1.41154e+06
1.40197e+06
1.3925e+06
1.38312e+06
1.37382e+06
1.36459e+06
1.35544e+06
1.34635e+06
1.33733e+06
1.32838e+06
1.31948e+06
1.31064e+06
1.30186e+06
1.29313e+06
1.28445e+06
1.27581e+06
1.26723e+06
1.25869e+06
1.25019e+06
1.24173e+06
1.23331e+06
1.22494e+06
1.2166e+06
1.2083e+06
1.20004e+06
1.19181e+06
1.18362e+06
1.17546e+06
1.16734e+06
1.15924e+06
1.15118e+06
1.14316e+06
1.13516e+06
1.12719e+06
1.11926e+06
1.11135e+06
1.10348e+06
1.09563e+06
1.0878e+06
1.08001e+06
1.07224e+06
1.06449e+06
1.05677e+06
1.04908e+06
1.0414e+06
1.03375e+06
1.02613e+06
1.01853e+06
1.01096e+06
1.00342e+06
995905
988425
980977
973562
966183
958839
951532
944259
937018
929807
922621
915456
908310
901185
894075
886982
879900
872833
865782
858752
851744
844763
837811
830890
824000
817144
810323
803545
796806
790108
783440
776801
770186
763591
757014
750454
743919
737406
730923
724470
718051
711662
705310
698992
692711
686462
680248
674063
667912
661786
655694
649625
643591
637580
631607
625653
619737
613833
607970
602120
596315
590524
584781
579050
573365
567691
562057
556433
550846
545269
539731
534208
528727
523262
517836
512419
507034
501657
496324
490989
485704
480411
475177
469928
464750
459530
454389
449196
444080
438918
433830
428701
423637
418537
413495
408421
403396
398343
393326
388285
383270
378228
373205
368148
363100
358014
352922
347789
342634
337433
332193
326896
321547
316128
310655
305088
299448
293686
287820
281829
275715
269471
263098
256610
250020
1.72352e+06
1.70629e+06
1.68964e+06
1.67352e+06
1.65794e+06
1.64288e+06
1.62832e+06
1.61424e+06
1.60061e+06
1.5874e+06
1.57457e+06
1.56211e+06
1.54998e+06
1.53814e+06
1.52658e+06
1.51526e+06
1.50418e+06
1.4933e+06
1.48261e+06
1.4721e+06
1.46175e+06
1.45155e+06
1.44148e+06
1.43154e+06
1.42172e+06
1.41201e+06
1.4024e+06
1.39289e+06
1.38347e+06
1.37414e+06
1.36488e+06
1.3557e+06
1.3466e+06
1.33756e+06
1.32858e+06
1.31967e+06
1.31081e+06
1.30201e+06
1.29327e+06
1.28457e+06
1.27593e+06
1.26733e+06
1.25878e+06
1.25028e+06
1.24181e+06
1.23339e+06
1.22501e+06
1.21666e+06
1.20835e+06
1.20009e+06
1.19185e+06
1.18365e+06
1.17549e+06
1.16736e+06
1.15926e+06
1.1512e+06
1.14316e+06
1.13516e+06
1.12719e+06
1.11925e+06
1.11134e+06
1.10345e+06
1.0956e+06
1.08777e+06
1.07997e+06
1.07219e+06
1.06444e+06
1.05672e+06
1.04902e+06
1.04134e+06
1.03369e+06
1.02606e+06
1.01846e+06
1.01089e+06
1.00335e+06
995845
988365
980915
973497
966114
958766
951455
944180
936937
929727
922542
915378
908232
901105
893994
886901
879820
872757
865710
858683
851678
844701
837752
830835
823948
817095
810277
803500
796762
790065
783399
776760
770146
763552
756974
750416
743879
737363
730879
724422
718000
711608
705256
698936
692656
686405
680192
674006
667857
661730
655640
649571
643539
637529
631556
625603
619688
613785
607923
602074
596270
590480
584737
579005
573320
567642
562007
556380
550792
545212
539674
534147
528664
523193
517765
512341
506959
501573
496245
490898
485618
480313
475085
469826
464648
459411
454276
449064
443956
438769
433681
428532
423461
418347
413292
408205
403164
398094
393058
387998
382959
377895
372845
367760
362684
357565
352444
347273
342085
336841
331564
326223
320828
315368
309854
304245
298565
292763
286868
280856
274735
268500
262152
255704
249171
1.7254e+06
1.70828e+06
1.69169e+06
1.6756e+06
1.66002e+06
1.64492e+06
1.6303e+06
1.61614e+06
1.60242e+06
1.5891e+06
1.57618e+06
1.56361e+06
1.55136e+06
1.53942e+06
1.52776e+06
1.51635e+06
1.50517e+06
1.49421e+06
1.48344e+06
1.47286e+06
1.46244e+06
1.45217e+06
1.44205e+06
1.43206e+06
1.42219e+06
1.41244e+06
1.4028e+06
1.39325e+06
1.3838e+06
1.37443e+06
1.36515e+06
1.35595e+06
1.34682e+06
1.33776e+06
1.32876e+06
1.31983e+06
1.31097e+06
1.30215e+06
1.2934e+06
1.28469e+06
1.27604e+06
1.26743e+06
1.25887e+06
1.25036e+06
1.24188e+06
1.23345e+06
1.22506e+06
1.21671e+06
1.2084e+06
1.20012e+06
1.19188e+06
1.18368e+06
1.17551e+06
1.16737e+06
1.15926e+06
1.15119e+06
1.14315e+06
1.13514e+06
1.12717e+06
1.11922e+06
1.1113e+06
1.10341e+06
1.09555e+06
1.08771e+06
1.07991e+06
1.07213e+06
1.06437e+06
1.05664e+06
1.04894e+06
1.04126e+06
1.03361e+06
1.02598e+06
1.01838e+06
1.01082e+06
1.00328e+06
995776
988298
980847
973425
966037
958684
951367
944087
936841
929628
922442
915279
908134
901007
893895
886803
879723
872662
865619
858598
851599
844627
837683
830769
823886
817035
810220
803446
796707
790013
783346
776709
770095
763501
756926
750368
743831
737316
730831
724372
717950
711557
705206
698884
692604
686352
680142
673955
667808
661681
655593
649523
643494
637483
631512
625559
619644
613741
607880
602032
596228
590441
584694
578964
573276
567596
561961
556331
550743
545161
539621
534092
528607
523133
517701
512273
506891
501504
496175
490821
485543
480232
474999
469744
464558
459314
454172
448951
443832
438640
433542
428383
423303
418178
413110
408013
402954
397872
392815
387740
382677
377595
372517
367411
362307
357162
352011
346809
341591
336311
331001
325623
320189
314697
309145
303501
297783
291952
286037
280012
273888
267663
261338
254926
248439
1.72702e+06
1.70998e+06
1.69345e+06
1.67738e+06
1.6618e+06
1.64667e+06
1.632e+06
1.61778e+06
1.60398e+06
1.59059e+06
1.57757e+06
1.56491e+06
1.55258e+06
1.54055e+06
1.5288e+06
1.51731e+06
1.50605e+06
1.49501e+06
1.48418e+06
1.47353e+06
1.46305e+06
1.45273e+06
1.44256e+06
1.43252e+06
1.42261e+06
1.41282e+06
1.40314e+06
1.39357e+06
1.38408e+06
1.37469e+06
1.36539e+06
1.35617e+06
1.34702e+06
1.33794e+06
1.32893e+06
1.31999e+06
1.3111e+06
1.30228e+06
1.29351e+06
1.28479e+06
1.27613e+06
1.26751e+06
1.25895e+06
1.25042e+06
1.24194e+06
1.2335e+06
1.2251e+06
1.21674e+06
1.20842e+06
1.20014e+06
1.19189e+06
1.18368e+06
1.1755e+06
1.16736e+06
1.15925e+06
1.15117e+06
1.14312e+06
1.13511e+06
1.12712e+06
1.11917e+06
1.11124e+06
1.10335e+06
1.09548e+06
1.08764e+06
1.07983e+06
1.07205e+06
1.06429e+06
1.05656e+06
1.04885e+06
1.04117e+06
1.03352e+06
1.0259e+06
1.0183e+06
1.01074e+06
1.00321e+06
995704
988225
980772
973347
965954
958595
951272
943985
936734
929517
922329
915164
908020
900893
893784
886692
879616
872557
865518
858502
851509
844541
837603
830694
823815
816968
810157
803383
796646
789951
783285
776650
770037
763445
756872
750316
743781
737267
730782
724323
717902
711509
705159
698838
692559
686308
680099
673913
667767
661640
655554
649486
643456
637446
631473
625521
619605
613704
607843
601996
596190
590404
584654
578926
573234
567556
561917
556288
550698
545117
539575
534045
528557
523082
517647
512219
506835