/*--------------------------------*- C++ -*----------------------------------*\
| =========                 |                                                 |
| \\      /  F ield         | OpenFOAM: The Open Source CFD Toolbox           |
|  \\    /   O peration     | Version:  2.4.0                                 |
|   \\  /    A nd           | Web:      www.OpenFOAM.org                      |
|    \\/     M anipulation  |                                                 |
\*---------------------------------------------------------------------------*/
FoamFile
{
    version     2.0;
    format      ascii;
    class       volVectorField;
    location    "0.2";
    object      U_0;
}
// * * * * * * * * * * * * * * * * * * * * * * * * * * * * * * * * * * * * * //

dimensions      [0 1 -1 0 0 0 0];

internalField   nonuniform List<vector> 
8800
(
(8.09156 0.387913 0)
(5.45043 0.242517 0)
(3.9137 0.0429608 0)
(3.15168 -0.0152106 0)
(2.80636 -0.0188707 0)
(2.59299 -0.0104848 0)
(2.48994 -0.00568359 0)
(2.37378 -0.00263686 0)
(2.32689 -0.00145717 0)
(2.24218 -0.000267186 0)
(2.22529 -0.0011625 0)
(2.15594 0.000716639 0)
(2.15671 -0.00142725 0)
(2.08859 0.00189697 0)
(2.08365 0.000193891 0)
(2.02504 0.000381619 0)
(2.00346 0.00193696 0)
(1.95828 -0.000153288 0)
(1.89294 0.0075331 0)
(1.84973 -0.0471966 0)
(10.0867 0.838375 0)
(9.65498 0.867357 0)
(8.8829 0.507804 0)
(8.06706 0.262194 0)
(7.512 0.135555 0)
(6.98839 0.0843256 0)
(6.71637 0.0537521 0)
(6.3812 0.0400507 0)
(6.24704 0.0299879 0)
(6.00089 0.0255857 0)
(5.95279 0.0168629 0)
(5.75003 0.0200433 0)
(5.75496 0.0106888 0)
(5.5634 0.0221188 0)
(5.57549 0.0125968 0)
(5.41865 0.0191639 0)
(5.38135 0.0184916 0)
(5.27443 0.0243515 0)
(5.1654 0.0253414 0)
(5.09823 -0.0119276 0)
(10.074 0.631596 0)
(10.646 0.861748 0)
(10.8928 0.60377 0)
(10.6643 0.374263 0)
(10.4888 0.251426 0)
(10.0562 0.201019 0)
(9.86903 0.151415 0)
(9.46785 0.122674 0)
(9.34671 0.0947525 0)
(9.00258 0.0786521 0)
(8.96284 0.0558381 0)
(8.65842 0.0567213 0)
(8.69051 0.0354193 0)
(8.39462 0.0534925 0)
(8.45151 0.0324625 0)
(8.19943 0.0454319 0)
(8.20129 0.0432597 0)
(8.00765 0.0552588 0)
(7.92998 0.0537768 0)
(7.79189 -0.00285976 0)
(10.0378 0.458187 0)
(10.5374 0.701944 0)
(11.2095 0.549487 0)
(11.3357 0.353574 0)
(11.5958 0.254571 0)
(11.4197 0.234861 0)
(11.5319 0.197162 0)
(11.2664 0.176521 0)
(11.3344 0.14807 0)
(11.0459 0.130345 0)
(11.1213 0.100815 0)
(10.8119 0.0991838 0)
(10.9323 0.0704452 0)
(10.5979 0.0930258 0)
(10.729 0.0587121 0)
(10.4328 0.0810486 0)
(10.4906 0.0671865 0)
(10.2624 0.102056 0)
(10.2186 0.0733643 0)
(10.0171 0.108668 0)
(10.1026 0.345164 0)
(10.3649 0.564652 0)
(11.0975 0.465073 0)
(11.2669 0.298366 0)
(11.6952 0.199722 0)
(11.6301 0.202357 0)
(11.9147 0.170437 0)
(11.7889 0.173191 0)
(12.017 0.143851 0)
(11.8677 0.139712 0)
(12.0762 0.107005 0)
(11.8805 0.115921 0)
(12.0924 0.0749639 0)
(11.8647 0.120482 0)
(12.0615 0.0634627 0)
(11.8516 0.111018 0)
(11.9612 0.0753079 0)
(11.808 0.135824 0)
(11.8261 0.0858517 0)
(11.6397 0.164767 0)
(10.0926 0.248844 0)
(10.2986 0.452036 0)
(10.9393 0.380324 0)
(11.1617 0.254081 0)
(11.5571 0.152337 0)
(11.5938 0.165057 0)
(11.8134 0.132483 0)
(11.801 0.144391 0)
(11.9912 0.11781 0)
(11.9895 0.116737 0)
(12.1645 0.0915052 0)
(12.1412 0.100127 0)
(12.2982 0.0668645 0)
(12.2573 0.105538 0)
(12.4101 0.0609909 0)
(12.3573 0.095791 0)
(12.4707 0.0863079 0)
(12.4548 0.111018 0)
(12.4916 0.0947834 0)
(12.429 0.0842366 0)
(10.0305 0.168482 0)
(10.2962 0.349434 0)
(10.7793 0.292393 0)
(11.107 0.215684 0)
(11.3971 0.107121 0)
(11.5485 0.132483 0)
(11.6942 0.09818 0)
(11.7655 0.119771 0)
(11.8476 0.0852494 0)
(11.9563 0.0909073 0)
(12.0323 0.0685411 0)
(12.1208 0.0781427 0)
(12.2124 0.0479532 0)
(12.2726 0.0882296 0)
(12.3463 0.0467015 0)
(12.3947 0.0761594 0)
(12.4933 0.0671997 0)
(12.5241 0.0865779 0)
(12.5455 0.0594098 0)
(12.5263 0.058588 0)
(10.0065 0.108411 0)
(10.2662 0.242973 0)
(10.6625 0.211511 0)
(11.0562 0.16332 0)
(11.3 0.0767017 0)
(11.4794 0.0908291 0)
(11.6405 0.0674394 0)
(11.7263 0.0881608 0)
(11.7739 0.0635924 0)
(11.8952 0.0592808 0)
(11.9573 0.0535386 0)
(12.0458 0.050996 0)
(12.1501 0.0320644 0)
(12.1995 0.0686267 0)
(12.2972 0.0335369 0)
(12.35 0.0458377 0)
(12.4153 0.0525701 0)
(12.4602 0.0605654 0)
(12.4838 0.0310292 0)
(12.4216 0.024074 0)
(10.0158 0.0582945 0)
(10.2151 0.146206 0)
(10.6233 0.125059 0)
(10.9821 0.101094 0)
(11.2884 0.0501941 0)
(11.4295 0.0515604 0)
(11.6193 0.0321077 0)
(11.643 0.0609039 0)
(11.7705 0.0400922 0)
(11.8479 0.0305333 0)
(11.9091 0.0382621 0)
(12.0058 0.0216397 0)
(12.098 0.0196718 0)
(12.1488 0.0451872 0)
(12.2697 0.016063 0)
(12.3005 0.0293863 0)
(12.3443 0.0328952 0)
(12.4456 0.0292374 0)
(12.4385 0.0109405 0)
(12.3552 0.0166198 0)
(9.99507 0.0184995 0)
(10.2411 0.0415783 0)
(10.5771 0.0460815 0)
(10.9639 0.0315929 0)
(11.2807 0.0193828 0)
(11.4225 0.0194321 0)
(11.5515 0.0102375 0)
(11.6183 0.0238788 0)
(11.7778 0.00689576 0)
(11.8088 0.0106296 0)
(11.8998 0.0199531 0)
(11.9759 -0.00134781 0)
(12.0653 0.005138 0)
(12.142 0.0216687 0)
(12.2355 -0.00137563 0)
(12.2858 0.0104089 0)
(12.3186 0.00816439 0)
(12.4184 -0.000607451 0)
(12.4116 -0.00377363 0)
(12.3545 0.00143682 0)
(10.0018 -0.0283002 0)
(10.2474 -0.0510344 0)
(10.5576 -0.0334931 0)
(10.9785 -0.0409173 0)
(11.2528 -0.00833661 0)
(11.4389 -0.00204545 0)
(11.5273 -0.0216558 0)
(11.6675 -0.0199668 0)
(11.7424 -0.0189327 0)
(11.8282 -0.00949304 0)
(11.8881 -0.00210409 0)
(11.9879 -0.0209438 0)
(12.0733 -0.0157375 0)
(12.1328 -0.0002938 0)
(12.2261 -0.0192455 0)
(12.2763 -0.00527175 0)
(12.3335 -0.0139281 0)
(12.4036 -0.0292201 0)
(12.4328 -0.0251396 0)
(12.3879 -0.0114626 0)
(10.0078 -0.0705116 0)
(10.243 -0.150223 0)
(10.6077 -0.113873 0)
(10.9869 -0.108502 0)
(11.2747 -0.0398559 0)
(11.4442 -0.0334339 0)
(11.5833 -0.0537199 0)
(11.6873 -0.0533337 0)
(11.7411 -0.0469444 0)
(11.8419 -0.0337836 0)
(11.9048 -0.0192539 0)
(12.044 -0.0491992 0)
(12.0682 -0.0251873 0)
(12.144 -0.0191294 0)
(12.2408 -0.0373522 0)
(12.3077 -0.0297491 0)
(12.3736 -0.0386416 0)
(12.4203 -0.0569397 0)
(12.4558 -0.0556129 0)
(12.4052 -0.0253267 0)
(10.0061 -0.122124 0)
(10.2682 -0.251432 0)
(10.6638 -0.192943 0)
(11.0514 -0.172305 0)
(11.291 -0.068112 0)
(11.4799 -0.0671061 0)
(11.6631 -0.0883622 0)
(11.6998 -0.0799408 0)
(11.7907 -0.0706138 0)
(11.8649 -0.0580625 0)
(11.9814 -0.0504919 0)
(12.0692 -0.0647296 0)
(12.106 -0.0321036 0)
(12.2098 -0.0497352 0)
(12.2813 -0.0553873 0)
(12.3566 -0.0522361 0)
(12.4148 -0.0557527 0)
(12.473 -0.0831851 0)
(12.4666 -0.0797945 0)
(12.4373 -0.0439735 0)
(10.0311 -0.179934 0)
(10.2808 -0.356358 0)
(10.7628 -0.280321 0)
(11.1116 -0.217733 0)
(11.3649 -0.101746 0)
(11.5679 -0.116425 0)
(11.7116 -0.11785 0)
(11.744 -0.102691 0)
(11.8759 -0.100395 0)
(11.9551 -0.0894834 0)
(12.0432 -0.0679768 0)
(12.1071 -0.0853679 0)
(12.2146 -0.0515849 0)
(12.265 -0.0705252 0)
(12.3433 -0.0695941 0)
(12.4154 -0.0754275 0)
(12.4901 -0.0779273 0)
(12.5184 -0.106447 0)
(12.5247 -0.102837 0)
(12.5028 -0.0878717 0)
(10.071 -0.25654 0)
(10.3103 -0.459439 0)
(10.8936 -0.365798 0)
(11.1689 -0.26001 0)
(11.526 -0.147838 0)
(11.6204 -0.154592 0)
(11.8121 -0.146078 0)
(11.8119 -0.133755 0)
(12.0031 -0.134734 0)
(12.0009 -0.110136 0)
(12.138 -0.0852846 0)
(12.151 -0.114385 0)
(12.2878 -0.0645749 0)
(12.2696 -0.091361 0)
(12.3847 -0.0860423 0)
(12.3934 -0.101896 0)
(12.4647 -0.0871697 0)
(12.4349 -0.128198 0)
(12.4719 -0.125723 0)
(12.3577 -0.142476 0)
(10.0748 -0.352379 0)
(10.3735 -0.567685 0)
(11.0508 -0.451806 0)
(11.2908 -0.303349 0)
(11.6646 -0.200642 0)
(11.6758 -0.193657 0)
(11.8856 -0.18413 0)
(11.8215 -0.161363 0)
(11.9982 -0.158924 0)
(11.8774 -0.127545 0)
(12.0482 -0.108001 0)
(11.9077 -0.123762 0)
(12.0534 -0.0809516 0)
(11.9069 -0.0998704 0)
(12.0161 -0.0947439 0)
(11.8731 -0.106542 0)
(11.9377 -0.0885452 0)
(11.7806 -0.137648 0)
(11.784 -0.124822 0)
(11.5421 -0.15671 0)
(10.0244 -0.46057 0)
(10.5361 -0.705449 0)
(11.1844 -0.53967 0)
(11.3571 -0.359703 0)
(11.5693 -0.256369 0)
(11.4563 -0.227906 0)
(11.4932 -0.2041 0)
(11.3005 -0.170983 0)
(11.3042 -0.15615 0)
(11.0558 -0.123212 0)
(11.1111 -0.101244 0)
(10.8204 -0.106618 0)
(10.9007 -0.0724694 0)
(10.6307 -0.0822738 0)
(10.6874 -0.0765951 0)
(10.425 -0.0864994 0)
(10.4808 -0.068978 0)
(10.1942 -0.114963 0)
(10.199 -0.0935376 0)
(9.86313 -0.16227 0)
(10.0724 -0.633678 0)
(10.6397 -0.863565 0)
(10.8826 -0.597768 0)
(10.6757 -0.376962 0)
(10.4674 -0.253342 0)
(10.082 -0.196025 0)
(9.83786 -0.156678 0)
(9.4957 -0.119322 0)
(9.31864 -0.0990309 0)
(9.01493 -0.0747895 0)
(8.95702 -0.0565988 0)
(8.65442 -0.0596832 0)
(8.67553 -0.0399896 0)
(8.40423 -0.0440969 0)
(8.42899 -0.0446591 0)
(8.16851 -0.0501188 0)
(8.20643 -0.0438878 0)
(7.91224 -0.0688547 0)
(7.9159 -0.0706544 0)
(7.57149 -0.0886131 0)
(10.088 -0.839039 0)
(9.64739 -0.868062 0)
(8.8799 -0.504978 0)
(8.0736 -0.263264 0)
(7.49975 -0.137527 0)
(7.00369 -0.0813404 0)
(6.69737 -0.0560603 0)
(6.39888 -0.0388975 0)
(6.22707 -0.0316011 0)
(6.01116 -0.0245233 0)
(5.94669 -0.0161609 0)
(5.74661 -0.0221056 0)
(5.74483 -0.0136851 0)
(5.56155 -0.0163363 0)
(5.56736 -0.0186767 0)
(5.38041 -0.0230826 0)
(5.39093 -0.0190302 0)
(5.17338 -0.0321243 0)
(5.16245 -0.0381465 0)
(4.87174 -0.0178144 0)
(8.09192 -0.387994 0)
(5.44614 -0.242617 0)
(3.9137 -0.0425219 0)
(3.15516 0.0151 0)
(2.80223 0.018244 0)
(2.59715 0.0115301 0)
(2.48468 0.0049118 0)
(2.37941 0.00296996 0)
(2.31948 0.00114115 0)
(2.24489 0.000234379 0)
(2.22252 0.00187757 0)
(2.1563 -0.00142979 0)
(2.14802 0.000602275 0)
(2.08605 -0.000290107 0)
(2.08116 -0.00116129 0)
(2.00502 -0.00235833 0)
(1.99554 -0.000245978 0)
(1.9093 -0.00374803 0)
(1.87083 -0.00416315 0)
(1.72042 0.0104731 0)
(2.07195 0.0553079 0)
(2.21437 -0.00366102 0)
(2.48439 -0.143444 0)
(2.51991 -0.262911 0)
(2.60317 -0.286256 0)
(2.47714 -0.211733 0)
(2.58519 -0.0864513 0)
(2.41833 0.126471 0)
(2.52477 0.194652 0)
(2.72045 0.232661 0)
(2.88123 0.294351 0)
(3.06177 0.341582 0)
(3.22438 0.398292 0)
(3.30833 0.507119 0)
(3.62381 0.596831 0)
(3.93403 0.631792 0)
(4.2459 0.659927 0)
(4.57175 0.660384 0)
(4.90147 0.597716 0)
(5.1886 0.560801 0)
(5.4994 0.474506 0)
(5.81159 0.360395 0)
(6.05186 0.262343 0)
(6.29093 0.0633477 0)
(6.52302 -0.094676 0)
(6.72819 -0.276113 0)
(6.89292 -0.514516 0)
(7.02061 -0.672215 0)
(7.2993 -0.904745 0)
(7.49912 -1.07184 0)
(7.7414 -1.21991 0)
(8.17167 -1.49962 0)
(8.41048 -1.5947 0)
(8.76071 -1.70416 0)
(9.37441 -2.05501 0)
(9.54084 -2.16203 0)
(9.95123 -2.31558 0)
(10.6157 -2.60347 0)
(10.6571 -2.68691 0)
(10.9223 -2.9684 0)
(10.9683 -3.21783 0)
(10.9762 -3.02355 0)
(11.1914 -2.94434 0)
(10.4599 -3.01506 0)
(10.428 -2.77015 0)
(10.5332 -2.31211 0)
(10.0158 -1.79149 0)
(10.018 -1.42583 0)
(9.95223 -1.02428 0)
(9.82418 -0.550322 0)
(9.81939 -0.249712 0)
(9.98231 0.205514 0)
(10.2272 0.762381 0)
(10.1382 0.854955 0)
(9.96065 0.792445 0)
(9.96042 0.995881 0)
(10.3098 1.06349 0)
(10.6096 1.26528 0)
(11.1138 1.37469 0)
(11.4559 1.17467 0)
(11.5356 0.934387 0)
(11.5992 0.695719 0)
(11.7674 0.033604 0)
(11.6083 -0.476128 0)
(11.5075 -0.996622 0)
(11.7157 -1.9541 0)
(11.54 -2.6254 0)
(11.5797 -3.3604 0)
(11.4588 -4.24735 0)
(11.0379 -4.58595 0)
(10.2232 -4.43993 0)
(9.38838 -4.25234 0)
(8.74951 -4.06819 0)
(8.14508 -3.68248 0)
(7.73907 -3.37906 0)
(7.24542 -3.45335 0)
(6.76131 -3.47479 0)
(6.26657 -2.58061 0)
(5.47658 -1.2842 0)
(5.04243 -1.42667 0)
(4.64057 -3.21129 0)
(4.24011 -5.83574 0)
(3.83272 -8.72069 0)
(3.11331 -11.3857 0)
(3.1376 -12.0675 0)
(3.4037 -11.124 0)
(3.6039 -10.1698 0)
(3.98827 -9.51172 0)
(4.29048 -8.9639 0)
(4.71804 -8.0729 0)
(5.20038 -6.86956 0)
(5.71529 -5.49481 0)
(6.06999 -4.18331 0)
(6.361 -2.91694 0)
(6.51255 -1.5293 0)
(6.82603 -0.16811 0)
(7.3296 0.911604 0)
(7.87699 1.81059 0)
(8.47554 2.77853 0)
(8.98149 3.72553 0)
(9.08002 4.37607 0)
(9.26247 5.19825 0)
(9.55335 6.48314 0)
(9.71538 7.84341 0)
(9.85989 8.90159 0)
(9.90417 9.74599 0)
(10.0923 10.3008 0)
(10.1391 10.5446 0)
(10.1295 10.3301 0)
(9.96372 9.83973 0)
(9.77414 9.06711 0)
(9.46272 8.06042 0)
(9.14624 7.13476 0)
(8.99519 6.16235 0)
(8.54124 5.18077 0)
(8.54362 4.38653 0)
(8.27991 3.59949 0)
(8.40232 3.01146 0)
(8.46231 2.31579 0)
(8.51248 1.77099 0)
(8.71363 0.855096 0)
(8.58202 0.438865 0)
(8.93901 -0.195962 0)
(8.86146 -0.39295 0)
(8.81725 -0.81459 0)
(8.82657 -0.639407 0)
(8.88201 -0.579191 0)
(8.64394 -0.454147 0)
(8.64927 -0.338181 0)
(8.54911 0.145388 0)
(8.6696 0.414211 0)
(8.46877 0.569918 0)
(8.72778 0.982202 0)
(8.34661 1.26766 0)
(8.99041 1.09189 0)
(8.90566 1.34023 0)
(9.13712 1.32326 0)
(8.9414 0.880774 0)
(9.2505 0.94572 0)
(9.07286 1.27835 0)
(9.63107 0.896544 0)
(8.94564 0.652222 0)
(8.94283 0.38126 0)
(8.54796 0.0460639 0)
(8.51208 -0.554202 0)
(8.01058 -1.0573 0)
(8.2037 -1.36039 0)
(8.04381 -1.49926 0)
(8.83563 -1.6505 0)
(8.81812 -1.09431 0)
(9.51991 -0.848557 0)
(9.63901 -0.565512 0)
(10.0555 -0.383671 0)
(9.73207 -0.499913 0)
(9.88597 -0.680943 0)
(9.41696 -0.82847 0)
(9.30538 -1.59323 0)
(8.70068 -1.75982 0)
(8.26766 -1.88203 0)
(7.98306 -2.4677 0)
(7.34702 -3.11932 0)
(7.54529 -2.79561 0)
(6.56563 -2.99062 0)
(7.44743 -3.38004 0)
(5.98966 -3.79952 0)
(7.03484 -3.00901 0)
(5.42827 -3.17916 0)
(6.94252 -2.49096 0)
(5.54509 -2.56875 0)
(6.11561 -2.57932 0)
(5.34498 -2.66313 0)
(5.19927 -2.80213 0)
(5.23797 -3.22932 0)
(5.30692 -3.92772 0)
(5.43357 -4.40967 0)
(5.70264 -4.47709 0)
(6.10857 -4.05869 0)
(6.47627 -3.64898 0)
(6.76909 -3.14123 0)
(7.14955 -2.4437 0)
(7.62145 -1.65486 0)
(7.85019 -0.645912 0)
(8.37774 0.329328 0)
(8.80278 1.52749 0)
(9.25596 2.84195 0)
(9.66165 3.8133 0)
(9.95093 5.03281 0)
(9.89484 5.86285 0)
(9.66849 6.39865 0)
(9.46646 6.96692 0)
(8.81799 6.97309 0)
(8.36664 6.9468 0)
(7.93701 7.33625 0)
(7.63204 7.57288 0)
(7.75433 7.9533 0)
(7.62344 8.58007 0)
(6.99495 8.88342 0)
(6.7837 9.02815 0)
(6.82783 10.1914 0)
(3.94706 13.2695 0)
(5.14519 0.0109324 0)
(5.13456 0.00218754 0)
(5.1966 -0.0847508 0)
(5.24673 -0.166686 0)
(5.29871 -0.209055 0)
(5.28649 -0.159603 0)
(5.27034 -0.0936835 0)
(5.22114 0.0393508 0)
(5.19108 0.144376 0)
(5.22075 0.189733 0)
(5.29769 0.235732 0)
(5.30975 0.271756 0)
(5.43596 0.300029 0)
(5.42759 0.373449 0)
(5.56034 0.425579 0)
(5.73884 0.4366 0)
(5.8975 0.447842 0)
(6.13659 0.441038 0)
(6.35536 0.398092 0)
(6.58228 0.334158 0)
(6.87158 0.250196 0)
(7.10662 0.148657 0)
(7.39131 0.0243191 0)
(7.70989 -0.12061 0)
(7.89951 -0.291129 0)
(8.23471 -0.51972 0)
(8.53595 -0.712268 0)
(8.74323 -0.881129 0)
(9.15225 -1.1558 0)
(9.39967 -1.33283 0)
(9.71521 -1.47514 0)
(10.2125 -1.78036 0)
(10.4062 -1.88002 0)
(10.7437 -2.03609 0)
(11.2305 -2.35397 0)
(11.3116 -2.37346 0)
(11.6876 -2.55737 0)
(11.9796 -2.80576 0)
(11.8194 -2.83932 0)
(12.0469 -3.12222 0)
(12.1218 -2.98684 0)
(11.6252 -2.90157 0)
(11.547 -3.19048 0)
(11.3724 -2.73188 0)
(11.0734 -2.34804 0)
(10.7568 -2.25386 0)
(10.4731 -1.66991 0)
(10.4819 -1.25757 0)
(10.2549 -0.991199 0)
(10.1561 -0.505409 0)
(10.1881 -0.244769 0)
(10.1171 0.0811697 0)
(10.284 0.631354 0)
(10.6039 0.807228 0)
(10.5456 0.934332 0)
(10.5073 1.07165 0)
(10.6907 0.986228 0)
(10.6346 1.05947 0)
(10.9558 1.10585 0)
(11.1937 0.918797 0)
(11.3713 0.742948 0)
(11.4724 0.562726 0)
(11.8048 -0.0212285 0)
(11.7655 -0.464067 0)
(11.9372 -1.0594 0)
(12.1712 -2.00223 0)
(12.0637 -2.60576 0)
(12.0571 -3.32393 0)
(11.6748 -3.95268 0)
(11.0121 -3.99187 0)
(10.1752 -3.74885 0)
(9.49764 -3.66223 0)
(8.97486 -3.60064 0)
(8.38668 -3.30216 0)
(7.94276 -2.93687 0)
(7.41899 -3.00903 0)
(7.03066 -3.14729 0)
(6.37284 -2.11815 0)
(5.74521 -0.846123 0)
(5.30924 -0.932242 0)
(4.88032 -2.80754 0)
(4.40354 -5.50073 0)
(3.86364 -8.27243 0)
(2.96442 -10.9983 0)
(2.72804 -12.0819 0)
(2.96154 -11.265 0)
(3.04299 -10.467 0)
(3.34431 -9.9311 0)
(3.5909 -9.41834 0)
(3.91216 -8.50884 0)
(4.36815 -7.22488 0)
(4.76152 -5.87055 0)
(5.10661 -4.5278 0)
(5.42168 -3.19749 0)
(5.7312 -1.87755 0)
(6.18695 -0.563264 0)
(6.76154 0.463298 0)
(7.37726 1.35641 0)
(7.9502 2.33772 0)
(8.40939 3.43599 0)
(8.58507 4.23745 0)
(8.66393 5.09196 0)
(8.88015 6.35391 0)
(9.02216 7.68567 0)
(9.13826 8.80825 0)
(9.25275 9.606 0)
(9.39618 10.1488 0)
(9.58287 10.4741 0)
(9.7211 10.3557 0)
(9.76781 9.90395 0)
(9.76638 9.20441 0)
(9.60976 8.29074 0)
(9.35579 7.33701 0)
(9.42804 6.36282 0)
(9.07963 5.35524 0)
(9.06537 4.56857 0)
(8.99287 3.67522 0)
(8.93226 2.92196 0)
(9.15974 2.22963 0)
(9.15048 1.61081 0)
(9.5 0.85367 0)
(9.22392 0.337584 0)
(9.63465 -0.243508 0)
(9.35799 -0.362962 0)
(9.52127 -0.728783 0)
(9.18743 -0.703201 0)
(9.37863 -0.480414 0)
(8.91011 -0.334093 0)
(9.05095 -0.160876 0)
(8.51425 0.159512 0)
(8.96133 0.556386 0)
(8.47069 0.638885 0)
(8.88559 1.09379 0)
(8.3206 1.2118 0)
(9.05856 0.815197 0)
(8.92685 1.14726 0)
(9.2122 1.38271 0)
(9.06736 0.73113 0)
(9.43215 0.88462 0)
(9.26191 1.09067 0)
(9.85415 0.891856 0)
(9.51543 0.741397 0)
(9.69855 0.587032 0)
(9.45246 0.310987 0)
(9.23236 -0.203929 0)
(8.64822 -0.85549 0)
(8.5164 -1.18449 0)
(8.20284 -1.68367 0)
(8.57514 -1.88892 0)
(8.45347 -1.38897 0)
(9.06583 -1.15767 0)
(9.14663 -0.853425 0)
(9.67461 -0.454575 0)
(9.42212 -0.506502 0)
(9.71777 -0.574376 0)
(9.16967 -0.662186 0)
(9.2423 -1.21528 0)
(8.4381 -1.40162 0)
(8.45454 -1.54432 0)
(8.09225 -2.18454 0)
(7.90277 -2.72426 0)
(7.5841 -2.4922 0)
(7.2696 -2.74824 0)
(7.55273 -3.01941 0)
(6.40901 -3.41046 0)
(7.13561 -2.81426 0)
(5.82531 -3.22795 0)
(7.004 -2.44772 0)
(5.552 -2.42556 0)
(6.30893 -2.30944 0)
(5.3745 -2.50439 0)
(5.64831 -2.65167 0)
(5.4086 -3.28647 0)
(5.39319 -3.93615 0)
(5.31363 -4.56764 0)
(5.51099 -4.80247 0)
(5.84447 -4.43325 0)
(6.25475 -4.03803 0)
(6.59102 -3.53011 0)
(7.02835 -2.91501 0)
(7.27647 -1.96867 0)
(7.5763 -0.899944 0)
(8.02432 0.0625901 0)
(8.2637 1.21618 0)
(8.77324 2.58577 0)
(9.14404 3.65153 0)
(9.4884 4.73107 0)
(10.0593 5.84408 0)
(9.8439 6.43896 0)
(9.80485 7.14061 0)
(9.59895 7.61473 0)
(8.99139 7.38252 0)
(8.62266 7.45021 0)
(8.45273 7.74665 0)
(7.97662 7.80226 0)
(8.22315 8.30806 0)
(8.12377 9.46981 0)
(7.54551 10.1122 0)
(9.32498 9.58423 0)
(6.49811 13.9906 0)
(7.78815 -0.0582256 0)
(7.79035 -0.0788487 0)
(7.78969 -0.131359 0)
(7.82344 -0.171562 0)
(7.86901 -0.191621 0)
(7.87842 -0.150218 0)
(7.88788 -0.075037 0)
(7.84775 0.0214855 0)
(7.85002 0.125215 0)
(7.82117 0.195125 0)
(7.87384 0.231378 0)
(7.87155 0.269243 0)
(7.95086 0.285754 0)
(7.97832 0.319526 0)
(8.03395 0.346899 0)
(8.16693 0.345493 0)
(8.26411 0.33039 0)
(8.44365 0.299702 0)
(8.60076 0.242208 0)
(8.79231 0.170794 0)
(9.02968 0.0709784 0)
(9.24402 -0.0571168 0)
(9.48709 -0.180173 0)
(9.7908 -0.37005 0)
(9.9738 -0.521115 0)
(10.298 -0.727775 0)
(10.5899 -0.946698 0)
(10.7861 -1.10599 0)
(11.1669 -1.3802 0)
(11.3726 -1.53835 0)
(11.6471 -1.71214 0)
(11.9955 -2.00079 0)
(12.0917 -2.09386 0)
(12.3683 -2.27734 0)
(12.6165 -2.50543 0)
(12.6081 -2.519 0)
(12.8136 -2.69755 0)
(12.7287 -2.92776 0)
(12.7196 -2.80701 0)
(12.7394 -2.9151 0)
(12.2387 -3.00755 0)
(12.1361 -2.8117 0)
(12.0455 -2.7358 0)
(11.3733 -2.43306 0)
(11.1246 -2.18685 0)
(10.9334 -1.96443 0)
(10.5355 -1.4275 0)
(10.5644 -1.20088 0)
(10.42 -0.885173 0)
(10.2286 -0.371708 0)
(10.3085 -0.241792 0)
(10.1991 0.102469 0)
(10.2278 0.569944 0)
(10.6193 0.648921 0)
(10.6001 0.887477 0)
(10.7723 1.0259 0)
(11.0053 0.962511 0)
(10.9988 1.00934 0)
(11.1963 1.01397 0)
(11.4617 0.82549 0)
(11.6438 0.640397 0)
(11.7899 0.432889 0)
(12.1655 -0.146772 0)
(12.2184 -0.578078 0)
(12.4597 -1.23357 0)
(12.5271 -2.05164 0)
(12.3793 -2.57849 0)
(12.1411 -3.11802 0)
(11.4549 -3.44155 0)
(10.8755 -3.35643 0)
(10.0912 -3.20826 0)
(9.5789 -3.22961 0)
(9.14872 -3.19875 0)
(8.65254 -2.8777 0)
(8.14145 -2.50789 0)
(7.70469 -2.64158 0)
(7.18686 -2.70376 0)
(6.46273 -1.67094 0)
(5.9273 -0.412148 0)
(5.48846 -0.512375 0)
(5.10666 -2.42369 0)
(4.51032 -5.02715 0)
(3.79715 -7.7035 0)
(2.83748 -10.4482 0)
(2.31402 -11.889 0)
(2.53255 -11.3094 0)
(2.51685 -10.5756 0)
(2.62243 -10.1932 0)
(2.69895 -9.72255 0)
(2.96649 -8.79872 0)
(3.37061 -7.36525 0)
(3.61901 -6.03411 0)
(3.9836 -4.73742 0)
(4.27043 -3.47156 0)
(4.7152 -2.21339 0)
(5.23942 -1.05721 0)
(5.9408 -0.0166349 0)
(6.58938 0.90112 0)
(7.19289 1.94498 0)
(7.55636 3.1502 0)
(7.78554 4.14711 0)
(7.88503 5.02451 0)
(8.06953 6.21219 0)
(8.19629 7.4917 0)
(8.33013 8.64277 0)
(8.46992 9.47556 0)
(8.66954 9.92519 0)
(8.95037 10.1946 0)
(9.25264 10.1575 0)
(9.37336 9.81739 0)
(9.49489 9.20821 0)
(9.7028 8.3701 0)
(9.43936 7.35917 0)
(9.58237 6.46776 0)
(9.57118 5.45646 0)
(9.41598 4.60353 0)
(9.68565 3.70366 0)
(9.43074 2.86723 0)
(9.76785 2.16161 0)
(9.74485 1.48791 0)
(10.0287 0.887119 0)
(9.7967 0.244926 0)
(10.0199 -0.205107 0)
(9.65906 -0.4065 0)
(9.89156 -0.588913 0)
(9.46636 -0.650024 0)
(9.54161 -0.300737 0)
(9.15045 -0.240917 0)
(9.23035 0.0285506 0)
(8.63582 0.152071 0)
(8.98956 0.539218 0)
(8.6327 0.591936 0)
(8.83486 1.08649 0)
(8.53082 1.10925 0)
(8.86748 0.674771 0)
(8.80123 1.03851 0)
(8.9823 1.31157 0)
(9.14599 0.570547 0)
(9.3325 0.873563 0)
(9.26286 0.962041 0)
(9.63856 0.660664 0)
(9.71398 0.620714 0)
(9.87456 0.642598 0)
(9.82278 0.473742 0)
(9.53792 0.0090913 0)
(9.18068 -0.480049 0)
(8.88439 -0.804646 0)
(8.61586 -1.60742 0)
(8.45696 -1.83444 0)
(8.25139 -1.6136 0)
(8.60635 -1.38083 0)
(8.78829 -1.02256 0)
(9.08379 -0.691586 0)
(8.95068 -0.603958 0)
(9.19865 -0.396996 0)
(8.83552 -0.563784 0)
(8.9081 -1.00183 0)
(8.37732 -1.14695 0)
(8.46359 -1.34221 0)
(7.99773 -2.11986 0)
(7.87253 -2.54237 0)
(7.50928 -2.42838 0)
(7.48591 -2.70458 0)
(7.2016 -2.95234 0)
(6.69035 -3.25792 0)
(7.03896 -2.74749 0)
(6.18964 -3.00578 0)
(6.71705 -2.21654 0)
(5.79796 -2.18211 0)
(6.34262 -2.13445 0)
(5.54846 -2.46085 0)
(5.68625 -2.62681 0)
(5.38146 -3.31502 0)
(5.43247 -3.83248 0)
(5.23706 -4.64555 0)
(5.44141 -4.82999 0)
(5.46154 -4.62261 0)
(5.95429 -4.21249 0)
(6.30133 -3.80398 0)
(6.73056 -3.15507 0)
(6.81819 -2.20932 0)
(7.41353 -1.21239 0)
(7.55637 -0.336357 0)
(7.96369 0.923899 0)
(8.26479 2.24659 0)
(8.68666 3.36447 0)
(8.92236 4.34925 0)
(9.58591 5.55884 0)
(10.0816 6.47426 0)
(9.903 7.01313 0)
(10.1358 7.66816 0)
(9.96595 7.94545 0)
(9.30047 7.79724 0)
(9.2998 7.84867 0)
(9.01306 8.27391 0)
(8.83264 8.47559 0)
(9.25732 8.68732 0)
(7.94609 10.3235 0)
(11.4854 8.9607 0)
(8.6934 14.2734 0)
(10.0006 -0.0857002 0)
(10.0189 -0.213417 0)
(10.038 -0.26763 0)
(10.0734 -0.258557 0)
(10.1322 -0.224354 0)
(10.1229 -0.140046 0)
(10.1444 -0.0622094 0)
(10.1004 0.0232883 0)
(10.094 0.10498 0)
(10.0774 0.169896 0)
(10.0857 0.208848 0)
(10.1209 0.242543 0)
(10.1566 0.260962 0)
(10.2343 0.260401 0)
(10.287 0.287257 0)
(10.3955 0.259548 0)
(10.5183 0.233147 0)
(10.6181 0.197594 0)
(10.8131 0.10342 0)
(10.94 0.0394093 0)
(11.1351 -0.106023 0)
(11.3497 -0.225839 0)
(11.4991 -0.355585 0)
(11.7938 -0.570817 0)
(11.9165 -0.685545 0)
(12.1806 -0.916857 0)
(12.384 -1.107 0)
(12.533 -1.28109 0)
(12.8121 -1.55099 0)
(12.8706 -1.66832 0)
(13.0923 -1.92854 0)
(13.238 -2.10753 0)
(13.2211 -2.18355 0)
(13.3968 -2.46484 0)
(13.4071 -2.46386 0)
(13.2487 -2.58398 0)
(13.2854 -2.81694 0)
(13.157 -2.67004 0)
(12.8713 -2.73245 0)
(12.7343 -2.89587 0)
(12.4398 -2.64431 0)
(12.1845 -2.53056 0)
(11.829 -2.50602 0)
(11.38 -2.10174 0)
(11.2682 -1.95102 0)
(10.9255 -1.68618 0)
(10.4795 -1.19649 0)
(10.5221 -1.09601 0)
(10.233 -0.730821 0)
(10.1297 -0.331715 0)
(10.343 -0.33118 0)
(10.1295 0.100503 0)
(10.2036 0.459862 0)
(10.5942 0.47546 0)
(10.5204 0.767627 0)
(10.7868 0.919867 0)
(11.0556 0.841873 0)
(11.1686 0.907272 0)
(11.3389 0.943807 0)
(11.7043 0.687487 0)
(11.8601 0.509519 0)
(12.0216 0.25159 0)
(12.4046 -0.290331 0)
(12.4455 -0.751042 0)
(12.5886 -1.36944 0)
(12.441 -1.98355 0)
(12.1831 -2.35366 0)
(11.784 -2.68049 0)
(11.1511 -2.86197 0)
(10.6996 -2.86449 0)
(10.1179 -2.73843 0)
(9.79839 -2.81183 0)
(9.2985 -2.77587 0)
(8.80165 -2.46805 0)
(8.31012 -2.13581 0)
(7.86182 -2.26648 0)
(7.28089 -2.28149 0)
(6.65696 -1.2734 0)
(6.1267 0.057089 0)
(5.74579 -0.0512582 0)
(5.2924 -1.88251 0)
(4.61878 -4.44691 0)
(3.80921 -7.07504 0)
(2.82485 -9.82191 0)
(1.91374 -11.627 0)
(2.05224 -11.3411 0)
(2.05915 -10.5544 0)
(1.93579 -10.2195 0)
(1.9402 -9.86032 0)
(2.07256 -8.94873 0)
(2.37977 -7.47736 0)
(2.58738 -6.17878 0)
(2.9081 -4.92796 0)
(3.17628 -3.77185 0)
(3.67341 -2.66239 0)
(4.18952 -1.62365 0)
(4.9201 -0.597124 0)
(5.49742 0.429715 0)
(6.02795 1.63562 0)
(6.38931 2.91015 0)
(6.63645 3.99943 0)
(6.84105 4.95346 0)
(7.02102 6.12598 0)
(7.21592 7.42399 0)
(7.37349 8.50706 0)
(7.52989 9.26784 0)
(7.80923 9.70647 0)
(8.1037 9.93609 0)
(8.53172 9.91694 0)
(8.91904 9.58509 0)
(9.08865 8.96923 0)
(9.45356 8.27385 0)
(9.50516 7.37981 0)
(9.6644 6.39263 0)
(9.79238 5.40411 0)
(9.72271 4.53243 0)
(9.95897 3.72107 0)
(9.89892 2.79297 0)
(10.1066 2.04963 0)
(10.1566 1.34572 0)
(10.1605 0.872329 0)
(10.1936 0.249737 0)
(10.1277 -0.0767038 0)
(9.9279 -0.32013 0)
(9.95488 -0.498988 0)
(9.63543 -0.467562 0)
(9.39317 -0.162374 0)
(9.25463 -0.0850073 0)
(9.0439 0.225767 0)
(8.7248 0.320004 0)
(8.81897 0.530691 0)
(8.69433 0.678422 0)
(8.58904 1.16393 0)
(8.61725 1.11324 0)
(8.58125 0.693467 0)
(8.55272 0.954749 0)
(8.55372 1.12793 0)
(8.92502 0.501848 0)
(8.87201 0.779458 0)
(9.06488 0.777424 0)
(9.28899 0.450838 0)
(9.51972 0.478819 0)
(9.65348 0.565719 0)
(9.71974 0.558507 0)
(9.6154 0.20102 0)
(9.42774 -0.180853 0)
(9.14725 -0.643935 0)
(8.7985 -1.3597 0)
(8.50928 -1.53457 0)
(8.26082 -1.58864 0)
(8.25003 -1.56432 0)
(8.38399 -1.1498 0)
(8.49676 -0.675868 0)
(8.45726 -0.67937 0)
(8.58481 -0.44233 0)
(8.58535 -0.487462 0)
(8.55642 -0.767096 0)
(8.26183 -1.02622 0)
(8.3478 -1.24084 0)
(8.24722 -1.9219 0)
(8.04216 -2.32434 0)
(7.8482 -2.2938 0)
(7.81025 -2.34656 0)
(7.42613 -2.58244 0)
(7.23403 -2.98965 0)
(6.97788 -2.62245 0)
(6.4607 -2.7043 0)
(6.37477 -2.1373 0)
(6.19097 -2.09866 0)
(6.22165 -1.93656 0)
(5.69224 -2.16958 0)
(5.57816 -2.53135 0)
(5.83756 -3.25596 0)
(5.68785 -3.76575 0)
(5.55581 -4.64311 0)
(5.54008 -4.90158 0)
(5.37878 -5.01749 0)
(5.71868 -4.59973 0)
(5.95843 -4.07118 0)
(6.265 -3.28322 0)
(6.65535 -2.44174 0)
(7.09584 -1.52616 0)
(7.00605 -0.417687 0)
(7.48534 0.712839 0)
(7.87332 1.9189 0)
(8.16533 3.11641 0)
(8.42283 3.99105 0)
(9.02476 5.18265 0)
(9.79268 6.20336 0)
(10.0228 6.9198 0)
(10.2036 7.43116 0)
(10.6974 7.98207 0)
(10.478 8.32865 0)
(10.1402 8.0932 0)
(9.87065 8.08181 0)
(9.57087 9.0194 0)
(11.2436 8.87288 0)
(8.23931 10.8247 0)
(12.2645 6.70658 0)
(10.2946 13.2695 0)
(11.5113 -0.0602488 0)
(11.555 -0.233542 0)
(11.6478 -0.297871 0)
(11.7225 -0.278924 0)
(11.7952 -0.237889 0)
(11.7744 -0.133969 0)
(11.7968 -0.0745762 0)
(11.7566 0.0195428 0)
(11.7544 0.0873679 0)
(11.7568 0.144112 0)
(11.7524 0.199459 0)
(11.8042 0.212732 0)
(11.8177 0.223805 0)
(11.9227 0.206178 0)
(11.9587 0.217271 0)
(12.082 0.15743 0)
(12.1875 0.140748 0)
(12.2725 0.0840556 0)
(12.4673 -0.0298341 0)
(12.5179 -0.0807265 0)
(12.7532 -0.250781 0)
(12.8453 -0.346673 0)
(13.0005 -0.502281 0)
(13.2093 -0.705704 0)
(13.2401 -0.818368 0)
(13.489 -1.05715 0)
(13.4866 -1.20848 0)
(13.6469 -1.41985 0)
(13.7385 -1.62244 0)
(13.6628 -1.76236 0)
(13.868 -2.00269 0)
(13.7094 -2.07728 0)
(13.7124 -2.26281 0)
(13.7348 -2.39949 0)
(13.4311 -2.40146 0)
(13.4495 -2.62159 0)
(13.237 -2.5572 0)
(12.906 -2.53607 0)
(12.8297 -2.70075 0)
(12.541 -2.50551 0)
(12.2047 -2.39856 0)
(12.0535 -2.41423 0)
(11.7364 -2.16436 0)
(11.4093 -1.87282 0)
(11.2264 -1.75565 0)
(10.8305 -1.3948 0)
(10.684 -1.06443 0)
(10.72 -0.973593 0)
(10.427 -0.588151 0)
(10.4571 -0.358678 0)
(10.4765 -0.222975 0)
(10.1508 0.211825 0)
(10.2573 0.360723 0)
(10.3937 0.445578 0)
(10.2928 0.681694 0)
(10.5431 0.685883 0)
(10.8254 0.644148 0)
(10.9015 0.728464 0)
(11.1739 0.633981 0)
(11.5337 0.406376 0)
(11.6549 0.301549 0)
(11.8986 -0.00696387 0)
(12.2102 -0.509304 0)
(12.1874 -0.86545 0)
(12.198 -1.39346 0)
(11.9631 -1.76236 0)
(11.7644 -1.99366 0)
(11.3511 -2.30596 0)
(11.0306 -2.52228 0)
(10.6297 -2.49345 0)
(10.189 -2.46179 0)
(9.92708 -2.54541 0)
(9.38759 -2.41635 0)
(9.01238 -2.0811 0)
(8.53261 -1.70966 0)
(8.01185 -1.84093 0)
(7.42467 -1.91358 0)
(6.78717 -0.880512 0)
(6.34139 0.520745 0)
(5.88196 0.419008 0)
(5.37046 -1.40985 0)
(4.72321 -3.83771 0)
(3.75676 -6.37595 0)
(2.66263 -9.03776 0)
(1.53859 -11.1616 0)
(1.4446 -11.2652 0)
(1.45606 -10.5006 0)
(1.27175 -10.2154 0)
(1.19017 -9.86435 0)
(1.24424 -8.99173 0)
(1.50117 -7.60436 0)
(1.69506 -6.37508 0)
(1.97096 -5.20785 0)
(2.17747 -4.11201 0)
(2.61467 -3.07976 0)
(3.01059 -2.12356 0)
(3.61631 -1.04021 0)
(4.09855 0.108288 0)
(4.52683 1.40179 0)
(4.93833 2.70604 0)
(5.24207 3.80586 0)
(5.54393 4.82427 0)
(5.83668 5.9493 0)
(6.08589 7.22257 0)
(6.25377 8.30946 0)
(6.49132 8.98778 0)
(6.87399 9.44731 0)
(7.29118 9.55583 0)
(7.66745 9.40239 0)
(8.27062 9.27863 0)
(8.62724 8.73965 0)
(8.97752 8.01737 0)
(9.35005 7.14719 0)
(9.49136 6.285 0)
(9.72794 5.36126 0)
(9.89284 4.42138 0)
(9.98752 3.60763 0)
(10.1613 2.67802 0)
(10.188 2.0032 0)
(10.2448 1.36393 0)
(10.2482 0.87424 0)
(10.2163 0.319708 0)
(10.0156 0.0120382 0)
(9.87567 -0.242807 0)
(9.77939 -0.384344 0)
(9.48676 -0.166122 0)
(9.26437 -0.0297342 0)
(9.13697 0.108907 0)
(8.83368 0.405951 0)
(8.63494 0.480928 0)
(8.62432 0.538778 0)
(8.46897 0.812868 0)
(8.35661 1.16085 0)
(8.42425 1.13859 0)
(8.35988 0.806011 0)
(8.16263 1.01962 0)
(8.26096 0.900828 0)
(8.60482 0.476715 0)
(8.52029 0.644126 0)
(8.68604 0.526936 0)
(8.96322 0.31837 0)
(9.12881 0.416476 0)
(9.35445 0.474707 0)
(9.44159 0.500334 0)
(9.70859 0.174641 0)
(9.46595 0.05857 0)
(9.41519 -0.399314 0)
(9.00325 -1.04724 0)
(8.7298 -1.34992 0)
(8.36301 -1.38376 0)
(8.19809 -1.45881 0)
(8.04923 -1.15541 0)
(8.15394 -0.763966 0)
(8.11587 -0.657217 0)
(8.23385 -0.482603 0)
(8.37774 -0.545927 0)
(8.40394 -0.759831 0)
(8.38958 -1.02476 0)
(8.2235 -1.21925 0)
(8.33121 -1.82489 0)
(8.05327 -2.20032 0)
(8.06077 -2.20976 0)
(7.59906 -2.28626 0)
(7.52701 -2.60264 0)
(7.30484 -2.80117 0)
(6.99585 -2.31438 0)
(6.7444 -2.26725 0)
(6.32851 -2.09716 0)
(6.46317 -2.00665 0)
(5.96576 -1.74124 0)
(5.94747 -1.954 0)
(5.78524 -2.63205 0)
(6.2664 -3.21461 0)
(5.77486 -3.71279 0)
(5.85512 -4.41077 0)
(5.27548 -4.78241 0)
(5.1285 -5.02355 0)
(5.28405 -4.72388 0)