/*--------------------------------*- C++ -*----------------------------------*\
| =========                 |                                                 |
| \\      /  F ield         | OpenFOAM: The Open Source CFD Toolbox           |
|  \\    /   O peration     | Version:  2.4.0                                 |
|   \\  /    A nd           | Web:      www.OpenFOAM.org                      |
|    \\/     M anipulation  |                                                 |
\*---------------------------------------------------------------------------*/
FoamFile
{
    version     2.0;
    format      ascii;
    class       volScalarField;
    location    "1.67";
    object      p;
}
// * * * * * * * * * * * * * * * * * * * * * * * * * * * * * * * * * * * * * //

dimensions      [0 2 -2 0 0 0 0];

internalField   nonuniform List<scalar> 
8800
(
89.6403
77.2743
69.8719
66.3601
64.4431
63.068
61.8592
60.7471
59.7391
58.772
57.7935
56.8979
55.9791
55.0865
54.2131
53.4332
52.5644
51.8209
51.0893
50.0831
86.5296
76.9191
70.0416
66.4749
64.503
63.0926
61.8676
60.7464
59.7374
58.771
57.7895
56.8955
55.9786
55.0837
54.2125
53.4328
52.5694
51.8061
51.0916
50.0509
84.566
76.9916
70.6469
66.85
64.6714
63.1704
61.9143
60.7781
59.7627
58.7886
57.8
56.9007
55.9822
55.0815
54.2153
53.4321
52.5866
51.8023
51.1256
50.0633
83.0298
77.0476
71.241
67.2728
64.857
63.2545
61.9776
60.8325
59.8138
58.8259
57.8314
56.9168
55.9977
55.0834
54.2293
53.4306
52.6252
51.8372
51.2786
50.1287
81.7781
77.0178
71.7257
67.6792
65.0278
63.3169
62.0298
60.8869
59.8722
58.874
57.8751
56.9406
56.0177
55.0898
54.2464
53.4315
52.6684
51.9157
51.4247
50.2184
80.7894
76.9199
72.1008
68.0255
65.1842
63.3535
62.0632
60.9276
59.9279
58.921
57.9216
56.964
56.0385
55.0969
54.2599
53.4325
52.6974
51.9765
51.5395
50.3782
80.0336
76.8041
72.3757
68.3058
65.3247
63.3766
62.0787
60.9569
59.9698
58.9618
57.9603
56.9881
56.0515
55.1085
54.2632
53.4343
52.695
51.9906
51.6176
50.9677
79.4783
76.7086
72.5544
68.5213
65.4465
63.3996
62.0691
60.9841
59.9974
58.998
57.9822
57.0146
56.0548
55.1228
54.2523
53.4403
52.6657
51.9571
51.3868
51.4951
79.1184
76.6385
72.6649
68.6683
65.5355
63.4143
62.0602
61.0025
60.0158
59.0211
58.0017
57.0304
56.0608
55.1311
54.2535
53.4336
52.633
51.9579
51.4768
52.0623
78.9415
76.6012
72.717
68.7446
65.5816
63.4218
62.0536
61.0099
60.0279
59.034
58.0119
57.036
56.0676
55.1346
54.2558
53.4311
52.6412
51.9718
51.5489
52.2004
78.9371
76.6052
72.7126
68.7492
65.5815
63.4233
62.0413
61.0116
60.0256
59.0367
58.0149
57.0364
56.0705
55.1424
54.2618
53.4369
52.6539
51.9991
51.5924
52.339
79.1113
76.6461
72.6554
68.6769
65.539
63.417
62.0493
61.005
60.0135
59.0257
58.0096
57.0313
56.0739
55.1491
54.271
53.4511
52.6742
52.0207
51.6263
52.4399
79.4656
76.7225
72.5386
68.5336
65.451
63.4057
62.0586
60.9926
59.989
59.0059
57.9962
57.0207
56.0742
55.1571
54.2829
53.4702
52.7022
52.0515
51.6438
52.4597
80.017
76.8218
72.3545
68.3198
65.3269
63.3858
62.0652
60.9717
59.9559
58.9758
57.9745
57.0035
56.0706
55.1652
54.2961
53.4982
52.7381
52.0892
51.6565
52.3784
80.7734
76.9334
72.087
68.0366
65.1865
63.3559
62.0618
60.9395
59.9123
58.937
57.9459
56.978
56.0664
55.17
54.3087
53.528
52.7863
52.1382
51.6844
52.2052
81.7584
77.0279
71.72
67.6886
65.0328
63.3091
62.0392
60.897
59.8594
58.8888
57.9132
56.9478
56.059
55.1715
54.3226
53.5557
52.8411
52.1967
51.7387
51.9691
83.0077
77.0541
71.2427
67.2823
64.8624
63.2404
61.9953
60.844
59.8002
58.8386
57.881
56.9188
56.0507
55.1704
54.3348
53.5763
52.8936
52.253
51.8191
51.709
84.5457
76.991
70.6535
66.8586
64.6794
63.1522
61.9352
60.7904
59.751
58.7988
57.8564
56.9008
56.0445
55.1699
54.3457
53.5915
52.9299
52.2956
51.8891
51.5779
86.5131
76.9133
70.0496
66.4824
64.5132
63.0734
61.8886
60.7592
59.7276
58.7806
57.8467
56.8975
56.0441
55.1733
54.354
53.602
52.9459
52.3205
51.893
51.5152
89.6284
77.2672
69.8801
66.3676
64.4538
63.0492
61.88
60.7584
59.731
58.7824
57.8484
56.9016
56.0463
55.175
54.3585
53.6055
52.9486
52.3275
51.8949
51.6319
50.1649
50.2386
50.1926
50.0214
49.7744
49.5183
49.2785
49.0883
48.9793
48.9774
49.0751
49.2481
49.4587
49.6588
49.8281
49.968
50.0933
50.2048
50.352
50.5725
50.8845
51.3792
52.0923
53.0486
54.3002
55.8244
57.4864
59.0894
60.4438
61.3578
61.5936
60.9992
59.7422
57.688
54.8418
51.4017
47.5018
43.4188
39.3413
35.3955
31.815
28.719
26.1279
24.2387
23.044
22.7995
23.2792
24.2733
25.862
27.3541
28.8933
30.7103
31.9764
33.1453
34.3833
35.2771
36.2451
37.1507
37.8064
38.4544
39.1419
39.6856
40.0096
40.3556
40.5419
40.4948
40.4329
40.3159
39.9761
39.4886
39.2129
38.9746
38.8018
38.9674
39.3717
40.198
41.501
43.2028
45.4992
48.1789
51.1794
54.3865
57.4616
60.437
62.9707
64.9694
66.3961
67.1294
67.4857
67.2261
66.5063
65.727
64.6417
63.4722
62.6184
61.7724
61.0883
60.8324
60.7308
60.9959
61.8608
62.9189
64.0945
65.7418
67.3444
68.5711
69.8964
71.2588
72.2584
73.147
74.0365
74.6684
75.194
75.7317
76.0891
76.0334
75.508
74.8551
74.1154
72.848
70.7455
67.5485
63.3157
58.8266
53.62
47.1932
39.9717
32.269
25.4126
19.6545
14.35
9.3503
5.13477
2.24668
0.55058
-0.353864
-0.164658
2.27322
7.33808
14.2305
21.7475
28.8329
35.1869
40.6717
45.4147
49.591
53.2638
56.4882
59.5139
62.3439
64.762
66.7883
68.6024
69.802
70.3735
70.5858
70.3699
69.7815
69.0173
68.1347
66.8996
65.572
63.7465
61.6581
59.552
57.556
55.4092
52.797
50.4348
47.7662
45.3808
43.2615
41.6129
39.917
39.5612
39.4839
40.2325
41.3527
43.7566
46.178
49.3543
51.9666
54.8203
56.782
59.2312
61.09
63.1343
64.4666
65.8315
66.6865
67.8855
68.8914
69.4555
70.0781
70.0996
69.7496
69.3662
65.7917
64.9971
45.944
49.8485
49.875
49.9558
49.9504
49.8422
49.6338
49.3865
49.1701
49.033
49.0072
49.0895
49.2466
49.4532
49.6591
49.8269
49.9841
50.1418
50.2728
50.4611
50.7382
51.0927
51.6485
52.4297
53.3929
54.6177
56.0696
57.5867
59.039
60.2499
61.0481
61.1852
60.6213
59.409
57.4018
54.6317
51.3382
47.6703
43.9386
40.1844
36.4844
33.2064
30.3069
27.8555
26.0812
24.9781
24.5754
24.7798
25.5509
26.9791
28.3818
29.8138
31.4601
32.7647
33.8872
35.024
36.0301
36.8756
37.6779
38.4458
39.0353
39.4918
39.7788
40.0582
40.2614
40.1628
39.9467
39.5361
39.0696
38.6281
37.9434
37.3846
36.9575
36.6524
36.7345
37.0855
37.8521
39.082
40.7834
43.0203
45.6044
48.5929
51.8675
54.9887
57.9023
60.4758
62.6002
64.2209
65.2418
65.9233
66.1757
66.0098
65.8788
65.4212
64.7291
64.3648
63.9991
63.6403
63.6196
63.6856
63.909
64.6592
65.5707
66.491
67.7528
68.9725
69.8648
70.8863
72.0067
72.8202
73.5109
74.1632
74.6352
75.1715
75.8479
76.3163
76.3866
76.1295
75.8577
75.3937
74.1328
71.9259
68.5636
64.2233
59.4693
53.9123
47.5502
40.4287
32.7066
25.6379
19.5291
14.1106
8.96699
4.67436
1.83779
0.18985
-0.814164
-0.594333
2.08892
7.41936
14.4652
21.9804
29.0599
35.6047
41.0715
45.696
49.8983
53.5618
56.6149
59.5056
62.4776
65.0968
67.1259
68.9667
70.1764
70.81
71.0623
70.8907
70.3702
69.5749
68.6625
67.4148
66.215
64.5158
62.6457
60.5032
58.4794
56.4498
53.7779
51.8671
49.3826
47.2094
44.9205
43.6019
41.7158
41.4894
41.1368
41.9546
42.8509
44.947
46.9992
49.7542
52.0137
54.6668
56.195
58.6063
60.2033
62.1297
63.3812
64.545
65.1961
66.5615
67.1285
68.3149
67.8459
68.7777
65.9788
66.3304
60.0473
55.4311
40.6861
49.8572
49.8524
49.9348
50.003
49.9673
49.812
49.5381
49.2771
49.0901
49.0488
49.128
49.2782
49.4993
49.7151
49.9002
50.0654
50.264
50.4141
50.6382
50.98
51.3472
51.9392
52.7499
53.6727
54.7988
56.1253
57.4432
58.6467
59.6445
60.2969
60.4185
59.8416
58.6398
56.7406
54.1498
51.0658
47.6599
44.2097
40.7357
37.3047
34.2791
31.6338
29.3883
27.8824
26.8881
26.4329
26.5737
27.2963
28.5527
29.828
31.1661
32.5682
33.8118
34.9504
35.9419
36.9521
37.8172
38.4409
39.0882
39.5961
39.9411
40.1374
40.2011
40.1314
39.8547
39.377
38.7018
38.0226
37.2162
36.2529
35.4692
34.7514
34.2962
34.2057
34.4008
35.1414
36.333
38.0736
40.3018
42.9391
45.9846
49.1663
52.3853
55.4435
58.1254
60.4935
62.4306
63.7553
64.7914
65.478
65.7932
66.113
66.1232
65.9016
65.9395
65.9333
65.7338
65.8869
66.1499
66.3428
67.0056
67.8057
68.3755
69.2643
70.3056
71.0078
71.6953
72.5434
73.315
73.9395
74.4241
74.7961
75.2645
75.9594
76.5321
76.743
76.8245
76.9146
76.6961
75.566
73.2822
69.7425
65.3266
60.405
54.8068
48.438
41.1444
33.5366
26.361
20.0483
14.7011
9.56602
5.20444
2.30014
0.648862
-0.310842
0.0346145
2.81167
8.22982
15.2887
22.6984
29.9044
36.4472
41.6327
46.2362
50.4718
54.0581
56.8801
59.7945
62.7843
65.5333
67.5455
69.3902
70.8303
71.5718
71.8865
71.7523
71.2532
70.3668
69.3283
68.1293
66.8448
65.4536
63.6123
61.7625
59.5493
57.8725
55.0477
53.3834
50.8075
48.8706
46.7034
45.5477
43.8762
43.2574
43.2314
43.8403
44.634
46.2721
47.7969
49.9368
51.4105
53.7765
54.8557
57.2135
57.8794
60.3781
60.636
62.838
62.3966
64.3088
63.8465
65.7751
64.1839
65.1019
61.8565
60.0326
54.9832
47.2034
38.4208
49.1588
49.3407
49.9795
50.3139
50.3448
50.1313
49.7345
49.3847
49.164
49.1037
49.2093
49.3695
49.5945
49.825
50.0217
50.2159
50.4519
50.6177
50.8599
51.2589
51.6216
52.1881
52.9965
53.8499
54.8081
55.9492
57.06
57.9797
58.7771
59.3311
59.3302
58.7647
57.7086
55.9523
53.5798
50.8178
47.7648
44.6354
41.5371
38.4507
35.6901
33.4369
31.4815
29.9961
29.0993
28.736
28.8577
29.5312
30.5569
31.6011
32.8228
34.0837
35.2332
36.26
37.1697
38.039
38.7005
39.2647
39.8743
40.2378
40.4289
40.5547
40.3576
40.0441
39.6989
38.9381
37.9493
36.9907
35.7886
34.4459
33.3569
32.3698
31.6268
31.2157
31.187
31.9181
33.0826
34.7231
36.9312
39.4983
42.6623
46.076
49.5068
52.8491
55.8081
58.5479
60.8487
62.5335
63.9787
65.0136
65.6886
66.3825
66.7824
66.9105
67.2448
67.4677
67.4655
67.7375
68.0421
68.2837
68.8095
69.3378
69.8159
70.5945
71.3975
71.9085
72.3674
72.9917
73.6778
74.2891
74.7347
75.0325
75.4586
76.1583
76.7714
77.1217
77.4917
77.93
78.0879
77.1492
74.7544
71.0631
66.5312
61.5505
56.0912
49.8364
42.6946
35.1635
27.7566
21.3274
15.938
10.9504
6.63027
3.56732
1.94678
1.36138
1.79362
4.54242
9.79481
16.6837
23.9631
31.2323
37.4259
42.5073
47.1803
51.3147
54.546
57.2086
60.1691
63.1837
65.9345
68.1621
70.0797
71.6757
72.6896
72.9838
72.9192
72.3519
71.4977
70.1929
69.0359
67.6357
66.3613
64.5684
63.0748
60.7278
59.2132
56.616
54.7597
52.4029
50.7562
48.7383
47.4645
46.0554
45.3079
45.2564
45.6435
46.0827
47.2437
48.5235
49.8718
51.0383
52.5187
53.4856
54.6648
55.3465
56.9275
57.1763
58.93
58.4314
59.7499
58.9585
59.0115
58.4638
57.5668
56.4451
53.9251
49.9904
43.1393
36.9198
48.8992
49.2935
50.3267
50.7995
50.8066
50.4383
49.9036
49.5019
49.2587
49.1813
49.3102
49.496
49.7426
49.9958
50.18
50.4296
50.68
50.8213
51.0936
51.5127
51.8592
52.3773
53.1218
53.8454
54.6597
55.607
56.4843
57.2
57.8116
58.1987
58.1374
57.6472
56.6899
55.105
53.1129
50.6952
48.0083
45.3532
42.6129
39.9242
37.5869
35.5836
33.8301
32.4943
31.7282
31.4856
31.527
32.0613
32.8543
33.7093
34.7825
35.7986
36.808
37.6216
38.3691
39.2449
39.7391
40.1143
40.6404
40.9367
40.9464
40.9782
40.6916
40.0784
39.5446
38.5898
37.2832
35.9157
34.3202
32.613
30.9782
29.6941
28.638
27.7729
27.5513
28.0119
28.9801
30.5061
32.605
35.3677
38.7077
42.3627
46.2095
49.9567
53.3986
56.6348
59.3924
61.5262
63.2894
64.6545
65.7481
66.7184
67.344
67.7733
68.3109
68.6588
68.8599
69.2115
69.4996
69.753
70.2098
70.6715
71.0818
71.6199
72.2129
72.6399
73.0625
73.5888
74.1056
74.542
74.8835
75.1573
75.6223
76.4188
77.1772
77.6393
78.1563
78.8877
79.3027
78.5392
76.2562
72.6584
68.15
63.2077
57.778
51.5328
44.6358
37.3178
29.7905
23.2893
17.8883
13.1694
8.89018
5.68218
4.03473
3.7079
4.71204
7.68344
12.7326
19.1035
26.0507
32.9553
38.6641
43.7918
48.2908
52.2702
55.1278
57.9169
60.5807
63.7097
66.5885
69.0484
71.1568
72.8696
74.0706
74.5468
74.4505
73.7543
72.8973
71.2137
70.0996
68.4347
67.288
65.4078
64.1344
61.8547
60.2649
58.1528
56.2408
54.1813
52.5338
50.7391
49.2573
48.1208
47.1741
46.9655
46.9736
47.3032
47.7266
48.918
49.6174
50.6366
51.2472
52.4487
52.6212
53.8096
54.1603
54.9622
55.3482
55.8824
55.9991
55.6936
55.0372
54.4862
53.6107
52.6821
50.2389
47.0381
41.0567
35.4289
48.993
49.4662
50.5537
50.9782
50.99
50.5313
49.9741
49.6188
49.3856
49.3391
49.4703
49.7084
49.9566
50.1856
50.3787
50.6373
50.8938
51.0424
51.3102
51.7139
52.053
52.4984
53.1476
53.7724
54.4368
55.1695
55.8654
56.4503
56.8551
57.1298
57.0811
56.6249
55.759
54.3893
52.7158
50.7314
48.4329
46.1835
43.9926
41.6562
39.6037
37.8758
36.3692
35.1744
34.5021
34.3237
34.2632
34.5892
35.2596
35.8948
36.7092
37.5612
38.3627
38.976
39.5618
40.3932
40.8682
41.173
41.4521
41.5823
41.6016
41.5283
41.2534
40.4146
39.4183
38.2985
36.7221
34.9307
32.8586
30.6143
28.4656
26.6684
25.1441
23.9102
23.372
23.5394
24.2519
25.7834
27.7789
30.5876
34.1871
38.17
42.4811
46.8367
50.8447
54.5944
57.8461
60.4902
62.6834
64.3961
65.8361
67.0643
67.9189
68.5998
69.2422
69.6637
70.008
70.3776
70.6391
70.9191
71.3478
71.7097
71.9669
72.4239
72.9746
73.3841
73.7852
74.2438
74.653
74.8761
74.9915
75.1756
75.6687
76.6047
77.5207
78.0883
78.7605
79.6567
80.2509
79.7747
77.7454
74.2696
69.8467
65.045
59.8468
53.7879
47.0001
39.8114
32.3286
25.6177
20.3205
16.061
11.9569
8.72842
6.98647
6.53548
8.02943
11.2784
16.1629
22.0129
28.5697
34.7162
40.2549
45.1897
49.4828
53.0961
55.7897
58.6011
61.1643
64.4379
67.4557
70.0755
72.3209
74.3128
75.7157
76.3886
76.2256
75.3711
74.2926
72.4788
71.2449
69.3541
68.1122
66.2495
64.8193
62.6988
60.9397
59.1576
57.3447
55.502
53.8448
52.2312
51.0949
50.0301
49.0415
48.7621
48.5962
48.7583
48.9002
49.4745
49.7869
50.6436
50.9767
51.8074
52.1934
53.0999
53.4813
54.0863
54.3406
55.0766
54.948
55.2097
54.6734
54.639
53.3465
52.3214
49.225
46.3038
41.6339
35.849
49.803
49.9974
50.5393
50.6063
50.5028
50.1113
49.7288
49.6073
49.5212
49.5499
49.6984
49.9631
50.2072
50.3851
50.5887
50.8531
51.0561
51.2067
51.4885
51.8448
52.159
52.5501
53.119
53.6375
54.1508
54.7423
55.2987
55.7734
56.073
56.21
56.1994
55.7786
54.9625
53.9321
52.4755
50.8166
49.0806
47.0759
45.2297
43.4713
41.4901
39.9098
38.8071
37.8084
37.0556
36.8149
36.9055
37.0304
37.3688
37.95
38.543
39.1924
39.8586
40.4424
40.8937
41.3642
41.8315
42.2305
42.5384
42.5945
42.3943
42.2099
41.9035
40.9644
39.7228
38.2089
36.2725
34.0236
31.4087
28.5801
25.7748
23.3776
21.3362
19.7453
18.8512
18.7087
19.3412
20.5347
22.6625
25.5836
29.3078
33.7525
38.5256
43.3086
48.0223
52.506
56.2998
59.4577
62.143
64.3312
66.1222
67.4941
68.5346
69.4277
70.1507
70.6214
71.0147
71.3801
71.6217
71.8851
72.3571
72.6165
72.8518
73.2585
73.7274
74.1326
74.51
74.856
75.0727
75.1567
75.1987
75.2779
75.6865
76.565
77.5717
78.4149
79.2353
80.2617
81.0359
80.7918
78.9043
75.6032
71.4125
66.8357
62.0112
56.3954
49.9685
43.004
35.6985
28.7707
23.2925
19.2994
15.594
12.6322
10.8068
10.0854
11.6305
14.7529
19.3678
24.9554
31.0584
36.6974
42.1161
46.5583
50.6895
53.8926
56.7094
59.2315
61.8809
65.2149
68.3747
71.177
73.6878
75.7379
77.5111
78.2473
78.0135
77.0321
75.6173
73.6861
72.3806
70.3597
68.8209
66.937
65.267
63.3337
61.5137
59.8674
58.2356
56.7006
55.2152
53.6799
52.9384
52.2079
51.0067
50.8797
50.368
50.6528
50.4826
50.9889
50.9311
52.0378
51.839
52.8192
53.0806
53.6439
53.7443
54.5071
54.5988
55.3513
54.7415
54.8997
54.3287
54.2923
52.826
51.6034
49
46.1112
41.8063
36.5653
52.2887
51.8458
50.8123
49.9981
49.5492
49.2723
49.2379
49.4888
49.6397
49.764
49.9751
50.2408
50.4573
50.5937
50.777
51.0204
51.1762
51.3093
51.6068
51.9437
52.1666
52.5294
53.0518
53.4765
53.893
54.3862
54.8698
55.2473
55.4157
55.4904
55.5019
55.1319
54.3724
53.5477
52.4736
51.0257
49.5401
47.9922
46.3908
44.8502
43.2358
41.9881
40.9944
40.0156
39.4732
39.1862
39.0462
39.2059
39.4164
39.7782
40.2872
40.8136
41.2708
41.6735
42.2921
42.7078
42.9006
43.2541
43.5729
43.7025
43.5261
43.1654
42.7361
41.7544
40.4391
38.499
35.9978
33.3022
30.0322
26.6516
23.2405
20.1081
17.6033
15.5774
14.4459
14.0412
14.3898
15.5879
17.439
20.4016
24.3488
28.9468
34.2054
39.6879
45.0596
50.2513
54.8139
58.6073
61.7404
64.4064
66.5829
68.1749
69.3272
70.2793
71.0368
71.581
72.0215
72.356
72.5785
72.8075
73.0239
73.3891
73.6472
74.0912
74.5462
74.837
75.1165
75.4312
75.5538
75.462
75.2831
75.2274
75.6046
76.4175
77.4343
78.4258
79.3791
80.4993
81.4411
81.3259
79.7068
76.7496
72.8775
68.6139
64.028
58.8352
52.9733
46.6138
39.757
32.6883
26.9889
22.9752
19.4246
17.02
15.4228
14.8685
16.1761
18.8652
23.024
28.2267
33.6398
39.0156
43.8873
48.0812
51.8563
54.7622
57.4711
59.8832
62.8278
66.2609
69.4626
72.4984
75.284
77.3638
79.3016
79.9207
79.5636
78.2551
76.9128
74.7562
73.4393
71.2515
69.4874
67.6142
65.8133
64.1503
62.5032
61.033
59.2615
58.1006
56.8159
55.3474
54.5233
54.1016
52.909
52.6998
52.0601
52.1501
52.3934
52.7572
52.722
53.5221
53.7417
54.3652
54.7221
55.2724
55.0142
56.0686
55.6457
56.2084
55.1439
55.322
54.4981
53.8956
52.4309
51.1757
48.9008
45.7573
41.5023
36.5586
53.3661
52.7098
50.9524
49.7022
49.005
48.7295
48.9361
49.4116
49.7353
49.9965
50.2484
50.5346
50.7386
50.7708
50.9717
51.1902
51.2403
51.3995
51.668
51.9511
52.1805
52.4836
52.9864
53.3717
53.662
54.0728
54.511
54.7958
54.8889
54.9949
54.994
54.5856
54.0294
53.3898
52.4022
51.2707
50.0901
48.692
47.4373
46.2081
44.7935
43.7221
43.0078
42.1008
41.4506
41.3233
41.1336
41.1002
41.3739
41.5849
41.9015
42.3317
42.7551
43.0516
43.4552
43.9639
44.1712
44.4515
44.7372
44.7663
44.8072
44.5604
43.8052
42.7188
41.4595
39.3998
36.3262
32.859
29.0567
25.1525
21.1934
17.4524
14.3884
11.9942
10.4911
9.82736
9.88663
10.7532
12.6781
15.474
19.3072
24.168
29.7422
35.8825
42.1949
48.0491
53.3851
58.003
61.6822
64.6805
67.0799
68.8875
70.2633
71.3363
72.0642
72.5877
73.0024
73.3155
73.5383
73.7625
74.0746
74.2898
74.5248
74.8769
75.2331
75.5078
75.7773
75.9641
75.9485
75.704
75.2941
74.9355
75.0303
75.8671
77.1287
78.2919
79.3934
80.5287
81.3905
81.3902
80.1445
77.6895
74.3066
70.4359
66.1999
61.3803
55.9295
50.1444
43.64
36.9982
31.4411
26.9291
23.429
21.4769
20.2431
20.5174
21.2145
23.5736
27.1604
31.7538
36.5076
41.3856
45.5379
49.5168
52.7032
55.511
58.1741
60.6546
63.9494
67.3432
70.9316
73.8176
76.8435
78.7897
80.8703
81.08
80.8407
79.2614
78.0789
75.9582
74.3265
72.3562
70.303
68.7193
66.9255
65.3311
64.0837
62.6399
60.9408
59.4963
58.4766
57.0987
56.2463
55.6495
54.5737
54.387
53.9643
53.8308
54.1495
54.4164
54.2423
54.712
55.031
55.1795
55.5372
55.9393
55.7364
56.656
55.8366
56.2456
55.5841
55.3336
54.5454
53.4611
52.3579
50.5893
47.9939
44.9329
41.279
36.7545
53.8109
53.2181
51.2308
49.7732
48.9548
48.5735
48.8241
49.4252
49.8215
50.1563
50.4951
50.7472
50.9264
50.96
51.103
51.3039
51.3206
51.437
51.736
51.9629
52.1404
52.4486
52.8722
53.2054
53.4713
53.8256
54.2156
54.4385
54.4688
54.5698
54.5836
54.2207
53.7312
53.2681
52.501
51.4797
50.5438
49.496
48.3751
47.2763
46.2744
45.4536
44.6456
43.9576
43.4521
43.1875
43.0789
43.003
43.0958
43.2174
43.4896
43.8931
44.1024
44.3801
44.7963
45.145
45.3614
45.6858
45.9596
45.8933
46.0905
46.1018
45.2648
44.0779
42.667
40.5254
37.2342
33.1658
28.7797
24.1772
19.7444
15.7227
12.0967
9.38942
7.667
6.67303
6.69554
7.4147
8.98489
11.5532
15.1328
19.9064
25.7928
32.4847
39.4955
46.2812
52.4281
57.5034
61.6823
65.2054
67.9088
69.8031
71.2437
72.3305
73.072
73.6561
74.0662
74.3237
74.4985
74.6971
74.9045
75.078
75.3115
75.6025
75.9004
76.145
76.3578
76.4898
76.375
75.9076
75.1333
74.3905
74.1674
74.7987
76.1086
77.7548
79.1622
80.2488
81.0591
81.0723
80.1818
78.3246
75.5903
72.1904
68.3752
64.0206
58.9391
53.5149
47.5626
41.5626
36.2316
31.3535
27.8314
25.8976
24.3604
23.8445
25.3525
27.6982
30.9735
34.9404
39.2065
43.3299
47.0409
50.5709
53.4466
56.2935
59.0124
61.7398
65.353
68.4865
72.4672
74.9237
78.1816
79.8572
81.9974
81.4671
82.0222
79.9659
79.1074
76.9383
75.3602
73.7092
71.6608
70.3779
68.5754
67.2283
65.7946
64.6056
62.868
61.3183
60.1755
58.8994
57.9406
57.2743
56.2832
56.0484
55.498
55.2708
55.149
55.5122
55.0998
55.4188
55.5384
55.3532
55.6016
55.816
55.902
56.1196
55.503
55.463
54.985
53.9701
53.4367
52.337
50.6303
49.0925
46.7664
43.8313
40.0487
35.8273
54.1021
53.5406
51.5326
49.9925
49.0224
48.5607
48.8222
49.4247
49.8768
50.2643
50.6596
50.9452
51.065
51.0957
51.2501
51.3798
51.3513
51.477
51.758
51.9389
52.1076
52.4021
52.7842
53.0931
53.2896
53.6094
53.978
54.0969
54.1454
54.2852
54.2411
53.9526
53.6175
53.2432
52.5647
51.7943
51.0529
50.1221
49.3184
48.4839
47.4971
46.9306
46.345
45.5475
45.19
45.0487
44.7975
44.6609
44.7807
44.9259
45.0064
45.3185
45.569
45.7228
46.0384
46.217
46.5159
46.9336
47.1147
47.0904
47.2913
47.5853
46.9585
45.6861
44.1469
41.768
38.3399
33.8785
28.8727
23.7984
18.8816
14.5052
10.7018
7.71436
5.78575
4.74276
4.58591
5.23624
6.61325
8.79596
12.1157
16.8984
22.7811
29.8173
37.4817
44.845
51.6188
57.3702
61.9894
65.813
68.706
70.7589
72.3479
73.413
74.1101
74.6826
75.0529
75.2564
75.4135
75.5753
75.7152
75.8453
76.0143
76.2654
76.5392
76.7706
76.965
77.0283
76.8029
76.1149
74.8055
73.3111
72.6607
73.4007
75.0784
77.1226
78.5816
79.6463
80.5668
80.5095
80.0764
78.8793
76.6729
73.6888
70.2589
66.4559
61.7848
56.8874
51.5213
46.1788
41.0727
36.1761
32.5806
30.37
28.4764
27.6662
28.8534
31.0879
33.8772
37.3191
41.2779
44.8051
48.3508
51.4037
54.3655
57.3409
60.1552
63.36
66.8907
70.0783
74.1
76.7715
79.7932
81.3775
82.5164
81.7571
82.5663
80.0019
79.6079
77.3252
76.5511
75.1059
73.2885
72.4877
70.4345
69.6524
67.5275
66.5839
64.7282
63.309
61.9877
60.5297
59.6521
58.5887
57.6937
57.3764
56.7709
56.1452
55.9073
55.9176
55.5055
55.6385
55.658
55.4785
55.7454
55.3169
55.7721
55.8204
54.7221
54.5033
54.307
52.9964
51.8491
51.1809
49.5568
47.6739
45.2223
41.896
38.2617
34.6522
54.2545
53.6714
51.7144
50.1684
49.0869
48.6213
48.8865
49.4943
49.9811
50.3583
50.8184
51.0907
51.1395
51.2054
51.3361
51.4542
51.3997
51.4729
51.8053
51.9209
52.0233
52.3842
52.6897
52.9252
53.1519
53.4205
53.7665
53.8649
53.889
54.0636
54.002
53.749
53.5444
53.2684
52.7218
52.0901
51.5479
50.8994
50.1728
49.4716
48.7731
48.2259
47.7494
47.1834
46.7936
46.6491
46.5165
46.3822
46.398
46.5077
46.5549
46.719
46.8987
46.9439
47.1897
47.3136
47.4586
47.9633
48.2531
48.3744
48.4731
48.6182
48.4565
47.4048
45.6541
42.9795
39.3421
34.7236
29.2923
23.7565
18.4286
13.528
9.44737
6.38411
4.35028
3.38713
3.23865
3.67495
4.95257
7.06825
10.2965
14.9193
20.8554
28.1337
36.0259
43.9185
51.3058
57.4224
62.4709
66.6704
69.6288
71.7537
73.4136
74.4808
75.2233
75.757
76.0059
76.113
76.216
76.3341
76.4144
76.5029
76.6906
76.9307
77.1187
77.3107
77.5454
77.6667
77.3767
76.2375
74.2179
72.1117
71.0687
71.7067
73.8737
76.2079
77.7422
78.6969
79.1393
79.6761
79.8528
79.2884
77.6257
75.0938
72.1023
68.7219
64.6502
60.1962
55.301
50.5428
45.5913
40.8424
37.4411
34.9585
32.5599
31.6289
32.7347
34.29
36.4613
39.6214
43.1042
46.3615
49.6304
52.5676
55.7954
58.6928
61.6126
65.4815
68.5889
72.3788
76.0665
79.5379
81.2083
83.9043
83.5649
83.4701
83.2462
80.2688
79.789
77.1373
77.0716
75.8208
74.7712
74.3782
72.2908
71.8755
69.3052
68.4603
66.4221
64.9956
63.7555
61.8644
61.0515
59.6665
58.7372
58.3312
57.6846
56.8984
56.424
56.2355
55.5488
55.9658
55.5186
55.2103
55.7562
54.9232
55.0109
55.0362
54.1626
53.3981
52.8739
52.4077
51.0876
50.1046
48.483
45.9475
43.3683
40.7081
37.0008
33.0092
54.3007
53.6731
51.7569
50.2964
49.1924
48.7959
49.1154
49.6493
50.1524
50.504
50.9101
51.2189
51.2125
51.2519
51.4199
51.4805
51.4219
51.5105
51.7815
51.912
52.0017
52.3029
52.6226
52.8172
52.9949
53.2952
53.5855
53.623
53.6892
53.8907
53.836
53.6404
53.546
53.3472
52.9169
52.4685
52.0916
51.5514
50.9965
50.4747
49.8746
49.5044
49.1504
48.6384
48.3523
48.2687
48.1031
47.9636
47.9451
47.9231
47.9754
48.0344
48.0845
48.1762
48.1903
48.2527
48.4583
48.6945
48.9076
49.3582
49.6673
49.3982
49.1337
48.7227
47.1792
44.2582
40.1988
35.2407
29.6511
23.9101
18.3776
13.2508
8.79133
5.40733
3.30183
2.33297
2.1787
2.73695
4.05767
6.17015
9.42911
14.0728
20.057
27.3864
35.5022
43.7625
51.4362
57.8821
63.2935
67.6056
70.7118
73.0077
74.5624
75.4844
76.2086
76.6816
76.8893
76.9831
77.017
77.019
76.9553
77.0058
77.1965
77.4157
77.6135
77.8479
78.1255
78.3168
77.9998
76.4985
73.8203
71.1883
69.959
70.6526
72.9961
75.3949
76.5762
77.2247
78.1201
78.9944
79.5946
79.5149
78.3855
76.3781
73.8205
70.9531
67.2498
63.3298
58.8118
54.3764
49.7836
45.4179
42.0504
39.2065
36.7326
35.8066
36.343
37.5804
39.3262
41.9989
45.3373
48.1438
51.1359
54.1548
57.5767
60.4281
63.5502
67.8022
70.4159
75.1425
77.9071
82.1641
82.4797
86.2231
85.1093
86.2423
84.9226
82.1053
81.1687
77.541
77.6993
75.8215
75.9236
75.4798
73.8433
73.5527
70.8674
70.2158
67.76
66.4571
64.8727
62.9646
62.1078
60.4951
59.7909
58.8604
58.1573
57.5176
56.8523
56.8055
55.7531
55.8954
55.4677
55.1588
55.2162
54.4459
54.5704
53.8026
53.4187
52.5306
52.0411
51.255
49.3715
49.6068
48.1005
45.0509
42.2141
39.0691
35.9253
32.491
54.1426
53.5789
51.7559
50.3934
49.4314
49.1106
49.4236
49.9072
50.3444
50.6793
51.011
51.2591
51.2834
51.2998
51.4255
51.4947
51.4651
51.5421
51.7728
51.8865
51.9685
52.243
52.5123
52.6947
52.88
53.1383
53.3902
53.4521
53.5523
53.7457
53.7127
53.5963
53.5604
53.443
53.1814
52.8341
52.5745
52.2451
51.7901
51.4125
51.0172
50.6806
50.3876
50.0538
49.8191
49.6742
49.5635
49.4151
49.3494
49.319
49.212
49.199
49.1778
49.1119
48.9917
48.869
49.088
49.2711
49.1912
49.6443
50.3003
50.2372
49.7317
49.0365
47.6367
45.042
41.1553
36.126
30.3546
24.4263
18.744
13.5561
9.06152
5.54792
3.2487
2.08421
1.82681
2.38105
3.76325
6.00293
9.42571
14.1661
20.2501
27.6829
35.9175
44.2932
52.0879
58.7514
64.3786
68.7569
71.8772
74.0962
75.576
76.6004
77.3069
77.5722
77.6547
77.6735
77.6295
77.5963
77.5651
77.5714
77.6938
77.8272
77.9919
78.2424
78.6173
78.912
78.58
76.8902
74.0204
71.2907
69.9769
70.8399
73.0669
74.7785
74.884
75.1993
76.9934
78.6257
79.6384
79.9258
79.1577
77.5013
75.2693
72.734
69.7475
66.1836
62.0332
57.8878
53.5458
49.4589
46.1164
43.0916
40.7147
39.7455
40.0117
40.8789
42.017
44.4797
47.8807
49.8706
52.922
55.8166
59.4317
62.3693
65.8001
69.7728
72.3933
77.8403
79.6179
83.9019
83.7776
87.6732
86.4366
88.0008
86.2341
84.5252
83.5821
79.946
79.7939
77.4141
77.4442
76.6478
75.3644
74.6618
72.3983
71.6688
68.8722
67.8075
65.8141
64.0294
63.2561
61.2494
60.7085
59.6379
58.8957
58.2058
57.1781
57.0072
56.2233
56.3048
55.222
54.8329
55.0033
54.0421
53.7648
53.5528
53.3162
51.4355
50.8299
50.1041
48.5366
49.0932
47.151
44.5654
41.673
37.8999
35.8171
32.7482
53.6887
53.2403
51.6763
50.4886
49.7807
49.5801
49.8537
50.2375
50.5701
50.8621
51.0754
51.2528
51.335
51.3365
51.4416
51.5101
51.4766
51.5786
51.7237
51.8097
51.9755
52.1656
52.3914
52.6241
52.7673
53.0212
53.2582
53.289
53.4556
53.6245
53.5782
53.6287
53.6377
53.548
53.4549
53.2399
53.0523
52.8686
52.5426
52.2492
52.0071
51.7413
51.5137
51.2914
51.0916
50.9319
50.7905
50.6573
50.5131
50.3797
50.2475
50.1079
49.9612
49.7426
49.4099
49.1974
49.3801
49.5705
49.4372
49.6568
50.2177
50.23
49.791
49.1096
47.7163
45.2043
41.5037
36.753
31.2632
25.506
19.8396
14.5739
10.0425
6.45491
3.99703
2.66618
2.32231
2.90525
4.20484
6.63402
10.2663
15.1545
21.3994
28.9084
37.1548
45.5038
53.2455
59.9828
65.5983
69.8955
73.0113
75.1815
76.5715
77.5504
78.1262
78.3426
78.448
78.3972
78.2076
78.0008
77.8805
77.8989
78.0107
78.1068
78.2606
78.5205
78.9214
79.2567
79.0561
77.5075
74.8606
72.4875
71.1972
72.0425
73.8882
74.8203
74.2843
74.0504
76.5427
78.8095
80.1671
80.4667
79.8484
78.4889
76.6579
74.4474
71.8015
68.5917
64.8777
61.0295
56.8988
53.038
49.7708
46.6926
44.4048
43.3375
43.2812
43.8221
44.5667
46.9831
50.177
51.4925
54.8134
57.5408
61.3475
64.4111
68.0014
71.5681
74.2339
80.048
81.1445
85.0707
84.9675
88.403
87.1338
88.6421
86.8358
86.3932
85.4628
83.48
83.6781
80.8696
80.4497
78.546
77.1145
75.969
73.6821
72.8637
70.1026
69.0378
66.9075
65.0756
64.2229
62.2676
61.5791
60.1113
59.5721
58.7692
57.9122
57.4476
55.9252
56.2223
55.4614
54.6966
54.4852
53.6938
53.2928
53.0393
52.4935
51.1312
50.4191
48.6863
47.4582
48.125
46.4892
44.7144
41.8583
38.443
36.44
33.4321
52.9555
52.6682
51.5892
50.7099
50.2667
50.1685
50.3264
50.5954
50.803
51.0178
51.1641
51.2464
51.3286
51.3408
51.4133
51.4886
51.4944
51.6088
51.7083
51.7865
51.9737
52.1096
52.2958
52.5442
52.6778
52.9065
53.1185
53.1776
53.3837
53.5317
53.5273
53.6723
53.7155
53.6497
53.6919
53.5961
53.459
53.3759
53.1777
52.9637
52.7917
52.6018
52.377
52.1991
52.0501
51.854
51.6859
51.5205
51.3105
51.0686
50.8488
50.6656
50.4625
50.174
49.7205
49.3572
49.3335
49.4439
49.4409
49.5426
49.798
49.8731
49.4812
48.5602
47.0868
44.7704
41.4845
37.2278
32.2115
26.8198
21.3976
16.2366
11.6866
8.04088
5.44977
3.94065
3.46781
3.99879
5.46592
8.07687
11.909
17.0067
23.382
30.8595
38.983
47.2162
54.7578
61.3668
66.8275
71.0215
74.0281
76.0409
77.4173
78.3881
78.8406
78.9791
78.9942
78.8336
78.6256
78.4623
78.3075
78.2415
78.263
78.2803
78.3313
78.6703
79.0589
79.3435
79.3151
78.2452
76.2909
74.5712
74.0736
74.3631
75.765
76.6827
76.3406
76.5985
77.2139
78.8786
79.8274
80.248
79.9578
79.2126
77.9942
76.1473
73.6154
70.5833
67.238
63.6998
59.8241
56.196
53.0203
49.9387
47.6721
46.4555
45.9225
45.9338
46.3897
48.3928
51.1267
52.8502
56.5312
59.5259
63.2544
66.4635
70.0026
73.3263
76.0259
81.3197
82.3964
85.8408
85.7971
88.6398
87.4146
89.004
87.0523
87.6476
86.565
86.1534
86.1381
83.8447
83.175
80.4228
78.7671
77.3544
74.8975
73.8372
71.1856
70.0211
67.7903
66.1127
64.8938
62.9665
62.2636
60.6921
60.2095
59.0497
58.5481
57.8133
56.4845
56.3414
54.685
54.7334
54.6463
53.2456
52.49
52.577
52.2182
50.6832
49.6329
47.9815
46.8971
46.883
45.6362
44.4002
42.171
39.2695
36.9392
34.8691
52.1238
52.0394
51.5569
51.0976
50.8761
50.7655
50.7739
50.8924
50.973
51.1043
51.1983
51.2349
51.3314
51.3569
51.398
51.4837
51.5061
51.6047
51.6991
51.7704
51.9502
52.0767
52.2357
52.485
52.6231
52.8107
53.0243
53.1225
53.3125
53.4695
53.5226
53.6915
53.7726
53.7674
53.8569
53.8354
53.7543
53.7151
53.5926
53.4473
53.3145
53.1465
52.9653
52.787
52.6079
52.4012
52.1908
51.9831
51.7352
51.4506
51.1702
50.9249
50.6593
50.2955
49.8511
49.5197
49.3977
49.3301
49.2996
49.3794
49.3588
49.0116
48.3442
47.4193
45.9915
43.924
41.132
37.5656
33.2666
28.4375
23.3843
18.4325
13.9344
10.2228
7.5064
5.82855
5.20653
5.71541
7.32518
10.1055
14.1257
19.4086
25.8546
33.2453
41.1773
49.0699
56.3419
62.7125
67.9476
71.9393
74.7837
76.7428