/*--------------------------------*- C++ -*----------------------------------*\
| =========                 |                                                 |
| \\      /  F ield         | OpenFOAM: The Open Source CFD Toolbox           |
|  \\    /   O peration     | Version:  2.4.0                                 |
|   \\  /    A nd           | Web:      www.OpenFOAM.org                      |
|    \\/     M anipulation  |                                                 |
\*---------------------------------------------------------------------------*/
FoamFile
{
    version     2.0;
    format      ascii;
    class       volScalarField;
    location    "1.67";
    object      pMean;
}
// * * * * * * * * * * * * * * * * * * * * * * * * * * * * * * * * * * * * * //

dimensions      [0 2 -2 0 0 0 0];

internalField   nonuniform List<scalar> 
8800
(
87.2712
74.8254
67.4221
63.8583
61.9677
60.5314
59.323
58.1696
57.1397
56.1026
55.1515
54.1579
53.2527
52.3021
51.4613
50.5795
49.8178
49.0225
48.3243
47.5322
84.16
74.4711
67.5904
63.9722
62.0277
60.5567
59.3306
58.17
57.1376
56.1001
55.1486
54.1557
53.2501
52.3004
51.4594
50.5776
49.8196
49.0167
48.3257
47.4907
82.1949
74.5472
68.192
64.3478
62.1953
60.636
59.3772
58.2027
57.1619
56.1172
55.159
54.1604
53.2516
52.2985
51.4585
50.5712
49.824
49.0073
48.3784
47.5268
80.6596
74.609
68.778
64.7714
62.379
60.724
59.4398
58.2594
57.2105
56.1561
55.1865
54.1779
53.2627
52.3025
51.4615
50.5659
49.8277
49.0101
48.4693
47.7013
79.411
74.5827
69.2527
65.1769
62.5475
60.7917
59.4891
58.3172
57.2661
56.2079
55.2217
54.2051
53.2755
52.3127
51.4606
50.567
49.8197
49.0287
48.4712
47.9348
78.426
74.4858
69.617
65.5228
62.6977
60.8345
59.5173
58.3619
57.3161
56.2576
55.2565
54.232
53.2865
52.3218
51.456
50.5664
49.8047
49.0434
48.5193
48.2696
77.6695
74.369
69.8841
65.8023
62.8327
60.8603
59.5259
58.3933
57.3552
56.2993
55.285
54.255
53.2931
52.3283
51.4478
50.5639
49.7852
49.0489
48.595
48.6413
77.1159
74.2685
70.0647
66.0147
62.9504
60.8797
59.5185
58.4173
57.382
56.3334
55.3039
54.2759
53.2939
52.3364
51.4356
50.5671
49.7627
49.049
48.5499
48.9698
76.7555
74.1982
70.1784
66.1593
63.0351
60.8932
59.5094
58.4333
57.4022
56.3582
55.3187
54.2912
53.2975
52.3433
51.4321
50.5704
49.7534
49.0648
48.6201
49.279
76.576
74.1667
70.2363
66.2366
63.0802
60.9031
59.5049
58.4443
57.4153
56.3749
55.3288
54.3026
53.3029
52.3516
51.4354
50.5787
49.762
49.0886
48.6844
49.3972
76.5689
74.1777
70.2373
66.2418
63.0798
60.9069
59.5025
58.4484
57.4154
56.3798
55.3295
54.3085
53.3052
52.36
51.4406
50.5909
49.7724
49.1132
48.7228
49.4915
76.7376
74.2266
70.1812
66.1704
63.035
60.9019
59.5045
58.4428
57.4036
56.3699
55.322
54.3068
53.3062
52.3659
51.4489
50.6036
49.7884
49.1311
48.7472
49.5237
77.0884
74.3092
70.0661
66.028
62.9487
60.8929
59.5098
58.4317
57.3827
56.3512
55.3079
54.3013
53.3065
52.3736
51.4621
50.6224
49.8119
49.1529
48.7521
49.4925
77.6343
74.4155
69.8839
65.8156
62.8255
60.8754
59.513
58.4106
57.3522
56.3214
55.2863
54.2887
53.3044
52.3798
51.4774
50.6452
49.8431
49.1814
48.7414
49.3814
78.3877
74.5319
69.6187
65.5336
62.6867
60.8465
59.5056
58.3772
57.3121
56.2806
55.2579
54.2684
53.2996
52.3817
51.4935
50.6692
49.8834
49.22
48.7417
49.1855
79.3696
74.6299
69.2559
65.1866
62.5339
60.8015
59.4795
58.332
57.2629
56.2314
55.225
54.2433
53.2931
52.3796
51.5096
50.6914
49.9309
49.27
48.7718
48.9253
80.6161
74.6571
68.7833
64.7832
62.3644
60.7338
59.4319
58.2756
57.208
56.1813
55.192
54.2186
53.2857
52.3752
51.5232
50.7081
49.9775
49.3181
48.8318
48.6513
82.1505
74.594
68.2004
64.3616
62.1808
60.6457
59.3703
58.2194
57.1609
56.1427
55.1676
54.2018
53.2806
52.3733
51.5333
50.7209
50.0109
49.3551
48.8912
48.5093
84.1146
74.5152
67.601
63.9876
62.014
60.5661
59.324
58.187
57.1373
56.126
55.1585
54.1978
53.2812
52.3765
51.54
50.7307
50.0265
49.3767
48.8884
48.4335
87.2249
74.8676
67.4323
63.8742
61.9547
60.5408
59.3166
58.1869
57.1394
56.1289
55.1612
54.2005
53.2839
52.379
51.5431
50.7341
50.0301
49.3824
48.8897
48.5533
47.5991
47.5232
47.3118
47.0771
46.8796
46.7259
46.6157
46.5385
46.4862
46.4535
46.436
46.4232
46.4114
46.3949
46.3717
46.3385
46.2964
46.2413
46.1769
46.1009
46.0199
45.9384
45.8624
45.7924
45.7324
45.6822
45.6411
45.6007
45.5546
45.4929
45.4129
45.3148
45.2053
45.0916
44.9797
44.8688
44.7592
44.6431
44.5221
44.3933
44.2649
44.1368
44.0242
43.9304
43.8668
43.8294
43.8216
43.8333
43.8617
43.8944
43.9243
43.9366
43.9284
43.8906
43.8293
43.7342
43.6173
43.4749
43.321
43.1485
42.9664
42.7692
42.57
42.3698
42.1871
42.0305
41.9157
41.8505
41.8417
41.8784
41.9593
42.0663
42.1977
42.3328
42.4757
42.6048
42.7275
42.8223
42.8989
42.9408
42.9597
42.947
42.9196
42.867
42.8124
42.7491
42.695
42.6503
42.6215
42.612
42.6251
42.6621
42.7233
42.8014
42.8975
43.003
43.124
43.2491
43.3838
43.5149
43.6471
43.7654
43.879
43.9633
44.0421
44.0922
44.1385
44.1634
44.1919
44.2011
44.2121
44.2082
44.2079
44.1947
44.1889
44.1789
44.1829
44.1875
44.2083
44.2282
44.262
44.2928
44.3397
44.3793
44.4393
44.4848
44.5594
44.619
44.7129
44.8046
44.9288
45.0562
45.206
45.3558
45.5208
45.6822
45.8559
46.0197
46.1879
46.3435
46.5035
46.6566
46.8166
46.9709
47.1316
47.2854
47.4456
47.6035
47.7648
47.9236
48.0832
48.2385
48.3966
48.5464
48.6983
48.8475
49.0078
49.1594
49.3294
49.49
49.6743
49.8316
50.0185
50.1667
50.3439
50.4757
50.6415
50.755
50.9041
50.9878
51.1338
51.1911
51.3485
51.4035
51.5873
51.6495
51.8719
51.9456
52.2054
52.3134
52.6049
52.7594
53.0955
53.3146
53.6928
53.9781
54.3897
54.7091
55.1438
55.4574
55.8707
56.1009
56.368
56.3178
56.1639
55.3576
54.0631
50.7153
46.4226
25.716
47.3728
47.3457
47.2799
47.1289
46.9461
46.7778
46.6539
46.5737
46.5305
46.5091
46.5016
46.4953
46.4877
46.4723
46.4501
46.4169
46.3753
46.3223
46.2621
46.1927
46.1198
46.0458
45.9774
45.9139
45.8597
45.8118
45.7708
45.7296
45.6852
45.629
45.5593
45.4734
45.3772
45.2729
45.1681
45.0606
44.9538
44.8417
44.7273
44.6063
44.4867
44.369
44.2645
44.1762
44.1128
44.0724
44.0577
44.061
44.0793
44.1001
44.12
44.1247
44.1137
44.0758
44.0174
43.9289
43.82
43.686
43.5387
43.3742
43.201
43.016
42.8289
42.643
42.4712
42.3228
42.2104
42.1394
42.1181
42.1381
42.1997
42.2874
42.4
42.5196
42.6451
42.761
42.8669
42.9493
43.0109
43.0427
43.0526
43.035
43.0032
42.9539
42.8997
42.8418
42.7877
42.7445
42.7133
42.6999
42.707
42.7365
42.7887
42.858
42.946
43.0456
43.1595
43.2777
43.4037
43.5275
43.652
43.7648
43.8688
43.9468
44.016
44.0611
44.0982
44.1155
44.1302
44.1296
44.1271
44.1141
44.1011
44.0801
44.0615
44.0458
44.039
44.0386
44.0483
44.0581
44.0813
44.1014
44.1397
44.1723
44.2263
44.2694
44.3368
44.3945
44.4771
44.5597
44.6688
44.7816
44.9172
45.053
45.2054
45.3519
45.5119
45.6622
45.8159
45.9571
46.103
46.2409
46.3836
46.5194
46.6639
46.7955
46.9412
47.0783
47.2281
47.3706
47.5197
47.6621
47.8169
47.9559
48.1105
48.2521
48.4208
48.5675
48.746
48.9038
49.0917
49.242
49.4295
49.5686
49.7438
49.8651
50.0237
50.1156
50.257
50.3095
50.4419
50.4665
50.6072
50.6249
50.7964
50.822
51.0294
51.0744
51.3134
51.3972
51.6603
51.7885
52.083
52.269
52.6014
52.8249
53.1918
53.4124
53.7806
53.9504
54.2357
54.2391
54.2905
53.8412
53.3132
51.6485
49.8501
44.0094
38.0412
18.9402
47.3514
47.3597
47.3789
47.2796
47.0834
46.8636
46.6901
46.5836
46.5423
46.5376
46.5504
46.5602
46.5628
46.5511
46.5291
46.4936
46.4501
46.3963
46.3377
46.2725
46.2065
46.1399
46.079
46.0221
45.9732
45.9283
45.8889
45.8485
45.8064
45.7546
45.6936
45.6181
45.5338
45.4396
45.343
45.2411
45.1391
45.0325
44.9256
44.8149
44.7066
44.6011
44.5068
44.4261
44.3654
44.3236
44.3031
44.2974
44.3049
44.3141
44.3229
44.3187
44.302
44.2624
44.2043
44.1207
44.0175
43.892
43.7518
43.5965
43.4325
43.2607
43.0879
42.9179
42.7607
42.6231
42.5166
42.4442
42.4135
42.4199
42.4639
42.5344
42.6285
42.7324
42.8416
42.9432
43.0332
43.1024
43.1496
43.1719
43.1727
43.1527
43.1171
43.0701
43.0155
42.9602
42.907
42.8633
42.8291
42.81
42.8092
42.8297
42.8712
42.9326
43.0133
43.1091
43.2165
43.3303
43.4498
43.5679
43.6848
43.7926
43.8879
43.9616
44.0241
44.0666
44.0968
44.1097
44.115
44.109
44.0976
44.0807
44.0589
44.0333
44.0068
43.9868
43.974
43.9667
43.9691
43.9693
43.9868
43.9979
44.0321
44.0603
44.1116
44.1564
44.2183
44.2761
44.3494
44.4258
44.5209
44.6204
44.7417
44.8641
45.0029
45.135
45.2785
45.4143
45.5525
45.6782
45.8098
45.9334
46.0619
46.1841
46.315
46.4318
46.5661
46.6866
46.8258
46.9486
47.0844
47.2098
47.357
47.483
47.6404
47.7763
47.95
48.097
48.2841
48.4462
48.6364
48.7848
48.9724
49.101
49.2746
49.3787
49.5309
49.5939
49.727
49.7501
49.8684
49.8616
49.9945
49.9758
50.1407
50.136
50.3189
50.3435
50.5428
50.6075
50.823
50.9229
51.1732
51.3044
51.6
51.7378
52.057
52.1622
52.4472
52.4454
52.6154
52.326
52.2252
51.2282
50.5874
47.7705
45.8193
38.6015
31.4375
18.4313
47.2167
47.2418
47.4083
47.3595
47.1443
46.88
46.6721
46.557
46.5304
46.5533
46.5972
46.6334
46.6535
46.6498
46.6282
46.5888
46.5402
46.4824
46.4226
46.3591
46.298
46.2376
46.1839
46.1336
46.0907
46.0501
46.014
45.9759
45.9368
45.8895
45.8355
45.7693
45.6951
45.6106
45.5221
45.4275
45.3321
45.233
45.1348
45.0352
44.9393
44.8466
44.7635
44.6905
44.6336
44.5906
44.5647
44.5495
44.5452
44.5422
44.5393
44.5265
44.5035
44.4622
44.4044
44.3252
44.2281
44.1118
43.9813
43.8377
43.6864
43.5292
43.3721
43.2187
43.0767
42.9514
42.8518
42.7805
42.7431
42.7379
42.766
42.8193
42.8947
42.9812
43.0728
43.158
43.232
43.288
43.3232
43.3379
43.3324
43.3098
43.2717
43.2253
43.1717
43.118
43.0657
43.0193
42.9794
42.9517
42.9411
42.9518
42.9844
43.0389
43.1147
43.2061
43.3091
43.4178
43.5326
43.6455
43.7561
43.858
43.946
44.0146
44.0721
44.1127
44.1393
44.1509
44.1522
44.1448
44.1306
44.1118
44.0853
44.0562
44.0273
44.0034
43.99
43.9779
43.9783
43.974
43.9879
43.9931
44.0248
44.0506
44.1022
44.1467
44.2069
44.2616
44.332
44.403
44.4907
44.5806
44.6879
44.7982
44.9223
45.0416
45.1691
45.2893
45.4112
45.521
45.6389
45.7484
45.8666
45.9796
46.1014
46.2121
46.3383
46.4461
46.5734
46.6751
46.7972
46.9003
47.0386
47.1477
47.3061
47.4398
47.6195
47.7698
47.9677
48.1276
48.3225
48.465
48.6603
48.7664
48.9487
49.0207
49.1761
49.2033
49.3333
49.3228
49.4338
49.3951
49.5283
49.4896
49.6346
49.619
49.7584
49.7725
49.9176
49.9587
50.1254
50.1866
50.3936
50.4572
50.705
50.7478
51.0109
50.9666
51.2163
50.9518
51.1103
50.3815
50.3086
48.5844
47.948
44.2506
41.7622
34.9656
27.3463
18.6538
48.0341
47.9359
47.6522
47.3153
46.9837
46.7022
46.5299
46.4667
46.4887
46.5559
46.64
46.7094
46.7518
46.7593
46.7398
46.6967
46.6417
46.578
46.5143
46.4504
46.3921
46.3373
46.2903
46.2473
46.2111
46.1766
46.1453
46.1115
46.0765
46.0345
45.9868
45.929
45.8642
45.7901
45.7113
45.6267
45.5407
45.4517
45.3638
45.2757
45.1916
45.1105
45.0371
44.9708
44.9163
44.8715
44.8391
44.8148
44.7989
44.7848
44.7711
44.7507
44.7218
44.6791
44.6221
44.5484
44.4589
44.3537
44.2357
44.1063
43.9701
43.8289
43.6884
43.5513
43.4246
43.3116
43.22
43.1513
43.1106
43.0963
43.1104
43.1474
43.2039
43.2714
43.3433
43.4109
43.4688
43.5126
43.5385
43.547
43.5376
43.513
43.4749
43.4285
43.3758
43.3209
43.2658
43.2121
43.1624
43.1228
43.1017
43.1021
43.1279
43.1767
43.2497
43.3383
43.4386
43.5454
43.6574
43.7671
43.874
43.9709
44.054
44.119
44.1733
44.2123
44.2366
44.2493
44.2486
44.242
44.2275
44.2074
44.1793
44.1477
44.1199
44.0956
44.0851
44.0737
44.0745
44.0714
44.084
44.0913
44.1221
44.1516
44.2014
44.2465
44.3049
44.358
44.4296
44.4953
44.5819
44.6626
44.7613
44.8582
44.9703
45.0756
45.1919
45.2937
45.4047
45.4983
45.6062
45.7011
45.8146
45.9197
46.0402
46.1485
46.2694
46.3655
46.4838
46.5628
46.675
46.753
46.881
46.9739
47.1309
47.2587
47.4479
47.5933
47.8056
47.9541
48.1592
48.2892
48.4948
48.5768
48.7709
48.8047
48.9632
48.9547
49.0822
49.0363
49.1404
49.0846
49.2102
49.1752
49.2948
49.2727
49.3793
49.3665
49.4733
49.469
49.6045
49.6038
49.7837
49.7542
49.9778
49.8721
50.1257
49.8492
50.1094
49.5083
49.6743
48.4991
48.3582
46.1617
45.1415
41.4286
38.17
32.7744
25.6022
19.1875
48.6859
48.5319
47.9106
47.2909
46.7988
46.4793
46.3495
46.3596
46.4531
46.5809
46.7106
46.8114
46.8712
46.886
46.8657
46.8177
46.7549
46.6843
46.6151
46.5495
46.4922
46.4418
46.4003
46.3644
46.3348
46.3071
46.2814
46.2534
46.2232
46.187
46.1455
46.0958
46.0397
45.9759
45.9076
45.8341
45.7588
45.6811
45.6041
45.5275
45.454
45.3831
45.3177
45.2574
45.205
45.1595
45.1222
45.0908
45.065
45.0412
45.0175
44.9894
44.9546
44.9099
44.854
44.7853
44.7037
44.6096
44.5043
44.3895
44.2686
44.1442
44.0204
43.9
43.7887
43.6888
43.606
43.5418
43.5001
43.4802
43.4837
43.5078
43.5478
43.5975
43.6504
43.7011
43.7441
43.7763
43.7942
43.7979
43.7859
43.7601
43.7217
43.6737
43.6185
43.5587
43.4969
43.4326
43.3706
43.3165
43.2852
43.2769
43.2967
43.3421
43.4143
43.5017
43.6002
43.7071
43.8183
43.9283
44.035
44.1326
44.2151
44.2807
44.334
44.3719
44.3954
44.409
44.4085
44.4017
44.3868
44.3642
44.3353
44.3014
44.2775
44.2573
44.2518
44.2462
44.2497
44.2529
44.2689
44.2857
44.3199
44.358
44.4076
44.4559
44.5116
44.5693
44.6408
44.7104
44.7971
44.8729
44.9673
45.0499
45.1517
45.2417
45.3484
45.435
45.5385
45.6197
45.7191
45.8039
45.9167
46.0154
46.1419
46.249
46.3678
46.4565
46.5648
46.6225
46.7205
46.778
46.8914
46.966
47.1243
47.2383
47.4366
47.5701
47.7929
47.9269
48.1511
48.2599
48.4856
48.5363
48.7424
48.7418
48.9048
48.8533
48.9855
48.8985
49.0061
48.9389
49.0658
49.0258
49.147
49.0956
49.1987
49.135
49.2277
49.1486
49.2756
49.1866
49.3466
49.2056
49.3986
49.1437
49.3519
48.8938
49.055
48.2406
48.2138
46.8279
46.3515
44.1367
42.6162
39.4182
35.8778
31.8103
25.6328
20.3221
49.3311
49.0905
48.1015
47.1704
46.5083
46.1682
46.1153
46.2348
46.4269
46.6284
46.8044
46.9316
47.0017
47.017
46.99
46.9331
46.8605
46.7823
46.7076
46.6403
46.5836
46.537
46.5006
46.4715
46.4483
46.4276
46.408
46.3862
46.3614
46.3312
46.2954
46.2527
46.2041
46.1495
46.0904
46.0274
45.9624
45.8957
45.8292
45.7631
45.6991
45.6373
45.579
45.5244
45.4744
45.429
45.3886
45.3525
45.3197
45.2886
45.2571
45.223
45.1838
45.1378
45.0833
45.0196
44.9455
44.8617
44.7686
44.6679
44.5621
44.4537
44.3456
44.2411
44.1435
44.0557
43.9811
43.9221
43.8813
43.8598
43.8576
43.8728
43.901
43.9361
43.9729
44.0081
44.038
44.0607
44.0725
44.0722
44.058
44.0311
43.9907
43.9382
43.8778
43.8115
43.7413
43.6656
43.5907
43.5232
43.4807
43.4659
43.483
43.5293
43.6031
43.6916
43.7913
43.9005
44.013
44.128
44.2384
44.3403
44.4264
44.4975
44.55
44.5874
44.6119
44.6253
44.6245
44.6159
44.6015
44.5773
44.5488
44.5146
44.4936
44.4788
44.479
44.4831
44.4926
44.5071
44.5338
44.5671
44.6124
44.664
44.7197
44.7737
44.8298
44.8909
44.9629
45.0396
45.1253
45.2054
45.2931
45.3705
45.4617
45.543
45.6399
45.7203
45.8161
45.892
45.9858
46.0695
46.1794
46.2776
46.4033
46.5135
46.6314
46.7166
46.8126
46.8555
46.932
46.9776
47.0708
47.1259
47.2825
47.3829
47.5774
47.714
47.9402
48.0565
48.3041
48.396
48.6353
48.6659
48.8696
48.8492
49.0081
48.9343
49.0525
48.9443
49.0456
48.991
49.1101
49.0751
49.1852
49.1259
49.2095
49.1131
49.1662
49.041
49.111
48.9658
49.0382
48.8249
48.9119
48.5666
48.6491
48.0787
48.0584
47.1479
46.8985
45.4648
44.7223
42.6709
40.9432
38.3797
35.0038
31.8434
26.7228
22.0102
50.4608
50.0271
48.3581
46.9636
46.1042
45.7642
45.8211
46.0853
46.4025
46.6883
46.9095
47.0572
47.1313
47.1416
47.1034
47.0348
46.9515
46.8665
46.7878
46.7204
46.6656
46.6236
46.5922
46.5696
46.5525
46.5385
46.5245
46.5086
46.4888
46.4641
46.4335
46.397
46.3548
46.3078
46.2565
46.2022
46.1456
46.0881
46.03
45.9725
45.9158
45.8611
45.8082
45.7582
45.7107
45.6665
45.6249
45.5864
45.5493
45.5138
45.4774
45.44
45.3987
45.3533
45.3015
45.2433
45.177
45.1035
45.0221
44.935
44.8427
44.7485
44.6539
44.5626
44.4765
44.3992
44.3323
44.2793
44.2409
44.2198
44.2138
44.2227
44.2411
44.2645
44.2878
44.3104
44.3293
44.3452
44.3528
44.35
44.334
44.3052
44.2614
44.2045
44.1391
44.0664
43.9895
43.9046
43.8185
43.7411
43.6903
43.6728
43.6906
43.7417
43.8176
43.9089
44.0109
44.1235
44.2407
44.3627
44.4814
44.5929
44.6862
44.7645
44.8179
44.8586
44.8842
44.8953
44.8924
44.8807
44.8663
44.8434
44.8155
44.7836
44.7641
44.7575
44.7654
44.7813
44.8018
44.8339
44.8785
44.9344
44.9971
45.067
45.1331
45.1961
45.2583
45.325
45.4009
45.4812
45.5667
45.6482
45.7299
45.8101
45.8946
45.9745
46.0655
46.1462
46.2364
46.3134
46.4031
46.4889
46.5963
46.6966
46.8249
46.9341
47.0548
47.1362
47.2292
47.253
47.3098
47.3502
47.4243
47.4684
47.6196
47.7043
47.8902
48.0202
48.2593
48.3561
48.6197
48.7085
48.9548
48.9759
49.1749
49.156
49.3021
49.215
49.3074
49.1897
49.273
49.2403
49.3555
49.3339
49.4311
49.3709
49.4402
49.3069
49.3176
49.1532
49.1552
48.9462
48.9241
48.6347
48.6231
48.1805
48.175
47.4847
47.3465
46.366
45.9811
44.5939
43.7396
41.9454
40.2044
38.1782
35.1253
32.4468
28.2079
23.9459
50.9363
50.4582
48.5437
46.9149
45.9197
45.5499
45.6548
46.0055
46.4065
46.757
47.018
47.1848
47.261
47.2631
47.211
47.1294
47.0356
46.9448
46.8637
46.7971
46.7451
46.7078
46.6818
46.6652
46.6539
46.6456
46.6367
46.6257
46.6102
46.5901
46.5639
46.5326
46.4957
46.4548
46.4097
46.3624
46.3125
46.262
46.2103
46.1592
46.108
46.0586
46.0097
45.9631
45.9177
45.8749
45.8329
45.7932
45.7538
45.7159
45.6772
45.6384
45.5969
45.5534
45.505
45.4527
45.3938
45.3298
45.2589
45.1838
45.1038
45.0223
44.9397
44.8604
44.7851
44.7181
44.6595
44.6131
44.5782
44.558
44.5497
44.5533
44.5622
44.5747
44.5859
44.5974
44.6081
44.6197
44.6251
44.6221
44.6067
44.578
44.5324
44.4723
44.4014
44.3232
44.24
44.1465
44.0552
43.9718
43.9185
43.903
43.9268
43.9837
44.0634
44.1563
44.2619
44.3787
44.5043
44.635
44.7661
44.8923
44.999
45.0854
45.1443
45.1891
45.2143
45.2211
45.2134
45.1987
45.1844
45.162
45.1367
45.1103
45.0962
45.0996
45.118
45.1467
45.184
45.237
45.3052
45.3877
45.4733
45.5655
45.6463
45.7228
45.7949
45.8684
45.9506
46.0319
46.118
46.1992
46.2778
46.3623
46.444
46.5251
46.6147
46.6931
46.7835
46.8613
46.95
47.0425
47.152
47.2563
47.3925
47.499
47.6342
47.7068
47.8154
47.8031
47.8592
47.8837
47.9414
47.9824
48.1294
48.1892
48.3859
48.4964
48.7584
48.8242
49.1157
49.1902
49.4512
49.4348
49.665
49.6281
49.7982
49.6583
49.7445
49.6192
49.7097
49.6912
49.8023
49.7968
49.8887
49.8302
49.8937
49.6999
49.6898
49.4773
49.432
49.1416
49.0666
48.6761
48.5831
48.0971
48.0089
47.308
47.1038
46.0686
45.6226
44.3097
43.4145
41.8888
40.1923
38.5171
35.8029
33.3531
29.7734
25.9353
51.1756
50.7336
48.7487
47.013
45.9279
45.5001
45.5968
45.982
46.4315
46.8251
47.1153
47.2967
47.3744
47.3694
47.3058
47.2131
47.1112
47.0161
46.9338
46.8691
46.8206
46.7882
46.7676
46.7567
46.7504
46.7469
46.7419
46.7347
46.7226
46.7062
46.6837
46.6567
46.6243
46.5885
46.5487
46.507
46.4626
46.4176
46.3711
46.3252
46.2786
46.2332
46.1876
46.1438
46.1001
46.0583
46.0167
45.9769
45.937
45.8985
45.8592
45.8206
45.7804
45.7397
45.6957
45.6493
45.5978
45.5424
45.481
45.4165
45.3476
45.2774
45.2058
45.1376
45.0727
45.0151
44.9651
44.9259
44.8956
44.8779
44.8687
44.8667
44.8663
44.869
44.8711
44.8742
44.8791
44.8885
44.8945
44.8942
44.8818
44.8552
44.8108
44.7506
44.6762
44.5911
44.5016
44.4009
44.3075
44.222
44.1718
44.1605
44.1947
44.2595
44.3456
44.4411
44.5536
44.6761
44.8102
44.9499
45.0964
45.2395
45.3629
45.4584
45.525
45.572
45.5961
45.5985
45.5873
45.5709
45.5569
45.5352
45.5145
45.4955
45.4908
45.5064
45.5387
45.5844
45.6431
45.72
45.816
45.9266
46.041
46.1566
46.2575
46.3512
46.4359
46.516
46.6015
46.6819
46.7692
46.8475
46.9286
47.015
47.0983
47.1804
47.2731
47.3477
47.4445
47.5222
47.616
47.7153
47.8342
47.9443
48.0978
48.1974
48.3616
48.4196
48.5537
48.4845
48.5708
48.556
48.6271
48.6545
48.7998
48.8285
49.0511
49.141
49.4334
49.4512
49.8003
49.8226
50.1478
50.0288
50.3472
50.2711
50.51
50.2593
50.3791
50.209
50.352
50.335
50.479
50.4601
50.5658
50.4851
50.561
50.2752
50.2847
50.02
49.9473
49.5561
49.4331
48.9609
48.8576
48.3663
48.2644
47.4696
47.2682
46.1599
45.7085
44.4806
43.5608
42.2579
40.6471
39.1485
36.7436
34.4184
31.299
27.8586
51.3231
50.9009
48.8935
47.1086
45.9798
45.5181
45.6075
46.008
46.482
46.8976
47.2021
47.3898
47.4659
47.4535
47.3815
47.282
47.1763
47.0805
47
46.9385
46.8945
46.8672
46.8516
46.8453
46.843
46.8427
46.8404
46.8357
46.826
46.8123
46.7928
46.7693
46.7409
46.7095
46.6743
46.6373
46.5978
46.5576
46.5156
46.4737
46.4309
46.3888
46.3462
46.3047
46.2631
46.2227
46.1822
46.1431
46.1039
46.0662
46.0281
45.991
45.9528
45.9151
45.8756
45.8352
45.7911
45.744
45.6924
45.6382
45.5803
45.5211
45.4609
45.4038
45.3487
45.3001
45.2591
45.2275
45.2025
45.1868
45.1762
45.1685
45.1605
45.1554
45.1502
45.1477
45.1499
45.1593
45.1687
45.1748
45.1693
45.1478
45.1072
45.0482
44.9733
44.8834
44.7895
44.6848
44.5932
44.509
44.4695
44.4626
44.5089
44.5809
44.675
44.7732
44.8967
45.0261
45.1697
45.3158
45.4794
45.6371
45.7767
45.88
45.953
45.9992
46.0219
46.021
46.0112
45.9961
45.9843
45.9659
45.9555
45.9446
45.9552
45.9829
46.0363
46.0985
46.1854
46.2875
46.416
46.553
46.699
46.8346
46.9637
47.0734
47.1759
47.2623
47.3518
47.4269
47.5157
47.5865
47.6752
47.7564
47.8495
47.9311
48.0298
48.1062
48.2116
48.2919
48.3983
48.5039
48.6408
48.7522
48.9292
49.0195
49.2202
49.257
49.4139
49.2767
49.426
49.3612
49.4786
49.4624
49.636
49.6376
49.8935
49.9478
50.2565
50.2328
50.6378
50.6129
50.9791
50.8001
51.2264
51.0851
51.4009
51.0331
51.2271
50.9824
51.2297
51.1571
51.367
51.3183
51.4523
51.3588
51.445
51.0403
51.0614
50.763
50.6154
50.1932
50.0329
49.5883
49.5071
48.9085
48.7775
47.8781
47.7593
46.582
46.1188
44.9785
44.0361
42.8808
41.408
39.9508
37.7814
35.5629
32.7648
29.6718
51.3791
50.9547
48.9447
47.1636
46.044
45.594
45.6964
46.1059
46.583
46.9955
47.2935
47.4719
47.5378
47.5162
47.4384
47.3368
47.2326
47.1402
47.0645
47.0084
46.9699
46.9474
46.9361
46.9329
46.933
46.9343
46.9336
46.9301
46.9222
46.9104
46.8936
46.8732
46.8485
46.821
46.7901
46.7574
46.7222
46.6861
46.6484
46.6104
46.5712
46.532
46.4921
46.4527
46.413
46.3743
46.3356
46.2982
46.2611
46.2253
46.1894
46.1545
46.1195
46.0855
46.0507
46.0157
45.9787
45.9402
45.8986
45.8548
45.8078
45.76
45.7122
45.6666
45.6229
45.5846
45.5535
45.5293
45.5089
45.4938
45.4811
45.4684
45.4535
45.4395
45.4265
45.4201
45.4225
45.4359
45.4538
45.4705
45.4756
45.4641
45.4316
45.377
45.3026
45.2105
45.1143
45.0112
44.9252
44.8506
44.8271
44.826
44.8849
44.96
45.0603
45.1574
45.292
45.4269
45.5804
45.7314
45.9136
46.0833
46.239
46.3477
46.4252
46.4619
46.486
46.4797
46.4772
46.4655
46.4622
46.4504
46.4557
46.4574
46.4916
46.5342
46.6154
46.696
46.8169
46.9423
47.1056
47.2672
47.4482
47.6031
47.7585
47.882
48.0065
48.0995
48.1977
48.2721
48.3574
48.424
48.5181
48.5948
48.6957
48.7823
48.8856
48.9717
49.0856
49.1721
49.2884
49.401
49.5537
49.677
49.8636
49.9565
50.175
50.216
50.335
50.1745
50.4126
50.2672
50.4557
50.3825
50.6044
50.581
50.8731
50.9267
51.2118
51.1768
51.6217
51.5707
51.9254
51.7631
52.2409
52.0718
52.4002
51.9709
52.2018
51.9122
52.2961
52.1879
52.4506
52.3583
52.5226
52.4392
52.4321
52.0067
52.0208
51.6154
51.4744
51.0701
50.8785
50.4031
50.2431
49.6276
49.5011
48.6181
48.3594
47.2639
46.7696
45.721
44.7992
43.6724
42.3347
40.8492
38.8678
36.7577
34.1941
31.3864
51.3289
50.8952
48.9167
47.1972
46.1406
45.7495
45.8856
46.2933
46.7463
47.1262
47.3931
47.544
47.5894
47.5564
47.4761
47.3778
47.2806
47.1963
47.1291
47.0804
47.0484
47.0306
47.0225
47.0209
47.0218
47.0233
47.0228
47.0197
47.013
47.0027
46.9883
46.9707
46.9495
46.9256
46.8989
46.8704
46.8398
46.8079
46.7745
46.7402
46.7046
46.6683
46.6312
46.5942
46.5571
46.5207
46.4849
46.4503
46.4162
46.3829
46.3503
46.3187
46.2878
46.2583
46.2292
46.2003
46.1704
46.14
46.1083
46.0756
46.0403
46.004
45.9689
45.9359
45.9049
45.8787
45.8583
45.8415
45.8261
45.8125
45.7972
45.7776
45.7552
45.7338
45.7161
45.7087
45.7138
45.733
45.7615
45.7906
45.8092
45.8119
45.7917
45.7445
45.6731
45.5846
45.4914
45.395
45.3157
45.256
45.2493
45.2597
45.3288
45.4032
45.5028
45.5999
45.7473
45.8845
46.0453
46.2015
46.4032
46.5804
46.7518
46.8611
46.9407
46.9661
46.9894
46.9798
46.992
46.9834
46.9938
46.991
47.0172
47.0376
47.1013
47.1642
47.2777
47.3841
47.5426
47.6932
47.8919
48.0733
48.2825
48.4532
48.6357
48.7717
48.9193
49.0215
49.1319
49.2048
49.2939
49.3604
49.4586
49.5401
49.6506
49.7442
49.8534
49.9506
50.0664
50.1599
50.2894
50.409
50.5687
50.7114
50.8987
51.0197
51.2169
51.2932
51.3413
51.2126
51.4678
51.2723
51.5175
51.4371
51.7175
51.6742
51.9711
52.0418
52.2766
52.2693
52.6928
52.6849
53.0491
52.9641
53.3794
53.2864
53.4908
53.0633
53.348
52.9907
53.4999
53.3492
53.6594
53.5645
53.7239
53.603
53.5765
53.1499
53.1156
52.6242
52.5256
52.066
51.8144
51.4323
51.177
50.747
50.3074
49.5481
49.1161
48.1491
47.62
46.6333
45.7661
44.6012
43.375
41.8145
39.9994
37.9799
35.5983
33.0201
51.1247
50.6864
48.8116
47.2359
46.3045
46.0115
46.1831
46.5649
46.9614
47.2792
47.4913
47.5984
47.6163
47.5721
47.4936
47.4045
47.3199
47.2483
47.1926
47.1533
47.1281
47.1141
47.1077
47.106
47.1061
47.1063
47.105
47.1016
47.0953
47.0861
47.0738
47.0587
47.0407
47.0204
46.9979
46.9738
46.9478
46.9204
46.8915
46.8613
46.8294
46.7965
46.7623
46.7281
46.6947
46.6625
46.6305
46.5992
46.5686
46.5391
46.5104
46.483
46.4571
46.4331
46.4103
46.3887
46.3679
46.348
46.328
46.3062
46.2822
46.2585
46.2368
46.2171
46.2003
46.1871
46.177
46.1676
46.1572
46.1451
46.1285
46.1062
46.079
46.0509
46.0284
46.0209
46.0316
46.0605
46.1014
46.1452
46.1809
46.2003
46.1939
46.1571
46.0918
46.0125
45.9251
45.8396
45.7714
45.7325
45.7373
45.756
45.8291
45.9023
45.9991
46.1091
46.269
46.4116
46.5782
46.7449
46.956
47.1334
47.3115
47.4211
47.5025
47.5211
47.5467
47.5403
47.5661
47.5669
47.5954
47.6047
47.6532
47.6959
47.7886
47.8771
48.0243
48.161
48.3552
48.5349
48.7624
48.9634
49.1931
49.3782
49.5805
49.7282
49.8951
50.0136
50.1371
50.2158
50.3137
50.3878
50.4964
50.586
50.711
50.8146
50.9315
51.0386
51.1443
51.2458
51.3754
51.5095
51.6727
51.8495
52.0214
52.1793
52.3478
52.4475
52.449
52.4376
52.5946
52.4014
52.6823
52.6246
52.9103
52.9051
53.1733
53.2789
53.4246
53.483
53.8256
53.9116
54.2815
54.3458
54.6449
54.5924
54.7058
54.3511
54.6024
54.3836
54.7891
54.6131
54.9377
54.8768
55.0146
54.8741
54.7436
54.33
54.3058
53.7732
53.6065
53.1927
52.8944
52.6789
52.2098
51.9837
51.2505
50.7586
50.0174
49.2301
48.6054
47.7179
46.8921
45.6646
44.5075
42.8493
41.1683
39.1986
36.9688
34.5701
50.6607
50.2471
48.6375
47.3333
46.6014
46.4148
46.5904
46.9055
47.2095
47.4381
47.5767
47.6319
47.6217
47.5698
47.498
47.4228
47.3544
47.298
47.2551
47.2248
47.205
47.1932
47.1866
47.1832
47.1811
47.1792
47.1765
47.1723
47.1663
47.1581
47.1476
47.1349
47.12
47.1032
47.0846
47.0647
47.0433
47.0206
46.9964
46.9704
46.9426
46.9136
46.8839
46.8538
46.8243
46.7962
46.7698
46.7441
46.7184
46.6929
46.6686
46.6466
46.6274
46.6104
46.5952
46.5825
46.5719
46.5628
46.5549
46.5467
46.5369
46.5263
46.5175
46.5112
46.5075
46.5057
46.505
46.5036
46.4993
46.4904
46.4739
46.4493
46.4196
46.3883
46.3626
46.3561
46.3746
46.4155
46.4708
46.5303
46.5833
46.6196
46.627
46.6017
46.548
46.4832
46.4049
46.3388
46.2844
46.265
46.2787
46.31
46.3818
46.4492
46.545
46.6783
46.8478
46.9991
47.1679
47.3531
47.5605
47.7375
47.9117
48.0227
48.1036
48.1312
48.1571
48.1644
48.2034
48.2251
48.274
48.3063
48.3739
48.4417
48.5583
48.6809
48.8516
49.0238
49.2388
49.4509
49.6899
49.9115
50.1515
50.3556
50.57
50.7356
50.9156
51.0521
51.1932
51.2834
51.4008
51.4911
51.6102
51.7186
51.8505
51.9621
52.0837
52.191
52.2874
52.3997
52.53
52.6818
52.8585
53.0725
53.2291
53.4245
53.5457
53.6513
53.6767
53.7404
53.7739
53.7447
53.9398
53.9489
54.2219
54.2317
54.4459
54.5707
54.6857
54.8259
55.0239
55.3002
55.6322
55.7595
55.9253
55.8993
55.9441
55.7666
55.9719
55.9236
56.1201
56.0528
56.2433
56.2325
56.264
56.1089
55.9519
55.6656
55.5326
55.0435
54.8163
54.4947
54.1013
53.993
53.4108
53.2572
52.2662
52.0502
51.0576
50.4833
49.6969
48.9796
48.0715
46.8351
45.7045
43.9684
42.3661
40.411
38.3215
36.0566
49.9016
49.5811
48.4486
47.5434
47.0522
46.9424
47.0656
47.2657
47.4468
47.572
47.6352
47.6438
47.6126
47.559
47.4973
47.4376
47.3855
47.3433
47.3108
47.2871
47.2703
47.2586
47.2505
47.2447
47.2402
47.2362
47.2321
47.2274
47.2218
47.2146
47.2056
47.195
47.1826
47.1688
47.1536
47.1376
47.121
47.1032
47.0836
47.0621
47.039
47.0143
46.9891
46.9646
46.9407
46.9178
46.8969
46.8777
46.8591
46.84
46.8216
46.807
46.7966
46.789
46.7833
46.7803
46.7803
46.7827
46.7855
46.7872
46.7892
46.7929
46.7982
46.8048
46.8126
46.8206
46.828
46.8328
46.834
46.8293
46.8151
46.7926
46.7631
46.7312
46.7084
46.7081
46.736
46.7875
46.8528
46.9223
46.9863
47.0355
47.0574
47.0476
47.0109
46.9677
46.9021
46.8656
46.8317
46.8321
46.8504
46.8972
46.9603
47.0323
47.1371
47.2859
47.4524
47.616
47.7931
47.9966
48.1927
48.3723
48.5323
48.6509
48.7309
48.7791
48.8079
48.8418
48.8891
48.9436
49.0082
49.0764
49.1582
49.2598
49.39
49.55
49.7354
49.94
50.162
50.3988
50.6345
50.8791
51.1152
51.3373
51.5529
51.747
51.9345
52.1069
52.2551
52.381
52.5059
52.6245
52.7476
52.8819
53.0084
53.1423
53.2584
53.3757
53.4711
53.6026
53.732
53.9097
54.0907
54.3206
54.4769
54.7197
54.7726
54.9236
54.9126
55.0267
55.0449
55.1541
55.2411
55.3642
55.5026
55.5718
55.7518
55.8939
55.947
56.2273
56.3427
56.7922
56.91
57.1053
57.1439
57.2215
57.2359
57.2883
57.3456
57.3865
57.4159
57.5172
57.528
57.5791
57.5022
57.3992
57.1176
57.0522
56.6846
56.4353
56.0496
55.8461
55.4016
55.3751
54.5656
54.3893
53.3692
53.2852
52.1155
51.8435
50.8251
50.2474
49.1645
48.0513
46.865
45.1162
43.5326
41.6052
39.6328
37.4526
49.0686
48.9029
48.3521
47.8832
47.6043
47.5026
47.5145
47.572
47.6285
47.6617
47.6647
47.6408
47.5986
47.5481
47.4971
47.4506
47.411
47.3786
47.3527
47.3323
47.3162
47.3036
47.2936
47.2856
47.2792
47.2738
47.2689
47.2639
47.2585
47.2521
47.2443
47.235
47.2246
47.2137
47.2021
47.1894
47.1761
47.1625
47.1479
47.131
47.1123
47.0931
47.0741
47.0549
47.0366
47.0212
47.0084
46.9968
46.9856
46.9747
46.9659
46.9611
46.96
46.9615
46.9658
46.9731
46.9827
46.9943
47.0072
47.0198
47.0311
47.0427
47.0563
47.0722
47.0884
47.103
47.1156
47.1256
47.1313
47.1297
47.1201
47.1046
47.0842
47.0626
47.0493
47.0571
47.0921
47.1491
47.2194
47.2925
47.3606
47.4172
47.4512
47.4595
47.4464
47.4352
47.3968
47.3915
47.3749
47.3967
47.4241
47.4908
47.5455
47.634
47.7357
47.8892
48.0448