/*--------------------------------*- C++ -*----------------------------------*\
| =========                 |                                                 |
| \\      /  F ield         | OpenFOAM: The Open Source CFD Toolbox           |
|  \\    /   O peration     | Version:  2.4.0                                 |
|   \\  /    A nd           | Web:      www.OpenFOAM.org                      |
|    \\/     M anipulation  |                                                 |
\*---------------------------------------------------------------------------*/
FoamFile
{
    version     2.0;
    format      ascii;
    class       volScalarField;
    location    "15";
    object      p;
}
// * * * * * * * * * * * * * * * * * * * * * * * * * * * * * * * * * * * * * //

dimensions      [0 2 -2 0 0 0 0];

internalField   nonuniform List<scalar> 
4400
(
-0.0811798
-0.0870145
-0.0975271
-0.0862175
-0.0887134
-0.0906945
-0.0849549
-0.0951117
-0.0939905
-0.0899789
-0.0985338
-0.0951821
-0.0929086
-0.100796
-0.0992027
-0.0963497
-0.104326
-0.103483
-0.100179
-0.107206
-0.0811366
-0.0868237
-0.097887
-0.0862525
-0.0885726
-0.0909892
-0.0846826
-0.0951777
-0.0942135
-0.0896575
-0.098684
-0.0953491
-0.0925362
-0.100952
-0.0993429
-0.0959016
-0.104427
-0.10366
-0.0999062
-0.107245
-0.081086
-0.0866617
-0.0983821
-0.0861446
-0.0884773
-0.091335
-0.0842834
-0.0954053
-0.0943874
-0.0892502
-0.098976
-0.0954558
-0.0922233
-0.101226
-0.0994545
-0.0955826
-0.1046
-0.103837
-0.099572
-0.107406
-0.0811032
-0.0866087
-0.0986922
-0.0859426
-0.0885067
-0.0916664
-0.0839329
-0.0956856
-0.0944199
-0.0889859
-0.0992718
-0.095413
-0.0920452
-0.1015
-0.0994367
-0.0953625
-0.104734
-0.10393
-0.0992371
-0.107597
-0.0812448
-0.0867118
-0.0986234
-0.0857623
-0.088652
-0.0919819
-0.0838399
-0.0959069
-0.0943603
-0.0888139
-0.0994921
-0.0952648
-0.0920654
-0.10172
-0.0992636
-0.095353
-0.104798
-0.103879
-0.0989947
-0.107814
-0.0815927
-0.0870114
-0.0981447
-0.0857844
-0.0889038
-0.0923272
-0.0842138
-0.0959443
-0.0943355
-0.0889319
-0.0995355
-0.0951642
-0.0923043
-0.101836
-0.0990136
-0.0955934
-0.104754
-0.103727
-0.0989341
-0.107977
-0.0822558
-0.087487
-0.0971282
-0.0861528
-0.089233
-0.0926737
-0.0851595
-0.0956699
-0.0944325
-0.0894463
-0.0994328
-0.0952445
-0.0927997
-0.101743
-0.0987928
-0.0960995
-0.104532
-0.103508
-0.0991751
-0.107908
-0.0832955
-0.088029
-0.0954434
-0.0869252
-0.0895754
-0.0928484
-0.0866865
-0.095008
-0.0946024
-0.0903851
-0.0990252
-0.0955219
-0.0935898
-0.101363
-0.0986625
-0.0968888
-0.104048
-0.103203
-0.0998117
-0.107501
-0.0846654
-0.0884815
-0.0930729
-0.0880445
-0.0898479
-0.0926401
-0.088683
-0.093976
-0.0946865
-0.0916891
-0.0978058
-0.0959277
-0.0946795
-0.100585
-0.0986332
-0.0979719
-0.103257
-0.10279
-0.100867
-0.106751
-0.086218
-0.0887088
-0.0901904
-0.089338
-0.0899809
-0.0919874
-0.0909241
-0.0926796
-0.0945094
-0.0932397
-0.0962227
-0.0963238
-0.0960234
-0.0993764
-0.0986683
-0.0993053
-0.102177
-0.102286
-0.102274
-0.105693
-0.0877622
-0.088635
-0.0871176
-0.0905774
-0.0899457
-0.0910163
-0.0931378
-0.0913042
-0.0939977
-0.0948511
-0.094494
-0.0965568
-0.0975034
-0.0979113
-0.0987066
-0.100778
-0.100892
-0.101727
-0.103873
-0.104411
-0.0891354
-0.0883008
-0.0842023
-0.0915501
-0.0898082
-0.0899406
-0.0950615
-0.0900451
-0.0932278
-0.09632
-0.0928717
-0.0965567
-0.0989429
-0.0963904
-0.098683
-0.102225
-0.0995425
-0.101161
-0.105442
-0.103041
-0.0902382
-0.087853
-0.0817115
-0.0921189
-0.089693
-0.0889736
-0.0965026
-0.0890661
-0.0923497
-0.0974823
-0.0915581
-0.0963587
-0.100172
-0.095036
-0.09857
-0.103472
-0.0983104
-0.100634
-0.106765
-0.101753
-0.0910326
-0.0874715
-0.0798156
-0.092245
-0.0897007
-0.0882661
-0.0973931
-0.0884654
-0.0915211
-0.0982637
-0.0906576
-0.096046
-0.101082
-0.0940108
-0.0983896
-0.104383
-0.0973554
-0.100186
-0.107689
-0.100713
-0.0915207
-0.0872977
-0.0785942
-0.0920165
-0.0898594
-0.0878847
-0.097799
-0.0882377
-0.0908674
-0.0986896
-0.0901812
-0.0957152
-0.101649
-0.0933923
-0.098187
-0.104903
-0.0967602
-0.099851
-0.108169
-0.100027
-0.0917433
-0.0873618
-0.0780101
-0.0916108
-0.0901108
-0.0878079
-0.0978589
-0.088281
-0.0904605
-0.0988414
-0.090057
-0.095453
-0.101898
-0.0931611
-0.0980203
-0.105065
-0.0965189
-0.0996431
-0.108265
-0.0997072
-0.0917754
-0.087503
-0.0779259
-0.0911737
-0.0902845
-0.0879628
-0.097721
-0.0884325
-0.0903139
-0.0987445
-0.0901616
-0.0953119
-0.101855
-0.0932152
-0.0979376
-0.104953
-0.0965485
-0.0995709
-0.108082
-0.099665
-0.0916872
-0.0875227
-0.0781768
-0.0907778
-0.0902639
-0.0882659
-0.0973495
-0.0885693
-0.0903846
-0.0984091
-0.090378
-0.0952937
-0.101567
-0.0934332
-0.0979507
-0.104637
-0.0967271
-0.0996364
-0.107755
-0.0997447
-0.0915582
-0.087382
-0.0785841
-0.0904967
-0.0900867
-0.0886188
-0.0969242
-0.0886434
-0.0905866
-0.0979082
-0.0905929
-0.0953738
-0.101174
-0.0936719
-0.0980477
-0.104249
-0.0969161
-0.0998035
-0.107335
-0.0998227
-0.0914973
-0.0871792
-0.0789056
-0.0904208
-0.0898836
-0.0889363
-0.0966435
-0.0886273
-0.0908072
-0.097595
-0.0907047
-0.0954956
-0.100645
-0.0938099
-0.0981767
-0.103818
-0.0970129
-0.0999868
-0.107031
-0.0998319
-0.111172
-0.107915
-0.0906512
-0.116083
-0.191025
-0.245509
-0.259418
-0.241227
-0.226832
-0.217632
-0.195263
-0.162701
-0.122682
-0.0778211
-0.0352267
-0.00123169
0.0195468
0.0296143
0.0342277
0.0364022
0.0373276
0.037586
0.0375122
0.0372801
0.0369724
0.0366278
0.0362645
0.0358912
0.0355119
0.0351285
0.0347419
0.0343524
0.0339602
0.0335652
0.0331674
0.0327669
0.0323636
0.0319575
0.0315485
0.0311366
0.0307218
0.0303042
0.0298836
0.0294601
0.0290335
0.028604
0.0281714
0.0277358
0.0272972
0.0268555
0.0264107
0.0259627
0.0255116
0.0250573
0.0245998
0.0241391
0.0236752
0.0232081
0.0227376
0.0222639
0.0217868
0.0213064
0.0208225
0.0203353
0.0198446
0.0193504
0.0188527
0.0183516
0.0178469
0.0173387
0.016827
0.0163116
0.0157926
0.01527
0.0147437
0.0142138
0.01368
0.0131426
0.0126013
0.0120564
0.0115074
0.0109548
0.0103981
0.00983775
0.0092731
0.0087049
0.00813231
0.00755597
0.00697556
0.00639073
0.00580252
0.00520919
0.00461266
0.00401133
0.00340581
0.0027965
0.00218231
0.00156412
0.000941677
0.000314612
-0.110933
-0.10711
-0.0920672
-0.114679
-0.18415
-0.237
-0.252321
-0.234989
-0.21913
-0.210376
-0.196543
-0.175939
-0.141601
-0.0940334
-0.0454258
-0.00620327
0.017679
0.0290956
0.034154
0.036442
0.0373859
0.0376385
0.0375535
0.0373106
0.0369941
0.0366429
0.0362748
0.0358981
0.0355164
0.0351314
0.0347438
0.0343537
0.033961
0.0335657
0.0331677
0.0327671
0.0323637
0.0319575
0.0315485
0.0311366
0.0307218
0.0303042
0.0298836
0.0294601
0.0290335
0.028604
0.0281714
0.0277358
0.0272972
0.0268555
0.0264107
0.0259627
0.0255116
0.0250573
0.0245998
0.0241391
0.0236752
0.0232081
0.0227376
0.0222639
0.0217868
0.0213064
0.0208225
0.0203353
0.0198446
0.0193504
0.0188528
0.0183516
0.0178469
0.0173387
0.016827
0.0163116
0.0157926
0.01527
0.0147437
0.0142138
0.01368
0.0131426
0.0126014
0.0120564
0.0115074
0.0109548
0.0103981
0.00983774
0.0092731
0.00870489
0.00813231
0.00755596
0.00697556
0.00639073
0.00580252
0.00520919
0.00461266
0.00401133
0.0034058
0.0027965
0.00218231
0.00156412
0.000941675
0.000314614
-0.110285
-0.106287
-0.0943476
-0.114788
-0.178146
-0.228797
-0.245077
-0.227955
-0.210118
-0.201978
-0.19747
-0.189098
-0.160129
-0.109801
-0.0552919
-0.0110365
0.0158681
0.0286185
0.0341145
0.0365045
0.0374575
0.0376981
0.0375986
0.0373431
0.0370169
0.0366585
0.0362853
0.035905
0.035521
0.0351344
0.0347457
0.0343549
0.0339617
0.0335661
0.033168
0.0327672
0.0323638
0.0319576
0.0315485
0.0311366
0.0307218
0.0303042
0.0298836
0.0294601
0.0290335
0.028604
0.0281714
0.0277358
0.0272972
0.0268555
0.0264107
0.0259627
0.0255116
0.0250573
0.0245998
0.0241391
0.0236752
0.0232081
0.0227376
0.0222639
0.0217868
0.0213064
0.0208225
0.0203353
0.0198446
0.0193504
0.0188528
0.0183516
0.0178469
0.0173387
0.016827
0.0163116
0.0157926
0.01527
0.0147437
0.0142138
0.01368
0.0131426
0.0126014
0.0120564
0.0115074
0.0109548
0.0103981
0.00983774
0.0092731
0.00870489
0.00813231
0.00755596
0.00697556
0.00639073
0.00580252
0.00520919
0.00461266
0.00401133
0.0034058
0.0027965
0.00218231
0.00156412
0.000941675
0.000314614
-0.10949
-0.105403
-0.0974149
-0.116027
-0.172267
-0.220166
-0.236821
-0.219456
-0.199711
-0.192714
-0.198095
-0.20176
-0.177608
-0.124457
-0.0645721
-0.0156129
0.0141541
0.0281893
0.034108
0.0365886
0.0375416
0.0377648
0.0376474
0.0373775
0.0370405
0.0366745
0.036296
0.0359121
0.0355256
0.0351374
0.0347476
0.0343561
0.0339625
0.0335666
0.0331683
0.0327674
0.0323639
0.0319576
0.0315486
0.0311366
0.0307218
0.0303042
0.0298836
0.0294601
0.0290335
0.028604
0.0281714
0.0277358
0.0272972
0.0268555
0.0264107
0.0259627
0.0255116
0.0250573
0.0245998
0.0241391
0.0236752
0.0232081
0.0227376
0.0222639
0.0217868
0.0213064
0.0208225
0.0203353
0.0198446
0.0193504
0.0188528
0.0183516
0.0178469
0.0173387
0.016827
0.0163116
0.0157926
0.01527
0.0147437
0.0142138
0.01368
0.0131426
0.0126014
0.0120564
0.0115074
0.0109548
0.0103981
0.00983774
0.0092731
0.00870489
0.00813231
0.00755596
0.00697556
0.00639073
0.00580252
0.00520919
0.00461266
0.00401133
0.0034058
0.0027965
0.00218231
0.00156411
0.000941676
0.000314614
-0.108537
-0.104345
-0.101253
-0.117101
-0.16468
-0.20986
-0.226592
-0.208968
-0.188167
-0.182933
-0.198417
-0.213446
-0.193465
-0.137655
-0.073009
-0.0198117
0.0125762
0.0278134
0.0341328
0.0366931
0.0376379
0.0378382
0.0376998
0.0374136
0.037065
0.0366908
0.0363067
0.0359191
0.0355302
0.0351404
0.0347495
0.0343573
0.0339632
0.0335671
0.0331686
0.0327676
0.032364
0.0319577
0.0315486
0.0311367
0.0307219
0.0303042
0.0298836
0.0294601
0.0290335
0.028604
0.0281714
0.0277358
0.0272972
0.0268555
0.0264107
0.0259627
0.0255116
0.0250573
0.0245998
0.0241391
0.0236752
0.0232081
0.0227376
0.0222639
0.0217868
0.0213064
0.0208225
0.0203353
0.0198446
0.0193504
0.0188528
0.0183516
0.0178469
0.0173387
0.016827
0.0163116
0.0157926
0.01527
0.0147437
0.0142138
0.01368
0.0131426
0.0126014
0.0120564
0.0115074
0.0109548
0.0103981
0.00983774
0.0092731
0.00870489
0.00813231
0.00755596
0.00697556
0.00639073
0.00580252
0.00520919
0.00461266
0.00401133
0.0034058
0.0027965
0.00218231
0.00156411
0.000941677
0.000314615
-0.107635
-0.103331
-0.105129
-0.117428
-0.155937
-0.197939
-0.214182
-0.196629
-0.175829
-0.172876
-0.198356
-0.223639
-0.207191
-0.149073
-0.0803927
-0.0235345
0.0111676
0.0274978
0.0341896
0.0368179
0.0377461
0.037918
0.0377554
0.0374513
0.0370901
0.0367074
0.0363176
0.0359262
0.0355347
0.0351433
0.0347513
0.0343584
0.033964
0.0335675
0.0331689
0.0327678
0.0323641
0.0319578
0.0315486
0.0311367
0.0307219
0.0303042
0.0298836
0.0294601
0.0290335
0.028604
0.0281714
0.0277358
0.0272972
0.0268555
0.0264107
0.0259627
0.0255116
0.0250573
0.0245998
0.0241391
0.0236752
0.0232081
0.0227376
0.0222639
0.0217868
0.0213064
0.0208225
0.0203353
0.0198446
0.0193504
0.0188528
0.0183516
0.0178469
0.0173387
0.016827
0.0163116
0.0157926
0.01527
0.0147437
0.0142138
0.01368
0.0131426
0.0126014
0.0120564
0.0115074
0.0109548
0.0103981
0.00983774
0.0092731
0.00870489
0.00813231
0.00755596
0.00697556
0.00639073
0.00580252
0.00520919
0.00461266
0.00401134
0.0034058
0.00279651
0.00218231
0.00156411
0.000941678
0.000314616
-0.106901
-0.102683
-0.108163
-0.117156
-0.147122
-0.184876
-0.1999
-0.182868
-0.16292
-0.162783
-0.19784
-0.23192
-0.218404
-0.158475
-0.0865732
-0.0267062
0.0099556
0.0272479
0.0342762
0.0369604
0.0378649
0.0380037
0.0378141
0.0374905
0.0371159
0.0367242
0.0363284
0.0359331
0.0355392
0.0351461
0.0347531
0.0343596
0.0339647
0.033568
0.0331691
0.0327679
0.0323642
0.0319578
0.0315487
0.0311367
0.0307219
0.0303042
0.0298836
0.0294601
0.0290335
0.028604
0.0281714
0.0277358
0.0272972
0.0268555
0.0264107
0.0259627
0.0255116
0.0250573
0.0245998
0.0241392
0.0236752
0.0232081
0.0227376
0.0222639
0.0217868
0.0213064
0.0208225
0.0203353
0.0198446
0.0193504
0.0188528
0.0183516
0.0178469
0.0173387
0.016827
0.0163116
0.0157926
0.01527
0.0147437
0.0142138
0.01368
0.0131426
0.0126014
0.0120564
0.0115074
0.0109548
0.0103981
0.00983774
0.0092731
0.00870489
0.00813231
0.00755596
0.00697556
0.00639073
0.00580252
0.00520919
0.00461266
0.00401134
0.0034058
0.00279651
0.00218231
0.00156411
0.000941679
0.000314617
-0.106279
-0.102571
-0.109996
-0.11642
-0.138909
-0.171375
-0.184283
-0.168115
-0.149687
-0.15283
-0.196721
-0.238016
-0.226897
-0.165724
-0.0914474
-0.0292715
0.00895554
0.0270603
0.0343869
0.0371179
0.0379933
0.038095
0.0378756
0.0375309
0.0371421
0.036741
0.0363392
0.03594
0.0355435
0.0351489
0.0347549
0.0343606
0.0339653
0.0335684
0.0331694
0.0327681
0.0323643
0.0319579
0.0315487
0.0311367
0.0307219
0.0303042
0.0298836
0.0294601
0.0290335
0.028604
0.0281714
0.0277358
0.0272972
0.0268555
0.0264107
0.0259627
0.0255116
0.0250573
0.0245998
0.0241392
0.0236752
0.0232081
0.0227377
0.0222639
0.0217868
0.0213064
0.0208225
0.0203352
0.0198446
0.0193504
0.0188528
0.0183516
0.0178469
0.0173387
0.016827
0.0163116
0.0157926
0.01527
0.0147437
0.0142138
0.01368
0.0131426
0.0126014
0.0120564
0.0115074
0.0109548
0.0103981
0.00983774
0.0092731
0.00870489
0.00813231
0.00755596
0.00697557
0.00639073
0.00580252
0.00520919
0.00461266
0.00401134
0.0034058
0.00279651
0.00218231
0.00156411
0.00094168
0.000314618
-0.105641
-0.103012
-0.110649
-0.115164
-0.131577
-0.158082
-0.167926
-0.152905
-0.136406
-0.143104
-0.194823
-0.241796
-0.232665
-0.170799
-0.0949728
-0.0312105
0.00816951
0.0269327
0.03452
0.0372894
0.0381307
0.0381913
0.0379396
0.0375723
0.0371686
0.0367579
0.0363499
0.0359468
0.0355478
0.0351515
0.0347566
0.0343617
0.033966
0.0335688
0.0331696
0.0327682
0.0323644
0.0319579
0.0315487
0.0311367
0.0307219
0.0303042
0.0298836
0.0294601
0.0290335
0.028604
0.0281714
0.0277358
0.0272972
0.0268555
0.0264106
0.0259627
0.0255116
0.0250573
0.0245999
0.0241392
0.0236752
0.0232081
0.0227377
0.0222639
0.0217868
0.0213064
0.0208225
0.0203352
0.0198445
0.0193504
0.0188528
0.0183516
0.0178469
0.0173387
0.016827
0.0163116
0.0157926
0.01527
0.0147437
0.0142138
0.01368
0.0131426
0.0126014
0.0120564
0.0115074
0.0109548
0.0103981
0.00983774
0.0092731
0.00870489
0.00813231
0.00755596
0.00697557
0.00639073
0.00580252
0.00520919
0.00461266
0.00401134
0.00340579
0.00279651
0.00218231
0.0015641
0.000941682
0.000314619
-0.104877
-0.103898
-0.110292
-0.113317
-0.125233
-0.145521
-0.151557
-0.137846
-0.123417
-0.133726
-0.192057
-0.243308
-0.235856
-0.173788
-0.0971822
-0.0325411
0.00759287
0.026864
0.0346733
0.0374725
0.0382756
0.0382917
0.0380055
0.0376145
0.0371952
0.0367746
0.0363604
0.0359533
0.0355519
0.0351541
0.0347582
0.0343627
0.0339666
0.0335692
0.0331699
0.0327684
0.0323645
0.031958
0.0315487
0.0311367
0.0307219
0.0303042
0.0298836
0.0294601
0.0290335
0.028604
0.0281714
0.0277358
0.0272972
0.0268555
0.0264106
0.0259627
0.0255116
0.0250573
0.0245999
0.0241392
0.0236752
0.0232081
0.0227377
0.0222639
0.0217868
0.0213063
0.0208225
0.0203352
0.0198445
0.0193504
0.0188528
0.0183516
0.0178469
0.0173387
0.016827
0.0163116
0.0157926
0.01527
0.0147437
0.0142138
0.01368
0.0131426
0.0126014
0.0120564
0.0115074
0.0109548
0.0103981
0.00983774
0.0092731
0.00870489
0.00813231
0.00755596
0.00697557
0.00639073
0.00580252
0.00520919
0.00461266
0.00401134
0.00340579
0.00279651
0.00218231
0.0015641
0.000941683
0.000314621
-0.103954
-0.105048
-0.10919
-0.110941
-0.119863
-0.134082
-0.135959
-0.123559
-0.111195
-0.124859
-0.18844
-0.242766
-0.23675
-0.174875
-0.0981739
-0.0333074
0.00721187
0.026848
0.0348414
0.0376634
0.0384256
0.0383951
0.0380728
0.0376571
0.0372218
0.0367911
0.0363706
0.0359596
0.0355558
0.0351565
0.0347597
0.0343636
0.0339672
0.0335695
0.0331701
0.0327685
0.0323645
0.031958
0.0315488
0.0311368
0.0307219
0.0303042
0.0298836
0.0294601
0.0290335
0.028604
0.0281714
0.0277358
0.0272972
0.0268555
0.0264106
0.0259627
0.0255116
0.0250573
0.0245999
0.0241392
0.0236752
0.0232081
0.0227377
0.0222639
0.0217868
0.0213063
0.0208225
0.0203352
0.0198445
0.0193504
0.0188528
0.0183516
0.0178469
0.0173387
0.016827
0.0163116
0.0157926
0.01527
0.0147437
0.0142138
0.01368
0.0131426
0.0126014
0.0120564
0.0115074
0.0109548
0.0103981
0.00983774
0.0092731
0.00870489
0.00813231
0.00755596
0.00697557
0.00639073
0.00580252
0.00520919
0.00461266
0.00401134
0.00340579
0.00279651
0.00218231
0.0015641
0.000941686
0.000314623
-0.102925
-0.106222
-0.107654
-0.10821
-0.115373
-0.124021
-0.121878
-0.110696
-0.100308
-0.11673
-0.184156
-0.240499
-0.235693
-0.174332
-0.0981123
-0.0335833
0.00699945
0.0268738
0.0350174
0.0378571
0.0385779
0.0384999
0.0381406
0.0376996
0.037248
0.0368072
0.0363804
0.0359657
0.0355595
0.0351588
0.0347611
0.0343645
0.0339677
0.0335698
0.0331703
0.0327686
0.0323646
0.031958
0.0315488
0.0311368
0.0307219
0.0303042
0.0298836
0.0294601
0.0290335
0.028604
0.0281714
0.0277358
0.0272972
0.0268555
0.0264106
0.0259627
0.0255116
0.0250573
0.0245999
0.0241392
0.0236753
0.0232081
0.0227377
0.0222639
0.0217868
0.0213063
0.0208225
0.0203352
0.0198445
0.0193504
0.0188528
0.0183516
0.0178469
0.0173387
0.016827
0.0163116
0.0157926
0.01527
0.0147437
0.0142138
0.01368
0.0131426
0.0126014
0.0120564
0.0115074
0.0109548
0.0103981
0.00983774
0.0092731
0.00870489
0.00813231
0.00755596
0.00697557
0.00639073
0.00580253
0.00520919
0.00461266
0.00401135
0.00340578
0.00279652
0.00218231
0.00156409
0.000941688
0.000314625
-0.101908
-0.107191
-0.105999
-0.105383
-0.111619
-0.115489
-0.109969
-0.0998741
-0.09132
-0.109657
-0.179482
-0.236883
-0.232941
-0.172491
-0.0972235
-0.033466
0.00692226
0.0269295
0.0351944
0.0380486
0.038729
0.038604
0.0382078
0.0377414
0.0372736
0.0368227
0.0363899
0.0359714
0.035563
0.0351609
0.0347624
0.0343653
0.0339682
0.0335701
0.0331705
0.0327687
0.0323647
0.0319581
0.0315488
0.0311368
0.0307219
0.0303042
0.0298836
0.0294601
0.0290335
0.028604
0.0281714
0.0277358
0.0272972
0.0268555
0.0264106
0.0259627
0.0255116
0.0250573
0.0245999
0.0241392
0.0236753
0.0232081
0.0227377
0.0222639
0.0217868
0.0213063
0.0208225
0.0203352
0.0198445
0.0193504
0.0188528
0.0183516
0.0178469
0.0173387
0.016827
0.0163116
0.0157926
0.01527
0.0147437
0.0142138
0.01368
0.0131426
0.0126014
0.0120564
0.0115074
0.0109548
0.0103981
0.00983774
0.0092731
0.00870489
0.00813231
0.00755596
0.00697557
0.00639073
0.00580253
0.00520919
0.00461266
0.00401135
0.00340578
0.00279652
0.00218231
0.00156409
0.00094169
0.000314627
-0.101014
-0.107787
-0.104488
-0.102747
-0.108455
-0.108566
-0.100669
-0.0915841
-0.084686
-0.103982
-0.174699
-0.232227
-0.229127
-0.169732
-0.0957859
-0.0330622
0.0069451
0.0270026
0.0353639
0.0382312
0.0388745
0.0387046
0.0382727
0.0377816
0.037298
0.0368374
0.0363987
0.0359767
0.0355662
0.0351629
0.0347635
0.034366
0.0339686
0.0335704
0.0331706
0.0327688
0.0323647
0.0319581
0.0315488
0.0311368
0.0307219
0.0303042
0.0298836
0.0294601
0.0290335
0.028604
0.0281714
0.0277358
0.0272972
0.0268554
0.0264106
0.0259627
0.0255116
0.0250573
0.0245999
0.0241392
0.0236753
0.0232081
0.0227377
0.0222639
0.0217868
0.0213063
0.0208225
0.0203352
0.0198445
0.0193504
0.0188528
0.0183516
0.017847
0.0173387
0.016827
0.0163116
0.0157926
0.01527
0.0147437
0.0142138
0.01368
0.0131426
0.0126014
0.0120564
0.0115074
0.0109548
0.0103981
0.00983774
0.0092731
0.00870489
0.00813231
0.00755596
0.00697557
0.00639073
0.00580253
0.00520919
0.00461266
0.00401135
0.00340578
0.00279652
0.00218231
0.00156408
0.000941693
0.000314629
-0.100314
-0.107974
-0.103271
-0.100541
-0.105799
-0.103244
-0.0940924
-0.0860358
-0.0805958
-0.100004
-0.170116
-0.226577
-0.224076
-0.166576
-0.0941461
-0.0324807
0.00703044
0.0270769
0.0355139
0.0383953
0.0390074
0.0387975
0.0383327
0.0378187
0.0373204
0.0368508
0.0364067
0.0359815
0.035569
0.0351646
0.0347646
0.0343666
0.033969
0.0335706
0.0331707
0.0327689
0.0323648
0.0319581
0.0315488
0.0311368
0.0307219
0.0303042
0.0298836
0.0294601
0.0290335
0.028604
0.0281714
0.0277358
0.0272972
0.0268554
0.0264106
0.0259627
0.0255116
0.0250573
0.0245999
0.0241392
0.0236753
0.0232081
0.0227377
0.0222639
0.0217868
0.0213063
0.0208225
0.0203352
0.0198445
0.0193504
0.0188528
0.0183516
0.017847
0.0173387
0.016827
0.0163116
0.0157926
0.01527
0.0147437
0.0142138
0.01368
0.0131426
0.0126014
0.0120564
0.0115074
0.0109548
0.0103981
0.00983774
0.0092731
0.00870489
0.00813231
0.00755596
0.00697557
0.00639072
0.00580253
0.00520919
0.00461266
0.00401135
0.00340577
0.00279653
0.00218232
0.00156408
0.000941697
0.000314632
-0.0998405
-0.107754
-0.102383
-0.0989242
-0.103646
-0.0994804
-0.0900505
-0.0830311
-0.078872
-0.0978309
-0.165897
-0.220164
-0.218469
-0.163004
-0.0923167
-0.0318245
0.00713626
0.0271307
0.0356287
0.0385295
0.0391198
0.038877
0.0383842
0.0378506
0.0373396
0.0368622
0.0364135
0.0359855
0.0355715
0.035166
0.0347654
0.0343671
0.0339693
0.0335708
0.0331708
0.032769
0.0323648
0.0319582
0.0315489
0.0311368
0.030722
0.0303042
0.0298836
0.0294601
0.0290335
0.028604
0.0281714
0.0277358
0.0272972
0.0268554
0.0264106
0.0259627
0.0255116
0.0250573
0.0245999
0.0241392
0.0236753
0.0232081
0.0227377
0.0222639
0.0217868
0.0213063
0.0208225
0.0203352
0.0198445
0.0193504
0.0188528
0.0183516
0.017847
0.0173387
0.016827
0.0163116
0.0157926
0.01527
0.0147437
0.0142138
0.01368
0.0131426
0.0126014
0.0120564
0.0115074
0.0109548
0.0103981
0.00983774
0.0092731
0.00870489
0.00813231
0.00755596
0.00697557
0.00639072
0.00580253
0.00520919
0.00461266
0.00401135
0.00340577
0.00279653
0.00218232
0.00156408
0.0009417
0.000314634
-0.0996121
-0.107431
-0.101802
-0.0979303
-0.10203
-0.0972068
-0.0881547
-0.0821038
-0.0790073
-0.0972969
-0.161861
-0.213491
-0.212653
-0.159391
-0.0905095
-0.0312038
0.00721775
0.0271419
0.0356938
0.0386222
0.0392028
0.038937
0.0384234
0.0378749
0.0373543
0.036871
0.0364187
0.0359886
0.0355733
0.0351672
0.0347661
0.0343675
0.0339695
0.0335709
0.0331709
0.032769
0.0323648
0.0319582
0.0315489
0.0311368
0.030722
0.0303042
0.0298836
0.0294601
0.0290335
0.028604
0.0281714
0.0277358
0.0272972
0.0268554
0.0264106
0.0259627
0.0255116
0.0250573
0.0245999
0.0241392
0.0236753
0.0232081
0.0227377
0.0222639
0.0217868
0.0213063
0.0208225
0.0203352
0.0198445
0.0193504
0.0188528
0.0183516
0.017847
0.0173387
0.016827
0.0163116
0.0157926
0.01527
0.0147437
0.0142138
0.01368
0.0131426
0.0126014
0.0120564
0.0115074
0.0109548
0.0103981
0.00983774
0.0092731
0.00870489
0.00813231
0.00755596
0.00697557
0.00639072
0.00580253
0.00520919
0.00461266
0.00401135
0.00340577
0.00279653
0.00218232
0.00156407
0.000941702
0.000314636
-0.0996248
-0.10701
-0.10146
-0.0974833
-0.100976
-0.0961832
-0.0877797
-0.0824267
-0.0802344
-0.0978638
-0.158259
-0.207239
-0.207086
-0.156122
-0.0889362
-0.0307332
0.00723989
0.0270968
0.0356985
0.0386641
0.0392491
0.038973
0.0384477
0.0378902
0.0373637
0.0368767
0.0364222
0.0359908
0.0355746
0.035168
0.0347666
0.0343678
0.0339697
0.033571
0.033171
0.032769
0.0323649
0.0319582
0.0315489
0.0311368
0.030722
0.0303042
0.0298836
0.0294601
0.0290335
0.028604
0.0281714
0.0277358
0.0272972
0.0268554
0.0264106
0.0259627
0.0255116
0.0250573
0.0245999
0.0241392
0.0236753
0.0232081
0.0227377
0.0222639
0.0217868
0.0213063
0.0208225
0.0203352
0.0198445
0.0193504
0.0188528
0.0183516
0.017847
0.0173387
0.016827
0.0163116
0.0157926
0.01527
0.0147437
0.0142138
0.01368
0.0131426
0.0126014
0.0120564
0.0115074
0.0109548
0.0103981
0.00983774
0.0092731
0.00870489
0.00813231
0.00755596
0.00697557
0.00639073
0.00580253
0.00520919
0.00461266
0.00401135
0.00340577
0.00279654
0.00218231
0.00156407
0.000941703
0.000314637
-0.0998079
-0.106608
-0.101284
-0.0974451
-0.100463
-0.0958775
-0.0880292
-0.0831955
-0.0815328
-0.0989006
-0.155718
-0.202344
-0.202208
-0.153631
-0.0878003
-0.0305073
0.00720067
0.0270009
0.0356465
0.0386575
0.0392604
0.0389862
0.0384581
0.0378974
0.0373684
0.0368797
0.0364241
0.0359919
0.0355753
0.0351683
0.0347669
0.034368
0.0339698
0.0335711
0.033171
0.0327691
0.0323649
0.0319582
0.0315489
0.0311368
0.030722
0.0303042
0.0298836
0.0294601
0.0290335
0.028604
0.0281714
0.0277358
0.0272972
0.0268554
0.0264106
0.0259627
0.0255116
0.0250573
0.0245999
0.0241392
0.0236753
0.0232081
0.0227377
0.0222639
0.0217868
0.0213063
0.0208225
0.0203352
0.0198445
0.0193504
0.0188528
0.0183516
0.017847
0.0173387
0.016827
0.0163116
0.0157926
0.01527
0.0147437
0.0142138
0.01368
0.0131426
0.0126014
0.0120564
0.0115074
0.0109548
0.0103981
0.00983774
0.0092731
0.00870489
0.00813231
0.00755597
0.00697556
0.00639073
0.00580252
0.00520919
0.00461266
0.00401135
0.00340577
0.00279653
0.00218231
0.00156407
0.000941702
0.000314637
-0.100037
-0.106358
-0.101193
-0.0976784
-0.100361
-0.0958516
-0.0882173
-0.0833086
-0.0819962
-0.100146
-0.154673
-0.199957
-0.199885
-0.152212
-0.0871776
-0.0303913
0.00714751
0.0269561
0.0356055
0.0386447
0.0392611
0.0389903
0.0384619
0.0379003
0.0373703
0.0368809
0.0364247
0.0359924
0.0355756
0.0351685
0.034767
0.034368
0.0339698
0.0335711
0.033171
0.0327691
0.0323649
0.0319582
0.0315489
0.0311368
0.030722
0.0303042
0.0298836
0.0294601
0.0290335
0.028604
0.0281714
0.0277358
0.0272972
0.0268554
0.0264106
0.0259627
0.0255116
0.0250573
0.0245999
0.0241392
0.0236753
0.0232081
0.0227377
0.0222639
0.0217868
0.0213063
0.0208225
0.0203352
0.0198445
0.0193504
0.0188528
0.0183516
0.017847
0.0173387
0.016827
0.0163116
0.0157926
0.01527
0.0147437
0.0142138
0.01368
0.0131426
0.0126014
0.0120564
0.0115074
0.0109548
0.0103981
0.00983774
0.0092731
0.00870489
0.00813231
0.00755597
0.00697556
0.00639073
0.00580252
0.00520919
0.00461266
0.00401135
0.00340578
0.00279653
0.00218231
0.00156407
0.000941701
0.000314636
-0.122458
-0.140967
-0.159145
-0.160251
-0.169838
-0.20149
-0.229741
-0.237335
-0.224664
-0.188754
-0.121059
-0.0437778
0.0129337
0.0398857
0.0461781
0.0442458
0.0411696
0.0391502
0.0381931
0.0377839
0.0375737
0.0373994
0.03721
0.0369889
0.0367339
0.0364486
0.0361366
0.035803
0.0354526
0.0350895
0.0347167
0.0343364
0.0339501
0.0335589
0.0331636
0.0327646
0.0323622
0.0319566
0.0315479
0.0311363
0.0307216
0.0303041
0.0298835
0.02946
0.0290335
0.028604
0.0281715
0.0277359
0.0272972
0.0268555
0.0264107
0.0259627
0.0255116
0.0250573
0.0245998
0.0241391
0.0236752
0.023208
0.0227376
0.0222639
0.0217868
0.0213064
0.0208226
0.0203353
0.0198445
0.0193504
0.0188527
0.0183516
0.0178469
0.0173388
0.016827
0.0163116
0.0157926
0.01527
0.0147437
0.0142138
0.01368
0.0131426
0.0126014
0.0120564
0.0115074
0.0109548
0.0103981
0.00983774
0.0092731
0.00870489
0.00813231
0.00755597
0.00697556
0.00639074
0.00580252
0.00520919
0.00461266
0.00401135
0.00340578
0.00279653
0.00218231
0.00156407
0.000941702
0.000314635
-0.123269
-0.141662
-0.159558
-0.160138
-0.168956
-0.202823
-0.232299
-0.239149
-0.225733
-0.190272
-0.122857
-0.0446925
0.0126576
0.0398149
0.0461516
0.0441875
0.0411194
0.0391227
0.0381894
0.0377899
0.0375816
0.0374058
0.0372145
0.036992
0.0367358
0.0364499
0.0361373
0.0358034
0.0354529
0.0350897
0.0347169
0.0343364
0.0339501
0.0335589
0.0331636
0.0327646
0.0323622
0.0319566
0.0315479
0.0311363
0.0307216
0.0303041
0.0298835
0.02946
0.0290335
0.028604
0.0281715
0.0277359
0.0272972
0.0268555
0.0264107
0.0259627
0.0255116
0.0250573
0.0245998
0.0241391
0.0236752
0.023208
0.0227376
0.0222639
0.0217868
0.0213064
0.0208226
0.0203353
0.0198445
0.0193504
0.0188527
0.0183516
0.0178469
0.0173388
0.016827
0.0163116
0.0157926
0.01527
0.0147437
0.0142138
0.01368
0.0131426
0.0126014
0.0120564
0.0115074
0.0109548
0.0103981
0.00983774
0.0092731
0.00870489
0.00813231
0.00755597
0.00697556
0.00639073
0.00580252
0.00520919
0.00461265
0.00401135
0.00340577
0.00279653
0.00218232
0.00156407
0.000941703
0.000314637
-0.124467
-0.143096
-0.160492
-0.160637
-0.171444
-0.207663
-0.238042
-0.242537
-0.227897
-0.19308
-0.126257
-0.0464824
0.0121586
0.03963
0.0460355
0.0440135
0.0409648
0.0390388
0.0381579
0.0377858
0.0375888
0.037415
0.0372225
0.0369979
0.0367399
0.0364526
0.0361391
0.0358045
0.0354536
0.0350901
0.0347171
0.0343366
0.0339502
0.033559
0.0331636
0.0327646
0.0323622
0.0319566
0.0315479
0.0311363
0.0307216
0.0303041
0.0298835
0.02946
0.0290335
0.028604
0.0281715
0.0277359
0.0272972
0.0268555
0.0264107
0.0259627
0.0255116
0.0250573
0.0245998
0.0241391
0.0236752
0.023208
0.0227376
0.0222639
0.0217868
0.0213064
0.0208226
0.0203353
0.0198445
0.0193504
0.0188527
0.0183516
0.0178469
0.0173388
0.016827
0.0163116
0.0157926
0.01527
0.0147437
0.0142138
0.01368
0.0131426
0.0126014
0.0120564
0.0115074
0.0109548
0.0103981
0.00983775
0.0092731
0.0087049
0.00813231
0.00755597
0.00697556
0.00639073
0.00580252
0.00520919
0.00461265
0.00401135
0.00340577
0.00279653
0.00218232
0.00156407
0.000941704
0.000314637
-0.125689
-0.144766
-0.162077
-0.161858
-0.177243
-0.215196
-0.245651
-0.246606
-0.230704
-0.196974
-0.130945
-0.0491555
0.0113782
0.0391988
0.0457581
0.0436843
0.0406873
0.0388786
0.038091
0.0377747
0.0375942
0.0374263
0.037234
0.0370072
0.0367464
0.0364572
0.0361421
0.0358064
0.0354548
0.0350909
0.0347175
0.0343369
0.0339504
0.0335591
0.0331637
0.0327646
0.0323622
0.0319566
0.031548
0.0311363
0.0307216
0.0303041
0.0298835
0.02946
0.0290335
0.028604
0.0281715
0.0277359
0.0272972
0.0268555
0.0264107
0.0259627
0.0255116
0.0250573
0.0245998
0.0241391
0.0236752
0.023208
0.0227376
0.0222639
0.0217868
0.0213064
0.0208226
0.0203353
0.0198445
0.0193504
0.0188527
0.0183516
0.0178469
0.0173388
0.016827
0.0163116
0.0157926
0.01527
0.0147437
0.0142138
0.01368
0.0131426
0.0126013
0.0120564
0.0115074
0.0109548
0.0103981
0.00983775
0.0092731
0.0087049
0.00813231
0.00755597
0.00697557
0.00639073
0.00580253
0.00520919
0.00461265
0.00401135
0.00340577
0.00279653
0.00218232
0.00156407
0.000941703
0.000314635
-0.126508
-0.145815
-0.162442
-0.163601
-0.185886
-0.224157
-0.25375
-0.250957
-0.23379
-0.201729
-0.136595
-0.0526099
0.0101526
0.0386739
0.0453172
0.0431996
0.0402874
0.0386394
0.0379801
0.0377363
0.037591
0.0374376
0.0372465
0.0370182
0.0367547
0.0364632
0.0361461
0.0358091
0.0354565
0.0350919
0.0347182
0.0343372
0.0339506
0.0335592
0.0331637
0.0327647
0.0323622
0.0319566
0.031548
0.0311363
0.0307216
0.0303041
0.0298835
0.02946
0.0290335
0.028604
0.0281715
0.0277359
0.0272972
0.0268555
0.0264107
0.0259627
0.0255116
0.0250573
0.0245998
0.0241391
0.0236752
0.023208
0.0227376
0.0222639
0.0217868
0.0213064
0.0208226