/*--------------------------------*- C++ -*----------------------------------*\
| =========                 |                                                 |
| \\      /  F ield         | OpenFOAM: The Open Source CFD Toolbox           |
|  \\    /   O peration     | Version:  2.4.0                                 |
|   \\  /    A nd           | Web:      www.OpenFOAM.org                      |
|    \\/     M anipulation  |                                                 |
\*---------------------------------------------------------------------------*/
FoamFile
{
    version     2.0;
    format      ascii;
    class       surfaceScalarField;
    location    "15";
    object      phi;
}
// * * * * * * * * * * * * * * * * * * * * * * * * * * * * * * * * * * * * * //

dimensions      [0 3 -1 0 0 0 0];

internalField   nonuniform List<scalar> 
8640
(
0.00054806
-6.05597e-05
0.000476571
7.14885e-05
0.000412773
6.37985e-05
0.000533466
-0.000120693
0.000482388
5.10783e-05
0.000497479
-1.50906e-05
0.000553457
-5.59781e-05
0.00044572
0.000107736
0.000503439
-5.77188e-05
0.000523805
-2.03659e-05
0.000441159
8.26458e-05
0.000523513
-8.23538e-05
0.000510734
1.27793e-05
0.000453675
5.70588e-05
0.000509003
-5.53276e-05
0.000516148
-7.1454e-06
0.000450871
6.52774e-05
0.000492077
-4.12069e-05
0.000527771
-3.56937e-05
7.68814e-05
0.00045089
0.00145049
-0.000123551
0.00133264
0.000189338
0.00131082
8.5622e-05
0.00143335
-0.000243229
0.00137655
0.000107887
0.00141963
-5.81736e-05
0.00144081
-7.71621e-05
0.0013424
0.000206146
0.00140045
-0.000115766
0.00141682
-3.67394e-05
0.00132989
0.000169582
0.00142828
-0.000180746
0.00140315
3.79046e-05
0.00133417
0.000126045
0.00141378
-0.000134939
0.00139335
1.3281e-05
0.00133002
0.000128612
0.00139201
-0.000103198
0.00140787
-5.15574e-05
0.000152356
0.0013324
0.00224368
-0.000179735
0.00212429
0.000308728
0.00214467
6.52495e-05
0.00223212
-0.000330684
0.00217085
0.000169158
0.00225201
-0.000139328
0.00221601
-4.11699e-05
0.00217662
0.000245542
0.00221477
-0.000153914
0.00220041
-2.23831e-05
0.00217312
0.000196874
0.00221743
-0.000225058
0.00221012
4.52157e-05
0.00215852
0.000177639
0.00220743
-0.000183843
0.00220353
1.71796e-05
0.00214995
0.000182191
0.00219029
-0.000143536
0.00221497
-7.6236e-05
0.000182426
0.0021849
0.00292409
-0.000216329
0.00280799
0.000424829
0.00288386
-1.06214e-05
0.00294265
-0.000389472
0.00287064
0.000241166
0.00299624
-0.000264924
0.00290573
4.93416e-05
0.00289687
0.000254402
0.00295518
-0.000212225
0.00287427
5.85266e-05
0.00291147
0.000159676
0.00293277
-0.000246359
0.00289378
8.42079e-05
0.00289939
0.000172022
0.00292314
-0.000207586
0.00289943
4.08858e-05
0.00287933
0.000202287
0.00292599
-0.00019019
0.00288482
-3.50651e-05
0.000126824
0.00294042
0.00351933
-0.000248156
0.00335488
0.000589273
0.00349469
-0.000150432
0.00353979
-0.000434567
0.0034457
0.000335254
0.00363671
-0.000455936
0.00350319
0.000182861
0.00348906
0.000268534
0.0036015
-0.000324662
0.00345271
0.000207311
0.00350985
0.000102541
0.00356261
-0.000299117
0.00346681
0.000180001
0.00350469
0.000134151
0.00354642
-0.000249322
0.00348926
9.80468e-05
0.00346627
0.000225275
0.00356604
-0.00028996
0.00346999
6.09911e-05
0.000102891
0.00349392
0.00404347
-0.000304125
0.00381276
0.000819984
0.00396564
-0.000303315
0.00402482
-0.000493742
0.00388753
0.000472535
0.00412501
-0.000693414
0.00399928
0.000308592
0.00394862
0.000319192
0.0041149
-0.000490941
0.00394415
0.000378059
0.00397208
7.46112e-05
0.00407158
-0.000398609
0.00394566
0.00030592
0.00397323
0.000106581
0.00404367
-0.000319765
0.00397942
0.000162298
0.00393238
0.000272313
0.0040599
-0.000417481
0.00397802
0.000142873
0.000157956
0.00392296
0.00446559
-0.000382218
0.00422164
0.00106394
0.004341
-0.000422678
0.00440966
-0.000562396
0.00424788
0.000634311
0.00447028
-0.000915811
0.00438671
0.000392164
0.00430728
0.000398616
0.00448741
-0.000671064
0.00434361
0.000521857
0.0043336
8.46211e-05
0.00445617
-0.000521184
0.00433406
0.00042803
0.0043396
0.000101048
0.00442356
-0.00040373
0.0043646
0.000221258
0.00431009
0.000326819
0.00442744
-0.000534831
0.00438231
0.000188007
0.00025944
0.00428083
0.00476251
-0.000457228
0.00456349
0.00126295
0.00464328
-0.000502469
0.0046963
-0.000615411
0.00455545
0.000775161
0.00471619
-0.00107655
0.00467302
0.000435339
0.00458977
0.000481864
0.00474222
-0.000823509
0.00464613
0.000617942
0.00461106
0.000119694
0.00473131
-0.000641434
0.00463121
0.00052813
0.00462016
0.000112099
0.00470483
-0.000488402
0.00464967
0.00027642
0.00460577
0.000370719
0.00469803
-0.000627095
0.00467691
0.000209131
0.000367906
0.00456844
0.00493663
-0.000506356
0.00481406
0.00138552
0.00485857
-0.000546979
0.00487788
-0.000634721
0.0047981
0.00085494
0.00487474
-0.00115319
0.00486588
0.000444206
0.00479767
0.000550064
0.00489586
-0.000921693
0.0048517
0.0006621
0.00480475
0.000166643
0.00490288
-0.000739563
0.00483536
0.000595653
0.00481324
0.000134212
0.00488995
-0.000565106
0.00483992
0.000326447
0.00481436
0.000396277
0.00487739
-0.000690123
0.00486758
0.000218946
0.000458452
0.00477703
0.00499735
-0.000516201
0.00496596
0.00141691
0.00497321
-0.000554236
0.00495569
-0.000617195
0.00495609
0.000854532
0.00494253
-0.00113963
0.00496354
0.000423196
0.004925
0.000588607
0.0049532
-0.000949896
0.00496168
0.000653624
0.00491387
0.00021445
0.00497118
-0.000796871
0.00494587
0.000620958
0.00491695
0.000163132
0.00497561
-0.000623764
0.00493701
0.000365047
0.00493148
0.000401806
0.00496272
-0.000721368
0.00495798
0.000223692
0.000514938
0.00490149
0.00495441
-0.000483112
0.00501484
0.00135648
0.00498531
-0.000524714
0.00493882
-0.000570705
0.00501201
0.000781346
0.004922
-0.00104962
0.004962
0.000383196
0.00496419
0.000586417
0.00491738
-0.000903087
0.00497226
0.000598752
0.00493709
0.00024962
0.0049397
-0.00079949
0.00496089
0.00059977
0.00493183
0.000192199
0.00496016
-0.000652095
0.00494198
0.000383221
0.00495508
0.000388707
0.00495105
-0.000717341
0.00495085
0.000223899
0.000528578
0.00493721
0.00481796
-0.00041357
0.00496193
0.00121251
0.00489728
-0.000460057
0.00483078
-0.000504208
0.00495947
0.000652661
0.00480815
-0.000898305
0.00486236
0.000328983
0.00490274
0.000546044
0.00479204
-0.000792395
0.00488215
0.000508649
0.00486679
0.00026498
0.00481403
-0.000746729
0.00487648
0.000537318
0.00485789
0.000210785
0.00484455
-0.000638751
0.00485404
0.000373728
0.00488322
0.000359526
0.00484151
-0.000675627
0.00485034
0.00021507
0.0005009
0.00487801
0.00459678
-0.000322851
0.00480934
0.000999947
0.00470615
-0.000356864
0.00463474
-0.000432804
0.00479291
0.0004945
0.00459548
-0.000700879
0.00466642
0.000258043
0.00473023
0.000482236
0.00457727
-0.000639438
0.00469298
0.000392937
0.00469567
0.000262296
0.00460186
-0.000652924
0.00469271
0.000446472
0.00469059
0.000212898
0.00463261
-0.000580771
0.00467125
0.000335091
0.00471336
0.000317412
0.00463497
-0.000597229
0.00465843
0.000191611
0.000442707
0.00471662
0.0043002
-0.000235553
0.00455366
0.000746485
0.004408
-0.000211202
0.00435276
-0.000377563
0.00450609
0.000341171
0.0042842
-0.000478994
0.00437884
0.000163402
0.00444377
0.000417312
0.00427974
-0.000475412
0.00441171
0.000260969
0.00442211
0.000251897
0.00430732
-0.000538138
0.00441438
0.00033942
0.00442451
0.000202764
0.00432991
-0.00048617
0.00439462
0.000270378
0.00444211
0.000269922
0.00433553
-0.000490646
0.00437703
0.000150108
0.000369929
0.00444981
0.00393378
-0.000181834
0.00417691
0.00050336
0.00400308
-3.73754e-05
0.00398509
-0.000359575
0.00409162
0.000234645
0.00388825
-0.000275622
0.00400495
4.67031e-05
0.0040469
0.000375353
0.00391115
-0.000339654
0.00404007
0.000132048
0.00404628
0.000245685
0.00393144
-0.000423298
0.00404279
0.000228067
0.00405156
0.000193999
0.00394104
-0.000375657
0.00402581
0.000185612
0.00406549
0.000230246
0.00394706
-0.000372219
0.00400623
9.09402e-05
0.000300204
0.00407595
0.00347949
-0.000173819
0.00364831
0.000334539
0.00350391
0.000107025
0.00351175
-0.000367418
0.00355067
0.000195721
0.00342292
-0.000147869
0.003523
-5.33753e-05
0.00354534
0.000353009
0.00346259
-0.000256902
0.00355489
3.97488e-05
0.0035602
0.000240372
0.00346291
-0.000326008
0.00356075
0.000130227
0.0035615
0.00019325
0.00346512
-0.000279274
0.00355276
9.79721e-05
0.00357559
0.000207412
0.00346818
-0.000264806
0.00353642
2.26967e-05
0.000248737
0.00358789
0.00289018
-0.000176497
0.00297695
0.000247767
0.00292493
0.000159049
0.00289673
-0.000339221
0.00291396
0.000178488
0.00286572
-9.96252e-05
0.00289861
-8.62697e-05
0.00294688
0.000304738
0.00289231
-0.000202326
0.00293138
6.80428e-07
0.002961
0.000210743
0.00287919
-0.000244193
0.00294505
6.43664e-05
0.0029578
0.000180495
0.00288694
-0.000208411
0.00294895
3.59658e-05
0.00296978
0.000186579
0.00289076
-0.00018579
0.0029433
-2.98433e-05
0.00021239
0.00297965
0.00215294
-0.000141941
0.00222633
0.000174377
0.00225262
0.000132763
0.00215708
-0.000243682
0.00220811
0.000127455
0.00217331
-6.48216e-05
0.00216002
-7.29814e-05
0.00225366
0.000211097
0.00218232
-0.00013098
0.00219909
-1.60965e-05
0.00225784
0.000152
0.0021708
-0.000157161
0.00221456
2.06106e-05
0.002256
0.000139058
0.00218588
-0.000138293
0.00222095
8.91601e-07
0.00226333
0.0001442
0.00219932
-0.000121781
0.00221661
-4.71322e-05
0.000160919
0.00226808
0.00131581
-7.02463e-05
0.00141326
7.69246e-05
0.00146857
7.74529e-05
0.00133895
-0.000114062
0.00141332
5.30822e-05
0.00136809
-1.95852e-05
0.00134404
-4.8939e-05
0.00145377
0.000101367
0.00137503
-5.22397e-05
0.00138266
-2.37266e-05
0.00145304
8.16207e-05
0.00136625
-7.03688e-05
0.00139297
-6.10747e-06
0.00145405
7.79801e-05
0.00138049
-6.47367e-05
0.00139488
-1.3503e-05
0.00146007
7.90136e-05
0.00139495
-5.6664e-05
0.00138404
-3.62153e-05
8.17893e-05
0.00146317
0.000417254
0.000494178
0.000571631
0.000457569
0.000510652
0.000491066
0.000442127
0.000543494
0.000491255
0.000467528
0.000549149
0.00047878
0.000472672
0.000550652
0.000485916
0.000472413
0.000551426
0.000494762
0.000458547
0.000540336
0.000511058
1.04864e-05
-7.06549e-05
0.00068902
-0.000538026
0.000360065
0.00114047
8.96706e-05
-0.000541125
0.00190196
0.00272711
-0.0034886
0.00259277
0.00128851
-0.00197932
0.00293031
-0.000622554
0.000285016
0.00300518
-0.00226458
0.00218971
0.00338055
-0.00408226
0.00370689
0.00410674
-0.00606038
0.00533419
0.0047412
-0.00957687
0.00894241
0.00492363
-0.0113154
0.011133
0.00467825
-0.0090441
0.00928948
0.00422039
-0.00457268
0.00503055
0.00373441
-0.000380192
0.000866172
0.00328422
0.00225418
-0.00180399
0.00288149
0.00295338
-0.00255065
0.00254561
0.00236259
-0.00202671
0.00229344
0.00139459
-0.00114242
0.00211927
0.000624224
-0.000450059
0.00200587
0.000192193
-7.87919e-05
0.00193551
1.02033e-05
6.01588e-05
0.00189359
-4.35344e-05
8.54595e-05
0.00186942
-4.79731e-05
7.21431e-05
0.00185586
-3.89888e-05
5.2545e-05
0.00184844
-2.87646e-05
3.61821e-05
0.00184448
-2.02238e-05
2.41855e-05
0.00184242
-1.36575e-05
1.57205e-05
0.00184137
-8.83974e-06
9.88486e-06
0.00184086
-5.47178e-06
5.98591e-06
0.00184061
-3.24056e-06
3.48586e-06
0.0018405
-1.83961e-06
1.95324e-06
0.00184045
-1.00498e-06
1.05599e-06
0.00184043
-5.30691e-07
5.52802e-07
0.00184042
-2.72209e-07
2.81687e-07
0.00184041
-1.36424e-07
1.4052e-07
0.00184041
-6.76326e-08
6.93302e-08
0.00184041
-3.34413e-08
3.40817e-08
0.00184041
-1.71304e-08
1.74454e-08
0.00184041
-8.92144e-09
9.10765e-09
0.00184041
-4.80174e-09
4.81099e-09
0.00184041
-3.15675e-09
3.19929e-09
0.00184041
-1.4335e-09
1.55654e-09
0.00184041
-1.68223e-09
1.62746e-09
0.00184041
-8.99068e-10
7.48863e-10
0.00184041
-4.60469e-10
4.45563e-10
0.00184041
-6.09168e-10
6.91978e-10
0.00184041
-4.6668e-11
9.08111e-11
0.00184041
-5.16055e-10
4.48094e-10
0.00184041
-3.97658e-10
3.78124e-10
0.00184041
1.02911e-10
-7.46787e-12
0.00184041
-8.49697e-11
9.20556e-11
0.00184041
2.3854e-11
-1.06898e-10
0.00184041
1.00999e-10
-1.30515e-10
0.00184041
5.63633e-11
-5.65918e-11
0.00184041
-2.33249e-11
-7.33311e-12
0.00184041
1.71349e-10
-2.17654e-10
0.00184041
6.60424e-11
-5.97252e-11
0.00184041
-6.84061e-11
1.3998e-10
0.00184041
-5.3554e-11
1.0451e-10
0.00184041
-3.35771e-11
-3.40004e-11
0.00184041
-1.98632e-10
8.30315e-11
0.00184041
1.68694e-10
-1.84065e-10
0.00184041
1.99942e-10
-1.43869e-10
0.00184041
-1.51949e-10
1.46189e-10
0.00184041
1.28273e-10
-1.88871e-10
0.00184041
4.45869e-11
-6.29016e-11
0.00184041
-1.08074e-10
1.79679e-10
0.00184041
5.32491e-11
6.63453e-11
0.00184041
1.55846e-10
-9.13956e-11
0.00184041
-1.37723e-10
9.99368e-11
0.00184041
2.98872e-11
-8.97943e-11
0.00184041
-2.33456e-11
4.13072e-11
0.00184041
5.41644e-11
3.75996e-11
0.00184041
-1.11565e-10
2.14103e-10
0.00184041
1.018e-10
-1.34536e-10
0.00184041
-9.56708e-11
-5.31578e-11
0.00184041
-1.0744e-10
-3.93257e-11
0.00184041
-6.60604e-11
1.11167e-10
0.00184041
1.8706e-11
3.28374e-11
0.00184041
1.90557e-10
-1.49731e-11
0.00184041
-4.10933e-10
1.97399e-10
0.00184041
1.53992e-10
-7.02079e-11
0.00184041
-3.16732e-10
-1.9115e-10
0.00184041
4.60146e-10
4.3734e-11
0.00184041
-6.54877e-10
1.21759e-10
0.00184041
7.20657e-10
2.38098e-10
0.00184041
-5.7344e-10
-7.61103e-11
0.00184041
7.74653e-10
-1.16495e-10
0.00184041
-3.85021e-10
6.19217e-11
0.00184041
-6.03085e-10
1.14327e-10
0.00184041
9.74003e-10
1.38991e-10
0.00184041
-1.61701e-09
-2.85977e-10
0.00184041
2.14246e-09
-9.93053e-12
0.00184041
-1.91339e-09
1.93454e-10
0.00184041
4.53659e-10
-8.4141e-11
0.00184041
1.24595e-09
-6.62776e-11
0.00184041
-1.61572e-09
-4.17266e-11
0.00184041
1.17266e-09
-1.22413e-10
0.00184041
6.66165e-10
-2.32977e-10
-6.05821e-10
-1.42067e-10
0.00137333
-3.04421e-05
0.00141901
-0.000583713
0.00147405
3.46334e-05
0.0021134
0.00208776
0.00279044
0.000611472
0.00305955
-0.000891663
0.00326534
-0.00247037
0.00376141
-0.00457833
0.00446774
-0.00676671
0.00496952
-0.0100787
0.00498349
-0.0113294
0.00461525
-0.00867585
0.00411589
-0.00407333
0.00363994
9.57573e-05
0.00322231
0.00267181
0.00285362
0.00332207
0.00254378
0.00267243
0.00230489
0.00163348
0.00213365
0.000795458
0.00201784
0.000308007
0.00194371
8.43347e-05
0.00189861
1.5614e-06
0.00187232
-2.16852e-05
0.00185751
-2.41729e-05
0.00184938
-2.0636e-05
0.00184502
-1.58642e-05
0.00184273
-1.13683e-05
0.00184155
-7.66311e-06
0.00184096
-4.88039e-06
0.00184067
-2.95005e-06
0.00184053
-1.69995e-06
0.00184047
-9.39179e-07
0.00184044
-5.00468e-07
0.00184042
-2.58353e-07
0.00184042
-1.30327e-07
0.00184041
-6.48772e-08
0.00184041
-3.23035e-08
0.00184041
-1.64256e-08
0.00184041
-8.53202e-09
0.00184041
-4.8237e-09
0.00184041
-3.06051e-09
0.00184041
-1.49116e-09
0.00184041
-1.62231e-09
0.00184041
-9.93334e-10
0.00184041
-4.26658e-10
0.00184041
-5.14589e-10
0.00184041
-1.6168e-10
0.00184041
-7.53954e-10
0.00184041
-5.24955e-10
0.00184041
1.11276e-10
0.00184041
-1.53534e-11
0.00184041
7.36624e-11
0.00184041
1.43348e-10
0.00184041
7.95904e-11
0.00184041
-1.16488e-11
0.00184041
-7.70011e-12
0.00184041
5.61431e-11
0.00184041
-1.19828e-10
0.00184041
-8.53202e-11
0.00184041
-1.5014e-10
0.00184041
-2.55857e-10
0.00184041
1.80022e-10
0.00184041
3.52627e-10
0.00184041
4.65408e-11
0.00184041
1.20261e-10
0.00184041
2.24581e-10
0.00184041
7.99989e-11
0.00184041
2.23132e-10
0.00184041
2.82934e-10
0.00184041
-4.53687e-11
0.00184041
-1.05041e-10
0.00184041
1.08385e-10
0.00184041
9.2939e-11
0.00184041
3.12086e-11
0.00184041
1.7857e-11
0.00184041
-1.47138e-10
0.00184041
-3.15334e-10
0.00184041
6.73704e-12
0.00184041
9.33111e-11
0.00184041
2.59365e-10
0.00184041
-5.3612e-10
0.00184041
2.19709e-10
0.00184041
-8.39516e-10
0.00184041
1.03148e-09
0.00184041
-1.29836e-09
0.00184041
1.77702e-09
0.00184041
-1.2936e-09
0.00184041
1.43577e-09
0.00184041
-7.24108e-10
0.00184041
-1.07523e-09
0.00184041
2.23376e-09
0.00184041
-3.74233e-09
0.00184041
4.33038e-09
0.00184041
-3.49574e-09
0.00184041
6.81689e-10
0.00184041
2.46076e-09
0.00184041
-3.21236e-09
0.00184041
2.15434e-09
0.00184041
1.05181e-09
-1.34953e-09
0.0021401
1.43492e-05
0.00221689
-0.000660498
0.00209356
0.000157965
0.00245397
0.00172735
0.00299891
6.65337e-05
0.00323277
-0.00112552
0.00359454
-0.00283214
0.00414985
-0.00513365
0.00478187
-0.00739874
0.00511754
-0.0104143
0.00494868
-0.0111605
0.00446926
-0.00819643
0.00394865
-0.00355271
0.00349704
0.000547374
0.00312004
0.00304881
0.00279415
0.00364796
0.00251898
0.0029476
0.00230099
0.00185147
0.00213856
0.000957883
0.00202436
0.000422209
0.00194893
0.00015976
0.00190207
4.84263e-05
0.00187442
5.96701e-06
0.00185874
-8.49188e-06
0.0018501
-1.20004e-05
0.00184545
-1.12118e-05
0.00184299
-8.90685e-06
0.00184171
-6.38273e-06
0.00184105
-4.22561e-06
0.00184072
-2.62101e-06
0.00184056
-1.53738e-06
0.00184048
-8.60273e-07
0.00184044
-4.6291e-07
0.00184043
-2.40611e-07
0.00184042
-1.22018e-07
0.00184041
-6.10558e-08
0.00184041
-3.06159e-08
0.00184041
-1.56512e-08
0.00184041
-8.11871e-09
0.00184041
-4.71558e-09
0.00184041
-2.96824e-09
0.00184041
-1.4092e-09
0.00184041
-1.62668e-09
0.00184041
-1.09378e-09
0.00184041
-4.22015e-10
0.00184041
-4.68737e-10
0.00184041
-1.62053e-10
0.00184041
-7.57571e-10
0.00184041
-5.5297e-10
0.00184041
2.07844e-10
0.00184041
5.69643e-12
0.00184041
-2.29745e-11
0.00184041
1.53105e-10
0.00184041
4.88498e-11
0.00184041
-5.65466e-11
0.00184041
-7.16245e-12
0.00184041
2.98036e-11
0.00184041
-5.80811e-11
0.00184041
-2.98862e-11
0.00184041
-2.16315e-10
0.00184041
-3.05657e-10
0.00184041
1.70227e-10
0.00184041
3.52633e-10
0.00184041
6.72327e-11
0.00184041
7.81001e-11
0.00184041
1.79908e-10
0.00184041
1.50999e-10
0.00184041
3.03066e-10
0.00184041
2.90136e-10
0.00184041
-4.49477e-11
0.00184041
-1.22635e-10
0.00184041
8.94245e-11
0.00184041
1.56467e-10
0.00184041
1.34747e-10
0.00184041
-1.96905e-11
0.00184041
-2.75497e-10
0.00184041
-3.95758e-10
0.00184041
7.15143e-11
0.00184041
7.29603e-11
0.00184041
3.94761e-10
0.00184041
-6.97611e-10
0.00184041
3.7396e-10
0.00184041
-1.33818e-09
0.00184041
1.53729e-09
0.00184041
-1.85021e-09
0.00184041
2.70142e-09
0.00184041
-2.02647e-09
0.00184041
2.07974e-09
0.00184041
-1.02901e-09
0.00184041
-1.47824e-09
0.00184041
3.36204e-09
0.00184041
-5.6876e-09
0.00184041
6.48371e-09
0.00184041
-5.25146e-09
0.00184041
1.14562e-09
0.00184041
3.63405e-09
0.00184041
-4.93976e-09
0.00184041
3.1367e-09
0.00184041
1.45119e-09
-2.07161e-09
0.00289754
5.72315e-05
0.00285851
-0.000621471
0.0028236
0.000192874
0.00310984
0.00144111
0.00339658
-0.000220203
0.0035895
-0.00131845
0.00401561
-0.00325825
0.00451682
-0.00563486
0.00501237
-0.00789429
0.0051632
-0.0105651
0.00481627
-0.0108136
0.00425011
-0.00763027
0.00372458
-0.00302719
0.00330789
0.000964073
0.00297974
0.00337695
0.00270509
0.00392261
0.0024722
0.00318049
0.00228175
0.00204193
0.00213357
0.00110606
0.00202496
0.00053082
0.00195084
0.000233881
0.00190375
9.55142e-05
0.00187559
3.41279e-05
0.0018595
7.60153e-06
0.00185059
-3.08944e-06
0.00184576
-6.38365e-06
0.00184318
-6.33203e-06
0.00184183
-5.02795e-06
0.00184113
-3.52213e-06
0.00184077
-2.26081e-06
0.00184058
-1.35561e-06
0.00184049
-7.69951e-07
0.00184045
-4.18782e-07
0.00184043
-2.19281e-07
0.00184042
-1.11869e-07
0.00184041
-5.63006e-08
0.00184041
-2.84571e-08
0.00184041
-1.46698e-08
0.00184041
-7.61663e-09
0.00184041
-4.55167e-09
0.00184041
-2.86864e-09
0.00184041
-1.35925e-09
0.00184041
-1.6071e-09
0.00184041
-1.13849e-09
0.00184041
-4.12175e-10
0.00184041
-4.56336e-10
0.00184041
-1.7339e-10
0.00184041
-7.23338e-10
0.00184041
-5.62581e-10
0.00184041
2.82493e-10
0.00184041
1.9754e-11
0.00184041
-1.05055e-10
0.00184041
1.6751e-10
0.00184041
1.34243e-11
0.00184041
-1.00335e-10
0.00184041
6.30281e-12
0.00184041
5.07203e-12
0.00184041
-1.80946e-11
0.00184041
1.77355e-11
0.00184041
-2.55707e-10
0.00184041
-3.20938e-10
0.00184041
1.60514e-10
0.00184041
3.28512e-10
0.00184041
8.22589e-11
0.00184041
5.3258e-11
0.00184041
1.37655e-10
0.00184041
1.95181e-10
0.00184041
3.45993e-10
0.00184041
2.76839e-10
0.00184041
-3.409e-11
0.00184041
-1.18413e-10
0.00184041
6.72382e-11
0.00184041
1.95721e-10
0.00184041
2.11665e-10
0.00184041
-5.32192e-11
0.00184041
-3.55245e-10
0.00184041
-4.41314e-10
0.00184041
1.32688e-10
0.00184041
2.25217e-11
0.00184041
5.08658e-10
0.00184041
-8.50948e-10
0.00184041
5.82428e-10
0.00184041
-1.7913e-09
0.00184041
2.04969e-09
0.00184041
-2.4492e-09
0.00184041
3.58745e-09
0.00184041
-2.81684e-09
0.00184041
2.74052e-09
0.00184041
-1.33878e-09
0.00184041
-1.8327e-09
0.00184041
4.5019e-09
0.00184041
-7.64085e-09
0.00184041
8.68396e-09
0.00184041
-7.05579e-09
0.00184041
1.66981e-09
0.00184041
4.77624e-09
0.00184041
-6.72547e-09
0.00184041
4.10108e-09
0.00184041
1.83843e-09
-2.77283e-09
0.00357162
-2.04692e-05
0.00341991
-0.000469764
0.00343753
0.000175259
0.0038158
0.00106283
0.00395036
-0.000354762
0.00408154
-0.00144963
0.00443294
-0.00360965
0.00479263
-0.00599455
0.00513541
-0.00823707
0.00509368
-0.0105234
0.00459023
-0.0103101
0.00396453
-0.00700458
0.00344961
-0.00251227
0.00307634
0.00133734
0.00280419
0.0036491
0.0025871
0.00413969
0.00240322
0.00336438
0.00224701
0.00219813
0.00211849
0.00123458
0.00201935
0.000629959
0.00194916
0.000304075
0.00190348
0.000141187
0.00187575
6.18561e-05
0.00185975
2.36042e-05
0.00185082
5.83919e-06
0.00184595
-1.50794e-06
0.00184332
-3.70688e-06
0.00184192
-3.62975e-06
0.00184119
-2.78521e-06
0.0018408
-1.87696e-06
0.00184061
-1.15831e-06
0.00184051
-6.70012e-07
0.00184046
-3.68959e-07
0.00184043
-1.94786e-07
0.00184042
-1.00065e-07
0.00184041
-5.07121e-08
0.00184041
-2.58713e-08
0.00184041
-1.34936e-08
0.00184041
-7.03969e-09
0.00184041
-4.33328e-09
0.00184041
-2.7666e-09
0.00184041
-1.33139e-09
0.00184041
-1.57187e-09
0.00184041
-1.1369e-09
0.00184041
-3.9894e-10
0.00184041
-4.64914e-10
0.00184041
-1.84971e-10
0.00184041
-6.60696e-10
0.00184041
-5.47127e-10
0.00184041
3.27333e-10
0.00184041
2.14495e-11
0.00184041
-1.68046e-10
0.00184041
1.74684e-10
0.00184041
-1.80625e-11
0.00184041
-1.32514e-10
0.00184041
2.61222e-11
0.00184041
-9.90265e-12
0.00184041
-2.88281e-12
0.00184041
4.42866e-11
0.00184041
-2.67274e-10
0.00184041
-3.12853e-10
0.00184041
1.50132e-10
0.00184041
2.95847e-10
0.00184041
9.16011e-11
0.00184041
4.52827e-11
0.00184041
1.10511e-10
0.00184041
2.15734e-10
0.00184041
3.57624e-10
0.00184041
2.57227e-10
0.00184041
-1.95948e-11
0.00184041
-1.05237e-10
0.00184041
5.03532e-11
0.00184041
2.09271e-10
0.00184041
2.52019e-10
0.00184041
-7.55685e-11
0.00184041
-3.88348e-10
0.00184041
-4.62416e-10
0.00184041
1.87837e-10
0.00184041
-4.83929e-11
0.00184041
6.00424e-10
0.00184041
-1.00605e-09
0.00184041
8.3717e-10
0.00184041
-2.19896e-09
0.00184041
2.57621e-09
0.00184041
-3.10066e-09
0.00184041
4.44351e-09
0.00184041
-3.661e-09
0.00184041
3.43164e-09
0.00184041
-1.6704e-09
0.00184041
-2.13865e-09
0.00184041
5.64603e-09
0.00184041
-9.60241e-09
0.00184041
1.09547e-08
0.00184041
-8.93313e-09
0.00184041
2.26481e-09
0.00184041
5.88233e-09
0.00184041
-8.57752e-09
0.00184041
5.07495e-09
0.00184041
2.22476e-09
-3.46026e-09
0.00408147
-0.000178984
0.00391422
-0.000302519
0.00391219
0.000177298
0.00434212
0.000632899
0.00443957
-0.000452208
0.0045197
-0.00152976
0.00473404
-0.00382399
0.00495738
-0.00621789
0.00515662
-0.00843631
0.0049124
-0.0102792
0.00427535
-0.00967307
0.0036176
-0.00634684
0.0031291
-0.00202376
0.00280649
0.00165995
0.0025975
0.00385809
0.0024457
0.0042915
0.00231716
0.00349291
0.00219949
0.0023158
0.00209393
0.00134014
0.00200732
0.000716575
0.00194357
0.000367821
0.00190105
0.000183708
0.00187479
8.81121e-05
0.00185945
3.89526e-05
0.00185079
1.44986e-05
0.001846
3.27435e-06
0.0018434
-1.09936e-06
0.00184199
-2.22086e-06
0.00184123
-2.03068e-06
0.00184083
-1.47716e-06
0.00184062
-9.49247e-07
0.00184052
-5.62318e-07
0.00184046
-3.1437e-07
0.00184043
-1.67582e-07
0.00184042
-8.68198e-08
0.00184042
-4.4388e-08
0.00184041
-2.29094e-08
0.00184041
-1.21369e-08
0.00184041
-6.39716e-09
0.00184041
-4.07146e-09
0.00184041
-2.66272e-09
0.00184041
-1.31356e-09
0.00184041
-1.52518e-09
0.00184041
-1.10459e-09
0.00184041
-3.8622e-10
0.00184041
-4.83233e-10
0.00184041
-1.89754e-10
0.00184041
-5.79334e-10
0.00184041
-5.08434e-10
0.00184041
3.45776e-10
0.00184041
9.69296e-12
0.00184041
-2.13999e-10
0.00184041
1.69977e-10
0.00184041
-4.3021e-11
0.00184041
-1.50495e-10
0.00184041
4.71813e-11
0.00184041
-1.36207e-11
0.00184041
-5.4155e-12
0.00184041
5.18561e-11
0.00184041
-2.57652e-10
0.00184041
-2.9079e-10
0.00184041
1.38461e-10
0.00184041
2.62733e-10
0.00184041
9.454e-11
0.00184041
4.73881e-11
0.00184041
9.75991e-11
0.00184041
2.18638e-10
0.00184041
3.48176e-10
0.00184041
2.37303e-10
0.00184041
-6.1087e-12
0.00184041
-9.00138e-11
0.00184041
4.10168e-11
0.00184041
2.04856e-10
0.00184041
2.6156e-10
0.00184041
-8.85713e-11
0.00184041
-3.85485e-10
0.00184041
-4.68112e-10
0.00184041
2.37702e-10
0.00184041
-1.29928e-10
0.00184041
6.77465e-10
0.00184041
-1.16744e-09
0.00184041
1.12467e-09
0.00184041
-2.57419e-09
0.00184041
3.11933e-09
0.00184041
-3.7984e-09
0.00184041
5.28762e-09
0.00184041
-4.55634e-09
0.00184041
4.16315e-09
0.00184041
-2.03949e-09
0.00184041
-2.39515e-09
0.00184041
6.78671e-09
0.00184041
-1.15801e-08
0.00184041
1.3314e-08
0.00184041
-1.09077e-08
0.00184041
2.94561e-09
0.00184041
6.94965e-09
0.00184041
-1.04989e-08
0.00184041
6.08504e-09
0.00184041
2.61516e-09
-4.14023e-09
0.00445464
-0.000352801
0.00432124
-0.00016912
0.00429281
0.000205735
0.00469974
0.000225967
0.00479014
-0.000542614
0.00482797
-0.00156759
0.00491395
-0.00390997
0.00503258
-0.00633651
0.00506364
-0.00846737
0.00461672
-0.00983226
0.00387881
-0.00893516
0.00321783
-0.00568586
0.00276885
-0.00157478
0.00250441
0.00192439
0.00236363
0.00399888
0.00228155
0.00437357
0.00221178
0.00356268
0.00213615
0.00239144
0.00205783
0.00141846
0.00198783
0.000786577
0.00193361
0.000422036
0.00189623
0.000221086
0.0018726
0.000111742
0.00185853
5.30264e-05
0.00185045
2.25733e-05
0.00184592
7.809e-06
0.0018434
1.41672e-06
0.00184202
-8.36282e-07
0.00184126
-1.27522e-06
0.00184085
-1.06948e-06
0.00184064
-7.32352e-07
0.00184052
-4.48801e-07
0.00184047
-2.55989e-07
0.00184044
-1.38164e-07
0.00184042
-7.23626e-08
0.00184041
-3.74377e-08
0.00184041
-1.96236e-08
0.00184041
-1.06226e-08
0.00184041
-5.69901e-09
0.00184041
-3.77945e-09
0.00184041
-2.5543e-09
0.00184041
-1.29639e-09
0.00184041
-1.46909e-09
0.00184041
-1.05587e-09
0.00184041
-3.77289e-10
0.00184041
-5.01954e-10
0.00184041
-1.8457e-10
0.00184041
-4.88072e-10
0.00184041
-4.53749e-10
0.00184041
3.4423e-10
0.00184041
-1.33108e-11
0.00184041
-2.46955e-10
0.00184041
1.55427e-10
0.00184041
-6.1723e-11
0.00184041
-1.55593e-10
0.00184041
6.6278e-11
0.00184041
-1.02079e-11
0.00184041
-1.65953e-11
0.00184041
4.74232e-11
0.00184041
-2.35338e-10
0.00184041
-2.61895e-10
0.00184041
1.25743e-10
0.00184041
2.32301e-10
0.00184041
9.31199e-11
0.00184041
5.33816e-11
0.00184041
9.34801e-11
0.00184041
2.11081e-10
0.00184041
3.26953e-10
0.00184041
2.18184e-10
0.00184041
3.9919e-12
0.00184041
-7.59829e-11
0.00184041
3.80435e-11
0.00184041
1.91203e-10
0.00184041
2.5072e-10
0.00184041
-9.70301e-11
0.00184041
-3.5974e-10
0.00184041
-4.64277e-10
0.00184041
2.84232e-10
0.00184041
-2.16242e-10
0.00184041
7.48621e-10
0.00184041
-1.33453e-09
0.00184041
1.43234e-09
0.00184041
-2.93402e-09
0.00184041
3.67982e-09
0.00184041
-4.53334e-09
0.00184041
6.13768e-09
0.00184041
-5.50295e-09
0.00184041
4.94362e-09
0.00184041
-2.45891e-09
0.00184041
-2.59869e-09
0.00184041
7.91629e-09
0.00184041
-1.35833e-08
0.00184041
1.57772e-08
0.00184041
-1.3004e-08
0.00184041
3.7306e-09
0.00184041
7.97551e-09
0.00184041
-1.24923e-08
0.00184041
7.15398e-09
0.00184041
3.01084e-09
-4.81826e-09
0.00472514
-0.000509501
0.00462939
-7.33737e-05
0.0045892
0.000245928
0.00494006
-0.000124888
0.00502062
-0.000623177
0.00502033
-0.00156729
0.00500228
-0.00389193
0.00501716
-0.00635139
0.00484796
-0.00829817
0.004216
-0.0092003
0.00341955
-0.0081387
0.00278078
-0.00504709
0.00237812
-0.00117212
0.00217674
0.00212577
0.00210887
0.00406675
0.00209914
0.00438329
0.0020908
0.00357102
0.00206055
0.00242169
0.00201283
0.00146619
0.00196225
0.000837154
0.00191977
0.000464516
0.00188913
0.000251729
0.00186916
0.000131712
0.00185696
6.52207e-05
0.0018498
2.97383e-05
0.00184568
1.19315e-05
0.00184333
3.76139e-06
0.00184201
4.85859e-07
0.00184127
-5.36949e-07
0.00184086
-6.62588e-07
0.00184064
-5.11846e-07
0.00184053
-3.31555e-07
0.00184046
-1.9488e-07
0.00184043
-1.07063e-07
0.00184042
-5.69584e-08
0.00184041
-2.99854e-08
0.00184041
-1.60775e-08
0.00184041
-8.97958e-09
0.00184041
-4.96108e-09
0.0018404
-3.46872e-09
0.0018404
-2.43784e-09
0.0018404
-1.27418e-09
0.0018404
-1.40604e-09
0.0018404
-1.0008e-09
0.0018404
-3.73494e-10
0.0018404
-5.1424e-10
0.0018404
-1.68924e-10
0.0018404
-3.94813e-10
0.0018404
-3.91897e-10
0.0018404
3.27877e-10
0.0018404
-4.41829e-11
0.0018404
-2.69353e-10
0.0018404
1.3534e-10
0.0018404
-7.49255e-11
0.0018404
-1.49762e-10
0.0018404
8.19558e-11
0.0018404
-4.85727e-12
0.0018404
-2.97733e-11
0.0018404
3.75682e-11
0.0018404
-2.0768e-10
0.0018404
-2.30657e-10
0.0018404
1.12735e-10
0.0018404
2.0524e-10
0.0018404
8.97956e-11
0.0018404
5.956e-11
0.0018404
9.30376e-11
0.0018404
1.98695e-10
0.0018404
3.00569e-10
0.0018404
1.99165e-10
0.0018404
9.96611e-12
0.0018404
-6.41924e-11
0.0018404
3.93622e-11
0.0018404
1.7426e-10
0.0018404
2.28124e-10
0.0018404
-1.05135e-10
0.0018404
-3.20912e-10
0.0018404
-4.53791e-10
0.0018404
3.28589e-10
0.0018404
-3.0522e-10
0.0018404
8.20937e-10
0.0018404
-1.50479e-09
0.0018404
1.75152e-09
0.0018404
-3.2926e-09
0.0018404
4.25862e-09
0.0018404
-5.29905e-09
0.0018404
7.00708e-09
0.0018404
-6.50345e-09
0.0018404
5.78209e-09
0.0018404
-2.93946e-09
0.0018404
-2.74428e-09
0.0018404
9.02804e-09
0.00184041
-1.56202e-08
0.0018404
1.83583e-08
0.00184041
-1.52464e-08
0.0018404
4.6392e-09
0.0018404
8.95626e-09
0.00184041
-1.45613e-08
0.0018404
8.2996e-09
0.0018404
3.41153e-09
-5.49822e-09
0.00490053
-0.000633003
0.0048353
-8.1446e-06
0.00479918
0.000282048
0.00507702
-0.000402724
0.0051444
-0.000690558
0.00510827
-0.00153116
0.00500566
-0.00378932
0.00490558
-0.00625131
0.0045182
-0.00791079
0.0037285
-0.0084106
0.00291557
-0.00732578
0.00232099
-0.00445251
0.00196842
-0.00081955
0.00183129
0.0022629
0.00183921
0.00405883
0.00190374
0.00431877