/*--------------------------------*- C++ -*----------------------------------*\
| =========                 |                                                 |
| \\      /  F ield         | OpenFOAM: The Open Source CFD Toolbox           |
|  \\    /   O peration     | Version:  2.4.0                                 |
|   \\  /    A nd           | Web:      www.OpenFOAM.org                      |
|    \\/     M anipulation  |                                                 |
\*---------------------------------------------------------------------------*/
FoamFile
{
    version     2.0;
    format      ascii;
    class       volScalarField;
    location    "0.52";
    object      p;
}
// * * * * * * * * * * * * * * * * * * * * * * * * * * * * * * * * * * * * * //

dimensions      [0 2 -2 0 0 0 0];

internalField   nonuniform List<scalar> 
4400
(
-17.7534
-17.9542
-17.9144
-18.1834
-18.3151
-18.3499
-18.4261
-18.5436
-18.6765
-18.2676
-18.8638
-18.9418
-20.0923
-18.789
-19.619
-20.1234
-16.4104
-25.7408
-17.4025
-13.1195
-17.8263
-17.9572
-17.9261
-18.1802
-18.327
-18.3367
-18.4379
-18.5551
-18.7251
-18.365
-18.9471
-18.9933
-20.2201
-18.7102
-19.4671
-21.0894
-17.5163
-25.4921
-18.1365
-14.478
-17.8454
-17.9682
-17.8986
-18.1808
-18.323
-18.3408
-18.4564
-18.5886
-18.9078
-18.5673
-19.2976
-19.2203
-19.9743
-18.9257
-20.2421
-22.3615
-17.8815
-25.1573
-18.7893
-15.9103
-17.9044
-17.9551
-17.9242
-18.1627
-18.3279
-18.3362
-18.4763
-18.6358
-19.0591
-18.7536
-19.5001
-19.1941
-19.6983
-19.5305
-21.0218
-22.378
-17.4756
-23.8209
-19.18
-16.8676
-17.91
-17.977
-17.898
-18.1687
-18.3325
-18.3453
-18.4982
-18.6548
-19.1473
-18.7505
-19.519
-19.1424
-19.5277
-20.1493
-20.8662
-21.9662
-17.5493
-23.3656
-19.3755
-17.6732
-17.9569
-17.954
-17.9237
-18.1498
-18.3345
-18.3467
-18.5098
-18.6565
-19.1458
-18.6795
-19.4314
-19.1393
-19.5751
-20.2957
-20.3855
-21.483
-18.0582
-22.89
-19.6394
-18.1144
-17.953
-17.9733
-17.9094
-18.1512
-18.3423
-18.3421
-18.5182
-18.6516
-19.1134
-18.6061
-19.3431
-19.1767
-19.5273
-20.2653
-19.8536
-21.1986
-18.6219
-22.3856
-20.089
-18.545
-17.9858
-17.9547
-17.9254
-18.1414
-18.3421
-18.3491
-18.523
-18.6434
-19.0759
-18.557
-19.2581
-19.222
-19.4622
-20.1231
-19.5266
-21.0161
-18.8711
-21.9932
-20.3591
-18.9637
-17.9816
-17.9613
-17.9232
-18.1359
-18.3522
-18.3419
-18.5241
-18.6398
-19.0358
-18.5263
-19.1903
-19.2569
-19.4044
-19.9951
-19.3266
-20.8568
-19.1295
-21.4686
-20.7967
-19.3042
-17.9972
-17.9524
-17.9273
-18.1347
-18.3455
-18.3473
-18.5233
-18.6349
-19.0031
-18.5178
-19.1241
-19.3086
-19.3416
-19.9123
-19.2086
-20.705
-19.3482
-21.1024
-21.0276
-19.6891
-17.9961
-17.947
-17.9328
-18.1276
-18.3658
-18.3436
-18.5173
-18.6398
-18.9694
-18.5258
-19.0737
-19.3173
-19.2829
-19.8464
-19.132
-20.534
-19.57
-20.7886
-21.1772
-19.9538
-17.9961
-17.9434
-17.9302
-18.1335
-18.3508
-18.3453
-18.5134
-18.6411
-18.9463
-18.5446
-19.02
-19.3571
-19.234
-19.778
-19.1031
-20.3846
-19.7667
-20.5214
-21.2877
-20.2095
-17.9938
-17.9333
-17.9356
-18.1261
-18.3617
-18.3473
-18.5029
-18.6538
-18.9186
-18.5683
-18.9771
-19.3874
-19.1829
-19.7266
-19.099
-20.2316
-19.9579
-20.3181
-21.3256
-20.4867
-17.9847
-17.9294
-17.9329
-18.1357
-18.3564
-18.3473
-18.4967
-18.6586
-18.9001
-18.5978
-18.93
-19.4179
-19.146
-19.6664
-19.1174
-20.1072
-20.0921
-20.1602
-21.3537
-20.6193
-17.9751
-17.9191
-17.9359
-18.1306
-18.359
-18.35
-18.486
-18.6759
-18.8798
-18.6247
-18.8928
-19.4414
-19.1051
-19.6202
-19.1493
-19.975
-20.2373
-20.0399
-21.3207
-20.9095
-17.959
-17.913
-17.9353
-18.142
-18.355
-18.3511
-18.48
-18.681
-18.8647
-18.6538
-18.8521
-19.4613
-19.0757
-19.57
-19.187
-19.8755
-20.3175
-19.9426
-21.3113
-20.9729
-17.94
-17.9037
-17.9377
-18.1378
-18.3565
-18.3531
-18.4715
-18.6964
-18.8517
-18.6757
-18.8298
-19.4728
-19.0463
-19.536
-19.2275
-19.7728
-20.4092
-19.8855
-21.2585
-21.2175
-17.9156
-17.896
-17.9375
-18.142
-18.3519
-18.3527
-18.467
-18.6996
-18.8414
-18.6963
-18.8011
-19.4812
-19.0268
-19.5065
-19.2602
-19.702
-20.4586
-19.8276
-21.238
-21.2607
-17.8895
-17.893
-17.9427
-18.1447
-18.3513
-18.3558
-18.4629
-18.7123
-18.8354
-18.7095
-18.7887
-19.4877
-19.0094
-19.4882
-19.2906
-19.6347
-20.5105
-19.8035
-21.1879
-21.4107
-17.8402
-17.884
-17.9435
-18.145
-18.3485
-18.3545
-18.4625
-18.7089
-18.8305
-18.7177
-18.7823
-19.4867
-19.0061
-19.4792
-19.2991
-19.6123
-20.5281
-19.785
-21.1702
-21.4212
-23.9184
-33.6058
-30.4914
-37.7261
-38.4203
-28.6615
-17.2758
-8.12669
-2.73518
0.0495145
1.43899
2.09588
2.38233
2.49576
2.53605
2.54425
2.53704
2.52236
2.50395
2.48353
2.46192
2.43956
2.4167
2.39347
2.36996
2.34622
2.32226
2.29811
2.27375
2.2492
2.22447
2.19955
2.17445
2.14917
2.12371
2.09807
2.07224
2.04622
2.02002
1.99364
1.96707
1.94031
1.91338
1.88625
1.85894
1.83145
1.80376
1.77587
1.74779
1.71952
1.69104
1.66236
1.63349
1.6044
1.57511
1.54562
1.51592
1.486
1.45588
1.42555
1.395
1.36424
1.33326
1.30207
1.27065
1.23902
1.20716
1.17507
1.14277
1.11023
1.07746
1.04447
1.01124
0.977779
0.944082
0.910148
0.875975
0.841562
0.806907
0.772009
0.736864
0.701473
0.665833
0.629942
0.593798
0.557401
0.520747
0.483837
0.446665
0.409235
0.371537
0.333579
0.295352
0.256853
0.218095
0.179044
0.139737
0.100153
0.0602646
0.0201314
-24.9077
-32.6853
-30.1629
-36.0871
-36.2434
-27.1639
-16.6543
-8.19424
-3.02962
-0.227134
1.23026
1.95269
2.28698
2.4312
2.49203
2.5144
2.51698
2.509
2.49511
2.47771
2.45809
2.43706
2.41507
2.39241
2.36927
2.34577
2.32198
2.29792
2.27363
2.24913
2.22442
2.19952
2.17443
2.14916
2.1237
2.09806
2.07223
2.04622
2.02002
1.99363
1.96707
1.94031
1.91338
1.88625
1.85894
1.83145
1.80376
1.77587
1.74779
1.71952
1.69104
1.66237
1.63349
1.6044
1.57511
1.54562
1.51591
1.486
1.45588
1.42555
1.395
1.36424
1.33326
1.30207
1.27065
1.23902
1.20716
1.17507
1.14277
1.11023
1.07746
1.04447
1.01124
0.977779
0.944082
0.910148
0.875975
0.841562
0.806908
0.772008
0.736865
0.701473
0.665833
0.629942
0.593798
0.557401
0.520748
0.483837
0.446664
0.409236
0.371537
0.333579
0.295353
0.256852
0.218095
0.179045
0.139737
0.100153
0.0602647
0.0201315
-25.1168
-31.6729
-29.7958
-34.6345
-34.5394
-25.9815
-16.2224
-8.18993
-3.25785
-0.492472
1.03693
1.81873
2.19248
2.36587
2.44794
2.48486
2.49722
2.49583
2.48638
2.47195
2.45431
2.43458
2.41345
2.39136
2.36859
2.34533
2.32169
2.29774
2.27352
2.24905
2.22437
2.19949
2.17441
2.14915
2.1237
2.09806
2.07223
2.04622
2.02002
1.99363
1.96707
1.94031
1.91338
1.88625
1.85894
1.83145
1.80376
1.77587
1.74779
1.71952
1.69104
1.66236
1.63348
1.6044
1.57511
1.54562
1.51591
1.486
1.45588
1.42555
1.395
1.36424
1.33326
1.30207
1.27065
1.23902
1.20716
1.17507
1.14277
1.11023
1.07746
1.04447
1.01124
0.977779
0.944082
0.910148
0.875975
0.841562
0.806908
0.772008
0.736865
0.701472
0.665833
0.629942
0.593798
0.557401
0.520748
0.483837
0.446664
0.409236
0.371537
0.333579
0.295353
0.256852
0.218095
0.179045
0.139737
0.100153
0.0602647
0.0201315
-25.0628
-29.9894
-29.1075
-33.1025
-32.5809
-24.7896
-15.8443
-8.23888
-3.4135
-0.727231
0.834989
1.68932
2.10582
2.30374
2.40444
2.45537
2.47753
2.48278
2.47777
2.46628
2.45059
2.43214
2.41186
2.39033
2.36792
2.3449
2.32141
2.29756
2.2734
2.24898
2.22432
2.19946
2.17439
2.14914
2.12369
2.09805
2.07223
2.04622
2.02002
1.99363
1.96707
1.94031
1.91338
1.88625
1.85895
1.83145
1.80376
1.77587
1.74779
1.71952
1.69104
1.66236
1.63348
1.6044
1.57511
1.54562
1.51591
1.486
1.45588
1.42555
1.395
1.36424
1.33326
1.30207
1.27065
1.23902
1.20716
1.17507
1.14277
1.11023
1.07746
1.04447
1.01124
0.977779
0.944082
0.910148
0.875975
0.841562
0.806908
0.772008
0.736864
0.701472
0.665833
0.629942
0.593798
0.557401
0.520748
0.483837
0.446664
0.409236
0.371537
0.333579
0.295353
0.256852
0.218095
0.179045
0.139737
0.100153
0.0602647
0.0201315
-24.0791
-27.6339
-28.2332
-32.2098
-31.3666
-23.9646
-15.5263
-8.29842
-3.5883
-0.891958
0.657361
1.55085
2.0149
2.24397
2.36387
2.42762
2.4587
2.47015
2.46938
2.46075
2.44695
2.42976
2.4103
2.38931
2.36727
2.34448
2.32114
2.29738
2.27329
2.2489
2.22428
2.19943
2.17437
2.14912
2.12368
2.09805
2.07222
2.04621
2.02002
1.99363
1.96707
1.94031
1.91338
1.88625
1.85895
1.83145
1.80376
1.77587
1.74779
1.71952
1.69104
1.66236
1.63348
1.6044
1.57511
1.54562
1.51591
1.486
1.45588
1.42555
1.395
1.36424
1.33326
1.30207
1.27065
1.23902
1.20716
1.17507
1.14277
1.11023
1.07746
1.04447
1.01124
0.977779
0.944082
0.910148
0.875975
0.841562
0.806907
0.772008
0.736864
0.701472
0.665833
0.629942
0.593798
0.557401
0.520748
0.483837
0.446664
0.409236
0.371537
0.333579
0.295352
0.256852
0.218095
0.179045
0.139737
0.100153
0.0602647
0.0201315
-23.7675
-27.208
-27.3947
-30.5939
-29.8729
-23.3326
-15.2712
-8.27637
-3.81655
-1.10023
0.523393
1.44227
1.92339
2.17743
2.31981
2.39894
2.43991
2.45777
2.46122
2.45537
2.44342
2.42745
2.40879
2.38833
2.36663
2.34406
2.32087
2.29721
2.27318
2.24883
2.22423
2.1994
2.17436
2.14911
2.12367
2.09804
2.07222
2.04621
2.02001
1.99363
1.96707
1.94031
1.91338
1.88625
1.85895
1.83145
1.80376
1.77587
1.74779
1.71952
1.69104
1.66236
1.63348
1.6044
1.57511
1.54562
1.51591
1.486
1.45588
1.42555
1.395
1.36424
1.33326
1.30207
1.27065
1.23902
1.20716
1.17507
1.14277
1.11023
1.07746
1.04447
1.01124
0.977779
0.944082
0.910148
0.875975
0.841562
0.806907
0.772008
0.736864
0.701472
0.665833
0.629942
0.593798
0.557401
0.520748
0.483837
0.446664
0.409235
0.371537
0.333579
0.295352
0.256852
0.218095
0.179045
0.139737
0.100153
0.0602647
0.0201315
-23.5852
-26.5496
-26.5609
-29.2187
-28.848
-22.7148
-15.0475
-8.33745
-3.98712
-1.35582
0.336301
1.35065
1.86705
2.13098
2.2837
2.37304
2.42213
2.44588
2.45336
2.45019
2.44002
2.42522
2.40734
2.38739
2.36602
2.34367
2.32062
2.29705
2.27307
2.24877
2.22419
2.19937
2.17434
2.1491
2.12367
2.09804
2.07222
2.04621
2.02001
1.99363
1.96706
1.94031
1.91338
1.88626
1.85895
1.83145
1.80376
1.77587
1.74779
1.71952
1.69104
1.66236
1.63348
1.6044
1.57511
1.54562
1.51591
1.486
1.45588
1.42555
1.395
1.36424
1.33326
1.30207
1.27065
1.23902
1.20716
1.17507
1.14277
1.11023
1.07746
1.04447
1.01124
0.977779
0.944082
0.910148
0.875975
0.841562
0.806907
0.772008
0.736864
0.701472
0.665833
0.629942
0.593798
0.557401
0.520748
0.483837
0.446664
0.409235
0.371537
0.333579
0.295352
0.256852
0.218095
0.179045
0.139737
0.100153
0.0602647
0.0201315
-23.479
-26.0044
-25.884
-28.1466
-27.6486
-21.836
-14.5984
-8.43031
-4.22906
-1.56479
0.140317
1.18613
1.75593
2.06382
2.24301
2.34722
2.40508
2.43452
2.44583
2.44522
2.43675
2.42308
2.40594
2.38648
2.36543
2.34329
2.32037
2.29689
2.27297
2.2487
2.22415
2.19935
2.17432
2.14909
2.12366
2.09803
2.07222
2.04621
2.02001
1.99363
1.96706
1.94031
1.91338
1.88626
1.85895
1.83145
1.80376
1.77587
1.74779
1.71952
1.69104
1.66236
1.63348
1.6044
1.57511
1.54562
1.51591
1.486
1.45588
1.42555
1.395
1.36424
1.33326
1.30207
1.27065
1.23902
1.20716
1.17507
1.14277
1.11023
1.07746
1.04447
1.01124
0.977779
0.944082
0.910148
0.875975
0.841562
0.806907
0.772008
0.736864
0.701472
0.665833
0.629942
0.593798
0.557401
0.520748
0.483837
0.446664
0.409235
0.371537
0.333579
0.295352
0.256852
0.218095
0.179044
0.139737
0.100153
0.0602647
0.0201315
-23.2537
-25.7476
-25.4494
-27.2504
-26.7514
-21.3133
-14.3007
-8.30204
-4.45602
-1.84703
0.0360714
1.17183
1.71903
2.01842
2.20635
2.32214
2.38861
2.42374
2.43873
2.44054
2.43367
2.42106
2.40462
2.38562
2.36487
2.34293
2.32014
2.29674
2.27287
2.24864
2.22411
2.19932
2.17431
2.14908
2.12365
2.09803
2.07221
2.04621
2.02001
1.99363
1.96706
1.94031
1.91338
1.88626
1.85895
1.83145
1.80376
1.77587
1.74779
1.71952
1.69104
1.66236
1.63348
1.6044
1.57511
1.54562
1.51591
1.486
1.45588
1.42555
1.395
1.36424
1.33326
1.30207
1.27065
1.23902
1.20716
1.17507
1.14277
1.11023
1.07746
1.04447
1.01124
0.977779
0.944082
0.910148
0.875975
0.841562
0.806907
0.772008
0.736864
0.701472
0.665833
0.629942
0.593798
0.557401
0.520748
0.483837
0.446664
0.409235
0.371537
0.333579
0.295352
0.256852
0.218095
0.179044
0.139737
0.100153
0.0602647
0.0201315
-23.1107
-25.3192
-24.8852
-26.2654
-25.7629
-20.9008
-14.2957
-8.30689
-4.47249
-2.03683
-0.279373
0.97059
1.62369
1.97046
2.17505
2.30025
2.37339
2.41348
2.43196
2.4361
2.43076
2.41916
2.40338
2.38481
2.36435
2.34259
2.31992
2.2966
2.27278
2.24858
2.22407
2.1993
2.17429
2.14907
2.12365
2.09803
2.07221
2.0462
2.02001
1.99363
1.96706
1.94031
1.91338
1.88626
1.85895
1.83145
1.80376
1.77587
1.74779
1.71952
1.69104
1.66236
1.63348
1.6044
1.57511
1.54562
1.51591
1.486
1.45588
1.42555
1.395
1.36424
1.33326
1.30207
1.27065
1.23902
1.20716
1.17507
1.14277
1.11023
1.07746
1.04447
1.01124
0.977779
0.944082
0.910148
0.875975
0.841562
0.806907
0.772008
0.736864
0.701472
0.665833
0.629941
0.593798
0.557401
0.520747
0.483837
0.446665
0.409235
0.371537
0.333579
0.295352
0.256852
0.218095
0.179044
0.139737
0.100153
0.0602647
0.0201315
-22.8915
-25.0483
-24.4443
-25.4637
-25.0454
-20.2724
-13.905
-8.41526
-4.70695
-2.00662
-0.173649
0.943636
1.53426
1.90262
2.13788
2.27804
2.35937
2.40425
2.42583
2.43203
2.42807
2.41739
2.40223
2.38406
2.36386
2.34227
2.31972
2.29646
2.2727
2.24853
2.22404
2.19927
2.17428
2.14906
2.12364
2.09802
2.07221
2.0462
2.02001
1.99363
1.96706
1.94031
1.91338
1.88626
1.85895
1.83145
1.80376
1.77587
1.74779
1.71952
1.69104
1.66236
1.63348
1.6044
1.57511
1.54562
1.51591
1.486
1.45588
1.42555
1.395
1.36424
1.33326
1.30207
1.27065
1.23902
1.20716
1.17507
1.14277
1.11023
1.07746
1.04447
1.01124
0.977779
0.944082
0.910148
0.875975
0.841562
0.806907
0.772008
0.736864
0.701472
0.665833
0.629941
0.593798
0.557401
0.520747
0.483837
0.446665
0.409235
0.371537
0.333579
0.295352
0.256852
0.218095
0.179044
0.139737
0.100153
0.0602648
0.0201315
-22.6566
-24.8088
-24.1384
-24.699
-24.2308
-19.8461
-13.6117
-8.30186
-4.89153
-2.49127
-0.420245
0.93105
1.54176
1.87712
2.11192
2.25845
2.34578
2.39531
2.42
2.42822
2.42558
2.41576
2.40117
2.38337
2.36342
2.34198
2.31953
2.29634
2.27262
2.24848
2.224
2.19925
2.17426
2.14905
2.12364
2.09802
2.07221
2.0462
2.02001
1.99363
1.96706
1.94031
1.91338
1.88626
1.85895
1.83145
1.80376
1.77587
1.74779
1.71952
1.69104
1.66236
1.63348
1.6044
1.57511
1.54562
1.51591
1.486
1.45588
1.42555
1.395
1.36424
1.33326
1.30207
1.27065
1.23902
1.20716
1.17507
1.14277
1.11023
1.07746
1.04447
1.01124
0.977779
0.944082
0.910148
0.875975
0.841562
0.806907
0.772008
0.736864
0.701472
0.665833
0.629941
0.593798
0.557401
0.520747
0.483837
0.446665
0.409235
0.371537
0.333579
0.295352
0.256852
0.218095
0.179044
0.139737
0.100153
0.0602648
0.0201315
-22.4847
-24.5583
-23.8653
-24.1414
-23.6142
-19.4532
-13.6461
-8.44897
-4.95836
-2.50381
-0.628476
0.596709
1.37036
1.8192
2.08283
2.24118
2.33447
2.38771
2.41492
2.42484
2.42335
2.4143
2.40021
2.38275
2.36301
2.34172
2.31936
2.29624
2.27255
2.24843
2.22398
2.19924
2.17425
2.14905
2.12363
2.09802
2.0722
2.0462
2.02001
1.99363
1.96706
1.94031
1.91338
1.88626
1.85895
1.83145
1.80376
1.77587
1.74779
1.71952
1.69104
1.66236
1.63348
1.6044
1.57511
1.54562
1.51591
1.486
1.45588
1.42555
1.395
1.36424
1.33326
1.30207
1.27065
1.23902
1.20716
1.17507
1.14277
1.11023
1.07746
1.04447
1.01124
0.977779
0.944082
0.910148
0.875975
0.841562
0.806907
0.772008
0.736864
0.701472
0.665833
0.629941
0.593798
0.557401
0.520747
0.483837
0.446665
0.409235
0.371537
0.333579
0.295352
0.256852
0.218095
0.179044
0.139737
0.100153
0.0602648
0.0201315
-22.2844
-24.356
-23.6751
-23.4738
-23.0224
-19.0622
-13.3108
-8.40581
-5.12066
-2.59327
-0.496569
0.759995
1.39658
1.79289
2.05991
2.22461
2.32347
2.38055
2.41026
2.42179
2.42135
2.41299
2.39935
2.38219
2.36265
2.34149
2.31921
2.29614
2.27249
2.24839
2.22395
2.19922
2.17424
2.14904
2.12363
2.09801
2.0722
2.0462
2.02001
1.99363
1.96706
1.94031
1.91338
1.88626
1.85895
1.83145
1.80376
1.77587
1.74779
1.71952
1.69104
1.66236
1.63348
1.6044
1.57511
1.54562
1.51591
1.486
1.45588
1.42555
1.395
1.36424
1.33326
1.30207
1.27065
1.23902
1.20716
1.17507
1.14277
1.11023
1.07746
1.04447
1.01124
0.977779
0.944082
0.910148
0.875975
0.841562
0.806907
0.772008
0.736864
0.701472
0.665833
0.629941
0.593798
0.557401
0.520747
0.483837
0.446665
0.409235
0.371537
0.333579
0.295352
0.256852
0.218095
0.179044
0.139737
0.100153
0.0602649
0.0201316
-22.1431
-24.1554
-23.5164
-23.1332
-22.461
-18.6822
-13.1666
-8.44764
-5.21204
-2.76208
-0.894008
0.433699
1.26969
1.74897
2.03722
2.21077
2.31447
2.37458
2.4063
2.41917
2.41962
2.41185
2.39861
2.38171
2.36234
2.34129
2.31908
2.29605
2.27243
2.24836
2.22393
2.19921
2.17423
2.14904
2.12362
2.09801
2.0722
2.0462
2.02001
1.99363
1.96706
1.94031
1.91338
1.88626
1.85895
1.83145
1.80376
1.77587
1.74779
1.71952
1.69104
1.66236
1.63348
1.6044
1.57511
1.54562
1.51591
1.486
1.45588
1.42555
1.395
1.36424
1.33326
1.30207
1.27065
1.23902
1.20716
1.17507
1.14277
1.11023
1.07746
1.04447
1.01124
0.977779
0.944082
0.910148
0.875975
0.841562
0.806907
0.772008
0.736864
0.701472
0.665833
0.629941
0.593798
0.557401
0.520747
0.483837
0.446665
0.409235
0.371537
0.333579
0.295352
0.256852
0.218095
0.179044
0.139737
0.100153
0.0602649
0.0201316
-21.9943
-24.0007
-23.3968
-22.7313
-22.1193
-18.3713
-12.9902
-8.56988
-5.44596
-2.86416
-0.723415
0.586705
1.29247
1.73245
2.02126
2.19938
2.30676
2.36946
2.40292
2.41695
2.41816
2.41089
2.39799
2.3813
2.36207
2.34112
2.31897
2.29598
2.27239
2.24833
2.22391
2.19919
2.17423
2.14903
2.12362
2.09801
2.0722
2.0462
2.02001
1.99363
1.96706
1.94031
1.91338
1.88626
1.85895
1.83145
1.80376
1.77587
1.74779
1.71952
1.69104
1.66236
1.63348
1.6044
1.57511
1.54562
1.51591
1.486
1.45588
1.42555
1.395
1.36424
1.33326
1.30207
1.27065
1.23902
1.20716
1.17507
1.14277
1.11023
1.07746
1.04447
1.01124
0.977779
0.944082
0.910148
0.875975
0.841562
0.806907
0.772008
0.736864
0.701472
0.665833
0.629941
0.593798
0.557401
0.520747
0.483837
0.446665
0.409235
0.371537
0.333579
0.295352
0.256852
0.218095
0.179044
0.139737
0.100153
0.060265
0.0201316
-21.8945
-23.8212
-23.3291
-22.4898
-21.6234
-18.0524
-12.8576
-8.50681
-5.47356
-3.00509
-1.04975
0.326374
1.18733
1.69579
2.00459
2.18948
2.30047
2.36535
2.40021
2.41516
2.41698
2.41012
2.39748
2.38097
2.36186
2.34098
2.31888
2.29593
2.27235
2.24831
2.2239
2.19919
2.17422
2.14903
2.12362
2.09801
2.0722
2.0462
2.02
1.99363
1.96706
1.94031
1.91338
1.88626
1.85895
1.83145
1.80376
1.77587
1.74779
1.71952
1.69104
1.66236
1.63348
1.6044
1.57511
1.54562
1.51591
1.486
1.45588
1.42555
1.395
1.36424
1.33326
1.30207
1.27065
1.23902
1.20716
1.17507
1.14277
1.11023
1.07746
1.04447
1.01124
0.977779
0.944082
0.910148
0.875975
0.841562
0.806907
0.772008
0.736864
0.701472
0.665833
0.629941
0.593798
0.557401
0.520747
0.483837
0.446665
0.409235
0.371537
0.333579
0.295352
0.256852
0.218095
0.179044
0.139737
0.100153
0.0602651
0.0201316
-21.7812
-23.7154
-23.2782
-22.2775
-21.4672
-17.7661
-12.6804
-8.63058
-5.70255
-3.11467
-0.946525
0.431785
1.21303
1.69018
1.99609
2.18278
2.29591
2.36227
2.39817
2.4138
2.41608
2.40953
2.3971
2.38072
2.3617
2.34087
2.31881
2.29588
2.27232
2.24829
2.22388
2.19918
2.17422
2.14902
2.12362
2.09801
2.0722
2.0462
2.02
1.99363
1.96706
1.94031
1.91338
1.88626
1.85895
1.83145
1.80376
1.77587
1.74779
1.71952
1.69104
1.66236
1.63348
1.6044
1.57511
1.54562
1.51591
1.486
1.45588
1.42555
1.395
1.36424
1.33326
1.30207
1.27065
1.23902
1.20716
1.17507
1.14277
1.11023
1.07746
1.04447
1.01124
0.977779
0.944082
0.910148
0.875975
0.841562
0.806907
0.772008
0.736864
0.701472
0.665832
0.629941
0.593798
0.557401
0.520747
0.483837
0.446665
0.409235
0.371537
0.333579
0.295352
0.256852
0.218095
0.179044
0.139737
0.100153
0.0602651
0.0201316
-21.7209
-23.5838
-23.2726
-22.1745
-21.0809
-17.495
-12.5621
-8.65186
-5.77116
-3.21609
-1.1193
0.310498
1.16394
1.67279
1.98449
2.17813
2.29292
2.36029
2.39684
2.41292
2.4155
2.40915
2.39685
2.38056
2.36159
2.34081
2.31877
2.29585
2.2723
2.24828
2.22388
2.19917
2.17421
2.14902
2.12362
2.09801
2.0722
2.04619
2.02
1.99363
1.96706
1.94031
1.91338
1.88626
1.85895
1.83145
1.80376
1.77587
1.74779
1.71952
1.69104
1.66236
1.63348
1.6044
1.57511
1.54562
1.51591
1.486
1.45588
1.42555
1.395
1.36424
1.33326
1.30207
1.27065
1.23902
1.20716
1.17507
1.14277
1.11023
1.07746
1.04447
1.01124
0.977779
0.944082
0.910148
0.875975
0.841562
0.806907
0.772008
0.736864
0.701472
0.665832
0.629941
0.593798
0.557401
0.520747
0.483837
0.446665
0.409235
0.371537
0.333579
0.295352
0.256852
0.218095
0.179044
0.139737
0.100153
0.0602652
0.0201316
-21.679
-23.5247
-23.2687
-22.1114
-21.013
-17.3343
-12.4228
-8.65201
-5.84405
-3.26848
-1.09591
0.336195
1.17133
1.67219
1.98243
2.17608
2.29147
2.35928
2.39615
2.41246
2.41519
2.40894
2.39671
2.38047
2.36154
2.34077
2.31875
2.29584
2.27229
2.24827
2.22387
2.19917
2.17421
2.14902
2.12362
2.09801
2.0722
2.04619
2.02
1.99363
1.96706
1.94031
1.91338
1.88626
1.85895
1.83145
1.80376
1.77587
1.74779
1.71952
1.69104
1.66236
1.63348
1.6044
1.57511
1.54562
1.51591
1.486
1.45588
1.42555
1.395
1.36424
1.33326
1.30207
1.27065
1.23902
1.20716
1.17507
1.14277
1.11023
1.07746
1.04447
1.01124
0.977779
0.944082
0.910148
0.875975
0.841562
0.806907
0.772008
0.736864
0.701472
0.665832
0.629941
0.593798
0.557401
0.520747
0.483837
0.446665
0.409235
0.371537
0.333579
0.295352
0.256852
0.218095
0.179045
0.139737
0.100153
0.0602653
0.0201316
-24.6702
-27.6687
-35.1068
-39.5342
-35.2084
-22.2435
-10.1876
-1.60042
2.30286
3.95543
4.25501
4.05676
3.72442
3.40772
3.15167
2.95643
2.81116
2.70377
2.62351
2.56204
2.51331
2.47311
2.43854
2.40766
2.37916
2.35215
2.32607
2.30054
2.2753
2.25019
2.22509
2.19994
2.1747
2.14932
2.1238
2.09812
2.07227
2.04624
2.02004
1.99365
1.96708
1.94032
1.91339
1.88626
1.85895
1.83145
1.80376
1.77587
1.74779
1.71952
1.69104
1.66236
1.63348
1.6044
1.57511
1.54562
1.51592
1.486
1.45588
1.42555
1.395
1.36424
1.33326
1.30207
1.27065
1.23902
1.20716
1.17507
1.14276
1.11023
1.07746
1.04447
1.01124
0.977779
0.944082
0.910148
0.875975
0.841562
0.806907
0.772008
0.736864
0.701473
0.665832
0.629942
0.593798
0.557401
0.520747
0.483837
0.446665
0.409234
0.371538
0.333579
0.295351
0.256853
0.218095
0.179044
0.139737
0.100153
0.0602652
0.0201316
-24.2503
-28.0289
-35.3139
-40.0209
-35.6515
-22.6145
-10.2918
-1.66186
2.26519
3.93176
4.23872
4.04487
3.71567
3.4014
3.1472
2.95336
2.80911
2.70242
2.62264
2.56147
2.51294
2.47287
2.43839
2.40756
2.37908
2.35211
2.32605
2.30053
2.27529
2.25018
2.22509
2.19994
2.17469
2.14932
2.1238
2.09812
2.07227
2.04624
2.02003
1.99365
1.96708
1.94032
1.91339
1.88626
1.85895
1.83145
1.80376
1.77587
1.74779
1.71952
1.69104
1.66236
1.63348
1.6044
1.57511
1.54562
1.51592
1.486
1.45588
1.42555
1.395
1.36424
1.33326
1.30207
1.27065
1.23902
1.20716
1.17507
1.14276
1.11023
1.07746
1.04447
1.01124
0.977779
0.944082
0.910148
0.875975
0.841562
0.806907
0.772008
0.736864
0.701473
0.665832
0.629942
0.593798
0.557401
0.520747
0.483837
0.446665
0.409234
0.371537
0.333579
0.295351
0.256853
0.218095
0.179044
0.139737
0.100153
0.0602651
0.0201316
-25.1997
-28.2589
-35.9787
-40.8131
-36.5011
-23.3039
-10.5393
-1.79162
2.19084
3.88259
4.205
4.02084
3.69859
3.38942
3.13894
2.94779
2.80544
2.70003
2.62109
2.56048
2.5123
2.47246
2.43812
2.40739
2.37898
2.35204
2.32601
2.3005
2.27528
2.25017
2.22508
2.19993
2.17469
2.14932
2.1238
2.09812
2.07227
2.04624
2.02003
1.99365
1.96708
1.94032
1.91339
1.88626
1.85895
1.83145
1.80376
1.77587
1.74779
1.71952
1.69104
1.66236
1.63348
1.6044
1.57511
1.54562
1.51592
1.486
1.45588
1.42555
1.395
1.36424
1.33326
1.30207
1.27065
1.23902
1.20716
1.17507
1.14276
1.11023
1.07746
1.04447
1.01124
0.977779
0.944082
0.910148
0.875975
0.841562
0.806907
0.772008
0.736864
0.701473
0.665832
0.629942
0.593798
0.557401
0.520747
0.483837
0.446665
0.409234
0.371537
0.333579
0.295351
0.256853
0.218095
0.179044
0.139737
0.100153
0.060265
0.0201316
-24.1337
-28.9832
-36.6828
-41.8216
-37.6104
-24.2291
-10.9623
-1.99946
2.08313
3.80735
4.15348
3.98477
3.67359
3.37228
3.12729
2.93997
2.80025
2.69662
2.61886
2.55902
2.51136
2.47185
2.43773
2.40713
2.37881
2.35193
2.32594
2.30046
2.27525
2.25015
2.22507
2.19993
2.17469
2.14932
2.1238
2.09812
2.07227
2.04624
2.02003
1.99365
1.96708
1.94032
1.91339
1.88626
1.85895
1.83145
1.80376
1.77587
1.74779
1.71952
1.69104
1.66236
1.63348
1.6044
1.57511
1.54562
1.51592
1.486
1.45588
1.42555
1.395
1.36424
1.33326
1.30207
1.27065
1.23902
1.20716
1.17507
1.14276
1.11023
1.07746
1.04447
1.01124
0.977779
0.944082
0.910148
0.875975
0.841562
0.806907
0.772008
0.736864
0.701473
0.665832
0.629942
0.593798
0.557401
0.520747
0.483837
0.446665
0.409234
0.371537
0.333579
0.295351
0.256853
0.218095
0.179044
0.139737
0.100153
0.060265
0.0201316
-25.8462
-29.4022
-37.2241
-43.3289
-38.956
-25.4466
-11.553
-2.27385
1.94033
3.70737
4.08439
3.93648
3.64036
3.3497
3.11203
2.92978
2.7935
2.69218
2.61595
2.55713
2.51013
2.47105
2.43721
2.4068
2.3786
2.35179
2.32585
2.3004
2.27521
2.25013
2.22505
2.19992
2.17468
2.14932
2.1238
2.09812
2.07227
2.04624
2.02003
1.99365
1.96708
1.94032
1.91339
1.88626
1.85895
1.83145
1.80376
1.77587
1.74779
1.71952
1.69104
1.66236
1.63348
1.6044
1.57511
1.54562
1.51592
1.486
1.45588
1.42555
1.395
1.36424
1.33326
1.30207
1.27065
1.23902
1.20716
1.17507
1.14276
1.11023
1.07746
1.04447
1.01124
0.977779
0.944082
0.910148
0.875975
0.841562
0.806907
0.772008
0.736864
0.701473
0.665832
0.629942
0.593798
0.557401
0.520747
0.483837
0.446665
0.409234
0.371537
0.333579
0.295351
0.256853
0.218095
0.179044
0.139737
0.100153
0.0602649
0.0201316
-25.0155
-30.7344
-38.8116
-45.0882
-40.9313
-26.9109
-12.3124
-2.62308
1.76174
3.58383
3.99843
3.8765
3.59933
3.32198
3.09339
2.91734
2.78526
2.68675
2.61239
2.5548
2.50861
2.47006
2.43657
2.40638
2.37833
2.35162
2.32574
2.30033
2.27517
2.2501
2.22504
2.19991
2.17467
2.14931
2.1238
2.09812
2.07227
2.04624
2.02003
1.99365
1.96708
1.94032
1.91339
1.88626
1.85895
1.83145
1.80376
1.77587
1.74779
1.71952
1.69104
1.66236
1.63348
1.6044
1.57511
1.54562
1.51592
1.486
1.45588
1.42555
1.395
1.36424
1.33326
1.30207
1.27065
1.23902
1.20716
1.17507
1.14276
1.11023
1.07746
1.04447
1.01124
0.977779
0.944082
0.910148
0.875975
0.841562
0.806907
0.772008
0.736864
0.701473
0.665832
0.629942
0.593798
0.557401
0.520747
0.483837
0.446665
0.409234
0.371537
0.333579
0.295351
0.256853
0.218095
0.179044
0.139737
0.100153
0.0602648
0.0201316
-26.0761
-31.0675
-40.1212
-47.3612
-43.0999
-28.5961
-13.2175
-3.05637
1.54915
3.43791
3.89612
3.80502
3.55057
3.28919
3.07142
2.90271
2.77558
2.68037
2.6082
2.55206
2.50682
2.4689
2.43581
2.40589
2.37801
2.35142
2.32561
2.30024
2.27511
2.25007
2.22501
2.19989
2.17467
2.14931
2.12379
2.09812
2.07227
2.04624
2.02003
1.99365
1.96708
1.94032
1.91339
1.88626
1.85895
1.83145
1.80376
1.77587
1.74779
1.71952
1.69104
1.66236
1.63348
1.6044
1.57511
1.54562
1.51592
1.486
1.45588
1.42555
1.395
1.36424
1.33326
1.30207
1.27065
1.23902
1.20716
1.17507
1.14276
1.11023
1.07746
1.04447
1.01124
0.977779
0.944082
0.910148
0.875975
0.841562
0.806907
0.772008
0.736864
0.701473
0.665832
0.629942
0.593798
0.557401
0.520747
0.483837
0.446665
0.409234
0.371537
0.333579
0.295351
0.256853
0.218095
0.179044
0.139737
0.100153
0.0602648
0.0201316
-26.469
-32.125
-41.6898
-49.7074
-45.5406
-30.4235
-14.2203
-3.56169
1.30198
3.27134
3.77874
3.7228
3.49452
3.25158
3.04628
2.88599
2.76451
2.67307
2.60341
2.54892
2.50477
2.46756
2.43494
2.40533
2.37765
2.35118
2.32545
2.30015
2.27505
2.25003
2.22499
2.19988
2.17466
2.1493
2.12379
2.09811
2.07227
2.04624
2.02003
1.99365
1.96708
1.94032
1.91339
1.88626
1.85895
1.83145
1.80376
1.77587
1.74779
1.71952
1.69104
1.66236
1.63348
1.6044
1.57511
1.54562
1.51592
1.486
1.45588
1.42555
1.395
1.36424
1.33326
1.30207
1.27065
1.23902
1.20716
1.17507
1.14276
1.11023
1.07746
1.04447
1.01124
0.977779
0.944082
0.910148
0.875975
0.841562
0.806907
0.772008
0.736864
0.701473
0.665832
0.629942
0.593798
0.557401
0.520747
0.483837
0.446665
0.409234
0.371537
0.333579
0.295351
0.256853
0.218095
0.179044
0.139737
0.100153
0.0602647
0.0201315
-27.5552
-32.8646
-43.0647
-51.9049
-48.0864
-32.3811
-15.2454
-4.122
1.02133
3.08523
3.64755
3.63064
3.43161
3.20939
3.01812
2.86728
2.75214
2.66491
2.59804
2.5454
2.50247
2.46606
2.43397
2.4047
2.37724
2.35092
2.32529
2.30004
2.27498
2.24998
2.22496
2.19986
2.17465
2.14929
2.12379
2.09811
2.07226
2.04624
2.02003
1.99364
1.96708
1.94032
1.91338
1.88626
1.85895
1.83145
1.80376
1.77587
1.74779
1.71952
1.69104
1.66236
1.63348
1.6044
1.57511
1.54562
1.51592
1.486
1.45588
1.42555
1.395
1.36424
1.33326
1.30207
1.27065
1.23902
1.20716
1.17507
1.14276
1.11023
1.07746
1.04447
1.01124
0.977779
0.944082
0.910148
0.875975
0.841562
0.806907
0.772009
0.736864
0.701473
0.665832
0.629942
0.593798
0.557401
0.520747
0.483837
0.446665
0.409234
0.371537
0.333579
0.295351
0.256853
0.218095
0.179044
0.139737
0.100153
0.0602647
0.0201315
-28.3822
-33.5117
-44.0175
-54.1484
-50.2706
-34.2025
-16.2638
-4.70056
0.714443
2.88102
3.50389
3.52965
3.36251
3.16298
2.98715
2.84671
2.73853
2.65593
2.59213
2.54153
2.49994
2.46441
2.4329
2.404
2.37679
2.35063
2.3251
2.29992
2.27491
2.24994
2.22493
2.19984
2.17463
2.14929
2.12378
2.09811
2.07226
2.04624
2.02003
1.99364
1.96707
1.94032
1.91338
1.88626
1.85895
1.83145
1.80376
1.77587
1.74779
1.71952
1.69104
1.66236
1.63348
1.6044
1.57511
1.54562
1.51592
1.486
1.45588
1.42555
1.395
1.36424
1.33326
1.30207
1.27065
1.23902
1.20716
1.17507
1.14276
1.11023
1.07746
1.04447
1.01124
0.977779
0.944082
0.910148
0.875975
0.841562
0.806907
0.772009
0.736864
0.701473
0.665832
0.629942
0.593798
0.557401
0.520747
0.483837
0.446665
0.409234
0.371538
0.333579
0.295351
0.256853
0.218095
0.179044
0.139737
0.100153
0.0602646
0.0201315
-29.1224
-33.8776
-44.6258
-55.1378
-51.8007
-35.5446
-17.2145
-5.27737
0.3898
2.66117
3.34885
3.42083
3.28791
3.11276
2.95359
2.82441
2.72377
2.64619
2.58572
2.53732
2.49719
2.46261
2.43173
2.40324
2.3763
2.35031
2.32489
2.29979
2.27482
2.24988
2.2249
2.19982
2.17462
2.14928
2.12378
2.09811
2.07226
2.04624
2.02003
1.99364
1.96707
1.94032
1.91338
1.88626
1.85895
1.83145
1.80376
1.77587
1.74779
1.71952
1.69104
1.66236
1.63348
1.6044
1.57511
1.54562
1.51592
1.486
1.45588
1.42555
1.395
1.36424
1.33326
1.30207
1.27065
1.23902
1.20716
1.17507
1.14276
1.11023
1.07746
1.04447
1.01124
0.977779
0.944082
0.910148
0.875975
0.841562
0.806907
0.772009
0.736864
0.701473
0.665832
0.629942