/*--------------------------------*- C++ -*----------------------------------*\
| =========                 |                                                 |
| \\      /  F ield         | OpenFOAM: The Open Source CFD Toolbox           |
|  \\    /   O peration     | Version:  2.4.0                                 |
|   \\  /    A nd           | Web:      www.OpenFOAM.org                      |
|    \\/     M anipulation  |                                                 |
\*---------------------------------------------------------------------------*/
FoamFile
{
    version     2.0;
    format      ascii;
    class       volVectorField;
    location    "46";
    object      U;
}
// * * * * * * * * * * * * * * * * * * * * * * * * * * * * * * * * * * * * * //

dimensions      [0 1 -1 0 0 0 0];

internalField   nonuniform List<vector> 
4400
(
(0.0951552 -0.000396631 0)
(0.0964466 0.000883115 0)
(0.0922254 -0.000449203 0)
(0.103687 -0.00108118 0)
(0.101839 0.000713525 0)
(0.101613 3.41329e-05 0)
(0.100353 -0.000339003 0)
(0.0929887 0.00136488 0)
(0.0929158 -0.000737531 0)
(0.109008 -0.00180513 0)
(0.0996015 0.00213437 0)
(0.0958585 -0.000438346 0)
(0.104766 -0.00129947 0)
(0.0942691 0.00190855 0)
(0.105079 -0.00183457 0)
(0.104089 -0.000161556 0)
(0.11096 0.00102393 0)
(0.0966194 -0.0015464 0)
(0.132811 0.00221675 0)
(0.051724 -0.00620719 0)
(0.27012 -0.000885379 0)
(0.275567 0.00294589 0)
(0.272153 -0.00173758 0)
(0.284515 -0.00333682 0)
(0.278969 0.00225665 0)
(0.282521 7.14751e-05 0)
(0.277507 -0.000871813 0)
(0.267551 0.00416564 0)
(0.280382 -0.00262801 0)
(0.286929 -0.00551892 0)
(0.275479 0.00696671 0)
(0.282054 -0.00206185 0)
(0.282045 -0.00351579 0)
(0.269893 0.00555186 0)
(0.302806 -0.00576781 0)
(0.267995 -0.00071092 0)
(0.316376 0.00413768 0)
(0.257763 -0.00720058 0)
(0.339601 0.00600766 0)
(0.245452 -0.00922389 0)
(0.428025 -0.00109824 0)
(0.435077 0.00487692 0)
(0.438326 -0.00324102 0)
(0.440652 -0.00522326 0)
(0.439208 0.00393569 0)
(0.441873 -7.45025e-05 0)
(0.439626 -0.000800827 0)
(0.420133 0.00649448 0)
(0.451644 -0.00538993 0)
(0.441183 -0.00826151 0)
(0.432717 0.0119995 0)
(0.454753 -0.00466195 0)
(0.436391 -0.00435364 0)
(0.427402 0.00799546 0)
(0.480401 -0.00961237 0)
(0.409327 -0.000702867 0)
(0.496421 0.00618322 0)
(0.41385 -0.0105152 0)
(0.499092 0.00416155 0)
(0.427622 -0.00739585 0)
(0.569132 -0.00109976 0)
(0.568265 0.00591316 0)
(0.588507 -0.00435955 0)
(0.57736 -0.00654917 0)
(0.580293 0.00536781 0)
(0.582159 -0.000357034 0)
(0.585484 -0.000173856 0)
(0.548612 0.00845977 0)
(0.601307 -0.00843974 0)
(0.580197 -0.00987127 0)
(0.560057 0.0155605 0)
(0.615469 -0.00675428 0)
(0.571763 -0.00353397 0)
(0.561533 0.00887248 0)
(0.639124 -0.012232 0)
(0.534364 -0.00028659 0)
(0.641869 0.00593553 0)
(0.566295 -0.0107889 0)
(0.626203 0.00126457 0)
(0.580688 -0.00736343 0)
(0.694811 -0.000267004 0)
(0.677139 0.00624496 0)
(0.71338 -0.00666038 0)
(0.69751 -0.00681879 0)
(0.699868 0.00656348 0)
(0.700859 -0.00157752 0)
(0.717431 0.00204863 0)
(0.659337 0.0106552 0)
(0.718173 -0.013832 0)
(0.712102 -0.00852627 0)
(0.656153 0.0175315 0)
(0.745983 -0.0116323 0)
(0.696011 0.000753123 0)
(0.667244 0.00785451 0)
(0.770054 -0.0157656 0)
(0.651992 0.00330174 0)
(0.750223 0.00235528 0)
(0.6974 -0.0107105 0)
(0.733081 0.000554304 0)
(0.702328 -0.00947889 0)
(0.801825 0.00090767 0)
(0.770775 0.00732998 0)
(0.810575 -0.0104426 0)
(0.796951 -0.00695972 0)
(0.8006 0.0084203 0)
(0.794456 -0.0045879 0)
(0.825728 0.00406134 0)
(0.764353 0.0156586 0)
(0.803532 -0.0218032 0)
(0.82774 -0.00601773 0)
(0.741105 0.0213277 0)
(0.838599 -0.0206365 0)
(0.801372 0.00642703 0)
(0.755624 0.00742676 0)
(0.864222 -0.022103 0)
(0.756791 0.00893134 0)
(0.834582 -0.00162582 0)
(0.79995 -0.0117021 0)
(0.821426 0.00173835 0)
(0.799362 -0.0124309 0)
(0.885946 0.00175048 0)
(0.851402 0.00939204 0)
(0.887108 -0.0142475 0)
(0.873961 -0.00764495 0)
(0.881941 0.0107504 0)
(0.869516 -0.00777073 0)
(0.903556 0.0042438 0)
(0.857012 0.0225739 0)
(0.870496 -0.0299777 0)
(0.916215 -0.00423154 0)
(0.820787 0.0275202 0)
(0.908246 -0.0306146 0)
(0.882461 0.011805 0)
(0.834182 0.00840753 0)
(0.929738 -0.0296645 0)
(0.841688 0.0149485 0)
(0.901353 -0.00496321 0)
(0.877566 -0.0134825 0)
(0.892188 0.00409428 0)
(0.875629 -0.0157246 0)
(0.946604 0.00217467 0)
(0.915669 0.01167 0)
(0.945545 -0.0172754 0)
(0.93146 -0.00830937 0)
(0.942361 0.0128665 0)
(0.928528 -0.0102177 0)
(0.955913 0.00314111 0)
(0.928249 0.0293712 0)
(0.923772 -0.0369266 0)
(0.97596 -0.00340092 0)
(0.888608 0.0343644 0)
(0.961273 -0.039426 0)
(0.939747 0.0163696 0)
(0.902075 0.0102296 0)
(0.973576 -0.0366325 0)
(0.906641 0.0203615 0)
(0.951703 -0.00725088 0)
(0.932323 -0.015706 0)
(0.945082 0.00684382 0)
(0.931545 -0.0188464 0)
(0.984661 0.00235521 0)
(0.961706 0.0135292 0)
(0.984628 -0.0193718 0)
(0.970411 -0.00869394 0)
(0.982339 0.0143943 0)
(0.969724 -0.0117656 0)
(0.987516 0.00169373 0)
(0.975785 0.0346738 0)
(0.962656 -0.0419379 0)
(1.00887 -0.00300861 0)
(0.9401 0.0400475 0)
(0.99593 -0.0457796 0)
(0.973839 0.0197897 0)
(0.955257 0.0122146 0)
(0.9971 -0.0416477 0)
(0.95216 0.0244734 0)
(0.98545 -0.00839514 0)
(0.965748 -0.0177076 0)
(0.980215 0.00934238 0)
(0.966955 -0.0212803 0)
(1.00094 0.00243723 0)
(0.98902 0.0145904 0)
(1.0034 -0.0204443 0)
(0.990425 -0.00876691 0)
(1.00229 0.0151147 0)
(0.991766 -0.0124314 0)
(0.999999 0.000621228 0)
(1.00022 0.037689 0)
(0.985572 -0.0446529 0)
(1.01687 -0.0024958 0)
(0.974029 0.0432737 0)
(1.01008 -0.0488038 0)
(0.986334 0.021803 0)
(0.990078 0.0134905 0)
(1.00064 -0.0438158 0)
(0.978182 0.0266699 0)
(1.00171 -0.00848149 0)
(0.978991 -0.018934 0)
(0.997651 0.0109814 0)
(0.982395 -0.0226972 0)
(0.996345 0.00248348 0)
(0.997224 0.0146522 0)
(1.00152 -0.0204293 0)
(0.991309 -0.00846836 0)
(1.00186 0.0149872 0)
(0.994387 -0.0123119 0)
(0.993077 0.000356963 0)
(1.00307 0.0379451 0)
(0.990434 -0.0446811 0)
(1.00155 -0.00178673 0)
(0.989927 0.0433134 0)
(1.00247 -0.0479149 0)
(0.979721 0.0221185 0)
(1.00399 0.0135558 0)
(0.985352 -0.0428076 0)
(0.984605 0.0265847 0)
(0.999741 -0.00770112 0)
(0.972843 -0.019156 0)
(0.996919 0.0114446 0)
(0.978703 -0.0228651 0)
(0.972077 0.00248272 0)
(0.985518 0.0137036 0)
(0.979084 -0.0192826 0)
(0.972699 -0.00792475 0)
(0.980656 0.0140517 0)
(0.977646 -0.0114656 0)
(0.965515 0.001012 0)
(0.98647 0.0354569 0)
(0.974586 -0.0420295 0)
(0.965292 -0.000991484 0)
(0.986846 0.0400898 0)
(0.972817 -0.0433306 0)
(0.95654 0.0205685 0)
(0.995564 0.0125086 0)
(0.952607 -0.0390143 0)
(0.971272 0.0241684 0)
(0.979054 -0.00631908 0)
(0.947656 -0.0182588 0)
(0.977675 0.0106482 0)
(0.956311 -0.0216958 0)
(0.929404 0.00234769 0)
(0.952748 0.0119563 0)
(0.936516 -0.0171131 0)
(0.933418 -0.00712113 0)
(0.939273 0.0123313 0)
(0.940685 -0.00982711 0)
(0.91652 0.00227486 0)
(0.952685 0.0305979 0)
(0.935225 -0.0369456 0)
(0.912078 -0.000556465 0)
(0.963331 0.0343305 0)
(0.921709 -0.035991 0)
(0.918603 0.0172262 0)
(0.963998 0.0107629 0)
(0.902949 -0.0333005 0)
(0.938254 0.0198651 0)
(0.938892 -0.00457523 0)
(0.903652 -0.0163738 0)
(0.940427 0.00857293 0)
(0.914663 -0.0193328 0)
(0.869224 0.00195883 0)
(0.897971 0.00975443 0)
(0.873644 -0.0140682 0)
(0.87232 -0.00613006 0)
(0.879488 0.00988909 0)
(0.880907 -0.00722017 0)
(0.84834 0.00331769 0)
(0.903019 0.0240657 0)
(0.870465 -0.0298296 0)
(0.847284 -0.00128854 0)
(0.917377 0.0273949 0)
(0.850325 -0.0271121 0)
(0.866887 0.0123263 0)
(0.908182 0.00906257 0)
(0.836603 -0.0265985 0)
(0.886553 0.0143932 0)
(0.878121 -0.00242333 0)
(0.842583 -0.014065 0)
(0.885979 0.00558151 0)
(0.852786 -0.016 0)
(0.792043 0.00118368 0)
(0.819817 0.00765316 0)
(0.789274 -0.010349 0)
(0.791117 -0.00548216 0)
(0.801944 0.00716529 0)
(0.796068 -0.00371792 0)
(0.768063 0.00288926 0)
(0.834606 0.017263 0)
(0.781012 -0.021622 0)
(0.775486 -0.00371325 0)
(0.84441 0.0210294 0)
(0.760766 -0.0181913 0)
(0.800805 0.00639219 0)
(0.82632 0.00821745 0)
(0.755592 -0.0202213 0)
(0.816693 0.00848115 0)
(0.796058 7.46247e-05 0)
(0.767223 -0.0120956 0)
(0.811939 0.00256385 0)
(0.770343 -0.0121275 0)
(0.696837 6.75459e-05 0)
(0.715626 0.00648276 0)
(0.685356 -0.00668779 0)
(0.693463 -0.00572068 0)
(0.702938 0.0051935 0)
(0.689977 -0.000492737 0)
(0.679963 0.000525925 0)
(0.737551 0.012307 0)
(0.673071 -0.0141476 0)
(0.692573 -0.00705251 0)
(0.736965 0.017035 0)
(0.658384 -0.0110453 0)
(0.71509 0.000695618 0)
(0.717885 0.00838034 0)
(0.662706 -0.0154548 0)
(0.723763 0.00335475 0)
(0.69198 0.00253756 0)
(0.675791 -0.0106551 0)
(0.711807 0.000625131 0)
(0.667746 -0.0083707 0)
(0.579163 -0.000681257 0)
(0.588063 0.00603698 0)
(0.567457 -0.00433576 0)
(0.576754 -0.00585207 0)
(0.580136 0.00425605 0)
(0.569776 0.000762848 0)
(0.572723 -0.00160628 0)
(0.607031 0.00990145 0)
(0.555378 -0.00911404 0)
(0.582574 -0.008727 0)
(0.598275 0.0150449 0)
(0.54865 -0.00695556 0)
(0.599154 -0.00285024 0)
(0.586767 0.00867412 0)
(0.5545 -0.0121204 0)
(0.598805 0.000597641 0)
(0.566477 0.00439749 0)
(0.562325 -0.00919958 0)
(0.583147 3.96244e-05 0)
(0.546383 -0.00532948 0)
(0.437596 -0.000683648 0)
(0.444605 0.00493301 0)
(0.433211 -0.0029371 0)
(0.436944 -0.0049401 0)
(0.436328 0.00332336 0)
(0.432371 0.000864213 0)
(0.436437 -0.00192684 0)
(0.455507 0.00761225 0)
(0.42528 -0.00592073 0)
(0.438449 -0.00743707 0)
(0.445009 0.0118639 0)
(0.423386 -0.00476979 0)
(0.449678 -0.00334723 0)
(0.440137 0.00753418 0)
(0.422659 -0.00884189 0)
(0.444494 -0.000105622 0)
(0.425023 0.00441844 0)
(0.424529 -0.00717738 0)
(0.4316 7.11222e-05 0)
(0.407164 -0.00310489 0)
(0.27558 -0.00055176 0)
(0.284263 0.00322366 0)
(0.278631 -0.00150386 0)
(0.275077 -0.00332182 0)
(0.273517 0.00205762 0)
(0.275386 0.000540615 0)
(0.276123 -0.00151545 0)
(0.28971 0.00467191 0)
(0.274469 -0.00295804 0)
(0.270508 -0.0050929 0)
(0.28042 0.00696281 0)
(0.273213 -0.00242591 0)
(0.27849 -0.0027222 0)
(0.279404 0.00496391 0)
(0.267596 -0.00505047 0)
(0.272779 -0.000796425 0)
(0.267927 0.00327726 0)
(0.26476 -0.00428005 0)
(0.263997 0.000158174 0)
(0.251091 -0.000960098 0)
(0.0949327 -0.000149127 0)
(0.103314 0.00106714 0)
(0.103764 -0.000493443 0)
(0.0960263 -0.0011039 0)
(0.094242 0.000650547 0)
(0.0980166 0.000140275 0)
(0.0956793 -0.000531357 0)
(0.105531 0.00145609 0)
(0.102949 -0.000829956 0)
(0.0888325 -0.00175714 0)
(0.0975734 0.00211428 0)
(0.100851 -0.000724494 0)
(0.0939586 -0.00108266 0)
(0.100631 0.00165367 0)
(0.0955378 -0.00156521 0)
(0.0892659 -0.000466356 0)
(0.0936947 0.00123437 0)
(0.0907455 -0.00132439 0)
(0.0866689 0.000159588 0)
(0.0843992 1.25237e-05 0)
(0.232139 -0.0015809 0)
(0.132932 -0.000890391 0)
(0.288057 -0.0183307 0)
(0.180463 -0.0177639 0)
(0.259882 -0.0257676 0)
(0.322497 -0.0191051 0)
(0.16831 0.0250784 0)
(0.336171 0.0240451 0)
(0.461022 -0.0134189 0)
(0.391348 0.00952855 0)
(0.557149 -0.0222919 0)
(0.665095 -0.114406 0)
(0.825446 -0.218854 0)
(0.807409 -0.210793 0)
(0.713751 -0.110319 0)
(0.840601 -0.124976 0)
(0.914223 -0.229086 0)
(0.901254 -0.206842 0)
(0.918241 -0.0772731 0)
(1.006 0.0122912 0)
(0.991898 0.0801327 0)
(0.918175 0.0588328 0)
(0.891698 -0.0808565 0)
(0.788225 -0.175399 0)
(0.570269 -0.10064 0)
(0.464125 -0.12964 0)
(0.317266 -0.339654 0)
(0.464833 -0.267691 0)
(0.507085 -0.080088 0)
(0.561956 0.142558 0)
(0.634517 0.343733 0)
(0.609974 0.408018 0)
(0.584411 0.341057 0)
(0.560142 0.236145 0)
(0.592331 0.0623486 0)
(0.659385 -0.139911 0)
(0.674156 -0.191632 0)
(0.668346 -0.0682346 0)
(0.647678 0.0501433 0)
(0.586333 0.0966092 0)
(0.494308 0.10589 0)
(0.490732 0.0462514 0)
(0.50417 0.00591926 0)
(0.463711 0.0223905 0)
(0.519126 -0.0385585 0)
(0.602974 -0.158201 0)
(0.602303 -0.201535 0)
(0.605902 -0.123861 0)
(0.616302 -0.00714342 0)
(0.58932 0.055994 0)
(0.545392 0.0592704 0)
(0.508674 0.0368342 0)
(0.481796 0.0143586 0)
(0.461601 0.000609293 0)
(0.44604 -0.00504875 0)
(0.433776 -0.00601532 0)
(0.423953 -0.00512716 0)
(0.416224 -0.00388826 0)
(0.410347 -0.00283042 0)
(0.406131 -0.00203264 0)
(0.403241 -0.00144207 0)
(0.401397 -0.0010011 0)
(0.400253 -0.000672851 0)
(0.399602 -0.000434705 0)
(0.399225 -0.000268909 0)
(0.399036 -0.000159124 0)
(0.39893 -9.00586e-05 0)
(0.398882 -4.88293e-05 0)
(0.398857 -2.53604e-05 0)
(0.398844 -1.26537e-05 0)
(0.398842 -6.0497e-06 0)
(0.398836 -2.7848e-06 0)
(0.398838 -1.22734e-06 0)
(0.398835 -5.16952e-07 0)
(0.398837 -2.13807e-07 0)
(0.398836 -7.99679e-08 0)
(0.398836 -3.2707e-08 0)
(0.398837 -1.0375e-08 0)
(0.398836 -6.33393e-09 0)
(0.398837 -1.89147e-10 0)
(0.398836 -6.18777e-10 0)
(0.398836 1.89974e-09 0)
(0.398837 -5.71118e-10 0)
(0.398836 2.43471e-09 0)
(0.398836 -2.46033e-09 0)
(0.398836 4.02935e-09 0)
(0.398836 -2.58111e-09 0)
(0.398836 1.86639e-09 0)
(0.398836 9.50344e-10 0)
(0.398836 -3.56177e-10 0)
(0.398836 -2.71803e-09 0)
(0.398836 6.09423e-09 0)
(0.398836 -4.6589e-09 0)
(0.398836 1.42164e-09 0)
(0.398836 1.32107e-09 0)
(0.398836 -3.70382e-09 0)
(0.398836 3.50947e-09 0)
(0.398836 -2.84365e-09 0)
(0.398836 1.90098e-09 0)
(0.398836 -1.49795e-09 0)
(0.385386 -0.0101241 0)
(0.290159 -0.00277435 0)
(0.42882 -0.0225149 0)
(0.344577 -0.0161309 0)
(0.373611 -0.0307566 0)
(0.460575 -0.0194735 0)
(0.30053 0.023554 0)
(0.460102 0.00739761 0)
(0.571391 -0.0265252 0)
(0.52809 -0.00705247 0)
(0.68168 -0.0376237 0)
(0.767691 -0.130381 0)
(0.908325 -0.233966 0)
(0.859244 -0.208473 0)
(0.766427 -0.105244 0)
(0.89095 -0.136709 0)
(0.92034 -0.24102 0)
(0.884219 -0.206009 0)
(0.903652 -0.0791318 0)
(0.983298 0.00395728 0)
(0.982592 0.0838505 0)
(0.923473 0.0702352 0)
(0.885666 -0.0654048 0)
(0.772149 -0.147944 0)
(0.53573 -0.0710749 0)
(0.434597 -0.114884 0)
(0.284119 -0.341712 0)
(0.425757 -0.277735 0)
(0.467157 -0.0852865 0)
(0.516923 0.135147 0)
(0.593563 0.336987 0)
(0.586691 0.405654 0)
(0.580851 0.341983 0)
(0.565327 0.237099 0)
(0.611606 0.0568742 0)
(0.680462 -0.146183 0)
(0.686082 -0.193782 0)
(0.673714 -0.0654649 0)
(0.65665 0.0563315 0)
(0.601936 0.106664 0)
(0.50938 0.114175 0)
(0.515114 0.0463509 0)
(0.522412 0.00684476 0)
(0.474407 0.021824 0)
(0.540118 -0.0477163 0)
(0.618856 -0.16492 0)
(0.604114 -0.202145 0)
(0.597612 -0.123388 0)
(0.607466 -0.00527767 0)
(0.5846 0.0601897 0)
(0.544996 0.0644542 0)
(0.511219 0.0413833 0)
(0.485526 0.0178383 0)
(0.465174 0.00324311 0)
(0.448858 -0.00299635 0)
(0.435794 -0.0043907 0)
(0.425358 -0.00384921 0)
(0.417216 -0.00290886 0)
(0.411066 -0.00211011 0)
(0.406656 -0.00152843 0)
(0.403619 -0.00110707 0)
(0.401659 -0.000789616 0)
(0.400426 -0.000545668 0)
(0.39971 -0.0003616 0)
(0.399289 -0.000228575 0)
(0.39907 -0.000137741 0)
(0.398947 -7.90755e-05 0)
(0.398888 -4.34146e-05 0)
(0.398858 -2.27309e-05 0)
(0.398842 -1.14486e-05 0)
(0.398838 -5.48435e-06 0)
(0.398832 -2.54326e-06 0)
(0.398833 -1.12126e-06 0)
(0.39883 -4.66708e-07 0)
(0.398832 -2.02361e-07 0)
(0.398831 -6.30767e-08 0)
(0.398831 -3.65932e-08 0)
(0.398832 -6.0404e-09 0)
(0.39883 -7.30199e-09 0)
(0.398831 -3.97319e-09 0)
(0.398831 2.46402e-09 0)
(0.398831 -2.15579e-09 0)
(0.398831 -5.36613e-10 0)
(0.398831 3.44319e-09 0)
(0.398831 -4.02901e-09 0)
(0.398831 5.45911e-09 0)
(0.398831 -2.22777e-09 0)
(0.398831 8.03815e-10 0)
(0.398831 4.23899e-09 0)
(0.398831 -2.21026e-09 0)
(0.398831 5.44003e-10 0)
(0.398831 3.44576e-09 0)
(0.398831 -3.69107e-09 0)
(0.398831 2.41829e-09 0)
(0.398831 4.54508e-10 0)
(0.398831 -1.4067e-09 0)
(0.398831 2.20454e-09 0)
(0.398831 -1.47643e-09 0)
(0.398831 -2.1577e-10 0)
(0.398831 -5.03526e-10 0)
(0.53197 -0.0177794 0)
(0.45073 -0.00541907 0)
(0.56618 -0.0272738 0)
(0.505469 -0.0152784 0)
(0.49998 -0.0319428 0)
(0.608525 -0.0210634 0)
(0.453667 0.0218981 0)
(0.593203 -0.00490259 0)
(0.670093 -0.0414838 0)
(0.671055 -0.0264417 0)
(0.788259 -0.0502527 0)
(0.855559 -0.142065 0)
(0.97491 -0.243477 0)
(0.887961 -0.201966 0)
(0.798046 -0.100525 0)
(0.917581 -0.14662 0)
(0.905249 -0.245684 0)
(0.85252 -0.202358 0)
(0.877693 -0.0811494 0)
(0.942129 -0.00397747 0)
(0.952868 0.085119 0)
(0.908637 0.0799761 0)
(0.863976 -0.0487469 0)
(0.744788 -0.118074 0)
(0.496109 -0.0402001 0)
(0.401825 -0.100815 0)
(0.250977 -0.343609 0)
(0.384367 -0.287276 0)
(0.423501 -0.0900438 0)
(0.46912 0.127792 0)
(0.548724 0.328632 0)
(0.55834 0.400087 0)
(0.571923 0.340589 0)
(0.56463 0.235873 0)
(0.626213 0.0497372 0)
(0.695283 -0.151596 0)
(0.690245 -0.19397 0)
(0.671093 -0.0624079 0)
(0.658623 0.0613958 0)
(0.611197 0.116032 0)
(0.520081 0.121501 0)
(0.537493 0.0461749 0)
(0.536916 0.00903011 0)
(0.48414 0.0210435 0)
(0.559973 -0.0573694 0)
(0.629429 -0.170159 0)
(0.599707 -0.200568 0)
(0.583057 -0.121769 0)
(0.592147 -0.00375021 0)
(0.573882 0.0635595 0)
(0.53956 0.0689702 0)
(0.509708 0.0455777 0)
(0.486041 0.0212138 0)
(0.466204 0.00591731 0)
(0.449663 -0.000864438 0)
(0.436232 -0.00269287 0)
(0.425549 -0.00252258 0)
(0.417309 -0.0019016 0)
(0.411148 -0.0013737 0)
(0.406752 -0.00101312 0)
(0.40372 -0.000762889 0)
(0.40175 -0.000570137 0)
(0.400496 -0.000411831 0)
(0.399758 -0.00028337 0)
(0.399316 -0.000184596 0)
(0.399082 -0.000113946 0)
(0.398947 -6.65972e-05 0)
(0.398882 -3.7124e-05 0)
(0.398848 -1.96138e-05 0)
(0.39883 -9.98494e-06 0)
(0.398825 -4.78792e-06 0)
(0.398818 -2.2377e-06 0)
(0.398819 -9.8515e-07 0)
(0.398816 -4.03142e-07 0)
(0.398817 -1.85036e-07 0)
(0.398817 -4.34402e-08 0)
(0.398816 -3.97192e-08 0)
(0.398817 -1.71392e-09 0)
(0.398816 -8.10403e-09 0)
(0.398817 -8.67907e-09 0)
(0.398817 5.04193e-09 0)
(0.398816 -7.11649e-09 0)
(0.398817 -8.96869e-10 0)
(0.398816 5.95453e-09 0)
(0.398817 -6.35736e-09 0)
(0.398817 7.46093e-09 0)
(0.398816 -1.61454e-09 0)
(0.398817 -5.48033e-10 0)
(0.398817 8.85107e-09 0)
(0.398817 -3.89824e-09 0)
(0.398817 3.30497e-09 0)
(0.398817 1.62131e-09 0)
(0.398817 -3.05119e-09 0)
(0.398817 3.94163e-09 0)
(0.398817 -7.82367e-11 0)
(0.398817 6.16384e-10 0)
(0.398817 1.23359e-09 0)
(0.398817 -8.09944e-10 0)
(0.398817 -1.52647e-09 0)
(0.398817 1.32719e-10 0)
(0.661027 -0.0213349 0)
(0.591095 -0.00740528 0)
(0.678153 -0.0323563 0)
(0.6484 -0.0140107 0)
(0.614689 -0.0305414 0)
(0.724161 -0.0265328 0)
(0.601467 0.0184285 0)
(0.715376 -0.00921954 0)
(0.762216 -0.0540227 0)
(0.796267 -0.0466711 0)
(0.871263 -0.0588804 0)
(0.930355 -0.148027 0)
(1.02041 -0.246345 0)
(0.895655 -0.191716 0)
(0.821361 -0.096646 0)
(0.926464 -0.153249 0)
(0.871515 -0.242949 0)
(0.809519 -0.196094 0)
(0.840638 -0.0832937 0)
(0.888198 -0.0107059 0)
(0.907615 0.0846265 0)
(0.875743 0.0874086 0)
(0.828609 -0.0316891 0)
(0.707531 -0.0866616 0)
(0.45214 -0.00920501 0)
(0.367722 -0.0875974 0)
(0.218224 -0.345054 0)
(0.340148 -0.29626 0)
(0.37598 -0.0942729 0)
(0.418479 0.120588 0)
(0.500001 0.319128 0)
(0.525228 0.391654 0)
(0.557626 0.337024 0)
(0.558272 0.232338 0)
(0.636127 0.0410586 0)
(0.703243 -0.155875 0)
(0.685932 -0.191949 0)
(0.65991 -0.059045 0)
(0.653447 0.0652269 0)
(0.613521 0.124551 0)
(0.526172 0.127466 0)
(0.556853 0.0457126 0)
(0.546742 0.0123845 0)
(0.493512 0.0197509 0)
(0.57813 -0.0671451 0)
(0.634132 -0.173517 0)
(0.588951 -0.196765 0)
(0.562387 -0.119036 0)
(0.570495 -0.00261184 0)
(0.557193 0.0660363 0)
(0.528982 0.0726855 0)
(0.503949 0.049283 0)
(0.483115 0.0243747 0)
(0.464479 0.00853865 0)
(0.448291 0.00128113 0)
(0.434978 -0.000981703 0)
(0.424456 -0.00119741 0)
(0.416459 -0.000907993 0)
(0.410563 -0.000654363 0)
(0.406395 -0.000511863 0)
(0.403525 -0.00042742 0)
(0.401653 -0.000354644 0)
(0.400449 -0.00027889 0)
(0.39973 -0.000204529 0)
(0.399294 -0.000139532 0)
(0.399058 -8.91319e-05 0)
(0.39892 -5.33483e-05 0)
(0.398853 -3.03212e-05 0)
(0.398816 -1.61861e-05 0)
(0.398797 -8.34494e-06 0)
(0.398791 -3.99884e-06 0)
(0.398784 -1.88544e-06 0)
(0.398785 -8.27416e-07 0)
(0.398782 -3.30064e-07 0)
(0.398783 -1.6381e-07 0)
(0.398782 -2.30511e-08 0)
(0.398781 -4.19567e-08 0)
(0.398783 3.88144e-09 0)
(0.398781 -7.36039e-09 0)
(0.398782 -1.10588e-08 0)
(0.398782 8.76048e-09 0)
(0.398782 -9.23268e-09 0)
(0.398782 -1.30768e-09 0)
(0.398782 9.41317e-09 0)
(0.398782 -1.06555e-08 0)
(0.398782 9.87835e-09 0)
(0.398782 -2.91595e-09 0)
(0.398782 -2.71045e-09 0)
(0.398782 1.10134e-08 0)
(0.398782 -5.64315e-09 0)
(0.398782 3.66544e-09 0)
(0.398782 2.13008e-09 0)
(0.398782 -4.78958e-09 0)
(0.398782 5.75376e-09 0)
(0.398782 6.35829e-10 0)
(0.398782 -6.8471e-11 0)
(0.398782 2.13718e-09 0)
(0.398782 -1.97748e-09 0)
(0.398782 -1.0557e-09 0)
(0.398782 1.32513e-11 0)
(0.765099 -0.0233006 0)
(0.710309 -0.00781326 0)
(0.771047 -0.0361258 0)
(0.758672 -0.0151584 0)
(0.720297 -0.0258343 0)
(0.809518 -0.0328409 0)
(0.724318 0.0126986 0)
(0.813236 -0.0101014 0)
(0.843759 -0.0643351 0)
(0.893262 -0.0662931 0)
(0.931722 -0.0652318 0)
(0.985901 -0.151364 0)
(1.04101 -0.242992 0)
(0.886984 -0.178319 0)
(0.838831 -0.0937476 0)
(0.914193 -0.156338 0)
(0.819147 -0.234283 0)
(0.757559 -0.188535 0)
(0.793182 -0.0861302 0)
(0.824961 -0.0161053 0)
(0.850335 0.0830968 0)
(0.827368 0.092465 0)
(0.781547 -0.0146816 0)
(0.661901 -0.0546313 0)
(0.405234 0.0214396 0)
(0.334065 -0.0753064 0)
(0.186772 -0.344969 0)
(0.292552 -0.303969 0)
(0.324576 -0.0979855 0)
(0.365347 0.113299 0)
(0.448104 0.308209 0)
(0.488246 0.380331 0)
(0.538202 0.331381 0)
(0.546708 0.226333 0)
(0.641612 0.0308344 0)
(0.703711 -0.158599 0)
(0.672438 -0.1876 0)
(0.639748 -0.0553047 0)
(0.641087 0.067807 0)
(0.608384 0.132038 0)
(0.527725 0.13168 0)
(0.57213 0.0450376 0)
(0.551172 0.016687 0)
(0.502936 0.0175034 0)
(0.593689 -0.0765595 0)
(0.63247 -0.174615 0)
(0.571871 -0.190773 0)
(0.535916 -0.115284 0)
(0.542811 -0.00179346 0)
(0.534704 0.067562 0)
(0.513283 0.0754848 0)
(0.493861 0.0523762 0)
(0.476607 0.0272152 0)
(0.459854 0.0110156 0)
(0.444625 0.00336184 0)
(0.431956 0.000679093 0)
(0.422038 7.24227e-05 0)
(0.414645 2.82176e-05 0)
(0.409297 1.37545e-05 0)
(0.40557 -5.00696e-05 0)
(0.403016 -0.000118627 0)
(0.401346 -0.000155111 0)
(0.40026 -0.000154428 0)
(0.399604 -0.000129637 0)
(0.399197 -9.60082e-05 0)
(0.398974 -6.47427e-05 0)
(0.398841 -4.0095e-05 0)
(0.398774 -2.3399e-05 0)
(0.398738 -1.26422e-05 0)
(0.398718 -6.62332e-06 0)
(0.398712 -3.16081e-06 0)
(0.398705 -1.50612e-06 0)
(0.398706 -6.56459e-07 0)
(0.398703 -2.50272e-07 0)
(0.398704 -1.39636e-07 0)
(0.398703 -1.4237e-09 0)
(0.398702 -4.31471e-08 0)
(0.398704 9.36108e-09 0)
(0.398702 -6.34123e-09 0)
(0.398703 -1.31043e-08 0)
(0.398703 1.24946e-08 0)
(0.398703 -1.19434e-08 0)
(0.398703 -1.6692e-09 0)
(0.398703 1.21667e-08 0)
(0.398703 -1.42836e-08 0)
(0.398703 1.28288e-08 0)
(0.398703 -4.35869e-09 0)
(0.398703 -4.02623e-09 0)
(0.398703 1.33136e-08 0)
(0.398703 -7.52905e-09 0)
(0.398703 4.85187e-09 0)
(0.398703 1.81313e-09 0)
(0.398703 -6.39968e-09 0)
(0.398703 7.37367e-09 0)
(0.398703 1.00328e-09 0)
(0.398703 -7.11577e-10 0)
(0.398703 2.81268e-09 0)
(0.398703 -2.29593e-09 0)
(0.398703 -1.35688e-09 0)
(0.398703 2.11181e-10 0)
(0.847321 -0.0242279 0)
(0.804308 -0.00789313 0)
(0.848229 -0.038453 0)
(0.840656 -0.017217 0)
(0.80873 -0.0208574 0)
(0.873572 -0.0378645 0)
(0.819036 0.00508703 0)
(0.886474 -0.0100509 0)
(0.911043 -0.0719555 0)
(0.959356 -0.0824172 0)
(0.970748 -0.070011 0)
(1.02077 -0.151611 0)
(1.03956 -0.232404 0)
(0.86921 -0.16308 0)
(0.848372 -0.0923115 0)
(0.881649 -0.154355 0)
(0.752878 -0.220565 0)
(0.699932 -0.180716 0)
(0.736148 -0.0895733 0)
(0.753446 -0.0196482 0)
(0.782475 0.0806974 0)
(0.765384 0.0956454 0)
(0.724632 0.00259288 0)
(0.609466 -0.0221036 0)
(0.356866 0.0509091 0)
(0.30184 -0.0643506 0)
(0.157714 -0.342627 0)
(0.240617 -0.309833 0)
(0.269312 -0.101081 0)
(0.309433 0.106165 0)
(0.392686 0.296487 0)
(0.447845 0.366531 0)
(0.513573 0.32378 0)
(0.530748 0.217751 0)
(0.643013 0.0191297 0)
(0.695983 -0.159522 0)
(0.649064 -0.180894 0)
(0.610415 -0.0513383 0)
(0.621667 0.0690958 0)
(0.595319 0.138296 0)
(0.525068 0.133843 0)
(0.582232 0.0443155 0)
(0.549852 0.0215347 0)
(0.512556 0.0141938 0)
(0.605556 -0.0850035 0)
(0.624084 -0.17315 0)
(0.548672 -0.18273 0)
(0.504124 -0.110561 0)
(0.509558 -0.00117461 0)
(0.506715 0.0681063 0)
(0.492619 0.0772727 0)
(0.479476 0.0547472 0)
(0.466474 0.0296327 0)
(0.452259 0.0132576 0)
(0.43861 0.00528968 0)
(0.427141 0.00221868 0)
(0.418291 0.00122944 0)
(0.411868 0.000861995 0)
(0.407347 0.000596693 0)
(0.404264 0.000347683 0)
(0.402166 0.000146445 0)
(0.400794 1.71267e-05 0)
(0.399888 -4.56344e-05 0)
(0.399332 -6.3052e-05 0)
(0.398979 -5.65569e-05 0)
(0.398781 -4.21952e-05 0)
(0.39866 -2.76009e-05 0)
(0.398599 -1.67554e-05 0)
(0.398564 -9.18362e-06 0)
(0.398546 -4.91866e-06 0)
(0.39854 -2.32093e-06 0)
(0.398533 -1.12155e-06 0)
(0.398534 -4.82031e-07 0)
(0.39853 -1.68185e-07 0)
(0.398531 -1.1445e-07 0)
(0.398531 2.02003e-08 0)
(0.39853 -4.40485e-08 0)
(0.398531 1.47614e-08 0)
(0.39853 -4.95737e-09 0)
(0.398531 -1.53271e-08 0)
(0.398531 1.6114e-08 0)
(0.398531 -1.46449e-08 0)
(0.398531 -1.63186e-09 0)
(0.39853 1.47675e-08 0)
(0.398531 -1.81728e-08 0)
(0.398531 1.60814e-08 0)
(0.398531 -5.97898e-09 0)
(0.398531 -5.15764e-09 0)
(0.398531 1.56252e-08 0)
(0.398531 -9.81481e-09 0)
(0.398531 5.84349e-09 0)
(0.398531 2.15111e-09 0)
(0.398531 -7.89472e-09 0)
(0.398531 8.98357e-09 0)
(0.398531 1.07626e-09 0)
(0.398531 -1.22875e-09 0)
(0.398531 3.28892e-09 0)
(0.398531 -2.41017e-09 0)
(0.398531 -1.66553e-09 0)
(0.398531 1.96792e-10 0)
(0.911688 -0.0243519 0)
(0.877539 -0.00776297 0)
(0.909733 -0.0393998 0)
(0.901331 -0.0193646 0)
(0.877544 -0.0168114 0)
(0.921733 -0.0405953 0)
(0.888562 -0.00284485 0)
(0.936876 -0.0104016 0)
(0.962506 -0.0771119 0)
(0.996508 -0.0935713 0)
(0.990795 -0.0739734 0)
(1.03577 -0.149367 0)
(1.01847 -0.21643 0)
(0.845285 -0.147769 0)
(0.845022 -0.0909774 0)
(0.828566 -0.146694 0)
(0.674237 -0.204502 0)
(0.636326 -0.173966 0)
(0.668312 -0.092687 0)
(0.672058 -0.0215747 0)
(0.703031 0.0778097 0)
(0.691237 0.0970471 0)
(0.66003 0.0192734 0)
(0.551433 0.00945915 0)
(0.308213 0.0778867 0)
(0.272315 -0.054639 0)
(0.131461 -0.337998 0)
(0.182468 -0.314052 0)
(0.209906 -0.103808 0)
(0.25153 0.0984897 0)
(0.334771 0.283418 0)
(0.405256 0.350295 0)
(0.483697 0.314281 0)
(0.511707 0.20636 0)
(0.640311 0.00651719 0)
(0.679144 -0.158295 0)
(0.615447 -0.171759 0)
(0.57228 -0.047626 0)
(0.595464 0.0690591 0)
(0.573975 0.143052 0)
(0.518771 0.133713 0)
(0.586121 0.0436944 0)
(0.542945 0.0264719 0)
(0.522237 0.00968492 0)
(0.612627 -0.0919575 0)
(0.608806 -0.168987 0)
(0.519745 -0.172792 0)
(0.467636 -0.104938 0)
(0.471349 -0.000752255 0)
(0.473674 0.0676746 0)
(0.467279 0.0779794 0)
(0.460945 0.056301 0)
(0.452774 0.0315327 0)
(0.441715 0.0151741 0)
(0.430269 0.00698368 0)
(0.420565 0.00356275 0)
(0.413253 0.00221485 0)
(0.408156 0.00154908 0)
(0.404716 0.00106253 0)
(0.402451 0.000659147 0)
(0.400927 0.000352817 0)
(0.399931 0.000152276 0)
(0.399253 4.12857e-05 0)
(0.398829 -8.57539e-06 0)
(0.398547 -2.34257e-05 0)
(0.398387 -2.27733e-05 0)
(0.398284 -1.65755e-05 0)
(0.398232 -1.07704e-05 0)
(0.398201 -6.00741e-06 0)
(0.398184 -3.33012e-06 0)
(0.398179 -1.52803e-06 0)
(0.398172 -7.54699e-07 0)
(0.398173 -3.15006e-07 0)
(0.39817 -8.85529e-08 0)
(0.398171 -9.04396e-08 0)
(0.398171 4.08696e-08 0)
(0.39817 -4.47673e-08 0)
(0.398171 1.97464e-08 0)
(0.39817 -3.38264e-09 0)
(0.398171 -1.7785e-08 0)
(0.398171 1.99099e-08 0)
(0.39817 -1.72478e-08 0)
(0.398171 -1.37835e-09 0)
(0.39817 1.71557e-08 0)
(0.398171 -2.22923e-08 0)
(0.398171 1.96762e-08 0)
(0.39817 -7.78876e-09 0)
(0.398171 -5.98101e-09 0)
(0.398171 1.78452e-08 0)
(0.398171 -1.24039e-08 0)
(0.398171 7.03292e-09 0)
(0.398171 2.42355e-09 0)
(0.398171 -9.37653e-09 0)
(0.398171 1.05101e-08 0)
(0.398171 1.0388e-09 0)
(0.398171 -2.10902e-09 0)
(0.398171 3.82255e-09 0)
(0.398171 -2.34894e-09 0)
(0.398171 -1.88912e-09 0)
(0.398171 1.78975e-10 0)
(0.957533 -0.0239118 0)
(0.931763 -0.00751947 0)
(0.953809 -0.0392816 0)
(0.944457 -0.0208567 0)
(0.926223 -0.0140109 0)
(0.956229 -0.0411879 0)
(0.935052 -0.00997323 0)
(0.967792 -0.0122959 0)
(0.996027 -0.0799926 0)
(1.00721 -0.0994941 0)
(0.995537 -0.077837 0)
(1.03039 -0.144564 0)
(0.979527 -0.196451 0)
(0.817532 -0.133021 0)
(0.823983 -0.0875932 0)
(0.757084 -0.133294 0)
(0.587871 -0.187893 0)
(0.566715 -0.167958 0)
(0.590478 -0.0936253 0)
(0.580557 -0.0219252 0)
(0.611122 0.0745543 0)
(0.607514 0.0970098 0)
(0.589896 0.0335691 0)
(0.489267 0.0387322 0)
(0.261014 0.101858 0)
(0.246755 -0.0458998 0)
(0.107499 -0.330597 0)
(0.116519 -0.317467 0)
(0.146436 -0.106529 0)
(0.190917 0.090945 0)
(0.273603 0.269531 0)
(0.361057 0.332086 0)
(0.448062 0.302943 0)
(0.491197 0.192229 0)
(0.632942 -0.0062112 0)
(0.65237 -0.154429 0)
(0.571896 -0.160369 0)
(0.52656 -0.0444508 0)
(0.563006 0.0677745 0)
(0.544232 0.146039 0)
(0.509524 0.131189 0)
(0.582841 0.043349 0)
(0.531098 0.0309637 0)
(0.531572 0.00394498 0)
(0.613938 -0.0969484 0)
(0.586679 -0.162117 0)
(0.485678 -0.161213 0)
(0.427176 -0.098544 0)
(0.428905 -0.000504616 0)
(0.436164 0.0662796 0)
(0.43768 0.0775583 0)
(0.43854 0.0569622 0)
(0.435674 0.0328318 0)
(0.42834 0.0166781 0)
(0.419709 0.00836003 0)
(0.412332 0.00463975 0)
(0.407002 0.00297261 0)
(0.403547 0.00204927 0)
(0.401394 0.0013841 0)
(0.400074 0.000866634 0)
(0.399202 0.000489165 0)
(0.398627 0.000243181 0)
(0.398208 0.000101835 0)
(0.397935 3.09996e-05 0)
(0.397736 1.68303e-06 0)
(0.397621 -7.48637e-06 0)
(0.397541 -7.60003e-06 0)
(0.3975 -5.76802e-06 0)
(0.397475 -3.28889e-06 0)
(0.39746 -1.94916e-06 0)
(0.397456 -8.28766e-07 0)
(0.39745 -4.28022e-07 0)
(0.397452 -1.66437e-07 0)
(0.397448 -1.6222e-08 0)
(0.39745 -6.98355e-08 0)
(0.397449 5.95856e-08 0)
(0.397448 -4.55647e-08 0)
(0.39745 2.38575e-08 0)
(0.397448 -1.47444e-09 0)
(0.397449 -2.05441e-08 0)
(0.397449 2.38741e-08 0)
(0.397449 -1.98385e-08 0)
(0.397449 -9.76784e-10 0)
(0.397449 1.94099e-08 0)
(0.397449 -2.65658e-08 0)
(0.397449 2.35573e-08 0)
(0.397449 -9.80649e-09 0)
(0.397449 -6.47643e-09 0)
(0.397449 1.9966e-08 0)
(0.397449 -1.51709e-08 0)
(0.397449 8.31237e-09 0)
(0.397449 2.77439e-09 0)
(0.397449 -1.07546e-08 0)
(0.397449 1.19038e-08 0)
(0.397449 8.15277e-10 0)
(0.397449 -3.1918e-09 0)
(0.397449 4.35798e-09 0)
(0.397449 -2.09459e-09 0)
(0.397449 -2.2235e-09 0)
(0.397449 7.83172e-11 0)
(0.984524 -0.0231271 0)
(0.9664 -0.00732448 0)
(0.979312 -0.0383871 0)
(0.96994 -0.0213805 0)
(0.954397 -0.012528 0)
(0.976508 -0.0404423 0)
(0.958155 -0.0153198 0)