/*--------------------------------*- C++ -*----------------------------------*\
| =========                 |                                                 |
| \\      /  F ield         | OpenFOAM: The Open Source CFD Toolbox           |
|  \\    /   O peration     | Version:  2.4.0                                 |
|   \\  /    A nd           | Web:      www.OpenFOAM.org                      |
|    \\/     M anipulation  |                                                 |
\*---------------------------------------------------------------------------*/
FoamFile
{
    version     2.0;
    format      ascii;
    class       volVectorField;
    location    "75";
    object      U;
}
// * * * * * * * * * * * * * * * * * * * * * * * * * * * * * * * * * * * * * //

dimensions      [0 1 -1 0 0 0 0];

internalField   nonuniform List<vector> 
4400
(
(0.0952825 5.71026e-05 0)
(0.112848 -0.00151469 0)
(0.0923465 0.00245103 0)
(0.084805 0.000773149 0)
(0.102507 -0.00310809 0)
(0.10467 0.00207924 0)
(0.0943223 -4.00675e-05 0)
(0.1034 -0.00088857 0)
(0.0864495 0.00178786 0)
(0.108786 -0.00214632 0)
(0.0933086 0.00117126 0)
(0.105911 0.000745436 0)
(0.0919368 -0.00169372 0)
(0.107598 0.00193628 0)
(0.0865336 -0.00147389 0)
(0.114661 0.000202477 0)
(0.0815225 0.00136469 0)
(0.115772 -0.0021577 0)
(0.099175 0.00135387 0)
(0.0861297 -0.000990199 0)
(0.274154 0.000123994 0)
(0.298147 -0.00477147 0)
(0.255791 0.00791933 0)
(0.281651 0.00104778 0)
(0.276453 -0.00985065 0)
(0.285182 0.0067325 0)
(0.273585 -0.00109471 0)
(0.284294 -0.00203679 0)
(0.255319 0.00496282 0)
(0.313033 -0.00697983 0)
(0.245537 0.00345927 0)
(0.32151 0.00182814 0)
(0.243574 -0.00530262 0)
(0.312523 0.00667092 0)
(0.250532 -0.00552719 0)
(0.307611 0.00139 0)
(0.254924 0.00334941 0)
(0.30085 -0.00816254 0)
(0.288693 0.00821389 0)
(0.240189 -0.0123456 0)
(0.431536 -0.000308653 0)
(0.467161 -0.00725491 0)
(0.395163 0.0136825 0)
(0.471045 -0.000308951 0)
(0.425342 -0.0158616 0)
(0.449147 0.0121249 0)
(0.4421 -0.00325081 0)
(0.445412 -0.00153027 0)
(0.408646 0.00643992 0)
(0.499873 -0.0114282 0)
(0.376102 0.00581148 0)
(0.519379 0.0018396 0)
(0.386575 -0.00769719 0)
(0.483476 0.0104736 0)
(0.431939 -0.00841681 0)
(0.448652 0.00142254 0)
(0.45522 0.00752088 0)
(0.440249 -0.0174292 0)
(0.467226 0.0167436 0)
(0.423288 -0.0165781 0)
(0.565922 -0.00124294 0)
(0.624832 -0.00812493 0)
(0.504841 0.0183256 0)
(0.634492 -0.0022986 0)
(0.566014 -0.0192954 0)
(0.580293 0.0162628 0)
(0.607169 -0.00464427 0)
(0.581807 0.000807332 0)
(0.545128 0.00626233 0)
(0.662782 -0.0143309 0)
(0.494725 0.00838364 0)
(0.678504 -1.8886e-05 0)
(0.539359 -0.00643902 0)
(0.602697 0.0102462 0)
(0.622061 -0.00832859 0)
(0.553549 0.000621927 0)
(0.628958 0.00978271 0)
(0.587651 -0.0206497 0)
(0.590673 0.0188686 0)
(0.613956 -0.0156472 0)
(0.674679 -0.0038574 0)
(0.769938 -0.00647321 0)
(0.605043 0.0244982 0)
(0.742938 -0.0102547 0)
(0.704474 -0.019707 0)
(0.671166 0.0187618 0)
(0.749484 -0.00836107 0)
(0.704191 0.00729259 0)
(0.651742 0.00348433 0)
(0.797003 -0.0166421 0)
(0.603396 0.013162 0)
(0.784824 -0.00705382 0)
(0.688902 -0.000837226 0)
(0.6814 0.00761485 0)
(0.776425 -0.00978912 0)
(0.655584 0.00455656 0)
(0.742998 0.00535991 0)
(0.731327 -0.0187317 0)
(0.683418 0.0189041 0)
(0.750145 -0.0188535 0)
(0.762596 -0.00760887 0)
(0.882659 -0.00630903 0)
(0.71732 0.0362708 0)
(0.809891 -0.0222018 0)
(0.823014 -0.02005 0)
(0.743605 0.0223135 0)
(0.844118 -0.0178716 0)
(0.811942 0.0164162 0)
(0.73563 0.000420607 0)
(0.895287 -0.0211091 0)
(0.708578 0.0220863 0)
(0.848381 -0.018602 0)
(0.809668 0.00551263 0)
(0.745434 0.00656886 0)
(0.876284 -0.0161465 0)
(0.753566 0.0131195 0)
(0.817526 -0.00238037 0)
(0.838838 -0.017223 0)
(0.764266 0.0211225 0)
(0.842465 -0.0246898 0)
(0.839306 -0.0105082 0)
(0.954661 -0.00973618 0)
(0.824525 0.051482 0)
(0.866832 -0.032844 0)
(0.912853 -0.0211322 0)
(0.815615 0.0291578 0)
(0.905068 -0.0304199 0)
(0.894744 0.0253369 0)
(0.80866 -0.00123495 0)
(0.960409 -0.028097 0)
(0.803925 0.0336146 0)
(0.896614 -0.0301506 0)
(0.897204 0.0104887 0)
(0.809078 0.00848184 0)
(0.939239 -0.0258234 0)
(0.834603 0.0235384 0)
(0.875379 -0.0106988 0)
(0.911744 -0.0169258 0)
(0.83365 0.0252048 0)
(0.91029 -0.0309795 0)
(0.905306 -0.0120738 0)
(0.994736 -0.0149685 0)
(0.908495 0.0662091 0)
(0.919589 -0.0409333 0)
(0.972903 -0.0227192 0)
(0.884045 0.0378688 0)
(0.948748 -0.0423141 0)
(0.952665 0.0329955 0)
(0.873653 -0.00157741 0)
(0.998853 -0.0359087 0)
(0.880157 0.0450781 0)
(0.937986 -0.0396051 0)
(0.955666 0.0139836 0)
(0.870649 0.0122729 0)
(0.980244 -0.0359234 0)
(0.896267 0.0337516 0)
(0.923773 -0.0180311 0)
(0.95764 -0.0169318 0)
(0.890823 0.029531 0)
(0.957618 -0.0369102 0)
(0.956456 -0.012634 0)
(1.0111 -0.020101 0)
(0.965325 0.0778416 0)
(0.961833 -0.046383 0)
(1.00413 -0.0242306 0)
(0.940716 0.0457901 0)
(0.977359 -0.0514406 0)
(0.987516 0.0388796 0)
(0.927899 -0.00117294 0)
(1.01492 -0.0422369 0)
(0.934797 0.0544705 0)
(0.968851 -0.0460624 0)
(0.986903 0.015985 0)
(0.923299 0.016533 0)
(1.00124 -0.0442732 0)
(0.938892 0.0424311 0)
(0.961022 -0.023495 0)
(0.980431 -0.0167645 0)
(0.934663 0.0330468 0)
(0.984417 -0.0414942 0)
(0.989396 -0.0125882 0)
(1.00739 -0.0236964 0)
(0.996686 0.0846995 0)
(0.988876 -0.0486666 0)
(1.00889 -0.0248173 0)
(0.98128 0.0509924 0)
(0.988632 -0.0561786 0)
(1.00065 0.042636 0)
(0.967252 -0.000483217 0)
(1.01065 -0.0452548 0)
(0.968593 0.0599946 0)
(0.985639 -0.0485675 0)
(0.993213 0.0168115 0)
(0.9622 0.0198125 0)
(1.00155 -0.0492839 0)
(0.962888 0.0484549 0)
(0.983286 -0.0265775 0)
(0.982599 -0.0160397 0)
(0.963601 0.0352004 0)
(0.991686 -0.043864 0)
(1.00221 -0.0122891 0)
(0.984687 -0.0244813 0)
(1.00486 0.085709 0)
(0.997929 -0.0476123 0)
(0.989549 -0.023884 0)
(1.00394 0.0518911 0)
(0.980327 -0.0556827 0)
(0.993761 0.0437672 0)
(0.987989 -3.5397e-05 0)
(0.98682 -0.044194 0)
(0.982779 0.0603966 0)
(0.985463 -0.0470183 0)
(0.977886 0.0167622 0)
(0.984153 0.0210608 0)
(0.982074 -0.0499427 0)
(0.969301 0.0506677 0)
(0.98799 -0.0270395 0)
(0.966316 -0.0144909 0)
(0.976102 0.0353014 0)
(0.980746 -0.0436345 0)
(0.993693 -0.0118014 0)
(0.942841 -0.0222645 0)
(0.992289 0.0806288 0)
(0.986404 -0.0435543 0)
(0.948572 -0.0217795 0)
(1.00736 0.0480057 0)
(0.950392 -0.0501967 0)
(0.968803 0.0417427 0)
(0.986782 -0.000120139 0)
(0.944164 -0.0395851 0)
(0.978497 0.0557101 0)
(0.965547 -0.0422074 0)
(0.945013 0.0156704 0)
(0.986682 0.019918 0)
(0.944424 -0.046012 0)
(0.959355 0.048298 0)
(0.973648 -0.0252209 0)
(0.933312 -0.0124784 0)
(0.971413 0.0328729 0)
(0.952275 -0.0404716 0)
(0.962331 -0.0108611 0)
(0.881567 -0.0178399 0)
(0.962385 0.0702748 0)
(0.950952 -0.0369493 0)
(0.890166 -0.0193001 0)
(0.989972 0.0405167 0)
(0.897169 -0.0407986 0)
(0.928596 0.036561 0)
(0.960486 -0.000244064 0)
(0.884888 -0.0327758 0)
(0.957193 0.0469809 0)
(0.923886 -0.034881 0)
(0.899479 0.0133775 0)
(0.967791 0.0169097 0)
(0.89005 -0.0386393 0)
(0.93421 0.0417174 0)
(0.938571 -0.0217247 0)
(0.885832 -0.0103485 0)
(0.949239 0.0280759 0)
(0.906457 -0.034752 0)
(0.905112 -0.00899021 0)
(0.803445 -0.0127233 0)
(0.919456 0.0559767 0)
(0.887964 -0.0284289 0)
(0.821605 -0.0172927 0)
(0.94907 0.0313601 0)
(0.82036 -0.0292006 0)
(0.878027 0.0285773 0)
(0.906953 0.000201302 0)
(0.814365 -0.0255576 0)
(0.920867 0.035683 0)
(0.859725 -0.0259051 0)
(0.846792 0.0096711 0)
(0.925206 0.0132874 0)
(0.820552 -0.0297006 0)
(0.895559 0.0324541 0)
(0.880931 -0.0167124 0)
(0.828025 -0.00860378 0)
(0.909276 0.0218567 0)
(0.843989 -0.0273933 0)
(0.818499 -0.00581562 0)
(0.71833 -0.0091598 0)
(0.862442 0.0399872 0)
(0.795202 -0.0186623 0)
(0.750615 -0.0168667 0)
(0.878066 0.0231664 0)
(0.725079 -0.0175386 0)
(0.821671 0.0181743 0)
(0.825474 0.00189876 0)
(0.740501 -0.020179 0)
(0.865754 0.024072 0)
(0.772932 -0.0162514 0)
(0.788706 0.00443032 0)
(0.853837 0.0107434 0)
(0.739388 -0.0211939 0)
(0.842224 0.0221332 0)
(0.799799 -0.010559 0)
(0.763327 -0.00802506 0)
(0.847853 0.0155869 0)
(0.765355 -0.0194996 0)
(0.705342 -0.00206951 0)
(0.635786 -0.00901958 0)
(0.77417 0.0266868 0)
(0.676956 -0.00889806 0)
(0.675014 -0.0182285 0)
(0.768382 0.018218 0)
(0.625469 -0.00892091 0)
(0.749966 0.00747637 0)
(0.715015 0.00495861 0)
(0.66294 -0.0175546 0)
(0.774311 0.0155232 0)
(0.666222 -0.00749327 0)
(0.715261 -0.00118698 0)
(0.747426 0.0103352 0)
(0.6506 -0.0151023 0)
(0.762108 0.0128762 0)
(0.694428 -0.00414178 0)
(0.686359 -0.00882344 0)
(0.754609 0.0109013 0)
(0.668895 -0.0122437 0)
(0.577177 8.67737e-05 0)
(0.541572 -0.00984703 0)
(0.637734 0.0193549 0)
(0.550499 -0.00192195 0)
(0.576976 -0.0187598 0)
(0.62235 0.0157508 0)
(0.527503 -0.00497554 0)
(0.635398 0.000956711 0)
(0.57976 0.00793128 0)
(0.565606 -0.0157672 0)
(0.634319 0.0113535 0)
(0.54904 -0.00200832 0)
(0.607372 -0.00501148 0)
(0.608649 0.0108052 0)
(0.550066 -0.0116964 0)
(0.637624 0.00710745 0)
(0.568258 0.000975954 0)
(0.583565 -0.00972805 0)
(0.622023 0.00850618 0)
(0.554321 -0.00689365 0)
(0.436377 0.000459847 0)
(0.413684 -0.00799007 0)
(0.472341 0.0140065 0)
(0.423136 0.000539276 0)
(0.439584 -0.0154255 0)
(0.456432 0.0126003 0)
(0.412333 -0.00328798 0)
(0.473589 -0.000720678 0)
(0.435007 0.00783417 0)
(0.434102 -0.0125206 0)
(0.464376 0.0085726 0)
(0.422082 -0.000206504 0)
(0.457332 -0.00536119 0)
(0.453076 0.00947289 0)
(0.424783 -0.00893472 0)
(0.473384 0.00444718 0)
(0.430067 0.00274363 0)
(0.445362 -0.00874074 0)
(0.460205 0.00694233 0)
(0.422803 -0.00396436 0)
(0.276173 0.000590451 0)
(0.258122 -0.00486663 0)
(0.295053 0.00762174 0)
(0.27845 0.00157049 0)
(0.271561 -0.00964336 0)
(0.281094 0.00727281 0)
(0.26856 -0.00157075 0)
(0.290412 -0.00134861 0)
(0.280529 0.00533213 0)
(0.27285 -0.00748962 0)
(0.284995 0.00469464 0)
(0.273889 0.000738466 0)
(0.281926 -0.00396123 0)
(0.287374 0.00586489 0)
(0.270987 -0.00519367 0)
(0.291326 0.00203326 0)
(0.276976 0.00257296 0)
(0.278097 -0.00570177 0)
(0.285281 0.00417626 0)
(0.270777 -0.00188081 0)
(0.0971303 0.000326806 0)
(0.0847306 -0.00149709 0)
(0.101286 0.00207994 0)
(0.109826 0.000783784 0)
(0.0902264 -0.00308604 0)
(0.0940235 0.00211811 0)
(0.0989092 -0.000465792 0)
(0.0979227 -0.000747174 0)
(0.105339 0.00178603 0)
(0.0949183 -0.00230778 0)
(0.0959265 0.00129759 0)
(0.101298 0.000476716 0)
(0.0953055 -0.0014902 0)
(0.103607 0.00183629 0)
(0.0969165 -0.00161754 0)
(0.098183 0.000417812 0)
(0.102104 0.00105387 0)
(0.0950291 -0.00191769 0)
(0.0970347 0.00123701 0)
(0.0967317 -0.000544062 0)
(0.180787 -0.0163985 0)
(0.00720908 0.00369201 0)
(0.300619 -0.0238812 0)
(-0.0259749 -0.00424678 0)
(0.371767 -0.00681203 0)
(-0.065226 0.0233726 0)
(0.469384 0.0120428 0)
(0.144113 0.0483889 0)
(0.338099 -0.0234045 0)
(0.464142 -0.0188422 0)
(0.408285 -0.0358414 0)
(0.555296 -0.0888664 0)
(0.616592 -0.0781591 0)
(0.60945 -0.0471064 0)
(0.650842 -0.0486316 0)
(0.778942 -0.0993556 0)
(0.704804 -0.0210637 0)
(0.849056 -0.0785039 0)
(0.927266 -0.172742 0)
(0.803017 -0.115509 0)
(0.870418 -0.161304 0)
(0.85812 -0.30022 0)
(0.653842 -0.324867 0)
(0.468284 -0.295492 0)
(0.405071 -0.29162 0)
(0.406782 -0.215389 0)
(0.382136 -0.046744 0)
(0.629864 0.185732 0)
(0.657437 0.189803 0)
(0.702757 0.128941 0)
(0.651547 0.0274042 0)
(0.359373 -0.140714 0)
(0.574549 -0.101841 0)
(0.637219 0.00321128 0)
(0.609457 0.0892762 0)
(0.696705 0.245988 0)
(0.717897 0.320602 0)
(0.621718 0.27911 0)
(0.50062 0.244646 0)
(0.461253 0.201417 0)
(0.473439 0.13055 0)
(0.479457 0.0832052 0)
(0.511954 -0.0148849 0)
(0.560986 -0.170318 0)
(0.604601 -0.242801 0)
(0.594023 -0.234452 0)
(0.552904 -0.213506 0)
(0.528206 -0.171744 0)
(0.486051 -0.0961671 0)
(0.477234 0.00299047 0)
(0.512736 0.0852122 0)
(0.497502 0.162249 0)
(0.467243 0.206387 0)
(0.483819 0.180108 0)
(0.487571 0.107866 0)
(0.532219 -0.0274615 0)
(0.565467 -0.159066 0)
(0.540627 -0.199064 0)
(0.51138 -0.156859 0)
(0.487208 -0.0771006 0)
(0.489965 0.0247845 0)
(0.505156 0.108274 0)
(0.497805 0.128116 0)
(0.492713 0.0711745 0)
(0.512597 -0.0219079 0)
(0.519779 -0.0865684 0)
(0.504857 -0.0917007 0)
(0.506865 -0.0309558 0)
(0.528391 0.0510878 0)
(0.53472 0.0913003 0)
(0.526506 0.0797165 0)
(0.516516 0.0451233 0)
(0.509353 0.0111896 0)
(0.506224 -0.0127084 0)
(0.505429 -0.0246888 0)
(0.50359 -0.0263745 0)
(0.499422 -0.0213789 0)
(0.493836 -0.013708 0)
(0.487663 -0.00666257 0)
(0.480937 -0.00205942 0)
(0.473504 -3.35086e-05 0)
(0.465463 0.000300395 0)
(0.457197 -6.65919e-05 0)
(0.44923 -0.000510768 0)
(0.442056 -0.000791697 0)
(0.436005 -0.000887684 0)
(0.431204 -0.00085228 0)
(0.427601 -0.000744035 0)
(0.425032 -0.000606251 0)
(0.423283 -0.000466586 0)
(0.422142 -0.000341109 0)
(0.421426 -0.000237601 0)
(0.420994 -0.000157983 0)
(0.420742 -0.000100449 0)
(0.4206 -6.11803e-05 0)
(0.420522 -3.5706e-05 0)
(0.420482 -2.0119e-05 0)
(0.420461 -1.07192e-05 0)
(0.420451 -5.89882e-06 0)
(0.420445 -2.37733e-06 0)
(0.373865 -0.00910608 0)
(0.173115 0.000902958 0)
(0.432731 -0.0265491 0)
(0.121091 -0.00566098 0)
(0.479199 -0.00855923 0)
(0.060003 0.0165312 0)
(0.52809 -0.00882316 0)
(0.298508 0.0531245 0)
(0.432954 -0.0379549 0)
(0.57826 -0.0417004 0)
(0.541207 -0.0415809 0)
(0.656273 -0.0996157 0)
(0.73254 -0.0907501 0)
(0.709351 -0.0481503 0)
(0.758658 -0.0647113 0)
(0.85862 -0.105965 0)
(0.797996 -0.0256275 0)
(0.921967 -0.0892808 0)
(0.960908 -0.173358 0)
(0.834613 -0.110573 0)
(0.884239 -0.156363 0)
(0.836483 -0.278677 0)
(0.612884 -0.294794 0)
(0.427622 -0.275525 0)
(0.368588 -0.28114 0)
(0.3337 -0.211871 0)
(0.305188 -0.0574772 0)
(0.588364 0.156608 0)
(0.581602 0.178573 0)
(0.669475 0.13879 0)
(0.562067 0.0481876 0)
(0.295739 -0.146475 0)
(0.525189 -0.117671 0)
(0.615357 -0.000296295 0)
(0.55957 0.0835162 0)
(0.645652 0.23998 0)
(0.68995 0.323189 0)
(0.618445 0.290538 0)
(0.51429 0.256451 0)
(0.482629 0.204994 0)
(0.499657 0.127636 0)
(0.50909 0.0811748 0)
(0.543542 -0.0178705 0)
(0.593759 -0.176838 0)
(0.631334 -0.246421 0)
(0.60844 -0.231013 0)
(0.548808 -0.208067 0)
(0.513634 -0.165736 0)
(0.469886 -0.0913219 0)
(0.459809 0.00256644 0)
(0.4942 0.0840402 0)
(0.483477 0.163703 0)
(0.464333 0.20512 0)
(0.489798 0.177932 0)
(0.495396 0.106035 0)
(0.54589 -0.0313774 0)
(0.575787 -0.16027 0)
(0.539564 -0.196275 0)
(0.501381 -0.152559 0)
(0.472863 -0.0741203 0)
(0.474261 0.0242245 0)
(0.49242 0.106715 0)
(0.489262 0.127946 0)
(0.489975 0.0702891 0)
(0.511298 -0.0234433 0)
(0.514918 -0.0863584 0)
(0.49659 -0.0904329 0)
(0.49535 -0.0315413 0)
(0.516256 0.0492288 0)
(0.526564 0.0905593 0)
(0.524066 0.0803527 0)
(0.518873 0.0461046 0)
(0.514234 0.0118354 0)
(0.511675 -0.0124291 0)
(0.510451 -0.0244717 0)
(0.507597 -0.0259453 0)
(0.502044 -0.0207165 0)
(0.495077 -0.0129307 0)
(0.487889 -0.00584447 0)
(0.480638 -0.00119832 0)
(0.473069 0.000879905 0)
(0.465101 0.00125077 0)
(0.456977 0.000874082 0)
(0.44915 0.000363785 0)
(0.442085 -2.97645e-05 0)
(0.436105 -0.000263934 0)
(0.431336 -0.000370193 0)
(0.427732 -0.000390443 0)
(0.425138 -0.000358935 0)
(0.423351 -0.000300962 0)
(0.42217 -0.000234565 0)
(0.421417 -0.000171594 0)
(0.420954 -0.000118532 0)
(0.42068 -7.7659e-05 0)
(0.420522 -4.84454e-05 0)
(0.420435 -2.88191e-05 0)
(0.420388 -1.64945e-05 0)
(0.420363 -8.89854e-06 0)
(0.420351 -4.95284e-06 0)
(0.420344 -2.01605e-06 0)
(0.507424 -0.0117859 0)
(0.384796 0.00430342 0)
(0.576402 -0.0260417 0)
(0.307642 -0.0039613 0)
(0.619466 -0.00487457 0)
(0.260657 0.0178519 0)
(0.58331 -0.0281856 0)
(0.45117 0.0467534 0)
(0.553205 -0.045307 0)
(0.697276 -0.065369 0)
(0.669871 -0.0476313 0)
(0.752761 -0.105568 0)
(0.826873 -0.102389 0)
(0.792767 -0.0485673 0)
(0.845188 -0.0785148 0)
(0.915794 -0.112292 0)
(0.86355 -0.0285425 0)
(0.97259 -0.0959274 0)
(0.97624 -0.170108 0)
(0.846963 -0.103067 0)
(0.883579 -0.14851 0)
(0.804571 -0.253713 0)
(0.56859 -0.262627 0)
(0.387783 -0.255433 0)
(0.328153 -0.270141 0)
(0.281651 -0.208147 0)
(0.265544 -0.0727959 0)
(0.550494 0.127069 0)
(0.510841 0.167539 0)
(0.624574 0.149415 0)
(0.474574 0.0694383 0)
(0.259548 -0.151985 0)
(0.470599 -0.135054 0)
(0.587157 -0.00403413 0)
(0.515362 0.0795752 0)
(0.592432 0.232475 0)
(0.655419 0.321845 0)
(0.608813 0.298544 0)
(0.522859 0.266177 0)
(0.500647 0.207317 0)
(0.523376 0.124103 0)
(0.535567 0.0788576 0)
(0.571504 -0.0213223 0)
(0.624093 -0.182979 0)
(0.654311 -0.24837 0)
(0.618058 -0.225345 0)
(0.539757 -0.200583 0)
(0.495124 -0.158813 0)
(0.450821 -0.0862472 0)
(0.440118 0.0022167 0)
(0.473379 0.0826387 0)
(0.466692 0.164123 0)
(0.458879 0.202366 0)
(0.492835 0.175079 0)
(0.500232 0.103492 0)
(0.557132 -0.0355662 0)
(0.582515 -0.160437 0)
(0.534667 -0.191965 0)
(0.48782 -0.147332 0)
(0.455802 -0.0707976 0)
(0.456341 0.0236049 0)
(0.476892 0.104726 0)
(0.477769 0.126999 0)
(0.484661 0.0687921 0)
(0.507054 -0.0248372 0)
(0.506763 -0.0856441 0)
(0.485051 -0.0886501 0)
(0.480812 -0.0317944 0)
(0.500983 0.0471698 0)
(0.514927 0.0891534 0)
(0.517977 0.0802819 0)
(0.517592 0.0466106 0)
(0.515542 0.0123024 0)
(0.513736 -0.0121584 0)
(0.512333 -0.024169 0)
(0.508639 -0.0253722 0)
(0.501793 -0.0198905 0)
(0.493509 -0.0120149 0)
(0.48537 -0.00493983 0)
(0.477677 -0.0003079 0)
(0.470091 0.00178748 0)
(0.462373 0.00217675 0)
(0.45463 0.00178357 0)
(0.447232 0.0012069 0)
(0.440591 0.000704045 0)
(0.434991 0.000337109 0)
(0.430533 9.54851e-05 0)
(0.427161 -4.72413e-05 0)
(0.424724 -0.000117119 0)
(0.423034 -0.000137435 0)
(0.421905 -0.000128113 0)
(0.421178 -0.000104743 0)
(0.420725 -7.79798e-05 0)
(0.420452 -5.38625e-05 0)
(0.420293 -3.49305e-05 0)
(0.420204 -2.13905e-05 0)
(0.420155 -1.25198e-05 0)
(0.420129 -6.87032e-06 0)
(0.420116 -3.88098e-06 0)
(0.420108 -1.60034e-06 0)
(0.6238 -0.0123432 0)
(0.546672 0.00326613 0)
(0.710237 -0.0246588 0)
(0.469427 -0.00206316 0)
(0.730724 -0.00846785 0)
(0.477157 0.0233083 0)
(0.673375 -0.0332323 0)
(0.606299 0.0340321 0)
(0.676456 -0.0501953 0)
(0.801486 -0.086971 0)
(0.775559 -0.0555285 0)
(0.837752 -0.107896 0)
(0.897953 -0.110458 0)
(0.857314 -0.0487788 0)
(0.911021 -0.0896873 0)
(0.953768 -0.116104 0)
(0.906581 -0.0304228 0)
(1.00266 -0.099715 0)
(0.973396 -0.162607 0)
(0.843985 -0.093914 0)
(0.871874 -0.138188 0)
(0.764335 -0.225528 0)
(0.520803 -0.229546 0)
(0.346724 -0.235994 0)
(0.284138 -0.260855 0)
(0.243911 -0.20593 0)
(0.243985 -0.0887272 0)
(0.499735 0.101795 0)
(0.439521 0.158367 0)
(0.562109 0.161575 0)
(0.398533 0.0892457 0)
(0.237026 -0.155596 0)
(0.419729 -0.150278 0)
(0.546771 -0.00775274 0)
(0.472052 0.0772799 0)
(0.538169 0.224255 0)
(0.615087 0.317033 0)
(0.5932 0.303304 0)
(0.526517 0.273743 0)
(0.515094 0.208281 0)
(0.544666 0.119967 0)
(0.558616 0.0764356 0)
(0.596004 -0.0253664 0)
(0.651953 -0.188726 0)
(0.673049 -0.248432 0)
(0.622358 -0.217354 0)
(0.525576 -0.191175 0)
(0.472707 -0.151146 0)
(0.428959 -0.0810644 0)
(0.418192 0.00195017 0)
(0.450325 0.0810744 0)
(0.447155 0.163479 0)
(0.451088 0.198177 0)
(0.492834 0.171555 0)
(0.502335 0.100234 0)
(0.566074 -0.039948 0)
(0.58554 -0.159463 0)
(0.525935 -0.186144 0)
(0.470839 -0.141254 0)
(0.43619 -0.0672028 0)
(0.436358 0.0229308 0)
(0.458679 0.102365 0)
(0.46351 0.125272 0)
(0.476918 0.0666851 0)
(0.499917 -0.0260489 0)
(0.495417 -0.08441 0)
(0.470364 -0.0863667 0)
(0.463355 -0.0317747 0)
(0.482723 0.044927 0)
(0.499979 0.0871275 0)
(0.508394 0.0795138 0)
(0.512771 0.0466466 0)
(0.513311 0.0125571 0)
(0.512462 -0.0119297 0)
(0.511144 -0.0238075 0)
(0.506751 -0.0246706 0)
(0.498664 -0.0189089 0)
(0.489107 -0.0109678 0)
(0.480086 -0.00395913 0)
(0.472047 0.000600002 0)
(0.464581 0.00267221 0)
(0.4573 0.00305417 0)
(0.450183 0.00263134 0)
(0.443504 0.00198398 0)
(0.437594 0.00137439 0)
(0.432671 0.000882476 0)
(0.428787 0.000516356 0)
(0.425863 0.000262767 0)
(0.42375 0.000101963 0)
(0.422279 1.1659e-05 0)
(0.421289 -3.01713e-05 0)
(0.420644 -4.25394e-05 0)
(0.420237 -3.97604e-05 0)
(0.419989 -3.11347e-05 0)
(0.419843 -2.18419e-05 0)
(0.419759 -1.40962e-05 0)
(0.419713 -8.56608e-06 0)
(0.419687 -4.82469e-06 0)
(0.419675 -2.78837e-06 0)
(0.419667 -1.17037e-06 0)
(0.732912 -0.00928821 0)
(0.671104 0.00242885 0)
(0.806277 -0.0260054 0)
(0.614884 0.00363128 0)
(0.803337 -0.0147554 0)
(0.642624 0.0244227 0)
(0.764435 -0.0317572 0)
(0.741248 0.0182424 0)
(0.788265 -0.052096 0)
(0.885262 -0.101226 0)
(0.85723 -0.0631686 0)
(0.905806 -0.108269 0)
(0.945336 -0.114818 0)
(0.903963 -0.049873 0)
(0.957432 -0.098253 0)
(0.971515 -0.11738 0)
(0.931247 -0.0319906 0)
(1.01422 -0.100213 0)
(0.95425 -0.151278 0)
(0.831344 -0.0837 0)
(0.851051 -0.125642 0)
(0.716218 -0.194988 0)
(0.471348 -0.196022 0)
(0.30517 -0.216728 0)
(0.237911 -0.252767 0)
(0.205646 -0.205562 0)
(0.218873 -0.100572 0)
(0.417835 0.0837927 0)
(0.359294 0.151435 0)
(0.481511 0.174265 0)
(0.335108 0.106545 0)
(0.204721 -0.161592 0)
(0.376882 -0.164043 0)
(0.494807 -0.0116987 0)
(0.424724 0.0760018 0)
(0.483268 0.215852 0)
(0.570122 0.309081 0)
(0.571998 0.304673 0)
(0.525033 0.27866 0)
(0.525524 0.207475 0)
(0.563591 0.115317 0)
(0.577953 0.0738905 0)
(0.617456 -0.0301942 0)
(0.6772 -0.193994 0)
(0.686969 -0.246335 0)
(0.620834 -0.206981 0)
(0.506205 -0.179956 0)
(0.446475 -0.14292 0)
(0.404436 -0.0759349 0)
(0.394107 0.00173006 0)
(0.425072 0.0793854 0)
(0.424857 0.161745 0)
(0.441233 0.192609 0)
(0.489656 0.167375 0)
(0.502056 0.0962582 0)
(0.572803 -0.0444021 0)
(0.584737 -0.157233 0)
(0.513408 -0.178836 0)
(0.450621 -0.134423 0)
(0.414177 -0.0634546 0)
(0.414411 0.0222106 0)
(0.437871 0.0996784 0)
(0.446724 0.122745 0)
(0.466911 0.064031 0)
(0.48996 -0.0270244 0)
(0.481011 -0.0826394 0)
(0.452696 -0.0836352 0)
(0.44312 -0.0314245 0)
(0.461633 0.042552 0)
(0.481903 0.0845232 0)
(0.495509 0.0780729 0)
(0.504537 0.0462123 0)
(0.507627 0.0125871 0)
(0.507979 -0.0117704 0)
(0.507001 -0.02341 0)
(0.501985 -0.0238489 0)
(0.492659 -0.0177771 0)
(0.481863 -0.00979603 0)
(0.472043 -0.00291341 0)
(0.463779 0.00151458 0)
(0.456592 0.0035147 0)
(0.449956 0.00385712 0)
(0.443722 0.00338611 0)
(0.438051 0.0026609 0)
(0.433166 0.00194751 0)
(0.42919 0.0013416 0)
(0.426108 0.000866777 0)
(0.423815 0.000519397 0)
(0.422164 0.000283272 0)
(0.421011 0.000135637 0)
(0.420228 5.19983e-05 0)
(0.419711 1.02582e-05 0)
(0.419381 -6.88103e-06 0)
(0.419176 -1.12995e-05 0)
(0.419052 -1.02524e-05 0)
(0.418981 -7.54667e-06 0)
(0.418941 -4.96826e-06 0)
(0.418919 -2.94091e-06 0)
(0.418908 -1.76932e-06 0)
(0.418901 -7.65328e-07 0)
(0.815783 -0.0058178 0)
(0.773015 0.00303449 0)
(0.870777 -0.0287317 0)
(0.73346 0.0101946 0)
(0.859545 -0.0193419 0)
(0.761151 0.0209076 0)
(0.840907 -0.0277875 0)
(0.839611 0.00192731 0)
(0.874992 -0.0536252 0)
(0.94324 -0.108779 0)
(0.91401 -0.0714979 0)
(0.95588 -0.107914 0)
(0.971844 -0.114965 0)
(0.935671 -0.0519165 0)
(0.98525 -0.103934 0)
(0.969995 -0.115657 0)
(0.939781 -0.0331715 0)
(1.00649 -0.0981529 0)
(0.920498 -0.137232 0)
(0.811492 -0.0735136 0)
(0.820817 -0.111303 0)
(0.661006 -0.162437 0)
(0.420223 -0.162823 0)
(0.262559 -0.197944 0)
(0.190597 -0.244845 0)
(0.15858 -0.206377 0)
(0.182687 -0.107398 0)
(0.310648 0.0719579 0)
(0.276249 0.144801 0)
(0.389996 0.185604 0)
(0.275436 0.119694 0)
(0.160118 -0.17195 0)
(0.337173 -0.177123 0)
(0.433175 -0.0148498 0)
(0.371712 0.0748145 0)
(0.427036 0.20736 0)
(0.52122 0.298562 0)
(0.545893 0.302973 0)
(0.518887 0.281053 0)
(0.531993 0.204836 0)
(0.580235 0.110263 0)
(0.593307 0.0712815 0)
(0.636525 -0.0358577 0)
(0.699528 -0.198546 0)
(0.695381 -0.241824 0)
(0.612957 -0.194208 0)
(0.481703 -0.167107 0)
(0.41656 -0.134368 0)
(0.377404 -0.0710094 0)
(0.367977 0.00154016 0)
(0.39763 0.0775917 0)
(0.399815 0.158898 0)
(0.42963 0.185694 0)
(0.483141 0.162565 0)
(0.499855 0.0914169 0)
(0.577349 -0.0488266 0)
(0.579978 -0.153637 0)
(0.497167 -0.170095 0)
(0.427394 -0.126957 0)
(0.389887 -0.0596453 0)
(0.390515 0.0214485 0)
(0.414543 0.0966899 0)
(0.427694 0.119415 0)
(0.454806 0.0608538 0)
(0.47729 -0.0277165 0)
(0.463729 -0.0803427 0)
(0.432234 -0.0804709 0)
(0.420267 -0.0308027 0)
(0.437883 0.0400606 0)
(0.460898 0.0813748 0)
(0.47955 0.0759825 0)
(0.493037 0.0453168 0)
(0.498622 0.0123769 0)
(0.500489 -0.0117134 0)
(0.500057 -0.0229931 0)
(0.494388 -0.0229084 0)
(0.48377 -0.0164957 0)
(0.471773 -0.0085077 0)
(0.46127 -0.00181562 0)
(0.452943 0.00241678 0)
(0.446231 0.00429148 0)
(0.440476 0.0045573 0)
(0.435398 0.0040158 0)
(0.431018 0.00320467 0)
(0.427423 0.00239271 0)
(0.424617 0.0016883 0)
(0.422513 0.00112593 0)
(0.420979 0.000706974 0)
(0.419882 0.00041551 0)
(0.419111 0.000226639 0)
(0.418578 0.000113096 0)
(0.418219 5.01844e-05 0)
(0.417983 1.84589e-05 0)
(0.417833 4.28445e-06 0)
(0.41774 -9.76226e-07 0)
(0.417685 -2.2127e-06 0)
(0.417654 -1.99091e-06 0)
(0.417636 -1.3609e-06 0)
(0.417628 -9.0296e-07 0)
(0.417622 -4.17207e-07 0)
(0.876342 -0.00212217 0)
(0.854936 0.00423791 0)
(0.916034 -0.0320327 0)
(0.82422 0.0158771 0)
(0.906338 -0.0213822 0)
(0.845517 0.0141777 0)
(0.902389 -0.0228611 0)
(0.905773 -0.0129394 0)
(0.938004 -0.0554082 0)
(0.9799 -0.110207 0)
(0.952701 -0.0791485 0)
(0.988803 -0.10647 0)
(0.979949 -0.111466 0)
(0.954041 -0.0550122 0)
(0.992577 -0.106644 0)
(0.950552 -0.110954 0)
(0.933784 -0.0344018 0)
(0.980814 -0.0932423 0)
(0.876185 -0.121011 0)
(0.786777 -0.0640103 0)
(0.781104 -0.0949371 0)
(0.599594 -0.128421 0)
(0.368425 -0.130518 0)
(0.219961 -0.179491 0)
(0.143188 -0.235591 0)
(0.105202 -0.207261 0)
(0.136841 -0.110749 0)
(0.203921 0.0627442 0)
(0.203998 0.13637 0)
(0.297877 0.193538 0)
(0.210119 0.12804 0)
(0.117063 -0.184285 0)
(0.287387 -0.189218 0)
(0.364024 -0.0164968 0)
(0.311596 0.0733009 0)
(0.369818 0.198533 0)
(0.468845 0.285607 0)
(0.51522 0.29814 0)
(0.508125 0.280566 0)
(0.534315 0.200018 0)
(0.59438 0.104679 0)
(0.60437 0.0685211 0)
(0.654022 -0.0425204 0)
(0.71837 -0.2021 0)
(0.697471 -0.234627 0)
(0.598247 -0.179087 0)
(0.452327 -0.152859 0)
(0.383156 -0.125681 0)
(0.348017 -0.0664375 0)
(0.339941 0.00135553 0)
(0.367926 0.0757598 0)
(0.372087 0.154873 0)
(0.416591 0.177544 0)
(0.473114 0.157144 0)
(0.496264 0.0855434 0)
(0.57963 -0.0530361 0)
(0.571124 -0.148561 0)
(0.477344 -0.16001 0)
(0.401415 -0.118963 0)
(0.363397 -0.0558483 0)
(0.364584 0.0206608 0)
(0.388758 0.0934129 0)
(0.406739 0.115255 0)
(0.440779 0.0572148 0)
(0.462049 -0.0280639 0)
(0.443773 -0.0775101 0)
(0.409196 -0.0769167 0)
(0.394963 -0.0299278 0)
(0.411647 0.0374766 0)
(0.437188 0.0777193 0)
(0.460773 0.0732687 0)
(0.478418 0.043976 0)
(0.486496 0.0119105 0)
(0.490263 -0.0117894 0)
(0.49046 -0.022561 0)
(0.483965 -0.0218389 0)
(0.471956 -0.0150616 0)
(0.45883 -0.00711478 0)
(0.447823 -0.000685679 0)
(0.439655 0.00328222 0)
(0.433667 0.00497478 0)
(0.429066 0.0051235 0)
(0.425426 0.00448796 0)
(0.422598 0.00358505 0)
(0.420503 0.00268471 0)
(0.419019 0.00190335 0)
(0.417989 0.0012802 0)
(0.417272 0.000816306 0)
(0.416762 0.00049261 0)
(0.416391 0.000280684 0)
(0.41612 0.000150499 0)
(0.415925 7.5527e-05 0)
(0.415789 3.51476e-05 0)
(0.415697 1.49081e-05 0)
(0.415638 5.54646e-06 0)
(0.415602 1.63865e-06 0)
(0.41558 2.08385e-07 0)
(0.415568 -1.72806e-07 0)
(0.415562 -2.40012e-07 0)
(0.415557 -1.47133e-07 0)
(0.919299 0.00147972 0)
(0.91746 0.0055656 0)
(0.946305 -0.0350632 0)
(0.890421 0.0200586 0)
(0.941961 -0.0213326 0)
(0.903921 0.0055963 0)
(0.946905 -0.017791 0)
(0.948446 -0.0245281 0)
(0.979639 -0.0578223 0)
(0.997721 -0.107921 0)
(0.975756 -0.0861249 0)
(1.00242 -0.10432 0)
(0.971088 -0.105601 0)
(0.958493 -0.0588306 0)
(0.978444 -0.106046 0)
(0.915025 -0.104012 0)
(0.914089 -0.0358572 0)
(0.938021 -0.0859006 0)
(0.823014 -0.104092 0)
(0.755611 -0.0554658 0)
(0.729549 -0.0767786 0)
(0.531766 -0.0939901 0)
(0.31651 -0.0999596 0)
(0.178972 -0.16122 0)
(0.0967179 -0.224708 0)
(0.0505528 -0.207492 0)
(0.0837606 -0.11247 0)
(0.116579 0.0543365 0)
(0.147249 0.126838 0)
(0.210814 0.199204 0)
(0.14267 0.133084 0)
(0.0805809 -0.196847 0)
(0.21156 -0.199861 0)
(0.287247 -0.0173251 0)
(0.246022 0.0706554 0)
(0.310802 0.18913 0)
(0.414075 0.270727 0)
(0.480604 0.290481 0)
(0.492942 0.277317 0)
(0.532841 0.193075 0)
(0.60578 0.0988807 0)
(0.610986 0.0654248 0)
(0.670784 -0.0502399 0)
(0.732839 -0.204184 0)
(0.692309 -0.22447 0)
(0.576292 -0.161768 0)
(0.418544 -0.137494 0)
(0.34651 -0.117095 0)
(0.316346 -0.0623399 0)
(0.310076 0.00116721 0)
(0.335775 0.0739087 0)
(0.341871 0.149577 0)
(0.402364 0.168257 0)
(0.459435 0.151091 0)
(0.491872 0.0785898 0)
(0.579446 -0.0567962 0)
(0.558047 -0.141918 0)
(0.454124 -0.148706 0)
(0.372974 -0.110533 0)
(0.334736 -0.0521065 0)
(0.336446 0.0198668 0)
(0.360599 0.0898167 0)
(0.384212 0.110241 0)
(0.424996 0.0531801 0)
(0.444434 -0.0280313 0)
(0.421384 -0.0741528 0)
(0.383827 -0.0730056 0)
(0.367387 -0.0288275 0)
(0.383089 0.034816 0)
(0.411028 0.0735861 0)
(0.439454 0.0699643 0)
(0.460824 0.0422099 0)
(0.471546 0.0111582 0)
(0.477627 -0.0120247 0)
(0.478306 -0.0220986 0)
(0.470639 -0.0206174 0)
(0.457132 -0.0134742 0)
(0.443029 -0.00563626 0)
(0.431794 0.000448425 0)
(0.424092 0.0040794 0)
(0.419139 0.00553118 0)
(0.416001 0.00552187 0)
(0.414072 0.0047717 0)
(0.413002 0.00377763 0)
(0.412529 0.00280719 0)
(0.41241 0.00197771 0)
(0.412449 0.0013257 0)
(0.412519 0.000846432 0)
(0.412558 0.000514878 0)
(0.412557 0.000298386 0)
(0.412525 0.000164719 0)
(0.41248 8.6583e-05 0)
(0.412435 4.33089e-05 0)
(0.412398 2.05958e-05 0)
(0.41237 9.29354e-06 0)
(0.412351 3.97283e-06 0)
(0.412339 1.59817e-06 0)
(0.412331 6.013e-07 0)
(0.412328 2.03705e-07 0)
(0.412325 3.72416e-08 0)
(0.945694 0.00472923 0)
(0.959703 0.00664134 0)
(0.962164 -0.0370754 0)
(0.933692 0.0226764 0)
(0.964597 -0.019807 0)
(0.94007 -0.00298903 0)
(0.973172 -0.0130944 0)
(0.973017 -0.0325869 0)
(0.9999 -0.0606048 0)
(0.999347 -0.103409 0)
(0.983393 -0.0914276 0)
(0.995218 -0.100583 0)
(0.947478 -0.0981364 0)
(0.947019 -0.0623999 0)
(0.941842 -0.1021 0)
(0.86613 -0.0958118 0)
(0.880747 -0.0374647 0)
(0.878824 -0.0764357 0)
(0.762648 -0.0872642 0)
(0.714277 -0.0470851 0)
(0.664234 -0.0564358 0)
(0.459358 -0.0599012 0)
(0.266614 -0.0717659 0)
(0.14105 -0.142935 0)
(0.0520431 -0.212787 0)
(-0.00340234 -0.206209 0)
(0.0248334 -0.114451 0)
(0.0488622 0.0463062 0)
(0.0986954 0.11798 0)
(0.128508 0.203539 0)
(0.0858455 0.135673 0)
(0.0446761 -0.205624 0)
(0.105492 -0.209786 0)
(0.204929 -0.0195864 0)
(0.175668 0.0661704 0)