/*--------------------------------*- C++ -*----------------------------------*\
| =========                 |                                                 |
| \\      /  F ield         | OpenFOAM: The Open Source CFD Toolbox           |
|  \\    /   O peration     | Version:  2.4.0                                 |
|   \\  /    A nd           | Web:      www.OpenFOAM.org                      |
|    \\/     M anipulation  |                                                 |
\*---------------------------------------------------------------------------*/
FoamFile
{
    version     2.0;
    format      ascii;
    class       volScalarField;
    location    "0.29";
    object      nuSgs;
}
// * * * * * * * * * * * * * * * * * * * * * * * * * * * * * * * * * * * * * //

dimensions      [0 2 -1 0 0 0 0];

internalField   nonuniform List<scalar> 
8800
(
0.00133931
0.00150605
0.00139379
0.00122728
0.0011233
0.00104718
0.00100092
0.000955983
0.000930331
0.000899611
0.000884539
0.000862168
0.000852801
0.000834219
0.000825879
0.000809678
0.000798584
0.000783944
0.000766316
0.000747535
0.000556926
0.000980599
0.00108409
0.00108078
0.00106481
0.00103005
0.00100612
0.000972785
0.000953879
0.000926543
0.000912397
0.000890397
0.000881745
0.00086308
0.000856788
0.000842071
0.000836071
0.000822865
0.000812444
0.000806403
0.000136518
0.000402208
0.000587812
0.000654871
0.000709277
0.00073379
0.000754142
0.000758266
0.000761307
0.000758351
0.000756284
0.000749318
0.000746854
0.000739147
0.000737471
0.000730388
0.000729483
0.00072391
0.000722406
0.000717332
2.71894e-05
0.000124359
0.000239473
0.000303823
0.000358854
0.00039511
0.000428399
0.000453886
0.000476511
0.000490647
0.000508119
0.000516862
0.000528165
0.000535197
0.000545598
0.000549867
0.00055761
0.000564445
0.000571834
0.000576919
5.19689e-06
3.31248e-05
7.18034e-05
0.000107856
0.000135683
0.000169693
0.000185974
0.000214982
0.000231436
0.000251312
0.000264568
0.000283413
0.000291521
0.000308329
0.000316931
0.000334019
0.000341727
0.000359748
0.000368941
0.000390402
2.34493e-06
8.29687e-06
1.81901e-05
3.11481e-05
3.9016e-05
5.38243e-05
6.1648e-05
7.72284e-05
8.51445e-05
9.95983e-05
0.000106403
0.000120193
0.000125756
0.000138056
0.000144082
0.000157464
0.000163475
0.000178195
0.00018563
0.000205378
2.18901e-06
3.12921e-06
5.14985e-06
8.66032e-06
1.03598e-05
1.40087e-05
1.62704e-05
2.13479e-05
2.41848e-05
2.95449e-05
3.22227e-05
3.80451e-05
4.06087e-05
4.61846e-05
4.91595e-05
5.59625e-05
5.93267e-05
6.71434e-05
7.13087e-05
8.2464e-05
2.15813e-06
2.60138e-06
3.28696e-06
4.03989e-06
4.59269e-06
5.16053e-06
5.39009e-06
6.11041e-06
7.08068e-06
7.86722e-06
8.3931e-06
1.02636e-05
1.09607e-05
1.20564e-05
1.28175e-05
1.5177e-05
1.63846e-05
1.8831e-05
2.02286e-05
2.42012e-05
2.15069e-06
2.47018e-06
3.01129e-06
3.51163e-06
4.01193e-06
4.1686e-06
4.13165e-06
4.11336e-06
4.21546e-06
4.33828e-06
4.41325e-06
4.73635e-06
4.84498e-06
4.84521e-06
4.88052e-06
5.23697e-06
5.48443e-06
5.78461e-06
5.9892e-06
6.7441e-06
2.1395e-06
2.43285e-06
2.95337e-06
3.72699e-06
3.81072e-06
3.83555e-06
3.8263e-06
3.8456e-06
3.94428e-06
4.04922e-06
4.05135e-06
4.05658e-06
4.11187e-06
4.14381e-06
4.13965e-06
4.1751e-06
4.27544e-06
4.29569e-06
4.2783e-06
4.33307e-06
2.12988e-06
2.44682e-06
3.33621e-06
3.59708e-06
3.57438e-06
3.66435e-06
3.81739e-06
3.93064e-06
3.93381e-06
3.90866e-06
3.92411e-06
4.08131e-06
4.16191e-06
4.14444e-06
4.13077e-06
4.18746e-06
4.20319e-06
4.2105e-06
4.21951e-06
4.28996e-06
2.14121e-06
2.58441e-06
3.19732e-06
3.45006e-06
3.73649e-06
4.0069e-06
4.06615e-06
4.09968e-06
4.12451e-06
4.31511e-06
4.52599e-06
4.70148e-06
4.72174e-06
4.72572e-06
4.80396e-06
5.21641e-06
5.39265e-06
5.65833e-06
5.96963e-06
6.15813e-06
2.15621e-06
2.58336e-06
3.15365e-06
4.19195e-06
4.49356e-06
4.96682e-06
5.33444e-06
6.1437e-06
6.72829e-06
8.05751e-06
8.55138e-06
9.83495e-06
1.04986e-05
1.18063e-05
1.28046e-05
1.49748e-05
1.60674e-05
1.82985e-05
2.00889e-05
2.24915e-05
2.18315e-06
3.07588e-06
5.22189e-06
8.93967e-06
1.05215e-05
1.3703e-05
1.62621e-05
2.10403e-05
2.3881e-05
2.96608e-05
3.2001e-05
3.75671e-05
4.03385e-05
4.57492e-05
4.88428e-05
5.57669e-05
5.9092e-05
6.62649e-05
7.03944e-05
7.98796e-05
2.35165e-06
8.24662e-06
1.83405e-05
3.25513e-05
3.93892e-05
5.27916e-05
6.1701e-05
7.67266e-05
8.47484e-05
0.000100197
0.000106194
0.000119465
0.000125578
0.000137697
0.000143771
0.000157354
0.00016335
0.000177093
0.000184353
0.000202074
5.21913e-06
3.30076e-05
7.1501e-05
0.000112558
0.000133089
0.000167053
0.000189866
0.000212769
0.000230379
0.000254124
0.000263107
0.00028257
0.000291382
0.000308651
0.00031656
0.000334375
0.000341502
0.0003589
0.00036721
0.000387324
2.72622e-05
0.000123907
0.0002405
0.00030408
0.000358401
0.000394391
0.000430312
0.000451704
0.000476071
0.000493189
0.000503676
0.00051904
0.000527243
0.000536659
0.000541964
0.000552685
0.000556143
0.000565484
0.000569418
0.000578387
0.000136659
0.000400815
0.000588789
0.000654148
0.000709991
0.000732714
0.00075523
0.00075702
0.000761645
0.0007576
0.000755919
0.000749216
0.000746961
0.000739106
0.000737142
0.000731076
0.000729416
0.000724911
0.00072334
0.000719146
0.000557206
0.000980265
0.00108424
0.00108058
0.00106483
0.00102936
0.00100678
0.00097183
0.000955189
0.000924429
0.000913985
0.000888945
0.000882011
0.000862948
0.000858032
0.000841212
0.000837872
0.000822455
0.000817546
0.000804316
0.00133924
0.00150576
0.00139394
0.00122686
0.00112375
0.00104656
0.0010013
0.000955344
0.00093148
0.000897755
0.000886813
0.000860091
0.000854474
0.000832879
0.000829124
0.000807185
0.000803404
0.000779571
0.000771469
0.000740823
0.000335803
0.000269801
0.000222955
0.000191894
0.000173292
0.000164178
0.000161151
0.000161587
0.000162848
0.000165344
0.000167753
0.000170209
0.000171407
0.000170899
0.000169276
0.000166408
0.000163874
0.000162741
0.000161432
0.000161037
0.000160416
0.000160467
0.000160388
0.000160511
0.000160683
0.000160743
0.000160559
0.000160056
0.000158637
0.000157595
0.000155238
0.000150218
0.000143392
0.000134794
0.000126246
0.000119166
0.000112348
0.000107489
0.000104649
0.000101411
0.000101363
0.000101552
0.000102527
0.000104725
0.000108444
0.00011275
0.000116496
0.000124259
0.000128879
0.000133658
0.000141917
0.000145596
0.000149173
0.000151422
0.000152511
0.000153
0.000152708
0.000150984
0.000149665
0.00014589
0.000142939
0.000138099
0.000133153
0.000132162
0.000131537
0.000131775
0.000132487
0.000134705
0.000138581
0.000145143
0.000158979
0.000165307
0.000164904
0.00016239
0.00016016
0.000155765
0.000149473
0.000145792
0.000142912
0.000137895
0.000134678
0.00013285
0.000128747
0.000125611
0.000123326
0.000118296
0.000113141
0.000105823
9.41076e-05
7.89994e-05
6.1362e-05
4.68313e-05
3.61287e-05
2.83298e-05
2.39471e-05
2.18582e-05
2.16131e-05
2.21473e-05
2.39016e-05
2.52327e-05
2.69256e-05
3.0708e-05
3.30315e-05
3.67725e-05
4.29043e-05
4.81178e-05
5.24218e-05
5.91012e-05
7.4345e-05
9.27757e-05
0.000102913
0.000106217
0.000106007
0.000103516
9.04025e-05
7.75786e-05
7.01033e-05
6.66264e-05
6.54199e-05
6.56343e-05
6.73821e-05
6.87169e-05
6.86785e-05
6.78143e-05
6.63654e-05
6.5368e-05
6.41241e-05
6.34923e-05
6.35402e-05
6.40257e-05
6.63845e-05
7.07014e-05
7.23761e-05
7.19522e-05
6.93442e-05
6.00638e-05
5.56576e-05
5.53621e-05
5.76517e-05
6.6244e-05
8.37255e-05
9.26928e-05
9.42675e-05
9.28168e-05
8.95253e-05
8.69409e-05
8.39884e-05
8.06362e-05
7.86439e-05
7.74695e-05
7.39384e-05
6.90953e-05
6.58187e-05
6.41759e-05
6.15042e-05
5.89084e-05
5.62746e-05
5.3796e-05
5.18867e-05
5.05404e-05
5.00048e-05
5.01749e-05
5.10074e-05
5.08873e-05
4.94369e-05
4.90758e-05
4.94996e-05
5.12297e-05
5.80452e-05
7.98536e-05
0.000129151
0.000149868
0.000145541
0.000126068
0.000109309
8.91895e-05
8.37668e-05
6.94125e-05
7.61337e-05
7.12177e-05
7.42532e-05
7.65889e-05
7.75642e-05
8.11737e-05
8.21079e-05
8.35648e-05
8.27512e-05
8.07615e-05
7.72005e-05
7.12902e-05
6.9124e-05
6.50712e-05
6.46909e-05
6.53477e-05
7.02654e-05
7.21122e-05
7.8401e-05
8.72926e-05
9.29096e-05
0.000133705
0.00040526
0.000365044
0.000331532
0.000304851
0.000283934
0.000267799
0.000255029
0.000245436
0.000237821
0.000231962
0.000227328
0.000223636
0.000220635
0.000217715
0.000215428
0.000212321
0.000209508
0.000206322
0.00020395
0.000201303
0.000199154
0.000197311
0.000195491
0.000194291
0.000192673
0.000192016
0.000190641
0.000190091
0.000188847
0.000187728
0.000186842
0.000184191
0.000182209
0.000178812
0.000175423
0.00017186
0.000166795
0.000164593
0.00016031
0.000158379
0.000157274
0.000155854
0.000156008
0.000156525
0.000156422
0.000157439
0.000157566
0.000158164
0.000158515
0.000158548
0.000159167
0.000158938
0.000158383
0.000158189
0.000157031
0.000154705
0.000152636
0.000147587
0.000142844
0.000136559
0.00012869
0.000123178
0.000116196
0.000110079
0.000104586
9.79194e-05
9.60241e-05
9.62964e-05
9.77984e-05
0.000101898
0.000107744
0.000115235
0.000126638
0.000133024
0.000139121
0.000140875
0.000140474
0.000139119
0.000137698
0.000134792
0.000130014
0.000127181
0.00012168
0.000114275
0.000105363
9.45148e-05
8.09384e-05
6.55195e-05
5.1934e-05
4.08997e-05
3.22995e-05
2.58699e-05
2.20508e-05
1.97462e-05
1.9605e-05
1.9925e-05
2.06098e-05
2.22688e-05
2.53905e-05
2.74761e-05
3.17606e-05
3.72024e-05
4.05542e-05
4.69657e-05
5.49623e-05
6.03185e-05
6.47801e-05
7.30996e-05
9.29621e-05
0.000104799
0.000108769
0.000108379
0.000106285
9.62928e-05
8.30207e-05
7.32408e-05
6.8176e-05
6.64829e-05
6.65918e-05
6.89672e-05
7.16499e-05
7.18057e-05
7.14003e-05
6.96518e-05
6.68822e-05
6.53715e-05
6.40457e-05
6.28208e-05
6.25263e-05
6.2647e-05
6.35705e-05
6.73183e-05
7.03895e-05
7.10985e-05
7.02267e-05
6.4561e-05
5.71516e-05
5.51735e-05
5.5495e-05
5.8571e-05
6.72078e-05
7.98636e-05
8.70775e-05
8.94045e-05
8.85477e-05
8.69491e-05
8.38674e-05
8.10204e-05
7.93585e-05
7.68006e-05
7.06113e-05
6.78243e-05
6.59229e-05
6.45298e-05
6.18528e-05
5.88386e-05
5.69401e-05
5.58213e-05
5.5791e-05
5.61144e-05
5.66616e-05
5.88714e-05
6.27293e-05
6.45022e-05
6.37061e-05
6.06276e-05
5.4771e-05
5.38219e-05
5.4607e-05
6.06156e-05
8.00766e-05
0.000124528
0.000150167
0.000141847
0.000138582
0.00011353
0.000104031
8.04642e-05
7.83106e-05
7.64562e-05
7.50474e-05
7.84219e-05
7.84132e-05
8.05222e-05
8.13284e-05
8.13861e-05
8.07025e-05
7.79684e-05
7.56659e-05
7.02331e-05
6.87662e-05
6.76928e-05
6.85576e-05
6.82233e-05
7.13015e-05
7.109e-05
7.53812e-05
7.98361e-05
8.88197e-05
9.77618e-05
0.000371936
0.000348613
0.000327835
0.000310151
0.000295114
0.0002821
0.000270722
0.000260686
0.000252049
0.000244618
0.000238383
0.000232615
0.000228187
0.000223565
0.000220478
0.00021655
0.000213819
0.000210328
0.000207371
0.000204879
0.000201651
0.00020013
0.000197203
0.000196062
0.000194076
0.000193209
0.000192031
0.000190819
0.000190378
0.000188906
0.000188363
0.000187358
0.000186357
0.000185815
0.000183839
0.00018292
0.000180883
0.000179784
0.00017768
0.000175445
0.000174674
0.000172507
0.000170716
0.000169867
0.000167158
0.000166268
0.000164414
0.000162257
0.000161402
0.000159283
0.000156381
0.000154912
0.000151605
0.00014791
0.000145096
0.000137576
0.000131922
0.000126172
0.000114694
0.000108767
9.69042e-05
8.7905e-05
7.88441e-05
6.85525e-05
6.45539e-05
5.95676e-05
5.66443e-05
5.64265e-05
5.65865e-05
5.78112e-05
6.22959e-05
6.62544e-05
7.33169e-05
8.1761e-05
8.4993e-05
9.2382e-05
9.57087e-05
9.55708e-05
9.48781e-05
9.30148e-05
8.7838e-05
8.23031e-05
7.43747e-05
6.5291e-05
5.6602e-05
4.80411e-05
4.0032e-05
3.29956e-05
2.70867e-05
2.2645e-05
1.97353e-05
1.81309e-05
1.7981e-05
1.81312e-05
1.89907e-05
2.0687e-05
2.29527e-05
2.81522e-05
3.27303e-05
3.58936e-05
4.29655e-05
4.76934e-05
5.16926e-05
6.10469e-05
6.82578e-05
7.18527e-05
7.68991e-05
9.02448e-05
0.000106426
0.000111984
0.000111272
0.000108916
0.000101775
8.98344e-05
7.86636e-05
7.07382e-05
6.75134e-05
6.71935e-05
6.83473e-05
7.26751e-05
7.3531e-05
7.30972e-05
7.18276e-05
6.91957e-05
6.61449e-05
6.44482e-05
6.35825e-05
6.23925e-05
6.17151e-05
6.16913e-05
6.20973e-05
6.46745e-05
6.83536e-05
6.97712e-05
6.97399e-05
6.7597e-05
5.99201e-05
5.57831e-05
5.5269e-05
5.6048e-05
5.91379e-05
6.65488e-05
7.51885e-05
8.04969e-05
8.30703e-05
8.30401e-05
8.12098e-05
7.9474e-05
7.55264e-05
7.36506e-05
6.88614e-05
6.77542e-05
6.5347e-05
6.48434e-05
6.23003e-05
6.20326e-05
6.18138e-05
6.19973e-05
6.38042e-05
6.5367e-05
6.94687e-05
7.14888e-05
7.6173e-05
7.86691e-05
7.92297e-05
7.80983e-05
7.54554e-05
6.49563e-05
6.02843e-05
5.95239e-05
6.54236e-05
8.13822e-05
0.000132436
0.000137426
0.000142243
0.00013262
0.000124698
0.000101901
8.58475e-05
8.08677e-05
7.73879e-05
7.87079e-05
7.94737e-05
8.06892e-05
8.06792e-05
8.04248e-05
7.86434e-05
7.67497e-05
7.19998e-05
7.08862e-05
6.81824e-05
6.86824e-05
6.83901e-05
7.18154e-05
7.16728e-05
7.20813e-05
7.22134e-05
7.76014e-05
9.04149e-05
9.66088e-05
0.000305159
0.000291867
0.000278525
0.000267748
0.000258034
0.000249437
0.000241411
0.000233507
0.000226499
0.000219786
0.000214054
0.000208866
0.000204394
0.000200037
0.000196483
0.000192611
0.000189281
0.000186117
0.000182972
0.000180765
0.000177672
0.000176089
0.000173371
0.000171419
0.00016974
0.000167899
0.000167349
0.000166153
0.00016599
0.000165472
0.000165003
0.000164833
0.000164291
0.000164231
0.000163942
0.00016358
0.000163104
0.00016197
0.000161242
0.000159486
0.000157525
0.000156149
0.000152898
0.00015073
0.000148709
0.000144426
0.000142572
0.000139008
0.000134793
0.000132567
0.000126311
0.00012219
0.000117492
0.000108449
0.000104292
9.48906e-05
8.63509e-05
7.90463e-05
6.88844e-05
6.31153e-05
5.5177e-05
4.90707e-05
4.52353e-05
3.98094e-05
3.80514e-05
3.57832e-05
3.36814e-05
3.29935e-05
3.15954e-05
3.1649e-05
3.26695e-05
3.38631e-05
3.56959e-05
4.09148e-05
4.29522e-05
4.62491e-05
4.90172e-05
4.91014e-05
4.87329e-05
4.76653e-05
4.514e-05
4.18264e-05
3.80324e-05
3.39919e-05
2.96477e-05
2.58804e-05
2.22785e-05
1.94683e-05
1.76027e-05
1.65268e-05
1.65272e-05
1.69143e-05
1.78283e-05
1.98636e-05
2.4519e-05
2.84958e-05
3.32233e-05
4.19709e-05
4.57079e-05
5.03768e-05
5.74592e-05
6.07303e-05
6.59635e-05
7.61731e-05
8.02706e-05
8.30637e-05
8.90686e-05
0.000106431
0.000115061
0.000114928
0.00011209
0.000105814
9.62028e-05
8.66858e-05
7.61114e-05
6.95571e-05
6.78704e-05
6.79603e-05
7.11297e-05
7.43573e-05
7.43871e-05
7.34541e-05
7.05787e-05
6.77034e-05
6.51443e-05
6.36204e-05
6.30713e-05
6.24596e-05
6.13003e-05
6.10382e-05
6.12541e-05
6.26424e-05
6.6948e-05
6.90417e-05
6.94399e-05
6.86182e-05
6.30813e-05
5.73189e-05
5.55899e-05
5.56932e-05
5.66614e-05
6.04537e-05
6.43633e-05
7.08972e-05
7.36413e-05
7.55208e-05
7.501e-05
7.47386e-05
7.21966e-05
7.1305e-05
6.86187e-05
6.84452e-05
6.65426e-05
6.69697e-05
6.6772e-05
6.73095e-05
6.97528e-05
7.09148e-05
7.89518e-05
8.0123e-05
8.6586e-05
8.56534e-05
9.04554e-05
8.82257e-05
9.19394e-05
8.81752e-05
9.07737e-05
8.4107e-05
8.17428e-05
6.85505e-05
6.90352e-05
7.10092e-05
8.72354e-05
0.000121154
0.00013615
0.000135427
0.000131479
0.000121937
0.000104636
9.00996e-05
8.19191e-05
8.05348e-05
7.84746e-05
7.90018e-05
7.74782e-05
7.74424e-05
7.51436e-05
7.39236e-05
7.1065e-05
7.04097e-05
6.88521e-05
6.86032e-05
6.77656e-05
6.84492e-05
6.86204e-05
6.99345e-05
7.13654e-05
7.43496e-05
7.92382e-05
0.000101851
0.000209439
0.000203765
0.000195992
0.000189974
0.000184866
0.000179814
0.000176167
0.000171524
0.000167229
0.000163062
0.000158352
0.000155172
0.000151225
0.000148746
0.000146181
0.000143591
0.000141453
0.000138448
0.000136216
0.000133867
0.000131722
0.000129978
0.000128691
0.000126705
0.000125401
0.000123676
0.000122534
0.000121716
0.000121666
0.000121871
0.000122171
0.000122275
0.000121923
0.000121132
0.000120631
0.000119598
0.000119273
0.000118584
0.000117911
0.000117265
0.000115472
0.000114208
0.000111612
0.000107898
0.000105848
9.9785e-05
9.66347e-05
9.18742e-05
8.6074e-05
8.34819e-05
7.70074e-05
7.30187e-05
6.86906e-05
6.23239e-05
5.84397e-05
5.26263e-05
4.76111e-05
4.32036e-05
3.81146e-05
3.44437e-05
3.04439e-05
2.72485e-05
2.52326e-05
2.26632e-05
2.17984e-05
2.06579e-05
1.92841e-05
1.89634e-05
1.7799e-05
1.70903e-05
1.71511e-05
1.73188e-05
1.77281e-05
1.8996e-05
2.04646e-05
2.13776e-05
2.27931e-05
2.36337e-05
2.36524e-05
2.3438e-05
2.2986e-05
2.17666e-05
2.04562e-05
1.9025e-05
1.73648e-05
1.62796e-05
1.52563e-05
1.52176e-05
1.5331e-05
1.57872e-05
1.72193e-05
2.05939e-05
2.44041e-05
3.1086e-05
3.91562e-05
4.41595e-05
5.26912e-05
6.07905e-05
6.41545e-05
7.01238e-05
7.4546e-05
7.66353e-05
8.26626e-05
8.85441e-05
9.01e-05
9.31242e-05
0.000105194
0.000118417
0.000119965
0.000116435
0.00010976
0.000103657
9.38906e-05
8.35617e-05
7.40754e-05
6.91941e-05
6.82627e-05
6.89876e-05
7.35259e-05
7.49837e-05
7.47415e-05
7.31464e-05
6.87253e-05
6.62798e-05
6.44539e-05
6.30939e-05
6.30285e-05
6.26376e-05
6.15475e-05
6.0618e-05
6.08065e-05
6.17116e-05
6.53112e-05
6.83154e-05
6.9152e-05
6.91179e-05
6.65677e-05
6.00425e-05
5.67311e-05
5.60301e-05
5.63717e-05
5.83547e-05
6.0745e-05
6.39589e-05
6.68022e-05
7.20928e-05
7.15264e-05
7.22098e-05
7.0131e-05
7.09059e-05
6.89901e-05
6.9582e-05
6.85681e-05
7.02675e-05
7.21758e-05
7.45673e-05
8.17243e-05
8.44863e-05
9.4444e-05
9.51765e-05
0.00010037
9.81986e-05
0.000103078
9.9536e-05
0.000104714
0.000100062
0.00010388
9.84565e-05
9.91362e-05
9.11046e-05
7.9303e-05
7.28986e-05
7.53667e-05
8.72253e-05
0.000113711
0.000129572
0.000129729
0.000126507
0.000119628
0.00010678
9.2617e-05
8.52189e-05
8.0336e-05
7.89972e-05
7.63828e-05
7.5492e-05
7.31818e-05
7.21311e-05
6.97632e-05
6.91422e-05
6.79818e-05
6.77122e-05
6.66218e-05
6.66363e-05
6.67257e-05
6.74878e-05
6.80893e-05
7.13293e-05
7.31661e-05
7.78001e-05
0.000111521
0.00011018
0.000107531
0.000104784
0.000103017
0.000100409
9.92537e-05
9.74519e-05
9.58591e-05
9.4235e-05
9.15514e-05
9.00956e-05
8.74312e-05
8.6026e-05
8.44442e-05
8.34533e-05
8.3017e-05
8.17756e-05
8.09894e-05
7.92547e-05
7.7963e-05
7.62966e-05
7.5676e-05
7.44245e-05
7.40155e-05
7.33535e-05
7.24622e-05
7.20275e-05
7.18872e-05
7.20458e-05
7.22624e-05
7.32426e-05
7.36858e-05
7.37051e-05
7.36601e-05
7.27334e-05
7.21227e-05
7.08718e-05
6.98146e-05
6.92476e-05
6.78235e-05
6.70714e-05
6.54882e-05
6.37574e-05
6.22241e-05
5.84867e-05
5.55654e-05
5.20319e-05
4.81259e-05
4.49861e-05
4.17067e-05
3.85421e-05
3.59045e-05
3.29833e-05
3.0069e-05
2.76504e-05
2.47147e-05
2.23547e-05
2.00543e-05
1.78264e-05
1.60649e-05
1.44502e-05
1.34234e-05
1.24663e-05
1.20871e-05
1.16957e-05
1.10905e-05
1.0959e-05
1.05769e-05
1.00499e-05
9.9668e-06
9.88797e-06
9.89134e-06
9.97422e-06
1.02664e-05
1.09333e-05
1.13101e-05
1.20451e-05
1.25542e-05
1.26769e-05
1.27995e-05
1.28353e-05
1.28027e-05
1.28725e-05
1.31248e-05
1.35018e-05
1.3982e-05
1.49846e-05
1.69755e-05
2.03779e-05
2.70295e-05
3.34727e-05
4.04921e-05
5.32202e-05
6.05432e-05
6.93044e-05
7.94762e-05
8.54601e-05
8.98029e-05
9.37351e-05
9.40641e-05
9.419e-05
9.70178e-05
9.84652e-05
9.97141e-05
0.000105248
0.000122638
0.000126293
0.000123619
0.000115022
0.000109618
0.00010066
9.16176e-05
8.13724e-05
7.3017e-05
6.96874e-05
6.91325e-05
7.08471e-05
7.45577e-05
7.48078e-05
7.45989e-05
7.13875e-05
6.74446e-05
6.6346e-05
6.40554e-05
6.33564e-05
6.33215e-05
6.30522e-05
6.15681e-05
6.0635e-05
6.07728e-05
6.18932e-05
6.50328e-05
6.86659e-05
6.93731e-05
6.9447e-05
6.8143e-05
6.32305e-05
5.93762e-05
5.7051e-05
5.70145e-05
5.82888e-05
6.01414e-05
6.3672e-05
6.46716e-05
6.91652e-05
6.91824e-05
6.99929e-05
6.93934e-05
6.97294e-05
6.95538e-05
6.97555e-05
7.12271e-05
7.41809e-05
8.17133e-05
8.41066e-05
9.7262e-05
9.81614e-05
0.000106485
0.000106191
0.000109805
0.000107663
0.000108697
0.000104736
0.000104575
0.000101153
0.000102598
0.000100219
0.000100728
9.85069e-05
9.51326e-05
8.15252e-05
7.6273e-05
7.74338e-05
8.44764e-05
0.00010574
0.000120442
0.000123625
0.000121393
0.000115712
0.000109819
9.713e-05
8.82656e-05
8.29105e-05
7.9402e-05
7.72404e-05
7.55417e-05
7.39423e-05
7.33922e-05
7.26265e-05
7.17146e-05
7.11582e-05
7.13789e-05
7.18832e-05
7.08925e-05
7.00656e-05
6.97539e-05
7.10159e-05
7.15487e-05
7.20233e-05
4.51346e-05
4.49869e-05
4.46577e-05
4.40024e-05
4.3617e-05
4.29692e-05
4.27424e-05
4.23849e-05
4.20928e-05
4.17544e-05
4.08074e-05
4.02239e-05
3.92259e-05
3.86515e-05
3.82314e-05
3.79397e-05
3.78779e-05
3.78694e-05
3.78016e-05
3.75721e-05
3.68197e-05
3.62217e-05
3.58133e-05
3.53922e-05
3.53105e-05
3.48837e-05
3.47175e-05
3.46074e-05
3.46391e-05
3.48471e-05
3.498e-05
3.5984e-05
3.65805e-05
3.70917e-05
3.7096e-05
3.6878e-05
3.63273e-05
3.50751e-05
3.40832e-05
3.35219e-05
3.32967e-05
3.30584e-05
3.28078e-05
3.23714e-05
3.15683e-05
3.04091e-05
2.79484e-05
2.60941e-05
2.37073e-05
2.15391e-05
1.99988e-05
1.79731e-05
1.67793e-05
1.52884e-05
1.39112e-05
1.29012e-05
1.15545e-05
1.06264e-05
9.66588e-06
8.86225e-06
8.33612e-06
7.83289e-06
7.5953e-06
7.51554e-06
7.5095e-06
7.50558e-06
7.51686e-06
7.74006e-06
7.83553e-06
7.89218e-06
7.92729e-06
7.87914e-06
7.72438e-06
7.42055e-06
7.31065e-06
7.31974e-06
7.35984e-06
7.50128e-06
8.1411e-06
8.61236e-06
9.20625e-06
1.02248e-05
1.08075e-05
1.18766e-05
1.28593e-05
1.4997e-05
1.73621e-05
2.20231e-05
2.73231e-05
3.52838e-05
4.60049e-05
5.50824e-05
6.90018e-05
8.23075e-05
9.20892e-05
0.000104361
0.00011179
0.000117262
0.000119305
0.000118587
0.000115658
0.000111943
0.000109441
0.00010925
0.00011191
0.000126645
0.000132257
0.000130947
0.000121658
0.000114258
0.000108919
9.91938e-05
8.96734e-05
7.93683e-05
7.26329e-05
6.99763e-05
6.97429e-05
7.20118e-05
7.37231e-05
7.38514e-05
7.34434e-05
7.00238e-05
6.87245e-05
6.6695e-05
6.44607e-05
6.48629e-05
6.42221e-05
6.41869e-05
6.16183e-05
6.09997e-05
6.09161e-05
6.25383e-05
6.57034e-05
6.91004e-05
7.01768e-05
7.01768e-05
7.00677e-05
6.73721e-05
6.24916e-05
5.93568e-05
5.89708e-05
5.96326e-05
6.06469e-05
6.31534e-05
6.4851e-05
6.60461e-05
6.84635e-05
6.81348e-05
7.00484e-05
6.88319e-05
7.29642e-05
7.20072e-05
8.20712e-05
8.24185e-05
9.54084e-05
9.42902e-05
0.000113776
0.00011099
0.000122867
0.000120241
0.000123114
0.00011913
0.000116551
0.00010957
0.000107371
0.000101856
9.67396e-05
9.49936e-05
9.5687e-05
9.62116e-05
9.49905e-05
9.13448e-05
8.10501e-05
7.70803e-05
7.73004e-05
8.2795e-05
9.37015e-05
0.000113312
0.00011708
0.000116313
0.000113994
0.000108615
0.000102492
9.4048e-05
9.13133e-05
8.62197e-05
8.54727e-05
8.35652e-05
8.35016e-05
8.29477e-05
8.23765e-05
8.00709e-05
7.80972e-05
7.75785e-05
7.67934e-05
7.6192e-05
7.43691e-05
7.30436e-05
7.24305e-05
7.11383e-05
1.35217e-05
1.35433e-05
1.35467e-05
1.35079e-05
1.34746e-05
1.34473e-05
1.34448e-05
1.34523e-05
1.34195e-05
1.33875e-05
1.32254e-05
1.30687e-05
1.27901e-05
1.25942e-05
1.25298e-05
1.24708e-05
1.25018e-05
1.2532e-05
1.26079e-05
1.26864e-05
1.26687e-05
1.26812e-05
1.26221e-05
1.25014e-05
1.23296e-05
1.2196e-05
1.22125e-05
1.2205e-05
1.23444e-05
1.24825e-05
1.26402e-05
1.31397e-05
1.32873e-05
1.35078e-05
1.34611e-05
1.339e-05
1.32093e-05
1.29544e-05
1.25229e-05
1.2368e-05
1.25334e-05
1.2692e-05
1.27522e-05
1.26922e-05
1.25278e-05
1.22402e-05
1.1387e-05
1.06109e-05
9.54168e-06
8.70439e-06
7.90104e-06
7.23982e-06
6.76966e-06
6.32167e-06
6.14005e-06
5.93692e-06
5.8217e-06
5.80799e-06
5.82307e-06
5.92642e-06
6.12684e-06
6.29052e-06
6.40836e-06
6.64428e-06
6.8651e-06
6.96786e-06
7.05448e-06
7.5574e-06
8.11535e-06
8.46335e-06
8.5445e-06
8.54656e-06
8.45497e-06
7.99224e-06
7.63403e-06
7.58293e-06
7.60912e-06
7.75341e-06
8.53125e-06
9.30454e-06
1.06353e-05
1.2502e-05
1.4091e-05
1.70277e-05
1.96553e-05
2.47497e-05
2.95237e-05
3.849e-05
4.66643e-05
6.15689e-05
7.22983e-05
9.13999e-05
0.000107748
0.000123049
0.00013552
0.000146188
0.000150351
0.000150184
0.00014862
0.000144275
0.000137795
0.000128864
0.000121822
0.000121815
0.000131546
0.000138436
0.000136896
0.000129105
0.000117057
0.000112541
0.00010718
9.82588e-05
8.80361e-05
7.85664e-05
7.3331e-05
7.02759e-05
7.01327e-05
7.23388e-05
7.26936e-05
7.35367e-05
7.23987e-05
6.9835e-05
6.92587e-05
6.64319e-05
6.67788e-05
6.64182e-05
6.52104e-05
6.4334e-05
6.1607e-05
6.1377e-05
6.1635e-05
6.34812e-05
6.88318e-05
7.00978e-05
7.15791e-05
7.15839e-05
7.10812e-05
6.98677e-05
6.6176e-05
6.33268e-05
6.08719e-05
6.12538e-05
6.20083e-05
6.25958e-05
6.52615e-05
6.49588e-05
6.79285e-05
6.6868e-05
7.00352e-05
6.81374e-05
7.37373e-05
7.35457e-05
8.478e-05
8.49354e-05
9.67233e-05
9.80784e-05
0.000114102
0.000120465
0.000126504
0.000127799
0.000126724
0.000120763
0.000115681
0.000107656
0.000108916
0.000107747
0.000109021
0.000102317
9.32755e-05
9.07969e-05
9.03063e-05
8.95867e-05
8.63121e-05
7.98728e-05
7.63058e-05
7.68654e-05
8.00246e-05
8.97058e-05
0.000103661
0.000111372
0.000111613
0.000110473
0.000107637
0.000103311
0.000100112
9.59398e-05
9.44868e-05
9.29996e-05
9.09802e-05
8.75245e-05
8.50142e-05
8.29458e-05
8.06923e-05
7.95238e-05
7.85005e-05
7.73627e-05
7.60084e-05
7.40522e-05
7.19476e-05
7.08247e-05
3.73556e-06
3.76196e-06
3.8333e-06
3.86407e-06
3.92395e-06
3.93593e-06
3.95565e-06
3.9653e-06
3.96581e-06
3.96566e-06
3.93721e-06
3.90878e-06
3.83398e-06
3.77227e-06
3.72234e-06
3.68833e-06
3.68735e-06
3.70198e-06
3.77483e-06
3.82563e-06
3.87224e-06
3.90035e-06
3.90477e-06
3.89119e-06
3.8512e-06
3.83472e-06
3.83315e-06
3.83802e-06
3.88883e-06
3.9033e-06
3.96364e-06
3.97396e-06
3.98519e-06
4.00134e-06
4.07446e-06
4.10084e-06
4.10719e-06
4.10213e-06
4.05645e-06
4.01117e-06
3.9805e-06
4.06311e-06
4.14699e-06
4.30173e-06
4.32813e-06
4.33246e-06
4.30641e-06
4.11965e-06
4.08081e-06
4.08415e-06
4.11016e-06
4.25769e-06
4.36368e-06
4.52628e-06
4.78951e-06
4.99094e-06
5.41617e-06
5.771e-06
6.15599e-06
7.15284e-06
8.03476e-06
8.55071e-06
9.0285e-06
9.53874e-06
1.0013e-05
1.02614e-05
1.05698e-05
1.17464e-05
1.29407e-05
1.35668e-05
1.37553e-05
1.37744e-05
1.35123e-05
1.27247e-05
1.23125e-05
1.22853e-05
1.24398e-05
1.30431e-05
1.48916e-05
1.64308e-05
1.9619e-05
2.19971e-05
2.54565e-05
3.00359e-05
3.47133e-05
4.25069e-05
5.06717e-05
6.48969e-05
7.75306e-05
9.9382e-05
0.000116364
0.00014393
0.000160159
0.000172187
0.000174745
0.000173321
0.000169048
0.000165688
0.000159322
0.000153342
0.000148218
0.000137468
0.000129408
0.000129084
0.000136566
0.00014041
0.000137882
0.0001235
0.000113186
0.000110793
0.00010693
9.81521e-05
8.75686e-05
7.88697e-05
7.43784e-05
7.08035e-05
7.04189e-05
7.15425e-05
7.19345e-05
7.29078e-05
7.19239e-05
7.01103e-05
6.85951e-05
6.68985e-05
6.8913e-05
6.5833e-05
6.79959e-05
6.41878e-05
6.29455e-05
6.21671e-05
6.43549e-05
6.59851e-05
7.112e-05
7.3148e-05
7.27009e-05
7.32723e-05
7.27906e-05
7.2486e-05
6.91942e-05
6.47995e-05
6.34002e-05
6.31398e-05
6.40586e-05
6.29517e-05
6.61424e-05
6.47257e-05
6.85174e-05
6.65185e-05
7.03938e-05
6.85371e-05
7.31757e-05
7.54748e-05
8.28616e-05
8.65545e-05
9.18045e-05
9.83929e-05
0.00011212
0.000127567
0.000127487
0.000130302
0.000127725
0.000120761
0.000112358
0.000105951
0.000112251
0.000115022
0.000128684
0.000125188
0.000109729
9.63713e-05
8.83982e-05
8.64024e-05
8.47345e-05
8.27459e-05
7.81e-05
7.57048e-05
7.62004e-05
7.84302e-05
8.37815e-05
9.50811e-05
0.000103606
0.000106455
0.000106018
0.000104712
0.000101626
0.000100102
9.78081e-05
9.60545e-05
9.49921e-05
9.35615e-05
9.17421e-05
8.87992e-05
8.44329e-05
8.23735e-05
7.99167e-05
7.78697e-05
7.65449e-05
7.48419e-05
7.41662e-05
7.31309e-05
2.37208e-06
2.37958e-06
2.40775e-06
2.4598e-06
2.51531e-06
2.5455e-06
2.55989e-06
2.56379e-06
2.57646e-06
2.57332e-06
2.57588e-06
2.57187e-06
2.56737e-06
2.56171e-06
2.5611e-06
2.56057e-06
2.55929e-06
2.55469e-06
2.55658e-06
2.55257e-06
2.55189e-06
2.55085e-06
2.54393e-06
2.5437e-06
2.54327e-06
2.55142e-06
2.56292e-06
2.58781e-06
2.60249e-06
2.61576e-06
2.6262e-06
2.64503e-06
2.65701e-06
2.68841e-06
2.72746e-06
2.75852e-06
2.76114e-06
2.75312e-06
2.75928e-06
2.75521e-06
2.77338e-06
2.79131e-06
2.82537e-06
2.96148e-06
3.16297e-06
3.28501e-06
3.5362e-06
3.71022e-06
3.95643e-06
4.38331e-06
4.77639e-06
5.48575e-06
5.93854e-06
6.44653e-06
7.42727e-06
8.33786e-06
9.68827e-06
1.07897e-05
1.21802e-05
1.40034e-05
1.53683e-05
1.58936e-05
1.6786e-05
1.74503e-05
1.82519e-05
1.90041e-05
2.00019e-05
2.14183e-05
2.24717e-05
2.29664e-05
2.30871e-05
2.30676e-05
2.2472e-05
2.16632e-05
2.15005e-05
2.15897e-05
2.20172e-05
2.3834e-05
2.62781e-05
2.92098e-05
3.35854e-05
3.70919e-05
4.32459e-05
4.89042e-05
5.90025e-05
6.92215e-05
8.53072e-05
0.000103388
0.000126731
0.00015466
0.000179562
0.00019019
0.000190818
0.000188835
0.000184352
0.000177269
0.000170939
0.000166997
0.000159432
0.000152349
0.000149818
0.000144419
0.000138067
0.000139103
0.000146128
0.000144663
0.000133342
0.000116174
0.000111112
0.000111082
0.000110645
0.000101695
8.90963e-05
8.05198e-05
7.48001e-05
7.19689e-05
7.09545e-05
7.11625e-05
7.1589e-05
7.24066e-05
7.1402e-05
7.12466e-05
6.95052e-05
6.84696e-05
6.68683e-05
6.61535e-05
6.85825e-05
6.40232e-05
6.80629e-05
6.44181e-05
6.93422e-05
7.23388e-05
7.37444e-05
7.63396e-05
7.56098e-05
7.47673e-05
7.53405e-05
7.46649e-05
7.16215e-05
6.82309e-05
6.71355e-05
6.44032e-05
6.55293e-05
6.38629e-05
6.61708e-05
6.49006e-05
6.67403e-05
6.53524e-05
6.70811e-05
6.63942e-05
6.91557e-05
7.21266e-05
7.88335e-05
8.30995e-05
8.9573e-05
9.4136e-05
0.000121213
0.000127642
0.000133193
0.00013234
0.000129551
0.000120057
0.000112449
0.000106528
0.00011513
0.000118647
0.000145244
0.000151476
0.000147626
0.000116689
9.55959e-05
8.69038e-05
8.4096e-05
8.18133e-05
8.00644e-05
7.64386e-05
7.49971e-05
7.4983e-05
7.61421e-05
7.91204e-05
8.5257e-05
9.22196e-05
9.70662e-05
9.95575e-05
9.89763e-05
9.81592e-05
9.65494e-05
9.4521e-05
9.34067e-05
9.24388e-05
9.2365e-05
9.14414e-05
8.76874e-05
8.61237e-05
8.51208e-05
8.26646e-05
8.19655e-05
8.06506e-05
7.96582e-05
7.6892e-05
2.37753e-06
2.40735e-06
2.44887e-06
2.49599e-06
2.56521e-06
2.58185e-06
2.59037e-06
2.59041e-06
2.59133e-06
2.5862e-06
2.5865e-06
2.59097e-06
2.59125e-06
2.60138e-06
2.6101e-06
2.6403e-06
2.66432e-06
2.70112e-06
2.74899e-06
2.74898e-06
2.7565e-06
2.74673e-06
2.74691e-06
2.74897e-06
2.75346e-06
2.81734e-06
2.85348e-06
2.93539e-06
2.95579e-06
2.97164e-06
2.98424e-06
2.98664e-06
3.02917e-06
3.06251e-06
3.14212e-06
3.19314e-06
3.22669e-06
3.30072e-06
3.35566e-06
3.4784e-06
3.59373e-06
3.86914e-06
4.185e-06
4.49172e-06
5.18628e-06
5.62751e-06
6.46112e-06
7.13699e-06
8.03251e-06
9.26202e-06
9.97887e-06
1.13727e-05
1.23106e-05
1.36953e-05
1.56791e-05