/*--------------------------------*- C++ -*----------------------------------*\
| =========                 |                                                 |
| \\      /  F ield         | OpenFOAM: The Open Source CFD Toolbox           |
|  \\    /   O peration     | Version:  2.4.0                                 |
|   \\  /    A nd           | Web:      www.OpenFOAM.org                      |
|    \\/     M anipulation  |                                                 |
\*---------------------------------------------------------------------------*/
FoamFile
{
    version     2.0;
    format      ascii;
    class       volScalarField;
    location    "0.29";
    object      p;
}
// * * * * * * * * * * * * * * * * * * * * * * * * * * * * * * * * * * * * * //

dimensions      [0 2 -2 0 0 0 0];

internalField   nonuniform List<scalar> 
8800
(
78.4986
66.1375
58.7396
55.2098
53.333
51.9187
50.7228
49.6325
48.5992
47.6232
46.708
45.7536
44.8778
44.0124
43.1696
42.3779
41.677
41.0247
40.4323
39.9879
75.3853
65.7838
58.9093
55.3236
53.393
51.9438
50.7295
49.6341
48.597
47.6198
46.7068
45.7507
44.8744
44.0116
43.1664
42.3743
41.6769
41.0204
40.4352
39.813
73.419
65.8593
59.5128
55.7002
53.5604
52.0217
50.7755
49.6667
48.6206
47.6369
46.718
45.7546
44.8748
44.0095
43.1622
42.3636
41.6736
41.0008
40.463
39.7265
71.882
65.9209
60.1021
56.1252
53.7438
52.1072
50.8377
49.7214
48.6687
47.676
46.7457
45.7716
44.8847
44.0118
43.1577
42.3505
41.6542
40.9679
40.4873
39.8159
70.6307
65.8919
60.5817
56.5347
53.9125
52.174
50.8846
49.776
48.7247
47.7279
46.7805
45.8006
44.8947
44.0191
43.1499
42.3402
41.6108
40.9224
40.3511
40.0736
69.6448
65.7974
60.9508
56.8846
54.0649
52.2191
50.9111
49.8175
48.7757
47.7771
46.8162
45.8314
44.9067
44.0214
43.1399
42.3268
41.5659
40.8746
40.3097
40.4939
68.8855
65.6845
61.2214
57.168
54.2049
52.2483
50.9185
49.8487
48.8171
47.8174
46.8481
45.8553
44.9153
44.0232
43.1325
42.3043
41.5319
40.8477
40.3611
40.7835
68.333
65.5869
61.4046
57.3817
54.3298
52.2691
50.9127
49.869
48.8492
47.8474
46.8714
45.8766
44.9208
44.0186
43.1238
42.2904
41.5098
40.8393
40.4134
40.9873
67.9742
65.5104
61.5218
57.526
54.4188
52.2816
50.9071
49.8794
48.8708
47.869
46.8884
45.8879
44.9236
44.0161
43.119
42.278
41.499
40.8436
40.4553
41.1334
67.7964
65.4711
61.58
57.5977
54.4629
52.2888
50.9015
49.8838
48.884
47.8776
46.8964
45.8979
44.9228
44.0108
43.1193
42.2748
41.4925
40.8504
40.4818
41.2353
67.7952
65.4691
61.5812
57.5976
54.4627
52.2892
50.9011
49.8827
48.8837
47.8775
46.8941
45.899
44.9201
44.0116
43.1207
42.2727
41.4921
40.8614
40.4945
41.2933
67.9679
65.5122
61.527
57.5238
54.4175
52.2856
50.9021
49.8774
48.8758
47.8625
46.8846
45.8985
44.9155
44.0084
43.1313
42.2773
41.4962
40.8678
40.4924
41.3001
68.3258
65.5878
61.4113
57.3797
54.3287
52.2747
50.9068
49.8662
48.8561
47.8389
46.8678
45.8897
44.9075
44.0114
43.1405
42.286
41.5068
40.8799
40.4765
41.2404
68.8755
65.6886
61.2283
57.1657
54.2015
52.2577
50.9078
49.8457
48.8286
47.8036
46.8414
45.8783
44.8966
44.0099
43.1549
42.3014
41.5243
40.899
40.4493
41.0968
69.6337
65.8018
60.9578
56.8824
54.0609
52.2293
50.8995
49.8138
48.7913
47.7581
46.811
45.8581
44.8805
44.0098
43.1695
42.3183
41.5513
40.9307
40.4326
40.8785
70.6186
65.8983
60.5894
56.532
53.9066
52.1868
50.8714
49.7694
48.746
47.7032
46.7729
45.8368
44.8643
44.0012
43.1875
42.335
41.5862
40.971
40.4529
40.593
71.8681
65.9263
60.1109
56.1234
53.7369
52.1218
50.8228
49.7134
48.6938
47.6484
46.7361
45.8142
44.8493
43.993
43.2014
42.3474
41.6237
41.0126
40.5078
40.297
73.4057
65.8635
59.5227
55.6986
53.5526
52.0361
50.7617
49.6565
48.6471
47.6089
46.7079
45.7964
44.8425
43.9881
43.2092
42.3588
41.6533
41.0442
40.5654
40.1514
75.3723
65.7858
58.9194
55.3226
53.3854
51.9574
50.7165
49.6238
48.6222
47.5932
46.697
45.7899
44.8443
43.9906
43.2127
42.3691
41.6687
41.0621
40.5588
40.0677
78.4864
66.1393
58.7493
55.2088
53.3263
51.9311
50.71
49.6238
48.6219
47.598
46.7004
45.7894
44.8491
43.9938
43.2133
42.3733
41.6741
41.0659
40.5596
40.1931
39.8745
39.4523
38.5464
37.3967
36.4494
35.9198
35.8949
36.3112
37.0492
37.9518
38.9066
39.7914
40.4833
40.9082
41.0225
40.8938
40.6793
40.467
40.2726
40.1095
39.9916
39.936
39.9547
40.0393
40.1971
40.3564
40.4589
40.4015
40.1306
39.6769
38.9683
37.9826
36.8206
35.6309
34.4005
33.2027
32.1766
31.2217
30.4354
29.8672
29.391
29.0268
28.778
28.6422
28.4661
28.5109
28.6937
28.782
29.2237
29.6683
30.0076
30.3884
30.485
30.8551
30.9684
30.9281
31.622
32.2732
33.7149
36.1113
38.804
42.5365
46.2138
49.7051
53.0232
54.9691
56.3217
56.5217
55.3974
54.1443
51.647
48.678
45.7753
41.7439
38.5019
35.5837
31.7365
29.3912
27.2409
24.0762
22.7229
21.9844
19.9621
19.2074
19.5005
18.8763
18.7089
19.5938
20.1974
20.7417
21.9549
23.4275
24.8485
26.5904
28.8455
31.338
34.1306
37.3545
40.7035
44.0685
47.4259
50.476
53.1162
55.4673
57.2821
58.5309
59.231
59.3083
58.8715
57.8222
56.2131
54.2172
51.5674
47.744
42.8563
37.4239
32.0259
27.3247
23.2275
19.6512
16.4378
13.2794
10.4092
8.16636
6.31342
5.4664
6.20987
7.87179
10.2179
13.9277
18.7212
23.5695
28.2899
33.1225
37.8133
41.9125
45.2951
48.1423
50.428
52.0444
52.9091
53.3155
53.2935
53.0043
52.716
52.5802
52.6467
52.9804
53.5195
54.3514
55.692
57.1885
58.7706
60.3027
61.6762
62.832
63.9079
64.7423
65.4163
65.978
66.3464
66.8545
67.2901
67.7215
68.0864
68.1056
68.2869
68.2816
68.027
67.4674
66.3966
64.8566
62.6552
60.0692
56.6913
52.8301
48.8932
44.5733
41.4609
37.0275
34.2355
30.426
27.1159
23.2894
18.8831
14.8828
10.5343
8.51447
8.09953
9.01499
11.1566
14.1039
17.4388
21.4179
25.772
30.0357
34.5965
39.4114
43.3519
47.1049
39.4178
39.1179
38.4873
37.5719
36.7364
36.2541
36.1767
36.5024
37.1605
37.979
38.845
39.6407
40.2725
40.6908
40.8474
40.7882
40.6001
40.3994
40.2389
40.1167
40.0158
39.9584
39.9684
40.0275
40.1459
40.2499
40.2959
40.2091
39.9262
39.4627
38.8021
37.9278
36.8455
35.7381
34.5751
33.4182
32.432
31.4843
30.7244
30.1297
29.6712
29.3556
29.045
28.9431
28.7736
28.8317
29.0017
29.0367
29.6313
29.9085
30.1703
30.7887
30.7268
31.1715
31.4257
31.29
32.3431
33.1243
34.5626
37.0319
39.2185
42.5599
45.7353
48.653
51.7541
53.3134
54.5489
54.855
53.7693
52.9675
50.7137
47.9579
45.8699
42.1911
38.9769
36.7963
33.2697
30.6594
29.3172
26.6497
24.8233
24.3229
22.8863
21.7807
21.9622
21.8481
21.5176
22.0072
22.6971
23.0934
23.8937
25.1281
26.2853
27.6873
29.6372
31.8051
34.3724
37.5234
40.7617
44.054
47.5612
50.8343
53.6702
56.2688
58.3638
59.668
60.3044
60.2953
59.6349
58.4896
56.7795
54.2443
51.0359
46.8082
41.0991
34.8674
29.258
24.3626
20.1703
16.527
12.7189
8.81641
5.62019
3.15924
1.10414
0.0247976
0.885284
2.89971
5.5614
9.6097
14.8593
20.4807
25.9055
31.2552
36.4654
41.2012
45.1135
48.4346
51.151
53.1154
54.5244
55.309
55.6234
55.6401
55.4544
55.4314
55.6748
56.0565
56.617
57.1942
58.5181
59.6567
60.9373
62.0141
63.0786
63.8463
64.5959
65.0818
65.582
65.8551
66.1612
66.2858
66.6437
66.8496
67.069
67.017
66.7796
66.5564
66.0614
65.4268
64.2463
62.652
60.6436
58.2603
55.3523
51.6164
48.7846
44.2586
41.2716
37.2122
34.1445
30.7768
27.387
23.7299
19.6801
16.2504
12.884
10.9172
10.4507
11.3042
13.1307
15.4801
18.6067
22.8286
27.0109
31.0404
35.3036
39.8163
43.1122
46.2333
39.2338
39.0504
38.6965
38.0371
37.2419
36.6823
36.5016
36.7107
37.2789
37.9952
38.7665
39.4714
40.0257
40.4282
40.6127
40.6344
40.5154
40.3519
40.2064
40.0983
40.0121
39.9514
39.936
39.9581
40.0347
40.0766
40.0775
39.9413
39.6804
39.2396
38.6089
37.863
36.8627
35.862
34.7871
33.7011
32.7651
31.8206
31.1444
30.4853
30.056
29.8077
29.3839
29.4229
29.2298
29.2067
29.564
29.4379
30.0448
30.3731
30.4407
31.2924
31.1921
31.4811
32.0988
32.0233
33.2153
34.217
35.4093
37.7197
39.5179
42.447
45.3005
47.6025
50.3975
51.5442
52.502
53.0504
51.9244
51.414
49.8216
47.1671
45.5792
42.7877
39.6618
37.9431
35.2385
32.5372
31.3301
29.5004
27.5612
26.8554
26.0643
25.0518
24.8118
24.8059
24.5465
24.6279
25.0592
25.3477
25.7322
26.4994
27.3474
28.3593
29.9705
31.9009
34.2299
37.3046
40.4926
43.7333
47.4189
51.0648
54.3302
57.1858
59.474
60.905
61.4836
61.4729
60.7931
59.4005
57.4322
54.6773
50.7177
45.665
39.629
32.8868
26.8453
21.9374
17.5667
13.533
9.27813
4.79181
0.960857
-1.90247
-4.12495
-5.16475
-3.96193
-1.58088
1.38163
5.76275
11.5887
17.8853
23.8816
29.7704
35.6069
40.8592
45.3032
49.128
52.2409
54.6977
56.4752
57.6521
58.3387
58.6032
58.7191
58.8471
59.1025
59.3627
60.0604
60.7341
61.4689
62.1442
63.1028
63.7492
64.4518
64.8233
65.4093
65.4866
65.7452
65.8456
65.8326
65.7646
65.8281
65.9084
65.7326
65.5791
65.3041
64.8729
63.9185
62.9558
61.741
60.3496
58.5609
56.1128
53.9433
50.5092
47.9329
44.6344
41.5318
37.9754
34.697
31.5618
27.8728
24.467
21.0281
18.0041
15.0964
13.3296
13.0601
13.5725
15.164
17.3577
20.2508
23.9782
27.9139
31.8108
35.8537
39.6742
42.7062
44.7619
39.1373
38.9831
38.7161
38.139
37.4414
36.9468
36.7783
36.9349
37.4217
38.0326
38.7098
39.3296
39.8133
40.1896
40.3783
40.4522
40.392
40.2789
40.1521
40.0569
39.9774
39.9102
39.8799
39.8479
39.8799
39.8602
39.8482
39.6758
39.4144
39.032
38.4242
37.7933
36.8951
36.0035
35.0527
34.0552
33.2386
32.296
31.6963
31.0554
30.5606
30.4048
29.9204
30.0091
29.9172
29.7375
30.2573
30.117
30.4884
31.0571
30.9911
31.7636
31.9437
32.0237
32.8961
33.0816
34.0476
35.2248
36.181
38.2376
39.9774
42.3559
44.8918
46.5628
48.8177
49.8753
50.463
51.2205
50.3445
49.7528
48.9015
46.6397
45.1492
43.363
40.61
38.9671
37.2141
34.7485
33.365
32.1737
30.6016
29.73
29.1345
28.274
27.8491
27.6825
27.3115
27.1981
27.2598
27.2063
27.2819
27.556
27.9909
28.6917
29.9144
31.6437
33.7699
36.5262
39.6987
43.1442
47.0251
50.9832
54.7483
58.0449
60.4644
62.0138
62.7247
62.6521
61.9808
60.5767
58.284
55.0666
50.7306
44.9893
38.1415
31.3067
25.2318
20.0011
15.4096
10.9624
6.13513
1.21774
-3.02003
-6.42333
-9.14379
-9.7229
-8.16418
-5.37637
-2.00673
2.64485
8.92591
15.8551
22.5165
28.7768
35.0072
40.8164
45.8856
50.1849
53.6414
56.5148
58.6129
60.2234
61.2899
61.7843
62.1152
62.247
62.5842
62.7744
63.3537
63.4616
64.0877
64.2321
64.962
65.1651
65.7296
65.7193
66.2507
65.887
65.9316
65.8422
65.3566
65.0291
64.8193
64.638
64.4372
63.8501
63.381
62.6596
61.6727
60.4386
59.114
57.5715
56.3322
54.2003
52.1304
49.6489
47.4921
44.7118
41.7859
38.9101
35.6874
32.5986
29.2258
26.0724
22.9067
20.403
17.7297
16.3347
15.8738
16.2755
17.6983
19.5214
21.9683
25.5697
29.2687
32.5819
35.8083
39.1335
41.8384
43.4398
40.6605
40.1939
38.9599
37.9051
37.1818
36.8365
36.8325
37.0695
37.5491
38.0983
38.6851
39.2259
39.6426
39.9658
40.15
40.2645
40.2492
40.1875
40.0804
39.9873
39.9032
39.8095
39.7736
39.7071
39.6974
39.6248
39.5829
39.4231
39.1404
38.8106
38.2756
37.7302
36.9676
36.176
35.3805
34.4806
33.7731
32.9161
32.3234
31.802
31.2187
31.0888
30.7229
30.6427
30.7463
30.5449
30.9119
31.0389
31.1376
31.7488
31.8571
32.2932
32.789
32.8766
33.6214
34.1514
34.8211
35.9835
36.9829
38.6978
40.4029
42.1835
44.2429
45.6218
47.3266
48.4637
48.8767
49.5906
49.1531
48.3978
47.9934
46.3899
44.8259
43.7026
41.6818
39.9631
38.6871
36.9314
35.5103
34.5707
33.4971
32.5662
31.9851
31.2622
30.6934
30.422
29.9019
29.4495
29.2015
28.8298
28.5134
28.3937
28.3932
28.7399
29.6155
30.9131
32.738
35.2926
38.3706
41.947
46.1208
50.4859
54.7091
58.441
61.1903
62.9395
63.8257
63.8328
63.0548
61.5459
59.1725
55.5633
50.6836
44.5783
37.2731
30.045
23.9528
18.7051
13.7637
8.7707
3.56578
-1.70852
-6.37124
-9.98901
-12.4329
-13.0669
-11.3458
-8.30239
-4.56858
0.379837
7.07928
14.5806
21.6626
28.4143
35.0789
41.2062
46.6341
51.3662
55.2518
58.4077
60.8543
62.7098
64.0282
64.5721
65.2952
65.4774
65.9601
65.801
66.1942
65.8408
66.4592
66.0787
66.5238
66.2835
66.5457
66.1787
66.853
66.0168
66.1871
65.4854
64.8808
63.8447
63.4143
62.7533
62.1721
61.5837
60.8961
59.952
58.6544
57.4826
56.4023
54.7983
53.6707
52.1963
50.8494
48.947
46.9067
44.73
42.1736
39.7269
36.9458
34.1713
31.2051
28.4728
25.8316
23.1881
21.1011
19.7071
19.2299
19.4565
20.3257
22.1887
24.1953
27.4102
30.3509
32.9112
35.9904
38.6315
40.819
42.2716
41.6833
41.1059
39.2912
37.8279
36.9569
36.6471
36.7753
37.1375
37.6583
38.1796
38.6972
39.1728
39.5394
39.8144
39.979
40.1014
40.1037
40.0614
39.9764
39.8992
39.8312
39.7093
39.6662
39.5744
39.4854
39.3843
39.2884
39.1876
38.9124
38.633
38.1957
37.6953
37.0834
36.3692
35.7425
34.9701
34.318
33.6282
33.0089
32.5832
32.0205
31.8258
31.6084
31.4196
31.5721
31.4799
31.6704
31.9534
31.9793
32.4513
32.746
32.9964
33.5439
33.7782
34.3359
34.9933
35.5522
36.6074
37.6505
39.0103
40.5133
41.8842
43.568
44.8585
46.1558
47.3058
47.6574
48.1706
48.1375
47.4377
47.1817
46.2048
44.7968
43.9314
42.5617
41.0333
39.9511
38.8117
37.6166
36.7596
36.0347
35.1814
34.5551
33.9298
33.2833
32.835
32.2324
31.5604
30.9318
30.3303
29.667
29.0445
28.7279
28.5371
28.7778
29.6807
31.1475
33.4503
36.5016
40.1633
44.5564
49.388
54.1122
58.3401
61.5635
63.6111
64.6607
64.7706
63.9974
62.3212
59.6778
55.8544
50.6821
44.173
36.7686
29.4053
23.0656
17.7811
12.6607
7.26953
1.70344
-3.91769
-8.85414
-12.524
-14.9029
-15.2539
-13.3877
-10.2284
-6.22963
-0.932406
6.14634
13.9996
21.5075
28.6661
35.4581
41.801
47.7181
52.7107
56.9556
60.1465
62.8676
64.8544
66.5798
67.1779
68.1999
68.2272
68.6206
68.3814
68.5625
68.0157
68.2632
67.8299
67.7609
67.5097
67.1208
66.2204
66.8419
65.0368
65.5096
64.0598
63.4132
62.1472
61.2523
60.1257
59.0882
58.4049
57.5711
56.4576
55.0646
53.8352
52.8127
51.9027
51.2268
50.319
49.4024
48.2399
46.8643
44.9706
42.6465
40.7365
38.3033
35.9751
33.5985
31.1291
28.7429
26.5627
24.5079
23.2787
22.8286
22.8161
23.5241
24.7574
26.5078
28.9583
31.2001
33.5622
35.954
37.9517
39.9917
41.3401
42.3243
41.7532
39.6795
37.973
36.9588
36.577
36.7419
37.172
37.7224
38.248
38.7261
39.1785
39.4959
39.707
39.8529
39.954
39.9639
39.9373
39.8835
39.8157
39.7339
39.5894
39.5329
39.4393
39.2986
39.1985
39.0958
38.9973
38.7526
38.5032
38.1545
37.7249
37.2144
36.5986
36.0975
35.4512
34.8482
34.2769
33.7156
33.3158
32.8484
32.6024
32.4509
32.2741
32.3478
32.3767
32.4888
32.743
32.8434
33.1689
33.5283
33.7648
34.2238
34.574
35.0011
35.6449
36.2156
37.1013
38.0779
39.141
40.4149
41.5812
42.987
44.2176
45.2269
46.2646
46.6623
47.0126
47.2546
46.7843
46.5405
46.0028
44.9282
44.1844
43.2722
42.1086
41.1746
40.4402
39.5491
38.7358
38.214
37.5353
36.9233
36.3159
35.667
35.1392
34.3998
33.6406
32.7483
31.7132
30.8047
29.6583
28.6605
27.9747
27.5703
27.916
29.0802
31.174
34.097
37.8127
42.4281
47.6853
52.913
57.816
61.5165
63.8666
65.0837
65.249
64.4817
62.7728
59.8961
55.7082
50.3354
43.7221
36.4051
29.1412
22.7471
17.2997
11.9984
6.50457
0.764356
-5.19086
-10.2322
-13.964
-16.2056
-16.2206
-14.4225
-11.191
-6.96237
-1.22671
6.16771
14.1899
22.0571
29.3783
36.4066
42.889
48.9978
54.1879
58.7037
61.948
64.9751
66.952
68.9054
69.4357
70.4823
70.5284
70.65
70.432
70.0781
69.8639
69.8147
69.5543
68.9148
68.4418
67.3638
66.0755
65.7999
63.651
63.6348
61.7458
60.7857
59.6227
57.9239
56.5685
55.6345
54.6505
53.4857
51.9486
50.4178
49.3075
48.7535
48.5037
48.5115
48.3672
48.1695
47.7827
46.5806
45.3383
43.6692
42.0363
40.0872
37.9864
35.933
33.6759
31.4298
29.6039
27.6102
26.427
25.8538
25.7122
26.2757
27.2232
28.5172
30.3548
32.243
34.0386
35.9953
37.676
39.2727
40.4937
42.7221
42.1877
40.0352
38.2095
37.0801
36.5883
36.7262
37.1831
37.7508
38.2914
38.7445
39.1915
39.4664
39.6194
39.7911
39.8507
39.8499
39.8092
39.7531
39.7172
39.5945
39.4804
39.4251
39.3166
39.1653
39.0405
38.9658
38.8401
38.6395
38.4352
38.1468
37.8111
37.3399
36.8456
36.4267
35.8677
35.3623
34.8563
34.4027
34.0127
33.6155
33.3816
33.2193
33.102
33.109
33.2035
33.3066
33.485
33.666
33.8919
34.2348
34.4844
34.8287
35.221
35.5687
36.151
36.7335
37.4226
38.3142
39.2192
40.3076
41.3802
42.5296
43.6058
44.4503
45.3521
45.7987
46.1007
46.4668
46.2281
46.0278
45.7986
45.0891
44.4883
43.917
43.15
42.4166
41.8907
41.2908
40.6459
40.197
39.7197
39.2282
38.651
38.0374
37.4937
36.6943
35.721
34.6416
33.2778
31.7722
30.0642
28.3773
27.0353
26.0755
25.919
26.7282
28.5198
31.2387
34.9317
39.7344
45.1485
51.0892
56.663
60.8796
63.4473
64.7528
65.0416
64.3535
62.6482
59.7238
55.4425
49.8251
43.189
36.1235
29.0707
22.8123
17.2931
11.9131
6.39703
0.597595
-5.2826
-10.401
-14.2746
-16.2212
-16.2396
-14.5174
-11.1575
-6.75318
-0.5625
7.02167
15.2941
23.2578
30.7397
37.736
44.3449
50.5695
56.0256
60.5812
63.9127
66.9819
68.9106
70.7638
71.4216
72.3597
72.3766
72.3149
72.0383
72.0539
71.4092
71.0741
70.6156
69.7002
68.7737
67.0665
65.7546
64.2308
62.832
61.9948
60.4473
58.7109
57.0154
54.6846
52.9563
52.08
51.1667
49.4001
46.9664
44.8946
44.1206
44.156
44.6124
45.5039
46.3582
46.9813
47.2215
46.7375
46.3131
45.2298
43.9888
42.0761
40.0393
38.3146
36.1165
33.7002
32.1603
30.3553
28.924
28.6107
28.2403
28.6421
29.6323
30.2594
31.7561
33.2753
34.4677
36.1639
37.4862
38.6338
39.8151
42.954
42.4507
40.2925
38.4371
37.2342
36.6632
36.763
37.2135
37.7839
38.3208
38.7692
39.2224
39.4614
39.5659
39.7479
39.7602
39.7216
39.6919
39.6232
39.6259
39.4915
39.3667
39.3548
39.203
39.0664
38.9466
38.8722
38.7668
38.5671
38.4486
38.1834
37.8953
37.494
37.0715
36.7437
36.2535
35.8278
35.4135
35.0138
34.6752
34.3295
34.1143
33.9622
33.8646
33.8639
33.9695
34.0557
34.2066
34.403
34.5791
34.902
35.1336
35.4098
35.7852
36.1114
36.6072
37.1196
37.6793
38.4385
39.2389
40.1829
41.1455
42.0726
43.0121
43.7888
44.5383
45.0562
45.3946
45.7488
45.7575
45.669
45.5901
45.2466
44.8362
44.5157
44.1095
43.614
43.262
42.917
42.504
42.1572
41.8564
41.5
41.0387
40.5731
39.9524
39.1004
38.0694
36.6346
34.8823
32.8387
30.4581
28.0842
26.0079
24.5186
23.869
24.2467
25.7341
28.1268
31.8062
36.84
42.8102
49.0408
54.7792
59.3347
62.3291
63.8584
64.2197
63.5874
61.9662
59.1672
55.0572
49.5399
43.0045
36.0026
29.1659
23.188
17.7191
12.3109
6.95909
1.28269
-4.37846
-9.45172
-13.2339
-15.0597
-15.3234
-13.456
-10.1816
-5.40954
1.06542
8.79118
17.1313
25.0651
32.518
39.4879
46.2312
52.2832
57.9355
62.3194
65.8911
68.8121
70.9106
72.4648
73.3854
73.8178
74.0182
73.8284
73.391
73.3134
72.4731
72.1345
71.0721
69.9859
68.617
66.9114
65.7591
64.1687
63.1422
61.8737
60.1512
58.133
55.6605
52.9836
51.1237
49.7153
48.4171
46.7146
43.001
39.3247
38.3893
39.1865
40.5782
42.4933
44.4931
45.7338
46.8056
47.3077
47.5743
47.2208
46.2368
44.5833
43.0023
41.0626
39.0467
36.6428
34.7192
32.9498
31.4446
31.0817
30.5456
30.6892
31.4894
31.7507
32.9253
34.1258
34.7283
36.2018
37.5402
38.2234
39.2669
43.1143
42.6086
40.4637
38.6196
37.3827
36.7577
36.8435
37.2838
37.8354
38.3701
38.8095
39.2573
39.4561
39.5294
39.7036
39.6851
39.627
39.5939
39.524
39.511
39.3896
39.2574
39.2712
39.1368
38.9836
38.9168
38.7973
38.715
38.5309
38.4067
38.2619
37.9668
37.6691
37.3042
37.0157
36.6368
36.2349
35.9332
35.5861
35.2933
35.0285
34.8168
34.6934
34.5942
34.5817
34.679
34.7562
34.879
35.0822
35.2303
35.5068
35.7297
35.9495
36.2821
36.5705
37.0044
37.4391
37.941
38.5632
39.2395
40.0331
40.8313
41.6121
42.4252
43.151
43.7948
44.3373
44.7439
45.1069
45.3298
45.452
45.4902
45.4123
45.2704
45.1127
44.9405
44.716
44.5292
44.4064
44.256
44.0441
43.8906
43.7135
43.356
43.0082
42.4918
41.5857
40.4428
38.8121
36.6858
34.1151
31.0652
28.0134
25.2498
23.1851
22.2289
22.2098
23.2281
25.4042
28.8441
34.0524
40.2899
46.6734
52.5701
57.4377
60.696
62.2911
62.7159
62.1135
60.6422
58.1425
54.4147
49.3517
43.1686
36.2948
29.656
23.8468
18.3991
13.2262
8.14391
2.58605
-2.67476
-7.36462
-10.9136
-12.8113
-12.9536
-11.0493
-8.04545
-2.79615
3.60996
11.5525
19.5589
27.3592
34.6773
41.5061
48.19
54.2028
59.9075
64.2692
67.9112
70.5668
72.8502
73.9091
75.1403
75.0525
75.5075
74.9659
74.75
74.1882
73.4473
72.8361
71.5153
70.5239
69.3315
67.9176
67.2789
65.7719
64.1399
62.6705
59.9904
57.1005
54.2836
52.0189
50.3479
48.8402
47.0462
44.6053
40.1755
34.7369
32.7781
34.0601
36.8289
39.6327
42.327
44.6909
46.8685
48.371
49.2336
49.4782
48.8861
47.451
46.2814
44.1607
42.268
40.1794
37.894
36.0372
34.3445
33.8081
33.2264
32.8021
33.3698
33.397
33.9443
35.1788
35.5376
36.3559
37.5602
37.9071
38.805
43.1942
42.6659
40.5653
38.7592
37.5059
36.8934
36.9715
37.4156
37.9341
38.4335
38.8849
39.2813
39.4486
39.5048
39.6505
39.6122
39.5266
39.4898
39.4214
39.4065
39.2886
39.197
39.1942
39.0812
38.9397
38.8686
38.7849
38.6654
38.5405
38.4144
38.3035
38.0971
37.7998
37.5516
37.2827
36.9646
36.6653
36.3862
36.1479
35.8749
35.6654
35.4914
35.3519
35.3019
35.2694
35.369
35.4681
35.56
35.7628
35.8812
36.0695
36.2919
36.4625
36.739
36.9822
37.3317
37.6983
38.1176
38.6288
39.1806
39.8316
40.471
41.1546
41.8566
42.5269
43.1502
43.6963
44.149
44.5804
44.9433
45.2155
45.4391
45.5841
45.6826
45.7269
45.75
45.7726
45.7745
45.818
45.8614
45.8101
45.7724
45.6949
45.4863
45.2699
44.8322
43.9802
42.7519
40.9682
38.5749
35.4891
31.8918
28.3167
25.0047
22.5335
21.3372
21.0479
21.638
23.5142
26.9885
32.1396
38.2099
44.4593
50.3646
55.2469
58.4348
59.9991
60.6803
60.046
58.7879
56.7267
53.5666
49.1486
43.4871
37.0482
30.7177
24.8588
19.5308
14.6105
9.56287
4.51246
-0.159996
-4.55418
-7.71709
-9.32719
-9.36825
-7.64869
-4.2054
0.787489
7.10395
14.8517
22.3867
29.952
37.0489
43.7639
50.3106
56.4637
61.8474
66.1687
69.7631
72.1565
74.4536
75.3036
76.5153
76.2684
76.7223
75.9431
75.8432
74.9039
74.3976
73.265
72.5765
71.5672
70.9798
69.4876
69.0714
67.6628
65.0427
63.299
60.2974
56.126
52.9606
50.7082
49.2227
48.5326
46.3043
43.0778
38.0346
31.8668
28.642
29.2541
33.098
37.1033
40.7859
44.2858
47.1632
49.7248
51.1699
51.9734
51.7131
50.5436
50.1223
47.7723
45.718
44.2859
41.6641
39.5735
38.0025
36.8008
35.9954
35.2802
35.1714
34.9636
34.9691
35.7567
35.6118
36.468
37.7817
37.9655
38.5761
43.2089
42.6558
40.6104
38.8587
37.6029
37.0468
37.1365
37.5857
38.0951
38.5162
38.9836
39.3152
39.4234
39.4899
39.5719
39.5479
39.4393
39.3867
39.3481
39.3085
39.2003
39.1371
39.1326
39.0219
38.9314
38.8487
38.7868
38.6618
38.5371
38.479
38.3362
38.2306
37.9639
37.7665
37.58
37.2573
37.0854
36.8173
36.6462
36.4413
36.2552
36.1562
36.0049
36.0179
35.9582
36.0486
36.1491
36.1873
36.3826
36.474
36.624
36.8364
36.9833
37.2026
37.407
37.6685
37.9411
38.2326
38.6383
39.0485
39.5842
40.1357
40.6843
41.2891
41.8832
42.493
43.059
43.6042
44.1415
44.6119
45.0479
45.4304
45.7566
46.0639
46.3256
46.5528
46.7792
46.9797
47.1518
47.3294
47.4048
47.4451
47.4694
47.3696
47.2333
46.8553
46.0939
44.8526
42.9041
40.2944
36.835
32.7465
28.7809
25.1847
22.4471
21.0752
20.6561
20.9946
22.5575
25.9264
31.017
36.9191
42.8966
48.5
53.0409
55.8104
57.1727
57.6401
57.4576
56.6957
55.2749
52.7987
49.0299
44.0053
38.1647
32.1756
26.3978
21.1285
16.246
11.4354
6.89014
2.57909
-1.23219
-3.80996
-5.20359
-4.98749
-3.23227
0.228086
4.9636
11.173
18.2714
25.3696
32.6185
39.4353
46.1623
52.4478
58.5839
63.7953
67.9396
71.5954
73.7401
76.024
76.7256
77.727
77.5587
77.6433
76.9618
76.5361
75.6047
75.0556
73.8672
73.5124
72.3369
71.8683
70.2477
69.5429
68.6018
65.6669
63.4593
60.8084
55.8496
52.6795
49.8267
48.2891
48.7639
47.1947
42.3079
36.929
30.1637
25.7751
26.38
30.5762
34.7163
39.5209
44.4093
48.0822
51.8613
53.8067
54.6947
54.6147
54.1383
53.8563
51.299
49.3014
48.153
45.3371
42.9595
41.4274
39.5962
38.4701
37.6176
36.8549
36.6462
36.5083
36.709
36.7998
37.2588
37.933
38.138
38.7177
43.1328
42.5627
40.5642
38.9131
37.7225
37.2578
37.3958
37.8163
38.3086
38.6486
39.065
39.3536
39.3916
39.4596
39.4945
39.4604
39.3682
39.2882
39.2759
39.2219
39.1225
39.0849
39.0795
38.9933
38.9175
38.8617
38.788
38.6868
38.5703
38.5338
38.415
38.3135
38.1538
37.9654
37.85
37.5845
37.4388
37.2724
37.0964
36.9885
36.8325
36.7655
36.6691
36.6486
36.6393
36.6895
36.7951
36.8519
36.9998
37.1027
37.2225
37.3713
37.483
37.6179
37.7739
37.961
38.1536
38.3607
38.6027
38.9101
39.3057
39.7478
40.242
40.7689
41.3189
41.8958
42.4712
43.0681
43.6817
44.2915
44.8731
45.4302
45.9487
46.4232
46.8864
47.2864
47.6699
48.0369
48.3251
48.5858
48.7492
48.7989
48.8543
48.8345
48.7023
48.3441
47.6303
46.4725
44.5344
41.696
37.8989
33.4238
29.0365
25.3151
22.6709
21.2666
20.6651
20.8192
22.2986
25.6639
30.5952
36.1795
41.8562
47.0698
51.0311
53.1204
54.2148
54.5493
54.8885
54.7721
53.9942
52.1785
49.0969
44.7744
39.5284
33.9575
28.458
23.2133
18.303
13.7315
9.47443
5.49801
2.28338
0.0605989
-1.11242
-0.624601
1.28554
4.57838
9.11545
15.009
21.6623
28.2771
35.1505
41.8792
48.4454
54.7146
60.6965
65.8687
69.7486
73.3239
75.4078
77.3672
78.1394
78.8076
78.7152
78.5175
77.805
77.1531
76.2663
75.4627
74.5393
73.6568
72.587
71.66
70.3331
69.6354
68.8534
66.5869
63.6817
61.0402
56.0409
52.8821
49.8654
47.505
48.0692
46.6104
42.0758
36.4737
29.5226
24.042
24.9466
29.2555
33.3134
39.1183
44.963
49.8401
54.5026
56.5344
57.3346
57.4085
57.4745
56.7567
54.5631
52.6522
51.147
48.2772
45.9955
44.4565
42.0605
40.699
39.9895
38.8134
38.4498
38.3948
37.8692
37.8022
38.1923
38.273
38.3302
38.8388
42.9109
42.3577
40.447
38.9271
37.8642
37.5453
37.7304
38.11
38.5426
38.8228
39.1552
39.3651
39.3841
39.407
39.4058
39.3722
39.2811
39.2109
39.1913
39.158
39.0679
39.0487
39.0368
38.9553
38.9187
38.8552
38.8012
38.7184
38.6236
38.5925
38.5041
38.4181
38.3115
38.1893
38.0794
37.9093
37.792
37.684
37.5624
37.4845
37.3988
37.3391
37.3011
37.2853
37.3029
37.3537
37.4332
37.4973
37.5867
37.6706
37.7564
37.85
37.9336
38.0272
38.1262
38.2594
38.3676
38.4979
38.6455
38.8208
39.0909
39.3743
39.7761
40.2244
40.7244
41.3336
41.9446
42.6323
43.332
44.0425
44.7446
45.4135
46.0892
46.6966
47.295
47.8419
48.3154
48.775
49.1405
49.4125
49.6184
49.6877
49.6763
49.6528
49.4982
49.1413
48.5268
47.4573
45.6227
42.7668
38.7654
33.9504
29.2061
25.3347
22.8588
21.7993
21.3812
21.4549
22.9138
26.1685
30.8258
36.1168
41.4906
46.1191
49.3377
50.7287
51.6756
52.1785
52.8286
53.1771
52.9241
51.6805
49.2373
45.5737
40.9978
36.0638
30.8465
25.6909
20.979
16.4853
12.2816
8.67204
5.7986
3.74408
2.85583
3.37479
5.31451
8.62175
12.8558
18.3637
24.8425
31.0848
37.5469
44.5455
50.8594
56.9718
63.0172
67.6674
71.5948
74.8262
76.9648
78.5729
79.4021
79.8214
79.6991
79.2914
78.5304
77.7796
76.8576
75.9514
74.8289
73.7574
72.6492
71.4388
70.4887
69.4416
68.9547
67.2964
64.3945
61.1135
56.0164
53.6448
50.5313
49.6117
49.2172
47.7417
43.8116
37.3342
29.073
23.7858
25.6428
28.216
32.3915
40.1098
46.3371
52.2929
57.1873
59.0664
59.7787
60.5927
60.6994
59.2125
57.4737
55.7025
53.6598
50.6398
48.681
46.8514
44.1877
42.803
41.9544
40.5503
39.9011
39.6244
38.9352
38.7573
38.881
38.6683
38.644
39.0103
42.4084
41.9273
40.2885
39.0067
38.19
37.9888
38.1556
38.4622
38.7995
38.9961
39.2345
39.3431
39.348
39.3589
39.3122
39.3039
39.2016
39.1504
39.1258
39.0714
39.0427
38.9934
39.0006
38.9388
38.9082
38.8733
38.8069
38.7662
38.6756
38.6612
38.5875
38.5233
38.4758
38.3794
38.3156
38.2043
38.1369
38.0628
37.9954
37.9539
37.9055
37.8923
37.8738
37.8861
37.9115
37.9584
38.0234
38.0784
38.1471
38.2078
38.2663
38.3176
38.3641
38.4164
38.461
38.5075
38.5224
38.5437
38.5992
38.7099
38.9181
39.1722
39.5143
39.8965
40.3306
40.899
41.5273
42.2488
43.0294
43.8196
44.609
45.3652
46.1243
46.8472
47.529
48.1719
48.7224
49.1961
49.559
49.7861
49.9378
50.001
49.9693
49.8839
49.6681
49.3058
48.7969
47.8756
46.2543
43.6106
39.6924
34.6954
29.7258
25.8831
23.547
22.6604
22.6642
22.9444
24.4972
27.6209
31.9674
36.8969
41.6628
45.5093
47.9038
49.0849
49.8509
50.4695
51.3444
51.9885
52.0498
51.1838
49.2229
46.214
42.4322
38.0864
33.3457
28.681
24.1307
19.4884
15.4519
12.147
9.23975
7.28627
6.59346
7.04849
9.13668
12.2819
15.9829
21.5498
27.9968
33.6955
40.0114
47.2836
53.2584
59.2274
65.1183
69.3674
73.3557
76.2848
78.3485
79.7581
80.4919
80.7679
80.4984
80.0335
79.2036
78.4467
77.4281
76.4436
75.0894
74.035
72.8048
72.2078
71.0851
70.2264
70.1496
67.8062
65.0575
61.2444
56.1234
55.649
49.948
49.4798
52.1171
51.2008
46.3775
39.1333
29.1615
23.5704
27.042
27.5219
33.7725
41.3116
47.8522
55.7795
60.2376
61.7175
62.7892
64.4428
63.847
61.8213
60.2633
58.5144
55.6507
52.5349
50.79
48.6125
45.915
44.2168
43.211
41.8916
41.0457
40.5058
39.7844
39.5461
39.4087
38.9549
38.8707
39.1372
41.6094
41.2751
40.1255
39.2024
38.658
38.5398
38.6368
38.84
39.037
39.1528
39.2943
39.3129
39.3195
39.3036
39.229
39.2253
39.1323
39.0988
39.0749
39.0215
39.0167
38.9647
38.9617
38.925
38.8958
38.8788
38.8211
38.7995
38.7428
38.7132
38.6775
38.6322
38.6108
38.5563
38.5178
38.4641
38.4271
38.3943
38.3611
38.3567
38.3484
38.358
38.3716
38.39
38.4188
38.4592
38.5039
38.5513
38.6051
38.6395
38.6679
38.6709
38.6696
38.6846
38.6942
38.7146
38.6979
38.6702
38.6525
38.6784
38.799
38.9945
39.2954
39.6618
40.1088
40.6776
41.3207
42.0585
42.8551
43.6721
44.4838
45.2712
46.0579
46.816
47.5492
48.2244
48.8039
49.2559
49.5683
49.7883
49.9147
49.9067
49.7987
49.6827
49.5537
49.2128
48.6632
47.8676
46.4762
44.1275
40.5388
35.8119
31.002
27.264
25.0143
24.0751
23.8068
24.6985
26.6992
29.9415
34.0323
38.4276
42.3969
45.4069
47.2818
48.3519
49.0331
49.7537
50.5143
51.1909
51.304
50.5549
48.8991
46.5133
43.5244
40.0067
36.0066
31.8251
27.4234
22.9214
19.1008
15.6928
12.6565
10.8939
10.0963
10.4444
12.8339
15.6951
18.8219
24.6669
31.0776
36.2683
42.4568
49.8167
55.5553
61.462
66.9405
71.2059
74.9552
77.6234
79.5193
80.7859
81.3743
81.5572
81.2227
80.7051
79.896
79.1011
78.0551
76.9384
75.4868
74.329
73.0772
72.4833
71.791
71.2969
71.6028
69.4482
66.1121
60.9656
57.1629
56.81
52.0225
47.9628
49.6331
48.6952
45.9532
40.4863
30.6424
26.1388
27.273
27.5805
36.1897
43.0483
51.1816
59.0897
62.6061
64.3993
66.1888
67.5665
66.3076
64.4188
62.6598
60.4647
57.1821
54.3879
52.2829
49.7907
47.3199
45.4637
44.386
43.058
41.8032
41.151
40.5715
39.9841
39.7015
39.3177
39.1202
39.2728
40.7323
40.582
40.0328
39.5469
39.2461
39.1276
39.103
39.1553
39.2205
39.2536
39.311
39.2898
39.282
39.2544
39.1751
39.1645
39.0881
39.0585
39.0356
38.9883
38.9935
38.9457
38.9379
38.914
38.8892
38.8792
38.8373
38.8298
38.7881
38.7651
38.7463
38.72
38.714
38.6894
38.6742
38.6549
38.6495
38.64
38.6387
38.6543
38.6644
38.6883
38.7132
38.742
38.7768
38.8153
38.849
38.8838
38.9184
38.9355
38.9404
38.9281
38.9044
38.8865
38.8671
38.8391
38.7916
38.7363
38.6992
38.7136
38.8139
38.9903
39.2545
39.6007
40.035
40.5848
41.2282
41.9625
42.7546
43.5638
44.3645
45.1456
45.9239
46.6929
47.4241
48.0791
48.638
49.0641
49.3463
49.5513
49.7209
49.761
49.6255