/*--------------------------------*- C++ -*----------------------------------*\
| =========                 |                                                 |
| \\      /  F ield         | OpenFOAM: The Open Source CFD Toolbox           |
|  \\    /   O peration     | Version:  2.4.0                                 |
|   \\  /    A nd           | Web:      www.OpenFOAM.org                      |
|    \\/     M anipulation  |                                                 |
\*---------------------------------------------------------------------------*/
FoamFile
{
    version     2.0;
    format      ascii;
    class       volScalarField;
    location    "0.29";
    object      pPrime2Mean;
}
// * * * * * * * * * * * * * * * * * * * * * * * * * * * * * * * * * * * * * //

dimensions      [0 4 -4 0 0 0 0];

internalField   nonuniform List<scalar> 
8800
(
2.22894e+06
2.17269e+06
2.11234e+06
2.0525e+06
1.99348e+06
1.93531e+06
1.87801e+06
1.82156e+06
1.76597e+06
1.71124e+06
1.65735e+06
1.60431e+06
1.55209e+06
1.50067e+06
1.45e+06
1.39998e+06
1.35042e+06
1.30094e+06
1.25065e+06
1.19673e+06
2.22902e+06
2.1727e+06
2.11233e+06
2.0525e+06
1.99348e+06
1.93531e+06
1.87801e+06
1.82156e+06
1.76597e+06
1.71124e+06
1.65735e+06
1.60431e+06
1.55209e+06
1.50068e+06
1.45001e+06
1.4e+06
1.35047e+06
1.30105e+06
1.25092e+06
1.19764e+06
2.22907e+06
2.1727e+06
2.11232e+06
2.05249e+06
1.99347e+06
1.93531e+06
1.87801e+06
1.82156e+06
1.76597e+06
1.71124e+06
1.65735e+06
1.60431e+06
1.5521e+06
1.50069e+06
1.45004e+06
1.40006e+06
1.35058e+06
1.30127e+06
1.25143e+06
1.19941e+06
2.2291e+06
2.17269e+06
2.1123e+06
2.05248e+06
1.99347e+06
1.93531e+06
1.87801e+06
1.82156e+06
1.76597e+06
1.71124e+06
1.65736e+06
1.60432e+06
1.55211e+06
1.50071e+06
1.45008e+06
1.40013e+06
1.35073e+06
1.30158e+06
1.25214e+06
1.20148e+06
2.22914e+06
2.17269e+06
2.11229e+06
2.05247e+06
1.99346e+06
1.93531e+06
1.878e+06
1.82156e+06
1.76597e+06
1.71124e+06
1.65736e+06
1.60433e+06
1.55213e+06
1.50074e+06
1.45013e+06
1.40023e+06
1.35092e+06
1.30196e+06
1.25299e+06
1.20362e+06
2.22916e+06
2.1727e+06
2.11228e+06
2.05246e+06
1.99346e+06
1.93531e+06
1.878e+06
1.82156e+06
1.76597e+06
1.71124e+06
1.65736e+06
1.60433e+06
1.55214e+06
1.50077e+06
1.45019e+06
1.40035e+06
1.35114e+06
1.30241e+06
1.25392e+06
1.2057e+06
2.22918e+06
2.1727e+06
2.11228e+06
2.05245e+06
1.99346e+06
1.93531e+06
1.878e+06
1.82156e+06
1.76597e+06
1.71124e+06
1.65737e+06
1.60435e+06
1.55216e+06
1.50081e+06
1.45027e+06
1.40048e+06
1.35139e+06
1.30289e+06
1.2549e+06
1.20768e+06
2.22919e+06
2.1727e+06
2.11227e+06
2.05245e+06
1.99345e+06
1.93531e+06
1.87801e+06
1.82156e+06
1.76597e+06
1.71125e+06
1.65738e+06
1.60436e+06
1.55219e+06
1.50085e+06
1.45034e+06
1.40063e+06
1.35166e+06
1.3034e+06
1.25588e+06
1.20953e+06
2.2292e+06
2.1727e+06
2.11227e+06
2.05244e+06
1.99345e+06
1.93531e+06
1.87801e+06
1.82156e+06
1.76598e+06
1.71125e+06
1.65738e+06
1.60437e+06
1.55221e+06
1.5009e+06
1.45042e+06
1.40078e+06
1.35194e+06
1.30392e+06
1.25684e+06
1.21124e+06
2.22921e+06
2.1727e+06
2.11227e+06
2.05244e+06
1.99345e+06
1.93531e+06
1.87801e+06
1.82156e+06
1.76598e+06
1.71125e+06
1.65739e+06
1.60438e+06
1.55224e+06
1.50095e+06
1.45051e+06
1.40093e+06
1.35222e+06
1.30444e+06
1.25776e+06
1.21279e+06
2.22921e+06
2.1727e+06
2.11227e+06
2.05244e+06
1.99345e+06
1.93531e+06
1.87801e+06
1.82156e+06
1.76598e+06
1.71126e+06
1.6574e+06
1.6044e+06
1.55226e+06
1.50099e+06
1.45059e+06
1.40108e+06
1.3525e+06
1.30493e+06
1.25863e+06
1.21419e+06
2.2292e+06
2.1727e+06
2.11227e+06
2.05244e+06
1.99345e+06
1.93531e+06
1.87801e+06
1.82156e+06
1.76598e+06
1.71126e+06
1.65741e+06
1.60441e+06
1.55229e+06
1.50104e+06
1.45068e+06
1.40123e+06
1.35277e+06
1.30541e+06
1.25943e+06
1.21544e+06
2.22919e+06
2.1727e+06
2.11227e+06
2.05245e+06
1.99346e+06
1.93531e+06
1.87801e+06
1.82157e+06
1.76598e+06
1.71127e+06
1.65741e+06
1.60443e+06
1.55231e+06
1.50108e+06
1.45076e+06
1.40138e+06
1.35302e+06
1.30584e+06
1.26015e+06
1.21654e+06
2.22918e+06
2.1727e+06
2.11228e+06
2.05245e+06
1.99346e+06
1.93531e+06
1.87801e+06
1.82157e+06
1.76599e+06
1.71127e+06
1.65742e+06
1.60444e+06
1.55233e+06
1.50112e+06
1.45083e+06
1.40151e+06
1.35325e+06
1.30624e+06
1.2608e+06
1.21749e+06
2.22916e+06
2.1727e+06
2.11228e+06
2.05246e+06
1.99346e+06
1.93531e+06
1.87801e+06
1.82157e+06
1.76599e+06
1.71128e+06
1.65743e+06
1.60445e+06
1.55236e+06
1.50116e+06
1.45089e+06
1.40162e+06
1.35346e+06
1.30659e+06
1.26136e+06
1.21831e+06
2.22914e+06
2.17269e+06
2.11229e+06
2.05247e+06
1.99347e+06
1.93531e+06
1.87801e+06
1.82157e+06
1.76599e+06
1.71128e+06
1.65743e+06
1.60446e+06
1.55237e+06
1.50119e+06
1.45095e+06
1.40173e+06
1.35363e+06
1.30688e+06
1.26182e+06
1.21898e+06
2.2291e+06
2.17269e+06
2.11231e+06
2.05248e+06
1.99347e+06
1.93531e+06
1.87801e+06
1.82157e+06
1.766e+06
1.71128e+06
1.65744e+06
1.60447e+06
1.55239e+06
1.50122e+06
1.451e+06
1.40181e+06
1.35378e+06
1.30712e+06
1.2622e+06
1.21952e+06
2.22907e+06
2.1727e+06
2.11232e+06
2.05249e+06
1.99348e+06
1.93532e+06
1.87801e+06
1.82158e+06
1.766e+06
1.71129e+06
1.65744e+06
1.60448e+06
1.5524e+06
1.50124e+06
1.45104e+06
1.40187e+06
1.35389e+06
1.30731e+06
1.26248e+06
1.21992e+06
2.22902e+06
2.1727e+06
2.11233e+06
2.0525e+06
1.99348e+06
1.93532e+06
1.87802e+06
1.82158e+06
1.766e+06
1.71129e+06
1.65745e+06
1.60448e+06
1.55241e+06
1.50125e+06
1.45106e+06
1.40192e+06
1.35396e+06
1.30743e+06
1.26267e+06
1.22019e+06
2.22894e+06
2.17269e+06
2.11234e+06
2.0525e+06
1.99348e+06
1.93532e+06
1.87802e+06
1.82158e+06
1.766e+06
1.71129e+06
1.65745e+06
1.60448e+06
1.55241e+06
1.50126e+06
1.45107e+06
1.40194e+06
1.354e+06
1.30749e+06
1.26277e+06
1.22032e+06
1.14788e+06
1.13473e+06
1.12469e+06
1.11602e+06
1.10798e+06
1.10033e+06
1.09295e+06
1.08578e+06
1.07876e+06
1.07188e+06
1.06509e+06
1.05839e+06
1.05176e+06
1.0452e+06
1.03868e+06
1.03221e+06
1.02578e+06
1.01939e+06
1.01302e+06
1.00667e+06
1.00036e+06
994072
987811
981574
975362
969172
963006
956863
950743
944647
938575
932530
926511
920518
914551
908609
902691
896796
890923
885071
879238
873424
867629
861851
856090
850346
844619
838910
833219
827545
821889
816250
810629
805025
799439
793872
788325
782799
777293
771807
766342
760897
755472
750067
744682
739316
733971
728645
723341
718056
712793
707549
702325
697121
691937
686773
681628
676504
671400
666319
661261
656226
651213
646223
641252
636299
631364
626444
621542
616656
611787
606931
602090
597262
592449
587652
582871
578108
573363
568638
563933
559248
554586
549946
545328
540733
536159
531605
527072
522560
518067
513593
509138
504702
500286
495888
491507
487144
482798
478470
474159
469865
465589
461331
457091
452872
448672
444494
440338
436203
432090
427998
423928
419878
415850
411842
407854
403886
399938
396009
392099
388208
384337
380484
376650
372835
369039
365262
361505
357767
354048
350349
346668
343007
339364
335740
332135
328549
324981
321434
317905
314396
310906
307438
303989
300563
297156
293772
290409
287068
283745
280445
277160
273901
270650
267428
264207
261016
257824
254659
251495
248354
245215
242095
238976
235872
232765
229667
226562
223459
220341
217215
214060
210877
207635
204325
200890
197274
193301
188637
1.15725e+06
1.14323e+06
1.13181e+06
1.12197e+06
1.11307e+06
1.10475e+06
1.09683e+06
1.08921e+06
1.08182e+06
1.0746e+06
1.06753e+06
1.06058e+06
1.05372e+06
1.04696e+06
1.04027e+06
1.03364e+06
1.02707e+06
1.02055e+06
1.01406e+06
1.00762e+06
1.00121e+06
994840
988502
982196
975922
969676
963459
957271
951110
944977
938873
932797
926750
920731
914741
908777
902838
896923
891032
885164
879317
873490
867682
861893
856123
850372
844638
838924
833228
827550
821891
816251
810629
805026
799442
793877
788333
782809
777305
771823
766361
760919
755498
750096
744715
739353
734011
728688
723386
718104
712842
707599
702377
697174
691991
686828
681685
676562
671461
666383
661328
656298
651291
646305
641339
636390
631458
626542
621644
616761
611894
607040
602199
597371
592557
587758
582975
578210
573463
568736
564028
559342
554677
550035
545415
540817
536240
531683
527146
522629
518132
513653
509193
504753
500333
495931
491547
487182
482834
478504
474191
469895
465616
461356
457114
452891
448689
444508
440349
436212
432097
428003
423931
419880
415851
411842
407853
403884
399935
396005
392095
388203
384330
380475
376640
372823
369025
365246
361487
357747
354026
350325
346642
342979
339333
335706
332096
328505
324932
321378
317842
314325
310827
307349
303890
300451
297031
293632
290252
286894
283551
280232
276924
273642
270365
267115
263866
260641
257416
254212
251006
247818
244629
241451
238272
235098
231918
228737
225544
222338
219109
215852
212548
209189
205743
202176
198441
194401
189948
184678
1.16375e+06
1.14984e+06
1.13789e+06
1.12735e+06
1.11781e+06
1.10894e+06
1.10055e+06
1.09252e+06
1.08477e+06
1.07725e+06
1.0699e+06
1.06271e+06
1.05564e+06
1.04869e+06
1.04183e+06
1.03504e+06
1.02833e+06
1.02168e+06
1.01509e+06
1.00854e+06
1.00205e+06
995593
989181
982808
976472
970172
963906
957672
951471
945302
939165
933059
926985
920941
914927
908941
902982
897049
891141
885256
879394
873553
867734
861935
856156
850397
844657
838937
833236
827556
821895
816254
810632
805031
799448
793886
788345
782824
777324
771844
766386
760948
755530
750133
744755
739397
734058
728739
723438
718158
712898
707657
702435
697233
692050
686887
681744
676622
671523
666448
661398
656372
651368
646387
641424
636479
631550
626639
621744
616865
611999
607146
602305
597477
592661
587862
583078
578311
573563
568834
564125
559437
554769
550125
545501
540899
536318
531757
527216
522694
518191
513707
509242
504797
500373
495967
491581
487213
482864
478532
474218
469920
465640
461377
457132
452907
448702
444519
440357
436217
432099
428003
423930
419878
415847
411837
407848
403878
399928
395998
392086
388193
384318
380462
376624
372806
369006
365225
361464
357722
354000
350297
346612
342946
339296
335665
332051
328455
324877
321317
317774
314250
310743
307256
303785
300335
296901
293489
290092
286718
283354
280017
276685
273381
270079
266801
263524
260266
257008
253764
250521
247285
244049
240815
237578
234337
231089
227827
224550
221246
217913
214533
211099
207578
203968
200182
196236
191939
187253
181941
1.16869e+06
1.15516e+06
1.14305e+06
1.13213e+06
1.12214e+06
1.11284e+06
1.10405e+06
1.09567e+06
1.0876e+06
1.07979e+06
1.07219e+06
1.06477e+06
1.0575e+06
1.05036e+06
1.04334e+06
1.03641e+06
1.02956e+06
1.02279e+06
1.01609e+06
1.00945e+06
1.00286e+06
996327
989842
983404
977009
970656
964342
958065
951825
945621
939451
933316
927215
921146
915109
909102
903123
897172
891247
885346
879470
873617
867786
861977
856190
850423
844677
838952
833248
827565
821903
816262
810641
805041
799461
793902
788363
782845
777348
771872
766417
760983
755569
750175
744801
739446
734111
728794
723497
718218
712959
707718
702496
697294
692110
686946
681803
676682
671584
666511
661464
656441
651442
646464
641505
636563
631638
626731
621840
616963
612100
607247
602405
597577
592761
587961
583176
578409
573660
568929
564219
559528
554858
550211
545583
540976
536391
531825
527279
522751
518243
513753
509283
504833
500404
495994
491605
487234
482884
478550
474235
469937
465656
461391
457145
452918
448711
444525
440360
436217
432097
427999
423924
419870
415838
411826
407836
403866
399915
395984
392071
388177
384301
380443
376603
372783
368981
365198
361436
357692
353969
350264
346577
342907
339255
335619
332000
328399
324815
321249
317699
314168
310654
307157
303676
300215
296768
293343
289929
286538
283156
279799
276447
273118
269793
266486
263184
259893
256604
253322
250041
246760
243479
240191
236900
233594
230280
226941
223586
220188
216764
213265
209727
206058
202320
198367
194261
189843
185097
179920
1.17268e+06
1.15951e+06
1.14744e+06
1.13634e+06
1.12605e+06
1.11642e+06
1.10731e+06
1.09862e+06
1.09027e+06
1.08221e+06
1.07438e+06
1.06675e+06
1.05929e+06
1.05198e+06
1.04479e+06
1.03772e+06
1.03075e+06
1.02386e+06
1.01706e+06
1.01032e+06
1.00365e+06
997039
990485
983984
977532
971127
964767
958449
952171
945933
939732
933569
927441
921348
915288
909260
903262
897293
891352
885436
879547
873681
867840
862022
856226
850453
844702
838974
833267
827582
821919
816277
810657
805058
799480
793923
788387
782873
777379
771906
766455
761024
755613
750222
744851
739499
734166
728852
723557
718280
713021
707779
702556
697351
692166
687000
681856
676735
671638
666568
661523
656503
651507
646532
641577
636639
631719
626815
621927
617053
612191
607339
602498
597669
592853
588052
583266
578497
573747
569016
564304
559611
554939
550288
545655
541044
536453
531882
527330
522798
518283
513788
509313
504858
500425
496011
491618
487245
482892
478558
474242
469943
465662
461397
457149
452920
448712
444522
440356
436210
432088
427987
423911
419855
415822
411809
407818
403847
399896
395963
392050
388154
384277
380417
376577
372754
368951
365167
361403
357659
353934
350227
346537
342864
339208
335567
331944
328337
324747
321175
317619
314081
310559
307054
303563
300091
296631
293192
289764
286356
282958
279580
276210
272856
269510
266175
262847
259524
256205
252885
249569
246243
242921
239579
236239
232868
229498
226080
222660
219169
215668
212063
208430
204647
200794
196738
192523
188064
183343
178313
1.17603e+06
1.16318e+06
1.1512e+06
1.14002e+06
1.12955e+06
1.11968e+06
1.11032e+06
1.10138e+06
1.09278e+06
1.08449e+06
1.07645e+06
1.06863e+06
1.06099e+06
1.05352e+06
1.04619e+06
1.03898e+06
1.03189e+06
1.0249e+06
1.01799e+06
1.01116e+06
1.00441e+06
997729
991109
984547
978041
971587
965182
958824
952510
946239
940008
933817
927664
921547
915465
909417
903400
897414
891457
885528
879625
873749
867897
862071
856268
850489
844734
839002
833292
827606
821941
816300
810680
805082
799506
793951
788418
782906
777415
771945
766496
761068
755660
750271
744903
739553
734222
728909
723615
718337
713077
707833
702607
697400
692211
687044
681899
676778
671683
666614
661571
656554
651560
646589
641637
636703
631786
626886
622003
617132
612272
607420
602580
597751
592934
588131
583344
578574
573822
569090
564377
559682
555007
550351
545715
541098
536502
531926
527369
522830
518310
513809
509330
504870
500432
496014
491618
487242
482888
478553
474237
469938
465657
461391
457143
452912
448702
444511
440342
436194
432070
427968
423890
419832
415798
411784
407792
403821
399869
395935
392021
388124
384246
380385
376543
372719
368915
365129
361366
357621
353896
350185
346494
342816
339157
335512
331884
328272
324676
321098
317536
313990
310460
306946
303445
299962
296491
293038
289598
286172
282760
279360
275974
272595
269230
265866
262515
259158
255814
252455
249108
245736
242377
238983
235599
232167
228743
225256
221770
218204
214624
210940
207214
203353
199405
195292
191018
186550
181874
176968
1.17891e+06
1.16633e+06
1.15445e+06
1.14324e+06
1.13266e+06
1.12262e+06
1.11306e+06
1.10391e+06
1.09512e+06
1.08662e+06
1.0784e+06
1.0704e+06
1.06261e+06
1.05499e+06
1.04752e+06
1.04019e+06
1.03299e+06
1.02589e+06
1.01889e+06
1.01198e+06
1.00515e+06
998396
991713
985094
978535
972034
965587
959190
952841
946538
940279
934061
927883
921743
915641
909573
903538
897536
891564
885621
879707
873820
867959
862124
856315
850531
844771
839036
833324
827635
821970
816328
810709
805112
799537
793984
788453
782943
777454
771986
766539
761113
755706
750319
744951
739602
734272
728959
723664
718384
713121
707875
702646
697435
692244
687075
681930
676809
671714
666646
661605
656590
651599
646630
641681
636750
631837
626941
622061
617195
612338
607489
602650
597820
593001
588194
583405
578632
573879
569145
564431
559735
555057
550397
545756
541136
536535
531954
527392
522847
518321
513815
509330
504866
500424
496003
491605
487227
482872
478536
474220
469921
465639
461374
457125
452894
448683
444489
440319
436169
432044
427941
423861
419802
415767
411752
407760
403787
399835
395901
391986
388088
384208
380345
376502
372676
368872
365086
361324
357578
353853
350140
346446
342765
339103
335453
331821
328203
324602
321018
317448
313896
310357
306834
303323
299829
296348
292882
289429
285986
282560
279140
275737
272336
268950
265561
262186
258800
255428
252036
248655
245247
241847
238411
234978
231499
228017
224477
220925
217301
213647
209901
206099
202183
198166
194018
189716
185250
180616
175810
1.18143e+06
1.16906e+06
1.15728e+06
1.14607e+06
1.13542e+06
1.12526e+06
1.11555e+06
1.10623e+06
1.09726e+06
1.0886e+06
1.08022e+06
1.07206e+06
1.06412e+06
1.05637e+06
1.04878e+06
1.04134e+06
1.03403e+06
1.02683e+06
1.01975e+06
1.01276e+06
1.00586e+06
999036
992292
985619
979012
972466
965978
959544
953162
946828
940541
934298
928096
921935
915813
909726
903675
897657
891672
885717
879791
873894
868025
862184
856368
850579
844815
839076
833361
827671
822005
816362
810742
805146
799571
794019
788489
782980
777492
772025
766579
761153
755746
750359
744991
739642
734310
728995
723697
718415
713149
707900
702668
697455
692263
687093
681947
676826
671731
666664
661623
656609
651620
646654
641706
636779
631868
626975
622101
617239
612387
607540
602701
597869
593048
588238
583445
578670
573916
569180
564463
559764
555084
550421
545778
541154
536550
531965
527398
522848
518316
513804
509314
504846
500401
495978
491578
487200
482844
478507
474191
469892
465610
461345
457096
452864
448652
444457
440286
436136
432009
427905
423825
419765
415729
411714
407721
403748
399795
395861
391946
388047
384166
380301
376455
372628
368823
365038
361278
357531
353805
350089
346393
342709
339043
335391
331754
328133
324526
320937
317360
313802
310252
306722
303200
299697
296205
292727
289260
285804
282361
278925
275503
272083
268675
265265
261864
258454
255052
251633
248218
244779
241339
237868
234388
230869
227334
223749
220138
216464
212748
208955
205092
201136
197074
192896
188579
184121
179525
174802
1.18364e+06
1.17143e+06
1.15974e+06
1.14856e+06
1.13786e+06
1.12762e+06
1.11779e+06
1.10834e+06
1.09923e+06
1.09043e+06
1.08189e+06
1.07361e+06
1.06554e+06
1.05766e+06
1.04996e+06
1.04241e+06
1.03501e+06
1.02772e+06
1.02056e+06
1.01349e+06
1.00652e+06
999643
992844
986120
979466
972878
966351
959883
953469
947106
940793
934525
928302
922121
915980
909876
903810
897778
891779
885813
879878
873972
868095
862247
856425
850631
844862
839120
833403
827710
822042
816398
810777
805180
799605
794052
788521
783012
777524
772057
766610
761183
755775
750387
745017
739665
734331
729013
723712
718427
713159
707907
702673
697459
692265
687095
681948
676827
671732
666664
661624
656610
651623
646659
641715
636790
631882
626993
622122
617265
612416
607570
602731
597897
593073
588261
583465
578687
573929
569190
564471
559769
555087
550422
545778
541151
536545
531956
527386
522831
518294
513776
509282
504810
500364
495940
491539
487161
482804
478468
474151
469851
465570
461304
457054
452823
448610
444416
440243
436094
431966
427864
423782
419723
415686
411672
407678
403706
399752
395819
391902
388003
384121
380254
376406
372577
368771
364985
361226
357478
353752
350034
346334
342649
338978
335325
331683
328060
324447
320856
317270
313709
310148
306613
303079
299569
296064
292577
289095
285628
282167
278718
275276
271840
268410
264981
261555
258125
254694
251252
247804
244338
240862
237359
233839
230284
226703
223079
219415
215703
211935
208107
204196
200207
196108
191906
187580
183135
178578
173921
1.18559e+06
1.17351e+06
1.1619e+06
1.15074e+06
1.14001e+06
1.12971e+06
1.11979e+06
1.11024e+06
1.10101e+06
1.09208e+06
1.08343e+06
1.07503e+06
1.06684e+06
1.05886e+06
1.05106e+06
1.04341e+06
1.03592e+06
1.02856e+06
1.02131e+06
1.01418e+06
1.00715e+06
1.00021e+06
993362
986591
979893
973266
966704
960203
953759
947370
941032
934742
928498
922298
916140
910021
903940
897895
891885
885909
879964
874050
868166
862311
856485
850685
844912
839166
833445
827750
822079
816433
810810
805211
799634
794080
788547
783036
777547
772078
766629
761199
755789
750398
745025
739670
734332
729011
723707
718420
713149
707895
702660
697445
692251
687081
681935
676813
671717
666648
661607
656594
651607
646644
641703
636782
631879
626994
622127
617272
612425
607579
602737
597901
593074
588259
583461
578680
573920
569178
564456
559752
555068
550402
545756
541127
536519
531927
527353
522795
518254
513734
509236
504763
500315
495891
491491
487112
482756
478419
474101
469801
465518
461251
457003
452771
448557
444365
440192
436045
431917
427817
423734
419677
415639
411627
407632
403663
399707
395775
391857
387959
384073
380206
376354
372525
368717
364931
361173
357426
353694
349977
346271
342589
338910
335261
331608
327991
324366
320781
317179
313622
310044
306509
302959
299447
295926
292436
288937
285462
281981
278522
275059
271611
268159
264715
261264
257818
254358
250897
247419
243929
240421
236890
233335
229749
226128
222469
218763
215017
211208
207351
203400
199379
195250
191029
186703
182276
177755
173153
1.1873e+06
1.17533e+06
1.16379e+06
1.15265e+06
1.14191e+06
1.13156e+06
1.12157e+06
1.11193e+06
1.10261e+06
1.09358e+06
1.08483e+06
1.07632e+06
1.06804e+06
1.05996e+06
1.05206e+06
1.04434e+06
1.03676e+06
1.02932e+06
1.02201e+06
1.01482e+06
1.00773e+06
1.00074e+06
993843
987028
980291
973628
967032
960501
954030
947616
941255
934945
928683
922465
916291
910158
904064
898008
891987
886001
880048
874127
868236
862375
856543
850738
844961
839210
833485
827786
822112
816463
810837
805235
799655
794098
788563
783050
777557
772085
766633
761201
755787
750392
745016
739658
734316
728992
723685
718395
713122
707866
702631
697416
692224
687054
681907
676784
671687
666617
661574
656560
651574
646612
641674
636756
631858
626976
622113
617259
612412
607563
602718
597879
593049
588230
583430
578646
573883
569139
564416
559710
555025
550358
545712
541082
536472
531878
527303
522743
518201
513679
509180
504706
500258
495835
491435
487058
482702
478365
474046
469745
465460
461194
456943
452712
448498
444307
440134
435989
431862
427765
423683
419629
415590
411582
407585
403619
399661
395732
391811
387914
384025
380158
376303
372473
368662
364880
361111
357377
353633
349922
346206
342530
338840
335198
331531
327923
324284
320711
317091
313542
309944
306413
302843
299333
295795
292302
288785
285306
281807
278340
274857
271399
267926
264469
260996
257533
254049
250570
247065
243556
240017
236463
232876
229264
225608
221919
218179
214404
210563
206676
202689
198641
194490
190260
185939
181531
177043
172487
1.18879e+06
1.17691e+06
1.16543e+06
1.15431e+06
1.14357e+06
1.13318e+06
1.12314e+06
1.11343e+06
1.10403e+06
1.09492e+06
1.08608e+06
1.07748e+06
1.06911e+06
1.06095e+06
1.05298e+06
1.04517e+06
1.03753e+06
1.03003e+06
1.02265e+06
1.0154e+06
1.00826e+06
1.00123e+06
994284
987430
980657
973960
967335
960776
954281
947844
941462
935133
928853
922620
916432
910286
904181
898114
892084
886089
880128
874199
868302
862435
856596
850786
845004
839248
833519
827816
822138
816485
810856
805250
799666
794106
788567
783050
777554
772079
766623
761187
755770
750371
744991
739630
734285
728958
723649
718357
713083
707827
702592
697378
692187
687019
681872
676747
671648
666574
661529
656513
651525
646564
641628
636714
631820
626942
622079
617223
612372
607518
602671
597828
592996
588174
583373
578588
573824
569077
564353
559647
554962
550293
545649
541019
536409
531815
527240
522680
518139
513618
509119
504646
500199
495778
491378
487002
482645
478308
473988
469686
465400
461133
456881
452650
448435
444245
440074
435930
431805
427710
423630
419579
415543
411536
407541
403574
399617
395688
391765
387868
383977
380110
376253
372424
368610
364830
361058
357328
353571
349871
346145
342479
338779
335143
331467
327862
324217
320643
317012
313465
309855
306327
302739
299230
295677
292177
288649
285160
281649
278170
274673
271202
267714
264242
260752
257273
253769
250272
246744
243217
239651
236079
232463
228828
225143
221427
217660
213859
209990
206072
202056
197987
193824
189591
185278
180888
176429
171911
1.19009e+06
1.17828e+06
1.16684e+06
1.15575e+06
1.145e+06
1.13459e+06
1.12451e+06
1.11474e+06
1.10528e+06
1.0961e+06
1.08718e+06
1.07851e+06
1.07007e+06
1.06184e+06
1.05379e+06
1.04592e+06
1.03822e+06
1.03065e+06
1.02323e+06
1.01593e+06
1.00874e+06
1.00166e+06
994682
987792
980987
974261
967609
961026
954508
948051
941651
935305
929010
922763
916562
910404
904288
898211
892172
886169
880200
874265
868361
862487
856643
850827
845039
839279
833544
827836
822154
816497
810863
805253
799665
794101
788559
783038
777538
772059
766599
761159
755738
750337
744955
739590
734243
728914
723604
718311
713036
707781
702547
697335
692146
686978
681831
676706
671603
666527
661478
656458
651468
646506
641570
636658
631766
626889
622024
617163
612306
607447
602597
597751
592918
588095
583295
578510
573746
568998
564274
559567
554882
550213
545570
540941
536333
531740
527166
522607
518069
513549
509053
504582
500136
495716
491318
486944
482587
478250
473929
469627
465341
461073
456820
452588
448373
444184
440013
435870
431748
427655
423578
419529
415495
411489
407497
403530
399575
395645
391722
387824
383932
380064
376207
372375
368567
364782
361011
357288
353526
349828
346098
342435
338728
335094
331417
327805
324163
320579
316947
313393
309778
306239
302648
299135
295572
292065
288528
285027
281507
278016
274509
271024
267524
264036
260533
257036
253518
250003
246457
242911
239325
235733
232094
228438
224731
220989
217202
213374
209480
205532
201498
197416
193246
189014
184710
180336
175902
171416
1.19121e+06
1.17946e+06
1.16806e+06
1.15698e+06
1.14623e+06
1.1358e+06
1.12568e+06
1.11588e+06
1.10636e+06
1.09712e+06
1.08815e+06
1.07941e+06
1.07091e+06
1.06261e+06
1.05451e+06
1.04658e+06
1.03882e+06
1.03121e+06
1.02374e+06
1.01639e+06
1.00917e+06
1.00205e+06
995035
988114
981281
974529
967853
961249
954711
948236
941819
935458
929150
922890
916678
910509
904383
898297
892250
886239
880263
874321
868410
862530
856680
850859
845065
839299
833560
827846
822159
816497
810858
805244
799653
794084
788538
783014
777510
772027
766564
761122
755698
750294
744909
739543
734194
728864
723552
718259
712985
707731
702498
697288
692101
686934
681787
676660
671555
666475
661423
656399
651405
646441
641504
636592
631698
626819
621947
617080
612216
607354
602501
597654
592820
588000
583201
578417
573654
568907
564184
559477
554792
550124
545481
540853
536248
531656
527086
522530
517995
513478
508985
504515
500071
495652
491256
486882
482527
478192
473872
469571
465284
461015
456762
452529
448314
444125
439955
435813
431694
427602
423528
419481
415450
411444
407455
403486
399534
395603
391681
387782
383891
380023
376168
372338
368531
364741
360980
357240
353488
349788
346066
342392
338689
335045
331379
327750
324121
320522
316892
313321
309710
306157
302567
299043
295478
291962
288419
284909
281382
277880
274366
270867
267357
263855
260340
256828
253297
249765
246205
242640
239039
235426
231771
228091
224369
220604
216802
212946
209031
205061
201017
196923
192752
188522
184226
179867
175454
170995
1.19216e+06
1.18045e+06
1.16908e+06
1.15801e+06
1.14726e+06
1.13681e+06
1.12667e+06
1.11683e+06
1.10728e+06
1.09799e+06
1.08897e+06
1.08019e+06
1.07163e+06
1.06328e+06
1.05513e+06
1.04715e+06
1.03935e+06
1.03169e+06
1.02418e+06
1.01679e+06
1.00953e+06
1.00239e+06
995341
988394
981536
974762
968066
961443
954888
948398
941967
935593
929272
923001
916778
910601
904465
898371
892316
886297
880315
874366
868449
862563
856707
850880
845081
839309
833564
827846
822153
816486
810844
805225
799630
794058
788509
782981
777474
771988
766523
761078
755652
750246
744859
739491
734141
728810
723498
718205
712932
707679
702448
697240
692055
686890
681743
676614
671506
666423
661367
656339
651341
646372
641431
636515
631617
626732
621853
616979
612111
607248
602394
597548
592715
587898
583099
578317
573555
568811
564088
559383
554698
550032
545388
540762
536159
531570
527003
522451
517919
513406
508916
504448
500006
495588
491192
486820
482467
478133
473816
469516
465230
460961
456708
452475
448261
444072
439903
435762
431643
427552
423481
419435
415407
411403
407415
403446
399496
395563
391644
387745
383855
379988
376138
372311
368506
364717
360950
357199
353459
349744
346036
342344
338657
334998
331346
327708
324088
320473
316847
313249
309647
306082
302491
298958
295395
291871
288323
284805
281273
277760
274241
270730
267213
263698
260174
256648
253106
249559
245987
242406
238791
235161
231493
227790
224058
220271
216461
212575
208645
204660
200610
196509
192338
188110
183821
179474
175079
170643
1.19294e+06
1.18127e+06
1.16992e+06
1.15885e+06
1.1481e+06
1.13764e+06
1.12749e+06
1.11762e+06
1.10803e+06
1.09871e+06
1.08965e+06
1.08083e+06
1.07223e+06
1.06384e+06
1.05564e+06
1.04763e+06
1.03978e+06
1.03209e+06
1.02455e+06
1.01713e+06
1.00984e+06
1.00267e+06
995599
988630
981752
974959
968246
961607
955038
948534
942092
935706
929375
923095
916862
910676
904533
898431
892369
886344
880354
874399
868477
862585
856724
850891
845086
839309
833559
827836
822139
816468
810822
805199
799601
794026
788474
782943
777434
771947
766479
761032
755604
750196
744807
739437
734087
728755
723443
718150
712878
707627
702398
697192
692009
686845
681698
676568
671458
666372
661313
656281
651277
646304
641357
636434
631527
626636
621749
616870
611998
607135
602282
597441
592610
587796
582998
578218
573456
568714
563992
559289
554605
549941
545297
540674
536071
531487
526922
522375
517847
513339
508851
504387
499945
495527
491133
486762
482410
478078
473763
469464
465181
460913
456662
452430
448218
444028
439862
435720
431602
427509
423440
419393
415368
411364
407380
403412
399463
395529
391612
387710
383824
379958
376113
372287
368485
364698
360931
357175
353435
349711
346004
342304
338627
334963
331316
327663
324059
320417
316801
313185
309599
306009
302431
298879
295319
291791
288240
284715
281181
277658
274134
270611
267090
263564
260034
256496
252945
249385
245803
242208
238583
234937
231257
227539
223795
219990
216170
212264
208325
204328
200273
196168
191998
187772
183489
179152
174772
170354
1.19357e+06
1.18193e+06
1.17058e+06
1.15952e+06
1.14876e+06
1.1383e+06
1.12813e+06
1.11824e+06
1.10863e+06
1.09929e+06
1.0902e+06
1.08134e+06
1.07271e+06
1.06428e+06
1.05606e+06
1.04801e+06
1.04014e+06
1.03242e+06
1.02484e+06
1.01741e+06
1.01009e+06
1.0029e+06
995808
988821
981926
975119
968392