/*--------------------------------*- C++ -*----------------------------------*\
| =========                 |                                                 |
| \\      /  F ield         | OpenFOAM: The Open Source CFD Toolbox           |
|  \\    /   O peration     | Version:  2.4.0                                 |
|   \\  /    A nd           | Web:      www.OpenFOAM.org                      |
|    \\/     M anipulation  |                                                 |
\*---------------------------------------------------------------------------*/
FoamFile
{
    version     2.0;
    format      ascii;
    class       volVectorField;
    location    "0.29";
    object      U;
}
// * * * * * * * * * * * * * * * * * * * * * * * * * * * * * * * * * * * * * //

dimensions      [0 1 -1 0 0 0 0];

internalField   nonuniform List<vector> 
8800
(
(8.09193 0.387923 0)
(5.45011 0.242486 0)
(3.9111 0.0429872 0)
(3.15614 -0.015473 0)
(2.80211 -0.0184643 0)
(2.59723 -0.0106487 0)
(2.48515 -0.00592458 0)
(2.37923 -0.00234293 0)
(2.31964 -0.00121893 0)
(2.24789 -0.000746745 0)
(2.21698 -0.000935339 0)
(2.16301 0.000627331 0)
(2.14267 -0.000808422 0)
(2.09555 0.000937721 0)
(2.072 0.000583065 0)
(2.0239 0.00138535 0)
(1.98856 0.000962024 0)
(1.94458 0.000803496 0)
(1.8863 0.00883967 0)
(1.74616 -0.0501018 0)
(10.0856 0.838354 0)
(9.65814 0.86806 0)
(8.87141 0.50717 0)
(8.08214 0.261517 0)
(7.49518 0.137341 0)
(7.00391 0.0832867 0)
(6.7017 0.0532065 0)
(6.39589 0.0409677 0)
(6.22732 0.0306429 0)
(6.02199 0.0243597 0)
(5.92635 0.0178315 0)
(5.77314 0.0201848 0)
(5.71995 0.0128318 0)
(5.58821 0.0189176 0)
(5.54101 0.0157081 0)
(5.42418 0.0210694 0)
(5.35491 0.0194759 0)
(5.25033 0.0233172 0)
(5.13788 0.0366826 0)
(5.02137 -0.00215995 0)
(10.0657 0.631302 0)
(10.6598 0.863241 0)
(10.8672 0.601913 0)
(10.6908 0.373199 0)
(10.4605 0.254664 0)
(10.0816 0.198631 0)
(9.84454 0.151424 0)
(9.49329 0.124464 0)
(9.31393 0.0949715 0)
(9.03812 0.0771174 0)
(8.92156 0.0578178 0)
(8.69549 0.0565552 0)
(8.64098 0.0394813 0)
(8.43513 0.0475932 0)
(8.40107 0.0395647 0)
(8.21408 0.0471511 0)
(8.16825 0.0454051 0)
(7.98346 0.0564531 0)
(7.89952 0.0703103 0)
(7.7246 0.023248 0)
(10.0056 0.45686 0)
(10.5731 0.707561 0)
(11.1648 0.54643 0)
(11.3738 0.351196 0)
(11.5609 0.260036 0)
(11.4562 0.230138 0)
(11.4971 0.196587 0)
(11.3045 0.179685 0)
(11.2908 0.147862 0)
(11.0887 0.127895 0)
(11.0738 0.104391 0)
(10.856 0.0988514 0)
(10.878 0.0762457 0)
(10.6455 0.0841404 0)
(10.6785 0.0700195 0)
(10.4459 0.0828644 0)
(10.47 0.0701748 0)
(10.2294 0.107256 0)
(10.2029 0.0891297 0)
(9.95959 0.155902 0)
(10.0444 0.342686 0)
(10.4144 0.568284 0)
(11.0479 0.46497 0)
(11.2982 0.29324 0)
(11.6638 0.207218 0)
(11.6723 0.197278 0)
(11.8844 0.17097 0)
(11.8298 0.177 0)
(11.9837 0.144794 0)
(11.8979 0.135572 0)
(12.0386 0.110648 0)
(11.9162 0.115577 0)
(12.0509 0.0816608 0)
(11.9007 0.109695 0)
(12.0319 0.0790292 0)
(11.8608 0.111606 0)
(11.954 0.0778893 0)
(11.7818 0.14769 0)
(11.8236 0.102309 0)
(11.5814 0.208532 0)
(10.06 0.251645 0)
(10.311 0.456421 0)
(10.9112 0.379494 0)
(11.1659 0.247047 0)
(11.5342 0.156726 0)
(11.6074 0.157423 0)
(11.7998 0.133603 0)
(11.8422 0.147125 0)
(11.9962 0.122707 0)
(11.9912 0.113042 0)
(12.1521 0.095766 0)
(12.1594 0.100644 0)
(12.281 0.0741518 0)
(12.2602 0.0895643 0)
(12.413 0.0792122 0)
(12.3734 0.100376 0)
(12.4647 0.0857591 0)
(12.4412 0.123939 0)
(12.5048 0.117895 0)
(12.391 0.127967 0)
(10.0018 0.169668 0)
(10.3172 0.35134 0)
(10.7713 0.29575 0)
(11.0921 0.207918 0)
(11.4171 0.114722 0)
(11.567 0.123429 0)
(11.6516 0.0944998 0)
(11.7843 0.117135 0)
(11.8863 0.0965036 0)
(11.92 0.0914201 0)
(12.0469 0.0642772 0)
(12.1619 0.0823046 0)
(12.1701 0.0561823 0)
(12.2472 0.0762165 0)
(12.3707 0.0529722 0)
(12.4258 0.0863747 0)
(12.4636 0.0685677 0)
(12.4987 0.103407 0)
(12.5864 0.0828769 0)
(12.5318 0.0778292 0)
(10.0109 0.11515 0)
(10.2494 0.243184 0)
(10.6951 0.215163 0)
(11.0048 0.151924 0)
(11.3441 0.0699 0)
(11.4837 0.101656 0)
(11.6143 0.0638704 0)
(11.6958 0.0743956 0)
(11.8215 0.0793368 0)
(11.8868 0.0645013 0)
(11.9481 0.0337746 0)
(12.0692 0.0717074 0)
(12.1387 0.0497419 0)
(12.1951 0.0374909 0)
(12.2728 0.0373459 0)
(12.3568 0.0709808 0)
(12.4149 0.0570817 0)
(12.4707 0.0625275 0)
(12.5063 0.0491742 0)
(12.4692 0.049361 0)
(9.98248 0.0608626 0)
(10.2932 0.140636 0)
(10.5893 0.137365 0)
(11.0067 0.0921805 0)
(11.2333 0.0417076 0)
(11.456 0.06207 0)
(11.6087 0.0360583 0)
(11.6525 0.0414003 0)
(11.7376 0.045513 0)
(11.8631 0.0463126 0)
(11.9222 0.0213915 0)
(11.9798 0.0295299 0)
(12.1399 0.0351707 0)
(12.1426 0.0371671 0)
(12.2243 0.0177803 0)
(12.2845 0.0341229 0)
(12.4022 0.036654 0)
(12.4299 0.0414798 0)
(12.4479 0.0273695 0)
(12.4107 0.0475967 0)
(10.0124 0.0135686 0)
(10.2419 0.0465534 0)
(10.5573 0.0571524 0)
(10.9766 0.0312497 0)
(11.2323 0.0066245 0)
(11.4436 0.0236332 0)
(11.5649 0.00564501 0)
(11.6527 0.0205834 0)
(11.7119 0.0178872 0)
(11.8527 0.00470236 0)
(11.8955 0.00860455 0)
(11.9767 0.0178598 0)
(12.0304 0.0107147 0)
(12.1937 0.0140588 0)
(12.2158 0.00539771 0)
(12.2519 0.0147007 0)
(12.3347 0.00487013 0)
(12.4343 0.0171694 0)
(12.427 -8.04619e-06 0)
(12.4165 0.0399984 0)
(10.017 -0.0302581 0)
(10.191 -0.0466904 0)
(10.5958 -0.026366 0)
(10.9809 -0.0384601 0)
(11.2469 -0.0227522 0)
(11.4281 -0.00376958 0)
(11.5774 -0.021491 0)
(11.619 -0.02056 0)
(11.7772 -0.014606 0)
(11.8128 -0.00960579 0)
(11.8728 -0.00949698 0)
(11.9527 -0.00561517 0)
(12.1157 -0.0125995 0)
(12.1471 -0.0112421 0)
(12.2105 0.00129689 0)
(12.2592 -0.00836382 0)
(12.3718 -0.0203438 0)
(12.3848 -0.0160863 0)
(12.4286 -0.0197042 0)
(12.4006 0.0260345 0)
(10.0032 -0.0674919 0)
(10.2297 -0.146103 0)
(10.6169 -0.122148 0)
(11.0094 -0.0939733 0)
(11.253 -0.0529184 0)
(11.4569 -0.0408184 0)
(11.5904 -0.0506173 0)
(11.6744 -0.0525572 0)
(11.7244 -0.0400767 0)
(11.8548 -0.0329598 0)
(11.9267 -0.0238439 0)
(11.9951 -0.0415894 0)
(12.1022 -0.0339938 0)
(12.17 -0.0147494 0)
(12.1995 -0.0187425 0)
(12.337 -0.0397325 0)
(12.3758 -0.040455 0)
(12.4067 -0.0334091 0)
(12.4162 -0.0502702 0)
(12.4063 -0.00766518 0)
(10.0036 -0.119534 0)
(10.2651 -0.250199 0)
(10.6629 -0.197634 0)
(11.0475 -0.156775 0)
(11.3139 -0.0855193 0)
(11.4925 -0.073015 0)
(11.6348 -0.0807947 0)
(11.7011 -0.0790175 0)
(11.7776 -0.0673699 0)
(11.8904 -0.0704694 0)
(11.9798 -0.0446257 0)
(12.0447 -0.0515942 0)
(12.1468 -0.0472324 0)
(12.162 -0.0390188 0)
(12.2972 -0.0426038 0)
(12.3808 -0.0615071 0)
(12.4024 -0.0515839 0)
(12.4599 -0.0599028 0)
(12.4699 -0.0735966 0)
(12.4425 -0.0424667 0)
(10.035 -0.178041 0)
(10.2789 -0.34809 0)
(10.7472 -0.290033 0)
(11.1232 -0.20896 0)
(11.3954 -0.11899 0)
(11.5395 -0.112739 0)
(11.706 -0.111198 0)
(11.7648 -0.10952 0)
(11.8578 -0.0927253 0)
(11.9678 -0.0967261 0)
(12.0298 -0.0594499 0)
(12.1124 -0.0843899 0)
(12.2044 -0.0580086 0)
(12.277 -0.0594355 0)
(12.3472 -0.0661395 0)
(12.4162 -0.0801723 0)
(12.4815 -0.0709881 0)
(12.5172 -0.0877588 0)
(12.569 -0.0984492 0)
(12.4757 -0.0760385 0)
(10.0635 -0.254377 0)
(10.3076 -0.452405 0)
(10.9046 -0.376886 0)
(11.1861 -0.252903 0)
(11.5256 -0.156646 0)
(11.6024 -0.151323 0)
(11.8208 -0.146557 0)
(11.8141 -0.136856 0)
(11.9876 -0.123484 0)
(12.0076 -0.123133 0)
(12.1409 -0.0807877 0)
(12.1427 -0.102473 0)
(12.2863 -0.0786977 0)
(12.2808 -0.0837874 0)
(12.3886 -0.0741971 0)
(12.3894 -0.106783 0)
(12.4691 -0.0815916 0)
(12.4431 -0.119692 0)
(12.4852 -0.111791 0)
(12.3792 -0.118426 0)
(10.061 -0.349051 0)
(10.3877 -0.56308 0)
(11.063 -0.465038 0)
(11.2904 -0.29457 0)
(11.6644 -0.205791 0)
(11.6657 -0.194164 0)
(11.8964 -0.18171 0)
(11.8074 -0.163496 0)
(12.0003 -0.151291 0)
(11.881 -0.139012 0)
(12.0453 -0.100101 0)
(11.908 -0.116813 0)
(12.0553 -0.0936871 0)
(11.9111 -0.0909204 0)
(12.0231 -0.0863962 0)
(11.872 -0.110496 0)
(11.9543 -0.0854948 0)
(11.7881 -0.125664 0)
(11.8083 -0.116506 0)
(11.5826 -0.148076 0)
(10.0125 -0.45841 0)
(10.5567 -0.704358 0)
(11.1809 -0.546988 0)
(11.3584 -0.352395 0)
(11.5723 -0.260016 0)
(11.4471 -0.228814 0)
(11.5048 -0.202067 0)
(11.285 -0.172641 0)
(11.3175 -0.151104 0)
(11.0492 -0.13071 0)
(11.1107 -0.0968897 0)
(10.8293 -0.100781 0)
(10.8974 -0.0809927 0)
(10.6333 -0.0771777 0)
(10.703 -0.0684821 0)
(10.4251 -0.0900895 0)
(10.5007 -0.0652589 0)
(10.2089 -0.108304 0)
(10.2321 -0.087704 0)
(9.89782 -0.148193 0)
(10.0656 -0.632724 0)
(10.6542 -0.862284 0)
(10.8737 -0.601798 0)
(10.6819 -0.373695 0)
(10.4678 -0.254662 0)
(10.0758 -0.197045 0)
(9.84699 -0.155095 0)
(9.4838 -0.120158 0)
(9.33223 -0.0962019 0)
(9.00606 -0.0791713 0)
(8.96006 -0.0541691 0)
(8.66314 -0.05539 0)
(8.67133 -0.0454872 0)
(8.40953 -0.0412363 0)
(8.44408 -0.038941 0)
(8.17181 -0.0519878 0)
(8.22665 -0.0425493 0)
(7.93102 -0.0638258 0)
(7.94789 -0.0657808 0)
(7.61229 -0.0838612 0)
(10.0852 -0.838739 0)
(9.65531 -0.867521 0)
(8.87392 -0.506865 0)
(8.07806 -0.261862 0)
(7.49885 -0.137507 0)
(7.00108 -0.0824663 0)
(6.70212 -0.055064 0)
(6.39208 -0.0392407 0)
(6.23688 -0.0303269 0)
(6.00446 -0.0265291 0)
(5.94992 -0.0155218 0)
(5.7525 -0.0191885 0)
(5.74373 -0.0166405 0)
(5.56587 -0.0155128 0)
(5.57876 -0.0149266 0)
(5.38756 -0.0242796 0)
(5.4071 -0.0190149 0)
(5.19005 -0.029474 0)
(5.19023 -0.0359343 0)
(4.90778 -0.0149227 0)
(8.09153 -0.38804 0)
(5.4488 -0.24246 0)
(3.91187 -0.042881 0)
(3.15577 0.0153204 0)
(2.80256 0.0184059 0)
(2.59689 0.0110232 0)
(2.48528 0.00533666 0)
(2.37752 0.00274129 0)
(2.32354 0.00156355 0)
(2.24293 -0.000281956 0)
(2.22259 0.00179047 0)
(2.15935 -0.000392075 0)
(2.15019 -0.000397555 0)
(2.0865 -0.000244192 0)
(2.08666 -0.000107465 0)
(2.01215 -0.0029344 0)
(2.00286 -0.000642185 0)
(1.91701 -0.00327173 0)
(1.88505 -0.00407548 0)
(1.73823 0.0102698 0)
(2.05168 0.0169116 0)
(2.20465 0.148568 0)
(2.44942 0.203704 0)
(2.79067 0.155634 0)
(3.082 0.0703711 0)
(3.28376 -0.0269739 0)
(3.39948 -0.116475 0)
(3.42036 -0.178152 0)
(3.39682 -0.218632 0)
(3.33878 -0.233632 0)
(3.28693 -0.228856 0)
(3.23451 -0.188075 0)
(3.22576 -0.129168 0)
(3.22549 -0.0624143 0)
(3.27619 -0.0142103 0)
(3.36994 0.00116789 0)
(3.48462 0.00723772 0)
(3.57015 0.0161493 0)
(3.64314 0.0149858 0)
(3.70246 0.0055022 0)
(3.75465 -0.00940502 0)
(3.8008 -0.0220145 0)
(3.82662 -0.0354441 0)
(3.86319 -0.0446255 0)
(3.86422 -0.0432489 0)
(3.87353 -0.0224833 0)
(3.87862 0.0179936 0)
(3.86433 0.0657018 0)
(3.91887 0.11328 0)
(3.94438 0.182185 0)
(3.9781 0.252681 0)
(4.10808 0.30444 0)
(4.23117 0.309992 0)
(4.39608 0.31602 0)
(4.56745 0.302753 0)
(4.79839 0.260973 0)
(4.95956 0.246349 0)
(5.12244 0.159963 0)
(5.30842 0.11622 0)
(5.35066 0.059486 0)
(5.47733 -0.0316933 0)
(5.55028 -0.0388277 0)
(5.59317 -0.168821 0)
(5.64782 -0.229639 0)
(5.78387 -0.237144 0)
(5.75107 -0.394622 0)
(5.8831 -0.405208 0)
(5.95598 -0.44326 0)
(6.01817 -0.559439 0)
(6.08831 -0.519712 0)
(6.2771 -0.643325 0)
(6.34636 -0.638551 0)
(6.70894 -0.608508 0)
(6.80435 -0.801628 0)
(7.08176 -0.826044 0)
(7.52408 -0.943796 0)
(7.65492 -1.15972 0)
(8.00898 -1.24894 0)
(8.32405 -1.5545 0)
(8.26878 -1.73323 0)
(8.55346 -1.90423 0)
(8.36448 -2.10581 0)
(8.31887 -1.95574 0)
(8.3671 -1.8624 0)
(8.08893 -1.61424 0)
(8.32041 -1.16259 0)
(8.22969 -0.977191 0)
(8.31486 -0.523144 0)
(8.67063 -0.161511 0)
(8.56094 0.0142664 0)
(8.86558 0.378447 0)
(9.16017 0.530466 0)
(8.98454 0.596517 0)
(9.53875 0.622459 0)
(9.66461 0.564982 0)
(9.63226 0.49793 0)
(10.2119 0.269005 0)
(10.3258 0.059826 0)
(10.3665 -0.0780103 0)
(10.9768 -0.510605 0)
(11.0956 -0.825574 0)
(11.2281 -0.996 0)
(11.7446 -1.46158 0)
(12.0088 -1.87183 0)
(12.2036 -2.03158 0)
(12.6391 -2.50757 0)
(12.9741 -2.92726 0)
(13.196 -3.14064 0)
(13.5051 -3.57902 0)
(13.7531 -3.88953 0)
(13.8739 -4.09629 0)
(13.9366 -4.41087 0)
(13.8843 -4.50188 0)
(13.7252 -4.63064 0)
(13.4689 -4.7389 0)
(13.0541 -4.56359 0)
(12.616 -4.46634 0)
(12.1173 -4.35104 0)
(11.5515 -4.04559 0)
(11.0561 -3.82763 0)
(10.5717 -3.72145 0)
(10.1385 -3.50868 0)
(9.71445 -3.47704 0)
(9.431 -3.52688 0)
(9.02913 -3.56559 0)
(8.74432 -3.58376 0)
(8.40301 -3.63348 0)
(8.21328 -3.71512 0)
(7.77108 -3.65606 0)
(7.40363 -3.51557 0)
(7.16296 -3.54742 0)
(7.08885 -3.7693 0)
(7.40473 -4.14078 0)
(7.85998 -4.8383 0)
(8.26978 -5.38469 0)
(8.68837 -5.19388 0)
(8.86695 -4.79684 0)
(8.86848 -4.09692 0)
(8.84957 -3.14224 0)
(9.0705 -2.47211 0)
(9.25852 -2.20635 0)
(9.53993 -1.73863 0)
(10.006 -0.926329 0)
(10.1658 -0.437617 0)
(10.3514 0.166413 0)
(10.6573 1.18275 0)
(10.628 2.10804 0)
(10.582 2.93654 0)
(10.6882 3.99527 0)
(10.8362 4.98543 0)
(10.4692 5.72673 0)
(10.2923 6.24903 0)
(10.3156 6.791 0)
(10.1803 7.29309 0)
(9.90984 7.44214 0)
(9.65174 7.30919 0)
(9.51636 7.28256 0)
(9.58889 7.27503 0)
(9.62895 7.25476 0)
(9.74502 7.01536 0)
(9.50813 6.49516 0)
(9.46113 5.95087 0)
(9.26409 5.32027 0)
(9.18191 4.60633 0)
(9.18178 3.97738 0)
(8.88605 2.97914 0)
(8.93754 2.27423 0)
(8.99991 1.55791 0)
(9.08409 0.64791 0)
(9.02878 0.064273 0)
(9.01405 -0.820266 0)
(9.08037 -1.33347 0)
(8.83095 -1.93426 0)
(8.77792 -2.14121 0)
(8.30976 -2.29058 0)
(8.42817 -2.07812 0)
(7.90008 -2.1721 0)
(8.04078 -1.86577 0)
(7.74163 -1.67228 0)
(7.7869 -1.35153 0)
(7.9319 -0.922766 0)
(7.88533 -0.856136 0)
(7.87141 -0.480837 0)
(8.20213 -0.0472796 0)
(8.39715 0.660803 0)
(8.39502 0.770837 0)
(9.11516 1.84155 0)
(8.97771 2.29587 0)
(9.24551 3.02045 0)
(9.23579 3.54496 0)
(9.05215 3.97056 0)
(8.34126 3.93102 0)
(6.48738 3.39422 0)
(7.30336 4.13055 0)
(6.32705 4.40253 0)
(7.1713 5.1354 0)
(7.82453 5.18174 0)
(5.78291 5.26047 0)
(8.9109 4.75104 0)
(3.93569 4.67393 0)
(9.08922 3.98158 0)
(3.62978 4.46532 0)
(8.42156 3.38508 0)
(4.55014 4.44223 0)
(7.76884 2.92419 0)
(5.74395 3.81376 0)
(7.92799 2.27052 0)
(6.39611 2.12943 0)
(7.75756 0.586872 0)
(6.42952 0.289619 0)
(7.21595 -0.679605 0)
(5.68673 -0.70587 0)
(6.09803 -1.99094 0)
(5.59353 -1.05198 0)
(5.62352 -2.23196 0)
(5.08326 -1.27887 0)
(4.90949 -3.12855 0)
(3.50104 -1.34258 0)
(4.43656 -2.89197 0)
(2.95733 0.307651 0)
(5.05615 0.0570597 0)
(5.06676 0.110992 0)
(5.10931 0.12081 0)
(5.23425 0.0628211 0)
(5.38111 -0.0169246 0)
(5.50409 -0.0951464 0)
(5.5908 -0.160552 0)
(5.63167 -0.208026 0)
(5.63113 -0.2363 0)
(5.61483 -0.245187 0)
(5.59517 -0.242778 0)
(5.5763 -0.213665 0)
(5.57375 -0.174942 0)
(5.57742 -0.126596 0)
(5.60688 -0.0796492 0)
(5.65208 -0.0523182 0)
(5.72313 -0.040095 0)
(5.78597 -0.0342037 0)
(5.83881 -0.0276557 0)
(5.87787 -0.0338649 0)
(5.91656 -0.0420033 0)
(5.95581 -0.0587165 0)
(5.97621 -0.06283 0)
(5.99735 -0.0683668 0)
(6.00337 -0.0584258 0)
(6.0064 -0.038291 0)
(5.99915 -0.00621784 0)
(6.0074 0.0506159 0)
(5.99368 0.0843429 0)
(6.0374 0.14482 0)
(6.0301 0.191273 0)
(6.08186 0.22115 0)
(6.15654 0.241266 0)
(6.21646 0.218871 0)
(6.31781 0.226756 0)
(6.42172 0.168178 0)
(6.52688 0.127692 0)
(6.63823 0.0966898 0)
(6.72985 0.00035979 0)
(6.83699 -0.0212259 0)
(6.92321 -0.11115 0)
(6.97232 -0.172772 0)
(7.15096 -0.2171 0)
(7.15551 -0.340613 0)
(7.32909 -0.346268 0)
(7.45534 -0.462431 0)
(7.4811 -0.547211 0)
(7.74528 -0.547484 0)
(7.78264 -0.697979 0)
(7.86763 -0.723494 0)
(8.2412 -0.744856 0)
(8.16981 -0.844254 0)
(8.54713 -0.884207 0)
(8.81279 -0.968435 0)
(8.8693 -1.03871 0)
(9.425 -1.16262 0)
(9.51402 -1.31811 0)
(9.65507 -1.48333 0)
(10.1008 -1.72618 0)
(9.83102 -1.88314 0)
(10.1653 -1.98814 0)
(10.0847 -2.02061 0)
(9.89179 -1.91958 0)
(10.1445 -1.77051 0)
(9.75013 -1.55717 0)
(9.93492 -1.24437 0)
(9.97168 -0.957801 0)
(9.78326 -0.571063 0)
(10.2022 -0.284505 0)
(10.0692 -0.00902939 0)
(10.2129 0.232565 0)
(10.677 0.353279 0)
(10.4684 0.513991 0)
(10.8984 0.499212 0)
(11.2243 0.39437 0)
(11.1173 0.409428 0)
(11.5609 0.140682 0)
(11.8361 -0.117857 0)
(11.7874 -0.22957 0)
(12.2415 -0.605168 0)
(12.506 -1.01339 0)
(12.584 -1.19939 0)
(12.9592 -1.5802 0)
(13.2927 -2.03938 0)
(13.3913 -2.28943 0)
(13.6992 -2.68778 0)
(13.924 -3.08012 0)
(14.0174 -3.34332 0)
(14.16 -3.69568 0)
(14.1731 -3.93994 0)
(14.1099 -4.11761 0)
(13.9864 -4.33865 0)
(13.7518 -4.36244 0)
(13.5108 -4.39849 0)
(13.1999 -4.39561 0)
(12.776 -4.19217 0)
(12.4396 -4.07578 0)
(12.0458 -3.93004 0)
(11.5675 -3.63831 0)
(11.1973 -3.49132 0)
(10.8126 -3.36129 0)
(10.3205 -3.13597 0)
(9.93144 -3.15574 0)
(9.50277 -3.22341 0)
(8.96414 -3.19636 0)
(8.49268 -3.24745 0)
(8.02114 -3.37516 0)
(7.71616 -3.34211 0)
(7.10582 -3.31763 0)
(6.79865 -3.28538 0)
(6.54088 -3.44175 0)
(6.76298 -3.97247 0)
(7.06161 -4.5706 0)
(7.30761 -5.12388 0)
(7.81507 -5.53405 0)
(8.01128 -5.45433 0)
(8.04196 -4.82424 0)
(8.08708 -3.9858 0)
(8.01239 -3.33521 0)
(8.29767 -2.69742 0)
(8.61401 -2.45136 0)
(9.02676 -2.0946 0)
(9.30436 -1.30458 0)
(9.59985 -0.617675 0)
(9.77921 0.0653694 0)
(9.99619 1.08936 0)
(9.99067 2.15576 0)
(9.78806 2.95281 0)
(9.93379 3.95754 0)
(10.0058 5.12077 0)
(9.9713 5.88308 0)
(9.70841 6.29891 0)
(9.64157 6.83657 0)
(9.69612 7.28363 0)
(9.63047 7.49385 0)
(9.35817 7.39802 0)
(9.22118 7.21613 0)
(9.23296 7.18585 0)
(9.27371 7.11965 0)
(9.55579 6.92157 0)
(9.62374 6.59574 0)
(9.4588 6.00782 0)
(9.648 5.39669 0)
(9.47012 4.78304 0)
(9.51455 3.95536 0)
(9.52853 3.31799 0)
(9.24633 2.19296 0)
(9.5258 1.52276 0)
(9.4302 0.773475 0)
(9.49393 -0.00195504 0)
(9.35592 -0.743117 0)
(9.44978 -1.21522 0)
(8.98486 -1.52163 0)
(8.75212 -1.79566 0)
(8.38656 -1.87664 0)
(8.22175 -1.96925 0)
(8.14248 -1.84471 0)
(7.74438 -1.88392 0)
(7.99139 -1.52504 0)
(7.68141 -1.37141 0)
(7.98559 -1.00234 0)
(7.94814 -0.930791 0)
(8.18611 -0.516621 0)
(8.12475 -0.374622 0)
(8.54492 0.452394 0)
(8.75282 0.855478 0)
(8.71838 1.28942 0)
(9.59341 2.21927 0)
(9.16221 2.69449 0)
(10.0435 3.54113 0)
(9.28561 4.16227 0)
(9.99233 4.71208 0)
(8.63058 4.32246 0)
(7.29164 4.26645 0)
(8.31119 4.18717 0)
(6.02235 5.1761 0)
(9.95194 4.96269 0)
(5.51916 5.65686 0)
(10.6649 4.71634 0)
(5.40668 5.43835 0)
(9.89802 3.64262 0)
(5.35036 4.81541 0)
(8.85896 3.1861 0)
(5.76533 4.20362 0)
(8.75792 3.0966 0)
(6.31203 3.34571 0)
(9.05165 2.42506 0)
(6.75854 1.61802 0)
(9.10512 0.894037 0)
(6.7694 0.332235 0)
(8.58219 -0.373341 0)
(6.29865 -0.63575 0)
(7.8985 -1.16437 0)
(5.55318 -1.59619 0)
(7.28277 -1.97913 0)
(5.33456 -1.63193 0)
(6.8045 -1.94137 0)
(4.7366 -1.35082 0)
(5.74412 -2.08997 0)
(4.24344 -0.0834567 0)
(7.71476 0.0161312 0)
(7.71582 0.0284597 0)
(7.74562 0.023043 0)
(7.82634 -0.00896865 0)
(7.93616 -0.0562225 0)
(8.03021 -0.106496 0)
(8.08891 -0.146522 0)
(8.11529 -0.183069 0)
(8.10674 -0.209039 0)
(8.08328 -0.217612 0)
(8.06685 -0.219671 0)
(8.0366 -0.199522 0)
(8.03976 -0.178442 0)
(8.02513 -0.141257 0)
(8.0528 -0.105683 0)
(8.06296 -0.0840708 0)
(8.11145 -0.0676731 0)
(8.14378 -0.0699804 0)
(8.18033 -0.0666697 0)
(8.2093 -0.0703766 0)
(8.22017 -0.065914 0)
(8.26689 -0.0733388 0)
(8.25427 -0.0669941 0)
(8.29904 -0.062642 0)
(8.26885 -0.0541598 0)
(8.29975 -0.0219671 0)
(8.26315 -0.00120256 0)
(8.28501 0.0479605 0)
(8.26928 0.086396 0)
(8.26408 0.121921 0)
(8.31058 0.16785 0)
(8.28087 0.180972 0)
(8.36077 0.201378 0)
(8.40187 0.177869 0)
(8.42233 0.173939 0)
(8.56541 0.1245 0)
(8.54835 0.0739019 0)
(8.71223 0.0432056 0)
(8.73775 -0.049025 0)
(8.81355 -0.0973653 0)
(8.9677 -0.162684 0)
(8.91641 -0.247288 0)
(9.13459 -0.311244 0)
(9.18486 -0.378873 0)
(9.20263 -0.46181 0)
(9.52447 -0.567182 0)
(9.39427 -0.573181 0)
(9.69236 -0.736663 0)
(9.81009 -0.775459 0)
(9.77746 -0.774957 0)
(10.1956 -0.98288 0)
(10.138 -0.902942 0)
(10.3636 -1.0297 0)
(10.7263 -1.20013 0)
(10.6558 -1.08823 0)
(11.0926 -1.42118 0)
(11.179 -1.48184 0)
(11.1682 -1.56976 0)
(11.5627 -1.9 0)
(11.2831 -1.79241 0)
(11.5075 -1.96163 0)
(11.409 -1.97829 0)
(11.1249 -1.79147 0)
(11.2769 -1.85864 0)
(10.89 -1.51691 0)
(10.909 -1.28188 0)
(11.0052 -1.08129 0)
(10.7028 -0.594108 0)
(11.121 -0.46549 0)
(11.0797 -0.158629 0)
(11.1299 0.148902 0)
(11.6462 0.127784 0)
(11.5938 0.341658 0)
(11.8423 0.391483 0)
(12.2903 0.186624 0)
(12.2348 0.219985 0)
(12.5434 0.0213489 0)
(12.8846 -0.308817 0)
(12.8918 -0.465785 0)
(13.1692 -0.736519 0)
(13.4601 -1.17214 0)
(13.5281 -1.40267 0)
(13.7578 -1.76318 0)
(13.9579 -2.18035 0)
(14.0136 -2.47092 0)
(14.1724 -2.85375 0)
(14.1727 -3.14442 0)
(14.1973 -3.43201 0)
(14.1415 -3.74882 0)
(13.9759 -3.85699 0)
(13.8518 -4.06881 0)
(13.6921 -4.21329 0)
(13.4049 -4.11659 0)
(13.2849 -4.20004 0)
(13.0301 -4.1127 0)
(12.716 -3.86384 0)
(12.5855 -3.82734 0)
(12.202 -3.64245 0)
(11.8349 -3.29496 0)
(11.5775 -3.18692 0)
(11.1141 -2.98443 0)
(10.5436 -2.73 0)
(10.0421 -2.74483 0)
(9.43342 -2.77388 0)
(8.68086 -2.745 0)
(8.08767 -2.79448 0)
(7.6121 -2.94931 0)
(7.01024 -2.87665 0)
(6.43483 -2.86668 0)
(6.16711 -3.09138 0)
(6.05673 -3.55848 0)
(6.29107 -4.1143 0)
(6.4663 -4.77848 0)
(6.89061 -5.46602 0)
(7.03078 -5.74502 0)
(7.17241 -5.46975 0)
(7.319 -4.83217 0)
(7.08448 -4.12064 0)
(7.27884 -3.45388 0)
(7.52425 -3.03465 0)
(7.86194 -2.84708 0)
(8.22991 -2.28513 0)
(8.53302 -1.589 0)
(8.81793 -0.847758 0)
(8.97072 -0.115181 0)
(9.19756 1.03153 0)
(9.07822 2.19275 0)
(9.03948 2.96182 0)
(8.99909 3.85786 0)
(9.18877 4.96666 0)
(9.13212 5.95945 0)
(9.01 6.48066 0)
(8.98114 6.80362 0)
(9.08817 7.2544 0)
(8.96999 7.62045 0)
(8.98594 7.54789 0)
(8.87977 7.30343 0)
(8.77631 7.16798 0)
(9.00205 6.91503 0)
(9.04404 6.74472 0)
(9.38601 6.45528 0)
(9.51848 5.98722 0)
(9.42693 5.28683 0)
(9.7301 4.76371 0)
(9.73727 3.99066 0)
(9.63669 3.24112 0)
(9.83331 2.22169 0)
(9.56895 1.48092 0)
(9.82316 0.642423 0)
(9.43988 0.218689 0)
(9.60762 -0.872507 0)
(9.00779 -0.872947 0)
(9.13922 -1.43033 0)
(8.44384 -1.53162 0)
(8.68623 -1.93056 0)
(8.23767 -1.75361 0)
(8.0176 -1.81633 0)
(7.89215 -1.66788 0)
(7.56433 -1.65966 0)
(8.0855 -1.25151 0)
(7.68007 -1.21903 0)
(8.47107 -0.858214 0)
(8.04318 -0.789752 0)
(8.97529 -0.202292 0)
(8.24922 -0.0351603 0)
(9.55611 0.846552 0)
(8.72329 1.20205 0)
(9.74711 1.91392 0)
(9.54013 2.64673 0)
(9.98165 3.37652 0)
(10.2895 3.98735 0)
(9.59197 4.87443 0)
(11.2473 4.96354 0)
(7.63595 5.17888 0)
(10.7834 4.32035 0)
(5.49049 4.8197 0)
(11.2275 4.54822 0)
(6.04268 5.74067 0)
(11.1892 4.60669 0)
(6.5869 5.49965 0)
(10.5756 4.3046 0)
(6.5413 4.80572 0)
(9.89287 3.60753 0)
(6.51681 4.08411 0)
(9.74044 2.95877 0)
(7.00907 3.19106 0)
(9.90618 2.134 0)
(7.84039 1.92696 0)
(9.77441 0.728717 0)
(7.92275 0.539891 0)
(9.48942 -0.114417 0)
(7.72598 -0.215099 0)
(8.94432 -1.1926 0)
(7.49794 -1.25708 0)
(8.40347 -1.5904 0)
(6.8085 -1.26075 0)
(7.61451 -1.99361 0)
(6.17434 -1.08746 0)
(6.52246 -1.5107 0)
(5.02619 -0.461506 0)
(9.97766 -0.0277288 0)
(9.97823 -0.140106 0)
(10.0268 -0.180542 0)
(10.0995 -0.16964 0)
(10.1849 -0.14934 0)
(10.2527 -0.146255 0)
(10.2812 -0.14743 0)
(10.2923 -0.173409 0)
(10.2688 -0.196253 0)
(10.239 -0.199633 0)
(10.2245 -0.212381 0)
(10.1737 -0.189571 0)
(10.1929 -0.180448 0)
(10.1486 -0.158774 0)
(10.1814 -0.130649 0)
(10.1706 -0.118257 0)
(10.2021 -0.0949137 0)
(10.2268 -0.0911342 0)
(10.238 -0.0783438 0)
(10.2791 -0.0761001 0)
(10.2475 -0.0769717 0)
(10.3164 -0.0764012 0)
(10.2576 -0.0695318 0)
(10.3235 -0.0709032 0)
(10.2812 -0.0496205 0)
(10.3069 -0.02323 0)
(10.3017 0.00653161 0)
(10.2801 0.046809 0)
(10.3303 0.0751096 0)
(10.2624 0.113756 0)
(10.3383 0.130524 0)
(10.3137 0.156434 0)
(10.3373 0.157305 0)
(10.4499 0.144212 0)
(10.3811 0.143515 0)
(10.5908 0.079261 0)
(10.5115 0.0554702 0)
(10.6694 -0.0244455 0)
(10.7305 -0.084626 0)
(10.7016 -0.139397 0)
(10.9364 -0.260133 0)
(10.8252 -0.258508 0)
(11.0134 -0.398128 0)
(11.1067 -0.465216 0)
(11.0203 -0.477684 0)
(11.3885 -0.698368 0)
(11.1943 -0.634056 0)
(11.4559 -0.795242 0)
(11.5757 -0.92111 0)
(11.4848 -0.826123 0)
(11.8463 -1.10423 0)
(11.7659 -1.04932 0)
(11.9011 -1.09798 0)
(12.2055 -1.35854 0)
(12.021 -1.22139 0)
(12.394 -1.51189 0)
(12.3224 -1.60577 0)
(12.3134 -1.58518 0)
(12.5368 -1.88767 0)
(12.2193 -1.75822 0)
(12.3386 -1.88801 0)
(12.139 -1.95201 0)
(11.8363 -1.6886 0)
(11.9426 -1.77789 0)
(11.5553 -1.40237 0)
(11.5228 -1.1539 0)
(11.6068 -1.04581 0)
(11.2793 -0.559207 0)
(11.5791 -0.489566 0)
(11.5939 -0.301704 0)
(11.5885 0.0480723 0)
(12.0074 -0.0429318 0)
(12.1324 0.133601 0)
(12.2474 0.217475 0)
(12.7163 0.0183647 0)
(12.7743 0.000979592 0)
(12.9631 -0.128773 0)
(13.3067 -0.435675 0)
(13.3712 -0.629102 0)
(13.547 -0.892243 0)
(13.7676 -1.25312 0)
(13.7775 -1.54563 0)
(13.952 -1.9161 0)
(13.9839 -2.23546 0)
(14.0056 -2.57294 0)
(14.0187 -2.91214 0)
(13.9317 -3.15988 0)
(13.8873 -3.4508 0)
(13.7682 -3.68199 0)
(13.6073 -3.77904 0)
(13.5754 -3.97182 0)
(13.4668 -4.02311 0)
(13.3032 -3.97675 0)
(13.3398 -4.00971 0)
(13.1547 -3.87254 0)
(12.9582 -3.7101 0)
(12.8873 -3.61934 0)
(12.5298 -3.33837 0)
(12.1566 -3.00413 0)
(11.8795 -2.84174 0)
(11.2503 -2.52866 0)
(10.613 -2.2719 0)
(9.99282 -2.22136 0)
(9.07837 -2.13636 0)
(8.24275 -2.12896 0)
(7.62324 -2.30553 0)
(6.97724 -2.41397 0)
(6.30788 -2.35265 0)
(5.7745 -2.5202 0)
(5.46352 -2.9092 0)
(5.54163 -3.57307 0)
(5.70493 -4.30089 0)
(5.85032 -5.01828 0)
(6.18714 -5.58002 0)
(6.2709 -5.81775 0)
(6.37177 -5.45595 0)
(6.36548 -4.73723 0)
(6.17859 -4.17021 0)
(6.44695 -3.6459 0)
(6.6153 -3.29378 0)
(6.97441 -2.98336 0)
(7.26658 -2.48793 0)
(7.51696 -1.77746 0)
(7.7192 -0.922256 0)
(7.9636 -0.147427 0)
(7.9683 1.02202 0)
(8.05694 2.18289 0)
(7.90514 3.08941 0)
(8.05309 3.85194 0)
(8.12308 4.93154 0)
(8.24736 5.90977 0)
(8.12193 6.46893 0)
(8.16858 6.80827 0)
(8.2683 7.27756 0)
(8.41591 7.48251 0)
(8.50485 7.4894 0)
(8.31551 7.36514 0)
(8.39217 7.0506 0)
(8.49616 6.7973 0)
(8.65408 6.52522 0)
(8.94953 6.18254 0)
(9.21703 5.874 0)
(9.31118 5.19932 0)
(9.48913 4.53161 0)
(9.72129 3.85912 0)
(9.72025 3.3454 0)
(9.98075 2.06839 0)
(9.55608 1.78392 0)
(9.80528 0.526742 0)
(9.29162 0.502741 0)
(9.70044 -0.799245 0)
(8.57362 -0.490321 0)
(9.32113 -1.41271 0)
(7.99007 -1.08987 0)
(8.74471 -1.91696 0)
(7.71902 -1.12894 0)
(8.2131 -1.81341 0)
(7.54407 -1.24382 0)
(8.16797 -1.9076 0)
(7.93878 -1.29244 0)
(8.60468 -1.49152 0)
(8.59356 -1.03479 0)
(8.90218 -1.10503 0)
(9.22236 -0.435515 0)
(9.38283 -0.128208 0)
(9.26396 0.551271 0)
(10.046 0.995787 0)
(9.34745 1.84075 0)
(10.7965 2.3689 0)
(9.16902 3.45759 0)
(11.8383 3.73629 0)
(8.69403 4.86049 0)
(12.9156 5.02864 0)
(8.11863 5.84711 0)
(12.6784 4.87948 0)
(6.83239 5.51763 0)
(11.322 3.97736 0)
(6.87549 5.29076 0)
(11.5348 4.54578 0)
(7.71459 5.44959 0)
(11.5981 4.31346 0)
(8.07636 4.86506 0)
(11.3747 4.0337 0)
(8.31287 3.91649 0)
(11.1031 3.20318 0)
(8.60683 2.9943 0)
(10.9061 2.18992 0)
(9.11445 1.62899 0)
(10.752 0.946064 0)
(9.27203 0.641482 0)
(10.1876 -0.220017 0)
(9.14565 -0.172093 0)
(10.0595 -0.974768 0)
(8.93886 -0.977053 0)
(9.36383 -1.33972 0)
(8.2815 -1.21346 0)
(8.80518 -1.41992 0)
(7.54619 -0.824182 0)
(8.12619 -0.8487 0)
(6.96781 -0.364417 0)
(11.5323 -0.0290204 0)
(11.5757 -0.178485 0)
(11.6965 -0.245054 0)
(11.7974 -0.235656 0)
(11.8586 -0.200134 0)
(11.9034 -0.175493 0)
(11.9016 -0.150206 0)
(11.8954 -0.159393 0)
(11.8659 -0.171334 0)
(11.8085 -0.180794 0)
(11.8023 -0.196258 0)
(11.7276 -0.181205 0)
(11.76 -0.184497 0)
(11.7182 -0.156387 0)
(11.7474 -0.14039 0)
(11.7307 -0.123647 0)
(11.7289 -0.110078 0)
(11.7418 -0.108453 0)
(11.7132 -0.0998123 0)
(11.7682 -0.0958639 0)
(11.7178 -0.084943 0)
(11.8108 -0.0886715 0)
(11.7453 -0.0544328 0)
(11.8146 -0.072501 0)
(11.7743 -0.0380918 0)
(11.7738 -0.0283944 0)
(11.8024 -0.00489609 0)
(11.7354 0.040123 0)
(11.8425 0.0457471 0)
(11.7624 0.114667 0)
(11.8554 0.100592 0)
(11.8459 0.139724 0)
(11.8371 0.124863 0)
(11.9741 0.0948379 0)
(11.8631 0.109064 0)
(12.0859 0.0072921 0)
(12.0119 0.0288893 0)
(12.1453 -0.0758988 0)
(12.2467 -0.130342 0)
(12.1748 -0.154689 0)
(12.4283 -0.328885 0)
(12.2819 -0.287604 0)
(12.4523 -0.454145 0)
(12.4816 -0.53376 0)
(12.417 -0.517882 0)
(12.6487 -0.759412 0)
(12.5006 -0.697263 0)
(12.6766 -0.833626 0)
(12.7245 -0.976415 0)
(12.6743 -0.903339 0)
(12.8831 -1.13471 0)
(12.7902 -1.12257 0)
(12.8938 -1.17341 0)
(12.983 -1.37358 0)
(12.8596 -1.31868 0)
(13.033 -1.51254 0)
(12.8718 -1.58983 0)
(12.8749 -1.57805 0)
(12.8455 -1.78346 0)
(12.5793 -1.70642 0)
(12.5594 -1.77903 0)
(12.3256 -1.79941 0)
(12.0894 -1.54085 0)
(12.091 -1.56859 0)
(11.7471 -1.26493 0)
(11.6878 -1.02171 0)
(11.6546 -0.975857 0)
(11.4316 -0.548369 0)
(11.5545 -0.494503 0)
(11.6466 -0.400002 0)
(11.6044 -0.080975 0)
(11.9136 -0.181325 0)
(12.106 -0.0797275 0)
(12.1989 0.00976033 0)
(12.5695 -0.128057 0)
(12.6928 -0.218729 0)
(12.8834 -0.307601 0)
(13.117 -0.539765 0)
(13.2008 -0.786951 0)
(13.3901 -1.05332 0)
(13.4264 -1.33028 0)
(13.538 -1.69011 0)
(13.5874 -1.99742 0)
(13.554 -2.28011 0)
(13.6399 -2.64707 0)
(13.5202 -2.90498 0)
(13.5131 -3.13392 0)
(13.5213 -3.4484 0)
(13.424 -3.573 0)
(13.4316 -3.69823 0)
(13.5011 -3.92585 0)
(13.4238 -3.8844 0)
(13.4453 -3.90237 0)
(13.4663 -3.94991 0)
(13.2674 -3.76335 0)
(13.1796 -3.62033 0)
(12.9991 -3.44517 0)
(12.5985 -3.04362 0)
(12.2366 -2.76177 0)
(11.842 -2.45974 0)
(11.0772 -1.98516 0)
(10.418 -1.73932 0)
(9.61583 -1.54684 0)
(8.54204 -1.39462 0)
(7.74518 -1.49397 0)
(7.11382 -1.74242 0)
(6.29214 -1.78955 0)
(5.51257 -1.8424 0)
(5.11255 -2.18129 0)
(4.90821 -2.8428 0)
(4.8827 -3.66434 0)
(4.99503 -4.39914 0)
(5.25901 -5.14624 0)
(5.29566 -5.68876 0)
(5.35915 -5.81091 0)
(5.54211 -5.41967 0)
(5.3221 -4.73773 0)
(5.30073 -4.17578 0)
(5.54177 -3.78731 0)
(5.55959 -3.5629 0)
(5.95877 -3.17399 0)
(6.16744 -2.6995 0)
(6.29945 -1.92558 0)
(6.58187 -1.07214 0)
(6.64269 -0.187845 0)
(6.69058 0.999788 0)
(6.7447 2.16678 0)
(6.74767 3.03776 0)
(6.94121 3.8011 0)
(7.05976 4.83645 0)
(7.17956 5.81365 0)
(7.22071 6.45635 0)
(7.21124 6.71737 0)
(7.49468 7.09858 0)
(7.53814 7.41341 0)
(7.7327 7.53967 0)
(7.93675 7.31101 0)
(7.79805 7.02255 0)
(8.04821 6.63851 0)
(8.185 6.28729 0)
(8.49798 5.89141 0)
(8.63324 5.65433 0)
(9.10887 4.80435 0)
(9.21399 4.60335 0)
(9.42855 3.50597 0)
(9.38884 3.36948 0)
(9.80395 1.89834 0)
(9.01694 2.03918 0)
(9.9548 0.340351 0)
(8.69775 0.895993 0)
(9.84393 -0.895618 0)
(7.82391 0.0372207 0)
(9.90779 -1.63023 0)
(7.08361 -0.554965 0)
(9.88114 -2.28351 0)
(6.50064 -0.767124 0)
(9.98455 -2.1051 0)
(6.54083 -1.06138 0)
(10.1233 -2.19567 0)
(7.21313 -1.35962 0)
(10.5755 -1.73044 0)
(8.12995 -1.06582 0)
(11.0702 -1.31284 0)
(8.73849 -0.540472 0)
(11.6408 -0.23723 0)
(8.85328 0.584884 0)
(12.0025 0.673325 0)
(8.80839 1.85737 0)
(12.5951 2.06778 0)