/*--------------------------------*- C++ -*----------------------------------*\
| =========                 |                                                 |
| \\      /  F ield         | OpenFOAM: The Open Source CFD Toolbox           |
|  \\    /   O peration     | Version:  2.4.0                                 |
|   \\  /    A nd           | Web:      www.OpenFOAM.org                      |
|    \\/     M anipulation  |                                                 |
\*---------------------------------------------------------------------------*/
FoamFile
{
    version     2.0;
    format      ascii;
    class       surfaceScalarField;
    location    "0.33";
    object      phi;
}
// * * * * * * * * * * * * * * * * * * * * * * * * * * * * * * * * * * * * * //

dimensions      [0 3 -1 0 0 0 0];

internalField   nonuniform List<scalar> 
17320
(
1.76378e-05
7.36222e-06
1.16153e-05
6.02248e-06
8.67741e-06
2.93789e-06
7.36053e-06
1.31688e-06
6.71925e-06
6.41278e-07
6.33409e-06
3.85156e-07
6.0896e-06
2.44492e-07
5.86643e-06
2.23169e-07
5.70106e-06
1.6537e-07
5.58562e-06
1.15448e-07
5.48439e-06
1.01226e-07
5.36816e-06
1.16228e-07
5.31651e-06
5.16483e-08
5.20532e-06
1.11198e-07
5.12705e-06
7.82666e-08
5.03501e-06
9.2036e-08
4.91065e-06
1.24361e-07
4.79614e-06
1.14517e-07
4.61349e-06
1.82645e-07
-1.3541e-07
4.7489e-06
2.546e-05
6.90217e-06
2.32423e-05
8.24027e-06
2.09824e-05
5.1977e-06
1.93258e-05
2.97356e-06
1.80719e-05
1.89511e-06
1.71087e-05
1.3484e-06
1.63792e-05
9.74046e-07
1.5765e-05
8.37349e-07
1.53054e-05
6.24953e-07
1.4939e-05
4.81865e-07
1.46346e-05
4.05614e-07
1.43534e-05
3.97406e-07
1.41592e-05
2.45879e-07
1.39089e-05
3.61517e-07
1.37259e-05
2.61218e-07
1.34946e-05
3.23291e-07
1.32594e-05
3.59584e-07
1.29892e-05
3.84775e-07
1.27922e-05
3.79623e-07
2.31792e-07
1.2425e-05
2.66202e-05
5.28201e-06
2.7151e-05
7.70941e-06
2.67742e-05
5.57455e-06
2.62594e-05
3.48828e-06
2.5594e-05
2.56057e-06
2.48734e-05
2.06894e-06
2.41746e-05
1.67288e-06
2.34901e-05
1.52188e-06
2.2936e-05
1.17904e-06
2.24497e-05
9.68135e-07
2.20321e-05
8.23212e-07
2.16593e-05
7.70219e-07
2.13699e-05
5.35301e-07
2.10386e-05
6.92762e-07
2.08023e-05
4.97575e-07
2.04825e-05
6.43034e-07
2.02197e-05
6.22384e-07
1.98229e-05
7.8164e-07
1.96579e-05
5.44594e-07
9.22575e-07
1.89671e-05
2.63291e-05
3.95288e-06
2.75293e-05
6.50927e-06
2.80695e-05
5.0343e-06
2.84656e-05
3.09219e-06
2.86353e-05
2.39084e-06
2.86236e-05
2.08073e-06
2.84955e-05
1.80093e-06
2.82152e-05
1.80213e-06
2.79764e-05
1.41786e-06
2.76951e-05
1.24946e-06
2.74225e-05
1.09579e-06
2.71587e-05
1.03406e-06
2.6932e-05
7.62011e-07
2.66342e-05
9.90492e-07
2.64576e-05
6.74226e-07
2.61339e-05
9.6671e-07
2.59155e-05
8.40775e-07
2.55171e-05
1.18008e-06
2.51378e-05
9.23842e-07
1.89835e-06
2.41621e-05
2.60659e-05
2.88698e-06
2.72353e-05
5.33992e-06
2.80057e-05
4.26384e-06
2.85007e-05
2.59721e-06
2.89787e-05
1.9128e-06
2.93239e-05
1.73557e-06
2.96112e-05
1.51363e-06
2.97265e-05
1.68684e-06
2.98584e-05
1.28589e-06
2.99164e-05
1.19152e-06
2.99321e-05
1.08002e-06
2.99584e-05
1.0078e-06
2.99789e-05
7.41513e-07
2.98801e-05
1.08928e-06
2.99085e-05
6.45834e-07
2.97956e-05
1.07966e-06
2.96439e-05
9.92415e-07
2.96558e-05
1.16821e-06
2.96815e-05
8.9811e-07
1.73245e-06
2.98474e-05
2.58673e-05
2.01971e-06
2.69808e-05
4.22643e-06
2.77873e-05
3.45731e-06
2.82025e-05
2.182e-06
2.86962e-05
1.4191e-06
2.90938e-05
1.338e-06
2.94842e-05
1.12323e-06
2.97249e-05
1.44609e-06
2.99767e-05
1.03413e-06
3.02024e-05
9.65792e-07
3.03564e-05
9.2598e-07
3.05401e-05
8.24134e-07
3.07332e-05
5.48382e-07
3.08131e-05
1.00939e-06
3.09745e-05
4.84483e-07
3.1122e-05
9.32155e-07
3.11196e-05
9.94772e-07
3.14667e-05
8.21144e-07
3.15818e-05
7.82997e-07
1.37727e-06
3.1937e-05
2.56664e-05
1.35334e-06
2.67638e-05
3.12903e-06
2.7637e-05
2.58405e-06
2.80624e-05
1.7566e-06
2.84314e-05
1.05012e-06
2.88209e-05
9.4854e-07
2.92188e-05
7.25268e-07
2.94902e-05
1.17475e-06
2.97799e-05
7.44439e-07
3.00423e-05
7.03389e-07
3.01978e-05
7.70437e-07
3.03952e-05
6.26768e-07
3.06008e-05
3.42735e-07
3.08179e-05
7.92313e-07
3.09361e-05
3.66268e-07
3.11388e-05
7.29492e-07
3.13377e-05
7.95807e-07
3.16865e-05
4.72417e-07
3.18557e-05
6.13722e-07
8.96172e-07
3.23368e-05
2.55575e-05
7.95807e-07
2.65889e-05
2.09762e-06
2.74361e-05
1.73693e-06
2.80262e-05
1.1665e-06
2.83223e-05
7.53985e-07
2.86512e-05
6.19596e-07
2.89452e-05
4.31297e-07
2.93319e-05
7.88041e-07
2.96616e-05
4.14734e-07
2.98502e-05
5.14872e-07
2.99967e-05
6.23937e-07
3.02406e-05
3.82802e-07
3.03838e-05
1.9958e-07
3.07047e-05
4.71335e-07
3.0852e-05
2.1901e-07
3.09114e-05
6.70123e-07
3.12678e-05
4.39363e-07
3.15712e-05
1.69015e-07
3.16073e-05
5.77622e-07
4.21515e-07
3.2082e-05
2.54726e-05
3.23172e-07
2.64483e-05
1.12198e-06
2.72833e-05
9.01932e-07
2.79271e-05
5.22715e-07
2.82915e-05
3.89516e-07
2.85639e-05
3.47216e-07
2.88345e-05
1.6072e-07
2.92637e-05
3.58831e-07
2.94886e-05
1.89868e-07
2.96949e-05
3.08553e-07
2.99696e-05
3.49186e-07
3.01798e-05
1.72615e-07
3.02413e-05
1.38114e-07
3.05356e-05
1.76999e-07
3.07478e-05
6.80115e-09
3.09191e-05
4.98895e-07
3.11872e-05
1.71233e-07
3.14194e-05
-6.31772e-08
3.14812e-05
5.15849e-07
7.32598e-08
3.18294e-05
2.54124e-05
-8.92201e-08
2.64349e-05
9.94538e-08
2.72662e-05
7.07022e-08
2.78737e-05
-8.47976e-08
2.82288e-05
3.44023e-08
2.85368e-05
3.91684e-08
2.88309e-05
-1.33307e-07
2.91956e-05
-5.92273e-09
2.94155e-05
-2.99796e-08
2.96135e-05
1.10515e-07
2.99154e-05
4.72277e-08
3.01487e-05
-6.0686e-08
3.02203e-05
6.65558e-08
3.04843e-05
-8.69493e-08
3.06155e-05
-1.24411e-07
3.09184e-05
1.95929e-07
3.11834e-05
-9.3752e-08
3.12075e-05
-8.72979e-08
3.15307e-05
1.92689e-07
-2.14474e-07
3.18184e-05
2.54089e-05
-4.98081e-07
2.6413e-05
-9.04724e-07
2.72701e-05
-7.86314e-07
2.78853e-05
-7.00091e-07
2.82489e-05
-3.29116e-07
2.85671e-05
-2.79046e-07
2.87869e-05
-3.53093e-07
2.91211e-05
-3.40147e-07
2.94278e-05
-3.36724e-07
2.96872e-05
-1.48876e-07
2.9889e-05
-1.54593e-07
3.01079e-05
-2.79553e-07
3.02877e-05
-1.13239e-07
3.04678e-05
-2.67025e-07
3.06094e-05
-2.66048e-07
3.08988e-05
-9.3427e-08
3.10962e-05
-2.91196e-07
3.13293e-05
-3.20373e-07
3.15793e-05
-5.7339e-08
-2.82774e-07
3.16476e-05
2.54272e-05
-9.25289e-07
2.6457e-05
-1.93455e-06
2.73663e-05
-1.69558e-06
2.7952e-05
-1.28584e-06
2.82387e-05
-6.15772e-07
2.85856e-05
-6.25965e-07
2.88814e-05
-6.48894e-07
2.91843e-05
-6.43024e-07
2.94475e-05
-5.99948e-07
2.97497e-05
-4.51064e-07
2.99557e-05
-3.60586e-07
3.01673e-05
-4.91151e-07
3.03259e-05
-2.71879e-07
3.05072e-05
-4.48318e-07
3.06714e-05
-4.30254e-07
3.09518e-05
-3.7376e-07
3.11437e-05
-4.83113e-07
3.14105e-05
-5.87143e-07
3.16951e-05
-3.42014e-07
-3.35559e-07
3.17479e-05
2.55294e-05
-1.4547e-06
2.65931e-05
-2.99823e-06
2.74663e-05
-2.56875e-06
2.8003e-05
-1.82261e-06
2.83044e-05
-9.17088e-07
2.86958e-05
-1.01741e-06
2.90023e-05
-9.55411e-07
2.93211e-05
-9.61826e-07
2.95665e-05
-8.45286e-07
2.98445e-05
-7.29109e-07
3.00439e-05
-5.59926e-07
3.02472e-05
-6.94471e-07
3.04182e-05
-4.42899e-07
3.06482e-05
-6.78322e-07
3.08101e-05
-5.92138e-07
3.10302e-05
-5.93868e-07
3.12338e-05
-6.86719e-07
3.15182e-05
-8.71546e-07
3.17516e-05
-5.75378e-07
-5.91113e-07
3.20071e-05
2.56696e-05
-2.12429e-06
2.67374e-05
-4.06606e-06
2.76073e-05
-3.43864e-06
2.80498e-05
-2.2651e-06
2.84794e-05
-1.34667e-06
2.88792e-05
-1.41719e-06
2.91789e-05
-1.25517e-06
2.94832e-05
-1.26608e-06
2.97349e-05
-1.09698e-06
2.99984e-05
-9.92614e-07
3.0217e-05
-7.78547e-07
3.04408e-05
-9.18254e-07
3.0609e-05
-6.11082e-07
3.08046e-05
-8.73934e-07
3.09293e-05
-7.16837e-07
3.11844e-05
-8.49039e-07
3.13458e-05
-8.48093e-07
3.16038e-05
-1.12957e-06
3.18997e-05
-8.71293e-07
-9.13869e-07
3.22225e-05
2.58332e-05
-2.95748e-06
2.69601e-05
-5.19297e-06
2.78266e-05
-4.30511e-06
2.82351e-05
-2.6736e-06
2.87137e-05
-1.82527e-06
2.91053e-05
-1.80887e-06
2.94331e-05
-1.5829e-06
2.97076e-05
-1.54061e-06
2.99738e-05
-1.36321e-06
3.01794e-05
-1.19816e-06
3.03915e-05
-9.90676e-07
3.05584e-05
-1.08514e-06
3.07202e-05
-7.72887e-07
3.08405e-05
-9.9425e-07
3.09507e-05
-8.27013e-07
3.11068e-05
-1.00518e-06
3.11834e-05
-9.24695e-07
3.13808e-05
-1.3269e-06
3.15635e-05
-1.05399e-06
-1.21929e-06
3.18689e-05
2.60368e-05
-3.99428e-06
2.72531e-05
-6.4093e-06
2.80375e-05
-5.08948e-06
2.84966e-05
-3.13274e-06
2.89856e-05
-2.31418e-06
2.93186e-05
-2.14194e-06
2.95795e-05
-1.84373e-06
2.9726e-05
-1.68713e-06
2.98474e-05
-1.48458e-06
2.99054e-05
-1.25624e-06
2.99702e-05
-1.05545e-06
2.99504e-05
-1.06531e-06
2.99687e-05
-7.91193e-07
2.9901e-05
-9.26614e-07
2.98642e-05
-7.90136e-07
2.97877e-05
-9.28754e-07
2.96902e-05
-8.27116e-07
2.96181e-05
-1.25482e-06
2.95725e-05
-1.00842e-06
-1.32176e-06
2.9675e-05
2.63096e-05
-5.30385e-06
2.7556e-05
-7.65577e-06
2.80731e-05
-5.60656e-06
2.84526e-05
-3.51225e-06
2.86476e-05
-2.50913e-06
2.86118e-05
-2.10614e-06
2.84743e-05
-1.70622e-06
2.8231e-05
-1.4438e-06
2.79637e-05
-1.21735e-06
2.76941e-05
-9.86664e-07
2.74348e-05
-7.96116e-07
2.7146e-05
-7.76507e-07
2.69245e-05
-5.69717e-07
2.6644e-05
-6.4605e-07
2.64146e-05
-5.60804e-07
2.61398e-05
-6.53919e-07
2.58937e-05
-5.81052e-07
2.55594e-05
-9.2047e-07
2.5343e-05
-7.91979e-07
-1.19386e-06
2.52151e-05
2.66089e-05
-6.91275e-06
2.71682e-05
-8.21507e-06
2.67703e-05
-5.20866e-06
2.62502e-05
-2.99216e-06
2.56069e-05
-1.86585e-06
2.4864e-05
-1.36323e-06
2.41597e-05
-1.00191e-06
2.35056e-05
-7.8966e-07
2.29282e-05
-6.40025e-07
2.24461e-05
-5.04537e-07
2.20351e-05
-3.85087e-07
2.1654e-05
-3.95424e-07
2.13592e-05
-2.74943e-07
2.10422e-05
-3.2904e-07
2.07746e-05
-2.93141e-07
2.04718e-05
-3.51182e-07
2.02056e-05
-3.14879e-07
1.97896e-05
-5.04429e-07
1.94416e-05
-4.43993e-07
-3.7961e-07
1.86274e-05
2.54532e-05
-7.36596e-06
2.32529e-05
-6.01478e-06
2.09824e-05
-2.93811e-06
1.9318e-05
-1.32781e-06
1.80811e-05
-6.28894e-07
1.71048e-05
-3.8699e-07
1.63649e-05
-2.62013e-07
1.57772e-05
-2.01963e-07
1.53041e-05
-1.66862e-07
1.49311e-05
-1.31566e-07
1.46353e-05
-8.92488e-08
1.4354e-05
-1.14211e-07
1.41458e-05
-6.67005e-08
1.39126e-05
-9.58149e-08
1.3708e-05
-8.86111e-08
1.34702e-05
-1.13342e-07
1.32518e-05
-9.64636e-08
1.29195e-05
-1.72103e-07
1.26727e-05
-1.97206e-07
-2.95857e-08
1.23227e-05
1.7634e-05
1.16193e-05
8.68116e-06
7.35334e-06
6.72445e-06
6.33746e-06
6.07545e-06
5.87348e-06
5.70662e-06
5.57505e-06
5.48581e-06
5.37159e-06
5.30489e-06
5.20908e-06
5.12047e-06
5.00713e-06
4.91066e-06
4.73856e-06
4.54135e-06
4.51177e-06
5.388e-06
2.03231e-07
-8.42326e-07
6.01524e-06
4.63157e-07
-1.0904e-06
6.52213e-06
2.12444e-07
-7.19338e-07
6.87307e-06
-1.3432e-07
-2.16617e-07
7.09426e-06
-3.46466e-07
1.25275e-07
7.23555e-06
-4.11419e-07
2.70129e-07
7.35038e-06
-3.39567e-07
2.24738e-07
7.47822e-06
-1.80211e-07
5.23724e-08
7.63923e-06
-1.9528e-08
-1.41485e-07
7.82875e-06
1.13291e-07
-3.02803e-07
8.02172e-06
2.0679e-07
-3.99767e-07
8.20501e-06
2.25752e-07
-4.09039e-07
8.3871e-06
2.2539e-07
-4.07479e-07
8.54005e-06
1.91732e-07
-3.44677e-07
8.68635e-06
1.2837e-07
-2.74675e-07
8.83192e-06
8.44686e-08
-2.30036e-07
8.97292e-06
3.1204e-08
-1.72208e-07
9.08759e-06
-1.4503e-08
-1.00165e-07
9.20543e-06
-5.21506e-08
-6.56863e-08
9.33965e-06
-7.31788e-08
-6.10376e-08
9.4859e-06
-5.68433e-08
-8.9407e-08
9.63684e-06
-2.50417e-08
-1.25905e-07
9.7913e-06
1.78455e-09
-1.56245e-07
9.96765e-06
3.0939e-08
-2.07285e-07
1.01718e-05
5.92945e-08
-2.63409e-07
1.04129e-05
7.82738e-08
-3.19456e-07
1.06807e-05
8.72302e-08
-3.55021e-07
1.09996e-05
3.61134e-08
-3.54931e-07
1.13413e-05
-5.91906e-08
-2.82507e-07
1.15836e-05
-2.55898e-07
1.3592e-08
1.17486e-05
-5.39317e-07
3.74324e-07
1.17868e-05
-7.92271e-07
7.54004e-07
1.17322e-05
-1.00444e-06
1.05905e-06
1.17087e-05
-1.12675e-06
1.15022e-06
1.16942e-05
-1.21496e-06
1.22952e-06
1.16724e-05
-1.17828e-06
1.20004e-06
1.16449e-05
-9.9805e-07
1.02553e-06
1.17198e-05
-8.23507e-07
7.48634e-07
1.19117e-05
-6.7309e-07
4.81163e-07
1.20932e-05
-4.49602e-07
2.68187e-07
1.2337e-05
-2.65494e-07
2.16319e-08
1.25506e-05
-1.37859e-07
-7.57636e-08
1.27176e-05
-1.45558e-07
-2.14036e-08
1.28024e-05
-1.17888e-07
3.30495e-08
1.29592e-05
-1.07649e-07
-4.90657e-08
1.31562e-05
1.58764e-08
-2.12924e-07
1.333e-05
1.56634e-07
-3.30408e-07
1.35971e-05
1.96883e-07
-4.63976e-07
1.38638e-05
3.52525e-07
-6.1925e-07
1.41209e-05
4.19391e-07
-6.7651e-07
1.4513e-05
4.3783e-07
-8.29937e-07
1.49077e-05
5.83869e-07
-9.78549e-07
1.52917e-05
6.06192e-07
-9.90229e-07
1.58029e-05
5.77419e-07
-1.08856e-06
1.63134e-05
6.24237e-07
-1.13475e-06
1.68597e-05
5.15822e-07
-1.0621e-06
1.74861e-05
3.96236e-07
-1.02262e-06
1.80731e-05
2.6531e-07
-8.52328e-07
1.86641e-05
-3.84777e-08
-5.52597e-07
1.9233e-05
-3.54411e-07
-2.14484e-07
1.97693e-05
-7.38462e-07
2.02178e-07
2.02462e-05
-1.23158e-06
7.5475e-07
2.07358e-05
-1.69359e-06
1.20399e-06
2.12326e-05
-2.18771e-06
1.69083e-06
2.16598e-05
-2.78497e-06
2.35784e-06
2.21991e-05
-3.29774e-06
2.75844e-06
2.27118e-05
-3.93204e-06
3.41931e-06
2.3235e-05
-4.40189e-06
3.87866e-06
2.39824e-05
-5.09496e-06
4.34763e-06
2.46549e-05
-5.6744e-06
5.00189e-06
2.54416e-05
-6.18858e-06
5.40184e-06
2.63517e-05
-6.92665e-06
6.0166e-06
2.71197e-05
-7.46728e-06
6.69923e-06
2.80494e-05
-8.06323e-06
7.13357e-06
2.88892e-05
-8.60348e-06
7.76364e-06
2.95509e-05
-9.15269e-06
8.49097e-06
3.03018e-05
-9.53828e-06
8.78745e-06
3.07934e-05
-9.84548e-06
9.35382e-06
3.11491e-05
-1.01971e-05
9.84141e-06
3.13936e-05
-1.02235e-05
9.9791e-06
3.1448e-05
-1.04192e-05
1.03648e-05
3.13602e-05
-1.03662e-05
1.0454e-05
3.11183e-05
-1.04251e-05
1.0667e-05
3.08974e-05
-1.03477e-05
1.05686e-05
3.05375e-05
-1.02988e-05
1.06588e-05
3.01412e-05
-1.02181e-05
1.06144e-05
2.97398e-05
-9.94527e-06
1.03467e-05
2.95354e-05
-1.01157e-05
1.03201e-05
2.93405e-05
-9.80778e-06
1.00027e-05
2.92354e-05
-9.83452e-06
9.93962e-06
2.92923e-05
-9.5154e-06
9.45852e-06
2.94329e-05
-9.32663e-06
9.18602e-06
2.97119e-05
-8.95101e-06
8.67198e-06
2.98878e-05
-8.21337e-06
8.03747e-06
3.01951e-05
-7.56901e-06
7.26175e-06
3.05155e-05
-6.47947e-06
6.1591e-06
3.08061e-05
-5.28353e-06
4.99286e-06
3.10166e-05
-3.80457e-06
3.59409e-06
3.1086e-05
-2.12347e-06
2.05408e-06
3.11036e-05
-2.02547e-07
1.84922e-07
3.09866e-05
1.52408e-06
-1.40705e-06
3.08997e-05
3.60757e-06
-3.52062e-06
3.08076e-05
5.52107e-06
-5.42899e-06
3.0912e-05
7.29862e-06
-7.40302e-06
3.11175e-05
9.13087e-06
-9.33643e-06
3.13599e-05
1.06221e-05
-1.08645e-05
3.16652e-05
1.20425e-05
-1.23478e-05
3.20751e-05
1.30853e-05
-1.34953e-05
3.24009e-05
1.39834e-05
-1.43092e-05
3.24692e-05
1.46799e-05
-1.47482e-05
3.2279e-05
1.48485e-05
-1.46583e-05
3.18516e-05
1.47613e-05
-1.43339e-05
3.1029e-05
1.43274e-05
-1.35048e-05
3.02734e-05
1.32352e-05
-1.24796e-05
2.9532e-05
1.22286e-05
-1.14871e-05
2.86562e-05
1.10042e-05
-1.01284e-05
2.80686e-05
9.2812e-06
-8.6936e-06
2.75773e-05
7.89331e-06
-7.40204e-06
2.70619e-05
6.4011e-06
-5.88571e-06
2.66288e-05
4.42854e-06
-3.99543e-06
2.64167e-05
2.86031e-06
-2.6482e-06
2.61251e-05
1.2902e-06
-9.98557e-07
2.59167e-05
-9.63604e-07
1.17192e-06
2.58296e-05
-2.51557e-06
2.60272e-06
2.57346e-05
-4.05245e-06
4.14743e-06
2.57065e-05
-6.06612e-06
6.09424e-06
2.5679e-05
-7.50317e-06
7.53064e-06
2.54409e-05
-8.94456e-06
9.18263e-06
2.50327e-05
-1.06667e-05
1.10749e-05
2.41615e-05
-1.16351e-05
1.25063e-05
2.30259e-05
-1.14307e-05
1.25663e-05
2.16208e-05
-1.13745e-05
1.27796e-05
2.03407e-05
-1.1014e-05
1.22941e-05
1.92286e-05
-8.97851e-06
1.00906e-05
1.8169e-05
-7.62956e-06
8.68918e-06
1.74721e-05
-7.40456e-06
8.10146e-06
1.73369e-05
-6.59802e-06
6.73323e-06
1.73567e-05
-5.4107e-06
5.39086e-06
1.72314e-05
-3.94587e-06
4.07121e-06
1.67484e-05
-4.02103e-06
4.50406e-06
1.66039e-05
-4.18471e-06
4.32916e-06
1.70854e-05
-2.6107e-06
2.12919e-06
1.805e-05
-4.4987e-07
-5.14736e-07
1.85347e-05
1.68044e-06
-2.16507e-06
1.91852e-05
3.01049e-06
-3.66099e-06
1.88184e-05
2.81713e-06
-2.45035e-06
1.91379e-05
2.57233e-07
-5.76737e-07
1.85081e-05
-3.89024e-06
4.51998e-06
1.86071e-05
-1.09336e-05
1.08346e-05
1.71042e-05
-1.66641e-05
1.81671e-05
1.69295e-05
-2.24368e-05
2.26115e-05
1.59284e-05
-2.64379e-05
2.7439e-05
1.50073e-05
-2.84466e-05
2.93677e-05
1.47834e-05
-2.96826e-05
2.99064e-05
1.4703e-05
-2.69624e-05
2.70428e-05
1.42378e-05
-2.23195e-05
2.27846e-05
1.47219e-05
-2.07942e-05
2.03101e-05
1.47073e-05
-1.71514e-05
1.7166e-05
1.52792e-05
-1.52222e-05
1.46503e-05
1.61047e-05
-1.24543e-05
1.16289e-05
1.67698e-05
-8.973e-06
8.30785e-06
1.73997e-05
-5.24672e-06
4.61685e-06
1.81993e-05
-2.39829e-07
-5.59786e-07
1.84467e-05
4.23605e-06
-4.48346e-06
1.89185e-05
7.57297e-06
-8.04469e-06
1.9799e-05
1.1671e-05
-1.25515e-05
2.05384e-05
1.58114e-05
-1.65508e-05
2.05874e-05
1.84072e-05
-1.84562e-05
2.12507e-05
2.01997e-05
-2.0863e-05
2.22733e-05
2.37591e-05
-2.47816e-05
2.29881e-05
2.76634e-05
-2.83783e-05
2.30921e-05
3.08539e-05
-3.09579e-05
2.23535e-05
3.24588e-05
-3.17202e-05
2.10051e-05
3.20473e-05
-3.0699e-05
1.96351e-05
3.02306e-05
-2.88605e-05
1.78314e-05
2.78806e-05
-2.6077e-05
1.59573e-05
2.48304e-05
-2.29562e-05
1.45105e-05
2.18237e-05
-2.03768e-05
1.30252e-05
1.88099e-05
-1.73247e-05
1.19336e-05
1.56529e-05
-1.45613e-05
1.09613e-05
1.3233e-05
-1.22606e-05
1.00762e-05
1.10312e-05
-1.01461e-05
9.27702e-06
8.97935e-06
-8.1802e-06
8.44266e-06
7.2879e-06
-6.45354e-06
7.96335e-06
5.50979e-06
-5.03048e-06
7.80579e-06
4.06947e-06
-3.91192e-06
7.54439e-06
3.17874e-06
-2.91734e-06
7.17612e-06
2.58062e-06
-2.21235e-06
7.03719e-06
1.26856e-06
-1.12962e-06
7.27394e-06
9.65103e-07
-1.20186e-06
8.26049e-06
3.02996e-07
-1.28954e-06
8.58631e-06
1.84199e-06
-2.16782e-06
9.08742e-06
1.11576e-06
-1.61686e-06
8.40361e-06
2.89819e-06
-2.21438e-06
8.9156e-06
1.69665e-06
-2.20863e-06
8.54648e-06
4.80789e-06
-4.43877e-06
9.62912e-06
3.57958e-06
-4.66221e-06
9.3118e-06
8.87308e-06
-8.55577e-06
1.2213e-05
6.74436e-06
-9.64559e-06
1.73279e-05
-1.69971e-05
1.18822e-05
1.25361e-05
9.21678e-08
1.28518e-05
1.47409e-07
1.3044e-05
2.0216e-08
1.32037e-05
-2.94002e-07
1.33195e-05
-4.62257e-07
1.34251e-05
-5.1697e-07
1.35146e-05
-4.29102e-07
1.35877e-05
-2.53279e-07
1.36804e-05
-1.12301e-07
1.37767e-05
1.70226e-08
1.3879e-05
1.0451e-07
1.39803e-05
1.24409e-07
1.40805e-05
1.25193e-07
1.4173e-05
9.92867e-08
1.42762e-05
2.51162e-08
1.43707e-05
-9.97016e-09
1.44775e-05
-7.5657e-08
1.45904e-05
-1.27383e-07
1.4681e-05
-1.42734e-07
1.48008e-05
-1.93035e-07
1.49192e-05
-1.75232e-07
1.50484e-05
-1.54217e-07
1.51949e-05
-1.44675e-07
1.53364e-05
-1.10573e-07
1.55029e-05
-1.07235e-07
1.57027e-05
-1.21517e-07
1.59137e-05
-1.2376e-07
1.61579e-05
-2.08097e-07
1.64063e-05
-3.07585e-07
1.6607e-05
-4.56636e-07
1.67533e-05
-6.85593e-07
1.68438e-05
-8.8279e-07
1.69013e-05
-1.06188e-06
1.69708e-05
-1.19634e-06
1.6978e-05
-1.2221e-06
1.69916e-05
-1.19188e-06
1.7095e-05
-1.10142e-06
1.72148e-05
-9.43322e-07
1.73809e-05
-8.39209e-07
1.75838e-05
-6.52544e-07
1.77923e-05
-4.73977e-07
1.79895e-05
-3.35086e-07
1.81406e-05
-2.96621e-07
1.82645e-05
-2.41768e-07
1.83379e-05
-1.81049e-07
1.85042e-05
-1.50387e-07
1.8638e-05
2.27977e-08
1.87255e-05
1.09323e-07
1.89096e-05
1.68444e-07
1.90407e-05
2.8829e-07
1.91668e-05
3.11721e-07
1.94305e-05
3.2022e-07
1.96443e-05
3.92424e-07
1.99095e-05
3.12199e-07
2.02646e-05
2.69136e-07
2.06296e-05
1.50758e-07
2.10482e-05
-2.23435e-08
2.1539e-05
-2.255e-07
2.20376e-05
-5.37071e-07
2.25317e-05
-8.48519e-07
2.30818e-05
-1.28852e-06
2.36051e-05
-1.7549e-06
2.41331e-05
-2.22162e-06
2.4771e-05
-2.82562e-06
2.53068e-05
-3.32074e-06
2.59592e-05
-3.95013e-06
2.66373e-05
-4.61018e-06
2.72973e-05
-5.06182e-06
2.80377e-05
-5.83537e-06
2.87285e-05
-6.36519e-06
2.94422e-05
-6.90235e-06
3.01336e-05
-7.61796e-06
3.06714e-05
-8.0051e-06
3.12372e-05
-8.62903e-06
3.16633e-05
-9.0296e-06
3.19292e-05
-9.41856e-06
3.21548e-05
-9.7639e-06
3.21874e-05
-9.87809e-06
3.20375e-05
-1.00473e-05
3.17927e-05
-9.97868e-06
3.15158e-05
-1.01423e-05
3.11049e-05
-9.95538e-06
3.06144e-05
-9.93458e-06
3.02465e-05
-9.97977e-06
2.97504e-05
-9.80284e-06
2.93662e-05
-9.83387e-06
2.91929e-05
-9.77188e-06
2.9059e-05
-9.98192e-06
2.90853e-05
-9.8341e-06
2.91873e-05
-9.93649e-06
2.94755e-05
-9.80354e-06
2.97471e-05
-9.59829e-06
3.01824e-05
-9.38626e-06
3.06468e-05
-8.67777e-06
3.1256e-05
-8.17817e-06
3.17695e-05
-6.99306e-06
3.21558e-05
-5.66979e-06
3.25055e-05
-4.15423e-06
3.26045e-05
-2.22249e-06
3.27779e-05
-3.75972e-07
3.26334e-05
1.66854e-06
3.24649e-05
3.77611e-06
3.22417e-05
5.74426e-06
3.19909e-05
7.54942e-06
3.18716e-05
9.25016e-06
3.18557e-05
1.0638e-05
3.18633e-05
1.20349e-05
3.19962e-05
1.29524e-05
3.23297e-05
1.36499e-05
3.26664e-05
1.43432e-05
3.29186e-05
1.45962e-05
3.30345e-05
1.46454e-05
3.27558e-05
1.46062e-05
3.22683e-05
1.37227e-05
3.17636e-05
1.27332e-05
3.10431e-05
1.17247e-05
3.04213e-05
9.90297e-06
2.98875e-05
8.4271e-06
2.94105e-05
6.87816e-06
2.89891e-05
4.84988e-06
2.86882e-05
3.16122e-06
2.84645e-05
1.51388e-06
2.82344e-05
-7.33505e-07
2.805e-05
-2.33118e-06
2.78227e-05
-3.82513e-06
2.76014e-05
-5.84483e-06
2.72572e-05
-7.15891e-06
2.66382e-05
-8.32564e-06
2.58204e-05
-9.84882e-06
2.46673e-05
-1.04821e-05
2.3289e-05
-1.00524e-05
2.17543e-05
-9.83982e-06
2.04966e-05
-9.75637e-06
1.95482e-05
-8.03012e-06
1.8723e-05
-6.8043e-06
1.8097e-05
-6.77859e-06
1.7992e-05
-6.49304e-06
1.80219e-05
-5.44063e-06
1.8084e-05
-4.00792e-06
1.75868e-05
-3.52388e-06
1.72914e-05
-3.88932e-06
1.76226e-05
-2.94184e-06
1.83821e-05
-1.20938e-06
1.91016e-05
9.609e-07
1.95786e-05
2.53351e-06
1.98187e-05
2.57709e-06
1.9798e-05
2.77871e-07
1.97957e-05
-3.88794e-06
1.92065e-05
-1.03443e-05
1.79288e-05
-1.53865e-05
1.76882e-05
-2.21963e-05
1.57549e-05
-2.45046e-05
1.50804e-05
-2.7772e-05
1.46233e-05
-2.92255e-05
1.39959e-05
-2.63351e-05
1.37018e-05
-2.20253e-05
1.38444e-05
-2.09368e-05
1.37037e-05
-1.70107e-05
1.40553e-05
-1.55739e-05
1.46575e-05
-1.30565e-05
1.53987e-05
-9.71425e-06
1.61035e-05
-5.95146e-06
1.71615e-05
-1.2979e-06
1.7526e-05
3.87154e-06
1.80336e-05
7.06539e-06
1.8891e-05
1.08136e-05
1.97816e-05
1.49208e-05
2.00142e-05
1.81746e-05
2.02688e-05
1.99451e-05
2.15274e-05
2.25005e-05
2.2601e-05
2.65898e-05
2.32523e-05
3.02027e-05
2.31076e-05
3.26034e-05
2.20658e-05
3.30891e-05
2.07377e-05
3.15587e-05
1.92822e-05
2.93361e-05
1.74972e-05
2.66153e-05
1.60008e-05
2.33202e-05
1.47392e-05
2.00714e-05
1.36413e-05
1.67508e-05
1.26969e-05
1.41774e-05
1.17494e-05
1.19787e-05
1.11584e-05
9.57033e-06
1.06774e-05
7.76889e-06
1.02467e-05
5.94049e-06
9.71073e-06
4.60546e-06
9.6556e-06
3.23387e-06
9.50112e-06
2.7351e-06
9.84025e-06
9.29429e-07
9.23082e-06
1.57453e-06
9.5304e-06
3.41992e-09
9.65105e-06
1.72134e-06
1.12416e-05
-4.74766e-07
1.12443e-05
2.89548e-06
1.21656e-05
7.75369e-07
1.09205e-05
6.05298e-06
1.29833e-05
1.51677e-06
1.15162e-05
1.03402e-05
1.64735e-05
1.78707e-06
1.59727e-05
1.78287e-05
1.90271e-05
3.21901e-08
1.93036e-05
-1.29125e-07
1.95939e-05
-2.70061e-07
1.97673e-05
-4.67371e-07
1.98388e-05
-5.33763e-07
1.98307e-05
-5.08848e-07
1.98507e-05
-4.4908e-07
1.98863e-05
-2.88956e-07
1.99516e-05
-1.77585e-07
2.00322e-05
-6.35926e-08
2.01022e-05
3.44881e-08
2.01769e-05
4.97641e-08
2.02279e-05
7.42272e-08
2.02769e-05
5.02046e-08
2.03246e-05
-2.25375e-08
2.03682e-05
-5.35305e-08
2.04358e-05
-1.43279e-07
2.05088e-05
-2.00362e-07
2.05824e-05
-2.16383e-07
2.06724e-05
-2.83057e-07
2.07649e-05
-2.67739e-07
2.08685e-05
-2.57774e-07
2.09894e-05
-2.65619e-07
2.11067e-05
-2.27865e-07
2.12404e-05
-2.40916e-07
2.13968e-05
-2.77897e-07
2.1549e-05
-2.7602e-07
2.17393e-05
-3.98312e-07
2.19094e-05
-4.77732e-07
2.20585e-05
-6.05676e-07
2.218e-05
-8.07131e-07
2.22456e-05
-9.48434e-07
2.23073e-05
-1.12358e-06
2.23312e-05
-1.22025e-06
2.23613e-05
-1.25214e-06
2.23993e-05
-1.22985e-06
2.24868e-05
-1.18897e-06
2.25958e-05
-1.05228e-06
2.26938e-05
-9.37216e-07
2.28549e-05
-8.13669e-07
2.30145e-05
-6.33571e-07
2.31843e-05
-5.0486e-07
2.33089e-05
-4.21302e-07
2.34146e-05
-3.47448e-07
2.34927e-05
-2.59099e-07
2.35726e-05
-2.30361e-07
2.37196e-05
-1.24129e-07
2.38072e-05
2.1746e-08
2.39162e-05
5.94078e-08
2.40669e-05
1.37588e-07
2.41704e-05
2.08256e-07
2.4342e-05
1.48544e-07
2.45573e-05
1.77146e-07
2.47527e-05
1.16846e-07
2.50308e-05
-8.95118e-09
2.53377e-05
-1.56166e-07
2.56635e-05
-3.48197e-07
2.60411e-05
-6.03057e-07
2.64546e-05
-9.50603e-07
2.68898e-05
-1.28367e-06
2.73582e-05
-1.75695e-06
2.78483e-05
-2.24499e-06
2.833e-05
-2.70333e-06
2.88634e-05
-3.35903e-06
2.94008e-05
-3.85813e-06
2.99116e-05
-4.46095e-06
3.04352e-05
-5.13378e-06
3.09634e-05
-5.58996e-06
3.14144e-05
-6.28639e-06
3.18221e-05
-6.77291e-06
3.21971e-05
-7.27732e-06
3.24642e-05
-7.88507e-06
3.26541e-05
-8.19501e-06
3.27553e-05
-8.73025e-06
3.27567e-05
-9.03095e-06
3.26179e-05
-9.27982e-06
3.24122e-05
-9.55817e-06
3.21457e-05
-9.6116e-06
3.17224e-05
-9.62394e-06
3.13667e-05
-9.62298e-06
3.09417e-05
-9.71736e-06
3.05394e-05
-9.55308e-06
3.01836e-05
-9.57877e-06
2.98391e-05
-9.63534e-06
2.95267e-05
-9.49043e-06
2.9362e-05
-9.66908e-06
2.93349e-05
-9.74486e-06
2.92609e-05
-9.90784e-06
2.94031e-05
-9.97637e-06
2.95522e-05
-1.00856e-05
2.98544e-05
-1.01058e-05
3.02074e-05
-9.95122e-06
3.07823e-05
-9.96122e-06
3.13696e-05
-9.26505e-06
3.19427e-05
-8.75127e-06
3.24353e-05
-7.48572e-06
3.28046e-05
-6.03902e-06
3.32055e-05
-4.55518e-06
3.34148e-05
-2.43178e-06
3.36754e-05
-6.36513e-07
3.36865e-05
1.65741e-06
3.36227e-05
3.83989e-06
3.35215e-05
5.84549e-06
3.3198e-05
7.87287e-06
3.29059e-05
9.54229e-06
3.26173e-05
1.09266e-05
3.24142e-05
1.22381e-05
3.22081e-05
1.31585e-05
3.21442e-05
1.37138e-05
3.22461e-05
1.42413e-05
3.25168e-05
1.43255e-05
3.28682e-05
1.42941e-05
3.30924e-05
1.43819e-05
3.30946e-05
1.37205e-05
3.29556e-05
1.28722e-05
3.26252e-05
1.20552e-05
3.22332e-05
1.02949e-05
3.1798e-05
8.86233e-06
3.13829e-05
7.29331e-06
3.10586e-05
5.17415e-06
3.0677e-05
3.54281e-06
3.03788e-05
1.81214e-06
3.00633e-05
-4.18049e-07
2.96613e-05
-1.92921e-06
2.91693e-05
-3.33304e-06
2.86778e-05
-5.35337e-06
2.79894e-05
-6.47047e-06
2.70411e-05
-7.37743e-06
2.58819e-05
-8.68957e-06
2.4543e-05
-9.14321e-06
2.30732e-05
-8.58247e-06
2.16256e-05
-8.39224e-06
2.05259e-05
-8.65669e-06
1.98687e-05
-7.37293e-06
1.92606e-05
-6.19618e-06
1.88305e-05
-6.34845e-06
1.86801e-05
-6.34267e-06
1.86984e-05
-5.45894e-06
1.87728e-05
-4.08231e-06
1.84132e-05
-3.16431e-06
1.79403e-05
-3.41641e-06
1.81315e-05
-3.13304e-06
1.85654e-05
-1.64328e-06
1.93555e-05
1.7078e-07
1.97083e-05
2.18074e-06
2.02057e-05
2.07971e-06
2.00403e-05
4.43231e-07
2.03492e-05
-4.19682e-06
1.92499e-05
-9.24512e-06
1.86527e-05
-1.47893e-05
1.72397e-05
-2.07832e-05
1.5702e-05
-2.29669e-05
1.51315e-05
-2.72015e-05
1.3744e-05
-2.7838e-05
1.32866e-05
-2.58777e-05
1.29981e-05
-2.17368e-05
1.27676e-05
-2.07063e-05
1.27012e-05
-1.69443e-05
1.26316e-05
-1.55043e-05
1.32672e-05
-1.36921e-05
1.3787e-05
-1.0234e-05
1.47413e-05
-6.90583e-06
1.58245e-05
-2.3811e-06
1.66816e-05
3.01447e-06
1.70209e-05
6.72609e-06
1.7976e-05
9.85861e-06
1.8824e-05
1.40727e-05
1.9637e-05
1.73616e-05
1.98102e-05
1.97719e-05
2.06656e-05
2.16451e-05
2.20648e-05
2.51905e-05
2.30303e-05
2.92373e-05
2.35737e-05
3.20599e-05
2.32302e-05
3.34326e-05
2.20518e-05
3.27371e-05
2.09112e-05
3.04767e-05
1.94396e-05
2.80869e-05
1.79289e-05
2.48308e-05
1.67765e-05
2.12238e-05
1.54209e-05
1.81064e-05
1.44231e-05
1.51752e-05
1.36717e-05
1.27302e-05
1.31978e-05
1.00442e-05
1.26681e-05
8.29851e-06
1.27533e-05
5.85532e-06
1.23641e-05
4.99465e-06
1.25214e-05
3.07663e-06
1.20174e-05
3.23905e-06
1.25799e-05
3.66932e-07
1.23095e-05
1.845e-06
1.30609e-05
-7.48076e-07
1.24444e-05
2.3379e-06
1.3669e-05
-1.69937e-06
1.31167e-05
3.44782e-06
1.56733e-05
-1.78128e-06
1.4466e-05
7.2603e-06
1.71186e-05
-1.13585e-06
1.62235e-05
1.12353e-05
1.69651e-05
1.04538e-06
1.25147e-05
2.04232e-05
2.4382e-05
-1.87762e-07
2.48901e-05
-6.37248e-07
2.53241e-05
-7.04067e-07
2.55058e-05
-6.49043e-07
2.55298e-05
-5.57762e-07
2.55012e-05
-4.80224e-07
2.54445e-05
-3.92429e-07
2.5417e-05
-2.61388e-07
2.54315e-05
-1.92089e-07
2.54639e-05
-9.59783e-08
2.55084e-05
-1.00303e-08
2.55616e-05
-3.48197e-09
2.5594e-05
4.18261e-08
2.56319e-05
1.23301e-08
2.56762e-05
-6.68014e-08
2.56818e-05
-5.91592e-08
2.57296e-05
-1.91085e-07
2.57576e-05
-2.28412e-07
2.57969e-05
-2.55678e-07
2.58732e-05
-3.59353e-07
2.5932e-05
-3.26484e-07
2.60248e-05
-3.50602e-07
2.61304e-05
-3.71227e-07
2.62309e-05
-3.28307e-07
2.63369e-05
-3.46981e-07
2.64644e-05
-4.05324e-07
2.65606e-05
-3.72247e-07
2.66889e-05
-5.2664e-07
2.68101e-05
-5.98915e-07
2.68813e-05
-6.76921e-07
2.69768e-05
-9.02545e-07
2.69948e-05
-9.66496e-07
2.70116e-05
-1.14039e-06
2.70109e-05
-1.21951e-06
2.70073e-05
-1.24859e-06
2.70349e-05
-1.25739e-06
2.70543e-05
-1.20842e-06
2.7113e-05
-1.11098e-06
2.71565e-05
-9.80704e-07
2.7247e-05
-9.04119e-07
2.73477e-05
-7.34354e-07
2.74516e-05
-6.08696e-07
2.75652e-05
-5.34961e-07
2.76293e-05
-4.11479e-07
2.77125e-05
-3.42315e-07
2.77724e-05
-2.90312e-07
2.78651e-05
-2.16754e-07
2.79896e-05
-1.02775e-07
2.80795e-05
-3.04948e-08
2.82102e-05
6.83385e-09
2.83462e-05
7.22467e-08
2.84764e-05
1.84236e-08
2.86771e-05
-2.35422e-08
2.88736e-05
-7.97534e-08
2.91262e-05
-2.61473e-07
2.93761e-05
-4.06051e-07
2.96697e-05
-6.41851e-07
2.99768e-05
-9.10157e-07
3.02988e-05
-1.27257e-06
3.06609e-05
-1.64578e-06
3.099e-05
-2.08608e-06
3.13567e-05
-2.61163e-06
3.17208e-05
-3.06741e-06
3.20358e-05
-3.67407e-06
3.24006e-05
-4.22297e-06
3.26878e-05
-4.7481e-06
3.29387e-05
-5.3847e-06
3.31894e-05
-5.84066e-06
3.33232e-05
-6.42017e-06
3.34139e-05
-6.86366e-06
3.34255e-05
-7.28885e-06
3.33335e-05
-7.79306e-06
3.31858e-05
-8.04735e-06
3.29547e-05
-8.49911e-06
3.27005e-05
-8.77679e-06
3.23312e-05
-8.9105e-06
3.19339e-05
-9.16092e-06
3.15282e-05
-9.20587e-06
3.11475e-05
-9.24322e-06
3.08748e-05
-9.35033e-06
3.0498e-05
-9.34055e-06
3.0257e-05
-9.31206e-06
3.00006e-05
-9.3224e-06
2.97422e-05
-9.37686e-06
2.96575e-05
-9.40575e-06
2.95828e-05
-9.59443e-06
2.95813e-05
-9.74334e-06
2.95036e-05
-9.83013e-06
2.95538e-05
-1.00266e-05
2.96798e-05
-1.02116e-05
2.99303e-05
-1.03562e-05
3.03846e-05
-1.04056e-05
3.08623e-05
-1.04389e-05
3.13789e-05
-9.78166e-06
3.1842e-05
-9.21431e-06
3.22522e-05
-7.89597e-06
3.26479e-05
-6.43469e-06
3.30388e-05
-4.9461e-06
3.33065e-05
-2.69945e-06
3.36253e-05
-9.55343e-07
3.38328e-05
1.44996e-06
3.39064e-05
3.76623e-06
3.404e-05
5.71191e-06