/*--------------------------------*- C++ -*----------------------------------*\
| =========                 |                                                 |
| \\      /  F ield         | OpenFOAM: The Open Source CFD Toolbox           |
|  \\    /   O peration     | Version:  2.4.0                                 |
|   \\  /    A nd           | Web:      www.OpenFOAM.org                      |
|    \\/     M anipulation  |                                                 |
\*---------------------------------------------------------------------------*/
FoamFile
{
    version     2.0;
    format      ascii;
    class       volScalarField;
    location    "0.33";
    object      pMean;
}
// * * * * * * * * * * * * * * * * * * * * * * * * * * * * * * * * * * * * * //

dimensions      [0 2 -2 0 0 0 0];

internalField   nonuniform List<scalar> 
8800
(
97.9825
85.446
77.9007
74.2371
72.2104
70.6684
69.3185
68.0547
66.8754
65.727
64.6208
63.5178
62.4513
61.393
60.3806
59.3934
58.4519
57.5506
56.6621
55.6292
94.887
85.0927
78.068
74.35
72.2694
70.6935
69.3258
68.055
66.8734
65.7244
64.6182
63.5155
62.4491
61.3908
60.3794
59.3902
58.455
57.5499
56.6693
55.6916
92.9315
85.1663
78.6646
74.7217
72.4352
70.7715
69.3716
68.0867
66.8966
65.7409
64.6279
63.5202
62.4503
61.3889
60.3771
59.3826
58.4547
57.5413
56.7406
55.7672
91.4031
85.2248
79.2464
75.1406
72.6172
70.8577
69.4337
68.1422
66.9444
65.7786
64.6543
63.5374
62.4602
61.3928
60.3766
59.3757
58.4433
57.5319
56.7857
55.9939
90.1601
85.1957
79.7191
75.5424
72.7846
70.9241
69.4821
68.1989
66.9999
65.8288
64.6894
63.5641
62.4732
61.4022
60.3736
59.3724
58.4198
57.5161
56.7238
56.3437
89.1804
85.0984
80.0834
75.8864
72.9354
70.9683
69.5106
68.2441
67.0499
65.8778
64.7252
63.5918
62.4859
61.4108
60.3697
59.3671
58.3988
57.5058
56.7488
56.7884
88.4276
84.9846
80.3502
76.165
73.0726
70.997
69.5209
68.2771
67.0909
65.9189
64.757
63.6148
62.4978
61.4157
60.367
59.3592
58.3899
57.5125
56.8433
57.1146
87.8801
84.8838
80.5327
76.3753
73.1951
71.0159
69.5198
68.2992
67.122
65.9506
64.782
63.6323
62.5068
61.4185
60.3657
59.3562
58.3926
57.5356
56.9408
57.3568
87.525
84.8086
80.6469
76.5172
73.2814
71.0276
69.5158
68.3119
67.1433
65.9726
64.7996
63.6439
62.5132
61.4207
60.3667
59.3588
58.404
57.5656
57.0286
57.5365
87.3512
84.7676
80.7026
76.5887
73.3253
71.0332
69.5133
68.3176
67.1548
65.9844
64.8093
63.6503
62.5177
61.4243
60.3717
59.3671
58.4212
57.5979
57.1012
57.6665
87.3507
84.7681
80.7025
76.5889
73.3251
71.0335
69.5132
68.318
67.1551
65.9852
64.8103
63.6521
62.5206
61.4293
60.3799
59.3805
58.4415
57.6311
57.1536
57.7524
87.5242
84.8097
80.6469
76.5177
73.2816
71.0279
69.516
68.3127
67.1448
65.975
64.8031
63.6493
62.5219
61.4357
60.3915
59.3981
58.4655
57.6634
57.1871
57.7943
87.8787
84.8857
80.5326
76.3761
73.1958
71.0166
69.52
68.3005
67.1243
65.9548
64.7879
63.6413
62.5212
61.443
60.406
59.4209
58.4946
57.6974
57.2008
57.7828
88.4254
84.9873
80.3496
76.1659
73.0731
70.9984
69.5209
68.2794
67.094
65.9248
64.7651
63.6277
62.5178
61.4502
60.4221
59.4486
58.5302
57.7382
57.2001
57.7
89.1781
85.1013
80.0832
75.8871
72.9359
70.9696
69.5116
68.2466
67.0541
65.8848
64.736
63.608
62.5122
61.4538
60.439
59.4777
58.5744
57.7879
57.2121
57.5355
90.1571
85.1994
79.7191
75.5431
72.7848
70.9256
69.4838
68.2019
67.0049
65.8368
64.7025
63.5839
62.5049
61.4538
60.4556
59.5043
58.6253
57.8465
57.2526
57.3089
91.3993
85.2289
79.2468
75.1418
72.6172
70.8595
69.4355
68.1462
66.95
65.7879
64.6692
63.5604
62.4972
61.4514
60.47
59.5252
58.6746
57.9016
57.3192
57.0642
92.9279
85.1698
78.6658
74.723
72.4354
70.7732
69.374
68.0909
66.9033
65.7507
64.6449
63.5446
62.4921
61.4512
60.4808
59.5411
58.7101
57.9438
57.3814
56.9324
94.8835
85.0956
78.0696
74.3514
72.2698
70.6952
69.3283
68.0595
66.8804
65.7347
64.6359
63.5411
62.4927
61.4552
60.488
59.5525
58.7273
57.9683
57.3851
56.8594
97.9793
85.4487
77.9023
74.2386
72.2108
70.67
69.3211
68.0593
66.8823
65.7375
64.6386
63.5437
62.4954
61.4578
60.4914
59.5564
58.7314
57.9753
57.3886
56.9757
55.2084
54.7803
54.031
53.2609
52.6007
52.0619
51.6406
51.3092
51.0367
50.8262
50.6622
50.5275
50.4098
50.3071
50.2098
50.1154
50.0106
49.8839
49.7355
49.5668
49.3972
49.2685
49.1921
49.1658
49.1791
49.2106
49.2362
49.2305
49.1687
49.0343
48.835
48.5984
48.3648
48.1773
48.0559
48.007
48.0157
48.0525
48.0958
48.143
48.1959
48.2594
48.3479
48.4732
48.6421
48.8506
49.0925
49.3588
49.6398
49.9226
50.1943
50.4419
50.6568
50.8373
50.9858
51.1115
51.2299
51.3535
51.488
51.6344
51.7889
51.9483
52.1069
52.2617
52.4103
52.5552
52.6973
52.8431
52.9993
53.1653
53.3392
53.5209
53.7083
53.9027
54.0979
54.2897
54.4713
54.6338
54.775
54.8916
54.9925
55.0845
55.1815
55.2863
55.409
55.5462
55.697
55.8567
56.0188
56.1805
56.3465
56.5301
56.7372
56.9642
57.2098
57.4693
57.7401
58.0132
58.2888
58.5627
58.825
59.077
59.2935
59.4651
59.6133
59.7488
59.8792
60.0097
60.1488
60.2936
60.4497
60.6137
60.7788
60.9371
61.0791
61.2081
61.3204
61.4191
61.502
61.5629
61.6042
61.6203
61.6091
61.5731
61.5148
61.4428
61.3649
61.2841
61.2146
61.1556
61.1139
61.0858
61.0739
61.0815
61.1149
61.1702
61.2496
61.3467
61.4486
61.5609
61.6674
61.7793
61.8866
62.0076
62.1367
62.2934
62.466
62.6629
62.8734
63.0926
63.3041
63.5018
63.6884
63.8588
64.0224
64.172
64.3268
64.4525
64.5909
64.693
64.8011
64.8681
64.9322
64.9588
64.9747
64.9477
64.9185
64.8393
64.7808
64.662
64.6055
64.4811
64.4445
64.3378
64.3614
64.2946
64.4074
64.4134
64.6132
64.6974
64.9583
65.0903
65.373
65.5282
65.7864
65.9298
66.1246
66.2071
66.3131
66.2681
66.2246
65.9654
65.644
64.9484
64.0449
62.4791
60.2787
56.0197
50.9808
28.463
55.1156
54.7903
54.2497
53.5502
52.8749
52.3229
51.909
51.6072
51.3774
51.1955
51.047
50.9194
50.8061
50.7054
50.6106
50.516
50.4132
50.2973
50.1676
50.0269
49.8862
49.7737
49.7032
49.6743
49.6772
49.6931
49.7009
49.6822
49.621
49.5076
49.3439
49.1485
48.9501
48.7806
48.6601
48.595
48.5779
48.5947
48.6285
48.6702
48.7177
48.7771
48.859
48.9733
49.1251
49.3131
49.5313
49.771
50.0228
50.2747
50.5159
50.7376
50.9322
51.0982
51.237
51.355
51.4609
51.5656
51.6743
51.7903
51.912
52.0372
52.1619
52.2833
52.3984
52.5107
52.6185
52.7268
52.8406
52.9638
53.0957
53.2362
53.3867
53.5476
53.7097
53.8693
54.0122
54.1335
54.2265
54.294
54.344
54.3868
54.435
54.495
54.5751
54.6708
54.784
54.9082
55.037
55.1673
55.3124
55.4844
55.688
55.9176
56.1764
56.4595
56.764
57.0774
57.4034
57.7328
58.0572
58.3714
58.6441
58.8672
59.0701
59.259
59.4442
59.6299
59.8228
60.0194
60.2273
60.4354
60.6401
60.823
60.985
61.122
61.2366
61.3304
61.4036
61.4509
61.4754
61.4698
61.4375
61.3773
61.302
61.2157
61.1269
61.0347
60.9563
60.8855
60.8361
60.8013
60.7914
60.8003
60.8437
60.9062
61.0045
61.1175
61.2445
61.3729
61.5055
61.6334
61.7654
61.8987
62.0477
62.2113
62.3966
62.5929
62.8105
63.022
63.235
63.4189
63.6099
63.7638
63.9373
64.0707
64.2369
64.3488
64.5003
64.588
64.7045
64.7615
64.833
64.8459
64.8713
64.8244
64.8083
64.7012
64.6519
64.4969
64.436
64.2573
64.2091
64.0366
64.0273
63.889
63.9464
63.8784
64.0208
64.0341
64.2348
64.3083
64.5318
64.6349
64.8426
64.9255
65.0827
65.075
65.1373
64.9567
64.8106
64.3355
63.8195
62.7812
61.5417
59.1444
56.7493
49.7127
43.5476
22.6528
55.1813
54.9302
54.5379
53.9148
53.2058
52.5936
52.1509
51.8629
51.6735
51.533
51.412
51.2989
51.1917
51.0908
50.9946
50.8978
50.797
50.6894
50.5743
50.4554
50.3406
50.2459
50.1824
50.1507
50.1439
50.1484
50.148
50.1279
50.0764
49.9862
49.8588
49.7045
49.5441
49.3998
49.2887
49.2177
49.1851
49.1854
49.2089
49.2471
49.2948
49.3551
49.4339
49.5407
49.6784
49.8471
50.0401
50.2504
50.4683
50.6852
50.8911
51.0796
51.2458
51.3879
51.5065
51.6062
51.6923
51.7732
51.8537
51.9376
52.0245
52.1147
52.2055
52.2951
52.3818
52.4665
52.5492
52.6302
52.7112
52.7986
52.8957
53.002
53.1208
53.2505
53.3839
53.5111
53.6171
53.6979
53.7442
53.7651
53.7675
53.7661
53.7689
53.7874
53.8254
53.8804
53.9549
54.0394
54.1277
54.2208
54.3376
54.4901
54.6821
54.9117
55.1847
55.4957
55.8368
56.1965
56.5773
56.9645
57.353
57.7296
58.065
58.349
58.6205
58.8734
59.1226
59.3692
59.624
59.8824
60.1513
60.4135
60.6628
60.8763
61.0602
61.2075
61.3263
61.4135
61.4748
61.5062
61.5131
61.4816
61.4263
61.3426
61.2559
61.1577
61.0613
60.9593
60.8752
60.7942
60.7435
60.7029
60.7006
60.716
60.7767
60.8522
60.9721
61.0969
61.2435
61.385
61.5377
61.6852
61.8431
61.9958
62.1686
62.3458
62.5426
62.7457
62.9615
63.1621
63.3618
63.5313
63.716
63.8629
64.0399
64.1669
64.3314
64.4356
64.5815
64.662
64.7685
64.8232
64.8922
64.8908
64.9161
64.8504
64.8365
64.7068
64.6565
64.4739
64.4005
64.1685
64.1004
63.8582
63.8184
63.6037
63.6184
63.4693
63.5476
63.4848
63.6119
63.6076
63.7662
63.7878
63.9408
63.9405
64.0415
63.9427
63.919
63.6153
63.3429
62.6298
62.0003
60.3574
59.3198
55.425
53.4787
44.7322
37.2102
23.0016
55.4496
55.1794
54.7059
54.0197
53.2952
52.7027
52.3049
52.0794
51.9607
51.8844
51.8121
51.7286
51.6342
51.5338
51.4316
51.3291
51.227
51.125
51.0232
50.9231
50.8296
50.7512
50.6958
50.6645
50.6525
50.6503
50.6465
50.6296
50.5909
50.5245
50.4307
50.3153
50.191
50.0721
49.9729
49.9014
49.8611
49.8501
49.8648
49.8985
49.9469
50.0079
50.0849
50.1815
50.3013
50.4433
50.604
50.7765
50.9529
51.1263
51.2904
51.4404
51.573
51.6858
51.7792
51.8557
51.9199
51.9766
52.0311
52.0863
52.1435
52.2032
52.2642
52.326
52.3874
52.4495
52.5104
52.5694
52.6258
52.6852
52.7542
52.8333
52.9267
53.03
53.1362
53.2297
53.3008
53.3417
53.3482
53.3291
53.2911
53.2503
53.2111
53.1883
53.183
53.1956
53.2249
53.2585
53.2939
53.3403
53.4239
53.5542
53.7369
53.9688
54.2615
54.6004
54.9842
55.3916
55.8345
56.2809
56.7373
57.1751
57.5786
57.925
58.2689
58.5894
58.9095
59.2221
59.5482
59.8725
60.2102
60.5285
60.8273
61.074
61.2846
61.4423
61.5693
61.6497
61.7058
61.7184
61.7045
61.6396
61.5637
61.4559
61.3625
61.2521
61.1502
61.0383
60.9527
60.8655
60.8195
60.7812
60.7921
60.8225
60.9063
61.0039
61.147
61.2851
61.45
61.6008
61.7731
61.9321
62.1176
62.2894
62.4927
62.6845
62.9037
63.1036
63.3238
63.4971
63.6913
63.8331
64.0204
64.1506
64.3345
64.4502
64.6155
64.7021
64.8449
64.9001
65.0041
65.0276
65.1058
65.0641
65.1097
65.0028
65.0096
64.8386
64.7994
64.5672
64.4911
64.2009
64.1154
63.8066
63.7291
63.4546
63.4008
63.1964
63.1867
63.0548
63.0941
63.0154
63.0875
63.0299
63.1068
63.0098
63.0625
62.806
62.8085
62.19
62.1106
60.7379
60.558
57.7639
57.1628
52.0897
49.4977
41.4897
32.9673
23.6777
56.8623
56.3307
55.0022
53.8397
53.0201
52.5371
52.3099
52.2376
52.2356
52.2459
52.2355
52.1923
52.1183
52.0233
51.9181
51.8111
51.7073
51.6094
51.5176
51.4334
51.3585
51.2968
51.2521
51.2254
51.2132
51.2093
51.2054
51.1933
51.1665
51.1207
51.0547
50.9717
50.8789
50.7861
50.7037
50.6397
50.598
50.5802
50.5853
50.6097
50.65
50.7026
50.7677
50.8461
50.9394
51.0466
51.1661
51.2938
51.4252
51.5549
51.6782
51.7906
51.8893
51.9725
52.0398
52.0933
52.1362
52.1722
52.2048
52.2366
52.269
52.3026
52.3386
52.3764
52.4165
52.4578
52.4999
52.5424
52.5834
52.627
52.6791
52.7437
52.8205
52.9033
52.9811
53.0416
53.0783
53.0844
53.0598
53.0097
52.94
52.8623
52.7845
52.7177
52.6645
52.6245
52.5971
52.5697
52.5444
52.5389
52.5853
52.6906
52.8669
53.107
53.4261
53.7993
54.2277
54.6926
55.1972
55.7071
56.2336
56.7335
57.2058
57.6184
58.0375
58.4282
58.8198
59.2033
59.5982
59.9891
60.393
60.767
61.1152
61.3948
61.6329
61.8052
61.9438
62.0221
62.0736
62.0632
62.0298
61.939
61.8504
61.7267
61.6275
61.5047
61.4001
61.2811
61.1978
61.108
61.0723
61.0406
61.0695
61.1154
61.2271
61.3446
61.5187
61.6668
61.8589
62.0126
62.2126
62.3728
62.59
62.7753
63.0198
63.2171
63.4733
63.6535
63.8865
64.016
64.2166
64.3149
64.5218
64.6137
64.8161
64.8989
65.0758
65.1248
65.2745
65.2806
65.4016
65.3643
65.4632
65.3574
65.4334
65.2707
65.3051
65.0817
65.059
64.7698
64.6977
64.3518
64.2512
63.8862
63.7691
63.4284
63.3275
63.0247
62.9708
62.7143
62.7247
62.4919
62.5676
62.2946
62.4491
62.0275
62.2746
61.5404
61.8769
60.6156
60.869
58.8304
58.6624
55.463
54.1176
49.4423
45.4326
39.4708
31.2327
24.5103
57.8487
57.2138
55.377
53.8398
52.8547
52.3911
52.2889
52.3656
52.4932
52.6024
52.6634
52.6676
52.6213
52.5385
52.4351
52.3251
52.2181
52.1206
52.035
51.962
51.9018
51.8552
51.8228
51.8041
51.7962
51.7941
51.7925
51.7852
51.7678
51.7373
51.6925
51.6349
51.5682
51.499
51.4339
51.3794
51.3392
51.3163
51.3106
51.3214
51.3459
51.3817
51.4265
51.4805
51.5433
51.6149
51.6941
51.779
51.8665
51.9536
52.0367
52.1121
52.1774
52.2312
52.2734
52.3055
52.3294
52.3475
52.3612
52.3729
52.3843
52.3984
52.4155
52.4362
52.4609
52.488
52.5181
52.5506
52.5852
52.6238
52.6738
52.7376
52.8081
52.8752
52.9287
52.9616
52.9684
52.946
52.896
52.8213
52.7227
52.6102
52.4904
52.3732
52.2639
52.1666
52.0802
51.9933
51.9081
51.8437
51.8534
51.9366
52.1059
52.3596
52.7101
53.1238
53.5958
54.1199
54.6852
55.2605
55.8531
56.4228
56.9632
57.4472
57.9385
58.3946
58.8578
59.3086
59.7701
60.2271
60.6963
61.1214
61.5116
61.8172
62.0811
62.268
62.4183
62.4931
62.5375
62.51
62.4677
62.3673
62.2796
62.1496
62.0506
61.916
61.8108
61.6866
61.6115
61.523
61.5011
61.4707
61.5218
61.5817
61.7245
61.8635
62.073
62.2341
62.4565
62.6186
62.8417
63.0068
63.2548
63.4428
63.733
63.9289
64.2202
64.3768
64.6152
64.6973
64.8992
64.9473
65.1673
65.2087
65.4325
65.4621
65.6608
65.6477
65.8255
65.7501
65.9145
65.7857
65.9239
65.7284
65.8498
65.5985
65.6879
65.3703
65.4124
65.0288
65.0125
64.5683
64.5083
64.0269
63.9433
63.4432
63.3841
62.8839
62.887
62.4022
62.4912
61.9982
62.1652
61.5986
61.8545
61.1261
61.4331
60.4319
60.66
59.2757
59.0952
57.1656
56.1928
53.4169
51.1786
47.4848
42.9211
38.6919
31.6164
25.9
58.4925
57.8683
55.8033
54.0284
52.8857
52.3671
52.3116
52.4896
52.7264
52.9298
53.0643
53.1219
53.1094
53.0426
52.9427
52.8291
52.717
52.6167
52.5331
52.4671
52.4182
52.3847
52.3649
52.3568
52.3567
52.3607
52.3645
52.3638
52.3554
52.3369
52.3068
52.2664
52.218
52.1654
52.1135
52.0668
52.0291
52.0024
51.9873
51.9836
51.9904
52.0055
52.0272
52.0549
52.0877
52.1256
52.1684
52.2153
52.2641
52.3126
52.3582
52.3985
52.4326
52.4594
52.4793
52.4928
52.5007
52.5037
52.5035
52.5013
52.4998
52.5011
52.5056
52.5148
52.5287
52.5465
52.5683
52.5957
52.6313
52.6778
52.7376
52.8084
52.8827
52.9409
52.9765
52.9862
52.9707
52.93
52.861
52.7618
52.6357
52.4894
52.3262
52.1543
51.9898
51.839
51.699
51.5529
51.4089
51.2865
51.2545
51.3193
51.4919
51.7689
52.1557
52.6118
53.1344
53.7171
54.3374
54.9815
55.6373
56.2717
56.8752
57.4364
57.9815
58.4926
59.0186
59.5289
60.0561
60.578
61.1117
61.5893
62.0139
62.3415
62.6223
62.8126
62.9677
63.0432
63.0801
63.0512
63.0094
62.918
62.8414
62.7162
62.6221
62.483
62.3794
62.2588
62.1938
62.1127
62.1009
62.0784
62.1461
62.2229
62.393
62.5567
62.7982
62.9851
63.2372
63.416
63.656
63.8329
64.1019
64.3049
64.618
64.8224
65.1258
65.2614
65.4809
65.5263
65.7181
65.7267
65.9327
65.928
66.1367
66.1261
66.3134
66.2578
66.4369
66.3088
66.4843
66.2987
66.4232
66.1729
66.2897
65.9906
66.0881
65.7256
65.7738
65.3584
65.3354
64.8573
64.7726
64.2376
64.1102
63.5393
63.4092
62.8335
62.7418
62.1705
62.1386
61.5605
61.569
60.9463
60.9733
60.2364
60.2142
59.3067
59.078
57.8813
57.2593
55.4564
54.2064
51.7335
49.2889
46.5613
42.3718
39.0562
33.209
27.9163
58.8964
58.3197
56.187
54.2944
53.0527
52.4646
52.4045
52.6349
52.948
53.2261
53.4234
53.5299
53.5506
53.5023
53.409
53.2953
53.1803
53.0779
52.9951
52.934
52.8939
52.8717
52.8639
52.867
52.8766
52.8889
52.9002
52.9068
52.9066
52.8977
52.8791
52.8514
52.8162
52.7756
52.7333
52.6922
52.6555
52.6245
52.5998
52.5815
52.57
52.5637
52.5621
52.5644
52.57
52.5787
52.5904
52.6045
52.6196
52.6345
52.6481
52.6596
52.6683
52.6741
52.6767
52.6766
52.6737
52.668
52.6603
52.6514
52.6421
52.6339
52.6286
52.6287
52.6348
52.6486
52.6707
52.7026
52.7466
52.8067
52.8791
52.9606
53.0382
53.092
53.1148
53.1091
53.0781
53.0274
52.9481
52.8299
52.6779
52.4963
52.2864
52.0595
51.8439
51.6386
51.4552
51.2573
51.0612
50.8939
50.8283
50.8832
51.067
51.375
51.7932
52.2912
52.8649
53.5011
54.1832
54.8915
55.6142
56.3171
56.9752
57.5938
58.1745
58.7406
59.315
59.8738
60.4556
61.0346
61.6246
62.1538
62.6114
62.9572
63.2387
63.4359
63.5925
63.6732
63.7125
63.6975
63.6733
63.6083
63.5486
63.4394
63.351
63.2173
63.1215
63.0142
62.9624
62.8908
62.8901
62.8765
62.9525
63.0507
63.2428
63.4257
63.6973
63.9087
64.192
64.3886
64.6421
64.8328
65.1178
65.3353
65.6682
65.8829
66.1861
66.2993
66.4873
66.4921
66.6655
66.6564
66.8284
66.7993
66.9586
66.9064
67.0564
66.9688
67.1188
66.9654
67.1074
66.9081
66.9925
66.7131
66.8069
66.4817
66.5401
66.1797
66.1767
65.7699
65.6893
65.2186
65.0676
64.5289
64.3168
63.7242
63.4795
62.8727
62.6219
62.0227
61.7948
61.1944
60.9753
60.3465
60.1133
59.3997
59.0963
58.2705
57.8211
56.6773
55.9494
54.1846
52.8947
50.8251
48.4857
46.4309
42.8287
39.8347
34.9618
30.0241
59.1623
58.6312
56.5009
54.5628
53.2697
52.6317
52.5532
52.8075
53.17
53.5031
53.7497
53.8976
53.9495
53.9205
53.8366
53.7258
53.6112
53.5088
53.4274
53.3702
53.3367
53.3232
53.3253
53.3382
53.3571
53.3779
53.397
53.4112
53.4186
53.4177
53.4078
53.3894
53.3634
53.3316
53.2959
53.2585
53.2208
53.1844
53.1498
53.1179
53.0889
53.0625
53.0387
53.0176
52.9988
52.9815
52.9656
52.9508
52.9372
52.9248
52.9137
52.9034
52.894
52.8856
52.8777
52.8704
52.8625
52.8533
52.8423
52.8303
52.8182
52.8068
52.7981
52.7953
52.8025
52.8212
52.8527
52.8968
52.9541
53.0276
53.1135
53.203
53.2791
53.3277
53.3404
53.3219
53.2837
53.2293
53.1425
53.0122
52.8427
52.6322
52.381
52.1009
51.8276
51.5701
51.3428
51.0955
50.8747
50.6774
50.6019
50.6618
50.8727
51.211
51.6598
52.1846
52.8049
53.4923
54.2397
55.006
55.7932
56.5669
57.2825
57.9417
58.558
59.1702
59.7758
60.375
60.9959
61.6143
62.2503
62.811
63.2958
63.6553
63.939
64.1392
64.3011
64.3886
64.4424
64.452
64.466
64.4424
64.4118
64.3333
64.2548
64.134
64.0605
63.9654
63.9288
63.8614
63.8718
63.8591
63.951
64.0681
64.2743
64.4693
64.7702
64.988
65.3073
65.513
65.7824
65.9932
66.2885
66.5151
66.8611
67.0805
67.3835
67.4492
67.6349
67.5836
67.7316
67.6981
67.8419
67.7764
67.909
67.7984
67.9195
67.7824
67.9147
67.7146
67.8261
67.573
67.6578
67.305
67.4088
67.0582
67.0574
66.699
66.6332
66.2478
66.0981
65.6536
65.4161
64.9034
64.5869
64.0158
63.6413
63.0367
62.6361
62.0457
61.6336
61.0504
60.6373
60.0369
59.6125
58.9702
58.4992
57.8129
57.2425
56.2656
55.4123
53.7535
52.3885
50.6927
48.5176
46.782
43.6793
40.7216
36.5373
32.0217
59.3427
58.8456
56.7401
54.7995
53.4948
52.8418
52.7596
53.031
53.4251
53.7926
54.0705
54.2446
54.3168
54.3012
54.2247
54.1177
54.0058
53.9064
53.8286
53.7763
53.7489
53.743
53.7537
53.7755
53.8029
53.8316
53.8579
53.8789
53.893
53.8988
53.8958
53.8842
53.8647
53.8384
53.8064
53.7699
53.7303
53.6883
53.6445
53.5999
53.5551
53.5107
53.4669
53.4242
53.3826
53.3424
53.304
53.2673
53.2322
53.1995
53.1697
53.1436
53.1226
53.1064
53.095
53.0869
53.0798
53.0713
53.0609
53.0507
53.04
53.0301
53.0239
53.0267
53.0415
53.0705
53.1176
53.1796
53.2548
53.347
53.4478
53.5394
53.6082
53.6494
53.6568
53.6282
53.5813
53.5248
53.4391
53.3081
53.1286
52.8926
52.6092
52.2894
51.9667
51.6512
51.3815
51.0929
50.8629
50.6537
50.5912
50.6657
50.9247
51.298
51.7807
52.3276
52.9958
53.7273
54.5208
55.3301
56.1817
57.0209
57.7975
58.4941
59.1398
59.7807
60.41
61.0368
61.683
62.3264
62.9924
63.5695
64.0727
64.4436
64.7342
64.9409
65.1055
65.21
65.2888
65.3357
65.3962
65.4239
65.4433
65.4081
65.3507
65.2612
65.2125
65.1202
65.0945
65.0266
65.0435
65.026
65.1398
65.2607
65.4875
65.6837
66.0071
66.2089
66.5678
66.7694
67.0648
67.2738
67.6016
67.8074
68.185
68.3729
68.7072
68.6791
68.8751
68.7515
68.9081
68.8397
68.9821
68.8469
68.9839
68.7981
68.9288
68.6946
68.8626
68.5439
68.6975
68.3306
68.4977
67.9989
68.1494
67.7512
67.7249
67.3317
67.2276
66.8371
66.6456
66.213
65.9289
65.434
65.0573
64.4913
64.0581
63.4297
62.9695
62.3451
61.8641
61.2584
60.7733
60.1614
59.6542
59.059
58.5133
57.9341
57.3021
56.4258
55.3872
53.8841
52.4207
51.0006
48.986
47.3152
44.5226
41.5708
37.8699
33.8242
59.4608
58.9846
56.9075
54.9944
53.7137
53.0814
53.0176
53.3061
53.7161
54.097
54.3856
54.5685
54.648
54.6386
54.5684
54.4686
54.3646
54.2737
54.2044
54.1603
54.1408
54.1429
54.1615
54.1909
54.2254
54.2604
54.2923
54.3185
54.3375
54.3482
54.3501
54.3432
54.3279
54.3048
54.2744
54.2375
54.195
54.1473
54.0953
54.0398
53.9817
53.9219
53.8612
53.8005
53.7406
53.6821
53.6253
53.5709
53.5203
53.4743
53.4332
53.3979
53.3692
53.3486
53.3365
53.3313
53.3292
53.3271
53.3249
53.3232
53.3208
53.3198
53.3256
53.3419
53.368
53.4099
53.4761
53.5602
53.6543
53.7605
53.8682
53.9563
54.017
54.0509
54.0503
54.0174
53.9703
53.9151
53.8348
53.7131
53.5345
53.2842
52.977
52.621
52.2608
51.8981
51.5948
51.2814
51.0567
50.8508
50.8386
50.9346
51.2533
51.6624
52.1874
52.7515
53.4743
54.2363
55.0697
55.9043
56.8205
57.7092
58.5406
59.2661
59.9377
60.5804
61.2297
61.8631
62.5269
63.1837
63.8539
64.4279
64.9501
65.3219
65.6335
65.8357
66.027
66.137
66.2629
66.3498
66.4794
66.5604
66.649
66.6549
66.6567
66.5916
66.577
66.4848
66.4676
66.3796
66.407
66.3711
66.5093
66.6108
66.8658
67.046
67.3881
67.5589
67.9537
68.1328
68.4732
68.6718
69.0393
69.1854
69.6364
69.7205
70.1327
69.956
70.2397
69.9574
70.1936
70.0406
70.2523
70.008
70.2044
69.9081
70.1097
69.7375
69.9731
69.4694
69.7222
69.1765
69.4553
68.831
69.0656
68.5587
68.5938
68.1213
68.0488
67.6118
67.421
66.9584
66.6751
66.1659
65.78
65.2116
64.7586
64.1243
63.6444
62.9878
62.4904
61.8426
61.3444
60.714
60.1644
59.6064
59.0069
58.4816
57.7314
56.8247
55.6332
54.2421
52.7872
51.4817
49.6231
47.8427
45.2336
42.3623
39.0261
35.4169
59.5173
59.0502
57.0049
55.1474
53.9254
53.35
53.3291
53.6383
54.0501
54.424
54.7042
54.8802
54.9551
54.946
54.8815
54.7916
54.7
54.6217
54.5646
54.5314
54.5214
54.5312
54.5562
54.5907
54.6296
54.6683
54.7036
54.7333
54.7557
54.7699
54.7752
54.7715
54.7587
54.7371
54.7068
54.6685
54.6228
54.5704
54.5124
54.4494
54.3817
54.3101
54.2365
54.1615
54.0869
54.0141
53.9442
53.879
53.8197
53.7662
53.7186
53.6784
53.6474
53.6271
53.6161
53.6143
53.6193
53.6291
53.6414
53.6546
53.667
53.6825
53.7084
53.7446
53.79
53.8514
53.939
54.0416
54.1461
54.2549
54.3608
54.4434
54.4938
54.5103
54.4914
54.4525
54.4101
54.3679
54.3075
54.207
54.0433
53.8009
53.4863
53.1097
52.7178
52.321
51.9903
51.6732
51.4688
51.3018
51.3648
51.4911
51.8795
52.3158
52.8802
53.4424
54.2165
54.9958
55.8673
56.7135
57.6988
58.6217
59.5144
60.2619
60.9578
61.5748
62.2379
62.8485
63.523
64.1638
64.8267
65.3795
65.9164
66.2759
66.6245
66.8166
67.0556
67.1675
67.3716
67.4915
67.71
67.8376
68.0156
68.059
68.1336
68.0944
68.1216
68.0242
68.0175
67.9191
67.938
67.8821
68.0348
68.1087
68.3729
68.5373
68.857
69.0285
69.4279
69.587
69.963
70.1503
70.5491
70.657
71.1482
71.1237
71.5673
71.2857
71.5665
71.2129
71.5942
71.2587
71.6091
71.1849
71.4651
71.0644
71.3259
70.871
71.1066
70.5258
70.8093
70.1756
70.4962
69.8082
70.0905
69.4783
69.6003
69.0775
69.0276
68.5811
68.3726
67.9214
67.6103
67.121
66.6953
66.1745
65.6752
65.0861
64.5624
63.9227
63.3729
62.7225
62.1627
61.5231
60.9071
60.3441
59.6591
59.1409
58.2576
57.2713
55.9491
54.6432
53.3066
51.9224
50.1755
48.298
45.8319
43.112
40.0789
36.8367
59.4912
59.0245
57.033
55.2707
54.1467
53.6652
53.7064
54.0316
54.4271
54.7722
55.0238
55.1757
55.2343
55.22
55.161
55.084
55.0088
54.9476
54.9063
54.8867
54.8875
54.9053
54.9359
54.9742
55.0158
55.0568
55.0942
55.1261
55.1509
55.1674
55.175
55.173
55.1614
55.1401
55.1095
55.0703
55.0231
54.9684
54.9067
54.8384
54.7636
54.6837
54.6004
54.5159
54.4325
54.352
54.2769
54.208
54.1447
54.0877
54.0387
53.9982
53.9688
53.9527
53.9489
53.9552
53.9698
53.9917
54.0214
54.0558
54.0892
54.1245
54.172
54.2308
54.3005
54.389
54.4989
54.6149
54.7276
54.838
54.937
55.004
55.0338
55.0263
54.99
54.9473
54.9098
54.8795
54.8448
54.7738
54.6375
54.4207
54.1199
53.7402
53.3308
52.9271
52.5894
52.2879
52.1047
52.0075
52.1528
52.3387
52.7928
53.2456
53.8238
54.3869
55.2087
55.9811
56.8814
57.7425
58.7982
59.7357
60.6959
61.4522
62.1717
62.7579
63.4248
63.9934
64.6721
65.2611
65.9136
66.4353
66.9792
67.3275
67.7149
67.9029
68.1964
68.3243
68.6147
68.7721
69.0898
69.2523
69.5161
69.5876
69.7452
69.7179
69.7969
69.6922
69.7072
69.5786
69.5941
69.508
69.6558
69.7048
69.9734
70.1139
70.4046
70.5866
70.9416
71.1135
71.4965
71.6738
72.0621
72.1697
72.636
72.5624
72.9227
72.664
72.905
72.4881
72.9217
72.5039
72.893
72.3662
72.7165
72.2474
72.5121
72.0706
72.1966
71.6651
71.8886
71.3339
71.5727
70.9209
71.161
70.5468
70.6907
70.1567
70.1048
69.6693
69.421
69.0122
68.6378
68.2063
67.7151
67.2736
66.6891
66.2015
65.5635
64.9883
64.3393
63.707
63.0379
62.4041
61.6894
61.1015
60.3172
59.766
58.6893
57.6419
56.3682
55.0978
53.8705
52.3429
50.6533
48.7276
46.3818
43.8385
41.069
38.1169
59.328
58.8655
56.9935
55.3977
54.4234
54.0664
54.1677
54.4876
54.8405
55.1329
55.3364
55.4494
55.4844
55.464
55.413
55.3529
55.2982
55.2575
55.2346
55.23
55.2417
55.2666
55.301
55.341
55.3829
55.424
55.4614
55.4934
55.5183
55.5349
55.5423
55.5399
55.5275
55.5057
55.4754
55.4368
55.3901
55.3357
55.274
55.2044
55.1269
55.0429
54.9536
54.8641
54.7798
54.7014
54.6272
54.5573
54.4936
54.4381
54.3909
54.3536
54.3301
54.322
54.3277
54.3468
54.3794
54.4258
54.4811
54.5347
54.5872
54.6468
54.7195
54.8025
54.9005
55.0151
55.1418
55.2668
55.3847
55.4956
55.5871
55.6418
55.6528
55.6182
55.5576
55.5054
55.4732
55.4623
55.4565
55.4228
55.3298
55.1561
54.8851
54.5257
54.1182
53.7308
53.3909
53.125
52.9803
52.9803
53.1846
53.4277
53.9248
54.3941
54.9692
55.5765
56.4245
57.1852
58.0954
58.9933
60.0934
61.037
62.0489
62.8188
63.5616
64.1201
64.7739
65.2872
65.9407
66.4663
67.0979
67.5828
68.1256
68.476
68.8915
69.0994
69.4457
69.6137
69.9808
70.186
70.5739
70.7735
71.1009
71.2031
71.4229
71.4074
71.5197
71.4212
71.4421
71.2966
71.2956
71.1907
71.3155
71.3354
71.5902
71.7186
71.992
72.193
72.4849
72.6754
73.0109
73.2101
73.5445
73.7044
74.0026
73.9273
74.2231
73.9977
74.1898
73.9331
74.213
73.8332
74.0368
73.6372
73.8663
73.4946
73.6206
73.2872
73.1924
72.8147
72.9329
72.5521
72.6069
72.1581
72.2866
71.7518
71.8101
71.2658
71.2045
70.7739
70.4845
70.0869
69.6378
69.2515
68.7062
68.3135
67.6879
67.2437
66.5171
66.0143
65.2296
64.6373
63.8256
63.2154
62.329
61.7737
60.836
60.2943
59.0598
58.0355
56.8072
55.5869
54.4204
52.816
51.1369
49.1725
46.924
44.556
41.9945
39.2441
58.9171
58.4897
56.888
55.5736
54.8144
54.5866
54.7171
54.9933
55.2709
55.4867
55.6254
55.692
55.7031
55.6791
55.6393
55.5983
55.5653
55.5451
55.5394
55.5474
55.5672
55.5959
55.631
55.6694
55.709
55.7474
55.7826
55.8127
55.836
55.8511
55.8571
55.8535
55.8406
55.8189
55.7893
55.7525
55.7086
55.6576
55.5995
55.5321
55.4557
55.3736
55.2885
55.2025
55.1201
55.0465
54.9828
54.924
54.8674
54.8145
54.7702
54.7413
54.7311
54.7368
54.7564
54.7944
54.8498
54.9204
55.0034
55.0903
55.1756
55.261
55.3557
55.4631
55.5842
55.7148
55.8515
55.9848
56.1089
56.2193
56.3028
56.343
56.3338
56.276
56.1919
56.124
56.0961
56.1067
56.135
56.1466
56.11
55.9965
55.7746
55.4549
55.0801
54.7372
54.4075
54.2032
54.0944
54.1697
54.4074
54.7215
55.2318
55.6924
56.2636
56.9558
57.8026
58.5574
59.4483
60.4183
61.5105
62.4717
63.4943
64.2857
65.0319
65.609
66.2046
66.6831
67.2754
67.7538
68.3393
68.7959
69.3166
69.6913
70.1024
70.3801
70.744
71.0128
71.4047
71.6982
72.0949
72.3609
72.7047
72.847
73.0824
73.0988
73.2077
73.1135
73.1397
72.9711
72.9712
72.8716
72.9464
72.9824
73.1869
73.3197
73.5783
73.7877
74.0323
74.2489
74.4964
74.6806
74.9653
75.1607
75.27
75.2007
75.4184
75.2175
75.4519
75.3571
75.423
75.2224
75.1388
74.9777
74.9781
74.7542
74.66
74.4076
74.1548
73.9154
73.9146
73.7652
73.649
73.3448
73.429
72.9831
72.8393
72.3213
72.2554
71.7971
71.4608
71.0784
70.575
70.2231
69.621
69.2452
68.5867
68.1405
67.3875
66.8821
66.0219
65.4496
64.4954
63.8961
62.8812
62.343
61.2829
60.7619
59.2554
58.407
57.3718
56.1985
54.9925
53.3677
51.6637
49.6902
47.5385
45.2959
42.8696
40.2687
58.2244
57.8924
56.7589
55.8459
55.3405
55.2111
55.3131
55.4955
55.6667
55.7909
55.862
55.8876
55.8814
55.8586
55.8315
55.8085
55.7942
55.7903
55.7968
55.8124
55.8354
55.864
55.8968
55.9318
55.9675
56.0022
56.0344
56.0622
56.084
56.0977
56.102
56.0969
56.0834
56.062
56.0335
56.0005
55.9643
55.922
55.8706
55.81
55.7414
55.6658
55.5886
55.5153
55.4464
55.3843
55.3328
55.2916
55.2546
55.2164
55.1838
55.1726
55.1864
55.2177
55.2624
55.3243
55.4063
55.5052
55.6116
55.7171
55.8266
55.944
56.0691
56.2026
56.3429
56.4839
56.6235
56.7572
56.8824
56.9915
57.0665
57.0953
57.0712
56.9979
56.8995
56.8216
56.7995
56.8282
56.8813
56.927
56.9366
56.8825
56.7256
56.4676
56.1482
55.8711
55.56
55.4495
55.3848
55.5152
55.7557
56.151
56.6271
57.1158
57.7074
58.4402
59.2244
60.008
60.9096
61.9476
62.9752
63.9619
64.9447
65.7789
66.5089
67.1224
67.6355
68.1191
68.6035
69.0752
69.5681
70.0437
70.5069
70.9369
71.3195
71.7004
72.0531
72.4436
72.823
73.2223
73.5758
73.9293
74.2154
74.4174
74.602
74.6798
74.7288
74.7067
74.6582
74.5555
74.4946
74.4679
74.4636
74.5615
74.6752
74.8786
75.0704
75.3057
75.4947
75.7391
75.8751
76.08
76.2332
76.4116
76.3953
76.4719
76.4672
76.4401
76.5832
76.5742
76.4919
76.4455
76.2223
76.1704
76.0127
75.8429
75.6263
75.5325
75.0654
75.0991
74.8604
74.923
74.5979
74.4974
74.3566
74.067
73.7885
73.3738
73.1755
72.7233
72.3245
71.9413
71.4457
71.0944
70.4533
70.073
69.3961
68.9188
68.15
67.5997
66.7334
66.1352
65.0997
64.5284
63.4316
62.8316
61.5913
61.0303
59.5608
59.0251
57.9157
56.8507
55.5728
53.9734
52.2388
50.2886
48.2082
46.0419
43.7077
41.2288
57.4487
57.2694
56.7047
56.2261
55.9427
55.8394
55.8507
55.9087
55.9689
56.0105
56.0278
56.0246
56.0093
55.9903
55.9741
55.9644
55.9624
55.9681
55.9805
55.9984
56.0209
56.0472
56.0765
56.1079
56.1402
56.1719
56.2012
56.2265
56.2463
56.2586
56.2614
56.2547
56.241
56.2234
56.2019
56.174
56.1427
56.1095
56.0717
56.0227
55.9645
55.9054
55.8477
55.7901
55.7379
55.7011
55.6783
55.6626
55.6494
55.6378
55.6383
55.6603
55.7029
55.7614
55.837
55.9305
56.0393
56.1598
56.2896
56.4225
56.5519
56.6798
56.8142
56.9573
57.1034
57.246
57.3844
57.5159
57.6363
57.7334
57.7954
57.8205
57.8042
57.7426
57.6509
57.5757
57.5555
57.5877
57.6553
57.7243
57.7672
57.7581
57.6566
57.4652
57.2234
57.0564
56.817
56.7912
56.7505
56.9407