/*--------------------------------*- C++ -*----------------------------------*\
| =========                 |                                                 |
| \\      /  F ield         | OpenFOAM: The Open Source CFD Toolbox           |
|  \\    /   O peration     | Version:  2.4.0                                 |
|   \\  /    A nd           | Web:      www.OpenFOAM.org                      |
|    \\/     M anipulation  |                                                 |
\*---------------------------------------------------------------------------*/
FoamFile
{
    version     2.0;
    format      ascii;
    class       volVectorField;
    location    "0.33";
    object      U;
}
// * * * * * * * * * * * * * * * * * * * * * * * * * * * * * * * * * * * * * //

dimensions      [0 1 -1 0 0 0 0];

internalField   nonuniform List<vector> 
8800
(
(8.09216 0.387835 0)
(5.45049 0.242609 0)
(3.90984 0.0430906 0)
(3.15734 -0.0159233 0)
(2.80213 -0.0180154 0)
(2.59601 -0.0106634 0)
(2.48713 -0.00655981 0)
(2.37825 -0.00172529 0)
(2.32003 -0.0011035 0)
(2.24668 -0.0014011 0)
(2.22053 -0.000550256 0)
(2.1603 0.000859869 0)
(2.14693 -0.00140514 0)
(2.09265 0.00159868 0)
(2.07727 0.000243746 0)
(2.02441 0.000779614 0)
(1.99457 0.00217638 0)
(1.93705 0.00103911 0)
(1.90789 0.0064424 0)
(1.74337 -0.0455815 0)
(10.0882 0.838082 0)
(9.65711 0.868509 0)
(8.87037 0.507254 0)
(8.08411 0.260085 0)
(7.49362 0.139062 0)
(7.00286 0.0830166 0)
(6.70718 0.05159 0)
(6.38899 0.0427965 0)
(6.23298 0.0308577 0)
(6.01723 0.0221381 0)
(5.93345 0.0192274 0)
(5.76619 0.0206656 0)
(5.73229 0.0109746 0)
(5.57638 0.0204251 0)
(5.55965 0.0146249 0)
(5.41798 0.0188961 0)
(5.36916 0.0232419 0)
(5.24067 0.0223267 0)
(5.18689 0.0272063 0)
(4.9995 0.00881108 0)
(10.0715 0.63053 0)
(10.6562 0.865645 0)
(10.8672 0.601709 0)
(10.6924 0.370403 0)
(10.4587 0.257725 0)
(10.0784 0.196998 0)
(9.85476 0.149633 0)
(9.47971 0.127543 0)
(9.32604 0.0947643 0)
(9.02869 0.073639 0)
(8.93089 0.06027 0)
(8.68598 0.0566598 0)
(8.65915 0.0370317 0)
(8.41499 0.0500086 0)
(8.42796 0.036787 0)
(8.20671 0.0445448 0)
(8.17615 0.0514196 0)
(7.98727 0.0530757 0)
(7.94058 0.0531363 0)
(7.703 0.0334295 0)
(10.0185 0.455111 0)
(10.5634 0.709468 0)
(11.1644 0.546045 0)
(11.3713 0.348408 0)
(11.5648 0.265912 0)
(11.4473 0.226769 0)
(11.5129 0.194527 0)
(11.2857 0.184193 0)
(11.3079 0.147049 0)
(11.0769 0.12388 0)
(11.0813 0.107735 0)
(10.8459 0.0985273 0)
(10.901 0.0724738 0)
(10.6186 0.0876378 0)
(10.7055 0.0651826 0)
(10.4475 0.0818325 0)
(10.4606 0.0744355 0)
(10.2395 0.103624 0)
(10.2606 0.071854 0)
(9.89297 0.149088 0)
(10.0657 0.34246 0)
(10.4023 0.575956 0)
(11.0439 0.460013 0)
(11.2811 0.286978 0)
(11.6729 0.214712 0)
(11.6598 0.191737 0)
(11.9021 0.169309 0)
(11.815 0.182808 0)
(11.9979 0.142503 0)
(11.8932 0.131474 0)
(12.0406 0.114751 0)
(11.8967 0.113626 0)
(12.0839 0.0808515 0)
(11.8778 0.114201 0)
(12.0371 0.0672619 0)
(11.8836 0.115127 0)
(11.9394 0.0884157 0)
(11.7649 0.12686 0)
(11.9033 0.0877968 0)
(11.5294 0.229972 0)
(10.0688 0.244504 0)
(10.3253 0.465129 0)
(10.9122 0.382706 0)
(11.145 0.238773 0)
(11.5335 0.165191 0)
(11.5962 0.150378 0)
(11.8201 0.130864 0)
(11.8359 0.155299 0)
(11.9885 0.118004 0)
(12.0028 0.111159 0)
(12.1531 0.104393 0)
(12.1264 0.0907572 0)
(12.3065 0.0679489 0)
(12.2682 0.10588 0)
(12.3801 0.0607787 0)
(12.4066 0.0997282 0)
(12.4524 0.104962 0)
(12.4273 0.103222 0)
(12.5689 0.0884045 0)
(12.3143 0.15347 0)
(10.0239 0.165782 0)
(10.2811 0.362238 0)
(10.7908 0.297301 0)
(11.1029 0.201664 0)
(11.4015 0.11993 0)
(11.514 0.112797 0)
(11.7061 0.0897555 0)
(11.7739 0.132253 0)
(11.8688 0.0888292 0)
(11.9746 0.0824743 0)
(12.0385 0.0838467 0)
(12.111 0.0755289 0)
(12.1914 0.0432737 0)
(12.2828 0.0945807 0)
(12.3613 0.0360624 0)
(12.3925 0.0813047 0)
(12.4638 0.0976918 0)
(12.5335 0.0547225 0)
(12.6017 0.0836382 0)
(12.4353 0.110456 0)
(10.0063 0.107708 0)
(10.2696 0.253933 0)
(10.6711 0.209493 0)
(11.0399 0.150658 0)
(11.323 0.0978174 0)
(11.4844 0.0747981 0)
(11.6106 0.0504415 0)
(11.6756 0.100655 0)
(11.8384 0.0598416 0)
(11.9167 0.0599341 0)
(11.9288 0.0700212 0)
(12.0576 0.0491172 0)
(12.11 0.0262023 0)
(12.196 0.061658 0)
(12.3493 0.0364758 0)
(12.3323 0.0635993 0)
(12.3264 0.0602936 0)
(12.5873 0.0461018 0)
(12.4349 0.0393642 0)
(12.3772 0.0608752 0)
(10.0197 0.0547485 0)
(10.2286 0.15838 0)
(10.6068 0.131279 0)
(10.9711 0.0852887 0)
(11.2808 0.056474 0)
(11.4806 0.0477217 0)
(11.5501 0.0333552 0)
(11.6609 0.0546349 0)
(11.7991 0.0239362 0)
(11.8129 0.0431904 0)
(11.9052 0.0554483 0)
(12.0522 0.0281185 0)
(12.0637 0.0121206 0)
(12.1215 0.0325548 0)
(12.2858 0.00602608 0)
(12.3003 0.0704893 0)
(12.3591 0.0302099 0)
(12.4749 -0.0146323 0)
(12.4214 0.0813308 0)
(12.278 0.0173314 0)
(10.0047 0.0115875 0)
(10.2163 0.061554 0)
(10.6126 0.0467446 0)
(10.9469 0.0205398 0)
(11.2498 0.0224894 0)
(11.4485 0.0210289 0)
(11.5629 -0.00200207 0)
(11.6511 0.0160899 0)
(11.7552 0.0143096 0)
(11.7931 0.0195115 0)
(11.8595 0.0150705 0)
(12.0493 0.00534558 0)
(12.0424 0.0161766 0)
(12.1209 0.00207156 0)
(12.2454 -0.00442459 0)
(12.2295 0.0303748 0)
(12.4285 0.00328438 0)
(12.3973 0.00284286 0)
(12.3245 0.0196819 0)
(12.4172 -0.00242754 0)
(10.0089 -0.029599 0)
(10.2101 -0.0411149 0)
(10.6005 -0.0326106 0)
(10.9622 -0.0376607 0)
(11.2441 -0.0160197 0)
(11.4702 -0.013161 0)
(11.5653 -0.0244486 0)
(11.6141 -0.0174011 0)
(11.7319 -0.0203063 0)
(11.8272 0.00265001 0)
(11.8848 -0.00561751 0)
(12.0025 -0.0170428 0)
(12.0567 -0.00289857 0)
(12.1611 -0.0197432 0)
(12.1917 -0.0200906 0)
(12.2771 0.00834933 0)
(12.3662 -0.0215311 0)
(12.386 -0.0214794 0)
(12.4331 0.0193029 0)
(12.3488 -0.0392811 0)
(10.0077 -0.0717117 0)
(10.2065 -0.135958 0)
(10.6338 -0.121844 0)
(11.0108 -0.10355 0)
(11.2621 -0.0506073 0)
(11.4555 -0.0428218 0)
(11.5923 -0.0452985 0)
(11.658 -0.0492105 0)
(11.737 -0.0475204 0)
(11.8416 -0.0330364 0)
(11.9228 -0.0262471 0)
(12.02 -0.0384816 0)
(12.0872 -0.019492 0)
(12.1635 -0.0327565 0)
(12.2205 -0.033474 0)
(12.3003 -0.0270982 0)
(12.386 -0.0377611 0)
(12.4069 -0.0437575 0)
(12.4769 -0.0291702 0)
(12.3973 -0.0184267 0)
(10.0005 -0.116437 0)
(10.256 -0.244099 0)
(10.6847 -0.210674 0)
(11.0511 -0.156114 0)
(11.2951 -0.0754212 0)
(11.4954 -0.0807838 0)
(11.6348 -0.0815743 0)
(11.7005 -0.0777929 0)
(11.8023 -0.0731025 0)
(11.8761 -0.0578558 0)
(11.9688 -0.045981 0)
(12.0506 -0.0592337 0)
(12.1227 -0.0344858 0)
(12.2103 -0.056069 0)
(12.2858 -0.0515259 0)
(12.3563 -0.0470143 0)
(12.3967 -0.060683 0)
(12.4812 -0.0757724 0)
(12.4894 -0.0425513 0)
(12.4387 -0.0419314 0)
(10.0274 -0.178141 0)
(10.2843 -0.345693 0)
(10.762 -0.292813 0)
(11.1095 -0.208212 0)
(11.3849 -0.115626 0)
(11.5667 -0.120045 0)
(11.698 -0.105661 0)
(11.7568 -0.11169 0)
(11.8736 -0.0961222 0)
(11.9372 -0.0877074 0)
(12.0421 -0.0679644 0)
(12.1221 -0.0791006 0)
(12.2145 -0.054334 0)
(12.274 -0.0774413 0)
(12.3494 -0.0654316 0)
(12.4024 -0.0703879 0)
(12.4861 -0.0780408 0)
(12.5102 -0.100956 0)
(12.542 -0.0791287 0)
(12.5306 -0.0715223 0)
(10.065 -0.252639 0)
(10.3064 -0.449983 0)
(10.9092 -0.383472 0)
(11.1816 -0.249223 0)
(11.5258 -0.155252 0)
(11.6145 -0.15901 0)
(11.8094 -0.139576 0)
(11.8132 -0.141191 0)
(11.9904 -0.123557 0)
(11.9998 -0.112686 0)
(12.1432 -0.0896047 0)
(12.1584 -0.105713 0)
(12.2891 -0.0695672 0)
(12.2798 -0.0966848 0)
(12.3829 -0.0776565 0)
(12.3831 -0.0958371 0)
(12.4655 -0.0904193 0)
(12.4349 -0.125981 0)
(12.4815 -0.101981 0)
(12.3895 -0.116695 0)
(10.0607 -0.348533 0)
(10.3887 -0.561892 0)
(11.066 -0.46764 0)
(11.2885 -0.292454 0)
(11.6677 -0.206355 0)
(11.6655 -0.198286 0)
(11.8908 -0.174901 0)
(11.8099 -0.167544 0)
(11.9948 -0.151981 0)
(11.8866 -0.131196 0)
(12.0463 -0.111415 0)
(11.9148 -0.115674 0)
(12.0584 -0.0854573 0)
(11.9027 -0.103622 0)
(12.0184 -0.0866603 0)
(11.8705 -0.102969 0)
(11.9469 -0.0910514 0)
(11.7778 -0.133465 0)
(11.8029 -0.109994 0)
(11.5939 -0.143106 0)
(10.0109 -0.457609 0)
(10.5597 -0.702865 0)
(11.1833 -0.550317 0)
(11.3576 -0.351033 0)
(11.5748 -0.259026 0)
(11.4415 -0.231924 0)
(11.507 -0.198288 0)
(11.2858 -0.175416 0)
(11.3111 -0.151479 0)
(11.0628 -0.125729 0)
(11.1024 -0.103824 0)
(10.8301 -0.100992 0)
(10.9026 -0.07501 0)
(10.6217 -0.0844995 0)
(10.6981 -0.070657 0)
(10.4256 -0.0840594 0)
(10.4897 -0.0696747 0)
(10.198 -0.113613 0)
(10.2239 -0.0840955 0)
(9.89891 -0.146135 0)
(10.0644 -0.632214 0)
(10.6578 -0.861967 0)
(10.8739 -0.603462 0)
(10.6809 -0.372558 0)
(10.4704 -0.254147 0)
(10.0713 -0.19928 0)
(9.8514 -0.152615 0)
(9.48223 -0.121309 0)
(9.32844 -0.0974115 0)
(9.01653 -0.0756967 0)
(8.94973 -0.0582444 0)
(8.66398 -0.0564652 0)
(8.67428 -0.04056 0)
(8.39909 -0.0460519 0)
(8.43986 -0.0413142 0)
(8.17027 -0.0476435 0)
(8.21601 -0.0447103 0)
(7.92022 -0.0681873 0)
(7.93679 -0.0632624 0)
(7.60417 -0.0766405 0)
(10.0846 -0.838592 0)
(9.65783 -0.8672 0)
(8.87332 -0.507631 0)
(8.07767 -0.261555 0)
(7.50091 -0.137047 0)
(6.99804 -0.0837031 0)
(6.70522 -0.0539036 0)
(6.39029 -0.0396 0)
(6.23503 -0.0314115 0)
(6.01008 -0.0242458 0)
(5.94337 -0.0175115 0)
(5.75202 -0.0204571 0)
(5.74435 -0.0132259 0)
(5.56024 -0.0180537 0)
(5.57393 -0.0167724 0)
(5.38401 -0.0212812 0)
(5.40043 -0.0199205 0)
(5.18092 -0.0320453 0)
(5.17977 -0.0339618 0)
(4.90304 -0.0118713 0)
(8.09143 -0.388022 0)
(5.44995 -0.242434 0)
(3.91165 -0.0430329 0)
(3.15534 0.0153798 0)
(2.80356 0.0185888 0)
(2.59582 0.0106212 0)
(2.48585 0.00569343 0)
(2.37727 0.00272272 0)
(2.32237 0.00108993 0)
(2.24447 0.000576887 0)
(2.2218 0.00124992 0)
(2.1571 -0.000893432 0)
(2.14972 0.000844883 0)
(2.08649 -0.000946469 0)
(2.08249 -0.000601227 0)
(2.009 -0.00191787 0)
(2.00218 -0.000727998 0)
(1.9131 -0.00393109 0)
(1.88026 -0.00338856 0)
(1.74179 0.01125 0)
(2.05455 0.0419332 0)
(2.17667 0.1587 0)
(2.46873 0.0797841 0)
(2.69853 -0.0323785 0)
(2.84839 -0.102299 0)
(2.92343 -0.122581 0)
(2.96069 -0.0887464 0)
(2.98776 -0.0324215 0)
(3.02094 0.0219272 0)
(3.07882 0.0683451 0)
(3.1425 0.0988436 0)
(3.22272 0.104142 0)
(3.29865 0.101581 0)
(3.37466 0.0871913 0)
(3.45043 0.0651777 0)
(3.50928 0.0493093 0)
(3.5661 0.0374927 0)
(3.61141 0.0181452 0)
(3.68142 0.00519498 0)
(3.71753 -0.000417801 0)
(3.77768 0.00631457 0)
(3.8155 0.0202358 0)
(3.88282 0.0297669 0)
(3.94563 0.0406323 0)
(4.02174 0.0492822 0)
(4.10451 0.0639312 0)
(4.18294 0.0641063 0)
(4.3148 0.0550549 0)
(4.39277 0.0283751 0)
(4.56293 -0.0499124 0)
(4.64422 -0.148293 0)
(4.73526 -0.241958 0)
(4.76729 -0.333452 0)
(4.74241 -0.389462 0)
(4.70722 -0.408952 0)
(4.73353 -0.351878 0)
(4.71562 -0.270526 0)
(4.69408 -0.259658 0)
(4.75799 -0.219427 0)
(4.7537 -0.146379 0)
(4.83861 -0.0489715 0)
(4.91366 0.00163269 0)
(5.00483 -0.00147188 0)
(5.08378 -0.00353962 0)
(5.17796 -0.00945514 0)
(5.26796 0.0451711 0)
(5.25381 0.0803688 0)
(5.41539 0.0787361 0)
(5.48879 0.145103 0)
(5.56938 0.156425 0)
(5.75505 0.153837 0)
(5.88744 0.23672 0)
(6.03647 0.234959 0)
(6.23038 0.228783 0)
(6.41808 0.264965 0)
(6.6123 0.233173 0)
(6.88784 0.195377 0)
(7.0785 0.174562 0)
(7.35038 0.0617975 0)
(7.58909 -0.0505599 0)
(7.76915 -0.160937 0)
(8.02765 -0.355322 0)
(8.18918 -0.527763 0)
(8.37098 -0.653575 0)
(8.60239 -0.882119 0)
(8.75223 -1.05412 0)
(9.0078 -1.24462 0)
(9.1391 -1.39583 0)
(9.47737 -1.61283 0)
(9.71877 -1.79405 0)
(10.0114 -1.94396 0)
(10.3718 -2.17584 0)
(10.7054 -2.36272 0)
(11.0454 -2.53568 0)
(11.4008 -2.73244 0)
(11.7208 -2.93546 0)
(12.0186 -3.06416 0)
(12.1984 -3.19248 0)
(12.4553 -3.34837 0)
(12.5344 -3.38941 0)
(12.5653 -3.46317 0)
(12.5949 -3.49458 0)
(12.5208 -3.53192 0)
(12.4143 -3.50221 0)
(12.256 -3.50957 0)
(12.1992 -3.47375 0)
(11.9311 -3.39017 0)
(11.8622 -3.43023 0)
(11.7453 -3.26615 0)
(11.7143 -3.26531 0)
(11.6516 -3.15303 0)
(11.709 -3.0331 0)
(11.8557 -2.83124 0)
(11.8737 -2.63057 0)
(12.0248 -2.42576 0)
(12.0965 -2.05927 0)
(12.3483 -1.67105 0)
(12.3345 -1.16619 0)
(12.4813 -0.645642 0)
(12.4147 -0.0379021 0)
(12.4262 0.524169 0)
(12.3423 1.24398 0)
(12.2777 1.87367 0)
(12.342 2.46696 0)
(12.3473 3.08214 0)
(12.5086 3.55673 0)
(12.6042 4.0199 0)
(12.6925 4.42036 0)
(12.9534 4.73125 0)
(12.9801 4.95724 0)
(12.9587 5.00566 0)
(12.8924 4.92901 0)
(12.5789 4.68142 0)
(12.2581 4.29096 0)
(11.9772 3.95448 0)
(11.6287 3.48226 0)
(11.3266 2.93387 0)
(11.1555 2.49569 0)
(10.9479 2.01716 0)
(10.7241 1.36868 0)
(10.6528 0.871673 0)
(10.5528 0.366265 0)
(10.398 -0.347968 0)
(10.3761 -0.835736 0)
(10.3849 -1.33761 0)
(10.2589 -1.98484 0)
(10.3093 -2.46607 0)
(10.3096 -3.01675 0)
(10.1586 -3.63637 0)
(9.88664 -4.03805 0)
(9.50651 -4.00918 0)
(8.96775 -4.04081 0)
(8.35042 -3.89079 0)
(7.90906 -3.18558 0)
(7.48012 -2.68546 0)
(7.06824 -2.58761 0)
(6.87346 -2.1916 0)
(7.04888 -1.825 0)
(6.87028 -1.30959 0)
(6.93293 -1.46036 0)
(6.50241 -1.42361 0)
(6.71802 -0.838676 0)
(6.82745 0.0229827 0)
(7.48921 0.613007 0)
(7.22788 1.15523 0)
(7.93435 0.927151 0)
(7.26183 0.128282 0)
(7.85491 -1.31934 0)
(7.24124 -3.65451 0)
(7.6304 -5.77143 0)
(6.34966 -7.44639 0)
(6.82698 -9.15354 0)
(6.1694 -9.57239 0)
(5.66166 -9.94941 0)
(6.01202 -9.12736 0)
(5.87707 -7.51486 0)
(5.48868 -6.9643 0)
(6.0779 -5.7641 0)
(5.84897 -5.01772 0)
(6.29985 -4.07545 0)
(6.62409 -2.87293 0)
(6.83842 -1.69391 0)
(7.23753 0.130488 0)
(7.40003 1.43917 0)
(7.46897 2.62949 0)
(7.77279 4.04207 0)
(8.14053 5.46603 0)
(8.34261 6.11471 0)
(8.26067 6.78816 0)
(8.75392 8.08603 0)
(9.14032 9.33676 0)
(9.19114 10.3608 0)
(9.21483 10.6782 0)
(8.59096 10.3643 0)
(8.06308 9.77583 0)
(7.54842 8.92712 0)
(6.70146 7.97891 0)
(5.95321 7.01713 0)
(5.72346 6.04613 0)
(4.75326 5.00864 0)
(4.72041 4.17681 0)
(4.08381 3.5664 0)
(3.98636 2.89827 0)
(3.50646 2.29562 0)
(3.2005 1.67329 0)
(3.28671 1.32895 0)
(2.91586 1.10774 0)
(3.13712 0.848553 0)
(2.6907 0.320096 0)
(2.92898 0.156273 0)
(2.99631 0.201702 0)
(3.49733 0.768356 0)
(3.52472 0.622333 0)
(3.62155 0.904758 0)
(3.33 0.53594 0)
(3.46503 1.46416 0)
(3.91465 1.6037 0)
(3.06563 2.46158 0)
(5.48561 3.29197 0)
(3.58671 6.19624 0)
(5.08971 0.0533639 0)
(5.06245 0.101251 0)
(5.1103 0.0438833 0)
(5.21463 -0.0551809 0)
(5.3201 -0.129041 0)
(5.39969 -0.161905 0)
(5.43904 -0.144444 0)
(5.45645 -0.0912299 0)
(5.46456 -0.0339355 0)
(5.48233 0.00977742 0)
(5.50951 0.0399898 0)
(5.54647 0.0457575 0)
(5.59052 0.0474023 0)
(5.63547 0.0375405 0)
(5.68645 0.0172527 0)
(5.73128 0.00468398 0)
(5.78121 -0.018227 0)
(5.81311 -0.0288967 0)
(5.86728 -0.0406371 0)
(5.90617 -0.049741 0)
(5.95346 -0.045538 0)
(5.9967 -0.0389502 0)
(6.04077 -0.0280041 0)
(6.10126 -0.021201 0)
(6.15043 -0.0129798 0)
(6.23326 -0.0171738 0)
(6.28215 -0.0127532 0)
(6.3993 -0.0346753 0)
(6.44781 -0.072179 0)
(6.58467 -0.118494 0)
(6.64576 -0.206858 0)
(6.74529 -0.275887 0)
(6.79818 -0.34662 0)
(6.81488 -0.393847 0)
(6.86413 -0.389619 0)
(6.8393 -0.394197 0)
(6.8883 -0.369799 0)
(6.85284 -0.315838 0)
(6.95705 -0.268835 0)
(6.98009 -0.18309 0)
(7.05321 -0.118437 0)
(7.08356 -0.0783977 0)
(7.1702 -0.0818266 0)
(7.23791 -0.063272 0)
(7.32308 -0.054525 0)
(7.39837 -0.0415606 0)
(7.43118 0.0295271 0)
(7.45883 0.0473376 0)
(7.55642 0.0687956 0)
(7.57098 0.119379 0)
(7.64041 0.123633 0)
(7.74629 0.126987 0)
(7.80714 0.162005 0)
(7.90404 0.135993 0)
(8.05053 0.123216 0)
(8.14485 0.0981738 0)
(8.33818 0.0467266 0)
(8.50871 -0.0198282 0)
(8.69513 -0.0987507 0)
(8.93666 -0.216855 0)
(9.08332 -0.362746 0)
(9.35162 -0.499391 0)
(9.53057 -0.668086 0)
(9.79643 -0.854104 0)
(9.99296 -1.01259 0)
(10.2529 -1.21441 0)
(10.5505 -1.43184 0)
(10.7388 -1.5663 0)
(11.1093 -1.80987 0)
(11.3409 -1.99377 0)
(11.6582 -2.15639 0)
(11.9229 -2.40743 0)
(12.1799 -2.56098 0)
(12.4193 -2.7631 0)
(12.5839 -2.91622 0)
(12.7486 -3.07022 0)
(12.8739 -3.20926 0)
(12.8426 -3.29319 0)
(12.9059 -3.37525 0)
(12.7813 -3.37676 0)
(12.6551 -3.44297 0)
(12.5445 -3.40608 0)
(12.3428 -3.44079 0)
(12.1821 -3.43284 0)
(11.981 -3.38407 0)
(11.8412 -3.36442 0)
(11.6437 -3.30039 0)
(11.688 -3.35623 0)
(11.5911 -3.27469 0)
(11.6217 -3.31093 0)
(11.7006 -3.17598 0)
(11.8087 -3.10907 0)
(11.99 -3.05617 0)
(12.0827 -2.81321 0)
(12.387 -2.6065 0)
(12.5974 -2.21381 0)
(12.8289 -1.79314 0)
(12.925 -1.31555 0)
(13.0626 -0.734215 0)
(13.0501 -0.0885038 0)
(13.1075 0.538037 0)
(13.0605 1.24358 0)
(12.9011 1.93357 0)
(12.8547 2.51822 0)
(12.7293 3.09651 0)
(12.7176 3.56688 0)
(12.8035 4.01377 0)
(12.707 4.31447 0)
(12.8526 4.59121 0)
(13.0501 4.84926 0)
(13.084 4.96283 0)
(13.2516 5.00202 0)
(13.1881 4.9508 0)
(13.0034 4.58873 0)
(12.8154 4.2384 0)
(12.5762 3.87603 0)
(12.2819 3.2633 0)
(12.0805 2.76955 0)
(11.8823 2.25596 0)
(11.6852 1.58398 0)
(11.5333 1.01341 0)
(11.5102 0.476376 0)
(11.3384 -0.254253 0)
(11.2719 -0.761319 0)
(11.2446 -1.27666 0)
(11.1059 -1.95035 0)
(10.9815 -2.42187 0)
(10.8644 -2.86247 0)
(10.5545 -3.43554 0)
(10.1497 -3.68179 0)
(9.62542 -3.59573 0)
(9.05377 -3.52943 0)
(8.38797 -3.45555 0)
(8.00647 -2.8112 0)
(7.64863 -2.42056 0)
(7.34864 -2.34849 0)
(7.13498 -2.18774 0)
(7.28616 -1.78332 0)
(7.17702 -1.32224 0)
(7.26781 -1.23826 0)
(6.85492 -1.38395 0)
(6.87303 -0.903771 0)
(7.14841 -0.319318 0)
(7.38068 0.55199 0)
(7.80757 0.868418 0)
(7.78979 1.02829 0)
(8.04922 0.0303878 0)
(7.90455 -1.13589 0)
(8.04529 -3.60013 0)
(7.54878 -5.17704 0)
(6.79819 -7.55089 0)
(7.18707 -8.45951 0)
(5.63421 -9.36234 0)
(6.09041 -9.99889 0)
(5.67123 -8.86295 0)
(5.60322 -7.38917 0)
(5.22856 -7.07513 0)
(5.73841 -5.7211 0)
(5.3631 -5.25582 0)
(5.77732 -4.23846 0)
(5.92715 -3.13025 0)
(6.44457 -1.85101 0)
(6.64615 -0.279867 0)
(7.10742 1.35773 0)
(7.03304 2.36681 0)
(7.47544 3.71066 0)
(7.77654 5.13 0)
(8.09639 6.16521 0)
(8.041 6.66558 0)
(8.25263 7.78055 0)
(8.98408 9.12286 0)
(9.16245 10.2634 0)
(9.31694 10.9641 0)
(9.08573 10.933 0)
(8.44612 10.3264 0)
(7.96251 9.56668 0)
(7.46977 8.54501 0)
(6.46902 7.52446 0)
(6.28557 6.41626 0)
(5.63301 5.35027 0)
(5.17322 4.55047 0)
(5.05716 3.78897 0)
(4.39023 3.0573 0)
(4.5356 2.52221 0)
(4.03852 2.00337 0)
(4.19696 1.3965 0)
(3.65413 0.995054 0)
(3.94905 0.8166 0)
(3.87181 0.488424 0)
(3.85668 0.494223 0)
(3.75872 0.02057 0)
(3.58644 0.454749 0)
(4.48566 0.0631253 0)
(4.06781 0.997487 0)
(5.56672 0.742821 0)
(3.38261 1.59078 0)
(6.24853 1.05363 0)
(3.19851 3.26466 0)
(6.97847 0.901943 0)
(5.60914 6.08388 0)
(7.75985 0.0230589 0)
(7.7357 0.0154536 0)
(7.75463 -0.0250877 0)
(7.81659 -0.105564 0)
(7.88746 -0.140207 0)
(7.95714 -0.153666 0)
(7.97648 -0.139481 0)
(7.99891 -0.0905256 0)
(7.99103 -0.0505459 0)
(8.00454 -0.00207793 0)
(8.00826 0.0269555 0)
(8.03955 0.0377123 0)
(8.05258 0.0354307 0)
(8.08842 0.0272515 0)
(8.11211 0.000107741 0)
(8.13057 -0.0134817 0)
(8.17684 -0.0342013 0)
(8.18261 -0.0623806 0)
(8.23259 -0.0582708 0)
(8.25647 -0.0813268 0)
(8.29193 -0.0758786 0)
(8.33555 -0.0665235 0)
(8.35983 -0.0740772 0)
(8.4231 -0.055676 0)
(8.43649 -0.0613289 0)
(8.53245 -0.0660819 0)
(8.5375 -0.0704105 0)
(8.65146 -0.102856 0)
(8.68277 -0.127704 0)
(8.76911 -0.181718 0)
(8.84476 -0.239453 0)
(8.88561 -0.303399 0)
(8.96603 -0.357731 0)
(8.96573 -0.394705 0)
(9.01767 -0.416755 0)
(8.99808 -0.413058 0)
(9.02416 -0.398298 0)
(9.04248 -0.341774 0)
(9.06329 -0.297627 0)
(9.13192 -0.243264 0)
(9.13851 -0.193698 0)
(9.18538 -0.149944 0)
(9.22968 -0.120412 0)
(9.29711 -0.105539 0)
(9.36054 -0.0631574 0)
(9.42346 -0.0596313 0)
(9.47246 -0.0225381 0)
(9.49981 0.0295673 0)
(9.55322 0.0364376 0)
(9.60971 0.0659177 0)
(9.63233 0.0934052 0)
(9.72241 0.076781 0)
(9.78795 0.0884984 0)
(9.84802 0.0745793 0)
(9.95933 0.0436017 0)
(10.0701 -0.00797488 0)
(10.1776 -0.0574194 0)
(10.3472 -0.13949 0)
(10.4855 -0.255919 0)
(10.6702 -0.353374 0)
(10.8258 -0.523249 0)
(11.0638 -0.664768 0)
(11.2037 -0.808709 0)
(11.4642 -1.04425 0)
(11.6391 -1.18042 0)
(11.8696 -1.38837 0)
(12.0865 -1.61498 0)
(12.272 -1.75577 0)
(12.5036 -2.00532 0)
(12.6401 -2.1689 0)
(12.8557 -2.3488 0)
(12.9125 -2.57146 0)
(13.0586 -2.68446 0)
(13.1143 -2.90053 0)
(13.1019 -3.0117 0)
(13.1068 -3.12055 0)
(13.0382 -3.23278 0)
(12.8885 -3.25876 0)
(12.8241 -3.31818 0)
(12.5932 -3.2982 0)
(12.4912 -3.35825 0)
(12.2779 -3.27266 0)
(12.1393 -3.2567 0)
(12.0191 -3.30012 0)
(11.8441 -3.22288 0)
(11.8051 -3.24944 0)
(11.695 -3.23674 0)
(11.725 -3.33487 0)
(11.7232 -3.32738 0)
(11.7535 -3.31798 0)
(11.8601 -3.33915 0)
(11.9248 -3.30215 0)
(12.1679 -3.26363 0)
(12.3849 -3.0067 0)
(12.6432 -2.83046 0)
(12.8828 -2.43588 0)
(13.0502 -2.0012 0)
(13.1971 -1.5011 0)
(13.3514 -0.814992 0)
(13.4374 -0.186428 0)
(13.4694 0.533587 0)
(13.5498 1.24601 0)
(13.439 1.93403 0)
(13.3526 2.60315 0)
(13.2178 3.1678 0)
(13.0518 3.61957 0)
(13.0734 4.07923 0)
(12.8959 4.36644 0)
(12.8415 4.55816 0)
(12.9116 4.75618 0)
(12.9068 4.82908 0)
(13.0899 4.84339 0)
(13.2488 4.90659 0)
(13.2111 4.69486 0)
(13.233 4.38116 0)
(13.1423 4.08502 0)
(12.9687 3.49338 0)
(12.8287 2.98818 0)
(12.66 2.44372 0)
(12.5028 1.7429 0)
(12.348 1.1631 0)
(12.2782 0.564409 0)
(12.1162 -0.172783 0)
(11.9636 -0.689659 0)
(11.8182 -1.157 0)
(11.6106 -1.8455 0)
(11.3577 -2.26693 0)
(11.0612 -2.62059 0)
(10.6528 -3.09135 0)
(10.1192 -3.28728 0)
(9.55332 -3.10734 0)
(8.94027 -3.03383 0)
(8.41585 -3.0625 0)
(8.01044 -2.55094 0)
(7.89476 -2.14689 0)
(7.54868 -2.19473 0)
(7.55793 -2.14474 0)
(7.40155 -1.82383 0)
(7.59001 -1.34925 0)
(7.40256 -1.09219 0)
(7.31832 -1.22687 0)
(6.97068 -1.03197 0)
(7.37378 -0.492575 0)
(7.39081 0.149021 0)
(7.92937 0.835477 0)
(7.93465 0.742844 0)
(8.12631 0.184602 0)
(8.16753 -1.31366 0)
(8.12567 -3.14671 0)
(7.53429 -4.94927 0)
(7.15702 -7.21435 0)
(6.72881 -7.75741 0)
(5.6723 -9.27702 0)
(6.27885 -9.57804 0)
(4.81974 -8.7069 0)
(5.79381 -7.43228 0)
(4.61102 -6.90677 0)
(5.36469 -5.73524 0)
(5.02232 -5.23738 0)
(4.95221 -4.50683 0)
(5.54758 -3.40594 0)
(5.69124 -2.09065 0)
(6.1296 -0.627324 0)
(6.68941 1.19802 0)
(6.72875 2.33213 0)
(6.96555 3.47075 0)
(7.48942 4.7576 0)
(7.72913 5.9775 0)
(8.02464 6.61739 0)
(7.95953 7.2634 0)
(8.60266 8.63063 0)
(9.11819 9.89716 0)
(9.31041 10.824 0)
(9.38843 11.1337 0)
(9.11546 10.7247 0)
(8.40354 10.0139 0)
(8.1832 9.08745 0)
(7.40478 7.9483 0)
(6.79905 6.77484 0)
(6.69488 5.6948 0)
(5.68571 4.82331 0)
(5.74102 4.10155 0)
(5.37523 3.31484 0)
(5.04184 2.61154 0)
(5.24868 1.91336 0)
(4.81972 1.57836 0)
(5.29901 1.11212 0)
(4.48022 1.01478 0)
(5.47735 0.132451 0)
(4.2576 0.50498 0)
(6.01416 -0.023712 0)
(3.92054 0.649434 0)
(6.66729 -0.327087 0)
(3.57959 0.864078 0)
(7.68962 -0.161723 0)
(4.0273 2.35751 0)
(8.30265 -0.24417 0)
(4.92227 3.7359 0)
(7.86599 0.00746097 0)
(6.49948 4.77345 0)
(10.0004 -0.0237059 0)
(10.0018 -0.140348 0)
(10.0189 -0.186717 0)
(10.1185 -0.204997 0)
(10.1428 -0.192975 0)
(10.2364 -0.158679 0)
(10.2104 -0.136284 0)
(10.2308 -0.0907634 0)
(10.2053 -0.0662836 0)
(10.196 -0.0392356 0)
(10.1875 -0.00266367 0)
(10.1957 -0.00190577 0)
(10.2103 0.0156748 0)
(10.2169 0.00561273 0)
(10.2646 -0.0134311 0)
(10.2477 -0.0190045 0)
(10.2986 -0.0582237 0)
(10.2948 -0.0680496 0)
(10.3101 -0.0895787 0)
(10.3534 -0.105942 0)
(10.3464 -0.103849 0)
(10.4131 -0.106009 0)
(10.408 -0.103395 0)
(10.486 -0.0963409 0)
(10.4751 -0.0952268 0)
(10.5673 -0.112331 0)
(10.5595 -0.106143 0)
(10.641 -0.153951 0)
(10.6716 -0.177737 0)
(10.7162 -0.212657 0)
(10.7771 -0.283945 0)
(10.7966 -0.312763 0)
(10.8505 -0.37433 0)
(10.8502 -0.400093 0)
(10.8642 -0.426201 0)
(10.8669 -0.42308 0)
(10.8462 -0.411809 0)
(10.881 -0.374077 0)
(10.8499 -0.328167 0)
(10.8954 -0.306366 0)
(10.896 -0.243163 0)
(10.9009 -0.204777 0)
(10.9516 -0.17044 0)
(10.9729 -0.130422 0)
(11.0464 -0.105758 0)
(11.0704 -0.0834008 0)
(11.1472 -0.0617609 0)
(11.1719 -0.0175867 0)
(11.2163 0.00629723 0)
(11.2703 0.0166198 0)
(11.3192 0.0472822 0)
(11.3579 0.0290982 0)
(11.4582 0.0242813 0)
(11.4981 0.0061598 0)
(11.5912 -0.0445009 0)
(11.7056 -0.0910394 0)
(11.7954 -0.166196 0)
(11.9329 -0.241984 0)
(12.0454 -0.365467 0)
(12.2009 -0.479047 0)
(12.3098 -0.618374 0)
(12.4955 -0.800246 0)
(12.6039 -0.940419 0)
(12.7555 -1.14559 0)
(12.9094 -1.33349 0)
(13.0223 -1.50199 0)
(13.1267 -1.72938 0)
(13.2623 -1.88238 0)
(13.2895 -2.09247 0)
(13.3741 -2.25386 0)
(13.4014 -2.41126 0)
(13.3305 -2.59692 0)
(13.3542 -2.68813 0)
(13.2199 -2.85339 0)
(13.1411 -2.97218 0)
(13.0357 -3.04296 0)
(12.8556 -3.12969 0)
(12.6897 -3.15401 0)
(12.5406 -3.13269 0)
(12.4014 -3.17008 0)
(12.2649 -3.18787 0)
(12.1847 -3.14424 0)
(12.0489 -3.138 0)
(11.9117 -3.17577 0)
(11.9047 -3.15829 0)
(11.8741 -3.22719 0)
(11.7986 -3.30946 0)
(11.8364 -3.32269 0)
(11.7942 -3.37135 0)
(11.8057 -3.46169 0)
(11.8729 -3.49877 0)
(11.9581 -3.4515 0)
(12.2388 -3.46561 0)
(12.3763 -3.23388 0)
(12.6015 -3.094 0)
(12.8297 -2.66228 0)
(12.9446 -2.1419 0)
(13.1724 -1.63901 0)
(13.2959 -0.86265 0)
(13.402 -0.246312 0)
(13.5051 0.497601 0)
(13.6424 1.24414 0)
(13.6088 1.90532 0)
(13.6377 2.63571 0)
(13.5538 3.22737 0)
(13.3637 3.72087 0)
(13.3699 4.15233 0)
(13.1386 4.4728 0)
(13.0147 4.64569 0)
(12.9424 4.79915 0)
(12.7731 4.77165 0)
(12.8049 4.73267 0)
(12.9499 4.74914 0)
(12.9654 4.56348 0)
(13.1021 4.34643 0)
(13.1423 4.11716 0)
(13.0707 3.53929 0)
(13.0473 3.08179 0)
(12.9343 2.56938 0)
(12.8194 1.84504 0)
(12.6568 1.31935 0)
(12.5438 0.704099 0)
(12.3975 -0.0514131 0)
(12.1711 -0.523464 0)
(11.9285 -0.980402 0)
(11.7055 -1.66763 0)
(11.3222 -2.01925 0)
(10.9459 -2.29299 0)
(10.448 -2.70606 0)
(9.9527 -2.82295 0)
(9.2889 -2.62297 0)
(8.90604 -2.57457 0)
(8.4201 -2.71489 0)
(8.18549 -2.36991 0)
(8.08266 -1.96718 0)
(7.8687 -2.03535 0)
(7.72306 -2.10828 0)
(7.73976 -1.83528 0)
(7.72664 -1.37734 0)
(7.75007 -1.01197 0)
(7.44785 -1.03815 0)
(7.30736 -1.05707 0)
(7.31322 -0.579869 0)
(7.60358 -0.0369647 0)
(7.72917 0.684073 0)
(8.05383 0.667041 0)
(7.86657 0.143823 0)
(8.3864 -1.35834 0)
(7.79297 -2.7984 0)
(7.70571 -4.78536 0)
(6.81305 -6.47167 0)
(6.45917 -7.47739 0)
(5.93114 -8.84712 0)
(5.7143 -8.91281 0)
(4.54601 -8.62298 0)
(5.69383 -7.14895 0)
(3.8818 -6.8797 0)
(5.21372 -5.66176 0)
(4.20865 -5.1042 0)
(4.27987 -4.74854 0)
(5.07632 -3.50195 0)
(4.73394 -2.59583 0)
(5.72776 -0.963164 0)
(5.88392 0.706585 0)
(6.51666 2.09706 0)
(6.46247 3.14119 0)
(7.13007 4.58494 0)
(7.29067 5.64426 0)
(7.60607 6.60953 0)
(7.73949 7.21203 0)
(8.06969 8.23017 0)
(8.89036 9.6225 0)
(9.33435 10.6474 0)
(9.34914 11.2275 0)
(9.53346 11.087 0)
(8.96395 10.333 0)
(8.50484 9.54261 0)
(8.40901 8.49616 0)
(7.44299 7.34726 0)
(7.26436 6.25368 0)
(6.81425 5.28748 0)
(6.04577 4.30316 0)
(6.73784 3.27298 0)
(5.53839 2.82781 0)
(6.7003 1.93025 0)
(5.24351 1.77341 0)
(6.80357 0.935568 0)
(5.10309 1.10775 0)
(7.51251 0.107733 0)
(4.69017 0.690407 0)
(7.99253 -0.446873 0)
(4.54113 0.855863 0)
(8.65441 -0.897986 0)
(4.76896 1.44195 0)
(8.76658 -1.15169 0)
(5.24778 2.50572 0)
(8.76794 -0.620955 0)
(6.38264 3.57958 0)
(8.72976 0.824287 0)
(7.1759 3.67071 0)
(11.4792 -0.0370438 0)
(11.5586 -0.193766 0)
(11.6189 -0.257178 0)
(11.7774 -0.278973 0)
(11.785 -0.225994 0)
(11.8612 -0.199848 0)
(11.8411 -0.147339 0)
(11.839 -0.0953445 0)
(11.8336 -0.0705009 0)
(11.8229 -0.033156 0)
(11.8246 -0.00706273 0)
(11.8097 -0.0015295 0)
(11.8314 0.0126208 0)
(11.8033 0.00350736 0)
(11.863 -0.0269376 0)
(11.8225 -0.0174321 0)
(11.8728 -0.0673699 0)
(11.8573 -0.0834827 0)
(11.8618 -0.0853993 0)
(11.8811 -0.137761 0)
(11.8681 -0.116205 0)
(11.9032 -0.13381 0)
(11.8996 -0.143127 0)
(11.9516 -0.126641 0)
(11.9489 -0.134104 0)
(12.0163 -0.154092 0)
(12.02 -0.136118 0)
(12.0649 -0.186246 0)
(12.1065 -0.212321 0)
(12.1127 -0.222946 0)
(12.1624 -0.305498 0)
(12.1595 -0.31357 0)
(12.1878 -0.37001 0)
(12.1762 -0.400507 0)
(12.1641 -0.408017 0)
(12.1612 -0.422923 0)
(12.1192 -0.399878 0)
(12.1348 -0.378808 0)
(12.0845 -0.33695 0)
(12.0925 -0.315703 0)
(12.0881 -0.268132 0)
(12.0545 -0.221916 0)
(12.0881 -0.206865 0)
(12.0872 -0.155359 0)
(12.1387 -0.133275 0)
(12.1563 -0.112696 0)
(12.2277 -0.0795803 0)
(12.2571 -0.0561947 0)
(12.3041 -0.0280885 0)
(12.3487 -0.0132625 0)
(12.4097 -0.00467657 0)
(12.4436 -0.0153176 0)
(12.537 -0.0374442 0)
(12.5884 -0.0560877 0)
(12.6639 -0.121136 0)
(12.7748 -0.162813 0)
(12.8433 -0.240934 0)
(12.9549 -0.335758 0)
(13.0277 -0.445313 0)
(13.1489 -0.575812 0)
(13.1923 -0.712455 0)
(13.3204 -0.884728 0)
(13.3676 -1.04012 0)
(13.4259 -1.21694 0)
(13.5063 -1.40566 0)
(13.5183 -1.57371 0)
(13.5272 -1.76439 0)
(13.5598 -1.92813 0)
(13.4664 -2.1029 0)
(13.4755 -2.25094 0)
(13.3516 -2.38745 0)
(13.2309 -2.55243 0)
(13.1696 -2.64159 0)
(12.9574 -2.78514 0)
(12.8473 -2.87861 0)
(12.7019 -2.92262 0)
(12.5045 -3.02731 0)
(12.4249 -3.03802 0)
(12.3022 -3.04757 0)
(12.1954 -3.09571 0)
(12.1026 -3.09152 0)
(12.1182 -3.11161 0)
(11.965 -3.11983 0)
(11.9474 -3.10485 0)
(11.953 -3.15495 0)
(11.9042 -3.24862 0)
(11.8497 -3.26921 0)
(11.7795 -3.29132 0)
(11.6753 -3.40748 0)
(11.6775 -3.48692 0)
(11.7189 -3.54698 0)
(11.781 -3.59677 0)
(11.9285 -3.61925 0)
(12.0288 -3.45377 0)
(12.1975 -3.24012 0)
(12.3894 -2.79053 0)
(12.5129 -2.29635 0)
(12.6934 -1.7729 0)
(12.8377 -0.997058 0)
(12.9707 -0.399696 0)
(13.078 0.391198 0)
(13.318 1.15934 0)
(13.3828 1.79263 0)
(13.4839 2.57546 0)
(13.5705 3.21743 0)
(13.4984 3.75619 0)
(13.4669 4.21131 0)
(13.3438 4.56931 0)
(13.1788 4.75567 0)
(13.0352 4.90631 0)
(12.8221 4.87722 0)
(12.6973 4.74472 0)
(12.6429 4.69169 0)
(12.5959 4.4362 0)
(12.6657 4.20408 0)
(12.7624 3.97558 0)
(12.7302 3.47355 0)
(12.7647 3.06005 0)
(12.7436 2.55708 0)
(12.6139 1.86275 0)
(12.533 1.38269 0)
(12.3624 0.792296 0)
(12.2519 0.09372 0)
(11.9472 -0.324197 0)
(11.7398 -0.807822 0)
(11.4445 -1.45108 0)
(11.0493 -1.70138 0)
(10.5708 -1.91721 0)
(10.1038 -2.28343 0)
(9.69491 -2.37218 0)
(9.10633 -2.23785 0)
(8.89074 -2.26819 0)
(8.50291 -2.46358 0)
(8.33326 -2.25372 0)
(8.21046 -1.89376 0)
(8.0857 -1.88405 0)
(7.91012 -2.03092 0)
(7.92879 -1.83312 0)
(7.88575 -1.37828 0)
(7.88218 -0.89619 0)
(7.72694 -0.893213 0)
(7.37301 -0.933517 0)
(7.42636 -0.714527 0)
(7.52662 -0.112658 0)
(7.76089 0.494789 0)
(7.79168 0.692538 0)
(7.81622 -0.0371661 0)
(8.00857 -1.23967 0)
(7.63536 -2.73499 0)
(7.40518 -4.26686 0)
(6.56659 -6.02516 0)
(6.24903 -7.29748 0)
(5.65234 -8.22635 0)
(5.17918 -8.60583 0)
(4.66444 -8.37352 0)
(4.98672 -6.8061 0)
(3.4634 -6.79396 0)
(4.87002 -5.29755 0)
(3.41797 -5.01445 0)
(4.03165 -4.87549 0)
(4.13105 -3.5566 0)
(4.11975 -2.92122 0)
(4.71997 -1.28011 0)
(5.23555 0.413329 0)