/*--------------------------------*- C++ -*----------------------------------*\
| =========                 |                                                 |
| \\      /  F ield         | OpenFOAM: The Open Source CFD Toolbox           |
|  \\    /   O peration     | Version:  2.4.0                                 |
|   \\  /    A nd           | Web:      www.OpenFOAM.org                      |
|    \\/     M anipulation  |                                                 |
\*---------------------------------------------------------------------------*/
FoamFile
{
    version     2.0;
    format      ascii;
    class       volScalarField;
    location    "1.84";
    object      pPrime2Mean;
}
// * * * * * * * * * * * * * * * * * * * * * * * * * * * * * * * * * * * * * //

dimensions      [0 4 -4 0 0 0 0];

internalField   nonuniform List<scalar> 
8800
(
351598
342732
333219
323787
314484
305316
296284
287386
278624
269997
261503
253142
244911
236807
228819
220935
213123
205324
197396
188897
351610
342733
333218
323787
314484
305316
296284
287386
278624
269997
261503
253142
244912
236808
228821
220940
213131
205342
197439
189041
351618
342733
333216
323785
314484
305316
296284
287386
278624
269997
261503
253143
244913
236810
228826
220948
213148
205377
197519
189321
351624
342732
333213
323784
314483
305316
296284
287386
278624
269997
261504
253144
244915
236814
228832
220960
213171
205426
197631
189648
351629
342732
333212
323782
314482
305315
296283
287386
278624
269997
261504
253145
244917
236818
228840
220976
213202
205486
197765
189985
351633
342733
333210
323781
314482
305315
296283
287386
278624
269997
261505
253147
244920
236823
228850
220994
213237
205556
197912
190314
351636
342733
333209
323779
314481
305315
296283
287386
278624
269998
261506
253148
244923
236829
228861
221015
213277
205633
198066
190627
351639
342733
333208
323779
314481
305315
296284
287386
278625
269998
261507
253150
244927
236836
228874
221037
213319
205713
198221
190918
351640
342734
333208
323778
314480
305315
296284
287386
278625
269999
261508
253152
244931
236843
228887
221061
213363
205794
198373
191186
351641
342734
333208
323778
314480
305315
296284
287386
278625
269999
261509
253154
244935
236850
228900
221085
213408
205875
198518
191430
351641
342734
333208
323778
314480
305315
296284
287387
278625
270000
261510
253156
244939
236857
228913
221109
213452
205954
198655
191650
351640
342734
333208
323778
314480
305316
296284
287387
278626
270001
261512
253159
244943
236864
228926
221133
213494
206028
198781
191846
351638
342734
333208
323779
314481
305316
296284
287387
278626
270001
261513
253161
244947
236871
228939
221155
213534
206097
198896
192020
351636
342733
333209
323780
314481
305316
296284
287387
278627
270002
261514
253163
244950
236878
228950
221176
213570
206159
198997
192171
351633
342733
333210
323781
314482
305316
296284
287388
278627
270003
261515
253165
244953
236883
228961
221194
213602
206214
199085
192299
351629
342733
333212
323782
314483
305316
296284
287388
278628
270003
261516
253166
244956
236889
228970
221210
213630
206261
199159
192406
351624
342733
333214
323784
314483
305316
296285
287388
278628
270004
261517
253168
244959
236893
228977
221224
213653
206299
199219
192491
351618
342733
333216
323786
314484
305317
296285
287389
278629
270005
261518
253169
244960
236896
228983
221234
213670
206328
199263
192555
351610
342733
333218
323787
314485
305317
296285
287389
278629
270005
261518
253169
244962
236898
228987
221241
213682
206347
199293
192597
351598
342732
333219
323788
314485
305317
296285
287389
278629
270005
261518
253170
244962
236899
228989
221244
213688
206357
199308
192617
181195
179121
177538
176170
174901
173694
172530
171399
170293
169207
168137
167080
166035
165000
163973
162953
161939
160931
159927
158928
157932
156941
155955
154973
153995
153021
152050
151083
150119
149159
148202
147249
146300
145356
144416
143482
142553
141628
140708
139791
138877
137967
137058
136153
135250
134350
133453
132559
131669
130782
129898
129018
128139
127263
126390
125520
124653
123789
122928
122071
121215
120362
119511
118663
117816
116972
116131
115293
114459
113628
112800
111974
111149
110327
109507
108689
107872
107059
106249
105443
104642
103845
103053
102266
101483
100703
99927.2
99154.5
98384.9
97618.3
96854.4
96093
95333.6
94576.3
93820.7
93067.4
92315.9
91567.1
90820.3
90076.6
89335.7
88598.6
87864.8
87135.5
86410
85689.3
84972.8
84261.1
83553.4
82850.4
82151.2
81456.5
80765.3
80078.1
79393.7
78712.5
78033.5
77357.3
76683.3
76012.5
75344.5
74679.9
74017.7
73358.6
72700.9
72046.4
71392.9
70742.8
70093.7
69447.6
68802.6
68159.8
67518.2
66878.3
66240.2
65604.1
64970.4
64339.1
63710.6
63085.5
62463.3
61844.8
61229.4
60617.5
60008.8
59403.2
58800.7
58201.4
57604.7
57010.9
56419.5
55830.7
55243.8
54659.1
54076.3
53495.8
52917.3
52342.1
51769.6
51200.5
50634.4
50072.5
49513.9
48960.5
48410.6
47866.5
47326
46792.2
46262.1
45739.6
45219.8
44709
44198.1
43698.2
43195.9
42705.8
42211.3
41730.5
41243
40769.6
40289.3
39822.2
39348.4
38884.4
38415.2
37950.3
37480.8
37011.5
36534.8
36054.7
35562.6
35062.1
34543.5
34009.1
33447.2
32858.6
32226.8
31538.9
30806.9
29913.9
182672
180462
178660
177108
175704
174392
173143
171941
170775
169637
168522
167426
166345
165279
164224
163179
162143
161115
160093
159077
158068
157063
156065
155072
154084
153101
152122
151148
150177
149211
148249
147291
146338
145390
144447
143509
142576
141647
140723
139803
138887
137974
137063
136156
135251
134350
133451
132556
131665
130777
129892
129010
128131
127254
126381
125510
124643
123779
122918
122060
121204
120351
119500
118651
117805
116961
116120
115282
114448
113616
112787
111961
111137
110315
109495
108678
107863
107050
106242
105437
104637
103842
103052
102266
101484
100706
99931.6
99160.3
98392.1
97626.7
96864
96103.4
95344.8
94588.1
93833.2
93080.2
92329.2
91580.6
90834.3
90090.9
89350.4
88613.5
87880.2
87151
86426
85705.1
84988.7
84276.6
83568.9
82865.6
82166.5
81471.5
80780.4
80092.8
79408.2
78726.3
78047
77370.3
76696.3
76025.8
75358.3
74694.4
74033
73374.6
72718
72064.1
71411.7
70761.7
70113.3
69466.9
68822.1
68178.9
67537.2
66897.2
66259.3
65623.5
64990.2
64359.8
63732.1
63108
62487
61869.6
61255.7
60645
60037.6
59433.3
58832.2
58233.9
57638.4
57045.4
56455.2
55867.1
55280.8
54696.3
54113.5
53532.6
52953.6
52377.3
51803.6
51232.8
50665.3
50101.6
49541.1
48985.2
48432.6
47884.9
47340.9
46802.6
46267.7
45740
45214.2
44696.8
44179
43670.8
43160.4
42661.1
42157.6
41665.6
41168.4
40681.7
40190.9
39707.9
39222.6
38740.7
38257.8
37774.2
37288.2
36798.6
36303.5
35800.2
35287.2
34758.8
34214.7
33645.3
33051.1
32410.5
31745.4
30961
30172.1
29291.1
183697
181505
179619
177957
176452
175053
173730
172464
171242
170055
168897
167763
166649
165552
164470
163401
162343
161295
160256
159224
158200
157183
156173
155169
154171
153179
152192
151211
150234
149262
148295
147332
146375
145423
144476
143534
142597
141665
140738
139815
138895
137979
137067
136157
135251
134348
133448
132552
131659
130770
129884
129001
128121
127244
126371
125500
124632
123768
122907
122048
121192
120339
119488
118640
117794
116950
116109
115272
114437
113605
112776
111950
111126
110304
109485
108668
107854
107043
106236
105433
104634
103841
103052
102268
101488
100711
99938.3
99168.4
98401.7
97637.7
96876
96116.5
95358.7
94602.7
93848.4
93096
92345.5
91597.3
90851.6
90108.7
89369
88632.6
87899.9
87170.9
86446.1
85725.1
85008.5
84296.1
83588.2
82884.5
82185.3
81489.9
80798.5
80110.3
79425.2
78742.6
78062.8
77385.7
76712
76041.9
75375.2
74712
74051.6
73394
72738.6
72085.3
71433.9
70784.1
70136.2
69489.4
68844.5
68200.7
67558.8
66918.6
66280.8
65645.4
65012.5
64382.8
63756.2
63133.1
62513.4
61897.4
61285
60676
60070.1
59467.2
58867.5
58270.3
57675.9
57083.9
56494.7
55907.3
55321.5
54737.2
54154.2
53572.4
52992.8
52415.1
51840
51267.4
50698.3
50132.8
49570.3
49011.9
48456.7
47905.4
47357.9
46815.4
46275.7
45742.5
45210.6
44685.9
44160.8
43643.8
43125.3
42615.4
42103.6
41599.2
41093.5
40592.7
40092.4
39593.6
39096.8
38598
38101.3
37599.3
37098.2
36587.7
36077.3
35550.4
35020.4
34464
33901.6
33294.6
32685.7
31990.4
31314.7
30486.4
29669.8
28828.2
184479
182344
180434
178711
177135
175668
174283
172960
171688
170456
169258
168088
166942
165817
164709
163617
162538
161470
160414
159367
158329
157299
156277
155263
154256
153255
152261
151272
150289
149311
148339
147372
146410
145454
144503
143558
142618
141682
140752
139825
138903
137985
137070
136158
135250
134346
133445
132547
131653
130763
129876
128992
128112
127234
126360
125489
124621
123756
122895
122036
121180
120327
119477
118628
117783
116940
116099
115262
114427
113595
112766
111940
111116
110295
109476
108660
107847
107038
106232
105430
104634
103842
103055
102272
101494
100719
99947.2
99178.9
98413.6
97650.9
96890.4
96131.8
95374.8
94619.5
93865.9
93114.1
92364.4
91616.8
90872
90129.9
89391.1
88655.3
87923.1
87194.2
86469.4
85748.1
85031.2
84318.3
83610
82905.8
82206.3
81510.3
80818.4
80129.3
79443.5
78759.9
78079.7
77402.4
76729.1
76059.5
75393.8
74731.4
74072.2
73415.4
72761.1
72108.3
71457.7
70808.3
70160.5
69513.5
68868.2
68223.7
67581.7
66941.2
66303.5
65668.3
65036.1
64406.9
63781.5
63159.4
62541.1
61926.5
61315.7
60708.2
60103.9
59502.4
58904.2
58308
57715
57124
56536
55949
55363.7
54779.1
54196
53613.1
53032.4
52453
51876
51301.8
50731.4
50163.5
49599.4
49038.3
48480.8
47926.1
47375.5
46828.6
46284.5
45745.3
45207.8
44675.2
44143
43616.1
43090.1
42569.1
42049.4
41532.8
41018.4
40504.4
39994
39480.6
38971.8
38456.8
37947.2
37426.7
36913.3
36381.2
35858.7
35306.5
34766.1
34178.2
33609
32961.5
32348.4
31613
30916.8
30102.7
29289.5
28481.3
185109
183032
181126
179374
177752
176234
174798
173427
172111
170839
169604
168401
167225
166072
164940
163825
162726
161640
160567
159506
158454
157412
156380
155355
154339
153330
152328
151332
150343
149360
148383
147411
146446
145486
144531
143582
142638
141700
140766
139836
138911
137990
137073
136160
135250
134344
133442
132543
131648
130757
129869
128984
128103
127225
126351
125479
124611
123746
122884
122025
121170
120316
119466
118618
117773
116930
116090
115253
114419
113587
112759
111932
111109
110288
109470
108655
107843
107034
106230
105430
104635
103845
103059
102278
101501
100728
99957.7
99190.9
98427.2
97665.8
96906.5
96148.8
95392.8
94638.2
93885.5
93134.3
92385.4
91638.7
90894.9
90153.6
89415.6
88680.2
87948.3
87219.4
86494.3
85772.6
85055.2
84341.6
83632.9
82928.2
82228.1
81531.5
80838.9
80148.9
79462.3
78777.9
78097.3
77419.8
76746.8
76077.5
75412.8
74751.1
74092.9
73436.8
72783.3
72131.2
71481.3
70832.1
70184.2
69536.7
68891
68246.2
67604
66963.4
66326
65691
65059.4
64430.8
63806.6
63185.2
62568.4
61955
61345.8
60739.5
60137
59536.7
58940
58345.2
57753.6
57163.7
56576.8
55989.7
55404.8
54819.6
54236.2
53652
53070.3
52488.7
51910.2
51333.8
50762.5
50191.8
49626.5
49062.5
48502.8
47945.1
47391.6
46840.4
46292.1
45746.9
45204
44663
44124.3
43587.5
43054.2
42522.7
41994.9
41467.1
40943.9
40417.3
39896.9
39369.3
38850
38318.2
37798.6
37258.3
36735.1
36181
35649.6
35072
34523.9
33907.7
33329.4
32656.3
32024.8
31286.8
30566.3
29789.7
28998.2
28211.6
185639
183612
181719
179955
178305
176749
175272
173862
172507
171200
169932
168698
167495
166317
165161
164025
162907
161804
160716
159640
158576
157522
156479
155445
154420
153403
152394
151392
150397
149409
148427
147451
146481
145517
144559
143606
142659
141718
140781
139848
138921
137998
137078
136163
135252
134344
133441
132541
131645
130752
129864
128978
128096
127218
126343
125471
124603
123738
122876
122017
121161
120308
119458
118610
117765
116923
116084
115247
114413
113581
112753
111926
111103
110282
109465
108650
107839
107032
106229
105431
104637
103849
103065
102285
101509
100737
99969
99203.8
98441.7
97681.8
96923.8
96167.1
95412.2
94658.6
93906.6
93156.2
92408.1
91662.3
90919.2
90178.7
89441.1
88706
87974.2
87245
86519.3
85797
85079
84364.9
83655.6
82950.3
82249.6
81552.3
80859
80168.3
79480.9
78795.9
78114.8
77437
76764
76094.8
75430.4
74769.1
74111.6
73456
72803.1
72151.6
71502.2
70853.1
70205.3
69557.4
68911.3
68266.3
67624
66983.5
66346.3
65711.5
65080.3
64452.2
63828.6
63208.2
62592.8
61980.8
61373.2
60768.1
60167.1
59567.9
58972.7
58379.2
57788.9
57200.1
56614
56026.5
55441.9
54856
54272.2
53686.5
53104.2
52520.4
51941.2
51362.8
50789.9
50216.7
49650
49083.1
48521.5
47960.5
47404.4
46849
46297
45745.5
45197.6
44648.1
44103.2
43557.3
43017
42475.4
41940.4
41401.3
40870.5
40331.5
39802.1
39260.5
38732.2
38184.9
37655.2
37098.7
36564.3
35993.8
35449.8
34856.2
34292.3
33662.6
33064.1
32387.4
31733.4
31012.7
30285.5
29537.1
28765.3
27991.1
186094
184109
182232
180464
178795
177213
175705
174263
172876
171537
170240
168980
167750
166549
165372
164217
163081
161962
160859
159770
158693
157629
156576
155532
154499
153474
152458
151450
150450
149457
148470
147490
146516
145549
144587
143631
142681
141737
140797
139862
138932
138007
137086
136169
135256
134347
133442
132541
131644
130751
129861
128975
128093
127214
126338
125467
124598
123733
122870
122011
121155
120302
119452
118605
117760
116918
116079
115242
114408
113577
112748
111922
111099
110278
109461
108647
107837
107031
106230
105433
104641
103853
103070
102292
101518
100747
99980.6
99217
98456.5
97698.2
96941.6
96186.2
95432.3
94679.5
93928.3
93178.5
92431.1
91685.9
90943.3
90203
89465.6
88730.6
87998.5
87268.8
86542.7
85819.8
85101.1
84386.4
83676.6
82970.6
82269.1
81571.3
80877.4
80186.2
79498.2
78812.7
78131
77452.7
76779.3
76109.7
75445
74783.5
74125.9
73470.5
72818.1
72167.1
71518.3
70869.5
70221.9
69573.8
68927.7
68282.4
67640.1
66999.5
66362.3
65727.8
65096.7
64469.1
63846
63226.9
62612.8
62002.4
61396.3
60792.8
60193.1
59594.7
59000.6
58407.8
57818.7
57230.4
56644.8
56056.9
55472.5
54885.8
54301.7
53714.9
53131.7
52545.8
51965.7
51386.3
50811.2
50236.2
49667.5
49098.2
48534.5
47970.6
47411.7
46852.4
46296.7
45740
45186.2
44629.9
44078.1
43524.7
42976.8
42427
41884
41336.1
40796.7
40248.2
39708.5
39157.2
38616.6
38059.9
37516.1
36950.2
36400.5
35821.8
35260.9
34661.1
34079.3
33446.2
32830.5
32159.2
31493.8
30790.8
30067.1
29333
28571.9
27805
186488
184536
182678
180911
179231
177629
176098
174630
173216
171850
170528
169243
167991
166768
165572
164399
163246
162112
160995
159894
158806
157731
156668
155617
154575
153544
152521
151507
150502
149503
148512
147528
146551
145580
144615
143657
142704
141756
140814
139877
138945
138017
137094
136176
135262
134352
133446
132543
131645
130751
129861
128974
128091
127212
126336
125464
124595
123730
122867
122008
121152
120299
119448
118601
117756
116914
116075
115238
114404
113572
112744
111918
111095
110275
109458
108645
107836
107031
106231
105435
104644
103858
103076
102299
101526
100757
99991.7
99229.5
98470.7
97713.9
96958.8
96204.6
95451.7
94699.5
93948.8
93199.4
92452.4
91707.4
90965
90224.6
89486.8
88751.7
88019.3
87289.2
86562.6
85839.1
85119.8
84404.5
83693.9
82987.1
82285.1
81586.8
80892.3
80200.6
79512.2
78826.4
78144.1
77465.2
76791.1
76120.7
75455
74792.6
74134.5
73478.9
72826.5
72175.8
71527.5
70879.2
70231.9
69584
68938
68292.7
67650.4
67009.7
66372.4
65737.9
65107.1
64480.1
63857.8
63240
62627.5
62018.9
61414.1
60812.6
60213.4
59616.1
59022.8
58430.3
57841.5
57253.7
56668.2
56079.4
55495.1
54907.9
54322.8
53735.4
53151.4
52564.4
51982.7
51402.1
50824.5
50248.7
49677.1
49105.9
48539.5
47973.8
47412.1
46849.9
46290.2
45729.9
45170.1
44608.7
44049.3
43489.6
42934.7
42378.1
41827.1
41273
40724.1
40169.1
39618.4
39060.6
38507.2
37943.9
37386.6
36814.3
36250.6
35667.7
35093
34490.1
33895.1
33262.8
32637
31974.1
31303.6
30612.8
29891.9
29162.8
28407.4
27646
186836
184911
183068
181303
179617
178002
176452
174962
173526
172138
170793
169487
168215
166973
165759
164570
163402
162254
161124
160011
158913
157828
156757
155697
154648
153610
152582
151562
150551
149549
148554
147566
146585
145611
144643
143682
142726
141776
140832
139893
138959
138029
137105
136185
135269
134358
133451
132548
131649
130754
129863
128976
128092
127212
126336
125463
124594
123728
122865
122006
121149
120296
119445
118597
117752
116910
116070
115233
114399
113568
112739
111914
111091
110272
109456
108644
107836
107032
106232
105437
104647
103862
103081
102305
101534
100766
100002
99240.7
98483.3
97728
96974.2
96221
95468.7
94717
93966.5
93217.2
92470.1
91724.8
90981.9
90241.1
89503.1
88767.6
88034.8
87304.3
86577.1
85853
85133.1
84417
83705.5
82998
82295.3
81596.4
80901.4
80209.4
79520.6
78834.4
78151.6
77472.2
76797.1
76125.7
75458.8
74795.2
74136.1
73479.8
72827.1
72176.6
71528.6
70880.9
70233.9
69586.6
68940.9
68296.1
67654
67013.3
66376
65741.7
65111.3
64485.2
63864.1
63247.3
62636.7
62029.6
61426
60826.3
60227.7
59631.2
59038.3
58446
57856.8
57269.2
56682.8
56093.6
55509.3
54921.1
54334.9
53747.9
53162
52575.2
51992
51411.9
50830
50254.1
49678.8
49106.6
48536.1
47970.7
47404.9
46842.2
46277.5
45715.5
45148.3
44583.2
44017.1
43452.4
42890.8
42329.7
41770.3
41213.9
40654.2
40095.6
39534.8
38971.7
38407.8
37839.5
37270.6
36694.6
36120.1
35535
34950.4
34347.5
33743.5
33114.3
32481.1
31826.1
31150.8
30465.5
29746.1
29018.1
28267.9
27511.8
187142
185239
183408
181648
179957
178332
176769
175262
173808
172401
171037
169712
168422
167163
165933
164729
163547
162387
161245
160121
159013
157920
156840
155773
154717
153673
152639
151614
150599
149592
148593
147602
146618
145640
144670
143706
142748
141796
140850
139908
138973
138042
137116
136195
135278
134365
133457
132553
131653
130758
129866
128978
128094
127213
126337
125463
124594
123727
122864
122004
121147
120293
119442
118593
117748
116905
116065
115228
114394
113563
112734
111909
111087
110269
109454
108642
107835
107032
106233
105439
104649
103865
103085
102310
101539
100772
100009
99249.7
98493.7
97739.6
96986.9
96234.3
95482.2
94730.5
93979.6
93229.8
92482.1
91736.3
90992.7
90251.3
89512.8
88777.1
88043.8
87312.8
86584.8
85860
85139.2
84422.2
83709.7
83001.6
82298.1
81598.7
80903.2
80210.7
79521.4
78834.9
78151.6
77471.6
76795.8
76123.5
75455.5
74790.8
74130.3
73472.9
72819.6
72168.7
71520.9
70873.9
70227.7
69581.6
68936.5
68292.4
67650.8
67010.4
66373.7
65739.9
65110.4
64485.5
63865.6
63250.2
62640.8
62035
61432.2
60833.1
60235.4
59639.4
59046.5
58453.7
57864.4
57277
56687.9
56100.9
55514.2
54926
54338.5
53752.3
53164
52577.5
51992.7
51415
50827.8
50253.9
49671.9
49102.4
48525.3
47962
47390.6
46829.4
46258.4
45696.8
45121.3
44554.1
43981.6
43414.1
42846.2
42283.9
41715.7
41160
40590.3
40029.1
39461.2
38893.9
38322
37750.6
37171.4
36592.9
36010
35425
34832.4
34232.3
33619.3
32994.4
32353
31702.4
31022.9
30338.4
29621.3
28895.3
28151.2
27400.8
187412
185525
183706
181949
180257
178625
177050
175530
174061
172638
171258
169916
168611
167337
166093
164875
163681
162509
161357
160223
159106
158005
156917
155843
154782
153731
152692
151663
150643
149632
148630
147635
146648
145668
144696
143729
142769
141815
140867
139924
138987
138054
137127
136204
135286
134373
133464
132559
131658
130761
129869
128980
128095
127214
126337
125463
124593
123726
122862
122001
121144
120289
119438
118589
117743
116900
116060
115223
114388
113557
112729
111904
111083
110265
109451
108641
107834
107032
106233
105440
104651
103866
103087
102312
101542
100776
100014
99255.6
98500.9
97747.6
96995.6
96242.9
95490.6
94738.4
93986.8
93236
92487.5
91740.8
90996.4
90254.2
89515.4
88779.2
88045.5
87313.8
86585
85859.2
85137.4
84419.4
83706.1
82997.3
82293.4
81593.2
80897
80203.9
79514.3
78827.4
78143.7
77463.3
76786.8
76113.8
75444.7
74778.9
74117.1
73458.6
72804.3
72153.2
71505.4
70858.6
70213.5
69568.7
68924.9
68282.1
67641.4
67002.1
66366.4
65733.6
65105.4
64481.5
63863.2
63248.9
62640.3
62035.4
61432.8
60833.5
60236.8
59639.8
59047
58453.6
57863.9
57276
56685
56099.9
55509.9
54923.6
54334.3
53748.3
53159.2
52573.3
51987.1
51409.7
50820
50247.5
49658
49091.4
48507.3
47946.3
47369.4
46811.3
46233.1
45672.9
45089.7
44522.7
43944.9
43376.3
42802.6
42239.8
41664.5
41110.7
40533.9
39970.7
39398.4
38825.4
38249
37675.7
37087.9
36511.5
35921.1
35337.9
34734.5
34137.8
33515.3
32892.5
32243.9
31593.7
30912.7
30228.4
29515.1
28793
28056
27311.3
187647
185775
183965
182212
180519
178881
177299
175768
174286
172849
171456
170101
168782
167495
166238
165008
163803
162621
161459
160317
159191
158082
156988
155908
154841
153785
152741
151708
150684
149670
148664
147667
146677
145695
144719
143751
142789
141833
140883
139939
139000
138067
137138
136214
135295
134380
133470
132564
131662
130765
129871
128982
128096
127215
126336
125462
124591
123723
122859
121998
121140
120285
119433
118584
117738
116894
116054
115217
114382
113551
112724
111899
111079
110262
109449
108639
107833
107031
106233
105440
104651
103866
103087
102312
101542
100776
100015
99257.5
98503.3
97750.2
96998.5
96245.3
95492.8
94739.8
93987.4
93235.2
92485.9
91738
90992.9
90249.8
89510.7
88773.9
88039.9
87307.3
86577.8
85850.9
85128.2
84409.5
83695.7
82986.2
82281.8
81581
80884.2
80190.3
79500.5
78813.2
78129.3
77448.5
76771.5
76097.5
75427.6
74760.5
74097.7
73438.2
72783.2
72131.6
71483.8
70837.4
70193.3
69549.6
68907.7
68266.5
67627.3
66989.5
66355.1
65723
65096.1
64472.9
63855.8
63242.4
62634.8
62030.5
61428.6
60828.2
60232.7
59633.8
59040.5
58445.4
57856.1
57266.1
56674.4
56089.8
55498.6
54913.8
54323.3
53737.6
53148.2
52561.9
51976.6
51398.5
50808.6
50233.3
49641.5
49074.7
48486
47924.9
47344.1
46787.6
46205.3
45645.1
45056.6
44488.8
43908
43338.5
42761
42195.9
41619.3
41063.8
40482.7
39920.6
39342.6
38766.8
38186.2
37610.8
37020.9
36444.8
35846.6
35264.6
34653
34054.6
33425.7
32800.9
32148.7
31498.4
30817.9
30135.9
29427.2
28710.4
27980.6
27242
187852
185991
184188
182440
180745
179104
177515
175975
174483
173036
171631
170264
168934
167636
166368
165128
163913
162722
161551
160401
159268
158153
157053
155967
154894
153834
152786
151749
150722
149704
148695
147695
146703
145719
144742
143771
142808
141850
140899
139953
139013
138078
137148
136223
135302
134387
133475
132568
131666
130767
129873
128983
128097
127214
126335
125460
124588
123720
122856
121994
121135
120280
119428
118578
117732
116889
116048
115211
114377
113546
112719
111895
111075
110259
109447
108638
107833
107031
106234
105440
104650
103865
103085
102309
101539
100773
100012
99254.4
98500
97746.6
96994.2
96240.3
95487.4
94733.4
93980.1
93227
92477.2
91728.3
90982.6
90238.7
89499.5
88761.8
88027.4
87294
86564.1
85836.1
85113.1
84393.7
83679.7
82969.8
82265
81563.5
80866.2
80171.6
79481.6
78793.7
78110
77428.6
76751.4
76076.4
75406
74737.7
74074.4
73414
72758.8
72106.7
71458.9
70812.7
70169.6
69527.1
68887
68247.3
67610.2
66973.5
66340.4
65709.2
65083.3
64460.3
63843.8
63231.2
62624.3
62020.2
61419.3
60818.2
60222.7
59621.6
59027
58429.7
57839.6
57247
56658
56071
55481.6
54895.5
54305
53720.2
53132
52544.1
51962.1
51380.9
50792.5
50214.8
49621.7
49051.3
48461.6
47895.7
47315.8
46758.1
46173.2
45616.1
45023.4
44455.1
43870.6
43298.6
42719.5
42152.8
41575.2
41018.6
40437.8
39877.1
39295.1
38717.7
38134.1
37555
36965.8
36382.5
35786.2
35198.9
34581.8
33979.2
33347.3
32719.4
32067.6
31417.3
30738.7
30060.9
29357
28646.2
27923.3
27190.6
188029
186177
184380
182634
180939
179295
177701
176154
174654
173198
171784
170407
169067
167759
166482
165233
164010
162811
161633
160475
159337
158215
157110
156019
154942
153878
152826
151786
150755
149735
148724
147721
146727
145741
144762
143790
142824
141865
140912
139965
139024
138088
137157
136230
135309
134392
133480
132572
131668
130769
129874
128983
128096
127212
126333
125457
124585
123716
122851
121989
121130
120275
119422
118573
117726
116883
116043
115206
114372
113541
112714
111891
111072
110256
109445
108637
107832
107031
106233
105438
104648
103862
103081
102304
101533
100766
100004
99246.2
98490.7
97736.5
96983.1
96228.6
95475.1
94720.3
93966.1
93212.4
92462.1
91712.6
90966.4
90222.2
89482.8
88744.5
88009.8
87275.8
86545.6
85817.2
85094.3
84374.4
83660.4
82949.9
82244.8
81542.7
80844.9
80149.9
79459.7
78771.8
78088.3
77406.5
76728.8
76053
75381.9
74712.7
74049
73388
72732.8
72080.5
71433.2
70787.3
70144.9
69503.4
68864.9
68226.9
67591.1
66955.7
66323.5
65692.9
65067.3
64444.8
63828.8
63216.4
62610.4
62006.1
61405.7
60803.8
60207.1
59604.6
59007.5
58408.2
57817.1
57220.7
56635.4
56046.9
55459.4
54870.7
54283.1
53696.7
53111.6
52520.8
51944.4
51357.3
50773.7
50194.5
49602.4
49022.5
48435.2
47864.4
47284.1
46724.5
46140.9
45576.3
44989.1
44420.1
43832.6
43256.2
42679.6
42109.4
41536.9
40979.5
40396.4
39837.2
39254.8
38674.7
38090.9
37507.1
36920.1
36328
35732.8
35134.5
34520.4
33910.7
33280.3
32648.8
32001.1
31350.7
30675.7
30002
29302.9
28598.3
27881.1
27153.9
188178
186334
184541
182797
181102
179456
177857
176306
174799
173336
171914
170530
169181
167866
166581
165324
164094
162887
161703
160540
159396
158269
157159
156065
154984
153916
152861
151818
150785
149762
148749
147744
146748
145760
144779
143805
142839
141878
140924
139976
139033
138096
137164
136236
135314
134396
133483
132574
131670
130769
129873
128981
128094
127210
126330
125454
124581
123712
122846
121984
121125
120270
119417
118568
117721
116878
116038
115201
114367
113537
112710
111887
111068
110253
109442
108635
107830
107028
106230
105435
104644
103857
103074
102296
101524
100756
99993.1
99233.8
98476.6
97721.2
96966.8
96212.1
95457.9
94702.3
93947.2
93193.5
92442.5
91692.5
90945.9
90202.2
89462.5
88724
87989.1
87255.1
86524.6
85796.6
85073.6
84353.8
83639.8
82928.9
82223.3
81520.5
80822.3
80127.3
79436.8
78749.2
78065.6
77384.2
76706.1
76029.9
75357.6
74688
74023.6
73362.3
72707.3
72055.3
71408.3
70763
70121
69480.2
68842.8
68205.9
67570.8
66936.7
66305.2
65675.2
65050
64428.1
63812.4
63200.4
62594.4
61989
61388.2
60785.1
60186.4
59582.3
58984.4
58385
57790.1
57193.8
56608.8
56017.2
55433.7
54842.5
54256.8
53670.3
53090
52498.6
51923
51331.6
50755.7
50165.5
49575.5
48991
48411.7
47837.9
47256.9
46689
46105.7
45532.8
44953.5
44378.2
43794.7
43215.4
42644.3
42070.4
41501.1
40937.1
40361.5
39798.3
39217.5
38636.4
38055.8
37467.4
36876.8
36279.8
35684.8
35077.6
34465.9
33850.7
33227.3
32592.3
31950
31298.4
30628.1
29956
29263
28563.5
27850.6
27129
188303
186463
184673
182930
181235
179587
177986
176430
174919
173451
172023
170632
169277
167955
166663
165400
164164
162952
161763
160595
159446
158315
157201
156103
155019
153949
152891
151845
150810
149785
148769
147763
146765
145776
144794
143819
142851
141889
140934
139984
139041
138102
137169
136241
135318
134399
133485
132575
131670
130769
129872
128980
128091
127207
126326
125450
124577
123708
122842
121980
121121
120265
119412
118563
117716
116873
116032
115196
114362
113532
112705
111883
111064
110249
109438
108631
107826
107024
106225
105429
104637
103849
103066
102287
101513
100744
99979.2
99218.5
98459.5
97702.8
96946.9
96191.9
95436.6
94680.9
93925.6
93171.9
92420.2
91670.4
90923.8
90181
89440.8
88702.9
87967.8
87234.4
86503.9
85776.7
85053.1
84333.8
83619.1
82908.4
82201.7
81498.9
80799.8
80105.2
79414.4
78727.8
78044.1
77363.8
76685.1
76009.2
75335.8
74666.2
74000.9
73339.8
72684.5
72033.5
71386.2
70741.7
70099.3
69459.5
68822
68185.8
67550.8
66917.8
66286.1
65657.1
65031.7
64410.7
63794.8
63182.9
62575.6
61969.1
61366.4
60762.2
60161.1
59556.9
58957.5
58358.4
57764.9
57169.3
56579.9
55989
55405
54813.4
54231.8
53643.9
53064.4
52474.9
51900.2
51307
50728.1
50130.5
49551.1
48962.9
48387.5
47810
47227.4
46648.6
46069.9
45494.4
44917.6
44334.5
43760
43180.4
42610.5
42035.7
41471.1
40898.8
40332.2
39757.1
39184.5
38603
38022.5
37430.3
36839.8
36240.3
35638.8
35030.9
34422.6
33806.1
33185.5
32552.3
31912.3
31260.6
30595.1
29921.9
29235
28538.4
27829.4
27113.2
188402
186566
184777
183034
181339
179690
178087
176529
175015
173542
172109
170713
169353
168026
166729
165461
164220
163004
161810
160638
159486
158352
157235
156134
155048
153975
152915
151867
150830
149803
148786
147778
146779
145788
144805
143829
142860
141897
140941
139991
139046
138107
137173
136244
135320
134400
133486
132575
131669
130768
129871
128978
128089
127204
126323
125446
124573
123704
122838
121976
121116
120260
119408
118558
117711
116868
116028
115191
114357
113527
112701
111878
111059
110245
109433
108625
107820
107017
106218
105421
104629
103841
103057
102277
101502
100732
99964.9
99202.6
98441.6
97683.6
96926.2
96170.5
95414
94658.7
93903.2
93150.2
92398
91649.2
90902.6
90160.5
89420
88683.1
87947.7
87215.2
86484.8
85758.4
85034.6
84315.9
83600.5
82890
82182.4
81479.9
80780.1
80086
79394.7
78708.9
78025.4
77346.3
76667.4
75992.1
75318
74648.8
73982.6
73322
72666.4
72015.8
71368
70724
70080.9
69442
68803.6
68167.8
67532.4
66900
66267.7
65639.6
65014.1
64393.6
63776.5
63164.3
62554.5
61947.2
61341.7
60737
60133.3
59531
58930.4
58334.6
57738.8
57143.9
56553.4
55963
55374.8
54787.5
54205.6
53616.3
53037.5
52450.2
51872.5
51277.9
50698.3
50105.5
49529.1
48932.3
48360.8
47773.8
47194.2
46617.5
46040.1
45457.8
44882.3
44297.6
43727.7
43146.7
42581.9
42008.6
41444.2
40865.4
40302.7
39720.3
39153.3
38570.2
37994.7
37398.8
36809
36206.2
35604.8
34999.4
34388.5
33775.3
33154.9
32526.6
31884.4
31235.7
30571.6
29899
29215.5
28520.5
27815.3
27103.1
188476
186643
184854
183112
181416
179767
178163
176603
175086
173610
172174
170775
169410
168079
166779
165507
164263
163043
161846
160671
159516
158380
157261
156157
155069
153994
152933
151883
150845
149817
148798
147790
146789
145797
144813
143836
142866
141903
140946
139995
139050
138110
137175
136246
135321
134401
133486
132575
131669
130767
129870
128976
128087
127202
126321
125444
124571
123701
122835
121972
121113
120257
119404
118554
117708
116864
116024
115187
114353
113523
112696
111873
111054
110239
109427
108619
107813
107010
106210
105414
104621
103833
103048
102268
101492
100720
99951.8
99187.8
98425.2
97666.4
96907.5
96151.5
95394
94639.4
93883.6
93131.3
92378.8
91631.3
90884.3
90143
89402.1
88666.5
87930.7
87199.7
86469
85743.8
85019.7
84301.8
83585.8
82875.9
82167.6
81465.5
80765
80071.6
79380.1
78695
78011.2
77333
76654.3
75980.2
75306.2
74638
73971
73311
72653.9
72003.3
71354.4
70710.9
70067.4
69429.1
68789.4
68153.6
67517.2
66884.6
66251.6
65624.3
64998.2