/*--------------------------------*- C++ -*----------------------------------*\
| =========                 |                                                 |
| \\      /  F ield         | OpenFOAM: The Open Source CFD Toolbox           |
|  \\    /   O peration     | Version:  2.4.0                                 |
|   \\  /    A nd           | Web:      www.OpenFOAM.org                      |
|    \\/     M anipulation  |                                                 |
\*---------------------------------------------------------------------------*/
FoamFile
{
    version     2.0;
    format      ascii;
    class       volVectorField;
    location    "1.84";
    object      UMean;
}
// * * * * * * * * * * * * * * * * * * * * * * * * * * * * * * * * * * * * * //

dimensions      [0 1 -1 0 0 0 0];

internalField   nonuniform List<vector> 
8800
(
(8.09331 0.387345 0)
(5.45571 0.24264 0)
(3.92324 0.0429776 0)
(3.15999 -0.0152356 0)
(2.81629 -0.0184441 0)
(2.60004 -0.0108629 0)
(2.5051 -0.00585785 0)
(2.38218 -0.00201387 0)
(2.34554 -0.00174876 0)
(2.25275 -0.000232186 0)
(2.24799 -0.000994985 0)
(2.16952 0.000390382 0)
(2.17933 -0.000486886 0)
(2.10291 0.000883837 0)
(2.1171 -0.000136391 0)
(2.03917 0.0012015 0)
(2.05543 -0.000315858 0)
(1.97143 0.000453721 0)
(2.02809 0.0082877 0)
(1.73138 -0.0645458 0)
(10.0885 0.836608 0)
(9.65202 0.867007 0)
(8.89263 0.505903 0)
(8.06922 0.26188 0)
(7.52366 0.13718 0)
(6.98708 0.0821715 0)
(6.73998 0.0528493 0)
(6.37607 0.0407107 0)
(6.28273 0.0283423 0)
(6.00012 0.024681 0)
(5.99722 0.0170594 0)
(5.75531 0.0182399 0)
(5.80243 0.0134373 0)
(5.57306 0.0169455 0)
(5.64564 0.013366 0)
(5.41321 0.016232 0)
(5.5063 0.0164772 0)
(5.24859 0.00671222 0)
(5.41531 0.0305814 0)
(5.02719 -0.042362 0)
(10.0819 0.629938 0)
(10.6327 0.862434 0)
(10.9075 0.599611 0)
(10.6504 0.373536 0)
(10.5081 0.254229 0)
(10.0348 0.196521 0)
(9.90238 0.150937 0)
(9.43736 0.12274 0)
(9.39673 0.0912672 0)
(8.97323 0.0765049 0)
(9.02647 0.055743 0)
(8.63653 0.052762 0)
(8.75932 0.0399543 0)
(8.37971 0.0431531 0)
(8.54938 0.0353807 0)
(8.15974 0.0383329 0)
(8.36876 0.0385922 0)
(7.94621 0.0270177 0)
(8.2215 0.041262 0)
(7.74699 -0.0514911 0)
(10.0564 0.456341 0)
(10.5058 0.704466 0)
(11.2418 0.543729 0)
(11.2961 0.352763 0)
(11.6408 0.259783 0)
(11.3707 0.228064 0)
(11.5868 0.197163 0)
(11.2024 0.176233 0)
(11.4064 0.143599 0)
(10.9742 0.126302 0)
(11.2066 0.100113 0)
(10.7511 0.0934759 0)
(11.0216 0.076012 0)
(10.5437 0.0766112 0)
(10.8512 0.0653916 0)
(10.3448 0.0683598 0)
(10.6882 0.0629247 0)
(10.1445 0.0610981 0)
(10.5258 0.0480141 0)
(9.95775 0.0157617 0)
(10.1609 0.345742 0)
(10.2883 0.567326 0)
(11.1678 0.457776 0)
(11.1848 0.295928 0)
(11.7815 0.20567 0)
(11.5504 0.1949 0)
(12.0122 0.174206 0)
(11.694 0.171692 0)
(12.1226 0.140008 0)
(11.7601 0.135327 0)
(12.1799 0.103668 0)
(11.7842 0.109632 0)
(12.2015 0.0821545 0)
(11.7742 0.0989729 0)
(12.1903 0.0713205 0)
(11.7318 0.0979573 0)
(12.146 0.0652247 0)
(11.6559 0.102296 0)
(12.062 0.0432387 0)
(11.5473 0.078897 0)
(10.1891 0.249167 0)
(10.2027 0.456753 0)
(11.016 0.371942 0)
(11.0772 0.250152 0)
(11.6402 0.156209 0)
(11.508 0.15443 0)
(11.9121 0.136953 0)
(11.7278 0.145021 0)
(12.0895 0.113639 0)
(11.9011 0.11657 0)
(12.2429 0.0840683 0)
(12.053 0.0956115 0)
(12.3754 0.0677372 0)
(12.1809 0.0889933 0)
(12.4815 0.0621732 0)
(12.2806 0.0914824 0)
(12.5557 0.0619774 0)
(12.3447 0.0998495 0)
(12.5813 0.0528501 0)
(12.3406 0.0538106 0)
(10.0799 0.169262 0)
(10.2517 0.35867 0)
(10.8007 0.281096 0)
(11.0777 0.21145 0)
(11.4298 0.109391 0)
(11.5255 0.123217 0)
(11.7105 0.0950551 0)
(11.7439 0.12462 0)
(11.8881 0.0768254 0)
(11.923 0.103354 0)
(12.053 0.0511803 0)
(12.0911 0.08785 0)
(12.207 0.0356228 0)
(12.2438 0.0856306 0)
(12.3442 0.0293753 0)
(12.3775 0.0927247 0)
(12.4608 0.0271972 0)
(12.4842 0.107723 0)
(12.5327 0.0240469 0)
(12.5011 0.105296 0)
(9.97825 0.103618 0)
(10.2976 0.263631 0)
(10.6411 0.190743 0)
(11.0739 0.165479 0)
(11.2772 0.0675051 0)
(11.5302 0.0939361 0)
(11.5699 0.0569497 0)
(11.7409 0.100754 0)
(11.7447 0.0442989 0)
(11.913 0.085302 0)
(11.9107 0.0249918 0)
(12.0778 0.0741836 0)
(12.0679 0.0128698 0)
(12.2287 0.0730048 0)
(12.21 0.00797246 0)
(12.3621 0.0790667 0)
(12.3339 0.00658369 0)
(12.4716 0.0921353 0)
(12.4191 0.00517287 0)
(12.4656 0.0916386 0)
(9.91415 0.0563778 0)
(10.3254 0.160545 0)
(10.5379 0.111646 0)
(11.0681 0.103469 0)
(11.1777 0.0367264 0)
(11.5304 0.0581605 0)
(11.4787 0.0305923 0)
(11.7367 0.0642479 0)
(11.6507 0.0236959 0)
(11.9047 0.0540296 0)
(11.8172 0.0116624 0)
(12.0686 0.0466411 0)
(11.9757 0.00460651 0)
(12.2198 0.0447832 0)
(12.1191 0.00184617 0)
(12.3543 0.0467601 0)
(12.2449 0.00153584 0)
(12.4648 0.0506025 0)
(12.3253 -0.00525042 0)
(12.4371 0.0116917 0)
(9.90373 0.00876462 0)
(10.3188 0.066357 0)
(10.5059 0.0260733 0)
(11.0462 0.0474768 0)
(11.1491 0.000273861 0)
(11.5123 0.0325693 0)
(11.457 -0.00234186 0)
(11.717 0.0361763 0)
(11.6293 -0.00516773 0)
(11.884 0.0327524 0)
(11.7973 -0.0102504 0)
(12.0488 0.0303363 0)
(11.9576 -0.013766 0)
(12.2017 0.0293953 0)
(12.1026 -0.0166206 0)
(12.3384 0.0288351 0)
(12.2296 -0.0196532 0)
(12.4511 0.0260458 0)
(12.3071 -0.0300368 0)
(12.421 -0.00286773 0)
(9.92276 -0.029758 0)
(10.3004 -0.0356976 0)
(10.5253 -0.0537118 0)
(11.0315 -0.0187323 0)
(11.1705 -0.0294237 0)
(11.5003 -0.00323983 0)
(11.4805 -0.0283754 0)
(11.7078 -0.00372481 0)
(11.6541 -0.0272313 0)
(11.8777 -6.32538e-06 0)
(11.8236 -0.0246485 0)
(12.0453 0.00240723 0)
(11.9853 -0.0250144 0)
(12.2014 0.00177633 0)
(12.1317 -0.0283065 0)
(12.3418 -0.00174073 0)
(12.2603 -0.0343492 0)
(12.4581 -0.00874589 0)
(12.3383 -0.0452467 0)
(12.4283 -0.0272794 0)
(9.95292 -0.0748173 0)
(10.2855 -0.134655 0)
(10.5778 -0.136407 0)
(11.0333 -0.0797955 0)
(11.2233 -0.0617283 0)
(11.4991 -0.034125 0)
(11.5301 -0.056939 0)
(11.7093 -0.0378039 0)
(11.7063 -0.0514753 0)
(11.8822 -0.0272048 0)
(11.877 -0.0415404 0)
(12.0513 -0.0199352 0)
(12.0395 -0.0385799 0)
(12.2087 -0.0200714 0)
(12.1872 -0.0421945 0)
(12.3504 -0.0264379 0)
(12.3174 -0.0511442 0)
(12.4681 -0.0381645 0)
(12.3974 -0.062454 0)
(12.4384 -0.0472116 0)
(9.97809 -0.122456 0)
(10.2888 -0.239008 0)
(10.6467 -0.215829 0)
(11.0637 -0.142298 0)
(11.2898 -0.092637 0)
(11.5194 -0.06917 0)
(11.5886 -0.0842355 0)
(11.7311 -0.073408 0)
(11.7678 -0.0741517 0)
(11.9057 -0.0565165 0)
(11.9389 -0.0580594 0)
(12.0743 -0.0444631 0)
(12.1012 -0.0517902 0)
(12.2306 -0.0434239 0)
(12.2489 -0.0559674 0)
(12.3711 -0.0520181 0)
(12.3796 -0.0689668 0)
(12.4875 -0.0687661 0)
(12.4622 -0.0849688 0)
(12.4598 -0.0671052 0)
(10.0134 -0.182097 0)
(10.2994 -0.343328 0)
(10.7476 -0.29804 0)
(11.1146 -0.197639 0)
(11.3856 -0.126622 0)
(11.5575 -0.107672 0)
(11.6726 -0.113115 0)
(11.7731 -0.10881 0)
(11.8546 -0.0968687 0)
(11.9513 -0.0865103 0)
(12.0245 -0.0746761 0)
(12.1198 -0.0705544 0)
(12.1838 -0.0646735 0)
(12.2743 -0.0684868 0)
(12.3272 -0.0680547 0)
(12.4113 -0.0786072 0)
(12.4512 -0.0839898 0)
(12.5221 -0.101208 0)
(12.5273 -0.106895 0)
(12.4951 -0.0985498 0)
(10.0557 -0.257411 0)
(10.3168 -0.447902 0)
(10.8915 -0.381838 0)
(11.1804 -0.243552 0)
(11.522 -0.16553 0)
(11.6058 -0.1471 0)
(11.7969 -0.145178 0)
(11.8221 -0.140228 0)
(11.9754 -0.12189 0)
(11.9939 -0.113048 0)
(12.1295 -0.0937756 0)
(12.1452 -0.0942798 0)
(12.2626 -0.0797243 0)
(12.2729 -0.0912992 0)
(12.3683 -0.0799866 0)
(12.3717 -0.101858 0)
(12.4399 -0.0948747 0)
(12.4305 -0.129535 0)
(12.4478 -0.1235 0)
(12.3496 -0.138584 0)
(10.0515 -0.351382 0)
(10.3924 -0.560343 0)
(11.0464 -0.464359 0)
(11.2965 -0.290298 0)
(11.6555 -0.212716 0)
(11.664 -0.188423 0)
(11.8794 -0.180936 0)
(11.8107 -0.166945 0)
(11.981 -0.147442 0)
(11.8804 -0.131501 0)
(12.0281 -0.112441 0)
(11.908 -0.107605 0)
(12.0362 -0.0929781 0)
(11.9008 -0.100561 0)
(12.0053 -0.0873139 0)
(11.8572 -0.107827 0)
(11.9281 -0.0962047 0)
(11.7661 -0.136278 0)
(11.7708 -0.124398 0)
(11.5459 -0.161956 0)
(10.0045 -0.459692 0)
(10.5594 -0.700725 0)
(11.1684 -0.546443 0)
(11.3667 -0.350486 0)
(11.5583 -0.263641 0)
(11.4481 -0.225338 0)
(11.4947 -0.200938 0)
(11.2848 -0.174388 0)
(11.3037 -0.147782 0)
(11.0598 -0.125285 0)
(11.0916 -0.104535 0)
(10.8379 -0.0948445 0)
(10.8899 -0.0805113 0)
(10.6289 -0.0834244 0)
(10.693 -0.0706889 0)
(10.4217 -0.0876701 0)
(10.4801 -0.0740017 0)
(10.1914 -0.115516 0)
(10.1984 -0.0950782 0)
(9.86347 -0.160578 0)
(10.06 -0.633032 0)
(10.6549 -0.85942 0)
(10.8665 -0.600949 0)
(10.6898 -0.372149 0)
(10.4584 -0.25682 0)
(10.0815 -0.194929 0)
(9.84339 -0.153573 0)
(9.48742 -0.121087 0)
(9.32998 -0.094407 0)
(9.02294 -0.0751143 0)
(8.95235 -0.0593573 0)
(8.68179 -0.0525535 0)
(8.67481 -0.0442429 0)
(8.41544 -0.0460924 0)
(8.4451 -0.0409705 0)
(8.17682 -0.050299 0)
(8.21677 -0.0480623 0)
(7.91999 -0.0695669 0)
(7.92336 -0.0706919 0)
(7.57704 -0.0895324 0)
(10.0813 -0.838133 0)
(9.65621 -0.865251 0)
(8.87405 -0.506275 0)
(8.0883 -0.261197 0)
(7.49855 -0.138625 0)
(7.01097 -0.0815457 0)
(6.70671 -0.0540119 0)
(6.40233 -0.0399613 0)
(6.24429 -0.0297786 0)
(6.02466 -0.0240761 0)
(5.95511 -0.0187217 0)
(5.77345 -0.0182643 0)
(5.75491 -0.0154089 0)
(5.57925 -0.0185482 0)
(5.58523 -0.0163 0)
(5.39655 -0.0228668 0)
(5.40664 -0.0218881 0)
(5.18442 -0.0326402 0)
(5.17394 -0.038273 0)
(4.87921 -0.0195934 0)
(8.09142 -0.387731 0)
(5.45379 -0.242105 0)
(3.91949 -0.0432052 0)
(3.1666 0.015298 0)
(2.80937 0.0180423 0)
(2.60645 0.0111384 0)
(2.49441 0.00561099 0)
(2.38926 0.00228415 0)
(2.333 0.00147247 0)
(2.2589 0.000440504 0)
(2.2335 0.000706381 0)
(2.17249 -0.000236977 0)
(2.16197 0.000196616 0)
(2.09902 -0.00107653 0)
(2.09253 -0.000311643 0)
(2.01976 -0.00225603 0)
(2.00797 -0.00110557 0)
(1.91677 -0.00382658 0)
(1.87917 -0.00425846 0)
(1.72768 0.011244 0)
(2.2769 -0.115258 0)
(2.32445 -0.0209425 0)
(2.55233 0.00180945 0)
(2.61506 0.000804461 0)
(2.84173 -0.0160011 0)
(2.87778 -0.021989 0)
(3.08459 -0.0329153 0)
(3.08848 -0.0315862 0)
(3.26927 -0.0406829 0)
(3.24539 -0.0415433 0)
(3.41201 -0.0511924 0)
(3.36949 -0.0509478 0)
(3.53421 -0.0603992 0)
(3.48476 -0.0591998 0)
(3.65386 -0.067988 0)
(3.60254 -0.0656073 0)
(3.7801 -0.0731149 0)
(3.7292 -0.0691117 0)
(3.91976 -0.0757772 0)
(3.87106 -0.0703306 0)
(4.07247 -0.0796012 0)
(4.02315 -0.0781736 0)
(4.23151 -0.0919994 0)
(4.17673 -0.0941956 0)
(4.38656 -0.112378 0)
(4.32224 -0.117715 0)
(4.53003 -0.137973 0)
(4.45513 -0.142156 0)
(4.66115 -0.159826 0)
(4.58101 -0.160121 0)
(4.78918 -0.175755 0)
(4.71163 -0.174279 0)
(4.92687 -0.189289 0)
(4.85306 -0.186369 0)
(5.07357 -0.200848 0)
(5.0002 -0.197092 0)
(5.22706 -0.212148 0)
(5.1513 -0.208437 0)
(5.38656 -0.225167 0)
(5.30568 -0.223192 0)
(5.55102 -0.242663 0)
(5.46218 -0.245036 0)
(5.71769 -0.270675 0)
(5.61832 -0.278037 0)
(5.87819 -0.308293 0)
(5.76627 -0.317587 0)
(6.0274 -0.3504 0)
(5.90683 -0.357376 0)
(6.16794 -0.389548 0)
(6.04292 -0.392003 0)
(6.30635 -0.421436 0)
(6.1781 -0.418689 0)
(6.45059 -0.445271 0)
(6.31789 -0.439767 0)
(6.60599 -0.466063 0)
(6.46476 -0.459447 0)
(6.77185 -0.487256 0)
(6.61939 -0.481347 0)
(6.94401 -0.5107 0)
(6.77768 -0.50539 0)
(7.1173 -0.538122 0)
(6.94237 -0.535129 0)
(7.29374 -0.573673 0)
(7.11791 -0.575015 0)
(7.47138 -0.621376 0)
(7.29671 -0.627061 0)
(7.64095 -0.678588 0)
(7.46123 -0.686409 0)
(7.79345 -0.738218 0)
(7.60323 -0.744534 0)
(7.92969 -0.796592 0)
(7.72779 -0.798178 0)
(8.05337 -0.846871 0)
(7.83964 -0.842826 0)
(8.17682 -0.889169 0)
(7.95382 -0.879781 0)
(8.30771 -0.923969 0)
(8.08221 -0.910276 0)
(8.45107 -0.956358 0)
(8.22308 -0.938827 0)
(8.60403 -0.986026 0)
(8.36926 -0.964836 0)
(8.75828 -1.00962 0)
(8.51102 -0.986729 0)
(8.90323 -1.03099 0)
(8.64844 -1.00664 0)
(9.02875 -1.05436 0)
(8.77917 -1.02917 0)
(9.1354 -1.07849 0)
(8.89224 -1.05011 0)
(9.2232 -1.0972 0)
(8.98762 -1.06706 0)
(9.29677 -1.11267 0)
(9.06302 -1.0796 0)
(9.35541 -1.12245 0)
(9.12226 -1.08334 0)
(9.40317 -1.12453 0)
(9.16835 -1.08174 0)
(9.443 -1.12114 0)
(9.21338 -1.07553 0)
(9.48659 -1.11767 0)
(9.26006 -1.06934 0)
(9.534 -1.11273 0)
(9.30115 -1.05621 0)
(9.57413 -1.09787 0)
(9.33427 -1.03486 0)
(9.60192 -1.08212 0)
(9.34995 -1.01524 0)
(9.60535 -1.0652 0)
(9.34559 -0.989993 0)
(9.58997 -1.03913 0)
(9.32269 -0.95944 0)
(9.55496 -1.00725 0)
(9.28395 -0.924758 0)
(9.50972 -0.974333 0)
(9.24519 -0.886297 0)
(9.46689 -0.93383 0)
(9.21788 -0.842508 0)
(9.4291 -0.890145 0)
(9.19168 -0.797865 0)
(9.39399 -0.845637 0)
(9.17128 -0.752346 0)
(9.36965 -0.804578 0)
(9.15594 -0.708664 0)
(9.34908 -0.76401 0)
(9.13143 -0.66793 0)
(9.32859 -0.719789 0)
(9.10334 -0.619222 0)
(9.30823 -0.664334 0)
(9.08545 -0.559186 0)
(9.28922 -0.598322 0)
(9.07762 -0.490982 0)
(9.26757 -0.529662 0)
(9.06909 -0.427618 0)
(9.24606 -0.472698 0)
(9.05851 -0.37608 0)
(9.22547 -0.418933 0)
(9.05042 -0.317928 0)
(9.20714 -0.359165 0)
(9.0487 -0.259429 0)
(9.19208 -0.301565 0)
(9.04747 -0.204499 0)
(9.17218 -0.23773 0)
(9.04647 -0.14111 0)
(9.15258 -0.174064 0)
(9.04587 -0.0794115 0)
(9.12223 -0.0992736 0)
(9.03111 -0.00988793 0)
(9.08627 -0.0265112 0)
(9.00832 0.0602879 0)
(9.03769 0.0442118 0)
(8.9702 0.136261 0)
(8.97923 0.127189 0)
(8.92406 0.219595 0)
(8.92531 0.203999 0)
(8.88221 0.30176 0)
(8.87536 0.290475 0)
(8.8258 0.388232 0)
(8.82838 0.370285 0)
(8.77383 0.473733 0)
(8.78726 0.436179 0)
(8.70713 0.550508 0)
(8.75107 0.50293 0)
(8.62981 0.620757 0)
(8.70952 0.572342 0)
(8.54931 0.697548 0)
(8.66664 0.639068 0)
(8.47452 0.773916 0)
(8.62228 0.710665 0)
(8.39076 0.863651 0)
(8.56911 0.775002 0)
(8.28784 0.950401 0)
(8.52081 0.853121 0)
(8.14925 1.05469 0)
(8.46332 0.936167 0)
(8.01266 1.19229 0)
(8.39498 1.03414 0)
(7.87281 1.33945 0)
(8.34143 1.14261 0)
(7.73744 1.49771 0)
(8.28775 1.27043 0)
(7.60749 1.66738 0)
(8.21764 1.4141 0)
(7.48576 1.84324 0)
(8.10829 1.57491 0)
(7.36385 2.0265 0)
(7.94799 1.76406 0)
(7.22279 2.2257 0)
(7.75314 1.99277 0)
(7.04913 2.45452 0)
(7.52597 2.26669 0)
(6.80924 2.72916 0)
(7.24179 2.61781 0)
(6.50185 3.12689 0)
(6.84442 3.09101 0)
(6.12666 3.79401 0)
(6.34411 3.82834 0)
(5.44249 4.93317 0)
(6.41972 5.45102 0)
(4.10404 8.43668 0)
(5.3413 -0.075747 0)
(5.26332 -0.0405467 0)
(5.38163 -0.0375495 0)
(5.3204 -0.0482619 0)
(5.49521 -0.0734991 0)
(5.45465 -0.0836599 0)
(5.64065 -0.0952598 0)
(5.58041 -0.0907867 0)
(5.75258 -0.0946865 0)
(5.66626 -0.0894983 0)
(5.83262 -0.0969674 0)
(5.73261 -0.0951123 0)
(5.90579 -0.105521 0)
(5.80184 -0.10434 0)
(5.98693 -0.114719 0)
(5.88119 -0.112399 0)
(6.07806 -0.122041 0)
(5.96957 -0.118215 0)
(6.17688 -0.127746 0)
(6.06538 -0.123476 0)
(6.2819 -0.134631 0)
(6.16642 -0.13287 0)
(6.39013 -0.147558 0)
(6.26866 -0.148484 0)
(6.49766 -0.166376 0)
(6.36851 -0.16906 0)
(6.60155 -0.188234 0)
(6.46447 -0.190158 0)
(6.70104 -0.208778 0)
(6.55704 -0.208826 0)
(6.79907 -0.226586 0)
(6.65062 -0.225051 0)
(6.9013 -0.242837 0)
(6.74924 -0.240223 0)
(7.0093 -0.257785 0)
(6.85183 -0.25387 0)
(7.12154 -0.271509 0)
(6.95765 -0.267195 0)
(7.23678 -0.286241 0)
(7.06632 -0.283028 0)
(7.35428 -0.305384 0)
(7.17873 -0.3046 0)
(7.47343 -0.332197 0)
(7.29381 -0.334573 0)
(7.59242 -0.366671 0)
(7.40737 -0.370211 0)
(7.70773 -0.404582 0)
(7.51569 -0.407426 0)
(7.8185 -0.441503 0)
(7.61715 -0.441725 0)
(7.92645 -0.473592 0)
(7.71286 -0.469907 0)
(8.0336 -0.499879 0)
(7.80675 -0.493183 0)
(8.14268 -0.523019 0)
(7.90305 -0.514669 0)
(8.25494 -0.545957 0)
(8.00533 -0.538116 0)
(8.37144 -0.57246 0)
(8.11557 -0.565776 0)
(8.49213 -0.603818 0)
(8.23306 -0.59874 0)
(8.61556 -0.641747 0)
(8.35583 -0.639358 0)
(8.73917 -0.68792 0)
(8.48005 -0.687587 0)
(8.85876 -0.73919 0)
(8.59816 -0.74001 0)
(8.97274 -0.794066 0)
(8.70788 -0.794787 0)
(9.08047 -0.847552 0)
(8.80779 -0.843664 0)
(9.1828 -0.894851 0)
(8.9023 -0.886444 0)
(9.28228 -0.938156 0)
(8.99705 -0.92418 0)
(9.38032 -0.97641 0)
(9.09384 -0.957778 0)
(9.47848 -1.01038 0)
(9.19009 -0.98876 0)
(9.57735 -1.04012 0)
(9.28344 -1.01284 0)
(9.67112 -1.06287 0)
(9.37331 -1.03099 0)
(9.75211 -1.08013 0)
(9.45688 -1.04648 0)
(9.82145 -1.09802 0)
(9.53451 -1.06335 0)
(9.87727 -1.11453 0)
(9.59826 -1.0785 0)
(9.92375 -1.12947 0)
(9.65161 -1.09072 0)
(9.95856 -1.13973 0)
(9.6876 -1.09678 0)
(9.97838 -1.14274 0)
(9.70844 -1.09475 0)
(9.99007 -1.13943 0)
(9.71957 -1.08861 0)
(9.99761 -1.13414 0)
(9.72915 -1.0837 0)
(10.0076 -1.13273 0)
(9.73494 -1.07626 0)
(10.0104 -1.12494 0)
(9.72962 -1.05978 0)
(10.0069 -1.10694 0)
(9.7206 -1.0359 0)
(9.99086 -1.084 0)
(9.69824 -1.00774 0)
(9.9559 -1.05983 0)
(9.65733 -0.977035 0)
(9.90464 -1.02809 0)
(9.60115 -0.936317 0)
(9.84044 -0.99062 0)
(9.53891 -0.897883 0)
(9.7725 -0.956307 0)
(9.48209 -0.861915 0)
(9.70815 -0.920471 0)
(9.42907 -0.821326 0)
(9.65024 -0.878472 0)
(9.37769 -0.77939 0)
(9.60253 -0.837056 0)
(9.33438 -0.737273 0)
(9.56327 -0.797495 0)
(9.29178 -0.691463 0)
(9.52306 -0.753762 0)
(9.24322 -0.645274 0)
(9.47949 -0.709492 0)
(9.19574 -0.598604 0)
(9.43405 -0.656905 0)
(9.15622 -0.542021 0)
(9.393 -0.595425 0)
(9.12359 -0.477323 0)
(9.35779 -0.526415 0)
(9.09449 -0.414491 0)
(9.32761 -0.467712 0)
(9.061 -0.360643 0)
(9.29602 -0.414805 0)
(9.03476 -0.309452 0)
(9.26954 -0.359766 0)
(9.02274 -0.254861 0)
(9.24944 -0.30246 0)
(9.0113 -0.197937 0)
(9.225 -0.24089 0)
(8.99621 -0.131046 0)
(9.20189 -0.174592 0)
(8.97094 -0.0632789 0)
(9.17725 -0.0953746 0)
(8.94523 0.00700704 0)
(9.1484 -0.0217375 0)
(8.92863 0.0810223 0)
(9.1055 0.0584074 0)
(8.89704 0.160663 0)
(9.05132 0.138785 0)
(8.85769 0.244155 0)
(9.00207 0.215244 0)
(8.81822 0.328421 0)
(8.95433 0.299425 0)
(8.77137 0.416444 0)
(8.92313 0.371225 0)
(8.72664 0.507255 0)
(8.90367 0.434305 0)
(8.66459 0.588322 0)
(8.88771 0.501572 0)
(8.60938 0.663982 0)
(8.86114 0.563823 0)
(8.56677 0.743105 0)
(8.83707 0.623476 0)
(8.51731 0.831336 0)
(8.79731 0.690565 0)
(8.45428 0.932262 0)
(8.76885 0.753019 0)
(8.36425 1.03472 0)
(8.73635 0.832866 0)
(8.25524 1.15799 0)
(8.68792 0.909721 0)
(8.12959 1.28959 0)
(8.66321 0.998791 0)
(7.99657 1.43013 0)
(8.65943 1.10321 0)
(7.87041 1.58947 0)
(8.64505 1.2375 0)
(7.77133 1.7631 0)
(8.5968 1.39517 0)
(7.6814 1.94083 0)
(8.51044 1.56885 0)
(7.5855 2.12495 0)
(8.40498 1.773 0)
(7.45918 2.32831 0)
(8.27399 2.00828 0)
(7.31928 2.58448 0)
(8.10717 2.29361 0)
(7.17512 2.92271 0)
(7.87659 2.64007 0)
(7.00533 3.3986 0)
(7.61735 3.12505 0)
(6.71837 4.09661 0)
(7.60297 3.92083 0)
(6.07356 5.35498 0)
(8.50173 4.77687 0)
(6.52056 8.90145 0)
(8.03168 -0.0799588 0)
(7.90836 -0.0534485 0)
(8.03642 -0.0617881 0)
(7.92734 -0.0738947 0)
(8.10751 -0.0996799 0)
(8.01945 -0.106693 0)
(8.2112 -0.117666 0)
(8.1009 -0.109915 0)
(8.27797 -0.113582 0)
(8.14038 -0.105273 0)
(8.31388 -0.113729 0)
(8.16511 -0.110736 0)
(8.34864 -0.124346 0)
(8.19768 -0.123729 0)
(8.3951 -0.138549 0)
(8.24312 -0.136785 0)
(8.4528 -0.150446 0)
(8.29766 -0.146447 0)
(8.51638 -0.159165 0)
(8.35621 -0.154318 0)
(8.58221 -0.168108 0)
(8.4166 -0.164645 0)
(8.64914 -0.181143 0)
(8.4776 -0.179784 0)
(8.7161 -0.198977 0)
(8.53803 -0.198998 0)
(8.78198 -0.219566 0)
(8.59675 -0.219387 0)
(8.84589 -0.23996 0)
(8.65239 -0.238517 0)
(8.90741 -0.258651 0)
(8.70545 -0.255996 0)
(8.96822 -0.276191 0)
(8.75778 -0.272649 0)
(9.02952 -0.293064 0)
(8.81072 -0.288409 0)
(9.09213 -0.309259 0)
(8.86668 -0.303722 0)
(9.1572 -0.326168 0)
(8.92744 -0.320755 0)
(9.22542 -0.346478 0)
(8.99417 -0.342808 0)
(9.29761 -0.372946 0)
(9.06519 -0.371819 0)
(9.37217 -0.40573 0)
(9.13647 -0.406105 0)
(9.44575 -0.4417 0)
(9.20294 -0.441432 0)
(9.51533 -0.476669 0)
(9.26197 -0.473756 0)
(9.58017 -0.507516 0)
(9.31471 -0.50105 0)
(9.64128 -0.533645 0)
(9.36425 -0.52424 0)
(9.70071 -0.557436 0)
(9.41551 -0.546575 0)
(9.76093 -0.582539 0)
(9.47288 -0.571928 0)
(9.82431 -0.61193 0)
(9.53735 -0.602095 0)
(9.89022 -0.645246 0)
(9.60567 -0.636432 0)
(9.95659 -0.68262 0)
(9.67343 -0.676016 0)
(10.0221 -0.725612 0)
(9.73786 -0.721158 0)
(10.0861 -0.774508 0)
(9.80038 -0.771788 0)
(10.1513 -0.828627 0)
(9.86132 -0.824984 0)
(10.2127 -0.881398 0)
(9.91774 -0.873292 0)
(10.2707 -0.927727 0)
(9.97017 -0.916108 0)
(10.3245 -0.970565 0)
(10.0182 -0.954503 0)
(10.3717 -1.00861 0)
(10.0622 -0.987413 0)
(10.4137 -1.04154 0)
(10.1048 -1.01657 0)
(10.4512 -1.06885 0)
(10.1435 -1.03777 0)
(10.4837 -1.08905 0)
(10.1802 -1.05157 0)
(10.5084 -1.10211 0)
(10.2135 -1.06335 0)
(10.5275 -1.11455 0)
(10.2382 -1.07435 0)
(10.5377 -1.12699 0)
(10.2555 -1.0878 0)
(10.5433 -1.13957 0)
(10.2641 -1.09528 0)
(10.5356 -1.14437 0)
(10.2572 -1.09441 0)
(10.5129 -1.14094 0)
(10.2368 -1.08772 0)
(10.4757 -1.13487 0)
(10.2057 -1.08078 0)
(10.4386 -1.13196 0)
(10.1747 -1.07662 0)
(10.3989 -1.12893 0)
(10.1344 -1.06519 0)
(10.3495 -1.11908 0)
(10.0886 -1.0481 0)
(10.299 -1.09942 0)
(10.0399 -1.02124 0)
(10.2395 -1.07174 0)
(9.9827 -0.986194 0)
(10.1688 -1.03738 0)
(9.90798 -0.945034 0)
(10.078 -0.998326 0)
(9.82108 -0.900459 0)
(9.98234 -0.959315 0)
(9.74044 -0.863399 0)
(9.89462 -0.927365 0)
(9.66465 -0.827404 0)
(9.80427 -0.89175 0)
(9.58481 -0.787237 0)
(9.72147 -0.85564 0)
(9.5141 -0.748375 0)
(9.65699 -0.819968 0)
(9.45432 -0.707579 0)
(9.59712 -0.779114 0)
(9.39266 -0.661213 0)
(9.53447 -0.733083 0)
(9.33204 -0.613044 0)
(9.46858 -0.689796 0)
(9.26826 -0.567112 0)
(9.39819 -0.640531 0)
(9.20616 -0.511737 0)
(9.33244 -0.58096 0)
(9.14402 -0.447878 0)
(9.2836 -0.517157 0)
(9.09068 -0.38765 0)
(9.24342 -0.457323 0)
(9.0405 -0.331911 0)
(9.20256 -0.406833 0)
(9.00322 -0.288304 0)
(9.16678 -0.357782 0)
(8.97531 -0.23598 0)
(9.13693 -0.304238 0)
(8.95356 -0.174573 0)
(9.09763 -0.2389 0)
(8.92463 -0.106751 0)
(9.06791 -0.1711 0)
(8.89338 -0.0360558 0)
(9.0436 -0.0925819 0)
(8.86886 0.0387885 0)
(9.01985 -0.0220891 0)
(8.84679 0.114095 0)
(8.987 0.0569265 0)
(8.83391 0.20205 0)
(8.94818 0.130786 0)
(8.80994 0.284611 0)
(8.90833 0.208307 0)
(8.76848 0.375547 0)
(8.87326 0.286038 0)
(8.72424 0.462341 0)
(8.85282 0.354149 0)
(8.67834 0.553011 0)
(8.83872 0.42602 0)
(8.63457 0.634468 0)
(8.83047 0.486067 0)
(8.61222 0.71077 0)
(8.81744 0.541293 0)
(8.58451 0.787736 0)
(8.80399 0.59862 0)
(8.55111 0.887197 0)
(8.79271 0.669039 0)
(8.49314 0.988725 0)
(8.80703 0.733414 0)
(8.40392 1.10562 0)
(8.81439 0.813461 0)
(8.29237 1.24422 0)
(8.8353 0.899165 0)
(8.16111 1.37981 0)
(8.86767 0.980621 0)
(8.04327 1.51827 0)
(8.88347 1.07651 0)
(7.94579 1.67102 0)
(8.87207 1.201 0)
(7.87336 1.84412 0)
(8.84078 1.36033 0)
(7.80599 2.03472 0)
(8.79127 1.53899 0)
(7.72508 2.23714 0)
(8.72592 1.73947 0)
(7.65106 2.47558 0)
(8.61911 1.96071 0)
(7.58886 2.75361 0)
(8.49217 2.23069 0)
(7.52585 3.11221 0)
(8.40483 2.58667 0)
(7.39604 3.58553 0)
(8.49885 3.07559 0)
(7.09468 4.33155 0)
(9.01779 3.59792 0)
(6.80148 5.87423 0)
(9.75082 3.69435 0)
(8.15865 8.1836 0)
(10.2926 -0.088569 0)
(10.1442 -0.11402 0)
(10.2772 -0.144474 0)
(10.1404 -0.145511 0)
(10.3251 -0.155426 0)
(10.2094 -0.141718 0)
(10.4018 -0.14245 0)
(10.2621 -0.124953 0)
(10.4393 -0.128144 0)
(10.2748 -0.11534 0)
(10.4489 -0.125938 0)
(10.275 -0.119937 0)
(10.458 -0.137114 0)
(10.2829 -0.134458 0)
(10.4782 -0.153598 0)
(10.3026 -0.149967 0)
(10.5083 -0.167922 0)
(10.3297 -0.161721 0)
(10.543 -0.178351 0)
(10.3598 -0.170695 0)
(10.5796 -0.187788 0)
(10.3911 -0.180714 0)
(10.6166 -0.200082 0)
(10.4222 -0.194696 0)
(10.6527 -0.216686 0)
(10.4521 -0.212566 0)
(10.6867 -0.236156 0)
(10.4794 -0.231892 0)
(10.7178 -0.255784 0)
(10.5037 -0.25033 0)
(10.7455 -0.273896 0)
(10.5248 -0.267036 0)
(10.7705 -0.290563 0)
(10.5436 -0.28283 0)
(10.7939 -0.306908 0)
(10.5616 -0.298549 0)
(10.8171 -0.323635 0)
(10.581 -0.315252 0)
(10.8422 -0.342284 0)
(10.6037 -0.334659 0)
(10.8708 -0.364544 0)
(10.6299 -0.358913 0)
(10.9025 -0.39245 0)
(10.6581 -0.388956 0)
(10.9351 -0.425575 0)
(10.6853 -0.42285 0)
(10.9656 -0.460869 0)
(10.7085 -0.456657 0)
(10.9917 -0.494258 0)
(10.7271 -0.486687 0)
(11.0133 -0.523003 0)
(10.7424 -0.511828 0)
(11.0315 -0.547151 0)
(10.7568 -0.533512 0)
(11.0484 -0.569824 0)
(10.7737 -0.555789 0)
(11.0667 -0.595148 0)
(10.7942 -0.581791 0)
(11.0864 -0.624514 0)
(10.8154 -0.611679 0)
(11.1048 -0.65737 0)
(10.8344 -0.64554 0)
(11.1202 -0.694341 0)
(10.85 -0.684116 0)
(11.1323 -0.736109 0)
(10.8622 -0.72892 0)
(11.1441 -0.786099 0)
(10.8741 -0.782157 0)
(11.1569 -0.840954 0)
(10.8835 -0.835203 0)
(11.1667 -0.893432 0)
(10.8868 -0.883363 0)
(11.1712 -0.938998 0)
(10.8871 -0.925443 0)
(11.1697 -0.979323 0)
(10.8802 -0.96176 0)
(11.1604 -1.01428 0)
(10.8701 -0.99319 0)
(11.1476 -1.04606 0)
(10.8618 -1.02041 0)
(11.1324 -1.0709 0)
(10.8532 -1.04112 0)
(11.1148 -1.0889 0)
(10.8425 -1.05298 0)
(11.0957 -1.10092 0)
(10.8304 -1.06243 0)
(11.0729 -1.10957 0)
(10.8116 -1.0722 0)
(11.0485 -1.12221 0)
(10.7924 -1.08326 0)
(11.0169 -1.12993 0)
(10.7593 -1.08276 0)
(10.9678 -1.12682 0)
(10.7094 -1.07418 0)
(10.9034 -1.11777 0)
(10.6456 -1.06179 0)
(10.824 -1.1105 0)
(10.5755 -1.05701 0)
(10.7458 -1.10983 0)
(10.5005 -1.04968 0)
(10.6591 -1.10091 0)
(10.4197 -1.03619 0)
(10.5739 -1.09348 0)
(10.3434 -1.02118 0)
(10.4911 -1.07364 0)
(10.2622 -0.991875 0)
(10.3977 -1.04196 0)
(10.1688 -0.949863 0)
(10.2901 -0.999535 0)
(10.0611 -0.901848 0)
(10.1655 -0.953361 0)
(9.94508 -0.857347 0)
(10.0451 -0.920517 0)
(9.84374 -0.826317 0)
(9.93357 -0.888258 0)
(9.73957 -0.786383 0)
(9.81996 -0.851218 0)
(9.63461 -0.74757 0)
(9.71146 -0.822917 0)
(9.54393 -0.713066 0)
(9.62086 -0.793328 0)
(9.46152 -0.67405 0)
(9.54086 -0.750728 0)
(9.38116 -0.629948 0)
(9.46427 -0.705465 0)
(9.30314 -0.58524 0)
(9.38182 -0.660362 0)
(9.22187 -0.535396 0)
(9.29689 -0.608229 0)
(9.13836 -0.480717 0)
(9.21307 -0.550349 0)
(9.05761 -0.421968 0)
(9.14481 -0.49496 0)
(8.99094 -0.363568 0)
(9.08935 -0.439631 0)
(8.93123 -0.311979 0)
(9.04129 -0.392734 0)
(8.88058 -0.270859 0)
(8.99248 -0.348951 0)
(8.83717 -0.218083 0)
(8.95465 -0.29835 0)
(8.79169 -0.151779 0)
(8.91438 -0.227624 0)
(8.74776 -0.0864052 0)
(8.88756 -0.166281 0)
(8.71717 -0.0119581 0)
(8.86053 -0.0938676 0)
(8.69272 0.0605513 0)
(8.84762 -0.0256778 0)
(8.66833 0.136602 0)
(8.83252 0.0444604 0)
(8.652 0.226843 0)
(8.82826 0.126452 0)
(8.61573 0.314301 0)
(8.81988 0.208529 0)
(8.57367 0.411924 0)
(8.79843 0.282827 0)
(8.53872 0.503364 0)
(8.78188 0.352745 0)
(8.49639 0.579555 0)
(8.77207 0.409887 0)
(8.47874 0.659867 0)
(8.77849 0.457863 0)
(8.44858 0.735945 0)
(8.81786 0.517699 0)
(8.40018 0.821284 0)
(8.84462 0.573059 0)
(8.34377 0.930504 0)
(8.88503 0.639278 0)
(8.28861 1.04001 0)
(8.93046 0.700919 0)
(8.2163 1.17558 0)
(8.97319 0.773187 0)
(8.1237 1.31152 0)
(9.02512 0.844877 0)
(8.05047 1.44067 0)
(9.05222 0.929356 0)
(8.00243 1.58149 0)
(9.04319 1.03407 0)
(7.96459 1.73897 0)
(9.02165 1.16132 0)
(7.93453 1.92286 0)
(8.99919 1.31067 0)
(7.91775 2.12447 0)
(8.98339 1.48272 0)
(7.90539 2.34224 0)
(8.95204 1.66687 0)
(7.89858 2.5884 0)
(8.93711 1.89357 0)
(7.86059 2.88064 0)
(8.96853 2.16084 0)
(7.77876 3.25423 0)
(9.12313 2.47808 0)
(7.62138 3.78365 0)
(9.49484 2.78187 0)
(7.46148 4.68598 0)
(10.0896 2.92288 0)
(7.77213 6.11247 0)
(10.3516 3.11846 0)
(9.15987 7.18305 0)
(11.7985 -0.0747007 0)
(11.6789 -0.13829 0)
(11.8272 -0.190753 0)
(11.7266 -0.186282 0)
(11.8901 -0.188439 0)
(11.7857 -0.157729 0)
(11.9421 -0.153161 0)
(11.812 -0.127315 0)
(11.9536 -0.133687 0)
(11.804 -0.117811 0)
(11.9421 -0.134145 0)
(11.7858 -0.125421 0)
(11.931 -0.147724 0)
(11.7758 -0.141499 0)
(11.9316 -0.165158 0)
(11.7776 -0.157718 0)
(11.9421 -0.180202 0)
(11.7868 -0.170248 0)
(11.9574 -0.191414 0)
(11.7985 -0.179872 0)
(11.9736 -0.201296 0)
(11.8097 -0.189912 0)
(11.9882 -0.213253 0)
(11.8187 -0.203103 0)
(12.0001 -0.228806 0)
(11.8247 -0.219634 0)
(12.0086 -0.246944 0)
(11.8274 -0.237557 0)
(12.014 -0.265388 0)
(11.8278 -0.254728 0)
(12.0171 -0.282365 0)
(11.8269 -0.270108 0)
(12.0187 -0.29786 0)
(11.8258 -0.284525 0)
(12.0195 -0.313002 0)
(11.8251 -0.299323 0)
(12.0205 -0.329264 0)
(11.8255 -0.316151 0)
(12.0225 -0.348272 0)
(11.8268 -0.336563 0)
(12.0255 -0.371529 0)
(11.828 -0.361818 0)
(12.0284 -0.399838 0)
(11.8277 -0.391782 0)
(12.0296 -0.432288 0)
(11.8243 -0.424515 0)
(12.0271 -0.466059 0)
(11.8168 -0.456768 0)
(12.0198 -0.497842 0)
(11.8053 -0.485497 0)
(12.0075 -0.525352 0)
(11.7913 -0.509753 0)
(11.992 -0.549179 0)
(11.7779 -0.531888 0)
(11.9768 -0.572672 0)
(11.7672 -0.555216 0)
(11.9626 -0.59795 0)
(11.7564 -0.580834 0)
(11.9473 -0.625527 0)
(11.7423 -0.609619 0)
(11.93 -0.656884 0)
(11.7236 -0.642391 0)
(11.9104 -0.692059 0)
(11.7 -0.678984 0)
(11.8887 -0.732552 0)
(11.6746 -0.723176 0)
(11.8672 -0.781949 0)
(11.6469 -0.774586 0)
(11.8397 -0.834813 0)
(11.6128 -0.825177 0)
(11.805 -0.884284 0)
(11.572 -0.870905 0)
(11.7635 -0.928487 0)
(11.5281 -0.910903 0)
(11.7146 -0.966009 0)
(11.4779 -0.945035 0)
(11.6592 -0.999766 0)
(11.4273 -0.977221 0)
(11.6053 -1.03213 0)
(11.3797 -1.00533 0)
(11.5533 -1.05763 0)
(11.333 -1.02622 0)
(11.5003 -1.07316 0)
(11.2853 -1.03816 0)
(11.4505 -1.08499 0)
(11.2343 -1.04642 0)
(11.3991 -1.09369 0)
(11.184 -1.05741 0)
(11.3476 -1.10646 0)
(11.1297 -1.06181 0)
(11.282 -1.10543 0)
(11.0564 -1.05304 0)
(11.2004 -1.09672 0)
(10.9684 -1.03887 0)
(11.1044 -1.08434 0)
(10.8725 -1.02357 0)
(11.0006 -1.07742 0)
(10.7754 -1.01609 0)
(10.8879 -1.07178 0)
(10.6674 -1.00426 0)
(10.773 -1.06287 0)
(10.5684 -0.995755 0)
(10.6678 -1.05801 0)
(10.4677 -0.979923 0)
(10.5547 -1.0329 0)
(10.3537 -0.945285 0)
(10.4254 -0.995169 0)
(10.2261 -0.898735 0)
(10.2818 -0.948877 0)
(10.0894 -0.844509 0)
(10.1295 -0.89872 0)
(9.95868 -0.80554 0)
(9.99058 -0.873257 0)
(9.83202 -0.773986 0)
(9.85018 -0.837857 0)
(9.70269 -0.730515 0)
(9.71472 -0.800826 0)
(9.57548 -0.693418 0)
(9.59007 -0.777312 0)
(9.46093 -0.664529 0)
(9.47758 -0.752959 0)
(9.35176 -0.63058 0)
(9.38071 -0.714848 0)
(9.25175 -0.589316 0)
(9.2875 -0.671799 0)
(9.15346 -0.543002 0)
(9.18854 -0.625323 0)
(9.05657 -0.490589 0)
(9.09042 -0.572646 0)
(8.95757 -0.43461 0)
(8.99529 -0.51869 0)
(8.8663 -0.38284 0)
(8.90942 -0.468043 0)
(8.79096 -0.328457 0)
(8.83896 -0.420297 0)
(8.73029 -0.280091 0)
(8.78199 -0.374 0)
(8.66558 -0.236742 0)
(8.72397 -0.334251 0)
(8.60402 -0.185204 0)
(8.67793 -0.281597 0)
(8.53619 -0.121255 0)
(8.64147 -0.216428 0)
(8.493 -0.0615091 0)
(8.60523 -0.162725 0)
(8.46246 0.018896 0)
(8.57843 -0.099821 0)
(8.43681 0.0849216 0)
(8.57924 -0.038589 0)