/*--------------------------------*- C++ -*----------------------------------*\
| =========                 |                                                 |
| \\      /  F ield         | OpenFOAM: The Open Source CFD Toolbox           |
|  \\    /   O peration     | Version:  2.4.0                                 |
|   \\  /    A nd           | Web:      www.OpenFOAM.org                      |
|    \\/     M anipulation  |                                                 |
\*---------------------------------------------------------------------------*/
FoamFile
{
    version     2.0;
    format      ascii;
    class       volScalarField;
    location    "1.64";
    object      p;
}
// * * * * * * * * * * * * * * * * * * * * * * * * * * * * * * * * * * * * * //

dimensions      [0 2 -2 0 0 0 0];

internalField   nonuniform List<scalar> 
8800
(
79.0565
66.6922
59.2885
55.7814
53.868
52.4764
51.2817
50.1817
49.1408
48.1861
47.2306
46.3142
45.404
44.5201
43.668
42.8828
42.0263
41.346
40.5571
39.7625
75.9454
66.3369
59.4583
55.896
53.9286
52.5006
51.2894
50.1826
49.1383
48.1838
47.2283
46.3113
45.4031
44.5172
43.6676
42.8827
42.0286
41.3365
40.5555
39.7253
73.9817
66.4094
60.0636
56.2707
54.0973
52.5783
51.3359
50.2149
49.1629
48.2009
47.2394
46.3156
45.4063
44.5145
43.6697
42.8814
42.042
41.3376
40.585
39.7277
72.445
66.4655
60.6581
56.6934
54.2829
52.6632
51.3987
50.2683
49.2145
48.2383
47.27
46.3307
45.422
44.5155
43.6812
42.8781
42.0758
41.3696
40.7326
39.7662
71.1931
66.4365
61.1425
57.0974
54.4551
52.7274
51.4485
50.3207
49.2754
48.2869
47.3107
46.3547
45.4429
44.52
43.6925
42.8778
42.112
41.4368
40.8732
39.8215
70.204
66.3393
61.5188
57.4424
54.6099
52.7669
51.4797
50.3605
49.3327
48.3341
47.3552
46.3757
45.4652
44.5273
43.6995
42.8751
42.133
41.4752
40.9974
39.916
69.4488
66.2254
61.7937
57.7206
54.7533
52.7891
51.4914
50.3893
49.3781
48.3744
47.3928
46.4008
45.4772
44.5341
43.6975
42.8773
42.1212
41.4661
41.064
40.4066
68.8952
66.1296
61.9727
57.9363
54.8744
52.8123
51.48
50.4172
49.404
48.4106
47.4157
46.4249
45.4791
44.5485
43.6814
42.8783
42.0806
41.4148
40.8486
40.9097
68.5347
66.0583
62.0825
58.0833
54.9652
52.827
51.4678
50.436
49.4248
48.4325
47.4344
46.4411
45.4848
44.5537
43.6774
42.8681
42.053
41.3928
40.9182
41.4421
68.3591
66.0196
62.133
58.1602
55.0129
52.8335
51.4577
50.4459
49.4365
48.4434
47.445
46.4476
45.4893
44.5563
43.6755
42.8595
42.049
41.389
40.9803
41.5245
68.3556
66.0251
62.1281
58.1628
55.0147
52.8411
51.4526
50.4488
49.4383
48.4439
47.4466
46.45
45.4897
44.5606
43.6775
42.8678
42.052
41.4044
41.0015
41.6742
68.5307
66.0688
62.0696
58.0893
54.9742
52.8344
51.4571
50.4432
49.4293
48.4299
47.4405
46.4466
45.4894
44.5658
43.6847
42.8712
42.0645
41.4141
41.0364
41.7298
68.8845
66.1478
61.9525
57.9448
54.8871
52.8239
51.4619
50.4316
49.4089
48.4066
47.4253
46.4389
45.4862
44.571
43.6933
42.8847
42.0836
41.4347
41.0431
41.7068
69.4354
66.2492
61.7682
57.7295
54.7629
52.8036
51.4664
50.4105
49.3796
48.3732
47.4021
46.4254
45.4779
44.5767
43.7068
42.9025
42.1115
41.4659
41.0333
41.6191
70.1924
66.363
61.4987
57.4443
54.6234
52.7745
51.4594
50.3787
49.341
48.3289
47.3726
46.4054
45.4669
44.5784
43.7201
42.9242
42.1526
41.5091
41.0356
41.4628
71.1779
66.4597
61.1293
57.0938
54.4725
52.7278
51.4326
50.3371
49.2932
48.2756
47.3376
46.3807
45.4541
44.5766
43.7355
42.9449
42.1995
41.5621
41.0721
41.2383
72.4272
66.488
60.6516
56.684
54.3042
52.6611
51.3846
50.2835
49.2393
48.2215
47.302
46.3569
45.4426
44.5716
43.7487
42.96
42.2469
41.6136
41.1376
40.9856
73.9648
66.426
60.0633
56.2581
54.1224
52.5748
51.3222
50.2285
49.1926
48.1813
47.275
46.3402
45.4355
44.5692
43.7588
42.972
42.2809
41.6517
41.2013
40.8542
75.9309
66.3484
59.4615
55.8816
53.9549
52.4968
51.2765
50.1958
49.1686
48.1648
47.2641
46.3356
45.4361
44.5719
43.7655
42.9813
42.2969
41.6736
41.201
40.789
79.0449
66.7018
59.2921
55.7682
53.8947
52.4715
51.2704
50.1943
49.1697
48.1691
47.2663
46.3372
45.4397
44.5741
43.7686
42.9847
42.3007
41.6792
41.2027
40.9103
39.9026
39.9739
39.9595
39.8419
39.6087
39.2923
38.9494
38.6549
38.4652
38.3918
38.422
38.5198
38.6572
38.8024
38.9611
39.1174
39.2435
39.3566
39.4244
39.4485
39.4129
39.2892
39.1068
38.8295
38.5124
38.0481
37.456
36.7725
35.9069
35.0085
33.9426
32.8922
31.7796
30.5021
29.4254
28.1908
27.2151
26.3985
25.8242
25.9526
26.4199
28.0017
30.4759
33.7893
38.3509
43.2905
48.4338
53.7803
59.0457
64.1749
68.0286
70.541
72.1392
71.7335
69.7466
66.3189
61.3959
55.0687
48.3608
42.4238
36.4736
30.6779
26.1604
21.3994
16.6983
14.2155
11.8855
9.00854
8.49423
8.68067
7.66867
8.23874
9.76777
10.4667
12.0263
14.5697
17.162
20.0535
23.7375
28.143
32.5752
37.0197
41.7826
45.9889
49.4321
52.8251
55.8231
57.9563
59.5267
60.58
60.9062
60.5044
59.4388
57.6261
54.9302
51.1048
45.9653
39.6494
32.2332
25.4056
19.3794
13.5357
9.51943
6.88287
5.07429
5.2801
6.24945
7.35745
10.2424
15.3103
20.9005
26.6178
32.4719
37.5925
42.2593
46.5928
50.0715
52.7854
55.0571
56.6915
57.4914
57.843
57.8955
57.6974
57.273
56.6948
56.1002
55.2975
54.4085
53.5483
52.7155
52.0886
51.5039
50.5944
49.731
49.007
48.1889
47.6047
47.082
46.8651
47.0123
47.5051
47.8616
48.6834
49.5422
50.8549
52.2892
54.0126
56.0932
57.8588
59.5708
60.9188
62.1664
62.7823
62.9555
63.3842
63.0599
62.3919
61.7366
61.0438
59.3499
57.2283
54.3461
50.0025
46.0006
41.4468
34.871
27.9835
22.2025
17.6654
14.5994
12.8953
13.2426
14.7659
18.0855
22.3053
26.9644
31.9551
37.1926
42.0214
45.9411
48.4562
49.8269
50.6631
51.317
51.6193
51.7828
51.8298
51.7753
51.6731
51.6367
51.5638
51.4054
51.0777
50.0742
48.7214
46.5184
42.5484
37.1276
17.781
39.6409
39.6368
39.6861
39.7039
39.5902
39.3528
39.0485
38.7565
38.5492
38.4415
38.4513
38.5308
38.6586
38.799
38.9537
39.114
39.2226
39.3406
39.3987
39.4073
39.3746
39.2447
39.059
38.7609
38.4495
37.9668
37.3726
36.7312
35.8309
35.0031
33.9521
32.9445
31.9445
30.7023
29.8261
28.6944
27.9465
27.4238
27.0502
27.6048
28.2102
29.9659
32.5602
35.7249
40.0001
44.4711
49.4039
54.489
59.1226
63.303
66.7135
69.091
70.3105
70.2141
68.3531
64.8549
60.6032
55.0969
48.6736
43.1856
37.8828
32.2082
28.0963
24.1676
19.4283
16.7358
15.2163
12.4941
11.166
11.5062
11.1545
11.2636
12.5182
13.6106
14.9922
17.16
19.7511
22.5093
25.6375
29.6948
33.8124
37.7667
42.3124
46.4812
49.8381
53.3782
56.5928
58.8187
60.498
61.6223
61.8746
61.3381
59.9894
57.6312
54.225
49.5218
43.2236
35.9252
28.2403
20.7795
14.2331
8.28481
3.85669
1.14249
-0.523883
-0.654819
0.274476
1.54538
4.53755
9.67633
15.6951
22.177
28.7435
34.7319
40.1646
44.8927
48.9184
52.3476
54.9143
56.6077
57.6399
58.2257
58.4188
58.2719
57.8111
57.1796
56.5575
55.6424
54.6871
53.9491
53.0892
52.5275
52.3431
51.7168
50.9698
50.4808
49.8666
49.3642
48.8494
48.6488
48.6576
49.2064
49.6547
50.3079
51.2297
52.4265
53.8449
55.3493
57.2856
58.922
60.3571
61.6499
62.7938
63.3572
63.3282
63.7647
63.3587
62.6854
61.8281
60.827
58.6452
56.3688
53.5549
49.3298
45.0354
39.9935
33.6098
26.1017
20.4416
16.456
13.5087
12.4616
12.1791
13.2165
16.0915
20.2812
25.0686
29.9704
35.3748
40.9131
44.5724
46.8961
48.5448
49.0771
49.8699
50.4045
50.7368
51.2267
51.2391
51.2101
50.916
50.6728
50.1468
49.3353
48.037
46.1039
43.9596
38.1751
32.271
14.4739
39.6844
39.6237
39.6183
39.6754
39.6266
39.4597
39.1714
38.8605
38.6249
38.4884
38.4889
38.5599
38.6875
38.8232
38.9722
39.1271
39.2145
39.326
39.3541
39.3591
39.3046
39.1633
39.0046
38.6575
38.3777
37.8642
37.2875
36.7237
35.7847
35.1183
34.0865
33.1392
32.3458
31.1342
30.5254
29.5545
29.0174
28.855
28.6135
29.5332
30.2639
32.1039
34.6917
37.4796
41.5296
45.4521
49.967
54.1948
58.0594
61.9679
64.7686
66.9665
67.9029
67.6845
66.4142
62.9525
59.0678
54.8619
48.8331
43.6223
39.3967
33.8949
29.6219
26.7725
22.6225
19.5145
18.3096
16.3837
14.7733
14.7493
14.8714
14.9644
15.7104
16.9458
18.2133
19.7922
22.0045
24.4475
27.0911
30.5838
34.423
38.2017
42.5079
46.6319
50.1745
53.9011
57.3391
59.8022
61.6509
62.8713
63.093
62.4464
60.9098
58.1114
53.9431
48.227
40.9103
32.5243
24.2653
16.8487
9.84526
3.52147
-1.06146
-4.09312
-5.97678
-5.9781
-4.85067
-3.61036
-0.728358
4.81971
11.5782
18.3475
25.2361
32.2511
38.5091
43.7308
48.2164
51.979
54.7382
56.8166
58.2192
59.0293
59.2315
59.1189
58.6615
57.9719
57.3356
56.3017
55.2438
54.5328
53.7149
53.1195
53.281
53.1195
52.5573
52.2246
51.7151
51.2646
50.8221
50.5574
50.6023
50.9422
51.3806
51.8425
52.859
53.9187
55.091
56.4687
58.3182
59.8703
61.0374
62.261
63.3034
63.8099
63.8014
64.128
63.7079
63.1133
62.0633
60.9471
58.2873
55.8106
53.0733
49.3167
44.6403
39.3003
32.8883
24.5275
18.726
15.2024
12.6622
11.304
11.2212
12.2532
15.0876
19.3329
23.8804
29.1231
34.5408
39.5887
43.411
45.6368
47.1437
48.1865
48.8671
49.5469
49.9417
50.4762
50.6177
50.5187
50.2509
49.7507
48.9874
47.6148
46.5021
43.6747
41.7106
35.0121
28.424
16.0833
39.0032
39.0967
39.6093
39.961
39.9587
39.7164
39.322
38.9339
38.6747
38.5288
38.532
38.6024
38.7537
38.8821
39.0153
39.1746
39.2204
39.3325
39.3217
39.2972
39.248
39.0671
38.9387
38.5659
38.3066
37.8337
37.2514
36.7958
35.8834
35.3229
34.4238
33.519
32.9543
31.8758
31.4512
30.7753
30.3516
30.5345
30.4639
31.5043
32.4588
34.1679
36.6684
39.0829
42.7797
46.0196
49.8535
53.6353
56.7991
60.3413
62.3537
64.2599
65.349
64.7492
64.0803
61.3261
57.5252
54.4216
49.4426
44.3287
40.8699
36.3376
31.9413
29.4742
26.4563
23.2277
21.7882
20.6426
19.2831
18.7692
18.7651
18.9512
19.2771
20.036
21.1409
22.2153
23.7447
25.7221
28.0719
31.1939
34.6413
38.131
42.2345
46.4823
50.4074
54.3144
57.8945
60.6974
62.7948
64.1388
64.4137
63.6643
61.9235
58.7822
53.9567
47.3008
38.9657
29.9969
21.1522
13.3486
6.23194
-0.484705
-5.51634
-8.86435
-10.8475
-10.7702
-9.45075
-8.09569
-5.14099
0.798859
8.069
15.1381
22.6178
30.5709
37.4727
42.9981
47.8742
51.9603
55.1211
57.5658
59.1317
60.0032
60.2547
60.2558
59.904
59.1927
58.4622
57.3854
56.2732
55.5782
54.858
54.18
54.3728
54.5969
54.1769
53.9209
53.5865
53.1641
52.8878
52.6053
52.5474
52.6838
53.0472
53.2789
54.1655
55.1957
56.2469
57.5487
59.2205
60.5883
61.576
62.7879
63.7067
64.1339
64.3815
64.4636
64.0359
63.5586
62.5734
61.2488
58.5271
56.0339
52.9187
49.4559
44.5869
39.6929
32.9468
24.0533
18.1563
14.0591
12.0599
11.7216
10.9942
11.9895
14.7365
19.0197
23.6327
29.0334
34.4037
39.0222
43.3487
45.6002
47.0882
48.5173
48.339
48.6864
49.2989
49.8325
50.1768
49.9681
49.787
48.9209
48.1892
46.4035
45.2089
41.7073
39.1547
33.0808
26.3412
17.7181
38.7415
38.9922
39.9146
40.3988
40.3254
39.9734
39.4319
38.9587
38.7002
38.5447
38.5937
38.6765
38.833
39.0002
39.0832
39.2251
39.2605
39.3303
39.3064
39.2298
39.1953
38.9994
38.8522
38.5405
38.2625
37.8469
37.3129
36.9156
36.1163
35.6093
34.9454
34.0857
33.7016
32.8972
32.4878
32.1932
31.8529
32.1972
32.4074
33.3348
34.5127
36.0148
38.3095
40.4692
43.58
46.4345
49.5897
52.9934
55.4433
58.4413
60.2096
61.6207
62.8974
62.2419
61.6723
59.862
56.3955
53.8084
50.271
45.6537
42.5125
39.2961
35.1647
32.5287
30.3651
27.6446
25.9429
25.0152
23.8815
23.1008
22.8522
22.822
22.6738
22.7659
23.4235
24.0871
25.119
26.6434
28.5444
31.2264
34.3895
37.7578
41.6847
45.9583
50.209
54.3937
58.2521
61.4446
63.7808
65.2367
65.6665
64.9289
62.9329
59.4037
54.0568
46.7862
37.6639
28.0524
19.1028
10.89
3.36283
-3.58336
-9.11284
-12.7601
-14.561
-14.4218
-13.224
-11.8821
-8.77419
-2.37539
5.43925
12.8666
20.8292
29.3763
36.9663
43.1511
48.339
52.5079
56.066
58.6861
60.3146
61.3073
61.6946
61.844
61.4914
60.7995
60.0642
59.0315
57.9308
57.2359
56.6033
55.875
56.0012
56.2485
55.9987
55.623
55.358
55.0128
54.8617
54.6027
54.2925
54.2936
54.4562
54.6118
55.342
56.2424
57.1876
58.4499
60.0274
61.1943
61.9723
63.2226
64.157
64.5372
64.9667
64.9803
64.5626
64.1944
63.4528
61.6631
59.4036
57.0337
53.9895
50.0956
45.5103
40.743
33.6933
25.0674
19.1799
13.8099
11.7329
10.4912
10.8097
12.1197
15.0544
19.5404
24.4196
29.5407
35.158
39.9757
44.2552
47.1362
48.3415
48.876
48.4428
48.74
49.6398
49.9629
50.2112
49.8109
49.4852
48.476
47.7115
45.5883
43.9194
40.5586
37.1076
32.3559
25.7859
19.6068
38.7699
39.1543
40.159
40.5786
40.482
40.0606
39.4691
39.0042
38.7466
38.635
38.6993
38.7878
38.9586
39.1327
39.1755
39.2831
39.3354
39.3434
39.3217
39.2091
39.1535
38.9852
38.7885
38.55
38.2612
37.9386
37.466
37.1049
36.5082
35.9899
35.5539
34.807
34.4719
33.9852
33.5695
33.5286
33.3568
33.7162
34.1796
34.9612
36.2037
37.5855
39.5433
41.5286
44.0985
46.6824
49.2561
52.2276
54.3402
56.7542
58.5144
59.4522
60.6554
60.3385
59.5347
58.466
55.8146
53.3468
50.9522
47.3654
44.3418
41.9779
38.8096
35.8647
33.9718
32.0487
30.2877
29.1217
28.1134
27.1209
26.4677
26.2147
25.7162
25.123
25.1837
25.4953
26.1681
27.2024
28.4827
30.7322
33.5969
36.7428
40.524
44.8049
49.3897
54.0513
58.2994
61.8128
64.4662
66.1847
66.7726
65.9899
63.7599
59.8434
54.0944
46.4719
37.1195
26.9973
17.7377
9.48157
1.63136
-5.52415
-11.2807
-15.1469
-16.9138
-16.8083
-15.8197
-14.5377
-11.1224
-4.21116
3.91459
11.5109
19.9319
29.0808
37.3464
43.9262
49.1002
53.6831
57.6356
60.1561
61.9702
63.1343
63.5554
63.7584
63.4727
62.8554
62.1417
61.2012
60.1451
59.4324
58.9153
58.3018
58.1215
58.1414
57.8735
57.4674
57.1387
56.8941
56.6021
56.3208
55.9068
55.8166
55.7034
55.7141
56.4244
57.2382
57.9579
59.1645
60.6632
61.7061
62.4052
63.6543
64.476
64.8712
65.4853
65.6096
65.2294
64.9323
64.3223
62.7099
60.539
58.1087
55.8936
51.5746
47.4366
42.1385
34.9253
27.493
20.9114
14.7598
12.7403
11.0022
11.4198
12.8967
16.196
20.5204
25.7672
30.8123
36.559
41.7744
45.7654
49.2156
49.9808
50.0131
50.4764
50.6417
50.9909
50.604
50.5127
49.9722
49.4749
48.4263
47.428
45.257
43.1545
40.194
36.1985
32.7925
26.7307
21.7897
39.4972
39.6541
40.1501
40.1694
39.9465
39.6144
39.1707
38.9206
38.8247
38.7907
38.8757
38.9675
39.1316
39.2929
39.2862
39.3505
39.3977
39.3567
39.3213
39.1945
39.1328
38.9977
38.7909
38.5792
38.3334
38.0755
37.6415
37.3518
36.8938
36.4058
36.1279
35.5276
35.2328
34.9995
34.6459
34.6842
34.7183
35.0494
35.5938
36.3226
37.4715
38.7556
40.4641
42.2542
44.4432
46.7849
48.9016
51.4838
53.4161
55.3135
57.0958
57.7784
58.7131
58.8018
57.9361
57.2493
55.4679
53.2447
51.4531
48.8472
46.1546
44.1411
41.6494
39.148
37.4472
35.8515
34.231
32.9764
31.8877
30.6288
29.5639
28.9687
28.2956
27.479
26.9459
26.6262
26.7574
27.3801
28.0877
29.6143
31.9972
34.8177
38.585
43.0299
47.8219
53.0187
57.8601
61.6906
64.7392
66.8928
67.5728
66.6791
64.2804
60.1011
54.0157
46.1846
36.9123
26.8275
17.2316
8.81978
0.964077
-6.26977
-12.0636
-15.9056
-17.7636
-18.0036
-17.3647
-16.0041
-12.0639
-4.8504
3.27888
11.3055
20.2252
29.5908
38.1748
45.0287
50.605
55.6279
59.4275
62.0361
64.2198
65.3267
65.8437
66.1088
65.7867
65.203
64.4912
63.689
62.7411
61.9567
61.4592
60.7473
60.3727
60.1661
59.7504
59.3343
58.8526
58.6049
58.2497
57.8746
57.3672
57.1345
56.8857
56.7958
57.4284
58.0607
58.7581
59.9434
61.2202
62.1306
62.8208
63.989
64.7218
65.1933
65.8893
66.1918
65.8009
65.673
64.849
63.9341
61.7476
59.1035
57.028
53.0681
48.9913
43.918
36.9475
30.3352
23.1959
17.2249
14.956
12.8163
13.1529
14.6506
18.1829
22.5369
27.9516
33.2483
38.6227
44.2791
48.2245
51.5112
52.8591
53.0647
53.5378
52.7474
52.1787
51.5289
51.2111
50.5853
49.9159
48.7736
47.3455
45.3638
42.9018
40.3755
36.3965
33.6956
28.3893
23.5553
41.8914
41.5097
40.3633
39.4399
38.9554
38.7608
38.6325
38.7241
38.8777
38.9878
39.0965
39.1738
39.3217
39.4491
39.3916
39.4146
39.4564
39.3837
39.3265
39.2083
39.1356
39.0138
38.8436
38.6381
38.4296
38.2423
37.8686
37.6106
37.2872
36.8951
36.6362
36.2193
35.9642
35.8328
35.6337
35.6551
35.8171
36.1926
36.7138
37.4147
38.4904
39.6588
41.1615
42.7955
44.6522
46.7369
48.5819
50.7636
52.5866
54.1374
55.7392
56.4532
57.1278
57.4177
56.8032
56.2595
55.1286
53.3467
51.8404
50.0002
47.7324
45.8749
44.1501
42.1684
40.4862
39.0818
37.6637
36.319
35.2769
34.0223
32.5971
31.6325
30.6023
29.6376
28.7723
27.6619
27.0327
26.9462
27.1343
28.0732
29.876
32.3501
35.822
40.3485
45.5797
51.1922
56.5752
61.0925
64.6231
66.9672
67.7316
66.8792
64.4296
60.191
53.9664
46.026
36.8647
27.1199
17.5785
8.94614
1.10449
-6.00024
-11.7488
-15.5723
-17.5176
-17.9661
-17.5962
-15.9467
-11.6147
-4.42834
3.85996
12.2747
21.208
30.6744
39.6075
46.8022
52.7061
57.7433
61.4706
64.5538
66.7803
67.8327
68.5398
68.7121
68.2805
67.7537
67.1227
66.35
65.409
64.5883
63.9614
63.2161
62.6523
62.1374
61.5866
61.0888
60.5137
60.1116
59.7388
59.2638
58.7655
58.3908
58.024
57.8354
58.3787
58.9168
59.5798
60.656
61.7114
62.4896
63.1979
64.2137
65.0205
65.6113
66.2912
66.8922
66.4317
66.32
65.4767
64.7151
62.8985
60.1558
57.3422
54.009
49.8184
45.5059
39.8117
33.2769
26.5083
20.6825
18.336
15.8089
16.2713
17.816
21.1887
25.718
30.6368
36.3946
41.4619
47.3045
51.5863
54.3732
56.4967
56.4316
56.0492
54.8343
54.0773
53.3869
52.5646
51.6403
50.5732
49.2862
47.5465
45.7543
43.0615
40.8171
37.1768
34.4888
29.7847
24.9387
42.845
42.3046
40.5407
39.0743
38.3286
38.1728
38.2819
38.6157
38.951
39.1932
39.3266
39.4093
39.5561
39.6021
39.5129
39.5027
39.4858
39.4198
39.3541
39.222
39.177
39.0741
38.9062
38.747
38.5704
38.4087
38.1228
37.8892
37.6506
37.3664
37.137
36.8355
36.655
36.6011
36.4714
36.533
36.7684
37.1179
37.6578
38.3166
39.2855
40.3709
41.6861
43.1654
44.775
46.6229
48.2554
50.0955
51.7959
53.1049
54.4864
55.3056
55.824
56.2283
55.9666
55.4644
54.7807
53.5414
52.1983
50.8767
49.2179
47.6463
46.3289
44.7715
43.2393
41.9701
40.7288
39.4624
38.2652
37.1966
35.8865
34.5009
32.9708
31.4654
30.3056
28.6393
27.0914
26.2469
25.9249
26.3946
27.4495
29.4066
32.6483
36.968
42.5149
48.7374
54.5689
59.5555
63.6673
66.4499
67.4343
66.5876
64.1287
59.9951
53.9693
46.1571
37.1035
27.6602
18.5053
10.0091
2.25246
-4.70777
-10.3899
-14.2995
-16.4479
-16.9672
-16.7341
-14.6517
-9.90005
-2.53263
5.72782
13.9565
22.8746
32.5728
41.5707
48.9453
55.0953
60.0757
63.9882
67.2566
69.3177
70.5587
71.4019
71.4798
71.0066
70.4208
69.7274
68.9016
67.947
67.125
66.3542
65.454
64.7289
64.0143
63.3367
62.623
61.9502
61.4739
61.0796
60.5226
59.935
59.5155
59.1857
59.0056
59.3715
59.7512
60.311
61.2767
62.1393
62.8657
63.562
64.398
65.244
66.0741
66.8485
67.603
67.1416
66.8114
66.4029
65.3148
63.7906
61.2645
58.0052
55.0265
50.9161
46.944
42.6602
36.4495
30.453
24.3439
22.8183
21.0374
20.7877
21.4886
25.0338
29.3394
34.091
39.9954
45.079
50.3406
55.2439
57.6737
59.9458
59.8802
59.2477
58.327
57.1302
55.7176
54.244
52.9928
51.4748
50.102
48.1311
46.3046
43.6079
41.42
38.0561
35.0836
30.8692
26.2765
43.2368
42.8107
40.8412
39.1229
38.2452
38.0183
38.1372
38.5674
38.9938
39.3063
39.5047
39.5894
39.7232
39.7457
39.6205
39.583
39.5431
39.4655
39.3821
39.2648
39.2262
39.1414
38.9797
38.8862
38.7348
38.5985
38.4156
38.15
38.0285
37.8262
37.5658
37.428
37.2945
37.2659
37.2395
37.3031
37.5781
37.9087
38.4233
39.0638
39.9407
40.9407
42.0621
43.4415
44.8316
46.3942
47.908
49.4583
51.0241
52.229
53.4053
54.2987
54.8082
55.2306
55.2534
54.9308
54.4588
53.6864
52.6894
51.6935
50.6006
49.327
48.2099
47.0499
45.7832
44.7504
43.6721
42.5693
41.335
40.0803
38.9443
37.4565
35.5152
33.311
31.4195
29.4778
27.3986
25.7658
24.7907
24.7213
25.0815
26.3552
29.3108
33.57
39.1531
45.7892
52.0816
57.5822
62.1874
65.2424
66.2737
65.5042
63.2389
59.4164
53.8721
46.5994
37.9082
28.598
19.6836
11.5679
4.18706
-2.47065
-8.03522
-12.0618
-14.5087
-15.7291
-14.8981
-12.2904
-7.06406
0.288885
8.11404
16.2576
25.3875
35.0242
43.9184
51.5056
57.6719
62.5427
66.6306
69.7399
71.8049
73.3556
74.2487
74.1634
73.5549
72.9079
72.1625
71.2842
70.291
69.3482
68.4247
67.428
66.5737
65.669
64.8199
64.0159
63.2184
62.6617
62.1635
61.6067
60.9998
60.5902
60.1983
60.073
60.2989
60.6076
61.0671
61.8404
62.5309
63.235
63.8779
64.59
65.3684
66.3644
67.4084
68.213
67.8405
67.4645
67.3202
65.9817
64.4346
62.2497
59.4084
56.5122
52.6203
48.8118
45.0146
38.9824
34.3864
28.7854
27.5919
22.4237
26.4672
25.0177
29.9241
32.7007
38.6356
43.48
49.231
53.6052
58.9682
61.4841
63.6233
64.0666
63.2705
62.1133
60.2305
58.3053
56.4535
54.8969
52.8947
51.3597
49.0868
47.0955
44.4917
42.0495
38.7781
35.7099
31.8944
27.5597
43.526
43.0966
41.0595
39.2814
38.2857
37.9626
38.0711
38.5073
39.0308
39.3841
39.6205
39.769
39.8396
39.8613
39.7263
39.6339
39.6099
39.5049
39.4079
39.3432
39.2923
39.247
39.1173
39.0006
38.9534
38.8039
38.6335
38.4782
38.3674
38.2581
38.0362
37.9282
37.9119
37.8663
37.8797
38.0165
38.2654
38.5996
39.0722
39.6837
40.4638
41.3464
42.346
43.5612
44.8349
46.1619
47.518
48.9068
50.2838
51.4333
52.4915
53.3896
53.9849
54.4333
54.6427
54.5555
54.3149
53.8801
53.2588
52.555
51.7934
50.8771
49.9651
49.1179
48.1661
47.2574
46.4635
45.6147
44.4531
43.042
41.7228
40.1952
38.0568
35.358
32.6414
30.1569
27.7342
25.6454
24.1691
23.4889
23.3812
24.1502
26.581
30.6492
36.3286
43.0196
49.4663
55.2893
60.1183
63.1359
64.2361
63.6904
61.8382
58.5357
53.6716
47.2114
39.3687
30.4333
21.6071
13.6182
6.53771
0.308064
-4.93854
-8.91945
-11.4176
-12.3435
-11.3475
-8.47407
-3.24853
3.63614
11.1839
19.3959
28.4796
37.8834
46.7519
54.2498
60.2028
65.1309
69.0908
71.9893
74.2454
75.9515
76.6606
76.4722
75.929
75.2271
74.3339
73.3063
72.2418
71.2124
70.1211
69.0372
68.0586
67.0244
66.0988
65.1989
64.3085
63.7118
63.1112
62.4711
61.8953
61.5108
61.1088
60.9702
61.12
61.369
61.7662
62.3548
62.9492
63.5271
64.1204
64.6485
65.3963
66.4933
67.707
68.6469
68.4338
68.0541
67.8886
66.6992
65.1636
63.0367
60.5893
57.8137
54.3038
50.9728
46.8612
41.7748
37.8336
32.9586
31.4432
28.8352
31.0107
29.8552
35.3922
35.7273
43.7234
46.5691
53.3167
57.3162
62.6473
65.5712
67.5204
68.2155
67.2155
65.7143
63.7798
61.6434
59.3071
57.3596
54.7699
52.9259
50.4951
48.1118
45.4368
42.7514
39.5073
36.5372
33.0397
28.943
43.6742
43.2368
41.1524
39.3924
38.3598
37.9578
38.1003
38.5492
39.1051
39.4888
39.7092
39.9068
39.9397
39.9334
39.8205
39.7036
39.6839
39.5626
39.4884
39.4092
39.3838
39.3607
39.2331
39.164
39.1462
39.0628
38.8897
38.7981
38.7278
38.6519
38.4844
38.3838
38.4649
38.4303
38.4568
38.6446
38.8686
39.1916
39.6174
40.1808
40.9008
41.645
42.5375
43.6132
44.7386
45.9002
47.1015
48.3528
49.5814
50.6905
51.6961
52.5869
53.2764
53.7986
54.1633
54.301
54.2671
54.1275
53.8219
53.3806
52.8678
52.2582
51.6649
51.0336
50.3503
49.6982
49.0402
48.3277
47.3323
46.1145
44.6198
42.6186
40.1989
37.3376
34.0813
30.7646
27.98
25.9084
24.3059
23.1529
22.5544
22.9581
24.9801
28.7298
34.2612
40.7258
47.0311
52.8914
57.5967
60.3763
61.6583
61.3185
60.0319
57.5091
53.4906
47.8466
40.9267
32.9667
24.6221
16.7141
9.68789
3.64585
-1.34544
-5.1252
-7.47448
-8.1934
-7.04215
-4.00803
1.02708
7.50049
14.8535
22.8554
31.8171
41.1665
49.8228
57.0112
62.8544
67.6723
71.3135
74.1988
76.5833
78.1196
78.6681
78.5404
77.9482
77.077
76.0897
74.9836
73.7998
72.645
71.4888
70.3557
69.3229
68.1784
67.1804
66.1462
65.2374
64.5613
63.8645
63.1798
62.6898
62.2615
61.9254
61.7899
61.8324
61.9698
62.3119
62.8341
63.3623
63.8337
64.2822
64.5406
65.1802
66.3921
67.7921
68.8345
68.6961
68.3383
67.9353
67.025
65.7366
63.9161
61.5108
58.8694
55.771
52.8562
48.15
44.957
41.5022
34.8254
34.7165
33.6742
34.3969
34.9836
39.179
39.6479
48.4451
50.0507
56.9484
61.2122
66.0113
69.4187
71.1384
71.7734
71.1759
69.5891
67.7865
65.1978
62.4437
60.183
57.0566
54.8254
52.3572
49.458
46.6341
43.8505
40.6482
37.6003
34.206
30.4639
43.6823
43.2375
41.1494
39.4786
38.482
38.0896
38.285
38.7136
39.2486
39.6179
39.7976
40.0147
40.0288
39.9691
39.9091
39.7523
39.7369
39.6546
39.5527
39.5273
39.4905
39.5005
39.4016
39.3408
39.3523
39.2927
39.1462
39.0926
39.076
39.0231
38.9386
38.8506
38.9618
38.9697
38.9869
39.1913
39.4118
39.6946
40.0783
40.5982
41.21
41.8785
42.6521
43.5834
44.5796
45.5977
46.6703
47.8024
48.9492
49.9938
50.9652
51.8821
52.657
53.2802
53.7915
54.1475
54.3369
54.4094
54.3634
54.1874
53.9402
53.6067
53.2315
52.8233
52.3593
51.9143
51.4319
50.7734
49.7059
48.5848
47.3499
45.04
41.9037
38.6457
35.2715
31.7203
28.5746
26.2948
24.6157
23.3376
22.5624
22.6875
24.3521
27.9149
33.1496
39.1576
45.2599
50.8425
54.9771
57.2462
58.1092
58.5458
57.9363
56.2289
53.1455
48.5224
42.5667
35.6333
28.1286
20.6116
13.6906
7.70021
2.80898
-0.833409
-3.04942
-3.64176
-2.43698
0.604499
5.42198
11.6201
18.7407
26.6416
35.5453
44.7073
52.9825
59.8525
65.5291
69.9877
73.4694
76.3634
78.5629
79.8573
80.3189
80.1593
79.4526
78.5221
77.4975
76.258
75.0449
73.8733
72.6118
71.4052
70.2273
69.092
68.0226
66.919
65.992
65.344
64.5631
63.8477
63.3421
62.879
62.5345
62.513
62.5216
62.5352
62.8387
63.2006
63.7066
64.2387
64.323
64.2391
64.7324
66.2806
67.785
68.7018
68.5728
68.2557
67.8253
67.0847
66.0268
64.8482
62.7483
60.2956
57.2742
54.4054
49.7499
47.8162
44.0443
38.6969
37.5972
35.2053
37.2285
38.5974
42.0704
44.0516
52.1531
53.7853
59.8377
64.9211
68.8207
72.6553
74.2365
75.0035
75.0199
73.4344
71.6058
68.7079
65.7872
63.172
59.8343
57.0929
54.3376
51.1521
48.1221
45.1202
42.0093
38.7634
35.3867
31.9899
43.5038
43.0635
41.085
39.5507
38.6819
38.3484
38.5818
38.9857
39.4299
39.7618
39.9131
40.0626
40.0802
40.0106
39.9483
39.8438
39.7876
39.7352
39.6493
39.6295
39.6174
39.6282
39.5734
39.5212
39.5595
39.5114
39.4425
39.3975
39.4085
39.4002
39.3119
39.3213
39.398
39.426
39.5094
39.6743
39.8814
40.1562
40.4833
40.9315
41.4397
42.0215
42.7187
43.4915
44.3924
45.2954
46.2409
47.2964
48.3201
49.3445
50.3283
51.2584
52.1487
52.8662
53.5266
54.0686
54.4341
54.7427
54.9137
54.9482
54.9186
54.7675
54.5718
54.3583
54.0122
53.6686
53.3449
52.7588
51.6833
50.4508
49.1654
46.9547
43.5794
39.6943
35.8407
32.2346
29.1967
26.9798
25.2401
23.734
22.6932
22.7964
24.598
28.1149
32.9939
38.6722
44.538
49.5169
52.738
54.4447
55.3275
55.8881
55.784
54.797
52.6931
49.2673
44.4645
38.5325
31.8893
24.9807
18.3244
12.3951
7.5132
3.89326
1.71639
1.15898
2.34958
5.3428
9.99043
15.9921
22.9647
30.8822
39.6282
48.3082
56.1141
62.6076
67.9094
72.0935
75.4831
78.1985
80.1245
81.2347
81.6018
81.3717
80.6121
79.6961
78.6293
77.3384
76.06
74.7788
73.4368
72.2124
71.008
69.8396
68.7653
67.6155
66.6659
65.9365
65.1059
64.4606
63.9966
63.4786
63.0422
62.98
63.0394
63.1223
63.3615
63.5888
64.0267
64.5968
64.3929
63.7785
64.2488
65.8591
67.4663
68.2643
68.3526
67.9882
67.9441
67.442
66.6302
65.8075
64.1315
61.6877
58.6019
56.1606
51.69
49.4697
45.5946
43.4996
40.9027
37.8219
39.5081
40.1619
45.3575
47.6762
54.569
57.1867
62.4214
68.2271
71.3052
75.4124
77.0147
78.1758
78.2989
76.835
74.9432
72.1764
69.0653
65.9606
62.6712
59.3799
56.1164
52.8945
49.6965
46.3834
43.3469
39.9938
36.6121
33.4043
43.0472
42.6159
40.9295
39.6602
38.9657
38.7669
39.001
39.3359
39.6772
39.918
40.0141
40.1131
40.0869
40.0321
39.9747
39.8877
39.859
39.8047
39.7655
39.7427
39.7561
39.7608
39.7339
39.7295
39.7376
39.7407
39.6994
39.6951
39.7163
39.7129
39.6989
39.7275
39.7952
39.8475
39.9531
40.0948
40.2753
40.537
40.8216
41.1895
41.6393
42.1304
42.7363
43.4105
44.1811
45.0005
45.8638
46.8339
47.8024
48.8053
49.8006
50.7765
51.7264
52.5644
53.3222
54.0366
54.572
54.999
55.3766
55.5539
55.6318
55.6292
55.5144
55.4035
55.1667
54.8817
54.5635
53.9649
53.0016
51.8352
50.391
48.0944
44.72
40.5576
36.307
32.5796
29.5683
27.45
25.8196
24.3882
23.4762
23.6453
25.6189
29.1537
33.7894
39.2911
44.8487
48.9906
51.2351
52.3219
52.9761
53.5322
53.7577
53.5818
52.5047
50.166
46.4781
41.574
35.7873
29.5545
23.3164
17.5449
12.6657
8.99491
6.76418
6.17493
7.29229
10.2101
14.7106
20.5618
27.4601
35.2823
43.6408
51.7423
58.984
65.0944
70.0232
74.0328
77.2442
79.711
81.4055
82.3599
82.6387
82.2886
81.5335
80.6165
79.4701
78.1447
76.842
75.5392
74.1679
72.8867
71.6436
70.4586
69.3699
68.2213
67.3281
66.4864
65.5506
64.8919
64.4777
63.9627
63.5644
63.4529
63.3922
63.5237
63.7724
64.0071
64.5022
64.962
64.4584
63.5888
63.8982
65.5458
67.1051
67.7089
67.8603
67.8114
68.3184
68.0924
67.4758
66.7577
65.3301
62.9415
59.8828
58.1043
53.4927
51.5377
48.0918
46.3903
43.8848
43.3892
42.5947
41.1898
48.0902
49.8936
57.3627
59.9525
64.8319
71.008
73.886
77.7242
79.4799
80.9975
80.8401
79.6625
77.7579
75.3214
71.8637
68.394
65.1701
61.4977
57.8561
54.6467
51.3096
47.7283
44.6031
41.1987
37.8705
34.7309
42.2823
41.9368
40.7736
39.8915
39.4119
39.3137
39.4769
39.7055
39.9109
40.0368
40.1017
40.129
40.0892
40.0472
39.9878
39.9321
39.913
39.8755
39.8656
39.8676
39.8751
39.8936
39.8875
39.8975
39.9052
39.916
39.9264
39.9408
39.9681
39.9962
40.0147
40.0645
40.138
40.1865
40.3094
40.4352
40.5843
40.8262
41.0729
41.3956
41.7754
42.2101
42.7496
43.3357
44.0219
44.7852
45.5949
46.4946
47.43
48.412
49.4074
50.4132
51.4201
52.3073
53.152
53.9785
54.6088
55.1652
55.6222
55.8999
56.0498
56.0792
56.0188
55.9244
55.6943
55.3911
55.0488
54.4845
53.6317
52.5738
51.1949
49.0117
45.6549
41.3013
36.7423
32.9288
30.0935
28.1145
26.538
25.1474
24.6571
25.198
27.3136
30.8382
35.5322
41.0062
46.0401
49.2935
50.719
51.2341
51.5499
51.957
52.2855
52.7909
52.6491
51.2817
48.5337
44.5329
39.5436
33.9521
28.1945
22.7146
17.9506
14.2677
11.978
11.3439
12.4621
15.2146
19.5233
25.2016
31.9501
39.4934
47.3365
54.8466
61.5375
67.2583
71.9477
75.7134
78.7106
80.9339
82.4328
83.2402
83.4017
82.9975
82.2617
81.323
80.1453
78.8058
77.4848
76.1158
74.7298
73.4461
72.1453
70.9659
69.8874
68.7114
67.813
67.0276
66.0477
65.368
64.8474
64.2171
63.8474
63.8706
63.7921
63.8297
63.9414
64.1709
64.9911
65.4177
64.6452
63.7766
64.1456
65.5899
66.9529
67.4479
67.6329
67.6869
68.3156
68.7117
68.2824
67.5147
66.2715
64.328
61.3866
59.7715
55.7164
53.4603
50.8983
48.473
46.5334
46.6452
45.4032
46.1182
50.93
51.0124
59.4923
62.2347
67.4389
73.3617
76.4162
79.7087
81.8176
83.2733
82.9203
81.9527
80.1686
77.8379
74.1349
70.6827
67.3914
63.4883
59.6193
56.2291
52.7459
49.0141
45.7005
42.3219
39.0185
35.7885
41.4367
41.2635
40.7078
40.2455
39.9789
39.901
39.9436
40.0204
40.091
40.1286
40.134
40.1183
40.074
40.0472
40.0124
39.9838
39.9683
39.9399
39.9459
39.9447
39.9576
39.9856
39.998
40.0212
40.0374
40.0657
40.1003
40.1258
40.1625
40.2011
40.2305
40.2973
40.3651
40.4321
40.5568
40.6743
40.8217
41.0314
41.2608
41.5407
41.8803
42.2861
42.7677
43.3119
43.9517
44.6685
45.4403
46.2957
47.2052
48.1689
49.1605
50.164
51.1692
52.1018
52.9817
53.7988
54.5362
55.1646
55.6411
55.9437
56.104
56.1477
56.1063
56.0019
55.756
55.3683
54.9711
54.5588
53.8775
52.8824
51.6127
49.6589
46.5297
42.1967
37.6329
33.7499