/*--------------------------------*- C++ -*----------------------------------*\
| =========                 |                                                 |
| \\      /  F ield         | OpenFOAM: The Open Source CFD Toolbox           |
|  \\    /   O peration     | Version:  2.4.0                                 |
|   \\  /    A nd           | Web:      www.OpenFOAM.org                      |
|    \\/     M anipulation  |                                                 |
\*---------------------------------------------------------------------------*/
FoamFile
{
    version     2.0;
    format      ascii;
    class       volScalarField;
    location    "1.64";
    object      pPrime2Mean;
}
// * * * * * * * * * * * * * * * * * * * * * * * * * * * * * * * * * * * * * //

dimensions      [0 4 -4 0 0 0 0];

internalField   nonuniform List<scalar> 
8800
(
394443
384496
373823
363241
352804
342517
332384
322401
312570
302891
293361
283981
274746
265653
256691
247847
239081
230332
221436
211901
394457
384497
373822
363240
352803
342517
332384
322401
312570
302891
293361
283981
274747
265655
256694
247851
239091
230352
221485
212063
394466
384497
373819
363239
352803
342517
332383
322401
312570
302891
293362
283982
274748
265657
256699
247861
239109
230390
221575
212377
394473
384496
373817
363237
352802
342517
332383
322401
312570
302891
293362
283983
274750
265661
256706
247874
239136
230445
221700
212743
394478
384496
373815
363235
352801
342516
332383
322401
312570
302891
293363
283984
274753
265666
256715
247892
239169
230513
221850
213122
394483
384497
373813
363234
352801
342516
332383
322401
312570
302892
293364
283986
274756
265672
256726
247912
239209
230592
222016
213491
394486
384497
373812
363232
352800
342516
332383
322401
312571
302892
293365
283988
274760
265678
256739
247936
239254
230678
222188
213841
394489
384498
373811
363231
352799
342516
332383
322401
312571
302892
293366
283990
274764
265686
256753
247961
239301
230768
222362
214168
394490
384498
373810
363231
352799
342516
332383
322401
312571
302893
293367
283992
274768
265694
256767
247987
239351
230859
222533
214469
394491
384498
373810
363230
352799
342516
332383
322401
312571
302894
293368
283994
274772
265702
256782
248015
239401
230950
222696
214742
394491
384498
373810
363230
352799
342517
332384
322401
312572
302894
293370
283997
274777
265710
256797
248042
239450
231038
222849
214989
394490
384498
373810
363231
352799
342517
332384
322402
312572
302895
293371
283999
274781
265718
256812
248068
239497
231121
222991
215210
394489
384498
373811
363232
352800
342517
332384
322402
312573
302896
293372
284002
274786
265726
256826
248093
239542
231198
223119
215404
394486
384498
373812
363233
352800
342517
332384
322402
312573
302897
293374
284004
274790
265733
256839
248116
239583
231268
223233
215574
394483
384497
373813
363234
352801
342517
332384
322403
312574
302898
293375
284006
274793
265739
256850
248137
239619
231330
223332
215718
394478
384497
373815
363235
352802
342517
332384
322403
312574
302898
293376
284008
274797
265745
256861
248155
239650
231382
223415
215838
394473
384497
373817
363237
352802
342518
332384
322403
312575
302899
293377
284009
274799
265750
256869
248170
239676
231425
223481
215933
394466
384497
373820
363239
352803
342518
332385
322404
312575
302899
293378
284011
274801
265753
256875
248181
239695
231457
223531
216004
394457
384497
373822
363241
352804
342518
332385
322404
312575
302900
293378
284011
274803
265756
256880
248189
239708
231479
223565
216052
394443
384496
373823
363241
352804
342518
332385
322404
312575
302900
293378
284012
274803
265757
256882
248193
239715
231490
223582
216074
203260
200933
199157
197622
196198
194844
193538
192268
191027
189808
188607
187421
186249
185087
183935
182790
181653
180522
179396
178275
177158
176047
174941
173839
172741
171647
170557
169472
168390
167312
166239
165170
164107
163048
161995
160947
159905
158867
157834
156806
155781
154759
153741
152725
151713
150703
149697
148694
147695
146699
145706
144716
143728
142743
141760
140781
139806
138834
137866
136902
135940
134981
134024
133069
132118
131170
130225
129285
128349
127416
126487
125561
124637
123716
122797
121882
120969
120059
119153
118253
117356
116466
115580
114698
113821
112947
112077
111210
110346
109486
108628
107773
106920
106069
105220
104374
103530
102688
101849
101014
100181
99352.3
98527.2
97706.8
96890.5
96079.6
95273.4
94472.5
93676.2
92885
92098
91315.8
90537.2
89763
88992
88224.6
87459.9
86698.6
85940.1
85185.3
84433.6
83686
82941.2
82200.5
81461.9
80727.5
79995
79266.9
78540.5
77818
77097
76378.8
75662.1
74947.4
74234.4
73523.3
72814.2
72107.4
71403.1
70702
70004.1
69310
68619.5
67933
67250.3
66571.5
65896.7
65225.7
64558.2
63894
63232.9
62574.7
61918.8
61265.3
60614
59965.2
59318.5
58675.1
58034.5
57397.5
56763.4
56133.9
55507.6
54887
54270
53659.3
53052.4
52452.7
51856.9
51269.4
50684.8
50109.9
49535.2
48971.9
48406.8
47854.2
47297.7
46754.8
46206.1
45670.6
45129.6
44600.3
44065.8
43539.8
43009.3
42482.8
41951.6
41421.1
40882.7
40341.8
39788.5
39227.4
38648
38052.9
37429.6
36778.7
36082.4
35326.7
34518.5
33533.6
204917
202438
200416
198675
197099
195627
194225
192876
191567
190290
189039
187809
186597
185400
184217
183044
181882
180728
179582
178443
177310
176184
175064
173950
172841
171737
170638
169545
168456
167371
166292
165218
164150
163087
162029
160977
159931
158889
157853
156820
155792
154768
153747
152729
151714
150703
149695
148691
147690
146693
145698
144707
143719
142733
141751
140771
139796
138824
137856
136891
135929
134970
134013
133059
132108
131161
130216
129276
128340
127407
126477
125551
124627
123707
122788
121873
120961
120052
119147
118247
117352
116462
115577
114697
113821
112948
112079
111213
110351
109491
108634
107780
106928
106077
105229
104384
103540
102699
101861
101026
100194
99365.7
98541.3
97721.4
96905.8
96095
95289
94488
93691.7
92900.2
92113.2
91330.6
90552
89777.3
89005.9
88237.7
87472.6
86710.6
85951.8
85196.8
84445.1
83697.7
82953.3
82213
81475.3
80741.5
80010.1
79282.2
78556.6
77833.9
77113.4
76394.9
75678.4
74963.8
74251
73540.3
72831.8
72125.9
71422.7
70722.7
70026.1
69333.4
68644.5
67959.4
67278.4
66601.1
65927.9
65258.2
64592
63928.7
63268.8
62611.5
61956.3
61303.1
60651.8
60002.5
59355.2
58710.6
58068.6
57429.7
56794
56162.3
55533.9
54910.4
54290.4
53675.9
53065.1
52460.7
51859.8
51266.7
50675.7
50093.5
49511.6
48939.5
48365.9
47803.4
47237.7
46682.8
46124
45574.5
45022.3
44476.7
43929.4
43384.9
42839.4
42293.1
41743.8
41191.6
40633.1
40067
39490.7
38899.1
38291.3
37657.8
36998.1
36290.4
35554.5
34694.3
33820.1
32834
206068
203607
201491
199627
197938
196368
194884
193463
192091
190759
189460
188187
186937
185707
184493
183293
182107
180931
179765
178608
177459
176318
175185
174059
172939
171825
170718
169616
168520
167429
166344
165265
164191
163124
162062
161006
159955
158910
157869
156834
155802
154775
153751
152731
151715
150702
149692
148686
147684
146685
145690
144698
143709
142723
141740
140761
139785
138813
137845
136880
135918
134959
134003
133049
132099
131152
130208
129268
128331
127398
126469
125542
124619
123698
122780
121865
120954
120046
119142
118243
117349
116460
115576
114697
113822
112951
112083
111218
110357
109499
108643
107789
106938
106088
105240
104395
103552
102712
101875
101041
100210
99382.4
98558.9
97739.4
96924.5
96113.7
95307.9
94506.6
93710.3
92918.4
92131.2
91348.1
90569.1
89793.6
89021.7
88252.7
87487.1
86724.7
85965.9
85210.9
84459.6
83712.4
82968.8
82229
81492.4
80759.1
80028.9
79301.3
78576.4
77853.4
77133
76414.2
75697.7
74982.9
74270.3
73559.9
72852
72146.8
71444.6
70745.8
70050.7
69359.5
68672.4
67989.2
67309.9
66634.3
65962.7
65294.3
64629.4
63967.2
63308.5
62651.8
61997.2
61344.2
60692.8
60042.7
59394.6
58748.5
58104.9
57463.9
56826.2
56192.4
55561.7
54935.4
54312.6
53694.2
53079.8
52470.9
51864.9
51265.9
50668.6
50078.7
49489.1
48907.7
48325.5
47751.9
47177.4
46609.8
46041.8
45477.9
44915.1
44353.3
43793.5
43231.4
42670.8
42105.2
41539.6
40964.8
40389.7
39797.9
39202.8
38580.6
37952.1
37277.9
36600.4
35833.4
35083.1
34173.6
33267.5
32320.7
206944
204548
202406
200473
198705
197059
195504
194020
192592
191210
189865
188553
187267
186004
184761
183535
182325
181128
179942
178768
177604
176449
175303
174165
173034
171911
170795
169685
168582
167485
166395
165310
164232
163160
162093
161033
159979
158929
157885
156846
155811
154781
153755
152733
151714
150700
149689
148681
147678
146678
145681
144688
143699
142712
141730
140750
139775
138802
137834
136869
135907
134948
133992
133040
132090
131143
130200
129260
128324
127391
126461
125535
124611
123691
122773
121859
120948
120041
119138
118240
117347
116460
115577
114699
113825
112955
112088
111225
110365
109508
108653
107800
106949
106100
105253
104408
103567
102727
101891
101058
100228
99402
98579.4
97760.4
96945.7
96134.9
95329.1
94527.5
93730.9
92938.5
92150.9
91366.9
90587.2
89810.7
89038
88268.2
87502.2
86739.4
85980.8
85225.9
84475.5
83728.8
82986.1
82246.9
81511.3
80778.6
80049.2
79322.2
78597.7
77874.6
77154.1
76434.9
75718.4
75003.4
74291
73580.7
72873.3
72168.6
71467.6
70769.8
70076.2
69386.5
68701.2
68019.7
67342.3
66668.4
65998.7
65331.5
64668.1
64007.1
63349.6
62693.4
62039.4
61386.3
60734.9
60083.6
59434.4
58786.2
58140.6
57497.4
56858.1
56221.6
55588.9
54959.7
54334.4
53712.5
53094.9
52481.4
51870.9
51265.5
50662.4
50064.2
49467.1
48875.4
48285.4
47700.2
47117.4
46537.1
45959.8
45382.4
44808.7
44231.7
43659
43079.9
42505.4
41920.1
41341.2
40743.3
40154.7
39535.8
38928.5
38272.6
37635.4
36917.6
36233.5
35423
34648.8
33750.9
32846.7
31937
207650
205320
203182
201216
199397
197694
196082
194544
193066
191639
190253
188903
187584
186291
185020
183769
182536
181319
180115
178924
177744
176576
175417
174268
173127
171995
170871
169754
168644
167541
166444
165355
164272
163195
162125
161060
160002
158949
157901
156859
155821
154788
153759
152735
151715
150698
149686
148677
147672
146671
145674
144680
143690
142703
141720
140741
139765
138793
137824
136859
135897
134939
133984
133031
132082
131136
130194
129254
128318
127385
126455
125529
124605
123685
122768
121854
120943
120037
119135
118238
117347
116460
115578
114701
113828
112960
112094
111232
110374
109518
108664
107812
106961
106113
105267
104423
103582
102744
101909
101077
100249
99423.6
98601.8
97783
96968.4
96157.6
95351.5
94549.5
93752.5
92959.5
92171.1
91386.3
90605.7
89828.2
89054.7
88284
87517.4
86754.2
85995.7
85241.1
84491.5
83745.3
83003.6
82264.9
81530.2
80798
80069.4
79342.6
78618.3
77895.2
77174.5
76455.2
75738.5
75023.4
74311.2
73600.9
72894.2
72190
71490.1
70793.2
70101.1
69412.5
68729
68048.9
67373.6
66701.2
66033.4
65367.8
64706
64046.2
63390.1
62733.8
62080.6
61427.1
60775.4
60122.7
59472.4
58821.7
58174.3
57528.5
56887.8
56248
55613.8
54981.6
54354
53729.1
53108.5
52490.6
51875.9
51264.3
50655.5
50048.5
49444.6
48842.5
48244.9
47649
47057.5
46465.7
45879.1
45288.6
44704.2
44112.3
43528.1
42931.3
42345.9
41739.7
41150.1
40528.8
39930.1
39283.8
38667.5
37981.1
37333
36587.3
35882.3
35067.2
34266
33404.5
32522.1
31637.6
208244
205970
203847
201869
200017
198271
196614
195032
193511
192044
190621
189237
187887
186565
185269
183994
182740
181503
180282
179075
177881
176699
175529
174369
173218
172077
170945
169821
168704
167596
166494
165399
164312
163231
162156
161088
160026
158969
157918
156873
155832
154796
153765
152739
151716
150698
149684
148674
147668
146666
145668
144674
143683
142696
141713
140734
139758
138786
137817
136852
135890
134932
133977
133025
132077
131131
130189
129250
128314
127381
126451
125524
124601
123680
122763
121849
120939
120034
119133
118237
117346
116460
115580
114704
113832
112965
112101
111240
110383
109528
108676
107824
106975
106128
105282
104439
103599
102762
101929
101098
100271
99446.1
98624.7
97806.1
96991.4
96180.4
95374.1
94571.7
93774.2
92980.4
92191.1
91405.4
90624
89845.6
89071.2
88299.6
87532.3
86768.5
86009.9
85255.5
84506.2
83760.4
83019.2
82280.9
81546.8
80815.1
80087.1
79360.5
78636.4
77913.1
77192.3
76472.9
75756.1
75040.9
74328.7
73618.7
72912.3
72208.7
71509.4
70813.3
70122.6
69435.5
68753.6
68075.1
67401.5
66730.6
66064.5
65400.3
64740.1
64081.5
63426.5
62770.2
62117.5
61463.4
60811.4
60157.2
59506.1
58853.2
58204.6
57556.1
56913.5
56270.7
55634.9
54999.8
54370.4
53742.2
53119.2
52497
51878.6
51260.4
50646.6
50030.6
49420.5
48808.7
48203.8
47597.3
46998.2
46394.6
45800
45196.3
44602.4
43995.5
43401.6
42788.2
42192.1
41568.4
40966.7
40327.8
39715.3
39051.8
38417.9
37716.7
37046.3
36295.6
35565.9
34766.8
33957.7
33123.8
32261.6
31392.4
208755
206527
204423
202439
200567
198792
197100
195481
193925
192423
190968
189553
188174
186826
185506
184210
182935
181680
180442
179220
178013
176819
175637
174467
173307
172158
171018
169887
168764
167650
166543
165444
164352
163267
162188
161116
160050
158991
157937
156888
155845
154807
153773
152745
151721
150701
149686
148675
147668
146665
145666
144671
143680
142692
141709
140729
139754
138781
137813
136848
135886
134928
133973
133021
132073
131128
130185
129246
128310
127377
126447
125520
124596
123676
122759
121845
120936
120031
119131
118236
117346
116461
115582
114707
113836
112970
112108
111248
110393
109539
108688
107838
106989
106143
105298
104456
103617
102781
101948
101118
100292
99467.5
98646.4
97827.8
97013.1
96202
95395.5
94592.8
93794.7
93000.1
92209.9
91423.4
90641
89861.8
89086.3
88313.9
87545.7
86781.4
86022.5
85267.8
84518.3
83772.3
83031
82292.9
81559.1
80827.9
80100.4
79374
78650.1
77926.7
77205.8
76486.2
75769.3
75053.9
74341.7
73631.8
72925.5
72222.2
71523.4
70828.5
70139.1
69453.7
68773.5
68096.7
67424.9
66755.1
66090.3
65427
64768.1
64110.3
63456
62799.7
62147.6
61493.1
60840.5
60185.7
59533.2
58878.1
58228.3
57578
56933.1
56287.7
55650.2
55012.4
54381.3
53750.2
53124.9
52498.8
51876.8
51253.2
50633.3
50010.3
49392.7
48773.1
48160.1
47545.1
46937.6
46324.7
45720.9
45106.9
44502
43884.2
43277.5
42653.4
42042.5
41408.6
40790.6
40142.8
39512
38841.6
38188.2
37482.8
36793.2
36046.8
35304.1
34521.7
33715.5
32895.8
32045.1
31185.2
209198
207008
204923
202941
201056
199259
197541
195893
194306
192774
191290
189848
188444
187072
185730
184414
183121
181849
180595
179360
178139
176934
175741
174561
173393
172236
171089
169951
168823
167703
166591
165487
164391
163302
162220
161145
160076
159013
157956
156905
155859
154819
153783
152753
151727
150706
149690
148677
147669
146666
145666
144670
143679
142691
141708
140728
139752
138780
137811
136846
135884
134926
133971
133019
132070
131125
130183
129243
128307
127373
126443
125516
124592
123672
122755
121842
120933
120028
119129
118235
117346
116462
115583
114709
113840
112975
112114
111256
110402
109550
108700
107851
107003
106157
105313
104471
103633
102797
101965
101136
100310
99485.9
98664.9
97846.3
97031.7
96220.6
95413.9
94610.9
93812.2
93016.8
92225.8
91438.5
90655.2
89875.1
89098.8
88325.5
87556.5
86791.5
86032.1
85276.9
84526.5
83779.7
83037.8
82299.3
81565.4
80834.3
80107
79380.9
78657
77933.6
77212.7
76492.9
75776
75060.3
74348
73638.1
72932
72229.3
71531.2
70837.8
70149.8
69466.2
68787.7
68112.9
67441.9
66773.7
66109.7
65447
64788.6
64131.6
63477.7
62821
62169.2
61514.8
60861.2
60206.1
59552.5
58896.1
58244.5
57592.5
56944.8
56297.8
55657.6
55018.2
54384.7
53751.9
53124
52495
51869.1
51241.9
50615.7
49987.4
49361.8
48735.7
48115.1
47493
46876.7
46257.4
45643.3
45021.9
44405.4
43779.7
43159.7
42527.8
41902.7
41261.9
40629.2
39976.2
39330.8
38656.4
37988.7
37283.2
36582.3
35843.2
35094.4
34323.4
33519.6
32704.8
31860.7
31008
209588
207428
205360
203381
201488
199676
197938
196266
194655
193098
191589
190123
188695
187303
185940
184606
183296
182008
180740
179491
178259
177043
175841
174652
173475
172310
171156
170013
168879
167754
166637
165529
164429
163336
162251
161173
160101
159035
157976
156922
155874
154832
153795
152763
151736
150713
149695
148682
147673
146669
145668
144672
143680
142692
141708
140728
139752
138779
137810
136845
135883
134924
133969
133017
132068
131122
130179
129239
128303
127369
126438
125511
124587
123667
122751
121838
120930
120026
119127
118233
117345
116462
115584
114711
113842
112978
112118
111262
110409
109559
108710
107862
107015
106169
105326
104484
103646
102811
101979
101150
100324
99499.8
98678.6
97860.1
97045.4
96234.3
95427.4
94624
93824.6
93028.7
92237
91448.9
90664.7
89883.8
89106.7
88332.6
87562.8
86797.3
86037
85280.9
84529.3
83781.3
83038.3
82298.8
81564.3
80833
80105.6
79379.7
78655.8
77932.5
77211.6
76491.9
75775
75059.3
74347.2
73637.6
72932
72230.3
71533.2
70841.1
70154.6
69472.6
68795.7
68122.6
67452.6
66785.5
66121.9
65459.6
64801
64145
63490.2
62833.8
62182.3
61527.2
60872.7
60218.2
59562.8
58906.5
58252.9
57600.5
56948.8
56301.6
55657.8
55017.5
54380
53748
53115.9
52486.6
51855.4
51226.6
50592.8
49960.6
49328.1
48696.4
48069
47442
46816.6
46194.8
45569.1
44943.3
44315.6
43683.6
43052.4
42414.5
41777.3
41132.1
40487.8
39831.9
39175.8
38500.8
37823
37119.7
36410.6
35678.5
34924.1
34158.3
33355.4
32541.8
31703.8
30857.8
209932
207796
205743
203767
201871
200047
198293
196603
194971
193392
191862
190375
188928
187516
186136
184784
183459
182157
180876
179615
178372
177145
175934
174737
173552
172381
171220
170071
168932
167802
166681
165569
164466
163369
162281
161200
160125
159057
157996
156940
155890
154846
153807
152773
151745
150721
149702
148688
147678
146673
145672
144675
143682
142694
141710
140729
139752
138779
137810
136844
135882
134922
133967
133014
132064
131118
130175
129234
128297
127363
126433
125506
124582
123662
122746
121834
120926
120023
119125
118231
117343
116460
115583
114710
113843
112980
112122
111267
110416
109567
108719
107872
107025
106179
105336
104494
103656
102820
101988
101159
100332
99508.2
98686.8
97868.1
97053.2
96241.8
95434.5
94630.6
93830.6
93034.2
92241.8
91453.2
90668.2
89886.6
89108.7
88334
87563.6
86797.5
86036.3
85279.2
84526.3
83777
83032.1
82291
81555.3
80823.2
80095.5
79369.8
78646.1
77923.5
77202.6
76483.2
75766.5
75051.3
74340
73631.1
72926.7
72226.5
71530.7
70840.1
70154.8
69474
68798.1
68125.8
67456.4
66790.1
66126.7
65464
64805.7
64150.3
63493.2
62839.4
62186.1
61531.1
60875.9
60222.4
59564.3
58908.2
58252.9
57602
56945.1
56299.5
55649.3
55012.1
54368
53738.5
53101.1
52473.4
51835.7
51207.3
50565
49930.3
49291.4
48656.7
48022.5
47394.2
46759.5
46138.1
45501.7
44873
44236.6
43598.8
42959.5
42316.8
41669.7
41021.3
40367.6
39711.6
39046.2
38374
37685.9
36985.9
36268
35539.6
34780.4
34014.9
33214.4
32402.8
31571.7
30732.5
210234
208118
206076
204106
202207
200375
198609
196903
195255
193658
192109
190605
189140
187711
186315
184948
183609
182294
181002
179729
178476
177240
176021
174816
173625
172446
171280
170125
168981
167847
166723
165607
164500
163401
162309
161225
160149
159078
158015
156957
155906
154860
153819
152784
151754
150729
149709
148694
147683
146677
145675
144678
143685
142696
141711
140729
139752
138779
137809
136842
135880
134920
133963
133010
132060
131113
130169
129228
128291
127357
126426
125499
124576
123656
122741
121829
120922
120019
119121
118228
117340
116457
115580
114708
113842
112980
112123
111269
110420
109572
108725
107878
107032
106186
105341
104499
103660
102825
101992
101162
100335
99510.2
98688.5
97869.5
97054.2
96242.3
95434.3
94629.9
93829.5
93032.8
92240.2
91451
90665.5
89883.2
89104.8
88329.7
87558.7
86792
86029.9
85271.6
84517.4
83766.5
83019.8
82277
81539.4
80806.2
80077.8
79351.5
78628.2
77906.2
77186.1
76467.5
75751.6
75037.7
74327.7
73620.2
72917.5
72218.6
71524.7
70835.3
70151
69471
68795.5
68123
67454.2
66787
66123.5
65460.2
64802
64146.7
63488.3
62836.8
62180.8
61527.8
60871.3
60218
59558.7
58903.5
58246.1
57595.1
56935.7
56290.6
55633.9
54999.5
54348.6
53721.9
53079.2
52454.7
51809.8
51182.8
50532.8
49898.1
49254.1
48617.6
47977.7
47348.4
46706.2
46086.6
45442.5
44810.8
44168.8
43524.7
42880.4
42233.5
41578.6
40931.8
40269.9
39615.4
38937.9
38268.9
37570.1
36871.3
36145.6
35417.3
34656.1
33890.3
33093.5
32286.2
31462.8
30630.5
210499
208398
206367
204401
202500
200663
198888
197170
195507
193896
192332
190812
189331
187888
186478
185098
183746
182420
181116
179834
178572
177328
176100
174888
173691
172507
171336
170176
169027
167889
166761
165642
164532
163430
162336
161250
160171
159098
158033
156974
155920
154873
153831
152795
151763
150737
149716
148700
147688
146681
145678
144680
143686
142696
141711
140729
139751
138777
137807
136840
135876
134916
133959
133005
132055
131107
130163
129222
128284
127350
126420
125493
124570
123651
122736
121825
120919
120016
119118
118224
117336
116454
115576
114705
113838
112977
112122
111269
110421
109573
108727
107879
107033
106187
105342
104499
103660
102823
101990
101158
100331
99505.8
98683.9
97864.3
97048.5
96235.6
95427.3
94622.5
93822.2
93025.3
92232.8
91443.2
90657.5
89874.6
89096
88320.3
87549.1
86781.7
86018.7
85259
84503.6
83750.8
83002.4
82257.8
81518.7
80784
80054.4
79327.5
78604.4
77882.5
77163.8
76446.3
75731.9
75019.6
74311.3
73605.2
72904.3
72206.5
71514.2
70826
70143
69463.6
68788.8
68115.2
67447.4
66778
66113.8
65448.6
64791.4
64134.1
63475.8
62825.3
62168.7
61517.1
60859.8
60206.9
59547.3
58891.9
58233.9
57582
56921.8
56273.6
55615.8
54980.6
54326
53698.8
53052.8
52429.8
51781.5
51154.3
50499.4
49863.4
49216.6
48579
47935.3
47303
46659.4
46037.6
45388.2
44756.9
44109
43461.7
42812.1
42163.7
41505.7
40857.8
40187.3
39533.8
38846.9
38175.7
37469.8
36768.5
36038.5
35309.6
34548.6
33784.7
32992.5
32191
31375.5
30550
210729
208641
206618
204656
202755
200913
199130
197403
195729
194105
192528
190995
189502
188046
186624
185232
183869
182533
181220
179929
178658
177407
176172
174954
173751
172562
171386
170222
169070
167928
166796
165674
164561
163457
162361
161272
160191
159117
158050
156989
155934
154885
153842
152804
151772
150744
149722
148704
147692
146684
145680
144681
143687
142696
141710
140727
139749
138775
137804
136836
135872
134912
133954
133000
132049
131102
130157
129216
128278
127344
126413
125487
124564
123646
122732
121822
120915
120013
119115
118221
117333
116449
115572
114700
113833
112973
112117
111266
110417
109569
108723
107875
107028
106182
105337
104493
103653
102816
101981
101149
100321
99495.4
98673.5
97853.2
97037.1
96223.3
95414.9
94609.7
93809.6
93012.8
92220.3
91430.5
90644.8
89861.5
89082.8
88306.6
87535.4
86767
86003.4
85242.4
84485.9
83731.3
82981.8
82235.5
81495.3
80759
80028.4
79300.6
78577.3
77855.8
77138.2
76421.7
75709.3
74998.2
74291.5
73586.9
72887.7
72190.8
71499.8
70812.5
70130.7
69451.7
68777.8
68103.4
67435.5
66763.4
66097.7
65430.2
64772.8
64113
63457.9
62805.3
62151
61497.8
60841
60188.9
59530.3
58873.1
58217.6
57563.3
56903.5
56250.9
55594.7
54954.2
54300.3
53667.6
53023.1
52398.8
51748.4
51124.7
50465.6
49829.2
49178.5
48538.2
47892.6
47258.5
46613.6
45990.2
45340.3
44710
44057
43408.5
42755.9
42104.5
41444.9
40788.7
40119.9
39460.3
38766.7
38090.9
37381.8
36676.9
35946.7
35217.4
34458.1
33698.1
32910.8
32115.8
31307.7
30488.8
210926
208849
206833
204873
202972
201128
199339
197604
195921
194287
192700
191156
189652
188185
186752
185351
183978
182632
181311
180013
178735
177477
176236
175013
173805
172611
171431
170263
169107
167962
166828
165703
164588
163481
162383
161292
160210
159134
158065
157002
155946
154896
153851
152812
151779
150750
149727
148708
147694
146685
145681
144681
143686
142694
141708
140725
139746
138771
137800
136832
135867
134906
133949
132995
132044
131096
130151
129210
128272
127338
126408
125482
124560
123642
122728
121819
120913
120010
119112
118218
117329
116445
115566
114694
113827
112966
112110
111258
110408
109560
108712
107864
107017
106170
105325
104481
103641
102802
101967
101134
100307
99480.5
98658.7
97838
97021.8
96207.6
95399.2
94593.6
93793.7
92996.7
92204.3
91414.3
90628.4
89844.9
89066.2
88289.9
87518.8
86749.6
85985.4
85223.1
84465.5
83709.6
82959.1
82211.6
81470.6
80733.3
80002.1
79273.6
78550.1
77828.7
77111.8
76396.5
75685.2
74975.4
74270.1
73566.7
72868.5
72172.7
71483
70796.5
70115.9
69437
68763.4
68088.1
67418.8
66744.8
66076.8
65407.2
64749
64084.8
63433.7
62780.1
62127.3
61472.1
60818
60164.1
59508.4
58847.9
58198.4
57540.5
56882.6
56228.1
55573.5
54922.8
54272.9
53634.3
52989.8
52363.6
51714.9
51083.4
50430.3
49793.6
49139.3
48494.5
47851.3
47213.2
46573.4
45948.4
45294.4
44666.6
44013.8
43363.3
42709.1
42052.4
41393.8
40728.1
40059.4
39387.7
38697
38013.5
37305.8
36597
35870.3
35140.8
34384.7
33628.8
32846.6
32058.2
31256.3
30443.5
211094
209025
207013
205056
203155
201308
199514
197774
196084
194442
192846
191293
189780
188304
186863
185453
184072
182719
181390
180085
178801
177538
176292
175064
173851
172654
171470
170299
169140
167993
166856
165729
164611
163503
162402
161310
160225
159148
158078
157014
155956
154905
153859
152819
151784
150754
149730
148710
147695
146685
145680
144680
143684
142692
141704
140721
139742
138766
137795
136827
135862
134901
133944
132989
132038
131090
130146
129204
128267
127333
126403
125477
124555
123638
122725
121815
120910
120007
119108
118214
117324
116440
115561
114687
113819
112957
112100
111247
110396
109546
108697
107849
107002
106155
105309
104465
103624
102785
101949
101117
100289
99463.1
98641.5
97821.1
97004.6
96190.7
95382
94576.2
93776.1
92978.5
92185.7
91395.4
90609.5
89826.3
89047.3
88271.3
87499.8
86731.1
85966.2
85203.1
84444.2
83687.6
82936.2
82188
81446.7
80709
79977.5
79248.6
78524.9
77803.4
77086.8
76372.2
75661.2
74952.6
74248.2
73546.1
72848.9
72154.5
71465.7
70780
70099.9
69420.3
68746.4
68069.5
67398
66722.1
66053.5
65383.7
64720.9
64056.2
63406
62748.7
62099.9
61442.8
60789.9
60135.9
59485.1
58823.5
58175.7
57513
56863.3
56201.5
55545.3
54890.1
54248.6
53606.9
52961.5
52326.5
51678
51037.9
50393.2
49750.2
49099.8
48452.1
47814.6
47172.5
46535.8
45902.5
45255.2
44625.6
43974.4
43322.5
42671
42008.8
41345.4
40673.9
40004.8
39323
38634.7
37945
37244.7
36531.8
35810.3
35079.5
34328.1
33574
32798.1
32015.4
31217.9
30411.3
211234
209170
207162
205206
203304
201455
199658
197913
196218
194571
192968
191408
189887
188404
186955
185538
184151
182791
181457
180146
178857
177589
176339
175107
173891
172690
171503
170330
169168
168018
166879
165750
164631
163520
162418
161325
160239
159160
158088
157023
155964
154912
153865
152823
151788
150757
149731
148711
147695
146685
145679
144677
143681
142689
141701
140717
139738
138762
137790
136822
135857
134896
133938
132984
132033
131085
130140
129199
128261
127328
126398
125472
124551
123633
122721
121812
120906
120003
119104
118209
117319
116434
115554
114680
113811
112948
112088
111234
110380
109529
108679
107831
106983
106136
105290
104446
103605
102765
101929
101098
100270
99445.2
98623.5
97804.1
96987.7
96174.4
95364.6
94559
93757.7
92960
92166.2
91376
90589.4
89806.7
89027.4
88252.5
87480.7
86713
85947.4
85184.7
84424.5
83668.2
82915.8
82167.8
81426
80688.9
79956.5
79228
78503.2
77782.2
77064.8
76350.7
75639.2
74931.7
74227.1
73526.5
72829.5
72136.5
71447.9
70763
70082
69401.8
68725.7
68047.6
67373.5
66697
66026.9
65356.9
64695
64031.3
63376.3
62719
62069.6
61411.7
60762.6
60107.4
59457.3
58797.8
58151.6
57486.7
56835.8
56168.7
55520.8
54863.8
54223.8
53578.6
52930.3
52283.8
51639.9
50997.4
50354.9
49703.9
49063.2
48415.5
47778.6
47135.8
46503.7
45861
45223.8
44581.8
43939.7
43286.8
42634.6
41968
41303.6
40629.2
39952.4
39268.9
38584.3
37892.9
37195.3
36484.2
35765.2
35033.9
34287.5
33532.5
32763
31983.4
31190.1
30389.4
211345
209286
207278
205323
203421
201571
199772
198024
196325
194673
193065
191499
189973
188484
187029
185607
184214
182849
181510
180195
178903
177630
176377
175142
173923
172719
171530
170354
169190
168039
166898
165767
164646
163534
162431
161336
160249
159169
158096
157030
155970
154916
153869
152827
151790
150759
149732
148711
147695
146684
145677
144675
143678
142686
141697
140713
139734
138758
137786
136818
135853
134892
133934
132979
132028
131080
130135
129194
128257
127323
126393
125467
124546
123629
122716
121807
120901
119998
119099
118204
117314
116429
115548
114673
113802
112938
112076
111220
110364
109512
108661
107812
106963
106117
105271
104427
103585
102747
101911
101080
100252
99428.6
98606.9
97788.4
96972
96159.5
95349
94543.5
93740.9
92943.2
92148.3
91358.4
90571
89788.8
89009.1
88234.9
87463.2
86696.7
85930.7
85168.8
84408.2
83652.5
82899.6
82152.4
81410.2
80673.5
79940.3
79212.2
78486.3
77765.6
77046.9
76332.9
75620.6
74913.6
74208.2
73508.5
72811.5
72119.5
71429.8
70745.1
70062
69381.6
68702.6
68024
67347.2
66672.4
66000.6
65333.7
64668.4
64005.8
63349.2
62691.6
62037.6
61383.7
60734.3
60077.7
59428.2
58771.7
58122.4
57457.2
56807.7
56145.6
55500.1
54835.5
54196.7
53541.9
52895.2
52251.1
51607.5
50958.2
50316.6
49664.4
49028.3
48379.4
47747.6
47107
46474.2
45824.7
45193.7
44542.9
43906.3
43251
42603.7
41932.7
41268.8
40590.1
39912.6
39231.8
38544.6
37855.6
37157.8
36452.2
35730.9
35002.4
34257.7
33503.4
32737.6
31959.7
31170.7
30374.4
211428
209372
207365
205410
203507
201657
199857
198107
196405
194749
193138
191568
190037
188544
187085
185658
184262
182893
181551
180232
178936
177661
176406
175168
173947
172741
171550
170372
169207
168054
166911
165780
164657
163544
162440
161344
160256
159175
158102
157035
155974
154920
153871
152829
151791
150760
149733
148711
147694
146683
145676
144674
143676
142683
141695
140711
139731
138755
137783
136814
135849
134888
133930
132975
132024
131076
130131
129190
128252
127319
126389
125463
124541
123624
122711
121802
120896
119993
119094
118199
117309
116423
115542
114666
113795
112929
112065
111207
110350
109497
108644
107796
106946
106100
105254
104411
103569
102732
101895
101066
100237
99414.9
98592.8
97776
96959
96147.6
95336.5
94531.3
93727.7
92930.3
92134.3
91344.8
90556.3
89774.7
88994.5
88221.1
87449.1
86683.4
85917.5
85157.1
84396.8
83642.7
82889.2
82143
81399.6
80663.4
79929.2
79201.7
78475
77754.4
77034.2
76320
75606.3
74899.1
74192.6
73493.4
72795.4
72103.8
71412.7
70727.8
70042.8
69361.9
68680.1
68001.9
67323.1
66651.3
65977
65312.7
64645
63985.1
63323.3
62667.8
62010.4
61358.9
60704.9
60052.3
59401.5
58746.2
58094.2
57434.1
56783.3