/*--------------------------------*- C++ -*----------------------------------*\
| =========                 |                                                 |
| \\      /  F ield         | OpenFOAM: The Open Source CFD Toolbox           |
|  \\    /   O peration     | Version:  2.4.0                                 |
|   \\  /    A nd           | Web:      www.OpenFOAM.org                      |
|    \\/     M anipulation  |                                                 |
\*---------------------------------------------------------------------------*/
FoamFile
{
    version     2.0;
    format      ascii;
    class       volVectorField;
    location    "1.64";
    object      U;
}
// * * * * * * * * * * * * * * * * * * * * * * * * * * * * * * * * * * * * * //

dimensions      [0 1 -1 0 0 0 0];

internalField   nonuniform List<vector> 
8800
(
(8.09297 0.387887 0)
(5.45149 0.242677 0)
(3.90825 0.0430598 0)
(3.16233 -0.0157434 0)
(2.79402 -0.0181223 0)
(2.60796 -0.0111729 0)
(2.47348 -0.00561477 0)
(2.39294 -0.00246164 0)
(2.30495 -0.000969709 0)
(2.26537 -0.00138419 0)
(2.20021 2.00512e-05 0)
(2.18689 -0.000831702 0)
(2.12567 0.00049619 0)
(2.12376 -0.000178519 0)
(2.06045 0.000499414 0)
(2.06659 -0.000647623 0)
(2.00158 0.00119311 0)
(2.01276 -0.00387425 0)
(2.01169 0.0109585 0)
(1.7766 -0.0680537 0)
(10.0825 0.837863 0)
(9.66724 0.868558 0)
(8.85654 0.506723 0)
(8.10601 0.261473 0)
(7.46714 0.138833 0)
(7.03877 0.0815819 0)
(6.66438 0.0542003 0)
(6.43622 0.0405944 0)
(6.18427 0.0311021 0)
(6.07106 0.0223551 0)
(5.87425 0.020324 0)
(5.84057 0.0151637 0)
(5.6601 0.0169919 0)
(5.66578 0.0135925 0)
(5.49511 0.0164957 0)
(5.50996 0.00948447 0)
(5.35644 0.0212176 0)
(5.36557 -0.0124637 0)
(5.31556 0.0305749 0)
(5.17758 -0.0408323 0)
(10.048 0.629847 0)
(10.6848 0.865815 0)
(10.8316 0.59965 0)
(10.7368 0.37311 0)
(10.4084 0.25668 0)
(10.1442 0.195974 0)
(9.78059 0.153524 0)
(9.56155 0.123647 0)
(9.24226 0.0957903 0)
(9.11773 0.0738585 0)
(8.83335 0.0614899 0)
(8.8021 0.0481762 0)
(8.54028 0.0469767 0)
(8.55169 0.0370312 0)
(8.32053 0.0427767 0)
(8.33114 0.0268036 0)
(8.13164 0.0487086 0)
(8.14713 -0.00822037 0)
(8.01135 0.0347889 0)
(8.01686 -0.0859399 0)
(9.95397 0.453693 0)
(10.6299 0.711342 0)
(11.0916 0.543118 0)
(11.4538 0.352935 0)
(11.4775 0.261563 0)
(11.5516 0.226625 0)
(11.4087 0.199997 0)
(11.3985 0.178113 0)
(11.1954 0.149452 0)
(11.1946 0.124136 0)
(10.9554 0.108546 0)
(10.9855 0.0863047 0)
(10.7563 0.0887854 0)
(10.7742 0.0660563 0)
(10.582 0.079761 0)
(10.5705 0.0507897 0)
(10.3984 0.0828581 0)
(10.4109 0.0108178 0)
(10.2303 0.0476029 0)
(10.2838 -0.104582 0)
(9.94128 0.341141 0)
(10.5093 0.578324 0)
(10.9425 0.45397 0)
(11.3972 0.294359 0)
(11.5576 0.209299 0)
(11.7732 0.191233 0)
(11.8008 0.178514 0)
(11.9286 0.173569 0)
(11.8831 0.146707 0)
(12.0089 0.132259 0)
(11.9252 0.116685 0)
(12.0125 0.0981878 0)
(11.9595 0.0999321 0)
(11.9984 0.0840958 0)
(11.958 0.089854 0)
(11.9434 0.0814241 0)
(11.8974 0.0842798 0)
(11.9106 0.0586102 0)
(11.8104 0.0507061 0)
(11.8056 -0.0378165 0)
(9.97343 0.246207 0)
(10.3979 0.462816 0)
(10.818 0.37764 0)
(11.2342 0.247036 0)
(11.4666 0.160022 0)
(11.6474 0.145665 0)
(11.7815 0.14178 0)
(11.8986 0.148498 0)
(11.9222 0.122976 0)
(12.0708 0.110336 0)
(12.1032 0.105901 0)
(12.1675 0.075606 0)
(12.2355 0.0904529 0)
(12.3155 0.0714739 0)
(12.3823 0.0803782 0)
(12.3843 0.0782221 0)
(12.4572 0.0758006 0)
(12.4927 0.069115 0)
(12.5071 0.088759 0)
(12.5208 -0.00704732 0)
(9.98582 0.173452 0)
(10.2902 0.362573 0)
(10.7448 0.285501 0)
(11.1697 0.204525 0)
(11.3591 0.123998 0)
(11.5414 0.10561 0)
(11.7195 0.094278 0)
(11.7721 0.134429 0)
(11.8446 0.0842977 0)
(11.993 0.0926077 0)
(12.0286 0.0787968 0)
(12.1091 0.0806688 0)
(12.1913 0.0386348 0)
(12.2927 0.0724212 0)
(12.3387 0.042488 0)
(12.381 0.0951987 0)
(12.4981 0.0197063 0)
(12.5367 0.102086 0)
(12.5826 0.0619737 0)
(12.6073 0.178533 0)
(9.96485 0.112954 0)
(10.2837 0.261053 0)
(10.7128 0.177403 0)
(11.0409 0.175292 0)
(11.2904 0.08497 0)
(11.5043 0.0745249 0)
(11.5987 0.0480412 0)
(11.6863 0.129478 0)
(11.8253 0.0295272 0)
(11.9006 0.0877873 0)
(11.953 0.044662 0)
(12.1016 0.0674466 0)
(12.104 0.0121601 0)
(12.1932 0.0734245 0)
(12.2656 0.0144534 0)
(12.3678 0.0780438 0)
(12.4158 -0.00273767 0)
(12.4669 0.100502 0)
(12.4867 0.0555518 0)
(12.5237 0.135086 0)
(9.99713 0.0686205 0)
(10.2785 0.139 0)
(10.5749 0.121109 0)
(10.9871 0.111119 0)
(11.2741 0.0536418 0)
(11.4687 0.0336397 0)
(11.52 0.0378513 0)
(11.7191 0.0575928 0)
(11.7878 0.0218217 0)
(11.8028 0.0472614 0)
(11.9298 0.0349697 0)
(12.0305 0.036696 0)
(12.0573 0.0244995 0)
(12.1743 0.022886 0)
(12.2455 0.00958899 0)
(12.2923 0.0377542 0)
(12.3674 0.0120875 0)
(12.4227 0.043457 0)
(12.4377 0.040776 0)
(12.4579 -0.00734819 0)
(10.0204 0.0115417 0)
(10.2007 0.0700224 0)
(10.5666 0.0220123 0)
(10.9788 0.0410771 0)
(11.2753 0.0136103 0)
(11.4345 0.0255895 0)
(11.5766 -0.0222257 0)
(11.6607 0.0380285 0)
(11.7165 0.0018893 0)
(11.7795 0.0355467 0)
(11.8966 -0.00537058 0)
(11.9882 0.0267712 0)
(12.0771 -0.00967829 0)
(12.1742 0.0160863 0)
(12.1836 -0.00443843 0)
(12.2812 0.0241481 0)
(12.3684 -0.0270543 0)
(12.4028 0.0262584 0)
(12.4403 -0.00475762 0)
(12.3429 -0.0210839 0)
(9.98874 -0.017227 0)
(10.2403 -0.0425965 0)
(10.6072 -0.0579089 0)
(10.9574 -0.0280942 0)
(11.2344 -0.00735454 0)
(11.4712 -0.0235264 0)
(11.5434 -0.0254724 0)
(11.6241 -0.00251519 0)
(11.7325 -0.0133005 0)
(11.809 -0.0130269 0)
(11.8784 -0.00967021 0)
(12.0013 -0.0126686 0)
(12.0928 -0.0130058 0)
(12.1399 -0.00717057 0)
(12.2041 -0.0136462 0)
(12.3096 -0.022311 0)
(12.3366 -0.0263885 0)
(12.3856 -0.0167355 0)
(12.4352 -0.0047429 0)
(12.3417 -0.0286607 0)
(9.99992 -0.0718227 0)
(10.2513 -0.137297 0)
(10.6257 -0.134552 0)
(10.9575 -0.0832356 0)
(11.2703 -0.0553675 0)
(11.4824 -0.0407991 0)
(11.5584 -0.059105 0)
(11.6497 -0.0443246 0)
(11.7701 -0.0430748 0)
(11.8284 -0.0240328 0)
(11.9294 -0.0385614 0)
(12.0179 -0.0392522 0)
(12.0956 -0.0274907 0)
(12.1451 -0.0231457 0)
(12.2464 -0.0369255 0)
(12.3102 -0.0332675 0)
(12.3591 -0.046213 0)
(12.417 -0.0477061 0)
(12.421 -0.037428 0)
(12.4432 -0.0721871 0)
(10.0087 -0.115737 0)
(10.2494 -0.243133 0)
(10.6654 -0.212635 0)
(11.0451 -0.150735 0)
(11.3255 -0.0881939 0)
(11.5017 -0.0796837 0)
(11.6207 -0.0755627 0)
(11.6978 -0.0794663 0)
(11.7791 -0.0648047 0)
(11.8965 -0.0658135 0)
(11.9846 -0.0529169 0)
(12.0404 -0.0560316 0)
(12.1152 -0.0390841 0)
(12.2007 -0.0475845 0)
(12.3049 -0.0536322 0)
(12.34 -0.0610798 0)
(12.4165 -0.0658651 0)
(12.4536 -0.0688364 0)
(12.4779 -0.0725792 0)
(12.5082 -0.0799527 0)
(10.0209 -0.176087 0)
(10.2852 -0.343994 0)
(10.7717 -0.302116 0)
(11.1162 -0.2059 0)
(11.3887 -0.119224 0)
(11.5455 -0.111893 0)
(11.6969 -0.110088 0)
(11.752 -0.110868 0)
(11.8706 -0.0925932 0)
(11.9584 -0.0939234 0)
(12.0398 -0.0666968 0)
(12.1055 -0.0800522 0)
(12.2082 -0.0575834 0)
(12.2741 -0.075884 0)
(12.3617 -0.0662374 0)
(12.3959 -0.0792777 0)
(12.4743 -0.0789211 0)
(12.513 -0.104995 0)
(12.5508 -0.106243 0)
(12.5245 -0.0925898 0)
(10.0608 -0.250902 0)
(10.3145 -0.453012 0)
(10.9125 -0.38679 0)
(11.1723 -0.243223 0)
(11.5207 -0.159199 0)
(11.6094 -0.156406 0)
(11.814 -0.138737 0)
(11.8099 -0.141063 0)
(11.9953 -0.122284 0)
(12.0039 -0.119845 0)
(12.1438 -0.0871115 0)
(12.1478 -0.10392 0)
(12.2865 -0.0748494 0)
(12.2789 -0.0942293 0)
(12.3863 -0.0775429 0)
(12.3723 -0.103473 0)
(12.4624 -0.0949281 0)
(12.4394 -0.130816 0)
(12.4614 -0.123131 0)
(12.3818 -0.144527 0)
(10.0573 -0.346981 0)
(10.3973 -0.563598 0)
(11.0608 -0.470258 0)
(11.2857 -0.289005 0)
(11.6639 -0.209905 0)
(11.6644 -0.194861 0)
(11.8937 -0.175895 0)
(11.8065 -0.1684 0)
(12.0009 -0.150746 0)
(11.8852 -0.136606 0)
(12.0435 -0.106932 0)
(11.9097 -0.115219 0)
(12.0529 -0.0903995 0)
(11.904 -0.102692 0)
(12.0164 -0.0865473 0)
(11.8621 -0.109143 0)
(11.94 -0.095519 0)
(11.7728 -0.137183 0)
(11.7802 -0.128212 0)
(11.5655 -0.169349 0)
(10.0112 -0.45695 0)
(10.566 -0.705173 0)
(11.1744 -0.550962 0)
(11.3588 -0.347557 0)
(11.5703 -0.261419 0)
(11.4431 -0.231184 0)
(11.5081 -0.198015 0)
(11.2824 -0.175492 0)
(11.3163 -0.151448 0)
(11.0553 -0.129071 0)
(11.1018 -0.100909 0)
(10.8298 -0.100441 0)
(10.8947 -0.0790471 0)
(10.6234 -0.0840857 0)
(10.6925 -0.0700984 0)
(10.4175 -0.0887675 0)
(10.4778 -0.0741707 0)
(10.1883 -0.117211 0)
(10.1921 -0.0981281 0)
(9.86091 -0.164547 0)
(10.0654 -0.632303 0)
(10.6594 -0.862441 0)
(10.8673 -0.603551 0)
(10.6847 -0.370949 0)
(10.4665 -0.255949 0)
(10.0728 -0.198803 0)
(9.8509 -0.1521 0)
(9.48008 -0.12195 0)
(9.33164 -0.0971594 0)
(9.00873 -0.0775993 0)
(8.951 -0.0567064 0)
(8.66304 -0.0556595 0)
(8.6675 -0.0434431 0)
(8.39899 -0.0461614 0)
(8.43352 -0.0406958 0)
(8.16153 -0.0509397 0)
(8.2033 -0.0482817 0)
(7.9046 -0.0703806 0)
(7.90486 -0.0730084 0)
(7.5568 -0.0910145 0)
(10.0849 -0.838627 0)
(9.65799 -0.867404 0)
(8.86961 -0.507856 0)
(8.08057 -0.260671 0)
(7.49831 -0.13775 0)
(6.99886 -0.0837221 0)
(6.70427 -0.0534569 0)
(6.38952 -0.0399643 0)
(6.2363 -0.031162 0)
(6.00459 -0.0253167 0)
(5.94406 -0.0169074 0)
(5.75077 -0.0196013 0)
(5.74015 -0.0150818 0)
(5.5579 -0.0182627 0)
(5.56848 -0.0160932 0)
(5.37662 -0.0232589 0)
(5.38803 -0.022089 0)
(5.16391 -0.0331189 0)
(5.15109 -0.0396499 0)
(4.85403 -0.0200814 0)
(8.09123 -0.388061 0)
(5.44983 -0.242343 0)
(3.91029 -0.0431131 0)
(3.15627 0.0155614 0)
(2.80311 0.0184168 0)
(2.59578 0.0105743 0)
(2.48522 0.00586234 0)
(2.37719 0.00256982 0)
(2.32268 0.00128055 0)
(2.24235 0.000216952 0)
(2.22082 0.00137772 0)
(2.15686 -0.000509807 0)
(2.14847 0.000265053 0)
(2.08335 -0.000953243 0)
(2.07943 -0.000305172 0)
(2.00516 -0.00239758 0)
(1.9937 -0.00117662 0)
(1.9015 -0.0039264 0)
(1.86215 -0.0043614 0)
(1.71112 0.0112389 0)
(2.28229 -0.155332 0)
(2.4 -0.0531041 0)
(2.50652 0.0142808 0)
(2.60378 0.0508385 0)
(2.71468 0.0600041 0)
(2.84394 0.0544164 0)
(2.97636 0.0393358 0)
(3.10735 0.0152278 0)
(3.21825 -0.0070455 0)
(3.30518 -0.0279187 0)
(3.37016 -0.0464971 0)
(3.42568 -0.0573704 0)
(3.47014 -0.0681318 0)
(3.51705 -0.0769775 0)
(3.5688 -0.085518 0)
(3.61651 -0.0861344 0)
(3.68025 -0.088994 0)
(3.73255 -0.0860136 0)
(3.80108 -0.0709592 0)
(3.85774 -0.0588008 0)
(3.93339 -0.0385147 0)
(4.00336 -0.0160706 0)
(4.09759 0.00557188 0)
(4.17411 0.0335153 0)
(4.27565 0.0602778 0)
(4.36384 0.0998014 0)
(4.50124 0.121567 0)
(4.61863 0.153622 0)
(4.78976 0.167313 0)
(4.95984 0.167103 0)
(5.16271 0.172868 0)
(5.37531 0.123061 0)
(5.57973 0.108403 0)
(5.89393 0.0238028 0)
(6.08425 -0.0855628 0)
(6.45718 -0.180125 0)
(6.71882 -0.415514 0)
(7.0129 -0.581613 0)
(7.43245 -0.873055 0)
(7.57564 -1.20836 0)
(7.99279 -1.49068 0)
(8.0592 -1.93283 0)
(8.25381 -2.14869 0)
(8.24839 -2.42032 0)
(8.06162 -2.64201 0)
(7.89957 -2.63874 0)
(7.66691 -2.69578 0)
(7.58213 -2.41533 0)
(7.07597 -2.11706 0)
(6.54398 -1.7506 0)
(5.90637 -1.18085 0)
(5.6848 -0.600343 0)
(4.93833 -0.0456771 0)
(4.42826 0.394721 0)
(4.6235 1.00618 0)
(4.69731 1.68803 0)
(5.13295 2.16492 0)
(5.92286 2.61017 0)
(6.73684 2.5502 0)
(7.04541 2.29149 0)
(7.662 2.13567 0)
(8.46823 1.85769 0)
(8.63634 1.51848 0)
(9.15965 1.03168 0)
(9.83111 0.48019 0)
(10.035 -0.0357673 0)
(10.2653 -0.530366 0)
(10.7637 -1.18123 0)
(10.9173 -1.68753 0)
(10.9856 -1.92053 0)
(11.5856 -2.52826 0)
(11.9441 -3.0692 0)
(12.2301 -3.30986 0)
(12.9024 -3.96365 0)
(13.3259 -4.52041 0)
(13.5686 -4.73829 0)
(13.8645 -5.21994 0)
(13.882 -5.56602 0)
(13.6668 -5.60783 0)
(13.299 -5.74203 0)
(12.7122 -5.57729 0)
(12.0449 -5.3093 0)
(11.367 -5.15908 0)
(10.7155 -4.6654 0)
(10.1869 -4.2967 0)
(9.8005 -4.2715 0)
(9.38485 -4.05535 0)
(8.94265 -3.89063 0)
(8.72289 -4.11814 0)
(8.4192 -4.29717 0)
(7.91336 -4.01209 0)
(7.44962 -3.70856 0)
(7.28025 -3.94525 0)
(7.48044 -4.54348 0)
(7.81361 -5.16333 0)
(8.29921 -5.74169 0)
(8.97695 -6.22976 0)
(9.46381 -6.37172 0)
(9.92735 -6.0844 0)
(10.2036 -5.27187 0)
(10.1952 -4.45408 0)
(10.4389 -3.4619 0)
(10.5507 -2.25073 0)
(10.3943 -1.26697 0)
(10.6957 -0.102041 0)
(10.6501 0.952339 0)
(10.5825 1.66269 0)
(10.883 2.84905 0)
(11.3646 4.26306 0)
(11.0436 5.17239 0)
(10.9015 6.04557 0)
(10.8599 6.8404 0)
(10.3718 7.16842 0)
(9.84657 7.1597 0)
(9.76881 7.3424 0)
(9.50421 7.71517 0)
(9.22241 7.62486 0)
(8.93268 7.25964 0)
(8.70878 6.91475 0)
(8.3628 6.47979 0)
(8.13158 5.94408 0)
(7.75397 5.29353 0)
(7.29656 4.62161 0)
(6.96542 4.00782 0)
(6.54312 3.62334 0)
(6.28045 3.10086 0)
(5.97395 2.83713 0)
(5.91283 2.58624 0)
(5.80335 2.34566 0)
(6.04318 2.21643 0)
(6.24328 1.83531 0)
(6.49093 1.27818 0)
(6.97583 0.93221 0)
(7.41323 0.563757 0)
(7.92115 0.229568 0)
(8.08382 0.0158859 0)
(8.72763 -0.586902 0)
(8.84521 -0.866928 0)
(9.45957 -1.07751 0)
(9.41358 -1.41508 0)
(9.91833 -2.09151 0)
(9.87746 -2.09437 0)
(10.2489 -2.52976 0)
(10.3782 -2.68504 0)
(10.3907 -2.67958 0)
(10.6884 -2.48161 0)
(10.3289 -2.78167 0)
(10.5536 -2.44452 0)
(9.6573 -2.37917 0)
(9.72845 -2.50658 0)
(9.16816 -3.19248 0)
(8.72683 -2.58399 0)
(8.11562 -2.86114 0)
(8.12358 -3.87604 0)
(7.13031 -3.42437 0)
(7.64716 -3.3243 0)
(6.87026 -4.16323 0)
(7.18266 -3.51299 0)
(6.13264 -4.36162 0)
(7.30978 -3.93025 0)
(5.87966 -4.91317 0)
(6.54194 -3.73396 0)
(5.05859 -6.71064 0)
(6.28091 -5.66172 0)
(5.61871 -6.44974 0)
(5.89305 -7.14474 0)
(6.22826 -7.55005 0)
(6.99819 -6.17208 0)
(6.98578 -4.55784 0)
(6.84215 -3.37885 0)
(6.58517 -1.71551 0)
(6.64055 -0.135131 0)
(6.63323 1.15932 0)
(7.01013 2.93012 0)
(6.90671 4.73641 0)
(7.13729 6.23762 0)
(7.07337 7.38539 0)
(7.24888 9.13753 0)
(7.58687 10.6438 0)
(7.29947 11.0478 0)
(6.72224 10.4514 0)
(6.3328 9.38117 0)
(5.70728 8.0021 0)
(5.31772 6.85087 0)
(5.43017 6.03556 0)
(4.90464 5.42629 0)
(5.29206 5.05926 0)
(5.31961 4.54382 0)
(5.34692 3.96698 0)
(5.64281 3.49608 0)
(5.49212 3.03801 0)
(5.60552 2.87817 0)
(5.06044 2.528 0)
(4.9426 2.60468 0)
(4.43451 3.01138 0)
(4.81231 3.50698 0)
(4.07055 4.07401 0)
(4.55163 5.04192 0)
(4.7247 6.0664 0)
(3.23174 8.361 0)
(5.33935 -0.0960792 0)
(5.38011 -0.0710827 0)
(5.39155 -0.0439069 0)
(5.3982 -0.0179477 0)
(5.41898 -0.00916423 0)
(5.47597 -0.0163957 0)
(5.54242 -0.0305285 0)
(5.62464 -0.0494208 0)
(5.69269 -0.0662491 0)
(5.75545 -0.0806441 0)
(5.80089 -0.0904273 0)
(5.83828 -0.103363 0)
(5.87329 -0.111962 0)
(5.90447 -0.118422 0)
(5.94995 -0.134211 0)
(5.98087 -0.13518 0)
(6.04136 -0.136288 0)
(6.07516 -0.132585 0)
(6.13886 -0.121996 0)
(6.18202 -0.114607 0)
(6.23875 -0.0858621 0)
(6.3008 -0.0802609 0)
(6.35867 -0.0545605 0)
(6.43872 -0.0258601 0)
(6.51226 -0.0278683 0)
(6.58631 0.025492 0)
(6.71634 0.0161214 0)
(6.79819 0.0401852 0)
(6.97793 0.043945 0)
(7.10376 0.00539353 0)
(7.29547 0.0261433 0)
(7.53445 -0.0814256 0)
(7.63565 -0.0914797 0)
(8.04313 -0.185402 0)
(8.14174 -0.347228 0)
(8.47295 -0.416599 0)
(8.83014 -0.668419 0)
(8.89213 -0.838378 0)
(9.4305 -1.10644 0)
(9.41141 -1.40424 0)
(9.75897 -1.618 0)
(9.88047 -1.99901 0)
(9.78004 -2.16687 0)
(9.96347 -2.36339 0)
(9.55833 -2.5569 0)
(9.61687 -2.39886 0)
(9.12537 -2.43364 0)
(8.78635 -2.21532 0)
(8.34335 -1.92058 0)
(8.09026 -1.51444 0)
(7.90052 -0.859462 0)
(7.53951 -0.45189 0)
(7.48598 0.228163 0)
(7.04794 0.723259 0)
(6.82406 1.05865 0)
(7.02534 1.55841 0)
(6.90368 1.78744 0)
(7.15253 1.97284 0)
(8.05044 2.02049 0)
(8.21536 1.9118 0)
(8.58738 1.63953 0)
(9.38052 1.31583 0)
(9.6003 1.04538 0)
(9.93056 0.703204 0)
(10.5988 0.141541 0)
(10.9578 -0.432183 0)
(11.0575 -0.731361 0)
(11.6257 -1.34092 0)
(12.0723 -1.99189 0)
(12.2475 -2.22902 0)
(12.8439 -2.82293 0)
(13.279 -3.43098 0)
(13.5929 -3.6927 0)
(14.0952 -4.29933 0)
(14.2962 -4.71118 0)
(14.3264 -4.88196 0)
(14.3493 -5.29266 0)
(14.0678 -5.36971 0)
(13.6833 -5.33735 0)
(13.2083 -5.31413 0)
(12.524 -5.01508 0)
(12.0309 -4.76267 0)
(11.4717 -4.54129 0)
(10.8086 -4.11288 0)
(10.4363 -3.92079 0)
(10.0478 -3.95807 0)
(9.54491 -3.70805 0)
(9.08594 -3.56213 0)
(8.7502 -3.79114 0)
(8.23769 -3.83699 0)
(7.50433 -3.52271 0)
(7.05106 -3.43071 0)
(6.95007 -3.97396 0)
(7.14381 -4.78935 0)
(7.47216 -5.54064 0)
(7.89625 -6.20891 0)
(8.4688 -6.65028 0)
(8.87334 -6.68738 0)
(9.0767 -6.16913 0)
(9.26537 -5.29978 0)
(9.25715 -4.49286 0)
(9.36184 -3.50123 0)
(9.62489 -2.30296 0)
(9.63268 -1.36327 0)
(9.74437 -0.246232 0)
(9.93174 0.934063 0)
(9.82014 1.61181 0)
(9.91647 2.65554 0)
(10.3372 4.20709 0)
(10.2985 5.36234 0)
(10.2397 6.16247 0)
(10.2737 6.99454 0)
(10.0582 7.45066 0)
(9.57702 7.45914 0)
(9.33379 7.5406 0)
(9.33856 7.79563 0)
(9.20414 7.74626 0)
(8.79886 7.46074 0)
(8.53017 7.08821 0)
(8.46318 6.66131 0)
(8.20945 6.18814 0)
(8.00658 5.58645 0)
(7.72804 4.93886 0)
(7.36031 4.28564 0)
(7.14145 3.84573 0)
(6.82288 3.35323 0)
(6.62984 3.01753 0)
(6.40705 2.75698 0)
(6.36394 2.30696 0)
(6.41042 2.12852 0)
(6.66555 1.65162 0)
(6.96714 1.10474 0)
(7.28035 0.62484 0)
(7.92667 0.299731 0)
(8.42043 0.045695 0)
(8.6641 -0.269621 0)
(9.18283 -0.801503 0)
(9.36209 -1.15619 0)
(9.72824 -1.26042 0)
(9.86935 -1.71349 0)
(10.2087 -2.17926 0)
(10.2023 -2.28905 0)
(10.2839 -2.62575 0)
(10.5068 -2.80222 0)
(10.2774 -2.70287 0)
(10.4821 -2.52648 0)
(10.0082 -2.64048 0)
(10.1505 -2.2527 0)
(9.4225 -2.0284 0)
(9.38508 -2.31794 0)
(9.08538 -2.7662 0)
(8.22549 -2.1311 0)
(8.276 -2.71148 0)
(7.73954 -3.33123 0)
(7.32257 -3.2367 0)
(7.44678 -3.20811 0)
(6.81077 -3.707 0)
(6.76289 -3.3996 0)
(6.37711 -4.49667 0)
(6.92537 -3.62266 0)
(5.36256 -4.60496 0)
(6.61725 -3.53133 0)
(4.97603 -6.63441 0)
(6.04689 -5.51487 0)
(5.62554 -6.61034 0)
(5.84629 -7.44013 0)
(6.10665 -7.89694 0)
(6.36822 -6.50098 0)
(6.57001 -4.57071 0)
(6.32413 -3.04046 0)
(5.96908 -1.79191 0)
(6.08181 -0.114698 0)
(5.93375 1.20945 0)
(6.35224 2.97134 0)
(6.52365 4.55595 0)
(6.46108 6.01987 0)
(6.75236 7.28897 0)
(6.7416 8.82459 0)
(7.13307 10.4522 0)
(7.24011 11.1099 0)
(6.82194 10.749 0)
(6.43543 9.81126 0)
(6.13102 8.38709 0)
(5.39888 7.21868 0)
(5.23636 6.35856 0)
(4.89011 5.55304 0)
(4.80752 4.79406 0)
(5.35 4.21568 0)
(5.26105 3.68784 0)
(5.80583 3.23674 0)
(5.60316 3.03309 0)
(5.75109 3.05149 0)
(5.42786 2.86783 0)
(5.15222 2.92933 0)
(4.79098 3.02332 0)
(4.92667 3.67138 0)
(5.22396 4.03154 0)
(4.57053 5.25109 0)
(6.80769 5.32072 0)
(5.50251 8.77974 0)
(8.03584 -0.0560154 0)
(8.03309 -0.00578538 0)
(8.01438 0.0036776 0)
(8.00125 -0.0145094 0)
(8.00964 -0.0345424 0)
(8.04479 -0.0627614 0)
(8.09997 -0.0740799 0)
(8.15882 -0.0872697 0)
(8.21503 -0.0934159 0)
(8.25057 -0.100041 0)
(8.28043 -0.114132 0)
(8.30437 -0.115502 0)
(8.32052 -0.134818 0)
(8.34044 -0.140061 0)
(8.37701 -0.159467 0)
(8.38247 -0.164262 0)
(8.44329 -0.161479 0)
(8.45691 -0.178702 0)
(8.5074 -0.15055 0)
(8.5577 -0.1513 0)
(8.57184 -0.140642 0)
(8.67014 -0.112509 0)
(8.67182 -0.10807 0)
(8.76507 -0.0880049 0)
(8.84007 -0.0855283 0)
(8.84771 -0.0454375 0)
(9.04598 -0.0771559 0)
(9.01035 -0.0576153 0)
(9.23627 -0.0591138 0)
(9.33592 -0.128961 0)
(9.39991 -0.12342 0)
(9.77982 -0.22411 0)
(9.68569 -0.270405 0)
(10.1217 -0.389551 0)
(10.2297 -0.49978 0)
(10.347 -0.647637 0)
(10.8171 -0.864514 0)
(10.668 -0.983928 0)
(11.1655 -1.31427 0)
(11.1058 -1.48824 0)
(11.2033 -1.71402 0)
(11.444 -2.0205 0)
(11.0206 -2.13736 0)
(11.336 -2.28596 0)
(10.786 -2.38013 0)
(10.7223 -2.28958 0)
(10.4252 -2.18312 0)
(9.96466 -1.96033 0)
(10.0038 -1.51955 0)
(9.33127 -1.24753 0)
(9.36583 -0.701689 0)
(8.97419 -0.203153 0)
(8.82796 0.232819 0)
(9.03352 0.84904 0)
(8.61664 1.25805 0)
(9.00365 1.5092 0)
(9.16432 1.77857 0)
(8.95131 1.87311 0)
(9.63373 1.73302 0)
(9.90958 1.61965 0)
(9.98786 1.39456 0)
(10.562 1.02772 0)
(11.0328 0.649029 0)
(11.1645 0.395378 0)
(11.6828 -0.119989 0)
(12.2597 -0.764451 0)
(12.3852 -1.06574 0)
(12.901 -1.61613 0)
(13.4205 -2.26104 0)
(13.6344 -2.64992 0)
(14.0978 -3.17318 0)
(14.3866 -3.66273 0)
(14.5753 -4.02047 0)
(14.7786 -4.46081 0)
(14.6543 -4.74009 0)
(14.5338 -4.87344 0)
(14.299 -5.11546 0)
(13.8556 -5.02043 0)
(13.493 -4.90909 0)
(13.0204 -4.86291 0)
(12.4303 -4.4717 0)
(12.0532 -4.35253 0)
(11.6281 -4.21754 0)
(11.0505 -3.6883 0)
(10.7145 -3.57724 0)
(10.281 -3.62155 0)
(9.58968 -3.23267 0)
(9.07022 -3.13769 0)
(8.60007 -3.37368 0)
(7.84238 -3.24048 0)
(7.05268 -2.99076 0)
(6.65923 -3.22082 0)
(6.58364 -3.98425 0)
(6.75092 -4.92973 0)
(7.03159 -5.78748 0)
(7.41218 -6.53738 0)
(7.7848 -6.95163 0)
(8.12034 -6.85738 0)
(8.21428 -6.29949 0)
(8.12372 -5.39835 0)
(8.28362 -4.57756 0)
(8.48974 -3.67688 0)
(8.70964 -2.56325 0)
(8.88652 -1.49646 0)
(9.02983 -0.359394 0)
(9.12085 0.845943 0)
(9.05555 1.59437 0)
(9.15155 2.45214 0)
(9.52029 3.93638 0)
(9.41828 5.31796 0)
(9.28972 6.15736 0)
(9.47383 6.98644 0)
(9.45082 7.7928 0)
(9.09725 7.85248 0)
(8.84607 7.63072 0)
(8.91047 7.81317 0)
(8.80522 8.04615 0)
(8.7002 7.76599 0)
(8.53998 7.22958 0)
(8.26688 6.82666 0)
(8.18552 6.38607 0)
(8.012 5.73136 0)
(7.92783 5.14158 0)
(7.68257 4.55233 0)
(7.48094 4.12352 0)
(7.47229 3.52752 0)
(7.10112 3.18561 0)
(7.09059 2.90533 0)
(6.92002 2.32347 0)
(7.14647 1.98517 0)
(7.16901 1.51677 0)
(7.63659 0.775497 0)
(7.84147 0.185172 0)
(8.49313 -0.1651 0)
(9.03406 -0.359431 0)
(9.44394 -0.643647 0)
(9.96316 -1.03495 0)
(10.1946 -1.28058 0)
(10.3736 -1.35396 0)
(10.6326 -1.82672 0)
(10.7251 -2.18892 0)
(10.7676 -2.35125 0)
(10.6606 -2.56488 0)
(10.7744 -2.81814 0)
(10.3696 -2.48935 0)
(10.3635 -2.46715 0)
(9.93795 -2.38452 0)
(9.79555 -2.03203 0)
(9.15854 -1.67036 0)
(9.0221 -2.21733 0)
(8.78349 -2.22315 0)
(7.81712 -1.88033 0)
(8.1132 -2.49207 0)
(7.36981 -2.93273 0)
(7.41368 -3.08369 0)
(6.98257 -3.07924 0)
(6.7855 -3.24177 0)
(6.48888 -3.39512 0)
(6.29099 -4.37587 0)
(6.23461 -3.01385 0)
(5.03418 -4.58098 0)
(6.95181 -3.61469 0)
(4.96705 -6.41675 0)
(6.03991 -5.48212 0)
(5.54968 -6.9041 0)
(6.09289 -7.51537 0)
(5.65186 -8.00382 0)
(5.72676 -6.63972 0)
(5.97894 -4.71705 0)
(5.82031 -2.8755 0)
(5.58331 -1.57353 0)
(5.51133 -0.232896 0)
(5.52824 0.955949 0)
(5.58249 2.78213 0)
(5.98322 4.62722 0)
(5.75505 5.86522 0)
(6.15392 7.31896 0)
(6.42463 8.63983 0)
(6.63247 10.146 0)
(7.08806 11.2081 0)
(7.02535 11.0368 0)
(6.49956 10.1927 0)
(6.45507 9.01216 0)
(5.79904 7.70902 0)
(5.06843 6.63176 0)
(5.35083 5.57496 0)
(4.88798 4.63592 0)
(5.48009 4.00144 0)
(5.40926 3.5006 0)
(5.43107 3.28216 0)
(5.5401 3.04051 0)
(5.25719 3.1145 0)
(5.82 2.96864 0)
(5.06747 3.34512 0)
(5.95798 2.9822 0)
(4.63865 3.76983 0)
(6.79332 3.39673 0)
(5.011 5.51658 0)
(7.81169 4.00017 0)
(7.13511 8.08428 0)
(10.3645 -0.0194058 0)
(10.3134 0.0492164 0)
(10.2415 0.025174 0)
(10.1946 -0.0170202 0)
(10.1904 -0.0652486 0)
(10.228 -0.104831 0)
(10.2724 -0.111353 0)
(10.327 -0.121051 0)
(10.3524 -0.114343 0)
(10.3851 -0.117028 0)
(10.3925 -0.133124 0)
(10.4022 -0.130431 0)
(10.422 -0.148551 0)
(10.4059 -0.160242 0)
(10.4617 -0.173921 0)
(10.4438 -0.181239 0)
(10.4858 -0.188992 0)
(10.5238 -0.188711 0)
(10.509 -0.187106 0)
(10.6064 -0.18421 0)
(10.5646 -0.159416 0)
(10.6707 -0.177887 0)
(10.6768 -0.130889 0)
(10.7212 -0.142493 0)
(10.8536 -0.138415 0)
(10.7679 -0.0860878 0)
(11.0224 -0.167806 0)
(10.9395 -0.094376 0)
(11.1002 -0.185127 0)
(11.2743 -0.21258 0)
(11.1893 -0.209479 0)
(11.6067 -0.412602 0)
(11.4677 -0.316957 0)
(11.773 -0.586224 0)
(11.911 -0.631879 0)
(11.8811 -0.72748 0)
(12.2741 -1.07703 0)
(12.0724 -1.00524 0)
(12.3791 -1.45963 0)
(12.3162 -1.51058 0)
(12.2075 -1.69303 0)
(12.3941 -2.04305 0)
(11.8982 -1.92988 0)
(12.038 -2.24157 0)
(11.582 -2.12688 0)
(11.3193 -2.08678 0)
(11.2278 -1.95405 0)
(10.5769 -1.61459 0)
(10.6816 -1.45302 0)
(10.0913 -1.00861 0)
(10.0828 -0.624681 0)
(10.0512 -0.135125 0)
(9.74752 0.315309 0)
(10.225 0.664054 0)
(10.0192 1.21817 0)
(10.2763 1.47249 0)
(10.7774 1.53711 0)
(10.7172 1.72527 0)
(11.1123 1.67861 0)
(11.608 1.35679 0)
(11.6985 1.20746 0)
(11.9984 0.93961 0)
(12.5702 0.330413 0)
(12.6892 0.080979 0)
(13.0593 -0.33758 0)
(13.5867 -1.03421 0)
(13.769 -1.35538 0)
(14.1299 -1.88573 0)
(14.4539 -2.48626 0)
(14.6259 -2.86681 0)
(14.8695 -3.40506 0)
(14.8859 -3.77016 0)
(14.8621 -4.10932 0)
(14.8283 -4.48028 0)
(14.471 -4.54352 0)
(14.2617 -4.67737 0)
(14.0325 -4.80861 0)
(13.5993 -4.63755 0)
(13.3438 -4.56224 0)
(12.9685 -4.46461 0)
(12.5749 -4.18155 0)
(12.3879 -4.09174 0)
(11.9431 -3.75918 0)
(11.3123 -3.2674 0)
(10.9106 -3.26162 0)
(10.3287 -3.13855 0)
(9.4933 -2.69976 0)
(8.89769 -2.67054 0)
(8.22976 -2.7792 0)
(7.29275 -2.56183 0)
(6.55156 -2.49363 0)
(6.25139 -3.00115 0)
(6.14853 -3.96569 0)
(6.22119 -5.04429 0)
(6.43532 -6.04684 0)
(6.66109 -6.81036 0)
(6.97492 -7.17647 0)
(7.09204 -6.95897 0)
(7.17498 -6.34596 0)
(7.12901 -5.52024 0)
(7.18978 -4.75021 0)
(7.55858 -3.86942 0)
(7.73629 -2.79067 0)
(7.88789 -1.66862 0)
(8.11631 -0.409693 0)
(8.15624 0.761014 0)
(8.14845 1.56092 0)
(8.23322 2.41482 0)
(8.56539 3.9057 0)
(8.51084 5.2523 0)
(8.44309 6.03051 0)
(8.57563 6.91279 0)
(8.73509 7.74888 0)
(8.50639 7.90196 0)
(8.19431 7.78519 0)
(8.26825 7.90396 0)
(8.46336 7.96144 0)
(8.42415 7.84204 0)
(8.28373 7.50117 0)
(8.14984 6.98508 0)
(8.02341 6.43166 0)
(8.01939 5.81409 0)
(7.88673 5.33337 0)
(7.88243 4.66183 0)
(7.84217 4.21046 0)
(7.80176 3.70143 0)
(7.70414 3.32607 0)
(7.58479 3.05381 0)
(7.80218 2.28017 0)
(7.84332 1.88067 0)
(8.07961 1.33588 0)
(8.36595 0.526299 0)
(8.83644 -0.239587 0)
(9.04077 -0.582505 0)
(9.64665 -0.790362 0)
(9.84021 -1.07867 0)
(10.3389 -1.34155 0)
(10.4127 -1.47056 0)
(10.6054 -1.51141 0)
(10.8123 -1.99945 0)
(10.8685 -2.23004 0)
(10.8457 -2.29311 0)
(10.7313 -2.52667 0)
(10.7542 -2.62647 0)
(10.2567 -2.32727 0)
(10.0873 -2.20782 0)
(9.68136 -2.02438 0)
(9.29741 -1.7197 0)
(8.83444 -1.38767 0)
(8.63377 -2.10976 0)
(8.37945 -1.67856 0)
(7.67241 -1.75708 0)
(7.77671 -2.2956 0)
(7.37435 -2.75737 0)
(7.27902 -2.81848 0)
(6.7039 -3.01216 0)
(6.77489 -2.90252 0)
(6.52312 -3.32084 0)
(5.99867 -3.9507 0)
(5.67915 -2.81564 0)
(4.97672 -4.84971 0)
(6.87399 -3.97335 0)
(5.15925 -6.20432 0)
(6.45304 -5.48187 0)
(5.28832 -7.36982 0)
(6.2572 -7.20876 0)
(4.73385 -7.93137 0)
(4.94681 -6.57891 0)
(5.22467 -4.78087 0)
(5.00603 -3.03678 0)
(5.19838 -1.33233 0)
(4.82967 -0.130167 0)
(5.02584 1.20554 0)
(4.83925 2.5271 0)
(5.30164 4.43782 0)
(5.39021 5.66654 0)
(5.38451 7.01728 0)
(6.00185 8.40437 0)
(6.24545 9.74025 0)
(6.74893 11.0409 0)
(7.07347 11.1649 0)
(6.7253 10.4029 0)
(6.51397 9.35709 0)
(6.32638 8.08171 0)
(5.46607 6.88374 0)
(5.76189 5.66713 0)
(5.54519 4.6087 0)
(5.33635 4.0705 0)
(5.80308 3.54327 0)
(5.05707 3.44978 0)
(5.91623 2.89909 0)
(4.97606 3.14217 0)
(6.27406 2.75625 0)
(4.7972 3.3422 0)
(6.71489 2.5695 0)
(4.75568 4.01426 0)
(7.3132 2.43742 0)
(5.82168 5.62163 0)
(7.68622 2.93107 0)
(8.00799 7.06909 0)
(11.9176 -0.0180272 0)
(11.8853 0.00720474 0)
(11.7879 -0.0463034 0)
(11.7697 -0.0764447 0)
(11.7714 -0.10369 0)
(11.8236 -0.13218 0)
(11.8682 -0.122245 0)
(11.9258 -0.127532 0)
(11.923 -0.118542 0)
(11.9463 -0.12865 0)
(11.9336 -0.132577 0)
(11.9035 -0.15335 0)
(11.9326 -0.16868 0)
(11.8627 -0.170353 0)
(11.9228 -0.226384 0)
(11.8922 -0.189163 0)
(11.9076 -0.226292 0)
(11.9785 -0.226665 0)
(11.9096 -0.187896 0)
(12.0619 -0.235131 0)
(11.9691 -0.165677 0)
(12.0717 -0.218922 0)
(12.0958 -0.166049 0)
(12.0808 -0.182395 0)
(12.2369 -0.202108 0)
(12.1299 -0.114899 0)
(12.3785 -0.264533 0)
(12.2541 -0.131579 0)
(12.4299 -0.26871 0)
(12.5281 -0.3101 0)
(12.4301 -0.2565 0)
(12.7822 -0.539569 0)
(12.5972 -0.385379 0)
(12.8525 -0.674511 0)
(12.8649 -0.735565 0)
(12.8535 -0.77934 0)
(13.0364 -1.15844 0)
(12.8377 -1.02869 0)
(13.0225 -1.46713 0)
(12.7904 -1.4852 0)
(12.7387 -1.59104 0)
(12.6631 -1.95038 0)
(12.2286 -1.70586 0)
(12.2419 -2.05545 0)
(11.7557 -1.88409 0)
(11.507 -1.76986 0)
(11.3337 -1.79017 0)
(10.8147 -1.30908 0)
(10.8738 -1.28811 0)
(10.4473 -0.805299 0)
(10.3771 -0.421086 0)
(10.4698 -0.229174 0)
(10.2421 0.321568 0)
(10.6222 0.596468 0)
(10.7162 0.944237 0)
(10.938 1.31389 0)
(11.4937 1.28679 0)
(11.7225 1.38828 0)
(11.9694 1.4983 0)
(12.576 1.10046 0)
(12.7937 0.919167 0)
(12.9949 0.713858 0)
(13.5336 0.0987216 0)
(13.7221 -0.222854 0)
(13.9598 -0.606814 0)
(14.3486 -1.18401 0)
(14.4858 -1.62021 0)
(14.6503 -2.12187 0)
(14.8047 -2.59985 0)
(14.7991 -3.02037 0)
(14.8223 -3.45644 0)
(14.675 -3.77513 0)
(14.5413 -4.07362 0)
(14.3823 -4.28856 0)
(14.0767 -4.33193 0)
(14.0056 -4.45598 0)
(13.8387 -4.50603 0)
(13.5354 -4.35956 0)
(13.4581 -4.33224 0)
(13.2387 -4.21194 0)
(12.9085 -3.87007 0)
(12.6405 -3.73526 0)
(12.0926 -3.35943 0)
(11.4679 -2.85751 0)
(10.962 -2.79058 0)
(10.1793 -2.47811 0)
(9.22962 -2.03087 0)
(8.48544 -2.08471 0)
(7.71708 -2.10126 0)
(6.76295 -1.87361 0)
(6.03965 -2.04388 0)
(5.71658 -2.81066 0)
(5.59767 -3.96039 0)
(5.59077 -5.17104 0)
(5.72135 -6.18985 0)
(5.83614 -6.94082 0)
(6.02291 -7.25199 0)
(6.1718 -6.98073 0)
(6.03886 -6.31752 0)
(6.09807 -5.59375 0)
(6.18167 -4.90555 0)
(6.41058 -4.06148 0)
(6.57984 -2.95553 0)
(6.66886 -1.74107 0)
(6.77582 -0.467433 0)
(6.82353 0.706359 0)
(6.95494 1.51107 0)
(7.10801 2.31372 0)
(7.50156 3.82961 0)
(7.44539 5.30735 0)
(7.35436 6.10432 0)
(7.56871 6.83139 0)
(7.81381 7.71451 0)
(7.75214 8.10106 0)
(7.52755 7.85844 0)
(7.60134 7.71959 0)
(7.7926 7.86286 0)
(7.94806 7.95844 0)
(8.13155 7.49238 0)
(8.05895 7.02585 0)
(7.97707 6.56446 0)
(7.8919 5.93263 0)
(7.96984 5.32141 0)
(7.89111 4.63396 0)
(7.93637 4.24324 0)
(8.14349 3.78215 0)
(8.11365 3.38581 0)
(8.31419 2.97238 0)
(8.35937 2.21729 0)
(8.75892 1.70638 0)
(8.76755 1.1725 0)
(9.38705 0.253163 0)
(9.52246 -0.484592 0)
(9.80741 -0.803328 0)
(9.91764 -0.965794 0)
(10.2878 -1.32764 0)
(10.3496 -1.43458 0)
(10.3719 -1.53742 0)
(10.3962 -1.64598 0)
(10.5864 -2.08923 0)
(10.57 -2.21674 0)
(10.5674 -2.27194 0)
(10.4617 -2.49944 0)
(10.4009 -2.36324 0)
(9.87937 -2.06886 0)
(9.64831 -1.97154 0)
(9.29304 -1.77082 0)
(8.75013 -1.3542 0)
(8.47263 -1.17252 0)
(8.24199 -1.85472 0)
(7.9655 -1.30898 0)
(7.68562 -1.50446 0)
(7.288 -2.08302 0)
(7.53169 -2.55776 0)
(7.01498 -2.42341 0)
(6.66526 -2.78539 0)
(6.57267 -2.70541 0)
(6.64833 -3.1329 0)
(5.41742 -3.44975 0)
(5.8488 -2.9196 0)
(5.1659 -4.83394 0)
(6.57389 -4.45431 0)
(5.58585 -5.75886 0)
(6.59479 -5.62983 0)
(5.31197 -7.31738 0)
(5.71472 -6.58303 0)
(3.7276 -7.62282 0)
(4.26223 -6.35573 0)
(4.07835 -4.82102 0)
(4.27702 -3.02414 0)
(4.46815 -1.39979 0)
(4.3369 -0.369466 0)
(4.54634 1.14331 0)
(4.40502 2.46611 0)
(4.59201 4.31031 0)
(4.83731 5.67924 0)