/*--------------------------------*- C++ -*----------------------------------*\
| =========                 |                                                 |
| \\      /  F ield         | OpenFOAM: The Open Source CFD Toolbox           |
|  \\    /   O peration     | Version:  2.4.0                                 |
|   \\  /    A nd           | Web:      www.OpenFOAM.org                      |
|    \\/     M anipulation  |                                                 |
\*---------------------------------------------------------------------------*/
FoamFile
{
    version     2.0;
    format      ascii;
    class       volVectorField;
    location    "1.64";
    object      UMean;
}
// * * * * * * * * * * * * * * * * * * * * * * * * * * * * * * * * * * * * * //

dimensions      [0 1 -1 0 0 0 0];

internalField   nonuniform List<vector> 
8800
(
(8.09338 0.387277 0)
(5.45619 0.242639 0)
(3.92499 0.0429648 0)
(3.15985 -0.0151925 0)
(2.81894 -0.0184602 0)
(2.59912 -0.0108302 0)
(2.50897 -0.00591395 0)
(2.38099 -0.00193777 0)
(2.35042 -0.00183024 0)
(2.25132 -0.00012724 0)
(2.25381 -0.00109408 0)
(2.16774 0.000515317 0)
(2.18601 -0.000614559 0)
(2.10082 0.00103708 0)
(2.12463 -0.00029814 0)
(2.03689 0.00142781 0)
(2.06322 -0.000471558 0)
(1.96851 0.000784585 0)
(2.03353 0.00795196 0)
(1.72846 -0.0641346 0)
(10.0893 0.836445 0)
(9.65006 0.866862 0)
(8.89682 0.505767 0)
(8.06509 0.261883 0)
(7.53028 0.13707 0)
(6.98105 0.0822106 0)
(6.74921 0.0526101 0)
(6.3688 0.040791 0)
(6.29464 0.0280433 0)
(5.99176 0.024847 0)
(6.01191 0.0167084 0)
(5.74579 0.01853 0)
(5.81964 0.0129542 0)
(5.56268 0.0173584 0)
(5.66511 0.012701 0)
(5.4026 0.0169252 0)
(5.52688 0.015857 0)
(5.23772 0.00815263 0)
(5.43242 0.0303779 0)
(5.01493 -0.043778 0)
(10.0862 0.629945 0)
(10.6263 0.862153 0)
(10.9163 0.599466 0)
(10.6403 0.373467 0)
(10.5198 0.254107 0)
(10.0219 0.196494 0)
(9.91739 0.150567 0)
(9.42215 0.122746 0)
(9.4155 0.0907388 0)
(8.95613 0.0766721 0)
(9.04911 0.055086 0)
(8.61772 0.0531674 0)
(8.78557 0.0390413 0)
(8.35964 0.0438084 0)
(8.57891 0.0340758 0)
(8.1394 0.039473 0)
(8.40044 0.0371781 0)
(7.92595 0.0298409 0)
(8.24995 0.0412396 0)
(7.72424 -0.048811 0)
(10.069 0.456579 0)
(10.4907 0.703909 0)
(11.259 0.543666 0)
(11.2772 0.352654 0)
(11.6605 0.259747 0)
(11.3491 0.22801 0)
(11.6091 0.19675 0)
(11.1784 0.176229 0)
(11.4319 0.142843 0)
(10.9484 0.126497 0)
(11.2355 0.0990946 0)
(10.7238 0.0940391 0)
(11.0539 0.0745124 0)
(10.5155 0.0776411 0)
(10.8865 0.0631125 0)
(10.3167 0.0702418 0)
(10.7262 0.0598274 0)
(10.1173 0.0657904 0)
(10.5619 0.0462871 0)
(9.92607 0.0276082 0)
(10.1872 0.346301 0)
(10.2619 0.566396 0)
(11.1949 0.457883 0)
(11.158 0.295708 0)
(11.8085 0.20571 0)
(11.5231 0.194863 0)
(12.0396 0.17375 0)
(11.6661 0.171811 0)
(12.1508 0.13903 0)
(11.7318 0.135687 0)
(12.2091 0.102329 0)
(11.7558 0.110411 0)
(12.2317 0.0802372 0)
(11.746 0.100218 0)
(12.2214 0.0685465 0)
(11.7044 0.099881 0)
(12.178 0.0615308 0)
(11.6305 0.106156 0)
(12.0929 0.0408363 0)
(11.5171 0.08884 0)
(10.2159 0.249398 0)
(10.1788 0.456306 0)
(11.0392 0.37154 0)
(11.057 0.250377 0)
(11.6607 0.155633 0)
(11.4889 0.154945 0)
(11.9311 0.135865 0)
(11.7097 0.145751 0)
(12.1072 0.111984 0)
(11.884 0.117545 0)
(12.2595 0.0820546 0)
(12.0364 0.0969918 0)
(12.3909 0.0652215 0)
(12.1648 0.0907203 0)
(12.4959 0.0589152 0)
(12.2652 0.0935489 0)
(12.5692 0.0578264 0)
(12.3303 0.102272 0)
(12.5935 0.0477537 0)
(12.3187 0.0571419 0)
(10.0911 0.168644 0)
(10.2431 0.359101 0)
(10.8088 0.280225 0)
(11.0719 0.211883 0)
(11.4354 0.108559 0)
(11.5203 0.123786 0)
(11.7147 0.0941293 0)
(11.7393 0.125059 0)
(11.8912 0.0757141 0)
(11.9189 0.103739 0)
(12.0552 0.0499721 0)
(12.0871 0.0883014 0)
(12.208 0.0343707 0)
(12.2395 0.0860026 0)
(12.3441 0.0278787 0)
(12.3729 0.0926976 0)
(12.4598 0.0251385 0)
(12.4793 0.106125 0)
(12.5303 0.0185724 0)
(12.4882 0.0948429 0)
(9.9772 0.103472 0)
(10.2995 0.263664 0)
(10.6392 0.190458 0)
(11.0767 0.165113 0)
(11.2737 0.0673146 0)
(11.5328 0.0937712 0)
(11.5653 0.0569122 0)
(11.7435 0.10033 0)
(11.7393 0.0442666 0)
(11.9156 0.0847862 0)
(11.9047 0.0247834 0)
(12.08 0.0737012 0)
(12.0609 0.0126475 0)
(12.2304 0.0724613 0)
(12.2022 0.0074411 0)
(12.3632 0.0780639 0)
(12.3253 0.00496284 0)
(12.4716 0.0889011 0)
(12.408 -0.000971065 0)
(12.4598 0.0801012 0)
(9.90457 0.0552759 0)
(10.3346 0.161884 0)
(10.5284 0.110367 0)
(11.0773 0.104365 0)
(11.1671 0.0355144 0)
(11.5388 0.0593904 0)
(11.4671 0.0294448 0)
(11.7446 0.0653476 0)
(11.6384 0.022476 0)
(11.9123 0.0551849 0)
(11.8044 0.0101481 0)
(12.0757 0.0479442 0)
(11.9623 0.00284981 0)
(12.2265 0.0462193 0)
(12.1049 -0.00045128 0)
(12.3603 0.0479249 0)
(12.2301 -0.00230383 0)
(12.4699 0.0501027 0)
(12.3084 -0.0124577 0)
(12.4389 0.0104041 0)
(9.89206 0.00849649 0)
(10.3296 0.0669585 0)
(10.4947 0.0257141 0)
(11.0563 0.0477361 0)
(11.1374 3.05004e-05 0)
(11.5214 0.0330122 0)
(11.4446 -0.00250361 0)
(11.7255 0.0365133 0)
(11.6167 -0.00538267 0)
(11.8921 0.0331504 0)
(11.7844 -0.0106585 0)
(12.0565 0.0307733 0)
(11.9444 -0.0144227 0)
(12.209 0.0298348 0)
(12.0889 -0.0177681 0)
(12.3453 0.0288153 0)
(12.2153 -0.0220761 0)
(12.4572 0.0247229 0)
(12.2911 -0.0346301 0)
(12.4245 -0.00506904 0)
(9.91337 -0.0306616 0)
(10.3091 -0.034428 0)
(10.5164 -0.0548237 0)
(11.0399 -0.0177478 0)
(11.1615 -0.0305708 0)
(11.508 -0.0021674 0)
(11.471 -0.0294804 0)
(11.7152 -0.00261299 0)
(11.6446 -0.0284203 0)
(11.8851 0.00114434 0)
(11.8141 -0.025997 0)
(12.0527 0.00352056 0)
(11.9756 -0.0265985 0)
(12.2086 0.00276935 0)
(12.1216 -0.030323 0)
(12.349 -0.00122606 0)
(12.2498 -0.0373238 0)
(12.4651 -0.00945589 0)
(12.3265 -0.0497924 0)
(12.4339 -0.028961 0)
(9.94716 -0.0751771 0)
(10.2909 -0.133906 0)
(10.5726 -0.137011 0)
(11.039 -0.0791741 0)
(11.2179 -0.0624132 0)
(11.5043 -0.0334377 0)
(11.5243 -0.0576045 0)
(11.7145 -0.0369075 0)
(11.7005 -0.0522168 0)
(11.8875 -0.0262914 0)
(11.8713 -0.0424378 0)
(12.0568 -0.019083 0)
(12.0338 -0.0396808 0)
(12.2143 -0.0193988 0)
(12.1812 -0.0436527 0)
(12.356 -0.0262563 0)
(12.3112 -0.0533607 0)
(12.4736 -0.039045 0)
(12.3903 -0.0659104 0)
(12.4428 -0.0486843 0)
(9.97508 -0.123054 0)
(10.2916 -0.23806 0)
(10.644 -0.216624 0)
(11.0668 -0.141446 0)
(11.2868 -0.0934654 0)
(11.5221 -0.0683918 0)
(11.5852 -0.0850175 0)
(11.7337 -0.0724662 0)
(11.7644 -0.0749558 0)
(11.9085 -0.0555838 0)
(11.9355 -0.0589254 0)
(12.0771 -0.0436679 0)
(12.0978 -0.0528545 0)
(12.2335 -0.0429137 0)
(12.2453 -0.0573177 0)
(12.3737 -0.052021 0)
(12.3756 -0.0709009 0)
(12.4896 -0.0697598 0)
(12.4573 -0.0877962 0)
(12.4607 -0.0688727 0)
(10.012 -0.182491 0)
(10.3005 -0.342568 0)
(10.7465 -0.298647 0)
(11.1159 -0.196948 0)
(11.384 -0.127313 0)
(11.5584 -0.107092 0)
(11.6705 -0.113773 0)
(11.7738 -0.108032 0)
(11.8524 -0.0974933 0)
(11.952 -0.0857298 0)
(12.0222 -0.0753275 0)
(12.1205 -0.0699578 0)
(12.1813 -0.0655102 0)
(12.2748 -0.0682138 0)
(12.3243 -0.0691357 0)
(12.4114 -0.0788306 0)
(12.4478 -0.0855288 0)
(12.5215 -0.102286 0)
(12.5227 -0.109108 0)
(12.4929 -0.100394 0)
(10.0545 -0.25774 0)
(10.3174 -0.447269 0)
(10.8906 -0.382228 0)
(11.181 -0.243034 0)
(11.5207 -0.166103 0)
(11.6059 -0.146646 0)
(11.7952 -0.145673 0)
(11.8219 -0.139581 0)
(11.9735 -0.122305 0)
(11.9935 -0.112375 0)
(12.1276 -0.0942265 0)
(12.1447 -0.0938119 0)
(12.2604 -0.0803682 0)
(12.272 -0.0911364 0)
(12.3658 -0.0808508 0)
(12.3703 -0.102139 0)
(12.4366 -0.096115 0)
(12.428 -0.130521 0)
(12.4431 -0.125287 0)
(12.3453 -0.140189 0)
(10.05 -0.351541 0)
(10.3933 -0.559887 0)
(11.0451 -0.464458 0)
(11.2973 -0.289981 0)
(11.6538 -0.213098 0)
(11.6643 -0.188103 0)
(11.8774 -0.181187 0)
(11.8106 -0.166428 0)
(11.979 -0.147587 0)
(11.8801 -0.130962 0)
(12.0261 -0.112667 0)
(11.9076 -0.107266 0)
(12.0343 -0.0934037 0)
(11.8999 -0.100483 0)
(12.0031 -0.0879452 0)
(11.8556 -0.10811 0)
(11.9252 -0.097148 0)
(11.7632 -0.137123 0)
(11.7663 -0.125765 0)
(11.5408 -0.163239 0)
(10.0033 -0.459771 0)
(10.5601 -0.700337 0)
(11.1671 -0.546399 0)
(11.3676 -0.350309 0)
(11.5567 -0.263873 0)
(11.4486 -0.225101 0)
(11.4929 -0.201013 0)
(11.2852 -0.173979 0)
(11.3021 -0.147785 0)
(11.0604 -0.124895 0)
(11.0904 -0.104652 0)
(10.8386 -0.0946268 0)
(10.8889 -0.0808148 0)
(10.6292 -0.0834011 0)
(10.6918 -0.0711782 0)
(10.4212 -0.0878948 0)
(10.4781 -0.0747513 0)
(10.1893 -0.116118 0)
(10.1946 -0.0961569 0)
(9.85871 -0.161331 0)
(10.0592 -0.633031 0)
(10.6552 -0.859061 0)
(10.8657 -0.600865 0)
(10.6906 -0.372033 0)
(10.4575 -0.256929 0)
(10.0823 -0.194756 0)
(9.84246 -0.153564 0)
(9.48852 -0.120805 0)
(9.32956 -0.0943765 0)
(9.02455 -0.0748829 0)
(8.9525 -0.0594387 0)
(8.68361 -0.0524568 0)
(8.67517 -0.0444556 0)
(8.41691 -0.0461282 0)
(8.44516 -0.0412961 0)
(8.17734 -0.0504973 0)
(8.2159 -0.0485481 0)
(7.91878 -0.070005 0)
(7.92065 -0.0713594 0)
(7.57309 -0.0901441 0)
(10.0808 -0.83804 0)
(9.65647 -0.864989 0)
(8.87411 -0.506209 0)
(8.08945 -0.261145 0)
(7.49868 -0.138683 0)
(7.01223 -0.0814633 0)
(6.70697 -0.0540029 0)
(6.40405 -0.0398303 0)
(6.24512 -0.0297771 0)
(6.0269 -0.0239895 0)
(5.95639 -0.0187864 0)
(5.77583 -0.018247 0)
(5.7562 -0.0155385 0)
(5.58124 -0.018588 0)
(5.58611 -0.0164779 0)
(5.39762 -0.0229753 0)
(5.40659 -0.0221323 0)
(5.18389 -0.0328599 0)
(5.1722 -0.0386061 0)
(4.87619 -0.0200429 0)
(8.09142 -0.387692 0)
(5.45446 -0.242065 0)
(3.92045 -0.0432398 0)
(3.16786 0.0152822 0)
(2.81025 0.0180197 0)
(2.60771 0.0111501 0)
(2.49538 0.0055991 0)
(2.39082 0.00229445 0)
(2.33428 0.00145045 0)
(2.2607 0.000445466 0)
(2.23493 0.000679866 0)
(2.17426 -0.000238542 0)
(2.16326 0.000167247 0)
(2.10047 -0.00107954 0)
(2.09347 -0.000341598 0)
(2.02065 -0.00225952 0)
(2.00828 -0.00113727 0)
(1.91671 -0.00384539 0)
(1.8785 -0.00430607 0)
(1.72633 0.0112951 0)
(2.28171 -0.113395 0)
(2.32426 -0.0242584 0)
(2.56724 -0.00675529 0)
(2.62256 -0.010768 0)
(2.8604 -0.0293451 0)
(2.8836 -0.0338951 0)
(3.099 -0.0430784 0)
(3.08895 -0.0380443 0)
(3.27997 -0.0448167 0)
(3.24494 -0.0427946 0)
(3.42599 -0.0516283 0)
(3.37493 -0.0503617 0)
(3.55657 -0.0608227 0)
(3.49858 -0.0596748 0)
(3.68442 -0.0699734 0)
(3.62303 -0.0682987 0)
(3.81664 -0.0784409 0)
(3.75384 -0.0762871 0)
(3.95999 -0.0863689 0)
(3.897 -0.0827446 0)
(4.11084 -0.0953202 0)
(4.04227 -0.0950168 0)
(4.25948 -0.110564 0)
(4.18287 -0.11173 0)
(4.40171 -0.129305 0)
(4.31629 -0.131533 0)
(4.5361 -0.149242 0)
(4.44273 -0.14889 0)
(4.66495 -0.163794 0)
(4.56952 -0.160598 0)
(4.79756 -0.17581 0)
(4.70632 -0.173702 0)
(4.9415 -0.191632 0)
(4.85277 -0.190806 0)
(5.09068 -0.209451 0)
(4.99848 -0.207545 0)
(5.23976 -0.225754 0)
(5.1417 -0.222161 0)
(5.39034 -0.240545 0)
(5.28507 -0.237715 0)
(5.54428 -0.258221 0)
(5.42868 -0.258771 0)
(5.6981 -0.284251 0)
(5.56957 -0.288629 0)
(5.84327 -0.317657 0)
(5.70023 -0.322335 0)
(5.97501 -0.352417 0)
(5.82221 -0.353183 0)
(6.09732 -0.382212 0)
(5.94025 -0.378478 0)
(6.21879 -0.40548 0)
(6.05854 -0.397284 0)
(6.34694 -0.422326 0)
(6.18135 -0.411943 0)
(6.4864 -0.437007 0)
(6.30982 -0.425734 0)
(6.63554 -0.452928 0)
(6.44525 -0.442652 0)
(6.78946 -0.471937 0)
(6.58264 -0.462572 0)
(6.94344 -0.495859 0)
(6.72636 -0.489334 0)
(7.0998 -0.529497 0)
(6.88106 -0.527731 0)
(7.25639 -0.576066 0)
(7.0381 -0.577764 0)
(7.40297 -0.630131 0)
(7.17878 -0.632126 0)
(7.53026 -0.682403 0)
(7.29486 -0.680729 0)
(7.64093 -0.729749 0)
(7.3933 -0.721632 0)
(7.73953 -0.766258 0)
(7.4798 -0.751759 0)
(7.8399 -0.793743 0)
(7.57084 -0.773398 0)
(7.95085 -0.813402 0)
(7.68052 -0.788542 0)
(8.07924 -0.831168 0)
(7.80869 -0.802631 0)
(8.22388 -0.847261 0)
(7.9494 -0.81559 0)
(8.37722 -0.858765 0)
(8.09272 -0.826724 0)
(8.52807 -0.871258 0)
(8.23892 -0.839854 0)
(8.66476 -0.89046 0)
(8.38538 -0.86093 0)
(8.78818 -0.915619 0)
(8.51864 -0.884307 0)
(8.89542 -0.937322 0)
(8.6358 -0.904931 0)
(8.98963 -0.957095 0)
(8.73368 -0.922513 0)
(9.06937 -0.972379 0)
(8.81562 -0.932144 0)
(9.13817 -0.981136 0)
(8.88338 -0.937947 0)
(9.19855 -0.986287 0)
(8.95085 -0.941879 0)
(9.26531 -0.995399 0)
(9.02383 -0.950915 0)
(9.34361 -1.01021 0)
(9.09962 -0.961098 0)
(9.42063 -1.01866 0)
(9.16593 -0.958973 0)
(9.48045 -1.01944 0)
(9.21236 -0.953584 0)
(9.51425 -1.01678 0)
(9.23747 -0.943841 0)
(9.52861 -1.0095 0)
(9.24506 -0.934631 0)
(9.52225 -0.999896 0)
(9.23133 -0.919676 0)
(9.50031 -0.98574 0)
(9.21643 -0.899066 0)
(9.48137 -0.962628 0)
(9.21317 -0.872256 0)
(9.46741 -0.935281 0)
(9.21087 -0.843408 0)
(9.45435 -0.906031 0)
(9.21369 -0.814045 0)
(9.451 -0.881366 0)
(9.22018 -0.785936 0)
(9.44892 -0.856192 0)
(9.2143 -0.759594 0)
(9.4476 -0.827023 0)
(9.20368 -0.726378 0)
(9.44563 -0.78563 0)
(9.19862 -0.681235 0)
(9.43883 -0.733181 0)
(9.20201 -0.628175 0)
(9.42474 -0.678415 0)
(9.20238 -0.575646 0)
(9.40378 -0.627881 0)
(9.19525 -0.525979 0)
(9.37776 -0.57197 0)
(9.18184 -0.465265 0)
(9.35493 -0.506938 0)
(9.1723 -0.404302 0)
(9.33327 -0.448933 0)
(9.16133 -0.348135 0)
(9.30481 -0.387293 0)
(9.15213 -0.292346 0)
(9.27676 -0.329286 0)
(9.14005 -0.237339 0)
(9.23216 -0.259796 0)
(9.1135 -0.171794 0)
(9.17809 -0.189012 0)
(9.08039 -0.100436 0)
(9.11556 -0.11594 0)
(9.03387 -0.0182924 0)
(9.0536 -0.02472 0)
(8.98515 0.0747525 0)
(8.99903 0.0633675 0)
(8.94648 0.169333 0)
(8.95217 0.163675 0)
(8.89106 0.27105 0)
(8.91332 0.261531 0)
(8.84377 0.376297 0)
(8.87762 0.347955 0)
(8.78687 0.476488 0)
(8.84785 0.438832 0)
(8.71726 0.569578 0)
(8.8063 0.528391 0)
(8.6367 0.66631 0)
(8.76502 0.615164 0)
(8.55573 0.761314 0)
(8.71799 0.704526 0)
(8.46651 0.865649 0)
(8.65924 0.781322 0)
(8.35933 0.962332 0)
(8.60297 0.868537 0)
(8.21315 1.07326 0)
(8.53325 0.957721 0)
(8.06204 1.21181 0)
(8.4542 1.06035 0)
(7.90557 1.35638 0)
(8.38267 1.16534 0)
(7.76904 1.51047 0)
(8.30048 1.28476 0)
(7.6464 1.67268 0)
(8.21249 1.42647 0)
(7.52251 1.84225 0)
(8.0975 1.58587 0)
(7.3945 2.02253 0)
(7.93819 1.77381 0)
(7.24738 2.22194 0)
(7.74892 2.00531 0)
(7.06279 2.45093 0)
(7.53102 2.28226 0)
(6.81572 2.73306 0)
(7.25451 2.6401 0)
(6.50747 3.13972 0)
(6.85187 3.11378 0)
(6.13634 3.81268 0)
(6.34234 3.84543 0)
(5.45503 4.95497 0)
(6.43059 5.48478 0)
(4.10591 8.46195 0)
(5.34856 -0.0760334 0)
(5.25885 -0.0413389 0)
(5.3928 -0.043552 0)
(5.32436 -0.0584782 0)
(5.51718 -0.0865291 0)
(5.46516 -0.095429 0)
(5.66556 -0.105226 0)
(5.58956 -0.0971976 0)
(5.77522 -0.0991504 0)
(5.67272 -0.0914999 0)
(5.85522 -0.0986436 0)
(5.7404 -0.0958651 0)
(5.93237 -0.10733 0)
(5.81371 -0.106156 0)
(6.01851 -0.118304 0)
(5.89684 -0.116581 0)
(6.11362 -0.12868 0)
(5.9876 -0.125977 0)
(6.21471 -0.13849 0)
(6.08392 -0.135397 0)
(6.31966 -0.149106 0)
(6.18247 -0.147507 0)
(6.42406 -0.163304 0)
(6.27839 -0.162739 0)
(6.52501 -0.180237 0)
(6.3708 -0.180107 0)
(6.62289 -0.198006 0)
(6.46122 -0.196514 0)
(6.71915 -0.213954 0)
(6.55169 -0.21117 0)
(6.81736 -0.229163 0)
(6.6458 -0.226548 0)
(6.92075 -0.24648 0)
(6.74384 -0.244387 0)
(7.0271 -0.265044 0)
(6.84151 -0.261521 0)
(7.13273 -0.281595 0)
(6.93734 -0.276424 0)
(7.23702 -0.296835 0)
(7.03256 -0.291836 0)
(7.34091 -0.314977 0)
(7.12961 -0.311512 0)
(7.44432 -0.338956 0)
(7.22773 -0.337468 0)
(7.54609 -0.368396 0)
(7.32332 -0.366742 0)
(7.64352 -0.398936 0)
(7.41322 -0.395524 0)
(7.73677 -0.427005 0)
(7.4968 -0.420901 0)
(7.82838 -0.450681 0)
(7.57529 -0.441309 0)
(7.92009 -0.469898 0)
(7.65222 -0.458047 0)
(8.01417 -0.487065 0)
(7.73173 -0.473575 0)
(8.11139 -0.504546 0)
(7.81799 -0.491821 0)
(8.21344 -0.526277 0)
(7.91229 -0.515007 0)
(8.31921 -0.55389 0)
(8.01406 -0.544626 0)
(8.42697 -0.589237 0)
(8.12028 -0.582933 0)
(8.53328 -0.633302 0)
(8.22611 -0.628401 0)
(8.63324 -0.680808 0)
(8.32386 -0.675703 0)
(8.72614 -0.728927 0)
(8.41191 -0.721899 0)
(8.81282 -0.772295 0)
(8.49047 -0.758896 0)
(8.89554 -0.806768 0)
(8.56577 -0.78799 0)
(8.97835 -0.836369 0)
(8.64521 -0.811522 0)
(9.06413 -0.860973 0)
(8.73199 -0.831345 0)
(9.15584 -0.882123 0)
(8.82464 -0.85016 0)
(9.255 -0.900795 0)
(8.92114 -0.863904 0)
(9.3554 -0.914705 0)
(9.02062 -0.874341 0)
(9.44844 -0.926486 0)
(9.12019 -0.886399 0)
(9.53545 -0.943514 0)
(9.21954 -0.90414 0)
(9.61213 -0.961857 0)
(9.30586 -0.921228 0)
(9.67977 -0.97897 0)
(9.38184 -0.936411 0)
(9.73615 -0.993415 0)
(9.4399 -0.947472 0)
(9.7762 -1.00208 0)
(9.48139 -0.95157 0)
(9.80702 -1.00561 0)
(9.51283 -0.953192 0)
(9.83519 -1.00997 0)
(9.54641 -0.960282 0)
(9.87177 -1.02418 0)
(9.58427 -0.97251 0)
(9.9107 -1.04061 0)
(9.61451 -0.979514 0)
(9.93909 -1.0419 0)
(9.63313 -0.971116 0)
(9.94939 -1.03353 0)
(9.63696 -0.95671 0)
(9.94065 -1.02411 0)
(9.62396 -0.942356 0)
(9.91765 -1.01103 0)
(9.59421 -0.921183 0)
(9.87528 -0.992414 0)
(9.55147 -0.900955 0)
(9.82768 -0.977138 0)
(9.51622 -0.883592 0)
(9.78515 -0.959875 0)
(9.48686 -0.860294 0)
(9.7507 -0.933486 0)
(9.45824 -0.833286 0)
(9.72426 -0.906808 0)
(9.43449 -0.806569 0)
(9.704 -0.882325 0)
(9.41064 -0.774777 0)
(9.68187 -0.853113 0)
(9.37939 -0.743595 0)
(9.65578 -0.824252 0)
(9.3468 -0.711445 0)
(9.62536 -0.783732 0)
(9.31872 -0.667566 0)
(9.59493 -0.735496 0)
(9.29515 -0.616104 0)
(9.56466 -0.677798 0)
(9.27078 -0.561839 0)
(9.53055 -0.622512 0)
(9.23241 -0.508097 0)
(9.49058 -0.565966 0)
(9.19551 -0.453419 0)
(9.45648 -0.505317 0)
(9.17125 -0.395346 0)
(9.42543 -0.446417 0)
(9.14613 -0.336882 0)
(9.39128 -0.388132 0)
(9.11809 -0.276871 0)
(9.35744 -0.325586 0)
(9.07965 -0.212578 0)
(9.31487 -0.25166 0)
(9.04012 -0.145624 0)
(9.26813 -0.179391 0)
(9.00786 -0.0718175 0)
(9.20998 -0.0984178 0)
(8.96547 0.0104512 0)
(9.14607 -0.0144723 0)
(8.92325 0.10005 0)
(9.09461 0.0713685 0)
(8.87827 0.19495 0)
(9.05254 0.169135 0)
(8.82814 0.298215 0)
(9.02489 0.259034 0)
(8.78803 0.40877 0)
(9.00426 0.344503 0)
(8.7336 0.51057 0)
(8.98857 0.435769 0)
(8.68654 0.612046 0)
(8.96461 0.520773 0)
(8.64291 0.713707 0)
(8.93844 0.599288 0)
(8.5925 0.821046 0)
(8.89237 0.683198 0)
(8.52713 0.936798 0)
(8.85695 0.759645 0)
(8.43307 1.0498 0)
(8.81272 0.853386 0)
(8.317 1.17838 0)
(8.74633 0.941083 0)
(8.18051 1.31042 0)
(8.69827 1.0331 0)
(8.04526 1.44945 0)
(8.66601 1.13351 0)
(7.91666 1.60157 0)
(8.63563 1.2631 0)
(7.80644 1.76531 0)
(8.58563 1.41642 0)
(7.70853 1.93816 0)
(8.50356 1.58495 0)
(7.60698 2.11829 0)
(8.40432 1.78378 0)
(7.47588 2.32173 0)
(8.28283 2.01816 0)
(7.33429 2.58549 0)
(8.11838 2.30312 0)
(7.19388 2.93221 0)
(7.88569 2.65347 0)
(7.0332 3.41881 0)
(7.62167 3.14181 0)
(6.74392 4.11621 0)
(7.61247 3.94462 0)
(6.08279 5.36967 0)
(8.52661 4.79458 0)
(6.53888 8.93704 0)
(8.03962 -0.0861785 0)
(7.90241 -0.0636576 0)
(8.04855 -0.0758606 0)
(7.9285 -0.0882583 0)
(8.1306 -0.113483 0)
(8.02844 -0.117041 0)
(8.23812 -0.125841 0)
(8.10839 -0.114769 0)
(8.30213 -0.117416 0)
(8.14426 -0.107174 0)
(8.33699 -0.116028 0)
(8.169 -0.112205 0)
(8.37432 -0.12719 0)
(8.20406 -0.126389 0)
(8.42433 -0.143172 0)
(8.25184 -0.141619 0)
(8.48465 -0.157723 0)
(8.30736 -0.15426 0)
(8.54914 -0.169703 0)
(8.36512 -0.165313 0)
(8.61399 -0.181479 0)
(8.42277 -0.177649 0)
(8.67786 -0.195423 0)
(8.47904 -0.192288 0)
(8.74023 -0.211479 0)
(8.53395 -0.208559 0)
(8.80158 -0.228394 0)
(8.58782 -0.224788 0)
(8.86208 -0.244727 0)
(8.63979 -0.240347 0)
(8.92124 -0.260914 0)
(8.68973 -0.256627 0)
(8.97943 -0.278687 0)
(8.73765 -0.274574 0)
(9.03599 -0.297558 0)
(8.78323 -0.292285 0)
(9.09062 -0.315314 0)
(8.82853 -0.308173 0)
(9.14453 -0.331962 0)
(8.87612 -0.323847 0)
(9.19929 -0.350254 0)
(8.92828 -0.342968 0)
(9.25661 -0.37303 0)
(8.98383 -0.367291 0)
(9.31563 -0.400289 0)
(9.03926 -0.395057 0)
(9.37386 -0.429012 0)
(9.09001 -0.422352 0)
(9.42883 -0.455653 0)
(9.13383 -0.446239 0)
(9.48008 -0.478411 0)
(9.17228 -0.465828 0)
(9.52859 -0.497572 0)
(9.20831 -0.482455 0)
(9.5758 -0.515628 0)
(9.24676 -0.499337 0)
(9.62409 -0.535773 0)
(9.29208 -0.520064 0)
(9.6765 -0.561131 0)
(9.34563 -0.546225 0)
(9.73147 -0.59076 0)
(9.40328 -0.577001 0)
(9.78647 -0.624818 0)
(9.45929 -0.613368 0)
(9.83923 -0.664609 0)
(9.50987 -0.654811 0)
(9.8884 -0.709134 0)
(9.55679 -0.700193 0)
(9.93785 -0.756998 0)
(9.60159 -0.745509 0)
(9.98392 -0.800594 0)
(9.64316 -0.783047 0)
(10.029 -0.835186 0)
(9.68406 -0.8134 0)
(10.0739 -0.865509 0)
(9.72528 -0.839134 0)
(10.1173 -0.891498 0)
(9.7679 -0.860227 0)
(10.1612 -0.913807 0)
(9.81516 -0.879635 0)
(10.2061 -0.932556 0)
(9.86407 -0.893213 0)
(10.2512 -0.946757 0)
(9.91653 -0.902065 0)
(10.2936 -0.957025 0)
(9.97071 -0.912545 0)
(10.3335 -0.969341 0)
(10.017 -0.923566 0)
(10.3632 -0.982146 0)
(10.0543 -0.937896 0)
(10.3879 -0.996884 0)
(10.0828 -0.948876 0)
(10.3987 -1.00649 0)
(10.0946 -0.953199 0)
(10.3937 -1.00883 0)
(10.0931 -0.95269 0)
(10.3754 -1.00998 0)
(10.0846 -0.954429 0)
(10.3631 -1.0186 0)
(10.0832 -0.964886 0)
(10.3563 -1.03551 0)
(10.0808 -0.976841 0)
(10.3407 -1.04885 0)
(10.063 -0.977504 0)
(10.3116 -1.0433 0)
(10.0346 -0.96393 0)
(10.2711 -1.03014 0)
(9.99862 -0.944202 0)
(10.2226 -1.01278 0)
(9.94931 -0.920753 0)
(10.1568 -0.991588 0)
(9.88532 -0.892745 0)
(10.0814 -0.969361 0)
(9.82757 -0.87411 0)
(10.0142 -0.956693 0)
(9.77384 -0.857255 0)
(9.94375 -0.940478 0)
(9.71363 -0.834933 0)
(9.88062 -0.920132 0)
(9.66096 -0.810059 0)
(9.83224 -0.898254 0)
(9.61672 -0.782754 0)
(9.78774 -0.872197 0)
(9.57204 -0.750776 0)
(9.7429 -0.841444 0)
(9.52749 -0.717916 0)
(9.6916 -0.811457 0)
(9.47581 -0.684586 0)
(9.63132 -0.77291 0)
(9.42263 -0.639939 0)
(9.5721 -0.724246 0)
(9.36531 -0.586747 0)
(9.52498 -0.669536 0)
(9.3116 -0.531696 0)
(9.47747 -0.608884 0)
(9.25017 -0.474137 0)
(9.42443 -0.555189 0)
(9.19693 -0.425666 0)
(9.37631 -0.499868 0)
(9.15065 -0.369231 0)
(9.33331 -0.443703 0)
(9.11187 -0.307906 0)
(9.28083 -0.383391 0)
(9.06891 -0.245245 0)
(9.23388 -0.319304 0)
(9.02401 -0.176862 0)
(9.19386 -0.244142 0)
(8.98004 -0.105002 0)
(9.15545 -0.173279 0)
(8.94002 -0.0293697 0)
(9.10625 -0.0954104 0)
(8.91672 0.0587862 0)
(9.05487 -0.0201921 0)
(8.88172 0.144202 0)
(9.01365 0.0644825 0)
(8.83231 0.245717 0)
(8.9758 0.153104 0)
(8.79039 0.347808 0)
(8.94566 0.237895 0)
(8.74767 0.456392 0)
(8.92807 0.33399 0)
(8.70551 0.557736 0)
(8.91778 0.417857 0)
(8.68352 0.657688 0)
(8.90872 0.496257 0)
(8.65795 0.759487 0)
(8.89254 0.576645 0)
(8.62709 0.879043 0)
(8.87308 0.66629 0)
(8.57022 0.993951 0)
(8.87516 0.746056 0)
(8.48046 1.12107 0)
(8.86581 0.84446 0)
(8.36334 1.2665 0)
(8.86918 0.943823 0)
(8.2274 1.40287 0)
(8.87939 1.02838 0)
(8.10415 1.53663 0)
(8.87978 1.12148 0)
(7.99317 1.67925 0)
(8.86448 1.23699 0)
(7.91018 1.84559 0)
(8.83165 1.38427 0)
(7.83438 2.03116 0)
(8.78787 1.55473 0)
(7.74681 2.2338 0)
(8.72744 1.74718 0)
(7.66913 2.47404 0)
(8.62167 1.96353 0)
(7.61293 2.75654 0)
(8.49456 2.2362 0)
(7.55529 3.12127 0)
(8.40761 2.59925 0)
(7.4277 3.60163 0)
(8.51559 3.09998 0)
(7.11693 4.34983 0)
(9.05249 3.61816 0)
(6.8204 5.9076 0)
(9.78396 3.69506 0)
(8.18974 8.21247 0)
(10.2948 -0.099471 0)
(10.1328 -0.137016 0)
(10.2916 -0.172095 0)
(10.1433 -0.168966 0)
(10.351 -0.174014 0)
(10.2173 -0.153606 0)
(10.4278 -0.15137 0)
(10.2658 -0.130197 0)
(10.461 -0.133096 0)
(10.2744 -0.118406 0)
(10.4693 -0.12997 0)
(10.2744 -0.122809 0)
(10.4803 -0.141623 0)
(10.284 -0.138253 0)
(10.5029 -0.159543 0)
(10.3049 -0.155532 0)
(10.5342 -0.176028 0)
(10.3316 -0.16962 0)
(10.5686 -0.188933 0)
(10.3599 -0.180897 0)
(10.6032 -0.20037 0)
(10.3878 -0.192215 0)
(10.6369 -0.213103 0)
(10.4143 -0.205498 0)
(10.6687 -0.227943 0)
(10.4391 -0.220563 0)
(10.6985 -0.243967 0)
(10.4618 -0.235965 0)
(10.7258 -0.259783 0)
(10.4819 -0.25093 0)
(10.7501 -0.275272 0)
(10.4987 -0.265962 0)
(10.771 -0.291305 0)
(10.5122 -0.281966 0)
(10.7886 -0.308417 0)
(10.5227 -0.298503 0)
(10.8038 -0.325821 0)
(10.5322 -0.315131 0)
(10.8187 -0.343804 0)
(10.5432 -0.332838 0)
(10.8354 -0.363656 0)
(10.5567 -0.35383 0)
(10.8547 -0.387551 0)
(10.5721 -0.379072 0)
(10.875 -0.415139 0)
(10.5866 -0.406611 0)
(10.8938 -0.44356 0)
(10.598 -0.432873 0)
(10.9095 -0.469249 0)
(10.6061 -0.454883 0)
(10.922 -0.490259 0)
(10.6124 -0.472446 0)
(10.9321 -0.507494 0)
(10.6188 -0.487622 0)
(10.9414 -0.524387 0)
(10.6285 -0.504671 0)
(10.9528 -0.545139 0)
(10.6423 -0.526338 0)
(10.9658 -0.570776 0)
(10.657 -0.552569 0)
(10.977 -0.600118 0)
(10.6688 -0.582842 0)
(10.9846 -0.63354 0)
(10.6764 -0.617523 0)
(10.988 -0.671299 0)
(10.6796 -0.657919 0)
(10.99 -0.716419 0)
(10.6817 -0.705659 0)
(10.9932 -0.764825 0)
(10.6815 -0.750873 0)
(10.9944 -0.808459 0)
(10.677 -0.788938 0)
(10.9928 -0.84323 0)
(10.6731 -0.819772 0)
(10.9892 -0.872333 0)
(10.6661 -0.845075 0)
(10.9819 -0.896959 0)
(10.6605 -0.866848 0)
(10.9757 -0.920398 0)
(10.6617 -0.886575 0)
(10.9715 -0.938857 0)
(10.6671 -0.902065 0)
(10.9691 -0.952908 0)
(10.6738 -0.910964 0)
(10.968 -0.963265 0)
(10.68 -0.918815 0)
(10.9616 -0.970178 0)
(10.6768 -0.927366 0)
(10.9523 -0.983077 0)
(10.6733 -0.940092 0)
(10.9363 -0.994153 0)
(10.6566 -0.943697 0)
(10.9035 -0.996118 0)
(10.6248 -0.940431 0)
(10.8586 -0.993263 0)
(10.5834 -0.934733 0)
(10.8035 -0.994768 0)
(10.5418 -0.941191 0)
(10.756 -1.00901 0)
(10.502 -0.952657 0)
(10.7055 -1.02316 0)
(10.4546 -0.960074 0)
(10.6427 -1.03184 0)
(10.3965 -0.956855 0)
(10.5751 -1.02435 0)
(10.3328 -0.941676 0)
(10.5005 -1.00914 0)
(10.2613 -0.9173 0)
(10.4158 -0.985514 0)
(10.1778 -0.886925 0)
(10.3129 -0.955693 0)
(10.0847 -0.857894 0)
(10.216 -0.93997 0)
(10.0084 -0.845323 0)
(10.1249 -0.926744 0)
(9.92571 -0.823906 0)
(10.0268 -0.907345 0)
(9.83471 -0.801121 0)
(9.9298 -0.893747 0)
(9.75468 -0.779012 0)
(9.84997 -0.87721 0)
(9.68419 -0.753583 0)
(9.78316 -0.850661 0)
(9.61658 -0.726514 0)
(9.72192 -0.821052 0)
(9.55129 -0.695626 0)
(9.6516 -0.787328 0)
(9.47914 -0.655943 0)
(9.57185 -0.744724 0)
(9.40095 -0.609807 0)
(9.49095 -0.697116 0)
(9.32241 -0.559425 0)
(9.4195 -0.646369 0)
(9.24906 -0.502558 0)
(9.35302 -0.585998 0)
(9.17295 -0.445667 0)
(9.28774 -0.535082 0)
(9.09999 -0.399092 0)
(9.22213 -0.484568 0)
(9.03417 -0.344245 0)
(9.16759 -0.43016 0)
(8.97005 -0.277542 0)
(9.10913 -0.366608 0)
(8.91075 -0.214607 0)
(9.06375 -0.309458 0)
(8.8606 -0.145332 0)
(9.0261 -0.238946 0)
(8.81374 -0.0745611 0)
(8.99717 -0.17274 0)
(8.77373 0.00012482 0)
(8.96845 -0.105106 0)
(8.7426 0.0878464 0)
(8.95507 -0.023497 0)
(8.69032 0.177771 0)
(8.93719 0.0638176 0)
(8.64478 0.284748 0)
(8.90343 0.149781 0)
(8.60824 0.393545 0)
(8.87711 0.237696 0)
(8.55729 0.485268 0)
(8.86582 0.316417 0)
(8.53412 0.584802 0)
(8.87378 0.389266 0)
(8.50262 0.683667 0)
(8.91113 0.473897 0)
(8.45722 0.789797 0)
(8.93368 0.552432 0)
(8.40711 0.919072 0)
(8.965 0.640975 0)
(8.35693 1.0432 0)
(8.9957 0.721541 0)
(8.28429 1.18803 0)
(9.02387 0.812876 0)
(8.18794 1.33141 0)
(9.06116 0.897206 0)
(8.11259 1.46237 0)
(9.07296 0.985763 0)
(8.05893 1.59884 0)
(9.05395 1.08595 0)
(8.01801 1.74893 0)
(9.02195 1.19815 0)
(7.9834 1.92789 0)
(8.99735 1.33449 0)
(7.95773 2.12441 0)
(8.98133 1.49408 0)
(7.9408 2.34233 0)
(8.95032 1.67214 0)
(7.93297 2.58887 0)
(8.93713 1.89858 0)
(7.89196 2.88352 0)
(8.9762 2.16797 0)
(7.80741 3.26306 0)
(9.14439 2.48919 0)
(7.64182 3.79934 0)
(9.53595 2.79278 0)
(7.48089 4.71622 0)
(10.1362 2.91856 0)
(7.80343 6.14548 0)
(10.3922 3.12887 0)
(9.18983 7.20521 0)
(11.7899 -0.0854948 0)
(11.6602 -0.158828 0)
(11.837 -0.21562 0)
(11.7295 -0.20648 0)
(11.9123 -0.204581 0)
(11.7904 -0.167121 0)
(11.96 -0.160466 0)
(11.8094 -0.130852 0)
(11.9654 -0.13773 0)
(11.7967 -0.119723 0)
(11.9522 -0.137618 0)
(11.7781 -0.1273 0)
(11.9423 -0.151687 0)
(11.7692 -0.144227 0)
(11.9444 -0.170433 0)
(11.7716 -0.162017 0)
(11.9554 -0.187356 0)
(11.7799 -0.176487 0)
(11.9697 -0.200557 0)
(11.7895 -0.187883 0)
(11.9836 -0.21191 0)
(11.7973 -0.19881 0)
(11.9949 -0.224058 0)
(11.802 -0.211256 0)
(12.0028 -0.237993 0)
(11.8033 -0.22525 0)
(12.0073 -0.253039 0)
(11.8017 -0.239577 0)
(12.0092 -0.267963 0)
(11.7984 -0.25338 0)
(12.0091 -0.282182 0)
(11.7941 -0.266678 0)
(12.0074 -0.296355 0)
(11.7891 -0.280432 0)
(12.004 -0.311323 0)
(11.7832 -0.295139 0)
(11.9992 -0.327519 0)
(11.7767 -0.311361 0)
(11.9938 -0.345503 0)
(11.7698 -0.329909 0)
(11.9884 -0.36626 0)
(11.7621 -0.351898 0)
(11.9826 -0.39059 0)
(11.753 -0.377236 0)
(11.9756 -0.417761 0)
(11.7415 -0.404039 0)
(11.9659 -0.445202 0)
(11.7271 -0.429386 0)
(11.9529 -0.469982 0)
(11.7103 -0.45076 0)
(11.9362 -0.490339 0)
(11.6924 -0.467933 0)
(11.9172 -0.507526 0)
(11.6763 -0.483864 0)
(11.8992 -0.525475 0)
(11.6635 -0.502088 0)
(11.8824 -0.546299 0)
(11.6503 -0.523378 0)
(11.8639 -0.569869 0)
(11.6329 -0.548357 0)
(11.8426 -0.597493 0)
(11.6098 -0.577272 0)
(11.8183 -0.628794 0)
(11.5807 -0.609489 0)
(11.7913 -0.664799 0)
(11.5496 -0.648922 0)
(11.7646 -0.70916 0)
(11.5162 -0.694588 0)
(11.7319 -0.755531 0)
(11.477 -0.737566 0)
(11.6931 -0.796591 0)
(11.4327 -0.773982 0)
(11.6497 -0.831178 0)
(11.3883 -0.804023 0)
(11.6016 -0.858918 0)
(11.3407 -0.828716 0)
(11.5498 -0.884109 0)
(11.2962 -0.853215 0)
(11.5032 -0.910048 0)
(11.2585 -0.875672 0)
(11.4619 -0.930997 0)
(11.2246 -0.892971 0)
(11.4215 -0.943451 0)
(11.1902 -0.902142 0)
(11.3834 -0.952512 0)
(11.1497 -0.907266 0)
(11.3421 -0.958861 0)
(11.1102 -0.918012 0)
(11.303 -0.973371 0)
(11.0693 -0.925066 0)
(11.2525 -0.976247 0)
(11.0129 -0.921046 0)
(11.1906 -0.973754 0)
(10.9475 -0.913654 0)
(11.1205 -0.969461 0)
(10.8806 -0.907383 0)
(11.0485 -0.974511 0)
(10.8183 -0.914231 0)
(10.9721 -0.987083 0)
(10.749 -0.923326 0)
(10.8895 -0.996813 0)
(10.6728 -0.926486 0)
(10.8002 -1.00163 0)
(10.5897 -0.92172 0)
(10.7053 -0.991241 0)
(10.4985 -0.904262 0)
(10.5999 -0.972099 0)
(10.3967 -0.875698 0)
(10.4795 -0.943279 0)
(10.2828 -0.837929 0)
(10.3472 -0.910063 0)
(10.176 -0.815738 0)
(10.2304 -0.902324 0)
(10.0706 -0.801294 0)
(10.1077 -0.883751 0)
(9.95851 -0.773054 0)
(9.98305 -0.861604 0)
(9.84249 -0.748982 0)
(9.86427 -0.85202 0)
(9.73359 -0.732649 0)
(9.75902 -0.841335 0)
(9.63041 -0.714112 0)
(9.67136 -0.8201 0)
(9.53685 -0.690474 0)
(9.58891 -0.791837 0)
(9.44752 -0.656894 0)
(9.49806 -0.756196 0)
(9.35569 -0.613224 0)
(9.40317 -0.711696 0)
(9.25906 -0.564899 0)
(9.30821 -0.665378 0)
(9.16551 -0.519167 0)
(9.2141 -0.615085 0)
(9.07757 -0.462563 0)
(9.12731 -0.558912 0)
(8.99507 -0.405717 0)
(9.04922 -0.506801 0)
(8.90315 -0.356819 0)
(8.97058 -0.46103 0)
(8.81611 -0.303225 0)
(8.90272 -0.406828 0)
(8.73039 -0.238336 0)
(8.84612 -0.350638 0)
(8.66718 -0.182009 0)