/*--------------------------------*- C++ -*----------------------------------*\
| =========                 |                                                 |
| \\      /  F ield         | OpenFOAM: The Open Source CFD Toolbox           |
|  \\    /   O peration     | Version:  2.4.0                                 |
|   \\  /    A nd           | Web:      www.OpenFOAM.org                      |
|    \\/     M anipulation  |                                                 |
\*---------------------------------------------------------------------------*/
FoamFile
{
    version     2.0;
    format      ascii;
    class       volScalarField;
    location    "1.34";
    object      p;
}
// * * * * * * * * * * * * * * * * * * * * * * * * * * * * * * * * * * * * * //

dimensions      [0 2 -2 0 0 0 0];

internalField   nonuniform List<scalar> 
4400
(
-24.079
-24.4391
-24.4404
-24.321
-24.9909
-24.7579
-24.8375
-25.0913
-24.838
-25.2942
-25.4488
-25.461
-25.7054
-25.7184
-25.8676
-25.2862
-27.2082
-25.141
-24.7822
-23.5272
-24.1139
-24.4617
-24.4535
-24.3206
-24.9962
-24.7588
-24.8215
-25.1407
-24.8664
-25.3048
-25.4478
-25.4628
-25.7265
-25.7333
-25.9782
-25.4184
-27.2124
-25.1963
-24.9078
-24.3095
-24.1377
-24.4656
-24.4667
-24.3218
-24.9762
-24.7705
-24.8221
-25.1582
-24.9083
-25.3296
-25.4639
-25.4547
-25.7517
-25.7656
-26.1984
-25.506
-27.095
-25.3403
-25.1436
-25.1641
-24.1452
-24.4905
-24.4976
-24.2964
-24.9775
-24.8213
-24.8031
-25.2593
-25.0056
-25.3736
-25.444
-25.4086
-25.7255
-25.7872
-26.2279
-25.5792
-26.9014
-25.4994
-25.4732
-25.9163
-24.1561
-24.4882
-24.5093
-24.3068
-24.9959
-24.8463
-24.8326
-25.3747
-25.1351
-25.4543
-25.5003
-25.4695
-25.8233
-25.7026
-26.1957
-25.6566
-26.7917
-25.7318
-25.823
-26.6079
-24.1517
-24.503
-24.5482
-24.3054
-24.991
-24.8763
-24.8593
-25.4405
-25.201
-25.5104
-25.5506
-25.5269
-25.8422
-25.6683
-26.0648
-25.7152
-26.825
-25.8768
-26.0859
-27.3709
-24.1492
-24.5113
-24.5826
-24.31
-24.9688
-24.893
-24.888
-25.4614
-25.1703
-25.5223
-25.6179
-25.5307
-25.8608
-25.6802
-26.0738
-25.7748
-26.8531
-26
-26.2665
-28.1027
-24.1285
-24.5237
-24.6202
-24.2941
-24.9273
-24.9286
-24.8962
-25.4347
-25.1019
-25.4562
-25.653
-25.4907
-25.8374
-25.7233
-26.0263
-25.7901
-26.8111
-26.0995
-26.3343
-28.6166
-24.1107
-24.5331
-24.6412
-24.277
-24.898
-24.9048
-24.8661
-25.3842
-25.0282
-25.4141
-25.6583
-25.4212
-25.814
-25.7338
-25.9831
-25.7939
-26.6615
-26.2042
-26.325
-28.758
-24.0832
-24.5343
-24.6688
-24.261
-24.871
-24.9521
-24.8225
-25.3266
-24.9944
-25.3806
-25.6409
-25.367
-25.8119
-25.7315
-25.924
-25.8178
-26.4958
-26.2724
-26.2954
-28.6632
-24.0564
-24.5374
-24.6915
-24.2426
-24.8495
-24.9807
-24.7772
-25.2862
-24.9776
-25.3465
-25.6314
-25.3319
-25.8001
-25.7238
-25.8649
-25.8642
-26.3585
-26.3397
-26.3072
-28.4793
-24.0258
-24.5357
-24.7198
-24.2299
-24.8242
-25.0067
-24.7478
-25.2615
-24.9691
-25.3326
-25.6306
-25.3002
-25.8139
-25.7297
-25.804
-25.9327
-26.2868
-26.3868
-26.3674
-28.3379
-23.994
-24.564
-24.75
-24.2167
-24.8015
-25.0258
-24.7166
-25.2409
-24.9719
-25.2997
-25.6363
-25.2776
-25.7995
-25.7518
-25.7564
-25.9882
-26.2643
-26.4208
-26.457
-28.2416
-23.963
-24.5527
-24.7758
-24.2087
-24.7796
-25.0425
-24.6959
-25.2225
-24.9709
-25.2752
-25.6388
-25.2498
-25.8042
-25.7575
-25.7091
-26.0611
-26.2617
-26.4128
-26.5717
-28.2183
-23.9296
-24.5601
-24.8037
-24.2
-24.7591
-25.0584
-24.6771
-25.2095
-24.9764
-25.2466
-25.656
-25.2291
-25.801
-25.8518
-25.6584
-26.1173
-26.3185
-26.3957
-26.7124
-28.2415
-23.897
-24.5447
-24.8256
-24.1942
-24.7404
-25.0709
-24.6677
-25.1966
-24.978
-25.2283
-25.6533
-25.2114
-25.8015
-25.8376
-25.6274
-26.1736
-26.2553
-26.3808
-26.8677
-28.2699
-23.8626
-24.5415
-24.8459
-24.1921
-24.7243
-25.0803
-24.6602
-25.1917
-24.9813
-25.2109
-25.7039
-25.1925
-25.7968
-25.8743
-25.5673
-26.227
-26.322
-26.3372
-26.9919
-28.3041
-23.8265
-24.5333
-24.8612
-24.1869
-24.7096
-25.0888
-24.6591
-25.186
-24.9882
-25.2007
-25.705
-25.1926
-25.8007
-25.8805
-25.5616
-26.2866
-26.341
-26.3213
-27.0814
-28.3078
-23.7922
-24.5254
-24.8762
-24.1929
-24.698
-25.0942
-24.6637
-25.1878
-24.9871
-25.193
-25.7131
-25.1516
-25.808
-25.8991
-25.4847
-26.3372
-26.3724
-26.2594
-27.1995
-28.3515
-23.7444
-24.517
-24.8799
-24.1918
-24.6883
-25.0954
-24.6641
-25.1849
-24.9985
-25.189
-25.7038
-25.1757
-25.8086
-25.8971
-25.4772
-26.3347
-26.3701
-26.2513
-27.2228
-28.3546
-22.1643
-26.0264
-31.4037
-47.5047
-61.1539
-67.5322
-60.4887
-49.647
-41.5281
-34.1779
-25.6681
-17.216
-10.1225
-5.19516
-2.27742
-0.588009
0.368426
0.920364
1.243
1.42321
1.51849
1.57246
1.6182
1.66133
1.70164
1.73232
1.75079
1.75674
1.75202
1.74003
1.72407
1.70617
1.68731
1.66796
1.64831
1.62845
1.60842
1.58824
1.56791
1.54744
1.52683
1.50606
1.48516
1.4641
1.4429
1.42155
1.40005
1.37839
1.35659
1.33463
1.31252
1.29025
1.26783
1.24525
1.22251
1.19961
1.17655
1.15333
1.12995
1.1064
1.08269
1.05881
1.03476
1.01055
0.986161
0.961603
0.936873
0.911969
0.88689
0.861634
0.836201
0.810589
0.784796
0.758823
0.732667
0.706327
0.679802
0.653091
0.626192
0.599105
0.571826
0.544357
0.516694
0.488836
0.460785
0.432533
0.404089
0.375438
0.346594
0.317543
0.288289
0.258837
0.229166
0.199301
0.16922
0.138924
0.108428
0.0777073
0.0467724
0.0156282
-22.9979
-26.6392
-31.5021
-46.2276
-59.9186
-66.5881
-59.3648
-48.4393
-40.6566
-33.7194
-25.8785
-17.9443
-10.8136
-5.71106
-2.62699
-0.819263
0.21473
0.810615
1.17077
1.38273
1.49721
1.56286
1.60263
1.65401
1.69783
1.73025
1.74994
1.7567
1.75234
1.74041
1.7244
1.70642
1.68749
1.66809
1.6484
1.62851
1.60846
1.58827
1.56793
1.54745
1.52683
1.50607
1.48516
1.4641
1.4429
1.42155
1.40005
1.37839
1.35659
1.33463
1.31252
1.29025
1.26783
1.24525
1.22251
1.19961
1.17656
1.15333
1.12995
1.1064
1.08269
1.05881
1.03476
1.01055
0.986161
0.961603
0.936873
0.911969
0.88689
0.861634
0.836201
0.810589
0.784796
0.758823
0.732667
0.706327
0.679802
0.653091
0.626192
0.599105
0.571826
0.544357
0.516693
0.488837
0.460784
0.432533
0.404089
0.375437
0.346594
0.317544
0.288288
0.258838
0.229165
0.199302
0.169219
0.138925
0.108428
0.0777079
0.0467717
0.0156284
-24.1301
-26.8193
-31.9011
-45.3109
-58.5165
-65.2096
-57.8299
-47.2024
-39.7482
-33.3369
-26.1629
-18.6818
-11.4933
-6.18381
-2.98089
-1.05907
0.0724083
0.716136
1.1064
1.34149
1.47304
1.54941
1.61359
1.66555
1.70558
1.73419
1.75217
1.7583
1.75356
1.74127
1.72497
1.70679
1.68774
1.66825
1.6485
1.62858
1.60851
1.5883
1.56795
1.54747
1.52684
1.50607
1.48516
1.4641
1.4429
1.42155
1.40005
1.37839
1.35659
1.33463
1.31252
1.29025
1.26783
1.24525
1.22251
1.19961
1.17656
1.15333
1.12995
1.1064
1.08269
1.05881
1.03476
1.01055
0.986161
0.961603
0.936873
0.911969
0.88689
0.861634
0.836201
0.810589
0.784796
0.758823
0.732667
0.706327
0.679802
0.653091
0.626192
0.599105
0.571826
0.544357
0.516693
0.488837
0.460784
0.432533
0.404089
0.375438
0.346594
0.317544
0.288288
0.258838
0.229165
0.199302
0.169219
0.138925
0.108428
0.0777081
0.0467718
0.0156283
-24.96
-27.7568
-32.6735
-44.4137
-56.6409
-62.9013
-55.6288
-45.7956
-38.8363
-32.9268
-26.5118
-19.4555
-12.1783
-6.6394
-3.28827
-1.28482
-0.0665886
0.627478
1.0468
1.30537
1.45535
1.5422
1.58644
1.64654
1.69223
1.72681
1.74888
1.75722
1.75343
1.74143
1.72519
1.70699
1.6879
1.66837
1.64859
1.62864
1.60855
1.58833
1.56797
1.54748
1.52685
1.50608
1.48516
1.46411
1.4429
1.42155
1.40005
1.37839
1.35659
1.33463
1.31252
1.29025
1.26783
1.24525
1.22251
1.19961
1.17656
1.15333
1.12995
1.1064
1.08269
1.05881
1.03476
1.01055
0.986161
0.961603
0.936873
0.911969
0.88689
0.861634
0.836201
0.810589
0.784796
0.758823
0.732667
0.706327
0.679802
0.653091
0.626192
0.599105
0.571826
0.544357
0.516693
0.488837
0.460784
0.432533
0.404089
0.375438
0.346594
0.317544
0.288288
0.258838
0.229165
0.199302
0.169219
0.138925
0.108428
0.0777081
0.0467719
0.0156283
-25.6391
-28.6727
-33.2645
-43.2167
-54.2228
-59.6768
-53.0744
-44.351
-37.979
-32.531
-26.8481
-20.3318
-12.8747
-7.11735
-3.61121
-1.49184
-0.188565
0.554444
0.999833
1.27269
1.43465
1.5325
1.60859
1.67064
1.7118
1.73819
1.75521
1.76101
1.75576
1.74281
1.726
1.70747
1.68818
1.66854
1.6487
1.62871
1.60859
1.58835
1.56799
1.54749
1.52685
1.50608
1.48517
1.46411
1.4429
1.42155
1.40005
1.37839
1.35659
1.33463
1.31252
1.29025
1.26783
1.24525
1.22251
1.19961
1.17656
1.15333
1.12995
1.1064
1.08269
1.05881
1.03476
1.01055
0.986161
0.961603
0.936873
0.911969
0.88689
0.861634
0.836201
0.810589
0.784796
0.758823
0.732667
0.706327
0.679802
0.653091
0.626192
0.599105
0.571826
0.544357
0.516693
0.488837
0.460785
0.432533
0.404089
0.375438
0.346594
0.317544
0.288288
0.258838
0.229165
0.199302
0.169219
0.138925
0.108428
0.0777081
0.046772
0.0156283
-26.2042
-29.3368
-33.2961
-41.7405
-51.5525
-56.3848
-50.5816
-42.9315
-37.1612
-32.233
-27.1705
-21.1665
-13.6355
-7.6071
-3.9593
-1.70775
-0.316074
0.477137
0.953288
1.24602
1.42093
1.52793
1.6036
1.64301
1.68788
1.72412
1.749
1.75888
1.7553
1.74286
1.72618
1.70766
1.68834
1.66866
1.64878
1.62877
1.60863
1.58838
1.568
1.5475
1.52686
1.50609
1.48517
1.46411
1.4429
1.42155
1.40005
1.37839
1.35659
1.33463
1.31252
1.29025
1.26783
1.24525
1.22251
1.19961
1.17656
1.15333
1.12995
1.1064
1.08269
1.05881
1.03476
1.01055
0.986161
0.961603
0.936873
0.911969
0.88689
0.861634
0.836201
0.810588
0.784796
0.758823
0.732667
0.706327
0.679802
0.653091
0.626192
0.599105
0.571826
0.544357
0.516693
0.488837
0.460785
0.432533
0.404089
0.375438
0.346594
0.317544
0.288288
0.258838
0.229165
0.199302
0.16922
0.138925
0.108428
0.0777082
0.0467721
0.0156283
-26.8188
-29.8336
-33.1709
-40.435
-49.1062
-53.3286
-48.3555
-41.554
-36.3256
-31.9715
-27.6257
-21.9222
-14.3236
-8.08575
-4.28809
-1.91028
-0.419161
0.423974
0.917726
1.22149
1.40708
1.52242
1.60601
1.6801
1.71922
1.74298
1.75907
1.76438
1.75839
1.74453
1.72707
1.70815
1.68862
1.66884
1.64889
1.62884
1.60868
1.58841
1.56802
1.54751
1.52687
1.50609
1.48517
1.46411
1.44291
1.42155
1.40005
1.3784
1.35659
1.33463
1.31252
1.29025
1.26783
1.24525
1.22251
1.19961
1.17656
1.15333
1.12995
1.1064
1.08269
1.05881
1.03476
1.01055
0.986161
0.961603
0.936873
0.911969
0.88689
0.861634
0.836201
0.810588
0.784796
0.758823
0.732667
0.706327
0.679802
0.653091
0.626192
0.599105
0.571826
0.544357
0.516693
0.488837
0.460785
0.432533
0.404089
0.375438
0.346595
0.317544
0.288288
0.258838
0.229166
0.199302
0.16922
0.138925
0.108428
0.0777082
0.0467722
0.0156283
-27.3279
-30.2421
-33.1926
-39.4467
-46.9876
-50.6116
-46.2788
-40.2501
-35.4561
-31.7854
-28.1528
-22.7778
-14.9704
-8.52706
-4.58759
-2.08696
-0.531642
0.333099
0.876926
1.2074
1.3977
1.51943
1.60659
1.65033
1.6943
1.72694
1.7519
1.76225
1.75827
1.74487
1.72743
1.70843
1.68882
1.66897
1.64898
1.6289
1.60871
1.58843
1.56804
1.54752
1.52688
1.5061
1.48518
1.46411
1.44291
1.42155
1.40005
1.3784
1.35659
1.33463
1.31252
1.29025
1.26783
1.24525
1.22251
1.19961
1.17656
1.15333
1.12995
1.1064
1.08269
1.05881
1.03476
1.01055
0.986161
0.961603
0.936873
0.911969
0.88689
0.861634
0.836201
0.810588
0.784796
0.758823
0.732667
0.706327
0.679802
0.653091
0.626192
0.599105
0.571826
0.544357
0.516694
0.488837
0.460785
0.432533
0.404089
0.375438
0.346595
0.317544
0.288288
0.258838
0.229166
0.199302
0.16922
0.138925
0.108428
0.0777083
0.0467723
0.0156283
-27.6192
-30.4832
-33.3488
-38.6378
-45.1589
-48.3078
-44.3268
-39.0083
-34.5688
-31.6512
-28.807
-23.6803
-15.6188
-8.94306
-4.87859
-2.25398
-0.595099
0.315772
0.846
1.18261
1.38528
1.51585
1.61135
1.68036
1.72433
1.74279
1.7606
1.76712
1.76091
1.7462
1.7281
1.7088
1.68904
1.66912
1.64908
1.62896
1.60876
1.58846
1.56805
1.54753
1.52688
1.5061
1.48518
1.46412
1.44291
1.42155
1.40005
1.3784
1.35659
1.33463
1.31252
1.29025
1.26783
1.24525
1.22251
1.19961
1.17656
1.15333
1.12995
1.1064
1.08269
1.05881
1.03476
1.01055
0.986161
0.961603
0.936873
0.911969
0.88689
0.861634
0.836201
0.810588
0.784796
0.758823
0.732667
0.706327
0.679802
0.653091
0.626192
0.599105
0.571826
0.544357
0.516694
0.488837
0.460785
0.432533
0.404089
0.375438
0.346595
0.317544
0.288288
0.258838
0.229166
0.199302
0.16922
0.138925
0.108428
0.0777083
0.0467724
0.0156282
-27.7015
-30.5214
-33.5008
-37.9604
-43.5469
-46.3099
-42.607
-37.7255
-33.7552
-31.5856
-29.6609
-24.7232
-16.27
-9.31598
-5.10094
-2.35559
-0.660196
0.220272
0.811618
1.17608
1.37875
1.51505
1.61433
1.66783
1.6958
1.73029
1.75659
1.76747
1.76221
1.74752
1.72901
1.70933
1.68933
1.66929
1.64918
1.62902
1.60879
1.58848
1.56807
1.54754
1.52689
1.5061
1.48518
1.46412
1.44291
1.42155
1.40005
1.3784
1.35659
1.33463
1.31252
1.29025
1.26783
1.24525
1.22251
1.19961
1.17656
1.15333
1.12995
1.1064
1.08269
1.05881
1.03476
1.01055
0.986161
0.961603
0.936873
0.911969
0.88689
0.861634
0.836201
0.810588
0.784796
0.758823
0.732667
0.706327
0.679802
0.653091
0.626192
0.599105
0.571826
0.544357
0.516694
0.488837
0.460785
0.432533
0.404089
0.375438
0.346595
0.317544
0.288288
0.258838
0.229166
0.199302
0.16922
0.138925
0.108428
0.0777084
0.0467724
0.0156282
-27.8488
-30.4523
-33.5633
-37.3885
-42.1404
-44.521
-41.0971
-36.4207
-32.8344
-31.6904
-30.6296
-25.9339
-16.9473
-9.71732
-5.36667
-2.46267
-0.678841
0.276381
0.781293
1.13534
1.36269
1.51561
1.62195
1.68863
1.72455
1.74102
1.7605
1.77018
1.76333
1.7477
1.72902
1.7094
1.68945
1.6694
1.64926
1.62908
1.60883
1.58851
1.56808
1.54755
1.52689
1.50611
1.48518
1.46412
1.44291
1.42155
1.40005
1.3784
1.35659
1.33463
1.31252
1.29025
1.26783
1.24525
1.22251
1.19961
1.17656
1.15333
1.12995
1.1064
1.08269
1.05881
1.03476
1.01055
0.986161
0.961603
0.936873
0.911969
0.88689
0.861634
0.836201
0.810588
0.784796
0.758823
0.732667
0.706327
0.679802
0.653091
0.626192
0.599105
0.571826
0.544357
0.516694
0.488837
0.460785
0.432533
0.404089
0.375438
0.346595
0.317544
0.288289
0.258838
0.229166
0.199302
0.16922
0.138925
0.108428
0.0777085
0.0467725
0.0156282
-28.0511
-30.3539
-33.5651
-36.8823
-40.9738
-42.8712
-39.6514
-35.1513
-31.7796
-31.8671
-31.7089
-27.2951
-17.6646
-10.1243
-5.62859
-2.53055
-0.684427
0.259159
0.773977
1.14605
1.39194
1.53595
1.63058
1.68072
1.70695
1.72665
1.76083
1.77356
1.76734
1.75064
1.73073
1.71028
1.68984
1.6696
1.64936
1.62913
1.60887
1.58853
1.5681
1.54756
1.5269
1.50611
1.48519
1.46412
1.44291
1.42155
1.40005
1.3784
1.35659
1.33463
1.31252
1.29025
1.26783
1.24525
1.22251
1.19961
1.17656
1.15333
1.12995
1.1064
1.08269
1.05881
1.03476
1.01055
0.986161
0.961603
0.936873
0.911969
0.88689
0.861634
0.836201
0.810588
0.784796
0.758823
0.732667
0.706327
0.679802
0.653091
0.626192
0.599105
0.571826
0.544357
0.516694
0.488837
0.460785
0.432533
0.40409
0.375438
0.346595
0.317544
0.288289
0.258838
0.229166
0.199302
0.16922
0.138925
0.108428
0.0777086
0.0467726
0.0156281
-28.2881
-30.2595
-33.5085
-36.453
-39.9122
-41.3476
-38.2655
-33.8891
-30.7571
-32.1612
-33.0365
-28.6951
-18.3468
-10.4725
-5.89144
-2.56775
-0.657722
0.29385
0.773457
1.12433
1.37887
1.53655
1.63697
1.70155
1.72824
1.74576
1.7618
1.77273
1.76549
1.74898
1.72982
1.70988
1.6898
1.66967
1.64943
1.62918
1.6089
1.58855
1.56811
1.54757
1.52691
1.50611
1.48519
1.46412
1.44291
1.42155
1.40005
1.3784
1.35659
1.33463
1.31252
1.29025
1.26783
1.24525
1.22251
1.19961
1.17656
1.15333
1.12995
1.1064
1.08269
1.05881
1.03476
1.01055
0.986161
0.961603
0.936873
0.911969
0.88689
0.861634
0.836201
0.810588
0.784796
0.758823
0.732667
0.706327
0.679802
0.653091
0.626192
0.599105
0.571826
0.544357
0.516694
0.488837
0.460785
0.432533
0.40409
0.375438
0.346595
0.317545
0.288289
0.258839
0.229166
0.199301
0.169221
0.138925
0.108428
0.0777087
0.0467726
0.0156281
-28.4856
-30.1496
-33.4485
-36.0836
-39.0153
-40.0162
-36.9664
-32.5942
-29.7566
-32.6821
-34.6937
-30.2689
-19.0054
-10.8602
-6.16056
-2.54601
-0.611947
0.290933
0.777776
1.14093
1.39623
1.54721
1.64427
1.69356
1.70711
1.73455
1.76383
1.78063
1.77316
1.75394
1.73249
1.71123
1.69037
1.6699
1.64953
1.62924
1.60893
1.58857
1.56812
1.54758
1.52691
1.50612
1.48519
1.46412
1.44291
1.42156
1.40005
1.3784
1.35659
1.33463
1.31252
1.29025
1.26783
1.24525
1.22251
1.19961
1.17656
1.15333
1.12995
1.1064
1.08269
1.05881
1.03476
1.01055
0.986161
0.961603
0.936873
0.911969
0.88689
0.861634
0.836201
0.810588
0.784796
0.758823
0.732667
0.706327
0.679802
0.653091
0.626192
0.599105
0.571826
0.544357
0.516694
0.488837
0.460785
0.432533
0.40409
0.375438
0.346595
0.317545
0.288289
0.258839
0.229166
0.199301
0.169221
0.138925
0.108428
0.0777088
0.0467727
0.015628
-28.6563
-30.0907
-33.4177
-35.7718
-38.3163
-38.8409
-35.8065
-31.1544
-28.6768
-33.3571
-36.6075
-32.0377
-19.6334
-11.113
-6.38616
-2.53371
-0.56934
0.34801
0.799725
1.13392
1.3898
1.54934
1.64806
1.71244
1.74479
1.74634
1.76287
1.77214
1.76566
1.74954
1.73034
1.7104
1.68996
1.66992
1.64958
1.62928
1.60896
1.58859
1.56814
1.54758
1.52691
1.50612
1.48519
1.46412
1.44291
1.42156
1.40005
1.3784
1.35659
1.33463
1.31252
1.29025
1.26783
1.24525
1.22251
1.19961
1.17656
1.15333
1.12995
1.1064
1.08269
1.05881
1.03476
1.01055
0.986161
0.961603
0.936873
0.911969
0.88689
0.861634
0.836201
0.810588
0.784796
0.758823
0.732667
0.706327
0.679802
0.653091
0.626192
0.599105
0.571826
0.544357
0.516694
0.488837
0.460785
0.432533
0.40409
0.375438
0.346595
0.317545
0.288289
0.258839
0.229166
0.199301
0.169221
0.138925
0.108428
0.0777089
0.0467727
0.015628
-28.7656
-30.0636
-33.4112
-35.503
-37.7012
-37.7482
-34.6889
-29.3796
-27.5699
-34.0311
-38.4823
-33.815
-20.1587
-11.3709
-6.58158
-2.4327
-0.495333
0.365849
0.808145
1.15273
1.4166
1.56438
1.65209
1.70185
1.7218
1.74882
1.77068
1.7825
1.7743
1.75527
1.73364
1.71213
1.69116
1.67024
1.64969
1.62933
1.60899
1.5886
1.56814
1.54759
1.52692
1.50612
1.48519
1.46412
1.44291
1.42156
1.40005
1.3784
1.35659
1.33463
1.31252
1.29025
1.26783
1.24525
1.22251
1.19961
1.17656
1.15333
1.12995
1.1064
1.08269
1.05881
1.03476
1.01055
0.986161
0.961603
0.936873
0.911969
0.88689
0.861634
0.836201
0.810588
0.784796
0.758823
0.732667
0.706327
0.679802
0.653091
0.626192
0.599105
0.571826
0.544357
0.516694
0.488837
0.460785
0.432533
0.40409
0.375439
0.346595
0.317545
0.288289
0.258839
0.229167
0.199301
0.169221
0.138925
0.108428
0.077709
0.0467727
0.0156279
-28.868
-30.021
-33.4017
-35.2968
-37.2002
-36.7982
-33.6123
-27.3008
-26.1485
-34.5582
-39.9194
-35.1806
-20.516
-11.4904
-6.70424
-2.32215
-0.43047
0.451238
0.847682
1.1627
1.41819
1.57336
1.66973
1.72868
1.74461
1.75443
1.76724
1.77463
1.76734
1.75077
1.73117
1.71086
1.69051
1.67
1.6497
1.62937
1.60901
1.58862
1.56815
1.54759
1.52692
1.50612
1.48519
1.46412
1.44291
1.42156
1.40005
1.3784
1.35659
1.33463
1.31252
1.29025
1.26783
1.24525
1.22251
1.19961
1.17656
1.15333
1.12995
1.1064
1.08269
1.05881
1.03476
1.01055
0.986161
0.961603
0.936873
0.911969
0.88689
0.861634
0.836201
0.810588
0.784796
0.758823
0.732667
0.706327
0.679802
0.653091
0.626192
0.599105
0.571826
0.544357
0.516694
0.488837
0.460785
0.432533
0.40409
0.375439
0.346595
0.317545
0.288288
0.258839
0.229167
0.199301
0.169221
0.138925
0.108427
0.0777092
0.0467727
0.0156278
-28.9375
-30.0196
-33.3847
-35.1482
-36.7531
-36.1341
-32.6508
-25.1084
-24.1871
-34.6654
-40.7434
-35.907
-20.675
-11.5297
-6.73913
-2.17958
-0.382763
0.483886
0.869296
1.18126
1.43536
1.58582
1.66797
1.71386
1.74278
1.75896
1.7771
1.78515
1.77586
1.75656
1.73461
1.71277
1.69145
1.67044
1.64986
1.62941
1.60903
1.58863
1.56816
1.5476
1.52692
1.50613
1.48519
1.46413
1.44291
1.42156
1.40005
1.3784
1.35659
1.33463
1.31252
1.29025
1.26783
1.24525
1.22251
1.19961
1.17656
1.15333
1.12995
1.1064
1.08269
1.05881
1.03476
1.01055
0.986161
0.961603
0.936873
0.911969
0.88689
0.861634
0.836201
0.810588
0.784796
0.758823
0.732667
0.706327
0.679802
0.653091
0.626192
0.599105
0.571826
0.544357
0.516694
0.488837
0.460785
0.432533
0.40409
0.375439
0.346595
0.317545
0.288288
0.258839
0.229167
0.199301
0.169221
0.138925
0.108427
0.0777093
0.0467728
0.0156278
-28.9647
-30.0218
-33.4613
-35.0637
-36.1783
-35.6085
-31.835
-23.1543
-21.8768
-34.4198
-40.2723
-36.0362
-20.6654
-11.5389
-6.69973
-2.06652
-0.350447
0.53472
0.895467
1.19269
1.44199
1.59361
1.68399
1.7343
1.74985
1.76123
1.77331
1.77875
1.77003
1.75247
1.73219
1.71147
1.69085
1.67023
1.64981
1.62942
1.60905
1.58864
1.56817
1.5476
1.52693
1.50613
1.4852
1.46413
1.44291
1.42156
1.40005
1.3784
1.35659
1.33463
1.31252
1.29025
1.26783
1.24525
1.22251
1.19961
1.17656
1.15333
1.12995
1.1064
1.08269
1.05881
1.03476
1.01055
0.986161
0.961603
0.936873
0.911969
0.88689
0.861634
0.836201
0.810588
0.784796
0.758823
0.732667
0.706327
0.679802
0.653091
0.626192
0.599105
0.571826
0.544357
0.516694
0.488837
0.460785
0.432533
0.40409
0.375439
0.346595
0.317545
0.288288
0.258839
0.229167
0.199301
0.169222
0.138925
0.108427
0.0777095
0.0467728
0.0156277
-28.9648
-30.0369
-33.4763
-34.9963
-35.9028
-35.3359
-31.1184
-22.2315
-20.1876
-33.9613
-40.0036
-35.6033
-20.5311
-11.5319
-6.63022
-2.01925
-0.349517
0.543456
0.903977
1.20051
1.44719
1.59675
1.68064
1.7281
1.75079
1.76476
1.77972
1.78589
1.77619
1.75685
1.73485
1.71293
1.69156
1.67055
1.64993
1.62947
1.60907
1.58865
1.56817
1.54761
1.52693
1.50613
1.4852
1.46413
1.44291
1.42156
1.40005
1.3784
1.35659
1.33463
1.31252
1.29025
1.26783
1.24525
1.22251
1.19961
1.17656
1.15333
1.12995
1.1064
1.08269
1.05881
1.03476
1.01055
0.986161
0.961603
0.936873
0.911969
0.88689
0.861634
0.836201
0.810588
0.784796
0.758823
0.732667
0.706327
0.679802
0.653091
0.626192
0.599105
0.571826
0.544357
0.516694
0.488837
0.460785
0.432533
0.40409
0.375439
0.346595
0.317545
0.288288
0.258839
0.229167
0.199301
0.169222
0.138925
0.108427
0.0777096
0.0467728
0.0156276
-22.1777
-26.1611
-29.3004
-47.2395
-59.7002
-62.3948
-60.5829
-53.1791
-41.9292
-30.2972
-15.258
-6.30017
-0.654416
3.0414
3.79352
3.72857
3.26478
2.75692
2.35576
2.08232
1.91087
1.81726
1.77725
1.76819
1.77063
1.77281
1.77018
1.76239
1.75066
1.73627
1.72013
1.70283
1.68475
1.6661
1.647
1.62756
1.60782
1.58785
1.56765
1.54727
1.52672
1.50599
1.48511
1.46407
1.44288
1.42154
1.40004
1.37839
1.35659
1.33463
1.31252
1.29025
1.26783
1.24525
1.22251
1.19961
1.17655
1.15333
1.12995
1.1064
1.08269
1.05881
1.03476
1.01055
0.986161
0.961603
0.936873
0.911969
0.886889
0.861634
0.836201
0.810588
0.784796
0.758823
0.732667
0.706327
0.679802
0.653091
0.626192
0.599105
0.571826
0.544357
0.516694
0.488836
0.460786
0.432533
0.40409
0.375439
0.346595
0.317545
0.288289
0.258838
0.229168
0.1993
0.169223
0.138924
0.108428
0.0777088
0.0467733
0.0156274
-22.3176
-26.5216
-30.7433
-48.1481
-60.2859
-62.7323
-60.7296
-53.3675
-42.1684
-30.4873
-15.5162
-6.38288
-0.738767
2.9776
3.75985
3.70753
3.25162
2.74799
2.34972
2.07839
1.90835
1.81562
1.77644
1.76741
1.77017
1.77262
1.77011
1.76239
1.75072
1.73635
1.7202
1.7029
1.6848
1.66614
1.64703
1.62757
1.60783
1.58785
1.56766
1.54728
1.52672
1.506
1.48511
1.46407
1.44288
1.42154
1.40004
1.37839
1.35659
1.33463
1.31252
1.29025
1.26783
1.24525
1.22251
1.19961
1.17655
1.15333
1.12995
1.1064
1.08269
1.05881
1.03476
1.01055
0.986161
0.961603
0.936873
0.911969
0.886889
0.861634
0.836201
0.810588
0.784796
0.758823
0.732667
0.706327
0.679802
0.653091
0.626192
0.599105
0.571826
0.544357
0.516694
0.488836
0.460786
0.432533
0.40409
0.375439
0.346595
0.317545
0.288289
0.258838
0.229168
0.1993
0.169223
0.138924
0.108428
0.0777087
0.0467733
0.0156275
-22.0568
-26.1748
-32.8255
-49.6862
-61.4261
-63.424
-61.0092
-53.7225
-42.5756
-30.8116
-15.9549
-6.57102
-0.914818
2.83828
3.68282
3.66043
3.22328
2.72963
2.3369
2.06903
1.90117
1.80994
1.77206
1.76472
1.76892
1.77252
1.77064
1.76311
1.75136
1.73683
1.72052
1.7031
1.68493
1.66621
1.64708
1.6276
1.60785
1.58786
1.56767
1.54728
1.52672
1.506
1.48511
1.46407
1.44288
1.42154
1.40004
1.37839
1.35659
1.33463
1.31252
1.29025
1.26783
1.24525
1.22251
1.19961
1.17655
1.15333
1.12995
1.1064
1.08269
1.05881
1.03476
1.01055
0.986161
0.961603
0.936873
0.911969
0.886889
0.861634
0.836201
0.810588
0.784796
0.758823
0.732667
0.706327
0.679802
0.653091
0.626192
0.599105
0.571826
0.544357
0.516694
0.488836
0.460786
0.432533
0.40409
0.375439
0.346595
0.317545
0.288289
0.258838
0.229168
0.1993
0.169222
0.138924
0.108428
0.0777085
0.0467733
0.0156275
-21.3643
-25.908
-34.7287
-51.508
-62.5867
-64.3256
-61.3745
-54.2615
-43.2037
-31.2775
-16.5194
-6.86395
-1.19335
2.62826
3.56001
3.57983
3.17536
2.70048
2.31794
2.056
1.89159
1.80253
1.76644
1.76088
1.76674
1.77154
1.77035
1.76313
1.75149
1.73696
1.72064
1.70318
1.68499
1.66626
1.64711
1.62762
1.60787
1.58787
1.56767
1.54728
1.52672
1.506
1.48511
1.46408
1.44288
1.42154
1.40004
1.37839
1.35659
1.33463
1.31252
1.29025
1.26783
1.24525
1.22251
1.19961
1.17655
1.15333
1.12995
1.1064
1.08269
1.05881
1.03476
1.01055
0.986161
0.961603
0.936873
0.911969
0.886889
0.861634
0.836201
0.810588
0.784796
0.758823
0.732667
0.706327
0.679802
0.653091
0.626192
0.599105
0.571826
0.544357
0.516694
0.488836
0.460785
0.432533
0.40409
0.375439
0.346595
0.317545
0.288289
0.258838
0.229168
0.1993
0.169222
0.138924
0.108428
0.0777083
0.0467733
0.0156276
-20.9304
-25.9782
-36.3626
-53.1699
-63.9023
-65.408
-61.7848
-54.8243
-43.9075
-31.8046
-17.1968
-7.26908
-1.58598
2.34253
3.39336
3.46678
3.10491
2.65772
2.29149
2.0389
1.87932
1.79283
1.75874
1.75529
1.76322
1.76969
1.76961
1.76302
1.75165
1.73719
1.72084
1.70334
1.6851
1.66633
1.64716
1.62766
1.60789
1.58789
1.56768
1.54729
1.52673
1.506
1.48512
1.46408
1.44288
1.42154
1.40004
1.37839
1.35659
1.33463
1.31252
1.29025
1.26783
1.24525
1.22251
1.19961
1.17655
1.15333
1.12995
1.1064
1.08269
1.05881
1.03476
1.01055
0.986161
0.961603
0.936873
0.911969
0.886889
0.861634
0.836201
0.810588
0.784796
0.758823
0.732667
0.706327
0.679802
0.653091
0.626192
0.599105
0.571826
0.544357
0.516694
0.488836
0.460785
0.432533
0.40409
0.375439
0.346595
0.317544
0.288289
0.258838
0.229168
0.1993
0.169222
0.138924
0.108428
0.0777082
0.0467733
0.0156277
-20.6871
-26.3433
-37.6491
-54.5777
-65.2095
-66.5251
-62.3124
-55.306
-44.56
-32.3466
-17.9724
-7.75589
-2.01595
1.99167
3.18264
3.32104
3.0121
2.60121
2.25686
2.01773
1.86535
1.78217
1.75012
1.74884
1.75905
1.76743
1.76863
1.76276
1.7517
1.73733
1.72098
1.70346
1.68519
1.66639
1.6472
1.62769
1.60791
1.5879
1.56769
1.5473
1.52673
1.506
1.48512
1.46408
1.44288
1.42154
1.40004
1.37839
1.35659
1.33463
1.31252
1.29025
1.26783
1.24525
1.22251
1.19961
1.17655
1.15333
1.12995
1.1064
1.08269
1.05881
1.03476
1.01055
0.986161
0.961603
0.936873
0.911969
0.886889
0.861634
0.836201
0.810588
0.784796
0.758823
0.732667
0.706327
0.679802
0.653091
0.626192
0.599105
0.571826
0.544357
0.516694
0.488836
0.460785
0.432533
0.40409
0.375439
0.346595
0.317544
0.288289
0.258838
0.229168
0.1993
0.169222
0.138924
0.108428
0.077708
0.0467733
0.0156277
-20.4956
-26.5876
-38.5698
-55.7635
-66.3823
-67.8383
-62.8504
-55.804
-45.1976
-32.9461
-18.7941
-8.25426
-2.43915
1.58458
2.93561
3.14734
2.89679
2.53056
2.21422
1.99251
1.84987
1.77092
1.74094
1.74175
1.75426
1.76464
1.76727
1.76225
1.75162
1.73743
1.72112
1.70358
1.68529
1.66647
1.64725
1.62772
1.60793
1.58791
1.5677
1.5473
1.52673
1.50601
1.48512
1.46408
1.44288
1.42154
1.40004
1.37839
1.35659
1.33463
1.31252
1.29025
1.26783
1.24525
1.22251
1.19961
1.17655
1.15333
1.12995
1.1064
1.08269
1.05881
1.03476
1.01055
0.986161
0.961603
0.936873
0.911969
0.886889
0.861634
0.836201
0.810588
0.784796
0.758823
0.732667
0.706327
0.679802
0.653091
0.626192
0.599105
0.571826
0.544357
0.516694
0.488836
0.460785
0.432533
0.40409
0.375439
0.346595
0.317544
0.28829
0.258838
0.229168
0.1993
0.169222
0.138924
0.108428
0.0777079
0.0467733
0.0156278
-20.7535
-26.9945
-39.3367
-56.5987
-67.4407
-68.8877
-63.419
-56.3085
-45.7862
-33.5828
-19.585
-8.82985
-2.86613
1.13913
2.64091
2.9512
2.76335
2.44666
2.16396
1.96322
1.83282
1.75939
1.73171
1.73445
1.74917
1.76158
1.76572
1.76164
1.7515
1.73751
1.72126
1.70372
1.68539
1.66655
1.64731
1.62776
1.60796
1.58793
1.56771
1.54731
1.52674
1.50601
1.48512
1.46408
1.44288
1.42154
1.40004
1.37839
1.35659
1.33463
1.31252
1.29025
1.26783
1.24525
1.22251
1.19961
1.17655
1.15333
1.12995
1.1064
1.08269
1.05881
1.03476
1.01055
0.986161
0.961603
0.936873
0.911969
0.886889
0.861634
0.836201
0.810588
0.784796
0.758823
0.732667
0.706327
0.679802
0.653091
0.626192
0.599105
0.571826
0.544357
0.516694
0.488836
0.460785
0.432533
0.40409
0.375439
0.346595
0.317544
0.28829
0.258837
0.229168
0.1993
0.169222
0.138924
0.108429
0.0777077
0.0467733
0.0156278
-21.2248
-27.4795
-39.9572
-57.1341
-68.3709
-70.0342
-64.0138
-56.7507
-46.2955
-34.222
-20.3958
-9.47612
-3.31708
0.708684
2.31313
2.72992
2.61518
2.35157
2.10679
1.93022
1.814
1.74737
1.72243
1.72711
1.74393
1.75834
1.76401
1.76093
1.75133
1.73756
1.72138
1.70384
1.6855
1.66663
1.64737
1.6278
1.60798
1.58795
1.56772
1.54732
1.52674
1.50601
1.48512
1.46408
1.44289
1.42154
1.40004
1.37839
1.35659
1.33463
1.31252
1.29025
1.26783
1.24525
1.22251
1.19961
1.17655
1.15333
1.12995
1.1064
1.08269
1.05881
1.03476
1.01055
0.986161
0.961603
0.936873
0.911969
0.886889
0.861634
0.836201
0.810589
0.784796
0.758823
0.732667
0.706327
0.679802
0.653091
0.626192
0.599105
0.571826
0.544357
0.516694
0.488836
0.460785
0.432533
0.40409
0.375439
0.346595
0.317544
0.28829
0.258837
0.229168
0.1993
0.169222
0.138924
0.108429
0.0777076
0.0467732
0.0156279
-21.6682
-27.8305
-40.2447
-57.638
-69.1243
-71.038
-64.485
-57.1461
-46.7234
-34.8494
-21.2273
-10.1291
-3.80751
0.262805
1.97038
2.48702
2.45493
2.24783
2.04376
1.89397
1.79349
1.7346
1.71298
1.71982
1.73873
1.75507
1.76226
1.76017
1.75113
1.73761
1.72151
1.70398
1.68561
1.66671
1.64743
1.62784
1.60801
1.58797
1.56773
1.54733
1.52675
1.50601
1.48512
1.46408
1.44289
1.42154
1.40004
1.37839
1.35659
1.33463
1.31252
1.29025
1.26783
1.24525
1.22251
1.19961
1.17655
1.15333
1.12995
1.1064
1.08269
1.05881
1.03476
1.01055
0.986161
0.961603
0.936873
0.911969
0.88689
0.861634
0.836201
0.810589
0.784796
0.758823
0.732667
0.706327
0.679802
0.653091
0.626192
0.599105
0.571826
0.544357
0.516694
0.488836
0.460785
0.432533
0.404089
0.375439
0.346595
0.317544
0.28829
0.258837
0.229168
0.1993
0.169221
0.138924
0.108429
0.0777075
0.0467732
0.0156279
-21.9792
-28.0695
-40.289
-57.7768
-69.7025
-71.7891
-64.8668
-57.4382
-47.0346
-35.3637
-21.9817
-10.7931
-4.30801
-0.202325
1.61172
2.22719
2.28391
2.13772
1.97603
1.85489
1.7714