/*--------------------------------*- C++ -*----------------------------------*\
| =========                 |                                                 |
| \\      /  F ield         | OpenFOAM: The Open Source CFD Toolbox           |
|  \\    /   O peration     | Version:  2.4.0                                 |
|   \\  /    A nd           | Web:      www.OpenFOAM.org                      |
|    \\/     M anipulation  |                                                 |
\*---------------------------------------------------------------------------*/
FoamFile
{
    version     2.0;
    format      ascii;
    class       volScalarField;
    location    "96";
    object      p;
}
// * * * * * * * * * * * * * * * * * * * * * * * * * * * * * * * * * * * * * //

dimensions      [0 2 -2 0 0 0 0];

internalField   nonuniform List<scalar> 
4400
(
-0.111387
-0.0972807
-0.112403
-0.119091
-0.107356
-0.11321
-0.108266
-0.110948
-0.114557
-0.112678
-0.118808
-0.113542
-0.119128
-0.116707
-0.114743
-0.124911
-0.116871
-0.123367
-0.125487
-0.118308
-0.111688
-0.0970647
-0.112326
-0.120004
-0.10716
-0.113227
-0.108349
-0.110798
-0.114825
-0.112492
-0.118957
-0.113518
-0.119133
-0.116843
-0.114213
-0.125169
-0.11692
-0.12326
-0.125949
-0.117925
-0.112027
-0.0967716
-0.112389
-0.120603
-0.106751
-0.113372
-0.108407
-0.110686
-0.115051
-0.112246
-0.119207
-0.113394
-0.119211
-0.116984
-0.113833
-0.125608
-0.116881
-0.123175
-0.126453
-0.117541
-0.112296
-0.0965919
-0.112514
-0.12097
-0.106307
-0.113564
-0.108417
-0.110677
-0.115213
-0.111982
-0.119408
-0.113207
-0.119339
-0.117063
-0.113582
-0.125986
-0.116735
-0.123116
-0.126809
-0.116839
-0.112416
-0.0966849
-0.112695
-0.121028
-0.106016
-0.113729
-0.108434
-0.110818
-0.11527
-0.111816
-0.119321
-0.113017
-0.119457
-0.117118
-0.113611
-0.126143
-0.116577
-0.123125
-0.126941
-0.116828
-0.112426
-0.0972241
-0.112973
-0.120966
-0.106121
-0.113799
-0.108592
-0.111122
-0.115316
-0.111885
-0.119223
-0.112933
-0.119498
-0.117285
-0.114047
-0.126077
-0.116571
-0.123202
-0.126965
-0.117245
-0.112306
-0.0985695
-0.113371
-0.120731
-0.106804
-0.113785
-0.109013
-0.111575
-0.115442
-0.112273
-0.118943
-0.113073
-0.119379
-0.117694
-0.114961
-0.125718
-0.116892
-0.123282
-0.126872
-0.118161
-0.11194
-0.100922
-0.113795
-0.120085
-0.108102
-0.113517
-0.109733
-0.112149
-0.115613
-0.112977
-0.118405
-0.113595
-0.119045
-0.118318
-0.116308
-0.124936
-0.11761
-0.123268
-0.126588
-0.119535
-0.111252
-0.104252
-0.114002
-0.118696
-0.109882
-0.112866
-0.11072
-0.112767
-0.115692
-0.1139
-0.117562
-0.114631
-0.118465
-0.118998
-0.117922
-0.123636
-0.118691
-0.123075
-0.12602
-0.121263
-0.110252
-0.108299
-0.11373
-0.116292
-0.111813
-0.111854
-0.111862
-0.113294
-0.115494
-0.114863
-0.116435
-0.115999
-0.117651
-0.119512
-0.119549
-0.121861
-0.120008
-0.12264
-0.125084
-0.123141
-0.109037
-0.11262
-0.11282
-0.112896
-0.113474
-0.110662
-0.113006
-0.113606
-0.114942
-0.115657
-0.115129
-0.117408
-0.116676
-0.119695
-0.120908
-0.119813
-0.121354
-0.121956
-0.123794
-0.124898
-0.10777
-0.116737
-0.111283
-0.108936
-0.114562
-0.109483
-0.114044
-0.113673
-0.114132
-0.116128
-0.113804
-0.11832
-0.115673
-0.119556
-0.121782
-0.117754
-0.122529
-0.121124
-0.122313
-0.126275
-0.106613
-0.120137
-0.109435
-0.104992
-0.114954
-0.108582
-0.11491
-0.113606
-0.113244
-0.116241
-0.112637
-0.118949
-0.114828
-0.119239
-0.122159
-0.115933
-0.123399
-0.120337
-0.120874
-0.127152
-0.105705
-0.122546
-0.107732
-0.101611
-0.114826
-0.108105
-0.115555
-0.113545
-0.112472
-0.116101
-0.111742
-0.119254
-0.114273
-0.118913
-0.122212
-0.114525
-0.123899
-0.119756
-0.11968
-0.127585
-0.10515
-0.124011
-0.106538
-0.0991456
-0.114441
-0.108032
-0.115962
-0.113557
-0.111944
-0.115874
-0.111176
-0.119138
-0.114035
-0.11869
-0.122144
-0.11362
-0.124052
-0.119446
-0.118844
-0.127694
-0.104977
-0.124723
-0.105967
-0.0976928
-0.113992
-0.108289
-0.11615
-0.113631
-0.111677
-0.11567
-0.110947
-0.119048
-0.114054
-0.118571
-0.122068
-0.113224
-0.123944
-0.119371
-0.118395
-0.127578
-0.105116
-0.124832
-0.105767
-0.0971623
-0.113487
-0.108646
-0.116171
-0.113686
-0.111618
-0.115496
-0.111016
-0.118842
-0.114199
-0.118521
-0.12195
-0.11335
-0.123689
-0.119406
-0.118286
-0.127471
-0.105431
-0.124484
-0.105568
-0.0973537
-0.112925
-0.108906
-0.116095
-0.113636
-0.111709
-0.115295
-0.111216
-0.118583
-0.114335
-0.118524
-0.121706
-0.113637
-0.123387
-0.119407
-0.118424
-0.127051
-0.105784
-0.123934
-0.105244
-0.0979241
-0.112405
-0.109009
-0.116005
-0.113492
-0.111877
-0.115084
-0.111456
-0.118349
-0.114397
-0.118576
-0.121375
-0.114
-0.123138
-0.119321
-0.1187
-0.126614
-0.106045
-0.123587
-0.104941
-0.0989596
-0.112149
-0.108982
-0.115992
-0.113324
-0.112084
-0.114817
-0.111619
-0.118247
-0.114381
-0.118659
-0.121023
-0.114249
-0.123053
-0.119198
-0.119001
-0.126332
-0.135755
-0.127243
-0.128045
-0.128614
-0.10667
-0.115306
-0.113659
-0.125201
-0.15982
-0.160709
-0.173352
-0.155877
-0.116208
-0.116707
-0.10905
-0.129067
-0.151275
-0.0991945
-0.077721
-0.136862
-0.179125
-0.153637
-0.119597
-0.0918509
-0.068489
-0.0503467
-0.0661848
-0.149681
-0.20525
-0.212437
-0.191242
-0.146249
-0.0988162
-0.0564833
-0.0334496
-0.0353619
-0.0366944
-0.0287552
-0.0214144
-0.00914345
-0.00247069
-0.0317304
-0.0569646
-0.0407023
-0.011399
-0.0108503
-0.0359604
-0.0476155
-0.035345
-0.0151282
-0.00459929
-0.0161817
-0.0274723
-0.0315736
-0.0355995
-0.0294613
-0.0109941
-0.00297753
-0.0151848
-0.0288776
-0.0358817
-0.0409492
-0.0375584
-0.0215637
-0.0110341
-0.0136681
-0.0204095
-0.0236822
-0.0186364
-0.00784449
-0.00123548
-0.00307867
-0.0106024
-0.0158848
-0.0115984
-0.00400733
-0.00223202
-0.00380732
-0.00305264
-0.00199377
-0.00302581
-0.00386505
-0.00294965
-0.00263439
-0.00422293
-0.00600387
-0.00671508
-0.00669052
-0.00616648
-0.00522829
-0.00414649
-0.0032007
-0.00244833
-0.00187202
-0.00141202
-0.00103927
-0.000730175
-0.000456051
-0.000243232
-6.23843e-05
-0.136014
-0.127374
-0.127141
-0.12932
-0.1056
-0.114461
-0.113609
-0.123919
-0.160964
-0.160823
-0.170297
-0.156912
-0.11595
-0.117388
-0.110146
-0.123279
-0.148589
-0.104798
-0.0796337
-0.132602
-0.172226
-0.148281
-0.11299
-0.0839692
-0.063427
-0.048838
-0.066319
-0.154922
-0.212716
-0.219048
-0.197493
-0.150718
-0.101346
-0.0563262
-0.0288718
-0.0279279
-0.0297884
-0.0239446
-0.0176329
-0.00555696
-0.00137073
-0.0357219
-0.063106
-0.0453935
-0.0126947
-0.0078156
-0.0298539
-0.0416916
-0.0343533
-0.0201052
-0.0102125
-0.0173134
-0.0254946
-0.0284384
-0.0318316
-0.0264142
-0.00958257
-0.00319748
-0.0166376
-0.0309469
-0.038084
-0.0432589
-0.0395714
-0.0222649
-0.00978352
-0.0109085
-0.0171643
-0.0206322
-0.0163781
-0.00679902
-0.00148837
-0.00436703
-0.0125368
-0.0178473
-0.0126628
-0.00360405
-0.000575118
-0.00204799
-0.00226664
-0.00235155
-0.00396566
-0.00464264
-0.00311066
-0.00212845
-0.00340979
-0.00541916
-0.00663566
-0.00698727
-0.00653389
-0.00546791
-0.00422999
-0.00318723
-0.00240304
-0.00183233
-0.0013893
-0.00103127
-0.000729963
-0.000458801
-0.000245603
-6.31622e-05
-0.136054
-0.127474
-0.125995
-0.129748
-0.105116
-0.114203
-0.114168
-0.122836
-0.16141
-0.160485
-0.166168
-0.15742
-0.116525
-0.117916
-0.111643
-0.117539
-0.143792
-0.109324
-0.0827977
-0.129048
-0.164913
-0.142529
-0.107198
-0.0774714
-0.0591473
-0.0473707
-0.0660593
-0.160051
-0.219809
-0.224592
-0.202468
-0.154567
-0.103712
-0.0557539
-0.0238963
-0.0201708
-0.02266
-0.0190166
-0.0137515
-0.00174218
0.000188856
-0.0388612
-0.0684422
-0.0493821
-0.0133882
-0.00426086
-0.023315
-0.0353643
-0.0330705
-0.0254224
-0.0161742
-0.018378
-0.0233427
-0.0251439
-0.027925
-0.0232334
-0.00801911
-0.00317736
-0.0177295
-0.0327023
-0.0400323
-0.0452816
-0.0413143
-0.0227376
-0.00836103
-0.00799566
-0.0137845
-0.0174925
-0.0140681
-0.00567817
-0.00162482
-0.00550977
-0.014295
-0.0196397
-0.0136059
-0.00314636
0.00107386
-0.000318494
-0.00148163
-0.00268124
-0.00486896
-0.00539434
-0.00325108
-0.00160328
-0.0025843
-0.00483374
-0.00656248
-0.00728959
-0.00690219
-0.00570577
-0.00431186
-0.00317281
-0.0023572
-0.00179234
-0.0013663
-0.00102315
-0.000729634
-0.000461403
-0.000247958
-6.35733e-05
-0.135667
-0.127487
-0.12459
-0.129855
-0.10535
-0.114233
-0.11525
-0.122109
-0.161003
-0.159847
-0.161604
-0.157057
-0.118038
-0.118382
-0.113173
-0.112519
-0.137485
-0.112191
-0.0869175
-0.126433
-0.157581
-0.136679
-0.102288
-0.0724594
-0.0558956
-0.0461016
-0.0656714
-0.164918
-0.226265
-0.22901
-0.206211
-0.157731
-0.105779
-0.0546921
-0.0185877
-0.0122149
-0.0154269
-0.0140406
-0.0098294
0.00222188
0.00216803
-0.0411215
-0.0728663
-0.0526027
-0.0134686
-0.00029434
-0.0165313
-0.0288545
-0.0315357
-0.0308945
-0.0222925
-0.0193305
-0.0210457
-0.0217222
-0.0239562
-0.0199901
-0.00635466
-0.00294546
-0.0184821
-0.0341445
-0.0417273
-0.0470172
-0.0427755
-0.0229794
-0.00679981
-0.00499209
-0.0103343
-0.0143207
-0.0117525
-0.00450982
-0.00164771
-0.00649571
-0.0158598
-0.0212367
-0.0144094
-0.00264081
0.00268325
0.00134815
-0.000713097
-0.00297911
-0.00572038
-0.00610526
-0.00336606
-0.00106869
-0.00176446
-0.00426026
-0.00649713
-0.00759184
-0.00726477
-0.00593772
-0.0043906
-0.00315758
-0.00231153
-0.00175269
-0.00134341
-0.00101503
-0.000729139
-0.000463768
-0.000250157
-6.35821e-05
-0.134874
-0.127361
-0.123683
-0.129704
-0.106207
-0.114491
-0.11635
-0.121612
-0.158901
-0.158712
-0.157141
-0.155736
-0.12042
-0.118909
-0.114353
-0.10855
-0.130308
-0.113182
-0.0916076
-0.124872
-0.150573
-0.130998
-0.0982882
-0.0689395
-0.0537939
-0.0452028
-0.0650427
-0.169095
-0.231609
-0.232278
-0.208769
-0.160146
-0.107389
-0.0530847
-0.0130207
-0.00419673
-0.00821623
-0.00909144
-0.00592802
0.00626307
0.0045292
-0.0424748
-0.0762934
-0.055017
-0.0129256
0.00399308
-0.00968071
-0.0223781
-0.0298394
-0.0363078
-0.0283383
-0.0201356
-0.0186444
-0.0182124
-0.0200059
-0.0167611
-0.00464544
-0.0025359
-0.0189246
-0.035281
-0.0431736
-0.0484725
-0.0439511
-0.0229936
-0.00513634
-0.00196293
-0.00688059
-0.0111759
-0.00947621
-0.00332224
-0.00156409
-0.00731819
-0.0172194
-0.0226186
-0.0150588
-0.00209498
0.00422307
0.00292162
2.456e-05
-0.00324201
-0.00650684
-0.0067614
-0.00345119
-0.000535039
-0.000967645
-0.00371033
-0.00644049
-0.00788814
-0.00761513
-0.00615976
-0.00446481
-0.00314172
-0.0022667
-0.00171398
-0.00132097
-0.00100694
-0.000728404
-0.000465781
-0.000252034
-6.31494e-05
-0.13375
-0.127158
-0.123218
-0.129253
-0.107589
-0.114849
-0.117418
-0.121172
-0.155159
-0.156901
-0.153114
-0.153574
-0.12342
-0.119575
-0.114887
-0.10558
-0.122842
-0.112441
-0.0964949
-0.124338
-0.144164
-0.125722
-0.095214
-0.0668506
-0.0528538
-0.0449706
-0.0640606
-0.172242
-0.235323
-0.234409
-0.210168
-0.161751
-0.108391
-0.0509014
-0.00727797
0.00374029
-0.00115861
-0.00424499
-0.00210774
0.0103061
0.00724301
-0.0429091
-0.0786568
-0.056608
-0.0117536
0.00853146
-0.00292442
-0.016125
-0.0280733
-0.0414479
-0.0340759
-0.0207694
-0.0161903
-0.0146617
-0.0161574
-0.0136256
-0.00295011
-0.00198852
-0.0190907
-0.036124
-0.0443784
-0.0496601
-0.0448425
-0.0227885
-0.00340844
0.00102751
-0.00348949
-0.00811654
-0.0072812
-0.00214291
-0.00138488
-0.00797543
-0.0183674
-0.0237729
-0.015544
-0.00151743
0.00566614
0.0043756
0.000718765
-0.00346641
-0.00721641
-0.00735076
-0.00350315
-1.27871e-05
-0.000210193
-0.00319434
-0.00639265
-0.00817253
-0.00794699
-0.00636811
-0.00453326
-0.00312544
-0.00222339
-0.00167678
-0.00129929
-0.000998992
-0.000727344
-0.00046732
-0.0002534
-6.22509e-05
-0.132329
-0.126903
-0.12316
-0.128457
-0.109401
-0.11521
-0.118161
-0.120748
-0.150229
-0.154328
-0.149668
-0.150846
-0.126692
-0.120402
-0.114656
-0.103394
-0.115481
-0.110243
-0.101272
-0.124719
-0.138577
-0.121074
-0.0930714
-0.0660493
-0.0529869
-0.0457561
-0.0631093
-0.174341
-0.237147
-0.235443
-0.210429
-0.162503
-0.108678
-0.048149
-0.00144204
0.0114608
0.00562105
0.000424782
0.00157841
0.0142741
0.0102759
-0.042412
-0.0799145
-0.057374
-0.00994424
0.0132657
0.0036008
-0.0102289
-0.0262766
-0.0461005
-0.0392783
-0.0212212
-0.0137362
-0.0111268
-0.0124968
-0.0106617
-0.0013268
-0.00134752
-0.0190172
-0.036689
-0.0453499
-0.0505954
-0.0454557
-0.0223767
-0.00165405
0.00391933
-0.0002229
-0.00519827
-0.00520495
-0.000997948
-0.00112405
-0.00847072
-0.0193023
-0.0246935
-0.0158597
-0.000917544
0.00698923
0.00568905
0.00135955
-0.0036497
-0.00783859
-0.00786247
-0.00351968
0.000487986
0.000492967
-0.00272101
-0.00635279
-0.00843887
-0.0082543
-0.00655929
-0.00459491
-0.003109
-0.00218227
-0.00164165
-0.00127869
-0.000991212
-0.000725858
-0.000468262
-0.000254078
-6.0899e-05
-0.130624
-0.126596
-0.1234
-0.12732
-0.111526
-0.115485
-0.118386
-0.120379
-0.14462
-0.151005
-0.146783
-0.147887
-0.129902
-0.121353
-0.113738
-0.101746
-0.108463
-0.106837
-0.105643
-0.125834
-0.134011
-0.117271
-0.0918364
-0.0663155
-0.0540235
-0.04775
-0.0628243
-0.175171
-0.237146
-0.235439
-0.209626
-0.162427
-0.108212
-0.0448667
0.00440864
0.0188397
0.012009
0.0048469
0.00508591
0.0180912
0.0135767
-0.0409697
-0.080059
-0.0573266
-0.00748648
0.0181607
0.00980098
-0.00475169
-0.0244324
-0.0500557
-0.0437336
-0.0214911
-0.0113311
-0.00767809
-0.00910612
-0.00794189
0.000170281
-0.000659878
-0.0187422
-0.0369944
-0.0460966
-0.0512947
-0.0458001
-0.021774
9.01602e-05
0.00666032
0.00286342
-0.00247113
-0.00327887
8.84623e-05
-0.000798679
-0.00881175
-0.0200281
-0.0253815
-0.0160058
-0.000305036
0.00817373
0.00684618
0.00193941
-0.00379015
-0.00836471
-0.00828712
-0.00349972
0.000957714
0.00112868
-0.00229694
-0.00631913
-0.00868083
-0.00853121
-0.0067302
-0.00464898
-0.00309279
-0.00214403
-0.00160907
-0.00125942
-0.000983619
-0.000723858
-0.000468523
-0.000253953
-5.91562e-05
-0.12874
-0.126215
-0.123783
-0.125887
-0.113808
-0.115622
-0.118035
-0.120026
-0.138812
-0.147085
-0.144366
-0.145042
-0.132807
-0.122358
-0.112336
-0.100401
-0.101979
-0.102478
-0.109241
-0.127388
-0.130622
-0.114491
-0.0914313
-0.0673743
-0.055747
-0.0508362
-0.0634914
-0.174108
-0.235498
-0.234458
-0.207878
-0.161601
-0.107024
-0.0411205
0.0102054
0.025773
0.0179142
0.00895794
0.008377
0.0216936
0.0170486
-0.0386107
-0.0791351
-0.0564796
-0.00437413
0.0231966
0.0156176
0.000300447
-0.0224908
-0.0531111
-0.0472565
-0.0215875
-0.00901791
-0.00439675
-0.00605611
-0.00552904
0.00149383
2.66224e-05
-0.0183034
-0.0370603
-0.0466266
-0.0517743
-0.0458883
-0.021
0.00179074
0.00920785
0.00572219
2.24989e-05
-0.00152789
0.00109482
-0.000428818
-0.00901025
-0.0205533
-0.0258443
-0.0159875
0.000310307
0.00920571
0.0078369
0.00245314
-0.00388715
-0.00878904
-0.00861805
-0.00344385
0.0013874
0.00168602
-0.00192623
-0.00628886
-0.00889201
-0.00877222
-0.00687813
-0.00469495
-0.00307726
-0.00210931
-0.00157949
-0.00124168
-0.000976228
-0.000721302
-0.000468082
-0.000253003
-5.71402e-05
-0.126622
-0.125742
-0.124155
-0.124238
-0.116062
-0.115629
-0.117176
-0.119606
-0.13319
-0.142818
-0.142323
-0.142572
-0.135297
-0.123365
-0.110702
-0.0991622
-0.0962609
-0.0975683
-0.111667
-0.128986
-0.128418
-0.112773
-0.0916959
-0.0689183
-0.0583354
-0.0547424
-0.0649872
-0.17143
-0.232348
-0.232572
-0.205358
-0.160139
-0.10518
-0.03699
0.0158913
0.0321806
0.0232676
0.0127087
0.0114169
0.0250412
0.0205577
-0.0354383
-0.0772658
-0.0548654
-0.000627668
0.028341
0.0209852
0.00494269
-0.0203847
-0.0551096
-0.0497136
-0.0215213
-0.00683001
-0.00137026
-0.00340041
-0.00347212
0.00260592
0.000665909
-0.0177362
-0.0369077
-0.0469481
-0.0520495
-0.0457358
-0.0200778
0.00341776
0.0115302
0.00831593
0.00224895
2.98014e-05
0.00200253
-3.66202e-05
-0.00908217
-0.0208905
-0.0260951
-0.0158154
0.000918531
0.0100757
0.00865767
0.00289807
-0.00394203
-0.00911
-0.00885247
-0.00335464
0.00176887
0.00215693
-0.00161054
-0.00625846
-0.00906623
-0.00897248
-0.00700095
-0.0047326
-0.00306298
-0.00207873
-0.00155328
-0.00122566
-0.000969077
-0.00071823
-0.000467015
-0.000251334
-5.50136e-05
-0.124475
-0.1252
-0.124386
-0.122507
-0.118113
-0.115545
-0.115967
-0.119071
-0.128016
-0.138458
-0.140583
-0.140613
-0.13735
-0.124361
-0.10911
-0.0978932
-0.0915163
-0.0927246
-0.11271
-0.1302
-0.127212
-0.111989
-0.0923734
-0.0706704
-0.0606887
-0.0593173
-0.0672834
-0.167934
-0.227839
-0.229871
-0.202247
-0.15815
-0.102771
-0.0325648
0.0214233
0.038006
0.0280228
0.0160677
0.0141731
0.0281094
0.0240121
-0.0316651
-0.0746646
-0.0525743
0.00367054
0.0335035
0.0257967
0.00916871
-0.0180656
-0.0559929
-0.0510603
-0.0212994
-0.00478936
0.00131216
-0.00117173
-0.0018019
0.00348033
0.00121599
-0.0170738
-0.0365578
-0.0470694
-0.0521344
-0.0453609
-0.0190346
0.00494438
0.0136076
0.0106161
0.00418516
0.0013829
0.00279607
0.000354432
-0.00904722
-0.0210556
-0.0261504
-0.0155045
0.00150947
0.010779
0.00931182
0.00327437
-0.00395817
-0.0093304
-0.008992
-0.00323661
0.00209461
0.00253631
-0.0013492
-0.00622424
-0.00919836
-0.00912846
-0.00709746
-0.0047621
-0.00305051
-0.00205277
-0.0015307
-0.00121147
-0.000962264
-0.000714794
-0.000465502
-0.000249182
-5.29618e-05
-0.122476
-0.124645
-0.124427
-0.120856
-0.119841
-0.115411
-0.114592
-0.118427
-0.123443
-0.134199
-0.139085
-0.139194
-0.138944
-0.125347
-0.107782
-0.0965792
-0.087845
-0.0886237
-0.112597
-0.130733
-0.126715
-0.11183
-0.0931673
-0.0722147
-0.063027
-0.0638466
-0.0706523
-0.163985
-0.222087
-0.226435
-0.198685
-0.155786
-0.0998954
-0.0279457
0.0267671
0.0432087
0.0321542
0.0190154
0.0166174
0.0308682
0.0274098
-0.0275944
-0.0715996
-0.0497598
0.00837559
0.038528
0.0299507
0.012938
-0.0155821
-0.0558301
-0.051375
-0.0209262
-0.00291133
0.0035694
0.00062178
-0.000524849
0.00410594
0.00164184
-0.0163485
-0.0360318
-0.047
-0.0520406
-0.0447847
-0.017902
0.0063483
0.0154309
0.0126023
0.00582056
0.00252648
0.00346331
0.000720209
-0.00892807
-0.0210667
-0.0260284
-0.0150733
0.00207256
0.0113162
0.00980913
0.00358474
-0.00393999
-0.00945645
-0.00904195
-0.00309606
0.00235767
0.00282442
-0.0011397
-0.00618319
-0.00928552
-0.00923854
-0.0071677
-0.00478405
-0.00304039
-0.00203175
-0.00151191
-0.00119925
-0.000955957
-0.000711259
-0.000463794
-0.000246867
-5.11652e-05
-0.120843
-0.124115
-0.124333
-0.119444
-0.12118
-0.11528
-0.113215
-0.1177
-0.119568
-0.130193
-0.137756
-0.138257
-0.140043
-0.126269
-0.106845
-0.0953551
-0.0852664
-0.0856704
-0.111813
-0.130567
-0.126532
-0.111904
-0.0938099
-0.0734591
-0.0651858
-0.0681796
-0.0746003
-0.15911
-0.215149
-0.222293
-0.194842
-0.15319
-0.096656
-0.023242
0.031901
0.047766
0.0356562
0.0215418
0.0187301
0.033272
0.0307426
-0.0234323
-0.0682998
-0.0466041
0.0133447
0.0432403
0.0334415
0.0161983
-0.0130843
-0.0548499
-0.0508636
-0.0204074
-0.00121505
0.00534502
0.00199453
0.000379449
0.00449054
0.00191993
-0.0155954
-0.0353534
-0.0467506
-0.0517761
-0.044032
-0.0167172
0.00761248
0.0169998
0.0142625
0.00715809
0.0034614
0.00399631
0.00103727
-0.00875022
-0.0209435
-0.0257469
-0.0145435
0.00259579
0.0116937
0.0101645
0.00383308
-0.00389213
-0.0094957
-0.00901092
-0.00294146
0.00255255
0.00302579
-0.00097853
-0.00613377
-0.00932808
-0.00930326
-0.00721329
-0.00479946
-0.00303309
-0.00201578
-0.00149699
-0.00118914
-0.000950385
-0.000707939
-0.000462154
-0.00024471
-4.97697e-05
-0.119665
-0.123616
-0.124199
-0.118378
-0.122121
-0.115204
-0.11196
-0.116931
-0.116481
-0.126621
-0.136524
-0.137678
-0.140622
-0.127008
-0.106348
-0.0944248
-0.083701
-0.0839252
-0.110803
-0.129841
-0.126286
-0.111899
-0.0941459
-0.0743442
-0.0670098
-0.072031
-0.0786779
-0.15246
-0.206897
-0.217328
-0.190932
-0.150531
-0.0931545
-0.0185597
0.036798
0.0516654
0.0385388
0.0236469
0.0204977
0.0352672
0.0338578
-0.0191464
-0.0648339
-0.0432445
0.018496
0.0474604
0.0363566
0.0189331
-0.0107652
-0.0534079
-0.0498239
-0.0197543
0.000266315
0.00660952
0.00297492
0.000955827
0.00466258
0.00204317
-0.0148526
-0.0345563
-0.0463368
-0.0513453
-0.0431346
-0.0155256
0.00872526
0.0183197
0.0155915
0.00821342
0.00419415
0.00439249
0.00128538
-0.00854252
-0.0207098
-0.0253271
-0.0139427
0.00306412
0.011925
0.0103964
0.00402347
-0.00382079
-0.0094584
-0.0089126
-0.00278491
0.00267739
0.00314911
-0.000861616
-0.0060766
-0.00933031
-0.00932939
-0.00723751
-0.00480977
-0.00302897
-0.00200486
-0.00148594
-0.00118125
-0.000945764
-0.000705103
-0.000460784
-0.00024295
-4.88592e-05
-0.118961
-0.123151
-0.124073
-0.117709
-0.122677
-0.115204
-0.110932
-0.116161
-0.114252
-0.123687
-0.135333
-0.137293
-0.140709
-0.127457
-0.106298
-0.0939388
-0.0830068
-0.0832299
-0.10981
-0.128663
-0.125722
-0.111622
-0.0941672
-0.0748821
-0.0684051
-0.0750151
-0.0824735
-0.143988
-0.197448
-0.211312
-0.187164
-0.147893
-0.0894898
-0.0140068
0.0413994
0.054901
0.0408308
0.0253425
0.0219066
0.0368074
0.0365068
-0.0147417
-0.0610857
-0.0396652
0.0237594
0.0509796
0.0387675
0.0211804
-0.00874467
-0.0518277
-0.0485453
-0.0189843
0.00147568
0.00737215
0.0036041
0.00127138
0.00466728
0.00202335
-0.0141581
-0.0336934
-0.0457891
-0.0507566
-0.0421394
-0.0143826
0.00968177
0.0193978
0.0165937
0.00901279
0.00473715
0.0046566
0.00145108
-0.00833611
-0.020398
-0.0248048
-0.0133124
0.00345875
0.0120315
0.0105259
0.00416047
-0.00373517
-0.00936241
-0.00876982
-0.00264255
0.00273669
0.00320577
-0.000784597
-0.00601479
-0.00930017
-0.00932438
-0.00724492
-0.00481666
-0.00302824
-0.00199882
-0.00147868
-0.00117563
-0.000942207
-0.000702883
-0.000459765
-0.000241688
-4.84364e-05
-0.118677
-0.122739
-0.123957
-0.117428
-0.122888
-0.115255
-0.110234
-0.115459
-0.112879
-0.121562
-0.13418
-0.136952
-0.14041
-0.127603
-0.106633
-0.0938999
-0.0829832
-0.0833334
-0.108928
-0.127143
-0.124779
-0.111054
-0.0939091
-0.0751535
-0.0693275
-0.077172
-0.0855307
-0.13484
-0.187497
-0.204163
-0.183716
-0.14532
-0.0858101
-0.00956839
0.0456444
0.0574571
0.0425782
0.0266513
0.022948
0.037858
0.0384896
-0.0104941
-0.0569052
-0.0356892
0.0289457
0.0536526
0.0406634
0.0230003
-0.00697053
-0.0502006
-0.047171
-0.0181102
0.0023367
0.00778995
0.0039425
0.00141029
0.00456288
0.00189033
-0.0135494
-0.032837
-0.0451761
-0.0498937
-0.0411332
-0.0133588
0.0104853
0.0202367
0.017289
0.00958691
0.00510906
0.00480284
0.00153083
-0.00815949
-0.0200532
-0.0242482
-0.0127128
0.00376176
0.0120424
0.0105747
0.00424945
-0.00364688
-0.00923459
-0.00861327
-0.00252942
0.0027421
0.00320872
-0.000742785
-0.00595353
-0.00924823
-0.00929746
-0.00724048
-0.00482164
-0.00303088
-0.00199725
-0.00147492
-0.00117211
-0.000939668
-0.000701242
-0.000459056
-0.000240885
-4.84188e-05
-0.118682
-0.122421
-0.123814
-0.117461
-0.12283
-0.115306
-0.109926
-0.114893
-0.112269
-0.120289
-0.133127
-0.136587
-0.139879
-0.127487
-0.107242
-0.0941671
-0.0833869
-0.0839594
-0.108222
-0.125453
-0.123517
-0.110307
-0.0935572
-0.0751688
-0.0698088
-0.0783703
-0.0877647
-0.126499
-0.177948
-0.197024
-0.18074
-0.142889
-0.082298
-0.00527688
0.0493698
0.0593083
0.0438424
0.0276023
0.0236443
0.038422
0.0396875
-0.00690002
-0.0523403
-0.0312418
0.0335687
0.0555179
0.0420408
0.0243813
-0.00540352
-0.0484695
-0.0456859
-0.0171765
0.00280782
0.00793675
0.00406947
0.0014609
0.00440561
0.00168854
-0.0130669
-0.0320697
-0.0445692
-0.0492536
-0.0402043
-0.0125069
0.0111458
0.0208282
0.0177199
0.0099658
0.00533662
0.00485417
0.00153297
-0.00803227
-0.019726
-0.02375
-0.0122079
0.00396801
0.0119908
0.0105647
0.00429649
-0.00356728
-0.00910174
-0.00846764
-0.00245031
0.00271083
0.00317252
-0.000730578
-0.00589922
-0.00918628
-0.00925803
-0.0072288
-0.00482562
-0.00303623
-0.00199929
-0.00147403
-0.00117032
-0.000937945
-0.000700016
-0.000458528
-0.000240396
-4.86547e-05
-0.11882
-0.122242
-0.123602
-0.117683
-0.122609
-0.115314
-0.109977
-0.114504
-0.112225
-0.119754
-0.132278
-0.136223
-0.139273
-0.127155
-0.10771
-0.0946451
-0.0840344
-0.0848083
-0.10776
-0.123901
-0.122273
-0.109546
-0.0932463
-0.0750409
-0.0699637
-0.0786514
-0.0889878
-0.120084
-0.169539
-0.190518
-0.178117
-0.140556
-0.0789858
-0.0013413
0.0522977
0.0604891
0.044689
0.0282299
0.024042
0.0385957
0.0400979
-0.00419934
-0.048184
-0.0268151
0.0369634
0.0566887
0.0429379
0.0252624
-0.00417872
-0.0467524
-0.0441538
-0.0163628
0.00294965
0.00788999
0.00407508
0.00149124
0.0042894
0.00146996
-0.0127436
-0.0314908
-0.044035
-0.0486806
-0.0393564
-0.0118648
0.0116542
0.021171
0.0179395
0.0101796
0.0054561
0.00484203
0.00147773
-0.0079644
-0.0194568
-0.0233606
-0.0118356
0.00409312
0.0119086
0.0105178
0.0043081
-0.00350589
-0.00898209
-0.00834569
-0.0023974
0.00266305
0.00311416
-0.000740731
-0.0058586
-0.00912661
-0.00921498
-0.0072137
-0.00482851
-0.00304279
-0.00200339
-0.00147497
-0.00116965
-0.000936765
-0.000699013
-0.000458033
-0.00024003
-4.89526e-05
-0.118959
-0.122206
-0.123349
-0.11796
-0.122364
-0.115267
-0.110245
-0.114293
-0.112409
-0.119718
-0.131737
-0.13593
-0.138785
-0.12674
-0.107952
-0.0949168
-0.0844836
-0.0855124
-0.107623
-0.122818
-0.12137
-0.108961
-0.0930615
-0.0748565
-0.0699876
-0.0784775
-0.0891607
-0.116434
-0.163615
-0.185683
-0.175881
-0.138647
-0.0764016
0.00158971
0.0541435
0.0610718
0.0451526
0.0285972
0.0242142
0.0385007
0.0398979
-0.00266468
-0.0452445
-0.0236576
0.0391685
0.0572639
0.0434338
0.0256238
-0.00355182
-0.0454826
-0.0429764
-0.0158763
0.00288094
0.00775712
0.0040392
0.00153219
0.00422552
0.00127962
-0.0126816
-0.0311291
-0.0436725
-0.048244
-0.0387203
-0.0113893
0.0119688
0.021291
0.0179858
0.0102658
0.00550883
0.00480806
0.00139169
-0.00796377
-0.0192845
-0.0231122
-0.0115945
0.00417109
0.0118267
0.0104579
0.00429047
-0.00347413
-0.00889227
-0.00825313
-0.00235732
0.00262065
0.00305685
-0.000765242
-0.0058392
-0.00908273
-0.00917979
-0.00719819
-0.00482883
-0.0030477
-0.00200712
-0.00147624
-0.00116938
-0.00093581
-0.000698024
-0.000457388
-0.000239518
-4.90564e-05
-0.118994
-0.122276
-0.12303
-0.118215
-0.122245
-0.11518
-0.110673
-0.114238
-0.112638
-0.119972
-0.131561
-0.13579
-0.138537
-0.126434
-0.107981
-0.0950246
-0.0846962
-0.0861904
-0.107631
-0.122336
-0.120869
-0.108587
-0.0929052
-0.0746995
-0.0699617
-0.0781521
-0.089097
-0.115956
-0.161489
-0.183492
-0.174637
-0.137699
-0.0750547
0.00308048
0.0549502
0.0612276
0.0452244
0.0287315
0.0244827
0.0384539
0.0391049
-0.00238525
-0.043934
-0.0220529
0.040261
0.0574616
0.0434143
0.0254013
-0.00365028
-0.0449533
-0.0423264
-0.0156686
0.00279597
0.00764325
0.0040002
0.00160182
0.00423234
0.00110889
-0.0128506
-0.0311282
-0.0435812
-0.0480397
-0.0383488
-0.0110971
0.0121247
0.0213136
0.0178902
0.0102522
0.00552114
0.00478294
0.00128204
-0.00805004
-0.0192515
-0.0229421
-0.0114811
0.00425912
0.0117917
0.0104044
0.00424011
-0.00348901
-0.0088549
-0.00818752
-0.0023127
0.00260815
0.00302138
-0.000802443
-0.00585087
-0.00906814
-0.0091617
-0.0071825
-0.00482273
-0.0030465
-0.00200711
-0.00147594
-0.00116852
-0.000934592
-0.000696634
-0.00045618
-0.000238341
-4.85176e-05
-0.127944
-0.126571
-0.126798
-0.125062
-0.125195
-0.126625
-0.128631
-0.13401
-0.137856
-0.141353
-0.141998
-0.135637
-0.131041
-0.128829
-0.127273
-0.129022
-0.121016
-0.120917
-0.126648
-0.157649
-0.171721
-0.153864
-0.18153
-0.139933
-0.0161904
0.0536787
0.0688174
0.0420827
0.00320505
-0.0313612
-0.0583322
-0.0733682
-0.0656995
-0.0487153
-0.0516518
-0.0672902
-0.0667054
-0.0535075
-0.0310342
0.0157157
0.0605905
0.0546046
0.0375001
0.0371925
0.0393723
0.0177659
-0.027342
-0.041375
-0.0172352
0.00420086
0.00784741
-0.00669146
-0.0295161
-0.0453575
-0.0496925
-0.0332709
0.00429054
0.029924
0.0289721
0.0184597
0.00967159
0.00189865
-0.00255425
-0.00282531
-0.00902266
-0.0224359
-0.0356438
-0.0381977
-0.0265681
-0.00529748
0.0129608
0.0209361
0.0179651
0.0110805
0.00440862
-0.00319101
-0.012197
-0.0145435
-0.00645903
0.00192151
0.00474495
0.00275893
-0.00102063
-0.00529754
-0.00864574
-0.00918709
-0.00707634
-0.0047196
-0.00349843
-0.00330524
-0.00336279
-0.00320747
-0.00275561
-0.00216507
-0.0015766
-0.00108569
-0.000699866
-0.000405356
-0.00019144
-2.9677e-05
-0.12797
-0.126591
-0.126797
-0.125072
-0.125145
-0.126582
-0.128501
-0.133972
-0.137923
-0.141422
-0.142132
-0.135694
-0.131084
-0.128902
-0.127242
-0.129081
-0.121603
-0.121207
-0.126009
-0.158822
-0.173459
-0.154484
-0.182623
-0.143659
-0.0199685
0.051977
0.067823
0.0416065
0.00289894
-0.0316847
-0.0586871
-0.0737551
-0.0659689
-0.0485758
-0.0512976
-0.0674846
-0.0671226
-0.0536977
-0.0318157
0.0144807
0.060395
0.0548835
0.0373968
0.0371031
0.0396505
0.0181597
-0.0278304
-0.0421961
-0.0179684
0.00405035
0.00800847
-0.00641553
-0.0295678
-0.0455655
-0.0500699
-0.0338548
0.00379421
0.029638
0.0288773
0.0184424
0.00973718
0.00194455
-0.00255982
-0.00278018
-0.00886745
-0.0223946
-0.0356809
-0.0383881
-0.026828
-0.00546406
0.0128328
0.0209531
0.0180445
0.011119
0.0044598
-0.00313417
-0.0122244
-0.0146407
-0.00653152
0.00191922
0.00477827
0.0027917
-0.000996172
-0.00528355
-0.00865749
-0.00921078
-0.00709747
-0.00472232
-0.00349416
-0.0033027
-0.00336369
-0.00321001
-0.00275864
-0.00216745
-0.00157835
-0.00108705
-0.000701127
-0.000406414
-0.000192522
-3.01964e-05
-0.128015
-0.126614
-0.126797
-0.12506
-0.125035
-0.126521
-0.12836
-0.133902
-0.138045
-0.141605
-0.142452
-0.135772
-0.131076
-0.128936
-0.127238
-0.129576
-0.122882
-0.121367
-0.126653
-0.163042
-0.177708
-0.154838
-0.1842
-0.148724
-0.0245993
0.0483625
0.0653402
0.0401137
0.00139613
-0.0332008
-0.0598132
-0.0745109
-0.0663304
-0.0482637
-0.0510917
-0.0683019
-0.068048
-0.0545578
-0.0338084
0.0115109
0.0591936
0.0547052
0.0370722
0.0371262
0.0399851
0.0178489
-0.0294931
-0.04411
-0.0194508
0.00388879
0.0082224
-0.0065424
-0.0301813
-0.0461697
-0.050816
-0.0348959
0.00287566
0.0290816
0.0285005
0.018098
0.00953443
0.0018415
-0.0025837
-0.00268325
-0.00877456
-0.0225644
-0.0359483
-0.0387857
-0.0272771
-0.00577861
0.012588
0.02093
0.0180496
0.0110779
0.00444362
-0.00314068
-0.012331
-0.0148197
-0.0066219
0.00195976
0.00484878
0.00282658
-0.000984325
-0.00528991
-0.00869619
-0.00925568
-0.00711923
-0.00471582
-0.00348314
-0.00329938
-0.00336674
-0.00321457
-0.00276169
-0.00216883
-0.00157865
-0.00108709
-0.000701279
-0.000406547
-0.000192795
-3.00052e-05
-0.128085
-0.126644
-0.126796
-0.12503
-0.12486
-0.126425
-0.12815
-0.133832
-0.138222
-0.141895
-0.142964
-0.135889
-0.131025
-0.128811
-0.127219
-0.130818
-0.125035
-0.120488
-0.127513