/*--------------------------------*- C++ -*----------------------------------*\
| =========                 |                                                 |
| \\      /  F ield         | OpenFOAM: The Open Source CFD Toolbox           |
|  \\    /   O peration     | Version:  2.4.0                                 |
|   \\  /    A nd           | Web:      www.OpenFOAM.org                      |
|    \\/     M anipulation  |                                                 |
\*---------------------------------------------------------------------------*/
FoamFile
{
    version     2.0;
    format      ascii;
    class       volScalarField;
    location    "1.19";
    object      nuSgs;
}
// * * * * * * * * * * * * * * * * * * * * * * * * * * * * * * * * * * * * * //

dimensions      [0 2 -1 0 0 0 0];

internalField   nonuniform List<scalar> 
8800
(
0.00133859
0.00150698
0.00139256
0.00122968
0.00112035
0.00105106
0.000996581
0.000961169
0.000924365
0.000906133
0.000878454
0.000868917
0.000846438
0.000841495
0.000821529
0.000817481
0.000799091
0.000795635
0.000787743
0.000764628
0.000554292
0.000982126
0.00108286
0.00108137
0.00106282
0.00103479
0.00100106
0.000978577
0.000947604
0.000933007
0.000906295
0.000896413
0.000875633
0.000869159
0.00085219
0.000847042
0.00083278
0.000827771
0.000815724
0.000813843
0.000135682
0.00040638
0.000584198
0.000657798
0.000705017
0.000738721
0.000749971
0.000761146
0.000760346
0.000759278
0.000754067
0.000751621
0.000744888
0.000741256
0.000735346
0.000731891
0.000726701
0.000721517
0.000714851
0.000711793
2.69145e-05
0.000125573
0.000234467
0.000307764
0.000355368
0.000399088
0.000426636
0.000453707
0.000477798
0.000490835
0.000506159
0.000517108
0.000529205
0.000534342
0.000544948
0.000548777
0.000557746
0.000558192
0.000560329
0.000559903
5.12195e-06
3.35074e-05
7.31524e-05
0.00010436
0.000136153
0.000167447
0.000191007
0.000209182
0.000236946
0.000248066
0.000267188
0.000278162
0.000295722
0.000303887
0.000320925
0.000328501
0.000345286
0.000351041
0.000360555
0.000367196
2.37145e-06
8.44464e-06
1.96375e-05
2.85461e-05
3.77187e-05
5.27079e-05
6.46169e-05
7.27733e-05
8.91742e-05
9.64182e-05
0.00010857
0.000116345
0.000126692
0.000134792
0.000146455
0.000152429
0.000165718
0.000174398
0.000179308
0.000188794
2.20762e-06
3.13209e-06
5.43385e-06
8.14176e-06
9.69918e-06
1.35234e-05
1.62689e-05
2.09749e-05
2.44574e-05
2.9132e-05
3.15888e-05
3.71195e-05
3.9577e-05
4.51938e-05
4.85082e-05
5.48859e-05
5.86183e-05
6.63494e-05
6.9651e-05
7.61361e-05
2.16903e-06
2.81141e-06
3.27871e-06
4.1275e-06
4.33252e-06
4.97307e-06
5.35487e-06
6.42952e-06
7.0033e-06
8.17019e-06
8.53999e-06
9.99528e-06
1.03633e-05
1.20045e-05
1.26867e-05
1.50368e-05
1.59523e-05
1.93743e-05
2.08402e-05
2.41357e-05
2.14559e-06
2.54591e-06
3.00725e-06
3.77678e-06
3.94291e-06
4.01087e-06
4.00705e-06
4.03717e-06
4.11411e-06
4.39985e-06
4.69052e-06
4.78899e-06
4.77657e-06
4.8675e-06
4.92633e-06
5.23441e-06
5.39989e-06
6.20569e-06
6.47113e-06
6.99872e-06
2.1348e-06
2.52069e-06
2.84217e-06
3.41991e-06
3.7728e-06
3.83335e-06
3.87768e-06
3.98349e-06
3.98132e-06
3.9506e-06
3.97503e-06
4.1189e-06
4.13395e-06
4.14425e-06
4.17587e-06
4.18371e-06
4.17778e-06
4.24038e-06
4.36263e-06
4.41242e-06
2.12913e-06
2.45639e-06
3.28484e-06
3.50895e-06
3.48038e-06
3.66564e-06
3.89981e-06
4.02279e-06
4.00694e-06
3.95514e-06
3.95451e-06
4.07301e-06
4.11597e-06
4.13337e-06
4.14938e-06
4.18249e-06
4.23543e-06
4.29255e-06
4.30534e-06
4.4275e-06
2.14386e-06
2.54639e-06
2.93426e-06
3.42667e-06
3.92783e-06
4.11154e-06
4.15181e-06
4.18069e-06
4.16728e-06
4.19328e-06
4.44879e-06
4.65007e-06
4.67433e-06
4.87899e-06
5.02658e-06
5.19619e-06
5.32822e-06
5.63343e-06
5.81592e-06
6.22359e-06
2.15486e-06
2.65288e-06
3.19792e-06
4.16673e-06
4.57856e-06
5.06928e-06
5.40062e-06
6.20704e-06
6.65501e-06
7.75064e-06
8.75319e-06
9.78656e-06
1.04007e-05
1.23431e-05
1.32875e-05
1.47696e-05
1.58714e-05
1.83049e-05
1.96653e-05
2.26834e-05
2.18726e-06
3.07675e-06
5.08034e-06
8.94637e-06
1.08979e-05
1.40525e-05
1.63284e-05
2.11065e-05
2.35782e-05
2.91987e-05
3.22203e-05
3.77827e-05
4.04422e-05
4.68245e-05
4.95772e-05
5.50738e-05
5.86848e-05
6.65516e-05
7.05142e-05
8.03424e-05
2.34871e-06
8.21543e-06
1.78333e-05
3.25146e-05
4.08454e-05
5.30424e-05
6.12623e-05
7.70872e-05
8.43537e-05
9.94538e-05
0.000106661
0.000119889
0.000125694
0.000139086
0.000144555
0.000156183
0.000162811
0.00017787
0.000184849
0.000204196
5.23383e-06
3.29339e-05
6.93135e-05
0.00011153
0.000140033
0.000164265
0.000186819
0.000216423
0.000228808
0.000252612
0.000264716
0.000282823
0.000291188
0.000310034
0.000317183
0.000332994
0.000341112
0.000360041
0.0003681
0.00038952
2.72952e-05
0.000123845
0.000239104
0.000304931
0.000360192
0.000392126
0.000429817
0.000454585
0.00047363
0.000492717
0.000507187
0.000517461
0.000525937
0.000538281
0.000542595
0.000551608
0.000555924
0.000566385
0.000570263
0.000579964
0.000136733
0.00040065
0.000588463
0.000654615
0.000710014
0.000731935
0.000755546
0.000757417
0.000761399
0.000757862
0.000756319
0.000748775
0.000746557
0.000739467
0.000737258
0.000730641
0.000729286
0.000725272
0.000723537
0.000719448
0.000557433
0.000980026
0.00108426
0.00108058
0.0010647
0.00102947
0.00100676
0.000971402
0.000955824
0.000924319
0.000913358
0.000889244
0.000882123
0.000861997
0.000857721
0.000841395
0.000837382
0.000821659
0.000816829
0.000803402
0.00133932
0.00150552
0.00139402
0.00122679
0.00112355
0.00104681
0.00100123
0.000954852
0.000931995
0.000897558
0.000885985
0.000860298
0.000854643
0.00083195
0.000828426
0.000807099
0.000802822
0.000778056
0.000769914
0.000738979
0.000349881
0.000294526
0.000258202
0.000235201
0.000221713
0.000213517
0.000207699
0.000203848
0.000200334
0.000197478
0.000194417
0.000191358
0.000188954
0.00018604
0.000184115
0.000181773
0.000180403
0.000178754
0.000177637
0.000176383
0.000175405
0.00017439
0.000173541
0.000172814
0.00017206
0.000171624
0.000170916
0.000170629
0.000169996
0.000169662
0.000168922
0.000168496
0.000167539
0.000166648
0.000165301
0.000163491
0.000161678
0.000159084
0.000157221
0.000153951
0.000152823
0.000151735
0.000151963
0.000152624
0.000154168
0.000155725
0.000157557
0.000159582
0.000160471
0.000162312
0.000162779
0.000164083
0.000164276
0.000165169
0.000165322
0.000165986
0.000166535
0.000167618
0.00016876
0.000169973
0.000170736
0.000170833
0.000168917
0.000163102
0.000149279
0.000132049
0.000121001
0.000113884
0.000108515
0.000104148
0.000100861
9.72627e-05
9.4255e-05
9.13686e-05
8.66593e-05
8.37659e-05
8.36556e-05
8.4628e-05
8.78054e-05
9.47359e-05
0.000102053
0.00011296
0.000123231
0.000128823
0.000134589
0.000136836
0.000137963
0.000138209
0.000137897
0.00013739
0.000135697
0.000133013
0.000127745
0.000120101
0.000114599
0.000101575
8.92331e-05
7.51866e-05
6.21182e-05
5.24753e-05
4.36524e-05
3.62107e-05
3.1015e-05
2.63644e-05
2.3049e-05
2.04205e-05
1.83655e-05
1.74449e-05
1.662e-05
1.57488e-05
1.57284e-05
1.58952e-05
1.60169e-05
1.64106e-05
1.6794e-05
1.72236e-05
1.82267e-05
2.0079e-05
2.1988e-05
2.54633e-05
3.04507e-05
3.57714e-05
4.52088e-05
5.61331e-05
6.52151e-05
7.87403e-05
8.47414e-05
9.13725e-05
9.27273e-05
9.17808e-05
8.83871e-05
8.48557e-05
7.74254e-05
6.853e-05
5.9868e-05
5.20975e-05
4.4722e-05
4.20952e-05
3.80797e-05
3.69216e-05
3.54168e-05
3.45966e-05
3.22993e-05
2.85359e-05
2.50791e-05
2.44609e-05
2.49133e-05
2.51094e-05
2.54919e-05
2.74467e-05
3.51682e-05
4.8532e-05
7.667e-05
0.000143611
0.000162027
0.000156159
0.000126682
0.000106239
8.87347e-05
8.13189e-05
7.6825e-05
8.04415e-05
8.1044e-05
7.67785e-05
6.24944e-05
5.34248e-05
4.95162e-05
4.75872e-05
4.68734e-05
4.68861e-05
4.71172e-05
4.70825e-05
4.58019e-05
4.63894e-05
4.75301e-05
5.14208e-05
6.22971e-05
6.64813e-05
7.01596e-05
6.99054e-05
6.99794e-05
7.09795e-05
7.19997e-05
7.36335e-05
7.68911e-05
8.24041e-05
8.78846e-05
9.18003e-05
0.000103224
0.000111095
0.000111353
0.000110033
0.000109695
9.99465e-05
7.68937e-05
6.3626e-05
5.9552e-05
6.16491e-05
8.9226e-05
0.000213779
0.000411586
0.000373665
0.000342677
0.000317425
0.000296976
0.000280337
0.000268192
0.00025805
0.000250871
0.000244228
0.000239458
0.000233971
0.000229672
0.000224862
0.000221116
0.000217719
0.000214619
0.000212407
0.000209891
0.000208255
0.000206033
0.00020463
0.000202432
0.000201346
0.000199315
0.000198423
0.000196755
0.000196033
0.000194697
0.000194101
0.00019297
0.000192343
0.000191391
0.000190364
0.000189645
0.000188084
0.000187287
0.000185498
0.000184524
0.000182642
0.000181378
0.000179996
0.000178261
0.000177694
0.000176349
0.000176024
0.00017525
0.00017521
0.000174767
0.000174728
0.000174364
0.000174243
0.000173863
0.000173675
0.000173323
0.000173199
0.000173264
0.000173604
0.000174127
0.000175486
0.000176592
0.000178911
0.000179815
0.000179702
0.000178563
0.000175338
0.000168381
0.000158463
0.000147654
0.000138253
0.000131404
0.00012516
0.000120999
0.000118217
0.000118105
0.000118833
0.00012101
0.00012494
0.000129444
0.000134497
0.000136391
0.000138998
0.000139767
0.000139653
0.00013975
0.000139118
0.000137747
0.000134716
0.000131371
0.000126385
0.000119122
0.000110532
9.85263e-05
8.62939e-05
7.31876e-05
6.03707e-05
5.01456e-05
4.14338e-05
3.41356e-05
2.85227e-05
2.37842e-05
2.04036e-05
1.78035e-05
1.59166e-05
1.50031e-05
1.41708e-05
1.39648e-05
1.39847e-05
1.38382e-05
1.38704e-05
1.43754e-05
1.45612e-05
1.46092e-05
1.48993e-05
1.48956e-05
1.50472e-05
1.55692e-05
1.5791e-05
1.6276e-05
1.73387e-05
1.96349e-05
2.19804e-05
2.62086e-05
3.3008e-05
3.71716e-05
4.67364e-05
5.16262e-05
5.67229e-05
5.97631e-05
5.95539e-05
5.83028e-05
5.56135e-05
5.14528e-05
4.6245e-05
4.30018e-05
3.86458e-05
3.65978e-05
3.53047e-05
3.43014e-05
3.26496e-05
3.1849e-05
2.91341e-05
2.61831e-05
2.41484e-05
2.324e-05
2.34341e-05
2.43386e-05
2.4716e-05
2.5815e-05
3.02558e-05
4.28257e-05
5.74905e-05
9.22101e-05
0.000151829
0.000163596
0.000148754
0.000121833
0.000103153
9.06882e-05
8.47404e-05
8.34908e-05
9.34636e-05
9.61841e-05
8.89267e-05
6.93279e-05
5.64054e-05
5.19488e-05
4.92725e-05
4.72913e-05
4.7212e-05
4.64353e-05
4.68096e-05
4.56413e-05
4.55755e-05
4.91386e-05
5.27629e-05
6.28128e-05
6.61063e-05
6.81354e-05
6.89696e-05
6.88115e-05
6.95668e-05
6.99279e-05
7.10472e-05
7.4045e-05
7.86269e-05
8.33882e-05
8.58723e-05
9.33528e-05
0.000100577
0.000106052
0.000109653
0.000109662
0.000100518
7.67446e-05
6.08187e-05
5.98839e-05
6.05872e-05
8.69231e-05
0.000151494
0.000370928
0.000349355
0.000329796
0.000312351
0.000297707
0.000283605
0.000272283
0.000261662
0.000253747
0.000246494
0.000241165
0.00023665
0.000232044
0.00022859
0.000223278
0.000220155
0.000215101
0.0002122
0.000208461
0.000206731
0.000204072
0.000203004
0.000200939
0.000199936
0.000197931
0.000196312
0.000194547
0.000192794
0.000191521
0.00019015
0.000189302
0.000188666
0.00018793
0.000187521
0.000186661
0.00018597
0.000184925
0.000184059
0.000182483
0.000181678
0.00017989
0.000179071
0.000177297
0.000176516
0.000174907
0.000174252
0.000172855
0.00017227
0.000171076
0.00017036
0.000169474
0.000168568
0.000167517
0.000166959
0.000165904
0.000165478
0.000164753
0.000164908
0.000165048
0.000165795
0.000166782
0.000168537
0.000170789
0.000172677
0.000174408
0.000174381
0.00017387
0.000172081
0.00016976
0.000167261
0.000162431
0.000159914
0.000157295
0.000154464
0.000153259
0.000150887
0.000149495
0.000148308
0.000145792
0.000145035
0.000143458
0.000141427
0.000139727
0.000136516
0.000131641
0.000126908
0.000120558
0.000111866
0.000101477
9.04158e-05
7.7292e-05
6.56213e-05
5.49458e-05
4.6096e-05
3.84984e-05
3.18641e-05
2.64574e-05
2.20848e-05
1.87386e-05
1.62645e-05
1.47225e-05
1.37371e-05
1.30681e-05
1.3059e-05
1.30882e-05
1.31934e-05
1.34293e-05
1.36943e-05
1.40372e-05
1.47104e-05
1.49202e-05
1.5166e-05
1.51844e-05
1.53109e-05
1.54023e-05
1.57823e-05
1.59037e-05
1.58627e-05
1.57444e-05
1.57453e-05
1.59063e-05
1.64338e-05
1.77083e-05
2.09125e-05
2.28485e-05
2.75343e-05
3.18584e-05
3.41088e-05
3.76981e-05
3.82869e-05
3.80323e-05
3.74245e-05
3.57521e-05
3.49236e-05
3.38006e-05
3.24277e-05
3.21144e-05
3.17242e-05
3.05945e-05
2.88047e-05
2.6277e-05
2.39058e-05
2.30321e-05
2.27651e-05
2.27905e-05
2.34872e-05
2.53983e-05
2.5799e-05
2.74568e-05
3.50269e-05
5.39035e-05
6.80599e-05
0.000110237
0.000157972
0.000162585
0.000142849
0.000116805
0.000102166
9.29623e-05
8.62967e-05
8.77765e-05
9.77486e-05
0.000107848
9.75716e-05
7.51866e-05
6.25166e-05
5.50646e-05
5.04617e-05
4.68277e-05
4.65411e-05
4.59323e-05
4.5654e-05
4.60191e-05
4.57246e-05
5.13102e-05
5.73419e-05
6.43064e-05
6.69147e-05
6.69045e-05
6.81388e-05
6.79549e-05
6.83146e-05
6.91651e-05
6.98309e-05
7.23359e-05
7.61459e-05
7.88097e-05
8.08131e-05
8.5004e-05
8.98583e-05
0.000100692
0.000107935
0.000106898
9.84905e-05
8.01661e-05
6.21177e-05
6.75309e-05
6.30428e-05
8.06785e-05
0.000116576
0.000297542
0.000286392
0.000275575
0.00026519
0.000256044
0.000247398
0.000238959
0.000231135
0.000223156
0.000216644
0.000210623
0.000207525
0.000203833
0.000202246
0.000199436
0.000196696
0.000192888
0.000188398
0.000184131
0.000180596
0.000177085
0.000175482
0.000174167
0.000173155
0.000172749
0.000171401
0.000170264
0.00016794
0.000165896
0.0001637
0.000161856
0.000160424
0.000159678
0.000159226
0.000159191
0.000159183
0.000159136
0.00015892
0.000157879
0.000156912
0.000155281
0.000153525
0.000152339
0.00015008
0.000148937
0.0001472
0.00014597
0.000144483
0.00014343
0.000141925
0.000141217
0.00013972
0.000138642
0.000137892
0.000136485
0.000136088
0.000135354
0.00013537
0.000135538
0.000136009
0.000137135
0.000138791
0.000141662
0.000143984
0.00014748
0.000151338
0.000154472
0.000156392
0.000157487
0.000157403
0.000156486
0.000155073
0.000153946
0.000150829
0.00014922
0.000146821
0.00014285
0.000140597
0.000136273
0.000131197
0.000127172
0.000119601
0.00011245
0.000104462
9.4523e-05
8.45164e-05
7.39565e-05
6.40099e-05
5.51685e-05
4.71907e-05
4.02506e-05
3.38508e-05
2.84707e-05
2.39251e-05
2.02148e-05
1.72531e-05
1.501e-05
1.35722e-05
1.26372e-05
1.23554e-05
1.23589e-05
1.24378e-05
1.26564e-05
1.33674e-05
1.40721e-05
1.53968e-05
1.6206e-05
1.77778e-05
1.91061e-05
1.9557e-05
2.04927e-05
2.12755e-05
2.13115e-05
2.12188e-05
2.09211e-05
2.0497e-05
2.00106e-05
1.88874e-05
1.78553e-05
1.68675e-05
1.61981e-05
1.5745e-05
1.58219e-05
1.64236e-05
1.72165e-05
1.95037e-05
2.1304e-05
2.3359e-05
2.61156e-05
2.68332e-05
2.7907e-05
2.89176e-05
2.89707e-05
2.9546e-05
2.94717e-05
2.92415e-05
2.86551e-05
2.76619e-05
2.50104e-05
2.36349e-05
2.24362e-05
2.20244e-05
2.22342e-05
2.25381e-05
2.29741e-05
2.51291e-05
2.78698e-05
2.90999e-05
3.18392e-05
4.35044e-05
6.37439e-05
7.77387e-05
0.000121777
0.000160654
0.000161826
0.000137696
0.00011498
0.000103657
9.35711e-05
8.94191e-05
9.01559e-05
9.76964e-05
0.000114112
0.000103075
7.97538e-05
7.64187e-05
6.31843e-05
5.37384e-05
4.87972e-05
4.71156e-05
4.69776e-05
4.58265e-05
5.04065e-05
4.88714e-05
5.38381e-05
6.60039e-05
6.71481e-05
6.86458e-05
6.65781e-05
6.64956e-05
6.69153e-05
6.71764e-05
6.88954e-05
6.95411e-05
7.10277e-05
7.39431e-05
7.44739e-05
7.52623e-05
7.72658e-05
8.05516e-05
9.03088e-05
0.000101611
0.000101444
9.56368e-05
9.11002e-05
7.18513e-05
8.98859e-05
7.50774e-05
7.71939e-05
9.55584e-05
0.000197674
0.000193668
0.000188353
0.000185207
0.000180612
0.000177372
0.000173183
0.000168505
0.000163746
0.000157807
0.00015249
0.000148949
0.000146526
0.000145764
0.0001457
0.00014558
0.000145679
0.000144614
0.00014164
0.000137472
0.000132206
0.000128411
0.000125328
0.000123859
0.000123771
0.000123944
0.000125023
0.000125754
0.000125904
0.00012518
0.000122185
0.000118911
0.000116073
0.000113892
0.000112699
0.000112378
0.000112381
0.000113116
0.000113428
0.000113474
0.000113383
0.000112486
0.000111216
0.000109194
0.000106852
0.000105287
0.000103203
0.000101317
0.000100305
9.82433e-05
9.70395e-05
9.57484e-05
9.43225e-05
9.27682e-05
9.19914e-05
9.11573e-05
9.04908e-05
9.05796e-05
9.11718e-05
9.17084e-05
9.29698e-05
9.50531e-05
9.6359e-05
9.87608e-05
0.000101976
0.000104753
0.000106508
0.000111105
0.000112902
0.000114907
0.000116841
0.000116669
0.00011595
0.000114509
0.000111147
0.000108051
0.000103989
9.85442e-05
9.26022e-05
8.57451e-05
7.83867e-05
7.05985e-05
6.38348e-05
5.6668e-05
4.99781e-05
4.39943e-05
3.81625e-05
3.30416e-05
2.83802e-05
2.42185e-05
2.07826e-05
1.77092e-05
1.53062e-05
1.35188e-05
1.23111e-05
1.14957e-05
1.14099e-05
1.14594e-05
1.16339e-05
1.20959e-05
1.30623e-05
1.44274e-05
1.59814e-05
1.89374e-05
2.0837e-05
2.28555e-05
2.54931e-05
2.75941e-05
2.89103e-05
2.98199e-05
3.05376e-05
3.05263e-05
3.0111e-05
2.96158e-05
2.85793e-05
2.698e-05
2.63175e-05
2.47725e-05
2.2915e-05
2.06121e-05
1.84761e-05
1.70758e-05
1.61751e-05
1.60809e-05
1.62308e-05
1.68513e-05
1.76474e-05
1.95392e-05
2.08236e-05
2.14382e-05
2.32166e-05
2.40156e-05
2.47134e-05
2.48524e-05
2.46961e-05
2.4224e-05
2.34832e-05
2.24588e-05
2.20571e-05
2.18834e-05
2.17221e-05
2.18452e-05
2.28229e-05
2.41306e-05
2.50813e-05
2.76128e-05
3.06297e-05
3.27465e-05
3.69724e-05
5.34343e-05
7.11225e-05
8.50413e-05
0.00012973
0.000162754
0.000161437
0.000135196
0.000114914
0.000104042
9.74166e-05
9.11666e-05
9.09891e-05
9.77773e-05
0.000118104
0.000107413
8.93163e-05
9.72045e-05
7.90638e-05
6.22552e-05
5.4779e-05
5.12103e-05
5.59571e-05
5.11723e-05
5.47563e-05
6.30858e-05
6.33098e-05
6.99729e-05
6.89825e-05
6.87216e-05
6.65081e-05
6.52679e-05
6.66475e-05
6.68053e-05
6.80336e-05
6.98304e-05
7.0906e-05
7.36262e-05
7.36914e-05
7.3115e-05
7.36533e-05
7.47244e-05
8.10531e-05
8.96758e-05
9.72067e-05
9.64014e-05
9.7016e-05
8.73203e-05
8.55846e-05
8.29896e-05
7.82999e-05
8.73444e-05
0.000102454
0.000101539
9.95591e-05
9.89547e-05
9.7894e-05
9.75569e-05
9.68188e-05
9.5072e-05
9.34257e-05
8.95714e-05
8.57156e-05
8.281e-05
8.10586e-05
8.06823e-05
8.10899e-05
8.22691e-05
8.44435e-05
8.49554e-05
8.52163e-05
8.50562e-05
8.18778e-05
7.7865e-05
7.36308e-05
7.09455e-05
6.983e-05
6.95354e-05
7.03168e-05
7.23557e-05
7.41179e-05
7.51657e-05
7.54932e-05
7.50706e-05
7.24397e-05
6.93272e-05
6.66951e-05
6.5073e-05
6.42035e-05
6.40758e-05
6.44493e-05
6.52306e-05
6.55273e-05
6.54938e-05
6.53177e-05
6.49635e-05
6.32489e-05
6.20885e-05
6.00678e-05
5.8686e-05
5.75394e-05
5.60459e-05
5.54138e-05
5.44736e-05
5.36386e-05
5.27274e-05
5.2005e-05
5.12161e-05
5.04216e-05
5.0289e-05
5.0366e-05
5.06048e-05
5.14832e-05
5.27046e-05
5.36649e-05
5.60037e-05
5.75768e-05
5.96329e-05
6.15907e-05
6.38344e-05
6.50401e-05
6.67608e-05
6.76362e-05
6.75027e-05
6.70082e-05
6.5647e-05
6.36477e-05
6.12891e-05
5.75848e-05
5.40764e-05
5.00024e-05
4.57602e-05
4.15022e-05
3.72278e-05
3.32456e-05
2.92427e-05
2.56489e-05
2.2343e-05
1.93843e-05
1.68016e-05
1.45743e-05
1.28007e-05
1.14505e-05
1.05887e-05
1.01652e-05
1.02208e-05
1.03576e-05
1.06298e-05
1.13471e-05
1.26681e-05
1.40805e-05
1.71979e-05
1.94519e-05
2.26926e-05
2.70276e-05
3.03311e-05
3.34592e-05
3.66303e-05
4.01079e-05
4.19629e-05
4.36081e-05
4.41965e-05
4.39786e-05
4.32256e-05
4.18072e-05
4.00729e-05
3.72744e-05
3.53099e-05
3.29521e-05
3.04546e-05
2.92161e-05
2.62299e-05
2.36886e-05
2.17073e-05
1.92718e-05
1.78321e-05
1.70157e-05
1.7009e-05
1.71591e-05
1.77541e-05
1.82197e-05
1.92273e-05
2.01672e-05
2.04033e-05
2.09169e-05
2.11212e-05
2.11883e-05
2.11705e-05
2.11813e-05
2.12599e-05
2.16264e-05
2.19323e-05
2.24825e-05
2.38707e-05
2.68932e-05
2.82507e-05
2.95393e-05
3.2868e-05
3.67603e-05
3.97269e-05
4.55148e-05
6.72565e-05
8.21993e-05
9.48612e-05
0.000138606
0.000163949
0.000160907
0.000134769
0.000116807
0.00010815
0.000103109
9.21736e-05
9.10272e-05
9.93453e-05
0.000120238
0.000113137
0.000100674
0.000106107
0.000101929
7.53533e-05
7.08115e-05
6.52676e-05
6.79538e-05
6.75552e-05
6.79837e-05
7.46217e-05
7.03501e-05
7.0993e-05
6.99633e-05
6.62851e-05
6.58356e-05
6.47974e-05
6.6143e-05
6.74917e-05
6.81884e-05
7.11951e-05
7.22195e-05
7.39679e-05
7.41342e-05
7.19023e-05
7.10611e-05
7.1571e-05
7.40299e-05
8.25425e-05
9.09941e-05
9.47452e-05
9.35757e-05
9.08077e-05
8.43395e-05
8.27823e-05
7.95262e-05
8.32336e-05
4.14368e-05
4.1231e-05
4.06378e-05
4.06094e-05
4.06603e-05
4.08378e-05
4.09581e-05
4.08756e-05
4.06027e-05
3.9034e-05
3.71498e-05
3.56814e-05
3.47176e-05
3.4423e-05
3.44764e-05
3.55147e-05
3.84215e-05
4.01019e-05
4.10399e-05
4.12327e-05
4.02974e-05
3.78057e-05
3.48544e-05
3.2567e-05
3.10415e-05
3.0335e-05
3.0414e-05
3.22784e-05
3.54525e-05
3.76876e-05
3.88625e-05
3.90664e-05
3.82873e-05
3.58638e-05
3.33905e-05
3.13617e-05
2.99365e-05
2.92712e-05
2.91813e-05
2.99914e-05
3.15058e-05
3.24215e-05
3.28146e-05
3.28528e-05
3.25253e-05
3.14641e-05
3.01195e-05
2.91346e-05
2.83185e-05
2.7598e-05
2.72552e-05
2.70361e-05
2.69073e-05
2.66704e-05
2.62393e-05
2.57367e-05
2.5113e-05
2.47709e-05
2.47397e-05
2.48171e-05
2.51897e-05
2.59442e-05
2.65391e-05
2.80416e-05
2.89653e-05
3.01532e-05
3.10496e-05
3.24265e-05
3.30488e-05
3.36355e-05
3.41034e-05
3.40134e-05
3.37157e-05
3.29619e-05
3.1933e-05
3.06023e-05
2.86437e-05
2.6793e-05
2.47337e-05
2.23824e-05
2.04042e-05
1.81428e-05
1.60981e-05
1.4191e-05
1.24478e-05
1.10198e-05
9.85726e-06
9.04354e-06
8.5439e-06
8.58082e-06
8.68786e-06
9.03068e-06
9.54768e-06
1.06466e-05
1.21866e-05
1.37931e-05
1.74688e-05
2.01991e-05
2.36763e-05
2.91668e-05
3.24553e-05
3.8029e-05
4.39121e-05
4.82275e-05
5.24836e-05
5.77062e-05
6.0767e-05
6.359e-05
6.49528e-05
6.4767e-05
6.39272e-05
6.17907e-05
5.90433e-05
5.57718e-05
5.08472e-05
4.7771e-05
4.27259e-05
3.88045e-05
3.53107e-05
3.11033e-05
2.86145e-05
2.62109e-05
2.43322e-05
2.26421e-05
2.05772e-05
1.90965e-05
1.83027e-05
1.82562e-05
1.8404e-05
1.85963e-05
1.9016e-05
1.94845e-05
1.9804e-05
2.0081e-05
2.04866e-05
2.07417e-05
2.1153e-05
2.24342e-05
2.41567e-05
2.51665e-05
2.64699e-05
2.97082e-05
3.22776e-05
3.31506e-05
3.4501e-05
3.81753e-05
4.58894e-05
5.00271e-05
5.5965e-05
7.4889e-05
8.88561e-05
0.000100224
0.000141357
0.000164291
0.000161079
0.000138706
0.000123589
0.000117462
0.000106825
9.27593e-05
9.13843e-05
0.000100666
0.00012076
0.000121439
0.000103826
0.000107228
0.000118822
8.79192e-05
7.85617e-05
7.37153e-05
7.54063e-05
7.48066e-05
7.07569e-05
7.48738e-05
7.26834e-05
6.78499e-05
6.82567e-05
6.53396e-05
6.59976e-05
6.50948e-05
6.54701e-05
6.93887e-05
6.92824e-05
7.12819e-05
7.42212e-05
7.3787e-05
7.39908e-05
7.26056e-05
6.86748e-05
7.02097e-05
7.1158e-05
7.73507e-05
8.24934e-05
9.06101e-05
8.96181e-05
8.94451e-05
8.6256e-05
8.41871e-05
7.87735e-05
8.00971e-05
1.38653e-05
1.38619e-05
1.37423e-05
1.37383e-05
1.37661e-05
1.38384e-05
1.39034e-05
1.38814e-05
1.38146e-05
1.33629e-05
1.29994e-05
1.2693e-05
1.24876e-05
1.24171e-05
1.24035e-05
1.28061e-05
1.39811e-05
1.47187e-05
1.50448e-05
1.50392e-05
1.43442e-05
1.33987e-05
1.25715e-05
1.20714e-05
1.18586e-05
1.17838e-05
1.21156e-05
1.35326e-05
1.50297e-05
1.59967e-05
1.63022e-05
1.6175e-05
1.5085e-05
1.37664e-05
1.27251e-05
1.202e-05
1.17467e-05
1.17506e-05
1.22632e-05
1.30646e-05
1.35195e-05
1.3708e-05
1.37252e-05
1.34861e-05
1.27902e-05
1.2179e-05
1.17407e-05
1.15425e-05
1.15263e-05
1.15176e-05
1.15346e-05
1.15622e-05
1.15624e-05
1.14645e-05
1.10967e-05
1.06893e-05
1.02888e-05
1.00397e-05
9.98374e-06
1.00121e-05
1.01723e-05
1.04387e-05
1.11008e-05
1.17225e-05
1.22068e-05
1.30777e-05
1.34366e-05
1.40417e-05
1.44045e-05
1.47452e-05
1.49077e-05
1.48428e-05
1.46795e-05
1.44713e-05
1.39094e-05
1.33789e-05
1.27133e-05
1.16715e-05
1.08493e-05
9.89172e-06
9.02728e-06
8.23107e-06
7.57812e-06
7.13023e-06
6.94089e-06
6.96014e-06
7.0508e-06
7.25981e-06
7.71722e-06
8.78603e-06
9.81337e-06
1.20077e-05
1.40415e-05
1.76198e-05
2.06811e-05
2.43214e-05
3.07457e-05
3.44428e-05
4.07258e-05
4.69111e-05
5.27023e-05
6.15799e-05
6.79267e-05
7.40434e-05
8.14934e-05
8.67427e-05
9.05475e-05
9.43205e-05
9.45599e-05
9.38757e-05
9.16983e-05
8.85496e-05
8.21799e-05
7.62019e-05
7.01017e-05
6.23174e-05
5.64948e-05
5.07545e-05
4.40901e-05
4.06761e-05
3.61078e-05
3.22332e-05
2.97484e-05
2.68308e-05
2.47499e-05
2.33378e-05
2.14672e-05
2.04946e-05
2.0014e-05
1.99874e-05
2.01505e-05
2.07335e-05
2.11025e-05
2.17e-05
2.30237e-05
2.37533e-05
2.4844e-05
2.75854e-05
2.91905e-05
3.02331e-05
3.28195e-05
3.60508e-05
3.75454e-05
3.89128e-05
4.17027e-05
4.99285e-05
5.83884e-05
6.30643e-05
6.92481e-05
8.66329e-05
9.56809e-05
0.000105926
0.000144066
0.000163453
0.000162604
0.000145539
0.000135028
0.000127719
0.000112208
9.48271e-05
9.24189e-05
0.000101593
0.000120519
0.000122148
0.00010301
0.000108983
0.000118538
0.000108805
8.14504e-05
7.12784e-05
7.20931e-05
7.33386e-05
6.91268e-05
6.75731e-05
7.07528e-05
6.60105e-05
6.74355e-05
6.50386e-05
6.54345e-05
6.63649e-05
6.60537e-05
6.92698e-05
7.06585e-05
7.16555e-05
7.52024e-05
7.45365e-05
7.27135e-05
7.26775e-05
6.88564e-05
6.87393e-05
6.9226e-05
7.31246e-05
7.48915e-05
8.18837e-05
8.28779e-05
8.54647e-05
8.40781e-05
8.32676e-05
7.83513e-05
7.68725e-05
3.80819e-06
3.80883e-06
3.87596e-06
3.93855e-06
4.01273e-06
4.12363e-06
4.28216e-06
4.40088e-06
4.53957e-06
4.56902e-06
4.53984e-06
4.37393e-06
4.23257e-06
4.19013e-06
4.22273e-06
4.3763e-06
4.43623e-06
4.42718e-06
4.36119e-06
4.35934e-06
4.59736e-06
4.92066e-06
5.05311e-06
5.02437e-06
4.80041e-06
4.69102e-06
4.74656e-06
5.07619e-06
5.30098e-06
5.31251e-06
5.11249e-06
4.9422e-06
4.92068e-06
5.0997e-06
5.28142e-06
5.31244e-06
5.21614e-06
5.06551e-06
5.0032e-06
4.99862e-06
4.99186e-06
4.88082e-06
4.65683e-06
4.53999e-06
4.52549e-06
4.67625e-06
4.81789e-06
4.88058e-06
4.8819e-06
4.80611e-06
4.65504e-06
4.49375e-06
4.35879e-06
4.25235e-06
4.17567e-06
4.13683e-06
4.0774e-06
4.00989e-06
3.94444e-06
3.91282e-06
3.94657e-06
4.01557e-06
4.08802e-06
4.36727e-06
4.58947e-06
4.79789e-06
5.16947e-06
5.31228e-06
5.44792e-06
5.55605e-06
5.53738e-06
5.50399e-06
5.4153e-06
5.28805e-06
5.22782e-06
5.07782e-06
4.94378e-06
4.86965e-06
4.88437e-06
4.94485e-06
5.04795e-06
5.36951e-06
5.60955e-06
5.98403e-06
6.69961e-06
7.37873e-06
8.79782e-06
1.01168e-05
1.23635e-05
1.52795e-05
1.75434e-05
2.22059e-05
2.62107e-05
3.05654e-05
3.6516e-05
4.25549e-05
5.0036e-05
5.5804e-05
6.54236e-05
7.32118e-05
8.24105e-05
9.3784e-05
0.000101546
0.000112359
0.000120133
0.000125942
0.000131871
0.000134464
0.000134035
0.000132398
0.000128488
0.000122023
0.000113947
0.000105175
9.4169e-05
8.32877e-05
7.26667e-05
6.32983e-05
5.67588e-05
4.93527e-05
4.52972e-05
4.17992e-05
3.73015e-05
3.43278e-05
3.12593e-05
2.85206e-05
2.6767e-05
2.528e-05
2.40577e-05
2.38633e-05
2.40484e-05
2.48685e-05
2.54044e-05
2.63387e-05
2.78375e-05
2.87663e-05
3.03675e-05
3.32043e-05
3.49345e-05
3.6258e-05
3.95523e-05
4.35555e-05
4.60343e-05
4.93402e-05
5.5901e-05
6.80938e-05
7.45696e-05
7.65634e-05
7.91589e-05
8.7734e-05
9.55505e-05
0.000105521
0.000141145
0.000163185
0.000163324
0.000154785
0.00014715
0.000140977
0.000121553
9.95784e-05
9.56656e-05
0.000105342
0.000120555
0.000119196
0.000101794
0.000109749
0.000110165
0.000118437
9.67163e-05
6.88955e-05
6.75649e-05
6.77048e-05
6.91591e-05
6.55034e-05
7.05936e-05
6.5742e-05
6.5829e-05
6.58584e-05
6.5967e-05
7.37465e-05
6.85433e-05
6.92458e-05
7.44171e-05
7.31302e-05
7.5077e-05
7.61e-05
7.23861e-05
7.21205e-05
6.91423e-05
6.60221e-05
6.63331e-05
6.86746e-05
6.98035e-05
7.60915e-05
7.78059e-05
8.04696e-05
7.96969e-05
7.96304e-05
7.71243e-05
7.36102e-05
2.42744e-06
2.44087e-06
2.48556e-06
2.52641e-06
2.57891e-06
2.59396e-06
2.60696e-06
2.59673e-06
2.59203e-06
2.57339e-06
2.57243e-06
2.59687e-06
2.65888e-06
2.67523e-06
2.66004e-06
2.5985e-06
2.5806e-06
2.66003e-06
2.93752e-06
3.06174e-06
3.07422e-06
2.9918e-06
2.90799e-06
2.91873e-06
3.07319e-06
3.20471e-06
3.2144e-06
3.1131e-06
3.00338e-06
3.00543e-06
3.18377e-06
3.3525e-06
3.37875e-06
3.31579e-06
3.24395e-06
3.25456e-06
3.38362e-06
3.46385e-06
3.45755e-06
3.32966e-06
3.24183e-06
3.24778e-06
3.41604e-06
3.5158e-06
3.53403e-06
3.49028e-06
3.46404e-06
3.48719e-06
3.52844e-06
3.52742e-06
3.44663e-06
3.34639e-06
3.28599e-06
3.26683e-06
3.27025e-06
3.289e-06
3.32667e-06
3.36565e-06
3.39309e-06
3.39389e-06
3.3315e-06
3.20377e-06
3.07861e-06
2.98248e-06
2.95926e-06
2.96272e-06
2.96722e-06
3.04338e-06
3.15372e-06
3.20682e-06
3.27075e-06
3.31887e-06
3.35039e-06
3.41929e-06
3.48258e-06
3.61473e-06
3.78477e-06
4.00206e-06
4.60237e-06
5.07089e-06
5.70426e-06
7.27801e-06
8.29686e-06
9.96543e-06
1.20187e-05
1.38902e-05
1.72412e-05
1.96862e-05
2.43957e-05
2.79931e-05
3.2048e-05
3.99281e-05
4.51291e-05
5.08452e-05
6.10106e-05
6.85313e-05
7.72155e-05
8.90659e-05
9.76608e-05
0.000111364
0.00012349
0.000137307
0.000150676
0.000160362
0.000166484
0.00016887
0.000168326
0.000166759
0.000164238
0.000161892
0.000156891
0.000152599
0.000146948
0.000137632
0.000127156
0.000115181
9.92394e-05
8.55877e-05
7.27805e-05
6.23309e-05
5.46366e-05
4.88821e-05
4.50182e-05
4.03805e-05
3.87692e-05
3.74435e-05
3.34136e-05
3.13082e-05
3.05076e-05
2.9919e-05
3.00484e-05
3.042e-05
3.08783e-05
3.20916e-05
3.33559e-05
3.4207e-05
3.61834e-05
3.92159e-05
4.13981e-05
4.42695e-05
5.0753e-05
5.78653e-05
6.15278e-05
6.84266e-05
7.87176e-05
8.27681e-05
8.26502e-05
8.22872e-05
8.35971e-05
9.09776e-05
9.5409e-05
0.000103777
0.000137301
0.000158791
0.000161923
0.000163078
0.000161313
0.000156782
0.000133426
0.000106302
0.000103424
0.00010996
0.000121039
0.000112765
0.000106503
0.000108556
0.000108288
0.000105612
0.000100898
6.92312e-05
6.50912e-05
6.3635e-05
7.31011e-05
6.43324e-05
6.82587e-05
6.6173e-05
6.535e-05
7.27887e-05
6.75488e-05
7.20534e-05
7.59795e-05
7.11531e-05
7.78093e-05
7.77574e-05
7.56978e-05
7.78801e-05
7.42756e-05
7.03162e-05
6.90875e-05
6.42531e-05
6.24129e-05
6.39375e-05
6.51427e-05
7.1671e-05
7.366e-05
7.64371e-05
7.61978e-05
7.55881e-05
7.35812e-05
7.10514e-05
2.43725e-06
2.44221e-06
2.46918e-06
2.4904e-06
2.50276e-06
2.51912e-06
2.54266e-06
2.55328e-06
2.59717e-06
2.62905e-06
2.66387e-06
2.69947e-06
2.74802e-06
2.8134e-06
2.87025e-06
2.89099e-06
2.88635e-06
2.79308e-06
2.69826e-06
2.67957e-06
2.72027e-06
2.90066e-06
3.08107e-06
3.13419e-06
3.15834e-06
3.15457e-06
3.18082e-06
3.2163e-06
3.21902e-06
3.16185e-06
3.07387e-06
3.05858e-06
3.2342e-06
3.51951e-06
3.68973e-06
3.73375e-06
3.66525e-06
3.55267e-06
3.49662e-06
3.50843e-06
3.51058e-06
3.50452e-06
3.50373e-06
3.69358e-06
4.34368e-06
4.94364e-06
5.2145e-06
5.2873e-06
5.16423e-06
4.82285e-06
4.48436e-06
4.15861e-06