/*--------------------------------*- C++ -*----------------------------------*\
| =========                 |                                                 |
| \\      /  F ield         | OpenFOAM: The Open Source CFD Toolbox           |
|  \\    /   O peration     | Version:  2.4.0                                 |
|   \\  /    A nd           | Web:      www.OpenFOAM.org                      |
|    \\/     M anipulation  |                                                 |
\*---------------------------------------------------------------------------*/
FoamFile
{
    version     2.0;
    format      ascii;
    class       surfaceScalarField;
    location    "1.19";
    object      phi_0;
}
// * * * * * * * * * * * * * * * * * * * * * * * * * * * * * * * * * * * * * //

dimensions      [0 3 -1 0 0 0 0];

internalField   nonuniform List<scalar> 
17320
(
1.76391e-05
7.36089e-06
1.16187e-05
6.02045e-06
8.68029e-06
2.93837e-06
7.35691e-06
1.32338e-06
6.72092e-06
6.35989e-07
6.33804e-06
3.82882e-07
6.07865e-06
2.59385e-07
5.87792e-06
2.00738e-07
5.69781e-06
1.80103e-07
5.58228e-06
1.15528e-07
5.48795e-06
9.43302e-08
5.38826e-06
9.96986e-08
5.29263e-06
9.5628e-08
5.23953e-06
5.30939e-08
5.13521e-06
1.04327e-07
5.08157e-06
5.36403e-08
4.96336e-06
1.1821e-07
5.01788e-06
-5.45271e-08
4.78426e-06
2.33626e-07
-4.14206e-07
5.19846e-06
2.54651e-05
6.8958e-06
2.3247e-05
8.23854e-06
2.09884e-05
5.19698e-06
1.93228e-05
2.98892e-06
1.8077e-05
1.8818e-06
1.71069e-05
1.35299e-06
1.63719e-05
9.94376e-07
1.5777e-05
7.95695e-07
1.52979e-05
6.59204e-07
1.49403e-05
4.73128e-07
1.46405e-05
3.94113e-07
1.43718e-05
3.68351e-07
1.41368e-05
3.30646e-07
1.39572e-05
2.32744e-07
1.37214e-05
3.40072e-07
1.35716e-05
2.03503e-07
1.33208e-05
3.69028e-07
1.33136e-05
-4.73956e-08
1.31235e-05
4.23749e-07
-4.40388e-07
1.31497e-05
2.66267e-05
5.26907e-06
2.71515e-05
7.71373e-06
2.67789e-05
5.56963e-06
2.62575e-05
3.51027e-06
2.56076e-05
2.53178e-06
2.48658e-05
2.09471e-06
2.41719e-05
1.68829e-06
2.35026e-05
1.46505e-06
2.29232e-05
1.23859e-06
2.24549e-05
9.41421e-07
2.204e-05
8.09016e-07
2.16709e-05
7.37424e-07
2.13525e-05
6.49025e-07
2.10889e-05
4.96334e-07
2.07833e-05
6.45721e-07
2.05617e-05
4.25096e-07
2.0258e-05
6.72756e-07
2.01645e-05
4.60668e-08
2.00934e-05
4.94893e-07
-7.6557e-07
2.04185e-05
2.6336e-05
3.93304e-06
2.75336e-05
6.5161e-06
2.80727e-05
5.03057e-06
2.84608e-05
3.12222e-06
2.86585e-05
2.33408e-06
2.86185e-05
2.13469e-06
2.84911e-05
1.81565e-06
2.82356e-05
1.72061e-06
2.79558e-05
1.51837e-06
2.7701e-05
1.1962e-06
2.74352e-05
1.07482e-06
2.71594e-05
1.0132e-06
2.69213e-05
8.87186e-07
2.66809e-05
7.36665e-07
2.64303e-05
8.96309e-07
2.61905e-05
6.64965e-07
2.59418e-05
9.21425e-07
2.56947e-05
2.93149e-07
2.55235e-05
6.66129e-07
-3.6664e-07
2.51246e-05
2.60488e-05
2.88423e-06
2.72561e-05
5.30877e-06
2.80294e-05
4.25734e-06
2.849e-05
2.66159e-06
2.89884e-05
1.83571e-06
2.93238e-05
1.79924e-06
2.9601e-05
1.53848e-06
2.97424e-05
1.57917e-06
2.98457e-05
1.41507e-06
2.9909e-05
1.13297e-06
2.99605e-05
1.02333e-06
2.9943e-05
1.03069e-06
2.99798e-05
8.50377e-07
2.99121e-05
8.04391e-07
2.99004e-05
9.07965e-07
2.97874e-05
7.77963e-07
2.97264e-05
9.82455e-07
2.9424e-05
5.95572e-07
2.92819e-05
8.08205e-07
4.55113e-09
2.89107e-05
2.58314e-05
2.05281e-06
2.69608e-05
4.17939e-06
2.78288e-05
3.38934e-06
2.82218e-05
2.26858e-06
2.87111e-05
1.3464e-06
2.90873e-05
1.42305e-06
2.94787e-05
1.14709e-06
2.9698e-05
1.35988e-06
3.00123e-05
1.10077e-06
3.0158e-05
9.87246e-07
3.04181e-05
7.63259e-07
3.04794e-05
9.6935e-07
3.07596e-05
5.70166e-07
3.07909e-05
7.73062e-07
3.10348e-05
6.6408e-07
3.10153e-05
7.97448e-07
3.12539e-05
7.43869e-07
3.09293e-05
9.20227e-07
3.08685e-05
8.68957e-07
4.44328e-07
3.04287e-05
2.56932e-05
1.35958e-06
2.67281e-05
3.14456e-06
2.75922e-05
2.52516e-06
2.80366e-05
1.82417e-06
2.84896e-05
8.93395e-07
2.88309e-05
1.08183e-06
2.92219e-05
7.56049e-07
2.94661e-05
1.11567e-06
2.98202e-05
7.46691e-07
2.99593e-05
8.48106e-07
3.02809e-05
4.41734e-07
3.03225e-05
9.27728e-07
3.06741e-05
2.18557e-07
3.06936e-05
7.53573e-07
3.10581e-05
2.99528e-07
3.10239e-05
8.31701e-07
3.14455e-05
3.22248e-07
3.11032e-05
1.26257e-06
3.09478e-05
1.02435e-06
1.13556e-06
3.02565e-05
2.55368e-05
8.22832e-07
2.66167e-05
2.06462e-06
2.74753e-05
1.66657e-06
2.79776e-05
1.3219e-06
2.83228e-05
5.48126e-07
2.86788e-05
7.25894e-07
2.90089e-05
4.25927e-07
2.93036e-05
8.20977e-07
2.95442e-05
5.06054e-07
2.98761e-05
5.16219e-07
3.00908e-05
2.27047e-07
3.02991e-05
7.19381e-07
3.04046e-05
1.13146e-07
3.0612e-05
5.46102e-07
3.07986e-05
1.12945e-07
3.09652e-05
6.65116e-07
3.11434e-05
1.44015e-07
3.1518e-05
8.88044e-07
3.186e-05
6.82342e-07
3.55073e-07
3.26404e-05
2.54572e-05
3.65593e-07
2.64716e-05
1.05028e-06
2.73229e-05
8.15201e-07
2.79219e-05
7.22951e-07
2.82682e-05
2.01835e-07
2.86e-05
3.94064e-07
2.8904e-05
1.21965e-07
2.91745e-05
5.50435e-07
2.94276e-05
2.53004e-07
2.97771e-05
1.6672e-07
2.99559e-05
4.82095e-08
3.01781e-05
4.97154e-07
3.02139e-05
7.73427e-08
3.05431e-05
2.16903e-07
3.06466e-05
9.49774e-09
3.09236e-05
3.88124e-07
3.10799e-05
-1.22953e-08
3.14587e-05
5.09198e-07
3.16016e-05
5.39477e-07
-3.94637e-08
3.19961e-05
2.54312e-05
-6.56122e-08
2.64531e-05
2.84128e-08
2.72559e-05
1.23885e-08
2.78787e-05
1.001e-07
2.82221e-05
-1.41481e-07
2.85079e-05
1.08192e-07
2.87628e-05
-1.32906e-07
2.91879e-05
1.25304e-07
2.94801e-05
-3.91308e-08
2.96511e-05
-4.30507e-09
2.98457e-05
-1.46408e-07
3.0154e-05
1.88864e-07
3.0265e-05
-3.36814e-08
3.04533e-05
2.86263e-08
3.0656e-05
-1.9323e-07
3.08777e-05
1.66457e-07
3.09981e-05
-1.32756e-07
3.13068e-05
2.00507e-07
3.17472e-05
9.91497e-08
-2.6145e-07
3.19692e-05
2.53987e-05
-4.64267e-07
2.6403e-05
-9.7589e-07
2.73028e-05
-8.87488e-07
2.79352e-05
-5.32238e-07
2.81747e-05
-3.80962e-07
2.8525e-05
-2.42173e-07
2.88062e-05
-4.14085e-07
2.9205e-05
-2.73478e-07
2.94323e-05
-2.66442e-07
2.96856e-05
-2.57662e-07
2.97785e-05
-2.39308e-07
3.01467e-05
-1.79279e-07
3.02863e-05
-1.73319e-07
3.04843e-05
-1.69322e-07
3.05676e-05
-2.76546e-07
3.08598e-05
-1.25716e-07
3.10533e-05
-3.26263e-07
3.1383e-05
-1.29207e-07
3.17146e-05
-2.32457e-07
-3.46375e-07
3.17995e-05
2.54728e-05
-9.37085e-07
2.64925e-05
-1.99557e-06
2.72976e-05
-1.69259e-06
2.79288e-05
-1.16343e-06
2.82429e-05
-6.95064e-07
2.85634e-05
-5.62725e-07
2.88555e-05
-7.06178e-07
2.92478e-05
-6.65782e-07
2.94735e-05
-4.92087e-07
2.97175e-05
-5.01673e-07
2.99538e-05
-4.7559e-07
3.01731e-05
-3.98594e-07
3.0263e-05
-2.63256e-07
3.05452e-05
-4.51454e-07
3.06985e-05
-4.29904e-07
3.09235e-05
-3.50686e-07
3.11052e-05
-5.0796e-07
3.14494e-05
-4.73417e-07
3.16765e-05
-4.59514e-07
-4.07933e-07
3.1738e-05
2.55277e-05
-1.4648e-06
2.65901e-05
-3.05793e-06
2.74372e-05
-2.53975e-06
2.80162e-05
-1.74244e-06
2.83281e-05
-1.00687e-06
2.86975e-05
-9.32142e-07
2.89776e-05
-9.86356e-07
2.93221e-05
-1.01026e-06
2.95626e-05
-7.32585e-07
2.98613e-05
-8.00317e-07
3.0052e-05
-6.66312e-07
3.02329e-05
-5.79521e-07
3.0404e-05
-4.34372e-07
3.0669e-05
-7.16451e-07
3.07802e-05
-5.41103e-07
3.1018e-05
-5.88494e-07
3.12194e-05
-7.09345e-07
3.15489e-05
-8.02906e-07
3.17301e-05
-6.40715e-07
-6.44305e-07
3.19665e-05
2.56823e-05
-2.14714e-06
2.6742e-05
-4.11761e-06
2.757e-05
-3.36777e-06
2.8064e-05
-2.2364e-06
2.84803e-05
-1.42312e-06
2.88553e-05
-1.30719e-06
2.91813e-05
-1.31232e-06
2.95012e-05
-1.33024e-06
2.97416e-05
-9.72949e-07
3.00183e-05
-1.07704e-06
3.01993e-05
-8.47285e-07
3.0403e-05
-7.8318e-07
3.05977e-05
-6.29137e-07
3.08251e-05
-9.43793e-07
3.09303e-05
-6.46291e-07
3.11655e-05
-8.23773e-07
3.13438e-05
-8.87612e-07
3.16494e-05
-1.10852e-06
3.18917e-05
-8.82984e-07
-9.74214e-07
3.22216e-05
2.58391e-05
-2.98625e-06
2.69451e-05
-5.22365e-06
2.77983e-05
-4.2209e-06
2.82493e-05
-2.68739e-06
2.87135e-05
-1.88737e-06
2.91026e-05
-1.69628e-06
2.9447e-05
-1.65669e-06
2.97067e-05
-1.58992e-06
2.99665e-05
-1.23281e-06
3.01841e-05
-1.29462e-06
3.03797e-05
-1.04292e-06
3.05432e-05
-9.46601e-07
3.07209e-05
-8.06858e-07
3.08465e-05
-1.06943e-06
3.09472e-05
-7.46928e-07
3.11023e-05
-9.78892e-07
3.11862e-05
-9.71492e-07
3.13968e-05
-1.31913e-06
3.15772e-05
-1.06339e-06
-1.29481e-06
3.18978e-05
2.603e-05
-4.01629e-06
2.72259e-05
-6.41953e-06
2.80359e-05
-5.03089e-06
2.85148e-05
-3.16628e-06
2.89744e-05
-2.34701e-06
2.93277e-05
-2.04952e-06
2.95849e-05
-1.91392e-06
2.97136e-05
-1.7186e-06
2.98573e-05
-1.37649e-06
2.99013e-05
-1.33866e-06
2.99516e-05
-1.09318e-06
2.99525e-05
-9.47538e-07
2.99691e-05
-8.23486e-07
2.98946e-05
-9.94924e-07
2.9869e-05
-7.21272e-07
2.97924e-05
-9.02299e-07
2.96909e-05
-8.70015e-07
2.96317e-05
-1.25996e-06
2.95884e-05
-1.02009e-06
-1.3492e-06
2.96428e-05
2.63006e-05
-5.3169e-06
2.75421e-05
-7.66103e-06
2.80836e-05
-5.57241e-06
2.84511e-05
-3.53375e-06
2.86332e-05
-2.52907e-06
2.86305e-05
-2.04685e-06
2.84667e-05
-1.75016e-06
2.82171e-05
-1.469e-06
2.79834e-05
-1.14278e-06
2.76814e-05
-1.03659e-06
2.74178e-05
-8.29676e-07
2.71628e-05
-6.92467e-07
2.69252e-05
-5.85959e-07
2.6632e-05
-7.01718e-07
2.64243e-05
-5.13535e-07
2.61508e-05
-6.28791e-07
2.58954e-05
-6.14624e-07
2.55676e-05
-9.3217e-07
2.53454e-05
-7.9787e-07
-1.2035e-06
2.51997e-05
2.66022e-05
-6.91908e-06
2.71596e-05
-8.21847e-06
2.67782e-05
-5.19095e-06
2.62451e-05
-3.00066e-06
2.55978e-05
-1.8818e-06
2.48794e-05
-1.32842e-06
2.41507e-05
-1.02149e-06
2.3495e-05
-8.13355e-07
2.29445e-05
-5.92256e-07
2.2435e-05
-5.27054e-07
2.20217e-05
-4.16407e-07
2.1671e-05
-3.41766e-07
2.13621e-05
-2.77061e-07
2.10316e-05
-3.71167e-07
2.07841e-05
-2.6605e-07
2.04845e-05
-3.29209e-07
2.02083e-05
-3.38423e-07
1.97927e-05
-5.16588e-07
1.94435e-05
-4.48646e-07
-3.9357e-07
1.86336e-05
2.54488e-05
-7.3679e-06
2.3247e-05
-6.01668e-06
2.09876e-05
-2.93154e-06
1.93158e-05
-1.32883e-06
1.80729e-05
-6.3893e-07
1.71159e-05
-3.71359e-07
1.6361e-05
-2.66611e-07
1.57659e-05
-2.18312e-07
1.5317e-05
-1.43277e-07
1.49271e-05
-1.37151e-07
1.46209e-05
-1.10208e-07
1.43678e-05
-8.87419e-08
1.41538e-05
-6.29806e-08
1.39018e-05
-1.1924e-07
1.37138e-05
-7.79826e-08
1.34848e-05
-1.00218e-07
1.32546e-05
-1.08292e-07
1.29182e-05
-1.80106e-07
1.26672e-05
-1.97715e-07
-3.8447e-08
1.23121e-05
1.76321e-05
1.16154e-05
8.68389e-06
7.35506e-06
6.71613e-06
6.34477e-06
6.07816e-06
5.85985e-06
5.71657e-06
5.57942e-06
5.46921e-06
5.38047e-06
5.31749e-06
5.19825e-06
5.12027e-06
5.02005e-06
4.91176e-06
4.73165e-06
4.53394e-06
4.49549e-06
5.75289e-06
-2.29576e-07
-3.24853e-07
6.23401e-06
-5.35878e-08
-4.27525e-07
6.50822e-06
2.05542e-08
-2.94773e-07
6.67497e-06
9.30242e-09
-1.76045e-07
6.82167e-06
-7.54124e-08
-7.12893e-08
6.97653e-06
-1.34105e-07
-2.07587e-08
7.1353e-06
-1.63048e-07
4.27765e-09
7.29453e-06
-1.75477e-07
1.62448e-08
7.46036e-06
-1.7381e-07
7.9834e-09
7.629e-06
-1.49664e-07
-1.8977e-08
7.77646e-06
-1.08242e-07
-3.92115e-08
7.91644e-06
-4.87511e-08
-9.12336e-08
8.03866e-06
-1.25283e-08
-1.09694e-07
8.15757e-06
8.93198e-09
-1.27843e-07
8.27031e-06
1.5593e-08
-1.28328e-07
8.38735e-06
-1.05038e-08
-1.06534e-07
8.49327e-06
-2.46005e-08
-8.13255e-08
8.60362e-06
-6.62037e-08
-4.41449e-08
8.71528e-06
-9.53185e-08
-1.63397e-08
8.81764e-06
-1.05121e-07
2.75668e-09
8.9231e-06
-1.26591e-07
2.11348e-08
9.01818e-06
-1.21121e-07
2.60385e-08
9.10415e-06
-1.17979e-07
3.20142e-08
9.18584e-06
-1.18691e-07
3.69936e-08
9.25456e-06
-1.0394e-07
3.52253e-08
9.31653e-06
-9.69546e-08
3.49833e-08
9.37399e-06
-8.28175e-08
2.53581e-08
9.42557e-06
-6.20603e-08
1.04852e-08
9.47954e-06
-3.91815e-08
-1.47934e-08
9.53219e-06
-4.37865e-09
-4.8273e-08
9.59486e-06
3.40321e-08
-9.66997e-08
9.6739e-06
7.8422e-08
-1.57465e-07
9.77394e-06
1.32247e-07
-2.3228e-07
9.89669e-06
1.87394e-07
-3.1015e-07
1.00452e-05
2.25969e-07
-3.74497e-07
1.02107e-05
2.55847e-07
-4.21292e-07
1.04063e-05
2.4605e-07
-4.41706e-07
1.06065e-05
2.21003e-07
-4.2117e-07
1.07935e-05
1.32694e-07
-3.19677e-07
1.09531e-05
7.04892e-09
-1.66691e-07
1.10515e-05
-1.35058e-07
3.66893e-08
1.1113e-05
-3.09696e-07
2.48215e-07
1.11326e-05
-4.51665e-07
4.32047e-07
1.11302e-05
-5.80054e-07
5.8247e-07
1.11288e-05
-6.68385e-07
6.69713e-07
1.11328e-05
-7.08481e-07
7.04538e-07
1.11568e-05
-7.34771e-07
7.10751e-07
1.11835e-05
-7.29723e-07
7.03028e-07
1.12296e-05
-7.34407e-07
6.88264e-07
1.12716e-05
-7.25217e-07
6.83268e-07
1.13345e-05
-7.52538e-07
6.8967e-07
1.13817e-05
-7.48808e-07
7.01585e-07
1.14149e-05
-7.98863e-07
7.6569e-07
1.13984e-05
-8.26323e-07
8.42728e-07
1.13252e-05
-8.78095e-07
9.51317e-07
1.12082e-05
-8.80559e-07
9.97542e-07
1.1038e-05
-8.90633e-07
1.06091e-06
1.0845e-05
-7.85245e-07
9.78241e-07
1.05679e-05
-6.34065e-07
9.11175e-07
1.03084e-05
-3.96583e-07
6.56015e-07
1.0099e-05
-6.00469e-08
2.69447e-07
9.94845e-06
4.53811e-07
-3.03233e-07
9.97798e-06
9.28646e-07
-9.58176e-07
1.02931e-05
1.44492e-06
-1.76008e-06
1.08649e-05
2.04915e-06
-2.62092e-06
1.16962e-05
2.48961e-06
-3.32087e-06
1.27859e-05
2.7473e-06
-3.83705e-06
1.39226e-05
2.87199e-06
-4.00871e-06
1.4935e-05
2.86003e-06
-3.8724e-06
1.58606e-05
2.71628e-06
-3.64184e-06
1.66991e-05
2.2262e-06
-3.0647e-06
1.74005e-05
1.80706e-06
-2.50843e-06
1.79817e-05
1.265e-06
-1.84621e-06
1.83487e-05
6.53248e-07
-1.02033e-06
1.85934e-05
1.91618e-08
-2.63799e-07
1.87789e-05
-5.40337e-07
3.54845e-07
1.87578e-05
-1.0949e-06
1.11595e-06
1.86535e-05
-1.65824e-06
1.76259e-06
1.8639e-05
-2.13072e-06
2.14522e-06
1.87097e-05
-2.48783e-06
2.41714e-06
1.89747e-05
-2.96068e-06
2.69561e-06
1.93797e-05
-3.19394e-06
2.78895e-06
1.98381e-05
-3.51777e-06
3.05944e-06
2.04073e-05
-3.88462e-06
3.3154e-06
2.11901e-05
-4.2398e-06
3.45694e-06
2.20267e-05
-4.66631e-06
3.82972e-06
2.29274e-05
-4.98449e-06
4.08385e-06
2.38223e-05
-5.50472e-06
4.60983e-06
2.46766e-05
-5.87305e-06
5.01872e-06
2.57495e-05
-6.33534e-06
5.26243e-06
2.67429e-05
-6.86985e-06
5.87642e-06
2.76213e-05
-7.10954e-06
6.23118e-06
2.86335e-05
-7.83642e-06
6.82422e-06
2.94143e-05
-8.13682e-06
7.35604e-06
3.0223e-05
-8.20663e-06
7.39787e-06
3.09582e-05
-8.9478e-06
8.21262e-06
3.14419e-05
-8.96248e-06
8.47878e-06
3.20293e-05
-9.20309e-06
8.61573e-06
3.23723e-05
-9.36249e-06
9.01942e-06
3.2707e-05
-9.07462e-06
8.73998e-06
3.31105e-05
-9.29184e-06
8.88831e-06
3.29266e-05
-8.99178e-06
9.17569e-06
3.29476e-05
-8.47469e-06
8.45367e-06
3.30631e-05
-8.38324e-06
8.26781e-06
3.27743e-05
-7.82627e-06
8.11506e-06
3.26066e-05
-7.25232e-06
7.42e-06
3.23409e-05
-6.87323e-06
7.13894e-06
3.18468e-05
-5.97762e-06
6.47169e-06
3.13914e-05
-5.12928e-06
5.58468e-06
3.1033e-05
-4.58064e-06
4.93906e-06
3.03088e-05
-3.81464e-06
4.53883e-06
2.96949e-05
-2.49018e-06
3.10407e-06
2.90745e-05
-1.91069e-06
2.53113e-06
2.84105e-05
-7.99684e-07
1.4637e-06
2.78042e-05
3.5082e-07
2.55391e-07
2.725e-05
8.91162e-07
-3.36928e-07
2.66951e-05
2.2256e-06
-1.6707e-06
2.62251e-05
3.6185e-06
-3.14853e-06
2.60658e-05
4.20523e-06
-4.04593e-06
2.59313e-05
5.83031e-06
-5.69575e-06
2.62022e-05
6.35117e-06
-6.62211e-06
2.65129e-05
6.84657e-06
-7.15722e-06
2.68267e-05
7.46298e-06
-7.77683e-06
2.72595e-05
7.24719e-06
-7.67993e-06
2.75984e-05
6.82064e-06
-7.15952e-06
2.78926e-05
6.72692e-06
-7.02118e-06
2.80902e-05
5.38921e-06
-5.58676e-06
2.83439e-05
4.58873e-06
-4.8425e-06
2.8529e-05
3.44164e-06
-3.62671e-06
2.86258e-05
1.80861e-06
-1.90543e-06
2.87459e-05
4.24776e-07
-5.44824e-07
2.87967e-05
-8.75727e-07
8.24925e-07
2.85854e-05
-2.70152e-06
2.91276e-06
2.83173e-05
-3.96291e-06
4.23104e-06
2.80149e-05
-5.13711e-06
5.43952e-06
2.72903e-05
-6.61549e-06
7.34007e-06
2.67139e-05
-7.44093e-06
8.01733e-06
2.56692e-05
-8.00011e-06
9.04481e-06
2.47426e-05
-8.92952e-06
9.85618e-06
2.35338e-05
-8.82908e-06
1.00379e-05
2.26081e-05
-8.74109e-06
9.66679e-06
2.1367e-05
-9.03581e-06
1.02769e-05
2.05609e-05
-8.70839e-06
9.51448e-06
1.95565e-05
-7.41712e-06
8.42157e-06
1.9255e-05
-7.87297e-06
8.17444e-06
1.84964e-05
-8.41665e-06
9.17525e-06
1.81774e-05
-7.47724e-06
7.79629e-06
1.76019e-05
-5.9081e-06
6.48356e-06
1.73785e-05
-6.88481e-06
7.10816e-06
1.68033e-05
-9.33767e-06
9.91296e-06
1.55016e-05
-7.86148e-06
9.16313e-06
1.44177e-05
-4.58881e-06
5.67276e-06
1.34694e-05
-3.48555e-06
4.43385e-06
1.37612e-05
-7.84273e-06
7.55089e-06
1.32911e-05
-1.27613e-05
1.32314e-05
1.32424e-05
-1.68283e-05
1.6877e-05
1.26039e-05
-1.99044e-05
2.05429e-05
1.23774e-05
-2.23774e-05
2.26039e-05
1.21216e-05
-2.3894e-05
2.41498e-05
1.1326e-05
-2.26479e-05
2.34435e-05
1.06563e-05
-2.23785e-05
2.30482e-05
1.0941e-05
-2.19902e-05
2.17055e-05
1.1359e-05
-2.21963e-05
2.17784e-05
1.18328e-05
-2.00295e-05
1.95557e-05
1.18155e-05
-1.66608e-05
1.6678e-05
1.21858e-05
-1.40106e-05
1.36403e-05
1.26663e-05
-1.06296e-05
1.01492e-05
1.30858e-05
-7.03886e-06
6.61927e-06
1.36396e-05
-3.51252e-06
2.95881e-06
1.44655e-05
3.76027e-07
-1.20197e-06
1.54914e-05
3.30253e-06
-4.32847e-06
1.66223e-05
6.53756e-06
-7.66845e-06
1.66772e-05
9.8325e-06
-9.88736e-06
1.7735e-05
1.22732e-05
-1.3331e-05
1.85012e-05
1.6602e-05
-1.73683e-05
1.88997e-05
1.91668e-05
-1.95653e-05
1.94909e-05
2.03081e-05
-2.08993e-05
2.01723e-05
1.99635e-05
-2.06448e-05
2.1324e-05
1.98466e-05
-2.09983e-05
2.18363e-05
2.07755e-05
-2.12878e-05
2.21985e-05
2.17825e-05
-2.21447e-05
2.26967e-05
2.35233e-05
-2.40215e-05
2.31552e-05
2.49755e-05
-2.54341e-05
2.36958e-05
2.58888e-05
-2.64294e-05
2.37825e-05
2.61003e-05
-2.61871e-05
2.35252e-05
2.49829e-05
-2.47256e-05
2.33117e-05
2.36557e-05
-2.34422e-05
2.27995e-05
2.16411e-05
-2.11289e-05
2.17457e-05
2.04904e-05
-1.94366e-05
2.04731e-05
1.90099e-05
-1.77373e-05
1.95105e-05
1.57751e-05
-1.48125e-05
1.79375e-05
1.33023e-05
-1.17293e-05
1.56147e-05
1.21176e-05
-9.79487e-06
1.42712e-05
1.06027e-05
-9.25921e-06
1.3623e-05
1.0848e-05
-1.01997e-05
1.30595e-05
1.23509e-05
-1.17875e-05
1.36568e-05
1.42103e-05
-1.48076e-05
1.20303e-05
1.90206e-05
-1.73941e-05
1.28354e-05
2.0231e-05
-2.10361e-05
3.00411e-05
-2.99708e-05
1.27651e-05
1.32533e-05
-3.33215e-07
1.33815e-05
-1.81794e-07
1.34496e-05
-4.74964e-08
1.34509e-05
7.98909e-09
1.34511e-05
-7.56122e-08
1.34947e-05
-1.77726e-07
1.35766e-05
-2.44889e-07
1.36914e-05
-2.90312e-07
1.37925e-05
-2.74964e-07
1.38993e-05
-2.56389e-07
1.39938e-05
-2.02749e-07
1.40684e-05
-1.2341e-07
1.41376e-05
-8.17126e-08
1.41961e-05
-4.95861e-08
1.42433e-05
-3.15567e-08
1.43072e-05
-7.44147e-08
1.43614e-05
-7.87699e-08
1.44282e-05
-1.33055e-07
1.45041e-05
-1.71222e-07
1.45657e-05
-1.66725e-07
1.46405e-05
-2.01396e-07
1.4699e-05
-1.79549e-07
1.47555e-05
-1.74482e-07
1.48095e-05
-1.72708e-07
1.48523e-05
-1.46816e-07
1.48909e-05
-1.35546e-07
1.49261e-05
-1.17988e-07
1.49567e-05
-9.26225e-08
1.49854e-05
-6.78631e-08
1.50218e-05
-4.08631e-08
1.50583e-05
-2.45211e-09
1.51127e-05
2.40912e-08
1.51758e-05
6.90655e-08
1.52587e-05
1.04501e-07
1.53614e-05
1.23276e-07
1.5474e-05
1.43294e-07
1.55995e-05
1.20478e-07
1.57338e-05
8.67585e-08
1.58517e-05
1.48202e-08
1.59576e-05
-9.89266e-08
1.60363e-05
-2.13741e-07
1.60871e-05
-3.60514e-07
1.6128e-05
-4.925e-07
1.61396e-05
-5.91644e-07
1.61718e-05
-7.00611e-07
1.61966e-05
-7.33281e-07
1.62379e-05
-7.76079e-07
1.62922e-05
-7.84002e-07
1.63404e-05
-7.82674e-07
1.64045e-05
-7.89259e-07
1.64496e-05
-7.97615e-07
1.65019e-05
-8.01112e-07
1.65104e-05
-8.0742e-07
1.6513e-05
-8.28922e-07
1.64426e-05
-8.0763e-07
1.63535e-05
-7.91498e-07
1.62134e-05
-7.50498e-07
1.60286e-05
-6.00467e-07
1.58421e-05
-4.47585e-07
1.56421e-05
-1.96577e-07
1.54397e-05
1.42368e-07
1.53487e-05
5.44808e-07
1.52803e-05
9.97004e-07
1.53388e-05
1.38645e-06
1.55921e-05
1.79583e-06
1.5943e-05
2.13875e-06
1.63992e-05
2.29104e-06
1.69689e-05
2.30237e-06
1.75796e-05
2.24926e-06
1.8213e-05
2.08292e-06
1.87762e-05
1.66295e-06
1.92951e-05
1.28815e-06
1.97405e-05
8.19616e-07
2.01948e-05
1.99015e-07
2.05162e-05
-3.02321e-07
2.08552e-05
-8.79305e-07
2.11482e-05
-1.38788e-06
2.14509e-05
-1.96094e-06
2.18511e-05
-2.53089e-06
2.22304e-05
-2.86714e-06
2.26318e-05
-3.36208e-06
2.33078e-05
-3.86997e-06
2.39358e-05
-4.14576e-06
2.46077e-05
-4.55657e-06
2.54967e-05
-5.12878e-06
2.62219e-05
-5.39147e-06
2.70294e-05
-5.79199e-06
2.79041e-05
-6.37949e-06
2.87327e-05
-6.70159e-06
2.95817e-05
-7.18436e-06
3.02767e-05
-7.56489e-06
3.10578e-05
-7.89062e-06
3.1718e-05
-8.49656e-06
3.21675e-05
-8.58632e-06
3.28115e-05
-8.85066e-06
3.3166e-05
-9.30235e-06
3.344e-05
-9.23644e-06
3.36539e-05
-9.41698e-06
3.36552e-05
-9.3638e-06
3.37391e-05
-9.15851e-06
3.36683e-05
-9.22102e-06
3.33959e-05
-8.71941e-06
3.33734e-05
-8.45215e-06
3.32385e-05
-8.24835e-06
3.27917e-05
-7.3795e-06
3.25905e-05
-7.05114e-06
3.21467e-05
-6.42939e-06
3.1622e-05
-5.45294e-06
3.14568e-05
-4.9641e-06
3.09921e-05
-4.11593e-06
3.02794e-05
-3.10196e-06
2.98913e-05
-2.10203e-06
2.92502e-05
-1.26967e-06
2.86395e-05
-1.88985e-07
2.81879e-05
8.02425e-07
2.7526e-05
1.55309e-06
2.69956e-05
2.75598e-06
2.67488e-05
3.86528e-06
2.64908e-05
4.46326e-06
2.64776e-05
5.84354e-06
2.6608e-05
6.22074e-06
2.67953e-05
6.65929e-06
2.70357e-05
7.22258e-06
2.732e-05
6.96287e-06
2.76017e-05
6.53898e-06
2.79502e-05
6.37842e-06
2.82221e-05
5.1173e-06
2.85468e-05
4.26397e-06
2.87956e-05
3.19288e-06
2.88448e-05
1.7594e-06
2.88527e-05
4.16888e-07
2.8699e-05
-7.22063e-07
2.83888e-05
-2.39126e-06
2.79659e-05
-3.54003e-06
2.74062e-05
-4.5774e-06
2.67664e-05
-5.97567e-06
2.58212e-05
-6.49574e-06
2.48719e-05
-7.05086e-06
2.38618e-05
-7.91942e-06
2.29158e-05
-7.88305e-06
2.1851e-05
-7.67631e-06
2.0972e-05
-8.1568e-06
2.01465e-05
-7.88286e-06
1.96162e-05
-6.88688e-06
1.92723e-05
-7.52899e-06
1.87053e-05
-7.84964e-06
1.82125e-05
-6.98446e-06
1.75326e-05
-5.22822e-06
1.72972e-05
-6.64942e-06
1.63457e-05
-8.38619e-06
1.52011e-05
-6.71686e-06
1.37168e-05
-3.10455e-06
1.31624e-05
-2.93107e-06
1.27895e-05
-7.4699e-06
1.22867e-05
-1.22584e-05
1.17833e-05
-1.63249e-05
1.08968e-05
-1.9018e-05
1.11034e-05
-2.25839e-05
1.02054e-05
-2.2996e-05
9.18032e-06
-2.16228e-05
8.68883e-06
-2.1887e-05
9.17747e-06
-2.24789e-05
9.66234e-06
-2.26812e-05
9.63782e-06
-2.0005e-05
9.58565e-06
-1.66086e-05
9.76094e-06
-1.41859e-05
1.02924e-05
-1.11611e-05
1.08792e-05
-7.62562e-06
1.14674e-05
-4.10074e-06
1.24768e-05
-6.33338e-07
1.3094e-05
2.68526e-06
1.43688e-05
5.2628e-06
1.44445e-05
9.75674e-06
1.45651e-05
1.21526e-05
1.56559e-05
1.55113e-05
1.65857e-05
1.8237e-05
1.7877e-05
1.90168e-05
1.84055e-05
1.94349e-05
1.93582e-05
1.88939e-05
2.02152e-05
1.99186e-05
2.07769e-05
2.12208e-05
2.14592e-05
2.2841e-05
2.16033e-05
2.48314e-05
2.21614e-05
2.53307e-05
2.26198e-05
2.56419e-05
2.23627e-05
2.52399e-05
2.24187e-05
2.35997e-05
2.19389e-05
2.21209e-05
2.14649e-05
2.09644e-05
2.10397e-05
1.94351e-05
1.97272e-05
1.70877e-05
1.78534e-05
1.51761e-05
1.59958e-05
1.39752e-05
1.43268e-05
1.22717e-05
1.46533e-05
1.05215e-05
1.37866e-05
1.32176e-05
1.52801e-05
1.27169e-05
1.47543e-05
1.95463e-05
1.93021e-05
1.56833e-05
3.03038e-05
1.90394e-05
2.0231e-05
-1.45664e-07
2.00615e-05
-1.23439e-08
1.99706e-05
4.34612e-08
1.99554e-05
2.32216e-08
1.99624e-05
-8.26651e-08
1.99775e-05
-1.92785e-07
1.998e-05
-2.47381e-07
2.00142e-05
-3.24506e-07
2.0058e-05
-3.18823e-07
2.01408e-05
-3.39213e-07
2.02353e-05
-2.97185e-07
2.02983e-05
-1.86402e-07
2.03464e-05
-1.29812e-07
2.03567e-05
-5.98761e-08
2.03508e-05
-2.56879e-08
2.03627e-05
-8.63207e-08
2.03684e-05
-8.44797e-08
2.0411e-05
-1.7561e-07
2.04616e-05
-2.21814e-07
2.05019e-05
-2.07064e-07
2.05662e-05
-2.65736e-07
2.0594e-05
-2.07298e-07
2.06278e-05
-2.08341e-07
2.06576e-05
-2.02501e-07
2.06607e-05
-1.49877e-07
2.06865e-05
-1.61362e-07
2.06873e-05
-1.18737e-07
2.07048e-05
-1.10163e-07
2.0718e-05
-8.11042e-08
2.07363e-05
-5.90787e-08
2.07625e-05
-2.86948e-08
2.07957e-05
-9.10418e-09
2.08388e-05
2.59962e-08
2.0899e-05
4.42341e-08
2.09695e-05
5.28349e-08
2.10446e-05
6.81676e-08
2.1134e-05
3.10835e-08
2.12091e-05
1.16514e-08
2.12971e-05
-7.3198e-08
2.13559e-05
-1.57696e-07
2.14088e-05
-2.66626e-07
2.14479e-05
-3.99612e-07
2.14648e-05
-5.09386e-07
2.14817e-05
-6.08579e-07
2.14946e-05
-7.13477e-07
2.15121e-05
-7.50876e-07
2.15415e-05
-8.05424e-07
2.15816e-05
-8.24151e-07
2.16103e-05
-8.11344e-07
2.16596e-05
-8.38515e-07
2.16722e-05
-8.10291e-07
2.16988e-05
-8.27626e-07
2.16849e-05
-7.93594e-07
2.16582e-05
-8.02172e-07
2.1605e-05
-7.54416e-07
2.14918e-05
-6.78302e-07
2.13832e-05
-6.41896e-07
2.12306e-05
-4.47899e-07
2.10602e-05
-2.77164e-07
2.09398e-05
-7.62415e-08
2.07747e-05
3.07538e-07
2.07011e-05
6.18349e-07
2.06943e-05
1.00383e-06
2.07192e-05
1.36154e-06
2.085e-05
1.66507e-06
2.10986e-05
1.89017e-06
2.13644e-05
2.02524e-06
2.16607e-05
2.00599e-06
2.20687e-05
1.84132e-06
2.24482e-05
1.70341e-06
2.28139e-05
1.29726e-06
2.32545e-05
8.47474e-07
2.35908e-05
4.83386e-07
2.39763e-05
-1.8651e-07
2.43506e-05
-6.76587e-07
2.47175e-05
-1.24628e-06
2.51878e-05
-1.85813e-06
2.55581e-05
-2.33121e-06
2.59697e-05
-2.94248e-06
2.654e-05
-3.43748e-06
2.70274e-05
-3.84954e-06
2.76193e-05
-4.46184e-06
2.8228e-05
-4.75439e-06
2.88729e-05
-5.20155e-06
2.95202e-05
-5.77603e-06
3.01295e-05
-6.00079e-06
3.08401e-05
-6.50263e-06
3.1432e-05
-6.97132e-06
3.20179e-05
-7.28757e-06
3.25201e-05
-7.68656e-06
3.29546e-05
-7.99932e-06
3.35002e-05
-8.43628e-06
3.36739e-05
-8.67018e-06
3.39196e-05
-8.83211e-06
3.41782e-05
-9.10922e-06
3.40542e-05
-9.17835e-06
3.40488e-05
-9.23101e-06
3.39185e-05
-9.28666e-06
3.37438e-05
-9.18918e-06
3.3663e-05
-9.07768e-06
3.33169e-05
-8.8749e-06
3.31044e-05
-8.50694e-06
3.29668e-05
-8.31457e-06
3.25959e-05
-7.87741e-06
3.23681e-05
-7.15172e-06
3.22472e-05
-6.93019e-06
3.18881e-05
-6.07034e-06
3.17212e-05
-5.28596e-06
3.14539e-05
-4.69689e-06
3.07821e-05
-3.44414e-06
3.03562e-05
-2.67602e-06
2.99225e-05
-1.66831e-06
2.92042e-05
-5.51366e-07
2.87058e-05
3.09368e-07
2.79992e-05
1.50909e-06
2.72555e-05
2.29671e-06
2.67691e-05
3.2424e-06
2.63969e-05
4.23747e-06
2.61299e-05
4.73031e-06
2.61899e-05
5.78351e-06
2.6134e-05
6.27668e-06
2.63987e-05
6.39458e-06
2.67262e-05
6.8951e-06
2.70192e-05
6.66978e-06
2.73602e-05
6.19801e-06
2.76879e-05
6.0507e-06
2.78917e-05
4.91349e-06
2.80483e-05
4.10741e-06
2.81596e-05
3.08161e-06
2.81918e-05
1.7272e-06
2.80783e-05
5.30382e-07
2.79723e-05
-6.1612e-07
2.77022e-05
-2.12113e-06
2.71164e-05
-2.95419e-06
2.65826e-05
-4.04369e-06
2.58298e-05
-5.22281e-06
2.48692e-05
-5.53516e-06
2.4011e-05
-6.19267e-06
2.31727e-05
-7.0811e-06
2.22708e-05
-6.98116e-06
2.13287e-05
-6.73418e-06
2.07212e-05
-7.54935e-06
2.00757e-05
-7.23732e-06
1.97724e-05
-6.58361e-06
1.91856e-05
-6.94222e-06
1.872e-05
-7.38402e-06
1.78055e-05
-6.06992e-06
1.742e-05
-4.8428e-06
1.68582e-05
-6.08754e-06
1.5955e-05
-7.48298e-06
1.43894e-05
-5.15131e-06
1.30307e-05
-1.74581e-06
1.24366e-05
-2.33703e-06
1.17341e-05
-6.76736e-06
1.12813e-05
-1.18056e-05
1.01572e-05
-1.52008e-05
9.75928e-06
-1.86201e-05
9.35245e-06
-2.21771e-05
8.25522e-06
-2.18988e-05
7.50318e-06
-2.08708e-05
7.23097e-06
-2.16148e-05
7.48742e-06
-2.27353e-05
8.04778e-06
-2.32415e-05
7.43272e-06
-1.939e-05
7.30803e-06
-1.64839e-05
7.35977e-06
-1.42376e-05
7.82861e-06
-1.163e-05
8.36333e-06
-8.16034e-06
8.90169e-06
-4.6391e-06
9.78302e-06
-1.51467e-06
1.02285e-05
2.23973e-06
1.09471e-05
4.5442e-06
1.18876e-05
8.81629e-06
1.17108e-05
1.23294e-05
1.28782e-05
1.43439e-05
1.40273e-05
1.70879e-05
1.55201e-05
1.75241e-05
1.67626e-05
1.81923e-05
1.75303e-05
1.81262e-05
1.86139e-05
1.8835e-05
1.90412e-05
2.07935e-05
1.97737e-05
2.21085e-05
2.04139e-05
2.41912e-05
2.07635e-05
2.49812e-05
2.12461e-05
2.51593e-05
2.1342e-05
2.5144e-05
2.15788e-05
2.33629e-05
2.1395e-05
2.23048e-05
2.10737e-05
2.12857e-05
2.09498e-05
1.9559e-05
1.97607e-05
1.82767e-05
1.77291e-05
1.72078e-05
1.71398e-05
1.45645e-05
1.53044e-05
1.4107e-05
1.55912e-05
1.02347e-05
1.47794e-05
1.40293e-05
1.75956e-05
9.90073e-06
1.64378e-05
2.0704e-05
2.2011e-05
1.01101e-05
2.85827e-05
2.37321e-05
2.51356e-05
-1.56655e-07
2.52003e-05
-7.70716e-08
2.53375e-05
-9.37168e-08
2.54418e-05
-8.10803e-08
2.55404e-05
-1.81315e-07
2.55754e-05
-2.27752e-07
2.5568e-05
-2.39961e-07
2.55242e-05
-2.80771e-07
2.54805e-05
-2.7514e-07
2.54707e-05
-3.29386e-07
2.55121e-05
-3.3856e-07
2.55612e-05
-2.35509e-07
2.56566e-05
-2.25199e-07
2.57162e-05
-1.19509e-07
2.57304e-05
-3.9869e-08
2.57465e-05
-1.02397e-07
2.56737e-05
-1.17311e-08
2.5657e-05
-1.58879e-07
2.56232e-05
-1.88009e-07
2.56153e-05
-1.99193e-07
2.5674e-05
-3.2445e-07
2.57062e-05
-2.39474e-07
2.57697e-05
-2.71849e-07
2.58219e-05
-2.54658e-07
2.58216e-05
-1.49637e-07
2.58367e-05
-1.76462e-07
2.58058e-05
-8.78257e-08
2.57798e-05
-8.40988e-08
2.57657e-05
-6.70441e-08
2.57489e-05
-4.23013e-08
2.57685e-05
-4.83088e-08
2.58021e-05
-4.26523e-08
2.58511e-05
-2.29996e-08
2.59162e-05
-2.08919e-08
2.59831e-05
-1.40991e-08
2.60468e-05
4.45274e-09
2.61183e-05
-4.03931e-08
2.61609e-05
-3.09265e-08
2.62197e-05
-1.32018e-07
2.62482e-05
-1.86198e-07
2.6262e-05
-2.80401e-07
2.62864e-05
-4.2402e-07
2.6268e-05
-4.90961e-07
2.62726e-05
-6.13185e-07
2.62667e-05
-7.07555e-07
2.6249e-05
-7.33188e-07
2.62685e-05
-8.24904e-07
2.62633e-05
-8.18977e-07
2.6277e-05
-8.25026e-07
2.62884e-05
-8.49959e-07
2.6279e-05
-8.00926e-07
2.62657e-05
-8.14308e-07
2.62399e-05
-7.67768e-07
2.61812e-05
-7.43493e-07
2.61268e-05
-7.00035e-07
2.60095e-05
-5.60936e-07
2.59156e-05
-5.48045e-07
2.58062e-05
-3.38428e-07
2.56461e-05
-1.17096e-07
2.55755e-05
-5.64692e-09
2.54955e-05
3.87571e-07
2.54263e-05
6.87503e-07
2.54742e-05
9.55923e-07
2.5578e-05
1.2578e-06
2.56751e-05
1.56793e-06
2.58776e-05
1.68762e-06
2.61881e-05
1.71474e-06
2.63977e-05
1.79648e-06
2.67042e-05
1.53476e-06
2.70786e-05
1.32907e-06
2.73466e-05
1.02917e-06
2.76712e-05
5.22917e-07
2.80237e-05
1.30932e-07
2.83286e-05
-4.91477e-07
2.86808e-05
-1.02879e-06
2.90258e-05
-1.59129e-06
2.93918e-05
-2.22407e-06
2.9748e-05
-2.68746e-06
3.01591e-05
-3.35358e-06
3.05493e-05
-3.82765e-06
3.09733e-05
-4.27352e-06
3.13997e-05
-4.88831e-06
3.18016e-05
-5.15622e-06
3.22875e-05
-5.68746e-06
3.2644e-05
-6.13257e-06
3.30315e-05
-6.38826e-06
3.34638e-05
-6.93498e-06
3.36874e-05
-7.19483e-06
3.39271e-05
-7.52726e-06
3.41764e-05
-7.93589e-06
3.42656e-05
-8.08858e-06
3.43195e-05
-8.49014e-06
3.42416e-05
-8.5923e-06
3.41888e-05
-8.77927e-06
3.40175e-05
-8.93791e-06
3.38004e-05
-8.96133e-06
3.36293e-05
-9.05987e-06
3.3432e-05
-9.08937e-06
3.32124e-05
-8.96957e-06
3.29607e-05
-8.826e-06
3.27877e-05
-8.70187e-06
3.27954e-05
-8.51465e-06
3.27118e-05
-8.23095e-06
3.2568e-05