/*--------------------------------*- C++ -*----------------------------------*\
| =========                 |                                                 |
| \\      /  F ield         | OpenFOAM: The Open Source CFD Toolbox           |
|  \\    /   O peration     | Version:  2.4.0                                 |
|   \\  /    A nd           | Web:      www.OpenFOAM.org                      |
|    \\/     M anipulation  |                                                 |
\*---------------------------------------------------------------------------*/
FoamFile
{
    version     2.0;
    format      ascii;
    class       volScalarField;
    location    "1.19";
    object      pMean;
}
// * * * * * * * * * * * * * * * * * * * * * * * * * * * * * * * * * * * * * //

dimensions      [0 2 -2 0 0 0 0];

internalField   nonuniform List<scalar> 
8800
(
87.7178
75.2604
67.8455
64.2699
62.3689
60.92
59.6988
58.5326
57.4894
56.4395
55.4751
54.4687
53.5499
52.5869
51.7321
50.8397
50.0692
49.2743
48.5866
47.8191
84.6076
74.9062
68.0138
64.3837
62.4287
60.9453
59.7063
58.533
57.4873
56.437
55.4722
54.4666
53.5472
52.5852
51.7299
50.8375
50.0703
49.2696
48.5897
47.779
82.6429
74.9826
68.6146
64.7594
62.5958
61.0246
59.7528
58.5656
57.5115
56.4541
55.4823
54.4714
53.5486
52.5832
51.7281
50.8298
50.0716
49.2574
48.6511
47.8263
81.1081
75.0449
69.1996
65.1831
62.7789
61.1128
59.815
58.6225
57.5597
56.4933
55.5094
54.4895
53.5589
52.5878
51.7288
50.8233
50.0656
49.2497
48.7228
48.0452
79.8603
75.0191
69.6738
65.5892
62.9472
61.1811
59.8636
58.6812
57.6151
56.5459
55.5441
54.5182
53.5709
52.5996
51.7252
50.8239
50.0449
49.2485
48.6716
48.3462
78.8768
74.923
70.0375
65.9361
63.0976
61.2255
59.8911
58.7274
57.6644
56.5967
55.5785
54.5471
53.5814
52.6103
51.7189
50.8227
50.0223
49.2497
48.6965
48.7742
78.1209
74.8083
70.304
66.216
63.2327
61.2528
59.8991
58.7602
57.7033
56.6387
55.6071
54.5707
53.5888
52.6168
51.7112
50.8184
50.0053
49.2572
48.7776
49.1082
77.5683
74.7077
70.4863
66.4277
63.3516
61.2713
59.8937
58.7829
57.7316
56.6719
55.6278
54.5899
53.5922
52.6225
51.7029
50.8192
49.9942
49.2744
48.8158
49.3719
77.2075
74.6364
70.6014
66.5718
63.4359
61.2835
59.886
58.7975
57.7517
56.6963
55.6428
54.604
53.5955
52.6281
51.6999
50.824
49.9942
49.2999
48.8852
49.5886
77.0268
74.6025
70.6589
66.6468
63.4793
61.2912
59.8808
58.8061
57.763
56.7112
55.6516
54.6135
53.5991
52.6347
51.7027
50.8332
50.0044
49.3277
48.9434
49.7039
77.0197
74.6109
70.6599
66.6503
63.4788
61.2936
59.8791
58.8089
57.763
56.715
55.6525
54.6184
53.6017
52.6424
51.7092
50.8467
50.0188
49.3547
48.9825
49.7772
77.1882
74.6594
70.6042
66.5804
63.4345
61.2897
59.8815
58.8048
57.7522
56.7064
55.6457
54.6177
53.6036
52.6499
51.7198
50.8625
50.0386
49.377
49.0048
49.7955
77.5398
74.7411
70.489
66.4382
63.3481
61.2801
59.8864
58.7937
57.7316
56.6871
55.6315
54.6115
53.6042
52.6576
51.7342
50.8823
50.0643
49.3997
49.0067
49.7541
78.0861
74.8469
70.3061
66.2256
63.2249
61.2625
59.8892
58.7724
57.7013
56.657
55.6097
54.5985
53.6023
52.6639
51.7504
50.9061
50.097
49.4288
48.9934
49.6352
78.8398
74.9629
70.0403
65.9438
63.0864
61.2337
59.8816
58.7393
57.6615
56.6163
55.5815
54.5784
53.5977
52.6663
51.7673
50.9313
50.1383
49.4682
48.991
49.4336
79.8216
75.0607
69.6772
65.5972
62.934
61.1888
59.8553
58.6941
57.6126
56.5672
55.5487
54.5535
53.5914
52.6647
51.7839
50.9545
50.1864
49.5186
49.0187
49.169
81.0679
75.088
69.2045
65.194
62.7647
61.1213
59.8076
58.6377
57.5577
56.5172
55.5158
54.529
53.5842
52.6608
51.7981
50.9721
50.2333
49.5669
49.0765
48.8928
82.6018
75.0252
68.6216
64.7726
62.5813
61.0334
59.746
58.5816
57.5107
56.4788
55.4915
54.5123
53.5793
52.6593
51.8084
50.9854
50.2668
49.6039
49.1344
48.749
84.5651
74.9469
68.0224
64.3988
62.4146
60.9539
59.6997
58.5493
57.4873
56.4622
55.4824
54.5084
53.5799
52.6627
51.8152
50.9955
50.2825
49.6254
49.1313
48.6716
87.6741
75.2994
67.8539
64.2854
62.3554
60.9286
59.6924
58.5492
57.4894
56.4651
55.4852
54.5111
53.5826
52.6652
51.8184
50.9989
50.2861
49.6312
49.1327
48.7909
47.8312
47.7009
47.4119
47.1114
46.8716
46.6985
46.5871
46.5182
46.4736
46.4431
46.4191
46.3905
46.3561
46.3146
46.2657
46.2083
46.1437
46.0677
45.9837
45.8877
45.7851
45.6819
45.5847
45.4946
45.417
45.3543
45.3078
45.2697
45.2347
45.192
45.1394
45.076
45.0094
44.9458
44.89
44.8382
44.7871
44.725
44.6507
44.5621
44.466
44.3656
44.2755
44.2037
44.1601
44.1433
44.1562
44.1888
44.2387
44.2928
44.3437
44.3762
44.3869
44.3642
44.3148
44.2299
44.1234
43.9904
43.8435
43.671
43.4781
43.2551
43.0132
42.7521
42.4893
42.2404
42.0256
41.8631
41.7632
41.7191
41.7309
41.7833
41.8733
41.9814
42.1091
42.2343
42.3619
42.4669
42.5554
42.6059
42.6266
42.6053
42.5588
42.4749
42.3827
42.2758
42.1781
42.0954
42.036
42.0122
42.0281
42.0936
42.2068
42.3619
42.5523
42.7649
42.9924
43.2215
43.4474
43.6602
43.8614
44.0454
44.2171
44.3573
44.4899
44.597
44.7031
44.7932
44.8932
44.9747
45.0555
45.1181
45.1726
45.209
45.2334
45.2453
45.2513
45.2484
45.2455
45.2346
45.228
45.2142
45.2138
45.2071
45.2258
45.2307
45.2738
45.2984
45.3649
45.4232
45.5183
45.6086
45.7238
45.8383
45.9741
46.1092
46.2629
46.4122
46.5745
46.73
46.8997
47.0697
47.254
47.439
47.6375
47.8324
48.0392
48.2473
48.4606
48.6741
48.886
49.0945
49.3026
49.5009
49.6994
49.8922
50.0994
50.2906
50.5014
50.6978
50.9141
51.0959
51.3013
51.4608
51.6423
51.7712
51.9251
52.018
52.134
52.1878
52.2883
52.3099
52.4143
52.4267
52.5653
52.5773
52.7652
52.7873
53.0116
53.0636
53.305
53.394
53.6665
53.8127
54.1165
54.3268
54.6606
54.9013
55.2634
55.4979
55.8521
56.0188
56.2467
56.155
55.9938
55.1906
53.952
50.6991
46.6036
26.4767
47.6194
47.5638
47.44
47.2134
46.9653
46.7611
46.6302
46.5612
46.5329
46.5201
46.51
46.4901
46.4608
46.4204
46.3727
46.3155
46.2515
46.1778
46.0976
46.0081
45.914
45.8189
45.7297
45.6469
45.5755
45.5145
45.4661
45.4246
45.3878
45.3472
45.3014
45.2467
45.189
45.1298
45.0748
45.02
44.9651
44.9023
44.8315
44.7488
44.6608
44.5702
44.4884
44.4209
44.3769
44.3553
44.3595
44.3817
44.419
44.459
44.497
44.5189
44.5233
44.4983
44.4499
44.3686
44.265
44.1339
43.9858
43.8138
43.6229
43.4074
43.1744
42.9281
42.6801
42.4455
42.24
42.0773
41.9691
41.9118
41.907
41.9418
42.014
42.1071
42.2171
42.3283
42.4364
42.5264
42.5963
42.6339
42.6436
42.6184
42.5703
42.4974
42.4138
42.3253
42.2401
42.1736
42.125
42.1089
42.1281
42.1929
42.3002
42.4451
42.6225
42.823
43.0383
43.257
43.4747
43.6842
43.8822
44.0648
44.2298
44.3653
44.4897
44.5908
44.6864
44.7656
44.8463
44.9128
44.9725
45.0182
45.0506
45.0657
45.065
45.0544
45.0345
45.0097
44.9817
44.9465
44.9185
44.883
44.867
44.8459
44.8555
44.8544
44.8893
44.9126
44.9712
45.0247
45.111
45.194
45.3021
45.4095
45.5398
45.667
45.8142
45.9558
46.1097
46.2562
46.4186
46.5791
46.7561
46.9304
47.1239
47.3059
47.5091
47.7053
47.9151
48.1193
48.3271
48.5272
48.7353
48.923
49.1244
49.312
49.528
49.7165
49.9418
50.1407
50.3682
50.5541
50.7667
50.9236
51.105
51.2253
51.3698
51.4424
51.5458
51.5717
51.6598
51.6441
51.7396
51.7091
51.8419
51.8162
51.9915
51.9873
52.1892
52.2222
52.436
52.5037
52.7333
52.8511
53.1084
53.2554
53.5491
53.6862
53.9909
54.081
54.3128
54.2549
54.279
53.801
53.2849
51.6465
49.9262
44.2383
38.4771
19.9403
47.5795
47.5814
47.5852
47.4151
47.1292
46.8489
46.6604
46.5717
46.5569
46.5704
46.5853
46.5826
46.5625
46.5242
46.4754
46.4153
46.3495
46.2757
46.1977
46.1133
46.0276
45.9413
45.8611
45.7863
45.7215
45.6643
45.6173
45.5755
45.539
45.5005
45.4601
45.4127
45.3626
45.3087
45.2559
45.2004
45.1439
45.0811
45.0137
44.9382
44.8596
44.7796
44.707
44.6455
44.6026
44.5776
44.5735
44.5838
44.6068
44.6314
44.6545
44.6636
44.6583
44.628
44.5761
44.4958
44.3926
44.264
44.1159
43.9469
43.7596
43.5543
43.3348
43.107
42.8793
42.6633
42.4729
42.3169
42.2063
42.1409
42.1228
42.1432
42.199
42.2771
42.3711
42.4666
42.5565
42.6302
42.682
42.7074
42.7064
42.6803
42.6319
42.5687
42.4933
42.4182
42.3454
42.289
42.2475
42.2337
42.252
42.3117
42.4089
42.5423
42.7051
42.8932
43.0945
43.3032
43.5119
43.7159
43.9094
44.0886
44.2473
44.3786
44.4977
44.595
44.683
44.7548
44.8217
44.8777
44.9227
44.9556
44.9702
44.9669
44.9459
44.9152
44.8758
44.8281
44.7808
44.7221
44.6797
44.6244
44.5997
44.5675
44.5727
44.5713
44.6006
44.6255
44.6764
44.7284
44.8056
44.8837
44.9852
45.0868
45.211
45.3311
45.4702
45.6046
45.7513
45.8902
46.0475
46.2037
46.3775
46.5498
46.7402
46.9184
47.1202
47.3089
47.5172
47.708
47.9093
48.0963
48.3001
48.4756
48.6798
48.8632
49.0806
49.2702
49.5072
49.7145
49.9477
50.1414
50.3571
50.5084
50.6882
50.7925
50.9267
50.9705
51.0645
51.0629
51.1426
51.0929
51.1857
51.1186
51.2447
51.19
51.3361
51.3152
51.4706
51.4909
51.6535
51.7022
51.8871
51.9545
52.179
52.2368
52.4857
52.5069
52.7276
52.6598
52.7745
52.44
52.3118
51.304
50.6764
47.9046
46.0303
39.0028
32.0573
19.4317
47.6445
47.6276
47.6272
47.4083
47.0788
46.7805
46.5983
46.5359
46.5596
46.6141
46.6648
46.688
46.6825
46.6487
46.5975
46.5321
46.461
46.384
46.3065
46.2259
46.1473
46.0696
45.9986
45.9325
45.8754
45.8239
45.7807
45.7412
45.7063
45.6702
45.6337
45.5917
45.5471
45.4973
45.4464
45.3916
45.3356
45.2747
45.2117
45.1437
45.0754
45.0062
44.9433
44.8876
44.8459
44.8168
44.8038
44.8011
44.8084
44.8164
44.8233
44.8194
44.8033
44.7672
44.7114
44.6315
44.5297
44.4053
44.2614
44.0991
43.921
43.7291
43.5269
43.3196
43.1142
42.9192
42.7456
42.6001
42.4914
42.4211
42.3927
42.3999
42.4402
42.5026
42.5795
42.658
42.7299
42.7874
42.8239
42.839
42.8302
42.8022
42.7543
42.6967
42.6292
42.563
42.4991
42.4464
42.4054
42.388
42.4009
42.4517
42.5371
42.6574
42.8072
42.9811
43.1698
43.3665
43.5673
43.7631
43.9514
44.1246
44.2775
44.404
44.5189
44.6146
44.6982
44.7676
44.8282
44.879
44.9164
44.9386
44.9383
44.9186
44.8817
44.8318
44.7788
44.7109
44.6505
44.5743
44.5206
44.4504
44.4202
44.3813
44.3858
44.3837
44.4121
44.435
44.4851
44.5362
44.6124
44.6894
44.7869
44.8849
45.0032
45.1168
45.2489
45.3747
45.5152
45.6478
45.803
45.9558
46.1307
46.3052
46.4969
46.6803
46.8841
47.0694
47.2766
47.4517
47.6485
47.8154
48.0138
48.1731
48.3801
48.5585
48.7787
48.9702
49.2192
49.4222
49.667
49.8521
50.0803
50.212
50.4005
50.4763
50.6128
50.6199
50.7138
50.676
50.7524
50.6705
50.7649
50.6767
50.7817
50.7191
50.8138
50.7864
50.8847
50.8853
51.0007
51.015
51.163
51.167
51.3478
51.3169
51.503
51.3847
51.5655
51.244
51.3573
50.5924
50.5101
48.7824
48.158
44.5367
42.1035
35.4888
28.0797
19.6385
48.8914
48.6366
47.8587
47.1746
46.7006
46.4425
46.3724
46.422
46.5318
46.6487
46.745
46.7999
46.8129
46.7866
46.7343
46.6634
46.5854
46.5033
46.4236
46.3453
46.2725
46.2034
46.1419
46.0856
46.0373
45.9934
45.9559
45.9205
45.8885
45.8553
45.8217
45.7836
45.7431
45.6976
45.6501
45.5985
45.5455
45.4886
45.4308
45.3699
45.3098
45.2492
45.1932
45.1415
45.0994
45.0654
45.0424
45.0268
45.0186
45.0118
45.0039
44.9884
44.9624
44.9209
44.8621
44.7839
44.686
44.5689
44.4342
44.2836
44.1196
43.9443
43.7619
43.576
43.3936
43.2202
43.0648
42.9325
42.83
42.7593
42.7238
42.7206
42.7462
42.7926
42.8506
42.9107
42.9644
43.0063
43.0298
43.0356
43.0205
42.9889
42.9411
42.8849
42.8209
42.7569
42.6946
42.6388
42.5925
42.5668
42.571
42.6097
42.6837
42.7906
42.9292
43.0899
43.2671
43.4543
43.6469
43.8354
44.0191
44.1868
44.3356
44.4589
44.5716
44.667
44.7486
44.8192
44.8767
44.9246
44.9561
44.9681
44.9557
44.9198
44.8704
44.805
44.7418
44.6604
44.5887
44.5033
44.4402
44.3687
44.3364
44.3021
44.3048
44.3051
44.332
44.3545
44.4089
44.4587
44.5416
44.6176
44.7185
44.813
44.9296
45.036
45.1659
45.2815
45.4211
45.5474
45.7049
45.8528
46.0352
46.2116
46.4138
46.6039
46.8142
46.9972
47.2067
47.3647
47.5608
47.7033
47.8974
48.0375
48.2451
48.4103
48.6411
48.8251
49.0882
49.2744
49.5353
49.6999
49.9417
50.0502
50.2511
50.2929
50.4338
50.4045
50.4981
50.4209
50.4922
50.3889
50.4755
50.388
50.4658
50.399
50.4599
50.4063
50.4727
50.4296
50.5267
50.4769
50.6125
50.525
50.6909
50.5078
50.6961
50.3348
50.5448
49.8711
50.0132
48.8024
48.642
46.4891
45.4357
41.8299
38.6281
33.3626
26.3666
20.1318
49.7784
49.4114
48.1346
47.0611
46.3891
46.1105
46.1244
46.2873
46.497
46.6902
46.8396
46.9295
46.9613
46.942
46.8878
46.8104
46.7239
46.6346
46.5505
46.4723
46.4031
46.3413
46.2885
46.242
46.2028
46.1673
46.1362
46.1062
46.0777
46.0476
46.0165
45.9818
45.9446
45.9031
45.8594
45.812
45.763
45.711
45.6583
45.6038
45.5498
45.4956
45.444
45.395
45.3516
45.3134
45.2821
45.2559
45.2344
45.2142
45.193
45.1664
45.1312
45.0844
45.0237
44.9478
44.8558
44.748
44.6249
44.4883
44.3404
44.1841
44.023
43.8602
43.7015
43.5508
43.415
43.2983
43.2056
43.1391
43.102
43.0935
43.1084
43.1404
43.1808
43.2234
43.2601
43.2869
43.2985
43.295
43.2729
43.2356
43.1839
43.1231
43.0562
42.9884
42.9227
42.86
42.8051
42.7658
42.7594
42.7855
42.8477
42.9426
43.0714
43.2211
43.3876
43.5671
43.753
43.9367
44.1166
44.2827
44.4296
44.5533
44.666
44.7614
44.8439
44.9162
44.973
45.0162
45.0412
45.0407
45.0168
44.9644
44.9066
44.8305
44.7592
44.6709
44.5914
44.505
44.4398
44.3798
44.3515
44.3302
44.3338
44.3407
44.3654
44.3961
44.4538
44.5138
44.6041
44.6826
44.7901
44.8798
44.9967
45.0958
45.2252
45.334
45.4764
45.6005
45.761
45.91
46.1041
46.2834
46.5037
46.7019
46.9227
47.1072
47.3172
47.4613
47.6499
47.7742
47.9599
48.0774
48.2882
48.4301
48.671
48.8406
49.1136
49.2779
49.5577
49.6933
49.955
50.0295
50.2437
50.2534
50.3982
50.3223
50.4207
50.2984
50.3766
50.253
50.3423
50.2451
50.3266
50.2241
50.2883
50.1799
50.248
50.1297
50.2376
50.0977
50.2371
50.037
50.1884
49.8534
50.0017
49.4596
49.5681
48.6993
48.618
47.2518
46.6965
44.5605
43.0117
39.8817
36.3989
32.4242
26.3732
21.1958
50.3993
49.9966
48.4155
47.0513
46.1937
45.8544
45.9099
46.1624
46.4644
46.7332
46.9367
47.0628
47.1135
47.1002
47.042
46.9563
46.8595
46.7622
46.6725
46.5932
46.5262
46.4703
46.4251
46.3877
46.3571
46.3302
46.3059
46.282
46.2577
46.2312
46.2024
46.1701
46.1351
46.0967
46.0558
46.0123
45.9671
45.92
45.8719
45.8226
45.7732
45.7237
45.6751
45.628
45.5835
45.5421
45.5045
45.4702
45.4383
45.4073
45.3749
45.3389
45.2963
45.2455
45.1844
45.1118
45.0266
44.9288
44.8185
44.6972
44.5669
44.4304
44.2903
44.1502
44.0137
43.8848
43.7677
43.6671
43.5868
43.5298
43.4974
43.4889
43.4991
43.5209
43.5473
43.5742
43.5963
43.6109
43.6123
43.599
43.5689
43.5242
43.465
43.3952
43.3209
43.2461
43.1736
43.1008
43.034
42.9797
42.9597
42.9745
43.0277
43.1151
43.2373
43.3798
43.5401
43.7144
43.8944
44.0762
44.2532
44.4187
44.565
44.6929
44.8032
44.898
44.9819
45.053
45.1082
45.1444
45.1638
45.1518
45.1178
45.0521
44.9849
44.9014
44.8237
44.7354
44.6538
44.5762
44.5201
44.481
44.4664
44.4636
44.475
44.4911
44.5187
44.5593
44.6232
44.6989
44.7938
44.886
44.9927
45.0872
45.2003
45.3005
45.4283
45.5414
45.6877
45.8173
45.9837
46.1449
46.349
46.5389
46.7694
46.9815
47.2112
47.3999
47.6067
47.7427
47.9166
48.0364
48.2047
48.2996
48.5098
48.6305
48.8605
49.0242
49.2995
49.4408
49.7377
49.8478
50.1187
50.1722
50.3853
50.3809
50.5221
50.4206
50.4986
50.3582
50.4256
50.3088
50.3859
50.2925
50.3613
50.2483
50.2911
50.1523
50.1903
50.0286
50.0828
49.8983
49.9545
49.7021
49.7471
49.3368
49.3507
48.719
48.6179
47.709
47.3663
45.9847
45.1722
43.1421
41.4133
38.8761
35.5331
32.442
27.4201
22.8087
51.0225
50.5726
48.6956
47.0768
46.0662
45.6609
45.7317
46.054
46.4364
46.7735
47.0254
47.1841
47.2521
47.2443
47.1819
47.0882
46.9822
46.878
46.7838
46.704
46.639
46.5885
46.5498
46.5206
46.4978
46.4789
46.4612
46.4432
46.4231
46.4004
46.374
46.3443
46.3112
46.2752
46.2366
46.1961
46.1536
46.11
46.0649
46.0191
45.9725
45.9257
45.8787
45.8326
45.7871
45.7435
45.7012
45.6609
45.6213
45.5823
45.5418
45.4994
45.4523
45.4001
45.3402
45.2726
45.1951
45.1084
45.0115
44.9064
44.7933
44.6754
44.5545
44.4347
44.3181
44.2094
44.1109
44.0275
43.9611
43.9158
43.8901
43.8842
43.8917
43.9063
43.9219
43.937
43.9476
43.9533
43.9471
43.9259
43.8876
43.8341
43.765
43.6844
43.6008
43.5165
43.4369
43.3541
43.2752
43.2094
43.1779
43.1856
43.2338
43.319
43.4355
43.5727
43.7281
43.8977
44.0748
44.2554
44.4333
44.6011
44.7474
44.8766
44.9822
45.0775
45.1597
45.225
45.2743
45.3016
45.3142
45.2957
45.2519
45.1785
45.1015
45.0174
44.9388
44.8582
44.785
44.7266
44.6899
44.6777
44.684
44.7041
44.7294
44.7596
44.7975
44.8525
44.928
45.0162
45.1177
45.2176
45.3227
45.4279
45.5402
45.6498
45.7789
45.9043
46.0566
46.2004
46.3748
46.5535
46.768
46.9714
47.2153
47.4338
47.6745
47.865
48.0761
48.1982
48.3594
48.4838
48.6352
48.7197
48.9212
49.0156
49.2338
49.3767
49.6541
49.7747
50.0756
50.1825
50.4464
50.4962
50.7061
50.6992
50.8353
50.7051
50.7517
50.6085
50.6463
50.5528
50.6198
50.5378
50.5963
50.4762
50.5038
50.3403
50.3434
50.1445
50.1261
49.8988
49.855
49.5477
49.4855
48.9896
48.8974
48.194
47.9441
47.0141
46.5394
45.1692
44.2769
42.4419
40.6708
38.6594
35.6247
32.9988
28.8356
24.6497
51.3354
50.888
48.9084
47.1602
46.0512
45.5864
45.6459
46.0021
46.4353
46.8225
47.1125
47.2976
47.3798
47.3762
47.3096
47.2092
47.0958
46.9867
46.8897
46.8101
46.7474
46.7015
46.6685
46.6462
46.6299
46.6176
46.6055
46.5925
46.5762
46.5568
46.5327
46.5054
46.4739
46.44
46.4031
46.3646
46.3239
46.2823
46.2387
46.1948
46.1494
46.104
46.0576
46.0116
45.9652
45.9197
45.874
45.8294
45.7843
45.7401
45.6949
45.649
45.6001
45.5487
45.4919
45.4304
45.3613
45.2858
45.2017
45.1117
45.015
44.915
44.8122
44.7115
44.614
44.525
44.4452
44.3791
44.3268
44.2928
44.2745
44.2716
44.2764
44.2855
44.2925
44.2981
44.3008
44.3006
44.2886
44.2618
44.2178
44.1571
44.0782
43.986
43.8899
43.7954
43.707
43.614
43.5303
43.457
43.4214
43.427
43.4761
43.5602
43.6721
43.8019
43.9536
44.1202
44.2987
44.4794
44.6611
44.8355
44.9859
45.1137
45.2171
45.3099
45.3847
45.4393
45.4765
45.4944
45.501
45.4763
45.4274
45.3531
45.2746
45.1961
45.1251
45.0579
45.0038
44.9704
44.9612
44.9792
45.0112
45.0582
45.1026
45.1519
45.2063
45.2757
45.3653
45.4646
45.5744
45.6791
45.787
45.9029
46.0187
46.1388
46.2759
46.4102
46.5733
46.7329
46.921
47.1204
47.3482
47.5669
47.827
48.0492
48.3097
48.4906
48.7249
48.8131
48.9763
49.0917
49.227
49.3107
49.507
49.5631
49.788
49.8987
50.1835
50.2795
50.5861
50.6776
50.9507
50.9727
51.2113
51.1978
51.3466
51.1427
51.1659
51.0312
51.059
50.9827
51.044
50.9756
51.0387
50.9062
50.9305
50.7368
50.7164
50.485
50.4122
50.1258
50.0166
49.6434
49.451
48.9477
48.7403
48.0974
47.7723
46.8107
46.2725
44.9303
43.9725
42.3752
40.6112
38.9559
36.2728
33.8502
30.3185
26.5352
51.5182
51.0923
49.0812
47.274
46.109
45.5998
45.6412
46.0102
46.4719
46.8892
47.2027
47.4033
47.493
47.4902
47.4199
47.3144
47.1966
47.0852
46.9879
46.91
46.8505
46.809
46.7812
46.7645
46.7537
46.7465
46.7387
46.7294
46.7161
46.6993
46.6774
46.652
46.6222
46.59
46.5545
46.5174
46.4778
46.4374
46.3947
46.3517
46.3068
46.2617
46.2152
46.1688
46.1212
46.0742
46.0264
45.9795
45.9318
45.8851
45.8376
45.7906
45.7422
45.6933
45.6413
45.5868
45.5268
45.4619
45.3903
45.3146
45.2334
45.1501
45.0646
44.9823
44.9034
44.8328
44.7714
44.7225
44.6849
44.6632
44.6534
44.6529
44.6552
44.6601
44.6621
44.6607
44.6567
44.6521
44.6372
44.6082
44.5606
44.4931
44.4062
44.305
44.1975
44.0894
43.9917
43.8894
43.8042
43.7281
43.6947
43.7011
43.7574
43.8429
43.9535
44.0773
44.2292
44.3947
44.5738
44.7545
44.9441
45.1267
45.284
45.4093
45.5086
45.5924
45.6559
45.6971
45.7223
45.7323
45.7345
45.7067
45.6587
45.5891
45.5178
45.4525
45.3979
45.3528
45.3251
45.3202
45.3441
45.3925
45.4562
45.5306
45.5994
45.6714
45.7461
45.8287
45.9308
46.0364
46.1548
46.2621
46.3804
46.5019
46.628
46.7557
46.9067
47.0474
47.2309
47.4048
47.6134
47.8339
48.083
48.3136
48.5978
48.8121
49.1065
49.2656
49.5296
49.5609
49.754
49.8343
49.9831
50.047
50.2393
50.2528
50.5032
50.5801
50.8857
50.9354
51.2832
51.3267
51.6556
51.5907
51.9102
51.8593
52.0682
51.7324
51.7792
51.62
51.6764
51.6098
51.7071
51.6203
51.713
51.5442
51.5941
51.3395
51.3381
51.0647
50.9849
50.6065
50.4178
49.9788
49.7547
49.2719
49.0479
48.3513
48.0039
47.0155
46.4044
45.1411
44.0694
42.7017
41.0321
39.5492
37.1709
34.8462
31.7515
28.3524
51.6289
51.212
49.1895
47.3626
46.1818
45.6615
45.7024
46.0789
46.552
46.9788
47.2981
47.5006
47.5889
47.5825
47.5087
47.4012
47.2836
47.1741
47.0802
47.0062
46.9513
46.9147
46.8917
46.8795
46.8726
46.8687
46.8636
46.8566
46.8452
46.8302
46.8101
46.7864
46.7582
46.7275
46.6933
46.6573
46.6187
46.579
46.5369
46.4941
46.4493
46.4041
46.3573
46.3103
46.2621
46.2143
46.1656
46.1176
46.0693
46.0223
45.9751
45.9292
45.8829
45.8376
45.7912
45.7443
45.694
45.6404
45.5821
45.5209
45.4554
45.3885
45.3211
45.2571
45.196
45.1426
45.0993
45.0674
45.0444
45.0337
45.0311
45.0325
45.0337
45.0358
45.0337
45.0284
45.0214
45.0142
44.9985
44.97
44.9215
44.8499
44.7567
44.6465
44.5299
44.4103
44.3045
44.1966
44.1136
44.0384
44.0171
44.0259
44.0933
44.1812
44.2943
44.413
44.5705
44.735
44.9159
45.0936
45.2926
45.4794
45.6419
45.7608
45.8523
45.9199
45.9695
45.997
46.016
46.0222
46.0224
45.9947
45.9567
45.8966
45.8457
45.7988
45.7743
45.7525
45.7622
45.7874
45.8495
45.9244
46.023
46.1189
46.222
46.315
46.4173
46.5129
46.6274
46.7313
46.8603
46.9628
47.0958
47.214
47.3582
47.4914
47.6605
47.8088
48.0178
48.2087
48.4481
48.6857
48.9654
49.1988
49.5124
49.7105
50.0459
50.1658
50.4603
50.421
50.6735
50.7035
50.8963
50.9042
51.1184
51.0966
51.3876
51.4191
51.7556
51.7503
52.1346
52.1478
52.5417
52.4019
52.8204
52.7036
52.9551
52.4875
52.6334
52.3963
52.5475
52.4209
52.5904
52.4823
52.6055
52.3933
52.4697
52.1605
52.1885
51.873
51.7462
51.311
51.1339
50.7074
50.4467
49.886
49.5903
48.8448
48.5697
47.5091
46.7714
45.6191
44.4799
43.284
41.7776
40.3185
38.1482
35.907
33.1188
30.0587
51.6618
51.2397
49.2206
47.4146
46.2612
45.77
45.8339
46.2183
46.6864
47.1003
47.4052
47.5936
47.6697
47.6548
47.578
47.4719
47.3591
47.2558
47.1688
47.1013
47.0526
47.0209
47.002
46.9927
46.9879
46.9854
46.9815
46.9753
46.9652
46.9511
46.9324
46.91
46.8834
46.854
46.8212
46.7863
46.7488
46.7098
46.6687
46.6266
46.5825
46.5373
46.4906
46.4434
46.3952
46.3472
46.299
46.2517
46.205
46.1596
46.1147
46.0713
46.029
45.9885
45.9485
45.909
45.8685
45.8269
45.7827
45.7363
45.6869
45.6369
45.5882
45.5425
45.5
45.4643
45.4388
45.4224
45.4114
45.4084
45.4109
45.4141
45.4145
45.412
45.4041
45.3952
45.3875
45.3814
45.3694
45.3452
45.2998
45.23
45.1352
45.0197
44.8954
44.7676
44.6552
44.547
44.4691
44.4035
44.4007
44.4134
44.4935
44.5811
44.6973
44.8077
44.9725
45.135
45.3189
45.4914
45.7019
45.8898
46.0591
46.1692
46.2499
46.2898
46.3299
46.3394
46.3598
46.3643
46.3699
46.3464
46.3274
46.2842
46.2669
46.2436
46.2608
46.2671
46.3227
46.3758
46.4791
46.5789
46.7173
46.8337
46.9685
47.0798
47.2141
47.3197
47.4499
47.5571
47.6877
47.789
47.9341
48.0522
48.2129
48.3579
48.5406
48.7108
48.9428
49.1505
49.4154
49.6687
49.9715
50.2162
50.5373
50.7265
51.0741
51.1867
51.4511
51.3807
51.7153
51.6627
51.9143
51.8461
52.1004
52.0547
52.3785
52.4097
52.7488
52.7203
53.1449
53.1443
53.5537
53.4135
53.8503
53.7227
53.9308
53.4114
53.5964
53.326
53.6054
53.4624
53.6917
53.5454
53.6919
53.4574
53.5461
53.2136
53.2213
52.8601
52.6892
52.2566
52.0492
51.5965
51.2611
50.7423
50.4525
49.6794
49.2375
48.1516
47.3521
46.2916
45.1962
44.0384
42.6695
41.1624
39.1445
36.9965
34.4341
31.6513
51.5929
51.1601
49.177
47.4424
46.3635
45.9435
46.0506
46.4361
46.8771
47.2532
47.522
47.6788
47.7316
47.7043
47.6259
47.5253
47.4223
47.3297
47.2533
47.1949
47.1537
47.1273
47.1118
47.104
47.0998
47.097
47.093
47.0866
47.0768
47.0633
47.0457
47.0245
46.9995
46.9715
46.9404
46.9071
46.8714
46.8339
46.7943
46.7532
46.71
46.6654
46.6193
46.5726
46.5256
46.479
46.4332
46.3887
46.345
46.3027
46.2617
46.2227
46.1857
46.1516
46.1193
46.0885
46.0579
46.0277
45.9973
45.9666
45.9337
45.9003
45.8694
45.8418
45.818
45.8012
45.7928
45.7897
45.7897
45.7942
45.8004
45.8033
45.8007
45.7928
45.7805
45.7698
45.7622
45.7579
45.7516
45.7345
45.6961
45.633
45.5425
45.427
45.2989
45.1701
45.0562
44.9519
44.878
44.8279
44.8419
44.8642
44.9532
45.0371
45.1503
45.2577
45.434
45.5918
45.7762
45.9447
46.1695
46.3557
46.5338
46.6312
46.7015
46.7148
46.7441
46.7393
46.7708
46.7722
46.7913
46.7756
46.7826
46.7649
46.7911
46.8002
46.8658
46.9089
47.0141
47.0981
47.245
47.3667
47.5387
47.6723
47.8408
47.9677
48.1339
48.2515
48.3988
48.5032
48.6387
48.743
48.8986
49.0294
49.2086
49.3705
49.5671
49.7606
50.0034
50.2297
50.5182
50.7785
51.087
51.3461
51.6541
51.8593
52.1675
52.3161
52.5071
52.4505
52.7972
52.6959
52.9702
52.9032
53.2104
53.1506
53.4738
53.5406
53.8054
53.8139
54.2496
54.2993
54.7093
54.6388
54.9868
54.9242
54.9789
54.4804
54.7253
54.3751
54.8015
54.6348
54.9115
54.7948
54.9231
54.7006
54.7423
54.4467
54.4275
53.992
53.7746
53.3698
53.1114
52.6861
52.3357
51.9207
51.374
50.5885
49.9936
48.9548
48.1573
47.1688
46.143
44.9307
43.6515
42.0512
40.1685
38.1043
35.7252
33.1662
51.3754
50.9377
49.0618
47.4773
46.5307
46.2169
46.367
46.731
47.1161
47.4283
47.6395
47.7494
47.7717
47.7314
47.6545
47.5642
47.4755
47.3979
47.335
47.2876
47.2543
47.2327
47.2193
47.2116
47.2064
47.202
47.1965
47.189
47.1787
47.1651
47.1481
47.1278
47.104
47.0775
47.0485
47.0173
46.984
46.9487
46.9116
46.8724
46.831
46.7878
46.7429
46.6979
46.6538
46.6112
46.5694
46.5284
46.4888
46.4511
46.4152
46.3817
46.3514
46.3247
46.3009
46.2798
46.2612
46.2452
46.2304
46.2139
46.1961
46.1797
46.1666
46.1566
46.1516
46.1528
46.1592
46.1679
46.1778
46.1895
46.1997
46.2038
46.1994
46.186
46.1681
46.155
46.1486
46.1486
46.1493
46.1415
46.115
46.0638
45.9822
45.8734
45.747
45.6236
45.5092
45.4133
45.3465
45.3166
45.3372
45.3636
45.4532
45.5338
45.6431
45.7674
45.9579
46.1168
46.2997
46.4735
46.7025
46.8796
47.0582
47.1484
47.2142
47.2099
47.2335
47.2246
47.2663
47.2712
47.3073
47.3035
47.3401
47.3542
47.4239
47.4732
47.5893
47.6751
47.828
47.9497
48.1338
48.281
48.4789
48.6298
48.825
48.969
49.1609
49.296
49.4576
49.5662
49.7076
49.8213
49.9927
50.1382
50.3373
50.5179
50.7274
50.9433
51.1809
51.4252
51.7116
51.9856
52.2867
52.5685
52.8349
53.0643
53.3263
53.506
53.627
53.6896
53.9341
53.8193
54.0847
54.0694
54.367
54.3624
54.6509
54.7924
54.9282
55.0409
55.4319
55.5233
55.9287
55.9937
56.2218
56.1949
56.194
55.748
55.9608
55.7264
56.1034
55.9084
56.2206
56.1671
56.282
56.0825
56.0637
55.7587
55.675
55.2169
54.9679
54.621
54.2628
53.9501
53.4919
53.0766
52.3717
51.7408
50.8457
49.9266
49.101
48.2145
47.2172
45.9485
44.6903
42.9793
41.2144
39.2071
36.9819
34.5967
50.9032
50.4898
48.8813
47.572
46.8295
46.6277
46.7876
47.0896
47.3845
47.6078
47.7444
47.7999
47.7916
47.7415
47.6703
47.5939
47.5226
47.4616
47.4128
47.3758
47.3492
47.3305
47.3176
47.3083
47.3008
47.2938
47.2861
47.277
47.2658
47.2519
47.2352
47.2156
47.1933
47.1685
47.1416
47.1128
47.0823
47.0501
47.0161
46.9798
46.941
46.9007
46.8596
46.8183
46.7778
46.7397
46.7043
46.6701
46.6364
46.6036
46.5729
46.5463
46.5246
46.5069
46.4926
46.4827
46.477
46.4748
46.4753
46.4763
46.4765
46.4766
46.4794
46.4862
46.4976
46.5129
46.5315
46.5511
46.5707
46.5891
46.6029
46.6076
46.6011
46.5835
46.5604
46.5432
46.5378
46.543
46.5523
46.556
46.5442
46.509
46.4412
46.3437
46.2275
46.1169
46.0054
45.9247
45.8648
45.8496
45.8707
45.9068
45.9923
46.0665
46.1761
46.3323
46.5327
46.698
46.8773
47.07
47.2872
47.4582
47.6278
47.7184
47.781
47.7846
47.8004
47.8002
47.8489
47.8722
47.9264
47.9474
48.0072
48.0567
48.1632
48.265
48.4188
48.5583
48.743
48.9112
49.1133
49.2931
49.5063
49.6816
49.8941
50.0625
50.2684
50.4223
50.6027
50.7194
50.8786
51.0104
51.1901
51.3587
51.5666
51.7599
51.9778
52.1991
52.427
52.6863
52.9624
53.2447
53.5453
53.8521
54.0779
54.3349
54.5276
54.7156
54.8537
54.99
55.0996
55.117
55.2881
55.3695
55.632
55.6572
55.8788
56.0566
56.1599
56.4005
56.6103
56.8992
57.2421
57.3257
57.4825
57.4922
57.437
57.1686
57.3609
57.2715
57.4665
57.375
57.5862
57.6036
57.6441
57.5147
57.4228
57.1563
56.9718
56.5607
56.2482
55.922
55.485
55.2573
54.698
54.3103
53.3924
52.9231
51.8112
51.0798
50.1858
49.4097
48.3504
47.0626
45.783
43.9828
42.299
40.3205
38.2248
35.964
50.1404
49.8201
48.6873
47.7782
47.2796
47.16
47.2731
47.4643
47.6388
47.7594
47.8199
47.8273
47.7961
47.7425
47.6804
47.6192
47.5644
47.5182
47.4808
47.4515
47.4286
47.4109
47.3968
47.3852
47.3751
47.3655
47.3558
47.3454
47.3335
47.3195
47.303
47.284
47.2629
47.2397
47.2148
47.1888
47.1622
47.1343
47.104
47.0714
47.0369
47.0005
46.9639
46.9285
46.8945
46.8625
46.8335
46.8076
46.7829
46.7579
46.7345
46.7169
46.7063
46.7003
46.6978
46.6999
46.7074
46.7192
46.733
46.7464
46.7609
46.7778
46.7973
46.8197
46.8447
46.871
46.8981
46.925
46.9512
46.9749
46.991
46.9962
46.9883
46.9683
46.9421
46.9223
46.918
46.9272
46.9421
46.9535
46.9533
46.9338
46.8839
46.8042
46.7045
46.6133
46.5078
46.4531
46.4051
46.4029
46.4216
46.4766
46.5513
46.6344
46.7564
46.9321
47.1238
47.3017
47.4891
47.7046
47.9037
48.0791
48.2308
48.3325
48.3905
48.4172
48.4294
48.4563
48.5042
48.5602
48.6252
48.6892
48.7651
48.8604
48.9867
49.1434
49.3232
49.5159
49.7175
49.928
50.1326
50.3489
50.5588
50.7617
50.9776
51.1822
51.392
51.5884
51.7713
51.9255
52.0837
52.2497
52.4259
52.6258
52.8271
53.0486
53.2585
53.4916
53.7119
53.9844
54.2398
54.5344
54.8169
55.1234
55.3357
55.6396
55.7391
55.9942
56.0577
56.2369
56.3084
56.4378
56.5462
56.7299
56.8419
56.9564
57.1167
57.321
57.3692
57.7562
57.9
58.3758
58.4431
58.6103
58.6935
58.7899
58.7498
58.7685
58.7964
58.7872
58.8173
58.8891
58.9411
59.0098
58.9872
58.9167
58.6848
58.611
58.1757
57.9307
57.5482
57.2588
56.7912
56.6165
55.8787
55.4414
54.4684
54.1016
52.8837
52.3842
51.3168
50.6082
49.4179
48.2064
46.8593
45.0409
43.3995
41.4408
39.4409
37.2584
49.3064
49.1392
48.5861
48.1135
47.8301
47.7233
47.7297
47.7817
47.8333
47.8624
47.8624
47.8364
47.7929
47.7411
47.6885
47.6399
47.5974
47.5612
47.5308
47.5054
47.4839
47.4656
47.4499
47.4363
47.4241
47.4128
47.4017
47.3902
47.3777
47.3636
47.3473
47.3287
47.3085
47.2875
47.2658
47.2426
47.2187
47.1947
47.1696
47.1418
47.1117
47.0816
47.0523
47.0232
46.9959
46.9732
46.9547
46.9384
46.923
46.9083
46.8972
46.8922
46.893
46.8982
46.9083
46.9234
46.9428
46.9654
46.9909
47.0174
47.0433
47.0692
47.0974
47.1286
47.1613
47.1938
47.226
47.2573
47.2867
47.3108
47.3263
47.3328
47.3289
47.3132
47.2895
47.2702
47.2657
47.2749
47.2924
47.3089
47.317
47.3096
47.2755
47.2159
47.1402
47.0813
46.998
46.9704
46.9322
46.9494