/*--------------------------------*- C++ -*----------------------------------*\
| =========                 |                                                 |
| \\      /  F ield         | OpenFOAM: The Open Source CFD Toolbox           |
|  \\    /   O peration     | Version:  2.4.0                                 |
|   \\  /    A nd           | Web:      www.OpenFOAM.org                      |
|    \\/     M anipulation  |                                                 |
\*---------------------------------------------------------------------------*/
FoamFile
{
    version     2.0;
    format      ascii;
    class       volVectorField;
    location    "1.19";
    object      U;
}
// * * * * * * * * * * * * * * * * * * * * * * * * * * * * * * * * * * * * * //

dimensions      [0 1 -1 0 0 0 0];

internalField   nonuniform List<vector> 
8800
(
(8.09267 0.387859 0)
(5.45219 0.242668 0)
(3.9081 0.0432043 0)
(3.16127 -0.0157296 0)
(2.79562 -0.0184039 0)
(2.6059 -0.0107496 0)
(2.47424 -0.00575182 0)
(2.39267 -0.00294193 0)
(2.30532 -0.000293522 0)
(2.26268 -0.00136448 0)
(2.20267 -0.00090429 0)
(2.18431 0.00015709 0)
(2.12416 0.000619186 0)
(2.11936 -0.000980016 0)
(2.05972 0.00126593 0)
(2.05886 -0.000570663 0)
(1.99364 0.00112005 0)
(2.00023 -0.00349864 0)
(1.99196 0.0114681 0)
(1.77152 -0.0697054 0)
(10.0819 0.837928 0)
(9.66891 0.868135 0)
(8.8565 0.507246 0)
(8.1037 0.261274 0)
(7.47183 0.138226 0)
(7.03143 0.0829298 0)
(6.66925 0.0536459 0)
(6.43488 0.0394488 0)
(6.18307 0.0330201 0)
(6.06877 0.0222541 0)
(5.88127 0.0179228 0)
(5.82895 0.0183715 0)
(5.66491 0.0174944 0)
(5.6562 0.0113444 0)
(5.49258 0.0191447 0)
(5.49934 0.0109153 0)
(5.34236 0.0217765 0)
(5.34284 -0.00889642 0)
(5.2903 0.0319224 0)
(5.13257 -0.0218179 0)
(10.0478 0.629426 0)
(10.6866 0.865607 0)
(10.8333 0.601663 0)
(10.7323 0.372169 0)
(10.4178 0.255858 0)
(10.1324 0.198144 0)
(9.78659 0.151311 0)
(9.56106 0.122774 0)
(9.23917 0.0990639 0)
(9.11439 0.0724927 0)
(8.84702 0.0588518 0)
(8.78245 0.0536279 0)
(8.55094 0.0467757 0)
(8.54214 0.0345376 0)
(8.31258 0.0467356 0)
(8.32653 0.0297439 0)
(8.11299 0.050022 0)
(8.11724 -0.00196303 0)
(8.00781 0.0413429 0)
(7.92864 -0.0625699 0)
(9.95625 0.453836 0)
(10.6317 0.708817 0)
(11.099 0.545329 0)
(11.4421 0.351342 0)
(11.4909 0.261834 0)
(11.54 0.231362 0)
(11.41 0.19634 0)
(11.4 0.17675 0)
(11.1938 0.154655 0)
(11.1857 0.120155 0)
(10.9745 0.105569 0)
(10.9673 0.0948433 0)
(10.7621 0.0868035 0)
(10.7779 0.0639754 0)
(10.5589 0.0849422 0)
(10.5836 0.0536374 0)
(10.3763 0.0901512 0)
(10.3734 0.00965093 0)
(10.2384 0.0686295 0)
(10.2309 -0.0712441 0)
(9.9467 0.339535 0)
(10.507 0.578614 0)
(10.9576 0.459868 0)
(11.3843 0.289729 0)
(11.5645 0.206393 0)
(11.772 0.198712 0)
(11.7902 0.170732 0)
(11.9249 0.173263 0)
(11.8906 0.15561 0)
(11.9982 0.125231 0)
(11.933 0.112157 0)
(12.0201 0.112029 0)
(11.9454 0.0935818 0)
(12.0258 0.0851921 0)
(11.9122 0.095465 0)
(11.9817 0.0814248 0)
(11.8723 0.099766 0)
(11.8912 0.0559689 0)
(11.761 0.0616789 0)
(11.8314 0.0105607 0)
(9.98306 0.245618 0)
(10.3815 0.455692 0)
(10.8434 0.384082 0)
(11.2382 0.249453 0)
(11.4664 0.15655 0)
(11.6664 0.156966 0)
(11.7541 0.138463 0)
(11.8834 0.137983 0)
(11.9303 0.133809 0)
(12.0668 0.105144 0)
(12.0839 0.0942935 0)
(12.2084 0.094855 0)
(12.2136 0.0823157 0)
(12.3487 0.0717151 0)
(12.3252 0.0895464 0)
(12.4402 0.0713919 0)
(12.4214 0.103687 0)
(12.5242 0.066454 0)
(12.4055 0.10699 0)
(12.4901 -0.0070762 0)
(9.98106 0.173392 0)
(10.3424 0.360052 0)
(10.7103 0.285883 0)
(11.1342 0.203771 0)
(11.3751 0.118126 0)
(11.5715 0.119629 0)
(11.6738 0.0944377 0)
(11.7816 0.128327 0)
(11.8693 0.0900367 0)
(11.951 0.0924562 0)
(12.055 0.0620307 0)
(12.1077 0.0972957 0)
(12.205 0.035004 0)
(12.2717 0.0789909 0)
(12.3409 0.0477331 0)
(12.429 0.0831825 0)
(12.4447 0.0453951 0)
(12.6096 0.114076 0)
(12.4474 0.0943959 0)
(12.6287 0.129899 0)
(9.96936 0.0997394 0)
(10.2859 0.260326 0)
(10.6809 0.208074 0)
(11.0549 0.16588 0)
(11.288 0.0638758 0)
(11.5112 0.103132 0)
(11.6122 0.0507045 0)
(11.718 0.0968867 0)
(11.7879 0.0561596 0)
(11.8559 0.0833433 0)
(12.0147 0.0192209 0)
(12.0278 0.0940919 0)
(12.1884 0.00755245 0)
(12.1357 0.0760892 0)
(12.3256 0.00694085 0)
(12.323 0.0907422 0)
(12.3998 0.013068 0)
(12.5419 0.119363 0)
(12.4399 0.077127 0)
(12.5969 0.117372 0)
(10.0148 0.0685568 0)
(10.2208 0.146518 0)
(10.6359 0.116357 0)
(10.9693 0.102195 0)
(11.2811 0.0507167 0)
(11.4576 0.041903 0)
(11.6009 0.032316 0)
(11.6726 0.0665136 0)
(11.7143 0.046044 0)
(11.8544 0.0202595 0)
(11.9217 0.025314 0)
(12.0349 0.0489815 0)
(12.072 0.0168862 0)
(12.1222 0.0318432 0)
(12.2721 0.0178157 0)
(12.2829 0.0378006 0)
(12.3752 0.010076 0)
(12.4414 0.0583699 0)
(12.4431 0.0878838 0)
(12.4376 -0.0132971 0)
(9.98928 0.00694472 0)
(10.2463 0.0573706 0)
(10.5989 0.04602 0)
(10.952 0.0435076 0)
(11.2473 -0.00929176 0)
(11.447 0.0363379 0)
(11.5388 -0.0093472 0)
(11.6279 0.038341 0)
(11.7586 0.00882767 0)
(11.8482 0.0137896 0)
(11.8371 -0.020162 0)
(12.0158 0.0470033 0)
(12.0723 0.00232839 0)
(12.1445 0.0100618 0)
(12.1998 -0.0175558 0)
(12.3197 0.0377914 0)
(12.3217 -0.0120477 0)
(12.3841 0.0356167 0)
(12.4005 0.0287234 0)
(12.4897 0.00280753 0)
(9.99817 -0.0201573 0)
(10.2171 -0.0517432 0)
(10.5807 -0.0447566 0)
(11.0071 -0.0214971 0)
(11.2347 -0.0197151 0)
(11.4296 -0.0144516 0)
(11.5602 -0.0189788 0)
(11.6467 -0.0125262 0)
(11.7459 -0.0158037 0)
(11.8319 -0.0136472 0)
(11.8745 -0.0112617 0)
(11.9496 -0.00939852 0)
(12.1206 -0.00914343 0)
(12.1293 -0.00204243 0)
(12.2312 -0.0229201 0)
(12.2423 -0.00307161 0)
(12.3642 -0.0186418 0)
(12.3865 0.00516094 0)
(12.4467 -0.0090381 0)
(12.434 -0.0344926 0)
(10.0044 -0.0735758 0)
(10.2492 -0.140755 0)
(10.6189 -0.127995 0)
(10.9731 -0.0876121 0)
(11.2748 -0.0553688 0)
(11.4519 -0.0346767 0)
(11.5695 -0.0605387 0)
(11.6678 -0.0454244 0)
(11.7698 -0.0360377 0)
(11.832 -0.038498 0)
(11.9025 -0.036518 0)
(12.0441 -0.0279246 0)
(12.0649 -0.0234606 0)
(12.1459 -0.0323443 0)
(12.2692 -0.0325421 0)
(12.2831 -0.0228576 0)
(12.3847 -0.0448728 0)
(12.3932 -0.0340517 0)
(12.5014 -0.0331358 0)
(12.362 -0.0324752 0)
(10.0048 -0.117161 0)
(10.2544 -0.250945 0)
(10.6798 -0.206325 0)
(11.0351 -0.146242 0)
(11.3139 -0.0867482 0)
(11.5005 -0.0752588 0)
(11.6217 -0.0786168 0)
(11.7034 -0.085446 0)
(11.7963 -0.0642422 0)
(11.8769 -0.0608238 0)
(11.9763 -0.0581947 0)
(12.0622 -0.0519492 0)
(12.0929 -0.0306902 0)
(12.2343 -0.0541411 0)
(12.2809 -0.0534385 0)
(12.3495 -0.048104 0)
(12.3957 -0.0577276 0)
(12.4782 -0.0645217 0)
(12.5089 -0.0576262 0)
(12.4007 -0.0470919 0)
(10.0241 -0.178865 0)
(10.301 -0.351648 0)
(10.7483 -0.29037 0)
(11.0943 -0.20298 0)
(11.4056 -0.122799 0)
(11.5517 -0.108887 0)
(11.6857 -0.112733 0)
(11.7758 -0.117024 0)
(11.8724 -0.0826928 0)
(11.9389 -0.0966906 0)
(12.054 -0.0768566 0)
(12.1047 -0.0661828 0)
(12.1931 -0.0538328 0)
(12.2863 -0.0857249 0)
(12.3587 -0.0578773 0)
(12.3988 -0.0661517 0)
(12.4719 -0.0849257 0)
(12.5304 -0.0986018 0)
(12.5514 -0.0801516 0)
(12.5098 -0.073815 0)
(10.0689 -0.256124 0)
(10.31 -0.454894 0)
(10.8927 -0.372651 0)
(11.1745 -0.247905 0)
(11.5432 -0.163842 0)
(11.6029 -0.148358 0)
(11.8111 -0.144631 0)
(11.8267 -0.147869 0)
(11.9833 -0.111852 0)
(11.9925 -0.120693 0)
(12.1535 -0.0949759 0)
(12.1469 -0.0917955 0)
(12.2797 -0.0723967 0)
(12.2888 -0.103079 0)
(12.3875 -0.0710571 0)
(12.3751 -0.0948912 0)
(12.4657 -0.0919135 0)
(12.4429 -0.125336 0)
(12.4802 -0.103745 0)
(12.4001 -0.119013 0)
(10.0673 -0.350885 0)
(10.3788 -0.563629 0)
(11.0533 -0.460756 0)
(11.2976 -0.296362 0)
(11.6731 -0.211273 0)
(11.6582 -0.186039 0)
(11.8974 -0.183348 0)
(11.8091 -0.17264 0)
(11.9952 -0.137496 0)
(11.8837 -0.140411 0)
(12.0457 -0.117774 0)
(11.9109 -0.102177 0)
(12.0551 -0.0876127 0)
(11.9039 -0.112244 0)
(12.0215 -0.0799429 0)
(11.8689 -0.0977687 0)
(11.9477 -0.0966952 0)
(11.7805 -0.134825 0)
(11.8066 -0.1104 0)
(11.6054 -0.148206 0)
(10.0149 -0.459448 0)
(10.5494 -0.703768 0)
(11.1823 -0.545546 0)
(11.3636 -0.353713 0)
(11.5672 -0.261399 0)
(11.4448 -0.224522 0)
(11.5106 -0.203944 0)
(11.2758 -0.178067 0)
(11.3209 -0.142832 0)
(11.0577 -0.132164 0)
(11.096 -0.107062 0)
(10.8352 -0.0910956 0)
(10.9021 -0.0772994 0)
(10.6181 -0.0905335 0)
(10.7021 -0.0651026 0)
(10.4276 -0.0818845 0)
(10.4903 -0.0728958 0)
(10.201 -0.114491 0)
(10.2261 -0.0863143 0)
(9.90169 -0.146664 0)
(10.0668 -0.633114 0)
(10.6503 -0.86243 0)
(10.8756 -0.601042 0)
(10.6823 -0.373873 0)
(10.4631 -0.256118 0)
(10.0786 -0.194797 0)
(9.84963 -0.155399 0)
(9.4745 -0.123994 0)
(9.33919 -0.0915389 0)
(9.0092 -0.078568 0)
(8.9453 -0.0617032 0)
(8.67044 -0.05025 0)
(8.67382 -0.0408862 0)
(8.39589 -0.0506602 0)
(8.44421 -0.0384531 0)
(8.17257 -0.0450206 0)
(8.21753 -0.0472255 0)
(7.92247 -0.0699104 0)
(7.93765 -0.0640818 0)
(7.60399 -0.0773762 0)
(10.0857 -0.838913 0)
(9.65313 -0.867482 0)
(8.87493 -0.506518 0)
(8.07824 -0.261895 0)
(7.49616 -0.138379 0)
(7.00333 -0.0812814 0)
(6.70315 -0.0548383 0)
(6.38608 -0.0417978 0)
(6.24128 -0.028015 0)
(6.0057 -0.0252133 0)
(5.94099 -0.020334 0)
(5.75511 -0.0167476 0)
(5.74564 -0.0128714 0)
(5.55905 -0.0212234 0)
(5.57558 -0.0151995 0)
(5.38651 -0.0194824 0)
(5.40324 -0.0216522 0)
(5.18168 -0.0332413 0)
(5.17897 -0.0348048 0)
(4.89953 -0.0126467 0)
(8.09156 -0.388028 0)
(5.44804 -0.24248 0)
(3.9121 -0.0428501 0)
(3.15633 0.015406 0)
(2.80147 0.0180764 0)
(2.59704 0.0113559 0)
(2.48657 0.0055445 0)
(2.37515 0.00185023 0)
(2.32311 0.00225482 0)
(2.24533 0.000396031 0)
(2.22012 0.00015397 0)
(2.15631 0.000238723 0)
(2.15301 0.00101465 0)
(2.08679 -0.00192239 0)
(2.08107 -0.000196961 0)
(2.01087 -0.00139484 0)
(2.00477 -0.00129273 0)
(1.91206 -0.00434578 0)
(1.87726 -0.00355994 0)
(1.73816 0.0115801 0)
(2.24615 -0.101491 0)
(2.36181 0.00829128 0)
(2.52868 0.0320418 0)
(2.63644 0.0174884 0)
(2.73227 -0.00939125 0)
(2.77813 -0.0247834 0)
(2.84468 -0.0320392 0)
(2.88548 -0.0328885 0)
(2.95933 -0.0321971 0)
(3.00803 -0.0233306 0)
(3.08122 -0.0145967 0)
(3.12807 0.00197 0)
(3.18622 0.0110122 0)
(3.23074 0.0158807 0)
(3.28537 0.016705 0)
(3.32648 0.0102786 0)
(3.3786 0.00467047 0)
(3.41821 -0.00606123 0)
(3.46873 -0.0151916 0)
(3.50626 -0.0197152 0)
(3.55338 -0.0257051 0)
(3.58627 -0.0264145 0)
(3.62756 -0.0262083 0)
(3.655 -0.027431 0)
(3.69138 -0.0238902 0)
(3.71343 -0.0222448 0)
(3.74459 -0.0178625 0)
(3.76224 -0.0122774 0)
(3.79043 -0.0039638 0)
(3.80778 0.00713505 0)
(3.83676 0.0214266 0)
(3.86475 0.0383741 0)
(3.89568 0.0582431 0)
(3.94276 0.0784724 0)
(3.98222 0.0934809 0)
(4.0474 0.105495 0)
(4.10583 0.102939 0)
(4.17889 0.0979183 0)
(4.25032 0.068104 0)
(4.32334 0.0228055 0)
(4.39033 -0.0322381 0)
(4.42011 -0.0963352 0)
(4.47268 -0.148169 0)
(4.45963 -0.196998 0)
(4.50216 -0.224781 0)
(4.45794 -0.239904 0)
(4.50704 -0.243806 0)
(4.45434 -0.243417 0)
(4.52166 -0.241447 0)
(4.47529 -0.238437 0)
(4.54694 -0.249238 0)
(4.51637 -0.243759 0)
(4.5701 -0.264815 0)
(4.54724 -0.276133 0)
(4.56456 -0.304273 0)
(4.52184 -0.312411 0)
(4.49335 -0.326729 0)
(4.39953 -0.295439 0)
(4.34707 -0.252744 0)
(4.19775 -0.179129 0)
(4.1453 -0.0608293 0)
(3.99876 0.106691 0)
(3.98736 0.28435 0)
(4.05123 0.477176 0)
(4.13589 0.6905 0)
(4.43747 0.86205 0)
(4.78255 0.981698 0)
(5.27722 1.03058 0)
(5.71959 1.02816 0)
(6.08858 1.00884 0)
(6.53025 0.801321 0)
(6.76468 0.631635 0)
(7.11784 0.49788 0)
(7.30016 0.280476 0)
(7.41196 0.0259778 0)
(7.57607 -0.141297 0)
(7.54287 -0.327647 0)
(7.55732 -0.57106 0)
(7.52007 -0.683728 0)
(7.40977 -0.769606 0)
(7.60566 -0.955969 0)
(7.61714 -0.985282 0)
(7.81141 -1.06186 0)
(8.09436 -1.20023 0)
(8.21076 -1.30495 0)
(8.66331 -1.45349 0)
(8.94904 -1.51086 0)
(9.37693 -1.6656 0)
(9.69174 -1.83158 0)
(10.0081 -1.9553 0)
(10.5883 -2.14387 0)
(10.801 -2.19948 0)
(11.2389 -2.44176 0)
(11.6931 -2.62551 0)
(11.7926 -2.57043 0)
(12.3374 -2.86894 0)
(12.4763 -2.96029 0)
(12.6385 -3.01132 0)
(12.9589 -3.12838 0)
(12.9453 -2.99578 0)
(13.2043 -3.06052 0)
(13.2724 -3.09928 0)
(13.152 -2.85632 0)
(13.2198 -2.78665 0)
(13.2433 -2.71823 0)
(13.1213 -2.47524 0)
(13.0115 -2.40974 0)
(12.9327 -2.20131 0)
(12.6751 -1.82912 0)
(12.5221 -1.60607 0)
(12.4317 -1.48435 0)
(11.9501 -1.03398 0)
(11.905 -0.801224 0)
(11.4774 -0.469081 0)
(11.2843 0.00502174 0)
(11.0482 0.208734 0)
(10.7653 0.57899 0)
(10.537 1.11549 0)
(10.4671 1.36762 0)
(10.2068 1.89861 0)
(10.413 2.18168 0)
(10.4406 2.33949 0)
(10.5209 2.55788 0)
(10.8992 2.54545 0)
(10.9103 2.3613 0)
(11.0063 2.36114 0)
(11.3344 1.92196 0)
(11.2334 1.63225 0)
(11.3926 1.27609 0)
(11.4163 0.706538 0)
(11.6449 0.217166 0)
(11.3406 -0.203959 0)
(11.7284 -0.835431 0)
(11.3121 -1.28503 0)
(11.4664 -1.70464 0)
(11.004 -2.24204 0)
(11.0125 -2.5703 0)
(10.5316 -2.75634 0)
(10.1521 -3.11205 0)
(9.7866 -3.07724 0)
(9.21867 -3.08848 0)
(8.91241 -3.17312 0)
(8.38752 -3.11005 0)
(8.07141 -2.65711 0)
(7.72959 -2.64112 0)
(7.67782 -2.97325 0)
(7.26019 -2.61038 0)
(7.28161 -2.15293 0)
(6.91688 -2.17151 0)
(7.05447 -3.25314 0)
(6.55293 -2.88836 0)
(6.06973 -1.92313 0)
(5.62536 -1.18978 0)
(5.25242 -2.42678 0)
(5.55109 -4.04061 0)
(5.0827 -5.3491 0)
(5.27795 -6.60626 0)
(4.81006 -7.21752 0)
(4.84694 -7.96675 0)
(4.96731 -7.61827 0)
(4.02201 -7.50308 0)
(4.44965 -7.29831 0)
(4.50912 -7.35554 0)
(4.40385 -6.75491 0)
(4.99935 -5.71702 0)
(4.68569 -4.75085 0)
(5.0234 -3.65738 0)
(5.11008 -2.44509 0)
(5.37213 -1.28815 0)
(5.67178 0.0524095 0)
(5.79473 1.10199 0)
(6.41243 2.33324 0)
(6.85036 2.97564 0)
(6.66748 4.00312 0)
(7.52008 5.63673 0)
(7.40695 6.60111 0)
(7.64358 7.10343 0)
(7.86918 6.86826 0)
(8.19806 6.94679 0)
(8.8454 7.03916 0)
(8.65119 7.3375 0)
(9.09739 7.93572 0)
(9.19062 8.27741 0)
(9.37598 8.70276 0)
(9.68667 8.71418 0)
(9.43598 8.27123 0)
(9.42704 7.9916 0)
(9.30135 7.30751 0)
(9.08544 6.74414 0)
(8.43249 6.20402 0)
(7.95066 5.14917 0)
(7.78211 4.15116 0)
(6.93607 3.50573 0)
(5.95245 3.2794 0)
(5.81723 3.61012 0)
(5.40527 3.88466 0)
(5.46468 4.76406 0)
(5.16274 6.05137 0)
(5.84693 6.97825 0)
(3.52653 9.97957 0)
(5.31161 -0.0865665 0)
(5.33973 -0.0647838 0)
(5.36728 -0.0368929 0)
(5.3652 -0.0180737 0)
(5.39172 -0.0395483 0)
(5.39338 -0.0688805 0)
(5.43399 -0.0794274 0)
(5.45314 -0.0804305 0)
(5.50681 -0.0759224 0)
(5.53082 -0.0715053 0)
(5.58127 -0.0578162 0)
(5.60125 -0.0378407 0)
(5.6428 -0.0238006 0)
(5.65457 -0.0139344 0)
(5.6905 -0.00741307 0)
(5.70304 -0.0164084 0)
(5.73652 -0.0191606 0)
(5.7564 -0.0342885 0)
(5.789 -0.0467392 0)
(5.81327 -0.0484137 0)
(5.84549 -0.0574322 0)
(5.86608 -0.0543149 0)
(5.89345 -0.0515075 0)
(5.9131 -0.0511467 0)
(5.93158 -0.0440443 0)
(5.95397 -0.0406051 0)
(5.96277 -0.0357491 0)
(5.98605 -0.0273542 0)
(5.99085 -0.0209628 0)
(6.01306 -0.00860119 0)
(6.02086 0.00320671 0)
(6.0474 0.0157812 0)
(6.06141 0.0306007 0)
(6.09222 0.0443051 0)
(6.12426 0.053445 0)
(6.15205 0.0609227 0)
(6.2098 0.0560497 0)
(6.23063 0.0443126 0)
(6.30793 0.0213912 0)
(6.3178 -0.0193176 0)
(6.40283 -0.0605668 0)
(6.39788 -0.112816 0)
(6.46473 -0.158752 0)
(6.4545 -0.195497 0)
(6.50199 -0.228992 0)
(6.48788 -0.240589 0)
(6.52572 -0.257222 0)
(6.51275 -0.25143 0)
(6.54812 -0.258639 0)
(6.54852 -0.252251 0)
(6.57744 -0.25676 0)
(6.58449 -0.256258 0)
(6.60882 -0.261231 0)
(6.5986 -0.269661 0)
(6.61387 -0.27592 0)
(6.55875 -0.272876 0)
(6.57542 -0.262337 0)
(6.45138 -0.232698 0)
(6.44878 -0.176036 0)
(6.31788 -0.0963545 0)
(6.26801 0.00340066 0)
(6.17255 0.165102 0)
(6.12671 0.316583 0)
(6.12432 0.440744 0)
(6.12143 0.611399 0)
(6.25324 0.740054 0)
(6.37667 0.779102 0)
(6.60211 0.801752 0)
(6.85231 0.797284 0)
(7.05921 0.731288 0)
(7.42094 0.615133 0)
(7.56123 0.508539 0)
(7.81374 0.305142 0)
(8.01166 0.132342 0)
(8.13173 -0.00231397 0)
(8.36631 -0.245387 0)
(8.40478 -0.408416 0)
(8.50256 -0.573491 0)
(8.7534 -0.786002 0)
(8.76644 -0.881757 0)
(8.99046 -1.05576 0)
(9.17084 -1.20074 0)
(9.42814 -1.29051 0)
(9.67994 -1.43038 0)
(9.99755 -1.57153 0)
(10.3557 -1.66668 0)
(10.6085 -1.79532 0)
(11.0128 -1.99994 0)
(11.3046 -2.09651 0)
(11.6604 -2.23662 0)
(12.0353 -2.40841 0)
(12.2047 -2.49544 0)
(12.5993 -2.72707 0)
(12.8183 -2.80453 0)
(12.922 -2.84751 0)
(13.2581 -3.07084 0)
(13.3089 -3.05839 0)
(13.432 -3.11703 0)
(13.4785 -3.13961 0)
(13.4703 -3.05448 0)
(13.5135 -3.15103 0)
(13.4258 -2.97741 0)
(13.3405 -2.83328 0)
(13.3591 -2.82885 0)
(13.2489 -2.56174 0)
(13.0884 -2.42207 0)
(13.031 -2.26523 0)
(12.7862 -1.91209 0)
(12.5998 -1.66425 0)
(12.5954 -1.51269 0)
(12.3249 -1.19401 0)
(12.0042 -0.72569 0)
(11.9781 -0.505457 0)
(11.5446 -0.145359 0)
(11.399 0.235442 0)
(11.2054 0.401422 0)
(10.8549 0.809179 0)
(10.672 1.25735 0)
(10.7228 1.3747 0)
(10.3709 1.94441 0)
(10.6712 2.11469 0)
(10.5801 2.24889 0)
(10.7171 2.48593 0)
(10.8854 2.42617 0)
(11.031 2.26215 0)
(10.9637 2.2619 0)
(11.3785 1.84443 0)
(11.2786 1.55155 0)
(11.5281 1.19186 0)
(11.4891 0.693274 0)
(11.7065 0.166128 0)
(11.4624 -0.20777 0)
(11.524 -0.785206 0)
(11.3834 -1.23271 0)
(11.1409 -1.58683 0)
(10.8669 -2.0668 0)
(10.7238 -2.36299 0)
(10.1503 -2.49364 0)
(9.86877 -2.8241 0)
(9.38879 -2.85965 0)
(9.07756 -2.75652 0)
(8.5134 -2.81007 0)
(8.38905 -2.84242 0)
(7.84326 -2.25937 0)
(7.90081 -2.4977 0)
(7.55683 -2.55794 0)
(7.49301 -2.52395 0)
(7.12899 -1.72488 0)
(6.99585 -2.10847 0)
(6.82195 -2.82757 0)
(6.47653 -2.56851 0)
(5.85051 -1.4129 0)
(5.34255 -0.930477 0)
(5.14113 -2.30882 0)
(5.02641 -3.78766 0)
(4.71372 -5.38425 0)
(4.62383 -6.12917 0)
(4.13625 -7.39746 0)
(4.48794 -7.81 0)
(3.94379 -7.29637 0)
(3.31034 -7.28569 0)
(3.77735 -7.43428 0)
(3.71351 -7.52866 0)
(3.76011 -6.90319 0)
(4.18479 -5.69493 0)
(3.65985 -4.89045 0)
(4.02929 -3.88381 0)
(4.21387 -2.70485 0)
(4.53089 -1.50538 0)
(4.71032 -0.290867 0)
(5.16831 0.684191 0)
(5.2756 1.76751 0)
(6.20848 3.21954 0)
(5.54062 3.7015 0)
(6.12284 4.94076 0)
(6.57133 6.02159 0)
(6.67013 6.67334 0)
(7.35947 6.69449 0)
(7.3367 6.43967 0)
(8.07555 6.70309 0)
(8.18238 7.01031 0)
(8.4474 7.58579 0)
(8.78149 8.15485 0)
(8.56246 8.53061 0)
(9.12834 8.71793 0)
(9.11629 8.49768 0)
(8.86373 8.06118 0)
(9.15136 7.28751 0)
(8.6194 6.84911 0)
(8.63094 6.4645 0)
(8.34919 5.54508 0)
(7.77068 4.74512 0)
(6.92402 4.50675 0)
(6.28146 3.88756 0)
(5.56974 3.52259 0)
(6.00872 4.45926 0)
(5.89358 4.4255 0)
(5.37347 5.96799 0)
(8.05094 6.25875 0)
(5.99129 10.91 0)
(7.98283 -0.0699673 0)
(7.9681 -0.022216 0)
(8.00508 -0.00084212 0)
(7.98947 0.00581774 0)
(8.01601 -0.0260032 0)
(7.97568 -0.0625611 0)
(8.00456 -0.0895078 0)
(7.98524 -0.111954 0)
(8.02826 -0.104555 0)
(8.03201 -0.0960586 0)
(8.08256 -0.0809749 0)
(8.09682 -0.0503652 0)
(8.13341 -0.034445 0)
(8.13341 -0.0255157 0)
(8.1412 -0.0158049 0)
(8.14533 -0.0360673 0)
(8.13644 -0.0366764 0)
(8.16549 -0.0527006 0)
(8.16393 -0.0686629 0)
(8.19798 -0.0613086 0)
(8.21114 -0.0738565 0)
(8.23519 -0.0665534 0)
(8.24119 -0.0646676 0)
(8.26595 -0.065162 0)
(8.2562 -0.0578342 0)
(8.28187 -0.0512654 0)
(8.27047 -0.0461534 0)
(8.28917 -0.0370377 0)
(8.28624 -0.0253697 0)
(8.30195 -0.0208588 0)
(8.30123 -0.00434301 0)
(8.32432 0.000864797 0)
(8.32892 0.0131818 0)
(8.34864 0.0235609 0)
(8.37815 0.0246481 0)
(8.3822 0.0302906 0)
(8.43793 0.0212729 0)
(8.43139 0.00836948 0)
(8.4958 -0.0131606 0)
(8.49642 -0.0483308 0)
(8.54234 -0.0837128 0)
(8.56261 -0.124491 0)
(8.57778 -0.171722 0)
(8.60696 -0.194046 0)
(8.60775 -0.237125 0)
(8.63178 -0.248249 0)
(8.63023 -0.26012 0)
(8.65064 -0.277455 0)
(8.64711 -0.265434 0)
(8.66772 -0.276148 0)
(8.67007 -0.272299 0)
(8.67559 -0.273184 0)
(8.68592 -0.267896 0)
(8.66849 -0.277869 0)
(8.66992 -0.259756 0)
(8.63124 -0.24775 0)
(8.61202 -0.241478 0)
(8.5471 -0.17264 0)
(8.50247 -0.134007 0)
(8.43337 -0.0544288 0)
(8.37721 0.074411 0)
(8.32134 0.170376 0)
(8.26519 0.316005 0)
(8.29184 0.456901 0)
(8.252 0.547336 0)
(8.34406 0.645283 0)
(8.43619 0.71891 0)
(8.51535 0.692895 0)
(8.70465 0.652591 0)
(8.82089 0.627293 0)
(9.03743 0.48117 0)
(9.17082 0.332635 0)
(9.34626 0.225829 0)
(9.5663 0.00674881 0)
(9.62387 -0.162027 0)
(9.84825 -0.359654 0)
(10.0109 -0.54663 0)
(10.1465 -0.697105 0)
(10.3275 -0.923328 0)
(10.5059 -1.07125 0)
(10.701 -1.16958 0)
(10.9347 -1.39979 0)
(11.1539 -1.50203 0)
(11.3824 -1.58303 0)
(11.7148 -1.82236 0)
(11.9021 -1.9107 0)
(12.1721 -2.0278 0)
(12.4964 -2.2261 0)
(12.6828 -2.31604 0)
(12.9441 -2.46503 0)
(13.0884 -2.60509 0)
(13.3079 -2.71357 0)
(13.4996 -2.85597 0)
(13.4841 -2.89381 0)
(13.6435 -3.01238 0)
(13.6856 -3.08153 0)
(13.6084 -3.07452 0)
(13.6208 -3.13874 0)
(13.5064 -3.13581 0)
(13.5147 -3.06161 0)
(13.3931 -3.025 0)
(13.2858 -2.88231 0)
(13.2324 -2.7915 0)
(13.1722 -2.73036 0)
(12.9488 -2.43457 0)
(12.9861 -2.32421 0)
(12.8814 -2.07336 0)
(12.6784 -1.72449 0)
(12.7482 -1.61819 0)
(12.5187 -1.22898 0)
(12.232 -0.895322 0)
(12.1438 -0.656114 0)
(11.8693 -0.305511 0)
(11.6254 -0.0162479 0)
(11.3892 0.337089 0)
(11.0876 0.64315 0)
(10.7595 0.966272 0)
(10.602 1.31651 0)
(10.496 1.53626 0)
(10.3425 1.89487 0)
(10.5092 2.08211 0)
(10.3877 2.20667 0)
(10.6272 2.37328 0)
(10.6988 2.34042 0)
(10.9278 2.16693 0)
(10.9458 2.14017 0)
(11.1446 1.74884 0)
(11.2525 1.41016 0)
(11.2257 1.08528 0)
(11.2982 0.617967 0)
(11.3631 0.182925 0)
(11.1991 -0.171738 0)
(11.1989 -0.690247 0)
(11.1267 -1.09007 0)
(10.7384 -1.36467 0)
(10.6329 -1.83892 0)
(10.1754 -2.00689 0)
(9.93545 -2.19972 0)
(9.40598 -2.44797 0)
(9.27228 -2.51018 0)
(8.69871 -2.33798 0)
(8.51213 -2.56476 0)
(8.16326 -2.47249 0)
(8.03936 -2.34286 0)
(7.8505 -2.35126 0)
(7.66968 -2.57201 0)
(7.35896 -2.28513 0)
(7.05035 -1.76328 0)
(6.95056 -2.07327 0)
(6.68599 -2.57582 0)
(6.27956 -2.16964 0)
(5.48385 -0.861199 0)
(5.10088 -0.801278 0)
(4.8347 -2.07655 0)
(4.53927 -3.80209 0)
(4.34361 -5.00701 0)
(3.92953 -5.98022 0)
(3.74187 -7.42682 0)
(3.67149 -7.25023 0)
(3.19242 -6.95405 0)
(2.89208 -7.13847 0)
(3.28114 -7.52695 0)
(2.74927 -7.75852 0)
(3.51701 -6.72736 0)
(2.80271 -5.62676 0)
(2.96051 -4.98519 0)
(2.91663 -4.00641 0)
(3.22795 -2.91378 0)
(3.59836 -1.72396 0)
(3.53837 -0.551727 0)
(4.15855 0.667732 0)
(4.04927 1.3247 0)
(4.88492 2.99338 0)
(4.7385 4.12932 0)
(4.67166 5.13581 0)
(5.61019 5.87966 0)
(5.63876 6.09245 0)
(6.50443 6.48103 0)
(6.79761 6.35683 0)
(7.17132 6.64143 0)
(7.68711 6.9264 0)
(7.65287 7.40549 0)
(8.2356 8.18509 0)
(8.16872 8.37865 0)
(8.43906 8.5552 0)
(8.68538 8.48637 0)
(8.42834 7.92253 0)
(8.77363 7.43028 0)
(8.50694 7.10277 0)
(8.48742 6.73915 0)
(8.43269 6.09249 0)
(7.73523 5.48126 0)
(6.80464 4.89405 0)
(6.96885 4.66287 0)
(5.99854 3.52404 0)
(5.7046 4.22934 0)
(7.51085 4.53417 0)
(5.16175 6.72955 0)
(9.34183 3.91056 0)
(7.60427 10.2096 0)
(10.3004 -0.0648262 0)
(10.225 -0.00674294 0)
(10.2039 -0.00324438 0)
(10.1223 0.000702907 0)
(10.1773 -0.0245485 0)
(10.1528 -0.0502151 0)
(10.2243 -0.048407 0)
(10.209 -0.0813982 0)
(10.2263 -0.0933899 0)
(10.21 -0.116605 0)
(10.204 -0.118756 0)
(10.2191 -0.0841711 0)
(10.2304 -0.064845 0)
(10.2764 -0.0294074 0)
(10.2632 -0.00336278 0)
(10.3219 -0.015814 0)
(10.2579 -0.00888715 0)
(10.2979 -0.0452436 0)
(10.2373 -0.0707693 0)
(10.2616 -0.0703949 0)
(10.2458 -0.0996693 0)
(10.2808 -0.0762185 0)
(10.2816 -0.072506 0)
(10.3272 -0.0726615 0)
(10.3215 -0.0426067 0)
(10.3433 -0.0562555 0)
(10.3328 -0.0321631 0)
(10.3262 -0.0351221 0)
(10.3172 -0.0266182 0)
(10.3139 -0.0154699 0)
(10.3022 -0.012512 0)
(10.3268 -0.00364119 0)
(10.3248 0.00469634 0)
(10.3538 0.00851734 0)
(10.3794 0.0105252 0)
(10.3863 0.0142094 0)
(10.4355 -0.000189022 0)
(10.4266 -0.00167711 0)
(10.4645 -0.0339939 0)
(10.4787 -0.0536614 0)
(10.474 -0.0880065 0)
(10.5177 -0.132545 0)
(10.4935 -0.158513 0)
(10.5236 -0.201452 0)
(10.5189 -0.22681 0)
(10.5231 -0.24523 0)
(10.5239 -0.266897 0)
(10.5323 -0.271679 0)
(10.5179 -0.272637 0)
(10.5303 -0.284558 0)
(10.5211 -0.267684 0)
(10.5156 -0.278854 0)
(10.505 -0.265766 0)
(10.5014 -0.258923 0)
(10.4614 -0.253948 0)
(10.4558 -0.213094 0)
(10.4015 -0.1995 0)
(10.3745 -0.144944 0)
(10.3213 -0.0651614 0)
(10.2761 -0.0126966 0)
(10.2325 0.108619 0)
(10.2195 0.212793 0)
(10.1557 0.31508 0)
(10.2111 0.427944 0)
(10.2082 0.533338 0)
(10.2535 0.585563 0)
(10.3741 0.627765 0)
(10.4308 0.640075 0)
(10.5856 0.562759 0)
(10.6784 0.524635 0)
(10.8627 0.400322 0)
(10.973 0.228748 0)
(11.1092 0.135843 0)
(11.2961 -0.10568 0)
(11.3867 -0.292186 0)
(11.5553 -0.418425 0)
(11.7123 -0.673498 0)
(11.8357 -0.845253 0)
(11.9873 -0.995605 0)
(12.1819 -1.20099 0)
(12.2817 -1.34011 0)
(12.4873 -1.52605 0)
(12.6389 -1.64899 0)
(12.8103 -1.79557 0)
(13.0054 -1.96667 0)
(13.1199 -2.05911 0)
(13.3106 -2.22658 0)
(13.478 -2.32771 0)
(13.5203 -2.46625 0)
(13.6289 -2.61756 0)
(13.7461 -2.64688 0)
(13.7316 -2.81717 0)
(13.7306 -2.88678 0)
(13.7155 -2.94752 0)
(13.6435 -3.02932 0)
(13.5764 -3.02969 0)
(13.4839 -3.08111 0)
(13.39 -3.07712 0)
(13.3531 -3.01084 0)
(13.242 -3.01199 0)
(13.1215 -2.91774 0)
(13.1148 -2.82535 0)
(13.1227 -2.79011 0)
(13.0815 -2.59949 0)
(12.9948 -2.34778 0)
(13.1734 -2.22992 0)
(12.9129 -1.95989 0)
(12.9476 -1.75693 0)
(12.9224 -1.51246 0)
(12.6369 -1.08068 0)
(12.5784 -0.849972 0)
(12.4213 -0.501691 0)
(12.077 -0.0858249 0)
(11.9441 0.179942 0)
(11.5911 0.628855 0)
(11.3273 0.923689 0)
(11.0384 1.20492 0)
(10.8116 1.5572 0)
(10.5885 1.70706 0)
(10.3684 1.9938 0)
(10.2482 2.15841 0)
(10.2766 2.09338 0)
(10.2066 2.25765 0)
(10.3429 2.17873 0)
(10.5657 1.98562 0)
(10.549 1.94442 0)
(10.7649 1.62757 0)
(10.8349 1.39021 0)
(10.7727 1.0695 0)
(10.9123 0.65209 0)
(10.8802 0.251897 0)
(10.683 -0.139288 0)
(10.7337 -0.651207 0)
(10.4294 -0.877275 0)
(10.2699 -1.28334 0)
(10.0266 -1.65095 0)
(9.72676 -1.73204 0)
(9.41568 -1.918 0)
(9.21645 -2.26867 0)
(8.93641 -2.21124 0)
(8.63672 -2.13063 0)
(8.6386 -2.3907 0)
(8.38734 -2.35865 0)
(8.36439 -2.10073 0)
(8.21107 -2.1685 0)
(8.05382 -2.34871 0)
(7.54111 -1.85314 0)
(7.37227 -1.51861 0)
(7.14417 -1.77757 0)
(6.95974 -2.33727 0)
(6.16666 -1.50011 0)
(5.50785 -0.444957 0)
(4.89988 -0.493673 0)
(4.64268 -1.85304 0)
(4.27538 -3.52485 0)
(3.83036 -4.51999 0)
(3.58298 -5.98486 0)
(3.23507 -6.97769 0)
(3.12798 -7.11075 0)
(3.00004 -6.79303 0)
(2.67529 -7.04507 0)
(2.70035 -7.58849 0)
(2.33045 -7.95083 0)
(2.95957 -6.27647 0)
(1.36737 -5.56536 0)
(2.26923 -4.90292 0)
(1.80019 -4.1355 0)
(2.2022 -2.99132 0)
(2.35231 -1.79486 0)
(2.15334 -0.881174 0)
(2.9658 0.551699 0)
(2.89361 1.34626 0)
(2.96119 2.49249 0)
(3.86302 3.76944 0)
(3.42158 4.43658 0)
(4.45865 5.53271 0)
(5.01876 5.56279 0)
(5.7326 5.72799 0)
(6.49932 5.74689 0)
(6.28137 5.95485 0)
(7.03775 6.78583 0)
(7.14182 7.18653 0)
(7.20248 7.85297 0)
(7.63554 8.13825 0)
(7.64194 8.19083 0)
(8.12289 8.30889 0)
(8.29918 7.82395 0)
(8.40058 7.63214 0)
(8.52467 7.35578 0)
(8.30831 6.67387 0)
(8.06289 6.12798 0)
(8.05285 6.06655 0)
(7.14018 4.94354 0)
(6.51771 4.73595 0)
(7.86302 3.81131 0)
(4.79626 4.78596 0)
(8.90988 2.29625 0)
(5.94609 7.5814 0)
(9.72443 2.42639 0)
(8.48573 8.7192 0)
(11.9875 -0.0137272 0)
(11.8288 -0.0272819 0)
(11.8227 -0.0604633 0)
(11.6864 -0.0671307 0)
(11.7202 -0.0931362 0)
(11.7061 -0.09634 0)
(11.7478 -0.0950752 0)
(11.7814 -0.0986587 0)
(11.7632 -0.0913002 0)
(11.7934 -0.107337 0)
(11.7687 -0.123805 0)
(11.7899 -0.0892244 0)
(11.7766 -0.0935388 0)
(11.8264 -0.0694786 0)
(11.8085 -0.027716 0)
(11.8793 -0.0581303 0)
(11.8207 -0.000374514 0)
(11.8561 -0.0480153 0)
(11.7944 -0.0569943 0)
(11.7866 -0.0530886 0)
(11.7598 -0.111686 0)
(11.7517 -0.090675 0)
(11.7694 -0.102236 0)
(11.785 -0.108124 0)
(11.8289 -0.0652008 0)
(11.8453 -0.0674712 0)
(11.8659 -0.0369871 0)
(11.8615 -0.023316 0)
(11.8433 -0.0224682 0)
(11.822 -0.013648 0)
(11.7936 -0.0181854 0)
(11.7788 -0.0262011 0)
(11.7852 -0.0191091 0)
(11.7802 -0.022136 0)
(11.8356 -0.0241181 0)
(11.836 -0.011557 0)
(11.9108 -0.0310904 0)
(11.9103 -0.0206906 0)
(11.9558 -0.0526307 0)
(11.9632 -0.0719079 0)
(11.964 -0.0901319 0)
(11.9666 -0.145637 0)
(11.964 -0.160764 0)
(11.9365 -0.195098 0)
(11.9507 -0.237137 0)
(11.9129 -0.230604 0)
(11.9221 -0.273902 0)
(11.8992 -0.266865 0)
(11.8973 -0.274793 0)
(11.8751 -0.283724 0)
(11.8732 -0.270908 0)
(11.8575 -0.273996 0)
(11.8153 -0.257248 0)
(11.8361 -0.245402 0)
(11.7714 -0.240784 0)
(11.7554 -0.175888 0)
(11.7394 -0.179999 0)
(11.6919 -0.120187 0)
(11.6525 -0.0214062 0)
(11.648 0.00443198 0)
(11.6189 0.10251 0)
(11.586 0.231269 0)
(11.604 0.299032 0)
(11.6663 0.359261 0)
(11.6447 0.497036 0)
(11.7578 0.543363 0)
(11.8906 0.491769 0)
(11.9057 0.578174 0)
(12.1136 0.503068 0)
(12.2019 0.371296 0)
(12.3277 0.329226 0)
(12.4742 0.16785 0)
(12.6047 -0.0339411 0)
(12.6879 -0.168874 0)
(12.8521 -0.348052 0)
(12.9568 -0.581948 0)
(13.0385 -0.749005 0)
(13.1546 -0.891075 0)
(13.2944 -1.15706 0)
(13.3006 -1.27087 0)
(13.4364 -1.43282 0)
(13.5349 -1.66538 0)
(13.5283 -1.70849 0)
(13.7035 -1.90288 0)
(13.6694 -2.06356 0)
(13.7385 -2.11495 0)
(13.8354 -2.30005 0)
(13.7525 -2.40622 0)
(13.7758 -2.49455 0)
(13.7983 -2.61893 0)
(13.7117 -2.68044 0)
(13.6315 -2.81451 0)
(13.5877 -2.8535 0)
(13.4974 -2.90898 0)
(13.3688 -2.93729 0)
(13.3427 -2.98841 0)
(13.2174 -2.99497 0)
(13.2291 -2.99708 0)
(13.1109 -2.99688 0)
(13.0756 -2.94041 0)
(13.1977 -2.92473 0)
(13.2162 -2.86005 0)
(13.2426 -2.71543 0)
(13.2648 -2.54833 0)
(13.2877 -2.41872 0)
(13.3779 -2.31891 0)
(13.2018 -1.96797 0)
(13.3922 -1.77171 0)
(13.1865 -1.38941 0)
(13.0745 -0.985012 0)
(13.0755 -0.776061 0)
(12.775 -0.263866 0)
(12.6134 0.0971208 0)
(12.401 0.380692 0)
(11.9855 0.916309 0)
(11.8461 1.08872 0)
(11.4233 1.41939 0)
(11.0294 1.78582 0)
(10.8542 1.82596 0)
(10.4595 2.1471 0)
(10.2671 2.24198 0)
(10.1985 2.17939 0)
(10.0309 2.23181 0)
(10.1325 2.07922 0)
(10.0944 1.99711 0)
(10.0732 1.8743 0)
(10.2672 1.57933 0)
(10.2258 1.33259 0)
(10.2357 0.978821 0)
(10.3566 0.588089 0)
(10.23 0.324695 0)
(10.0874 -0.0862707 0)
(10.1519 -0.477597 0)
(9.87011 -0.710398 0)
(9.78849 -1.12288 0)
(9.57448 -1.41386 0)
(9.32743 -1.48642 0)
(9.10289 -1.72344 0)
(9.08811 -2.06668 0)
(8.86208 -2.02884 0)
(8.68756 -1.99499 0)
(8.63243 -2.33647 0)
(8.64156 -2.34782 0)
(8.2847 -2.00638 0)
(8.16348 -2.06438 0)
(7.92028 -2.10946 0)
(7.6866 -1.81137 0)
(7.34369 -1.21553 0)
(7.13607 -1.58888 0)
(6.93612 -1.92098 0)
(6.29787 -1.11483 0)
(5.56323 0.0757828 0)
(4.84716 -0.0466977 0)
(4.44034 -1.58164 0)
(3.90003 -3.01688 0)
(3.55497 -4.36188 0)
(3.25488 -5.64474 0)