/*--------------------------------*- C++ -*----------------------------------*\
| =========                 |                                                 |
| \\      /  F ield         | OpenFOAM: The Open Source CFD Toolbox           |
|  \\    /   O peration     | Version:  2.4.0                                 |
|   \\  /    A nd           | Web:      www.OpenFOAM.org                      |
|    \\/     M anipulation  |                                                 |
\*---------------------------------------------------------------------------*/
FoamFile
{
    version     2.0;
    format      ascii;
    class       volVectorField;
    location    "1.19";
    object      U_0;
}
// * * * * * * * * * * * * * * * * * * * * * * * * * * * * * * * * * * * * * //

dimensions      [0 1 -1 0 0 0 0];

internalField   nonuniform List<vector> 
8800
(
(8.09269 0.38786 0)
(5.45216 0.242673 0)
(3.90809 0.0431992 0)
(3.16135 -0.0157425 0)
(2.79554 -0.0183815 0)
(2.60589 -0.0107581 0)
(2.47435 -0.00578501 0)
(2.39262 -0.00289032 0)
(2.30522 -0.000291138 0)
(2.26279 -0.00143375 0)
(2.20276 -0.000852614 0)
(2.18416 0.00019036 0)
(2.12411 0.000554548 0)
(2.11948 -0.000966317 0)
(2.05975 0.00129064 0)
(2.05857 -0.000546414 0)
(1.99365 0.00106817 0)
(2.00027 -0.00349239 0)
(1.99136 0.0115839 0)
(1.77371 -0.0704676 0)
(10.082 0.83792 0)
(9.66879 0.86815 0)
(8.8565 0.50723 0)
(8.10389 0.261263 0)
(7.47156 0.138299 0)
(7.03152 0.0828791 0)
(6.66948 0.0535669 0)
(6.43452 0.0395993 0)
(6.18316 0.0330048 0)
(6.06901 0.0220617 0)
(5.88108 0.0180929 0)
(5.82888 0.0184619 0)
(5.66502 0.0172849 0)
(5.65619 0.011388 0)
(5.49263 0.0192467 0)
(5.49895 0.01098 0)
(5.34253 0.0215894 0)
(5.34275 -0.00880767 0)
(5.28939 0.0322952 0)
(5.13534 -0.0240886 0)
(10.0479 0.629446 0)
(10.6864 0.865672 0)
(10.8332 0.601535 0)
(10.7327 0.372147 0)
(10.4174 0.256011 0)
(10.1324 0.197997 0)
(9.787 0.151251 0)
(9.56048 0.123053 0)
(9.23932 0.0989427 0)
(9.11479 0.0722333 0)
(8.84661 0.0591758 0)
(8.78247 0.0536919 0)
(8.55123 0.0464508 0)
(8.5419 0.034653 0)
(8.31272 0.0468798 0)
(8.32611 0.0298361 0)
(8.11318 0.0497058 0)
(8.11719 -0.00178283 0)
(8.00662 0.0420453 0)
(7.93114 -0.0662254 0)
(9.95649 0.45379 0)
(10.6314 0.708929 0)
(11.0986 0.545257 0)
(11.4427 0.35134 0)
(11.491 0.262072 0)
(11.5398 0.231112 0)
(11.4105 0.196217 0)
(11.3994 0.177156 0)
(11.1937 0.154439 0)
(11.1861 0.119803 0)
(10.9741 0.106043 0)
(10.9672 0.0948995 0)
(10.7626 0.0863813 0)
(10.7774 0.0641389 0)
(10.5591 0.0851241 0)
(10.5833 0.0538384 0)
(10.3761 0.0895794 0)
(10.373 0.0100554 0)
(10.2381 0.0700539 0)
(10.2343 -0.0772634 0)
(9.94694 0.33965 0)
(10.5074 0.578797 0)
(10.9565 0.4593 0)
(11.384 0.289628 0)
(11.5654 0.206932 0)
(11.7719 0.198343 0)
(11.7905 0.170713 0)
(11.9246 0.17396 0)
(11.8908 0.155135 0)
(11.998 0.124799 0)
(11.9327 0.112902 0)
(12.02 0.11187 0)
(11.9462 0.0930821 0)
(12.0252 0.0855633 0)
(11.9123 0.0955072 0)
(11.9823 0.0817253 0)
(11.8722 0.0992846 0)
(11.8887 0.0558668 0)
(11.7603 0.0633486 0)
(11.8466 0.00777435 0)
(9.98284 0.245297 0)
(10.3818 0.456269 0)
(10.8438 0.384346 0)
(11.2372 0.248742 0)
(11.4666 0.156826 0)
(11.6665 0.156867 0)
(11.7546 0.138042 0)
(11.8827 0.138678 0)
(11.9312 0.133729 0)
(12.0665 0.104548 0)
(12.0835 0.0949399 0)
(12.2076 0.0948329 0)
(12.2146 0.0817401 0)
(12.3487 0.072114 0)
(12.3248 0.0894644 0)
(12.4409 0.0719144 0)
(12.423 0.103454 0)
(12.5208 0.0668263 0)
(12.399 0.106223 0)
(12.5121 -0.0124491 0)
(9.98158 0.173592 0)
(10.3417 0.359996 0)
(10.7098 0.285459 0)
(11.1352 0.203994 0)
(11.3747 0.118353 0)
(11.5718 0.119104 0)
(11.6737 0.0948549 0)
(11.7821 0.128902 0)
(11.8689 0.0892168 0)
(11.9518 0.0924496 0)
(12.0545 0.0631246 0)
(12.1066 0.0965172 0)
(12.2057 0.0342702 0)
(12.2709 0.0800327 0)
(12.3423 0.0472472 0)
(12.4275 0.0830134 0)
(12.4491 0.0460355 0)
(12.6046 0.1158 0)
(12.4429 0.0917883 0)
(12.6473 0.122827 0)
(9.9687 0.0993537 0)
(10.2879 0.261334 0)
(10.6811 0.208058 0)
(11.0525 0.164826 0)
(11.288 0.064446 0)
(11.5124 0.103062 0)
(11.6121 0.0498837 0)
(11.7176 0.0978571 0)
(11.7858 0.0562519 0)
(11.8594 0.082371 0)
(12.0149 0.0204161 0)
(12.0282 0.0940042 0)
(12.1856 0.00672227 0)
(12.1351 0.076249 0)
(12.3285 0.00716815 0)
(12.3194 0.0908281 0)
(12.406 0.0131675 0)
(12.5375 0.121281 0)
(12.4398 0.0735204 0)
(12.5965 0.114528 0)
(10.0145 0.0685348 0)
(10.2208 0.146074 0)
(10.636 0.116867 0)
(10.9692 0.102717 0)
(11.2823 0.0499577 0)
(11.4581 0.0413441 0)
(11.6012 0.0333757 0)
(11.6689 0.0675193 0)
(11.715 0.0439666 0)
(11.8567 0.0198167 0)
(11.9224 0.027416 0)
(12.0339 0.0486987 0)
(12.068 0.0162424 0)
(12.1256 0.0317794 0)
(12.2733 0.0178881 0)
(12.2811 0.0367532 0)
(12.3777 0.0107425 0)
(12.4395 0.0618666 0)
(12.4422 0.0856769 0)
(12.4326 -0.0176937 0)
(9.9896 0.006553 0)
(10.2469 0.0584922 0)
(10.5974 0.0460854 0)
(10.9522 0.0419476 0)
(11.2484 -0.00878621 0)
(11.4457 0.0365518 0)
(11.5373 -0.00942896 0)
(11.6306 0.0393755 0)
(11.7613 0.00759612 0)
(11.8428 0.0124913 0)
(11.8374 -0.0181165 0)
(12.0199 0.0482893 0)
(12.0705 0.00024078 0)
(12.1433 0.00885556 0)
(12.202 -0.0160923 0)
(12.3189 0.0378277 0)
(12.3183 -0.0121304 0)
(12.3838 0.0377785 0)
(12.4069 0.0281982 0)
(12.4945 -0.00213009 0)
(9.99744 -0.0203336 0)
(10.2164 -0.0518439 0)
(10.5838 -0.0441512 0)
(11.0074 -0.0214873 0)
(11.2318 -0.0201793 0)
(11.4303 -0.0144125 0)
(11.5606 -0.0187781 0)
(11.6474 -0.0125759 0)
(11.7467 -0.0160117 0)
(11.8294 -0.0134658 0)
(11.8717 -0.0113171 0)
(11.9546 -0.00940617 0)
(12.1219 -0.00854609 0)
(12.1269 -0.00291684 0)
(12.2296 -0.0230889 0)
(12.2424 -0.00273964 0)
(12.3657 -0.0179932 0)
(12.3865 0.00586138 0)
(12.4504 -0.0104453 0)
(12.4347 -0.0343785 0)
(10.005 -0.073658 0)
(10.2488 -0.140497 0)
(10.6177 -0.128142 0)
(10.9737 -0.0877421 0)
(11.2753 -0.0549727 0)
(11.451 -0.0352046 0)
(11.5699 -0.0607795 0)
(11.6692 -0.0444732 0)
(11.7693 -0.0362241 0)
(11.8299 -0.0390137 0)
(11.9051 -0.0364665 0)
(12.0439 -0.0274674 0)
(12.0618 -0.0235674 0)
(12.1491 -0.0328574 0)
(12.2689 -0.0318875 0)
(12.2822 -0.0233184 0)
(12.3842 -0.0448824 0)
(12.3952 -0.0329775 0)
(12.5006 -0.0324567 0)
(12.3588 -0.0333046 0)
(10.0043 -0.117351 0)
(10.2549 -0.25078 0)
(10.6803 -0.205932 0)
(11.0345 -0.146475 0)
(11.3143 -0.0869281 0)
(11.5008 -0.0752335 0)
(11.6211 -0.0788243 0)
(11.7031 -0.0852876 0)
(11.7964 -0.0637797 0)
(11.8775 -0.0613135 0)
(11.9772 -0.0585368 0)
(12.0596 -0.050827 0)
(12.094 -0.0308615 0)
(12.2363 -0.0553563 0)
(12.2792 -0.0528652 0)
(12.3486 -0.0477099 0)
(12.3962 -0.0577383 0)
(12.4797 -0.063755 0)
(12.5054 -0.0568391 0)
(12.4029 -0.0498555 0)
(10.0246 -0.178968 0)
(10.3005 -0.351516 0)
(10.7474 -0.290259 0)
(11.0951 -0.203211 0)
(11.4061 -0.122661 0)
(11.5511 -0.109046 0)
(11.6861 -0.112965 0)
(11.776 -0.116335 0)
(11.8716 -0.0827965 0)
(11.9395 -0.0974799 0)
(12.0536 -0.0762173 0)
(12.1036 -0.0656032 0)
(12.1947 -0.0550238 0)
(12.2872 -0.0858207 0)
(12.3571 -0.0564896 0)
(12.3981 -0.0668556 0)
(12.4727 -0.085514 0)
(12.5303 -0.0969896 0)
(12.5516 -0.0792219 0)
(12.5126 -0.077953 0)
(10.0689 -0.256276 0)
(10.3096 -0.454512 0)
(10.8928 -0.372587 0)
(11.1753 -0.248369 0)
(11.5431 -0.163725 0)
(11.6023 -0.148368 0)
(11.8113 -0.144858 0)
(11.8263 -0.147412 0)
(11.9831 -0.11181 0)
(11.9933 -0.121176 0)
(12.1535 -0.0946258 0)
(12.1465 -0.0914847 0)
(12.2804 -0.0731148 0)
(12.2886 -0.10306 0)
(12.3866 -0.0703067 0)
(12.3754 -0.095275 0)
(12.4658 -0.0919816 0)
(12.4429 -0.124392 0)
(12.4823 -0.103216 0)
(12.401 -0.122317 0)
(10.0671 -0.350902 0)
(10.3785 -0.563461 0)
(11.054 -0.460943 0)
(11.298 -0.296584 0)
(11.6725 -0.210861 0)
(11.6581 -0.186168 0)
(11.8974 -0.183635 0)
(11.8089 -0.172021 0)
(11.9954 -0.13765 0)
(11.8839 -0.141133 0)
(12.0456 -0.117185 0)
(11.911 -0.101762 0)
(12.055 -0.0884826 0)
(11.9036 -0.112177 0)
(12.0217 -0.0790094 0)
(11.8689 -0.0982432 0)
(11.9475 -0.0971021 0)
(11.781 -0.134036 0)
(11.809 -0.109878 0)
(11.6035 -0.149827 0)
(10.0147 -0.45946 0)
(10.5496 -0.703674 0)
(11.1827 -0.545636 0)
(11.3632 -0.353768 0)
(11.567 -0.261181 0)
(11.4451 -0.224702 0)
(11.5102 -0.204082 0)
(11.276 -0.177694 0)
(11.3213 -0.142988 0)
(11.0573 -0.13251 0)
(11.0961 -0.106651 0)
(10.8357 -0.0909154 0)
(10.9016 -0.0778272 0)
(10.618 -0.0904595 0)
(10.7027 -0.0645865 0)
(10.4275 -0.0821696 0)
(10.4902 -0.0730751 0)
(10.2015 -0.114085 0)
(10.2274 -0.0856664 0)
(9.8998 -0.147276 0)
(10.0667 -0.63312 0)
(10.6504 -0.862395 0)
(10.8757 -0.60108 0)
(10.682 -0.373915 0)
(10.4634 -0.256004 0)
(10.0787 -0.194865 0)
(9.84929 -0.155498 0)
(9.47485 -0.123778 0)
(9.33934 -0.0915793 0)
(9.00868 -0.0788332 0)
(8.94551 -0.0614986 0)
(8.67082 -0.0500352 0)
(8.67333 -0.0412272 0)
(8.39588 -0.050722 0)
(8.44465 -0.0380366 0)
(8.17244 -0.0451366 0)
(8.21752 -0.047461 0)
(7.92282 -0.0696103 0)
(7.93854 -0.0634918 0)
(7.60396 -0.0785443 0)
(10.0857 -0.838916 0)
(9.65317 -0.867466 0)
(8.87497 -0.506527 0)
(8.07808 -0.261923 0)
(7.49633 -0.138322 0)
(7.00332 -0.0813026 0)
(6.70294 -0.0549167 0)
(6.38633 -0.0416867 0)
(6.24133 -0.0279976 0)
(6.00538 -0.0253834 0)
(5.94109 -0.0202415 0)
(5.75536 -0.016581 0)
(5.74544 -0.0130755 0)
(5.55895 -0.0212913 0)
(5.57581 -0.0149349 0)
(5.3866 -0.0195406 0)
(5.40326 -0.0218145 0)
(5.18186 -0.033067 0)
(5.17978 -0.0344736 0)
(4.89969 -0.0131907 0)
(8.09155 -0.38803 0)
(5.44805 -0.242479 0)
(3.91213 -0.0428484 0)
(3.15627 0.0153943 0)
(2.80151 0.0180917 0)
(2.59707 0.0113569 0)
(2.48648 0.00551337 0)
(2.37518 0.00188448 0)
(2.32322 0.00227093 0)
(2.24524 0.000335769 0)
(2.22 0.000173911 0)
(2.15647 0.000300767 0)
(2.15309 0.000954533 0)
(2.08659 -0.00195001 0)
(2.08111 -0.000117579 0)
(2.01114 -0.00140812 0)
(2.00483 -0.00134641 0)
(1.9121 -0.00429089 0)
(1.87804 -0.00345602 0)
(1.73844 0.0116246 0)
(2.2508 -0.103287 0)
(2.36513 0.00974927 0)
(2.52993 0.034705 0)
(2.63558 0.0196502 0)
(2.73059 -0.00886974 0)
(2.77661 -0.0252581 0)
(2.84352 -0.0336962 0)
(2.88501 -0.0349504 0)
(2.95989 -0.0338445 0)
(3.00944 -0.0239702 0)
(3.08279 -0.0135543 0)
(3.12897 0.00377118 0)
(3.18638 0.0127229 0)
(3.23018 0.017433 0)
(3.28442 0.0171009 0)
(3.3253 0.0100033 0)
(3.37779 0.0037817 0)
(3.41773 -0.00766458 0)
(3.46885 -0.016153 0)
(3.50664 -0.0205831 0)
(3.55388 -0.0261667 0)
(3.58675 -0.0261201 0)
(3.62791 -0.0259938 0)
(3.65514 -0.0267896 0)
(3.69143 -0.0231553 0)
(3.71313 -0.0217688 0)
(3.74432 -0.0174341 0)
(3.76173 -0.0121704 0)
(3.78999 -0.00415915 0)
(3.80713 0.0067352 0)
(3.83645 0.0207429 0)
(3.864 0.037508 0)
(3.8953 0.0576875 0)
(3.94207 0.0778885 0)
(3.9814 0.0933929 0)
(4.04672 0.105616 0)
(4.10454 0.10349 0)
(4.17793 0.0989547 0)
(4.24882 0.0688929 0)
(4.3228 0.0240993 0)
(4.3888 -0.0314195 0)
(4.41982 -0.0956765 0)
(4.4716 -0.147684 0)
(4.45933 -0.197201 0)
(4.50097 -0.224977 0)
(4.45709 -0.240368 0)
(4.50538 -0.24458 0)
(4.45236 -0.244022 0)
(4.51946 -0.241937 0)
(4.47167 -0.239489 0)
(4.54413 -0.24945 0)
(4.51127 -0.243817 0)
(4.56591 -0.264856 0)
(4.54102 -0.275156 0)
(4.55863 -0.302295 0)
(4.51527 -0.31024 0)
(4.48585 -0.32314 0)
(4.39393 -0.289771 0)
(4.34012 -0.247934 0)
(4.19339 -0.172462 0)
(4.1422 -0.0529777 0)
(3.99648 0.113869 0)
(3.99262 0.290265 0)
(4.05644 0.48313 0)
(4.14344 0.696709 0)
(4.44708 0.866293 0)
(4.79597 0.981522 0)
(5.29313 1.02896 0)
(5.72477 1.03139 0)
(6.09803 0.998883 0)
(6.5349 0.781747 0)
(6.76837 0.62737 0)
(7.12519 0.491271 0)
(7.29066 0.262461 0)
(7.41017 0.0158936 0)
(7.5671 -0.146116 0)
(7.52175 -0.341626 0)
(7.54029 -0.580637 0)
(7.48952 -0.681912 0)
(7.40218 -0.775901 0)
(7.60479 -0.956373 0)
(7.60969 -0.974546 0)
(7.82297 -1.06136 0)
(8.09001 -1.20452 0)
(8.22119 -1.3074 0)
(8.68693 -1.44556 0)
(8.9649 -1.50732 0)
(9.39314 -1.67473 0)
(9.69275 -1.8332 0)
(10.0432 -1.96047 0)
(10.608 -2.14109 0)
(10.8059 -2.20595 0)
(11.2804 -2.46254 0)
(11.6858 -2.60849 0)
(11.8092 -2.57725 0)
(12.3642 -2.89462 0)
(12.4519 -2.95612 0)
(12.6531 -3.01849 0)
(12.9535 -3.1118 0)
(12.9385 -2.98321 0)
(13.225 -3.07687 0)
(13.2333 -3.07512 0)
(13.1285 -2.82596 0)
(13.2283 -2.79112 0)
(13.2223 -2.69835 0)
(13.0985 -2.46174 0)
(13.001 -2.40838 0)
(12.8994 -2.1547 0)
(12.6425 -1.79559 0)
(12.5213 -1.61896 0)
(12.3842 -1.46012 0)
(11.9179 -0.999696 0)
(11.8875 -0.795977 0)
(11.4373 -0.426136 0)
(11.2798 0.0152066 0)
(11.0248 0.201405 0)
(10.7368 0.625956 0)
(10.531 1.13632 0)
(10.4496 1.38306 0)
(10.2124 1.92882 0)
(10.4482 2.1571 0)
(10.4495 2.32619 0)
(10.5615 2.5446 0)
(10.9313 2.49164 0)
(10.8992 2.33988 0)
(11.041 2.32324 0)
(11.3367 1.8631 0)
(11.2235 1.60175 0)
(11.4079 1.21478 0)
(11.4361 0.642065 0)
(11.6324 0.17645 0)
(11.3583 -0.26449 0)
(11.7225 -0.893125 0)
(11.298 -1.31267 0)
(11.444 -1.75628 0)
(10.9883 -2.28686 0)
(10.9767 -2.56692 0)
(10.4942 -2.78806 0)
(10.1047 -3.11473 0)
(9.75696 -3.05243 0)
(9.16713 -3.09198 0)
(8.89795 -3.193 0)
(8.33811 -3.04945 0)
(8.05759 -2.6307 0)
(7.71864 -2.69092 0)
(7.6634 -2.99642 0)
(7.23527 -2.52522 0)
(7.26752 -2.13497 0)
(6.9161 -2.30292 0)
(7.04043 -3.34386 0)
(6.49395 -2.78397 0)
(6.00944 -1.78704 0)
(5.58593 -1.25846 0)
(5.26531 -2.67951 0)
(5.56243 -4.34524 0)
(5.09404 -5.58539 0)
(5.25162 -6.85242 0)
(4.831 -7.3602 0)
(4.76454 -8.03822 0)
(4.98365 -7.68057 0)
(3.98775 -7.5457 0)
(4.47562 -7.24455 0)
(4.45112 -7.27039 0)
(4.41953 -6.58519 0)
(4.96066 -5.54685 0)
(4.71489 -4.5551 0)
(5.03694 -3.43109 0)
(5.12674 -2.2226 0)
(5.40803 -1.05493 0)
(5.70731 0.266301 0)
(5.87471 1.28789 0)
(6.48421 2.46683 0)
(6.88703 3.12824 0)
(6.66662 4.20695 0)
(7.53943 5.83232 0)
(7.42308 6.69474 0)
(7.62436 7.07363 0)
(7.93355 6.78232 0)
(8.21246 6.85392 0)
(8.87709 7.01943 0)
(8.6552 7.3899 0)
(9.08513 7.98584 0)
(9.17721 8.31454 0)
(9.29533 8.6841 0)
(9.65122 8.6111 0)
(9.35394 8.16604 0)
(9.35889 7.85487 0)
(9.30213 7.13586 0)
(8.93948 6.63614 0)
(8.38383 6.04929 0)
(7.94187 4.92518 0)
(7.69739 4.01735 0)
(6.71928 3.48131 0)
(5.81939 3.28442 0)
(5.71339 3.6067 0)
(5.38626 3.92041 0)
(5.43768 4.80441 0)
(5.15292 6.08842 0)
(5.82219 7.00394 0)
(3.53398 10.0199 0)
(5.31649 -0.0875557 0)
(5.34411 -0.0621342 0)
(5.36931 -0.0313733 0)
(5.36473 -0.0149471 0)
(5.38842 -0.0398596 0)
(5.38985 -0.0697922 0)
(5.43163 -0.0811115 0)
(5.45231 -0.0831238 0)
(5.50775 -0.0791611 0)
(5.53274 -0.0735871 0)
(5.5838 -0.0566716 0)
(5.60293 -0.0353772 0)
(5.64333 -0.0211157 0)
(5.65358 -0.0109372 0)
(5.68931 -0.00663278 0)
(5.70094 -0.016644 0)
(5.7357 -0.0204723 0)
(5.75546 -0.0372869 0)
(5.7892 -0.0479904 0)
(5.81383 -0.0498499 0)
(5.84598 -0.0581829 0)
(5.86658 -0.053494 0)
(5.89405 -0.0513052 0)
(5.91299 -0.0500866 0)
(5.93198 -0.0429769 0)
(5.95346 -0.0401297 0)
(5.9625 -0.0350713 0)
(5.98549 -0.027321 0)
(5.99012 -0.0211799 0)
(6.01258 -0.00894911 0)
(6.02028 0.00228428 0)
(6.04697 0.0148859 0)
(6.06068 0.0300904 0)
(6.09236 0.0437143 0)
(6.12302 0.053545 0)
(6.15222 0.0612826 0)
(6.20821 0.0565721 0)
(6.23028 0.0455337 0)
(6.30633 0.0221171 0)
(6.31683 -0.0179582 0)
(6.40199 -0.0597804 0)
(6.39608 -0.112623 0)
(6.46437 -0.158015 0)
(6.45276 -0.195768 0)
(6.50126 -0.22877 0)
(6.4861 -0.240962 0)
(6.52432 -0.257647 0)
(6.51016 -0.251465 0)
(6.54628 -0.259255 0)
(6.54497 -0.252252 0)
(6.57418 -0.256873 0)
(6.5806 -0.255643 0)
(6.60381 -0.260619 0)
(6.59414 -0.268528 0)
(6.6067 -0.273542 0)
(6.55438 -0.270202 0)
(6.5678 -0.259183 0)
(6.44468 -0.22763 0)
(6.44496 -0.170809 0)
(6.31089 -0.0916636 0)
(6.26509 0.0105281 0)
(6.16912 0.172287 0)
(6.12754 0.318741 0)
(6.12257 0.444657 0)
(6.126 0.618066 0)
(6.2597 0.739541 0)
(6.3821 0.776894 0)
(6.61265 0.803328 0)
(6.85787 0.795967 0)
(7.07466 0.724862 0)
(7.42866 0.610008 0)
(7.56161 0.498435 0)
(7.82376 0.290083 0)
(8.01022 0.127715 0)
(8.14017 -0.0103038 0)
(8.36952 -0.258848 0)
(8.3931 -0.413954 0)
(8.51488 -0.583983 0)
(8.75346 -0.791169 0)
(8.75891 -0.883995 0)
(8.99764 -1.06469 0)
(9.17692 -1.19824 0)
(9.43871 -1.28711 0)
(9.69119 -1.43529 0)
(10.0159 -1.5686 0)
(10.3659 -1.66196 0)
(10.6221 -1.80422 0)
(11.0321 -2.00238 0)
(11.3173 -2.09408 0)
(11.6838 -2.24368 0)
(12.0412 -2.40695 0)
(12.2158 -2.50916 0)
(12.6207 -2.73856 0)
(12.8083 -2.78977 0)
(12.9354 -2.86139 0)
(13.2735 -3.07969 0)
(13.2958 -3.04591 0)
(13.4286 -3.11977 0)
(13.4671 -3.12492 0)
(13.4601 -3.05951 0)
(13.5044 -3.14594 0)
(13.3981 -2.94383 0)
(13.3405 -2.83665 0)
(13.3579 -2.80988 0)
(13.2224 -2.53253 0)
(13.0764 -2.41895 0)
(13.0044 -2.23501 0)
(12.7465 -1.87806 0)
(12.6072 -1.66766 0)
(12.5871 -1.50475 0)
(12.2716 -1.13814 0)
(12.0013 -0.69593 0)
(11.9571 -0.497432 0)
(11.5102 -0.113283 0)
(11.4065 0.229645 0)
(11.1698 0.403853 0)
(10.8188 0.853194 0)
(10.6887 1.24974 0)
(10.6964 1.39167 0)
(10.3768 1.96837 0)
(10.6967 2.08278 0)
(10.5619 2.24895 0)
(10.7367 2.4737 0)
(10.8871 2.37879 0)
(11.0114 2.24638 0)
(10.9814 2.22364 0)
(11.389 1.7874 0)
(11.2831 1.51515 0)
(11.5415 1.13329 0)
(11.4993 0.626856 0)
(11.6981 0.124332 0)
(11.4364 -0.257973 0)
(11.5261 -0.843084 0)
(11.3432 -1.25711 0)
(11.11 -1.63183 0)
(10.8408 -2.10506 0)
(10.6805 -2.36176 0)
(10.0907 -2.51699 0)
(9.83912 -2.84683 0)
(9.34673 -2.82528 0)
(9.03219 -2.75446 0)
(8.48925 -2.82422 0)
(8.36197 -2.78293 0)
(7.83534 -2.22718 0)
(7.90884 -2.55075 0)
(7.55225 -2.57272 0)
(7.48012 -2.43931 0)
(7.12189 -1.70421 0)
(6.99742 -2.24391 0)
(6.81719 -2.90241 0)
(6.41671 -2.44512 0)
(5.78494 -1.28582 0)
(5.31149 -1.02683 0)
(5.13152 -2.58205 0)
(5.02686 -4.07163 0)
(4.67286 -5.62435 0)
(4.61823 -6.37028 0)
(4.09953 -7.50579 0)
(4.44815 -7.91758 0)
(3.92343 -7.35873 0)
(3.24504 -7.32799 0)
(3.73728 -7.38116 0)
(3.70053 -7.41554 0)
(3.6658 -6.75709 0)
(4.20231 -5.53001 0)
(3.62518 -4.70939 0)
(4.06473 -3.66728 0)
(4.23088 -2.48114 0)
(4.55819 -1.28078 0)
(4.7568 -0.095262 0)
(5.21353 0.856017 0)
(5.3364 1.95586 0)
(6.20254 3.4114 0)
(5.52204 3.88794 0)
(6.10798 5.11422 0)
(6.61763 6.10961 0)
(6.70286 6.61334 0)
(7.42151 6.60439 0)
(7.37966 6.36065 0)
(8.08076 6.71144 0)
(8.21921 7.0661 0)
(8.4369 7.6583 0)
(8.77133 8.26011 0)
(8.53813 8.54811 0)
(9.09775 8.68447 0)
(9.03949 8.43851 0)
(8.785 7.89384 0)
(9.07707 7.16432 0)
(8.48762 6.78309 0)
(8.59079 6.32735 0)
(8.25243 5.4078 0)
(7.56127 4.71763 0)
(6.71864 4.46891 0)
(6.18502 3.81154 0)
(5.50133 3.49066 0)
(6.00071 4.44777 0)
(5.85248 4.46483 0)
(5.3674 6.02033 0)
(8.02384 6.29087 0)
(5.96791 10.9419 0)
(7.98577 -0.0718741 0)
(7.97443 -0.0199846 0)
(8.01121 0.0059411 0)
(7.99287 0.0125303 0)
(8.01307 -0.0242374 0)
(7.96779 -0.0636788 0)
(7.99752 -0.0947624 0)
(7.97999 -0.116869 0)
(8.02913 -0.107557 0)
(8.0357 -0.0981339 0)
(8.08959 -0.0782691 0)
(8.10198 -0.0461293 0)
(8.13626 -0.0315539 0)
(8.13099 -0.0218776 0)
(8.13849 -0.0162264 0)
(8.13918 -0.0374454 0)
(8.13405 -0.0375924 0)
(8.164 -0.0565153 0)
(8.16379 -0.0688911 0)
(8.20062 -0.0622488 0)
(8.2125 -0.0747633 0)
(8.23662 -0.0654713 0)
(8.24244 -0.0651341 0)
(8.26543 -0.0643786 0)
(8.25587 -0.056643 0)
(8.28128 -0.0505827 0)
(8.26907 -0.0454484 0)
(8.28887 -0.0362579 0)
(8.2855 -0.0257869 0)
(8.30132 -0.021204 0)
(8.30127 -0.0049859 0)
(8.3245 -0.000371507 0)
(8.32802 0.0130563 0)
(8.35 0.0226916 0)
(8.37635 0.0247448 0)
(8.38294 0.0308443 0)
(8.43612 0.0216525 0)
(8.4302 0.00986376 0)
(8.49532 -0.012634 0)
(8.49334 -0.0472627 0)
(8.54292 -0.0824837 0)
(8.55984 -0.124921 0)
(8.57754 -0.170254 0)
(8.60577 -0.194134 0)
(8.60637 -0.237563 0)
(8.6309 -0.246819 0)
(8.62866 -0.261638 0)
(8.64872 -0.276902 0)
(8.64484 -0.264913 0)
(8.66563 -0.276918 0)
(8.66603 -0.2716 0)
(8.67283 -0.27178 0)
(8.68127 -0.26763 0)
(8.66402 -0.276144 0)
(8.66525 -0.255595 0)
(8.6259 -0.247532 0)
(8.607 -0.236612 0)
(8.54166 -0.167116 0)
(8.49822 -0.132848 0)
(8.42921 -0.0465468 0)
(8.37496 0.0795074 0)
(8.31692 0.172816 0)
(8.26778 0.32311 0)
(8.29024 0.458668 0)
(8.25177 0.547571 0)
(8.35322 0.64882 0)
(8.43673 0.716935 0)
(8.52183 0.686969 0)
(8.71264 0.652945 0)
(8.82992 0.622843 0)
(9.04606 0.467712 0)
(9.17499 0.328842 0)
(9.36169 0.217733 0)
(9.56654 -0.00749879 0)
(9.62723 -0.169497 0)
(9.86364 -0.368994 0)
(10.0142 -0.551824 0)
(10.151 -0.708049 0)
(10.3345 -0.933766 0)
(10.5121 -1.06572 0)
(10.7122 -1.17875 0)
(10.9415 -1.40666 0)
(11.16 -1.48897 0)
(11.4012 -1.59389 0)
(11.7227 -1.82914 0)
(11.9065 -1.89881 0)
(12.1955 -2.03679 0)
(12.5059 -2.23114 0)
(12.6927 -2.31137 0)
(12.9505 -2.47122 0)
(13.0951 -2.60995 0)
(13.3315 -2.71773 0)
(13.49 -2.85454 0)
(13.4845 -2.89108 0)
(13.659 -3.02039 0)
(13.6679 -3.07662 0)
(13.5982 -3.06939 0)
(13.6111 -3.14554 0)
(13.4975 -3.12338 0)
(13.5106 -3.04765 0)
(13.3699 -3.01458 0)
(13.2739 -2.86349 0)
(13.2282 -2.79289 0)
(13.1378 -2.70736 0)
(12.9352 -2.41227 0)
(12.985 -2.31616 0)
(12.8495 -2.02973 0)
(12.6802 -1.71417 0)
(12.7419 -1.60303 0)
(12.4602 -1.18469 0)
(12.2121 -0.885506 0)
(12.1299 -0.642242 0)
(11.8351 -0.28758 0)
(11.6057 -0.00244301 0)
(11.3583 0.352391 0)
(11.0418 0.653047 0)
(10.7372 0.982406 0)
(10.6013 1.31933 0)
(10.4793 1.54936 0)
(10.3619 1.90374 0)
(10.5024 2.06992 0)
(10.3932 2.2009 0)
(10.642 2.36027 0)
(10.7071 2.29829 0)
(10.9345 2.14217 0)
(10.9476 2.09516 0)
(11.1559 1.68111 0)
(11.2399 1.37012 0)
(11.2096 1.03327 0)
(11.3037 0.562375 0)
(11.3415 0.154081 0)
(11.1829 -0.218205 0)
(11.2028 -0.740143 0)
(11.0826 -1.10565 0)
(10.7083 -1.40436 0)
(10.5944 -1.86769 0)
(10.1274 -2.00467 0)
(9.88325 -2.22797 0)
(9.37391 -2.46544 0)
(9.22709 -2.48088 0)
(8.65372 -2.34786 0)
(8.47734 -2.5852 0)
(8.14349 -2.44719 0)
(8.02016 -2.33101 0)
(7.83773 -2.39837 0)
(7.63234 -2.57184 0)
(7.32557 -2.21468 0)
(7.03501 -1.75739 0)
(6.94497 -2.18917 0)
(6.64477 -2.60618 0)
(6.20339 -2.03052 0)
(5.40865 -0.751968 0)
(5.07115 -0.923838 0)
(4.80291 -2.35081 0)
(4.50963 -4.06487 0)
(4.30042 -5.2666 0)
(3.88278 -6.17708 0)
(3.68105 -7.5771 0)
(3.64697 -7.33142 0)
(3.08521 -7.00765 0)
(2.78071 -7.17299 0)
(3.19977 -7.49592 0)
(2.71179 -7.61985 0)
(3.3934 -6.62594 0)
(2.87081 -5.47819 0)
(2.90692 -4.82107 0)
(2.94587 -3.80213 0)
(3.25559 -2.69819 0)
(3.61974 -1.50538 0)
(3.57333 -0.336512 0)
(4.17017 0.840978 0)
(4.07785 1.51884 0)
(4.84381 3.21058 0)
(4.73881 4.35268 0)
(4.66597 5.27585 0)
(5.65768 5.93406 0)
(5.71928 6.03681 0)
(6.5732 6.39361 0)
(6.89254 6.30116 0)
(7.1667 6.62563 0)
(7.70882 6.99708 0)
(7.65131 7.50782 0)
(8.18671 8.26179 0)
(8.17846 8.37955 0)
(8.37371 8.49924 0)
(8.62544 8.38386 0)
(8.41564 7.76476 0)
(8.69294 7.3667 0)
(8.45716 7.05292 0)
(8.42122 6.61564 0)
(8.28132 5.99163 0)
(7.53887 5.44326 0)
(6.69119 4.78668 0)
(6.85764 4.51464 0)
(5.93957 3.44907 0)
(5.67398 4.23502 0)
(7.47171 4.58117 0)
(5.14015 6.75371 0)
(9.35328 3.95871 0)
(7.58952 10.2435 0)
(10.2972 -0.0688559 0)
(10.2275 -0.00480058 0)
(10.2073 0.00559349 0)
(10.1273 0.014238 0)
(10.1799 -0.0167268 0)
(10.1508 -0.0447351 0)
(10.2231 -0.0521345 0)
(10.2007 -0.0920719 0)
(10.2228 -0.104671 0)
(10.2054 -0.126949 0)
(10.2069 -0.118381 0)
(10.225 -0.0788156 0)
(10.2401 -0.0569725 0)
(10.2808 -0.0186976 0)
(10.268 -6.39294e-05 0)
(10.3172 -0.0148073 0)
(10.2503 -0.0118967 0)
(10.2904 -0.0537653 0)
(10.228 -0.0735774 0)
(10.2608 -0.0751708 0)
(10.2464 -0.100484 0)
(10.2861 -0.0727126 0)
(10.2878 -0.0727906 0)
(10.3328 -0.0683517 0)
(10.3232 -0.0414409 0)
(10.3437 -0.0556434 0)
(10.3289 -0.0305463 0)
(10.322 -0.0366147 0)
(10.3135 -0.0261634 0)
(10.3097 -0.0166361 0)
(10.302 -0.0138471 0)
(10.3277 -0.00423679 0)
(10.3257 0.00384484 0)
(10.3583 0.00796845 0)
(10.3792 0.0113743 0)
(10.3894 0.0147719 0)
(10.4348 0.0014955 0)
(10.4242 -0.000174318 0)
(10.4651 -0.0333127 0)
(10.473 -0.0516627 0)
(10.4738 -0.0884991 0)
(10.5153 -0.131798 0)
(10.4902 -0.158036 0)
(10.5247 -0.202349 0)
(10.5161 -0.225626 0)
(10.5227 -0.245606 0)
(10.5238 -0.267116 0)
(10.5304 -0.270223 0)
(10.5166 -0.27351 0)
(10.5296 -0.283264 0)
(10.5181 -0.266745 0)
(10.5126 -0.278545 0)
(10.5035 -0.263337 0)
(10.4966 -0.258656 0)
(10.4584 -0.249584 0)
(10.4526 -0.210776 0)
(10.3972 -0.197406 0)
(10.3727 -0.137488 0)
(10.3167 -0.0638094 0)
(10.2739 -0.00810488 0)
(10.2344 0.115578 0)
(10.2141 0.21354 0)
(10.1584 0.318412 0)
(10.2166 0.431712 0)
(10.2036 0.533045 0)
(10.2623 0.584557 0)
(10.3791 0.628004 0)
(10.4343 0.63364 0)
(10.5914 0.559638 0)
(10.6887 0.521893 0)
(10.8712 0.385649 0)
(10.9739 0.226433 0)
(11.1252 0.126945 0)
(11.3001 -0.124613 0)
(11.3895 -0.291382 0)
(11.5687 -0.428374 0)
(11.7159 -0.689707 0)
(11.839 -0.845726 0)
(11.9992 -1.00321 0)
(12.1856 -1.20837 0)
(12.2862 -1.3439 0)
(12.4966 -1.52865 0)
(12.6445 -1.65016 0)
(12.8218 -1.80087 0)
(13.0107 -1.96357 0)
(13.1257 -2.06212 0)
(13.3292 -2.228 0)
(13.4791 -2.32575 0)
(13.5171 -2.47629 0)
(13.6473 -2.61059 0)
(13.747 -2.65026 0)
(13.7256 -2.8256 0)
(13.7333 -2.88176 0)
(13.7075 -2.95079 0)
(13.6391 -3.02627 0)
(13.5678 -3.02493 0)
(13.4745 -3.0816 0)
(13.3877 -3.06364 0)
(13.3428 -3.00199 0)
(13.2186 -3.00396 0)
(13.1064 -2.90227 0)
(13.1164 -2.82389 0)
(13.1117 -2.77833 0)
(13.0514 -2.56236 0)
(13.0026 -2.32902 0)
(13.1491 -2.21324 0)
(12.8756 -1.93922 0)
(12.9499 -1.74761 0)
(12.8762 -1.47334 0)
(12.6008 -1.05448 0)
(12.572 -0.842303 0)
(12.3724 -0.464894 0)
(12.0477 -0.0726635 0)
(11.9205 0.200849 0)
(11.5507 0.655624 0)
(11.3079 0.91936 0)
(11.02 1.22041 0)
(10.7932 1.56041 0)
(10.5659 1.70647 0)
(10.3456 2.00612 0)
(10.2416 2.12635 0)
(10.2738 2.07398 0)
(10.1991 2.24521 0)
(10.3767 2.1265 0)
(10.562 1.96476 0)
(10.548 1.91108 0)
(10.7762 1.58476 0)
(10.8051 1.36306 0)
(10.767 1.0166 0)
(10.9126 0.597977 0)
(10.8392 0.21226 0)
(10.6705 -0.1968 0)
(10.7071 -0.681962 0)
(10.3883 -0.896074 0)
(10.2504 -1.33054 0)
(9.9917 -1.65874 0)
(9.68121 -1.72489 0)
(9.39534 -1.9603 0)
(9.18729 -2.27993 0)
(8.90242 -2.17699 0)
(8.62748 -2.14704 0)
(8.63513 -2.41498 0)
(8.36881 -2.31374 0)
(8.3671 -2.08765 0)
(8.19298 -2.21232 0)
(8.00222 -2.3309 0)
(7.4885 -1.78043 0)
(7.35209 -1.54193 0)
(7.12424 -1.89301 0)
(6.88285 -2.33563 0)
(6.05842 -1.34556 0)
(5.41909 -0.371152 0)
(4.84179 -0.631288 0)
(4.59488 -2.12211 0)
(4.21235 -3.79476 0)
(3.76678 -4.75796 0)
(3.49555 -6.18926 0)
(3.17201 -7.12826 0)
(3.03013 -7.13157 0)
(2.83411 -6.82649 0)
(2.53288 -7.08826 0)
(2.58721 -7.56147 0)
(2.22887 -7.82504 0)
(2.89387 -6.21046 0)
(1.37814 -5.44181 0)
(2.24858 -4.73525 0)
(1.78723 -3.96377 0)
(2.22284 -2.77995 0)
(2.36188 -1.59173 0)
(2.1777 -0.668393 0)
(2.97515 0.755656 0)
(2.89052 1.55814 0)
(2.94508 2.67858 0)
(3.88576 3.9361 0)
(3.50666 4.53138 0)
(4.54766 5.54492 0)
(5.16972 5.52397 0)
(5.80507 5.64286 0)
(6.55614 5.7359 0)
(6.28297 5.98321 0)
(7.05508 6.87436 0)
(7.14392 7.28762 0)
(7.11988 7.89987 0)
(7.64531 8.16295 0)
(7.61507 8.17779 0)
(8.10882 8.22991 0)
(8.32525 7.74474 0)
(8.35103 7.58358 0)
(8.49222 7.25592 0)
(8.24798 6.54155 0)
(7.97339 6.07724 0)
(7.92422 6.00361 0)
(7.10192 4.80495 0)
(6.44968 4.62395 0)
(7.78956 3.71922 0)
(4.75373 4.74787 0)
(8.87885 2.34938 0)
(5.95751 7.58187 0)
(9.74668 2.4473 0)
(8.50323 8.74968 0)
(11.9768 -0.0179326 0)
(11.8214 -0.0303258 0)
(11.8185 -0.0562187 0)
(11.6756 -0.0608453 0)
(11.7182 -0.0878636 0)
(11.6975 -0.0919594 0)
(11.7493 -0.0967075 0)
(11.7764 -0.102356 0)
(11.7633 -0.0980906 0)
(11.7961 -0.117512 0)
(11.7722 -0.124926 0)
(11.7968 -0.0872875 0)
(11.7866 -0.0908733 0)
(11.8335 -0.0576677 0)
(11.8169 -0.0244083 0)
(11.8783 -0.0515875 0)
(11.8138 0.00244565 0)
(11.8474 -0.0563906 0)
(11.7789 -0.0573386 0)
(11.779 -0.0631734 0)
(11.7522 -0.117824 0)
(11.7547 -0.0903035 0)
(11.7764 -0.105928 0)
(11.7968 -0.10198 0)
(11.8408 -0.0600532 0)
(11.8515 -0.0636027 0)
(11.8682 -0.0315437 0)
(11.8555 -0.0236009 0)
(11.8342 -0.0235161 0)
(11.8108 -0.0163269 0)
(11.7833 -0.0228389 0)
(11.7744 -0.0289205 0)
(11.7827 -0.0204935 0)
(11.7857 -0.0233401 0)
(11.8416 -0.0213267 0)
(11.8449 -0.00999442 0)
(11.9186 -0.028022 0)
(11.913 -0.017951 0)
(11.9592 -0.0529077 0)
(11.9595 -0.0686953 0)
(11.9606 -0.0919441 0)
(11.9632 -0.146114 0)
(11.9574 -0.158652 0)
(11.934 -0.19829 0)
(11.9476 -0.234414 0)
(11.9102 -0.230758 0)
(11.9223 -0.275123 0)
(11.8985 -0.263809 0)
(11.8965 -0.276501 0)
(11.8749 -0.281872 0)
(11.8748 -0.269892 0)
(11.8518 -0.272721 0)
(11.8177 -0.25428 0)
(11.8348 -0.246475 0)
(11.7648 -0.234108 0)
(11.7598 -0.174515 0)
(11.7373 -0.181767 0)
(11.6869 -0.108338 0)
(11.6561 -0.0218718 0)
(11.6498 0.00280555 0)
(11.6135 0.114755 0)
(11.5877 0.23371 0)
(11.6143 0.29263 0)
(11.6613 0.367835 0)
(11.6468 0.504451 0)
(11.7772 0.527976 0)
(11.8836 0.495068 0)
(11.9144 0.584 0)
(12.1285 0.483095 0)
(12.1993 0.370209 0)
(12.3387 0.328861 0)
(12.4847 0.147719 0)
(12.6048 -0.0406024 0)
(12.6952 -0.169402 0)
(12.8648 -0.36675 0)
(12.9546 -0.593416 0)
(13.0417 -0.744082 0)
(13.1705 -0.909664 0)
(13.2882 -1.16614 0)
(13.3018 -1.2621 0)
(13.4526 -1.45353 0)
(13.5234 -1.66282 0)
(13.5404 -1.70026 0)
(13.7098 -1.92135 0)
(13.6605 -2.05502 0)
(13.7589 -2.11358 0)
(13.8332 -2.31113 0)
(13.7456 -2.39901 0)
(13.7909 -2.4974 0)
(13.7977 -2.61981 0)
(13.7042 -2.68236 0)
(13.633 -2.81694 0)
(13.5866 -2.84803 0)
(13.4864 -2.9046 0)
(13.3678 -2.93434 0)
(13.3348 -2.98748 0)
(13.2135 -2.98751 0)
(13.2174 -2.99217 0)
(13.0904 -2.98412 0)
(13.0826 -2.93336 0)
(13.204 -2.91994 0)
(13.2012 -2.83823 0)
(13.2274 -2.6885 0)
(13.2484 -2.5298 0)
(13.2841 -2.41916 0)
(13.3457 -2.29253 0)
(13.1908 -1.93977 0)
(13.3812 -1.74783 0)
(13.1358 -1.33758 0)
(13.0744 -0.978081 0)
(13.0458 -0.750521 0)
(12.7318 -0.219885 0)
(12.5991 0.0948575 0)
(12.35 0.415005 0)
(11.9623 0.929016 0)
(11.8231 1.07426 0)
(11.3605 1.44765 0)
(11.0097 1.77208 0)
(10.8205 1.82665 0)
(10.4183 2.16138 0)
(10.2714 2.20581 0)
(10.1805 2.16207 0)
(10.0337 2.20386 0)
(10.1397 2.04475 0)
(10.067 1.98834 0)
(10.0851 1.83256 0)
(10.2661 1.53739 0)
(10.2004 1.29335 0)
(10.2439 0.920159 0)
(10.3411 0.554974 0)
(10.1893 0.293612 0)
(10.0847 -0.135556 0)
(10.129 -0.500768 0)
(9.83835 -0.740429 0)
(9.77544 -1.16557 0)
(9.53538 -1.41444 0)
(9.29179 -1.49089 0)
(9.09622 -1.76879 0)
(9.07462 -2.08044 0)
(8.83053 -1.99944 0)
(8.67433 -2.02515 0)
(8.64277 -2.37174 0)
(8.61644 -2.30427 0)
(8.25645 -1.98297 0)
(8.15153 -2.09367 0)
(7.89976 -2.09937 0)
(7.65209 -1.73023 0)
(7.32024 -1.22253 0)
(7.12402 -1.69064 0)
(6.88648 -1.90325 0)
(6.19148 -0.939709 0)
(5.45703 0.157088 0)
(4.76682 -0.206438 0)
(4.37105 -1.84882 0)
(3.82438 -3.27696 0)
(3.47256 -4.57614 0)
(3.16147 -5.87027 0)
(2.73001 -6.992 0)