/*--------------------------------*- C++ -*----------------------------------*\
| =========                 |                                                 |
| \\      /  F ield         | OpenFOAM: The Open Source CFD Toolbox           |
|  \\    /   O peration     | Version:  2.4.0                                 |
|   \\  /    A nd           | Web:      www.OpenFOAM.org                      |
|    \\/     M anipulation  |                                                 |
\*---------------------------------------------------------------------------*/
FoamFile
{
    version     2.0;
    format      ascii;
    class       volSymmTensorField;
    location    "1.19";
    object      UPrime2Mean;
}
// * * * * * * * * * * * * * * * * * * * * * * * * * * * * * * * * * * * * * //

dimensions      [0 2 -2 0 0 0 0];

internalField   nonuniform List<symmTensor> 
8800
(
(0.00142929 8.19356e-05 0 0.000161299 0 0)
(0.027035 -0.00105314 0 5.98523e-05 0 0)
(0.0529806 -9.28532e-05 0 1.43057e-05 0 0)
(0.0667928 0.000152499 0 5.9864e-06 0 0)
(0.075731 0.000110181 0 4.55431e-06 0 0)
(0.0847086 6.1268e-05 0 5.26516e-06 0 0)
(0.0889804 2.52379e-05 0 6.16245e-06 0 0)
(0.0939518 -3.59373e-05 0 7.9192e-06 0 0)
(0.0966516 -4.75567e-05 0 8.59471e-06 0 0)
(0.0996058 -9.2625e-05 0 1.04782e-05 0 0)
(0.101916 -9.05533e-05 0 1.08659e-05 0 0)
(0.104049 -0.000143019 0 1.31021e-05 0 0)
(0.106259 -0.000141681 0 1.3156e-05 0 0)
(0.108898 -0.00019602 0 1.53742e-05 0 0)
(0.111897 -0.000264939 0 1.5893e-05 0 0)
(0.115864 -0.000196942 0 1.83314e-05 0 0)
(0.125777 -0.00097736 0 2.67373e-05 0 0)
(0.127189 0.00142115 0 7.96958e-05 0 0)
(0.203287 -0.014269 0 0.00146785 0 0)
(0.214599 0.0243054 0 0.00478165 0 0)
(0.00817734 0.00231891 0 0.000974186 0 0)
(0.0016586 -0.000961939 0 0.00128464 0 0)
(0.0128542 -0.00167454 0 0.000534665 0 0)
(0.0220295 -0.00183231 0 0.000211319 0 0)
(0.0326694 -0.00166444 0 0.000123385 0 0)
(0.0496563 -0.00156542 0 9.98303e-05 0 0)
(0.0622955 -0.00171017 0 0.000105145 0 0)
(0.0764289 -0.00129891 0 7.90016e-05 0 0)
(0.0918249 -0.00164619 0 9.51984e-05 0 0)
(0.0978933 -0.00132391 0 8.03719e-05 0 0)
(0.117238 -0.00171608 0 0.000101188 0 0)
(0.11661 -0.00160921 0 9.89677e-05 0 0)
(0.139262 -0.00208885 0 0.000129534 0 0)
(0.135428 -0.00209178 0 0.000131666 0 0)
(0.162299 -0.0027691 0 0.000185756 0 0)
(0.156375 -0.00356464 0 0.000225583 0 0)
(0.197396 -0.00288126 0 0.000303698 0 0)
(0.190398 -0.00996873 0 0.000961311 0 0)
(0.290809 -0.00508561 0 0.000733114 0 0)
(0.317309 -0.0487703 0 0.0168387 0 0)
(0.0161425 0.00125704 0 0.000603659 0 0)
(0.0130554 0.00035333 0 0.00145277 0 0)
(0.0342409 0.00024817 0 0.000920249 0 0)
(0.0369376 -0.000887072 0 0.000513092 0 0)
(0.0519752 -0.00102134 0 0.000406066 0 0)
(0.0604039 -0.00176862 0 0.000392259 0 0)
(0.0789256 -0.00318237 0 0.000424305 0 0)
(0.0855739 -0.0023729 0 0.000307479 0 0)
(0.118506 -0.00456376 0 0.000366438 0 0)
(0.112067 -0.00320355 0 0.000254994 0 0)
(0.162569 -0.00550687 0 0.000341491 0 0)
(0.138772 -0.00420228 0 0.000287658 0 0)
(0.207388 -0.00703953 0 0.000453868 0 0)
(0.163774 -0.00522384 0 0.000407105 0 0)
(0.257242 -0.00984393 0 0.000755632 0 0)
(0.183411 -0.00637303 0 0.000677486 0 0)
(0.321974 -0.0138742 0 0.0013518 0 0)
(0.206304 -0.00877402 0 0.00154548 0 0)
(0.424442 -0.0232353 0 0.00400071 0 0)
(0.273892 -0.0367673 0 0.0191003 0 0)
(0.0672699 0.00010905 0 0.000419311 0 0)
(0.0741837 -0.000156597 0 0.00109834 0 0)
(0.118835 -0.000651507 0 0.000881229 0 0)
(0.121496 -0.00173419 0 0.000567249 0 0)
(0.154849 -0.00115687 0 0.000537632 0 0)
(0.155303 -0.00228177 0 0.000607647 0 0)
(0.193965 -0.00433054 0 0.00075029 0 0)
(0.183163 -0.00254092 0 0.00060499 0 0)
(0.242365 -0.00785145 0 0.000813307 0 0)
(0.208083 -0.00452962 0 0.000556892 0 0)
(0.297268 -0.0105809 0 0.000796771 0 0)
(0.232115 -0.00705141 0 0.000635394 0 0)
(0.356411 -0.0140001 0 0.00103559 0 0)
(0.25458 -0.009287 0 0.0008711 0 0)
(0.422372 -0.0194758 0 0.00166859 0 0)
(0.269206 -0.0109496 0 0.00136007 0 0)
(0.50182 -0.0262092 0 0.0026671 0 0)
(0.27367 -0.0127626 0 0.00306907 0 0)
(0.613307 -0.0355439 0 0.00603074 0 0)
(0.275977 -0.0258455 0 0.0209544 0 0)
(0.261348 -0.00116979 0 0.000420425 0 0)
(0.244976 -0.00118032 0 0.000942618 0 0)
(0.288779 -0.00453508 0 0.00101191 0 0)
(0.262799 -0.00486883 0 0.000775562 0 0)
(0.30297 -0.00482769 0 0.000758806 0 0)
(0.277448 -0.00625573 0 0.000843389 0 0)
(0.326823 -0.00841531 0 0.00114072 0 0)
(0.29115 -0.00571653 0 0.000925971 0 0)
(0.35923 -0.0130934 0 0.00144574 0 0)
(0.305553 -0.00776918 0 0.00102025 0 0)
(0.394905 -0.0167885 0 0.00157091 0 0)
(0.321191 -0.0110485 0 0.00119264 0 0)
(0.4309 -0.0213853 0 0.00200425 0 0)
(0.338106 -0.0140133 0 0.00152545 0 0)
(0.467875 -0.0285631 0 0.00298259 0 0)
(0.352056 -0.0165624 0 0.00216182 0 0)
(0.510187 -0.0372313 0 0.00455474 0 0)
(0.357772 -0.0187447 0 0.00447108 0 0)
(0.568372 -0.0468452 0 0.00925047 0 0)
(0.343799 -0.020562 0 0.0267038 0 0)
(0.319307 -0.0064897 0 0.00133879 0 0)
(0.259663 -0.00382896 0 0.00187757 0 0)
(0.259484 -0.0102241 0 0.00234308 0 0)
(0.213936 -0.00685264 0 0.00159637 0 0)
(0.231114 -0.00978381 0 0.00203852 0 0)
(0.204748 -0.00872556 0 0.00179461 0 0)
(0.218003 -0.0113829 0 0.00246773 0 0)
(0.198999 -0.00828539 0 0.00185783 0 0)
(0.212479 -0.0141196 0 0.00300787 0 0)
(0.20043 -0.0100346 0 0.00204771 0 0)
(0.210684 -0.0164095 0 0.00339143 0 0)
(0.207862 -0.0129336 0 0.00239578 0 0)
(0.208906 -0.0189043 0 0.00403972 0 0)
(0.220589 -0.0157016 0 0.00291067 0 0)
(0.205977 -0.0223728 0 0.00550693 0 0)
(0.238318 -0.0187034 0 0.00371999 0 0)
(0.2009 -0.0257584 0 0.00805643 0 0)
(0.260663 -0.021833 0 0.00633342 0 0)
(0.19507 -0.0265948 0 0.0157263 0 0)
(0.28122 -0.0232811 0 0.0245721 0 0)
(0.136503 -0.00859477 0 0.00282151 0 0)
(0.114959 -0.00843085 0 0.00397431 0 0)
(0.104719 -0.0087913 0 0.00382292 0 0)
(0.0990813 -0.00924872 0 0.00328336 0 0)
(0.0990765 -0.00862382 0 0.00389071 0 0)
(0.102557 -0.00941017 0 0.00365554 0 0)
(0.0968642 -0.00850268 0 0.00408617 0 0)
(0.106016 -0.00923346 0 0.00374049 0 0)
(0.0967123 -0.00865486 0 0.00455688 0 0)
(0.114204 -0.00994743 0 0.00402877 0 0)
(0.0962769 -0.00893527 0 0.00507748 0 0)
(0.124534 -0.011028 0 0.00456509 0 0)
(0.0990255 -0.00872557 0 0.00588158 0 0)
(0.136229 -0.0121181 0 0.00536166 0 0)
(0.10333 -0.00724811 0 0.00750321 0 0)
(0.151017 -0.0132923 0 0.00663539 0 0)
(0.107324 -0.00356614 0 0.0104259 0 0)
(0.171711 -0.0138588 0 0.0105725 0 0)
(0.112432 0.00628793 0 0.0187245 0 0)
(0.197309 -0.0115083 0 0.0324913 0 0)
(0.139851 -0.00856082 0 0.00370008 0 0)
(0.164657 -0.0142296 0 0.00723705 0 0)
(0.13354 -0.00700229 0 0.00542652 0 0)
(0.16648 -0.0112065 0 0.00493109 0 0)
(0.156742 -0.00804426 0 0.00547993 0 0)
(0.169096 -0.00929971 0 0.00567133 0 0)
(0.171329 -0.00621543 0 0.00527913 0 0)
(0.176542 -0.00905307 0 0.00577426 0 0)
(0.181444 -0.00465314 0 0.00580994 0 0)
(0.185762 -0.00839612 0 0.00611503 0 0)
(0.193402 -0.00329466 0 0.00636732 0 0)
(0.192977 -0.00736677 0 0.00678478 0 0)
(0.211205 -0.00079635 0 0.00713758 0 0)
(0.202052 -0.00667583 0 0.00786424 0 0)
(0.226915 0.00382839 0 0.00863082 0 0)
(0.21454 -0.00523905 0 0.00936424 0 0)
(0.245109 0.0110313 0 0.0111878 0 0)
(0.230509 -0.00193415 0 0.0142323 0 0)
(0.26522 0.0253876 0 0.0188199 0 0)
(0.250018 0.00715477 0 0.0356325 0 0)
(0.253069 -0.0047046 0 0.00370303 0 0)
(0.273877 -0.00990851 0 0.00947421 0 0)
(0.243819 -0.00203183 0 0.00598096 0 0)
(0.246023 -0.00530162 0 0.00569944 0 0)
(0.270603 -0.00271833 0 0.0059299 0 0)
(0.234861 -0.00318378 0 0.00634166 0 0)
(0.298172 -0.000333045 0 0.00544367 0 0)
(0.231604 -0.00232601 0 0.00650521 0 0)
(0.312979 0.00279011 0 0.00584239 0 0)
(0.233986 -0.00131186 0 0.00698582 0 0)
(0.325887 0.00540735 0 0.0063567 0 0)
(0.240243 0.000968655 0 0.00748746 0 0)
(0.339125 0.00911192 0 0.00711497 0 0)
(0.25009 0.00297578 0 0.00853198 0 0)
(0.352965 0.0144689 0 0.00805528 0 0)
(0.263078 0.00650956 0 0.00983295 0 0)
(0.365534 0.0223999 0 0.00968522 0 0)
(0.28008 0.0130276 0 0.013912 0 0)
(0.378703 0.0370487 0 0.0155962 0 0)
(0.30872 0.0271826 0 0.0284611 0 0)
(0.279735 0.000128171 0 0.00305985 0 0)
(0.293525 0.000351558 0 0.00830941 0 0)
(0.276042 0.00221596 0 0.00506811 0 0)
(0.249644 0.00266884 0 0.00524195 0 0)
(0.291737 0.00306741 0 0.00496782 0 0)
(0.237555 0.00346606 0 0.00573141 0 0)
(0.301818 0.00495389 0 0.00464348 0 0)
(0.234993 0.00501152 0 0.00592219 0 0)
(0.300985 0.00796971 0 0.00484732 0 0)
(0.23857 0.00611251 0 0.00632492 0 0)
(0.303526 0.00995748 0 0.0053404 0 0)
(0.248896 0.00855443 0 0.00660489 0 0)
(0.307937 0.0130748 0 0.00576029 0 0)
(0.262962 0.0109763 0 0.00734268 0 0)
(0.310359 0.0174792 0 0.00620824 0 0)
(0.281783 0.0151251 0 0.00827484 0 0)
(0.312612 0.023638 0 0.00716067 0 0)
(0.307561 0.0233071 0 0.0110438 0 0)
(0.313022 0.0349601 0 0.0113644 0 0)
(0.356531 0.0387303 0 0.0215523 0 0)
(0.177733 0.00239403 0 0.00249747 0 0)
(0.188888 0.00506955 0 0.00616981 0 0)
(0.164166 0.00454927 0 0.00404684 0 0)
(0.172409 0.00677894 0 0.00384593 0 0)
(0.170413 0.00576192 0 0.00413441 0 0)
(0.16853 0.00698169 0 0.00462622 0 0)
(0.173747 0.00667836 0 0.00394228 0 0)
(0.173911 0.00903175 0 0.00472669 0 0)
(0.169864 0.00867765 0 0.00399761 0 0)
(0.182598 0.0107555 0 0.00495669 0 0)
(0.169759 0.0100194 0 0.0043134 0 0)
(0.196589 0.0127412 0 0.00510302 0 0)
(0.172233 0.0122286 0 0.00449174 0 0)
(0.212137 0.0153992 0 0.00547121 0 0)
(0.173764 0.0148532 0 0.00468462 0 0)
(0.232159 0.0193871 0 0.00596063 0 0)
(0.176623 0.0181748 0 0.00521853 0 0)
(0.262499 0.0266519 0 0.00748784 0 0)
(0.178177 0.0250278 0 0.00792673 0 0)
(0.319505 0.0396388 0 0.0141998 0 0)
(0.0709562 0.00230019 0 0.0021423 0 0)
(0.075214 0.00456718 0 0.00477229 0 0)
(0.0609694 0.00367716 0 0.00335082 0 0)
(0.0791994 0.00602372 0 0.00313592 0 0)
(0.0636329 0.00435713 0 0.0034269 0 0)
(0.0831352 0.00614149 0 0.00371216 0 0)
(0.0670079 0.0042532 0 0.00334601 0 0)
(0.090642 0.00769423 0 0.00384853 0 0)
(0.0668611 0.00505752 0 0.00326921 0 0)
(0.100433 0.00908391 0 0.00384727 0 0)
(0.066707 0.00553025 0 0.00341076 0 0)
(0.11271 0.0100995 0 0.00381562 0 0)
(0.0691955 0.0062483 0 0.0034423 0 0)
(0.126265 0.011504 0 0.00387169 0 0)
(0.0712312 0.00675528 0 0.00340561 0 0)
(0.143119 0.0135026 0 0.00394462 0 0)
(0.0729408 0.0078307 0 0.00357047 0 0)
(0.167875 0.0173205 0 0.00454778 0 0)
(0.0768633 0.0120999 0 0.00508724 0 0)
(0.211421 0.0240429 0 0.00870988 0 0)
(0.0214174 0.000667434 0 0.00172559 0 0)
(0.0198833 0.00145762 0 0.00362206 0 0)
(0.015882 0.000924936 0 0.00281832 0 0)
(0.0252267 0.00266362 0 0.00246492 0 0)
(0.0188395 0.00133429 0 0.00266774 0 0)
(0.029678 0.00262887 0 0.00269501 0 0)
(0.0212254 0.000935142 0 0.00265746 0 0)
(0.0357742 0.00311231 0 0.0028707 0 0)
(0.0214951 0.00108421 0 0.00251815 0 0)
(0.0420587 0.00366295 0 0.00276001 0 0)
(0.0224367 0.00112705 0 0.00255161 0 0)
(0.048654 0.00372626 0 0.0026779 0 0)
(0.0251516 0.00119358 0 0.00256338 0 0)
(0.0558688 0.00391174 0 0.00251729 0 0)
(0.0283145 0.00138695 0 0.00231567 0 0)
(0.06409 0.004531 0 0.00237452 0 0)
(0.0330198 0.0023783 0 0.00230613 0 0)
(0.0760386 0.00670728 0 0.0026311 0 0)
(0.0432656 0.00656872 0 0.00332594 0 0)
(0.0990944 0.0123504 0 0.00570292 0 0)
(0.00842033 -0.000542285 0 0.0013446 0 0)
(0.0036161 -0.0010554 0 0.00290953 0 0)
(0.00427087 -0.00134428 0 0.00247346 0 0)
(0.00667119 -0.000204122 0 0.00182463 0 0)
(0.00671012 -0.000423629 0 0.00199932 0 0)
(0.00989662 -0.000506876 0 0.00197945 0 0)
(0.0102577 -0.000862494 0 0.00208392 0 0)
(0.01348 -0.00059489 0 0.00212071 0 0)
(0.0125125 -0.00089241 0 0.00189401 0 0)
(0.0167794 -0.000248795 0 0.00194618 0 0)
(0.0150874 -0.000791737 0 0.0018616 0 0)
(0.0203974 -0.000264971 0 0.00182785 0 0)
(0.0186752 -0.000737931 0 0.0018063 0 0)
(0.0248442 -0.000314999 0 0.00166467 0 0)
(0.0230958 -0.000413512 0 0.00151525 0 0)
(0.0302796 0.000267249 0 0.00141232 0 0)
(0.0294159 0.000686896 0 0.00137613 0 0)
(0.0393748 0.00224487 0 0.00155532 0 0)
(0.0419906 0.00450803 0 0.00204254 0 0)
(0.0585826 0.00885551 0 0.00384504 0 0)
(0.00880297 -0.000671245 0 0.000985724 0 0)
(0.00266244 -0.0011794 0 0.00231177 0 0)
(0.00374859 -0.00155472 0 0.00204728 0 0)
(0.00479587 -0.000991642 0 0.0014079 0 0)
(0.00719616 -0.000703944 0 0.0015204 0 0)
(0.007676 -0.000968448 0 0.00151137 0 0)
(0.0103729 -0.00113829 0 0.00167465 0 0)
(0.0106882 -0.00145368 0 0.00172526 0 0)
(0.0134721 -0.00129593 0 0.00157041 0 0)
(0.0135897 -0.00103347 0 0.00150493 0 0)
(0.0164172 -0.000957312 0 0.00139345 0 0)
(0.0165308 -0.000887763 0 0.00133722 0 0)
(0.0197411 -0.00086081 0 0.00129817 0 0)
(0.0201847 -0.00101613 0 0.00117665 0 0)
(0.0235253 -0.000622012 0 0.00102998 0 0)
(0.0244676 -0.00054061 0 0.000913857 0 0)
(0.0286841 0.000375298 0 0.000837612 0 0)
(0.0318385 0.00105175 0 0.000898241 0 0)
(0.0393046 0.00343854 0 0.00123409 0 0)
(0.0486549 0.00638434 0 0.00228528 0 0)
(0.0101854 -0.000603004 0 0.00060225 0 0)
(0.00393182 -0.000313054 0 0.00159399 0 0)
(0.00422398 -0.000885151 0 0.00146557 0 0)
(0.00555875 -0.00067759 0 0.000995955 0 0)
(0.00884711 -0.000589467 0 0.00116009 0 0)
(0.00867613 -0.000614871 0 0.00110353 0 0)
(0.0117733 -0.00085471 0 0.00119471 0 0)
(0.0106453 -0.00087172 0 0.00124999 0 0)
(0.0132883 -0.000946965 0 0.00116716 0 0)
(0.0115045 -0.000523853 0 0.00107921 0 0)
(0.0140429 -0.00057903 0 0.000956482 0 0)
(0.0117459 -0.000312164 0 0.000881616 0 0)
(0.014194 -0.000381733 0 0.000804213 0 0)
(0.0116039 -0.00033738 0 0.000750897 0 0)
(0.0138915 -0.000221729 0 0.00062769 0 0)
(0.011711 -0.000139815 0 0.000581514 0 0)
(0.0143874 0.000418107 0 0.000478624 0 0)
(0.0138996 0.000752649 0 0.000534469 0 0)
(0.0188597 0.00226662 0 0.000722017 0 0)
(0.0236528 0.00367888 0 0.00129079 0 0)
(0.00923104 -0.00091781 0 0.000433063 0 0)
(0.00341913 -0.000200129 0 0.00128846 0 0)
(0.0040263 -0.000559148 0 0.00106413 0 0)
(0.00587118 -0.000525118 0 0.000657111 0 0)
(0.00822356 -0.000475823 0 0.00074863 0 0)
(0.00706248 -0.000344041 0 0.000750159 0 0)
(0.00785555 -0.000306176 0 0.000776306 0 0)
(0.00588898 0.000105924 0 0.000757779 0 0)
(0.00569198 0.000146051 0 0.000669844 0 0)
(0.00448842 0.000598158 0 0.00057501 0 0)
(0.00404964 0.000485076 0 0.000493508 0 0)
(0.00404475 0.000804184 0 0.000448292 0 0)
(0.00335551 0.000610921 0 0.000394976 0 0)
(0.00460446 0.000851183 0 0.000373709 0 0)
(0.00373464 0.000536746 0 0.000303956 0 0)
(0.00607654 0.000814435 0 0.000301582 0 0)
(0.00546556 0.000448435 0 0.000256041 0 0)
(0.00846878 0.000925537 0 0.000288583 0 0)
(0.00940116 0.0008543 0 0.000472775 0 0)
(0.0136338 0.00186896 0 0.000654054 0 0)
(0.00811561 -0.00166171 0 0.000583419 0 0)
(0.00182469 -0.000607431 0 0.00146974 0 0)
(0.00196947 -0.000198703 0 0.000937767 0 0)
(0.00258045 5.80361e-05 0 0.000517982 0 0)
(0.00275052 0.000483691 0 0.000455076 0 0)
(0.00308143 0.000914289 0 0.000413533 0 0)
(0.0050428 0.00114672 0 0.000381826 0 0)
(0.0091778 0.00138936 0 0.000334388 0 0)
(0.0117997 0.00128176 0 0.000272025 0 0)
(0.0184087 0.00134419 0 0.000219302 0 0)
(0.0197752 0.00112411 0 0.000182621 0 0)
(0.027965 0.0011903 0 0.000166267 0 0)
(0.0273359 0.000938047 0 0.000152332 0 0)
(0.0368104 0.00105681 0 0.00014387 0 0)
(0.0343721 0.000603528 0 0.000122728 0 0)
(0.043976 0.000843353 0 0.000122754 0 0)
(0.0404655 -1.22693e-05 0 0.000114792 0 0)
(0.0475288 0.000640459 0 0.000137619 0 0)
(0.0448242 -0.000612461 0 0.000224406 0 0)
(0.0464725 0.00119886 0 0.00042899 0 0)
(0.00752851 -0.00240387 0 0.000963988 0 0)
(0.0010442 0.000889017 0 0.00127741 0 0)
(0.00689425 0.0017906 0 0.00053201 0 0)
(0.0137612 0.00156909 0 0.000208921 0 0)
(0.021782 0.00147756 0 0.000129363 0 0)
(0.0323117 0.00133493 0 0.000100018 0 0)
(0.0418724 0.00110315 0 8.66851e-05 0 0)
(0.0526394 0.000926523 0 7.4241e-05 0 0)
(0.0589963 0.000723684 0 6.43014e-05 0 0)
(0.0684069 0.000645312 0 5.71744e-05 0 0)
(0.0713601 0.000514797 0 5.3559e-05 0 0)
(0.080282 0.000524845 0 5.13548e-05 0 0)
(0.0805109 0.000396353 0 5.02207e-05 0 0)
(0.0896255 0.00044738 0 4.60248e-05 0 0)
(0.0875371 0.000195814 0 4.18889e-05 0 0)
(0.0959971 0.000269806 0 3.89644e-05 0 0)
(0.0917784 -0.000266197 0 4.01038e-05 0 0)
(0.0961222 8.49056e-05 0 4.42789e-05 0 0)
(0.0926005 -0.00100126 0 7.76831e-05 0 0)
(0.0859262 0.00047354 0 0.000246278 0 0)
(0.00141002 -8.50957e-05 0 0.000160767 0 0)
(0.027047 0.0010539 0 5.8807e-05 0 0)
(0.0528274 9.50957e-05 0 1.3894e-05 0 0)
(0.0657865 -0.00016474 0 5.53885e-06 0 0)
(0.0753648 -0.000126084 0 3.90135e-06 0 0)
(0.0828034 -9.73281e-05 0 4.11096e-06 0 0)
(0.0874716 -6.81369e-05 0 4.79065e-06 0 0)
(0.0915586 -3.42299e-05 0 4.96522e-06 0 0)
(0.09377 -2.3728e-05 0 5.41705e-06 0 0)
(0.0966806 -5.6606e-06 0 5.37915e-06 0 0)
(0.097621 -1.22368e-05 0 5.55034e-06 0 0)
(0.100058 3.40715e-06 0 5.22715e-06 0 0)
(0.100196 -1.53483e-05 0 5.03921e-06 0 0)
(0.102467 -1.70281e-07 0 4.37126e-06 0 0)
(0.101729 -4.49696e-05 0 4.03595e-06 0 0)
(0.103342 -3.8582e-05 0 3.39411e-06 0 0)
(0.101057 -0.000124521 0 3.29553e-06 0 0)
(0.100426 -0.000103022 0 3.27787e-06 0 0)
(0.0974891 -0.00036454 0 5.23351e-06 0 0)
(0.0881592 0.000483957 0 3.37543e-05 0 0)
(0.406618 -0.200618 0 0.124544 0 0)
(0.451466 -0.238254 0 0.175679 0 0)
(0.456836 -0.227846 0 0.209746 0 0)
(0.480967 -0.200032 0 0.233628 0 0)
(0.486217 -0.167513 0 0.247402 0 0)
(0.566111 -0.147249 0 0.257111 0 0)
(0.608094 -0.140515 0 0.266517 0 0)
(0.742851 -0.155995 0 0.280476 0 0)
(0.808629 -0.176795 0 0.296863 0 0)
(0.950847 -0.206127 0 0.313688 0 0)
(0.994537 -0.225902 0 0.331744 0 0)
(1.12497 -0.252462 0 0.354416 0 0)
(1.15033 -0.263379 0 0.37807 0 0)
(1.28206 -0.287936 0 0.399529 0 0)
(1.30857 -0.301255 0 0.41363 0 0)
(1.45135 -0.335997 0 0.424998 0 0)
(1.473 -0.363392 0 0.43961 0 0)
(1.62961 -0.414164 0 0.462251 0 0)
(1.64225 -0.446319 0 0.494016 0 0)
(1.8369 -0.500512 0 0.53441 0 0)
(1.87588 -0.528257 0 0.568185 0 0)
(2.11916 -0.591115 0 0.604437 0 0)
(2.16348 -0.629381 0 0.639203 0 0)
(2.42777 -0.703857 0 0.678037 0 0)
(2.46514 -0.742607 0 0.71465 0 0)
(2.74168 -0.821372 0 0.757586 0 0)
(2.77785 -0.85482 0 0.79738 0 0)
(3.06983 -0.946765 0 0.841473 0 0)
(3.11558 -0.984491 0 0.883358 0 0)
(3.42584 -1.09416 0 0.935211 0 0)
(3.48452 -1.13787 0 0.987085 0 0)
(3.82796 -1.2627 0 1.04614 0 0)
(3.89696 -1.30958 0 1.10201 0 0)
(4.28885 -1.45512 0 1.1648 0 0)
(4.35247 -1.50814 0 1.22313 0 0)
(4.78021 -1.67434 0 1.28904 0 0)
(4.80263 -1.72299 0 1.34494 0 0)
(5.23739 -1.89468 0 1.40799 0 0)
(5.1977 -1.92686 0 1.46061 0 0)
(5.61953 -2.09524 0 1.52201 0 0)
(5.51774 -2.09598 0 1.57308 0 0)
(5.90493 -2.24866 0 1.63317 0 0)
(5.74919 -2.21909 0 1.68033 0 0)
(6.12388 -2.36002 0 1.74076 0 0)
(5.93478 -2.31459 0 1.78651 0 0)
(6.33614 -2.45643 0 1.84941 0 0)
(6.12903 -2.4031 0 1.89625 0 0)
(6.58685 -2.55727 0 1.96713 0 0)
(6.36913 -2.50427 0 2.01798 0 0)
(6.89138 -2.67238 0 2.10313 0 0)
(6.64839 -2.62656 0 2.16362 0 0)
(7.22736 -2.80217 0 2.26808 0 0)
(6.90653 -2.74611 0 2.34287 0 0)
(7.52036 -2.9175 0 2.45756 0 0)
(7.07291 -2.81369 0 2.52659 0 0)
(7.69601 -2.97266 0 2.63384 0 0)
(7.11726 -2.80625 0 2.6761 0 0)
(7.75387 -2.95853 0 2.75926 0 0)
(7.06829 -2.75317 0 2.77911 0 0)
(7.76662 -2.92264 0 2.84789 0 0)
(6.98572 -2.71269 0 2.86987 0 0)
(7.77253 -2.91444 0 2.94734 0 0)
(6.87191 -2.69601 0 2.98393 0 0)
(7.71204 -2.91325 0 3.07979 0 0)
(6.68127 -2.65056 0 3.11018 0 0)
(7.53669 -2.83019 0 3.19234 0 0)
(6.42748 -2.51215 0 3.16911 0 0)
(7.35036 -2.61684 0 3.18695 0 0)
(6.20375 -2.30204 0 3.13184 0 0)
(7.30316 -2.40691 0 3.15613 0 0)
(6.10022 -2.12103 0 3.13737 0 0)
(7.41788 -2.26555 0 3.17012 0 0)
(6.1126 -1.9663 0 3.14734 0 0)
(7.66926 -2.19741 0 3.18844 0 0)
(6.2231 -1.87146 0 3.20146 0 0)
(7.97097 -2.20038 0 3.29566 0 0)
(6.42374 -1.83044 0 3.34857 0 0)
(8.24489 -2.23667 0 3.50207 0 0)
(6.63372 -1.83509 0 3.57167 0 0)
(8.47239 -2.2604 0 3.76308 0 0)
(6.73613 -1.84196 0 3.82083 0 0)
(8.64796 -2.27048 0 3.99134 0 0)
(6.73944 -1.84008 0 4.01539 0 0)
(8.7781 -2.29096 0 4.16012 0 0)
(6.72586 -1.82866 0 4.14712 0 0)
(8.79731 -2.28449 0 4.28365 0 0)
(6.77769 -1.80421 0 4.26771 0 0)
(8.79367 -2.24906 0 4.4477 0 0)
(6.90562 -1.79501 0 4.46448 0 0)
(8.89972 -2.21132 0 4.6757 0 0)
(7.1096 -1.8177 0 4.70526 0 0)
(9.11952 -2.25235 0 4.90264 0 0)
(7.4318 -1.90326 0 4.93812 0 0)
(9.46035 -2.36106 0 5.15057 0 0)
(7.82184 -2.021 0 5.20293 0 0)
(9.78946 -2.50861 0 5.45823 0 0)
(8.20714 -2.15995 0 5.5455 0 0)
(10.0292 -2.64291 0 5.85998 0 0)
(8.47307 -2.28175 0 5.99504 0 0)
(10.0232 -2.72188 0 6.36605 0 0)
(8.51331 -2.33114 0 6.54286 0 0)
(9.88049 -2.74475 0 6.93798 0 0)
(8.35699 -2.33908 0 7.14713 0 0)
(9.68889 -2.75675 0 7.57294 0 0)
(8.12263 -2.34136 0 7.67441 0 0)
(9.49776 -2.77064 0 8.0432 0 0)
(7.89342 -2.26959 0 8.05282 0 0)
(9.36214 -2.6985 0 8.31583 0 0)
(7.7303 -2.12425 0 8.26234 0 0)
(9.2379 -2.60309 0 8.54743 0 0)
(7.62069 -2.00238 0 8.44507 0 0)
(9.06825 -2.4847 0 8.67436 0 0)
(7.60709 -1.86682 0 8.5199 0 0)
(8.91099 -2.32112 0 8.75259 0 0)
(7.65228 -1.68581 0 8.62783 0 0)
(8.71851 -2.10086 0 8.87646 0 0)
(7.66037 -1.5213 0 8.83485 0 0)
(8.51323 -1.90146 0 9.13775 0 0)
(7.69511 -1.39998 0 9.16739 0 0)
(8.41044 -1.74311 0 9.50527 0 0)
(7.79319 -1.31802 0 9.60699 0 0)
(8.33813 -1.6088 0 9.93166 0 0)
(7.80261 -1.18313 0 10.0616 0 0)
(8.20537 -1.45724 0 10.3366 0 0)
(7.71937 -1.06262 0 10.4248 0 0)
(8.04438 -1.32381 0 10.6477 0 0)
(7.52967 -0.937171 0 10.7281 0 0)
(7.86847 -1.19343 0 10.9289 0 0)
(7.41509 -0.850016 0 10.9894 0 0)
(7.74925 -1.10126 0 11.1197 0 0)
(7.47395 -0.860441 0 11.2492 0 0)
(7.74371 -1.05321 0 11.3881 0 0)
(7.63681 -0.915082 0 11.549 0 0)
(7.77534 -0.995762 0 11.6585 0 0)
(7.75248 -0.961335 0 11.8333 0 0)
(7.79878 -0.917632 0 11.9316 0 0)
(7.87007 -0.926415 0 12.0945 0 0)
(7.87557 -0.793544 0 12.2315 0 0)
(7.95226 -0.829241 0 12.4469 0 0)
(7.91954 -0.648161 0 12.6049 0 0)
(7.94515 -0.71342 0 12.8509 0 0)
(7.83624 -0.474691 0 12.9593 0 0)
(7.91073 -0.559732 0 13.2153 0 0)
(7.69506 -0.303089 0 13.3726 0 0)
(7.71999 -0.341018 0 13.7055 0 0)
(7.46454 -0.110675 0 13.7811 0 0)
(7.50959 -0.0906889 0 13.9576 0 0)
(7.28853 0.0253634 0 14.0082 0 0)
(7.34739 0.141306 0 14.2138 0 0)
(7.12376 0.125366 0 14.2396 0 0)
(7.17746 0.298901 0 14.3642 0 0)
(6.95645 0.199508 0 14.3255 0 0)
(7.00255 0.441184 0 14.4364 0 0)
(6.83094 0.309781 0 14.3767 0 0)
(6.85605 0.541092 0 14.4635 0 0)
(6.74157 0.368083 0 14.3596 0 0)
(6.76278 0.585832 0 14.4473 0 0)
(6.73957 0.430871 0 14.3451 0 0)
(6.72178 0.566822 0 14.3807 0 0)
(6.65993 0.400846 0 14.3097 0 0)
(6.60818 0.507059 0 14.4184 0 0)
(6.56427 0.292498 0 14.4147 0 0)
(6.48115 0.391425 0 14.4144 0 0)
(6.50232 0.128064 0 14.3733 0 0)
(6.46215 0.248717 0 14.2898 0 0)
(6.49598 -0.0782752 0 14.257 0 0)
(6.45861 0.0664599 0 14.1959 0 0)
(6.48481 -0.356648 0 14.1095 0 0)
(6.42013 -0.121099 0 14.0059 0 0)
(6.50489 -0.561403 0 13.7441 0 0)
(6.31637 -0.434392 0 13.59 0 0)
(6.5212 -0.783808 0 13.3566 0 0)
(6.12662 -0.674487 0 12.9193 0 0)
(6.57896 -1.08696 0 12.5947 0 0)
(6.04484 -0.762412 0 12.1358 0 0)
(6.61201 -1.21479 0 11.8275 0 0)
(6.11855 -0.780793 0 11.3898 0 0)
(6.65479 -1.26246 0 11.019 0 0)
(6.25025 -0.812839 0 10.8013 0 0)
(6.64864 -1.16623 0 10.2986 0 0)
(6.40578 -0.892113 0 10.2902 0 0)
(6.47954 -1.0589 0 9.51606 0 0)
(6.35129 -1.03452 0 9.82408 0 0)
(6.2731 -0.913824 0 8.74345 0 0)
(6.19244 -1.18506 0 9.33011 0 0)
(6.04787 -0.640125 0 7.99938 0 0)
(5.98465 -1.27885 0 8.95099 0 0)
(5.72992 -0.341238 0 7.44034 0 0)
(5.6342 -1.23732 0 8.83621 0 0)
(5.33569 0.0479772 0 7.21139 0 0)
(5.1575 -1.0455 0 9.12451 0 0)
(4.89001 0.547461 0 7.37496 0 0)
(4.61087 -0.772876 0 9.93749 0 0)
(4.23208 1.16164 0 8.10795 0 0)
(4.14221 -0.294655 0 11.5441 0 0)
(3.60976 2.17413 0 9.92035 0 0)
(3.71663 0.206846 0 14.0531 0 0)
(2.86591 3.45808 0 13.0446 0 0)
(3.50301 2.3548 0 19.7728 0 0)
(1.10868 0.691475 0 22.1992 0 0)
(0.366012 -0.165679 0 0.140816 0 0)
(0.339589 -0.17611 0 0.183501 0 0)
(0.34941 -0.159676 0 0.193891 0 0)
(0.319815 -0.145163 0 0.198979 0 0)
(0.335046 -0.127057 0 0.19818 0 0)
(0.33965 -0.126092 0 0.196892 0 0)
(0.375678 -0.131821 0 0.201158 0 0)
(0.407921 -0.153068 0 0.212853 0 0)
(0.458004 -0.16867 0 0.226361 0 0)
(0.491886 -0.192052 0 0.240445 0 0)
(0.534483 -0.203539 0 0.255402 0 0)
(0.563207 -0.226801 0 0.274623 0 0)
(0.602857 -0.235591 0 0.294012 0 0)
(0.644342 -0.260736 0 0.313928 0 0)
(0.693202 -0.270806 0 0.330931 0 0)
(0.762671 -0.305723 0 0.349261 0 0)
(0.825494 -0.327347 0 0.369161 0 0)
(0.927007 -0.381081 0 0.394694 0 0)
(0.994211 -0.410576 0 0.421652 0 0)
(1.11445 -0.47218 0 0.454637 0 0)
(1.17476 -0.498108 0 0.486035 0 0)
(1.31539 -0.56275 0 0.521694 0 0)
(1.37225 -0.586538 0 0.555369 0 0)
(1.53815 -0.659521 0 0.59459 0 0)
(1.59014 -0.680577 0 0.631491 0 0)
(1.785 -0.762547 0 0.676907 0 0)
(1.84023 -0.781419 0 0.719619 0 0)
(2.07216 -0.876732 0 0.770429 0 0)
(2.13915 -0.901718 0 0.816702 0 0)
(2.40581 -1.0166 0 0.873016 0 0)
(2.47707 -1.04998 0 0.923783 0 0)
(2.76798 -1.18245 0 0.984475 0 0)
(2.82498 -1.21676 0 1.03739 0 0)
(3.12928 -1.36102 0 1.10051 0 0)
(3.15251 -1.38894 0 1.15379 0 0)
(3.46153 -1.53934 0 1.21725 0 0)
(3.42788 -1.55039 0 1.26944 0 0)
(3.73345 -1.6984 0 1.32918 0 0)
(3.63179 -1.68603 0 1.37768 0 0)
(3.93951 -1.8311 0 1.43425 0 0)
(3.78109 -1.79412 0 1.47782 0 0)
(4.10504 -1.9362 0 1.53311 0 0)
(3.90986 -1.87977 0 1.57368 0 0)
(4.2715 -2.02753 0 1.63415 0 0)
(4.05989 -1.96112 0 1.67572 0 0)
(4.46917 -2.12438 0 1.74896 0 0)
(4.25059 -2.05487 0 1.79536 0 0)
(4.70493 -2.23501 0 1.88189 0 0)
(4.4688 -2.15999 0 1.93274 0 0)
(4.96046 -2.35019 0 2.02815 0 0)
(4.67187 -2.25658 0 2.08237 0 0)
(5.19958 -2.45133 0 2.18106 0 0)
(4.81536 -2.31543 0 2.23596 0 0)
(5.37708 -2.51182 0 2.33127 0 0)
(4.87746 -2.3138 0 2.37858 0 0)
(5.47366 -2.51533 0 2.46398 0 0)
(4.8809 -2.26056 0 2.49823 0 0)
(5.52339 -2.48025 0 2.57864 0 0)
(4.87987 -2.20107 0 2.60517 0 0)
(5.57546 -2.44834 0 2.70206 0 0)
(4.90768 -2.18398 0 2.73196 0 0)
(5.64837 -2.43687 0 2.84037 0 0)
(4.93979 -2.19031 0 2.86467 0 0)
(5.7081 -2.40059 0 2.95957 0 0)
(4.9134 -2.14471 0 2.96134 0 0)
(5.71021 -2.28618 0 3.00988 0 0)
(4.8091 -1.99822 0 2.97206 0 0)
(5.7053 -2.11914 0 2.9964 0 0)
(4.72914 -1.83108 0 2.96721 0 0)
(5.78202 -1.9955 0 3.02242 0 0)
(4.73942 -1.70045 0 3.00458 0 0)
(5.9778 -1.91798 0 3.07828 0 0)
(4.85873 -1.59922 0 3.0615 0 0)
(6.26496 -1.90122 0 3.14803 0 0)
(5.07452 -1.55011 0 3.15883 0 0)
(6.58062 -1.94343 0 3.28908 0 0)
(5.34235 -1.54803 0 3.33746 0 0)
(6.85293 -1.98283 0 3.51197 0 0)
(5.56674 -1.5359 0 3.56607 0 0)
(7.04362 -1.97562 0 3.75917 0 0)
(5.68297 -1.51262 0 3.79959 0 0)
(7.19917 -1.97427 0 3.97458 0 0)
(5.79373 -1.51995 0 3.99239 0 0)
(7.32914 -1.99393 0 4.13507 0 0)
(5.95589 -1.56617 0 4.10854 0 0)
(7.45105 -2.00057 0 4.26221 0 0)
(6.16318 -1.62705 0 4.2525 0 0)
(7.61292 -2.00485 0 4.43794 0 0)
(6.4346 -1.67637 0 4.46166 0 0)
(7.8688 -2.02106 0 4.67163 0 0)
(6.73835 -1.74641 0 4.70291 0 0)
(8.20222 -2.11505 0 4.89862 0 0)
(7.07493 -1.84107 0 4.95033 0 0)
(8.57955 -2.23551 0 5.17356 0 0)
(7.43109 -1.94948 0 5.23707 0 0)
(8.92828 -2.38739 0 5.49176 0 0)
(7.79465 -2.0719 0 5.59152 0 0)
(9.20798 -2.51674 0 5.90331 0 0)
(8.07074 -2.1693 0 6.03368 0 0)
(9.30004 -2.58027 0 6.40088 0 0)
(8.16856 -2.18906 0 6.55532 0 0)
(9.19996 -2.58647 0 6.97132 0 0)
(8.02053 -2.14465 0 7.14406 0 0)
(9.00328 -2.54528 0 7.55318 0 0)
(7.69982 -2.08242 0 7.60653 0 0)
(8.77146 -2.4912 0 7.96153 0 0)
(7.35274 -1.93564 0 7.95206 0 0)
(8.57929 -2.36807 0 8.25206 0 0)
(7.11153 -1.75261 0 8.19169 0 0)
(8.46509 -2.20544 0 8.46745 0 0)
(6.99561 -1.56906 0 8.35608 0 0)
(8.40024 -2.00343 0 8.58713 0 0)
(7.0325 -1.39087 0 8.44757 0 0)
(8.3928 -1.78416 0 8.69333 0 0)
(7.13148 -1.24867 0 8.60508 0 0)
(8.37443 -1.64796 0 8.85272 0 0)
(7.31494 -1.17502 0 8.84537 0 0)
(8.40301 -1.54828 0 9.13275 0 0)
(7.54371 -1.11257 0 9.21643 0 0)
(8.49708 -1.46273 0 9.54075 0 0)
(7.69512 -1.0541 0 9.67552 0 0)
(8.54345 -1.3575 0 9.99445 0 0)
(7.67679 -0.920961 0 10.1397 0 0)
(8.46372 -1.21868 0 10.4378 0 0)
(7.54842 -0.736793 0 10.5525 0 0)
(8.32509 -1.08223 0 10.7805 0 0)
(7.43737 -0.600815 0 10.8595 0 0)
(8.18993 -0.995474 0 11.046 0 0)
(7.42929 -0.619012 0 11.1538 0 0)
(8.13243 -0.979041 0 11.2865 0 0)
(7.54047 -0.768114 0 11.4281 0 0)
(8.15801 -0.963337 0 11.5515 0 0)
(7.73488 -0.879297 0 11.7059 0 0)
(8.20411 -0.904684 0 11.8314 0 0)
(7.90647 -0.938924 0 12.0112 0 0)
(8.36277 -0.847852 0 12.07 0 0)
(8.12503 -0.942097 0 12.2433 0 0)
(8.53755 -0.760468 0 12.3455 0 0)
(8.27327 -0.885275 0 12.6144 0 0)
(8.61556 -0.621294 0 12.7344 0 0)
(8.27931 -0.737544 0 13.0542 0 0)
(8.55878 -0.45405 0 13.1109 0 0)
(8.18033 -0.578803 0 13.4203 0 0)
(8.38546 -0.248118 0 13.5489 0 0)
(7.90236 -0.338031 0 13.9259 0 0)
(8.1687 -0.0102133 0 13.9625 0 0)
(7.62296 -0.124829 0 14.2134 0 0)
(7.96226 0.15934 0 14.2462 0 0)
(7.32178 0.065953 0 14.4765 0 0)
(7.6898 0.270356 0 14.4957 0 0)
(7.12201 0.267763 0 14.645 0 0)
(7.45624 0.31524 0 14.526 0 0)
(6.96303 0.381626 0 14.6513 0 0)
(7.36199 0.37908 0 14.652 0 0)
(6.87041 0.470816 0 14.6894 0 0)
(7.3243 0.316642 0 14.5548 0 0)
(6.83525 0.534355 0 14.6754 0 0)
(7.29154 0.32768 0 14.6022 0 0)
(6.75289 0.496281 0 14.6399 0 0)
(7.13131 0.292719 0 14.689 0 0)
(6.64137 0.473215 0 14.7238 0 0)
(6.98652 0.174165 0 14.6984 0 0)
(6.55416 0.381481 0 14.7167 0 0)
(6.91331 0.0571155 0 14.6338 0 0)
(6.44962 0.24762 0 14.6426 0 0)
(6.83123 -0.157078 0 14.5566 0 0)
(6.34106 0.105917 0 14.6074 0 0)
(6.81407 -0.316007 0 14.4755 0 0)
(6.33131 -0.0194638 0 14.3044 0 0)
(6.78713 -0.464958 0 14.2045 0 0)
(6.24026 -0.145234 0 14.0079 0 0)
(6.66427 -0.676277 0 13.7802 0 0)
(6.14928 -0.253265 0 13.3813 0 0)
(6.42613 -0.936606 0 13.0116 0 0)
(6.22421 -0.413409 0 12.5136 0 0)
(6.18584 -1.17343 0 12.0507 0 0)
(6.41538 -0.581518 0 11.7642 0 0)
(6.04908 -1.30874 0 11.2665 0 0)
(6.5685 -0.831147 0 11.1431 0 0)
(6.00412 -1.29827 0 10.4985 0 0)
(6.63046 -1.05517 0 10.7591 0 0)
(5.97396 -1.18026 0 9.77676 0 0)
(6.5289 -1.38916 0 10.3538 0 0)
(5.81529 -0.983227 0 8.92393 0 0)
(6.33856 -1.71181 0 9.89898 0 0)
(5.65054 -0.705835 0 8.04835 0 0)
(6.08816 -1.86115 0 9.58173 0 0)
(5.58516 -0.418445 0 7.35441 0 0)
(5.69583 -1.88242 0 9.49514 0 0)