/*--------------------------------*- C++ -*----------------------------------*\
| =========                 |                                                 |
| \\      /  F ield         | OpenFOAM: The Open Source CFD Toolbox           |
|  \\    /   O peration     | Version:  2.4.0                                 |
|   \\  /    A nd           | Web:      www.OpenFOAM.org                      |
|    \\/     M anipulation  |                                                 |
\*---------------------------------------------------------------------------*/
FoamFile
{
    version     2.0;
    format      ascii;
    class       volScalarField;
    location    "0.18";
    object      k;
}
// * * * * * * * * * * * * * * * * * * * * * * * * * * * * * * * * * * * * * //

dimensions      [0 2 -2 0 0 0 0];

internalField   nonuniform List<scalar> 
8800
(
8.12502
10.2632
8.79507
6.82186
5.70419
4.97355
4.53172
4.13471
3.92302
3.66323
3.54584
3.36179
3.30453
3.14414
3.11034
2.9586
2.9287
2.81449
2.64491
2.8437
1.40713
4.35025
5.31983
5.29002
5.13136
4.80882
4.57811
4.28005
4.12638
3.88016
3.77377
3.58477
3.52453
3.36354
3.33435
3.19622
3.18439
3.04837
3.03919
2.96848
0.0845374
0.734897
1.5575
1.94566
2.28332
2.4306
2.57672
2.60673
2.62092
2.59784
2.59071
2.5401
2.52529
2.46982
2.46398
2.40611
2.41018
2.35916
2.3727
2.33254
0.00335113
0.0702917
0.252271
0.417421
0.597628
0.695654
0.831158
0.943504
1.02212
1.08153
1.17431
1.20952
1.25576
1.30442
1.3385
1.3709
1.39185
1.44698
1.46374
1.49981
0.000122327
0.00499305
0.0220915
0.0484972
0.0961418
0.122545
0.154105
0.215156
0.243072
0.279697
0.319443
0.362711
0.382581
0.432278
0.454098
0.506921
0.523585
0.587192
0.610279
0.675669
2.50868e-05
0.000315811
0.00142745
0.00350181
0.0089306
0.0126357
0.016456
0.0275301
0.0334774
0.0442487
0.0506664
0.0645454
0.0709995
0.0874374
0.0947032
0.113375
0.11971
0.144707
0.154657
0.184862
2.16419e-05
4.41807e-05
0.00011773
0.000249572
0.000641256
0.000904012
0.00117824
0.00210501
0.00268001
0.00392788
0.00464415
0.00631279
0.0072564
0.00987091
0.0112271
0.0145377
0.0157415
0.0205936
0.0229014
0.0287644
2.11424e-05
3.19548e-05
4.60305e-05
6.06343e-05
0.000102236
0.000126222
0.000138596
0.000183812
0.000214497
0.000291227
0.000330293
0.000430324
0.000487326
0.000688345
0.00080077
0.00108226
0.0011717
0.00160307
0.00200929
0.00216039
2.08839e-05
3.07644e-05
4.32605e-05
4.88121e-05
6.48215e-05
7.73208e-05
8.04806e-05
8.28938e-05
8.49279e-05
8.52537e-05
8.55327e-05
8.97006e-05
9.49134e-05
0.000110006
0.000115282
0.000128336
0.000130494
0.00015377
0.000164946
0.000171693
2.0647e-05
2.906e-05
4.0246e-05
4.56473e-05
6.10529e-05
7.4385e-05
7.58753e-05
7.40385e-05
7.07986e-05
6.9424e-05
6.90651e-05
7.15486e-05
7.76658e-05
8.06945e-05
8.13205e-05
8.17629e-05
8.04123e-05
8.03084e-05
7.98611e-05
8.63017e-05
2.05555e-05
2.68705e-05
3.97539e-05
5.90837e-05
7.0077e-05
7.06207e-05
6.71688e-05
6.44102e-05
6.54932e-05
7.19999e-05
7.717e-05
7.99871e-05
8.20814e-05
8.17859e-05
7.89662e-05
7.71809e-05
7.66895e-05
7.83912e-05
8.25422e-05
8.91145e-05
2.07393e-05
2.84739e-05
5.08374e-05
6.77288e-05
6.76186e-05
6.37072e-05
6.23124e-05
6.86418e-05
8.8926e-05
9.99877e-05
0.000101112
0.000104383
0.000105667
0.000104055
0.000104541
0.000109763
0.000120792
0.000155503
0.000192234
0.000227548
2.10316e-05
3.25131e-05
4.72907e-05
7.78651e-05
8.66726e-05
0.000103562
0.000122334
0.000176363
0.000217547
0.000306929
0.000339417
0.000443682
0.00050982
0.000637338
0.000735518
0.000973549
0.00113969
0.00167493
0.00216379
0.00265294
2.16226e-05
4.32898e-05
0.000126263
0.000360925
0.000502378
0.000833021
0.00116501
0.00198479
0.00256983
0.00397512
0.00466489
0.00643367
0.00741627
0.00957552
0.0108445
0.0138088
0.0157358
0.0210789
0.0241542
0.0308404
2.49453e-05
0.000311167
0.001665
0.00481034
0.00707387
0.0123452
0.0168331
0.0266964
0.0324402
0.0454031
0.0512878
0.0648768
0.0715963
0.0862186
0.0936816
0.111278
0.121108
0.146667
0.159987
0.194741
0.000122454
0.00497997
0.0263044
0.0544653
0.0818795
0.124554
0.160206
0.208838
0.236913
0.292108
0.31479
0.362523
0.384612
0.432172
0.454009
0.504572
0.530561
0.594763
0.622651
0.699142
0.00335132
0.0699446
0.264955
0.413814
0.585603
0.701117
0.835979
0.928336
1.01998
1.10234
1.15515
1.2144
1.2557
1.30801
1.33182
1.38247
1.40547
1.46027
1.48201
1.53942
0.0843832
0.730902
1.57017
1.93422
2.28356
2.42792
2.58169
2.59385
2.62542
2.5989
2.58721
2.53892
2.52442
2.47526
2.46205
2.4209
2.41271
2.38714
2.37648
2.35393
1.40333
4.35527
5.3184
5.2852
5.13145
4.79679
4.58782
4.2717
4.13402
3.86561
3.77895
3.57924
3.52112
3.36836
3.3319
3.2017
3.17288
3.0536
3.01264
2.90871
8.11875
10.267
8.78956
6.81853
5.71045
4.9609
4.53598
4.13006
3.93103
3.64414
3.55708
3.34996
3.30319
3.13427
3.10428
2.93981
2.90412
2.72018
2.64817
2.42047
1.74444
0.995455
0.699384
0.64705
0.64963
0.677714
0.71123
0.739973
0.738627
0.738292
0.719412
0.69314
0.643654
0.607327
0.568083
0.549383
0.523883
0.523005
0.523059
0.528725
0.531232
0.529228
0.527899
0.521648
0.520834
0.514015
0.505956
0.49182
0.449648
0.37732
0.340525
0.326908
0.311916
0.29958
0.280294
0.270817
0.256121
0.231599
0.213966
0.194369
0.178374
0.176366
0.180987
0.196108
0.216624
0.23829
0.237946
0.234907
0.226797
0.210495
0.180156
0.138247
0.0804872
0.0440718
0.0251208
0.0154355
0.0111378
0.00967822
0.00985075
0.0107131
0.0126956
0.017018
0.0262901
0.038424
0.0462401
0.0598004
0.0720594
0.0814101
0.0911866
0.0953781
0.100714
0.102474
0.10036
0.0907336
0.0771661
0.0694212
0.0664571
0.0590192
0.0541362
0.0541267
0.0543872
0.0543669
0.0553739
0.0613765
0.0654964
0.0716479
0.0813002
0.0842869
0.0944942
0.101385
0.101583
0.100345
0.0956938
0.0882933
0.0802738
0.0686123
0.0628743
0.0505477
0.0392653
0.0335614
0.0304963
0.0281158
0.0244973
0.0197335
0.0172212
0.0171206
0.018494
0.023004
0.0370242
0.0633227
0.0785201
0.0813384
0.0780589
0.0652988
0.0561796
0.0518961
0.0502016
0.0502376
0.0523439
0.0559951
0.0563913
0.0551821
0.0503249
0.0444575
0.0400793
0.0388586
0.0393356
0.0412144
0.0453668
0.0597497
0.0739446
0.0763226
0.0751427
0.0716277
0.0700254
0.0703541
0.073624
0.0903984
0.100223
0.10527
0.107105
0.106628
0.120303
0.220202
0.275486
0.27237
0.220125
0.125939
0.0760246
0.052847
0.0410884
0.0334362
0.029731
0.0288894
0.0288337
0.0287897
0.0295854
0.0326994
0.0355026
0.0372169
0.0399933
0.0440877
0.0528992
0.0784791
0.0967531
0.104791
0.10595
0.108056
0.118701
0.148129
0.310632
0.484544
0.553432
0.496067
0.310471
0.159079
0.0727733
0.0441983
0.0385079
0.0341386
0.034464
0.0379091
0.0447437
0.0443479
0.0513469
0.0524317
0.0550959
0.0539143
0.0499906
0.0471596
0.0445313
0.0485173
0.0477575
0.0592735
0.060743
0.0773135
0.082812
0.119803
0.186909
0.51273
2.49305
2.01858
1.63717
1.39684
1.22204
1.13959
1.04696
1.00571
0.951604
0.920655
0.888482
0.857199
0.826941
0.802129
0.758781
0.740577
0.700278
0.675067
0.645213
0.616159
0.605427
0.579992
0.571627
0.561284
0.554965
0.560362
0.56325
0.568749
0.570533
0.563463
0.535987
0.480109
0.417871
0.367002
0.323553
0.303199
0.284813
0.264143
0.259102
0.260696
0.265484
0.278439
0.284092
0.281626
0.276653
0.266368
0.244321
0.223112
0.179858
0.129558
0.073231
0.0409426
0.0231429
0.0137837
0.00961165
0.00809963
0.00819532
0.00888743
0.0110294
0.0170339
0.0261798
0.0443564
0.0681402
0.0867082
0.106158
0.127872
0.141144
0.149669
0.153467
0.152314
0.148234
0.145122
0.138474
0.120853
0.102687
0.0880306
0.0794106
0.0719088
0.0703567
0.0716283
0.0735088
0.0751955
0.0792018
0.0921049
0.104214
0.122354
0.141436
0.145585
0.145284
0.14439
0.140653
0.136522
0.127042
0.117712
0.111298
0.0996568
0.090175
0.0821502
0.0650569
0.0489139
0.040517
0.0371278
0.0348627
0.0300205
0.02347
0.0198682
0.0197704
0.0214445
0.0269085
0.0452571
0.0666566
0.0756313
0.075651
0.0710574
0.0586086
0.0519975
0.0493096
0.0484348
0.0486525
0.0512793
0.0550281
0.0548567
0.053684
0.0495666
0.0471382
0.0472128
0.049879
0.0538134
0.0629838
0.0759741
0.0799337
0.0787998
0.0724651
0.0644902
0.0623242
0.0633793
0.0702604
0.0898811
0.0996002
0.102919
0.105001
0.10742
0.141077
0.262911
0.29611
0.27852
0.185085
0.106068
0.069414
0.0514402
0.0414334
0.0342355
0.0300911
0.0291878
0.0286683
0.0282997
0.0283221
0.0292901
0.0309829
0.0321271
0.0343483
0.0374397
0.0435589
0.0623806
0.0890409
0.0997342
0.104361
0.108052
0.119155
0.151452
0.31119
0.490609
0.509554
0.42561
0.242487
0.123334
0.0635563
0.0407357
0.0384377
0.0387418
0.0413574
0.0412817
0.0473222
0.0475416
0.0509531
0.0526114
0.0526871
0.0517896
0.046685
0.0434088
0.0438612
0.0449911
0.0465183
0.0527376
0.0582801
0.0774714
0.0791878
0.101824
0.106748
0.218419
2.08973
1.84502
1.62613
1.45232
1.30693
1.19839
1.11123
1.0351
0.975226
0.916784
0.865905
0.828345
0.772744
0.748788
0.704653
0.668738
0.640009
0.599287
0.577367
0.538066
0.514594
0.495529
0.473938
0.463855
0.457765
0.459712
0.467464
0.479667
0.507065
0.525748
0.529922
0.528912
0.520366
0.496307
0.473571
0.448438
0.425248
0.409916
0.393597
0.376171
0.355217
0.336414
0.310809
0.283115
0.255081
0.20283
0.156366
0.0996562
0.0589365
0.0344041
0.020221
0.0121409
0.00834432
0.00675116
0.00680248
0.00729413
0.0090555
0.0140528
0.0243495
0.0464923
0.0733618
0.114465
0.151055
0.17887
0.211326
0.231746
0.240077
0.238966
0.233575
0.217188
0.201331
0.191657
0.170619
0.157853
0.131723
0.106972
0.0987245
0.0930423
0.0918816
0.0929214
0.0951014
0.0997761
0.112666
0.146995
0.166031
0.171772
0.170901
0.168356
0.160724
0.15245
0.142435
0.136603
0.128224
0.119872
0.115758
0.110096
0.103425
0.0993937
0.092314
0.0785929
0.0632103
0.0534046
0.0492328
0.0438399
0.0330052
0.0250067
0.0221623
0.0224271
0.024617
0.0318265
0.0525828
0.0665181
0.0711515
0.0700531
0.0655545
0.0554664
0.0506832
0.0484536
0.0479748
0.0484414
0.0509323
0.0526858
0.053073
0.0546977
0.0556051
0.0580326
0.0607239
0.0649499
0.0735514
0.0801833
0.0803765
0.0732814
0.0596368
0.054251
0.0537977
0.0557113
0.0660317
0.0858942
0.0964533
0.101008
0.104218
0.109798
0.172807
0.298595
0.311333
0.268498
0.153946
0.0960974
0.0677631
0.0544568
0.0476608
0.0393996
0.0331461
0.0299433
0.0291394
0.0282284
0.027773
0.0280362
0.0288989
0.0293911
0.0305271
0.0329279
0.0375296
0.0518821
0.07877
0.0939345
0.101539
0.108996
0.120293
0.157824
0.310683
0.453325
0.462168
0.366358
0.198435
0.0965522
0.0595258
0.0415717
0.0405632
0.0420858
0.0459412
0.0451723
0.0478425
0.0484895
0.0501175
0.0507262
0.0499127
0.0475214
0.0445148
0.04353
0.0437464
0.0450281
0.0478202
0.0518184
0.0627865
0.0725526
0.079234
0.0912539
0.0912889
0.121399
1.39839
1.27276
1.1674
1.07225
0.995559
0.924759
0.860406
0.804814
0.745823
0.698014
0.650787
0.611107
0.57205
0.533786
0.504705
0.469936
0.441547
0.41593
0.39124
0.361379
0.337449
0.318136
0.299711
0.289081
0.277733
0.273634
0.275283
0.279987
0.288808
0.311624
0.329026
0.352493
0.377012
0.380575
0.37894
0.373485
0.361288
0.338105
0.318519
0.293203
0.262962
0.224806
0.18515
0.139252
0.094353
0.0620188
0.0397018
0.0250453
0.0156444
0.00986967
0.00690754
0.00542557
0.00546027
0.00582052
0.00707486
0.0108484
0.0195608
0.0396076
0.0727855
0.124239
0.183014
0.244177
0.286276
0.314781
0.327045
0.325409
0.320868
0.313009
0.300685
0.278818
0.265128
0.233695
0.208994
0.188489
0.15098
0.131524
0.124153
0.118171
0.117086
0.118449
0.12334
0.140615
0.184137
0.194516
0.192752
0.187545
0.175392
0.162143
0.146228
0.132333
0.124804
0.121984
0.117994
0.114704
0.112971
0.109488
0.104991
0.102002
0.0996237
0.0949704
0.0856563
0.0729968
0.0657946
0.0604877
0.0496868
0.0361765
0.0272697
0.0245423
0.0251673
0.0278336
0.0375516
0.0542377
0.0639505
0.0667943
0.0656818
0.0618153
0.0565673
0.0525898
0.0496712
0.049386
0.0500065
0.050977
0.0524384
0.0567103
0.0589267
0.0607254
0.063511
0.0704881
0.077398
0.0780817
0.0730242
0.0614062
0.0553158
0.0533838
0.0538675
0.0562297
0.066796
0.0849233
0.0940232
0.100057
0.104951
0.116929
0.222554
0.325476
0.325173
0.23823
0.137609
0.0928287
0.0732589
0.0668879
0.0595125
0.0490951
0.038546
0.0319346
0.0306014
0.0301844
0.0290985
0.0279502
0.0268809
0.0271645
0.0276578
0.0295244
0.0335734
0.0448221
0.0673935
0.0896297
0.0959511
0.107153
0.120548
0.158559
0.313426
0.409936
0.40925
0.300758
0.168219
0.0856352
0.0595839
0.0493871
0.049403
0.0465298
0.0483527
0.0474275
0.0482744
0.0492065
0.0501472
0.0502639
0.0491515
0.0472382
0.045864
0.0463495
0.0472858
0.0505697
0.052159
0.0575538
0.067103
0.0784235
0.0855807
0.0886722
0.0850505
0.109069
0.646945
0.599705
0.565182
0.523914
0.497022
0.474313
0.441224
0.426134
0.394102
0.364583
0.336183
0.305561
0.289305
0.260501
0.24018
0.223941
0.197783
0.184973
0.169919
0.156933
0.143372
0.127025
0.119844
0.11318
0.109493
0.107047
0.107279
0.109408
0.113161
0.119544
0.132272
0.138925
0.151404
0.164268
0.166454
0.16535
0.160888
0.151599
0.132757
0.112921
0.0916436
0.0701689
0.051691
0.0362516
0.0246912
0.0164252
0.0108339
0.00727352
0.00517738
0.00407553
0.00409501
0.00439563
0.00530695
0.00794996
0.0144853
0.0298229
0.0578665
0.115319
0.193429
0.283269
0.344727
0.369411
0.373861
0.370353
0.362288
0.349616
0.342184
0.329477
0.311934
0.303385
0.295502
0.263885
0.247865
0.222818
0.194898
0.176595
0.157403
0.149945
0.147972
0.152303
0.176406
0.220295
0.223937
0.212285
0.199531
0.183669
0.156303
0.138687
0.12916
0.118803
0.112754
0.109923
0.107375
0.104504
0.104434
0.104399
0.103261
0.100874
0.0992454
0.0974784
0.0946214
0.0869532
0.0779338
0.0728237
0.0644504
0.0488269
0.0366094
0.0290699
0.0269492
0.0277427
0.0307738
0.041311
0.0540329
0.0613468
0.0630075
0.0619371
0.0591932
0.0565402
0.0544689
0.0536531
0.0536304
0.0537517
0.0547122
0.0591636
0.061103
0.0634041
0.0704202
0.0754698
0.0756334
0.0714541
0.0627501
0.0581719
0.0554755
0.0558827
0.0592286
0.0637786
0.072305
0.0869429
0.0941909
0.0988426
0.105115
0.12664
0.266855
0.351906
0.333911
0.211206
0.129105
0.0963857
0.0882945
0.0838115
0.0744995
0.0578208
0.0416891
0.0325252
0.0304888
0.0306915
0.0308193
0.028736
0.0256492
0.0259151
0.0260793
0.0268326
0.0294421
0.0401482
0.0602101
0.0811123
0.0905924
0.103697
0.120217
0.155218
0.294608
0.389463
0.379905
0.261406
0.160826
0.0870676
0.0673324
0.0566936
0.0547236
0.0501648
0.050103
0.0496937
0.0494324
0.0500923
0.0507547
0.0506607
0.0494946
0.0495842
0.0491326
0.0508776
0.0516772
0.0542361
0.0557933
0.0601899
0.0665895
0.0791312
0.0802012
0.08456
0.0820523
0.0874728
0.180473
0.170532
0.163268
0.152058
0.14695
0.14287
0.134763
0.131905
0.126539
0.118323
0.107885
0.093978
0.087832
0.0770887
0.070486
0.0661074
0.0579026
0.0543591
0.049352
0.0459998
0.0427447
0.0371831
0.0353759
0.0326419
0.0313671
0.0312775
0.0313848
0.0319962
0.0329252
0.0338972
0.036716
0.0391609
0.0405951
0.0447114
0.0460676
0.0457727
0.0446004
0.0422339
0.0369767
0.0307477
0.0243967
0.0182965
0.0131919
0.00920634
0.00637771
0.0044672
0.00333806
0.00276353
0.00283353
0.0031273
0.00386408
0.00576294
0.0104598
0.0210644
0.0430552
0.0900786
0.169293
0.29068
0.376807
0.412574
0.411784
0.403039
0.391874
0.376689
0.359409
0.346496
0.337048
0.320346
0.310459
0.308515
0.304643
0.298693
0.281686
0.244906
0.233086
0.20281
0.188518
0.18297
0.184728
0.218968
0.256021
0.252159
0.238793
0.206052
0.181332
0.155485
0.133951
0.124657
0.120919
0.111366
0.103771
0.101046
0.0974856
0.0948899
0.0943447
0.0947458
0.0961348
0.097078
0.0968923
0.0964324
0.0955039
0.0928911
0.0847769
0.0794746
0.0743436
0.0634732
0.0469666
0.0352234
0.0301811
0.0293313
0.030144
0.0341362
0.0424883
0.0512449
0.0575009
0.0592588
0.0587611
0.0569907
0.0560171
0.0560388
0.0562529
0.0566524
0.0590126
0.0610604
0.0636692
0.0724787
0.0750436
0.0732373
0.0674711
0.0642835
0.0601012
0.0598095
0.0607634
0.0636117
0.0695002
0.071944
0.0779543
0.0888925
0.0945326
0.097945
0.105426
0.139838
0.311471
0.376336
0.333635
0.194455
0.125762
0.107157
0.105001
0.100565
0.0864245
0.0590308
0.0417249
0.0316034
0.028433
0.0284364
0.0294447
0.0284805
0.0258609
0.0245076
0.0256358
0.0264284
0.0285951
0.0366804
0.0570387
0.0744812
0.0906913
0.0988191
0.11489
0.154183
0.259279
0.342086
0.342299
0.253337
0.167128
0.0994248
0.0800695
0.0592479
0.0565875
0.0529387
0.0514101
0.0510308
0.0508918
0.0515208
0.0518687
0.0518574
0.050949
0.0511761
0.0508935
0.0512868
0.0530241
0.0546998
0.0570477
0.0618651
0.0714248
0.0763745
0.076227
0.0724856
0.0636387
0.0667346
0.0281059
0.0265271
0.0253625
0.0244308
0.0244382
0.0247973
0.0248436
0.0250101
0.0245861
0.0230544
0.0206919
0.0176648
0.0159244
0.0139764
0.0128759
0.0124413
0.0115732
0.0110766
0.0102497
0.00935909
0.00848802
0.00734604
0.00678016
0.00631345
0.00621275
0.00630654
0.00647351
0.00663254
0.00687557
0.00700493
0.007231
0.00761859
0.00773349
0.00798488
0.00868954
0.00873794
0.00859904
0.00822879
0.00736821
0.00612717
0.00487778
0.00372194
0.00280281
0.00212258
0.00167407
0.0016658
0.00177675
0.00209096
0.00276024
0.00435579
0.0078896
0.0152179
0.0312082
0.064028
0.125969
0.251103
0.385521
0.44226
0.45125
0.443424
0.423115
0.39075
0.357267
0.321614
0.296295
0.285839
0.284195
0.287762
0.300595
0.302246
0.301032
0.302217
0.288211
0.274709
0.245504
0.220372
0.220822
0.221003
0.258506
0.290325
0.283121
0.257719
0.209865
0.177167
0.151369
0.134248
0.122525
0.114694
0.111188
0.103066
0.0969729
0.0952475
0.0930002
0.0890941
0.0874621
0.0860821
0.0865294
0.0878439
0.0908994
0.0937358
0.0953129
0.0946732
0.090145
0.0838179
0.0795498
0.072365
0.0577467
0.0450072
0.0354536
0.0314832
0.0311022
0.0321756
0.0366445
0.0405241
0.0464936
0.0527209
0.0552903
0.0550799
0.0550512
0.0556671
0.0560367
0.0566193
0.0596479
0.0649943
0.0677893
0.068059
0.0631292
0.0611147
0.0621231
0.0629063
0.0638963
0.0675931
0.0704405
0.0758789
0.0815693
0.0813646
0.0832999
0.089976
0.0934905
0.0966659
0.105127
0.15584
0.350498
0.393169
0.329158
0.189762
0.130979
0.119531
0.119416
0.115434
0.0914478
0.0554454
0.0365787
0.0309207
0.0278519
0.0264295
0.0284739
0.0273435
0.0271056
0.0248865
0.0248859
0.0254533
0.0275447
0.0354311
0.0577111
0.0704041
0.0882865
0.0968419
0.114198
0.149717
0.250495
0.295466
0.335333
0.261494
0.18833
0.112496
0.084542
0.0645556
0.059328
0.0544726
0.0539601
0.053085
0.0532506
0.0539414
0.0533985
0.0532634
0.0526999
0.0533464
0.0532835
0.0538753
0.0557379
0.058941
0.0648407
0.0731635
0.0769098
0.0797722
0.0785755
0.0728495
0.057363
0.0516121
0.00208197
0.00201429
0.00200341
0.00206566
0.00228266
0.00240455
0.00243895
0.00245488
0.00240419
0.00215275
0.00186603
0.00164424
0.0015461
0.00153655
0.00153251
0.00154389
0.00153142
0.00144316
0.0012326
0.00103376
0.000887084
0.000792098
0.000772984
0.000772733
0.000786838
0.000842093
0.000873227
0.000877382
0.000882325
0.000872896
0.000873295
0.000893987
0.000894181
0.000888805
0.00094704
0.00100487
0.00100439
0.000997474
0.000975945
0.000917085
0.000807436
0.000776568
0.000797188
0.000876022
0.00104038
0.00137828
0.00211174
0.0037811
0.00656618
0.0126929
0.0236248
0.0446873
0.093683
0.174337
0.347048
0.451984
0.484853
0.481636
0.463559
0.415516
0.350249
0.305736
0.282718
0.268392
0.25778
0.252333
0.251015
0.255969
0.278541
0.286841
0.300501
0.304797
0.302993
0.29516
0.260208
0.253412
0.248072
0.27911
0.319318
0.311818
0.273227
0.214774
0.181581
0.157512
0.135286
0.123254
0.110738
0.106879
0.105826
0.101335
0.0989992
0.0974949
0.0948915
0.089575
0.0874271
0.0852137
0.0824808
0.0810337
0.0821526
0.0860382
0.0937408
0.0941717
0.0915546
0.084999
0.0807922
0.0771754
0.0673819
0.0509774
0.0410248
0.035564
0.0329959
0.0329387
0.0347788
0.0364612
0.0384548
0.0432597
0.0464053
0.0472307
0.0492165
0.0505692
0.0509949
0.053395
0.0576676
0.0582307
0.0556365
0.0537337
0.0542973
0.0583197
0.062591
0.0660399
0.0745004
0.0818596
0.0851004
0.0892382
0.0896202
0.0865423
0.0852079
0.0892233
0.0909921
0.0947894
0.103995
0.174405
0.377026
0.409526
0.32834
0.194953
0.137948
0.132728
0.133224
0.130213
0.095483
0.0483492
0.0347976
0.0308604
0.0270827
0.0276404
0.0275421
0.0273486
0.0275861
0.025335
0.0245353
0.0249548
0.0275064
0.0378686
0.0592035
0.0677168
0.0847441
0.0978613
0.109499
0.143791
0.258981
0.295933
0.337549
0.285227
0.198253
0.120556
0.0905661
0.0704442
0.0661052
0.05868
0.0587419
0.0585438
0.0579452
0.0577228
0.0562957
0.0548739
0.0546119
0.0554989
0.0562003
0.0572481
0.0617616
0.0673796
0.0715489
0.0780258
0.0807877
0.081448
0.0779715
0.0660486
0.0546795
0.0473238
0.000192237
0.000197098
0.000194776
0.000192043
0.000201679
0.000218635
0.000225287
0.000220818
0.000201831
0.00019469
0.000205464
0.000245744
0.000274013
0.000278277
0.000260048
0.000231626
0.000206971
0.000187169
0.000175112
0.000172801
0.000172779
0.000179937
0.000189899
0.000190116
0.000188828
0.000186795
0.000177143
0.000166177
0.000161161
0.000160788
0.000163286
0.000165922
0.000169207
0.000172718
0.000176692
0.000202323
0.000231536
0.000265782
0.000307595
0.000360622
0.000411065
0.000516005
0.000705716
0.00116857
0.00197025
0.00368119
0.00644241
0.0120614
0.0198812
0.0360792
0.0643008
0.12319
0.250527
0.431137
0.509155
0.51634
0.504602
0.463985
0.370851
0.311886
0.292146
0.282318
0.271899
0.263774
0.257802
0.252836
0.252407
0.257759
0.275769
0.294883
0.309653
0.312607
0.312087
0.287986
0.254967
0.251718
0.283762
0.340106
0.335139
0.288141
0.227754
0.19051
0.162613
0.138594
0.122959
0.113947
0.104917
0.103091
0.102718
0.101416
0.101659
0.100395
0.0955054
0.0899521
0.0888203
0.0870263
0.0832368
0.0802187
0.0798439
0.0808246
0.0872331
0.0910642
0.0902019
0.085012
0.081173
0.0787538
0.0733488
0.0608806
0.0491915
0.0397098
0.0351196
0.0342742
0.035514
0.0362513
0.0366706
0.0384451
0.0403454
0.0412406
0.0421562
0.0423703
0.0425108
0.0449907
0.0455996
0.0443861
0.0442124
0.0456626
0.0533749
0.0651428
0.0709369
0.078708
0.0915714
0.0986992
0.0994092
0.0976641
0.0924435
0.0857463
0.0850115
0.0886771
0.0909825
0.0948795
0.104307
0.183571
0.388633
0.423562
0.343959
0.209855
0.152487
0.145641
0.149067
0.150374
0.0989515
0.0472488
0.0383259
0.0299312
0.0294732
0.0299876
0.0306359
0.0301813
0.0288681
0.0265743
0.024383
0.0250078
0.0280842
0.0397115
0.0607276
0.0690992
0.0805394
0.0993068
0.112337
0.153611
0.269988
0.298206
0.327381
0.298065
0.2208
0.13586
0.104201
0.0807497
0.0724531
0.0649895
0.0632024
0.0618424
0.0614865
0.0614628
0.0602584
0.0589397
0.0589543
0.059654
0.0614498
0.065888
0.0737527
0.0792143
0.0840444
0.0845517
0.083939
0.0819934
0.0708819
0.0591214
0.0507277
0.0456974
8.61485e-05
8.60426e-05
8.92428e-05
0.000106588
0.000114581
0.000113399
0.000107038
0.000106325
0.000121135
0.000152136
0.000161387
0.000152794
0.000135709
0.000130641
0.000133648
0.000139264
0.000139868
0.000139952
0.000140664
0.000160435
0.000185669
0.000192588
0.000187584
0.000168568
0.00015244
0.000146245
0.000144762
0.000144439
0.000147535
0.00015684
0.000158803
0.000161864
0.000170269
0.000181795
0.000197304
0.000239667
0.000280737
0.000361784
0.000452045
0.000660997
0.000943691
0.0015181
0.00241114
0.00445483
0.00728691
0.0119988
0.0204349
0.0341635
0.0540364
0.0910927
0.167314
0.339616
0.500915
0.551587
0.549156
0.518137
0.421239
0.320713
0.288184
0.283586
0.286913
0.289546
0.289657
0.290122
0.288577
0.281665
0.277244
0.279714
0.290114
0.298924
0.305969
0.305897
0.29784
0.252135
0.242009
0.267016
0.355008
0.357098
0.304227
0.253786
0.207216
0.168106
0.144678
0.129117
0.117424
0.110114
0.103793
0.100986
0.0998877
0.101296
0.10312
0.101786
0.0963632
0.092488
0.0931968
0.0923235
0.0877549
0.0821882
0.0803344
0.0810105
0.0852992
0.0883666
0.0871341
0.0820556
0.080772
0.0793811
0.0772179
0.0674328
0.0542771
0.0448127
0.0383644
0.0372059
0.0376994
0.0373275
0.0372004
0.0385518
0.0398279
0.0401131
0.0402518
0.0398557
0.0393914
0.0395076
0.0395297
0.0395331
0.0405767
0.0513865
0.0676985
0.0778358
0.084539
0.0983924
0.113203
0.114439
0.106679
0.101018
0.0918586
0.0835455
0.0833823
0.0864307
0.0899391
0.0920727
0.100314
0.178465
0.404224
0.450123
0.377285
0.239668
0.176983
0.163466
0.170573
0.161296
0.0989767
0.0547503
0.0476986
0.0385842
0.0395382
0.0325365
0.0341766
0.0401425
0.0443499
0.0294385
0.0256949
0.0261256
0.0351786
0.0439494
0.0642388
0.0708385
0.0801155
0.10506
0.124814
0.163505
0.246839
0.290804
0.297069
0.292175
0.26077
0.175163
0.135441
0.0998991
0.0845825
0.074718
0.0695321
0.0669009
0.0662384
0.0665104
0.0663409
0.0660892
0.0671216
0.0724995
0.0803717
0.0863995
0.0914489
0.0924064
0.091998
0.0897315
0.0817131
0.0741099
0.0639744
0.0560521
0.048764
0.0452214
9.1062e-05
9.34957e-05
9.85672e-05
0.000100293
0.000104691
0.000114641
0.000129739
0.000134482
0.000132447
0.000127636
0.000130514
0.000155083
0.000185534
0.00019825
0.000202441
0.000202209
0.000228737
0.000312896
0.000367853
0.000389483
0.000385693
0.000372728
0.00037327
0.000391846
0.000404548
0.000417158
0.000425111
0.00043151
0.000471274
0.000549307
0.000596995
0.000629645
0.000673214
0.000758744
0.000840686
0.00101385
0.00121816
0.00165643
0.00211519
0.0030331
0.00437595
0.00636372
0.00988119
0.0155152
0.0240085
0.0344087
0.0583389
0.0859584
0.135477
0.227063
0.444953
0.564416
0.589638
0.570933
0.49837
0.349367
0.287064
0.264515
0.266487
0.275059
0.291099
0.291958
0.295043
0.298255
0.297294
0.292854
0.284083
0.28269
0.286308
0.28645
0.287744
0.280711
0.244487
0.223607
0.250182
0.352436
0.364198
0.320725
0.282358
0.245265
0.194298
0.158465
0.13677
0.122198
0.113178
0.10702
0.102953
0.0983949
0.0972626
0.101479
0.106688
0.108418
0.10538
0.0997582
0.098846
0.0965028
0.0921042
0.0870278
0.0832674
0.0833501
0.0867733
0.0887339
0.0863193
0.0814782
0.0810606
0.0808532
0.0800859
0.0743202
0.0655948
0.0527626
0.0436411
0.0432774
0.0431717
0.0417013
0.0404276
0.0409481
0.0409843
0.0410137
0.0410619
0.0408892
0.0398625
0.0394868
0.0394187
0.0401677
0.0464958
0.0690506
0.0825175
0.0966866
0.112138
0.123238
0.125629
0.123101
0.106851
0.0972429
0.0865475
0.0823333
0.0827499
0.0851554
0.0873911
0.0885467
0.0959511
0.167041
0.408166
0.46488
0.406184
0.285816
0.214218
0.194068
0.195698
0.161302
0.0986592
0.0821497
0.0694346
0.0702962
0.0614341
0.0491109
0.0564291
0.0828991
0.29893
0.0450701
0.0676825
0.0389695
0.0812837
0.0560625
0.066014
0.0747064
0.0823497
0.13048
0.132304
0.15805
0.182962
0.258606
0.278997
0.282155
0.274736
0.226037
0.189433
0.144732
0.115432
0.0976629
0.0864025
0.0800103
0.0789144
0.0795059
0.0816425
0.0876128
0.0949581
0.100577
0.103687
0.104079
0.102341
0.10004
0.095481
0.0844359
0.0731475
0.0677334
0.0603856
0.0564914
0.0501164
0.047353
0.000228556
0.000231455
0.00024302
0.000259562
0.000302938
0.000348414
0.000429996
0.000540333
0.000600702
0.000691377
0.000745061
0.000771542
0.000797434
0.000841468
0.00089334
0.000955436
0.001195
0.00152958
0.00175593
0.00207115
0.00223953
0.00230263
0.00245892
0.00249365
0.00246066
0.00243156
0.00242441
0.00244835
0.00270261
0.00317471
0.00350654
0.00382026
0.00410068
0.00452708
0.00488205
0.00558299
0.00633312
0.00786029
0.0101678
0.0126336
0.018461
0.0234332
0.035433
0.0474078
0.067517
0.0967539
0.13963
0.202008
0.329841
0.536112
0.624834
0.624173
0.578581
0.423901
0.322403
0.26963
0.24694
0.239224
0.228356
0.223744
0.236478
0.240035
0.256907
0.274226
0.272702
0.266944
0.270711
0.270372
0.262329
0.25997
0.251199
0.227565
0.208397
0.228977
0.315648
0.35755
0.33204
0.305981
0.28491
0.249047
0.191124
0.15543
0.133422
0.118413
0.109817
0.105417
0.10228
0.0974916
0.0939687
0.0953251
0.0968972
0.104989
0.104665
0.105495
0.105582
0.104488
0.102709
0.097466
0.0909736
0.0890608
0.0913173
0.0907375
0.0865348
0.082524
0.0826249
0.0859143
0.085649
0.0832474
0.0705279
0.0557556
0.0514606
0.0530638
0.0529561
0.048906
0.0457187
0.0451009
0.0447913
0.0460476
0.0465287
0.0448837
0.0420906
0.0409392
0.041028
0.0483557
0.0659762
0.0862557
0.110718
0.123312
0.128575
0.131451
0.130116
0.117802
0.0982532
0.0851081
0.07593
0.0750735
0.0762166
0.078612
0.0785369
0.0773643
0.0820903
0.138556
0.388142
0.464278
0.441989
0.342339
0.265421
0.235583
0.207437
0.159323
0.128519
0.12059
0.13214
0.136841
0.125631
0.1294
0.217795
0.347029
0.450352
0.0898531
0.282681
0.0624683
0.0955597
0.0736707
0.0700542
0.0869137
0.0929009
0.136505
0.135243
0.142632
0.156995
0.198097
0.27245
0.276748
0.275713
0.259881
0.224526
0.197379
0.177969
0.150235
0.132749
0.121984
0.118777
0.119186
0.12053
0.122886
0.122674
0.121563
0.118698
0.114009
0.107649
0.0953296
0.0830452
0.0745643
0.0668559
0.0645464
0.0595388
0.0579483
0.0561252
0.0562221
0.00265737
0.00266952
0.00276214
0.0029373
0.00372118
0.00456261
0.00542032
0.0060322
0.0062384
0.00634032
0.00628709
0.00626755
0.00627422
0.00634206
0.0065026
0.00673209
0.00826403
0.0105185
0.0122742
0.0135268
0.0139497
0.0139771
0.0140039
0.013919
0.013397
0.0131857
0.0131268
0.0134499
0.0152129
0.016962
0.0181228
0.0189106
0.0194866
0.0206128
0.0217118
0.0240104
0.0268237
0.0306574
0.0397967
0.0465139
0.0600293
0.0744515
0.100137
0.128425
0.16671
0.232115
0.301609
0.464112
0.61198
0.674288
0.660539
0.547704
0.368348
0.295569
0.263784
0.233846
0.185859
0.174002
0.177368
0.180703
0.189036
0.193208
0.205963
0.226988
0.23184
0.23563
0.241496
0.241366
0.234848
0.223481
0.204909
0.195304
0.207065
0.270394
0.329929
0.337869
0.323608
0.327671
0.322722
0.283594
0.21809
0.167346
0.135581
0.117465
0.108144
0.103492
0.102258
0.100179
0.0966173
0.0951787
0.0950919
0.0998313
0.102199
0.105513
0.105174
0.105864
0.103679
0.0999625
0.0963854
0.0965466
0.100643
0.0971782
0.0885276
0.08591
0.0877111
0.0908602
0.0899238
0.0854486
0.06823
0.0581575
0.0580636
0.0586904
0.0563608
0.050893
0.04896
0.0487459
0.0514039
0.0538317
0.0521596
0.0464891
0.0440537
0.0438653
0.0513392
0.063915
0.085091
0.113377
0.129812
0.132754
0.132147
0.129118
0.115963
0.09442
0.0796339
0.0723432
0.0701625
0.0732459
0.0741792
0.0752882
0.0737909
0.0713224
0.0738244
0.111505
0.339011
0.460743
0.478217
0.403649
0.33727
0.277382
0.212619
0.188738
0.184998
0.189187
0.221362
0.240024
0.243611
0.247075
0.30909
0.312298
0.299806
0.255692
0.570414
0.0728275
0.143026
0.0831874
0.0796391
0.101961
0.0981868
0.122411
0.144089
0.141291
0.16484
0.181054
0.244019
0.268565
0.270005
0.266297
0.25533
0.229076
0.219077
0.200364
0.178736
0.167068
0.159174
0.149921
0.144975
0.138302
0.134302
0.127485
0.118266
0.105334
0.093455
0.0844309
0.0754292
0.0696739
0.0656771
0.065161
0.0647774
0.0666406
0.0700419
0.072069
0.0311195
0.0310587
0.0317624
0.0331019
0.0350669
0.0370241
0.0395746
0.0415204