/*--------------------------------*- C++ -*----------------------------------*\
| =========                 |                                                 |
| \\      /  F ield         | OpenFOAM: The Open Source CFD Toolbox           |
|  \\    /   O peration     | Version:  2.4.0                                 |
|   \\  /    A nd           | Web:      www.OpenFOAM.org                      |
|    \\/     M anipulation  |                                                 |
\*---------------------------------------------------------------------------*/
FoamFile
{
    version     2.0;
    format      ascii;
    class       volSymmTensorField;
    location    "0.18";
    object      UPrime2Mean;
}
// * * * * * * * * * * * * * * * * * * * * * * * * * * * * * * * * * * * * * //

dimensions      [0 2 -2 0 0 0 0];

internalField   nonuniform List<symmTensor> 
8800
(
(0.00920643 0.000599222 0 0.00104413 0 0)
(0.175498 -0.00692096 0 0.000377979 0 0)
(0.343241 -0.000652057 0 7.80899e-05 0 0)
(0.427061 0.00105169 0 2.10227e-05 0 0)
(0.488817 0.000873358 0 5.03474e-06 0 0)
(0.536071 0.000675262 0 3.2927e-06 0 0)
(0.566307 0.000489971 0 3.46698e-06 0 0)
(0.590897 0.000275653 0 3.49474e-06 0 0)
(0.60616 0.000181693 0 4.33468e-06 0 0)
(0.622375 5.9636e-05 0 4.0301e-06 0 0)
(0.630642 6.61777e-05 0 4.13635e-06 0 0)
(0.645193 -8.57859e-05 0 4.59217e-06 0 0)
(0.650384 -5.81011e-05 0 4.7985e-06 0 0)
(0.670159 -0.000295361 0 5.40879e-06 0 0)
(0.676285 -0.000541242 0 6.85347e-06 0 0)
(0.71064 -0.0002721 0 9.44627e-06 0 0)
(0.749107 -0.0047597 0 6.42167e-05 0 0)
(0.781011 0.0101071 0 0.000376111 0 0)
(1.20934 -0.0920393 0 0.00944771 0 0)
(1.26745 0.143406 0 0.0285645 0 0)
(0.0479869 0.0158613 0 0.00619693 0 0)
(0.00410014 -0.00544977 0 0.00808076 0 0)
(0.0418968 -0.0111226 0 0.00323484 0 0)
(0.0844161 -0.00967899 0 0.00116295 0 0)
(0.134729 -0.00857209 0 0.000587538 0 0)
(0.201405 -0.00770054 0 0.00041238 0 0)
(0.263103 -0.00622887 0 0.000303812 0 0)
(0.327969 -0.0050084 0 0.000210347 0 0)
(0.373633 -0.00373408 0 0.000125658 0 0)
(0.426065 -0.00343283 0 9.7599e-05 0 0)
(0.450136 -0.00263491 0 4.84291e-05 0 0)
(0.506164 -0.00321646 0 5.80901e-05 0 0)
(0.506245 -0.00265458 0 4.55701e-05 0 0)
(0.587868 -0.00481368 0 0.000106368 0 0)
(0.560358 -0.00263149 0 5.81654e-05 0 0)
(0.697333 -0.0133897 0 0.00038849 0 0)
(0.664157 0.00142638 0 0.00024287 0 0)
(0.89024 -0.0550888 0 0.00394361 0 0)
(1.05451 -0.0233809 0 0.00253095 0 0)
(1.54136 -0.317405 0 0.102435 0 0)
(0.0474058 0.0116889 0 0.00338485 0 0)
(0.0041108 0.00534211 0 0.0085415 0 0)
(0.00406778 0.00269721 0 0.00522755 0 0)
(0.00600521 0.00129708 0 0.00272976 0 0)
(0.00449318 -0.000419899 0 0.00203623 0 0)
(0.00831345 -0.00318543 0 0.00186984 0 0)
(0.0194756 -0.00480453 0 0.00161302 0 0)
(0.0442269 -0.00605689 0 0.00122733 0 0)
(0.0669474 -0.00570377 0 0.000869738 0 0)
(0.103118 -0.00605891 0 0.000582038 0 0)
(0.117969 -0.00522245 0 0.000322245 0 0)
(0.169696 -0.00559829 0 0.000338436 0 0)
(0.167045 -0.00569656 0 0.000265507 0 0)
(0.235861 -0.00679881 0 0.000498749 0 0)
(0.229876 -0.0074569 0 0.00051585 0 0)
(0.305958 -0.0119399 0 0.001025 0 0)
(0.335821 -0.0157275 0 0.0016321 0 0)
(0.426629 -0.0305636 0 0.00337839 0 0)
(0.552954 -0.0790802 0 0.0172764 0 0)
(0.800404 -0.209444 0 0.108987 0 0)
(0.0454405 0.00799683 0 0.00166836 0 0)
(0.00402843 0.00365725 0 0.00562351 0 0)
(0.00939448 0.00542431 0 0.00452079 0 0)
(0.0216633 0.00622757 0 0.00251514 0 0)
(0.034331 0.00723571 0 0.00212802 0 0)
(0.0319816 0.00670142 0 0.00242348 0 0)
(0.0325527 0.0062845 0 0.00254271 0 0)
(0.023046 0.00381421 0 0.00238271 0 0)
(0.022766 0.00273557 0 0.00193221 0 0)
(0.016541 0.00027567 0 0.00148867 0 0)
(0.0160301 0.000528253 0 0.00086167 0 0)
(0.0173804 -0.00183727 0 0.00113332 0 0)
(0.015561 -0.000821439 0 0.000603809 0 0)
(0.0233524 -0.00405363 0 0.0013931 0 0)
(0.0250535 -0.00188403 0 0.000823629 0 0)
(0.0373004 -0.00710618 0 0.00225597 0 0)
(0.0466163 -0.00567944 0 0.00163806 0 0)
(0.0735109 -0.0160279 0 0.0075681 0 0)
(0.10685 -0.0341388 0 0.019629 0 0)
(0.174924 -0.0808962 0 0.0957329 0 0)
(0.0479773 0.00615699 0 0.000971617 0 0)
(0.00331798 0.00184931 0 0.00363652 0 0)
(0.00787704 0.00393905 0 0.00335809 0 0)
(0.0202104 0.00494307 0 0.00184664 0 0)
(0.040929 0.00641655 0 0.00145787 0 0)
(0.0460948 0.00715033 0 0.00180529 0 0)
(0.0622822 0.0087101 0 0.00215838 0 0)
(0.0581458 0.00795296 0 0.00224097 0 0)
(0.073104 0.00799419 0 0.00197864 0 0)
(0.0652338 0.0060877 0 0.00190285 0 0)
(0.0792975 0.00645149 0 0.00100544 0 0)
(0.0684041 0.00527171 0 0.00163866 0 0)
(0.080678 0.00527618 0 0.000822278 0 0)
(0.0662278 0.00579327 0 0.00201731 0 0)
(0.0751387 0.00510584 0 0.00121012 0 0)
(0.0575587 0.00750311 0 0.00335536 0 0)
(0.0595988 0.00765174 0 0.00272693 0 0)
(0.0399178 0.0134676 0 0.0122043 0 0)
(0.0378547 0.017683 0 0.0221591 0 0)
(0.0380154 0.0302226 0 0.126204 0 0)
(0.0496954 0.00439731 0 0.000564567 0 0)
(0.00322384 0.000984463 0 0.0024867 0 0)
(0.00582204 0.00241437 0 0.0023851 0 0)
(0.0162942 0.00350549 0 0.00138523 0 0)
(0.0340508 0.00429692 0 0.000919807 0 0)
(0.0412994 0.00506459 0 0.00117362 0 0)
(0.0560962 0.00654936 0 0.00150572 0 0)
(0.0582678 0.00681667 0 0.00172319 0 0)
(0.0738647 0.00658125 0 0.00152864 0 0)
(0.0768984 0.00608398 0 0.00155742 0 0)
(0.0932858 0.00583507 0 0.000863869 0 0)
(0.0970998 0.00643601 0 0.00133743 0 0)
(0.113389 0.00580943 0 0.000849119 0 0)
(0.115641 0.00839943 0 0.00155232 0 0)
(0.129207 0.00818159 0 0.00127216 0 0)
(0.128088 0.0126421 0 0.00263559 0 0)
(0.133995 0.0174578 0 0.00341658 0 0)
(0.127998 0.0290067 0 0.0106597 0 0)
(0.128396 0.0516549 0 0.0289819 0 0)
(0.138886 0.0916704 0 0.097661 0 0)
(0.0474173 0.00291849 0 0.00033497 0 0)
(0.00353023 0.00075892 0 0.00167379 0 0)
(0.00451258 0.00117014 0 0.00158663 0 0)
(0.0148231 0.00266822 0 0.00107143 0 0)
(0.0278318 0.00276514 0 0.000587213 0 0)
(0.0391456 0.00360044 0 0.000786898 0 0)
(0.0465229 0.00439199 0 0.00108041 0 0)
(0.055064 0.00531864 0 0.00120194 0 0)
(0.0619691 0.00446249 0 0.000908917 0 0)
(0.0732012 0.00500671 0 0.0012375 0 0)
(0.0805049 0.0037506 0 0.000574628 0 0)
(0.0947478 0.00589217 0 0.00111742 0 0)
(0.102129 0.00366601 0 0.000594394 0 0)
(0.117711 0.00824974 0 0.00135878 0 0)
(0.122643 0.00582636 0 0.000954821 0 0)
(0.138372 0.0145901 0 0.00260951 0 0)
(0.138993 0.0154334 0 0.00325455 0 0)
(0.154425 0.0364358 0 0.0115906 0 0)
(0.155721 0.0527049 0 0.0264187 0 0)
(0.193547 0.110582 0 0.0859471 0 0)
(0.0486261 0.00195519 0 0.000183587 0 0)
(0.00423916 0.000402893 0 0.000932959 0 0)
(0.00501044 0.000676134 0 0.000885288 0 0)
(0.013461 0.0015985 0 0.000621224 0 0)
(0.0262707 0.00179042 0 0.00032693 0 0)
(0.0349295 0.00224816 0 0.000478523 0 0)
(0.0447934 0.00294276 0 0.000663088 0 0)
(0.0486432 0.00335956 0 0.000724301 0 0)
(0.0588872 0.00301748 0 0.000576878 0 0)
(0.0641423 0.00301539 0 0.000727311 0 0)
(0.0769377 0.00258757 0 0.000467097 0 0)
(0.0834475 0.00345973 0 0.000715379 0 0)
(0.0980506 0.00285697 0 0.000513009 0 0)
(0.104385 0.00501181 0 0.00083934 0 0)
(0.119424 0.00551367 0 0.000726383 0 0)
(0.124372 0.0106301 0 0.00189929 0 0)
(0.139457 0.015944 0 0.00299483 0 0)
(0.145011 0.0317988 0 0.0101826 0 0)
(0.16802 0.0535154 0 0.0239443 0 0)
(0.197374 0.1036 0 0.0733465 0 0)
(0.0466903 0.000904371 0 0.00013475 0 0)
(0.00342089 -2.24574e-05 0 0.000509393 0 0)
(0.00401561 1.99991e-05 0 0.000479693 0 0)
(0.0121133 0.000741002 0 0.000352048 0 0)
(0.0225836 0.000774206 0 0.000237925 0 0)
(0.0337753 0.00109104 0 0.000353501 0 0)
(0.0390563 0.00137068 0 0.000477269 0 0)
(0.0473065 0.00182159 0 0.000492875 0 0)
(0.0515537 0.00136716 0 0.000364092 0 0)
(0.0624512 0.00176066 0 0.000521178 0 0)
(0.0678615 0.00108962 0 0.000389291 0 0)
(0.0814673 0.00229885 0 0.000565857 0 0)
(0.0872549 0.00148097 0 0.000394731 0 0)
(0.10268 0.00373449 0 0.000638868 0 0)
(0.107037 0.00400163 0 0.00055093 0 0)
(0.12415 0.00904587 0 0.0015702 0 0)
(0.128401 0.0143369 0 0.00262663 0 0)
(0.15052 0.0289053 0 0.00881365 0 0)
(0.164515 0.0515126 0 0.0209723 0 0)
(0.213831 0.0961075 0 0.0595619 0 0)
(0.0463096 0.000325736 0 8.05851e-05 0 0)
(0.00199393 -4.45866e-05 0 0.000243597 0 0)
(0.00300304 -3.78545e-05 0 0.000252022 0 0)
(0.0101328 0.000214731 0 0.000153725 0 0)
(0.0210637 0.000283793 0 0.000133927 0 0)
(0.0304838 0.000276063 0 0.000240247 0 0)
(0.0378955 0.000403741 0 0.00031461 0 0)
(0.0430054 0.00051017 0 0.000273434 0 0)
(0.050016 0.000452734 0 0.000213216 0 0)
(0.0571327 0.000502234 0 0.000285519 0 0)
(0.0664295 0.000262957 0 0.000326355 0 0)
(0.0753197 0.000913762 0 0.000378293 0 0)
(0.0858393 0.000661144 0 0.000342679 0 0)
(0.0958016 0.00220124 0 0.000407534 0 0)
(0.106817 0.00276037 0 0.000497236 0 0)
(0.117885 0.00763055 0 0.00109512 0 0)
(0.13111 0.0122298 0 0.00245599 0 0)
(0.148716 0.0274998 0 0.00707106 0 0)
(0.174726 0.0468789 0 0.0182974 0 0)
(0.22251 0.0907436 0 0.0473502 0 0)
(0.045789 -0.000466379 0 9.67259e-05 0 0)
(0.0013661 -0.00026347 0 0.000266536 0 0)
(0.00235988 -0.000262417 0 0.000274327 0 0)
(0.00945444 -0.000442206 0 0.000204633 0 0)
(0.0203754 -0.000490526 0 0.000193666 0 0)
(0.0298813 -0.000584397 0 0.000272551 0 0)
(0.0370749 -0.000792803 0 0.000335356 0 0)
(0.042415 -0.000777895 0 0.000334442 0 0)
(0.0493417 -0.000905818 0 0.000303042 0 0)
(0.0567076 -0.000652191 0 0.000303799 0 0)
(0.0657553 -0.000928976 0 0.00037017 0 0)
(0.0749644 -0.000298209 0 0.000428104 0 0)
(0.0854227 -0.000437305 0 0.000324508 0 0)
(0.0958655 0.000789739 0 0.000381796 0 0)
(0.107083 0.0016494 0 0.000330437 0 0)
(0.119429 0.00546001 0 0.00102069 0 0)
(0.134597 0.0108782 0 0.00176974 0 0)
(0.155333 0.0236513 0 0.00618945 0 0)
(0.187149 0.0437407 0 0.0141729 0 0)
(0.236686 0.0815208 0 0.0382004 0 0)
(0.0453986 -0.0011303 0 0.000100117 0 0)
(0.00138991 -0.000410767 0 0.00044586 0 0)
(0.00245672 -0.000417961 0 0.000423674 0 0)
(0.0100992 -0.00106985 0 0.000313309 0 0)
(0.021 -0.00108496 0 0.000212002 0 0)
(0.0314091 -0.00152517 0 0.000330959 0 0)
(0.0376777 -0.00179231 0 0.000418994 0 0)
(0.0445803 -0.00222382 0 0.000460015 0 0)
(0.0501632 -0.0018682 0 0.000399063 0 0)
(0.0594591 -0.00199994 0 0.000388755 0 0)
(0.0669373 -0.00171811 0 0.000428543 0 0)
(0.0785446 -0.00165404 0 0.000446744 0 0)
(0.0870396 -0.00122095 0 0.000363153 0 0)
(0.100643 -0.000838338 0 0.000342314 0 0)
(0.109929 0.000520328 0 0.000399856 0 0)
(0.126735 0.003451 0 0.000694298 0 0)
(0.140616 0.00886123 0 0.00162143 0 0)
(0.168831 0.02023 0 0.00445552 0 0)
(0.200782 0.03868 0 0.0114787 0 0)
(0.260757 0.0734284 0 0.0280568 0 0)
(0.0458729 -0.00202055 0 0.000169875 0 0)
(0.00126834 -0.000573976 0 0.000877362 0 0)
(0.00261766 -0.00076295 0 0.000825768 0 0)
(0.0108543 -0.00175736 0 0.00059391 0 0)
(0.0232017 -0.00192838 0 0.000349225 0 0)
(0.0328289 -0.00245908 0 0.000473705 0 0)
(0.0412234 -0.00315984 0 0.000641565 0 0)
(0.0467588 -0.00355522 0 0.000731533 0 0)
(0.0550569 -0.00331434 0 0.000656319 0 0)
(0.0624297 -0.00316013 0 0.000574694 0 0)
(0.0731006 -0.00299498 0 0.000532492 0 0)
(0.0822747 -0.00287307 0 0.000571771 0 0)
(0.0947093 -0.00255341 0 0.000424245 0 0)
(0.105448 -0.00231239 0 0.000422299 0 0)
(0.120022 -0.00108755 0 0.00040704 0 0)
(0.133873 0.00137246 0 0.000690876 0 0)
(0.155332 0.0062893 0 0.00126741 0 0)
(0.181458 0.0160258 0 0.00342133 0 0)
(0.22506 0.0325692 0 0.00846773 0 0)
(0.282749 0.0629309 0 0.0208677 0 0)
(0.0461863 -0.00307381 0 0.000298545 0 0)
(0.00126749 -0.000945749 0 0.00158472 0 0)
(0.00312577 -0.00143585 0 0.00145133 0 0)
(0.0127051 -0.00272441 0 0.000983379 0 0)
(0.0265947 -0.00294468 0 0.000548322 0 0)
(0.0364906 -0.00385833 0 0.000739402 0 0)
(0.0458805 -0.00461927 0 0.000941323 0 0)
(0.0522059 -0.00543743 0 0.00115908 0 0)
(0.0615259 -0.00480754 0 0.000974622 0 0)
(0.06984 -0.0049919 0 0.000952037 0 0)
(0.0811495 -0.0042198 0 0.000673398 0 0)
(0.0915849 -0.00479683 0 0.000803025 0 0)
(0.10422 -0.00373976 0 0.000502195 0 0)
(0.116886 -0.00466492 0 0.00062989 0 0)
(0.131682 -0.00244318 0 0.000487018 0 0)
(0.148664 -0.00176564 0 0.000763564 0 0)
(0.170206 0.00388004 0 0.00103003 0 0)
(0.201415 0.0103258 0 0.00251034 0 0)
(0.245857 0.025727 0 0.00599233 0 0)
(0.31133 0.0495801 0 0.0145118 0 0)
(0.0482199 -0.0045971 0 0.000552103 0 0)
(0.00166231 -0.00123897 0 0.00246119 0 0)
(0.00491904 -0.00271199 0 0.00235585 0 0)
(0.0151037 -0.00367483 0 0.00137634 0 0)
(0.0335239 -0.00457694 0 0.000913074 0 0)
(0.0401643 -0.00539023 0 0.0011599 0 0)
(0.0558161 -0.00680242 0 0.00148317 0 0)
(0.0569427 -0.0071131 0 0.00174511 0 0)
(0.0738896 -0.0071072 0 0.00153182 0 0)
(0.0750833 -0.006482 0 0.00141414 0 0)
(0.0942712 -0.00614704 0 0.000973593 0 0)
(0.0956746 -0.00629793 0 0.00113308 0 0)
(0.116143 -0.0054944 0 0.000692445 0 0)
(0.117527 -0.00642403 0 0.000916083 0 0)
(0.139443 -0.00406836 0 0.000606139 0 0)
(0.143356 -0.00425406 0 0.000929066 0 0)
(0.170357 0.00143184 0 0.00087649 0 0)
(0.186042 0.00473811 0 0.00184924 0 0)
(0.231723 0.0183124 0 0.0039865 0 0)
(0.278981 0.0329203 0 0.00902209 0 0)
(0.0479232 -0.00632159 0 0.000980861 0 0)
(0.00254853 -0.00192394 0 0.00364513 0 0)
(0.00745539 -0.0042565 0 0.00338497 0 0)
(0.0189621 -0.00499008 0 0.00184975 0 0)
(0.0409595 -0.00670035 0 0.00147837 0 0)
(0.0445878 -0.00730292 0 0.00180767 0 0)
(0.0626042 -0.00905281 0 0.00216637 0 0)
(0.0561963 -0.00808447 0 0.0023088 0 0)
(0.0735166 -0.00847499 0 0.00204592 0 0)
(0.063056 -0.00639087 0 0.00173037 0 0)
(0.0800718 -0.00667239 0 0.00121479 0 0)
(0.066945 -0.00532183 0 0.00129073 0 0)
(0.0827324 -0.0052788 0 0.000797289 0 0)
(0.06781 -0.00451657 0 0.00105545 0 0)
(0.0825928 -0.0033407 0 0.000621883 0 0)
(0.0695128 -0.00254037 0 0.000992739 0 0)
(0.0857833 0.000933034 0 0.000688197 0 0)
(0.0819383 0.00293394 0 0.00142804 0 0)
(0.109501 0.011336 0 0.00257624 0 0)
(0.131311 0.017954 0 0.00527927 0 0)
(0.0454901 -0.00808546 0 0.00167131 0 0)
(0.00357053 -0.00361009 0 0.0056189 0 0)
(0.00914837 -0.00562251 0 0.00453963 0 0)
(0.0205325 -0.00616446 0 0.00252709 0 0)
(0.0342709 -0.00743987 0 0.002154 0 0)
(0.0302842 -0.00666206 0 0.00244421 0 0)
(0.03259 -0.00652449 0 0.00258414 0 0)
(0.0211866 -0.00367159 0 0.00238975 0 0)
(0.022079 -0.00316857 0 0.00191497 0 0)
(0.0148676 -0.000438316 0 0.0014278 0 0)
(0.0150318 -0.000784487 0 0.000959645 0 0)
(0.0157437 0.0013228 0 0.000916917 0 0)
(0.0137337 0.000536219 0 0.000568518 0 0)
(0.0227742 0.00256748 0 0.000708612 0 0)
(0.0194926 0.00118574 0 0.000394901 0 0)
(0.0348446 0.00350929 0 0.000648646 0 0)
(0.0321207 0.00156292 0 0.000454339 0 0)
(0.051121 0.00491793 0 0.000876976 0 0)
(0.0558551 0.00419885 0 0.0017037 0 0)
(0.079967 0.0102996 0 0.00262352 0 0)
(0.0474733 -0.0117252 0 0.00338529 0 0)
(0.00398038 -0.00529471 0 0.00853462 0 0)
(0.00391041 -0.00277696 0 0.00523034 0 0)
(0.00575148 -0.0012378 0 0.00272515 0 0)
(0.00408233 0.000330338 0 0.00203835 0 0)
(0.00818549 0.00324221 0 0.0018689 0 0)
(0.0183089 0.00468591 0 0.00161577 0 0)
(0.044931 0.00621682 0 0.00125045 0 0)
(0.0636378 0.00555803 0 0.000843975 0 0)
(0.103926 0.00595928 0 0.000553065 0 0)
(0.115483 0.00477515 0 0.000321829 0 0)
(0.165199 0.00541461 0 0.000298907 0 0)
(0.164023 0.00408099 0 0.000190189 0 0)
(0.222131 0.0051583 0 0.000234374 0 0)
(0.209522 0.0027423 0 0.000137892 0 0)
(0.268974 0.00457926 0 0.000243381 0 0)
(0.248725 -0.000343862 0 0.000206404 0 0)
(0.294102 0.00403624 0 0.000424966 0 0)
(0.277558 -0.00346572 0 0.000786903 0 0)
(0.290811 0.00804284 0 0.00162979 0 0)
(0.0480084 -0.0158701 0 0.00619648 0 0)
(0.00412565 0.00546744 0 0.00808028 0 0)
(0.0416962 0.0111013 0 0.00323462 0 0)
(0.0847047 0.00969641 0 0.00116155 0 0)
(0.134106 0.00855207 0 0.000586275 0 0)
(0.202204 0.00772515 0 0.000412177 0 0)
(0.261752 0.00620021 0 0.000301326 0 0)
(0.329798 0.00504944 0 0.000207719 0 0)
(0.370717 0.00372517 0 0.000125369 0 0)
(0.427883 0.00328819 0 8.39739e-05 0 0)
(0.447669 0.00252498 0 4.90446e-05 0 0)
(0.501158 0.00272511 0 5.39118e-05 0 0)
(0.504295 0.00199871 0 4.24526e-05 0 0)
(0.559435 0.00243058 0 4.84395e-05 0 0)
(0.548238 0.00104468 0 3.65352e-05 0 0)
(0.60066 0.00157445 0 5.41715e-05 0 0)
(0.57514 -0.00149111 0 6.63843e-05 0 0)
(0.605641 0.00077327 0 0.000120526 0 0)
(0.582609 -0.00560398 0 0.000261559 0 0)
(0.549649 0.00431497 0 0.000944116 0 0)
(0.00920595 -0.000598994 0 0.00104392 0 0)
(0.175515 0.00692246 0 0.000378015 0 0)
(0.343163 0.000652613 0 7.80158e-05 0 0)
(0.427202 -0.00105318 0 2.08861e-05 0 0)
(0.488591 -0.000873572 0 4.88153e-06 0 0)
(0.536424 -0.000672043 0 3.1465e-06 0 0)
(0.565878 -0.000495554 0 3.36931e-06 0 0)
(0.5915 -0.000272246 0 3.34459e-06 0 0)
(0.6053 -0.000206685 0 3.39898e-06 0 0)
(0.622868 -7.34708e-05 0 3.15261e-06 0 0)
(0.62887 -0.000111567 0 3.67624e-06 0 0)
(0.643457 3.62697e-06 0 3.53671e-06 0 0)
(0.644802 -0.000111983 0 3.10649e-06 0 0)
(0.658532 -7.97678e-06 0 2.45751e-06 0 0)
(0.654618 -0.000276325 0 2.5023e-06 0 0)
(0.664638 -0.000232676 0 2.40738e-06 0 0)
(0.650923 -0.000757054 0 3.87531e-06 0 0)
(0.648156 -0.000608084 0 6.6868e-06 0 0)
(0.629643 -0.00212138 0 1.76243e-05 0 0)
(0.574668 0.00300303 0 0.000207145 0 0)
(2.48761 -1.26929 0 0.780528 0 0)
(2.7782 -1.51636 0 1.11216 0 0)
(2.72519 -1.46883 0 1.33519 0 0)
(2.61896 -1.30494 0 1.49094 0 0)
(2.565 -1.09903 0 1.58808 0 0)
(2.62959 -0.941422 0 1.65971 0 0)
(2.80955 -0.865778 0 1.72109 0 0)
(3.09628 -0.879886 0 1.79908 0 0)
(3.36013 -0.95623 0 1.88745 0 0)
(3.61423 -1.0411 0 1.97001 0 0)
(3.69485 -1.11032 0 2.0602 0 0)
(3.77547 -1.1589 0 2.17293 0 0)
(3.74459 -1.16011 0 2.29425 0 0)
(3.77539 -1.15464 0 2.39062 0 0)
(3.81315 -1.13974 0 2.44049 0 0)
(3.91983 -1.15652 0 2.4582 0 0)
(4.03173 -1.20376 0 2.4713 0 0)
(4.1845 -1.30027 0 2.49592 0 0)
(4.28014 -1.42346 0 2.54954 0 0)
(4.41771 -1.59879 0 2.64007 0 0)
(4.44404 -1.73141 0 2.74849 0 0)
(4.48965 -1.8939 0 2.9009 0 0)
(4.54481 -2.00237 0 3.05465 0 0)
(4.57267 -2.10385 0 3.23648 0 0)
(4.71193 -2.18284 0 3.40929 0 0)
(4.79174 -2.23667 0 3.60369 0 0)
(4.97829 -2.28878 0 3.76809 0 0)
(5.12488 -2.35338 0 3.91226 0 0)
(5.33502 -2.434 0 4.03247 0 0)
(5.44775 -2.54133 0 4.16243 0 0)
(5.62192 -2.67325 0 4.29592 0 0)
(5.69891 -2.80101 0 4.42866 0 0)
(5.83477 -2.95234 0 4.56853 0 0)
(5.95445 -3.0892 0 4.68607 0 0)
(6.09924 -3.24623 0 4.81503 0 0)
(6.32284 -3.4039 0 4.90193 0 0)
(6.49849 -3.53819 0 4.96359 0 0)
(6.76433 -3.68165 0 4.98103 0 0)
(6.96992 -3.82226 0 5.02485 0 0)
(7.18372 -3.94478 0 5.05876 0 0)
(7.33889 -4.05211 0 5.11856 0 0)
(7.41328 -4.10446 0 5.17498 0 0)
(7.51855 -4.16797 0 5.24359 0 0)
(7.52417 -4.16846 0 5.31893 0 0)
(7.66354 -4.23017 0 5.38877 0 0)
(7.69439 -4.23168 0 5.47564 0 0)
(7.91441 -4.31905 0 5.55235 0 0)
(8.01718 -4.35283 0 5.65946 0 0)
(8.32204 -4.46894 0 5.76308 0 0)
(8.4915 -4.52702 0 5.89655 0 0)
(8.8255 -4.64023 0 6.01778 0 0)
(9.03165 -4.68248 0 6.15647 0 0)
(9.29712 -4.73503 0 6.2569 0 0)
(9.49792 -4.7223 0 6.36155 0 0)
(9.61665 -4.66809 0 6.39376 0 0)
(9.78843 -4.59604 0 6.44992 0 0)
(9.76964 -4.44747 0 6.40322 0 0)
(9.90412 -4.32688 0 6.42087 0 0)
(9.84726 -4.16411 0 6.33797 0 0)
(9.9733 -4.01011 0 6.34012 0 0)
(9.93862 -3.8943 0 6.29386 0 0)
(10.1291 -3.75237 0 6.33449 0 0)
(10.0912 -3.65667 0 6.38102 0 0)
(10.3327 -3.58426 0 6.49753 0 0)
(10.2365 -3.43173 0 6.5838 0 0)
(10.4407 -3.45431 0 6.779 0 0)
(10.302 -3.28381 0 6.90669 0 0)
(10.3462 -3.26959 0 7.14611 0 0)
(10.1175 -3.11478 0 7.32428 0 0)
(10.1007 -2.98641 0 7.60924 0 0)
(9.84161 -2.836 0 7.90933 0 0)
(9.8398 -2.62751 0 8.1796 0 0)
(9.57631 -2.39517 0 8.45929 0 0)
(9.65358 -2.23638 0 8.66722 0 0)
(9.38906 -1.95858 0 9.00502 0 0)
(9.46556 -1.83067 0 9.288 0 0)
(9.22842 -1.53287 0 9.68883 0 0)
(9.29479 -1.38805 0 9.95157 0 0)
(9.1025 -1.09674 0 10.2421 0 0)
(9.05637 -0.842497 0 10.414 0 0)
(8.80493 -0.467759 0 10.6276 0 0)
(8.61065 -0.0942863 0 10.6658 0 0)
(8.42342 0.28773 0 10.8504 0 0)
(8.19124 0.664206 0 10.9699 0 0)
(8.10087 1.01042 0 11.0768 0 0)
(7.87715 1.38827 0 11.1298 0 0)
(7.84037 1.6998 0 11.166 0 0)
(7.59593 2.01204 0 11.227 0 0)
(7.60332 2.3268 0 11.2112 0 0)
(7.35608 2.6471 0 11.2404 0 0)
(7.33638 2.94791 0 11.217 0 0)
(7.06894 3.22596 0 11.1324 0 0)
(7.08414 3.55125 0 10.8934 0 0)
(6.90234 3.8302 0 10.5837 0 0)
(7.01517 4.13645 0 10.187 0 0)
(6.94035 4.36333 0 9.82257 0 0)
(7.21841 4.56197 0 9.51505 0 0)
(7.29679 4.77645 0 9.3315 0 0)
(7.46052 4.88891 0 9.30386 0 0)
(7.28977 5.09481 0 9.47695 0 0)
(7.2086 5.23571 0 9.83503 0 0)
(6.78578 5.23064 0 10.2032 0 0)
(6.52092 5.27861 0 11.0331 0 0)
(6.0965 5.14834 0 11.5595 0 0)
(5.85637 4.9504 0 11.8314 0 0)
(5.47822 4.72094 0 12.03 0 0)
(5.33168 4.55116 0 12.1565 0 0)
(4.95544 4.31761 0 12.2066 0 0)
(4.87402 4.16152 0 12.0947 0 0)
(4.4802 4.004 0 12.0718 0 0)
(4.4071 3.80408 0 11.7467 0 0)
(3.94141 3.55631 0 11.6967 0 0)
(3.83102 3.29707 0 11.4357 0 0)
(3.35322 2.95374 0 11.6558 0 0)
(3.24916 2.7637 0 11.7189 0 0)
(2.86281 2.40446 0 11.9954 0 0)
(2.87168 2.35856 0 12.0984 0 0)
(2.58264 1.94121 0 12.3595 0 0)
(2.67686 1.91531 0 12.4667 0 0)
(2.41767 1.62149 0 12.6557 0 0)
(2.61204 1.51104 0 12.7938 0 0)
(2.32726 1.35163 0 12.8588 0 0)
(2.62774 1.28317 0 13.0576 0 0)
(2.29283 1.13227 0 13.1294 0 0)
(2.65621 1.19075 0 13.427 0 0)
(2.27469 1.0783 0 13.4323 0 0)
(2.70264 1.24886 0 13.6674 0 0)
(2.23395 1.08423 0 13.5781 0 0)
(2.77721 1.37947 0 13.6884 0 0)
(2.19189 1.03351 0 13.5009 0 0)
(2.8495 1.40426 0 13.6549 0 0)
(2.17279 0.997916 0 13.4965 0 0)
(2.79645 1.2981 0 13.6101 0 0)
(2.05848 0.872748 0 13.4894 0 0)
(2.63805 0.950976 0 13.2873 0 0)
(1.84447 0.552541 0 13.2137 0 0)
(2.53462 0.620669 0 12.9101 0 0)
(1.6774 0.323217 0 13.0002 0 0)
(2.5077 0.47995 0 12.8024 0 0)
(1.58485 0.160634 0 12.8005 0 0)
(2.49095 0.332485 0 12.691 0 0)
(1.57199 -0.00225065 0 12.584 0 0)
(2.49701 0.152257 0 12.5484 0 0)
(1.63516 -0.159359 0 12.2559 0 0)
(2.51117 -0.100289 0 12.1366 0 0)
(1.76587 -0.274474 0 11.6775 0 0)
(2.53978 -0.224563 0 11.4791 0 0)
(1.90123 -0.283133 0 11.0786 0 0)
(2.58026 -0.249006 0 10.9435 0 0)
(2.00184 -0.359275 0 10.498 0 0)
(2.57858 -0.320843 0 10.3769 0 0)
(2.11397 -0.484831 0 10.0067 0 0)
(2.54524 -0.44948 0 9.88309 0 0)
(2.21781 -0.593875 0 9.59974 0 0)
(2.53695 -0.653417 0 9.5163 0 0)
(2.30454 -0.813531 0 9.16393 0 0)
(2.59044 -0.877795 0 9.11425 0 0)
(2.3884 -1.05469 0 8.7986 0 0)
(2.65441 -1.14111 0 8.73416 0 0)
(2.4545 -1.28072 0 8.61008 0 0)
(2.71619 -1.26815 0 8.64284 0 0)
(2.61448 -1.53292 0 8.4956 0 0)
(2.79421 -1.46784 0 8.43445 0 0)
(2.80708 -1.68552 0 8.39308 0 0)
(2.97654 -1.78188 0 8.19584 0 0)
(2.96555 -1.76598 0 8.16906 0 0)
(3.20227 -2.08129 0 7.98153 0 0)
(3.1645 -1.88872 0 7.99607 0 0)
(3.34625 -2.18749 0 7.78903 0 0)
(3.2729 -2.09404 0 7.66269 0 0)
(3.48738 -2.21725 0 7.59475 0 0)
(3.2633 -2.26925 0 7.38227 0 0)
(3.52309 -2.17227 0 7.2244 0 0)
(3.16297 -2.17864 0 7.06748 0 0)
(3.34813 -1.98009 0 6.62914 0 0)
(3.02379 -1.77741 0 6.35088 0 0)
(3.08367 -1.60319 0 5.93252 0 0)
(2.89571 -1.30249 0 5.51365 0 0)
(2.83607 -1.1607 0 5.19957 0 0)
(2.77985 -0.845873 0 4.7648 0 0)
(2.59898 -0.802955 0 4.64948 0 0)
(2.55293 -0.390802 0 4.17182 0 0)
(2.41508 -0.598314 0 4.2914 0 0)
(2.18627 -0.0243239 0 3.7449 0 0)
(2.1482 -0.491995 0 4.10373 0 0)
(1.8415 0.189286 0 3.49053 0 0)
(1.81323 -0.401173 0 4.02925 0 0)
(1.52514 0.303572 0 3.38983 0 0)
(1.61769 -0.25904 0 4.1075 0 0)
(1.20755 0.393632 0 3.26875 0 0)
(1.44372 -0.243253 0 4.15528 0 0)
(1.03879 0.473337 0 3.13633 0 0)
(1.07249 -0.478922 0 4.04804 0 0)
(0.841441 0.524047 0 3.19369 0 0)
(0.701484 -0.54223 0 4.33821 0 0)
(0.716504 0.629538 0 3.31863 0 0)
(0.662302 -0.519621 0 4.66148 0 0)
(0.560906 0.979967 0 4.42953 0 0)
(0.427623 -0.338963 0 6.07099 0 0)
(0.256421 -0.368753 0 6.10594 0 0)
(2.03042 -1.03464 0 0.894269 0 0)
(2.02808 -1.08434 0 1.16299 0 0)
(1.92239 -0.993178 0 1.23284 0 0)
(1.83434 -0.880122 0 1.26839 0 0)
(1.79236 -0.778548 0 1.26868 0 0)
(1.81554 -0.741724 0 1.26163 0 0)
(1.90131 -0.77767 0 1.28532 0 0)
(2.03457 -0.852741 0 1.34369 0 0)
(2.177 -0.928706 0 1.40879 0 0)
(2.29507 -0.988129 0 1.46711 0 0)
(2.36552 -1.03508 0 1.53261 0 0)
(2.41192 -1.07037 0 1.6158 0 0)
(2.42394 -1.09611 0 1.70561 0 0)
(2.4652 -1.10994 0 1.78767 0 0)
(2.49487 -1.1232 0 1.85582 0 0)
(2.61198 -1.14796 0 1.90994 0 0)
(2.71906 -1.20336 0 1.96803 0 0)
(2.95191 -1.30251 0 2.03199 0 0)
(3.12959 -1.40622 0 2.10399 0 0)
(3.41239 -1.54821 0 2.19152 0 0)
(3.60113 -1.66604 0 2.29229 0 0)
(3.84335 -1.81046 0 2.41526 0 0)
(4.01081 -1.91949 0 2.54611 0 0)
(4.21518 -2.04229 0 2.69179 0 0)
(4.36556 -2.12853 0 2.84657 0 0)
(4.5935 -2.2345 0 3.01988 0 0)
(4.78243 -2.30261 0 3.19673 0 0)
(5.06774 -2.40665 0 3.36433 0 0)
(5.35311 -2.50361 0 3.5187 0 0)
(5.65914 -2.63672 0 3.66571 0 0)
(5.99932 -2.78718 0 3.80469 0 0)
(6.2613 -2.94126 0 3.93976 0 0)
(6.57582 -3.1128 0 4.07415 0 0)
(6.75899 -3.25506 0 4.20327 0 0)
(7.01319 -3.41646 0 4.32424 0 0)
(7.13071 -3.53612 0 4.43867 0 0)
(7.29751 -3.6555 0 4.52991 0 0)
(7.37757 -3.73617 0 4.5981 0 0)
(7.47928 -3.81901 0 4.65382 0 0)
(7.57728 -3.89632 0 4.71195 0 0)
(7.63314 -3.94452 0 4.75344 0 0)
(7.7437 -4.01206 0 4.81816 0 0)
(7.80354 -4.0467 0 4.86414 0 0)
(7.95678 -4.12386 0 4.9559 0 0)
(8.08633 -4.18641 0 5.02747 0 0)
(8.28948 -4.29234 0 5.16163 0 0)
(8.50593 -4.39317 0 5.27248 0 0)
(8.72557 -4.51398 0 5.44168 0 0)
(8.99038 -4.6143 0 5.58119 0 0)
(9.15087 -4.69792 0 5.75941 0 0)
(9.40359 -4.74461 0 5.89076 0 0)
(9.4514 -4.74052 0 6.03041 0 0)
(9.63665 -4.6957 0 6.11648 0 0)
(9.57662 -4.59787 0 6.18763 0 0)
(9.66967 -4.4545 0 6.22089 0 0)
(9.57762 -4.31445 0 6.24353 0 0)
(9.61328 -4.10261 0 6.24662 0 0)
(9.56788 -3.98203 0 6.2791 0 0)
(9.59999 -3.75432 0 6.30662 0 0)
(9.6163 -3.69127 0 6.403 0 0)
(9.68629 -3.50166 0 6.46065 0 0)
(9.75718 -3.46794 0 6.57987 0 0)
(9.85244 -3.34041 0 6.62738 0 0)
(9.97552 -3.27548 0 6.73676 0 0)
(10.0208 -3.18153 0 6.82241 0 0)
(10.1138 -3.07916 0 6.94904 0 0)
(10.0403 -2.98602 0 7.13722 0 0)
(10.0304 -2.90992 0 7.35626 0 0)
(9.8486 -2.76203 0 7.57078 0 0)
(9.75569 -2.67924 0 7.8352 0 0)
(9.552 -2.53277 0 8.12644 0 0)
(9.49056 -2.38925 0 8.52283 0 0)
(9.24574 -2.21472 0 8.81934 0 0)
(9.29825 -2.04524 0 9.14769 0 0)
(9.03644 -1.85125 0 9.4678 0 0)
(9.12957 -1.73587 0 9.79235 0 0)
(8.82455 -1.46561 0 10.1783 0 0)
(8.86839 -1.30711 0 10.4116 0 0)
(8.49662 -0.90238 0 10.6307 0 0)
(8.38502 -0.611221 0 10.7397 0 0)
(7.98514 -0.143079 0 10.8574 0 0)
(7.86431 0.140244 0 10.9307 0 0)
(7.58183 0.589519 0 11.1767 0 0)
(7.49518 0.864561 0 11.2481 0 0)
(7.30384 1.278 0 11.3712 0 0)
(7.23785 1.60923 0 11.4726 0 0)
(7.05597 1.91444 0 11.5435 0 0)
(7.03494 2.277 0 11.5631 0 0)
(6.89834 2.58864 0 11.5247 0 0)
(6.82752 2.94677 0 11.5572 0 0)
(6.70689 3.24307 0 11.4868 0 0)
(6.66327 3.533 0 11.2473 0 0)
(6.57377 3.86665 0 10.9894 0 0)
(6.68349 4.12652 0 10.6346 0 0)
(6.63261 4.3431 0 10.262 0 0)
(6.94406 4.4958 0 9.87798 0 0)
(7.06097 4.63088 0 9.64069 0 0)
(7.45571 4.82175 0 9.49827 0 0)
(7.38312 4.89236 0 9.54935 0 0)
(7.48704 5.15156 0 9.76992 0 0)
(7.24131 5.24746 0 10.1791 0 0)
(7.03653 5.3065 0 10.6798 0 0)
(6.68598 5.39509 0 11.5436 0 0)
(6.45796 5.30345 0 11.9586 0 0)
(6.09262 5.16878 0 12.2054 0 0)
(5.93111 4.97485 0 12.3571 0 0)
(5.58731 4.85057 0 12.3931 0 0)
(5.49207 4.61856 0 12.3277 0 0)
(5.10239 4.47218 0 12.1618 0 0)
(5.15201 4.34267 0 12.0416 0 0)
(4.67691 4.09818 0 11.7313 0 0)
(4.85265 3.99721 0 11.7332 0 0)
(4.20897 3.6376 0 11.5697 0 0)
(4.36104 3.43284 0 11.8614 0 0)
(3.52727 2.96008 0 11.8547 0 0)
(3.77849 2.69499 0 12.0092 0 0)
(2.97873 2.31273 0 12.1322 0 0)
(3.40727 2.07185 0 12.2887 0 0)
(2.65681 1.86574 0 12.424 0 0)
(3.18852 1.65102 0 12.5435 0 0)
(2.47929 1.42359 0 12.6536 0 0)
(3.04093 1.35427 0 12.7378 0 0)
(2.3888 1.11289 0 12.9351 0 0)
(2.95985 1.0959 0 13.0218 0 0)
(2.31431 1.01932 0 13.1999 0 0)
(2.90186 0.973879 0 13.1697 0 0)
(2.26963 1.10209 0 13.3686 0 0)
(2.85822 1.0062 0 13.2053 0 0)
(2.25311 1.26012 0 13.4143 0 0)
(2.84373 1.05907 0 13.221 0 0)
(2.18971 1.22566 0 13.3939 0 0)
(2.86819 1.11864 0 13.291 0 0)
(2.0728 1.17791 0 13.4361 0 0)
(2.81943 1.09209 0 13.505 0 0)
(1.8963 1.0138 0 13.3863 0 0)
(2.57835 0.789589 0 13.3003 0 0)
(1.70955 0.744367 0 13.0034 0 0)
(2.36096 0.50066 0 12.9418 0 0)
(1.61554 0.544261 0 12.8424 0 0)
(2.28662 0.341981 0 12.7795 0 0)
(1.56464 0.303536 0 12.7794 0 0)
(2.30851 0.196272 0 12.6355 0 0)
(1.56275 0.0620181 0 12.6656 0 0)
(2.41291 0.067192 0 12.4253 0 0)
(1.57475 -0.159031 0 12.3059 0 0)
(2.52717 -0.0618575 0 11.8599 0 0)
(1.61337 -0.292962 0 11.6907 0 0)
(2.66925 -0.131286 0 11.2541 0 0)
(1.66669 -0.37487 0 11.1418 0 0)
(2.85377 -0.211471 0 10.7401 0 0)
(1.70111 -0.518965 0 10.569 0 0)
(3.01246 -0.364096 0 10.1536 0 0)
(1.73749 -0.664775 0 10.1329 0 0)
(3.11269 -0.567614 0 9.71367 0 0)
(1.79654 -0.80603 0 9.78657 0 0)
(3.18481 -0.843485 0 9.3949 0 0)
(1.8776 -1.08274 0 9.35729 0 0)
(3.27265 -1.10834 0 9.1415 0 0)
(2.00974 -1.34111 0 9.01879 0 0)
(3.34706 -1.42519 0 8.82583 0 0)
(2.11014 -1.58123 0 8.69086 0 0)
(3.41561 -1.60844 0 8.6265 0 0)
(2.2536 -1.77811 0 8.4795 0 0)
(3.50788 -1.84146 0 8.31037 0 0)
(2.41861 -1.85622 0 8.21826 0 0)
(3.54199 -2.00965 0 8.0668 0 0)
(2.66449 -1.95719 0 7.92635 0 0)
(3.46609 -2.11492 0 7.94589 0 0)
(2.95994 -1.98044 0 7.59731 0 0)
(3.34076 -2.24565 0 7.82392 0 0)
(3.24195 -2.03506 0 7.31032 0 0)
(3.12316 -2.23513 0 7.47084 0 0)
(3.38167 -2.06109 0 6.90878 0 0)
(2.88559 -2.05154 0 6.8943 0 0)
(3.3563 -1.85712 0 6.39985 0 0)
(2.66798 -1.74 0 6.06783 0 0)
(3.32794 -1.5588 0 5.68043 0 0)
(2.45065 -1.32465 0 5.29289 0 0)
(3.27903 -1.2819 0 5.00658 0 0)
(2.26894 -0.920062 0 4.59326 0 0)
(3.20821 -1.0525 0 4.63311 0 0)
(2.02304 -0.534443 0 3.9924 0 0)
(3.07672 -0.905711 0 4.47191 0 0)
(1.81216 -0.155838 0 3.5666 0 0)
(2.7805 -0.848917 0 4.41382 0 0)
(1.64679 0.174648 0 3.27693 0 0)
(2.2931 -0.7883 0 4.45132 0 0)
(1.49127 0.337371 0 3.03015 0 0)
(1.671 -0.684824 0 4.54145 0 0)
(1.44537 0.45455 0 2.97138 0 0)
(1.17294 -0.620681 0 4.54636 0 0)
(1.31136 0.522943 0 2.94789 0 0)
(1.06375 -0.58639 0 4.65703 0 0)
(1.00399 0.396549 0 2.79654 0 0)
(1.27093 -0.624627 0 4.9371 0 0)
(0.620632 0.543536 0 3.28812 0 0)
(1.25796 -0.910697 0 5.29469 0 0)
(0.583319 0.698051 0 3.91807 0 0)
(0.741621 0.60244 0 7.18104 0 0)