/*--------------------------------*- C++ -*----------------------------------*\
| =========                 |                                                 |
| \\      /  F ield         | OpenFOAM: The Open Source CFD Toolbox           |
|  \\    /   O peration     | Version:  2.4.0                                 |
|   \\  /    A nd           | Web:      www.OpenFOAM.org                      |
|    \\/     M anipulation  |                                                 |
\*---------------------------------------------------------------------------*/
FoamFile
{
    version     2.0;
    format      ascii;
    class       surfaceScalarField;
    location    "1.62";
    object      phi;
}
// * * * * * * * * * * * * * * * * * * * * * * * * * * * * * * * * * * * * * //

dimensions      [0 3 -1 0 0 0 0];

internalField   nonuniform List<scalar> 
8640
(
0.0488277
0.0011723
0.0488929
-6.52387e-05
0.0475925
0.00130045
0.0482909
-0.00069843
0.0489765
-0.000685535
0.0465111
0.00246537
0.0491375
-0.00262643
0.0449525
0.004185
0.0453901
-0.000437546
0.0446845
0.000705563
0.0424923
0.00219223
0.0442765
-0.00178428
0.0443414
-6.4854e-05
0.0435342
0.000807207
0.0437741
-0.000239881
0.045394
-0.0016199
0.0382998
0.00709412
0.043454
-0.00515414
0.0393574
0.00409656
0.00443488
0.0349226
0.048988
0.00218433
0.0486937
0.000229036
0.0507917
-0.00079755
0.0491409
0.000952332
0.0514924
-0.00303696
0.048435
0.0055227
0.0500392
-0.00423064
0.0490453
0.00517898
0.0479546
0.000653118
0.0521338
-0.00347364
0.0491509
0.00517515
0.0492612
-0.00189463
0.0504189
-0.00122251
0.0474197
0.00380637
0.0453301
0.0018497
0.0538034
-0.0100931
0.0490447
0.0118528
0.0477099
-0.00381939
0.0546839
-0.00287742
0.0110676
0.0480512
0.0497258
0.00245855
0.0475734
0.00238138
0.0515285
-0.00475263
0.047832
0.00464883
0.0489827
-0.00418768
0.0496496
0.00485588
0.050446
-0.0050271
0.0513808
0.00424423
0.0492211
0.00281274
0.0520074
-0.00625994
0.0491644
0.00801825
0.0490429
-0.0017732
0.0516383
-0.00381789
0.0513295
0.00411519
0.0458961
0.00728307
0.0540138
-0.0182108
0.0508787
0.0149879
0.0449706
0.00208868
0.0560679
-0.0139747
0.0153097
0.0518258
0.0506314
0.00182711
0.0462433
0.00676955
0.050483
-0.0089924
0.0500731
0.0050588
0.0493429
-0.00345753
0.0510735
0.00312529
0.0516006
-0.00555419
0.0517278
0.00411699
0.0502838
0.00425677
0.0526275
-0.0086036
0.0504121
0.0102336
0.0491916
-0.000552644
0.0516228
-0.00624911
0.0536437
0.00209427
0.048377
0.0125498
0.0533017
-0.0231356
0.053103
0.0151867
0.0465536
0.00863805
0.0558809
-0.023302
0.0193778
0.0518127
0.0506264
0.00120076
0.0477197
0.00967617
0.0501254
-0.011398
0.0512746
0.00390954
0.0493344
-0.0015173
0.0517261
0.000733618
0.052416
-0.00624408
0.05087
0.00566298
0.0503897
0.00473701
0.0529256
-0.0111395
0.0504656
0.0126936
0.0497083
0.000204705
0.0522889
-0.00882975
0.0537232
0.000660019
0.0502508
0.0160222
0.0524475
-0.0253322
0.0544659
0.0131682
0.0498311
0.0132728
0.0546966
-0.0281675
0.0205026
0.0535719
0.0507235
0.000477282
0.0499807
0.010419
0.0494081
-0.0108255
0.0509359
0.00238173
0.0491515
0.000267066
0.0506406
-0.000755425
0.0519023
-0.00750575
0.0501353
0.00742994
0.0506162
0.00425613
0.0524103
-0.0129336
0.0493173
0.0157865
0.0502256
-0.000703551
0.0523876
-0.0109918
0.0512096
0.00183804
0.0513343
0.0158975
0.0525023
-0.0265002
0.0538476
0.0118229
0.0514135
0.0157069
0.0523243
-0.0290783
0.0190897
0.0537372
0.0506623
-0.000185032
0.051149
0.00993225
0.0491284
-0.00880484
0.0508809
0.000629237
0.0497904
0.0013576
0.0501729
-0.00113799
0.0515175
-0.00885029
0.0498093
0.0091381
0.050313
0.00375243
0.0517079
-0.0143285
0.0489706
0.0185238
0.0510357
-0.00276861
0.0523688
-0.0123249
0.049837
0.00436979
0.0515996
0.0141349
0.0515577
-0.0264583
0.0521515
0.011229
0.0509708
0.0168876
0.0492108
-0.0273183
0.0153912
0.0529092
0.0501633
-0.000348308
0.0517276
0.00836797
0.0496994
-0.0067767
0.0505847
-0.000256038
0.0505922
0.00135009
0.0499769
-0.000522705
0.0502882
-0.00916156
0.0504288
0.00899753
0.0504596
0.00372163
0.0509255
-0.0147945
0.0499433
0.0195061
0.0516062
-0.00443158
0.051057
-0.0117756
0.0492894
0.00613743
0.0517902
0.0116341
0.0500355
-0.0247036
0.0507829
0.0104816
0.0505124
0.0171581
0.0481701
-0.0249759
0.0115175
0.0520439
0.0500029
-0.000351234
0.0513721
0.0069988
0.0499543
-0.00535895
0.0502371
-0.00053884
0.0508324
0.000754867
0.0503312
-2.15545e-05
0.0495171
-0.00834739
0.0510385
0.00747605
0.0505771
0.00418307
0.0500858
-0.0143032
0.0509917
0.0186002
0.0515397
-0.00497965
0.0498743
-0.0101102
0.0496866
0.00632515
0.0519336
0.00938709
0.0490207
-0.0217907
0.050453
0.0090493
0.0509202
0.016691
0.0489455
-0.0230012
0.00873882
0.0517241
0.0498091
-0.000160335
0.0509798
0.00582808
0.0504119
-0.00479099
0.0501354
-0.00026236
0.0508105
7.97953e-05
0.0505465
0.000242429
0.0489072
-0.00670809
0.0510603
0.00532294
0.0504444
0.00479891
0.0493625
-0.0132213
0.0514581
0.0165047
0.0512164
-0.00473792
0.0492904
-0.00818421
0.0500065
0.00560904
0.0521245
0.00726906
0.048555
-0.0182212
0.0502688
0.00733541
0.0514318
0.015528
0.049803
-0.0213725
0.00740296
0.0511389
0.0499276
-8.79444e-05
0.0509242
0.0048315
0.0504348
-0.00430161
0.0499284
0.000244033
0.0505491
-0.000540879
0.0504064
0.000385135
0.0489225
-0.00522421
0.0510092
0.0032362
0.0504822
0.00532594
0.0493718
-0.0121109
0.051586
0.0142905
0.0510912
-0.00424311
0.0493637
-0.00645671
0.0505559
0.00441682
0.0523042
0.0055208
0.048635
-0.0145519
0.0505585
0.00541183
0.0517941
0.0142925
0.0502864
-0.0198648
0.00769003
0.0499994
0.0497825
0.000129521
0.0505471
0.00406691
0.0505129
-0.00426743
0.0499971
0.000759853
0.0506303
-0.00117405
0.05062
0.000395398
0.0492048
-0.003809
0.0510035
0.00143751
0.0506616
0.00566785
0.049566
-0.0110153
0.0517108
0.0121457
0.0511955
-0.00372779
0.0496826
-0.00494386
0.0511097
0.00298976
0.0522432
0.00438728
0.048785
-0.0110937
0.0512272
0.00296959
0.0519665
0.0135532
0.0504142
-0.0183125
0.00800667
0.0500976
0.0496961
0.000433412
0.0508108
0.0029522
0.0504685
-0.00392512
0.0500139
0.00121446
0.0504568
-0.0016169
0.0503864
0.000465765
0.0493041
-0.00272666
0.0507854
-4.38299e-05
0.0507446
0.00570867
0.0496623
-0.00993308
0.051334
0.010474
0.0509957
-0.00338947
0.0494452
-0.00339336
0.0508142
0.00162077
0.0521013
0.00310017
0.0484792
-0.00747167
0.0513207
0.000128144
0.0528596
0.0120143
0.0497044
-0.0151574
0.00684834
0.0508628
0.0498939
0.00053949
0.0507103
0.00213578
0.0502156
-0.00343043
0.0501239
0.00130618
0.0503936
-0.00188654
0.0504485
0.000410849
0.0496406
-0.00191877
0.0506642
-0.00106744
0.050692
0.00568083
0.0497601
-0.00900115
0.0507753
0.00945881
0.0509466
-0.00356075
0.0496994
-0.00214612
0.0502099
0.0011102
0.0519751
0.00133504
0.0491295
-0.00462611
0.0503646
-0.00110693
0.0530688
0.00931009
0.0498214
-0.01191
0.00619789
0.0504719
0.0496445
0.000894952
0.0508291
0.000951255
0.0503293
-0.00293068
0.0501963
0.00143916
0.0505085
-0.00219867
0.0503069
0.000612422
0.0496569
-0.00126877
0.0506636
-0.00207413
0.0504022
0.00594217
0.0499587
-0.00855761
0.0508937
0.00852379
0.0505352
-0.00320219
0.0500706
-0.00168155
0.0504799
0.000700907
0.0509596
0.000855278
0.049844
-0.00351051
0.0503931
-0.00165598
0.0517294
0.00797377
0.0495895
-0.00977011
0.00542286
0.0503645
0.0498695
0.00102541
0.0510013
-0.000180526
0.0499796
-0.00190899
0.0502343
0.0011845
0.0502474
-0.00221177
0.0501747
0.000685089
0.0496882
-0.000782226
0.0506006
-0.00298654
0.05055
0.00599274
0.0498068
-0.0078144
0.0513506
0.00698003
0.0508768
-0.00272842
0.0500982
-0.000903003
0.0510385
-0.000239311
0.0513112
0.00058252
0.0499773
-0.00217662
0.0508525
-0.00253119
0.0518722
0.00695408
0.0494463
-0.0073442
0.0046808
0.0501884
0.0500227
0.00100273
0.0507434
-0.00090126
0.050082
-0.00124756
0.0503516
0.000914915
0.0500829
-0.0019431
0.0504399
0.000328089
0.0498583
-0.000200633
0.050329
-0.00345724
0.0512113
0.00511042
0.0499863
-0.00658936
0.0516295
0.00533678
0.0514616
-0.00256049
0.050831
-0.000272445
0.0511816
-0.000589871
0.0520977
-0.00033356
0.0506706
-0.000749488
0.0508682
-0.00272884
0.0524775
0.00534473
0.0500939
-0.00496054
0.00501065
0.049764
0.0503817
0.000621012
0.0506216
-0.00114114
0.0500709
-0.000696825
0.050366
0.000619736
0.0501418
-0.00171883
0.0502927
0.000177143
0.0503249
-0.000232862
0.050101
-0.00323332
0.0514
0.00381144
0.0497552
-0.00494453
0.0517618
0.00333014
0.0509977
-0.00179636
0.0509455
-0.00022029
0.0513226
-0.000966974
0.0518537
-0.000864587
0.0506261
0.000478119
0.0506096
-0.00271237
0.0525243
0.00342999
0.0500541
-0.00249029
0.00468767
0.0503771
0.0506811
-6.01175e-05
0.0501877
-0.000647707
0.0501218
-0.00063097
0.05046
0.000281624
0.0500792
-0.00133806
0.0504103
-0.000153933
0.0504423
-0.000264941
0.0493764
-0.00216738
0.0513202
0.00186765
0.0487179
-0.00234229
0.0510732
0.000974905
0.0499949
-0.00071811
0.050054
-0.000279325
0.050411
-0.00132403
0.0502096
-0.000663124
0.049839
0.000848674
0.0494272
-0.00230056
0.0516223
0.00123489
0.0490665
6.54539e-05
0.00179525
0.051959
0.0499399
0.0492922
0.0486612
0.0489428
0.0476048
0.0474508
0.0471859
0.0450185
0.0468862
0.0445439
0.0455188
0.0448007
0.0445214
0.0431973
0.0425342
0.0433829
0.0410823
0.0423172
0.0423827
0.0441779
0.0413048
-0.0049774
-0.00140486
0.0412673
-0.00490752
0.00494501
0.0372301
0.0623276
-0.0582904
0.0412912
0.0375398
-0.0416009
0.043057
0.021354
-0.0231198
0.0393258
0.0206287
-0.0168975
0.043838
-0.0260359
0.0215238
0.045847
-0.097527
0.095518
0.0485287
-0.109678
0.106996
0.049724
-0.0881864
0.086991
0.0512621
-0.0934696
0.0919315
0.0489942
-0.0725948
0.0748627
0.0435622
-0.0425535
0.0479855
0.0390696
-0.0247451
0.0292377
0.0355044
-0.0169291
0.0204943
0.0326239
-0.0127998
0.0156802
0.0310689
-0.00908021
0.0106352
0.0298113
-0.00502871
0.00628637
0.0281753
-0.0037447
0.00538065
0.0271436
-0.00411048
0.00514222
0.0269539
-0.00320417
0.00339382
0.0268778
-0.00105042
0.00112658
0.0266408
0.00106323
-0.000826267
0.0265131
0.0025392
-0.00241151
0.0266257
0.00308011
-0.00319269
0.0268314
0.00246572
-0.0026714
0.02693
0.000980555
-0.00107923
0.0268399
-0.000744876
0.000835057
0.0266231
-0.00220209
0.0024189
0.0263702
-0.00312548
0.00337835
0.0261436
-0.00345619
0.00368274
0.0259678
-0.00327918
0.00345499
0.0258429
-0.00277211
0.00289707
0.0257588
-0.00213749
0.00222153
0.0257044
-0.00153278
0.0015872
0.0256703
-0.0010398
0.00107391
0.0256496
-0.00067683
0.000697531
0.0256375
-0.000427518
0.00043965
0.0256306
-0.000264279
0.000271135
0.0256269
-0.000160856
0.000164592
0.0256249
-9.6801e-05
9.87672e-05
0.0256239
-5.77527e-05
5.87568e-05
0.0256234
-3.42136e-05
3.47152e-05
0.0256231
-2.0154e-05
2.04002e-05
0.025623
-1.18084e-05
1.19272e-05
0.025623
-6.88639e-06
6.94407e-06
0.0256229
-3.99949e-06
4.02838e-06
0.0256229
-2.31036e-06
2.32502e-06
0.0256229
-1.33357e-06
1.34058e-06
0.0256229
-7.647e-07
7.67743e-07
0.0256229
-4.36312e-07
4.38365e-07
0.0256229
-2.50328e-07
2.52054e-07
0.0256229
-1.38874e-07
1.39478e-07
0.0256229
-8.07972e-08
8.11465e-08
0.0256229
-4.49411e-08
4.57764e-08
0.0256229
-2.37066e-08
2.41188e-08
0.0256229
-1.58074e-08
1.51712e-08
0.0256229
-8.42254e-09
7.54519e-09
0.0256229
-3.28435e-09
3.23582e-09
0.0256229
-4.118e-09
4.99424e-09
0.0256229
-3.62329e-10
1.12197e-09
0.0256229
-5.56874e-10
2.50602e-10
0.0256229
-2.84685e-09
2.0975e-09
0.0256229
1.57781e-09
-1.67619e-09
0.0256229
-7.50341e-11
4.49677e-10
0.0256229
-1.51235e-09
1.42541e-09
0.0256229
1.3872e-09
-2.05766e-09
0.0256229
-1.0321e-09
4.89879e-10
0.0256229
-1.25091e-09
1.4546e-09
0.0256229
1.93835e-09
-1.22633e-09
0.0256229
5.01251e-10
-3.17001e-10
0.0256229
-2.30886e-09
1.5692e-09
0.0256229
6.92393e-10
-1.50959e-09
0.0256229
1.7343e-09
-1.53243e-09
0.0256229
-1.38893e-09
2.29133e-09
0.0256229
4.4798e-10
4.98267e-10
0.0256229
2.00013e-09
-2.02537e-09
0.0256229
-5.519e-10
1.92474e-10
0.0256229
-1.7377e-09
1.11772e-09
0.0256229
1.70677e-09
-1.38217e-09
0.0256229
8.59458e-10
-4.0976e-10
0.0256229
-4.15507e-10
8.29341e-10
0.0256229
-7.68483e-10
8.90743e-10
0.0256229
4.79886e-11
-1.49976e-09
0.0256229
1.54303e-09
-1.33233e-09
0.0256229
-2.49879e-09
8.67368e-10
0.0256229
-8.85715e-11
1.70133e-09
0.0256229
1.64156e-09
-1.295e-09
0.0256229
4.14781e-10
-1.2159e-09
0.0256229
1.25628e-09
1.13531e-09
0.0256229
-5.10354e-09
1.4083e-09
0.0256229
3.87591e-09
-1.46011e-09
0.0256229
1.85991e-09
-8.72874e-10
0.0256229
-3.12457e-09
2.83897e-11
0.0256229
5.0823e-10
3.44953e-09
0.0256229
-2.46994e-09
1.38168e-10
0.0256229
-1.82013e-09
-2.92405e-10
0.0256229
4.04707e-09
-1.13691e-09
0.0256229
-2.53304e-09
1.78106e-09
-1.66444e-09
6.2796e-10
0.0419783
0.00109549
0.0431869
-0.00611616
0.0437658
0.0617487
0.0462793
0.0350263
0.0437611
0.0238723
0.0433436
0.0210461
0.0502057
-0.032898
0.052529
-0.0998503
0.0526085
-0.109757
0.0512314
-0.0868092
0.0520166
-0.0942547
0.0489581
-0.0695364
0.0434564
-0.0370518
0.038497
-0.0197857
0.0345695
-0.0130016
0.0316144
-0.00984465
0.0304117
-0.00787752
0.029964
-0.00458101
0.0287154
-0.00249616
0.0273339
-0.00272892
0.0268289
-0.00269919
0.0268287
-0.00105023
0.0267884
0.00110353
0.026719
0.00260859
0.0267493
0.00304982
0.0267989
0.00241617
0.0267554
0.00102403
0.0266245
-0.000613954
0.0264519
-0.0020295
0.0262772
-0.00295079
0.026118
-0.00329706
0.0259819
-0.00314306
0.0258715
-0.00266169
0.0257869
-0.0020529
0.025726
-0.0014719
0.0256849
-0.000998708
0.0256588
-0.000650677
0.025643
-0.000411716
0.0256338
-0.00025514
0.0256287
-0.000155759
0.025626
-9.40415e-05
0.0256245
-5.62873e-05
0.0256238
-3.34447e-05
0.0256234
-1.97528e-05
0.0256231
-1.16007e-05
0.025623
-6.77675e-06
0.025623
-3.93935e-06
0.0256229
-2.27876e-06
0.0256229
-1.31618e-06
0.0256229
-7.56806e-07
0.0256229
-4.31078e-07
0.0256229
-2.44802e-07
0.0256229
-1.3864e-07
0.0256229
-7.90946e-08
0.0256229
-4.33272e-08
0.0256229
-2.35609e-08
0.0256229
-1.60502e-08
0.0256229
-9.6938e-09
0.0256229
-4.51031e-09
0.0256229
-1.30631e-09
0.0256229
2.38015e-10
0.0256229
-1.93132e-09
0.0256229
-2.49797e-09
0.0256229
1.53446e-10
0.0256229
7.88684e-10
0.0256229
-5.07972e-10
0.0256229
-1.30145e-09
0.0256229
-1.5833e-09
0.0256229
2.41243e-10
0.0256229
2.07463e-09
0.0256229
4.0812e-10
0.0256229
-2.14443e-09
0.0256229
-1.58194e-09
0.0256229
1.00129e-09
0.0256229
2.09432e-09
0.0256229
2.13949e-09
0.0256229
2.55727e-10
0.0256229
-6.37729e-10
0.0256229
-1.52303e-09
0.0256229
1.1777e-09
0.0256229
1.23051e-09
0.0256229
8.23546e-10
0.0256229
2.40577e-10
0.0256229
-2.66363e-09
0.0256229
-8.61697e-11
0.0256229
-3.67366e-09
0.0256229
3.50199e-09
0.0256229
1.30364e-09
0.0256229
-1.18165e-09
0.0256229
4.02824e-09
0.0256229
-7.59785e-09
0.0256229
5.24769e-09
0.0256229
2.85682e-09
0.0256229
-6.62128e-09
0.0256229
6.3661e-09
0.0256229
-5.81574e-09
0.0256229
-4.74479e-09
0.0256229
5.71415e-09
0.0256229
-1.86287e-09
-2.49722e-09
0.0467011
0.00622024
0.0487471
-0.00816215
0.0497713
0.0607245
0.0516732
0.0331244
0.0489507
0.0265947
0.0511839
0.018813
0.0531303
-0.0348444
0.0543915
-0.101112
0.0541364
-0.109502
0.0520587
-0.0847316
0.0536506
-0.0958466
0.0502601
-0.0661459
0.043541
-0.0303328
0.0381112
-0.0143559
0.034798
-0.00968843
0.0321226
-0.00716921
0.0306815
-0.00643647
0.0303166
-0.00421611
0.0293533
-0.00153282
0.0277586
-0.0011342
0.0268106
-0.00175123
0.0267848
-0.00102446
0.0269886
0.000899793
0.027039
0.00255818
0.026949
0.00313985
0.0268186
0.00254657
0.0266885
0.00115411
0.0265514
-0.00047688
0.0264074
-0.00188549
0.0262628
-0.00280619
0.0261262
-0.00316041
0.0260033
-0.00302017
0.0258973
-0.00255575
0.0258108
-0.00196635
0.0257448
-0.00140592
0.0256982
-0.000952057
0.0256674
-0.000619923
0.0256483
-0.00039263
0.025637
-0.000243863
0.0256306
-0.000149345
0.0256271
-9.04963e-05
0.0256252
-5.43632e-05
0.0256241
-3.24105e-05
0.0256236
-1.9198e-05
0.0256233
-1.13026e-05
0.0256231
-6.61469e-06
0.025623
-3.85044e-06
0.025623
-2.22997e-06
0.0256229
-1.28879e-06
0.0256229
-7.42181e-07
0.0256229
-4.22519e-07
0.0256229
-2.39193e-07
0.0256229
-1.36359e-07
0.0256229
-7.73674e-08
0.0256229
-4.20042e-08
0.0256229
-2.35169e-08
0.0256229
-1.57383e-08
0.0256229
-9.90145e-09
0.0256229
-4.70661e-09
0.0256229
-5.07187e-10
0.0256229
3.6545e-10
0.0256229
-2.22728e-09
0.0256229
-2.40342e-09
0.0256229
-1.55168e-10
0.0256229
8.29714e-10
0.0256229
-1.5406e-10
0.0256229
-2.01033e-09
0.0256229
-1.85903e-09
0.0256229
7.99583e-10
0.0256229
1.95078e-09
0.0256229
3.17708e-10
0.0256229
-1.86665e-09
0.0256229
-2.25005e-09
0.0256229
8.14075e-10
0.0256229
2.99958e-09
0.0256229
2.58228e-09
0.0256229
-3.46568e-10
0.0256229
-4.51891e-10
0.0256229
-1.36683e-09
0.0256229
1.06347e-09
0.0256229
1.00051e-09
0.0256229
1.26528e-09
0.0256229
7.58024e-10
0.0256229
-3.97365e-09
0.0256229
2.92844e-10
0.0256229
-4.8889e-09
0.0256229
5.13129e-09
0.0256229
1.12796e-09
0.0256229
-2.51828e-09
0.0256229
6.63233e-09
0.0256229
-1.04714e-08
0.0256229
7.46706e-09
0.0256229
3.13915e-09
0.0256229
-9.77216e-09
0.0256229
1.04801e-08
0.0256229
-7.72616e-09
0.0256229
-6.87802e-09
0.0256229
8.46718e-09
0.0256229
-2.44981e-09
-3.50172e-09
0.0476643
0.0103687
0.0519715
-0.0124694
0.0545873
0.0581087
0.0556114
0.0321003
0.0541472
0.0280589
0.0569482
0.0160119
0.0570723
-0.0349685
0.0560724
-0.100112
0.0525748
-0.106005
0.0502748
-0.0824315
0.0532114
-0.0987833
0.0509509
-0.0638854
0.0449421
-0.0243239
0.0392096
-0.00862349
0.0355319
-0.00601067
0.0322825
-0.00391982
0.0302112
-0.00436514
0.0298882
-0.00389313
0.0294881
-0.00113279
0.028149
0.000204962
0.0269221
-0.000524306
0.0265637
-0.000666063
0.0268025
0.000660973
0.0270906
0.00227001
0.0272144
0.00301606
0.0271683
0.00259266
0.0270003
0.00132213
0.0267788
-0.000255323
0.0265557
-0.00166239
0.0263564
-0.00260696
0.0261878
-0.00299175
0.026047
-0.00287939
0.0259297
-0.00243847
0.0258345
-0.00187112
0.0257614
-0.00133286
0.0257092
-0.000899897
0.0256745
-0.000585196
0.0256528
-0.00037086
0.0256397
-0.000230858
0.0256323
-0.000141856
0.0256281
-8.62928e-05
0.0256257
-5.20421e-05
0.0256245
-3.11393e-05
0.0256238
-1.85023e-05
0.0256234
-1.09204e-05
0.0256232
-6.40327e-06
0.0256231
-3.73313e-06
0.025623
-2.16473e-06
0.025623
-1.25184e-06
0.0256229
-7.21285e-07
0.0256229
-4.10755e-07
0.0256229
-2.32436e-07
0.0256229
-1.32782e-07
0.0256229
-7.5311e-08
0.0256229
-4.08759e-08
0.0256229
-2.30943e-08
0.0256229
-1.53207e-08
0.0256229
-9.3943e-09
0.0256229
-4.56573e-09
0.0256229
-6.09372e-10
0.0256229
3.36962e-10
0.0256229
-2.10882e-09
0.0256229
-2.1902e-09
0.0256229
-2.13079e-10
0.0256229
6.01384e-10
0.0256229
-1.75519e-10
0.0256229
-1.96271e-09
0.0256229
-1.75918e-09
0.0256229
8.14658e-10
0.0256229
1.73947e-09
0.0256229
2.22829e-10
0.0256229
-1.65156e-09
0.0256229
-2.15716e-09
0.0256229
8.56113e-10
0.0256229
2.84928e-09
0.0256229
2.49634e-09
0.0256229
-4.41318e-10
0.0256229
-7.12039e-11
0.0256229
-1.41099e-09
0.0256229
1.14074e-09
0.0256229
7.06146e-10
0.0256229
1.21151e-09
0.0256229
1.07848e-09
0.0256229
-4.5893e-09
0.0256229
1.36011e-09
0.0256229
-6.17769e-09
0.0256229
6.25134e-09
0.0256229
6.26151e-10
0.0256229
-3.5353e-09
0.0256229
9.15385e-09
0.0256229
-1.34288e-08
0.0256229
9.80638e-09
0.0256229
3.39256e-09
0.0256229
-1.30381e-08
0.0256229
1.42623e-08
0.0256229
-9.43791e-09
0.0256229
-8.3803e-09
0.0256229
1.13411e-08
0.0256229
-3.26124e-09
-4.65319e-09
0.0497087
0.0142318
0.0537381
-0.0164987
0.0593428
0.0525039
0.0595151
0.031928
0.0584898
0.0290843
0.0609214
0.0135803
0.060437
-0.0344842
0.0568677
-0.0965422
0.0490559
-0.098193
0.047253
-0.0806286
0.0537684
-0.105299
0.0519552
-0.0620722
0.0450357
-0.0174044
0.0382945
-0.00188231
0.0346631
-0.00237929
0.0322509
-0.00150764
0.0299352
-0.00204941
0.0292296
-0.0031875
0.0294639
-0.00136711
0.0288858
0.000783055
0.0277218
0.00063975
0.0270236
3.21093e-05
0.0269794
0.000705123
0.0271752
0.00207422
0.0272558
0.00293551
0.0271735
0.00267499
0.0270108
0.00148478
0.0268237
-6.81715e-05
0.0266198
-0.00145852
0.0264187
-0.00240582
0.026239
-0.00281213
0.0260885
-0.00272882
0.0259634
-0.00231337
0.0258606
-0.0017684
0.0257803
-0.0012525
0.0257219
-0.000841477
0.0256825
-0.000545785
0.0256575
-0.000345944
0.0256426
-0.00021589
0.0256339
-0.000133193
0.025629
-8.1403e-05
0.0256263
-4.93218e-05
0.0256248
-2.9635e-05
0.025624
-1.76699e-05
0.0256235
-1.04577e-05
0.0256232
-6.14467e-06
0.0256231
-3.5884e-06
0.025623
-2.08336e-06
0.025623
-1.20548e-06
0.0256229
-6.94861e-07
0.0256229
-3.95842e-07
0.0256229
-2.24068e-07
0.0256229
-1.28281e-07
0.0256229
-7.28145e-08
0.0256229
-3.94411e-08
0.0256229
-2.24751e-08
0.0256229
-1.47679e-08
0.0256229
-8.80465e-09
0.0256229
-4.32755e-09
0.0256229
-6.8134e-10
0.0256229
3.13104e-10
0.0256229
-1.97776e-09
0.0256229
-2.07708e-09
0.0256229
-2.23475e-10
0.0256229
4.50092e-10
0.0256229
-2.25771e-10
0.0256229
-1.84014e-09
0.0256229
-1.67392e-09
0.0256229
7.44706e-10
0.0256229
1.61782e-09
0.0256229
1.49929e-10
0.0256229
-1.50086e-09
0.0256229
-1.98055e-09
0.0256229
8.87255e-10
0.0256229
2.58465e-09
0.0256229
2.42477e-09
0.0256229
-5.25344e-10
0.0256229
2.60511e-10
0.0256229
-1.45962e-09
0.0256229
1.26048e-09
0.0256229
3.81159e-10
0.0256229
1.15001e-09
0.0256229
1.36224e-09
0.0256229
-5.10412e-09
0.0256229
2.46175e-09
0.0256229
-7.48412e-09
0.0256229
7.41876e-09
0.0256229
-2.22442e-11
0.0256229
-4.37783e-09
0.0256229
1.15504e-08
0.0256229
-1.64709e-08
0.0256229
1.23452e-08
0.0256229
3.3691e-09
0.0256229
-1.6104e-08
0.0256229
1.80339e-08
0.0256229
-1.12662e-08
0.0256229
-9.61067e-09
0.0256229
1.41394e-08
0.0256229
-4.15278e-09
-5.78273e-09
0.0515364
0.0164327
0.0525459
-0.0175082
0.0608162
0.0442337
0.0612017
0.0315424
0.0613322
0.0289538
0.0633532
0.0115593
0.0610222
-0.0321532
0.0584283
-0.0939483
0.0515886
-0.0913533
0.0516289
-0.0806688
0.0588971
-0.112567
0.05546
-0.0586351
0.047038
-0.00898243
0.0402492
0.00490656
0.035768
0.00210186
0.0328522
0.00140821
0.0303067
0.000496027
0.0288056
-0.00168638
0.028846
-0.00140752
0.0288291
0.000799953
0.0279837
0.00148512
0.0271625
0.00085335
0.0270529
0.000814757
0.0273239
0.0018032
0.027508
0.00275137
0.0275333
0.00264975
0.0274694
0.0015486
0.0272935
0.000107723
0.0270048
-0.00116976
0.026665
-0.00206603
0.026364
-0.0025112
0.0261395
-0.00250431
0.0259814
-0.00215526
0.0258681
-0.00165509
0.0257855
-0.00116986
0.0257265
-0.000782503
0.0256864
-0.000505659
0.0256605
-0.000320087
0.0256446
-0.000200014
0.0256353
-0.000123811
0.0256299
-7.60067e-05
0.0256268
-4.62699e-05
0.0256251
-2.79233e-05
0.0256241
-1.6711e-05
0.0256236
-9.91919e-06
0.0256233
-5.84122e-06
0.0256231
-3.41733e-06
0.025623
-1.98664e-06
0.025623
-1.15014e-06
0.0256229
-6.63093e-07
0.0256229
-3.77914e-07
0.0256229
-2.14114e-07
0.0256229
-1.22887e-07
0.0256229
-6.98269e-08
0.0256229
-3.78011e-08
0.0256229
-2.16345e-08
0.0256229
-1.40417e-08
0.0256229
-8.09084e-09
0.0256229
-4.0253e-09
0.0256229
-8.15722e-10
0.0256229
2.49618e-10
0.0256229
-1.81676e-09
0.0256229
-1.91801e-09
0.0256229
-2.17255e-10
0.0256229
2.72616e-10
0.0256229
-3.09384e-10
0.0256229
-1.67221e-09
0.0256229
-1.54424e-09
0.0256229
6.75496e-10
0.0256229
1.46715e-09
0.0256229
5.94056e-11
0.0256229
-1.34389e-09
0.0256229
-1.75792e-09
0.0256229
9.34958e-10
0.0256229
2.2567e-09
0.0256229
2.31594e-09
0.0256229
-5.84932e-10
0.0256229
6.07818e-10
0.0256229
-1.54575e-09
0.0256229
1.40513e-09
0.0256229
2.40416e-11
0.0256229
1.11742e-09
0.0256229
1.58058e-09
0.0256229
-5.5596e-09
0.0256229
3.61565e-09
0.0256229
-8.81272e-09
0.0256229
8.67455e-09
0.0256229
-8.9479e-10
0.0256229
-5.01567e-09
0.0256229
1.38153e-08
0.0256229
-1.95178e-08
0.0256229
1.50582e-08
0.0256229
3.00094e-09
0.0256229
-1.8886e-08
0.0256229
2.17892e-08
0.0256229
-1.32407e-08
0.0256229
-1.05999e-08
0.0256229
1.68356e-08
0.0256229
-5.10431e-09
-6.85197e-09
0.0523309
0.017011
0.0493707
-0.014548
0.05804
0.0355644
0.0590143
0.0305682
0.0611566
0.0268115
0.0641134
0.00860244
0.0613149
-0.0293547
0.058067
-0.0907004
0.0505659
-0.0838522
0.0533623
-0.0834652
0.0617579
-0.120962
0.0585723
-0.0554495
0.0489818
0.00060808
0.0408633
0.0130251
0.0364954
0.00646976
0.0337986
0.00410502
0.0313839
0.00291075
0.0292198
0.000477652
0.0285585
-0.000746202
0.0290522
0.000306267
0.0289764
0.00156095
0.0279033
0.00192638
0.0268946
0.00182347
0.0267342
0.00196362
0.0272897
0.00219584
0.0280942
0.00184526
0.0286733
0.000969567
0.0287183
6.26777e-05
0.0282442
-0.000695648
0.0275488
-0.00137065
0.0269123
-0.00187465
0.0264483
-0.00204033
0.026143
-0.00184998
0.0259476
-0.00145969
0.0258227
-0.00104492
0.0257434
-0.000703258
0.0256942
-0.000456383
0.0256643
-0.000290231
0.0256467
-0.000182363
0.0256364
-0.00011358
0.0256306
-7.01547e-05
0.0256273
-4.29477e-05
0.0256254
-2.60426e-05
0.0256243
-1.56454e-05
0.0256237
-9.31403e-06
0.0256234
-5.49703e-06
0.0256232
-3.22178e-06
0.0256231
-1.87532e-06
0.025623
-1.08623e-06
0.025623
-6.2632e-07
0.0256229
-3.57117e-07
0.0256229
-2.02657e-07
0.0256229
-1.16633e-07
0.0256229
-6.63778e-08
0.0256229
-3.5824e-08
0.0256229
-2.05701e-08
0.0256229
-1.3209e-08
0.0256229
-7.37113e-09
0.0256229
-3.72258e-09
0.0256229
-8.36064e-10
0.0256229
2.2086e-10
0.0256229
-1.6942e-09
0.0256229
-1.80366e-09
0.0256229
-2.27684e-10
0.0256229
1.64678e-10
0.0256229
-3.49899e-10
0.0256229
-1.54708e-09
0.0256229
-1.42766e-09
0.0256229
6.00804e-10
0.0256229
1.36183e-09
0.0256229
-1.31593e-12
0.0256229
-1.21749e-09
0.0256229
-1.57194e-09
0.0256229
9.582e-10
0.0256229
1.95266e-09
0.0256229
2.26072e-09
0.0256229
-6.7001e-10
0.0256229
8.96773e-10
0.0256229
-1.64814e-09
0.0256229
1.57416e-09
0.0256229
-3.42825e-10
0.0256229
1.1476e-09
0.0256229
1.75734e-09
0.0256229
-5.9779e-09
0.0256229
4.72341e-09
0.0256229
-1.01736e-08
0.0256229
1.00799e-08
0.0256229
-1.96301e-09
0.0256229
-5.4133e-09
0.0256229
1.5897e-08
0.0256229
-2.2616e-08
0.0256229
1.80101e-08
0.0256229
2.21864e-09
0.0256229
-2.13124e-08
0.0256229
2.55567e-08
0.0256229
-1.54371e-08
0.0256229
-1.13114e-08
0.0256229
1.93886e-08
0.0256229
-6.10926e-09
-7.84724e-09
0.0523339
0.016721
0.0473338
-0.00954798
0.0537987
0.0290995
0.0553249
0.029042
0.0601263
0.0220101
0.0642656
0.00446314
0.0623518
-0.0274409
0.0580919
-0.0864405
0.0507724
-0.0765327
0.0564753
-0.0891682
0.0635783
-0.128065
0.059638
-0.0515092
0.050056
0.0101901
0.040847
0.0222341
0.0357509
0.0115658
0.0331293
0.00672666
0.0311763
0.00486377
0.0292724
0.00238153
0.0280031
0.000523059
0.0279953
0.000314109
0.0286506
0.000905628
0.0288025
0.00177447
0.0281889
0.00243714
0.0274306
0.00272192
0.0270282
0.00259823
0.0269348
0.00193858
0.0269029
0.00100149
0.0267978
0.000167806
0.0266301
-0.000527911
0.0264468
-0.00118741
0.0262802
-0.00170801
0.0261366
-0.00189673
0.0260111
-0.00172451
0.0259021
-0.0013507
0.0258126
-0.000955368
0.0257449
-0.000635626
0.0256979
-0.000409367
0.0256675
-0.000259774
0.0256488
-0.000163664
0.0256377
-0.000102529
0.0256313
-6.37782e-05
0.0256277
-3.9314e-05
0.0256256
-2.39805e-05
0.0256245
-1.44737e-05
0.0256238
-8.64614e-06
0.0256234
-5.11555e-06
0.0256232
-3.00393e-06
0.0256231
-1.75069e-06
0.025623
-1.01447e-06
0.025623
-5.84899e-07
0.0256229
-3.337e-07
0.0256229
-1.89772e-07
0.0256229
-1.09529e-07
0.0256229
-6.24171e-08
0.0256229
-3.36034e-08
0.0256229
-1.93233e-08
0.0256229
-1.22415e-08
0.0256229
-6.58689e-09
0.0256229
-3.38755e-09
0.0256229
-8.6595e-10
0.0256229
1.60892e-10
0.0256229
-1.5722e-09
0.0256229
-1.65388e-09
0.0256229
-2.2557e-10
0.0256229
5.808e-11
0.0256229
-3.98771e-10
0.0256229
-1.40509e-09
0.0256229
-1.29642e-09
0.0256229
5.41792e-10
0.0256229
1.24271e-09
0.0256229
-7.2729e-11
0.0256229
-1.09199e-09
0.0256229
-1.36315e-09
0.0256229
9.90618e-10
0.0256229
1.61737e-09
0.0256229
2.18902e-09
0.0256229
-7.55575e-10
0.0256229
1.19074e-09
0.0256229
-1.78302e-09
0.0256229
1.78056e-09
0.0256229
-7.52276e-10
0.0256229
1.22707e-09
0.0256229
1.86105e-09
0.0256229
-6.32917e-09
0.0256229
5.83467e-09
0.0256229
-1.15494e-08
0.0256229
1.16162e-08
0.0256229
-3.30064e-09
0.0256229
-5.52241e-09
0.0256229
1.77532e-08
0.0256229
-2.56942e-08
0.0256229
2.1201e-08
0.0256229
9.61676e-10
0.0256229
-2.33176e-08
0.0256229
2.92607e-08
0.0256229
-1.78277e-08
0.0256229
-1.17223e-08
0.0256229
2.17935e-08
0.0256229
-7.16542e-09
-8.75817e-09
0.0524062
0.0160389
0.0468762
-0.00401795
0.0521244
0.0238513
0.0544935
0.0266729
0.0599926
0.016511
0.0636463
0.00080941
0.0625628
-0.0263574
0.057575
-0.0814527
0.0512059
-0.0701636
0.0591768
-0.097139
0.0644681
-0.133357
0.0604511
-0.0474922
0.0513024
0.0193388
0.0423006
0.0312359
0.0370354
0.016831
0.0343234
0.00943864
0.0316837
0.00750349
0.0291627
0.00490251
0.0279592
0.0017266
0.0281168
0.000156426
0.0285158
0.000506628
0.0283442
0.00194616
0.027922
0.00285928
0.0277047
0.00293918
0.0277767
0.00252625
0.0280476
0.00166767
0.0283142
0.000734897
0.0283403
0.000141771
0.0280318
-0.00021948
0.0275009
-0.000656445
0.0269453
-0.00115245
0.0264945
-0.00144597
0.0261764
-0.00140641
0.0259671
-0.00114138
0.0258338
-0.000822062
0.0257506
-0.000552366
0.0256993
-0.000358098
0.0256682
-0.000228635
0.0256495
-0.000144978
0.0256384
-9.1446e-05
0.0256319
-5.72699e-05
0.0256281
-3.55224e-05
0.0256259
-2.17841e-05
0.0256246
-1.32055e-05
0.0256239
-7.9155e-06
0.0256235
-4.69559e-06
0.0256232
-2.76312e-06
0.0256231
-1.61258e-06
0.025623
-9.34945e-07
0.025623
-5.39048e-07
0.0256229
-3.0777e-07
0.0256229
-1.75533e-07
0.0256229
-1.01602e-07
0.0256229
-5.79713e-08
0.0256229
-3.10925e-08
0.0256229
-1.78686e-08
0.0256229
-1.11903e-08
0.0256229
-5.81971e-09
0.0256229
-3.07118e-09
0.0256229
-8.21055e-10
0.0256229
1.35483e-10
0.0256229
-1.4814e-09
0.0256229
-1.5177e-09
0.0256229
-2.25192e-10
0.0256229
-1.73782e-11
0.0256229
-4.04178e-10
0.0256229
-1.29081e-09
0.0256229
-1.17477e-09
0.0256229
4.88992e-10
0.0256229
1.14041e-09
0.0256229
-1.19142e-10
0.0256229
-9.71597e-10
0.0256229
-1.19671e-09
0.0256229
1.00449e-09
0.0256229
1.30151e-09
0.0256229
2.14343e-09
0.0256229
-8.48204e-10
0.0256229
1.44385e-09
0.0256229
-1.94717e-09
0.0256229
2.01465e-09
0.0256229
-1.18149e-09
0.0256229
1.38216e-09
0.0256229
1.89149e-09
0.0256229
-6.60918e-09
0.0256229
6.90231e-09
0.0256229
-1.29578e-08
0.0256229
1.33062e-08
0.0256229
-4.90116e-09
0.0256229
-5.29273e-09
0.0256229
1.9339e-08
0.0256229
-2.87682e-08
0.0256229
2.46477e-08
0.0256229
-7.9929e-10
0.0256229
-2.48514e-08
0.0256229
3.29041e-08
0.0256229
-2.04554e-08
0.0256229
-1.18013e-08
0.0256229
2.40272e-08