/*--------------------------------*- C++ -*----------------------------------*\
| =========                 |                                                 |
| \\      /  F ield         | OpenFOAM: The Open Source CFD Toolbox           |
|  \\    /   O peration     | Version:  2.4.0                                 |
|   \\  /    A nd           | Web:      www.OpenFOAM.org                      |
|    \\/     M anipulation  |                                                 |
\*---------------------------------------------------------------------------*/
FoamFile
{
    version     2.0;
    format      ascii;
    class       volScalarField;
    location    "1.38";
    object      p;
}
// * * * * * * * * * * * * * * * * * * * * * * * * * * * * * * * * * * * * * //

dimensions      [0 2 -2 0 0 0 0];

internalField   nonuniform List<scalar> 
8800
(
102.627
90.2715
82.8639
79.3361
77.4439
76.0462
74.8521
73.7498
72.707
71.7846
70.7945
69.8639
69.0095
68.1119
67.2048
66.4809
65.6655
64.9075
64.1917
63.4092
99.5153
89.9168
83.0348
79.4505
77.5044
76.0709
74.8595
73.751
72.703
71.7839
70.7928
69.858
69.0102
68.1109
67.2009
66.4802
65.6719
64.8942
64.1894
63.3736
97.5549
89.9886
83.6364
79.8246
77.6739
76.1482
74.9061
73.7837
72.727
71.8021
70.8039
69.8605
69.0148
68.1089
67.1999
66.4789
65.6865
64.8888
64.2171
63.3922
96.0162
90.0463
84.234
80.2476
77.858
76.2334
74.9697
73.8353
72.7784
71.8389
70.8334
69.8773
69.0295
68.1081
67.2108
66.4748
65.7185
64.9189
64.3654
63.4553
94.7685
90.0116
84.7122
80.659
78.0301
76.2954
75.022
73.891
72.8385
71.8854
70.8755
69.9024
69.0442
68.1108
67.2288
66.4693
65.7467
64.9857
64.5116
63.5167
93.7763
89.9193
85.0913
81.0028
78.1843
76.3381
75.052
73.9281
72.8993
71.9258
70.9235
69.9333
69.056
68.1105
67.2455
66.4617
65.7591
65.0314
64.6247
63.6362
93.021
89.7953
85.365
81.2877
78.3256
76.3595
75.0667
73.9606
72.9424
71.964
70.9613
69.9587
69.0623
68.1182
67.2519
66.45
65.7401
65.0326
64.7089
64.1151
92.4597
89.7007
85.5481
81.5015
78.4464
76.3864
75.0487
73.9873
72.9725
71.993
70.9859
69.9905
69.0556
68.1275
67.243
66.4504
65.6925
64.9864
64.4269
64.6381
92.1051
89.6204
85.6578
81.6528
78.535
76.4021
75.0371
74.0067
72.9925
72.0114
71.0065
70.0066
69.0563
68.1344
67.2424
66.4332
65.6603
64.9661
64.5216
65.1485
91.9209
89.5864
85.7147
81.726
78.5811
76.4123
75.0237
74.0163
73.0081
72.0166
71.0197
70.015
69.0552
68.134
67.2467
66.4168
65.6523
64.9619
64.5804
65.2973
91.9204
89.5866
85.7107
81.7307
78.581
76.4168
75.0189
74.0201
73.0089
72.0133
71.0168
70.0187
69.0485
68.1416
67.2494
66.4146
65.6458
64.9771
64.6076
65.3987
92.0916
89.6322
85.657
81.6534
78.5376
76.4122
75.0198
74.0151
73.0006
71.9933
71.0164
70.0165
69.0444
68.1391
67.2595
66.414
65.6535
64.9877
64.62
65.4484
92.4477
89.7104
85.5372
81.5089
78.4488
76.4047
75.025
74.0044
72.9809
71.9633
71.0058
70.0116
69.0304
68.1511
67.2698
66.4199
65.6671
64.9992
64.6249
65.4005
92.9988
89.8097
85.3563
81.2953
78.3226
76.3873
75.0271
73.9836
72.9519
71.9248
70.9863
69.9956
69.0195
68.1583
67.2827
66.437
65.6844
65.0269
64.596
65.2597
93.7543
89.924
85.0873
81.01
78.183
76.3602
75.0181
73.9534
72.914
71.8727
70.9629
69.9792
68.9974
68.1645
67.3023
66.4471
65.7197
65.0661
64.5863
65.0378
94.7399
90.0197
84.7191
80.662
78.0296
76.3146
74.9914
73.9113
72.8675
71.8141
70.9331
69.9548
68.9759
68.1681
67.318
66.4617
65.7627
65.1147
64.6096
64.7419
95.989
90.045
84.2421
80.2532
77.8585
76.2516
74.9424
73.8567
72.8167
71.7537
70.9
69.9353
68.958
68.1628
67.3347
66.4733
65.8021
65.1629
64.6646
64.448
97.5263
89.9823
83.654
79.8294
77.675
76.1638
74.8815
73.8009
72.7702
71.7133
70.8726
69.919
68.9501
68.1591
67.3446
66.4846
65.8321
65.1988
64.721
64.2983
99.494
89.9035
83.05
79.4535
77.5074
76.0852
74.8374
73.7673
72.7457
71.6987
70.8596
69.914
68.9537
68.159
67.3492
66.4968
65.8454
65.2187
64.7147
64.2201
102.609
90.2576
82.8799
79.3394
77.4488
76.0584
74.8315
73.7666
72.7448
71.7058
70.8611
69.9132
68.9613
68.1598
67.3498
66.5029
65.8486
65.2227
64.7144
64.3396
63.384
63.4024
63.4074
63.411
63.4149
63.4007
63.3733
63.324
63.2621
63.1975
63.119
63.0348
62.9529
62.894
62.9135
62.9985
63.1344
63.2752
63.3683
63.4294
63.461
63.4962
63.5578
63.6339
63.7334
63.822
63.8674
63.861
63.7978
63.7056
63.5971
63.4862
63.369
63.2144
63.0381
62.8365
62.5791
62.2689
61.919
61.5563
61.2072
60.909
60.6947
60.5635
60.5029
60.5336
60.6514
60.8036
60.9459
61.0842
61.1999
61.3187
61.4661
61.6395
61.8506
62.0944
62.3739
62.7031
63.0564
63.423
63.8016
64.1452
64.4358
64.6475
64.7829
64.8181
64.7662
64.5935
64.3341
63.9783
63.5537
63.0962
62.6484
62.2566
61.9712
61.8553
61.8715
62.0189
62.1921
62.3321
62.3647
62.2685
61.9719
61.5455
60.9758
60.323
59.5943
58.7938
57.9486
57.1607
56.3723
55.6263
54.9493
54.3312
53.772
53.2883
52.9189
52.5921
52.4375
52.2973
52.4372
52.4491
52.6486
52.747
52.7533
52.8918
52.6708
52.8211
52.5642
52.562
52.5043
52.1466
52.2175
51.696
51.4524
51.0855
50.4481
50.1873
49.6809
49.3648
49.2511
49.1552
49.4341
49.7562
50.4682
51.2045
52.2385
53.3964
54.6665
56.0987
57.5193
59.2265
60.8603
62.5429
64.2881
65.7352
67.1695
68.2473
68.9642
69.3902
69.3082
68.8946
67.9605
66.5753
64.9938
62.9986
60.89
58.569
56.2333
54.094
51.7498
49.905
48.0513
46.3454
45.1482
43.8825
43.0584
42.6287
42.288
42.449
42.8678
43.3188
44.3969
45.3962
46.6568
48.1689
49.6184
51.0327
52.6539
54.0852
55.4736
56.6279
58.046
59.0432
60.1816
61.0688
62.1207
62.6885
63.5176
64.1409
64.746
65.1273
65.9408
66.1637
66.7612
67.3755
68.3031
68.8855
70.3345
71.4003
72.8718
74.7094
76.4726
78.2751
79.577
81.0409
81.268
78.4381
73.924
39.526
63.1375
63.1154
63.1784
63.2988
63.402
63.429
63.4057
63.3302
63.2385
63.1616
63.0798
63.0156
62.9698
62.9356
62.9723
63.0403
63.1426
63.2704
63.3534
63.435
63.4778
63.5128
63.5749
63.6232
63.6983
63.7585
63.7862
63.7875
63.7389
63.6666
63.5697
63.4545
63.3367
63.1856
63.0016
62.7966
62.5489
62.2626
61.9301
61.5865
61.257
60.9711
60.7661
60.6394
60.5887
60.596
60.6757
60.8113
60.9342
61.069
61.1824
61.3065
61.4722
61.6539
61.895
62.1582
62.4489
62.7867
63.1442
63.4982
63.8643
64.179
64.4507
64.6486
64.7582
64.7713
64.6912
64.5084
64.2495
63.9018
63.4818
63.0378
62.5924
62.2108
61.913
61.7648
61.7394
61.8266
61.9467
62.0479
62.0682
61.9889
61.7252
61.3528
60.8504
60.2202
59.5822
58.8204
58.0256
57.2881
56.535
55.833
55.1689
54.6153
54.0257
53.6027
53.2365
52.9019
52.8292
52.5863
52.7498
52.7386
52.8311
53.0316
52.8519
53.0988
52.8281
52.8341
52.7586
52.5217
52.5412
52.2268
52.049
51.7321
51.35
51.0119
50.538
50.1558
49.8564
49.5767
49.4875
49.5565
49.8338
50.2603
50.9257
51.7493
52.733
53.8222
55.0161
56.3285
57.6192
59.0765
60.5784
61.9766
63.4586
64.6712
65.804
66.7299
67.1953
67.594
67.4115
67.0116
66.1783
64.861
63.4644
61.6082
59.6514
57.6042
55.3942
53.4203
51.3961
49.5617
48.0164
46.5029
45.385
44.4795
43.753
43.5582
43.4793
43.6046
44.3794
44.8281
46.0726
47.1162
48.3249
49.7736
51.2173
52.4447
53.8313
55.0474
56.3262
57.1992
58.5381
59.2093
60.2202
60.8328
61.7358
62.0563
62.8431
63.1274
63.6118
63.7279
64.2702
64.1292
64.4197
64.8446
65.519
65.6143
66.3258
67.4347
68.3728
69.6858
70.8176
72.2395
72.9087
72.1528
71.6478
62.7486
54.1011
23.4634
63.2065
63.1511
63.183
63.3307
63.4724
63.4927
63.4446
63.3192
63.1836
63.0997
63.0246
62.9901
62.9887
62.9764
63.0385
63.0953
63.1667
63.2822
63.3346
63.4242
63.4676
63.4984
63.5642
63.5822
63.6425
63.6821
63.6968
63.709
63.6649
63.6097
63.5219
63.4047
63.2883
63.1332
62.9546
62.7514
62.5108
62.256
61.9478
61.6359
61.3306
61.0571
60.8547
60.7203
60.6835
60.6811
60.7393
60.8562
60.9605
61.098
61.2121
61.3374
61.5189
61.6957
61.9528
62.23
62.5181
62.8572
63.1935
63.5174
63.8604
64.1397
64.3853
64.5684
64.629
64.6429
64.5426
64.3505
64.1051
63.7697
63.3726
62.9472
62.5153
62.1502
61.8656
61.6999
61.6341
61.675
61.7349
61.7936
61.8071
61.6954
61.4863
61.1586
60.6996
60.1415
59.5529
58.8737
58.1412
57.4838
56.7316
56.1066
55.4215
54.9172
54.36
53.896
53.6597
53.2181
53.2204
52.9901
53.0304
53.1185
53.0131
53.2857
53.0812
53.1721
53.0701
52.9233
52.8923
52.6668
52.5641
52.3389
52.0471
51.7887
51.4513
51.088
50.7391
50.3963
50.151
50.0181
49.9237
50.1501
50.3339
50.8723
51.5204
52.2784
53.1951
54.1811
55.2905
56.4215
57.6057
58.7819
60.1423
61.2954
62.5126
63.5678
64.4339
65.1783
65.4947
65.7391
65.5303
65.027
64.3852
63.1027
61.844
60.152
58.3469
56.4948
54.5277
52.6072
50.9572
49.2019
47.8613
46.6418
45.6659
45.0792
44.5439
44.5709
44.6853
45.0746
45.8028
46.6056
47.6337
48.9028
50.0485
51.3365
52.6535
53.7507
54.9009
56.0966
56.9554
57.9589
58.7113
59.3834
60.2098
60.5246
61.318
61.5687
61.9105
62.2355
62.1927
62.3203
62.4374
61.9483
61.7624
62.1525
62.0383
61.679
62.3074
62.8346
63.4855
63.9999
65.4718
65.136
65.895
62.4338
61.5937
50.8848
38.8642
18.5639
62.5155
62.6434
63.1934
63.6153
63.7844
63.6792
63.497
63.272
63.089
63.0117
62.9553
62.9627
63.0131
63.0218
63.1123
63.1619
63.2109
63.3185
63.325
63.4137
63.4394
63.4517
63.5243
63.5113
63.5688
63.5947
63.595
63.6215
63.5656
63.5227
63.4476
63.3324
63.2311
63.0722
62.9083
62.7209
62.4862
62.2568
61.9726
61.696
61.4257
61.1646
60.997
60.8417
60.8035
60.8028
60.8373
60.9507
61.0272
61.1702
61.2907
61.4043
61.6011
61.7639
62.0133
62.2905
62.5558
62.8837
63.1875
63.4733
63.7886
64.0223
64.233
64.3725
64.4292
64.4354
64.3348
64.133
63.9091
63.603
63.2339
62.8629
62.4518
62.115
61.843
61.6638
61.5632
61.5591
61.5592
61.5753
61.5716
61.4267
61.2623
60.9616
60.5539
60.0777
59.511
58.9325
58.2601
57.6688
56.9651
56.3828
55.783
55.2559
54.8107
54.301
54.0914
53.6938
53.6044
53.4696
53.3881
53.5041
53.3469
53.5388
53.3956
53.3486
53.383
53.1151
53.0468
52.9468
52.6873
52.4768
52.3143
51.9401
51.6833
51.4189
51.0883
50.8264
50.6437
50.6185
50.5518
50.7784
51.0123
51.5403
52.1348
52.7689
53.6604
54.4921
55.4752
56.4646
57.4851
58.5006
59.6203
60.6424
61.5843
62.4879
63.202
63.71
63.9658
64.05
63.7764
63.2702
62.5662
61.4739
60.1914
58.6963
57.0338
55.2894
53.585
51.7564
50.3216
48.7486
47.623
46.6212
45.9058
45.5311
45.2967
45.5084
45.8017
46.4779
47.2223
48.2649
49.2151
50.5057
51.6238
52.7967
53.9988
54.9882
56.078
56.9663
57.687
58.514
59.0021
59.6019
60.233
60.393
61.1679
61.136
61.1586
61.2045
60.9598
60.4682
60.7543
59.1844
59.1258
58.6954
58.6784
56.8094
58.1419
56.8389
58.5169
57.4199
60.4851
57.9335
58.4892
54.2917
50.1116
41.6029
28.8796
15.746
62.2644
62.5689
63.5426
64.0682
64.1533
63.8693
63.5141
63.1742
62.9374
62.8799
62.8761
62.9303
63.0293
63.0728
63.1818
63.2254
63.2544
63.337
63.3042
63.3825
63.3868
63.3924
63.4497
63.4266
63.4887
63.4799
63.4815
63.5064
63.4486
63.4222
63.3429
63.2552
63.1676
63.0006
62.8627
62.6852
62.4669
62.269
62.0014
61.7724
61.5296
61.2755
61.1456
60.9727
60.9377
60.9412
60.9587
61.0849
61.135
61.2814
61.4108
61.5031
61.6951
61.8433
62.0657
62.3161
62.5591
62.8554
63.1318
63.3745
63.6372
63.8323
64.0084
64.1408
64.1734
64.1776
64.0861
63.9053
63.7005
63.4306
63.0966
62.7797
62.4054
62.0981
61.8309
61.6431
61.539
61.4736
61.4468
61.3982
61.3601
61.2203
61.0211
60.7749
60.4143
59.9931
59.4768
58.9825
58.3795
57.8319
57.2361
56.6605
56.1606
55.6565
55.2587
54.8165
54.5585
54.2319
54.0868
53.9723
53.8434
53.9277
53.8067
53.8265
53.8204
53.6755
53.6719
53.4908
53.3197
53.2555
53.0237
52.8153
52.646
52.3491
52.0688
51.9415
51.597
51.4015
51.3237
51.2504
51.2345
51.4851
51.6958
52.1425
52.6678
53.2554
53.9949
54.7418
55.5816
56.4455
57.3452
58.2209
59.1336
60.0475
60.7658
61.5307
62.0865
62.4138
62.6216
62.5232
62.2677
61.7022
60.9344
59.9831
58.5884
57.3118
55.7011
54.0841
52.5316
50.8911
49.5664
48.1732
47.2728
46.4664
46.0161
45.811
45.8866
46.3481
46.7995
47.6609
48.5107
49.7171
50.6603
51.9564
53.019
54.1726
55.2664
56.0364
57.166
57.6448
58.4443
58.9832
59.3658
59.9896
60.3032
60.505
61.3121
60.573
60.6394
60.0783
59.4506
58.8688
58.7865
56.255
56.2874
54.7937
54.4601
51.0955
53.3748
48.9346
51.3991
48.5821
52.6907
49.4841
49.5953
46.6507
42.0358
36.138
24.6359
14.9625
62.3226
62.7169
63.7621
64.2475
64.2558
63.8868
63.448
63.0867
62.8268
62.7875
62.8585
62.9477
63.0751
63.1413
63.2357
63.2854
63.3004
63.3482
63.3035
63.3481
63.3408
63.3361
63.3534
63.3377
63.3979
63.3671
63.3787
63.4075
63.3481
63.322
63.2405
63.1796
63.0995
62.9305
62.8272
62.6585
62.4678
62.2901
62.034
61.8588
61.634
61.4262
61.3072
61.1286
61.0962
61.1018
61.1034
61.2253
61.2614
61.391
61.5315
61.6036
61.7764
61.9269
62.1096
62.3268
62.5362
62.7916
63.041
63.2467
63.458
63.6148
63.7675
63.8809
63.9096
63.8998
63.8044
63.6678
63.4737
63.2547
62.9782
62.6998
62.3868
62.0958
61.85
61.6409
61.534
61.4232
61.344
61.2785
61.1761
61.0502
60.8437
60.5992
60.2958
59.9095
59.4431
58.9987
58.4953
57.9735
57.4867
56.9485
56.5188
56.0872
55.7076
55.3273
55.0634
54.7995
54.6015
54.5184
54.3636
54.3974
54.3037
54.2603
54.2682
54.1559
54.045
53.9962
53.7491
53.6495
53.5383
53.2857
53.0615
52.9331
52.603
52.4825
52.2448
52.0423
51.9927
51.8794
51.9353
52.1034
52.2697
52.6245
53.1174
53.6039
54.2208
54.9067
55.6265
56.3876
57.1698
57.9472
58.6949
59.4868
60.0842
60.6512
61.0679
61.3133
61.3753
61.2031
60.9206
60.2791
59.4835
58.5306
57.1878
55.9063
54.4076
52.8522
51.4129
49.9512
48.6869
47.5472
46.7529
46.1719
45.9648
45.9413
46.205
46.877
47.6271
48.6253
49.5408
50.864
51.833
53.2543
54.1215
55.3782
56.1844
57.0201
58.115
58.3955
59.1783
59.5322
59.7304
60.4515
60.1776
60.6677
60.9385
60.1855
59.9088
58.9735
58.0435
57.7902
56.8601
54.2235
53.6016
51.712
49.8621
46.2152
47.5879
41.539
42.6928
39.2099
41.6804
39.2383
39.3248
38.1802
35.923
32.8346
25.2577
17.4273
62.9644
63.1804
63.7406
63.8347
63.6701
63.3807
63.0864
62.9161
62.7817
62.7949
62.9284
63.0182
63.1474
63.2279
63.2641
63.3293
63.3338
63.3305
63.2906
63.2913
63.2816
63.2791
63.2557
63.264
63.3199
63.2596
63.2924
63.3009
63.2517
63.2265
63.1399
63.1242
63.0391
62.8684
62.8
62.6314
62.4698
62.3063
62.0649
61.9392
61.7209
61.537
61.4495
61.2641
61.2444
61.241
61.232
61.3549
61.381
61.5092
61.6458
61.6971
61.8549
61.9906
62.1384
62.3171
62.4903
62.7107
62.9297
63.1014
63.2778
63.4038
63.5396
63.6283
63.65
63.6543
63.5525
63.4683
63.305
63.0906
62.8859
62.6134
62.3382
62.1005
61.8343
61.6362
61.5213
61.3673
61.2695
61.1869
61.0251
60.8936
60.7112
60.4253
60.1972
59.8432
59.4142
59.0383
58.6072
58.1308
57.7175
57.2522
56.8472
56.5131
56.133
55.8235
55.5493
55.356
55.1377
55.0412
54.923
54.8707
54.8464
54.7542
54.7582
54.6602
54.5542
54.444
54.3151
54.0986
54.0925
53.7986
53.6058
53.5049
53.176
53.0419
52.8948
52.618
52.566
52.4898
52.4934
52.586
52.7799
52.9972
53.4555
53.8772
54.3506
55.0395
55.6145
56.2964
56.973
57.6295
58.3084
58.9157
59.4472
59.8757
60.1226
60.3536
60.2396
60.0099
59.6519
58.9459
58.0842
57.1329
55.8035
54.503
53.0768
51.579
50.1907
48.8582
47.6491
46.7071
46.1216
45.7041
45.6335
45.9135
46.3684
47.131
48.1407
49.3121
50.5524
51.8597
52.8536
54.3755
55.1578
56.5589
57.0633
58.1548
58.8704
59.3281
60.0642
59.9438
60.3477
60.6432
60.2046
60.6841
60.4385
59.6617
59.4313
57.3202
56.887
56.4897
55.3997
52.0649
51.8097
48.439
46.9304
42.1047
42.1494
38.9936
37.6613
35.8919
35.3218
33.748
32.3278
33.2544
32.5641
31.1346
26.4623
20.1116
65.4195
64.9755
63.9877
63.1026
62.5742
62.4361
62.448
62.6073
62.7243
62.8982
63.0699
63.1289
63.252
63.3142
63.2869
63.3374
63.3261
63.2851
63.2541
63.2322
63.228
63.2326
63.1677
63.1969
63.2361
63.1531
63.2199
63.2044
63.1731
63.1553
63.0486
63.0732
62.9618
62.8179
62.7581
62.6049
62.4723
62.3274
62.1114
62.006
61.8037
61.6405
61.5755
61.393
61.3849
61.374
61.3586
61.4695
61.48
61.6025
61.7196
61.7566
61.9088
62.0242
62.1572
62.2985
62.443
62.6401
62.815
62.9871
63.1222
63.2363
63.3263
63.4051
63.4375
63.4405
63.3338
63.2869
63.1385
62.9311
62.7921
62.5208
62.297
62.0978
61.8205
61.6296
61.5086
61.293
61.2202
61.0965
60.9021
60.7959
60.5833
60.3068
60.1195
59.7897
59.3917
59.0998
58.6882
58.2882
57.9463
57.5261
57.1679
56.9086
56.5515
56.2854
56.0529
55.8562
55.6953
55.5515
55.4778
55.3693
55.3778
55.2814
55.2375
55.2021
55.0506
54.9457
54.8423
54.6501
54.5542
54.3947
54.1423
54.0033
53.7645
53.568
53.4126
53.1563
53.0436
53.0332
52.9061
53.0499
53.2122
53.3362
53.736
54.0988
54.4565
55.0761
55.5782
56.1751
56.767
57.3318
57.9036
58.3672
58.8415
59.1658
59.2993
59.4738
59.2463
58.9394
58.458
57.7186
56.7603
55.7521
54.4406
53.0857
51.6962
50.2437
48.8516
47.5805
46.4752
45.6076
45.227
45.0354
45.0847
45.6104
46.2827
47.3795
48.4843
49.804
51.2635
52.8002
53.9139
55.3493
56.3204
57.6322
58.23
59.2211
59.7428
60.2802
60.8234
60.6548
61.0508
60.5619
60.6099
60.5979
59.6705
59.1499
58.4707
54.9096
55.0473
52.755
53.0155
47.4862
48.31
44.1176
42.7987
39.2409
38.4637
38.5939
36.6419
37.6815
35.8982
37.3901
36.1344
34.5312
32.7637
31.521
27.8809
22.6234
66.2804
65.7122
64.0941
62.6944
61.9137
61.8195
62.0485
62.4524
62.7612
62.9892
63.2119
63.2618
63.3668
63.404
63.3228
63.3383
63.3127
63.2509
63.2174
63.1763
63.1753
63.1803
63.1043
63.1387
63.1803
63.0848
63.1623
63.1397
63.0984
63.0945
62.9757
63.0266
62.9371
62.7887
62.7671
62.591
62.4754
62.343
62.1495
62.0568
61.8825
61.7384
61.679
61.5169
61.5012
61.4885
61.4676
61.5598
61.5652
61.6829
61.7775
61.8156
61.9555
62.0477
62.1675
62.2715
62.4009
62.5745
62.7058
62.8756
62.9823
63.0769
63.1829
63.207
63.258
63.2483
63.1545
63.1302
63.003
62.8031
62.7089
62.433
62.2333
62.0779
61.768
61.6311
61.4753
61.2471
61.1652
61.0171
60.7961
60.7209
60.4732
60.2094
60.0598
59.7421
59.3985
59.165
58.7784
58.4494
58.1883
57.7767
57.4957
57.253
56.9431
56.7059
56.5102
56.3352
56.1973
56.0638
55.9892
55.9045
55.8658
55.8381
55.729
55.713
55.5893
55.4455
55.3644
55.1855
55.0328
54.9447
54.6478
54.4879
54.3064
54.0455
53.8762
53.6713
53.5083
53.4827
53.3651
53.4344
53.5795
53.6495
53.9556
54.2771
54.552
55.0475
55.5217
56.0288
56.5505
57.0413
57.53
57.8964
58.2926
58.5612
58.6039
58.6769
58.388
57.9722
57.4059
56.567
55.5224
54.4229
53.0271
51.688
50.2067
48.7924
47.4454
46.1661
45.1341
44.3308
44.1149
44
44.3698
45.0719
45.9728
47.3173
48.7905
50.3361
51.8372
53.5164
54.8987
56.43
57.4196
58.7229
59.3477
60.3603
60.6665
61.1002
61.3913
61.3635
61.6835
60.5634
60.6404
60.4922
58.6552
58.2041
56.4995
51.515
51.4967
48.7905
49.032
44.854
44.0564
42.4841
40.183
40.366
38.6703
38.3707
37.8965
39.5733
39.4596
40.8346
38.7832
36.7936
34.687
32.6041
29.1237
25.2766
66.624
66.1249
64.3308
62.7003
61.795
61.6158
61.822
62.3035
62.6863
63.018
63.2963
63.3637
63.4439
63.4712
63.3435
63.3198
63.291
63.206
63.1778
63.1152
63.1206
63.1295
63.0413
63.0893
63.1265
63.02
63.0999
63.0782
63.0366
63.0475
62.9195
62.9721
62.8744
62.7413
62.731
62.5644
62.4752
62.3534
62.1883
62.1088
61.9504
61.8308
61.7666
61.6352
61.6017
61.5892
61.5754
61.6322
61.6498
61.7391
61.8141
61.8677
61.9757
62.0597
62.1719
62.239
62.3669
62.5087
62.6042
62.7798
62.8509
62.9377
63.0462
63.0321
63.1036
63.0814
62.9821
62.9985
62.8546
62.6944
62.6161
62.3495
62.1874
62.0418
61.737
61.6074
61.4454
61.1879
61.1123
60.9438
60.7108
60.6473
60.3956
60.1324
60.0194
59.7059
59.4308
59.2122
58.8664
58.5983
58.3654
58.0102
57.7863
57.5625
57.3092
57.1363
56.9322
56.8064
56.6839
56.5402
56.5105
56.4335
56.3556
56.3733
56.2568
56.1837
56.1497
55.9508
55.863
55.7166
55.5335
55.4287
55.1681
54.9754
54.7974
54.5322
54.3593
54.1579
53.9786
53.9021
53.7936
53.756
53.8711
53.9211
54.0955
54.3928
54.6206
54.9961
55.4576
55.8541
56.3381
56.7748
57.1984
57.5512
57.8476
58.0899
58.0368
58.0004
57.6518
57.1459
56.4555
55.494
54.3958
53.11
51.6912
50.253
48.7036
47.2772
45.9151
44.6657
43.67
42.8974
42.7425
42.8293
43.3448
44.2814
45.5279
46.9991
48.7673
50.6432
52.5117
54.1824
55.6818
57.3994
58.4671
59.7919
60.261
61.3217
61.5294
62.0292
61.8784
61.8423
62.2672
60.9385
60.4376
60.215
57.8565
55.6269
53.1669
48.6778
48.1736
46.6172
45.3088
45.1113
43.9374
42.986
42.4015
42.3172
41.9697
42.0653
41.0258
42.4026
42.1516
41.4719
38.4475
36.1448
34.973
32.6497
29.9894
27.3863
66.8575
66.3771
64.5631
62.8127
61.7962
61.5321
61.6616
62.1594
62.6274
63.0158
63.3426
63.4245
63.4996
63.5232
63.3575
63.3054
63.2652
63.1653
63.1373
63.0631
63.0821
63.08
62.9952
63.0521
63.0723
62.9805
63.0392
63.032
62.9817
62.993
62.8697
62.9029
62.8334
62.7014
62.7105
62.5575
62.4687
62.3744
62.2185
62.1485
62.0179
61.9034
61.8507
61.7375
61.6869
61.6862
61.6639
61.7012
61.7269
61.7803
61.8543
61.9104
61.9879
62.0746
62.1615
62.2051
62.332
62.4358
62.5098
62.6846
62.7173
62.8293
62.9087
62.8912
62.9837
62.9292
62.8439
62.8872
62.7213
62.6144
62.535
62.2696
62.1508
61.9863
61.7034
61.5878
61.4108
61.1391
61.0777
60.8701
60.65
60.5745
60.3101
60.09
59.981
59.676
59.4639
59.2689
58.9394
58.7716
58.5186
58.2353
58.0683
57.8474
57.6442
57.5159
57.3332
57.2525
57.1757
57.0059
57.0185
56.9688
56.852
56.8808
56.781
56.6707
56.6555
56.4799
56.3314
56.2406
56.0487
55.9045
55.7171
55.479
55.2877
55.0613
54.8284
54.6207
54.4128
54.2474
54.1502
54.0357
54.0925
54.1115
54.2058
54.4514
54.6398
54.9626
55.3401
55.7139
56.1336
56.5217
56.9323
57.2563
57.5243
57.6846
57.6505
57.519
57.0941
56.5052
55.6383
54.5928
53.3918
51.9478
50.4746
48.8886
47.2498
45.7757
44.3039
43.1063
42.1345
41.4372
41.2645
41.4753
42.2023
43.3064
44.7488
46.5807
48.6803
50.7085
52.8396
54.7832
56.5166
58.1891
59.3799
60.7141
61.1284
62.1859
62.2786
63.0522
62.6469
62.2513
62.1458
61.4237
60.4907
59.7952
56.825
52.2594
50.5225
47.7082
47.7129
46.3206
44.4127
46.1308
45.4255
45.064
44.9971
45.1173
44.6072
45.3397
44.1523
44.3916
42.1057
40.9536
37.7303
35.7598
35.3073
32.6505
31.0925
28.9428
66.9598
66.4939
64.6567
62.8701
61.8074
61.5122
61.6293
62.1296
62.6403
63.0604
63.3774
63.4613
63.5173
63.5369
63.3671
63.2859
63.2493
63.1346
63.1039
63.024
63.0459
63.0422
62.9537
63.0323
63.0266
62.9513
62.9904
62.9763
62.9407
62.9361
62.8397
62.8526
62.795
62.6704
62.674
62.5468
62.4537
62.385
62.2473
62.18
62.0835
61.9736
61.9239
61.8328
61.7664
61.7721
61.7492
61.762
61.7949
61.8199
61.8831
61.9403
61.9834
62.0711
62.1327
62.17
62.2964
62.3608
62.4367
62.5838
62.6013
62.6873
62.7728
62.7229
62.8568
62.7764
62.7253
62.7792
62.5961
62.5447
62.4607
62.1997
62.1257
61.9385
61.6725
61.6104
61.3335
61.1157
61.0427
60.798
60.6024
60.5195
60.22
60.0709
59.9604
59.6221
59.5069
59.318
58.9977
58.9102
58.6876
58.4139
58.3502
58.1374
57.9643
57.9216
57.7361
57.6664
57.6687
57.494
57.4812
57.4994
57.3581
57.3523
57.3142
57.1846
57.1512
57.0149
56.8575
56.7662
56.5939
56.4309
56.2518
55.9921
55.7769
55.5319
55.271
55.0268
54.7861
54.6057
54.4511
54.3113
54.2519
54.2543
54.2819
54.4486
54.6303
54.8823
55.2335
55.5719
55.9351
56.3124
56.6909
57.0361
57.2629
57.3945
57.3982
57.1807
56.7303
56.0495
55.0663
53.9415
52.5909
51.0661
49.4798
47.7465
46.0637
44.4871
42.9263
41.691
40.7593
40.0583
39.9031
40.1967
41.0472
42.3187
43.9656
46.0106
48.3804
50.8232
53.066
55.0603
57.0326
58.8629
60.2742
61.4266
61.9348
63.0041
62.942
63.3666
63.0963
63.0867
61.8507
60.7537
59.9906
59.8286
55.5151
50.6539
51.2048
49.4867
48.7035
49.1998
47.198
49.5907
47.6501
47.3774
47.2266
46.6395
45.896
44.887
44.0653
43.8193
41.3974
40.3062
37.5541
36.5049
35.877
33.1688
32.4263
29.9944
66.9531
66.4756
64.6473
62.9087
61.8663
61.6099
61.7543
62.2385
62.719
63.1122
63.4102
63.476
63.5099
63.5211
63.3601
63.2582
63.2171
63.1052
63.073
63.0028
63.023
63.0195
62.9274
63.0072
62.9842
62.9225
62.9459
62.926
62.907
62.8795
62.809
62.794
62.7456
62.6449
62.6359
62.5495
62.4487
62.3991
62.2838
62.2096
62.1371
62.036
61.984
61.9164
61.8461
61.8453
61.8306
61.8187
61.8523
61.8579
61.9023
61.9574
61.9853
62.058
62.1122
62.1358
62.2449
62.2956
62.3522
62.488
62.4924
62.5969
62.6563
62.6402
62.7483
62.673
62.6295
62.6782
62.5092
62.4762
62.3948
62.1511
62.0994
61.8914
61.6568
61.5814
61.3033
61.0935
61.0163
60.7248
60.5784
60.4501
60.1374
60.0466
59.9063
59.5905
59.5357
59.3631
59.0635
59.0362
58.8495
58.6046
58.6079
58.4382
58.2747
58.3054
58.1408
58.0757
58.1314
57.9802
57.9347
57.9892
57.8756
57.8301
57.8489
57.731
57.6546
57.5748
57.4117
57.2936
57.1377
56.9595
56.7516
56.5102
56.2591
55.9951
55.6943
55.4007
55.1483
54.9223
54.7195
54.5445
54.4181
54.3511
54.3264
54.4101
54.5641
54.8023
55.1169
55.4314
55.7713
56.1215
56.5043
56.8531
57.1069
57.2407
57.2019
56.952
56.4673
55.7369
54.7298
53.4993
52.0483
50.4605
48.7523
46.9623
45.2244
43.5587
42.0033
40.7612
39.7657
39.1118
38.8965
39.2356
40.1653
41.4891
43.2613
45.5094
48.1196
50.7468
53.2484
55.4361
57.5013
59.242
60.6914
62.0091
62.4407
63.3355
63.5653
63.7856
63.0831
62.9629
62.1307
60.7669
58.9406
58.5068
53.8471
53.5123
53.9929
52.4397
51.793
52.7576
51.3488
52.1191
50.733
49.1143
48.5298
47.2126
45.9057
44.08
43.2447
42.8332
40.8154
39.8902
37.6295
37.2506
35.7433
33.7094
33.2282
30.4047
66.8234
66.3402
64.5548
62.9652
62.0237
61.8232
62.0157
62.4385
62.8602
63.1916
63.4339
63.4779
63.4718
63.4574
63.3212
63.2175
63.168
63.081
63.0422
62.9906
63.0007
62.9885
62.918
62.9675
62.9432
62.9005
62.899
62.8821
62.8701
62.824
62.7825
62.7464
62.7043
62.634
62.596
62.5379
62.4451
62.3919
62.3135
62.2358
62.1837
62.1018
62.0427
61.9954
61.9226
61.9154
61.8978
61.8764
61.8974
61.8934
61.9216
61.9667
61.9765
62.0364
62.0693
62.0965
62.1862
62.2216
62.291
62.3807
62.4124
62.493
62.54
62.5487
62.6321
62.5809
62.5538
62.569
62.4571
62.4143
62.3211
62.1423
62.0471
61.8551
61.6511
61.533
61.2682
61.0847
60.9423
60.6874
60.5311
60.3632
60.1111
60.0004
59.8404
59.5972
59.5241
59.3726
59.1444
59.1262
58.9872
58.8197
58.8357
58.7163
58.6076
58.6361
58.5469
58.4887
58.5409
58.4568
58.4105
58.4622
58.3985
58.3567
58.357
58.2696
58.1823
58.1017
57.9632
57.8198
57.6732
57.4749
57.2492
57.0051
56.7247
56.417
56.0982
55.7734
55.4792
55.1862
54.9311
54.7198
54.5383
54.4174
54.3574
54.3833
54.5125
54.7367
55.0215
55.3285
55.6406
55.973
56.3336
56.6972
56.9966
57.1522
57.1072
56.8136
56.2796
55.5145
54.4841
53.2066
51.7273
50.0892
48.3264
46.5177
44.7238
43.0238
41.4706
40.1523
39.1539
38.5278
38.3326
38.7011
39.6199
41.0031
42.8933
45.2609
48.0077
50.8272
53.3607
55.4532
57.5924
59.6446
61.1411
62.1878
62.6418
63.2548
63.691
63.7674
63.302
62.6143
61.0854
60.3
57.8923
57.9911
53.9875
57.0992
55.7094
54.1583
54.7655
54.5186
52.395
52.3676
51.9345
50.2221
48.5123
46.4287
45.0439
43.3787
42.8344
42.1596
40.6285
39.4758
37.0285
37.8547
35.2808
33.7337
33.4889
30.2927
66.4096
65.9544
64.3565
63.0493
62.3002
62.1684
62.3815
62.7225
63.05
63.2931
63.4464
63.4569
63.4227
63.3666
63.2622
63.1782
63.1096
63.0661
63.0196
62.9864
62.9956
62.9554
62.9322
62.9369
62.9061
62.8908
62.8509
62.8432
62.8279
62.772
62.7565
62.7006
62.6606
62.617
62.5561
62.5277
62.4503
62.3983
62.3424
62.2663
62.2219
62.1497
62.097
62.0494
61.9953
61.9754
61.9531
61.9341
61.9357
61.9282
61.9468
61.9629
61.9748
62.0118
62.0264
62.0676
62.1194
62.1556
62.2287
62.2813
62.337
62.4074
62.4299
62.4797
62.4947
62.4929
62.5036
62.4625
62.418
62.3698
62.2518
62.1557
62.0074
61.8244
61.6716
61.4771
61.2674
61.0787
60.8703
60.6625
60.4773
60.2813
60.0913
59.9396
59.7708
59.6084
59.5067
59.3639
59.2471
59.1966
59.1048
59.0369
59.025
58.9741
58.9371
58.9432
58.9201
58.8936
58.9146
58.9067
58.8806
58.8976
58.8904
58.8471
58.8174
58.7662
58.6789
58.5852
58.4644
58.3163
58.1496
57.9432
57.7053
57.4281
57.1053
56.7593
56.4104
56.0601
55.7236
55.4146
55.1302
54.8771
54.6472
54.4795
54.3831
54.3793
54.4873
54.6981
54.9717
55.2577
55.573
55.9017
56.243
56.5699
56.8376
57.0143
57.0042
56.7288
56.1856
55.3788
54.3062
52.9966
51.4846
49.8182
48.0495
46.2295
44.4304
42.7384
41.1782
39.8584
38.8817
38.2671
38.1246
38.541
39.5065
40.958
42.9029
45.3332
48.1282
50.9659
53.5193
55.6485
57.6763
59.5187
61.0993
62.2712
62.7218
63.2301
63.5764
63.4423
62.8144
62.1846
60.862
59.9532
57.7909
58.2079
55.5403
57.8081
56.165
55.5009
56.183
54.9832
52.2087
52.5368
52.4708
50.1003
48.3117
45.8389
44.5269
43.0217
42.7201
41.3737
40.4881
38.4552
36.4353
38.8311
35.0414
33.8554
33.494
29.8743
65.643
65.3225
64.1621
63.2508
62.7672
62.6697
62.8347
63.0461
63.2383
63.3759
63.432
63.4086
63.3577
63.2812
63.2
63.1433
63.0711
63.0511
63.0148
62.9868
62.9913
62.9384
62.9314
62.909
62.8645
62.8649
62.8145
62.803
62.7933
62.7334
62.7269
62.6706
62.6274
62.6051
62.5395
62.5143
62.459
62.3987
62.3595
62.2935
62.2461
62.1983
62.1401
62.1028
62.0573
62.0256
62.0041
61.9765
61.9687
61.9554
61.9564
61.9631
61.9638
61.9864
61.994
62.0296
62.0687
62.0974
62.1703
62.2055
62.2674
62.3327
62.3532
62.4209
62.4311
62.4339
62.4579
62.4023
62.378
62.316
62.2022
62.1119
61.9656
61.8067
61.6619
61.4413
61.2545
61.0591
60.8227
60.6348
60.4341
60.2234
60.0641
59.8919
59.7251
59.6161
59.4896
59.3771
59.326
59.2589
59.2141
59.2147
59.1936
59.1936
59.2125
59.207
59.2177
59.2336
59.2416
59.268
59.27
59.2708
59.279
59.2454
59.2082
59.1624
59.0754
58.971
58.8484
58.6851
58.4976
58.2884
58.0293
57.7317
57.3901
57.018
56.6347
56.2525
55.8969
55.5674
55.267
54.9996
54.7595
54.5669
54.4529
54.4327
54.5265
54.719
54.9537
55.1992
55.4793
55.8219
56.1915
56.5192
56.7606
56.8766
56.8236
56.5373
55.9998
55.2113
54.1543
52.8508
51.3391
49.6807
47.9207
46.1145
44.3358
42.6552
41.1292
39.855
38.914
38.3659
38.2881
38.7494
39.7563
41.2793
43.2916
45.7511
48.4802
51.212
53.6101
55.6664
57.6607
59.5481
61.1083
62.1883
62.6006
63.0789
63.3614
63.2079
62.6594
62.0003
60.6724
59.8151
58.2492
58.3813
56.6535
58.1571
56.6268
56.4328
56.2312
54.4622
52.2364
52.8301
52.2952
50.0794
48.0692
45.3553
44.3992
43.2439
42.7369
41.3811
40.6638
37.79
37.1402
39.0737
35.6341
34.6867
33.2925
29.9965
64.8348
64.6598
64.0677
63.5844
63.3119
63.2146
63.2587
63.3266
63.3874
63.4264
63.4095
63.3587
63.2983
63.2186
63.1562
63.1127
63.0533
63.0423
63.0135
62.9878
62.9798
62.9295
62.9205
62.8845
62.8413
62.8404
62.7946
62.7797
62.7649
62.7136
62.6996
62.65
62.6074
62.5863
62.5283
62.5018
62.4613
62.4084
62.3735
62.3164
62.2701
62.2253
62.1741
62.1359
62.0973
62.0644
62.0366
62.01
61.9915
61.9741
61.9662
61.96
61.9563
61.9658
61.9716
62.0006
62.0309
62.0638
62.1245
62.1593
62.2196
62.278
62.3058
62.3665
62.3776
62.3884
62.4083
62.3616
62.3402
62.2812
62.1778
62.0934
61.9481
61.7963
61.6442
61.426
61.2373
61.0344
60.7977
60.6109
60.4053
60.1965
60.0399
59.866
59.7147
59.6155
59.4994
59.4133
59.3812
59.3281
59.3143
59.3404
59.331
59.361
59.4066
59.4044