/*--------------------------------*- C++ -*----------------------------------*\
| =========                 |                                                 |
| \\      /  F ield         | OpenFOAM: The Open Source CFD Toolbox           |
|  \\    /   O peration     | Version:  2.4.0                                 |
|   \\  /    A nd           | Web:      www.OpenFOAM.org                      |
|    \\/     M anipulation  |                                                 |
\*---------------------------------------------------------------------------*/
FoamFile
{
    version     2.0;
    format      ascii;
    class       volScalarField;
    location    "1.48";
    object      k;
}
// * * * * * * * * * * * * * * * * * * * * * * * * * * * * * * * * * * * * * //

dimensions      [0 2 -2 0 0 0 0];

internalField   nonuniform List<scalar> 
8800
(
8.13916
10.2481
8.8248
6.74174
5.80192
4.85094
4.60465
4.06876
3.97918
3.59244
3.61291
3.33232
3.35069
3.12193
3.16902
2.93118
3.02132
2.73037
3.02585
2.53406
1.43755
4.32117
5.358
5.25231
5.15251
4.73273
4.61733
4.2351
4.15889
3.83867
3.80824
3.56954
3.54465
3.37159
3.35959
3.18042
3.22162
3.01456
3.13005
3.00345
0.087112
0.684919
1.63588
1.88156
2.31814
2.41813
2.60031
2.55669
2.64351
2.57343
2.58574
2.52712
2.53881
2.47714
2.47325
2.4003
2.42121
2.31199
2.35184
2.2928
0.00356989
0.06601
0.292102
0.394016
0.592513
0.710132
0.860675
0.900223
1.03209
1.09679
1.15183
1.20133
1.27725
1.30615
1.36999
1.37768
1.42584
1.38837
1.41605
1.39158
0.000147793
0.004811
0.032855
0.053869
0.0787747
0.136177
0.177953
0.19658
0.230559
0.297837
0.316713
0.36371
0.390011
0.424064
0.474015
0.513485
0.57666
0.578547
0.580212
0.583573
2.57575e-05
0.000312452
0.00284566
0.00471318
0.006797
0.0149789
0.0217995
0.0264
0.0317483
0.0478657
0.0537928
0.0685347
0.0771445
0.0824067
0.0969381
0.117734
0.145145
0.160252
0.157864
0.161416
2.16399e-05
4.90931e-05
0.000410335
0.00048886
0.000686371
0.0014324
0.00210406
0.00300617
0.00338413
0.00542716
0.00626266
0.00876692
0.0102207
0.0107203
0.0133342
0.019137
0.0265832
0.0312266
0.0312414
0.0331316
2.28574e-05
4.46334e-05
0.000217408
0.00019854
0.000240867
0.000318088
0.000510892
0.000594688
0.00057069
0.000710042
0.00120244
0.00194731
0.00201455
0.00196915
0.00206518
0.00278884
0.00470678
0.0057295
0.00612555
0.00697583
2.16466e-05
2.65722e-05
8.47567e-05
0.000110994
0.000106873
0.000125722
0.000367806
0.000472923
0.000764446
0.000850285
0.00158814
0.0026097
0.00243217
0.00205739
0.00192819
0.001925
0.00216977
0.00355098
0.00470326
0.00461685
2.09184e-05
2.37112e-05
8.91016e-05
9.51872e-05
7.10448e-05
7.25846e-05
0.000177256
0.000690663
0.000624141
0.000629797
0.000685394
0.00131499
0.00177473
0.00175444
0.00172095
0.00173711
0.00184467
0.00222299
0.00266488
0.00311777
2.09373e-05
2.37559e-05
7.05777e-05
9.74784e-05
8.45403e-05
9.88319e-05
0.000219165
0.000496235
0.00103628
0.000998393
0.00135202
0.00260458
0.00255318
0.00251892
0.00254033
0.00264564
0.00292755
0.00374511
0.00449927
0.0044974
2.15516e-05
2.71603e-05
6.5029e-05
7.86362e-05
0.000148732
0.000165318
0.000247637
0.000334356
0.000571938
0.00101357
0.00202339
0.00202504
0.00206524
0.00213473
0.00225562
0.00279993
0.00304948
0.00348549
0.00347057
0.00347858
2.13021e-05
3.49042e-05
0.000115396
0.000109582
0.000123237
0.000150607
0.000186597
0.000271435
0.000572923
0.00138471
0.00141219
0.00157335
0.00145592
0.00143866
0.0018791
0.00382998
0.00558473
0.00582367
0.00595022
0.00568969
2.12084e-05
5.14075e-05
0.000269868
0.000268336
0.000380777
0.000900857
0.00169006
0.00227436
0.00455858
0.00702091
0.00703676
0.0083561
0.00841388
0.00910295
0.0126701
0.0227234
0.0306067
0.0320923
0.0321745
0.0323727
2.45036e-05
0.000325074
0.00273482
0.00341896
0.00578194
0.0152543
0.0216849
0.0260826
0.0383052
0.0543481
0.0545391
0.0638307
0.0689064
0.0769034
0.0994846
0.135553
0.155354
0.161105
0.16314
0.177904
0.000120099
0.0049488
0.0321306
0.0450184
0.0746388
0.143804
0.171237
0.19343
0.255965
0.311802
0.313155
0.348671
0.372188
0.416447
0.476426
0.547618
0.578926
0.591071
0.596472
0.652786
0.00334537
0.0700893
0.285554
0.377011
0.56252
0.758946
0.830351
0.89269
1.0601
1.12095
1.12684
1.19717
1.25593
1.31415
1.36203
1.41529
1.42872
1.42664
1.43155
1.50056
0.0845067
0.735727
1.58204
1.88055
2.29319
2.4886
2.54351
2.5696
2.65405
2.5955
2.56672
2.54439
2.53849
2.49546
2.46732
2.42886
2.40918
2.34343
2.34204
2.33601
1.40301
4.36773
5.29701
5.28323
5.13498
4.79783
4.59162
4.27441
4.12911
3.84923
3.79926
3.57287
3.52358
3.39809
3.33073
3.18867
3.15427
3.03435
3.00016
2.90489
8.10915
10.2919
8.74088
6.8653
5.69421
4.947
4.53952
4.1479
3.91441
3.6261
3.59728
3.34593
3.30365
3.14795
3.1098
2.93663
2.87661
2.71901
2.6599
2.43329
1.64426
1.25867
1.06477
0.889722
0.806234
0.706028
0.673705
0.615954
0.605765
0.576494
0.574994
0.560404
0.564678
0.554613
0.562617
0.554152
0.565511
0.558213
0.570946
0.562491
0.576557
0.565498
0.582092
0.564717
0.579741
0.540601
0.531793
0.434825
0.408504
0.317956
0.320199
0.271396
0.29419
0.270539
0.316401
0.307292
0.354709
0.343396
0.375932
0.357064
0.373201
0.354868
0.367282
0.354216
0.363818
0.356576
0.367212
0.359681
0.360213
0.345308
0.33364
0.303478
0.29382
0.2861
0.289945
0.30006
0.32471
0.349338
0.34855
0.333525
0.270049
0.207194
0.183079
0.164004
0.155842
0.144075
0.139806
0.131141
0.128064
0.121637
0.118499
0.111414
0.107433
0.0997627
0.0960781
0.0913839
0.0898556
0.0879216
0.0879232
0.087699
0.0878773
0.0888964
0.0912677
0.093906
0.0951067
0.096622
0.0959848
0.0954905
0.0939608
0.093295
0.091492
0.0908391
0.0895362
0.0888455
0.0889134
0.0949286
0.108252
0.113494
0.114436
0.114753
0.114413
0.110871
0.10562
0.0984021
0.0929988
0.0908661
0.0911088
0.101298
0.110979
0.108151
0.091339
0.079981
0.0643774
0.0591819
0.0627572
0.129852
0.19352
0.202669
0.193661
0.192174
0.20144
0.234609
0.258991
0.242845
0.198685
0.155109
0.132462
0.115252
0.108289
0.100461
0.0914862
0.0864219
0.082606
0.0738675
0.0711333
0.0665625
0.0586071
0.0548915
0.0526228
0.0520921
0.0538044
0.059656
0.0659676
0.0712156
0.0716737
0.0685195
0.0633729
0.0633768
0.0699221
0.107431
0.238679
0.322362
0.329623
0.316977
0.286487
0.244639
0.20497
0.176618
0.161951
0.156926
0.15507
0.155018
0.156753
0.15875
0.162224
0.165094
0.16155
0.146795
0.13952
0.139245
0.139616
0.137995
0.134041
0.131047
0.133099
0.143832
0.150873
0.151609
0.143767
0.115208
0.0946666
0.0775487
0.0608101
0.0496858
0.0438692
0.0396989
0.0353417
0.0317201
0.0294059
0.0268557
0.0252126
0.0249054
0.0254714
0.0277998
0.040028
0.0621494
0.0776476
0.111862
0.278507
1.36453
2.50722
2.04138
1.74084
1.49303
1.34493
1.18839
1.11705
1.00713
0.97132
0.895252
0.871533
0.815267
0.79972
0.756958
0.746122
0.711114
0.70396
0.674394
0.671042
0.647294
0.649809
0.634654
0.647324
0.636537
0.660893
0.649801
0.679374
0.650467
0.666388
0.595517
0.583407
0.477768
0.461979
0.379813
0.387901
0.359584
0.374953
0.359502
0.366444
0.354624
0.354941
0.351825
0.356758
0.363
0.361759
0.361789
0.351541
0.347138
0.323879
0.312518
0.270705
0.250192
0.207285
0.197208
0.176043
0.176838
0.179574
0.194535
0.241349
0.277517
0.277975
0.270295
0.250472
0.202265
0.178216
0.155569
0.144942
0.134141
0.127516
0.118509
0.113521
0.106743
0.102199
0.0975754
0.0944909
0.0919777
0.0917668
0.0913178
0.0915665
0.0907915
0.0906234
0.0900373
0.0902727
0.0908867
0.0927039
0.0933437
0.093186
0.0923661
0.0895401
0.0844321
0.0788012
0.0755411
0.0731518
0.072531
0.0722961
0.0725629
0.0746696
0.0811113
0.0875773
0.0922551
0.0953827
0.0959821
0.0962302
0.0933938
0.0910081
0.090288
0.0908573
0.0979961
0.101576
0.0945053
0.0710251
0.0652032
0.0612046
0.0560271
0.0572281
0.0900454
0.167174
0.193436
0.189698
0.183599
0.181792
0.194284
0.233195
0.227786
0.198991
0.156565
0.133059
0.117061
0.108835
0.101441
0.092852
0.0859561
0.0816122
0.0722669
0.0680831
0.061303
0.0544539
0.0508255
0.0488776
0.0491697
0.0526344
0.0595342
0.068992
0.0725244
0.0716791
0.0661565
0.0630722
0.0654587
0.0844418
0.191415
0.326277
0.348391
0.337
0.306145
0.25538
0.203364
0.173337
0.155117
0.148234
0.145106
0.144237
0.14447
0.1461
0.148589
0.148659
0.149848
0.149144
0.138015
0.126976
0.123756
0.127119
0.134477
0.134477
0.133772
0.13439
0.140521
0.149123
0.151259
0.146811
0.118565
0.0960136
0.0764808
0.0591366
0.0502617
0.045262
0.0430407
0.0390909
0.0338174
0.0302562
0.0269037
0.0252993
0.0249557
0.0251638
0.027578
0.0372514
0.052985
0.0812847
0.0999016
0.247212
0.721987
2.06305
1.81998
1.64437
1.44768
1.34575
1.20359
1.14761
1.04179
1.00522
0.92811
0.901238
0.839866
0.818481
0.766517
0.749623
0.705407
0.692447
0.653331
0.644072
0.611076
0.606265
0.580684
0.583507
0.567914
0.581943
0.575097
0.603814
0.601588
0.6389
0.626774
0.649577
0.618403
0.616387
0.572386
0.551583
0.505098
0.462959
0.446286
0.413867
0.410048
0.393702
0.401024
0.389488
0.393524
0.374364
0.367316
0.327847
0.311138
0.261431
0.236741
0.176977
0.145213
0.10155
0.0925956
0.0858126
0.0893478
0.0915935
0.0986365
0.108623
0.127314
0.184174
0.220514
0.22685
0.223221
0.216376
0.195086
0.174519
0.155394
0.140702
0.129817
0.123122
0.117027
0.112529
0.108782
0.106304
0.103846
0.101829
0.097508
0.0957148
0.0919493
0.0904622
0.0863794
0.0853117
0.0831844
0.0826838
0.0817424
0.0800671
0.0739138
0.0681614
0.064079
0.0605713
0.0589775
0.0581585
0.058421
0.0585015
0.0588347
0.0592546
0.0591948
0.0590818
0.061825
0.0701776
0.0750458
0.0784569
0.0794811
0.0802015
0.0821322
0.0834236
0.0841052
0.0865346
0.0828669
0.0643208
0.051418
0.0495592
0.0498973
0.0535234
0.0663176
0.139567
0.176102
0.183916
0.17312
0.169708
0.168174
0.185252
0.201323
0.192303
0.165328
0.137664
0.121629
0.108465
0.100651
0.091097
0.0828385
0.0755866
0.0682987
0.0637275
0.0561906
0.0505547
0.0479114
0.0473171
0.0481886
0.0534484
0.0654582
0.0728833
0.0730931
0.0704577
0.0636625
0.0634988
0.0717548
0.121785
0.299734
0.362944
0.357978
0.334205
0.280478
0.229551
0.18979
0.163976
0.149478
0.145155
0.141311
0.140578
0.141089
0.142007
0.147759
0.148925
0.149471
0.148868
0.139419
0.125308
0.117335
0.116641
0.124411
0.132537
0.134056
0.135776
0.141199
0.150643
0.152696
0.147226
0.118653
0.0935869
0.0720558
0.0585947
0.0525137
0.0503895
0.048125
0.0421879
0.0367732
0.0314504
0.0276362
0.0266654
0.0260713
0.0274173
0.0290994
0.0399156
0.0501786
0.0983505
0.103657
0.185872
0.428752
1.30286
1.20634
1.1316
1.03537
0.978481
0.899864
0.863822
0.800529
0.776335
0.727973
0.709107
0.667773
0.65118
0.613823
0.598006
0.561774
0.547687
0.513646
0.501155
0.470262
0.460162
0.434186
0.428348
0.410873
0.410929
0.40859
0.414376
0.422256
0.441571
0.478471
0.503717
0.546459
0.551577
0.560083
0.539715
0.538938
0.505788
0.500752
0.464695
0.461168
0.431637
0.425641
0.389455
0.37585
0.328016
0.302365
0.235561
0.204897
0.141591
0.108732
0.0725894
0.060409
0.0474105
0.0458819
0.0431519
0.0439211
0.0447906
0.0488165
0.0525772
0.0601427
0.0698912
0.0840703
0.116208
0.158202
0.173211
0.174858
0.172433
0.167893
0.157282
0.147681
0.136031
0.127916
0.121318
0.11648
0.111115
0.107177
0.103348
0.0981028
0.0942799
0.0880564
0.0846177
0.0775068
0.0699767
0.0620514
0.0582178
0.0522724
0.047801
0.0430985
0.0411645
0.0405654
0.0405746
0.0406566
0.0407605
0.0425687
0.0442718
0.0460693
0.0468566
0.0478731
0.0481511
0.0486855
0.0495798
0.0538339
0.0577232
0.0608029
0.061766
0.0655894
0.0658504
0.0630067
0.0629847
0.0627135
0.0550112
0.0454285
0.0429165
0.0423216
0.0450365
0.054111
0.104541
0.15986
0.177182
0.171472
0.158757
0.155021
0.154355
0.165798
0.168346
0.16035
0.138314
0.123236
0.106801
0.0951382
0.0864443
0.0809148
0.0726844
0.0678849
0.0597668
0.0521269
0.0481636
0.0466756
0.0468494
0.0502224
0.0622247
0.0720678
0.0742901
0.0732833
0.066745
0.0627196
0.0649972
0.089191
0.227054
0.365982
0.379878
0.363309
0.316981
0.270313
0.22309
0.186321
0.160665
0.148007
0.14421
0.14065
0.139338
0.139485
0.140461
0.143269
0.16032
0.163722
0.161693
0.152054
0.130962
0.118815
0.116376
0.121079
0.130582
0.136495
0.139716
0.144808
0.151651
0.153475
0.145546
0.119871
0.092908
0.0729948
0.0594864
0.0536436
0.0512377
0.0488806
0.0441162
0.0388508
0.0338256
0.0301928
0.0302333
0.0300457
0.0396746
0.040454
0.0640535
0.0633381
0.157177
0.126234
0.13949
0.251449
0.561782
0.541351
0.503569
0.485126
0.449075
0.434116
0.407516
0.398131
0.378945
0.372498
0.359298
0.354157
0.342692
0.337802
0.325289
0.319501
0.305536
0.299416
0.284028
0.278227
0.262865
0.257633
0.243188
0.239753
0.227699
0.228507
0.225307
0.23269
0.234141
0.254364
0.261461
0.300152
0.31347
0.367166
0.373131
0.401748
0.390772
0.393093
0.371881
0.363517
0.327451
0.307519
0.255242
0.229299
0.174602
0.136641
0.0951904
0.0732411
0.0520066
0.0409912
0.0316435
0.0280478
0.0253411
0.0254849
0.0256909
0.0269155
0.0277765
0.0300279
0.0314588
0.0348241
0.0373457
0.0422261
0.0473648
0.0597263
0.0693306
0.0948791
0.112442
0.125129
0.126801
0.12699
0.124847
0.122597
0.116461
0.112842
0.105114
0.101064
0.0918571
0.0866921
0.0767227
0.0675306
0.0566351
0.0455773
0.0382327
0.0340752
0.0325414
0.0310119
0.0306638
0.0306144
0.0311593
0.0332398
0.0343655
0.0348695
0.0357274
0.0386021
0.0398545
0.0412695
0.041678
0.0425113
0.0426009
0.0433825
0.0440407
0.0454974
0.0460466
0.04783
0.0478141
0.0489946
0.0529968
0.0538156
0.0518488
0.0504647
0.0452821
0.0408054
0.0393841
0.0391854
0.039754
0.0451774
0.0673098
0.134538
0.157959
0.164171
0.151248
0.147823
0.135516
0.138276
0.137938
0.137258
0.126282
0.115957
0.103411
0.0917329
0.0858832
0.0790064
0.0712511
0.0641477
0.0546856
0.0492039
0.0470201
0.0468081
0.0488681
0.0593556
0.070774
0.0754663
0.0748551
0.0705405
0.0624353
0.0623093
0.0720942
0.134157
0.338795
0.402894
0.392433
0.348405
0.308951
0.268313
0.22296
0.186015
0.159788
0.147942
0.143885
0.140951
0.139223
0.13762
0.138475
0.143167
0.162463
0.180251
0.184024
0.180142
0.15461
0.127467
0.119534
0.122621
0.131219
0.138068
0.142013
0.153745
0.158105
0.158788
0.146197
0.119406
0.0911991
0.0710607
0.058605
0.0553498
0.0535193
0.0524513
0.0502669
0.0432661
0.0447027
0.0392134
0.0582472
0.0555068
0.110527
0.0847181
0.165795
0.120467
0.157637
0.157328
0.150968
0.1877
0.155359
0.149656
0.136965
0.131682
0.120378
0.11611
0.107785
0.105959
0.102785
0.103318
0.102894
0.104037
0.104065
0.105431
0.104623
0.105435
0.104088
0.104681
0.102685
0.103384
0.100705
0.101571
0.0988494
0.100183
0.0974721
0.100074
0.0981373
0.102535
0.102397
0.109665
0.111302
0.123317
0.127433
0.145449
0.1493
0.163748
0.162615
0.163478
0.155902
0.149577
0.131119
0.117706
0.0937671
0.0772019
0.0591557
0.0466006
0.0355391
0.0280985
0.0225369
0.0189433
0.0170509
0.016945
0.0173054
0.0189987
0.0203206
0.0220075
0.0233709
0.0247576
0.0269213
0.0284679
0.0305725
0.0316628
0.0346086
0.0363267
0.040927
0.0455604
0.0529687
0.0591905
0.0678425
0.074523
0.0779615
0.0778001
0.0769867
0.0740305
0.0703222
0.0640085
0.0576003
0.049721
0.0413417
0.0350645
0.0303116
0.0279432
0.0265651
0.0266919
0.0270108
0.0275566
0.0279782
0.0284567
0.0299332
0.0323447
0.0335052
0.0341101
0.0352844
0.0379225
0.0395869
0.0405639
0.0411257
0.0415877
0.0416844
0.0415742
0.0418583
0.0417439
0.0415613
0.0418147
0.0420501
0.0422844
0.0453274
0.0474272
0.0449421
0.043288
0.0411514
0.0394823
0.0379865
0.0386303
0.038401
0.04144
0.0501333
0.10192
0.13745
0.154525
0.148312
0.141511
0.127478
0.125151
0.119075
0.118012
0.111115
0.103727
0.0969349
0.0874829
0.0835129
0.074684
0.0674753
0.0589849
0.0517376
0.0493923
0.049181
0.0506239
0.060587
0.0720969
0.0769318
0.0766597
0.073855
0.0636957
0.0607802
0.0642205
0.0917033
0.242661
0.402677
0.415772
0.376973
0.328632
0.306457
0.276412
0.23461
0.191081
0.161452
0.149196
0.143481
0.140765
0.138575
0.136984
0.137711
0.145403
0.166954
0.179754
0.183471
0.180604
0.167711
0.139907
0.128032
0.127618
0.133402
0.142151
0.149059
0.159128
0.163328
0.1596
0.144623
0.112549
0.087365
0.0676589
0.0585504
0.0573806
0.0548111
0.0566634
0.0558905
0.0582294
0.102934
0.0801106
0.137842
0.114858
0.204141
0.173326
0.178715
0.167817
0.168556
0.181328
0.176424
0.189669
0.0316083
0.029824
0.026587
0.0249738
0.0223556
0.0210513
0.0198918
0.0195816
0.0193919
0.0195928
0.0212046
0.0232235
0.0255571
0.0277784
0.029424
0.0312362
0.0320483
0.0331622
0.0334373
0.034044
0.0340025
0.0346502
0.0346396
0.0357546
0.0357931
0.0375031
0.0377257
0.0398194
0.0402455
0.0430826
0.043594
0.0469768
0.0478972
0.0520765
0.0529388
0.0561787
0.055659
0.0552809
0.0524762
0.0496548
0.0433712
0.0378971
0.0320192
0.0270102
0.0223566
0.0188198
0.0159234
0.0138388
0.0123806
0.0119688
0.0119901
0.0129864
0.0145369
0.0167969
0.0184872
0.0199051
0.0213208
0.0222259
0.0239964
0.0249265
0.0270116
0.0279146
0.0300009
0.0309183
0.033561
0.0349563
0.0381455
0.0399469
0.0440641
0.0471012
0.0486525
0.0481626
0.047458
0.0453759
0.0427361
0.0383668
0.0342429
0.0299235
0.0268891
0.0251609
0.0243915
0.0247175
0.0250985
0.0269612
0.0279192
0.0304238
0.0313474
0.0333323
0.0352362
0.0377274
0.0380463
0.0377585
0.0375421
0.0386925
0.0422955
0.0432056
0.0436771
0.0429084
0.0421604
0.0402644
0.0400313
0.039503
0.0391052
0.0386651
0.0391845
0.0393817
0.0400875
0.0407725
0.0376322
0.0346557
0.0336772
0.0354248
0.0369779
0.0423824
0.042161
0.0425355
0.0442668
0.0614327
0.110906
0.141035
0.143001
0.139245
0.127599
0.121105
0.113386
0.107803
0.103853
0.097975
0.0903665
0.0854427
0.0789444
0.0719096
0.0650585
0.0573138
0.0538926
0.0538317
0.0552342
0.06658
0.0765061
0.0790335
0.0788797
0.0758821
0.0648085
0.0588581
0.0599837
0.0734369
0.144504
0.360559
0.431759
0.413508
0.332657
0.320777
0.320396
0.308724
0.263037
0.206651
0.165908
0.150592
0.145175
0.142879
0.139083
0.137842
0.140717
0.149482
0.162278
0.172006
0.17823
0.175998
0.162114
0.151814
0.140091
0.137775
0.139895
0.146258
0.155425
0.167214
0.171734
0.160044
0.140219
0.11174
0.0824328
0.0679357
0.0586548
0.0592646
0.0582518
0.0619877
0.0685495
0.0731007
0.160863
0.147486
0.236739
0.202765
0.224045
0.214244
0.198605
0.177844
0.176424
0.190583
0.18685
0.194488
0.00680209
0.00658316
0.00611562
0.00593054
0.00551304
0.00540946
0.00521052
0.00514612
0.00508893
0.00507894
0.0051922
0.0054829
0.00633538
0.00701425
0.00841323
0.00949408
0.0111607
0.0124516
0.0139109
0.0149579
0.0158021
0.0164228
0.0167193
0.0170525
0.0170268
0.0172702
0.0172644
0.0176742
0.0177864
0.0185411
0.0187237
0.019607
0.0198056
0.0206564
0.0206217
0.0209046
0.0206388
0.0203234
0.0194242
0.0180905
0.0167893
0.015665
0.0144349
0.0132165
0.0119875
0.0108936
0.0100914
0.00971696
0.00962752
0.00972466
0.0102609
0.0122102
0.0140372
0.016183
0.017498
0.0188522
0.0195936
0.0204655
0.0208984
0.0218574
0.0225465
0.0235404
0.0242856
0.0259637
0.0267808
0.0281569
0.0287162
0.0298784
0.0318256
0.0337359
0.0339162
0.0338654
0.0332858
0.0321331
0.0296224
0.0269489
0.0246919
0.0232628
0.0230103
0.0231948
0.0237472
0.0256146
0.0281502
0.0341799
0.0374091
0.043275
0.0459163
0.0491453
0.0491099
0.048822
0.0472669
0.0454282
0.0451873
0.045374
0.0467947
0.0467699
0.0463277
0.0434084
0.041631
0.039549
0.0389308
0.0383364
0.037392
0.0362566
0.036163
0.0358113
0.033593
0.0322739
0.0300413
0.0295104
0.0296818
0.0318405
0.0381516
0.0445614
0.0466855
0.0441714
0.0433238
0.0467593
0.0638801
0.109552
0.132727
0.133342
0.128589
0.120975
0.113125
0.104027
0.101386
0.0947303
0.0886466
0.0852663
0.0768574
0.0708868
0.0639069
0.0604027
0.0606618
0.063854
0.0754715
0.0817006
0.0818767
0.0809803
0.076121
0.0640392
0.0566063
0.0568625
0.0637379
0.100444
0.274357
0.418923
0.433513
0.361107
0.312217
0.322774
0.359194
0.354617
0.297377
0.215564
0.16562
0.154209
0.151531
0.149199
0.143104
0.14143
0.145316
0.156115
0.165633
0.171157
0.172536
0.177719
0.167214
0.157223
0.153103
0.154041
0.154354
0.163956
0.179358
0.180335
0.177119
0.16133
0.127969
0.109889
0.07663
0.0711873
0.061888
0.0642102
0.0638644
0.0649033
0.0883844
0.0916353
0.164116
0.171587
0.197934
0.199952
0.189958
0.204823
0.194813
0.19143
0.180467
0.194032
0.191659
0.194934
0.00441801
0.00425173
0.00415867
0.00414032
0.00413848
0.00418312
0.00421271
0.00429951
0.0043281
0.00439845
0.00439575
0.00440072
0.00436958
0.00427251
0.004202
0.00426775
0.00499972
0.00635864
0.00774217
0.00926613
0.0105709
0.0118036
0.0127408
0.0134671
0.0139547
0.0142703
0.0143678
0.0143707
0.0139448
0.0136244
0.0130543
0.0129648
0.0128341
0.0128837
0.0128181
0.0128164
0.0127199
0.0126283
0.0123595
0.0121467
0.0119419
0.0116322
0.0109198
0.0101239
0.00945639
0.00895666
0.00876854
0.0087458
0.00885475
0.00909645
0.0105898
0.0123559
0.0145341
0.0159487
0.0173526
0.0180561
0.0184691
0.018607
0.0187341
0.0190272
0.0192723
0.0199588
0.0204586
0.0218183
0.022528
0.0239434
0.0244045
0.0255187
0.025889
0.026709
0.0266653
0.0265241
0.0257744
0.0247582
0.0227562
0.0216977
0.0216772
0.0219136
0.0226872
0.0246007
0.0291878
0.0371375
0.0511811
0.0635602
0.0768056
0.0866352
0.0885309
0.0871632
0.083777
0.0739328
0.0666892
0.0621862
0.0587186
0.0550513
0.052224
0.0496807
0.0465972
0.0449745
0.0433607
0.0411944
0.0390975
0.0371704
0.0351557
0.0323022
0.0313068
0.0305446
0.0296953
0.0290081
0.0292816
0.0292334
0.029591
0.0305606
0.0341212
0.040667
0.0485777
0.0476653
0.0439011
0.0434633
0.0471188
0.0605359
0.101203
0.11982
0.122402
0.12047
0.114452
0.106184
0.101821
0.0931981
0.0898353
0.0848811
0.0767644
0.0732669
0.0715721
0.0726385
0.0789884
0.0831582
0.0852486
0.0848017
0.0824915
0.0742589
0.0596424
0.0532591
0.0534569
0.0575608
0.0810587
0.191575
0.390707
0.439906
0.401074
0.308347
0.299691
0.358843
0.416347
0.397618
0.326409
0.218697
0.164242
0.159424
0.156517
0.153204
0.1462
0.144779
0.147967
0.158789
0.1602
0.172591
0.168439
0.171366
0.173269
0.164585
0.163013
0.173741
0.179181
0.178537
0.191693
0.187084
0.172636
0.157327
0.112518
0.0977681
0.0748842
0.0735833
0.069123
0.0696766
0.0694941
0.0723511
0.118371
0.114544
0.130375
0.164463
0.158004
0.176765
0.169117
0.187012
0.17879
0.196102
0.194516
0.202576
0.20532
0.201868
0.00338323
0.00350141
0.00366128
0.00381768
0.003977
0.0041135
0.00423604
0.00430952
0.00434195
0.00434165
0.00432354
0.00427803
0.00422944
0.00414119
0.00408082
0.004056
0.00425365
0.00516809
0.00614163
0.00715632
0.00789884
0.00864017
0.00904817
0.00954832
0.00972967
0.0100639
0.010156
0.010348
0.0103803
0.0104592
0.010461
0.0105059
0.0105183
0.0106135
0.0107172
0.0109058
0.0109223
0.0109185
0.0108626
0.0107908
0.0104359
0.00989558
0.00929672
0.00888182
0.00859389
0.00845203
0.00844268
0.00846417
0.00881446
0.00944442
0.0112872
0.0123382
0.0145176
0.0154102
0.0172574
0.0179232
0.0190441
0.0192875
0.019547
0.0195013
0.0195365
0.0195848
0.0196982
0.0205488
0.0212473
0.0219344
0.0223347
0.0226737
0.0226103
0.0224439
0.0217832
0.0213033
0.0200483
0.0197158
0.0198344
0.0203335
0.0213984
0.0240044
0.0296327
0.0401284
0.0617736
0.0919073
0.1228
0.154504
0.178218
0.181326
0.178739
0.17006
0.15004
0.124866
0.106768
0.0967433
0.0834655
0.0726593
0.0611343
0.056087
0.0509186
0.0492369
0.0457229
0.042803
0.0401101
0.0369228
0.0346746
0.0320444
0.031091
0.0307086
0.0312842
0.0314328
0.0323704
0.0324769
0.0326141
0.0328425
0.0349481
0.0399484
0.0467724
0.0473409
0.0446734
0.0414518
0.0418445
0.045673
0.0577136
0.0837211
0.104961
0.112392
0.111296
0.109069
0.103043
0.0978836
0.0967045
0.0909987
0.0876719
0.0869616
0.0870126
0.0878103
0.0874651
0.087049
0.0853656
0.0812291
0.0673892
0.0528048
0.0485875
0.0492872
0.0529433
0.0703838
0.137664
0.350687
0.445217
0.442334
0.333417
0.267418
0.285895
0.422112
0.477362
0.447053
0.363997
0.225287
0.166357
0.160364
0.160313
0.157686
0.150981
0.143408
0.149161
0.158536
0.155602
0.160701
0.168206
0.164582
0.16956
0.172465
0.179691
0.17878
0.18986
0.193518
0.19508
0.181347
0.148819
0.137565
0.105085
0.086597
0.0818524
0.0818142
0.0796931
0.0715285
0.0808722
0.0818654
0.128848
0.124289
0.13921
0.168164
0.160124
0.173222
0.168995
0.188934
0.179101
0.186842
0.203265
0.211924
0.221813
0.213978
0.00443486
0.00435845
0.00429013
0.00417335
0.00408692
0.00397731
0.00390712
0.0038241
0.00378916
0.00376121
0.00376093
0.00375615
0.00371527
0.0036626
0.00372681
0.00431794
0.00539413
0.00640757
0.00740837
0.00827457
0.00894933
0.00941771
0.00965649
0.00976535
0.00979388
0.00978725
0.00978521
0.00978541
0.00979186
0.00981542
0.0098293
0.00987645
0.00987138
0.00987929
0.00976808
0.00966449
0.00937563
0.0092313
0.00893069
0.00886549
0.00872038
0.00870274
0.00866428
0.00864422
0.00850127
0.00849013
0.00849782
0.00863825
0.0093985
0.0100861
0.011609
0.0124151
0.0142456
0.0152683
0.0173489
0.0188507
0.0206977
0.0212098
0.0214939
0.0214166
0.021296
0.0207393
0.0198733
0.0193473
0.0188016
0.0185365
0.0179803
0.017713
0.0171621
0.0169803
0.0169872
0.017235
0.0176174
0.0183815
0.0197452
0.022694
0.0287514
0.0414689
0.0646639
0.11121
0.169366
0.237423
0.29273
0.331778
0.338476
0.33464
0.322052
0.294591
0.248996
0.204689
0.165168
0.136418
0.108192
0.0884109
0.0727693
0.064247
0.0568909
0.0525016
0.0488867
0.0462689
0.0433635
0.040274
0.0375702
0.0365184
0.0364903
0.0365553
0.0375197
0.0378445
0.0382534
0.03936
0.0393177
0.03872
0.0392859
0.041569
0.0439181
0.0446099
0.043762
0.0400533
0.0392944
0.0404784
0.0442533
0.0558658
0.0730346
0.0853424
0.0989016
0.101978
0.100399
0.0993342
0.0968158
0.094146
0.0922376
0.0901101
0.0892239
0.0865904
0.0833132
0.0794368
0.0709117
0.0556838
0.0454548
0.0435282
0.0446607
0.0488985
0.0647514
0.116373
0.311752
0.449373
0.463662
0.395232
0.248641
0.224409
0.288859
0.482641
0.535173
0.521891
0.410372
0.233052
0.168121
0.159855
0.161216
0.158691
0.156179
0.144424
0.149571
0.14698
0.153266
0.156627
0.161134
0.162647
0.168713
0.172656
0.186063
0.195932
0.195591
0.201559
0.187343
0.175065
0.149895
0.114243
0.104455
0.0870175
0.0912362
0.0846827
0.0804284
0.0718633
0.0982584
0.092323
0.151795
0.145972
0.178353
0.180976
0.182748
0.184898
0.185065
0.214858
0.204815
0.20203
0.205173
0.204031
0.20611
0.199699
0.00354184
0.00366557
0.00399525
0.00432261
0.00461966
0.00482538
0.00496054
0.00501091
0.00502497
0.00499129
0.00486129
0.00474349
0.00469465
0.0047477
0.00521725
0.00589341
0.00664779
0.00729602
0.00791294
0.00832745
0.00863296
0.00875288
0.00879855
0.00875743
0.00844009
0.00804999
0.00764837
0.00736902
0.00719268
0.0071367
0.00712126
0.00722027
0.00750272
0.00797759
0.0083513
0.00875489
0.00900015
0.00929453
0.00947031
0.00956023
0.00960427
0.00965599
0.00970526
0.00979793
0.0100559
0.0103752
0.0110092
0.0120674
0.0134063
0.0143321
0.0153215
0.0159115
0.0170311
0.0177633
0.0187965
0.0194643
0.0200965
0.0203353
0.0204817
0.0204615
0.0203952
0.0198467
0.018653
0.0173998
0.0162197
0.0155078
0.0152104
0.0152005
0.0152931
0.0156435
0.0162069
0.0170743
0.0188262
0.0220151
0.0285811
0.0413158
0.0677994
0.116761
0.199146
0.310031
0.392868
0.438762
0.450935
0.450388
0.442462
0.430532
0.411232
0.382096
0.333562
0.287137
0.237912
0.189811
0.146275
0.117092
0.0942253
0.0777009
0.0662715
0.0614239
0.0597706
0.0572229
0.0529535
0.050695
0.0503782
0.0507705
0.0522188
0.055179
0.0611027
0.0620862
0.0612813
0.059186
0.056683
0.0504071
0.0461172
0.0447234
0.0442883
0.0435776
0.0425593
0.0392074
0.037122
0.0371314
0.0383869
0.0444342
0.050609
0.063171
0.0734676
0.0791096
0.0879985
0.0891581
0.0883255
0.087171
0.0845355
0.0812598
0.0759334
0.0723478
0.0658228
0.0546699
0.0449416
0.0392474
0.039032
0.0405883
0.0458753
0.0625895
0.114417
0.293248
0.460441
0.488986
0.447227
0.267493
0.18001
0.183185
0.305359
0.531389
0.614203
0.608808
0.441528
0.251395
0.178206
0.16296
0.16161
0.159041
0.15893
0.152619
0.144761
0.138945
0.147373
0.152459
0.152055
0.1599
0.167553
0.175002
0.184481
0.198159
0.191017
0.20214
0.194461
0.165683
0.14485
0.103371
0.107872
0.101208
0.0928756
0.0815878
0.0793968
0.0764641
0.142708
0.15581
0.191206
0.174509
0.22412
0.211173
0.238896
0.241973
0.240029
0.246748
0.241509
0.224403
0.197836
0.176123
0.17346
0.171127
0.00545315
0.00519514
0.00495134
0.0046573
0.00445329
0.00424309
0.00412676
0.00409615
0.00408449
0.00410533
0.00418139
0.00460129
0.0053425
0.00655671
0.00788806
0.00917236
0.0107493
0.0118433
0.0131576
0.0136691
0.0141144
0.0141259
0.0140937
0.0139529
0.0134815
0.012872
0.0120593
0.0113427
0.0104913
0.0098396
0.00921585
0.00881062
0.00852723
0.00836386
0.00825847
0.00824862
0.00829208
0.00845016
0.00871246
0.00940269
0.0101164
0.0110886
0.0131146
0.0155713
0.0184138
0.0215597
0.0248846
0.0284303
0.0305529
0.0322552
0.0335703
0.0337866
0.0335803
0.0328981
0.0318056
0.0303056
0.0288439
0.0272612
0.0259409
0.0246736
0.0233613
0.0219304
0.0207331
0.01933
0.0180446
0.0171878
0.0170317
0.0171037
0.0175055
0.0184309
0.0207762
0.024311
0.0323158
0.0452599
0.0723462
0.118612
0.212235
0.358253
0.447988
0.496234
0.504705
0.502138
0.491067
0.479955
0.460217
0.450553
0.434126
0.419679
0.388404
0.347332
0.293139
0.238674
0.185425
0.144922
0.113973
0.0957793
0.0893696
0.0883696
0.0828638
0.0752704
0.0731044
0.0738126
0.0770753
0.0858328
0.100559
0.11766
0.1251
0.124422
0.119668
0.10714
0.091261
0.0725245
0.0582521
0.0507466
0.0463109
0.0440375
0.042011
0.038912
0.0361974
0.0352991
0.035517
0.036858
0.0415827
0.0466285
0.049401
0.0586088
0.0631866
0.063775
0.0646177
0.0639047
0.0619174
0.0597047
0.0569416
0.0513023
0.0430439
0.0368091
0.034789
0.0351531
0.0375052
0.0456045
0.067779
0.127104
0.31683
0.487122
0.523208
0.492026
0.304313
0.162004
0.125561
0.144629
0.311395
0.5957
0.719829
0.674719
0.49651
0.335092
0.210986
0.172874
0.164204
0.161963
0.163149
0.152249
0.138537
0.140621
0.141365
0.141914
0.152353
0.156306
0.161297
0.169312
0.178303
0.204389
0.195879
0.18836
0.18998
0.130388
0.126059
0.111264
0.113724
0.10586
0.0861696
0.0836648
0.112794
0.135745
0.200799
0.220245
0.222065
0.193593
0.261574
0.266013
0.308363
0.307535
0.300497
0.267469
0.23628
0.229015
0.206568
0.194788
0.182927
0.176841
0.0319413
0.0309682
0.0300468
0.02855
0.0275344
0.0265889
0.0263955
0.0264918
0.0266964
0.0274209
0.0282691
0.0308143
0.0336862
0.0374848
0.0410852
0.0444854
0.0480084
0.0502302
0.0519388
0.0521789
0.0522393
0.0517685
0.0508985
0.0491928
0.0466095
0.0445689
0.0413942
0.0393218
0.0364364
0.0344767
0.0322749
0.0304398
0.0286937
0.0277577
0.0276861
0.0278892
0.0285506
0.0301488
0.0320752
0.0362655
0.0392619
0.0447939
0.0517794
0.0580831
0.0649224
0.0728565
0.0795246
0.0843353
0.0890935
0.0918379
0.0919525
0.0912875
0.0890708