/*--------------------------------*- C++ -*----------------------------------*\
| =========                 |                                                 |
| \\      /  F ield         | OpenFOAM: The Open Source CFD Toolbox           |
|  \\    /   O peration     | Version:  2.4.0                                 |
|   \\  /    A nd           | Web:      www.OpenFOAM.org                      |
|    \\/     M anipulation  |                                                 |
\*---------------------------------------------------------------------------*/
FoamFile
{
    version     2.0;
    format      ascii;
    class       volScalarField;
    location    "1.48";
    object      nuSgs;
}
// * * * * * * * * * * * * * * * * * * * * * * * * * * * * * * * * * * * * * //

dimensions      [0 2 -1 0 0 0 0];

internalField   nonuniform List<scalar> 
8800
(
0.00134087
0.0015046
0.00139621
0.00122035
0.0011321
0.00103517
0.00100855
0.000948045
0.000937551
0.000890826
0.00089336
0.000857968
0.000860329
0.000830442
0.000836681
0.000804673
0.000816952
0.00077662
0.000817564
0.000748181
0.000563521
0.000977009
0.00108793
0.00107714
0.00106686
0.00102248
0.00100993
0.000967229
0.000958488
0.000920848
0.000917191
0.000887982
0.00088488
0.000863009
0.000861472
0.000838185
0.000843597
0.000816037
0.000831522
0.000814532
0.000138719
0.000388971
0.000601136
0.000644698
0.000715595
0.000730866
0.000757898
0.000751514
0.000764167
0.00075397
0.000755771
0.000747155
0.000748881
0.00073973
0.000739149
0.000728167
0.000731331
0.000714645
0.000720778
0.000711673
2.80818e-05
0.000120754
0.000254018
0.000295022
0.000361782
0.000396066
0.000436031
0.000445937
0.000477481
0.000492221
0.000504419
0.000515144
0.000531173
0.000537149
0.000550118
0.000551661
0.00056122
0.000553796
0.000559291
0.000554437
5.7138e-06
3.25999e-05
8.51919e-05
0.000109086
0.000131914
0.00017344
0.000198267
0.000208385
0.000225678
0.0002565
0.000264503
0.000283449
0.000293519
0.000306065
0.000323589
0.000336792
0.000356909
0.000357493
0.000358007
0.000359042
2.38534e-06
8.30787e-06
2.5072e-05
3.22667e-05
3.87487e-05
5.75225e-05
6.93938e-05
7.6366e-05
8.37449e-05
0.000102828
0.000109008
0.000123042
0.000130542
0.000134921
0.000146334
0.000161268
0.00017906
0.000188148
0.000186741
0.00018883
2.18638e-06
3.29312e-06
9.52066e-06
1.03918e-05
1.23134e-05
1.77881e-05
2.15589e-05
2.57694e-05
2.73415e-05
3.46245e-05
3.71944e-05
4.4007e-05
4.75158e-05
4.86633e-05
5.42728e-05
6.50182e-05
7.66305e-05
8.30539e-05
8.30736e-05
8.55498e-05
2.24704e-06
3.13999e-06
6.93004e-06
6.62251e-06
7.29435e-06
8.38246e-06
1.06234e-05
1.14615e-05
1.12279e-05
1.25239e-05
1.62978e-05
2.07403e-05
2.10954e-05
2.08563e-05
2.13588e-05
2.48204e-05
3.22448e-05
3.55759e-05
3.6785e-05
3.92551e-05
2.18672e-06
2.42277e-06
4.32698e-06
4.95162e-06
4.85884e-06
5.26991e-06
9.01379e-06
1.0221e-05
1.29949e-05
1.3705e-05
1.87302e-05
2.40101e-05
2.3179e-05
2.13185e-05
2.06382e-05
2.06212e-05
2.1893e-05
2.80073e-05
3.22327e-05
3.19353e-05
2.14962e-06
2.28863e-06
4.4365e-06
4.5855e-06
3.96154e-06
4.00424e-06
6.25746e-06
1.23518e-05
1.17419e-05
1.1795e-05
1.23046e-05
1.70435e-05
1.98e-05
1.96865e-05
1.94976e-05
1.95889e-05
2.01863e-05
2.21598e-05
2.42626e-05
2.62434e-05
2.15059e-06
2.29078e-06
3.9485e-06
4.64036e-06
4.32145e-06
4.67247e-06
6.95798e-06
1.04699e-05
1.51299e-05
1.48508e-05
1.72818e-05
2.39865e-05
2.37486e-05
2.35887e-05
2.36888e-05
2.41748e-05
2.54302e-05
2.87627e-05
3.1526e-05
3.15195e-05
2.18191e-06
2.44943e-06
3.79011e-06
4.16782e-06
5.73192e-06
6.04307e-06
7.39615e-06
8.59414e-06
1.12402e-05
1.49632e-05
2.11416e-05
2.11502e-05
2.13591e-05
2.17155e-05
2.23219e-05
2.48698e-05
2.59544e-05
2.77479e-05
2.76884e-05
2.77204e-05
2.16925e-06
2.77675e-06
5.04885e-06
4.92004e-06
5.21758e-06
5.76794e-06
6.42022e-06
7.74338e-06
1.12498e-05
1.74895e-05
1.76622e-05
1.86428e-05
1.79335e-05
1.78269e-05
2.03739e-05
2.90868e-05
3.51236e-05
3.58671e-05
3.62547e-05
3.54521e-05
2.16447e-06
3.36985e-06
7.721e-06
7.69905e-06
9.17135e-06
1.41067e-05
1.93218e-05
2.24144e-05
3.17331e-05
3.93817e-05
3.94261e-05
4.29635e-05
4.31118e-05
4.48424e-05
5.29039e-05
7.08491e-05
8.22254e-05
8.41974e-05
8.43051e-05
8.45643e-05
2.32655e-06
8.47401e-06
2.45789e-05
2.74818e-05
3.57384e-05
5.8049e-05
6.92112e-05
7.59055e-05
9.19871e-05
0.00010957
0.000109762
0.000118744
0.000123375
0.000130338
0.000148244
0.000173043
0.00018525
0.000188648
0.000189836
0.00019824
5.15072e-06
3.30634e-05
8.42475e-05
9.97225e-05
0.000128404
0.000178231
0.00019449
0.000206709
0.000237787
0.000262444
0.000263013
0.000277527
0.000286734
0.000303304
0.000324411
0.000347806
0.00035761
0.000361341
0.000362989
0.000379737
2.71844e-05
0.00012443
0.000251155
0.000288586
0.000352506
0.000409452
0.000428281
0.000444067
0.000483918
0.000497612
0.000498918
0.000514251
0.000526721
0.000538791
0.000548519
0.00055914
0.000561787
0.000561377
0.000562344
0.000575738
0.000136629
0.00040314
0.000591163
0.000644527
0.000711735
0.00074144
0.000749574
0.000753409
0.000765689
0.000757196
0.000752986
0.000749704
0.000748834
0.000742459
0.000738262
0.000732486
0.000729513
0.000719489
0.000719275
0.000718348
0.00055671
0.000982258
0.00108172
0.00108031
0.00106504
0.00102949
0.00100712
0.000971709
0.00095505
0.000922114
0.00091611
0.000888396
0.000882247
0.000866394
0.000857763
0.000839271
0.000834733
0.000818711
0.000814086
0.000801055
0.0013384
0.00150781
0.00138955
0.00123148
0.00112154
0.00104537
0.00100139
0.000957221
0.000929889
0.000894989
0.000891426
0.000859718
0.00085427
0.000833896
0.000828827
0.00080542
0.000797147
0.000775003
0.000766532
0.000733154
0.000330098
0.000288812
0.000265635
0.000242821
0.000231147
0.000216306
0.000211297
0.000202038
0.00020036
0.000195459
0.000195205
0.000192712
0.000193446
0.000191714
0.000193092
0.000191634
0.000193588
0.000192335
0.000194516
0.000193071
0.00019547
0.000193586
0.000196406
0.000193452
0.000196009
0.000189277
0.000187728
0.000169752
0.000164534
0.000145158
0.000145669
0.00013411
0.000139628
0.000133898
0.000144803
0.000142703
0.000153319
0.000150854
0.000157838
0.000153827
0.000157264
0.000153353
0.000156012
0.000153212
0.000155275
0.000153721
0.000155997
0.000154389
0.000154503
0.000151273
0.000148695
0.000141815
0.00013954
0.000137695
0.000138617
0.000141014
0.000146692
0.000152153
0.000151982
0.00014867
0.000133776
0.000117178
0.000110148
0.000104252
0.000101625
9.77131e-05
9.62546e-05
9.3224e-05
9.2124e-05
8.97825e-05
8.86166e-05
8.59268e-05
8.43777e-05
8.13098e-05
7.97941e-05
7.78204e-05
7.71669e-05
7.6332e-05
7.63326e-05
7.62353e-05
7.63127e-05
7.67539e-05
7.77709e-05
7.88869e-05
7.93897e-05
8.00196e-05
7.97553e-05
7.95497e-05
7.89099e-05
7.86299e-05
7.78664e-05
7.75881e-05
7.70297e-05
7.67319e-05
7.67613e-05
7.93153e-05
8.46988e-05
8.67251e-05
8.70841e-05
8.72048e-05
8.70756e-05
8.57172e-05
8.36628e-05
8.07534e-05
7.8505e-05
7.75996e-05
7.77032e-05
8.19329e-05
8.57588e-05
8.46591e-05
7.78013e-05
7.28034e-05
6.53168e-05
6.26258e-05
6.44897e-05
9.27648e-05
0.000113246
0.000115892
0.000113287
0.000112851
0.00011554
0.00012469
0.000131009
0.00012686
0.000114747
0.000101386
9.36923e-05
8.73944e-05
8.47131e-05
8.15937e-05
7.78639e-05
7.56781e-05
7.39885e-05
6.99657e-05
6.86586e-05
6.64161e-05
6.23209e-05
6.0313e-05
5.90534e-05
5.87549e-05
5.97128e-05
6.28761e-05
6.61186e-05
6.86983e-05
6.89189e-05
6.73854e-05
6.48052e-05
6.48073e-05
6.80716e-05
8.43767e-05
0.000125767
0.000146161
0.000147797
0.000144935
0.000137788
0.000127327
0.000116548
0.000108187
0.000103598
0.000101978
0.000101373
0.000101356
0.000101922
0.000102569
0.000103685
0.000104598
0.000103469
9.86312e-05
9.61562e-05
9.60614e-05
9.61892e-05
9.56291e-05
9.4249e-05
9.31905e-05
9.39174e-05
9.76306e-05
9.99918e-05
0.000100235
9.76086e-05
8.73777e-05
7.92058e-05
7.16879e-05
6.34814e-05
5.73819e-05
5.39186e-05
5.12918e-05
4.83952e-05
4.58486e-05
4.41444e-05
4.21868e-05
4.08759e-05
4.06261e-05
4.10852e-05
4.29219e-05
5.1504e-05
6.41766e-05
7.17336e-05
8.60995e-05
0.000135855
0.000300711
0.000407619
0.000367808
0.000339655
0.000314552
0.000298544
0.000280633
0.000272079
0.000258346
0.000253711
0.000243574
0.000240326
0.000232439
0.000230212
0.000223972
0.000222363
0.000217084
0.000215989
0.000211405
0.000210879
0.000207114
0.000207516
0.000205082
0.000207119
0.000205386
0.000209278
0.000207515
0.000212184
0.000207621
0.000210146
0.000198658
0.000196628
0.000177937
0.000174972
0.000158651
0.000160332
0.000154369
0.000157633
0.000154351
0.000155834
0.0001533
0.000153369
0.000152694
0.000153761
0.0001551
0.000154835
0.000154841
0.000152632
0.000151673
0.000146504
0.000143912
0.000133939
0.000128764
0.000117204
0.00011432
0.000108011
0.000108254
0.000109089
0.000113542
0.000126468
0.000135614
0.000135725
0.000133837
0.000128836
0.000115776
0.000108675
0.000101536
9.80065e-05
9.42842e-05
9.19266e-05
8.86204e-05
8.67353e-05
8.41063e-05
8.22967e-05
8.04134e-05
7.91322e-05
7.80728e-05
7.79833e-05
7.77922e-05
7.78981e-05
7.75677e-05
7.74959e-05
7.72449e-05
7.73458e-05
7.76084e-05
7.83804e-05
7.86504e-05
7.85839e-05
7.82375e-05
7.70313e-05
7.48019e-05
7.22645e-05
7.07538e-05
6.96259e-05
6.93299e-05
6.92175e-05
6.93451e-05
7.03445e-05
7.33161e-05
7.61823e-05
7.81904e-05
7.95048e-05
7.97542e-05
7.98572e-05
7.86715e-05
7.76602e-05
7.73523e-05
7.75958e-05
8.05866e-05
8.20456e-05
7.91383e-05
6.86064e-05
6.57344e-05
6.3687e-05
6.09337e-05
6.15833e-05
7.72484e-05
0.000105255
0.000113221
0.000112122
0.000110305
0.00010976
0.000113469
0.000124313
0.000122863
0.000114835
0.000101861
9.39031e-05
8.80775e-05
8.49266e-05
8.19908e-05
7.8443e-05
7.54739e-05
7.35421e-05
6.92035e-05
6.71704e-05
6.37382e-05
6.00721e-05
5.80363e-05
5.69133e-05
5.70831e-05
5.906e-05
6.28119e-05
6.76173e-05
6.93267e-05
6.89215e-05
6.62132e-05
6.46513e-05
6.58631e-05
7.48061e-05
0.000112628
0.000147045
0.000151947
0.000149442
0.000142437
0.000130092
0.00011609
0.000107178
0.000101388
9.91134e-05
9.80621e-05
9.7768e-05
9.7847e-05
9.83974e-05
9.9232e-05
9.92554e-05
9.96515e-05
9.94171e-05
9.5636e-05
9.17316e-05
9.0561e-05
9.17835e-05
9.44021e-05
9.44022e-05
9.41545e-05
9.43717e-05
9.65005e-05
9.94102e-05
0.00010012
9.86366e-05
8.86416e-05
7.97673e-05
7.11926e-05
6.26018e-05
5.77135e-05
5.47678e-05
5.3407e-05
5.08975e-05
4.734e-05
4.47781e-05
4.22245e-05
4.09461e-05
4.06671e-05
4.08363e-05
4.27503e-05
4.96855e-05
5.92564e-05
7.33944e-05
8.13663e-05
0.000127995
0.000218737
0.000369755
0.00034729
0.00033011
0.000309738
0.000298635
0.000282422
0.000275776
0.000262753
0.000258101
0.000248004
0.000244387
0.000235919
0.000232896
0.000225382
0.000222885
0.000216211
0.000214216
0.000208077
0.000206598
0.000201236
0.000200442
0.000196168
0.000196644
0.000193999
0.000196381
0.000195222
0.000200037
0.000199668
0.000205767
0.000203805
0.000207479
0.000202439
0.000202109
0.000194761
0.000191189
0.000182956
0.000175158
0.000171975
0.000165611
0.000164845
0.000161526
0.000163021
0.000160659
0.000161489
0.000157509
0.000156019
0.000147399
0.000143594
0.000131625
0.000125255
0.000108297
9.80981e-05
8.20349e-05
7.83346e-05
7.54109e-05
7.69486e-05
7.79096e-05
8.08495e-05
8.48437e-05
9.18537e-05
0.000110477
0.000120886
0.000122611
0.000121626
0.000119746
0.000113703
0.000107542
0.000101479
9.65627e-05
9.27523e-05
9.03288e-05
8.80646e-05
8.63555e-05
8.49059e-05
8.39331e-05
8.29571e-05
8.21473e-05
8.03856e-05
7.96431e-05
7.80608e-05
7.74269e-05
7.56595e-05
7.51905e-05
7.42471e-05
7.40234e-05
7.36007e-05
7.28426e-05
6.99876e-05
6.7209e-05
6.51653e-05
6.33566e-05
6.25175e-05
6.20819e-05
6.22219e-05
6.22647e-05
6.24418e-05
6.26642e-05
6.26326e-05
6.25728e-05
6.40089e-05
6.81958e-05
7.05215e-05
7.21065e-05
7.25756e-05
7.29037e-05
7.3776e-05
7.43538e-05
7.46569e-05
7.57275e-05
7.41053e-05
6.52881e-05
5.83735e-05
5.73087e-05
5.75038e-05
5.95567e-05
6.62938e-05
9.61724e-05
0.000108029
0.0001104
0.00010711
0.00010605
0.000105569
0.0001108
0.000115506
0.000112889
0.000104672
9.55144e-05
8.97794e-05
8.47817e-05
8.16709e-05
7.76981e-05
7.40926e-05
7.07752e-05
6.72767e-05
6.49863e-05
6.10225e-05
5.78814e-05
5.63479e-05
5.59974e-05
5.65107e-05
5.95149e-05
6.58628e-05
6.9498e-05
6.9598e-05
6.83318e-05
6.49532e-05
6.48696e-05
6.89579e-05
8.98371e-05
0.000140937
0.000155088
0.000154023
0.000148821
0.000136335
0.000123338
0.000112149
0.000104243
9.95284e-05
9.80785e-05
9.67712e-05
9.65201e-05
9.66953e-05
9.70095e-05
9.89544e-05
9.93443e-05
9.95261e-05
9.93253e-05
9.61211e-05
9.1127e-05
8.81804e-05
8.79193e-05
9.08004e-05
9.37188e-05
9.42543e-05
9.4857e-05
9.6733e-05
9.99156e-05
0.000100594
9.87759e-05
8.86743e-05
7.87528e-05
6.91024e-05
6.23143e-05
5.89922e-05
5.77868e-05
5.64734e-05
5.28752e-05
4.93656e-05
4.56533e-05
4.27955e-05
4.20371e-05
4.15662e-05
4.26257e-05
4.39137e-05
5.14316e-05
5.76657e-05
8.07322e-05
8.28814e-05
0.000110985
0.000168563
0.000293837
0.000282744
0.000273845
0.000261943
0.000254645
0.000244201
0.00023926
0.000230328
0.000226821
0.000219642
0.000216778
0.000210365
0.000207735
0.000201688
0.000199072
0.000192947
0.000190513
0.000184498
0.00018224
0.000176534
0.000174628
0.000169628
0.000168483
0.000165011
0.000165022
0.000164552
0.000165713
0.000167281
0.000171064
0.000178068
0.000182706
0.000190299
0.000191188
0.000192657
0.000189121
0.000188985
0.000183081
0.000182167
0.000175486
0.000174819
0.000169129
0.00016795
0.000160652
0.000157821
0.000147437
0.000141555
0.000124942
0.000116527
9.68671e-05
8.4886e-05
6.93578e-05
6.32717e-05
5.60526e-05
5.51416e-05
5.3476e-05
5.39504e-05
5.44818e-05
5.68777e-05
5.90279e-05
6.31321e-05
6.80565e-05
7.46414e-05
8.7756e-05
0.000102392
0.000107139
0.000107647
0.000106898
0.000105481
0.000102093
9.89283e-05
9.49463e-05
9.20704e-05
8.96645e-05
8.78584e-05
8.58116e-05
8.42771e-05
8.27578e-05
8.06305e-05
7.90438e-05
7.63904e-05
7.4884e-05
7.16685e-05
6.80981e-05
6.4126e-05
6.21135e-05
5.88565e-05
5.6283e-05
5.34428e-05
5.223e-05
5.18485e-05
5.18544e-05
5.19068e-05
5.19731e-05
5.31134e-05
5.41654e-05
5.52541e-05
5.57242e-05
5.63254e-05
5.64887e-05
5.68013e-05
5.73206e-05
5.97292e-05
6.18492e-05
6.34776e-05
6.39784e-05
6.59288e-05
6.60599e-05
6.46177e-05
6.46065e-05
6.44673e-05
6.03787e-05
5.48685e-05
5.33299e-05
5.29589e-05
5.46312e-05
5.98827e-05
8.32342e-05
0.000102927
0.00010836
0.0001066
0.000102571
0.000101357
0.000101139
0.000104821
0.000105623
0.000103084
9.57397e-05
9.03705e-05
8.4129e-05
7.94028e-05
7.56879e-05
7.32272e-05
6.94031e-05
6.70726e-05
6.29345e-05
5.87746e-05
5.6496e-05
5.56164e-05
5.57199e-05
5.76909e-05
6.42155e-05
6.91081e-05
7.01655e-05
6.96885e-05
6.65071e-05
6.44704e-05
6.56305e-05
7.6881e-05
0.000122666
0.000155736
0.000158665
0.000155166
0.000144936
0.000133842
0.00012159
0.000111119
0.000103185
9.90376e-05
9.7759e-05
9.65447e-05
9.60934e-05
9.61438e-05
9.64796e-05
9.74393e-05
0.000103075
0.000104163
0.000103515
0.000100382
9.31602e-05
8.87349e-05
8.78195e-05
8.95763e-05
9.3025e-05
9.51081e-05
9.62235e-05
9.79614e-05
0.000100249
0.00010085
9.82107e-05
8.91284e-05
7.84667e-05
6.95512e-05
6.27867e-05
5.96235e-05
5.82711e-05
5.6915e-05
5.40701e-05
5.07409e-05
4.73458e-05
4.47312e-05
4.47611e-05
4.46221e-05
5.12761e-05
5.17773e-05
6.51523e-05
6.47875e-05
0.000102059
9.14632e-05
9.61459e-05
0.000129087
0.000192949
0.000189408
0.000182679
0.000179302
0.000172511
0.000169614
0.000164335
0.000162432
0.00015847
0.000157116
0.000154307
0.000153199
0.000150699
0.00014962
0.000146823
0.000145511
0.000142295
0.000140863
0.000137195
0.000135787
0.000131985
0.000130665
0.000126949
0.000126049
0.00012284
0.000123058
0.000122193
0.000124179
0.000124565
0.000129833
0.000131632
0.000141036
0.000144131
0.000155988
0.000157249
0.000163168
0.000160924
0.000161401
0.000156986
0.00015521
0.00014731
0.000142756
0.000130057
0.00012327
0.000107568
9.51589e-05
7.94246e-05
6.96684e-05
5.87067e-05
5.21199e-05
4.57932e-05
4.3113e-05
4.098e-05
4.10961e-05
4.12618e-05
4.22338e-05
4.29039e-05
4.46088e-05
4.56593e-05
4.80395e-05
4.97483e-05
5.28992e-05
5.60256e-05
6.29131e-05
6.7783e-05
7.92946e-05
8.63222e-05
9.10622e-05
9.16683e-05
9.17368e-05
9.09595e-05
9.01361e-05
8.78515e-05
8.64755e-05
8.34621e-05
8.18384e-05
7.80216e-05
7.57964e-05
7.13051e-05
6.68973e-05
6.12634e-05
5.49582e-05
5.03357e-05
4.75202e-05
4.64383e-05
4.53339e-05
4.50787e-05
4.50424e-05
4.54414e-05
4.6934e-05
4.77222e-05
4.80708e-05
4.86586e-05
5.05782e-05
5.13922e-05
5.22966e-05
5.25548e-05
5.30775e-05
5.31334e-05
5.36186e-05
5.40239e-05
5.491e-05
5.52405e-05
5.63e-05
5.62907e-05
5.69813e-05
5.9263e-05
5.9719e-05
5.86176e-05
5.78299e-05
5.47799e-05
5.20017e-05
5.1088e-05
5.0959e-05
5.13273e-05
5.47166e-05
6.67879e-05
9.44238e-05
0.000102313
0.000104305
0.000100116
9.89758e-05
9.47663e-05
9.57263e-05
9.56095e-05
9.53735e-05
9.14808e-05
8.76612e-05
8.27829e-05
7.79689e-05
7.54419e-05
7.23585e-05
6.87154e-05
6.52002e-05
6.01998e-05
5.71029e-05
5.58214e-05
5.56953e-05
5.69077e-05
6.27176e-05
6.8485e-05
7.07188e-05
7.04319e-05
6.83719e-05
6.43241e-05
6.42591e-05
6.91208e-05
9.42898e-05
0.00014984
0.000163401
0.000161265
0.00015195
0.000143088
0.000133346
0.000121555
0.000111028
0.000102904
9.90158e-05
9.76487e-05
9.6648e-05
9.60538e-05
9.54992e-05
9.57954e-05
9.74048e-05
0.000103762
0.000109294
0.000110432
0.000109261
0.000101223
9.19089e-05
8.90031e-05
9.0145e-05
9.32519e-05
9.56544e-05
9.70114e-05
0.000100939
0.00010236
0.000102581
9.843e-05
8.89551e-05
7.77417e-05
6.86236e-05
6.23198e-05
6.05643e-05
5.95544e-05
5.89572e-05
5.77164e-05
5.35466e-05
5.44284e-05
5.09771e-05
6.21293e-05
6.06501e-05
8.55839e-05
7.49284e-05
0.00010482
8.93498e-05
0.000102209
0.000102108
0.000100023
0.00011153
0.000101467
9.95876e-05
9.52716e-05
9.34162e-05
8.93166e-05
8.7719e-05
8.45158e-05
8.37969e-05
8.25322e-05
8.27458e-05
8.25758e-05
8.30334e-05
8.30444e-05
8.35879e-05
8.3267e-05
8.35894e-05
8.30536e-05
8.329e-05
8.24922e-05
8.27724e-05
8.16929e-05
8.20435e-05
8.09367e-05
8.1481e-05
8.03709e-05
8.14366e-05
8.06446e-05
8.24316e-05
8.23761e-05
8.52495e-05
8.58836e-05
9.04002e-05
9.18967e-05
9.81781e-05
9.94691e-05
0.000104171
0.00010381
0.000104085
0.000101645
9.95615e-05
9.32162e-05
8.83199e-05
7.88286e-05
7.15274e-05
6.26119e-05
5.55717e-05
4.85301e-05
4.31519e-05
3.86461e-05
3.54312e-05
3.36149e-05
3.35103e-05
3.38648e-05
3.5483e-05
3.66967e-05
3.81895e-05
3.93547e-05
4.05054e-05
4.22383e-05
4.34347e-05
4.50115e-05
4.58071e-05
4.78906e-05
4.9065e-05
5.20791e-05
5.4948e-05
5.92473e-05
6.26303e-05
6.70517e-05
7.02755e-05
7.18784e-05
7.1804e-05
7.14277e-05
7.00429e-05
6.8266e-05
6.51295e-05
6.17833e-05
5.74022e-05
5.23423e-05
4.82051e-05
4.4819e-05
4.30325e-05
4.1958e-05
4.2058e-05
4.23085e-05
4.27338e-05
4.30594e-05
4.34261e-05
4.45384e-05
4.62977e-05
4.7121e-05
4.75445e-05
4.8356e-05
5.0131e-05
5.12194e-05
5.18475e-05
5.22054e-05
5.24978e-05
5.25588e-05
5.24892e-05
5.26683e-05
5.25963e-05
5.24811e-05
5.26408e-05
5.27889e-05
5.29357e-05
5.48074e-05
5.60625e-05
5.4574e-05
5.35602e-05
5.22217e-05
5.11516e-05
5.01733e-05
5.05967e-05
5.04464e-05
5.24045e-05
5.76397e-05
8.2184e-05
9.54401e-05
0.000101195
9.91395e-05
9.68397e-05
9.19129e-05
9.10701e-05
8.88319e-05
8.84343e-05
8.58112e-05
8.29095e-05
8.01491e-05
7.61413e-05
7.43935e-05
7.03513e-05
6.68699e-05
6.25214e-05
5.85547e-05
5.72121e-05
5.70896e-05
5.7921e-05
6.33648e-05
6.91221e-05
7.14022e-05
7.12758e-05
6.99598e-05
6.49701e-05
6.34658e-05
6.52372e-05
7.79562e-05
0.000126812
0.000163357
0.000165992
0.000158057
0.000147575
0.000142509
0.000135343
0.00012469
0.00011253
0.000103438
9.94344e-05
9.75114e-05
9.6584e-05
9.583e-05
9.52781e-05
9.55308e-05
9.81622e-05
0.000105186
0.000109143
0.000110266
0.000109401
0.000105424
9.62893e-05
9.21124e-05
9.19634e-05
9.40241e-05
9.70584e-05
9.93887e-05
0.000102691
0.000104037
0.000102843
9.78989e-05
8.63633e-05
7.609e-05
6.69609e-05
6.22907e-05
6.16653e-05
6.02688e-05
6.12787e-05
6.08594e-05
6.21197e-05
8.25918e-05
7.28624e-05
9.55762e-05
8.72447e-05
0.000116312
0.000107174
0.000108828
0.000105457
0.000105689
0.00010962
0.000108128
0.000112113
4.57677e-05
4.44572e-05
4.19752e-05
4.06818e-05
3.84903e-05
3.73506e-05
3.63074e-05
3.60232e-05
3.58483e-05
3.60335e-05
3.74864e-05
3.92303e-05
4.11542e-05
4.29054e-05
4.4158e-05
4.54975e-05
4.60852e-05
4.68792e-05
4.70733e-05
4.74984e-05
4.74694e-05
4.79194e-05
4.79121e-05
4.86771e-05
4.87032e-05
4.98531e-05
5.00008e-05
5.13696e-05
5.16437e-05
5.3433e-05
5.37492e-05
5.57956e-05
5.63396e-05
5.87462e-05
5.92305e-05
6.10161e-05
6.07332e-05
6.05266e-05
5.89712e-05
5.7364e-05
5.36117e-05
5.01143e-05
4.60642e-05
4.2308e-05
3.84912e-05
3.53156e-05
3.24845e-05
3.02836e-05
2.86437e-05
2.81633e-05
2.81883e-05
2.93362e-05
3.1038e-05
3.33636e-05
3.50021e-05
3.63196e-05
3.7589e-05
3.83785e-05
3.98778e-05
4.06434e-05
4.23091e-05
4.30105e-05
4.45888e-05
4.52654e-05
4.71603e-05
4.81306e-05
5.02783e-05
5.14517e-05
5.40382e-05
5.58695e-05
5.67821e-05
5.64954e-05
5.60807e-05
5.48367e-05
5.32177e-05
5.04239e-05
4.76369e-05
4.45312e-05
4.22131e-05
4.08339e-05
4.02048e-05
4.04726e-05
4.07833e-05
4.22696e-05
4.3014e-05
4.49019e-05
4.55784e-05
4.69993e-05
4.83229e-05
5.0002e-05
5.02128e-05
5.00225e-05
4.9879e-05
5.06375e-05
5.29426e-05
5.35092e-05
5.38004e-05
5.33249e-05
5.2858e-05
5.16558e-05
5.15061e-05
5.11651e-05
5.09068e-05
5.06195e-05
5.09584e-05
5.10864e-05
5.15422e-05
5.19807e-05
4.99388e-05
4.79232e-05
4.72418e-05
4.84521e-05
4.95028e-05
5.2997e-05
5.28584e-05
5.30926e-05
5.41624e-05
6.38055e-05
8.57307e-05
9.66767e-05
9.73482e-05
9.60612e-05
9.19564e-05
8.95857e-05
8.66837e-05
8.4523e-05
8.29599e-05
8.05779e-05
7.73859e-05
7.52482e-05
7.23301e-05
6.90323e-05
6.56614e-05
6.16294e-05
5.97617e-05
5.97279e-05
6.0501e-05
6.64248e-05
7.12044e-05
7.23709e-05
7.23005e-05
7.09134e-05
6.55352e-05
6.24542e-05
6.30485e-05
6.97615e-05
9.78586e-05
0.000154578
0.000169153
0.000165539
0.000148476
0.000145801
0.000145714
0.000143035
0.000132028
0.000117025
0.000104856
9.98985e-05
9.80855e-05
9.73067e-05
9.60054e-05
9.55761e-05
9.65675e-05
9.95298e-05
0.000103702
0.000106765
0.00010868
0.000107997
0.00010365
0.000100303
9.63526e-05
9.5553e-05
9.62851e-05
9.84506e-05
0.000101489
0.000105268
0.000106681
0.000102986
9.63967e-05
8.60523e-05
7.39109e-05
6.70977e-05
6.23463e-05
6.26695e-05
6.21317e-05
6.40931e-05
6.74001e-05
6.96016e-05
0.000103249
9.88631e-05
0.000125254
0.000115919
0.00012185
0.000119155
0.000114724
0.000108562
0.000108128
0.000112383
0.000111277
0.000113529
2.12314e-05
2.0887e-05
2.01316e-05
1.98247e-05
1.91141e-05
1.89337e-05
1.85823e-05
1.84671e-05
1.83642e-05
1.83462e-05
1.85496e-05
1.90618e-05
2.04901e-05
2.156e-05
2.36124e-05
2.50833e-05
2.71959e-05
2.87258e-05
3.03624e-05
3.14843e-05
3.23605e-05
3.299e-05
3.32865e-05
3.36165e-05
3.35912e-05
3.38304e-05
3.38248e-05
3.42238e-05
3.43323e-05
3.5053e-05
3.52253e-05
3.60466e-05
3.62287e-05
3.69986e-05
3.69676e-05
3.72202e-05
3.69829e-05
3.66992e-05
3.58781e-05
3.46245e-05
3.3356e-05
3.22199e-05
3.0929e-05
2.95949e-05
2.81854e-05
2.68685e-05
2.58603e-05
2.5376e-05
2.5259e-05
2.53861e-05
2.60767e-05
2.84459e-05
3.04999e-05
3.27483e-05
3.40528e-05
3.5346e-05
3.60343e-05
3.68273e-05
3.72147e-05
3.8059e-05
3.86543e-05
3.94971e-05
4.01174e-05
4.14803e-05
4.21279e-05
4.31967e-05
4.36237e-05
4.44977e-05
4.59247e-05
4.72829e-05
4.74091e-05
4.73736e-05
4.69665e-05
4.61461e-05
4.43067e-05
4.22599e-05
4.04516e-05
3.92635e-05
3.90499e-05
3.92061e-05
3.96702e-05
4.12005e-05
4.31916e-05
4.75931e-05
4.97906e-05
5.35522e-05
5.51622e-05
5.70689e-05
5.70483e-05
5.68809e-05
5.59677e-05
5.48682e-05
5.47226e-05
5.48355e-05
5.56874e-05
5.56726e-05
5.54088e-05
5.36346e-05
5.25251e-05
5.11948e-05
5.07931e-05
5.04039e-05
4.97792e-05
4.90176e-05
4.89543e-05
4.87157e-05
4.71827e-05
4.62471e-05
4.46188e-05
4.42228e-05
4.4351e-05
4.59355e-05
5.02823e-05
5.43423e-05
5.56224e-05
5.41039e-05
5.35824e-05
5.56663e-05
6.50641e-05
8.52057e-05
9.37859e-05
9.4003e-05
9.23126e-05
8.95379e-05
8.65839e-05
8.30292e-05
8.19684e-05
7.92324e-05
7.6646e-05
7.51705e-05
7.13676e-05
6.85395e-05
6.50777e-05
6.32684e-05
6.34039e-05
6.50508e-05
7.07213e-05
7.35819e-05
7.36612e-05
7.32568e-05
7.10249e-05
6.51451e-05
6.12479e-05
6.13863e-05
6.49916e-05
8.1587e-05
0.000134839
0.000166619
0.000169496
0.000154695
0.000143842
0.000146254
0.000154285
0.000153299
0.000140382
0.000119522
0.000104765
0.000101091
0.00010021
9.94354e-05
9.73833e-05
9.68122e-05
9.81329e-05
0.000101714
0.000104769
0.000106501
0.00010693
0.000108524
0.000105268
0.000102074
0.000100728
0.000101036
0.000101139
0.000104237
0.000109023
0.00010932
0.000108341
0.000103399
9.20896e-05
8.53366e-05
7.1262e-05
6.86847e-05
6.40416e-05
6.5232e-05
6.50561e-05
6.55831e-05
7.65326e-05
7.79273e-05
0.000104288
0.000106635
0.00011453
0.000115112
0.000112199
0.000116506
0.000113623
0.000112632
0.00010936
0.000113395
0.0001127
0.000113658
1.71109e-05
1.67858e-05
1.66011e-05
1.65644e-05
1.65607e-05
1.66498e-05
1.67086e-05
1.68798e-05
1.69359e-05
1.70729e-05
1.70677e-05
1.70774e-05
1.70168e-05
1.68267e-05
1.66873e-05
1.68174e-05
1.82025e-05
2.05277e-05
2.26511e-05
2.47804e-05
2.64676e-05
2.79683e-05
2.90574e-05
2.98742e-05
3.04102e-05
3.07521e-05
3.0857e-05
3.08602e-05
3.03994e-05
3.00481e-05
2.94127e-05
2.93117e-05
2.91636e-05
2.92199e-05
2.91454e-05
2.91435e-05
2.90335e-05
2.89289e-05
2.86193e-05
2.83719e-05
2.81317e-05
2.77645e-05
2.69008e-05
2.59019e-05
2.50335e-05
2.4363e-05
2.41058e-05
2.40746e-05
2.4224e-05
2.45524e-05
2.64912e-05
2.86151e-05
3.10351e-05
3.25103e-05
3.3911e-05
3.45916e-05
3.49849e-05
3.51153e-05
3.5235e-05
3.55097e-05
3.57376e-05
3.63685e-05
3.6821e-05
3.8025e-05
3.86384e-05
3.98338e-05
4.02155e-05
4.11233e-05
4.14206e-05
4.20714e-05
4.2037e-05
4.19255e-05
4.13288e-05
4.05059e-05
3.88337e-05
3.79197e-05
3.79019e-05
3.81079e-05
3.87747e-05
4.03769e-05
4.39804e-05
4.96095e-05
5.82389e-05
6.4901e-05
7.13436e-05
7.57715e-05
7.6596e-05
7.6002e-05
7.45111e-05
6.99966e-05
6.64793e-05
6.41956e-05
6.23802e-05
6.04008e-05
5.88293e-05
5.73789e-05
5.55698e-05
5.45936e-05
5.36051e-05
5.2249e-05
5.09018e-05
4.96315e-05
4.82677e-05
4.62674e-05
4.55489e-05
4.4991e-05
4.43611e-05
4.38448e-05
4.4051e-05
4.40147e-05
4.42831e-05
4.50028e-05
4.75522e-05
5.19134e-05
5.67384e-05
5.6203e-05
5.39381e-05
5.36686e-05
5.58799e-05
6.33381e-05
8.18944e-05
8.91091e-05
9.00644e-05
8.93506e-05
8.70904e-05
8.38858e-05
8.21444e-05
7.8589e-05
7.71582e-05
7.50005e-05
7.13244e-05
6.96807e-05
6.88701e-05
6.93812e-05
7.23503e-05
7.42354e-05
7.51627e-05
7.49654e-05
7.39372e-05
7.01508e-05
6.28689e-05
5.94094e-05
5.95196e-05
6.17621e-05
7.32923e-05
0.000112675
0.00016091
0.000170741
0.000163031
0.000142948
0.000140927
0.000154209
0.000166106
0.000162327
0.000147075
0.000120387
0.000104328
0.000102786
0.000101845
0.000100761
9.84312e-05
9.79516e-05
9.90242e-05
0.000102581
0.000103036
0.000106947
0.000105652
0.000106567
0.000107157
0.000104437
0.000103937
0.000107303
0.00010897
0.000108773
0.00011271
0.000111347
0.000106961
0.000102108
8.63514e-05
8.04928e-05
7.04456e-05
6.9831e-05
6.76815e-05
6.7952e-05
6.78629e-05
6.92438e-05
8.85689e-05
8.71252e-05
9.29512e-05
0.000104398
0.000102328
0.000108232
0.000105865
0.000111325
0.00010885
0.000113999
0.000113537
0.000115865
0.000116647
0.000115662
1.49735e-05
1.52328e-05
1.55767e-05
1.59059e-05
1.62344e-05
1.65107e-05
1.67548e-05
1.68995e-05
1.69629e-05
1.69623e-05
1.69269e-05
1.68376e-05
1.67417e-05
1.65661e-05
1.64449e-05
1.63949e-05
1.67896e-05
1.85065e-05
2.01744e-05
2.17773e-05
2.28792e-05
2.39287e-05
2.44872e-05
2.51549e-05
2.53926e-05
2.5825e-05
2.5943e-05
2.6187e-05
2.62279e-05
2.63274e-05
2.63296e-05
2.63861e-05
2.64016e-05
2.65208e-05
2.66501e-05
2.68836e-05
2.6904e-05
2.68992e-05
2.68303e-05
2.67414e-05
2.62981e-05
2.56082e-05
2.48212e-05
2.4261e-05
2.38646e-05
2.36668e-05
2.36537e-05
2.36838e-05
2.41689e-05
2.50176e-05
2.73496e-05
2.85946e-05
3.10174e-05
3.19568e-05
3.38178e-05
3.4464e-05
3.55254e-05
3.57517e-05
3.59914e-05
3.59493e-05
3.59817e-05
3.60261e-05
3.61303e-05
3.69021e-05
3.75241e-05
3.8126e-05
3.84723e-05
3.87632e-05
3.87089e-05
3.85662e-05
3.79944e-05
3.75735e-05
3.645e-05
3.61465e-05
3.6255e-05
3.67083e-05
3.76573e-05
3.98845e-05
4.43143e-05
5.15685e-05
6.39823e-05
7.80429e-05
9.02106e-05
0.000101188
0.000108676
0.00010962
0.000108835
0.00010616
9.97153e-05
9.09664e-05
8.41161e-05
8.00698e-05
7.43725e-05
6.93911e-05
6.36504e-05
6.09662e-05
5.80894e-05
5.71221e-05
5.5046e-05
5.32593e-05
5.15568e-05
4.94659e-05
4.79363e-05
4.60823e-05
4.53916e-05
4.51116e-05
4.55324e-05
4.56405e-05
4.63161e-05
4.63923e-05
4.64902e-05
4.66527e-05
4.8125e-05
5.14527e-05
5.56741e-05
5.60114e-05
5.44106e-05
5.24119e-05
5.26596e-05
5.50159e-05
6.1844e-05
7.44862e-05
8.34013e-05
8.63032e-05
8.58814e-05
8.50177e-05
8.26358e-05
8.05403e-05
8.00538e-05
7.76562e-05
7.62235e-05
7.59141e-05
7.59363e-05
7.62836e-05
7.61335e-05
7.59522e-05
7.52142e-05
7.33693e-05
6.68273e-05
5.91555e-05
5.67441e-05
5.71512e-05
5.9233e-05
6.8296e-05
9.55142e-05
0.000152447
0.000171769
0.000171212
0.000148646
0.000133123
0.000137645
0.000167252
0.000177862
0.000172123
0.000155313
0.000122187
0.000104998
0.000103089
0.000103072
0.000102224
0.000100028
9.74867e-05
9.94227e-05
0.0001025
0.000101547
0.000103197
0.000105579
0.000104436
0.000106003
0.000106908
0.000109124
0.000108847
0.00011217
0.000113245
0.000113701
0.000109626
9.93089e-05
9.548e-05
8.34506e-05
7.57547e-05
7.36502e-05
7.36331e-05
7.26723e-05
6.88491e-05
7.32079e-05
7.36561e-05
9.24053e-05
9.07557e-05
9.60491e-05
0.000105566
0.000103012
0.000107142
0.000105827
0.000111896
0.000108945
0.000111274
0.000116062
0.000118508
0.000121242
0.000119081
1.71434e-05
1.69951e-05
1.68614e-05
1.66303e-05
1.64572e-05
1.6235e-05
1.60911e-05
1.59193e-05
1.58464e-05
1.57878e-05
1.57872e-05
1.57772e-05
1.56911e-05
1.55795e-05
1.57155e-05
1.6916e-05
1.89068e-05
2.06065e-05
2.21574e-05
2.3417e-05
2.43531e-05
2.49822e-05
2.52969e-05
2.54391e-05
2.54763e-05
2.54677e-05
2.5465e-05
2.54653e-05
2.54736e-05
2.55043e-05
2.55223e-05
2.55834e-05
2.55769e-05
2.55871e-05
2.54427e-05
2.53074e-05
2.49264e-05
2.47337e-05
2.43277e-05
2.42387e-05
2.40395e-05
2.40152e-05
2.39621e-05
2.39343e-05
2.37356e-05
2.37201e-05
2.37308e-05
2.39261e-05
2.49567e-05
2.58536e-05
2.77368e-05
2.86836e-05