/*--------------------------------*- C++ -*----------------------------------*\
| =========                 |                                                 |
| \\      /  F ield         | OpenFOAM: The Open Source CFD Toolbox           |
|  \\    /   O peration     | Version:  2.4.0                                 |
|   \\  /    A nd           | Web:      www.OpenFOAM.org                      |
|    \\/     M anipulation  |                                                 |
\*---------------------------------------------------------------------------*/
FoamFile
{
    version     2.0;
    format      ascii;
    class       volScalarField;
    location    "1.48";
    object      p;
}
// * * * * * * * * * * * * * * * * * * * * * * * * * * * * * * * * * * * * * //

dimensions      [0 2 -2 0 0 0 0];

internalField   nonuniform List<scalar> 
8800
(
95.6215
83.2932
75.8877
72.2859
70.6086
69.0564
67.7486
66.8955
65.8254
64.6647
63.8213
63.0451
61.9314
60.9676
60.3224
59.433
58.5431
57.7117
57.2587
56.121
92.5025
82.9433
76.0568
72.3927
70.6729
69.0842
67.7446
66.9021
65.8318
64.6519
63.8152
63.0513
61.9312
60.9521
60.3322
59.4342
58.5474
57.684
57.2693
56.0596
90.5287
83.0298
76.6552
72.7717
70.8456
69.1537
67.7883
66.9417
65.8573
64.6652
63.8267
63.0608
61.9317
60.9384
60.3434
59.4329
58.559
57.6513
57.3184
56.045
88.9902
83.1017
77.2293
73.2075
71.0249
69.2267
67.8685
66.9944
65.8962
64.7102
63.8618
63.07
61.949
60.9349
60.3555
59.4275
58.5835
57.6654
57.4545
56.1019
87.7402
83.0796
77.6935
73.6325
71.1839
69.2766
67.9434
67.0359
65.9469
64.7846
63.9055
63.065
61.9729
60.9478
60.3659
59.4234
58.607
57.7363
57.5785
56.0736
86.7584
82.9838
78.0473
74.0003
71.3241
69.3139
67.9996
67.0579
65.9895
64.8593
63.9577
63.0611
61.9998
60.9437
60.3658
59.4193
58.6132
57.831
57.6707
56.2335
86.0063
82.8641
78.3086
74.3049
71.4569
69.3338
68.0188
67.0698
66.0364
64.9226
63.9891
63.059
62.0256
60.9411
60.3618
59.4235
58.5883
57.8791
57.7089
56.7013
85.4544
82.757
78.4912
74.5343
71.5723
69.3515
68.0079
67.0714
66.0518
64.9743
64.0005
63.0692
62.0315
60.9496
60.3481
59.4437
58.5356
57.888
57.4751
57.2224
85.0936
82.6742
78.6059
74.694
71.6441
69.3446
67.9994
67.0946
66.0671
64.9956
64.0107
63.0735
62.0387
60.9543
60.3377
59.4407
58.4838
57.8883
57.482
57.7448
84.9142
82.6311
78.656
74.7791
71.6922
69.3412
68.0048
67.1334
66.1044
64.9975
64.0253
63.0748
62.0575
60.9658
60.3431
59.4443
58.4552
57.9195
57.5639
57.9735
84.9111
82.6314
78.6407
74.7864
71.6819
69.3319
67.9974
67.1428
66.0122
64.9629
63.9511
63.0552
62.0453
60.9696
60.3438
59.4635
58.4347
57.9629
57.5802
58.1324
85.0845
82.6798
78.5676
74.7133
71.6441
69.3276
68.005
67.1282
65.9992
64.9351
63.9583
63.0481
62.0106
60.9686
60.3512
59.4448
58.4272
57.9933
57.6072
58.2231
85.4386
82.7695
78.4386
74.5673
71.5587
69.3157
68.0151
67.1376
66.0134
64.898
64.0576
63.0774
61.9929
60.9962
60.37
59.4704
58.4309
58.0112
57.6449
58.2511
85.9855
82.8886
78.2355
74.3381
71.4475
69.3011
68.0137
67.131
66.01
64.8323
64.0463
63.0983
61.9566
61.0292
60.3865
59.5005
58.4505
58.0312
57.6627
58.1874
86.7383
83.0142
77.9533
74.045
71.3188
69.2614
68.0085
67.1167
65.9792
64.7346
64.027
63.1211
61.9098
61.0647
60.4178
59.5264
58.4798
58.0549
57.6919
58.0436
87.7235
83.1169
77.5816
73.6941
71.1872
69.1982
67.9773
67.0939
65.9328
64.6317
64.015
63.1475
61.8483
61.0742
60.4611
59.5514
58.5215
58.0839
57.7481
57.8323
88.9713
83.1519
77.1075
73.2879
71.0408
69.1112
67.9129
67.0653
65.8867
64.539
63.9892
63.167
61.8075
61.0693
60.4969
59.5674
58.5644
58.1199
57.8353
57.5834
90.5051
83.0951
76.5286
72.8585
70.8682
69.0172
67.8401
67.0224
65.8437
64.4874
63.9629
63.1664
61.7937
61.0649
60.5132
59.577
58.6082
58.1543
57.9004
57.4511
92.4682
83.0168
75.9392
72.4752
70.6944
68.9479
67.7946
66.9832
65.8158
64.4822
63.9477
63.1514
61.8074
61.0724
60.5136
59.5809
58.6386
58.1782
57.8887
57.3946
95.5801
83.3655
75.7747
72.3686
70.6214
68.9278
67.8005
66.9701
65.8092
64.5029
63.9533
63.1335
61.8226
61.0897
60.5018
59.5782
58.6545
58.1891
57.8817
57.5129
56.6061
56.696
56.7206
56.7113
56.6767
56.5982
56.4856
56.3422
56.222
56.1268
56.0705
56.0371
56.0393
56.0435
56.0866
56.1523
56.2819
56.4911
56.8342
57.3096
57.9682
58.7744
59.6926
60.6741
61.7098
62.7166
63.6031
64.2966
64.6491
64.6378
64.0603
62.9434
61.1419
58.6059
55.5753
51.9116
48.3278
44.6154
41.7269
39.1187
37.3616
36.1088
35.698
35.6432
36.0884
37.3355
39.5364
42.2542
44.8921
47.672
50.7951
54.5679
58.2616
61.2037
62.7763
63.7482
64.1062
64.0863
62.8332
60.9153
58.1889
54.9258
51.3526
47.4684
43.6006
39.8595
36.4459
33.3209
30.6991
28.6105
27.202
26.5036
26.9205
28.0083
29.5421
31.8669
34.699
37.5341
40.8336
44.3322
47.5095
50.6345
53.599
56.1534
58.2751
59.8595
60.9327
61.7642
62.4719
62.8995
63.1812
63.2551
62.8903
62.2453
61.3839
60.2496
59.0637
58.0636
57.2923
56.8785
57.0872
57.9926
59.6364
61.9141
64.5229
67.5934
71.247
75.2645
78.8384
81.9059
84.5428
86.4785
87.7378
88.862
90.0088
91.0851
91.7019
91.7152
91.3309
90.6633
89.7643
88.5856
86.849
84.2444
80.5712
75.8183
71.1689
66.2991
62.1926
58.8984
56.1023
53.9845
52.3274
51.0658
50.0364
49.2563
48.6198
48.14
47.9095
47.9735
48.4349
49.372
50.5086
52.1528
54.2606
56.3206
58.2366
59.9114
60.8105
60.9772
60.2769
58.5797
56.0096
52.5767
48.266
42.557
36.3796
29.7324
22.9055
16.5109
10.5351
5.51175
1.54934
-0.775002
-1.39834
-0.373548
2.95461
7.08668
11.5019
16.2418
21.2803
27.1876
34.5107
42.4673
50.4093
57.7534
63.6857
68.1323
71.5491
74.105
75.9432
77.587
78.6645
79.7165
80.5486
81.1959
81.7913
82.4149
82.5975
83.0041
83.147
82.8054
82.9039
82.7097
82.0743
80.3526
76.8379
70.4609
61.8938
26.395
56.2395
56.3771
56.5541
56.654
56.6982
56.641
56.5304
56.3726
56.2456
56.1424
56.0784
56.035
56.045
56.0504
56.1164
56.2041
56.371
56.6189
57.0114
57.5125
58.1889
59.004
59.926
60.8953
61.9346
62.9466
63.8355
64.5437
64.9643
64.846
64.2178
63.0131
61.1872
58.5692
55.5868
51.9996
48.4063
44.7761
41.8934
39.4413
37.5888
36.4169
36.0688
36.1697
36.5324
37.824
39.9182
42.6866
45.3242
48.0651
50.9895
54.4331
57.5848
60.1873
61.7594
62.7943
63.1468
62.7811
61.6507
59.9641
57.6993
54.776
51.6347
48.1708
44.8394
41.7063
38.7016
35.9509
33.6653
31.7747
30.437
29.8713
30.1598
30.9715
32.1905
33.9868
36.3452
38.8848
41.6785
44.4474
46.9598
49.7547
52.5787
54.7643
56.6782
58.3072
59.4369
60.2679
61.0917
61.7327
62.1465
62.3951
62.3608
62.0998
61.5764
60.8913
60.2222
59.606
59.2369
59.2585
59.718
60.6762
62.1475
64.13
66.6677
69.7181
73.0178
76.5679
79.8955
82.5246
84.7628
86.8135
88.3912
89.5405
90.7137
91.8983
92.7507
92.9999
92.8673
92.3438
91.4885
90.3148
88.6017
85.8658
82.2945
77.4762
72.6891
67.9715
63.5728
60.1395
57.3674
55.0672
53.5017
52.2733
51.3361
50.7025
50.1739
49.8245
49.6689
49.8394
50.4499
51.3714
52.6157
54.3741
56.5354
58.5565
60.2233
61.6798
62.5264
62.584
61.6393
59.7411
56.6815
52.6747
47.285
40.5014
33.0858
25.3169
17.7323
10.4578
3.33772
-2.55524
-7.12621
-9.9948
-10.5533
-9.38106
-5.41167
-0.0680466
5.27626
10.5769
15.8608
22.0714
29.8805
38.6218
47.3336
55.4735
62.3713
67.4718
71.3094
73.8943
75.9872
77.5335
78.636
79.4321
80.1765
80.7493
81.2743
81.748
81.6401
81.9044
81.5821
80.8814
80.5925
79.559
78.4682
75.9022
71.9442
61.5604
52.3156
18.9272
56.2828
56.3547
56.5139
56.6694
56.7792
56.7394
56.6055
56.4014
56.2478
56.142
56.0891
56.0638
56.1087
56.1294
56.228
56.3464
56.5363
56.7969
57.2207
57.7194
58.3837
59.1808
60.0672
60.9868
61.9877
62.948
63.7502
64.3278
64.6686
64.4678
63.7959
62.5823
60.8345
58.2267
55.3346
52.0139
48.512
45.1094
42.3131
40.1231
38.2385
37.1615
36.8097
37.0633
37.4545
38.8633
40.8397
43.4008
45.8281
48.4076
51.0083
54.0883
56.9608
59.2418
60.558
61.2259
61.5261
61.3352
60.5582
59.0739
57.0063
54.4093
51.7864
48.8823
45.9408
43.1804
40.584
38.2513
36.3066
34.6052
33.4062
32.9377
33.1159
33.6657
34.5286
36.0479
38.028
39.8862
41.8973
44.32
46.7139
48.9987
51.2729
53.3038
55.1046
56.5264
57.6227
58.6399
59.6338
60.5037
61.1618
61.6325
61.8494
61.9074
61.7928
61.4798
61.2147
61.0275
60.9621
61.188
61.8414
62.8747
64.3793
66.2762
68.5931
71.2876
74.2022
77.3122
80.2861
82.8044
84.9906
86.8502
88.4961
89.847
91.1153
92.368
93.38
93.8249
93.7645
93.3839
92.5628
91.3833
89.7402
87.0702
83.6242
79.229
74.3935
69.9083
65.5466
61.9714
59.1526
56.86
55.1246
53.9147
53.0582
52.4244
52.0976
51.7761
51.7413
52.0568
52.7269
53.8063
55.0963
56.9639
59.103
61.0746
62.7609
64.1369
64.8122
64.564
63.4622
61.3786
57.905
53.1155
46.6639
39.0088
30.6407
22.0637
13.838
6.00899
-1.55333
-8.18964
-13.2948
-17.0102
-18.3102
-16.4766
-12.4498
-6.96548
-0.852562
4.98905
10.819
17.7307
25.9144
35.1653
44.6878
53.8639
61.3602
66.7846
70.9348
73.7273
75.7755
77.3125
78.4503
79.3536
80.1278
80.4931
80.8534
80.9413
80.9793
80.7808
80.105
78.9265
78.0538
76.4437
74.8275
70.3943
68.0981
54.2003
43.1266
20.9962
55.7066
55.9594
56.6253
56.9874
57.0717
56.9273
56.6976
56.4218
56.2327
56.1284
56.1017
56.1183
56.2156
56.2572
56.396
56.5376
56.7472
56.9937
57.4187
57.8928
58.5137
59.2621
60.0799
60.9027
61.784
62.5991
63.2626
63.7437
63.9893
63.7009
62.9893
61.8067
60.0965
57.6501
54.9354
51.989
48.6841
45.6162
43.0241
41.067
39.2693
38.4185
38.0988
38.4313
38.9175
40.2692
42.0703
44.3572
46.5838
48.9458
51.3282
53.8573
56.0709
57.6972
58.8806
59.6619
60.0984
59.8061
59.0988
57.8879
56.3216
54.3524
52.137
49.5856
46.9772
44.5972
42.3867
40.4287
38.673
37.1964
36.1632
35.668
35.597
36.0556
36.8542
37.8214
39.0549
40.593
42.3795
44.3384
46.1146
47.9612
49.9736
51.6563
53.0972
54.4952
55.7518
56.9027
58.0002
59.0749
60.0066
60.7776
61.3727
61.8035
62.0392
62.0698
62.1697
62.286
62.4706
62.918
63.7399
64.7634
66.1607
67.8519
69.9197
72.427
75.0204
77.6452
80.3756
82.8292
84.9215
86.761
88.4774
89.868
91.1324
92.4453
93.4528
94.0904
94.1725
93.8466
93.1294
91.9146
90.3607
87.9465
84.6659
80.7732
76.2519
71.9197
67.8357
64.2467
61.2824
59.0138
57.1721
55.9718
55.1985
54.5765
54.2913
54.0526
54.0217
54.5427
55.2794
56.3895
57.867
59.8648
61.9839
63.7924
65.5288
66.8243
67.4725
67.0625
65.622
63.1298
59.2959
53.7301
46.4231
37.8229
28.5283
19.4141
10.5104
2.04965
-5.44041
-11.9553
-17.5039
-21.158
-22.896
-21.651
-17.8131
-12.3843
-6.52288
-0.373255
6.22313
13.7349
22.5454
32.3772
42.6205
52.4492
60.374
66.2271
70.6843
73.7293
75.8136
77.5778
78.4827
79.3515
79.8471
80.068
80.4829
80.3096
80.6025
79.4309
78.7359
76.6187
76.1091
72.0835
72.5383
64.2725
62.6376
49.5208
35.6835
21.5403
55.4982
55.9347
56.9619
57.4643
57.4621
57.132
56.7657
56.4245
56.2068
56.1041
56.1232
56.1944
56.3508
56.4248
56.586
56.7362
56.957
57.1927
57.5918
58.0108
58.552
59.2243
59.9273
60.635
61.3684
62.0572
62.5774
62.9222
63.0566
62.6962
61.9356
60.8289
59.248
57.0556
54.5514
52.0075
49.1359
46.4787
44.1427
42.4022
40.8623
40.117
39.8832
40.1664
40.7046
41.9532
43.5998
45.4806
47.4405
49.504
51.4698
53.312
55.1437
56.6455
57.7984
58.3165
58.5548
58.3241
57.8586
56.975
55.745
54.0781
52.2626
50.3427
48.239
46.2737
44.4428
42.6075
41.1181
40.0644
39.0756
38.4238
38.3366
38.6381
38.8352
39.4286
40.5642
41.7352
42.8293
44.1352
45.5517
46.9966
48.4991
49.899
51.1762
52.4105
53.5851
54.8759
56.2469
57.6115
58.9018
60.0006
60.8928
61.658
62.2662
62.6567
63.1153
63.4814
63.7807
64.3697
65.2986
66.2452
67.4482
68.9622
70.7766
73.007
75.459
77.8554
80.2679
82.5875
84.6832
86.5686
88.2714
89.7199
90.9998
92.2243
93.2531
93.9595
94.1318
93.873
93.2921
92.1064
90.6499
88.4375
85.4661
81.9743
78.0122
73.9505
70.159
66.7219
63.7008
61.4824
59.6708
58.4082
57.7252
56.9753
56.6368
56.5417
56.5847
57.1018
57.9436
59.2039
60.9618
62.926
64.8567
66.6608
68.5018
69.7437
70.1613
69.7442
68.1208
65.1256
60.6477
54.3451
46.5077
37.1394
27.1745
17.5546
8.25132
-0.642646
-8.34959
-14.4297
-19.6523
-23.5386
-24.854
-24.3947
-21.8758
-17.2739
-11.4753
-5.10211
2.07501
10.3151
19.7677
30.3711
41.4856
51.7491
59.9851
66.228
71.0044
74.0466
76.0199
77.3974
78.1584
79.0777
79.6085
79.7651
80.5816
79.3234
80.5513
76.8774
78.1434
72.6122
75.5086
67.64
67.7632
59.5588
53.778
45.1562
32.1092
21.8325
55.6124
56.1402
57.2064
57.6869
57.5836
57.1566
56.7423
56.4014
56.209
56.1215
56.1919
56.3199
56.5192
56.618
56.7772
56.9204
57.119
57.3546
57.6999
58.0756
58.5145
59.0922
59.6585
60.2604
60.8686
61.4234
61.8107
62.0445
62.0402
61.6295
60.8978
59.8817
58.4024
56.5069
54.4052
52.2505
49.7958
47.6165
45.6506
44.0291
42.7337
42.0748
41.8369
42.0542
42.6643
43.627
44.9172
46.4813
48.1144
49.7371
51.4789
53.1679
54.7395
55.8024
56.6169
57.0857
57.4045
57.2413
56.9063
56.2014
55.2047
53.9927
52.6118
51.079
49.464
47.9438
46.3825
44.9526
43.8193
42.777
41.9102
41.4399
41.076
40.9188
41.1078
41.577
42.1034
42.6777
43.377
44.2058
45.0767
45.934
46.9281
48.0369
49.1105
50.1817
51.4378
52.8406
54.4226
56.1173
57.7265
59.1837
60.4766
61.6229
62.5874
63.2869
63.8766
64.4686
65.0275
65.6536
66.4392
67.3009
68.3769
69.7577
71.3742
73.3177
75.497
77.701
79.9217
82.2116
84.2904
86.1949
87.949
89.4936
90.7913
91.9475
92.9707
93.6833
93.8722
93.6764
93.1314
92.0638
90.715
88.7263
86.1321
83.0874
79.6231
75.9185
72.3873
69.1193
66.3455
64.1193
62.2974
61.0508
60.1412
59.5083
59.1738
59.0619
59.3025
59.8797
60.7578
62.1847
64.0583
65.9914
67.8381
69.7145
71.473
72.5954
72.9261
72.4195
70.6695
67.3196
62.314
55.4822
46.8953
36.7832
26.5753
16.7003
7.15171
-1.70236
-9.50355
-15.6932
-20.7305
-24.3663
-26.4949
-26.8058
-24.9316
-21.2327
-16.0631
-9.50339
-1.50399
7.83576
18.1389
29.448
41.0322
51.6585
60.0278
66.3573
71.0008
73.8279
75.9218
77.1548
78.295
78.6983
79.5229
78.6741
80.8393
76.6113
81.7298
73.2223
75.6828
68.4212
69.3532
62.9028
58.7831
54.5885
47.4647
42.3527
31.642
23.1305
56.3654
56.6885
57.1982
57.306
57.0589
56.7027
56.4481
56.2819
56.2094
56.1876
56.313
56.477
56.6878
56.8083
56.939
57.0529
57.2069
57.4419
57.725
58.0564
58.3969
58.8315
59.3332
59.8661
60.3415
60.7713
61.0573
61.1903
61.0896
60.6979
59.9991
59.0529
57.7901
56.2127
54.3889
52.565
50.5956
48.7304
47.0282
45.6404
44.4753
43.8749
43.7272
43.8373
44.2194
44.951
45.9805
47.1783
48.5999
50.135
51.64
52.8583
53.9932
54.9838
55.8456
56.3891
56.6261
56.5072
56.2482
55.7274
55.0263
54.1114
52.9453
51.8052
50.6257
49.4284
48.2787
47.1026
46.04
45.2154
44.5338
43.9104
43.4726
43.3516
43.2636
43.2157
43.3346
43.5467
43.8342
44.0744
44.3076
44.7184
45.2744
45.8749
46.6865
47.7229
49.0596
50.6657
52.5279
54.5556
56.6428
58.4948
60.1426
61.6475
62.9132
63.8702
64.6621
65.4326
66.0812
66.6371
67.3436
68.1187
69.0067
70.2474
71.6777
73.3336
75.2604
77.3879
79.4887
81.6279
83.6943
85.7135
87.5628
89.1497
90.5623
91.6054
92.5263
93.2167
93.4392
93.3576
92.8533
91.9265
90.7013
89.0312
86.7378
84.0825
81.0006
77.6777
74.5033
71.4547
68.913
66.7658
65.016
63.759
62.8629
62.101
61.7611
61.783
62.0467
62.751
63.6935
65.1629
67.1134
68.9907
70.7241
72.6008
74.3448
75.3128
75.59
74.9496
73.0849
69.6224
64.2726
57.0422
47.8591
37.0236
26.2154
16.3403
6.75928
-2.16927
-9.65812
-15.6215
-20.8506
-24.8259
-27.527
-28.8677
-27.8768
-24.7049
-19.4697
-12.5181
-3.91701
6.17196
17.2846
29.4261
41.3743
51.8653
60.1056
66.463
71.0895
74.1927
76.2624
77.0687
78.2759
77.4619
79.4908
77.3627
81.0521
75.3206
75.8834
68.3334
67.084
62.6103
59.027
56.2253
52.6211
50.4037
45.134
41.8109
33.3393
25.4221
58.776
58.5626
57.4085
56.5377
55.9841
55.7994
55.8851
56.0498
56.2061
56.3186
56.487
56.6763
56.8768
56.9811
57.0613
57.145
57.2452
57.461
57.699
57.9969
58.2638
58.6317
59.0262
59.4768
59.8481
60.1682
60.3618
60.442
60.2916
59.9027
59.2927
58.4904
57.3926
56.0224
54.5043
52.9476
51.2832
49.6706
48.2012
46.9273
46.0377
45.5022
45.1957
45.157
45.4575
45.9734
46.788
47.897
49.1696
50.3036
51.4161
52.5246
53.6664
54.6115
55.2682
55.7071
55.9401
55.9505
55.8124
55.4449
54.9095
54.2466
53.4537
52.6016
51.6783
50.748
49.7667
48.8757
48.0843
47.3395
46.6773
46.1517
45.7565
45.3361
44.9638
44.7434
44.5276
44.2189
43.8764
43.6572
43.5318
43.4377
43.431
43.6758
44.1329
44.8877
46.2413
48.0197
50.2005
52.693
55.2381
57.6251
59.817
61.756
63.3446
64.5147
65.4599
66.299
66.9474
67.4832
68.0907
68.7621
69.5092
70.5303
71.787
73.2184
74.8921
76.7993
78.7726
80.9285
83.0974
85.2035
87.1791
88.8349
90.303
91.2945
92.0375
92.7142
92.9565
92.9359
92.577
91.8075
90.7169
89.2884
87.2526
84.9147
82.2327
79.3418
76.5193
73.7546
71.3439
69.3399
67.6458
66.3358
65.4534
64.6927
64.3745
64.5081
64.8481
65.6246
66.684
68.1753
69.9674
71.7378
73.4937
75.3096
76.8104
77.6724
77.8999
77.131
75.0976
71.6988
66.403
58.8917
49.3708
38.1983
26.7951
16.8204
7.48145
-1.67557
-9.08819
-14.768
-19.7763
-24.1984
-27.6742
-29.3895
-29.0604
-26.5697
-21.258
-13.957
-4.6684
6.25202
18.1385
30.4886
42.5909
52.8556
61.0617
67.2524
71.6915
74.6483
76.2414
76.6904
78.2201
76.7213
78.9865
77.2058
77.9244
72.9849
67.0419
61.7452
58.5824
57.079
54.1652
52.7522
50.0275
49.5765
46.1828
42.4638
35.6
28.141
59.73
59.3811
57.5769
56.1581
55.3574
55.2357
55.5119
55.9032
56.2122
56.4416
56.6603
56.8684
57.0439
57.1303
57.1661
57.2031
57.2619
57.4442
57.6524
57.9199
58.1373
58.4535
58.7564
59.1292
59.4089
59.6557
59.7936
59.8248
59.6514
59.3282
58.7953
58.0432
57.1121
55.9642
54.6464
53.2776
51.9018
50.4813
49.2186
48.1682
47.3274
46.7142
46.3923
46.3075
46.4539
46.9043
47.6594
48.4691
49.3409
50.3187
51.4747
52.5145
53.3692
54.0748
54.6822
55.1636
55.4574
55.6171
55.5354
55.3158
54.9922
54.5506
53.9751
53.3336
52.6595
51.9135
51.1785
50.5176
49.8372
49.2118
48.7374
48.2127
47.6568
47.1365
46.6885
46.1562
45.4634
44.7235
44.0382
43.4109
42.6489
41.8828
41.3631
41.1337
41.1
41.5301
42.6997
44.6595
47.2741
50.3321
53.5962
56.74
59.4369
61.7586
63.6792
65.1532
66.2899
67.1643
67.9068
68.3576
68.7895
69.2736
69.8687
70.6173
71.5926
72.8075
74.3076
76.0931
78.0296
80.185
82.36
84.466
86.54
88.2907
89.8739
90.9783
91.6471
92.2733
92.5413
92.5685
92.3579
91.7162
90.7116
89.4539
87.7179
85.6579
83.2654
80.7622
78.2939
75.7194
73.4925
71.5846
69.9029
68.7599
67.9377
67.2723
67.0651
67.2302
67.7014
68.5817
69.5952
70.9568
72.5822
74.2113
75.8509
77.5633
78.9234
79.531
79.5686
78.8837
76.9151
73.5439
68.375
61.0497
51.3391
39.7807
28.4378
18.5136
9.00755
0.00836021
-7.20195
-12.7695
-17.7079
-22.2665
-25.9757
-28.0597
-28.0486
-25.5641
-20.4863
-12.743
-2.6264
8.41857
20.5073
33.1191
44.6968
54.3317
61.9984
67.8297
71.9417
74.7629
76.3455
76.8925
78.0675
76.6628
77.0715
75.461
72.4376
66.5676
61.8857
58.241
57.2457
57.8938
55.1233
55.213
52.0596
51.319
47.7138
43.0034
37.2064
30.5171
60.1077
59.7916
57.8159
56.1484
55.1545
54.9902
55.3109
55.8159
56.2147
56.5353
56.7867
57.0141
57.1851
57.2502
57.2493
57.2418
57.2744
57.4029
57.5958
57.8232
58.0189
58.2948
58.5281
58.8346
59.0668
59.2441
59.3238
59.3487
59.189
58.8738
58.3786
57.7298
56.9257
55.9196
54.8219
53.6316
52.4515
51.2662
50.1798
49.158
48.3897
47.8555
47.4731
47.3118
47.4777
47.7654
48.113
48.7159
49.6228
50.5432
51.3878
52.1048
52.895
53.6627
54.2936
54.77
55.1135
55.349
55.3946
55.3486
55.1479
54.8218
54.4839
54.0703
53.5743
53.0589
52.5429
52.0077
51.5505
51.1575
50.6506
50.0546
49.5828
49.0202
48.2943
47.4497
46.5653
45.5874
44.3954
42.9806
41.5165
40.154
38.9221
38.0044
37.5553
37.6501
38.5663
40.7262
43.8756
47.6782
51.7958
55.6551
59.0006
61.864
64.1487
65.8598
67.1634
68.0997
68.701
69.0922
69.3923
69.6685
69.9831
70.4914
71.2592
72.2801
73.5554
75.1559
76.9621
79.0887
81.3634
83.6082
85.8176
87.6882
89.2977
90.5192
91.2919
91.877
92.2395
92.3182
92.1987
91.698
90.8294
89.6782
88.153
86.3674
84.1881
81.9686
79.6869
77.3909
75.5436
73.7366
72.1621
71.1659
70.4224
69.9837
69.8684
69.9717
70.4695
71.3331
72.2138
73.4181
74.8968
76.2905
77.8483
79.3614
80.4095
80.7545
80.7189
80.123
78.4438
75.4372
70.4788
63.2835
53.6506
41.8056
30.6969
21.0452
11.3196
2.25982
-4.6645
-9.7795
-14.4257
-19.0976
-22.6879
-24.5495
-24.7423
-21.9975
-16.7294
-9.08685
1.4891
12.6241
24.3546
36.4366
46.868
55.8255
63.2124
68.5221
72.4323
75.2637
76.7843
77.3961
77.5182
76.2124
74.8472
70.2407
66.789
62.6974
61.3881
60.8057
60.4521
62.1183
58.9224
59.0178
55.0388
52.5238
48.1251
42.9716
38.115
32.2199
60.366
60.0755
58.0148
56.2158
55.1149
54.8874
55.1976
55.7556
56.2122
56.5862
56.8681
57.1066
57.2752
57.3265
57.3098
57.2476
57.2573
57.336
57.5099
57.7059
57.8983
58.1382
58.3423
58.6159
58.7772
58.9117
58.9636
58.9614
58.792
58.5115
58.0721
57.4787
56.7917
55.951
55.0122
53.9981
53.0397
51.9842
50.9897
50.1059
49.4156
48.8372
48.486
48.329
48.2187
48.2317
48.5272
49.1316
49.7737
50.3324
51.0029
51.7456
52.5414
53.2423
53.8712
54.3832
54.7595
55.0857
55.3021
55.3825
55.2907
55.1587
55.0352
54.7929
54.5337
54.2445
53.8937
53.5302
53.2266
52.9343
52.5546
52.0815
51.4746
50.7494
50.0498
49.1191
47.855
46.3056
44.5276
42.5857
40.4999
38.3446
36.3778
34.7915
33.7817
33.5241
34.2208
36.3997
40.055
44.7664
49.8169
54.5288
58.6422
62.0835
64.7504
66.6925
68.0928
69.0154
69.5097
69.8381
69.9787
70.0068
70.0587
70.2835
70.7161
71.4094
72.4148
73.8135
75.6016
77.7898
80.1659
82.5767
84.9531
87.0025
88.7124
90.0703
90.9672
91.613
92.0684
92.2214
92.2062
91.8358
91.1207
90.1277
88.792
87.0834
85.1846
83.3569
81.1888
79.1099
77.6152
76.039
74.5377
73.6024
72.9623
72.5565
72.4371
72.5947
73.0167
73.7311
74.5678
75.5713
76.7484
77.9925
79.4614
80.6163
81.2194
81.3983
81.3213
80.8295
79.5645
77.1352
72.8135
65.9194
56.5262
44.6666
33.5669
24.3301
14.9212
5.48365
-1.66574
-6.25386
-10.4517
-14.8382
-18.097
-19.5808
-19.1237
-16.4072
-10.7493
-2.99018
6.91347
17.7173
28.9558
40.1893
49.8303
57.7875
64.8157
69.295
73.1255
75.6684
76.8386
77.7505
76.8928
76.0971
73.8101
66.923
64.6334
63.8054
63.7883
64.8914
63.7874
64.6584
60.5064
59.5694
55.8167
52.3782
47.4087
42.3391
38.1824
32.5906
60.4341
60.1428
58.0853
56.2697
55.141
54.889
55.1939
55.7649
56.239
56.6348
56.9252
57.1488
57.3181
57.3594
57.3277
57.2512
57.2327
57.2804
57.4329
57.5939
57.7702
57.9777
58.1467
58.3431
58.4965
58.594
58.62
58.6004
58.4604
58.1989
57.7979
57.2917
56.7185
55.9996
55.2288
54.3921
53.5204
52.6272
51.7837
50.9401
50.2592
49.7675
49.3597
48.9498
48.7252
48.7894
48.956
49.2235
49.6103
50.1246
50.7736
51.4274
52.0504
52.7
53.3461
53.8819
54.3951
54.8579
55.1856
55.398
55.5265
55.5876
55.6077
55.5651
55.5269
55.4306
55.2823
55.071
54.846
54.6708
54.4272
54.0186
53.4229
52.7091
51.8758
50.7037
49.1024
47.1239
44.9552
42.5618
39.8137
36.9501
34.3434
32.0636
30.3359
29.5531
30.0994
32.3469
36.3605
41.7343
47.7098
53.3806
58.3089
62.333
65.3768
67.601
69.1514
70.0963
70.535
70.6752
70.571
70.3242
70.056
69.8772
69.873
70.2107
71.0146
72.1814
73.8605
76.1174
78.7165
81.3556
83.9472
86.2525
88.1442
89.6607
90.7127
91.4946
92.0049
92.2162
92.3081
92.1139
91.506
90.652
89.5801
88.0227
86.3293
84.7242
82.8655
81.0041
79.5424
78.1398
76.8122
76.0267
75.5106
74.8552
74.6621
74.9782
75.3225
75.7834
76.3904
77.2588
78.2531
79.2885
80.4714
81.2819
81.486
81.446
81.3549
81.0222
80.2072
78.4378
74.8346
68.5405
59.4405
47.8106
37.0559
28.1682
19.0087
9.42561
2.49724
-1.94088
-6.04233
-9.82833
-12.6196
-13.8637
-12.6771
-9.52989
-4.11424
3.88246
13.5047
23.3987
33.832
44.1241
52.4589
59.7135
65.9297
70.0487
73.7597
75.928
76.8204
78.0336
76.2741
77.6024
72.9249
70.9334
68.539
66.3198
67.6702
67.0373
65.4844
64.4943
60.2656
58.1725
54.6025
51.313
45.8837
41.4516
37.6724
31.9019
60.3353
60.0281
58.0544
56.3193
55.2418
54.9982
55.3104
55.8734
56.3554
56.712
56.983
57.1693
57.3226
57.3643
57.3297
57.2456
57.1936
57.2354
57.343
57.4799
57.6393
57.8031
57.9551
58.1142
58.2441
58.3083
58.3438
58.3043
58.1775
57.9516
57.6237
57.1849
56.6957
56.1185
55.4492
54.7215
53.9676
53.2134
52.4112
51.6576
51.0355
50.4536
49.9299
49.5339
49.3154
49.1527
49.0573
49.19
49.549
49.9633
50.3808
50.8907
51.4658
52.1343
52.8091
53.4526
54.0625
54.6124
55.1059
55.5279
55.8484
56.0416
56.2443
56.4377
56.5745
56.6469
56.5826
56.5169
56.5405
56.4216
56.1281
55.883
55.4803
54.6724
53.5798
52.2634
50.5643
48.3403
45.7122
42.7929
39.5989
36.3079
33.203
30.436
28.2077
26.9738
27.2508
29.3177
33.4054
39.2641
45.9542
52.3789
58.034
62.6913
66.2432
68.7366
70.3814
71.3002
71.6422
71.5736
71.187
70.5579
69.8621
69.2571
68.8155
68.7989
69.2912
70.237
71.7714
74.1236
76.9531
79.9127
82.8393
85.458
87.651
89.3686
90.5908
91.4662
92.0532
92.3719
92.4988
92.3707
91.8783
91.1798
90.2151
88.8778
87.4521
85.9394
84.2075
82.6111
81.3599
79.9677
78.6612
78.116
77.6802
76.9678
76.7836
77.0251
77.2457
77.4348
77.7694
78.5448
79.435
80.1107
80.8154
81.2771
81.2842
81.1247
80.8839
80.7372
80.3737
79.0901
75.9467
70.1994
61.7436
51.1546
41.0891
32.1938
23.2063
14.4673
7.82772
2.77769
-1.14534
-3.92015
-6.13483
-6.70586
-5.85114
-2.36262
3.11338
10.6278
19.5224
28.9873
38.5054
47.4006
54.6868
61.4577
66.9382
71.0428
74.4848
76.4262
77.2889
78.677
76.2672
79.4034
72.5808
77.4059
72.7488
69.2799
72.801
67.2053
66.9058
63.2402
59.4569
56.5379
52.442
50.0609
44.3216
41.0232
37.3249
31.5436
60.0928
59.7801
57.9451
56.3576
55.412
55.2168
55.5485
56.071
56.5188
56.8148
57.0314
57.1733
57.2956
57.3324
57.2803
57.2034
57.1404
57.1701
57.2525
57.3712
57.5004
57.6408
57.7831
57.8869
58.002
58.0605
58.0909
58.0546
57.9643
57.7842
57.5006
57.1471
56.7344
56.2242
55.6628
55.0691
54.3942
53.7
53.01
52.3227
51.6285
51.0406
50.5723
50.1078
49.6704
49.3341
49.1878
49.2248
49.3706
49.5536
49.8531
50.3418
50.9041
51.5694
52.278
52.9927
53.7005
54.433
55.1023
55.6442
56.1556
56.607
56.956
57.2604
57.5827
57.794
57.7963
57.86
58.0776
58.139
57.9111
57.6294
57.282
56.5753
55.4243
53.9281
51.9842
49.4697
46.5201
43.2775
39.7977
36.2394
32.8657
29.8506
27.3849
25.8944
25.9183
27.8404
31.8748
37.8861
44.963
51.977
58.2078
63.3115
67.1551
69.8438
71.5629
72.4401
72.6487
72.3742
71.7112
70.7228
69.6099
68.5209
67.5936
67.1614
67.3639
68.1462
69.6685
72.0667
75.0763
78.3773
81.6963
84.719
87.2971
89.2713
90.6679
91.66
92.3153
92.6132
92.7834
92.6648
92.166
91.6431
90.7707
89.4525
88.2092
86.9722
85.2923
83.7721
82.8562
81.6919
80.4348
79.8173
79.3748
78.8285
78.6325
78.6251
78.7396
78.9016
79.0129
79.5949
80.1529
80.3052
80.6067
80.8514
80.7451
80.5953
80.358
80.143
79.9539
78.8578
75.8302
70.3908
63.2346
54.5011
45.2475
36.607
28.3897
20.5067
13.4562
8.25205
4.77041
1.67938
-0.490499
-0.545025
1.15084
4.31874
9.80688
17.106
24.9103
33.6572
42.3213
50.1063
56.9818
62.7287
68.2558
72.2284
75.3514
77.1002
78.1366
79.3634
76.8418
80.0692
73.1921
79.9316
73.1186
73.7549
76.5304
67.3446
68.9127
61.9727
58.8502
54.7944
51.4505
49.0748
42.9774
41.3192
37.4677
32.0585
59.6361
59.3183
57.7468
56.439
55.7092
55.5854
55.897
56.3316
56.6997
56.9296
57.0712
57.1743
57.2415
57.2569
57.2026
57.1396
57.084
57.1027
57.1697
57.2579
57.382
57.4927
57.6152
57.7005
57.7992
57.8489
57.8791
57.8762
57.7892
57.656
57.4312
57.1474
56.7854
56.3684
55.9141
55.3624
54.8009
54.1982
53.545
52.8602
52.2324
51.68
51.0724
50.4658
49.9683
49.5984
49.3135
49.1245
49.0588
49.1474
49.4199
49.8119
50.3569
51.0286
51.763
52.5434
53.432
54.32
55.0826
55.8046
56.5377
57.1599
57.6171
58.0382
58.5064
58.8663
58.9809
59.1077
59.4447
59.7046
59.6238
59.3193
58.8679
58.2066
57.0914
55.3654
53.1108
50.4528
47.4096
43.9988
40.3276
36.5761
33.012
29.8569
27.3193
25.7849
25.6861
27.707
31.8407
37.9238
45.0611
52.2121
58.6421
63.9534
67.9806
70.7668
72.4692
73.2724
73.4095
72.9661
72.0665
70.8088
69.3375
67.824
66.4732
65.6832
65.6635
66.3268
67.8411
70.2636
73.4898
77.1216
80.757
84.2163
87.2018
89.4443
90.9859
92.0868
92.8025
93.0853
93.1755
93.0392
92.6085
91.956
91.1879
90.1412
88.7776
87.6035
86.2892
84.877
83.8662
82.9533
82.1681
81.5774
80.9344
80.3578
80.0872
80.0926
80.1412
80.2144
80.0929
80.1222
80.338
80.2704
80.2883
80.397
80.2989
80.0132
79.6343
79.2305
78.9861
77.6105
74.4101
69.5257
64.0161
57.2968
49.5109
41.7368
34.0579
26.7199
20.1476
14.7861
10.4311
7.33171
5.8076
5.35964
6.53766
10.6741
16.2035
22.2188
29.4846
37.9627
45.8235
51.4163
59.0519
63.9269
69.7946
73.2865
76.1344
77.7488
78.9513
79.8767
77.5801
79.5105
74.2779
79.1709
72.5339
77.2733
75.9951
68.4532
70.7226
61.8967
58.6123
53.8501
51.5427
47.8727
42.3773
41.867
37.8221
32.8527
58.892
58.6031
57.5079
56.623
56.1569
56.1089
56.335
56.6287
56.8713
57.0246
57.1021
57.1589
57.1718
57.17
57.1211
57.0736
57.0377
57.0484
57.1033
57.1668
57.2725
57.3527
57.4611
57.5387
57.6281
57.6875
57.7156
57.7235
57.6575
57.5682
57.3862
57.1707
56.8781
56.5441
56.1307
55.671
55.1693
54.5776
53.9933
53.3906
52.7539
52.0913
51.4272
50.828
50.2637
49.7384
49.3023
49.0136
48.861
48.8713
49.0537
49.4031
49.9426
50.6178
51.3699
52.2598
53.2639
54.23
55.1149
55.9905
56.8646
57.631
58.2135
58.7229
59.3101
59.7847
60.0068
60.2353
60.5684
60.7531
60.8454
60.8034
60.2019
59.1723
58.0452
56.4913
54.2019
51.3421
48.1541
44.7218
41.0752
37.315
33.6831
30.4581
27.9501
26.5899
26.7608
28.8255
33.0086
38.9634
45.8783
52.8459
59.1625
64.4086
68.4436
71.272
73.0208
73.9088
73.9769
73.3462
72.188
70.6984
69.0392
67.3459
65.8225
64.8314
64.6524
65.2666
66.774
69.2401
72.6071
76.4298
80.3456
84.1485
87.4271
89.9323
91.655
92.8605
93.5421
93.7507
93.7961
93.6172
93.0849
92.4229
91.6697
90.6065
89.4559
88.324
87.0035
85.849
84.914
83.978
83.3841
83.1808
82.5881
81.7674
81.4024
81.4922
81.3915
80.9852
80.6162
80.4188
80.2995
80.1062
80.0463
80.0585
79.8766
79.4988
78.9722
78.5059
77.576
75.8064
72.2482
68.1613
64.2867
59.8682
54.0613
47.2946
40.0126
33.005
27.0082
21.5598
16.5101
13.2928
11.6634
10.7822
12.2474
16.1498
20.8216
26.5145
33.4505
40.7081
47.6855
52.124
61.2019
64.8648
71.1017
74.1145
76.8227
78.4905
79.5214
79.9146
78.1277
78.8729
75.4457
78.2625
73.209
77.7498
73.7049
70.3684
70.7008
61.4406
58.5613
53.7751
51.6902
47.1188
42.8984
42.3995
38.1646
33.4817
58.0541
57.9077
57.3938
56.9577
56.7162
56.6696
56.7561
56.8842
56.9986
57.0806
57.1106
57.1269
57.1109
57.0922
57.0501
57.0178
56.9986
57.0072
57.0519
57.1034
57.1887
57.2579
57.3538
57.4278
57.5088
57.5697
57.599
57.6163
57.5745
57.505
57.3693
57.195
56.959
56.6525
56.2962
55.8798
55.4052
54.8773
54.3265
53.7082
53.0492
52.3879
51.7268
51.0639
50.4217
49.8374
49.3582
49.0017
48.7685
48.7239
48.8755
49.1964
49.7305
50.4151
51.1998
52.1348
53.1997
54.2408
55.1933
56.1445
57.1366
57.9968
58.6289
59.2031
59.8599
60.3464
60.5855
60.963
61.4569
61.5373
61.353
61.364
61.078
60.0562
58.5686