/*--------------------------------*- C++ -*----------------------------------*\
| =========                 |                                                 |
| \\      /  F ield         | OpenFOAM: The Open Source CFD Toolbox           |
|  \\    /   O peration     | Version:  2.4.0                                 |
|   \\  /    A nd           | Web:      www.OpenFOAM.org                      |
|    \\/     M anipulation  |                                                 |
\*---------------------------------------------------------------------------*/
FoamFile
{
    version     2.0;
    format      ascii;
    class       volVectorField;
    location    "24";
    object      U;
}
// * * * * * * * * * * * * * * * * * * * * * * * * * * * * * * * * * * * * * //

dimensions      [0 1 -1 0 0 0 0];

internalField   nonuniform List<vector> 
4400
(
(0.101048 -0.000910508 0)
(0.10456 0.000657683 0)
(0.0881346 0.00144616 0)
(0.0961336 -0.00149658 0)
(0.108489 -0.00126079 0)
(0.0998567 0.00213582 0)
(0.0912657 0.000149956 0)
(0.100797 -0.00163348 0)
(0.100964 0.00129186 0)
(0.0967758 -0.000397399 0)
(0.106819 -0.000959695 0)
(0.0946987 0.00151069 0)
(0.101333 -0.000593058 0)
(0.0991678 -0.00117355 0)
(0.114132 0.00086771 0)
(0.0909883 0.000255959 0)
(0.118887 -0.000810711 0)
(0.0989457 -0.00120114 0)
(0.122902 0.00359661 0)
(0.11046 -0.0028189 0)
(0.279503 -0.00264096 0)
(0.280156 0.00227708 0)
(0.266269 0.00404373 0)
(0.28002 -0.0049827 0)
(0.287544 -0.00359129 0)
(0.272095 0.00670177 0)
(0.280119 -0.000229514 0)
(0.273681 -0.00490417 0)
(0.28444 0.00400159 0)
(0.273179 -0.00155487 0)
(0.293846 -0.00252078 0)
(0.260104 0.00433048 0)
(0.302352 -0.00164739 0)
(0.261096 -0.00414411 0)
(0.31515 0.00355067 0)
(0.250801 -0.00109567 0)
(0.326413 -0.00136654 0)
(0.270479 -0.0033885 0)
(0.294565 0.00302221 0)
(0.372518 0.00497295 0)
(0.442652 -0.00416234 0)
(0.431035 0.00433699 0)
(0.434633 0.00602145 0)
(0.43799 -0.00896584 0)
(0.452481 -0.00474368 0)
(0.418849 0.0110009 0)
(0.461905 -0.00139785 0)
(0.417643 -0.00772986 0)
(0.456114 0.00701923 0)
(0.426888 -0.00361405 0)
(0.464993 -0.0028159 0)
(0.405652 0.00629729 0)
(0.481646 -0.00315487 0)
(0.409567 -0.00640374 0)
(0.481105 0.00552367 0)
(0.417784 -0.00119162 0)
(0.477617 -0.00604861 0)
(0.457544 0.00140492 0)
(0.416372 -0.00513982 0)
(0.566016 0.00412577 0)
(0.593965 -0.00487584 0)
(0.55272 0.00570062 0)
(0.585417 0.00757998 0)
(0.572353 -0.0126063 0)
(0.606298 -0.00483717 0)
(0.537722 0.0141933 0)
(0.626085 -0.00209202 0)
(0.544764 -0.00946019 0)
(0.59891 0.00890427 0)
(0.570798 -0.00511544 0)
(0.609429 -0.0028657 0)
(0.542453 0.00870261 0)
(0.626578 -0.00561528 0)
(0.555954 -0.00671302 0)
(0.607362 0.00522288 0)
(0.578492 0.000623065 0)
(0.599334 -0.011745 0)
(0.615147 0.00574023 0)
(0.548951 -0.00751857 0)
(0.686508 -0.0065555 0)
(0.730128 -0.00492043 0)
(0.657691 0.00805075 0)
(0.706659 0.00720814 0)
(0.681328 -0.0177341 0)
(0.741938 -0.00328595 0)
(0.641789 0.0173087 0)
(0.753174 -0.00515438 0)
(0.669705 -0.00816951 0)
(0.705672 0.0093979 0)
(0.694984 -0.0079508 0)
(0.728205 -0.0020036 0)
(0.664198 0.0114366 0)
(0.738048 -0.0097923 0)
(0.690688 -0.00493749 0)
(0.709344 0.00445581 0)
(0.707819 0.00117687 0)
(0.708618 -0.0152716 0)
(0.733988 0.00660608 0)
(0.675797 -0.00440056 0)
(0.77831 -0.0201565 0)
(0.838974 -0.00578017 0)
(0.756949 0.0123469 0)
(0.80507 0.00732047 0)
(0.768343 -0.0248432 0)
(0.845925 -0.00250951 0)
(0.740957 0.0220732 0)
(0.842509 -0.0109435 0)
(0.783505 -0.00566793 0)
(0.793842 0.0112717 0)
(0.793643 -0.0124793 0)
(0.821115 -0.00149402 0)
(0.767931 0.0150921 0)
(0.822157 -0.0152589 0)
(0.798513 -0.00367203 0)
(0.798513 0.00559442 0)
(0.80808 0.000104222 0)
(0.800952 -0.0163343 0)
(0.827656 0.00471231 0)
(0.778066 0.000697641 0)
(0.857697 -0.0323458 0)
(0.917794 -0.00747532 0)
(0.84362 0.0170629 0)
(0.88511 0.00874837 0)
(0.845071 -0.0312125 0)
(0.918978 -0.00303593 0)
(0.830235 0.0281204 0)
(0.906692 -0.0176052 0)
(0.873377 -0.0038605 0)
(0.869028 0.0147011 0)
(0.874037 -0.0168824 0)
(0.893178 -0.00114706 0)
(0.853061 0.0190848 0)
(0.888833 -0.0201694 0)
(0.879098 -0.00346311 0)
(0.872104 0.00780145 0)
(0.885151 -0.00214429 0)
(0.876061 -0.015699 0)
(0.900586 0.00162879 0)
(0.858667 0.00564311 0)
(0.923444 -0.0415638 0)
(0.970093 -0.00933989 0)
(0.912012 0.0212392 0)
(0.944357 0.0104135 0)
(0.910604 -0.0358928 0)
(0.968042 -0.00406145 0)
(0.903004 0.0341432 0)
(0.953543 -0.0236137 0)
(0.937243 -0.00286877 0)
(0.927869 0.018315 0)
(0.935297 -0.0207653 0)
(0.946713 -0.00059645 0)
(0.918875 0.0224608 0)
(0.941365 -0.0235095 0)
(0.936685 -0.00410676 0)
(0.930005 0.0106765 0)
(0.939543 -0.00510795 0)
(0.933814 -0.0145792 0)
(0.95214 -0.00131137 0)
(0.919536 0.00936244 0)
(0.972483 -0.0468992 0)
(0.999059 -0.0108679 0)
(0.960388 0.024542 0)
(0.982471 0.0115218 0)
(0.959505 -0.0387655 0)
(0.99653 -0.00519271 0)
(0.955878 0.0389964 0)
(0.984614 -0.0280561 0)
(0.976912 -0.00230269 0)
(0.969205 0.0212378 0)
(0.974833 -0.0238723 0)
(0.981343 0.000296765 0)
(0.963602 0.0245047 0)
(0.978314 -0.0249177 0)
(0.972433 -0.00541826 0)
(0.972116 0.0137119 0)
(0.972475 -0.007964 0)
(0.973895 -0.0133125 0)
(0.982519 -0.0033538 0)
(0.960568 0.0110557 0)
(1.00302 -0.0480925 0)
(1.0068 -0.0118045 0)
(0.988221 0.026777 0)
(1.00052 0.0117455 0)
(0.988758 -0.039755 0)
(1.00571 -0.00619057 0)
(0.987705 0.0419728 0)
(0.999127 -0.0303822 0)
(0.993814 -0.00192356 0)
(0.993039 0.0229984 0)
(0.992474 -0.0257705 0)
(0.997113 0.00150503 0)
(0.986993 0.0248398 0)
(0.997538 -0.0245322 0)
(0.9871 -0.00698188 0)
(0.996582 0.0161362 0)
(0.985532 -0.010093 0)
(0.995639 -0.0122915 0)
(0.992926 -0.00409561 0)
(0.982215 0.0103318 0)
(1.01434 -0.0458191 0)
(0.994771 -0.0119667 0)
(0.995325 0.0276368 0)
(0.999558 0.0111093 0)
(0.997074 -0.0389918 0)
(0.996052 -0.00664063 0)
(0.998266 0.0425819 0)
(0.995793 -0.0303193 0)
(0.989058 -0.00155371 0)
(0.998797 0.0232517 0)
(0.989133 -0.0261527 0)
(0.994108 0.0028069 0)
(0.990098 0.0234375 0)
(0.997488 -0.0227121 0)
(0.982379 -0.00848856 0)
(1.00122 0.0175657 0)
(0.980436 -0.0110382 0)
(0.997546 -0.0116238 0)
(0.98477 -0.00361959 0)
(0.984905 0.00757545 0)
(1.00562 -0.0412016 0)
(0.964062 -0.0112916 0)
(0.981591 0.0268859 0)
(0.980338 0.00979212 0)
(0.983568 -0.0366809 0)
(0.967724 -0.00638618 0)
(0.987426 0.040701 0)
(0.973319 -0.0279427 0)
(0.96363 -0.00126419 0)
(0.985727 0.0218513 0)
(0.965572 -0.024764 0)
(0.972373 0.00371023 0)
(0.973993 0.0207913 0)
(0.977254 -0.019835 0)
(0.959696 -0.00952198 0)
(0.984485 0.017738 0)
(0.958393 -0.0108439 0)
(0.977834 -0.0109925 0)
(0.959263 -0.00256754 0)
(0.968262 0.00390774 0)
(0.976391 -0.0354602 0)
(0.915395 -0.00988259 0)
(0.947168 0.0244871 0)
(0.943094 0.00799384 0)
(0.947248 -0.0328941 0)
(0.920628 -0.0056969 0)
(0.954826 0.0367384 0)
(0.930346 -0.0236578 0)
(0.918626 -0.00121876 0)
(0.953464 0.0189147 0)
(0.922071 -0.0216895 0)
(0.932379 0.00384731 0)
(0.938805 0.01749 0)
(0.936478 -0.0163597 0)
(0.91905 -0.00980092 0)
(0.945871 0.0166234 0)
(0.91932 -0.00985193 0)
(0.935368 -0.0101131 0)
(0.917927 -0.00174651 0)
(0.930858 0.000559955 0)
(0.927365 -0.0294514 0)
(0.848974 -0.00797464 0)
(0.893049 0.0205855 0)
(0.887044 0.0061439 0)
(0.886936 -0.0277045 0)
(0.854777 -0.00484831 0)
(0.900359 0.0314359 0)
(0.865788 -0.0180753 0)
(0.856488 -0.00173869 0)
(0.902267 0.0148042 0)
(0.858593 -0.0173016 0)
(0.875016 0.00308042 0)
(0.88353 0.0140155 0)
(0.875005 -0.0125893 0)
(0.859592 -0.00947906 0)
(0.886907 0.0144909 0)
(0.861825 -0.00823419 0)
(0.871687 -0.00898628 0)
(0.861907 -0.00164106 0)
(0.871187 -0.00167441 0)
(0.86078 -0.0239301 0)
(0.765212 -0.006003 0)
(0.820854 0.0155085 0)
(0.80908 0.00488358 0)
(0.801865 -0.0214645 0)
(0.772211 -0.00433491 0)
(0.824998 0.025609 0)
(0.780242 -0.0120597 0)
(0.782162 -0.00344242 0)
(0.830921 0.0103964 0)
(0.774549 -0.0121061 0)
(0.80098 0.00145868 0)
(0.806502 0.0110431 0)
(0.793087 -0.00873425 0)
(0.782484 -0.00905796 0)
(0.810326 0.0116241 0)
(0.784306 -0.00611907 0)
(0.790998 -0.00803764 0)
(0.789005 -0.00205194 0)
(0.78901 -0.00248132 0)
(0.777776 -0.0192519 0)
(0.666532 -0.00465722 0)
(0.728041 0.0101739 0)
(0.703754 0.0051906 0)
(0.69588 -0.0154571 0)
(0.67725 -0.00513276 0)
(0.727957 0.0200411 0)
(0.677259 -0.00688775 0)
(0.696849 -0.00624558 0)
(0.731132 0.0075095 0)
(0.670812 -0.00698006 0)
(0.709559 -0.000892008 0)
(0.705618 0.00911619 0)
(0.693122 -0.00554365 0)
(0.689586 -0.00905809 0)
(0.713501 0.00882231 0)
(0.685449 -0.00380889 0)
(0.693989 -0.00740131 0)
(0.692813 -0.00220511 0)
(0.68569 -0.0022213 0)
(0.676276 -0.0153224 0)
(0.55404 -0.00427754 0)
(0.604807 0.00674169 0)
(0.575216 0.00642139 0)
(0.577609 -0.0115859 0)
(0.564994 -0.00608429 0)
(0.603788 0.015746 0)
(0.560035 -0.00349382 0)
(0.588013 -0.00786419 0)
(0.597207 0.00704392 0)
(0.554684 -0.00376951 0)
(0.594354 -0.00295789 0)
(0.580424 0.00816185 0)
(0.577231 -0.00380763 0)
(0.574275 -0.00850026 0)
(0.589207 0.00710416 0)
(0.565947 -0.0019029 0)
(0.575534 -0.00661674 0)
(0.570573 -0.00172498 0)
(0.562614 -0.00154355 0)
(0.553178 -0.0117652 0)
(0.421335 -0.00365293 0)
(0.45303 0.00490336 0)
(0.436713 0.00571578 0)
(0.441067 -0.00851312 0)
(0.425264 -0.0049898 0)
(0.454775 0.0116794 0)
(0.427138 -0.00163688 0)
(0.447144 -0.00694316 0)
(0.442955 0.00624089 0)
(0.425799 -0.00261816 0)
(0.447975 -0.00307617 0)
(0.436981 0.00671084 0)
(0.440615 -0.0028245 0)
(0.430946 -0.00632666 0)
(0.442088 0.00530254 0)
(0.427606 -0.0008746 0)
(0.433194 -0.00523487 0)
(0.425837 -0.00104633 0)
(0.419188 -0.000806414 0)
(0.408756 -0.00814765 0)
(0.265309 -0.0023412 0)
(0.282681 0.00283896 0)
(0.283325 0.00399395 0)
(0.280839 -0.00484643 0)
(0.263888 -0.00361438 0)
(0.286618 0.00679965 0)
(0.276149 -0.000188846 0)
(0.281032 -0.00474552 0)
(0.277271 0.00395537 0)
(0.274491 -0.00152283 0)
(0.277844 -0.00231799 0)
(0.278189 0.0042211 0)
(0.280528 -0.00138732 0)
(0.268287 -0.00397992 0)
(0.276958 0.00295193 0)
(0.269941 0.000145671 0)
(0.270435 -0.00332373 0)
(0.262096 -0.000269668 0)
(0.258679 0.00017854 0)
(0.247727 -0.00426086 0)
(0.0887949 -0.000690752 0)
(0.0963491 0.000888376 0)
(0.10706 0.00132108 0)
(0.103365 -0.0014957 0)
(0.0865848 -0.00131503 0)
(0.099173 0.00205805 0)
(0.104574 0.000114758 0)
(0.0976663 -0.00160922 0)
(0.0971306 0.00127645 0)
(0.0999188 -0.00049785 0)
(0.0938525 -0.000858743 0)
(0.0989253 0.00136801 0)
(0.102352 -0.000388042 0)
(0.0917269 -0.00134062 0)
(0.0938036 0.000933046 0)
(0.0960964 0.000262767 0)
(0.0926446 -0.00104111 0)
(0.086552 0.000118852 0)
(0.0878421 0.000354502 0)
(0.0815136 -0.00103746 0)
(0.0654397 0.0215539 0)
(0.33519 0.019466 0)
(0.23096 0.00428699 0)
(0.365482 -0.0417533 0)
(0.432688 -0.0212593 0)
(0.430138 -0.0505011 0)
(0.515252 -0.145178 0)
(0.625275 -0.154913 0)
(0.405808 0.0588682 0)
(0.598408 -0.00184232 0)
(0.775625 -0.15339 0)
(0.487047 -0.032926 0)
(0.604621 -0.12565 0)
(0.842811 -0.392688 0)
(0.715107 -0.434766 0)
(0.503636 -0.343235 0)
(0.380747 -0.371188 0)
(0.401127 -0.346417 0)
(0.511832 -0.147881 0)
(0.50575 0.00164024 0)
(0.522682 0.141541 0)
(0.604877 0.333409 0)
(0.594964 0.417774 0)
(0.531036 0.35688 0)
(0.476565 0.243726 0)
(0.445297 0.129791 0)
(0.440536 0.029474 0)
(0.442837 -0.0391842 0)
(0.440219 -0.0682638 0)
(0.432203 -0.0681128 0)
(0.420786 -0.0549491 0)
(0.40861 -0.0397424 0)
(0.398102 -0.0269674 0)
(0.390363 -0.0175112 0)
(0.385279 -0.0109752 0)
(0.382209 -0.00666969 0)
(0.380468 -0.00394241 0)
(0.379526 -0.00227174 0)
(0.379035 -0.00127768 0)
(0.378787 -0.000701443 0)
(0.378664 -0.000375496 0)
(0.378605 -0.000195566 0)
(0.378577 -9.87703e-05 0)
(0.378565 -4.81185e-05 0)
(0.378559 -2.24317e-05 0)
(0.378556 -9.87214e-06 0)
(0.378555 -3.98352e-06 0)
(0.378555 -1.37796e-06 0)
(0.378555 -3.18488e-07 0)
(0.378554 5.83852e-08 0)
(0.378554 1.46009e-07 0)
(0.378554 1.45684e-07 0)
(0.378554 1.03854e-07 0)
(0.378554 7.35456e-08 0)
(0.378554 3.87888e-08 0)
(0.378554 2.23127e-08 0)
(0.378554 8.81323e-09 0)
(0.378554 8.77425e-09 0)
(0.378554 2.45129e-09 0)
(0.378554 3.98118e-09 0)
(0.378554 1.93461e-09 0)
(0.378554 7.40918e-10 0)
(0.378554 5.02675e-09 0)
(0.378554 3.66327e-09 0)
(0.378554 2.13139e-09 0)
(0.378554 -1.5221e-09 0)
(0.378554 3.51692e-09 0)
(0.378555 -2.94121e-09 0)
(0.378554 -1.01695e-09 0)
(0.378555 4.49091e-09 0)
(0.378554 -4.11646e-09 0)
(0.378555 3.96334e-09 0)
(0.378553 -8.8374e-10 0)
(0.378556 4.26756e-10 0)
(0.378552 -2.03483e-09 0)
(0.378558 4.68861e-09 0)
(0.37855 -4.83654e-09 0)
(0.37856 7.18982e-09 0)
(0.378547 -9.64035e-09 0)
(0.378563 8.16808e-09 0)
(0.378545 -5.13506e-09 0)
(0.378565 1.47833e-09 0)
(0.378544 -1.41448e-09 0)
(0.378563 -1.41752e-09 0)
(0.378548 8.62292e-09 0)
(0.378559 -1.98051e-08 0)
(0.378553 2.01287e-08 0)
(0.378553 -1.84323e-08 0)
(0.378557 1.2011e-08 0)
(0.378552 -3.16692e-09 0)
(0.378556 -8.57236e-09 0)
(0.378554 1.40422e-08 0)
(0.378554 -1.25007e-08 0)
(0.378556 9.28042e-09 0)
(0.378554 -2.01687e-09 0)
(0.378555 -1.01863e-08 0)
(0.378555 1.00836e-08 0)
(0.378554 -1.37065e-09 0)
(0.378554 -3.78568e-09 0)
(0.378555 -4.34912e-11 0)
(0.197147 0.00308317 0)
(0.458275 0.00268922 0)
(0.448425 -0.000342429 0)
(0.446947 -0.0513031 0)
(0.511751 -0.0346721 0)
(0.55795 -0.0546166 0)
(0.606061 -0.15089 0)
(0.73531 -0.159356 0)
(0.487781 0.0490029 0)
(0.659527 -0.0110922 0)
(0.813785 -0.144125 0)
(0.531747 -0.0338157 0)
(0.675054 -0.147243 0)
(0.867761 -0.390283 0)
(0.702705 -0.406325 0)
(0.471298 -0.31624 0)
(0.336801 -0.365274 0)
(0.357721 -0.351497 0)
(0.45943 -0.156617 0)
(0.459069 -0.00101677 0)
(0.476716 0.139056 0)
(0.559539 0.327471 0)
(0.561974 0.417076 0)
(0.514589 0.363502 0)
(0.474794 0.251766 0)
(0.454873 0.134032 0)
(0.456681 0.0301008 0)
(0.459924 -0.0393009 0)
(0.454904 -0.0674632 0)
(0.443598 -0.0663075 0)
(0.429153 -0.0527014 0)
(0.414511 -0.0376171 0)
(0.402099 -0.025284 0)
(0.392954 -0.0163385 0)
(0.386889 -0.010233 0)
(0.383172 -0.0062325 0)
(0.381026 -0.00369836 0)
(0.379842 -0.00214096 0)
(0.37921 -0.00120979 0)
(0.378881 -0.000667101 0)
(0.378715 -0.000358505 0)
(0.378632 -0.000187325 0)
(0.378591 -9.48444e-05 0)
(0.378571 -4.6278e-05 0)
(0.378562 -2.15838e-05 0)
(0.378558 -9.48883e-06 0)
(0.378556 -3.81206e-06 0)
(0.378555 -1.30157e-06 0)
(0.378555 -2.84024e-07 0)
(0.378554 6.96331e-08 0)
(0.378554 1.51367e-07 0)
(0.378554 1.4679e-07 0)
(0.378554 1.06531e-07 0)
(0.378554 7.29186e-08 0)
(0.378554 4.0781e-08 0)
(0.378554 2.16863e-08 0)
(0.378554 1.13942e-08 0)
(0.378554 8.21227e-09 0)
(0.378554 2.79041e-09 0)
(0.378554 4.68239e-09 0)
(0.378554 2.03539e-09 0)
(0.378554 -1.76453e-09 0)
(0.378554 3.24693e-09 0)
(0.378554 3.95397e-09 0)
(0.378554 1.89045e-09 0)
(0.378554 1.84862e-10 0)
(0.378554 9.30272e-10 0)
(0.378555 -1.56446e-09 0)
(0.378554 -1.28272e-09 0)
(0.378555 5.48302e-09 0)
(0.378554 -5.43737e-09 0)
(0.378555 5.81359e-09 0)
(0.378553 -5.73372e-09 0)
(0.378556 1.00159e-08 0)
(0.378552 -1.12558e-08 0)
(0.378558 1.77551e-08 0)
(0.37855 -2.06689e-08 0)
(0.37856 2.12359e-08 0)
(0.378547 -2.38133e-08 0)
(0.378563 2.42779e-08 0)
(0.378545 -1.48862e-08 0)
(0.378565 2.70564e-09 0)
(0.378544 3.12373e-09 0)
(0.378563 -2.08145e-08 0)
(0.378548 3.86175e-08 0)
(0.378559 -5.44144e-08 0)
(0.378553 5.77562e-08 0)
(0.378553 -5.43792e-08 0)
(0.378557 3.17928e-08 0)
(0.378552 -7.87191e-09 0)
(0.378556 -2.80412e-08 0)
(0.378554 5.09247e-08 0)
(0.378554 -4.18639e-08 0)
(0.378556 2.00706e-08 0)
(0.378554 1.09536e-08 0)
(0.378554 -3.27685e-08 0)
(0.378555 2.0198e-08 0)
(0.378554 3.71711e-09 0)
(0.378554 -1.30129e-08 0)
(0.378554 -1.28852e-09 0)
(0.397578 0.00579325 0)
(0.547295 -0.0186378 0)
(0.621288 -0.0119921 0)
(0.577766 -0.0473752 0)
(0.619026 -0.0504535 0)
(0.682645 -0.0616229 0)
(0.704028 -0.151424 0)
(0.817272 -0.164409 0)
(0.58697 0.0428698 0)
(0.731953 -0.0137357 0)
(0.850892 -0.132817 0)
(0.600212 -0.0386862 0)
(0.746443 -0.164794 0)
(0.882383 -0.380119 0)
(0.682336 -0.372184 0)
(0.434792 -0.286666 0)
(0.291501 -0.358619 0)
(0.311205 -0.356216 0)
(0.403353 -0.164801 0)
(0.408039 -0.00443749 0)
(0.427934 0.136252 0)
(0.511153 0.320492 0)
(0.525336 0.413929 0)
(0.494669 0.367212 0)
(0.470031 0.257348 0)
(0.462045 0.136719 0)
(0.470636 0.0301356 0)
(0.474774 -0.0392797 0)
(0.467377 -0.0661818 0)
(0.452996 -0.0639889 0)
(0.435894 -0.0500318 0)
(0.419224 -0.0351704 0)
(0.405313 -0.023361 0)
(0.395073 -0.0149929 0)
(0.388233 -0.00937198 0)
(0.383993 -0.00571795 0)
(0.381512 -0.00340637 0)
(0.380121 -0.00198164 0)
(0.379366 -0.00112544 0)
(0.378968 -0.000623495 0)
(0.378761 -0.000336405 0)
(0.378656 -0.000176318 0)
(0.378604 -8.94498e-05 0)
(0.378578 -4.36737e-05 0)
(0.378565 -2.0348e-05 0)
(0.378559 -8.91252e-06 0)
(0.378557 -3.5474e-06 0)
(0.378555 -1.18237e-06 0)
(0.378555 -2.31067e-07 0)
(0.378554 8.92577e-08 0)
(0.378554 1.60469e-07 0)
(0.378554 1.48724e-07 0)
(0.378554 1.09616e-07 0)
(0.378554 7.24203e-08 0)
(0.378554 4.29001e-08 0)
(0.378554 2.16495e-08 0)
(0.378554 1.44989e-08 0)
(0.378554 7.91561e-09 0)
(0.378554 3.0642e-09 0)
(0.378554 5.13655e-09 0)
(0.378554 1.92117e-09 0)
(0.378554 -3.79344e-09 0)
(0.378554 1.4965e-09 0)
(0.378554 4.04746e-09 0)
(0.378554 1.42859e-09 0)
(0.378554 1.8656e-09 0)
(0.378554 -1.65763e-09 0)
(0.378555 -2.90796e-10 0)
(0.378554 -1.29254e-09 0)
(0.378555 5.91081e-09 0)
(0.378554 -7.29466e-09 0)
(0.378555 7.5379e-09 0)
(0.378553 -1.1731e-08 0)
(0.378556 1.97414e-08 0)
(0.378552 -2.0644e-08 0)
(0.378558 3.08815e-08 0)
(0.37855 -3.60356e-08 0)
(0.37856 3.65839e-08 0)
(0.378547 -3.8064e-08 0)
(0.378563 4.06554e-08 0)
(0.378545 -2.5137e-08 0)
(0.378565 5.44355e-09 0)
(0.378544 9.16554e-09 0)
(0.378563 -4.11739e-08 0)
(0.378547 6.90193e-08 0)
(0.378559 -8.85039e-08 0)
(0.378553 9.62311e-08 0)
(0.378553 -9.11519e-08 0)
(0.378557 5.20777e-08 0)
(0.378552 -1.15688e-08 0)
(0.378556 -4.67722e-08 0)
(0.378554 8.82569e-08 0)
(0.378554 -7.13794e-08 0)
(0.378556 3.09737e-08 0)
(0.378554 2.50824e-08 0)
(0.378554 -5.48928e-08 0)
(0.378555 3.01016e-08 0)
(0.378554 9.12353e-09 0)
(0.378554 -2.29961e-08 0)
(0.378554 -2.5288e-09 0)
(0.586382 0.0119641 0)
(0.650663 -0.0279844 0)
(0.73893 -0.0293942 0)
(0.699354 -0.0417715 0)
(0.72791 -0.0622156 0)
(0.787931 -0.0675195 0)
(0.798251 -0.146652 0)
(0.873114 -0.168638 0)
(0.684121 0.0368899 0)
(0.804166 -0.0104063 0)
(0.884363 -0.119918 0)
(0.685409 -0.0467131 0)
(0.80789 -0.176333 0)
(0.884031 -0.362225 0)
(0.653701 -0.33296 0)
(0.393855 -0.254971 0)
(0.245669 -0.351034 0)
(0.26069 -0.360069 0)
(0.343893 -0.172111 0)
(0.353214 -0.00873075 0)
(0.376397 0.133027 0)
(0.459952 0.312568 0)
(0.485421 0.408435 0)
(0.471556 0.368033 0)
(0.462411 0.260387 0)
(0.466797 0.137759 0)
(0.482233 0.0295495 0)
(0.487157 -0.0391249 0)
(0.477433 -0.064445 0)
(0.460237 -0.0612117 0)
(0.440886 -0.0470124 0)
(0.422653 -0.0324753 0)
(0.407668 -0.02126 0)
(0.396665 -0.0135187 0)
(0.389276 -0.00842056 0)
(0.384652 -0.00514271 0)
(0.381913 -0.00307556 0)
(0.380357 -0.00179852 0)
(0.379502 -0.001027 0)
(0.379044 -0.000571783 0)
(0.378803 -0.000309752 0)
(0.378678 -0.000162811 0)
(0.378615 -8.2712e-05 0)
(0.378583 -4.03685e-05 0)
(0.378568 -1.87537e-05 0)
(0.37856 -8.15934e-06 0)
(0.378557 -3.20092e-06 0)
(0.378555 -1.02514e-06 0)
(0.378555 -1.63374e-07 0)
(0.378554 1.15835e-07 0)
(0.378554 1.70495e-07 0)
(0.378554 1.51905e-07 0)
(0.378554 1.10204e-07 0)
(0.378554 7.12746e-08 0)
(0.378554 4.16101e-08 0)
(0.378554 2.15192e-08 0)
(0.378554 1.45325e-08 0)
(0.378554 7.99337e-09 0)
(0.378554 4.26557e-09 0)
(0.378554 6.39607e-09 0)
(0.378554 1.48997e-09 0)
(0.378554 -4.76478e-09 0)
(0.378554 4.0878e-10 0)
(0.378554 4.94265e-09 0)
(0.378554 2.38158e-09 0)
(0.378554 2.33234e-09 0)
(0.378554 -2.84774e-09 0)
(0.378554 3.05421e-10 0)
(0.378554 -1.85887e-09 0)
(0.378555 7.30882e-09 0)
(0.378554 -9.46486e-09 0)
(0.378555 1.08887e-08 0)
(0.378553 -1.74773e-08 0)
(0.378556 2.76831e-08 0)
(0.378552 -2.82099e-08 0)
(0.378558 4.28054e-08 0)
(0.37855 -5.0941e-08 0)
(0.37856 5.21888e-08 0)
(0.378547 -5.27702e-08 0)
(0.378563 5.65599e-08 0)
(0.378544 -3.54252e-08 0)
(0.378565 8.28642e-09 0)
(0.378544 1.30537e-08 0)
(0.378563 -5.80702e-08 0)
(0.378547 9.66187e-08 0)
(0.378558 -1.23126e-07 0)
(0.378553 1.35808e-07 0)
(0.378553 -1.28756e-07 0)
(0.378557 7.35709e-08 0)
(0.378551 -1.51137e-08 0)
(0.378556 -6.46309e-08 0)
(0.378554 1.21989e-07 0)
(0.378554 -1.01506e-07 0)
(0.378555 4.45003e-08 0)
(0.378553 3.52657e-08 0)
(0.378554 -7.54945e-08 0)
(0.378555 4.1669e-08 0)
(0.378554 1.15347e-08 0)
(0.378554 -3.1509e-08 0)
(0.378554 -3.22314e-09 0)
(0.722742 0.0146886 0)
(0.759113 -0.0285511 0)
(0.829833 -0.0466585 0)
(0.795444 -0.0385588 0)
(0.822877 -0.0690311 0)
(0.863962 -0.0736193 0)
(0.876802 -0.139598 0)
(0.910009 -0.170997 0)
(0.763338 0.0282112 0)
(0.864732 -0.00456306 0)
(0.91149 -0.105971 0)
(0.763921 -0.0560199 0)
(0.848915 -0.182164 0)
(0.871176 -0.337645 0)
(0.617755 -0.289631 0)
(0.350837 -0.222117 0)
(0.201132 -0.342324 0)
(0.205411 -0.363227 0)
(0.281259 -0.178804 0)
(0.295148 -0.0136525 0)
(0.322127 0.129116 0)
(0.406014 0.303683 0)
(0.442468 0.400661 0)
(0.445495 0.365934 0)
(0.452096 0.260824 0)
(0.469155 0.137088 0)
(0.491347 0.0283625 0)
(0.496881 -0.0388049 0)
(0.48491 -0.0622703 0)
(0.465214 -0.0580335 0)
(0.444058 -0.0437186 0)
(0.42474 -0.0296075 0)
(0.409118 -0.0190448 0)
(0.397693 -0.0119629 0)
(0.389991 -0.00740943 0)
(0.38513 -0.00452505 0)
(0.382219 -0.00271608 0)
(0.380546 -0.00159696 0)
(0.379614 -0.000917196 0)
(0.379108 -0.000513305 0)
(0.378838 -0.000279193 0)
(0.378697 -0.00014711 0)
(0.378625 -7.47759e-05 0)
(0.378588 -3.64256e-05 0)
(0.37857 -1.683e-05 0)
(0.378561 -7.24092e-06 0)
(0.378557 -2.77345e-06 0)
(0.378555 -8.30995e-07 0)
(0.378554 -7.98664e-08 0)
(0.378554 1.4967e-07 0)
(0.378554 1.83771e-07 0)
(0.378553 1.55509e-07 0)
(0.378553 1.1046e-07 0)
(0.378553 7.02762e-08 0)
(0.378553 4.05101e-08 0)
(0.378553 2.16769e-08 0)
(0.378553 1.47951e-08 0)
(0.378553 7.91222e-09 0)
(0.378553 4.60462e-09 0)
(0.378553 5.98527e-09 0)
(0.378553 8.35802e-10 0)
(0.378553 -5.00989e-09 0)
(0.378553 -9.09748e-10 0)
(0.378554 4.61078e-09 0)
(0.378553 2.76833e-09 0)
(0.378554 2.34053e-09 0)
(0.378553 -3.51491e-09 0)
(0.378554 1.19239e-09 0)
(0.378553 -3.19215e-09 0)
(0.378554 8.65906e-09 0)
(0.378553 -1.19749e-08 0)
(0.378554 1.42633e-08 0)
(0.378552 -2.30336e-08 0)
(0.378555 3.55085e-08 0)
(0.378551 -3.64215e-08 0)
(0.378557 5.46178e-08 0)
(0.378549 -6.56694e-08 0)
(0.378559 6.82696e-08 0)
(0.378546 -6.81533e-08 0)
(0.378562 7.18224e-08 0)
(0.378544 -4.63543e-08 0)
(0.378564 1.21362e-08 0)
(0.378543 1.74663e-08 0)
(0.378562 -7.44926e-08 0)
(0.378547 1.2368e-07 0)
(0.378558 -1.58315e-07 0)
(0.378552 1.75916e-07 0)
(0.378552 -1.65958e-07 0)
(0.378556 9.63398e-08 0)
(0.378551 -1.91874e-08 0)
(0.378556 -8.19649e-08 0)
(0.378553 1.54909e-07 0)
(0.378553 -1.31688e-07 0)
(0.378555 5.81768e-08 0)
(0.378553 4.49047e-08 0)
(0.378554 -9.55952e-08 0)
(0.378554 5.31583e-08 0)
(0.378553 1.40127e-08 0)
(0.378554 -3.92217e-08 0)
(0.378554 -3.70199e-09 0)
(0.818977 0.0136454 0)
(0.848897 -0.0247824 0)
(0.900738 -0.0616086 0)
(0.868198 -0.0378131 0)
(0.896538 -0.0721379 0)
(0.916091 -0.0792592 0)
(0.93514 -0.130578 0)
(0.935648 -0.170664 0)
(0.821035 0.0172288 0)
(0.90819 0.00210017 0)
(0.929302 -0.0917712 0)
(0.817847 -0.0654242 0)
(0.866553 -0.18296 0)
(0.844944 -0.307491 0)
(0.575004 -0.243291 0)
(0.305989 -0.188627 0)
(0.157919 -0.331643 0)
(0.144517 -0.365409 0)
(0.21552 -0.18485 0)
(0.234221 -0.01943 0)
(0.265369 0.124618 0)
(0.349468 0.293861 0)
(0.396825 0.390625 0)
(0.416812 0.360935 0)
(0.439302 0.258605 0)
(0.469211 0.134729 0)
(0.497891 0.0265596 0)
(0.503802 -0.0383322 0)
(0.489706 -0.0597027 0)
(0.467881 -0.0545256 0)
(0.445391 -0.0402309 0)
(0.42547 -0.0266438 0)
(0.409639 -0.0167796 0)
(0.398131 -0.0103732 0)
(0.390356 -0.00637046 0)
(0.385412 -0.00388439 0)
(0.382421 -0.00233892 0)
(0.38068 -0.00138283 0)
(0.379698 -0.000799032 0)
(0.379157 -0.000449559 0)
(0.378866 -0.000245458 0)
(0.378711 -0.000129567 0)
(0.378631 -6.58076e-05 0)
(0.37859 -3.19242e-05 0)
(0.37857 -1.46143e-05 0)
(0.37856 -6.17419e-06 0)
(0.378555 -2.27381e-06 0)
(0.378553 -6.04257e-07 0)
(0.378552 1.81756e-08 0)
(0.378551 1.8979e-07 0)
(0.378551 1.99171e-07 0)
(0.378551 1.59547e-07 0)
(0.378551 1.1065e-07 0)
(0.378551 6.94582e-08 0)
(0.378551 3.9612e-08 0)
(0.378551 2.18204e-08 0)
(0.378551 1.49182e-08 0)
(0.378551 7.84385e-09 0)
(0.378551 4.64941e-09 0)
(0.378551 5.44451e-09 0)
(0.378551 3.57191e-10 0)
(0.378551 -4.98774e-09 0)
(0.378551 -1.56731e-09 0)
(0.378551 4.33477e-09 0)
(0.378551 2.88124e-09 0)
(0.378551 2.47366e-09 0)
(0.378551 -4.03394e-09 0)
(0.378551 2.07308e-09 0)
(0.378551 -4.36802e-09 0)
(0.378551 1.00429e-08 0)
(0.378551 -1.45105e-08 0)
(0.378552 1.79954e-08 0)
(0.37855 -2.85618e-08 0)
(0.378553 4.29284e-08 0)
(0.378549 -4.54302e-08 0)
(0.378554 6.65228e-08 0)
(0.378546 -8.03134e-08 0)
(0.378557 8.46532e-08 0)
(0.378544 -8.42301e-08 0)
(0.37856 8.70968e-08 0)
(0.378541 -5.78257e-08 0)
(0.378561 1.68069e-08 0)
(0.378541 2.21233e-08 0)
(0.37856 -9.06561e-08 0)
(0.378544 1.50648e-07 0)
(0.378555 -1.94113e-07 0)
(0.37855 2.16401e-07 0)
(0.37855 -2.03258e-07 0)
(0.378554 1.20322e-07 0)
(0.378548 -2.3572e-08 0)
(0.378553 -9.86276e-08 0)
(0.37855 1.86919e-07 0)
(0.37855 -1.62434e-07 0)
(0.378552 7.19142e-08 0)
(0.37855 5.38696e-08 0)
(0.378551 -1.15051e-07 0)
(0.378551 6.47196e-08 0)
(0.378551 1.64706e-08 0)
(0.378551 -4.64992e-08 0)
(0.378551 -4.04913e-09 0)
(0.88927 0.0100278 0)
(0.918661 -0.019062 0)
(0.951659 -0.0723751 0)
(0.922529 -0.038797 0)
(0.947833 -0.0718069 0)
(0.949061 -0.082751 0)
(0.975364 -0.121085 0)
(0.949869 -0.167673 0)
(0.856778 0.00526772 0)
(0.932813 0.00910417 0)
(0.934647 -0.0779352 0)
(0.846091 -0.0733058 0)
(0.863916 -0.179092 0)
(0.806265 -0.273039 0)
(0.526861 -0.195175 0)
(0.26182 -0.155304 0)
(0.117055 -0.318845 0)
(0.0789436 -0.366904 0)
(0.147469 -0.190682 0)
(0.17089 -0.0259358 0)
(0.206117 0.119143 0)
(0.290601 0.283147 0)
(0.348753 0.378403 0)
(0.385798 0.353048 0)
(0.424279 0.253694 0)
(0.467074 0.130654 0)
(0.501801 0.0242993 0)
(0.507823 -0.0376633 0)
(0.491782 -0.0567795 0)
(0.468254 -0.0507605 0)
(0.444919 -0.0366297 0)
(0.424864 -0.0236589 0)
(0.409234 -0.0145269 0)
(0.397971 -0.00879662 0)
(0.390358 -0.00533567 0)
(0.385485 -0.00324069 0)
(0.382505 -0.00195564 0)
(0.38075 -0.00116245 0)
(0.379746 -0.0006758 0)
(0.379186 -0.000382206 0)
(0.37888 -0.000209366 0)
(0.378716 -0.000110578 0)
(0.37863 -5.59995e-05 0)
(0.378585 -2.69566e-05 0)
(0.378563 -1.21506e-05 0)
(0.378552 -4.98068e-06 0)
(0.378547 -1.71241e-06 0)
(0.378544 -3.49489e-07 0)
(0.378543 1.28198e-07 0)
(0.378543 2.34832e-07 0)
(0.378543 2.16115e-07 0)
(0.378543 1.63886e-07 0)
(0.378543 1.10635e-07 0)
(0.378543 6.85598e-08 0)
(0.378543 3.88784e-08 0)
(0.378543 2.19075e-08 0)
(0.378543 1.49593e-08 0)
(0.378543 7.8392e-09 0)
(0.378543 4.54449e-09 0)
(0.378543 4.69204e-09 0)
(0.378543 -1.55958e-10 0)
(0.378543 -4.75658e-09 0)
(0.378543 -1.89944e-09 0)
(0.378543 4.05358e-09 0)
(0.378543 2.70864e-09 0)
(0.378543 2.59589e-09 0)
(0.378543 -4.39858e-09 0)
(0.378543 3.03974e-09 0)
(0.378542 -5.63078e-09 0)
(0.378543 1.14719e-08 0)
(0.378542 -1.69986e-08 0)
(0.378543 2.19548e-08 0)
(0.378541 -3.40436e-08 0)
(0.378544 5.01575e-08 0)
(0.37854 -5.50205e-08 0)
(0.378546 7.85764e-08 0)
(0.378538 -9.49893e-08 0)
(0.378549 1.01416e-07 0)
(0.378535 -1.00972e-07 0)
(0.378551 1.02505e-07 0)
(0.378533 -6.99861e-08 0)
(0.378553 2.20829e-08 0)
(0.378533 2.68419e-08 0)
(0.378552 -1.06383e-07 0)
(0.378536 1.77599e-07 0)
(0.378547 -2.30693e-07 0)
(0.378541 2.57315e-07 0)
(0.378542 -2.40845e-07 0)
(0.378545 1.45596e-07 0)
(0.37854 -2.83499e-08 0)
(0.378545 -1.14661e-07 0)
(0.378542 2.1792e-07 0)
(0.378542 -1.93564e-07 0)
(0.378544 8.59285e-08 0)
(0.378542 6.20082e-08 0)
(0.378543 -1.33866e-07 0)
(0.378543 7.62634e-08 0)
(0.378542 1.89649e-08 0)
(0.378543 -5.33256e-08 0)
(0.378543 -4.30972e-09 0)
(0.937639 0.00468456 0)
(0.970862 -0.0131802 0)
(0.983867 -0.0788547 0)
(0.959918 -0.0414511 0)
(0.980145 -0.0689302 0)
(0.965099 -0.084386 0)
(0.997716 -0.112742 0)
(0.950556 -0.161808 0)
(0.871775 -0.00541043 0)
(0.93796 0.016302 0)
(0.924813 -0.0639238 0)
(0.852002 -0.0785744 0)
(0.842612 -0.171002 0)
(0.756218 -0.235546 0)
(0.474183 -0.146843 0)
(0.219672 -0.122682 0)
(0.0787948 -0.30353 0)
(0.0109972 -0.366514 0)
(0.0791606 -0.196467 0)
(0.105316 -0.0331992 0)
(0.144577 0.112919 0)
(0.229448 0.271523 0)
(0.298737 0.363974 0)
(0.352875 0.342301 0)
(0.407346 0.246111 0)
(0.462923 0.124927 0)
(0.503047 0.0215879 0)
(0.508875 -0.0368041 0)
(0.491155 -0.0535567 0)
(0.466408 -0.0468187 0)
(0.442722 -0.0329951 0)
(0.422976 -0.0207239 0)
(0.407925 -0.0123455 0)
(0.397207 -0.00727801 0)
(0.389978 -0.00433627 0)
(0.385326 -0.00261393 0)
(0.382453 -0.00157811 0)
(0.380738 -0.000942464 0)
(0.379743 -0.000551058 0)
(0.379179 -0.000313082 0)
(0.378867 -0.000171842 0)
(0.378698 -9.06052e-05 0)
(0.378608 -4.55782e-05 0)
(0.378561 -2.16336e-05 0)
(0.378538 -9.49335e-06 0)
(0.378526 -3.6872e-06 0)
(0.37852 -1.10222e-06 0)
(0.378518 -7.23009e-08 0)
(0.378517 2.47281e-07 0)
(0.378516 2.83415e-07 0)
(0.378516 2.33941e-07 0)
(0.378516 1.68221e-07 0)
(0.378516 1.10338e-07 0)
(0.378516 6.75328e-08 0)
(0.378516 3.82941e-08 0)
(0.378516 2.19461e-08 0)
(0.378516 1.49382e-08 0)
(0.378516 7.85629e-09 0)
(0.378516 4.26067e-09 0)
(0.378516 3.77083e-09 0)
(0.378516 -6.50045e-10 0)
(0.378516 -4.35877e-09 0)
(0.378516 -1.97189e-09 0)
(0.378516 3.7735e-09 0)
(0.378516 2.32837e-09 0)
(0.378516 2.72395e-09 0)
(0.378516 -4.61456e-09 0)
(0.378516 4.01172e-09 0)
(0.378516 -6.93071e-09 0)
(0.378516 1.3009e-08 0)
(0.378515 -1.94694e-08 0)
(0.378517 2.60436e-08 0)
(0.378515 -3.94634e-08 0)
(0.378518 5.73802e-08 0)
(0.378514 -6.51066e-08 0)
(0.378519 9.07835e-08 0)
(0.378511 -1.09775e-07 0)
(0.378522 1.18609e-07 0)
(0.378509 -1.18451e-07 0)
(0.378525 1.18186e-07 0)
(0.378506 -8.28758e-08 0)
(0.378526 2.79821e-08 0)
(0.378506 3.15008e-08 0)
(0.378525 -1.21755e-07 0)
(0.378509 2.04622e-07 0)
(0.37852 -2.68011e-07 0)
(0.378515 2.98793e-07 0)
(0.378515 -2.78856e-07 0)
(0.378519 1.72079e-07 0)
(0.378513 -3.3737e-08 0)
(0.378518 -1.29971e-07 0)
(0.378515 2.47939e-07 0)