/*--------------------------------*- C++ -*----------------------------------*\
| =========                 |                                                 |
| \\      /  F ield         | OpenFOAM: The Open Source CFD Toolbox           |
|  \\    /   O peration     | Version:  2.4.0                                 |
|   \\  /    A nd           | Web:      www.OpenFOAM.org                      |
|    \\/     M anipulation  |                                                 |
\*---------------------------------------------------------------------------*/
FoamFile
{
    version     2.0;
    format      ascii;
    class       volVectorField;
    location    "0.42";
    object      U_0;
}
// * * * * * * * * * * * * * * * * * * * * * * * * * * * * * * * * * * * * * //

dimensions      [0 1 -1 0 0 0 0];

internalField   nonuniform List<vector> 
8800
(
(8.09107 0.388016 0)
(5.45238 0.242265 0)
(3.90864 0.0434025 0)
(3.15598 -0.015632 0)
(2.80376 -0.0189597 0)
(2.59594 -0.00967529 0)
(2.48372 -0.00631793 0)
(2.38183 -0.0032045 0)
(2.31982 1.35431e-06 0)
(2.24867 -0.00110073 0)
(2.21781 -0.00156192 0)
(2.16705 0.00123005 0)
(2.14341 -0.000726819 0)
(2.10084 0.000199314 0)
(2.07752 0.00116522 0)
(2.03375 0.000886184 0)
(2.00217 0.000369402 0)
(1.96022 0.000773557 0)
(1.93046 0.00909141 0)
(1.72159 -0.0627057 0)
(10.083 0.838276 0)
(9.66569 0.867258 0)
(8.86343 0.509157 0)
(8.08472 0.260139 0)
(7.49647 0.136367 0)
(6.99799 0.0862813 0)
(6.7037 0.0515981 0)
(6.39962 0.0384586 0)
(6.22269 0.0340954 0)
(6.02955 0.0230539 0)
(5.92518 0.0159591 0)
(5.77792 0.0216855 0)
(5.72365 0.0128516 0)
(5.59683 0.0158068 0)
(5.54686 0.0170362 0)
(5.44328 0.0177357 0)
(5.37808 0.0178071 0)
(5.27341 0.0168749 0)
(5.21368 0.0336817 0)
(5.03936 -0.045477 0)
(10.0596 0.630679 0)
(10.6748 0.862445 0)
(10.8562 0.606607 0)
(10.6939 0.369269 0)
(10.4627 0.254088 0)
(10.0711 0.203068 0)
(9.84685 0.147239 0)
(9.49847 0.122034 0)
(9.304 0.100198 0)
(9.05106 0.0740028 0)
(8.91919 0.0558691 0)
(8.69926 0.0580609 0)
(8.6463 0.0395239 0)
(8.446 0.042792 0)
(8.40042 0.0409386 0)
(8.24082 0.0408479 0)
(8.18741 0.0431129 0)
(8.01298 0.0428136 0)
(7.96387 0.0594566 0)
(7.78245 -0.0425521 0)
(9.99582 0.454469 0)
(10.5929 0.705561 0)
(11.1565 0.555526 0)
(11.3713 0.344694 0)
(11.5668 0.260466 0)
(11.4459 0.238205 0)
(11.4929 0.189011 0)
(11.3098 0.175475 0)
(11.2788 0.156212 0)
(11.1011 0.121774 0)
(11.0717 0.103232 0)
(10.861 0.101197 0)
(10.8818 0.0740828 0)
(10.6596 0.0793831 0)
(10.6687 0.0722243 0)
(10.4737 0.0717002 0)
(10.4847 0.066439 0)
(10.2517 0.0925309 0)
(10.2563 0.0659803 0)
(10.0072 0.085796 0)
(10.0359 0.341089 0)
(10.4379 0.565139 0)
(11.0485 0.478299 0)
(11.2727 0.281368 0)
(11.6548 0.208894 0)
(11.6789 0.206788 0)
(11.8633 0.161735 0)
(11.8309 0.175062 0)
(11.9872 0.151398 0)
(11.9087 0.127823 0)
(12.0219 0.107281 0)
(11.9378 0.118245 0)
(12.0493 0.0814433 0)
(11.9218 0.102836 0)
(12.0072 0.0796019 0)
(11.89 0.101743 0)
(11.9573 0.0725124 0)
(11.7974 0.123988 0)
(11.8444 0.0754912 0)
(11.6213 0.146526 0)
(10.0339 0.24424 0)
(10.3253 0.451957 0)
(10.9489 0.404593 0)
(11.1697 0.239331 0)
(11.4707 0.149055 0)
(11.661 0.174301 0)
(11.7679 0.121833 0)
(11.801 0.133383 0)
(12.0074 0.140512 0)
(12.0393 0.102501 0)
(12.0889 0.0946508 0)
(12.1905 0.0989845 0)
(12.2966 0.0703771 0)
(12.2895 0.0907874 0)
(12.3685 0.0840022 0)
(12.3985 0.0719733 0)
(12.4776 0.089628 0)
(12.4387 0.106535 0)
(12.5071 0.0835388 0)
(12.3849 0.0590637 0)
(9.98184 0.173225 0)
(10.3014 0.329068 0)
(10.8568 0.314591 0)
(11.0755 0.217984 0)
(11.3873 0.105519 0)
(11.5491 0.121104 0)
(11.7014 0.115849 0)
(11.5875 0.102525 0)
(12.021 0.0768429 0)
(11.9408 0.109223 0)
(12.0455 0.0566061 0)
(12.0796 0.0726515 0)
(12.3444 0.0568139 0)
(12.216 0.0761547 0)
(12.3382 0.0592836 0)
(12.399 0.0737839 0)
(12.4931 0.0502143 0)
(12.523 0.085461 0)
(12.5454 0.0549249 0)
(12.5043 0.0443201 0)
(10.0124 0.114142 0)
(10.2785 0.213493 0)
(10.6314 0.243157 0)
(11.0567 0.171582 0)
(11.3383 0.0609169 0)
(11.5346 0.106053 0)
(11.4956 0.0894036 0)
(11.7708 0.0379824 0)
(11.7451 0.0536861 0)
(11.9829 0.079001 0)
(11.9106 0.0634973 0)
(12.0803 0.0246084 0)
(12.1664 0.0315945 0)
(12.2226 0.0982162 0)
(12.2167 0.0335764 0)
(12.3575 0.0184346 0)
(12.4114 0.0600583 0)
(12.4515 0.0569902 0)
(12.454 0.0295137 0)
(12.4352 -0.0185256 0)
(10.0237 0.0588897 0)
(10.2316 0.134024 0)
(10.5652 0.150486 0)
(10.9909 0.0877138 0)
(11.3071 0.0346727 0)
(11.4801 0.0849582 0)
(11.6148 0.0557695 0)
(11.6154 0.0140032 0)
(11.7269 0.0184651 0)
(11.8655 0.0607579 0)
(11.87 0.0285221 0)
(12.0954 0.00732218 0)
(12.0586 0.0386673 0)
(12.1986 0.0419324 0)
(12.1927 0.041437 0)
(12.2933 0.00801593 0)
(12.358 0.0101706 0)
(12.4156 0.0354797 0)
(12.4665 0.00896 0)
(12.3479 -0.00922225 0)
(10.012 0.0163961 0)
(10.2748 0.0330776 0)
(10.5181 0.0743025 0)
(10.9163 0.0247787 0)
(11.3061 -0.0141188 0)
(11.4533 0.0491363 0)
(11.599 0.0423205 0)
(11.6393 -0.0150436 0)
(11.7447 -0.0118055 0)
(11.7367 0.0276607 0)
(11.9917 0.00573372 0)
(11.8653 -0.017736 0)
(12.2144 -0.000677992 0)
(12.028 0.072867 0)
(12.2352 0.00221979 0)
(12.3059 -0.0286747 0)
(12.3738 0.00884646 0)
(12.3534 0.00823497 0)
(12.3793 -0.0150473 0)
(12.373 -0.0390393 0)
(10.0369 -0.041027 0)
(10.2085 -0.0409423 0)
(10.5213 0.00772592 0)
(11.0287 -0.0710397 0)
(11.2292 -0.0479736 0)
(11.4041 0.0278752 0)
(11.6351 0.00399027 0)
(11.7308 -0.0481741 0)
(11.5844 -0.0163157 0)
(11.9165 -0.00936655 0)
(11.8115 -0.00681727 0)
(12.0447 -0.0486642 0)
(11.9328 0.013554 0)
(12.2289 0.0162082 0)
(12.2349 -0.0168732 0)
(12.2721 -0.0426566 0)
(12.3283 -0.00903894 0)
(12.3905 -0.00715715 0)
(12.4187 -0.035727 0)
(12.3451 -0.0647679 0)
(10.0034 -0.0739451 0)
(10.2002 -0.137126 0)
(10.6697 -0.111735 0)
(11.0551 -0.112448 0)
(11.197 -0.0569817 0)
(11.3835 -0.032429 0)
(11.6761 -0.0447721 0)
(11.6197 -0.0311445 0)
(11.7542 -0.0629964 0)
(11.84 -0.0411316 0)
(12.0058 -0.0274683 0)
(11.8821 -0.0424984 0)
(12.1378 -0.0476139 0)
(12.1518 0.00249927 0)
(12.2345 -0.0211419 0)
(12.3142 -0.0561787 0)
(12.3468 -0.0425185 0)
(12.4259 -0.0371814 0)
(12.4762 -0.07069 0)
(12.3758 -0.0453602 0)
(10.0079 -0.124654 0)
(10.2682 -0.253681 0)
(10.6541 -0.184457 0)
(11.0639 -0.161256 0)
(11.3017 -0.0816076 0)
(11.4587 -0.0757531 0)
(11.6235 -0.0630147 0)
(11.7536 -0.0901477 0)
(11.7687 -0.0827105 0)
(11.933 -0.0791678 0)
(11.953 -0.024058 0)
(12.0673 -0.0797773 0)
(12.08 -0.0416287 0)
(12.1937 -0.0237453 0)
(12.298 -0.0440554 0)
(12.3353 -0.0850238 0)
(12.4176 -0.052441 0)
(12.4834 -0.0765779 0)
(12.4895 -0.077126 0)
(12.4464 -0.0753283 0)
(10.0448 -0.185774 0)
(10.2691 -0.338108 0)
(10.7215 -0.282678 0)
(11.155 -0.224101 0)
(11.4006 -0.113123 0)
(11.5044 -0.106675 0)
(11.7389 -0.119842 0)
(11.7869 -0.099806 0)
(11.8505 -0.105702 0)
(11.9519 -0.100382 0)
(12.0574 -0.0593597 0)
(12.0759 -0.0782515 0)
(12.1936 -0.0697919 0)
(12.271 -0.0552642 0)
(12.3442 -0.0597846 0)
(12.4256 -0.0952465 0)
(12.4785 -0.0861222 0)
(12.5216 -0.0964106 0)
(12.5651 -0.112746 0)
(12.4835 -0.0973996 0)
(10.0683 -0.260242 0)
(10.2949 -0.444623 0)
(10.9128 -0.375826 0)
(11.2016 -0.264169 0)
(11.5054 -0.139155 0)
(11.5925 -0.156735 0)
(11.8444 -0.147386 0)
(11.8232 -0.132254 0)
(11.9836 -0.13438 0)
(12.0166 -0.132398 0)
(12.133 -0.0668934 0)
(12.1161 -0.109366 0)
(12.2833 -0.0854308 0)
(12.2816 -0.0751555 0)
(12.3848 -0.0757356 0)
(12.392 -0.12485 0)
(12.4775 -0.0902609 0)
(12.4367 -0.129533 0)
(12.4605 -0.122449 0)
(12.3517 -0.129948 0)
(10.0612 -0.353965 0)
(10.3714 -0.555465 0)
(11.0767 -0.464943 0)
(11.2864 -0.300819 0)
(11.6592 -0.193937 0)
(11.6783 -0.200619 0)
(11.9063 -0.188165 0)
(11.8155 -0.155533 0)
(11.9973 -0.160088 0)
(11.879 -0.142293 0)
(12.0348 -0.0909751 0)
(11.8925 -0.11773 0)
(12.0536 -0.103954 0)
(11.91 -0.0892339 0)
(12.021 -0.0837534 0)
(11.8646 -0.126194 0)
(11.9473 -0.0955219 0)
(11.764 -0.129054 0)
(11.7711 -0.124185 0)
(11.5419 -0.160211 0)
(10.0079 -0.460445 0)
(10.5489 -0.699873 0)
(11.1944 -0.547854 0)
(11.3463 -0.357246 0)
(11.5831 -0.252066 0)
(11.4526 -0.234179 0)
(11.5006 -0.204224 0)
(11.2965 -0.166401 0)
(11.308 -0.157248 0)
(11.0431 -0.133681 0)
(11.1103 -0.0887076 0)
(10.8232 -0.103914 0)
(10.8914 -0.0905331 0)
(10.6313 -0.0734529 0)
(10.6961 -0.0682496 0)
(10.4077 -0.102504 0)
(10.4789 -0.0718992 0)
(10.1763 -0.110457 0)
(10.1873 -0.094846 0)
(9.85041 -0.157734 0)
(10.0616 -0.633648 0)
(10.6516 -0.860307 0)
(10.8823 -0.601594 0)
(10.6717 -0.376691 0)
(10.4798 -0.250546 0)
(10.0735 -0.199056 0)
(9.84282 -0.157933 0)
(9.49314 -0.116342 0)
(9.32096 -0.0988291 0)
(9.00304 -0.0818262 0)
(8.9619 -0.0493683 0)
(8.65891 -0.0566239 0)
(8.66337 -0.0521622 0)
(8.4044 -0.0399828 0)
(8.43343 -0.037844 0)
(8.15152 -0.0599879 0)
(8.19912 -0.0475914 0)
(7.89572 -0.0646984 0)
(7.90136 -0.0696744 0)
(7.55836 -0.0885373 0)
(10.0835 -0.838926 0)
(9.65439 -0.866864 0)
(8.87907 -0.506612 0)
(8.07184 -0.263764 0)
(7.5063 -0.135463 0)
(6.99825 -0.082999 0)
(6.69993 -0.0572497 0)
(6.39633 -0.0365508 0)
(6.22987 -0.0313704 0)
(6.00248 -0.0290396 0)
(5.94943 -0.0124358 0)
(5.75101 -0.0195032 0)
(5.73579 -0.0211403 0)
(5.55756 -0.014518 0)
(5.56859 -0.0136687 0)
(5.37026 -0.0287705 0)
(5.38021 -0.0217368 0)
(5.15813 -0.0291227 0)
(5.15003 -0.037333 0)
(4.86326 -0.0177535 0)
(8.09159 -0.388096 0)
(5.44824 -0.242486 0)
(3.91423 -0.0427107 0)
(3.15361 0.0148045 0)
(2.80385 0.018966 0)
(2.59695 0.0110431 0)
(2.4842 0.00450636 0)
(2.37756 0.0037103 0)
(2.32288 0.00121614 0)
(2.24042 -0.00116436 0)
(2.22014 0.00280022 0)
(2.16061 -0.000336142 0)
(2.14557 -0.00162441 0)
(2.07864 0.00017352 0)
(2.08143 0.000550765 0)
(2.00398 -0.00381034 0)
(1.98644 -0.00110048 0)
(1.89843 -0.00260821 0)
(1.86562 -0.0038675 0)
(1.7185 0.0108564 0)
(2.18695 -0.118455 0)
(2.28621 -0.0360309 0)
(2.42024 -0.0172827 0)
(2.5412 -0.0289333 0)
(2.68435 -0.0449746 0)
(2.78987 -0.0510965 0)
(2.88817 -0.0562522 0)
(2.9534 -0.0606941 0)
(3.01005 -0.0649867 0)
(3.03666 -0.0636627 0)
(3.05332 -0.070118 0)
(3.06802 -0.0591504 0)
(3.04545 -0.0587805 0)
(3.08696 -0.0272662 0)
(3.03008 0.0293656 0)
(3.08207 0.0521401 0)
(3.1095 0.115229 0)
(3.149 0.16611 0)
(3.29665 0.183454 0)
(3.45202 0.19255 0)
(3.58217 0.199353 0)
(3.69385 0.189129 0)
(3.79091 0.168601 0)
(3.87719 0.127143 0)
(3.97026 0.0794233 0)
(4.02273 0.0341831 0)
(4.08569 -0.0159425 0)
(4.11215 -0.0697997 0)
(4.13542 -0.121201 0)
(4.11656 -0.157306 0)
(4.12655 -0.191603 0)
(4.10744 -0.21166 0)
(4.10664 -0.222601 0)
(4.10158 -0.224799 0)
(4.09596 -0.22807 0)
(4.11636 -0.223151 0)
(4.1132 -0.219743 0)
(4.13718 -0.217729 0)
(4.12328 -0.209055 0)
(4.17008 -0.204338 0)
(4.14426 -0.178 0)
(4.20426 -0.1557 0)
(4.17468 -0.122165 0)
(4.23876 -0.0943615 0)
(4.20607 -0.0336247 0)
(4.26797 0.00763123 0)
(4.25361 0.0738625 0)
(4.33137 0.130906 0)
(4.31294 0.216209 0)
(4.41299 0.282984 0)
(4.43902 0.372892 0)
(4.58911 0.441252 0)
(4.68478 0.465253 0)
(4.87819 0.470706 0)
(5.00376 0.462418 0)
(5.16411 0.405297 0)
(5.32361 0.34321 0)
(5.42122 0.293813 0)
(5.59259 0.234945 0)
(5.64505 0.181024 0)
(5.83558 0.12306 0)
(5.90427 0.0903559 0)
(6.15287 0.0550528 0)
(6.27549 -0.00210865 0)
(6.50486 -0.0754619 0)
(6.77812 -0.178703 0)
(6.91538 -0.300532 0)
(7.33836 -0.456898 0)
(7.44079 -0.572427 0)
(7.79895 -0.748108 0)
(8.02 -0.87187 0)
(8.24527 -0.981896 0)
(8.51822 -1.14347 0)
(8.68881 -1.20728 0)
(8.94897 -1.28527 0)
(9.09167 -1.37324 0)
(9.33569 -1.42092 0)
(9.5226 -1.48717 0)
(9.67304 -1.5503 0)
(9.80644 -1.57811 0)
(10.017 -1.65324 0)
(9.97596 -1.664 0)
(10.1711 -1.71889 0)
(10.1512 -1.72708 0)
(10.3051 -1.75837 0)
(10.2456 -1.73644 0)
(10.5234 -1.75845 0)
(10.4475 -1.70047 0)
(10.7001 -1.74339 0)
(10.6953 -1.71085 0)
(10.9448 -1.73349 0)
(11.032 -1.80171 0)
(11.1581 -1.84584 0)
(11.3926 -1.92196 0)
(11.4581 -1.96141 0)
(11.7463 -2.08519 0)
(11.7913 -2.17034 0)
(12.1081 -2.25069 0)
(12.1331 -2.33031 0)
(12.4614 -2.45268 0)
(12.4835 -2.51299 0)
(12.7933 -2.55726 0)
(12.7988 -2.65033 0)
(13.1413 -2.67502 0)
(13.1252 -2.69468 0)
(13.3759 -2.66316 0)
(13.4955 -2.64616 0)
(13.6915 -2.57721 0)
(13.7565 -2.42823 0)
(14.0445 -2.37159 0)
(14.1095 -2.13428 0)
(14.3427 -1.96109 0)
(14.4748 -1.72209 0)
(14.5939 -1.42766 0)
(14.7341 -1.19132 0)
(14.7576 -0.842112 0)
(14.8734 -0.532111 0)
(14.7488 -0.226004 0)
(14.8077 0.102679 0)
(14.5655 0.366914 0)
(14.5352 0.639158 0)
(14.2157 0.814707 0)
(14.0885 0.941615 0)
(13.7047 0.992234 0)
(13.5141 0.933895 0)
(13.0529 0.820174 0)
(12.7675 0.603332 0)
(12.291 0.263613 0)
(11.8098 -0.100991 0)
(11.3254 -0.589072 0)
(10.7567 -1.01388 0)
(10.1544 -1.49351 0)
(9.62664 -1.94375 0)
(9.0299 -2.41077 0)
(8.67348 -2.95077 0)
(8.64584 -3.68654 0)
(8.74107 -4.40054 0)
(8.64377 -4.80897 0)
(8.65216 -5.1482 0)
(8.94108 -5.4309 0)
(9.2298 -5.47207 0)
(9.50805 -5.36462 0)
(9.91233 -5.04778 0)
(10.0058 -4.61146 0)
(10.4747 -4.07033 0)
(10.6891 -3.377 0)
(11.0444 -2.52497 0)
(11.3641 -1.74111 0)
(11.766 -0.716644 0)
(12.0905 0.21947 0)
(12.5042 1.24598 0)
(12.7579 2.28094 0)
(12.8636 3.11982 0)
(13.0131 3.94641 0)
(13.2153 4.68673 0)
(13.2275 5.29367 0)
(13.3151 5.83255 0)
(13.3509 6.18732 0)
(13.1585 6.3571 0)
(13.0713 6.36642 0)
(12.787 6.34037 0)
(12.7988 6.22359 0)
(12.7259 6.11929 0)
(12.7627 5.90186 0)
(12.7947 5.74014 0)
(12.8078 5.38554 0)
(12.6777 5.02723 0)
(12.5797 4.52203 0)
(12.2042 3.88631 0)
(12.0413 3.43913 0)
(11.6489 2.75082 0)
(11.4451 2.07015 0)
(11.1437 1.47189 0)
(10.9118 0.663571 0)
(10.7808 -0.0714228 0)
(10.3274 -0.490009 0)
(10.1766 -1.30286 0)
(9.69661 -1.50943 0)
(8.96066 -2.02458 0)
(8.64596 -1.83852 0)
(7.73779 -1.99718 0)
(7.47794 -1.49121 0)
(6.51477 -1.55546 0)
(6.56714 -1.30314 0)
(5.93383 -0.617656 0)
(6.42047 -0.486965 0)
(5.28009 0.202313 0)
(5.73167 0.588076 0)
(4.87858 1.35113 0)
(5.25075 1.48451 0)
(4.69734 2.0632 0)
(4.84503 2.25235 0)
(4.94471 3.07118 0)
(4.79137 2.96259 0)
(4.79783 3.82795 0)
(4.53769 4.34351 0)
(4.72563 5.23353 0)
(5.4011 7.25671 0)
(5.98837 8.57912 0)
(4.23984 11.348 0)
(5.16429 -0.0648635 0)
(5.18447 -0.0360872 0)
(5.20942 -0.04301 0)
(5.26667 -0.0708961 0)
(5.35032 -0.095334 0)
(5.43253 -0.099377 0)
(5.49562 -0.0932496 0)
(5.53984 -0.0842829 0)
(5.55932 -0.0717692 0)
(5.57692 -0.0660536 0)
(5.57178 -0.0620032 0)
(5.57546 -0.061337 0)
(5.56125 -0.0543847 0)
(5.56209 -0.0414909 0)
(5.54916 -0.00560387 0)
(5.54867 0.032856 0)
(5.56636 0.0787064 0)
(5.5798 0.122764 0)
(5.622 0.145943 0)
(5.68704 0.150865 0)
(5.74646 0.141398 0)
(5.80165 0.129629 0)
(5.84705 0.108873 0)
(5.89575 0.0757309 0)
(5.94924 0.0371037 0)
(5.99324 -0.0102971 0)
(6.03914 -0.0558613 0)
(6.06549 -0.100387 0)
(6.09846 -0.146945 0)
(6.10829 -0.180661 0)
(6.13246 -0.208901 0)
(6.13451 -0.232799 0)
(6.1586 -0.24655 0)
(6.15974 -0.250689 0)
(6.1803 -0.254435 0)
(6.19852 -0.250304 0)
(6.21454 -0.250059 0)
(6.23606 -0.241642 0)
(6.24047 -0.232086 0)
(6.27286 -0.221756 0)
(6.26405 -0.198505 0)
(6.29271 -0.179505 0)
(6.2861 -0.140656 0)
(6.30633 -0.104921 0)
(6.3064 -0.056508 0)
(6.33837 -0.000990349 0)
(6.33 0.059863 0)
(6.37441 0.114568 0)
(6.37404 0.183658 0)
(6.42151 0.246283 0)
(6.45141 0.303279 0)
(6.52947 0.340883 0)
(6.6236 0.370619 0)
(6.72093 0.361128 0)
(6.84423 0.33893 0)
(6.97106 0.298979 0)
(7.09029 0.241317 0)
(7.22551 0.188927 0)
(7.34939 0.122699 0)
(7.47784 0.0729232 0)
(7.65247 -0.00387736 0)
(7.76412 -0.0522462 0)
(7.99779 -0.131657 0)
(8.14435 -0.192229 0)
(8.40427 -0.292634 0)
(8.64751 -0.4114 0)
(8.84467 -0.523757 0)
(9.14473 -0.700247 0)
(9.29809 -0.820487 0)
(9.57075 -0.986714 0)
(9.76746 -1.10361 0)
(9.97431 -1.22102 0)
(10.1747 -1.33901 0)
(10.3472 -1.3964 0)
(10.506 -1.48289 0)
(10.6637 -1.53015 0)
(10.82 -1.54857 0)
(10.9493 -1.6419 0)
(11.0305 -1.6578 0)
(11.1622 -1.68614 0)
(11.2298 -1.74675 0)
(11.2703 -1.74538 0)
(11.3623 -1.73104 0)
(11.396 -1.75168 0)
(11.4403 -1.72511 0)
(11.473 -1.72561 0)
(11.5686 -1.72051 0)
(11.4957 -1.74611 0)
(11.6913 -1.75291 0)
(11.6024 -1.75948 0)
(11.8228 -1.83296 0)
(11.7193 -1.86365 0)
(11.9791 -1.92785 0)
(11.901 -1.9613 0)
(12.0813 -2.08191 0)
(12.09 -2.14141 0)
(12.1776 -2.22808 0)
(12.2802 -2.34742 0)
(12.2546 -2.4076 0)
(12.414 -2.54271 0)
(12.418 -2.59721 0)
(12.5566 -2.66124 0)
(12.5373 -2.75554 0)
(12.7904 -2.76265 0)
(12.721 -2.78439 0)
(13.0033 -2.76637 0)
(13.0524 -2.75784 0)
(13.3212 -2.66904 0)
(13.4144 -2.56709 0)
(13.8226 -2.49218 0)
(13.8826 -2.25892 0)
(14.2704 -2.07956 0)
(14.3769 -1.82741 0)
(14.6626 -1.52128 0)
(14.7517 -1.21793 0)
(14.9026 -0.850922 0)
(14.8857 -0.484209 0)
(14.8999 -0.141173 0)
(14.7848 0.199626 0)
(14.63 0.537585 0)
(14.3994 0.85486 0)
(14.1112 1.03648 0)
(13.7993 1.19926 0)
(13.3947 1.23703 0)
(13.0434 1.2431 0)
(12.5804 1.11351 0)
(12.1943 0.899491 0)
(11.6336 0.690848 0)
(11.138 0.311327 0)
(10.5799 -0.0821399 0)
(9.9377 -0.485388 0)
(9.41379 -1.0287 0)
(8.85438 -1.50712 0)
(8.30334 -2.03769 0)
(8.24109 -2.81895 0)
(8.1956 -3.69822 0)
(7.95276 -4.20877 0)
(7.73154 -4.73226 0)
(7.84996 -5.35085 0)
(8.14023 -5.73542 0)
(8.50123 -5.82104 0)
(8.68755 -5.63276 0)
(8.89301 -5.2513 0)
(9.00679 -4.83896 0)
(9.40417 -4.24198 0)
(9.53214 -3.5958 0)
(9.97491 -2.8314 0)
(10.3035 -2.06163 0)
(10.7396 -1.11763 0)
(11.1142 -0.104367 0)
(11.5958 0.940886 0)
(12.0187 2.02643 0)
(12.2742 2.99394 0)
(12.4211 3.83179 0)
(12.6426 4.61997 0)
(12.6701 5.16303 0)
(12.9018 5.68514 0)
(12.9148 6.16942 0)
(13.0601 6.36346 0)
(12.9306 6.60209 0)
(12.9272 6.42496 0)
(12.5261 6.36983 0)
(12.6515 6.12754 0)
(12.3628 5.93938 0)
(12.5114 5.67959 0)
(12.531 5.36343 0)
(12.3817 5.03058 0)
(12.514 4.60546 0)
(12.3105 3.98412 0)
(12.195 3.55139 0)
(12.1323 2.81942 0)
(11.7691 2.26932 0)
(11.6841 1.65026 0)
(11.1707 0.861607 0)
(11.0746 0.145176 0)
(10.4537 -0.240502 0)
(10.367 -1.03604 0)
(9.54001 -1.01293 0)
(9.29448 -1.59369 0)
(8.35713 -1.43283 0)
(8.19303 -1.42922 0)
(6.94775 -1.01367 0)
(7.10253 -1.16353 0)
(5.89578 -0.776273 0)
(6.4714 -0.778497 0)
(5.27281 0.0289392 0)
(5.82461 0.397924 0)
(4.77296 0.724241 0)
(5.37311 1.3309 0)
(4.75339 1.69353 0)
(5.50452 2.12088 0)
(4.70106 2.33712 0)
(5.32055 2.20812 0)
(5.10174 2.99279 0)
(5.35425 3.22991 0)
(6.22643 4.91347 0)
(5.80352 5.74416 0)
(5.64904 7.32223 0)
(8.14634 7.95386 0)
(6.22493 12.3605 0)
(7.8127 -0.0814847 0)
(7.8214 -0.0868917 0)
(7.82447 -0.110848 0)
(7.86458 -0.125328 0)
(7.93076 -0.126585 0)
(7.99833 -0.113926 0)
(8.05281 -0.0939486 0)
(8.08063 -0.0815751 0)
(8.08247 -0.0670543 0)
(8.08181 -0.0630064 0)
(8.06234 -0.0563484 0)
(8.05667 -0.0499235 0)
(8.04429 -0.0474854 0)
(8.02842 -0.0253977 0)
(8.02468 -4.24752e-05 0)
(8.01797 0.0327294 0)
(8.02495 0.0677968 0)
(8.03616 0.0957553 0)
(8.05653 0.117159 0)
(8.08741 0.122317 0)
(8.13267 0.115092 0)
(8.15733 0.10127 0)
(8.19977 0.0809496 0)
(8.21781 0.051751 0)
(8.25421 0.0177861 0)
(8.2789 -0.0280588 0)
(8.30509 -0.0707825 0)
(8.32563 -0.111083 0)
(8.34477 -0.155331 0)
(8.35439 -0.181548 0)
(8.36844 -0.215734 0)
(8.369 -0.235452 0)
(8.38826 -0.248704 0)
(8.3849 -0.259052 0)
(8.40512 -0.263586 0)
(8.40699 -0.258075 0)
(8.42777 -0.261174 0)
(8.43386 -0.254174 0)
(8.45316 -0.235153 0)
(8.45761 -0.230235 0)
(8.46985 -0.205059 0)
(8.47598 -0.175358 0)
(8.47191 -0.151902 0)
(8.48487 -0.102762 0)
(8.47382 -0.0570247 0)
(8.49998 -0.0101362 0)
(8.48346 0.0515292 0)
(8.52587 0.100621 0)
(8.52144 0.155908 0)
(8.56452 0.210234 0)
(8.58583 0.24889 0)
(8.64735 0.28291 0)
(8.71613 0.292485 0)
(8.78812 0.279924 0)
(8.88009 0.254901 0)
(8.99341 0.213339 0)
(9.09664 0.1564 0)
(9.1927 0.0889716 0)
(9.33662 0.0270628 0)
(9.42639 -0.0423403 0)
(9.62095 -0.126805 0)
(9.70449 -0.182348 0)
(9.93052 -0.282375 0)
(10.072 -0.345287 0)
(10.2757 -0.461723 0)
(10.4793 -0.585811 0)
(10.6532 -0.693569 0)
(10.8724 -0.853935 0)
(11.0149 -0.971731 0)
(11.2226 -1.10479 0)
(11.3298 -1.22871 0)
(11.5109 -1.343 0)
(11.5889 -1.42592 0)
(11.7148 -1.50279 0)
(11.7822 -1.56017 0)
(11.879 -1.59656 0)
(11.9205 -1.64375 0)
(11.9739 -1.69241 0)
(11.9859 -1.69904 0)
(12.0225 -1.72478 0)
(11.9687 -1.7576 0)
(11.9967 -1.73511 0)
(11.9273 -1.74362 0)
(11.9161 -1.78518 0)
(11.8954 -1.73946 0)
(11.877 -1.7905 0)
(11.8575 -1.78232 0)
(11.8839 -1.79914 0)
(11.9058 -1.77813 0)
(11.8935 -1.83915 0)
(11.9653 -1.83391 0)
(11.9193 -1.88617 0)
(12.0332 -1.92877 0)
(11.8822 -1.99095 0)
(12.0466 -2.11943 0)
(11.8824 -2.12057 0)
(12.0062 -2.30568 0)
(11.9381 -2.37874 0)
(11.9617 -2.4622 0)
(12.0007 -2.58629 0)
(12.0769 -2.6484 0)
(12.092 -2.76296 0)
(12.19 -2.79683 0)
(12.3739 -2.83644 0)
(12.4466 -2.9133 0)
(12.7039 -2.88865 0)
(12.8601 -2.9185 0)
(13.2399 -2.87361 0)
(13.4273 -2.82019 0)
(13.8747 -2.72329 0)
(14.0462 -2.55328 0)
(14.473 -2.36348 0)
(14.6338 -2.06738 0)
(14.9875 -1.76694 0)
(15.0344 -1.37944 0)
(15.2681 -0.974818 0)
(15.1897 -0.542674 0)
(15.2711 -0.107137 0)
(15.0718 0.302275 0)
(14.9832 0.740168 0)
(14.5856 1.07767 0)
(14.2829 1.37971 0)
(13.7495 1.57819 0)
(13.3856 1.60375 0)
(12.7048 1.65422 0)
(12.26 1.52112 0)
(11.652 1.35068 0)
(11.1151 1.08783 0)
(10.5329 0.747655 0)
(9.96445 0.432969 0)
(9.24804 -0.0347244 0)
(8.88422 -0.561556 0)
(8.1739 -1.00476 0)
(7.93427 -1.80642 0)
(7.83555 -2.75301 0)
(7.36713 -3.37109 0)
(6.86373 -3.95772 0)
(6.73401 -4.83488 0)
(6.90063 -5.56819 0)
(7.23711 -5.9771 0)
(7.48878 -5.93556 0)
(7.51314 -5.65422 0)
(7.71825 -5.29173 0)
(7.77726 -4.83445 0)
(8.15734 -4.27797 0)
(8.41157 -3.76507 0)
(8.89672 -3.0461 0)
(9.20602 -2.28104 0)
(9.58913 -1.38543 0)
(10.0186 -0.404339 0)
(10.425 0.535582 0)
(10.9857 1.66147 0)
(11.2661 2.70015 0)
(11.7377 3.68773 0)
(11.8252 4.48218 0)
(12.0135 5.03947 0)
(12.1442 5.6146 0)
(12.372 5.95317 0)
(12.5142 6.3286 0)
(12.6245 6.45831 0)
(12.7586 6.59502 0)
(12.5164 6.41742 0)
(12.5005 6.20886 0)
(12.2919 5.95514 0)
(12.0962 5.57594 0)
(12.2997 5.39189 0)
(12.061 4.92722 0)
(12.1624 4.64947 0)
(12.0734 4.04479 0)
(11.8273 3.68151 0)
(11.8953 2.93063 0)
(11.6291 2.43492 0)
(11.6041 1.78598 0)
(11.3415 1.26192 0)
(10.8555 0.399465 0)
(10.5609 0.227084 0)
(9.98332 -0.821385 0)
(9.54702 -0.323267 0)
(8.71026 -1.38551 0)
(8.57871 -0.590656 0)
(7.58366 -1.26778 0)
(7.72873 -0.175556 0)
(6.57754 -1.19543 0)
(6.9862 -0.341162 0)
(5.97771 -0.542488 0)
(5.68614 0.596249 0)
(4.95455 0.358946 0)
(4.69774 1.5043 0)
(4.14652 1.09058 0)
(4.71688 1.91769 0)
(4.32173 1.78261 0)
(5.71733 2.80004 0)
(4.67109 2.48404 0)
(5.7749 3.06229 0)
(4.47227 2.90072 0)
(5.24602 3.67862 0)
(7.07755 4.72776 0)
(5.59704 7.56255 0)
(10.1124 5.07826 0)
(8.63361 11.5738 0)
(10.0238 -0.114649 0)
(10.0499 -0.223385 0)
(10.076 -0.259343 0)
(10.1231 -0.246631 0)
(10.1788 -0.208013 0)
(10.2171 -0.159744 0)
(10.2353 -0.124401 0)
(10.253 -0.0964259 0)
(10.2323 -0.0752376 0)
(10.2379 -0.060138 0)
(10.2033 -0.048066 0)
(10.1938 -0.0459796 0)
(10.1721 -0.0419644 0)
(10.1546 -0.0307479 0)
(10.1483 -0.0103995 0)
(10.1492 0.0144238 0)
(10.1568 0.0512048 0)
(10.1757 0.0799609 0)
(10.194 0.102962 0)
(10.2145 0.11239 0)
(10.2419 0.10241 0)
(10.2611 0.0830659 0)
(10.2817 0.0592958 0)
(10.3098 0.0256552 0)
(10.3176 0.000142785 0)
(10.3603 -0.0378543 0)
(10.3623 -0.080878 0)
(10.4007 -0.113045 0)
(10.3957 -0.156302 0)
(10.4075 -0.190385 0)
(10.3995 -0.212903 0)
(10.3944 -0.246642 0)
(10.3868 -0.253875 0)
(10.3832 -0.266099 0)
(10.3786 -0.273719 0)
(10.3774 -0.265046 0)
(10.3877 -0.266406 0)
(10.3875 -0.258351 0)
(10.4014 -0.242034 0)
(10.4067 -0.231231 0)
(10.4092 -0.211973 0)
(10.4142 -0.175653 0)
(10.4065 -0.152236 0)
(10.4085 -0.107144 0)
(10.3959 -0.0602143 0)
(10.4115 -0.0181501 0)
(10.4008 0.0396324 0)
(10.4333 0.0842343 0)
(10.4405 0.133992 0)
(10.4838 0.175748 0)
(10.5136 0.206915 0)
(10.5748 0.231796 0)
(10.6198 0.234925 0)
(10.7188 0.219065 0)
(10.7648 0.194415 0)
(10.8912 0.145109 0)
(10.9505 0.0834429 0)
(11.0643 0.0160507 0)
(11.1558 -0.057183 0)
(11.257 -0.133448 0)
(11.3944 -0.223496 0)
(11.4778 -0.296136 0)
(11.6526 -0.389563 0)
(11.7448 -0.482922 0)
(11.9121 -0.594004 0)
(12.0215 -0.707376 0)
(12.182 -0.831154 0)
(12.2619 -0.956844 0)
(12.3873 -1.09031 0)
(12.4411 -1.21328 0)
(12.4989 -1.32828 0)
(12.5653 -1.42779 0)
(12.5541 -1.4951 0)
(12.6002 -1.56451 0)
(12.5742 -1.59335 0)
(12.5763 -1.64447 0)
(12.5416 -1.66878 0)
(12.5255 -1.66774 0)
(12.4598 -1.69816 0)
(12.4218 -1.69662 0)
(12.3621 -1.6909 0)
(12.3326 -1.69311 0)
(12.2273 -1.69557 0)
(12.2362 -1.68799 0)
(12.131 -1.69422 0)
(12.1012 -1.70704 0)
(12.0484 -1.7237 0)
(12.0238 -1.73452 0)
(11.9487 -1.75654 0)
(11.9362 -1.82498 0)
(11.8572 -1.80138 0)
(11.8513 -1.91693 0)
(11.7509 -1.94714 0)
(11.7291 -2.0235 0)
(11.7001 -2.1069 0)
(11.6187 -2.17901 0)
(11.6754 -2.32583 0)
(11.6044 -2.3994 0)
(11.7435 -2.52014 0)
(11.6708 -2.6243 0)
(11.8535 -2.72403 0)
(11.8774 -2.83692 0)
(12.0696 -2.89497 0)
(12.2021 -2.98325 0)
(12.4149 -3.11556 0)
(12.6507 -3.13045 0)
(12.9314 -3.17995 0)
(13.2791 -3.21946 0)
(13.5497 -3.16718 0)
(13.8826 -3.05987 0)
(14.1595 -2.92212 0)
(14.4931 -2.64224 0)
(14.6488 -2.35651 0)
(14.978 -1.98309 0)
(15.0009 -1.55171 0)
(15.2533 -1.09842 0)
(15.2061 -0.593729 0)
(15.3101 -0.0949332 0)
(15.1869 0.429558 0)
(15.11 0.905653 0)
(14.7625 1.32239 0)
(14.5008 1.71071 0)
(13.8629 1.97478 0)
(13.4891 2.11503 0)
(12.7207 2.12547 0)
(12.2079 2.02086 0)
(11.3891 1.91792 0)
(10.8101 1.63216 0)
(10.1502 1.26105 0)
(9.50241 0.95942 0)
(8.94501 0.38244 0)
(8.39305 -0.0719332 0)
(7.69814 -0.655261 0)
(7.60845 -1.64576 0)
(6.94754 -2.37209 0)
(6.24545 -2.92041 0)
(5.72811 -3.80479 0)
(5.69837 -4.85811 0)
(5.8266 -5.66732 0)
(6.10717 -6.02752 0)
(6.25554 -5.91201 0)
(6.34937 -5.68819 0)
(6.5526 -5.39861 0)
(6.6799 -5.1226 0)
(7.19036 -4.70014 0)
(7.34865 -4.1296 0)
(7.85546 -3.37586 0)
(8.13929 -2.52221 0)
(8.42809 -1.65487 0)
(8.97069 -0.739386 0)
(9.22309 0.240734 0)
(9.74714 1.31808 0)
(10.1401 2.34534 0)
(10.6873 3.41652 0)
(10.8738 4.24016 0)
(11.1832 4.92543 0)
(11.3301 5.44917 0)
(11.5371 5.81749 0)
(11.7587 6.12454 0)
(11.9777 6.39571 0)
(12.2619 6.52041 0)
(12.2055 6.526 0)
(12.3218 6.31388 0)
(12.0751 6.1303 0)
(11.9782 5.66976 0)
(11.853 5.2771 0)
(11.7541 5.01779 0)
(11.7718 4.49313 0)
(11.657 4.10312 0)
(11.6696 3.64205 0)
(11.3621 2.9445 0)
(11.3497 2.57747 0)
(10.9306 1.80896 0)
(10.9211 1.56981 0)
(10.4361 0.656839 0)
(10.2376 0.630876 0)
(9.65613 -0.360256 0)
(9.17304 0.239992 0)
(8.50063 -1.07207 0)
(8.29481 -0.106108 0)
(7.42601 -1.09143 0)
(7.53843 0.370847 0)
(6.41994 -1.09121 0)
(7.08386 0.252704 0)
(5.4436 -0.41406 0)
(6.28929 1.31997 0)
(4.21685 0.297643 0)
(5.14668 1.93454 0)
(3.73021 0.51808 0)
(4.69126 2.01909 0)
(4.30606 0.86564 0)
(4.94303 2.56899 0)
(6.34937 1.94557 0)
(5.23043 3.93583 0)
(8.16364 2.98708 0)
(4.83092 5.50172 0)
(9.01725 2.66776 0)
(5.68377 8.51109 0)
(9.51968 2.8829 0)
(8.95597 9.80816 0)
(11.5275 -0.0902948 0)
(11.5793 -0.246278 0)
(11.6853 -0.297255 0)
(11.7725 -0.281593 0)
(11.829 -0.241659 0)
(11.8584 -0.173826 0)
(11.8435 -0.126656 0)
(11.839 -0.0978894 0)
(11.8038 -0.0635974 0)
(11.7853 -0.0575906 0)
(11.7569 -0.0364405 0)
(11.7364 -0.0290971 0)
(11.7238 -0.0261707 0)
(11.7062 -0.00359874 0)
(11.698 0.00150556 0)
(11.695 0.0169538 0)
(11.703 0.0450299 0)
(11.7117 0.0563412 0)
(11.7414 0.0738675 0)
(11.7678 0.085644 0)
(11.8047 0.0718814 0)
(11.836 0.0662336 0)
(11.8527 0.0370876 0)
(11.8816 0.00275204 0)
(11.8764 -0.0183881 0)
(11.8975 -0.0626043 0)
(11.8962 -0.0893163 0)
(11.9128 -0.121945 0)
(11.9207 -0.153315 0)
(11.9219 -0.174557 0)
(11.9187 -0.197657 0)
(11.9118 -0.221432 0)
(11.8878 -0.235079 0)
(11.8714 -0.251889 0)
(11.8444 -0.263952 0)
(11.8122 -0.265022 0)
(11.8069 -0.272534 0)
(11.7875 -0.264857 0)
(11.7881 -0.249134 0)
(11.7992 -0.240271 0)
(11.8088 -0.207868 0)
(11.8194 -0.175409 0)
(11.8375 -0.143616 0)
(11.8316 -0.100168 0)
(11.8398 -0.0578745 0)
(11.8325 -0.0190697 0)
(11.8312 0.0317323 0)
(11.8387 0.0638876 0)
(11.8608 0.105919 0)
(11.8813 0.141806 0)
(11.9397 0.152425 0)
(11.9866 0.180226 0)
(12.0479 0.174179 0)
(12.1359 0.151871 0)
(12.186 0.130833 0)
(12.2883 0.0769168 0)
(12.34 0.0161362 0)
(12.4401 -0.0482979 0)
(12.4992 -0.121807 0)
(12.6022 -0.205579 0)
(12.6702 -0.283424 0)
(12.7777 -0.380636 0)
(12.8429 -0.466292 0)
(12.9497 -0.565916 0)
(13.0088 -0.678133 0)
(13.0871 -0.776677 0)
(13.1525 -0.901409 0)
(13.1492 -1.00812 0)
(13.1969 -1.13047 0)
(13.135 -1.23086 0)
(13.1306 -1.32376 0)
(13.0551 -1.39615 0)
(12.9842 -1.47247 0)
(12.9135 -1.49619 0)
(12.7979 -1.55486 0)
(12.7348 -1.5797 0)
(12.6474 -1.57185 0)
(12.5394 -1.61316 0)
(12.4511 -1.6133 0)
(12.3454 -1.60548 0)
(12.2374 -1.62745 0)
(12.1265 -1.63238 0)
(12.001 -1.6343 0)
(11.9307 -1.66225 0)
(11.8339 -1.67952 0)
(11.7762 -1.69662 0)
(11.7566 -1.72773 0)
(11.7186 -1.74246 0)
(11.707 -1.78065 0)
(11.6979 -1.779 0)
(11.6426 -1.81872 0)
(11.6404 -1.86839 0)
(11.5595 -1.89226 0)
(11.599 -1.98033 0)
(11.4835 -2.05691 0)
(11.5738 -2.18221 0)
(11.5056 -2.27511 0)
(11.6334 -2.40833 0)
(11.6369 -2.5533 0)
(11.6675 -2.65446 0)
(11.8502 -2.79238 0)
(11.8419 -2.91444 0)
(12.066 -3.06305 0)
(12.1298 -3.18873 0)
(12.4161 -3.31889 0)
(12.5731 -3.41479 0)
(12.8338 -3.46087 0)
(13.0635 -3.52928 0)
(13.2733 -3.44536 0)
(13.4828 -3.30536 0)
(13.7124 -3.15705 0)
(13.8572 -2.82514 0)
(14.0018 -2.51564 0)
(14.2461 -2.13249 0)
(14.2427 -1.62457 0)
(14.518 -1.17462 0)
(14.5287 -0.619201 0)
(14.6348 -0.0562387 0)
(14.6888 0.454436 0)
(14.6056 1.06316 0)
(14.474 1.52748 0)
(14.1862 2.00466 0)
(13.8117 2.32353 0)
(13.3052 2.60424 0)
(12.6294 2.71047 0)
(12.1268 2.58242 0)
(11.2719 2.47758 0)
(10.6657 2.18598 0)
(9.85314 1.91542 0)
(9.17362 1.48631 0)
(8.67995 0.873606 0)
(7.84245 0.482815 0)
(7.43016 -0.38935 0)
(6.86075 -1.20129 0)
(5.93047 -1.69325 0)
(5.09734 -2.39718 0)
(4.62459 -3.57304 0)
(4.52593 -4.81817 0)
(4.52509 -5.75492 0)
(4.88321 -6.10115 0)
(5.05625 -6.04562 0)
(5.23701 -5.9042 0)
(5.36134 -5.66214 0)
(5.54731 -5.42047 0)
(5.93532 -4.97802 0)
(6.0753 -4.43114 0)
(6.66248 -3.69229 0)
(6.85019 -2.91975 0)
(7.36221 -2.11526 0)
(7.71423 -1.08229 0)
(7.99457 -0.12644 0)
(8.5589 0.892044 0)
(8.8618 2.00374 0)
(9.44587 3.07431 0)
(9.73084 3.99405 0)
(10.1252 4.68416 0)
(10.3744 5.2989 0)
(10.5917 5.54848 0)
(10.8808 5.93831 0)
(11.1553 6.07677 0)
(11.5332 6.33039 0)
(11.5984 6.42508 0)
(11.9636 6.34572 0)
(11.7 6.25838 0)
(11.7909 5.80423 0)
(11.5537 5.57876 0)