/*--------------------------------*- C++ -*----------------------------------*\
| =========                 |                                                 |
| \\      /  F ield         | OpenFOAM: The Open Source CFD Toolbox           |
|  \\    /   O peration     | Version:  2.4.0                                 |
|   \\  /    A nd           | Web:      www.OpenFOAM.org                      |
|    \\/     M anipulation  |                                                 |
\*---------------------------------------------------------------------------*/
FoamFile
{
    version     2.0;
    format      ascii;
    class       volScalarField;
    location    "0.97";
    object      k_0;
}
// * * * * * * * * * * * * * * * * * * * * * * * * * * * * * * * * * * * * * //

dimensions      [0 2 -2 0 0 0 0];

internalField   nonuniform List<scalar> 
8800
(
8.14505
10.2508
8.80103
6.79784
5.74249
4.91826
4.60322
4.07347
3.96177
3.62517
3.58067
3.33586
3.34556
3.11308
3.16971
2.93186
2.99505
2.7386
2.87247
2.51357
1.42606
4.33908
5.32607
5.27541
5.14047
4.76011
4.63219
4.24562
4.14846
3.86924
3.78854
3.56684
3.54763
3.3414
3.37054
3.18992
3.20924
3.05556
3.07151
2.97638
0.0858833
0.723566
1.58319
1.89813
2.31687
2.40477
2.59736
2.5973
2.63625
2.5874
2.58946
2.52838
2.53241
2.45624
2.47318
2.40667
2.41501
2.37145
2.35799
2.31172
0.0034324
0.0696282
0.274821
0.381326
0.598948
0.703783
0.822129
0.948339
1.03414
1.08627
1.17736
1.19781
1.26322
1.28931
1.3209
1.376
1.39586
1.4304
1.45101
1.46934
0.000123397
0.00494125
0.028714
0.0458025
0.0825744
0.132212
0.156437
0.215758
0.244913
0.285094
0.334183
0.351633
0.376498
0.438667
0.448524
0.498536
0.523501
0.576408
0.590234
0.663758
2.50696e-05
0.000316304
0.0021784
0.00356657
0.0067227
0.0147471
0.0183838
0.0296271
0.036552
0.0435684
0.0614125
0.0659662
0.070686
0.0904135
0.0954101
0.110014
0.124414
0.141057
0.145709
0.183618
2.10595e-05
4.80049e-05
0.00020671
0.00027152
0.000401569
0.00105815
0.00142643
0.00289253
0.00358324
0.0041356
0.00680058
0.0073557
0.0078456
0.0112001
0.0117886
0.0132563
0.0186276
0.0193944
0.0201378
0.0269543
2.2056e-05
3.45101e-05
8.57036e-05
9.09462e-05
8.66346e-05
0.000107289
0.000165853
0.00048412
0.000591044
0.000624668
0.000837151
0.000846324
0.000835177
0.00119709
0.00138582
0.00188584
0.00293642
0.00309823
0.0033065
0.00476594
2.12971e-05
2.71379e-05
4.49703e-05
8.76925e-05
8.61029e-05
8.13741e-05
8.09403e-05
9.84678e-05
0.000202634
0.000228879
0.000292275
0.000297303
0.000289413
0.000301832
0.000315181
0.000365131
0.000626953
0.00077681
0.000868072
0.00115689
2.06979e-05
2.76913e-05
4.26318e-05
7.28126e-05
7.54196e-05
7.65702e-05
8.13038e-05
0.000107332
0.000150199
0.000159446
0.000174094
0.000185529
0.000189824
0.000210795
0.000245911
0.000327487
0.000399595
0.000408883
0.000422589
0.000492605
2.12049e-05
2.87982e-05
3.91231e-05
7.72907e-05
9.55827e-05
9.35398e-05
7.79253e-05
7.12982e-05
7.07315e-05
7.48514e-05
0.000101709
0.000121274
0.000140989
0.000141668
0.000140024
0.000139056
0.000141286
0.000143354
0.000148453
0.000171524
2.11684e-05
2.71102e-05
5.46906e-05
9.66541e-05
9.81796e-05
8.95619e-05
8.73508e-05
8.70388e-05
9.79081e-05
0.00011119
0.000135144
0.000145669
0.000145324
0.0001516
0.000171981
0.000169749
0.000199497
0.000247572
0.00028189
0.000285371
2.12337e-05
2.74808e-05
5.10979e-05
0.000121331
0.000124876
0.00013156
0.000158567
0.000161797
0.000182865
0.000264638
0.000300318
0.000450666
0.000544003
0.000868231
0.00118276
0.00127526
0.00167761
0.00216957
0.002323
0.00262854
2.17895e-05
4.07306e-05
0.000168472
0.000682414
0.000748402
0.000922631
0.00152172
0.00172473
0.00224088
0.00394088
0.00461921
0.0064585
0.00781559
0.0114064
0.0134516
0.0148713
0.0187049
0.0227505
0.0243878
0.0297495
2.52107e-05
0.000289373
0.00182735
0.00710012
0.0085284
0.0118338
0.020545
0.0236484
0.0301239
0.0462421
0.0514821
0.0640714
0.0726359
0.0926254
0.100393
0.114705
0.129255
0.149235
0.157932
0.190067
0.000126052
0.00476324
0.0240019
0.0692675
0.0843503
0.118479
0.174665
0.193452
0.230737
0.294273
0.314277
0.357888
0.391671
0.447009
0.464723
0.510375
0.539741
0.591282
0.614937
0.690841
0.00336687
0.0677044
0.259109
0.460212
0.542606
0.704291
0.858874
0.905402
1.00543
1.11008
1.14728
1.21416
1.28004
1.32237
1.33759
1.38726
1.41109
1.45054
1.47411
1.52782
0.0839644
0.712958
1.57915
1.96179
2.24855
2.44145
2.58859
2.58337
2.61638
2.60307
2.58872
2.54536
2.53532
2.48127
2.46203
2.42244
2.40791
2.37723
2.36912
2.33546
1.39357
4.35042
5.33135
5.28563
5.13459
4.79231
4.57646
4.28808
4.12314
3.87065
3.78695
3.58405
3.52036
3.36448
3.32576
3.19493
3.15802
3.04192
3.00214
2.89039
8.09614
10.2692
8.81123
6.79141
5.73846
4.94844
4.52373
4.14308
3.92604
3.64823
3.55964
3.35321
3.29628
3.12467
3.09341
2.92891
2.88264
2.70197
2.63898
2.42307
1.64978
1.21844
1.03428
0.905099
0.849239
0.775753
0.745077
0.689283
0.666993
0.626698
0.612268
0.586953
0.578678
0.562979
0.558758
0.550534
0.549259
0.545521
0.544658
0.543698
0.54259
0.541535
0.535663
0.530586
0.514197
0.502541
0.473846
0.459372
0.427781
0.417138
0.393839
0.387996
0.372797
0.369263
0.356927
0.35274
0.340195
0.33668
0.325435
0.322848
0.314617
0.313935
0.309104
0.304325
0.289512
0.27626
0.246264
0.227332
0.207161
0.196427
0.188801
0.188186
0.190261
0.20402
0.217649
0.248463
0.265605
0.302187
0.319256
0.354659
0.36669
0.384401
0.390888
0.396076
0.396035
0.396851
0.395559
0.396572
0.393938
0.394826
0.391384
0.394164
0.389217
0.386977
0.361614
0.343084
0.295702
0.278719
0.245842
0.23842
0.219857
0.21429
0.202143
0.20661
0.196384
0.196301
0.190454
0.192014
0.184249
0.178638
0.164057
0.155657
0.136511
0.124974
0.110439
0.102163
0.0931902
0.0893939
0.0858946
0.085504
0.0855065
0.086252
0.086735
0.087895
0.0882373
0.0884358
0.0889242
0.090332
0.0929081
0.0963284
0.0985602
0.102607
0.111736
0.136759
0.158282
0.178688
0.188865
0.20072
0.20547
0.215455
0.215615
0.216329
0.202781
0.193827
0.190069
0.193609
0.209764
0.26434
0.294678
0.308005
0.307324
0.304072
0.29136
0.274208
0.255281
0.231735
0.226492
0.214905
0.217638
0.215527
0.221746
0.220673
0.224192
0.220229
0.21753
0.20508
0.193891
0.170456
0.14921
0.121754
0.0898768
0.0542588
0.0327818
0.0195486
0.0119676
0.00835415
0.00579979
0.00492374
0.0042997
0.00405157
0.00402743
0.00397161
0.00416172
0.00470558
0.0063693
0.0104255
0.021168
0.0387613
0.0738171
0.112784
0.143063
0.16788
0.174527
0.174281
0.171329
0.167136
0.15875
0.151774
0.140037
0.130152
0.116296
0.101733
0.0826
0.0594596
0.0419588
0.0333073
0.0309163
0.0312908
0.0334297
0.0390814
0.0522238
0.0823555
0.117704
0.183848
0.20581
0.228649
0.252384
0.239373
0.332447
0.802477
2.49098
2.02829
1.691
1.45898
1.29025
1.1732
1.07889
1.01582
0.953888
0.916799
0.865428
0.841239
0.795913
0.779414
0.744762
0.732219
0.703622
0.694366
0.6728
0.667479
0.652722
0.650882
0.641843
0.640936
0.631786
0.628853
0.615828
0.610428
0.593795
0.587549
0.57072
0.565336
0.551372
0.546392
0.533494
0.52863
0.51564
0.510922
0.498857
0.494336
0.482559
0.479892
0.473231
0.472745
0.468999
0.466168
0.45571
0.444813
0.419966
0.395947
0.368736
0.346579
0.328426
0.32135
0.318957
0.320567
0.324705
0.338353
0.346644
0.364857
0.371204
0.384819
0.387229
0.39233
0.390438
0.39034
0.384224
0.383049
0.378722
0.382477
0.383368
0.39503
0.399127
0.418163
0.416682
0.425117
0.412193
0.407258
0.378941
0.369567
0.344929
0.343033
0.331176
0.336387
0.331082
0.332874
0.331641
0.334366
0.333894
0.334047
0.328926
0.31737
0.294972
0.26313
0.237916
0.211849
0.194492
0.176386
0.164293
0.148843
0.139637
0.12901
0.123588
0.115903
0.110505
0.107081
0.106815
0.106638
0.108487
0.111381
0.11571
0.12041
0.135231
0.15308
0.173828
0.183491
0.194448
0.199101
0.200331
0.199111
0.192542
0.180349
0.161435
0.144408
0.135503
0.134025
0.135605
0.141146
0.153214
0.187754
0.231714
0.256334
0.267502
0.264931
0.26448
0.257794
0.256641
0.248725
0.246424
0.24052
0.236885
0.228866
0.221738
0.208113
0.190785
0.170769
0.143735
0.121384
0.0927509
0.0597791
0.0373418
0.0219012
0.0139867
0.00881316
0.00631117
0.00509093
0.00414311
0.004075
0.00388998
0.00397991
0.00398923
0.0042614
0.00511527
0.00733231
0.0129449
0.0267618
0.0546637
0.111611
0.173832
0.201936
0.213054
0.209718
0.203296
0.193309
0.187089
0.176856
0.171901
0.161706
0.157254
0.147704
0.142204
0.131673
0.116002
0.101664
0.0782642
0.053889
0.0411667
0.0343894
0.0337798
0.0346054
0.0372572
0.0477884
0.0653647
0.0979739
0.164782
0.1882
0.249158
0.247126
0.307274
0.513487
2.06634
1.82573
1.60216
1.43772
1.29088
1.19044
1.09374
1.02914
0.959187
0.922203
0.868424
0.846624
0.801124
0.782721
0.745319
0.729905
0.697662
0.683806
0.656275
0.64456
0.623429
0.615474
0.601246
0.596943
0.588037
0.585205
0.578086
0.574553
0.565463
0.560355
0.548553
0.542362
0.529263
0.522369
0.50961
0.50266
0.491935
0.485589
0.477158
0.473694
0.467998
0.468186
0.468347
0.472647
0.474622
0.481138
0.482522
0.485779
0.484262
0.483277
0.476095
0.470696
0.455631
0.448497
0.432338
0.426462
0.414042
0.410779
0.402279
0.400541
0.393647
0.390935
0.379744
0.373832
0.356324
0.347669
0.3256
0.31762
0.297066
0.294525
0.291654
0.29733
0.303392
0.327221
0.340982
0.37726
0.386557
0.403982
0.400188
0.401638
0.395422
0.39278
0.384941
0.382571
0.377453
0.376499
0.371953
0.37135
0.372324
0.373091
0.37578
0.375255
0.37359
0.368225
0.361963
0.346482
0.334463
0.314224
0.298667
0.280181
0.267048
0.249852
0.236966
0.221668
0.207938
0.197299
0.191584
0.187757
0.187472
0.187254
0.188239
0.19048
0.201206
0.204446
0.205789
0.204519
0.20287
0.19772
0.189707
0.17049
0.145795
0.116674
0.10083
0.0819097
0.0721759
0.0679574
0.068728
0.0714349
0.0801138
0.0892744
0.106645
0.129195
0.158139
0.186636
0.206184
0.217411
0.220694
0.221042
0.217836
0.214852
0.204876
0.195804
0.174953
0.160571
0.135505
0.110698
0.0851606
0.0571719
0.0366471
0.0222561
0.0143194
0.00877884
0.00647317
0.00459217
0.0040823
0.00354053
0.00348868
0.00353458
0.00364664
0.00396102
0.00472373
0.00656759
0.00947798
0.016333
0.0327585
0.0763859
0.147573
0.224972
0.241824
0.24092
0.233919
0.216556
0.206906
0.191403
0.183024
0.171793
0.167232
0.159201
0.154845
0.150636
0.14535
0.144056
0.137761
0.133413
0.121361
0.10389
0.0720777
0.0505079
0.0393367
0.0366058
0.0364745
0.037942
0.044218
0.056054
0.101493
0.129667
0.210526
0.234381
0.249499
0.337551
1.36641
1.25363
1.13122
1.04367
0.953024
0.887073
0.822193
0.777166
0.731085
0.704673
0.671395
0.656454
0.626749
0.613748
0.586244
0.572399
0.545904
0.530475
0.507119
0.492015
0.471667
0.459525
0.442812
0.436094
0.42493
0.422241
0.416075
0.41495
0.411059
0.409855
0.404743
0.402081
0.3935
0.389133
0.37759
0.372324
0.359886
0.354881
0.34335
0.339898
0.330895
0.329925
0.327393
0.330566
0.331603
0.33912
0.34435
0.358864
0.366752
0.385069
0.391563
0.405772
0.406776
0.408718
0.405475
0.403764
0.395648
0.39115
0.378911
0.372092
0.35424
0.343537
0.319264
0.30649
0.279527
0.26508
0.237526
0.22652
0.2078
0.195282
0.18381
0.182891
0.184004
0.191983
0.201935
0.226487
0.246127
0.289915
0.315437
0.341531
0.353314
0.361946
0.363484
0.363144
0.362108
0.359901
0.355657
0.353478
0.348183
0.344626
0.34122
0.331994
0.328201
0.320473
0.317196
0.310881
0.307314
0.305013
0.302307
0.29814
0.296299
0.292832
0.287636
0.284255
0.274107
0.269176
0.258306
0.252376
0.245419
0.240444
0.236709
0.230739
0.226859
0.22157
0.212114
0.201778
0.186587
0.16784
0.139161
0.108893
0.0839902
0.0619364
0.0463573
0.0359979
0.0288943
0.0246546
0.0235854
0.0238412
0.024984
0.0292994
0.0340603
0.0466667
0.0553542
0.0711472
0.0860846
0.10031
0.114067
0.1218
0.121916
0.119737
0.114906
0.10245
0.0899621
0.0718176
0.0542557
0.0390492
0.0267404
0.0179386
0.0117096
0.007694
0.00549074
0.00402697
0.00346394
0.00306193
0.00305953
0.00314133
0.00349801
0.00396899
0.00481959
0.0058664
0.00846827
0.0113362
0.0180976
0.0346522
0.0837079
0.195491
0.253564
0.276925
0.26446
0.253532
0.223943
0.203911
0.179112
0.166892
0.151304
0.14579
0.138695
0.134023
0.131706
0.13257
0.132859
0.135844
0.136328
0.136052
0.135666
0.12857
0.118816
0.0948839
0.0623895
0.0455536
0.0407073
0.0386899
0.0413877
0.046274
0.0612551
0.0931546
0.120291
0.18999
0.205881
0.249716
0.635499
0.607634
0.552486
0.528622
0.479412
0.452653
0.412445
0.388315
0.36303
0.348783
0.338196
0.334949
0.33102
0.329802
0.325558
0.32245
0.312946
0.307061
0.29226
0.284479
0.267242
0.259788
0.243526
0.23742
0.224643
0.220834
0.212745
0.210583
0.206292
0.205764
0.20423
0.204041
0.202165
0.201951
0.199792
0.198839
0.194941
0.192779
0.186866
0.184384
0.178145
0.176449
0.171872
0.172244
0.172427
0.175342
0.178227
0.185864
0.190999
0.202346
0.209235
0.2233
0.230246
0.242428
0.248685
0.251879
0.250907
0.248128
0.239353
0.23076
0.215135
0.200318
0.181093
0.163862
0.145538
0.129836
0.11363
0.100116
0.0900042
0.0814053
0.0745514
0.0722664
0.0726681
0.0748542
0.079058
0.0904687
0.102296
0.122627
0.141879
0.169373
0.199952
0.222587
0.243817
0.258727
0.267601
0.269527
0.268187
0.264813
0.257631
0.247496
0.239706
0.228261
0.219015
0.209136
0.200941
0.194894
0.189167
0.185308
0.183654
0.182602
0.182761
0.185015
0.187117
0.191745
0.193222
0.194284
0.194426
0.194348
0.193735
0.192476
0.188662
0.182935
0.174905
0.161923
0.144053
0.125976
0.101865
0.0766049
0.0555272
0.0403336
0.0294858
0.0218696
0.0166945
0.0133991
0.0110732
0.00952496
0.00853589
0.0083573
0.00848099
0.00892226
0.0103011
0.0127777
0.0158688
0.0211244
0.0264701
0.030771
0.0368083
0.0402921
0.0404758
0.0397116
0.0374504
0.0332981
0.0276536
0.0221631
0.0165166
0.0123228
0.00840372
0.00625493
0.00421907
0.00346248
0.00281676
0.0026167
0.00258249
0.00268155
0.00280099
0.00303454
0.00372695
0.00467319
0.00594045
0.0098054
0.0147933
0.0220031
0.0397558
0.0849834
0.231394
0.276722
0.30387
0.285522
0.264098
0.211173
0.176606
0.153043
0.136558
0.133812
0.128395
0.128901
0.12746
0.128564
0.126482
0.125141
0.124897
0.125478
0.131802
0.132716
0.142411
0.140557
0.13727
0.130378
0.113652
0.074374
0.056216
0.0453216
0.0453035
0.0471155
0.0512543
0.0672929
0.0779227
0.124255
0.140492
0.17094
0.182004
0.180154
0.173174
0.168834
0.156719
0.149042
0.133695
0.12429
0.114551
0.106601
0.103947
0.103103
0.10374
0.10616
0.10912
0.111539
0.111875
0.112192
0.111124
0.10939
0.104009
0.0999752
0.0922972
0.088258
0.0829248
0.0796221
0.0758683
0.0728391
0.0706587
0.0691922
0.0678931
0.0676618
0.0672411
0.0676403
0.0675961
0.0678088
0.067824
0.0676672
0.0677195
0.0672936
0.0668857
0.0663197
0.0645754
0.0638509
0.0638253
0.0642668
0.0652982
0.067593
0.0705003
0.0742396
0.0790842
0.0841426
0.087866
0.0932727
0.0970071
0.0985782
0.0983184
0.0971483
0.0940188
0.0888297
0.0819352
0.0735177
0.0657463
0.0571149
0.0501195
0.0435651
0.0382551
0.0334619
0.0302229
0.0280117
0.0258488
0.0245075
0.0244435
0.0247552
0.0257156
0.0283213
0.031572
0.0387748
0.0461851
0.0554541
0.0683145
0.0809941
0.0928989
0.103181
0.110899
0.117908
0.11913
0.118655
0.116999
0.112203
0.107413
0.102527
0.0948067
0.0896729
0.0830214
0.0784679
0.075296
0.0722676
0.0704926
0.0695179
0.068291
0.0679982
0.0676543
0.0674172
0.0671146
0.0664398
0.0663528
0.066125
0.065473
0.064454
0.0624151
0.0592635
0.0551571
0.0491622
0.0424707
0.0353313
0.0283631
0.0221579
0.0171166
0.0131221
0.0101798
0.00799893
0.00653626
0.00550629
0.00483528
0.00433146
0.00392963
0.00370386
0.00368885
0.00372317
0.00393941
0.00441202
0.00501568
0.00673789
0.00778117
0.00937111
0.0112154
0.0122412
0.012295
0.012096
0.0115658
0.0101495
0.00868584
0.00674369
0.00543428
0.00398341
0.00317639
0.00257333
0.0022173
0.00217217
0.00220306
0.00228263
0.0024944
0.00305369
0.00371128
0.00500163
0.0077058
0.00968937
0.0134358
0.0235724
0.0298969
0.0444283
0.0822784
0.23656
0.308486
0.323519
0.313407
0.262923
0.233784
0.172506
0.155058
0.129301
0.122491
0.120938
0.120609
0.122224
0.121045
0.123679
0.125405
0.121951
0.123092
0.120466
0.124239
0.125551
0.129703
0.145477
0.142713
0.148265
0.141963
0.126167
0.100901
0.0650861
0.0545869
0.049555
0.0496943
0.0540907
0.0596537
0.0838801
0.0972836
0.117982
0.030377
0.0313321
0.0311609
0.0309714
0.0295985
0.0284374
0.0259327
0.0243078
0.0223855
0.020458
0.0197486
0.0193712
0.019561
0.0199773
0.020881
0.0229533
0.0248211
0.0263152
0.0267083
0.0268651
0.0265949
0.0254363
0.0233342
0.0213614
0.0200616
0.0186197
0.0180534
0.0170612
0.0167403
0.0162454
0.0159718
0.0158884
0.0156833
0.0158135
0.016003
0.0167155
0.0173724
0.0177994
0.0183713
0.0184813
0.0187204
0.0187903
0.0187669
0.0182598
0.0178984
0.0178934
0.0180455
0.0183638
0.0192891
0.0200813
0.0219245
0.0235962
0.0249164
0.026952
0.0285646
0.029544
0.0295239
0.0292255
0.0283773
0.0266504
0.0243819
0.0217862
0.0193952
0.0167854
0.0147863
0.012883
0.0114536
0.010188
0.00922812
0.00880542
0.00820385
0.00781787
0.00775103
0.00780795
0.00806635
0.00861328
0.00949435
0.0111932
0.0133147
0.016083
0.0192727
0.0240593
0.028312
0.0321004
0.0350832
0.0384097
0.0398893
0.0398395
0.0393618
0.038158
0.0356709
0.0335142
0.0309445
0.0286596
0.0264624
0.0245863
0.0231431
0.0220373
0.0211057
0.0207068
0.0204047
0.0202807
0.0201989
0.0200637
0.0199041
0.0197003
0.019112
0.0185801
0.0177563
0.0168245
0.0160734
0.0149498
0.013835
0.0125596
0.0111499
0.00964504
0.00816338
0.00678362
0.00557779
0.00458184
0.00386607
0.0033561
0.00308161
0.00288689
0.00277025
0.00268817
0.00262303
0.00252862
0.00244993
0.00241002
0.00240897
0.00243103
0.00253359
0.00272808
0.00301177
0.00340288
0.00388679
0.00406212
0.00405811
0.003978
0.003751
0.0033322
0.00277739
0.00244721
0.00211183
0.00185717
0.00183048
0.00183134
0.00188643
0.00205542
0.00245458
0.0030239
0.00453976
0.00583591
0.00805763
0.0121506
0.0155839
0.0192055
0.031241
0.0392386
0.0513086
0.0820599
0.222285
0.337072
0.348928
0.344751
0.29307
0.245127
0.192855
0.154242
0.139424
0.118871
0.119347
0.115925
0.123654
0.122429
0.131751
0.130984
0.138873
0.12959
0.135645
0.127936
0.126961
0.13059
0.129657
0.143771
0.145716
0.154293
0.168319
0.157429
0.146991
0.107642
0.0785475
0.0570627
0.0532234
0.053564
0.0554503
0.0628541
0.0744934
0.0856519
0.00561013
0.00587162
0.00586037
0.00583929
0.00557863
0.0053673
0.00488689
0.00462912
0.00432252
0.00402279
0.00385613
0.00373884
0.00373461
0.00376299
0.00388081
0.00437606
0.00487595
0.00536012
0.00552612
0.00561879
0.00548265
0.00504489
0.00440895
0.00389664
0.00348048
0.00316379
0.00302987
0.00294233
0.00294116
0.00295135
0.00300146
0.00308809
0.00311662
0.00317241
0.00320964
0.00336566
0.00353152
0.00371695
0.00388248
0.00395502
0.00405559
0.00407742
0.00407461
0.00393837
0.00377875
0.00374497
0.0037551
0.00380451
0.00393317
0.00419786
0.00457277
0.00512689
0.00545145
0.00609616
0.00668048
0.00711566
0.00719074
0.00714659
0.00697595
0.00660135
0.00597926
0.00547217
0.00478824
0.00427498
0.00375748
0.00335914
0.00304909
0.00274726
0.00257336
0.00247911
0.00235004
0.00228412
0.00227848
0.00229926
0.00238094
0.00250999
0.00278137
0.00316642
0.00359236
0.00458595
0.005211
0.00646149
0.00785801
0.00898744
0.00998542
0.0108769
0.0115819
0.0116799
0.0115784
0.0113125
0.0107664
0.0100606
0.00956139
0.00889331
0.00826643
0.00776644
0.00721874
0.00684688
0.00651508
0.00634102
0.00629679
0.00625588
0.00624075
0.00620871
0.00607381
0.00595238
0.00565501
0.00518804
0.00469178
0.00422625
0.0039197
0.00363737
0.00338504
0.00319839
0.00298671
0.00273567
0.00251228
0.00234459
0.00215617
0.00211767
0.00214441
0.00221665
0.00227706
0.0023899
0.00243748
0.00246573
0.00245343
0.00242238
0.00236566
0.00231584
0.00227636
0.00220662
0.00217956
0.00213499
0.00212397
0.00209175
0.00205849
0.0019942
0.00190448
0.00180723
0.00169309
0.00164006
0.00156191
0.00157045
0.00157316
0.00163444
0.00179889
0.0021171
0.00278002
0.00396517
0.00510387
0.00791627
0.010738
0.0133088
0.0194755
0.0256934
0.0298303
0.0424168
0.0548949
0.0638167
0.0865951
0.19886
0.348406
0.373777
0.372903
0.344259
0.280512
0.235978
0.175941
0.151444
0.125843
0.115154
0.11483
0.113308
0.12403
0.121571
0.140068
0.13662
0.148275
0.139945
0.140813
0.147309
0.139168
0.147764
0.145246
0.14703
0.163045
0.160479
0.179637
0.167802
0.166862
0.146468
0.129947
0.0825312
0.0666502
0.0568235
0.0568766
0.0580988
0.0637917
0.0690923
0.00125754
0.00129165
0.00129458
0.001295
0.00127674
0.00125949
0.00122765
0.00118161
0.00114987
0.00111069
0.00109334
0.00106718
0.00105992
0.00105734
0.00105926
0.0010943
0.00117093
0.00126145
0.00130366
0.00132564
0.00129266
0.00117575
0.00102634
0.000904865
0.000811249
0.000751506
0.000728859
0.000720708
0.00073451
0.000793282
0.000864525
0.000922397
0.000969913
0.000992082
0.00100719
0.00100837
0.00100866
0.00100635
0.00100769
0.00100852
0.00101646
0.00101635
0.00100748
0.000964605
0.000922912
0.000903413
0.000900912
0.000905363
0.000919664
0.000969701
0.00104631
0.00117755
0.00125154
0.00139437
0.00153261
0.00161719
0.00163925
0.0016263
0.00159096
0.00152169
0.00140653
0.00131424
0.00117833
0.00107754
0.000971772
0.000891504
0.000831879
0.000772727
0.000750518
0.00072463
0.000717363
0.000719322
0.000724691
0.000739089
0.000770387
0.000811167
0.000869502
0.000979486
0.00106063
0.00126246
0.00145269
0.0016589
0.00203941
0.00230839
0.002608
0.00283618
0.00302012
0.00306713
0.00304322
0.00296423
0.00284866
0.00266365
0.00253472
0.00236398
0.00218482
0.00206737
0.0019183
0.00181219
0.00172571
0.00168073
0.00168298
0.00168371
0.00168675
0.00168598
0.00165432
0.00161533
0.00155336
0.00141164
0.00128597
0.0011744
0.00108746
0.0010444
0.00104183
0.0010688
0.00113247
0.00121074
0.0013227
0.00149282
0.00161949
0.00181248
0.0021048
0.00240592
0.00265828
0.0029067
0.00319028
0.00331317
0.00331249
0.00327264
0.00314071
0.00298557
0.0027055
0.00251207
0.00225074
0.00210033
0.00190464
0.00175553
0.00169174
0.00161022
0.001578
0.00157732
0.00159658
0.00163644
0.00179037
0.00196377
0.00230079
0.00308548
0.00396431
0.00542636
0.00821954
0.0103878
0.0146561
0.0207685
0.0247216
0.0320662
0.0433429
0.0486574
0.0600325
0.0780082
0.0845806
0.100273
0.172598
0.349934
0.394588
0.394802
0.376745
0.336351
0.282455
0.220321
0.169406
0.143502
0.119684
0.116358
0.114308
0.122216
0.122968
0.129515
0.13313
0.151525
0.14508
0.17079
0.159015
0.165078
0.221405
0.193796
0.337052
0.229375
0.407823
0.248444
0.310064
0.223006
0.18974
0.153899
0.142645
0.114771
0.0979889
0.0693935
0.063363
0.0599346
0.0629271
0.0647186
0.000511791
0.000514122
0.000513308
0.000507984
0.000492679
0.000482118
0.000469875
0.000462206
0.000462179
0.00046239
0.00047114
0.000480756
0.000491185
0.000496721
0.000499778
0.000510812
0.000531661
0.000559005
0.000575292
0.000582373
0.000574254
0.0005309
0.000472232
0.000429391
0.00039654
0.000374062
0.000359424
0.000352663
0.000351871
0.00036568
0.000388732
0.000413828
0.000429023
0.000436837
0.000439674
0.000439419
0.000434772
0.000428163
0.000417526
0.000412352
0.000407843
0.00040408
0.000400223
0.00039138
0.000384233
0.00037492
0.000371641
0.000370471
0.000371097
0.000373076
0.00038482
0.000405952
0.000424988
0.000451265
0.000478395
0.000499403
0.000506314
0.000506519
0.00050145
0.000495181
0.000473116
0.000452893
0.000426899
0.000406061
0.000398753
0.000394619
0.00039482
0.000395918
0.000399045
0.000406382
0.00041032
0.000412844
0.000411489
0.000411509
0.000413287
0.000415778
0.000422118
0.000437887
0.000451615
0.000482106
0.000516954
0.000543563
0.000618044
0.000669862
0.000730892
0.000796434
0.000829308
0.000834806
0.0008289
0.000802627
0.000772569
0.00072779
0.000687037
0.000650262
0.000606492
0.000575003
0.000549038
0.000528119
0.000517133
0.000512354
0.00051251
0.000526811
0.000539962
0.000560694
0.000570833
0.000579763
0.000589753
0.000596937
0.000604317
0.000622313
0.000646838
0.000687854
0.000765943
0.000934937
0.00112267
0.00132357
0.00184959
0.0023411
0.00293741
0.00389929
0.00486162
0.00565251
0.00652345
0.00732281
0.007642
0.00761428
0.00746307
0.00709008
0.0064233
0.00585788
0.00512414
0.00458573
0.00396383
0.00353751
0.00322911
0.00286618
0.00273769
0.00272465
0.0027518
0.0029004
0.00315733
0.00351509
0.00445428
0.00530667
0.00707222
0.00939234
0.0118671
0.0180173
0.0222278
0.0291483
0.0407571
0.0472744
0.057248
0.0749696
0.0826452
0.0921944
0.115034
0.121166
0.13156
0.167459
0.32929
0.408606
0.411552
0.399692
0.381569
0.344346
0.291298
0.216709
0.167965
0.138367
0.118236
0.118523
0.116843
0.126035
0.124329
0.138328
0.136466
0.155449
0.149914
0.16708
0.229514
0.203842
0.402473
0.288664
1.14602
0.625487
1.60646
0.783552
1.31585
0.68944
0.37289
0.19592
0.163636
0.129677
0.122181
0.0992486
0.0880283
0.0698148
0.0691779
0.0676925
0.000189031
0.00020102
0.00020721
0.000218368
0.000227612
0.000237316
0.000245236
0.000251004
0.000252595
0.000253302
0.000252847
0.000251971
0.000251535
0.000249481
0.000248014
0.00024769
0.000248572
0.000255426
0.000264951
0.000269011
0.000271214
0.000270877
0.000271862
0.000289586
0.000316723
0.000338995
0.000345701
0.000344588
0.000319801
0.00028865
0.000263524
0.000246491
0.000235516
0.000228235
0.000223051
0.000220423
0.000219941
0.000223131
0.000227401
0.000237242
0.000244215
0.000251512
0.000261344
0.000269362
0.000276724
0.000282631
0.000285998
0.000287712
0.000287297
0.000280547
0.000272973
0.000267146
0.000264587
0.000264605
0.000264588
0.000265885
0.000267002
0.000268716
0.000273244
0.00027771
0.00028411
0.000300837
0.000313945
0.000340304
0.000373333
0.000420533
0.000456672
0.000497731
0.000532209
0.000542184
0.000540595
0.000533514
0.000507529
0.000490482
0.000475886
0.000462083
0.000455471
0.000450007
0.000449672
0.000450237
0.000453743
0.000455675
0.000458366
0.000459755
0.000456004
0.000453449
0.000447416
0.000438706
0.000432308
0.000417581
0.000404049
0.000392632
0.00038077
0.000375567
0.000374971
0.000376132
0.000380039
0.000390697
0.000399017
0.000416421
0.000433548
0.000456179
0.000473449
0.000504643
0.000531423
0.000563841
0.000622686
0.00068056
0.000768695
0.000949801
0.00113474
0.0014814
0.00204116
0.00255451
0.00364959
0.00490721
0.00672119
0.00868533
0.0110684
0.0138468
0.0158566
0.0180765
0.0197937
0.0202523
0.0201471
0.0195782
0.0187391
0.017179
0.0154001
0.0138482
0.012052
0.0106858
0.00938198
0.00849293
0.00779951
0.00719675
0.00713911
0.00720025
0.00742214
0.00814782
0.00903856
0.010686
0.0134443
0.0162142
0.0229664
0.02772
0.0385412
0.0489639
0.0591352
0.0799802
0.0923405
0.106727
0.131729
0.142493
0.15004
0.172678
0.179567
0.183843
0.200095
0.307767
0.420697
0.429971
0.409078
0.392911
0.396426
0.380802
0.308778
0.227121
0.16816
0.139307
0.126438
0.127202
0.123802
0.130751
0.132006
0.14229
0.159683
0.160422
0.167459
0.188955
0.391526
0.258106
1.18181
0.695064
0.88431
0.577194
0.725935
0.739883
1.29293
1.15149
1.0152
0.390535
0.220368
0.14806
0.137971
0.116828
0.112498
0.0970711
0.0933856
0.0823656
0.000281451
0.000286919
0.00029902
0.0003185
0.000384777
0.000455444
0.000516997
0.000539858
0.000546628
0.000531733
0.000493092
0.000450374
0.000414079
0.000390448
0.000380132
0.000369978
0.000373308
0.000379337
0.000402666
0.000440405
0.000549118
0.000757265
0.00093671
0.00116445
0.0012735
0.00138014
0.00139594
0.00138521
0.00124117
0.001029
0.000849984
0.000694853
0.000595916
0.000530721
0.000503444
0.000495513
0.0004979
0.000537346
0.000588432
0.000671483
0.000757201
0.000831957
0.000922045
0.000969217
0.00101048
0.00102196
0.00102582
0.0010249
0.000989002
0.000932116
0.000845885
0.000796462
0.000725674
0.000676968
0.000653978
0.000647619
0.000658177
0.000675239
0.000735433
0.000806032
0.00089203
0.00112125
0.00124733
0.00149499
0.00175903
0.00198354
0.00221785
0.00239865
0.00249166
0.00249508
0.0024681
0.00240376
0.00224319
0.00209264
0.00193449
0.00177484
0.00166164
0.00154178
0.00145242
0.0013664
0.00127992
0.0012069
0.00113
0.00106187
0.00100077
0.000939642
0.000889998
0.000847045
0.000807504
0.000790785
0.000790034
0.000794823
0.000813145
0.000837605
0.000889153
0.00100081
0.0010625
0.00119509
0.00130279
0.00140438
0.00154433
0.00161541
0.00171293
0.00184008
0.00193916
0.00211563
0.00240351
0.00268563
0.00338893
0.00400039
0.00509444
0.00697058
0.00859315
0.0114896
0.0157619
0.0198176
0.0252847
0.0316543
0.037667
0.0429454
0.0481908
0.0522927
0.0529881
0.0524977
0.051128
0.0474398
0.0435843
0.0387929
0.0345849
0.0311753
0.0271536
0.0246554
0.0224398
0.0205375
0.0192858
0.0188665
0.01906
0.0197757
0.021004
0.0241811
0.0273064
0.0326697
0.0438429
0.0510144
0.0666464
0.0831051
0.103147
0.125226
0.152285
0.175515
0.19894
0.228169
0.237486
0.24551
0.263514
0.264764
0.265075
0.27205
0.32192
0.419492
0.433417
0.402262
0.384412
0.405603
0.435642
0.426179
0.36865
0.253574
0.190228
0.162306
0.147017
0.138182
0.128502
0.136649
0.138325
0.126123
0.143708
0.1836
0.206841
0.273787
0.507087
0.568274
0.872045
0.609662
0.408411
0.497878
0.464347
0.693716
0.383753
1.12026
1.03445
0.720561
0.35561
0.187294
0.166898
0.134373
0.130808
0.115698
0.116684
0.115563
0.00263094
0.00268367
0.00286068
0.00325415
0.00368511
0.00398451
0.00423748
0.00435712
0.00439713
0.00435163
0.00408802
0.00383713
0.00358963
0.00345463
0.00341638
0.00339905
0.00353236
0.0036753
0.00424743
0.00496041
0.00621239
0.00734287
0.00800812
0.00867822
0.00874497
0.00881979
0.00863832
0.00813071
0.00732022
0.00637047
0.00582557
0.00521104
0.00493785
0.00474018
0.00470452
0.00475438
0.00484751
0.00522973
0.00549842
0.00597393
0.00635246
0.00662095
0.00687629
0.00691484
0.00695249
0.00692667
0.00687241
0.00677799
0.00641886
0.00625487
0.00584656
0.00563328
0.00530377
0.00513069
0.00513712
0.00513679
0.00527743
0.00542851
0.0057503
0.00636836
0.00670131
0.00766751
0.00834169
0.00927986
0.0101023
0.0108002
0.0115423
0.0117648
0.0117741
0.0116924
0.01135
0.0108662
0.010153
0.00933763
0.00873733
0.00797678
0.00742788
0.00695513
0.00644777
0.0061439
0.00573175
0.00541658
0.00515025
0.00482519
0.00461733
0.00436076
0.00414114
0.00396314
0.00385098
0.00385092
0.00388546
0.00394423
0.00408542
0.0042447
0.00457109
0.00509119
0.00535615
0.00583519
0.00629874
0.00660472
0.00710834
0.00737587
0.00778264
0.00835715
0.00880347
0.00978291
0.0108667
0.0124603
0.0154209
0.0176246
0.0226363
0.0286508
0.0344241
0.0459363
0.0562563
0.0680819
0.0836145
0.0967771
0.108353
0.120569
0.129247
0.131121
0.130246
0.126706
0.120322
0.11016
0.0998263
0.0896753
0.0807187
0.0720853
0.0648427
0.0600145
0.0555436
0.0516471
0.050975
0.05123
0.0523843
0.0564962
0.061338
0.0708325
0.083634
0.0968995