/*--------------------------------*- C++ -*----------------------------------*\
| =========                 |                                                 |
| \\      /  F ield         | OpenFOAM: The Open Source CFD Toolbox           |
|  \\    /   O peration     | Version:  2.4.0                                 |
|   \\  /    A nd           | Web:      www.OpenFOAM.org                      |
|    \\/     M anipulation  |                                                 |
\*---------------------------------------------------------------------------*/
FoamFile
{
    version     2.0;
    format      ascii;
    class       volScalarField;
    location    "3";
    object      p;
}
// * * * * * * * * * * * * * * * * * * * * * * * * * * * * * * * * * * * * * //

dimensions      [0 2 -2 0 0 0 0];

internalField   nonuniform List<scalar> 
4400
(
-0.0198416
-0.0218451
-0.023518
-0.0223541
-0.0146941
-0.000414504
0.0155625
0.0272416
0.0326031
0.0334412
0.0320366
0.0291765
0.0264819
0.0223461
0.019675
0.0141677
0.0115196
0.00205599
0.000332426
-0.0207694
-0.0198106
-0.0218508
-0.0236916
-0.0227051
-0.0151514
-0.000833574
0.015266
0.027056
0.0324847
0.0333749
0.0319988
0.0291545
0.0265059
0.0223132
0.0197517
0.0142814
0.0114012
0.0028515
-0.00077899
-0.0148565
-0.0197551
-0.0217306
-0.0237664
-0.0230197
-0.0156634
-0.00140631
0.0147744
0.0266975
0.0322396
0.0332539
0.0319011
0.0291487
0.0264541
0.0223511
0.0197857
0.0141927
0.0118415
0.00355352
0.000174762
-0.010233
-0.0197396
-0.0214868
-0.0236662
-0.0232045
-0.0160132
-0.00188111
0.0142496
0.0262457
0.0319112
0.0330942
0.0317547
0.0291607
0.026334
0.0225083
0.0196771
0.0148197
0.0117717
0.00521702
0.00112051
-0.00613318
-0.0197698
-0.0211883
-0.0234098
-0.0232124
-0.0160651
-0.00202705
0.0139037
0.0258335
0.0315872
0.0329257
0.0316209
0.0291438
0.0262622
0.0226159
0.0196782
0.0151926
0.0118983
0.00672246
0.0023594
-0.00270151
-0.0198415
-0.0208568
-0.0230239
-0.0231301
-0.0159185
-0.00186432
0.0137981
0.0255379
0.0313127
0.0327809
0.0315005
0.0291517
0.0261943
0.0227517
0.0197087
0.0155282
0.0122544
0.00782573
0.00392653
0.000465942
-0.019941
-0.0205301
-0.022574
-0.0230107
-0.015669
-0.00149003
0.0138961
0.0253707
0.031114
0.032665
0.0314147
0.0291605
0.0261427
0.0229174
0.0197134
0.016107
0.0126029
0.00903137
0.00566008
0.00301685
-0.0200466
-0.0202507
-0.0221322
-0.0228868
-0.015411
-0.00104753
0.014102
0.0253046
0.0309862
0.0325849
0.0313612
0.0291628
0.0261374
0.0230293
0.0198219
0.0163176
0.0131177
0.0101239
0.00721327
0.0054116
-0.0201336
-0.020048
-0.0217795
-0.0227867
-0.0152102
-0.000669457
0.0143124
0.0252958
0.030916
0.0325375
0.031332
0.0291775
0.0261398
0.0231592
0.0199403
0.0168453
0.0136722
0.011015
0.0088343
0.00761178
-0.0201831
-0.0199417
-0.0215841
-0.0227305
-0.0151024
-0.000453528
0.014441
0.0253039
0.0308877
0.0325156
0.0313277
0.0291917
0.0261696
0.0232649
0.0200948
0.01716
0.0142044
0.0119368
0.0102889
0.00960999
-0.0201832
-0.0199415
-0.0215843
-0.0227299
-0.0151034
-0.000451792
0.0144398
0.0253056
0.0308907
0.0325175
0.0313414
0.029214
0.026212
0.023364
0.0202606
0.0174575
0.0147812
0.0127581
0.0116551
0.0114975
-0.0201337
-0.0200473
-0.0217804
-0.0227847
-0.0152133
-0.000664249
0.0143089
0.0253007
0.0309251
0.0325431
0.0313725
0.0292434
0.0262668
0.0234558
0.0204366
0.0177496
0.0153187
0.0135463
0.012896
0.0131931
-0.0200469
-0.0202497
-0.0221336
-0.0228835
-0.0154158
-0.00103928
0.0140966
0.0253126
0.0309999
0.0325974
0.0314207
0.0292819
0.0263301
0.023542
0.0206178
0.0180205
0.0158354
0.0142787
0.0140125
0.0147567
-0.0199414
-0.0205288
-0.0225757
-0.0230065
-0.0156752
-0.00147938
0.0138893
0.0253817
0.0311302
0.0326873
0.031487
0.0293306
0.0263992
0.0236244
0.0207947
0.0182778
0.0163136
0.0149588
0.0150152
0.0161484
-0.019842
-0.0208554
-0.0230257
-0.0231253
-0.0159254
-0.0018524
0.0137909
0.0255514
0.0313289
0.0328175
0.031572
0.0293897
0.0264718
0.0237032
0.0209646
0.0185172
0.0167509
0.015583
0.0159034
0.0173889
-0.0197703
-0.0211869
-0.0234116
-0.0232073
-0.0160719
-0.00201484
0.0138966
0.0258507
0.0315974
0.0329857
0.0316735
0.0294581
0.0265456
0.0237787
0.0211229
0.0187367
0.0171437
0.0161458
0.0166864
0.0184748
-0.0197401
-0.0214854
-0.023668
-0.0231996
-0.0160193
-0.00186975
0.0142433
0.0262664
0.0319136
0.0331781
0.0317851
0.029533
0.0266182
0.0238496
0.021266
0.0189324
0.0174878
0.0166399
0.0173617
0.0194055
-0.0197555
-0.0217294
-0.0237679
-0.0230155
-0.0156683
-0.00139611
0.0147681
0.0267239
0.0322289
0.0333684
0.0318945
0.0296064
0.0266851
0.0239127
0.0213882
0.0190971
0.0177737
0.0170489
0.0179116
0.0201539
-0.019811
-0.0218497
-0.0236927
-0.0227014
-0.0151554
-0.000824204
0.0152596
0.0270864
0.0324659
0.0335083
0.0319727
0.0296559
0.0267326
0.0239589
0.0214747
0.0192163
0.0179735
0.0173338
0.0182842
0.0206461
-0.019842
-0.0218441
-0.0235189
-0.0223507
-0.0146977
-0.000405322
0.0155561
0.0272732
0.0325836
0.0335776
0.0320132
0.0296788
0.0267517
0.0239832
0.0215074
0.0192718
0.0180484
0.0174399
0.0184054
0.020782
-0.0357412
-0.0803332
1.23453e-05
0.0574683
0.078841
0.0887247
0.0940425
0.0961925
0.0966969
0.0965166
0.0960294
0.0953897
0.0946748
0.0939221
0.0931481
0.0923603
0.0915625
0.0907564
0.0899432
0.0891233
0.0882971
0.0874648
0.0866263
0.0857818
0.0849313
0.0840748
0.0832122
0.0823434
0.0814686
0.0805876
0.0797005
0.0788071
0.0779074
0.0770013
0.076089
0.0751702
0.0742449
0.0733131
0.0723748
0.0714299
0.0704784
0.0695202
0.0685552
0.0675835
0.066605
0.0656195
0.0646272
0.0636278
0.0626215
0.0616081
0.0605875
0.0595598
0.0585249
0.0574827
0.0564331
0.0553762
0.0543119
0.0532401
0.0521608
0.0510738
0.0499793
0.048877
0.047767
0.0466492
0.0455236
0.0443901
0.0432485
0.042099
0.0409414
0.0397756
0.0386017
0.0374195
0.036229
0.0350302
0.0338229
0.0326071
0.0313828
0.0301499
0.0289083
0.027658
0.026399
0.025131
0.0238542
0.0225684
0.0212736
0.0199696
0.0186565
0.0173342
0.0160026
0.0146616
0.0133112
0.0119514
0.0105818
0.00920319
0.00781363
0.00641609
0.00500736
0.00358773
0.00216202
0.000722712
-0.0298399
-0.0589013
0.00443334
0.0574759
0.0782396
0.0877724
0.0932225
0.0956025
0.0962737
0.0962194
0.0958259
0.0952515
0.0945812
0.093859
0.0931058
0.092332
0.0915436
0.0907439
0.0899349
0.0891179
0.0882935
0.0874624
0.0866248
0.0857808
0.0849307
0.0840744
0.0832119
0.0823433
0.0814685
0.0805876
0.0797004
0.078807
0.0779073
0.0770013
0.0760889
0.0751701
0.0742449
0.0733131
0.0723748
0.0714299
0.0704784
0.0695202
0.0685552
0.0675835
0.066605
0.0656195
0.0646272
0.0636278
0.0626215
0.0616081
0.0605875
0.0595598
0.0585249
0.0574827
0.0564331
0.0553762
0.0543119
0.0532401
0.0521608
0.0510738
0.0499793
0.048877
0.047767
0.0466492
0.0455236
0.0443901
0.0432485
0.042099
0.0409414
0.0397756
0.0386017
0.0374195
0.036229
0.0350302
0.0338229
0.0326071
0.0313828
0.0301499
0.0289083
0.027658
0.026399
0.025131
0.0238542
0.0225684
0.0212736
0.0199696
0.0186565
0.0173342
0.0160026
0.0146616
0.0133112
0.0119514
0.0105818
0.00920318
0.00781363
0.00641608
0.00500736
0.00358773
0.00216202
0.000722712
-0.0217451
-0.0414231
0.00891057
0.0575705
0.0777742
0.0869245
0.0924376
0.0950314
0.0958628
0.0959284
0.0956255
0.095115
0.0944887
0.0937966
0.0930638
0.0923039
0.0915249
0.0907315
0.0899267
0.0891124
0.08829
0.0874601
0.0866233
0.0857799
0.08493
0.0840739
0.0832116
0.0823431
0.0814684
0.0805875
0.0797004
0.078807
0.0779073
0.0770013
0.0760889
0.0751701
0.0742449
0.0733131
0.0723748
0.0714299
0.0704784
0.0695202
0.0685552
0.0675835
0.066605
0.0656195
0.0646272
0.0636278
0.0626215
0.0616081
0.0605875
0.0595598
0.0585249
0.0574827
0.0564331
0.0553762
0.0543119
0.0532401
0.0521608
0.0510738
0.0499793
0.048877
0.047767
0.0466492
0.0455236
0.0443901
0.0432485
0.042099
0.0409414
0.0397756
0.0386017
0.0374195
0.036229
0.0350302
0.0338229
0.0326071
0.0313828
0.0301499
0.0289083
0.027658
0.026399
0.025131
0.0238542
0.0225684
0.0212736
0.0199696
0.0186565
0.0173342
0.0160026
0.0146616
0.0133112
0.0119514
0.0105818
0.00920318
0.00781363
0.00641608
0.00500736
0.00358773
0.00216201
0.000722712
-0.0148114
-0.0278128
0.0132509
0.0576449
0.0774027
0.0861954
0.0916989
0.094481
0.0954655
0.095645
0.0954293
0.0949812
0.0943979
0.0937352
0.0930226
0.0922763
0.0915065
0.0907192
0.0899186
0.0891071
0.0882865
0.0874578
0.0866218
0.0857789
0.0849294
0.0840735
0.0832114
0.0823429
0.0814683
0.0805874
0.0797003
0.078807
0.0779073
0.0770013
0.0760889
0.0751701
0.0742449
0.0733131
0.0723748
0.0714299
0.0704784
0.0695202
0.0685552
0.0675835
0.066605
0.0656195
0.0646272
0.0636278
0.0626215
0.0616081
0.0605875
0.0595598
0.0585249
0.0574827
0.0564331
0.0553762
0.0543119
0.0532401
0.0521608
0.0510738
0.0499793
0.048877
0.047767
0.0466492
0.0455236
0.0443901
0.0432485
0.042099
0.0409414
0.0397756
0.0386017
0.0374195
0.036229
0.0350302
0.0338229
0.0326071
0.0313828
0.0301499
0.0289083
0.027658
0.026399
0.025131
0.0238542
0.0225684
0.0212736
0.0199696
0.0186565
0.0173342
0.0160026
0.0146616
0.0133112
0.0119514
0.0105818
0.00920318
0.00781363
0.00641608
0.00500736
0.00358773
0.00216201
0.000722712
-0.00835445
-0.0165283
0.0174239
0.0575879
0.0769571
0.0855321
0.0910098
0.0939564
0.0950848
0.0953711
0.0952384
0.0948506
0.0943091
0.0936752
0.0929822
0.0922493
0.0914885
0.0907073
0.0899107
0.0891019
0.0882831
0.0874556
0.0866203
0.085778
0.0849288
0.0840732
0.0832111
0.0823428
0.0814682
0.0805874
0.0797003
0.0788069
0.0779073
0.0770013
0.0760889
0.0751701
0.0742449
0.0733131
0.0723748
0.0714299
0.0704784
0.0695202
0.0685552
0.0675835
0.066605
0.0656195
0.0646272
0.0636278
0.0626215
0.0616081
0.0605875
0.0595598
0.0585249
0.0574827
0.0564331
0.0553762
0.0543119
0.0532401
0.0521608
0.0510738
0.0499793
0.048877
0.047767
0.0466492
0.0455236
0.0443901
0.0432485
0.042099
0.0409414
0.0397756
0.0386017
0.0374195
0.036229
0.0350302
0.0338229
0.0326071
0.0313828
0.0301499
0.0289083
0.027658
0.026399
0.025131
0.0238542
0.0225684
0.0212736
0.0199696
0.0186565
0.0173342
0.0160026
0.0146616
0.0133112
0.0119514
0.0105818
0.00920318
0.00781363
0.00641608
0.00500736
0.00358773
0.00216201
0.000722712
-0.00296209
-0.00761144
0.0211726
0.0576082
0.0764973
0.0848907
0.0903418
0.0934481
0.0947197
0.0951079
0.0950538
0.0947241
0.094223
0.0936169
0.092943
0.0922231
0.091471
0.0906957
0.089903
0.0890969
0.0882798
0.0874534
0.0866189
0.085777
0.0849282
0.0840728
0.0832109
0.0823426
0.0814681
0.0805873
0.0797003
0.0788069
0.0779073
0.0770013
0.0760889
0.0751701
0.0742449
0.0733131
0.0723748
0.0714299
0.0704784
0.0695202
0.0685552
0.0675835
0.066605
0.0656195
0.0646272
0.0636278
0.0626215
0.0616081
0.0605875
0.0595598
0.0585249
0.0574827
0.0564331
0.0553762
0.0543119
0.0532401
0.0521608
0.0510738
0.0499793
0.048877
0.047767
0.0466492
0.0455236
0.0443901
0.0432485
0.042099
0.0409414
0.0397756
0.0386017
0.0374195
0.036229
0.0350302
0.0338229
0.0326071
0.0313828
0.0301499
0.0289083
0.027658
0.026399
0.025131
0.0238542
0.0225684
0.0212736
0.0199696
0.0186565
0.0173342
0.0160026
0.0146616
0.0133112
0.0119514
0.0105818
0.00920318
0.00781364
0.00641608
0.00500736
0.00358773
0.00216201
0.000722712
0.00172372
-3.9748e-05
0.0247164
0.0577671
0.0761348
0.0843384
0.0897149
0.0929554
0.0943689
0.094856
0.0948766
0.0946022
0.09414
0.0935607
0.0929051
0.0921977
0.091454
0.0906844
0.0898956
0.089092
0.0882766
0.0874513
0.0866176
0.0857762
0.0849276
0.0840724
0.0832106
0.0823425
0.081468
0.0805873
0.0797002
0.0788069
0.0779073
0.0770013
0.0760889
0.0751701
0.0742449
0.0733131
0.0723748
0.0714299
0.0704784
0.0695202
0.0685552
0.0675835
0.066605
0.0656195
0.0646272
0.0636278
0.0626215
0.0616081
0.0605875
0.0595598
0.0585249
0.0574827
0.0564331
0.0553762
0.0543119
0.0532401
0.0521608
0.0510738
0.0499793
0.048877
0.047767
0.0466492
0.0455236
0.0443901
0.0432485
0.042099
0.0409414
0.0397756
0.0386017
0.0374195
0.036229
0.0350302
0.0338229
0.0326071
0.0313828
0.0301499
0.0289083
0.027658
0.026399
0.025131
0.0238542
0.0225684
0.0212736
0.0199696
0.0186565
0.0173342
0.0160026
0.0146616
0.0133112
0.0119514
0.0105818
0.00920318
0.00781364
0.00641608
0.00500736
0.00358774
0.00216201
0.000722712
0.00579583
0.00621192
0.0276483
0.0577567
0.0757718
0.0838988
0.089175
0.0924991
0.0940372
0.0946168
0.0947074
0.0944855
0.0940605
0.0935069
0.0928689
0.0921734
0.0914378
0.0906737
0.0898885
0.0890873
0.0882735
0.0874493
0.0866163
0.0857753
0.0849271
0.084072
0.0832104
0.0823423
0.0814679
0.0805872
0.0797002
0.0788069
0.0779072
0.0770013
0.0760889
0.0751701
0.0742449
0.0733131
0.0723748
0.0714299
0.0704784
0.0695202
0.0685552
0.0675835
0.066605
0.0656195
0.0646272
0.0636278
0.0626215
0.0616081
0.0605875
0.0595598
0.0585249
0.0574827
0.0564331
0.0553762
0.0543119
0.0532401
0.0521608
0.0510738
0.0499793
0.048877
0.047767
0.0466492
0.0455236
0.0443901
0.0432485
0.042099
0.0409414
0.0397756
0.0386017
0.0374195
0.036229
0.0350302
0.0338229
0.0326071
0.0313828
0.0301499
0.0289083
0.027658
0.026399
0.025131
0.0238542
0.0225684
0.0212736
0.0199696
0.0186565
0.0173342
0.0160026
0.0146616
0.0133112
0.0119514
0.0105818
0.00920318
0.00781364
0.00641608
0.00500736
0.00358774
0.00216201
0.000722712
0.00914739
0.0114964
0.0304654
0.0577727
0.075264
0.0833933
0.0886384
0.0920572
0.0937218
0.0943913
0.0945473
0.0943748
0.093985
0.0934557
0.0928344
0.0921503
0.0914224
0.0906634
0.0898817
0.0890828
0.0882706
0.0874474
0.086615
0.0857745
0.0849266
0.0840717
0.0832102
0.0823422
0.0814678
0.0805871
0.0797001
0.0788069
0.0779072
0.0770013
0.0760889
0.0751701
0.0742449
0.0733131
0.0723748
0.0714299
0.0704784
0.0695202
0.0685552
0.0675835
0.066605
0.0656195
0.0646272
0.0636278
0.0626215
0.0616081
0.0605875
0.0595598
0.0585249
0.0574827
0.0564331
0.0553762
0.0543119
0.0532401
0.0521608
0.0510738
0.0499793
0.048877
0.047767
0.0466492
0.0455236
0.0443901
0.0432485
0.042099
0.0409414
0.0397756
0.0386017
0.0374195
0.036229
0.0350302
0.0338229
0.0326071
0.0313828
0.0301499
0.0289083
0.027658
0.026399
0.025131
0.0238542
0.0225684
0.0212736
0.0199696
0.0186565
0.0173342
0.0160026
0.0146616
0.0133112
0.0119514
0.0105818
0.00920318
0.00781364
0.00641608
0.00500736
0.00358774
0.00216201
0.000722712
0.0121569
0.015865
0.0327973
0.0578079
0.0748856
0.0830189
0.0881819
0.0916475
0.0934241
0.0941794
0.0943968
0.0942704
0.0939138
0.0934074
0.0928019
0.0921285
0.0914079
0.0906538
0.0898753
0.0890786
0.0882678
0.0874456
0.0866138
0.0857737
0.0849261
0.0840714
0.08321
0.0823421
0.0814677
0.0805871
0.0797001
0.0788068
0.0779072
0.0770012
0.0760889
0.0751701
0.0742449
0.0733131
0.0723748
0.0714299
0.0704784
0.0695202
0.0685552
0.0675835
0.066605
0.0656195
0.0646272
0.0636278
0.0626215
0.0616081
0.0605875
0.0595598
0.0585249
0.0574827
0.0564331
0.0553762
0.0543119
0.0532401
0.0521608
0.0510738
0.0499793
0.048877
0.047767
0.0466492
0.0455236
0.0443901
0.0432485
0.042099
0.0409414
0.0397756
0.0386017
0.0374195
0.036229
0.0350302
0.0338229
0.0326071
0.0313828
0.0301499
0.0289083
0.027658
0.026399
0.025131
0.0238542
0.0225684
0.0212736
0.0199696
0.0186565
0.0173342
0.0160026
0.0146616
0.0133112
0.0119514
0.0105818
0.00920318
0.00781364
0.00641608
0.00500736
0.00358774
0.00216201
0.000722713
0.014624
0.0195271
0.0349471
0.0577706
0.0743483
0.082593
0.0877481
0.0912627
0.0931451
0.0939823
0.0942568
0.0941731
0.0938473
0.0933624
0.0927715
0.0921082
0.0913944
0.0906448
0.0898694
0.0890747
0.0882652
0.0874439
0.0866128
0.085773
0.0849256
0.0840711
0.0832098
0.0823419
0.0814677
0.080587
0.0797001
0.0788068
0.0779072
0.0770012
0.0760889
0.0751701
0.0742449
0.0733131
0.0723748
0.0714299
0.0704784
0.0695202
0.0685552
0.0675835
0.066605
0.0656195
0.0646272
0.0636278
0.0626215
0.0616081
0.0605875
0.0595598
0.0585249
0.0574827
0.0564331
0.0553762
0.0543119
0.0532401
0.0521608
0.0510738
0.0499793
0.048877
0.047767
0.0466492
0.0455236
0.0443901
0.0432485
0.042099
0.0409414
0.0397756
0.0386017
0.0374195
0.036229
0.0350302
0.0338229
0.0326071
0.0313828
0.0301499
0.0289083
0.027658
0.026399
0.025131
0.0238542
0.0225684
0.0212736
0.0199696
0.0186565
0.0173342
0.0160026
0.0146616
0.0133112
0.0119514
0.0105818
0.00920318
0.00781364
0.00641608
0.00500736
0.00358775
0.002162
0.000722713
0.0168254
0.0225451
0.0367179
0.0577205
0.0738472
0.082221
0.0873683
0.0909096
0.0928856
0.0938004
0.0941278
0.0940832
0.0937859
0.0933208
0.0927435
0.0920894
0.0913818
0.0906365
0.0898639
0.0890711
0.0882629
0.0874424
0.0866118
0.0857724
0.0849252
0.0840708
0.0832096
0.0823418
0.0814676
0.080587
0.0797001
0.0788068
0.0779072
0.0770012
0.0760889
0.0751701
0.0742449
0.0733131
0.0723748
0.0714299
0.0704784
0.0695202
0.0685552
0.0675835
0.066605
0.0656195
0.0646272
0.0636278
0.0626215
0.0616081
0.0605875
0.0595598
0.0585249
0.0574827
0.0564331
0.0553762
0.0543119
0.0532401
0.0521608
0.0510738
0.0499793
0.048877
0.047767
0.0466492
0.0455236
0.0443901
0.0432485
0.042099
0.0409414
0.0397756
0.0386017
0.0374195
0.036229
0.0350302
0.0338229
0.0326071
0.0313828
0.0301499
0.0289083
0.027658
0.026399
0.025131
0.0238542
0.0225684
0.0212736
0.0199696
0.0186565
0.0173342
0.0160026
0.0146616
0.0133112
0.0119514
0.0105818
0.00920318
0.00781364
0.00641608
0.00500736
0.00358775
0.002162
0.000722714
0.0186848
0.0250299
0.0382576
0.0576162
0.0732786
0.0818328
0.0870172
0.0905846
0.0926459
0.0936342
0.0940103
0.0940013
0.0937299
0.0932829
0.092718
0.0920723
0.0913705
0.090629
0.0898589
0.0890678
0.0882607
0.087441
0.0866108
0.0857718
0.0849248
0.0840706
0.0832095
0.0823417
0.0814675
0.080587
0.0797
0.0788068
0.0779072
0.0770012
0.0760889
0.0751701
0.0742449
0.0733131
0.0723748
0.0714299
0.0704784
0.0695202
0.0685552
0.0675835
0.066605
0.0656195
0.0646272
0.0636278
0.0626215
0.0616081
0.0605875
0.0595598
0.0585249
0.0574827
0.0564331
0.0553762
0.0543119
0.0532401
0.0521608
0.0510738
0.0499793
0.048877
0.047767
0.0466492
0.0455236
0.0443901
0.0432485
0.042099
0.0409414
0.0397756
0.0386017
0.0374195
0.036229
0.0350302
0.0338229
0.0326071
0.0313828
0.0301499
0.0289083
0.027658
0.026399
0.025131
0.0238542
0.0225684
0.0212736
0.0199696
0.0186565
0.0173342
0.0160026
0.0146616
0.0133112
0.0119514
0.0105818
0.00920318
0.00781364
0.00641608
0.00500736
0.00358775
0.002162
0.000722715
0.0203017
0.0270643
0.0394961
0.0574414
0.0726896
0.0814579
0.0867041
0.0902915
0.0924277
0.0934842
0.0939049
0.0939277
0.0936797
0.0932489
0.0926951
0.092057
0.0913603
0.0906222
0.0898545
0.0890649
0.0882588
0.0874397
0.08661
0.0857713
0.0849245
0.0840704
0.0832093
0.0823416
0.0814675
0.0805869
0.0797
0.0788068
0.0779072
0.0770012
0.0760889
0.0751701
0.0742449
0.0733131
0.0723748
0.0714299
0.0704784
0.0695202
0.0685552
0.0675835
0.066605
0.0656195
0.0646272
0.0636278
0.0626215
0.0616081
0.0605875
0.0595598
0.0585249
0.0574827
0.0564331
0.0553762
0.0543119
0.0532401
0.0521608
0.0510738
0.0499793
0.048877
0.047767
0.0466492
0.0455236
0.0443901
0.0432485
0.042099
0.0409414
0.0397756
0.0386017
0.0374195
0.036229
0.0350302
0.0338229
0.0326071
0.0313828
0.0301499
0.0289083
0.027658
0.026399
0.025131
0.0238542
0.0225684
0.0212736
0.0199696
0.0186565
0.0173342
0.0160026
0.0146616
0.0133112
0.0119514
0.0105818
0.00920318
0.00781364
0.00641608
0.00500736
0.00358776
0.002162
0.000722716
0.0216842
0.0287038
0.0404716
0.0571846
0.0720677
0.0810826
0.0864204
0.090029
0.0922318
0.0933511
0.0938119
0.0938628
0.0936353
0.0932189
0.0926749
0.0920435
0.0913513
0.0906163
0.0898506
0.0890624
0.0882572
0.0874387
0.0866093
0.0857708
0.0849242
0.0840702
0.0832092
0.0823416
0.0814674
0.0805869
0.0797
0.0788068
0.0779072
0.0770012
0.0760889
0.0751701
0.0742449
0.0733131
0.0723748
0.0714299
0.0704784
0.0695202
0.0685552
0.0675835
0.066605
0.0656195
0.0646272
0.0636278
0.0626215
0.0616081
0.0605875
0.0595598
0.0585249
0.0574827
0.0564331
0.0553762
0.0543119
0.0532401
0.0521608
0.0510738
0.0499793
0.048877
0.047767
0.0466492
0.0455236
0.0443901
0.0432485
0.042099
0.0409414
0.0397756
0.0386017
0.0374195
0.036229
0.0350302
0.0338229
0.0326071
0.0313828
0.0301499
0.0289083
0.027658
0.026399
0.025131
0.0238542
0.0225684
0.0212736
0.0199696
0.0186565
0.0173342
0.0160026
0.0146616
0.0133112
0.0119514
0.0105818
0.00920318
0.00781365
0.00641607
0.00500736
0.00358776
0.002162
0.000722717
0.0228618
0.0300086
0.0411754
0.0568244
0.071421
0.0807145
0.0861677
0.0897988
0.0920596
0.0932355
0.0937318
0.0938069
0.0935972
0.0931932
0.0926577
0.092032
0.0913437
0.0906112
0.0898472
0.0890602
0.0882557
0.0874377
0.0866087
0.0857704
0.084924
0.08407
0.0832091
0.0823415
0.0814674
0.0805869
0.0797
0.0788067
0.0779072
0.0770012
0.0760889
0.0751701
0.0742449
0.0733131
0.0723748
0.0714299
0.0704784
0.0695202
0.0685552
0.0675835
0.066605
0.0656195
0.0646272
0.0636278
0.0626215
0.0616081
0.0605875
0.0595598
0.0585249
0.0574827
0.0564331
0.0553762
0.0543119
0.0532401
0.0521608
0.0510738
0.0499793
0.048877
0.047767
0.0466492
0.0455236
0.0443901
0.0432485
0.042099
0.0409414
0.0397756
0.0386017
0.0374195
0.036229
0.0350302
0.0338229
0.0326071
0.0313828
0.0301499
0.0289083
0.027658
0.026399
0.025131
0.0238542
0.0225684
0.0212736
0.0199696
0.0186565
0.0173342
0.0160026
0.0146616
0.0133112
0.0119514
0.0105818
0.00920317
0.00781365
0.00641607
0.00500736
0.00358776
0.002162
0.000722718
0.0238462
0.0310159
0.041622
0.0563642
0.0707652
0.0803624
0.0859485
0.0896035
0.0919134
0.0931386
0.0936653
0.0937606
0.0935656
0.093172
0.0926434
0.0920225
0.0913374
0.0906071
0.0898445
0.0890584
0.0882546
0.087437
0.0866082
0.0857701
0.0849238
0.0840699
0.083209
0.0823415
0.0814674
0.0805868
0.0797
0.0788067
0.0779072
0.0770012
0.0760889
0.0751701
0.0742449
0.0733131
0.0723748
0.0714299
0.0704784
0.0695202
0.0685552
0.0675835
0.066605
0.0656195
0.0646272
0.0636278
0.0626215
0.0616081
0.0605875
0.0595598
0.0585249
0.0574827
0.0564331
0.0553762
0.0543119
0.0532401
0.0521608
0.0510738
0.0499793
0.048877
0.047767
0.0466492
0.0455236
0.0443901
0.0432485
0.042099
0.0409414
0.0397756
0.0386017
0.0374195
0.036229
0.0350302
0.0338229
0.0326071
0.0313828
0.0301499
0.0289083
0.027658
0.026399
0.025131
0.0238542
0.0225684
0.0212736
0.0199696
0.0186565
0.0173342
0.0160026
0.0146616
0.0133112
0.0119514
0.0105818
0.00920317
0.00781365
0.00641607
0.00500736
0.00358777
0.00216199
0.00072272
0.024614
0.0317306
0.0418359
0.0558517
0.0701473
0.0800498
0.0857734
0.0894511
0.0917986
0.0930632
0.0936141
0.0937249
0.0935412
0.0931556
0.0926325
0.0920152
0.0913326
0.0906039
0.0898424
0.089057
0.0882537
0.0874364
0.0866079
0.0857699
0.0849236
0.0840698
0.083209
0.0823414
0.0814673
0.0805868
0.0796999
0.0788067
0.0779072
0.0770012
0.0760889
0.0751701
0.0742449
0.0733131
0.0723748
0.0714299
0.0704784
0.0695202
0.0685552
0.0675835
0.066605
0.0656195
0.0646272
0.0636278
0.0626215
0.0616081
0.0605875
0.0595598
0.0585249
0.0574827
0.0564331
0.0553762
0.0543119
0.0532401
0.0521608
0.0510738
0.0499793
0.048877
0.047767
0.0466492
0.0455236
0.0443901
0.0432485
0.042099
0.0409414
0.0397756
0.0386017
0.0374195
0.036229
0.0350302
0.0338229
0.0326071
0.0313828
0.0301499
0.0289083
0.027658
0.026399
0.025131
0.0238542
0.0225684
0.0212736
0.0199696
0.0186565
0.0173342
0.0160026
0.0146616
0.0133112
0.0119514
0.0105818
0.00920317
0.00781365
0.00641607
0.00500736
0.00358779
0.00216199
0.000722722
0.0250906
0.0321049
0.0418513
0.0554129
0.0696754
0.0798212
0.0856582
0.0893536
0.0917233
0.093014
0.0935809
0.0937017
0.0935254
0.093145
0.0926254
0.0920105
0.0913295
0.0906019
0.0898411
0.0890562
0.0882531
0.0874361
0.0866077
0.0857697
0.0849235
0.0840697
0.0832089
0.0823414
0.0814673
0.0805868
0.0796999
0.0788067
0.0779071
0.0770012
0.0760889
0.0751701
0.0742449
0.0733131
0.0723748
0.0714299
0.0704784
0.0695202
0.0685552
0.0675835
0.066605
0.0656195
0.0646272
0.0636278
0.0626215
0.0616081
0.0605875
0.0595598
0.0585249
0.0574827
0.0564331
0.0553762
0.0543119
0.0532401
0.0521608
0.0510738
0.0499793
0.048877
0.047767
0.0466492
0.0455236
0.0443901
0.0432485
0.042099
0.0409414
0.0397756
0.0386017
0.0374195
0.036229
0.0350302
0.0338229
0.0326071
0.0313828
0.0301499
0.0289083
0.027658
0.026399
0.025131
0.0238542
0.0225684
0.0212736
0.0199696
0.0186565
0.0173342
0.0160026
0.0146616
0.0133112
0.0119514
0.0105818
0.00920317
0.00781366
0.00641606
0.00500736
0.00358779
0.00216199
0.000722722
0.0251846
0.0320937
0.0417053
0.0551667
0.0694552
0.0797044
0.0856023
0.08931
0.091688
0.0929901
0.0935638
0.0936887
0.0935166
0.0931391
0.0926215
0.0920078
0.0913277
0.0906009
0.0898405
0.0890558
0.0882529
0.0874359
0.0866075
0.0857697
0.0849235
0.0840697
0.0832089
0.0823414
0.0814673
0.0805868
0.0796999
0.0788067
0.0779071
0.0770012
0.0760889
0.0751701
0.0742449
0.0733131
0.0723748
0.0714299
0.0704784
0.0695202
0.0685552
0.0675835
0.066605
0.0656195
0.0646272
0.0636278
0.0626215
0.0616081
0.0605875
0.0595598
0.0585249
0.0574827
0.0564331
0.0553762
0.0543119
0.0532401
0.0521608
0.0510738
0.0499793
0.048877
0.047767
0.0466492
0.0455236
0.0443901
0.0432485
0.042099
0.0409414
0.0397756
0.0386017
0.0374195
0.036229
0.0350302
0.0338229
0.0326071
0.0313828
0.0301499
0.0289083
0.027658
0.026399
0.025131
0.0238542
0.0225684
0.0212736
0.0199696
0.0186565
0.0173342
0.0160026
0.0146616
0.0133112
0.0119514
0.0105818
0.00920316
0.00781366
0.00641606
0.00500735
0.00358782
0.00216198
0.000722701
-0.00562807
0.00415049
0.0407394
0.0774623
0.09653
0.105067
0.106524
0.105096
0.102909
0.100774
0.0989119
0.0973306
0.0959777
0.0947941
0.0937298
0.0927472
0.091819
0.0909261
0.0900549
0.0891966
0.0883451
0.0874961
0.0866467
0.085795
0.0849398
0.0840802
0.0832157
0.0823457
0.08147
0.0805885
0.079701
0.0788074
0.0779076
0.0770015
0.076089
0.0751702
0.0742449
0.0733132
0.0723749
0.07143
0.0704784
0.0695202
0.0685552
0.0675835
0.066605
0.0656195
0.0646272
0.0636278
0.0626215
0.0616081
0.0605875
0.0595598
0.0585249
0.0574827
0.0564331
0.0553762
0.0543119
0.0532401
0.0521608
0.0510738
0.0499793
0.048877
0.047767
0.0466492
0.0455236
0.0443901
0.0432485
0.042099
0.0409414
0.0397756
0.0386017
0.0374195
0.036229
0.0350302
0.0338229
0.0326071
0.0313828
0.0301499
0.0289083
0.027658
0.026399
0.025131
0.0238542
0.0225684
0.0212736
0.0199696
0.0186565
0.0173342
0.0160026
0.0146616
0.0133112
0.0119514
0.0105818
0.00920317
0.00781366
0.00641606
0.00500734
0.00358782
0.00216198
0.000722702
-0.00612066
0.0031501
0.0402157
0.0772487
0.0964468
0.104984
0.106439
0.105021
0.102854
0.100737
0.0988875
0.0973149
0.0959677
0.0947877
0.0937257
0.0927446
0.0918173
0.0909249
0.0900542
0.0891962
0.0883448
0.0874959
0.0866465
0.0857949
0.0849398
0.0840802
0.0832156
0.0823457
0.08147
0.0805885
0.079701
0.0788074
0.0779076
0.0770015
0.076089
0.0751702
0.0742449
0.0733132
0.0723749
0.07143
0.0704784
0.0695202
0.0685552
0.0675835
0.066605
0.0656195
0.0646272
0.0636278
0.0626215
0.0616081
0.0605875
0.0595598
0.0585249
0.0574827
0.0564331
0.0553762
0.0543119
0.0532401
0.0521608
0.0510738
0.0499793
0.048877
0.047767
0.0466492
0.0455236
0.0443901
0.0432485
0.042099
0.0409414
0.0397756
0.0386017
0.0374195
0.036229
0.0350302
0.0338229
0.0326071
0.0313828
0.0301499
0.0289083
0.027658
0.026399
0.025131
0.0238542
0.0225684
0.0212736
0.0199696
0.0186565
0.0173342
0.0160026
0.0146616
0.0133112
0.0119514
0.0105818
0.00920317
0.00781365
0.00641607
0.00500735
0.0035878
0.00216199
0.000722722
-0.00765812
0.000976999
0.0391719
0.0769331
0.0963191
0.104867
0.10631
0.104903
0.102763
0.100673
0.0988452
0.0972871
0.0959496
0.0947759
0.0937181
0.0927396
0.0918141
0.0909228
0.0900528
0.0891953
0.0883443
0.0874955
0.0866463
0.0857948
0.0849397
0.0840801
0.0832156
0.0823457
0.08147
0.0805885
0.079701
0.0788074
0.0779076
0.0770015
0.076089
0.0751702
0.0742449
0.0733132
0.0723749
0.07143
0.0704784
0.0695202
0.0685552
0.0675835
0.066605
0.0656195
0.0646272
0.0636278
0.0626215
0.0616081
0.0605875
0.0595598
0.0585249
0.0574827
0.0564331
0.0553762
0.0543119
0.0532401
0.0521608
0.0510738
0.0499793
0.048877
0.047767
0.0466492
0.0455236
0.0443901
0.0432485
0.042099
0.0409414
0.0397756
0.0386017
0.0374195
0.036229
0.0350302
0.0338229
0.0326071
0.0313828
0.0301499
0.0289083
0.027658
0.026399
0.025131
0.0238542
0.0225684
0.0212736
0.0199696
0.0186565
0.0173342
0.0160026
0.0146616
0.0133112
0.0119514
0.0105818
0.00920317
0.00781365
0.00641607
0.00500735
0.00358779
0.00216199
0.000722723
-0.0103073
-0.00253113
0.0374062
0.0764043
0.0960891
0.104687
0.106122
0.104737
0.102636
0.100583
0.0987838
0.0972463
0.0959226
0.0947581
0.0937064
0.092732
0.0918091
0.0909195
0.0900507
0.089194
0.0883434
0.087495
0.086646
0.0857946
0.0849395
0.08408
0.0832155
0.0823456
0.08147
0.0805885
0.079701
0.0788074
0.0779076
0.0770015
0.076089
0.0751702
0.0742449
0.0733132
0.0723749
0.07143
0.0704784
0.0695202
0.0685552
0.0675835
0.066605
0.0656195
0.0646272
0.0636278
0.0626215
0.0616081
0.0605875
0.0595598
0.0585249
0.0574827
0.0564331
0.0553762
0.0543119
0.0532401
0.0521608
0.0510738
0.0499793
0.048877
0.047767
0.0466492
0.0455236
0.0443901
0.0432485
0.042099
0.0409414
0.0397756
0.0386017
0.0374195
0.036229
0.0350302
0.0338229
0.0326071
0.0313828
0.0301499
0.0289083
0.027658
0.026399
0.025131
0.0238542
0.0225684
0.0212736
0.0199696
0.0186565
0.0173342
0.0160026
0.0146616
0.0133112
0.0119514
0.0105818
0.00920317
0.00781365
0.00641607
0.00500736
0.00358777
0.002162
0.000722721
-0.0141973
-0.00759195
0.0347301
0.0755841
0.0957389
0.104438
0.105879
0.104528
0.102477
0.10047
0.0987066
0.0971945
0.0958882
0.0947354
0.0936914
0.0927221
0.0918026
0.0909153
0.090048
0.0891922
0.0883422
0.0874942
0.0866455
0.0857942
0.0849393
0.0840799
0.0832155
0.0823456
0.08147
0.0805885
0.079701
0.0788074
0.0779076
0.0770015
0.076089
0.0751702
0.0742449
0.0733132
0.0723749
0.07143
0.0704784
0.0695202
0.0685552
0.0675835
0.066605
0.0656195
0.0646272
0.0636278
0.0626215
0.0616081
0.0605875
0.0595598
0.0585249
0.0574827
0.0564331
0.0553762
0.0543119
0.0532401
0.0521608
0.0510738
0.0499793
0.048877
0.047767
0.0466492
0.0455236
0.0443901
0.0432485
0.042099
0.0409414
0.0397756
0.0386017
0.0374195
0.036229
0.0350302
0.0338229
0.0326071
0.0313828
0.0301499
0.0289083
0.027658
0.026399
0.025131
0.0238542
0.0225684
0.0212736
0.0199696
0.0186565
0.0173342
0.0160026
0.0146616
0.0133112
0.0119514
0.0105818
0.00920318
0.00781365
0.00641607
0.00500736
0.00358777
0.002162
0.000722719
-0.0195545
-0.0144924
0.0308544
0.0743929
0.0952452
0.104108
0.105578
0.104277
0.102288
0.100337
0.098615
0.0971328
0.095847