/*--------------------------------*- C++ -*----------------------------------*\
| =========                 |                                                 |
| \\      /  F ield         | OpenFOAM: The Open Source CFD Toolbox           |
|  \\    /   O peration     | Version:  2.4.0                                 |
|   \\  /    A nd           | Web:      www.OpenFOAM.org                      |
|    \\/     M anipulation  |                                                 |
\*---------------------------------------------------------------------------*/
FoamFile
{
    version     2.0;
    format      ascii;
    class       volScalarField;
    location    "1.15";
    object      k;
}
// * * * * * * * * * * * * * * * * * * * * * * * * * * * * * * * * * * * * * //

dimensions      [0 2 -2 0 0 0 0];

internalField   nonuniform List<scalar> 
8800
(
8.11146
10.2769
8.78295
6.84422
5.67652
5.01094
4.48831
4.18163
3.87251
3.71807
3.48723
3.42088
3.24675
3.20897
3.05189
3.03138
2.90201
2.87134
2.82069
2.6438
1.39112
4.36318
5.30973
5.29616
5.10672
4.85754
4.52965
4.33269
4.0718
3.93899
3.71234
3.64068
3.47291
3.41896
3.28665
3.25073
3.14439
3.10545
3.01123
3.00929
0.0833524
0.746755
1.53877
1.9708
2.24608
2.46539
2.55076
2.62262
2.61199
2.60861
2.57944
2.55904
2.50786
2.48769
2.45001
2.41677
2.39048
2.35992
2.31055
2.29253
0.00328459
0.0712259
0.240011
0.437632
0.580245
0.708283
0.82717
0.941734
1.01944
1.08576
1.17344
1.20745
1.26682
1.29246
1.34783
1.35941
1.40188
1.40673
1.42239
1.41458
0.000119096
0.00506728
0.0206759
0.0513602
0.0944003
0.120588
0.16313
0.204984
0.246305
0.27223
0.329598
0.351839
0.396695
0.419404
0.469157
0.487309
0.533926
0.552037
0.590811
0.606358
2.55532e-05
0.000324782
0.00138478
0.0035503
0.00882682
0.0122209
0.0183835
0.0257217
0.0337634
0.0395495
0.0544402
0.0618354
0.0738225
0.0837953
0.0985625
0.105713
0.119063
0.1345
0.143284
0.162324
2.20291e-05
4.53311e-05
0.000116161
0.000250978
0.000605937
0.000922607
0.00124769
0.00209018
0.00255154
0.00336985
0.00459724
0.00616806
0.00712008
0.00970902
0.0113901
0.0137714
0.0151339
0.0188709
0.0205366
0.0266456
2.12007e-05
3.52427e-05
4.74316e-05
7.01783e-05
8.42222e-05
0.000119782
0.000139252
0.000196584
0.000213588
0.000273427
0.000321572
0.000440265
0.000476
0.00069574
0.000797847
0.00105487
0.00112882
0.00154263
0.0017153
0.00269923
2.09749e-05
3.15718e-05
4.04855e-05
5.40127e-05
6.62723e-05
7.78556e-05
8.08349e-05
8.1598e-05
7.96045e-05
8.10156e-05
8.70974e-05
0.000104989
0.000108108
0.000117925
0.0001179
0.000123111
0.000129375
0.00016244
0.000170863
0.000224513
2.06445e-05
2.65947e-05
4.24361e-05
6.40042e-05
6.33633e-05
6.02688e-05
6.21404e-05
7.19055e-05
7.42536e-05
7.46784e-05
7.47967e-05
7.49855e-05
7.79291e-05
8.08413e-05
8.00296e-05
7.93337e-05
7.98793e-05
8.55193e-05
8.74286e-05
9.06407e-05
2.05237e-05
2.71543e-05
4.85051e-05
5.95873e-05
5.67773e-05
5.68717e-05
6.60862e-05
7.51768e-05
7.61653e-05
7.83726e-05
7.77525e-05
7.52436e-05
7.50257e-05
7.7442e-05
7.80403e-05
7.89238e-05
8.44187e-05
8.89294e-05
8.8167e-05
8.88762e-05
2.08106e-05
2.86454e-05
3.80684e-05
5.70371e-05
7.16231e-05
7.73971e-05
7.69797e-05
7.51397e-05
7.71102e-05
8.90841e-05
9.27088e-05
9.58961e-05
0.000101293
0.000100856
0.00010146
0.000113137
0.000148835
0.000167267
0.000178554
0.000193215
2.10027e-05
2.94729e-05
5.3879e-05
8.71985e-05
9.18875e-05
0.000101462
0.000118676
0.000157629
0.000248137
0.000340749
0.000357486
0.000414772
0.000529663
0.000589484
0.000670298
0.00101301
0.00134272
0.00170338
0.0019404
0.00245566
2.16116e-05
4.30775e-05
0.000167055
0.000357011
0.000447526
0.000783566
0.00119195
0.00205269
0.00289527
0.00429046
0.00474922
0.00618074
0.00741604
0.00916426
0.0104109
0.0143682
0.0166072
0.0209665
0.0233809
0.0299156
2.49457e-05
0.000307315
0.00205893
0.00450928
0.00640535
0.0123932
0.0181469
0.0260643
0.0345671
0.0467742
0.0512423
0.0633264
0.0712545
0.085258
0.0929051
0.113711
0.123374
0.144393
0.156025
0.190202
0.000123351
0.0049315
0.027346
0.0530516
0.0764013
0.129376
0.166213
0.200508
0.246812
0.294426
0.312542
0.357365
0.387241
0.430152
0.452172
0.510052
0.533328
0.586378
0.613701
0.68951
0.00336969
0.0695753
0.264196
0.412623
0.576633
0.715867
0.835056
0.917424
1.03648
1.10419
1.14082
1.21668
1.26688
1.30137
1.32711
1.38884
1.40685
1.44968
1.47068
1.52438
0.084663
0.728046
1.57035
1.92981
2.28345
2.43854
2.57648
2.59285
2.63178
2.59826
2.58383
2.54112
2.52756
2.47261
2.4589
2.42153
2.41068
2.37858
2.36788
2.34279
1.40695
4.34967
5.31962
5.28412
5.1343
4.79512
4.59077
4.27802
4.12593
3.86739
3.78213
3.57671
3.51776
3.37102
3.33243
3.1967
3.17111
3.05678
3.0167
2.91465
8.12032
10.2631
8.79307
6.8155
5.71934
4.95201
4.54234
4.13288
3.92187
3.64616
3.56106
3.34841
3.29787
3.13668
3.10981
2.94058
2.90759
2.73635
2.67669
2.45703
1.86561
1.35258
1.02769
0.837498
0.717503
0.660101
0.619892
0.603907
0.585985
0.577296
0.560913
0.554684
0.541227
0.535631
0.522288
0.517054
0.504847
0.500087
0.4891
0.485196
0.476887
0.473503
0.466561
0.463124
0.45687
0.451928
0.446529
0.441403
0.436752
0.431373
0.427581
0.423693
0.420176
0.41814
0.417074
0.416622
0.417185
0.41834
0.421463
0.426495
0.434467
0.440238
0.455796
0.459803
0.456511
0.442688
0.412709
0.365346
0.313484
0.269225
0.236877
0.215618
0.200222
0.188168
0.179273
0.176078
0.175214
0.177539
0.182026
0.194825
0.20465
0.217945
0.232114
0.245002
0.254968
0.258057
0.265291
0.274256
0.283206
0.29055
0.307566
0.324465
0.335717
0.349334
0.3606
0.367797
0.381138
0.389889
0.406936
0.417563
0.436657
0.444419
0.446402
0.439633
0.423885
0.381583
0.351954
0.306667
0.28337
0.256795
0.241816
0.224138
0.213748
0.206578
0.199817
0.192539
0.190423
0.186764
0.183256
0.179826
0.173522
0.163946
0.15616
0.140509
0.12237
0.0908083
0.0497355
0.0272085
0.0150111
0.00946769
0.00666085
0.00576407
0.00563678
0.00592025
0.00710643
0.0107215
0.0199795
0.0401786
0.0835983
0.148658
0.183972
0.195386
0.193298
0.186323
0.17705
0.169353
0.162233
0.153697
0.146044
0.140486
0.135014
0.12988
0.125995
0.121102
0.115854
0.111984
0.103859
0.0849565
0.0554225
0.040017
0.0346501
0.0341442
0.0346935
0.0367568
0.0397577
0.0435169
0.0441734
0.0441054
0.0451597
0.0466989
0.0470802
0.0507957
0.0631305
0.063732
0.0532585
0.0314968
0.0239949
0.0227668
0.0246549
0.0528534
0.173276
0.266213
0.301223
0.311008
0.302277
0.266737
0.205268
0.158
0.135775
0.115634
0.103756
0.0963626
0.0978564
0.100982
0.110997
0.130021
0.183271
0.203949
0.200317
0.184805
0.162568
0.142525
0.1331
0.123847
0.122571
0.119595
0.120456
0.118611
0.118576
0.12288
0.143343
0.151844
0.145178
0.104759
0.0842006
0.0709492
0.0455794
0.0416725
0.098305
0.975716
2.56831
2.12065
1.77777
1.52505
1.32958
1.1905
1.0816
1.00812
0.947215
0.9037
0.856997
0.820868
0.784297
0.76001
0.734301
0.718151
0.699468
0.686771
0.670523
0.656614
0.644254
0.632042
0.622238
0.612863
0.605063
0.597114
0.590451
0.582323
0.576749
0.568693
0.562012
0.55488
0.548526
0.541914
0.537158
0.52988
0.52672
0.52035
0.517866
0.512869
0.510301
0.509517
0.509997
0.510918
0.512894
0.514149
0.512561
0.508032
0.497228
0.483356
0.460971
0.442338
0.417068
0.395552
0.376554
0.358905
0.341248
0.330343
0.320427
0.314874
0.308774
0.302242
0.298114
0.296324
0.296239
0.297023
0.302045
0.308938
0.318365
0.329708
0.338675
0.348044
0.350987
0.352453
0.352344
0.350797
0.348946
0.345103
0.336593
0.335228
0.336383
0.342939
0.349941
0.36635
0.383859
0.384999
0.381544
0.373909
0.357382
0.339671
0.316326
0.301523
0.279394
0.264775
0.247258
0.232847
0.222426
0.210025
0.19852
0.18632
0.169582
0.153762
0.12613
0.096
0.0561473
0.0315328
0.0182021
0.0111865
0.00714042
0.00560478
0.00495193
0.00505615
0.00547694
0.00704599
0.0112988
0.0222041
0.0479351
0.0992133
0.186474
0.21458
0.217825
0.210888
0.199929
0.187569
0.177085
0.169494
0.155247
0.144734
0.135684
0.128126
0.124214
0.12292
0.122171
0.120024
0.116202
0.112708
0.109399
0.103146
0.0858497
0.0577157
0.042996
0.0376984
0.0370382
0.0375994
0.0394339
0.0436375
0.0445857
0.044551
0.0452787
0.0462834
0.0488869
0.0585076
0.0640098
0.062881
0.0476539
0.0283209
0.0222626
0.0220425
0.0283982
0.0852056
0.239588
0.303636
0.336917
0.333244
0.300697
0.226181
0.16324
0.122822
0.0999289
0.0824751
0.0695911
0.0672102
0.0682982
0.0728886
0.0802491
0.0928035
0.118664
0.166518
0.183755
0.180509
0.167926
0.144463
0.133192
0.121219
0.120047
0.122982
0.126863
0.12467
0.11966
0.116602
0.124445
0.137655
0.136598
0.115329
0.0826348
0.0744439
0.0635338
0.0539625
0.11377
0.478964
2.07628
1.84321
1.64632
1.47944
1.33002
1.20503
1.10212
1.02687
0.967902
0.923211
0.886944
0.850644
0.811483
0.774783
0.738198
0.709955
0.687118
0.671578
0.660509
0.648762
0.637546
0.62432
0.60964
0.595921
0.582888
0.573581
0.565873
0.560084
0.557038
0.550628
0.547008
0.539454
0.532315
0.525468
0.518027
0.511223
0.506419
0.499738
0.496702
0.491608
0.486794
0.484276
0.479818
0.477173
0.475811
0.475317
0.474284
0.473355
0.471631
0.468694
0.466166
0.460432
0.457571
0.453595
0.447558
0.443159
0.436866
0.431482
0.42786
0.424718
0.419763
0.416437
0.408771
0.403394
0.394866
0.391151
0.383764
0.38112
0.375677
0.372973
0.366316
0.362232
0.352668
0.346277
0.333482
0.323719
0.305866
0.298264
0.280805
0.274516
0.266301
0.262812
0.262261
0.26415
0.267266
0.275158
0.281282
0.289694
0.290402
0.28912
0.283298
0.277056
0.263962
0.253395
0.238532
0.224106
0.207436
0.187265
0.16604
0.135287
0.107576
0.0749245
0.0469083
0.0290257
0.0173261
0.0111715
0.00759715
0.00546333
0.00438425
0.00433827
0.00451132
0.0052238
0.00728954
0.0124135
0.0241908
0.054147
0.120422
0.211261
0.24404
0.239069
0.230106
0.21143
0.196928
0.183972
0.165992
0.149856
0.137407
0.128106
0.122913
0.11754
0.111787
0.110508
0.111426
0.114242
0.114109
0.112123
0.110133
0.108338
0.102687
0.0874027
0.0600334
0.0462676
0.0416199
0.0405523
0.0409875
0.0438132
0.0452503
0.0466509
0.0476503
0.0525015
0.0604455
0.0648577
0.0645768
0.0577643
0.0350515
0.024013
0.0216096
0.0229452
0.041417
0.170242
0.291203
0.350721
0.360906
0.34513
0.276358
0.188873
0.13825
0.100626
0.0797456
0.0653621
0.0561742
0.0528939
0.0532737
0.0553659
0.0607607
0.0701205
0.0826153
0.113364
0.150878
0.165873
0.162958
0.151573
0.133399
0.122878
0.12007
0.127186
0.130972
0.131985
0.1217
0.112172
0.116515
0.129531
0.128534
0.114556
0.0849706
0.0708464
0.0705788
0.062044
0.100838
0.247068
1.32592
1.22074
1.13919
1.06309
0.991155
0.926065
0.85168
0.786361
0.729116
0.688807
0.668845
0.653157
0.641665
0.622519
0.594582
0.565019
0.531527
0.507018
0.491555
0.481572
0.47854
0.476458
0.471338
0.461955
0.44635
0.431144
0.41659
0.404276
0.399762
0.398206
0.398731
0.401591
0.401873
0.400073
0.39236
0.380885
0.372468
0.363637
0.35589
0.353001
0.350127
0.349504
0.350119
0.350231
0.349381
0.347649
0.344827
0.343902
0.343164
0.341188
0.341378
0.341833
0.342161
0.344435
0.345918
0.348292
0.351043
0.352941
0.357257
0.359923
0.363074
0.365655
0.36565
0.364812
0.363085
0.358978
0.355197
0.346275
0.338915
0.329464
0.314137
0.300612
0.288286
0.263387
0.251173
0.230544
0.207046
0.190634
0.171361
0.152454
0.143167
0.131187
0.124676
0.124472
0.125122
0.127805
0.132481
0.135771
0.141608
0.143133
0.142325
0.139803
0.134943
0.124997
0.11569
0.101985
0.0850692
0.0685388
0.0524831
0.0388892
0.0280702
0.0192824
0.0138128
0.00932603
0.0064379
0.00507911
0.00410347
0.0036319
0.00372699
0.00410003
0.00529183
0.00826165
0.0143431
0.027012
0.0564795
0.137763
0.235984
0.270656
0.264413
0.245115
0.230687
0.20124
0.185475
0.161605
0.146176
0.138158
0.129991
0.123656
0.120938
0.117175
0.112493
0.107646
0.106688
0.107863
0.109832
0.109394
0.109058
0.108925
0.108444
0.105002
0.0840985
0.0650184
0.051603
0.0456633
0.0444004
0.0454155
0.0476347
0.0486027
0.0493952
0.055575
0.0634474
0.0646585
0.0613341
0.0438721
0.0275407
0.0228182
0.0229539
0.0281295
0.07176
0.240631
0.322415
0.382848
0.38104
0.350591
0.250265
0.167623
0.114402
0.0823191
0.0658938
0.0559048
0.0498161
0.0465492
0.0466829
0.0477249
0.051021
0.0575588
0.0652546
0.0801196
0.111435
0.14043
0.150053
0.148446
0.134523
0.129212
0.123921
0.1305
0.134059
0.133281
0.116031
0.106405
0.106026
0.11418
0.117248
0.107289
0.0994519
0.0729681
0.0880266
0.0708555
0.0752029
0.144628
0.584456
0.551921
0.529768
0.50881
0.489992
0.477163
0.448632
0.423253
0.387937
0.355864
0.337053
0.325935
0.325146
0.326039
0.327011
0.327812
0.319147
0.293003
0.26857
0.24761
0.239245
0.237017
0.238102
0.245942
0.250428
0.252252
0.248807
0.229634
0.213914
0.201839
0.196028
0.195781
0.198653
0.206896
0.212761
0.214725
0.214795
0.20854
0.19576
0.186837
0.17868
0.174993
0.174517
0.174526
0.176187
0.179736
0.18052
0.181094
0.180935
0.178798
0.177938
0.176694
0.175813
0.17616
0.176733
0.177681
0.181034
0.182964
0.18698
0.191521
0.195369
0.19964
0.204048
0.204754
0.204645
0.203057
0.200236
0.194465
0.18628
0.177706
0.165688
0.152429
0.139801
0.122677
0.108797
0.0940641
0.0795823
0.0696603
0.0602027
0.0519673
0.0469452
0.042257
0.0388599
0.0367081
0.0361112
0.0361953
0.0365188
0.0375374
0.038829
0.0398117
0.039671
0.0389857
0.0374609
0.0344974
0.0313757
0.0270184
0.0226724
0.0186713
0.0145248
0.0116585
0.00861395
0.00665945
0.00526487
0.00389456
0.00338961
0.00315629
0.00316007
0.00334439
0.00403969
0.00573926
0.0102481
0.0180369
0.0310482
0.0601801
0.133804
0.267037
0.296023
0.292763
0.267989
0.245058
0.21288
0.178427
0.166254
0.146739
0.138816
0.134337
0.127162
0.125311
0.121652
0.119646
0.117316
0.109679
0.106912
0.107699
0.109406
0.108938
0.108637
0.108793
0.111074
0.11095
0.10397
0.0802997
0.0619246
0.0525747
0.0512876
0.0513231
0.0530317
0.0532456
0.0550881
0.0590645
0.0627586
0.06064
0.0489699
0.0317383
0.0237817
0.0229548
0.02482
0.036187
0.12669
0.265103
0.364705
0.407851
0.400715
0.34629
0.225204
0.147968
0.0957514
0.0730839
0.059048
0.0526474
0.0468456
0.0435037
0.0424017
0.042751
0.0441642
0.0489839
0.0542081
0.0642949
0.0826483
0.11454
0.132248
0.141668
0.136325
0.128803
0.127583
0.129089
0.133727
0.129545
0.112412
0.105615
0.103951
0.10828
0.113932
0.10708
0.109391
0.081486
0.0910936
0.0797075
0.0741029
0.105626
0.159317
0.152911
0.148609
0.144901
0.141999
0.141316
0.137767
0.134021
0.124324
0.112474
0.105814
0.100689
0.100123
0.101463
0.104627
0.109011
0.109822
0.109078
0.101688
0.087978
0.0792898
0.0739973
0.0724263
0.0744457
0.0808319
0.0872567
0.0906506
0.0907124
0.0863573
0.0758844
0.0671871
0.0630507
0.0613622
0.0620539
0.0680967
0.0731385
0.0770225
0.0783976
0.0779084
0.0739751
0.0672125
0.061855
0.0594031
0.0582291
0.0582061
0.0592653
0.0604148
0.062474
0.063503
0.0634919
0.0635201
0.0633345
0.0625967
0.0625049
0.0622053
0.0621958
0.0626488
0.0630631
0.0638163
0.065605
0.066391
0.068413
0.0701087
0.0704204
0.0702934
0.0696301
0.0682591
0.0662243
0.0616419
0.0581936
0.0524392
0.0475519
0.0423548
0.0367369
0.0322913
0.0279374
0.0239206
0.0208989
0.0179446
0.0157376
0.0138912
0.0122464
0.0111631
0.0101642
0.00938471
0.00898414
0.00887457
0.00887372
0.00884506
0.00897196
0.00897612
0.00892617
0.00868624
0.00830931
0.00771406
0.0067733
0.00606863
0.00516742
0.00440323
0.00386682
0.00307135
0.00289238
0.00248167
0.00245551
0.00260308
0.00275581
0.00321937
0.00469338
0.0072953
0.0123542
0.0234585
0.0369487
0.0646274
0.132764
0.286775
0.331273
0.317289
0.298445
0.24981
0.228808
0.184673
0.164113
0.155493
0.138086
0.136349
0.132026
0.12783
0.126296
0.122376
0.120725
0.117864
0.112368
0.108263
0.108668
0.109846
0.109575
0.109036
0.109297
0.11386
0.113838
0.111715
0.0926936
0.0749395
0.0663314
0.0622121
0.0571817
0.0567768
0.0559482
0.0571554
0.0592982
0.0602704
0.053473
0.0376224
0.0248121
0.0204816
0.0212632
0.025104
0.0447878
0.162189
0.280438
0.411186
0.427902
0.421481
0.347066
0.211903
0.132294
0.0841566
0.068404
0.0561756
0.0520949
0.0456335
0.0441707
0.0408774
0.042052
0.042027
0.0450128
0.0474734
0.0554604
0.0643658
0.0914529
0.114739
0.12946
0.131898
0.127928
0.130942
0.129141
0.133564
0.129643
0.116323
0.105938
0.104424
0.107602
0.11288
0.109112
0.109897
0.0873276
0.0780341
0.0779019
0.0736005
0.0829453
0.0263279
0.0253081
0.0245685
0.0240139
0.0238078
0.0239478
0.0237637
0.0236434
0.0232553
0.0215692
0.0207333
0.0194385
0.0189945
0.0190054
0.0193412
0.0211674
0.0222358
0.0226001
0.0225069
0.0199515
0.016953
0.0146795
0.0135696
0.0135716
0.0156345
0.0198517
0.0228845
0.0237189
0.0233964
0.020178
0.0162814
0.0133687
0.0116746
0.0111692
0.0121655
0.0163699
0.0203315
0.0226914
0.0232922
0.0227881
0.0199368
0.0169172
0.0148961
0.0136599
0.0133391
0.0135266
0.0143916
0.0158307
0.0168144
0.017114
0.0172844
0.0172518
0.0170157
0.0169191
0.0166702
0.0165966
0.0166746
0.0167663
0.0169863
0.0172809
0.0174371
0.0179226
0.0182499
0.0182933
0.0182583
0.0180517
0.0176946
0.0171292
0.0160439
0.0149457
0.0134499
0.0121456
0.0107538
0.00937063
0.00832445
0.00720726
0.00631638
0.00555675
0.00482808
0.00428874
0.00378965
0.00334332
0.00301977
0.00272109
0.00244967
0.00223959
0.00215192
0.00209745
0.00210133
0.00208481
0.00211528
0.00213747
0.00211938
0.00208475
0.00197557
0.00187385
0.00175188
0.00163783
0.00166064
0.00163407
0.00171063
0.0018659
0.00195713
0.00228192
0.00274146
0.00368071
0.00623819
0.0107255
0.0165507
0.0298776
0.0448223
0.0713884
0.132404
0.302125
0.364281
0.352965
0.319731
0.282919
0.228558
0.203562
0.162552
0.156166
0.142269
0.134844
0.135867
0.131115
0.130783
0.128076
0.126264
0.124442
0.118574
0.112523
0.111205
0.112285
0.112412
0.111242
0.110146
0.110441
0.116729
0.120179
0.12302
0.11235
0.0943238
0.0821183
0.0676427
0.0601472
0.0579522
0.057362
0.057257
0.0573569
0.0535729
0.0408605
0.0290003
0.0211051
0.0190494
0.0197622
0.02476
0.055302
0.166244
0.321707
0.43002
0.454793
0.452425
0.351914
0.202224
0.118908
0.0787788
0.0659397
0.0553316
0.0524375
0.0459736
0.0450462
0.0416269
0.0428345
0.0421928
0.044203
0.0464024
0.0527801
0.0592886
0.0710037
0.099373
0.112886
0.126859
0.125914
0.130358
0.129341
0.131989
0.130372
0.118998
0.108249
0.106625
0.108646
0.113269
0.108874
0.10397
0.0896399
0.0760125
0.0783142
0.074323
0.0768244
0.00286241
0.00284038
0.00279372
0.00269821
0.00266842
0.00268194
0.00267671
0.00271636
0.00274807
0.00272046
0.0026568
0.00246631
0.00235629
0.00231514
0.00231197
0.00251655
0.00274391
0.00284466
0.00286205
0.00261324
0.00224212
0.00197248
0.00183893
0.0018542
0.00229549
0.00308248
0.00358513
0.00366069
0.00339975
0.00273408
0.00220348
0.00188504
0.00177472
0.00183129
0.00271461
0.00394798
0.00481185
0.00517382
0.00512434
0.00445901
0.00364362
0.0030995
0.00282665
0.00270079
0.00269014
0.00283284
0.00302687
0.00321503
0.00327453
0.00324742
0.00319905
0.00310305
0.00305654
0.00307011
0.00315863
0.00333804
0.00347181
0.00351484
0.00353499
0.00353296
0.00348044
0.0034513
0.00343894
0.00342893
0.00341571
0.00338782
0.00332288
0.00325017
0.00308897
0.0029396
0.00265387
0.00245236
0.00219663
0.00194635
0.00178741
0.00156661
0.00141074
0.00127745
0.00114739
0.00105524
0.000949407
0.000878362
0.000802633
0.000747044
0.000687326
0.00064401
0.000614522
0.000588744
0.000586988
0.000584624
0.000591417
0.000601155
0.000632923
0.000659324
0.000707518
0.000806879
0.000854561
0.000995181
0.00114017
0.00127202
0.00165128
0.0019452
0.00261066
0.00399571
0.00560882
0.00898385
0.0167777
0.0232815
0.0383244
0.0587849
0.0841012
0.140567
0.311036
0.39809
0.390022
0.349178
0.303256
0.247511
0.212465
0.177563
0.153345
0.150004
0.136016
0.136719
0.136032
0.130763
0.134576
0.129973
0.129933
0.129327
0.124798
0.115268
0.113294
0.114841
0.117485
0.114764
0.113336
0.113305
0.119075
0.126528
0.128611
0.122736
0.100925
0.0879587
0.070114
0.0638538
0.0626618
0.061943
0.0599677
0.0552501
0.0440961
0.0312777
0.0216753
0.0170708
0.0168709
0.0180458
0.0245438
0.0586153
0.170127
0.332834
0.434014
0.491231
0.485455
0.361711
0.198459
0.113391
0.0774669
0.0650138
0.0581578
0.0551083
0.048038
0.0474127
0.0438786
0.0441995
0.0430005
0.0439051
0.0487734
0.0528007
0.0610523
0.065887
0.0906956
0.100812
0.121686
0.122451
0.12642
0.133914
0.132726
0.136985
0.126751
0.117067
0.113292
0.111416
0.111341
0.10846
0.101267
0.100322
0.0893524
0.0876644
0.0791906
0.0752571
0.000234868
0.00023512
0.000237701
0.000235286
0.000232473
0.000233853
0.000247938
0.000267735
0.000279535
0.000280199
0.000272451
0.000255
0.000243703
0.000240074
0.000240838
0.000255448
0.000268295
0.000273397
0.000273575
0.000259726
0.000246097
0.00023878
0.000236213
0.000243936
0.000276527
0.000295524
0.000296589
0.000290833
0.000308187
0.000345428
0.000359408
0.000351391
0.000344796
0.000439611
0.000653944
0.000787272
0.000803907
0.00073607
0.000668353
0.000659418
0.000665275
0.000662341
0.000617045
0.000584606
0.000582959
0.000593122
0.000589561
0.00055807
0.000516365
0.000497794
0.00050162
0.000535776
0.000587707
0.000631087
0.000649244
0.000652643
0.000652917
0.000640951
0.000606151
0.00056349
0.000525187
0.00049555
0.00046831
0.000449404
0.000440765
0.000436957
0.000441767
0.000445522
0.000445012
0.000444821
0.000439862
0.000437666
0.000433212
0.000423265
0.000425376
0.000428627
0.000432386
0.000438359
0.000448621
0.000449388
0.000450475
0.000452697
0.00045029
0.00045292
0.000454988
0.000458945
0.000460655
0.000459365
0.000461311
0.000467243
0.000478327
0.000496503
0.000548095
0.000587919
0.000700016
0.000797231
0.000963948
0.00129788
0.00158525
0.00229643
0.0031748
0.00435969
0.0073174
0.0102572
0.0145708
0.0258947
0.0349962
0.0487501
0.0813044
0.108824
0.163068
0.322832
0.433132
0.429208
0.383668
0.312544
0.267078
0.225631
0.194777
0.163889
0.149771
0.142776
0.130207
0.137175
0.128023
0.130993
0.137443
0.13195
0.136241
0.131143
0.129916
0.123879
0.121746
0.119672
0.120586
0.115734
0.115052
0.115862
0.121705
0.135438
0.135929
0.128461
0.107118
0.0925342
0.0783639
0.0709253
0.0691273
0.0648496
0.0576346
0.0450876
0.0344433
0.0266405
0.0202811
0.0166521
0.0166033
0.0179242
0.0244481
0.0585346
0.169878
0.313031
0.453833
0.541589
0.528687
0.378677
0.198233
0.111833
0.0799448
0.0675132
0.0643565
0.0594648
0.0519305
0.0498548
0.0457926
0.0447171
0.0453239
0.045015
0.0556314
0.0559998
0.0642249
0.0662454
0.0820389
0.0931859
0.109536
0.121658
0.123583
0.140823
0.13792
0.143631
0.134906
0.120469
0.115835
0.110954
0.109329
0.107886
0.10294
0.105686
0.0990875
0.0962028
0.0823249
0.0735879
9.05811e-05
9.16213e-05
9.56977e-05
9.64629e-05
9.70973e-05
9.84632e-05
9.88936e-05
9.97028e-05
0.000100738
0.000101181
0.000101226
0.000101382
0.000101216
0.00010035
0.000100287
0.000103779
0.000107852
0.000109349
0.000109432
0.000110766
0.000113426
0.000114456
0.000114226
0.0001129
0.00011259
0.000114482
0.000120303
0.000123087
0.000121325
0.000117028
0.000126043
0.000184433
0.000235311
0.000247603
0.000235665
0.000221528
0.000230941
0.000271617
0.000293404
0.000291237
0.000280938
0.000284043
0.000299173
0.000303774
0.000288487
0.000265567
0.000261479
0.000281622
0.000305069
0.000311423
0.000307544
0.000297411
0.000296215
0.000299756
0.00030229
0.000299711
0.00027982
0.000254415
0.000228886
0.000210867
0.00019457
0.000184399
0.00017854
0.000174924
0.00017498
0.00017561
0.000176805
0.000181693
0.000196198
0.000210181
0.000233033
0.000247429
0.000270998
0.00030528
0.000332546
0.00040503
0.000445273
0.000524921
0.000599081
0.000660445
0.000775378
0.000816259
0.000851513
0.000931248
0.000991689
0.00106779
0.00111096
0.00114333
0.00117102
0.00119655
0.00122896
0.00129961
0.00137123
0.00154697
0.00180572
0.00209167
0.00282422
0.00351789
0.00480964
0.00700227
0.00911262
0.0135398
0.0195526
0.0256323
0.0394127
0.0554034
0.0720382
0.11076
0.15422
0.202053
0.339817
0.467165
0.467015
0.415192
0.321526
0.282292
0.251024
0.214507
0.176762
0.154282
0.143358
0.132839
0.128584
0.132771
0.124562
0.141103
0.129618
0.13095
0.144738
0.13158
0.135718
0.12792
0.131319
0.129204
0.127094
0.117921
0.117424
0.120854
0.129491
0.147652
0.147634
0.136197
0.117673
0.0977506
0.0824842
0.0744536
0.0700591
0.0614421
0.0449039
0.0340415
0.0272124
0.0231853
0.0186425
0.0164756
0.0165456
0.0178801
0.0244081
0.0581987
0.143835
0.284279
0.458197
0.588842
0.577734
0.418381
0.21268
0.117571
0.0833541
0.0717544
0.0714008
0.0657784
0.0561442
0.0502884
0.0517196
0.0481346
0.0531996
0.0496036
0.0708921
0.063404
0.0703524
0.0692164
0.0750966
0.0885393
0.0952215
0.118818
0.120955
0.14273
0.138653
0.141399
0.133087
0.118913
0.114237
0.108902
0.106336
0.106365
0.102726
0.103495
0.10046
0.0962496
0.0857447
0.0778626
8.87328e-05
8.95292e-05
9.24477e-05
9.43456e-05
9.52027e-05
9.82258e-05
0.000104879
0.000108504
0.000109595
0.00010955
0.000109541
0.000111759
0.000112886
0.000114025
0.000115207
0.0001156
0.000119787
0.000129016
0.000136108
0.000137156
0.000134999
0.000131206
0.000130014
0.000131493
0.000132357
0.000132181
0.000131032
0.000131044
0.000144221
0.000180702
0.000206684
0.000224427
0.000231397
0.000236375
0.000238927
0.000230248
0.000206178
0.000194632
0.000199374
0.000228194
0.000250958
0.000252188
0.000249642
0.000251042
0.000267044
0.000273517
0.000268851
0.000261905
0.000268055
0.000323119
0.000389168
0.000430448
0.000441295
0.000426451
0.000377885
0.000332078
0.000292227
0.000265163
0.000251723
0.000250558
0.00025282
0.000261635
0.000286706
0.000297198
0.000316443
0.000336322
0.000350661
0.000387321
0.000417029
0.000472702
0.00058357
0.000656347
0.000857958
0.00104044
0.00126321
0.00164044
0.0018209
0.00224372
0.00255229
0.00285856
0.00325619
0.00337496
0.00358799
0.00379459
0.00393104
0.00407877
0.00411025
0.00413876
0.00419557
0.00423976
0.00434873
0.00453304
0.00479473
0.00543829
0.00610666
0.00750614
0.0092014
0.0110581
0.015695
0.0193397
0.0260776
0.0372528
0.0462855
0.0645569
0.0891008
0.111875
0.158328
0.226797
0.268396
0.362897
0.493259
0.505205
0.446967
0.336964
0.292763
0.271547
0.241501
0.199413
0.168567
0.149451
0.133602
0.129234
0.128019
0.125574
0.122249
0.141099
0.121428
0.135008
0.130657
0.123596
0.139569
0.129331
0.136485
0.129671
0.124323
0.12095
0.121016
0.133246
0.145814
0.158436
0.154687
0.138898
0.117977
0.0976246
0.0813094
0.0745302
0.0631911
0.0467948
0.0336147
0.0277973
0.0241226
0.0210642
0.0174719
0.0163056
0.0165578
0.0178546
0.0239198
0.0474416
0.115256
0.232284
0.441696
0.611501
0.632291
0.496747
0.247578
0.126277
0.0869337
0.0801644
0.0791419
0.0709374
0.060324
0.0519497
0.0590511
0.0547953
0.0780717
0.0614697
0.11221
0.0841559
0.0878196
0.0785651
0.0771714
0.0892928
0.092618
0.117733
0.120705
0.138876
0.136443
0.135198
0.12911
0.114776
0.110081
0.106681
0.104683
0.105417
0.103009
0.102856
0.101088
0.0998679
0.0967815
0.0952093
0.000204472
0.000214771
0.000241309
0.00027631
0.000300421
0.000305555
0.000304605
0.000295785
0.000292279
0.000291554
0.000294536
0.00031269
0.000339281
0.00037423
0.000398171
0.000413259
0.000435763
0.000497698
0.000606871
0.000693893
0.000758553
0.000786249
0.00078623
0.000743426
0.00064321
0.000556843
0.000505056
0.000485204
0.000529614
0.00075271
0.000969288
0.00111489
0.00115342
0.00111755
0.00103213
0.000941751
0.000904774
0.000896479
0.000857317
0.000823117
0.000783551
0.000745635
0.000703053
0.000657544
0.000646382
0.000752532
0.00105876
0.00139129
0.00161952
0.00172788
0.00175132
0.00166129
0.00144871
0.0012404
0.00107274
0.000979669
0.0009459
0.000948705
0.00100637
0.00114196
0.001277
0.00136415
0.00148387
0.00155216
0.00166009
0.00178542
0.0018931
0.00219723
0.00243973
0.00289982
0.00344875
0.00386952
0.00488241
0.00540488
0.00635146
0.00737513
0.0079977
0.00955366
0.0102144
0.011309
0.0121442
0.012688
0.013497
0.0138228
0.0139369
0.0139512
0.0138778
0.0137446
0.0137568
0.0138621
0.0141718
0.0147448
0.0159553
0.0175478
0.0197025
0.0239891
0.0274473
0.0345473
0.0432748
0.0513751
0.071142
0.0858655
0.110244
0.151938
0.182386
0.242876
0.332838
0.362677
0.408796
0.512361
0.536969
0.480831
0.345879
0.302452
0.283007
0.269107
0.238034
0.195423
0.164865
0.142886
0.1288
0.123685
0.122173
0.121116
0.121956
0.124428
0.121905
0.131798
0.121863
0.127782
0.13225
0.128787
0.133996
0.126608
0.124207
0.123749
0.125016
0.140951
0.155699
0.162523
0.154079
0.1371
0.113048
0.0918635
0.0763646
0.0672572
0.0495421
0.0349165
0.0265969
0.0244878
0.0235157
0.0212581
0.0174952
0.0166164
0.0167973
0.0178515
0.0223993
0.0373156
0.0875672
0.169003
0.399495
0.595759
0.725869
0.606439
0.286531
0.141213
0.103882
0.0916337
0.0820841
0.0774838
0.0784473
0.0613209
0.0674096
0.0682436
0.127155
0.0818197
0.133998
0.102008
0.101926
0.0914812
0.0845254
0.0963223
0.0967969
0.117522
0.124053
0.135352
0.135591
0.130923
0.127894
0.115252
0.110273
0.10736
0.105438
0.106926
0.104357
0.104009
0.103082
0.103443
0.104305
0.104833
0.00286827
0.00311377
0.00322833
0.0032721
0.00327577
0.00318196
0.00310525
0.00309132
0.00311139
0.00317594
0.0033344
0.00361902
0.00384897
0.00402668
0.00410589
0.00416623
0.00452995
0.00543753
0.0063804
0.00696825
0.00726337
0.00729197
0.00690799
0.00607977
0.00522707
0.0046951
0.00444269
0.0044467
0.00517918
0.00623428
0.00716122
0.00777024
0.00797613
0.0080088
0.00786961
0.00744774
0.00718756
0.00687772
0.00646191
0.00607754
0.00564384
0.00530444
0.00518485
0.00521522
0.00588212
0.00680634
0.00747302
0.00806995
0.00831684
0.00839205
0.00828267
0.00757559
0.00695528
0.00645521
0.0062272
0.00621249
0.00624367
0.00653534
0.00692175
0.00721932
0.0076514
0.00786948
0.00822172
0.00853099
0.00910596
0.0096892
0.0104469
0.0119963
0.0129001
0.0148157
0.0163714
0.0182059
0.0209536
0.0223895
0.0257026
0.0279675
0.0302745
0.0338693
0.0355867
0.0379464
0.0395467
0.0411704
0.0422133
0.042269
0.0422135
0.0419214
0.0412079
0.0407386
0.0408163
0.0412504
0.0422124
0.0445358
0.0476052
0.0514024
0.0594232
0.0661546
0.0759574
0.0929612
0.106807
0.131107
0.162909
0.191335
0.251648
0.306783
0.375464
0.425042
0.437693
0.455839
0.509981
0.553879
0.494745
0.341387
0.302137
0.292735
0.292114
0.282638
0.241148
0.195313
0.164131
0.140532
0.125033
0.118643
0.116555
0.117657
0.120338
0.121128
0.121146
0.124095
0.121247
0.127573
0.125565
0.127871
0.126451
0.124301
0.126661
0.130756
0.143819
0.156623
0.160922
0.161867
0.145851
0.125564
0.0936875
0.0720088
0.0630213
0.0532883
0.039255
0.0289858
0.0238321
0.0231949
0.0226863
0.0203862
0.0170332
0.016441
0.0168169
0.0178046
0.0208603
0.0299306
0.0548962
0.113468
0.30523
0.553775
0.820134
0.708605
0.370728
0.1884
0.128224
0.0995867
0.0879574
0.0914568
0.0892599
0.0761294
0.0895607
0.103766