/*--------------------------------*- C++ -*----------------------------------*\
| =========                 |                                                 |
| \\      /  F ield         | OpenFOAM: The Open Source CFD Toolbox           |
|  \\    /   O peration     | Version:  2.4.0                                 |
|   \\  /    A nd           | Web:      www.OpenFOAM.org                      |
|    \\/     M anipulation  |                                                 |
\*---------------------------------------------------------------------------*/
FoamFile
{
    version     2.0;
    format      ascii;
    class       volVectorField;
    location    "1.15";
    object      U_0;
}
// * * * * * * * * * * * * * * * * * * * * * * * * * * * * * * * * * * * * * //

dimensions      [0 1 -1 0 0 0 0];

internalField   nonuniform List<vector> 
8800
(
(8.09294 0.387876 0)
(5.45116 0.242705 0)
(3.90925 0.0430339 0)
(3.16189 -0.0157106 0)
(2.79305 -0.0179691 0)
(2.60841 -0.0115021 0)
(2.47443 -0.00558153 0)
(2.39054 -0.00180275 0)
(2.30478 -0.0015514 0)
(2.26705 -0.00187944 0)
(2.20078 0.000963415 0)
(2.18231 -0.000643874 0)
(2.12676 -0.000567371 0)
(2.12477 0.00016838 0)
(2.05624 0.00172621 0)
(2.05965 -0.00130811 0)
(2.00063 0.000319479 0)
(2.00553 -0.00240116 0)
(2.00264 0.011425 0)
(1.75248 -0.0755766 0)
(10.0823 0.838019 0)
(9.66582 0.868228 0)
(8.8599 0.506588 0)
(8.1043 0.262014 0)
(7.46521 0.139034 0)
(7.0407 0.0804818 0)
(6.66448 0.0546214 0)
(6.43078 0.0423334 0)
(6.18884 0.0291651 0)
(6.07134 0.0211668 0)
(5.87307 0.0234758 0)
(5.83553 0.0153963 0)
(5.66526 0.0136766 0)
(5.66095 0.0152287 0)
(5.48854 0.0206012 0)
(5.50501 0.00721998 0)
(5.35226 0.0197379 0)
(5.34911 -0.00672839 0)
(5.30298 0.0336579 0)
(5.14296 -0.0409026 0)
(10.0482 0.630202 0)
(10.6807 0.865048 0)
(10.8377 0.599627 0)
(10.7367 0.374583 0)
(10.4053 0.256405 0)
(10.1461 0.194149 0)
(9.78077 0.154947 0)
(9.5532 0.125679 0)
(9.24909 0.0921071 0)
(9.11767 0.0730249 0)
(8.83238 0.0665564 0)
(8.79679 0.0474745 0)
(8.54944 0.0424709 0)
(8.54302 0.0406852 0)
(8.30995 0.048088 0)
(8.33398 0.0233214 0)
(8.12311 0.0467742 0)
(8.1231 0.00270046 0)
(8.01572 0.0385888 0)
(7.96085 -0.0803171 0)
(9.95822 0.455172 0)
(10.6205 0.708912 0)
(11.0973 0.541648 0)
(11.4619 0.356217 0)
(11.4756 0.262385 0)
(11.55 0.222906 0)
(11.4085 0.203124 0)
(11.3892 0.180978 0)
(11.1991 0.142772 0)
(11.1926 0.123166 0)
(10.9601 0.116732 0)
(10.9818 0.0842094 0)
(10.7632 0.0819067 0)
(10.7735 0.0733479 0)
(10.5611 0.0861059 0)
(10.5827 0.0447847 0)
(10.3891 0.0843058 0)
(10.3735 0.0197213 0)
(10.2507 0.0572921 0)
(10.2564 -0.0875116 0)
(9.95101 0.342847 0)
(10.5061 0.577494 0)
(10.9301 0.449697 0)
(11.4072 0.297713 0)
(11.5672 0.210938 0)
(11.7775 0.188252 0)
(11.7921 0.181437 0)
(11.9185 0.178142 0)
(11.8859 0.13824 0)
(11.9917 0.129828 0)
(11.9328 0.126083 0)
(12.0289 0.0965249 0)
(11.9581 0.0908517 0)
(12.0082 0.0958857 0)
(11.9366 0.0954626 0)
(11.9558 0.0710143 0)
(11.8918 0.0920333 0)
(11.8625 0.0678296 0)
(11.8154 0.0500898 0)
(11.8361 -0.00754488 0)
(9.97311 0.246268 0)
(10.3988 0.464985 0)
(10.8222 0.373048 0)
(11.2335 0.245175 0)
(11.4659 0.164639 0)
(11.6779 0.143831 0)
(11.7698 0.149624 0)
(11.8801 0.148457 0)
(11.9394 0.11665 0)
(12.0346 0.105539 0)
(12.0906 0.110818 0)
(12.1958 0.0747314 0)
(12.2489 0.0807256 0)
(12.3227 0.0857917 0)
(12.3757 0.0924177 0)
(12.4047 0.0628789 0)
(12.4509 0.0897439 0)
(12.4498 0.0803978 0)
(12.4762 0.0738517 0)
(12.5371 0.0207446 0)
(9.98524 0.175006 0)
(10.3253 0.360493 0)
(10.7409 0.281894 0)
(11.1293 0.207921 0)
(11.3554 0.117063 0)
(11.5759 0.106657 0)
(11.6849 0.108697 0)
(11.7705 0.134936 0)
(11.8718 0.0776908 0)
(11.9645 0.0995369 0)
(12.0375 0.0717366 0)
(12.1189 0.0717004 0)
(12.1881 0.0355344 0)
(12.2953 0.0890271 0)
(12.3444 0.0450704 0)
(12.4119 0.0833138 0)
(12.4794 0.0428774 0)
(12.5145 0.121563 0)
(12.5455 0.0503233 0)
(12.5967 0.175485 0)
(9.96463 0.103886 0)
(10.2974 0.264439 0)
(10.6905 0.192439 0)
(11.0524 0.172613 0)
(11.2752 0.0730904 0)
(11.501 0.0785522 0)
(11.6177 0.064219 0)
(11.704 0.114714 0)
(11.8011 0.0294905 0)
(11.8977 0.0854891 0)
(11.9574 0.0439486 0)
(12.0467 0.0698078 0)
(12.1559 0.000440983 0)
(12.2339 0.0872236 0)
(12.2257 0.0219837 0)
(12.3445 0.0691825 0)
(12.4334 0.0174555 0)
(12.4938 0.118328 0)
(12.5011 0.0406873 0)
(12.5162 0.168838 0)
(9.99346 0.0681934 0)
(10.2566 0.141143 0)
(10.6258 0.118016 0)
(10.9667 0.112673 0)
(11.2646 0.0503736 0)
(11.467 0.0258087 0)
(11.5873 0.0474002 0)
(11.6743 0.0707995 0)
(11.7687 0.0177221 0)
(11.8294 0.0469044 0)
(11.8765 0.0417448 0)
(12.0074 0.014249 0)
(12.1249 -0.0012871 0)
(12.1712 0.0613717 0)
(12.2155 0.029491 0)
(12.3059 0.00912705 0)
(12.378 0.0220363 0)
(12.4151 0.0665434 0)
(12.4585 0.0399561 0)
(12.4569 -0.000561034 0)
(10.0037 0.00756185 0)
(10.2336 0.0605595 0)
(10.5666 0.0381488 0)
(10.9642 0.0511392 0)
(11.2854 -0.00151609 0)
(11.4377 0.00960429 0)
(11.522 0.00522649 0)
(11.6543 0.0447845 0)
(11.7565 -0.0160087 0)
(11.8041 0.0412188 0)
(11.9006 0.00897348 0)
(11.987 -0.00143458 0)
(12.0377 -0.0263502 0)
(12.1651 0.0535218 0)
(12.2523 0.00202803 0)
(12.2873 0.00385359 0)
(12.2956 0.00102942 0)
(12.375 0.0406884 0)
(12.4568 -0.0178638 0)
(12.4247 0.0173835 0)
(10.0005 -0.0209438 0)
(10.213 -0.0459483 0)
(10.5847 -0.0488556 0)
(10.9964 -0.0285127 0)
(11.2621 -0.0147643 0)
(11.4214 -0.0160584 0)
(11.5343 -0.0135271 0)
(11.6673 -0.011328 0)
(11.7208 -0.0270673 0)
(11.8004 -0.00295281 0)
(11.9369 0.00295161 0)
(11.9874 -0.0246038 0)
(12.0322 -0.0354721 0)
(12.1445 0.00432319 0)
(12.2589 0.00250482 0)
(12.2698 -0.014529 0)
(12.3119 -0.0111417 0)
(12.411 -0.0138748 0)
(12.4425 -0.026612 0)
(12.4067 -0.0132899 0)
(10.0024 -0.0724446 0)
(10.2533 -0.137968 0)
(10.6139 -0.133969 0)
(10.9801 -0.0868394 0)
(11.26 -0.0477384 0)
(11.4575 -0.0467018 0)
(11.5978 -0.0564949 0)
(11.6622 -0.0364355 0)
(11.7366 -0.0491706 0)
(11.8317 -0.0342312 0)
(11.9464 -0.0235007 0)
(12.0205 -0.0382655 0)
(12.0828 -0.0480105 0)
(12.1434 -0.0159695 0)
(12.2269 -0.0186705 0)
(12.2869 -0.032965 0)
(12.3889 -0.0385976 0)
(12.4442 -0.0407967 0)
(12.4414 -0.0575424 0)
(12.3978 -0.030892 0)
(10.0082 -0.1186 0)
(10.2515 -0.244718 0)
(10.6697 -0.20997 0)
(11.045 -0.15072 0)
(11.3172 -0.0825648 0)
(11.5046 -0.0860378 0)
(11.6256 -0.07173 0)
(11.678 -0.0688964 0)
(11.793 -0.0763889 0)
(11.8962 -0.069222 0)
(11.9825 -0.0401766 0)
(12.0418 -0.061381 0)
(12.1421 -0.0575829 0)
(12.1923 -0.0362441 0)
(12.2502 -0.0320976 0)
(12.3489 -0.0657403 0)
(12.4511 -0.0631543 0)
(12.473 -0.0641852 0)
(12.4745 -0.0715226 0)
(12.4303 -0.051646 0)
(10.0265 -0.178068 0)
(10.2866 -0.345359 0)
(10.758 -0.299418 0)
(11.112 -0.206881 0)
(11.4007 -0.113713 0)
(11.54 -0.118758 0)
(11.6881 -0.104538 0)
(11.7569 -0.104602 0)
(11.8818 -0.104327 0)
(11.9596 -0.0975141 0)
(12.0475 -0.0549358 0)
(12.1003 -0.0861582 0)
(12.2158 -0.0716069 0)
(12.2542 -0.0529295 0)
(12.3326 -0.0522908 0)
(12.424 -0.0963366 0)
(12.4992 -0.077758 0)
(12.5165 -0.0891274 0)
(12.5444 -0.0975859 0)
(12.5111 -0.0853915 0)
(10.0634 -0.254195 0)
(10.3065 -0.450909 0)
(10.9123 -0.384286 0)
(11.1803 -0.248633 0)
(11.5163 -0.152971 0)
(11.6034 -0.158997 0)
(11.8203 -0.136269 0)
(11.8121 -0.135863 0)
(12.0004 -0.13393 0)
(12.0121 -0.120874 0)
(12.1393 -0.0739379 0)
(12.135 -0.10964 0)
(12.2859 -0.087367 0)
(12.2712 -0.0746243 0)
(12.3827 -0.0689572 0)
(12.3931 -0.120624 0)
(12.4747 -0.0884998 0)
(12.4372 -0.116625 0)
(12.4722 -0.116771 0)
(12.3924 -0.134696 0)
(10.0592 -0.348078 0)
(10.3921 -0.564074 0)
(11.0672 -0.47028 0)
(11.2746 -0.289367 0)
(11.6601 -0.202763 0)
(11.6711 -0.201427 0)
(11.8955 -0.174035 0)
(11.8096 -0.162286 0)
(12.0077 -0.16252 0)
(11.8828 -0.136738 0)
(12.0391 -0.0927741 0)
(11.9063 -0.121029 0)
(12.0488 -0.102837 0)
(11.9076 -0.0844511 0)
(12.0235 -0.0798334 0)
(11.8664 -0.124542 0)
(11.9501 -0.0907166 0)
(11.7781 -0.124065 0)
(11.7965 -0.121064 0)
(11.5757 -0.15785 0)
(10.0143 -0.458515 0)
(10.559 -0.705112 0)
(11.176 -0.548187 0)
(11.3484 -0.348087 0)
(11.5798 -0.260446 0)
(11.4452 -0.235292 0)
(11.5051 -0.194863 0)
(11.2911 -0.172259 0)
(11.3151 -0.16 0)
(11.0457 -0.126964 0)
(11.1091 -0.0909101 0)
(10.8311 -0.105605 0)
(10.8855 -0.0876231 0)
(10.6331 -0.071638 0)
(10.704 -0.0648318 0)
(10.4143 -0.0998795 0)
(10.489 -0.0701511 0)
(10.1981 -0.106457 0)
(10.2131 -0.0912467 0)
(9.877 -0.155269 0)
(10.0666 -0.632799 0)
(10.6545 -0.862236 0)
(10.8697 -0.602493 0)
(10.6807 -0.372152 0)
(10.4744 -0.255078 0)
(10.0683 -0.200133 0)
(9.8499 -0.151061 0)
(9.48841 -0.119946 0)
(9.32493 -0.101414 0)
(9.00345 -0.0772178 0)
(8.96179 -0.0506963 0)
(8.66314 -0.0577241 0)
(8.65996 -0.050071 0)
(8.40953 -0.0386722 0)
(8.4432 -0.0355608 0)
(8.16042 -0.0582962 0)
(8.21383 -0.0465717 0)
(7.91704 -0.0626929 0)
(7.92726 -0.067292 0)
(7.58726 -0.0876766 0)
(10.0854 -0.838835 0)
(9.65534 -0.8675 0)
(8.8716 -0.507112 0)
(8.07878 -0.261151 0)
(7.50239 -0.137406 0)
(6.99483 -0.0843578 0)
(6.70485 -0.0533265 0)
(6.39472 -0.0383314 0)
(6.23116 -0.0332688 0)
(6.00216 -0.0260778 0)
(5.95105 -0.0131167 0)
(5.75302 -0.0200649 0)
(5.73559 -0.0198968 0)
(5.56313 -0.0142486 0)
(5.57731 -0.0122731 0)
(5.38037 -0.0277578 0)
(5.39464 -0.0218018 0)
(5.17536 -0.0281988 0)
(5.17335 -0.0363914 0)
(4.88563 -0.0184829 0)
(8.09132 -0.388058 0)
(5.44875 -0.242349 0)
(3.91112 -0.0429985 0)
(3.15602 0.0153758 0)
(2.80414 0.0185838 0)
(2.59448 0.0104456 0)
(2.48511 0.00573043 0)
(2.37924 0.00325739 0)
(2.32236 0.000621915 0)
(2.23985 -0.000286559 0)
(2.22247 0.00258591 0)
(2.16171 -0.000485413 0)
(2.14667 -0.00141284 0)
(2.08184 8.29996e-05 0)
(2.08644 0.000903784 0)
(2.01133 -0.00368892 0)
(1.99493 -0.00134951 0)
(1.90715 -0.00264903 0)
(1.87775 -0.00372704 0)
(1.73097 0.0114768 0)
(2.3069 -0.144097 0)
(2.38749 -0.000863062 0)
(2.52379 0.0635599 0)
(2.63378 0.057894 0)
(2.76154 0.0185737 0)
(2.84167 -0.0218788 0)
(2.9368 -0.0570718 0)
(2.98185 -0.0699547 0)
(3.05609 -0.0665323 0)
(3.08477 -0.0507765 0)
(3.14859 -0.030739 0)
(3.16711 -0.0157872 0)
(3.23078 -0.00583406 0)
(3.25231 -0.000969622 0)
(3.32067 -0.00593729 0)
(3.34984 -0.00317193 0)
(3.41612 -0.010696 0)
(3.45201 -0.0080509 0)
(3.50852 -0.00832154 0)
(3.54239 -0.00895004 0)
(3.58783 -0.00777137 0)
(3.61832 -0.00553255 0)
(3.65319 -0.00528378 0)
(3.68179 0.000332926 0)
(3.70843 0.000473167 0)
(3.73991 0.00487887 0)
(3.76133 0.00820617 0)
(3.79386 0.00902002 0)
(3.8141 0.0147212 0)
(3.84825 0.0170265 0)
(3.87065 0.0191094 0)
(3.90531 0.025885 0)
(3.9235 0.0314883 0)
(3.95655 0.0384877 0)
(3.9753 0.0479077 0)
(4.01617 0.049466 0)
(4.03069 0.050652 0)
(4.07496 0.0420924 0)
(4.07216 0.0299924 0)
(4.1111 0.0139033 0)
(4.09021 0.0106868 0)
(4.09527 0.0184515 0)
(4.07579 0.0628226 0)
(4.06953 0.112271 0)
(4.07676 0.161154 0)
(4.09144 0.196539 0)
(4.17412 0.20094 0)
(4.27733 0.182388 0)
(4.44842 0.12392 0)
(4.57727 0.0392157 0)
(4.7221 -0.0526503 0)
(4.78936 -0.141392 0)
(4.87582 -0.199757 0)
(4.89357 -0.234516 0)
(4.92338 -0.25783 0)
(4.89638 -0.239882 0)
(4.85572 -0.213466 0)
(4.78492 -0.151917 0)
(4.72825 -0.0432137 0)
(4.67649 0.0987027 0)
(4.69075 0.224096 0)
(4.80147 0.330594 0)
(4.92664 0.420562 0)
(5.0814 0.466854 0)
(5.21032 0.439671 0)
(5.32474 0.351904 0)
(5.42273 0.234564 0)
(5.49833 0.120454 0)
(5.58608 0.0108606 0)
(5.62205 -0.110139 0)
(5.71579 -0.221571 0)
(5.76042 -0.292208 0)
(5.85235 -0.403177 0)
(5.96128 -0.530276 0)
(6.00062 -0.626338 0)
(6.104 -0.717001 0)
(6.10094 -0.778949 0)
(6.17637 -0.776316 0)
(6.17958 -0.70292 0)
(6.24807 -0.601377 0)
(6.25843 -0.44126 0)
(6.2945 -0.203621 0)
(6.3968 -0.0213879 0)
(6.55396 0.20423 0)
(6.74015 0.381193 0)
(7.01901 0.542653 0)
(7.40419 0.584915 0)
(7.69199 0.624868 0)
(8.16988 0.582699 0)
(8.44736 0.523895 0)
(8.88189 0.294614 0)
(9.13993 0.106382 0)
(9.53149 -0.148379 0)
(9.73572 -0.392651 0)
(10.1729 -0.772069 0)
(10.2781 -1.04165 0)
(10.5959 -1.4234 0)
(10.8022 -1.80222 0)
(11.0398 -2.20011 0)
(11.2003 -2.59761 0)
(11.5211 -3.05306 0)
(11.695 -3.42949 0)
(11.9338 -3.86092 0)
(12.2933 -4.30864 0)
(12.37 -4.68674 0)
(12.6637 -5.11112 0)
(12.7217 -5.59336 0)
(12.6845 -5.84916 0)
(12.278 -6.06041 0)
(12.1478 -6.17879 0)
(11.4036 -6.17918 0)
(11.4916 -6.06009 0)
(10.4846 -6.03726 0)
(11.4276 -6.08571 0)
(10.3871 -6.19189 0)
(11.4534 -6.0993 0)
(10.8255 -6.28795 0)
(11.4678 -6.07927 0)
(11.5025 -6.03578 0)
(11.4712 -5.6992 0)
(11.6688 -5.19137 0)
(11.4433 -4.73174 0)
(11.5073 -4.13162 0)
(11.7745 -3.68216 0)
(11.8617 -3.09351 0)
(12.0022 -2.41579 0)
(12.3187 -1.86174 0)
(12.4868 -1.09853 0)
(12.5205 -0.354382 0)
(12.6142 0.341609 0)
(12.6694 1.09988 0)
(12.5261 1.84883 0)
(12.5728 2.49653 0)
(12.3065 3.1414 0)
(12.4878 3.821 0)
(12.209 4.3361 0)
(11.8583 4.51036 0)
(11.4011 4.51204 0)
(10.7178 4.37077 0)
(10.5898 3.98763 0)
(10.2695 3.98332 0)
(10.1194 3.70592 0)
(10.1007 3.21052 0)
(9.72063 3.10799 0)
(9.6779 2.55547 0)
(9.46169 1.9172 0)
(9.18838 1.6294 0)
(8.89397 1.1749 0)
(8.7354 0.685529 0)
(8.06859 0.238936 0)
(7.93477 -0.137862 0)
(7.40196 -0.40223 0)
(6.99717 -0.173842 0)
(6.04953 0.177837 0)
(5.96156 0.144008 0)
(5.59088 -0.288046 0)
(5.78285 -0.445416 0)
(4.90246 -0.186999 0)
(4.87941 0.139685 0)
(4.47062 -0.4864 0)
(5.35647 -1.48729 0)
(5.59411 -2.67587 0)
(6.83391 -3.71682 0)
(7.09757 -4.58818 0)
(8.55656 -4.96781 0)
(8.81723 -5.03688 0)
(10.0124 -4.65458 0)
(10.0872 -4.09443 0)
(10.9895 -3.23533 0)
(10.9664 -2.29709 0)
(11.6584 -1.30916 0)
(11.5239 -0.238803 0)
(12.1977 1.00571 0)
(11.7178 2.04943 0)
(12.3615 3.15276 0)
(11.8081 4.26471 0)
(12.4033 5.13175 0)
(11.5285 5.7183 0)
(11.8658 6.03403 0)
(11.2094 6.47466 0)
(11.8741 6.80882 0)
(11.3497 6.49604 0)
(11.858 6.14166 0)
(11.5019 5.74878 0)
(11.3292 4.6907 0)
(11.0105 3.53119 0)
(10.28 2.4881 0)
(9.73986 1.95604 0)
(9.22364 1.64824 0)
(8.38816 2.23435 0)
(8.06424 2.33805 0)
(6.98886 2.29995 0)
(6.89067 2.69487 0)
(6.42014 3.13818 0)
(6.53089 4.30547 0)
(5.5595 4.59581 0)
(5.15966 5.73763 0)
(5.0077 6.71183 0)
(5.09024 7.33473 0)
(3.37459 11.1824 0)
(5.33727 -0.104442 0)
(5.37412 -0.0727245 0)
(5.38363 -0.00850037 0)
(5.37966 0.0034979 0)
(5.39289 -0.0280175 0)
(5.42432 -0.0636917 0)
(5.47648 -0.101244 0)
(5.52293 -0.117269 0)
(5.57602 -0.120181 0)
(5.60611 -0.0996443 0)
(5.64124 -0.0641019 0)
(5.65525 -0.0448183 0)
(5.67423 -0.0287937 0)
(5.68969 -0.0263091 0)
(5.71428 -0.0355543 0)
(5.74275 -0.0371621 0)
(5.77623 -0.0494466 0)
(5.80765 -0.046411 0)
(5.84137 -0.0393489 0)
(5.86748 -0.0396379 0)
(5.89405 -0.029933 0)
(5.91577 -0.0262958 0)
(5.93543 -0.0241019 0)
(5.95387 -0.0160181 0)
(5.9651 -0.0188739 0)
(5.98149 -0.0130259 0)
(5.99208 -0.00912892 0)
(6.00504 -0.0116985 0)
(6.01914 -0.00218426 0)
(6.03411 -0.00241143 0)
(6.04803 0.00286426 0)
(6.07141 0.0110069 0)
(6.07828 0.00976369 0)
(6.10617 0.0232083 0)
(6.11537 0.0279479 0)
(6.14241 0.0261567 0)
(6.16039 0.0325513 0)
(6.18838 0.0235454 0)
(6.19867 0.0177477 0)
(6.22596 0.0178752 0)
(6.2287 0.0156009 0)
(6.22699 0.021347 0)
(6.23783 0.0503892 0)
(6.22168 0.0726887 0)
(6.24001 0.106308 0)
(6.24784 0.144558 0)
(6.28665 0.151104 0)
(6.32452 0.146104 0)
(6.38485 0.108965 0)
(6.42907 0.0419843 0)
(6.44886 -0.0334821 0)
(6.45641 -0.104412 0)
(6.43276 -0.16997 0)
(6.41721 -0.206104 0)
(6.38125 -0.222323 0)
(6.33727 -0.215121 0)
(6.27659 -0.175973 0)
(6.22576 -0.123403 0)
(6.16362 -0.0419016 0)
(6.15705 0.049763 0)
(6.1577 0.151298 0)
(6.25933 0.230509 0)
(6.39073 0.2849 0)
(6.52547 0.31193 0)
(6.66186 0.296993 0)
(6.78079 0.238289 0)
(6.93624 0.149556 0)
(7.03385 0.0419227 0)
(7.17611 -0.0721576 0)
(7.26519 -0.149897 0)
(7.44003 -0.271713 0)
(7.51513 -0.377429 0)
(7.66638 -0.468751 0)
(7.77916 -0.58325 0)
(7.88354 -0.685262 0)
(7.92039 -0.766182 0)
(8.035 -0.8204 0)
(8.00628 -0.815761 0)
(8.09329 -0.78281 0)
(8.0605 -0.685651 0)
(8.17286 -0.541073 0)
(8.16756 -0.334974 0)
(8.39355 -0.147377 0)
(8.44803 0.0517052 0)
(8.71048 0.222453 0)
(8.84277 0.34875 0)
(9.17668 0.401804 0)
(9.34408 0.391435 0)
(9.6475 0.353893 0)
(9.89299 0.247951 0)
(10.1808 0.0807095 0)
(10.405 -0.142652 0)
(10.6738 -0.379889 0)
(10.8763 -0.658053 0)
(11.2008 -0.974624 0)
(11.304 -1.29912 0)
(11.6478 -1.66482 0)
(11.8225 -2.03058 0)
(12.0614 -2.36686 0)
(12.2821 -2.79575 0)
(12.6106 -3.17168 0)
(12.6962 -3.51369 0)
(13.0121 -3.99701 0)
(13.1441 -4.37621 0)
(13.1039 -4.75812 0)
(13.1505 -5.1661 0)
(12.8834 -5.50743 0)
(12.5159 -5.63398 0)
(12.0451 -5.82052 0)
(11.7043 -5.84203 0)
(11.1793 -5.85408 0)
(11.1364 -5.83185 0)
(10.7089 -5.9987 0)
(11.3276 -6.13929 0)
(10.3939 -6.19151 0)
(11.482 -6.26466 0)
(10.6015 -6.41941 0)
(11.5432 -6.19536 0)
(10.9749 -6.11659 0)
(11.0047 -5.5573 0)
(10.8887 -5.10661 0)
(10.7932 -4.75923 0)
(11.093 -4.29042 0)
(11.2774 -3.87306 0)
(11.5396 -3.30367 0)
(11.8648 -2.78431 0)
(12.1819 -2.13071 0)
(12.2286 -1.23349 0)
(12.333 -0.495359 0)
(12.4341 0.29798 0)
(12.23 1.18884 0)
(12.1951 1.9617 0)
(11.9753 2.63939 0)
(11.6691 3.16661 0)
(11.7865 3.85435 0)
(11.5569 4.44002 0)
(11.5475 4.78055 0)
(10.9483 4.96766 0)
(10.5129 4.65178 0)
(10.1412 4.2972 0)
(9.627 4.2045 0)
(9.63593 3.72477 0)
(9.52244 3.38302 0)
(9.21994 3.22308 0)
(9.29623 2.70085 0)
(8.94394 2.17439 0)
(8.77087 1.72925 0)
(8.52696 1.32245 0)
(8.41653 1.03964 0)
(7.9649 0.539786 0)
(7.85766 0.191882 0)
(7.355 -0.0082885 0)
(6.84994 0.36223 0)
(6.13162 0.541596 0)
(5.89489 0.374611 0)
(5.71754 -0.195561 0)
(5.57027 -0.0844215 0)
(5.00957 0.165727 0)
(4.6428 0.286039 0)
(4.98389 -0.699108 0)
(5.11109 -1.90815 0)
(6.00124 -3.27319 0)
(6.4479 -4.32642 0)
(7.38585 -5.32756 0)
(8.269 -5.63701 0)
(8.66116 -5.68753 0)
(9.82844 -5.05229 0)
(9.55331 -4.56236 0)
(10.7093 -3.44509 0)
(10.3653 -2.6907 0)
(11.3636 -1.51872 0)
(10.819 -0.434774 0)
(11.8032 0.892687 0)
(11.2443 1.90138 0)
(12.0283 3.07887 0)
(11.7377 4.12816 0)
(12.1359 5.18891 0)
(11.9874 5.73815 0)
(11.7497 6.22633 0)
(11.7853 6.50676 0)
(11.3683 6.77649 0)
(11.8071 6.4945 0)
(11.2466 6.10001 0)
(11.7798 5.81562 0)
(10.9597 5.01706 0)
(11.2293 4.05047 0)
(9.84362 2.94921 0)
(10.1079 2.37496 0)
(8.8393 2.23213 0)
(8.88808 2.73955 0)
(8.27859 2.75736 0)
(7.46961 2.77665 0)
(7.25471 3.05017 0)
(6.5175 3.37904 0)
(6.83043 4.46808 0)
(6.28263 5.33203 0)
(6.18212 5.53305 0)
(5.51626 6.68944 0)
(8.20807 6.98267 0)
(5.87806 11.6144 0)
(7.99709 -0.079057 0)
(8.00246 -0.0384475 0)
(8.02092 0.0258947 0)
(8.02807 0.0305387 0)
(7.98998 -0.0212922 0)
(7.98359 -0.0731887 0)
(8.00132 -0.136969 0)
(8.03642 -0.141623 0)
(8.09281 -0.135098 0)
(8.12761 -0.117485 0)
(8.16142 -0.0701346 0)
(8.1633 -0.0619111 0)
(8.14588 -0.0427464 0)
(8.14282 -0.0448864 0)
(8.12771 -0.0634174 0)
(8.15073 -0.0504236 0)
(8.17451 -0.0677967 0)
(8.20188 -0.0599738 0)
(8.23791 -0.0462009 0)
(8.2493 -0.06126 0)
(8.26684 -0.0438153 0)
(8.27655 -0.0461298 0)
(8.27507 -0.0473664 0)
(8.28866 -0.0234987 0)
(8.28993 -0.0309668 0)
(8.29634 -0.0188897 0)
(8.30661 -0.00814603 0)
(8.30757 -0.0235298 0)
(8.31733 -0.00900516 0)
(8.32618 -0.0082523 0)
(8.32145 -0.0163526 0)
(8.34025 0.00527041 0)
(8.33917 0.00314726 0)
(8.34443 0.00472591 0)
(8.3615 0.0252693 0)
(8.36214 0.00985632 0)
(8.37729 0.0167887 0)
(8.39299 0.0180416 0)
(8.397 -0.000335805 0)
(8.40998 0.011258 0)
(8.41844 0.011122 0)
(8.41235 0.0143771 0)
(8.41879 0.0444723 0)
(8.42051 0.0625558 0)
(8.42009 0.0870009 0)
(8.42984 0.120831 0)
(8.44826 0.119266 0)
(8.4724 0.110541 0)
(8.49031 0.0894962 0)
(8.52068 0.0280604 0)
(8.51561 -0.0199036 0)
(8.51754 -0.0689215 0)
(8.49204 -0.12061 0)
(8.46323 -0.138594 0)
(8.41606 -0.150316 0)
(8.36384 -0.151343 0)
(8.29539 -0.119502 0)
(8.23905 -0.0824233 0)
(8.16271 -0.0289312 0)
(8.14342 0.0406366 0)
(8.12515 0.107881 0)
(8.17596 0.15515 0)
(8.25832 0.191277 0)
(8.35675 0.185571 0)
(8.46379 0.162067 0)
(8.56173 0.11798 0)
(8.69873 0.0380098 0)
(8.81123 -0.0558309 0)
(8.95298 -0.155594 0)
(9.07285 -0.259702 0)
(9.23081 -0.369781 0)
(9.36529 -0.476352 0)
(9.46285 -0.580402 0)
(9.62378 -0.700955 0)
(9.68047 -0.768137 0)
(9.77779 -0.853644 0)
(9.83824 -0.894907 0)
(9.87127 -0.871445 0)
(9.88007 -0.826583 0)
(9.9615 -0.74575 0)
(9.97186 -0.564995 0)
(10.0711 -0.424117 0)
(10.1444 -0.251229 0)
(10.2897 -0.0616203 0)
(10.4004 0.0661648 0)
(10.6064 0.176814 0)
(10.8038 0.226298 0)
(10.9992 0.217424 0)
(11.1991 0.194177 0)
(11.4395 0.0532615 0)
(11.6515 -0.0664267 0)
(11.859 -0.296449 0)
(12.0485 -0.512226 0)
(12.2627 -0.814249 0)
(12.4947 -1.06451 0)
(12.6057 -1.40844 0)
(12.8907 -1.7545 0)
(13.0629 -2.0947 0)
(13.1771 -2.42279 0)
(13.4326 -2.88228 0)
(13.5124 -3.19195 0)
(13.5293 -3.614 0)
(13.6734 -4.06152 0)
(13.4508 -4.37926 0)
(13.2922 -4.74091 0)
(13.0179 -5.07081 0)
(12.5604 -5.22673 0)
(12.0779 -5.30383 0)
(11.7345 -5.49535 0)
(11.4268 -5.46734 0)
(11.117 -5.60934 0)
(11.1291 -5.78589 0)
(10.9089 -6.0096 0)
(11.016 -6.08693 0)
(10.4719 -6.1843 0)
(11.2864 -6.37154 0)
(10.3677 -6.37062 0)
(11.2275 -6.11684 0)
(9.91637 -5.84612 0)
(10.3193 -5.27954 0)
(10.0544 -5.24439 0)
(10.2408 -4.92779 0)
(10.6388 -4.59123 0)
(10.865 -4.27847 0)
(11.2714 -3.70404 0)
(11.6271 -3.15134 0)
(11.6597 -2.32214 0)
(11.8136 -1.38376 0)
(11.8756 -0.612962 0)
(11.7433 0.385698 0)
(11.7583 1.19502 0)
(11.7375 2.0696 0)
(11.375 2.85239 0)
(11.1316 3.31129 0)
(10.8899 3.89964 0)
(10.8708 4.46094 0)
(10.8131 4.98889 0)
(10.3757 5.2442 0)
(10.1013 4.99311 0)
(9.63988 4.69078 0)
(9.1468 4.37488 0)
(9.07984 3.84736 0)
(8.72526 3.5457 0)
(8.54996 3.24249 0)
(8.68179 2.73501 0)
(8.40424 2.38001 0)
(8.25293 1.92319 0)
(8.04884 1.53463 0)
(7.91408 1.16367 0)
(7.48919 0.739673 0)
(7.26111 0.407113 0)
(6.74115 0.389833 0)
(6.29683 0.804527 0)
(5.77165 0.957187 0)
(5.71022 0.436959 0)
(5.65637 -0.0170913 0)
(5.30663 0.133569 0)
(4.84729 0.587081 0)
(4.59143 0.178099 0)
(4.95964 -0.836013 0)
(5.02291 -2.44757 0)
(5.95885 -3.75623 0)
(6.13283 -5.07301 0)
(7.48862 -5.88119 0)
(7.61989 -6.20601 0)
(8.62215 -6.06126 0)
(8.87877 -5.43611 0)
(9.30717 -4.79469 0)
(9.77084 -3.80218 0)
(9.96945 -2.85349 0)
(10.3056 -1.58739 0)
(10.3375 -0.591846 0)
(10.5992 0.692781 0)
(10.9828 1.78936 0)
(10.929 2.89816 0)
(11.6495 3.92842 0)
(11.2981 5.04779 0)
(12.1353 5.75312 0)
(11.3086 6.33228 0)
(12.0234 6.68557 0)
(11.1023 6.78628 0)
(11.8197 6.58875 0)
(10.9313 6.15782 0)
(11.4771 5.81393 0)
(10.8047 5.15552 0)
(10.8478 4.3296 0)
(9.91672 3.3769 0)
(9.741 2.86703 0)
(8.80182 2.74623 0)
(8.74317 2.88425 0)
(8.10785 3.28175 0)
(7.79459 3.26722 0)
(6.95232 3.40296 0)
(7.22293 3.85677 0)
(6.56183 4.25499 0)
(7.14712 5.65573 0)
(8.0113 5.8506 0)
(6.06234 6.96195 0)
(9.63748 5.08722 0)
(8.09731 11.2732 0)
(10.3013 -0.0601854 0)
(10.2652 -0.0400684 0)
(10.206 0.0281947 0)
(10.1984 0.0319875 0)
(10.167 -0.00956958 0)
(10.1874 -0.0327569 0)
(10.1959 -0.115433 0)
(10.1818 -0.157348 0)
(10.2269 -0.188811 0)
(10.2306 -0.177524 0)
(10.2782 -0.088086 0)
(10.3252 -0.0507563 0)
(10.3117 -0.00191057 0)
(10.3339 0.0060195 0)
(10.2753 -0.0407471 0)
(10.2392 -0.0520915 0)
(10.232 -0.0980637 0)
(10.2132 -0.105067 0)
(10.2667 -0.0696275 0)
(10.3022 -0.0760276 0)
(10.332 -0.0378596 0)
(10.377 -0.0214016 0)
(10.3587 -0.0355568 0)
(10.3518 -0.00738319 0)
(10.3384 -0.0321525 0)
(10.3049 -0.0238231 0)
(10.3117 -0.0101614 0)
(10.3076 -0.0337053 0)
(10.3221 -0.00362991 0)
(10.3433 -0.00824824 0)
(10.3533 -0.0108424 0)
(10.3625 0.0115313 0)
(10.3697 0.00181382 0)
(10.3578 0.0131652 0)
(10.3528 0.0188193 0)
(10.3521 0.0109029 0)
(10.3447 0.0194446 0)
(10.354 0.0162262 0)
(10.3599 0.0050005 0)
(10.3632 0.0172229 0)
(10.3811 0.0131009 0)
(10.3779 0.0165883 0)
(10.3727 0.0459855 0)
(10.3841 0.0522643 0)
(10.3733 0.0752479 0)
(10.372 0.101271 0)
(10.3861 0.0883872 0)
(10.3959 0.0950415 0)
(10.4007 0.0774622 0)
(10.4245 0.0252385 0)
(10.4245 0.0146875 0)
(10.4173 -0.0365489 0)
(10.4072 -0.076762 0)
(10.3815 -0.0751558 0)
(10.3426 -0.112698 0)
(10.3103 -0.098524 0)
(10.2521 -0.070695 0)
(10.2158 -0.0697153 0)
(10.1544 -0.000534486 0)
(10.1509 0.0441379 0)
(10.1143 0.0816022 0)
(10.1865 0.121765 0)
(10.1974 0.132188 0)
(10.3148 0.112266 0)
(10.3743 0.0879767 0)
(10.4811 0.0335311 0)
(10.5513 -0.040183 0)
(10.6865 -0.134928 0)
(10.7753 -0.232494 0)
(10.9043 -0.32626 0)
(11.0075 -0.470976 0)
(11.1389 -0.553608 0)
(11.1856 -0.650269 0)
(11.3431 -0.790834 0)
(11.3574 -0.816057 0)
(11.4253 -0.889835 0)
(11.4333 -0.959811 0)
(11.4692 -0.882636 0)
(11.4256 -0.861463 0)
(11.484 -0.787308 0)
(11.4692 -0.627296 0)
(11.5148 -0.504176 0)
(11.5703 -0.361646 0)
(11.6933 -0.188869 0)
(11.7844 -0.0539308 0)
(11.9171 0.0211819 0)
(12.1482 0.0927225 0)
(12.2682 0.0671986 0)
(12.4597 0.0434908 0)
(12.6895 -0.0855437 0)
(12.7972 -0.235156 0)
(13.0614 -0.415928 0)
(13.1073 -0.649221 0)
(13.3814 -0.928133 0)
(13.469 -1.1874 0)
(13.5844 -1.49989 0)
(13.7457 -1.87635 0)
(13.8347 -2.15831 0)
(13.8387 -2.55775 0)
(13.9594 -2.9383 0)
(13.7979 -3.24151 0)
(13.781 -3.68124 0)
(13.6021 -3.98167 0)
(13.1956 -4.24518 0)
(13.0595 -4.57133 0)
(12.5549 -4.74599 0)
(12.1336 -4.77545 0)
(11.8352 -5.00814 0)
(11.6947 -5.15649 0)
(11.306 -5.25831 0)
(11.2025 -5.54872 0)
(11.1075 -5.73358 0)
(10.7853 -5.88003 0)
(10.6742 -5.89008 0)
(10.5227 -6.18755 0)
(10.8141 -6.28505 0)
(9.84278 -6.07907 0)
(10.1476 -5.73736 0)
(8.69568 -5.48876 0)
(9.75942 -5.36579 0)
(9.12839 -5.49143 0)
(9.82118 -5.14419 0)
(10.1031 -5.04347 0)
(10.3599 -4.62365 0)
(10.7058 -3.9281 0)
(10.7359 -3.19346 0)
(10.6769 -2.28693 0)
(10.9622 -1.47152 0)
(10.7589 -0.498237 0)
(10.7288 0.424251 0)
(10.7634 1.18579 0)
(10.7273 2.20773 0)
(10.5742 3.02471 0)
(10.3508 3.61256 0)
(9.96867 3.99092 0)
(10.0085 4.49733 0)
(9.88683 5.09148 0)
(9.65064 5.50889 0)
(9.42096 5.28338 0)
(8.89417 5.09341 0)
(8.63707 4.59095 0)
(8.50721 4.06414 0)
(8.18901 3.77231 0)
(7.96188 3.27731 0)
(8.12754 2.8302 0)
(7.74747 2.52172 0)
(7.74139 2.011 0)
(7.36934 1.63366 0)
(7.49989 1.3857 0)
(6.92031 1.07188 0)
(6.98345 0.801203 0)
(6.05949 0.80731 0)
(6.10507 1.18271 0)
(5.33264 1.06423 0)
(5.93911 0.440129 0)
(5.30564 0.21336 0)
(5.25162 0.566998 0)
(4.31842 0.836764 0)
(4.80632 0.114964 0)
(4.49586 -1.08073 0)
(5.25352 -2.83541 0)
(5.41204 -4.25378 0)
(6.11104 -5.77786 0)
(7.00786 -6.36691 0)
(7.16115 -6.78655 0)
(8.22429 -6.31327 0)
(7.96053 -5.85897 0)
(8.93228 -4.9345 0)
(8.58169 -4.08842 0)
(9.46932 -2.89607 0)
(8.9347 -1.82551 0)
(9.80744 -0.551277 0)
(9.29231 0.418171 0)
(10.4077 1.60779 0)
(9.80764 2.60441 0)
(11.1272 3.77863 0)
(10.4472 4.78219 0)
(11.5101 5.67521 0)
(10.9949 6.19023 0)
(11.6342 6.80932 0)
(11.1393 6.87245 0)
(11.0473 6.70008 0)
(10.9849 6.35329 0)
(10.5752 5.93029 0)
(10.7476 5.41525 0)
(9.91126 4.73433 0)
(9.9458 3.97378 0)
(8.72433 3.24364 0)
(9.0096 3.10747 0)
(8.19647 3.0845 0)
(8.17191 3.73916 0)
(8.00424 3.69352 0)
(7.25385 3.65989 0)
(7.55392 3.81864 0)
(7.53506 4.18907 0)
(6.94829 5.40186 0)
(9.59264 4.93765 0)
(7.00886 8.37043 0)
(9.63103 3.186 0)
(8.90339 10.0008 0)
(11.9064 -0.0192896 0)
(11.8415 -0.0827761 0)
(11.7517 -0.039874 0)
(11.7448 -0.0423665 0)
(11.7237 -0.0725636 0)
(11.7748 -0.0532562 0)
(11.8251 -0.118132 0)
(11.7873 -0.125275 0)
(11.8133 -0.165355 0)
(11.7767 -0.192862 0)
(11.7636 -0.136655 0)
(11.7996 -0.135807 0)
(11.7984 -0.0601301 0)
(11.8641 -0.0255085 0)
(11.8614 -0.0316725 0)
(11.8345 -1.66786e-05 0)
(11.8222 -0.0672333 0)
(11.7544 -0.0836119 0)
(11.7435 -0.0886115 0)
(11.7492 -0.135286 0)
(11.7689 -0.087295 0)
(11.8382 -0.073928 0)
(11.8714 -0.0514968 0)
(11.8841 0.0106182 0)
(11.8934 -0.019426 0)
(11.8277 0.00107519 0)
(11.8014 -0.000352628 0)
(11.7498 -0.0610822 0)
(11.7348 -0.0250335 0)
(11.7574 -0.0399134 0)
(11.7836 -0.0478252 0)
(11.8394 0.0125527 0)
(11.8816 -0.00629369 0)
(11.9004 0.0254343 0)
(11.9004 0.0456079 0)
(11.8772 0.00449453 0)
(11.8473 0.0284508 0)
(11.8164 0.012909 0)
(11.7914 -0.0232334 0)
(11.7859 0.0119737 0)
(11.799 -0.00618243 0)
(11.8077 -0.000908427 0)
(11.8328 0.0487049 0)
(11.8474 0.031761 0)
(11.8581 0.0587527 0)
(11.8662 0.094481 0)
(11.862 0.0575991 0)
(11.8625 0.0741413 0)
(11.8699 0.0746449 0)
(11.873 0.010405 0)
(11.8631 0.0233983 0)
(11.8769 -0.0127502 0)
(11.8565 -0.0624766 0)
(11.8532 -0.0357345 0)
(11.8475 -0.0791477 0)
(11.8114 -0.0689616 0)
(11.7951 -0.0399144 0)
(11.781 -0.0460548 0)
(11.7426 -0.00132429 0)
(11.7449 0.0463875 0)
(11.74 0.0443101 0)
(11.7726 0.0807861 0)
(11.8268 0.0760001 0)
(11.8871 0.0413489 0)
(11.983 0.0135524 0)
(12.0298 -0.0508416 0)
(12.1397 -0.111664 0)
(12.1866 -0.20485 0)
(12.3138 -0.30029 0)
(12.3326 -0.390066 0)
(12.4732 -0.529955 0)
(12.5038 -0.597716 0)
(12.5601 -0.698744 0)
(12.5943 -0.816053 0)
(12.6423 -0.847229 0)
(12.5663 -0.903272 0)
(12.6078 -0.94638 0)
(12.5441 -0.89066 0)
(12.4904 -0.852208 0)
(12.4529 -0.790943 0)
(12.454 -0.64577 0)
(12.413 -0.550009 0)
(12.4414 -0.422158 0)
(12.5771 -0.269976 0)
(12.5616 -0.174949 0)
(12.741 -0.0782271 0)
(12.8794 -0.0658461 0)
(13.024 -0.0387502 0)
(13.1628 -0.130666 0)
(13.3523 -0.192802 0)
(13.472 -0.382573 0)
(13.6627 -0.523223 0)
(13.6674 -0.75895 0)
(13.9084 -1.02058 0)
(13.9071 -1.24906 0)
(13.9616 -1.59608 0)
(14.0331 -1.89573 0)
(13.9928 -2.18268 0)
(13.9471 -2.59095 0)
(13.8432 -2.86935 0)
(13.6418 -3.18996 0)
(13.5543 -3.59181 0)
(13.0996 -3.72812 0)
(12.8966 -4.04124 0)
(12.6781 -4.31792 0)
(12.1653 -4.33112 0)
(11.972 -4.52836 0)
(11.8757 -4.85768 0)
(11.5568 -4.97394 0)
(11.2515 -5.15632 0)
(11.2102 -5.43177 0)
(10.8214 -5.51008 0)
(10.5354 -5.57915 0)
(10.4574 -5.82377 0)
(10.2851 -6.09482 0)
(9.82707 -5.8699 0)
(8.85065 -5.58817 0)
(8.82497 -5.37814 0)
(7.94379 -5.47304 0)
(9.11507 -5.59956 0)
(8.20816 -5.63233 0)
(9.43 -5.41121 0)
(9.1537 -5.29461 0)
(9.44495 -4.58308 0)
(9.57066 -3.83955 0)
(9.42196 -3.12044 0)
(9.53796 -2.28292 0)
(9.5457 -1.33273 0)
(9.26421 -0.300342 0)
(9.41463 0.49274 0)
(9.32876 1.2047 0)
(9.50214 2.23185 0)
(9.34072 3.11862 0)
(9.26312 3.85869 0)
(8.90101 4.11935 0)
(9.01315 4.56788 0)
(8.81335 5.13424 0)
(8.7739 5.58822 0)
(8.548 5.5324 0)
(8.07861 5.40398 0)
(7.93153 4.74002 0)
(7.67815 4.31743 0)
(7.59365 3.94348 0)
(7.44564 3.27709 0)
(7.49591 2.96076 0)
(7.14454 2.62749 0)
(7.21022 2.22501 0)
(6.94353 1.74457 0)
(7.00881 1.57779 0)
(6.40569 1.26218 0)
(6.38108 1.22867 0)
(5.52253 1.15371 0)
(5.71631 1.49937 0)
(5.20693 0.992561 0)
(5.81078 0.592369 0)