/*--------------------------------*- C++ -*----------------------------------*\
| =========                 |                                                 |
| \\      /  F ield         | OpenFOAM: The Open Source CFD Toolbox           |
|  \\    /   O peration     | Version:  2.4.0                                 |
|   \\  /    A nd           | Web:      www.OpenFOAM.org                      |
|    \\/     M anipulation  |                                                 |
\*---------------------------------------------------------------------------*/
FoamFile
{
    version     2.0;
    format      ascii;
    class       volVectorField;
    location    "1.15";
    object      UMean;
}
// * * * * * * * * * * * * * * * * * * * * * * * * * * * * * * * * * * * * * //

dimensions      [0 1 -1 0 0 0 0];

internalField   nonuniform List<vector> 
8800
(
(8.0934 0.387099 0)
(5.45837 0.242562 0)
(3.92914 0.0429782 0)
(3.16356 -0.0151499 0)
(2.82482 -0.0184395 0)
(2.60264 -0.0107942 0)
(2.51628 -0.0059676 0)
(2.3846 -0.00184343 0)
(2.35869 -0.00193588 0)
(2.25482 1.60274e-05 0)
(2.26294 -0.00122947 0)
(2.17094 0.000686672 0)
(2.19577 -0.000790888 0)
(2.10391 0.00129095 0)
(2.13425 -0.00047442 0)
(2.03934 0.00190845 0)
(2.06873 -0.000456661 0)
(1.9669 0.0015899 0)
(2.02048 0.00683579 0)
(1.73289 -0.0592506 0)
(10.0888 0.836063 0)
(9.64856 0.866144 0)
(8.9004 0.505357 0)
(8.06411 0.261529 0)
(7.53733 0.136787 0)
(6.98023 0.0821616 0)
(6.75928 0.0522729 0)
(6.36807 0.0409217 0)
(6.3074 0.0276505 0)
(5.99056 0.0251568 0)
(6.02726 0.0161967 0)
(5.74392 0.0190943 0)
(5.83652 0.0121591 0)
(5.56115 0.01834 0)
(5.68137 0.0117082 0)
(5.40251 0.0191394 0)
(5.53483 0.015625 0)
(5.23704 0.013832 0)
(5.40803 0.0311935 0)
(5.00989 -0.0440397 0)
(10.0878 0.629971 0)
(10.6215 0.861248 0)
(10.9209 0.599035 0)
(10.6337 0.372852 0)
(10.5268 0.253619 0)
(10.0143 0.196242 0)
(9.9276 0.149957 0)
(9.4138 0.122803 0)
(9.42917 0.0899286 0)
(8.94714 0.0771247 0)
(9.06573 0.0539984 0)
(8.60841 0.0541419 0)
(8.8038 0.0374073 0)
(8.35126 0.0455852 0)
(8.59628 0.031906 0)
(8.13355 0.0433405 0)
(8.40961 0.0360535 0)
(7.9197 0.0407019 0)
(8.226 0.046812 0)
(7.69955 -0.0343653 0)
(10.0754 0.456924 0)
(10.481 0.702801 0)
(11.2679 0.543449 0)
(11.2654 0.351953 0)
(11.6701 0.259245 0)
(11.3357 0.227638 0)
(11.6202 0.195942 0)
(11.164 0.176413 0)
(11.4448 0.141563 0)
(10.9337 0.12727 0)
(11.2497 0.0973043 0)
(10.7095 0.0956672 0)
(11.0685 0.0716916 0)
(10.5027 0.080691 0)
(10.9 0.0589477 0)
(10.3068 0.0766053 0)
(10.7338 0.0553279 0)
(10.1076 0.0835486 0)
(10.5428 0.0511191 0)
(9.88597 0.0772184 0)
(10.2012 0.347079 0)
(10.248 0.564789 0)
(11.2078 0.458136 0)
(11.1462 0.294976 0)
(11.8195 0.205467 0)
(11.5114 0.194428 0)
(12.0493 0.172845 0)
(11.655 0.172261 0)
(12.1593 0.137401 0)
(11.7214 0.136989 0)
(12.2162 0.100155 0)
(11.7464 0.112616 0)
(12.2371 0.0769926 0)
(11.7385 0.103702 0)
(12.2245 0.0642307 0)
(11.7 0.105951 0)
(12.1771 0.0576283 0)
(11.629 0.120719 0)
(12.0772 0.0486216 0)
(11.4868 0.1313 0)
(10.2208 0.250147 0)
(10.1751 0.455181 0)
(11.0405 0.371263 0)
(11.0565 0.250163 0)
(11.6586 0.154996 0)
(11.4886 0.155084 0)
(11.9267 0.134404 0)
(11.7099 0.146761 0)
(12.1005 0.109822 0)
(11.8845 0.119293 0)
(12.2505 0.0797831 0)
(12.0368 0.0993047 0)
(12.3797 0.0624899 0)
(12.1652 0.0935178 0)
(12.4828 0.0561093 0)
(12.2664 0.0972982 0)
(12.5551 0.056513 0)
(12.3338 0.108141 0)
(12.5759 0.0516818 0)
(12.292 0.069947 0)
(10.0835 0.168307 0)
(10.2485 0.358982 0)
(10.7992 0.279758 0)
(11.0771 0.211369 0)
(11.4237 0.108525 0)
(11.5237 0.123184 0)
(11.7017 0.0943488 0)
(11.7417 0.123981 0)
(11.8766 0.0764287 0)
(11.9203 0.102323 0)
(12.039 0.0513991 0)
(12.0871 0.086342 0)
(12.1902 0.0368208 0)
(12.2386 0.0829893 0)
(12.325 0.031858 0)
(12.3717 0.0881277 0)
(12.4402 0.0314528 0)
(12.479 0.0965176 0)
(12.5098 0.0198032 0)
(12.4622 0.0546922 0)
(9.97205 0.105719 0)
(10.3017 0.261131 0)
(10.6327 0.193267 0)
(11.0772 0.161709 0)
(11.2658 0.0704983 0)
(11.5311 0.09012 0)
(11.5562 0.0610487 0)
(11.7404 0.0954018 0)
(11.7288 0.0494143 0)
(11.9113 0.0793614 0)
(11.8924 0.0303951 0)
(12.0745 0.0675327 0)
(12.0466 0.0193504 0)
(12.224 0.0653867 0)
(12.1857 0.0153358 0)
(12.3567 0.0691156 0)
(12.3069 0.0130021 0)
(12.4646 0.0722454 0)
(12.3809 -0.00271965 0)
(12.4351 0.0346709 0)
(9.89958 0.0551373 0)
(10.3373 0.162308 0)
(10.5222 0.110662 0)
(11.0785 0.104066 0)
(11.1599 0.036154 0)
(11.5385 0.0592536 0)
(11.4585 0.0306765 0)
(11.7433 0.0644334 0)
(11.6282 0.0242532 0)
(11.9101 0.054402 0)
(11.792 0.011853 0)
(12.0728 0.0469194 0)
(11.9476 0.00475857 0)
(12.223 0.0452543 0)
(12.0881 0.00130644 0)
(12.3569 0.0459537 0)
(12.2107 -0.00276993 0)
(12.4658 0.0429218 0)
(12.2817 -0.0198254 0)
(12.427 0.00292443 0)
(9.88128 0.0109675 0)
(10.3394 0.0645467 0)
(10.4859 0.0285415 0)
(11.0657 0.0443386 0)
(11.1283 0.00319917 0)
(11.5303 0.0295922 0)
(11.4343 0.00106666 0)
(11.7345 0.0323354 0)
(11.6055 -0.00140775 0)
(11.901 0.0290398 0)
(11.7719 -0.00656248 0)
(12.0658 0.0263454 0)
(11.9305 -0.010209 0)
(12.2189 0.0251442 0)
(12.0739 -0.01381 0)
(12.3562 0.0228475 0)
(12.1992 -0.0201741 0)
(12.4689 0.0152891 0)
(12.2708 -0.0369707 0)
(12.431 -0.0150642 0)
(9.90671 -0.0303837 0)
(10.316 -0.0345985 0)
(10.5131 -0.0537507 0)
(11.0463 -0.0177368 0)
(11.1576 -0.0293574 0)
(11.5144 -0.00198749 0)
(11.4661 -0.0280139 0)
(11.7217 -0.00251595 0)
(11.6396 -0.0269136 0)
(11.892 0.00119312 0)
(11.8086 -0.0244232 0)
(12.0602 0.00342661 0)
(11.9699 -0.0249481 0)
(12.2173 0.00238728 0)
(12.1161 -0.0289635 0)
(12.3589 -0.00290995 0)
(12.2442 -0.0376313 0)
(12.4758 -0.0141209 0)
(12.3184 -0.0529157 0)
(12.4405 -0.0338784 0)
(9.94913 -0.0736532 0)
(10.2893 -0.135548 0)
(10.5764 -0.134903 0)
(11.0375 -0.0804281 0)
(11.2213 -0.060772 0)
(11.5031 -0.0346873 0)
(11.5272 -0.0559365 0)
(11.7135 -0.0379391 0)
(11.7039 -0.0508988 0)
(11.887 -0.0275815 0)
(11.875 -0.0411966 0)
(12.0569 -0.0205103 0)
(12.0381 -0.038411 0)
(12.215 -0.0211508 0)
(12.1865 -0.0428686 0)
(12.3573 -0.0292852 0)
(12.3169 -0.0541342 0)
(12.4739 -0.0444285 0)
(12.3939 -0.0689196 0)
(12.4383 -0.0529209 0)
(9.98093 -0.122694 0)
(10.2859 -0.238789 0)
(10.6512 -0.215733 0)
(11.0615 -0.141826 0)
(11.2941 -0.0926571 0)
(11.5169 -0.0688672 0)
(11.5926 -0.0840856 0)
(11.7287 -0.0728112 0)
(11.7726 -0.0741707 0)
(11.9035 -0.0562718 0)
(11.9442 -0.0580423 0)
(12.0721 -0.044545 0)
(12.1069 -0.0518688 0)
(12.228 -0.0441848 0)
(12.2547 -0.0567122 0)
(12.3675 -0.0543894 0)
(12.3845 -0.0714323 0)
(12.4813 -0.0739469 0)
(12.4631 -0.0896237 0)
(12.4472 -0.0719986 0)
(10.016 -0.181869 0)
(10.2955 -0.343258 0)
(10.7517 -0.297664 0)
(11.1104 -0.197056 0)
(11.3891 -0.126368 0)
(11.5522 -0.107334 0)
(11.6754 -0.11288 0)
(11.7671 -0.108089 0)
(11.8574 -0.0967729 0)
(11.9446 -0.0860544 0)
(12.0269 -0.0746104 0)
(12.1122 -0.0704336 0)
(12.1856 -0.0648624 0)
(12.2655 -0.0689897 0)
(12.3279 -0.0689703 0)
(12.4006 -0.0804271 0)
(12.4498 -0.0863274 0)
(12.5082 -0.105083 0)
(12.5214 -0.110922 0)
(12.4752 -0.102086 0)
(10.0554 -0.257266 0)
(10.315 -0.447631 0)
(10.8925 -0.381326 0)
(11.1774 -0.242935 0)
(11.5221 -0.165359 0)
(11.6012 -0.146751 0)
(11.796 -0.144937 0)
(11.8162 -0.139507 0)
(11.9738 -0.121652 0)
(11.987 -0.112474 0)
(12.1274 -0.0935882 0)
(12.1372 -0.0940523 0)
(12.2596 -0.0798431 0)
(12.2635 -0.0916093 0)
(12.3642 -0.0808009 0)
(12.3605 -0.103243 0)
(12.4336 -0.096888 0)
(12.4159 -0.132408 0)
(12.4371 -0.126762 0)
(12.3294 -0.140823 0)
(10.05 -0.351063 0)
(10.3921 -0.559984 0)
(11.0459 -0.463674 0)
(11.2951 -0.289775 0)
(11.6539 -0.212468 0)
(11.6611 -0.188015 0)
(11.8768 -0.180515 0)
(11.8067 -0.166211 0)
(11.9781 -0.146929 0)
(11.8758 -0.130841 0)
(12.0249 -0.112073 0)
(11.9029 -0.107289 0)
(12.0328 -0.0929637 0)
(11.8948 -0.100708 0)
(12.0011 -0.0879586 0)
(11.8497 -0.108847 0)
(11.922 -0.097866 0)
(11.7553 -0.138362 0)
(11.7605 -0.12684 0)
(11.5297 -0.163152 0)
(10.0031 -0.459329 0)
(10.5592 -0.70015 0)
(11.1675 -0.545694 0)
(11.3657 -0.349927 0)
(11.5566 -0.263225 0)
(11.4463 -0.224807 0)
(11.4927 -0.200361 0)
(11.2831 -0.173656 0)
(11.3023 -0.147147 0)
(11.0589 -0.124689 0)
(11.0911 -0.104155 0)
(10.8377 -0.0945705 0)
(10.89 -0.0804919 0)
(10.6288 -0.0835152 0)
(10.6929 -0.0712715 0)
(10.4205 -0.0883842 0)
(10.4783 -0.0754531 0)
(10.187 -0.116833 0)
(10.1926 -0.0970886 0)
(9.85379 -0.160541 0)
(10.0587 -0.632536 0)
(10.6544 -0.858613 0)
(10.8661 -0.600203 0)
(10.6899 -0.371574 0)
(10.4585 -0.256362 0)
(10.0824 -0.194443 0)
(9.84472 -0.153095 0)
(9.49 -0.120548 0)
(9.33322 -0.0939622 0)
(9.02754 -0.0747605 0)
(8.95732 -0.0591605 0)
(8.68777 -0.0524584 0)
(8.68069 -0.0442998 0)
(8.42182 -0.0462584 0)
(8.45071 -0.0414162 0)
(8.18202 -0.050901 0)
(8.22039 -0.0490336 0)
(7.9217 -0.0705419 0)
(7.92306 -0.0718236 0)
(7.57362 -0.0898525 0)
(10.0799 -0.837478 0)
(9.6568 -0.864468 0)
(8.87597 -0.505743 0)
(8.09145 -0.260857 0)
(7.50241 -0.138394 0)
(7.01593 -0.0813281 0)
(6.71234 -0.0538124 0)
(6.40924 -0.0397397 0)
(6.25187 -0.0296298 0)
(6.03339 -0.0239735 0)
(5.96404 -0.0187039 0)
(5.78318 -0.0182865 0)
(5.76428 -0.0155142 0)
(5.58899 -0.0186848 0)
(5.59399 -0.0165875 0)
(5.40486 -0.023199 0)
(5.41331 -0.022403 0)
(5.18931 -0.0331265 0)
(5.17709 -0.0387918 0)
(4.8795 -0.0203192 0)
(8.0917 -0.387487 0)
(5.4571 -0.242032 0)
(3.92425 -0.0432602 0)
(3.17204 0.0152483 0)
(2.81521 0.018014 0)
(2.61278 0.0111274 0)
(2.50105 0.00559771 0)
(2.39648 0.00228018 0)
(2.34048 0.00145018 0)
(2.26682 0.000423589 0)
(2.24141 0.000676201 0)
(2.1806 -0.000265518 0)
(2.16975 0.000157014 0)
(2.10677 -0.00110929 0)
(2.09963 -0.000364152 0)
(2.02639 -0.00229715 0)
(2.01355 -0.00116822 0)
(1.92127 -0.00386505 0)
(1.88283 -0.00435187 0)
(1.72973 0.0114769 0)
(2.25943 -0.103446 0)
(2.31241 -0.0166429 0)
(2.56978 -0.00915545 0)
(2.65662 -0.0227737 0)
(2.90826 -0.0448216 0)
(2.95529 -0.0494041 0)
(3.17036 -0.0556685 0)
(3.17061 -0.0480869 0)
(3.35111 -0.0531131 0)
(3.32405 -0.0517997 0)
(3.49722 -0.0605873 0)
(3.45779 -0.0608552 0)
(3.63581 -0.0721163 0)
(3.59194 -0.073 0)
(3.77433 -0.0840671 0)
(3.72662 -0.0845867 0)
(3.91638 -0.0956343 0)
(3.86671 -0.0961355 0)
(4.07073 -0.106937 0)
(4.02102 -0.104931 0)
(4.23353 -0.118193 0)
(4.17766 -0.120272 0)
(4.39363 -0.136936 0)
(4.32821 -0.141015 0)
(4.54573 -0.16046 0)
(4.4692 -0.166598 0)
(4.68751 -0.186886 0)
(4.59959 -0.190536 0)
(4.82054 -0.207724 0)
(4.72774 -0.208044 0)
(4.9561 -0.225572 0)
(4.86588 -0.227418 0)
(5.10452 -0.248501 0)
(5.01494 -0.252425 0)
(5.25826 -0.274484 0)
(5.16259 -0.277299 0)
(5.40936 -0.298073 0)
(5.3063 -0.298793 0)
(5.55975 -0.319452 0)
(5.44985 -0.320734 0)
(5.7102 -0.343384 0)
(5.59323 -0.347289 0)
(5.85786 -0.37476 0)
(5.73133 -0.381733 0)
(5.99578 -0.411855 0)
(5.85674 -0.417956 0)
(6.12123 -0.44765 0)
(5.97247 -0.448979 0)
(6.23984 -0.47723 0)
(6.08674 -0.473026 0)
(6.35931 -0.499244 0)
(6.20363 -0.48954 0)
(6.48704 -0.512938 0)
(6.32534 -0.499518 0)
(6.62657 -0.522531 0)
(6.45313 -0.507897 0)
(6.77624 -0.532278 0)
(6.58591 -0.517829 0)
(6.92938 -0.543267 0)
(6.7186 -0.529136 0)
(7.08073 -0.55789 0)
(6.85795 -0.54617 0)
(7.23503 -0.582334 0)
(7.01379 -0.575026 0)
(7.39237 -0.620063 0)
(7.17831 -0.617101 0)
(7.54221 -0.666879 0)
(7.32494 -0.665578 0)
(7.67233 -0.713162 0)
(7.44489 -0.709228 0)
(7.78809 -0.757786 0)
(7.54907 -0.74793 0)
(7.89379 -0.79405 0)
(7.64146 -0.777657 0)
(8.00221 -0.822466 0)
(7.73867 -0.800387 0)
(8.12091 -0.843458 0)
(7.85377 -0.81625 0)
(8.25596 -0.86156 0)
(7.9864 -0.828002 0)
(8.40936 -0.874435 0)
(8.13227 -0.835537 0)
(8.57536 -0.879732 0)
(8.28539 -0.841284 0)
(8.74298 -0.888332 0)
(8.44767 -0.852355 0)
(8.89631 -0.910384 0)
(8.61387 -0.878306 0)
(9.03166 -0.944795 0)
(8.76509 -0.915821 0)
(9.14787 -0.984344 0)
(8.89081 -0.953107 0)
(9.23727 -1.01884 0)
(8.98187 -0.985112 0)
(9.30107 -1.04839 0)
(9.04899 -1.00828 0)
(9.34744 -1.06691 0)
(9.10153 -1.02135 0)
(9.38888 -1.07715 0)
(9.16324 -1.0306 0)
(9.44158 -1.08838 0)
(9.23429 -1.04034 0)
(9.50682 -1.10378 0)
(9.30873 -1.04987 0)
(9.56906 -1.10963 0)
(9.36866 -1.04185 0)
(9.61121 -1.10315 0)
(9.39562 -1.02792 0)
(9.6247 -1.09017 0)
(9.3925 -1.00456 0)
(9.61096 -1.06584 0)
(9.36236 -0.97307 0)
(9.56199 -1.02999 0)
(9.30676 -0.929873 0)
(9.49 -0.985606 0)
(9.25429 -0.879031 0)
(9.42743 -0.930448 0)
(9.21913 -0.819461 0)
(9.37693 -0.86868 0)
(9.18687 -0.753539 0)
(9.33546 -0.798938 0)
(9.16353 -0.685441 0)
(9.31127 -0.734471 0)
(9.14708 -0.623693 0)
(9.29461 -0.678928 0)
(9.12172 -0.571146 0)
(9.2834 -0.624876 0)
(9.08758 -0.512165 0)
(9.26738 -0.559182 0)
(9.05321 -0.4451 0)
(9.24078 -0.488603 0)
(9.02493 -0.378097 0)
(9.20361 -0.425067 0)
(9.0032 -0.319638 0)
(9.16591 -0.373688 0)
(8.98417 -0.271064 0)
(9.12886 -0.325353 0)
(8.96323 -0.222254 0)
(9.09608 -0.27115 0)
(8.93999 -0.168531 0)
(9.0595 -0.219097 0)
(8.92085 -0.122278 0)
(9.01719 -0.16519 0)
(8.90344 -0.076736 0)
(8.97797 -0.118849 0)
(8.88951 -0.0363091 0)
(8.92685 -0.0625857 0)
(8.8677 0.0176962 0)
(8.86938 -0.00912295 0)
(8.84755 0.0721146 0)
(8.81261 0.0443897 0)
(8.82423 0.131661 0)
(8.76863 0.114216 0)
(8.80172 0.201205 0)
(8.73548 0.180768 0)
(8.78498 0.279746 0)
(8.71899 0.2667 0)
(8.75201 0.360895 0)
(8.71014 0.354186 0)
(8.726 0.448938 0)
(8.70276 0.423786 0)
(8.69369 0.526393 0)
(8.69464 0.496267 0)
(8.64006 0.606733 0)
(8.6707 0.572419 0)
(8.56481 0.690752 0)
(8.64556 0.648035 0)
(8.48717 0.773448 0)
(8.59731 0.724819 0)
(8.39083 0.869843 0)
(8.53161 0.797675 0)
(8.25432 0.955328 0)
(8.45246 0.86894 0)
(8.07974 1.05454 0)
(8.35896 0.93569 0)
(7.89808 1.17207 0)
(8.2716 1.01435 0)
(7.71734 1.29245 0)
(8.20456 1.09644 0)
(7.56669 1.43153 0)
(8.13545 1.20219 0)
(7.44054 1.58437 0)
(8.05716 1.33026 0)
(7.32253 1.7472 0)
(7.9385 1.47317 0)
(7.20938 1.92007 0)
(7.77026 1.65058 0)
(7.07499 2.1119 0)
(7.58519 1.88331 0)
(6.89506 2.33306 0)
(7.39561 2.17421 0)
(6.65523 2.61367 0)
(7.13781 2.53501 0)
(6.37403 3.02556 0)
(6.75296 3.00277 0)
(6.04166 3.70436 0)
(6.27061 3.72838 0)
(5.38418 4.82687 0)
(6.37192 5.36555 0)
(4.08938 8.31185 0)
(5.31238 -0.067639 0)
(5.22553 -0.0314416 0)
(5.35865 -0.0428098 0)
(5.32049 -0.0703028 0)
(5.52507 -0.10404 0)
(5.50006 -0.11293 0)
(5.69609 -0.118479 0)
(5.63198 -0.107717 0)
(5.80186 -0.107785 0)
(5.7083 -0.10166 0)
(5.87687 -0.110113 0)
(5.77565 -0.110299 0)
(5.9577 -0.123152 0)
(5.8561 -0.124366 0)
(6.05201 -0.137053 0)
(5.94789 -0.137347 0)
(6.15514 -0.149932 0)
(6.04627 -0.149355 0)
(6.26335 -0.162562 0)
(6.15003 -0.161455 0)
(6.37565 -0.175839 0)
(6.2564 -0.176681 0)
(6.48763 -0.193552 0)
(6.3596 -0.195855 0)
(6.5961 -0.214899 0)
(6.45875 -0.218209 0)
(6.70153 -0.237985 0)
(6.55536 -0.24004 0)
(6.80497 -0.259389 0)
(6.65121 -0.260159 0)
(6.90983 -0.280188 0)
(6.75038 -0.281401 0)
(7.01914 -0.303983 0)
(6.85327 -0.30608 0)
(7.12946 -0.329697 0)
(6.95454 -0.330057 0)
(7.23567 -0.352778 0)
(7.05172 -0.350913 0)
(7.33723 -0.373961 0)
(7.14628 -0.372009 0)
(7.43625 -0.397597 0)
(7.24051 -0.397209 0)
(7.53463 -0.426549 0)
(7.33434 -0.427792 0)
(7.63205 -0.459527 0)
(7.4254 -0.460048 0)
(7.72624 -0.492251 0)
(7.51151 -0.490064 0)
(7.81648 -0.521225 0)
(7.59186 -0.515543 0)
(7.90487 -0.544418 0)
(7.6668 -0.534538 0)
(7.99352 -0.561149 0)
(7.73941 -0.547283 0)
(8.08417 -0.573267 0)
(7.81437 -0.557103 0)
(8.17855 -0.584175 0)
(7.8959 -0.568007 0)
(8.27811 -0.59792 0)
(7.98721 -0.582631 0)
(8.38279 -0.616657 0)
(8.08825 -0.603323 0)
(8.49079 -0.643363 0)
(8.1968 -0.632799 0)
(8.59858 -0.678672 0)
(8.30862 -0.670061 0)
(8.70266 -0.718131 0)
(8.41422 -0.71031 0)
(8.80234 -0.760526 0)
(8.5107 -0.752523 0)
(8.89755 -0.800835 0)
(8.59545 -0.786814 0)
(8.98744 -0.833877 0)
(8.67469 -0.814983 0)
(9.07415 -0.864025 0)
(8.75625 -0.838733 0)
(9.16099 -0.889585 0)
(8.84408 -0.858849 0)
(9.25135 -0.910711 0)
(8.93602 -0.876237 0)
(9.35025 -0.927201 0)
(9.03327 -0.886916 0)
(9.45385 -0.938328 0)
(9.13972 -0.893892 0)
(9.55417 -0.947257 0)
(9.25276 -0.904453 0)
(9.64956 -0.965696 0)
(9.36545 -0.926102 0)
(9.73371 -0.993417 0)
(9.46398 -0.956764 0)
(9.80543 -1.02376 0)
(9.54162 -0.983044 0)
(9.85531 -1.04834 0)
(9.59157 -1.00492 0)
(9.88191 -1.06795 0)
(9.61922 -1.0197 0)
(9.89266 -1.08076 0)
(9.63684 -1.03081 0)
(9.9034 -1.09387 0)
(9.66123 -1.04466 0)
(9.92165 -1.11159 0)
(9.69327 -1.05901 0)
(9.94787 -1.12967 0)
(9.71709 -1.06537 0)
(9.96521 -1.1248 0)
(9.72273 -1.04922 0)
(9.9626 -1.10565 0)
(9.70638 -1.02442 0)
(9.93447 -1.08499 0)
(9.66695 -0.994492 0)
(9.88119 -1.04967 0)
(9.60338 -0.946521 0)
(9.80162 -1.00072 0)
(9.52283 -0.897526 0)
(9.71949 -0.956492 0)
(9.4545 -0.852717 0)
(9.64879 -0.910437 0)
(9.39895 -0.798647 0)
(9.59096 -0.850766 0)
(9.34727 -0.736434 0)
(9.54851 -0.786737 0)
(9.3034 -0.673653 0)
(9.52002 -0.726523 0)
(9.26911 -0.60984 0)
(9.49604 -0.669897 0)
(9.22703 -0.54977 0)
(9.46572 -0.61467 0)
(9.1748 -0.488981 0)
(9.42827 -0.547824 0)
(9.12139 -0.421108 0)
(9.3827 -0.481247 0)
(9.0713 -0.35586 0)
(9.33493 -0.419008 0)
(9.03063 -0.299014 0)
(9.28958 -0.365603 0)
(8.98524 -0.248308 0)
(9.2428 -0.317391 0)
(8.94202 -0.20248 0)
(9.19527 -0.264571 0)
(8.9064 -0.152796 0)
(9.15779 -0.214668 0)
(8.8742 -0.104281 0)
(9.11993 -0.162226 0)
(8.84232 -0.0546535 0)
(9.08605 -0.115239 0)
(8.8089 -0.00657825 0)
(9.04578 -0.0565342 0)
(8.78255 0.0449803 0)
(9.0053 -0.00405051 0)
(8.77181 0.0960231 0)
(8.96256 0.050073 0)
(8.7586 0.151185 0)
(8.91742 0.109858 0)
(8.74381 0.218251 0)
(8.88744 0.175492 0)
(8.7241 0.295489 0)
(8.87261 0.255302 0)
(8.70118 0.382973 0)
(8.87353 0.336389 0)
(8.68865 0.475164 0)
(8.88251 0.40318 0)
(8.6602 0.559403 0)
(8.88278 0.483293 0)
(8.62548 0.645829 0)
(8.87224 0.556339 0)
(8.59331 0.732 0)
(8.85073 0.624489 0)
(8.54978 0.835073 0)
(8.79851 0.704538 0)
(8.47779 0.94803 0)
(8.75424 0.780488 0)
(8.36294 1.05558 0)
(8.7038 0.857325 0)
(8.20966 1.16984 0)
(8.63987 0.926422 0)
(8.03966 1.28286 0)
(8.59057 0.990426 0)
(7.88086 1.39822 0)
(8.54326 1.06371 0)
(7.74415 1.53071 0)
(8.49612 1.17548 0)
(7.63943 1.68063 0)
(8.43355 1.31494 0)
(7.55214 1.84051 0)
(8.34495 1.47533 0)
(7.45182 2.00671 0)
(8.25115 1.66992 0)
(7.31533 2.1985 0)
(8.15088 1.90293 0)
(7.17227 2.45711 0)
(8.00526 2.17666 0)
(7.06194 2.81517 0)
(7.78593 2.5173 0)
(6.92724 3.30349 0)
(7.53518 3.00448 0)
(6.64562 3.99052 0)
(7.54376 3.8176 0)
(6.00103 5.23405 0)
(8.43726 4.66893 0)
(6.48691 8.77015 0)
(7.98838 -0.093425 0)
(7.86356 -0.0871095 0)
(8.00721 -0.107092 0)
(7.92048 -0.119567 0)
(8.1306 -0.137227 0)
(8.05647 -0.13269 0)
(8.25539 -0.134121 0)
(8.13706 -0.120342 0)
(8.30913 -0.122147 0)
(8.16144 -0.114691 0)
(8.33502 -0.125978 0)
(8.18311 -0.126113 0)
(8.37301 -0.143121 0)
(8.22256 -0.14527 0)
(8.42793 -0.162895 0)
(8.27616 -0.16346 0)
(8.49291 -0.179933 0)
(8.33628 -0.178463 0)
(8.56061 -0.194391 0)
(8.39746 -0.192288 0)
(8.62811 -0.209252 0)
(8.45841 -0.208224 0)
(8.69511 -0.227155 0)
(8.5185 -0.227209 0)
(8.76154 -0.247875 0)
(8.57824 -0.248467 0)
(8.82808 -0.269961 0)
(8.638 -0.270005 0)
(8.89438 -0.291624 0)
(8.69614 -0.290903 0)
(8.95888 -0.313274 0)
(8.7519 -0.31277 0)
(9.02128 -0.336948 0)
(8.80479 -0.336793 0)
(9.08032 -0.361977 0)
(8.85388 -0.360505 0)
(9.13571 -0.385285 0)
(8.90088 -0.381579 0)
(9.18926 -0.406587 0)
(8.94836 -0.401871 0)
(9.24334 -0.429125 0)
(8.99914 -0.425267 0)
(9.29986 -0.45619 0)
(9.0528 -0.453722 0)
(9.35765 -0.487398 0)
(9.10594 -0.484904 0)
(9.41362 -0.519108 0)
(9.15373 -0.514524 0)
(9.46472 -0.547252 0)
(9.1933 -0.539112 0)
(9.51058 -0.569489 0)
(9.22553 -0.557174 0)
(9.55231 -0.585977 0)
(9.25386 -0.56994 0)
(9.59203 -0.599191 0)
(9.28439 -0.581097 0)
(9.63392 -0.613502 0)
(9.32409 -0.5953 0)
(9.68178 -0.632201 0)
(9.37546 -0.614221 0)
(9.73472 -0.654003 0)
(9.43354 -0.636529 0)
(9.78874 -0.679102 0)
(9.49082 -0.664206 0)
(9.84073 -0.709947 0)
(9.54202 -0.697617 0)
(9.89027 -0.747364 0)
(9.59023 -0.737511 0)
(9.94279 -0.791065 0)
(9.63673 -0.779861 0)
(9.99145 -0.831968 0)
(9.678 -0.814669 0)
(10.0372 -0.863719 0)
(9.71657 -0.842646 0)
(10.0803 -0.892666 0)
(9.7538 -0.866594 0)
(10.1185 -0.917569 0)
(9.79166 -0.88632 0)
(10.1557 -0.939952 0)
(9.83561 -0.905696 0)
(10.1974 -0.958672 0)
(9.88674 -0.918497 0)
(10.2439 -0.971389 0)
(9.94521 -0.924206 0)
(10.2896 -0.978776 0)
(10.0077 -0.933641 0)
(10.3318 -0.991682 0)
(10.0615 -0.950093 0)
(10.365 -1.01407 0)
(10.1024 -0.975218 0)
(10.385 -1.03694 0)
(10.1258 -0.993542 0)
(10.3837 -1.05503 0)
(10.1283 -1.00795 0)
(10.3633 -1.06796 0)
(10.1172 -1.01802 0)
(10.3285 -1.08001 0)
(10.0993 -1.03043 0)
(10.2991 -1.09702 0)
(10.0853 -1.04727 0)
(10.2751 -1.11841 0)
(10.0708 -1.06363 0)
(10.2479 -1.1349 0)
(10.041 -1.06438 0)
(10.2116 -1.1233 0)
(10.0021 -1.04135 0)
(10.1657 -1.09775 0)
(9.95652 -1.0076 0)
(10.1041 -1.06394 0)
(9.89042 -0.962626 0)
(10.0143 -1.01565 0)
(9.80153 -0.905293 0)
(9.91273 -0.963203 0)
(9.72119 -0.860399 0)
(9.83014 -0.924964 0)
(9.64733 -0.818333 0)
(9.74443 -0.881121 0)
(9.56711 -0.76734 0)
(9.66644 -0.828426 0)
(9.49739 -0.709292 0)
(9.60968 -0.77272 0)
(9.44032 -0.648532 0)
(9.56489 -0.716217 0)
(9.3879 -0.585379 0)
(9.52041 -0.656236 0)
(9.33166 -0.52002 0)
(9.46661 -0.59731 0)
(9.26633 -0.456131 0)
(9.40055 -0.531672 0)
(9.19849 -0.3853 0)
(9.33118 -0.463996 0)
(9.1254 -0.319439 0)
(9.2732 -0.406244 0)
(9.05919 -0.264929 0)
(9.22038 -0.350791 0)
(8.99283 -0.213321 0)
(9.16577 -0.303939 0)
(8.93262 -0.171447 0)
(9.10997 -0.25724 0)
(8.88197 -0.125815 0)
(9.06547 -0.214522 0)
(8.84397 -0.0721348 0)
(9.01688 -0.16317 0)
(8.80976 -0.0218527 0)
(8.9807 -0.117879 0)
(8.78043 0.028068 0)
(8.95133 -0.0595117 0)
(8.76066 0.0789376 0)
(8.93345 -0.0106289 0)
(8.75569 0.129293 0)
(8.9083 0.0415965 0)
(8.76289 0.192969 0)
(8.87695 0.0945859 0)
(8.7529 0.25625 0)
(8.85916 0.160914 0)
(8.7354 0.339941 0)
(8.84099 0.226429 0)
(8.72297 0.423482 0)
(8.83699 0.298063 0)
(8.70868 0.5103 0)
(8.83792 0.379077 0)
(8.69103 0.600031 0)
(8.82949 0.457882 0)
(8.68038 0.688391 0)
(8.81987 0.526929 0)
(8.66555 0.781268 0)
(8.7991 0.599648 0)
(8.62587 0.894466 0)
(8.78505 0.692694 0)
(8.55497 1.01313 0)
(8.7881 0.775403 0)
(8.44053 1.13589 0)
(8.7938 0.86456 0)
(8.28877 1.26308 0)
(8.7994 0.934394 0)
(8.12687 1.38107 0)
(8.79919 0.990587 0)
(7.97844 1.48913 0)
(8.78125 1.05703 0)
(7.85216 1.60694 0)
(8.74276 1.1529 0)
(7.76213 1.75584 0)
(8.69204 1.2884 0)
(7.67919 1.92884 0)
(8.63555 1.44855 0)
(7.58311 2.11909 0)
(8.57271 1.6272 0)
(7.50499 2.34967 0)
(8.46677 1.82895 0)
(7.46983 2.63465 0)
(8.33058 2.09077 0)
(7.4289 2.99859 0)
(8.26195 2.4626 0)
(7.30439 3.47119 0)
(8.39825 2.97063 0)
(7.0037 4.21818 0)
(8.9384 3.48092 0)
(6.74587 5.76945 0)
(9.6642 3.58427 0)
(8.11131 8.04473 0)
(10.2125 -0.121326 0)
(10.0772 -0.20682 0)
(10.2521 -0.25254 0)
(10.1473 -0.235947 0)
(10.3581 -0.217065 0)
(10.246 -0.177328 0)
(10.4371 -0.162118 0)
(10.2839 -0.136532 0)
(10.4549 -0.138368 0)
(10.2799 -0.126971 0)
(10.4546 -0.141281 0)
(10.2774 -0.138547 0)
(10.4661 -0.159554 0)
(10.2903 -0.159484 0)
(10.4916 -0.181675 0)
(10.3143 -0.179944 0)
(10.5243 -0.200596 0)
(10.3422 -0.196165 0)
(10.5584 -0.215594 0)
(10.3705 -0.209856 0)
(10.5925 -0.229839 0)
(10.3988 -0.224531 0)
(10.6263 -0.24647 0)
(10.4267 -0.242169 0)
(10.6592 -0.266078 0)
(10.454 -0.26232 0)
(10.6905 -0.287346 0)
(10.4799 -0.283134 0)
(10.7197 -0.308535 0)
(10.5035 -0.303579 0)
(10.7454 -0.329448 0)
(10.5234 -0.324133 0)
(10.7672 -0.350967 0)
(10.5393 -0.345816 0)
(10.7854 -0.373582 0)
(10.5514 -0.367982 0)
(10.8012 -0.396051 0)
(10.5617 -0.38978 0)
(10.8176 -0.418567 0)
(10.5732 -0.412002 0)
(10.8369 -0.442609 0)
(10.5874 -0.43699 0)
(10.8588 -0.470536 0)
(10.6031 -0.465861 0)
(10.8805 -0.501648 0)
(10.6168 -0.496352 0)
(10.8983 -0.532414 0)
(10.6258 -0.524114 0)
(10.9101 -0.558634 0)
(10.6295 -0.545746 0)
(10.9163 -0.578206 0)
(10.6295 -0.56079 0)
(10.9181 -0.591903 0)
(10.6279 -0.57157 0)
(10.9187 -0.603828 0)
(10.6299 -0.583186 0)
(10.9223 -0.619175 0)
(10.6376 -0.599254 0)
(10.9289 -0.638645 0)
(10.6471 -0.618657 0)
(10.9345 -0.660593 0)
(10.6544 -0.640742 0)
(10.9363 -0.685395 0)
(10.6571 -0.666732 0)
(10.933 -0.71422 0)
(10.6546 -0.699197 0)
(10.9287 -0.753052 0)
(10.651 -0.742512 0)
(10.9256 -0.797664 0)
(10.6439 -0.784246 0)
(10.9184 -0.838276 0)
(10.6295 -0.819035 0)
(10.9061 -0.869624 0)
(10.6151 -0.847112 0)
(10.8909 -0.896569 0)
(10.5967 -0.870564 0)
(10.8721 -0.919692 0)
(10.5827 -0.892 0)
(10.8598 -0.944886 0)
(10.583 -0.914101 0)
(10.8553 -0.964731 0)
(10.5931 -0.929547 0)
(10.8543 -0.976609 0)
(10.6051 -0.935291 0)
(10.8541 -0.984626 0)
(10.6159 -0.94253 0)
(10.8486 -0.993824 0)
(10.6185 -0.95867 0)
(10.8376 -1.01429 0)
(10.6142 -0.97746 0)
(10.8117 -1.03004 0)
(10.5922 -0.98591 0)
(10.7667 -1.03946 0)
(10.5546 -0.992464 0)
(10.7105 -1.04828 0)
(10.5092 -0.999092 0)
(10.6451 -1.06128 0)
(10.4596 -1.01437 0)
(10.583 -1.08169 0)
(10.4066 -1.03165 0)
(10.5212 -1.10103 0)
(10.3462 -1.04401 0)
(10.4511 -1.11413 0)
(10.2788 -1.04181 0)
(10.3797 -1.10369 0)
(10.2102 -1.01927 0)
(10.3037 -1.07691 0)
(10.135 -0.978358 0)
(10.2124 -1.03203 0)
(10.0417 -0.921973 0)
(10.0957 -0.970964 0)
(9.93352 -0.862426 0)
(9.98818 -0.928465 0)
(9.84981 -0.826642 0)
(9.8894 -0.890876 0)
(9.75538 -0.778912 0)
(9.78143 -0.842821 0)
(9.64797 -0.726317 0)
(9.67436 -0.798467 0)
(9.55291 -0.672222 0)
(9.59023 -0.75207 0)
(9.47132 -0.615643 0)
(9.52635 -0.696524 0)
(9.39092 -0.554892 0)
(9.46669 -0.635902 0)
(9.31229 -0.492999 0)
(9.39714 -0.573212 0)
(9.23253 -0.422935 0)
(9.31638 -0.503464 0)
(9.15019 -0.350816 0)
(9.23684 -0.436448 0)
(9.0668 -0.287866 0)
(9.16756 -0.381822 0)
(8.98658 -0.233054 0)
(9.10586 -0.327818 0)
(8.90772 -0.182964 0)
(9.04821 -0.281976 0)
(8.83039 -0.143051 0)
(8.98895 -0.240788 0)
(8.76465 -0.100818 0)
(8.93859 -0.202498 0)
(8.707 -0.0441497 0)
(8.89261 -0.153886 0)
(8.66547 0.00264179 0)
(8.86995 -0.11867 0)
(8.63754 0.0532665 0)
(8.85244 -0.069405 0)
(8.62444 0.0977622 0)
(8.85621 -0.0279618 0)
(8.62028 0.146962 0)
(8.86133 0.0185206 0)
(8.61713 0.21339 0)
(8.8777 0.0800486 0)
(8.59456 0.277525 0)
(8.88834 0.145364 0)
(8.58372 0.36368 0)
(8.8799 0.212185 0)
(8.57463 0.456791 0)
(8.88069 0.289348 0)
(8.54232 0.53103 0)
(8.88988 0.357832 0)
(8.53188 0.622871 0)
(8.90694 0.423518 0)
(8.50288 0.711498 0)
(8.93696 0.497274 0)
(8.4576 0.818199 0)
(8.9505 0.578938 0)
(8.38799 0.936459 0)
(8.98184 0.6674 0)
(8.31432 1.06528 0)
(9.01701 0.746901 0)
(8.22542 1.20034 0)
(9.04472 0.831725 0)
(8.12821 1.33378 0)
(9.06702 0.896969 0)
(8.04011 1.44531 0)
(9.0552 0.962182 0)
(7.96525 1.55853 0)
(9.00977 1.03524 0)
(7.90433 1.68662 0)
(8.9481 1.12159 0)
(7.85643 1.84608 0)
(8.89645 1.24145 0)
(7.82247 2.03243 0)
(8.84757 1.39075 0)
(7.80391 2.23747 0)
(8.79274 1.55612 0)
(7.80147 2.47119 0)
(8.7645 1.76808 0)
(7.76051 2.75324 0)
(8.81776 2.03733 0)
(7.65734 3.12366 0)
(9.01502 2.35887 0)
(7.49137 3.66857 0)
(9.4112 2.65011 0)
(7.36556 4.59299 0)
(9.9937 2.78732 0)
(7.70929 5.98145 0)
(10.2703 3.01026 0)
(9.09923 7.04656 0)
(11.6881 -0.1054 0)
(11.5915 -0.221163 0)
(11.8075 -0.286675 0)
(11.7495 -0.266303 0)
(11.9346 -0.242856 0)
(11.8238 -0.187837 0)
(11.9698 -0.168575 0)
(11.8209 -0.134771 0)
(11.9536 -0.14017 0)
(11.7929 -0.12534 0)
(11.9313 -0.145274 0)
(11.7716 -0.139357 0)
(11.9216 -0.16555 0)
(11.765 -0.161805 0)
(11.9254 -0.188901 0)
(11.7688 -0.183397 0)
(11.9362 -0.208865 0)
(11.7767 -0.200523 0)
(11.9488 -0.224526 0)
(11.7849 -0.214583 0)
(11.9608 -0.238863 0)
(11.7917 -0.229068 0)
(11.9706 -0.255134 0)
(11.7957 -0.246197 0)
(11.977 -0.2742 0)
(11.7964 -0.265699 0)
(11.9801 -0.294869 0)
(11.7944 -0.285844 0)
(11.9806 -0.315471 0)
(11.7909 -0.30539 0)
(11.9795 -0.335265 0)
(11.7865 -0.324237 0)
(11.9768 -0.354974 0)
(11.7813 -0.343604 0)
(11.9729 -0.375446 0)
(11.7753 -0.363982 0)
(11.9682 -0.397036 0)
(11.7688 -0.385736 0)
(11.9635 -0.420155 0)
(11.7621 -0.40935 0)
(11.9594 -0.445666 0)
(11.7547 -0.435807 0)
(11.9549 -0.47413 0)
(11.7455 -0.464722 0)
(11.9481 -0.50435 0)
(11.733 -0.493755 0)
(11.9369 -0.533212 0)
(11.7163 -0.519544 0)
(11.92 -0.557369 0)
(11.6952 -0.539341 0)
(11.8969 -0.575072 0)
(11.6709 -0.552984 0)
(11.8698 -0.588052 0)
(11.6471 -0.564325 0)
(11.8431 -0.601164 0)
(11.6265 -0.577593 0)
(11.8173 -0.616491 0)
(11.6051 -0.593145 0)
(11.7891 -0.633455 0)
(11.5781 -0.610971 0)
(11.7574 -0.653479 0)
(11.5443 -0.631678 0)
(11.7217 -0.675918 0)
(11.5033 -0.654528 0)
(11.6827 -0.702881 0)
(11.4604 -0.6858 0)
(11.644 -0.740762 0)
(11.4147 -0.725957 0)
(11.5963 -0.782375 0)
(11.3608 -0.764135 0)
(11.5396 -0.818899 0)
(11.2998 -0.79638 0)
(11.4779 -0.849909 0)
(11.24 -0.823798 0)
(11.413 -0.87547 0)
(11.179 -0.848171 0)
(11.3492 -0.901948 0)
(11.1291 -0.876896 0)
(11.3011 -0.933496 0)
(11.0938 -0.904334 0)
(11.261 -0.956929 0)
(11.0638 -0.922503 0)
(11.2217 -0.968454 0)
(11.035 -0.930749 0)
(11.1859 -0.976703 0)
(11.0021 -0.936563 0)
(11.1501 -0.985592 0)
(10.9687 -0.950802 0)
(11.1087 -1.0022 0)
(10.9282 -0.959298 0)
(11.0515 -1.00734 0)
(10.8691 -0.960271 0)
(10.9849 -1.01398 0)
(10.8029 -0.964394 0)
(10.9131 -1.02331 0)
(10.7332 -0.970028 0)
(10.834 -1.03776 0)
(10.6614 -0.983401 0)
(10.7472 -1.0574 0)
(10.5836 -0.999509 0)
(10.66 -1.0741 0)
(10.5025 -1.00854 0)
(10.5712 -1.08454 0)
(10.4187 -1.00519 0)
(10.4773 -1.07035 0)
(10.3244 -0.980079 0)
(10.3681 -1.03815 0)
(10.217 -0.933113 0)
(10.2389 -0.985942 0)
(10.0921 -0.867009 0)
(10.0942 -0.92122 0)
(9.98031 -0.817558 0)
(9.97468 -0.88975 0)
(9.87126 -0.778432 0)
(9.84238 -0.844444 0)
(9.74725 -0.721606 0)
(9.70469 -0.793607 0)
(9.61413 -0.66698 0)
(9.57729 -0.756413 0)
(9.49147 -0.621163 0)
(9.46944 -0.719658 0)
(9.37958 -0.571128 0)
(9.38115 -0.666752 0)
(9.27719 -0.512305 0)
(9.29959 -0.607144 0)
(9.18099 -0.449905 0)
(9.2082 -0.544758 0)
(9.08801 -0.378324 0)
(9.11831 -0.474706 0)
(8.99605 -0.305314 0)
(9.03651 -0.408548 0)
(8.90899 -0.246105 0)
(8.95793 -0.35358 0)
(8.82348 -0.190864 0)
(8.88716 -0.30515 0)
(8.74134 -0.141875 0)
(8.82461 -0.259031 0)
(8.65333 -0.0983303 0)
(8.76125 -0.224392 0)
(8.57057 -0.0568411 0)
(8.70667 -0.1867 0)
(8.49415 -0.00828721 0)
(8.67187 -0.151829 0)
(8.45718 0.0245653 0)
(8.65077 -0.123526 0)
(8.42748 0.0817298 0)
(8.63828 -0.0896846 0)
(8.41519 0.123561 0)
(8.6516 -0.0576547 0)
(8.40717 0.17832 0)