/*--------------------------------*- C++ -*----------------------------------*\
| =========                 |                                                 |
| \\      /  F ield         | OpenFOAM: The Open Source CFD Toolbox           |
|  \\    /   O peration     | Version:  2.4.0                                 |
|   \\  /    A nd           | Web:      www.OpenFOAM.org                      |
|    \\/     M anipulation  |                                                 |
\*---------------------------------------------------------------------------*/
FoamFile
{
    version     2.0;
    format      ascii;
    class       surfaceScalarField;
    location    "1.93";
    object      phi_0;
}
// * * * * * * * * * * * * * * * * * * * * * * * * * * * * * * * * * * * * * //

dimensions      [0 3 -1 0 0 0 0];

internalField   nonuniform List<scalar> 
17320
(
1.76387e-05
7.36125e-06
1.16189e-05
6.0198e-06
8.68368e-06
2.93527e-06
7.3531e-06
1.33058e-06
6.71889e-06
6.34208e-07
6.34832e-06
3.70572e-07
6.07055e-06
2.77769e-07
5.86875e-06
2.01807e-07
5.71995e-06
1.48793e-07
5.5709e-06
1.49055e-07
5.47688e-06
9.40235e-08
5.40101e-06
7.58637e-08
5.29118e-06
1.09827e-07
5.2391e-06
5.20819e-08
5.11923e-06
1.19871e-07
5.08781e-06
3.14199e-08
4.97914e-06
1.08675e-07
4.98468e-06
-5.54481e-09
4.79059e-06
1.94092e-07
-4.28717e-07
5.21931e-06
2.5463e-05
6.8983e-06
2.32505e-05
8.23223e-06
2.09928e-05
5.19299e-06
1.9315e-05
3.00839e-06
1.80801e-05
1.86906e-06
1.71157e-05
1.335e-06
1.63575e-05
1.03602e-06
1.57782e-05
7.81051e-07
1.53167e-05
6.10345e-07
1.49234e-05
5.42359e-07
1.46351e-05
3.82278e-07
1.43835e-05
3.27434e-07
1.41335e-05
3.59853e-07
1.39519e-05
2.33722e-07
1.37063e-05
3.65388e-07
1.35827e-05
1.55035e-07
1.33299e-05
3.61472e-07
1.32724e-05
5.20066e-08
1.31336e-05
3.32864e-07
-4.98771e-07
1.32037e-05
2.66215e-05
5.27684e-06
2.71574e-05
7.69627e-06
2.67863e-05
5.56413e-06
2.62453e-05
3.54935e-06
2.56126e-05
2.50174e-06
2.48765e-05
2.07114e-06
2.41501e-05
1.76245e-06
2.35129e-05
1.41825e-06
2.29386e-05
1.18458e-06
2.24354e-05
1.04554e-06
2.20411e-05
7.76614e-07
2.16777e-05
6.90843e-07
2.13509e-05
6.86688e-07
2.10786e-05
5.05951e-07
2.07721e-05
6.71931e-07
2.05737e-05
3.53449e-07
2.02664e-05
6.68717e-07
2.01184e-05
2.00075e-07
2.01111e-05
3.40149e-07
-8.4396e-07
2.04563e-05
2.63251e-05
3.95179e-06
2.7544e-05
6.47734e-06
2.80954e-05
5.01268e-06
2.84479e-05
3.19687e-06
2.86525e-05
2.2972e-06
2.86338e-05
2.08976e-06
2.8463e-05
1.9333e-06
2.82461e-05
1.63516e-06
2.79733e-05
1.45734e-06
2.76819e-05
1.33696e-06
2.74443e-05
1.0142e-06
2.71577e-05
9.77502e-07
2.69294e-05
9.1497e-07
2.66627e-05
7.72602e-07
2.64162e-05
9.1842e-07
2.62075e-05
5.62165e-07
2.59469e-05
9.29315e-07
2.56558e-05
4.91204e-07
2.55187e-05
4.77293e-07
-5.12304e-07
2.5187e-05
2.60296e-05
2.9222e-06
2.72413e-05
5.26566e-06
2.80658e-05
4.18814e-06
2.85139e-05
2.74878e-06
2.89727e-05
1.83844e-06
2.93375e-05
1.7249e-06
2.95751e-05
1.6957e-06
2.97394e-05
1.47086e-06
2.98463e-05
1.35041e-06
2.99058e-05
1.27748e-06
2.99819e-05
9.38162e-07
2.9926e-05
1.03337e-06
3.00058e-05
8.35136e-07
2.99044e-05
8.74008e-07
2.98589e-05
9.63954e-07
2.98013e-05
6.19778e-07
2.97315e-05
9.99113e-07
2.94213e-05
8.01409e-07
2.92831e-05
6.15458e-07
3.26361e-09
2.87675e-05
2.582e-05
2.1022e-06
2.69488e-05
4.13682e-06
2.78275e-05
3.30944e-06
2.82645e-05
2.31177e-06
2.86866e-05
1.41635e-06
2.90946e-05
1.31688e-06
2.94709e-05
1.3194e-06
2.96963e-05
1.24548e-06
3.0008e-05
1.03877e-06
3.01397e-05
1.14577e-06
3.04582e-05
6.19631e-07
3.04604e-05
1.03122e-06
3.07971e-05
4.98398e-07
3.08202e-05
8.50894e-07
3.09873e-05
7.96855e-07
3.10083e-05
5.98795e-07
3.12313e-05
7.7614e-07
3.09566e-05
1.07609e-06
3.09559e-05
6.16104e-07
7.45338e-07
3.02139e-05
2.56693e-05
1.43289e-06
2.66822e-05
3.12391e-06
2.76014e-05
2.39028e-06
2.80666e-05
1.84657e-06
2.85446e-05
9.38357e-07
2.88189e-05
1.04255e-06
2.92463e-05
8.92027e-07
2.94676e-05
1.02412e-06
2.9791e-05
7.15381e-07
2.99485e-05
9.88301e-07
3.0285e-05
2.83185e-07
3.03098e-05
1.00636e-06
3.06925e-05
1.15699e-07
3.07787e-05
7.64689e-07
3.09746e-05
6.00977e-07
3.10202e-05
5.53186e-07
3.14096e-05
3.86707e-07
3.10872e-05
1.39851e-06
3.10272e-05
6.76082e-07
1.64689e-06
3.01257e-05
2.5571e-05
8.61899e-07
2.65719e-05
2.12295e-06
2.74647e-05
1.49751e-06
2.80135e-05
1.29776e-06
2.83683e-05
5.83595e-07
2.86438e-05
7.67048e-07
2.89735e-05
5.62326e-07
2.93454e-05
6.52207e-07
2.95478e-05
5.12946e-07
2.98584e-05
6.77734e-07
3.00552e-05
8.64039e-08
3.02295e-05
8.32078e-07
3.04214e-05
-7.6229e-08
3.07051e-05
4.8096e-07
3.08359e-05
4.70175e-07
3.0856e-05
5.33151e-07
3.10918e-05
1.50921e-07
3.15967e-05
8.93599e-07
3.1859e-05
4.13788e-07
7.43086e-07
3.27628e-05
2.54592e-05
4.02716e-07
2.65276e-05
1.05455e-06
2.72838e-05
7.41325e-07
2.79542e-05
6.2731e-07
2.82011e-05
3.36671e-07
2.85569e-05
4.11298e-07
2.88991e-05
2.20105e-07
2.91649e-05
3.86466e-07
2.95275e-05
1.5034e-07
2.9708e-05
4.97217e-07
2.99312e-05
-1.36788e-07
3.02112e-05
5.52034e-07
3.02204e-05
-8.53882e-08
3.05794e-05
1.21937e-07
3.07133e-05
3.36249e-07
3.09268e-05
3.19689e-07
3.09127e-05
1.64981e-07
3.15323e-05
2.74049e-07
3.1614e-05
3.32066e-07
1.40787e-07
3.22163e-05
2.54293e-05
-2.65573e-08
2.64083e-05
7.54798e-08
2.73062e-05
-1.56527e-07
2.78335e-05
9.99994e-08
2.82195e-05
-4.93212e-08
2.85221e-05
1.08717e-07
2.88563e-05
-1.14084e-07
2.91917e-05
5.1021e-08
2.93472e-05
-5.10684e-09
2.9758e-05
8.64193e-08
2.98432e-05
-2.22006e-07
3.01818e-05
2.13378e-07
3.02079e-05
-1.11444e-07
3.04305e-05
-1.00702e-07
3.07029e-05
6.38591e-08
3.08146e-05
2.07963e-07
3.10926e-05
-1.13009e-07
3.12803e-05
8.63437e-08
3.16756e-05
-6.31831e-08
-1.42572e-07
3.19589e-05
2.54066e-05
-4.332e-07
2.64645e-05
-9.82416e-07
2.726e-05
-9.51984e-07
2.78555e-05
-4.95505e-07
2.81701e-05
-3.63958e-07
2.8607e-05
-3.28141e-07
2.87764e-05
-2.83539e-07
2.91401e-05
-3.12599e-07
2.94355e-05
-3.0051e-07
2.96926e-05
-1.70685e-07
2.98638e-05
-3.93223e-07
3.01397e-05
-6.25046e-08
3.02111e-05
-1.82898e-07
3.042e-05
-3.09533e-07
3.06607e-05
-1.7687e-07
3.08965e-05
-2.78682e-08
3.10218e-05
-2.38271e-07
3.13972e-05
-2.89123e-07
3.1619e-05
-2.84886e-07
-3.18078e-07
3.17945e-05
2.54399e-05
-8.73131e-07
2.65045e-05
-2.047e-06
2.73127e-05
-1.76012e-06
2.79025e-05
-1.08536e-06
2.83118e-05
-7.73217e-07
2.85469e-05
-5.63269e-07
2.88379e-05
-5.7459e-07
2.92246e-05
-6.99202e-07
2.94713e-05
-5.47235e-07
2.97883e-05
-4.87725e-07
2.98734e-05
-4.78347e-07
3.02432e-05
-4.32233e-07
3.0307e-05
-2.4676e-07
3.04559e-05
-4.58368e-07
3.06736e-05
-3.9462e-07
3.09702e-05
-3.24413e-07
3.11596e-05
-4.2766e-07
3.13566e-05
-4.86202e-07
3.16837e-05
-6.11984e-07
-5.13792e-07
3.18794e-05
2.55548e-05
-1.42789e-06
2.66124e-05
-3.10469e-06
2.74094e-05
-2.55711e-06
2.80463e-05
-1.72226e-06
2.8328e-05
-1.05494e-06
2.86528e-05
-8.88038e-07
2.89696e-05
-8.91389e-07
2.93521e-05
-1.08167e-06
2.95854e-05
-7.80512e-07
2.98504e-05
-7.52756e-07
3.00311e-05
-6.5906e-07
3.02518e-05
-6.52944e-07
3.04041e-05
-3.99011e-07
3.06098e-05
-6.64108e-07
3.07966e-05
-5.81457e-07
3.10243e-05
-5.52038e-07
3.12388e-05
-6.42237e-07
3.15651e-05
-8.12491e-07
3.17361e-05
-7.8295e-07
-7.69092e-07
3.19914e-05
2.56768e-05
-2.10473e-06
2.67415e-05
-4.1693e-06
2.75847e-05
-3.40033e-06
2.80628e-05
-2.20037e-06
2.84542e-05
-1.44638e-06
2.88387e-05
-1.27245e-06
2.92036e-05
-1.25638e-06
2.9498e-05
-1.37604e-06
2.97394e-05
-1.02184e-06
3.00299e-05
-1.0433e-06
3.01877e-05
-8.16916e-07
3.0414e-05
-8.79179e-07
3.05999e-05
-5.84919e-07
3.08016e-05
-8.65834e-07
3.08965e-05
-6.76373e-07
3.12029e-05
-8.5838e-07
3.13882e-05
-8.27538e-07
3.16541e-05
-1.07843e-06
3.18739e-05
-1.00275e-06
-1.08092e-06
3.21857e-05
2.58479e-05
-2.95265e-06
2.69582e-05
-5.2796e-06
2.77958e-05
-4.23787e-06
2.82295e-05
-2.63414e-06
2.87009e-05
-1.91771e-06
2.9108e-05
-1.67957e-06
2.94559e-05
-1.60431e-06
2.97193e-05
-1.63947e-06
2.99819e-05
-1.28442e-06
3.01775e-05
-1.23893e-06
3.03703e-05
-1.00966e-06
3.05269e-05
-1.03584e-06
3.07177e-05
-7.75631e-07
3.08432e-05
-9.9137e-07
3.09532e-05
-7.86386e-07
3.11141e-05
-1.01923e-06
3.12112e-05
-9.2465e-07
3.1413e-05
-1.28022e-06
3.15318e-05
-1.12163e-06
-1.36629e-06
3.18172e-05
2.60455e-05
-3.99819e-06
2.72298e-05
-6.4639e-06
2.80136e-05
-5.02167e-06
2.85015e-05
-3.12194e-06
2.89742e-05
-2.39046e-06
2.93343e-05
-2.03965e-06
2.95992e-05
-1.86928e-06
2.9723e-05
-1.76327e-06
2.98499e-05
-1.41126e-06
2.98946e-05
-1.28361e-06
2.99489e-05
-1.06399e-06
2.99438e-05
-1.03073e-06
2.99715e-05
-8.03388e-07
2.99004e-05
-9.20259e-07
2.98747e-05
-7.60627e-07
2.97969e-05
-9.41411e-07
2.96999e-05
-8.2772e-07
2.96428e-05
-1.22309e-06
2.95595e-05
-1.03832e-06
-1.44077e-06
2.9634e-05
2.63106e-05
-5.30881e-06
2.7529e-05
-7.68223e-06
2.80716e-05
-5.56429e-06
2.84602e-05
-3.51062e-06
2.86331e-05
-2.56335e-06
2.86308e-05
-2.03732e-06
2.84785e-05
-1.71693e-06
2.82167e-05
-1.50155e-06
2.79693e-05
-1.16383e-06
2.76839e-05
-9.98162e-07
2.74275e-05
-8.07663e-07
2.71497e-05
-7.5287e-07
2.69253e-05
-5.79013e-07
2.66466e-05
-6.41546e-07
2.64266e-05
-5.40625e-07
2.61453e-05
-6.60166e-07
2.59026e-05
-5.84999e-07
2.55801e-05
-9.00622e-07
2.53441e-05
-8.02226e-07
-1.30552e-06
2.52088e-05
2.66065e-05
-6.91533e-06
2.7152e-05
-8.22775e-06
2.67769e-05
-5.18913e-06
2.62535e-05
-2.98721e-06
2.55902e-05
-1.90004e-06
2.48785e-05
-1.32564e-06
2.41614e-05
-9.9982e-07
2.34905e-05
-8.30671e-07
2.29338e-05
-6.07171e-07
2.24423e-05
-5.06652e-07
2.20313e-05
-3.96654e-07
2.16588e-05
-3.80322e-07
2.13602e-05
-2.80433e-07
2.1046e-05
-3.2732e-07
2.07856e-05
-2.80313e-07
2.04788e-05
-3.5333e-07
2.0215e-05
-3.21177e-07
1.98077e-05
-4.93316e-07
1.94555e-05
-4.50033e-07
-4.63993e-07
1.8614e-05
2.54514e-05
-7.36672e-06
2.32427e-05
-6.01908e-06
2.09863e-05
-2.93266e-06
1.93215e-05
-1.32242e-06
1.80668e-05
-6.45414e-07
1.71142e-05
-3.73035e-07
1.63698e-05
-2.55425e-07
1.57631e-05
-2.23948e-07
1.53085e-05
-1.52555e-07
1.49317e-05
-1.29845e-07
1.4632e-05
-9.69341e-08
1.43583e-05
-1.0662e-07
1.41471e-05
-6.92715e-08
1.3916e-05
-9.61975e-08
1.37181e-05
-8.24063e-08
1.34785e-05
-1.13764e-07
1.3259e-05
-1.01637e-07
1.29335e-05
-1.67882e-07
1.26818e-05
-1.9831e-07
-7.41661e-08
1.2292e-05
1.76333e-05
1.16142e-05
8.68153e-06
7.35911e-06
6.7137e-06
6.34066e-06
6.08524e-06
5.86129e-06
5.70873e-06
5.57889e-06
5.48195e-06
5.37533e-06
5.30606e-06
5.20987e-06
5.12746e-06
5.0137e-06
4.91206e-06
4.74418e-06
4.54587e-06
4.4717e-06
5.72256e-06
-1.97446e-07
-3.05811e-07
6.17231e-06
-2.42636e-08
-4.25487e-07
6.45055e-06
3.52165e-08
-3.13457e-07
6.63734e-06
-1.14211e-08
-1.75361e-07
6.79671e-06
-9.93998e-08
-5.99735e-08
6.93838e-06
-1.63314e-07
2.16389e-08
7.06905e-06
-2.00533e-07
6.98668e-08
7.20394e-06
-2.04409e-07
6.95203e-08
7.33998e-06
-1.78589e-07
4.25504e-08
7.48237e-06
-1.2417e-07
-1.82249e-08
7.63605e-06
-6.37022e-08
-8.99764e-08
7.78274e-06
-7.30795e-09
-1.39383e-07
7.92895e-06
1.62408e-08
-1.62448e-07
8.0614e-06
2.79322e-08
-1.6038e-07
8.17874e-06
1.71043e-08
-1.34443e-07
8.30013e-06
1.22022e-08
-1.336e-07
8.42724e-06
7.16317e-09
-1.34267e-07
8.53131e-06
1.55529e-09
-1.05628e-07
8.60259e-06
-2.97719e-08
-4.15054e-08
8.6503e-06
-4.601e-08
-1.70162e-09
8.69095e-06
-4.67235e-08
6.07674e-09
8.76871e-06
-2.41937e-08
-5.35661e-08
8.85037e-06
3.32819e-08
-1.14944e-07
8.96388e-06
8.97105e-08
-2.03224e-07
9.10725e-06
1.53653e-07
-2.97021e-07
9.24308e-06
1.76764e-07
-3.12596e-07
9.40402e-06
1.6647e-07
-3.27404e-07
9.59165e-06
1.62142e-07
-3.49781e-07
9.75269e-06
1.31584e-07
-2.92618e-07
9.92042e-06
5.59066e-08
-2.23642e-07
1.008e-05
-1.4159e-08
-1.45377e-07
1.02005e-05
-1.01478e-07
-1.90713e-08
1.02931e-05
-2.03956e-07
1.11338e-07
1.03609e-05
-2.886e-07
2.20801e-07
1.03963e-05
-3.74068e-07
3.38684e-07
1.04105e-05
-4.40604e-07
4.26412e-07
1.04065e-05
-4.69978e-07
4.73933e-07
1.04127e-05
-4.80794e-07
4.7468e-07
1.04337e-05
-4.80375e-07
4.59341e-07
1.04752e-05
-4.55414e-07
4.13955e-07
1.04881e-05
-3.71678e-07
3.58701e-07
1.05241e-05
-3.22632e-07
2.86656e-07
1.06273e-05
-2.51595e-07
1.4838e-07
1.07256e-05
-1.77915e-07
7.96462e-08
1.07906e-05
-9.28323e-09
-5.57357e-08
1.08651e-05
5.71013e-08
-1.31556e-07
1.11049e-05
1.08163e-07
-3.4798e-07
1.12946e-05
1.83937e-07
-3.73611e-07
1.14043e-05
1.50894e-07
-2.60636e-07
1.15179e-05
9.80591e-08
-2.11671e-07
1.16668e-05
3.22081e-08
-1.81065e-07
1.18013e-05
1.68798e-08
-1.5141e-07
1.19387e-05
-5.26102e-08
-8.47734e-08
1.21029e-05
-1.17228e-07
-4.70322e-08
1.22707e-05
-2.19176e-07
5.1368e-08
1.24632e-05
-3.21224e-07
1.28727e-07
1.26215e-05
-4.78154e-07
3.19896e-07
1.27637e-05
-7.19921e-07
5.77745e-07
1.27842e-05
-9.88378e-07
9.67898e-07
1.27487e-05
-1.31326e-06
1.34868e-06
1.26155e-05
-1.60616e-06
1.7394e-06
1.2329e-05
-1.89035e-06
2.17687e-06
1.18394e-05
-2.10126e-06
2.59081e-06
1.12454e-05
-2.18581e-06
2.77986e-06
1.07619e-05
-2.13316e-06
2.61665e-06
1.03355e-05
-1.8696e-06
2.29597e-06
9.81723e-06
-1.50893e-06
2.02722e-06
9.24053e-06
-9.13077e-07
1.48977e-06
8.79266e-06
-2.90187e-07
7.38065e-07
8.54052e-06
5.89965e-07
-3.37833e-07
8.84669e-06
1.46429e-06
-1.77046e-06
9.65614e-06
2.37116e-06
-3.18061e-06
1.07727e-05
3.05945e-06
-4.17604e-06
1.19095e-05
3.47183e-06
-4.60861e-06
1.28481e-05
3.58089e-06
-4.51949e-06
1.36085e-05
3.5485e-06
-4.30887e-06
1.43013e-05
3.46527e-06
-4.15809e-06
1.4971e-05
3.44551e-06
-4.11516e-06
1.56589e-05
3.31013e-06
-3.99807e-06
1.64029e-05
3.17374e-06
-3.91776e-06
1.71108e-05
2.92837e-06
-3.63628e-06
1.78554e-05
2.52387e-06
-3.26842e-06
1.86153e-05
2.05273e-06
-2.81269e-06
1.92931e-05
1.44645e-06
-2.12419e-06
1.99757e-05
7.37227e-07
-1.41983e-06
2.06392e-05
-3.70035e-08
-6.2653e-07
2.11697e-05
-8.9539e-07
3.64947e-07
2.16454e-05
-1.69383e-06
1.2181e-06
2.20245e-05
-2.69252e-06
2.31338e-06
2.22819e-05
-3.47196e-06
3.2146e-06
2.24773e-05
-4.24516e-06
4.04979e-06
2.26586e-05
-5.07082e-06
4.88948e-06
2.29467e-05
-5.61534e-06
5.32726e-06
2.33714e-05
-6.13164e-06
5.70695e-06
2.39293e-05
-6.82389e-06
6.26598e-06
2.46724e-05
-7.24166e-06
6.49853e-06
2.54672e-05
-7.68035e-06
6.88555e-06
2.62542e-05
-8.34715e-06
7.56013e-06
2.71771e-05
-8.66403e-06
7.74119e-06
2.78969e-05
-8.96912e-06
8.24929e-06
2.86164e-05
-9.56798e-06
8.84845e-06
2.93279e-05
-9.63413e-06
8.92263e-06
2.97452e-05
-9.88132e-06
9.46402e-06
3.01769e-05
-1.00594e-05
9.62769e-06
3.05061e-05
-1.00625e-05
9.73324e-06
3.06343e-05
-1.01216e-05
9.99341e-06
3.07637e-05
-9.86285e-06
9.73347e-06
3.07887e-05
-9.93943e-06
9.91445e-06
3.07619e-05
-9.40877e-06
9.43558e-06
3.06589e-05
-9.2032e-06
9.30615e-06
3.05993e-05
-8.7886e-06
8.84826e-06
3.05056e-05
-8.26425e-06
8.35788e-06
3.04511e-05
-7.85215e-06
7.9067e-06
3.04564e-05
-7.14113e-06
7.13582e-06
3.05062e-05
-6.5805e-06
6.53071e-06
3.06709e-05
-5.77496e-06
5.61021e-06
3.08327e-05
-4.94838e-06
4.7866e-06
3.11425e-05
-3.97312e-06
3.66339e-06
3.14573e-05
-2.9919e-06
2.6771e-06
3.18626e-05
-1.94399e-06
1.53865e-06
3.22213e-05
-7.31014e-07
3.72305e-07
3.2683e-05
3.11015e-07
-7.72675e-07
3.31536e-05
1.53242e-06
-2.00303e-06
3.3574e-05
2.6387e-06
-3.05915e-06
3.39814e-05
3.73079e-06
-4.13819e-06
3.44086e-05
4.71539e-06
-5.14261e-06
3.46637e-05
5.76927e-06
-6.02431e-06
3.49676e-05
6.38475e-06
-6.68865e-06
3.50642e-05
7.22964e-06
-7.32625e-06
3.50489e-05
7.65257e-06
-7.63732e-06
3.50022e-05
7.87942e-06
-7.83267e-06
3.47412e-05
8.25106e-06
-7.99006e-06
3.44268e-05
8.00589e-06
-7.69151e-06
3.40511e-05
8.05598e-06
-7.68029e-06
3.35507e-05
7.55792e-06
-7.05755e-06
3.30091e-05
7.30603e-06
-6.76442e-06
3.2436e-05
6.53398e-06
-5.96088e-06
3.18768e-05
5.94398e-06
-5.38473e-06
3.13112e-05
5.23939e-06
-4.67381e-06
3.07816e-05
4.13264e-06
-3.60304e-06
3.0373e-05
3.52139e-06
-3.11279e-06
2.98889e-05
2.39783e-06
-1.91368e-06
2.96551e-05
1.28496e-06
-1.05114e-06
2.93258e-05
5.95104e-07
-2.65821e-07
2.91661e-05
-8.45934e-07
1.00564e-06
2.90416e-05
-1.86324e-06
1.98767e-06
2.90187e-05
-2.86319e-06
2.88615e-06
2.89371e-05
-4.12247e-06
4.20407e-06
2.90214e-05
-5.45262e-06
5.36834e-06
2.89682e-05
-6.1588e-06
6.21192e-06
2.88528e-05
-7.70351e-06
7.81898e-06
2.85876e-05
-8.54725e-06
8.81244e-06
2.81788e-05
-9.41951e-06
9.82833e-06
2.7322e-05
-9.79856e-06
1.06554e-05
2.64133e-05
-1.07262e-05
1.16348e-05
2.51761e-05
-9.86911e-06
1.11063e-05
2.38359e-05
-9.76927e-06
1.11094e-05
2.2597e-05
-8.94013e-06
1.01791e-05
2.17574e-05
-8.28576e-06
9.12537e-06
2.07147e-05
-6.41131e-06
7.45398e-06
2.00334e-05
-6.23098e-06
6.91233e-06
1.94691e-05
-4.91097e-06
5.47523e-06
1.92115e-05
-3.5593e-06
3.81687e-06
1.84775e-05
-2.77273e-06
3.50681e-06
1.83418e-05
-2.91707e-06
3.0527e-06
1.84322e-05
-8.25662e-07
7.35297e-07
1.855e-05
3.36236e-07
-4.54067e-07
1.79002e-05
8.59046e-07
-2.09177e-07
1.76358e-05
4.38895e-07
-1.74573e-07
1.76272e-05
1.27248e-07
-1.18629e-07
1.84076e-05
1.73724e-06
-2.51764e-06
1.89913e-05
2.60506e-06
-3.18876e-06
1.926e-05
4.49157e-06
-4.76022e-06
1.97154e-05
3.58462e-06
-4.04001e-06
1.97478e-05
3.0409e-06
-3.07336e-06
1.98403e-05
1.39069e-06
-1.48316e-06
1.96651e-05
-1.09239e-06
1.26758e-06
1.92839e-05
-5.57553e-06
5.95673e-06
1.92129e-05
-1.44338e-05
1.45048e-05
1.86347e-05
-1.81714e-05
1.87496e-05
1.80264e-05
-2.11832e-05
2.17915e-05
1.65519e-05
-1.87448e-05
2.02194e-05
1.54327e-05
-1.68221e-05
1.79412e-05
1.50183e-05
-1.35908e-05
1.40052e-05
1.50049e-05
-1.01199e-05
1.01333e-05
1.52545e-05
-6.71518e-06
6.46564e-06
1.56764e-05
-2.8963e-06
2.47436e-06
1.6149e-05
-2.72245e-07
-2.00339e-07
1.72807e-05
4.11412e-06
-5.24585e-06
1.85354e-05
1.01899e-05
-1.14446e-05
1.91556e-05
1.58701e-05
-1.64903e-05
1.97491e-05
2.0362e-05
-2.09555e-05
2.04097e-05
2.52273e-05
-2.58879e-05
2.09528e-05
2.98739e-05
-3.0417e-05
2.05196e-05
3.35187e-05
-3.30855e-05
1.93965e-05
3.53507e-05
-3.42276e-05
1.75459e-05
3.7019e-05
-3.51684e-05
1.56086e-05
3.73401e-05
-3.54028e-05
1.53064e-05
3.90526e-05
-3.87503e-05
4.41859e-05
-4.43038e-05
1.54243e-05
1.32558e-05
-2.49596e-07
1.332e-05
-8.84843e-08
1.33734e-05
-1.81028e-08
1.33966e-05
-3.46569e-08
1.34227e-05
-1.25471e-07
1.34761e-05
-2.16708e-07
1.35642e-05
-2.88667e-07
1.36559e-05
-2.96144e-07
1.37323e-05
-2.54937e-07
1.38005e-05
-1.92384e-07
1.38716e-05
-1.34862e-07
1.39492e-05
-8.4891e-08
1.402e-05
-5.45641e-08
1.40908e-05
-4.27949e-08
1.41503e-05
-4.24766e-08
1.42138e-05
-5.12576e-08
1.42791e-05
-5.81635e-08
1.43375e-05
-5.68049e-08
1.43803e-05
-7.25663e-08
1.44184e-05
-8.41188e-08
1.44546e-05
-8.29432e-08
1.45089e-05
-7.84883e-08
1.45726e-05
-3.04084e-08
1.46589e-05
3.36977e-09
1.4759e-05
5.35788e-08
1.48611e-05
7.46378e-08
1.49544e-05
7.32226e-08
1.50721e-05
4.44284e-08
1.51874e-05
1.62982e-08
1.52916e-05
-4.82943e-08
1.54052e-05
-1.27774e-07
1.54951e-05
-1.9138e-07
1.5578e-05
-2.86812e-07
1.56297e-05
-3.40364e-07
1.56802e-05
-4.24588e-07
1.56997e-05
-4.60103e-07
1.57237e-05
-4.9394e-07
1.57537e-05
-5.10768e-07
1.5769e-05
-4.95685e-07
1.5797e-05
-4.83416e-07
1.58365e-05
-4.11232e-07
1.58938e-05
-3.79884e-07
1.5936e-05
-2.93765e-07
1.59875e-05
-2.29464e-07
1.60874e-05
-1.09159e-07
1.61814e-05
-3.69272e-08
1.62736e-05
1.59415e-08
1.64053e-05
5.22803e-08
1.65021e-05
5.40604e-08
1.65673e-05
3.29372e-08
1.66544e-05
-5.48881e-08
1.67607e-05
-8.95085e-08
1.68671e-05
-1.58946e-07
1.6973e-05
-2.23123e-07
1.7086e-05
-3.3224e-07
1.72312e-05
-4.66381e-07
1.73264e-05
-5.73346e-07
1.742e-05
-8.13577e-07
1.74165e-05
-9.84831e-07
1.73611e-05
-1.25788e-06
1.72433e-05
-1.48831e-06
1.6992e-05
-1.63909e-06
1.67147e-05
-1.8239e-06
1.63498e-05
-1.82095e-06
1.59532e-05
-1.73656e-06
1.55048e-05
-1.42117e-06
1.5064e-05
-1.06814e-06
1.47108e-05
-5.59862e-07
1.43644e-05
5.61483e-08
1.42052e-05
7.49155e-07
1.41865e-05
1.483e-06
1.44355e-05
2.12221e-06
1.48573e-05
2.63765e-06
1.53881e-05
2.94103e-06
1.59315e-05
3.03743e-06
1.64617e-05
3.01837e-06
1.69968e-05
2.93017e-06
1.75811e-05
2.8612e-06
1.81902e-05
2.70099e-06
1.88619e-05
2.50204e-06
1.95545e-05
2.23575e-06
2.02168e-05
1.86165e-06
2.09083e-05
1.36115e-06
2.15753e-05
7.79441e-07
2.21938e-05
1.1881e-07
2.27901e-05
-6.3335e-07
2.33048e-05
-1.41006e-06
2.37885e-05
-2.17754e-06
2.42075e-05
-3.11153e-06
2.46221e-05
-3.88658e-06
2.50758e-05
-4.69881e-06
2.55465e-05
-5.54158e-06
2.61182e-05
-6.18697e-06
2.68275e-05
-6.84098e-06
2.75219e-05
-7.51829e-06
2.82865e-05
-8.00621e-06
2.90706e-05
-8.46446e-06
2.96859e-05
-8.96245e-06
3.03707e-05
-9.34887e-06
3.09166e-05
-9.51498e-06
3.12073e-05
-9.85874e-06
3.15371e-05
-9.96392e-06
3.16153e-05
-9.95947e-06
3.16273e-05
-1.00714e-05
3.15516e-05
-9.98674e-06
3.13185e-05
-9.8886e-06
3.11718e-05
-9.71615e-06
3.08184e-05
-9.586e-06
3.05967e-05
-9.18701e-06
3.03282e-05
-8.93476e-06
3.01489e-05
-8.60926e-06
3.00514e-05
-8.16676e-06
2.99854e-05
-7.78614e-06
3.007e-05
-7.22576e-06
3.01826e-05
-6.69304e-06
3.04184e-05
-6.01084e-06
3.06633e-05
-5.19321e-06
3.10324e-05
-4.34227e-06
3.14163e-05
-3.37579e-06
3.18441e-05
-2.37176e-06
3.22807e-05
-1.16762e-06
3.27031e-05
-1.11352e-07
3.31298e-05
1.10569e-06
3.35768e-05
2.19165e-06
3.38913e-05
3.41631e-06
3.43639e-05
4.24286e-06
3.46608e-05
5.47235e-06
3.50297e-05
6.01584e-06
3.53519e-05
6.90745e-06
3.55073e-05
7.4971e-06
3.56826e-05
7.70421e-06
3.56895e-05
8.24409e-06
3.56383e-05
8.05708e-06
3.54989e-05
8.1954e-06
3.52656e-05
7.79119e-06
3.49651e-05
7.60654e-06
3.45286e-05
6.97052e-06
3.41315e-05
6.34103e-06
3.36286e-05
5.7423e-06
3.31839e-05
4.57735e-06
3.27514e-05
3.95393e-06
3.23489e-05
2.80035e-06
3.20162e-05
1.61759e-06
3.17105e-05
9.00809e-07
3.14225e-05
-5.57902e-07
3.12592e-05
-1.69995e-06
3.09938e-05
-2.59778e-06
3.07941e-05
-3.9228e-06
3.05549e-05
-5.21341e-06
3.02538e-05
-5.85763e-06
2.97153e-05
-7.16508e-06
2.91495e-05
-7.9814e-06
2.8285e-05
-8.55499e-06
2.73011e-05
-8.81471e-06
2.61073e-05
-9.53233e-06
2.49516e-05
-8.71343e-06
2.36345e-05
-8.45222e-06
2.27618e-05
-8.06739e-06
2.20226e-05
-7.54656e-06
2.1336e-05
-5.72467e-06
2.07577e-05
-5.65269e-06
2.03265e-05
-4.47983e-06
2.01156e-05
-3.34841e-06
1.957e-05
-2.22712e-06
1.90753e-05
-2.42237e-06
1.92313e-05
-9.81662e-07
1.93212e-05
2.46366e-07
1.88322e-05
1.34799e-06
1.83688e-05
9.02293e-07
1.80595e-05
4.36563e-07
1.8381e-05
1.41581e-06
1.87071e-05
2.27893e-06
1.89663e-05
4.23236e-06
1.91869e-05
3.36399e-06
1.94116e-05
2.81619e-06
1.93292e-05
1.47315e-06
1.92591e-05
-1.02227e-06
1.89183e-05
-5.2348e-06
1.89666e-05
-1.44821e-05
1.81101e-05
-1.73149e-05
1.71788e-05
-2.02519e-05
1.5477e-05
-1.70431e-05
1.40101e-05
-1.53552e-05
1.36428e-05
-1.32235e-05
1.3871e-05
-1.03481e-05
1.44398e-05
-7.28398e-06
1.4961e-05
-3.4175e-06
1.54142e-05
-7.25411e-07
1.64297e-05
3.09857e-06
1.77758e-05
8.84383e-06
1.88881e-05
1.47578e-05
1.96491e-05
1.96011e-05
2.06413e-05
2.42351e-05
2.13956e-05
2.91196e-05
2.14191e-05
3.34951e-05
2.13477e-05
3.54221e-05
2.11148e-05
3.72519e-05
1.94174e-05
3.90375e-05
2.24634e-05
3.60065e-05
4.59962e-05
2.06532e-05
2.0258e-05
-5.13016e-08
2.00129e-05
1.56557e-07
1.98541e-05
1.40707e-07
1.98169e-05
2.5859e-09
1.98659e-05
-1.74438e-07
1.99414e-05
-2.92236e-07
1.99955e-05
-3.42798e-07
2.00392e-05
-3.39805e-07
2.00606e-05
-2.76409e-07
2.00856e-05
-2.17303e-07
2.01115e-05
-1.60824e-07
2.0142e-05
-1.1537e-07
2.01739e-05
-8.64603e-08
2.02046e-05
-7.35268e-08
2.02475e-05
-8.53299e-08
2.02826e-05
-8.64117e-08
2.03279e-05
-1.03405e-07
2.03617e-05
-9.06555e-08
2.03954e-05
-1.06218e-07
2.04159e-05
-1.04586e-07
2.04321e-05
-9.92027e-08
2.04527e-05
-9.90347e-08
2.04846e-05
-6.23721e-08
2.05319e-05
-4.39567e-08
2.05915e-05
-6.01126e-09
2.06651e-05
1.08561e-09
2.07348e-05
3.49425e-09
2.08123e-05
-3.30332e-08
2.08947e-05
-6.61628e-08
2.09753e-05
-1.28871e-07
2.10534e-05
-2.0586e-07
2.1118e-05
-2.56011e-07
2.11771e-05
-3.45861e-07
2.12129e-05
-3.76165e-07
2.12418e-05
-4.53555e-07
2.126e-05
-4.78225e-07
2.12626e-05
-4.96557e-07
2.12802e-05
-5.2838e-07
2.12785e-05
-4.93975e-07
2.12899e-05
-4.9484e-07
2.13154e-05
-4.36685e-07
2.13404e-05
-4.04966e-07
2.13776e-05
-3.30889e-07
2.14241e-05
-2.75947e-07
2.14978e-05
-1.82877e-07
2.15799e-05
-1.19079e-07
2.16508e-05
-5.49336e-08
2.17153e-05
-1.21942e-08
2.18008e-05
-3.14538e-08
2.18631e-05
-2.93582e-08
2.18945e-05
-8.62796e-08
2.19677e-05
-1.62694e-07
2.20288e-05
-2.20037e-07
2.2121e-05
-3.15339e-07
2.2184e-05
-3.95238e-07
2.22674e-05
-5.49788e-07
2.23335e-05
-6.39428e-07
2.235e-05
-8.3014e-07
2.23578e-05
-9.92565e-07
2.22548e-05
-1.15494e-06
2.21539e-05
-1.38743e-06
2.19474e-05
-1.43257e-06
2.17041e-05
-1.58058e-06
2.13837e-05
-1.50059e-06
2.10258e-05
-1.37862e-06
2.07217e-05
-1.11707e-06
2.03659e-05
-7.12377e-07
2.01203e-05
-3.14247e-07
1.9848e-05
3.28396e-07
1.97122e-05
8.85029e-07
1.97005e-05
1.4947e-06
1.97769e-05
2.04581e-06
1.99833e-05
2.43118e-06
2.02167e-05
2.70771e-06
2.04654e-05
2.78873e-06
2.07414e-05
2.74233e-06
2.10238e-05
2.64779e-06
2.13906e-05
2.49443e-06
2.18013e-05
2.2902e-06
2.22666e-05
2.03675e-06
2.2813e-05
1.68939e-06
2.33635e-05
1.31118e-06
2.39607e-05
7.6392e-07
2.45549e-05
1.85282e-07
2.51641e-05
-4.90409e-07
2.57648e-05
-1.23408e-06
2.63273e-05
-1.9726e-06
2.69567e-05
-2.80689e-06
2.75131e-05
-3.66794e-06
2.81147e-05
-4.48823e-06
2.87201e-05
-5.30414e-06
2.92736e-05
-6.09509e-06
2.98956e-05
-6.80895e-06
3.04846e-05
-7.43001e-06
3.10029e-05
-8.03659e-06
3.14816e-05
-8.48491e-06
3.19288e-05
-8.91164e-06
3.22128e-05
-9.24648e-06
3.24026e-05
-9.53867e-06
3.25876e-05
-9.69999e-06
3.24699e-05
-9.74098e-06
3.23504e-05
-9.84447e-06
3.21257e-05
-9.73475e-06
3.17685e-05
-9.71422e-06
3.13978e-05
-9.61604e-06
3.09928e-05
-9.48363e-06
3.06574e-05
-9.38067e-06
3.01948e-05
-9.1235e-06
2.99898e-05
-8.98199e-06
2.97839e-05
-8.72879e-06
2.96876e-05
-8.513e-06
2.97362e-05
-8.21533e-06
2.98227e-05
-7.87267e-06
3.00668e-05
-7.46983e-06
3.03579e-05
-6.9842e-06
3.06869e-05
-6.33985e-06
3.11372e-05
-5.6435e-06
3.1567e-05
-4.77204e-06
3.2066e-05
-3.87484e-06
3.25055e-05
-2.81122e-06
3.29436e-05
-1.60571e-06
3.33487e-05
-5.1646e-07
3.36494e-05
8.04939e-07
3.39841e-05
1.85704e-06
3.41697e-05
3.23071e-06
3.44061e-05
4.00639e-06
3.45867e-05
5.29175e-06
3.47424e-05
5.86018e-06
3.49851e-05
6.66472e-06
3.51142e-05
7.36798e-06
3.52761e-05
7.54231e-06
3.53788e-05
8.1414e-06
3.54491e-05
7.98675e-06
3.54695e-05
8.17508e-06
3.542e-05
7.84061e-06
3.53826e-05
7.644e-06
3.51645e-05
7.18864e-06
3.49682e-05
6.53726e-06
3.46504e-05
6.06012e-06
3.43404e-05
4.88737e-06
3.39667e-05
4.32763e-06
3.36334e-05
3.13368e-06
3.32848e-05
1.96616e-06
3.29619e-05
1.22376e-06
3.26215e-05
-2.1754e-07
3.22974e-05
-1.37589e-06
3.19107e-05
-2.21103e-06
3.14902e-05
-3.50232e-06
3.09832e-05
-4.70643e-06
3.04233e-05
-5.29772e-06
2.9611e-05
-6.35273e-06
2.88254e-05
-7.19584e-06
2.77739e-05
-7.50343e-06
2.68241e-05
-7.86496e-06
2.55755e-05
-8.28374e-06
2.46759e-05
-7.81386e-06
2.36219e-05
-7.39821e-06
2.30476e-05
-7.49309e-06
2.23478e-05
-6.84673e-06
2.21226e-05
-5.49945e-06
2.14522e-05
-4.98229e-06
2.12443e-05
-4.27198e-06
2.08663e-05
-2.97034e-06
2.07254e-05
-2.08629e-06
1.99181e-05
-1.61505e-06
1.99588e-05
-1.02233e-06
1.96316e-05
5.73549e-07
1.94562e-05
1.52337e-06
1.88095e-05
1.54903e-06
1.86437e-05
6.02325e-07
1.86198e-05
1.43976e-06
1.88181e-05
2.0806e-06
1.88953e-05
4.1552e-06
1.89483e-05
3.311e-06
1.88263e-05
2.93819e-06
1.86691e-05
1.63035e-06
1.85463e-05
-8.9949e-07
1.86326e-05
-5.32114e-06
1.87042e-05
-1.45536e-05
1.71341e-05
-1.57449e-05
1.59594e-05
-1.90772e-05
1.40795e-05
-1.51632e-05
1.23874e-05
-1.3663e-05
1.20046e-05
-1.28408e-05
1.25481e-05
-1.08917e-05
1.33708e-05
-8.10663e-06
1.44377e-05
-4.48437e-06
1.464e-05
-9.27741e-07
1.56645e-05
2.0741e-06
1.6864e-05
7.64429e-06
1.83735e-05
1.32483e-05
1.92159e-05
1.87587e-05
2.03969e-05
2.30541e-05
2.21381e-05
2.73784e-05
2.27147e-05
3.29185e-05
2.26024e-05
3.55344e-05
2.3926e-05
3.59283e-05
2.29817e-05
3.99818e-05
2.61585e-05
3.28297e-05
4.68706e-05
2.52841e-05
2.51587e-05
-2.29756e-08
2.52241e-05
9.11734e-08
2.53002e-05
6.45566e-08
2.5376e-05
-7.31811e-08
2.54396e-05
-2.38064e-07
2.54747e-05
-3.27371e-07
2.54974e-05
-3.65514e-07
2.54838e-05
-3.26129e-07
2.54838e-05
-2.76395e-07
2.54749e-05
-2.08491e-07
2.54864e-05
-1.72309e-07
2.54891e-05
-1.18065e-07
2.55167e-05
-1.13995e-07
2.55268e-05
-8.36866e-08
2.55484e-05
-1.06892e-07
2.55669e-05
-1.04936e-07
2.55878e-05
-1.24296e-07
2.56098e-05
-1.12623e-07
2.56321e-05
-1.28561e-07
2.56501e-05
-1.226e-07
2.56622e-05
-1.11322e-07
2.56805e-05
-1.17319e-07
2.5695e-05
-7.68852e-08
2.57295e-05
-7.84322e-08
2.57581e-05
-3.46346e-08
2.58033e-05
-4.4046e-08
2.58456e-05
-3.88375e-08
2.58953e-05
-8.27608e-08
2.59375e-05
-1.08321e-07
2.59942e-05
-1.85616e-07
2.60388e-05
-2.5046e-07
2.60797e-05
-2.96847e-07
2.61192e-05
-3.85388e-07
2.61352e-05
-3.92169e-07
2.61614e-05
-4.7976e-07
2.61666e-05
-4.83406e-07
2.61743e-05
-5.04271e-07
2.61775e-05
-5.31625e-07
2.61824e-05
-4.98829e-07
2.61744e-05
-4.86819e-07
2.61952e-05
-4.57505e-07
2.6182e-05
-3.91751e-07
2.62018e-05
-3.50716e-07
2.62112e-05
-2.85294e-07
2.62256e-05
-1.97319e-07
2.62793e-05
-1.72775e-07
2.63084e-05
-8.40444e-08
2.63821e-05
-8.59383e-08
2.64193e-05
-6.86063e-08
2.65003e-05
-1.1041e-07
2.65383e-05
-1.24203e-07
2.65964e-05
-2.20828e-07
2.66602e-05
-2.83879e-07
2.66981e-05
-3.53185e-07
2.67722e-05
-4.69348e-07
2.67779e-05
-5.55449e-07
2.68264e-05
-6.87998e-07
2.67928e-05
-7.96514e-07
2.67551e-05
-9.54824e-07
2.6656e-05
-1.05583e-06
2.65017e-05
-1.23319e-06
2.63255e-05
-1.25631e-06
2.60549e-05
-1.31002e-06
2.5806e-05
-1.25168e-06
2.5494e-05
-1.06665e-06
2.52441e-05
-8.67163e-07
2.49938e-05
-4.6203e-07
2.47618e-05
-8.22815e-08
2.46649e-05
4.25291e-07
2.4556e-05
9.93957e-07
2.45904e-05
1.46028e-06
2.46929e-05
1.94334e-06
2.48258e-05
2.29829e-06
2.50296e-05
2.50387e-06
2.52165e-05
2.60186e-06
2.54142e-05
2.54457e-06
2.56532e-05
2.4088e-06
2.59171e-05
2.23054e-06
2.62438e-05
1.96352e-06
2.66162e-05
1.6644e-06
2.702e-05
1.28553e-06
2.74891e-05
8.42081e-07
2.79718e-05
2.81181e-07
2.8475e-05
-3.17916e-07
2.90256e-05
-1.04095e-06
2.95532e-05
-1.76173e-06
3.01075e-05
-2.52687e-06
3.06791e-05
-3.37846e-06
3.11703e-05
-4.1592e-06
3.16749e-05
-4.99281e-06
3.21307e-05
-5.75994e-06
3.24818e-05
-6.44619e-06
3.2819e-05
-7.14612e-06
3.30449e-05
-7.65591e-06
3.31826e-05
-8.17433e-06
3.32497e-05
-8.55195e-06
3.3251e-05
-8.91301e-06
3.31597e-05
-9.15517e-06
3.29561e-05
-9.33509e-06
3.27712e-05
-9.51501e-06
3.24233e-05
-9.39316e-06
3.20734e-05
-9.49457e-06
3.17071e-05