/*--------------------------------*- C++ -*----------------------------------*\
| =========                 |                                                 |
| \\      /  F ield         | OpenFOAM: The Open Source CFD Toolbox           |
|  \\    /   O peration     | Version:  2.4.0                                 |
|   \\  /    A nd           | Web:      www.OpenFOAM.org                      |
|    \\/     M anipulation  |                                                 |
\*---------------------------------------------------------------------------*/
FoamFile
{
    version     2.0;
    format      ascii;
    class       volScalarField;
    location    "1.93";
    object      pMean;
}
// * * * * * * * * * * * * * * * * * * * * * * * * * * * * * * * * * * * * * //

dimensions      [0 2 -2 0 0 0 0];

internalField   nonuniform List<scalar> 
8800
(
86.5636
74.1296
66.7259
63.1684
61.2761
59.8464
58.6381
57.4927
56.4631
55.4357
54.4848
53.502
52.5956
51.6573
50.8139
49.9463
49.18
48.3986
47.6924
46.9141
83.4524
73.7752
66.8945
63.2823
61.3362
59.8716
58.6456
57.493
56.4611
55.4333
54.4819
53.4998
52.5931
51.6555
50.8122
49.9443
49.1821
48.3925
47.6929
46.8722
81.4875
73.8508
67.4964
63.6579
61.5039
59.9507
58.6922
57.5257
56.4855
55.4503
54.4923
53.5044
52.5947
51.6536
50.8116
49.9383
49.1875
48.3842
47.7413
46.9011
79.9521
73.9119
68.0834
64.0813
61.688
60.0381
58.755
57.582
56.5343
55.4889
54.5203
53.5214
52.6062
51.6569
50.8154
49.9328
49.1944
48.3901
47.8376
47.055
78.7031
73.885
68.5594
64.487
61.8568
60.1052
58.8044
57.6392
56.5904
55.5404
54.5561
53.548
52.6198
51.6661
50.8158
49.9331
49.1909
48.4138
47.8558
47.26
77.7176
73.7881
68.9252
64.8329
62.0077
60.1473
58.8334
57.6831
56.6411
55.5897
54.5921
53.5742
52.632
51.674
50.8126
49.9313
49.1788
48.4301
47.9115
47.5587
76.9612
73.6714
69.1933
65.1126
62.1434
60.1727
58.8426
57.714
56.6809
55.6313
54.6215
53.597
52.6393
51.68
50.805
49.9281
49.1587
48.4321
47.9846
47.9379
76.4074
73.5714
69.3738
65.3254
62.2616
60.1927
58.8349
57.7384
56.7076
55.6656
54.6405
53.6184
52.6399
51.6883
50.7917
49.9306
49.1321
48.4234
47.9106
48.2876
76.047
73.5011
69.487
65.4704
62.3469
60.2065
58.8255
57.7546
56.7277
55.6902
54.6555
53.6337
52.6437
51.6945
50.7876
49.9313
49.1185
48.4322
47.9783
48.6231
75.8679
73.4687
69.5442
65.5474
62.3923
60.2162
58.8204
57.7651
56.7407
55.7061
54.6655
53.6442
52.6489
51.7013
50.7898
49.9364
49.1244
48.4504
48.0414
48.7355
75.8612
73.4789
69.5444
65.5525
62.3918
60.2199
58.8176
57.769
56.7407
55.7105
54.6659
53.6494
52.6508
51.7087
50.7938
49.9463
49.132
48.4716
48.0768
48.8325
76.0307
73.527
69.4883
65.4808
62.3473
60.2148
58.8202
57.7631
56.7291
55.7003
54.6584
53.6472
52.6516
51.7137
50.8013
49.9573
49.146
48.4866
48.1003
48.8665
76.3819
73.609
69.373
65.3381
62.2608
60.2057
58.8256
57.7517
56.7081
55.6811
54.644
53.6411
52.6513
51.7206
50.8133
49.9746
49.1673
48.5063
48.1038
48.8359
76.9284
73.7146
69.1907
65.1254
62.1374
60.1881
58.8291
57.7303
56.6775
55.6511
54.6219
53.6279
52.6486
51.7262
50.8276
49.9963
49.1967
48.5332
48.0914
48.7254
77.6823
73.8305
68.9251
64.843
61.9983
60.1591
58.822
57.697
56.6373
55.6101
54.593
53.6073
52.643
51.7275
50.8428
50.0195
49.2354
48.5706
48.0902
48.5298
78.6645
73.9283
68.5618
64.4955
61.8454
60.1142
58.796
57.6518
56.588
55.5607
54.5597
53.5817
52.6358
51.725
50.858
50.041
49.2817
48.6197
48.1192
48.269
79.9114
73.9554
68.0886
64.0914
61.6758
60.0467
58.7486
57.5955
56.533
55.5104
54.5263
53.5567
52.628
51.7202
50.871
50.0572
49.3274
48.6671
48.1785
47.9941
81.4462
73.8922
67.5051
63.6694
61.4921
59.9588
58.6871
57.5394
56.4857
55.4716
54.5015
53.5396
52.6226
51.718
50.8807
50.0696
49.3603
48.7036
48.2377
47.8518
83.4106
73.8135
66.9052
63.2951
61.3253
59.8793
58.6408
57.5071
56.4621
55.4548
54.4922
53.5355
52.623
51.7212
50.8872
50.0793
49.3757
48.725
48.2343
47.7753
86.5215
74.166
66.7364
63.1816
61.266
59.854
58.6334
57.507
56.4641
55.4577
54.495
53.5381
52.6257
51.7236
50.8903
50.0827
49.3792
48.7307
48.2356
47.8957
46.9948
46.9331
46.7252
46.4841
46.2752
46.1101
45.99
45.907
45.8557
45.8317
45.8299
45.8373
45.8459
45.847
45.8371
45.8122
45.7719
45.7122
45.6361
45.5413
45.4346
45.3216
45.2107
45.1057
45.014
44.9392
44.8837
44.8431
44.8131
44.7857
44.7555
44.7182
44.6741
44.6232
44.5663
44.5005
44.4254
44.3348
44.23
44.1068
43.9701
43.8186
43.6659
43.5178
43.3864
43.2718
43.1814
43.1117
43.0653
43.0357
43.0193
43.0023
42.9793
42.9396
42.8874
42.8134
42.7274
42.6256
42.5183
42.3961
42.2627
42.1089
41.941
41.7564
41.5692
41.3878
41.2293
41.1055
41.0266
40.9863
40.9874
41.0176
41.0774
41.1508
41.2419
41.3324
41.4283
41.5105
41.5866
41.6418
41.6848
41.7083
41.7256
41.7265
41.7294
41.7272
41.734
41.7494
41.778
41.8228
41.8856
41.9677
42.0685
42.1814
42.3071
42.4379
42.5785
42.7189
42.8637
43.0015
43.1371
43.2592
43.3764
43.4697
43.56
43.6284
43.696
43.7478
43.804
43.8438
43.8841
43.9084
43.9311
43.9368
43.9418
43.9349
43.9313
43.9199
43.9161
43.909
43.9163
43.9266
43.9586
43.992
44.0506
44.1033
44.1871
44.2623
44.3709
44.4805
44.6203
44.7638
44.9256
45.0845
45.2528
45.4134
45.5816
45.7389
45.8975
46.044
46.1953
46.3417
46.4962
46.6497
46.8124
46.9719
47.1405
47.3089
47.4814
47.6504
47.8187
47.9801
48.1404
48.2913
48.4427
48.588
48.7424
48.886
49.0408
49.184
49.3471
49.4806
49.6405
49.7608
49.9096
50.018
50.1591
50.256
50.3903
50.4645
50.6054
50.6618
50.8231
50.8783
51.07
51.1321
51.362
51.4316
51.7042
51.7989
52.1045
52.2418
52.5801
52.7837
53.15
53.419
53.8093
54.1124
54.5212
54.8212
55.2096
55.4269
55.6794
55.622
55.4681
54.6712
53.4013
50.1116
45.9075
25.5722
46.7553
46.73
46.6702
46.5235
46.3385
46.1636
46.031
45.9441
45.899
45.8829
45.8876
45.8988
45.9095
45.9107
45.9009
45.8752
45.8349
45.7771
45.705
45.6175
45.5204
45.4175
45.317
45.2219
45.1392
45.0697
45.0166
44.9761
44.9468
44.9211
44.8953
44.8631
44.8248
44.7777
44.7243
44.6601
44.5867
44.4986
44.3981
44.2809
44.1526
44.0131
43.8723
43.7345
43.6098
43.4996
43.4104
43.3399
43.2898
43.253
43.2285
43.2043
43.1782
43.1384
43.0887
43.0198
42.9392
42.8419
42.7363
42.6164
42.4862
42.3393
42.1804
42.0094
41.8362
41.669
41.5212
41.401
41.3194
41.2726
41.2641
41.2832
41.3309
41.3937
41.4712
41.5506
41.6311
41.7006
41.7608
41.8034
41.8344
41.8482
41.8554
41.8522
41.8483
41.8436
41.8437
41.8537
41.8739
41.9087
41.9598
42.0287
42.1153
42.2144
42.3274
42.4475
42.5765
42.7055
42.8376
42.9641
43.0884
43.2015
43.3072
43.3918
43.4709
43.5323
43.5896
43.6332
43.6765
43.7074
43.7354
43.7511
43.7611
43.7574
43.7469
43.7296
43.7106
43.6893
43.6718
43.6537
43.6513
43.653
43.6782
43.7059
43.7593
43.8107
43.8899
43.9659
44.068
44.1734
44.304
44.4387
44.5911
44.7401
44.8995
45.0496
45.2079
45.3555
45.5023
45.6373
45.777
45.9106
46.0508
46.1897
46.3399
46.4822
46.6409
46.7939
46.9583
47.1155
47.276
47.4276
47.5883
47.7337
47.8917
48.0369
48.2044
48.3469
48.5124
48.6536
48.8192
48.9424
49.0994
49.2083
49.3516
49.4475
49.5808
49.6535
49.7819
49.8227
49.9554
49.9747
50.1266
50.1411
50.3261
50.3475
50.5701
50.606
50.8631
50.9368
51.211
51.3332
51.6249
51.8047
52.1219
52.3362
52.6796
52.8894
53.2316
53.3866
53.6513
53.6365
53.6746
53.2188
52.6912
51.0481
49.2705
43.5373
37.6497
18.9008
46.7424
46.7423
46.7482
46.6536
46.4685
46.2539
46.0756
45.9599
45.9112
45.9065
45.9272
45.9514
45.9704
45.9743
45.9641
45.9356
45.8931
45.8344
45.7644
45.6824
45.5944
45.5018
45.4125
45.3275
45.2536
45.1901
45.1407
45.1016
45.0732
45.0481
45.0247
44.9957
44.9619
44.9185
44.8685
44.8068
44.7359
44.6513
44.5563
44.4476
44.3301
44.2038
44.0763
43.951
43.8357
43.7322
43.6462
43.5756
43.5224
43.4798
43.4478
43.4163
43.3849
43.3433
43.2935
43.228
43.1509
43.0584
42.9552
42.8391
42.7129
42.5745
42.427
42.2715
42.1153
41.9644
41.83
41.7174
41.6362
41.5858
41.5691
41.5794
41.6157
41.6677
41.7324
41.7991
41.8645
41.9202
41.9646
41.9945
42.0125
42.0184
42.016
42.0082
41.9972
41.988
41.9821
41.9848
41.9953
42.0181
42.0556
42.1102
42.1815
42.2681
42.3691
42.4803
42.5978
42.7169
42.837
42.9525
43.0645
43.1677
43.2608
43.3367
43.4061
43.4622
43.5122
43.5515
43.5873
43.6142
43.6343
43.6459
43.6463
43.6349
43.6129
43.5865
43.5566
43.5247
43.4979
43.4715
43.4662
43.4629
43.4865
43.5122
43.5651
43.6201
43.6968
43.7758
43.8738
43.9787
44.102
44.2299
44.3738
44.5146
44.6661
44.8077
44.9551
45.0928
45.2277
45.351
45.4794
45.6007
45.7292
45.857
45.9961
46.1286
46.2798
46.4213
46.5778
46.7192
46.8697
47.0089
47.1676
47.3085
47.4755
47.6228
47.8016
47.9467
48.1237
48.2681
48.4323
48.5491
48.6997
48.7955
48.934
49.0087
49.1382
49.1797
49.3047
49.3138
49.4396
49.4241
49.5718
49.5485
49.7296
49.7181
49.918
49.9369
50.1489
50.2119
50.4319
50.5327
50.7762
50.9074
51.1843
51.3172
51.614
51.7078
51.9751
51.9571
52.1095
51.806
51.6869
50.6929
50.0388
47.2739
45.3183
38.2437
31.1809
18.3946
46.5307
46.5628
46.7699
46.7622
46.5706
46.306
46.0804
45.9433
45.8994
45.9156
45.9633
46.0113
46.0465
46.0576
46.0473
46.0145
45.9666
45.904
45.8336
45.7549
45.6743
45.5914
45.5132
45.4391
45.375
45.3191
45.275
45.2384
45.2109
45.1858
45.1632
45.1358
45.1046
45.0641
45.0167
44.958
44.8907
44.8114
44.7234
44.6246
44.5193
44.4073
44.2946
44.1825
44.0783
43.9825
43.9007
43.8301
43.7739
43.726
43.6872
43.6498
43.6133
43.5699
43.5197
43.457
43.3835
43.2963
43.1984
43.0889
42.9703
42.8422
42.7076
42.568
42.4291
42.295
42.1746
42.0715
41.9932
41.9405
41.9169
41.9176
41.9418
41.9812
42.0316
42.0836
42.1333
42.1747
42.2048
42.2234
42.2305
42.2282
42.2172
42.203
42.1858
42.1707
42.158
42.1509
42.1493
42.1578
42.1804
42.2206
42.2785
42.3536
42.4445
42.5456
42.6528
42.7606
42.8694
42.9729
43.0721
43.1628
43.2425
43.3078
43.3686
43.421
43.4679
43.5072
43.5411
43.5677
43.5857
43.5947
43.5887
43.5711
43.5432
43.5084
43.4734
43.4341
43.4043
43.3766
43.3718
43.3675
43.3926
43.4201
43.4769
43.5349
43.613
43.6927
43.7925
43.8976
44.0199
44.1442
44.2813
44.4168
44.5609
44.6958
44.8345
44.9614
45.0844
45.1959
45.3139
45.4228
45.5431
45.6632
45.7954
45.9259
46.0719
46.2042
46.3516
46.4759
46.6171
46.7428
46.9006
47.0356
47.2131
47.3659
47.5563
47.7079
47.8978
48.0381
48.2014
48.307
48.4584
48.5257
48.6709
48.7092
48.8447
48.8485
48.9765
48.9506
49.0753
49.0289
49.1761
49.1328
49.2927
49.2716
49.425
49.4383
49.5909
49.6347
49.8012
49.8646
50.0622
50.1246
50.3552
50.3873
50.6367
50.5772
50.8133
50.5405
50.6781
49.9491
49.8498
48.1493
47.4762
43.8623
41.3716
34.6991
27.2056
18.6333
47.1993
47.1463
47.0151
46.7824
46.4864
46.1866
45.9712
45.8652
45.8561
45.9088
45.9929
46.0724
46.1289
46.1507
46.142
46.1053
46.0511
45.9831
45.91
45.8327
45.7576
45.6838
45.6165
45.554
45.5006
45.4538
45.4161
45.3838
45.3581
45.3339
45.3116
45.2855
45.2562
45.2188
45.175
45.1214
45.0599
44.9882
44.9091
44.8216
44.729
44.631
44.5322
44.433
44.3391
44.2506
44.1723
44.1025
44.0438
43.9924
43.9485
43.9069
43.8662
43.8214
43.7709
43.7113
43.6424
43.5624
43.4725
43.3724
43.2642
43.1481
43.0274
42.9032
42.7808
42.6628
42.556
42.4629
42.3894
42.3361
42.3065
42.2981
42.3094
42.3345
42.3685
42.4044
42.438
42.4654
42.4832
42.4914
42.4894
42.479
42.4612
42.4399
42.4157
42.3916
42.3687
42.3477
42.3305
42.3221
42.3296
42.3552
42.4018
42.4663
42.5491
42.6418
42.7401
42.8392
42.9377
43.0301
43.1171
43.1943
43.2614
43.3176
43.3724
43.4227
43.4685
43.5106
43.5445
43.5729
43.591
43.5976
43.5886
43.5662
43.5358
43.4971
43.4623
43.4221
43.3953
43.3731
43.3718
43.3745
43.4037
43.4395
43.4994
43.5623
43.6431
43.7264
43.8319
43.9372
44.0638
44.1853
44.3208
44.4492
44.5888
44.7169
44.8524
44.9675
45.0841
45.1837
45.2929
45.3889
45.5051
45.6188
45.752
45.8823
46.026
46.148
46.2889
46.3951
46.5319
46.6449
46.8049
46.9365
47.1242
47.2805
47.4858
47.6368
47.8435
47.9682
48.1359
48.2203
48.377
48.4118
48.5683
48.564
48.7071
48.6724
48.8037
48.7448
48.8632
48.8044
48.9411
48.903
49.0317
49.0077
49.1226
49.1146
49.2213
49.224
49.3535
49.3548
49.5224
49.4839
49.6881
49.5686
49.8056
49.5233
49.7659
49.1713
49.3127
48.1566
47.9764
45.8261
44.7742
41.1315
37.9207
32.5867
25.5258
19.1845
47.7693
47.6825
47.2731
46.7953
46.3512
46.0062
45.8181
45.7709
45.8224
45.9288
46.0543
46.1622
46.234
46.2615
46.2512
46.2095
46.148
46.074
45.9969
45.92
45.8487
45.7825
45.7247
45.6732
45.6301
45.5926
45.562
45.5351
45.5122
45.4899
45.4683
45.4437
45.4161
45.3822
45.3427
45.2951
45.2407
45.1779
45.1089
45.0331
44.9528
44.8681
44.782
44.695
44.6109
44.5303
44.4563
44.3886
44.3286
44.2748
44.2266
44.1811
44.1364
44.0897
44.039
43.9822
43.9179
43.8451
43.7638
43.6739
43.5769
43.4739
43.3675
43.259
43.1526
43.0501
42.9565
42.8738
42.8061
42.7542
42.7212
42.706
42.7063
42.7176
42.7355
42.7557
42.7741
42.7881
42.7946
42.7937
42.7835
42.7655
42.7401
42.7093
42.6748
42.6383
42.6017
42.5642
42.5295
42.5024
42.4953
42.5081
42.5444
42.6011
42.6783
42.7649
42.8559
42.9484
43.0382
43.1212
43.1973
43.2649
43.323
43.3746
43.4266
43.4762
43.5235
43.5695
43.6063
43.6363
43.6546
43.6585
43.6472
43.6198
43.5893
43.5518
43.5205
43.4881
43.4694
43.4582
43.4658
43.4828
43.5211
43.5703
43.6356
43.7077
43.7923
43.8857
43.9959
44.1096
44.2403
44.3626
44.4987
44.6196
44.7571
44.878
45.0113
45.1171
45.2316
45.3209
45.4204
45.5062
45.62
45.7299
45.8702
46.0006
46.1454
46.2605
46.3931
46.4856
46.6163
46.7226
46.8842
47.0103
47.2133
47.3651
47.589
47.7307
47.9535
48.0565
48.2416
48.2937
48.4655
48.4604
48.6293
48.5857
48.735
48.6599
48.7937
48.7021
48.8192
48.755
48.8866
48.8493
48.97
48.9246
49.0251
48.9748
49.0585
48.9917
49.1059
49.018
49.1614
49.005
49.1648
48.8999
49.0818
48.6251
48.7645
47.9702
47.9169
46.5658
46.0527
43.8809
42.3601
39.1926
35.7181
31.6719
25.5717
20.3193
48.4153
48.2269
47.4315
46.6383
46.0318
45.6815
45.5836
45.6523
45.8035
45.9809
46.1479
46.2767
46.3541
46.3786
46.3601
46.309
46.2382
46.1578
46.077
46.0006
45.9326
45.8733
45.8238
45.7823
45.7485
45.7201
45.6964
45.6753
45.656
45.6364
45.6161
45.5931
45.5671
45.5365
45.5009
45.4593
45.4119
45.3581
45.2989
45.2342
45.1654
45.0929
45.0183
44.9426
44.8677
44.7948
44.7257
44.6611
44.6015
44.5468
44.496
44.4479
44.4007
44.353
44.3028
44.2489
44.1893
44.1235
44.0508
43.9713
43.8861
43.7962
43.7036
43.61
43.518
43.4295
43.3476
43.2746
43.2133
43.1654
43.1322
43.1133
43.106
43.1063
43.1105
43.1165
43.1214
43.1241
43.1211
43.1114
43.0932
43.0671
43.0323
42.9898
42.9427
42.8928
42.8415
42.7869
42.7346
42.6899
42.6679
42.6705
42.7004
42.7545
42.8298
42.9133
43.0002
43.0875
43.1691
43.2453
43.3129
43.3737
43.4279
43.4813
43.5326
43.5839
43.6352
43.6847
43.7244
43.7549
43.7747
43.7765
43.7633
43.7324
43.7015
43.668
43.6439
43.6259
43.6198
43.626
43.6505
43.6888
43.744
43.8114
43.8891
43.9732
44.0652
44.168
44.2843
44.4084
44.5404
44.6703
44.8041
44.9272
45.0612
45.1802
45.3098
45.4142
45.5234
45.6057
45.6976
45.7797
45.8919
46.002
46.1457
46.2837
46.4282
46.5434
46.6639
46.7478
46.8709
46.975
47.1367
47.2524
47.4724
47.6194
47.854
47.9987
48.2322
48.3118
48.5148
48.5423
48.7224
48.6921
48.8559
48.7917
48.931
48.8407
48.9545
48.8499
48.9581
48.9085
49.0267
48.9977
49.1001
49.0518
49.1272
49.0457
49.0891
48.9715
49.0301
48.8788
48.9349
48.692
48.7409
48.3803
48.4338
47.8714
47.8317
46.9494
46.6754
45.2751
44.5135
42.487
40.7772
38.2192
34.882
31.7265
26.6559
21.998
49.727
49.2902
47.6784
46.3481
45.5295
45.2033
45.2493
45.49
45.783
46.05
46.2599
46.4032
46.4784
46.4932
46.4606
46.3965
46.3151
46.2288
46.1458
46.0714
46.0077
45.9557
45.914
45.8815
45.8559
45.8356
45.8183
45.8027
45.7871
45.7706
45.752
45.7309
45.7065
45.6786
45.6464
45.6099
45.5683
45.5221
45.4709
45.4156
45.3561
45.2937
45.2287
45.1626
45.096
45.0306
44.9668
44.9063
44.8485
44.7946
44.7434
44.695
44.6476
44.601
44.5529
44.5029
44.4488
44.3905
44.3265
44.2577
44.1835
44.1058
44.0253
43.9446
43.8646
43.7885
43.7172
43.6538
43.5991
43.5561
43.5238
43.5028
43.4896
43.4812
43.4739
43.4682
43.4617
43.4552
43.4442
43.4267
43.4005
43.3658
43.3206
43.2667
43.2079
43.1451
43.0809
43.0118
42.9438
42.8854
42.8521
42.8491
42.8772
42.9329
43.0071
43.0891
43.1726
43.2552
43.3311
43.4018
43.4649
43.5253
43.5812
43.6403
43.694
43.7508
43.8066
43.8579
43.8984
43.9279
43.9473
43.9492
43.9346
43.9044
43.874
43.8481
43.836
43.8368
43.8491
43.8799
43.9291
43.9953
44.073
44.1631
44.2571
44.3557
44.4601
44.5732
44.6978
44.8279
44.9611
45.0952
45.227
45.3588
45.4932
45.615
45.7449
45.8508
45.9521
46.0356
46.1185
46.2023
46.3188
46.4289
46.5836
46.7318
46.8765
46.9891
47.1105
47.1799
47.3019
47.4003
47.5657
47.6774
47.9055
48.0519
48.2852
48.433
48.6791
48.7447
48.9543
48.9642
49.1476
49.1067
49.2629
49.2015
49.3212
49.223
49.3096
49.2001
49.2899
49.2619
49.3722
49.3567
49.4398
49.3904
49.4471
49.3248
49.3316
49.1668
49.1613
48.9321
48.9027
48.5499
48.502
48.043
48.0028
47.3393
47.1869
46.2395
45.8403
44.4707
43.6092
41.8288
40.0927
38.0646
35.0247
32.3494
28.1443
23.9294
50.2501
49.7554
47.852
46.2531
45.2876
44.9431
45.0587
45.404
45.7914
46.1272
46.3765
46.5354
46.608
46.6098
46.5595
46.4798
46.3871
46.2953
46.211
46.1393
46.0807
46.0355
46.0015
45.9771
45.959
45.9456
45.9339
45.923
45.9106
45.8968
45.8799
45.8606
45.8377
45.8121
45.7827
45.7501
45.7132
45.6728
45.6279
45.5799
45.5279
45.4735
45.4162
45.358
45.2984
45.2396
45.1809
45.1245
45.0696
45.0179
44.968
44.9211
44.8753
44.8312
44.7863
44.7411
44.6927
44.6418
44.5861
44.5269
44.4631
44.3967
44.3274
44.2585
44.1901
44.1257
44.0649
44.011
43.9633
43.925
43.8942
43.8715
43.8522
43.8355
43.8178
43.8012
43.785
43.771
43.7533
43.7304
43.6987
43.6577
43.6044
43.541
43.4709
43.3969
43.3211
43.239
43.1616
43.0939
43.0551
43.0509
43.0817
43.1403
43.2152
43.2953
43.3767
43.4556
43.5289
43.5961
43.6603
43.727
43.7922
43.8588
43.9192
43.983
44.0422
44.0923
44.1302
44.1576
44.177
44.1792
44.166
44.1405
44.1176
44.1061
44.111
44.1327
44.1698
44.2288
44.3079
44.4059
44.5103
44.6262
44.7395
44.8556
44.9739
45.0966
45.2289
45.3599
45.4957
45.6305
45.7634
45.9054
46.0396
46.1696
46.3024
46.4075
46.5081
46.5929
46.67
46.7634
46.8892
47.003
47.169
47.3308
47.4888
47.583
47.7332
47.7725
47.9093
47.9976
48.1591
48.2804
48.5082
48.6434
48.891
49.0254
49.2939
49.3265
49.573
49.5479
49.7511
49.6734
49.8533
49.7814
49.9174
49.7755
49.8549
49.7424
49.835
49.8186
49.9205
49.9167
49.9885
49.9349
49.9807
49.7885
49.7834
49.5629
49.5047
49.1887
49.1102
48.615
48.5009
47.9918
47.8753
47.2069
47.0003
45.9949
45.5456
44.238
43.3347
41.8159
40.1119
38.4294
35.7191
33.2737
29.7176
25.9148
50.5038
50.0525
48.0677
46.3469
45.2801
44.872
44.982
45.3686
45.8111
46.1943
46.4748
46.6481
46.7202
46.7118
46.6472
46.5544
46.4523
46.356
46.2713
46.2027
46.1492
46.1109
46.0841
46.0671
46.0556
46.048
46.0408
46.0335
46.0238
46.0122
45.9969
45.9793
45.9581
45.9347
45.9078
45.8785
45.8454
45.8097
45.7701
45.7279
45.6821
45.6344
45.5837
45.5319
45.4784
45.4252
45.3716
45.3197
45.2686
45.2202
45.1731
45.1291
45.0864
45.0459
45.0055
44.9656
44.9234
44.8794
44.8315
44.7812
44.7269
44.6707
44.6119
44.5541
44.4966
44.4429
44.3926
44.3481
44.3076
44.2746
44.2458
44.2204
44.1944
44.1696
44.1432
44.1174
44.0933
44.0739
44.0528
44.0275
43.9934
43.949
43.8916
43.823
43.7449
43.6599
43.5737
43.4804
43.3965
43.3228
43.283
43.2794
43.3169
43.3805
43.4594
43.539
43.6218
43.6982
43.7697
43.8352
43.9049
43.9815
44.06
44.1367
44.2068
44.2754
44.3364
44.3851
44.4219
44.4488
44.4684
44.4711
44.4638
44.4486
44.44
44.4489
44.4775
44.5253
44.5908
44.6801
44.791
44.9205
45.0553
45.1967
45.332
45.4675
45.5995
45.7292
45.8641
45.994
46.1306
46.2625
46.4012
46.5511
46.6911
46.8295
46.9684
47.0754
47.183
47.2687
47.3517
47.4532
47.5941
47.7155
47.8939
48.0659
48.2538
48.3195
48.5209
48.5099
48.6761
48.7438
48.9248
49.0307
49.2689
49.3739
49.6568
49.762
50.0724
50.0431
50.3644
50.2579
50.5489
50.3758
50.6403
50.5343
50.7311
50.4966
50.6011
50.452
50.5888
50.5677
50.6934
50.6699
50.7514
50.6628
50.7174
50.4275
50.4397
50.1696
50.0536
49.6332
49.491
48.8931
48.8017
48.2622
48.1537
47.4088
47.2062
46.1289
45.6609
44.4326
43.5032
42.2061
40.5868
39.0799
36.6762
34.354
31.2511
27.8353
50.6618
50.2342
48.2236
46.4438
45.3241
44.8744
44.9744
45.3787
45.8505
46.2602
46.5583
46.7395
46.8099
46.7929
46.718
46.6166
46.5097
46.4121
46.3293
46.2647
46.2169
46.185
46.1648
46.1539
46.1476
46.1442
46.1402
46.1353
46.1275
46.1174
46.1038
46.0877
46.0684
46.047
46.0225
45.9961
45.9666
45.9349
45.8999
45.8626
45.8221
45.7798
45.7349
45.6888
45.641
45.5933
45.5448
45.4977
45.4511
45.407
45.3641
45.3239
45.2851
45.2488
45.2132
45.1788
45.1431
45.1063
45.0666
45.0253
44.9805
44.9342
44.8862
44.8392
44.7921
44.7482
44.708
44.6726
44.6392
44.6102
44.5818
44.5527
44.5205
44.4884
44.4543
44.4217
44.3928
44.3702
44.3484
44.3252
44.2937
44.2506
44.1934
44.1229
44.041
43.948
43.8533
43.7516
43.6643
43.5871
43.5525
43.5495
43.5948
43.663
43.7468
43.8261
43.9138
43.9903
44.0636
44.128
44.2079
44.2954
44.3889
44.4747
44.5533
44.6238
44.6855
44.7331
44.7726
44.8016
44.8244
44.8319
44.8376
44.8361
44.851
44.8835
44.9446
45.0199
45.1203
45.2402
45.3853
45.5418
45.7082
45.8689
46.0318
46.1831
46.3305
46.4638
46.6005
46.7228
46.8585
46.9852
47.1359
47.2869
47.4425
47.5873
47.7346
47.8506
47.9687
48.0586
48.159
48.2681
48.4302
48.558
48.7516
48.9244
49.1479
49.1957
49.4386
49.3775
49.6002
49.6172
49.8543
49.907
50.1827
50.2469
50.5734
50.6345
50.9749
50.8861
51.2803
51.1095
51.4808
51.2352
51.6232
51.4541
51.729
51.3891
51.5643
51.3412
51.5679
51.4886
51.6722
51.6055
51.7102
51.5912
51.652
51.2446
51.2602
50.9392
50.728
50.2933
50.0845
49.4916
49.4357
48.7985
48.6921
47.8556
47.7084
46.5697
46.0707
44.9262
43.9891
42.8374
41.354
39.8935
37.7249
35.5064
32.7205
29.6445
50.7208
50.2928
48.2792
46.4987
45.3831
44.9398
45.0499
45.4638
45.9416
46.3513
46.6452
46.8187
46.8792
46.8526
46.771
46.6664
46.56
46.4653
46.3873
46.3284
46.2868
46.2609
46.2461
46.2394
46.2365
46.2354
46.2333
46.2298
46.2234
46.2144
46.2023
46.1879
46.1706
46.1514
46.1296
46.106
46.0798
46.0518
46.021
45.9883
45.9527
45.9152
45.8754
45.8343
45.7918
45.7492
45.7062
45.6643
45.6232
45.584
45.5461
45.5104
45.4765
45.445
45.4146
45.3856
45.3564
45.3271
45.296
45.2635
45.2284
45.1922
45.1554
45.1194
45.0834
45.05
45.0201
44.9929
44.9651
44.9379
44.9088
44.8756
44.837
44.7962
44.7539
44.7156
44.6842
44.6627
44.6461
44.6301
44.6063
44.5711
44.5204
44.4529
44.3697
44.2717
44.1708
44.0655
43.9782
43.9049
43.8801
43.8784
43.9315
43.9992
44.0849
44.1594
44.2533
44.3313
44.4107
44.4791
44.5766
44.6774
44.7883
44.8807
44.964
45.0269
45.0906
45.134
45.1816
45.2154
45.2471
45.2629
45.2875
45.3063
45.3545
45.4151
45.5152
45.6198
45.7602
45.9089
46.0894
46.2697
46.4683
46.6479
46.8351
46.9972
47.162
47.2989
47.4402
47.5587
47.6905
47.8137
47.9732
48.1242
48.294
48.4503
48.6086
48.738
48.8679
48.9688
49.0849
49.2021
49.378
49.5233
49.7229
49.8956
50.1489
50.2203
50.425
50.3476
50.6515
50.5931
50.8931
50.8772
51.2208
51.2503
51.6056
51.6558
51.9702
51.8561
52.308
52.1122
52.5159
52.26
52.7387
52.5287
52.8412
52.431
52.6547
52.3766
52.7255
52.6004
52.8316
52.7124
52.8419
52.7195
52.6785
52.2494
52.2291
51.7769
51.5905
51.1526
50.877
50.3214
50.198
49.556
49.4398
48.6124
48.3204
47.2502
46.72
45.6642
44.7645
43.6349
42.2778
40.7942
38.8129
36.6997
34.1437
31.3455
50.6715
50.2352
48.2532
46.5325
45.4772
45.0896
45.2306
45.642
46.0964
46.4753
46.7396
46.8866
46.9273
46.8894
46.805
46.7033
46.6032
46.5163
46.4466
46.3954
46.3608
46.3402
46.3294
46.3251
46.3237
46.3233
46.3218
46.3187
46.3131
46.3052
46.2946
46.282
46.267
46.2503
46.2314
46.2109
46.1884
46.1641
46.1376
46.1091
46.0781
46.0452
46.0102
45.9741
45.937
45.8999
45.8629
45.8269
45.7917
45.7581
45.7258
45.6955
45.6672
45.6413
45.6171
45.5942
45.5716
45.5493
45.5268
45.5037
45.4785
45.4524
45.4267
45.402
45.3777
45.3558
45.3362
45.3164
45.2938
45.2686
45.2377
45.1988
45.1531
45.1045
45.0564
45.0157
44.9849
44.9664
44.9575
44.9518
44.9401
44.9183
44.88
44.8198
44.7385
44.6411
44.5389
44.435
44.3495
44.2851
44.2706
44.2749
44.3331
44.395
44.4754
44.5469
44.6501
44.731
44.8198
44.8991
45.0215
45.1366
45.2664
45.3614
45.446
45.4975
45.5583
45.5978
45.6581
45.6952
45.7405
45.7693
45.821
45.8679
45.9551
46.0481
46.1901
46.3291
46.5127
46.6907
46.9067
47.107
47.3315
47.5254
47.7353
47.9055
48.0868
48.2283
48.3777
48.4924
48.627
48.7528
48.9187
49.0778
49.2625
49.4279
49.5986
49.7434
49.8824
49.9954
50.1281
50.2562
50.4383
50.6031
50.8048
50.9961
51.2414
51.3719
51.4916
51.445
51.7669
51.6546
52.0069
51.9732
52.3785
52.3919
52.7235
52.8016
53.0739
52.987
53.4064
53.2203
53.689
53.4883
53.9506
53.8043
54.0316
53.6138
53.902
53.5453
54.0118
53.8377
54.112
53.9819
54.0968
53.9356
53.8446
53.4138
53.3211
52.7741
52.6242
52.1065
51.8027
51.387
51.1527
50.6855
50.284
49.5669
49.0924
48.1425
47.5854
46.5926
45.7476
44.5661
43.3147
41.7626
39.9422
37.9179
35.538
32.9626
50.4686
50.0279
48.1488
46.5707
45.6391
45.3477
45.5222
45.9065
46.3042
46.6215
46.8318
46.9358
46.9498
46.9013
46.8188
46.7262
46.6384
46.564
46.5058
46.4641
46.4365
46.4202
46.4116
46.4078
46.406
46.4049
46.4028
46.3995
46.3943
46.3872
46.3781
46.3673
46.3547
46.3406
46.325
46.308
46.2894
46.2692
46.247
46.223
46.1966
46.1683
46.1381
46.1071
46.076
46.0455
46.0151
45.9852
45.9562
45.9286
45.9024
45.8781
45.856
45.8365
45.8188
45.803
45.7884
45.7754
45.7626
45.7484
45.7327
45.7172
45.7028
45.6895
45.6775
45.6669
45.6566
45.644
45.6265
45.603
45.5708
45.5292
45.4792
45.4243
45.3711
45.3289
45.3018
45.2914
45.2937
45.3014
45.3061
45.3013
45.2778
45.2281
45.1518
45.0604
44.9596
44.8615
44.7827
44.7337
44.726
44.7329
44.79
44.8478
44.9226
45.0034
45.1178
45.2078
45.3117
45.4136
45.5579
45.6837
45.8255
45.9223
46.0063
46.0472
46.1058
46.1454
46.2157
46.2611
46.3264
46.3741
46.4559
46.5337
46.6585
46.7863
46.969
47.1436
47.3662
47.5752
47.8212
48.0431
48.2868
48.4945
48.7202
48.8985
49.0929
49.2447
49.4007
49.5175
49.6588
49.7928
49.9713
50.1404
50.3418
50.5193
50.7013
50.8605
51.001
51.129
51.2673
51.4139
51.5963
51.7913
51.9829
52.2006
52.4262
52.5888
52.6338
52.7039
52.9309
52.8278
53.2071
53.2046
53.624
53.6378
53.9517
54.0719
54.2459
54.2654
54.5573
54.4595
54.966
54.89
55.2758
55.1626
55.3299
54.9724
55.2393
54.992
55.372
55.173
55.4556
55.3544
55.4302
55.2433
55.0344
54.6084
54.4868
53.9148
53.7243
53.2468
52.8928
52.6367
52.2094
51.9345
51.2481
50.7816
49.9949
49.2355
48.5886
47.702
46.8792
45.625
44.4448
42.7983
41.1053
39.1311
36.8983
34.499
50.0048
49.5885
47.9745
46.6675
45.9345
45.7483
45.9253
46.2417
46.5463
46.7743
46.9113
46.9638
46.9504
46.8949
46.8194
46.7409
46.6694
46.6104
46.5649
46.5324
46.5104
46.4966
46.4881
46.4831
46.4796
46.4767
46.4735
46.4696
46.4646
46.4584
46.4508
46.442
46.4318
46.4205
46.4081
46.3946
46.3799
46.364
46.3464
46.3269
46.3052
46.2819
46.2574
46.2321
46.2069
46.1827
46.1598
46.1375
46.1154
46.0938
46.0736
46.0558
46.0411
46.0288
46.0184
46.0106
46.0049
46.001
45.9982
45.9951
45.9909
45.986
45.9821
45.9798
45.9788
45.9779
45.9756
45.9694
45.9571
45.9368
45.9052
45.8616
45.8093
45.7515
45.6958
45.655
45.6357
45.6372
45.6538
45.6776
45.6998
45.7116
45.7015
45.6624
45.5958
45.5153
45.4198
45.3367
45.2684
45.235
45.2336
45.2506
45.3043
45.353
45.425
45.5271
45.6558
45.7638
45.8847
46.0198
46.1765
46.3139
46.4599
46.5602
46.6411
46.6852
46.7396
46.7873
46.8664
46.9301
47.0171
47.0938
47.2042
47.3144
47.4685
47.6312
47.8409
48.0525
48.2991
48.5418
48.8049
49.05
49.3058
49.5333
49.7703
49.9625
50.165
50.3294
50.4972
50.6213
50.7763
50.921
51.107
51.2944
51.5058
51.6921
51.8804
52.045
52.1886
52.3341
52.4804
52.6464
52.8375
53.0652
53.2464
53.4979
53.6719
53.8225
53.8804
54.0357
54.1239
54.2101
54.5079
54.577
54.9644
54.9897
55.2503
55.4135
55.5346
55.6269
55.7811
55.9239
56.3404
56.336
56.611
56.5258
56.6414
56.4476
56.6688
56.5674
56.7641
56.6566
56.8124
56.7516
56.7157
56.5147
56.2745
55.9443
55.7013
55.2286
54.9274
54.5525
54.1333
53.96
53.4056
53.2051
52.2637
52.0487
51.0169
50.4818
49.6836
48.9739
48.0654
46.792
45.6431
43.9157
42.2967
40.3387
38.2421
35.9755
49.2445
48.9218
47.7854
46.8774
46.3846
46.2743
46.3977
46.5979
46.7787
46.9029
46.9645
46.9708
46.9369
46.8803
46.8155
46.7528
46.6979
46.6531
46.6184
46.5926
46.5738
46.5604
46.5507
46.5435
46.5378
46.5332
46.5289
46.5247
46.5201
46.5149
46.5087
46.5015
46.4935
46.4847
46.475
46.4649
46.4544
46.4429
46.4297
46.4147
46.398
46.3797
46.3607
46.3419
46.3234
46.3058
46.2897
46.2751
46.2611
46.2468
46.2332
46.2231
46.217
46.2134
46.2116
46.2121
46.2154
46.2209
46.2267
46.2316
46.2367
46.2434
46.251
46.2591
46.2669
46.2734
46.2775
46.2764
46.2685
46.2516
46.2225
46.1821
46.1312
46.0744
46.0228
45.9901
45.9829
45.9979
46.027
46.063
46.0979
46.1219
46.1231
46.0959
46.044
45.9819
45.8974
45.8403
45.7909
45.7762
45.7787
45.8071
45.8528
45.9069
45.9884
46.1077
46.2436
46.3777
46.5238
46.6921
46.8522
47.0019
47.1425
47.2529
47.3342
47.3957
47.4499
47.5159
47.5975
47.6883
47.7923
47.9066
48.038
48.1863
48.3605
48.5611
48.7863
49.0287
49.2851
49.5531
49.8192
50.0893
50.3458
50.5903
50.8277
51.0446
51.2532
51.4463
51.6175
51.7706
51.9272
52.0876
52.2714
52.4812
52.6909
52.899
53.0841
53.2617
53.4136
53.5831
53.7368
53.9283
54.1245
54.3663
54.5469
54.8434
54.9451
55.1227
55.1313
55.3502
55.4189
55.6867
55.8391
56.0365
56.2762
56.3613
56.5914
56.7978
56.8191
57.0697
57.1339
57.5046
57.6492
57.7419
57.8808
57.8891
57.9834
57.9963
58.0759
58.0599
58.0993
58.1398
58.1248
58.1124
57.9642
57.8098
57.4611
57.3193
56.8696
56.6192
56.1229
55.9241
55.4242
55.3414
54.563
54.352
53.3539
53.2477
52.059
51.8176
50.8016
50.239
49.1514
47.9968
46.8036
45.0551
43.4548
41.5239
39.5419
37.3609
48.4095
48.242
47.6887
47.2176
46.937
46.834
46.8451
46.9016
46.957
46.9889
46.9902
46.9642
46.9196
46.8665
46.8128
46.7638
46.7217
46.687
46.659
46.6367
46.6188
46.6046
46.5932
46.5841
46.5769
46.571
46.5661
46.5617
46.5574
46.5529
46.5478
46.5418
46.5354
46.529
46.5224
46.5152
46.5075
46.4998
46.4912
46.4807
46.4684
46.4558
46.4431
46.4301
46.4178
46.4079
46.4001
46.3934
46.387
46.3807
46.3763
46.3754
46.3776
46.3821
46.389
46.3983
46.4096
46.4225
46.4366
46.4505
46.4631
46.4757
46.4896
46.5047
46.5189
46.5299
46.5369
46.5395
46.5358
46.5229
46.4996
46.4672
46.4265
46.3816
46.3426
46.3227
46.3283
46.3544
46.3928
46.4344
46.4734
46.5043
46.5162
46.5053
46.4728
46.4394
46.3813
46.355
46.3238
46.3293
46.3407
46.3881