/*--------------------------------*- C++ -*----------------------------------*\
| =========                 |                                                 |
| \\      /  F ield         | OpenFOAM: The Open Source CFD Toolbox           |
|  \\    /   O peration     | Version:  2.4.0                                 |
|   \\  /    A nd           | Web:      www.OpenFOAM.org                      |
|    \\/     M anipulation  |                                                 |
\*---------------------------------------------------------------------------*/
FoamFile
{
    version     2.0;
    format      ascii;
    class       volVectorField;
    location    "1.93";
    object      U_0;
}
// * * * * * * * * * * * * * * * * * * * * * * * * * * * * * * * * * * * * * //

dimensions      [0 1 -1 0 0 0 0];

internalField   nonuniform List<vector> 
8800
(
(8.09282 0.387888 0)
(5.45175 0.242684 0)
(3.90969 0.0430083 0)
(3.16022 -0.015459 0)
(2.79485 -0.0183619 0)
(2.60808 -0.0113883 0)
(2.47308 -0.00489867 0)
(2.39042 -0.00273816 0)
(2.30915 -0.00191627 0)
(2.26087 0.000242273 0)
(2.20327 -0.000918652 0)
(2.18021 -0.000850235 0)
(2.12981 0.001237 0)
(2.11624 -0.00119256 0)
(2.0582 0.00213657 0)
(2.05587 -0.00162468 0)
(1.99946 0.000721561 0)
(1.99415 -0.000921626 0)
(1.9873 0.00988192 0)
(1.79112 -0.0702088 0)
(10.0812 0.83796 0)
(9.66799 0.868087 0)
(8.86089 0.506916 0)
(8.09981 0.262389 0)
(7.47183 0.137672 0)
(7.03656 0.0812898 0)
(6.66282 0.0563519 0)
(6.43443 0.0392624 0)
(6.19355 0.0288484 0)
(6.05455 0.0270155 0)
(5.89362 0.0176915 0)
(5.81607 0.0151998 0)
(5.67764 0.0194668 0)
(5.64585 0.0113679 0)
(5.49319 0.0212165 0)
(5.4971 0.0076743 0)
(5.34893 0.0205526 0)
(5.32989 -0.000792283 0)
(5.28982 0.0266579 0)
(5.14848 -0.026345 0)
(10.0459 0.629918 0)
(10.6843 0.864228 0)
(10.8408 0.601033 0)
(10.7275 0.374992 0)
(10.416 0.254193 0)
(10.1403 0.196264 0)
(9.77861 0.156494 0)
(9.55728 0.120636 0)
(9.25982 0.0933025 0)
(9.08613 0.0806132 0)
(8.87333 0.0571459 0)
(8.75975 0.0488163 0)
(8.56948 0.0504752 0)
(8.52804 0.0344751 0)
(8.31197 0.0498776 0)
(8.3299 0.0236845 0)
(8.11376 0.0502699 0)
(8.10881 0.00994947 0)
(7.99903 0.0299813 0)
(7.96004 -0.0701238 0)
(9.95293 0.454953 0)
(10.6265 0.707502 0)
(11.1121 0.544232 0)
(11.4442 0.355906 0)
(11.4828 0.257884 0)
(11.5449 0.227907 0)
(11.4093 0.205753 0)
(11.3845 0.169897 0)
(11.2253 0.150704 0)
(11.1471 0.130033 0)
(11.0143 0.101972 0)
(10.9348 0.0903581 0)
(10.7842 0.0881402 0)
(10.7693 0.0680348 0)
(10.5447 0.0860515 0)
(10.6013 0.0468036 0)
(10.3624 0.0871081 0)
(10.3805 0.0315175 0)
(10.2202 0.0493441 0)
(10.2556 -0.0908647 0)
(9.94615 0.341813 0)
(10.4931 0.572123 0)
(10.9596 0.458213 0)
(11.4068 0.300546 0)
(11.5649 0.203432 0)
(11.7612 0.192488 0)
(11.8052 0.185211 0)
(11.8951 0.16483 0)
(11.9233 0.142596 0)
(11.9492 0.146149 0)
(11.9925 0.100374 0)
(11.978 0.109053 0)
(11.9659 0.0975808 0)
(12.0331 0.0850464 0)
(11.8905 0.101828 0)
(11.985 0.0653127 0)
(11.873 0.105573 0)
(11.8767 0.0713499 0)
(11.7985 0.0485951 0)
(11.8034 -0.00893522 0)
(9.96653 0.250972 0)
(10.3892 0.454857 0)
(10.8274 0.370824 0)
(11.2501 0.255543 0)
(11.4908 0.160564 0)
(11.624 0.147186 0)
(11.7976 0.156056 0)
(11.8372 0.125465 0)
(11.9817 0.136582 0)
(11.9951 0.104716 0)
(12.1573 0.0960166 0)
(12.1605 0.0926798 0)
(12.2438 0.0727575 0)
(12.3529 0.0925919 0)
(12.3377 0.0880675 0)
(12.4034 0.0637175 0)
(12.4445 0.0924115 0)
(12.4765 0.100286 0)
(12.4807 0.0702468 0)
(12.511 0.00333733 0)
(10.0054 0.177655 0)
(10.2988 0.352422 0)
(10.7169 0.285121 0)
(11.1331 0.205265 0)
(11.403 0.128513 0)
(11.5887 0.108155 0)
(11.6432 0.111341 0)
(11.8348 0.119583 0)
(11.822 0.0692735 0)
(11.9652 0.133075 0)
(12.0387 0.0203101 0)
(12.1313 0.118919 0)
(12.1578 0.0252983 0)
(12.3463 0.0722666 0)
(12.3226 0.0789319 0)
(12.3946 0.0466082 0)
(12.4695 0.0730421 0)
(12.545 0.104273 0)
(12.5173 0.0775707 0)
(12.6196 0.175552 0)
(9.9848 0.110558 0)
(10.2993 0.26578 0)
(10.6339 0.178935 0)
(11.0908 0.169146 0)
(11.2785 0.0631396 0)
(11.5599 0.105962 0)
(11.5332 0.0602791 0)
(11.7695 0.0883028 0)
(11.7731 0.0751332 0)
(11.8616 0.0584316 0)
(12.0112 0.0426972 0)
(11.9975 0.079802 0)
(12.1616 -0.00298987 0)
(12.1698 0.0865869 0)
(12.3671 0.0330228 0)
(12.3138 0.0737768 0)
(12.3253 -0.00794042 0)
(12.5614 0.164051 0)
(12.4885 0.0204837 0)
(12.5677 0.181097 0)
(9.99014 0.0649268 0)
(10.2462 0.151911 0)
(10.6561 0.114801 0)
(10.9167 0.0920988 0)
(11.3617 0.0588667 0)
(11.3252 0.0456694 0)
(11.6978 0.0504575 0)
(11.5683 0.0433271 0)
(11.8128 0.0226703 0)
(11.8311 0.0830638 0)
(11.8957 -0.0297836 0)
(12.0453 0.0921021 0)
(12.0707 -0.0143123 0)
(12.1418 0.011017 0)
(12.2737 0.0656104 0)
(12.349 0.0262385 0)
(12.3024 0.0434309 0)
(12.3838 0.00885368 0)
(12.5716 0.0843363 0)
(12.318 -0.00176505 0)
(10.0033 0.0178788 0)
(10.2313 0.0544383 0)
(10.5775 0.0305998 0)
(11.0124 0.0358173 0)
(11.1514 0.00810953 0)
(11.5422 0.0364968 0)
(11.4503 -0.00746575 0)
(11.7918 0.0304631 0)
(11.6078 0.0114778 0)
(11.8816 0.0110049 0)
(11.8922 0.00639104 0)
(11.9577 0.0118048 0)
(12.1565 0.000660005 0)
(12.0081 0.0105232 0)
(12.3203 0.00191426 0)
(12.2325 0.0363226 0)
(12.361 -0.0113529 0)
(12.4059 0.052222 0)
(12.3676 -0.0247124 0)
(12.5036 0.0158923 0)
(10.0131 -0.0236747 0)
(10.2065 -0.0391317 0)
(10.6437 -0.061698 0)
(10.9129 -0.0155408 0)
(11.2627 -0.0180352 0)
(11.396 -0.015212 0)
(11.6606 -0.0158404 0)
(11.5216 -0.0187199 0)
(11.8244 -0.0130968 0)
(11.7501 0.00830311 0)
(11.9587 -0.05453 0)
(11.9375 0.0347252 0)
(12.1287 -0.0264734 0)
(12.068 -0.0302348 0)
(12.2296 0.00936274 0)
(12.3241 0.00656176 0)
(12.3121 -0.0107587 0)
(12.4112 -0.0363428 0)
(12.4399 0.0115803 0)
(12.3912 -0.0372059 0)
(9.99646 -0.0631601 0)
(10.2303 -0.154326 0)
(10.646 -0.125895 0)
(10.9583 -0.0847358 0)
(11.2682 -0.0558239 0)
(11.5148 -0.0502514 0)
(11.492 -0.0396037 0)
(11.7319 -0.0449642 0)
(11.6912 -0.0442377 0)
(11.9025 -0.0455494 0)
(11.8914 -0.0210934 0)
(11.9916 -0.048416 0)
(12.1678 -0.00685084 0)
(12.0834 -0.0338717 0)
(12.2567 -0.0427205 0)
(12.2759 -0.013282 0)
(12.4309 -0.0347752 0)
(12.3847 -0.0234392 0)
(12.4441 -0.0650278 0)
(12.4311 -0.0255127 0)
(9.98115 -0.115434 0)
(10.2984 -0.247821 0)
(10.6559 -0.218559 0)
(11.0363 -0.136324 0)
(11.3364 -0.0994956 0)
(11.4785 -0.0633072 0)
(11.6094 -0.0712864 0)
(11.7046 -0.0939741 0)
(11.8238 -0.0671688 0)
(11.8641 -0.0509414 0)
(11.9857 -0.0732459 0)
(12.0283 -0.0378131 0)
(12.1439 -0.0413925 0)
(12.1862 -0.0565704 0)
(12.2812 -0.0402159 0)
(12.3566 -0.0477338 0)
(12.3977 -0.0536428 0)
(12.4889 -0.0719819 0)
(12.51 -0.0628896 0)
(12.4165 -0.0688301 0)
(10.0336 -0.173142 0)
(10.2861 -0.362586 0)
(10.7618 -0.284658 0)
(11.0937 -0.205748 0)
(11.4033 -0.120351 0)
(11.5359 -0.109875 0)
(11.6873 -0.104672 0)
(11.7913 -0.12017 0)
(11.8546 -0.0891247 0)
(11.9554 -0.0980952 0)
(12.0465 -0.0624822 0)
(12.101 -0.0885631 0)
(12.2043 -0.0412959 0)
(12.2873 -0.0750172 0)
(12.3308 -0.0719306 0)
(12.401 -0.0658953 0)
(12.5014 -0.0743065 0)
(12.5363 -0.0930608 0)
(12.5491 -0.0989977 0)
(12.5048 -0.0857328 0)
(10.0643 -0.253484 0)
(10.3195 -0.455533 0)
(10.8952 -0.381327 0)
(11.1701 -0.241405 0)
(11.5309 -0.166919 0)
(11.6059 -0.143398 0)
(11.8135 -0.140568 0)
(11.8275 -0.154802 0)
(11.9936 -0.115585 0)
(11.9956 -0.113916 0)
(12.1485 -0.0985252 0)
(12.1362 -0.0929628 0)
(12.2836 -0.0724713 0)
(12.2849 -0.0985179 0)
(12.3822 -0.0668279 0)
(12.3846 -0.100648 0)
(12.4703 -0.090836 0)
(12.4563 -0.121536 0)
(12.4802 -0.109903 0)
(12.3626 -0.136273 0)
(10.0685 -0.347348 0)
(10.3882 -0.57192 0)
(11.0485 -0.45817 0)
(11.2863 -0.290434 0)
(11.6698 -0.214922 0)
(11.6634 -0.18664 0)
(11.8988 -0.179471 0)
(11.8146 -0.175458 0)
(11.9985 -0.143056 0)
(11.8779 -0.136599 0)
(12.0466 -0.109237 0)
(11.9015 -0.113619 0)
(12.0614 -0.0860257 0)
(11.9048 -0.100497 0)
(12.0175 -0.0867262 0)
(11.8778 -0.103683 0)
(11.9464 -0.0907637 0)
(11.7891 -0.129383 0)
(11.8082 -0.113523 0)
(11.5692 -0.15542 0)
(10.0199 -0.458924 0)
(10.551 -0.705618 0)
(11.1722 -0.544576 0)
(11.3647 -0.351006 0)
(11.5687 -0.265825 0)
(11.4461 -0.22344 0)
(11.5116 -0.199367 0)
(11.2791 -0.18224 0)
(11.3182 -0.145403 0)
(11.0529 -0.126566 0)
(11.1039 -0.105869 0)
(10.8265 -0.0977214 0)
(10.9052 -0.0757864 0)
(10.6214 -0.0848966 0)
(10.7019 -0.0673376 0)
(10.4295 -0.084826 0)
(10.489 -0.0700074 0)
(10.2088 -0.110904 0)
(10.2275 -0.0858175 0)
(9.8852 -0.157266 0)
(10.0699 -0.632355 0)
(10.6496 -0.863988 0)
(10.8714 -0.600745 0)
(10.6873 -0.372199 0)
(10.4605 -0.25834 0)
(10.0777 -0.194207 0)
(9.85256 -0.153146 0)
(9.4751 -0.126016 0)
(9.33507 -0.0931474 0)
(9.00874 -0.0765636 0)
(8.95276 -0.0592154 0)
(8.66242 -0.054554 0)
(8.67606 -0.0413948 0)
(8.39921 -0.0454476 0)
(8.44436 -0.0398835 0)
(8.17275 -0.0480468 0)
(8.21779 -0.0451122 0)
(7.9288 -0.0667766 0)
(7.94158 -0.0638892 0)
(7.59953 -0.0877339 0)
(10.0871 -0.838798 0)
(9.65298 -0.86786 0)
(8.87275 -0.506538 0)
(8.0816 -0.260993 0)
(7.49369 -0.139478 0)
(7.00267 -0.0813114 0)
(6.70557 -0.0532851 0)
(6.38618 -0.0426953 0)
(6.23839 -0.0292511 0)
(6.00578 -0.0241071 0)
(5.94606 -0.018534 0)
(5.75089 -0.0193524 0)
(5.74582 -0.0135816 0)
(5.56067 -0.0180324 0)
(5.5777 -0.0158521 0)
(5.38663 -0.0213533 0)
(5.40307 -0.0205688 0)
(5.1867 -0.0313664 0)
(5.18415 -0.0346604 0)
(4.89808 -0.0177635 0)
(8.09173 -0.387945 0)
(5.44831 -0.242516 0)
(3.91106 -0.0429419 0)
(3.15743 0.0156841 0)
(2.80106 0.0178418 0)
(2.59616 0.0112386 0)
(2.48732 0.0060325 0)
(2.37637 0.00165691 0)
(2.32182 0.00182025 0)
(2.24398 0.000603314 0)
(2.22286 0.000871091 0)
(2.15658 -0.000512369 0)
(2.15091 0.000650781 0)
(2.08664 -0.000957623 0)
(2.08442 -0.000346482 0)
(2.01133 -0.00197774 0)
(2.00374 -0.00107025 0)
(1.91492 -0.00378321 0)
(1.88236 -0.00348198 0)
(1.73546 0.0108629 0)
(2.24091 -0.0971518 0)
(2.35655 0.0147667 0)
(2.50311 0.0398236 0)
(2.61429 0.019962 0)
(2.71116 -0.00937852 0)
(2.76771 -0.0304986 0)
(2.82521 -0.0457332 0)
(2.86277 -0.0509166 0)
(2.91776 -0.0446672 0)
(2.96014 -0.0271726 0)
(3.02138 -0.00235765 0)
(3.0623 0.0156603 0)
(3.13492 0.0244574 0)
(3.17999 0.0244783 0)
(3.25462 0.0199024 0)
(3.29254 0.0160776 0)
(3.35686 0.0161504 0)
(3.37946 0.012995 0)
(3.43877 0.00218318 0)
(3.45825 -0.00357197 0)
(3.49527 -0.0116073 0)
(3.50942 -0.000392309 0)
(3.52549 0.0179125 0)
(3.56528 0.0433889 0)
(3.58734 0.0675633 0)
(3.65773 0.0813273 0)
(3.71545 0.0734917 0)
(3.79539 0.0780709 0)
(3.84185 0.0669554 0)
(3.93702 0.0405419 0)
(3.98481 0.0185672 0)
(4.04925 -0.0144679 0)
(4.09562 -0.0514153 0)
(4.12493 -0.0884724 0)
(4.16049 -0.115048 0)
(4.15963 -0.143942 0)
(4.19444 -0.152997 0)
(4.16235 -0.162826 0)
(4.19899 -0.161423 0)
(4.18595 -0.142441 0)
(4.21425 -0.111431 0)
(4.22652 -0.105227 0)
(4.23384 -0.0845647 0)
(4.25787 -0.0475105 0)
(4.29503 0.0224452 0)
(4.3216 0.051039 0)
(4.41273 0.073485 0)
(4.41956 0.0983825 0)
(4.52904 0.0777479 0)
(4.5732 0.0533482 0)
(4.66362 0.030105 0)
(4.67995 0.0250215 0)
(4.73117 -0.00170402 0)
(4.80516 -0.0248106 0)
(4.85573 -0.0620125 0)
(4.92986 -0.0942925 0)
(4.98585 -0.147707 0)
(5.0621 -0.221948 0)
(5.11851 -0.31965 0)
(5.13189 -0.423813 0)
(5.12648 -0.533778 0)
(4.99586 -0.644907 0)
(4.96277 -0.747942 0)
(4.62419 -0.837371 0)
(4.47909 -0.839377 0)
(4.16966 -0.697255 0)
(4.12925 -0.527518 0)
(3.7962 -0.343165 0)
(3.65185 -0.154031 0)
(3.37401 0.106952 0)
(3.41084 0.427142 0)
(3.57866 0.81422 0)
(3.99691 1.08847 0)
(4.45749 1.27481 0)
(4.94605 1.33727 0)
(5.2972 1.31331 0)
(5.61492 1.28759 0)
(5.85014 1.31392 0)
(6.13313 1.25685 0)
(6.39741 1.21438 0)
(6.68681 1.16005 0)
(6.99758 1.00386 0)
(7.30128 0.853321 0)
(7.60776 0.657742 0)
(7.8556 0.358663 0)
(8.17208 0.117984 0)
(8.41387 -0.19214 0)
(8.55965 -0.511137 0)
(8.82518 -0.819913 0)
(8.85777 -1.11647 0)
(8.98376 -1.41371 0)
(9.05712 -1.65587 0)
(9.0868 -1.8239 0)
(9.24134 -1.97021 0)
(9.47799 -2.19068 0)
(9.67803 -2.2969 0)
(9.98372 -2.41475 0)
(10.4124 -2.68085 0)
(10.6678 -2.77185 0)
(10.9632 -2.87181 0)
(11.3888 -3.11178 0)
(11.5593 -3.11929 0)
(11.8371 -3.22993 0)
(12.0281 -3.32014 0)
(12.1416 -3.34698 0)
(12.2591 -3.40179 0)
(12.2522 -3.31315 0)
(12.4253 -3.37061 0)
(12.2637 -3.17726 0)
(12.3224 -3.13631 0)
(12.2612 -2.98663 0)
(12.1965 -2.81002 0)
(12.2126 -2.68532 0)
(12.1126 -2.39912 0)
(12.2309 -2.23238 0)
(12.136 -1.92213 0)
(12.3026 -1.64014 0)
(12.3461 -1.30015 0)
(12.4839 -0.944286 0)
(12.6176 -0.603435 0)
(12.8108 -0.188041 0)
(12.9585 0.171144 0)
(13.122 0.559014 0)
(13.3412 0.943049 0)
(13.421 1.27528 0)
(13.8015 1.60407 0)
(13.6748 1.9359 0)
(14.0898 2.15801 0)
(13.9007 2.42428 0)
(14.1237 2.5567 0)
(13.9872 2.65258 0)
(13.9215 2.74639 0)
(13.9837 2.65634 0)
(13.529 2.67918 0)
(13.7306 2.48715 0)
(13.1525 2.38818 0)
(13.2363 2.10962 0)
(12.7927 1.92693 0)
(12.6606 1.67079 0)
(12.4576 1.28979 0)
(12.1713 1.10743 0)
(12.1616 0.731018 0)
(11.7981 0.37958 0)
(11.9253 0.142401 0)
(11.6081 -0.304849 0)
(11.7348 -0.610522 0)
(11.5273 -0.942022 0)
(11.7486 -1.34404 0)
(11.493 -1.79484 0)
(11.7359 -2.00016 0)
(11.5234 -2.58003 0)
(11.6349 -2.86876 0)
(11.324 -3.23233 0)
(11.2577 -3.41451 0)
(10.667 -3.75293 0)
(10.5067 -3.50054 0)
(9.63245 -3.4849 0)
(9.39963 -3.16059 0)
(8.69766 -2.88288 0)
(8.62817 -2.26618 0)
(8.00358 -2.17086 0)
(7.96194 -1.71321 0)
(7.66306 -1.21507 0)
(7.63199 -1.01392 0)
(7.2608 -1.03749 0)
(7.30298 -0.268982 0)
(7.50176 0.144324 0)
(7.25444 0.186762 0)
(7.18898 0.120401 0)
(6.78504 0.0252392 0)
(7.32186 0.665219 0)
(7.39241 0.881923 0)
(7.74492 1.52153 0)
(7.67993 1.22557 0)
(8.04573 1.05714 0)
(7.94249 0.477175 0)
(7.90733 -0.326808 0)
(7.79562 -1.87018 0)
(7.60306 -4.74012 0)
(7.74299 -6.15566 0)
(7.24581 -7.19439 0)
(7.04015 -6.49896 0)
(6.18784 -5.9255 0)
(6.17333 -4.60697 0)
(5.93571 -3.38219 0)
(6.05294 -2.21215 0)
(6.185 -0.905309 0)
(6.40045 0.0164761 0)
(6.60335 1.47856 0)
(7.40403 3.57394 0)
(7.55361 5.36858 0)
(7.89815 6.92965 0)
(8.06814 8.5585 0)
(8.40327 10.0276 0)
(8.5089 11.0928 0)
(8.17714 11.5425 0)
(7.42449 11.8208 0)
(7.12103 11.8131 0)
(6.83643 12.973 0)
(4.32977 14.7924 0)
(5.31444 -0.0701232 0)
(5.33754 -0.0426003 0)
(5.34064 -0.0261293 0)
(5.34199 -0.0291048 0)
(5.36092 -0.0515261 0)
(5.38712 -0.0761501 0)
(5.4249 -0.0941626 0)
(5.45248 -0.0929927 0)
(5.48499 -0.0814295 0)
(5.50741 -0.0586894 0)
(5.53319 -0.039802 0)
(5.55288 -0.0199749 0)
(5.58233 -0.0124937 0)
(5.6119 -0.00443211 0)
(5.6419 -0.007337 0)
(5.67245 -0.00696102 0)
(5.69802 -0.0110923 0)
(5.72778 -0.0119369 0)
(5.74807 -0.0194765 0)
(5.77281 -0.0272705 0)
(5.78839 -0.0238946 0)
(5.80845 -0.0196617 0)
(5.8252 0.000825279 0)
(5.84578 0.0128632 0)
(5.8752 0.0347878 0)
(5.90191 0.0400571 0)
(5.95591 0.0417282 0)
(5.98788 0.0303185 0)
(6.04379 0.0215546 0)
(6.07877 -0.000194293 0)
(6.13589 -0.0272873 0)
(6.16805 -0.0509454 0)
(6.21271 -0.0844226 0)
(6.2369 -0.103983 0)
(6.26684 -0.136273 0)
(6.28342 -0.146977 0)
(6.29632 -0.163872 0)
(6.31094 -0.166151 0)
(6.31346 -0.159477 0)
(6.34062 -0.154727 0)
(6.33915 -0.13262 0)
(6.36256 -0.121364 0)
(6.37457 -0.090721 0)
(6.39827 -0.0649035 0)
(6.42206 -0.0257389 0)
(6.42794 -0.00262017 0)
(6.47412 0.0110116 0)
(6.51376 0.0202673 0)
(6.55571 0.0251223 0)
(6.60014 0.0169447 0)
(6.63639 -0.0112541 0)
(6.69688 -0.0177067 0)
(6.69119 -0.0389703 0)
(6.7772 -0.0605367 0)
(6.78303 -0.0934943 0)
(6.86238 -0.130726 0)
(6.88909 -0.17579 0)
(6.93939 -0.246125 0)
(6.99077 -0.317833 0)
(6.96053 -0.427531 0)
(6.99614 -0.514109 0)
(6.85086 -0.596685 0)
(6.84318 -0.668934 0)
(6.62484 -0.676685 0)
(6.55959 -0.621729 0)
(6.29484 -0.524761 0)
(6.15622 -0.437101 0)
(5.92985 -0.250845 0)
(5.81016 -0.0547511 0)
(5.69067 0.228579 0)
(5.61449 0.483665 0)
(5.64006 0.699607 0)
(5.78031 0.906563 0)
(5.95861 0.99804 0)
(6.23932 1.01876 0)
(6.45951 1.03492 0)
(6.70112 1.00328 0)
(6.91376 0.988278 0)
(7.15428 0.961391 0)
(7.39137 0.903855 0)
(7.69309 0.817988 0)
(7.93874 0.710068 0)
(8.25178 0.546521 0)
(8.49975 0.331692 0)
(8.78038 0.142895 0)
(9.02509 -0.135749 0)
(9.26347 -0.429316 0)
(9.42004 -0.664719 0)
(9.6769 -1.01615 0)
(9.74979 -1.26487 0)
(9.95556 -1.50582 0)
(10.1688 -1.79248 0)
(10.2931 -1.98509 0)
(10.5858 -2.1812 0)
(10.8993 -2.40027 0)
(11.1301 -2.56959 0)
(11.4814 -2.70251 0)
(11.7483 -2.89349 0)
(12.0581 -3.04151 0)
(12.2066 -3.08539 0)
(12.4789 -3.25087 0)
(12.5748 -3.27871 0)
(12.6199 -3.31659 0)
(12.6752 -3.38697 0)
(12.6626 -3.38036 0)
(12.5592 -3.37142 0)
(12.5061 -3.27733 0)
(12.46 -3.27967 0)
(12.2429 -3.12408 0)
(12.1938 -3.02248 0)
(12.1005 -2.90924 0)
(12.0125 -2.72432 0)
(12.0024 -2.58118 0)
(11.9785 -2.36665 0)
(12.0343 -2.15601 0)
(12.0577 -1.92571 0)
(12.2019 -1.62438 0)
(12.2883 -1.31828 0)
(12.468 -1.00921 0)
(12.6003 -0.652736 0)
(12.8261 -0.285699 0)
(12.9796 0.0501841 0)
(13.116 0.457627 0)
(13.3673 0.8194 0)
(13.3956 1.20382 0)
(13.7542 1.49127 0)
(13.713 1.85354 0)
(14.0427 2.04595 0)
(14.0326 2.34505 0)
(14.2023 2.50912 0)
(14.2885 2.59409 0)
(14.2012 2.77747 0)
(14.4283 2.70345 0)
(14.105 2.74991 0)
(14.3044 2.62739 0)
(13.9677 2.56072 0)
(13.9715 2.3116 0)
(13.743 2.11 0)
(13.5411 1.89519 0)
(13.4041 1.5126 0)
(13.1622 1.2732 0)
(13.0952 0.908556 0)
(12.8208 0.507962 0)
(12.8044 0.264014 0)
(12.6306 -0.220331 0)
(12.5432 -0.56236 0)
(12.4925 -0.872771 0)
(12.3601 -1.30267 0)
(12.3484 -1.74768 0)
(12.1584 -1.9976 0)
(12.079 -2.46524 0)
(11.791 -2.76223 0)
(11.5653 -3.03794 0)
(11.1253 -3.10253 0)
(10.7408 -3.40427 0)
(10.1959 -3.09218 0)
(9.75991 -3.0321 0)
(9.13527 -2.79582 0)
(9.05789 -2.65054 0)
(8.54622 -1.97307 0)
(8.54563 -1.98722 0)
(8.04086 -1.54578 0)
(8.23788 -1.17561 0)
(7.83387 -0.817136 0)
(7.84021 -0.913285 0)
(7.41065 -0.281699 0)
(7.93934 0.0672483 0)
(7.48812 0.367144 0)
(7.65424 0.1566 0)
(6.94764 0.0728135 0)
(7.50687 0.555815 0)
(7.17953 0.889158 0)
(7.81521 1.5123 0)
(7.36974 1.1801 0)
(7.92881 0.964113 0)
(7.84957 0.431728 0)
(7.506 -0.353099 0)
(7.9028 -1.80186 0)
(7.19342 -4.78758 0)
(7.8069 -5.99318 0)
(6.90699 -6.86388 0)
(6.58964 -6.01399 0)
(5.84284 -5.35799 0)
(5.46977 -4.40308 0)
(5.447 -3.3857 0)
(5.66342 -2.31591 0)
(5.97117 -1.05011 0)
(6.00648 -0.194991 0)
(6.41894 1.24594 0)
(6.91582 3.1755 0)
(7.45453 5.09712 0)
(7.76965 6.49998 0)
(8.202 8.15751 0)
(8.54224 9.77993 0)
(8.70943 11.0417 0)
(8.77772 11.6777 0)
(8.56741 12.2744 0)
(8.01439 12.3734 0)
(9.15363 12.4169 0)
(6.94841 16.0103 0)
(7.98451 -0.0438445 0)
(7.99209 0.0104408 0)
(7.96305 0.0178196 0)
(7.95659 -0.00347987 0)
(7.94031 -0.0489227 0)
(7.9576 -0.0819609 0)
(7.98289 -0.105863 0)
(8.00562 -0.108813 0)
(8.02994 -0.0917001 0)
(8.03269 -0.0742324 0)
(8.0518 -0.0532876 0)
(8.04062 -0.0396673 0)
(8.06349 -0.0249153 0)
(8.05662 -0.0261426 0)
(8.09089 -0.023246 0)
(8.09284 -0.0294338 0)
(8.12779 -0.0289424 0)
(8.13499 -0.0273883 0)
(8.16308 -0.0328172 0)
(8.16818 -0.0322914 0)
(8.18342 -0.0348036 0)
(8.19029 -0.0311577 0)
(8.19267 -0.0216281 0)
(8.21074 -0.0106253 0)
(8.21129 6.49004e-05 0)
(8.24565 0.00847902 0)
(8.25654 0.00773533 0)
(8.30556 -0.000435294 0)
(8.31848 -0.0113359 0)
(8.37418 -0.0324909 0)
(8.38414 -0.0556762 0)
(8.4396 -0.0771236 0)
(8.44493 -0.105116 0)
(8.48266 -0.120853 0)
(8.49122 -0.144542 0)
(8.50886 -0.157631 0)
(8.51254 -0.16607 0)
(8.52535 -0.174307 0)
(8.52004 -0.167132 0)
(8.5399 -0.16688 0)
(8.5302 -0.148077 0)
(8.55155 -0.140151 0)
(8.5479 -0.107123 0)
(8.58178 -0.0904086 0)
(8.56868 -0.0536997 0)
(8.62408 -0.0277732 0)
(8.59659 -0.00341138 0)
(8.69107 0.0097681 0)
(8.64902 0.00521806 0)
(8.75155 0.00379561 0)
(8.70045 -0.0216597 0)
(8.79894 -0.0377574 0)
(8.76582 -0.0700445 0)
(8.82712 -0.0865455 0)
(8.85407 -0.121457 0)
(8.86676 -0.17304 0)
(8.93883 -0.190547 0)
(8.90809 -0.282286 0)
(8.9855 -0.31939 0)
(8.9189 -0.402824 0)
(8.94736 -0.48287 0)
(8.84829 -0.505716 0)
(8.78883 -0.573311 0)
(8.68535 -0.530958 0)
(8.52321 -0.525907 0)
(8.39895 -0.425638 0)
(8.20589 -0.302157 0)
(8.11078 -0.15519 0)
(7.97497 0.083609 0)
(7.86812 0.253697 0)
(7.83865 0.480645 0)
(7.82231 0.684897 0)
(7.88236 0.803032 0)
(7.98484 0.916637 0)
(8.0827 0.949973 0)
(8.23288 0.91494 0)
(8.34565 0.901938 0)
(8.4676 0.858034 0)
(8.65703 0.78131 0)
(8.77988 0.720736 0)
(9.01872 0.60989 0)
(9.24512 0.482688 0)
(9.44525 0.322971 0)
(9.7327 0.138305 0)
(9.9697 -0.0746796 0)
(10.1854 -0.323483 0)
(10.4697 -0.575292 0)
(10.6597 -0.832771 0)
(10.9315 -1.13276 0)
(11.1554 -1.3801 0)
(11.369 -1.63737 0)
(11.6298 -1.92956 0)
(11.8308 -2.13759 0)
(12.0843 -2.35517 0)
(12.3227 -2.57441 0)
(12.488 -2.72138 0)
(12.6983 -2.89119 0)
(12.8226 -3.00379 0)
(12.9513 -3.13253 0)
(12.9822 -3.20159 0)
(13.038 -3.24344 0)
(12.9774 -3.32515 0)
(12.9046 -3.29342 0)
(12.7619 -3.3234 0)
(12.6718 -3.30289 0)
(12.4393 -3.23602 0)
(12.3765 -3.20416 0)
(12.1507 -3.11867 0)
(12.0214 -3.02616 0)
(11.9486 -2.93984 0)
(11.8895 -2.82217 0)
(11.8664 -2.70152 0)
(11.9002 -2.56327 0)
(11.9499 -2.39799 0)
(12.0706 -2.23315 0)
(12.1435 -1.99842 0)
(12.3596 -1.75131 0)
(12.4952 -1.47644 0)
(12.6833 -1.15656 0)
(12.9156 -0.851093 0)
(13.0404 -0.427415 0)
(13.2697 -0.114282 0)
(13.3443 0.334333 0)
(13.589 0.698335 0)
(13.5302 1.13373 0)
(13.845 1.4019 0)
(13.6735 1.82706 0)
(13.9974 1.97455 0)
(13.8812 2.27091 0)
(14.0559 2.47958 0)
(14.0901 2.51883 0)
(14.1409 2.73381 0)
(14.216 2.68483 0)
(14.1663 2.72878 0)
(14.2474 2.62511 0)
(14.1518 2.58791 0)
(14.1333 2.41165 0)
(14.0529 2.18481 0)
(13.9677 2.02991 0)
(13.7778 1.64349 0)
(13.7131 1.43978 0)
(13.5138 1.02437 0)
(13.4364 0.63247 0)
(13.223 0.372672 0)
(13.173 -0.100849 0)
(12.9768 -0.505828 0)
(12.9175 -0.765575 0)
(12.6519 -1.21208 0)
(12.6094 -1.63958 0)
(12.242 -1.86216 0)
(12.1159 -2.28297 0)
(11.6627 -2.55752 0)
(11.4051 -2.68598 0)
(10.8831 -2.80022 0)
(10.5751 -2.96713 0)
(9.93681 -2.73824 0)
(9.77785 -2.62155 0)
(9.13423 -2.57448 0)
(9.26812 -2.37761 0)
(8.64546 -1.84408 0)
(9.04644 -1.78287 0)
(8.1703 -1.42443 0)
(8.7631 -1.05833 0)
(7.99076 -0.680025 0)
(8.52042 -0.694779 0)
(7.51237 -0.37312 0)
(8.33219 0.11571 0)
(7.42526 0.556596 0)
(8.10481 0.452351 0)
(6.92747 0.19007 0)
(7.95005 0.396424 0)
(6.99097 0.658958 0)
(8.04041 1.32525 0)
(7.18193 1.1076 0)
(7.84319 0.951603 0)
(7.52137 0.565238 0)
(7.25026 -0.305958 0)
(7.73205 -1.64132 0)
(6.97798 -4.83792 0)
(7.88781 -5.46214 0)
(6.03885 -6.53998 0)
(6.35689 -5.39835 0)
(5.21203 -4.82107 0)
(4.55218 -4.3651 0)
(5.0686 -3.45833 0)
(4.97866 -2.52692 0)
(5.83676 -1.22344 0)
(5.71888 -0.283977 0)
(6.10085 0.842404 0)
(6.57216 2.72435 0)
(7.16801 4.77621 0)
(7.63724 6.49945 0)
(7.973 7.85787 0)
(8.64508 9.47626 0)
(9.17175 11.0649 0)
(9.23667 11.8029 0)
(9.39531 12.3646 0)
(8.82587 13.2153 0)
(10.9786 11.8031 0)
(8.76892 16.0479 0)
(10.2962 -0.0134401 0)
(10.2676 0.0561816 0)
(10.1858 0.0596152 0)
(10.1231 0.00786125 0)
(10.1286 -0.0478395 0)
(10.1209 -0.0933103 0)
(10.181 -0.108018 0)
(10.178 -0.110644 0)
(10.222 -0.090272 0)
(10.1994 -0.06921 0)
(10.2199 -0.0515802 0)
(10.1957 -0.0341083 0)
(10.205 -0.0298617 0)
(10.1982 -0.0181269 0)
(10.2028 -0.0291479 0)
(10.2166 -0.0238183 0)
(10.2239 -0.0359548 0)
(10.2408 -0.0301694 0)
(10.2526 -0.036415 0)
(10.265 -0.0373673 0)
(10.2701 -0.0325821 0)
(10.285 -0.0356959 0)
(10.2752 -0.0217616 0)
(10.2985 -0.0207708 0)
(10.2823 -0.00527964 0)
(10.3167 -0.00823893 0)
(10.3018 -0.00539727 0)
(10.3512 -0.018709 0)
(10.3349 -0.0291744 0)
(10.3916 -0.0491292 0)
(10.3822 -0.0757386 0)
(10.4265 -0.087415 0)
(10.4325 -0.119183 0)
(10.4451 -0.123766 0)
(10.4707 -0.150397 0)
(10.4608 -0.155788 0)
(10.4868 -0.159664 0)
(10.477 -0.173082 0)
(10.4872 -0.158853 0)
(10.4951 -0.163906 0)
(10.476 -0.14793 0)
(10.5129 -0.135499 0)
(10.4573 -0.118347 0)
(10.5332 -0.0973418 0)
(10.4398 -0.0722269 0)
(10.5497 -0.0523551 0)
(10.4479 -0.0318564 0)
(10.5707 -0.0153551 0)
(10.4965 -0.0224852 0)
(10.5993 -0.02251 0)
(10.5701 -0.0302151 0)
(10.6127 -0.0656367 0)
(10.6592 -0.0674502 0)
(10.6271 -0.114426 0)
(10.7253 -0.129598 0)
(10.6705 -0.179604 0)
(10.748 -0.224667 0)
(10.7233 -0.257605 0)
(10.7198 -0.339361 0)
(10.7302 -0.356431 0)
(10.6411 -0.444864 0)
(10.6423 -0.449724 0)
(10.5029 -0.475464 0)
(10.4397 -0.473518 0)
(10.3058 -0.405359 0)
(10.1629 -0.350714 0)
(10.0751 -0.193589 0)
(9.9312 -0.0576434 0)
(9.8734 0.115135 0)
(9.80318 0.314107 0)
(9.75949 0.480707 0)
(9.81791 0.647681 0)
(9.82782 0.783747 0)
(9.92585 0.853382 0)
(10.0135 0.889217 0)
(10.0888 0.883901 0)
(10.2201 0.832215 0)
(10.2987 0.785398 0)
(10.4295 0.710848 0)
(10.5711 0.605502 0)
(10.7166 0.499687 0)
(10.9007 0.357032 0)
(11.1162 0.164045 0)
(11.2766 -0.00687067 0)
(11.5338 -0.263457 0)
(11.7311 -0.501102 0)
(11.9581 -0.729019 0)
(12.185 -1.03371 0)
(12.4005 -1.27047 0)
(12.6018 -1.55746 0)
(12.7787 -1.84104 0)
(12.95 -2.05284 0)
(13.0665 -2.31894 0)
(13.1999 -2.50618 0)
(13.248 -2.69156 0)
(13.2973 -2.85111 0)
(13.3058 -2.97101 0)
(13.2741 -3.09114 0)
(13.2292 -3.16386 0)
(13.1541 -3.22812 0)
(13.0392 -3.22495 0)
(12.8894 -3.2554 0)
(12.7792 -3.24551 0)
(12.5589 -3.2005 0)
(12.4764 -3.15692 0)
(12.2567 -3.12475 0)
(12.2021 -3.0824 0)
(11.9817 -2.99794 0)
(12.0062 -2.98117 0)
(11.9224 -2.88135 0)
(11.9582 -2.83472 0)
(11.9896 -2.73438 0)
(12.0638 -2.64001 0)
(12.1671 -2.53051 0)
(12.3185 -2.37383 0)
(12.4337 -2.18377 0)
(12.7273 -1.96308 0)
(12.8282 -1.67769 0)
(13.1459 -1.3992 0)
(13.3219 -1.01019 0)
(13.4962 -0.635415 0)
(13.7351 -0.231609 0)
(13.7926 0.215296 0)
(14.0654 0.576649 0)
(13.9441 1.07668 0)
(14.2221 1.33332 0)
(14.0037 1.79478 0)
(14.1931 2.00444 0)
(14.0447 2.22835 0)
(14.0953 2.49906 0)
(14.0268 2.54179 0)
(14.0412 2.71971 0)
(14.0366 2.68683 0)
(13.9096 2.74427 0)
(14.0196 2.62172 0)
(13.8573 2.55162 0)
(13.9243 2.43932 0)
(13.7853 2.21723 0)
(13.8505 2.0608 0)
(13.6454 1.69919 0)
(13.6211 1.53286 0)
(13.44 1.12392 0)
(13.3757 0.719507 0)
(13.1947 0.477689 0)
(13.0398 0.00121362 0)
(12.9506 -0.368666 0)
(12.7295 -0.661576 0)
(12.5348 -1.08021 0)
(12.3402 -1.48207 0)
(12.0105 -1.68005 0)
(11.7329 -2.00499 0)
(11.4122 -2.29779 0)
(11.0606 -2.35603 0)
(10.6861 -2.46897 0)
(10.3214 -2.59057 0)
(9.97669 -2.47887 0)
(9.73505 -2.31118 0)
(9.41055 -2.42813 0)
(9.4459 -2.17941 0)
(8.96829 -1.81807 0)
(9.25461 -1.53931 0)
(8.57805 -1.41605 0)
(9.0359 -0.89962 0)
(8.3376 -0.712291 0)
(8.68932 -0.38223 0)
(7.85612 -0.333609 0)
(8.47598 0.283195 0)
(7.64193 0.457343 0)
(8.35183 0.606185 0)
(7.05219 0.246467 0)
(8.02867 0.544049 0)
(6.95582 0.737172 0)
(7.81488 1.41764 0)
(6.87402 1.06867 0)
(7.56141 0.983414 0)
(7.06997 0.534235 0)
(7.01823 -0.270372 0)
(7.28581 -1.81454 0)
(6.82195 -4.8165 0)
(7.30508 -4.93184 0)
(5.36631 -6.16972 0)
(6.10354 -4.63763 0)
(4.23482 -4.21129 0)
(3.86676 -4.19545 0)
(4.27383 -3.81418 0)
(4.85547 -2.81721 0)
(5.10374 -1.74584 0)
(5.92201 -0.317512 0)
(5.51118 0.590014 0)
(6.45165 2.29889 0)
(6.8445 3.99635 0)
(7.57838 6.04684 0)
(8.01205 7.50834 0)
(8.32565 8.85408 0)
(9.27224 10.6288 0)
(9.85641 11.8001 0)
(10.4084 11.8725 0)
(8.96917 13.4474 0)
(12.4177 10.4842 0)
(10.4071 15.6168 0)
(11.8938 0.00106611 0)
(11.85 0.0159608 0)
(11.7804 -0.00448785 0)
(11.7029 -0.0423721 0)
(11.7289 -0.0876039 0)
(11.722 -0.104532 0)
(11.7818 -0.125889 0)
(11.7824 -0.116037 0)
(11.8106 -0.109482 0)
(11.7943 -0.0844554 0)
(11.7879 -0.0766165 0)
(11.7737 -0.0546407 0)
(11.758 -0.0540907 0)
(11.7513 -0.04263 0)
(11.7482 -0.0443453 0)
(11.7498 -0.0455144 0)
(11.7754 -0.0463759 0)
(11.7741 -0.0444399 0)
(11.808 -0.0491233 0)
(11.8056 -0.0473893 0)
(11.8308 -0.0445395 0)
(11.8351 -0.046794 0)
(11.8392 -0.0330949 0)
(11.8534 -0.0342438 0)
(11.8373 -0.0194903 0)
(11.8618 -0.0231375 0)
(11.8377 -0.0227931 0)
(11.8709 -0.0377098 0)
(11.845 -0.0412667 0)
(11.8669 -0.0716177 0)
(11.8618 -0.08742 0)
(11.8594 -0.105851 0)
(11.8859 -0.130873 0)
(11.8503 -0.132249 0)
(11.9082 -0.162053 0)
(11.8617 -0.159677 0)
(11.9129 -0.169565 0)
(11.884 -0.176865 0)
(11.9037 -0.174486 0)
(11.9175 -0.164602 0)
(11.8884 -0.165535 0)
(11.9538 -0.133558 0)
(11.8774 -0.125985 0)
(11.9801 -0.101327 0)
(11.8773 -0.0665883 0)
(11.9763 -0.0693176 0)
(11.8909 -0.0281265 0)
(11.9488 -0.0467876 0)
(11.9148 -0.0243758 0)
(11.9219 -0.0544318 0)
(11.9466 -0.0535916 0)
(11.8983 -0.0815701 0)
(11.9851 -0.117492 0)
(11.9162 -0.115821 0)
(12.0009 -0.179089 0)
(11.9871 -0.178588 0)
(11.9989 -0.230442 0)
(12.0633 -0.258596 0)
(11.984 -0.287512 0)
(12.0491 -0.337479 0)
(11.9512 -0.364124 0)
(11.9173 -0.390471 0)
(11.8536 -0.397243 0)
(11.7005 -0.380182 0)
(11.6607 -0.332874 0)
(11.4791 -0.252365 0)
(11.411 -0.138888 0)
(11.3165 -0.00236781 0)
(11.2131 0.137888 0)
(11.2483 0.310306 0)
(11.1887 0.455822 0)
(11.2987 0.604965 0)
(11.3682 0.72137 0)
(11.4599 0.793001 0)
(11.6017 0.836198 0)
(11.6982 0.824543 0)
(11.8066 0.787619 0)
(11.9447 0.718985 0)
(12.0143 0.62086 0)
(12.1827 0.518649 0)
(12.2821 0.37048 0)
(12.4442 0.218172 0)
(12.6156 0.028091 0)
(12.7378 -0.186725 0)
(12.9635 -0.396413 0)
(13.0896 -0.629856 0)
(13.2714 -0.894041 0)
(13.4315 -1.13586 0)
(13.5256 -1.40885 0)
(13.6757 -1.67562 0)
(13.7115 -1.90688 0)
(13.7714 -2.13969 0)
(13.7537 -2.34516 0)
(13.7064 -2.5158 0)
(13.645 -2.68034 0)
(13.5137 -2.78574 0)
(13.4056 -2.92752 0)
(13.2481 -2.98953 0)
(13.1104 -3.05852 0)
(12.9971 -3.12596 0)
(12.7833 -3.07097 0)
(12.6934 -3.12047 0)
(12.5479 -3.06065 0)
(12.424 -3.03406 0)
(12.3506 -3.02911 0)
(12.2126 -2.97747 0)
(12.1837 -2.99883 0)
(12.0793 -2.92017 0)
(12.1432 -2.95725 0)
(12.0678 -2.89099 0)
(12.1353 -2.85326 0)
(12.1657 -2.85867 0)
(12.2154 -2.73869 0)
(12.3142 -2.68219 0)
(12.4588 -2.56807 0)
(12.6007 -2.35499 0)
(12.8695 -2.21092 0)
(13.0007 -1.86955 0)
(13.3175 -1.62936 0)
(13.5069 -1.18403 0)
(13.6725 -0.823079 0)
(13.9634 -0.381464 0)
(14.0208 0.0969041 0)
(14.2796 0.459399 0)
(14.2538 0.974393 0)
(14.4505 1.29625 0)
(14.331 1.71901 0)
(14.4294 2.01765 0)
(14.311 2.25618 0)
(14.2958 2.4938 0)
(14.2062 2.62149 0)
(14.0784 2.75469 0)
(14.0756 2.73551 0)
(13.8486 2.78572 0)
(13.8219 2.69166 0)
(13.667 2.57554 0)
(13.6042 2.43875 0)
(13.4561 2.26309 0)
(13.4042 2.07664 0)
(13.3469 1.72283 0)
(13.1523 1.56662 0)
(13.0912 1.194 0)
(12.9227 0.818582 0)
(12.8271 0.539126 0)
(12.6032 0.111771 0)
(12.559 -0.237698 0)
(12.2638 -0.532912 0)
(12.1295 -0.946479 0)
(11.8815 -1.2813 0)
(11.6111 -1.4513 0)
(11.3513 -1.74387 0)
(11.0913 -2.01718 0)
(10.8297 -2.05771 0)