/*--------------------------------*- C++ -*----------------------------------*\
| =========                 |                                                 |
| \\      /  F ield         | OpenFOAM: The Open Source CFD Toolbox           |
|  \\    /   O peration     | Version:  2.4.0                                 |
|   \\  /    A nd           | Web:      www.OpenFOAM.org                      |
|    \\/     M anipulation  |                                                 |
\*---------------------------------------------------------------------------*/
FoamFile
{
    version     2.0;
    format      ascii;
    class       volScalarField;
    location    "0.98";
    object      k;
}
// * * * * * * * * * * * * * * * * * * * * * * * * * * * * * * * * * * * * * //

dimensions      [0 2 -2 0 0 0 0];

internalField   nonuniform List<scalar> 
8800
(
8.10956
10.2708
8.80696
6.80077
5.7435
4.92526
4.56526
4.12182
3.94256
3.61859
3.5929
3.31707
3.34347
3.13127
3.14221
2.95856
2.97064
2.77829
2.81586
2.52762
1.40635
4.34485
5.33247
5.28298
5.14462
4.77296
4.60976
4.27424
4.14259
3.84427
3.80249
3.54111
3.53942
3.37144
3.34214
3.21953
3.20124
3.05712
3.05545
2.98214
0.0847695
0.707832
1.59695
1.91252
2.30142
2.42288
2.59087
2.5905
2.6428
2.58262
2.59286
2.52534
2.52299
2.46081
2.45976
2.41601
2.41184
2.3629
2.35939
2.32082
0.00340009
0.0673921
0.284128
0.399925
0.580036
0.709747
0.841908
0.899529
1.06028
1.09853
1.1531
1.2308
1.2469
1.27844
1.33532
1.35567
1.38194
1.44186
1.45012
1.47081
0.000128877
0.00478278
0.0319011
0.0546645
0.0776102
0.130735
0.168272
0.188913
0.255787
0.299018
0.312908
0.376549
0.389185
0.420678
0.446206
0.492849
0.509613
0.58068
0.598923
0.658412
2.38956e-05
0.000291559
0.00299621
0.00524423
0.00725546
0.0133048
0.0201308
0.0234609
0.0374645
0.0505564
0.0539987
0.0735281
0.0777048
0.0859584
0.0961187
0.107487
0.114358
0.140324
0.150473
0.178209
2.1566e-05
4.52836e-05
0.000360823
0.000539488
0.000621645
0.000997477
0.0016085
0.00174117
0.00339729
0.00536001
0.00562806
0.00900207
0.00948938
0.010217
0.0126596
0.0135084
0.0146197
0.0192177
0.0218909
0.0284894
2.41407e-05
3.03271e-05
4.73767e-05
0.000140058
0.000149087
0.000260104
0.000274989
0.000250564
0.000302076
0.000541117
0.000560382
0.00097903
0.000979661
0.00102968
0.00124028
0.00125482
0.00128285
0.00148514
0.00196701
0.00305757
2.1323e-05
3.15813e-05
3.72991e-05
7.54136e-05
8.23399e-05
9.12095e-05
0.00013511
0.00013112
0.000125447
0.000136774
0.000137318
0.000175203
0.000200624
0.000200963
0.000212529
0.000204976
0.000195129
0.000197276
0.000225359
0.000309967
2.09514e-05
3.05365e-05
3.54521e-05
6.29778e-05
7.66925e-05
8.42778e-05
0.000106657
0.000107336
0.00010363
0.000106403
0.000114676
0.000121345
0.00015103
0.000155084
0.000164298
0.000163632
0.00016159
0.000162037
0.000166826
0.000188772
2.09725e-05
2.91265e-05
5.26785e-05
6.86199e-05
6.69124e-05
6.40897e-05
7.81589e-05
8.97952e-05
9.21657e-05
9.11402e-05
8.40099e-05
8.56908e-05
8.82818e-05
0.00010123
0.000117255
0.000126
0.000125304
0.000120686
0.000116141
0.00011861
2.06749e-05
2.76288e-05
4.50226e-05
5.32081e-05
6.62277e-05
7.88956e-05
0.000120146
0.000111953
0.00010901
0.00010529
0.000105803
0.000107487
0.00012723
0.000158103
0.000175922
0.000190795
0.000202293
0.000254952
0.000259157
0.000255576
2.1724e-05
2.92616e-05
4.23019e-05
9.22071e-05
0.000129262
0.000144279
0.000216744
0.000224575
0.000225729
0.000309726
0.000347937
0.000394299
0.000513943
0.000756665
0.000933119
0.00131438
0.00160186
0.00232427
0.00242446
0.0024623
2.189e-05
4.10147e-05
0.00010901
0.000412362
0.00091918
0.00109287
0.0018975
0.00233541
0.00255704
0.00397087
0.00459209
0.00614157
0.00745322
0.0101535
0.0119501
0.0163206
0.0183642
0.0233662
0.0251773
0.0276955
2.50646e-05
0.000285955
0.00128505
0.00526694
0.0107116
0.0130659
0.0213513
0.0278443
0.0313531
0.0445282
0.0505136
0.0641446
0.0719962
0.0878904
0.0967294
0.118204
0.127748
0.150715
0.159961
0.186997
0.000128243
0.00473008
0.0193165
0.0610062
0.100168
0.118568
0.171505
0.210284
0.230756
0.289052
0.311331
0.359408
0.385731
0.435893
0.460672
0.517712
0.539647
0.593343
0.61564
0.686168
0.00340894
0.0681882
0.22322
0.459104
0.604032
0.675018
0.853899
0.933596
1.00199
1.10502
1.14323
1.218
1.26374
1.31075
1.34205
1.39181
1.40844
1.45116
1.4705
1.53365
0.084637
0.718495
1.54142
1.98077
2.28258
2.41234
2.59629
2.60231
2.61553
2.59397
2.58512
2.54238
2.5285
2.47823
2.46436
2.42167
2.40932
2.3753
2.36752
2.34542
1.40606
4.32717
5.33128
5.29694
5.13263
4.8172
4.55942
4.28248
4.13677
3.85442
3.77917
3.58425
3.52101
3.36679
3.32602
3.19335
3.16394
3.03888
2.99914
2.89758
8.11462
10.2394
8.82633
6.80484
5.70596
4.98411
4.51189
4.13597
3.92849
3.64342
3.55849
3.34396
3.29914
3.13071
3.09278
2.92403
2.88855
2.70284
2.63268
2.42078
1.73252
1.2959
1.05668
0.905188
0.820078
0.757233
0.718605
0.683636
0.659017
0.633119
0.610092
0.591697
0.574246
0.565317
0.553517
0.549412
0.545763
0.547384
0.548709
0.554788
0.557421
0.565978
0.566272
0.569122
0.563042
0.553156
0.52217
0.497971
0.449821
0.420498
0.376994
0.352697
0.319326
0.303132
0.282598
0.273348
0.261788
0.256927
0.251665
0.249491
0.247813
0.247082
0.247548
0.249384
0.256257
0.264043
0.278351
0.293219
0.313869
0.336524
0.357328
0.379705
0.391723
0.407626
0.413296
0.428438
0.432857
0.441415
0.441142
0.437024
0.423429
0.392546
0.340202
0.29862
0.248244
0.212219
0.177392
0.166511
0.15462
0.152864
0.14907
0.159857
0.175457
0.221772
0.236883
0.279531
0.285402
0.31065
0.311886
0.326567
0.324099
0.335034
0.332963
0.337064
0.335805
0.334602
0.331011
0.326949
0.324146
0.31839
0.312822
0.309833
0.307761
0.301037
0.296458
0.288945
0.277222
0.247242
0.205451
0.157726
0.121574
0.0952422
0.0800418
0.0672676
0.0588684
0.0508241
0.045063
0.0404171
0.0388095
0.0385415
0.0396396
0.0442202
0.0558363
0.0854835
0.106665
0.151968
0.176253
0.21594
0.227396
0.247314
0.248449
0.255104
0.251213
0.254492
0.24741
0.248351
0.239158
0.237678
0.225629
0.220858
0.202697
0.195398
0.176674
0.17172
0.159435
0.159169
0.15589
0.1581
0.157011
0.162378
0.162703
0.171326
0.171353
0.175922
0.174123
0.17452
0.170949
0.16943
0.163122
0.158567
0.146873
0.14058
0.125145
0.11691
0.104785
0.0968324
0.0904201
0.0894745
0.0865604
0.0858613
0.0836496
0.0815243
0.0767819
0.0728074
0.0616985
0.0543218
0.0442093
0.0328549
0.0246839
0.018926
0.0142143
0.0138697
0.0143397
0.0145942
0.0139804
0.0142383
0.0141251
0.0140607
0.0146823
0.0176687
0.0280926
0.0613447
0.1219
0.163903
0.178708
0.179904
0.178083
0.169992
0.159814
0.133712
0.116855
0.0827993
0.0529152
0.040263
0.0390909
0.0458218
0.0835018
0.17822
0.438502
1.33487
2.49757
2.02935
1.69402
1.4704
1.29957
1.18953
1.08932
1.02427
0.952786
0.910835
0.857949
0.829291
0.78785
0.76943
0.738578
0.726244
0.701802
0.692306
0.672583
0.665366
0.649701
0.645746
0.636887
0.63581
0.631694
0.630968
0.62591
0.621218
0.607782
0.599264
0.579448
0.56929
0.548102
0.538659
0.519995
0.512392
0.497439
0.491024
0.478354
0.473205
0.462223
0.45792
0.448589
0.445418
0.438467
0.437374
0.434876
0.436671
0.436042
0.438064
0.435335
0.436251
0.431599
0.432392
0.429126
0.432705
0.432464
0.438716
0.440224
0.453231
0.452705
0.457484
0.451875
0.448813
0.426699
0.408298
0.345659
0.31153
0.251024
0.234114
0.206323
0.207265
0.204967
0.223499
0.233685
0.263225
0.271663
0.29298
0.297398
0.307622
0.310196
0.312842
0.312506
0.310746
0.308949
0.305286
0.302245
0.293943
0.28799
0.278986
0.271797
0.263341
0.262359
0.263467
0.27659
0.286985
0.300512
0.305247
0.306255
0.294003
0.262192
0.218343
0.183485
0.152526
0.130925
0.113743
0.0977192
0.0897358
0.0846872
0.085221
0.0898616
0.114098
0.133423
0.178758
0.203193
0.238389
0.25261
0.266638
0.267866
0.271095
0.267719
0.268687
0.262296
0.261901
0.253988
0.254219
0.247291
0.248395
0.243017
0.243957
0.239185
0.238683
0.231523
0.228571
0.216327
0.21169
0.199546
0.195159
0.18544
0.183064
0.177583
0.17695
0.174852
0.172628
0.169472
0.164758
0.159817
0.15388
0.147141
0.13257
0.124339
0.109133
0.0962514
0.0826
0.0760311
0.0623279
0.0545495
0.0481962
0.0391636
0.0354336
0.0308475
0.0277904
0.0247373
0.0219923
0.0186335
0.0167711
0.0141368
0.0119506
0.010622
0.0096409
0.00906687
0.010062
0.0107191
0.0112343
0.0116677
0.0136736
0.0139837
0.0152602
0.0188918
0.029006
0.0673093
0.145239
0.198185
0.206392
0.206621
0.196616
0.188212
0.176453
0.171068
0.162377
0.142438
0.125754
0.090855
0.0591401
0.0446133
0.0454412
0.0594183
0.100009
0.278142
0.745145
2.07025
1.81478
1.58536
1.42767
1.28561
1.19285
1.09789
1.03819
0.969352
0.925088
0.871845
0.836972
0.794256
0.766899
0.733162
0.714186
0.687552
0.674519
0.652288
0.642488
0.622948
0.61315
0.595402
0.58694
0.572071
0.567407
0.558352
0.556748
0.553202
0.553261
0.551017
0.550338
0.54553
0.543379
0.536134
0.533405
0.525318
0.52274
0.514944
0.513035
0.506045
0.504313
0.49736
0.495096
0.486617
0.48349
0.473061
0.468743
0.455487
0.449735
0.433715
0.426621
0.408382
0.400699
0.381938
0.375499
0.360086
0.356378
0.347633
0.34909
0.348808
0.356507
0.364252
0.389384
0.402092
0.423981
0.424617
0.426938
0.415469
0.400997
0.359158
0.332709
0.289247
0.268153
0.259615
0.264076
0.267834
0.273723
0.278352
0.281841
0.287255
0.290144
0.292273
0.293389
0.293088
0.292047
0.289056
0.280781
0.270528
0.255106
0.237869
0.218122
0.200912
0.1915
0.188923
0.189584
0.193434
0.217462
0.254747
0.287535
0.304267
0.310937
0.308642
0.294731
0.263251
0.244886
0.223468
0.211223
0.205659
0.203699
0.210665
0.219143
0.245176
0.254279
0.275688
0.274612
0.280168
0.272355
0.272125
0.258698
0.250587
0.225991
0.216111
0.191832
0.184187
0.166412
0.16325
0.158972
0.163384
0.165242
0.175932
0.18024
0.192318
0.195227
0.202718
0.201599
0.203705
0.200413
0.201034
0.196534
0.195287
0.18676
0.183839
0.171778
0.167649
0.153785
0.146396
0.129398
0.118211
0.0910995
0.0755827
0.0559159
0.0415081
0.0319564
0.0263137
0.0209423
0.0184457
0.0165648
0.0143941
0.0136061
0.01215
0.0114525
0.0103496
0.00962901
0.00858267
0.00818568
0.00710762
0.00682418
0.00664392
0.00669181
0.00687274
0.00827939
0.00899059
0.00987345
0.010986
0.0135647
0.0155066
0.0195413
0.0303905
0.0541837
0.163766
0.210369
0.236686
0.222524
0.219781
0.193713
0.176998
0.161269
0.161683
0.159952
0.152906
0.146025
0.130612
0.0983019
0.0654067
0.0500468
0.0670732
0.0787426
0.141018
0.361925
1.36491
1.24828
1.11805
1.03698
0.950902
0.901605
0.835663
0.80004
0.745602
0.716016
0.673782
0.647859
0.613492
0.589897
0.559871
0.542904
0.517633
0.508174
0.490557
0.484389
0.471464
0.465872
0.453666
0.445052
0.428139
0.418281
0.400516
0.39414
0.388161
0.388963
0.389923
0.395474
0.399947
0.408422
0.410137
0.413032
0.411483
0.41135
0.405774
0.403414
0.396559
0.394479
0.389596
0.387654
0.382489
0.379552
0.371854
0.367391
0.35601
0.349012
0.332583
0.323387
0.303937
0.292839
0.271664
0.260132
0.244288
0.232982
0.219996
0.215339
0.213909
0.21549
0.219465
0.232441
0.244665
0.272048
0.301616
0.342298
0.366866
0.38265
0.383922
0.383183
0.377358
0.363283
0.344589
0.327851
0.314662
0.3077
0.302479
0.300994
0.299176
0.2988
0.297104
0.293762
0.28573
0.273304
0.255645
0.231238
0.203669
0.179899
0.158087
0.13894
0.120855
0.108213
0.103637
0.103463
0.105175
0.110496
0.119146
0.143689
0.18988
0.229029
0.263021
0.280223
0.293797
0.295096
0.297013
0.292209
0.292397
0.287321
0.288253
0.285766
0.287353
0.285048
0.28381
0.273886
0.264886
0.241543
0.224878
0.191952
0.170688
0.135659
0.118041
0.0898079
0.0796281
0.0642073
0.0608494
0.0530233
0.0540603
0.0531356
0.0565498
0.0581145
0.0651659
0.0688161
0.0798138
0.0842466
0.0952499
0.0995216
0.105992
0.106822
0.106817
0.104193
0.102645
0.0962765
0.0909437
0.0824011
0.069047
0.0556399
0.0428387
0.0315406
0.0240347
0.0179108
0.0136577
0.0112895
0.00910435
0.00821735
0.00727148
0.0069916
0.0064433
0.00636513
0.00604482
0.00596305
0.0056835
0.00548935
0.00526021
0.00505951
0.00490336
0.00502195
0.0051535
0.00547665
0.00606547
0.00783824
0.00851217
0.0100059
0.0118013
0.0166859
0.0208795
0.0286492
0.0494068
0.123598
0.231908
0.242124
0.250114
0.22097
0.220544
0.193205
0.191143
0.169416
0.168469
0.156543
0.150938
0.142705
0.138136
0.12177
0.115052
0.0734024
0.0784645
0.0782635
0.091366
0.179447
0.626349
0.584926
0.536638
0.497083
0.463213
0.446853
0.422481
0.41338
0.395097
0.385332
0.367323
0.352699
0.337995
0.320389
0.302203
0.28814
0.26826
0.259408
0.247515
0.243626
0.240054
0.239902
0.24087
0.241676
0.241495
0.239513
0.229922
0.220044
0.207115
0.200649
0.196689
0.196292
0.196832
0.201513
0.209481
0.218523
0.2235
0.228398
0.22919
0.229294
0.227402
0.221188
0.214922
0.208481
0.20064
0.196838
0.188886
0.184772
0.177086
0.171618
0.165651
0.159404
0.152296
0.146504
0.139274
0.131714
0.122599
0.115876
0.108124
0.100239
0.0949751
0.0938561
0.094272
0.0963652
0.101868
0.112985
0.127417
0.150237
0.18312
0.226222
0.268544
0.302105
0.324582
0.332591
0.331938
0.328798
0.321654
0.314505
0.306727
0.300352
0.294417
0.285384
0.271038
0.2535
0.232236
0.203877
0.174147
0.143882
0.116329
0.0913502
0.0715759
0.0578293
0.0481844
0.0408982
0.0378615
0.0374144
0.0380246
0.0397681
0.0452642
0.0540603
0.0632213
0.084657
0.121027
0.169255
0.204062
0.237061
0.250782
0.268156
0.270273
0.274677
0.270942
0.271748
0.264073
0.258053
0.236383
0.223109
0.188792
0.171249
0.130215
0.107884
0.0762593
0.0604393
0.0438341
0.036646
0.0274495
0.024488
0.0198724
0.0182721
0.0163538
0.0156041
0.0153705
0.0156204
0.0159959
0.0166443
0.0180208
0.0185414
0.0202175
0.0210581
0.0223204
0.0233154
0.0233298
0.0232151
0.0227873
0.021587
0.0205016
0.0181271
0.0159265
0.0134303
0.0107912
0.00905496
0.0072219
0.00597662
0.00545943
0.00473276
0.00448563
0.00435616
0.00422311
0.00411627
0.00414613
0.00411347
0.00411478
0.00410236
0.00411334
0.00411036
0.00415841
0.00420396
0.00431981
0.00463895
0.00485204
0.00541281
0.00617761
0.00838435
0.00956978
0.0126768
0.0160234
0.0244988
0.0312606
0.0438652
0.0988203
0.2055
0.264968
0.258949
0.25744
0.230542
0.260561
0.230708
0.273476
0.243118
0.357614
0.275941
0.234451
0.16718
0.159799
0.135976
0.148142
0.120799
0.114799
0.0884063
0.0863849
0.113005
0.174233
0.16589
0.158963
0.146046
0.13735
0.132515
0.127883
0.127273
0.125904
0.125341
0.124274
0.121345
0.119477
0.11451
0.10828
0.101412
0.0918073
0.0856223
0.0784487
0.075496
0.0744856
0.0744329
0.0769118
0.079575
0.0837957
0.0865102
0.0879216
0.0882365
0.0841071
0.0772238
0.0715043
0.0682259
0.0674381
0.0671916
0.068197
0.0728488
0.0788331
0.085142
0.0890422
0.0916581
0.0923915
0.0922884
0.0911779
0.0873419
0.0812973
0.0767354
0.0702872
0.0657066
0.0609727
0.0567575
0.0535755
0.0503532
0.0482415
0.0464656
0.0448316
0.0442562
0.0429508
0.0418665
0.0407131
0.0388333
0.0362871
0.034191
0.0337327
0.033965
0.0348825
0.0376868
0.0430223
0.0480415
0.0598628
0.0764319
0.0929487
0.117236
0.148475
0.175071
0.198195
0.219341
0.229645
0.230106
0.227935
0.221204
0.208419
0.189858
0.167848
0.143518
0.117254
0.0920582
0.0711658
0.0545406
0.0415674
0.0319057
0.0249208
0.0202057
0.0168685
0.0144351
0.013221
0.0130168
0.0131169
0.0136908
0.0147612
0.0172424
0.0201724
0.0258189
0.0363612
0.0503584
0.0718039
0.0950795
0.118502
0.145585
0.162858
0.173504
0.174029
0.17176
0.166135
0.14942
0.132532
0.109361
0.0855073
0.0658975
0.0489708
0.0365326
0.0271143
0.0203287
0.0155467
0.0123253
0.009661
0.00840489
0.00682522
0.00629863
0.00549581
0.00528103
0.00498312
0.00504443
0.00501082
0.00512636
0.00518909
0.00525858
0.00555276
0.00563691
0.00580343
0.00594556
0.00598485
0.00598739
0.00591353
0.00577281
0.00556068
0.00507039
0.00491836
0.00432721
0.00402295
0.00366306
0.00329897
0.00320653
0.00320566
0.00310592
0.00319143
0.00319233
0.00325431
0.00331719
0.00346474
0.00350097
0.00360135
0.00368656
0.00379074
0.00396766
0.00410768
0.00452237
0.00487693
0.00591529
0.00662876
0.00879451
0.0102903
0.0139818
0.0160446
0.0204583
0.0281774
0.0361033
0.0455687
0.0695752
0.165058
0.245096
0.283488
0.267548
0.292962
0.283159
0.366738
0.320824
0.395876
0.391642
0.632144
0.553104
0.725804
0.457
0.410672
0.222078
0.182667
0.135201
0.123553
0.11173
0.0917309
0.0975095
0.0283708
0.0276042
0.0267969
0.0249592
0.0234055
0.0226381
0.0224893
0.0228086
0.0231764
0.0239753
0.024765
0.0250702
0.0252266
0.0251053
0.0245761
0.0230723
0.0204941
0.0186305
0.0163894
0.0151128
0.0143123
0.0140527
0.014408
0.0156935
0.018632
0.0209413
0.0227348
0.0236942
0.023563
0.0218101
0.018901
0.0165718
0.0154158
0.0146838
0.0145919
0.014677
0.0161199
0.0195476
0.0225714
0.0252547
0.0269117
0.0275839
0.0277036
0.0274755
0.0255772
0.0231922
0.0206672
0.0184162
0.0163437
0.0144296
0.0129774
0.0118757
0.0114053
0.0113347
0.0114699
0.012063
0.0127283
0.0134625
0.0140124
0.0141439
0.0136734
0.0120817
0.010996
0.0107303
0.010772
0.0110667
0.0123729
0.013676
0.017068
0.0214366
0.0262067
0.0335065
0.0443316
0.0551593
0.0640503
0.0749316
0.0840192
0.0868113
0.0865284
0.0844813
0.0793049
0.0705799
0.0601588
0.0496895
0.0398259
0.0311609
0.0239459
0.018318
0.0139093
0.0106985
0.00844816
0.00687801
0.00579864
0.00501465
0.00465977
0.00460879
0.00463792
0.00485193
0.00534524
0.00575374
0.00691108
0.00861993
0.0109402
0.0135549
0.0213213
0.028092
0.0362459
0.0464206
0.0564374
0.0621155
0.063143
0.0620976
0.059601
0.0526815
0.0446315
0.0364441
0.0285101
0.0219839
0.0165385
0.012516
0.00933736
0.0072368
0.00567108
0.0044904
0.00383957
0.0031273
0.00282512
0.00244701
0.00231209
0.00206926
0.00201413
0.00192391
0.00186038
0.00185466
0.00181811
0.00181937
0.00183679
0.00183259
0.00185725
0.00186135
0.00191895
0.00193324
0.00199838
0.00199448
0.00203082
0.00204767
0.00209091
0.00209564
0.00218648
0.00224601
0.0023201
0.0025117
0.00257218
0.0026933
0.00287569
0.00294395
0.00315049
0.00338116
0.00348647
0.00371502
0.00396344
0.00424369
0.00458435
0.00532612
0.00595081
0.00759092
0.00884043
0.0120954
0.0143005
0.018842
0.0235465
0.0275532
0.0301689
0.0389468
0.0519973
0.0541416
0.0614127
0.110469
0.184319
0.311975
0.305176
0.316448
0.336067
0.346708
0.470628
0.431304
0.458587
0.438828
0.475914
0.551866
0.699245
0.648663
0.842568
0.575698
0.388429
0.195684
0.146806
0.128176
0.106811
0.101272
0.00307215
0.00301612
0.00295485
0.00279083
0.00266632
0.00262447
0.00262533
0.00273882
0.00289158
0.00307826
0.0032231
0.00330182
0.00334772
0.00334654
0.00329691
0.003116
0.00280119
0.00257575
0.00230281
0.00210397
0.00194724
0.00186801
0.00188664
0.00210218
0.00281177
0.00344323
0.00399075
0.00426943
0.00427547
0.00397059
0.00336979
0.00285888
0.00250739
0.00226353
0.00216752
0.00216631
0.00262715
0.00398545
0.00530958
0.00643481
0.00717313
0.00750424
0.00758007
0.00745007
0.006727
0.00593249
0.0051858
0.0045627
0.00401988
0.00351546
0.00309191
0.00276008
0.00258181
0.00254573
0.00267857
0.00316392
0.0037262
0.00426623
0.00460985
0.00471947
0.00455716
0.00383573
0.00319609
0.00285814
0.00276255
0.00278523
0.00299263
0.00329185
0.00398569
0.00540432
0.00653139
0.00796328
0.0109914
0.0143374
0.0169191
0.0202635
0.0241926
0.0261366
0.0262776
0.0258534
0.0245434
0.0219624
0.0188097
0.015542
0.0123895
0.00962597
0.00732578
0.0055607
0.00422745
0.00327805
0.0026765
0.00222193
0.00193629
0.00174209
0.00168791
0.00168874
0.00171296
0.00179931
0.00203128
0.00220416
0.00242876
0.00310585
0.003681
0.00427591
0.00609463
0.00816041
0.00996404
0.0130468
0.0166937
0.0186388
0.019176
0.0188017
0.0180889
0.0162319
0.0140235
0.0112601
0.00900182
0.00688429
0.00535857
0.00406164
0.00320382
0.00260534
0.00218585
0.00193459
0.00178284
0.00165214
0.00161035
0.00151169
0.00149307
0.0014168
0.00142938
0.00137561
0.00140338
0.00136334
0.00136946
0.00134966
0.0013542
0.00133677
0.00134472
0.00135293
0.00136933
0.00140619
0.00147566
0.00151648
0.00159743
0.00171087
0.00177407
0.00193974
0.00210154
0.00221368
0.00257713
0.00277049
0.00292523
0.00336787
0.00367782
0.00404573
0.00473616
0.00520367
0.00551456
0.00617177
0.0068572
0.00748334
0.0087792
0.0107358
0.0126613
0.0173498
0.0210541
0.0297205
0.0350124
0.0459982
0.0517762
0.0584345
0.0608977
0.066633
0.0733298
0.0758206
0.0899372
0.161429
0.226906
0.379709
0.318498
0.373294
0.357428
0.409878
0.509282
0.470544
0.527823
0.447151
0.480808
0.504307
0.523622
0.547054
0.533778
0.651692
0.664915
0.439801
0.243744
0.164993
0.128322
0.109916
0.000379472
0.000404239
0.000435246
0.000463002
0.000472143
0.000474651
0.000475708
0.000474608
0.00047599
0.000485704
0.000495734
0.000499899
0.000502704
0.000502049
0.000500229
0.00050043
0.00050018
0.000500084
0.000500386
0.000493774
0.000486559
0.000477114
0.000474226
0.000476366
0.000517971
0.000589189
0.000670902
0.000730376
0.000752743
0.000756202
0.000748304
0.000714356
0.000686141
0.000658743
0.00064866
0.000670674
0.000872443
0.00118483
0.00145013
0.00163412
0.00170777
0.00171679
0.00165787
0.00151713
0.00139061
0.00127851
0.00118859
0.00111322
0.00103897
0.000960296
0.000881815
0.000808856
0.000766115
0.000750616
0.000773526
0.000912477
0.00108191
0.00124854
0.00135341
0.00139138
0.00136635
0.00121242
0.00103528
0.000886409
0.00080287
0.000788353
0.000798452
0.000840948
0.000936789
0.00133965
0.00164193
0.00194877
0.00268032
0.00343876
0.00401885
0.00486808
0.00603551
0.00678739
0.0069093
0.0068289
0.00653968
0.0058578
0.00494424
0.00404569
0.00316526
0.0024373
0.00187571
0.00147438
0.0012176
0.00103888
0.000946877
0.000880759
0.000853313
0.000835773
0.000826006
0.000828716
0.000826818
0.000834517
0.000885713
0.000935088
0.0010123
0.00116443
0.00134028
0.00149505
0.00191286
0.00242008
0.0027392
0.00361727
0.0045406
0.00510237
0.00520519
0.00514488
0.0049748
0.0044508
0.00383695
0.0031705
0.00259589
0.00219059
0.00184267
0.0016403
0.0015622
0.00151864
0.00151915
0.00155307
0.00157026
0.001631
0.00166269
0.00176711
0.00178648
0.00189008
0.00190478
0.00195671
0.00199853
0.00200397
0.0020424
0.00210917
0.00217294
0.00224233
0.00233286
0.00249766
0.00259717
0.00277579
0.00288068
0.00312577
0.00330958
0.00355132
0.00373059
0.00422574
0.00448239
0.00497236
0.0053948
0.00582815
0.00641201
0.00720477
0.00785801
0.0085268
0.00976706
0.0103909
0.0111803
0.0126109
0.0137278
0.015688
0.0196732
0.0238167
0.0296021
0.0434825
0.0546614
0.0729237
0.0896106
0.10808
0.114314
0.113639
0.10975
0.107789
0.10413
0.105865
0.12325
0.200249
0.289422
0.330788
0.26442
0.294073
0.29288
0.413828
0.400179
0.515558
0.501767
0.453959
0.408733
0.437789
0.518285
0.526938
0.501133
0.590529
0.639946
0.655564
0.536191
0.280824
0.183378
0.129295
0.000226495
0.000246075
0.000262054
0.00026864
0.00026748
0.00026764
0.000269381
0.000270822
0.000271643
0.000270788
0.000268697
0.000268724
0.000280933
0.000306364
0.000322594
0.000328198
0.000324287
0.000315358
0.00031141
0.000317211
0.000344572
0.000374145
0.000390573
0.000397555
0.00039756
0.000395951
0.000396023
0.000398687
0.000399008
0.000390758
0.000369806
0.000350173
0.0003369
0.000327914
0.00032606
0.000344179
0.000421361
0.000499656
0.000563366
0.000599743
0.00060927
0.000599825
0.000547608
0.000496708
0.000462624
0.000440673
0.000428195
0.000422785
0.000418757
0.000411754
0.000402564
0.000393701
0.000389033
0.000387089
0.000395511
0.000432854
0.000478734
0.000519508
0.000542757
0.000554051
0.000553831
0.000551187
0.000547694
0.000533586
0.000508151
0.000473764
0.00045509
0.000448828
0.000452186
0.000481091
0.000534686
0.000657734
0.000829195
0.000974501
0.0010775
0.0012904
0.00156112
0.00170978
0.00173151
0.00170366
0.00161805
0.00142138
0.00120819
0.00100252
0.000846536
0.000751496
0.000693574
0.00066897
0.000666947
0.000673519
0.000689492
0.000729375
0.000746518
0.00075086
0.000746662
0.000728934
0.00068641
0.000644778
0.000628369
0.000617701
0.000618297
0.000632619
0.000662861
0.000699943
0.000795199
0.000885172
0.000956755
0.0011207
0.00127551
0.00138214
0.00140943
0.00141192
0.00138179
0.00135228
0.00128652
0.00126726
0.00124883
0.00125914
0.00128757
0.00136753
0.00151751
0.00172944
0.00200721
0.00247626
0.00279441
0.00317333
0.00378869
0.0040254
0.00440841
0.00469431
0.00495922
0.00532647
0.00548402
0.00565926
0.00616648
0.00641897
0.00673445
0.00722326
0.00760553
0.00817645
0.00868238
0.00915345
0.00975621
0.0101355
0.010665
0.0109368
0.0116158
0.0120128
0.0124278
0.0131326
0.013566
0.0145288
0.0152473
0.0167928
0.0175072
0.0190522
0.0200585
0.0209967
0.0224044
0.0258587
0.0285303
0.0353119
0.0424272
0.0564974
0.0778829
0.107789
0.148049
0.182268
0.215889
0.225237
0.221782
0.209431
0.196124
0.177657
0.141611
0.137037
0.144233
0.23611
0.281552
0.285391
0.245279
0.265149
0.267654
0.353741
0.337098
0.437316
0.375484
0.39532
0.379405
0.393934
0.396224
0.450321
0.463128
0.527014
0.522196
0.629812
0.663245
0.568665
0.360688
0.191561
0.000118224
0.00011788
0.000119296
0.000121697
0.000126342
0.000134547
0.000144474
0.000151518
0.000156312
0.000160052
0.000164487
0.000168472
0.000170268
0.00017041
0.000170677
0.000173629
0.000186771
0.000208571
0.000224735
0.000234035
0.000235876
0.000234611
0.000231665
0.000229237
0.000220375
0.00020878
0.00020231
0.000201323
0.000216439
0.000256815
0.000297525
0.000325912
0.000337871
0.000335818
0.000304631
0.000273521
0.000257067
0.000252994
0.000252831
0.000253699
0.000250354
0.000243448
0.00024176
0.000251834
0.000286488
0.00032841
0.000356149
0.000377371
0.000383147
0.000380038
0.000367562
0.000351177
0.000339863
0.000330572
0.000319947
0.000313155
0.000312483
0.000317085
0.000322276
0.000323803
0.000322348
0.000339077
0.000428569
0.000530479
0.000601032
0.000628393
0.000630847
0.000594153
0.000527223
0.000466444
0.000431938
0.000422296
0.000423697
0.000434145
0.000444407
0.000457488
0.000497562
0.000519467
0.000525643
0.000517652
0.000503529
0.000500774
0.000503689
0.000515566
0.0005516
0.0006225
0.000759692
0.000916008
0.00107325
0.00128109
0.00147977
0.00159306
0.00161248
0.00159976
0.00156037
0.00140176
0.00122435
0.00105274
0.000912992
0.000815855
0.000746461
0.000708087
0.000692961
0.000685054
0.000689735
0.000693855
0.000708645
0.00072647
0.000741988
0.000789792
0.00081471
0.00086138
0.000926756
0.00096743
0.00109396
0.00122535
0.00146087
0.00173421
0.00234036
0.00308586
0.00377759
0.00520878
0.00622351
0.00783842
0.00892094
0.010358
0.0118957
0.0125496
0.0139831
0.0147467
0.0156679
0.0169234
0.0175363
0.0186952
0.0200558
0.0210498
0.022533
0.0245284
0.025557
0.0279092
0.0290135
0.0302818
0.0317665
0.0322036
0.0331554
0.0333999
0.033539
0.033589
0.0338022
0.0339104
0.0341563
0.0344743
0.0350252
0.0355391
0.0361085
0.0371372
0.0390982
0.0414218
0.0456117
0.0543321
0.0620875
0.0790351
0.100606
0.143841
0.20823
0.277344
0.321254
0.330713
0.325677
0.31416
0.293012
0.268259
0.253609
0.222562
0.175801
0.166169
0.173452
0.26946
0.287198
0.276712
0.252032
0.242619
0.251603
0.29812
0.282452
0.304414
0.321517
0.364959
0.356653
0.376401
0.384725
0.419503
0.404256
0.431896
0.420551
0.491068
0.605981
0.598839
0.565034
0.377428
0.000248042
0.000248841
0.000258038
0.00026853
0.000317836
0.000370473
0.000425515
0.000453048
0.000467139
0.000465188
0.00044431
0.000419793
0.000397644
0.00039041
0.000388873
0.000395296
0.00040917
0.000508641
0.000669781
0.000793754
0.000865853
0.000878338
0.000861996
0.000793443
0.000735579
0.000710164
0.00071311
0.000789123
0.000964388
0.00111466
0.00128183
0.00137717
0.00142839
0.00142088
0.00124051
0.00101113
0.000797632
0.000646602
0.000537037
0.000464015
0.000428429
0.000416026
0.000470333
0.000707393
0.000981652
0.0012873
0.00146865
0.0016005
0.00163476
0.00159818
0.00151073
0.0013471
0.00125318
0.00114597
0.00106037
0.000981589
0.000899196
0.000846495
0.000849411
0.00100276
0.00133021
0.0016566
0.00192505
0.00214475
0.00226005
0.00230669
0.00229451
0.00206029
0.00165979
0.00130417
0.00102835
0.000827992
0.000690195
0.000607127
0.000554784
0.000537676
0.000533691
0.000533922
0.000545353
0.000591326
0.000715329
0.000862465
0.00119855
0.00147699
0.00203077
0.00273501
0.00337357
0.00408225
0.00475308
0.00542873
0.00577753
0.0058259
0.00577938
0.00559569
0.00518205
0.00461002
0.00410807
0.003539
0.00299084
0.00257688
0.00217809
0.0019044
0.00165585
0.00150931
0.00139874
0.00129695
0.00126623
0.00127062
0.00128817
0.00136963
0.00145911
0.00166031
0.00198461
0.00225298
0.0030394
0.00387615
0.00499792
0.00703715
0.00843874
0.0121716
0.0142658
0.0181812
0.0215678
0.024726
0.0291028
0.0313367
0.0355161
0.0376528
0.0408369
0.0432533
0.0462806
0.0493416
0.0524224
0.0559507
0.0606984
0.0642838
0.0697866
0.0743971
0.079567
0.0845238
0.0874413
0.091355
0.0940165
0.0945357
0.0944656
0.0938182
0.0916364
0.0899939
0.0860443
0.0838436
0.0810016
0.0774153
0.0753823
0.0749697
0.0754965
0.0778207
0.0816042
0.0893885
0.0996381
0.114076
0.138163
0.17081
0.253254
0.341609
0.39292
0.395422
0.39082
0.370252
0.340327
0.312828
0.302765
0.283355
0.266118
0.225445
0.194484
0.188659
0.201977
0.290785
0.288258
0.291393
0.235151
0.258436
0.252452
0.255914
0.253216
0.292165
0.302095
0.340672
0.331181
0.345659
0.350387
0.385679
0.380344
0.383794
0.353827
0.354169
0.390536
0.507318
0.570938
0.517653
0.00244925
0.00249069
0.00258399
0.00297682
0.00361577
0.0039602
0.00420947
0.00425579
0.00423977
0.0040088
0.00373312
0.00357634
0.0034546
0.00345534
0.00346954
0.00367696
0.00432016
0.00531167
0.00627867
0.00686079
0.00728143
0.00729825
0.00728633
0.00713185
0.00687352
0.00680134
0.00676214
0.00705007
0.00743787
0.00777083
0.00800298
0.00804059
0.00803862
0.00765403
0.00683918
0.00609509
0.00527659
0.00474615
0.00433053
0.00415688
0.0041597
0.00430491
0.00522031
0.0060853
0.00701554
0.00790558
0.00838518
0.00876366
0.00880526
0.00863713
0.0083234
0.00775818
0.00750569
0.00706918
0.00672544
0.00649005
0.00634357
0.00651915
0.00730788
0.00820983
0.0090427
0.00944687
0.00962829
0.00963242
0.00959267
0.00946518
0.00864159
0.00746953
0.00631263
0.00521412
0.00435625
0.00362356
0.00307557
0.00272488
0.00255673
0.00254424
0.00257381
0.00265995
0.00310694
0.00358496
0.00461245
0.0059415
0.00712044
0.0090121
0.011308
0.0133423
0.0152938
0.0173372
0.0191414
0.0200988
0.0201695
0.01998
0.0194339
0.0178958
0.0164393
0.0145217
0.012977
0.01129
0.00966653
0.00853827
0.0073344
0.00643603
0.00575195
0.00521881
0.00483117
0.00450421
0.00448362
0.00452516
0.00466361
0.00509204
0.00558916
0.00665756
0.00813107
0.00943054
0.013292
0.0162065
0.0208247
0.0275474
0.031862
0.0423729
0.0479937
0.0573026
0.0660327
0.071902
0.082587
0.0878668
0.0947486
0.103348