/*--------------------------------*- C++ -*----------------------------------*\
| =========                 |                                                 |
| \\      /  F ield         | OpenFOAM: The Open Source CFD Toolbox           |
|  \\    /   O peration     | Version:  2.4.0                                 |
|   \\  /    A nd           | Web:      www.OpenFOAM.org                      |
|    \\/     M anipulation  |                                                 |
\*---------------------------------------------------------------------------*/
FoamFile
{
    version     2.0;
    format      ascii;
    class       volVectorField;
    location    "0.98";
    object      U_0;
}
// * * * * * * * * * * * * * * * * * * * * * * * * * * * * * * * * * * * * * //

dimensions      [0 1 -1 0 0 0 0];

internalField   nonuniform List<vector> 
8800
(
(8.0898 0.388253 0)
(5.45104 0.241989 0)
(3.91494 0.0433297 0)
(3.15056 -0.0146645 0)
(2.80902 -0.0198637 0)
(2.59042 -0.00974867 0)
(2.4866 -0.00456283 0)
(2.37735 -0.00572725 0)
(2.3333 0.000215476 0)
(2.22688 0.00255834 0)
(2.24365 -0.0067771 0)
(2.14828 0.00418266 0)
(2.16288 0.00159152 0)
(2.0846 -0.00545741 0)
(2.10658 0.00500281 0)
(2.01098 0.000620398 0)
(2.03506 -0.00291493 0)
(1.94555 0.00284421 0)
(1.98803 0.00935467 0)
(1.65371 -0.0732516 0)
(10.0797 0.839242 0)
(9.65957 0.864511 0)
(8.88132 0.509778 0)
(8.06373 0.262829 0)
(7.52602 0.13351 0)
(6.97125 0.0864405 0)
(6.72209 0.0563869 0)
(6.3877 0.0309098 0)
(6.2514 0.0366722 0)
(5.96721 0.031031 0)
(6.01557 0.00126501 0)
(5.68458 0.0302676 0)
(5.80942 0.0179138 0)
(5.53819 0.000100141 0)
(5.61208 0.0290927 0)
(5.3894 0.0156405 0)
(5.46455 0.0096948 0)
(5.20342 0.0179327 0)
(5.35196 0.0379352 0)
(4.91944 -0.05966 0)
(10.0632 0.634015 0)
(10.654 0.855022 0)
(10.8925 0.609214 0)
(10.6476 0.37299 0)
(10.5249 0.250018 0)
(10.02 0.204696 0)
(9.88595 0.153344 0)
(9.46954 0.107745 0)
(9.36321 0.110635 0)
(8.93617 0.0806505 0)
(9.08346 0.0336235 0)
(8.52567 0.0760151 0)
(8.78952 0.04003 0)
(8.35662 0.0215457 0)
(8.47749 0.0607843 0)
(8.17828 0.0341474 0)
(8.29898 0.0325402 0)
(7.91252 0.0446304 0)
(8.13743 0.0594003 0)
(7.65984 -0.0571041 0)
(10.031 0.461678 0)
(10.5411 0.69096 0)
(11.2417 0.562214 0)
(11.2716 0.344922 0)
(11.6606 0.253423 0)
(11.3689 0.245172 0)
(11.5579 0.196527 0)
(11.2444 0.152902 0)
(11.3972 0.179148 0)
(10.9208 0.124516 0)
(11.2992 0.0716029 0)
(10.6396 0.133556 0)
(11.035 0.0637827 0)
(10.57 0.0570729 0)
(10.727 0.0981446 0)
(10.4154 0.0584437 0)
(10.6028 0.0579389 0)
(10.1408 0.08795 0)
(10.4281 0.0632927 0)
(9.90442 0.0752446 0)
(10.1265 0.350336 0)
(10.3156 0.541744 0)
(11.2343 0.494816 0)
(11.1523 0.284649 0)
(11.767 0.190951 0)
(11.5814 0.217496 0)
(11.9524 0.17363 0)
(11.6961 0.132485 0)
(12.1756 0.196243 0)
(11.6993 0.12486 0)
(12.2555 0.0657286 0)
(11.7596 0.17864 0)
(12.1453 0.0514955 0)
(11.8445 0.0804043 0)
(12.0352 0.117112 0)
(11.8363 0.0715216 0)
(12.0248 0.0637747 0)
(11.7469 0.131463 0)
(11.9283 0.0571948 0)
(11.6159 0.138978 0)
(10.1869 0.260814 0)
(10.1101 0.40866 0)
(11.091 0.417658 0)
(11.136 0.257614 0)
(11.5523 0.135141 0)
(11.6484 0.184733 0)
(11.8103 0.145145 0)
(11.6232 0.0785723 0)
(12.1564 0.179974 0)
(11.9395 0.113852 0)
(12.201 0.0188508 0)
(12.1946 0.194419 0)
(12.251 0.0318822 0)
(12.2621 0.0672472 0)
(12.2924 0.125569 0)
(12.451 0.0496308 0)
(12.3449 0.0637123 0)
(12.5255 0.106474 0)
(12.4656 0.0639481 0)
(12.5289 0.0735442 0)
(9.9973 0.200602 0)
(10.3243 0.304964 0)
(10.6878 0.289538 0)
(11.2709 0.239727 0)
(11.1413 0.0760036 0)
(11.8638 0.14726 0)
(11.6367 0.164125 0)
(11.7351 0.0255469 0)
(11.7313 0.110655 0)
(12.0616 0.118767 0)
(11.9305 -0.0224305 0)
(12.273 0.189158 0)
(12.217 0.0222108 0)
(12.3007 0.0583375 0)
(12.2269 0.0880948 0)
(12.503 0.0398893 0)
(12.2375 0.0421755 0)
(12.5737 0.0764586 0)
(12.5204 0.0217778 0)
(12.6673 0.0516721 0)
(10.0286 0.119342 0)
(10.3923 0.214631 0)
(10.5757 0.215395 0)
(11.0623 0.208455 0)
(11.2507 0.0133025 0)
(11.5461 0.0684755 0)
(11.5598 0.162312 0)
(11.9071 0.04344 0)
(11.5148 0.0906926 0)
(11.966 0.0623178 0)
(11.9696 -0.0526155 0)
(12.0724 0.139708 0)
(12.3425 0.0212033 0)
(12.1277 0.0588559 0)
(12.3526 0.0903308 0)
(12.3388 0.0310926 0)
(12.2938 0.0290856 0)
(12.433 0.00757037 0)
(12.5692 -0.0208983 0)
(12.4094 0.0236037 0)
(10.0263 0.0562497 0)
(10.2687 0.127289 0)
(10.6823 0.148744 0)
(10.8249 0.1207 0)
(11.4571 -0.00314262 0)
(11.231 0.082692 0)
(11.4987 0.0685943 0)
(11.8763 0.00844244 0)
(11.6436 0.0909457 0)
(11.8082 0.00177161 0)
(12.0841 -0.0578512 0)
(11.8111 0.110082 0)
(12.2855 0.0131941 0)
(12.0401 0.038752 0)
(12.3679 0.0480082 0)
(12.3852 0.0404952 0)
(12.2738 -0.00426468 0)
(12.4837 -0.0173467 0)
(12.4661 -0.0270953 0)
(12.199 -0.00561485 0)
(9.88482 0.0102104 0)
(10.4039 0.00390558 0)
(10.5144 0.103976 0)
(10.958 0.0511316 0)
(11.2738 -0.0355296 0)
(11.4003 0.0687126 0)
(11.436 -0.00533159 0)
(11.8238 -0.0200379 0)
(11.5934 0.10054 0)
(11.8752 -0.0613389 0)
(11.9107 -0.0549288 0)
(11.9245 0.088626 0)
(12.0948 -0.0288518 0)
(12.1692 0.0226528 0)
(12.1831 0.0191289 0)
(12.3358 0.0333444 0)
(12.3356 -0.0149966 0)
(12.3927 -0.065851 0)
(12.394 -0.00680819 0)
(12.3895 -0.072764 0)
(9.96166 -0.0411841 0)
(10.2569 -0.0828679 0)
(10.5253 0.0308776 0)
(11.0213 -0.0308282 0)
(11.2231 -0.0621422 0)
(11.4928 0.0553714 0)
(11.3617 -0.0381113 0)
(11.8582 -0.0624747 0)
(11.5553 0.0692308 0)
(12.0798 -0.0837585 0)
(11.7204 -0.0688325 0)
(12.0468 0.0623442 0)
(12.0075 -0.0362852 0)
(12.1253 0.00288693 0)
(12.1924 0.0153469 0)
(12.2853 -0.0115599 0)
(12.4548 -0.0380861 0)
(12.3548 -0.0639318 0)
(12.4521 -0.067853 0)
(12.4082 -0.0730773 0)
(10.0437 -0.0733689 0)
(10.197 -0.188455 0)
(10.6208 -0.0671043 0)
(10.9796 -0.085103 0)
(11.2939 -0.0996853 0)
(11.3511 0.0490093 0)
(11.5952 -0.0999598 0)
(11.8095 -0.0929994 0)
(11.6038 0.0330725 0)
(12.0763 -0.109215 0)
(11.77 -0.047628 0)
(12.0111 0.0178678 0)
(12.0921 -0.039891 0)
(12.1067 -0.0295054 0)
(12.2237 -0.0177314 0)
(12.3796 -0.0440313 0)
(12.3731 -0.0499339 0)
(12.4013 -0.093331 0)
(12.5068 -0.0801562 0)
(12.3014 -0.0394759 0)
(10.0307 -0.132001 0)
(10.3027 -0.276672 0)
(10.5691 -0.142431 0)
(11.086 -0.159353 0)
(11.3249 -0.104674 0)
(11.3921 -0.00896737 0)
(11.7203 -0.150991 0)
(11.7132 -0.0948985 0)
(11.7363 -0.00918352 0)
(12.0408 -0.130992 0)
(11.8776 -0.0527268 0)
(12.0283 -0.0209563 0)
(12.12 -0.0507797 0)
(12.2001 -0.0374526 0)
(12.2164 -0.0515241 0)
(12.4131 -0.0587999 0)
(12.3868 -0.0651313 0)
(12.5353 -0.130165 0)
(12.4707 -0.0929201 0)
(12.3993 -0.0582252 0)
(10.0105 -0.196979 0)
(10.3375 -0.365633 0)
(10.6625 -0.233848 0)
(11.1564 -0.220656 0)
(11.3838 -0.132426 0)
(11.5148 -0.0520177 0)
(11.7954 -0.177352 0)
(11.7516 -0.118446 0)
(11.8448 -0.0610369 0)
(12.0343 -0.152151 0)
(11.9324 -0.0409607 0)
(12.0874 -0.0500013 0)
(12.1868 -0.0706008 0)
(12.2791 -0.0610801 0)
(12.3378 -0.0675647 0)
(12.446 -0.0972056 0)
(12.5187 -0.0909443 0)
(12.5436 -0.149313 0)
(12.4652 -0.108984 0)
(12.4824 -0.0404509 0)
(10.0824 -0.275919 0)
(10.3098 -0.461361 0)
(10.8056 -0.320063 0)
(11.2293 -0.269721 0)
(11.5428 -0.161073 0)
(11.6192 -0.118306 0)
(11.8754 -0.212685 0)
(11.7977 -0.128483 0)
(11.983 -0.0910887 0)
(11.9866 -0.158582 0)
(12.0697 -0.0638636 0)
(12.1456 -0.0918399 0)
(12.2892 -0.0907564 0)
(12.2907 -0.0847119 0)
(12.4048 -0.0870243 0)
(12.4055 -0.117878 0)
(12.4853 -0.0955153 0)
(12.4152 -0.154644 0)
(12.3523 -0.123517 0)
(12.3658 -0.105409 0)
(10.0829 -0.370579 0)
(10.3312 -0.554573 0)
(11.0104 -0.420361 0)
(11.3632 -0.330751 0)
(11.6778 -0.210406 0)
(11.6974 -0.15584 0)
(11.8972 -0.228772 0)
(11.7902 -0.158109 0)
(11.998 -0.123066 0)
(11.8412 -0.167968 0)
(12.0319 -0.0934426 0)
(11.9217 -0.106662 0)
(12.0482 -0.102843 0)
(11.9186 -0.0961023 0)
(12.0264 -0.093679 0)
(11.8578 -0.121528 0)
(11.9438 -0.0962831 0)
(11.7272 -0.14617 0)
(11.7021 -0.13116 0)
(11.609 -0.149315 0)
(10.0182 -0.470501 0)
(10.492 -0.695564 0)
(11.1999 -0.524215 0)
(11.4 -0.381229 0)
(11.5471 -0.255848 0)
(11.4923 -0.200368 0)
(11.4773 -0.238548 0)
(11.2772 -0.169918 0)
(11.3343 -0.126362 0)
(11.0155 -0.1504 0)
(11.1169 -0.0956808 0)
(10.8356 -0.0942295 0)
(10.8854 -0.0882726 0)
(10.6345 -0.081397 0)
(10.6876 -0.0749622 0)
(10.4018 -0.0978601 0)
(10.4716 -0.0712468 0)
(10.146 -0.120382 0)
(10.1539 -0.108837 0)
(9.88099 -0.151437 0)
(10.0639 -0.63781 0)
(10.6164 -0.85846 0)
(10.9078 -0.590241 0)
(10.6832 -0.389053 0)
(10.4443 -0.254965 0)
(10.1223 -0.179432 0)
(9.81001 -0.174604 0)
(9.4837 -0.121409 0)
(9.34871 -0.0788385 0)
(8.98008 -0.0910777 0)
(8.96833 -0.0567575 0)
(8.66331 -0.0497686 0)
(8.65907 -0.0494687 0)
(8.40494 -0.0449875 0)
(8.42383 -0.0429597 0)
(8.14548 -0.0573273 0)
(8.19068 -0.0458889 0)
(7.87494 -0.0727055 0)
(7.87526 -0.0819173 0)
(7.54335 -0.0738518 0)
(10.0851 -0.840009 0)
(9.63584 -0.866888 0)
(8.89857 -0.501552 0)
(8.07298 -0.268465 0)
(7.48384 -0.139764 0)
(7.03021 -0.0709885 0)
(6.67764 -0.064258 0)
(6.39229 -0.0437501 0)
(6.2438 -0.0185875 0)
(5.9936 -0.0323539 0)
(5.95297 -0.0193533 0)
(5.74731 -0.014714 0)
(5.73588 -0.0186946 0)
(5.55938 -0.018097 0)
(5.55927 -0.016895 0)
(5.36256 -0.0269848 0)
(5.37439 -0.0202608 0)
(5.14345 -0.0339868 0)
(5.12302 -0.0444013 0)
(4.83944 -0.00840168 0)
(8.09285 -0.3881 0)
(5.44127 -0.242859 0)
(3.92145 -0.0417584 0)
(3.15668 0.0143966 0)
(2.79273 0.0169683 0)
(2.60522 0.0147748 0)
(2.48366 0.00284604 0)
(2.37212 0.000664827 0)
(2.32222 0.00552753 0)
(2.24627 -0.00218382 0)
(2.21979 0.000541862 0)
(2.15396 0.00125524 0)
(2.14852 -0.00105159 0)
(2.08145 -0.000676451 0)
(2.07476 -0.000289087 0)
(1.99637 -0.00340764 0)
(1.98353 -0.000326196 0)
(1.89172 -0.00383014 0)
(1.84452 -0.00562397 0)
(1.70368 0.0116818 0)
(2.27431 -0.139068 0)
(2.28071 -0.0739776 0)
(2.4993 -0.0529085 0)
(2.49825 -0.0518034 0)
(2.74974 -0.0535758 0)
(2.73729 -0.0422262 0)
(2.96749 -0.0320524 0)
(2.9031 -0.0149131 0)
(3.10799 -0.00803293 0)
(3.01421 0.00184096 0)
(3.22852 0.00280164 0)
(3.12368 0.0031483 0)
(3.34979 -0.00225657 0)
(3.23663 -0.00778707 0)
(3.47019 -0.0187408 0)
(3.34903 -0.0283532 0)
(3.58249 -0.0499283 0)
(3.44175 -0.0693165 0)
(3.65756 -0.0978636 0)
(3.47075 -0.114143 0)
(3.66992 -0.128128 0)
(3.44204 -0.122113 0)
(3.64294 -0.106036 0)
(3.40797 -0.0655704 0)
(3.63999 -0.0319953 0)
(3.42615 0.0123885 0)
(3.69693 0.0306887 0)
(3.53086 0.050125 0)
(3.82397 0.0474969 0)
(3.65182 0.0620417 0)
(3.92747 0.060256 0)
(3.75094 0.0738681 0)
(4.01049 0.0735381 0)
(3.8185 0.0893705 0)
(4.0583 0.0931624 0)
(3.84534 0.112071 0)
(4.09183 0.108961 0)
(3.88836 0.128701 0)
(4.13873 0.128562 0)
(3.93735 0.1505 0)
(4.21195 0.157246 0)
(4.02005 0.183402 0)
(4.31454 0.18375 0)
(4.13271 0.194105 0)
(4.45684 0.176014 0)
(4.25654 0.169446 0)
(4.59579 0.132351 0)
(4.37077 0.092155 0)
(4.73604 0.0326925 0)
(4.48044 -0.0192877 0)
(4.89672 -0.0932091 0)
(4.61196 -0.150043 0)
(5.05401 -0.241267 0)
(4.71419 -0.294846 0)
(5.1155 -0.385907 0)
(4.73209 -0.395116 0)
(5.09901 -0.40632 0)
(4.66672 -0.406297 0)
(5.05045 -0.383336 0)
(4.51685 -0.401339 0)
(5.01595 -0.454445 0)
(4.46856 -0.435103 0)
(4.96642 -0.451036 0)
(4.41989 -0.4001 0)
(4.97359 -0.368236 0)
(4.35409 -0.260854 0)
(4.88319 -0.175664 0)
(4.13563 -0.0137953 0)
(4.69117 0.147364 0)
(3.8975 0.417806 0)
(4.54014 0.645597 0)
(3.81918 0.924224 0)
(4.5105 1.10364 0)
(3.87574 1.28647 0)
(4.47641 1.31633 0)
(3.96063 1.40555 0)
(4.46687 1.3164 0)
(4.14882 1.27234 0)
(4.54319 1.12149 0)
(4.42786 1.03962 0)
(4.70299 0.840232 0)
(4.81376 0.73021 0)
(5.07238 0.52365 0)
(5.27524 0.338662 0)
(5.53421 0.105624 0)
(5.79219 -0.132615 0)
(6.05157 -0.338264 0)
(6.35906 -0.545786 0)
(6.51582 -0.69101 0)
(6.76497 -0.816881 0)
(6.85621 -0.940791 0)
(7.06417 -0.996515 0)
(7.01961 -1.02383 0)
(7.15446 -1.02304 0)
(6.97156 -1.0012 0)
(6.9548 -0.989928 0)
(6.69647 -0.928714 0)
(6.6336 -0.889691 0)
(6.45133 -0.767993 0)
(6.39181 -0.692147 0)
(6.19645 -0.587152 0)
(6.10436 -0.461601 0)
(5.915 -0.408743 0)
(5.85512 -0.221658 0)
(5.7734 -0.0840533 0)
(5.80683 0.124078 0)
(5.84986 0.34034 0)
(5.87256 0.471716 0)
(5.93737 0.565627 0)
(5.83558 0.663097 0)
(5.88894 0.650668 0)
(5.76836 0.668713 0)
(5.81377 0.562024 0)
(5.79776 0.453989 0)
(5.88502 0.311314 0)
(6.00044 0.0760289 0)
(6.13681 -0.0914195 0)
(6.29495 -0.330323 0)
(6.6043 -0.52179 0)
(6.61657 -0.66844 0)
(7.11197 -0.839542 0)
(6.95742 -0.876184 0)
(7.56461 -0.958725 0)
(7.34394 -0.883639 0)
(7.87066 -0.871871 0)
(7.74658 -0.783014 0)
(8.08175 -0.619705 0)
(8.1416 -0.592287 0)
(8.2912 -0.307598 0)
(8.45037 -0.351449 0)
(8.51151 -0.0193039 0)
(8.74505 -0.133196 0)
(8.78573 0.199425 0)
(9.09528 0.0528984 0)
(9.09641 0.337902 0)
(9.43891 0.122927 0)
(9.36072 0.380288 0)
(9.70592 0.125449 0)
(9.58888 0.260233 0)
(9.90966 0.0869715 0)
(9.79809 0.183022 0)
(10.1625 -0.123388 0)
(9.83821 0.0897084 0)
(10.4974 -0.354186 0)
(9.84458 -0.268283 0)
(10.7586 -0.549283 0)
(9.93758 -0.67093 0)
(10.9108 -0.927944 0)
(10.0181 -0.932959 0)
(11.1775 -1.26753 0)
(10.0871 -1.2532 0)
(11.4573 -1.33385 0)
(10.2679 -1.39355 0)
(11.763 -1.50639 0)
(10.3976 -1.2886 0)
(12.0603 -1.49379 0)
(10.757 -1.46358 0)
(12.099 -1.27428 0)
(11.1837 -1.54794 0)
(12.3245 -1.40164 0)
(11.4074 -1.52887 0)
(12.4708 -1.62365 0)
(11.8796 -1.77301 0)
(12.3806 -1.82671 0)
(12.3262 -2.04589 0)
(12.4203 -2.28094 0)
(12.439 -2.25238 0)
(12.3078 -2.70008 0)
(12.3873 -2.7304 0)
(11.8714 -2.94694 0)
(11.6289 -3.04081 0)
(11.1414 -3.0858 0)
(10.3658 -2.81324 0)
(9.83007 -2.58974 0)
(9.23765 -2.42662 0)
(8.87336 -2.16074 0)
(8.44537 -2.0346 0)
(8.22472 -1.91206 0)
(8.15786 -2.01204 0)
(8.21066 -2.0399 0)
(7.96425 -1.90663 0)
(8.19106 -1.88448 0)
(7.96099 -1.6739 0)
(8.6531 -1.53926 0)
(8.48109 -1.20792 0)
(9.34859 -0.618441 0)
(9.39524 -0.0268442 0)
(10.1319 0.848229 0)
(9.9505 1.74816 0)
(10.6714 2.33669 0)
(10.3801 3.46865 0)
(10.6643 4.08634 0)
(10.6795 5.15052 0)
(10.3006 5.68445 0)
(9.97838 6.2574 0)
(9.90274 7.14566 0)
(9.57413 7.71606 0)
(9.49397 8.96043 0)
(9.37248 9.85975 0)
(5.39106 12.8376 0)
(5.25833 -0.0953493 0)
(5.18033 -0.0733827 0)
(5.30955 -0.0721999 0)
(5.26325 -0.0928659 0)
(5.4586 -0.110353 0)
(5.42863 -0.0957823 0)
(5.60815 -0.0756493 0)
(5.53322 -0.0460801 0)
(5.68426 -0.0478518 0)
(5.57431 -0.0431205 0)
(5.72619 -0.0467145 0)
(5.62272 -0.0421185 0)
(5.79621 -0.0449464 0)
(5.70412 -0.0486551 0)
(5.88093 -0.0591348 0)
(5.78791 -0.0650091 0)
(5.96701 -0.0861519 0)
(5.86271 -0.0922841 0)
(6.03195 -0.112033 0)
(5.89612 -0.111691 0)
(6.05371 -0.118987 0)
(5.88653 -0.110207 0)
(6.03005 -0.0948277 0)
(5.85236 -0.0705627 0)
(6.00598 -0.0482166 0)
(5.83516 -0.0157492 0)
(6.01127 0.00146337 0)
(5.85583 0.0284125 0)
(6.04579 0.0337528 0)
(5.88078 0.0553291 0)
(6.05995 0.0605872 0)
(5.88013 0.0742614 0)
(6.05112 0.0774365 0)
(5.85748 0.089971 0)
(6.02892 0.0894734 0)
(5.81761 0.103916 0)
(6.0108 0.0988661 0)
(5.80074 0.112458 0)
(6.02427 0.104911 0)
(5.81466 0.118949 0)
(6.07423 0.11675 0)
(5.86838 0.127508 0)
(6.16432 0.126456 0)
(5.96508 0.12847 0)
(6.30291 0.107244 0)
(6.09968 0.0948015 0)
(6.46447 0.0531605 0)
(6.26072 0.0206974 0)
(6.64921 -0.0415988 0)
(6.44639 -0.0881632 0)
(6.84819 -0.165933 0)
(6.63741 -0.219095 0)
(7.02149 -0.299387 0)
(6.77912 -0.352958 0)
(7.12494 -0.40507 0)
(6.83449 -0.426248 0)
(7.16173 -0.420894 0)
(6.84243 -0.3905 0)
(7.17611 -0.394585 0)
(6.81476 -0.330534 0)
(7.09832 -0.321877 0)
(6.6753 -0.279574 0)
(6.83812 -0.276349 0)
(6.30943 -0.25455 0)
(6.45841 -0.262538 0)
(5.91654 -0.193351 0)
(6.07943 -0.132117 0)
(5.54476 0.0268245 0)
(5.80083 0.185657 0)
(5.37329 0.422853 0)
(5.72401 0.640389 0)
(5.42101 0.903703 0)
(5.79216 1.07208 0)
(5.62556 1.25912 0)
(5.92888 1.30208 0)
(5.88237 1.36468 0)
(6.09222 1.2819 0)
(6.13493 1.21318 0)
(6.28659 1.06933 0)
(6.38386 0.924744 0)
(6.53455 0.768411 0)
(6.69311 0.579826 0)
(6.9221 0.361206 0)
(7.08736 0.133575 0)
(7.34883 -0.0952108 0)
(7.5281 -0.319648 0)
(7.74149 -0.538746 0)
(7.95145 -0.727346 0)
(8.10487 -0.91 0)
(8.31905 -0.994658 0)
(8.44963 -1.0653 0)
(8.6156 -1.0949 0)
(8.65979 -1.05241 0)
(8.74324 -1.01584 0)
(8.68027 -0.901574 0)
(8.62589 -0.816855 0)
(8.43588 -0.718097 0)
(8.20221 -0.638676 0)
(7.92684 -0.620625 0)
(7.64313 -0.524964 0)
(7.42551 -0.467626 0)
(7.1592 -0.345797 0)
(7.02386 -0.224975 0)
(6.72478 -0.116068 0)
(6.67247 0.0117877 0)
(6.4153 0.15944 0)
(6.49651 0.307161 0)
(6.32999 0.457284 0)
(6.47809 0.545158 0)
(6.429 0.639753 0)
(6.52907 0.634586 0)
(6.64064 0.580325 0)
(6.66764 0.546068 0)
(7.03985 0.310744 0)
(6.89229 0.20615 0)
(7.55959 -0.0955092 0)
(7.32833 -0.245689 0)
(8.06583 -0.573162 0)
(7.89697 -0.676281 0)
(8.54098 -0.947233 0)
(8.46279 -0.979952 0)
(8.97855 -1.11998 0)
(8.93589 -1.08382 0)
(9.33654 -1.06669 0)
(9.28446 -0.989419 0)
(9.65113 -0.892938 0)
(9.4345 -0.725588 0)
(9.95859 -0.677545 0)
(9.5344 -0.431263 0)
(10.2094 -0.391071 0)
(9.66207 -0.187225 0)
(10.4187 -0.10687 0)
(9.8304 -0.0256786 0)
(10.6055 0.055144 0)
(10.0302 0.123193 0)
(10.8388 0.0986087 0)
(10.2387 0.168349 0)
(11.0707 0.136125 0)
(10.431 0.0664858 0)
(11.2943 0.0773505 0)
(10.5547 -0.0356011 0)
(11.6201 -0.0877408 0)
(10.6407 -0.189706 0)
(11.935 -0.243768 0)
(10.7757 -0.548017 0)
(12.0725 -0.434469 0)
(10.9883 -0.984215 0)
(12.191 -0.790742 0)
(11.0932 -1.22155 0)
(12.4502 -1.13874 0)
(11.1916 -1.52091 0)
(12.5297 -1.14205 0)
(11.4108 -1.71576 0)
(12.6503 -1.27482 0)
(11.3943 -1.54175 0)
(12.8404 -1.40906 0)
(11.5325 -1.60714 0)
(12.7445 -1.27364 0)
(11.8261 -1.77356 0)
(12.8221 -1.38559 0)
(11.9242 -1.76832 0)
(12.9778 -1.67272 0)
(12.2577 -1.91312 0)
(12.7749 -1.83829 0)
(12.6096 -2.25627 0)
(12.6876 -2.14079 0)
(12.4733 -2.37796 0)
(12.4846 -2.55518 0)
(12.1721 -2.62905 0)
(11.8572 -2.60148 0)
(11.3647 -2.76955 0)
(11.0761 -2.51278 0)
(10.0434 -2.33004 0)
(10.0325 -2.01791 0)
(9.18226 -2.17429 0)
(9.12699 -1.64188 0)
(8.47116 -1.88685 0)
(8.52052 -1.70018 0)
(8.33264 -2.03328 0)
(8.08215 -1.87947 0)
(7.78799 -1.83014 0)
(7.63766 -1.86653 0)
(7.84748 -1.87726 0)
(7.95275 -1.86823 0)
(8.51209 -1.58299 0)
(8.6985 -1.15501 0)
(9.567 -0.224982 0)
(9.52919 0.448559 0)
(10.2966 1.66286 0)
(10.1283 2.24986 0)
(10.8724 3.40446 0)
(10.5526 4.02338 0)
(10.8967 4.86641 0)
(11.1576 5.9914 0)
(10.4435 6.35066 0)
(10.9656 7.6487 0)
(10.597 8.58756 0)
(9.66529 9.51964 0)
(12.5234 9.27802 0)
(8.89078 13.9891 0)
(7.90011 -0.113892 0)
(7.80897 -0.136033 0)
(7.90666 -0.150546 0)
(7.87005 -0.158686 0)
(8.02228 -0.144881 0)
(8.01155 -0.107029 0)
(8.16409 -0.0883133 0)
(8.10712 -0.0446256 0)
(8.23507 -0.0431842 0)
(8.12269 -0.0341135 0)
(8.23442 -0.0464262 0)
(8.10614 -0.0609177 0)
(8.23141 -0.0681863 0)
(8.12959 -0.0834668 0)
(8.27785 -0.0913174 0)
(8.19201 -0.0909411 0)
(8.35343 -0.10701 0)
(8.2546 -0.0984823 0)
(8.41242 -0.117796 0)
(8.27471 -0.109099 0)
(8.41759 -0.111005 0)
(8.25682 -0.106548 0)
(8.38466 -0.0876931 0)
(8.22236 -0.074184 0)
(8.34971 -0.0488325 0)
(8.19893 -0.018857 0)
(8.33808 -0.00110972 0)
(8.19407 0.0360365 0)
(8.34394 0.0404052 0)
(8.18769 0.0686077 0)
(8.33044 0.0737058 0)
(8.16186 0.0862042 0)
(8.30082 0.0963336 0)
(8.12491 0.103958 0)
(8.2692 0.113185 0)
(8.08435 0.121994 0)
(8.24296 0.117689 0)
(8.05562 0.124142 0)
(8.23428 0.1121 0)
(8.05362 0.116191 0)
(8.24384 0.101874 0)
(8.08371 0.105407 0)
(8.28767 0.0836412 0)
(8.14995 0.0881541 0)
(8.37872 0.0477094 0)
(8.25568 0.0348334 0)
(8.509 -0.0151611 0)
(8.40166 -0.0519244 0)
(8.65905 -0.109454 0)
(8.57203 -0.161962 0)
(8.82384 -0.23074 0)
(8.73768 -0.285417 0)
(8.9626 -0.354538 0)
(8.85223 -0.38487 0)
(9.03797 -0.440615 0)
(8.89373 -0.433087 0)
(9.04422 -0.440957 0)
(8.87922 -0.410877 0)
(9.00752 -0.385713 0)
(8.80456 -0.335554 0)
(8.88487 -0.29556 0)
(8.66095 -0.237374 0)
(8.71068 -0.179981 0)
(8.43807 -0.0880008 0)
(8.40929 -0.0255541 0)
(8.10172 0.0497424 0)
(7.97953 0.114328 0)
(7.61312 0.219 0)
(7.45954 0.314709 0)
(7.15698 0.477361 0)
(7.13645 0.61919 0)
(7.00967 0.812878 0)
(7.10738 0.968996 0)
(7.16431 1.11659 0)
(7.32313 1.18699 0)
(7.45052 1.22239 0)
(7.64339 1.17635 0)
(7.75887 1.08153 0)
(7.95001 0.968927 0)
(8.06542 0.797431 0)
(8.26993 0.628138 0)
(8.41496 0.430112 0)
(8.67735 0.169804 0)
(8.82293 -0.0351214 0)
(9.09783 -0.284022 0)
(9.25809 -0.497037 0)
(9.4752 -0.69537 0)
(9.67364 -0.886404 0)
(9.86357 -1.00171 0)
(9.97919 -1.10933 0)
(10.1069 -1.14185 0)
(10.1174 -1.15387 0)
(10.1577 -1.11255 0)
(10.1125 -1.03746 0)
(10.0919 -0.924005 0)
(10.0133 -0.78615 0)
(9.96186 -0.638642 0)
(9.81538 -0.481428 0)
(9.68193 -0.342725 0)
(9.35578 -0.249661 0)
(9.09977 -0.173671 0)
(8.72834 -0.120143 0)
(8.44155 -0.0505663 0)
(8.16908 0.0339137 0)
(7.92484 0.152427 0)
(7.82119 0.238761 0)
(7.58112 0.363704 0)
(7.73694 0.46518 0)
(7.49769 0.525374 0)
(7.82051 0.56742 0)
(7.67202 0.556351 0)
(8.11338 0.472711 0)
(7.98248 0.351111 0)
(8.59046 0.181416 0)
(8.48002 -0.0405941 0)
(9.10607 -0.271757 0)
(9.10358 -0.529462 0)
(9.63566 -0.709849 0)
(9.67958 -1.01658 0)
(10.1521 -1.03549 0)
(10.1563 -1.27997 0)
(10.596 -1.21167 0)
(10.5095 -1.31989 0)
(10.95 -1.14204 0)
(10.7269 -1.21176 0)
(11.2797 -0.934587 0)
(10.8356 -0.921085 0)
(11.5866 -0.687132 0)
(10.9497 -0.59418 0)
(11.8023 -0.399653 0)
(11.1151 -0.310871 0)
(11.9559 -0.144479 0)
(11.3048 -0.0830939 0)
(12.0927 -0.0188265 0)
(11.4521 0.0666404 0)
(12.2636 0.0593461 0)
(11.6084 0.0291814 0)
(12.4044 0.170438 0)
(11.7902 -0.134831 0)
(12.5384 0.148716 0)
(11.9259 -0.236723 0)
(12.7656 -0.0723606 0)
(11.9948 -0.303408 0)
(12.997 -0.341258 0)
(12.1734 -0.591026 0)
(13.0294 -0.518547 0)
(12.4857 -0.996537 0)
(13.0624 -0.868476 0)
(12.5202 -1.17031 0)
(13.1751 -1.27958 0)
(12.4827 -1.40547 0)
(13.0153 -1.32168 0)
(12.6194 -1.65724 0)
(12.9022 -1.36028 0)
(12.5409 -1.56053 0)
(13.036 -1.49846 0)
(12.5121 -1.49942 0)
(12.938 -1.41948 0)
(12.7049 -1.69464 0)
(12.8551 -1.42145 0)
(12.6386 -1.70464 0)
(12.9998 -1.81108 0)
(12.5982 -1.75458 0)
(12.7254 -1.99865 0)
(12.804 -2.15734 0)
(12.4056 -2.08077 0)
(12.5528 -2.32035 0)
(12.214 -2.3929 0)
(12.0749 -2.31218 0)
(11.6113 -2.25964 0)
(11.257 -2.38596 0)
(11.0154 -1.97343 0)
(9.94307 -1.96017 0)
(10.407 -1.68091 0)
(8.95084 -1.86604 0)
(9.79534 -1.25594 0)
(8.04751 -1.83574 0)
(9.36775 -1.35684 0)
(7.532 -1.99134 0)
(8.34065 -1.2644 0)
(6.81089 -1.91531 0)
(7.51642 -1.58194 0)
(7.02161 -2.29856 0)
(7.63431 -1.9009 0)
(7.66804 -2.24923 0)
(8.41018 -1.41926 0)
(8.79308 -0.87707 0)
(9.18643 0.301019 0)
(9.71125 0.951918 0)
(10.3066 2.25201 0)
(10.1478 3.04679 0)
(11.3685 4.28272 0)
(10.2672 4.86226 0)
(11.7096 5.95336 0)
(10.8238 6.54215 0)
(10.7576 7.02234 0)
(12.5885 7.74857 0)
(9.81078 10.512 0)
(14.5058 8.08629 0)
(11.852 13.9915 0)
(10.1004 -0.135714 0)
(10.0621 -0.264255 0)
(10.131 -0.299015 0)
(10.1502 -0.29137 0)
(10.2379 -0.239541 0)
(10.2294 -0.165509 0)
(10.3171 -0.134389 0)
(10.2526 -0.075832 0)
(10.3561 -0.0769707 0)
(10.252 -0.0489282 0)
(10.3625 -0.0468903 0)
(10.2574 -0.0566812 0)
(10.3574 -0.0554643 0)
(10.2673 -0.0816176 0)
(10.3595 -0.0958996 0)
(10.279 -0.106862 0)
(10.3881 -0.138467 0)
(10.2991 -0.121438 0)
(10.4308 -0.140833 0)
(10.3221 -0.115792 0)
(10.4484 -0.105367 0)
(10.3281 -0.0968436 0)
(10.416 -0.0666034 0)
(10.2923 -0.0613514 0)
(10.3454 -0.0383812 0)
(10.2284 -0.0129413 0)
(10.2879 -0.00879855 0)
(10.1888 0.028193 0)
(10.2806 0.0329128 0)
(10.1945 0.0668396 0)
(10.2969 0.0865864 0)
(10.2132 0.100586 0)
(10.3037 0.121673 0)
(10.2149 0.125021 0)
(10.2888 0.131626 0)
(10.1889 0.136669 0)
(10.2583 0.122044 0)
(10.1602 0.134686 0)
(10.2347 0.107749 0)
(10.1578 0.120426 0)
(10.2346 0.0947989 0)
(10.1821 0.0911972 0)
(10.28 0.0718914 0)
(10.2354 0.0489844 0)
(10.3651 0.0215674 0)
(10.3145 -0.0144074 0)
(10.4653 -0.0593391 0)
(10.4292 -0.104498 0)
(10.5654 -0.162517 0)
(10.5481 -0.212698 0)
(10.6638 -0.280959 0)
(10.6448 -0.325715 0)
(10.7362 -0.386798 0)
(10.6827 -0.41415 0)
(10.7441 -0.449419 0)
(10.6517 -0.452001 0)
(10.6812 -0.441039 0)
(10.5815 -0.419216 0)
(10.5898 -0.369377 0)
(10.4766 -0.311378 0)
(10.4696 -0.241646 0)
(10.3521 -0.15023 0)
(10.3169 -0.0833951 0)
(10.1817 0.0186845 0)
(10.0862 0.0962649 0)
(9.93555 0.185089 0)
(9.78965 0.28663 0)
(9.59458 0.387475 0)
(9.41145 0.515029 0)
(9.2051 0.630648 0)
(9.06995 0.742331 0)
(8.93911 0.861822 0)
(8.89487 0.951426 0)
(8.8974 1.0318 0)
(8.97373 1.07463 0)
(9.06127 1.05999 0)
(9.2354 1.02407 0)
(9.35345 0.91997 0)
(9.55618 0.792624 0)
(9.71323 0.647664 0)
(9.9184 0.446535 0)
(10.1085 0.247282 0)
(10.3497 0.00623729 0)
(10.5373 -0.227346 0)
(10.7709 -0.449966 0)
(10.9473 -0.669425 0)
(11.1127 -0.859479 0)
(11.2713 -1.02485 0)
(11.3576 -1.14247 0)
(11.433 -1.21432 0)
(11.439 -1.22869 0)
(11.4829 -1.18487 0)
(11.4113 -1.10657 0)
(11.4342 -0.98632 0)
(11.3106 -0.846768 0)
(11.274 -0.697719 0)
(11.1152 -0.546109 0)
(11.0614 -0.392316 0)
(10.8881 -0.253542 0)
(10.7994 -0.0844008 0)
(10.5891 0.0280133 0)
(10.4055 0.149731 0)
(10.1398 0.210318 0)
(9.90737 0.279834 0)
(9.62916 0.318236 0)
(9.45169 0.385843 0)
(9.30952 0.417428 0)
(9.17413 0.481448 0)
(9.30949 0.469402 0)
(9.14338 0.50297 0)
(9.56085 0.398028 0)
(9.40774 0.324309 0)
(9.97564 0.160084 0)
(9.87289 -0.0662342 0)
(10.5414 -0.251265 0)
(10.3631 -0.528961 0)
(11.1375 -0.774979 0)
(10.835 -0.969642 0)
(11.6098 -1.19211 0)
(11.2705 -1.3189 0)
(11.9165 -1.37166 0)
(11.5728 -1.45775 0)
(12.1281 -1.38681 0)
(11.7517 -1.322 0)
(12.2524 -1.27161 0)
(11.9407 -1.08338 0)
(12.2749 -0.950912 0)
(12.1634 -0.872806 0)
(12.3662 -0.572716 0)
(12.3499 -0.593588 0)
(12.5576 -0.334699 0)
(12.5461 -0.253546 0)
(12.7521 -0.176188 0)
(12.8092 -0.0607596 0)
(12.9072 -0.0238095 0)
(13.0874 -0.0177012 0)
(13.0775 0.0394803 0)
(13.2536 0.00314282 0)
(13.3444 -0.0435432 0)
(13.3103 -0.0151348 0)
(13.5649 -0.167574 0)
(13.4632 -0.200514 0)
(13.598 -0.261436 0)
(13.6304 -0.438322 0)
(13.7031 -0.535538 0)
(13.5564 -0.614671 0)
(13.8593 -0.938628 0)
(13.4269 -0.936611 0)
(13.6811 -1.1176 0)
(13.4237 -1.32528 0)
(13.3564 -1.21773 0)
(13.2072 -1.41673 0)
(13.3051 -1.4593 0)
(12.8392 -1.35434 0)
(13.1376 -1.47536 0)
(12.7793 -1.52804 0)
(12.8429 -1.33425 0)
(12.6126 -1.57481 0)
(12.8645 -1.52825 0)
(12.3733 -1.53429 0)
(12.8047 -1.65909 0)
(12.3509 -1.82601 0)
(12.704 -1.69417 0)
(12.2001 -2.08299 0)
(12.7182 -1.91524 0)
(11.8778 -2.07314 0)
(12.6418 -2.12897 0)
(11.5674 -2.16596 0)
(12.148 -1.92698 0)
(11.1326 -2.09455 0)
(11.4007 -1.90087 0)
(10.608 -1.66564 0)
(10.1584 -1.5438 0)
(10.4987 -1.43841 0)
(8.98244 -1.49217 0)
(10.1114 -0.942272 0)
(7.75551 -1.48358 0)
(9.68616 -1.01922 0)
(6.78915 -1.62097 0)
(8.35595 -0.691996 0)
(5.60992 -1.76627 0)
(7.64833 -1.29417 0)
(5.48619 -2.67262 0)
(7.79664 -1.66399 0)
(5.68741 -2.76444 0)
(8.1227 -1.25534 0)
(6.89584 -1.36672 0)
(8.70717 0.251535 0)
(8.00419 0.273315 0)
(10.2271 1.91411 0)
(9.3979 2.71767 0)
(11.2216 3.74528 0)
(10.7368 4.76157 0)
(11.0736 5.61466 0)
(12.8393 6.77651 0)
(10.29 8.44531 0)
(14.1562 6.47258 0)
(10.4276 10.9713 0)
(14.1183 6.48572 0)
(13.1868 12.5872 0)
(11.5201 -0.110206 0)
(11.6061 -0.282751 0)
(11.6689 -0.315382 0)
(11.813 -0.322417 0)
(11.8493 -0.257616 0)
(11.8939 -0.170983 0)
(11.9018 -0.13534 0)
(11.8523 -0.0618875 0)
(11.8819 -0.0823428 0)
(11.7885 -0.0508422 0)
(11.8273 -0.0539023 0)
(11.7353 -0.0768789 0)
(11.7803 -0.0707039 0)
(11.7244 -0.106938 0)
(11.7748 -0.108739 0)
(11.7377 -0.111534 0)
(11.8091 -0.148098 0)
(11.7719 -0.112509 0)
(11.8593 -0.143307 0)
(11.8109 -0.107099 0)
(11.8778 -0.0962849 0)
(11.83 -0.0934675 0)
(11.8481 -0.0400571 0)
(11.8055 -0.0521739 0)
(11.779 -0.00361091 0)
(11.7336 0.0064826 0)
(11.6971 0.00756148 0)
(11.653 0.0471032 0)
(11.6587 0.0261911 0)
(11.6272 0.0700275 0)
(11.6784 0.0691172 0)
(11.6646 0.0826698 0)
(11.7346 0.116523 0)
(11.7362 0.109731 0)
(11.7835 0.145817 0)
(11.7822 0.139878 0)
(11.7932 0.141514 0)
(11.7845 0.147048 0)
(11.7809 0.117226 0)
(11.7628 0.117332 0)
(11.7753 0.0917347 0)
(11.7468 0.0640381 0)
(11.8139 0.0466254 0)
(11.7703 0.0106277 0)
(11.8823 -0.0180328 0)
(11.8444 -0.0489839 0)
(11.9562 -0.0986953 0)
(11.9532 -0.137963 0)
(12.0267 -0.187083 0)
(12.0409 -0.239556 0)
(12.0874 -0.284563 0)
(12.0816 -0.334814 0)
(12.1137 -0.375555 0)
(12.0559 -0.399242 0)
(12.0599 -0.425359 0)
(11.96 -0.419065 0)
(11.9271 -0.406299 0)
(11.8172 -0.373362 0)
(11.7594 -0.322738 0)
(11.6607 -0.262469 0)
(11.5888 -0.185707 0)
(11.506 -0.105643 0)
(11.4385 -0.0208049 0)
(11.3665 0.0714359 0)
(11.2927 0.172017 0)
(11.2357 0.272658 0)
(11.162 0.397878 0)
(11.1067 0.50799 0)
(11.0137 0.647102 0)
(10.9511 0.758852 0)
(10.8703 0.86805 0)
(10.8278 0.957292 0)
(10.7789 1.01057 0)
(10.7931 1.0506 0)
(10.8152 1.04055 0)
(10.8922 1.00385 0)
(10.9979 0.929364 0)
(11.1295 0.807036 0)
(11.2737 0.668297 0)
(11.4608 0.492055 0)
(11.6065 0.288642 0)
(11.8109 0.0807042 0)
(11.9903 -0.159426 0)
(12.1544 -0.38543 0)
(12.3282 -0.599008 0)
(12.434 -0.817836 0)
(12.5209 -0.976085 0)
(12.5818 -1.12246 0)
(12.5841 -1.19946 0)
(12.584 -1.21679 0)
(12.5201 -1.20145 0)
(12.4648 -1.14265 0)
(12.3684 -1.03845 0)
(12.2643 -0.933374 0)
(12.1759 -0.789562 0)
(12.0476 -0.643996 0)
(11.9876 -0.486798 0)
(11.8496 -0.308484 0)
(11.8376 -0.160702 0)
(11.6509 0.00407739 0)
(11.6829 0.1357 0)
(11.46 0.251772 0)
(11.4977 0.387274 0)
(11.2518 0.408444 0)
(11.2664 0.536507 0)
(11.0181 0.492811 0)
(11.0884 0.571202 0)
(10.8549 0.502992 0)
(11.0697 0.495661 0)
(10.9039 0.417636 0)
(11.213 0.308473 0)
(11.2123 0.143696 0)
(11.5144 0.000362134 0)
(11.6586 -0.273549 0)
(11.9644 -0.460417 0)
(12.0579 -0.691337 0)
(12.4131 -0.999773 0)
(12.3716 -1.052 0)
(12.7406 -1.38108 0)
(12.5447 -1.34547 0)
(12.9585 -1.49459 0)
(12.5267 -1.45528 0)
(13.134 -1.44539 0)
(12.3888 -1.30977 0)
(13.258 -1.31717 0)
(12.2951 -1.04275 0)
(13.2858 -1.06222 0)
(12.357 -0.784536 0)
(13.3084 -0.763691 0)
(12.5038 -0.500016 0)
(13.414 -0.544269 0)
(12.6962 -0.212463 0)
(13.5636 -0.362541 0)
(12.9835 -0.0953501 0)
(13.6567 -0.157027 0)
(13.362 -0.11204 0)
(13.7441 -0.038994 0)
(13.6355 -0.100958 0)
(13.997 -0.122076 0)
(13.7285 -0.0784246 0)
(14.212 -0.27386 0)
(13.8736 -0.183951 0)
(14.198 -0.350972 0)
(14.0531 -0.446129 0)
(14.1368 -0.510257 0)
(13.9508 -0.691324 0)
(14.1657 -0.844651 0)
(13.5899 -0.82121 0)
(13.9817 -1.08462 0)
(13.3782 -1.09189 0)