/*--------------------------------*- C++ -*----------------------------------*\
| =========                 |                                                 |
| \\      /  F ield         | OpenFOAM: The Open Source CFD Toolbox           |
|  \\    /   O peration     | Version:  2.4.0                                 |
|   \\  /    A nd           | Web:      www.OpenFOAM.org                      |
|    \\/     M anipulation  |                                                 |
\*---------------------------------------------------------------------------*/
FoamFile
{
    version     2.0;
    format      ascii;
    class       volVectorField;
    location    "0.98";
    object      UMean;
}
// * * * * * * * * * * * * * * * * * * * * * * * * * * * * * * * * * * * * * //

dimensions      [0 1 -1 0 0 0 0];

internalField   nonuniform List<vector> 
8800
(
(8.09314 0.387084 0)
(5.45981 0.242417 0)
(3.92924 0.0430514 0)
(3.16964 -0.0152002 0)
(2.82404 -0.0183072 0)
(2.61071 -0.0108838 0)
(2.51358 -0.00583217 0)
(2.39368 -0.00201302 0)
(2.35465 -0.00176659 0)
(2.26454 -0.000185417 0)
(2.25772 -0.00105474 0)
(2.18121 0.000464196 0)
(2.18955 -0.000604241 0)
(2.11479 0.001066 0)
(2.12688 -0.000223584 0)
(2.05014 0.00173227 0)
(2.05882 -8.97595e-05 0)
(1.97601 0.00152456 0)
(2.00174 0.00640964 0)
(1.75269 -0.0551082 0)
(10.0849 0.836122 0)
(9.65296 0.865464 0)
(8.89134 0.505174 0)
(8.07715 0.261036 0)
(7.52501 0.137012 0)
(6.99896 0.0818308 0)
(6.74289 0.0527149 0)
(6.39041 0.0405454 0)
(6.28713 0.0282486 0)
(6.01534 0.0246933 0)
(6.00334 0.0168306 0)
(5.77027 0.0185706 0)
(5.80916 0.0128049 0)
(5.58901 0.0177959 0)
(5.65013 0.0125514 0)
(5.43143 0.0189191 0)
(5.49708 0.016828 0)
(5.26606 0.015053 0)
(5.35429 0.0314491 0)
(5.04174 -0.0413379 0)
(10.0753 0.630143 0)
(10.6361 0.860584 0)
(10.898 0.598885 0)
(10.658 0.372114 0)
(10.4982 0.253858 0)
(10.0452 0.195615 0)
(9.89335 0.150663 0)
(9.44974 0.122199 0)
(9.38892 0.0909784 0)
(8.98691 0.0763945 0)
(9.01964 0.0552117 0)
(8.65078 0.0533304 0)
(8.75206 0.0386943 0)
(8.3959 0.0447382 0)
(8.53829 0.0335248 0)
(8.17988 0.043011 0)
(8.34296 0.038324 0)
(7.96556 0.0428349 0)
(8.1421 0.0504189 0)
(7.7385 -0.0301416 0)
(10.043 0.456927 0)
(10.5162 0.70257 0)
(11.2243 0.54357 0)
(11.309 0.351021 0)
(11.6205 0.259662 0)
(11.3839 0.226717 0)
(11.5646 0.196937 0)
(11.2163 0.175667 0)
(11.3825 0.143147 0)
(10.9892 0.126369 0)
(11.1809 0.0992077 0)
(10.7673 0.0946806 0)
(10.9931 0.0736814 0)
(10.5628 0.0797113 0)
(10.8173 0.0613102 0)
(10.3686 0.0763539 0)
(10.6419 0.0583101 0)
(10.1684 0.0869084 0)
(10.434 0.0572505 0)
(9.93331 0.0913858 0)
(10.1358 0.346974 0)
(10.3105 0.564707 0)
(11.1386 0.458879 0)
(11.2093 0.293632 0)
(11.7489 0.206437 0)
(11.5748 0.192884 0)
(11.976 0.174343 0)
(11.719 0.170961 0)
(12.0826 0.139746 0)
(11.7863 0.135572 0)
(12.1359 0.103037 0)
(11.8121 0.111064 0)
(12.1528 0.0800776 0)
(11.8057 0.102003 0)
(12.1357 0.068074 0)
(11.7692 0.104537 0)
(12.0828 0.0628297 0)
(11.699 0.121647 0)
(11.9724 0.0587749 0)
(11.5445 0.141551 0)
(10.1472 0.251602 0)
(10.2393 0.453928 0)
(10.9735 0.373952 0)
(11.1131 0.248041 0)
(11.5959 0.157801 0)
(11.5428 0.152542 0)
(11.866 0.1375 0)
(11.7622 0.144368 0)
(12.0413 0.113838 0)
(11.9356 0.116698 0)
(12.1921 0.0845153 0)
(12.0878 0.0963878 0)
(12.3222 0.0676131 0)
(12.2172 0.0900357 0)
(12.4266 0.0625002 0)
(12.3206 0.0933002 0)
(12.5004 0.0650406 0)
(12.3912 0.103915 0)
(12.5213 0.0638878 0)
(12.3412 0.0657019 0)
(10.0368 0.170862 0)
(10.287 0.356062 0)
(10.7604 0.283605 0)
(11.1095 0.208294 0)
(11.3896 0.112544 0)
(11.555 0.119321 0)
(11.6699 0.0987852 0)
(11.772 0.119741 0)
(11.847 0.0820457 0)
(11.9504 0.0976901 0)
(12.011 0.0579271 0)
(12.1176 0.0809863 0)
(12.1642 0.0441208 0)
(12.2703 0.0764731 0)
(12.3019 0.0409241 0)
(12.406 0.0801741 0)
(12.4208 0.0430511 0)
(12.5173 0.0855104 0)
(12.4944 0.0321102 0)
(12.4953 0.0293002 0)
(9.95393 0.110218 0)
(10.315 0.255372 0)
(10.6186 0.199121 0)
(11.0877 0.156302 0)
(11.2548 0.0764222 0)
(11.5412 0.0838053 0)
(11.5474 0.0675649 0)
(11.7504 0.0881483 0)
(11.7212 0.0570582 0)
(11.9218 0.0716299 0)
(11.8861 0.038975 0)
(12.0856 0.0589213 0)
(12.0421 0.0288255 0)
(12.2365 0.0554867 0)
(12.1838 0.0264964 0)
(12.3714 0.0574147 0)
(12.3078 0.0259324 0)
(12.4823 0.0561844 0)
(12.3831 0.00912449 0)
(12.4492 0.00517411 0)
(9.90569 0.05927 0)
(10.3297 0.156647 0)
(10.5294 0.116308 0)
(11.0704 0.0993308 0)
(11.1692 0.0418918 0)
(11.5307 0.053948 0)
(11.4699 0.0366618 0)
(11.7362 0.0584315 0)
(11.6402 0.0310184 0)
(11.904 0.0480591 0)
(11.8047 0.0192885 0)
(12.0674 0.0400195 0)
(11.9616 0.0126254 0)
(12.2194 0.0375113 0)
(12.104 0.0100125 0)
(12.3558 0.0368414 0)
(12.2282 0.00611972 0)
(12.4676 0.0304604 0)
(12.2996 -0.0119829 0)
(12.4287 -0.0119659 0)
(9.89688 0.0159752 0)
(10.3249 0.057498 0)
(10.5021 0.0349471 0)
(11.053 0.038077 0)
(11.1463 0.00961133 0)
(11.5195 0.0228729 0)
(11.454 0.00751155 0)
(11.7256 0.0251386 0)
(11.6255 0.005599 0)
(11.894 0.0212777 0)
(11.7926 0.00101571 0)
(12.0602 0.0181428 0)
(11.9526 -0.00230141 0)
(12.2155 0.0162133 0)
(12.098 -0.00546141 0)
(12.3552 0.0125839 0)
(12.2254 -0.012093 0)
(12.4692 0.00257467 0)
(12.2983 -0.0292913 0)
(12.4291 -0.02958 0)
(9.93419 -0.0264128 0)
(10.2903 -0.0407007 0)
(10.5412 -0.048385 0)
(11.0229 -0.0231911 0)
(11.1871 -0.0240422 0)
(11.4927 -0.00755336 0)
(11.4971 -0.0227431 0)
(11.7014 -0.00833922 0)
(11.6716 -0.0214313 0)
(11.8721 -0.0051938 0)
(11.8412 -0.0185885 0)
(12.0404 -0.00309698 0)
(12.0041 -0.0188804 0)
(12.197 -0.00461108 0)
(12.1523 -0.0227863 0)
(12.3373 -0.0109472 0)
(12.2822 -0.031891 0)
(12.4507 -0.0237368 0)
(12.3563 -0.0480366 0)
(12.4079 -0.0442628 0)
(9.97708 -0.0695215 0)
(10.262 -0.141667 0)
(10.6039 -0.129358 0)
(11.0099 -0.086114 0)
(11.2488 -0.0553976 0)
(11.4754 -0.0403015 0)
(11.5554 -0.0506372 0)
(11.6849 -0.0436152 0)
(11.7318 -0.0455847 0)
(11.8566 -0.0337555 0)
(11.9019 -0.0356691 0)
(12.0241 -0.0266021 0)
(12.0646 -0.0327172 0)
(12.1794 -0.0274 0)
(12.2123 -0.0373188 0)
(12.318 -0.0361058 0)
(12.3409 -0.0493676 0)
(12.4297 -0.0520589 0)
(12.414 -0.0657026 0)
(12.3861 -0.0598169 0)
(9.99797 -0.119412 0)
(10.268 -0.243597 0)
(10.6679 -0.211076 0)
(11.0409 -0.146292 0)
(11.31 -0.088258 0)
(11.495 -0.073182 0)
(11.6079 -0.0798662 0)
(11.7048 -0.0770525 0)
(11.7863 -0.0700749 0)
(11.8774 -0.0609031 0)
(11.9556 -0.0538605 0)
(12.0436 -0.0489687 0)
(12.1164 -0.0476003 0)
(12.1973 -0.0485326 0)
(12.2621 -0.0527786 0)
(12.3344 -0.0589549 0)
(12.3892 -0.0684787 0)
(12.4454 -0.0788489 0)
(12.4638 -0.0882267 0)
(12.407 -0.0753014 0)
(10.0202 -0.178839 0)
(10.2905 -0.347152 0)
(10.7567 -0.293627 0)
(11.1025 -0.200418 0)
(11.3941 -0.122547 0)
(11.5434 -0.110558 0)
(11.68 -0.109366 0)
(11.7569 -0.111202 0)
(11.8611 -0.0935046 0)
(11.9331 -0.0893812 0)
(12.0293 -0.0713338 0)
(12.0996 -0.0734793 0)
(12.1869 -0.0616502 0)
(12.252 -0.0717851 0)
(12.3282 -0.0662162 0)
(12.3862 -0.083233 0)
(12.449 -0.0846837 0)
(12.4924 -0.107959 0)
(12.5186 -0.110799 0)
(12.4572 -0.103433 0)
(10.0573 -0.254933 0)
(10.3139 -0.450378 0)
(10.8951 -0.378566 0)
(11.175 -0.24502 0)
(11.5246 -0.162466 0)
(11.5986 -0.148918 0)
(11.7985 -0.14239 0)
(11.8131 -0.141638 0)
(11.9761 -0.119355 0)
(11.9834 -0.114778 0)
(12.129 -0.0912637 0)
(12.1332 -0.0960493 0)
(12.2606 -0.0775778 0)
(12.2593 -0.0933541 0)
(12.3646 -0.0789919 0)
(12.3559 -0.10495 0)
(12.4331 -0.0961007 0)
(12.4103 -0.134172 0)
(12.4349 -0.12709 0)
(12.322 -0.141512 0)
(10.0533 -0.349372 0)
(10.3898 -0.561749 0)
(11.0498 -0.462047 0)
(11.2919 -0.290765 0)
(11.6571 -0.210261 0)
(11.6581 -0.189202 0)
(11.8799 -0.178843 0)
(11.8037 -0.167503 0)
(11.9807 -0.145457 0)
(11.8728 -0.132279 0)
(12.0269 -0.110551 0)
(11.9 -0.108457 0)
(12.0341 -0.0914772 0)
(11.8923 -0.101679 0)
(12.0018 -0.0868528 0)
(11.8475 -0.109817 0)
(11.9217 -0.0976023 0)
(11.7526 -0.139383 0)
(11.7588 -0.127237 0)
(11.5255 -0.163316 0)
(10.0061 -0.458127 0)
(10.5567 -0.701212 0)
(11.1716 -0.544716 0)
(11.3619 -0.350118 0)
(11.5602 -0.261574 0)
(11.443 -0.225338 0)
(11.4965 -0.199305 0)
(11.2803 -0.174376 0)
(11.3059 -0.146213 0)
(11.0567 -0.125521 0)
(11.0943 -0.103161 0)
(10.8362 -0.0952091 0)
(10.8928 -0.079525 0)
(10.6285 -0.0840414 0)
(10.6953 -0.0706193 0)
(10.4211 -0.0889616 0)
(10.48 -0.0754755 0)
(10.1873 -0.117422 0)
(10.193 -0.0975617 0)
(9.8528 -0.16026 0)
(10.0602 -0.631622 0)
(10.653 -0.859135 0)
(10.8693 -0.599511 0)
(10.6871 -0.371415 0)
(10.4625 -0.255264 0)
(10.081 -0.194645 0)
(9.84986 -0.152506 0)
(9.4896 -0.120972 0)
(9.33857 -0.0934463 0)
(9.02783 -0.0752495 0)
(8.96248 -0.0585727 0)
(8.68906 -0.052806 0)
(8.68569 -0.0437285 0)
(8.42443 -0.046559 0)
(8.45556 -0.0410742 0)
(8.18555 -0.05128 0)
(8.22457 -0.0491187 0)
(7.92485 -0.0709683 0)
(7.92596 -0.0721044 0)
(7.57542 -0.0898114 0)
(10.0804 -0.836877 0)
(9.657 -0.864579 0)
(8.87865 -0.505333 0)
(8.09112 -0.26069 0)
(7.50696 -0.137842 0)
(7.01746 -0.0814312 0)
(6.71841 -0.0536037 0)
(6.41149 -0.0399754 0)
(6.25802 -0.0294131 0)
(6.03603 -0.0242028 0)
(5.97002 -0.0184266 0)
(5.78652 -0.018431 0)
(5.77026 -0.0152478 0)
(5.59333 -0.0188276 0)
(5.59987 -0.0164586 0)
(5.40976 -0.0234136 0)
(5.41849 -0.0225015 0)
(5.19356 -0.033365 0)
(5.18106 -0.0389376 0)
(4.88239 -0.0205693 0)
(8.09221 -0.387304 0)
(5.45901 -0.24213 0)
(3.92671 -0.043193 0)
(3.17393 0.0152438 0)
(2.81912 0.018074 0)
(2.61591 0.0110446 0)
(2.50561 0.0056112 0)
(2.39951 0.00223215 0)
(2.34485 0.00151119 0)
(2.26984 0.000377373 0)
(2.24563 0.000741912 0)
(2.18389 -0.000299674 0)
(2.17406 0.000205895 0)
(2.11046 -0.00115562 0)
(2.10385 -0.000349527 0)
(2.03013 -0.00236276 0)
(2.01723 -0.00118472 0)
(1.92442 -0.00390734 0)
(1.88577 -0.00438447 0)
(1.73199 0.0115565 0)
(2.23217 -0.10019 0)
(2.31655 -0.0162325 0)
(2.56315 -0.0119528 0)
(2.6902 -0.0294019 0)
(2.92108 -0.0516033 0)
(3.00266 -0.0564194 0)
(3.18801 -0.0602676 0)
(3.22105 -0.05196 0)
(3.36854 -0.0553908 0)
(3.37771 -0.0557096 0)
(3.51802 -0.064168 0)
(3.51836 -0.0666977 0)
(3.66219 -0.0777054 0)
(3.66029 -0.08089 0)
(3.80534 -0.0917141 0)
(3.80116 -0.0946422 0)
(3.95145 -0.104412 0)
(3.94776 -0.106681 0)
(4.11294 -0.115724 0)
(4.11339 -0.115817 0)
(4.28753 -0.128248 0)
(4.28457 -0.134133 0)
(4.4604 -0.151133 0)
(4.4487 -0.160545 0)
(4.62364 -0.181111 0)
(4.60076 -0.192856 0)
(4.77376 -0.21389 0)
(4.73968 -0.222312 0)
(4.91273 -0.238961 0)
(4.87538 -0.244191 0)
(5.05516 -0.261739 0)
(5.02319 -0.26911 0)
(5.21161 -0.290063 0)
(5.18223 -0.299407 0)
(5.37208 -0.320751 0)
(5.33895 -0.329086 0)
(5.52819 -0.349113 0)
(5.49055 -0.355007 0)
(5.6817 -0.375098 0)
(5.63935 -0.381147 0)
(5.83411 -0.403082 0)
(5.78389 -0.411657 0)
(5.98308 -0.438519 0)
(5.92035 -0.450877 0)
(6.12168 -0.480329 0)
(6.04309 -0.492434 0)
(6.24631 -0.520902 0)
(6.157 -0.528123 0)
(6.36306 -0.553637 0)
(6.2719 -0.554915 0)
(6.47998 -0.577679 0)
(6.39293 -0.573608 0)
(6.60342 -0.594329 0)
(6.5204 -0.587354 0)
(6.73533 -0.608099 0)
(6.65049 -0.600259 0)
(6.87463 -0.621825 0)
(6.78067 -0.612507 0)
(7.01714 -0.633469 0)
(6.90863 -0.622622 0)
(7.16259 -0.646087 0)
(7.04722 -0.638152 0)
(7.31844 -0.669279 0)
(7.20933 -0.66699 0)
(7.48194 -0.70747 0)
(7.38286 -0.710566 0)
(7.63636 -0.75523 0)
(7.53589 -0.760456 0)
(7.76678 -0.801605 0)
(7.65986 -0.805295 0)
(7.87888 -0.847456 0)
(7.76748 -0.846233 0)
(7.97484 -0.885526 0)
(7.86268 -0.877814 0)
(8.06814 -0.915531 0)
(7.96088 -0.901457 0)
(8.16931 -0.935379 0)
(8.07139 -0.916235 0)
(8.28918 -0.94847 0)
(8.19856 -0.922562 0)
(8.43293 -0.953524 0)
(8.34231 -0.92173 0)
(8.59293 -0.948325 0)
(8.4953 -0.918174 0)
(8.75589 -0.945908 0)
(8.65991 -0.918456 0)
(8.9042 -0.956476 0)
(8.83053 -0.933427 0)
(9.03585 -0.979307 0)
(8.98585 -0.960744 0)
(9.15072 -1.0076 0)
(9.11282 -0.987743 0)
(9.23867 -1.03044 0)
(9.20099 -1.00915 0)
(9.29985 -1.04887 0)
(9.26242 -1.0219 0)
(9.34102 -1.05699 0)
(9.30275 -1.02494 0)
(9.3699 -1.05796 0)
(9.34429 -1.02533 0)
(9.40789 -1.05921 0)
(9.39925 -1.02335 0)
(9.46733 -1.0619 0)
(9.47309 -1.01991 0)
(9.53991 -1.05313 0)
(9.54682 -0.999225 0)
(9.60452 -1.0362 0)
(9.59586 -0.980196 0)
(9.64543 -1.02111 0)
(9.61653 -0.958534 0)
(9.65541 -0.99992 0)
(9.60533 -0.932865 0)
(9.6192 -0.967887 0)
(9.5578 -0.895235 0)
(9.55325 -0.92775 0)
(9.50931 -0.852558 0)
(9.49635 -0.882029 0)
(9.47649 -0.806603 0)
(9.44865 -0.833255 0)
(9.43641 -0.75455 0)
(9.40148 -0.776805 0)
(9.39732 -0.697354 0)
(9.36661 -0.721678 0)
(9.36558 -0.640632 0)
(9.33977 -0.669382 0)
(9.32719 -0.588482 0)
(9.31996 -0.615992 0)
(9.2785 -0.529016 0)
(9.29652 -0.551265 0)
(9.23105 -0.46084 0)
(9.26691 -0.481126 0)
(9.19297 -0.39229 0)
(9.22893 -0.417535 0)
(9.16292 -0.331064 0)
(9.19254 -0.365341 0)
(9.13498 -0.279008 0)
(9.15587 -0.314153 0)
(9.10209 -0.224708 0)
(9.12012 -0.255063 0)
(9.06116 -0.16461 0)
(9.07928 -0.199027 0)
(9.02124 -0.114139 0)
(9.03406 -0.141304 0)
(8.98122 -0.0637979 0)
(8.99495 -0.0935519 0)
(8.94853 -0.0195658 0)
(8.94767 -0.0345683 0)
(8.91011 0.0411797 0)
(8.88983 0.0253332 0)
(8.87756 0.10131 0)
(8.82809 0.0851562 0)
(8.84165 0.165773 0)
(8.77296 0.158993 0)
(8.80939 0.239392 0)
(8.72149 0.233975 0)
(8.78126 0.326106 0)
(8.68012 0.329568 0)
(8.73641 0.417186 0)
(8.64571 0.426968 0)
(8.69973 0.511991 0)
(8.62089 0.503454 0)
(8.65618 0.589661 0)
(8.59706 0.577569 0)
(8.59306 0.672084 0)
(8.56039 0.655167 0)
(8.50414 0.754444 0)
(8.53278 0.732914 0)
(8.4162 0.833867 0)
(8.47744 0.811073 0)
(8.31527 0.928597 0)
(8.39902 0.886876 0)
(8.17719 1.0108 0)
(8.30488 0.964663 0)
(8.00657 1.11079 0)
(8.20735 1.03809 0)
(7.84371 1.23252 0)
(8.13009 1.12222 0)
(7.68002 1.35506 0)
(8.08653 1.20886 0)
(7.53908 1.50039 0)
(8.03264 1.31686 0)
(7.4174 1.65868 0)
(7.95721 1.44274 0)
(7.3052 1.82271 0)
(7.83666 1.58267 0)
(7.20106 1.99852 0)
(7.67326 1.75877 0)
(7.06599 2.19092 0)
(7.49985 1.99127 0)
(6.88302 2.41537 0)
(7.32559 2.28382 0)
(6.6487 2.69979 0)
(7.08311 2.64801 0)
(6.37694 3.10667 0)
(6.71414 3.11247 0)
(6.06779 3.78703 0)
(6.24591 3.82849 0)
(5.41735 4.90193 0)
(6.36177 5.45637 0)
(4.07918 8.37392 0)
(5.27434 -0.0648762 0)
(5.22095 -0.0325256 0)
(5.3266 -0.0475006 0)
(5.33521 -0.0800303 0)
(5.50878 -0.113397 0)
(5.52907 -0.122122 0)
(5.68441 -0.124139 0)
(5.66333 -0.113161 0)
(5.78733 -0.111283 0)
(5.73957 -0.107365 0)
(5.86117 -0.115539 0)
(5.81033 -0.11882 0)
(5.94406 -0.131328 0)
(5.89624 -0.135362 0)
(6.04144 -0.14698 0)
(5.99348 -0.149646 0)
(6.14788 -0.16053 0)
(6.09758 -0.16213 0)
(6.26019 -0.173834 0)
(6.20872 -0.175691 0)
(6.37876 -0.189622 0)
(6.32457 -0.194902 0)
(6.49829 -0.21228 0)
(6.43754 -0.219785 0)
(6.61416 -0.239539 0)
(6.54609 -0.248095 0)
(6.72642 -0.268144 0)
(6.6517 -0.27507 0)
(6.8362 -0.294129 0)
(6.75658 -0.299827 0)
(6.94777 -0.319749 0)
(6.86579 -0.32635 0)
(7.06454 -0.348926 0)
(6.97898 -0.35629 0)
(7.18182 -0.37955 0)
(7.08965 -0.384655 0)
(7.29409 -0.406767 0)
(7.19484 -0.409242 0)
(7.40108 -0.431451 0)
(7.2954 -0.433814 0)
(7.50512 -0.458214 0)
(7.39398 -0.462449 0)
(7.60791 -0.490445 0)
(7.49177 -0.497031 0)
(7.70858 -0.527587 0)
(7.58745 -0.534009 0)
(7.80432 -0.564829 0)
(7.67949 -0.56859 0)
(7.89478 -0.597548 0)
(7.76759 -0.597272 0)
(7.98273 -0.623043 0)
(7.85229 -0.618301 0)
(8.07061 -0.641575 0)
(7.93421 -0.633317 0)
(8.15932 -0.655915 0)
(8.01438 -0.645631 0)
(8.24935 -0.668824 0)
(8.09579 -0.65825 0)
(8.34202 -0.683086 0)
(8.18369 -0.673244 0)
(8.43902 -0.701371 0)
(8.28196 -0.69442 0)
(8.54014 -0.728593 0)
(8.38971 -0.725587 0)
(8.64123 -0.76532 0)
(8.50174 -0.764662 0)
(8.73744 -0.805284 0)
(8.60732 -0.805793 0)
(8.82844 -0.847666 0)
(8.70427 -0.849299 0)
(8.91446 -0.888496 0)
(8.78939 -0.884956 0)
(8.99396 -0.922236 0)
(8.86851 -0.914789 0)
(9.07 -0.953084 0)
(8.94815 -0.939561 0)
(9.14782 -0.977372 0)
(9.03242 -0.958284 0)
(9.23104 -0.994491 0)
(9.12113 -0.971034 0)
(9.32536 -1.00421 0)
(9.21743 -0.9741 0)
(9.42594 -1.00569 0)
(9.32551 -0.971317 0)
(9.52305 -1.00285 0)
(9.44094 -0.971098 0)
(9.61467 -1.00929 0)
(9.55561 -0.982162 0)
(9.69438 -1.02509 0)
(9.65424 -1.00274 0)
(9.76133 -1.04357 0)
(9.73006 -1.01793 0)
(9.80422 -1.05549 0)
(9.77462 -1.0282 0)
(9.82127 -1.06245 0)
(9.79272 -1.03133 0)
(9.82164 -1.06326 0)
(9.79731 -1.03171 0)
(9.82397 -1.06595 0)
(9.80815 -1.03691 0)
(9.83714 -1.07591 0)
(9.83237 -1.04395 0)
(9.86615 -1.08704 0)
(9.85885 -1.04308 0)
(9.89698 -1.073 0)
(9.879 -1.01896 0)
(9.91647 -1.04638 0)
(9.88426 -0.989807 0)
(9.90988 -1.02274 0)
(9.86308 -0.958963 0)
(9.87061 -0.985502 0)
(9.80672 -0.911152 0)
(9.79681 -0.935353 0)
(9.72478 -0.865111 0)
(9.71874 -0.896116 0)
(9.65533 -0.830273 0)
(9.65416 -0.860756 0)
(9.60015 -0.788828 0)
(9.60077 -0.811489 0)
(9.54285 -0.737586 0)
(9.55485 -0.757703 0)
(9.48518 -0.684377 0)
(9.51883 -0.705555 0)
(9.43472 -0.625888 0)
(9.48949 -0.652525 0)
(9.3784 -0.565775 0)
(9.45853 -0.597544 0)
(9.31512 -0.504202 0)
(9.42138 -0.531438 0)
(9.25104 -0.43607 0)
(9.37499 -0.466609 0)
(9.19041 -0.369942 0)
(9.3243 -0.404917 0)
(9.1385 -0.311175 0)
(9.27418 -0.350355 0)
(9.079 -0.257339 0)
(9.21841 -0.297747 0)
(9.0206 -0.206396 0)
(9.16046 -0.238733 0)
(8.96858 -0.151124 0)
(9.11382 -0.183958 0)
(8.91728 -0.0963065 0)
(9.06594 -0.125856 0)
(8.86571 -0.042021 0)
(9.0278 -0.0816485 0)
(8.81659 0.00889849 0)
(8.98407 -0.0218266 0)
(8.77522 0.0673293 0)
(8.94542 0.0367443 0)
(8.75046 0.124129 0)
(8.89888 0.0961074 0)
(8.72502 0.1865 0)
(8.8461 0.161826 0)
(8.69898 0.25878 0)
(8.80037 0.238029 0)
(8.666 0.345773 0)
(8.76902 0.329549 0)
(8.62907 0.441097 0)
(8.75593 0.420165 0)
(8.60265 0.538723 0)
(8.75427 0.492759 0)
(8.56096 0.625839 0)
(8.74234 0.575341 0)
(8.51123 0.711865 0)
(8.72471 0.648368 0)
(8.47082 0.792857 0)
(8.69958 0.713658 0)
(8.42776 0.894354 0)
(8.64171 0.794582 0)
(8.36291 1.00622 0)
(8.59451 0.872892 0)
(8.25542 1.10991 0)
(8.5402 0.95221 0)
(8.11623 1.22274 0)
(8.47435 1.02015 0)
(7.96934 1.33472 0)
(8.44254 1.08714 0)
(7.83149 1.45461 0)
(8.4165 1.16661 0)
(7.71759 1.59614 0)
(8.38302 1.28532 0)
(7.63268 1.75255 0)
(8.32789 1.42539 0)
(7.55296 1.91117 0)
(8.24945 1.5864 0)
(7.45166 2.07353 0)
(8.17338 1.78202 0)
(7.31089 2.26454 0)
(8.07916 2.0146 0)
(7.16778 2.52346 0)
(7.93627 2.29146 0)
(7.06332 2.88446 0)
(7.71963 2.62867 0)
(6.93894 3.37934 0)
(7.47406 3.11111 0)
(6.66384 4.06616 0)
(7.50603 3.92719 0)
(6.00987 5.30549 0)
(8.43815 4.7651 0)
(6.47157 8.84814 0)
(7.93127 -0.0948797 0)
(7.85443 -0.0968346 0)
(7.95757 -0.118976 0)
(7.93019 -0.133615 0)
(8.09663 -0.146833 0)
(8.0796 -0.140704 0)
(8.224 -0.137417 0)
(8.15961 -0.124252 0)
(8.27162 -0.124002 0)
(8.18109 -0.119708 0)
(8.29357 -0.130495 0)
(8.20406 -0.134579 0)
(8.33157 -0.150927 0)
(8.2473 -0.15669 0)
(8.3879 -0.172969 0)
(8.30498 -0.176721 0)
(8.45449 -0.191419 0)
(8.36927 -0.193106 0)
(8.52402 -0.207421 0)
(8.43524 -0.209118 0)
(8.59429 -0.225265 0)
(8.50227 -0.229103 0)
(8.66522 -0.247962 0)
(8.5694 -0.253555 0)
(8.73623 -0.274358 0)
(8.63678 -0.280653 0)
(8.80764 -0.302022 0)
(8.70457 -0.307582 0)
(8.87902 -0.328674 0)
(8.77086 -0.333387 0)
(8.94873 -0.355129 0)
(8.83483 -0.360307 0)
(9.01656 -0.383832 0)
(8.89563 -0.389373 0)
(9.08075 -0.413529 0)
(8.95189 -0.417444 0)
(9.14094 -0.440631 0)
(9.00567 -0.44207 0)
(9.19923 -0.46498 0)
(9.06004 -0.465415 0)
(9.25791 -0.49032 0)
(9.11851 -0.491864 0)
(9.31867 -0.52059 0)
(9.18087 -0.524034 0)
(9.37992 -0.555909 0)
(9.24321 -0.559851 0)
(9.43812 -0.592311 0)
(9.29968 -0.594353 0)
(9.49031 -0.624766 0)
(9.34704 -0.622989 0)
(9.53693 -0.650017 0)
(9.38642 -0.643814 0)
(9.57994 -0.668257 0)
(9.42105 -0.658347 0)
(9.62132 -0.682326 0)
(9.4562 -0.670472 0)
(9.66373 -0.696718 0)
(9.4982 -0.684966 0)
(9.70935 -0.714696 0)
(9.54965 -0.703547 0)
(9.75646 -0.735234 0)
(9.60591 -0.725576 0)
(9.80136 -0.759659 0)
(9.65967 -0.75385 0)
(9.84159 -0.79072 0)
(9.70586 -0.788406 0)
(9.87809 -0.82871 0)
(9.74919 -0.829852 0)
(9.91914 -0.873583 0)
(9.7922 -0.874426 0)
(9.9579 -0.915801 0)
(9.83035 -0.911177 0)
(9.99566 -0.948187 0)
(9.86546 -0.940853 0)
(10.0324 -0.977697 0)
(9.89791 -0.965685 0)
(10.0654 -1.00176 0)
(9.93003 -0.984032 0)
(10.0982 -1.02108 0)
(9.96883 -0.999765 0)
(10.137 -1.03381 0)
(10.0164 -1.00574 0)
(10.1817 -1.03744 0)
(10.0731 -1.0015 0)
(10.2252 -1.03297 0)
(10.1348 -0.999973 0)
(10.2641 -1.03332 0)
(10.1868 -1.00514 0)
(10.292 -1.04347 0)
(10.2246 -1.01948 0)
(10.3043 -1.05357 0)
(10.2432 -1.02572 0)
(10.2924 -1.05819 0)
(10.2382 -1.0282 0)
(10.2605 -1.05788 0)
(10.2179 -1.02709 0)
(10.2164 -1.05856 0)
(10.1916 -1.03055 0)
(10.1858 -1.06705 0)
(10.1748 -1.0405 0)
(10.1685 -1.08245 0)
(10.1638 -1.05108 0)
(10.1518 -1.09359 0)
(10.1413 -1.04615 0)
(10.1292 -1.07561 0)
(10.1148 -1.01829 0)
(10.0984 -1.0454 0)
(10.0831 -0.980847 0)
(10.0468 -1.00696 0)
(10.0265 -0.932303 0)
(9.95982 -0.953435 0)
(9.94136 -0.870923 0)
(9.85852 -0.897669 0)
(9.86493 -0.828754 0)
(9.77959 -0.865085 0)
(9.79409 -0.797026 0)
(9.69814 -0.831854 0)
(9.71286 -0.757712 0)
(9.62149 -0.7881 0)
(9.63831 -0.708279 0)
(9.56151 -0.739381 0)
(9.57065 -0.65452 0)
(9.51038 -0.690426 0)
(9.50308 -0.596818 0)
(9.4603 -0.636047 0)
(9.4334 -0.533747 0)
(9.40594 -0.579771 0)
(9.35939 -0.469674 0)
(9.3414 -0.515166 0)
(9.28346 -0.396455 0)
(9.26949 -0.447723 0)
(9.19737 -0.327758 0)
(9.20503 -0.388493 0)
(9.11606 -0.269856 0)
(9.14007 -0.329041 0)
(9.03146 -0.214107 0)
(9.06986 -0.276853 0)
(8.95359 -0.168885 0)
(8.99818 -0.224613 0)
(8.8888 -0.119254 0)
(8.93816 -0.176906 0)
(8.83839 -0.0586723 0)
(8.87394 -0.121181 0)
(8.79781 -0.00696582 0)
(8.82728 -0.0779441 0)
(8.76134 0.0455717 0)
(8.7863 -0.017683 0)
(8.73286 0.101297 0)
(8.76152 0.0365934 0)
(8.71477 0.15892 0)
(8.73118 0.0953167 0)
(8.70948 0.228418 0)
(8.69639 0.156544 0)
(8.68492 0.299996 0)
(8.67132 0.2343 0)
(8.65065 0.392694 0)
(8.64278 0.309961 0)
(8.62405 0.482215 0)
(8.63109 0.389502 0)
(8.59709 0.57444 0)
(8.6253 0.47519 0)
(8.56732 0.669096 0)
(8.61094 0.556194 0)
(8.54627 0.755814 0)
(8.59724 0.621797 0)
(8.53253 0.845094 0)
(8.57191 0.690208 0)
(8.49384 0.954334 0)
(8.557 0.782605 0)
(8.42775 1.07036 0)
(8.5671 0.866599 0)
(8.32355 1.1897 0)
(8.58402 0.953108 0)
(8.1896 1.30995 0)
(8.60997 1.02096 0)
(8.04208 1.4235 0)
(8.63796 1.07743 0)
(7.91321 1.53625 0)
(8.64559 1.15163 0)
(7.80699 1.66237 0)
(8.63322 1.25699 0)
(7.73108 1.82001 0)
(8.60843 1.39856 0)
(7.65052 1.99375 0)
(8.56853 1.55854 0)
(7.55688 2.18389 0)
(8.51062 1.73877 0)
(7.48874 2.4162 0)
(8.39845 1.94327 0)
(7.45891 2.69971 0)
(8.2518 2.20538 0)
(7.42893 3.06954 0)
(8.18279 2.5736 0)
(7.3042 3.53543 0)
(8.33544 3.07976 0)
(6.9918 4.27757 0)
(8.90922 3.58416 0)
(6.72044 5.84413 0)
(9.66917 3.66151 0)
(8.09258 8.13455 0)
(10.1328 -0.128078 0)
(10.0619 -0.233109 0)
(10.1889 -0.280351 0)
(10.1571 -0.262052 0)
(10.3117 -0.232421 0)
(10.2656 -0.188639 0)
(10.3891 -0.166024 0)
(10.2999 -0.141521 0)
(10.3993 -0.140175 0)
(10.2928 -0.132966 0)
(10.3953 -0.145729 0)
(10.2916 -0.148002 0)
(10.4066 -0.167366 0)
(10.3078 -0.172082 0)
(10.4326 -0.192044 0)
(10.3348 -0.194759 0)
(10.4653 -0.212794 0)
(10.3651 -0.212793 0)
(10.4991 -0.229709 0)
(10.3962 -0.228901 0)
(10.5339 -0.246965 0)
(10.4283 -0.247468 0)
(10.5693 -0.268183 0)
(10.461 -0.270444 0)
(10.6044 -0.29347 0)
(10.4934 -0.296583 0)
(10.6382 -0.320599 0)
(10.5243 -0.323162 0)
(10.6698 -0.347165 0)
(10.5529 -0.348869 0)
(10.6978 -0.373001 0)
(10.5776 -0.374451 0)
(10.7218 -0.399278 0)
(10.5981 -0.401029 0)
(10.7421 -0.42638 0)
(10.6149 -0.427632 0)
(10.76 -0.452725 0)
(10.6306 -0.453254 0)
(10.7791 -0.478594 0)
(10.6489 -0.478875 0)
(10.8015 -0.505739 0)
(10.6715 -0.507257 0)
(10.8272 -0.537024 0)
(10.6963 -0.539957 0)
(10.8524 -0.571986 0)
(10.7186 -0.574843 0)
(10.873 -0.606938 0)
(10.734 -0.607158 0)
(10.8866 -0.637115 0)
(10.7418 -0.632768 0)
(10.8935 -0.659751 0)
(10.7438 -0.650707 0)
(10.8958 -0.675302 0)
(10.7433 -0.66325 0)
(10.8968 -0.688066 0)
(10.7461 -0.675796 0)
(10.9006 -0.703433 0)
(10.7548 -0.691838 0)
(10.9061 -0.721678 0)
(10.7645 -0.709847 0)
(10.9076 -0.741128 0)
(10.7706 -0.729827 0)
(10.9023 -0.763371 0)
(10.7708 -0.754275 0)
(10.8894 -0.790433 0)
(10.7641 -0.786622 0)
(10.8745 -0.829314 0)
(10.7559 -0.83192 0)
(10.8619 -0.875333 0)
(10.7439 -0.876026 0)
(10.8465 -0.917488 0)
(10.7236 -0.913033 0)
(10.8271 -0.949791 0)
(10.7027 -0.9429 0)
(10.806 -0.97743 0)
(10.6755 -0.967287 0)
(10.7813 -0.99999 0)
(10.6518 -0.98807 0)
(10.7643 -1.02333 0)
(10.6438 -1.00752 0)
(10.7559 -1.03826 0)
(10.6474 -1.01694 0)
(10.7505 -1.04168 0)
(10.6539 -1.01288 0)
(10.7451 -1.03846 0)
(10.6598 -1.00856 0)
(10.7327 -1.03461 0)
(10.6573 -1.01307 0)
(10.7137 -1.04248 0)
(10.6475 -1.01987 0)
(10.6781 -1.04423 0)
(10.6185 -1.01488 0)
(10.6227 -1.03921 0)
(10.573 -1.00903 0)
(10.5588 -1.03529 0)
(10.5218 -1.00529 0)
(10.491 -1.03874 0)
(10.4708 -1.01393 0)
(10.4344 -1.05324 0)
(10.4213 -1.02638 0)
(10.3834 -1.06814 0)
(10.3676 -1.03469 0)
(10.3253 -1.07794 0)
(10.3098 -1.02914 0)
(10.2668 -1.06321 0)
(10.2514 -1.00208 0)
(10.1998 -1.03044 0)
(10.1831 -0.955057 0)
(10.113 -0.978521 0)
(10.0942 -0.892598 0)
(9.9966 -0.910283 0)
(9.98968 -0.829236 0)
(9.89161 -0.8681 0)
(9.91521 -0.799346 0)
(9.79942 -0.837457 0)
(9.829 -0.760812 0)
(9.69865 -0.798209 0)
(9.72343 -0.715625 0)
(9.59395 -0.760056 0)
(9.62531 -0.666186 0)
(9.50921 -0.718842 0)
(9.53659 -0.614401 0)
(9.44152 -0.66946 0)
(9.44253 -0.558923 0)
(9.37605 -0.615568 0)
(9.34822 -0.501615 0)
(9.30156 -0.557342 0)
(9.25455 -0.431886 0)
(9.21782 -0.487716 0)
(9.15937 -0.356505 0)
(9.13105 -0.417749 0)
(9.0608 -0.290001 0)
(9.04929 -0.359387 0)
(8.96426 -0.23065 0)
(8.97097 -0.299223 0)
(8.8695 -0.176096 0)
(8.89633 -0.24739 0)
(8.77849 -0.132687 0)
(8.82034 -0.199743 0)
(8.70156 -0.0869542 0)
(8.75464 -0.157082 0)
(8.63707 -0.0280142 0)
(8.69797 -0.108239 0)
(8.59575 0.0162821 0)
(8.66492 -0.0718756 0)
(8.56568 0.0690201 0)
(8.63518 -0.0194433 0)
(8.55014 0.119336 0)
(8.62765 0.0269364 0)
(8.53824 0.173783 0)
(8.63212 0.0801762 0)
(8.53015 0.246115 0)
(8.64553 0.149384 0)
(8.49708 0.319314 0)
(8.65124 0.229045 0)
(8.47447 0.415692 0)
(8.63463 0.307125 0)
(8.44621 0.515431 0)
(8.6293 0.393776 0)
(8.39357 0.594476 0)
(8.63185 0.463629 0)
(8.37033 0.691039 0)
(8.64425 0.527168 0)
(8.33341 0.775818 0)
(8.67661 0.595305 0)
(8.28708 0.878999 0)
(8.69459 0.672603 0)
(8.2186 0.990236 0)
(8.73561 0.756991 0)
(8.15184 1.11171 0)
(8.78542 0.832445 0)
(8.07777 1.24227 0)
(8.83036 0.91539 0)
(7.99374 1.36801 0)
(8.87984 0.976348 0)
(7.91785 1.47771 0)
(8.88843 1.03903 0)
(7.86068 1.59639 0)
(8.86634 1.11572 0)
(7.82264 1.73547 0)
(8.83236 1.21117 0)
(7.79725 1.9047 0)
(8.80389 1.34213 0)
(7.78188 2.097 0)
(8.76282 1.49428 0)
(7.77687 2.30158 0)
(8.71148 1.6662 0)
(7.77919 2.53608 0)
(8.6896 1.88475 0)
(7.73926 2.82168 0)
(8.74768 2.14996 0)
(7.62801 3.19192 0)
(8.9664 2.47346 0)
(7.44945 3.73787 0)
(9.3849 2.75145 0)
(7.31292 4.66767 0)
(9.99016 2.861 0)
(7.66575 6.07242 0)
(10.2711 3.05427 0)
(9.08338 7.13778 0)
(11.6047 -0.109916 0)
(11.5757 -0.24583 0)
(11.7524 -0.310547 0)
(11.7694 -0.290805 0)
(11.8986 -0.255695 0)
(11.8496 -0.199118 0)
(11.9276 -0.171053 0)
(11.8396 -0.140353 0)
(11.9023 -0.140718 0)
(11.8075 -0.131809 0)
(11.8762 -0.148103 0)
(11.7871 -0.148937 0)
(11.8661 -0.171493 0)
(11.7831 -0.174518 0)
(11.8699 -0.197538 0)
(11.7893 -0.198652 0)
(11.8801 -0.219667 0)
(11.799 -0.218004 0)
(11.892 -0.237583 0)
(11.8093 -0.234797 0)
(11.9037 -0.255105 0)
(11.8185 -0.253297 0)
(11.9136 -0.27594 0)
(11.8251 -0.275776 0)
(11.9201 -0.30065 0)
(11.8282 -0.301329 0)
(11.9231 -0.327284 0)
(11.828 -0.327414 0)
(11.923 -0.353512 0)
(11.8259 -0.352422 0)
(11.9209 -0.37837 0)
(11.8228 -0.376308 0)
(11.9172 -0.402797 0)
(11.8193 -0.4005 0)
(11.9123 -0.427773 0)
(11.8153 -0.425471 0)
(11.9068 -0.453602 0)
(11.8114 -0.451584 0)
(11.902 -0.480663 0)
(11.8083 -0.479409 0)
(11.8986 -0.509956 0)
(11.8053 -0.510065 0)
(11.8955 -0.542178 0)
(11.8006 -0.543197 0)
(11.8907 -0.576122 0)
(11.792 -0.576359 0)
(11.8814 -0.608465 0)
(11.7779 -0.605831 0)
(11.8656 -0.635542 0)
(11.7574 -0.628419 0)
(11.8424 -0.655255 0)
(11.7317 -0.643859 0)
(11.814 -0.669407 0)
(11.7054 -0.656485 0)
(11.7854 -0.683372 0)
(11.6821 -0.670766 0)
(11.7573 -0.69897 0)
(11.6579 -0.686375 0)
(11.7255 -0.714819 0)
(11.6277 -0.702875 0)
(11.6887 -0.732454 0)
(11.5905 -0.721331 0)
(11.6471 -0.75184 0)
(11.5457 -0.741773 0)
(11.6017 -0.776261 0)
(11.499 -0.772244 0)
(11.5569 -0.813699 0)
(11.4486 -0.813492 0)
(11.5019 -0.856076 0)
(11.3878 -0.853128 0)
(11.4376 -0.893448 0)
(11.3177 -0.886844 0)
(11.368 -0.925359 0)
(11.2476 -0.915566 0)
(11.295 -0.951321 0)
(11.1745 -0.940529 0)
(11.2228 -0.977712 0)
(11.1128 -0.969265 0)
(11.1679 -1.00839 0)
(11.0673 -0.994333 0)
(11.1207 -1.02736 0)
(11.0283 -1.00628 0)
(11.0734 -1.03007 0)
(10.9913 -1.0046 0)
(11.0293 -1.02688 0)
(10.95 -0.998437 0)
(10.9848 -1.0228 0)
(10.9094 -1.00106 0)
(10.9348 -1.02686 0)
(10.8618 -0.996756 0)
(10.8684 -1.01766 0)
(10.7947 -0.984421 0)
(10.7949 -1.01139 0)
(10.7229 -0.977336 0)
(10.7208 -1.01027 0)
(10.6517 -0.974079 0)
(10.6439 -1.01746 0)
(10.5826 -0.982091 0)
(10.5625 -1.03286 0)
(10.5095 -0.995333 0)
(10.4836 -1.0472 0)
(10.4364 -1.00286 0)
(10.406 -1.05653 0)
(10.3627 -0.997016 0)
(10.3212 -1.03619 0)
(10.2763 -0.964845 0)
(10.2175 -0.995161 0)
(10.1758 -0.909616 0)
(10.0929 -0.934108 0)
(10.0556 -0.835338 0)
(9.95143 -0.862117 0)
(9.9511 -0.785533 0)
(9.84045 -0.834705 0)
(9.85091 -0.753127 0)
(9.71683 -0.796835 0)
(9.73394 -0.703584 0)
(9.58563 -0.752228 0)
(9.60132 -0.65223 0)
(9.4625 -0.719948 0)
(9.47503 -0.609492 0)
(9.35763 -0.688297 0)
(9.35667 -0.562629 0)
(9.26774 -0.639926 0)
(9.2418 -0.507756 0)
(9.17862 -0.585879 0)
(9.12753 -0.44946 0)
(9.07485 -0.527441 0)
(9.01673 -0.37905 0)
(8.97358 -0.456345 0)
(8.90828 -0.302884 0)
(8.88072 -0.385038 0)
(8.80573 -0.240826 0)
(8.78753 -0.325198 0)
(8.70496 -0.181598 0)
(8.70065 -0.27089 0)
(8.61091 -0.128357 0)
(8.62207 -0.219342 0)
(8.51407 -0.0811824 0)
(8.54345 -0.180015 0)
(8.42628 -0.037779 0)
(8.48131 -0.141162 0)
(8.35062 0.00791976 0)
(8.44464 -0.106867 0)
(8.3148 0.0396676 0)
(8.41684 -0.0750554 0)
(8.286 0.0975421 0)
(8.39517 -0.0370667 0)
(8.27335 0.146014 0)
(8.40219 -0.00205115 0)
(8.27024 0.204516 0)
(8.42744 0.0506778 0)