/*--------------------------------*- C++ -*----------------------------------*\
| =========                 |                                                 |
| \\      /  F ield         | OpenFOAM: The Open Source CFD Toolbox           |
|  \\    /   O peration     | Version:  2.4.0                                 |
|   \\  /    A nd           | Web:      www.OpenFOAM.org                      |
|    \\/     M anipulation  |                                                 |
\*---------------------------------------------------------------------------*/
FoamFile
{
    version     2.0;
    format      ascii;
    class       volScalarField;
    location    "0.78";
    object      p;
}
// * * * * * * * * * * * * * * * * * * * * * * * * * * * * * * * * * * * * * //

dimensions      [0 2 -2 0 0 0 0];

internalField   nonuniform List<scalar> 
8800
(
78.8156
66.4608
59.0637
55.5503
53.6348
52.2391
51.0704
49.9261
48.9058
47.9757
47.0029
46.0388
45.1945
44.3112
43.4089
42.6253
41.8929
41.1701
40.5056
39.9824
75.702
66.1069
59.2332
55.665
53.6946
52.2628
51.0797
49.9265
48.9014
47.9756
47.0013
46.0336
45.1929
44.3117
43.4045
42.6217
41.8957
41.1637
40.502
39.919
73.7354
66.1837
59.8374
56.041
53.8612
52.3415
51.1268
49.9579
48.9251
47.9947
47.0117
46.0369
45.196
44.3111
43.4011
42.6129
41.8992
41.1518
40.5726
39.9814
72.1988
66.2445
60.4274
56.4649
54.0454
52.4287
51.1869
50.0134
48.9759
48.0327
47.0399
46.0568
45.2074
44.3144
43.403
42.6058
41.8922
41.1426
40.6623
40.2592
70.9483
66.2173
60.9068
56.8718
54.2168
52.4965
51.2298
50.0708
49.0353
48.0797
47.0767
46.0918
45.2202
44.3218
43.4054
42.608
41.8668
41.1371
40.5912
40.5854
69.9633
66.1204
61.2759
57.2191
54.3728
52.5409
51.2531
50.1183
49.0886
48.1229
47.1167
46.1279
45.2308
44.3274
43.4118
42.6068
41.8445
41.1381
40.6222
41.0736
69.2063
66.0078
61.5457
57.5005
54.5151
52.5692
51.2585
50.1533
49.1316
48.1592
47.1514
46.1592
45.2414
44.3297
43.4189
42.6033
41.8341
41.1519
40.7343
41.3692
68.6558
65.9082
61.7297
57.7125
54.6428
52.5886
51.2524
50.1767
49.164
48.1873
47.1799
46.1833
45.2481
44.3325
43.4245
42.6025
41.8352
41.1804
40.8303
41.5833
68.2998
65.8331
61.8452
57.8549
54.7335
52.6007
51.2444
50.1899
49.1875
48.2058
47.1992
46.2011
45.2543
44.3333
43.4323
42.6076
41.8439
41.2086
40.9168
41.748
68.1254
65.7931
61.9006
57.9258
54.7799
52.6071
51.2385
50.197
49.2003
48.2141
47.2112
46.2132
45.2573
44.3367
43.4431
42.6169
41.8582
41.2373
40.9798
41.8551
68.1259
65.7937
61.9004
57.9246
54.7816
52.6077
51.2359
50.199
49.2031
48.2119
47.2134
46.2207
45.2587
44.3411
43.4576
42.6317
41.8737
41.2646
41.0191
41.9111
68.3011
65.8358
61.8436
57.8513
54.7384
52.6023
51.237
50.1966
49.195
48.1978
47.2076
46.2221
45.2574
44.346
43.4749
42.6514
41.8933
41.287
41.0378
41.924
68.6583
65.9119
61.7279
57.7068
54.6518
52.5906
51.24
50.1882
49.1772
48.1735
47.1924
46.2189
45.2527
44.3516
43.4967
42.6751
41.9164
41.3139
41.0316
41.8654
69.2088
66.0133
61.5433
57.4921
54.5268
52.5722
51.2412
50.1702
49.149
48.1396
47.1699
46.209
45.2449
44.3574
43.5188
42.7033
41.9468
41.3466
41.0073
41.7285
69.9662
66.1273
61.2729
57.2079
54.3888
52.543
51.2317
50.1413
49.1119
48.0943
47.1415
46.1939
45.2327
44.3589
43.5438
42.7318
41.9838
41.3916
40.9971
41.4907
70.9507
66.2253
60.9042
56.856
54.237
52.4988
51.2032
50.1011
49.0648
48.0401
47.1083
46.1749
45.2198
44.3548
43.5682
42.7593
42.0276
41.4449
41.0179
41.1921
72.1998
66.2539
60.4256
56.4467
54.0696
52.4334
51.1533
50.0485
49.0121
47.9855
47.074
46.1553
45.2079
44.3487
43.5881
42.7805
42.0715
41.4943
41.0718
40.8984
73.7367
66.1921
59.8383
56.0207
53.8863
52.3478
51.0909
49.9939
48.9655
47.9456
47.0483
46.1396
45.2023
44.3469
43.5998
42.7959
42.1043
41.5309
41.1255
40.7547
75.7028
66.1147
59.2357
55.6442
53.719
52.2702
51.045
49.9614
48.9416
47.9297
47.038
46.1342
45.2043
44.3511
43.6053
42.8065
42.1213
41.5515
41.1181
40.685
78.8163
66.4682
59.0661
55.5307
53.6591
52.2445
51.0387
49.9603
48.9423
47.9342
47.041
46.1342
45.2085
44.355
43.6065
42.8098
42.1268
41.5561
41.1168
40.8061
40.0927
40.1166
40.1138
40.097
40.06
40.0141
39.9839
40.0096
40.0877
40.2009
40.3289
40.4266
40.4821
40.4883
40.4358
40.3509
40.2474
40.1411
40.0433
39.9351
39.8008
39.6281
39.4356
39.2512
39.0672
38.8739
38.6678
38.4492
38.2153
37.9723
37.7383
37.5336
37.3666
37.2485
37.2056
37.1836
37.137
37.0823
36.9553
36.7305
36.4187
36.0325
35.5881
35.1106
34.6482
34.2801
34.0271
33.932
34.0476
34.3609
34.9674
36.006
37.4569
39.3412
41.6568
44.2169
46.9148
49.7448
52.5326
55.019
56.922
58.0028
57.8224
56.4682
53.7997
49.7328
44.2739
38.1337
32.3256
27.4529
23.6791
20.8299
18.7092
16.9928
15.7175
14.5916
13.8983
13.6592
13.8227
14.3379
15.1107
16.2592
17.8206
19.6656
21.6805
23.4706
24.9651
26.3749
27.7804
29.1843
30.6617
32.2695
33.9983
35.9542
38.2521
40.5675
43.0381
45.3592
47.5131
49.4631
50.8922
51.7571
52.0693
51.8403
50.9561
49.5124
47.423
44.8481
42.043
39.1512
36.4101
33.7224
31.4045
29.4703
27.8466
26.8715
26.4831
26.612
27.2573
28.5953
30.3846
32.8422
35.7141
38.8876
42.2205
45.3128
48.1386
50.6247
52.5096
53.9464
54.9629
55.649
55.7672
55.204
54.128
52.4356
50.0769
47.0042
42.7317
37.1587
30.6361
24.158
17.6873
11.5332
6.17266
1.46286
-1.79148
-3.50247
-3.61442
-2.20079
0.415922
3.77351
8.61281
14.9457
21.714
28.5583
34.6744
40.0346
44.8783
49.2788
52.6468
55.6287
57.5363
58.8092
59.2578
58.9435
58.0173
56.5714
54.9834
52.857
50.8497
49.062
47.5692
46.3864
45.5096
44.8121
44.502
44.5543
44.609
45.0134
45.3952
45.7919
45.999
46.2014
46.4717
46.7184
46.9428
46.9674
47.2603
47.9867
48.8391
50.1821
51.5633
53.1958
54.9994
55.9088
55.8591
53.8692
50.7136
25.7173
39.8997
39.9404
40.0665
40.1182
40.0771
40.0081
39.9448
39.953
40.0161
40.1207
40.2618
40.3716
40.4491
40.4779
40.4307
40.3499
40.2381
40.1159
40.0054
39.8835
39.7599
39.6077
39.4166
39.228
39.0427
38.8485
38.6571
38.4487
38.223
38.0038
37.767
37.5651
37.4113
37.272
37.2027
37.1631
37.0919
37.0166
36.8711
36.6435
36.3667
35.9948
35.6015
35.2148
34.8123
34.5316
34.3696
34.3404
34.5458
34.9607
35.7028
36.8729
38.3851
40.2175
42.3883
44.8455
47.5114
50.267
52.8385
54.9652
56.545
57.3938
57.2455
55.8706
53.2309
49.398
44.4516
38.9298
33.5809
28.9226
25.2036
22.3972
20.2982
18.6309
17.2368
16.1976
15.5377
15.2304
15.3057
15.8187
16.4745
17.5173
19.0517
20.718
22.5867
24.3329
25.7508
27.244
28.6842
30.0205
31.4024
32.8453
34.4278
36.1164
38.0162
39.9749
41.9623
43.8732
45.5299
47.0046
48.0982
48.7316
49.0399
48.7232
47.8353
46.7079
44.9169
42.7208
40.3928
38.0016
35.8345
33.747
31.9648
30.5944
29.5014
29.0289
29.075
29.3981
30.454
32.0915
34.1504
36.8154
39.7982
42.867
45.8856
48.7322
51.1997
53.3558
55.2039
56.4767
57.324
57.8351
57.809
57.0488
55.6834
53.6726
50.7641
47.1955
42.2573
36.0433
28.9865
21.7303
15.1598
8.54026
2.52467
-2.23482
-5.93776
-7.79588
-8.06616
-6.0374
-2.9175
0.740738
5.85894
12.5437
19.9892
27.2854
33.928
39.8143
45.0958
49.4858
53.4733
56.6547
58.7276
60.0077
60.3277
60.0366
58.6531
57.0094
54.8863
52.2257
49.8784
47.5905
45.7825
44.2602
42.9524
42.1368
41.8569
41.847
42.1556
42.7045
43.1531
43.8092
44.2565
44.8429
45.5419
46.0535
46.4572
46.9503
47.2933
47.9301
48.5526
49.2548
50.3712
51.2061
51.7525
51.2818
50.6896
44.1961
39.4317
17.0474
39.7978
39.9009
40.1524
40.2451
40.148
40.0123
39.8935
39.8771
39.9347
40.0295
40.1852
40.3081
40.4094
40.4593
40.4162
40.3391
40.2133
40.0767
39.9557
39.8256
39.7069
39.567
39.385
39.1968
39.0068
38.8173
38.6458
38.4551
38.2482
38.0515
37.8196
37.6206
37.4709
37.3189
37.2365
37.1822
37.0871
37.0072
36.8516
36.6243
36.386
36.0559
35.7212
35.4265
35.1079
34.9169
34.8531
34.8875
35.1972
35.7155
36.525
37.7131
39.1646
40.929
43.0077
45.3372
47.8057
50.2184
52.4403
54.2726
55.5695
56.2106
55.9508
54.5963
52.0975
48.6409
44.2252
39.3039
34.5032
30.1488
26.5624
23.7841
21.672
20.0665
18.8215
17.8955
17.3316
17.0083
16.9995
17.5098
18.1913
19.2127
20.7063
22.2185
23.8778
25.52
26.9114
28.3215
29.623
30.8539
32.0965
33.3877
34.8315
36.2033
37.6726
39.2587
40.7359
42.2472
43.6082
44.7558
45.6552
46.1352
46.2671
45.8726
45.0497
44.0087
42.5099
40.7181
38.7431
36.8014
35.1305
33.5594
32.2603
31.4078
30.7711
30.74
31.1784
31.8867
33.2773
35.1529
37.4612
40.2267
43.2111
46.0787
48.8937
51.5648
53.9379
55.9953
57.7475
59.0274
59.8589
60.1412
59.9493
59.0654
57.51
55.2967
51.958
47.8707
42.3938
35.3875
27.9789
20.2882
13.0227
6.38274
0.057259
-5.28664
-8.94822
-10.9828
-10.577
-8.44518
-5.45618
-1.46569
4.07103
10.8477
18.732
26.5799
33.4871
39.7405
45.3255
50.0915
54.3979
57.5094
59.8734
61.088
61.5614
60.9221
59.2503
57.322
54.5713
51.5452
48.6521
45.9873
43.6748
41.682
40.2178
39.3128
38.9882
39.109
39.5826
40.0927
41.0802
41.8739
42.8574
43.8101
44.5689
45.5143
46.1562
46.7852
47.3924
47.5776
47.9385
48.5903
48.9061
48.932
49.2956
46.2776
46.0532
37.5541
29.4148
15.3589
39.9271
39.9805
40.1452
40.0932
39.9185
39.7794
39.6784
39.7203
39.8265
39.9518
40.1302
40.2597
40.369
40.4221
40.3759
40.3061
40.1767
40.0288
39.9016
39.7511
39.6253
39.4976
39.345
39.1892
39.0193
38.8212
38.6567
38.4779
38.2751
38.1036
37.8927
37.7038
37.5677
37.4107
37.312
37.2439
37.1241
37.0394
36.8959
36.6827
36.4944
36.2279
35.9628
35.7419
35.5238
35.4108
35.4298
35.5594
35.9227
36.5113
37.3421
38.4809
39.8543
41.5163
43.4329
45.4987
47.6515
49.7124
51.5912
53.1708
54.1805
54.5873
54.2638
53.0207
50.7559
47.6937
43.8374
39.5356
35.3246
31.3857
28.0169
25.3872
23.3721
21.9459
20.8351
19.9834
19.4623
19.1822
19.1663
19.6705
20.4369
21.4104
22.7195
24.0793
25.4698
26.9031
28.2057
29.4261
30.5725
31.6725
32.7389
33.8403
35.0349
36.0547
37.1877
38.4936
39.5927
40.8288
41.9199
42.6402
43.2469
43.5516
43.4756
43.1129
42.437
41.4218
40.1744
38.719
37.0906
35.5451
34.3211
33.2103
32.327
31.8286
31.6371
31.9663
32.6717
33.8635
35.5966
37.6551
40.118
42.928
45.7951
48.5451
51.3853
54.0481
56.4448
58.5678
60.2699
61.5011
62.3391
62.6104
62.2389
61.1049
59.3717
57.0409
53.6257
49.0677
43.089
35.6599
27.6408
19.6518
12.1223
4.96327
-1.46293
-6.91138
-10.8121
-12.5148
-12.339
-9.95418
-6.67465
-2.53616
2.96646
10.1349
18.2932
26.1764
33.3542
40.04
45.5525
50.6978
55.0757
58.4876
60.9106
62.0647
62.546
61.6283
59.87
57.4161
54.1446
50.6167
47.1168
43.9753
41.1824
38.9497
37.2361
36.1748
35.8005
36.0336
36.6249
37.4459
38.8874
40.166
41.5794
42.8598
44.09
45.2373
46.0598
46.5983
47.1714
47.2628
47.2299
47.286
47.8932
46.1394
47.587
42.5958
40.3199
33.3989
23.5672
14.631
41.4962
41.2035
40.34
39.6811
39.299
39.2222
39.2798
39.4721
39.6956
39.8737
40.0538
40.2019
40.3059
40.3512
40.3356
40.2627
40.1203
39.9702
39.8368
39.7066
39.5655
39.4237
39.3103
39.1485
38.9671
38.8144
38.6611
38.506
38.3277
38.1631
37.9964
37.8111
37.6682
37.5296
37.4229
37.3569
37.2426
37.1472
37.022
36.832
36.6571
36.471
36.2697
36.1115
36.0079
35.9705
36.0539
36.2793
36.656
37.2538
38.0852
39.1291
40.3996
41.9206
43.5922
45.3963
47.23
48.9519
50.494
51.6817
52.5628
52.8038
52.4096
51.3423
49.3942
46.7734
43.5713
39.9078
36.2907
32.8913
29.8489
27.4724
25.7221
24.2624
23.2135
22.4722
22.0088
21.8158
21.8724
22.2795
22.9855
23.85
24.8894
26.0662
27.2049
28.4017
29.5406
30.5236
31.4764
32.4039
33.2676
34.148
35.0753
35.8463
36.7573
37.807
38.5304
39.3536
40.0848
40.4551
40.8604
40.972
40.7031
40.3778
39.7174
38.7635
37.739
36.5605
35.3484
34.1817
33.2771
32.5924
32.1313
31.9126
32.1274
32.7956
33.8106
35.2731
37.1921
39.5318
42.1222
44.9506
47.8271
50.773
53.6484
56.3558
58.8727
61.0076
62.7759
64.0416
64.7286
64.9013
64.4006
63.155
61.2297
58.5536
55.1696
50.5168
44.2043
36.5738
28.2109
19.9128
12.0755
4.83413
-1.90932
-7.33817
-10.9949
-12.5357
-11.8521
-9.90234
-6.86313
-2.60883
3.01741
10.323
18.396
26.307
33.6194
40.1626
45.9496
51.2955
55.7025
59.249
61.5668
62.9902
63.3485
62.2528
60.1971
57.2953
53.3868
49.1377
45.1795
41.3248
38.2854
35.964
33.6689
32.5045
32.2155
32.3048
33.1137
34.6304
36.1834
38.2161
40.2469
41.9823
43.7949
45.1296
46.1485
46.563
46.877
46.4785
47.0592
45.5829
47.3563
43.6914
44.2017
39.7678
35.0758
30.3812
21.6873
15.1098
42.6181
42.1597
40.6032
39.4463
38.7893
38.6679
38.8521
39.1578
39.513
39.7944
40.0211
40.2236
40.2979
40.2948
40.2997
40.1999
40.057
39.911
39.7718
39.6717
39.4873
39.3224
39.2806
39.1195
38.9567
38.8501
38.6918
38.5711
38.3836
38.1981
38.1096
37.9344
37.7714
37.7086
37.562
37.4849
37.4087
37.2472
37.1751
37.0354
36.8529
36.7787
36.6416
36.5054
36.5167
36.5279
36.6373
36.9575
37.3236
37.8974
38.7424
39.657
40.8049
42.1587
43.5585
45.1027
46.6508
48.0494
49.3654
50.3714
51.0099
51.1632
50.7604
49.8197
48.1968
46.0443
43.4331
40.4327
37.4382
34.6125
31.9921
29.885
28.2444
26.8465
25.8588
25.236
24.8675
24.6449
24.7476
25.0158
25.51
26.2835
27.047
28.0089
28.9491
29.8539
30.7821
31.5278
32.2984
33.0699
33.7428
34.4433
35.122
35.6864
36.3298
37.0128
37.4445
37.8549
38.282
38.4037
38.4652
38.3529
37.9302
37.4824
36.8319
36.0199
35.1851
34.3364
33.4335
32.6147
32.0551
31.697
31.599
31.7986
32.3291
33.2654
34.6309
36.3269
38.4425
40.9006
43.6428
46.6523
49.6944
52.7922
55.7827
58.5859
61.1387
63.3063
65.0572
66.3884
66.9943
66.9896
66.4292
65.1492
63.1061
60.1855
56.5503
51.836
45.603
37.969
29.3628
21.0491
13.1691
5.65266
-1.01785
-6.48609
-10.0415
-11.4344
-10.7595
-8.91007
-5.98208
-1.7473
4.12164
11.3302
19.1714
26.7995
34.0249
40.4981
46.3498
51.6759
56.1608
59.6768
62.1534
63.4809
63.6039
62.5097
60.1786
56.7735
52.1921
47.4928
42.8304
38.5763
35.5121
32.5246
30.2294
29.0842
28.3265
28.5139
29.7915
31.2985
33.4136
36.1246
38.6759
41.0361
43.4652
45.2758
46.3984
46.7079
47.338
45.5134
47.0439
44.3689
45.1861
42.0027
39.8494
37.2737
32.8108
29.5859
22.7984
16.7695
43.287
42.81
40.88
39.4293
38.5454
38.3032
38.5574
38.9041
39.3616
39.7194
39.9594
40.2269
40.2617
40.2384
40.2991
40.1635
40.0131
39.8707
39.7016
39.6567
39.4392
39.2659
39.288
39.1039
38.9308
38.8661
38.6912
38.6151
38.4491
38.2438
38.2528
38.0697
37.8818
37.8675
37.6914
37.6088
37.5791
37.3743
37.3587
37.2746
37.0777
37.0936
36.994
36.8713
36.981
37.0098
37.1692
37.5438
37.8767
38.4411
39.2373
40.0424
41.0708
42.2747
43.4463
44.7935
46.11
47.2335
48.334
49.1905
49.6331
49.7359
49.3945
48.5496
47.2136
45.5231
43.4492
41.0238
38.6421
36.3401
34.0842
32.2646
30.7022
29.3942
28.5681
27.9861
27.6302
27.4265
27.4249
27.6078
27.9095
28.5091
29.128
29.7877
30.5306
31.1842
31.8914
32.5379
33.1365
33.7596
34.2431
34.7012
35.1901
35.545
35.9136
36.2539
36.396
36.4762
36.5068
36.338
36.0368
35.667
35.1501
34.5777
33.9887
33.3073
32.6328
32.0641
31.4339
30.8885
30.682
30.6891
30.8084
31.4256
32.3082
33.4125
35.0887
37.0707
39.332
42.005
44.9408
48.118
51.3803
54.4847
57.6441
60.5975
63.1359
65.3422
67.047
68.3544
69.0442
68.9782
68.304
66.9581
64.8526
61.9567
58.1252
53.2361
47.0924
39.6006
31.293
22.9687
15.1246
7.73246
1.09296
-4.34933
-7.87314
-9.32211
-9.12272
-7.28084
-4.22737
0.15569
6.05567
13.0133
20.4994
27.683
34.5947
40.8897
46.6512
52.0012
56.2721
59.7228
62.0635
63.3066
63.5449
62.1624
59.6862
55.8344
50.7495
45.4787
40.5287
36.2642
32.7379
29.5744
27.3434
25.9507
24.9853
25.3132
26.5751
28.0703
30.8354
33.9869
37.0375
40.2308
43.24
45.6979
47.4963
46.6724
47.5157
44.8042
46.1288
43.7636
41.8831
40.4593
38.1784
36.7758
32.7128
30.0718
24.6135
18.907
43.6507
43.2064
41.1648
39.5591
38.4986
38.1009
38.3313
38.6916
39.1942
39.6071
39.9133
40.2381
40.2522
40.222
40.2895
40.1304
39.9557
39.8108
39.6535
39.6249
39.3986
39.2064
39.2722
39.0751
38.9222
38.8878
38.7207
38.6868
38.5107
38.3075
38.3558
38.1689
37.9856
37.9966
37.8243
37.7766
37.747
37.54
37.5421
37.4649
37.298
37.3608
37.2871
37.2369
37.3847
37.4306
37.637
38.0023
38.3172
38.8665
39.5998
40.3301
41.2629
42.3092
43.3253
44.484
45.5992
46.5372
47.4942
48.1953
48.5051
48.5995
48.3195
47.5786
46.5283
45.2097
43.5473
41.626
39.7182
37.8394
35.93
34.3078
32.9929
31.8181
31.1056
30.6124
30.1833
30.0228
29.9231
29.9417
30.1584
30.5068
30.9797
31.4829
32.0249
32.5487
33.0611
33.6115
34.058
34.4376
34.7632
34.9921
35.2918
35.4687
35.542
35.5387
35.3286
35.1165
34.7906
34.2861
33.747
33.0903
32.4532
31.8426
31.1976
30.6434
30.1331
29.6997
29.3947
29.1318
29.1584
29.4847
29.8781
30.773
32.008
33.3196
35.1993
37.4685
39.95
42.8486
45.9177
49.2562
52.6906
55.8932
59.161
62.247
64.8252
66.9845
68.7217
69.9805
70.7486
70.6925
69.8792
68.4683
66.3585
63.5222
59.7107
54.8294
48.8132
41.4399
33.4699
25.5864
17.852
10.7263
4.3784
-0.979929
-4.4824
-5.97456
-5.85848
-4.33003
-1.3635
3.00564
8.73821
15.2926
22.0522
28.846
35.2675
41.3439
46.9489
51.8978
55.946
59.1935
61.4673
62.6449
62.6724
61.4033
58.6789
54.3555
49.1724
43.5816
38.4528
34.2652
30.6529
27.5532
25.183
23.403
22.4888
22.8035
23.7787
25.47
28.383
32.2082
35.442
39.4454
43.6637
46.0132
50.3454
46.836
46.4726
44.3409
44.3533
43.0973
40.4504
40.0999
38.2215
37.4317
34.0326
31.2823
26.7136
21.6634
43.8222
43.4084
41.3814
39.6761
38.491
37.9985
38.1859
38.5718
39.0781
39.5132
39.8879
40.2068
40.213
40.1936
40.2535
40.1208
39.9281
39.7662
39.6253
39.5787
39.351
39.1798
39.2403
39.0657
38.9325
38.8939
38.76
38.741
38.5472
38.3921
38.4523
38.2718
38.1292
38.1152
37.9596
37.9339
37.8622
37.6874
37.716
37.6443
37.5417
37.6168
37.55
37.5683
37.7184
37.7736
38.0297
38.371
38.6742
39.2218
39.8614
40.5302
41.3811
42.2673
43.1786
44.2021
45.1394
45.9654
46.7637
47.3259
47.6028
47.6817
47.4707
46.8807
46.0716
45.0416
43.6958
42.2019
40.6535
39.0509
37.4943
36.1389
35.0479
34.1059
33.4247
32.966
32.5256
32.2652
32.1463
32.0775
32.2118
32.4344
32.776
33.1849
33.5535
33.9911
34.368
34.712
34.9414
35.1233
35.3563
35.4285
35.4771
35.4224
35.227
34.943
34.4827
33.9682
33.2613
32.4495
31.6461
30.6937
29.911
29.211
28.4702
28.039
27.655
27.357
27.3391
27.3387
27.5644
28.0866
28.8414
29.9461
31.291
32.9905
35.0995
37.3957
40.2172
43.4187
46.6242
50.0037
53.568
57.0548
60.3532
63.4438
66.0723
68.2808
70.1258
71.3641
72.0147
71.9618
71.1347
69.6258
67.5297
64.7673
61.1259
56.5172
50.7561
43.7927
36.0563
28.2575
20.9849
14.3119
8.29963
3.38648
0.0222595
-1.64469
-1.66456
-0.175216
2.60967
6.65687
11.9248
17.8429
23.8768
30.1535
36.0974
41.7412
47.0093
51.3757
55.2116
58.1679
60.2408
61.2812
61.3204
59.8638
57.0258
52.8856
47.2897
41.92
37.0395
32.635
29.2008
26.1493
23.6123
21.6393
20.7515
20.8238
21.52
23.6354
26.7187
30.0093
34.53
38.4461
44.7155
47.0124
52.0368
46.8368
44.7345
43.9553
43.2863
42.8179
41.3608
41.508
39.8892
38.878
36.1843
32.9165
28.7922
24.75
43.9162
43.5138
41.517
39.7556
38.502
37.9807
38.1336
38.5077
39.0059
39.452
39.8656
40.1824
40.1876
40.1864
40.2201
40.0892
39.9008
39.7087
39.586
39.5424
39.3295
39.1893
39.2303
39.0628
38.9371
38.8979
38.8089
38.7881
38.5923
38.4732
38.545
38.3647
38.2298
38.204
38.0773
38.0804
37.9978
37.8506
37.8969
37.8242
37.7557
37.8315
37.789
37.8476
38.0048
38.0737
38.3533
38.6818
38.9689
39.4955
40.0628
40.6791
41.4564
42.2039
43.0292
43.9279
44.6864
45.4355
46.1195
46.5882
46.8938
46.9871
46.8286
46.4265
45.7707
44.9447
43.9053
42.6864
41.4343
40.1552
38.9061
37.8622
36.9342
36.0883
35.4523
34.9571
34.5762
34.3054
34.2122
34.1556
34.169
34.3784
34.5705
34.835
35.1165
35.3838
35.6134
35.76
35.8667
35.9445
36.03
35.9466
35.7506
35.5127
35.1548
34.6536
33.9825
33.116
32.0771
31.0339
29.8604
28.7011
27.7769
26.8181
26.0888
25.6962
25.3142
25.2117
25.3634
25.5315
26.0247
26.6905
27.6181
28.9836
30.4111
32.3518
34.7262
37.1155
40.0581
43.4804
46.9599
50.4407
54.0755
57.7178
61.0964
64.2834
67.0463
69.2688
71.0751
72.3209
72.8417
72.7083
71.9175
70.4455
68.3556
65.6665
62.2683
58.0578
52.7254
46.4352
39.2099
31.4951
24.4914
18.1596
12.4954
8.0852
5.02383
3.35077
3.25555
4.51171
7.0011
10.6722
15.4125
20.6181
25.9724
31.6116
37.0339
42.0489
46.7652
50.6643
54.0275
56.7281
58.4547
59.3733
59.2058
57.9209
55.2086
50.9943
45.7794
40.923
35.7454
31.7673
28.4889
25.1347
22.6868
20.3662
19.5315
19.3297
20.0115
22.2444
25.2055
28.1695
33.9443
37.6226
44.8791
49.4024
51.8692
44.1625
42.7454
43.3138
43.4977
43.7246
43.0555
43.21
41.7347
40.4135
38.4752
34.8902
30.8769
27.5972
43.9447
43.5604
41.5718
39.7835
38.5246
37.9953
38.1484
38.5065
38.9928
39.4595
39.8556
40.1615
40.1734
40.1656
40.1693
40.0288
39.8732
39.6746
39.5658
39.5146
39.2949
39.1845
39.211
39.0723
38.9491
38.9182
38.881
38.8357
38.6317
38.5392
38.616
38.4578
38.3205
38.2955
38.2197
38.2155
38.1224
38.0008
38.0476
38.0006
37.9481
38.0226
38.0127
38.1057
38.2562
38.3421
38.6268
38.9313
39.2095
39.6959
40.2068
40.7675
41.4646
42.1116
42.8587
43.6475
44.2933
44.9813
45.5811
45.9885
46.3177
46.4198
46.3275
46.0703
45.5508
44.8962
44.1452
43.2017
42.1742
41.2262
40.22
39.3365
38.5828
37.8309
37.2696
36.8449
36.5331
36.3274
36.1998
36.1563
36.0888
36.1557
36.2921
36.435
36.6045
36.7066
36.8128
36.8774
36.89
36.818
36.653
36.4672
36.1849
35.8012
35.3435
34.6386
33.7897
32.7418
31.437
30.1695
28.739
27.3666
26.2701
25.1264
24.3423
23.9144
23.478
23.454
23.7127
23.9246
24.5783
25.4537
26.4045
27.8717
29.5609
31.5526
33.9808
36.6661
39.7108
43.126
46.7528
50.4658
54.2967
57.9978
61.4135
64.7434
67.6514
69.7963
71.409
72.6181
73.2005
73.0223
72.1621
70.8124
68.8438
66.2783
63.0841
59.2306
54.615
48.9865
42.3619
35.4567
28.8244
22.5374
17.2699
13.2278
10.1968
8.5952
8.39879
9.43099
11.6567
14.8559
19.0049
23.6993
28.2578
33.16
37.9111
42.1846
46.2563
49.6879
52.506
54.9008
56.262
57.1737
56.8898
55.6947
53.2663
49.4281
44.6045
39.9093
34.9228
31.3233
28.0964
24.969
21.9069
19.7598
19.2478
18.2633
19.1519
21.4062
24.3542
27.1407
33.4466
37.8006
43.7683
51.2909
49.6358
39.2019
40.9297
41.4264
44.3473
45.4643
44.592
44.0192
42.4661
41.912
40.6983
36.4211
32.4939
30.173
43.8671
43.5175
41.5697
39.7697
38.5656
38.0545
38.227
38.6027
39.0408
39.5175
39.866
40.1244
40.1547
40.1234
40.1107
39.9676
39.8214
39.6419
39.5366
39.4834
39.2862
39.2015
39.225
39.1019
38.9602
38.9179
38.937
38.8715
38.6626
38.6181
38.6781
38.5631
38.4208
38.3665
38.3509
38.3294
38.225
38.1533
38.1869
38.1712
38.1491
38.189
38.2255
38.3294
38.4531
38.5772
38.848
39.1282
39.4078
39.8433
40.299
40.8244
41.4355
42.0036
42.6831
43.3756
43.9373
44.5666
45.1155
45.4897
45.8261
45.955
45.9515
45.8157
45.4412
44.9873
44.4429
43.706
42.9204
42.1981
41.4241
40.6551
40.0752
39.491
38.9827
38.7188
38.4219
38.2066
38.0801
37.9339
37.8907
37.8776
37.9608
38.0331
38.0701
38.0893
38.023
37.9653
37.8064
37.5917
37.3472
37.0446
36.7073
36.2296
35.6783
34.9132
33.9034
32.7566
31.3572
29.836
28.2742
26.7508
25.391
24.2101
23.3165
22.6959
22.3058
22.2343
22.3957
22.7336
23.4169
24.3255
25.3905
26.8488
28.6611
30.7739
33.1608
35.9527
39.2578
42.7484
46.2755
50.0963
54.1018
57.8622
61.4465
64.8045
67.5597
69.6955
71.3377
72.4902
73.0554
72.8431
71.9556
70.7011
69.0033
66.6836
63.7747
60.2738
56.182
51.1021
45.2759
39.3661
33.233
27.174
22.2679
18.4164
15.5385
14.0709
13.736
14.5751
16.615
19.3091
22.6956
26.8271
30.5589
34.6154
38.6353
42.1747
45.5539
48.5246
50.8646
52.8539
54.0783
54.6476
54.4835
53.4145
51.2989
47.9307
43.6946
39.3486
34.3053
31.344
28.4331
24.7173
21.6092
20.7903
18.7003
17.7527
19.0757
21.0774
23.4048
27.6515
32.0964
38.9203
41.3605
51.5948
49.541
37.5124
41.8477
38.1719
45.0474
47.0441
45.8699
43.353
42.5546
44.5158
42.6934
37.1775
34.5539
33.3545
43.7298
43.4013
41.5094
39.7367
38.6267
38.1821
38.3737
38.7726
39.1537
39.6055
39.9055
40.0846
40.126
40.0708
40.0461
39.9072
39.7599
39.6152
39.5039
39.4561
39.284
39.2128
39.2383
39.1195
38.9964
38.9437
38.986
38.9311
38.7164
38.6837
38.7276
38.6324
38.5062
38.4394
38.4647
38.4498
38.3493
38.309
38.3194
38.3204
38.315
38.3336
38.4108
38.5194
38.6327
38.786
39.024
39.2856
39.5704
39.9378
40.3597
40.8397
41.3647
41.8922
42.4922
43.1034
43.6276
44.2035
44.7019
45.0624
45.411
45.6062
45.6672
45.6565
45.4382
45.1104
44.7667
44.2485
43.6538
43.1324
42.5525
41.9634
41.4992
41.0686
40.6625
40.377
40.1426
39.9288
39.814
39.6968
39.6233
39.5549
39.5036
39.4783
39.391
39.3336
39.1349
38.8893
38.6336
38.335
38.0577
37.6357
37.1908
36.7323
36.1592
35.398
34.3569
33.0953
31.5921
29.9349
28.2446
26.6068
25.1037
23.8075
22.8184
22.0877
21.6047
21.4724
21.5966
21.8983
22.549
23.4625
24.5907
26.0692
27.9001
30.0526
32.4964
35.347
38.6689
42.2418
45.9287
49.8261
53.6518
57.3463
61.0933
64.4322
67.0936
69.2674
70.8891
71.9291
72.4073
72.2198
71.4785
70.3666
68.8855
66.8462
64.2425
61.1278
57.3575
52.8033
47.6988
42.4922
36.9053
31.4592
26.9453
23.3103
20.8089
19.5368
19.1578
19.8578
21.5805
23.686
26.3177
29.6325
32.6731
35.9188
39.1623
42.0926
44.8207
47.237
49.2381
50.7648
51.9363
52.2925
52.0941
51.1268
49.3982
46.6328
43.1277
39.1117
34.7451
32.0359
29.0367
24.6096
22.2485
21.5417
18.5267
18.1984
19.5346
21.7595
22.7754
29.2488
30.1282
40.6722
39.1592
50.4503
47.1385
38.2211
43.0928
36.5634
46.5875
48.8705
47.0165
42.2013
44.2387
47.4131
43.6364
38.6196
37.6781
36.4717
43.4982
43.1293
41.3129
39.6934
38.7305
38.4162
38.6209
39.0051
39.3407
39.7143
39.9516
40.0609
40.0821
40.004
39.9525
39.8265
39.6936
39.5934
39.4953
39.4321
39.3015
39.2349
39.2399
39.1545
39.0365
38.9812
39.0108
38.9439
38.7798
38.7444
38.7697
38.7185
38.6059
38.5427
38.5666
38.5374
38.4645
38.4341
38.4399
38.4641
38.4689
38.4917
38.5784
38.6777
38.7865
38.9521
39.1594
39.4065
39.6878
40.0048
40.3926
40.8223
41.2767
41.7617
42.2995
42.8381
43.3383
43.8646
44.3288
44.7132
45.0822
45.3261
45.4789
45.5652
45.4861
45.3232
45.1226
44.8095
44.397
44.0345
43.6228
43.1822
42.8276
42.4875
42.1837
41.93
41.7463
41.5791
41.4192
41.3035
41.1449
41.005
40.8503
40.6781
40.4891
40.2616
40.0208
39.6926
39.3058
38.9383
38.5715
38.1629
37.7427
37.2469
36.6612
35.9055
34.8569
33.5546
31.9817
30.2212
28.417
26.6726
25.0774
23.689
22.5978
21.7915
21.224
20.9891
21.0667
21.369
21.9853
22.893
24.0453
25.5466
27.4018
29.5677
32.0708
34.9569
38.2728
41.8484
45.5454
49.4389
53.3048
57.0306
60.6761
63.8797
66.4894
68.6094
70.1479
71.0896
71.4741
71.309
70.7279
69.7878
68.4802
66.6819
64.3571
61.55
58.1915
54.157
49.7752
45.179
40.0945
35.1835
31.0212
27.8121
25.7723
24.6288
24.3421
24.5458
25.7155
27.5873
29.615
32.0811
34.5353
37.1269
39.6434
41.9222
44.1052
45.9154
47.5699
48.7502
49.7865
50.0259
49.8647
49.1031
47.7216
45.5978
42.808
39.3267
35.7424
33.0783
29.5732
25.0651
23.4567
22.7841
19.4941
18.617
20.963
22.6246
22.9592
30.9533
27.3736
41.9724
38.4039
45.0719
43.7681
40.2619
45.3957
39.7023
49.2055
50.9539
47.1067
43.1841
47.2433
48.1228
44.1045
41.3207
40.4354
38.6387
43.0481
42.6805
41.0837
39.7459
38.9895
38.7819
38.9666
39.2883
39.5723
39.823
39.9831
40.0359
40.0199
39.9483
39.8596
39.7527
39.6372
39.5475
39.4808
39.4013
39.32
39.2703
39.2354
39.1801
39.0793
39.0308
39.0411
38.963
38.8589
38.812
38.7972
38.7677
38.6795
38.6401
38.6556
38.626
38.5826
38.5562
38.5539
38.5779
38.593
38.63
38.7198
38.8163
38.9308
39.0917
39.2763
39.4991
39.7602
40.0451
40.3902
40.7805
41.1839
41.6362
42.1193
42.6021
43.0854
43.5691
44.0273
44.4371
44.8134
45.1096
45.3459
45.5118
45.5762
45.5779
45.4927
45.3338
45.1042
44.8445
44.589
44.2819
44.0146
43.7731
43.5205
43.316
43.1166
42.934
42.7414
42.5306
42.3148
42.0855
41.877
41.6383
41.332
40.9641
40.563
40.1589
39.7707
39.385
38.9792
38.5546
38.1449
37.6846
37.0887
36.3126
35.27
33.9568
32.3731
30.5805
28.7312
26.9295
25.2851
23.8688
22.6946
21.7784
21.1498
20.8226
20.8039
21.1031
21.7251
22.6188
23.7968
25.3299
27.1942
29.3901
31.9359
34.8771
38.2125
41.7767
45.5076
49.3445
53.1196
56.8379
60.3571
63.4217
66.0185
68.0515
69.4028
70.1147
70.3397
70.2032
69.7077
68.8861
67.8027
66.2828
64.2486
61.7811
58.8778
55.4325
51.5531
47.3269
42.7433
38.2761
34.3627
31.5249
29.8263
28.6787
28.427
28.5411
29.1207
30.7498
32.4057
34.1749
36.1685
38.1997
40.1146
41.7203
43.3619
44.6449
45.8396
46.7073
47.3569
47.7632
47.76
47.3175
46.3146
44.6514
42.5101
39.7852
36.7426
33.8889
30.3521
26.7453
25.4674
23.8893
20.1416
19.8565
22.7944
23.2486
24.6688
31.8206
26.2598
43.9914
36.0518
40.0366
41.7196
41.632
49.1044
45.8844
51.9041
51.6675
46.1514
45.3443
48.4816
47.7126
45.2345
43.5009
41.8093
40.2303
42.2719
42.0028
40.8411
39.9149
39.3964
39.2721
39.3991
39.5973
39.7999
39.9271
39.9942
39.9956
39.9317
39.8693
39.7792
39.6894
39.6091
39.5247
39.4689
39.3972
39.3387
39.3007
39.2417
39.1908
39.1211
39.0701
39.0451
38.9736
38.9121
38.8717
38.8358
38.8092
38.76
38.7314
38.7251
38.7025
38.6772
38.6597
38.6629
38.6736
38.6999
38.7483
38.8198
38.9226
39.0378
39.1888
39.3708
39.5711
39.8145
40.0824
40.3889
40.7364
41.1073
41.5201
41.9566
42.4069
42.8714
43.3375
43.7908
44.2218
44.612
44.9682
45.2757
45.5092
45.6847
45.7865
45.8054
45.7641
45.6628
45.5113
45.3397
45.1468
44.9385
44.7347
44.5259
44.3162
44.1079
43.904
43.6789
43.4206
43.1348
42.8127
42.486
42.1531
41.795
41.3845
40.9376
40.4837
40.037
39.6176
39.214
38.8108
38.3915
37.9161
37.3184
36.5505
35.552
34.2663
32.7161
30.963
29.1413
27.3677
25.7395
24.3087
23.0972
22.1081
21.3837
20.9938
20.9403
21.196
21.7842
22.686
23.902
25.4572
27.357
29.599
32.1792
35.1809
38.5226
42.0774
45.7892
49.5679
53.3467
57.0066
60.3914
63.418
65.9304
67.7177
68.7562
69.2086
69.2637
69.0045
68.5092
67.765
66.8812
65.7366
64.0795
62.0625
59.5548
56.4989
52.9703
48.9612
44.629
40.4821
36.9307
34.4201
32.9479
31.9367
31.5182
31.6521
31.9964
33.1533
34.6666
35.9831
37.575
39.2234
40.5601
41.5255
42.6566
43.4811
44.2549
44.871
45.2967
45.696
45.9106
45.7539
45.1302
44.0332
42.376
40.0326
37.4378
35.0365
31.9108
28.7185
27.0225
25.0783
22.1151
22.3415
24.2519
25.0946
27.3455
32.4652
27.7048
44.8531
34.3533
36.1414
41.0165
42.2739
49.4413
50.1955
53.1001
51.4188
45.3291
47.1197
49.2718
48.1342
46.3468
44.5607
42.8038
41.7042
41.4405
41.306
40.7184
40.2335
39.918
39.7913
39.8077
39.862
39.9486
39.9884
39.9902
39.9607
39.8844
39.8134
39.7196
39.6421
39.5824
39.5113
39.4602
39.3991
39.3521
39.3079
39.2416
39.2006
39.1526
39.1027
39.0572
38.9937
38.9549
38.9115
38.8662
38.8484
38.8211
38.8007
38.7807
38.7543
38.7388
38.7236
38.7243
38.7452
38.7832
38.8419
38.9175
39.0119
39.1233
39.2618
39.4246
39.6133
39.8434
40.0977
40.3851
40.7129
41.0627
41.4479
41.8591
42.2852
42.7333
43.1869
43.6352
44.0726
44.4862
44.8736
45.2213
45.509
45.7474
45.9348
46.0165
46.0589
46.0459
45.9676
45.8573
45.7154
45.537
45.3446
45.1435
44.9229
44.6944
44.4531
44.1832
43.8765
43.5394
43.1857
42.8237
42.4428
42.0183