/*--------------------------------*- C++ -*----------------------------------*\
| =========                 |                                                 |
| \\      /  F ield         | OpenFOAM: The Open Source CFD Toolbox           |
|  \\    /   O peration     | Version:  2.4.0                                 |
|   \\  /    A nd           | Web:      www.OpenFOAM.org                      |
|    \\/     M anipulation  |                                                 |
\*---------------------------------------------------------------------------*/
FoamFile
{
    version     2.0;
    format      ascii;
    class       surfaceScalarField;
    location    "0.78";
    object      phi;
}
// * * * * * * * * * * * * * * * * * * * * * * * * * * * * * * * * * * * * * //

dimensions      [0 3 -1 0 0 0 0];

internalField   nonuniform List<scalar> 
17320
(
1.76346e-05
7.36539e-06
1.16159e-05
6.01869e-06
8.68212e-06
2.9338e-06
7.35938e-06
1.32274e-06
6.71451e-06
6.44868e-07
6.34252e-06
3.71992e-07
6.0879e-06
2.54624e-07
5.85876e-06
2.29137e-07
5.71172e-06
1.47036e-07
5.59181e-06
1.19914e-07
5.47761e-06
1.14203e-07
5.38011e-06
9.75016e-08
5.3269e-06
5.32049e-08
5.23047e-06
9.64299e-08
5.14034e-06
9.01311e-08
5.06985e-06
7.04887e-08
4.97663e-06
9.32179e-08
4.90685e-06
6.97881e-08
4.66757e-06
2.39272e-07
-4.93311e-07
5.16088e-06
2.54541e-05
6.91125e-06
2.32451e-05
8.22768e-06
2.0989e-05
5.18992e-06
1.9321e-05
2.99071e-06
1.80693e-05
1.8966e-06
1.71178e-05
1.32348e-06
1.63728e-05
9.99619e-07
1.5761e-05
8.40979e-07
1.53189e-05
5.8917e-07
1.49421e-05
4.96707e-07
1.4631e-05
4.25249e-07
1.43699e-05
3.58591e-07
1.41752e-05
2.47923e-07
1.39407e-05
3.30914e-07
1.3747e-05
2.83899e-07
1.35599e-05
2.57551e-07
1.33546e-05
2.98462e-07
1.31643e-05
2.60161e-07
1.3003e-05
4.00525e-07
-5.2533e-07
1.3035e-05
2.66105e-05
5.30079e-06
2.7153e-05
7.68513e-06
2.67818e-05
5.5611e-06
2.62525e-05
3.5201e-06
2.55923e-05
2.55671e-06
2.48834e-05
2.03243e-06
2.41647e-05
1.71836e-06
2.34877e-05
1.51794e-06
2.29492e-05
1.12767e-06
2.24506e-05
9.95266e-07
2.20304e-05
8.45525e-07
2.16734e-05
7.15534e-07
2.13877e-05
5.33621e-07
2.10684e-05
6.50196e-07
2.08203e-05
5.32024e-07
2.05556e-05
5.22229e-07
2.0324e-05
5.30061e-07
1.99865e-05
5.97704e-07
1.98836e-05
5.03424e-07
1.65732e-08
1.93417e-05
2.63125e-05
3.98831e-06
2.75287e-05
6.46895e-06
2.80824e-05
5.00741e-06
2.84644e-05
3.1381e-06
2.86303e-05
2.39075e-06
2.86354e-05
2.02736e-06
2.84823e-05
1.87141e-06
2.82133e-05
1.78694e-06
2.79836e-05
1.35741e-06
2.76967e-05
1.28219e-06
2.74246e-05
1.11756e-06
2.71642e-05
9.75977e-07
2.6945e-05
7.52809e-07
2.66666e-05
9.2865e-07
2.64567e-05
7.41853e-07
2.62043e-05
7.74632e-07
2.6019e-05
7.15353e-07
2.56302e-05
9.86504e-07
2.54073e-05
7.26313e-07
1.08596e-06
2.4338e-05
2.60456e-05
2.94271e-06
2.72234e-05
5.29116e-06
2.80192e-05
4.21156e-06
2.85192e-05
2.63812e-06
2.89707e-05
1.93929e-06
2.93327e-05
1.66537e-06
2.95983e-05
1.60579e-06
2.97239e-05
1.66134e-06
2.98491e-05
1.23216e-06
2.99131e-05
1.21819e-06
2.99532e-05
1.07753e-06
2.9962e-05
9.67127e-07
2.99698e-05
7.45025e-07
2.99225e-05
9.75939e-07
2.9898e-05
7.6631e-07
2.98285e-05
8.44204e-07
2.9758e-05
7.85864e-07
2.96948e-05
1.04967e-06
2.97779e-05
6.43173e-07
6.90607e-07
3.01733e-05
2.58504e-05
2.0923e-06
2.69526e-05
4.18899e-06
2.77886e-05
3.37557e-06
2.82374e-05
2.18927e-06
2.87069e-05
1.46979e-06
2.90934e-05
1.27894e-06
2.94723e-05
1.22688e-06
2.97411e-05
1.39253e-06
2.99605e-05
1.01271e-06
3.01677e-05
1.011e-06
3.03811e-05
8.64164e-07
3.05517e-05
7.96488e-07
3.0705e-05
5.91706e-07
3.08488e-05
8.32144e-07
3.09946e-05
6.20568e-07
3.11328e-05
7.05946e-07
3.12075e-05
7.11199e-07
3.14356e-05
8.21559e-07
3.16085e-05
4.70269e-07
2.27239e-07
3.20719e-05
2.56777e-05
1.41461e-06
2.67363e-05
3.1304e-06
2.75998e-05
2.51202e-06
2.80592e-05
1.72989e-06
2.84748e-05
1.05421e-06
2.88055e-05
9.48223e-07
2.91866e-05
8.45816e-07
2.95417e-05
1.03735e-06
2.97502e-05
8.04257e-07
3.00006e-05
7.60623e-07
3.02223e-05
6.42441e-07
3.04338e-05
5.8494e-07
3.05989e-05
4.26601e-07
3.07691e-05
6.61978e-07
3.09792e-05
4.1052e-07
3.12185e-05
4.66625e-07
3.13478e-05
5.81832e-07
3.16197e-05
5.49743e-07
3.19e-05
1.89904e-07
-1.10361e-07
3.22376e-05
2.55424e-05
8.72254e-07
2.65718e-05
2.10094e-06
2.7438e-05
1.64587e-06
2.80335e-05
1.13438e-06
2.8366e-05
7.21701e-07
2.86216e-05
6.92635e-07
2.89406e-05
5.26815e-07
2.93743e-05
6.03617e-07
2.96231e-05
5.55475e-07
2.98243e-05
5.59393e-07
2.99876e-05
4.79187e-07
3.03203e-05
2.52212e-07
3.04446e-05
3.02278e-07
3.05473e-05
5.59362e-07
3.08179e-05
1.39889e-07
3.11184e-05
1.66145e-07
3.12501e-05
4.50126e-07
3.14717e-05
3.28086e-07
3.16867e-05
-2.51116e-08
-3.09256e-07
3.18856e-05
2.54597e-05
4.12531e-07
2.64855e-05
1.07519e-06
2.73239e-05
8.07464e-07
2.79195e-05
5.3879e-07
2.82628e-05
3.78415e-07
2.85607e-05
3.94716e-07
2.88637e-05
2.23778e-07
2.92528e-05
2.14494e-07
2.95033e-05
3.05042e-07
2.97042e-05
3.58459e-07
2.99297e-05
2.53673e-07
3.01954e-05
-1.34943e-08
3.02935e-05
2.04177e-07
3.04808e-05
3.72099e-07
3.07301e-05
-1.09389e-07
3.09683e-05
-7.20538e-08
3.11674e-05
2.51005e-07
3.13632e-05
1.32299e-07
3.15485e-05
-2.1041e-07
-5.55465e-07
3.17947e-05
2.54265e-05
-1.39209e-08
2.64263e-05
7.5305e-08
2.7273e-05
-3.91644e-08
2.78723e-05
-6.05761e-08
2.8206e-05
4.47593e-08
2.85517e-05
4.89787e-08
2.88325e-05
-5.70355e-08
2.91321e-05
-8.50561e-08
2.94034e-05
3.36808e-08
2.97181e-05
4.38349e-08
2.9943e-05
2.87658e-08
3.00197e-05
-9.02012e-08
3.02068e-05
1.70361e-08
3.05898e-05
-1.08589e-08
3.07139e-05
-2.33511e-07
3.07925e-05
-1.50613e-07
3.10423e-05
1.17916e-09
3.13706e-05
-1.96013e-07
3.16138e-05
-4.53648e-07
-6.40569e-07
3.16989e-05
2.54237e-05
-4.37624e-07
2.64321e-05
-9.33118e-07
2.72743e-05
-8.81351e-07
2.78673e-05
-6.53605e-07
2.82055e-05
-2.93429e-07
2.85688e-05
-3.14276e-07
2.88345e-05
-3.22712e-07
2.90902e-05
-3.40812e-07
2.94125e-05
-2.88618e-07
2.97438e-05
-2.87415e-07
2.98804e-05
-1.07898e-07
3.00397e-05
-2.49492e-07
3.0313e-05
-2.5623e-07
3.05646e-05
-2.62489e-07
3.06418e-05
-3.10685e-07
3.07934e-05
-3.02247e-07
3.10682e-05
-2.7363e-07
3.13891e-05
-5.16913e-07
3.15825e-05
-6.4702e-07
-5.81304e-07
3.15232e-05
2.54596e-05
-8.97188e-07
2.64977e-05
-1.97126e-06
2.73382e-05
-1.72187e-06
2.79063e-05
-1.22164e-06
2.82407e-05
-6.27912e-07
2.86109e-05
-6.84481e-07
2.88757e-05
-5.87502e-07
2.91719e-05
-6.36936e-07
2.94816e-05
-5.98389e-07
2.97432e-05
-5.48982e-07
2.99191e-05
-2.83806e-07
3.01968e-05
-5.27192e-07
3.0377e-05
-4.36421e-07
3.04991e-05
-3.84613e-07
3.06367e-05
-4.48229e-07
3.09103e-05
-5.75852e-07
3.11793e-05
-5.42694e-07
3.14054e-05
-7.43029e-07
3.15403e-05
-7.81907e-07
-7.2073e-07
3.16798e-05
2.55461e-05
-1.44325e-06
2.65846e-05
-3.00977e-06
2.74408e-05
-2.57806e-06
2.8008e-05
-1.78886e-06
2.83387e-05
-9.58633e-07
2.86814e-05
-1.02722e-06
2.89792e-05
-8.85204e-07
2.93262e-05
-9.84001e-07
2.95785e-05
-8.50714e-07
2.98409e-05
-8.11307e-07
3.00577e-05
-5.00636e-07
3.02771e-05
-7.46611e-07
3.04196e-05
-5.78947e-07
3.06176e-05
-5.82549e-07
3.07748e-05
-6.05416e-07
3.10353e-05
-8.36438e-07
3.12455e-05
-7.52799e-07
3.149e-05
-9.87555e-07
3.16973e-05
-9.89183e-07
-9.09635e-07
3.18862e-05
2.56737e-05
-2.11697e-06
2.67386e-05
-4.07465e-06
2.76046e-05
-3.4441e-06
2.80721e-05
-2.25635e-06
2.8477e-05
-1.36348e-06
2.88391e-05
-1.38929e-06
2.91926e-05
-1.23871e-06
2.94982e-05
-1.2896e-06
2.9744e-05
-1.09659e-06
3.00065e-05
-1.07373e-06
3.02173e-05
-7.11423e-07
3.04274e-05
-9.568e-07
3.05864e-05
-7.37941e-07
3.07972e-05
-7.93308e-07
3.09424e-05
-7.50604e-07
3.11691e-05
-1.06315e-06
3.13336e-05
-9.17301e-07
3.16166e-05
-1.27054e-06
3.18299e-05
-1.20253e-06
-1.15875e-06
3.2079e-05
2.58368e-05
-2.95378e-06
2.69625e-05
-5.20032e-06
2.78245e-05
-4.30609e-06
2.82361e-05
-2.66793e-06
2.87018e-05
-1.82921e-06
2.91042e-05
-1.79169e-06
2.94546e-05
-1.58913e-06
2.97094e-05
-1.5444e-06
2.99776e-05
-1.36483e-06
3.01805e-05
-1.27656e-06
3.03883e-05
-9.19254e-07
3.05433e-05
-1.11184e-06
3.07044e-05
-8.99037e-07
3.08408e-05
-9.29719e-07
3.09458e-05
-8.55559e-07
3.10782e-05
-1.19556e-06
3.11699e-05
-1.00896e-06
3.13415e-05
-1.44216e-06
3.14518e-05
-1.31285e-06
-1.43474e-06
3.17278e-05
2.60365e-05
-3.99025e-06
2.72558e-05
-6.41969e-06
2.80387e-05
-5.08897e-06
2.84936e-05
-3.12279e-06
2.89816e-05
-2.31723e-06
2.9326e-05
-2.13608e-06
2.95858e-05
-1.84898e-06
2.97305e-05
-1.68907e-06
2.98573e-05
-1.49167e-06
2.98907e-05
-1.30993e-06
2.99654e-05
-9.93945e-07
2.99414e-05
-1.08785e-06
2.99449e-05
-9.025e-07
2.98965e-05
-8.81354e-07
2.9848e-05
-8.07001e-07
2.97406e-05
-1.08817e-06
2.96418e-05
-9.10154e-07
2.95293e-05
-1.32971e-06
2.94137e-05
-1.19728e-06
-1.51814e-06
2.94971e-05
2.63126e-05
-5.30283e-06
2.75544e-05
-7.66149e-06
2.80668e-05
-5.60143e-06
2.84513e-05
-3.50723e-06
2.86509e-05
-2.51686e-06
2.86182e-05
-2.10331e-06
2.84753e-05
-1.70614e-06
2.8235e-05
-1.44874e-06
2.79627e-05
-1.21945e-06
2.76738e-05
-1.02097e-06
2.74401e-05
-7.60221e-07
2.71373e-05
-7.85099e-07
2.68903e-05
-6.55468e-07
2.66313e-05
-6.22352e-07
2.63863e-05
-5.62075e-07
2.60705e-05
-7.72288e-07
2.58104e-05
-6.50086e-07
2.544e-05
-9.59312e-07
2.5169e-05
-9.26276e-07
-1.36126e-06
2.50121e-05
2.66093e-05
-6.91215e-06
2.71652e-05
-8.21736e-06
2.677e-05
-5.20621e-06
2.62532e-05
-2.99049e-06
2.56071e-05
-1.87078e-06
2.4865e-05
-1.36121e-06
2.416e-05
-1.00112e-06
2.35057e-05
-7.94369e-07
2.29238e-05
-6.37572e-07
2.24306e-05
-5.27765e-07
2.20373e-05
-3.66965e-07
2.16436e-05
-3.91337e-07
2.13229e-05
-3.3475e-07
2.10192e-05
-3.18725e-07
2.07392e-05
-2.82051e-07
2.03938e-05
-4.26877e-07
2.01049e-05
-3.61176e-07
1.96651e-05
-5.19543e-07
1.92631e-05
-5.24293e-07
-4.9074e-07
1.83926e-05
2.54535e-05
-7.36568e-06
2.32517e-05
-6.01552e-06
2.0983e-05
-2.93754e-06
1.93197e-05
-1.32716e-06
1.80797e-05
-6.30841e-07
1.71048e-05
-3.86265e-07
1.63652e-05
-2.61476e-07
1.5775e-05
-2.04254e-07
1.53012e-05
-1.63712e-07
1.49175e-05
-1.4406e-07
1.46329e-05
-8.24019e-08
1.43478e-05
-1.06186e-07
1.411e-05
-9.69588e-08
1.3884e-05
-9.27523e-08
1.3678e-05
-7.60072e-08
1.33976e-05
-1.46473e-07
1.31537e-05
-1.1737e-07
1.2806e-05
-1.71813e-07
1.25058e-05
-2.2411e-07
-8.06708e-08
1.20958e-05
1.76343e-05
1.16188e-05
8.68126e-06
7.3541e-06
6.72326e-06
6.33699e-06
6.07552e-06
5.87126e-06
5.70755e-06
5.56349e-06
5.48109e-06
5.3749e-06
5.27794e-06
5.18519e-06
5.10918e-06
4.96271e-06
4.84534e-06
4.67353e-06
4.44942e-06
4.36875e-06
5.66321e-06
-3.05467e-07
-1.96863e-07
6.06705e-06
-1.8859e-07
-2.15244e-07
6.3863e-06
-1.86531e-07
-1.32723e-07
6.68961e-06
-2.1514e-07
-8.81726e-08
6.99635e-06
-2.35104e-07
-7.1636e-08
7.25867e-06
-2.27952e-07
-3.43606e-08
7.45822e-06
-2.15913e-07
1.63571e-08
7.60338e-06
-2.07859e-07
6.27046e-08
7.71014e-06
-1.88397e-07
8.1632e-08
7.80558e-06
-1.72865e-07
7.74297e-08
7.90369e-06
-1.51703e-07
5.35921e-08
8.01287e-06
-1.15109e-07
5.92769e-09
8.13019e-06
-9.66753e-08
-2.06401e-08
8.25353e-06
-6.29628e-08
-6.03756e-08
8.36917e-06
-3.88197e-08
-7.68225e-08
8.48139e-06
-2.30243e-08
-8.91941e-08
8.58422e-06
-6.57568e-09
-9.62591e-08
8.68616e-06
1.83885e-09
-1.03772e-07
8.79175e-06
2.2671e-08
-1.28268e-07
8.90974e-06
5.48266e-08
-1.7281e-07
9.02455e-06
7.52316e-08
-1.90045e-07
9.1323e-06
9.03985e-08
-1.98147e-07
9.25078e-06
9.52432e-08
-2.13725e-07
9.37728e-06
1.03857e-07
-2.3036e-07
9.5011e-06
1.12276e-07
-2.36095e-07
9.62963e-06
1.25542e-07
-2.54072e-07
9.75056e-06
1.23549e-07
-2.44481e-07
9.8926e-06
1.29709e-07
-2.71743e-07
1.00313e-05
1.3053e-07
-2.69279e-07
1.01603e-05
1.10867e-07
-2.39787e-07
1.02989e-05
9.59254e-08
-2.34511e-07
1.04309e-05
5.69955e-08
-1.8903e-07
1.05391e-05
7.92621e-09
-1.16161e-07
1.06459e-05
-4.40804e-08
-6.27217e-08
1.07679e-05
-8.2259e-08
-3.9719e-08
1.08704e-05
-9.56979e-08
-6.76039e-09
1.09944e-05
-1.20325e-07
-3.67719e-09
1.11457e-05
-1.24081e-07
-2.72517e-08
1.13271e-05
-9.71384e-08
-8.4298e-08
1.15192e-05
-9.52024e-08
-9.68942e-08
1.17429e-05
-1.23579e-07
-1.00094e-07
1.20189e-05
-1.4928e-07
-1.26685e-07
1.22962e-05
-2.47477e-07
-2.98632e-08
1.25731e-05
-3.76553e-07
9.96694e-08
1.28334e-05
-5.43361e-07
2.83061e-07
1.30849e-05
-7.60518e-07
5.08995e-07
1.33052e-05
-9.77077e-07
7.56793e-07
1.35093e-05
-1.23527e-06
1.03119e-06
1.36951e-05
-1.54351e-06
1.3577e-06
1.38074e-05
-1.86761e-06
1.75531e-06
1.38454e-05
-2.19889e-06
2.16092e-06
1.37671e-05
-2.47955e-06
2.55781e-06
1.3532e-05
-2.74215e-06
2.97725e-06
1.31346e-05
-3.01792e-06
3.41529e-06
1.26562e-05
-3.17101e-06
3.64951e-06
1.21876e-05
-3.21586e-06
3.68437e-06
1.16609e-05
-3.12286e-06
3.6496e-06
1.08907e-05
-2.84141e-06
3.6116e-06
9.87967e-06
-2.3452e-06
3.35624e-06
8.78812e-06
-1.64202e-06
2.73357e-06
7.95638e-06
-8.0868e-07
1.64042e-06
7.60298e-06
2.39461e-07
1.1394e-07
7.8979e-06
1.50221e-06
-1.79713e-06
8.83366e-06
2.98109e-06
-3.91685e-06
1.0324e-05
4.43808e-06
-5.92842e-06
1.22086e-05
5.82189e-06
-7.70649e-06
1.4237e-05
6.65019e-06
-8.67863e-06
1.59643e-05
6.55514e-06
-8.28235e-06
1.72853e-05
5.83272e-06
-7.15379e-06
1.83136e-05
4.76426e-06
-5.79258e-06
1.9094e-05
3.66212e-06
-4.44246e-06
1.96951e-05
2.55895e-06
-3.16009e-06
2.02084e-05
1.46399e-06
-1.97728e-06
2.06427e-05
5.52668e-07
-9.86984e-07
2.10773e-05
-3.75598e-07
-5.90106e-08
2.14023e-05
-1.21147e-06
8.8653e-07
2.17663e-05
-2.13298e-06
1.76891e-06
2.20868e-05
-2.92034e-06
2.59985e-06
2.24606e-05
-3.81909e-06
3.44532e-06
2.26852e-05
-4.56564e-06
4.341e-06
2.30871e-05
-5.45477e-06
5.05294e-06
2.34015e-05
-6.3239e-06
6.00944e-06
2.3838e-05
-7.05711e-06
6.6206e-06
2.43682e-05
-7.74082e-06
7.21062e-06
2.5188e-05
-8.3929e-06
7.57309e-06
2.60967e-05
-8.9857e-06
8.07701e-06
2.71777e-05
-9.49959e-06
8.41864e-06
2.81953e-05
-1.015e-05
9.13239e-06
2.90438e-05
-1.04298e-05
9.58127e-06
2.98454e-05
-1.09137e-05
1.01121e-05
3.03745e-05
-1.12602e-05
1.07311e-05
3.06916e-05
-1.13439e-05
1.10269e-05
3.08257e-05
-1.13959e-05
1.12618e-05
3.0822e-05
-1.14522e-05
1.14558e-05
3.04676e-05
-1.08761e-05
1.12306e-05
3.01025e-05
-1.05107e-05
1.08758e-05
2.96898e-05
-9.8256e-06
1.02382e-05
2.9044e-05
-8.85634e-06
9.50214e-06
2.84872e-05
-7.77746e-06
8.33425e-06
2.81576e-05
-6.73738e-06
7.06699e-06
2.78131e-05
-5.45993e-06
5.80449e-06
2.78667e-05
-4.187e-06
4.13343e-06
2.79445e-05
-2.8379e-06
2.7601e-06
2.82673e-05
-1.54838e-06
1.22556e-06
2.86846e-05
-2.15621e-07
-2.01658e-07
2.92188e-05
1.14176e-06
-1.67599e-06
2.98995e-05
1.98975e-06
-2.67049e-06
3.05743e-05
3.06348e-06
-3.73821e-06
3.12484e-05
3.75765e-06
-4.43174e-06
3.19579e-05
4.0805e-06
-4.79006e-06
3.24582e-05
4.56223e-06
-5.06251e-06
3.30024e-05
4.45078e-06
-4.99497e-06
3.33263e-05
4.21938e-06
-4.54334e-06
3.36217e-05
3.98618e-06
-4.28155e-06
3.37987e-05
3.15652e-06
-3.3335e-06
3.38332e-05
2.50251e-06
-2.53699e-06
3.38669e-05
1.49956e-06
-1.53332e-06
3.37524e-05
3.91094e-07
-2.7657e-07
3.3575e-05
-8.23369e-07
1.00076e-06
3.33694e-05
-2.29916e-06
2.50474e-06
3.28958e-05
-3.56016e-06
4.0338e-06
3.24112e-05
-5.16347e-06
5.64803e-06
3.15542e-05
-6.5288e-06
7.38584e-06
3.05821e-05
-7.85296e-06
8.82506e-06
2.92931e-05
-9.22525e-06
1.05142e-05
2.77699e-05
-1.0025e-05
1.15482e-05
2.62081e-05
-1.09754e-05
1.25372e-05
2.46904e-05
-1.16815e-05
1.31992e-05
2.33156e-05
-1.23325e-05
1.37072e-05
2.23465e-05
-1.26584e-05
1.36276e-05
2.17722e-05
-1.38644e-05
1.44387e-05
2.11752e-05
-1.49728e-05
1.55699e-05
2.03984e-05
-1.55887e-05
1.63655e-05
1.9466e-05
-1.56659e-05
1.65983e-05
1.87936e-05
-1.57119e-05
1.63843e-05
1.84903e-05
-1.66316e-05
1.69349e-05
1.87551e-05
-1.78964e-05
1.76316e-05
1.92346e-05
-1.94993e-05
1.90198e-05
1.98651e-05
-2.12554e-05
2.06248e-05
2.05061e-05
-2.20358e-05
2.13948e-05
2.08896e-05
-2.15034e-05
2.112e-05
2.12996e-05
-1.99579e-05
1.95478e-05
2.15487e-05
-1.78665e-05
1.76175e-05
2.17475e-05
-1.56487e-05
1.54498e-05
2.20395e-05
-1.3101e-05
1.2809e-05
2.23346e-05
-1.03544e-05
1.00592e-05
2.24874e-05
-7.16107e-06
7.00832e-06
2.26729e-05
-3.99098e-06
3.80545e-06
2.25979e-05
-5.93978e-07
6.69031e-07
2.23186e-05
2.67497e-06
-2.39574e-06
2.23118e-05
4.72889e-06
-4.72202e-06
2.22209e-05
7.35156e-06
-7.26069e-06
2.24198e-05
1.00198e-05
-1.02186e-05
2.23202e-05
1.23568e-05
-1.22572e-05
2.20194e-05
1.37404e-05
-1.34396e-05
2.15691e-05
1.4175e-05
-1.37246e-05
2.15034e-05
1.40689e-05
-1.40032e-05
2.13184e-05
1.35939e-05
-1.3409e-05
2.11547e-05
1.32831e-05
-1.31194e-05
2.11645e-05
1.24743e-05
-1.24841e-05
2.11714e-05
1.1827e-05
-1.18339e-05
2.14231e-05
1.05187e-05
-1.07705e-05
2.13702e-05
9.18585e-06
-9.13292e-06
2.17114e-05
7.73029e-06
-8.07152e-06
2.20306e-05
6.36073e-06
-6.67998e-06
2.26381e-05
4.67105e-06
-5.27854e-06
2.3043e-05
3.84439e-06
-4.24927e-06
2.39785e-05
3.05161e-06
-3.98712e-06
2.45566e-05
2.29674e-06
-2.87479e-06
2.51331e-05
2.07128e-06
-2.64776e-06
2.58202e-05
2.02148e-06
-2.70859e-06
2.63864e-05
2.67758e-06
-3.24387e-06
2.68303e-05
3.15739e-06
-3.60122e-06
2.71979e-05
3.80877e-06
-4.1764e-06
2.74581e-05
4.8609e-06
-5.12109e-06
2.75432e-05
5.64249e-06
-5.72759e-06
2.76803e-05
6.58207e-06
-6.71911e-06
2.73488e-05
8.10736e-06
-7.77589e-06
2.73229e-05
9.26185e-06
-9.23596e-06
2.7224e-05
1.00332e-05
-9.93433e-06
2.74864e-05
1.07903e-05
-1.10526e-05
2.75377e-05
1.17863e-05
-1.18375e-05
2.73084e-05
1.2451e-05
-1.22217e-05
2.79135e-05
1.28677e-05
-1.34728e-05
2.75631e-05
1.46058e-05
-1.42554e-05
2.74631e-05
1.44175e-05
-1.43175e-05
2.75918e-05
1.47485e-05
-1.48772e-05
2.65947e-05
1.52144e-05
-1.42173e-05
2.67631e-05
1.38145e-05
-1.39829e-05
2.66233e-05
1.36701e-05
-1.35303e-05
2.5513e-05
1.35711e-05
-1.24607e-05
2.52295e-05
1.28481e-05
-1.25647e-05
2.41434e-05
1.26792e-05
-1.15931e-05
2.29587e-05
1.21788e-05
-1.09941e-05
2.19665e-05
1.26626e-05
-1.16705e-05
2.02789e-05
1.41852e-05
-1.24976e-05
1.91763e-05
1.47703e-05
-1.36677e-05
1.65554e-05
1.85616e-05
-1.59407e-05
1.63979e-05
1.95198e-05
-1.93624e-05
3.01745e-05
-2.94719e-05
1.56953e-05
1.29826e-05
-2.52997e-07
1.30931e-05
-2.99156e-07
1.33054e-05
-3.98772e-07
1.35158e-05
-4.25522e-07
1.37082e-05
-4.27578e-07
1.38583e-05
-3.78041e-07
1.39651e-05
-3.22673e-07
1.40431e-05
-2.85861e-07
1.40909e-05
-2.36162e-07
1.41449e-05
-2.26882e-07
1.42074e-05
-2.14274e-07
1.42768e-05
-1.84435e-07
1.43538e-05
-1.7373e-07
1.44257e-05
-1.34872e-07
1.44891e-05
-1.02142e-07
1.45546e-05
-8.86011e-08
1.46086e-05
-6.05444e-08
1.46645e-05
-5.40845e-08
1.47249e-05
-3.7748e-08
1.47958e-05
-1.59938e-08
1.48758e-05
-4.79942e-09
1.49424e-05
2.37681e-08
1.50033e-05
3.43514e-08
1.50764e-05
3.07313e-08
1.51504e-05
3.83637e-08
1.52316e-05
4.43002e-08
1.53196e-05
3.55638e-08
1.5406e-05
4.32961e-08
1.55058e-05
3.07567e-08
1.55994e-05
1.7241e-08
1.56864e-05
8.96105e-09
1.579e-05
-4.66177e-08
1.58796e-05
-8.16647e-08
1.59641e-05
-1.28614e-07
1.60785e-05
-1.96628e-07
1.61906e-05
-2.07805e-07
1.63079e-05
-2.37628e-07
1.64576e-05
-2.73768e-07
1.66168e-05
-2.56361e-07
1.68113e-05
-2.89673e-07
1.70182e-05
-3.30509e-07
1.72451e-05
-3.76226e-07
1.74946e-05
-4.96961e-07
1.77309e-05
-6.1288e-07
1.79626e-05
-7.75017e-07
1.81935e-05
-9.9143e-07
1.84027e-05
-1.18628e-06
1.85971e-05
-1.42962e-06
1.87524e-05
-1.69889e-06
1.8816e-05
-1.93114e-06
1.88078e-05
-2.19068e-06
1.87451e-05
-2.41691e-06
1.85859e-05
-2.58295e-06
1.83263e-05
-2.75833e-06
1.79667e-05
-2.81139e-06
1.74528e-05
-2.70202e-06
1.68355e-05
-2.50555e-06
1.61313e-05
-2.13714e-06
1.54056e-05
-1.61959e-06
1.47229e-05
-9.59297e-07
1.40718e-05
-1.57569e-07
1.3478e-05
8.33263e-07
1.31581e-05
1.82213e-06
1.33192e-05
2.81996e-06
1.39974e-05
3.7599e-06
1.52042e-05
4.61509e-06
1.67101e-05
5.14424e-06
1.81627e-05
5.10256e-06
1.93452e-05
4.65019e-06
2.03079e-05
3.80158e-06
2.10248e-05
2.94527e-06
2.16049e-05
1.97884e-06
2.20537e-05
1.0152e-06
2.25059e-05
1.00411e-07
2.28903e-05
-7.59982e-07
2.32851e-05
-1.60626e-06
2.3705e-05
-2.55282e-06
2.41413e-05
-3.35669e-06
2.4649e-05
-4.32678e-06
2.52232e-05
-5.13988e-06
2.58604e-05
-6.09198e-06
2.65619e-05
-7.02532e-06
2.73024e-05
-7.79769e-06
2.81475e-05
-8.58593e-06
2.90823e-05
-9.3277e-06
2.98407e-05
-9.74409e-06
3.06949e-05
-1.03537e-05
3.12654e-05
-1.07205e-05
3.17369e-05
-1.09013e-05
3.20937e-05
-1.12704e-05
3.21695e-05
-1.13359e-05
3.20313e-05
-1.12058e-05
3.18538e-05
-1.12184e-05
3.13686e-05
-1.0967e-05
3.07643e-05
-1.02718e-05
3.02667e-05
-1.00131e-05
2.96321e-05
-9.19102e-06
2.90545e-05
-8.27873e-06
2.87849e-05
-7.50784e-06
2.85449e-05
-6.49733e-06
2.83174e-05
-5.23252e-06
2.83636e-05
-4.23316e-06
2.83596e-05
-2.83387e-06
2.85766e-05
-1.76545e-06
2.88688e-05
-5.07754e-07
2.94018e-05
6.08755e-07
2.99194e-05
1.47214e-06
3.0604e-05
2.37892e-06
3.13024e-05
3.05921e-06
3.19717e-05
3.41118e-06
3.25823e-05
3.9516e-06
3.32551e-05
3.77799e-06
3.36043e-05
3.87021e-06
3.40822e-05
3.50826e-06
3.42653e-05
2.97347e-06
3.43869e-05
2.3809e-06
3.44138e-05
1.47265e-06
3.42519e-05
5.53021e-07
3.39862e-05
-5.57745e-07
3.35163e-05
-1.82926e-06
3.28649e-05
-2.90872e-06
3.20312e-05
-4.32976e-06
3.09187e-05
-5.41635e-06
2.97226e-05
-6.65685e-06
2.82009e-05
-7.70351e-06
2.67451e-05
-8.56926e-06
2.5202e-05
-9.43219e-06
2.40114e-05
-1.0491e-05
2.28066e-05
-1.11277e-05
2.19493e-05
-1.18012e-05
2.12654e-05
-1.31805e-05
2.04596e-05
-1.41671e-05
1.94417e-05
-1.45707e-05
1.83287e-05
-1.45529e-05
1.77523e-05
-1.51355e-05
1.75492e-05
-1.64284e-05
1.77264e-05
-1.80737e-05
1.80731e-05
-1.9846e-05
1.8422e-05
-2.16043e-05
1.87822e-05
-2.23961e-05
1.89604e-05
-2.16816e-05
1.91201e-05
-2.01177e-05
1.92401e-05
-1.79864e-05
1.94795e-05
-1.58881e-05
1.96813e-05
-1.33028e-05
1.98132e-05
-1.04863e-05
1.99912e-05
-7.33908e-06
1.9973e-05
-3.97272e-06
1.98058e-05
-4.26818e-07
1.97824e-05
2.69841e-06
1.93824e-05
5.12885e-06
1.93242e-05
7.40983e-06
1.94387e-05
9.90523e-06
1.93637e-05
1.24318e-05
1.9176e-05
1.39281e-05
1.90612e-05
1.42898e-05
1.891e-05
1.42201e-05
1.87777e-05
1.37262e-05
1.90858e-05
1.2975e-05
1.9009e-05
1.2551e-05
1.92963e-05
1.15397e-05
1.92929e-05
1.05222e-05
1.96897e-05
8.78898e-06
2.00859e-05
7.33415e-06
2.0572e-05
5.87458e-06
2.13209e-05
3.92223e-06
2.19478e-05
3.21745e-06
2.29522e-05
2.04723e-06
2.36575e-05
1.59144e-06
2.45618e-05
1.16698e-06
2.52837e-05
1.29961e-06
2.59887e-05
1.97256e-06
2.66581e-05
2.48797e-06
2.70504e-05
3.41651e-06
2.75767e-05
4.33458e-06
2.75665e-05
5.65265e-06
2.75663e-05
6.58226e-06
2.72209e-05
8.45276e-06
2.71373e-05
9.34543e-06
2.71289e-05
1.00416e-05
2.69103e-05
1.10089e-05
2.72428e-05
1.14537e-05
2.71458e-05
1.2548e-05
2.72918e-05
1.27217e-05
2.79642e-05
1.39334e-05
2.72873e-05
1.50944e-05
2.76294e-05
1.44064e-05
2.77e-05
1.51438e-05
2.66889e-05
1.48256e-05
2.70255e-05
1.33335e-05
2.64247e-05
1.41719e-05
2.52359e-05
1.40369e-05
2.48837e-05
1.30314e-05
2.36329e-05
1.34297e-05
2.3143e-05
1.31524e-05
2.15916e-05
1.57367e-05
2.20089e-05
1.4353e-05
2.00096e-05
2.0561e-05
2.43466e-05
1.51828e-05
3.11716e-05
2.33495e-05
1.9367e-05
-2.78253e-07
1.95429e-05
-4.75057e-07
1.97931e-05
-6.49009e-07
2.004e-05
-6.72431e-07
2.02227e-05
-6.10254e-07
2.03283e-05
-4.83671e-07
2.03457e-05
-3.40023e-07
2.03376e-05
-2.77847e-07
2.03195e-05
-2.17976e-07
2.03284e-05
-2.35875e-07
2.03696e-05
-2.55429e-07
2.04326e-05
-2.47408e-07
2.05116e-05
-2.52788e-07
2.05717e-05
-1.94932e-07
2.06134e-05
-1.43845e-07
2.06391e-05
-1.14255e-07
2.06536e-05
-7.51272e-08
2.06704e-05
-7.08411e-08
2.06934e-05
-6.07533e-08
2.07347e-05
-5.7279e-08
2.07883e-05
-5.84051e-08
2.08381e-05
-2.60319e-08
2.08837e-05
-1.12532e-08
2.09303e-05
-1.589e-08
2.09773e-05
-8.60638e-09
2.10315e-05
-9.86858e-09
2.10954e-05
-2.84206e-08
2.11554e-05
-1.67114e-08
2.12233e-05
-3.7133e-08
2.12862e-05
-4.56448e-08
2.13405e-05
-4.52778e-08
2.14145e-05
-1.20686e-07
2.14767e-05
-1.43831e-07
2.15431e-05
-1.94984e-07
2.16292e-05
-2.82719e-07
2.17196e-05
-2.98213e-07
2.18231e-05
-3.41129e-07
2.19455e-05
-3.96196e-07
2.20688e-05
-3.79695e-07
2.22284e-05
-4.49215e-07
2.2396e-05
-4.98123e-07
2.25589e-05
-5.3912e-07
2.27579e-05
-6.95967e-07
2.29441e-05
-7.9906e-07
2.31116e-05
-9.42537e-07
2.33031e-05
-1.18298e-06
2.34361e-05
-1.31922e-06
2.35625e-05
-1.55602e-06
2.36502e-05
-1.78665e-06
2.36508e-05
-1.93169e-06
2.36216e-05
-2.16149e-06
2.35211e-05
-2.31641e-06
2.33367e-05
-2.39853e-06
2.30632e-05
-2.48489e-06
2.26764e-05
-2.42459e-06
2.22439e-05
-2.26945e-06
2.1749e-05
-2.01069e-06
2.12291e-05
-1.61719e-06
2.06838e-05
-1.07428e-06
2.01389e-05
-4.14418e-07
1.96487e-05
3.32648e-07
1.92681e-05
1.21379e-06
1.90266e-05
2.06364e-06
1.89792e-05
2.86741e-06
1.91954e-05
3.5437e-06
1.9734e-05
4.07646e-06
2.05088e-05
4.36942e-06
2.14201e-05
4.19128e-06
2.22273e-05
3.84297e-06
2.29564e-05
3.07251e-06
2.35943e-05
2.30738e-06
2.41394e-05
1.43377e-06
2.46549e-05
4.997e-07
2.51665e-05
-4.1127e-07
2.56712e-05
-1.26466e-06
2.62692e-05
-2.20424e-06
2.68114e-05
-3.09498e-06
2.74884e-05
-4.03376e-06
2.81609e-05
-4.99928e-06
2.89319e-05
-5.91085e-06
2.96332e-05
-6.79328e-06
3.03823e-05
-7.77442e-06
3.10431e-05
-8.45846e-06
3.16913e-05
-9.23413e-06
3.22079e-05
-9.84437e-06
3.25876e-05
-1.01238e-05
3.2935e-05
-1.07011e-05
3.29857e-05
-1.07712e-05
3.30312e-05
-1.09469e-05
3.29128e-05
-1.1152e-05
3.25309e-05
-1.0954e-05
3.21509e-05
-1.08258e-05
3.17527e-05
-1.08202e-05
3.10284e-05
-1.02426e-05
3.0592e-05
-9.8355e-06
3.01512e-05
-9.57227e-06
2.95936e-05
-8.63339e-06
2.92978e-05
-7.98292e-06
2.90288e-05
-7.23888e-06
2.86713e-05
-6.13976e-06
2.86178e-05
-5.17903e-06
2.85532e-05
-4.16861e-06
2.86632e-05
-2.94386e-06
2.88802e-05
-1.98248e-06
2.91109e-05
-7.38403e-07
2.95963e-05
1.23352e-07
2.99723e-05
1.09616e-06
3.04496e-05
1.90162e-06
3.10823e-05
2.42644e-06
3.1583e-05
2.9105e-06
3.21885e-05
3.34607e-06
3.26978e-05
3.26875e-06
3.31106e-05
3.4574e-06
3.35575e-05
3.06134e-06
3.36833e-05
2.84771e-06
3.38784e-05
2.18577e-06
3.38286e-05
1.52243e-06
3.36064e-05
7.75292e-07
3.32837e-05
-2.35086e-07
3.26576e-05
-1.20314e-06
3.18986e-05
-2.14977e-06
3.08936e-05
-3.32476e-06
2.97236e-05
-4.24627e-06
2.84092e-05
-5.34254e-06
2.70165e-05
-6.31076e-06
2.56489e-05
-7.2017e-06
2.44261e-05
-8.20938e-06
2.34503e-05
-9.51514e-06
2.22624e-05
-9.93975e-06
2.1523e-05
-1.10617e-05
2.07089e-05
-1.23664e-05
1.96527e-05
-1.31109e-05
1.8296e-05
-1.3214e-05
1.71939e-05
-1.34508e-05
1.67196e-05
-1.46613e-05
1.64583e-05
-1.61672e-05
1.64742e-05
-1.80895e-05
1.6641e-05
-2.00129e-05
1.67526e-05
-2.17158e-05
1.68747e-05
-2.25182e-05
1.68982e-05
-2.1705e-05
1.69341e-05
-2.01536e-05
1.69271e-05
-1.79795e-05
1.69384e-05
-1.58994e-05
1.70734e-05
-1.34377e-05
1.70208e-05
-1.04338e-05
1.68631e-05
-7.18134e-06
1.65813e-05
-3.69095e-06
1.62632e-05
-1.08703e-07
1.6202e-05
2.75966e-06
1.61068e-05
5.224e-06
1.60611e-05
7.45558e-06
1.60627e-05
9.90363e-06
1.61589e-05
1.23356e-05
1.61604e-05
1.39266e-05
1.61424e-05
1.43077e-05
1.61361e-05
1.42265e-05
1.63387e-05
1.35236e-05
1.6283e-05
1.30308e-05
1.65662e-05
1.22678e-05
1.68951e-05
1.12108e-05
1.73151e-05
1.01022e-05
1.79093e-05
8.1948e-06
1.80962e-05
7.14718e-06
1.89248e-05
5.04605e-06
1.96715e-05
3.17547e-06
2.06984e-05
2.19062e-06
2.16773e-05
1.06831e-06
2.28733e-05
3.95359e-07
2.3888e-05
1.52332e-07
2.47555e-05
4.32081e-07
2.58775e-05
8.5059e-07
2.65483e-05
1.81713e-06
2.7142e-05
2.82287e-06
2.75985e-05
3.87804e-06
2.76255e-05
5.62567e-06
2.74327e-05
6.77509e-06
2.73503e-05
8.5351e-06
2.69384e-05
9.75733e-06
2.67661e-05
1.02139e-05
2.65012e-05
1.12738e-05
2.60112e-05
1.19437e-05
2.62359e-05
1.23234e-05
2.57014e-05
1.32562e-05
2.64731e-05
1.31617e-05
2.72126e-05
1.43549e-05
2.67231e-05
1.48959e-05
2.76112e-05
1.42557e-05
2.76545e-05
1.47824e-05
2.65829e-05
1.4405e-05
2.69161e-05
1.38388e-05
2.59551e-05
1.49979e-05
2.54249e-05
1.35616e-05
2.43042e-05
1.45504e-05
2.42844e-05
1.31723e-05
2.23252e-05
1.76958e-05
2.44939e-05
1.21843e-05
2.21611e-05
2.28939e-05
2.67028e-05
1.06411e-05
2.92057e-05
2.86687e-05
2.45959e-05
-5.36184e-07
2.50821e-05
-9.6126e-07
2.54558e-05
-1.02271e-06
2.56218e-05
-8.38395e-07
2.57098e-05
-6.98306e-07
2.57433e-05
-5.17153e-07
2.57643e-05
-3.61003e-07
2.57526e-05
-2.66149e-07
2.57186e-05
-1.8405e-07
2.56906e-05
-2.07833e-07
2.56593e-05
-2.24081e-07
2.56632e-05
-2.5133e-07
2.57164e-05
-3.06041e-07
2.57637e-05
-2.42177e-07
2.58273e-05
-2.07429e-07
2.58655e-05
-1.52498e-07
2.58672e-05
-7.68204e-08
2.58772e-05
-8.07953e-08
2.58627e-05
-4.63376e-08
2.58698e-05
-6.4319e-08
2.59097e-05
-9.8326e-08
2.5933e-05
-4.93164e-08
2.598e-05
-5.82832e-08
2.60281e-05
-6.39587e-08
2.60576e-05
-3.81697e-08
2.60995e-05
-5.17567e-08
2.61425e-05
-7.13894e-08
2.6172e-05
-4.62553e-08
2.62305e-05
-9.55765e-08
2.62644e-05
-7.95693e-08
2.6302e-05
-8.28176e-08
2.63547e-05
-1.7341e-07
2.63956e-05
-1.84768e-07
2.6445e-05
-2.4438e-07
2.65184e-05
-3.56095e-07
2.65772e-05
-3.57054e-07
2.66645e-05
-4.28368e-07
2.67542e-05
-4.85895e-07
2.68342e-05
-4.59759e-07
2.69463e-05
-5.6124e-07
2.70517e-05
-6.03528e-07
2.71615e-05
-6.48986e-07
2.72875e-05
-8.21964e-07
2.74056e-05
-9.17155e-07
2.75117e-05
-1.04864e-06
2.76132e-05
-1.28447e-06
2.76795e-05
-1.38555e-06
2.77127e-05
-1.58913e-06
2.77312e-05
-1.80521e-06
2.7673e-05
-1.87346e-06
2.75963e-05
-2.0848e-06
2.74522e-05
-2.1723e-06
2.72266e-05
-2.17299e-06
2.69388e-05
-2.19702e-06
2.65712e-05
-2.05701e-06
2.61589e-05
-1.85716e-06
2.57283e-05
-1.58005e-06
2.52903e-05
-1.17923e-06
2.49047e-05
-6.88706e-07
2.45773e-05
-8.69544e-08
2.4305e-05
6.04949e-07
2.4124e-05
1.3948e-06
2.40682e-05
2.11938e-06
2.40994e-05
2.83625e-06
2.43262e-05
3.31683e-06
2.47073e-05
3.69542e-06
2.52393e-05
3.83745e-06
2.58343e-05
3.59628e-06
2.64317e-05
3.24556e-06
2.6968e-05
2.53619e-06
2.75198e-05
1.75556e-06
2.79752e-05
9.78402e-07
2.84999e-05
-2.50529e-08
2.89882e-05
-8.99513e-07
2.95342e-05
-1.81063e-06
3.01043e-05
-2.77442e-06
3.06803e-05
-3.67092e-06
3.13012e-05
-4.65468e-06
3.18676e-05
-5.56572e-06
3.24386e-05
-6.48184e-06
3.29424e-05
-7.29703e-06
3.33242e-05
-8.15626e-06
3.36318e-05
-8.76609e-06
3.38448e-05
-9.44713e-06
3.38275e-05
-9.82703e-06
3.38506e-05
-1.01469e-05
3.36604e-05
-1.05109e-05
3.33411e-05
-1.04519e-05
3.31107e-05
-1.07165e-05
3.26721e-05
-1.07134e-05
3.21515e-05
-1.04335e-05
3.18504e-05
-1.05247e-05
3.13063e-05
-1.0276e-05
3.07348e-05
-9.67117e-06
3.05607e-05
-9.66137e-06
3.00155e-05
-9.02715e-06
2.96728e-05
-8.29061e-06
2.95781e-05
-7.88829e-06
2.93225e-05
-6.98327e-06
2.93177e-05
-6.13497e-06
2.94593e-05
-5.32061e-06
2.94168e-05
-4.12614e-06
2.96472e-05
-3.17424e-06