/*--------------------------------*- C++ -*----------------------------------*\
| =========                 |                                                 |
| \\      /  F ield         | OpenFOAM: The Open Source CFD Toolbox           |
|  \\    /   O peration     | Version:  2.4.0                                 |
|   \\  /    A nd           | Web:      www.OpenFOAM.org                      |
|    \\/     M anipulation  |                                                 |
\*---------------------------------------------------------------------------*/
FoamFile
{
    version     2.0;
    format      ascii;
    class       volScalarField;
    location    "0.78";
    object      pPrime2Mean;
}
// * * * * * * * * * * * * * * * * * * * * * * * * * * * * * * * * * * * * * //

dimensions      [0 4 -4 0 0 0 0];

internalField   nonuniform List<scalar> 
8800
(
828991
808077
785637
763388
741443
719816
698509
677520
656851
636499
616463
596740
577324
558206
539365
520766
502339
483941
465240
445191
829020
808080
785635
763387
741442
719816
698509
677520
656851
636499
616464
596741
577326
558208
539370
520776
502359
483983
465343
445531
829039
808079
785630
763384
741441
719815
698508
677520
656851
636499
616464
596742
577329
558214
539380
520796
502397
484064
465531
446191
829053
808079
785624
763380
741439
719814
698508
677520
656851
636500
616465
596745
577333
558222
539395
520825
502453
484179
465795
446959
829065
808079
785619
763376
741438
719814
698508
677520
656851
636500
616467
596747
577339
558232
539415
520861
502524
484323
466111
447753
829074
808080
785616
763373
741436
719814
698508
677520
656851
636501
616468
596751
577345
558245
539438
520905
502608
484488
466459
448529
829081
808080
785613
763370
741435
719813
698508
677520
656852
636502
616470
596755
577353
558259
539464
520954
502701
484668
466821
449266
829087
808081
785612
763368
741434
719813
698508
677520
656852
636503
616473
596759
577362
558275
539493
521007
502801
484858
467186
449954
829090
808082
785611
763367
741433
719814
698508
677520
656853
636504
616475
596764
577371
558291
539524
521063
502905
485050
467543
450587
829092
808082
785610
763366
741433
719814
698509
677521
656853
636506
616478
596769
577380
558308
539555
521121
503010
485242
467886
451164
829092
808082
785610
763366
741433
719814
698509
677521
656854
636507
616481
596775
577389
558326
539587
521178
503113
485427
468209
451684
829090
808082
785611
763367
741434
719814
698509
677522
656855
636509
616484
596780
577399
558343
539617
521233
503213
485602
468506
452148
829087
808081
785612
763368
741435
719814
698509
677522
656856
636510
616487
596785
577408
558359
539647
521286
503306
485765
468776
452557
829082
808080
785614
763370
741436
719815
698509
677523
656857
636512
616489
596789
577416
558374
539674
521335
503392
485912
469016
452913
829074
808079
785616
763373
741437
719815
698510
677524
656858
636514
616492
596794
577424
558388
539698
521378
503469
486041
469224
453216
829065
808079
785620
763376
741439
719815
698510
677524
656859
636515
616494
596798
577430
558400
539720
521416
503534
486151
469398
453468
829054
808078
785625
763380
741440
719816
698511
677525
656860
636517
616496
596801
577436
558410
539737
521447
503588
486241
469538
453669
829039
808079
785630
763384
741442
719817
698511
677526
656861
636518
616498
596804
577440
558417
539751
521471
503629
486309
469644
453818
829021
808080
785636
763388
741444
719818
698512
677526
656862
636519
616499
596805
577443
558422
539760
521488
503657
486354
469714
453917
828992
808076
785637
763389
741444
719818
698512
677527
656862
636519
616499
596806
577445
558425
539765
521496
503671
486377
469750
453965
427024
422132
418399
415172
412181
409333
406587
403918
401307
398744
396219
393726
391260
388817
386394
383988
381596
379217
376848
374489
372141
369803
367476
365158
362849
360548
358256
355973
353698
351431
349174
346926
344688
342460
340242
338035
335837
333650
331471
329302
327140
324986
322838
320697
318562
316433
314310
312194
310085
307983
305888
303798
301715
299638
297567
295502
293445
291396
289355
287320
285293
283271
281255
279245
277241
275245
273257
271278
269307
267345
265391
263443
261503
259570
257643
255724
253812
251907
250010
248122
246244
244375
242515
240663
238820
236983
235153
233329
231511
229699
227894
226094
224299
222509
220723
218941
217165
215393
213626
211864
210110
208362
206622
204891
203168
201454
199750
198054
196368
194690
193020
191358
189703
188056
186417
184785
183161
181544
179935
178335
176742
175159
173583
172018
170459
168912
167370
165840
164314
162799
161287
159783
158283
156788
155298
153813
152333
150858
149388
147925
146467
145016
143570
142131
140697
139269
137847
136431
135021
133618
132221
130831
129448
128071
126702
125340
123985
122638
121298
119966
118642
117326
116019
114721
113431
112152
110880
109619
108366
107124
105889
104666
103449
102243
101042
99854.3
98667.8
97497.2
96324.4
95169.1
94010.3
92868.1
91722.2
90589.2
89452.8
88323.5
87189.5
86058.8
84919.2
83778.4
82623.6
81459.4
80273
79065.8
77821.2
76536
75183.2
73737.5
72165.8
70278.8
430509
425296
421046
417386
414074
410979
408032
405196
402444
399758
397126
394540
391991
389475
386986
384521
382077
379650
377239
374843
372460
370091
367735
365391
363059
360738
358427
356127
353837
351557
349287
347028
344779
342542
340316
338100
335894
333699
331514
329338
327170
325010
322858
320713
318574
316442
314317
312199
310087
307983
305886
303796
301712
299634
297563
295499
293443
291394
289352
287318
285290
283269
281254
279246
277244
275249
273262
271283
269312
267350
265395
263448
261507
259574
257648
255729
253817
251913
250017
248130
246252
244384
242525
240675
238832
236996
235166
233342
231525
229714
227909
226108
224313
222522
220736
218954
217177
215405
213639
211879
210126
208380
206641
204910
203189
201476
199771
198076
196388
194709
193038
191375
189719
188070
186430
184797
183172
181556
179947
178347
176756
175174
173600
172036
170479
168933
167394
165865
164341
162826
161315
159811
158311
156816
155326
153841
152360
150885
149415
147952
146494
145042
143596
142155
140720
139291
137868
136451
135039
133634
132237
130846
129462
128086
126716
125353
123997
122649
121306
119972
118645
117327
116016
114715
113420
112136
110859
109591
108331
107081
105837
104603
103375
102157
100942
99740.6
98538.6
97351
96161
94985.4
93807.1
92641.1
91473.1
90312.2
89149.9
87989.3
86824.2
85656.8
84481.1
83296.1
82096.7
80878
79633.6
78354.7
77032.1
75642.1
74188
72558.2
70824.6
68803.5
432927
427755
423307
419387
415838
412537
409416
406428
403544
400743
398011
395335
392706
390119
387567
385044
382548
380075
377623
375189
372773
370374
367990
365621
363266
360924
358595
356278
353973
351680
349398
347128
344869
342623
340387
338164
335951
333748
331556
329373
327199
325034
322877
320728
318586
316451
314323
312202
310089
307983
305884
303792
301708
299630
297559
295496
293440
291391
289350
287315
285288
283268
281254
279247
277246
275253
273267
271289
269319
267356
265401
263454
261514
259581
257654
255735
253824
251920
250025
248138
246262
244395
242537
240687
238845
237009
235180
233358
231541
229731
227925
226125
224329
222537
220751
218969
217193
215422
213657
211899
210147
208402
206665
204936
203215
201502
199798
198102
196415
194734
193062
191396
189739
188088
186446
184812
183187
181570
179962
178363
176773
175192
173619
172057
170502
168958
167420
165892
164370
162855
161345
159840
158340
156845
155354
153868
152387
150911
149441
147977
146519
145066
143620
142179
140743
139313
137889
136469
135057
133651
132253
130862
129478
128102
126732
125368
124010
122660
121315
119978
118649
117328
116014
114709
113411
112121
110839
109565
108298
107040
105786
104542
103302
102072
100844
99626.9
98410.9
97205.2
95999.6
94802.8
93606.7
92416.1
91226.9
90038.5
88850.9
87659
86465.1
85261.4
84052.2
82824.8
81584.6
80314
79020.9
77672.3
76297.4
74807.6
73295.7
71565.3
69752.9
67761
434768
429733
425229
421166
417449
413988
410719
407599
404597
401691
398864
396103
393399
390744
388130
385553
383007
380490
377997
375527
373078
370649
368238
365845
363468
361107
358760
356426
354107
351800
349507
347226
344958
342702
340458
338226
336006
333796
331597
329408
327228
325058
322896
320743
318597
316459
314328
312205
310090
307982
305882
303790
301704
299627
297556
295493
293437
291388
289347
287314
285287
283268
281255
279249
277250
275258
273273
271296
269327
267364
265410
263462
261522
259588
257662
255743
253831
251927
250033
248147
246272
244405
242548
240700
238858
237024
235196
233374
231558
229748
227943
226142
224346
222555
220769
218987
217212
215442
213679
211922
210172
208429
206694
204966
203246
201534
199830
198133
196445
194763
193088
191421
189761
188108
186465
184829
183203
181586
179978
178380
176791
175211
173641
172079
170527
168983
167448
165920
164400
162884
161374
159869
158368
156872
155380
153893
152412
150935
149464
147999
146541
145088
143641
142200
140764
139333
137908
136487
135074
133668
132270
130879
129495
128119
126748
125383
124024
122671
121324
119984
118653
117328
116011
114702
113401
112106
110819
109539
108265
106999
105737
104482
103231
101988
100747
99515
98285.7
97062.2
95841.2
94624
93409.8
92195.7
90984.9
89769.7
88557.6
87335.1
86114.9
84875.1
83637.1
82366.2
81096.2
79769.2
78447.4
77026.9
75619.2
74054.3
72486.9
70740
68914.9
66988.2
436247
431351
426861
422730
418905
415323
411934
408701
405594
402593
399679
396841
394066
391347
388675
386045
383451
380891
378360
375855
373375
370917
368481
366064
363666
361285
358921
356572
354238
351919
349614
347323
345045
342780
340528
338288
336060
333844
331638
329443
327258
325082
322916
320758
318609
316468
314335
312209
310092
307983
305882
303788
301703
299625
297554
295491
293435
291387
289347
287314
285288
283269
281257
279253
277255
275264
273281
271305
269336
267374
265420
263472
261531
259596
257669
255750
253838
251935
250040
248156
246281
244416
242560
240712
238872
237038
235211
233391
231576
229766
227962
226161
224365
222574
220788
219007
217233
215465
213703
211948
210201
208460
206726
204999
203280
201568
199864
198167
196477
194793
193117
191447
189785
188130
186485
184848
183221
181604
179996
178398
176810
175231
173662
172101
170550
169008
167474
165947
164427
162911
161401
159894
158393
156896
155403
153915
152433
150955
149484
148017
146559
145105
143658
142216
140780
139349
137924
136503
135091
133684
132287
130895
129513
128135
126764
125397
124037
122680
121331
119988
118654
117326
116007
114693
113388
112090
110798
109512
108232
106957
105688
104422
103161
101905
100653
99406.3
98163.8
96922.9
95687
94449.4
93217.7
91979.2
90749.2
89505.6
88273.6
87017.9
85777.3
84499
83240.2
81923.3
80630.4
79253.5
77900.9
76433.2
74980.8
73390.6
71774.8
70051.1
68249.7
66379
437493
432716
428261
424100
420206
416536
413053
409725
406529
403444
400452
397542
394702
391923
389197
386518
383879
381278
378710
376173
373662
371177
368716
366277
363858
361459
359078
356715
354368
352036
349720
347419
345131
342858
340598
338350
336115
333892
331680
329479
327288
325108
322937
320775
318622
316478
314343
312216
310097
307987
305884
303790
301704
299625
297554
295492
293436
291389
289349
287316
285291
283273
281262
279259
277262
275272
273290
271315
269346
267385
265429
263481
261539
259604
257676
255756
253844
251941
250047
248163
246289
244425
242569
240722
238883
237051
235225
233406
231592
229784
227980
226180
224385
222595
220809
219029
217256
215489
213729
211977
210231
208492
206760
205035
203316
201604
199899
198201
196509
194824
193145
191472
189808
188152
186505
184867
183240
181621
180014
178415
176828
175249
173681
172121
170571
169029
167497
165970
164450
162934
161423
159916
158414
156915
155422
153932
152449
150969
149497
148030
146571
145116
143670
142228
140793
139361
137937
136516
135104
133698
132302
130909
129527
128147
126776
125407
124046
122686
121335
119989
118652
117320
115999
114681
113373
112069
110773
109481
108196
106913
105637
104360
103092
101823
100561
99299.2
98045.6
96785.7
95537.3
94277.3
93030.6
91766.9
90520.2
89249.3
87998.3
86714.1
85451.5
84143.3
82857.7
81510.7
80183
78778.7
77384.2
75896.9
74402.3
72812.8
71176.6
69476
67702.5
65873.2
438566
433886
429469
425300
421363
417630
414074
410670
407398
404240
401180
398205
395306
392472
389695
386970
384290
381650
379048
376479
373940
371429
368944
366484
364046
361629
359232
356854
354494
352151
349824
347513
345217
342935
340667
338412
336170
333940
331722
329516
327320
325135
322960
320795
318639
316492
314354
312225
310105
307993
305889
303794
301707
299629
297558
295495
293440
291393
289353
287321
285297
283279
281269
279266
277270
275281
273299
271324
269355
267393
265437
263488
261545
259609
257680
255759
253847
251944
250051
248168
246294
244431
242576
240730
238892
237061
235237
233419
231608
229801
227999
226200
224406
222616
220831
219051
217279
215513
213755
212004
210261
208524
206793
205068
203350
201638
199932
198233
196540
194851
193170
191495
189829
188172
186524
184885
183257
181638
180030
178431
176844
175265
173696
172137
170588
169047
167515
165988
164468
162951
161440
159932
158429
156928
155434
153943
152458
150977
149503
148035
146576
145121
143676
142234
140800
139368
137943
136523
135112
133706
132311
130916
129535
128154
126781
125411
124049
122686
121333
119984
118644
117309
115984
114663
113352
112043
110744
109446
108156
106866
105582
104297
103020
101740
100467
99193.3
97927
96651.7
95388.1
94110.3
92845.2
91562.6
90293.9
89004.5
87728.7
86427
85137
83810.4
82493.5
81128.7
79767.7
78346.1
76920.7
75422.9
73903
72319.4
70679
68992.1
67238.7
65440.2
439503
434900
430520
426353
422390
418612
415000
411535
408199
404978
401858
398826
395873
392989
390166
387398
384680
382005
379370
376771
374206
371670
369163
366683
364226
361793
359381
356990
354617
352263
349926
347605
345300
343010
340734
338473
336224
333989
331765
329554
327353
325164
322985
320816
318657
316508
314368
312237
310115
308002
305898
303802
301714
299635
297564
295501
293446
291399
289360
287328
285303
283286
281275
279272
277276
275288
273305
271330
269360
267398
265441
263491
261547
259610
257681
255760
253848
251945
250052
248169
246297
244434
242580
240736
238898
237069
235246
233430
231620
229816
228016
226219
224425
222636
220851
219071
217299
215534
213777
212028
210286
208551
206822
205097
203380
201667
199961
198260
196565
194874
193190
191514
189846
188188
186540
184901
183272
181652
180044
178445
176856
175276
173707
172147
170598
169057
167526
165999
164478
162961
161449
159940
158436
156934
155438
153945
152459
150977
149502
148033
146574
145120
143674
142235
140799
139369
137944
136523
135112
133707
132312
130916
129535
128154
126780
125409
124045
122680
121325
119973
118630
117292
115964
114640
113324
112012
110708
109406
108111
106816
105524
104233
102946
101658
100374
99090.2
97810.2
96522.9
95242.5
93950.6
92665.9
91368.1
90076.5
88772.8
87474.9
86158.5
84845.1
83503.7
82161.7
80781.2
79395.9
77961
76514.6
75013.6
73478.3
71898.3
70257.1
68576.9
66839.2
65065.6
440325
435785
431438
427277
423299
419489
415834
412320
408931
405657
402484
399402
396401
393472
390608
387801
385047
382339
379674
377048
374458
371900
369372
366872
364399
361950
359524
357119
354735
352370
350023
347693
345380
343083
340800
338532
336278
334037
331808
329592
327387
325194
323011
320840
318678
316526
314384
312251
310128
308013
305908
303811
301723
299643
297571
295508
293453
291405
289365
287333
285308
283290
281280
279276
277280
275290
273307
271331
269361
267397
265440
263489
261545
259608
257678
255757
253846
251943
250050
248168
246295
244433
242581
240737
238901
237073
235252
233437
231630
229828
228030
226234
224441
222652
220867
219087
217315
215551
213795
212046
210305
208571
206843
205119
203402
201689
199982
198280
196582
194890
193204
191526
189858
188199
186550
184911
183282
181662
180053
178453
176863
175282
173712
172150
170600
169059
167527
166000
164479
162961
161448
159938
158433
156930
155433
153940
152453
150970
149494
148025
146565
145111
143667
142227
140793
139362
137937
136516
135105
133700
132305
130909
129527
128146
126770
125401
124034
122668
121310
119958
118609
117271
115938
114612
113290
111976
110667
109365
108062
106763
105463
104168
102872
101577
100283
98991.9
97697.5
96401.6
95103.8
93801.5
92498.1
91186.7
89876.5
88558.6
87242.9
85915.8
84582.6
83229.9
81866.9
80473.4
79069.7
77626.1
76164
74661.4
73113.2
71532.3
69891.8
68216.8
66494.3
64742.3
441049
436558
432241
428089
424102
420269
416581
413027
409595
406276
403058
399932
396889
393920
391018
388177
385390
382652
379959
377308
374694
372115
369568
367051
364561
362098
359658
357242
354846
352471
350115
347777
345457
343152
340863
338589
336329
334083
331850
329629
327421
325224
323039
320864
318700
316545
314401
312266
310141
308025
305918
303820
301731
299650
297578
295514
293457
291409
289369
287336
285310
283292
281280
279276
277279
275288
273304
271327
269356
267391
265434
263482
261538
259601
257672
255751
253840
251937
250045
248162
246290
244428
242577
240734
238899
237073
235254
233442
231637
229836
228039
226244
224451
222662
220877
219097
217325
215561
213805
212057
210317
208583
206855
205132
203414
201701
199993
198289
196590
194896
193210
191531
189862
188203
186554
184915
183286
181666
180057
178456
176864
175282
173709
172146
170594
169052
167520
165993
164471
162952
161438
159928
158422
156919
155421
153928
152440
150958
149481
148012
146552
145098
143653
142213
140778
139347
137923
136501
135091
133687
132288
130895
129511
128132
126753
125389
124017
122653
121289
119941
118584
117248
115906
114582
113252
111939
110621
109322
108008
106711
105400
104103
102797
101499
100194
98899.8
97590.9
96290.2
94976.4
93666.3
92346.5
91021.3
89698.1
88369.5
87039.7
85703.4
84351.4
82988.3
81607.9
80203.6
78785
77336.2
75858.2
74352.2
72793.1
71208.8
69572.3
67904.1
66197
64464
441685
437234
432942
428800
424808
420959
417245
413659
410192
406835
403579
400415
397335
394330
391395
388522
385706
382941
380223
377548
374913
372315
369750
367217
364712
362235
359784
357356
354951
352566
350202
347856
345529
343218
340923
338643
336378
334128
331890
329666
327454
325254
323065
320888
318721
316564
314418
312281
310154
308036
305928
303828
301738
299656
297582
295517
293460
291410
289369
287335
285309
283289
281277
279271
277273
275281
273296
271318
269346
267381
265423
263471
261527
259590
257662
255742
253830
251928
250036
248153
246281
244419
242568
240726
238893
237069
235252
233442
231639
229840
228044
226248
224455
222665
220879
219099
217327
215562
213806
212058
210318
208584
206857
205134
203416
201702
199993
198288
196588
194894
193207
191528
189859
188199
186551
184912
183283
181664
180053
178452
176860
175275
173700
172135
170581
169037
167504
165976
164454
162935
161420
159909
158403
156901
155404
153911
152423
150941
149465
147996
146534
145080
143634
142192
140758
139324
137902
136479
135068
133667
132265
130876
129488
128113
126733
125371
123993
122633
121265
119921
118556
117223
115871
114548
113209
111899
110573
109277
107951
106655
105335
104041
102724
101425
100110
98815.1
97491.8
96188.1
94860.8
93543.5
92211.4
90873.1
89541.8
88203.7
86859
85521.6
84149.6
82778.9
81381.5
79969.7
78536.4
77082.7
75589.2
74075.8
72510.9
70924.8
69294.3
67634.4
65942
64226
442241
437824
433553
429420
425425
421563
417830
414218
410722
407334
404046
400849
397737
394702
391737
388836
385994
383204
380464
377768
375114
372498
369917
367369
364852
362362
359899
357462
355047
352654
350282
347930
345595
343278
340978
338694
336425
334170
331929
329701
327485
325282
323091
320910
318741
316582
314433
312294
310165
308045
305935
303834
301742
299659
297584
295517
293458
291408
289365
287330
285302
283282
281268
279262
277262
275270
273284
271305
269333
267368
265410
263458
261514
259578
257650
255731
253820
251918
250025
248142
246269
244407
242556
240714
238883
237060
235246
233437
231636
229836
228040
226243
224450
222659
220873
219091
217319
215554
213798
212048
210308
208574
206847
205124
203406
201691
199981
198276
196577
194883
193197
191518
189849
188189
186542
184903
183274
181655
180045
178442
176849
175263
173687
172119
170563
169017
167481
165952
164429
162909
161395
159884
158378
156877
155381
153888
152402
150920
149443
147975
146512
145058
143610
142166
140732
139297
137874
136450
135042
133639
132235
130850
129462
128091
126711
125350
123969
122611
121241
119897
118528
117194
115836
114513
113168
111856
110527
109229
107898
106598
105273
103975
102653
101352
100030
98734
97399.7
96092
94754.2
93432
92090.2
90745.1
89403.3
88057.7
86704.8
85356.9
83969.5
82594.5
81183.3
79765.8
78321.7
76857.4
75351.7
73831.4
72264.6
70679.7
69055.7
67404.5
65725.6
64024.6
442725
438334
434081
429956
425960
422089
418340
414708
411188
407774
404459
401235
398096
395034
392043
389118
386252
383441
380681
377967
375295
372664
370068
367507
364977
362477
360005
357558
355135
352734
350355
347996
345656
343334
341029
338741
336467
334208
331964
329732
327514
325308
323113
320930
318758
316597
314446
312305
310173
308052
305940
303837
301743
299658
297581
295513
293454
291402
289358
287322
285293
283271
281256
279249
277249
275256
273270
271291
269318
267353
265395
263443
261500
259564
257638
255719
253808
251906
250013
248129
246256
244393
242541
240700
238869
237047
235234
233427
231625
229824
228027
226228
224435
222643
220857
219075
217303
215537
213780
212029
210289
208555
206828
205104
203386
201670
199961
198256
196558
194865
193180
191502
189834
188175
186527
184888
183260
181639
180030
178427
176833
175245
173669
172099
170542
168993
167455
165923
164398
162878
161364
159852
158348
156847
155353
153861
152376
150893
149417
147948
146485
145030
143580
142136
140701
139265
137842
136416
135009
133606
132204
130819
129436
128064
126684
125324
123945
122586
121219
119871
118499
117159
115802
114472
113124
111805
110479
109177
107842
106544
105215
103913
102585
101278
99950
98649.5
97309.6
95999.6
94656.2
93329.7
91980.9
90631.3
89281.5
87931.5
86565.4
85206.4
83815.5
82429.5
81011.9
79585.4
78134.2
76658
75145.2
73620.9
72054.1
70472
68853.6
67211
65544
63856.1
443141
438772
434533
430414
426417
422539
418778
415130
411591
408157
404819
401572
398410
395325
392313
389366
386480
383651
380873
378142
375456
372810
370203
367630
365090
362580
360098
357643
355213
352806
350421
348057
345711
343385
341075
338782
336505
334243
331995
329761
327539
325330
323133
320947
318773
316609
314455
312312
310179
308055
305941
303836
301741
299654
297576
295506
293445
291393
289347
287310
285280
283258
281243
279235
277234
275241
273254
271275
269303
267338
265380
263429
261486
259551
257625
255707
253797
251894
250000
248116
246242
244378
242525
240683
238851
237030
235216
233409
231605
229804
228005
226206
224412
222619
220833
219050
217279
215512
213754
212003
210264
208528
206802
205077
203359
201643
199935
198230
196533
194841
193158
191481
189815
188156
186508
184869
183241
181620
180010
178406
176812
175224
173646
172075
170517
168965
167425
165891
164365
162843
161329
159819
158315
156814
155320
153829
152344
150862
149386
147916
146453
144997
143548
142103
140667
139231
137807
136381
134976
133568
132172
130787
129409
128035
126657
125294
123921
122553
121196
119841
118468
117125
115767
114421
113076
111752
110426
109119
107788
106483
105159
103854
102518
101200
99873.1
98562.7
97223
95911
94562.3
93233.2
91881.1
90530
89173.2
87818.5
86445
85077.4
83681.1
82280.3
80863.7
79424.5
77970.6
76485.1
74970.1
73444
71878.3
70298.3
68684.8
67050.6
65393.4
63716.9
443494
439142
434913
430798
426800
422917
419147
415487
411933
408482
405127
401861
398680
395576
392545
389580
386677
383832
381039
378294
375595
372938
370319
367736
365187
362669
360180
357718
355282
352869
350479
348109
345759
343428
341115
338819
336538
334272
332021
329784
327560
325348
323149
320960
318783
316617
314461
312316
310180
308055
305939
303832
301735
299647
297568
295497
293435
291381
289335
287297
285267
283244
281228
279220
277219
275226
273239
271260
269287
267322
265365
263415
261472
259538
257613
255695
253785
251882
249987
248102
246227
244362
242508
240664
238832
237009
235194
233385
231579
229776
227976
226178
224383
222591
220803
219021
217249
215481
213723
211974
210234
208499
206772
205048
203329
201614
199907
198202
196507
194815
193134
191458
189792
188134
186486
184846
183218
181597
179987
178383
176788
175199
173621
172049
170490
168937
167395
165858
164331
162808
161294
159783
158279
156779
155285
153795
152311
150829
149354
147883
146421
144963
143513
142069
140632
139197
137772
136349
134941
133533
132142
130754
129379
128001
126629
125262
123892
122525
121167
119802
118439
117081
115724
114369
113032
111704
110376
109059
107731
106415
105100
103785
102452
101125
99803.4
98479.3
97145.1
95826.4
94477.8
93143.1
91791.8
90441
89082.1
87723.8
86339
84962.8
83561.9
82151.1
80735.5
79285.4
77832.6
76341.1
74826.3
73298.8
71734.3
70156
68547.3
66919.9
65270.4
63604
443787
439448
435225
431112
427113
423226
419449
415781
412216
408752
405382
402101
398904
395785
392739
389759
386843
383983
381178
378422
375712
373045
370417
367827
365270
362745
360249
357782
355340
352922
350527
348153
345800
343465
341148
338848
336565
334296
332043
329803
327576
325362
323160
320970
318791
316622
314464
312317
310180
308052
305935
303827
301728
299639
297559
295487
293424
291370
289324
287285
285254
283231
281215
279206
277205
275211
273224
271245
269273
267308
265351
263401
261459
259526
257601
255683
253773
251870
249975
248089
246213
244347
242491
240646
238812
236987
235169
233358
231550
229745
227943
226146
224351
222559
220771
218991
217217
215450
213692
211943
210203
208469
206742
205018
203300
201586
199877
198175
196479
194790
193108
191434
189768
188111
186462
184823
183193
181573
179961
178358
176762
175174
173595
172023
170463
168910
167366
165829
164299
162776
161259
159748
158242
156743
155248
153760
152276
150796
149321
147851
146388
144930
143480
142035
140598
139163
137739
136320
134911
133507
132115
130725
129348
127968
126600
125227
123862
122491
121137
119762
118399
117028
115682
114323
112990
111658
110328
109000
107676
106355
105043
103712
102393
101061
99736.5
98407.8
97079.2
95747.6
94404.4
93063.4
91713.8
90363
89004.2
87638
86249.8
84866.4
83458.7
82043.7
80626
79172.1
77718
76225.2
74711.7
73182.3
71619.2
70042
68437.7
66815.1
65171.8
63513.9
444021
439691
435471
431359
427359
423470
419689
416014
412441
408967
405586
402294
399084
395953
392894
389903
386975
384106
381290
378525
375807
373132
370497
367899
365336
362806
360305
357833
355386
352964
350566
348188
345831
343494
341174
338872
336585
334315
332059
329817
327588
325372
323168
320976
318795
316625
314465
312316
310178
308049
305930
303821
301722
299632
297551
295478
293415
291360
289313
287274
285243
283219
281203
279194
277193
275198
273212
271232
269260
267295
265338
263389
261447
259514
257589
255672
253762
251859
249964
248077
246200
244333
242477
240630
238793
236965
235144
233331
231520
229715
227912
226114
224318
222527
220740
218961
217186
215421
213662
211915
210174
208441
206713
204991
203272
201560
199851
198150
196454
194767
193085
191413
189746
188090
186439
184800
183169
181550
179936
178334
176737
175150
173570
172000
170439
168887
167340
165803
164270
162746
161227
159715
158207
156709
155213
153726
152242
150764
149289
147820
146356
144899
143449
142004
140566
139134
137710
136296
134886
133482
132090
130696
129315
127935
126567
125189
123827
122455
121097
119715
118358
116990
115651
114279
112950
111608
110277
108947
107626
106297
104984
103650
102336
100999
99678.4
98350.2
97021.7
95682
94344.6
92994
91648.8
90295.9
88940.9
87562.6
86176.3
84783.3
83375.9
81959.3
80537.7
79084.1
77627.3
76137.3
74623.9
73092.2
71530.3
69953.4
68352.2
66733.2
65095.5
63443.8
444195
439872
435653
431541
427542
423651
419867
416187
412609
409127
405738
402437
399219
396079
393011
390011
387075
384198
381375
378603
375878
373197
370556
367954
365386
362851
360347
357871
355421
352996
350594
348214
345855
343515
341193
338889
336600
334328
332070
329826
327596
325378
323173
320980
318798
316626
314466
312316
310176
308046
305927
303817
301717
299626
297545
295472
293408
291352
289305
287266
285234
283210
281194
279185
277183
275188
273201
271221
269249
267285
265328
263379
261438
259505
257580
255663
253753
251850
249954
248068
246190
244323
242465
240617
238777
236947
235123
233307
231494
229689
227885
226088
224291
222502
220714
218937
217161
215398
213638
211892
210149
208418
206688
204968
203248
201538
199829
198130
196434
194749
193066
191395
189727
188072
186419
184781
183148
181529
179915
178314
176716
175132
173551
171983
170420
168869
167321
165783
164249
162725
161201
159689
158178
156679
155181
153696
152211
150736
149261
147795
146330
144875
143422
141979
140540
139111
137687
136274
134861
133459
132062
130667
129283
127901
126532
125152
123791
122417
121057
119681
118328
116953
115615
114243
112914
111563
110237
108902
107581
106251
104937
103601
102287
100949
99633.7
98301
96975.7
95633.2
94297.3
92941.8
91600.8
90241.8
88885.6
87500.7
86119.6
84719.4
83315.3
81895.9
80471.6
79023.5
77561.6
76075.8
74560.4
73028.2
71465.9
69889
68290.3
66673.7
65039.6
63392.1
444307
439988
435773
431663
427664
423772
419986
416303
412720
409234
405840
402533
399309
396163
393089
390084
387142
384259
381431
378655
375926
373240
370596
367990
365420
362882
360375
357896
355444
353017
350613
348231
345870
343529
341205
338899
336610
334336
332077
329832
327601
325382
323176
320982
318799
316627
314466
312315
310175
308045
305925
303815
301714
299623
297541
295468
293403
291347
289300
287260
285228
283204
281187
279177
277175
275180
273193
271213
269241
267276
265319
263370
261430
259497
257572
255655
253745
251842
249947
248061
246184
244316
242456
240606
238766
236934
235106
233288
231473
229669
227864
226069
224271
222484
220695
218919
217143
215381
213621
211876
210131
208402
206670
204952
203231
201523
199813
198116
196419
194736
193053
191382