/*--------------------------------*- C++ -*----------------------------------*\
| =========                 |                                                 |
| \\      /  F ield         | OpenFOAM: The Open Source CFD Toolbox           |
|  \\    /   O peration     | Version:  2.4.0                                 |
|   \\  /    A nd           | Web:      www.OpenFOAM.org                      |
|    \\/     M anipulation  |                                                 |
\*---------------------------------------------------------------------------*/
FoamFile
{
    version     2.0;
    format      ascii;
    class       volScalarField;
    location    "0.57";
    object      k_0;
}
// * * * * * * * * * * * * * * * * * * * * * * * * * * * * * * * * * * * * * //

dimensions      [0 2 -2 0 0 0 0];

internalField   nonuniform List<scalar> 
8800
(
8.11832
10.2664
8.79476
6.81963
5.70952
4.96673
4.53431
4.13555
3.92218
3.66172
3.54826
3.36509
3.29851
3.15819
3.10153
2.98338
2.92014
2.80849
2.74246
2.5556
1.40372
4.35151
5.32042
5.28871
5.13217
4.8033
4.58174
4.27983
4.12533
3.8788
3.77506
3.5879
3.51914
3.37599
3.32739
3.21554
3.1731
3.08118
3.00838
2.96671
0.0843739
0.730098
1.56352
1.94372
2.27913
2.43291
2.57695
2.59978
2.62405
2.59934
2.58857
2.54267
2.52393
2.47242
2.45897
2.41366
2.40372
2.36851
2.35025
2.30916
0.00335316
0.0697316
0.258056
0.420314
0.587683
0.699927
0.834257
0.930938
1.02617
1.08876
1.16637
1.21115
1.26014
1.29806
1.33669
1.36972
1.39554
1.42853
1.46331
1.46603
0.000122886
0.00493424
0.0218206
0.0541675
0.0889281
0.125412
0.155707
0.211343
0.238887
0.287136
0.31549
0.363162
0.384514
0.431534
0.452529
0.501895
0.522901
0.573905
0.599456
0.656282
2.50397e-05
0.000308444
0.00144221
0.00452135
0.00733393
0.0130243
0.017019
0.0269198
0.0324059
0.0445411
0.0510238
0.0650324
0.0715309
0.0863883
0.0934846
0.109999
0.118601
0.138253
0.148128
0.174428
2.19236e-05
4.35454e-05
0.000118019
0.000341516
0.000517248
0.000900539
0.00120411
0.00204724
0.00254509
0.00384583
0.0046274
0.00651382
0.00743687
0.0097684
0.0108865
0.013729
0.0153897
0.0189252
0.0209605
0.0262567
2.12106e-05
3.08224e-05
4.33718e-05
7.23651e-05
9.31807e-05
0.000120859
0.000136571
0.000184173
0.000207718
0.000272647
0.000311919
0.000431148
0.000513267
0.00070441
0.000792903
0.000954859
0.00120145
0.00134934
0.00150334
0.00202512
2.06577e-05
2.82202e-05
4.7582e-05
5.90976e-05
6.0911e-05
6.69381e-05
7.34394e-05
8.3446e-05
8.9132e-05
8.88838e-05
8.8256e-05
8.78127e-05
9.70769e-05
0.000104953
0.000134816
0.000140654
0.000153326
0.000156235
0.00015777
0.000161778
2.0603e-05
2.72598e-05
4.45052e-05
5.48787e-05
5.57534e-05
6.0221e-05
6.69785e-05
7.22068e-05
7.52539e-05
7.60947e-05
7.56937e-05
7.27892e-05
7.15801e-05
7.21187e-05
7.37877e-05
8.49239e-05
8.82673e-05
9.26435e-05
9.07659e-05
9.09718e-05
2.0604e-05
2.68674e-05
3.83727e-05
5.75835e-05
6.66256e-05
6.76576e-05
6.56554e-05
6.51468e-05
6.56389e-05
6.91086e-05
7.34796e-05
7.74247e-05
7.80934e-05
7.7313e-05
7.71899e-05
7.78362e-05
7.86769e-05
8.04913e-05
8.2413e-05
8.82774e-05
2.07287e-05
2.80604e-05
4.75769e-05
5.78864e-05
6.21978e-05
6.60904e-05
7.00825e-05
8.02406e-05
8.42911e-05
8.94047e-05
9.02476e-05
9.52801e-05
9.53853e-05
0.000100025
0.000107755
0.000130775
0.00014081
0.000165502
0.000179673
0.000210478
2.1079e-05
3.15826e-05
4.52584e-05
7.50262e-05
8.78176e-05
0.000119373
0.000138202
0.00018184
0.000209834
0.000274018
0.000319468
0.000444115
0.000513017
0.00069089
0.000798329
0.00102576
0.00120244
0.00167161
0.00198856
0.00267265
2.16113e-05
4.29463e-05
0.000117532
0.00036748
0.000528915
0.000913389
0.00122614
0.00201351
0.00256565
0.00386803
0.0046556
0.00654964
0.00750017
0.00982696
0.0111395
0.0141664
0.0161097
0.0210575
0.0239999
0.0310485
2.49735e-05
0.000304819
0.00143258
0.0049057
0.00734897
0.0130233
0.0171862
0.0267335
0.0324442
0.0448334
0.0512521
0.0654516
0.0718626
0.0870657
0.0948428
0.112591
0.122388
0.146766
0.159704
0.19393
0.000123867
0.00490031
0.0216688
0.05843
0.0830745
0.127405
0.157705
0.209539
0.238921
0.28939
0.314712
0.364773
0.385555
0.433921
0.456642
0.507893
0.532564
0.594798
0.623433
0.695827
0.00336847
0.0693508
0.258409
0.422251
0.583338
0.702413
0.835132
0.931085
1.02417
1.09522
1.16078
1.21908
1.25273
1.31137
1.33619
1.38533
1.4065
1.46081
1.48163
1.52936
0.0845582
0.726091
1.56715
1.9404
2.28233
2.42867
2.58317
2.59695
2.62621
2.59874
2.58947
2.54172
2.52534
2.47604
2.46308
2.42063
2.4109
2.38341
2.37146
2.34031
1.40583
4.34732
5.32317
5.28646
5.13374
4.79634
4.59055
4.27437
4.13077
3.87043
3.77866
3.57647
3.52062
3.36415
3.32698
3.19814
3.16662
3.04345
3.00295
2.89864
8.11958
10.2613
8.80017
6.81169
5.71829
4.95712
4.54093
4.12809
3.92728
3.64911
3.55347
3.34464
3.29972
3.12716
3.09524
2.93056
2.89446
2.71025
2.64373
2.43001
1.76924
1.27114
0.989988
0.83409
0.751431
0.702438
0.667661
0.643534
0.622747
0.60936
0.595443
0.587096
0.57542
0.567695
0.555704
0.548472
0.537439
0.53222
0.52101
0.514008
0.499436
0.490758
0.473131
0.463378
0.448457
0.442663
0.434673
0.432965
0.429603
0.428811
0.427174
0.426004
0.423301
0.421222
0.417875
0.414676
0.41188
0.408262
0.406585
0.403348
0.401245
0.395209
0.390155
0.376687
0.366483
0.344089
0.333627
0.316486
0.310969
0.311434
0.31654
0.323485
0.338728
0.346293
0.361116
0.36802
0.374457
0.381202
0.385331
0.385302
0.380017
0.368376
0.339134
0.32454
0.291109
0.276321
0.24573
0.23902
0.225325
0.228704
0.227494
0.23509
0.238132
0.256588
0.265979
0.293402
0.300829
0.321482
0.318949
0.322976
0.3134
0.310006
0.303031
0.293492
0.298414
0.288152
0.296797
0.282174
0.292673
0.271847
0.281989
0.255631
0.260746
0.229955
0.234129
0.20434
0.211432
0.1862
0.20038
0.178718
0.200395
0.178455
0.20744
0.189669
0.228295
0.211541
0.240433
0.217697
0.225655
0.209074
0.203154
0.194844
0.175219
0.171166
0.156414
0.152408
0.140124
0.13718
0.126812
0.124311
0.115809
0.11402
0.108099
0.106795
0.101902
0.102212
0.103269
0.108406
0.114683
0.13243
0.162203
0.187828
0.200812
0.206209
0.213445
0.212994
0.210116
0.19786
0.178228
0.13769
0.095515
0.0611234
0.0435055
0.0309973
0.0258747
0.0212868
0.019917
0.017901
0.0174427
0.0162868
0.0159511
0.0150701
0.0147061
0.0138473
0.0133771
0.012783
0.0123824
0.0123821
0.0124357
0.012758
0.0131706
0.0144696
0.0154387
0.0169488
0.0176035
0.020786
0.0251069
0.0286232
0.0289814
0.0288851
0.028579
0.028241
0.0275093
0.0252307
0.0217581
0.0167563
0.0146956
0.0139391
0.0145546
0.0178126
0.0299231
0.0679221
0.0982991
0.147559
0.155078
0.183091
0.182634
0.18175
0.171174
0.137917
0.121107
0.0871791
0.0841984
0.0693279
0.0756841
0.0702873
0.0786307
0.090398
0.139468
0.45914
2.50387
2.0443
1.70706
1.46936
1.29453
1.16913
1.07177
1.00144
0.940533
0.895168
0.851496
0.819353
0.787177
0.763447
0.738831
0.721778
0.701976
0.689223
0.673738
0.664386
0.651017
0.641406
0.62951
0.619444
0.608505
0.597413
0.589208
0.578528
0.573892
0.564049
0.560808
0.553574
0.551084
0.54457
0.542468
0.536317
0.534426
0.527321
0.525477
0.517961
0.516331
0.508501
0.50656
0.497932
0.494511
0.482816
0.478455
0.466124
0.462119
0.451657
0.448803
0.442134
0.440922
0.438968
0.43895
0.440133
0.440742
0.445383
0.446133
0.452804
0.452792
0.457434
0.449841
0.449872
0.432653
0.425739
0.396519
0.388514
0.361798
0.359097
0.345978
0.349936
0.342254
0.351238
0.346592
0.360681
0.35886
0.374007
0.373963
0.383555
0.386028
0.385144
0.393334
0.384818
0.394181
0.378874
0.388763
0.368455
0.375835
0.354263
0.35789
0.337684
0.33898
0.321102
0.321639
0.305074
0.305559
0.28584
0.285453
0.253801
0.250491
0.217102
0.212041
0.188426
0.174671
0.169774
0.158743
0.166605
0.159464
0.17063
0.1613
0.170952
0.160028
0.161861
0.151922
0.150114
0.139526
0.137946
0.128545
0.127742
0.120551
0.120104
0.116239
0.119117
0.118951
0.125109
0.129528
0.148443
0.159555
0.186917
0.192722
0.206983
0.207173
0.207851
0.202405
0.190494
0.165019
0.124865
0.079722
0.0519174
0.0357478
0.0264132
0.0221118
0.0194418
0.0188804
0.0178403
0.0176357
0.0171991
0.0170315
0.0167104
0.0163953
0.0158109
0.0153926
0.014799
0.0143054
0.013866
0.0131986
0.0128755
0.0127907
0.0131345
0.0135968
0.0150789
0.0157514
0.0174879
0.0182658
0.0210463
0.0242775
0.0263156
0.0277683
0.0293594
0.0297359
0.0292456
0.0279049
0.0248367
0.0211219
0.0172293
0.0137763
0.0132064
0.0128827
0.0141512
0.0178174
0.0347451
0.0540779
0.0975124
0.121663
0.131355
0.152001
0.148034
0.153848
0.138054
0.13251
0.109554
0.104378
0.090163
0.0869803
0.0871936
0.0869249
0.0975222
0.108662
0.197664
2.06162
1.80708
1.59385
1.42864
1.29682
1.19125
1.10231
1.0294
0.967077
0.913714
0.869865
0.829318
0.79774
0.765254
0.740589
0.714365
0.695202
0.67453
0.660329
0.643236
0.632886
0.61692
0.608983
0.59357
0.587263
0.573907
0.569052
0.557799
0.55414
0.544409
0.541296
0.531948
0.529258
0.52095
0.519439
0.5132
0.512882
0.508132
0.508386
0.503458
0.503433
0.497664
0.496906
0.490428
0.488815
0.481044
0.478458
0.469868
0.466111
0.457318
0.452608
0.445932
0.438673
0.43722
0.430392
0.430675
0.427493
0.431864
0.429886
0.437872
0.437155
0.446813
0.444507
0.453797
0.448295
0.454702
0.444567
0.44765
0.434676
0.437486
0.423348
0.427525
0.413227
0.418205
0.405804
0.4095
0.401004
0.401867
0.398877
0.393979
0.395797
0.386594
0.388338
0.375316
0.374588
0.358
0.354031
0.338905
0.333767
0.323459
0.318312
0.319224
0.316124
0.320062
0.316492
0.3222
0.317666
0.323023
0.316417
0.317692
0.308725
0.297697
0.28454
0.263205
0.241554
0.218061
0.184993
0.178013
0.155559
0.155748
0.144137
0.145619
0.13685
0.136678
0.130545
0.130159
0.123976
0.123234
0.117984
0.117327
0.116
0.116601
0.117286
0.12172
0.126907
0.143803
0.154901
0.180091
0.185519
0.198351
0.197443
0.19681
0.186385
0.174192
0.145853
0.10847
0.0679968
0.0445568
0.0304006
0.0232984
0.0200228
0.0187753
0.018345
0.0184296
0.0189214
0.0197207
0.0217096
0.0224925
0.023946
0.0245323
0.0245261
0.0240788
0.0235881
0.0224264
0.0212398
0.0201903
0.0185549
0.017225
0.0159543
0.0156525
0.0155737
0.0158052
0.0165992
0.0178183
0.0184176
0.0209761
0.0235322
0.024373
0.0255735
0.0285303
0.0297116
0.0298741
0.0293853
0.028047
0.0237466
0.0189659
0.0150415
0.0128057
0.0127912
0.012894
0.0139005
0.0175705
0.0332178
0.0506305
0.103567
0.113001
0.144716
0.138919
0.144992
0.134474
0.129589
0.118254
0.107934
0.101849
0.0903726
0.0899232
0.0863057
0.0927599
0.0907036
0.107379
1.36302
1.24321
1.1267
1.03647
0.96277
0.899041
0.844904
0.794499
0.752754
0.711994
0.681029
0.648366
0.625501
0.59869
0.57941
0.555998
0.539995
0.519172
0.507744
0.489612
0.482173
0.467052
0.460475
0.446682
0.440763
0.427657
0.422793
0.412165
0.40886
0.401089
0.398965
0.39315
0.391171
0.384731
0.382383
0.375344
0.373738
0.368902
0.369178
0.368276
0.369722
0.369678
0.37075
0.369943
0.369772
0.367088
0.364157
0.358813
0.350935
0.347945
0.338161
0.334539
0.326111
0.324305
0.31529
0.314817
0.308863
0.312003
0.308603
0.315435
0.315118
0.326315
0.328362
0.347754
0.350572
0.371233
0.372144
0.387095
0.383504
0.396424
0.388989
0.399932
0.390673
0.397861
0.388855
0.391476
0.383443
0.38152
0.373792
0.368681
0.357405
0.350419
0.33312
0.324798
0.302845
0.294497
0.2708
0.264083
0.241085
0.236454
0.217534
0.216501
0.2061
0.210163
0.202802
0.21276
0.209412
0.223747
0.225821
0.246737
0.251023
0.271941
0.275672
0.289819
0.287141
0.289949
0.28287
0.267666
0.248142
0.228458
0.198889
0.180838
0.162389
0.1544
0.145016
0.140333
0.133713
0.132575
0.132866
0.13382
0.137556
0.147049
0.154658
0.171718
0.179686
0.193386
0.193681
0.196986
0.194519
0.191253
0.177561
0.163495
0.130989
0.0952172
0.0588922
0.038294
0.0260704
0.020361
0.0183452
0.0177486
0.0181205
0.0190025
0.0218026
0.0246457
0.0301754
0.0341507
0.0403614
0.042578
0.0461165
0.0469532
0.0467104
0.0452401
0.0433952
0.0401348
0.036397
0.034444
0.0311479
0.0278019
0.0247274
0.0218029
0.0198155
0.019194
0.0191988
0.0193014
0.0195164
0.0200281
0.0210193
0.0222328
0.0226925
0.0241003
0.0269409
0.0288358
0.0291328
0.0298845
0.0303812
0.0288078
0.0253269
0.017131
0.0154142
0.0151575
0.0164139
0.0185765
0.0295549
0.0352486
0.0665096
0.07823
0.115356
0.122456
0.128412
0.127141
0.122625
0.118588
0.108476
0.105725
0.0975385
0.095249
0.0882559
0.0887427
0.0856987
0.0882165
0.626304
0.589011
0.542612
0.505251
0.476817
0.452005
0.430576
0.41208
0.393421
0.377594
0.361613
0.347582
0.335907
0.324725
0.316515
0.305388
0.299733
0.286785
0.281276
0.269191
0.264127
0.254111
0.250015
0.242554
0.239164
0.232011
0.228609
0.220784
0.217958
0.212343
0.210266
0.208126
0.206821
0.206367
0.205938
0.204052
0.202733
0.198962
0.195467
0.193641
0.191533
0.191833
0.191522
0.192043
0.192088
0.192161
0.19092
0.190508
0.185917
0.184073
0.177339
0.174908
0.168309
0.166806
0.160992
0.161548
0.158044
0.160435
0.157862
0.161364
0.160389
0.166505
0.166267
0.176775
0.179214
0.19596
0.201165
0.222474
0.227156
0.247778
0.250199
0.264858
0.263867
0.272711
0.268557
0.273379
0.264958
0.266038
0.254339
0.253334
0.236548
0.233813
0.212888
0.208313
0.184707
0.178891
0.154014
0.148226
0.125219
0.12068
0.10337
0.103696
0.0952954
0.0993948
0.0940974
0.101897
0.0995716
0.110422
0.110735
0.126724
0.129732
0.158693
0.164615
0.203781
0.208621
0.243153
0.242844
0.258163
0.253002
0.258608
0.250553
0.250711
0.239469
0.23715
0.225364
0.223192
0.212885
0.213251
0.208946
0.212861
0.20978
0.214276
0.209955
0.212549
0.206918
0.205154
0.195082
0.186953
0.165936
0.140881
0.106299
0.0708099
0.0447913
0.0295772
0.0210926
0.0167497
0.0161619
0.0162051
0.0172862
0.0192788
0.0254557
0.0306916
0.0425536
0.051443
0.063928
0.0728245
0.0825944
0.0877383
0.0907119
0.0900417
0.0879016
0.0827168
0.0764629
0.0697043
0.062109
0.0558156
0.0502252
0.04486
0.0405879
0.0342141
0.0300759
0.0277921
0.026042
0.0236753
0.0224948
0.0215607
0.0215889
0.0221337
0.0226335
0.0228481
0.0230436
0.0237314
0.0252234
0.0265833
0.0301807
0.0306899
0.0367661
0.0313164
0.0321779
0.0252934
0.0256061
0.0221544
0.0254019
0.0263875
0.0317879
0.0438173
0.0526821
0.0780439
0.0847184
0.103155
0.103929
0.108742
0.104387
0.103503
0.0984447
0.0975013
0.0927498
0.0909926
0.0869849
0.0876293
0.170525
0.165463
0.156992
0.147461
0.142241
0.135267
0.131668
0.126465
0.123419
0.118778
0.116063
0.111998
0.109665
0.106739
0.10503
0.102651
0.10157
0.0987873
0.0973526
0.0942913
0.0925792
0.0895493
0.0870351
0.0857291
0.0828768
0.0816141
0.0796986
0.0776736
0.0757487
0.0743029
0.0722791
0.0719696
0.0712095
0.0715323
0.0717187
0.0721625
0.0730395
0.0734109
0.0731155
0.0727746
0.0696964
0.0689465
0.0672902
0.0672295
0.066785
0.0669063
0.0663817
0.0667721
0.0655933
0.0655804
0.0641144
0.0630597
0.0601784
0.0589949
0.0553836
0.0550631
0.0538407
0.05489
0.0548845
0.0560955
0.0565995
0.0587666
0.058922
0.0617028
0.0627784
0.0676976
0.0707136
0.0794653
0.0835337
0.094771
0.098314
0.107825
0.10929
0.113913
0.111928
0.113854
0.109344
0.110277
0.103334
0.103832
0.0943993
0.0945059
0.0841031
0.0833299
0.0721423
0.0709949
0.0605288
0.0592992
0.0504404
0.0490185
0.0417436
0.041675
0.0378059
0.0394339
0.0372851
0.0408745
0.040331
0.0460534
0.0463839
0.055701
0.0568201
0.0712694
0.0736587
0.0959994
0.100372
0.132437
0.139634
0.175705
0.182651
0.210467
0.21237
0.225411
0.222285
0.230531
0.226395
0.231873
0.227317
0.230259
0.224182
0.224449
0.216697
0.214343
0.202003
0.193353
0.168921
0.152328
0.11946
0.093181
0.0627291
0.0427328
0.028549
0.0200131
0.0154281
0.0132698
0.0134151
0.013923
0.0159793
0.0192
0.0287082
0.0368686
0.0573373
0.0698611
0.0970933
0.111605
0.136225
0.147638
0.163046
0.167623
0.167554
0.163817
0.157601
0.143996
0.133809
0.115298
0.104108
0.0867033
0.0765278
0.0657326
0.0573398
0.0489268
0.0424557
0.0391468
0.038022
0.0351342
0.0310582
0.0268551
0.0246095
0.0236615
0.0233815
0.0229006
0.0223824
0.0221006
0.0220053
0.0224346
0.0240514
0.0268912
0.033005
0.0326365
0.0345007
0.0339109
0.0340568
0.0291691
0.0258347
0.0252889
0.0267168
0.0302364
0.0348628
0.0459796
0.0512563
0.0649349
0.0687822
0.0796591
0.082116
0.0894119
0.0887906
0.0891526
0.0870069
0.0861963
0.0835653
0.0835481
0.0261054
0.025858
0.0253385
0.0245192
0.0240441
0.0232809
0.0229393
0.0224273
0.0220729
0.0216367
0.0213447
0.0208756
0.0205674
0.0202913
0.0200815
0.0199836
0.0199794
0.0199634
0.0199827
0.0199277
0.0196799
0.0194789
0.01873
0.0184612
0.0178875
0.0176742
0.0173141
0.0169216
0.0166562
0.0162913
0.0158966
0.0159127
0.0158312
0.0159946
0.0162243
0.0167052
0.0175183
0.0180546
0.0182494
0.0186052
0.0181705
0.0178903
0.0169384
0.0166348
0.0161813
0.0161906
0.0159083
0.0164298
0.0163797
0.0166988
0.0165558
0.0164399
0.0160392
0.0156462
0.0142118
0.0140697
0.0137589
0.0139268
0.0141774
0.0147137
0.0156878
0.0166198
0.0169289
0.0176
0.0179154
0.0182646
0.0193435
0.0201905
0.0221656
0.024336
0.0278924
0.0313116
0.0338259
0.0361457
0.0362066
0.0364544
0.0354836
0.035009
0.0322235
0.0316066
0.027886
0.0272742
0.0241971
0.0237517
0.0211837
0.0211666
0.0193878
0.0196803
0.0179285
0.0179829
0.0160008
0.0160202
0.0145036
0.015205
0.0144374
0.0161736
0.0160097
0.0193008
0.0198301
0.0257205
0.0266351
0.0345473
0.0357719
0.0468782
0.0491105
0.0638023
0.0676699
0.085196
0.0899167
0.109017
0.113909
0.132225
0.13612
0.149433
0.150651
0.153785
0.150691
0.148727
0.140885
0.134389
0.118177
0.108111
0.0864755
0.070511
0.0535955
0.0410783
0.0305014
0.0220451
0.0166477
0.0126998
0.0108039
0.0103227
0.0107832
0.0116802
0.0145954
0.0188587
0.030932
0.042232
0.0706746
0.0895565
0.133506
0.156702
0.203828
0.228972
0.261817
0.280699
0.297731
0.297024
0.293931
0.279984
0.26664
0.237783
0.221803
0.187301
0.167499
0.138755
0.117103
0.0975224
0.0828628
0.0678209
0.0577477
0.0492736
0.0449176
0.0427454
0.0399912
0.0350271
0.0298455
0.0260912
0.0248406
0.024163
0.0235487
0.0217082
0.0206779
0.0206174
0.0207965
0.0222872
0.0253615
0.0299366
0.0314398
0.0335659
0.0334974
0.0336655
0.0323297
0.0312068
0.0282341
0.0286097
0.0292822
0.0319325
0.0340109
0.0404682
0.0432472
0.0508605
0.0527791
0.058673
0.0607294
0.0669373
0.0686848
0.072986
0.0736449
0.0731974
0.00213281
0.00214606
0.00214855
0.0021337
0.00211429
0.00206767
0.00203992
0.00199943
0.00196179
0.00192198
0.00189948
0.00188212
0.00188229
0.00188308
0.00189851
0.00192435
0.00198895
0.00200875
0.00205234
0.00205488
0.00206052
0.002052
0.00200159
0.0019671
0.00188575
0.00183641
0.00181204
0.00176432
0.00176648
0.00175747
0.00175746
0.00177234
0.00178496
0.00182612
0.00195217
0.00200076
0.00220888
0.00233519
0.00238975
0.0025321
0.00246548
0.00245696
0.00234263
0.0022388
0.00216259
0.0021552
0.00207255
0.00221119
0.00224099
0.00242376
0.00241961
0.00243315
0.00238079
0.0023791
0.00221687
0.00225232
0.00220335
0.00231081
0.00242505
0.00272612
0.00306065
0.00342265
0.00353755
0.00364773
0.0036597
0.00366667
0.00372377
0.00382503
0.00409866
0.00480617
0.00599179
0.00781879
0.00904053
0.0103172
0.0105913
0.0106
0.0104498
0.00984393
0.0085731
0.00768805
0.00627978
0.00578726
0.00513878
0.00494186
0.00470832
0.00470376
0.00465573
0.0047497
0.00465717
0.00469618
0.00432763
0.00422745
0.00381405
0.00400242
0.00385625
0.00444503
0.00442174
0.00585957
0.00606927
0.00867917
0.0089829
0.0123509
0.0126733
0.0165636
0.0171937
0.0219751
0.0233162
0.0298442
0.0316582
0.0395886
0.0415944
0.0488056
0.0504166
0.0547582
0.0544275
0.0542214
0.0513635
0.0489039
0.0439349
0.0384957
0.0333367
0.0281543
0.0234031
0.0191454
0.0154681
0.0120926
0.0101655
0.00832245
0.00792272
0.00799832
0.00851125
0.00957577
0.0129503
0.0180174
0.0322365
0.0462775
0.0813523
0.107708
0.16858
0.204129
0.281898
0.321107
0.390094
0.416348
0.44639
0.446771
0.444398
0.433683
0.42339
0.400486
0.386753
0.355273
0.329808
0.287533
0.254131
0.210459
0.176823
0.142267
0.12024
0.0948896
0.0798075
0.0689825
0.0622684
0.0529897
0.0459678
0.0429373
0.0405207
0.033613
0.0297418
0.0262756
0.0247709
0.0221345
0.0213938
0.0206007
0.0206356
0.0210438
0.0239903
0.0265591
0.0299889
0.0322844
0.0341104
0.0353566
0.0347175
0.0347254
0.0330545
0.0309673
0.0296749
0.0302947
0.0307319
0.033565
0.0344741
0.0372814
0.0380199
0.0404982
0.0414759
0.0448586
0.0462598
0.0481422
0.0479793
0.0468802
0.000169698
0.000173336
0.000181662
0.000189089
0.000193383
0.00019458
0.000194651
0.000194426
0.000194472
0.000195265
0.000195617
0.000196457
0.000196848
0.000197233
0.000197225
0.000197317
0.000196983
0.000196658
0.000195404
0.000194486
0.000192177
0.000190347
0.000186305
0.000181798
0.000178243
0.000173008
0.000171538
0.000168625
0.000168653
0.000167949
0.000168562
0.000168724
0.000169651
0.000173954
0.000184272
0.00018748
0.00020516
0.000212558
0.000222669
0.000238948
0.000234944
0.000240339
0.000237607
0.000230092
0.00022901
0.000225018
0.000221499
0.000230544
0.000233497
0.000257163
0.000269386
0.000271735
0.00027008
0.000270328
0.00026176
0.000268857
0.000264429
0.000279003
0.000294797
0.000338138
0.000368209
0.000428547
0.000447559
0.000488649
0.000499183
0.00052914
0.000539409
0.000595974
0.000669942
0.000880143
0.00108551
0.00171131
0.00201916
0.00251071
0.00253151
0.0025872
0.00250061
0.00245631
0.00217812
0.00209051
0.00179173
0.00173332
0.00159146
0.00156452
0.00149528
0.00149003
0.00147388
0.00145648
0.00145425
0.00141686
0.00140431
0.00135205
0.00130505
0.00123069
0.00119427
0.00120181
0.0012168
0.00140953
0.00149012
0.00193422
0.00203307
0.00258314
0.00273878
0.00335238
0.00360503
0.0045524
0.00500383
0.00667174
0.00729968
0.00952197
0.0102037
0.0121708
0.0126209
0.0135787
0.0134824
0.0133851
0.0131165
0.0125465
0.012121
0.0112937
0.010589
0.00951812
0.00825844
0.00723451
0.00629802
0.00578572
0.00585382
0.00612289
0.00677068
0.00814575
0.0117429
0.017509
0.0330759
0.0493421
0.0904951
0.123709
0.200102
0.252158
0.358194
0.419576
0.494422
0.513427
0.533238
0.523768
0.519592
0.499862
0.488819
0.468205
0.453887
0.436779
0.428254
0.407094
0.394301
0.365175
0.344045
0.297962
0.25287
0.21112
0.176435
0.136018
0.108608
0.0876598
0.0817065
0.0714245
0.0608515
0.052594
0.0463208
0.039558
0.0359794
0.0303141
0.0264443
0.0229706
0.021945
0.0211955
0.0210046
0.020785
0.0210926
0.0223256
0.0237844
0.0275326
0.0337822
0.0390808
0.0415659
0.0419394
0.0399437
0.0385692
0.0366118
0.0325531
0.0322529
0.0337505
0.0333498
0.0333649
0.033727
0.0346669
0.0341867
0.0336869
0.0328952
0.0329899
0.0328839
0.0327198
9.05194e-05
9.05494e-05
9.16845e-05
9.5522e-05
9.60876e-05
9.60411e-05
9.58321e-05
9.55616e-05
9.55397e-05
9.57478e-05
9.59693e-05
9.6399e-05
9.77483e-05
9.88569e-05
0.000100247
0.00010121
0.000102083
0.000102853
0.000103224
0.000103314
0.000103301
0.000102438
0.000101746
0.000101152
0.000100426
0.000100106
9.96241e-05
9.89862e-05
9.85387e-05
9.73173e-05
9.67638e-05
9.55748e-05
9.4545e-05
9.44533e-05
9.40829e-05
9.39402e-05
9.45972e-05
9.48674e-05
9.58842e-05
9.62426e-05
9.61708e-05
9.70583e-05
9.69073e-05
9.66487e-05
9.684e-05
9.72261e-05
9.75791e-05
9.79174e-05
0.00010039
0.000101535
0.000103853
0.000105858
0.000106694
0.00010811
0.000109163
0.00011038
0.000110696
0.000111463
0.000112531
0.000113614
0.000115867
0.000121774
0.000125433
0.000131698
0.000141192
0.000148473
0.000158621
0.000177353
0.000194883
0.000231534
0.000263807
0.000345814
0.000377255
0.000477944
0.000473842
0.000523697
0.00050596
0.000556247
0.000542422
0.000593405
0.000584964
0.000628689
0.00063601
0.000701297
0.000720688
0.000787483
0.000830373
0.000892444
0.00100957
0.00107275
0.00119961
0.00123381
0.00131711
0.00133284
0.00140419
0.0014779
0.001559
0.00170044
0.00178372
0.00195094
0.00204216
0.00227467
0.00238088
0.00262623
0.00274333
0.00309082
0.00324732
0.00380255
0.00401065
0.0047717
0.00498194
0.00575628
0.00589836
0.00657225
0.00654665
0.00684822
0.00661284
0.00661306
0.00615325
0.00589504
0.00508222
0.00468837
0.0041021
0.00418668
0.0043134
0.00476371
0.00558898
0.00772719
0.0115871
0.0192181
0.0343887
0.0538987
0.0969447
0.138245
0.228519
0.295483
0.427672
0.495988
0.558234
0.567388
0.580061
0.568285
0.564103
0.536757
0.526349
0.49204
0.480003
0.459258
0.445313
0.43633
0.432664
0.418941
0.413553
0.395438
0.381912
0.353971
0.321579
0.270973
0.22735
0.18921
0.150484
0.113509
0.0967121
0.081934
0.073823
0.0613197
0.0504261
0.0435721
0.0384757
0.0331294
0.0298763
0.0257189
0.0247089
0.0230729
0.021309
0.0210982
0.0203989
0.0203797
0.0210159
0.0230962
0.0269777
0.0369875
0.0411519
0.0433997
0.0414501
0.040801
0.0397923
0.0362195
0.0364496
0.0376806
0.0372122
0.0366386
0.0368447
0.037656
0.0367719
0.0335848
0.0318372
0.0319376
0.0322653
0.0320536
8.95943e-05
9.08998e-05
9.46927e-05
9.89688e-05
0.000100841
0.000101851
0.00010222
0.000102698
0.000102522
0.000102169
0.000101229
0.000100007
9.96742e-05
9.9264e-05
9.94281e-05
0.000101147
0.000105395
0.000110626
0.000113902
0.000116263
0.000117363
0.000116816
0.000117142
0.000116714
0.000116766
0.000118852
0.000120216
0.000124525
0.000126365
0.000126096
0.000126985
0.000125882
0.00012635
0.000126048
0.000126551
0.000132308
0.000139674
0.000141754
0.000147119
0.000146643
0.000146283
0.000142185
0.000136379
0.000130972
0.000128765
0.000126648
0.000126633
0.00012687
0.0001306
0.000134095
0.000145377
0.000149393
0.000161477
0.000163877
0.000169113
0.000166637
0.000167464
0.000161431
0.000156207
0.000145489
0.000144221
0.00014246
0.000144649
0.00014619
0.000157846
0.000160766
0.000168433
0.000169181
0.000169361
0.000171387
0.000171274
0.000178647
0.000178759
0.000196124
0.00020251
0.000235809
0.000245943
0.000270805
0.000277121
0.000295133
0.000299536
0.000320419
0.000326802
0.000363187
0.000366988
0.000389994
0.000418946
0.000460829
0.000542799
0.000587056
0.000704156
0.000733456
0.000852025
0.000889215
0.000999256
0.00103114
0.00107356
0.00110614
0.0011437
0.00119569
0.00134069
0.00143096
0.0016265
0.00174001
0.00183317
0.00202239
0.00211297
0.00237854
0.00243965
0.00271903
0.00274129
0.00299621
0.00295834
0.00316531
0.00298648
0.00302217
0.00274903
0.00272064
0.00247387
0.00255979
0.00257848
0.00283805
0.00313136
0.0040139
0.00528213
0.00869849
0.0131912
0.024829
0.0377015
0.070311
0.100425
0.167541
0.238828
0.353494
0.475418
0.548129
0.597158
0.600749
0.612316
0.595637
0.588206
0.547154
0.524861
0.465412
0.448298
0.408694
0.404762
0.387639
0.393042
0.395194
0.396013
0.397255
0.401392
0.393615
0.387842
0.371314
0.355137
0.323831
0.278449
0.221606
0.189834
0.151245
0.117961
0.0937125
0.0803479
0.0659719
0.0599411
0.0542384
0.0466365
0.0406398
0.0336287
0.0289678
0.0271057
0.0253347
0.0251635
0.023402
0.0223806
0.020788
0.0208118
0.0226105
0.024541
0.0291768
0.0312957
0.0342456
0.0351037
0.0375838
0.0400449
0.0472651
0.0541963
0.0673559
0.0687029
0.065986
0.0644483
0.0631883
0.0587341
0.0453909
0.0426595
0.0415486
0.0418799
0.0418416
0.000223037
0.000229505
0.000246044
0.000265588
0.000290113
0.000308062
0.000321224
0.000333754
0.000337292
0.000336453
0.000334123
0.000329313
0.000329222
0.000328846
0.000337808
0.000382272
0.000429106
0.00049443
0.000528777
0.000558366
0.000567355
0.000564789
0.000565199
0.000559654
0.000559491
0.000572569
0.000581154
0.000621347
0.000634324
0.000646291
0.000652678
0.000643667
0.000647047
0.000644847
0.000654995
0.000716113
0.000766314
0.000802742
0.000822588
0.000821779
0.000817019
0.000772016
0.000724037
0.000665611
0.000635627
0.000596922
0.000590897
0.000590264
0.000620257
0.000668994
0.000789372
0.0008249
0.000924003
0.000937894
0.000958054
0.000944491
0.000929879
0.000854564
0.000817016
0.00074124
0.000725878
0.000702354
0.000703551
0.00069857
0.000702266
0.000697706
0.000699062
0.000688258
0.000669428
0.000625375
0.00061161
0.000600032
0.000603064
0.000606623
0.000629102
0.000651103
0.000695603
0.000729009
0.000763503
0.000784727
0.000808799
0.000821479
0.00084477
0.000858948
0.000882976
0.000914267
0.00094335
0.00107333
0.00123583
0.0013621
0.00149173
0.00150366
0.00152595
0.00148812
0.00147345
0.00136398
0.00130536
0.00113888
0.00106879
0.000909814
0.000887268
0.000831366
0.000842583
0.000833903
0.000838458
0.000859043
0.000856676
0.000873194
0.000853798
0.000856379
0.000832514
0.000834838
0.000817846
0.000845314
0.000853235
0.000920297
0.000979609
0.00119813
0.00142452
0.00203359
0.00267198
0.00448289
0.00663642
0.0120629
0.017826
0.0323012
0.0472129
0.0844612
0.118819
0.200378
0.268748
0.417763
0.504807
0.591947
0.607053
0.634433
0.627061
0.61179
0.578576
0.512844
0.474179
0.39361
0.380246
0.353935
0.356984
0.340838
0.355572
0.349172
0.372609
0.370428
0.382373
0.382828
0.380607
0.374781
0.37909
0.368249
0.355122
0.341296
0.307514
0.260394
0.218889
0.183891
0.148522
0.120661
0.0941923
0.0788743
0.0717548
0.066805
0.0575158
0.0496846
0.0418257
0.0374457
0.0318933
0.0276696
0.0263831
0.0240499
0.0222054
0.0218912
0.0217315
0.0225908
0.0229863
0.0227265
0.0229066
0.023227
0.0242268
0.0305353
0.036432
0.0523763
0.0592957
0.0756177
0.0795033
0.0806346
0.0924081
0.0969112
0.0961368
0.0893275
0.0926237
0.0950038
0.0975725
0.0996986
0.00290386
0.00304342
0.00324004
0.00339182
0.00347479
0.00352649
0.00357265
0.00361593
0.00362215
0.00363268
0.00365296
0.0036631
0.00373102
0.00381131
0.00403085
0.00441455
0.00468333
0.0050697
0.00520266
0.00536414
0.00544128
0.00544617
0.00546859
0.00545631
0.00545826
0.00556528
0.00561694
0.00578134
0.00584731
0.00592669
0.00599144
0.00598694
0.00601271
0.00601571
0.00606068
0.00625335
0.00639554
0.00652411
0.0065488
0.00654949
0.00653435
0.00638267
0.00624145
0.00588287
0.00574094
0.00549281
0.00540614
0.00539197
0.00541228
0.00565087
0.00612999
0.00634329
0.00679388
0.0068782
0.00696314
0.00693275
0.00673914
0.00624481
0.00595724
0.00552199
0.00537969
0.00521234
0.00518636
0.00516943
0.00515662
0.00513433
0.00511957
0.00504609
0.00489542
0.00458099
0.00437007
0.00420958
0.00415645
0.00414393
0.00421402
0.00432088
0.00462047
0.0049011
0.00512064
0.0053482
0.00547025
0.00551961
0.00562196
0.00567219
0.00567229
0.00570424
0.00573976
0.00611438
0.00662027
0.00694103
0.00711479
0.00710717
0.00707502
0.00687686
0.006623
0.00592131
0.00540044
0.00478285
0.00414993
0.00372006
0.00328615
0.0029652
0.0027144
0.00255808
0.00242913
0.0023738
0.00225858
0.00217624
0.00213048
0.00199821
0.00192797
0.00192776
0.00197363
0.00206368
0.00232862
0.00274508
0.00332398
0.00456015
0.00621614
0.00942482
0.0128539
0.0207709
0.029913
0.0483576
0.067366
0.109793
0.150865
0.245739
0.317569
0.471557
0.545341
0.617592
0.624564
0.647113
0.625712
0.609502
0.516748
0.469497
0.365223
0.354098
0.31501
0.331562