/*--------------------------------*- C++ -*----------------------------------*\
| =========                 |                                                 |
| \\      /  F ield         | OpenFOAM: The Open Source CFD Toolbox           |
|  \\    /   O peration     | Version:  2.4.0                                 |
|   \\  /    A nd           | Web:      www.OpenFOAM.org                      |
|    \\/     M anipulation  |                                                 |
\*---------------------------------------------------------------------------*/
FoamFile
{
    version     2.0;
    format      ascii;
    class       volScalarField;
    location    "0.57";
    object      nuSgs;
}
// * * * * * * * * * * * * * * * * * * * * * * * * * * * * * * * * * * * * * //

dimensions      [0 2 -1 0 0 0 0];

internalField   nonuniform List<scalar> 
8800
(
0.00133915
0.00150593
0.00139383
0.00122738
0.00112305
0.00104743
0.00100084
0.000955785
0.000930798
0.000899391
0.000885325
0.000862181
0.0008536
0.000835258
0.000827727
0.000811805
0.000803149
0.000787663
0.000778352
0.000751326
0.000556846
0.000980432
0.0010841
0.00108087
0.00106476
0.00103006
0.00100606
0.000972314
0.000954596
0.000925678
0.000913165
0.000890268
0.000881698
0.000863572
0.000857327
0.000842807
0.000837216
0.000825003
0.000815215
0.000809534
0.000136521
0.00040161
0.000587677
0.000655238
0.00070959
0.000733097
0.00075447
0.000757823
0.000761354
0.000757751
0.00075617
0.000749467
0.000746694
0.000739017
0.000737002
0.000730202
0.000728686
0.000723301
0.000720536
0.000714222
2.72156e-05
0.000124114
0.000238759
0.000304622
0.000360355
0.000393285
0.000429222
0.000453479
0.000476158
0.000490386
0.00050753
0.000517303
0.000527606
0.000535488
0.000543363
0.000550105
0.000555249
0.000561648
0.000568576
0.000569088
5.20966e-06
3.30112e-05
6.95015e-05
0.000109162
0.000140124
0.000166732
0.000185363
0.000216017
0.000229814
0.000251797
0.000263916
0.000283265
0.000291464
0.000308763
0.000316178
0.000332976
0.000339905
0.000356002
0.000363838
0.000380773
2.35102e-06
8.25428e-06
1.78515e-05
3.15274e-05
4.01897e-05
5.373e-05
6.13628e-05
7.7113e-05
8.46195e-05
9.91608e-05
0.000106126
0.000119843
0.000125697
0.000138154
0.000143726
0.000155889
0.000161882
0.000174779
0.000180843
0.000196288
2.2002e-06
3.10383e-06
5.10783e-06
8.66531e-06
1.06731e-05
1.41244e-05
1.63252e-05
2.12865e-05
2.37288e-05
2.91244e-05
3.19395e-05
3.79152e-05
4.05183e-05
4.64702e-05
4.90691e-05
5.50725e-05
5.83241e-05
6.46859e-05
6.80215e-05
7.61481e-05
2.16531e-06
2.61613e-06
3.09938e-06
3.98945e-06
4.5203e-06
5.16597e-06
5.49309e-06
6.38699e-06
6.78778e-06
7.77416e-06
8.30418e-06
9.72576e-06
1.06159e-05
1.24659e-05
1.32523e-05
1.45128e-05
1.63292e-05
1.73508e-05
1.82263e-05
2.10186e-05
2.13634e-06
2.49223e-06
3.23678e-06
3.6312e-06
3.67914e-06
3.83546e-06
4.01049e-06
4.28034e-06
4.44559e-06
4.44402e-06
4.43203e-06
4.41537e-06
4.62445e-06
4.80252e-06
5.44838e-06
5.57657e-06
5.83467e-06
5.89689e-06
5.92215e-06
5.97982e-06
2.13321e-06
2.45239e-06
3.13153e-06
3.49918e-06
3.52043e-06
3.63341e-06
3.83323e-06
3.98538e-06
4.07596e-06
4.10354e-06
4.09567e-06
4.02391e-06
3.98528e-06
3.99673e-06
4.03266e-06
4.31491e-06
4.41211e-06
4.5279e-06
4.48576e-06
4.48965e-06
2.1335e-06
2.43774e-06
2.90501e-06
3.55491e-06
3.83623e-06
3.87475e-06
3.81994e-06
3.80085e-06
3.80952e-06
3.89514e-06
4.01791e-06
4.1329e-06
4.15769e-06
4.14028e-06
4.13402e-06
4.14737e-06
4.16986e-06
4.21463e-06
4.26137e-06
4.41024e-06
2.13982e-06
2.4868e-06
3.24089e-06
3.58959e-06
3.71333e-06
3.82085e-06
3.92388e-06
4.19808e-06
4.31076e-06
4.44808e-06
4.4696e-06
4.59868e-06
4.60128e-06
4.69985e-06
4.86777e-06
5.3612e-06
5.572e-06
6.05383e-06
6.30925e-06
6.84545e-06
2.15792e-06
2.64198e-06
3.16586e-06
4.07583e-06
4.39904e-06
5.12093e-06
5.52107e-06
6.3465e-06
6.81996e-06
7.79004e-06
8.39853e-06
9.89218e-06
1.06351e-05
1.23459e-05
1.32857e-05
1.50757e-05
1.63068e-05
1.92161e-05
2.09559e-05
2.43474e-05
2.18498e-06
3.08012e-06
5.09277e-06
8.99869e-06
1.08047e-05
1.42139e-05
1.64766e-05
2.11056e-05
2.38152e-05
2.92212e-05
3.20469e-05
3.80262e-05
4.07037e-05
4.65971e-05
4.96221e-05
5.59664e-05
5.96576e-05
6.81802e-05
7.27975e-05
8.28417e-05
2.34874e-06
8.20681e-06
1.77792e-05
3.28889e-05
4.02877e-05
5.36598e-05
6.165e-05
7.68598e-05
8.46605e-05
9.94946e-05
0.000106369
0.000120251
0.000126012
0.000138679
0.000144751
0.000157727
0.000164423
0.000180033
0.000187818
0.000206998
5.2311e-06
3.29047e-05
6.91578e-05
0.000113536
0.000135528
0.000167761
0.00018669
0.00021513
0.00022976
0.000252807
0.000263596
0.000283916
0.000291879
0.000309578
0.000317594
0.000334968
0.000342985
0.000362453
0.000371096
0.000392089
2.72792e-05
0.000123783
0.000238833
0.000305404
0.000359039
0.000393879
0.000429522
0.000453509
0.000475677
0.000491842
0.000506336
0.000519012
0.000526041
0.000538182
0.000543285
0.000553208
0.000557405
0.000568049
0.000572094
0.000581285
0.000136676
0.000400518
0.000588335
0.000654705
0.000710068
0.000732444
0.000755393
0.000757413
0.000761668
0.000757661
0.000756312
0.000749326
0.000746897
0.00073955
0.000737622
0.000731252
0.000729773
0.000725591
0.000723785
0.000719046
0.00055729
0.00097995
0.00108438
0.00108064
0.00106491
0.00102934
0.00100699
0.000971714
0.000955236
0.00092465
0.000913629
0.000888833
0.000881874
0.000862065
0.000857275
0.000840513
0.000836371
0.000819938
0.000814455
0.000800177
0.00133927
0.00150555
0.00139426
0.00122667
0.0011239
0.00104645
0.00100154
0.000954943
0.000931404
0.000897829
0.00088599
0.000859536
0.00085376
0.000831149
0.000826881
0.000804572
0.000799618
0.000773765
0.000764175
0.000732609
0.000342389
0.000290244
0.000256148
0.000235116
0.000223156
0.000215763
0.000210355
0.000206529
0.00020317
0.000200975
0.000198663
0.000197262
0.000195286
0.000193963
0.000191901
0.000190648
0.000188719
0.000187803
0.000185823
0.000184574
0.000181945
0.000180357
0.000177096
0.000175259
0.000172433
0.000171311
0.000169772
0.000169438
0.000168786
0.000168625
0.000168306
0.000168077
0.000167552
0.000167131
0.000166468
0.000165805
0.00016524
0.000164477
0.00016413
0.000163433
0.000163002
0.000161744
0.0001607
0.000157892
0.000155733
0.000150881
0.000148565
0.000144716
0.000143441
0.000143555
0.000144737
0.000146341
0.000149788
0.00015148
0.000154704
0.000156253
0.000157582
0.000159053
0.000159991
0.000160048
0.000159047
0.000156794
0.000150535
0.000147212
0.000139373
0.000135713
0.000127741
0.00012585
0.000121942
0.000122736
0.000122355
0.000124234
0.000124918
0.000129413
0.000131795
0.000138442
0.000140247
0.000145041
0.00014455
0.000145486
0.000143472
0.000142634
0.00014126
0.00013883
0.00014028
0.000138022
0.000140478
0.000137086
0.000140061
0.000135114
0.000137891
0.000131529
0.000133074
0.000125241
0.000126415
0.000118142
0.000120031
0.000112404
0.000116373
0.000109674
0.000116061
0.000109377
0.000117978
0.000112562
0.00012349
0.000118811
0.000126738
0.000120602
0.000122865
0.000118277
0.000116519
0.000114131
0.000108236
0.000106974
0.000102233
0.00010089
9.66545e-05
9.56448e-05
9.19648e-05
9.10625e-05
8.78708e-05
8.7177e-05
8.4819e-05
8.43382e-05
8.23273e-05
8.23099e-05
8.25594e-05
8.44311e-05
8.65872e-05
9.20864e-05
0.00010179
0.000110339
0.000114579
0.000116243
0.000118539
0.000118532
0.000117915
0.000114846
0.000109697
9.72032e-05
8.15289e-05
6.51484e-05
5.47141e-05
4.60453e-05
4.19279e-05
3.802e-05
3.67406e-05
3.48615e-05
3.44226e-05
3.32899e-05
3.29348e-05
3.20137e-05
3.16362e-05
3.07177e-05
3.01673e-05
2.94895e-05
2.891e-05
2.88366e-05
2.88624e-05
2.91403e-05
2.95382e-05
3.08456e-05
3.18255e-05
3.35381e-05
3.41244e-05
3.63258e-05
4.00715e-05
4.33874e-05
4.38878e-05
4.38622e-05
4.35923e-05
4.33541e-05
4.28508e-05
4.1346e-05
3.87046e-05
3.40086e-05
3.1643e-05
3.05614e-05
3.10704e-05
3.38825e-05
4.34398e-05
6.5158e-05
8.00586e-05
9.89365e-05
0.000101858
0.000111938
0.000111954
0.000112095
0.000108773
9.74124e-05
9.08478e-05
7.65407e-05
7.50631e-05
6.77186e-05
7.07098e-05
6.78457e-05
7.19308e-05
7.6696e-05
9.5264e-05
0.000173522
0.000407335
0.000368034
0.00033633
0.000312059
0.000292922
0.000278385
0.000266522
0.000257608
0.000249643
0.000243543
0.000237549
0.000233014
0.000228419
0.000224942
0.000221283
0.000218709
0.000215694
0.000213718
0.000211301
0.000209818
0.00020772
0.000206158
0.000204249
0.000202585
0.000200825
0.000198954
0.000197624
0.000195793
0.00019504
0.00019336
0.000192797
0.000191538
0.00019111
0.000189978
0.000189613
0.000188527
0.000188205
0.000186958
0.000186638
0.000185289
0.000184997
0.000183572
0.000183213
0.000181625
0.000180995
0.000178836
0.000178019
0.000175718
0.000174958
0.00017299
0.000172435
0.000171174
0.000170911
0.00017055
0.000170522
0.000170761
0.000170853
0.000171765
0.000171903
0.000173198
0.000173184
0.000174154
0.000172719
0.000172801
0.000169606
0.000168294
0.000162483
0.000160785
0.000155069
0.00015438
0.000151354
0.000152138
0.000150387
0.000152256
0.000151197
0.000154162
0.000153801
0.000156922
0.000157027
0.000158835
0.000159632
0.000159279
0.000161108
0.00015927
0.000161487
0.000158265
0.000160517
0.000156297
0.000157929
0.000153428
0.000154205
0.000149933
0.000150194
0.000146304
0.000146382
0.000142819
0.000142919
0.000138586
0.000138621
0.000131168
0.000130303
0.000121311
0.000119911
0.000113053
0.000108508
0.000106796
0.000102913
0.000105403
0.00010301
0.000106636
0.000103647
0.000106764
0.000103313
0.000103876
0.000100644
0.000100061
9.64603e-05
9.5894e-05
9.25514e-05
9.22154e-05
8.95423e-05
8.92729e-05
8.76619e-05
8.86123e-05
8.84876e-05
9.05611e-05
9.19776e-05
9.79492e-05
0.00010151
0.000110055
0.000112013
0.000116375
0.000116625
0.000116987
0.00011568
0.000112637
0.000105404
9.28897e-05
7.43844e-05
6.00282e-05
4.96687e-05
4.25191e-05
3.8781e-05
3.63023e-05
3.57509e-05
3.47689e-05
3.458e-05
3.42066e-05
3.40746e-05
3.3785e-05
3.35491e-05
3.29167e-05
3.24911e-05
3.18113e-05
3.12418e-05
3.07713e-05
3.00113e-05
2.95259e-05
2.93271e-05
2.95817e-05
3.00082e-05
3.15204e-05
3.22203e-05
3.40027e-05
3.46987e-05
3.67545e-05
3.96735e-05
4.1586e-05
4.26458e-05
4.39618e-05
4.43847e-05
4.41275e-05
4.32465e-05
4.10602e-05
3.80224e-05
3.44213e-05
3.0651e-05
2.98697e-05
2.93192e-05
3.05826e-05
3.39456e-05
4.70848e-05
5.85737e-05
8.0156e-05
8.96797e-05
9.36867e-05
0.000101264
0.000100136
0.000102187
9.68767e-05
9.48037e-05
8.59104e-05
8.37457e-05
7.742e-05
7.59521e-05
7.58578e-05
7.5822e-05
8.01668e-05
8.46654e-05
0.000114382
0.000369637
0.000346044
0.000324962
0.000307669
0.000293142
0.000280982
0.000270309
0.000261201
0.00025319
0.000246059
0.00024009
0.000234398
0.000229911
0.000225203
0.000221551
0.000217605
0.000214654
0.000211424
0.000209189
0.000206442
0.000204808
0.000202189
0.000200919
0.000198326
0.000197264
0.000194974
0.000194143
0.000192204
0.000191583
0.000189916
0.000189397
0.000187793
0.000187325
0.000185834
0.000185555
0.000184396
0.000184331
0.000183462
0.00018352
0.000182643
0.000182661
0.000181641
0.000181505
0.000180317
0.000180013
0.000178572
0.000178079
0.000176496
0.000175769
0.000174143
0.000173175
0.000172022
0.000170455
0.000170196
0.000168872
0.000168912
0.000168199
0.00016906
0.000168626
0.000170184
0.000170024
0.000171916
0.000171464
0.000173287
0.000172254
0.000173538
0.000171637
0.000172277
0.000169788
0.000170372
0.000167607
0.000168436
0.000165616
0.000166541
0.000164114
0.000164739
0.000163117
0.000163147
0.000162764
0.000161465
0.000161997
0.000160051
0.000160581
0.000157822
0.000157776
0.000154362
0.000153428
0.00015006
0.000148794
0.000146363
0.000144733
0.000144956
0.00014415
0.00014516
0.000144305
0.000145737
0.000144754
0.00014613
0.000144753
0.000145276
0.000143489
0.000141325
0.000138003
0.000133088
0.000127537
0.000121459
0.000111715
0.000109517
0.000102211
0.000102253
9.82655e-05
9.86466e-05
9.55828e-05
9.53942e-05
9.31794e-05
9.30619e-05
9.08103e-05
9.05294e-05
8.85314e-05
8.81402e-05
8.74715e-05
8.77253e-05
8.79016e-05
8.93535e-05
9.1039e-05
9.65583e-05
0.000100207
0.000108206
0.000110009
0.000114015
0.000113847
0.000113899
0.000111239
0.000107841
9.92682e-05
8.67828e-05
6.88204e-05
5.57e-05
4.58075e-05
3.98992e-05
3.68181e-05
3.56349e-05
3.51861e-05
3.52679e-05
3.57648e-05
3.6542e-05
3.84651e-05
3.92698e-05
4.06085e-05
4.11968e-05
4.12131e-05
4.08385e-05
4.03863e-05
3.93942e-05
3.82185e-05
3.7265e-05
3.57994e-05
3.44676e-05
3.30024e-05
3.24884e-05
3.23132e-05
3.24998e-05
3.30526e-05
3.43771e-05
3.48951e-05
3.67602e-05
3.92638e-05
4.00981e-05
4.08575e-05
4.314e-05
4.42215e-05
4.44422e-05
4.41412e-05
4.33384e-05
4.02044e-05
3.6081e-05
3.20564e-05
2.93847e-05
2.9217e-05
2.92878e-05
3.02458e-05
3.37735e-05
4.55016e-05
5.68847e-05
8.23302e-05
8.64173e-05
9.8469e-05
9.6636e-05
9.89612e-05
9.53959e-05
9.35889e-05
8.90287e-05
8.51046e-05
8.25254e-05
7.75908e-05
7.72788e-05
7.57297e-05
7.86556e-05
7.79046e-05
8.48939e-05
0.000300556
0.000287037
0.000273246
0.000262034
0.000252554
0.000244055
0.000236632
0.00022947
0.000223392
0.000217224
0.000212441
0.000207244
0.000203544
0.000199165
0.00019596
0.000191983
0.000189246
0.000185517
0.000183488
0.000180118
0.000178728
0.000175904
0.000174678
0.000172048
0.00017092
0.000168364
0.000167383
0.000165209
0.000164523
0.00016291
0.000162471
0.000161307
0.000160942
0.000159707
0.000159265
0.000157838
0.000157495
0.000156417
0.000156419
0.000156198
0.000156476
0.000156468
0.000156712
0.000156548
0.000156532
0.000156059
0.000155422
0.000154432
0.000152541
0.000151891
0.000149846
0.00014902
0.000146957
0.000146602
0.000144581
0.000144473
0.000143004
0.000143724
0.000142884
0.000144418
0.000144277
0.000146774
0.000147119
0.000151347
0.000151986
0.000156461
0.000156736
0.00015999
0.000159277
0.000162021
0.000160559
0.000162823
0.00016104
0.000162474
0.000160753
0.000161249
0.00015975
0.00015929
0.000157819
0.000156705
0.000154408
0.000152922
0.000149224
0.000147382
0.00014234
0.000140367
0.000134503
0.000132798
0.000126755
0.000125423
0.00012003
0.000119498
0.000116267
0.000117346
0.000115081
0.000117783
0.00011676
0.000120592
0.000121102
0.000126699
0.00012782
0.000133403
0.000134311
0.000138143
0.00013758
0.000138601
0.000136995
0.000134011
0.000128769
0.000124048
0.000115813
0.000110271
0.000104279
0.000101538
9.82491e-05
9.68234e-05
9.42585e-05
9.3683e-05
9.37374e-05
9.39775e-05
9.51497e-05
9.81315e-05
0.000100571
0.000105888
0.000108404
0.000112698
0.000112831
0.000113846
0.000113197
0.000112387
0.000108643
0.000104581
9.42612e-05
8.13721e-05
6.40583e-05
5.16222e-05
4.23554e-05
3.72528e-05
3.51226e-05
3.4505e-05
3.48497e-05
3.56702e-05
3.81815e-05
4.06457e-05
4.5283e-05
4.81009e-05
5.26174e-05
5.42249e-05
5.64344e-05
5.70461e-05
5.69206e-05
5.60737e-05
5.48597e-05
5.28483e-05
5.01123e-05
4.85982e-05
4.64029e-05
4.38437e-05
4.13673e-05
3.87915e-05
3.67422e-05
3.58492e-05
3.57779e-05
3.58423e-05
3.60212e-05
3.63965e-05
3.72076e-05
3.83343e-05
3.87012e-05
3.96236e-05
4.18776e-05
4.35791e-05
4.38545e-05
4.43498e-05
4.48234e-05
4.37429e-05
4.14171e-05
3.41529e-05
3.21474e-05
3.17469e-05
3.29171e-05
3.48755e-05
4.4011e-05
4.80892e-05
6.64499e-05
7.21088e-05
8.81464e-05
9.06632e-05
9.306e-05
9.25185e-05
9.07731e-05
8.9173e-05
8.51965e-05
8.40713e-05
8.07009e-05
7.97492e-05
7.67299e-05
7.70078e-05
7.56025e-05
7.67004e-05
0.000203741
0.000197553
0.000189663
0.00018295
0.00017769
0.000173038
0.000168883
0.000165254
0.000161517
0.000158231
0.000154883
0.000151768
0.000149164
0.000146565
0.000144761
0.00014212
0.000140895
0.000137943
0.000136595
0.000133701
0.000132415
0.000129833
0.000128725
0.000126748
0.000125863
0.00012398
0.000123111
0.000121026
0.000120195
0.000118592
0.000117892
0.000117275
0.000116851
0.000116695
0.00011665
0.000116241
0.000115959
0.000115112
0.000114023
0.000113508
0.000112736
0.000112769
0.000112653
0.000112759
0.00011273
0.000112777
0.000112384
0.000112334
0.000111092
0.00011058
0.00010859
0.000107818
0.000105655
0.000105186
0.000103204
0.000103368
0.000102192
0.000102986
0.000102207
0.000103363
0.000103009
0.00010502
0.000104876
0.000107959
0.000108587
0.000113334
0.000114805
0.000120807
0.000122143
0.000127783
0.000128555
0.000132563
0.000132466
0.000134775
0.000133856
0.000135178
0.000133178
0.000133533
0.000130581
0.000130415
0.000126086
0.000125414
0.000119764
0.000118519
0.000111686
0.000109967
0.000102102
0.00010016
9.20501e-05
9.02564e-05
8.29912e-05
8.27335e-05
7.90532e-05
8.05166e-05
7.81756e-05
8.11964e-05
8.02084e-05
8.44143e-05
8.44692e-05
9.02757e-05
9.12324e-05
0.000100805
0.00010268
0.000114675
0.000116119
0.000126007
0.000126148
0.000130374
0.000129124
0.000130681
0.000128635
0.000128794
0.000125969
0.000125383
0.000122235
0.000121664
0.000118761
0.000118762
0.000117472
0.000118492
0.000117572
0.000118816
0.000117634
0.000118366
0.000116835
0.000116403
0.000113631
0.00011135
0.000105419
9.73067e-05
8.51373e-05
6.99542e-05
5.56345e-05
4.5133e-05
3.79291e-05
3.36007e-05
3.28538e-05
3.28937e-05
3.39046e-05
3.57687e-05
4.10505e-05
4.51666e-05
5.33141e-05
5.88497e-05
6.60182e-05
7.04376e-05
7.53031e-05
7.77964e-05
7.92216e-05
7.89713e-05
7.80853e-05
7.58363e-05
7.28713e-05
6.94943e-05
6.55548e-05
6.19188e-05
5.87025e-05
5.53769e-05
5.29146e-05
4.87687e-05
4.53534e-05
4.33086e-05
4.1923e-05
3.99066e-05
3.89e-05
3.79049e-05
3.78626e-05
3.82023e-05
3.86752e-05
3.88926e-05
3.90347e-05
3.95834e-05
4.07264e-05
4.17701e-05
4.44598e-05
4.48122e-05
4.93238e-05
4.57278e-05
4.65371e-05
4.12143e-05
4.16759e-05
3.86711e-05
4.15061e-05
4.2136e-05
4.61792e-05
5.41093e-05
5.95446e-05
7.24143e-05
7.5469e-05
8.33142e-05
8.35859e-05
8.5427e-05
8.3642e-05
8.32343e-05
8.10749e-05
8.07133e-05
7.87853e-05
7.81234e-05
7.60667e-05
7.61918e-05
0.000106309
0.000104675
0.000102055
9.88094e-05
9.7035e-05
9.46464e-05
9.3397e-05
9.15562e-05
9.04831e-05
8.87696e-05
8.77363e-05
8.61794e-05
8.52226e-05
8.40408e-05
8.33383e-05
8.23377e-05
8.19112e-05
8.08822e-05
8.03145e-05
7.90903e-05
7.83912e-05
7.71955e-05
7.59651e-05
7.54282e-05
7.41747e-05
7.35315e-05
7.27184e-05
7.18136e-05
7.08785e-05
7.02581e-05
6.91693e-05
6.89853e-05
6.85401e-05
6.86461e-05
6.8739e-05
6.89043e-05
6.93565e-05
6.96502e-05
6.95786e-05
6.96119e-05
6.83894e-05
6.79409e-05
6.69473e-05
6.682e-05
6.65404e-05
6.65719e-05
6.62269e-05
6.6422e-05
6.58249e-05
6.58068e-05
6.51853e-05
6.46997e-05
6.32629e-05
6.26908e-05
6.0712e-05
6.04308e-05
5.95895e-05
6.01004e-05
6.01203e-05
6.07803e-05
6.10444e-05
6.23833e-05
6.2501e-05
6.3915e-05
6.44302e-05
6.66942e-05
6.80611e-05
7.20208e-05
7.38088e-05
7.87004e-05
8.02707e-05
8.44126e-05
8.51205e-05
8.73641e-05
8.66789e-05
8.76096e-05
8.58728e-05
8.63799e-05
8.3583e-05
8.39029e-05
7.99782e-05
8.00632e-05
7.55425e-05
7.52329e-05
6.99927e-05
6.94395e-05
6.41012e-05
6.34219e-05
5.85502e-05
5.77194e-05
5.31482e-05
5.28318e-05
5.01796e-05
5.10279e-05
4.94733e-05
5.15708e-05
5.11077e-05
5.45296e-05
5.46523e-05
5.98404e-05
6.04343e-05
6.76341e-05
6.87561e-05
7.8467e-05
8.02585e-05
9.20556e-05
9.4659e-05
0.000106347
0.000108694
0.000117104
0.000117846
0.000121716
0.000120895
0.00012311
0.000122016
0.000123465
0.000122278
0.000123071
0.000121477
0.000121588
0.000119508
0.000118916
0.000115613
0.000113244
0.000106063
0.000101072
8.95952e-05
7.9626e-05
6.54819e-05
5.41232e-05
4.422e-05
3.69394e-05
3.22803e-05
2.97093e-05
2.98393e-05
3.03391e-05
3.23862e-05
3.5439e-05
4.33224e-05
4.92209e-05
6.16234e-05
6.82621e-05
8.07588e-05
8.69196e-05
9.63255e-05
0.000100477
0.000105837
0.000107552
0.000107564
0.000106464
0.000104502
9.9789e-05
9.64159e-05
8.93788e-05
8.49006e-05
7.75141e-05
7.24693e-05
6.71353e-05
6.27461e-05
5.80526e-05
5.37944e-05
5.11957e-05
5.04047e-05
4.87298e-05
4.59526e-05
4.26212e-05
4.05943e-05
3.96556e-05
3.94045e-05
3.90057e-05
3.8563e-05
3.83191e-05
3.82214e-05
3.85566e-05
3.97438e-05
4.18286e-05
4.66457e-05
4.64328e-05
4.77307e-05
4.72594e-05
4.74892e-05
4.45885e-05
4.17274e-05
4.10746e-05
4.22088e-05
4.4874e-05
4.83422e-05
5.57733e-05
5.88462e-05
6.62385e-05
6.81056e-05
7.3221e-05
7.42429e-05
7.7371e-05
7.7077e-05
7.72343e-05
7.62957e-05
7.59453e-05
7.45901e-05
7.44135e-05
4.15883e-05
4.13876e-05
4.09848e-05
4.02761e-05
3.98931e-05
3.92589e-05
3.89726e-05
3.856e-05
3.82713e-05
3.7887e-05
3.76412e-05
3.72318e-05
3.69292e-05
3.66639e-05
3.6442e-05
3.6312e-05
3.6299e-05
3.62775e-05
3.63023e-05
3.62901e-05
3.61141e-05
3.59817e-05
3.53659e-05
3.50853e-05
3.45016e-05
3.42613e-05
3.39404e-05
3.35302e-05
3.32654e-05
3.29542e-05
3.24502e-05
3.24436e-05
3.23407e-05
3.24431e-05
3.26461e-05
3.30011e-05
3.38093e-05
3.44759e-05
3.46567e-05
3.51491e-05
3.48749e-05
3.47065e-05
3.38393e-05
3.34569e-05
3.28385e-05
3.28316e-05
3.24727e-05
3.2877e-05
3.27956e-05
3.31042e-05
3.30268e-05
3.29624e-05
3.25923e-05
3.23948e-05
3.09268e-05
3.06174e-05
3.01274e-05
3.02306e-05
3.04663e-05
3.09176e-05
3.18895e-05
3.3054e-05
3.34288e-05
3.41795e-05
3.45731e-05
3.49007e-05
3.57989e-05
3.65597e-05
3.80715e-05
3.97279e-05
4.23809e-05
4.51438e-05
4.69999e-05
4.90666e-05
4.928e-05
4.95882e-05
4.90309e-05
4.88765e-05
4.69923e-05
4.66775e-05
4.39469e-05
4.34532e-05
4.08012e-05
4.03981e-05
3.79735e-05
3.78583e-05
3.61348e-05
3.63517e-05
3.47321e-05
3.4805e-05
3.29361e-05
3.29147e-05
3.12604e-05
3.18711e-05
3.09333e-05
3.26195e-05
3.23412e-05
3.53381e-05
3.57015e-05
4.06473e-05
4.14529e-05
4.73265e-05
4.82099e-05
5.50973e-05
5.6403e-05
6.40947e-05
6.60472e-05
7.40992e-05
7.62157e-05
8.39411e-05
8.59337e-05
9.26443e-05
9.41208e-05
9.87059e-05
9.92644e-05
0.000100592
9.96369e-05
9.90284e-05
9.65557e-05
9.44104e-05
8.87153e-05
8.49385e-05
7.63703e-05
6.90078e-05
6.0176e-05
5.27441e-05
4.54858e-05
3.87129e-05
3.35579e-05
2.92678e-05
2.68983e-05
2.60703e-05
2.66103e-05
2.76492e-05
3.07467e-05
3.49053e-05
4.46585e-05
5.23388e-05
6.80293e-05
7.68602e-05
9.4284e-05
0.000102477
0.000117199
0.000124531
0.000133756
0.000138606
0.000143079
0.000142975
0.000142297
0.000139065
0.000135794
0.00012811
0.000123672
0.000113957
0.000107434
9.80351e-05
8.98126e-05
8.18331e-05
7.54326e-05
6.82935e-05
6.28803e-05
5.779e-05
5.48325e-05
5.33841e-05
5.1945e-05
4.88636e-05
4.50116e-05
4.186e-05
4.06809e-05
4.00075e-05
3.96424e-05
3.81668e-05
3.71e-05
3.69852e-05
3.70846e-05
3.8169e-05
4.04769e-05
4.42651e-05
4.53838e-05
4.69662e-05
4.69874e-05
4.71837e-05
4.62202e-05
4.5444e-05
4.34119e-05
4.36959e-05
4.42368e-05
4.63225e-05
4.78317e-05
5.21431e-05
5.38831e-05
5.84891e-05
5.95834e-05
6.27989e-05
6.3801e-05
6.67758e-05
6.75856e-05
6.96179e-05
7.00739e-05
6.99744e-05
1.1864e-05
1.1916e-05
1.19318e-05
1.18935e-05
1.18416e-05
1.17196e-05
1.16426e-05
1.15396e-05
1.14385e-05
1.13189e-05
1.12431e-05
1.11731e-05
1.11671e-05
1.11617e-05
1.11886e-05
1.12382e-05
1.14254e-05
1.14889e-05
1.16344e-05
1.16558e-05
1.16837e-05
1.16817e-05
1.15688e-05
1.1481e-05
1.12605e-05
1.10753e-05
1.10112e-05
1.0833e-05
1.08277e-05
1.07997e-05
1.0789e-05
1.08264e-05
1.08568e-05
1.09258e-05
1.12884e-05
1.14314e-05
1.19234e-05
1.23909e-05
1.25184e-05
1.29822e-05
1.28654e-05
1.2879e-05
1.26644e-05
1.23484e-05
1.20461e-05
1.20498e-05
1.17738e-05
1.2065e-05
1.20816e-05
1.25595e-05
1.2614e-05
1.26819e-05
1.2562e-05
1.26076e-05
1.22114e-05
1.22675e-05
1.2104e-05
1.2293e-05
1.25339e-05
1.32117e-05
1.39969e-05
1.4997e-05
1.53523e-05
1.56935e-05
1.57917e-05
1.58115e-05
1.5933e-05
1.60805e-05
1.65087e-05
1.74852e-05
1.92268e-05
2.21627e-05
2.39608e-05
2.59823e-05
2.66043e-05
2.67122e-05
2.66157e-05
2.61653e-05
2.44784e-05
2.33888e-05
2.10246e-05
2.00734e-05
1.87534e-05
1.82928e-05
1.77436e-05
1.76872e-05
1.75833e-05
1.77482e-05
1.76145e-05
1.77374e-05
1.71787e-05
1.705e-05
1.61292e-05
1.64485e-05
1.60961e-05
1.7216e-05
1.70931e-05
1.95106e-05
1.98011e-05
2.37493e-05
2.42187e-05
2.85285e-05
2.89311e-05
3.30464e-05
3.36431e-05
3.78946e-05
3.89747e-05
4.40292e-05
4.53435e-05
5.06597e-05
5.20118e-05
5.63638e-05
5.73802e-05
6.0018e-05
5.99666e-05
5.99732e-05
5.85445e-05
5.71526e-05
5.42728e-05
5.08678e-05
4.72886e-05
4.35508e-05
3.96648e-05
3.59061e-05
3.23185e-05
2.85543e-05
2.61436e-05
2.36203e-05
2.28871e-05
2.29796e-05
2.36477e-05
2.49593e-05
2.87683e-05
3.38785e-05
4.52625e-05
5.44424e-05
7.24993e-05
8.37718e-05
0.000105412
0.000116375
0.000137316
0.000147084
0.000162113
0.00016777
0.00017354
0.000173416
0.000172895
0.00017073
0.000168693
0.000164164
0.000161473
0.000155293
0.000149905
0.000140287
0.000132005
0.00012036
0.000110321
9.8674e-05
9.05933e-05
8.06537e-05
7.35704e-05
6.80716e-05
6.45599e-05
5.98233e-05
5.5649e-05
5.34115e-05
5.21236e-05
4.77979e-05
4.47237e-05
4.19115e-05
4.07964e-05
3.84984e-05
3.77455e-05
3.69624e-05
3.69882e-05
3.72035e-05
3.94496e-05
4.17014e-05
4.44422e-05
4.60487e-05
4.73435e-05
4.82972e-05
4.78816e-05
4.79085e-05
4.68305e-05
4.52713e-05
4.43424e-05
4.48204e-05
4.51071e-05
4.70967e-05
4.77899e-05
4.99165e-05
5.04448e-05
5.20732e-05
5.26312e-05
5.46661e-05
5.56563e-05
5.70427e-05
5.70995e-05
5.64853e-05
3.33734e-06
3.37445e-06
3.45569e-06
3.52828e-06
3.5697e-06
3.58533e-06
3.58794e-06
3.58779e-06
3.588e-06
3.59431e-06
3.59724e-06
3.60479e-06
3.60931e-06
3.61361e-06
3.61415e-06
3.61542e-06
3.61386e-06
3.61242e-06
3.60379e-06
3.59655e-06
3.57766e-06
3.56247e-06
3.53118e-06
3.48751e-06
3.45625e-06
3.40054e-06
3.38506e-06
3.34966e-06
3.34829e-06
3.33998e-06
3.34641e-06
3.34703e-06
3.35408e-06
3.37324e-06
3.47824e-06
3.51055e-06
3.65357e-06
3.73682e-06
3.80966e-06
4.00007e-06
3.9707e-06
4.01586e-06
4.01088e-06
3.93856e-06
3.91972e-06
3.90022e-06
3.85408e-06
3.91867e-06
3.92398e-06
4.06582e-06
4.19877e-06
4.23921e-06
4.23108e-06
4.24461e-06
4.17977e-06
4.23557e-06
4.19599e-06
4.27636e-06
4.37969e-06
4.67774e-06
4.89501e-06
5.34622e-06
5.50035e-06
5.78089e-06
5.85851e-06
6.05344e-06
6.11054e-06
6.36614e-06
6.66684e-06
7.52218e-06
8.22836e-06
1.02623e-05
1.12774e-05
1.29126e-05
1.31502e-05
1.33684e-05
1.32129e-05
1.31383e-05
1.24491e-05
1.22029e-05
1.12661e-05
1.10305e-05
1.0444e-05
1.03341e-05
1.00254e-05
9.96692e-06
9.89427e-06
9.81977e-06
9.81957e-06
9.72113e-06
9.69216e-06
9.54215e-06
9.41671e-06
9.13514e-06
8.96383e-06
8.96297e-06
8.98528e-06
9.58209e-06
9.82046e-06
1.12063e-05
1.14921e-05
1.29803e-05
1.33757e-05
1.48228e-05
1.53521e-05
1.72127e-05
1.79941e-05
2.07419e-05
2.16916e-05
2.47777e-05
2.57129e-05
2.8145e-05
2.87299e-05
2.99619e-05
2.98939e-05
2.9811e-05
2.95288e-05
2.88845e-05
2.83786e-05
2.74345e-05
2.65219e-05
2.53014e-05
2.35415e-05
2.20307e-05
2.05555e-05
1.95827e-05
1.96356e-05
2.00359e-05
2.10034e-05
2.29095e-05
2.73224e-05
3.32576e-05
4.5548e-05
5.58888e-05
7.6006e-05
8.92885e-05
0.00011416
0.000128695
0.0001541
0.000167278
0.000181699
0.000185136
0.000188708
0.000186959
0.000186157
0.000182593
0.000180443
0.000176599
0.000173717
0.000170303
0.000168706
0.000164657
0.00016218
0.000156328
0.000151931
0.000142385
0.00013116
0.000119695
0.000109834
9.66136e-05
8.62048e-05
7.68569e-05
7.38952e-05
6.95064e-05
6.4067e-05
5.95645e-05
5.61601e-05
5.17187e-05
4.9321e-05
4.53471e-05
4.23566e-05
3.92749e-05
3.82054e-05
3.7383e-05
3.73968e-05
3.70796e-05
3.73666e-05
3.85757e-05
3.96758e-05
4.23707e-05
4.67689e-05
5.03246e-05
5.23039e-05
5.26441e-05
5.14986e-05
5.04118e-05
4.9362e-05
4.66033e-05
4.61188e-05
4.72442e-05
4.70655e-05
4.70868e-05
4.71996e-05
4.8048e-05
4.78417e-05
4.76132e-05
4.697e-05
4.70242e-05
4.69406e-05
4.67728e-05
2.45287e-06
2.45335e-06
2.46752e-06
2.51418e-06
2.52427e-06
2.5241e-06
2.52185e-06
2.51785e-06
2.51706e-06
2.51901e-06
2.52112e-06
2.52448e-06
2.53862e-06
2.55304e-06
2.5713e-06
2.58466e-06
2.5969e-06
2.60761e-06
2.61411e-06
2.61638e-06
2.61752e-06
2.61038e-06
2.60045e-06
2.59278e-06
2.5829e-06
2.57814e-06
2.57238e-06
2.56448e-06
2.5605e-06
2.5463e-06
2.53764e-06
2.52343e-06
2.50735e-06
2.50545e-06
2.4993e-06
2.49585e-06
2.50414e-06
2.50737e-06
2.51799e-06
2.52755e-06
2.52655e-06
2.53788e-06
2.538e-06
2.53355e-06
2.53635e-06
2.53776e-06
2.54285e-06
2.54856e-06
2.5758e-06
2.58918e-06
2.61806e-06
2.64518e-06
2.65615e-06
2.6711e-06
2.68966e-06
2.70689e-06
2.71246e-06
2.71733e-06
2.7373e-06
2.74556e-06
2.77588e-06
2.84599e-06
2.89703e-06
2.97809e-06
3.08351e-06
3.17447e-06
3.26373e-06
3.4458e-06
3.60999e-06
3.9164e-06
4.18282e-06
4.78593e-06
5.01571e-06
5.70128e-06
5.73191e-06
6.05106e-06
5.97801e-06
6.29267e-06
6.2018e-06
6.49805e-06
6.42997e-06
6.65571e-06
6.66979e-06
6.9761e-06
7.05228e-06
7.36247e-06
7.49491e-06
7.75187e-06
8.20296e-06
8.47579e-06
8.98567e-06
9.13428e-06
9.44568e-06
9.4881e-06
9.72156e-06
9.92715e-06
1.0205e-05
1.06057e-05
1.08539e-05
1.13202e-05
1.1562e-05
1.21977e-05
1.24995e-05
1.31673e-05
1.34417e-05
1.42384e-05
1.45689e-05
1.57255e-05
1.6143e-05
1.75912e-05
1.79929e-05
1.93648e-05
1.96255e-05
2.07569e-05
2.07538e-05
2.12477e-05
2.09212e-05
2.09541e-05
2.02875e-05
1.98982e-05
1.85166e-05
1.78301e-05
1.65303e-05
1.66343e-05
1.68518e-05
1.76246e-05
1.89933e-05
2.21604e-05
2.69024e-05
3.46815e-05
4.65021e-05
5.83811e-05
7.82772e-05
9.39602e-05
0.0001213
0.000138663
0.000167608
0.00018129
0.000192597
0.000194274
0.000196468
0.000194443
0.000193753
0.000188883
0.00018695
0.000180504
0.000178026
0.000174108
0.000171299
0.000169552
0.000168934
0.000166425
0.000165455
0.00016202
0.000159342
0.000153866
0.000146969
0.000135336
0.000124078
0.000113348
0.000101586
8.79209e-05
8.09337e-05
7.44682e-05
7.0756e-05
6.48919e-05
5.87095e-05
5.42364e-05
5.10216e-05
4.7189e-05
4.48668e-05
4.15439e-05
4.05352e-05
3.92234e-05
3.77137e-05
3.7448e-05
3.68672e-05
3.68883e-05
3.73269e-05
3.87325e-05
4.17196e-05
4.86874e-05
5.18545e-05
5.38214e-05
5.2654e-05
5.2159e-05
5.15975e-05
4.90164e-05
4.87808e-05
4.95561e-05
4.93951e-05
4.89877e-05
4.90399e-05
4.97734e-05
4.95528e-05
4.77612e-05
4.61268e-05
4.59432e-05
4.61766e-05
4.60707e-05
2.43319e-06
2.45124e-06
2.50033e-06
2.55847e-06
2.58247e-06
2.59804e-06
2.60458e-06
2.61387e-06
2.61418e-06
2.61136e-06
2.60191e-06
2.58359e-06
2.57764e-06
2.56979e-06
2.5694e-06
2.57995e-06
2.62373e-06
2.69259e-06
2.73994e-06
2.77385e-06
2.7956e-06
2.79014e-06
2.79469e-06
2.78917e-06
2.78673e-06
2.80425e-06
2.81742e-06
2.86326e-06
2.89751e-06
2.89586e-06
2.90903e-06
2.8973e-06
2.89981e-06
2.89461e-06
2.89439e-06
2.93024e-06
3.02611e-06
3.05024e-06
3.12018e-06
3.12084e-06
3.12252e-06
3.09632e-06
3.03423e-06
2.96657e-06
2.9382e-06
2.90871e-06
2.90457e-06
2.90316e-06
2.93042e-06
2.96049e-06
3.07591e-06
3.12235e-06
3.25248e-06