/*--------------------------------*- C++ -*----------------------------------*\
| =========                 |                                                 |
| \\      /  F ield         | OpenFOAM: The Open Source CFD Toolbox           |
|  \\    /   O peration     | Version:  2.4.0                                 |
|   \\  /    A nd           | Web:      www.OpenFOAM.org                      |
|    \\/     M anipulation  |                                                 |
\*---------------------------------------------------------------------------*/
FoamFile
{
    version     2.0;
    format      ascii;
    class       surfaceScalarField;
    location    "0.57";
    object      phi_0;
}
// * * * * * * * * * * * * * * * * * * * * * * * * * * * * * * * * * * * * * //

dimensions      [0 3 -1 0 0 0 0];

internalField   nonuniform List<scalar> 
17320
(
1.76343e-05
7.36569e-06
1.16176e-05
6.01669e-06
8.68244e-06
2.93519e-06
7.35521e-06
1.32723e-06
6.71964e-06
6.35562e-07
6.3397e-06
3.79943e-07
6.08413e-06
2.55568e-07
5.86448e-06
2.19654e-07
5.70971e-06
1.54763e-07
5.58591e-06
1.238e-07
5.47988e-06
1.06031e-07
5.38295e-06
9.69359e-08
5.31591e-06
6.70351e-08
5.22229e-06
9.36211e-08
5.14429e-06
7.79997e-08
5.05369e-06
9.06059e-08
4.95577e-06
9.79166e-08
4.88608e-06
6.96883e-08
4.65023e-06
2.35855e-07
-4.55641e-07
5.10587e-06
2.54532e-05
6.91251e-06
2.3249e-05
8.22085e-06
2.09876e-05
5.19662e-06
1.93182e-05
2.99661e-06
1.80749e-05
1.87881e-06
1.71115e-05
1.34335e-06
1.63719e-05
9.95195e-07
1.57667e-05
8.24886e-07
1.53135e-05
6.07985e-07
1.49381e-05
4.99141e-07
1.46342e-05
4.09902e-07
1.43687e-05
3.62499e-07
1.41615e-05
2.74252e-07
1.39338e-05
3.21294e-07
1.37452e-05
2.66571e-07
1.35334e-05
3.02424e-07
1.33272e-05
3.04128e-07
1.31197e-05
2.77229e-07
1.29398e-05
4.15688e-07
-3.23449e-07
1.28076e-05
2.66095e-05
5.30297e-06
2.71595e-05
7.67088e-06
2.67787e-05
5.57745e-06
2.6252e-05
3.52334e-06
2.55992e-05
2.53162e-06
2.48742e-05
2.06827e-06
2.41651e-05
1.70434e-06
2.34939e-05
1.49606e-06
2.29416e-05
1.16033e-06
2.24479e-05
9.92818e-07
2.20363e-05
8.21549e-07
2.16696e-05
7.29135e-07
2.13736e-05
5.70231e-07
2.1065e-05
6.29912e-07
2.08158e-05
5.15769e-07
2.05267e-05
5.91575e-07
2.0294e-05
5.36832e-07
1.99447e-05
6.2653e-07
1.98263e-05
5.34029e-07
2.69365e-07
1.92335e-05
2.63131e-05
3.98985e-06
2.75414e-05
6.44264e-06
2.8081e-05
5.03782e-06
2.84628e-05
3.14147e-06
2.86381e-05
2.35637e-06
2.86244e-05
2.08192e-06
2.8481e-05
1.84782e-06
2.82182e-05
1.75882e-06
2.79785e-05
1.39999e-06
2.76904e-05
1.28098e-06
2.74341e-05
1.07784e-06
2.71612e-05
1.00202e-06
2.69336e-05
7.97853e-07
2.66632e-05
9.00279e-07
2.64563e-05
7.22654e-07
2.61759e-05
8.7198e-07
2.5994e-05
7.18729e-07
2.55969e-05
1.02361e-06
2.53224e-05
8.08596e-07
1.31184e-06
2.42799e-05
2.60484e-05
2.94147e-06
2.72339e-05
5.25715e-06
2.80273e-05
4.24445e-06
2.85219e-05
2.64681e-06
2.89764e-05
1.90189e-06
2.93243e-05
1.73405e-06
2.95915e-05
1.58059e-06
2.97191e-05
1.63122e-06
2.98564e-05
1.26266e-06
2.99032e-05
1.23416e-06
2.99611e-05
1.01997e-06
2.99605e-05
1.00258e-06
2.99683e-05
7.90081e-07
2.99159e-05
9.52691e-07
2.98982e-05
7.40328e-07
2.98074e-05
9.6283e-07
2.97369e-05
7.89175e-07
2.96911e-05
1.06941e-06
2.97266e-05
7.73136e-07
9.28533e-07
3.01099e-05
2.58609e-05
2.08054e-06
2.69661e-05
4.15198e-06
2.77912e-05
3.41937e-06
2.82564e-05
2.1816e-06
2.87165e-05
1.44176e-06
2.90943e-05
1.35629e-06
2.94563e-05
1.21862e-06
2.97024e-05
1.38505e-06
2.99789e-05
9.86189e-07
3.01689e-05
1.0442e-06
3.0395e-05
7.93858e-07
3.05531e-05
8.44422e-07
3.07242e-05
6.19045e-07
3.08408e-05
8.36091e-07
3.0987e-05
5.94062e-07
3.11273e-05
8.22532e-07
3.1167e-05
7.4948e-07
3.14743e-05
7.62181e-07
3.15911e-05
6.56281e-07
5.31994e-07
3.19877e-05
2.57147e-05
1.36582e-06
2.67769e-05
3.0898e-06
2.75796e-05
2.61662e-06
2.80643e-05
1.69695e-06
2.84715e-05
1.03457e-06
2.88277e-05
1.00007e-06
2.91833e-05
8.63011e-07
2.94998e-05
1.06857e-06
2.9763e-05
7.22981e-07
2.99671e-05
8.40123e-07
3.02079e-05
5.53064e-07
3.04685e-05
5.83733e-07
3.06074e-05
4.80223e-07
3.08098e-05
6.33674e-07
3.09535e-05
4.50377e-07
3.11887e-05
5.87285e-07
3.13613e-05
5.7687e-07
3.16063e-05
5.17242e-07
3.19355e-05
3.27034e-07
1.64775e-07
3.23027e-05
2.55719e-05
7.93956e-07
2.65865e-05
2.0752e-06
2.74091e-05
1.79398e-06
2.79903e-05
1.11574e-06
2.83416e-05
6.83316e-07
2.86882e-05
6.53422e-07
2.89651e-05
5.86116e-07
2.93821e-05
6.51614e-07
2.96055e-05
4.99522e-07
2.9837e-05
6.08698e-07
2.9975e-05
4.1508e-07
3.02555e-05
3.03171e-07
3.03779e-05
3.57842e-07
3.07024e-05
3.09158e-07
3.08406e-05
3.12223e-07
3.09952e-05
4.32693e-07
3.13118e-05
2.60271e-07
3.1498e-05
3.31023e-07
3.16745e-05
1.5049e-07
-1.41513e-07
3.19808e-05
2.54365e-05
3.57491e-07
2.64698e-05
1.04185e-06
2.73341e-05
9.29738e-07
2.79443e-05
5.05503e-07
2.82738e-05
3.53838e-07
2.85468e-05
3.80358e-07
2.88526e-05
2.80367e-07
2.9209e-05
2.95189e-07
2.9484e-05
2.24495e-07
2.97916e-05
3.01156e-07
2.99528e-05
2.53861e-07
3.00912e-05
1.64751e-07
3.03349e-05
1.1418e-07
3.05405e-05
1.03543e-07
3.07255e-05
1.27253e-07
3.09155e-05
2.42648e-07
3.11108e-05
6.49666e-08
3.1466e-05
-2.41754e-08
3.1592e-05
2.45302e-08
-2.65834e-07
3.17163e-05
2.54177e-05
-6.01734e-08
2.6434e-05
2.54964e-08
2.72753e-05
8.84075e-08
2.78944e-05
-1.13526e-07
2.81903e-05
5.79057e-08
2.84989e-05
7.17995e-08
2.88275e-05
-4.82303e-08
2.91369e-05
-1.4216e-08
2.94445e-05
-8.31302e-08
2.97037e-05
4.19754e-08
2.99303e-05
2.72305e-08
3.01059e-05
-1.08243e-08
3.02978e-05
-7.77828e-08
3.04605e-05
-5.91184e-08
3.06016e-05
-1.38055e-08
3.08726e-05
-2.8356e-08
3.10955e-05
-1.57968e-07
3.13576e-05
-2.86277e-07
3.1604e-05
-2.21855e-07
-3.22964e-07
3.16611e-05
2.54248e-05
-4.84935e-07
2.642e-05
-9.69748e-07
2.72606e-05
-7.52194e-07
2.78709e-05
-7.2379e-07
2.82121e-05
-2.83366e-07
2.85521e-05
-2.68137e-07
2.88148e-05
-3.10943e-07
2.91705e-05
-3.6994e-07
2.94341e-05
-3.46738e-07
2.96962e-05
-2.20118e-07
2.98489e-05
-1.25421e-07
3.01158e-05
-2.7775e-07
3.03005e-05
-2.6247e-07
3.04858e-05
-2.4446e-07
3.06258e-05
-1.53787e-07
3.08625e-05
-2.65013e-07
3.11022e-05
-3.97683e-07
3.12835e-05
-4.67554e-07
3.15023e-05
-4.40682e-07
-4.86397e-07
3.16657e-05
2.5449e-05
-9.33926e-07
2.64755e-05
-1.99626e-06
2.73464e-05
-1.62306e-06
2.79233e-05
-1.30076e-06
2.82424e-05
-6.02462e-07
2.8588e-05
-6.13756e-07
2.88808e-05
-6.03646e-07
2.91927e-05
-6.81866e-07
2.94633e-05
-6.17317e-07
2.97534e-05
-5.10243e-07
2.99612e-05
-3.33203e-07
3.01763e-05
-4.92911e-07
3.02928e-05
-3.78948e-07
3.04694e-05
-4.21057e-07
3.07213e-05
-4.05662e-07
3.09567e-05
-5.00401e-07
3.11242e-05
-5.65233e-07
3.13857e-05
-7.29055e-07
3.1598e-05
-6.52928e-07
-6.35639e-07
3.17472e-05
2.55408e-05
-1.47473e-06
2.65902e-05
-3.04567e-06
2.74519e-05
-2.4847e-06
2.79958e-05
-1.84474e-06
2.83027e-05
-9.09267e-07
2.86763e-05
-9.87428e-07
2.90197e-05
-9.46978e-07
2.93468e-05
-1.00904e-06
2.95675e-05
-8.37971e-07
2.98154e-05
-7.58187e-07
3.00691e-05
-5.86886e-07
3.0273e-05
-6.96765e-07
3.03875e-05
-4.93491e-07
3.06324e-05
-6.65942e-07
3.08253e-05
-5.98599e-07
3.10452e-05
-7.20249e-07
3.12132e-05
-7.33267e-07
3.14759e-05
-9.9172e-07
3.17049e-05
-8.82001e-07
-8.30847e-07
3.19002e-05
2.56745e-05
-2.14919e-06
2.6737e-05
-4.10818e-06
2.75992e-05
-3.34689e-06
2.80494e-05
-2.29503e-06
2.84778e-05
-1.33758e-06
2.88669e-05
-1.37661e-06
2.91947e-05
-1.27476e-06
2.94954e-05
-1.30967e-06
2.97399e-05
-1.0825e-06
2.99966e-05
-1.01492e-06
3.02148e-05
-8.05015e-07
3.04305e-05
-9.12458e-07
3.05827e-05
-6.4572e-07
3.08038e-05
-8.87013e-07
3.09413e-05
-7.36164e-07
3.11704e-05
-9.49355e-07
3.13315e-05
-8.94309e-07
3.1606e-05
-1.26627e-06
3.18448e-05
-1.12076e-06
-1.09709e-06
3.2111e-05
2.5838e-05
-2.98721e-06
2.69454e-05
-5.21556e-06
2.78121e-05
-4.21358e-06
2.82356e-05
-2.71857e-06
2.87206e-05
-1.82253e-06
2.91107e-05
-1.76671e-06
2.94529e-05
-1.61701e-06
2.97121e-05
-1.56883e-06
2.99646e-05
-1.33502e-06
3.01753e-05
-1.22557e-06
3.03941e-05
-1.02384e-06
3.05447e-05
-1.0631e-06
3.06974e-05
-7.98421e-07
3.08365e-05
-1.02611e-06
3.09523e-05
-8.51979e-07
3.10817e-05
-1.07871e-06
3.11749e-05
-9.87516e-07
3.13556e-05
-1.44694e-06
3.14878e-05
-1.25301e-06
-1.38307e-06
3.17738e-05
2.60295e-05
-4.01674e-06
2.7231e-05
-6.41702e-06
2.80416e-05
-5.0242e-06
2.85041e-05
-3.18107e-06
2.89901e-05
-2.30851e-06
2.93252e-05
-2.10183e-06
2.95892e-05
-1.88097e-06
2.97267e-05
-1.70634e-06
2.98483e-05
-1.45661e-06
2.99011e-05
-1.27845e-06
2.9958e-05
-1.0807e-06
2.99374e-05
-1.0425e-06
2.99554e-05
-8.16376e-07
2.98957e-05
-9.66454e-07
2.98516e-05
-8.07924e-07
2.97584e-05
-9.85419e-07
2.9657e-05
-8.86137e-07
2.95567e-05
-1.34666e-06
2.94675e-05
-1.1638e-06
-1.45215e-06
2.95366e-05
2.62998e-05
-5.31654e-06
2.75421e-05
-7.65928e-06
2.80839e-05
-5.56609e-06
2.84497e-05
-3.54685e-06
2.8649e-05
-2.50776e-06
2.8623e-05
-2.07584e-06
2.8475e-05
-1.73293e-06
2.82267e-05
-1.45804e-06
2.79649e-05
-1.19481e-06
2.76868e-05
-1.00041e-06
2.74235e-05
-8.17414e-07
2.71406e-05
-7.59557e-07
2.69127e-05
-5.88455e-07
2.66257e-05
-6.79541e-07
2.63904e-05
-5.72588e-07
2.60992e-05
-6.94176e-07
2.58387e-05
-6.25665e-07
2.54757e-05
-9.83707e-07
2.5215e-05
-9.03014e-07
-1.27741e-06
2.50402e-05
2.66014e-05
-6.91797e-06
2.71605e-05
-8.21831e-06
2.67812e-05
-5.18685e-06
2.62448e-05
-3.01046e-06
2.56064e-05
-1.86932e-06
2.48727e-05
-1.34212e-06
2.41563e-05
-1.01656e-06
2.35e-05
-8.01718e-07
2.29291e-05
-6.23883e-07
2.24399e-05
-5.11271e-07
2.20242e-05
-4.01683e-07
2.16485e-05
-3.83848e-07
2.13454e-05
-2.85383e-07
2.10179e-05
-3.52024e-07
2.07445e-05
-2.99156e-07
2.04248e-05
-3.74562e-07
2.01403e-05
-3.41085e-07
1.96983e-05
-5.41738e-07
1.93058e-05
-5.10562e-07
-4.32004e-07
1.84604e-05
2.54491e-05
-7.36709e-06
2.32481e-05
-6.01735e-06
2.09909e-05
-2.92957e-06
1.93141e-05
-1.33364e-06
1.80779e-05
-6.33154e-07
1.71119e-05
-3.7614e-07
1.63625e-05
-2.6719e-07
1.57704e-05
-2.09603e-07
1.53049e-05
-1.58314e-07
1.49271e-05
-1.33499e-07
1.4624e-05
-9.86344e-08
1.43482e-05
-1.0797e-07
1.41327e-05
-6.991e-08
1.38874e-05
-1.06706e-07
1.36783e-05
-9.01025e-08
1.34256e-05
-1.21844e-07
1.31906e-05
-1.06084e-07
1.28345e-05
-1.85616e-07
1.25468e-05
-2.22892e-07
-5.25649e-08
1.21674e-05
1.76329e-05
1.16156e-05
8.686e-06
7.35235e-06
6.7192e-06
6.34306e-06
6.07587e-06
5.86626e-06
5.70795e-06
5.57445e-06
5.47582e-06
5.36785e-06
5.29794e-06
5.19123e-06
5.10113e-06
4.97929e-06
4.8732e-06
4.68759e-06
4.46469e-06
4.41213e-06
5.57248e-06
-2.27701e-07
-2.38914e-07
6.01057e-06
-5.36588e-08
-3.84433e-07
6.37177e-06
-4.0109e-08
-3.21083e-07
6.69998e-06
-1.3005e-07
-1.98167e-07
6.98057e-06
-2.27846e-07
-5.27457e-08
7.21325e-06
-2.62332e-07
2.96532e-08
7.40442e-06
-2.48797e-07
5.7634e-08
7.55653e-06
-2.1372e-07
6.16075e-08
7.67661e-06
-1.82215e-07
6.21378e-08
7.77539e-06
-1.48508e-07
4.97225e-08
7.86713e-06
-1.28888e-07
3.71476e-08
7.96877e-06
-1.05663e-07
4.02976e-09
8.0761e-06
-9.33093e-08
-1.40273e-08
8.18777e-06
-8.46809e-08
-2.69916e-08
8.27987e-06
-8.85509e-08
-3.54923e-09
8.36286e-06
-9.12326e-08
8.24754e-09
8.45591e-06
-8.29976e-08
-1.00557e-08
8.55784e-06
-5.56434e-08
-4.62838e-08
8.66234e-06
-2.99602e-08
-7.45443e-08
8.77735e-06
-3.20124e-10
-1.14687e-07
8.90966e-06
1.81804e-08
-1.50485e-07
9.0504e-06
3.21991e-08
-1.72945e-07
9.186e-06
7.08627e-09
-1.42687e-07
9.29611e-06
-2.63752e-08
-8.37348e-08
9.38028e-06
-9.04131e-08
6.24476e-09
9.43518e-06
-1.3613e-07
8.12346e-08
9.47629e-06
-1.8656e-07
1.45449e-07
9.50637e-06
-1.97441e-07
1.67357e-07
9.53057e-06
-2.05548e-07
1.81351e-07
9.55017e-06
-1.8993e-07
1.70326e-07
9.56894e-06
-1.83199e-07
1.64429e-07
9.58421e-06
-1.49433e-07
1.34162e-07
9.60301e-06
-1.29017e-07
1.10222e-07
9.62557e-06
-7.91271e-08
5.65644e-08
9.65114e-06
-4.23863e-08
1.68199e-08
9.67942e-06
2.1036e-08
-4.93234e-08
9.70442e-06
7.41781e-08
-9.91733e-08
9.73255e-06
1.54451e-07
-1.82578e-07
9.7723e-06
2.19759e-07
-2.59515e-07
9.81783e-06
3.20735e-07
-3.6626e-07
9.90844e-06
4.00002e-07
-4.90617e-07
1.00191e-05
4.98757e-07
-6.09385e-07
1.01746e-05
5.46613e-07
-7.02163e-07
1.03663e-05
5.80273e-07
-7.71911e-07
1.05872e-05
5.38458e-07
-7.59359e-07
1.08085e-05
4.62603e-07
-6.83906e-07
1.09984e-05
3.07389e-07
-4.9736e-07
1.11148e-05
1.31972e-07
-2.48316e-07
1.11655e-05
-1.01027e-07
5.03299e-08
1.11499e-05
-3.05808e-07
3.21362e-07
1.10811e-05
-4.92256e-07
5.61076e-07
1.10005e-05
-6.43443e-07
7.2407e-07
1.08964e-05
-7.20437e-07
8.24491e-07
1.08013e-05
-7.97094e-07
8.92218e-07
1.07094e-05
-8.05756e-07
8.97697e-07
1.05736e-05
-8.14922e-07
9.50681e-07
1.04363e-05
-7.74676e-07
9.11968e-07
1.03064e-05
-7.21602e-07
8.5155e-07
1.01491e-05
-5.91772e-07
7.48976e-07
1.0018e-05
-4.63094e-07
5.94195e-07
9.89532e-06
-2.36765e-07
3.5949e-07
9.8584e-06
-8.76896e-08
1.24618e-07
9.8972e-06
1.72352e-07
-2.11158e-07
9.98629e-06
3.70783e-07
-4.59871e-07
1.01337e-05
5.75076e-07
-7.22523e-07
1.02839e-05
6.81407e-07
-8.31601e-07
1.0367e-05
7.62586e-07
-8.45654e-07
1.03468e-05
7.84952e-07
-7.64742e-07
1.02575e-05
7.91313e-07
-7.02023e-07
1.00942e-05
8.98359e-07
-7.35105e-07
9.97935e-06
9.79655e-07
-8.64757e-07
9.86574e-06
1.2165e-06
-1.10289e-06
9.87297e-06
1.30475e-06
-1.31198e-06
9.88397e-06
1.56977e-06
-1.58077e-06
9.95181e-06
1.59493e-06
-1.66277e-06
9.99736e-06
1.82779e-06
-1.87334e-06
1.01899e-05
1.6644e-06
-1.85693e-06
1.03311e-05
1.89142e-06
-2.03258e-06
1.07433e-05
1.46574e-06
-1.87803e-06
1.10118e-05
1.71228e-06
-1.98075e-06
1.16379e-05
1.00968e-06
-1.6358e-06
1.19026e-05
1.35872e-06
-1.62335e-06
1.24696e-05
2.71616e-07
-8.38703e-07
1.26959e-05
6.3078e-07
-8.5703e-07
1.30905e-05
-5.4859e-07
1.54008e-07
1.33114e-05
-2.80837e-07
5.99238e-08
1.35844e-05
-1.40943e-06
1.13644e-06
1.37535e-05
-1.09134e-06
9.22256e-07
1.39858e-05
-2.25171e-06
2.01935e-06
1.40478e-05
-1.71842e-06
1.65645e-06
1.42396e-05
-2.91847e-06
2.72662e-06
1.41584e-05
-2.04635e-06
2.12759e-06
1.43142e-05
-3.29266e-06
3.13691e-06
1.40532e-05
-2.00965e-06
2.27065e-06
1.41582e-05
-3.46948e-06
3.36448e-06
1.37334e-05
-1.77268e-06
2.19749e-06
1.37664e-05
-3.35759e-06
3.3245e-06
1.32286e-05
-1.33643e-06
1.87427e-06
1.33244e-05
-2.99989e-06
2.90408e-06
1.27623e-05
-5.33224e-07
1.09538e-06
1.29797e-05
-2.23661e-06
2.01919e-06
1.25343e-05
5.31424e-07
-8.60453e-08
1.29561e-05
-1.27352e-06
8.51731e-07
1.27575e-05
1.99513e-06
-1.79657e-06
1.35255e-05
-2.27465e-07
-5.40525e-07
1.35231e-05
3.38699e-06
-3.38461e-06
1.44844e-05
6.90617e-07
-1.65191e-06
1.46363e-05
4.34369e-06
-4.49552e-06
1.56998e-05
1.23438e-06
-2.29794e-06
1.57844e-05
5.11112e-06
-5.19568e-06
1.68248e-05
1.33732e-06
-2.37773e-06
1.71319e-05
5.21159e-06
-5.51868e-06
1.76348e-05
1.31549e-06
-1.81837e-06
1.8286e-05
4.55522e-06
-5.20641e-06
1.84701e-05
1.05444e-06
-1.23861e-06
1.90308e-05
3.78582e-06
-4.34652e-06
1.94771e-05
2.1809e-07
-6.64353e-07
1.99156e-05
2.61021e-06
-3.04875e-06
2.03115e-05
-7.16997e-07
3.21102e-07
2.06529e-05
1.12043e-06
-1.4618e-06
2.09779e-05
-1.64001e-06
1.31498e-06
2.13523e-05
-1.1581e-07
-2.58542e-07
2.16942e-05
-2.9829e-06
2.64097e-06
2.19782e-05
-1.40375e-06
1.11978e-06
2.21621e-05
-3.88148e-06
3.6976e-06
2.23513e-05
-2.4178e-06
2.22852e-06
2.28506e-05
-5.03669e-06
4.53741e-06
2.32095e-05
-3.72722e-06
3.36836e-06
2.37113e-05
-5.54783e-06
5.04598e-06
2.41516e-05
-5.11417e-06
4.67386e-06
2.5191e-05
-6.67422e-06
5.63486e-06
2.61172e-05
-6.51811e-06
5.59191e-06
2.74845e-05
-8.20429e-06
6.83703e-06
2.86438e-05
-8.30334e-06
7.14403e-06
3.02092e-05
-9.82757e-06
8.26211e-06
3.15086e-05
-1.01298e-05
8.83047e-06
3.30725e-05
-1.14895e-05
9.92561e-06
3.4345e-05
-1.17844e-05
1.05119e-05
3.57118e-05
-1.27803e-05
1.14135e-05
3.65907e-05
-1.28179e-05
1.19391e-05
3.74629e-05
-1.31491e-05
1.2277e-05
3.79786e-05
-1.30261e-05
1.25104e-05
3.83336e-05
-1.2748e-05
1.23929e-05
3.8581e-05
-1.22937e-05
1.20463e-05
3.87481e-05
-1.17553e-05
1.15882e-05
3.86887e-05
-1.08652e-05
1.09246e-05
3.85213e-05
-1.00303e-05
1.01977e-05
3.81527e-05
-8.982e-06
9.35059e-06
3.77449e-05
-7.79713e-06
8.20494e-06
3.73386e-05
-6.94731e-06
7.35355e-06
3.68293e-05
-5.71616e-06
6.22543e-06
3.63002e-05
-4.80663e-06
5.33573e-06
3.56101e-05
-3.84804e-06
4.53816e-06
3.49431e-05
-2.99493e-06
3.66194e-06
3.41457e-05
-2.20508e-06
3.00249e-06
3.33407e-05
-1.7837e-06
2.58874e-06
3.24881e-05
-1.02619e-06
1.87878e-06
3.15609e-05
-6.89955e-07
1.61716e-06
3.05248e-05
-3.94268e-07
1.43036e-06
2.95153e-05
-8.3402e-08
1.09286e-06
2.83565e-05
1.38767e-07
1.02005e-06
2.71982e-05
-5.74366e-08
1.21578e-06
2.59676e-05
1.68926e-09
1.22885e-06
2.48217e-05
-8.07634e-08
1.22672e-06
2.36841e-05
-1.40555e-07
1.27809e-06
2.23986e-05
-1.91704e-08
1.30467e-06
2.1165e-05
6.73619e-08
1.16626e-06
1.99242e-05
4.27997e-07
8.12745e-07
1.89526e-05
5.54209e-07
4.17487e-07
1.80805e-05
8.09212e-07
6.28505e-08
1.73966e-05
1.02059e-06
-3.36738e-07
1.66156e-05
2.01684e-06
-1.23581e-06
1.61243e-05
2.51449e-06
-2.02315e-06
1.57934e-05
3.13988e-06
-2.80901e-06
1.5362e-05
3.66266e-06
-3.23129e-06
1.49849e-05
4.14033e-06
-3.76318e-06
1.4758e-05
4.55633e-06
-4.32944e-06
1.51015e-05
5.25615e-06
-5.59963e-06
1.52118e-05
6.63806e-06
-6.74842e-06
1.54536e-05
7.45374e-06
-7.69551e-06
1.51786e-05
8.31048e-06
-8.03551e-06
1.4641e-05
8.75936e-06
-8.22178e-06
1.40335e-05
9.19207e-06
-8.58457e-06
1.31227e-05
9.51036e-06
-8.59952e-06
1.26336e-05
9.89008e-06
-9.40095e-06
1.20687e-05
1.08396e-05
-1.02747e-05
1.27967e-05
1.13247e-05
-1.20527e-05
1.35298e-05
1.26216e-05
-1.33546e-05
1.44069e-05
1.22439e-05
-1.31211e-05
1.5418e-05
1.21643e-05
-1.31753e-05
1.58272e-05
1.09264e-05
-1.13356e-05
1.60652e-05
1.05343e-05
-1.07724e-05
1.64421e-05
8.96694e-06
-9.34387e-06
1.59422e-05
8.90533e-06
-8.40541e-06
1.64291e-05
6.70228e-06
-7.1892e-06
1.51512e-05
8.24777e-06
-6.96984e-06
1.57823e-05
5.07171e-06
-5.70281e-06
1.30134e-05
9.28224e-06
-6.51339e-06
1.40267e-05
5.15695e-06
-6.17016e-06
1.31078e-05
-1.2677e-05
1.35958e-05
1.28339e-05
-2.53937e-07
1.30017e-05
-2.21461e-07
1.32183e-05
-2.56717e-07
1.34295e-05
-3.41282e-07
1.35978e-05
-3.96137e-07
1.37365e-05
-4.01034e-07
1.38493e-05
-3.6155e-07
1.39316e-05
-2.96093e-07
1.39982e-05
-2.48775e-07
1.40533e-05
-2.0367e-07
1.41094e-05
-1.84962e-07
1.41667e-05
-1.62977e-07
1.42262e-05
-1.52732e-07
1.42848e-05
-1.43288e-07
1.43412e-05
-1.44992e-07
1.43913e-05
-1.41356e-07
1.44449e-05
-1.36579e-07
1.45075e-05
-1.18189e-07
1.45747e-05
-9.71713e-08
1.46471e-05
-7.27178e-08
1.47256e-05
-6.03585e-08
1.48029e-05
-4.51417e-08
1.48786e-05
-6.85551e-08
1.49339e-05
-8.1737e-08
1.49785e-05
-1.35002e-07
1.50027e-05
-1.6028e-07
1.50191e-05
-2.02955e-07
1.50302e-05
-2.08609e-07
1.50392e-05
-2.14539e-07
1.504e-05
-1.90714e-07
1.50441e-05
-1.87261e-07
1.50342e-05
-1.39505e-07
1.50344e-05
-1.29241e-07
1.50284e-05
-7.31116e-08
1.50277e-05
-4.17458e-08
1.50268e-05
2.1992e-08
1.50281e-05
7.28556e-08
1.50311e-05
1.5143e-07
1.50545e-05
1.96403e-07
1.50699e-05
3.05314e-07
1.51352e-05
3.34668e-07
1.51988e-05
4.35203e-07
1.53092e-05
4.36174e-07
1.54246e-05
4.64847e-07
1.55601e-05
4.02965e-07
1.56884e-05
3.34378e-07
1.58087e-05
1.87077e-07
1.58766e-05
6.4012e-08
1.59319e-05
-1.56284e-07
1.59309e-05
-3.04844e-07
1.59084e-05
-4.69698e-07
1.58706e-05
-6.0571e-07
1.58141e-05
-6.63866e-07
1.57546e-05
-7.37592e-07
1.56869e-05
-7.3807e-07
1.55848e-05
-7.12872e-07
1.54903e-05
-6.80196e-07
1.53557e-05
-5.86998e-07
1.52165e-05
-4.52535e-07
1.50732e-05
-3.19772e-07
1.49353e-05
-9.89313e-08
1.47745e-05
7.31592e-08
1.46915e-05
2.55394e-07
1.45888e-05
4.73393e-07
1.45596e-05
6.04293e-07
1.44999e-05
7.41089e-07
1.44494e-05
8.13093e-07
1.43747e-05
8.59656e-07
1.42637e-05
9.02344e-07
1.4179e-05
9.83034e-07
1.41097e-05
1.04901e-06
1.40656e-05
1.26059e-06
1.41302e-05
1.24011e-06
1.41727e-05
1.52732e-06
1.43817e-05
1.38586e-06
1.44819e-05
1.72762e-06
1.48147e-05
1.3316e-06
1.49752e-05
1.73092e-06
1.54083e-05
1.03267e-06
1.56601e-05
1.46047e-06
1.61559e-05
5.13904e-07
1.65413e-05
9.73225e-07
1.69497e-05
-1.36741e-07
1.73226e-05
2.5786e-07
1.76939e-05
-9.19852e-07
1.79631e-05
-5.50031e-07
1.83147e-05
-1.76105e-06
1.84012e-05
-1.17779e-06
1.86606e-05
-2.5112e-06
1.85259e-05
-1.58369e-06
1.86232e-05
-3.01577e-06
1.82893e-05
-1.71245e-06
1.82669e-05
-3.27023e-06
1.78082e-05
-1.55095e-06
1.76767e-05
-3.33798e-06
1.71621e-05
-1.25806e-06
1.70028e-05
-3.19834e-06
1.64539e-05
-7.87497e-07
1.63323e-05
-2.87827e-06
1.58103e-05
-1.12588e-08
1.58566e-05
-2.28289e-06
1.54399e-05
9.48069e-07
1.57944e-05
-1.62799e-06
1.55872e-05
2.20237e-06
1.61953e-05
-8.35571e-07
1.62468e-05
3.33545e-06
1.70996e-05
-1.62175e-07
1.72136e-05
4.22965e-06
1.80436e-05
4.04431e-07
1.83345e-05
4.82019e-06
1.86455e-05
1.02632e-06
1.93003e-05
4.55678e-06
1.93326e-05
1.28325e-06
2.00473e-05
3.84046e-06
2.02796e-05
8.22167e-07
2.06835e-05
3.38193e-06
2.10794e-05
-1.77805e-07
2.14872e-05
2.20242e-06
2.17941e-05
-1.02388e-06
2.21717e-05
7.42767e-07
2.25073e-05
-1.97556e-06
2.28145e-05
-4.23083e-07
2.30006e-05
-3.16897e-06
2.3459e-05
-1.86216e-06
2.37589e-05
-4.1813e-06
2.42957e-05
-2.95467e-06
2.46695e-05
-5.41043e-06
2.5413e-05
-4.47076e-06
2.62235e-05
-6.35836e-06
2.72028e-05
-6.09343e-06
2.84231e-05
-7.89452e-06
2.96604e-05
-7.75547e-06
3.10929e-05
-9.6367e-06
3.23581e-05
-9.5686e-06
3.38746e-05
-1.13441e-05
3.5093e-05
-1.13482e-05
3.64561e-05
-1.28527e-05
3.73127e-05
-1.2641e-05
3.82415e-05
-1.37091e-05
3.86721e-05
-1.32485e-05
3.90995e-05
-1.35766e-05
3.92775e-05
-1.32041e-05
3.94036e-05
-1.28741e-05
3.93138e-05
-1.22039e-05
3.9149e-05
-1.15904e-05
3.88104e-05
-1.05266e-05
3.85307e-05
-9.75056e-06
3.80966e-05
-8.54793e-06
3.7848e-05
-7.54847e-06
3.73018e-05
-6.40117e-06
3.68596e-05
-5.27396e-06
3.61687e-05
-4.11568e-06
3.55426e-05
-3.22194e-06
3.4731e-05
-2.1833e-06
3.39649e-05
-1.43905e-06
3.29899e-05
-8.08666e-07
3.20431e-05
-7.94453e-08
3.10285e-05
3.24639e-07
3.00044e-05
6.29888e-07
2.8774e-05
1.14702e-06
2.7605e-05
1.30769e-06
2.62819e-05
1.26566e-06
2.51304e-05
1.15322e-06
2.3776e-05
1.27364e-06
2.2709e-05
9.26506e-07
2.15464e-05
1.14341e-06
2.04513e-05
1.16247e-06
1.94026e-05
1.47667e-06
1.86359e-05
1.32091e-06
1.77666e-05
1.67853e-06
1.69358e-05
1.85138e-06
1.62426e-05
2.71003e-06
1.57983e-05
2.95877e-06
1.54816e-05
3.45661e-06
1.53944e-05
3.74983e-06
1.53945e-05
4.1403e-06
1.5328e-05
4.6228e-06
1.51719e-05
5.41224e-06
1.5382e-05
6.42794e-06
1.54287e-05
7.40706e-06
1.55741e-05
8.16512e-06
1.52064e-05
9.12702e-06
1.51772e-05
9.22132e-06
1.4709e-05
9.97854e-06
1.47235e-05
9.87561e-06
1.47167e-05
1.08464e-05
1.51478e-05
1.08936e-05
1.57858e-05
1.19836e-05
1.67265e-05
1.13032e-05
1.72091e-05
1.16818e-05
1.84969e-05
9.63858e-06
1.81437e-05
1.08875e-05
1.9513e-05
7.59768e-06
1.83997e-05
1.00187e-05
1.95027e-05
5.59925e-06
1.80088e-05
9.74166e-06
1.86063e-05
4.4742e-06
1.75566e-05
1.0332e-05
1.86878e-05
4.02573e-06
1.12055e-05
2.05901e-05
1.92417e-05
-2.62164e-07
1.94555e-05
-4.35252e-07
1.97358e-05
-5.36997e-07
1.99742e-05
-5.79627e-07
2.01158e-05
-5.37771e-07
2.01731e-05
-4.58307e-07
2.01966e-05
-3.85076e-07
2.02145e-05
-3.14004e-07
2.02413e-05
-2.75591e-07
2.02717e-05
-2.34078e-07
2.03041e-05
-2.17352e-07
2.03388e-05
-1.97692e-07
2.0374e-05
-1.87912e-07
2.04e-05
-1.69233e-07
2.04298e-05
-1.74818e-07
2.04531e-05
-1.64644e-07
2.04788e-05
-1.62261e-07
2.0514e-05
-1.53482e-07
2.05519e-05
-1.35051e-07
2.05983e-05
-1.19054e-07
2.06457e-05
-1.07804e-07
2.06872e-05
-8.65976e-08
2.07337e-05
-1.15053e-07
2.07568e-05
-1.04835e-07
2.07764e-05
-1.54603e-07
2.07821e-05
-1.66035e-07
2.07792e-05
-2.00073e-07
2.07717e-05
-2.01043e-07
2.07638e-05
-2.06712e-07
2.07458e-05
-1.72681e-07
2.07379e-05
-1.79316e-07
2.07095e-05
-1.11175e-07
2.06921e-05
-1.1178e-07
2.06692e-05
-5.02428e-08
2.06514e-05
-2.39801e-08
2.06356e-05
3.78678e-08
2.06282e-05
8.02014e-08
2.06101e-05
1.69578e-07
2.06281e-05
1.78363e-07
2.06137e-05
3.19771e-07
2.06641e-05
2.84189e-07
2.06876e-05
4.11747e-07
2.07681e-05
3.55693e-07
2.08376e-05
3.95307e-07
2.09347e-05
3.05872e-07
2.09975e-05
2.71562e-07
2.1093e-05
9.1617e-08
2.11128e-05
4.42283e-08
2.11626e-05
-2.06131e-07
2.11385e-05
-2.80758e-07
2.11167e-05
-4.47906e-07
2.10759e-05
-5.64875e-07
2.10222e-05
-6.10209e-07
2.09548e-05
-6.70158e-07
2.08998e-05
-6.83019e-07
2.07887e-05
-6.01779e-07
2.07187e-05
-6.10188e-07
2.05902e-05
-4.58529e-07
2.04663e-05
-3.28607e-07
2.03475e-05
-2.01017e-07
2.02028e-05
4.57658e-08
2.00663e-05
2.09691e-07
1.9939e-05
3.82674e-07
1.98185e-05
5.93848e-07
1.96982e-05
7.2464e-07
1.95962e-05
8.43039e-07
1.94344e-05
9.74936e-07
1.9303e-05
9.91101e-07
1.91515e-05
1.05378e-06
1.89898e-05
1.14475e-06
1.8937e-05
1.1018e-06
1.88381e-05
1.35954e-06
1.89055e-05
1.17271e-06
1.8925e-05
1.50776e-06
1.9112e-05
1.19883e-06
1.92842e-05
1.55551e-06
1.95532e-05
1.06254e-06
1.98616e-05
1.42257e-06
2.01812e-05
7.13068e-07
2.05419e-05
1.09975e-06
2.09025e-05
1.53299e-07
2.12493e-05
6.26434e-07
2.17022e-05
-5.8969e-07
2.19076e-05
5.24904e-08
2.24063e-05
-1.4185e-06
2.24392e-05
-5.82981e-07
2.29097e-05
-2.23153e-06
2.27875e-05
-1.05557e-06
2.31475e-05
-2.87126e-06
2.29451e-05
-1.38121e-06
2.31369e-05
-3.20761e-06
2.28775e-05
-1.45308e-06
2.29069e-05
-3.29958e-06
2.25707e-05
-1.21474e-06
2.2432e-05
-3.19932e-06
2.19706e-05
-7.9669e-07
2.16367e-05
-2.86446e-06
2.10513e-05
-2.02087e-07
2.06067e-05
-2.43367e-06
1.99286e-05
6.6683e-07
1.95319e-05
-1.88616e-06
1.89296e-05
1.55037e-06
1.85971e-05
-1.29549e-06
1.82916e-05
2.50787e-06
1.82048e-05
-7.48745e-07
1.81375e-05
3.40273e-06
1.83863e-05
-4.10941e-07
1.86329e-05
3.98299e-06
1.88633e-05
1.74041e-07
1.95478e-05
4.13569e-06
1.96272e-05
9.46927e-07
2.0608e-05
3.57596e-06
2.06725e-05
1.21878e-06
2.14352e-05
3.07778e-06
2.17652e-05
4.92156e-07
2.24016e-05
2.74553e-06
2.27066e-05
-4.82771e-07
2.33381e-05
1.57088e-06
2.34398e-05
-1.12561e-06
2.39512e-05
2.31358e-07
2.42799e-05
-2.30421e-06
2.49081e-05
-1.0513e-06
2.50518e-05
-3.31265e-06
2.57216e-05
-2.53204e-06
2.60341e-05
-4.49378e-06
2.7003e-05
-3.9236e-06
2.75212e-05
-5.92861e-06
2.85805e-05
-5.52999e-06
2.94592e-05
-7.23713e-06
3.07487e-05
-7.38289e-06
3.1834e-05
-8.97982e-06
3.31875e-05
-9.10902e-06
3.43861e-05
-1.08353e-05
3.56391e-05
-1.08215e-05
3.67313e-05
-1.24363e-05
3.7671e-05
-1.22879e-05
3.8483e-05
-1.36647e-05
3.89159e-05
-1.30738e-05
3.93314e-05
-1.41247e-05
3.94445e-05
-1.33615e-05
3.96205e-05
-1.37526e-05
3.94165e-05
-1.30001e-05
3.93224e-05
-1.278e-05
3.90727e-05
-1.19542e-05
3.88624e-05
-1.13801e-05
3.85693e-05
-1.02336e-05
3.8428e-05
-9.60924e-06
3.79758e-05
-8.09571e-06
3.77092e-05
-7.28192e-06
3.71602e-05
-5.85211e-06
3.67302e-05
-4.84399e-06
3.61325e-05
-3.51796e-06
3.55772e-05
-2.66671e-06
3.47571e-05
-1.36313e-06
3.39646e-05
-6.46558e-07
3.28979e-05
2.58045e-07
3.19752e-05
8.43186e-07
3.07543e-05
1.54561e-06
2.97417e-05
1.64246e-06
2.84634e-05
2.42528e-06
2.73229e-05
2.44822e-06
2.5969e-05
2.6196e-06
2.47744e-05
2.34783e-06
2.34578e-05
2.59017e-06
2.23683e-05
2.01607e-06
2.10384e-05
2.47331e-06
1.99527e-05
2.24813e-06
1.90304e-05
2.39894e-06
1.82896e-05
2.06173e-06
1.73612e-05
2.60692e-06
1.67189e-05
2.49368e-06
1.61493e-05
3.27963e-06
1.57742e-05
3.33389e-06
1.51532e-05
4.07764e-06
1.50627e-05
3.84024e-06
1.47457e-05
4.45735e-06
1.51587e-05
4.20977e-06
1.51107e-05
5.4603e-06
1.59943e-05
5.54429e-06
1.63892e-05
7.01216e-06
1.69689e-05
7.58539e-06
1.67848e-05
9.31115e-06
1.67512e-05
9.25489e-06
1.61745e-05
1.05553e-05
1.60142e-05
1.00359e-05
1.5749e-05
1.11116e-05
1.66232e-05
1.00193e-05
1.67219e-05
1.1885e-05
1.85857e-05
9.43935e-06
1.84043e-05
1.18632e-05
2.0043e-05
7.99981e-06
1.97375e-05
1.11931e-05
2.08903e-05
6.44491e-06
2.06486e-05
1.02603e-05
2.11157e-05
5.13214e-06
2.11873e-05
9.67006e-06
2.11847e-05
4.47687e-06
2.2108e-05
9.40867e-06
2.17212e-05
4.41252e-06
8.85969e-06
2.40671e-05
2.45275e-05
-5.09778e-07
2.49981e-05
-9.05872e-07
2.54073e-05
-9.46182e-07
2.55943e-05
-7.66611e-07
2.56614e-05
-6.04874e-07
2.56709e-05
-4.67771e-07
2.56464e-05
-3.60608e-07
2.5627e-05
-2.94593e-07
2.56103e-05
-2.58933e-07
2.56096e-05
-2.33309e-07
2.56219e-05
-2.29659e-07
2.56341e-05
-2.099e-07
2.56551e-05
-2.08904e-07
2.56619e-05
-1.76094e-07
2.56779e-05
-1.9079e-07
2.56847e-05
-1.7144e-07
2.56932e-05
-1.70784e-07
2.57091e-05
-1.69381e-07
2.57306e-05
-1.56539e-07
2.57604e-05
-1.48836e-07
2.5792e-05
-1.39436e-07
2.58118e-05
-1.06356e-07
2.58363e-05
-1.39574e-07
2.58346e-05
-1.03088e-07
2.58351e-05
-1.55149e-07
2.58258e-05
-1.56689e-07
2.58158e-05
-1.90099e-07
2.58087e-05
-1.93948e-07
2.57992e-05
-1.97196e-07
2.57825e-05
-1.5602e-07
2.57731e-05
-1.69929e-07
2.57332e-05
-7.12614e-08
2.5709e-05
-8.75933e-08
2.56707e-05
-1.18973e-08
2.56427e-05
4.00364e-09
2.56191e-05
6.1444e-08
2.56077e-05
9.15975e-08
2.55946e-05
1.82748e-07
2.5624e-05
1.4892e-07
2.56072e-05
3.36526e-07
2.56735e-05
2.17923e-07
2.56741e-05
4.11146e-07
2.57532e-05
2.76644e-07
2.57878e-05
3.60686e-07
2.58654e-05
2.28253e-07
2.58914e-05
2.45604e-07
2.59654e-05
1.75873e-08
2.59446e-05
6.50278e-08
2.59896e-05
-2.51129e-07
2.59296e-05
-2.20765e-07
2.59049e-05
-4.23178e-07
2.58446e-05
-5.04658e-07
2.57713e-05
-5.36844e-07
2.56943e-05
-5.93193e-07
2.56238e-05
-6.12472e-07
2.55118e-05
-4.89761e-07
2.5433e-05
-5.31465e-07
2.53307e-05
-3.56215e-07
2.5192e-05
-1.89866e-07
2.51309e-05
-1.39954e-07
2.49815e-05
1.95132e-07
2.49049e-05
2.86287e-07
2.47945e-05
4.93081e-07
2.46758e-05
7.12585e-07
2.4593e-05
8.07438e-07
2.44969e-05
9.39175e-07
2.43709e-05
1.10092e-06
2.42752e-05
1.08678e-06
2.41512e-05
1.17781e-06
2.40193e-05
1.27666e-06
2.39555e-05
1.16561e-06
2.391e-05
1.40498e-06
2.38651e-05
1.21762e-06
2.39988e-05
1.37408e-06
2.40255e-05
1.17212e-06
2.42746e-05
1.30644e-06
2.44402e-05
8.96856e-07
2.46958e-05
1.16697e-06
2.50164e-05
3.92545e-07
2.52007e-05
9.15394e-07
2.56965e-05
-3.42489e-07
2.57439e-05
5.79e-07
2.6323e-05
-1.16878e-06
2.6285e-05
9.05715e-08
2.67968e-05
-1.93036e-06
2.67007e-05
-4.869e-07
2.7084e-05
-2.61476e-06
2.69194e-05
-8.91017e-07
2.71423e-05
-3.09415e-06
2.69316e-05
-1.17056e-06
2.69453e-05
-3.22123e-06
2.67084e-05
-1.21625e-06
2.65543e-05
-3.14547e-06
2.62508e-05
-9.11235e-07
2.60222e-05
-2.97074e-06
2.56454e-05
-4.19818e-07
2.53286e-05
-2.54772e-06
2.49484e-05
1.78105e-07
2.45275e-05
-2.01277e-06
2.41688e-05
1.02553e-06
2.36881e-05
-1.40543e-06
2.3323e-05
1.91551e-06
2.28612e-05
-8.33753e-07
2.24832e-05
2.88587e-06
2.21376e-05
-4.03055e-07