/*--------------------------------*- C++ -*----------------------------------*\
| =========                 |                                                 |
| \\      /  F ield         | OpenFOAM: The Open Source CFD Toolbox           |
|  \\    /   O peration     | Version:  2.4.0                                 |
|   \\  /    A nd           | Web:      www.OpenFOAM.org                      |
|    \\/     M anipulation  |                                                 |
\*---------------------------------------------------------------------------*/
FoamFile
{
    version     2.0;
    format      ascii;
    class       volScalarField;
    location    "0.57";
    object      pPrime2Mean;
}
// * * * * * * * * * * * * * * * * * * * * * * * * * * * * * * * * * * * * * //

dimensions      [0 4 -4 0 0 0 0];

internalField   nonuniform List<scalar> 
8800
(
1.13427e+06
1.10565e+06
1.07494e+06
1.04449e+06
1.01446e+06
984870
955713
926993
898708
870859
843442
816453
789884
763722
737940
712490
687275
662098
636509
609074
1.13431e+06
1.10565e+06
1.07494e+06
1.04449e+06
1.01446e+06
984869
955713
926993
898708
870859
843442
816454
789886
763726
737948
712504
687302
662155
636650
609538
1.13433e+06
1.10565e+06
1.07493e+06
1.04449e+06
1.01446e+06
984868
955712
926992
898708
870860
843443
816456
789890
763734
737962
712531
687355
662266
636908
610441
1.13435e+06
1.10565e+06
1.07492e+06
1.04448e+06
1.01446e+06
984868
955712
926992
898708
870860
843445
816459
789896
763745
737982
712570
687431
662424
637268
611492
1.13437e+06
1.10565e+06
1.07492e+06
1.04448e+06
1.01446e+06
984867
955711
926992
898708
870861
843447
816463
789904
763759
738009
712620
687529
662621
637701
612579
1.13438e+06
1.10565e+06
1.07491e+06
1.04447e+06
1.01445e+06
984867
955711
926992
898709
870862
843449
816468
789913
763776
738041
712680
687643
662847
638176
613640
1.13439e+06
1.10565e+06
1.07491e+06
1.04447e+06
1.01445e+06
984866
955711
926992
898709
870863
843452
816473
789923
763795
738077
712747
687771
663094
638672
614649
1.1344e+06
1.10565e+06
1.0749e+06
1.04447e+06
1.01445e+06
984866
955712
926992
898710
870864
843455
816479
789935
763817
738116
712820
687907
663353
639171
615591
1.1344e+06
1.10565e+06
1.0749e+06
1.04446e+06
1.01445e+06
984866
955712
926993
898711
870866
843458
816486
789947
763840
738158
712897
688049
663617
639661
616458
1.1344e+06
1.10565e+06
1.0749e+06
1.04446e+06
1.01445e+06
984867
955713
926993
898712
870868
843462
816493
789960
763863
738201
712975
688193
663879
640130
617247
1.1344e+06
1.10565e+06
1.0749e+06
1.04446e+06
1.01445e+06
984867
955713
926994
898713
870870
843466
816500
789973
763887
738244
713054
688334
664132
640571
617959
1.1344e+06
1.10565e+06
1.0749e+06
1.04446e+06
1.01445e+06
984867
955713
926994
898714
870873
843470
816507
789986
763910
738286
713130
688470
664372
640978
618594
1.1344e+06
1.10565e+06
1.07491e+06
1.04447e+06
1.01445e+06
984867
955713
926995
898715
870875
843474
816514
789998
763932
738326
713202
688599
664595
641348
619154
1.13439e+06
1.10565e+06
1.07491e+06
1.04447e+06
1.01445e+06
984868
955714
926996
898717
870877
843478
816521
790010
763953
738364
713269
688716
664796
641676
619641
1.13438e+06
1.10565e+06
1.07491e+06
1.04447e+06
1.01446e+06
984868
955714
926997
898718
870879
843481
816527
790020
763972
738397
713328
688821
664973
641960
620056
1.13437e+06
1.10565e+06
1.07492e+06
1.04448e+06
1.01446e+06
984869
955715
926998
898720
870881
843484
816532
790030
763988
738426
713380
688910
665124
642199
620400
1.13435e+06
1.10565e+06
1.07492e+06
1.04448e+06
1.01446e+06
984870
955715
926999
898721
870883
843487
816536
790037
764002
738451
713423
688984
665246
642390
620675
1.13433e+06
1.10565e+06
1.07493e+06
1.04449e+06
1.01446e+06
984871
955716
927000
898722
870885
843489
816540
790043
764012
738469
713456
689040
665339
642535
620879
1.13431e+06
1.10565e+06
1.07494e+06
1.04449e+06
1.01446e+06
984872
955717
927001
898723
870886
843490
816542
790047
764019
738482
713478
689078
665402
642631
621014
1.13427e+06
1.10565e+06
1.07494e+06
1.0445e+06
1.01447e+06
984873
955717
927001
898723
870886
843491
816543
790049
764023
738488
713489
689097
665433
642680
621080
584215
577521
572415
568001
563908
560013
556256
552604
549032
545525
542070
538658
535284
531942
528627
525335
522063
518807
515567
512340
509128
505930
502745
499573
496413
493265
490128
487003
483889
480786
477696
474618
471554
468503
465466
462443
459433
456437
453453
450482
447522
444573
441633
438701
435777
432861
429954
427054
424163
421280
418407
415541
412684
409835
406994
404163
401342
398532
395733
392944
390165
387395
384634
381883
379142
376411
373691
370984
368288
365602
362927
360262
357607
354960
352323
349695
347077
344469
341872
339286
336713
334153
331606
329070
326545
324030
321523
319025
316535
314054
311580
309114
306656
304205
301762
299327
296900
294483
292074
289675
287286
284907
282538
280180
277833
275497
273172
270858
268555
266262
263979
261706
259442
257189
254945
252710
250484
248268
246060
243862
241673
239493
237323
235164
233015
230877
228750
226635
224531
222437
220353
218279
216214
214158
212110
210070
208039
206015
204000
201994
199998
198010
196032
194063
192104
190154
188213
186283
184361
182450
180549
178658
176777
174906
173046
171195
169354
167524
165703
163892
162090
160300
158519
156749
154989
153241
151503
149777
148062
146359
144667
142988
141317
139661
138011
136378
134746
133135
131520
129927
128330
126751
125172
123604
122038
120479
118918
117363
115797
114234
112653
111064
109448
107809
106127
104398
102589
100669
98572.9
96079.7
588984
581852
576037
571029
566499
562264
558233
554352
550586
546912
543311
539772
536285
532842
529437
526064
522720
519400
516102
512823
509564
506323
503099
499892
496700
493523
490361
487212
484077
480956
477849
474756
471678
468614
465565
462531
459511
456505
453512
450532
447564
444607
441661
438723
435795
432875
429964
427062
424168
421283
418408
415541
412684
409835
406995
404165
401346
398536
395738
392950
390171
387403
384644
381895
379156
376427
373709
371001
368305
365620
362945
360281
357625
354979
352342
349715
347098
344490
341894
339310
336738
334180
331634
329100
326576
324062
321557
319060
316571
314091
311618
309153
306694
304243
301799
299363
296936
294518
292109
289710
287320
284941
282571
280212
277865
275528
273201
270885
268580
266284
263998
261722
259456
257200
254954
252718
250491
248274
246067
243869
241681
239502
237334
235176
233030
230894
228770
226658
224556
222464
220382
218310
216246
214190
212142
210102
208071
206047
204032
202026
200028
198040
196061
194092
192131
190179
188237
186304
184381
182468
180565
178673
176790
174918
173056
171203
169359
167526
165702
163887
162082
160287
158502
156726
154961
153205
151460
149725
148000
146288
144583
142891
141206
139536
137868
136219
134568
132936
131301
129684
128064
126457
124850
123250
121649
120053
118450
116849
115236
113615
111975
110314
108622
106888
105101
103234
101281
99122.8
96796.1
94067.2
592292
585216
579130
573768
568912
564397
560126
556038
552092
548260
544521
540859
537263
533723
530230
526780
523365
519981
516626
513297
509991
506708
503447
500205
496982
493778
490590
487419
484263
481124
478000
474892
471800
468724
465664
462618
459588
456572
453570
450582
447606
444642
441688
438746
435812
432889
429974
427068
424172
421286
418409
415542
412684
409836
406997
404168
401350
398542
395744
392957
390180
387413
384656
381909
379172
376445
373728
371022
368327
365642
362967
360302
357647
355001
352364
349737
347120
344513
341918
339335
336765
334208
331664
329131
326608
324095
321591
319095
316608
314129
311657
309192
306733
304282
301838
299402
296975
294557
292148
289749
287359
284979
282609
280250
277901
275562
273233
270915
268607
266308
264020
261740
259471
257212
254964
252726
250499
248282
246075
243878
241691
239514
237347
235192
233048
230915
228794
226684
224585
222496
220416
218344
216281
214225
212177
210136
208104
206079
204064
202057
200059
198071
196091
194120
192158
190205
188261
186325
184400
182485
180581
178687
176803
174930
173065
171210
169364
167528
165700
163882
162073
160274
158484
156703
154931
153169
151416
149674
147939
146216
144498
142794
141094
139409
137725
136057
134390
132736
131083
129441
127800
126165
124530
122899
121266
119631
117991
116343
114686
113010
111317
109588
107830
106006
104144
102150
100107
97812.2
95372.1
92656.3
594811
587923
581761
576202
571117
566381
561909
557640
553532
549555
545687
541910
538211
534577
531001
527475
523992
520547
517137
513758
510408
507084
503786
500511
497258
494026
490814
487621
484446
481288
478149
475026
471921
468832
465761
462705
459664
456639
453628
450631
447647
444676
441716
438768
435830
432902
429984
427076
424178
421290
418412
415544
412686
409838
407000
404173
401356
398549
395752
392967
390191
387426
384670
381925
379190
376465
373750
371045
368350
365666
362991
360326
357670
355024
352387
349760
347142
344536
341941
339359
336791
334235
331692
329161
326640
324128
321625
319131
316645
314167
311696
309231
306773
304322
301878
299443
297016
294598
292190
289791
287401
285021
282650
280290
277939
275598
273268
270946
268635
266333
264041
261758
259486
257225
254974
252735
250507
248290
246084
243887
241702
239526
237362
235210
233069
230939
228822
226715
224618
222530
220452
218381
216318
214261
212212
210170
208137
206111
204094
202087
200088
198099
196119
194147
192184
190229
188283
186346
184419
182502
180597
178701
176816
174941
173074
171216
169368
167528
165697
163875
162063
160259
158464
156678
154900
153132
151371
149621
147876
146142
144413
142696
140981
139280
137582
135895
134213
132538
130867
129201
127538
125877
124216
122553
120890
119217
117543
115849
114154
112422
110686
108887
107084
105171
103256
101166
99044.8
96711.6
94247.2
91611.7
596836
590138
583994
578341
573107
568206
563570
559146
554896
550789
546803
542919
539122
535401
531746
528147
524599
521096
517633
514206
510813
507450
504116
500809
497527
494269
491033
487819
484625
481451
478295
475159
472040
468940
465857
462790
459740
456706
453686
450681
447690
444711
441745
438791
435849
432917
429996
427085
424185
421295
418416
415548
412690
409843
407006
404179
401363
398558
395763
392978
390204
387440
384687
381943
379210
376486
373772
371069
368375
365691
363016
360350
357694
355046
352409
349780
347163
344556
341962
339382
336815
334261
331719
329189
326669
324159
321658
319166
316681
314205
311734
309270
306812
304361
301919
299483
297057
294639
292231
289832
287443
285063
282692
280330
277977
275634
273301
270977
268663
266357
264062
261775
259500
257236
254984
252744
250515
248298
246092
243897
241713
239540
237378
235228
233091
230964
228850
226746
224652
222566
220489
218418
216355
214297
212247
210203
208168
206140
204123
202113
200115
198124
196144
194171
192207
190251
188304
186365
184437
182518
180612
178713
176827
174949
173080
171220
169369
167525
165690
163865
162049
160240
158440
156648
154865
153091
151323
149564
147811
146067
144327
142596
140870
139152
137440
135735
134037
132342
130654
128965
127281
125592
123909
122212
120524
118810
117109
115367
113642
111852
110083
108220
106373
104398
102423
100292
98107.3
95785.4
93345.2
90785.2
598541
592006
585909
580216
574888
569866
565100
560548
556175
551953
547860
543879
539992
536190
532460
528793
525184
521625
518112
514639
511205
507805
504437
501099
497790
494506
491248
488013
484801
481610
478440
475289
472158
469046
465952
462876
459816
456773
453745
450732
447733
444748
441776
438817
435870
432934
430010
427097
424195
421304
418424
415556
412698
409850
407014
404188
401374
398569
395776
392992
390220
387457
384705
381963
379230
376508
373795
371093
368399
365715
363039
360373
357715
355066
352426
349798
347179
344573
341980
339401
336835
334282
331742
329213
326695
324187
321687
319197
316715
314240
311771
309307
306850
304400
301957
299522
297095
294678
292270
289872
287483
285102
282731
280367
278013
275667
273331
271004
268687
266378
264079
261789
259512
257246
254993
252751
250522
248305
246100
243905
241723
239552
237394
235246
233112
230989
228878
226776
224685
222601
220525
218454
216390
214331
212279
210233
208196
206167
204148
202136
200137
198145
196164
194191
192227
190269
188321
186381
184452
182532
180624
178722
176835
174953
173083
171218
169366
167517
165680
163850
162029
160215
158411
156614
154826
153044
151270
149503
147743
145987
144239
142494
140757
139023
137298
135575
133864
132147
130444
128730
127030
125311
123609
121879
120168
118418
116688
114907
113146
111317
109503
107602
105702
103695
101665
99524.1
97310.6
95006
92597.9
90096.8
600009
593606
587562
581858
576471
571363
566497
561840
557363
553042
548855
544785
540817
536939
533140
529411
525744
522133
518572
515057
511583
508148
504748
501381
498045
494738
491458
488203
484973
481766
478582
475418
472275
469151
466047
462960
459891
456839
453803
450783
447777
444786
441809
438845
435893
432954
430027
427112
424208
421316
418436
415566
412708
409861
407025
404200
401386
398583
395790
393008
390236
387475
384723
381982
379250
376529
373817
371114
368420
365735
363058
360390
357730
355080
352439
349810
347191
344586
341993
339414
336850
334298
331759
329231
326715
324208
321711
319222
316743
314270
311803
309341
306885
304435
301992
299556
297129
294711
292304
289906
287517
285136
282764
280399
278043
275695
273357
271027
268706
266394
264091
261799
259519
257252
254998
252756
250528
248311
246106
243913
241732
239563
237406
235262
233131
231010
228903
226803
224714
222631
220556
218486
216422
214361
212307
210259
208220
206188
204167
202155
200155
198162
196181
194207
192242
190283
188334
186391
184462
182539
180630
178725
176837
174952
173078
171210
169356
167502
165662
163828
162001
160183
158375
156572
154779
152990
151211
149437
147670
145904
144146
142389
140641
138892
137154
135417
133690
131956
130235
128501
126780
125040
123313
121560
119819
118044
116280
114472
112672
110817
108960
107033
105092
103067
101003
98860.1
96637.9
94344.8
91961.2
89505.6
601291
594993
589000
583298
577875
572706
567764
563023
558459
554052
549782
545634
541592
537646
533784
529997
526277
522617
519012
515456
511946
508477
505047
501652
498291
494961
491660
488387
485140
481918
478719
475543
472388
469254
466139
463043
459966
456906
453862
450835
447823
444826
441844
438875
435920
432977
430048
427130
424225
421331
418450
415580
412721
409874
407038
404214
401400
398597
395805
393024
390252
387491
384740
381999
379267
376545
373833
371129
368434
365748
363069
360400
357739
355088
352446
349816
347198
344593
342000
339422
336858
334307
331769
329243
326728
324223
321727
319240
316764
314294
311829
309369
306914
304464
302020
299583
297155
294737
292330
289931
287542
285161
282788
280422
278065
275715
273375
271043
268719
266403
264097
261803
259522
257254
255000
252759
250531
248315
246111
243919
241740
239571
237416
235274
233145
231027
228922
226825
224737
222655
220580
218510
216445
214384
212328
210278
208236
206203
204180
202167
200167
198174
196192
194219
192252
190292
188340
186397
184466
182542
180631
178722
176830
174943
173066
171196
169337
167480
165636
163798
161967
160144
158330
156524
154724
152930
151144
149366
147590
145817
144050
142284
140523
138764
137011
135262
133519
131771
130032
128281
126539
124781
123029
121255
119488
117691
115897
114067
112235
110357
108469
106521
104552
102517
100432
98286.1
96060.1
93773.6
91410.7
88992.3
602416
596203
590255
584563
579119
573906
568905
564096
559460
554980
550639
546421
542315
538307
534388
530548
526779
523074
519428
515834
512289
508789
505331
501910
498525
495174
491854
488563
485300
482063
478851
475663
472497
469352
466228
463124
460039
456971
453921
450887
447870
444868
441880
438908
435949
433003
430071
427151
424244
421349
418466
415595
412736
409888
407052
404227
401413
398610
395818
393036
390265
387503
384751
382010
379277
376555
373841
371136
368440
365752
363073
360402
357740
355088
352447
349817
347198
344593
342001
339423
336859
334309
331772
329247
326733
324230
321737
319252
316778
314310
311848
309389
306934
304483
302039
299601
297173
294754
292346
289947
287557
285176
282802
280435
278077
275726
273384
271049
268723
266404
264097
261801
259520
257252
254999
252758
250531
248317
246114
243923
241745
239577
237423
235281
233154
231038
228934
226838
224751
222670
220595
218525
216459
214397
212340
210289
208245
206211
204187
202173
200173
198179
196198
194224
192257
190295
188342
186396
184463
182536
180623
178711
176817
174927
173045
171175
169310
167453
165601
163763
161924
160101
158280
156470
154662
152865
151073
149294
147508
145730
143952
142181
140408
138639
136872
135115
133355
131596
129838
128075
126312
124538
122764
120972
119182
117366
115548
113700
111842
109945
108032
106070
104080
102038
99934.4
97783.1
95555.7
93275.9
90933.6
88546.8
603406
597261
591354
585673
580217
574973
569927
565063
560368
555826
551424
547146
542982
538919
534949
531060
527247
523501
519817
516189
512612
509083
505598
502153
498746
495375
492037
488730
485452
482201
478977
475777
472601
469447
466314
463202
460109
457034
453978
450939
447916
444909
441918
438941
435979
433030
430095
427172
424263
421366
418482
415610
412749
409901
407064
404238
401423
398620
395827
393044
390272
387509
384757
382014
379280
376556
373841
371134
368437
365748
363068
360396
357734
355082
352440
349810
347192
344587
341995
339417
336853
334303
331766
329243
326731
324229
321739
319256
316785
314319
311858
309399
306944
304493
302047
299609
297180
294760
292351
289951
287562
285179
282805
280437
278078
275726
273382
271045
268717
266398
264090
261794
259513
257245
254993
252754
250529
248316
246115
243926
241747
239580
237425
235283
233155
231040
228937
226842
224755
222674
220598
218528
216462
214400
212343
210292
208248
206214
204188
202174
200172
198179
196197
194221
192253
190289
188335
186385
184451
182523
180605
178694
176794
174904
173017
171149
169276
167419
165559
163726
161875
160057
158222
156416
154597
152801
150998
149224
147423
145648
143855
142081
140293
138521
136740
134978
133201
131434
129660
127886
126105
124316
122524
120717
118907
117075
115235
113371
111492
109580
107646
105676
103664
101615
99494.9
97337.2
95113.2
92842.7
90521
88161.3
604276
598186
592313
586645
581183
575916
570835
565928
561184
556590
552135
547806
543591
539480
535463
531532
527678
523895
520176
516517
512911
509355
505846
502379
498952
495562
492207
488885
485593
482330
479094
475884
472698
469535
466395
463275
460175
457095
454033
450988
447961
444950
441954
438974
436008
433056
430118
427193
424282
421383
418496
415622
412761
409910
407072
404245
401429
398624
395830
393046
390272
387508
384754
382010
379275
376549
373833
371125
368426
365736
363055
360383
357721
355069
352428
349798
347180
344575
341983
339404
336839
334289
331753
329230
326720
324221
321732
319253
316784
314319
311859
309399
306943
304491
302044
299604
297175
294755
292345
289944
287553
285170
282796
280427
278067
275714
273369
271031
268703
266384
264077
261782
259501
257235
254984
252747
250523
248312
246114
243925
241747
239578
237422
235279
233150
231034
228930
226835
224748
222667
220591
218521
216456
214395
212339
210288
208245
206211
204185
202171
200166
198172
196187
194209
192240
190273
188318
186366
184427
182501
180579
178670
176765
174877
172985
171118
169236
167382
165514
163686
161826
160013
158164
156360
154527
152738
150924
149155
147338
145565
143758
141988
140186
138409
136617
134855
133059
131287
129498
127713
125917
124116
122308
120490
118662
116820
114960
113083
111185
109260
107308
105330
103297
101236
99106.1
96945
94727.8
92468.3
90165.6
87829.5
605038
598993
593149
587493
582027
576743
571634
566693
561909
557273
552773
548400
544141
539988
535931
531961
528072
524255
520505
516817
513185
509605
506073
502587
499141
495735
492365
489028
485724
482449
479203
475983
472789
469618
466470
463344
460238
457152
454085
451035
448004
444988
441989
439005
436035
433080
430139
427212
424297
421396
418508
415632
412768
409916
407075
404247
401429
398622
395827
393041
390266
387500
384745
381999
379262
376536
373818
371109
368410
365719
363038
360366
357703
355052
352412
349783
347165
344559
341966
339386
336820
334270
331733
329211
326702
324205
321719
319242
316774
314309
311848
309386
306930
304476
302029
299588
297159
294737
292327
289924
287533
285150
282776
280406
278046
275691
273347
271009
268683
266365
264060
261766
259487
257222
254972
252737
250515
248306
246109
243920
241742
239572
237415
235270
233139
231021
228916
226819
224731
222649
220574
218504
216440
214380
212327
210278
208236
206202
204174
202160
200152
198157
196169
194188
192218
190249
188293
186338
184398
182471
180545
178640
176733
174848
172954
171085
169197
167343
165473
163644
161777
159964
158108
156305
154465
152675
150858
149086
147262
145483
143670
141894
140084
138307
136505
134741
132929
131153
129350
127558
125748
123940
122118
120291
118447
116595
114720
112831
110917
108981
107015
105021
102970
100899
98765.5
96605.4
94395.8
92147.4
89861.7
87545.9
605700
599692
593871
588226
582758
577462
572332
567362
562546
557875
553338
548927
544631
540441
536349
532346
528425
524578
520801
517087
513432
509830
506279
502774
499313
495891
492507
489159
485843
482558
479302
476074
472872
469694
466539
463407
460295
457204
454132
451078
448042
445023
442020
439032
436059
433101
430157
427226
424309
421405
418514
415636
412770
409916
407074
404243
401423
398615
395818
393030
390253
387487
384729
381982
379245
376517
373799
371089
368390
365699
363017
360346
357684
355033
352394
349766
347148
344542
341948
339367
336799
334247
331710
329187
326679
324183
321699
319223
316754
314288
311826
309362
306905
304450
302003
299561
297133
294711
292300
289896
287505
285120
282746
280376
278016
275660
273318
270981
268657
266341
264039
261747
259470
257206
254959
252724
250505
248296
246101
243912
241734
239562
237405
235257
233125
231003
228896
226797
224708
222624
220550
218479
216417
214358
212307
210258
208219
206183
204156
202139
200130
198133
196143
194160
192189
190218
188261
186304
184364
182439
180512
178606
176701
174814
172918
171049
169162
167302
165438
163604
161733
159911
158057
156247
154405
152606
150792
149015
147187
145411
143591
141811
139994
138208
136398
134628
132808
131031
129217
127420
125599
123784
121949
120114
118259
116397
114511
112610
110687
108735
106758
104745
102685
100606
98473.1
96315.9
94113.1
91875.1
89604.2
87306
606269
600290
594489
588853
583384
578077
572931
567939
563097
558397
553830
549388
545060
540839
536717
532685
528736
524864
521063
517326
513650
510030
506462
502941
499465
496031
492635
489275
485950
482656
479392
476156
472946
469762
466601
463463
460347
457251
454174
451116
448076
445053
442046
439055
436079
433117
430170
427236
424316
421410
418516
415635
412767
409911
407066
404234
401413
398603
395803
393015
390237
387468
384710
381963
379225
376496
373777
371068
368368
365677
362996
360325
357664
355014
352376
349748
347130
344524
341928
339346
336778
334224
331685
329161
326652
324157
321673
319196
316725
314257
311793
309328
306871
304415
301968
299527
297098
294676
292265
289862
287471
285086
282712
280340
277981
275626
273285
270950
268630
266316
264016
261726
259451
257188
254942
252708
250490
248282
246087
243898
241720
239548
237389
235239
233105
230980
228870
226768
224678
222594
220519
218449
216387
214329
212279
210231
208191
206155
204129
202109
200100
198101
196111
194127
192155
190184
188225
186268
184332
182401
180477
178571
176670
174776
172882
171007
169128
167256
165406
163562
161691
159866
158012
156179
154344
152538
150727
148942
147120
145335
143520
141740
139909
138111
136300
134518
132696
130919
129094
127296
125464
123644
121801
119959
118095
116222
114328
112417
110488
108517
106532
104504
102440
100358
98227.5
96071.8
93875.1
91646.8
89388.7
87105.6
606752
600797
595009
589379
583908
578594
573435
568427
563565
558842
554250
549782
545429
541182
537034
532977
529005
525111
521289
517534
513840
510204
506620
503086
499598
496152
492746
489377
486043
482741
479469
476227
473011
469821
466655
463512
460391
457291
454210
451148
448104
445077
442067
439072
436093
433128
430178
427241
424318
421409
418513
415630
412759
409901
407055
404221
401398
398587
395786
392997
390217
387449
384690
381942
379203
376474
373755
371045
368345
365655
362975
360304
357644
354995
352358
349730
347113
344506
341909
339326
336756
334201
331660
329135
326624
324128
321641
319163
316689
314219
311753
309289
306831
304376
301928
299488
297060
294637
292226
289825
287434
285050
282675
280305
277945
275592
273253
270920
268602
266290
263992
261704
259431
257169
254924
252691
250473
248265
246070
243881
241702
239529
237369
235217
233081
230954
228841
226736
224644
222558
220483
218413
216350
214293
212242
210196
208157
206121
204096
202076
200067
198065
196075
194090
192117
190147
188188
186235
184296
182364
180447
178536
176636
174738
172848
170966
169094
167221
165373
163512
161657
159810
157959
156118
154292
152485
150671
148872
147054
145255
143454
141658
139831
138021
136217
134418
132599
130813
128987
127181
125346
123521
121672
119825
117953
116072
114170
112247
110313
108328
106337
104300
102237
100152
98024
95869.5
93678.8
91458.3
89210.8
86940.4
607153
601215
595436
589808
584337
579017
573849
568829
563951
559211
554600
550110
545736
541468
537299
533222
529230
525318
521479
517708
514000
510350
506754
503209
499710
496255
492840
489463
486121
482813
479535
476287
473066
469871
466700
463553
460427
457323
454238
451173
448126
445096
442082
439085
436102
433135
430181
427242
424317
421405
418507
415622
412749
409889
407042
404207
401383
398571
395769
392979
390199
387429
384670
381921
379182
376453
373733
371024
368324
365634
362954
360284
357625
354977
352340
349714
347097
344489
341892
339308
336737
334180
331638
329110
326597
324098
321607
319127
316649
314177
311709
309246
306788
304334
301887
299448
297019
294597
292187
289787
287397
285014
282638
280270
277911
275562
273222
270893
268575
266267
263969
261684
259410
257151
254904
252672
250453
248246
246049
243861
241680
239508
237346
235194
233055
230928
228811
226705
224609
222522
220444
218373
216308
214251
212200
210155
208117
206084
204059
202039
200030
198028
196037
194053
192079
190108
188152
186203
184266
182337
180418
178504
176603
174703
172818
170931
169062
167184
165342
163464
161612
159744
157914
156066
154248
152437
150620
148805
146995
145188
143392
141573
139765
137949
136139
134332
132520
130719
128894
127080
125246
123414
121564
119712
117833
115945
114034
112104
110163
108171
106173
104135
102072
99986
97858.7
95705.4
93519.6
91305.1
89065.9
86805.7
607473
601548
595773
590146
584673
579350
574176
569147
564259
559504
554878
550373
545981
541696
537511
533418
529411
525484
521632
517848
514128
510468
506862
503308
499800
496338
492916
489532
486184
482870
479588
476334
473109
469910
466735
463584
460455
457348
454260
451192
448141
445109
442092
439092
436108
433138
430182
427241
424313
421400
418500
415613
412739
409878
407030
404193
401369
398556
395754
392963
390182
387412
384653
381903
379164
376434
373714
371005
368305
365615
362936
360267
357608
354961
352325
349699
347082
344475
341878
339293
336721
334163
331619
329089
326572
324069
321574
319091
316610
314137
311667
309205
306745
304294
301846
299410
296980
294561
292150
289752
287360
284980
282604
280239
277880
275534
273195
270869
268552
266247
263949
261666
259392
257133
254885
252653
250431
248225
246026
243838
241656
239486
237323
235172
233032
230903
228784
226676
224575
222487
220404
218332
216264
214207
212155
210112
208074
206044
204018
202001
199991
197991
195999
194016
192042
190073
188119
186173
184239
182308
180392
178471
176568
174667
172786
170894
169028
167150
165299
163409
161568
159704
157886
156018
154207
152381
150565
148750
146945
145126
143329
141504
139705
137879
136073
134266
132456
130642
128821
126996
125165
123328
121479
119617
117735
115842
113925
111990
110044
108048
106042
104010
101944
99856.1
97728.5
95576.2
93393.5
91183.8
88951.1
86698.7
607711
601795
596022
590396
584922
579598
574420
569385
564488
559724
555087
550569
546166
541868
537671
533566
529548
525610
521747
517954
514225
510557
506944
503382
499869
496400
492972
489584
486232
482913
479626
476370
473141
469938
466761
463607
460475
457365
454275
451204
448152
445117
442099
439097
436111
433139
430182
427239
424310
421396
418494
415607
412732
409870
407021
404183
401358
398544
395741
392950
390169
387399
384639
381889
379149
376419
373699
370989
368289
365600
362921
360252
357595
354948
352312
349686
347070
344462
341865
339280
336708
334150
331605
329072
326552
324045
321546
319059
316576
314103
311632
309171
306709
304260
301813
299378
296947
294531
292118
289722
287329
284952
282576
280214
277854
275511
273172
270850
268533
266230
263932
261651
259376
257118
254868
252635
250411
248205
246004
243817
241635
239467
237304
235154
233013
230885
228762
226654
224550
222459
220371
218296
216225
214168
212113
210072
208034
206007
203981
201966
199957
197958
195965
193983
192008
190044
188090
186146
184210
182278
180360
178437
176535
174631
172750
170854
168991
167109
165254
163375
161538
159664
157848
155978
154170
152330
150522
148701
146897
145077
143280
141452
139654
137825
136027
134211
132405
130583
128764
126936
125104
123265
121413
119546
117663
115763
113847
111903
109955
107962
105950
103922
101852
99762.7
97632.8
95480.6
93300.3
91093.9
88865.6
86618.9
607864
601954
596186
590562
585089
579763
574582
569543
564641
559870
555225
550700
546289
541983
537777
533665
529639
525694
521825
518025
514290
510616
506998
503432
499914
496441
493010
489618
486263
482942
479652
476393
473161
469957
466777
463622
460488
457376
454285
451212
448158
445122
442103
439100
436112
433139
430181
427238
424308
421393
418491
415602
412727
409864
407014
404177
401350
398536
395733
392941
390160
387389
384628
381878
379137
376407
373687
370977
368277
365588
362909
360240
357583
354937
352301
349675
347059
344452
341856
339271