/*--------------------------------*- C++ -*----------------------------------*\
| =========                 |                                                 |
| \\      /  F ield         | OpenFOAM: The Open Source CFD Toolbox           |
|  \\    /   O peration     | Version:  2.4.0                                 |
|   \\  /    A nd           | Web:      www.OpenFOAM.org                      |
|    \\/     M anipulation  |                                                 |
\*---------------------------------------------------------------------------*/
FoamFile
{
    version     2.0;
    format      ascii;
    class       volScalarField;
    location    "19";
    object      p;
}
// * * * * * * * * * * * * * * * * * * * * * * * * * * * * * * * * * * * * * //

dimensions      [0 2 -2 0 0 0 0];

internalField   nonuniform List<scalar> 
4400
(
-0.100707
-0.0923635
-0.0998638
-0.111688
-0.100061
-0.098705
-0.10494
-0.100603
-0.106105
-0.111594
-0.103515
-0.106404
-0.111832
-0.107747
-0.109087
-0.118064
-0.112054
-0.113252
-0.12203
-0.12351
-0.100938
-0.0921962
-0.0996128
-0.112128
-0.100147
-0.0983799
-0.105176
-0.100495
-0.105994
-0.112148
-0.103426
-0.106244
-0.112202
-0.10767
-0.108862
-0.118308
-0.11208
-0.112871
-0.12215
-0.123591
-0.101183
-0.0919467
-0.0993893
-0.11276
-0.100115
-0.0981045
-0.105518
-0.100279
-0.105915
-0.112562
-0.103235
-0.106096
-0.112507
-0.107504
-0.108596
-0.118655
-0.111966
-0.112675
-0.122234
-0.1233
-0.101388
-0.091757
-0.0992795
-0.113229
-0.0999921
-0.0980049
-0.105834
-0.100033
-0.105891
-0.112868
-0.103032
-0.106044
-0.11274
-0.107341
-0.108387
-0.118921
-0.111749
-0.112517
-0.122198
-0.122324
-0.101477
-0.0917567
-0.0993634
-0.113301
-0.0998649
-0.0981802
-0.106013
-0.0998691
-0.105924
-0.112933
-0.102894
-0.106134
-0.11281
-0.10729
-0.108285
-0.118965
-0.111528
-0.112289
-0.122205
-0.120783
-0.101419
-0.0920894
-0.0996983
-0.112945
-0.0998774
-0.0986673
-0.106113
-0.0999365
-0.105997
-0.112705
-0.10293
-0.106381
-0.11267
-0.107421
-0.108342
-0.118609
-0.111491
-0.112019
-0.122138
-0.119041
-0.10117
-0.0929309
-0.10029
-0.111963
-0.100141
-0.0994407
-0.106038
-0.100388
-0.106063
-0.112111
-0.103262
-0.106745
-0.11226
-0.10777
-0.108575
-0.117732
-0.111732
-0.111807
-0.121705
-0.117476
-0.100686
-0.0943809
-0.101062
-0.110194
-0.100699
-0.100446
-0.105689
-0.101281
-0.106091
-0.111089
-0.103951
-0.107186
-0.11152
-0.108313
-0.108994
-0.116316
-0.112194
-0.111768
-0.120659
-0.116221
-0.0999739
-0.0963912
-0.101861
-0.107614
-0.101523
-0.101596
-0.105027
-0.102567
-0.106049
-0.109636
-0.104977
-0.107671
-0.110461
-0.108997
-0.10957
-0.114458
-0.11273
-0.111969
-0.118923
-0.115265
-0.0990937
-0.0987799
-0.10252
-0.10439
-0.102502
-0.10277
-0.10411
-0.104094
-0.105918
-0.107832
-0.106232
-0.108154
-0.109169
-0.109753
-0.11023
-0.112333
-0.11318
-0.112405
-0.116632
-0.114507
-0.0981481
-0.101287
-0.102899
-0.100836
-0.103461
-0.103842
-0.103085
-0.105659
-0.105708
-0.105838
-0.107531
-0.1086
-0.107779
-0.110504
-0.110878
-0.110171
-0.11343
-0.11299
-0.114024
-0.113814
-0.0972652
-0.103634
-0.102923
-0.0973358
-0.104225
-0.104738
-0.10214
-0.107068
-0.105449
-0.103873
-0.108682
-0.108979
-0.106453
-0.111165
-0.111431
-0.108181
-0.113435
-0.113601
-0.111408
-0.11308
-0.0965536
-0.105585
-0.102647
-0.094249
-0.104677
-0.105456
-0.101434
-0.108172
-0.105179
-0.102153
-0.109554
-0.109272
-0.105338
-0.111662
-0.111839
-0.106516
-0.113217
-0.114122
-0.109098
-0.112254
-0.0960712
-0.106993
-0.102221
-0.0918286
-0.104788
-0.106029
-0.101041
-0.108842
-0.104932
-0.100827
-0.110096
-0.109486
-0.104526
-0.111957
-0.112094
-0.105275
-0.112837
-0.114474
-0.107297
-0.111376
-0.0958242
-0.107839
-0.101819
-0.0902032
-0.104623
-0.106488
-0.100951
-0.108869
-0.104739
-0.0999433
-0.110331
-0.109651
-0.104046
-0.112043
-0.112217
-0.104485
-0.112378
-0.114631
-0.106067
-0.110536
-0.0957814
-0.108206
-0.101556
-0.0893707
-0.104311
-0.106833
-0.101099
-0.108852
-0.104626
-0.0994786
-0.11033
-0.109791
-0.10387
-0.111966
-0.112232
-0.104113
-0.111932
-0.114607
-0.105362
-0.109828
-0.0959002
-0.108212
-0.101381
-0.0892192
-0.103964
-0.106989
-0.101389
-0.108707
-0.104564
-0.0993834
-0.110178
-0.109845
-0.103944
-0.111802
-0.112135
-0.104074
-0.111566
-0.114415
-0.105136
-0.109312
-0.0961221
-0.107982
-0.10114
-0.089535
-0.103647
-0.106883
-0.101733
-0.108473
-0.104486
-0.0995816
-0.109942
-0.109746
-0.104199
-0.111608
-0.111913
-0.104277
-0.11131
-0.114072
-0.105187
-0.109005
-0.0963706
-0.107663
-0.100793
-0.0900483
-0.10342
-0.106596
-0.102067
-0.108243
-0.104361
-0.0999232
-0.109708
-0.109529
-0.104512
-0.111445
-0.111619
-0.104582
-0.111179
-0.113675
-0.105382
-0.108902
-0.0966437
-0.107466
-0.100472
-0.0904721
-0.103383
-0.106254
-0.102299
-0.10811
-0.104219
-0.100372
-0.109596
-0.109314
-0.104761
-0.111378
-0.111366
-0.104826
-0.111178
-0.113263
-0.105552
-0.108954
-0.119139
-0.135682
-0.15767
-0.0762177
-0.0190282
-0.0769463
-0.175752
-0.252173
-0.242287
-0.200227
-0.172821
-0.152695
-0.139079
-0.154497
-0.190167
-0.233519
-0.252934
-0.202533
-0.102145
-0.0234652
0.010307
0.0211065
0.0259295
0.0291459
0.0311186
0.0320467
0.0323105
0.0322273
0.0319862
0.0316787
0.0313442
0.0309978
0.0306455
0.0302895
0.0299305
0.029569
0.0292049
0.0288383
0.0284691
0.0280974
0.0277231
0.0273462
0.0269666
0.0265844
0.0261994
0.0258118
0.0254214
0.0250283
0.0246325
0.0242338
0.0238323
0.023428
0.0230209
0.0226109
0.0221981
0.0217823
0.0213636
0.020942
0.0205175
0.0200899
0.0196594
0.0192258
0.0187892
0.0183495
0.0179068
0.0174609
0.0170119
0.0165597
0.0161043
0.0156458
0.015184
0.014719
0.0142507
0.0137791
0.0133042
0.012826
0.0123444
0.0118595
0.011371
0.0108793
0.0103839
0.00988531
0.0093829
0.00887723
0.00836785
0.00785485
0.00733854
0.00681805
0.00629463
0.00576679
0.00523579
0.00470088
0.00416199
0.00361978
0.00307332
0.0025232
0.00196933
0.00141134
0.000849544
0.000283858
-0.119203
-0.134691
-0.156273
-0.0731415
-0.0188285
-0.0718543
-0.166146
-0.239569
-0.235191
-0.194584
-0.163377
-0.139579
-0.130069
-0.154235
-0.198362
-0.246194
-0.266762
-0.213662
-0.107717
-0.0237882
0.0129061
0.0240626
0.0281456
0.0305517
0.0319535
0.0325299
0.0325875
0.0323858
0.0320766
0.03173
0.031373
0.0310138
0.0306542
0.0302942
0.029933
0.0295703
0.0292055
0.0288386
0.0284693
0.0280975
0.0277231
0.0273462
0.0269666
0.0265843
0.0261994
0.0258118
0.0254214
0.0250283
0.0246324
0.0242338
0.0238323
0.023428
0.0230209
0.0226109
0.0221981
0.0217823
0.0213636
0.020942
0.0205175
0.0200899
0.0196594
0.0192258
0.0187892
0.0183495
0.0179068
0.0174609
0.0170119
0.0165597
0.0161043
0.0156458
0.015184
0.014719
0.0142507
0.0137791
0.0133042
0.012826
0.0123444
0.0118595
0.011371
0.0108793
0.0103839
0.00988531
0.0093829
0.00887723
0.00836785
0.00785485
0.00733854
0.00681804
0.00629464
0.00576679
0.00523579
0.00470089
0.00416198
0.00361979
0.00307331
0.0025232
0.00196933
0.00141134
0.000849549
0.000283856
-0.11951
-0.132403
-0.151593
-0.0726048
-0.0219324
-0.0700327
-0.158326
-0.227508
-0.226737
-0.186978
-0.152764
-0.126283
-0.120543
-0.152434
-0.204288
-0.256468
-0.278036
-0.22266
-0.112031
-0.023667
0.0156862
0.027153
0.0304569
0.0320084
0.0328073
0.033019
0.0328656
0.032544
0.0321665
0.0317809
0.0314016
0.0310296
0.0306629
0.0302988
0.0299355
0.0295715
0.0292062
0.0288389
0.0284694
0.0280975
0.0277231
0.0273462
0.0269666
0.0265843
0.0261994
0.0258118
0.0254214
0.0250283
0.0246324
0.0242338
0.0238323
0.023428
0.0230209
0.0226109
0.0221981
0.0217823
0.0213636
0.020942
0.0205175
0.0200899
0.0196594
0.0192258
0.0187892
0.0183495
0.0179068
0.0174609
0.0170119
0.0165597
0.0161043
0.0156458
0.015184
0.014719
0.0142507
0.0137791
0.0133042
0.012826
0.0123444
0.0118595
0.011371
0.0108793
0.0103839
0.00988531
0.0093829
0.00887723
0.00836785
0.00785485
0.00733854
0.00681804
0.00629464
0.00576679
0.00523579
0.00470089
0.00416198
0.00361979
0.00307331
0.0025232
0.00196933
0.00141134
0.000849548
0.000283856
-0.120121
-0.128937
-0.144366
-0.0744483
-0.0278356
-0.071074
-0.151674
-0.215306
-0.216178
-0.177199
-0.141091
-0.113077
-0.110835
-0.149372
-0.208105
-0.264385
-0.28677
-0.229477
-0.115004
-0.0230749
0.0185988
0.0303141
0.0328193
0.033489
0.0336697
0.0335088
0.033142
0.0327003
0.0322551
0.031831
0.0314296
0.0310452
0.0306714
0.0303034
0.0299378
0.0295727
0.0292068
0.0288392
0.0284695
0.0280976
0.0277232
0.0273462
0.0269666
0.0265843
0.0261994
0.0258118
0.0254214
0.0250283
0.0246324
0.0242338
0.0238323
0.023428
0.0230209
0.0226109
0.0221981
0.0217823
0.0213636
0.020942
0.0205175
0.0200899
0.0196594
0.0192258
0.0187892
0.0183495
0.0179068
0.0174609
0.0170119
0.0165597
0.0161043
0.0156458
0.015184
0.014719
0.0142507
0.0137791
0.0133042
0.012826
0.0123444
0.0118595
0.011371
0.0108793
0.0103839
0.00988531
0.0093829
0.00887723
0.00836785
0.00785485
0.00733854
0.00681804
0.00629464
0.00576679
0.00523579
0.00470089
0.00416198
0.00361979
0.00307331
0.0025232
0.00196933
0.00141134
0.000849547
0.000283856
-0.120427
-0.125358
-0.136133
-0.0777817
-0.0352538
-0.0726261
-0.144357
-0.201683
-0.203042
-0.165458
-0.128731
-0.100257
-0.101254
-0.145344
-0.210006
-0.270011
-0.293002
-0.234097
-0.116592
-0.0219983
0.0215928
0.0334807
0.0351874
0.0349724
0.0345297
0.0339941
0.0334143
0.0328536
0.0323416
0.0318797
0.0314569
0.0310603
0.0306796
0.0303078
0.0299401
0.0295739
0.0292073
0.0288395
0.0284697
0.0280976
0.0277232
0.0273462
0.0269666
0.0265843
0.0261994
0.0258118
0.0254214
0.0250283
0.0246324
0.0242338
0.0238323
0.023428
0.0230209
0.0226109
0.0221981
0.0217823
0.0213636
0.020942
0.0205175
0.0200899
0.0196594
0.0192258
0.0187892
0.0183495
0.0179068
0.0174609
0.0170119
0.0165597
0.0161043
0.0156458
0.015184
0.014719
0.0142507
0.0137791
0.0133042
0.012826
0.0123444
0.0118595
0.011371
0.0108793
0.0103839
0.00988531
0.0093829
0.00887723
0.00836785
0.00785485
0.00733854
0.00681804
0.00629463
0.00576679
0.00523579
0.00470089
0.00416198
0.00361979
0.00307331
0.0025232
0.00196933
0.00141134
0.000849546
0.000283857
-0.120089
-0.122127
-0.128036
-0.0816648
-0.0431528
-0.0733889
-0.135761
-0.186555
-0.187693
-0.152358
-0.116175
-0.0881463
-0.0920716
-0.14063
-0.210185
-0.273416
-0.296788
-0.236545
-0.116789
-0.020441
0.0246158
0.036589
0.0375166
0.0364353
0.0353764
0.0344696
0.0336798
0.0330023
0.0324252
0.0319267
0.031483
0.0310747
0.0306874
0.0303119
0.0299423
0.029575
0.0292079
0.0288397
0.0284698
0.0280977
0.0277232
0.0273462
0.0269666
0.0265843
0.0261994
0.0258118
0.0254214
0.0250283
0.0246324
0.0242338
0.0238323
0.023428
0.0230209
0.0226109
0.0221981
0.0217823
0.0213636
0.020942
0.0205175
0.0200899
0.0196594
0.0192258
0.0187892
0.0183495
0.0179068
0.0174609
0.0170119
0.0165597
0.0161043
0.0156458
0.015184
0.014719
0.0142507
0.0137791
0.0133042
0.012826
0.0123444
0.0118595
0.011371
0.0108793
0.0103839
0.00988531
0.0093829
0.00887723
0.00836785
0.00785485
0.00733854
0.00681804
0.00629463
0.00576679
0.00523579
0.00470089
0.00416198
0.00361979
0.00307331
0.0025232
0.00196934
0.00141134
0.000849544
0.000283857
-0.119162
-0.119325
-0.120834
-0.0854695
-0.050962
-0.0732194
-0.126374
-0.170614
-0.170958
-0.138565
-0.103945
-0.0770646
-0.0835337
-0.135474
-0.208812
-0.274673
-0.298188
-0.236882
-0.115641
-0.018427
0.0276154
0.0395796
0.0397652
0.0378559
0.0361999
0.0349307
0.0339363
0.0331452
0.0325052
0.0319714
0.0315079
0.0310884
0.0306948
0.0303159
0.0299444
0.029576
0.0292084
0.0288399
0.0284699
0.0280977
0.0277232
0.0273462
0.0269666
0.0265843
0.0261994
0.0258118
0.0254214
0.0250283
0.0246324
0.0242338
0.0238323
0.023428
0.0230209
0.0226109
0.0221981
0.0217823
0.0213636
0.020942
0.0205175
0.0200899
0.0196594
0.0192258
0.0187892
0.0183495
0.0179068
0.0174609
0.0170119
0.0165597
0.0161043
0.0156458
0.015184
0.014719
0.0142507
0.0137791
0.0133042
0.012826
0.0123444
0.0118595
0.011371
0.0108793
0.0103839
0.00988531
0.0093829
0.00887723
0.00836785
0.00785485
0.00733854
0.00681804
0.00629463
0.00576679
0.00523579
0.00470089
0.00416198
0.00361979
0.00307331
0.00252319
0.00196934
0.00141134
0.000849543
0.000283857
-0.11789
-0.116827
-0.114881
-0.088753
-0.0582736
-0.0727179
-0.116936
-0.154529
-0.153631
-0.124775
-0.0925614
-0.0673109
-0.075873
-0.130085
-0.206022
-0.273867
-0.297289
-0.2352
-0.113244
-0.0159994
0.0305405
0.0423998
0.0418958
0.0392137
0.0369898
0.0353731
0.0341815
0.0332812
0.0325809
0.0320135
0.0315312
0.0311011
0.0307017
0.0303195
0.0299462
0.029577
0.0292088
0.0288401
0.02847
0.0280977
0.0277232
0.0273462
0.0269666
0.0265843
0.0261994
0.0258118
0.0254214
0.0250283
0.0246324
0.0242338
0.0238323
0.023428
0.0230209
0.0226109
0.0221981
0.0217823
0.0213636
0.020942
0.0205175
0.0200899
0.0196594
0.0192258
0.0187892
0.0183495
0.0179068
0.0174609
0.0170119
0.0165597
0.0161043
0.0156458
0.015184
0.014719
0.0142507
0.0137791
0.0133042
0.012826
0.0123444
0.0118595
0.011371
0.0108793
0.0103839
0.00988531
0.0093829
0.00887723
0.00836785
0.00785485
0.00733854
0.00681804
0.00629463
0.00576679
0.00523579
0.00470089
0.00416198
0.00361979
0.00307331
0.00252319
0.00196934
0.00141134
0.000849541
0.000283857
-0.116581
-0.114491
-0.110221
-0.0913956
-0.0648648
-0.07222
-0.107933
-0.138809
-0.136519
-0.111693
-0.082507
-0.0591482
-0.0693062
-0.124671
-0.201981
-0.27112
-0.294205
-0.231631
-0.109761
-0.0132198
0.0333423
0.0450052
0.0438765
0.0404912
0.037738
0.0357929
0.0344136
0.0334092
0.0326516
0.0320527
0.0315528
0.0311128
0.030708
0.0303228
0.0299479
0.0295778
0.0292092
0.0288403
0.02847
0.0280978
0.0277232
0.0273462
0.0269666
0.0265843
0.0261994
0.0258118
0.0254214
0.0250283
0.0246324
0.0242338
0.0238323
0.023428
0.0230209
0.0226109
0.0221981
0.0217823
0.0213636
0.020942
0.0205175
0.0200899
0.0196594
0.0192258
0.0187892
0.0183495
0.0179068
0.0174609
0.0170119
0.0165597
0.0161043
0.0156458
0.015184
0.014719
0.0142507
0.0137791
0.0133042
0.012826
0.0123444
0.0118595
0.011371
0.0108793
0.0103839
0.00988531
0.0093829
0.00887723
0.00836785
0.00785484
0.00733854
0.00681804
0.00629463
0.00576679
0.00523579
0.00470089
0.00416197
0.00361979
0.00307331
0.00252319
0.00196934
0.00141134
0.000849539
0.000283857
-0.115472
-0.112209
-0.106725
-0.0934275
-0.0705196
-0.0718393
-0.0996884
-0.123943
-0.120387
-0.0999481
-0.0742003
-0.052777
-0.0640199
-0.119469
-0.197006
-0.266611
-0.289056
-0.226312
-0.10542
-0.0101632
0.0359752
0.0473603
0.0456818
0.041674
0.0384375
0.0361865
0.0346306
0.0335282
0.0327169
0.0320885
0.0315723
0.0311234
0.0307136
0.0303257
0.0299494
0.0295785
0.0292096
0.0288405
0.0284701
0.0280978
0.0277232
0.0273462
0.0269665
0.0265843
0.0261994
0.0258118
0.0254214
0.0250283
0.0246324
0.0242338
0.0238323
0.023428
0.0230209
0.0226109
0.0221981
0.0217823
0.0213636
0.020942
0.0205175
0.0200899
0.0196594
0.0192258
0.0187892
0.0183495
0.0179068
0.0174609
0.0170119
0.0165597
0.0161043
0.0156458
0.015184
0.014719
0.0142507
0.0137791
0.0133042
0.012826
0.0123444
0.0118595
0.011371
0.0108793
0.0103839
0.00988531
0.0093829
0.00887723
0.00836785
0.00785484
0.00733854
0.00681804
0.00629464
0.00576679
0.00523579
0.00470089
0.00416197
0.0036198
0.00307331
0.00252319
0.00196934
0.00141134
0.000849537
0.000283857
-0.114662
-0.109947
-0.104167
-0.0949421
-0.0750894
-0.0716544
-0.0924458
-0.110342
-0.105875
-0.0900312
-0.0679214
-0.0483097
-0.0601573
-0.114703
-0.191531
-0.260799
-0.281711
-0.219369
-0.100487
-0.00691432
0.0383958
0.0494393
0.0472934
0.0427506
0.0390823
0.0365512
0.0348309
0.0336372
0.0327762
0.0321207
0.0315897
0.0311327
0.0307185
0.0303282
0.0299506
0.0295791
0.0292098
0.0288406
0.0284701
0.0280978
0.0277232
0.0273461
0.0269665
0.0265843
0.0261994
0.0258117
0.0254214
0.0250283
0.0246324
0.0242338
0.0238323
0.023428
0.0230209
0.0226109
0.0221981
0.0217823
0.0213636
0.020942
0.0205175
0.0200899
0.0196594
0.0192258
0.0187892
0.0183495
0.0179068
0.0174609
0.0170119
0.0165597
0.0161043
0.0156458
0.015184
0.014719
0.0142507
0.0137791
0.0133042
0.012826
0.0123444
0.0118595
0.011371
0.0108793
0.0103839
0.00988531
0.0093829
0.00887723
0.00836785
0.00785484
0.00733854
0.00681804
0.00629464
0.00576679
0.00523579
0.00470089
0.00416197
0.0036198
0.00307331
0.00252319
0.00196935
0.00141134
0.000849534
0.000283858
-0.114137
-0.107765
-0.102287
-0.0960394
-0.0785572
-0.0717065
-0.0863191
-0.0983429
-0.093474
-0.082202
-0.0637183
-0.0457425
-0.0578022
-0.110504
-0.185771
-0.253782
-0.272541
-0.210821
-0.0952546
-0.00357142
0.0405637
0.051227
0.0487
0.0437129
0.039667
0.0368828
0.0350128
0.0337353
0.0328289
0.0321489
0.0316048
0.0311406
0.0307226
0.0303302
0.0299516
0.0295796
0.02921
0.0288406
0.0284701
0.0280978
0.0277232
0.0273461
0.0269665
0.0265843
0.0261994
0.0258117
0.0254214
0.0250283
0.0246324
0.0242338
0.0238323
0.023428
0.0230209
0.0226109
0.0221981
0.0217823
0.0213636
0.020942
0.0205175
0.0200899
0.0196594
0.0192258
0.0187892
0.0183495
0.0179068
0.0174609
0.0170119
0.0165597
0.0161043
0.0156458
0.015184
0.014719
0.0142507
0.0137791
0.0133042
0.012826
0.0123444
0.0118595
0.011371
0.0108793
0.0103839
0.00988531
0.0093829
0.00887723
0.00836785
0.00785484
0.00733854
0.00681804
0.00629464
0.00576679
0.00523578
0.00470089
0.00416197
0.0036198
0.00307331
0.00252318
0.00196935
0.00141134
0.000849532
0.000283858
-0.113786
-0.105787
-0.100884
-0.0968012
-0.0809398
-0.0719787
-0.0812986
-0.0882129
-0.0834876
-0.0764905
-0.061402
-0.0449233
-0.056926
-0.106938
-0.179791
-0.245794
-0.261844
-0.201354
-0.0895312
-0.000246963
0.042446
0.0527179
0.0498968
0.0445553
0.0401875
0.0371792
0.0351747
0.0338216
0.0328746
0.0321731
0.0316174
0.0311472
0.0307259
0.0303319
0.0299524
0.0295799
0.0292101
0.0288407
0.0284701
0.0280977
0.0277232
0.0273461
0.0269665
0.0265843
0.0261994
0.0258117
0.0254214
0.0250283
0.0246324
0.0242338
0.0238323
0.023428
0.0230209
0.0226109
0.0221981
0.0217823
0.0213636
0.020942
0.0205175
0.0200899
0.0196594
0.0192258
0.0187892
0.0183495
0.0179068
0.0174609
0.0170119
0.0165597
0.0161043
0.0156458
0.015184
0.014719
0.0142507
0.0137791
0.0133042
0.012826
0.0123444
0.0118595
0.011371
0.0108793
0.0103839
0.00988531
0.0093829
0.00887723
0.00836785
0.00785484
0.00733854
0.00681804
0.00629464
0.00576679
0.00523578
0.0047009
0.00416196
0.0036198
0.00307331
0.00252318
0.00196935
0.00141133
0.000849529
0.000283858
-0.113459
-0.104149
-0.0998417
-0.0972769
-0.082554
-0.0723712
-0.0772785
-0.0801295
-0.0760236
-0.0727773
-0.0606072
-0.0455668
-0.0573249
-0.103979
-0.173754
-0.237234
-0.251501
-0.191421
-0.0835341
0.00290564
0.0440194
0.0539153
0.0508849
0.0452748
0.0406403
0.0374376
0.0353146
0.0338952
0.0329128
0.0321929
0.0316276
0.0311523
0.0307284
0.030333
0.0299529
0.0295801
0.0292102
0.0288407
0.0284701
0.0280977
0.0277231
0.0273461
0.0269665
0.0265843
0.0261994
0.0258117
0.0254214
0.0250283
0.0246324
0.0242338
0.0238323
0.023428
0.0230209
0.0226109
0.0221981
0.0217823
0.0213636
0.020942
0.0205175
0.0200899
0.0196594
0.0192258
0.0187892
0.0183495
0.0179068
0.0174609
0.0170119
0.0165597
0.0161043
0.0156458
0.015184
0.014719
0.0142507
0.0137791
0.0133042
0.012826
0.0123444
0.0118595
0.011371
0.0108793
0.0103839
0.00988531
0.0093829
0.00887722
0.00836785
0.00785484
0.00733854
0.00681804
0.00629464
0.00576679
0.00523578
0.0047009
0.00416196
0.0036198
0.00307331
0.00252318
0.00196936
0.00141133
0.000849527
0.000283858
-0.113072
-0.102941
-0.0990934
-0.0974838
-0.0836209
-0.0728021
-0.074162
-0.0741605
-0.0710297
-0.0707582
-0.0608157
-0.0472995
-0.0587705
-0.101466
-0.1678
-0.228524
-0.241149
-0.181597
-0.0776073
0.00573363
0.0452751
0.054831
0.0516706
0.0458707
0.0410225
0.0376578
0.0354311
0.0339554
0.0329434
0.0322083
0.0316353
0.0311561
0.0307302
0.0303338
0.0299532
0.0295802
0.0292102
0.0288406
0.0284701
0.0280977
0.0277231
0.0273461
0.0269665
0.0265843
0.0261994
0.0258117
0.0254214
0.0250283
0.0246324
0.0242338
0.0238323
0.023428
0.0230209
0.0226109
0.0221981
0.0217823
0.0213636
0.020942
0.0205175
0.0200899
0.0196594
0.0192258
0.0187892
0.0183495
0.0179068
0.0174609
0.0170119
0.0165597
0.0161043
0.0156458
0.015184
0.014719
0.0142507
0.0137791
0.0133042
0.012826
0.0123444
0.0118595
0.011371
0.0108793
0.0103839
0.00988531
0.0093829
0.00887722
0.00836785
0.00785484
0.00733854
0.00681804
0.00629464
0.00576679
0.00523578
0.0047009
0.00416196
0.00361981
0.00307331
0.00252318
0.00196936
0.00141133
0.000849524
0.000283859
-0.112609
-0.102177
-0.0985948
-0.0974479
-0.084352
-0.0732089
-0.07194
-0.0702773
-0.068208
-0.0699065
-0.061435
-0.0504958
-0.0608288
-0.0993224
-0.162079
-0.22011
-0.231307
-0.172432
-0.0721661
0.00810775
0.0462151
0.0554827
0.0522635
0.0463438
0.0413311
0.0378324
0.0355232
0.0340019
0.0329665
0.0322197
0.0316409
0.0311587
0.0307314
0.0303343
0.0299534
0.0295802
0.0292102
0.0288406
0.02847
0.0280977
0.0277231
0.0273461
0.0269665
0.0265843
0.0261993
0.0258117
0.0254214
0.0250283
0.0246324
0.0242338
0.0238323
0.023428
0.0230209
0.0226109
0.0221981
0.0217823
0.0213636
0.020942
0.0205175
0.0200899
0.0196594
0.0192258
0.0187892
0.0183495
0.0179068
0.0174609
0.0170119
0.0165597
0.0161043
0.0156458
0.015184
0.014719
0.0142507
0.0137791
0.0133042
0.012826
0.0123444
0.0118595
0.011371
0.0108793
0.0103839
0.00988531
0.0093829
0.00887722
0.00836785
0.00785484
0.00733854
0.00681804
0.00629464
0.00576679
0.00523578
0.0047009
0.00416196
0.00361981
0.00307331
0.00252317
0.00196936
0.00141133
0.000849522
0.000283859
-0.112077
-0.101804
-0.0983128
-0.0972247
-0.0848403
-0.0735772
-0.0706255
-0.0682122
-0.0670049
-0.0695932
-0.0617917
-0.0526565
-0.0629601
-0.0975379
-0.15679
-0.212422
-0.22253
-0.164447
-0.0675547
0.00992189
0.0468577
0.0558927
0.0526762
0.0466953
0.0415641
0.0379636
0.0355915
0.034036
0.0329833
0.0322279
0.0316449
0.0311606
0.0307322
0.0303347
0.0299535
0.0295802
0.0292101
0.0288406
0.02847
0.0280976
0.0277231
0.0273461
0.0269665
0.0265843
0.0261993
0.0258117
0.0254214
0.0250283
0.0246324
0.0242338
0.0238323
0.023428
0.0230209
0.0226109
0.0221981
0.0217823
0.0213636
0.020942
0.0205175
0.0200899
0.0196594
0.0192258
0.0187892
0.0183495
0.0179068
0.0174609
0.0170119
0.0165597
0.0161043
0.0156458
0.015184
0.014719
0.0142507
0.0137791
0.0133042
0.012826
0.0123444
0.0118595
0.011371
0.0108793
0.0103839
0.00988531
0.0093829
0.00887722
0.00836785
0.00785484
0.00733854
0.00681804
0.00629464
0.00576679
0.00523578
0.0047009
0.00416196
0.00361981
0.00307331
0.00252317
0.00196937
0.00141133
0.000849521
0.000283859
-0.111517
-0.101738
-0.0982138
-0.0968948
-0.0851123
-0.0739221
-0.0701259
-0.0674715
-0.0667127
-0.0694036
-0.0616558
-0.0541816
-0.0646757
-0.0962305
-0.152278
-0.205894
-0.215305
-0.15809
-0.0640047
0.0111137
0.0472443
0.0560886
0.0529201
0.0469262
0.0417225
0.0380539
0.0356392
0.0340602
0.0329953
0.0322339
0.0316479
0.0311621
0.0307329
0.030335
0.0299536
0.0295803
0.0292101
0.0288405
0.02847
0.0280976
0.0277231
0.0273461
0.0269665
0.0265842
0.0261993
0.0258117
0.0254214
0.0250283
0.0246324
0.0242338
0.0238323
0.023428
0.0230209
0.0226109
0.0221981
0.0217823
0.0213636
0.020942
0.0205175
0.0200899
0.0196594
0.0192258
0.0187892
0.0183495
0.0179068
0.0174609
0.0170119
0.0165597
0.0161043
0.0156458
0.015184
0.014719
0.0142507
0.0137791
0.0133042
0.012826
0.0123444
0.0118595
0.011371
0.0108793
0.0103839
0.00988531
0.0093829
0.00887723
0.00836785
0.00785485
0.00733854
0.00681804
0.00629464
0.00576679
0.00523579
0.0047009
0.00416196
0.00361981
0.00307331
0.00252317
0.00196937
0.00141133
0.000849521
0.000283859
-0.111024
-0.101802
-0.0982599
-0.096568
-0.085207
-0.0742589
-0.0701058
-0.0673799
-0.066733
-0.0692297
-0.0611843
-0.054823
-0.06563
-0.0956451
-0.149165
-0.201099
-0.210075
-0.153679
-0.0616584
0.0116567
0.0474429
0.056098
0.053008
0.0470406
0.0418124
0.038108
0.0356691
0.0340761
0.0330036
0.0322382
0.0316501
0.0311633
0.0307335
0.0303353
0.0299538
0.0295803
0.0292102
0.0288406
0.02847
0.0280976
0.0277231
0.0273461
0.0269665
0.0265842
0.0261993
0.0258117
0.0254214
0.0250283
0.0246324
0.0242338
0.0238323
0.023428
0.0230209
0.0226109
0.0221981
0.0217823
0.0213636
0.020942
0.0205175
0.0200899
0.0196594
0.0192258
0.0187892
0.0183495
0.0179068
0.0174609
0.0170119
0.0165597
0.0161043
0.0156458
0.015184
0.014719
0.0142507
0.0137791
0.0133042
0.012826
0.0123444
0.0118595
0.011371
0.0108793
0.0103839
0.00988531
0.0093829
0.00887723
0.00836785
0.00785485
0.00733854
0.00681804
0.00629463
0.00576679
0.00523579
0.0047009
0.00416196
0.00361981
0.00307331
0.00252318
0.00196937
0.00141133
0.000849521
0.000283859
-0.110731
-0.101925
-0.0983891
-0.0963905
-0.0851825
-0.0746375
-0.0702632
-0.0674574
-0.0667724
-0.069036
-0.0605025
-0.0546772
-0.0663147
-0.0960851
-0.14795
-0.198788
-0.207347
-0.151398
-0.060468
0.0119073
0.0474857
0.0560469
0.0530114
0.0470678
0.0418425
0.0381275
0.0356803
0.0340822
0.0330068
0.0322399
0.031651
0.0311637
0.0307338
0.0303354
0.0299538
0.0295803
0.0292102
0.0288405
0.02847
0.0280976
0.0277231
0.0273461
0.0269665
0.0265842
0.0261993
0.0258117
0.0254214
0.0250283
0.0246324
0.0242338
0.0238323
0.023428
0.0230209
0.0226109
0.0221981
0.0217823
0.0213636
0.020942
0.0205175
0.0200899
0.0196594
0.0192258
0.0187892
0.0183495
0.0179068
0.0174609
0.0170119
0.0165597
0.0161043
0.0156458
0.015184
0.014719
0.0142507
0.0137791
0.0133042
0.012826
0.0123444
0.0118595
0.011371
0.0108793
0.0103839
0.00988531
0.0093829
0.00887723
0.00836785
0.00785485
0.00733854
0.00681805
0.00629463
0.00576679
0.00523579
0.00470089
0.00416196
0.00361981
0.00307331
0.00252318
0.00196936
0.00141133
0.000849523
0.000283859
-0.108092
-0.109614
-0.120625
-0.132521
-0.139113
-0.129643
-0.142126
-0.176631
-0.186231
-0.192365
-0.202191
-0.188731
-0.106252
0.0080404
0.0761083
0.0858429
0.0587295
0.0296843
0.0108076
0.00308728
0.00274153
0.0066643
0.0126587
0.0187795
0.0237747
0.027233
0.0293391
0.0304733
0.0309831
0.0311178
0.0310358
0.0308309
0.0305567
0.0302431
0.0299069
0.0295574
0.0291995
0.028836
0.0284683
0.0280972
0.0277232
0.0273463
0.0269667
0.0265845
0.0261995
0.0258118
0.0254215
0.0250283
0.0246325
0.0242338
0.0238323
0.023428
0.0230209
0.0226109
0.0221981
0.0217823
0.0213636
0.020942
0.0205175
0.0200899
0.0196594
0.0192258
0.0187892
0.0183495
0.0179068
0.0174609
0.0170119
0.0165597
0.0161043
0.0156458
0.015184
0.014719
0.0142507
0.0137791
0.0133042
0.012826
0.0123444
0.0118595
0.011371
0.0108793
0.0103839
0.00988531
0.0093829
0.00887723
0.00836785
0.00785485
0.00733853
0.00681805
0.00629463
0.00576679
0.00523579
0.00470088
0.00416197
0.0036198
0.00307332
0.00252317
0.00196936
0.00141133
0.000849519
0.00028386
-0.108517
-0.11029
-0.121008
-0.132627
-0.13919
-0.129511
-0.141811
-0.179188
-0.188369
-0.192671
-0.202545
-0.191137
-0.109341
0.00572238
0.0749031
0.0852314
0.0583379
0.0293303
0.0105567
0.00296968
0.00268548
0.00663116
0.0126452
0.0187901
0.0237939
0.0272505
0.0293516
0.030481
0.0309874
0.0311201
0.031037
0.0308315
0.0305569
0.0302432
0.029907
0.0295574
0.0291995
0.0288359
0.0284683
0.0280972
0.0277232
0.0273463
0.0269667
0.0265845
0.0261995
0.0258118
0.0254215
0.0250283
0.0246325
0.0242338
0.0238323
0.023428
0.0230209
0.0226109
0.0221981
0.0217823
0.0213636
0.020942
0.0205175
0.0200899
0.0196594
0.0192258
0.0187892
0.0183495
0.0179068
0.0174609
0.0170119
0.0165597
0.0161043
0.0156458
0.015184
0.014719
0.0142507
0.0137791
0.0133042
0.012826
0.0123444
0.0118595
0.011371
0.0108793
0.0103839
0.00988531
0.0093829
0.00887722
0.00836785
0.00785485
0.00733854
0.00681805
0.00629463
0.00576679
0.00523579
0.00470089
0.00416197
0.0036198
0.00307332
0.00252317
0.00196937
0.00141133
0.000849518
0.00028386
-0.109219
-0.111221
-0.121691
-0.132948
-0.13915
-0.129004
-0.145437
-0.187518
-0.193918
-0.192796
-0.203114
-0.195294
-0.11468
0.00206867
0.0725454
0.0838807
0.0573288
0.0283502
0.00984701
0.00264036
0.00256451
0.00659686
0.0126659
0.0188422
0.0238498
0.027295
0.0293816
0.0304992
0.0309976
0.0311256
0.0310399
0.0308329
0.0305576
0.0302436
0.0299072
0.0295575
0.0291995
0.028836
0.0284683
0.0280972
0.0277232
0.0273463
0.0269667
0.0265845
0.0261995
0.0258118
0.0254215
0.0250283
0.0246325
0.0242338
0.0238323
0.023428
0.0230209
0.0226109
0.0221981
0.0217823
0.0213636
0.020942
0.0205175
0.0200899
0.0196594
0.0192258
0.0187892
0.0183495
0.0179068
0.0174609
0.0170119
0.0165597
0.0161043
0.0156458
0.015184
0.014719
0.0142507
0.0137791
0.0133042
0.012826
0.0123444
0.0118595
0.011371
0.0108793
0.0103839
0.00988531
0.0093829
0.00887722
0.00836785
0.00785485
0.00733854
0.00681805
0.00629463
0.00576679
0.00523579
0.00470089
0.00416197
0.0036198
0.00307332
0.00252317
0.00196937
0.00141133
0.000849517
0.00028386
-0.110132
-0.112291
-0.122648
-0.133548
-0.140062
-0.12898
-0.152761
-0.199776
-0.202203
-0.192649
-0.203654
-0.200073
-0.121085
-0.00219959
0.0688316
0.081464
0.0554575
0.0267116
0.00870947
0.00213004
0.00240539
0.00657803
0.0127222
0.0189327
0.0239362
0.0273594
0.0294231
0.0305234
0.0310109
0.0311325
0.0310433
0.0308346
0.0305584
0.0302439
0.0299073
0.0295575
0.0291995
0.0288359
0.0284683
0.0280972
0.0277231
0.0273463
0.0269667
0.0265845
0.0261995
0.0258118
0.0254215
0.0250283
0.0246325
0.0242338
0.0238323
0.023428
0.0230209
0.0226109
0.0221981
0.0217823
0.0213636
0.020942
0.0205175
0.0200899
0.0196594
0.0192258
0.0187892
0.0183495
0.0179068
0.0174609
0.0170119
0.0165597
0.0161043
0.0156458
0.015184
0.014719
0.0142507
0.0137791
0.0133042
0.012826
0.0123444
0.0118595
0.011371
0.0108793
0.0103839
0.00988531
0.0093829
0.00887722
0.00836785
0.00785484
0.00733854
0.00681805
0.00629463
0.00576679
0.00523579
0.00470089
0.00416197
0.0036198
0.00307332
0.00252317
0.00196937
0.00141133
0.000849517
0.00028386
-0.1111
-0.113349
-0.123793
-0.134455
-0.141382
-0.129757
-0.163509
-0.213685
-0.211966
-0.192386
-0.204151
-0.205316
-0.127848
-0.00697539
0.0635601
0.0775088
0.0522684
0.0242343
0.0071338
0.00143625
0.00218768
0.00655633
0.0128021
0.0190547
0.0240489
0.0274413
0.0294745
0.0305526
0.0310264
0.0311404
0.0310472
0.0308365
0.0305592
0.0302442
0.0299074
0.0295575
0.0291995
0.0288359
0.0284682
0.0280972
0.0277231
0.0273463
0.0269667
0.0265845
0.0261995
0.0258118
0.0254215
0.0250283
0.0246325
0.0242338
0.0238323
0.023428
0.0230209
0.0226109
0.0221981
0.0217823
0.0213636
0.020942
0.0205175
0.0200899
0.0196594
0.0192258
0.0187892
0.0183495
0.0179068
0.0174609
0.0170119
0.0165597
0.0161043
0.0156458
0.015184
0.014719
0.0142507