/*--------------------------------*- C++ -*----------------------------------*\
| =========                 |                                                 |
| \\      /  F ield         | OpenFOAM: The Open Source CFD Toolbox           |
|  \\    /   O peration     | Version:  2.4.0                                 |
|   \\  /    A nd           | Web:      www.OpenFOAM.org                      |
|    \\/     M anipulation  |                                                 |
\*---------------------------------------------------------------------------*/
FoamFile
{
    version     2.0;
    format      ascii;
    class       volVectorField;
    location    "14";
    object      U;
}
// * * * * * * * * * * * * * * * * * * * * * * * * * * * * * * * * * * * * * //

dimensions      [0 1 -1 0 0 0 0];

internalField   nonuniform List<vector> 
4400
(
(0.0895322 0.000444178 0)
(0.0869989 0.000816934 0)
(0.0968607 -0.00211762 0)
(0.105223 0.000703981 0)
(0.0964192 0.000587076 0)
(0.10973 -0.00128527 0)
(0.0881604 0.00183962 0)
(0.106506 -0.00109043 0)
(0.0908982 -0.000503814 0)
(0.106128 0.00157675 0)
(0.0880496 -0.00172941 0)
(0.110036 0.000642947 0)
(0.0883671 0.000806563 0)
(0.101361 -0.00150188 0)
(0.0994596 0.000939308 0)
(0.094136 0.000416979 0)
(0.09324 -0.000680606 0)
(0.103895 -4.39891e-06 0)
(0.0809525 0.00117619 0)
(0.109263 0.000476143 0)
(0.261992 0.00151398 0)
(0.271633 0.00284981 0)
(0.273139 -0.00732922 0)
(0.28646 0.00232982 0)
(0.269378 0.000896383 0)
(0.302212 -0.00311308 0)
(0.242748 0.00525766 0)
(0.315074 -0.0029193 0)
(0.24201 -0.00162817 0)
(0.304023 0.00501202 0)
(0.262288 -0.00441441 0)
(0.283353 0.000428085 0)
(0.275955 0.00480559 0)
(0.276411 -0.0059056 0)
(0.270994 0.00247798 0)
(0.286902 0.00342765 0)
(0.252455 -0.00472335 0)
(0.296531 0.00174913 0)
(0.243674 0.0033477 0)
(0.300434 -0.00342155 0)
(0.411724 0.00239226 0)
(0.447171 0.00501205 0)
(0.429086 -0.0129887 0)
(0.449468 0.00539589 0)
(0.424562 -0.000835199 0)
(0.471791 -0.00346349 0)
(0.388305 0.0084949 0)
(0.489818 -0.00671278 0)
(0.396457 0.00047588 0)
(0.458497 0.00471375 0)
(0.440684 -0.005296 0)
(0.429578 0.000851526 0)
(0.440081 0.00580235 0)
(0.451458 -0.00679272 0)
(0.410349 0.0021256 0)
(0.46754 0.00587766 0)
(0.40817 -0.00641306 0)
(0.456638 0.000993616 0)
(0.409536 0.00743888 0)
(0.476396 -0.00666024 0)
(0.539877 0.0026308 0)
(0.595317 0.00650095 0)
(0.580071 -0.0172372 0)
(0.580697 0.008444 0)
(0.579875 -0.00185126 0)
(0.607948 -0.00423934 0)
(0.530572 0.0128035 0)
(0.635286 -0.0117728 0)
(0.539562 0.00395398 0)
(0.591583 0.00420216 0)
(0.596117 -0.00773548 0)
(0.563921 0.00422392 0)
(0.577971 0.00407141 0)
(0.609611 -0.00664122 0)
(0.538739 0.00301213 0)
(0.612263 0.00545151 0)
(0.563071 -0.00586531 0)
(0.591522 0.000576257 0)
(0.550894 0.00798506 0)
(0.631486 -0.00662622 0)
(0.65853 0.00416908 0)
(0.700166 0.00456621 0)
(0.72417 -0.0198579 0)
(0.682774 0.0116398 0)
(0.715518 -0.00424476 0)
(0.730312 -0.00249988 0)
(0.646718 0.0158427 0)
(0.761036 -0.0169736 0)
(0.666141 0.00909285 0)
(0.698698 0.00250667 0)
(0.728893 -0.010717 0)
(0.682491 0.0100672 0)
(0.690669 -5.79678e-05 0)
(0.73937 -0.00691826 0)
(0.660506 0.00688057 0)
(0.72165 0.002064 0)
(0.697454 -0.0057184 0)
(0.708071 0.00271927 0)
(0.67033 0.00726785 0)
(0.745901 -0.00916178 0)
(0.770658 0.00790406 0)
(0.772815 0.000386658 0)
(0.838639 -0.0236133 0)
(0.771281 0.0167163 0)
(0.812835 -0.0100037 0)
(0.837595 0.000679875 0)
(0.743065 0.0193575 0)
(0.854427 -0.024273 0)
(0.777738 0.015493 0)
(0.782965 0.00121921 0)
(0.829855 -0.0162431 0)
(0.784741 0.0176304 0)
(0.780682 -0.00410153 0)
(0.835853 -0.00970562 0)
(0.768243 0.0130035 0)
(0.806409 -0.00169173 0)
(0.801534 -0.00745877 0)
(0.805178 0.00643282 0)
(0.771946 0.00725462 0)
(0.828327 -0.0139248 0)
(0.866604 0.0127363 0)
(0.835892 -0.00325336 0)
(0.916213 -0.029356 0)
(0.849974 0.0236681 0)
(0.880332 -0.0177868 0)
(0.917091 0.00321849 0)
(0.827583 0.0240068 0)
(0.91824 -0.0325097 0)
(0.867104 0.0217221 0)
(0.854829 0.00155543 0)
(0.901477 -0.0230255 0)
(0.867252 0.0249597 0)
(0.855139 -0.00615109 0)
(0.90461 -0.0145495 0)
(0.854946 0.019507 0)
(0.875263 -0.00403203 0)
(0.878758 -0.0108169 0)
(0.881308 0.0104276 0)
(0.854766 0.00838703 0)
(0.892516 -0.019082 0)
(0.936751 0.0170989 0)
(0.897197 -0.00533581 0)
(0.965676 -0.0352366 0)
(0.91455 0.0310646 0)
(0.931242 -0.0252303 0)
(0.967729 0.00492552 0)
(0.898259 0.0285028 0)
(0.961379 -0.0394151 0)
(0.931589 0.0265565 0)
(0.914805 0.00295768 0)
(0.951678 -0.0289949 0)
(0.928701 0.0305517 0)
(0.915471 -0.00608555 0)
(0.953307 -0.0197072 0)
(0.919758 0.0250128 0)
(0.929705 -0.0044714 0)
(0.934955 -0.0150321 0)
(0.937995 0.0140577 0)
(0.917226 0.00996138 0)
(0.943405 -0.023431 0)
(0.979457 0.020228 0)
(0.950602 -0.00639254 0)
(0.993266 -0.0395133 0)
(0.962084 0.0373385 0)
(0.968377 -0.0309563 0)
(0.994354 0.00649029 0)
(0.951948 0.0313364 0)
(0.986546 -0.043593 0)
(0.973216 0.0295922 0)
(0.958826 0.00426512 0)
(0.982994 -0.0329311 0)
(0.969777 0.0335979 0)
(0.959316 -0.00455908 0)
(0.984033 -0.0240774 0)
(0.963775 0.0285438 0)
(0.968301 -0.00344807 0)
(0.971673 -0.0193265 0)
(0.976349 0.0170566 0)
(0.959504 0.0114082 0)
(0.979195 -0.0268633 0)
(0.997224 0.022033 0)
(0.989586 -0.00731813 0)
(0.999433 -0.0410904 0)
(0.991925 0.0412 0)
(0.988664 -0.0342652 0)
(1.00038 0.0083881 0)
(0.98689 0.0317495 0)
(0.993452 -0.0444057 0)
(0.994197 0.0306904 0)
(0.984308 0.00502868 0)
(0.99563 -0.0341189 0)
(0.990704 0.0339339 0)
(0.985127 -0.00246429 0)
(0.996057 -0.0268214 0)
(0.987643 0.0297059 0)
(0.989405 -0.00128287 0)
(0.989104 -0.0229254 0)
(0.995774 0.0191045 0)
(0.982573 0.012653 0)
(0.99726 -0.0291268 0)
(0.992949 0.022533 0)
(1.0104 -0.00840797 0)
(0.983653 -0.039454 0)
(1.00401 0.0417574 0)
(0.988887 -0.0346922 0)
(0.987872 0.0104376 0)
(1.00161 0.0298072 0)
(0.982028 -0.0419474 0)
(0.995685 0.0297307 0)
(0.990485 0.00517049 0)
(0.989664 -0.0326507 0)
(0.991644 0.0319687 0)
(0.992206 -0.000509697 0)
(0.988828 -0.0274017 0)
(0.992025 0.0286563 0)
(0.991405 0.00123943 0)
(0.988049 -0.0252209 0)
(0.994966 0.0199709 0)
(0.987769 0.0133733 0)
(0.995505 -0.0299146 0)
(0.969388 0.0216321 0)
(1.01008 -0.00921958 0)
(0.946171 -0.0350008 0)
(0.997891 0.0386278 0)
(0.966944 -0.0321824 0)
(0.958161 0.0119217 0)
(0.994954 0.0258845 0)
(0.952325 -0.0368818 0)
(0.977856 0.0268919 0)
(0.977443 0.00474954 0)
(0.964264 -0.0290967 0)
(0.973629 0.0281231 0)
(0.979241 0.0011259 0)
(0.962512 -0.0259749 0)
(0.97721 0.0258535 0)
(0.973459 0.00312727 0)
(0.969096 -0.0257178 0)
(0.973181 0.019661 0)
(0.975769 0.0134054 0)
(0.97254 -0.0290449 0)
(0.929389 0.0192842 0)
(0.985238 -0.00917234 0)
(0.888123 -0.0286339 0)
(0.972823 0.0323309 0)
(0.921475 -0.0269196 0)
(0.912228 0.0120184 0)
(0.966615 0.0209647 0)
(0.903798 -0.0299676 0)
(0.94134 0.0223159 0)
(0.94493 0.00407599 0)
(0.918101 -0.0241148 0)
(0.938792 0.0228172 0)
(0.943995 0.00246193 0)
(0.918733 -0.023152 0)
(0.942416 0.0219525 0)
(0.936259 0.00447022 0)
(0.931213 -0.0243175 0)
(0.931375 0.0181411 0)
(0.945485 0.0127219 0)
(0.928606 -0.0264837 0)
(0.875755 0.0155334 0)
(0.931557 -0.00766377 0)
(0.812259 -0.0216794 0)
(0.928308 0.0239226 0)
(0.851161 -0.0194959 0)
(0.85275 0.0102084 0)
(0.916513 0.015963 0)
(0.835373 -0.0220751 0)
(0.889417 0.0160708 0)
(0.890661 0.00378071 0)
(0.852248 -0.0185765 0)
(0.889009 0.0167721 0)
(0.884574 0.00384556 0)
(0.860097 -0.0196764 0)
(0.886456 0.0175199 0)
(0.881807 0.00520604 0)
(0.871729 -0.0212871 0)
(0.873152 0.0155568 0)
(0.893944 0.0114296 0)
(0.866303 -0.0225566 0)
(0.809488 0.0107079 0)
(0.843832 -0.00425716 0)
(0.72546 -0.0158767 0)
(0.862076 0.0149966 0)
(0.755879 -0.0109094 0)
(0.785567 0.00582271 0)
(0.840883 0.0119166 0)
(0.749235 -0.0145006 0)
(0.825507 0.00859011 0)
(0.809447 0.00477805 0)
(0.772577 -0.0139875 0)
(0.821742 0.0107224 0)
(0.801936 0.00541515 0)
(0.78687 -0.0162832 0)
(0.809625 0.0129574 0)
(0.809875 0.00531222 0)
(0.789428 -0.0172463 0)
(0.8019 0.0120981 0)
(0.818158 0.00988148 0)
(0.788686 -0.0179363 0)
(0.725216 0.00587198 0)
(0.721382 0.000640502 0)
(0.637794 -0.0130088 0)
(0.76462 0.00812188 0)
(0.643073 -0.00321516 0)
(0.710058 -0.000365315 0)
(0.730823 0.0106017 0)
(0.654636 -0.00942986 0)
(0.740859 0.00185762 0)
(0.69872 0.00716279 0)
(0.684073 -0.0116556 0)
(0.727281 0.00609582 0)
(0.699477 0.00675041 0)
(0.694525 -0.0134611 0)
(0.713446 0.00874978 0)
(0.714154 0.00555528 0)
(0.687903 -0.0132387 0)
(0.714142 0.00807833 0)
(0.717422 0.00858551 0)
(0.694341 -0.0132184 0)
(0.611348 0.00266182 0)
(0.577904 0.00469653 0)
(0.546587 -0.0125415 0)
(0.626147 0.00512868 0)
(0.528018 0.000851543 0)
(0.605989 -0.00487373 0)
(0.588588 0.0112869 0)
(0.555539 -0.0078145 0)
(0.615939 -0.00110778 0)
(0.569333 0.00887378 0)
(0.578598 -0.0107526 0)
(0.598478 0.0041001 0)
(0.57952 0.00709047 0)
(0.578832 -0.0110945 0)
(0.594444 0.00561957 0)
(0.589598 0.00594443 0)
(0.572971 -0.0102443 0)
(0.597986 0.00461436 0)
(0.59422 0.00774975 0)
(0.578135 -0.00912578 0)
(0.463734 0.00145461 0)
(0.431812 0.00538895 0)
(0.429911 -0.0109635 0)
(0.457357 0.00428337 0)
(0.40995 0.00129879 0)
(0.457182 -0.00514235 0)
(0.436865 0.0100138 0)
(0.434144 -0.00676679 0)
(0.453501 -0.000559321 0)
(0.434176 0.00738079 0)
(0.441265 -0.00857559 0)
(0.444659 0.00360242 0)
(0.442901 0.00540878 0)
(0.438774 -0.00823764 0)
(0.447462 0.00405 0)
(0.446376 0.00481167 0)
(0.438424 -0.0075471 0)
(0.44956 0.0028792 0)
(0.452903 0.00622528 0)
(0.439183 -0.00611175 0)
(0.291275 0.000776003 0)
(0.280343 0.00374447 0)
(0.277068 -0.00676944 0)
(0.278833 0.00261753 0)
(0.269138 0.00112465 0)
(0.280277 -0.00348315 0)
(0.280629 0.00600278 0)
(0.278479 -0.00388858 0)
(0.279103 -0.000749065 0)
(0.282602 0.00449596 0)
(0.275996 -0.00481324 0)
(0.279802 0.00163648 0)
(0.28484 0.00347861 0)
(0.27636 -0.00462998 0)
(0.282419 0.00174249 0)
(0.286241 0.0032975 0)
(0.277638 -0.00429502 0)
(0.283921 0.000780026 0)
(0.289973 0.00427281 0)
(0.281628 -0.00376241 0)
(0.101603 0.000271665 0)
(0.107256 0.00121399 0)
(0.0991855 -0.00207243 0)
(0.0940099 0.00074102 0)
(0.0987693 0.000479721 0)
(0.094008 -0.00124784 0)
(0.102191 0.00180774 0)
(0.101106 -0.00116966 0)
(0.0955949 -0.000590894 0)
(0.103718 0.00152146 0)
(0.0982877 -0.00154607 0)
(0.096546 0.000298557 0)
(0.104429 0.00127737 0)
(0.0994366 -0.00158593 0)
(0.0971859 0.000437247 0)
(0.105493 0.00119533 0)
(0.100546 -0.00156709 0)
(0.096939 0.000121173 0)
(0.105855 0.00133949 0)
(0.103251 -0.00148179 0)
(0.0627861 0.00330127 0)
(0.136943 -0.0136017 0)
(0.254592 0.029467 0)
(0.33326 0.131462 0)
(0.518513 0.0695404 0)
(0.607824 -0.0370165 0)
(0.547592 -0.111013 0)
(0.616925 -0.166906 0)
(0.822604 -0.281206 0)
(0.937647 -0.384615 0)
(0.933683 -0.36255 0)
(0.858241 -0.235602 0)
(0.76683 -0.0886961 0)
(0.678943 0.0135227 0)
(0.593614 0.0488639 0)
(0.521375 0.0405869 0)
(0.467001 0.0203794 0)
(0.428662 0.0053847 0)
(0.403437 -0.00137488 0)
(0.387806 -0.00295737 0)
(0.378507 -0.00255754 0)
(0.373152 -0.0018035 0)
(0.370157 -0.00119538 0)
(0.368522 -0.000779287 0)
(0.367651 -0.000499922 0)
(0.367199 -0.000310307 0)
(0.366972 -0.000183013 0)
(0.36686 -0.000100988 0)
(0.366808 -5.12302e-05 0)
(0.366784 -2.31815e-05 0)
(0.366773 -8.63366e-06 0)
(0.366769 -1.87641e-06 0)
(0.366767 7.99494e-07 0)
(0.366766 1.52557e-06 0)
(0.366766 1.44845e-06 0)
(0.366766 1.12046e-06 0)
(0.366766 7.76971e-07 0)
(0.366766 5.02528e-07 0)
(0.366766 3.16483e-07 0)
(0.366766 1.87198e-07 0)
(0.366766 1.02976e-07 0)
(0.366766 6.07616e-08 0)
(0.366766 1.6066e-08 0)
(0.366766 2.14278e-08 0)
(0.366766 1.89537e-09 0)
(0.366766 -1.82177e-09 0)
(0.366766 8.92073e-10 0)
(0.366766 -1.37595e-08 0)
(0.366766 8.46783e-10 0)
(0.366766 3.54706e-09 0)
(0.366766 -1.10207e-09 0)
(0.366766 7.43751e-09 0)
(0.366766 -8.21299e-10 0)
(0.366766 4.83379e-09 0)
(0.366766 1.37663e-09 0)
(0.366766 2.9834e-09 0)
(0.366766 3.16965e-09 0)
(0.366766 -8.55821e-09 0)
(0.366766 2.26962e-09 0)
(0.366766 -1.46334e-09 0)
(0.366766 -3.25455e-09 0)
(0.366766 8.1712e-09 0)
(0.366766 -5.76545e-10 0)
(0.366766 -3.28875e-09 0)
(0.366766 6.66189e-09 0)
(0.366766 -2.10496e-09 0)
(0.366766 -4.16257e-09 0)
(0.366766 4.07068e-09 0)
(0.366766 6.99302e-10 0)
(0.366766 -2.47943e-09 0)
(0.366766 4.2368e-10 0)
(0.366766 1.71325e-09 0)
(0.366766 -3.89181e-09 0)
(0.366766 -1.21692e-09 0)
(0.366766 4.48789e-09 0)
(0.366766 -3.92875e-09 0)
(0.366766 -6.45865e-10 0)
(0.366766 -6.82072e-11 0)
(0.366766 -1.26204e-09 0)
(0.366766 1.15555e-09 0)
(0.366765 -5.96737e-09 0)
(0.366767 3.3162e-09 0)
(0.366764 5.5918e-11 0)
(0.366769 2.8038e-09 0)
(0.366762 -1.19722e-08 0)
(0.366772 1.33896e-08 0)
(0.366757 -8.8154e-09 0)
(0.366777 9.53396e-09 0)
(0.366753 -7.91546e-09 0)
(0.36678 -6.88601e-09 0)
(0.366752 1.26972e-08 0)
(0.366777 -1.51201e-08 0)
(0.366759 2.09131e-08 0)
(0.366768 -2.25746e-08 0)
(0.366768 1.09744e-08 0)
(0.366762 8.62753e-09 0)
(0.366768 -1.29087e-08 0)
(0.366765 1.85342e-08 0)
(0.366765 4.66583e-10 0)
(0.366766 -7.26847e-09 0)
(0.233445 0.00625338 0)
(0.328826 -0.015778 0)
(0.29686 0.00522832 0)
(0.358881 0.0969003 0)
(0.567177 0.0532275 0)
(0.627354 -0.0399837 0)
(0.630365 -0.124408 0)
(0.729495 -0.189436 0)
(0.904234 -0.302512 0)
(0.981262 -0.3948 0)
(0.953565 -0.356191 0)
(0.86517 -0.218967 0)
(0.765257 -0.0704782 0)
(0.674999 0.0297328 0)
(0.592036 0.0629974 0)
(0.52327 0.0522435 0)
(0.470795 0.02912 0)
(0.432477 0.0114259 0)
(0.406319 0.0025375 0)
(0.389652 -0.000560549 0)
(0.37958 -0.00115457 0)
(0.373746 -0.00101056 0)
(0.370482 -0.000759537 0)
(0.368701 -0.000545343 0)
(0.367752 -0.00037718 0)
(0.367256 -0.000247428 0)
(0.367003 -0.000151651 0)
(0.366878 -8.57817e-05 0)
(0.366817 -4.40776e-05 0)
(0.366789 -1.99175e-05 0)
(0.366775 -7.19124e-06 0)
(0.36677 -1.26592e-06 0)
(0.366767 1.04753e-06 0)
(0.366766 1.62856e-06 0)
(0.366766 1.48431e-06 0)
(0.366766 1.12957e-06 0)
(0.366766 7.80008e-07 0)
(0.366766 5.05021e-07 0)
(0.366766 3.15699e-07 0)
(0.366766 1.84256e-07 0)
(0.366766 1.04381e-07 0)
(0.366766 6.02002e-08 0)
(0.366766 1.12768e-08 0)
(0.366766 1.9445e-08 0)
(0.366766 5.59525e-09 0)
(0.366766 -2.50257e-09 0)
(0.366766 -1.8411e-09 0)
(0.366766 -1.76057e-08 0)
(0.366766 1.83142e-09 0)
(0.366766 6.30929e-09 0)
(0.366766 -1.44449e-09 0)
(0.366766 6.14397e-09 0)
(0.366766 1.96393e-09 0)
(0.366766 2.92805e-09 0)
(0.366766 1.6763e-10 0)
(0.366766 2.16231e-09 0)
(0.366766 1.57032e-09 0)
(0.366766 -6.00662e-09 0)
(0.366766 -1.03363e-09 0)
(0.366766 -4.85767e-09 0)
(0.366766 -3.1707e-09 0)
(0.366766 9.17136e-09 0)
(0.366766 2.67326e-09 0)
(0.366766 -2.208e-09 0)
(0.366766 5.29412e-09 0)
(0.366766 1.77456e-09 0)
(0.366766 -1.20089e-11 0)
(0.366766 6.16386e-09 0)
(0.366766 1.46802e-09 0)
(0.366766 -4.14411e-09 0)
(0.366766 -3.19979e-10 0)
(0.366766 3.23192e-09 0)
(0.366766 -6.96109e-10 0)
(0.366766 -8.82025e-10 0)
(0.366766 4.29257e-10 0)
(0.366766 -6.32816e-09 0)
(0.366766 -2.99066e-09 0)
(0.366766 2.84216e-09 0)
(0.366766 1.53654e-09 0)
(0.366766 6.63992e-10 0)
(0.366765 -1.06497e-08 0)
(0.366767 3.38667e-09 0)
(0.366764 -7.433e-09 0)
(0.366769 1.37362e-08 0)
(0.366762 -1.86956e-08 0)
(0.366772 3.04862e-08 0)
(0.366757 -2.35558e-08 0)
(0.366777 2.5422e-08 0)
(0.366753 -2.48971e-08 0)
(0.36678 -3.58607e-09 0)
(0.366752 2.3412e-08 0)
(0.366777 -4.67312e-08 0)
(0.366759 6.54092e-08 0)
(0.366768 -6.89005e-08 0)
(0.366768 3.749e-08 0)
(0.366762 1.94392e-08 0)
(0.366768 -4.37349e-08 0)
(0.366765 4.77892e-08 0)
(0.366765 -1.07506e-09 0)
(0.366766 -2.73497e-08 0)
(0.371702 0.00190587 0)
(0.513545 -0.00927828 0)
(0.42986 0.00307419 0)
(0.414391 0.0608194 0)
(0.584771 0.0353432 0)
(0.664833 -0.0483123 0)
(0.731445 -0.141969 0)
(0.823891 -0.210868 0)
(0.967017 -0.320963 0)
(1.00883 -0.400457 0)
(0.959379 -0.345519 0)
(0.860268 -0.199616 0)
(0.753648 -0.051588 0)
(0.662629 0.045499 0)
(0.583758 0.0763501 0)
(0.520223 0.063283 0)
(0.471267 0.0375915 0)
(0.434267 0.017474 0)
(0.408061 0.00657688 0)
(0.390885 0.0019703 0)
(0.38033 0.00034544 0)
(0.374172 -0.000158755 0)
(0.370719 -0.000291226 0)
(0.368835 -0.00029401 0)
(0.367829 -0.000244999 0)
(0.367301 -0.000179245 0)
(0.367029 -0.000117222 0)
(0.366892 -6.87992e-05 0)
(0.366825 -3.59126e-05 0)
(0.366793 -1.60967e-05 0)
(0.366777 -5.45498e-06 0)
(0.366771 -5.07234e-07 0)
(0.366768 1.36344e-06 0)
(0.366766 1.75855e-06 0)
(0.366766 1.52864e-06 0)
(0.366766 1.14031e-06 0)
(0.366766 7.8091e-07 0)
(0.366766 5.04969e-07 0)
(0.366766 3.13431e-07 0)
(0.366766 1.79724e-07 0)
(0.366766 1.04951e-07 0)
(0.366766 5.87456e-08 0)
(0.366766 7.52016e-09 0)
(0.366766 1.70072e-08 0)
(0.366766 9.59951e-09 0)
(0.366766 -3.08915e-09 0)
(0.366766 -3.71125e-09 0)
(0.366766 -2.03478e-08 0)
(0.366766 1.44529e-09 0)
(0.366766 8.84237e-09 0)
(0.366766 -2.4154e-09 0)
(0.366766 4.26102e-09 0)
(0.366766 5.82166e-09 0)
(0.366766 6.49246e-10 0)
(0.366766 -2.24734e-11 0)
(0.366766 1.79063e-09 0)
(0.366766 -1.00678e-09 0)
(0.366766 -4.25803e-09 0)
(0.366766 -5.14102e-09 0)
(0.366766 -9.85041e-09 0)
(0.366766 -4.24198e-09 0)
(0.366766 8.90181e-09 0)
(0.366766 4.66759e-09 0)
(0.366766 -6.75504e-10 0)
(0.366766 5.0953e-09 0)
(0.366766 6.14733e-09 0)
(0.366766 5.36787e-09 0)
(0.366766 8.96046e-09 0)
(0.366766 3.52537e-09 0)
(0.366766 -3.63827e-09 0)
(0.366766 5.69249e-10 0)
(0.366766 5.30869e-09 0)
(0.366766 3.06263e-09 0)
(0.366766 4.65869e-10 0)
(0.366766 -3.33528e-09 0)
(0.366766 -7.76796e-09 0)
(0.366766 -4.66808e-09 0)
(0.366766 5.33307e-09 0)
(0.366766 3.11674e-09 0)
(0.366766 7.65468e-12 0)
(0.366765 -1.42526e-08 0)
(0.366767 3.61559e-09 0)
(0.366764 -1.61339e-08 0)
(0.366769 2.49693e-08 0)
(0.366762 -2.5039e-08 0)
(0.366772 4.72097e-08 0)
(0.366757 -3.96762e-08 0)
(0.366777 4.1891e-08 0)
(0.366753 -4.11309e-08 0)
(0.36678 8.65638e-10 0)
(0.366752 3.40053e-08 0)
(0.366777 -7.89263e-08 0)
(0.366759 1.10505e-07 0)
(0.366768 -1.14973e-07 0)
(0.366768 6.49243e-08 0)
(0.366762 2.94568e-08 0)
(0.366768 -7.58697e-08 0)
(0.366765 7.65968e-08 0)
(0.366765 -3.67443e-09 0)
(0.366766 -4.69814e-08 0)
(0.519153 0.00123747 0)
(0.621751 -0.0102207 0)
(0.5991 0.00539097 0)
(0.524913 0.0439049 0)
(0.61665 0.0248214 0)
(0.740718 -0.0627481 0)
(0.824835 -0.164384 0)
(0.899547 -0.232417 0)
(1.01515 -0.334704 0)
(1.02034 -0.399964 0)
(0.950473 -0.330213 0)
(0.843152 -0.177835 0)
(0.732114 -0.0324549 0)
(0.642148 0.0604434 0)
(0.569056 0.0885752 0)
(0.51236 0.0733601 0)
(0.46839 0.0455047 0)
(0.433923 0.0233222 0)
(0.408546 0.0106093 0)
(0.391422 0.00455349 0)
(0.380712 0.00189714 0)
(0.374408 0.000727852 0)
(0.37086 0.000197627 0)
(0.368921 -3.1082e-05 0)
(0.367882 -0.000106311 0)
(0.367334 -0.000107285 0)
(0.367049 -8.05217e-05 0)
(0.366904 -5.04435e-05 0)
(0.366831 -2.6931e-05 0)
(0.366796 -1.18096e-05 0)
(0.366779 -3.46687e-06 0)
(0.366771 3.78695e-07 0)
(0.366768 1.73966e-06 0)
(0.366766 1.91057e-06 0)
(0.366766 1.58052e-06 0)
(0.366766 1.15292e-06 0)
(0.366766 7.79297e-07 0)
(0.366766 5.01695e-07 0)
(0.366766 3.09799e-07 0)
(0.366766 1.74036e-07 0)
(0.366766 1.03935e-07 0)
(0.366766 5.69834e-08 0)
(0.366766 5.14531e-09 0)
(0.366766 1.52399e-08 0)
(0.366766 1.07939e-08 0)
(0.366766 -3.98232e-09 0)
(0.366766 -4.84888e-09 0)
(0.366766 -1.99676e-08 0)
(0.366766 2.02656e-09 0)
(0.366766 1.19725e-08 0)
(0.366766 -4.53184e-09 0)
(0.366766 2.99385e-09 0)
(0.366766 7.05631e-09 0)
(0.366766 -1.80401e-09 0)
(0.366766 -6.07061e-10 0)
(0.366766 2.34098e-09 0)
(0.366766 -3.08011e-10 0)
(0.366766 -1.43398e-09 0)
(0.366766 -4.60388e-09 0)
(0.366766 -1.12476e-08 0)
(0.366766 -2.9707e-09 0)
(0.366766 9.3833e-09 0)
(0.366766 4.62724e-09 0)
(0.366766 -1.00153e-09 0)
(0.366766 3.80388e-09 0)
(0.366766 5.7315e-09 0)
(0.366766 7.20074e-09 0)
(0.366766 8.75373e-09 0)
(0.366766 1.91677e-09 0)
(0.366766 -4.28795e-09 0)
(0.366766 -4.42533e-11 0)
(0.366766 5.05552e-09 0)
(0.366766 4.97467e-09 0)
(0.366766 5.80557e-10 0)
(0.366766 -6.97604e-09 0)
(0.366766 -9.93068e-09 0)
(0.366766 -4.24188e-09 0)
(0.366766 6.83138e-09 0)
(0.366766 2.81784e-09 0)
(0.366766 1.40769e-09 0)
(0.366765 -1.73379e-08 0)
(0.366767 4.8388e-09 0)
(0.366764 -2.30204e-08 0)
(0.366769 3.56103e-08 0)
(0.366762 -3.45648e-08 0)
(0.366772 6.48051e-08 0)
(0.366757 -5.82958e-08 0)
(0.366777 5.93823e-08 0)
(0.366753 -5.48567e-08 0)
(0.36678 2.83428e-09 0)
(0.366752 4.63953e-08 0)
(0.366777 -1.12301e-07 0)
(0.366759 1.5572e-07 0)
(0.366768 -1.60536e-07 0)
(0.366768 9.29161e-08 0)
(0.366762 3.79316e-08 0)
(0.366768 -1.0933e-07 0)
(0.366765 1.05186e-07 0)
(0.366765 -7.08244e-09 0)
(0.366766 -6.53816e-08 0)
(0.665532 0.00494912 0)
(0.703686 -0.00937151 0)
(0.735455 0.00255084 0)
(0.66014 0.0415762 0)
(0.697676 0.0202009 0)
(0.837927 -0.0788558 0)
(0.908952 -0.184277 0)
(0.964285 -0.24728 0)
(1.04673 -0.341575 0)
(1.01317 -0.393561 0)
(0.926005 -0.310912 0)
(0.813674 -0.154441 0)
(0.700741 -0.0137953 0)
(0.613864 0.0740274 0)
(0.548218 0.0993994 0)
(0.499859 0.0822926 0)
(0.462226 0.0526903 0)
(0.431401 0.0288208 0)
(0.407693 0.014519 0)
(0.391198 0.00711282 0)
(0.380686 0.00345414 0)
(0.374435 0.00162353 0)
(0.370897 0.00069339 0)
(0.368954 0.000236319 0)
(0.367909 3.54169e-05 0)
(0.367354 -3.32336e-05 0)
(0.367063 -4.23783e-05 0)
(0.366913 -3.11118e-05 0)
(0.366836 -1.73289e-05 0)
(0.366799 -7.15352e-06 0)
(0.36678 -1.27503e-06 0)
(0.366772 1.37093e-06 0)
(0.366768 2.16548e-06 0)
(0.366766 2.08036e-06 0)
(0.366766 1.63679e-06 0)
(0.366766 1.16509e-06 0)
(0.366766 7.75597e-07 0)
(0.366766 4.95375e-07 0)
(0.366766 3.03888e-07 0)
(0.366766 1.67335e-07 0)
(0.366766 1.01067e-07 0)
(0.366766 5.45532e-08 0)
(0.366766 4.16288e-09 0)
(0.366766 1.38104e-08 0)
(0.366766 1.05099e-08 0)
(0.366766 -4.35136e-09 0)
(0.366766 -4.29425e-09 0)
(0.366766 -1.83973e-08 0)
(0.366766 2.08568e-09 0)
(0.366766 1.32703e-08 0)
(0.366766 -6.00482e-09 0)
(0.366766 1.27827e-09 0)
(0.366766 7.48777e-09 0)
(0.366766 -3.52861e-09 0)
(0.366766 -6.84797e-10 0)
(0.366766 3.03839e-09 0)
(0.366766 -8.16335e-10 0)
(0.366766 -3.36439e-10 0)
(0.366766 -4.65203e-09 0)
(0.366766 -1.1986e-08 0)
(0.366766 -3.04127e-09 0)
(0.366766 8.69374e-09 0)
(0.366766 4.11419e-09 0)
(0.366766 -4.95607e-10 0)
(0.366766 2.9746e-09 0)
(0.366766 5.57888e-09 0)
(0.366766 8.38444e-09 0)
(0.366766 8.57947e-09 0)
(0.366766 1.88417e-09 0)
(0.366766 -3.32379e-09 0)
(0.366766 -3.72219e-11 0)
(0.366766 4.92056e-09 0)
(0.366766 6.25619e-09 0)
(0.366766 1.09767e-09 0)
(0.366766 -8.59219e-09 0)
(0.366766 -1.06951e-08 0)
(0.366766 -3.79402e-09 0)
(0.366766 7.64315e-09 0)
(0.366766 1.62773e-09 0)
(0.366766 2.97413e-09 0)
(0.366765 -1.97529e-08 0)
(0.366767 7.85939e-09 0)
(0.366764 -2.98102e-08 0)
(0.366769 4.5407e-08 0)
(0.366762 -4.5652e-08 0)
(0.366772 8.18472e-08 0)
(0.366757 -7.74036e-08 0)
(0.366777 7.77396e-08 0)
(0.366753 -6.89338e-08 0)
(0.36678 6.27409e-09 0)
(0.366752 5.87271e-08 0)
(0.366777 -1.4512e-07 0)
(0.366759 2.01998e-07 0)
(0.366768 -2.07581e-07 0)
(0.366768 1.22066e-07 0)
(0.366762 4.48764e-08 0)
(0.366768 -1.43874e-07 0)
(0.366765 1.3435e-07 0)
(0.366765 -9.94857e-09 0)
(0.366766 -8.32718e-08 0)
(0.785597 0.00912225 0)
(0.784686 -0.00506568 0)
(0.829986 -0.00521211 0)
(0.77728 0.0389324 0)
(0.800242 0.0171878 0)
(0.929381 -0.0925724 0)
(0.976957 -0.198062 0)
(1.00811 -0.257565 0)
(1.05616 -0.344733 0)
(0.986815 -0.382379 0)
(0.88672 -0.288465 0)
(0.772657 -0.130532 0)
(0.660201 0.00374298 0)
(0.578249 0.0861217 0)
(0.521949 0.108374 0)
(0.483332 0.0895934 0)
(0.452947 0.0588073 0)
(0.426603 0.0337494 0)
(0.405363 0.0181633 0)
(0.390114 0.00955917 0)
(0.380201 0.00496534 0)
(0.374229 0.0025009 0)
(0.370818 0.00118165 0)
(0.368932 0.000500895 0)
(0.367909 0.000176571 0)
(0.367361 4.11529e-05 0)
(0.36707 -3.64261e-06 0)
(0.366918 -1.12268e-05 0)
(0.36684 -7.31048e-06 0)
(0.3668 -2.22764e-06 0)
(0.366781 1.07278e-06 0)
(0.366772 2.44597e-06 0)
(0.366768 2.63014e-06 0)
(0.366766 2.26348e-06 0)
(0.366766 1.69531e-06 0)
(0.366766 1.17567e-06 0)
(0.366766 7.69496e-07 0)
(0.366766 4.86057e-07 0)
(0.366766 2.95891e-07 0)
(0.366766 1.59628e-07 0)
(0.366766 9.63427e-08 0)
(0.366766 5.16749e-08 0)
(0.366766 3.71798e-09 0)
(0.366766 1.2623e-08 0)
(0.366766 9.73583e-09 0)
(0.366766 -5.19005e-09 0)
(0.366766 -3.33328e-09 0)
(0.366766 -1.63453e-08 0)
(0.366766 1.86385e-09 0)
(0.366766 1.35558e-08 0)
(0.366766 -7.20901e-09 0)
(0.366766 1.49621e-10 0)
(0.366766 7.65425e-09 0)
(0.366766 -4.66832e-09 0)
(0.366766 -6.55078e-10 0)
(0.366766 3.61558e-09 0)
(0.366766 -1.27657e-09 0)
(0.366766 6.97116e-11 0)
(0.366766 -4.20195e-09 0)
(0.366766 -1.18536e-08 0)
(0.366766 -2.73555e-09 0)
(0.366766 7.94709e-09 0)
(0.366766 3.69292e-09 0)
(0.366766 -4.82028e-12 0)
(0.366766 2.62931e-09 0)
(0.366766 5.3147e-09 0)
(0.366766 8.69592e-09 0)
(0.366766 8.26693e-09 0)
(0.366766 1.60966e-09 0)
(0.366766 -2.70217e-09 0)
(0.366766 -1.12012e-10 0)
(0.366766 4.57891e-09 0)
(0.366766 6.59197e-09 0)
(0.366766 1.30054e-09 0)
(0.366766 -9.13797e-09 0)
(0.366766 -1.06977e-08 0)
(0.366766 -3.56233e-09 0)
(0.366766 8.05436e-09 0)
(0.366766 1.05038e-10 0)
(0.366766 4.29814e-09 0)
(0.366765 -2.17093e-08 0)
(0.366767 1.20584e-08 0)
(0.366764 -3.61719e-08 0)
(0.366768 5.48134e-08 0)
(0.366762 -5.8041e-08 0)
(0.366772 9.85506e-08 0)
(0.366757 -9.72138e-08 0)
(0.366777 9.70275e-08 0)
(0.366753 -8.36492e-08 0)
(0.36678 1.10867e-08 0)
(0.366752 7.06494e-08 0)
(0.366777 -1.77658e-07 0)
(0.366759 2.4943e-07 0)
(0.366768 -2.5662e-07 0)
(0.366768 1.53105e-07 0)
(0.366762 5.02817e-08 0)
(0.366768 -1.7943e-07 0)
(0.366765 1.64597e-07 0)
(0.366765 -1.26895e-08 0)
(0.366766 -1.00946e-07 0)
(0.872751 0.0117824 0)
(0.860828 0.00122697 0)
(0.897713 -0.0141621 0)
(0.86518 0.0321095 0)
(0.888047 0.0134977 0)
(1.00049 -0.102151 0)
(1.01992 -0.206523 0)
(1.0298 -0.263729 0)
(1.04691 -0.342566 0)
(0.943156 -0.365405 0)
(0.833098 -0.263279 0)
(0.720662 -0.1066 0)
(0.611711 0.0200927 0)
(0.53656 0.0968264 0)
(0.490035 0.115781 0)
(0.461673 0.0954344 0)
(0.439582 0.0638324 0)
(0.418996 0.0379753 0)
(0.40131 0.0213994 0)
(0.38806 0.0117868 0)
(0.379202 0.00636661 0)
(0.373765 0.00332543 0)
(0.370614 0.00164549 0)
(0.36885 0.000754802 0)
(0.367881 0.000313371 0)
(0.367354 0.000114071 0)
(0.367071 3.48246e-05 0)
(0.36692 8.7909e-06 0)
(0.366842 2.9169e-06 0)
(0.366801 2.86643e-06 0)
(0.366782 3.52721e-06 0)
(0.366772 3.57972e-06 0)
(0.366768 3.12178e-06 0)
(0.366766 2.4545e-06 0)
(0.366766 1.75393e-06 0)
(0.366765 1.18376e-06 0)
(0.366765 7.60693e-07 0)
(0.366766 4.73879e-07 0)
(0.366766 2.85538e-07 0)
(0.366766 1.50674e-07 0)
(0.366766 9.02303e-08 0)
(0.366766 4.83869e-08 0)
(0.366766 3.43357e-09 0)
(0.366766 1.15584e-08 0)
(0.366766 8.46589e-09 0)
(0.366766 -5.8389e-09 0)
(0.366766 -1.87225e-09 0)
(0.366766 -1.39365e-08 0)
(0.366766 1.58889e-09 0)
(0.366766 1.2954e-08 0)
(0.366766 -8.15117e-09 0)
(0.366766 -7.24334e-10 0)
(0.366766 7.44044e-09 0)
(0.366766 -5.29241e-09 0)
(0.366766 -4.42791e-10 0)
(0.366766 4.11339e-09 0)
(0.366766 -1.62687e-09 0)
(0.366766 -6.61866e-11 0)
(0.366766 -3.67667e-09 0)
(0.366766 -1.10562e-08 0)
(0.366766 -2.53297e-09 0)
(0.366766 7.14423e-09 0)
(0.366766 3.3171e-09 0)
(0.366766 3.81953e-10 0)
(0.366766 2.57978e-09 0)
(0.366766 5.01433e-09 0)
(0.366766 8.40075e-09 0)
(0.366766 7.74673e-09 0)
(0.366766 1.5818e-09 0)
(0.366766 -2.16557e-09 0)
(0.366766 -8.37517e-11 0)
(0.366766 4.2166e-09 0)
(0.366766 6.34016e-09 0)
(0.366766 1.26816e-09 0)
(0.366766 -9.04542e-09 0)
(0.366766 -1.01813e-08 0)
(0.366766 -3.42408e-09 0)
(0.366766 8.27095e-09 0)
(0.366766 -1.59519e-09 0)
(0.366766 5.45948e-09 0)
(0.366765 -2.34397e-08 0)
(0.366767 1.70277e-08 0)
(0.366764 -4.22107e-08 0)
(0.366768 6.40382e-08 0)
(0.366762 -7.14675e-08 0)
(0.366772 1.15244e-07 0)
(0.366757 -1.17759e-07 0)
(0.366777 1.17384e-07 0)
(0.366753 -9.9335e-08 0)
(0.36678 1.7281e-08 0)
(0.366752 8.18813e-08 0)
(0.366777 -2.0997e-07 0)
(0.366758 2.98338e-07 0)
(0.366768 -3.08091e-07 0)
(0.366768 1.86592e-07 0)
(0.366762 5.38943e-08 0)
(0.366768 -2.15946e-07 0)
(0.366765 1.96397e-07 0)
(0.366765 -1.54738e-08 0)
(0.366766 -1.18541e-07 0)
(0.93265 0.0130152 0)
(0.922681 0.00775383 0)
(0.948125 -0.0214741 0)
(0.927242 0.023279 0)
(0.951163 0.00961647 0)
(1.04659 -0.107949 0)
(1.03959 -0.209596 0)
(1.03495 -0.265321 0)
(1.01855 -0.335389 0)
(0.880134 -0.343965 0)
(0.763891 -0.236715 0)
(0.657758 -0.0835223 0)
(0.555189 0.0351197 0)
(0.4897 0.105327 0)
(0.454572 0.120858 0)
(0.437299 0.0993381 0)
(0.424052 0.0674701 0)
(0.409669 0.0412985 0)
(0.395991 0.0240881 0)
(0.385176 0.0137028 0)
(0.377717 0.00760023 0)
(0.373038 0.00406398 0)
(0.370277 0.00206714 0)
(0.368703 0.000988962 0)
(0.367821 0.000441475 0)
(0.367333 0.000183504 0)
(0.367064 7.20841e-05 0)
(0.366919 2.85055e-05 0)
(0.366841 1.31421e-05 0)
(0.366801 8.02596e-06 0)
(0.366781 6.03831e-06 0)
(0.366772 4.74724e-06 0)
(0.366767 3.62793e-06 0)
(0.366765 2.64791e-06 0)
(0.366765 1.81042e-06 0)
(0.366765 1.1884e-06 0)
(0.366765 7.48701e-07 0)
(0.366765 4.58719e-07 0)
(0.366765 2.72671e-07 0)
(0.366765 1.40464e-07 0)
(0.366765 8.31307e-08 0)
(0.366765 4.47149e-08 0)
(0.366765 3.05669e-09 0)
(0.366765 1.03254e-08 0)
(0.366765 6.95241e-09 0)
(0.366765 -6.13127e-09 0)
(0.366765 -1.3911e-10 0)
(0.366765 -1.14642e-08 0)
(0.366765 1.2478e-09 0)
(0.366765 1.17393e-08 0)
(0.366765 -8.91454e-09 0)
(0.366765 -1.41462e-09 0)
(0.366765 6.97374e-09 0)
(0.366765 -5.49622e-09 0)
(0.366765 -8.69894e-11 0)
(0.366765 4.46189e-09 0)
(0.366765 -1.89259e-09 0)
(0.366765 -4.31635e-10 0)
(0.366765 -3.16698e-09 0)
(0.366765 -9.95821e-09 0)
(0.366765 -2.37457e-09 0)
(0.366765 6.34654e-09 0)
(0.366765 3.00248e-09 0)
(0.366765 6.80835e-10 0)
(0.366765 2.63126e-09 0)
(0.366765 4.71065e-09 0)
(0.366765 7.82238e-09 0)
(0.366765 7.17343e-09 0)
(0.366765 1.57228e-09 0)
(0.366765 -1.75165e-09 0)
(0.366765 -7.73256e-12 0)
(0.366765 3.89525e-09 0)
(0.366765 5.79318e-09 0)
(0.366765 1.0589e-09 0)
(0.366765 -8.61822e-09 0)
(0.366765 -9.32058e-09 0)
(0.366765 -3.31897e-09 0)
(0.366765 8.37222e-09 0)
(0.366765 -3.32475e-09 0)
(0.366766 6.60464e-09 0)
(0.366765 -2.51056e-08 0)
(0.366766 2.23955e-08 0)
(0.366764 -4.81641e-08 0)
(0.366768 7.32972e-08 0)
(0.366761 -8.56384e-08 0)
(0.366771 1.32207e-07 0)
(0.366757 -1.39141e-07 0)
(0.366776 1.3891e-07 0)
(0.366752 -1.16293e-07 0)