/*--------------------------------*- C++ -*----------------------------------*\
| =========                 |                                                 |
| \\      /  F ield         | OpenFOAM: The Open Source CFD Toolbox           |
|  \\    /   O peration     | Version:  2.4.0                                 |
|   \\  /    A nd           | Web:      www.OpenFOAM.org                      |
|    \\/     M anipulation  |                                                 |
\*---------------------------------------------------------------------------*/
FoamFile
{
    version     2.0;
    format      ascii;
    class       volVectorField;
    location    "1.6";
    object      U;
}
// * * * * * * * * * * * * * * * * * * * * * * * * * * * * * * * * * * * * * //

dimensions      [0 1 -1 0 0 0 0];

internalField   nonuniform List<vector> 
8800
(
(8.09262 0.387922 0)
(5.45198 0.242605 0)
(3.90822 0.0431491 0)
(3.16174 -0.0156351 0)
(2.79459 -0.018395 0)
(2.60771 -0.0109016 0)
(2.47294 -0.00557389 0)
(2.3939 -0.00280584 0)
(2.30439 -0.000634486 0)
(2.26759 -0.00162448 0)
(2.20027 -9.06948e-05 0)
(2.18788 -0.000329916 0)
(2.12617 -2.5514e-06 0)
(2.12775 -0.000379476 0)
(2.06235 0.00109441 0)
(2.07135 -0.00117194 0)
(2.00786 0.000927634 0)
(2.02298 -0.00357809 0)
(2.0296 0.0103712 0)
(1.7843 -0.0714799 0)
(10.0807 0.838 0)
(9.66965 0.868042 0)
(8.85561 0.507185 0)
(8.10523 0.261616 0)
(7.46855 0.138085 0)
(7.03669 0.082488 0)
(6.66376 0.0540128 0)
(6.43968 0.0396764 0)
(6.18053 0.0318544 0)
(6.07841 0.0217197 0)
(5.87168 0.0201731 0)
(5.84261 0.0163108 0)
(5.66297 0.0153555 0)
(5.66981 0.0127429 0)
(5.49687 0.0179775 0)
(5.52154 0.00706877 0)
(5.36368 0.0199157 0)
(5.38477 -0.0141074 0)
(5.34324 0.029211 0)
(5.20171 -0.0517998 0)
(10.0442 0.629861 0)
(10.6894 0.864718 0)
(10.8308 0.601402 0)
(10.7364 0.373079 0)
(10.4102 0.255279 0)
(10.1414 0.197867 0)
(9.77716 0.15242 0)
(9.56877 0.122572 0)
(9.23385 0.0969708 0)
(9.12906 0.0722975 0)
(8.83161 0.0620951 0)
(8.80211 0.0492722 0)
(8.54644 0.0444714 0)
(8.55394 0.0361428 0)
(8.31979 0.0444153 0)
(8.34842 0.022684 0)
(8.13228 0.0462606 0)
(8.17182 -0.0111908 0)
(8.04182 0.0298488 0)
(8.03391 -0.107208 0)
(9.94735 0.454174 0)
(10.6372 0.708731 0)
(11.0938 0.545257 0)
(11.4551 0.352801 0)
(11.4768 0.260567 0)
(11.551 0.230068 0)
(11.3976 0.197214 0)
(11.4088 0.176823 0)
(11.1845 0.151067 0)
(11.2028 0.120793 0)
(10.9618 0.110881 0)
(10.9828 0.0880863 0)
(10.7639 0.0842727 0)
(10.7765 0.0662662 0)
(10.5773 0.0807855 0)
(10.5917 0.0460428 0)
(10.3899 0.078838 0)
(10.4268 0.00355355 0)
(10.2766 0.0440833 0)
(10.2872 -0.125687 0)
(9.93562 0.340817 0)
(10.5154 0.575138 0)
(10.9418 0.458979 0)
(11.4058 0.293889 0)
(11.553 0.206296 0)
(11.7805 0.198335 0)
(11.7781 0.174243 0)
(11.9305 0.171269 0)
(11.8836 0.150597 0)
(12.0004 0.124202 0)
(11.9416 0.119923 0)
(12.0193 0.0999782 0)
(11.9676 0.0952532 0)
(11.9967 0.0856721 0)
(11.9527 0.0898107 0)
(11.9679 0.0762503 0)
(11.8827 0.0827741 0)
(11.9043 0.0431592 0)
(11.8397 0.0447675 0)
(11.8467 -0.0509001 0)
(9.96402 0.247332 0)
(10.3977 0.457273 0)
(10.8264 0.380143 0)
(11.2492 0.248505 0)
(11.4652 0.159832 0)
(11.6688 0.152199 0)
(11.7491 0.141189 0)
(11.8821 0.138988 0)
(11.9432 0.129936 0)
(12.0438 0.101262 0)
(12.1058 0.105432 0)
(12.1929 0.0832094 0)
(12.2536 0.0822941 0)
(12.3097 0.0765371 0)
(12.3738 0.0762542 0)
(12.4198 0.0748827 0)
(12.4331 0.0773617 0)
(12.4927 0.0545263 0)
(12.4629 0.0696249 0)
(12.5698 -0.0290483 0)
(9.98764 0.175345 0)
(10.3122 0.354839 0)
(10.74 0.287155 0)
(11.1411 0.205252 0)
(11.3741 0.118651 0)
(11.5775 0.123404 0)
(11.671 0.0967961 0)
(11.7727 0.12111 0)
(11.8405 0.089278 0)
(11.9782 0.0900225 0)
(12.0317 0.066238 0)
(12.1326 0.079786 0)
(12.2076 0.0439769 0)
(12.2788 0.0794121 0)
(12.3526 0.0342226 0)
(12.4037 0.0919002 0)
(12.4954 0.0274166 0)
(12.5268 0.0935462 0)
(12.5063 0.049454 0)
(12.6437 0.116927 0)
(9.98358 0.108411 0)
(10.2836 0.256413 0)
(10.6636 0.193352 0)
(11.0419 0.171834 0)
(11.3173 0.0698784 0)
(11.5116 0.0945783 0)
(11.5975 0.0592469 0)
(11.6975 0.105896 0)
(11.8121 0.0427122 0)
(11.8926 0.0754263 0)
(11.9465 0.0371021 0)
(12.0709 0.0725859 0)
(12.1466 0.0101553 0)
(12.1973 0.0782675 0)
(12.2686 0.00358731 0)
(12.3467 0.078264 0)
(12.4427 0.00323906 0)
(12.4627 0.10527 0)
(12.475 0.0304054 0)
(12.564 0.111841 0)
(9.99194 0.0667058 0)
(10.254 0.148191 0)
(10.597 0.122017 0)
(11.0008 0.092285 0)
(11.2968 0.0464479 0)
(11.4353 0.0602763 0)
(11.5772 0.0376927 0)
(11.6857 0.050226 0)
(11.7333 0.0293666 0)
(11.8272 0.0442644 0)
(11.9228 0.0243917 0)
(12.0515 0.0254857 0)
(12.0615 0.0216604 0)
(12.1689 0.0399237 0)
(12.2641 0.00793958 0)
(12.2877 0.0271811 0)
(12.3551 0.0134235 0)
(12.3945 0.0497728 0)
(12.4742 0.0118678 0)
(12.4631 -0.0541837 0)
(9.9932 0.01377 0)
(10.2386 0.0583894 0)
(10.5996 0.0286703 0)
(10.9727 0.0370429 0)
(11.2222 0.0114638 0)
(11.439 0.0346613 0)
(11.5967 -0.00881866 0)
(11.6294 0.0400864 0)
(11.6908 0.00229638 0)
(11.8287 0.0105696 0)
(11.946 -0.0103476 0)
(11.9878 0.0290032 0)
(12.0137 -0.00638587 0)
(12.1536 0.0154316 0)
(12.2482 -0.01249 0)
(12.2875 0.0313991 0)
(12.3371 -0.0163388 0)
(12.358 0.0174712 0)
(12.441 -0.0338759 0)
(12.3906 -0.0365619 0)
(10.0072 -0.0216616 0)
(10.235 -0.0493128 0)
(10.5847 -0.0452001 0)
(10.9506 -0.0250072 0)
(11.2501 -0.0173159 0)
(11.4456 -0.0153954 0)
(11.5654 -0.0164817 0)
(11.6313 0.00187108 0)
(11.7451 -0.0285517 0)
(11.8196 -0.0329766 0)
(11.8934 -0.00999638 0)
(11.9876 0.00494203 0)
(12.0355 -0.00982352 0)
(12.1742 -0.0228425 0)
(12.1944 -0.0205211 0)
(12.2812 -0.00864449 0)
(12.3575 -0.014059 0)
(12.3915 -0.0159473 0)
(12.4439 -0.0503018 0)
(12.3731 -0.0782172 0)
(10.0059 -0.0728767 0)
(10.2316 -0.137712 0)
(10.6138 -0.128636 0)
(11.008 -0.0966588 0)
(11.2698 -0.0527699 0)
(11.4422 -0.035003 0)
(11.5742 -0.0540488 0)
(11.68 -0.0391683 0)
(11.7781 -0.043926 0)
(11.8188 -0.0479565 0)
(11.9084 -0.0377605 0)
(11.9786 -0.0185111 0)
(12.0882 -0.0360374 0)
(12.2102 -0.0380129 0)
(12.1976 -0.0275937 0)
(12.2929 -0.0333045 0)
(12.3623 -0.0466008 0)
(12.4651 -0.050778 0)
(12.4795 -0.0699644 0)
(12.3716 -0.0852564 0)
(9.99234 -0.115702 0)
(10.2705 -0.246791 0)
(10.6981 -0.217302 0)
(11.0294 -0.150535 0)
(11.2941 -0.073977 0)
(11.5104 -0.0769637 0)
(11.6051 -0.0810308 0)
(11.6948 -0.0736885 0)
(11.8163 -0.0709749 0)
(11.8861 -0.0771011 0)
(11.9542 -0.0466634 0)
(12.0395 -0.0443107 0)
(12.1568 -0.0583057 0)
(12.1983 -0.0536589 0)
(12.2518 -0.0396431 0)
(12.3606 -0.0621215 0)
(12.4176 -0.0697702 0)
(12.4833 -0.0793239 0)
(12.485 -0.0870112 0)
(12.4146 -0.102109 0)
(10.0215 -0.178617 0)
(10.3008 -0.355442 0)
(10.765 -0.288876 0)
(11.0786 -0.200331 0)
(11.4001 -0.12246 0)
(11.5589 -0.110973 0)
(11.6771 -0.104241 0)
(11.7747 -0.115726 0)
(11.8924 -0.0953823 0)
(11.94 -0.0983983 0)
(12.0336 -0.0685066 0)
(12.1203 -0.0765641 0)
(12.2125 -0.0657205 0)
(12.251 -0.070464 0)
(12.3405 -0.0604568 0)
(12.412 -0.0898772 0)
(12.4797 -0.0852057 0)
(12.5226 -0.107363 0)
(12.5478 -0.111139 0)
(12.5004 -0.132998 0)
(10.0683 -0.254689 0)
(10.3098 -0.455666 0)
(10.8941 -0.377452 0)
(11.1682 -0.248288 0)
(11.5413 -0.158256 0)
(11.6031 -0.148186 0)
(11.8128 -0.1432 0)
(11.8314 -0.146658 0)
(12.0004 -0.119193 0)
(11.991 -0.123385 0)
(12.1431 -0.0894001 0)
(12.1443 -0.0974563 0)
(12.2784 -0.081658 0)
(12.269 -0.0938843 0)
(12.3869 -0.0739242 0)
(12.3789 -0.112268 0)
(12.4617 -0.097943 0)
(12.4331 -0.134802 0)
(12.4745 -0.130569 0)
(12.354 -0.174741 0)
(10.0655 -0.350272 0)
(10.3837 -0.56711 0)
(11.0544 -0.460064 0)
(11.2857 -0.292322 0)
(11.6681 -0.21095 0)
(11.6639 -0.189362 0)
(11.9013 -0.178779 0)
(11.8145 -0.172458 0)
(12.0029 -0.14706 0)
(11.8784 -0.138401 0)
(12.0405 -0.109724 0)
(11.908 -0.111149 0)
(12.0469 -0.0956984 0)
(11.8991 -0.101882 0)
(12.0202 -0.0848057 0)
(11.8578 -0.116573 0)
(11.9357 -0.0991106 0)
(11.7638 -0.142353 0)
(11.7753 -0.131602 0)
(11.5234 -0.185332 0)
(10.0172 -0.459129 0)
(10.549 -0.705281 0)
(11.1764 -0.544969 0)
(11.3592 -0.352302 0)
(11.5709 -0.262005 0)
(11.4481 -0.225848 0)
(11.5102 -0.201312 0)
(11.2822 -0.17896 0)
(11.3188 -0.147762 0)
(11.0508 -0.130032 0)
(11.0977 -0.103228 0)
(10.8332 -0.0971245 0)
(10.8878 -0.0824838 0)
(10.6209 -0.0850577 0)
(10.6931 -0.068996 0)
(10.4086 -0.0939066 0)
(10.4688 -0.077425 0)
(10.1744 -0.119723 0)
(10.1742 -0.100333 0)
(9.82081 -0.179836 0)
(10.0684 -0.632963 0)
(10.6491 -0.863339 0)
(10.8732 -0.600464 0)
(10.6826 -0.372925 0)
(10.4653 -0.256796 0)
(10.0772 -0.195875 0)
(9.85039 -0.153696 0)
(9.47826 -0.124216 0)
(9.3332 -0.0946593 0)
(9.00563 -0.0777481 0)
(8.94821 -0.0588867 0)
(8.66599 -0.0536476 0)
(8.66057 -0.0454669 0)
(8.39719 -0.0472471 0)
(8.43058 -0.0397338 0)
(8.15222 -0.0542825 0)
(8.19103 -0.0505986 0)
(7.88911 -0.0725386 0)
(7.88347 -0.0745411 0)
(7.52383 -0.102999 0)
(10.0867 -0.838856 0)
(9.65227 -0.867785 0)
(8.87375 -0.506331 0)
(8.07924 -0.261548 0)
(7.49722 -0.138692 0)
(7.00145 -0.0817979 0)
(6.7041 -0.0540708 0)
(6.38776 -0.041641 0)
(6.2365 -0.0296635 0)
(6.00329 -0.0252015 0)
(5.94216 -0.0184573 0)
(5.75168 -0.0182721 0)
(5.7353 -0.0160586 0)
(5.55537 -0.0191454 0)
(5.56421 -0.0153797 0)
(5.36899 -0.0249742 0)
(5.37608 -0.0235824 0)
(5.14943 -0.0339212 0)
(5.13091 -0.0402221 0)
(4.82428 -0.026923 0)
(8.09174 -0.388 0)
(5.44783 -0.242506 0)
(3.91163 -0.042852 0)
(3.15678 0.0154834 0)
(2.80195 0.0180551 0)
(2.59604 0.0111714 0)
(2.48647 0.00574812 0)
(2.37616 0.00205307 0)
(2.32162 0.00173661 0)
(2.24263 0.000292988 0)
(2.21975 0.000884354 0)
(2.15618 -3.24156e-05 0)
(2.14686 2.92599e-05 0)
(2.08091 -0.00117929 0)
(2.07646 3.08295e-05 0)
(2.0015 -0.00274882 0)
(1.98661 -0.00143177 0)
(1.89251 -0.00379928 0)
(1.85228 -0.00420153 0)
(1.69571 0.0109957 0)
(2.33334 -0.186242 0)
(2.44622 -0.08948 0)
(2.54606 -0.0309361 0)
(2.62246 0.00511816 0)
(2.71688 0.0117566 0)
(2.8131 0.0128201 0)
(2.92993 0.0102434 0)
(3.0546 0.00692745 0)
(3.17721 0.00749507 0)
(3.2866 0.00494315 0)
(3.37885 -0.00271166 0)
(3.45447 -0.00720286 0)
(3.51658 -0.013526 0)
(3.57148 -0.0154584 0)
(3.62387 -0.00903548 0)
(3.67711 0.00460001 0)
(3.7359 0.0351866 0)
(3.80343 0.0680455 0)
(3.89366 0.124084 0)
(4.00355 0.188065 0)
(4.15366 0.254117 0)
(4.33581 0.328427 0)
(4.54924 0.392758 0)
(4.7942 0.443163 0)
(5.09792 0.444358 0)
(5.38397 0.421197 0)
(5.71649 0.347112 0)
(6.03669 0.220369 0)
(6.41068 0.0517517 0)
(6.69219 -0.175144 0)
(7.02327 -0.433345 0)
(7.34149 -0.660526 0)
(7.59232 -0.893058 0)
(7.87888 -1.12542 0)
(8.06589 -1.33493 0)
(8.35344 -1.48086 0)
(8.5322 -1.53215 0)
(8.63517 -1.5679 0)
(8.69619 -1.53981 0)
(8.62895 -1.38275 0)
(8.61234 -1.30124 0)
(8.70292 -1.22441 0)
(8.90437 -0.941906 0)
(9.16045 -0.546889 0)
(9.26091 -0.256321 0)
(9.2359 -0.148399 0)
(9.15715 -0.240855 0)
(9.08038 -0.402186 0)
(9.00829 -0.49442 0)
(9.10523 -0.606497 0)
(9.20984 -0.690339 0)
(9.50074 -0.694276 0)
(9.85631 -0.682596 0)
(10.1857 -0.847957 0)
(10.597 -0.891722 0)
(10.8696 -0.93754 0)
(11.176 -1.31935 0)
(11.2733 -1.44712 0)
(11.4306 -1.78975 0)
(11.4107 -2.0429 0)
(11.1331 -2.20321 0)
(11.2472 -2.86421 0)
(10.7652 -2.80856 0)
(10.4482 -2.87883 0)
(10.2302 -3.08048 0)
(10.0557 -3.34252 0)
(10.1956 -4.00008 0)
(9.494 -3.9401 0)
(9.01363 -3.75146 0)
(8.46397 -3.18437 0)
(7.66501 -2.4335 0)
(7.22149 -2.05954 0)
(6.70375 -1.12232 0)
(6.24534 -0.560403 0)
(5.74877 -0.575491 0)
(5.01044 0.420065 0)
(5.52805 2.09136 0)
(6.07434 4.59983 0)
(6.70624 6.69706 0)
(7.28894 7.33384 0)
(7.48001 7.44969 0)
(8.15858 6.91564 0)
(8.60735 5.66384 0)
(8.40443 4.38629 0)
(8.63357 3.21466 0)
(9.08602 2.25447 0)
(9.17671 1.13273 0)
(9.22114 -0.297386 0)
(9.53501 -1.53454 0)
(9.70165 -2.37358 0)
(9.49936 -3.26607 0)
(9.56439 -4.17224 0)
(9.89699 -4.70522 0)
(9.81518 -5.42402 0)
(9.31147 -6.16805 0)
(8.93341 -5.90855 0)
(8.71081 -5.15647 0)
(8.37416 -5.20389 0)
(7.76588 -5.88199 0)
(7.66365 -5.70698 0)
(8.0344 -4.49179 0)
(8.49588 -3.66145 0)
(8.48461 -4.28428 0)
(8.28444 -6.03558 0)
(8.00753 -7.59885 0)
(7.58165 -8.76284 0)
(7.181 -9.48913 0)
(6.80618 -9.88972 0)
(6.49914 -10.2128 0)
(6.42576 -10.013 0)
(6.27332 -9.06641 0)
(6.01342 -7.75898 0)
(5.86888 -6.48933 0)
(5.72876 -5.15638 0)
(5.71758 -3.72792 0)
(5.93313 -2.214 0)
(6.41028 -0.666684 0)
(6.85129 0.752106 0)
(7.23881 2.15322 0)
(7.62812 3.50332 0)
(7.98332 4.72134 0)
(8.20185 5.92751 0)
(8.38947 7.09512 0)
(8.82924 8.13424 0)
(9.11177 8.82057 0)
(9.14076 9.06317 0)
(8.99092 9.02873 0)
(8.89722 8.83097 0)
(8.66661 8.34285 0)
(8.35519 7.70544 0)
(8.05807 6.91983 0)
(7.67732 5.96318 0)
(7.2235 4.97725 0)
(6.93599 4.20863 0)
(6.67182 3.60486 0)
(6.49988 3.01419 0)
(6.32686 2.55363 0)
(6.11341 2.42863 0)
(6.37724 2.26174 0)
(6.53633 2.73041 0)
(7.57109 2.98123 0)
(7.85749 3.25473 0)
(8.38697 2.98104 0)
(8.97385 2.61327 0)
(9.01449 2.28562 0)
(9.5594 1.68608 0)
(9.46391 1.19751 0)
(9.52508 0.377237 0)
(9.41263 -0.295636 0)
(9.35202 -0.950465 0)
(9.2398 -1.49907 0)
(8.89994 -1.64626 0)
(8.81635 -2.57765 0)
(8.66323 -2.58869 0)
(8.2718 -2.33454 0)
(8.66754 -3.08595 0)
(7.85099 -3.05159 0)
(8.50829 -2.85702 0)
(7.20995 -2.62022 0)
(8.01877 -2.42582 0)
(7.37402 -3.10974 0)
(7.81932 -3.33169 0)
(7.42617 -3.5448 0)
(7.87748 -3.14414 0)
(7.15209 -3.56981 0)
(8.03923 -3.67001 0)
(7.83464 -3.71464 0)
(8.18506 -3.88541 0)
(7.88322 -4.19459 0)
(7.97179 -4.04234 0)
(8.24406 -3.40392 0)
(8.17274 -2.88399 0)
(8.61894 -2.96056 0)
(9.19351 -3.61043 0)
(9.00831 -4.67301 0)
(9.21215 -5.21812 0)
(8.78329 -5.5209 0)
(8.56455 -5.52424 0)
(8.94302 -4.84464 0)
(8.72729 -3.88838 0)
(9.13775 -2.49584 0)
(9.20017 -0.786682 0)
(9.15182 0.649257 0)
(9.26756 1.75585 0)
(9.12814 2.42838 0)
(9.09237 3.61256 0)
(8.93699 4.90269 0)
(8.7119 6.28539 0)
(8.7341 7.81169 0)
(8.64331 9.32243 0)
(8.31369 10.7134 0)
(8.3724 11.4661 0)
(8.08795 11.557 0)
(7.39923 11.1617 0)
(6.87072 10.0524 0)
(6.97134 9.59369 0)
(6.15333 9.84821 0)
(5.62203 10.0211 0)
(5.31474 10.7874 0)
(3.23027 12.7402 0)
(5.39339 -0.120985 0)
(5.43338 -0.103883 0)
(5.44343 -0.0729198 0)
(5.44291 -0.0495015 0)
(5.46145 -0.051142 0)
(5.49852 -0.0493733 0)
(5.55442 -0.054782 0)
(5.62562 -0.0565922 0)
(5.69202 -0.0497765 0)
(5.75477 -0.0478506 0)
(5.80909 -0.0461333 0)
(5.84647 -0.0507458 0)
(5.88616 -0.0541199 0)
(5.9187 -0.0606443 0)
(5.95227 -0.0529032 0)
(5.99312 -0.0413136 0)
(6.02935 -0.0216188 0)
(6.09907 0.00437574 0)
(6.1481 0.0464831 0)
(6.26133 0.0938039 0)
(6.35879 0.128946 0)
(6.52364 0.171134 0)
(6.70176 0.220287 0)
(6.90453 0.215168 0)
(7.18511 0.194557 0)
(7.45606 0.184219 0)
(7.77162 0.0693762 0)
(8.05434 -0.0774249 0)
(8.44474 -0.195096 0)
(8.74486 -0.393993 0)
(9.00363 -0.688739 0)
(9.32774 -0.898428 0)
(9.55466 -1.0596 0)
(9.79552 -1.31268 0)
(9.93528 -1.54474 0)
(10.1119 -1.66686 0)
(10.1549 -1.68849 0)
(10.1025 -1.72245 0)
(10.1567 -1.7264 0)
(10.2484 -1.55943 0)
(10.4242 -1.32135 0)
(10.4289 -1.05998 0)
(10.303 -0.799244 0)
(10.2866 -0.59035 0)
(10.2936 -0.50805 0)
(10.4346 -0.530309 0)
(10.7128 -0.418382 0)
(10.8251 -0.169771 0)
(10.8417 -0.148568 0)
(10.8017 -0.29055 0)
(10.551 -0.541988 0)
(10.4397 -0.82107 0)
(10.3234 -0.890586 0)
(10.4162 -1.17706 0)
(10.4719 -1.29436 0)
(10.6703 -1.28287 0)
(10.9565 -1.62812 0)
(10.9515 -1.60622 0)
(11.2913 -1.9073 0)
(11.0984 -2.12867 0)
(11.1963 -2.12388 0)
(11.3998 -2.6874 0)
(10.7774 -2.54066 0)
(10.9828 -2.76993 0)
(10.8341 -3.13974 0)
(10.882 -3.13806 0)
(10.9418 -3.75864 0)
(10.1771 -3.6237 0)
(10.0116 -3.58262 0)
(9.08934 -3.21596 0)
(8.44686 -2.10931 0)
(8.00881 -1.65357 0)
(6.98536 -0.730049 0)
(7.00415 -0.0910834 0)
(6.29331 0.0393878 0)
(5.1885 0.66037 0)
(5.32097 1.73935 0)
(5.40546 4.14182 0)
(6.27964 6.21135 0)
(7.01277 6.78459 0)
(7.31416 6.9213 0)
(8.15097 6.48234 0)
(8.94498 5.44109 0)
(9.02055 4.25749 0)
(9.25879 3.10265 0)
(9.72533 2.17446 0)
(9.98165 1.02817 0)
(10.1127 -0.475488 0)
(10.2768 -1.62455 0)
(10.3357 -2.2907 0)
(10.2675 -3.31083 0)
(10.2948 -4.39405 0)
(10.4084 -4.79033 0)
(10.2213 -5.1614 0)
(9.61125 -5.73662 0)
(9.09279 -5.59911 0)
(8.95107 -4.84347 0)
(8.5734 -4.76885 0)
(8.00705 -5.5222 0)
(7.73625 -5.70908 0)
(8.02218 -4.74368 0)
(8.24046 -3.79048 0)
(8.24631 -4.27895 0)
(8.09531 -5.83369 0)
(7.86179 -7.30512 0)
(7.27611 -8.34685 0)
(6.7858 -9.01401 0)
(6.26491 -9.53286 0)
(5.81733 -10 0)
(5.63347 -9.8212 0)
(5.50245 -8.93138 0)
(5.26703 -7.67593 0)
(4.97847 -6.41855 0)
(4.9855 -5.23844 0)
(5.09762 -3.9753 0)
(5.29691 -2.52199 0)
(5.70506 -0.958496 0)
(6.13482 0.465358 0)
(6.5149 1.77228 0)
(6.89954 3.1691 0)
(7.11724 4.57512 0)
(7.21689 5.87627 0)
(7.58049 6.77854 0)
(8.06991 7.63971 0)
(8.35825 8.58424 0)
(8.47938 9.07013 0)
(8.47556 9.08914 0)
(8.51659 8.87836 0)
(8.39406 8.50222 0)
(8.09485 7.95922 0)
(8.01923 7.14153 0)
(7.60352 6.26341 0)
(7.29309 5.28377 0)
(7.01655 4.41331 0)
(6.77238 3.74379 0)
(6.71784 3.14855 0)
(6.6481 2.69245 0)
(6.46215 2.41759 0)
(6.50003 2.18555 0)
(6.59699 2.27548 0)
(7.18375 2.39712 0)
(7.69839 2.77007 0)
(8.03708 2.61709 0)
(8.58213 2.26393 0)
(8.80723 1.94638 0)
(9.17011 1.51274 0)
(9.3235 1.0845 0)
(9.28865 0.42416 0)
(9.36094 -0.312257 0)
(9.19673 -0.895906 0)
(9.03978 -1.22817 0)
(8.77858 -1.57897 0)
(8.87424 -2.38354 0)
(8.51169 -2.44233 0)
(8.44893 -2.27621 0)
(8.43794 -2.92367 0)
(7.94015 -2.89466 0)
(8.17096 -2.57339 0)
(7.06141 -2.37662 0)
(7.91598 -2.52664 0)
(7.40457 -2.94286 0)
(7.87308 -3.32188 0)
(7.4238 -3.45185 0)
(7.5137 -3.08105 0)
(7.35575 -3.64936 0)
(7.94147 -3.85374 0)
(7.46537 -3.81049 0)
(8.20071 -3.82444 0)
(7.71258 -4.2534 0)
(7.74611 -4.0351 0)
(7.74992 -3.5188 0)
(7.84282 -3.28272 0)
(8.76005 -3.41031 0)
(8.84686 -3.72425 0)
(8.67765 -4.41009 0)
(8.69896 -4.69106 0)
(7.76679 -5.09588 0)
(7.87875 -5.17174 0)
(7.79047 -4.63576 0)
(7.32998 -3.84305 0)
(7.97798 -2.36914 0)
(7.6145 -0.896805 0)
(8.09709 0.632876 0)
(8.05012 1.55182 0)
(8.44034 2.55378 0)
(8.38365 3.6959 0)
(8.35869 5.19066 0)
(8.22577 6.36205 0)
(8.08643 7.78446 0)
(8.32503 9.48234 0)
(8.14155 10.7752 0)
(7.8911 11.4055 0)
(8.03585 11.7988 0)
(7.93433 11.7675 0)
(7.37089 10.6757 0)
(6.8337 9.4769 0)
(6.9415 9.99349 0)
(6.44585 10.8166 0)
(7.9104 10.9265 0)
(5.77431 13.6411 0)
(8.08773 -0.06767 0)
(8.09217 -0.0237887 0)
(8.07101 -0.0215173 0)
(8.04275 -0.0303121 0)
(8.05262 -0.0744421 0)
(8.0701 -0.0878453 0)
(8.13482 -0.0910809 0)
(8.17051 -0.101955 0)
(8.22959 -0.0790889 0)
(8.25912 -0.0766734 0)
(8.28972 -0.0775076 0)
(8.32499 -0.0647309 0)
(8.34207 -0.0833874 0)
(8.37435 -0.0805708 0)
(8.39513 -0.0690141 0)
(8.43422 -0.0790363 0)
(8.44231 -0.0574796 0)
(8.52858 -0.0402826 0)
(8.54838 -0.0138009 0)
(8.64654 0.00642707 0)
(8.74963 0.041511 0)
(8.86596 0.0487849 0)
(9.03793 0.0622149 0)
(9.20142 0.0616867 0)
(9.43141 -0.0180554 0)
(9.64652 -0.0311616 0)
(9.9348 -0.120204 0)
(10.1659 -0.326626 0)
(10.4347 -0.45272 0)
(10.7199 -0.585456 0)
(10.9354 -0.886418 0)
(11.1228 -1.11961 0)
(11.2592 -1.2277 0)
(11.4358 -1.45758 0)
(11.4997 -1.6848 0)
(11.4696 -1.73543 0)
(11.4821 -1.67105 0)
(11.4584 -1.68966 0)
(11.471 -1.68432 0)
(11.3697 -1.47713 0)
(11.2183 -1.30859 0)
(11.0851 -1.18 0)
(11.133 -0.983729 0)
(11.3352 -0.767761 0)
(11.517 -0.493542 0)
(11.5676 -0.377731 0)
(11.5433 -0.429687 0)
(11.4957 -0.403358 0)
(11.6765 -0.436847 0)
(11.7773 -0.385172 0)
(11.9206 -0.35352 0)
(12 -0.468506 0)
(11.7257 -0.608421 0)
(11.8233 -0.940657 0)
(11.5103 -1.15747 0)
(11.472 -1.42156 0)
(11.6408 -1.71465 0)
(11.2905 -1.78062 0)
(11.7034 -2.14584 0)
(11.509 -2.20096 0)
(11.6142 -2.27898 0)
(11.863 -2.74049 0)
(11.3783 -2.59564 0)
(12.0108 -2.8055 0)
(11.7403 -3.13023 0)
(11.7245 -3.15808 0)
(11.723 -3.62602 0)
(10.6456 -3.33354 0)
(10.5945 -2.89367 0)
(9.42409 -2.42439 0)
(8.8444 -1.57042 0)
(8.69978 -1.20332 0)
(7.44887 -0.433612 0)
(7.59339 0.0924322 0)
(6.86168 0.509507 0)
(5.98538 1.1534 0)
(5.7383 1.66108 0)
(5.27646 3.56246 0)
(6.17362 5.55646 0)
(7.1676 6.19119 0)
(7.49276 6.30782 0)
(8.36046 5.88495 0)
(9.3263 5.09816 0)
(9.67028 4.02508 0)
(9.83453 2.82129 0)
(10.2675 1.89177 0)
(10.6887 0.841053 0)
(10.8344 -0.637809 0)
(10.779 -1.68912 0)
(10.8845 -2.27398 0)
(11.0035 -3.34559 0)
(10.9571 -4.39925 0)
(10.7838 -4.60575 0)
(10.432 -4.71274 0)
(9.73959 -5.31161 0)
(9.20317 -5.36882 0)
(9.00402 -4.65545 0)
(8.68761 -4.46663 0)
(8.20219 -5.15517 0)
(7.91025 -5.58193 0)
(7.89744 -4.8258 0)
(7.97517 -3.87501 0)
(7.90807 -4.2447 0)
(7.73151 -5.63351 0)
(7.46076 -6.93127 0)
(6.8715 -7.92092 0)
(6.29883 -8.62542 0)
(5.79114 -9.15941 0)
(5.2439 -9.59696 0)
(4.92131 -9.55353 0)
(4.74052 -8.73208 0)
(4.51984 -7.53465 0)
(4.24046 -6.42629 0)
(4.10228 -5.31234 0)
(4.22708 -4.11518 0)
(4.49587 -2.78926 0)
(4.89888 -1.33992 0)
(5.28059 0.0902767 0)
(5.6981 1.49733 0)
(6.01771 2.95275 0)
(6.22552 4.38121 0)
(6.32414 5.51183 0)
(6.62695 6.50904 0)
(7.12671 7.44701 0)
(7.57163 8.34613 0)
(7.87687 8.86249 0)
(7.91493 8.97959 0)
(8.06205 8.93012 0)
(8.06655 8.62987 0)
(7.96878 8.00559 0)
(7.79085 7.36634 0)
(7.55496 6.50671 0)
(7.22942 5.55602 0)
(7.11217 4.62473 0)
(6.87755 3.82836 0)
(6.79994 3.16996 0)
(6.80823 2.80568 0)
(6.66693 2.45281 0)
(6.6652 2.17855 0)
(6.71718 2.12003 0)
(6.98106 2.10774 0)
(7.41853 2.39352 0)
(7.71382 2.27863 0)
(8.05002 1.97957 0)
(8.51623 1.54459 0)
(8.74289 1.35701 0)
(9.00543 0.970869 0)
(8.95164 0.374683 0)
(9.10575 -0.21832 0)
(8.91935 -0.79403 0)
(8.79437 -1.02561 0)
(8.63216 -1.62009 0)
(8.72787 -2.28373 0)
(8.3435 -2.27261 0)
(8.33737 -2.29546 0)
(8.12647 -2.69139 0)
(7.88033 -2.70301 0)
(7.64153 -2.13886 0)
(7.07497 -2.37089 0)
(7.68415 -2.71287 0)
(7.4264 -3.04098 0)
(7.85168 -3.37381 0)
(7.17038 -3.1827 0)
(7.3288 -3.26756 0)
(7.55785 -3.71633 0)
(7.59501 -3.87024 0)
(7.32157 -4.00279 0)
(7.97547 -3.91691 0)
(7.40475 -4.08795 0)
(7.3903 -3.66821 0)
(7.29958 -3.57843 0)
(7.56193 -3.88768 0)
(8.05583 -3.94761 0)
(7.98842 -3.89465 0)
(8.2427 -4.24027 0)
(8.01103 -4.413 0)
(7.44799 -4.89508 0)
(7.47931 -4.9887 0)
(6.88044 -4.60976 0)
(6.809 -3.87229 0)
(6.87686 -2.46558 0)
(6.64296 -1.01092 0)
(7.01098 0.436517 0)
(7.21504 1.337 0)
(7.61534 2.40841 0)
(7.61955 3.67491 0)
(7.57429 5.15864 0)
(7.66256 6.48842 0)
(7.56847 7.79235 0)
(7.63613 9.54782 0)
(8.10323 10.9676 0)
(7.58547 11.5259 0)
(7.57931 11.712 0)
(7.60796 11.756 0)
(7.89414 11.0818 0)
(7.33888 10.2183 0)
(7.15222 9.96266 0)
(6.27764 10.8432 0)
(9.45534 9.58857 0)
(7.83907 13.7211 0)
(10.3695 -0.0533971 0)
(10.3549 0.0115063 0)
(10.29 0.0176617 0)
(10.2219 -0.0210659 0)
(10.2448 -0.0954668 0)
(10.2332 -0.116707 0)
(10.3149 -0.1307 0)
(10.3316 -0.12301 0)
(10.3822 -0.103815 0)
(10.4214 -0.0834864 0)
(10.4185 -0.0870219 0)
(10.4438 -0.0862395 0)
(10.4627 -0.0829239 0)
(10.461 -0.112083 0)
(10.49 -0.101108 0)
(10.5235 -0.0893354 0)
(10.5218 -0.0979903 0)
(10.5929 -0.0994118 0)
(10.6247 -0.0588037 0)
(10.7089 -0.0604318 0)
(10.7878 -0.0639329 0)
(10.9023 -0.0496782 0)
(11.049 -0.0407385 0)
(11.1886 -0.0772051 0)
(11.3634 -0.165154 0)
(11.5283 -0.18099 0)
(11.7574 -0.303543 0)
(11.9335 -0.491811 0)
(12.0825 -0.603041 0)
(12.2738 -0.771806 0)
(12.4099 -1.01866 0)
(12.4702 -1.20228 0)
(12.4925 -1.31654 0)
(12.5634 -1.50402 0)
(12.5215 -1.65131 0)
(12.3974 -1.63549 0)
(12.3395 -1.61075 0)
(12.2198 -1.63657 0)
(11.9956 -1.6121 0)
(11.7951 -1.46407 0)
(11.7217 -1.26899 0)
(11.7417 -1.11082 0)
(11.7613 -0.922978 0)
(11.7065 -0.742873 0)
(11.6672 -0.619063 0)
(11.7112 -0.582784 0)
(11.8892 -0.500713 0)
(11.9573 -0.36234 0)
(12.0676 -0.363431 0)
(12.0889 -0.41993 0)
(12.2267 -0.571378 0)
(12.3386 -0.651815 0)
(12.3982 -0.683166 0)
(12.7069 -0.927498 0)
(12.5789 -0.970579 0)
(12.7369 -1.2347 0)
(12.7306 -1.51168 0)
(12.5691 -1.61059 0)
(12.8353 -2.00452 0)
(12.5262 -2.00031 0)
(12.746 -2.25663 0)
(12.876 -2.62467 0)
(12.5735 -2.42486 0)
(12.8861 -2.82248 0)
(12.4742 -3.06571 0)
(12.3637 -3.00739 0)
(12.0412 -3.11731 0)
(10.9818 -2.57255 0)
(10.7851 -2.26078 0)
(9.5591 -1.78478 0)
(9.06549 -1.04343 0)
(8.82125 -0.642358 0)
(7.69336 0.24163 0)
(7.82905 0.611001 0)
(7.06082 0.982498 0)
(6.5678 1.79738 0)
(6.496 2.12938 0)
(5.7169 3.34825 0)
(6.3689 4.90633 0)
(7.47083 5.56105 0)
(7.84537 5.61071 0)
(8.61111 5.13992 0)
(9.55491 4.47989 0)
(10.0411 3.54059 0)
(10.3018 2.38136 0)
(10.754 1.50133 0)
(11.1715 0.627041 0)
(11.3268 -0.751737 0)
(11.3024 -1.72842 0)
(11.441 -2.2491 0)
(11.5543 -3.31053 0)
(11.2795 -4.35414 0)
(10.8766 -4.41391 0)
(10.4051 -4.36022 0)
(9.81475 -4.88172 0)
(9.27865 -5.06266 0)
(9.05944 -4.41134 0)
(8.77626 -4.05024 0)
(8.39164 -4.72174 0)
(8.01974 -5.32831 0)
(7.81154 -4.72853 0)
(7.70047 -3.80588 0)
(7.48511 -4.12134 0)
(7.30329 -5.43764 0)
(6.97064 -6.59327 0)
(6.42096 -7.46038 0)
(5.84967 -8.164 0)
(5.28675 -8.75036 0)
(4.69619 -9.18099 0)
(4.20325 -9.1122 0)
(3.99938 -8.37498 0)
(3.79281 -7.15981 0)
(3.47963 -6.12676 0)
(3.27538 -5.25335 0)
(3.28316 -4.21741 0)
(3.50081 -2.98966 0)
(3.84759 -1.60655 0)
(4.16475 -0.157534 0)
(4.6236 1.33819 0)
(4.9388 2.80226 0)
(5.16847 4.26744 0)
(5.37413 5.40791 0)
(5.656 6.16568 0)
(6.32198 6.97372 0)
(6.72413 7.94148 0)
(6.98444 8.73816 0)
(7.31611 8.93254 0)
(7.56643 8.78147 0)
(7.68937 8.53113 0)
(7.66693 8.18695 0)
(7.54934 7.56167 0)
(7.48917 6.60758 0)
(7.14163 5.73834 0)
(7.08165 4.76597 0)
(7.05166 3.90551 0)
(6.78891 3.25636 0)
(6.89314 2.85125 0)
(6.89181 2.46894 0)
(6.74083 2.2431 0)
(6.76107 2.00081 0)
(7.0267 1.91613 0)
(7.25033 2.06358 0)
(7.51945 2.04129 0)
(7.79878 1.73754 0)
(8.21911 1.241 0)
(8.41081 1.19104 0)
(8.58841 0.912052 0)
(8.63427 0.245723 0)
(8.88493 -0.197677 0)
(8.60248 -0.688652 0)
(8.61324 -0.975429 0)
(8.51129 -1.6662 0)
(8.46886 -2.14158 0)
(8.20081 -2.10121 0)
(7.91141 -2.26786 0)
(8.0394 -2.41854 0)
(7.46152 -2.49228 0)
(7.47625 -1.88547 0)
(7.24479 -2.4462 0)
(7.573 -2.83147 0)
(7.59905 -3.14456 0)
(7.57279 -3.14697 0)
(6.98766 -2.98856 0)
(7.47531 -3.47742 0)
(7.48882 -3.66391 0)
(7.426 -3.88013 0)
(7.45556 -4.08442 0)
(7.36619 -3.86198 0)
(7.0479 -3.88546 0)
(7.10297 -3.60652 0)
(7.07901 -3.79777 0)
(7.03184 -4.03225 0)
(7.05688 -4.04183 0)
(7.30875 -3.88601 0)
(7.4773 -4.08948 0)
(7.22377 -4.27875 0)
(7.01046 -4.59835 0)
(6.37625 -4.67811 0)
(6.11304 -4.49061 0)
(5.97917 -3.64904 0)
(5.7067 -2.59508 0)
(6.04787 -1.03212 0)
(5.79057 0.0707759 0)
(6.608 1.18719 0)
(6.4663 2.22956 0)
(6.76296 3.85276 0)
(6.65784 5.08668 0)
(6.76418 6.57816 0)
(7.12273 7.73492 0)
(6.85564 9.08749 0)
(7.44848 10.7556 0)
(7.71062 11.7801 0)
(7.53309 11.8866 0)
(7.36439 11.5681 0)
(7.46035 10.8585 0)
(7.59279 10.4148 0)
(8.21281 10.0224 0)
(6.05702 11.56 0)
(9.71668 6.95231 0)
(8.90929 12.5508 0)
(11.9262 -0.0362962 0)
(11.8992 -0.0558475 0)
(11.8327 -0.0689112 0)
(11.7595 -0.0763908 0)
(11.7876 -0.146846 0)
(11.783 -0.130039 0)
(11.8508 -0.136434 0)
(11.8691 -0.140049 0)
(11.9002 -0.114043 0)
(11.9434 -0.111804 0)
(11.9517 -0.107157 0)
(11.9429 -0.114302 0)
(11.9862 -0.118714 0)
(11.9778 -0.125979 0)
(11.9962 -0.125129 0)
(12.0433 -0.116543 0)
(12.0278 -0.111771 0)
(12.0909 -0.118712 0)
(12.1142 -0.1164 0)
(12.1479 -0.116956 0)
(12.2181 -0.12296 0)
(12.3234 -0.165482 0)
(12.3659 -0.15327 0)
(12.5143 -0.187327 0)
(12.6613 -0.311467 0)
(12.7176 -0.319279 0)
(12.9123 -0.415064 0)
(13.0487 -0.624688 0)
(13.0542 -0.698166 0)
(13.201 -0.827706 0)
(13.2244 -1.0826 0)
(13.1488 -1.19674 0)
(13.1016 -1.2962 0)
(13.064 -1.45712 0)
(12.9162 -1.54469 0)
(12.7187 -1.53398 0)
(12.5489 -1.50502 0)
(12.37 -1.52652 0)
(12.1126 -1.44577 0)
(12.0199 -1.23726 0)
(11.8739 -1.12254 0)
(11.7279 -1.08702 0)
(11.6257 -0.962403 0)
(11.587 -0.786013 0)
(11.6894 -0.622254 0)
(11.7525 -0.549826 0)
(11.7553 -0.499129 0)
(11.8345 -0.502004 0)
(12.0021 -0.522374 0)
(12.0731 -0.532232 0)
(12.3039 -0.603319 0)
(12.3287 -0.61496 0)
(12.4894 -0.813213 0)
(12.6202 -1.02339 0)
(12.5533 -1.07206 0)
(12.9441 -1.37942 0)
(12.8593 -1.5458 0)
(12.9671 -1.6552 0)
(13.1766 -1.92077 0)
(13.0102 -2.01269 0)
(13.2805 -2.29209 0)
(13.079 -2.50624 0)
(12.9833 -2.51158 0)
(13.0054 -2.89665 0)
(12.5158 -2.85213 0)
(12.4108 -2.62711 0)
(11.7219 -2.60873 0)
(10.8689 -2.0518 0)
(10.7123 -1.77283 0)
(9.71239 -1.1946 0)
(9.32019 -0.550989 0)
(8.93198 -0.340024 0)
(8.0025 0.546784 0)
(8.18206 0.930633 0)
(7.43028 1.21814 0)
(6.99362 2.04708 0)
(7.28198 2.44381 0)
(6.60398 3.31342 0)
(6.97334 4.43238 0)
(7.96886 5.04438 0)
(8.45626 4.96971 0)
(9.06639 4.46797 0)
(9.88388 3.98426 0)
(10.4884 3.20036 0)
(10.8669 2.04578 0)
(11.2188 1.27714 0)
(11.6327 0.473177 0)
(11.8208 -0.848439 0)
(11.8011 -1.80587 0)
(11.8185 -2.30927 0)
(11.7232 -3.21242 0)
(11.3231 -4.09149 0)
(10.7782 -4.00081 0)
(10.3589 -3.85092 0)
(9.82484 -4.42986 0)
(9.33075 -4.76727 0)
(9.05405 -4.23335 0)
(8.81816 -3.79988 0)
(8.48417 -4.39715 0)
(8.10227 -5.02123 0)
(7.69387 -4.47938 0)
(7.38346 -3.6504 0)
(7.1095 -3.99684 0)
(6.83929 -5.1656 0)
(6.49856 -6.15659 0)
(5.81523 -6.92464 0)
(5.18897 -7.62642 0)
(4.57211 -8.25591 0)
(3.94952 -8.81221 0)
(3.45086 -8.88051 0)
(3.20225 -8.14621 0)
(3.03805 -6.95064 0)
(2.82401 -5.82767 0)
(2.54962 -4.97904 0)
(2.36265 -4.17553 0)
(2.39164 -3.1292 0)
(2.65731 -1.8336 0)
(3.00038 -0.457444 0)
(3.376 1.01441 0)
(3.74245 2.5741 0)
(4.06188 4.09381 0)
(4.33919 5.14124 0)
(4.72164 5.8231 0)
(5.30093 6.65435 0)
(5.71977 7.71033 0)
(6.29379 8.34135 0)
(6.65211 8.50189 0)
(6.93704 8.65429 0)
(7.26042 8.48555 0)
(7.3269 8.14092 0)
(7.37956 7.58834 0)
(7.27061 6.7944 0)
(7.11677 5.86465 0)
(7.09211 4.79888 0)
(7.02273 3.99301 0)
(6.87567 3.30624 0)
(6.90664 2.81613 0)
(7.05326 2.53228 0)
(6.75881 2.39734 0)
(6.85649 1.84315 0)
(7.13491 1.82152 0)
(7.19744 1.98784 0)
(7.38949 1.83683 0)
(7.77711 1.50873 0)
(7.95803 1.0319 0)
(8.2442 1.06776 0)
(8.32756 0.82448 0)
(8.44196 0.164535 0)
(8.71596 -0.238881 0)
(8.27614 -0.57804 0)
(8.50449 -0.982125 0)
(8.37684 -1.54055 0)
(8.06731 -1.96494 0)
(8.22668 -1.88506 0)
(7.42604 -2.20671 0)
(8.25939 -2.25213 0)
(7.04184 -2.20781 0)
(7.72997 -1.91498 0)
(7.30977 -2.39509 0)
(7.63635 -3.07197 0)
(7.64274 -3.10484 0)
(7.18529 -2.86851 0)
(6.99341 -3.14882 0)
(7.55815 -3.57655 0)
(7.17503 -3.62203 0)
(7.45469 -3.90096 0)
(7.11105 -3.77812 0)
(6.50335 -3.63707 0)
(6.76184 -3.80228 0)
(6.73491 -3.7343 0)
(6.63266 -3.78466 0)
(6.13375 -3.87302 0)
(6.48808 -4.09106 0)
(6.66984 -3.85887 0)
(6.34018 -4.05182 0)