/*--------------------------------*- C++ -*----------------------------------*\
| =========                 |                                                 |
| \\      /  F ield         | OpenFOAM: The Open Source CFD Toolbox           |
|  \\    /   O peration     | Version:  2.4.0                                 |
|   \\  /    A nd           | Web:      www.OpenFOAM.org                      |
|    \\/     M anipulation  |                                                 |
\*---------------------------------------------------------------------------*/
FoamFile
{
    version     2.0;
    format      ascii;
    class       volScalarField;
    location    "1.41";
    object      p;
}
// * * * * * * * * * * * * * * * * * * * * * * * * * * * * * * * * * * * * * //

dimensions      [0 2 -2 0 0 0 0];

internalField   nonuniform List<scalar> 
8800
(
57.3293
44.9634
37.5756
34.0377
32.1349
30.7692
29.542
28.4228
27.4512
26.4644
25.4816
24.5984
23.6905
22.8228
21.9011
21.1866
20.3464
19.5916
18.8124
18.1206
54.2184
44.6081
37.7458
34.1523
32.194
30.795
29.5502
28.4208
27.4505
26.4636
25.4766
24.5968
23.6891
22.8221
21.8981
21.1853
20.353
19.5823
18.8052
18.0812
52.2546
44.6818
38.3513
34.5267
32.3632
30.8729
29.5958
28.4526
27.4764
26.4808
25.486
24.602
23.6916
22.8213
21.8978
21.1833
20.3691
19.5773
18.8375
18.0877
50.718
44.7389
38.9447
34.9496
32.5493
30.9561
29.6592
28.5083
27.526
26.5167
25.5176
24.6194
23.7042
22.8214
21.9096
21.1799
20.3981
19.6195
18.9816
18.1435
49.4675
44.7102
39.4269
35.3577
32.723
31.0144
29.7095
28.5695
27.5799
26.5639
25.5612
24.6417
23.7235
22.8219
21.9313
21.1732
20.4378
19.6739
19.1304
18.2263
48.4786
44.6138
39.8006
35.7044
32.8788
31.0517
29.7439
28.611
27.634
26.6086
25.6126
24.6664
23.7358
22.8259
21.9419
21.1717
20.4468
19.7602
19.2394
18.3083
47.7251
44.4972
40.0735
35.987
33.0217
31.0683
29.7593
28.6458
27.6689
26.6538
25.646
24.6942
23.7453
22.8264
21.9581
21.1434
20.4582
19.7113
19.4195
18.7231
47.1697
44.4005
40.2524
36.2017
33.1449
31.092
29.7487
28.6752
27.6953
26.6852
25.6754
24.7165
23.7507
22.8377
21.9268
21.1555
20.3825
19.6773
19.0284
19.3327
46.8113
44.3296
40.3588
36.351
33.2336
31.1034
29.7399
28.6977
27.7075
26.7103
25.6866
24.7346
23.7245
22.8388
21.9447
21.1266
20.3749
19.6588
19.2123
19.8168
46.6348
44.2909
40.41
36.4278
33.2825
31.1065
29.7323
28.7098
27.7287
26.716
25.7108
24.7299
23.7431
22.8312
21.9473
21.116
20.3581
19.6748
19.2444
19.9099
46.6314
44.295
40.4024
36.437
33.2811
31.1164
29.7293
28.7166
27.7236
26.7202
25.7036
24.7456
23.7351
22.8424
21.9528
21.1115
20.3463
19.6959
19.2635
20.0707
46.8055
44.3366
40.346
36.3619
33.2415
31.1084
29.7369
28.7136
27.7094
26.7044
25.7042
24.7249
23.7434
22.8287
21.9709
21.1162
20.3646
19.6883
19.3167
20.0647
47.1605
44.4135
40.2257
36.2211
33.1509
31.0978
29.7457
28.6993
27.6864
26.6815
25.6851
24.727
23.7329
22.8399
21.9797
21.1324
20.3566
19.7223
19.2985
20.0368
47.7107
44.514
40.0416
36.0053
33.0325
31.0765
29.7496
28.6845
27.6483
26.6474
25.6674
24.7062
23.733
22.8363
21.9966
21.1488
20.3792
19.7401
19.2915
19.9411
48.4696
44.6253
39.7702
35.7255
32.891
31.0455
29.7465
28.6494
27.61
26.6005
25.6367
24.6904
23.7199
22.8341
22.0161
21.1703
20.4034
19.7809
19.2988
19.7344
49.4543
44.7219
39.4018
35.375
32.7402
30.9969
29.7197
28.6146
27.5532
26.5458
25.6062
24.6627
23.7077
22.8287
22.0319
21.1933
20.442
19.8298
19.3269
19.4861
50.7056
44.7481
38.9208
34.9718
32.5728
30.9257
29.6747
28.5606
27.4973
26.4909
25.5716
24.6407
23.6961
22.8193
22.0468
21.2111
20.4798
19.8763
19.3907
19.2073
52.2428
44.6867
38.3328
34.5467
32.3904
30.8371
29.6122
28.5091
27.4493
26.4492
25.5474
24.6224
23.6884
22.8165
22.0549
21.2237
20.5116
19.9112
19.4506
19.0668
54.2102
44.6098
37.7289
34.1701
32.2241
30.7587
29.5659
28.4766
27.4255
26.4325
25.5369
24.6166
23.6896
22.8203
22.0586
21.2341
20.528
19.9305
19.4471
18.9901
57.3248
44.9639
37.56
34.0561
32.1635
30.7343
29.5591
28.4745
27.4276
26.4367
25.5393
24.6172
23.6932
22.8242
22.0596
21.2374
20.5338
19.9347
19.4477
19.1129
18.3433
18.4227
18.4221
18.3729
18.3276
18.3006
18.2732
18.2309
18.1661
18.088
18.0203
17.9801
17.974
17.9952
18.0211
18.039
18.0215
17.9801
17.9235
17.8687
17.8468
17.8464
17.8738
17.9102
17.9447
17.97
17.9953
18.0295
18.0784
18.1476
18.2358
18.3407
18.4574
18.5629
18.6447
18.6781
18.6541
18.5617
18.3984
18.1809
17.9468
17.7319
17.5507
17.3904
17.2623
17.1827
17.1534
17.1323
17.1487
17.1351
17.14
17.0826
17.0759
16.9877
16.9555
16.8547
16.8031
16.6674
16.5284
16.2838
16.0408
15.7112
15.4074
15.0433
14.8116
14.5774
14.5105
14.4322
14.4582
14.4333
14.4484
14.4062
14.4272
14.3378
14.3234
14.1282
14.054
13.843
13.7567
13.5129
13.4901
13.329
13.4346
13.5047
13.8991
14.3664
15.1601
15.8973
16.7999
17.3922
17.9083
17.9599
17.8738
17.2916
16.6004
15.4698
14.6305
13.6015
13.4863
13.5414
13.9691
14.3806
15.102
15.7486
16.8325
17.7875
18.9082
19.8836
20.5664
20.9654
21.061
20.5089
19.9718
18.6685
17.4352
15.7879
14.1389
12.418
10.5458
8.80914
7.24717
5.46923
4.00112
2.44973
1.17962
0.0372264
-1.02667
-1.67489
-2.20702
-2.36325
-2.4292
-2.19094
-2.05235
-1.8372
-1.6569
-1.4493
-1.33469
-1.0876
-1.01891
-0.732862
-0.683077
-0.604188
-0.474226
-0.543091
-0.623651
-0.78024
-1.10732
-1.64879
-2.16004
-2.70948
-3.27877
-3.34243
-3.10479
-2.45807
-1.44181
-0.159047
1.4565
3.10913
4.861
6.29578
7.69725
8.47838
9.33983
10.2616
11.7641
13.6331
15.885
18.1235
19.9063
21.1845
21.5508
21.4007
20.4307
18.9361
16.8313
14.1794
11.2654
8.0762
4.84224
1.66284
-1.40169
-4.05665
-6.45299
-8.35732
-9.8693
-10.8023
-11.3232
-11.1618
-10.4923
-9.2726
-7.41358
-4.92257
-1.63174
2.25512
7.0528
12.1886
18.0164
23.5145
28.5176
29.2112
18.1574
18.1895
18.2337
18.2719
18.2877
18.2855
18.2558
18.2128
18.1581
18.0988
18.0534
18.0209
18.0024
18.0102
18.0093
18.0181
17.9915
17.9543
17.9142
17.8681
17.8508
17.8472
17.8633
17.89
17.9207
17.9496
17.9827
18.0196
18.07
18.1376
18.2231
18.318
18.4258
18.5147
18.5861
18.615
18.5959
18.5195
18.3871
18.1986
17.9942
17.7915
17.6182
17.4728
17.3551
17.2674
17.2367
17.1996
17.219
17.1745
17.2027
17.0907
17.1022
16.9484
16.9359
16.7601
16.7068
16.5047
16.3718
16.0934
15.8762
15.5334
15.2648
14.9125
14.7132
14.4792
14.4236
14.3447
14.3859
14.3793
14.4347
14.4139
14.4705
14.3951
14.4393
14.2677
14.2615
14.0265
14.0379
13.8066
13.8359
13.6754
13.8048
13.8622
14.2021
14.5784
15.2204
15.792
16.5348
17.0077
17.4143
17.4015
17.276
16.7925
16.2493
15.284
14.5638
13.695
13.5071
13.5129
13.9109
14.3703
15.0681
15.7882
16.6297
17.6241
18.4723
19.4053
19.9536
20.3083
20.2565
19.7996
19.1743
18.1182
16.7733
15.4571
13.7771
12.1428
10.3729
8.80224
7.22709
5.60791
4.24927
2.83812
1.5907
0.620757
-0.367791
-0.989168
-1.48717
-1.66121
-1.78432
-1.6011
-1.59337
-1.34199
-1.27684
-1.05203
-0.992296
-0.757071
-0.756462
-0.45003
-0.479515
-0.375791
-0.332303
-0.326061
-0.481978
-0.646854
-0.868526
-1.30287
-1.69289
-1.96666
-2.33619
-2.39912
-2.2571
-1.68129
-0.879418
0.121575
1.48522
2.82445
4.40512
5.51993
6.67724
7.31123
7.92801
8.94413
10.3132
12.2989
14.2729
16.469
17.9589
19.13
19.4958
19.3744
18.4923
17.1572
15.4488
13.2556
10.7914
8.14029
5.21947
2.43189
-0.369641
-2.79428
-5.01854
-6.74098
-8.21577
-9.05379
-9.5273
-9.37045
-8.77581
-7.55506
-5.75519
-3.42429
-0.301324
3.21999
7.50892
11.9916
16.7185
20.992
23.753
24.4687
18.2234
18.2313
18.2106
18.2639
18.3184
18.3218
18.2532
18.1738
18.1056
18.058
18.0403
18.0336
18.0215
18.0356
18.0136
18.0153
17.977
17.9374
17.9072
17.8559
17.8449
17.8289
17.8448
17.8616
17.8926
17.9259
17.9666
18.0114
18.0649
18.1317
18.2094
18.2922
18.3859
18.458
18.5136
18.5443
18.5222
18.4599
18.3457
18.1941
18.0191
17.8363
17.6731
17.535
17.4312
17.3296
17.3027
17.2283
17.2703
17.1609
17.238
17.0426
17.1073
16.8543
16.8836
16.6255
16.588
16.3267
16.2153
15.9119
15.7259
15.3833
15.1683
14.834
14.6765
14.452
14.412
14.3451
14.3941
14.402
14.4742
14.4556
14.5434
14.4759
14.5408
14.429
14.4294
14.2674
14.2723
14.098
14.1282
14.014
14.1114
14.1771
14.4374
14.7252
15.2477
15.6707
16.2714
16.6234
16.8898
16.9046
16.6953
16.3437
15.848
15.104
14.4396
13.8684
13.5229
13.6998
13.8661
14.3963
14.9701
15.6904
16.3385
17.2299
17.8753
18.6322
19.1171
19.4016
19.3072
19.0234
18.4715
17.4712
16.448
15.1178
13.4969
11.9732
10.3563
8.81824
7.35202
5.85865
4.5396
3.35312
2.12133
1.26174
0.354677
-0.240841
-0.754363
-0.930821
-1.14307
-0.987054
-1.07077
-0.833858
-0.799304
-0.629631
-0.574056
-0.296329
-0.355819
-0.0999029
-0.0418068
-0.0070994
0.0337063
0.0103541
-0.114423
-0.317261
-0.506279
-0.842933
-1.20478
-1.45496
-1.71442
-1.84713
-1.75261
-1.4096
-0.650592
0.182914
1.42934
2.74763
3.98059
4.88948
5.61055
6.11264
6.55298
7.69002
9.01264
10.988
12.8015
14.8856
16.2626
17.0716
17.5718
17.429
16.5651
15.4714
14.0857
12.309
10.1959
8.05961
5.64154
3.29058
0.856623
-1.26043
-3.26945
-4.87876
-6.22573
-7.08337
-7.53996
-7.53098
-6.99985
-5.97775
-4.24562
-2.14821
0.735444
3.81998
7.44641
11.1746
14.8661
18.1737
20.0695
20.6797
17.6201
17.7048
18.2273
18.5654
18.6393
18.5191
18.3046
18.1252
18.0169
17.9627
17.982
18.014
18.0289
18.0675
18.0332
18.0392
17.9886
17.9424
17.9096
17.8491
17.8365
17.8179
17.8257
17.8441
17.8697
17.909
17.9528
18.0026
18.053
18.1174
18.1875
18.2555
18.3362
18.3855
18.4304
18.4492
18.4286
18.3797
18.2897
18.1627
18.0224
17.8621
17.7101
17.5834
17.4786
17.3774
17.3466
17.2324
17.3038
17.1236
17.2688
16.9681
17.1217
16.7469
16.8435
16.4833
16.4885
16.1667
16.0856
15.7627
15.6195
15.2809
15.1229
14.8023
14.6931
14.4864
14.4426
14.412
14.3998
14.5199
14.476
14.6254
14.5601
14.6073
14.6054
14.5302
14.5592
14.3979
14.4657
14.2949
14.361
14.3126
14.3602
14.4676
14.6426
14.8458
15.2648
15.5364
16.0053
16.2688
16.3778
16.509
16.1265
15.9499
15.4598
14.9128
14.3723
14.0171
13.6783
13.8732
13.9404
14.353
14.8631
15.4239
16.0549
16.6839
17.2671
17.8612
18.1995
18.515
18.3702
18.1834
17.6778
16.7994
15.9094
14.7362
13.2939
11.9342
10.5092
9.02329
7.70502
6.36737
5.07271
3.99106
2.84057
2.01055
1.15078
0.604459
0.00555908
-0.146809
-0.448391
-0.345027
-0.42801
-0.279178
-0.252506
-0.0622657
-0.0797078
0.189797
0.2051
0.300194
0.45281
0.42875
0.477434
0.388698
0.327142
0.066348
-0.118019
-0.374268
-0.740435
-1.01647
-1.27694
-1.38485
-1.37313
-1.09352
-0.366985
0.258914
1.19418
2.28376
3.06584
3.8304
4.26315
4.72045
5.22235
6.27065
7.55272
9.47821
11.2648
13.1901
14.664
15.3872
15.9171
15.7339
14.886
14.1004
12.8955
11.4039
9.69031
8.00216
6.05801
4.1061
2.13719
0.375184
-1.35486
-2.81225
-3.97254
-4.78217
-5.22941
-5.32167
-4.8252
-3.97465
-2.49129
-0.709623
1.66558
4.29687
7.2185
10.2339
13.0643
15.5562
16.9272
17.3484
17.3615
17.5735
18.4622
18.9765
18.9961
18.6969
18.3238
18.0363
17.8781
17.8186
17.8666
17.9539
18.0173
18.1037
18.0635
18.074
18.0103
17.9654
17.9144
17.8513
17.838
17.8106
17.8141
17.8217
17.8506
17.8796
17.9277
17.9807
18.0275
18.0813
18.147
18.1995
18.2607
18.2899
18.3305
18.3412
18.3209
18.2755
18.2006
18.1153
17.9868
17.8599
17.7098
17.5977
17.4895
17.4054
17.362
17.2237
17.3123
17.0789
17.2759
16.8978
17.138
16.666
16.8457
16.381
16.4513
16.0515
15.9945
15.6702
15.5126
15.2389
15.0242
14.8203
14.6413
14.5497
14.4177
14.4803
14.3831
14.5708
14.4598
14.6581
14.5375
14.6571
14.6106
14.5553
14.6374
14.4511
14.5953
14.4294
14.5093
14.517
14.5379
14.6723
14.7776
14.9515
15.2459
15.4338
15.7494
15.9566
15.9772
16.1005
15.7367
15.6206
15.1738
14.8495
14.3617
14.1925
13.9241
13.9956
14.1542
14.3557
14.8439
15.3038
15.8105
16.3137
16.7954
17.19
17.4553
17.6809
17.4878
17.3807
16.823
16.1755
15.3175
14.2622
13.1169
11.8697
10.6596
9.3292
8.16622
6.93174
5.72398
4.75634
3.68431
2.87215
2.00666
1.5175
0.854894
0.711091
0.414572
0.387341
0.344614
0.407088
0.347431
0.551477
0.554947
0.618756
0.810565
0.775641
0.937979
0.863571
0.945507
0.805567
0.732171
0.527892
0.280413
0.0563739
-0.282896
-0.61549
-0.839449
-0.840175
-0.921841
-0.749377
-0.326519
0.0268279
0.60974
1.37649
1.84745
2.44411
2.67191
3.08087
3.69903
4.64299
6.01489
7.74318
9.44483
11.209
12.644
13.4125
14.2164
14.1541
13.6134
13.0902
12.0148
10.7993
9.47215
8.08351
6.48996
4.83829
3.31317
1.80519
0.393862
-0.831469
-1.85119
-2.50054
-2.94927
-3.0826
-2.62954
-1.9664
-0.852238
0.669307
2.44815
4.58316
6.89098
9.24479
11.4108
13.2873
14.3725
14.7888
17.4309
17.754
18.7339
19.2338
19.1546
18.7497
18.2863
17.9503
17.799
17.7749
17.8206
17.9217
18.0132
18.1327
18.1013
18.0941
18.053
17.9973
17.9302
17.8597
17.8413
17.8054
17.7999
17.7972
17.8323
17.8569
17.8967
17.9589
17.9933
18.032
18.0972
18.1454
18.1816
18.2021
18.2297
18.2343
18.1978
18.1834
18.0955
18.0471
17.9343
17.8408
17.6951
17.5963
17.4916
17.418
17.3553
17.204
17.2906
17.0573
17.2492
16.8988
17.1214
16.6951
16.8413
16.3938
16.4291
16.005
15.8961
15.597
15.3903
15.1572
14.9022
14.7468
14.5475
14.4889
14.329
14.4228
14.3019
14.5156
14.4114
14.6054
14.5184
14.6218
14.6122
14.549
14.6546
14.5243
14.6344
14.5714
14.602
14.6837
14.6921
14.8258
14.8876
15.0352
15.223
15.3657
15.5268
15.7309
15.6656
15.7817
15.5181
15.3766
15.0986
14.8182
14.4877
14.3414
14.1309
14.1428
14.3196
14.445
14.8481
15.2191
15.5882
16.0084
16.3628
16.587
16.8625
16.9256
16.7422
16.7491
16.0562
15.681
14.8553
13.8648
12.9966
11.8482
10.7475
9.61013
8.59953
7.43576
6.3927
5.57079
4.4684
3.81216
2.94448
2.46869
1.88208
1.6254
1.41077
1.22656
1.17454
1.18034
1.08369
1.1654
1.28858
1.18243
1.4183
1.34525
1.47152
1.38315
1.42951
1.27106
1.20409
1.02175
0.739134
0.56283
0.228854
-0.00562941
-0.308768
-0.408351
-0.596179
-0.621134
-0.468363
-0.313031
-0.0812345
0.232719
0.392265
0.715336
0.831462
1.14323
1.83515
2.63137
4.01374
5.62685
7.27571
8.91937
10.2979
11.4197
12.256
12.3503
12.3451
12.035
11.2342
10.4225
9.38801
8.25373
6.97651
5.59506
4.40267
3.06766
1.87954
0.82024
-0.0815112
-0.647099
-1.13318
-1.2892
-0.939726
-0.460233
0.382773
1.59028
2.9854
4.69766
6.49577
8.30468
10.0645
11.5377
12.4961
13.0137
18.0946
18.2218
18.6942
18.8467
18.6482
18.3178
17.9693
17.7576
17.7287
17.7977
17.8589
17.9534
18.0469
18.1615
18.1431
18.1105
18.0892
18.0211
17.9351
17.8625
17.8518
17.8067
17.7978
17.7841
17.8164
17.8336
17.8564
17.9279
17.9383
17.9774
18.0276
18.089
18.089
18.1178
18.1339
18.1515
18.0997
18.1012
17.9928
17.9752
17.8442
17.8041
17.6604
17.5771
17.489
17.4343
17.3418
17.2059
17.2535
17.0584
17.1695
16.9092
17.0253
16.7494
16.8002
16.4733
16.4376
16.0364
15.8595
15.5541
15.3206
15.0256
14.8051
14.5667
14.4556
14.3038
14.2314
14.2364
14.2038
14.3619
14.3259
14.5215
14.4492
14.6204
14.5808
14.6013
14.665
14.6178
14.7052
14.6977
14.7239
14.8441
14.8252
15.0047
14.9665
15.1677
15.222
15.3673
15.4362
15.576
15.5401
15.57
15.4226
15.2722
15.0714
14.8434
14.6037
14.4189
14.268
14.2614
14.3776
14.5418
14.7629
15.0847
15.3689
15.643
15.9269
16.083
16.2348
16.3134
16.1458
16.1101
15.5764
15.2498
14.5087
13.7311
12.8539
11.9062
10.9204
9.87208
8.99814
7.97109
6.95909
6.28921
5.28414
4.65017
3.96412
3.37156
3.00539
2.53108
2.37535
2.13089
1.95497
1.99914
1.90559
1.82342
2.03787
1.85832
2.02373
1.98486
2.00928
1.98298
1.98618
1.78408
1.77902
1.59093
1.31408
1.13942
0.79195
0.590825
0.165551
0.0109791
-0.288568
-0.545076
-0.655157
-0.867159
-0.903729
-1.03532
-1.17466
-1.20237
-1.27584
-1.11407
-0.473033
0.270867
1.60502
3.13189
4.80548
6.59994
8.13533
9.39416
10.3628
10.8551
11.2205
11.0168
10.6223
10.1097
9.27416
8.41309
7.39892
6.29784
5.33011
4.16169
3.13043
2.19201
1.35246
0.779038
0.293507
0.0916515
0.257944
0.583868
1.22405
2.15168
3.30022
4.65674
6.13385
7.65549
9.05232
10.2552
11.1664
11.7701
20.5252
20.1027
18.8317
17.971
17.4963
17.3658
17.3526
17.4458
17.6578
17.8606
17.9731
18.0491
18.1237
18.1914
18.1681
18.1076
18.0845
18.0175
17.913
17.8453
17.8474
17.785
17.7746
17.7551
17.7821
17.8025
17.8208
17.896
17.891
17.9289
17.9653
18.034
17.9961
18.0376
18.0446
18.0504
18.0174
17.9987
17.9182
17.9005
17.7989
17.7577
17.6419
17.5543
17.4901
17.4545
17.322
17.2348
17.2194
17.1166
17.093
16.9365
16.9143
16.7701
16.6991
16.5107
16.4478
16.1023
15.945
15.642
15.4662
15.0789
14.9445
14.5623
14.5463
14.2436
14.2237
14.1307
14.1355
14.235
14.2606
14.4386
14.4001
14.6285
14.5477
14.6916
14.653
14.7532
14.7795
14.8016
14.881
14.9402
14.979
15.1459
15.0587
15.3414
15.2276
15.47
15.427
15.5441
15.5423
15.4475
15.4201
15.2256
15.0489
14.8753
14.6305
14.4851
14.3403
14.3279
14.3924
14.5033
14.6345
14.8853
15.0897
15.3155
15.4793
15.649
15.6895
15.7765
15.7173
15.4979
15.2863
14.8679
14.1956
13.6739
12.7603
11.9569
11.135
10.1746
9.33402
8.49454
7.55654
6.90626
6.04712
5.44865
4.84197
4.17826
3.95802
3.32716
3.20884
2.99272
2.72736
2.72134
2.66307
2.56196
2.62496
2.59923
2.63196
2.63092
2.59487
2.58612
2.62971
2.37548
2.37978
2.20525
1.97616
1.77216
1.45195
1.17242
0.679175
0.388409
-0.0636436
-0.460394
-0.902706
-1.5099
-1.88608
-2.45833
-2.84447
-3.21147
-3.52306
-3.53186
-3.12321
-2.45244
-1.1334
0.458759
2.16841
4.17996
5.98982
7.42311
8.61773
9.46936
9.97707
10.0945
10.1377
9.82477
9.32951
8.69497
7.80939
6.97341
6.12559
5.07337
4.17968
3.38451
2.58412
1.91947
1.45666
1.24081
1.24264
1.41919
1.9099
2.62575
3.54663
4.60879
5.78968
7.04331
8.22333
9.24925
10.1127
10.7664
21.3587
20.7714
18.951
17.5796
16.8735
16.7763
16.9424
17.2439
17.6119
17.9499
18.1065
18.1819
18.2273
18.2522
18.1975
18.1168
18.0657
18.0084
17.8824
17.8299
17.8369
17.7734
17.7583
17.7527
17.763
17.7904
17.7953
17.8613
17.8436
17.8715
17.9131
17.9774
17.9338
17.9677
17.9842
17.9633
17.9489
17.9132
17.8447
17.8407
17.7249
17.7186
17.5809
17.5256
17.4524
17.4472
17.2926
17.2522
17.2021
17.1272
17.0649
16.9286
16.8532
16.754
16.6075
16.5202
16.3803
16.1888
16.0015
15.8356
15.6932
15.3653
15.3038
14.9036
14.9512
14.5434
14.5579
14.2861
14.2856
14.2266
14.2424
14.3953
14.3254
14.6423
14.5096
14.7511
14.6971
14.8094
14.9234
14.8666
15.0229
15.0223
15.0825
15.2202
15.1469
15.4437
15.2793
15.5784
15.4689
15.5782
15.5844
15.3963
15.4233
15.1846
15.0139
14.8724
14.5954
14.5069
14.334
14.2763
14.3058
14.3318
14.4378
14.6455
14.7329
15.0092
15.0636
15.2333
15.3055
15.2875
15.3427
15.0368
14.9186
14.5284
14.0032
13.4778
12.8033
12.0334
11.26
10.5423
9.62522
8.93111
8.13453
7.46046
6.70788
6.13633
5.60289
4.9169
4.73096
4.17881
3.92299
3.75819
3.5556
3.34855
3.37844
3.3261
3.20481
3.3433
3.23876
3.34672
3.24509
3.22166
3.31403
3.09099
3.06108
2.88672
2.74508
2.40643
2.18849
1.80948
1.3132
0.799937
0.106359
-0.487028
-1.29532
-2.09619
-2.90112
-3.89439
-4.61747
-5.37884
-5.92815
-6.06522
-5.90959
-5.3999
-4.0333
-2.19978
-0.257478
1.87463
3.82518
5.50669
7.08935
8.20832
8.92095
9.50188
9.73768
9.63005
9.46978
8.93314
8.27594
7.66819
6.83525
5.96524
5.18054
4.38478
3.65742
2.99117
2.48691
2.19836
2.09938
2.16228
2.48321
2.98578
3.68287
4.51695
5.47365
6.48109
7.46947
8.40721
9.23629
9.91803
21.6604
21.1624
19.235
17.6426
16.7427
16.5462
16.7393
17.1025
17.5581
17.9878
18.2001
18.2634
18.3139
18.2899
18.2238
18.1171
18.0457
17.9816
17.8486
17.7988
17.8172
17.7472
17.7335
17.7378
17.7271
17.7682
17.764
17.8333
17.812
17.8289
17.8695
17.9206
17.8674
17.886
17.9137
17.8801
17.8801
17.8408
17.773
17.7887
17.659
17.6761
17.5373
17.4915
17.4217
17.4293
17.2589
17.2455
17.1556
17.1119
16.9966
16.912
16.793
16.7436
16.5261
16.5029
16.309
16.2267
15.9769
15.9738
15.7519
15.6117
15.5177
15.2353
15.348
14.9516
15.0738
14.7593
14.7668
14.6108
14.5451
14.5737
14.4465
14.6705
14.5676
14.752
14.8087
14.8529
15.0621
14.9831
15.1671
15.1452
15.2206
15.3128
15.2634
15.5147
15.399
15.5945
15.5725
15.5602
15.6438
15.3693
15.3883
15.178
14.9328
14.8452
14.5027
14.4657
14.2244
14.1605
14.1246
14.1339
14.1764
14.3356
14.3551
14.6015
14.6575
14.7522
14.9041
14.8151
14.9071
14.6806
14.5778
14.191
13.9568
13.2785
12.8097
12.231
11.2874
10.8699
9.98045
9.2703
8.66904
7.97077
7.32842
6.70609
6.3124
5.62454
5.32347
5.07637
4.54392
4.45917
4.35551
4.01058
4.06788
4.02521
3.88091
4.00716
3.89648
4.10923
3.95943
3.98551
4.02888
3.89675
3.87143
3.69741
3.62799
3.16266
2.96921
2.41392
1.96837
1.2705
0.398153
-0.47734
-1.63863
-2.70232
-3.98777
-5.22146
-6.43659
-7.58987
-8.42135
-8.80479
-8.86386
-8.39326
-7.01919
-5.1987
-2.85525
-0.308784
1.91727
3.93765
5.77225
7.05612
8.13053
9.07174
9.41829
9.66879
9.75985
9.30344
8.90604
8.41284
7.5748
6.87771
6.17869
5.34663
4.61201
3.94826
3.45292
3.05097
2.81824
2.78022
2.94014
3.26795
3.73614
4.33635
5.11468
5.92377
6.76519
7.63478
8.45224
9.1588
21.9004
21.4331
19.4249
17.7008
16.6967
16.432
16.6034
17.0012
17.4784
17.964
18.2242
18.3028
18.3659
18.3067
18.2336
18.1171
18.0345
17.958
17.8251
17.7777
17.7997
17.7283
17.712
17.7371
17.7021
17.753
17.7463
17.7966
17.7842
17.7635
17.824
17.8543
17.812
17.8154
17.8492
17.8086
17.815
17.7791
17.7062
17.7421
17.609
17.6391
17.508
17.4685
17.4015
17.409
17.2327
17.2316
17.1364
17.088
16.9676
16.8808
16.7463
16.7155
16.4634
16.472
16.2744
16.2069
15.9919
15.9949
15.8026
15.7095
15.5968
15.4368
15.4174
15.2283
15.1772
15.0837
15.0293
14.9322
14.9121
14.8455
14.7352
14.8501
14.7635
14.8592
14.985
14.9613
15.2233
15.1449
15.3188
15.3382
15.3875
15.4716
15.4799
15.5802
15.6741
15.5982
15.774
15.5868
15.6752
15.4169
15.3543
15.185
14.8908
14.8009
14.4401
14.3813
14.09
14.0173
13.8891
13.8825
13.8384
13.9243
13.9126
14.0804
14.1748
14.2286
14.3731
14.344
14.3854
14.237
14.258
13.8156
13.7672
13.2458
12.6955
12.4221
11.4961
11.0479
10.4454
9.67461
9.12423
8.55972
7.98411
7.30517
7.04428
6.39414
5.94542
5.92182
5.27765
5.18535
5.08095
4.78812
4.78351
4.73687
4.69983
4.73199
4.66072
4.8931
4.79879
4.84939
4.86157
4.81307
4.71266
4.56222
4.51346
4.06129
3.77544
3.07664
2.61234
1.69384
0.806647
-0.39787
-1.79756
-3.18969
-4.93299
-6.43759
-8.174
-9.57629
-10.8218
-11.5885
-11.9149
-11.5207
-10.0628
-8.10596
-5.5308
-2.7129
0.192722
2.6494
4.69463
6.28438
7.64661
8.68941
9.3159
9.89496
10.0479
9.79666
9.59364
9.16245
8.47626
7.84613
7.13368
6.33542
5.58754
4.84608
4.27013
3.80362
3.49497
3.27639
3.23893
3.43438
3.70308
4.08573
4.66408
5.32041
6.05686
6.84572
7.63922
8.38932
21.9941
21.5478
19.5125
17.7388
16.7065
16.4184
16.578
16.9888
17.4581
17.9606
18.2476
18.3336
18.4043
18.3147
18.2318
18.1188
18.0226
17.9444
17.7982
17.7649
17.7762
17.7169
17.69
17.7322
17.6844
17.7215
17.7368
17.7513
17.7635
17.7118
17.7779
17.8063
17.7488
17.7607
17.7693
17.7496
17.7397
17.7197
17.6494
17.6977
17.5735
17.5995
17.5034
17.4492
17.4142
17.394
17.2433
17.2317
17.1513
17.0839
16.9728
16.8811
16.7417
16.7291
16.4489
16.4835
16.2683
16.2153
16.0068
16.0202
15.8424
15.7453
15.682
15.4225
15.5101
15.2301
15.1934
15.1477
14.9653
15.0691
14.898
15.018
14.8458
14.9811
14.9514
14.9372
15.136
15.0585
15.2869
15.2952
15.4013
15.4731
15.5423
15.593
15.6863
15.6765
15.8611
15.7401
15.8462
15.6879
15.6405
15.5108
15.3347
15.1788
14.924
14.6391
14.4228
14.2223
13.9085
13.8668
13.566
13.5754
13.4785
13.3995
13.4999
13.4586
13.5984
13.7035
13.7104
13.8322
13.8689
13.7498
13.9114
13.5346
13.4253
13.2642
12.6247
12.4394
11.8871
11.2382
10.8563
10.2624
9.58252
9.18572
8.69425
7.98949
7.79404
7.23145
6.78254
6.65034
6.17383
5.97973
5.83826
5.68475
5.5627
5.56037
5.54998
5.56732
5.53232
5.6878
5.67582
5.7024
5.73987
5.71396
5.58794
5.40369
5.27003
4.94972
4.56658
3.8673
3.26965
2.23599
1.25742
-0.199738
-1.64657
-3.41654
-5.41498
-7.35483
-9.47204
-11.1687
-12.8106
-13.822
-14.4893
-14.0906
-12.7848
-10.5733
-7.80622
-4.76937
-1.39946
1.43479
3.90999
5.84598
7.43129
8.55899
9.50254
10.1453
10.3579
10.4111
10.219
9.82195
9.36122
8.71965
7.95524
7.20926
6.46213
5.68297
5.01524
4.43036
4.0222
3.66756
3.44375
3.42685
3.54994
3.7379
4.13587
4.68609
5.34826
6.04014
6.75722
7.55089
21.9705
21.5295
19.5101
17.773
16.7859
16.5104
16.6848
17.0864
17.5351
17.9996
18.2838
18.3522
18.4019
18.299
18.2046
18.0979
17.9981
17.923
17.7834
17.7557
17.765
17.7225
17.6788
17.7281
17.6717
17.689
17.7212
17.7053
17.7381
17.6652
17.721
17.7492
17.6852
17.7056
17.6985
17.7028
17.6843
17.659
17.6043
17.6391
17.5389
17.5553
17.4843
17.4399
17.4076
17.3905
17.2527
17.2471
17.1756
17.1074
17.0061
16.9187
16.7926
16.7716
16.5207
16.5185
16.3496
16.2491
16.0884
16.0481
15.8853
15.7873
15.6817
15.4949
15.487
15.2725
15.1829
15.1305
14.9778
14.9468
14.9227
14.8503
14.915
14.9206
15.0276
14.9987
15.1586
15.1344
15.2656
15.3594
15.3787
15.5739
15.5911
15.7157
15.7693
15.7934
15.883
15.8033
15.8338
15.762
15.606
15.5358
15.2875
15.0395
14.9246
14.5206
14.3905
14.0473
13.7419
13.6642
13.238
13.2469
13.088
12.8894
13.0921
12.8663
13.0392
13.1776
13.064
13.3386
13.3916
13.2922
13.5909
13.313
13.1668
13.2701
12.6946
12.5112
12.2695
11.565
11.2792
10.8517
10.1496
9.82292
9.36712
8.79803
8.44742
8.10404
7.60172
7.30557
7.11649
6.73557
6.68273
6.54536
6.35904
6.39116
6.33222
6.37501
6.39351
6.47711
6.4856
6.46015
6.44589
6.48159
6.39322
6.22858
6.04354
5.75481
5.35526
4.7492
4.0127
2.99694
1.8121
0.238847
-1.37724
-3.40236
-5.42496
-7.81536
-9.9003
-12.0191
-13.9145
-15.0566
-15.9181
-15.5327
-14.5355
-12.1919
-9.38612
-5.89278
-2.41753
0.633602
3.32752
5.5267
7.26165
8.51648
9.75404
10.4093
10.7786
10.9595
10.8191
10.5218
10.1083
9.44145
8.67488
7.92779
7.11759
6.27972
5.56167
4.96843
4.42139
3.9035
3.61128
3.49293
3.41339
3.45895
3.70801
4.11276
4.68246
5.31793
6.00977
6.83954
21.7348
21.3069
19.3905
17.7882
16.8971
16.6988
16.9124
17.2894
17.6869
18.0659
18.3024
18.3492
18.3559
18.2664
18.1642
18.0694
17.9802
17.9041
17.7895
17.753
17.7537
17.7186
17.6783
17.7027
17.6714
17.6618
17.6918
17.6698
17.6825
17.6332
17.6536
17.6899
17.6294
17.6503
17.6299
17.6378
17.6154
17.593
17.5602
17.5714
17.5216
17.5081
17.4804
17.4308
17.4058
17.3777
17.2717
17.2606
17.1898
17.1398
17.0252
16.9669
16.8393
16.8083
16.6079
16.5631
16.4299
16.3034
16.1736
16.066
15.9433
15.7912
15.6986
15.5022
15.4652
15.2669
15.1639
15.1133
14.9486
14.9685
14.8908
14.9073
14.9064
14.9411
15.0197
15
15.1476
15.1742
15.2798
15.3994
15.4774
15.6018
15.7485
15.752
15.9257
15.8758
15.9632
15.9297
15.8318
15.8816
15.5743
15.5993
15.2811
15.0629
14.9194
14.4515
14.3303
13.9069
13.5665
13.419
12.9211
12.8943
12.6775
12.4052
12.623
12.3062
12.4933
12.6212
12.5141
12.8362
12.9442
12.9174
13.2547
13.1662
13.0169
13.2842
12.8539
12.6489
12.6263
11.9458
11.7445
11.3496
10.797
10.4265
10.0024
9.57892
9.05151
8.93493
8.32497
8.05669
7.88514
7.52549
7.46937
7.23987
7.17095
7.05193
7.02517
7.03387
7.0865
7.19231
7.21709
7.21739
7.11673
7.21529
7.13833
7.10358
6.89161
6.54922
6.12702
5.44917
4.70533
3.66778
2.30419
0.777983
-0.975721
-3.11835
-5.24611
-7.73273
-9.88543
-12.1842
-13.9841
-15.4951
-16.2611
-16.16
-15.14
-12.779
-10.113
-6.42818
-2.92917
0.45593
3.08292
5.47352
7.23189
8.63773
9.82962
10.5753
11.0852
11.2436
11.2699
11.005
10.5878
9.98967
9.29239
8.52519
7.66368
6.77992
5.99241
5.34861
4.69775
4.12179
3.70985
3.33971
3.23591
3.19173
3.37389
3.71548
4.20825
4.74648
5.47328
6.39286
21.248
20.852
19.2211
17.8936
17.1944
17.0685
17.2784
17.5836
17.887
18.1549
18.2999
18.3334
18.2883
18.2088
18.11
18.0196
17.9571
17.8745
17.7981
17.7628
17.7442
17.7201
17.6827
17.6771
17.6605
17.6399
17.6521
17.6401
17.6293
17.6072
17.604
17.6182
17.5813
17.5866
17.566
17.5773
17.5588
17.5379
17.5208
17.5121
17.4894
17.4734
17.4409
17.4235
17.3933
17.366
17.3013
17.2722
17.2101
17.1713
17.056
17.0124
16.8944
16.8343
16.6918
16.5924
16.4884
16.33
16.2401
16.0731
15.9799
15.8112
15.6855
15.535
15.4103
15.2613
15.1433
15.0532
14.9401
14.9157
14.8606
14.865
14.8656
14.9143
14.9468
15.0168
15.1034
15.2051
15.3122
15.4385
15.5675
15.6727
15.8405
15.8493
16.0257
15.9749
16.0418
16.0237
15.9085
15.9529
15.6427
15.6563
15.3161
15.1096
14.9073
14.4156
14.2869
13.7411
13.4439
13.1373
12.6357
12.5552
12.1882
12.0061
12.0602
11.7808
12.0314
12.0514
12.0315
12.4453
12.4564
12.6641
12.9802
12.9729
13.0675
13.2171
13.0494
12.9019
12.8357
12.4297
12.1255
11.8583
11.402
10.9504
10.6749
10.1605
9.76446
9.44131
9.08236
8.79448
8.48489
8.30669
8.04523
7.9459
7.80371
7.67812
7.67614
7.60115
7.73168
7.82666
7.94377
7.95332
7.87229
7.85228
7.73245
7.69796
7.52595
7.21742
6.69813
5.91743
5.18628
4.07821
2.75384
1.25199
-0.649341
-2.66665
-4.93153
-7.30807
-9.61164
-11.9116
-13.719
-15.3471
-15.947
-16.1696
-14.7007
-12.6639
-9.85858
-6.34597
-2.94828
0.300069
2.90023
5.39708
7.1035
8.65609
9.81052
10.7328
11.2238
11.4982
11.5375
11.2853
10.8938
10.2538
9.62513
8.81892
7.94863
7.12846
6.31847
5.60472
4.90354
4.31347
3.79695
3.40901
3.22046
3.0545
3.13231
3.43173
3.90959
4.40689
5.17375
6.13287
20.4778
20.1625
19.0187
18.1024
17.6318
17.5404
17.6996
17.897
18.0807
18.2257
18.2804
18.2926
18.2207
18.1457
18.0639
17.9831
17.935
17.8571
17.8091
17.777
17.7447
17.7208
17.6912
17.6595
17.6455
17.6243
17.6112
17.6084
17.578
17.5742
17.5589
17.5532
17.5414
17.5355
17.5194
17.5241
17.5068
17.4869
17.4849
17.463
17.4587
17.4458
17.4218
17.4202
17.3922
17.3658
17.3222
17.2886
17.2248
17.1909
17.091
17.0417
16.941
16.8578
16.7448
16.6311
16.5189
16.3721
16.2678
16.0916
15.9875
15.816
15.6759
15.538
15.384
15.2518
15.1321
15.0169
14.9296
14.8745
14.824
14.8139
14.8454
14.8533
14.9344
15.0049
15.0979
15.2335
15.3363
15.497
15.6157
15.7636
15.886
15.9678
16.0477
16.0861
16.1055
16.1149
16.0076
15.9934
15.7603
15.6621
15.3899
15.1079
14.8793
14.3968
14.1768
13.626
13.3115
12.8932
12.4375
12.2412
11.8032
11.7527
11.5351
11.4492
11.6272
11.5609
11.7801
12.0802
12.1283
12.5207
12.7675
12.8636
13.1566
13.2092
13.2216
13.179
13.0368
12.8289
12.5438
12.2656
11.8966
11.4999
11.168
10.7501
10.3914
9.99683
9.69117
9.34357
9.07315
8.86964
8.60908
8.50271
8.33229
8.24767
8.16993
8.16688
8.25646
8.33374
8.46194
8.39622
8.42833
8.29308
8.23927
7.99369
7.74632
7.59185
6.99919
6.30795
5.39516
4.23943
3.01632
1.60464
-0.270354
-2.25448
-4.44992
-6.83237
-9.11777
-11.3889
-13.2591
-14.6708
-15.3065
-15.3454
-13.9901
-12.1583
-9.21863
-5.98384
-2.59461
0.284825
2.92939
5.2291
6.93541
8.50662
9.66163
10.5806
11.1178
11.5214
11.5058
11.3686
11.005
10.5011
9.833
8.98692
8.22051
7.36358
6.51844
5.76898
5.09769
4.44249
3.84104
3.45173
3.12662
3.01416
3.0707
3.28796
3.71116
4.25263
5.07054
6.00851
19.6276
19.4684
18.9153
18.4428
18.1765
18.084
18.1161
18.1763
18.2337
18.2739
18.2617
18.2392
18.1619
18.0919
18.0302
17.9598
17.919
17.8569
17.8176
17.7837
17.7396
17.7144
17.6837
17.6459
17.6326