/*--------------------------------*- C++ -*----------------------------------*\
| =========                 |                                                 |
| \\      /  F ield         | OpenFOAM: The Open Source CFD Toolbox           |
|  \\    /   O peration     | Version:  2.4.0                                 |
|   \\  /    A nd           | Web:      www.OpenFOAM.org                      |
|    \\/     M anipulation  |                                                 |
\*---------------------------------------------------------------------------*/
FoamFile
{
    version     2.0;
    format      ascii;
    class       surfaceScalarField;
    location    "1.41";
    object      phi;
}
// * * * * * * * * * * * * * * * * * * * * * * * * * * * * * * * * * * * * * //

dimensions      [0 3 -1 0 0 0 0];

internalField   nonuniform List<scalar> 
17320
(
1.76387e-05
7.3613e-06
1.16169e-05
6.02176e-06
8.68629e-06
2.93065e-06
7.35186e-06
1.33444e-06
6.71864e-06
6.33213e-07
6.34957e-06
3.69068e-07
6.07158e-06
2.77994e-07
5.86422e-06
2.07358e-07
5.72108e-06
1.43143e-07
5.58021e-06
1.40872e-07
5.47091e-06
1.09297e-07
5.39957e-06
7.13354e-08
5.30612e-06
9.34579e-08
5.24007e-06
6.6043e-08
5.12127e-06
1.18804e-07
5.11488e-06
6.39252e-09
4.97725e-06
1.37627e-07
5.0239e-06
-4.66485e-08
4.81054e-06
2.13357e-07
-5.05118e-07
5.31566e-06
2.54617e-05
6.89955e-06
2.32481e-05
8.23537e-06
2.09966e-05
5.18217e-06
1.93118e-05
3.01924e-06
1.80809e-05
1.86408e-06
1.71176e-05
1.33238e-06
1.63561e-05
1.03949e-06
1.57732e-05
7.90297e-07
1.53221e-05
5.94268e-07
1.49309e-05
5.32002e-07
1.46277e-05
4.12536e-07
1.43885e-05
3.10543e-07
1.41482e-05
3.33722e-07
1.39527e-05
2.61595e-07
1.37172e-05
3.54293e-07
1.36122e-05
1.11371e-07
1.33376e-05
4.12274e-07
1.33455e-05
-5.45446e-08
1.32053e-05
3.53498e-07
-7.00733e-07
1.34009e-05
2.66186e-05
5.28096e-06
2.71557e-05
7.69826e-06
2.67915e-05
5.54633e-06
2.62407e-05
3.57009e-06
2.56132e-05
2.49155e-06
2.48794e-05
2.06621e-06
2.4147e-05
1.77183e-06
2.35062e-05
1.43111e-06
2.29464e-05
1.15415e-06
2.24421e-05
1.0363e-06
2.20305e-05
8.24093e-07
2.16909e-05
6.50172e-07
2.13622e-05
6.62393e-07
2.1078e-05
5.4583e-07
2.07921e-05
6.40168e-07
2.05918e-05
3.11628e-07
2.02867e-05
7.17357e-07
2.01881e-05
4.40553e-08
2.01645e-05
3.77179e-07
-1.12247e-06
2.05862e-05
2.63174e-05
3.96355e-06
2.75369e-05
6.47875e-06
2.81021e-05
4.98112e-06
2.84482e-05
3.22397e-06
2.86511e-05
2.28874e-06
2.86374e-05
2.0799e-06
2.84579e-05
1.95132e-06
2.8237e-05
1.65195e-06
2.79754e-05
1.41575e-06
2.76929e-05
1.31881e-06
2.74274e-05
1.08966e-06
2.71777e-05
8.99872e-07
2.69381e-05
9.01926e-07
2.66539e-05
8.30047e-07
2.64588e-05
8.35241e-07
2.61927e-05
5.77758e-07
2.59769e-05
9.33177e-07
2.57287e-05
2.92197e-07
2.55714e-05
5.34523e-07
-8.03353e-07
2.52523e-05
2.60246e-05
2.93897e-06
2.72379e-05
5.26544e-06
2.80597e-05
4.1593e-06
2.85207e-05
2.76295e-06
2.89749e-05
1.83458e-06
2.93481e-05
1.70672e-06
2.95725e-05
1.72687e-06
2.97311e-05
1.49338e-06
2.98434e-05
1.30341e-06
2.99105e-05
1.2517e-06
2.99638e-05
1.03643e-06
2.99392e-05
9.24419e-07
3.00257e-05
8.15417e-07
2.98588e-05
9.97002e-07
2.99649e-05
7.29103e-07
2.97492e-05
7.93515e-07
2.97454e-05
9.36971e-07
2.94788e-05
5.58758e-07
2.92906e-05
7.22715e-07
-4.13884e-07
2.89011e-05
2.58181e-05
2.12089e-06
2.69388e-05
4.14474e-06
2.78071e-05
3.29103e-06
2.82507e-05
2.31928e-06
2.87074e-05
1.37787e-06
2.91085e-05
1.30568e-06
2.94741e-05
1.36123e-06
2.96689e-05
1.29863e-06
2.99847e-05
9.87641e-07
3.01497e-05
1.08669e-06
3.0428e-05
7.58101e-07
3.04575e-05
8.94863e-07
3.08373e-05
4.35647e-07
3.07324e-05
1.10189e-06
3.11282e-05
3.33294e-07
3.09798e-05
9.41999e-07
3.12392e-05
6.7751e-07
3.09487e-05
8.49234e-07
3.09652e-05
7.06295e-07
2.27394e-07
3.03239e-05
2.56586e-05
1.46231e-06
2.67193e-05
3.08402e-06
2.7624e-05
2.38629e-06
2.8043e-05
1.90035e-06
2.8502e-05
9.18854e-07
2.88065e-05
1.00118e-06
2.92455e-05
9.22219e-07
2.9493e-05
1.05116e-06
2.97367e-05
7.43929e-07
3.00007e-05
8.22637e-07
3.02051e-05
5.53728e-07
3.03724e-05
7.27527e-07
3.06335e-05
1.74594e-07
3.07185e-05
1.01691e-06
3.10824e-05
-3.06358e-08
3.10318e-05
9.92617e-07
3.14611e-05
2.48223e-07
3.09767e-05
1.33365e-06
3.13439e-05
3.39011e-07
1.62654e-06
2.99448e-05
2.55252e-05
9.3708e-07
2.65513e-05
2.05794e-06
2.75032e-05
1.43441e-06
2.80117e-05
1.39184e-06
2.83367e-05
5.93804e-07
2.87509e-05
5.87014e-07
2.89838e-05
6.89343e-07
2.92559e-05
7.79042e-07
2.95737e-05
4.26141e-07
2.99228e-05
4.7351e-07
3.00537e-05
4.22873e-07
3.02402e-05
5.40962e-07
3.04193e-05
-4.46597e-09
3.07291e-05
7.07154e-07
3.06781e-05
2.03554e-08
3.11218e-05
5.48886e-07
3.08981e-05
4.71943e-07
3.15537e-05
6.77996e-07
3.17707e-05
1.22014e-07
7.4404e-07
3.26532e-05
2.54549e-05
4.82178e-07
2.65201e-05
9.92735e-07
2.73231e-05
6.31411e-07
2.78731e-05
8.41808e-07
2.82675e-05
1.9947e-07
2.86118e-05
2.42721e-07
2.89101e-05
3.91031e-07
2.91174e-05
5.71684e-07
2.95345e-05
9.05394e-09
2.96794e-05
3.28587e-07
3.00347e-05
6.76575e-08
3.00447e-05
5.30885e-07
3.03953e-05
-3.5505e-07
3.05128e-05
5.89656e-07
3.05669e-05
-3.37209e-08
3.09808e-05
1.3498e-07
3.1146e-05
3.06784e-07
3.15395e-05
2.8448e-07
3.12709e-05
3.90628e-07
-4.1809e-07
3.2433e-05
2.5426e-05
5.62121e-08
2.64747e-05
-5.59969e-08
2.72322e-05
-1.26129e-07
2.78928e-05
1.81207e-07
2.82295e-05
-1.37164e-07
2.84836e-05
-1.13678e-08
2.88073e-05
6.73168e-08
2.92162e-05
1.62719e-07
2.94205e-05
-1.95194e-07
2.96615e-05
8.75402e-08
2.98088e-05
-7.9599e-08
3.02435e-05
9.62034e-08
3.01255e-05
-2.37058e-07
3.05576e-05
1.57526e-07
3.0641e-05
-1.1709e-07
3.07882e-05
-1.22653e-08
3.11983e-05
-1.03327e-07
3.1171e-05
3.11791e-07
3.18782e-05
-3.16515e-07
-1.17909e-07
3.1578e-05
2.54299e-05
-3.73725e-07
2.6412e-05
-1.03805e-06
2.72502e-05
-9.64342e-07
2.79005e-05
-4.69121e-07
2.82342e-05
-4.70843e-07
2.85271e-05
-3.0429e-07
2.87605e-05
-1.6606e-07
2.92451e-05
-3.2183e-07
2.94074e-05
-3.57571e-07
2.97115e-05
-2.1649e-07
2.98717e-05
-2.39798e-07
3.00924e-05
-1.24553e-07
3.02215e-05
-3.66105e-07
3.04866e-05
-1.07575e-07
3.05894e-05
-2.1992e-07
3.09403e-05
-3.63194e-07
3.08881e-05
-5.10954e-08
3.14913e-05
-2.91363e-07
3.15776e-05
-4.02848e-07
-3.08093e-07
3.17678e-05
2.54967e-05
-8.70379e-07
2.6471e-05
-2.01239e-06
2.73069e-05
-1.80027e-06
2.79742e-05
-1.13642e-06
2.82175e-05
-7.14128e-07
2.85372e-05
-6.24022e-07
2.8909e-05
-5.37822e-07
2.91834e-05
-5.96237e-07
2.94746e-05
-6.48794e-07
2.97048e-05
-4.46684e-07
2.98885e-05
-4.23443e-07
3.02345e-05
-4.70619e-07
3.03306e-05
-4.62128e-07
3.05259e-05
-3.02932e-07
3.0724e-05
-4.18052e-07
3.08132e-05
-4.52329e-07
3.12013e-05
-4.39244e-07
3.13511e-05
-4.41147e-07
3.1522e-05
-5.73745e-07
-7.56882e-07
3.19708e-05
2.55042e-05
-1.37456e-06
2.65955e-05
-3.10369e-06
2.74404e-05
-2.64514e-06
2.80073e-05
-1.70339e-06
2.83501e-05
-1.05691e-06
2.86748e-05
-9.48691e-07
2.89678e-05
-8.30813e-07
2.93571e-05
-9.85543e-07
2.95411e-05
-8.32838e-07
2.98743e-05
-7.79867e-07
3.00692e-05
-6.18318e-07
3.02834e-05
-6.84846e-07
3.04158e-05
-5.94541e-07
3.06325e-05
-5.1962e-07
3.07235e-05
-5.09059e-07
3.10363e-05
-7.65078e-07
3.11902e-05
-5.93197e-07
3.15318e-05
-7.82694e-07
3.18435e-05
-8.85458e-07
-8.61047e-07
3.19476e-05
2.56962e-05
-2.07077e-06
2.67536e-05
-4.16104e-06
2.75915e-05
-3.48307e-06
2.8079e-05
-2.19094e-06
2.84533e-05
-1.43117e-06
2.8828e-05
-1.3234e-06
2.91602e-05
-1.16301e-06
2.94952e-05
-1.32059e-06
2.9764e-05
-1.10158e-06
3.00316e-05
-1.04749e-06
3.02139e-05
-8.00583e-07
3.04264e-05
-8.97377e-07
3.05493e-05
-7.17388e-07
3.07894e-05
-7.59753e-07
3.09237e-05
-6.43341e-07
3.11647e-05
-1.00608e-06
3.13685e-05
-7.97018e-07
3.16816e-05
-1.09579e-06
3.18671e-05
-1.07099e-06
-1.17774e-06
3.21838e-05
2.5842e-05
-2.91276e-06
2.69718e-05
-5.29087e-06
2.78071e-05
-4.31831e-06
2.82198e-05
-2.60365e-06
2.86778e-05
-1.88922e-06
2.90879e-05
-1.73345e-06
2.94618e-05
-1.53695e-06
2.97316e-05
-1.59041e-06
3.00036e-05
-1.37354e-06
3.01983e-05
-1.24221e-06
3.03724e-05
-9.74643e-07
3.05316e-05
-1.05656e-06
3.0683e-05
-8.68861e-07
3.08258e-05
-9.02492e-07
3.09579e-05
-7.75459e-07
3.10964e-05
-1.14458e-06
3.11984e-05
-8.9904e-07
3.14085e-05
-1.30586e-06
3.1556e-05
-1.21845e-06
-1.43316e-06
3.18114e-05
2.60558e-05
-3.96854e-06
2.72545e-05
-6.4896e-06
2.80082e-05
-5.072e-06
2.84751e-05
-3.07051e-06
2.89634e-05
-2.37757e-06
2.9324e-05
-2.09403e-06
2.96001e-05
-1.81303e-06
2.97445e-05
-1.73487e-06
2.98639e-05
-1.4929e-06
2.98988e-05
-1.27714e-06
2.99469e-05
-1.02269e-06
2.99359e-05
-1.04555e-06
2.99414e-05
-8.744e-07
2.99032e-05
-8.64304e-07
2.98752e-05
-7.47467e-07
2.97759e-05
-1.04528e-06
2.96927e-05
-8.15821e-07
2.96236e-05
-1.23675e-06
2.95363e-05
-1.13119e-06
-1.48453e-06
2.95877e-05
2.63265e-05
-5.295e-06
2.7536e-05
-7.69917e-06
2.80485e-05
-5.5845e-06
2.84521e-05
-3.4741e-06
2.8637e-05
-2.56247e-06
2.86219e-05
-2.07891e-06
2.84886e-05
-1.67972e-06
2.82321e-05
-1.47839e-06
2.7963e-05
-1.22381e-06
2.76788e-05
-9.92898e-07
2.74298e-05
-7.73721e-07
2.7145e-05
-7.60703e-07
2.69041e-05
-6.33544e-07
2.66496e-05
-6.09773e-07
2.64243e-05
-5.22222e-07
2.61175e-05
-7.38415e-07
2.58838e-05
-5.82151e-07
2.55506e-05
-9.03587e-07
2.52962e-05
-8.76726e-07
-1.316e-06
2.51276e-05
2.66152e-05
-6.91019e-06
2.71503e-05
-8.23427e-06
2.67646e-05
-5.19879e-06
2.62595e-05
-2.96899e-06
2.55944e-05
-1.89735e-06
2.48678e-05
-1.35236e-06
2.41691e-05
-9.80986e-07
2.35017e-05
-8.11078e-07
2.29224e-05
-6.44494e-07
2.24365e-05
-5.06925e-07
2.20358e-05
-3.73107e-07
2.16561e-05
-3.80938e-07
2.13421e-05
-3.19556e-07
2.10436e-05
-3.11241e-07
2.07811e-05
-2.598e-07
2.04488e-05
-4.06066e-07
2.01887e-05
-3.22014e-07
1.97737e-05
-4.88673e-07
1.93931e-05
-4.9612e-07
-4.66097e-07
1.85432e-05
2.54554e-05
-7.36557e-06
2.32411e-05
-6.01994e-06
2.09791e-05
-2.93684e-06
1.93271e-05
-1.31694e-06
1.80711e-05
-6.41376e-07
1.71048e-05
-3.86065e-07
1.63737e-05
-2.49866e-07
1.57734e-05
-2.10813e-07
1.52983e-05
-1.69375e-07
1.49246e-05
-1.33265e-07
1.46364e-05
-8.48383e-08
1.43595e-05
-1.04124e-07
1.41295e-05
-8.94723e-08
1.39087e-05
-9.04451e-08
1.37169e-05
-6.8001e-08
1.34499e-05
-1.39081e-07
1.32305e-05
-1.02669e-07
1.29033e-05
-1.61455e-07
1.26248e-05
-2.17582e-07
-7.34471e-08
1.22321e-05
1.76344e-05
1.16145e-05
8.67764e-06
7.3607e-06
6.71932e-06
6.33326e-06
6.08339e-06
5.87258e-06
5.70321e-06
5.56994e-06
5.4851e-06
5.38098e-06
5.29151e-06
5.20106e-06
5.13306e-06
4.99398e-06
4.89131e-06
4.72986e-06
4.51227e-06
4.43883e-06
5.78014e-06
-3.49417e-07
-1.15064e-07
6.12981e-06
-1.92691e-07
-1.56979e-07
6.36541e-06
-8.00655e-08
-1.55535e-07
6.5306e-06
-3.22451e-08
-1.32948e-07
6.69279e-06
-6.23706e-08
-9.98164e-08
6.88405e-06
-9.95627e-08
-9.16973e-08
7.10202e-06
-1.33334e-07
-8.46324e-08
7.32343e-06
-1.35186e-07
-8.62311e-08
7.53946e-06
-1.19077e-07
-9.69462e-08
7.72367e-06
-9.12146e-08
-9.2995e-08
7.87224e-06
-8.6928e-08
-6.16394e-08
7.98305e-06
-7.88407e-08
-3.19726e-08
8.07187e-06
-8.61333e-08
-2.68453e-09
8.15304e-06
-8.45662e-08
3.39248e-09
8.24289e-06
-7.74206e-08
-1.24277e-08
8.35159e-06
-6.54945e-08
-4.32026e-08
8.46679e-06
-4.64315e-08
-6.87731e-08
8.60002e-06
-4.81828e-08
-8.50419e-08
8.72959e-06
-5.65622e-08
-7.30149e-08
8.84596e-06
-7.62499e-08
-4.01167e-08
8.94821e-06
-9.40327e-08
-8.22063e-09
9.04649e-06
-1.06514e-07
8.23441e-09
9.14739e-06
-1.19111e-07
1.82123e-08
9.24831e-06
-1.16483e-07
1.55616e-08
9.35481e-06
-1.13629e-07
7.13219e-09
9.45282e-06
-1.13214e-07
1.51988e-08
9.544e-06
-1.30173e-07
3.89965e-08
9.62304e-06
-1.41409e-07
6.2367e-08
9.69547e-06
-1.62977e-07
9.05525e-08
9.7529e-06
-1.76169e-07
1.18735e-07
9.80014e-06
-1.90395e-07
1.43159e-07
9.83558e-06
-1.93307e-07
1.57863e-07
9.86453e-06
-1.89604e-07
1.60655e-07
9.88339e-06
-1.67582e-07
1.48718e-07
9.92154e-06
-1.39947e-07
1.018e-07
9.94751e-06
-9.40782e-08
6.81123e-08
1.00069e-05
-5.24176e-08
-7.01731e-09
1.00708e-05
5.72706e-09
-6.96253e-08
1.01452e-05
3.18572e-08
-1.06201e-07
1.02116e-05
6.03525e-08
-1.26797e-07
1.02771e-05
4.79553e-08
-1.13448e-07
1.03279e-05
5.47998e-08
-1.05546e-07
1.03795e-05
3.43861e-08
-8.60009e-08
1.04029e-05
4.31002e-08
-6.64944e-08
1.0428e-05
1.04363e-08
-3.5585e-08
1.04314e-05
2.7276e-08
-3.06998e-08
1.04367e-05
6.76246e-09
-1.1978e-08
1.04243e-05
5.05015e-08
-3.81653e-08
1.04365e-05
3.88687e-08
-5.10918e-08
1.04193e-05
1.30408e-07
-1.13184e-07
1.04441e-05
9.28537e-08
-1.17596e-07
1.04342e-05
2.3659e-07
-2.26734e-07
1.05047e-05
1.66693e-07
-2.37158e-07
1.04879e-05
3.75614e-07
-3.58825e-07
1.05902e-05
2.32949e-07
-3.353e-07
1.05742e-05
5.08826e-07
-4.92811e-07
1.07147e-05
3.11481e-07
-4.51986e-07
1.07213e-05
6.41607e-07
-6.48134e-07
1.09254e-05
3.8679e-07
-5.90897e-07
1.09597e-05
7.32386e-07
-7.6669e-07
1.12123e-05
4.01313e-07
-6.53937e-07
1.12987e-05
7.36141e-07
-8.22567e-07
1.1591e-05
3.17791e-07
-6.10059e-07
1.16772e-05
6.14064e-07
-7.0028e-07
1.19624e-05
9.37707e-08
-3.78988e-07
1.20081e-05
4.13017e-07
-4.58746e-07
1.23032e-05
-1.87703e-07
-1.07347e-07
1.23136e-05
2.07254e-07
-2.17706e-07
1.26134e-05
-4.37984e-07
1.38245e-07
1.26086e-05
4.98298e-08
-4.50231e-08
1.28581e-05
-6.20711e-07
3.7116e-07
1.28251e-05
-6.42681e-08
9.72855e-08
1.30403e-05
-7.39259e-07
5.24085e-07
1.30112e-05
-9.97429e-08
1.28846e-07
1.31837e-05
-7.81089e-07
6.08606e-07
1.31306e-05
-6.52592e-08
1.18315e-07
1.3299e-05
-8.14216e-07
6.45801e-07
1.32658e-05
-3.58548e-09
3.6818e-08
1.34994e-05
-8.03117e-07
5.69502e-07
1.34529e-05
1.05749e-07
-5.92793e-08
1.37816e-05
-8.22991e-07
4.94335e-07
1.37488e-05
2.23373e-07
-1.90531e-07
1.4141e-05
-8.83452e-07
4.91158e-07
1.40419e-05
2.87695e-07
-1.88513e-07
1.43678e-05
-9.85738e-07
6.59798e-07
1.40984e-05
2.97111e-07
-2.77431e-08
1.4328e-05
-1.07644e-06
8.46912e-07
1.39343e-05
4.59681e-07
-6.60504e-08
1.41935e-05
-9.92857e-07
7.33646e-07
1.377e-05
8.77159e-07
-4.53641e-07
1.41511e-05
-6.43518e-07
2.62444e-07
1.38801e-05
1.33866e-06
-1.06765e-06
1.43538e-05
-2.88254e-07
-1.85435e-07
1.43001e-05
1.68961e-06
-1.63595e-06
1.48834e-05
-5.61777e-08
-5.27077e-07
1.50051e-05
1.79382e-06
-1.91555e-06
1.56751e-05
-3.21142e-07
-3.48861e-07
1.56042e-05
1.33733e-06
-1.26645e-06
1.61967e-05
-1.19836e-06
6.05935e-07
1.61369e-05
6.22469e-07
-5.62684e-07
1.67117e-05
-1.73829e-06
1.16348e-06
1.66839e-05
1.67279e-07
-1.39475e-07
1.7223e-05
-2.13556e-06
1.59643e-06
1.70796e-05
6.90274e-08
7.43705e-08
1.76409e-05
-2.32268e-06
1.76139e-06
1.73178e-05
1.82736e-07
1.4037e-07
1.77003e-05
-2.021e-06
1.63847e-06
1.73909e-05
5.40383e-07
-2.30912e-07
1.75859e-05
-1.42225e-06
1.22718e-06
1.72328e-05
1.36808e-06
-1.01498e-06
1.7692e-05
-7.24568e-07
2.65363e-07
1.73094e-05
2.31592e-06
-1.93332e-06
1.79882e-05
-6.61953e-08
-6.12542e-07
1.76397e-05
3.34681e-06
-2.9983e-06
1.85013e-05
4.41082e-07
-1.30274e-06
1.80901e-05
4.00147e-06
-3.59031e-06
1.91367e-05
7.07541e-07
-1.75407e-06
1.87459e-05
4.39427e-06
-4.00345e-06
1.97394e-05
7.56638e-07
-1.75022e-06
1.94842e-05
4.24421e-06
-3.98898e-06
2.02747e-05
6.4897e-07
-1.43942e-06
2.01451e-05
4.06724e-06
-3.93769e-06
2.08843e-05
2.25039e-07
-9.64247e-07
2.07846e-05
3.66721e-06
-3.56749e-06
2.14605e-05
-4.84584e-07
-1.91324e-07
2.13482e-05
2.97145e-06
-2.8591e-06
2.18896e-05
-1.21695e-06
6.7546e-07
2.17919e-05
1.99462e-06
-1.89687e-06
2.2129e-05
-1.94954e-06
1.61242e-06
2.20016e-05
9.54313e-07
-8.26916e-07
2.22627e-05
-2.62212e-06
2.36105e-06
2.20316e-05
7.5599e-08
1.55449e-07
2.23617e-05
-3.19323e-06
2.86312e-06
2.21132e-05
-4.32264e-07
6.8078e-07
2.24867e-05
-3.6957e-06
3.32222e-06
2.22169e-05
-7.13497e-07
9.83336e-07
2.27031e-05
-3.96371e-06
3.47744e-06
2.24919e-05
-9.70394e-07
1.18165e-06
2.29971e-05
-3.90676e-06
3.40155e-06
2.28989e-05
-1.19169e-06
1.28991e-06
2.34763e-05
-3.65124e-06
3.07383e-06
2.35361e-05
-1.1497e-06
1.08995e-06
2.42492e-05
-3.46721e-06
2.75405e-06
2.44045e-05
-7.98277e-07
6.42995e-07
2.51734e-05
-3.23181e-06
2.46287e-06
2.54467e-05
-6.0287e-07
3.29577e-07
2.62087e-05
-2.9035e-06
2.14149e-06
2.65132e-05
-7.05854e-07
4.01415e-07
2.72887e-05
-3.02284e-06
2.24728e-06
2.74362e-05
-1.19892e-06
1.05141e-06
2.7955e-05
-3.7494e-06
3.23065e-06
2.77529e-05
-2.20585e-06
2.40799e-06
2.78246e-05
-4.65608e-06
4.58436e-06
2.71414e-05
-3.31865e-06
4.0018e-06
2.67017e-05
-5.45463e-06
5.89438e-06
2.54176e-05
-3.50248e-06
4.78661e-06
2.46246e-05
-5.07988e-06
5.87285e-06
2.33525e-05
-2.36586e-06
3.63794e-06
2.31462e-05
-3.56457e-06
3.77084e-06
2.25666e-05
-5.9816e-07
1.1778e-06
2.30395e-05
-1.87273e-06
1.39987e-06
2.30604e-05
2.09461e-07
-2.30384e-07
2.3845e-05
-1.89608e-06
1.11145e-06
2.40178e-05
-6.56643e-07
4.83886e-07
2.47817e-05
-3.2098e-06
2.4459e-06
2.47324e-05
-1.85872e-06
1.90796e-06
2.54166e-05
-3.89399e-06
3.20979e-06
2.53262e-05
-1.73479e-06
1.82525e-06
2.6216e-05
-3.07098e-06
2.18113e-06
2.60817e-05
8.85839e-08
4.56992e-08
2.68171e-05
-6.3834e-07
-9.70425e-08
2.65252e-05
2.89811e-06
-2.6062e-06
2.71425e-05
2.03014e-06
-2.64742e-06
2.69954e-05
5.38863e-06
-5.24151e-06
2.74433e-05
4.21902e-06
-4.667e-06
2.71709e-05
7.06074e-06
-6.78828e-06
2.70105e-05
5.44183e-06
-5.28141e-06
2.65566e-05
7.65357e-06
-7.19973e-06
2.61775e-05
5.4721e-06
-5.09294e-06
2.59083e-05
7.1505e-06
-6.88133e-06
2.56915e-05
4.68812e-06
-4.47136e-06
2.57158e-05
6.11663e-06
-6.14094e-06
2.56026e-05
3.64479e-06
-3.53159e-06
2.57945e-05
4.76209e-06
-4.954e-06
2.56286e-05
2.4685e-06
-2.30258e-06
2.57672e-05
3.31674e-06
-3.45529e-06
2.54813e-05
1.16249e-06
-8.76609e-07
2.55241e-05
1.73077e-06
-1.77357e-06
2.50203e-05
-1.54257e-07
6.58092e-07
2.49539e-05
2.55845e-07
-1.89465e-07
2.41997e-05
-1.48046e-06
2.23463e-06
2.37814e-05
-1.04936e-06
1.46771e-06
2.27587e-05
-2.69768e-06
3.72033e-06
2.18638e-05
-1.95526e-06
2.85021e-06
2.05607e-05
-3.55494e-06
4.85803e-06
1.89862e-05
-2.02935e-06
3.60383e-06
1.72776e-05
-3.51189e-06
5.22047e-06
1.52709e-05
-3.64583e-07
2.3713e-06
1.42552e-05
-1.83783e-06
2.85355e-06
4.7518e-06
-5.72323e-06
1.52266e-05
1.34116e-05
-3.60109e-07
1.34041e-05
-1.85154e-07
1.34073e-05
-8.33099e-08
1.34188e-05
-4.36871e-08
1.34821e-05
-1.25679e-07
1.35733e-05
-1.90726e-07
1.36963e-05
-2.56365e-07
1.38222e-05
-2.61056e-07
1.3945e-05
-2.41937e-07
1.40418e-05
-1.88038e-07
1.4119e-05
-1.64053e-07
1.41654e-05
-1.25269e-07
1.42094e-05
-1.301e-07
1.42472e-05
-1.22428e-07
1.42943e-05
-1.24463e-07
1.43608e-05
-1.3205e-07
1.44302e-05
-1.15829e-07
1.45215e-05
-1.39508e-07
1.46031e-05
-1.3809e-07
1.46851e-05
-1.58331e-07
1.47658e-05
-1.74673e-07
1.48455e-05
-1.86208e-07
1.49251e-05
-1.98767e-07
1.50071e-05
-1.98479e-07
1.50929e-05
-1.99432e-07
1.51734e-05
-1.93657e-07
1.52475e-05
-2.04261e-07
1.53097e-05
-2.03675e-07
1.53673e-05
-2.2059e-07
1.54124e-05
-2.21182e-07
1.54482e-05
-2.26271e-07
1.54719e-05
-2.16991e-07
1.54972e-05
-2.14908e-07
1.5504e-05
-1.7435e-07
1.55238e-05
-1.59719e-07
1.55306e-05
-1.00877e-07
1.55551e-05
-7.69828e-08
1.55685e-05
-7.68077e-09
1.55933e-05
7.06107e-09
1.55924e-05
6.12525e-08
1.55962e-05
4.41569e-08
1.55745e-05
7.65714e-08
1.55584e-05
5.04723e-08
1.55176e-05
8.39076e-08
1.54752e-05
5.28088e-08
1.5418e-05
8.44885e-08
1.53731e-05
5.1691e-08
1.53019e-05
1.21608e-07
1.52743e-05
6.64799e-08
1.5201e-05
2.03766e-07
1.5209e-05
8.47913e-08
1.51216e-05
3.24071e-07
1.52044e-05
8.38919e-08
1.51129e-05
4.67113e-07
1.52649e-05
8.09463e-08
1.51724e-05
6.01331e-07
1.53992e-05
8.46218e-08
1.53412e-05
6.99606e-07
1.5645e-05
8.30345e-08
1.56309e-05
7.46482e-07
1.5996e-05
3.61878e-08
1.60303e-05
7.01854e-07
1.6434e-05
-8.59144e-08
1.64765e-05
5.71607e-07
1.68748e-05
-3.04526e-07
1.69097e-05
3.78031e-07
1.72824e-05
-5.60332e-07
1.73083e-05
1.81303e-07
1.76374e-05
-7.67024e-07
1.76672e-05
1.9985e-08
1.79225e-05
-8.75962e-07
1.79378e-05
-7.95966e-08
1.81216e-05
-9.23092e-07
1.8101e-05
-7.90832e-08
1.82467e-05
-9.26851e-07
1.81425e-05
3.89625e-08
1.82586e-05
-9.30368e-07
1.80527e-05
2.02407e-07
1.81845e-05
-9.34966e-07
1.79016e-05
3.88637e-07
1.80806e-05
-1.00192e-06
1.77672e-05
5.36718e-07
1.80113e-05
-1.12752e-06
1.7684e-05
6.14958e-07
1.79677e-05
-1.26942e-06
1.76216e-05
6.43161e-07
1.79106e-05
-1.36536e-06
1.75768e-05
7.93446e-07
1.79172e-05
-1.33328e-06
1.76656e-05
1.12881e-06
1.81382e-05
-1.11617e-06
1.80297e-05
1.44719e-06
1.85537e-05
-8.12268e-07
1.86301e-05
1.61319e-06
1.92217e-05
-6.478e-07
1.93995e-05
1.61606e-06
2.00662e-05
-9.87783e-07
2.01276e-05
1.27589e-06
2.0751e-05
-1.82179e-06
2.06852e-05
6.88335e-07
2.13182e-05
-2.37138e-06
2.11942e-05
2.9137e-07
2.17051e-05
-2.64646e-06
2.15032e-05
2.70918e-07
2.20401e-05
-2.85966e-06
2.16476e-05
5.75238e-07
2.22546e-05
-2.62798e-06
2.17796e-05
1.0154e-06
2.22503e-05
-1.89293e-06
2.1842e-05
1.77632e-06
2.22382e-05
-1.1207e-06
2.17679e-05
2.78615e-06
2.21387e-05
-4.36997e-07
2.17148e-05
3.77077e-06
2.20575e-05
9.83505e-08
2.17215e-05
4.33749e-06
2.19856e-05
4.43472e-07
2.1866e-05
4.5138e-06
2.20773e-05
5.45396e-07
2.20198e-05
4.30171e-06
2.22654e-05
4.03301e-07
2.23486e-05
3.98408e-06
2.25732e-05
4.39294e-10
2.26859e-05
3.55455e-06
2.28572e-05
-6.55885e-07
2.29624e-05
2.86619e-06
2.30238e-05
-1.27835e-06
2.30986e-05
1.91984e-06
2.30787e-05
-1.92965e-06
2.29919e-05
1.04114e-06
2.2974e-05
-2.60421e-06
2.26905e-05
3.59084e-07
2.26895e-05
-3.19218e-06
2.23288e-05
-7.1567e-08
2.22945e-05
-3.6614e-06
2.2013e-05
-4.32077e-07
2.19646e-05
-3.91524e-06
2.17963e-05
-8.02127e-07
2.17741e-05
-3.88453e-06
2.1762e-05
-1.17962e-06
2.18359e-05
-3.72516e-06
2.20068e-05
-1.32058e-06
2.22203e-05
-3.68074e-06
2.26095e-05
-1.18744e-06
2.29349e-05
-3.55727e-06
2.3489e-05
-1.15696e-06
2.39192e-05
-3.33363e-06
2.44948e-05
-1.28154e-06
2.48891e-05
-3.41707e-06
2.52508e-05
-1.56066e-06
2.54153e-05
-3.91385e-06
2.54067e-05
-2.19731e-06
2.52005e-05
-4.44983e-06
2.46115e-05
-2.72969e-06
2.38996e-05
-4.74267e-06
2.32023e-05
-2.80518e-06
2.27724e-05
-4.65006e-06
2.26406e-05
-2.23403e-06
2.29769e-05
-3.9009e-06
2.34529e-05
-1.07409e-06
2.44444e-05
-2.86423e-06
2.52188e-05
-5.64954e-07
2.62777e-05
-2.95501e-06
2.68755e-05
-1.2544e-06
2.75809e-05
-3.91526e-06
2.77352e-05
-2.01303e-06
2.7967e-05
-4.12575e-06
2.76704e-05
-1.43823e-06
2.78091e-05
-3.20967e-06
2.78863e-05
1.14359e-08
2.83172e-05
-1.06922e-06
2.85895e-05
2.62572e-06
2.88264e-05
1.7933e-06
2.91221e-05
5.09287e-06
2.93767e-05
3.96452e-06
2.97868e-05
6.65059e-06
2.98805e-05
5.34811e-06
3.01442e-05
7.38992e-06
2.97885e-05
5.82783e-06
2.98001e-05
7.13883e-06
2.90998e-05
5.3884e-06
2.90876e-05
6.12892e-06
2.83703e-05
4.36205e-06
2.84368e-05
4.69561e-06
2.78095e-05
3.09572e-06
2.7935e-05
3.19126e-06
2.7317e-05
1.78051e-06
2.74083e-05
1.63948e-06
2.67469e-05
5.07171e-07
2.68071e-05
1.9562e-07
2.59786e-05
-6.51965e-07
2.58173e-05
-8.88037e-07
2.4813e-05
-1.6934e-06
2.44111e-05
-1.55337e-06
2.31555e-05
-2.29931e-06
2.24727e-05
-1.34663e-06
2.10245e-05
-2.06361e-06
2.05655e-05
9.43803e-08
1.94556e-05
-7.2788e-07
3.18768e-06
2.10197e-05
2.0373e-05
-1.46864e-07
2.01008e-05
8.69953e-08
1.99333e-05
8.41934e-08
1.98799e-05
9.71363e-09
1.99343e-05
-1.8012e-07
2.0013e-05
-2.69425e-07
2.00977e-05
-3.41022e-07
2.01629e-05
-3.2621e-07
2.0225e-05
-3.0406e-07
2.02778e-05
-2.4086e-07
2.03295e-05
-2.15762e-07
2.03589e-05
-1.54667e-07
2.03778e-05
-1.49005e-07
2.03986e-05
-1.43221e-07
2.04116e-05
-1.37471e-07
2.04543e-05
-1.74722e-07
2.04823e-05
-1.43863e-07
2.05431e-05
-2.00302e-07
2.05868e-05
-1.81808e-07
2.06427e-05
-2.14227e-07
2.06935e-05
-2.25449e-07
2.07451e-05
-2.37816e-07
2.08039e-05
-2.57531e-07
2.08517e-05
-2.46339e-07
2.09164e-05
-2.6412e-07
2.09647e-05
-2.41979e-07
2.10215e-05
-2.61066e-07
2.10542e-05
-2.3633e-07
2.1095e-05
-2.61392e-07
2.11093e-05
-2.35507e-07
2.11322e-05
-2.49113e-07
2.11297e-05
-2.14474e-07
2.11438e-05
-2.2903e-07
2.11308e-05
-1.61399e-07
2.11414e-05
-1.70281e-07
2.11292e-05
-8.86791e-08
2.11364e-05
-8.41558e-08
2.11361e-05
-7.4089e-09
2.11327e-05
1.04092e-08
2.11207e-05
7.32808e-08
2.10973e-05
6.75452e-08
2.10682e-05
1.05647e-07
2.10243e-05
9.43763e-08
2.09815e-05
1.26756e-07
2.09178e-05
1.16553e-07
2.08504e-05
1.51815e-07
2.0789e-05
1.13138e-07
2.06975e-05
2.13121e-07
2.06635e-05
1.00425e-07
2.05459e-05
3.21421e-07
2.05748e-05
5.58874e-08
2.04208e-05
4.7809e-07
2.0539e-05
-3.43086e-08
2.03579e-05
6.48212e-07
2.05741e-05
-1.35315e-07
2.0383e-05
7.92436e-07
2.06835e-05
-2.15878e-07
2.05261e-05
8.57025e-07
2.08948e-05
-2.85636e-07
2.07955e-05
8.45725e-07
2.12108e-05
-3.79105e-07
2.11722e-05
7.40461e-07
2.16073e-05
-5.21054e-07
2.16026e-05
5.76356e-07
2.20193e-05
-7.21224e-07
2.2023e-05
3.74325e-07
2.24012e-05
-9.38486e-07
2.2402e-05
1.80485e-07
2.27306e-05
-1.09569e-06
2.27156e-05
3.49852e-08
2.30176e-05
-1.17794e-06
2.29387e-05
-6.60789e-10
2.32312e-05
-1.2156e-06
2.30736e-05
7.85083e-08
2.33682e-05
-1.22144e-06
2.31273e-05
2.79881e-07
2.34086e-05
-1.21167e-06
2.30934e-05
5.17565e-07
2.33519e-05
-1.19341e-06
2.29992e-05
7.41289e-07
2.31964e-05
-1.19913e-06
2.28266e-05
9.06508e-07
2.29693e-05
-1.27016e-06
2.25882e-05
9.96014e-07
2.27022e-05
-1.38343e-06
2.23107e-05
1.03468e-06
2.24249e-05
-1.47954e-06
2.20935e-05
1.12486e-06
2.22416e-05
-1.48143e-06
2.20414e-05
1.32906e-06
2.23134e-05
-1.38819e-06
2.22223e-05
1.53827e-06
2.26787e-05
-1.26869e-06
2.26729e-05
1.61898e-06
2.32847e-05
-1.25952e-06
2.33384e-05
1.56229e-06
2.39994e-05
-1.64874e-06
2.39642e-05
1.31109e-06
2.4548e-05
-2.40559e-06
2.43725e-05
8.638e-07
2.49361e-05
-2.9349e-06
2.47138e-05
5.136e-07
2.5212e-05
-3.14464e-06
2.49897e-05
4.93246e-07
2.53448e-05
-3.21473e-06
2.5111e-05
8.08972e-07
2.53717e-05
-2.88864e-06
2.51322e-05
1.25491e-06
2.53055e-05
-2.06622e-06
2.51614e-05
1.92041e-06
2.51719e-05
-1.13126e-06
2.50961e-05
2.86201e-06
2.49544e-05
-2.95278e-07
2.49282e-05
3.79691e-06
2.45791e-05
4.4749e-07
2.46041e-05
4.31244e-06
2.41662e-05
8.8142e-07
2.42471e-05
4.43285e-06
2.38866e-05
9.05888e-07
2.39838e-05
4.20457e-06
2.37048e-05
6.82238e-07
2.38685e-05
3.82046e-06
2.37115e-05
1.57385e-07
2.3936e-05
3.33004e-06
2.37564e-05
-4.76275e-07
2.39828e-05
2.63977e-06
2.37877e-05
-1.08326e-06
2.39076e-05
1.79997e-06
2.37066e-05
-1.72866e-06
2.37465e-05
1.00121e-06
2.35131e-05
-2.3708e-06
2.34783e-05
3.93863e-07
2.31876e-05
-2.90139e-06
2.32108e-05
-9.48054e-08
2.27926e-05
-3.24321e-06
2.29563e-05
-5.95818e-07
2.24838e-05
-3.44269e-06
2.27289e-05
-1.0472e-06
2.22666e-05
-3.42226e-06
2.25665e-05
-1.47953e-06
2.2155e-05
-3.31364e-06
2.25365e-05
-1.70208e-06
2.22364e-05
-3.38069e-06
2.27264e-05
-1.67743e-06
2.2572e-05
-3.40285e-06
2.31298e-05
-1.71472e-06
2.32143e-05
-3.41818e-06
2.38073e-05
-1.87452e-06
2.39489e-05
-3.55866e-06
2.45066e-05
-2.11839e-06
2.45684e-05
-3.9756e-06
2.48924e-05
-2.52136e-06
2.48914e-05
-4.44885e-06
2.50869e-05
-2.92518e-06
2.5153e-05
-4.80874e-06
2.55078e-05
-3.16003e-06
2.56859e-05
-4.8281e-06
2.63082e-05
-2.8564e-06
2.67766e-05
-4.36923e-06
2.77025e-05
-1.99999e-06
2.85197e-05
-3.6815e-06
2.95224e-05
-1.56761e-06
3.02526e-05
-3.6852e-06
3.08871e-05
-1.8889e-06
3.09901e-05
-4.01827e-06
3.11008e-05
-2.1237e-06
3.08725e-05
-3.89747e-06
3.05611e-05
-1.12685e-06
2.97229e-05
-2.37143e-06
2.92666e-05
4.67736e-07
2.8923e-05
-7.25688e-07
2.92557e-05
2.29301e-06
2.94179e-05
1.63112e-06
2.99227e-05
4.58809e-06
3.01308e-05
3.75637e-06
3.07064e-05
6.07505e-06
3.10136e-05
5.04091e-06
3.17142e-05
6.68928e-06
3.19125e-05
5.62952e-06
3.24725e-05
6.57887e-06
3.23359e-05
5.52503e-06
3.26621e-05
5.80265e-06
3.22801e-05
4.74409e-06
3.24303e-05
4.54544e-06
3.19717e-05
3.55425e-06
3.20395e-05
3.12353e-06
3.15841e-05
2.23584e-06
3.15784e-05
1.64523e-06
3.10831e-05
1.00245e-06
3.09519e-05
3.26889e-07
3.04312e-05
-1.31293e-07
3.02379e-05
-6.9471e-07
2.96257e-05
-1.08121e-06
2.92695e-05
-1.19721e-06
2.84828e-05
-1.51264e-06
2.80713e-05
-9.35096e-07
2.71674e-05
-1.15976e-06
2.70557e-05
2.06105e-07
2.62737e-05
5.41052e-08
2.13352e-06
2.73279e-05
2.52414e-05
-1.35946e-07
2.52932e-05
3.51464e-08
2.53692e-05
8.22217e-09
2.5452e-05
-7.3057e-08
2.55245e-05
-2.52639e-07
2.55711e-05
-3.16089e-07
2.56006e-05
-3.70473e-07
2.56028e-05
-3.28452e-07
2.56062e-05
-3.07461e-07
2.56053e-05
-2.39929e-07
2.56258e-05
-2.3622e-07
2.56279e-05
-1.56769e-07
2.56528e-05
-1.73941e-07
2.56534e-05
-1.43872e-07
2.5679e-05
-1.63065e-07
2.5689e-05
-1.84718e-07
2.57118e-05
-1.6661e-07
2.57377e-05
-2.26231e-07
2.57726e-05
-2.1668e-07
2.57976e-05
-2.39244e-07
2.58427e-05
-2.70586e-07
2.58602e-05
-2.5531e-07
2.59078e-05
-3.05139e-07
2.59249e-05
-2.63379e-07
2.59662e-05
-3.05446e-07
2.59932e-05
-2.68992e-07
2.60251e-05
-2.9292e-07
2.60487e-05
-2.59997e-07
2.60655e-05
-2.78131e-07
2.60744e-05
-2.44409e-07
2.60687e-05
-2.43414e-07
2.6063e-05
-2.08811e-07
2.60475e-05
-2.13516e-07
2.60361e-05
-1.50041e-07
2.60208e-05
-1.54884e-07
2.60194e-05
-8.73007e-08
2.60042e-05
-6.89538e-08
2.60057e-05
-8.93739e-09
2.59899e-05
2.62143e-08
2.59821e-05
8.10711e-08
2.59604e-05
8.92589e-08
2.59262e-05
1.39833e-07
2.58963e-05
1.24258e-07
2.58496e-05
1.73524e-07
2.58061e-05
1.59985e-07
2.57454e-05
2.12523e-07
2.57009e-05
1.57675e-07
2.56242e-05
2.89808e-07
2.56037e-05
1.20913e-07
2.54942e-05
4.30907e-07
2.55461e-05
4.01338e-09
2.5385e-05
6.39171e-07
2.55342e-05
-1.83458e-07
2.53188e-05
8.63549e-07
2.55773e-05
-3.93794e-07
2.53388e-05
1.03097e-06
2.56804e-05
-5.57546e-07
2.5474e-05
1.06343e-06
2.58673e-05
-6.78885e-07
2.57099e-05
1.00312e-06
2.61454e-05
-8.14621e-07
2.60095e-05
8.76315e-07
2.64934e-05
-1.00493e-06
2.63339e-05
7.3586e-07
2.68592e-05
-1.24656e-06
2.66471e-05
5.86488e-07
2.71889e-05
-1.48028e-06
2.69302e-05
4.39135e-07
2.74493e-05
-1.6148e-06
2.71737e-05
3.10606e-07
2.76235e-05
-1.62778e-06
2.73674e-05
2.55502e-07
2.77323e-05
-1.58053e-06
2.74786e-05
3.32203e-07
2.77713e-05
-1.51417e-06
2.75223e-05
5.28946e-07
2.77343e-05
-1.42368e-06
2.74814e-05
7.70451e-07
2.76297e-05
-1.34168e-06
2.73634e-05
1.00757e-06
2.74636e-05
-1.29934e-06
2.7187e-05
1.18307e-06
2.72182e-05
-1.30131e-06
2.69337e-05
1.28047e-06
2.69206e-05
-1.37028e-06
2.6592e-05
1.36325e-06
2.6622e-05
-1.50955e-06
2.62501e-05
1.49675e-06
2.64013e-05
-1.63265e-06
2.60502e-05
1.68016e-06
2.63354e-05
-1.67339e-06
2.60744e-05
1.79929e-06
2.64606e-05
-1.65489e-06
2.63272e-05
1.75236e-06
2.67655e-05
-1.69778e-06
2.67367e-05
1.59111e-06
2.71196e-05
-2.03162e-06
2.71288e-05
1.30182e-06
2.73008e-05
-2.57758e-06
2.73256e-05
8.39012e-07
2.73093e-05
-2.91858e-06
2.73814e-05
4.415e-07
2.73037e-05
-3.06699e-06
2.73529e-05
4.44091e-07