/*--------------------------------*- C++ -*----------------------------------*\
| =========                 |                                                 |
| \\      /  F ield         | OpenFOAM: The Open Source CFD Toolbox           |
|  \\    /   O peration     | Version:  2.4.0                                 |
|   \\  /    A nd           | Web:      www.OpenFOAM.org                      |
|    \\/     M anipulation  |                                                 |
\*---------------------------------------------------------------------------*/
FoamFile
{
    version     2.0;
    format      ascii;
    class       volVectorField;
    location    "1.41";
    object      UMean;
}
// * * * * * * * * * * * * * * * * * * * * * * * * * * * * * * * * * * * * * //

dimensions      [0 1 -1 0 0 0 0];

internalField   nonuniform List<vector> 
8800
(
(8.09328 0.387247 0)
(5.45715 0.242577 0)
(3.92541 0.0429973 0)
(3.16311 -0.0152302 0)
(2.81924 -0.0184163 0)
(2.60354 -0.0108558 0)
(2.5084 -0.00586469 0)
(2.38594 -0.0019902 0)
(2.34896 -0.00177959 0)
(2.25659 -0.000187986 0)
(2.25152 -0.0010423 0)
(2.17341 0.000443917 0)
(2.18292 -0.000553002 0)
(2.10705 0.000979476 0)
(2.12031 -0.000189251 0)
(2.04322 0.0014236 0)
(2.05575 -0.000236563 0)
(1.97345 0.000832831 0)
(2.01606 0.00751378 0)
(1.7421 -0.0608306 0)
(10.0874 0.836413 0)
(9.65216 0.866517 0)
(8.89265 0.505664 0)
(8.07127 0.26159 0)
(7.52484 0.137027 0)
(6.99055 0.0821058 0)
(6.74187 0.0527351 0)
(6.38047 0.0407549 0)
(6.28501 0.0282267 0)
(6.00487 0.0248084 0)
(5.99984 0.0168658 0)
(5.76029 0.0184823 0)
(5.80484 0.013081 0)
(5.57904 0.0174067 0)
(5.64651 0.0129231 0)
(5.4209 0.017439 0)
(5.50071 0.0164811 0)
(5.25715 0.0101261 0)
(5.38793 0.0306794 0)
(5.03677 -0.0420584 0)
(10.0802 0.629966 0)
(10.6333 0.861879 0)
(10.9052 0.59936 0)
(10.652 0.373076 0)
(10.5057 0.253918 0)
(10.0375 0.196327 0)
(9.90043 0.150694 0)
(9.44099 0.122764 0)
(9.39508 0.0909756 0)
(8.97759 0.0767322 0)
(9.02475 0.0552872 0)
(8.64175 0.053234 0)
(8.75674 0.0391857 0)
(8.38662 0.0440484 0)
(8.54439 0.0343545 0)
(8.16932 0.0404864 0)
(8.35664 0.038221 0)
(7.95674 0.0334491 0)
(8.18668 0.0445411 0)
(7.74781 -0.0434241 0)
(10.053 0.456467 0)
(10.5084 0.703946 0)
(11.2372 0.543603 0)
(11.2996 0.352258 0)
(11.6351 0.25941 0)
(11.3747 0.227784 0)
(11.5805 0.196772 0)
(11.2071 0.176358 0)
(11.3994 0.143069 0)
(10.9799 0.126755 0)
(11.1986 0.0993144 0)
(10.758 0.0943585 0)
(11.012 0.0746331 0)
(10.5526 0.0782573 0)
(10.8389 0.0633179 0)
(10.3564 0.0719706 0)
(10.6702 0.0607454 0)
(10.1568 0.0715458 0)
(10.4889 0.0513807 0)
(9.95117 0.0449665 0)
(10.1541 0.345996 0)
(10.2954 0.566627 0)
(11.1594 0.45796 0)
(11.1937 0.295442 0)
(11.7717 0.20548 0)
(11.5599 0.194549 0)
(12.0012 0.173791 0)
(11.7042 0.171919 0)
(12.1101 0.139379 0)
(11.771 0.136037 0)
(12.1658 0.102794 0)
(11.796 0.110773 0)
(12.1855 0.0807424 0)
(11.7875 0.100722 0)
(12.172 0.0694935 0)
(11.7473 0.101124 0)
(12.1242 0.0639316 0)
(11.6735 0.110256 0)
(12.0297 0.0493109 0)
(11.5464 0.103177 0)
(10.1739 0.249669 0)
(10.2167 0.456104 0)
(11.0005 0.372042 0)
(11.0912 0.249803 0)
(11.6238 0.156084 0)
(11.5214 0.154212 0)
(11.8952 0.136481 0)
(11.7407 0.145355 0)
(12.0716 0.112985 0)
(11.9136 0.117302 0)
(12.2239 0.0834786 0)
(12.0649 0.0965315 0)
(12.3555 0.0670146 0)
(12.1926 0.0900065 0)
(12.4609 0.0616795 0)
(12.2929 0.0928859 0)
(12.5348 0.0627267 0)
(12.3586 0.102017 0)
(12.5586 0.0569564 0)
(12.3358 0.0587342 0)
(10.0662 0.169375 0)
(10.262 0.358301 0)
(10.7875 0.281294 0)
(11.0856 0.210753 0)
(11.4166 0.109888 0)
(11.5316 0.122329 0)
(11.6973 0.095849 0)
(11.7488 0.123405 0)
(11.8744 0.078151 0)
(11.9267 0.101889 0)
(12.0388 0.0531092 0)
(12.0935 0.0858678 0)
(12.1924 0.0383235 0)
(12.2453 0.0827343 0)
(12.3297 0.0332914 0)
(12.3787 0.0885559 0)
(12.447 0.0329453 0)
(12.4861 0.0996627 0)
(12.5193 0.0268509 0)
(12.4867 0.0759761 0)
(9.97506 0.105695 0)
(10.298 0.261348 0)
(10.6373 0.19344 0)
(11.0721 0.162778 0)
(11.2734 0.0703677 0)
(11.5269 0.090866 0)
(11.5658 0.0605057 0)
(11.7365 0.0968542 0)
(11.74 0.0486809 0)
(11.9077 0.0809935 0)
(11.9051 0.0298566 0)
(12.0715 0.0691533 0)
(12.0612 0.0186297 0)
(12.2222 0.0670794 0)
(12.2022 0.0147488 0)
(12.3557 0.0716365 0)
(12.3254 0.0137289 0)
(12.465 0.0792314 0)
(12.4054 0.0061902 0)
(12.4475 0.0590635 0)
(9.91705 0.0569462 0)
(10.3208 0.160036 0)
(10.5396 0.11271 0)
(11.0626 0.102686 0)
(11.1794 0.0379612 0)
(11.5242 0.0572922 0)
(11.4801 0.0322788 0)
(11.7298 0.0628187 0)
(11.6511 0.0258587 0)
(11.8975 0.0526356 0)
(11.8161 0.0139032 0)
(12.0612 0.0449605 0)
(11.9729 0.00700669 0)
(12.2129 0.0429393 0)
(12.1144 0.00432119 0)
(12.3484 0.0439983 0)
(12.2381 0.00275697 0)
(12.4594 0.0438567 0)
(12.3129 -0.00833012 0)
(12.4271 0.00366411 0)
(9.90276 0.011109 0)
(10.3195 0.0637896 0)
(10.5062 0.0287974 0)
(11.0469 0.0443717 0)
(11.1496 0.00318583 0)
(11.5134 0.029326 0)
(11.4572 0.000816313 0)
(11.7185 0.0323959 0)
(11.6289 -0.00166709 0)
(11.8856 0.0289201 0)
(11.7961 -0.00655276 0)
(12.0508 0.0261991 0)
(11.9557 -0.00991996 0)
(12.2043 0.024931 0)
(12.1006 -0.0128587 0)
(12.3417 0.0233493 0)
(12.2274 -0.0172866 0)
(12.4547 0.0179949 0)
(12.3023 -0.0306514 0)
(12.4211 -0.0115144 0)
(9.92365 -0.0289131 0)
(10.3002 -0.0367589 0)
(10.5283 -0.0520379 0)
(11.0311 -0.0194422 0)
(11.1733 -0.0276246 0)
(11.5006 -0.00384788 0)
(11.4827 -0.0263721 0)
(11.7085 -0.00448406 0)
(11.6562 -0.0251312 0)
(11.8787 -0.000866558 0)
(11.8253 -0.0224293 0)
(12.0469 0.00141321 0)
(11.9869 -0.0226678 0)
(12.2039 0.00043121 0)
(12.1335 -0.0261074 0)
(12.3455 -0.00413977 0)
(12.2622 -0.0332334 0)
(12.4624 -0.0134475 0)
(12.3386 -0.0460403 0)
(12.4292 -0.0324858 0)
(9.95872 -0.0732771 0)
(10.2802 -0.136573 0)
(10.5848 -0.134221 0)
(11.028 -0.0813124 0)
(11.23 -0.0598731 0)
(11.4943 -0.0356437 0)
(11.5368 -0.055101 0)
(11.7047 -0.0393141 0)
(11.7133 -0.0498373 0)
(11.8778 -0.0289771 0)
(11.8841 -0.0399208 0)
(12.0474 -0.0218344 0)
(12.0472 -0.0368955 0)
(12.2052 -0.022272 0)
(12.1956 -0.0408694 0)
(12.3472 -0.0295947 0)
(12.3263 -0.0509798 0)
(12.4641 -0.043065 0)
(12.4046 -0.0639771 0)
(12.4304 -0.0516448 0)
(9.98488 -0.121687 0)
(10.2824 -0.240361 0)
(10.6544 -0.214474 0)
(11.0572 -0.143296 0)
(11.2978 -0.0913126 0)
(11.5132 -0.0701878 0)
(11.597 -0.082863 0)
(11.7252 -0.0745004 0)
(11.7769 -0.0728899 0)
(11.8997 -0.0578777 0)
(11.9484 -0.0567324 0)
(12.068 -0.0459113 0)
(12.1111 -0.0503516 0)
(12.2241 -0.0451653 0)
(12.2591 -0.0548519 0)
(12.3638 -0.054564 0)
(12.3894 -0.0687694 0)
(12.4785 -0.0725901 0)
(12.4697 -0.0858556 0)
(12.4467 -0.0701372 0)
(10.0178 -0.181294 0)
(10.2946 -0.34446 0)
(10.7528 -0.296783 0)
(11.1091 -0.198243 0)
(11.3909 -0.125333 0)
(11.5518 -0.108295 0)
(11.6781 -0.111944 0)
(11.7671 -0.10944 0)
(11.8603 -0.0958382 0)
(11.9447 -0.0874065 0)
(12.03 -0.0736319 0)
(12.1125 -0.0714813 0)
(12.189 -0.0636554 0)
(12.2663 -0.069602 0)
(12.332 -0.0674601 0)
(12.4022 -0.080352 0)
(12.4549 -0.0842469 0)
(12.5111 -0.103809 0)
(12.5285 -0.108033 0)
(12.4806 -0.100208 0)
(10.0573 -0.256757 0)
(10.3144 -0.448692 0)
(10.8938 -0.380794 0)
(11.177 -0.243863 0)
(11.5241 -0.164495 0)
(11.6018 -0.147536 0)
(11.7988 -0.144233 0)
(11.8175 -0.140654 0)
(11.9771 -0.121079 0)
(11.9887 -0.113646 0)
(12.1308 -0.0929652 0)
(12.1393 -0.0948788 0)
(12.2634 -0.0789633 0)
(12.2664 -0.0920351 0)
(12.3687 -0.0796371 0)
(12.3644 -0.103085 0)
(12.4392 -0.0953033 0)
(12.4214 -0.131347 0)
(12.4447 -0.124556 0)
(12.3375 -0.139333 0)
(10.0526 -0.350867 0)
(10.3908 -0.560772 0)
(11.0481 -0.463625 0)
(11.2941 -0.290371 0)
(11.6567 -0.211931 0)
(11.6612 -0.188586 0)
(11.8804 -0.18022 0)
(11.8075 -0.167142 0)
(11.9818 -0.14681 0)
(11.8769 -0.131828 0)
(12.0285 -0.111829 0)
(11.9043 -0.107945 0)
(12.0363 -0.0924401 0)
(11.8968 -0.101011 0)
(12.0049 -0.0871406 0)
(11.8527 -0.108677 0)
(11.9266 -0.0966805 0)
(11.7601 -0.137514 0)
(11.7671 -0.125215 0)
(11.5374 -0.162102 0)
(10.0053 -0.459261 0)
(10.5581 -0.700865 0)
(11.1696 -0.545883 0)
(11.3646 -0.350312 0)
(11.5593 -0.262945 0)
(11.4458 -0.225268 0)
(11.4958 -0.20035 0)
(11.2827 -0.174415 0)
(11.305 -0.147276 0)
(11.0581 -0.125431 0)
(11.093 -0.104089 0)
(10.8366 -0.0950235 0)
(10.8913 -0.0801461 0)
(10.6279 -0.0837001 0)
(10.6941 -0.0706466 0)
(10.4206 -0.0882425 0)
(10.4803 -0.0744987 0)
(10.189 -0.116273 0)
(10.1965 -0.0957921 0)
(9.85879 -0.160123 0)
(10.0602 -0.632621 0)
(10.654 -0.859318 0)
(10.8674 -0.600461 0)
(10.6886 -0.371862 0)
(10.4599 -0.256279 0)
(10.081 -0.194797 0)
(9.84589 -0.153197 0)
(9.48782 -0.121083 0)
(9.33326 -0.0941061 0)
(9.02414 -0.0752081 0)
(8.95608 -0.0591066 0)
(8.68368 -0.0526762 0)
(8.67874 -0.044047 0)
(8.41789 -0.0462961 0)
(8.44882 -0.0409908 0)
(8.17914 -0.0507244 0)
(8.21936 -0.0484141 0)
(7.9209 -0.070109 0)
(7.92395 -0.0710485 0)
(7.57598 -0.0893722 0)
(10.081 -0.837735 0)
(9.65629 -0.865013 0)
(8.87553 -0.50594 0)
(8.08911 -0.261001 0)
(7.50152 -0.138348 0)
(7.01308 -0.081494 0)
(6.71092 -0.0538629 0)
(6.40533 -0.0399852 0)
(6.24921 -0.0296676 0)
(6.02829 -0.02414 0)
(5.96035 -0.0186288 0)
(5.77755 -0.018336 0)
(5.76026 -0.0153448 0)
(5.58367 -0.0186651 0)
(5.59029 -0.0163496 0)
(5.40063 -0.0230939 0)
(5.41055 -0.0220919 0)
(5.18707 -0.0329103 0)
(5.17606 -0.0384078 0)
(4.88026 -0.019783 0)
(8.09165 -0.38759 0)
(5.45549 -0.242107 0)
(3.92194 -0.0431972 0)
(3.16913 0.0152815 0)
(2.81281 0.0180534 0)
(2.60971 0.0111118 0)
(2.49836 0.00561797 0)
(2.39277 0.00226414 0)
(2.33714 0.00148696 0)
(2.26257 0.000416799 0)
(2.23769 0.000719182 0)
(2.17627 -0.00026094 0)
(2.16613 0.000201081 0)
(2.1028 -0.00111003 0)
(2.09641 -0.000322272 0)
(2.02314 -0.00229812 0)
(2.01105 -0.00112867 0)
(1.91918 -0.00385292 0)
(1.88133 -0.00427184 0)
(1.72927 0.011383 0)
(2.25778 -0.108893 0)
(2.32348 -0.0216212 0)
(2.55526 -0.00726186 0)
(2.64274 -0.0166996 0)
(2.86439 -0.0367174 0)
(2.91535 -0.0430694 0)
(3.10519 -0.0502988 0)
(3.1174 -0.0446288 0)
(3.27801 -0.0483946 0)
(3.26613 -0.0461168 0)
(3.41809 -0.0523338 0)
(3.39402 -0.0515577 0)
(3.54804 -0.0603926 0)
(3.51969 -0.0608463 0)
(3.67689 -0.0699372 0)
(3.64566 -0.0701057 0)
(3.80873 -0.0789613 0)
(3.77639 -0.0790385 0)
(3.95118 -0.0877379 0)
(3.9192 -0.0860794 0)
(4.10077 -0.0971026 0)
(4.06351 -0.0991721 0)
(4.24716 -0.11338 0)
(4.2013 -0.117437 0)
(4.38498 -0.133998 0)
(4.32878 -0.139417 0)
(4.51178 -0.15592 0)
(4.44538 -0.158257 0)
(4.62988 -0.171318 0)
(4.55959 -0.170478 0)
(4.75051 -0.183895 0)
(4.68325 -0.184759 0)
(4.88303 -0.201303 0)
(4.81657 -0.204023 0)
(5.02017 -0.221514 0)
(4.94878 -0.223579 0)
(5.15514 -0.240272 0)
(5.07777 -0.24075 0)
(5.28952 -0.257473 0)
(5.20669 -0.2587 0)
(5.42395 -0.277621 0)
(5.33544 -0.281794 0)
(5.55591 -0.30538 0)
(5.45925 -0.312547 0)
(5.67861 -0.338552 0)
(5.57093 -0.345008 0)
(5.78917 -0.370362 0)
(5.67287 -0.372438 0)
(5.89267 -0.39592 0)
(5.77258 -0.392681 0)
(5.99646 -0.413486 0)
(5.87464 -0.404676 0)
(6.10809 -0.422169 0)
(5.98253 -0.409462 0)
(6.23225 -0.426055 0)
(6.09911 -0.411922 0)
(6.36929 -0.429403 0)
(6.22447 -0.41522 0)
(6.51374 -0.433825 0)
(6.35365 -0.420572 0)
(6.65968 -0.443291 0)
(6.49078 -0.433606 0)
(6.8098 -0.464141 0)
(6.64272 -0.460329 0)
(6.96266 -0.500706 0)
(6.80122 -0.502143 0)
(7.1083 -0.547593 0)
(6.94393 -0.550991 0)
(7.23616 -0.594679 0)
(7.06198 -0.595119 0)
(7.34932 -0.638012 0)
(7.16443 -0.631359 0)
(7.45317 -0.670236 0)
(7.25795 -0.65653 0)
(7.56161 -0.693395 0)
(7.3592 -0.674528 0)
(7.68354 -0.710393 0)
(7.48071 -0.688381 0)
(7.82502 -0.728361 0)
(7.62258 -0.703517 0)
(7.98606 -0.746993 0)
(7.77792 -0.719586 0)
(8.15869 -0.762423 0)
(7.93903 -0.735938 0)
(8.33293 -0.781637 0)
(8.10758 -0.756771 0)
(8.49598 -0.811213 0)
(8.28005 -0.788256 0)
(8.64563 -0.848627 0)
(8.44261 -0.826591 0)
(8.78219 -0.887591 0)
(8.58845 -0.86312 0)
(8.90132 -0.922454 0)
(8.71139 -0.896827 0)
(9.00443 -0.956716 0)
(8.81892 -0.928123 0)
(9.09567 -0.987314 0)
(8.91503 -0.956669 0)
(9.18234 -1.01501 0)
(9.01543 -0.983575 0)
(9.27626 -1.04407 0)
(9.12157 -1.01064 0)
(9.38045 -1.07632 0)
(9.22984 -1.03706 0)
(9.48276 -1.10072 0)
(9.32625 -1.04908 0)
(9.56866 -1.11497 0)
(9.39547 -1.05622 0)
(9.63019 -1.1234 0)
(9.43862 -1.05482 0)
(9.66749 -1.1214 0)
(9.45765 -1.04538 0)
(9.67433 -1.10884 0)
(9.45351 -1.02557 0)
(9.66212 -1.08991 0)
(9.4504 -1.00066 0)
(9.65649 -1.06376 0)
(9.46029 -0.970664 0)
(9.65647 -1.03351 0)
(9.46964 -0.936447 0)
(9.65647 -0.996611 0)
(9.47897 -0.898827 0)
(9.66146 -0.961014 0)
(9.48351 -0.86237 0)
(9.66297 -0.92737 0)
(9.47152 -0.827686 0)
(9.66163 -0.889914 0)
(9.44811 -0.783857 0)
(9.65399 -0.839975 0)
(9.42447 -0.731016 0)
(9.63666 -0.782296 0)
(9.4052 -0.674012 0)
(9.60855 -0.724267 0)
(9.38796 -0.616898 0)
(9.57525 -0.668219 0)
(9.36918 -0.560131 0)
(9.53663 -0.606475 0)
(9.34483 -0.495746 0)
(9.5014 -0.538424 0)
(9.32568 -0.431966 0)
(9.4684 -0.475742 0)
(9.30839 -0.373099 0)
(9.42773 -0.408541 0)
(9.28972 -0.31323 0)
(9.38636 -0.345983 0)
(9.2692 -0.255948 0)
(9.33296 -0.273353 0)
(9.23982 -0.183995 0)
(9.27094 -0.197498 0)
(9.20884 -0.107567 0)
(9.20371 -0.119033 0)
(9.17022 -0.0235318 0)
(9.14194 -0.0255532 0)
(9.12816 0.0706932 0)
(9.08472 0.0677527 0)
(9.08707 0.173682 0)
(9.03774 0.176162 0)
(9.03091 0.278463 0)
(8.99662 0.282027 0)
(8.97837 0.388287 0)
(8.96001 0.371775 0)
(8.91733 0.485974 0)
(8.9312 0.460301 0)
(8.84258 0.578252 0)
(8.89278 0.545967 0)
(8.75858 0.67567 0)
(8.85885 0.632455 0)
(8.6717 0.770678 0)
(8.81762 0.722242 0)
(8.57932 0.876737 0)
(8.75195 0.803903 0)
(8.46219 0.975919 0)
(8.67999 0.891959 0)
(8.30407 1.08544 0)
(8.60168 0.983445 0)
(8.14008 1.22233 0)
(8.523 1.0849 0)
(7.97514 1.36259 0)
(8.45362 1.18804 0)
(7.83741 1.51837 0)
(8.36902 1.31049 0)
(7.71551 1.68334 0)
(8.27361 1.45319 0)
(7.59495 1.85592 0)
(8.14207 1.60931 0)
(7.46419 2.03341 0)
(7.96462 1.79531 0)
(7.30766 2.2296 0)
(7.76677 2.02695 0)
(7.11055 2.45894 0)
(7.55374 2.30886 0)
(6.85726 2.74575 0)
(7.27933 2.66967 0)
(6.54409 3.14741 0)
(6.87938 3.14076 0)
(6.17305 3.8203 0)
(6.36466 3.86412 0)
(5.48478 4.96151 0)
(6.45011 5.5077 0)
(4.12018 8.48813 0)
(5.31356 -0.071462 0)
(5.24896 -0.0382237 0)
(5.35937 -0.0433287 0)
(5.32801 -0.0642741 0)
(5.49748 -0.0936128 0)
(5.48198 -0.103887 0)
(5.64978 -0.110729 0)
(5.60578 -0.102254 0)
(5.75273 -0.101088 0)
(5.68279 -0.0939824 0)
(5.82586 -0.0989172 0)
(5.74742 -0.0975387 0)
(5.90007 -0.107232 0)
(5.82097 -0.107885 0)
(5.98513 -0.118287 0)
(5.90458 -0.118576 0)
(6.07849 -0.128871 0)
(5.99456 -0.128282 0)
(6.17676 -0.138926 0)
(6.08938 -0.137917 0)
(6.27849 -0.149673 0)
(6.18606 -0.150475 0)
(6.37932 -0.164476 0)
(6.27921 -0.166616 0)
(6.47609 -0.182356 0)
(6.36769 -0.185025 0)
(6.56897 -0.200854 0)
(6.45283 -0.201887 0)
(6.65923 -0.216826 0)
(6.53675 -0.216492 0)
(6.75058 -0.231957 0)
(6.6238 -0.232213 0)
(6.84624 -0.25005 0)
(6.71446 -0.251278 0)
(6.94305 -0.270167 0)
(6.80393 -0.270169 0)
(7.0366 -0.288537 0)
(6.89023 -0.286915 0)
(7.12653 -0.305783 0)
(6.97454 -0.304379 0)
(7.21457 -0.325721 0)
(7.05874 -0.326099 0)
(7.30213 -0.351045 0)
(7.14247 -0.353178 0)
(7.38844 -0.380333 0)
(7.22312 -0.381888 0)
(7.47113 -0.409196 0)
(7.29871 -0.408112 0)
(7.5497 -0.433989 0)
(7.3689 -0.429313 0)
(7.6264 -0.452539 0)
(7.43469 -0.443599 0)
(7.70374 -0.464257 0)
(7.49935 -0.451384 0)
(7.78401 -0.471081 0)
(7.56768 -0.455956 0)
(7.8696 -0.476492 0)
(7.64401 -0.46143 0)
(7.96226 -0.484811 0)
(7.73104 -0.471158 0)
(8.06175 -0.499072 0)
(7.82859 -0.488258 0)
(8.16639 -0.52272 0)
(7.93433 -0.515922 0)
(8.27233 -0.55711 0)
(8.04328 -0.553254 0)
(8.3751 -0.597362 0)
(8.14656 -0.594619 0)
(8.47349 -0.640651 0)
(8.24136 -0.637051 0)
(8.56736 -0.680521 0)
(8.32617 -0.670332 0)
(8.65731 -0.711432 0)
(8.40811 -0.695804 0)
(8.74764 -0.737926 0)
(8.49592 -0.716713 0)
(8.84298 -0.760999 0)
(8.59361 -0.736173 0)
(8.94616 -0.7832 0)
(8.69888 -0.75701 0)
(9.05995 -0.805514 0)
(8.81068 -0.775903 0)
(9.17891 -0.826083 0)
(8.93021 -0.793381 0)
(9.29515 -0.84571 0)
(9.05487 -0.81383 0)
(9.40701 -0.8725 0)
(9.1795 -0.842097 0)
(9.50979 -0.905199 0)
(9.29396 -0.875889 0)
(9.60356 -0.938375 0)
(9.394 -0.905133 0)
(9.68219 -0.966942 0)
(9.47492 -0.932259 0)
(9.74537 -0.994076 0)
(9.54075 -0.957273 0)
(9.79803 -1.0199 0)
(9.5991 -0.983406 0)
(9.85105 -1.04944 0)
(9.6613 -1.01363 0)
(9.90875 -1.08364 0)
(9.72811 -1.04437 0)
(9.97239 -1.11797 0)
(9.78716 -1.06804 0)
(10.0287 -1.13335 0)
(9.83001 -1.07273 0)
(10.0678 -1.13691 0)
(9.85274 -1.06965 0)
(10.0837 -1.13851 0)
(9.85381 -1.06112 0)
(10.0757 -1.12703 0)
(9.83335 -1.0367 0)
(10.0429 -1.1037 0)
(9.79848 -1.01142 0)
(10.0058 -1.08503 0)
(9.77207 -0.99069 0)
(9.97512 -1.06554 0)
(9.75196 -0.963725 0)
(9.95041 -1.03468 0)
(9.72836 -0.930158 0)
(9.93053 -0.998288 0)
(9.70214 -0.893198 0)
(9.91373 -0.961474 0)
(9.67421 -0.850962 0)
(9.89523 -0.923392 0)
(9.63509 -0.808821 0)
(9.871 -0.884997 0)
(9.58865 -0.764944 0)
(9.84142 -0.834947 0)
(9.54149 -0.711581 0)
(9.8029 -0.779241 0)
(9.4949 -0.654003 0)
(9.75765 -0.719145 0)
(9.45187 -0.595629 0)
(9.70956 -0.6592 0)
(9.40083 -0.535324 0)
(9.65654 -0.596542 0)
(9.35266 -0.476807 0)
(9.60896 -0.53364 0)
(9.3158 -0.417227 0)
(9.56726 -0.471246 0)
(9.27866 -0.355533 0)
(9.52366 -0.405098 0)
(9.23871 -0.290993 0)
(9.47971 -0.340358 0)
(9.19331 -0.225582 0)
(9.42789 -0.264101 0)
(9.14884 -0.153715 0)
(9.37399 -0.186913 0)
(9.11878 -0.0777641 0)
(9.3139 -0.104748 0)
(9.08624 0.00464992 0)
(9.2503 -0.0183041 0)
(9.04962 0.097806 0)
(9.19741 0.0744291 0)
(9.00562 0.199484 0)
(9.15473 0.177753 0)
(8.95736 0.309148 0)
(9.12465 0.278218 0)
(8.91429 0.423582 0)
(9.10256 0.365608 0)
(8.85985 0.526653 0)
(9.08061 0.456166 0)
(8.80808 0.623717 0)
(9.0554 0.538007 0)
(8.76211 0.720985 0)
(9.02694 0.614901 0)
(8.71258 0.827995 0)
(8.9752 0.699311 0)
(8.64869 0.949738 0)
(8.93423 0.787318 0)
(8.53856 1.06459 0)
(8.89207 0.883699 0)
(8.40222 1.19112 0)
(8.82961 0.970963 0)
(8.25729 1.3236 0)
(8.78134 1.06118 0)
(8.12014 1.46116 0)
(8.7395 1.15867 0)
(7.99421 1.61241 0)
(8.69825 1.2901 0)
(7.8876 1.77637 0)
(8.63504 1.44596 0)
(7.79336 1.94876 0)
(8.54576 1.6201 0)
(7.6818 2.12495 0)
(8.44148 1.8168 0)
(7.53521 2.32623 0)
(8.32136 2.04797 0)
(7.38086 2.58899 0)
(8.1589 2.32817 0)
(7.24175 2.9384 0)
(7.9307 2.67638 0)
(7.08421 3.42832 0)
(7.66063 3.15748 0)
(6.79063 4.12878 0)
(7.64488 3.96229 0)
(6.10559 5.38026 0)
(8.55878 4.81156 0)
(6.54933 8.97167 0)
(7.99188 -0.0863562 0)
(7.88965 -0.0715516 0)
(8.00429 -0.0858197 0)
(7.92953 -0.100083 0)
(8.09985 -0.121282 0)
(8.04183 -0.123393 0)
(8.20989 -0.127608 0)
(8.11963 -0.116489 0)
(8.26576 -0.116186 0)
(8.14885 -0.1075 0)
(8.29309 -0.114302 0)
(8.17039 -0.112644 0)
(8.32684 -0.125628 0)
(8.20525 -0.127115 0)
(8.37498 -0.14172 0)
(8.25317 -0.142507 0)
(8.43305 -0.156266 0)
(8.30787 -0.155197 0)
(8.49431 -0.168205 0)
(8.36389 -0.166378 0)
(8.5554 -0.180132 0)
(8.41934 -0.179182 0)
(8.61543 -0.194599 0)
(8.47324 -0.19458 0)
(8.67403 -0.211368 0)
(8.52585 -0.211627 0)
(8.73174 -0.228799 0)
(8.57762 -0.228242 0)
(8.78859 -0.245168 0)
(8.62766 -0.243729 0)
(8.84387 -0.261189 0)
(8.67594 -0.26004 0)
(8.89785 -0.279194 0)
(8.72233 -0.278574 0)
(8.94942 -0.298789 0)
(8.76585 -0.297285 0)
(8.99818 -0.317394 0)
(8.80781 -0.314278 0)
(9.0456 -0.334831 0)
(8.85032 -0.331185 0)
(9.09362 -0.353937 0)
(8.89563 -0.351378 0)
(9.14364 -0.377553 0)
(8.94316 -0.37645 0)
(9.19441 -0.40509 0)
(8.98981 -0.403967 0)
(9.24312 -0.432865 0)
(9.03148 -0.429655 0)
(9.28729 -0.456865 0)
(9.06601 -0.450105 0)
(9.32696 -0.474761 0)
(9.09455 -0.463873 0)
(9.36357 -0.48666 0)
(9.12043 -0.472143 0)
(9.39939 -0.494964 0)
(9.14915 -0.478453 0)
(9.43844 -0.503947 0)
(9.18697 -0.487472 0)
(9.48429 -0.517251 0)
(9.23618 -0.501578 0)
(9.53627 -0.534844 0)
(9.29273 -0.520683 0)
(9.59108 -0.557816 0)
(9.35036 -0.547187 0)
(9.64578 -0.588614 0)
(9.40403 -0.581217 0)
(9.69902 -0.626981 0)
(9.45531 -0.621986 0)
(9.75459 -0.671123 0)
(9.50494 -0.664489 0)
(9.80699 -0.711862 0)
(9.55058 -0.699039 0)
(9.85805 -0.743031 0)
(9.59559 -0.725983 0)
(9.90952 -0.770444 0)
(9.64265 -0.748975 0)
(9.96103 -0.794955 0)
(9.69406 -0.769816 0)
(10.0156 -0.819632 0)
(9.75368 -0.79312 0)
(10.0765 -0.844381 0)
(9.82095 -0.813821 0)
(10.1423 -0.866423 0)
(9.89448 -0.830127 0)
(10.2073 -0.884771 0)
(9.97099 -0.849413 0)
(10.269 -0.907005 0)
(10.0404 -0.873404 0)
(10.3231 -0.935686 0)
(10.1001 -0.903192 0)
(10.3673 -0.963647 0)
(10.1471 -0.926909 0)
(10.3958 -0.987943 0)
(10.1792 -0.948648 0)
(10.4107 -1.01018 0)
(10.2021 -0.96973 0)
(10.415 -1.03507 0)
(10.2199 -0.996015 0)
(10.4233 -1.06697 0)
(10.2396 -1.0278 0)
(10.434 -1.10369 0)
(10.2568 -1.05958 0)
(10.4397 -1.13652 0)
(10.2594 -1.0784 0)
(10.4358 -1.1462 0)
(10.2521 -1.07703 0)
(10.4216 -1.14394 0)
(10.2364 -1.06575 0)
(10.3915 -1.13393 0)
(10.2011 -1.04387 0)
(10.3354 -1.11107 0)
(10.1456 -1.01094 0)
(10.2668 -1.08454 0)
(10.0964 -0.988529 0)
(10.2099 -1.0697 0)
(10.0504 -0.968839 0)
(10.1469 -1.05031 0)
(9.9947 -0.942 0)
(10.0863 -1.02261 0)
(9.94 -0.908078 0)
(10.0368 -0.989255 0)
(9.88841 -0.869174 0)
(9.99152 -0.952252 0)
(9.83655 -0.82573 0)
(9.9467 -0.911935 0)
(9.78164 -0.780917 0)
(9.89737 -0.871875 0)
(9.71868 -0.734721 0)
(9.83691 -0.821608 0)
(9.65017 -0.676298 0)
(9.77027 -0.76261 0)
(9.57262 -0.615044 0)
(9.70865 -0.704501 0)
(9.49726 -0.556941 0)
(9.64694 -0.642051 0)
(9.41913 -0.494971 0)
(9.58286 -0.583358 0)
(9.35057 -0.442531 0)
(9.5213 -0.525519 0)
(9.28771 -0.384809 0)
(9.46539 -0.468154 0)
(9.23403 -0.318763 0)
(9.40319 -0.400904 0)
(9.18024 -0.251585 0)
(9.34914 -0.334963 0)
(9.12932 -0.18172 0)
(9.29822 -0.257016 0)
(9.08159 -0.107656 0)
(9.25525 -0.184136 0)
(9.04867 -0.0333015 0)
(9.20812 -0.106506 0)
(9.03179 0.0546302 0)
(9.15877 -0.0275715 0)
(8.99896 0.144349 0)
(9.12083 0.0661844 0)
(8.95423 0.252353 0)
(9.0802 0.160109 0)
(8.91262 0.360492 0)
(9.047 0.255567 0)
(8.87063 0.472061 0)
(9.02258 0.351782 0)
(8.82898 0.575858 0)
(9.00199 0.435478 0)
(8.80509 0.669758 0)
(8.98572 0.51364 0)
(8.78097 0.77044 0)
(8.96054 0.596161 0)
(8.7493 0.886576 0)
(8.93619 0.690753 0)
(8.68705 1.00843 0)
(8.9352 0.783681 0)
(8.58629 1.13863 0)
(8.93113 0.88332 0)
(8.45918 1.28045 0)
(8.93457 0.97583 0)
(8.3183 1.41156 0)
(8.94248 1.05753 0)
(8.19423 1.5426 0)
(8.93558 1.15301 0)
(8.08354 1.68428 0)
(8.91275 1.27313 0)
(8.00067 1.85209 0)
(8.87384 1.42434 0)
(7.91779 2.03844 0)
(8.82608 1.59708 0)
(7.82347 2.24304 0)
(8.75935 1.78303 0)
(7.73661 2.47967 0)
(8.64989 1.99246 0)
(7.67521 2.76255 0)
(8.51683 2.26119 0)
(7.61159 3.13172 0)
(8.42804 2.62082 0)
(7.47928 3.61517 0)
(8.53603 3.12321 0)
(7.15488 4.36131 0)
(9.08267 3.64206 0)
(6.83714 5.93127 0)
(9.81962 3.70709 0)
(8.20854 8.25075 0)
(10.2302 -0.104406 0)
(10.1135 -0.16188 0)
(10.2422 -0.199335 0)
(10.1471 -0.19366 0)
(10.3175 -0.18794 0)
(10.2297 -0.162406 0)
(10.3922 -0.152767 0)
(10.2727 -0.131482 0)
(10.4163 -0.130717 0)
(10.2751 -0.118437 0)
(10.4183 -0.127416 0)
(10.2728 -0.123222 0)
(10.4266 -0.139353 0)
(10.2825 -0.138986 0)
(10.4477 -0.15733 0)
(10.3035 -0.156354 0)
(10.4769 -0.173667 0)
(10.3294 -0.170374 0)
(10.5083 -0.186371 0)
(10.3562 -0.181657 0)
(10.5397 -0.197831 0)
(10.3825 -0.193284 0)
(10.5702 -0.210958 0)
(10.4077 -0.207188 0)
(10.599 -0.226415 0)
(10.4316 -0.222984 0)
(10.6259 -0.242965 0)
(10.4538 -0.238929 0)
(10.6506 -0.259007 0)
(10.4738 -0.254164 0)
(10.6724 -0.274557 0)
(10.4911 -0.26947 0)
(10.6915 -0.290819 0)
(10.5055 -0.286085 0)
(10.7079 -0.30845 0)
(10.517 -0.303575 0)
(10.7226 -0.326437 0)
(10.5273 -0.321245 0)
(10.7379 -0.34496 0)
(10.5386 -0.339813 0)
(10.7556 -0.365332 0)
(10.5521 -0.361285 0)
(10.7754 -0.389538 0)
(10.5666 -0.386514 0)
(10.7947 -0.416765 0)
(10.5792 -0.413236 0)
(10.8103 -0.443566 0)
(10.5874 -0.437266 0)
(10.8207 -0.465927 0)
(10.5909 -0.455316 0)
(10.8262 -0.481777 0)
(10.5914 -0.466813 0)
(10.8286 -0.491725 0)
(10.5912 -0.473834 0)
(10.8308 -0.499484 0)
(10.5945 -0.481048 0)
(10.8365 -0.509956 0)
(10.6038 -0.492189 0)
(10.8464 -0.524583 0)
(10.6161 -0.50729 0)
(10.8571 -0.542906 0)
(10.6279 -0.526692 0)
(10.8661 -0.566015 0)
(10.6372 -0.551982 0)
(10.8721 -0.59516 0)
(10.643 -0.5851 0)
(10.8777 -0.634533 0)
(10.648 -0.62851 0)
(10.8843 -0.679373 0)
(10.65 -0.670637 0)
(10.8877 -0.720277 0)
(10.6464 -0.70588 0)
(10.8876 -0.752168 0)
(10.6441 -0.734125 0)
(10.8872 -0.779422 0)
(10.6407 -0.758079 0)
(10.8864 -0.803883 0)
(10.6437 -0.781457 0)
(10.8937 -0.831798 0)
(10.6605 -0.807532 0)
(10.909 -0.857751 0)
(10.6862 -0.830419 0)
(10.9276 -0.879017 0)
(10.7132 -0.846632 0)
(10.9464 -0.897713 0)
(10.7384 -0.864027 0)
(10.9602 -0.916878 0)
(10.7563 -0.88786 0)
(10.9691 -0.944234 0)
(10.7683 -0.91291 0)
(10.9661 -0.967025 0)
(10.7667 -0.929264 0)
(10.9482 -0.984962 0)
(10.7535 -0.945081 0)
(10.9221 -1.00417 0)
(10.735 -0.96324 0)
(10.8887 -1.02953 0)
(10.7133 -0.991093 0)
(10.8569 -1.06343 0)
(10.6871 -1.02232 0)
(10.8233 -1.09777 0)
(10.6528 -1.05002 0)
(10.7797 -1.12725 0)
(10.6101 -1.06563 0)
(10.7318 -1.1372 0)
(10.5637 -1.06388 0)
(10.6769 -1.13305 0)
(10.509 -1.04584 0)
(10.6066 -1.113 0)
(10.4376 -1.01407 0)
(10.5134 -1.07884 0)
(10.3522 -0.979138 0)
(10.4252 -1.05949 0)
(10.285 -0.963491 0)
(10.3406 -1.04342 0)
(10.2071 -0.938001 0)
(10.2445 -1.01832 0)
(10.1153 -0.907732 0)
(10.1438 -0.994418 0)
(10.0273 -0.873718 0)
(10.0575 -0.966327 0)
(9.94595 -0.836354 0)
(9.98599 -0.930065 0)
(9.8676 -0.796859 0)
(9.91986 -0.891335 0)
(9.79152 -0.755502 0)
(9.84562 -0.847238 0)
(9.70994 -0.70222 0)
(9.7595 -0.791101 0)
(9.62142 -0.640541 0)
(9.67083 -0.731278 0)
(9.52738 -0.580248 0)
(9.58801 -0.675357 0)
(9.4319 -0.52052 0)
(9.50909 -0.61311 0)
(9.33546 -0.460307 0)
(9.43564 -0.557614 0)
(9.24347 -0.408425 0)
(9.35906 -0.503719 0)
(9.15753 -0.351642 0)
(9.28836 -0.449334 0)
(9.07532 -0.280908 0)
(9.21815 -0.382538 0)
(9.00632 -0.215211 0)
(9.1677 -0.323966 0)
(8.95017 -0.144701 0)
(9.12046 -0.251937 0)
(8.9052 -0.0755036 0)
(9.09277 -0.188079 0)
(8.86967 -0.00496341 0)
(9.07246 -0.119561 0)
(8.83985 0.0837734 0)
(9.06503 -0.0329279 0)
(8.7916 0.176196 0)
(9.05076 0.0621035 0)
(8.75097 0.289536 0)
(9.01658 0.15771 0)
(8.71496 0.40742 0)
(8.98686 0.256285 0)
(8.66451 0.505369 0)
(8.9744 0.338624 0)
(8.63421 0.606312 0)
(8.9803 0.407915 0)
(8.59497 0.697444 0)
(9.00443 0.488678 0)
(8.54735 0.801843 0)
(9.01384 0.574198 0)
(8.49579 0.92303 0)
(9.03609 0.66989 0)
(8.43651 1.05534 0)
(9.05854 0.75785 0)
(8.3658 1.20221 0)
(9.08457 0.851195 0)
(8.27331 1.34299 0)
(9.12199 0.936043 0)
(8.19553 1.46924 0)
(9.12563 1.02251 0)
(8.14538 1.59956 0)
(9.0999 1.12302 0)
(8.10892 1.74872 0)
(9.06196 1.23726 0)
(8.07771 1.92969 0)
(9.0352 1.37671 0)
(8.04803 2.13285 0)
(9.0063 1.53665 0)
(8.02798 2.35475 0)
(8.96961 1.71348 0)
(8.01109 2.59754 0)
(8.95202 1.93204 0)
(7.95994 2.8901 0)
(8.98814 2.19626 0)
(7.8645 3.27447 0)
(9.15506 2.52048 0)
(7.68145 3.81163 0)
(9.55215 2.82321 0)
(7.49523 4.73779 0)
(10.165 2.93609 0)
(7.80711 6.18102 0)
(10.4165 3.13034 0)
(9.20619 7.24075 0)
(11.7246 -0.0883689 0)
(11.6391 -0.180994 0)
(11.7987 -0.238583 0)
(11.7424 -0.228702 0)
(11.8929 -0.215996 0)
(11.808 -0.174976 0)
(11.934 -0.160131 0)
(11.8179 -0.131445 0)
(11.9291 -0.133601 0)
(11.7984 -0.119012 0)
(11.9103 -0.133134 0)
(11.778 -0.126809 0)
(11.8987 -0.147383 0)
(11.7695 -0.144011 0)
(11.9 -0.166227 0)
(11.7722 -0.161991 0)
(11.9097 -0.18311 0)
(11.7804 -0.17653 0)
(11.9222 -0.196231 0)
(11.7894 -0.18803 0)
(11.934 -0.207687 0)
(11.7967 -0.199343 0)
(11.9434 -0.220294 0)
(11.801 -0.212531 0)
(11.9493 -0.234971 0)
(11.802 -0.227482 0)
(11.952 -0.250779 0)
(11.8004 -0.242735 0)
(11.9523 -0.266311 0)
(11.7975 -0.257292 0)
(11.9514 -0.281038 0)
(11.7942 -0.271297 0)
(11.9496 -0.295849 0)
(11.7906 -0.286021 0)
(11.9473 -0.311705 0)
(11.7868 -0.302022 0)
(11.9445 -0.328964 0)
(11.7828 -0.319652 0)
(11.9419 -0.347975 0)
(11.7786 -0.339341 0)
(11.9397 -0.369488 0)
(11.7738 -0.361894 0)
(11.937 -0.393959 0)
(11.7673 -0.386894 0)
(11.932 -0.420178 0)
(11.7576 -0.412133 0)
(11.9229 -0.445161 0)
(11.744 -0.434343 0)
(11.9088 -0.465711 0)
(11.7266 -0.450836 0)
(11.8896 -0.480091 0)
(11.7066 -0.461318 0)
(11.8674 -0.489695 0)
(11.6874 -0.4691 0)
(11.8464 -0.498838 0)
(11.6716 -0.478091 0)
(11.8274 -0.509841 0)
(11.6561 -0.489332 0)
(11.8078 -0.523014 0)
(11.6372 -0.503664 0)
(11.7866 -0.540288 0)
(11.6137 -0.522286 0)
(11.7633 -0.561757 0)
(11.5851 -0.545019 0)
(11.7379 -0.58935 0)
(11.5554 -0.57686 0)
(11.7126 -0.627747 0)
(11.5231 -0.617313 0)
(11.6796 -0.670002 0)
(11.4837 -0.656362 0)
(11.6391 -0.707775 0)
(11.4386 -0.689831 0)
(11.5945 -0.740054 0)
(11.395 -0.718314 0)
(11.5484 -0.767122 0)
(11.3518 -0.743943 0)
(11.5045 -0.795171 0)
(11.3192 -0.773947 0)
(11.475 -0.828722 0)
(11.2995 -0.804575 0)
(11.4526 -0.857553 0)
(11.2843 -0.829429 0)
(11.4306 -0.878165 0)
(11.2692 -0.847291 0)
(11.4106 -0.896653 0)
(11.2493 -0.863265 0)
(11.3894 -0.915359 0)
(11.2279 -0.885507 0)
(11.3631 -0.93963 0)
(11.2001 -0.902347 0)
(11.3238 -0.954084 0)
(11.1574 -0.912909 0)
(11.2772 -0.9701 0)
(11.1098 -0.92694 0)
(11.2269 -0.989758 0)
(11.06 -0.944107 0)
(11.1707 -1.01584 0)
(11.0085 -0.969812 0)
(11.1073 -1.04828 0)
(10.9505 -0.99932 0)
(11.0415 -1.07961 0)
(10.8875 -1.02357 0)
(10.9718 -1.10613 0)
(10.8195 -1.03737 0)
(10.8948 -1.11211 0)
(10.7405 -1.0326 0)
(10.8024 -1.10248 0)
(10.6487 -1.00873 0)
(10.6916 -1.07558 0)
(10.5413 -0.968455 0)
(10.5661 -1.03752 0)
(10.4429 -0.941212 0)
(10.4591 -1.02574 0)
(10.3444 -0.921498 0)
(10.3392 -1.00184 0)
(10.2311 -0.887011 0)
(10.2103 -0.972144 0)
(10.1061 -0.852531 0)
(10.0831 -0.950961 0)
(9.98521 -0.823302 0)
(9.96888 -0.930058 0)
(9.8719 -0.791821 0)
(9.87309 -0.898439 0)
(9.7681 -0.755305 0)
(9.78138 -0.859866 0)
(9.66815 -0.711732 0)
(9.6771 -0.814203 0)
(9.56667 -0.655377 0)
(9.5707 -0.756265 0)
(9.46096 -0.592196 0)
(9.46682 -0.695714 0)
(9.35542 -0.53388 0)
(9.36257 -0.638152 0)
(9.24788 -0.472136 0)
(9.26368 -0.58044 0)
(9.14322 -0.414227 0)
(9.17625 -0.524695 0)
(9.03253 -0.358835 0)
(9.08618 -0.474735 0)
(8.92472 -0.300856 0)
(9.0013 -0.419639 0)
(8.81844 -0.234836 0)
(8.93365 -0.364278 0)
(8.74744 -0.180536 0)
(8.87884 -0.313013 0)
(8.68613 -0.104852 0)
(8.83343 -0.254263 0)