/*--------------------------------*- C++ -*----------------------------------*\
| =========                 |                                                 |
| \\      /  F ield         | OpenFOAM: The Open Source CFD Toolbox           |
|  \\    /   O peration     | Version:  2.4.0                                 |
|   \\  /    A nd           | Web:      www.OpenFOAM.org                      |
|    \\/     M anipulation  |                                                 |
\*---------------------------------------------------------------------------*/
FoamFile
{
    version     2.0;
    format      ascii;
    class       surfaceScalarField;
    location    "72";
    object      phi;
}
// * * * * * * * * * * * * * * * * * * * * * * * * * * * * * * * * * * * * * //

dimensions      [0 3 -1 0 0 0 0];

internalField   nonuniform List<scalar> 
8640
(
0.000524692
-3.71921e-05
0.000556872
-3.21804e-05
0.000400085
0.000156787
0.000434876
-3.47906e-05
0.000575793
-0.000140917
0.000485674
9.01192e-05
0.000483924
1.75014e-06
0.000530585
-4.66609e-05
0.000445937
8.46481e-05
0.0005266
-8.06638e-05
0.000515359
1.12413e-05
0.000441706
7.36533e-05
0.00054249
-0.000100784
0.000473983
6.85072e-05
0.000488941
-1.49587e-05
0.000528701
-3.976e-05
0.000447506
8.11959e-05
0.000517373
-6.98673e-05
0.000478947
3.84252e-05
0.000231733
0.000247215
0.00143278
-8.24713e-05
0.0014415
-4.09012e-05
0.00127349
0.000324799
0.00136317
-0.000124471
0.00148395
-0.000261697
0.0013718
0.000202267
0.00139579
-2.22433e-05
0.00141865
-6.95196e-05
0.00134689
0.000156411
0.00144227
-0.000176041
0.00141228
4.1228e-05
0.00134698
0.000138952
0.00146145
-0.000215254
0.00135196
0.000178002
0.00141176
-7.47629e-05
0.00140486
-3.28644e-05
0.00134693
0.000139128
0.00141923
-0.000142166
0.00134238
0.000115278
0.000207993
0.00136612
0.00222825
-0.00012322
0.00221798
-3.06352e-05
0.0020952
0.000447577
0.00219938
-0.000228647
0.00228276
-0.000345074
0.00218655
0.000298472
0.00222068
-5.63663e-05
0.00220812
-5.69632e-05
0.00217894
0.000185591
0.00224963
-0.000246729
0.00221943
7.14249e-05
0.00218411
0.000174269
0.00226278
-0.000293917
0.00218167
0.000259109
0.00223529
-0.000128389
0.00223103
-2.86026e-05
0.00216509
0.000205072
0.00227859
-0.000255667
0.00213481
0.000259056
3.86175e-05
0.00230419
0.00293517
-0.000170892
0.00287202
3.25135e-05
0.00279522
0.000524376
0.00294289
-0.000376312
0.00297999
-0.000382179
0.00290744
0.000371027
0.00296788
-0.000116804
0.00289194
1.89748e-05
0.00290256
0.00017497
0.00297262
-0.000316792
0.00289783
0.000146215
0.00295077
0.000121333
0.00295829
-0.000301437
0.00292375
0.000293647
0.0029775
-0.000182137
0.00294789
1.00872e-06
0.00290971
0.000243254
0.00301084
-0.000356799
0.00284083
0.000429068
-0.000173161
0.0030526
0.003571
-0.000254387
0.00344516
0.000158352
0.00333195
0.000637582
0.00354472
-0.000589081
0.00355747
-0.000394931
0.00349037
0.000438126
0.00361627
-0.000242698
0.00347891
0.000156334
0.00348066
0.000173222
0.00360276
-0.000438895
0.00343759
0.00031138
0.00358177
-2.28429e-05
0.00355463
-0.000274298
0.00350165
0.000346629
0.00361164
-0.000292132
0.00351487
9.7779e-05
0.00351425
0.000243879
0.00361998
-0.00046253
0.00341378
0.000635262
-0.000394819
0.00363544
0.00409841
-0.000365293
0.00397417
0.000282586
0.00378388
0.000827874
0.00400855
-0.000813756
0.00401932
-0.000405697
0.00392774
0.000529706
0.00411458
-0.000429535
0.00397855
0.00029236
0.00393513
0.000216644
0.00411959
-0.000623357
0.00387972
0.000551253
0.00404374
-0.000186862
0.00403609
-0.000266656
0.0039346
0.00044812
0.00410456
-0.000462084
0.00396726
0.000235073
0.00398021
0.000230929
0.00409419
-0.000576508
0.00388392
0.00084553
-0.000575375
0.00406448
0.00449569
-0.00047348
0.00441318
0.000365095
0.00419538
0.00104567
0.00438882
-0.0010072
0.00439756
-0.000414429
0.0042784
0.000648858
0.00447325
-0.000624378
0.00437566
0.000389948
0.00429976
0.000292545
0.00451483
-0.000838432
0.00425695
0.000809133
0.00439586
-0.000325772
0.00441317
-0.000283966
0.00427762
0.000583675
0.00447261
-0.000657073
0.00432375
0.000383931
0.00434818
0.000206498
0.00444843
-0.000676759
0.00427433
0.00101963
-0.000703441
0.0044024
0.00477406
-0.000560041
0.00473031
0.000408846
0.0045391
0.00123688
0.00468461
-0.00115271
0.00468908
-0.000418903
0.00457111
0.000766826
0.00473007
-0.000783338
0.00466949
0.000450529
0.00458567
0.00037637
0.00478607
-0.00103884
0.00456141
0.0010338
0.00466633
-0.00043069
0.00469505
-0.000312691
0.00455514
0.000723588
0.00473798
-0.000839913
0.00459372
0.000528193
0.00463328
0.000166939
0.00469662
-0.000740098
0.0045809
0.00113535
-0.000787394
0.00466485
0.00494368
-0.000616226
0.00492514
0.000427392
0.00479289
0.00136913
0.00487924
-0.00123906
0.00487873
-0.000418384
0.00479536
0.00085019
0.00489549
-0.000883471
0.00486396
0.00048206
0.00479486
0.00044547
0.00493873
-0.00118271
0.00478083
0.0011917
0.00484866
-0.000498517
0.0048746
-0.000338625
0.00476239
0.000835792
0.00490227
-0.000979788
0.00477977
0.000650691
0.00483334
0.000113366
0.00484477
-0.000751525
0.0047965
0.00118361
-0.000829826
0.00483894
0.00500874
-0.000637464
0.00500661
0.000429515
0.00495033
0.00142542
0.00497042
-0.00125915
0.00496355
-0.000411516
0.00493696
0.000876782
0.00496651
-0.000913028
0.00496007
0.000488502
0.00492364
0.000481906
0.00498045
-0.00123952
0.00491162
0.00126053
0.00493717
-0.000524075
0.0049481
-0.000349555
0.00488991
0.000893984
0.00496158
-0.00105146
0.00487934
0.000732932
0.00494099
5.17183e-05
0.00489715
-0.000707686
0.00491907
0.00116169
-0.000827617
0.00491686
0.00497123
-0.000621194
0.00497956
0.000421184
0.00501017
0.00139481
0.00496171
-0.00121069
0.0049509
-0.000400706
0.00498444
0.000843238
0.00494059
-0.000869181
0.00495635
0.000472739
0.00496356
0.000474698
0.00491736
-0.00119332
0.0049503
0.00122759
0.00492881
-0.000502588
0.00491772
-0.000338465
0.00493163
0.000880071
0.00491585
-0.00103567
0.00489209
0.000756689
0.00494774
-3.92645e-06
0.0048598
-0.000619753
0.00494751
0.00107398
-0.000778079
0.00489797
0.00483407
-0.00056776
0.00485183
0.000403416
0.00496854
0.00127811
0.00485883
-0.00110098
0.00484299
-0.000384872
0.00492877
0.000757465
0.00481491
-0.000755329
0.00485384
0.000433811
0.00490033
0.000428211
0.00476287
-0.00105586
0.0048878
0.00110266
0.00482481
-0.000439592
0.00479121
-0.000304869
0.00488155
0.000789733
0.00477228
-0.000926408
0.00482007
0.0007089
0.00485155
-3.54074e-05
0.0047398
-0.000507998
0.00488109
0.000932694
-0.000683598
0.0047866
0.00460035
-0.000480606
0.00463622
0.000367544
0.00482161
0.00109272
0.00465836
-0.000937733
0.00464041
-0.000366919
0.0047611
0.000636773
0.00458704
-0.000581264
0.00465611
0.000364734
0.00472312
0.000361201
0.00452847
-0.0008612
0.00472575
0.000905378
0.00462537
-0.000339214
0.00458562
-0.000265117
0.00472818
0.00064717
0.00454913
-0.000747361
0.00466107
0.000596962
0.00465999
-3.4323e-05
0.00454489
-0.000392903
0.00472459
0.000752994
-0.000548505
0.0045895
0.0042753
-0.000368404
0.00434542
0.000297417
0.00456526
0.000872884
0.00435749
-0.000729961
0.0043465
-0.000355931
0.00447057
0.000512702
0.004264
-0.00037469
0.00437089
0.000257838
0.00443361
0.000298483
0.00423216
-0.000659747
0.00446973
0.000667809
0.00433757
-0.000207053
0.00431283
-0.000240376
0.00446587
0.000494128
0.00425816
-0.000539657
0.00441552
0.000439603
0.00437979
1.40695e-06
0.0042845
-0.000297612
0.00447731
0.000560183
-0.000388129
0.00431694
0.00387287
-0.000253775
0.00398751
0.000182781
0.00418657
0.000673824
0.00395768
-0.000501079
0.00396114
-0.000359383
0.00405503
0.000418811
0.00387044
-0.000190101
0.00400996
0.000118321
0.00404675
0.000261686
0.00388311
-0.000496099
0.0041116
0.000439318
0.00396525
-6.07026e-05
0.00396611
-0.000241239
0.00409077
0.00036947
0.00390285
-0.000351737
0.00407514
0.000267314
0.00401257
6.39772e-05
0.00395292
-0.000237969
0.0041232
0.000389906
-0.000229406
0.00396448
0.00340572
-0.000172
0.00353099
5.75148e-05
0.00366292
0.000541895
0.00346604
-0.000304204
0.00347395
-0.000367292
0.0035347
0.000358068
0.00342545
-8.08526e-05
0.00355367
-9.90556e-06
0.00356198
0.000253378
0.00344825
-0.000382367
0.00361954
0.000268026
0.00349974
5.91006e-05
0.00351512
-0.000256619
0.00359856
0.000286031
0.00346337
-0.000216552
0.00360791
0.000122775
0.0035432
0.000128686
0.00351384
-0.000208607
0.00363766
0.000266091
-0.000103071
0.00351132
0.00284466
-0.000129162
0.00291327
-1.10946e-05
0.00301239
0.000442776
0.00289121
-0.000183022
0.00286616
-0.000342238
0.00292649
0.000297738
0.00288495
-3.93166e-05
0.00294499
-6.99461e-05
0.00296176
0.000236608
0.00287634
-0.000296948
0.00298416
0.00016021
0.00293016
0.000113097
0.00292203
-0.000248487
0.00298213
0.000225929
0.00289798
-0.000132404
0.00298675
3.40122e-05
0.00295633
0.000159098
0.00293367
-0.000185941
0.00301723
0.000182533
-2.61001e-05
0.00294025
0.0021472
-8.88613e-05
0.00216276
-2.66572e-05
0.0022955
0.000310037
0.00221284
-0.000100363
0.00212986
-0.000259254
0.00221898
0.000208614
0.00219799
-1.83254e-05
0.00219972
-7.16757e-05
0.00225803
0.0001783
0.00216373
-0.000202653
0.00223935
8.45971e-05
0.00224365
0.000108796
0.00218559
-0.000190427
0.00225502
0.000156492
0.00219818
-7.55637e-05
0.00224007
-7.87804e-06
0.00226025
0.000138919
0.00221707
-0.000142762
0.00228357
0.000116039
8.72349e-06
0.00224874
0.00133616
-3.75241e-05
0.00133333
-2.38279e-05
0.00149619
0.000147184
0.00142104
-2.52146e-05
0.00129758
-0.000135791
0.00141326
9.29319e-05
0.00139386
1.07625e-06
0.00136897
-4.67895e-05
0.00145698
9.02854e-05
0.00134574
-9.1404e-05
0.00140765
2.26857e-05
0.00144676
6.9679e-05
0.00135222
-9.5881e-05
0.00143928
6.94332e-05
0.00139027
-2.65548e-05
0.00140262
-2.02323e-05
0.00146244
7.90971e-05
0.00139154
-7.18632e-05
0.0014589
4.8684e-05
1.77477e-05
0.00144988
0.000449976
0.000426148
0.000573332
0.000548117
0.000412326
0.000505258
0.000506334
0.000459545
0.00054983
0.000458426
0.000481112
0.000550791
0.00045491
0.000524343
0.000497788
0.000477556
0.000556653
0.00048479
0.000533474
0.000551221
0.000389182
-2.75906e-05
-0.000114377
0.000946429
0.000482121
-0.00103937
0.000865501
3.6098e-05
4.48298e-05
0.00104597
0.000445117
-0.000625586
0.00122872
0.000214174
-0.000396919
0.00145642
-0.000781306
0.000553601
0.00172179
-0.000713531
0.000448159
0.00176862
-0.000274244
0.000227419
0.00205079
-0.00162777
0.0013456
0.00228639
0.000648504
-0.000884104
0.00253612
-0.00206238
0.00181264
0.00275802
-0.00233216
0.00211026
0.00287742
-0.00128086
0.00116146
0.00311604
-0.000919214
0.000680599
0.00330652
-0.00140382
0.00121334
0.00329798
-0.00358212
0.00359066
0.00336859
-0.00137846
0.00130785
0.00386371
-0.000509847
1.47342e-05
0.00444709
-0.00578561
0.00520223
0.00455014
-0.0104941
0.0103911
0.00427134
-0.0108319
0.0111107
0.00393805
-0.00810189
0.00843519
0.00386306
-0.0041296
0.00420459
0.00399863
-0.00170048
0.0015649
0.0039823
-0.00152549
0.00154182
0.00367888
-0.00215242
0.00245584
0.00325679
-0.00144727
0.00186937
0.0028548
-0.000197383
0.000599378
0.00248071
0.00239171
-0.00201762
0.00222207
0.00011503
0.000143606
0.00254912
-0.00388977
0.00356272
0.00289352
-0.00102794
0.000683542
0.00299128
0.00166087
-0.00175864
0.00301015
0.00532976
-0.00534863
0.00302513
0.00963202
-0.009647
0.00279762
0.010944
-0.0107164
0.00247666
0.010667
-0.010346
0.00236375
0.0085108
-0.0083979
0.00237933
0.00546937
-0.00548494
0.00240668
0.00310997
-0.00313732
0.00253992
-0.00127558
0.00114235
0.00272316
-0.00603418
0.00585093
0.00277782
-0.00730923
0.00725457
0.0027035
-0.00684161
0.00691594
0.002637
-0.00697633
0.00704283
0.0024739
-0.00696952
0.00713262
0.0023179
-0.00485794
0.00501394
0.00240108
-6.70761e-05
-1.61018e-05
0.00248194
0.00373044
-0.0038113
0.0023843
0.00635948
-0.00626185
0.00239085
0.00749536
-0.00750191
0.00248941
0.00596632
-0.00606489
0.00255153
0.00354909
-0.00361121
0.00269338
-0.000772182
0.000630329
0.00278224
-0.00561109
0.00552223
0.00272142
-0.0074629
0.00752372
0.00256808
-0.00600902
0.00616235
0.00244438
-0.00292664
0.00305034
0.00245917
0.000859114
-0.000873901
0.00251138
0.00388703
-0.00393925
0.0025081
0.00466893
-0.00466564
0.00253679
0.00251907
-0.00254777
0.0025977
-0.0010987
0.00103779
0.00259693
-0.00357482
0.00357559
0.00254864
-0.00382007
0.00386836
0.00256707
-0.00156349
0.00154506
0.00263983
0.0018056
-0.00187836
0.00266602
0.00368312
-0.00370932
0.00262517
0.00340169
-0.00336083
0.00256015
0.00211956
-0.00205454
0.00251255
0.000816037
-0.00076843
0.00249528
-0.000217041
0.000234311
0.00249328
-0.000877979
0.000879973
0.00248657
-0.00110587
0.00111258
0.00246804
-0.000969499
0.000988028
0.00243994
-0.000647408
0.000675505
0.002405
-0.000323555
0.000358493
0.00236469
-0.000104106
0.000144416
0.00232094
-2.27652e-06
4.60296e-05
0.00227663
2.08264e-05
2.34854e-05
0.00223483
9.56413e-06
3.22366e-05
0.00219798
-8.10665e-06
4.49488e-05
0.0021675
-2.07954e-05
5.12781e-05
0.00214371
-2.65478e-05
5.03447e-05
0.00212609
-2.69343e-05
4.45501e-05
0.00211367
-2.41038e-05
3.65252e-05
0.00210529
-1.9799e-05
2.81744e-05
0.00209988
-1.52009e-05
2.06182e-05
0.00209651
-1.10103e-05
1.43801e-05
0.00209449
-7.56425e-06
9.58425e-06
0.00209332
-4.94674e-06
6.1155e-06
0.00209266
-3.08797e-06
3.74157e-06
0.00209231
-1.84418e-06
2.19788e-06
0.00209212
-1.056e-06
1.24139e-06
0.00209203
-5.8083e-07
6.75063e-07
0.00209198
-3.07294e-07
3.53777e-07
0.00209196
-1.57179e-07
1.7946e-07
0.00209195
-7.6661e-08
8.69463e-08
0.00209195
-3.82008e-08
4.30574e-08
-1.41523e-08
1.58762e-08
0.00114883
0.000189699
0.00142144
0.00020951
0.00150188
-4.43449e-05
0.00168405
0.000262945
0.00198632
-8.80859e-05
0.0021076
-0.000902595
0.00236693
-0.00097286
0.00256062
-0.000467935
0.00265316
-0.0017203
0.00292478
0.00037688
0.00306128
-0.00219887
0.00327951
-0.00255039
0.00346279
-0.00146414
0.00363389
-0.00109032
0.00374923
-0.00151916
0.00368623
-0.00351912
0.00379994
-0.00149217
0.00425221
-0.000962118
0.00459837
-0.00613178
0.00445961
-0.0103553
0.00404252
-0.0104148
0.00366297
-0.00772235
0.00358682
-0.00405344
0.00366742
-0.00178108
0.00358879
-0.00144686
0.00327132
-0.00183495
0.00288173
-0.00105767
0.00254888
0.000135464
0.00205922
0.00288136
0.00177051
0.000403742
0.00226671
-0.00438597
0.00272449
-0.00148571
0.00284048
0.00154488
0.00284276
0.00532748
0.00292034
0.00955444
0.00279009
0.0110742
0.00254782
0.0109093
0.00248714
0.00857149
0.0025311
0.0054254
0.00258563
0.00305545
0.00272823
-0.00141818
0.00287459
-0.00618054
0.00287536
-0.00731
0.00273786
-0.00670411
0.0026105
-0.00684898
0.0024135
-0.00677251
0.00223146
-0.0046759
0.00230595
-0.000141567
0.00240359
0.00363279
0.00234882
0.00641426
0.00241154
0.00743263
0.00253226
0.00584561
0.00261022
0.00347114
0.00276592
-0.000927886
0.0028238
-0.00566897
0.00270602
-0.00734513
0.00251429
-0.00581728
0.00237601
-0.00278836
0.00239284
0.000842285
0.00245991
0.00381996
0.00248473
0.00464411
0.00253481
0.002469
0.00258657
-0.00115046
0.00256325
-0.00355149
0.0024936
-0.00375042
0.0024979
-0.00156779
0.00257786
0.00172564
0.0026306
0.00363038
0.00261893
0.00341335
0.00257477
0.00216372
0.00253831
0.000852497
0.00252464
-0.000203371
0.00252038
-0.000873725
0.002507
-0.00109248
0.00248014
-0.00094264
0.002445
-0.000612267
0.0024058
-0.000284359
0.00236382
-6.21265e-05
0.00231997
4.15792e-05
0.00227618
6.46135e-05
0.00223498
5.07642e-05
0.0021986
2.82796e-05
0.00216837
9.43262e-06
0.00214464
-2.81563e-06
0.00212694
-9.23432e-06
0.00211433
-1.15032e-05
0.00210574
-1.12028e-05
0.0021001
-9.5639e-06
0.00209654
-7.44923e-06
0.00209437
-5.39306e-06
0.00209309
-3.66773e-06
0.00209236
-2.35907e-06
0.00209196
-1.4421e-06
0.00209174
-8.40999e-07
0.00209163
-4.69419e-07
0.00209158
-2.51267e-07
0.00209155
-1.29711e-07
0.00209154
-6.38256e-08
0.00209153
-3.19688e-08
-1.19263e-08
0.00215044
0.00034345
0.00222979
0.000130152
0.00233274
-0.000147294
0.00236726
0.000228424
0.00278274
-0.000503562
0.00289182
-0.00101167
0.00296248
-0.00104352
0.00325006
-0.000755514
0.00327975
-0.00175
0.00358152
7.51148e-05
0.00359724
-0.0022146
0.0037373
-0.00269045
0.0039531
-0.00167994
0.00405218
-0.0011894
0.00411549
-0.00158248
0.00400188
-0.00340551
0.0040916
-0.00158189
0.00449452
-0.00136504
0.00464283
-0.00628009
0.00429104
-0.0100036
0.00376558
-0.00988938
0.00336175
-0.00731852
0.00325408
-0.00394577
0.00325164
-0.00177865
0.00313132
-0.00132653
0.0028474
-0.00155104
0.00253189
-0.000742163
0.00223937
0.000427985
0.00166618
0.00345455
0.00136566
0.000704265
0.00196523
-0.00498554
0.00252331
-0.00204379
0.00267028
0.00139791
0.00267074
0.00532702
0.00280117
0.00942402
0.00276074
0.0111146
0.00260031
0.0110697
0.00259623
0.00857556
0.00266747
0.00535416
0.00274988
0.00297304
0.0029019
-0.00157021
0.003009
-0.00628763
0.00295372
-0.00725472
0.0027539
-0.00650429
0.0025662
-0.00666129
0.00233879
-0.0065451
0.00213614
-0.00447325
0.002201
-0.000206422
0.00231165
0.00352214
0.00229998
0.00642593
0.00241916
0.00731345
0.0025599
0.00570487
0.00265561
0.00337542
0.00282398
-0.00109625
0.00284665
-0.00569164
0.00267099
-0.00716946
0.00244397
-0.00559026
0.00229523
-0.00263962
0.00231387
0.00082364
0.00239381
0.00374002
0.00244749
0.00459043
0.00251801
0.00239847
0.0025584
-0.00119084
0.00251233
-0.00350542
0.00242294
-0.00366104
0.00241405
-0.0015589
0.00249983
0.00163986
0.00257745
0.00355276
0.00259451
0.00339629
0.00257176
0.00218648
0.0025474
0.000876857
0.0025385
-0.000194465
0.00253278
-0.000868005
0.00251306
-0.00107276
0.00247803
-0.000907615
0.00243608
-0.000570315
0.00239305
-0.000241329
0.0023501
-1.91707e-05
0.00230717
8.45064e-05
0.00226524
0.000106538
0.0022262
8.98038e-05
0.00219191
6.25732e-05
0.0021635
3.78405e-05
0.00214122
1.9472e-05
0.00212456
7.41884e-06
0.00211265
4.07188e-07
0.00210447
-3.01715e-06
0.00209905
-4.14315e-06
0.00209558
-3.98391e-06
0.00209344
-3.25214e-06
0.00209216
-2.38839e-06
0.00209142
-1.61921e-06
0.00209101
-1.02777e-06
0.00209078
-6.16224e-07
0.00209066
-3.51201e-07
0.0020906
-1.90966e-07
0.00209057
-9.98304e-08
0.00209056
-4.95868e-08
0.00209055
-2.50254e-08
-9.39692e-09
0.00294375
0.000452307
0.00293169
0.000142209
0.00318301
-0.000398611
0.00307302
0.000338406
0.00337722
-0.000807755
0.00354509
-0.00117955
0.00352727
-0.0010257
0.00381511
-0.00104335
0.00380003
-0.00173492
0.00410939
-0.000234244
0.00404377
-0.00214898
0.00410309
-0.00274977
0.00432815
-0.001905
0.00436713
-0.00122837
0.00439659
-0.00161194
0.00422757
-0.00323649
0.00425449
-0.0016088
0.00461137
-0.00172192
0.00459184
-0.00626056
0.00405277
-0.00946449
0.00344248
-0.00927908
0.00301505
-0.00689109
0.00284387
-0.0037746
0.0027604
-0.00169517
0.0026446
-0.00121073
0.00243831
-0.00134475
0.00220981
-0.00051367
0.00192248
0.000715313
0.00132801
0.00404903
0.0010312
0.00100108
0.0016511
-0.00560544
0.00227951
-0.0026722
0.00245834
0.00121908
0.0024848
0.00530056
0.00266593
0.00924289
0.00271107
0.0110695
0.00263628
0.0111445
0.00269152
0.00852032
0.00278836
0.00525732
0.00289826
0.00286315
0.0030593
-0.00173125
0.00312518
-0.00635351
0.00301199
-0.00714152
0.00275106
-0.00624336
0.0025042
-0.00641443
0.00224999
-0.00629089
0.00203197
-0.00425522
0.00208664
-0.000261093
0.0022067
0.00340208
0.00223868
0.00639395
0.00241382
0.00713831
0.00257273
0.00554595
0.00268901
0.00325915
0.00286765
-0.00127489
0.00285017
-0.00567417
0.00261645
-0.00693575
0.00235771
-0.00533152
0.00220251
-0.00248442
0.00222261
0.000803537
0.00231383
0.00364881
0.00239683
0.00450744
0.00248634
0.00230896
0.00251359
-0.00121809
0.00244486
-0.00343669
0.00233738
-0.00355356
0.00231616
-0.00153767
0.00240662
0.0015494
0.00250746
0.00345191
0.00255259
0.00335117
0.00255144
0.00218762
0.00254006
0.000888241
0.00253701
-0.00019142
0.00253049
-0.000861482
0.00250461
-0.00104688
0.00246152
-0.000864527
0.00241304
-0.000521839
0.0023667
-0.00019499
0.00232355
2.39797e-05
0.00228264
0.000125424
0.00224393
0.000145243
0.0022086
0.000125136
0.002178
9.31771e-05
0.00215291
6.29234e-05
0.00213338
3.90073e-05
0.00211883
2.1965e-05
0.00210842
1.08181e-05
0.00210123
4.17193e-06
0.00209643
6.56742e-07
0.00209333
-8.82206e-07
0.00209139
-1.31163e-06
0.00209021
-1.213e-06
0.00208952
-9.29939e-07
0.00208913
-6.36404e-07
0.00208892
-4.01046e-07
0.0020888
-2.36579e-07
0.00208874
-1.31809e-07
0.00208871
-7.01816e-08
0.0020887
-3.53161e-08
0.00208869
-1.79993e-08
-6.81687e-09
0.00361012
0.000477629
0.00348625
0.000266078
0.00379722
-0.000709583
0.00367943
0.000456205
0.00386802
-0.000996348
0.00405244
-0.00136397
0.00398733
-0.000960589
0.00425042
-0.00130644
0.00421503
-0.00169953
0.00449577
-0.000514984
0.00438855
-0.00204176
0.00437825
-0.00273947
0.0045742
-0.00210095
0.00457439
-0.00122856
0.00458048
-0.00161803
0.00434818
-0.00300419
0.00432123
-0.00158185
0.00462782
-0.00202851
0.00444652
-0.00607926
0.0037534
-0.00877136
0.00307801
-0.0086037
0.00261307
-0.00642615
0.00235825
-0.00351978
0.00222754
-0.00156446
0.00216843
-0.00115162
0.00206155
-0.00123787
0.00190446
-0.000356586
0.00159169
0.00102809
0.00103451
0.0046062
0.000773938
0.00126165
0.00136507
-0.00619658
0.00201143
-0.00331855
0.00219628
0.00103423
0.00227925
0.00521759
0.00251589
0.00900625
0.00264019
0.0109452
0.00265326
0.0111314
0.0027709
0.00840268
0.00289266
0.00513556
0.00303032
0.00272548
0.00319929
-0.00190022
0.0032222
-0.00637642
0.00304947
-0.0069688
0.00272895
-0.00592284
0.00242473
-0.00611021
0.00214745
-0.00601361
0.00191918
-0.00402696
0.00196319
-0.000305095
0.00208926
0.00327601
0.00216577
0.00631743
0.00239551
0.00690857
0.00257131
0.00537016
0.00271176
0.0031187
0.00289674
-0.00145988
0.00283367
-0.00561109
0.00254266
-0.00664474
0.00225621
-0.00504507
0.00209815
-0.00232635
0.00211923
0.000782453
0.00222085
0.00354718
0.00233362
0.00439467
0.00244008
0.00220251
0.00245279
-0.0012308
0.00236171
-0.00334562
0.00223762
-0.00342947
0.00220512
-0.00150517
0.00229919
0.00145533
0.00242167
0.00332944
0.00249398
0.00327886
0.00251434
0.00216726
0.00251673
0.000885848
0.00252061
-0.000195299
0.00251371
-0.000854578
0.0024816
-0.00101478
0.00243051
-0.000813436
0.0023759
-0.000467227
0.00232692
-0.000146008
0.0022845
6.63985e-05
0.00224675
0.000163171
0.00221266
0.000179335
0.00218256
0.000155239
0.00215716
0.000118579
0.00213677
8.33081e-05
0.00212114
5.4637e-05
0.00210961
3.34962e-05
0.00210138
1.90518e-05
0.00209567
9.88061e-06
0.00209182
4.50378e-06
0.0020893
1.63626e-06
0.0020877
2.88086e-07
0.00208672
-2.28297e-07
0.00208613
-3.43111e-07
0.00208579
-2.98013e-07
0.00208561
-2.12292e-07
0.0020855
-1.34694e-07
0.00208545
-7.86043e-08
0.00208542
-4.3227e-08
0.00208541
-2.22206e-08
0.0020854
-1.1495e-08
-4.41269e-09
0.00412372
0.000418385
0.00395437
0.000435434
0.00423664
-0.000991852
0.00416043
0.000532415
0.00426797
-0.0011039
0.00444565
-0.00154164
0.00436095
-0.00087589
0.00456916
-0.00151465
0.00452479
-0.00165516
0.00474747
-0.00073767
0.0046322
-0.00192648
0.00457609
-0.00268336
0.00470852
-0.00223339
0.00468953
-0.00120957
0.00467325
-0.00160175
0.00438122
-0.00271216
0.00432557
-0.00152621
0.0045601
-0.00226304
0.00421618
-0.00573534
0.00340135
-0.00795654
0.00267027
-0.00787262
0.00215346
-0.00590934
0.00182481
-0.00319112
0.00170189
-0.00144154
0.00173203
-0.00118175
0.00171462
-0.00122046
0.00159759
-0.000239562
0.00124438
0.0013813
0.000756793
0.0050938
0.000573441
0.001445
0.00113079
-0.00675393
0.00173787
-0.00392563
0.0018952
0.000876897
0.00205047
0.00506232
0.00234632
0.0087104
0.00254996
0.0107416
0.00265474
0.0110266
0.00283544
0.00822198
0.0029812
0.0049898
0.00314651
0.00256017
0.00332104
-0.00207474
0.0032991
-0.00635448
0.00306549
-0.00673518
0.00268725
-0.0055446
0.00232802
-0.00575098
0.00203135
-0.00571694
0.00179796
-0.00379358
0.00183104
-0.00033817
0.00195993
0.00314711
0.0020824
0.00619497
0.00236442
0.00662655
0.00255637
0.0051782
0.00272512
0.00294995
0.00291079
-0.00164554
0.00279653
-0.00549683
0.00245011
-0.00629832
0.0021402
-0.00473515
0.00198222
-0.00216837
0.00200381
0.000760858
0.00211587
0.00343512
0.0022588
0.00425174
0.00237993
0.00208137
0.00237688
-0.00122774
0.00226398
-0.00323272
0.00212459
-0.00329008
0.00208175
-0.00146233
0.00217861
0.00135848
0.0023212
0.00318685
0.00241963
0.00318042
0.00246121
0.00212568
0.00247819
0.000868874
0.00248997
-0.000207079
0.00248271
-0.000847319
0.00244404
-0.000976117
0.00238503
-0.000754417
0.00232485
-0.000407053
0.00227412
-9.52743e-05
0.00223352
0.000106993
0.00220023
0.000196468
0.00217217
0.000207389
0.00214876
0.000178651
0.00212992
0.000137423
0.00211538
9.7849e-05
0.00210455
6.54637e-05
0.0020967
4.13483e-05
0.00209111
2.46365e-05
0.00208721
1.37837e-05
0.00208453
7.17884e-06
0.00208274
3.42702e-06
0.00208158
1.45392e-06
0.00208084
5.07243e-07
0.00208039
1.05549e-07
0.00208013
-3.37761e-08
0.00207998
-6.21236e-08
0.0020799
-5.23138e-08
0.00207985
-3.49918e-08
0.00207983
-2.08713e-08
0.00207982
-1.12522e-08
0.00207981
-5.9987e-09
-2.36832e-09
0.00449747
0.000323317
0.00434369
0.000589209
0.00455093
-0.00119909
0.00452868
0.000554657
0.00457851
-0.00115372
0.00472584
-0.00168897
0.0046411
-0.000791155
0.00477609
-0.00164963
0.00473374
-0.00161281
0.00488653
-0.000890465
0.00477903
-0.00181898
0.00469264
-0.00259697
0.00474421
-0.00228496
0.00472627
-0.00119162
0.00468336
-0.00155884
0.00434631
-0.00237512
0.00428539
-0.00146529
0.00441441
-0.00239205
0.00390784
-0.00522876
0.0030028
-0.0070515
0.00222554
-0.00709536
0.00165504
-0.00533884
0.0012928
-0.00282888
0.00122856
-0.0013773
0.00134246
-0.00129566
0.00138167
-0.00125967
0.00127304
-0.000130931
0.000881068
0.00177327
0.00047863
0.00549623
0.000397135
0.0015265
0.000923107
-0.0072799
0.00145356
-0.00445609
0.00156743
0.000763027
0.00180266
0.00482708
0.00216029
0.00835277
0.00243806
0.0104638
0.00263676
0.0108279
0.00288217
0.00797657
0.00305357
0.0048184
0.00324737
0.00236638
0.00342399
-0.00225136
0.00335501
-0.0062855
0.00305935
-0.00643952
0.00262576
-0.005111
0.00221445
-0.00533968
0.00190183
-0.00540432
0.00166854
-0.00356028
0.00169053
-0.000360165
0.00181898
0.00301866
0.00198946
0.0060245
0.00232063
0.00629537
0.00252892
0.00496992
0.0027301
0.00274877
0.00290905
-0.0018245
0.00273821
-0.00532599
0.0023395
-0.00589962
0.00201043
-0.00440607
0.0018546
-0.00201255
0.0018764
0.000739057
0.00199997
0.00331156
0.00217341
0.0040783
0.00230671
0.00194807
0.00228695
-0.00120798
0.00215288
-0.00309866
0.00199931
-0.00313651
0.00194692
-0.00140995
0.00204594
0.00125946
0.00220731
0.00302548
0.0023306
0.00305713
0.00239293
0.00206335
0.00242548
0.000836322
0.00244587
-0.000227468
0.00243772
-0.000839171
0.00239188
-0.000930271
0.00232512
-0.000687662
0.00226027
-0.000342203
0.00220898
-4.39819e-05
0.00217153
0.000144437
0.0021441
0.000223898
0.00212352
0.000227971
0.00210812
0.000194055
0.00209691
0.000148629
0.002089
0.000105757
0.0020835
7.09631e-05
0.00207966
4.51966e-05
0.00207691
2.73775e-05
0.00207493
1.57636e-05
0.00207351
8.60823e-06
0.00207249
4.44166e-06
0.00207179
2.1531e-06
0.00207133
9.7135e-07
0.00207103
4.01192e-07
0.00207085
1.46727e-07
0.00207075
4.35182e-08
0.00207069
7.03163e-09
0.00207065
-2.98083e-09
0.00207064
-4.21561e-09
0.00207063
-2.98301e-09
0.00207062
-1.81359e-09
-8.01295e-10
0.00475435
0.000233814
0.00465493
0.000688634
0.00476725
-0.00131141
0.00479426
0.000527654
0.0048017
-0.00116116
0.00490163
-0.0017889
0.00482812
-0.000717645
0.00488459
-0.0017061
0.0048464
-0.00157462
0.00492843
-0.000972488
0.00483631
-0.00172686
0.0047292
-0.00248986
0.00470095
-0.00225671
0.00469599
-0.00118666
0.00461741
-0.00148026
0.00425759
-0.0020153
0.0041988
-0.0014065
0.0041882
-0.00238146
0.00353188
-0.00457244
0.00257159
-0.00609121
0.00176301
-0.00628678
0.00115749
-0.00473331
0.000816965
-0.00248836
0.000829109
-0.00138944
0.000984487
-0.00145104
0.00104355
-0.00131872
0.000924853
-1.22382e-05
0.000513246
0.00218487
0.0002197
0.00578978
0.000226228
0.00151997
0.000680118
-0.00773379
0.00113016
-0.00490613
0.00122814
0.000665039
0.00153776
0.00451747
0.00195341
0.00793712
0.00230862
0.0101086
0.00260415
0.0105324
0.00291322
0.00766749
0.00311156
0.00462006
0.00333401
0.00214393
0.00350741
-0.00242477
0.00338869
-0.00616678
0.00303014
-0.00608097
0.00254432
-0.00462519
0.00208453
-0.00487989
0.00175879
-0.00507858
0.00153084
-0.00333232
0.00154202
-0.000371345
0.00166687
0.00289381
0.00188813
0.00580324
0.00226432
0.00591918
0.00249003
0.00474421
0.00272753
0.00251127
0.00289034
-0.00198731
0.00265832
-0.00509396
0.0022118
-0.0054531
0.00186763
-0.0040619
0.00171499
-0.0018599
0.00173707
0.000716972
0.00187434
0.00317429
0.00207855
0.00387409
0.00222139
0.00180523
0.00218434
-0.00117093
0.00202975
-0.00294406
0.00186285
-0.00296961
0.00180153
-0.00134863
0.00190233
0.00115866
0.00208134
0.00284647
0.00222796
0.00291051
0.00231064
0.00198067
0.00235995
0.000787011
0.00238917
-0.000256687
0.0023788
-0.0008288
0.0023249
-0.000876375
0.00225089
-0.000613652
0.00218271
-0.000274025
0.00213247
6.25901e-06
0.00209979
0.000177119
0.00207976
0.000243928
0.002068
0.000239734
0.00206163
0.000200421
0.0020587
0.000151565
0.0020577
0.000106754
0.00205756
7.1105e-05
0.00205762
4.51368e-05
0.00205759
2.74067e-05
0.00205741
1.59387e-05
0.00205714
8.87893e-06
0.00205685
4.73595e-06
0.00205658
2.41758e-06
0.00205637
1.18046e-06
0.00205622
5.51323e-07
0.00205612
2.46419e-07
0.00205606
1.05479e-07
0.00205603
4.33893e-08
0.00205601
1.72562e-08
0.00205599
6.55961e-09
0.00205599
2.45898e-09
0.00205599
9.7668e-10
2.51893e-10
0.00490412
0.000168627
0.00487542
0.000717338
0.00489379
-0.00132978
0.00496051
0.000460933
0.00493636
-0.00113701
0.00498027
-0.00183282
0.00492315
-0.000660524
0.00490933
-0.00169228
0.00486952
-0.00153481
0.00489159
-0.000994553
0.00481511
-0.00165039
0.0046869
-0.00236165
0.00459574
-0.00216556
0.00460279
-0.00119371
0.00447841
-0.00135588
0.0041218
-0.00165869
0.00405206
-0.00133676
0.00387922
-0.00220861
0.00310225
-0.00379547
0.00212612
-0.00511508
0.00131065
-0.00547132
0.000707771
-0.00413043
0.000433086
-0.00221367
0.000494844
-0.0014512
0.000635908
-0.0015921
0.000690472
-0.00137329
0.00055969
0.000118544
0.000158994
0.00258557
1.1072e-05
0.0059377
4.95314e-05
0.00148151
0.000348956
-0.00803322
0.000746141
-0.00530331
0.000881674
0.000529506
0.0012629
0.00413624