/*--------------------------------*- C++ -*----------------------------------*\
| =========                 |                                                 |
| \\      /  F ield         | OpenFOAM: The Open Source CFD Toolbox           |
|  \\    /   O peration     | Version:  2.4.0                                 |
|   \\  /    A nd           | Web:      www.OpenFOAM.org                      |
|    \\/     M anipulation  |                                                 |
\*---------------------------------------------------------------------------*/
FoamFile
{
    version     2.0;
    format      ascii;
    class       surfaceScalarField;
    location    "88";
    object      phi;
}
// * * * * * * * * * * * * * * * * * * * * * * * * * * * * * * * * * * * * * //

dimensions      [0 3 -1 0 0 0 0];

internalField   nonuniform List<scalar> 
8640
(
0.000483665
3.83503e-06
0.000576227
-9.25617e-05
0.000486286
8.99405e-05
0.000408243
7.80434e-05
0.000478958
-7.07146e-05
0.000528865
-4.99072e-05
0.000513636
1.52284e-05
0.000507263
6.37333e-06
0.00048743
1.98325e-05
0.000429027
5.84033e-05
0.000525333
-9.63057e-05
0.000526417
-1.08472e-06
0.000448831
7.75868e-05
0.000542822
-9.39917e-05
0.000464216
7.86062e-05
0.000494066
-2.98499e-05
0.000554111
-6.0045e-05
0.00051433
3.97812e-05
0.000333984
0.000180346
-0.000252617
0.000586601
0.00139007
1.26962e-06
0.00148235
-0.000184848
0.00134775
0.000224547
0.00130384
0.000121951
0.00138292
-0.0001498
0.00143367
-0.000100654
0.00140196
4.69354e-05
0.00139694
1.13911e-05
0.00136631
5.0465e-05
0.00132752
9.71986e-05
0.0014418
-0.000210593
0.00142019
2.05318e-05
0.00135425
0.000143527
0.00145433
-0.000194076
0.00135004
0.000182892
0.00142267
-0.000102473
0.00144563
-8.30096e-05
0.0014038
8.16149e-05
0.00150005
8.40986e-05
-0.000172078
0.00141951
0.00219185
-3.08192e-06
0.0022605
-0.000253498
0.00214397
0.000341074
0.00212635
0.000139573
0.00219213
-0.000215582
0.00223763
-0.000146152
0.00221087
7.37011e-05
0.00220373
1.85298e-05
0.00216809
8.60992e-05
0.00214783
0.000117461
0.00224894
-0.000311702
0.00221978
4.96917e-05
0.00220112
0.000162188
0.0022563
-0.000249254
0.00219744
0.000241747
0.00224954
-0.000154567
0.00229065
-0.000124119
0.00222523
0.000147036
0.00237913
-6.98071e-05
-9.18852e-05
0.00229894
0.00291849
-3.4076e-05
0.00293447
-0.000269472
0.00283234
0.000443199
0.00284279
0.000129128
0.00290051
-0.000273304
0.00294004
-0.000185682
0.00293538
7.83653e-05
0.00293726
1.66456e-05
0.00287046
0.000152901
0.00286829
0.000119632
0.0029603
-0.000403717
0.00288522
0.000124776
0.00296413
8.32807e-05
0.00295522
-0.000240345
0.00292642
0.000270541
0.00300675
-0.00023489
0.00298902
-0.00010639
0.00296985
0.000166205
0.00311139
-0.000211344
1.66363e-05
0.00300286
0.00356241
-0.000108991
0.0035502
-0.000257256
0.00341197
0.00058143
0.003433
0.000108097
0.00347752
-0.000317826
0.00351537
-0.000223531
0.00352594
6.77899e-05
0.00357745
-3.48568e-05
0.0034819
0.000248448
0.00347147
0.00013006
0.00359562
-0.000527867
0.00342311
0.000297288
0.00356651
-6.01211e-05
0.00355142
-0.000225258
0.00347641
0.00034555
0.00363013
-0.000388609
0.00356576
-4.20161e-05
0.00355822
0.00017374
0.00370983
-0.000362949
0.000131545
0.00359492
0.00407659
-0.000198077
0.00408418
-0.000264849
0.00391342
0.000752185
0.00393072
9.07991e-05
0.00394946
-0.000336562
0.00397872
-0.000252794
0.00397461
7.19062e-05
0.00407001
-0.000130265
0.00399042
0.000328037
0.00395386
0.00016662
0.00412811
-0.000702108
0.00389472
0.00053067
0.00402561
-0.000191004
0.00403818
-0.000237833
0.00390555
0.000478185
0.00409236
-0.000575422
0.00401587
3.44757e-05
0.00401604
0.000173566
0.00415188
-0.000498788
0.000214185
0.00406924
0.00446412
-0.000274701
0.00449686
-0.000297584
0.00432565
0.000923392
0.0043443
7.21554e-05
0.0043442
-0.000336465
0.00436362
-0.000272213
0.00433481
0.000100714
0.00443471
-0.000230161
0.00438294
0.000379805
0.00432742
0.000222135
0.00452233
-0.00089702
0.00429269
0.000760314
0.00439342
-0.000291731
0.00442706
-0.000271477
0.0042671
0.000638149
0.00444663
-0.00075496
0.00436121
0.000119903
0.00437192
0.000162857
0.00446764
-0.000594514
0.000261675
0.00442015
0.00474459
-0.00033179
0.00478396
-0.000336952
0.0046386
0.00106875
0.00465579
5.49645e-05
0.00464853
-0.000329199
0.0046647
-0.000288386
0.00462368
0.000141736
0.00470466
-0.000311137
0.00467073
0.000413734
0.0046129
0.00027996
0.00478544
-0.00106956
0.00459654
0.000949208
0.00466967
-0.000364855
0.00471024
-0.000312044
0.00455949
0.000788898
0.00471066
-0.000906134
0.00462193
0.000208631
0.00464348
0.000141312
0.00469025
-0.00064129
0.000284818
0.00466711
0.00492583
-0.000370118
0.00495189
-0.000363013
0.00485203
0.00116861
0.00485975
4.7247e-05
0.00485217
-0.000321617
0.00486817
-0.000304391
0.00483093
0.000178974
0.00488544
-0.000365644
0.004861
0.000438177
0.00481916
0.000321797
0.0049341
-0.0011845
0.00480632
0.00107699
0.00485046
-0.000408991
0.00488143
-0.000343019
0.00476933
0.000900999
0.00487432
-0.00101112
0.00479639
0.000286561
0.00482872
0.000108982
0.00482988
-0.00064245
0.000288772
0.00482593
0.00500808
-0.000390693
0.00500878
-0.000363718
0.00496702
0.00121036
0.00495813
5.61427e-05
0.00495691
-0.000320397
0.00497021
-0.000317693
0.00494802
0.000201164
0.0049728
-0.000390421
0.00495511
0.00045586
0.00494291
0.000334002
0.00497691
-0.0012185
0.00492539
0.00112851
0.00493682
-0.000420424
0.00494551
-0.000351704
0.00489293
0.000953573
0.0049353
-0.00105349
0.00488293
0.000338927
0.00492128
7.06325e-05
0.00488602
-0.000607184
0.000273159
0.00490163
0.00498873
-0.000391924
0.00496215
-0.000337137
0.00498311
0.0011894
0.00495991
7.93474e-05
0.00496593
-0.000326417
0.00497241
-0.000324176
0.0049705
0.000203074
0.00496328
-0.000383201
0.00495437
0.000464771
0.00497548
0.000312894
0.0049198
-0.00116283
0.00495238
0.00109593
0.0049284
-0.000396448
0.00490994
-0.000333243
0.00493062
0.000932891
0.00489849
-0.00102136
0.0048853
0.000352121
0.00491974
3.61969e-05
0.00486045
-0.000547894
0.000239246
0.00489436
0.00486591
-0.000370333
0.00481647
-0.000287699
0.00489882
0.00110706
0.00487027
0.000107891
0.00488159
-0.00033774
0.00487636
-0.000318941
0.004896
0.00018343
0.00485395
-0.000341152
0.00485969
0.000459034
0.00490529
0.000267295
0.00477229
-0.00102983
0.00488079
0.000987442
0.00482692
-0.00034258
0.00478425
-0.000290571
0.00487935
0.000837789
0.00477323
-0.000915243
0.00480669
0.000318659
0.00482657
1.63231e-05
0.00475458
-0.000475909
0.000191875
0.00480195
0.00463939
-0.00032222
0.00458013
-0.00022844
0.0047154
0.000971782
0.00469057
0.000132721
0.0047031
-0.000350262
0.00468382
-0.000299668
0.00472097
0.000146283
0.00464197
-0.000262152
0.00466998
0.000431023
0.00472326
0.000214012
0.00453957
-0.00084614
0.00471176
0.000815255
0.00463216
-0.000262978
0.00458221
-0.000240619
0.00473133
0.000688666
0.00457078
-0.000754692
0.00464197
0.000247464
0.00464432
1.39757e-05
0.00456376
-0.000395348
0.000133135
0.0046225
0.00431237
-0.000247087
0.00426414
-0.000180217
0.00443838
0.00079754
0.00442308
0.000148031
0.00442454
-0.000351724
0.00439464
-0.000269769
0.00443582
0.000105096
0.00432569
-0.000152019
0.00438359
0.00037313
0.00442622
0.000171373
0.00423362
-0.000653531
0.00445164
0.000597229
0.0043488
-0.000160138
0.00431386
-0.000205676
0.00448119
0.00052133
0.00428975
-0.000563248
0.00438627
0.000150948
0.00436728
3.29624e-05
0.00428762
-0.000315686
6.75137e-05
0.00435324
0.003895
-0.000154584
0.00388248
-0.000167704
0.00407143
0.000608599
0.00406008
0.000159374
0.00403839
-0.000330027
0.00400217
-0.000233553
0.0040269
8.0367e-05
0.003913
-3.81227e-05
0.00400591
0.000280225
0.00402643
0.000150852
0.00387394
-0.000501047
0.00410073
0.000370448
0.00397965
-3.90666e-05
0.00397238
-0.000198399
0.00411343
0.000380282
0.00392293
-0.000372753
0.00402973
4.41449e-05
0.00399186
7.08406e-05
0.00392982
-0.000253654
7.39365e-06
0.00398994
0.00340508
-7.21614e-05
0.00343172
-0.000194349
0.00359484
0.000445483
0.00358088
0.000173327
0.00353605
-0.000285197
0.00349305
-0.00019055
0.00349894
7.44813e-05
0.00343131
2.95002e-05
0.00354173
0.000169807
0.00354375
0.000148834
0.00344841
-0.000405705
0.00362217
0.000196689
0.00350815
7.49468e-05
0.00351925
-0.000209494
0.00361061
0.000288918
0.00346238
-0.000224515
0.00355721
-5.06899e-05
0.00351686
0.000111188
0.00347696
-0.000213747
-2.73199e-05
0.00351167
0.00284426
-2.89208e-05
0.0028578
-0.000207889
0.00297224
0.000331038
0.00297674
0.000168829
0.00291812
-0.000226576
0.00287278
-0.000145213
0.00288624
6.10296e-05
0.00287628
3.94542e-05
0.00295972
8.63649e-05
0.00296401
0.000144546
0.00288645
-0.000328148
0.00297864
0.000104498
0.00292132
0.000132271
0.00292179
-0.000209966
0.00298537
0.000225339
0.00289562
-0.000134762
0.00294582
-0.000100887
0.00292544
0.00013156
0.00288901
-0.000177316
-3.05753e-05
0.00289227
0.00217089
-1.2308e-05
0.00212628
-0.000163284
0.00223765
0.000219671
0.00227455
0.000131925
0.0022004
-0.000152419
0.00215665
-0.000101463
0.00218016
3.7512e-05
0.00219252
2.70953e-05
0.00223804
4.08438e-05
0.00226512
0.000117474
0.00216624
-0.000229266
0.00221871
5.20269e-05
0.0022298
0.000121175
0.00218787
-0.000168031
0.00225784
0.000155369
0.00219794
-7.48602e-05
0.00219515
-9.81049e-05
0.00221174
0.000114969
0.00216031
-0.000125877
-1.9254e-05
0.00214898
0.00137478
4.13111e-07
0.0012946
-8.31054e-05
0.00142309
9.11831e-05
0.00147529
7.97188e-05
0.00139085
-6.79711e-05
0.00134287
-5.34892e-05
0.00136759
1.2796e-05
0.00138419
1.04976e-05
0.00141083
1.41985e-05
0.0014622
6.61095e-05
0.00133937
-0.000106436
0.00138148
9.91201e-06
0.00143131
7.135e-05
0.0013495
-8.62257e-05
0.0014358
6.90725e-05
0.00138294
-2.20041e-05
0.00134592
-6.10819e-05
0.00139731
6.35718e-05
0.00132719
-5.57485e-05
-9.20366e-06
0.00131714
0.000487913
0.000404808
0.000495991
0.00057571
0.000507738
0.000454249
0.000467045
0.000477543
0.000491741
0.000557851
0.000451415
0.000461327
0.000532677
0.000446451
0.000515524
0.00049352
0.000432438
0.000496009
0.000440261
0.000431057
0.00107908
-0.000187218
-0.000305258
0.000877239
-0.000217731
0.000419569
0.00105065
-0.000122191
-5.12229e-05
0.00118365
0.000127531
-0.000260532
0.00133133
-0.000188144
4.04726e-05
0.0014594
-0.000132083
4.0056e-06
0.00149476
0.000294689
-0.000330046
0.00183337
-0.000793925
0.000455316
0.00192723
-0.000173035
7.91752e-05
0.00210875
-0.00104112
0.000859597
0.00225954
-0.00148262
0.00133183
0.0021915
-0.000776737
0.000844778
0.00223216
-0.00107776
0.0010371
0.00230142
-0.000895482
0.000826226
0.00244452
0.00154542
-0.00168853
0.00295478
6.94879e-05
-0.000579752
0.00368722
-0.00364833
0.0029159
0.00402081
-0.00361323
0.00327964
0.00424284
-0.00338989
0.00316786
0.00449705
-0.00535459
0.00510038
0.00438679
-0.00688416
0.00699443
0.00400816
-0.00735415
0.00773278
0.00347367
-0.00591334
0.00644782
0.00310314
-0.0060848
0.00645534
0.00297786
-0.00722503
0.00735031
0.00276954
-0.00418807
0.0043964
0.00275569
0.00252947
-0.00251563
0.00288147
0.0101637
-0.0102895
0.00292641
0.0131945
-0.0132394
0.00307425
0.00547424
-0.00562208
0.00288461
-0.00233172
0.00252136
0.00237759
-0.00431986
0.00482689
0.00199713
-0.00819398
0.00857443
0.00201877
-0.0109392
0.0109176
0.00233185
-0.00617461
0.00586154
0.00250497
-0.00167304
0.00149993
0.00274426
0.00272615
-0.00296544
0.00310186
0.0083327
-0.00869031
0.00332145
0.00993331
-0.0101529
0.00344781
0.00715144
-0.0072778
0.00351361
0.00362833
-0.00369414
0.00348645
8.50133e-05
-5.78471e-05
0.00342208
-0.00228121
0.00234558
0.00321204
-0.000286975
0.000497014
0.00288961
0.00186512
-0.00154269
0.00256791
0.00317339
-0.00285169
0.00242174
0.005616
-0.00546983
0.00253432
0.00358143
-0.00369401
0.00255783
0.000495341
-0.000518853
0.00259533
-0.000912646
0.000875149
0.00283689
-0.00477274
0.00453117
0.00292124
-0.0077444
0.00766005
0.00271206
-0.00793872
0.0081479
0.00250563
-0.00660491
0.00681134
0.00239187
-0.00459783
0.00471159
0.00231787
-0.00282046
0.00289446
0.00238025
-0.000126568
6.41829e-05
0.00256629
0.00310015
-0.00328619
0.00270506
0.00523308
-0.00537185
0.00272357
0.0061304
-0.00614891
0.00269557
0.00571613
-0.00568813
0.00264413
0.00442994
-0.00437851
0.0026181
0.00247231
-0.00244628
0.00263782
-0.000876782
0.000857068
0.00260958
-0.00432021
0.00434845
0.00254173
-0.00574726
0.00581511
0.00246633
-0.00498819
0.0050636
0.00241916
-0.00316605
0.00321322
0.00247151
-0.000100474
4.81201e-05
0.00255061
0.00324227
-0.00332136
0.00257113
0.00468135
-0.00470187
0.00256165
0.00344279
-0.00343331
0.00256473
0.000633564
-0.000636649
0.00255601
-0.00185301
0.00186173
0.00253273
-0.00253056
0.00255383
0.00255111
-0.00109966
0.00108128
0.00259323
0.00110806
-0.00115018
0.00259343
0.00246085
-0.00246106
0.0025666
0.0024301
-0.00240326
0.00256753
0.00125764
-0.00125857
0.00259542
-0.000276347
0.000248465
0.00261524
-0.00123123
0.00121141
0.00261035
-0.0013112
0.00131609
0.00258618
-0.000875087
0.000899258
0.00255289
-0.000381489
0.000414785
0.00251751
-5.87532e-05
9.41352e-05
0.00248392
7.58704e-05
-4.22829e-05
0.00245367
9.1608e-05
-6.13592e-05
0.00242639
5.84018e-05
-3.112e-05
0.00240053
1.93258e-05
6.5281e-06
0.00237423
-7.88353e-06
3.41856e-05
0.00234633
-2.00778e-05
4.79756e-05
0.00231658
-2.29379e-05
5.26922e-05
0.0022862
-2.05849e-05
5.0963e-05
0.00225644
-1.95429e-05
4.93024e-05
0.00222974
-1.73632e-05
4.40692e-05
0.00220622
-1.92212e-05
4.27387e-05
0.0021883
-1.69891e-05
3.49056e-05
0.00217315
-1.89786e-05
3.41293e-05
-1.48812e-05
2.37591e-05
0.00169589
-0.000463597
0.00163196
-0.000153803
0.00168398
-0.00017421
0.00181126
2.43789e-07
0.00190384
-0.000280723
0.00213861
-0.000366847
0.00212394
0.00030936
0.0024329
-0.00110289
0.00257338
-0.000313513
0.0026107
-0.00107845
0.00290886
-0.00178077
0.00277945
-0.00064733
0.00274548
-0.00104379
0.00290525
-0.00105525
0.00298028
0.00147039
0.00339243
-0.000342657
0.00408325
-0.00433915
0.00441981
-0.00394979
0.00455225
-0.00352233
0.0046455
-0.00544785
0.00442672
-0.00666538
0.00394039
-0.00686783
0.0033138
-0.00528674
0.00289939
-0.00567039
0.00279341
-0.00711905
0.00261743
-0.00401209
0.00263245
0.00251445
0.00280369
0.00999251
0.00293846
0.0130597
0.00311031
0.00530239
0.00286845
-0.00208986
0.00229068
-0.00374209
0.00187231
-0.00777561
0.00185005
-0.010917
0.00211737
-0.00644193
0.00229481
-0.00185048
0.00252955
0.00249141
0.00292679
0.00793547
0.00322518
0.00963492
0.00342922
0.0069474
0.00353799
0.00351956
0.00352238
0.000100625
0.00345603
-0.00221486
0.0032534
-8.43491e-05
0.00297411
0.00214442
0.00267668
0.00347082
0.00253385
0.00575882
0.00264064
0.00347465
0.00265001
0.00048597
0.0027132
-0.000975843
0.00294173
-0.00500126
0.00295316
-0.00775583
0.00266581
-0.00765138
0.00240725
-0.00634635
0.00227124
-0.00446182
0.00218414
-0.00273336
0.00223828
-0.000180702
0.00243356
0.00290486
0.002605
0.00506165
0.0026752
0.00606019
0.0026959
0.00569543
0.00267123
0.00445461
0.00265911
0.00248444
0.00267912
-0.000896794
0.00262391
-0.004265
0.00251413
-0.00563749
0.00240944
-0.0048835
0.00234082
-0.00309743
0.00238231
-0.000141964
0.00247781
0.00314677
0.002529
0.00463015
0.00254532
0.00342647
0.00255884
0.000620053
0.00254467
-0.00183885
0.00250884
-0.00249473
0.0025176
-0.00110842
0.00256377
0.0010619
0.00258204
0.00244258
0.00257721
0.00243493
0.00259182
0.00124303
0.00261956
-0.000304083
0.00263076
-0.00124244
0.00261608
-0.00129652
0.00258485
-0.000843855
0.00254799
-0.000344638
0.00251172
-2.24806e-05
0.00247865
0.000108943
0.00244928
0.000120977
0.00242271
8.49765e-05
0.00239724
4.47888e-05
0.0023711
1.82564e-05
0.00234333
7.69856e-06
0.00231379
6.59904e-06
0.0022838
9.40228e-06
0.00225454
9.71977e-06
0.00222838
8.79891e-06
0.00220531
3.84662e-06
0.00218772
6.0486e-07
0.00217274
-3.99911e-06
-5.99716e-06
0.00244605
-0.00061071
0.00245665
-0.000164397
0.00247575
-0.000193318
0.00259192
-0.000115919
0.0025872
-0.000276003
0.00286636
-0.000646007
0.00279223
0.000383489
0.00299551
-0.00130617
0.00325232
-0.000570327
0.00312834
-0.00095446
0.00344407
-0.0020965
0.00333955
-0.000542813
0.00320989
-0.00091413
0.00345653
-0.00130189
0.00355983
0.00136708
0.00385136
-0.000634187
0.00441211
-0.00489989
0.00470561
-0.0042433
0.00474948
-0.00356619
0.00470696
-0.00540533
0.00439913
-0.00635755
0.00382145
-0.00629015
0.0031171
-0.00458239
0.00266757
-0.00522087
0.00258447
-0.00703595
0.00245437
-0.00388199
0.00250447
0.00246435
0.0027021
0.00979488
0.00293386
0.012828
0.00312724
0.00510901
0.00283185
-0.00179447
0.00219352
-0.00310376
0.00174276
-0.00732485
0.00168072
-0.0108549
0.00189215
-0.00665336
0.00206212
-0.00202045
0.00229831
0.00225522
0.00272601
0.00750778
0.00309147
0.00926946
0.00336752
0.00667135
0.00352311
0.00336397
0.00352885
9.48793e-05
0.0034612
-0.00214721
0.00326885
0.000108002
0.0030346
0.00237866
0.00276393
0.0037415
0.00263427
0.00588848
0.00273573
0.00337318
0.00273174
0.000489963
0.00282367
-0.00106777
0.00303084
-0.00520843
0.00296126
-0.00768625
0.00259704
-0.00728715
0.00229247
-0.00604178
0.0021385
-0.00430785
0.00204053
-0.00263539
0.00208691
-0.00022708
0.00228915
0.00270262
0.00248921
0.00486159
0.00260841
0.00594099
0.00267711
0.00562673
0.00268026
0.00445146
0.00268391
0.00248079
0.00270432
-0.000917205
0.00262197
-0.00418265
0.00247081
-0.00548632
0.00233778
-0.00475048
0.00225006
-0.00300971
0.00228145
-0.000173355
0.00239095
0.00303728
0.00247084
0.00455026
0.00251332
0.00338398
0.00253809
0.000595281
0.00251828
-0.00181903
0.00247013
-0.00244658
0.00246965
-0.00110794
0.00251879
0.00101276
0.00255385
0.00240752
0.00257069
0.00241809
0.00259869
0.00121503
0.00262596
-0.000331352
0.00262876
-0.00124525
0.002605
-0.00127275
0.00256748
-0.000806339
0.00252779
-0.000304945
0.00249128
1.40241e-05
0.00245936
0.00014087
0.00243145
0.000148882
0.00240609
0.00011034
0.00238145
6.94242e-05
0.00235592
4.37863e-05
0.00232883
3.47943e-05
0.00230028
3.5147e-05
0.00227167
3.8006e-05
0.00224412
3.72712e-05
0.00221978
3.31427e-05
0.00219849
2.51396e-05
0.00218233
1.67621e-05
0.00216859
9.74198e-06
2.20578e-06
0.00310089
-0.000708734
0.00314562
-0.000209132
0.0031495
-0.000197197
0.00329176
-0.000258179
0.00321601
-0.000200253
0.00349149
-0.000921488
0.00343938
0.000435604
0.00351019
-0.00137698
0.00382314
-0.000883281
0.00360412
-0.000735437
0.0038626
-0.00235498
0.00381818
-0.000498397
0.00360315
-0.000699104
0.00388813
-0.00158687
0.00406427
0.00119095
0.00424784
-0.000817764
0.00464417
-0.00529622
0.0048722
-0.00447133
0.00485027
-0.00354427
0.00470087
-0.00525592
0.00431468
-0.00597136
0.00365762
-0.00563309
0.00288535
-0.00381012
0.00240968
-0.0047452
0.00235675
-0.00698302
0.00228859
-0.00381383
0.00237156
0.00238139
0.00258301
0.00958342
0.00291184
0.0124991
0.00312496
0.00489589
0.00277583
-0.00144534
0.00208957
-0.0024175
0.00160981
-0.00684509
0.00150437
-0.0107495
0.00166116
-0.00681015
0.00181648
-0.00217577
0.00205501
0.00201669
0.00250307
0.00705972
0.00292327
0.00884926
0.00326329
0.00633133
0.00346807
0.00315919
0.00350655
5.63955e-05
0.00343627
-0.00207693
0.00325723
0.000287041
0.00306992
0.00256597
0.0028279
0.00398353
0.00272153
0.00599485
0.00281876
0.00327595
0.00280356
0.000505159
0.00292588
-0.00119009
0.00310167
-0.00538421
0.0029442
-0.00752879
0.00250628
-0.00684923
0.0021628
-0.0056983
0.00199534
-0.00414039
0.00188854
-0.00252859
0.00192748
-0.000266029
0.00213445
0.00249566
0.00235914
0.00463689
0.00252443
0.00577571
0.0026397
0.00551146
0.00267146
0.00441971
0.00269292
0.00245932
0.00271359
-0.000937873
0.00260386
-0.00407292
0.00241222
-0.00529468
0.00225209
-0.00459035
0.00214784
-0.00290546
0.00217007
-0.000195578
0.00229128
0.00291607
0.00239773
0.00444381
0.00246642
0.00331529
0.00250292
0.000558778
0.00247722
-0.00179332
0.00241679
-0.00238616
0.00240741
-0.00109856
0.00245866
0.00096151
0.00250934
0.00235684
0.00254735
0.00238008
0.00258821
0.00117416
0.00261473
-0.000357865
0.00260963
-0.00124015
0.00257764
-0.00124076
0.00253466
-0.00076336
0.00249281
-0.000263101
0.00245669
5.01514e-05
0.00242643
0.000171124
0.00240045
0.000174865
0.00237668
0.000134105
0.00235324
9.28687e-05
0.00232876
6.82707e-05
0.00230294
6.06129e-05
0.00227621
6.18751e-05
0.00225003
6.41895e-05
0.0022254
6.1899e-05
0.0022041
5.44419e-05
0.00218581
4.34326e-05
0.00217209
3.0475e-05
0.00216053
2.13046e-05
9.12691e-06
0.00363507
-0.000748884
0.00369158
-0.000265642
0.00368932
-0.000194937
0.00382346
-0.000392316
0.00372689
-0.000103685
0.0039538
-0.0011484
0.00396157
0.000427833
0.00394119
-0.0013566
0.00424197
-0.00118406
0.00400306
-0.000496536
0.00417471
-0.00252663
0.00418837
-0.000512055
0.0039345
-0.000445228
0.00419588
-0.00184825
0.00443418
0.000952651
0.00454358
-0.000927166
0.00477172
-0.00552435
0.00492958
-0.0046292
0.00486848
-0.00348316
0.00463355
-0.00502099
0.00417574
-0.00551355
0.00344749
-0.00490483
0.00262034
-0.00298297
0.00213099
-0.00425585
0.00211666
-0.00696868
0.00212747
-0.00382465
0.00223205
0.0022768
0.00245183
0.00936364
0.00287229
0.0120787
0.00310197
0.00466621
0.00270118
-0.00104454
0.00198259
-0.00169891
0.00147274
-0.00633523
0.00131364
-0.0105904
0.00142682
-0.00692333
0.00157098
-0.00231993
0.001806
0.00178167
0.00226208
0.00660364
0.00272468
0.00838667
0.00311786
0.00593814
0.00337424
0.00290282
0.00345418
-2.35509e-05
0.00337898
-0.00200172
0.00321617
0.000449847
0.00307783
0.00270431
0.00286649
0.00419487
0.00279372
0.00606762
0.00288779
0.00318188
0.00286545
0.000527502
0.00301839
-0.00134303
0.00315138
-0.0055172
0.0029006
-0.00727801
0.00239414
-0.00634278
0.00201967
-0.00532382
0.0018433
-0.00396402
0.00172985
-0.00241514
0.00176154
-0.000297727
0.0019709
0.0022863
0.00221626
0.00439154
0.00242457
0.00556739
0.00258445
0.00535158
0.00264528
0.00435888
0.00268668
0.00241792
0.00270725
-0.000958439
0.00256981
-0.00393548
0.00233899
-0.00506387
0.00215325
-0.00440461
0.00203514
-0.00278736
0.00204938
-0.000209815
0.00218012
0.00278533
0.00231091
0.00431303
0.00240586
0.00322034
0.0024542
0.000510432
0.00242192
-0.00176104
0.00234912
-0.00231335
0.00233114
-0.00108058
0.00238375
0.000908903
0.00244911
0.00229148
0.00250771
0.00232148
0.00256065
0.00112123
0.00258629
-0.000383504
0.00257402
-0.00122788
0.0025347
-0.00120144
0.00248701
-0.000715673
0.00244365
-0.000219735
0.00240842
8.5379e-05
0.00238026
0.000199282
0.00235654
0.000198587
0.00233466
0.000155978
0.00231275
0.000114788
0.00228979
9.12252e-05
0.00226595
8.44509e-05
0.00224199
8.5842e-05
0.00221933
8.68494e-05
0.00219881
8.24113e-05
0.00218169
7.15683e-05
0.00216744
5.76788e-05
0.00215699
4.09235e-05
0.00214833
2.99638e-05
1.43161e-05
0.00406758
-0.000747221
0.00411214
-0.0003102
0.0041244
-0.000207199
0.00422097
-0.000488887
0.00414002
-2.27319e-05
0.00428072
-0.00128911
0.00434175
0.000366806
0.00428191
-0.00129676
0.00451697
-0.00141912
0.00431668
-0.00029624
0.00439534
-0.00260529
0.00444026
-0.000556976
0.00420018
-0.000205151
0.004392
-0.00204007
0.00466323
0.000681418
0.00473896
-0.00100289
0.00481215
-0.00559754
0.00490219
-0.00471924
0.00481967
-0.00340064
0.00451156
-0.00471288
0.00398574
-0.00498773
0.00319525
-0.00411434
0.00233271
-0.00212044
0.00183939
-0.00376253
0.00186088
-0.00699018
0.00195957
-0.00392334
0.00207763
0.00215874
0.00230921
0.00913206
0.00281568
0.0115722
0.00305678
0.00442511
0.00260879
-0.000596556
0.00187665
-0.000966765
0.0013323
-0.00579089
0.00111
-0.0103681
0.00119419
-0.00700753
0.00133548
-0.00246122
0.00155802
0.00155912
0.00200729
0.00615437
0.00249848
0.00789547
0.00293263
0.00550399
0.00324343
0.00259202
0.00336886
-0.000148974
0.0032858
-0.00191867
0.00314246
0.000593191
0.00305555
0.00279122
0.00287797
0.00437244
0.00284873
0.00609687
0.00294064
0.00308997
0.0029173
0.000550847
0.00309925
-0.00152499
0.00317682
-0.00559477
0.00282945
-0.00693064
0.00226211
-0.00577543
0.00186504
-0.00492676
0.00168396
-0.00378294
0.00156624
-0.00229742
0.00159097
-0.000322458
0.00180007
0.0020772
0.00206202
0.00412959
0.00231023
0.00531918
0.0025122
0.0051496
0.00260237
0.00426871
0.00266589
0.0023544
0.00268573
-0.000978278
0.00252017
-0.00376992
0.00225191
-0.00479561
0.00204222
-0.00419492
0.00191297
-0.00265811
0.00192063
-0.000217479
0.00205877
0.00264719
0.00221176
0.00416003
0.00233303
0.00309907
0.00239285
0.000450611
0.00235286
-0.00172105
0.00226745
-0.00222794
0.00224114
-0.00105428
0.00229448
0.000855564
0.00237389
0.00221206
0.00245239
0.00224298
0.00251643
0.00105719
0.00254137
-0.000408441
0.0025228
-0.00120931
0.00247685
-0.00115549
0.00242502
-0.000663847
0.00238066
-0.000175373
0.00234679
0.000119249
0.00232108
0.000224994
0.00229988
0.000219783
0.00228017
0.00017569
0.00226018
0.000134785
0.00223938
0.000112018
0.00221841
0.00010542
0.00219829
0.000105961
0.00218031
0.000104831
0.00216503
9.7699e-05
0.00215301
8.35798e-05
0.00214358
6.71121e-05
0.00213694
4.75643e-05
0.00213161
3.52958e-05
1.75286e-05
0.00440546
-0.000732527
0.00442021
-0.000324952
0.00445918
-0.000246169
0.0045144
-0.000544105
0.00446992
2.17447e-05
0.00451883
-0.00133802
0.00460871
0.000276928
0.00454337
-0.00123143
0.00467907
-0.00155481
0.00454931
-0.000166487
0.00453818
-0.00259415
0.00458567
-0.000604468
0.00439709
-1.65736e-05
0.00448843
-0.00213141
0.00476879
0.000401058
0.0048413
-0.0010754
0.00477346
-0.0055297
0.0048002
-0.00474598
0.00470589
-0.00330633
0.00433143
-0.00433842
0.0037414
-0.00439771
0.00290232
-0.00327526
0.00202784
-0.00124596
0.00153986
-0.00327454
0.00158213
-0.00703245
0.00176038
-0.00410159
0.00189318
0.00202595
0.00215395
0.00887128
0.00274261
0.0109836
0.00298663
0.00418109
0.00249877
-0.000108696
0.00177296
-0.000240957
0.00119427
-0.0052122
0.000907077
-0.0100809
0.000969708
-0.00707016
0.00111122
-0.00260273
0.00131509
0.00135526
0.00174377
0.00572569
0.00224739
0.00739185
0.00271051
0.00504088
0.00307922
0.0022233
0.00324703
-0.000316779
0.00315259
-0.00182423
0.00303224
0.000713539
0.00299889
0.00282457
0.00286053
0.0045108
0.0028845
0.00607289
0.00297492
0.00299955
0.00295902
0.000566745
0.00316574
-0.00173171
0.00317463
-0.00560366
0.00273001
-0.00648602
0.00211201
-0.00515743
0.00170086
-0.0045156
0.00151867
-0.00360074
0.0013997
-0.00217845
0.00141767
-0.000340432
0.00162359
0.00187128
0.00189789
0.0038553
0.00218293
0.00503414
0.00242399
0.00490853
0.0025435
0.0041492
0.00263149
0.00226642
0.00264952
-0.000996309
0.00245542
-0.00357583
0.00215189
-0.00449208
0.00192002
-0.00396305
0.00178228
-0.00252037
0.00178496
-0.000220158
0.00192834
0.0025038
0.00210182
0.00398656
0.00224955
0.00295134
0.00231965
0.000380516
0.00227054
-0.00167194
0.00217215
-0.00212955
0.00213751
-0.00101964
0.00219122
0.000801855
0.0022845
0.00211878
0.00238204
0.00214544
0.00245626
0.000982962
0.00248105
-0.000433233
0.0024568
-0.00118506
0.00240441
-0.0011031
0.00234874
-0.000608171
0.00230385
-0.000130483
0.00227179
0.000151302
0.00224889
0.000247899
0.00223052
0.000238154
0.00221335
0.000192861
0.00219588
0.000152253
0.00217815
0.000129751
0.00216117
0.000122393
0.00214611
0.00012102
0.00213393
0.000117012
0.00212477
0.000106862
0.0021185
8.98529e-05
0.00211424
7.13676e-05
0.00211159
5.02197e-05
0.00210964
3.72449e-05
1.87606e-05
0.00465198
-0.000717399
0.004636
-0.000308972
0.00469227
-0.00030244
0.00471195
-0.000563786
0.00470781
2.58836e-05
0.00468046
-0.00131067
0.00477829
0.0001791
0.00472462
-0.00117776
0.00475384
-0.00158403
0.00470426
-0.000116909
0.00460931
-0.0024992
0.00464041
-0.000635565
0.00452229
0.000101543
0.00449804
-0.00210715
0.00477276
0.000126332
0.00486022
-0.00116286
0.0046663
-0.00533577
0.00463268
-0.00471236
0.00452537
-0.00319902
0.00408645
-0.0038995
0.00344052
-0.00375177
0.00257315
-0.0024079
0.00171046
-0.000383262
0.00123931
-0.00280339
0.0012815
-0.00707464
0.00151512
-0.00433521
0.00166692
0.00187414
0.00198206
0.00855615
0.00265
0.0103156
0.00288859
0.00394251
0.00237304
0.000406851
0.00167447
0.000457611
0.00107033
-0.00460805
0.00072204
-0.00973261
0.000755118
-0.00710324
0.000886512
-0.00273412
0.00107137
0.00117039
0.00147742
0.00531965
0.00198067
0.0068886
0.00245867
0.00456288
0.0028853
0.00179667
0.00308333
-0.000514815
0.0029752
-0.00171609
0.0028821
0.000806631
0.0029038
0.00280287
0.0028125
0.00460211
0.00289848
0.00598691
0.00298831
0.00290972
0.00299048
0.000564579
0.00321437
-0.0019556
0.0031412
-0.00553048
0.00260213
-0.00594696
0.00194661
-0.00450191
0.00152946
-0.00409845
0.00134842
-0.0034197
0.00123179
-0.00206183
0.00124388
-0.00035252
0.00144306
0.0016721
0.0017253
0.00357306
0.00204428
0.00471516
0.00232082
0.004632
0.00246964
0.00400038
0.00258446
0.0021516
0.00259911
-0.00101096
0.00237613
-0.00335285
0.00204001
-0.00415596
0.0017877
-0.00371074
0.00164385
-0.00237652
0.00164312
-0.000219434
0.00178977
0.00235716
0.0019828
0.00379353
0.00215701
0.00277713
0.00223537
0.000302156
0.00217547
-0.00161204
0.00206348
-0.00201757
0.00202018
-0.00097634
0.0020744
0.000747638
0.00218187
0.00201132
0.00229732
0.00202999
0.00238119
0.000899089
0.00240659
-0.000458624
0.00237647
-0.00115494
0.00231707
-0.0010437
0.00225758
-0.000548681
0.00221268
-8.55812e-05
0.00218304
0.000180941
0.00216346
0.000267482
0.00214842
0.000253194
0.00213446
0.000206813
0.0021205
0.000166217
0.00210707
0.000143182
0.00209543
0.000134029
0.00208664
0.00012981
0.00208116
0.000122493
0.00207862
0.000109404
0.00207823
9.02458e-05
0.002079
7.05926e-05
0.00208008
4.91414e-05
0.00208118
3.61493e-05
1.82516e-05
0.00480868
-0.000700151
0.00477393
-0.000274225
0.00482725
-0.000355761
0.00481941
-0.000555941
0.0048481
-2.81401e-06
0.00475866
-0.00122122
0.00485879
7.89689e-05
0.00481743
-0.00113639
0.00475552
-0.00152212
0.00478039
-0.000141777
0.00460905
-0.00232786
0.00461859
-0.000645109
0.00457165
0.000148489
0.00443239
-0.00196789
0.00469546
-0.00013674
0.00480233
-0.00126974
0.00449354
-0.00502699
0.0043958
-0.00461462
0.00426403
-0.00306726
0.00376424
-0.00339971
0.00308087
-0.0030684
0.00221332
-0.00154034
0.00138984
0.000440213
0.000949225
-0.00236277
0.00096911
-0.00709452
0.00122816
-0.00459426
0.00139753
0.00170477
0.00178832
0.00816536
0.00253193
0.009572
0.00275951
0.00371493
0.00223305
0.000933313
0.00158283
0.00110782
0.000971086
-0.0039963
0.000561477
-0.009323
0.000541881
-0.00708364
0.000635314
-0.00282756