/*--------------------------------*- C++ -*----------------------------------*\
| =========                 |                                                 |
| \\      /  F ield         | OpenFOAM: The Open Source CFD Toolbox           |
|  \\    /   O peration     | Version:  2.4.0                                 |
|   \\  /    A nd           | Web:      www.OpenFOAM.org                      |
|    \\/     M anipulation  |                                                 |
\*---------------------------------------------------------------------------*/
FoamFile
{
    version     2.0;
    format      ascii;
    class       surfaceScalarField;
    location    "0.24";
    object      phi;
}
// * * * * * * * * * * * * * * * * * * * * * * * * * * * * * * * * * * * * * //

dimensions      [0 3 -1 0 0 0 0];

internalField   nonuniform List<scalar> 
8640
(
0.0496287
0.000371293
0.0490846
0.000544074
0.04868
0.000404674
0.0483518
0.000328115
0.0478778
0.000474001
0.0472977
0.000580168
0.0468683
0.000429382
0.0464418
0.000426457
0.0463988
4.29852e-05
0.0457669
0.000631931
0.0464743
-0.000707421
0.0451172
0.00135716
0.0465451
-0.00142797
0.0451248
0.00142037
0.0455001
-0.000375372
0.0459803
-0.000480108
0.0456683
0.000311985
0.0439606
0.00170765
0.0464432
-0.00248261
0.0115751
0.0348682
0.0500868
0.000284474
0.0501191
0.000511829
0.0501584
0.000365297
0.0501766
0.000309969
0.0502582
0.000392411
0.0501821
0.000656277
0.0504399
0.000171552
0.0500001
0.000866216
0.0508199
-0.000776774
0.0495497
0.00190211
0.0511301
-0.00228779
0.049486
0.0030013
0.0503523
-0.00229433
0.0507794
0.000993236
0.0492926
0.00111148
0.0507569
-0.00194441
0.0505067
0.000562192
0.0501318
0.00208252
0.0481035
-0.000454327
0.00754199
0.0521366
0.0500674
0.000217108
0.0501261
0.000453137
0.0501665
0.000324862
0.0502017
0.000274729
0.0502713
0.000322864
0.0503261
0.000601475
0.0504037
9.398e-05
0.050396
0.000873904
0.0504885
-0.000869309
0.0503838
0.00200684
0.0506684
-0.00257243
0.0501871
0.00348263
0.0511253
-0.00323254
0.0497648
0.00235368
0.0512464
-0.000370075
0.0502158
-0.000913851
0.0498748
0.000903175
0.0513659
0.000591479
0.048908
0.0020036
0.0022615
0.0541884
0.050053
0.000164114
0.050116
0.000390088
0.0501598
0.000281083
0.0501882
0.000246352
0.0502699
0.000241159
0.0502953
0.000576072
0.0504387
-4.94463e-05
0.050301
0.00101164
0.0506153
-0.00118359
0.0502104
0.00241177
0.0506863
-0.00304836
0.0503454
0.00382355
0.0503115
-0.00319867
0.0509251
0.00174012
0.0500761
0.000478907
0.0503972
-0.00123494
0.0511307
0.000169664
0.0498297
0.00189243
0.0498104
0.00202291
-0.00316402
0.0552359
0.0500415
0.000122587
0.0501069
0.00032473
0.0501512
0.000236729
0.0501858
0.000211836
0.0502466
0.000180291
0.0503075
0.000515159
0.0503681
-0.000109973
0.0504117
0.000967994
0.0504107
-0.00118253
0.0505022
0.00232019
0.0504565
-0.00300261
0.05047
0.00381007
0.0508169
-0.00354564
0.049954
0.00260302
0.0513548
-0.000921903
0.0499501
0.000169812
0.0505241
-0.000404354
0.0511154
0.00130111
0.0509325
0.00220585
-0.00394463
0.0517131
0.0500333
8.928e-05
0.0500985
0.000259534
0.0501461
0.000189154
0.0501783
0.000179563
0.0502399
0.000118727
0.0502978
0.000457247
0.0503658
-0.00017797
0.0503886
0.000945241
0.0504306
-0.00122451
0.0504639
0.00228688
0.0503981
-0.00293682
0.0505653
0.0036428
0.0502812
-0.00326149
0.0506569
0.00222733
0.0503184
-0.000583421
0.0503195
0.000168741
0.0508711
-0.000956021
0.0501222
0.00205
0.0509917
0.00133637
-0.00647005
0.0535171
0.0500274
6.18902e-05
0.0500919
0.000194993
0.050141
0.000140067
0.0501758
0.000144759
0.0502294
6.51822e-05
0.0502966
0.000389967
0.0503436
-0.000224874
0.0504105
0.000878254
0.0503826
-0.00119653
0.0505189
0.0021505
0.0503716
-0.00278949
0.0505711
0.00344331
0.0504889
-0.00317927
0.0503454
0.00237079
0.0507513
-0.000989316
0.0504075
0.000512548
0.0500776
-0.000626135
0.0514151
0.000712495
0.0509866
0.00176491
-0.00642853
0.0509451
0.0500234
3.84696e-05
0.0500868
0.000131608
0.0501377
8.9126e-05
0.0501728
0.000109676
0.0502234
1.46473e-05
0.0502948
0.000318578
0.0503325
-0.000262622
0.0504185
0.00079226
0.0503573
-0.00113529
0.0505545
0.00195329
0.0502912
-0.00252622
0.0506518
0.00308268
0.0502876
-0.00281506
0.0505494
0.00210898
0.0504955
-0.000935435
0.0503611
0.000646963
0.0507147
-0.000979672
0.0503516
0.00107554
0.051273
0.000843561
-0.00741235
0.0522568
0.0500209
1.75335e-05
0.0500835
6.90741e-05
0.0501353
3.72749e-05
0.0501714
7.36048e-05
0.0502189
-3.28914e-05
0.0502932
0.000244355
0.0503261
-0.000295595
0.050418
0.00070035
0.0503551
-0.00107233
0.0505443
0.00176403
0.050311
-0.00229284
0.0506275
0.0027661
0.050324
-0.00251149
0.0505684
0.00186455
0.0503481
-0.000715145
0.0506265
0.000368584
0.0501439
-0.000497051
0.0510835
0.000135932
0.0507525
0.00117457
-0.00703558
0.0503757
0.0500197
-2.20124e-06
0.0500818
6.99195e-06
0.0501341
-1.49657e-05
0.0501709
3.67537e-05
0.0502162
-7.82211e-05
0.0502937
0.000166888
0.0503203
-0.000322235
0.0504244
0.000596293
0.0503415
-0.000989385
0.0505617
0.00154379
0.0502868
-0.00201799
0.0506487
0.00240425
0.0503037
-0.0021665
0.0505199
0.0016483
0.0505409
-0.000736053
0.0504526
0.000456818
0.0503871
-0.000431537
0.0507196
-0.00019658
0.0512477
0.000646474
-0.00691364
0.0511258
0.0500197
-2.18848e-05
0.0500819
-5.52411e-05
0.0501339
-6.69275e-05
0.0501713
-6.97133e-07
0.0502156
-0.000122534
0.0502948
8.7715e-05
0.0503193
-0.000346725
0.0504247
0.000490852
0.0503428
-0.000907459
0.0505568
0.00132983
0.0502945
-0.00175573
0.0506405
0.00205827
0.0502893
-0.00181524
0.0506238
0.00131376
0.0502691
-0.000381407
0.0506355
9.05065e-05
0.0503909
-0.000187027
0.0505835
-0.000389087
0.0508257
0.000404221
-0.00666668
0.0505787
0.0500208
-4.26741e-05
0.0500838
-0.000118211
0.0501348
-0.000117947
0.0501728
-3.86961e-05
0.0502167
-0.000166449
0.0502976
6.76502e-06
0.0503198
-0.000368924
0.0504273
0.00038336
0.0503437
-0.000823867
0.0505553
0.00111826
0.0503017
-0.00150213
0.0506304
0.0017296
0.0503179
-0.00150276
0.0505351
0.00109657
0.0505004
-0.000346755
0.0505162
7.47236e-05
0.0503168
1.24112e-05
0.0507733
-0.000845598
0.0508992
0.000278336
-0.00603647
0.050269
0.0500232
-6.58397e-05
0.0500873
-0.000182367
0.0501368
-0.000167379
0.0501753
-7.71977e-05
0.0502196
-0.000210802
0.0503018
-7.54403e-05
0.0503231
-0.000390187
0.0504296
0.000276848
0.0503486
-0.000742875
0.050551
0.000915886
0.0503136
-0.0012648
0.0506201
0.00142317
0.0503232
-0.0012059
0.0505889
0.000830843
0.0503583
-0.000116152
0.0505549
-0.000121872
0.0505203
4.70032e-05
0.0504727
-0.000797939
0.0507604
-9.38319e-06
-0.00556059
0.0502845
0.0500271
-9.28989e-05
0.0500926
-0.000247899
0.0501398
-0.000214565
0.0501788
-0.00011626
0.0502243
-0.000256236
0.0503078
-0.000158917
0.0503285
-0.000410901
0.0504328
0.000172515
0.0503555
-0.000665531
0.0505463
0.000725004
0.0503285
-0.00104696
0.0506056
0.00114605
0.0503505
-0.000950764
0.0505403
0.000641021
0.0504762
-5.20449e-05
0.0505387
-0.000184387
0.0504344
0.000151278
0.0505607
-0.000924168
0.0506609
-0.000109656
-0.00485894
0.0499593
0.0500328
-0.000125729
0.0500995
-0.000314578
0.050144
-0.000259042
0.0501837
-0.000155958
0.0502307
-0.000303239
0.0503154
-0.000243587
0.0503362
-0.000431744
0.0504372
7.14633e-05
0.050364
-0.000592271
0.0505423
0.000546668
0.0503437
-0.000848355
0.0505924
0.000897358
0.0503709
-0.000729245
0.0505491
0.000462843
0.0504596
3.74519e-05
0.0505023
-0.000227115
0.0505224
0.000131141
0.0504575
-0.000859252
0.0505454
-0.000197566
-0.00418015
0.0498666
0.050041
-0.000166772
0.0501079
-0.000381394
0.0501494
-0.000300577
0.0501902
-0.000196743
0.0502392
-0.00035227
0.050325
-0.000329369
0.0503453
-0.000452065
0.0504436
-2.67741e-05
0.0503737
-0.000522453
0.0505395
0.000380894
0.050359
-0.000667852
0.0505802
0.00067619
0.0503942
-0.000543259
0.0505254
0.000331607
0.0505031
5.97557e-05
0.0505093
-0.000233316
0.0505027
0.000137798
0.0504126
-0.000769234
0.050461
-0.000245944
-0.00342711
0.049708
0.0500522
-0.000219019
0.0501177
-0.000446864
0.0501561
-0.000338924
0.050198
-0.000238719
0.05025
-0.000404208
0.0503374
-0.000416823
0.0503581
-0.000472745
0.0504511
-0.00011975
0.0503842
-0.000455553
0.050538
0.000227048
0.0503726
-0.000502469
0.0505699
0.000478954
0.050413
-0.00038642
0.05052
0.00022466
0.0505181
6.16272e-05
0.0504839
-0.000199112
0.0505183
0.000103439
0.0503753
-0.000626235
0.0503763
-0.00024701
-0.0026461
0.0495953
0.0500668
-0.000285785
0.0501273
-0.000507392
0.0501641
-0.000375708
0.0502077
-0.000282363
0.0502608
-0.000457321
0.0503488
-0.000504828
0.050369
-0.000492878
0.050459
-0.000209784
0.0503937
-0.00039022
0.0505373
8.34607e-05
0.050383
-0.000348189
0.0505609
0.000301008
0.050427
-0.000252512
0.0505089
0.000142767
0.0505297
4.085e-05
0.0504784
-0.000147852
0.050513
6.88666e-05
0.0503398
-0.00045302
0.050308
-0.000215216
-0.00183813
0.0495
0.0500858
-0.000371602
0.0501215
-0.000543087
0.0501524
-0.000406605
0.0501929
-0.000322857
0.050221
-0.000485397
0.050269
-0.000552851
0.0502662
-0.000490057
0.0503403
-0.000283907
0.0502799
-0.000329809
0.050415
-5.16253e-05
0.0502775
-0.000210752
0.0504485
0.000130046
0.0503254
-0.000129394
0.0504038
6.43749e-05
0.0504268
1.7833e-05
0.0503609
-8.19112e-05
0.0503986
3.10726e-05
0.0501888
-0.000243179
0.0501069
-0.000133283
-0.000953471
0.0492222
0.0496284
0.0490853
0.0486787
0.0483558
0.0478705
0.0473176
0.0468275
0.0465436
0.0462138
0.0461622
0.0459514
0.0460815
0.0459521
0.0460165
0.0460343
0.0459524
0.0459835
0.0457403
0.045607
0.0446535
0.0403439
0.0574306
-0.0629063
0.0450218
-0.120779
0.116101
0.0395129
-0.105716
0.111225
0.0335843
-0.0868417
0.0927703
0.0300784
-0.0678338
0.0713397
0.0285171
-0.0501811
0.0517424
0.0271771
-0.0355455
0.0368854
0.0261641
-0.0252143
0.0262273
0.0256358
-0.0177639
0.0182922
0.0253857
-0.0122942
0.0125442
0.0252608
-0.00839277
0.0085177
0.0251953
-0.00568023
0.00574576
0.0251601
-0.00382192
0.0038571
0.0251409
-0.00256049
0.00257972
0.0251301
-0.00170933
0.00172006
0.025124
-0.00113745
0.00114359
0.0251204
-0.000754603
0.000758193
0.0251183
-0.000499137
0.000501285
0.025117
-0.000329185
0.000330495
0.0251162
-0.000216478
0.00021729
0.0251156
-0.000141961
0.00014247
0.0251153
-9.28107e-05
9.31328e-05
0.0251151
-6.05111e-05
6.07162e-05
0.025115
-3.9344e-05
3.9475e-05
0.0251149
-2.54974e-05
2.55811e-05
0.0251149
-1.64821e-05
1.65359e-05
0.0251148
-1.06231e-05
1.06576e-05
0.0251148
-6.82462e-06
6.84655e-06
0.0251148
-4.37377e-06
4.38767e-06
0.0251148
-2.79328e-06
2.80219e-06
0.0251148
-1.77855e-06
1.7844e-06
0.0251148
-1.13004e-06
1.13372e-06
0.0251148
-7.14984e-07
7.17637e-07
0.0251148
-4.51756e-07
4.52431e-07
0.0251148
-2.83505e-07
2.84898e-07
0.0251148
-1.77291e-07
1.78559e-07
0.0251148
-1.11412e-07
1.11307e-07
0.0251148
-7.01124e-08
7.00573e-08
0.0251148
-4.36412e-08
4.41339e-08
0.0251148
-2.66948e-08
2.64488e-08
0.0251148
-1.71975e-08
1.66806e-08
0.0251148
-9.93311e-09
1.00666e-08
0.0251148
-6.08197e-09
6.53914e-09
0.0251148
-4.62502e-09
4.78824e-09
0.0251148
-1.51988e-09
1.2545e-09
0.0251148
-2.60169e-09
2.5508e-09
0.0251148
3.97193e-12
1.18846e-10
0.0251148
-1.76996e-10
-1.10556e-10
0.0251148
-1.43481e-09
1.20241e-09
0.0251148
-1.32545e-10
2.28063e-10
0.0251148
9.64158e-10
-8.7281e-10
0.0251148
-1.38752e-09
1.45903e-09
0.0251148
1.91944e-10
-2.73595e-10
0.0251148
1.37775e-09
-1.44598e-09
0.0251148
-2.34687e-09
2.33515e-09
0.0251148
2.75171e-09
-2.65879e-09
0.0251148
-1.31238e-09
1.38864e-09
0.0251148
4.50149e-10
-5.31511e-10
0.0251148
4.49727e-10
-4.11665e-10
0.0251148
-7.50446e-10
7.78594e-10
0.0251148
1.90363e-09
-1.83951e-09
0.0251148
-1.81699e-09
2.02429e-09
0.0251148
1.56747e-09
-1.47482e-09
0.0251148
4.48489e-10
-5.71947e-10
0.0251148
-2.44814e-09
2.31364e-09
0.0251148
2.7119e-09
-2.80402e-09
0.0251148
-6.84749e-10
7.00712e-10
0.0251148
-1.69917e-09
1.7297e-09
0.0251148
2.63619e-09
-2.60404e-09
0.0251148
-1.6178e-09
1.50756e-09
0.0251148
-9.98719e-10
8.7128e-10
0.0251148
3.22231e-09
-3.28677e-09
0.0251148
-2.32539e-09
2.32637e-09
0.0251148
-1.56221e-09
1.68306e-09
0.0251148
4.65186e-09
-4.46249e-09
0.0251148
-1.28367e-09
1.46336e-09
0.0251148
-4.16643e-09
4.12542e-09
0.0251148
3.80403e-09
-3.89215e-09
0.0251148
1.53886e-09
-1.66003e-09
0.0251148
-5.07926e-09
5.07764e-09
0.0251148
-1.1336e-09
1.17063e-09
0.0251148
3.47247e-09
-3.50556e-09
0.0251148
-8.43037e-10
7.52232e-10
0.0251148
-3.95362e-09
3.89518e-09
0.0251148
-2.45652e-10
3.03888e-10
0.0251148
2.26107e-09
-2.07111e-09
0.0251148
1.51291e-09
-1.37813e-09
0.0251148
-1.32285e-09
1.32965e-09
0.0251148
-3.41603e-09
3.24186e-09
0.0251148
1.68443e-10
-2.94702e-10
0.0251148
3.96133e-09
-3.94745e-09
0.0251148
2.26437e-09
-2.13916e-09
0.0251148
-1.29896e-09
1.36348e-09
0.0251148
-1.05602e-09
1.03958e-09
0.0251148
2.34652e-11
-2.14077e-10
0.0251148
9.26204e-10
-1.03776e-09
0.0251148
6.59706e-10
-6.41199e-10
0.0251148
-2.37523e-10
3.08796e-10
0.0251148
-1.66596e-09
1.84808e-09
-6.85215e-10
6.8008e-10
0.0636332
0.045934
0.0466581
-0.103804
0.0371693
-0.0962271
0.0319823
-0.0816548
0.0290072
-0.0648586
0.0275968
-0.0487707
0.0270124
-0.034961
0.0263947
-0.0245966
0.0258772
-0.0172464
0.0255537
-0.0119706
0.0253708
-0.0082099
0.0252678
-0.00557725
0.0252083
-0.00376237
0.0251729
-0.00252509
0.0251514
-0.00168781
0.025138
-0.00112413
0.0251296
-0.000746228
0.0251243
-0.000493815
0.0251209
-0.000325788
0.0251187
-0.000214293
0.0251173
-0.00014054
0.0251164
-9.19035e-05
0.0251158
-5.99229e-05
0.0251154
-3.89584e-05
0.0251152
-2.52553e-05
0.025115
-1.63225e-05
0.0251149
-1.05183e-05
0.0251149
-6.76118e-06
0.0251148
-4.33417e-06
0.0251148
-2.76496e-06
0.0251148
-1.75904e-06
0.0251148
-1.12086e-06
0.0251148
-7.10263e-07
0.0251148
-4.44591e-07
0.0251148
-2.80516e-07
0.0251148
-1.7683e-07
0.0251148
-1.09348e-07
0.0251148
-6.68689e-08
0.0251148
-4.5518e-08
0.0251148
-3.04052e-08
0.0251148
-1.44888e-08
0.0251148
-6.09705e-09
0.0251148
-5.57311e-09
0.0251148
-5.45979e-09
0.0251148
-3.38264e-09
0.0251148
4.25688e-10
0.0251148
1.27656e-10
0.0251148
-5.11686e-09
0.0251148
-2.09537e-09
0.0251148
3.05077e-09
0.0251148
1.30436e-09
0.0251148
-4.81376e-10
0.0251148
-1.82648e-09
0.0251148
-2.2623e-09
0.0251148
2.21842e-09
0.0251148
3.49236e-09
0.0251148
-1.32994e-09
0.0251148
-1.92141e-09
0.0251148
3.12622e-10
0.0251148
1.59792e-09
0.0251148
3.82423e-09
0.0251148
1.70532e-09
0.0251148
-2.62996e-09
0.0251148
-2.80903e-09
0.0251148
-1.03289e-09
0.0251148
1.42849e-09
0.0251148
2.70692e-09
0.0251148
4.09418e-10
0.0251148
-2.17028e-09
0.0251148
-2.74972e-09
0.0251148
-1.63974e-09
0.0251148
1.06257e-09
0.0251148
2.47928e-09
0.0251148
1.67866e-09
0.0251148
1.13335e-09
0.0251148
1.77443e-10
0.0251148
-1.70644e-09
0.0251148
-1.93221e-09
0.0251148
-1.80626e-10
0.0251148
1.03288e-09
0.0251148
6.02162e-10
0.0251148
-1.33513e-09
0.0251148
-2.92406e-09
0.0251148
-2.23342e-09
0.0251148
-1.24121e-11
0.0251148
1.7863e-09
0.0251148
1.85857e-09
0.0251148
3.86627e-10
0.0251148
-6.73683e-10
0.0251148
-2.94086e-10
0.0251148
5.0791e-10
0.0251148
7.08194e-10
0.0251148
-2.62508e-11
0.0251148
-6.67992e-10
0.0251148
-9.61744e-10
0.0251148
4.79261e-10
0.0251148
1.15669e-09
0.0251148
1.50137e-09
0.0251148
5.14042e-10
-6.01297e-10
0.0683538
0.0317686
0.0500661
-0.0855164
0.0416505
-0.0878114
0.036514
-0.0765183
0.0328447
-0.0611893
0.0291631
-0.0450891
0.0272036
-0.0330016
0.0264227
-0.0238157
0.0259833
-0.0168071
0.025675
-0.0116623
0.025468
-0.00800287
0.0253367
-0.00544604
0.0252552
-0.00368079
0.0252043
-0.0024742
0.0251722
-0.00165575
0.0251518
-0.00110373
0.0251388
-0.000733144
0.0251303
-0.000485373
0.0251248
-0.000320321
0.0251213
-0.000210744
0.025119
-0.000138234
0.0251175
-9.04075e-05
0.0251165
-5.89518e-05
0.0251159
-3.83279e-05
0.0251155
-2.48491e-05
0.0251152
-1.60594e-05
0.0251151
-1.0349e-05
0.0251149
-6.65344e-06
0.0251149
-4.2642e-06
0.0251148
-2.72047e-06
0.0251148
-1.73069e-06
0.0251148
-1.10315e-06
0.0251148
-6.98938e-07
0.0251148
-4.37561e-07
0.0251148
-2.75564e-07
0.0251148
-1.73697e-07
0.0251148
-1.07861e-07
0.0251148
-6.65025e-08
0.0251148
-4.44648e-08
0.0251148
-2.97672e-08
0.0251148
-1.42819e-08
0.0251148
-6.19137e-09
0.0251148
-5.40043e-09
0.0251148
-5.09628e-09
0.0251148
-3.64967e-09
0.0251148
3.86318e-10
0.0251148
2.39182e-10
0.0251148
-5.29093e-09
0.0251148
-2.21647e-09
0.0251148
3.29854e-09
0.0251148
1.12251e-09
0.0251148
-5.16557e-10
0.0251148
-1.76261e-09
0.0251148
-2.20473e-09
0.0251148
2.27033e-09
0.0251148
3.29161e-09
0.0251148
-1.10606e-09
0.0251148
-2.11616e-09
0.0251148
5.46226e-10
0.0251148
1.64757e-09
0.0251148
3.61378e-09
0.0251148
1.89265e-09
0.0251148
-2.64544e-09
0.0251148
-2.77087e-09
0.0251148
-9.55456e-10
0.0251148
1.26662e-09
0.0251148
2.64811e-09
0.0251148
3.36805e-10
0.0251148
-2.24695e-09
0.0251148
-2.56081e-09
0.0251148
-1.60661e-09
0.0251148
8.29672e-10
0.0251148
2.55669e-09
0.0251148
1.74339e-09
0.0251148
1.0237e-09
0.0251148
4.54416e-10
0.0251148
-1.53949e-09
0.0251148
-2.17738e-09
0.0251148
-3.07809e-10
0.0251148
1.21822e-09
0.0251148
5.57203e-10
0.0251148
-1.57487e-09
0.0251148
-2.96844e-09
0.0251148
-2.04486e-09
0.0251148
1.79311e-10
0.0251148
1.88041e-09
0.0251148
1.73634e-09
0.0251148
3.34612e-10
0.0251148
-7.3147e-10
0.0251148
-3.8049e-10
0.0251148
4.67136e-10
0.0251148
8.12644e-10
0.0251148
7.32897e-11
0.0251148
-5.74557e-10
0.0251148
-1.01708e-09
0.0251148
3.6308e-10
0.0251148
1.14056e-09
0.0251148
1.36079e-09
0.0251148
5.531e-10
-6.19702e-10
0.0654136
0.021591
0.053111
-0.0732137
0.0441552
-0.0788557
0.0366745
-0.0690376
0.0342752
-0.0587901
0.031987
-0.0428009
0.0291313
-0.0301458
0.0272718
-0.0219562
0.0263344
-0.0158696
0.0258485
-0.0111764
0.0255719
-0.00772628
0.0254049
-0.00527901
0.0253009
-0.00357679
0.0252349
-0.00240827
0.0251927
-0.00161349
0.0251654
-0.00107645
0.0251477
-0.000715457
0.0251362
-0.00047387
0.0251287
-0.000312827
0.0251238
-0.000205858
0.0251206
-0.00013505
0.0251186
-8.83366e-05
0.0251172
-5.76058e-05
0.0251163
-3.74539e-05
0.0251158
-2.42842e-05
0.0251154
-1.56946e-05
0.0251152
-1.0114e-05
0.025115
-6.50287e-06
0.0251149
-4.16712e-06
0.0251149
-2.65851e-06
0.0251148
-1.69186e-06
0.0251148
-1.07826e-06
0.0251148
-6.83051e-07
0.0251148
-4.27638e-07
0.0251148
-2.69098e-07
0.0251148
-1.69556e-07
0.0251148
-1.06013e-07
0.0251148
-6.55522e-08
0.0251148
-4.28548e-08
0.0251148
-2.86496e-08
0.0251148
-1.4006e-08
0.0251148
-6.30097e-09
0.0251148
-5.53733e-09
0.0251148
-4.58971e-09
0.0251148
-3.75218e-09
0.0251148
-6.0457e-12
0.0251148
6.45122e-10
0.0251148
-5.23524e-09
0.0251148
-2.35549e-09
0.0251148
3.47431e-09
0.0251148
8.22705e-10
0.0251148
-7.09127e-10
0.0251148
-1.27848e-09
0.0251148
-2.14928e-09
0.0251148
2.02246e-09
0.0251148
3.23061e-09
0.0251148
-1.17666e-09
0.0251148
-1.78765e-09
0.0251148
6.24304e-10
0.0251148
1.63491e-09
0.0251148
3.15765e-09
0.0251148
1.77439e-09
0.0251148
-2.26362e-09
0.0251148
-2.65429e-09
0.0251148
-7.6068e-10
0.0251148
1.11548e-09
0.0251148
2.2117e-09
0.0251148
2.84373e-10
0.0251148
-2.14528e-09
0.0251148
-2.32008e-09
0.0251148
-1.30372e-09
0.0251148
6.54198e-10
0.0251148
2.25043e-09
0.0251148
1.75681e-09
0.0251148
9.96969e-10
0.0251148
4.73646e-10
0.0251148
-1.22207e-09
0.0251148
-2.12466e-09
0.0251148
-4.58286e-10
0.0251148
1.12017e-09
0.0251148
4.41484e-10
0.0251148
-1.65402e-09
0.0251148
-2.87711e-09
0.0251148
-1.85267e-09
0.0251148
4.36482e-10
0.0251148
1.94127e-09
0.0251148
1.592e-09
0.0251148
7.22259e-11
0.0251148
-8.61675e-10
0.0251148
-3.96911e-10
0.0251148
5.45419e-10
0.0251148
9.14663e-10
0.0251148
1.21864e-10
0.0251148
-4.45042e-10
0.0251148
-9.76368e-10
0.0251148
3.82386e-10
0.0251148
1.08343e-09
0.0251148
1.01747e-09
0.0251148
4.79945e-10
-6.10081e-10
0.0600397
0.0132643
0.0502978
-0.0634718
0.0410768
-0.0696347
0.0315576
-0.0595184
0.02698
-0.0542125
0.0268903
-0.0427111
0.0272121
-0.0304677
0.0269178
-0.0216619
0.0264126
-0.0153644
0.0259775
-0.0107413
0.0256718
-0.00742052
0.0254728
-0.00508006
0.025346
-0.00344999
0.0252649
-0.00232716
0.0252126
-0.00156115
0.0251786
-0.00104245
0.0251564
-0.000693286
0.0251419
-0.000459384
0.0251325
-0.000303357
0.0251263
-0.00019967
0.0251222
-0.00013101
0.0251196
-8.57043e-05
0.0251179
-5.58939e-05
0.0251168
-3.63418e-05
0.0251161
-2.35643e-05
0.0251156
-1.52303e-05
0.0251153
-9.81469e-06
0.0251151
-6.31041e-06
0.025115
-4.0435e-06
0.0251149
-2.57989e-06
0.0251148
-1.64223e-06
0.0251148
-1.04646e-06
0.0251148
-6.6282e-07
0.0251148
-4.14866e-07
0.0251148
-2.61025e-07
0.0251148
-1.64766e-07
0.0251148
-1.03363e-07
0.0251148
-6.389e-08
0.0251148
-4.09558e-08
0.0251148
-2.72809e-08
0.0251148
-1.36399e-08
0.0251148
-6.54679e-09
0.0251148
-5.5685e-09
0.0251148
-4.10303e-09
0.0251148
-3.69779e-09
0.0251148
-2.95341e-10
0.0251148
7.7492e-10
0.0251148
-5.02781e-09
0.0251148
-2.50332e-09
0.0251148
3.53265e-09
0.0251148
7.19351e-10
0.0251148
-8.6243e-10
0.0251148
-1.02944e-09
0.0251148
-1.98989e-09
0.0251148
1.853e-09
0.0251148
3.01386e-09
0.0251148
-9.79978e-10
0.0251148
-1.78063e-09
0.0251148
7.35914e-10
0.0251148
1.59976e-09
0.0251148
2.8584e-09
0.0251148
1.77197e-09
0.0251148
-2.08584e-09
0.0251148
-2.48259e-09
0.0251148
-7.16623e-10
0.0251148
1.00192e-09
0.0251148
2.00074e-09
0.0251148
1.62513e-10
0.0251148
-2.0413e-09
0.0251148
-2.05629e-09
0.0251148
-1.20666e-09
0.0251148
5.07263e-10
0.0251148
2.08911e-09
0.0251148
1.68711e-09
0.0251148
1.0209e-09
0.0251148
6.10472e-10
0.0251148
-1.14018e-09
0.0251148
-2.08928e-09
0.0251148
-4.88711e-10
0.0251148
1.03387e-09
0.0251148
3.37574e-10
0.0251148
-1.67431e-09
0.0251148
-2.781e-09
0.0251148
-1.6823e-09
0.0251148
5.6582e-10
0.0251148
1.99185e-09
0.0251148
1.44282e-09
0.0251148
-7.43545e-11
0.0251148
-9.646e-10
0.0251148
-4.10358e-10
0.0251148
6.23103e-10
0.0251148
1.03695e-09
0.0251148
1.38031e-10
0.0251148
-3.82832e-10
0.0251148
-9.8051e-10
0.0251148
3.37554e-10
0.0251148
1.04835e-09
0.0251148
7.6399e-10
0.0251148
4.6832e-10
-6.31641e-10
0.0573232
0.00945823
0.0459554
-0.052104
0.0451817
-0.068861
0.0457606
-0.0600973
0.0398778
-0.0483297
0.033282
-0.0361153
0.0293572
-0.0265428
0.0274734
-0.0197782
0.0265634
-0.0144544
0.0260609
-0.0102388
0.025742
-0.0071016
0.0255289
-0.00486699
0.0253869
-0.00330802
0.0252932
-0.00223346
0.0252317
-0.0014996
0.0251913
-0.00100208
0.0251648
-0.000666807
0.0251475
-0.000442019
0.0251361
-0.000291976
0.0251286
-0.00019222
0.0251238
-0.000126141
0.0251206
-8.25279e-05
0.0251185
-5.3827e-05
0.0251172
-3.49986e-05
0.0251163
-2.26942e-05
0.0251158
-1.46694e-05
0.0251154
-9.45303e-06
0.0251152
-6.07738e-06
0.025115
-3.89418e-06
0.0251149
-2.48503e-06
0.0251149
-1.58215e-06
0.0251148
-1.00804e-06
0.0251148
-6.38226e-07
0.0251148
-3.99337e-07
0.0251148
-2.51583e-07
0.0251148
-1.5914e-07
0.0251148
-9.99038e-08
0.0251148
-6.16834e-08
0.0251148
-3.87359e-08
0.0251148
-2.56297e-08
0.0251148
-1.3268e-08
0.0251148
-6.74172e-09
0.0251148
-5.68855e-09
0.0251148
-3.56652e-09
0.0251148
-3.53064e-09
0.0251148
-7.58101e-10
0.0251148
1.00813e-09
0.0251148
-4.72897e-09
0.0251148
-2.66309e-09
0.0251148
3.59076e-09
0.0251148
5.9533e-10
0.0251148
-1.07711e-09
0.0251148
-6.71105e-10
0.0251148
-1.80624e-09
0.0251148
1.52948e-09
0.0251148
2.93417e-09
0.0251148
-9.55566e-10
0.0251148
-1.57628e-09
0.0251148
8.0649e-10
0.0251148
1.55914e-09
0.0251148
2.52583e-09
0.0251148
1.6142e-09
0.0251148
-1.78923e-09
0.0251148
-2.34524e-09
0.0251148
-6.04586e-10
0.0251148
9.36703e-10
0.0251148
1.67388e-09
0.0251148
4.82599e-11
0.0251148
-1.89583e-09
0.0251148
-1.85737e-09
0.0251148
-9.87435e-10
0.0251148
4.07516e-10
0.0251148
1.8227e-09
0.0251148
1.66495e-09
0.0251148
1.03085e-09
0.0251148
5.80004e-10
0.0251148
-9.53879e-10
0.0251148
-1.9794e-09
0.0251148
-5.52601e-10
0.0251148
9.38859e-10
0.0251148
2.29272e-10
0.0251148
-1.70673e-09
0.0251148
-2.66007e-09
0.0251148
-1.49602e-09
0.0251148
7.56132e-10
0.0251148
1.99424e-09
0.0251148
1.28895e-09
0.0251148
-2.7624e-10
0.0251148
-1.03192e-09
0.0251148
-3.84006e-10
0.0251148
6.75552e-10
0.0251148
1.08285e-09
0.0251148
1.37562e-10
0.0251148
-2.6649e-10
0.0251148
-9.76168e-10
0.0251148
3.93756e-10
0.0251148
1.01589e-09
0.0251148
4.62046e-10
0.0251148
4.26391e-10
-6.66787e-10
0.057582
0.00282128
0.0502082
-0.0447302
0.0384819
-0.0571346
0.0308955
-0.0525109
0.0292554
-0.0466896
0.0295956
-0.0364555
0.0292195
-0.0261667
0.0281044
-0.0186631
0.0270319
-0.0133818
0.0263066
-0.00951362
0.0258665
-0.00666144
0.0255983
-0.00459885
0.0254298
-0.00313946
0.0253211
-0.00212482
0.0252502
-0.00142864
0.0252036
-0.00095549
0.0251729
-0.000636178
0.0251528
-0.000421887
0.0251396
-0.000278758
0.0251309
-0.000183557
0.0251253
-0.000120474
0.0251216
-7.88276e-05
0.0251192
-5.14181e-05
0.0251176
-3.34333e-05
0.0251166
-2.16795e-05
0.0251159
-1.40151e-05
0.0251155
-9.03136e-06
0.0251152
-5.80536e-06
0.0251151
-3.72003e-06
0.0251149
-2.37456e-06
0.0251149
-1.51207e-06
0.0251148
-9.63089e-07
0.0251148
-6.09401e-07
0.0251148
-3.81321e-07
0.0251148
-2.40767e-07
0.0251148
-1.5264e-07
0.0251148
-9.57089e-08
0.0251148
-5.88136e-08
0.0251148
-3.62362e-08
0.0251148
-2.39469e-08
0.0251148
-1.2806e-08
0.0251148
-6.91991e-09
0.0251148
-5.7493e-09
0.0251148
-3.05872e-09
0.0251148
-3.27636e-09
0.0251148
-1.10509e-09
0.0251148
1.08214e-09
0.0251148
-4.35381e-09
0.0251148
-2.80688e-09
0.0251148
3.55071e-09
0.0251148
5.9792e-10
0.0251148
-1.25061e-09
0.0251148
-4.35958e-10
0.0251148
-1.6345e-09
0.0251148
1.31981e-09
0.0251148
2.73315e-09
0.0251148
-7.6908e-10
0.0251148
-1.52885e-09
0.0251148
8.23573e-10
0.0251148
1.52843e-09
0.0251148
2.25735e-09
0.0251148
1.56886e-09
0.0251148
-1.61746e-09
0.0251148
-2.17934e-09
0.0251148
-5.58011e-10
0.0251148
8.3076e-10
0.0251148
1.48575e-09
0.0251148
-2.60535e-11
0.0251148
-1.80165e-09
0.0251148
-1.61088e-09
0.0251148
-8.83149e-10
0.0251148
2.69533e-10
0.0251148
1.65966e-09
0.0251148
1.61138e-09
0.0251148
1.02511e-09
0.0251148
6.41125e-10
0.0251148
-8.73092e-10
0.0251148
-1.91442e-09
0.0251148
-5.57758e-10
0.0251148
8.63437e-10
0.0251148
1.52635e-10
0.0251148
-1.70316e-09
0.0251148
-2.53188e-09
0.0251148
-1.308e-09
0.0251148
8.47952e-10
0.0251148
1.95984e-09
0.0251148
1.13047e-09
0.0251148
-3.8996e-10
0.0251148
-1.05692e-09
0.0251148
-3.51685e-10
0.0251148
7.07087e-10
0.0251148
1.13478e-09
0.0251148
1.25394e-10
0.0251148
-1.94787e-10
0.0251148
-9.89515e-10
0.0251148
3.78203e-10
0.0251148
1.01124e-09
0.0251148
2.01778e-10
0.0251148
4.49465e-10
-6.95413e-10
0.0543306
0.000747503
0.047322
-0.0377217
0.0438326
-0.0536452
0.040338
-0.0490163
0.0343212
-0.0406728
0.0297628
-0.0318971
0.0278344
-0.0242383
0.0271199
-0.0179487
0.0266615
-0.0129234
0.0262476
-0.00909975
0.0259014
-0.00631518
0.0256441
-0.0043416
0.0254662
-0.00296151
0.0253468
-0.00200546
0.0252676
-0.00134942
0.0252152
-0.000903121
0.0251807
-0.000601625
0.0251579
-0.000399125
0.0251429
-0.00026379
0.0251331
-0.000173738
0.0251267
-0.000114045
0.0251225
-7.46274e-05
0.0251198
-4.86826e-05
0.025118
-3.1656e-05
0.0251168
-2.05269e-05
0.0251161
-1.32716e-05
0.0251156
-8.55235e-06
0.0251153
-5.49624e-06
0.0251151
-3.52214e-06
0.025115
-2.24918e-06
0.0251149
-1.43241e-06
0.0251148
-9.11831e-07
0.0251148
-5.76597e-07
0.0251148
-3.6098e-07
0.0251148
-2.28618e-07
0.0251148
-1.45245e-07
0.0251148
-9.07083e-08
0.0251148
-5.53673e-08
0.0251148
-3.36077e-08
0.0251148
-2.2165e-08
0.0251148
-1.22899e-08
0.0251148
-7.02292e-09
0.0251148
-5.79367e-09
0.0251148
-2.55171e-09
0.0251148
-2.90903e-09
0.0251148
-1.53342e-09
0.0251148
1.13318e-09
0.0251148
-3.8814e-09
0.0251148
-2.91267e-09
0.0251148
3.47393e-09
0.0251148
5.88239e-10
0.0251148
-1.4307e-09
0.0251148
-1.988e-10
0.0251148
-1.38867e-09
0.0251148
1.00442e-09
0.0251148
2.59994e-09
0.0251148
-6.70334e-10
0.0251148
-1.40464e-09
0.0251148
8.5044e-10
0.0251148
1.47624e-09
0.0251148
2.0041e-09
0.0251148
1.40621e-09
0.0251148
-1.4031e-09
0.0251148
-2.02353e-09
0.0251148
-4.78857e-10
0.0251148
7.85368e-10
0.0251148
1.24913e-09
0.0251148
-1.41792e-10
0.0251148
-1.65131e-09
0.0251148
-1.41461e-09
0.0251148
-7.35989e-10
0.0251148
1.93351e-10
0.0251148
1.45468e-09
0.0251148
1.55243e-09
0.0251148
1.03366e-09
0.0251148
5.93213e-10
0.0251148
-7.78495e-10
0.0251148
-1.77604e-09
0.0251148
-5.5973e-10
0.0251148
7.86171e-10
0.0251148
5.61001e-11
0.0251148
-1.69666e-09
0.0251148
-2.36821e-09
0.0251148
-1.12297e-09
0.0251148
9.54937e-10
0.0251148
1.89449e-09
0.0251148
9.71834e-10
0.0251148
-5.17494e-10
0.0251148
-1.05579e-09
0.0251148
-3.0296e-10
0.0251148
7.25447e-10
0.0251148
1.13728e-09
0.0251148
7.80381e-11
0.0251148
-7.20719e-11
0.0251148
-1.02172e-09
0.0251148
4.5385e-10
0.0251148
1.01793e-09
0.0251148
-9.36524e-11
0.0251148
4.49742e-10
-7.51647e-10
0.0546946
-0.00357138
0.0495048
-0.0325319
0.0417303
-0.0458706
0.0371695
-0.0444555
0.0356085
-0.0391119
0.03397
-0.0302586
0.0313455
-0.0216138
0.0289235
-0.0155267
0.0273767
-0.0113765
0.026513
-0.00823612
0.0260143
-0.00581645
0.0257045
-0.00403178
0.0255038
-0.00276076
0.0253716
-0.00187328
0.0252841
-0.00126197
0.0252262
-0.000845232
0.025188
-0.00056336
0.0251627
-0.00037388
0.0251461
-0.000247171
0.0251352
-0.000162825
0.025128
-0.000106896
0.0251234
-6.99542e-05
0.0251203
-4.5638e-05
0.0251183
-2.96779e-05
0.0251171
-1.92438e-05
0.0251162
-1.24434e-05
0.0251157
-8.01896e-06
0.0251154
-5.15213e-06
0.0251151
-3.30182e-06
0.025115
-2.10961e-06
0.0251149
-1.34361e-06
0.0251149
-8.54591e-07
0.0251148
-5.40073e-07
0.0251148
-3.38489e-07
0.0251148
-2.15155e-07
0.0251148
-1.36896e-07
0.0251148
-8.4936e-08
0.0251148
-5.14477e-08
0.0251148
-3.08612e-08
0.0251148
-2.03752e-08
0.0251148
-1.17105e-08
0.0251148
-7.02282e-09
0.0251148
-5.765e-09
0.0251148
-2.07024e-09
0.0251148
-2.51309e-09
0.0251148
-1.87726e-09
0.0251148
1.11237e-09
0.0251148
-3.364e-09
0.0251148
-2.98798e-09
0.0251148
3.30592e-09
0.0251148
6.636e-10
0.0251148
-1.57552e-09
0.0251148
-2.57052e-11
0.0251148
-1.17688e-09
0.0251148
7.60864e-10
0.0251148
2.40721e-09
0.0251148
-4.94583e-10
0.0251148
-1.34504e-09
0.0251148
8.15003e-10
0.0251148
1.43892e-09
0.0251148
1.76652e-09
0.0251148
1.31359e-09
0.0251148
-1.24413e-09
0.0251148
-1.85088e-09
0.0251148
-4.36945e-10
0.0251148
6.97738e-10
0.0251148
1.08318e-09
0.0251148
-1.91917e-10
0.0251148
-1.53338e-09
0.0251148
-1.20534e-09
0.0251148
-6.37197e-10
0.0251148
8.39221e-11
0.0251148