/*--------------------------------*- C++ -*----------------------------------*\
| =========                 |                                                 |
| \\      /  F ield         | OpenFOAM: The Open Source CFD Toolbox           |
|  \\    /   O peration     | Version:  2.4.0                                 |
|   \\  /    A nd           | Web:      www.OpenFOAM.org                      |
|    \\/     M anipulation  |                                                 |
\*---------------------------------------------------------------------------*/
FoamFile
{
    version     2.0;
    format      ascii;
    class       volScalarField;
    location    "0.56";
    object      k_0;
}
// * * * * * * * * * * * * * * * * * * * * * * * * * * * * * * * * * * * * * //

dimensions      [0 2 -2 0 0 0 0];

internalField   nonuniform List<scalar> 
8800
(
8.11816
10.2671
8.79457
6.81738
5.71495
4.96213
4.53705
4.135
3.92547
3.65661
3.5513
3.36408
3.29758
3.15697
3.10185
2.98222
2.92115
2.80362
2.74296
2.55042
1.40374
4.35219
5.32061
5.28684
5.13283
4.8009
4.58606
4.27882
4.12855
3.87515
3.77797
3.58622
3.51764
3.37708
3.32765
3.21348
3.17468
3.07658
3.01253
2.96628
0.0843876
0.729044
1.56746
1.93931
2.27738
2.43505
2.5804
2.59493
2.62703
2.60123
2.58887
2.54054
2.52374
2.4738
2.45902
2.41157
2.40554
2.36558
2.35123
2.31105
0.00335428
0.0696635
0.262269
0.41817
0.581315
0.702181
0.840221
0.922839
1.02999
1.09414
1.16404
1.20836
1.26249
1.29774
1.33791
1.36394
1.40424
1.42324
1.46499
1.46809
0.000123187
0.00495382
0.0240115
0.0571485
0.0807002
0.124649
0.162413
0.2066
0.239307
0.291904
0.315181
0.36147
0.384059
0.430577
0.452376
0.500195
0.523154
0.575295
0.59941
0.658553
2.5094e-05
0.000309474
0.00156741
0.00485877
0.00707699
0.0124525
0.0169696
0.0268795
0.0325322
0.0455886
0.0515938
0.0646594
0.0713464
0.08597
0.093061
0.110142
0.118519
0.139423
0.148734
0.175296
2.16964e-05
4.3365e-05
0.000124868
0.000362127
0.000503218
0.000825372
0.00115735
0.00203718
0.00259501
0.00406549
0.00477352
0.00644722
0.00742328
0.00954799
0.0107402
0.0136318
0.0152559
0.0192147
0.0211103
0.0266571
2.09532e-05
2.9076e-05
4.83339e-05
9.18859e-05
0.000105277
0.000109658
0.000119477
0.000156497
0.000195398
0.00031771
0.000363368
0.000464364
0.000525363
0.000667858
0.000744096
0.000947396
0.00108396
0.00137248
0.00159446
0.00217728
2.07948e-05
2.90205e-05
3.79367e-05
6.05834e-05
7.90526e-05
8.08022e-05
7.78048e-05
7.38436e-05
7.34939e-05
8.18656e-05
9.67687e-05
0.000105536
0.000112184
0.000114901
0.000114077
0.000115163
0.00011718
0.000123059
0.000145283
0.000172924
2.07482e-05
2.87113e-05
3.61294e-05
5.09389e-05
6.32278e-05
7.19107e-05
7.37179e-05
7.34849e-05
6.92151e-05
6.63036e-05
6.63512e-05
7.03638e-05
8.10594e-05
8.60792e-05
8.7805e-05
8.7271e-05
8.37179e-05
8.03271e-05
7.95733e-05
8.16369e-05
2.05626e-05
2.70773e-05
4.77954e-05
5.4723e-05
5.59043e-05
6.03764e-05
6.62779e-05
7.30655e-05
7.57768e-05
7.60377e-05
7.45843e-05
7.30066e-05
7.33198e-05
7.37284e-05
7.5616e-05
8.23626e-05
8.45961e-05
8.46192e-05
8.46809e-05
8.69841e-05
2.07517e-05
3.10088e-05
4.01898e-05
5.23261e-05
6.98613e-05
7.7581e-05
7.9729e-05
7.94774e-05
7.81134e-05
7.86852e-05
8.15579e-05
9.57717e-05
0.00010517
0.000109457
0.000112177
0.00012247
0.000133448
0.000152576
0.000170791
0.000226574
2.10947e-05
2.90573e-05
4.43775e-05
8.53144e-05
9.66323e-05
0.000111456
0.000124864
0.000166347
0.000204195
0.000296179
0.000339742
0.00044705
0.000505638
0.000657339
0.000758342
0.00104934
0.00125843
0.00172347
0.00203179
0.00280927
2.16122e-05
4.29891e-05
0.000122548
0.000360829
0.000498937
0.000851629
0.00118723
0.00204578
0.00264197
0.00399365
0.00467956
0.00637018
0.00733781
0.0096954
0.0110359
0.0144902
0.0165613
0.0211866
0.0239397
0.0314544
2.50058e-05
0.000306901
0.00149368
0.00481454
0.00704674
0.0126819
0.0171509
0.0270438
0.0328538
0.0452255
0.0510864
0.0646109
0.0714616
0.087082
0.0947416
0.11372
0.123713
0.146694
0.158985
0.193228
0.00012351
0.00492765
0.0224886
0.057901
0.08051
0.127044
0.160074
0.208947
0.240315
0.29079
0.313621
0.362363
0.385275
0.434919
0.456831
0.509868
0.53455
0.593058
0.620839
0.693892
0.00336516
0.0694379
0.261227
0.418686
0.581223
0.705163
0.836432
0.928004
1.02561
1.09901
1.15453
1.21807
1.25903
1.31112
1.33463
1.3865
1.4077
1.45824
1.47837
1.52815
0.0845442
0.726762
1.56897
1.93666
2.28233
2.43071
2.58275
2.59621
2.627
2.59911
2.58836
2.54188
2.52724
2.4765
2.46225
2.42091
2.41131
2.38128
2.36912
2.34119
1.40567
4.34897
5.32208
5.28588
5.13377
4.79627
4.59155
4.27452
4.13029
3.87014
3.7799
3.57685
3.51994
3.36531
3.32789
3.19597
3.16574
3.04551
3.00404
2.89951
8.11962
10.2634
8.79732
6.81348
5.7184
4.95671
4.54134
4.1289
3.92705
3.64812
3.55526
3.34545
3.29815
3.12742
3.09767
2.93007
2.89293
2.71309
2.64818
2.43121
1.76009
1.27113
0.99161
0.829399
0.742623
0.692012
0.659355
0.63369
0.615433
0.60163
0.591599
0.582045
0.573399
0.564667
0.554556
0.544498
0.533587
0.525931
0.513597
0.505035
0.491206
0.480865
0.466068
0.455275
0.44063
0.434665
0.426854
0.426097
0.424227
0.425417
0.425218
0.426777
0.426027
0.426628
0.425273
0.424493
0.421159
0.418694
0.412808
0.406813
0.398832
0.389152
0.373715
0.364605
0.344479
0.333509
0.312579
0.300156
0.288423
0.280816
0.280539
0.282432
0.287636
0.296581
0.310176
0.321084
0.340346
0.352059
0.369209
0.380313
0.395766
0.409188
0.426019
0.438168
0.441239
0.438004
0.428784
0.414115
0.384856
0.33624
0.283972
0.239542
0.199855
0.165506
0.142008
0.128555
0.121782
0.120263
0.120354
0.122942
0.125824
0.136462
0.136846
0.139726
0.134683
0.132936
0.122848
0.118305
0.103864
0.100889
0.0917033
0.0934259
0.0903146
0.0963662
0.0953433
0.106096
0.106559
0.122452
0.124262
0.146563
0.148801
0.172198
0.174917
0.192004
0.194109
0.204626
0.207293
0.213587
0.216514
0.224751
0.229133
0.23158
0.237688
0.242848
0.245474
0.246219
0.249075
0.248481
0.249194
0.248598
0.244374
0.243312
0.239401
0.237019
0.229417
0.22682
0.220679
0.21741
0.210507
0.205106
0.198625
0.191764
0.18052
0.174202
0.16084
0.151651
0.132466
0.122209
0.0989856
0.0847427
0.0602964
0.0427633
0.0274749
0.0204451
0.0157265
0.0137865
0.0129006
0.0135763
0.0140338
0.0144612
0.0145787
0.0160084
0.0160351
0.0151424
0.012076
0.011691
0.0111457
0.0111946
0.00938681
0.00779259
0.00639228
0.00611472
0.0061064
0.00599153
0.00615739
0.00621589
0.00646581
0.00728975
0.00823033
0.0100873
0.0155523
0.0204366
0.0348685
0.0467812
0.0805043
0.100817
0.12046
0.124527
0.122894
0.123218
0.117037
0.115422
0.112953
0.117795
0.126265
0.137682
0.14543
0.15468
0.15924
0.16525
0.166529
0.168973
0.161887
0.148719
0.136218
0.12225
0.117094
0.1186
0.137006
0.280661
2.50123
2.03747
1.70038
1.46563
1.29527
1.16938
1.07412
1.00096
0.939514
0.890335
0.848185
0.817077
0.786548
0.763306
0.738701
0.721827
0.700443
0.688528
0.671226
0.663599
0.648364
0.641048
0.626271
0.61918
0.604355
0.597374
0.583349
0.577863
0.566758
0.562828
0.554709
0.551845
0.545614
0.543347
0.538092
0.536226
0.531718
0.530253
0.526492
0.52437
0.519286
0.515809
0.507696
0.501738
0.493548
0.480174
0.473092
0.45833
0.451885
0.439328
0.435778
0.428146
0.42726
0.42491
0.426105
0.426008
0.427418
0.427313
0.42868
0.428743
0.430899
0.431435
0.433287
0.433916
0.436062
0.437606
0.443866
0.450084
0.455135
0.453163
0.450505
0.438652
0.427447
0.40276
0.36048
0.292457
0.233763
0.191544
0.159005
0.145078
0.131007
0.126441
0.117486
0.113273
0.10579
0.102865
0.0953395
0.0934642
0.0889843
0.0899543
0.0884423
0.0927156
0.0918385
0.100046
0.101024
0.115747
0.117999
0.142669
0.148005
0.18015
0.188077
0.220815
0.228167
0.254866
0.26201
0.280525
0.284278
0.299961
0.298908
0.308814
0.303348
0.313719
0.30473
0.309109
0.298962
0.300806
0.28959
0.289159
0.275801
0.274863
0.261679
0.259225
0.244536
0.240897
0.226711
0.222377
0.206227
0.200548
0.18461
0.176908
0.156587
0.148252
0.125025
0.11461
0.0910378
0.0805752
0.0579058
0.047827
0.0319741
0.0256349
0.0175542
0.0149172
0.0111327
0.0110359
0.0104451
0.0108975
0.0113222
0.0128398
0.0132097
0.0136168
0.0138577
0.015912
0.0158276
0.0157932
0.0144955
0.0150029
0.0143217
0.0139905
0.0119734
0.0106534
0.00909607
0.00739473
0.00645147
0.00610694
0.00615429
0.0065815
0.00696616
0.00825782
0.0098599
0.0115608
0.0166218
0.0197119
0.0278603
0.0326814
0.0430852
0.0594513
0.0695294
0.08589
0.0860699
0.0888417
0.0880546
0.0927327
0.104219
0.118837
0.133958
0.145811
0.151102
0.157345
0.161343
0.163812
0.165188
0.169427
0.172272
0.172006
0.168182
0.147198
0.137718
0.125382
0.126266
0.143239
2.06457
1.80986
1.58786
1.42278
1.29326
1.19294
1.10558
1.03601
0.969806
0.917276
0.865708
0.828318
0.792015
0.766424
0.739653
0.721973
0.69802
0.682212
0.659581
0.646684
0.628576
0.619625
0.606358
0.600313
0.589258
0.582877
0.570732
0.563256
0.550745
0.543495
0.532783
0.527748
0.521005
0.517666
0.515162
0.51191
0.511021
0.508202
0.506867
0.503841
0.502824
0.50033
0.499352
0.496279
0.494923
0.490489
0.488378
0.482526
0.479629
0.472779
0.469753
0.463143
0.460408
0.45474
0.452056
0.44673
0.443906
0.436313
0.433102
0.425474
0.422197
0.41305
0.410161
0.401937
0.400236
0.393877
0.394252
0.391388
0.393279
0.392844
0.397611
0.400321
0.411792
0.414436
0.420381
0.416604
0.410431
0.385281
0.364139
0.310626
0.284861
0.226618
0.205122
0.168793
0.158943
0.140268
0.13602
0.127306
0.126592
0.126595
0.12696
0.129574
0.131073
0.140046
0.141972
0.15655
0.161184
0.185938
0.192889
0.223474
0.231349
0.260338
0.266864
0.28922
0.291808
0.309795
0.306564
0.317959
0.307867
0.319981
0.304423
0.310141
0.292889
0.294186
0.274768
0.273435
0.250611
0.247507
0.223911
0.219676
0.194072
0.188239
0.164932
0.158105
0.133206
0.127101
0.104766
0.0974327
0.0782534
0.0711412
0.0529667
0.0480513
0.0353898
0.0311735
0.022716
0.0194931
0.0139296
0.0125114
0.00930153
0.008599
0.00713255
0.00736076
0.00712235
0.00824903
0.00841082
0.00981194
0.0110989
0.0126392
0.0136053
0.0139018
0.0159852
0.0165147
0.0188194
0.0179085
0.0203492
0.0198368
0.0244934
0.0216717
0.0266817
0.0235603
0.0311699
0.023709
0.0270998
0.0212934
0.0258972
0.0207779
0.0211565
0.0177225
0.0185364
0.0180539
0.0205723
0.022055
0.0270142
0.0295195
0.0319654
0.0377542
0.0417079
0.0501533
0.0566473
0.0622717
0.0757218
0.095456
0.126917
0.157175
0.187068
0.205621
0.21133
0.211925
0.210582
0.196297
0.181675
0.176382
0.175472
0.17564
0.177169
0.173546
0.15585
0.140097
0.127762
0.125041
1.366
1.24893
1.12415
1.03443
0.952175
0.894792
0.840493
0.798662
0.760413
0.723362
0.68654
0.652894
0.619428
0.595289
0.570327
0.556713
0.541212
0.52828
0.514747
0.500414
0.484811
0.472595
0.45721
0.449779
0.440447
0.435212
0.429396
0.423542
0.417098
0.408659
0.399246
0.390919
0.381077
0.37463
0.369213
0.366757
0.366704
0.367254
0.369985
0.371925
0.373623
0.374381
0.375837
0.376251
0.377446
0.377705
0.379148
0.381059
0.38161
0.381296
0.380573
0.378735
0.376152
0.37178
0.365973
0.361069
0.353511
0.345702
0.340028
0.329088
0.323657
0.313123
0.307593
0.296988
0.29363
0.285803
0.282311
0.277283
0.276611
0.276786
0.278961
0.282005
0.291843
0.300571
0.319001
0.333958
0.35737
0.35996
0.364467
0.35771
0.357484
0.344524
0.339799
0.318279
0.311742
0.289609
0.284742
0.267832
0.266398
0.258699
0.261326
0.257048
0.26092
0.260934
0.262465
0.268183
0.268593
0.280122
0.281666
0.289691
0.291802
0.303609
0.301383
0.309317
0.302937
0.308737
0.296521
0.301072
0.282995
0.283635
0.261411
0.255604
0.226825
0.220477
0.188914
0.180032
0.148056
0.13853
0.108657
0.101682
0.0776827
0.0712639
0.0548992
0.0507186
0.0388116
0.036157
0.0281805
0.0256726
0.0199935
0.0181386
0.0135579
0.0122471
0.009462
0.00823229
0.00680308
0.00595348
0.00532975
0.00498575
0.00489472
0.00491611
0.00509801
0.00553655
0.0058548
0.00692405
0.00746741
0.00875568
0.0104163
0.0120372
0.0126668
0.0132323
0.0148133
0.016208
0.0192138
0.0199485
0.0218109
0.0224029
0.027841
0.0277715
0.0327847
0.032465
0.041844
0.0395456
0.0459438
0.0434916
0.0511488
0.0497482
0.0522188
0.0470304
0.0473505
0.0452083
0.0457363
0.0435631
0.0438645
0.0414573
0.0374865
0.0360971
0.0359484
0.0371017
0.0397342
0.0487604
0.0797394
0.110767
0.142899
0.174793
0.191641
0.206905
0.221107
0.225746
0.224629
0.221288
0.209306
0.201318
0.190414
0.188164
0.187166
0.186297
0.182396
0.159003
0.137287
0.124547
0.630407
0.597066
0.542787
0.509262
0.469182
0.443151
0.423667
0.404791
0.397345
0.384598
0.372762
0.360245
0.341008
0.327405
0.309951
0.299641
0.291901
0.285755
0.283277
0.280138
0.272954
0.266637
0.25348
0.245022
0.234744
0.228469
0.224067
0.222212
0.222065
0.222425
0.222688
0.222455
0.217312
0.209276
0.2001
0.191713
0.187018
0.185451
0.185465
0.186759
0.19137
0.197829
0.202922
0.206437
0.207002
0.207076
0.205718
0.20499
0.203079
0.201896
0.201249
0.201672
0.20165
0.201365
0.200878
0.198575
0.196823
0.190659
0.18579
0.177776
0.169628
0.161673
0.154541
0.148032
0.143276
0.139564
0.13832
0.137828
0.13752
0.138417
0.139708
0.141835
0.147002
0.151714
0.159428
0.17587
0.188002
0.212182
0.23917
0.255642
0.28056
0.288787
0.299349
0.299229
0.301026
0.297407
0.300602
0.297246
0.301466
0.298918
0.305035
0.30175
0.309191
0.306976
0.311992
0.310834
0.313455
0.310267
0.311534
0.307066
0.305771
0.302546
0.293925
0.289844
0.27205
0.263414
0.240642
0.231735
0.20258
0.188721
0.157063
0.142901
0.109262
0.0994427
0.0740669
0.0658999
0.0485959
0.0434614
0.0316404
0.0287917
0.0215005
0.019357
0.0146282
0.0133779
0.0103584
0.00953434
0.00766963
0.00689725
0.00574652
0.00510248
0.00437157
0.00394892
0.00368487
0.00345769
0.00349001
0.00354101
0.0037317
0.00384439
0.00427044
0.00445305
0.00504554
0.00535653
0.00617718
0.00693718
0.00764727
0.00922878
0.0118286
0.012801
0.0130442
0.0129631
0.0130865
0.0143061
0.015178
0.0162773
0.0162709
0.0162494
0.015801
0.0171475
0.0174633
0.0182569
0.018729
0.0213733
0.0243282
0.0268787
0.0271662
0.0299855
0.0306474
0.0330143
0.034217
0.0410269
0.0429976
0.0477002
0.0475506
0.0481998
0.0464638
0.0399583
0.0366217
0.0353607
0.0365698
0.0583128
0.0861592
0.111384
0.135185
0.160446
0.185159
0.207802
0.213694
0.213289
0.206507
0.205135
0.200523
0.197945
0.191827
0.189948
0.192231
0.194777
0.19514
0.188896
0.159167
0.130676
0.172497
0.168334
0.158117
0.150181
0.139392
0.131554
0.12684
0.122932
0.122182
0.121204
0.120163
0.119314
0.115353
0.1112
0.104804
0.100297
0.0980205
0.0958282
0.0955991
0.0954687
0.0955053
0.0955985
0.094
0.0893288
0.0837853
0.0788834
0.0759729
0.0741591
0.0741514
0.0749144
0.0766944
0.0783648
0.0793396
0.0798216
0.0792265
0.0749829
0.0700001
0.0661742
0.0642872
0.0639699
0.0641145
0.0658483
0.0699501
0.0743325
0.0778786
0.0798752
0.0804109
0.0799341
0.0786117
0.0762305
0.0744671
0.0724359
0.0716832
0.0712278
0.0711103
0.0707809
0.0704898
0.0693659
0.0682308
0.0658493
0.0622001
0.0590273
0.0544397
0.0511124
0.0482257
0.0454411
0.0441728
0.0441514
0.0441698
0.0453979
0.046528
0.0490126
0.0508485
0.0544249
0.0570133
0.0639016
0.0687673
0.0783596
0.0893137
0.101593
0.111817
0.135182
0.143651
0.162373
0.175882
0.185747
0.200014
0.204848
0.212845
0.218031
0.225611
0.226332
0.232994
0.23216
0.236302
0.233864
0.236602
0.229926
0.231601
0.221663
0.217831
0.202324
0.195396
0.172699
0.161784
0.139926
0.121029
0.10281
0.084337
0.066187
0.0547196
0.0444278
0.0332879
0.0289306
0.0216298
0.0180118
0.0139731
0.0116214
0.00889436
0.00765238
0.00608624
0.00528888
0.00438391
0.00395367
0.00354426
0.00320273
0.00310276
0.00287069
0.00284421
0.0027538
0.00277287
0.00276861
0.00289828
0.00298587
0.00333854
0.00352528
0.00422756
0.00450258
0.00543318
0.00581343
0.00685134
0.0071906
0.00828517
0.00888015
0.00981374
0.0123647
0.013577
0.0162282
0.0169738
0.0186492
0.0188148
0.019532
0.0198161
0.0211961
0.0217748
0.0211899
0.020397
0.0184356
0.0196133
0.0188208
0.0209564
0.0213537
0.0267819
0.0264873
0.0275163
0.0269731
0.0318416
0.0355251
0.0519375
0.0549065
0.0556186
0.0488749
0.047646
0.0477357
0.0476551
0.0439869
0.0406579
0.0401844
0.0453105
0.0691541
0.0896622
0.109393
0.131703
0.168165
0.199766
0.221887
0.232286
0.234171
0.219483
0.188809
0.172627
0.167686
0.167887
0.169777
0.179875
0.189718
0.197281
0.197551
0.192903
0.152513
0.0267537
0.0266008
0.0259478
0.0250714
0.0237218
0.0223749
0.0215247
0.0212624
0.0213392
0.0216129
0.0219304
0.0221961
0.0221369
0.021825
0.0206428
0.0196536
0.0191799
0.0189325
0.0189911
0.0193991
0.0200732
0.020639
0.0207775
0.0206296
0.0193048
0.017575
0.0162759
0.015186
0.0147685
0.0147024
0.0154114
0.0173089
0.0188379
0.020073
0.0206317
0.0206157
0.0194788
0.0175182
0.0159058
0.0149473
0.0145044
0.0144771
0.0148148
0.0168007
0.0191499
0.021303
0.0227541
0.0232936
0.0233214
0.0226771
0.0214373
0.0201736
0.0187487
0.017803
0.0173866
0.0173508
0.0178682
0.0180917
0.0181731
0.0183088
0.0181324
0.0178041
0.016358
0.0147851
0.0133347
0.0120049
0.0112851
0.0112165
0.0111504
0.0115265
0.0124071
0.0134926
0.0149957
0.0163589
0.017055
0.0191313
0.0210739
0.0227886
0.027333
0.0308845
0.034176
0.0430954
0.0461126
0.0535885
0.058798
0.0656673
0.0699721
0.076798
0.079063
0.0855305
0.0872106
0.089602
0.0923448
0.0924973
0.0930772
0.0921759
0.0923615
0.08898
0.0881425
0.0836244
0.0803657
0.0717755
0.0678117
0.0566273
0.0515879
0.042518
0.0350086
0.0292489
0.0233032
0.0188636
0.0149948
0.0125089
0.0094654
0.00810281
0.00626926
0.0052388
0.00426958
0.00351062
0.00312058
0.00262814
0.00252751
0.00228854
0.00232358
0.00229885
0.00243154
0.00244171
0.00258329
0.00261959
0.0028293
0.00293822
0.00337818
0.00362345
0.00454411
0.00503813
0.00656872
0.00719558
0.00943802
0.0100496
0.0123722
0.0130217
0.0149021
0.0151265
0.0167938
0.0167573
0.0182168
0.0184481
0.0202491
0.0206612
0.0221697
0.0217886
0.0219884
0.0212525
0.0211482
0.0216625
0.0228441
0.0228548
0.0221193
0.0198962
0.0193741
0.0186221
0.0186714
0.0188638
0.0199275
0.0200811
0.0204191
0.0219315
0.03548
0.0423128
0.057064
0.057314
0.0585315
0.0516661
0.0466174
0.0444608
0.0448833
0.0448672
0.0457094
0.0485572
0.0547797
0.0620189
0.0685382
0.104122
0.177926
0.225151
0.240479
0.241273
0.238714
0.223654
0.20301
0.178629
0.159552
0.150946
0.15031
0.15369
0.158007
0.165948
0.186515
0.193456
0.193665
0.180101
0.00219975
0.00219669
0.00217253
0.00211517
0.00200586
0.00188402
0.00181879
0.00179947
0.00180634
0.00186606
0.00195326
0.00203263
0.00205059
0.00205321
0.00202008
0.00196404
0.001941
0.00192998
0.00194571
0.00202748
0.00212828
0.00220069
0.00222251
0.00220147
0.00204463
0.00183769
0.001679
0.00154946
0.00149176
0.00148977
0.00168797
0.00215624
0.00255249
0.00287236
0.00300139
0.00299406
0.00273577
0.00237549
0.00205681
0.00184344
0.00172112
0.00169056
0.00173012
0.00213571
0.00295196
0.003657
0.00424671
0.00447755
0.00453719
0.00438238
0.00397755
0.00349128
0.00303072
0.00267874
0.00251047
0.00248815
0.00279142
0.00304091
0.00333246
0.00347157
0.00349568
0.00349699
0.00321917
0.00280899
0.00252137
0.00216255
0.00206256
0.00201661
0.00201032
0.00212678
0.00241822
0.00265564
0.00322108
0.00355366
0.00375444
0.00438499
0.0048241
0.0052826
0.00658522
0.00742923
0.00872247
0.0112635
0.0122535
0.0149753
0.0167662
0.0191477
0.0210718
0.0229952
0.0237137
0.02645
0.0267058
0.0275007
0.0275403
0.0277934
0.0274672
0.0276269
0.0267844
0.0262418
0.0248568
0.0238537
0.0213087
0.0199747
0.0167906
0.0152154
0.0121594
0.0109197
0.00835266
0.00743774
0.00557635
0.00497019
0.00374135
0.00339339
0.00266893
0.00247939
0.00207216
0.00200265
0.00181818
0.00182427
0.00179848
0.00180886
0.0018605
0.00190888
0.00211565
0.00226412
0.00270334
0.00294457
0.00373911
0.0041353
0.00546582
0.00609653
0.00812554
0.0091122
0.0123585
0.0137711
0.0179098
0.0192731
0.0242713
0.0250984
0.0296062
0.0301672
0.0327663
0.0325019
0.034213
0.0328283
0.0341004
0.0326197
0.033519
0.0321722
0.0332138
0.0309605
0.030927
0.0284635
0.0278896
0.0258611
0.025821
0.0244374
0.0239296
0.0220857
0.0218598
0.0204142
0.0206633
0.0194616
0.0192745
0.0192558
0.0200191
0.0219581
0.0288543
0.0393418
0.0481445
0.0484699
0.0494622
0.0474051
0.0463239
0.0461207
0.0487237
0.0554384
0.061834
0.0640984
0.0644743
0.0658792
0.0965187
0.211488
0.281015
0.294836
0.292522
0.273741
0.245192
0.219176
0.190646
0.168562
0.15396
0.146359
0.145076
0.152723
0.160676
0.165321
0.168904
0.178698
0.186951
0.186709
0.000176857
0.000178669
0.000183565
0.00018319
0.000181492
0.000177567
0.000173693
0.000171638
0.000171726
0.000174171
0.000180697
0.000185972
0.00019018
0.000190888
0.000191131
0.000187056
0.000183029
0.00018048
0.000180195
0.00018078
0.000184104
0.000186044
0.000188359
0.00018837
0.00018896
0.000188708
0.000187656
0.000179491
0.000173259
0.00017079
0.000175819
0.000202948
0.000225441
0.000246122
0.000252789
0.000253669
0.000253205
0.000252075
0.000248754
0.000234911
0.000227143
0.000224414
0.000225394
0.000236407
0.000303622
0.000379981
0.000451632
0.000489358
0.000499208
0.000495884
0.000469936
0.000423274
0.000372
0.000331027
0.000305472
0.000301208
0.000310571
0.000330856
0.000349449
0.000358398
0.000369828
0.000377151
0.000377609
0.000376287
0.00034753
0.000307369
0.000293055
0.000282811
0.00028065
0.000302057
0.000327687
0.000350927
0.000447448
0.000509081
0.000585424
0.00075777
0.00086153
0.000989709
0.00129802
0.00146951
0.0018328
0.00240992
0.00267064
0.00339033
0.00395464
0.00429133
0.00514042
0.00551087
0.00574477
0.00652281
0.00664829
0.0069259
0.00713606
0.00715293
0.00702113
0.00704469
0.00666842
0.00647584
0.0058722
0.00554652
0.0046978
0.00435254
0.00356068
0.00327045
0.00257947
0.00236582
0.00186764
0.00172469
0.00141866
0.00136798
0.001275
0.00131349
0.00130768
0.00139178
0.00141199
0.00157086
0.0016272
0.00186969
0.0020232
0.00250066
0.0028811
0.0034708
0.00448267
0.00513073
0.00656594
0.00737596
0.00980675
0.0111008
0.0151517
0.017125
0.0230388
0.0257613
0.0343094
0.0374829
0.0468187
0.0491666
0.0586673
0.059041
0.0656934
0.063792
0.0668869
0.0638982
0.0647925
0.0598352
0.0597622
0.0548795
0.053795
0.0492809
0.0493552
0.0450864
0.0437925
0.0389856
0.0377409
0.0338267
0.0326359
0.028796
0.0283391
0.0263176
0.0256933
0.0236505
0.0233723
0.0216914
0.0215778
0.022578
0.0240929
0.0246401
0.0256663
0.0302077
0.0461132
0.0529449
0.0574354
0.0559248
0.0591147
0.0632165
0.0778994
0.136471
0.160346
0.164886
0.181853
0.266873
0.329371
0.346231
0.33961
0.327881
0.315558
0.291515
0.252472
0.213831
0.184147
0.165088
0.150777
0.144444
0.145269
0.155047
0.165584
0.17087
0.172755
0.173505
0.174744
0.179928
8.19425e-05
8.28441e-05
8.6196e-05
8.91641e-05
9.00602e-05
9.07996e-05
9.12132e-05
9.17159e-05
9.29145e-05
9.42136e-05
9.55161e-05
9.68446e-05
9.75745e-05
9.79928e-05
9.83721e-05
9.8405e-05
9.82793e-05
9.75326e-05
9.68547e-05
9.64728e-05
9.64433e-05
9.75627e-05
9.8095e-05
9.89086e-05
9.88016e-05
9.87025e-05
9.8843e-05
9.96876e-05
0.000100453
0.000100045
9.8406e-05
9.74347e-05
9.77393e-05
0.000101786
0.000105244
0.000106428
0.000106167
0.00010558
0.000105805
0.000108934
0.000112785
0.000114042
0.000113412
0.000111448
0.000110696
0.000110888
0.000114088
0.000116826
0.000117176
0.000117408
0.000119222
0.000121423
0.00012552
0.000127882
0.000128114
0.000127268
0.000126529
0.000127284
0.000128054
0.000132669
0.000135289
0.000132468
0.000132859
0.000131976
0.000131882
0.000133433
0.00014058
0.000139229
0.000139001
0.000139754
0.000140485
0.000144922
0.000157035
0.000166691
0.000176733
0.000200627
0.000215092
0.000243661
0.00029466
0.000321792
0.000386611
0.000461209
0.000503208
0.000612755
0.000721991
0.000773526
0.000949403
0.00106766
0.0011372
0.00132264
0.00135845
0.00141937
0.00143038
0.00140981
0.00133027
0.00130401
0.00118317
0.00111555
0.00101918
0.000966268
0.000882808
0.000866053
0.000786909
0.000776819
0.000761978
0.000774738
0.000783002
0.000836812
0.000896619
0.00106374
0.00117512
0.00146222
0.00165748
0.00211527
0.00239031
0.00310001
0.00358644
0.00474574
0.00552169
0.00747617
0.00864676
0.0113831
0.0129217
0.0163452
0.0192535
0.0222553
0.0283957
0.0326376
0.0424268
0.0479172
0.0624874
0.0688579
0.0880418
0.0939583
0.11335
0.116834
0.133415
0.1308
0.140399
0.130964
0.134659
0.123616
0.122345
0.109442
0.106967
0.0946573
0.0908564
0.0797016
0.0781849
0.0673568
0.0635707
0.0539387
0.051279
0.0440535
0.0421106
0.0367366
0.0353671
0.0313252
0.0304284
0.0281022
0.0270217
0.024473
0.0245081
0.0254259
0.0258208
0.0248562
0.0254309
0.0320746
0.063283
0.0739427
0.0736064
0.0710588
0.0854412
0.136589
0.218073
0.278796
0.293538
0.299004
0.309775
0.324168
0.323647
0.322945
0.330371
0.329839
0.321109
0.287171
0.247666
0.208478
0.19358
0.188585
0.185234
0.172108
0.169054
0.177603
0.190888
0.195005
0.191698
0.180652
0.174838
0.174642
8.75813e-05
8.8554e-05
9.20448e-05
9.37689e-05
9.41724e-05
9.42012e-05
9.48042e-05
9.54825e-05
9.66975e-05
9.82483e-05
0.00010032
0.000102586
0.000105061
0.000108019
0.000110178
0.000110798
0.000111143
0.00011078
0.000109823
0.000107955
0.000106735
0.000105919
0.000105809
0.000108815
0.000115898
0.000122966
0.000127892
0.000130951
0.000132333
0.000132189
0.000128447
0.00012111
0.000115633
0.000114423
0.000118467
0.000134022
0.000149103
0.000156814
0.00016043
0.000160518
0.000156863
0.000147633
0.000138134
0.000128606
0.000120669
0.00011616
0.000115126
0.000119417
0.000131943
0.000143764
0.000154703
0.000160406
0.000166714
0.000170933
0.000170141
0.000168762
0.000162975
0.000152467
0.00014715
0.000140495
0.00014026
0.000142949
0.000149015
0.000173627
0.000198275
0.000215609
0.000235004
0.000241018
0.000242621
0.000233445
0.000210594
0.000186772
0.000175444
0.000168927
0.00017164
0.000172963
0.000178825
0.000187087
0.000191137
0.000191183
0.00019291
0.000196298
0.000196668
0.000204465
0.000211624
0.000222786
0.000249464
0.000276504
0.000304445
0.000347269
0.000351244
0.000355965
0.000352619
0.000351885
0.00035065
0.000353821
0.00035373
0.000360995
0.000371761
0.000394354
0.00042672
0.000484577
0.000560006
0.000653189
0.00080552
0.00116679
0.00140453
0.00200945
0.00252999
0.00346782
0.00411319
0.00542626
0.00619781
0.00781773
0.00884295
0.0111138
0.0126099
0.0160416
0.0180055
0.0228714
0.0255356
0.0321711
0.0357087
0.0452992
0.0505736
0.0654749
0.0733681
0.0942107
0.105449
0.12713
0.153835
0.169158
0.201304
0.211797
0.242176
0.246231
0.26887
0.257802
0.274623
0.248218
0.259123
0.227517
0.228926
0.20137
0.194794
0.168199
0.158385
0.132884
0.126478
0.103308
0.0968373
0.0813945
0.0770177
0.0630069
0.0598034
0.0517453
0.0485496
0.0401153
0.0383501
0.0359622
0.0314088
0.0288093
0.0308938
0.0317768
0.0308804
0.0276386
0.0273125
0.0334378
0.0751074
0.122885
0.136067
0.149074
0.167642
0.210424
0.231763
0.227494
0.21995
0.222788
0.2387
0.263641
0.298209
0.319294
0.316229
0.282493
0.260548
0.256601
0.268763
0.290705
0.29815
0.297937
0.297588
0.29051
0.26264
0.242892
0.230514
0.225152
0.218251
0.19896
0.181322
0.175536
0.000251612
0.000253863
0.00025569
0.000253783
0.000248991
0.000241913
0.000241451
0.000243758
0.000251373
0.000268691
0.000295807
0.000344651
0.00038343
0.00043871
0.000469232
0.000482762
0.000486067
0.000479488
0.000473426
0.000457751
0.000451709
0.000448168
0.000447512
0.000485025
0.000544855
0.00061414
0.000645431
0.000659313
0.000662449
0.000652581
0.000640142
0.000624632
0.000614012
0.000617287
0.000646684
0.000708892
0.0007448
0.000758162
0.000763221
0.000753253
0.000704034
0.000642357
0.000579585
0.000533623
0.000505622
0.000497612
0.000515839
0.000578103
0.00066259
0.000720183
0.000792044
0.000833103
0.000869031
0.000882843
0.00086541
0.000845341
0.000785236
0.000755544
0.000748673
0.000729133
0.000729292
0.000730487
0.000740991
0.000855168
0.000946987
0.00102052
0.00107183
0.00107288
0.00107228
0.00104621
0.000935865
0.000830549
0.000728212
0.000647201
0.000591217
0.000534362
0.000499555
0.000481156
0.000460287
0.00044357
0.000427066
0.00040725
0.000387188
0.000363964
0.00034899
0.000345365
0.000345377
0.000348673
0.000362864
0.000375512
0.000391448
0.000431469
0.000465961
0.000512531
0.000601591
0.00066553
0.000737976
0.000882725
0.000997773
0.001244
0.00146009
0.00197796
0.00242277
0.00337628
0.00416066
0.00600427
0.00722692
0.00980343
0.0113507
0.014649
0.0165423
0.0204211
0.0226387
0.0273863
0.0302831
0.0365696
0.0402357
0.0486368
0.0532715
0.0639413
0.0700314
0.0847409
0.0930996
0.115843
0.128014
0.162611
0.178538
0.225599
0.24533
0.305559
0.325029
0.380391
0.392766
0.430517
0.435895
0.450893
0.451123
0.440306
0.444667
0.406261
0.422604
0.362392
0.381535
0.316495
0.325451
0.271275
0.259789
0.222675
0.211565
0.169924
0.16408
0.1447
0.13676
0.108602
0.101002
0.085367
0.0794745
0.063955
0.0610018
0.0577307
0.0479525
0.0402627
0.0404819
0.0470081
0.0463866
0.0424529
0.0397413
0.0417472
0.0544405
0.110202
0.150639
0.170068
0.171655
0.167316
0.141341
0.138137
0.167714
0.215113
0.25639
0.275189
0.283771
0.279292
0.258056
0.244313
0.241756
0.247461
0.254058
0.266666
0.271127
0.274719
0.276111
0.276028
0.262074
0.240484
0.22682
0.222577
0.21689
0.205529
0.187017
0.176875
0.0031496
0.00316872
0.00316194
0.0031329
0.00308564
0.0029993
0.00296278
0.00297264
0.00301989
0.00315064
0.00344672
0.00391883
0.00431329
0.0048152
0.00504845
0.00512169
0.00512935
0.0050117
0.00491738
0.00469228
0.00460137
0.00456638
0.00459969
0.00504861
0.00547677
0.00591406
0.0061279
0.00620421
0.00621333
0.00603463
0.0057766
0.00550352
0.00533726
0.00530587
0.00542507
0.00586007
0.00618862
0.00636946
0.0064652
0.00646277
0.00630509
0.00586129
0.00536319
0.00498292
0.00467587
0.00455736
0.00456188
0.0048142
0.00539061
0.00580109
0.00631107
0.00661708
0.00680258
0.00687825
0.0067115
0.00644914
0.00604142
0.00571201
0.00558495
0.00540452
0.0053803
0.00542461
0.00561733
0.00616312
0.00642039
0.00659677
0.00663542
0.00660221
0.0065139
0.00633555
0.00570497
0.00528039
0.00474825
0.00421045
0.00387458
0.00350521
0.00319592
0.00305687
0.00282687
0.00271094
0.00260984
0.00242617
0.00231786
0.00220898
0.00207796
0.00198597
0.00193237
0.00192868
0.0019489
0.00199571
0.00214877
0.00230629
0.00263584
0.0028671
0.00336429
0.00369206
0.00431265
0.00513716
0.00575008
0.00737173
0.00866815
0.0113817
0.0132646
0.0176859
0.0207438
0.0271627
0.0307637
0.0386626
0.0429476
0.0517355
0.0564562
0.0665253
0.0721269
0.0840816
0.0908785
0.105377
0.113237
0.130904
0.140536
0.16225
0.175039
0.20478
0.222897
0.269572
0.293423
0.352459
0.375622
0.437904
0.451517
0.497908
0.500448
0.529706
0.522777
0.544422
0.530126
0.545391
0.522607
0.533178
0.503249