/*--------------------------------*- C++ -*----------------------------------*\
| =========                 |                                                 |
| \\      /  F ield         | OpenFOAM: The Open Source CFD Toolbox           |
|  \\    /   O peration     | Version:  2.4.0                                 |
|   \\  /    A nd           | Web:      www.OpenFOAM.org                      |
|    \\/     M anipulation  |                                                 |
\*---------------------------------------------------------------------------*/
FoamFile
{
    version     2.0;
    format      ascii;
    class       surfaceScalarField;
    location    "0.56";
    object      phi_0;
}
// * * * * * * * * * * * * * * * * * * * * * * * * * * * * * * * * * * * * * //

dimensions      [0 3 -1 0 0 0 0];

internalField   nonuniform List<scalar> 
17320
(
1.76341e-05
7.36587e-06
1.1618e-05
6.0161e-06
8.68248e-06
2.93555e-06
7.35343e-06
1.32905e-06
6.7239e-06
6.29538e-07
6.33908e-06
3.84814e-07
6.0784e-06
2.60677e-07
5.86977e-06
2.08637e-07
5.71449e-06
1.5528e-07
5.57732e-06
1.37167e-07
5.47835e-06
9.89717e-08
5.39269e-06
8.56587e-08
5.30981e-06
8.28785e-08
5.21584e-06
9.39708e-08
5.15151e-06
6.43302e-08
5.04739e-06
1.04117e-07
4.95342e-06
9.397e-08
4.87888e-06
7.45476e-08
4.64238e-06
2.36492e-07
-4.85761e-07
5.12815e-06
2.54533e-05
6.91254e-06
2.32503e-05
8.21918e-06
2.09853e-05
5.20047e-06
1.93177e-05
2.99671e-06
1.80814e-05
1.86576e-06
1.71082e-05
1.35805e-06
1.6368e-05
1.00091e-06
1.57748e-05
8.01837e-07
1.53156e-05
6.14492e-07
1.49286e-05
5.24173e-07
1.4636e-05
3.91557e-07
1.43762e-05
3.45441e-07
1.41533e-05
3.05774e-07
1.39289e-05
3.18369e-07
1.37508e-05
2.42428e-07
1.35267e-05
3.28254e-07
1.33245e-05
2.96154e-07
1.31095e-05
2.89543e-07
1.29302e-05
4.1581e-07
-3.88068e-07
1.28325e-05
2.661e-05
5.30253e-06
2.7163e-05
7.66616e-06
2.67735e-05
5.58997e-06
2.62499e-05
3.52032e-06
2.56075e-05
2.50821e-06
2.487e-05
2.09551e-06
2.41619e-05
1.70899e-06
2.35041e-05
1.45971e-06
2.29432e-05
1.17538e-06
2.24384e-05
1.02892e-06
2.20406e-05
7.89407e-07
2.16742e-05
7.11864e-07
2.13654e-05
6.14516e-07
2.10623e-05
6.21461e-07
2.08176e-05
4.87195e-07
2.05227e-05
6.2316e-07
2.02904e-05
5.28405e-07
1.99337e-05
6.46258e-07
1.98117e-05
5.37781e-07
1.53278e-07
1.92704e-05
2.63121e-05
3.99038e-06
2.75503e-05
6.42803e-06
2.8074e-05
5.06624e-06
2.84528e-05
3.14151e-06
2.86471e-05
2.31392e-06
2.86242e-05
2.11839e-06
2.84776e-05
1.8556e-06
2.8229e-05
1.70827e-06
2.79837e-05
1.42077e-06
2.76812e-05
1.33137e-06
2.74403e-05
1.03027e-06
2.7163e-05
9.89232e-07
2.69247e-05
8.52768e-07
2.66657e-05
8.80477e-07
2.64514e-05
7.01476e-07
2.61748e-05
8.99754e-07
2.59918e-05
7.11426e-07
2.55859e-05
1.05219e-06
2.53164e-05
8.07277e-07
1.16915e-06
2.43005e-05
2.60398e-05
2.95059e-06
2.72499e-05
5.21793e-06
2.80353e-05
4.28083e-06
2.84984e-05
2.67842e-06
2.89687e-05
1.84357e-06
2.93323e-05
1.75487e-06
2.95917e-05
1.5962e-06
2.97292e-05
1.57074e-06
2.98754e-05
1.27453e-06
2.98976e-05
1.30919e-06
2.99654e-05
9.62468e-07
2.99593e-05
9.95329e-07
2.99549e-05
8.57247e-07
2.99274e-05
9.07938e-07
2.98841e-05
7.44773e-07
2.98078e-05
9.76076e-07
2.97439e-05
7.75328e-07
2.96729e-05
1.1232e-06
2.97429e-05
7.37245e-07
8.70566e-07
3.00415e-05
2.58434e-05
2.10717e-06
2.69631e-05
4.09826e-06
2.78238e-05
3.42011e-06
2.82529e-05
2.24937e-06
2.86897e-05
1.40673e-06
2.90971e-05
1.34748e-06
2.94495e-05
1.24374e-06
2.96981e-05
1.32215e-06
3.00108e-05
9.61842e-07
3.01813e-05
1.13867e-06
3.0399e-05
7.44844e-07
3.05634e-05
8.30882e-07
3.06944e-05
7.26254e-07
3.08517e-05
7.50613e-07
3.0959e-05
6.37536e-07
3.11097e-05
8.25366e-07
3.12076e-05
6.77377e-07
3.14358e-05
8.94996e-07
3.16217e-05
5.51367e-07
5.22877e-07
3.19694e-05
2.5678e-05
1.42919e-06
2.67288e-05
3.04745e-06
2.76083e-05
2.54062e-06
2.8085e-05
1.77267e-06
2.8469e-05
1.02269e-06
2.88469e-05
9.69615e-07
2.91574e-05
9.33254e-07
2.94661e-05
1.01346e-06
2.98082e-05
6.19688e-07
3.00047e-05
9.42184e-07
3.02123e-05
5.37212e-07
3.04423e-05
6.00878e-07
3.06269e-05
5.41727e-07
3.07885e-05
5.88993e-07
3.09335e-05
4.9252e-07
3.11684e-05
5.90422e-07
3.13455e-05
5.00281e-07
3.1651e-05
5.89532e-07
3.19054e-05
2.96931e-07
2.38508e-07
3.21898e-05
2.55328e-05
8.96401e-07
2.65445e-05
2.03572e-06
2.74349e-05
1.65021e-06
2.80099e-05
1.19767e-06
2.8383e-05
6.4959e-07
2.8739e-05
6.13667e-07
2.8969e-05
7.03242e-07
2.92598e-05
7.22609e-07
2.9546e-05
3.33547e-07
2.98679e-05
6.20279e-07
3.00371e-05
3.6803e-07
3.02627e-05
3.75204e-07
3.04559e-05
3.48533e-07
3.06363e-05
4.08646e-07
3.07877e-05
3.41054e-07
3.10154e-05
3.62788e-07
3.12239e-05
2.91786e-07
3.15639e-05
2.49502e-07
3.17088e-05
1.51985e-07
6.99033e-09
3.19404e-05
2.54872e-05
4.09207e-07
2.65252e-05
9.97744e-07
2.72933e-05
8.82076e-07
2.78915e-05
5.99493e-07
2.82677e-05
2.73416e-07
2.8588e-05
2.9336e-07
2.88904e-05
4.00829e-07
2.92023e-05
4.10684e-07
2.94326e-05
1.03243e-07
2.976e-05
2.92839e-07
2.99402e-05
1.87845e-07
3.0149e-05
1.66418e-07
3.0303e-05
1.94511e-07
3.0579e-05
1.32676e-07
3.07531e-05
1.66933e-07
3.08975e-05
2.18439e-07
3.11184e-05
7.08211e-08
3.13731e-05
-5.20671e-09
3.15714e-05
-4.62988e-08
-2.65451e-07
3.18439e-05
2.54541e-05
-4.48782e-08
2.64484e-05
3.3904e-09
2.72526e-05
7.78982e-08
2.78796e-05
-2.75036e-08
2.81831e-05
-3.0053e-08
2.85044e-05
-2.79659e-08
2.88357e-05
6.95407e-08
2.92004e-05
4.6015e-08
2.94479e-05
-1.44306e-07
2.96729e-05
6.78725e-08
2.98493e-05
1.14278e-08
3.00506e-05
-3.49182e-08
3.02515e-05
-6.40417e-09
3.05097e-05
-1.25437e-07
3.06621e-05
1.44887e-08
3.08857e-05
-5.13345e-09
3.1129e-05
-1.72532e-07
3.13523e-05
-2.28487e-07
3.15496e-05
-2.43594e-07
-3.6695e-07
3.16511e-05
2.54101e-05
-4.5498e-07
2.641e-05
-9.96476e-07
2.72964e-05
-8.08501e-07
2.78862e-05
-6.17358e-07
2.82026e-05
-3.4639e-07
2.85146e-05
-3.40042e-07
2.87909e-05
-2.06734e-07
2.91372e-05
-3.0029e-07
2.94337e-05
-4.40791e-07
2.97382e-05
-2.36641e-07
2.99013e-05
-1.51612e-07
3.00826e-05
-2.16282e-07
3.02914e-05
-2.15212e-07
3.04695e-05
-3.03519e-07
3.06083e-05
-1.24255e-07
3.08738e-05
-2.70685e-07
3.11243e-05
-4.23036e-07
3.13252e-05
-4.29383e-07
3.14754e-05
-3.93794e-07
-5.73511e-07
3.1682e-05
2.5456e-05
-9.10956e-07
2.64947e-05
-2.0352e-06
2.73286e-05
-1.64241e-06
2.79091e-05
-1.19788e-06
2.82318e-05
-6.69051e-07
2.85669e-05
-6.75146e-07
2.89187e-05
-5.58559e-07
2.92484e-05
-6.29942e-07
2.94406e-05
-6.32976e-07
2.97226e-05
-5.18686e-07
2.99332e-05
-3.6223e-07
3.01633e-05
-4.46354e-07
3.03441e-05
-3.96049e-07
3.05238e-05
-4.8316e-07
3.0697e-05
-2.97445e-07
3.09484e-05
-5.22172e-07
3.11374e-05
-6.12013e-07
3.13422e-05
-6.34175e-07
3.15924e-05
-6.44021e-07
-7.23553e-07
3.17425e-05
2.55505e-05
-1.46141e-06
2.65619e-05
-3.04664e-06
2.74248e-05
-2.50532e-06
2.80393e-05
-1.81234e-06
2.83412e-05
-9.71001e-07
2.86622e-05
-9.96172e-07
2.89981e-05
-8.94399e-07
2.93402e-05
-9.72029e-07
2.95601e-05
-8.52916e-07
2.98319e-05
-7.90454e-07
3.00523e-05
-5.82653e-07
3.02935e-05
-6.8758e-07
3.04182e-05
-5.20771e-07
3.05909e-05
-6.55776e-07
3.07995e-05
-5.06064e-07
3.10634e-05
-7.86088e-07
3.12247e-05
-7.73323e-07
3.1486e-05
-8.95449e-07
3.17255e-05
-8.83579e-07
-8.95076e-07
3.18971e-05
2.56751e-05
-2.13646e-06
2.67243e-05
-4.09586e-06
2.76052e-05
-3.38624e-06
2.80789e-05
-2.28608e-06
2.84717e-05
-1.36378e-06
2.88372e-05
-1.36164e-06
2.91823e-05
-1.23955e-06
2.94948e-05
-1.28454e-06
2.97516e-05
-1.10966e-06
3.00174e-05
-1.05626e-06
3.02143e-05
-7.79567e-07
3.04278e-05
-9.01062e-07
3.05871e-05
-6.80097e-07
3.07861e-05
-8.54796e-07
3.09475e-05
-6.6745e-07
3.11857e-05
-1.02426e-06
3.13488e-05
-9.36397e-07
3.16272e-05
-1.17391e-06
3.18426e-05
-1.09892e-06
-1.13809e-06
3.20856e-05
2.58352e-05
-2.97168e-06
2.69528e-05
-5.21345e-06
2.78246e-05
-4.25804e-06
2.82356e-05
-2.69709e-06
2.86929e-05
-1.82106e-06
2.90956e-05
-1.76432e-06
2.94644e-05
-1.60836e-06
2.97339e-05
-1.55401e-06
2.99827e-05
-1.35851e-06
3.01794e-05
-1.25299e-06
3.03724e-05
-9.72549e-07
3.05325e-05
-1.06113e-06
3.07012e-05
-8.48836e-07
3.08409e-05
-9.94469e-07
3.09679e-05
-7.94463e-07
3.10949e-05
-1.15129e-06
3.11733e-05
-1.01477e-06
3.13631e-05
-1.36372e-06
3.14863e-05
-1.22207e-06
-1.39267e-06
3.17409e-05
2.60338e-05
-4.0055e-06
2.72423e-05
-6.42192e-06
2.80371e-05
-5.05282e-06
2.8492e-05
-3.15201e-06
2.89821e-05
-2.3111e-06
2.9332e-05
-2.11429e-06
2.95936e-05
-1.86998e-06
2.97306e-05
-1.69102e-06
2.98505e-05
-1.47837e-06
2.98945e-05
-1.29694e-06
2.99547e-05
-1.03275e-06
2.99423e-05
-1.04876e-06
2.99582e-05
-8.64704e-07
2.98984e-05
-9.34757e-07
2.98656e-05
-7.61574e-07
2.97563e-05
-1.04206e-06
2.96526e-05
-9.11091e-07
2.95652e-05
-1.27623e-06
2.94623e-05
-1.11924e-06
-1.46727e-06
2.95369e-05
2.63055e-05
-5.31101e-06
2.75461e-05
-7.66248e-06
2.80736e-05
-5.58036e-06
2.84488e-05
-3.52718e-06
2.86497e-05
-2.51208e-06
2.86223e-05
-2.0869e-06
2.84762e-05
-1.72382e-06
2.82329e-05
-1.44776e-06
2.79636e-05
-1.20908e-06
2.76796e-05
-1.01288e-06
2.74307e-05
-7.83896e-07
2.71453e-05
-7.63313e-07
2.69066e-05
-6.26078e-07
2.663e-05
-6.58133e-07
2.64025e-05
-5.3408e-07
2.60939e-05
-7.3341e-07
2.58324e-05
-6.49657e-07
2.54843e-05
-9.28067e-07
2.52289e-05
-8.6381e-07
-1.31233e-06
2.50739e-05
2.66048e-05
-6.91584e-06
2.71612e-05
-8.21884e-06
2.67754e-05
-5.19455e-06
2.62487e-05
-3.00051e-06
2.56067e-05
-1.87009e-06
2.48701e-05
-1.35025e-06
2.41578e-05
-1.01153e-06
2.3504e-05
-7.94002e-07
2.29271e-05
-6.32145e-07
2.24355e-05
-5.21231e-07
2.20324e-05
-3.80788e-07
2.16519e-05
-3.82807e-07
2.13379e-05
-3.12082e-07
2.10203e-05
-3.40625e-07
2.07557e-05
-2.69389e-07
2.04212e-05
-3.98999e-07
2.01335e-05
-3.6191e-07
1.97095e-05
-5.04098e-07
1.93293e-05
-4.8359e-07
-4.63179e-07
1.84802e-05
2.54509e-05
-7.36674e-06
2.32488e-05
-6.01677e-06
2.09869e-05
-2.93263e-06
1.93168e-05
-1.33044e-06
1.8079e-05
-6.32244e-07
1.71093e-05
-3.80542e-07
1.63633e-05
-2.65575e-07
1.57743e-05
-2.04946e-07
1.53038e-05
-1.61689e-07
1.49224e-05
-1.3986e-07
1.46306e-05
-8.89047e-08
1.43527e-05
-1.04922e-07
1.41246e-05
-8.39722e-08
1.38872e-05
-1.03296e-07
1.36912e-05
-7.33427e-08
1.34247e-05
-1.32491e-07
1.31818e-05
-1.19005e-07
1.28456e-05
-1.67924e-07
1.25702e-05
-2.08216e-07
-7.05078e-08
1.21776e-05
1.76333e-05
1.16165e-05
8.68386e-06
7.35342e-06
6.72117e-06
6.34063e-06
6.07506e-06
5.87011e-06
5.70842e-06
5.56856e-06
5.47966e-06
5.37473e-06
5.29076e-06
5.18747e-06
5.11412e-06
4.98163e-06
4.86263e-06
4.6947e-06
4.48649e-06
4.41598e-06
5.55023e-06
-1.94094e-07
-2.27989e-07
5.96268e-06
-2.04592e-08
-3.91994e-07
6.33945e-06
-2.69494e-08
-3.49823e-07
6.69205e-06
-1.25166e-07
-2.27427e-07
6.98947e-06
-2.32301e-07
-6.51208e-08
7.22605e-06
-2.72889e-07
3.63067e-08
7.41311e-06
-2.53622e-07
6.65658e-08
7.56483e-06
-2.14217e-07
6.24955e-08
7.6709e-06
-1.59349e-07
5.32733e-08
7.75129e-06
-1.25018e-07
4.46295e-08
7.82713e-06
-1.17869e-07
4.20296e-08
7.91643e-06
-1.06442e-07
1.71392e-08
8.0202e-06
-1.06628e-07
2.85911e-09
8.13476e-06
-9.12156e-08
-2.33434e-08
8.23186e-06
-8.66133e-08
-1.04828e-08
8.31804e-06
-7.53454e-08
-1.08388e-08
8.41114e-06
-4.02074e-08
-5.28881e-08
8.51402e-06
-8.46121e-09
-9.44244e-08
8.61996e-06
2.49942e-08
-1.30935e-07
8.73737e-06
5.93232e-08
-1.76728e-07
8.86656e-06
8.05189e-08
-2.09713e-07
9.00952e-06
9.98361e-08
-2.42789e-07
9.15842e-06
8.56678e-08
-2.34567e-07
9.28967e-06
6.05378e-08
-1.91787e-07
9.3906e-06
8.72116e-09
-1.09654e-07
9.46881e-06
-5.40108e-08
-2.41975e-08
9.52044e-06
-1.13085e-07
6.14512e-08
9.55701e-06
-1.58944e-07
1.22374e-07
9.58738e-06
-1.93937e-07
1.63567e-07
9.61329e-06
-2.04634e-07
1.78725e-07
9.63273e-06
-2.2296e-07
2.03519e-07
9.64939e-06
-2.18066e-07
2.01406e-07
9.65655e-06
-2.20338e-07
2.13175e-07
9.66827e-06
-1.99781e-07
1.88059e-07
9.66316e-06
-1.74538e-07
1.79649e-07
9.65453e-06
-1.34551e-07
1.4318e-07
9.63376e-06
-8.47216e-08
1.05492e-07
9.62366e-06
-1.02041e-08
2.03025e-08
9.608e-06
7.20684e-08
-5.64005e-08
9.63664e-06
1.73355e-07
-2.01999e-07
9.69021e-06
2.95805e-07
-3.49374e-07
9.75672e-06
3.88377e-07
-4.54884e-07
9.88924e-06
4.73014e-07
-6.05537e-07
1.0015e-05
5.59874e-07
-6.85663e-07
1.01585e-05
5.60762e-07
-7.04198e-07
1.03242e-05
5.52448e-07
-7.18222e-07
1.04737e-05
5.16581e-07
-6.6608e-07
1.05921e-05
4.31571e-07
-5.49884e-07
1.06629e-05
3.29436e-07
-4.00264e-07
1.06746e-05
2.07778e-07
-2.19511e-07
1.06505e-05
9.80443e-08
-7.39051e-08
1.06121e-05
2.14554e-09
3.61998e-08
1.05573e-05
-4.01909e-08
9.50549e-08
1.05296e-05
-7.0244e-08
9.79574e-08
1.05236e-05
-5.52237e-08
6.12041e-08
1.05669e-05
-6.32633e-08
1.99287e-08
1.06166e-05
-5.83495e-08
8.63839e-09
1.06758e-05
-1.01864e-07
4.26565e-08
1.07225e-05
-1.42875e-07
9.62248e-08
1.07681e-05
-2.06196e-07
1.60583e-07
1.08337e-05
-2.78167e-07
2.12533e-07
1.08814e-05
-3.34168e-07
2.86463e-07
1.0946e-05
-3.51004e-07
2.86399e-07
1.1021e-05
-3.83688e-07
3.08756e-07
1.1108e-05
-4.01103e-07
3.14038e-07
1.10867e-05
-3.91591e-07
4.12911e-07
1.10849e-05
-3.90955e-07
3.92772e-07
1.10371e-05
-3.7928e-07
4.27038e-07
1.10209e-05
-4.60001e-07
4.76275e-07
1.09716e-05
-4.83259e-07
5.32556e-07
1.09446e-05
-5.43754e-07
5.70761e-07
1.09689e-05
-4.92485e-07
4.68128e-07
1.10591e-05
-3.71112e-07
2.80889e-07
1.12787e-05
-1.45805e-07
-7.37901e-08
1.15435e-05
1.7185e-07
-4.36659e-07
1.19064e-05
4.79518e-07
-8.42351e-07
1.23374e-05
8.55063e-07
-1.28609e-06
1.27491e-05
1.22275e-06
-1.63449e-06
1.32147e-05
1.46281e-06
-1.92835e-06
1.3516e-05
1.75198e-06
-2.05328e-06
1.39256e-05
1.7313e-06
-2.14089e-06
1.41369e-05
1.85857e-06
-2.06991e-06
1.44118e-05
1.58729e-06
-1.86215e-06
1.45414e-05
1.4566e-06
-1.58624e-06
1.46331e-05
1.0719e-06
-1.16359e-06
1.46684e-05
7.82438e-07
-8.1777e-07
1.45948e-05
4.44715e-07
-3.71041e-07
1.44682e-05
2.00632e-07
-7.41207e-08
1.42829e-05
-1.01332e-07
2.86689e-07
1.39824e-05
-5.94508e-08
3.59967e-07
1.36977e-05
-2.58959e-07
5.43604e-07
1.33594e-05
6.41171e-08
2.74208e-07
1.30492e-05
-1.32362e-08
3.23427e-07
1.27349e-05
5.49543e-07
-2.35278e-07
1.25028e-05
5.20849e-07
-2.88675e-07
1.22771e-05
1.26098e-06
-1.03535e-06
1.22076e-05
1.2237e-06
-1.15417e-06
1.21441e-05
1.91754e-06
-1.85408e-06
1.23006e-05
1.87011e-06
-2.02657e-06
1.24232e-05
2.39234e-06
-2.51495e-06
1.27593e-05
2.26351e-06
-2.5996e-06
1.30733e-05
2.50048e-06
-2.81446e-06
1.35623e-05
2.30787e-06
-2.7969e-06
1.40719e-05
2.39146e-06
-2.901e-06
1.47323e-05
1.79122e-06
-2.45169e-06
1.52929e-05
2.20476e-06
-2.7653e-06
1.60443e-05
1.00412e-06
-1.75552e-06
1.67852e-05
1.69768e-06
-2.43862e-06
1.74538e-05
1.48382e-07
-8.16928e-07
1.82811e-05
1.02704e-06
-1.85437e-06
1.90708e-05
-8.23915e-07
3.41947e-08
1.97466e-05
3.51918e-07
-1.02766e-06
2.04716e-05
-1.67115e-06
9.46135e-07
2.12521e-05
-5.79364e-07
-2.01164e-07
2.20986e-05
-2.4779e-06
1.63143e-06
2.24933e-05
-1.25549e-06
8.60744e-07
2.33117e-05
-3.35356e-06
2.53522e-06
2.38745e-05
-1.89126e-06
1.3284e-06
2.46311e-05
-4.31546e-06
3.55891e-06
2.49145e-05
-2.3102e-06
2.02675e-06
2.56434e-05
-4.90275e-06
4.17391e-06
2.61395e-05
-3.24722e-06
2.75107e-06
2.67119e-05
-5.10297e-06
4.53059e-06
2.71073e-05
-3.67132e-06
3.27587e-06
2.77634e-05
-5.75786e-06
5.10182e-06
2.8158e-05
-3.81625e-06
3.42164e-06
2.879e-05
-5.97655e-06
5.34455e-06
2.93059e-05
-4.55716e-06
4.04128e-06
2.99194e-05
-5.99562e-06
5.38208e-06
3.03219e-05
-4.87123e-06
4.46876e-06
3.1084e-05
-6.84749e-06
6.08536e-06
3.12884e-05
-4.99156e-06
4.78715e-06
3.20116e-05
-7.42414e-06
6.70091e-06
3.22775e-05
-5.97482e-06
5.709e-06
3.27752e-05
-7.77259e-06
7.27489e-06
3.27871e-05
-6.67071e-06
6.65875e-06
3.32109e-05
-8.64371e-06
8.2199e-06
3.29675e-05
-7.2067e-06
7.45014e-06
3.32365e-05
-9.14819e-06
8.87915e-06
3.29297e-05
-8.00749e-06
8.31436e-06
3.28452e-05
-9.39919e-06
9.48367e-06
3.20504e-05
-8.43804e-06
9.23279e-06
3.1756e-05
-9.42646e-06
9.72093e-06
3.0728e-05
-8.70907e-06
9.73704e-06
2.98396e-05
-9.18879e-06
1.00772e-05
2.84984e-05
-8.24003e-06
9.58129e-06
2.73961e-05
-8.37316e-06
9.47542e-06
2.59319e-05
-7.65851e-06
9.12276e-06
2.4718e-05
-6.56012e-06
7.77398e-06
2.34979e-05
-5.35684e-06
6.5769e-06
2.24829e-05
-4.96562e-06
5.98063e-06
2.13057e-05
-4.31063e-06
5.48787e-06
2.03687e-05
-2.92367e-06
3.86067e-06
1.97134e-05
-1.87044e-06
2.52574e-06
1.95041e-05
-1.69102e-06
1.90031e-06
1.91157e-05
-1.56993e-06
1.95835e-06
1.88433e-05
-8.27151e-07
1.09957e-06
1.79161e-05
4.37725e-07
4.89404e-07
1.79445e-05
5.14033e-07
-5.42346e-07
1.75143e-05
7.75271e-07
-3.45132e-07
1.79588e-05
7.28186e-07
-1.1727e-06
1.76651e-05
1.74138e-06
-1.44762e-06
1.79459e-05
2.14799e-06
-2.42878e-06
1.77147e-05
2.86628e-06
-2.63515e-06
1.82372e-05
2.50578e-06
-3.02827e-06
1.83487e-05
3.40248e-06
-3.51395e-06
1.87561e-05
3.35296e-06
-3.76034e-06
1.89371e-05
4.41345e-06
-4.59451e-06
1.90587e-05
4.49287e-06
-4.61438e-06
1.93768e-05
5.33061e-06
-5.64872e-06
1.94991e-05
5.53002e-06
-5.6524e-06
1.98321e-05
6.47577e-06
-6.80869e-06
2.02756e-05
6.85791e-06
-7.30142e-06
2.06334e-05
8.05765e-06
-8.41547e-06
2.14266e-05
8.07997e-06
-8.87317e-06
2.1353e-05
9.37354e-06
-9.29993e-06
2.21254e-05
8.21558e-06
-8.988e-06
2.18759e-05
9.43995e-06
-9.19045e-06
2.22469e-05
7.23799e-06
-7.60896e-06
2.21574e-05
8.18556e-06
-8.09604e-06
2.21516e-05
6.17831e-06
-6.17254e-06
2.24328e-05
6.32007e-06
-6.60132e-06
2.2426e-05
4.72619e-06
-4.71939e-06
2.29195e-05
4.34378e-06
-4.83722e-06
2.34139e-05
3.13715e-06
-3.63163e-06
2.4109e-05
3.0466e-06
-3.7417e-06
2.48801e-05
2.33356e-06
-3.10458e-06
2.54703e-05
2.79322e-06
-3.38348e-06
2.5639e-05
2.95007e-06
-3.11873e-06
2.54484e-05
3.80572e-06
-3.61514e-06
2.47118e-05
3.68587e-06
-2.94922e-06
2.37925e-05
4.03809e-06
-3.11883e-06
2.28222e-05
4.02813e-06
-3.05781e-06
2.16639e-05
4.05134e-06
-2.89302e-06
2.03005e-05
3.81698e-06
-2.45368e-06
1.86061e-05
4.14192e-06
-2.44751e-06
1.69046e-05
3.64187e-06
-1.94037e-06
1.51957e-05
4.60832e-06
-2.89938e-06
1.35264e-05
4.08163e-06
-2.41235e-06
7.52731e-06
-7.66146e-06
1.36606e-05
1.28143e-05
-1.75932e-07
1.29397e-05
-1.45821e-07
1.31729e-05
-2.60131e-07
1.34064e-05
-3.58738e-07
1.35945e-05
-4.20328e-07
1.37347e-05
-4.13126e-07
1.3841e-05
-3.59891e-07
1.39269e-05
-3.00131e-07
1.39802e-05
-2.12666e-07
1.40203e-05
-1.65092e-07
1.40591e-05
-1.5672e-07
1.40973e-05
-1.44605e-07
1.41556e-05
-1.64981e-07
1.42212e-05
-1.56792e-07
1.42836e-05
-1.49004e-07
1.43396e-05
-1.31319e-07
1.43846e-05
-8.5217e-08
1.44457e-05
-6.95988e-08
1.45083e-05
-3.7624e-08
1.45766e-05
-8.95873e-09
1.46589e-05
-1.75792e-09
1.47382e-05
2.0523e-08
1.48251e-05
-1.18371e-09
1.49001e-05
-1.45231e-08
1.49582e-05
-4.93827e-08
1.50051e-05
-1.00921e-07
1.50318e-05
-1.39793e-07
1.50556e-05
-1.82669e-07
1.50672e-05
-2.05529e-07
1.50808e-05
-2.18247e-07
1.50886e-05
-2.30757e-07
1.50919e-05
-2.21429e-07
1.50893e-05
-2.17664e-07
1.50802e-05
-1.90675e-07
1.50644e-05
-1.5882e-07
1.50404e-05
-1.10483e-07
1.50089e-05
-5.32912e-08
1.4975e-05
2.3685e-08
1.49428e-05
1.04282e-07
1.49168e-05
1.99434e-07
1.49208e-05
2.91747e-07
1.49238e-05
3.8538e-07
1.49512e-05
4.45639e-07
1.50069e-05
5.04136e-07
1.50447e-05
5.23033e-07
1.51024e-05
4.94714e-07
1.51591e-05
4.59843e-07
1.5206e-05
3.84706e-07
1.52311e-05
3.04291e-07
1.52403e-05
1.98562e-07
1.52281e-05
1.10308e-07
1.52156e-05
1.4668e-08
1.52184e-05
-4.30109e-08
1.52319e-05
-8.37584e-08
1.5288e-05
-1.1137e-07
1.53562e-05
-1.31397e-07
1.54538e-05
-1.56016e-07
1.555e-05
-1.97993e-07
1.56633e-05
-2.56232e-07
1.57512e-05
-2.94076e-07
1.58688e-05
-3.95763e-07
1.59236e-05
-3.89e-07
1.60311e-05
-4.58514e-07
1.60989e-05
-4.51452e-07
1.61632e-05
-4.65385e-07
1.6206e-05
-4.34374e-07
1.62578e-05
-4.4277e-07
1.6242e-05
-3.63533e-07
1.61931e-05
-4.11031e-07
1.60215e-05
-3.11701e-07
1.57904e-05
-3.12653e-07
1.5488e-05
-1.9008e-07
1.51928e-05
-7.59401e-08
1.48689e-05
1.78118e-07
1.47401e-05
3.00663e-07
1.45434e-05
6.76265e-07
1.47079e-05
6.90477e-07
1.48142e-05
1.11651e-06
1.51952e-05
1.08182e-06
1.54838e-05
1.46336e-06
1.58998e-05
1.31525e-06
1.61848e-05
1.57358e-06
1.64967e-05
1.2754e-06
1.66597e-05
1.29359e-06
1.67625e-05
9.69167e-07
1.6749e-05
7.95896e-07
1.6678e-05
5.15752e-07
1.64843e-05
3.94295e-07
1.62527e-05
1.30319e-07
1.60041e-05
1.89073e-07
1.5703e-05
4.21427e-08
1.54556e-05
3.11565e-07
1.5227e-05
2.15344e-07
1.50859e-05
6.90602e-07
1.49307e-05
6.76054e-07
1.4995e-05
1.19675e-06
1.50051e-05
1.21358e-06
1.51624e-05
1.76027e-06
1.54025e-05
1.63e-06
1.57498e-05
2.04498e-06
1.60506e-05
1.96277e-06
1.66329e-05
1.9182e-06
1.71071e-05
1.83368e-06
1.76897e-05
1.8088e-06
1.83723e-05
1.10858e-06
1.90721e-05
1.50503e-06
1.97071e-05
3.69122e-07
2.05375e-05
8.6725e-07
2.1345e-05
-6.59142e-07
2.2043e-05
3.29042e-07
2.27404e-05
-1.52129e-06
2.36671e-05
-5.74775e-07
2.44315e-05
-2.43554e-06
2.49409e-05
-1.08877e-06
2.58231e-05
-3.36015e-06
2.64616e-05
-1.89391e-06
2.71454e-05
-4.03734e-06
2.7609e-05
-2.35488e-06
2.83448e-05
-5.05126e-06
2.87828e-05
-2.74828e-06
2.94095e-05
-5.52936e-06
2.9843e-05
-3.68076e-06
3.04187e-05
-5.67864e-06
3.07972e-05
-4.04984e-06
3.14283e-05
-6.38902e-06
3.17825e-05
-4.17036e-06
3.23648e-05
-6.55886e-06
3.27808e-05
-4.97315e-06
3.33242e-05
-6.5391e-06
3.36309e-05
-5.17784e-06
3.42813e-05
-7.49798e-06
3.44248e-05
-5.135e-06
3.49669e-05
-7.96623e-06
3.50504e-05
-6.05839e-06
3.53725e-05
-8.09466e-06
3.51787e-05
-6.47689e-06
3.5482e-05
-8.94705e-06
3.50024e-05
-6.72703e-06
3.50391e-05
-9.18492e-06
3.41978e-05
-7.16623e-06
3.39186e-05
-9.11994e-06
3.28074e-05
-7.32689e-06
3.22771e-05
-8.89611e-06
3.06333e-05
-7.06528e-06
2.97245e-05
-8.28e-06
2.81448e-05
-6.66034e-06
2.71611e-05
-7.38941e-06
2.54846e-05
-5.98202e-06
2.45615e-05
-5.63702e-06
2.32843e-05
-4.0797e-06
2.2709e-05
-4.39027e-06
2.15575e-05
-3.1592e-06
2.10164e-05
-2.38255e-06
2.02135e-05
-1.06752e-06
2.01786e-05
-1.65613e-06
1.94833e-05
-8.74626e-07
1.92111e-05
-5.54998e-07
1.82884e-05
1.36044e-06
1.82218e-05
5.80641e-07
1.77886e-05
1.20852e-06
1.78774e-05
6.39385e-07
1.74709e-05
2.14789e-06
1.73244e-05
2.29451e-06
1.73384e-05
2.8522e-06
1.7571e-05
2.2732e-06
1.80743e-05
2.8992e-06
1.84375e-05
2.98974e-06
1.8684e-05
4.16697e-06
1.91927e-05
3.98417e-06
1.92343e-05
5.28901e-06
1.99166e-05
4.84776e-06
1.99774e-05
6.41489e-06
2.09907e-05
5.84465e-06
2.10817e-05
7.96661e-06
2.23524e-05
6.80929e-06
2.24479e-05
9.27801e-06
2.31076e-05
7.55594e-06
2.35259e-05
9.02167e-06
2.32383e-05
7.52553e-06
2.33957e-05
8.02823e-06
2.28072e-05
6.7668e-06
2.28368e-05
6.29048e-06
2.28912e-05
4.67176e-06
2.3551e-05
3.68399e-06
2.4324e-05
2.36415e-06
2.52677e-05
2.10289e-06
2.59537e-05
1.64752e-06
2.66583e-05
2.08862e-06
2.72767e-05
2.33174e-06
2.7724e-05
3.35838e-06
2.76574e-05
3.75252e-06
2.69751e-05
4.72035e-06
2.59383e-05
5.06491e-06
2.46233e-05
5.36635e-06
2.3083e-05
5.35729e-06
2.17285e-05
5.49642e-06
1.99966e-05
5.37378e-06
1.86768e-05
5.92809e-06
1.72235e-05
5.535e-06
7.45041e-06
1.73004e-05
1.92616e-05
-1.67178e-07
1.94244e-05
-3.08602e-07
1.96756e-05
-5.1138e-07
1.98975e-05
-5.80629e-07
2.00698e-05
-5.92638e-07
2.01764e-05
-5.19703e-07
2.02209e-05
-4.04379e-07
2.02416e-05
-3.20816e-07
2.02402e-05
-2.11284e-07
2.0244e-05
-1.68835e-07
2.02617e-05
-1.74452e-07
2.02754e-05
-1.58309e-07
2.03075e-05
-1.97095e-07
2.03396e-05
-1.8892e-07
2.03761e-05
-1.85446e-07
2.04104e-05
-1.65638e-07
2.0424e-05
-9.8828e-08
2.04577e-05
-1.03326e-07
2.04844e-05
-6.42794e-08
2.05212e-05
-4.57396e-08
2.05716e-05
-5.21498e-08
2.06219e-05
-2.98108e-08
2.06857e-05
-6.49477e-08
2.07363e-05
-6.51368e-08
2.07681e-05
-8.11724e-08
2.07915e-05
-1.24338e-07
2.07895e-05
-1.3777e-07
2.0789e-05
-1.82233e-07
2.07764e-05
-1.92859e-07
2.07619e-05
-2.03788e-07
2.07551e-05
-2.23923e-07
2.07345e-05
-2.00856e-07
2.07189e-05
-2.02117e-07
2.06974e-05
-1.69116e-07
2.0665e-05
-1.26419e-07
2.06421e-05
-8.75813e-08
2.05998e-05
-1.09939e-08
2.05591e-05
6.43427e-08
2.05181e-05
1.45295e-07
2.04822e-05
2.35339e-07
2.04592e-05
3.14734e-07
2.04498e-05
3.94779e-07
2.04416e-05
4.53881e-07
2.04526e-05
4.93112e-07
2.04642e-05
5.11396e-07
2.04737e-05
4.85253e-07
2.04809e-05
4.52645e-07
2.0483e-05
3.82582e-07
2.04808e-05
3.06532e-07
2.04653e-05
2.1406e-07
2.04544e-05
1.21137e-07
2.04219e-05
4.72113e-08
2.04343e-05
-5.54484e-08
2.04378e-05
-8.71811e-08
2.04853e-05
-1.58941e-07
2.05379e-05
-1.83932e-07
2.0618e-05
-2.36103e-07
2.07014e-05
-2.81393e-07
2.08001e-05
-3.54995e-07
2.08748e-05
-3.68735e-07
2.09704e-05
-4.91405e-07
2.10272e-05
-4.45803e-07
2.11085e-05
-5.39741e-07
2.11612e-05
-5.04244e-07
2.12006e-05
-5.04717e-07
2.12382e-05
-4.72036e-07
2.12418e-05
-4.46322e-07
2.11779e-05
-2.99686e-07
2.11215e-05
-3.54637e-07
2.09385e-05
-1.28621e-07
2.07853e-05
-1.59518e-07
2.05034e-05
9.18369e-08
2.02789e-05
1.48567e-07
1.9951e-05
5.06043e-07
1.97358e-05
5.15815e-07
1.93742e-05
1.03793e-06
1.91592e-05
9.05448e-07
1.89033e-05
1.37238e-06
1.8745e-05
1.24017e-06
1.86752e-05
1.53313e-06
1.86369e-05
1.35353e-06
1.86525e-05
1.558e-06
1.87484e-05
1.17955e-06
1.8688e-05
1.3539e-06
1.87772e-05
8.80001e-07
1.86568e-05
9.16316e-07
1.85825e-05
5.90026e-07
1.84496e-05
5.27233e-07
1.8291e-05
2.88943e-07
1.80676e-05
4.12466e-07
1.79965e-05
1.13238e-07
1.78082e-05
4.99813e-07
1.77058e-05
3.17799e-07
1.78231e-05
5.73295e-07
1.77563e-05
7.42855e-07
1.79768e-05
9.76233e-07
1.82138e-05
9.76549e-07
1.85131e-05
1.46095e-06
1.87626e-05
1.38058e-06
1.94752e-05
1.33236e-06
1.97751e-05
1.66285e-06
2.04368e-05
1.2565e-06
2.10721e-05
1.19833e-06
2.18063e-05
1.07465e-06
2.23094e-05
6.05469e-07
2.3196e-05
6.18473e-07
2.39872e-05
-4.221e-07
2.46829e-05
1.71541e-07
2.53249e-05
-1.30117e-06
2.64273e-05
-7.73383e-07
2.6875e-05
-1.96897e-06
2.77163e-05
-1.4161e-06
2.84315e-05
-3.15074e-06
2.911e-05
-1.76725e-06
2.9709e-05
-3.95919e-06
3.03765e-05
-2.56138e-06
3.0827e-05
-4.4878e-06
3.14848e-05
-3.01273e-06
3.19263e-05
-5.49271e-06
3.24118e-05
-3.23383e-06
3.28469e-05
-5.96447e-06
3.32993e-05
-4.13307e-06
3.36591e-05
-6.03846e-06
3.40616e-05
-4.45237e-06
3.44629e-05
-6.79034e-06
3.48378e-05
-4.54519e-06
3.51235e-05
-6.84456e-06
3.5501e-05
-5.35068e-06
3.57989e-05
-6.83696e-06
3.60433e-05
-5.42229e-06
3.62989e-05
-7.75353e-06
3.64705e-05
-5.30661e-06
3.65372e-05
-8.03295e-06
3.65162e-05
-6.03743e-06
3.64917e-05
-8.07014e-06
3.62725e-05
-6.25771e-06
3.60538e-05
-8.72837e-06
3.54011e-05
-6.07432e-06
3.50812e-05
-8.86501e-06
3.41553e-05
-6.24032e-06
3.35893e-05
-8.55388e-06
3.22824e-05
-6.02007e-06
3.15785e-05
-8.1922e-06
2.99759e-05
-5.46267e-06
2.92651e-05
-7.56918e-06
2.76302e-05
-5.02545e-06
2.6817e-05
-6.57619e-06
2.51885e-05
-4.35357e-06
2.48688e-05
-5.31732e-06
2.36311e-05
-2.842e-06
2.32732e-05
-4.03232e-06
2.21379e-05
-2.02392e-06
2.20186e-05
-2.26329e-06
2.1438e-05
-4.86825e-07
2.14044e-05
-1.62257e-06
2.06885e-05
-1.58743e-07
2.02823e-05
-1.48753e-07
1.9647e-05
1.99575e-06
1.94989e-05
7.28734e-07
1.88894e-05
1.81802e-06
1.86033e-05
9.25493e-07
1.79357e-05
2.81544e-06
1.77068e-05
2.52342e-06
1.75359e-05
3.02305e-06
1.77885e-05
2.02061e-06
1.76078e-05
3.07997e-06
1.80778e-05
2.51966e-06
1.7521e-05
4.72383e-06
1.83838e-05
3.12139e-06
1.83462e-05
5.32657e-06
1.97177e-05
3.47626e-06
1.98905e-05
6.24207e-06
2.13208e-05
4.41434e-06
2.17621e-05
7.52537e-06
2.24252e-05
6.14616e-06
2.32754e-05
8.4278e-06
2.34184e-05
7.41298e-06
2.36568e-05
8.78323e-06
2.32769e-05
7.9054e-06
2.31441e-05
8.16109e-06
2.28719e-05
7.03902e-06
2.30356e-05
6.1267e-06
2.35408e-05
4.16655e-06
2.42628e-05
2.96203e-06
2.54049e-05
1.22211e-06
2.68317e-05
6.76075e-07
2.79501e-05
5.29109e-07
2.87432e-05
1.29552e-06
2.90981e-05
1.9768e-06
2.9255e-05
3.20154e-06
2.9295e-05
3.71246e-06
2.91899e-05
4.82546e-06
2.85456e-05
5.70924e-06
2.74829e-05
6.42907e-06
2.61766e-05
6.66351e-06
2.46307e-05
7.04238e-06
2.30133e-05
6.99117e-06
2.16068e-05
7.33456e-06
2.03089e-05
6.83289e-06
7.51637e-06
2.0243e-05
2.45127e-05
-3.79313e-07
2.49698e-05
-7.65714e-07
2.53644e-05
-9.06016e-07
2.55285e-05
-7.44736e-07
2.56179e-05
-6.8206e-07
2.56515e-05
-5.5331e-07
2.5659e-05
-4.11869e-07
2.56672e-05
-3.29015e-07
2.56435e-05
-1.87529e-07
2.56241e-05
-1.4943e-07
2.55941e-05
-1.44463e-07
2.5563e-05
-1.27255e-07
2.55611e-05
-1.95161e-07
2.55734e-05
-2.01187e-07
2.56204e-05
-2.32488e-07
2.56715e-05
-2.16778e-07
2.56951e-05
-1.22344e-07
2.573e-05
-1.38268e-07
2.57249e-05
-5.92281e-08
2.5722e-05
-4.27757e-08
2.57206e-05
-5.07234e-08
2.57247e-05
-3.39116e-08
2.57676e-05
-1.07921e-07
2.58008e-05
-9.83286e-08
2.58432e-05
-1.23551e-07
2.58813e-05
-1.62471e-07
2.58861e-05
-1.42502e-07
2.5886e-05
-1.8214e-07
2.5844e-05
-1.50882e-07
2.58004e-05
-1.60202e-07
2.57519e-05
-1.75364e-07
2.57025e-05
-1.51499e-07
2.56686e-05
-1.6827e-07
2.56419e-05
-1.42354e-07
2.56176e-05
-1.02167e-07
2.56088e-05
-7.87108e-08
2.55836e-05
1.41725e-08
2.5558e-05
8.9989e-08
2.55297e-05
1.735e-07
2.54961e-05
2.68988e-07
2.54715e-05
3.39381e-07
2.54548e-05
4.11406e-07
2.54471e-05
4.6159e-07
2.5447e-05
4.93227e-07
2.54667e-05
4.91741e-07
2.54683e-05
4.83595e-07
2.54872e-05
4.33715e-07
2.54739e-05
3.95931e-07
2.54794e-05
3.01042e-07
2.54587e-05
2.3476e-07
2.54409e-05
1.38922e-07
2.5423e-05
6.50685e-08
2.54021e-05
-3.44711e-08
2.54131e-05
-9.82308e-08
2.54152e-05
-1.6106e-07
2.54582e-05
-2.26922e-07
2.54941e-05
-2.71997e-07
2.55465e-05
-3.3379e-07
2.55965e-05
-4.05002e-07
2.56398e-05
-4.12031e-07
2.56817e-05
-5.33244e-07
2.572e-05
-4.84099e-07
2.57473e-05
-5.67064e-07
2.57609e-05
-5.17822e-07
2.57684e-05
-5.1224e-07
2.57345e-05
-4.38171e-07
2.5729e-05
-4.4083e-07
2.56169e-05
-1.87593e-07
2.55741e-05
-3.11819e-07
2.54171e-05
2.84052e-08
2.5241e-05
1.65815e-08
2.50695e-05
2.6336e-07
2.48111e-05
4.06975e-07
2.46046e-05
7.12448e-07
2.43808e-05
7.39616e-07
2.41239e-05
1.2949e-06
2.38945e-05
1.13487e-06
2.3709e-05
1.55786e-06
2.34017e-05
1.54748e-06
2.32726e-05
1.66224e-06
2.30725e-05
1.55364e-06
2.28053e-05
1.82511e-06
2.27861e-05
1.19875e-06
2.24867e-05
1.65338e-06
2.2344e-05
1.0227e-06
2.22312e-05
1.02907e-06
2.19541e-05
8.67116e-07
2.17564e-05
7.24933e-07
2.17074e-05
3.37932e-07
2.13576e-05
7.62254e-07
2.13159e-05
1.54929e-07
2.13302e-05
4.85547e-07
2.11392e-05
5.08807e-07
2.12691e-05
4.43408e-07
2.14891e-05
5.22876e-07
2.15514e-05
9.13858e-07
2.18534e-05
6.74623e-07
2.24469e-05
8.6741e-07
2.26494e-05
1.17813e-06
2.32661e-05
7.15583e-07
2.39304e-05
9.98595e-07
2.45029e-05
6.84041e-07
2.5072e-05
6.29198e-07
2.59752e-05
1.71472e-07
2.65729e-05
7.79176e-09
2.73476e-05
-1.56249e-07
2.80534e-05
-1.1279e-06