/*--------------------------------*- C++ -*----------------------------------*\
| =========                 |                                                 |
| \\      /  F ield         | OpenFOAM: The Open Source CFD Toolbox           |
|  \\    /   O peration     | Version:  2.4.0                                 |
|   \\  /    A nd           | Web:      www.OpenFOAM.org                      |
|    \\/     M anipulation  |                                                 |
\*---------------------------------------------------------------------------*/
FoamFile
{
    version     2.0;
    format      ascii;
    class       volScalarField;
    location    "0.56";
    object      pPrime2Mean;
}
// * * * * * * * * * * * * * * * * * * * * * * * * * * * * * * * * * * * * * //

dimensions      [0 4 -4 0 0 0 0];

internalField   nonuniform List<scalar> 
8800
(
1.15451e+06
1.12538e+06
1.09413e+06
1.06314e+06
1.03257e+06
1.00245e+06
972771
943538
914749
886402
858496
831025
803982
777353
751111
725206
699540
673914
647868
619943
1.15455e+06
1.12539e+06
1.09412e+06
1.06314e+06
1.03257e+06
1.00245e+06
972771
943538
914749
886403
858496
831026
803984
777357
751118
725220
699568
673973
648011
620416
1.15458e+06
1.12538e+06
1.09412e+06
1.06313e+06
1.03257e+06
1.00245e+06
972771
943538
914749
886403
858497
831028
803988
777364
751132
725247
699622
674086
648274
621335
1.1546e+06
1.12538e+06
1.09411e+06
1.06313e+06
1.03257e+06
1.00245e+06
972770
943538
914749
886404
858499
831031
803994
777376
751153
725287
699700
674246
648641
622405
1.15461e+06
1.12538e+06
1.0941e+06
1.06312e+06
1.03256e+06
1.00245e+06
972770
943537
914749
886404
858501
831035
804002
777390
751181
725338
699799
674446
649082
623511
1.15463e+06
1.12538e+06
1.0941e+06
1.06312e+06
1.03256e+06
1.00245e+06
972770
943537
914749
886405
858503
831040
804011
777408
751213
725399
699915
674677
649565
624591
1.15464e+06
1.12539e+06
1.09409e+06
1.06311e+06
1.03256e+06
1.00245e+06
972770
943537
914750
886406
858506
831046
804022
777427
751250
725468
700045
674928
650070
625618
1.15464e+06
1.12539e+06
1.09409e+06
1.06311e+06
1.03256e+06
1.00245e+06
972770
943538
914751
886408
858509
831052
804034
777449
751290
725542
700184
675192
650578
626577
1.15465e+06
1.12539e+06
1.09409e+06
1.06311e+06
1.03256e+06
1.00245e+06
972771
943538
914751
886410
858513
831059
804046
777472
751332
725620
700329
675460
651076
627459
1.15465e+06
1.12539e+06
1.09409e+06
1.06311e+06
1.03256e+06
1.00245e+06
972771
943539
914752
886412
858517
831066
804059
777496
751376
725700
700475
675727
651554
628263
1.15465e+06
1.12539e+06
1.09409e+06
1.06311e+06
1.03256e+06
1.00245e+06
972771
943540
914754
886414
858520
831073
804073
777520
751420
725780
700619
675985
652003
628987
1.15465e+06
1.12539e+06
1.09409e+06
1.06311e+06
1.03256e+06
1.00245e+06
972772
943540
914755
886416
858525
831080
804086
777544
751463
725857
700757
676229
652417
629634
1.15464e+06
1.12539e+06
1.09409e+06
1.06311e+06
1.03256e+06
1.00245e+06
972772
943541
914756
886419
858529
831087
804098
777567
751504
725930
700888
676455
652794
630204
1.15464e+06
1.12539e+06
1.09409e+06
1.06311e+06
1.03256e+06
1.00245e+06
972772
943542
914758
886421
858532
831094
804110
777588
751542
725998
701008
676660
653128
630699
1.15463e+06
1.12539e+06
1.0941e+06
1.06312e+06
1.03256e+06
1.00245e+06
972773
943543
914759
886423
858536
831100
804121
777607
751576
726059
701114
676841
653417
631121
1.15461e+06
1.12538e+06
1.0941e+06
1.06312e+06
1.03257e+06
1.00245e+06
972773
943544
914761
886425
858539
831105
804130
777623
751605
726112
701205
676994
653660
631472
1.1546e+06
1.12538e+06
1.09411e+06
1.06313e+06
1.03257e+06
1.00245e+06
972774
943545
914762
886427
858542
831110
804138
777637
751630
726155
701280
677119
653855
631751
1.15458e+06
1.12538e+06
1.09412e+06
1.06313e+06
1.03257e+06
1.00245e+06
972775
943546
914763
886429
858544
831113
804144
777648
751649
726189
701337
677213
654001
631959
1.15455e+06
1.12539e+06
1.09412e+06
1.06314e+06
1.03257e+06
1.00245e+06
972776
943547
914764
886430
858545
831116
804148
777655
751662
726211
701376
677277
654100
632097
1.15451e+06
1.12538e+06
1.09413e+06
1.06314e+06
1.03257e+06
1.00245e+06
972776
943547
914764
886430
858546
831117
804150
777659
751668
726223
701396
677309
654149
632164
594641
587828
582631
578138
573972
570007
566184
562467
558831
555261
551745
548273
544838
541436
538062
534711
531381
528067
524769
521485
518215
514960
511718
508489
505273
502069
498876
495695
492525
489367
486222
483089
479970
476865
473774
470697
467633
464584
461547
458523
455510
452508
449515
446531
443554
440586
437626
434674
431731
428797
425872
422956
420048
417148
414257
411376
408505
405645
402796
399957
397128
394309
391499
388698
385907
383127
380359
377603
374858
372125
369402
366689
363986
361293
358609
355934
353269
350614
347970
345338
342718
340112
337518
334937
332367
329806
327254
324711
322177
319652
317135
314625
312124
309630
307144
304666
302197
299736
297285
294843
292410
289988
287576
285174
282784
280404
278036
275678
273330
270993
268666
266348
264041
261744
259457
257179
254912
252654
250405
248166
245937
243718
241509
239311
237124
234948
232784
230632
228491
226360
224240
222129
220028
217936
215852
213776
211710
209651
207602
205561
203530
201508
199496
197494
195502
193519
191546
189583
187629
185686
183753
181831
179918
178016
176124
174242
172370
170508
168656
166814
164981
163160
161347
159546
157756
155976
154207
152451
150705
148972
147250
145541
143840
142155
140475
138813
137152
135513
133868
132247
130621
129013
127405
125809
124213
122626
121035
119450
117855
116262
114652
113033
111388
109720
108010
106251
104413
102461
100330
97793.8
599495
592235
586317
581220
576610
572299
568196
564246
560413
556673
553008
549406
545856
542352
538886
535454
532050
528670
525313
521976
518659
515360
512078
508814
505565
502332
499113
495908
492717
489540
486378
483230
480097
476978
473875
470787
467713
464653
461606
458573
455552
452542
449543
446553
443572
440600
437636
434682
431736
428800
425873
422956
420047
417148
414258
411378
408508
405649
402801
399963
397135
394317
391509
388710
385922
383144
380376
377621
374876
372143
369420
366708
364005
361312
358628
355954
353289
350635
347993
345362
342744
340140
337548
334968
332399
329839
327289
324747
322214
319690
317174
314665
312163
309669
307182
304703
302234
299772
297321
294878
292445
290022
287610
285208
282816
280435
278065
275705
273356
271016
268686
266366
264057
261757
259468
257189
254921
252663
250415
248176
245948
243730
241523
239326
237141
234968
232807
230657
228518
226390
224271
222162
220062
217970
215887
213811
211744
209684
207634
205593
203561
201539
199526
197523
195529
193544
191569
189603
187648
185703
183768
181844
179930
178027
176133
174249
172375
170510
168655
166809
164973
163147
161330
159523
157726
155940
154163
152398
150642
148899
147164
145443
143727
142027
140330
138651
136971
135310
133646
131999
130351
128714
127078
125449
123819
122193
120560
118929
117285
115634
113964
112273
110549
108785
106967
105068
103082
100889
98522
95745.4
602862
595660
589465
584008
579065
574469
570122
565962
561945
558045
554239
550512
546852
543248
539694
536181
532706
529262
525847
522458
519094
515752
512432
509133
505852
502590
499346
496118
492906
489711
486531
483368
480221
477090
473975
470875
467791
464721
461666
458624
455594
452577
449571
446575
443590
440613
437646
434689
431741
428803
425875
422956
420048
417149
414260
411381
408513
405655
402807
399970
397144
394327
391521
388724
385938
383162
380397
377642
374898
372165
369442
366730
364027
361334
358650
355976
353312
350658
348017
345387
342771
340168
337578
335000
332432
329874
327324
324784
322253
319730
317214
314705
312204
309709
307222
304743
302273
299812
297360
294918
292485
290062
287648
285245
282853
280470
278098
275736
273384
271042
268709
266386
264073
261771
259480
257200
254931
252673
250425
248188
245961
243744
241539
239345
237162
234992
232834
230687
228550
226424
224307
222199
220100
218007
215923
213847
211778
209718
207667
205625
203592
201569
199556
197551
195555
193569
191591
189623
187666
185719
183783
181858
179942
178038
176142
174256
172379
170512
168653
166804
164964
163133
161311
159499
157696
155903
154119
152346
150580
148826
147078
145344
143613
141898
140184
138487
136789
135107
133424
131752
130081
128417
126753
125092
123429
121764
120094
118415
116728
115020
113296
111536
109746
107890
105994
103967
101888
99556.1
97073.6
94309.8
605426
598415
592143
586485
581309
576489
571937
567592
563411
559364
555426
551582
547816
544118
540478
536889
533344
529838
526367
522928
519517
516135
512777
509444
506133
502843
499574
496323
493092
489878
486682
483504
480344
477200
474073
470963
467868
464789
461724
458674
455637
452612
449599
446598
443607
440627
437656
434696
431746
428807
425877
422958
420050
417151
414263
411386
408518
405661
402815
399980
397155
394340
391535
388741
385956
383182
380418
377665
374922
372189
369467
366754
364051
361357
358673
355999
353335
350682
348040
345412
342798
340196
337608
335031
332464
329907
327360
324821
322291
319769
317254
314746
312244
309750
307263
304785
302315
299854
297402
294960
292527
290104
287690
285286
282892
280507
278133
275768
273413
271068
268732
266405
264090
261785
259493
257211
254942
252683
250436
248200
245974
243760
241557
239365
237186
235019
232864
230720
228586
226462
224347
222239
220139
218046
215961
213882
211812
209751
207698
205655
203621
201597
199582
197577
195580
193591
191612
189642
187682
185734
183797
181869
179953
178047
176150
174261
172382
170511
168649
166796
164952
163117
161291
159473
157664
155865
154073
152292
150516
148752
146991
145244
143499
141767
140038
138322
136609
134905
133204
131508
129815
128124
126433
124740
123046
121343
119639
117913
116186
114423
112655
110823
108988
107042
105092
102967
100809
98436.6
95929.4
93246.9
607487
600669
594416
588662
583335
578347
573628
569125
564799
560619
556562
552609
548744
544957
541236
537573
533962
530396
526871
523383
519929
516506
513113
509747
506407
503090
499797
496525
493274
490043
486831
483639
480465
477309
474171
471050
467945
464857
461783
458724
455679
452648
449629
446622
443626
440642
437668
434706
431754
428813
425882
422963
420054
417156
414269
411392
408526
405670
402825
399991
397168
394354
391551
388759
385976
383204
380441
377689
374947
372215
369492
366779
364075
361380
358695
356020
353356
350703
348062
345435
342822
340222
337635
335060
332495
329940
327394
324857
322329
319808
317294
314786
312285
309790
307304
304826
302356
299895
297444
295002
292570
290146
287732
285327
282931
280544
278167
275799
273441
271092
268753
266424
264106
261799
259504
257222
254952
252694
250447
248212
245988
243776
241576
239387
237212
235047
232896
230754
228623
226500
224386
222279
220179
218084
215997
213917
211845
209781
207727
205682
203647
201621
199606
197598
195601
193611
191630
189658
187698
185747
183809
181879
179962
178053
176154
174263
172381
170507
168642
166785
164938
163098
161266
159444
157629
155824
154024
152234
150450
148675
146904
145142
143385
141637
139894
138159
136431
134706
132987
131268
129554
127834
126121
124393
122675
120930
119198
117423
115666
113845
112043
110147
108266
106257
104246
102079
99856.3
97494.4
95011.6
92405.8
609223
602571
596365
590571
585148
580036
575185
570552
566101
561804
557638
553585
549630
545759
541962
538231
534557
530934
527358
523824
520328
516867
513440
510042
506673
503332
500015
496723
493453
490205
486978
483772
480585
477417
474268
471136
468022
464924
461842
458775
455723
452685
449660
446647
443647
440659
437683
434718
431764
428822
425890
422970
420061
417164
414277
411401
408536
405682
402838
400005
397183
394371
391570
388778
385997
383226
380465
377714
374972
372239
369516
366801
364096
361400
358713
356037
353372
350720
348080
345454
342843
340244
337658
335084
332521
329968
327424
324889
322363
319844
317331
314824
312324
309830
307344
304865
302395
299935
297484
295042
292610
290187
287772
285365
282967
280578
278198
275828
273467
271114
268772
266439
264119
261811
259515
257232
254962
252703
250458
248223
246002
243792
241594
239408
237236
235075
232926
230788
228659
226537
224424
222317
220216
218120
216031
213948
211873
209807
207751
205704
203668
201641
199625
197616
195617
193625
191644
189670
187709
185756
183817
181885
179967
178054
176153
174259
172376
170498
168630
166769
164917
163072
161237
159408
157589
155776
153970
152172
150381
148594
146814
145038
143271
141505
139750
137996
136254
134507
132774
131028
129298
127548
125816
124055
122313
120531
118770
116956
115163
113301
111453
109519
107584
105543
103476
101298
99046.2
96701.3
94251
91705.4
610717
604200
598048
592241
586759
581560
576607
571867
567310
562912
558650
554507
550469
546522
542655
538859
535127
531451
527827
524249
520713
517216
513756
510329
506933
503567
500228
496916
493628
490364
487122
483902
480703
477524
474364
471222
468099
464992
461902
458827
455768
452723
449693
446675
443671
440680
437700
434733
431778
428834
425902
422981
420072
417174
414288
411413
408549
405695
402853
400021
397200
394389
391588
388798
386017
383247
380486
377735
374993
372259
369535
366819
364111
361414
358726
356049
353384
350732
348093
345468
342858
340260
337676
335103
332541
329990
327448
324915
322392
319875
317365
314859
312359
309866
307379
304900
302429
299969
297518
295076
292645
290221
287805
285397
282997
280606
278225
275851
273487
271131
268786
266451
264128
261819
259523
257240
254970
252712
250467
248234
246014
243805
241610
239427
237258
235100
232954
230817
228691
226571
224458
222350
220249
218151
216059
213974
211897
209828
207770
205721
203684
201656
199638
197629
195629
193635
191652
189676
187714
185759
183819
181883
179964
178049
176146
174248
172364
170480
168610
166746
164888
163039
161199
159366
157541
155721
153909
152104
150306
148508
146719
144931
143152
141372
139603
137835
136077
134312
132561
130795
129044
127272
125515
123730
121958
120150
118354
116514
114681
112792
110902
108941
106965
104904
102804
100623
98361.6
96028
93602.7
91103.6
612021
605611
599511
593707
588188
582927
577897
573071
568425
563939
559594
555371
551258
547241
543310
539456
535669
531944
528274
524655
521082
517551
514060
510604
507183
503794
500434
497103
493798
490518
487262
484029
480818
477628
474457
471306
468174
465059
461961
458880
455814
452764
449728
446706
443698
440703
437721
434751
431794
428849
425916
422995
420085
417188
414301
411426
408563
405710
402868
400037
397216
394405
391605
388814
386034
383264
380502
377750
375007
372273
369546
366829
364121
361422
358733
356056
353391
350739
348100
345476
342866
340269
337686
335115
332555
330005
327465
324934
322413
319899
317392
314887
312389
309895
307407
304927
302456
299994
297544
295102
292670
290246
287830
285420
283020
280627
278243
275868
273501
271142
268793
266456
264133
261823
259528
257245
254976
252719
250476
248243
246024
243817
241623
239442
237275
235119
232976
230841
228716
226596
224484
222376
220274
218174
216080
213993
211913
209842
207782
205732
203694
201665
199646
197637
195635
193639
191653
189676
187712
185756
183814
181875
179953
178036
176129
174230
172343
170456
168582
166714
164852
162999
161154
159316
157485
155659
153842
152032
150225
148420
146621
144824
143032
141241
139457
137677
135904
134124
132354
130572
128799
127009
125226
123420
121621
119791
117965
116102
114237
112325
110402
108420
106415
104344
102222
100038
97773.1
95446.2
93041.9
90580.8
613167
606843
600789
594995
589454
584148
579058
574163
569444
564884
560466
556173
551993
547914
543925
540016
536180
532409
528697
525040
521432
517869
514348
510867
507422
504010
500631
497282
493960
490666
487396
484151
480929
477728
474548
471388
468248
465125
462021
458933
455862
452806
449765
446739
443727
440729
437744
434772
431813
428867
425932
423010
420100
417202
414315
411440
408576
405723
402881
400049
397228
394417
391616
388826
386045
383273
380511
377757
375013
372277
369550
366831
364122
361422
358733
356056
353391
350739
348101
345477
342867
340271
337689
335119
332561
330013
327475
324946
322428
319916
317410
314908
312409
309915
307427
304945
302474
300011
297560
295117
292685
290260
287844
285433
283032
280638
278253
275875
273505
271144
268794
266456
264132
261823
259528
257246
254979
252723
250481
248250
246032
243825
241632
239451
237286
235132
232990
230856
228731
226612
224499
222392
220288
218188
216092
214003
211922
209850
207788
205736
203698
201667
199649
197638
195634
193637
191649
189669
187703
185744
183800
181858
179933
178015
176104
174205
172312
170425
168545
166677
164808
162954
161101
159261
157422
155593
153769
151959
150141
148332
146522
144720
142915
141115
139316
137527
135736
133946
132157
130362
128568
126761
124956
123132
121310
119462
117610
115728
113837
111906
109957
107960
105934
103856
101715
99525.4
97258.9
94938.7
92555.5
90126.7
614174
607920
601907
596125
590572
585234
580098
575147
570368
565746
561264
556911
552672
548537
544495
540538
536656
532843
529093
525400
521760
518168
514620
511114
507646
504215
500817
497451
494114
490806
487524
484267
481034
477824
474635
471467
468319
465190
462079
458985
455908
452848
449803
446773
443758
440756
437769
434794
431833
428885
425949
423025
420114
417214
414327
411451
408586
405732
402889
400057
397235
394423
391621
388829
386047
383274
380510
377755
375010
372273
369544
366825
364115
361415
358726
356049
353385
350733
348095
345470
342860
340265
337683
335115
332558
330012
327477
324951
322435
319925
317421
314918
312419
309924
307435
304953
302481
300018
297565
295122
292689
290263
287846
285435
283033
280637
278251
275871
273500
271138
268788
266450
264127
261817
259524
257244
254978
252725
250484
248254
246036
243829
241636
239455
237289
235135
232994
230861
228736
226617
224504
222396
220292
218191
216095
214006
211923
209851
207787
205735
203695
201663
199643
197630
195625
193625
191636
189652
187685
185724
183776
181834
179905
177986
176071
174175
172274
170389
168500
166638
164757
162908
161042
159205
157354
155528
153693
151887
150054
148248
146424
144617
142798
140995
139182
137388
135579
133781
131975
130169
128357
126535
124711
122872
121030
119165
117292
115394
113481
111534
109565
107559
105511
103425
101267
99070.7
96807.5
94496.9
92134.5
89733.5
615060
608862
602884
597115
591555
586194
581022
576027
571199
566523
561988
557582
553292
549107
545019
541018
537095
533244
529459
525734
522064
518445
514873
511344
507856
504406
500991
497609
494258
490937
487643
484376
481133
477914
474717
471542
468387
465251
462134
459036
455954
452889
449840
446806
443788
440783
437792
434815
431852
428901
425963
423038
420125
417224
414335
411457
408591
405736
402892
400059
397235
394422
391619
388825
386041
383267
380502
377745
374998
372260
369531
366811
364101
361402
358713
356037
353372
350720
348082
345457
342846
340251
337670
335102
332547
330003
327471
324947
322434
319925
317422
314918
312418
309922
307432
304948
302475
300011
297558
295114
292680
290254
287837
285425
283022
280625
278238
275857
273486
271125
268775
266438
264116
261808
259515
257237
254974
252722
250484
248255
246037
243829
241634
239452
237285
235131
232988
230855
228730
226611
224497
222389
220285
218186
216091
214002
211920
209847
207782
205729
203685
201652
199629
197614
195607
193604
191613
189627
187655
185697
183744
181805
179870
177954
176033
174140
172229
170348
168452
166596
164705
162862
160982
159148
157283
155463
153617
151817
149968
148163
146325
144523
142689
140880
139056
137262
135435
133631
131810
129993
128165
126332
124492
122641
120781
118905
117012
115100
113168
111208
109220
107206
105137
103038
100870
98670.6
96414.2
94114.8
91771.9
89394.9
615836
609683
603734
597977
592414
587036
581836
576806
571937
567218
562638
558186
553851
549624
545495
541454
537495
533610
529794
526039
522342
518699
515104
511555
508048
504581
501151
497755
494391
491058
487754
484477
481225
477998
474793
471611
468450
465309
462187
459083
455997
452928
449875
446838
443815
440807
437814
434834
431868
428915
425975
423047
420132
417229
414338
411459
408591
405735
402889
400054
397229
394414
391609
388814
386028
383253
380486
377729
374981
372243
369513
366793
364083
361384
358697
356021
353357
350704
348064
345439
342827
340231
337649
335082
332528
329987
327457
324936
322424
319915
317410
314905
312404
309907
307416
304931
302458
299993
297540
295094
292660
290233
287815
285403
283000
280602
278215
275835
273466
271106
268758
266423
264102
261795
259505
257228
254967
252717
250480
248252
246034
243825
241628
239444
237275
235118
232974
230840
228714
226594
224480
222372
220269
218171
216079
213990
211910
209836
207769
205715
203669
201634
199608
197589
195581
193575
191583
189594
187620
185662
183704
181770
179832
177920
175998
174103
172187
170306
168408
166551
164654
162812
160924
159091
157220
155398
153549
151746
149890
148079
146234
144427
142584
140776
138942
137146
135302
133495
131659
129835
127993
126153
124298
122438
120561
118675
116767
114843
112894
110923
108921
106891
104803
102694
100522
98323.5
96074.9
93786.9
91461.3
89105.1
616509
610394
604470
598724
593158
587767
582545
577487
572585
567830
563213
558723
554350
550086
545920
541846
537854
533939
530094
526314
522594
518928
515313
511746
508222
504740
501296
497887
494512
491169
487855
484569
481309
478075
474864
471675
468508
465362
462235
459127
456037
452963
449906
446865
443839
440828
437831
434849
431880
428924
425981
423052
420135
417229
414336
411455
408585
405727
402879
400042
397216
394399
391593
388797
386011
383234
380467
377709
374961
372222
369492
366772
364063
361365
358678
356003
353339
350686
348046
345418
342805
340208
337625
335057
332504
329964
327436
324916
322404
319893
317387
314879
312378
309880
307389
304903
302431
299966
297512
295064
292630
290202
287785
285371
282969
280571
278185
275806
273440
271082
268737
266403
264085
261780
259491
257216
254957
252708
250472
248244
246026
243815
241618
239432
237260
235101
232954
230817
228690
226568
224455
222346
220245
218147
216057
213970
211891
209815
207749
205692
203644
201607
199578
197557
195547
193539
191547
189555
187582
185625
183666
181731
179796
177882
175958
174063
172148
170262
168370
166508
164608
162757
160872
159031
157158
155327
153482
151674
149813
148006
146153
144342
142493
140675
138833
137032
135178
133370
131523
129694
127841
125993
124126
122258
120369
118474
116553
114618
112660
110672
108659
106609
104511
102394
100223
98027
95785.3
93508
91197.5
88859.3
617089
611003
605098
599361
593794
588393
583155
578074
573146
568362
563714
559192
554787
550491
546295
542190
538171
534230
530361
526558
522816
519131
515499
511916
508377
504882
501425
498006
494621
491268
487945
484652
481385
478144
474927
471733
468561
465409
462278
459165
456071
452994
449933
446888
443859
440845
437845
434859
431887
428928
425983
423051
420131
417224
414329
411446
408574
405714
402865
400026
397198
394381
391573
388776
385989
383212
380444
377686
374938
372199
369470
366751
364042
361345
358660
355985
353320
350667
348026
345397
342783
340183
337599
335030
332477
329937
327409
324889
322374
319862
317353
314845
312343
309844
307353
304868
302396
299930
297476
295029
292595
290166
287749
285335
282933
280535
278152
275775
273412
271056
268714
266382
264066
261762
259475
257201
254943
252694
250459
248231
246013
243801
241603
239414
237240
235077
232928
230788
228659
226536
224423
222315
220214
218117
216027
213941
211861
209785
207719
205661
203612
201573
199543
197520
195509
193502
191507
189515
187546
185583
183628
181693
179763
177841
175919
174019
172113
170214
168337
166465
164564
162711
160826
158962
157095
155258
153415
151599
149745
147929
146082
144270
142406
140576
138733
136919
135065
133255
131398
129568
127704
125850
123975
122099
120202
118295
116367
114420
112456
110450
108427
106362
104260
102140
99970.7
97776.6
95541.2
93273.8
90976.4
88653.6
617580
611519
605628
599896
594328
588920
583668
578571
573622
568815
564141
559593
555162
550839
546617
542488
538445
534481
530591
526768
523009
519308
515660
512063
508512
505005
501538
498109
494715
491354
488024
484724
481451
478204
474981
471782
468605
465450
462314
459197
456099
453018
449954
446906
443873
440856
437853
434864
431889
428928
425980
423045
420123
417214
414317
411432
408559
405698
402847
400007
397179
394360
391552
388755
385967
383189
380421
377663
374915
372176
369448
366729
364022
361326
358641
355967
353303
350649
348006
345376
342760
340159
337574
335003
332448
329907
327377
324854
322336
319822
317312
314804
312303
309804
307312
304828
302356
299890
297435
294990
292557
290129
287711
285298
282896
280500
278118
275744
273383
271029
268690
266360
264046
261743
259457
257183
254925
252677
250442
248213
245994
243782
241582
239391
237215
235049
232898
230754
228623
226499
224385
222276
220175
218078
215989
213903
211825
209749
207684
205624
203576
201535
199504
197481
195469
193463
191467
189479
187508
185543
183596
181655
179727
177800
175884
173975
172077
170176
168302
166412
164529
162653
160772
158899
157042
155203
153358
151527
149678
147847
146014
144186
142327
140484
138648
136817
134966
133148
131289
129451
127583
125725
123843
121963
120057
118142
116205
114248
112278
110256
108228
106153
104051
101929
99762
97569
95339.7
93080.4
90793.7
88483.8
617988
611945
606062
600334
594764
589350
584090
578980
574015
569190
564496
559927
555474
551130
546886
542737
538674
534692
530784
526946
523171
519456
515796
512188
508626
505109
501634
498196
494795
491427
488091
484785
481506
478254
475027
471823
468642
465482
462343
459223
456121
453037
449970
446918
443883
440862
437856
434865
431887
428923
425973
423036
420113
417202
414303
411417
408543
405681
402829
399989
397159
394340
391532
388733
385945
383167
380399
377641
374892
372154
369426
366709
364002
361307
358623
355950
353286
350631
347988
345357
342740
340138
337550
334978
332420
329876
327341
324817
322295
319779
317267
314760
312258
309761
307269
304787
302313
299849
297394
294952
292518
290092
287673
285262
282860
280468
278087
275716
273356
271005
268666
266339
264024
261724
259437
257164
254904
252657
250420
248192
245971
243760
241558
239366
237188
235022
232866
230721
228586
226460
224343
222234
220130
218034
215944
213860
211782
209709
207644
205585
203536
201495
199464
197442
195429
193422
191429
189446
187476
185514
183567
181622
179693
177764
175852
173939
172044
170138
168270
166363
164483
162585
160725
158846
156996
155154
153305
151459
149617
147778
145951
144099
142259
140411
138568
136729
134885
133052
131194
129347
127481
125616
123733
121847
119935
118013
116067
114101
112125
110096
108060
105985
103883
101758
99592.7
97400.8
95176.7
92923.4
90645.1
88345.6
618313
612283
606405
600677
595107
589689
584423
579304
574328
569489
564780
560194
555724
551363
547103
542937
538858
534861
530940
527088
523302
519576
515906
512288
508718
505194
501711
498267
494859
491486
488144
484833
481550
478294
475063
471855
468671
465507
462365
459241
456137
453050
449980
446926
443888
440865
437857
434863
431883
428918
425966
423028
420102
417190
414291
411404
408529
405665
402813
399972
397142
394323
391514
388715
385926
383148
380379
377621
374873
372135
369407
366690
363985
361290
358607
355934
353270
350616
347973
345341
342724
340120
337531
334956
332394
329847
327308
324780
322255
319738
317224
314717
312214
309718
307227
304747
302273
299811
297356
294915
292480
290056
287638
285230
282828
280439
278058
275691
273331
270984
268645
266320
264005
261706
259417
257144
254882
252635
250396
248168
245946
243736
241533
239342
237163
234995
232837
230690
228550
226423
224301
222190
220083
217988
215896
213813
211736
209666
207601
205544
203495
201456
199424
197403
195390
193385
191394
189414
187447
185484
183537
181587
179656
177727
175820
173900
172009
170103
168225
166306
164438
162544
160696
158796
156954
155096
153249
151402
149566
147715
145886
144029
142198
140340
138501
136661
134820
132972
131119
129262
127398
125528
123646
121751
119835
117907
115956
113985
112004
109970
107927
105857
103753
101626
99460
97269.2
95048.3
92799.4
90527.9
88236.2
618556
612534
606658
600932
595360
589941
584671
579546
574561
569712
564992
560394
555912
551538
547265
543087
538997
534989
531057
527196
523401
519667
515989
512364
508788
505257
501768
498319
494907
491529
488184
484869
481582
478323
475089
471878
468691
465525
462380
459254
456147
453058
449986
446931
443891
440866
437856
434861
431880
428913
425960
423021
420095
417182
414281
411393
408517
405653
402800
399959
397128
394308
391499
388700
385911
383132
380363
377605
374857
372119
369392
366676
363970
361276
358593
355920
353257
350603
347960
345328
342710
340106
337516
334938
332374
329822
327279
324747
322219
319702
317187
314682
312177
309684
307192
304714
302239
299779
297323
294884
292448
290027
287608
285203
282801
280416
278034
275670
273311
270966
268627
266304
263988
261689
259398
257125
254860
252613
250372
248145
245924
243716
241512
239324
237143
234975
232814
230666
228523
226392
224265
222151
220041
217945
215851
213770
211693
209626
207561
205507
203459
201421
199389
197368
195356
193355
191365
189386
187417
185453
183505
181551
179622
177690
175783
173860
171972
170060
168179
166271
164407
162502
160657
158754
156916
155044
153205
151352
149517
147664
145836
143975
142145
140284
138453
136606
134767
132912
131061
129200
127336
125464
123578
121678
119761
117827
115876
113897
111913
109882
107833
105767
103659
101531
99362.9
97172.4
94953.6
92708.1
90441.2
88154.9
618712
612697
606825
601101
595530
590109
584836
579707
574717
569861
565133
560528
556037
551654
547373
543187
539090
535074
531136
527268
523467
519727
516044
512415
508834
505299
501807
498354
494939
491558
488210
484893
481604
478342
475105
471893
468704
465537
462390
459262
456154
453064
449990
446933
443892
440867
437856
434860
431878
428910
425956
423016
420089
417176
414275
411386
408509
405645
402791
399949
397118
394298
391488
388688
385899
383120
380351
377592