/*--------------------------------*- C++ -*----------------------------------*\
| =========                 |                                                 |
| \\      /  F ield         | OpenFOAM: The Open Source CFD Toolbox           |
|  \\    /   O peration     | Version:  2.4.0                                 |
|   \\  /    A nd           | Web:      www.OpenFOAM.org                      |
|    \\/     M anipulation  |                                                 |
\*---------------------------------------------------------------------------*/
FoamFile
{
    version     2.0;
    format      ascii;
    class       volVectorField;
    location    "0.56";
    object      U;
}
// * * * * * * * * * * * * * * * * * * * * * * * * * * * * * * * * * * * * * //

dimensions      [0 1 -1 0 0 0 0];

internalField   nonuniform List<vector> 
8800
(
(8.09163 0.387965 0)
(5.44959 0.242466 0)
(3.91165 0.0429808 0)
(3.15601 -0.0153341 0)
(2.80266 -0.0185765 0)
(2.59723 -0.0107219 0)
(2.48551 -0.0057176 0)
(2.37803 -0.00239705 0)
(2.32256 -0.00162001 0)
(2.24746 -0.000376983 0)
(2.21812 -0.000578676 0)
(2.16506 -0.000576828 0)
(2.14697 0.000142627 0)
(2.09813 0.000711448 0)
(2.0794 -0.000220873 0)
(2.03449 0.00171063 0)
(2.00516 0.000515166 0)
(1.95795 0.000422701 0)
(1.94034 0.00861488 0)
(1.72358 -0.0654506 0)
(10.0846 0.838678 0)
(9.6576 0.867444 0)
(8.87224 0.507081 0)
(8.08037 0.261836 0)
(7.49772 0.137105 0)
(7.00269 0.0832944 0)
(6.70275 0.0538363 0)
(6.3931 0.0404717 0)
(6.23492 0.0296214 0)
(6.0156 0.0252231 0)
(5.93323 0.018626 0)
(5.77498 0.0164334 0)
(5.72403 0.0154196 0)
(5.59491 0.0175793 0)
(5.55388 0.0127003 0)
(5.43661 0.0197966 0)
(5.38906 0.0185904 0)
(5.26682 0.014694 0)
(5.23 0.0336724 0)
(5.04138 -0.0467409 0)
(10.0636 0.631936 0)
(10.659 0.862465 0)
(10.8696 0.602446 0)
(10.6866 0.373461 0)
(10.4645 0.253844 0)
(10.0788 0.198564 0)
(9.84799 0.152735 0)
(9.48549 0.12294 0)
(9.32889 0.0940477 0)
(9.0237 0.0786566 0)
(8.93391 0.0581571 0)
(8.69738 0.0508243 0)
(8.64062 0.0437896 0)
(8.44652 0.0445229 0)
(8.41181 0.0350803 0)
(8.22644 0.0439507 0)
(8.20381 0.0431333 0)
(8.00487 0.0415487 0)
(7.98296 0.0561155 0)
(7.77804 -0.0427533 0)
(10.0047 0.458279 0)
(10.5671 0.703906 0)
(11.1727 0.547445 0)
(11.3674 0.352007 0)
(11.566 0.259407 0)
(11.4503 0.230272 0)
(11.5075 0.198899 0)
(11.2862 0.176455 0)
(11.3147 0.146575 0)
(11.069 0.130746 0)
(11.0858 0.103838 0)
(10.8623 0.0929016 0)
(10.8693 0.0813279 0)
(10.6622 0.0795729 0)
(10.6826 0.0642775 0)
(10.4564 0.0780624 0)
(10.5007 0.0648801 0)
(10.2442 0.0874444 0)
(10.2762 0.0672396 0)
(10.0082 0.077262 0)
(10.0551 0.346214 0)
(10.3961 0.565662 0)
(11.0572 0.465485 0)
(11.2941 0.293505 0)
(11.6655 0.204973 0)
(11.6544 0.196157 0)
(11.9109 0.176769 0)
(11.7994 0.171593 0)
(12.011 0.142977 0)
(11.8883 0.141399 0)
(12.0385 0.105768 0)
(11.93 0.108655 0)
(12.0356 0.0906333 0)
(11.9233 0.101203 0)
(12.0245 0.0736584 0)
(11.8672 0.10576 0)
(11.9803 0.0724429 0)
(11.7808 0.121117 0)
(11.8679 0.0730517 0)
(11.6416 0.139194 0)
(10.0653 0.254449 0)
(10.3137 0.450385 0)
(10.9053 0.380005 0)
(11.1807 0.249987 0)
(11.5444 0.160314 0)
(11.5771 0.1497 0)
(11.8392 0.140259 0)
(11.7963 0.143115 0)
(12.0025 0.114523 0)
(12.0104 0.125235 0)
(12.1368 0.091839 0)
(12.1779 0.0921398 0)
(12.2629 0.0821653 0)
(12.2938 0.0824339 0)
(12.3829 0.0735282 0)
(12.3786 0.0890152 0)
(12.4834 0.0790132 0)
(12.438 0.0984856 0)
(12.5082 0.0791689 0)
(12.4266 0.0598185 0)
(10.0283 0.172786 0)
(10.2905 0.351514 0)
(10.7504 0.293342 0)
(11.1173 0.202964 0)
(11.4109 0.123565 0)
(11.5316 0.115542 0)
(11.7095 0.103991 0)
(11.7264 0.120592 0)
(11.8929 0.0775421 0)
(11.9652 0.101894 0)
(12.0291 0.0598112 0)
(12.1302 0.0741595 0)
(12.2005 0.066141 0)
(12.3011 0.0666456 0)
(12.3218 0.0547202 0)
(12.4129 0.0729366 0)
(12.4758 0.0591257 0)
(12.5101 0.0798506 0)
(12.5735 0.0433524 0)
(12.5171 0.0234791 0)
(10.0245 0.117437 0)
(10.2364 0.247855 0)
(10.6659 0.203625 0)
(11.0411 0.152726 0)
(11.3115 0.0883653 0)
(11.5374 0.0767636 0)
(11.6307 0.0773471 0)
(11.6831 0.082247 0)
(11.7741 0.0445467 0)
(11.8793 0.0871403 0)
(11.985 0.0494522 0)
(12.035 0.0458685 0)
(12.1384 0.0399895 0)
(12.2317 0.0505115 0)
(12.2571 0.0423371 0)
(12.3591 0.0448233 0)
(12.388 0.0410038 0)
(12.477 0.0444991 0)
(12.5212 0.0154928 0)
(12.39 0.0145273 0)
(9.98114 0.0643323 0)
(10.2795 0.152803 0)
(10.6181 0.120551 0)
(10.9694 0.0884781 0)
(11.2565 0.0455346 0)
(11.4795 0.0437376 0)
(11.5703 0.0597074 0)
(11.6887 0.0636117 0)
(11.7249 0.0218966 0)
(11.837 0.0351177 0)
(11.9354 0.0262012 0)
(12.0006 0.0284924 0)
(12.0822 0.0290069 0)
(12.1552 0.0298416 0)
(12.2802 0.0258422 0)
(12.3018 0.0282227 0)
(12.3484 0.020332 0)
(12.4237 0.0070949 0)
(12.4192 0.0143065 0)
(12.3656 -0.0167844 0)
(9.98021 0.0196931 0)
(10.2751 0.0418641 0)
(10.5665 0.0529649 0)
(10.9806 0.0334777 0)
(11.226 0.00971984 0)
(11.4329 0.0126877 0)
(11.5505 0.0189694 0)
(11.666 0.0201507 0)
(11.7455 0.000113748 0)
(11.8257 0.022201 0)
(11.8812 0.0126282 0)
(11.9766 0.00361524 0)
(12.0276 0.00939722 0)
(12.1593 -0.00376721 0)
(12.2254 0.00671359 0)
(12.273 0.0163447 0)
(12.3636 -0.00413715 0)
(12.4098 -0.00777895 0)
(12.4189 -0.0247074 0)
(12.3539 -0.0337666 0)
(10.0117 -0.0281122 0)
(10.2102 -0.0426986 0)
(10.597 -0.0368593 0)
(10.9828 -0.0378356 0)
(11.2299 -0.0158584 0)
(11.4448 -0.0192817 0)
(11.5489 -0.00616773 0)
(11.6359 -0.00833873 0)
(11.7231 -0.029591 0)
(11.8321 -0.0102663 0)
(11.9226 -0.00939533 0)
(11.9783 -0.0107097 0)
(12.0518 -0.00956495 0)
(12.1705 -0.0214949 0)
(12.1862 -0.00629426 0)
(12.2681 -0.0158959 0)
(12.3556 -0.0286112 0)
(12.4143 -0.0384819 0)
(12.3979 -0.0241724 0)
(12.3105 -0.0419137 0)
(10.0041 -0.0648839 0)
(10.2337 -0.15237 0)
(10.6367 -0.122691 0)
(10.9764 -0.0857745 0)
(11.2668 -0.0536169 0)
(11.4432 -0.0505083 0)
(11.586 -0.0353265 0)
(11.6933 -0.0473897 0)
(11.7576 -0.0586004 0)
(11.815 -0.0402432 0)
(11.9282 -0.0215357 0)
(11.997 -0.0312493 0)
(12.0966 -0.0323551 0)
(12.1726 -0.0405891 0)
(12.2255 -0.0190573 0)
(12.3021 -0.0368129 0)
(12.3847 -0.0561999 0)
(12.4046 -0.0506161 0)
(12.4171 -0.0544006 0)
(12.3807 -0.0661865 0)
(10.0095 -0.119301 0)
(10.2653 -0.249418 0)
(10.6523 -0.199227 0)
(11.0451 -0.155417 0)
(11.3331 -0.0829272 0)
(11.488 -0.0836891 0)
(11.6143 -0.0749937 0)
(11.7167 -0.075476 0)
(11.8036 -0.068404 0)
(11.8676 -0.0652788 0)
(11.968 -0.0509034 0)
(12.0567 -0.0568892 0)
(12.1461 -0.0452669 0)
(12.1914 -0.0562859 0)
(12.2594 -0.0404897 0)
(12.357 -0.0644488 0)
(12.4258 -0.067977 0)
(12.4475 -0.0798913 0)
(12.4899 -0.0779215 0)
(12.4218 -0.0680517 0)
(10.0294 -0.177439 0)
(10.2881 -0.349598 0)
(10.7486 -0.291147 0)
(11.1166 -0.206876 0)
(11.4052 -0.11878 0)
(11.5414 -0.11374 0)
(11.6881 -0.100348 0)
(11.7695 -0.114749 0)
(11.8718 -0.10124 0)
(11.9477 -0.0940362 0)
(12.0492 -0.0671558 0)
(12.1139 -0.0794904 0)
(12.2051 -0.0595807 0)
(12.2688 -0.0739162 0)
(12.3422 -0.0591888 0)
(12.41 -0.0893482 0)
(12.482 -0.08841 0)
(12.5191 -0.103096 0)
(12.5472 -0.105011 0)
(12.4817 -0.103847 0)
(10.0674 -0.255062 0)
(10.3061 -0.452871 0)
(10.904 -0.374976 0)
(11.1822 -0.253552 0)
(11.5295 -0.156063 0)
(11.5952 -0.153684 0)
(11.8169 -0.14247 0)
(11.8313 -0.141576 0)
(11.9948 -0.121259 0)
(11.9993 -0.119071 0)
(12.1472 -0.0897155 0)
(12.1411 -0.10248 0)
(12.2783 -0.0777082 0)
(12.2783 -0.0967351 0)
(12.3876 -0.0732439 0)
(12.3803 -0.111501 0)
(12.4619 -0.0987187 0)
(12.435 -0.131418 0)
(12.4632 -0.121668 0)
(12.3455 -0.133333 0)
(10.0635 -0.349546 0)
(10.3835 -0.563096 0)
(11.0635 -0.465117 0)
(11.2874 -0.294537 0)
(11.6677 -0.204618 0)
(11.6632 -0.19459 0)
(11.9006 -0.177768 0)
(11.8131 -0.168261 0)
(11.997 -0.152308 0)
(11.8827 -0.136904 0)
(12.0449 -0.107982 0)
(11.9055 -0.113039 0)
(12.0533 -0.0935701 0)
(11.9033 -0.104285 0)
(12.0204 -0.0832142 0)
(11.8586 -0.115333 0)
(11.9365 -0.101052 0)
(11.7642 -0.136249 0)
(11.7705 -0.121604 0)
(11.5363 -0.159282 0)
(10.0135 -0.458683 0)
(10.5537 -0.704147 0)
(11.1826 -0.546195 0)
(11.3555 -0.352811 0)
(11.5751 -0.259908 0)
(11.4445 -0.229669 0)
(11.5094 -0.200762 0)
(11.2859 -0.17557 0)
(11.3148 -0.150182 0)
(11.0545 -0.128845 0)
(11.1022 -0.102126 0)
(10.8291 -0.0996667 0)
(10.8951 -0.0817796 0)
(10.6189 -0.0858721 0)
(10.6953 -0.0676482 0)
(10.4085 -0.0933863 0)
(10.4715 -0.0775579 0)
(10.1747 -0.115052 0)
(10.1825 -0.0928695 0)
(9.84674 -0.16032 0)
(10.0661 -0.632687 0)
(10.6525 -0.862348 0)
(10.8753 -0.601678 0)
(10.6802 -0.373954 0)
(10.4705 -0.254356 0)
(10.0736 -0.197473 0)
(9.85083 -0.154022 0)
(9.48191 -0.121714 0)
(9.33014 -0.0965905 0)
(9.00955 -0.0779739 0)
(8.95097 -0.0575823 0)
(8.66311 -0.0550864 0)
(8.66582 -0.0450693 0)
(8.39405 -0.047458 0)
(8.43316 -0.0389461 0)
(8.1525 -0.0536822 0)
(8.19378 -0.0506633 0)
(7.89255 -0.0689739 0)
(7.89563 -0.0685729 0)
(7.55164 -0.0870488 0)
(10.0854 -0.838727 0)
(9.65471 -0.867531 0)
(8.87496 -0.506654 0)
(8.07727 -0.262029 0)
(7.50045 -0.137494 0)
(6.99939 -0.0827528 0)
(6.70458 -0.0546012 0)
(6.38999 -0.0399676 0)
(6.23542 -0.0306646 0)
(6.00557 -0.0255491 0)
(5.94342 -0.0173779 0)
(5.75065 -0.0192556 0)
(5.7377 -0.0159509 0)
(5.55307 -0.0190971 0)
(5.56626 -0.0149957 0)
(5.36972 -0.0245804 0)
(5.37842 -0.0235338 0)
(5.15405 -0.031972 0)
(5.14307 -0.0365429 0)
(4.85588 -0.0177886 0)
(8.09167 -0.388011 0)
(5.44869 -0.242498 0)
(3.91226 -0.0428762 0)
(3.15565 0.0152765 0)
(2.80291 0.018452 0)
(2.59607 0.0109566 0)
(2.48605 0.00550708 0)
(2.37672 0.00260009 0)
(2.32232 0.00139417 0)
(2.24281 0.000139717 0)
(2.22007 0.00127767 0)
(2.15639 -0.000342596 0)
(2.14705 9.64519e-05 0)
(2.07992 -0.00119109 0)
(2.07717 9.95026e-05 0)
(2.00221 -0.00262641 0)
(1.98797 -0.00156597 0)
(1.89529 -0.00344518 0)
(1.85975 -0.0035605 0)
(1.71485 0.0113036 0)
(2.20612 -0.109352 0)
(2.29253 -0.00503903 0)
(2.43121 0.0096885 0)
(2.57402 -0.0175233 0)
(2.73892 -0.0465406 0)
(2.85811 -0.0634648 0)
(2.96158 -0.0644769 0)
(3.00669 -0.0580809 0)
(3.06597 -0.0492587 0)
(3.08215 -0.0411855 0)
(3.1299 -0.0364913 0)
(3.14037 -0.0277133 0)
(3.19653 -0.0222248 0)
(3.21315 -0.0145286 0)
(3.2765 -0.0132448 0)
(3.29844 -0.0115462 0)
(3.3661 -0.00147237 0)
(3.37391 0.0113166 0)
(3.44324 0.0229678 0)
(3.45364 0.036489 0)
(3.5315 0.0455421 0)
(3.54905 0.0525814 0)
(3.63461 0.0501731 0)
(3.65613 0.0391792 0)
(3.74274 0.0175936 0)
(3.75361 -0.00579877 0)
(3.82033 -0.0298095 0)
(3.81201 -0.0462426 0)
(3.85992 -0.0609914 0)
(3.83826 -0.0641289 0)
(3.87236 -0.0724527 0)
(3.85139 -0.070478 0)
(3.87868 -0.0717562 0)
(3.86017 -0.0661624 0)
(3.88112 -0.0581875 0)
(3.86058 -0.0471012 0)
(3.8769 -0.0334265 0)
(3.85387 -0.00780544 0)
(3.86529 0.0203482 0)
(3.8546 0.0537034 0)
(3.87389 0.101017 0)
(3.87952 0.132143 0)
(3.93456 0.162496 0)
(3.95144 0.196311 0)
(4.01227 0.200361 0)
(4.09154 0.199814 0)
(4.12535 0.18322 0)
(4.21096 0.151016 0)
(4.21927 0.113748 0)
(4.27758 0.0687622 0)
(4.24686 0.0252722 0)
(4.28501 -0.00486565 0)
(4.22512 -0.0180297 0)
(4.24447 -0.0258226 0)
(4.19847 -0.0128978 0)
(4.23158 -0.00797501 0)
(4.22445 0.00573 0)
(4.268 -0.00129624 0)
(4.28303 -0.0254005 0)
(4.32144 -0.0506415 0)
(4.33065 -0.0699437 0)
(4.3618 -0.0836877 0)
(4.39437 -0.0693711 0)
(4.39879 -0.0827984 0)
(4.44794 -0.0842665 0)
(4.42943 -0.102061 0)
(4.41486 -0.125868 0)
(4.39248 -0.155475 0)
(4.37234 -0.205482 0)
(4.40654 -0.230128 0)
(4.38538 -0.262361 0)
(4.43364 -0.234914 0)
(4.39782 -0.189604 0)
(4.47282 -0.0842469 0)
(4.53149 0.0647297 0)
(4.65401 0.174165 0)
(4.8555 0.370592 0)
(4.97162 0.46362 0)
(5.22321 0.602402 0)
(5.31405 0.666339 0)
(5.45346 0.676346 0)
(5.6705 0.710463 0)
(5.57067 0.614221 0)
(5.9443 0.535367 0)
(5.61431 0.404209 0)
(6.09318 0.272938 0)
(5.60204 0.129062 0)
(6.06982 0.0379107 0)
(5.52726 -0.0811086 0)
(5.90167 -0.0896828 0)
(5.34782 -0.160023 0)
(5.61864 -0.046678 0)
(5.15069 -0.0875062 0)
(5.29749 0.124163 0)
(4.97539 0.12181 0)
(5.04263 0.373275 0)
(4.81154 0.391917 0)
(5.03166 0.635606 0)
(4.61803 0.649864 0)
(5.32691 0.817534 0)
(4.48795 0.836682 0)
(5.79584 0.895623 0)
(4.54559 0.848937 0)
(6.25114 0.926436 0)
(5.02274 0.711894 0)
(6.53196 0.842064 0)
(5.78074 0.46566 0)
(6.79419 0.733525 0)
(6.67861 0.162589 0)
(7.10498 0.467803 0)
(7.45626 -0.114507 0)
(7.71129 0.278856 0)
(8.01029 -0.479255 0)
(8.22492 -0.0863083 0)
(8.76166 -0.658897 0)
(8.7626 -0.358147 0)
(9.31275 -1.02818 0)
(9.11751 -0.550205 0)
(10.07 -1.3495 0)
(9.50665 -0.741063 0)
(10.4943 -1.52414 0)
(9.93387 -1.07808 0)
(10.9974 -1.64726 0)
(10.3391 -1.1632 0)
(11.4096 -1.82825 0)
(10.6994 -1.29825 0)
(11.915 -1.87425 0)
(11.0712 -1.48138 0)
(12.354 -1.91181 0)
(11.5593 -1.57609 0)
(12.8044 -2.15407 0)
(11.9298 -1.66683 0)
(13.2048 -2.33388 0)
(12.4089 -1.99059 0)
(13.485 -2.4283 0)
(12.7145 -2.21561 0)
(13.681 -2.74435 0)
(12.9434 -2.4629 0)
(13.5209 -2.91682 0)
(13.089 -2.74892 0)
(13.4497 -3.05452 0)
(12.8898 -2.9723 0)
(12.9148 -3.11669 0)
(12.5521 -3.10947 0)
(12.2831 -3.17967 0)
(11.6607 -3.01391 0)
(11.3661 -2.90428 0)
(10.6541 -2.84993 0)
(10.2983 -2.42487 0)
(9.54998 -1.9971 0)
(9.43876 -1.73146 0)
(8.62312 -1.62511 0)
(8.59013 -1.15314 0)
(7.76356 -0.784528 0)
(8.09313 -0.529405 0)
(7.47218 -0.638314 0)
(7.91338 -0.32655 0)
(7.14503 -0.0861906 0)
(7.32749 0.21026 0)
(6.98675 0.202146 0)
(7.0496 0.249344 0)
(7.22837 0.541715 0)
(6.92606 0.72322 0)
(7.41213 0.961016 0)
(6.72408 0.873724 0)
(7.82656 1.20875 0)
(6.7916 1.10543 0)
(8.13116 1.59484 0)
(7.11697 1.51752 0)
(7.90698 1.76298 0)
(7.80672 1.97721 0)
(7.49439 2.04127 0)
(8.64201 2.37826 0)
(7.20398 2.65348 0)
(9.52243 2.86527 0)
(7.28234 3.16358 0)
(9.9437 2.96144 0)
(7.58878 3.31168 0)
(9.8249 2.49346 0)
(8.08086 2.8485 0)
(9.46562 2.05206 0)
(8.39937 2.19345 0)
(9.40489 1.62613 0)
(8.61294 1.66595 0)
(9.56312 1.17727 0)
(9.03373 1.11988 0)
(10.0315 0.869917 0)
(9.64764 1.05111 0)
(10.4785 1.06983 0)
(9.95128 1.33266 0)
(10.343 1.18047 0)
(9.54235 1.05846 0)
(9.46554 1.1517 0)
(8.94882 1.13352 0)
(8.44628 0.967179 0)
(7.95904 1.18068 0)
(7.25434 0.857741 0)
(6.52159 1.35079 0)
(6.23386 1.04914 0)
(5.12312 2.95864 0)
(5.18927 -0.0506483 0)
(5.19196 -0.0142517 0)
(5.21781 -0.031517 0)
(5.27089 -0.0700965 0)
(5.37961 -0.104535 0)
(5.45886 -0.119529 0)
(5.54286 -0.116561 0)
(5.56773 -0.10129 0)
(5.60589 -0.072659 0)
(5.6042 -0.0520114 0)
(5.63071 -0.0472425 0)
(5.62291 -0.0447795 0)
(5.6569 -0.0486075 0)
(5.66024 -0.0461065 0)
(5.70606 -0.04492 0)
(5.71136 -0.039869 0)
(5.75737 -0.0256197 0)
(5.75933 -0.0171566 0)
(5.80147 -0.00579035 0)
(5.80617 0.0045409 0)
(5.84996 0.00920909 0)
(5.86133 0.0156904 0)
(5.90978 0.00863149 0)
(5.92262 0.00294501 0)
(5.96939 -0.010336 0)
(5.98114 -0.0279237 0)
(6.01743 -0.0430971 0)
(6.01998 -0.0581055 0)
(6.04331 -0.067141 0)
(6.03549 -0.0725128 0)
(6.05061 -0.0757284 0)
(6.0384 -0.0742302 0)
(6.04808 -0.0733346 0)
(6.03666 -0.0644669 0)
(6.03757 -0.0561278 0)
(6.02827 -0.0415612 0)
(6.01722 -0.0224199 0)
(6.01051 -0.000136684 0)
(5.99158 0.0280278 0)
(5.98629 0.0601445 0)
(5.96879 0.0899142 0)
(5.97411 0.125071 0)
(5.96194 0.144398 0)
(5.98999 0.16697 0)
(5.97413 0.174003 0)
(6.02797 0.16605 0)
(6.01594 0.15226 0)
(6.07212 0.125931 0)
(6.05488 0.0942224 0)
(6.09719 0.0584919 0)
(6.07697 0.0289314 0)
(6.10177 -0.000161634 0)
(6.08613 -0.014761 0)
(6.09864 -0.026528 0)
(6.10308 -0.0256038 0)
(6.12997 -0.0283954 0)
(6.16085 -0.0265834 0)
(6.20134 -0.0437473 0)
(6.25158 -0.0521922 0)
(6.29061 -0.0736069 0)
(6.34157 -0.0913792 0)
(6.37868 -0.101375 0)
(6.40866 -0.123055 0)
(6.43763 -0.128596 0)
(6.46247 -0.145869 0)
(6.44954 -0.14266 0)
(6.4681 -0.145818 0)
(6.47452 -0.122073 0)
(6.47355 -0.131992 0)
(6.43902 -0.121281 0)
(6.40319 -0.119519 0)
(6.29113 -0.109651 0)
(6.20915 -0.0689773 0)
(6.02391 -0.0340987 0)
(5.94192 0.0372127 0)
(5.85576 0.134337 0)
(5.81238 0.181775 0)
(5.95403 0.341174 0)
(5.89436 0.350357 0)
(6.27133 0.499721 0)
(6.0577 0.489237 0)
(6.66483 0.554631 0)
(6.21214 0.479247 0)
(6.97596 0.465292 0)
(6.29279 0.347393 0)
(7.12261 0.259465 0)
(6.24916 0.173877 0)
(7.11426 0.0961214 0)
(6.07112 -0.006461 0)
(6.97789 0.0301098 0)
(5.849 -0.0421552 0)
(6.75723 0.0464848 0)
(5.65213 0.0492958 0)
(6.5568 0.20169 0)
(5.52177 0.177061 0)
(6.48516 0.444376 0)
(5.44264 0.400208 0)
(6.65224 0.61824 0)
(5.34868 0.611297 0)
(7.05821 0.780123 0)
(5.37793 0.684785 0)
(7.51365 0.794725 0)
(5.67479 0.725456 0)
(7.88634 0.71897 0)
(6.28605 0.500088 0)
(8.14969 0.682555 0)
(7.15497 0.250865 0)
(8.36152 0.426944 0)
(8.02801 -0.0462828 0)
(8.90456 0.290563 0)
(8.62718 -0.427805 0)
(9.45398 -0.021137 0)
(9.38705 -0.653551 0)
(10.0131 -0.272699 0)
(9.97707 -0.997012 0)
(10.4633 -0.51536 0)
(10.7503 -1.28067 0)
(10.8366 -0.663152 0)
(11.3156 -1.61141 0)
(11.1955 -0.87641 0)
(11.9168 -1.75581 0)
(11.562 -1.14944 0)
(12.3041 -1.85539 0)
(11.9958 -1.29155 0)
(12.77 -2.06703 0)
(12.198 -1.33929 0)
(13.3418 -2.12186 0)
(12.5367 -1.58193 0)
(13.686 -2.12681 0)
(12.8876 -1.6317 0)
(14.1763 -2.46854 0)
(13.1251 -1.62696 0)
(14.4881 -2.55513 0)
(13.4767 -1.96051 0)
(14.7016 -2.66276 0)
(13.5318 -2.08662 0)
(14.7556 -2.9694 0)
(13.6545 -2.25023 0)
(14.4851 -3.04535 0)
(13.5481 -2.47832 0)
(14.0345 -3.12217 0)
(13.1531 -2.59224 0)
(13.2572 -3.13262 0)
(12.6838 -2.62829 0)
(12.096 -2.96568 0)
(11.7593 -2.49747 0)
(11.0047 -2.66857 0)
(10.8084 -2.29679 0)
(9.81324 -2.05244 0)
(9.88448 -1.56409 0)
(8.92649 -1.52835 0)
(9.23705 -1.26179 0)
(8.18823 -0.868751 0)
(8.60235 -0.443553 0)
(7.69832 -0.521626 0)
(8.3859 -0.389493 0)
(7.32686 -0.340191 0)
(8.01979 0.325445 0)
(6.73551 0.156944 0)
(7.81796 0.355713 0)
(6.43707 0.187501 0)
(7.83173 0.58969 0)
(6.20019 0.63054 0)
(7.61152 0.982011 0)
(6.34754 0.80777 0)
(7.48757 1.04574 0)
(7.12549 1.13675 0)
(7.30644 1.25295 0)
(7.94873 1.51053 0)
(7.04335 1.72386 0)
(8.70538 1.78368 0)
(6.85958 2.18719 0)
(9.426 2.15366 0)
(7.00207 2.7062 0)
(9.97048 2.4369 0)
(7.73831 3.17402 0)
(10.073 2.53761 0)
(8.5318 3.08282 0)
(10.0928 2.49463 0)
(8.77274 2.73021 0)
(9.883 2.23124 0)
(8.68782 2.16573 0)
(9.57801 1.73867 0)
(8.77573 1.41862 0)
(9.89205 1.05522 0)
(9.41479 1.0179 0)
(10.4841 0.685348 0)
(10.1315 0.753176 0)
(10.8868 0.7633 0)
(10.7339 1.06025 0)
(11.2717 1.20726 0)
(10.8617 1.56691 0)
(10.7126 1.49947 0)
(10.2194 1.57612 0)
(9.68498 1.54118 0)
(9.02894 1.55378 0)
(8.64579 1.49182 0)
(7.77589 1.70079 0)
(7.43951 1.69575 0)
(6.88902 2.68079 0)
(7.83628 -0.0629892 0)
(7.83575 -0.0619296 0)
(7.84447 -0.108703 0)
(7.86496 -0.133368 0)
(7.95259 -0.140812 0)
(8.01834 -0.132782 0)
(8.09893 -0.109282 0)
(8.11623 -0.0932225 0)
(8.12735 -0.0710821 0)
(8.11102 -0.0571402 0)
(8.11351 -0.0549783 0)
(8.10166 -0.0470526 0)
(8.11989 -0.0547757 0)
(8.11391 -0.0540006 0)
(8.14557 -0.0514393 0)
(8.14698 -0.0503013 0)
(8.17072 -0.0357727 0)
(8.17697 -0.0326189 0)
(8.18924 -0.0239326 0)
(8.2009 -0.0116319 0)
(8.2139 -0.010927 0)
(8.22778 -0.00154452 0)
(8.25406 -0.00731031 0)
(8.26927 -0.0116256 0)
(8.29431 -0.0189774 0)
(8.30693 -0.0359186 0)
(8.31695 -0.0472206 0)
(8.32509 -0.0608622 0)
(8.32001 -0.0688364 0)
(8.32323 -0.071004 0)
(8.30943 -0.0757712 0)
(8.31177 -0.0703536 0)
(8.2933 -0.0675326 0)
(8.2948 -0.0589229 0)
(8.27406 -0.0477295 0)
(8.27414 -0.0310891 0)
(8.24836 -0.0156632 0)
(8.25094 0.0123288 0)
(8.21517 0.0358981 0)
(8.21699 0.0660536 0)
(8.18546 0.097813 0)
(8.18795 0.122464 0)
(8.169 0.148908 0)
(8.17062 0.160166 0)
(8.16697 0.169599 0)
(8.1652 0.159711 0)
(8.17805 0.148045 0)
(8.16884 0.121536 0)
(8.18696 0.0977834 0)
(8.16664 0.0628347 0)
(8.18962 0.0373346 0)
(8.15923 0.00776578 0)
(8.19034 -0.0153315 0)
(8.16028 -0.0290911 0)
(8.20688 -0.0439732 0)
(8.18754 -0.0486006 0)
(8.25453 -0.0643837 0)
(8.24589 -0.0671225 0)
(8.33048 -0.101194 0)
(8.322 -0.0926933 0)
(8.40896 -0.143055 0)
(8.3924 -0.129524 0)
(8.46801 -0.160402 0)
(8.43167 -0.159243 0)
(8.5113 -0.159071 0)
(8.43343 -0.146183 0)
(8.52627 -0.146238 0)
(8.413 -0.11087 0)
(8.49629 -0.132587 0)
(8.34913 -0.0898001 0)
(8.42156 -0.0879343 0)
(8.23092 -0.0311467 0)
(8.25502 -0.00498841 0)
(8.04246 0.123202 0)
(7.98984 0.11753 0)
(7.84665 0.296725 0)
(7.69302 0.254209 0)
(7.69661 0.387023 0)
(7.44702 0.355656 0)
(7.63705 0.460095 0)
(7.2893 0.379373 0)
(7.66441 0.478931 0)
(7.2369 0.36993 0)
(7.76245 0.371695 0)
(7.16523 0.300258 0)
(7.87146 0.255844 0)
(7.01039 0.14771 0)
(7.92026 0.156661 0)
(6.78599 0.0681678 0)
(7.91579 0.0662898 0)
(6.52111 0.0486472 0)
(7.92032 0.133895 0)
(6.3114 0.0570401 0)
(7.91044 0.231234 0)
(6.26927 0.255307 0)
(8.01337 0.323349 0)
(6.23039 0.395417 0)
(8.42096 0.571333 0)
(6.21201 0.477868 0)
(8.85338 0.589435 0)
(6.54204 0.667373 0)
(9.29418 0.52769 0)
(6.92159 0.521205 0)
(9.77015 0.570533 0)
(7.67336 0.297058 0)
(9.94637 0.375315 0)
(8.532 0.0154454 0)
(10.5058 0.258573 0)
(9.09637 -0.359796 0)
(11.0811 -0.0316814 0)
(9.83751 -0.57365 0)
(11.6472 -0.282591 0)
(10.4342 -0.970052 0)
(12.1183 -0.458162 0)
(11.1832 -1.23931 0)
(12.4854 -0.706262 0)
(11.7515 -1.48363 0)
(12.8425 -0.868384 0)
(12.3953 -1.79003 0)
(12.9971 -0.992308 0)
(12.9611 -1.91859 0)
(13.33 -1.3196 0)
(13.2748 -1.97287 0)
(13.5677 -1.39981 0)
(13.8348 -2.22916 0)
(13.5896 -1.44249 0)
(14.3081 -2.19825 0)
(13.8041 -1.74667 0)
(14.6258 -2.22334 0)
(13.8834 -1.70148 0)
(15.0658 -2.55258 0)
(13.9275 -1.70196 0)
(15.2617 -2.58385 0)
(13.9438 -2.01337 0)
(15.3962 -2.66647 0)
(13.7395 -2.05768 0)
(15.3734 -2.91971 0)
(13.5055 -2.12765 0)
(14.9919 -2.96374 0)
(13.0212 -2.27247 0)
(14.5273 -2.92628 0)
(12.3996 -2.27655 0)
(13.6322 -2.82807 0)
(11.6992 -2.15341 0)
(12.5363 -2.61005 0)
(10.9371 -1.99668 0)
(11.4138 -2.30504 0)
(10.1145 -1.77682 0)
(10.2291 -1.86757 0)
(9.66807 -1.19872 0)
(9.40215 -1.4021 0)
(9.23644 -0.883651 0)
(8.59849 -0.807547 0)
(8.94839 -0.230561 0)
(8.31553 -0.476142 0)
(8.75177 -0.149614 0)
(7.96665 -0.132152 0)
(8.17044 0.551197 0)
(7.73616 0.298089 0)
(7.77305 0.547513 0)
(7.53385 0.273033 0)
(7.20063 0.763869 0)
(7.38826 0.936303 0)
(6.53862 0.951639 0)
(7.69893 0.800504 0)
(6.20609 0.842043 0)
(8.16842 0.892229 0)
(5.93177 1.42653 0)
(8.4609 1.14043 0)
(5.86865 1.7539 0)
(9.05506 1.34278 0)
(6.42344 2.10072 0)
(9.57563 1.59142 0)
(7.35411 2.57704 0)
(9.93357 2.03442 0)
(8.0852 2.87812 0)
(10.2599 2.49448 0)
(8.72947 2.91506 0)
(10.0963 2.53015 0)
(8.8679 2.62933 0)
(9.72586 2.40675 0)
(8.75274 2.19588 0)
(9.68805 1.63021 0)
(9.08099 1.33342 0)
(10.104 0.722486 0)
(9.96119 0.510863 0)
(11.0784 0.4877 0)
(10.9635 0.634709 0)
(11.7698 0.690177 0)
(11.3714 1.04188 0)
(11.9087 1.13857 0)
(11.4724 1.43561 0)
(11.7968 1.76366 0)
(11.2167 1.96603 0)
(10.9442 1.97388 0)
(10.273 2.07676 0)
(9.74755 2.08241 0)
(9.0876 2.2669 0)
(8.43987 2.12133 0)
(8.21675 2.58014 0)
(10.0373 -0.100908 0)
(10.0535 -0.192962 0)
(10.0814 -0.257692 0)
(10.1151 -0.252985 0)
(10.1908 -0.230987 0)
(10.232 -0.194458 0)
(10.2746 -0.147816 0)
(10.2984 -0.115656 0)
(10.2875 -0.0729593 0)
(10.2814 -0.0528566 0)
(10.2583 -0.0561293 0)
(10.2306 -0.0523672 0)
(10.2266 -0.0726782 0)
(10.2081 -0.0760453 0)
(10.2321 -0.0757287 0)
(10.2503 -0.0672489 0)
(10.2616 -0.0351426 0)
(10.2939 -0.0347363 0)
(10.2837 -0.0174046 0)
(10.3003 -0.0125408 0)
(10.2855 -0.0191696 0)
(10.283 -0.0161314 0)
(10.2918 -0.0338819 0)
(10.3005 -0.0335152 0)
(10.317 -0.035027 0)
(10.3413 -0.0462978 0)
(10.3443 -0.0426382 0)
(10.3684 -0.0554058 0)
(10.3486 -0.0558422 0)
(10.3486 -0.0588256 0)
(10.3193 -0.0707147 0)
(10.3043 -0.0634604 0)
(10.2841 -0.0667461 0)
(10.265 -0.0580388 0)
(10.2621 -0.0385682 0)
(10.2421 -0.0302915 0)
(10.2527 0.00407751 0)
(10.2259 0.025994 0)
(10.2355 0.0542473 0)
(10.1994 0.0841815 0)
(10.2108 0.103245 0)
(10.1703 0.131995 0)
(10.1942 0.144162 0)
(10.1483 0.160852 0)
(10.1898 0.164745 0)
(10.1469 0.161739 0)
(10.1904 0.153391 0)
(10.1604 0.134611 0)
(10.1869 0.105258 0)
(10.1674 0.0815892 0)
(10.1796 0.0398045 0)
(10.1612 0.0261858 0)
(10.1749 -0.0210109 0)
(10.155 -0.0229914 0)
(10.1868 -0.0508267 0)
(10.1643 -0.0618147 0)
(10.2193 -0.0727789 0)
(10.1887 -0.0985817 0)
(10.2806 -0.111138 0)
(10.2058 -0.127794 0)
(10.3509 -0.161311 0)
(10.2111 -0.157589 0)
(10.4046 -0.181231 0)
(10.204 -0.177219 0)
(10.4204 -0.166598 0)
(10.1838 -0.158334 0)
(10.3948 -0.154275 0)
(10.1299 -0.0933322 0)
(10.3476 -0.129567 0)
(10.0562 -0.0182146 0)
(10.2812 -0.0458481 0)
(9.94249 0.0694314 0)
(10.1477 0.0735417 0)
(9.78414 0.204222 0)
(9.94614 0.201139 0)
(9.61037 0.370455 0)
(9.72293 0.334777 0)
(9.44118 0.487499 0)
(9.53709 0.445809 0)
(9.2787 0.529282 0)
(9.34275 0.486164 0)
(9.16953 0.534262 0)
(9.09975 0.388551 0)
(9.14838 0.505408 0)
(8.83141 0.269178 0)
(9.12136 0.324699 0)
(8.58058 0.230169 0)
(9.10856 0.169317 0)
(8.22913 0.0970706 0)
(9.20964 0.19185 0)
(7.85961 0.00166727 0)
(9.24371 0.155249 0)
(7.74736 0.150904 0)
(9.28385 0.118514 0)
(7.56809 0.209917 0)
(9.72035 0.33725 0)
(7.35595 0.236523 0)
(10.1595 0.378144 0)
(7.60981 0.489407 0)
(10.5578 0.307492 0)
(7.84555 0.461665 0)
(11.2407 0.371892 0)
(8.2482 0.328847 0)
(11.6539 0.224756 0)
(9.0071 0.12847 0)
(12.1368 0.135094 0)
(9.5678 -0.257049 0)
(12.7724 -0.0845256 0)
(10.1639 -0.458122 0)
(13.3821 -0.431144 0)
(10.7253 -0.716491 0)
(13.8865 -0.603977 0)
(11.4098 -1.15074 0)
(14.1877 -0.691718 0)
(11.9911 -1.38168 0)
(14.5414 -0.998944 0)
(12.4291 -1.52311 0)
(14.7195 -1.10663 0)
(13.0488 -1.89195 0)
(14.691 -1.16869 0)
(13.4699 -1.99269 0)
(14.8734 -1.48975 0)
(13.7368 -2.04509 0)
(14.9054 -1.51037 0)
(14.1827 -2.29605 0)
(14.8013 -1.60218 0)
(14.4982 -2.24003 0)
(14.8087 -1.84568 0)
(14.7863 -2.3117 0)
(14.6737 -1.7633 0)
(15.0432 -2.58253 0)
(14.5102 -1.79818 0)
(15.1546 -2.6131 0)
(14.2251 -2.00327 0)
(15.2451 -2.65309 0)
(13.81 -1.99411 0)
(15.1011 -2.87429 0)
(13.2826 -1.9154 0)
(14.8386 -2.88978 0)
(12.5498 -1.92675 0)
(14.4502 -2.75947 0)
(11.6583 -1.78563 0)
(13.8105 -2.65419 0)
(10.7642 -1.54493 0)
(12.9991 -2.41145 0)
(9.81012 -1.42795 0)
(12.1902 -2.11983 0)
(8.9567 -1.21931 0)
(11.3479 -1.82711 0)
(8.494 -0.812189 0)
(10.7582 -1.35285 0)
(8.0845 -0.592739 0)
(10.2384 -0.821085 0)
(7.80036 -0.108315 0)
(10.0944 -0.606111 0)
(7.68316 -0.0160315 0)
(10.1359 -0.0869919 0)
(7.26947 0.743053 0)
(10.2863 0.282772 0)
(7.12126 0.734621 0)
(10.5255 0.385416 0)
(6.70238 1.06586 0)
(10.1857 0.794006 0)
(6.65098 1.21733 0)
(10.1655 0.694785 0)
(6.53988 1.34054 0)
(9.6399 0.7307 0)
(6.04329 1.76695 0)
(9.54453 0.961967 0)
(6.03649 1.92655 0)
(9.37655 1.01995 0)
(5.94559 2.01574 0)
(9.23405 1.32959 0)
(6.5738 2.31479 0)
(9.54859 1.96985 0)
(7.98756 2.65107 0)
(9.90861 2.33325 0)
(8.89442 2.79172 0)
(9.98807 2.67904 0)
(8.92644 2.75971 0)
(9.76295 2.358 0)
(9.0085 2.13137 0)
(9.82832 1.45032 0)
(9.44395 0.968639 0)
(10.5842 0.384765 0)
(10.3672 0.0573174 0)
(11.4766 -0.197 0)
(11.631 0.0763576 0)
(12.6341 0.463412 0)
(12.3349 0.96352 0)
(12.9282 1.21029 0)
(12.4138 1.58006 0)
(12.5117 1.86866 0)
(12.1778 2.15154 0)
(11.9628 2.39209 0)
(11.3322 2.52047 0)
(10.9374 2.48699 0)
(10.3802 2.66305 0)
(9.68079 2.54463 0)
(9.32074 2.6425 0)
(11.5215 -0.0749311 0)
(11.5746 -0.211923 0)
(11.6777 -0.301939 0)
(11.7551 -0.285857 0)
(11.8174 -0.267055 0)
(11.8446 -0.217484 0)
(11.8449 -0.157742 0)
(11.8576 -0.127855 0)
(11.8337 -0.0694402 0)
(11.8244 -0.0513849 0)
(11.8172 -0.0460018 0)
(11.7915 -0.0320997 0)
(11.7874 -0.054264 0)
(11.7568 -0.0580381 0)
(11.7507 -0.0767295 0)
(11.7648 -0.0849084 0)
(11.7421 -0.0523308 0)
(11.7838 -0.0640331 0)
(11.7731 -0.0327467 0)
(11.812 -0.018447 0)
(11.8037 -0.0186103 0)
(11.809 -0.00246173 0)
(11.8061 -0.0307514 0)
(11.8087 -0.0298631 0)
(11.7963 -0.0391059 0)
(11.8155 -0.0595422 0)
(11.8034 -0.0511581 0)
(11.8366 -0.0657887 0)
(11.8237 -0.0503193 0)
(11.8407 -0.0476253 0)
(11.8137 -0.050274 0)
(11.8145 -0.0387473 0)
(11.7704 -0.0446991 0)
(11.756 -0.0405315 0)
(11.7119 -0.0292224 0)
(11.7005 -0.0259981 0)
(11.68 -0.00278587 0)
(11.6847 0.0256452 0)
(11.6839 0.0481964 0)
(11.6974 0.0826088 0)
(11.7116 0.111463 0)
(11.7129 0.131468 0)
(11.7342 0.154306 0)
(11.7054 0.162359 0)
(11.7313 0.159867 0)
(11.696 0.161702 0)
(11.7235 0.138451 0)
(11.6975 0.134776 0)
(11.7321 0.102843 0)
(11.7096 0.0793673 0)
(11.7567 0.0606623 0)
(11.7245 0.021663 0)
(11.7761 0.00796033 0)
(11.7352 -0.0327722 0)
(11.793 -0.0396566 0)
(11.7369 -0.0700828 0)
(11.7975 -0.0917493 0)
(11.7343 -0.0977791 0)
(11.8125 -0.142815 0)
(11.7126 -0.124419 0)
(11.833 -0.182312 0)
(11.6738 -0.15432 0)
(11.8557 -0.193962 0)
(11.6242 -0.157676 0)
(11.8383 -0.184145 0)
(11.5888 -0.126306 0)
(11.7758 -0.162549 0)
(11.5366 -0.0524417 0)
(11.7173 -0.0924248 0)
(11.4397 -0.00336587 0)
(11.6615 0.0388184 0)
(11.315 0.0676438 0)
(11.5525 0.152338 0)
(11.2309 0.24351 0)
(11.398 0.237934 0)
(11.1305 0.443062 0)
(11.3261 0.404641 0)
(10.9663 0.512966 0)
(11.2788 0.572613 0)
(10.8721 0.580337 0)
(11.127 0.523741 0)
(10.8363 0.69083 0)
(10.9585 0.409425 0)
(10.7141 0.569229 0)
(10.8427 0.437545 0)
(10.6006 0.323306 0)
(10.5547 0.327519 0)
(10.6986 0.319944 0)
(10.1384 0.0800872 0)
(10.7695 0.287718 0)
(9.90998 0.112486 0)
(10.7504 0.109683 0)
(9.67992 0.179979 0)
(11.0574 0.177232 0)
(9.27208 0.095882 0)
(11.528 0.273077 0)
(9.15807 0.229135 0)
(11.8664 0.168345 0)
(9.31743 0.338449 0)
(12.4197 0.198632 0)
(9.38139 0.219047 0)
(13.1364 0.149613 0)
(9.67692 0.148309 0)
(13.6802 -0.0482458 0)
(10.1936 -0.0937823 0)
(14.2447 -0.138971 0)
(10.6555 -0.463892 0)
(14.8449 -0.378629 0)
(11.081 -0.608712 0)
(15.4153 -0.762875 0)
(11.5037 -0.869144 0)
(15.7905 -0.814546 0)
(12.0476 -1.32168 0)
(15.9556 -0.88716 0)
(12.429 -1.47739 0)
(16.1805 -1.17578 0)
(12.7394 -1.62754 0)
(16.1329 -1.2074 0)
(13.2266 -1.99485 0)
(15.9265 -1.22664 0)
(13.5265 -2.10701 0)
(15.862 -1.4568 0)
(13.7418 -2.23397 0)
(15.6728 -1.46429 0)
(14.0475 -2.41195 0)
(15.4911 -1.60186 0)
(14.2434 -2.34607 0)
(15.2946 -1.77667 0)
(14.4908 -2.43204 0)
(15.0274 -1.73353 0)
(14.6324 -2.61207 0)
(14.7897 -1.75744 0)
(14.6888 -2.61929 0)
(14.4549 -1.86253 0)
(14.6539 -2.65471 0)
(14.0701 -1.82126 0)
(14.4267 -2.76762 0)
(13.603 -1.70175 0)
(14.2008 -2.6922 0)
(12.795 -1.67151 0)
(13.9386 -2.49353 0)
(11.902 -1.43296 0)
(13.5085 -2.34 0)
(10.8618 -1.12568 0)
(12.9755 -2.08028 0)
(9.82946 -0.987802 0)
(12.3466 -1.76643 0)
(8.66174 -0.686593 0)
(11.6931 -1.69268 0)
(7.871 -0.366234 0)
(11.2059 -1.30148 0)