/*--------------------------------*- C++ -*----------------------------------*\
| =========                 |                                                 |
| \\      /  F ield         | OpenFOAM: The Open Source CFD Toolbox           |
|  \\    /   O peration     | Version:  2.4.0                                 |
|   \\  /    A nd           | Web:      www.OpenFOAM.org                      |
|    \\/     M anipulation  |                                                 |
\*---------------------------------------------------------------------------*/
FoamFile
{
    version     2.0;
    format      ascii;
    class       volSymmTensorField;
    location    "0.56";
    object      UPrime2Mean;
}
// * * * * * * * * * * * * * * * * * * * * * * * * * * * * * * * * * * * * * //

dimensions      [0 2 -2 0 0 0 0];

internalField   nonuniform List<symmTensor> 
8800
(
(0.00296326 0.000188835 0 0.000339182 0 0)
(0.0570962 -0.00224189 0 0.000121936 0 0)
(0.111776 -0.000192003 0 2.5335e-05 0 0)
(0.139251 0.000356544 0 6.971e-06 0 0)
(0.15924 0.00029291 0 1.75928e-06 0 0)
(0.175016 0.000218971 0 1.16931e-06 0 0)
(0.184795 0.0001645 0 1.28955e-06 0 0)
(0.193482 8.70614e-05 0 1.32099e-06 0 0)
(0.198358 6.56919e-05 0 1.63495e-06 0 0)
(0.204449 1.64132e-05 0 1.55053e-06 0 0)
(0.206916 3.00404e-05 0 1.62136e-06 0 0)
(0.212493 -3.30621e-05 0 1.78887e-06 0 0)
(0.213895 -1.36778e-05 0 1.88137e-06 0 0)
(0.221259 -0.000105605 0 2.10049e-06 0 0)
(0.223185 -0.000188112 0 2.62749e-06 0 0)
(0.235427 -9.66199e-05 0 3.5289e-06 0 0)
(0.248946 -0.00161688 0 2.20501e-05 0 0)
(0.25964 0.00335221 0 0.000123019 0 0)
(0.405976 -0.0303747 0 0.00307496 0 0)
(0.421678 0.0476363 0 0.00940775 0 0)
(0.0155656 0.00515767 0 0.0020174 0 0)
(0.00135083 -0.0017873 0 0.00264172 0 0)
(0.0136703 -0.00363531 0 0.00105817 0 0)
(0.0279525 -0.00318824 0 0.000381377 0 0)
(0.0441313 -0.0028056 0 0.000192344 0 0)
(0.0666873 -0.00256623 0 0.000137473 0 0)
(0.0863978 -0.00207026 0 0.000101214 0 0)
(0.109125 -0.0017328 0 7.30617e-05 0 0)
(0.123473 -0.00127763 0 4.38197e-05 0 0)
(0.142895 -0.00123324 0 3.61068e-05 0 0)
(0.149883 -0.000906283 0 1.84286e-05 0 0)
(0.17089 -0.00117606 0 2.36494e-05 0 0)
(0.169849 -0.000912285 0 1.80215e-05 0 0)
(0.199391 -0.00176662 0 4.21325e-05 0 0)
(0.189948 -0.000940821 0 2.36235e-05 0 0)
(0.237514 -0.00479062 0 0.000148286 0 0)
(0.228958 0.000341059 0 8.74904e-05 0 0)
(0.304694 -0.0189569 0 0.00137306 0 0)
(0.369003 -0.00809009 0 0.000856042 0 0)
(0.530528 -0.106897 0 0.0340622 0 0)
(0.0154345 0.00380342 0 0.00110034 0 0)
(0.00134855 0.00172212 0 0.00279937 0 0)
(0.00140216 0.000906587 0 0.0017162 0 0)
(0.00202046 0.000383167 0 0.000900741 0 0)
(0.00152617 -0.000128251 0 0.000668258 0 0)
(0.00295893 -0.00109626 0 0.000622874 0 0)
(0.00638273 -0.00157371 0 0.000535339 0 0)
(0.0151729 -0.0020976 0 0.000421419 0 0)
(0.0220623 -0.00191722 0 0.000296284 0 0)
(0.0354854 -0.00216406 0 0.000210684 0 0)
(0.0394743 -0.00178723 0 0.00011501 0 0)
(0.0586782 -0.00206156 0 0.000130151 0 0)
(0.0568007 -0.00196191 0 9.64497e-05 0 0)
(0.0818914 -0.00254165 0 0.000188706 0 0)
(0.0794751 -0.00264321 0 0.000185332 0 0)
(0.107058 -0.00444686 0 0.000387282 0 0)
(0.118443 -0.00575105 0 0.000587323 0 0)
(0.151405 -0.0110633 0 0.00124427 0 0)
(0.198858 -0.0282014 0 0.0059602 0 0)
(0.28535 -0.0715028 0 0.0362398 0 0)
(0.0149638 0.00261088 0 0.000543523 0 0)
(0.00141479 0.00115137 0 0.00184334 0 0)
(0.00335749 0.001819 0 0.00148844 0 0)
(0.00709964 0.00199469 0 0.000835029 0 0)
(0.0117032 0.00238892 0 0.00070074 0 0)
(0.0104729 0.00216212 0 0.000811723 0 0)
(0.0113022 0.00211103 0 0.000845357 0 0)
(0.00762171 0.0012225 0 0.000817891 0 0)
(0.00798048 0.000959286 0 0.000656476 0 0)
(0.00559374 3.0013e-05 0 0.000534852 0 0)
(0.00555427 0.000182804 0 0.000305471 0 0)
(0.00607563 -0.000719393 0 0.000421208 0 0)
(0.00533272 -0.000311391 0 0.000219631 0 0)
(0.00842444 -0.00153095 0 0.000521735 0 0)
(0.00871526 -0.000734322 0 0.000302145 0 0)
(0.0137938 -0.00274947 0 0.000868096 0 0)
(0.0170715 -0.00225272 0 0.000632104 0 0)
(0.0279608 -0.00640703 0 0.00285244 0 0)
(0.0414757 -0.0131052 0 0.00700989 0 0)
(0.0672833 -0.0308702 0 0.0333941 0 0)
(0.0161541 0.00201409 0 0.000318481 0 0)
(0.00141121 0.000558984 0 0.00120641 0 0)
(0.00307966 0.00134549 0 0.00111222 0 0)
(0.00676351 0.00158882 0 0.000632273 0 0)
(0.0140945 0.0021011 0 0.000487738 0 0)
(0.0151297 0.00232484 0 0.000623018 0 0)
(0.0214588 0.00287548 0 0.000722842 0 0)
(0.0191483 0.00264682 0 0.00079336 0 0)
(0.0252565 0.00269713 0 0.000673719 0 0)
(0.0215767 0.00207987 0 0.000704371 0 0)
(0.0273297 0.00217067 0 0.000360014 0 0)
(0.0226469 0.00182829 0 0.000631353 0 0)
(0.0277179 0.00175389 0 0.000301404 0 0)
(0.0219689 0.00200755 0 0.000791256 0 0)
(0.0256307 0.00170814 0 0.000441468 0 0)
(0.0190989 0.00254417 0 0.00134417 0 0)
(0.0201781 0.00255607 0 0.00100352 0 0)
(0.0135274 0.00420284 0 0.00472001 0 0)
(0.0133782 0.00533099 0 0.0079877 0 0)
(0.014697 0.0076717 0 0.0455257 0 0)
(0.0167129 0.0014398 0 0.000194725 0 0)
(0.00153844 0.000341208 0 0.000854103 0 0)
(0.00241518 0.000870677 0 0.00082427 0 0)
(0.00567844 0.00118358 0 0.00050242 0 0)
(0.0117367 0.00142036 0 0.000326617 0 0)
(0.0138263 0.00168418 0 0.000427769 0 0)
(0.0191974 0.00216739 0 0.000534555 0 0)
(0.0195388 0.00233285 0 0.00063681 0 0)
(0.0253126 0.00222951 0 0.000547826 0 0)
(0.0258755 0.00214169 0 0.000597172 0 0)
(0.0318636 0.00200189 0 0.000342126 0 0)
(0.0327788 0.00230271 0 0.000538868 0 0)
(0.0388225 0.00202492 0 0.000353262 0 0)
(0.0392422 0.0029973 0 0.00063605 0 0)
(0.0442109 0.00290023 0 0.000521882 0 0)
(0.0437209 0.00450875 0 0.00107414 0 0)
(0.0459557 0.00619488 0 0.00139142 0 0)
(0.0439874 0.0101406 0 0.00414012 0 0)
(0.0441873 0.0178014 0 0.010849 0 0)
(0.0480839 0.0307868 0 0.0350896 0 0)
(0.0159814 0.000922758 0 0.000130379 0 0)
(0.00179261 0.000230515 0 0.000616398 0 0)
(0.00217591 0.000431688 0 0.000574029 0 0)
(0.00543931 0.000897852 0 0.000419991 0 0)
(0.00987792 0.000898724 0 0.000246889 0 0)
(0.0132749 0.00121325 0 0.000339134 0 0)
(0.0161976 0.00142236 0 0.000422561 0 0)
(0.0186628 0.00182382 0 0.000490443 0 0)
(0.0216039 0.00145406 0 0.000360247 0 0)
(0.0247707 0.00176123 0 0.000518691 0 0)
(0.0279229 0.00123496 0 0.000265505 0 0)
(0.0320933 0.00209956 0 0.000502711 0 0)
(0.0354584 0.00122459 0 0.00029854 0 0)
(0.0398935 0.0029107 0 0.000621262 0 0)
(0.0426989 0.00202877 0 0.000450217 0 0)
(0.0471371 0.00515164 0 0.00115478 0 0)
(0.0486218 0.0055481 0 0.00138817 0 0)
(0.052781 0.0127267 0 0.00465021 0 0)
(0.0546376 0.0186386 0 0.00999821 0 0)
(0.0663688 0.0375293 0 0.0314089 0 0)
(0.0159527 0.000617251 0 9.48921e-05 0 0)
(0.00198288 0.0001451 0 0.00041255 0 0)
(0.00216 0.000215818 0 0.000398559 0 0)
(0.00506211 0.000541098 0 0.000303728 0 0)
(0.00908639 0.000536528 0 0.000206514 0 0)
(0.0123557 0.000753261 0 0.00029341 0 0)
(0.0152207 0.000924202 0 0.000349878 0 0)
(0.0172182 0.0011719 0 0.000375533 0 0)
(0.0200247 0.000951186 0 0.000321902 0 0)
(0.0226427 0.00108719 0 0.000414679 0 0)
(0.0260135 0.000808544 0 0.000315912 0 0)
(0.029172 0.00126031 0 0.0004231 0 0)
(0.0331781 0.000915038 0 0.000346828 0 0)
(0.0367101 0.00181995 0 0.000495693 0 0)
(0.0406883 0.00182997 0 0.00044686 0 0)
(0.0438456 0.00385716 0 0.000953794 0 0)
(0.0475264 0.0054961 0 0.00138591 0 0)
(0.0512093 0.0114542 0 0.00417644 0 0)
(0.0574383 0.0184969 0 0.00919116 0 0)
(0.0699105 0.0364151 0 0.027175 0 0)
(0.0154886 0.000274287 0 7.49385e-05 0 0)
(0.00159293 -3.62385e-05 0 0.000256727 0 0)
(0.0019086 2.82297e-07 0 0.000258713 0 0)
(0.00451492 0.000222974 0 0.000210117 0 0)
(0.00810608 0.00020963 0 0.000182024 0 0)
(0.0115212 0.00032153 0 0.000247167 0 0)
(0.0138499 0.000422526 0 0.000283023 0 0)
(0.0159935 0.000609974 0 0.000285609 0 0)
(0.0180411 0.000428524 0 0.000248785 0 0)
(0.0209394 0.000572553 0 0.000319355 0 0)
(0.0236172 0.000357594 0 0.000272057 0 0)
(0.0273649 0.000791144 0 0.000334822 0 0)
(0.0304927 0.00054875 0 0.000269713 0 0)
(0.0346697 0.00132369 0 0.000379169 0 0)
(0.037533 0.00148216 0 0.000390285 0 0)
(0.0419904 0.00317984 0 0.000829388 0 0)
(0.0450858 0.0052094 0 0.00127799 0 0)
(0.0511384 0.010115 0 0.00362791 0 0)
(0.0579856 0.0183774 0 0.00818499 0 0)
(0.0735162 0.0332523 0 0.0224348 0 0)
(0.0152695 6.42247e-05 0 6.00082e-05 0 0)
(0.00133635 -9.25208e-05 0 0.000173287 0 0)
(0.0017401 -0.000100611 0 0.000189027 0 0)
(0.00404922 3.09123e-06 0 0.000148382 0 0)
(0.00746417 -5.87167e-06 0 0.00016885 0 0)
(0.0107803 -7.21638e-06 0 0.000238969 0 0)
(0.0131315 1.93063e-05 0 0.000254243 0 0)
(0.0151356 0.000128414 0 0.00022724 0 0)
(0.0171383 7.24356e-05 0 0.000225919 0 0)
(0.0198547 9.46599e-05 0 0.000282067 0 0)
(0.0226831 -5.1721e-05 0 0.000291502 0 0)
(0.0262377 0.00022336 0 0.000299969 0 0)
(0.0293802 0.000128132 0 0.000285816 0 0)
(0.0332731 0.000746041 0 0.000329659 0 0)
(0.0365628 0.000952628 0 0.000361858 0 0)
(0.0411572 0.00271872 0 0.000637649 0 0)
(0.0451508 0.00431829 0 0.0011783 0 0)
(0.0519011 0.00981209 0 0.00300012 0 0)
(0.0601777 0.0165572 0 0.00719093 0 0)
(0.0778777 0.0319863 0 0.0182047 0 0)
(0.0150606 -0.000180558 0 5.69918e-05 0 0)
(0.00103647 -0.000157496 0 0.000161873 0 0)
(0.00141895 -0.000165345 0 0.000191433 0 0)
(0.00362912 -0.000209977 0 0.000177807 0 0)
(0.00715069 -0.000222805 0 0.000197744 0 0)
(0.0104972 -0.000270826 0 0.000247176 0 0)
(0.0129672 -0.00033542 0 0.000259438 0 0)
(0.0149181 -0.00030622 0 0.000233274 0 0)
(0.0170946 -0.000312651 0 0.0002185 0 0)
(0.0197106 -0.000262237 0 0.000233441 0 0)
(0.0226408 -0.000345169 0 0.000266712 0 0)
(0.02595 -0.000158376 0 0.000297291 0 0)
(0.0293136 -0.00015703 0 0.000273015 0 0)
(0.0330645 0.000289929 0 0.000294046 0 0)
(0.0366916 0.000697256 0 0.000291266 0 0)
(0.0413379 0.00201879 0 0.000563317 0 0)
(0.0463521 0.00402205 0 0.000919546 0 0)
(0.0538585 0.0085515 0 0.00257837 0 0)
(0.0645102 0.0157245 0 0.00574387 0 0)
(0.0824854 0.0289833 0 0.0148134 0 0)
(0.0148625 -0.000385501 0 5.16348e-05 0 0)
(0.000707176 -0.000159779 0 0.000196 0 0)
(0.00114542 -0.000168669 0 0.000200442 0 0)
(0.00363525 -0.000351485 0 0.000154135 0 0)
(0.00729171 -0.00034293 0 0.000121666 0 0)
(0.010612 -0.000480631 0 0.000175444 0 0)
(0.0129505 -0.00060309 0 0.000219929 0 0)
(0.015017 -0.000735856 0 0.000237105 0 0)
(0.0171995 -0.000641933 0 0.000217055 0 0)
(0.0200189 -0.000667273 0 0.000210659 0 0)
(0.0229197 -0.000588953 0 0.000222838 0 0)
(0.0264405 -0.000524666 0 0.000228033 0 0)
(0.0298387 -0.000385726 0 0.00020216 0 0)
(0.0340245 -0.000210333 0 0.000204891 0 0)
(0.0378901 0.000292264 0 0.000230602 0 0)
(0.0430973 0.00139212 0 0.000373076 0 0)
(0.048742 0.00337903 0 0.000751133 0 0)
(0.0577329 0.00743153 0 0.00190849 0 0)
(0.0697113 0.0141602 0 0.00462542 0 0)
(0.0895579 0.0263298 0 0.0111817 0 0)
(0.0148657 -0.000672468 0 7.05475e-05 0 0)
(0.000635214 -0.000265194 0 0.000334222 0 0)
(0.0011014 -0.000320232 0 0.000315357 0 0)
(0.00375294 -0.000638685 0 0.000239275 0 0)
(0.00767601 -0.000661646 0 0.000157103 0 0)
(0.0111198 -0.000897638 0 0.000222822 0 0)
(0.0137922 -0.00110486 0 0.000280846 0 0)
(0.0159251 -0.00129217 0 0.000313786 0 0)
(0.0184273 -0.0011428 0 0.000275278 0 0)
(0.0212853 -0.00118642 0 0.000265925 0 0)
(0.024498 -0.00102626 0 0.000239879 0 0)
(0.0279971 -0.00104396 0 0.00025917 0 0)
(0.0318502 -0.000830406 0 0.00020793 0 0)
(0.0361394 -0.000814337 0 0.000213072 0 0)
(0.0406669 -0.000235676 0 0.000212973 0 0)
(0.0461563 0.000587164 0 0.000319666 0 0)
(0.0529964 0.00249405 0 0.000596166 0 0)
(0.0628267 0.00597185 0 0.00142531 0 0)
(0.0770702 0.01209 0 0.0035448 0 0)
(0.0980574 0.0230837 0 0.00841889 0 0)
(0.0150601 -0.00101543 0 0.000109957 0 0)
(0.000505589 -0.000348976 0 0.000555933 0 0)
(0.00117037 -0.000534024 0 0.000516274 0 0)
(0.0042488 -0.000933953 0 0.000355644 0 0)
(0.00884307 -0.000987858 0 0.000199926 0 0)
(0.0120858 -0.0013008 0 0.000273308 0 0)
(0.0153779 -0.00156353 0 0.000349265 0 0)
(0.0174409 -0.00187362 0 0.000432966 0 0)
(0.0207287 -0.00165522 0 0.000361811 0 0)
(0.0234355 -0.00174959 0 0.000357614 0 0)
(0.0273716 -0.00145184 0 0.000255188 0 0)
(0.0307819 -0.00165248 0 0.000305283 0 0)
(0.0352973 -0.00126088 0 0.000205898 0 0)
(0.0395427 -0.00156596 0 0.00024826 0 0)
(0.0449205 -0.000743547 0 0.000199595 0 0)
(0.0506821 -0.000438452 0 0.000301726 0 0)
(0.0584799 0.00165174 0 0.000438291 0 0)
(0.0691096 0.00409055 0 0.00104388 0 0)
(0.0850015 0.0098382 0 0.00249279 0 0)
(0.10731 0.0187999 0 0.00611106 0 0)
(0.0157785 -0.00150054 0 0.00018808 0 0)
(0.00058914 -0.000419746 0 0.000836929 0 0)
(0.00172733 -0.000947531 0 0.000803535 0 0)
(0.00498246 -0.00124495 0 0.000489005 0 0)
(0.011134 -0.0015131 0 0.00031969 0 0)
(0.0131845 -0.00179318 0 0.000413249 0 0)
(0.0186049 -0.00224866 0 0.000517942 0 0)
(0.0188885 -0.00243849 0 0.000631814 0 0)
(0.024785 -0.00240746 0 0.000546617 0 0)
(0.0251141 -0.00228583 0 0.000534349 0 0)
(0.0317076 -0.00208037 0 0.000361029 0 0)
(0.0321525 -0.00219817 0 0.000426039 0 0)
(0.0391839 -0.0018085 0 0.000264073 0 0)
(0.0397968 -0.00220661 0 0.000347088 0 0)
(0.0473821 -0.00125809 0 0.000236561 0 0)
(0.0490421 -0.00135338 0 0.000341972 0 0)
(0.0583575 0.000826446 0 0.000363451 0 0)
(0.0643554 0.00209385 0 0.000736976 0 0)
(0.0803137 0.00728146 0 0.00170096 0 0)
(0.0976993 0.013161 0 0.0038881 0 0)
(0.0157951 -0.00207856 0 0.000326192 0 0)
(0.000918714 -0.000613858 0 0.00120702 0 0)
(0.0026334 -0.00146205 0 0.0011378 0 0)
(0.00616909 -0.00164406 0 0.000635637 0 0)
(0.0137057 -0.00222969 0 0.000507189 0 0)
(0.0144942 -0.00239841 0 0.000623747 0 0)
(0.0210442 -0.00301864 0 0.00074234 0 0)
(0.0184323 -0.0027126 0 0.000811205 0 0)
(0.0248195 -0.00288833 0 0.000717303 0 0)
(0.0208048 -0.00220296 0 0.000633484 0 0)
(0.0270353 -0.00228425 0 0.000442781 0 0)
(0.0221766 -0.00183103 0 0.000475661 0 0)
(0.0279431 -0.00176267 0 0.000293561 0 0)
(0.0225932 -0.00153929 0 0.000383036 0 0)
(0.0279996 -0.00106273 0 0.00022972 0 0)
(0.0234168 -0.000821804 0 0.000352037 0 0)
(0.02936 0.000510693 0 0.000275159 0 0)
(0.028184 0.00125928 0 0.000549305 0 0)
(0.038331 0.00451605 0 0.00109935 0 0)
(0.0468742 0.00738783 0 0.00230993 0 0)
(0.0148581 -0.00263613 0 0.000545144 0 0)
(0.00120208 -0.00115226 0 0.00184108 0 0)
(0.00312303 -0.0018776 0 0.00150005 0 0)
(0.00663573 -0.00199529 0 0.000842763 0 0)
(0.0114301 -0.00245932 0 0.000717621 0 0)
(0.00981202 -0.00216786 0 0.000821467 0 0)
(0.010997 -0.00218642 0 0.000867864 0 0)
(0.00686919 -0.00120119 0 0.00082079 0 0)
(0.00745033 -0.00109346 0 0.000659476 0 0)
(0.00480083 -0.000119824 0 0.000512817 0 0)
(0.0049478 -0.000273222 0 0.000342646 0 0)
(0.00516332 0.000483538 0 0.00033434 0 0)
(0.00443914 0.000187011 0 0.000204005 0 0)
(0.00758207 0.000891688 0 0.000255629 0 0)
(0.00632634 0.000397742 0 0.000144795 0 0)
(0.0115884 0.0011781 0 0.000228727 0 0)
(0.0105204 0.000523747 0 0.000189555 0 0)
(0.0168925 0.0016305 0 0.00032402 0 0)
(0.0186159 0.0015667 0 0.00077073 0 0)
(0.0269877 0.0037136 0 0.00107452 0 0)
(0.015416 -0.00381366 0 0.00110227 0 0)
(0.00130434 -0.00171539 0 0.00279361 0 0)
(0.00130411 -0.000921259 0 0.00171916 0 0)
(0.00188563 -0.000373613 0 0.000898881 0 0)
(0.0013367 0.000106496 0 0.000672166 0 0)
(0.00279768 0.00109994 0 0.000622107 0 0)
(0.00596506 0.00154578 0 0.000540043 0 0)
(0.015146 0.00212192 0 0.000427209 0 0)
(0.0209712 0.00187604 0 0.000291022 0 0)
(0.0352421 0.00208145 0 0.00019902 0 0)
(0.0385366 0.00162968 0 0.000117114 0 0)
(0.0563177 0.00188787 0 0.00011078 0 0)
(0.0551683 0.00135967 0 7.0342e-05 0 0)
(0.0756865 0.00175971 0 8.5844e-05 0 0)
(0.0706162 0.000852806 0 5.33088e-05 0 0)
(0.0911186 0.00149425 0 8.75395e-05 0 0)
(0.0835764 -0.000270216 0 8.88008e-05 0 0)
(0.0984746 0.0011714 0 0.000163336 0 0)
(0.0922822 -0.00142035 0 0.000358984 0 0)
(0.0957073 0.00246233 0 0.000716725 0 0)
(0.0155616 -0.005159 0 0.00201789 0 0)
(0.0013566 0.00179021 0 0.0026399 0 0)
(0.0136312 0.00363311 0 0.0010584 0 0)
(0.0279731 0.0031899 0 0.000380909 0 0)
(0.0439934 0.00280507 0 0.00019274 0 0)
(0.0667948 0.00256524 0 0.000137454 0 0)
(0.0860624 0.00206625 0 0.000101335 0 0)
(0.109421 0.00172867 0 7.21884e-05 0 0)
(0.122602 0.00127415 0 4.46208e-05 0 0)
(0.142906 0.00115454 0 3.18092e-05 0 0)
(0.148942 0.000857585 0 1.96042e-05 0 0)
(0.168171 0.00093912 0 2.14725e-05 0 0)
(0.168371 0.000640842 0 1.72362e-05 0 0)
(0.18788 0.000812111 0 1.90808e-05 0 0)
(0.183191 0.000280749 0 1.55643e-05 0 0)
(0.201112 0.000486681 0 2.08681e-05 0 0)
(0.191869 -0.000636785 0 2.95803e-05 0 0)
(0.201081 0.000119556 0 4.7861e-05 0 0)
(0.192974 -0.00213861 0 0.000122767 0 0)
(0.179455 0.00107004 0 0.000439187 0 0)
(0.00296351 -0.000188503 0 0.000339237 0 0)
(0.0571063 0.00224154 0 0.000121902 0 0)
(0.111764 0.000192966 0 2.5292e-05 0 0)
(0.139258 -0.000357114 0 6.94485e-06 0 0)
(0.159197 -0.000291799 0 1.7255e-06 0 0)
(0.175069 -0.000220183 0 1.17749e-06 0 0)
(0.18469 -0.000164933 0 1.31711e-06 0 0)
(0.193558 -8.8535e-05 0 1.3552e-06 0 0)
(0.19807 -7.30424e-05 0 1.43163e-06 0 0)
(0.204364 -2.50841e-05 0 1.37887e-06 0 0)
(0.206204 -4.49942e-05 0 1.5811e-06 0 0)
(0.211446 -2.79581e-06 0 1.51988e-06 0 0)
(0.211582 -4.7795e-05 0 1.38329e-06 0 0)
(0.216408 -6.37718e-06 0 1.08954e-06 0 0)
(0.214722 -0.000103117 0 1.11143e-06 0 0)
(0.21811 -8.20767e-05 0 1.01421e-06 0 0)
(0.213178 -0.00026655 0 1.61909e-06 0 0)
(0.211827 -0.000218672 0 2.55413e-06 0 0)
(0.205416 -0.000756715 0 8.01804e-06 0 0)
(0.186054 0.00100323 0 6.82367e-05 0 0)
(0.831978 -0.424879 0 0.261754 0 0)
(0.940876 -0.505761 0 0.369405 0 0)
(0.946194 -0.486759 0 0.441674 0 0)
(0.951903 -0.427883 0 0.492417 0 0)
(0.980937 -0.358274 0 0.521826 0 0)
(1.0725 -0.310424 0 0.542923 0 0)
(1.2041 -0.297262 0 0.563161 0 0)
(1.40052 -0.321562 0 0.592003 0 0)
(1.59351 -0.366086 0 0.626081 0 0)
(1.79041 -0.413067 0 0.659552 0 0)
(1.9406 -0.456294 0 0.696549 0 0)
(2.09636 -0.494824 0 0.74184 0 0)
(2.21836 -0.522359 0 0.790575 0 0)
(2.36089 -0.554481 0 0.832727 0 0)
(2.49967 -0.589569 0 0.860892 0 0)
(2.64799 -0.639347 0 0.880484 0 0)
(2.78115 -0.70546 0 0.908995 0 0)
(2.92826 -0.784912 0 0.950989 0 0)
(3.03485 -0.859417 0 1.01465 0 0)
(3.20724 -0.939452 0 1.09282 0 0)
(3.37967 -1.00004 0 1.15773 0 0)
(3.60283 -1.08204 0 1.22246 0 0)
(3.81964 -1.16613 0 1.28625 0 0)
(4.05465 -1.25776 0 1.35208 0 0)
(4.29405 -1.3527 0 1.41727 0 0)
(4.54185 -1.44277 0 1.48838 0 0)
(4.80042 -1.54245 0 1.559 0 0)
(5.07139 -1.65203 0 1.63028 0 0)
(5.34276 -1.77512 0 1.70481 0 0)
(5.62534 -1.9067 0 1.78711 0 0)
(5.88911 -2.03971 0 1.87554 0 0)
(6.1924 -2.17496 0 1.96223 0 0)
(6.45191 -2.30961 0 2.04964 0 0)
(6.81537 -2.461 0 2.13114 0 0)
(7.07361 -2.61097 0 2.21669 0 0)
(7.48354 -2.78983 0 2.29387 0 0)
(7.69318 -2.93818 0 2.36966 0 0)
(8.08299 -3.11622 0 2.43551 0 0)
(8.21173 -3.24179 0 2.49875 0 0)
(8.53474 -3.38815 0 2.55673 0 0)
(8.57809 -3.46939 0 2.61141 0 0)
(8.80892 -3.56596 0 2.66328 0 0)
(8.79935 -3.60825 0 2.70542 0 0)
(8.97456 -3.67172 0 2.75405 0 0)
(8.9654 -3.70862 0 2.79624 0 0)
(9.13042 -3.76886 0 2.85358 0 0)
(9.14303 -3.81659 0 2.90915 0 0)
(9.33201 -3.89052 0 2.98499 0 0)
(9.37139 -3.95132 0 3.06475 0 0)
(9.59223 -4.04325 0 3.1674 0 0)
(9.63317 -4.10981 0 3.27357 0 0)
(9.85376 -4.19641 0 3.39582 0 0)
(9.83623 -4.22994 0 3.50956 0 0)
(10.016 -4.26998 0 3.62116 0 0)
(9.89534 -4.22826 0 3.70318 0 0)
(10.0108 -4.20019 0 3.77557 0 0)
(9.80574 -4.08021 0 3.79431 0 0)
(9.87473 -4.00256 0 3.82181 0 0)
(9.66781 -3.87057 0 3.80344 0 0)
(9.74325 -3.79802 0 3.81811 0 0)
(9.58291 -3.72097 0 3.82079 0 0)
(9.69174 -3.70092 0 3.86717 0 0)
(9.52287 -3.67201 0 3.931 0 0)
(9.59553 -3.69436 0 4.03352 0 0)
(9.30864 -3.61656 0 4.12551 0 0)
(9.26388 -3.60334 0 4.22863 0 0)
(8.94684 -3.42164 0 4.23772 0 0)
(8.82904 -3.28843 0 4.23182 0 0)
(8.56249 -3.09939 0 4.199 0 0)
(8.49767 -2.96118 0 4.23613 0 0)
(8.29553 -2.81592 0 4.29408 0 0)
(8.29356 -2.67293 0 4.34232 0 0)
(8.16558 -2.52437 0 4.39002 0 0)
(8.25655 -2.43329 0 4.43237 0 0)
(8.17305 -2.30772 0 4.54612 0 0)
(8.31576 -2.26709 0 4.67742 0 0)
(8.31655 -2.16182 0 4.8789 0 0)
(8.41476 -2.13327 0 5.09829 0 0)
(8.43955 -2.03351 0 5.36236 0 0)
(8.41521 -1.95018 0 5.6192 0 0)
(8.38574 -1.82808 0 5.86893 0 0)
(8.2544 -1.70364 0 6.05341 0 0)
(8.27043 -1.59837 0 6.21669 0 0)
(8.08695 -1.48616 0 6.34047 0 0)
(8.16159 -1.40871 0 6.41007 0 0)
(7.97015 -1.28291 0 6.5023 0 0)
(8.09447 -1.21294 0 6.57132 0 0)
(7.89744 -1.08498 0 6.72606 0 0)
(8.08256 -1.00521 0 6.85334 0 0)
(7.92583 -0.867886 0 7.04955 0 0)
(8.16204 -0.818842 0 7.17379 0 0)
(8.05573 -0.738185 0 7.31866 0 0)
(8.37435 -0.699449 0 7.41873 0 0)
(8.31819 -0.631853 0 7.54615 0 0)
(8.63115 -0.586674 0 7.64903 0 0)
(8.53585 -0.506396 0 7.79341 0 0)
(8.82543 -0.460342 0 7.93322 0 0)
(8.7065 -0.346583 0 8.12994 0 0)
(8.85582 -0.293302 0 8.33234 0 0)
(8.61127 -0.165722 0 8.59318 0 0)
(8.65011 -0.0646539 0 8.87961 0 0)
(8.33505 -0.0231102 0 9.18695 0 0)
(8.29127 0.0789924 0 9.58587 0 0)
(8.01878 0.0449575 0 9.95346 0 0)
(7.98382 0.0448001 0 10.2107 0 0)
(7.80738 -0.0631949 0 10.4921 0 0)
(7.77943 -0.0428955 0 10.6899 0 0)
(7.65955 -0.176949 0 10.9029 0 0)
(7.5982 -0.136615 0 11.0193 0 0)
(7.52513 -0.246849 0 11.1655 0 0)
(7.41891 -0.221578 0 11.1716 0 0)
(7.37215 -0.338792 0 11.2342 0 0)
(7.28419 -0.32269 0 11.1853 0 0)
(7.26317 -0.427767 0 11.241 0 0)
(7.25435 -0.376492 0 11.2388 0 0)
(7.16441 -0.508826 0 11.3565 0 0)
(7.23098 -0.434008 0 11.4258 0 0)
(7.15574 -0.571052 0 11.5517 0 0)
(7.39624 -0.49084 0 11.6081 0 0)
(7.45288 -0.602082 0 11.6962 0 0)
(7.82299 -0.55584 0 11.7967 0 0)
(7.85752 -0.652003 0 11.9376 0 0)
(8.17456 -0.557739 0 12.1483 0 0)
(8.05887 -0.698949 0 12.2838 0 0)
(8.33793 -0.571007 0 12.4607 0 0)
(8.0818 -0.759691 0 12.5182 0 0)
(8.3479 -0.63612 0 12.6762 0 0)
(8.0286 -0.857125 0 12.7547 0 0)
(8.36057 -0.71545 0 12.8889 0 0)
(8.00375 -0.95865 0 12.8936 0 0)
(8.43059 -0.790421 0 13.0382 0 0)
(8.01433 -0.976314 0 13.0234 0 0)
(8.49387 -0.786476 0 13.1045 0 0)
(8.01588 -0.906658 0 13.1081 0 0)
(8.47555 -0.733894 0 13.1201 0 0)
(7.91989 -0.75581 0 13.1863 0 0)
(8.35994 -0.553039 0 13.1797 0 0)
(7.74259 -0.51891 0 13.3647 0 0)
(8.16297 -0.268706 0 13.4071 0 0)
(7.4548 -0.180019 0 13.5872 0 0)
(7.89674 -0.000867402 0 13.5997 0 0)
(7.13015 0.156398 0 13.623 0 0)
(7.68249 0.351972 0 13.6063 0 0)
(6.83171 0.522191 0 13.6359 0 0)
(7.4281 0.743336 0 13.778 0 0)
(6.50646 0.860524 0 13.7797 0 0)
(7.17637 1.08695 0 13.8216 0 0)
(6.31584 1.20309 0 13.8404 0 0)
(6.97385 1.41942 0 13.9362 0 0)
(6.1084 1.39724 0 13.8961 0 0)
(6.7303 1.70021 0 14.1254 0 0)
(5.92022 1.52329 0 13.9882 0 0)
(6.47411 1.89443 0 14.0882 0 0)
(5.80182 1.64391 0 13.9693 0 0)
(6.26512 2.02957 0 14.1099 0 0)
(5.75523 1.69844 0 13.8798 0 0)
(6.09326 2.07722 0 14.0037 0 0)
(5.77443 1.82578 0 13.8501 0 0)
(5.95676 2.04312 0 13.8969 0 0)
(5.63529 1.8369 0 13.8503 0 0)
(5.67689 1.95781 0 14.0569 0 0)
(5.39587 1.66103 0 14.0517 0 0)
(5.39202 1.75076 0 14.1543 0 0)
(5.18589 1.46509 0 14.1028 0 0)
(5.14503 1.45279 0 14.0703 0 0)
(5.02052 1.24263 0 14.0211 0 0)
(4.8901 1.08931 0 14.005 0 0)
(4.88154 0.856444 0 13.8532 0 0)
(4.60839 0.695401 0 13.7085 0 0)
(4.74163 0.421243 0 13.4254 0 0)
(4.34969 0.295605 0 13.1385 0 0)
(4.57502 -0.129923 0 12.6598 0 0)
(4.08632 -0.140423 0 12.1596 0 0)
(4.42267 -0.668294 0 11.773 0 0)
(4.04949 -0.495909 0 11.1385 0 0)
(4.29996 -0.966107 0 10.8973 0 0)
(4.18793 -0.734586 0 10.2105 0 0)
(4.18173 -1.22021 0 9.92002 0 0)
(4.27177 -0.87356 0 9.43613 0 0)
(4.19111 -1.31789 0 8.96329 0 0)
(4.4 -0.939372 0 8.76296 0 0)
(4.15772 -1.18361 0 8.0998 0 0)
(4.29952 -1.03891 0 8.11919 0 0)
(4.11716 -0.788519 0 7.36032 0 0)
(4.14018 -0.956077 0 7.73314 0 0)
(4.13198 -0.322601 0 6.81739 0 0)
(3.98552 -0.774603 0 7.60472 0 0)
(3.97528 0.0230473 0 6.45228 0 0)
(3.69986 -0.629891 0 7.71282 0 0)
(3.76097 0.42533 0 6.38573 0 0)
(3.28472 -0.461674 0 8.12719 0 0)
(3.43325 0.908828 0 6.5978 0 0)
(2.81529 -0.284061 0 8.94435 0 0)
(2.89358 1.38661 0 7.16531 0 0)
(2.39741 0.0731236 0 10.417 0 0)
(2.57608 2.27791 0 8.77673 0 0)
(2.0118 0.498821 0 12.7435 0 0)
(2.2669 3.53041 0 11.9471 0 0)
(2.19604 2.66465 0 18.443 0 0)
(0.694239 1.04295 0 20.8442 0 0)
(0.698554 -0.351164 0 0.297328 0 0)
(0.702823 -0.371953 0 0.387171 0 0)
(0.67303 -0.342973 0 0.409413 0 0)
(0.651786 -0.304924 0 0.419247 0 0)
(0.648398 -0.270798 0 0.417856 0 0)
(0.674248 -0.260603 0 0.415215 0 0)
(0.726501 -0.278231 0 0.424578 0 0)
(0.803921 -0.313897 0 0.447849 0 0)
(0.887365 -0.353161 0 0.475543 0 0)
(0.966398 -0.388432 0 0.502381 0 0)
(1.0302 -0.420842 0 0.532743 0 0)
(1.09402 -0.451145 0 0.56963 0 0)
(1.15176 -0.480607 0 0.609455 0 0)
(1.23186 -0.510372 0 0.647385 0 0)
(1.31404 -0.545132 0 0.682289 0 0)
(1.43666 -0.590497 0 0.715987 0 0)
(1.5552 -0.650728 0 0.756218 0 0)
(1.72257 -0.730129 0 0.803729 0 0)
(1.85904 -0.806792 0 0.85718 0 0)
(2.03353 -0.894008 0 0.918128 0 0)
(2.16881 -0.963592 0 0.97867 0 0)
(2.34664 -1.04339 0 1.04109 0 0)
(2.4964 -1.11265 0 1.10416 0 0)
(2.69116 -1.1962 0 1.17042 0 0)
(2.85545 -1.26836 0 1.23929 0 0)
(3.07644 -1.35792 0 1.31601 0 0)
(3.27152 -1.43704 0 1.39727 0 0)
(3.52976 -1.54042 0 1.48295 0 0)
(3.77309 -1.64322 0 1.57032 0 0)
(4.0539 -1.76742 0 1.66187 0 0)
(4.32859 -1.89503 0 1.75312 0 0)
(4.60118 -2.0279 0 1.84361 0 0)
(4.87331 -2.16432 0 1.93137 0 0)
(5.11995 -2.29333 0 2.01494 0 0)
(5.36123 -2.42761 0 2.09602 0 0)
(5.57491 -2.54857 0 2.17195 0 0)
(5.74707 -2.66351 0 2.24481 0 0)
(5.91688 -2.76313 0 2.30764 0 0)
(5.99743 -2.84525 0 2.36808 0 0)
(6.13769 -2.92351 0 2.41897 0 0)
(6.14586 -2.96771 0 2.46551 0 0)
(6.27986 -3.02709 0 2.509 0 0)
(6.26486 -3.04901 0 2.54868 0 0)
(6.4226 -3.10724 0 2.59701 0 0)
(6.43654 -3.13551 0 2.64481 0 0)
(6.62547 -3.20971 0 2.71462 0 0)
(6.68396 -3.25774 0 2.78503 0 0)
(6.88162 -3.34562 0 2.88048 0 0)
(6.96614 -3.40251 0 2.97397 0 0)
(7.12599 -3.48113 0 3.08794 0 0)
(7.19591 -3.52111 0 3.19176 0 0)
(7.27822 -3.55769 0 3.30288 0 0)
(7.29038 -3.54789 0 3.39606 0 0)
(7.29155 -3.52127 0 3.47808 0 0)
(7.2326 -3.44244 0 3.54103 0 0)
(7.20021 -3.36734 0 3.58427 0 0)
(7.11213 -3.23712 0 3.61163 0 0)
(7.11233 -3.16042 0 3.6385 0 0)
(7.06154 -3.03568 0 3.66123 0 0)
(7.1257 -3.00913 0 3.71806 0 0)
(7.14231 -2.93935 0 3.76621 0 0)
(7.24259 -2.9543 0 3.85221 0 0)
(7.28252 -2.92755 0 3.915 0 0)
(7.36057 -2.91431 0 3.99322 0 0)
(7.32668 -2.8539 0 4.03818 0 0)
(7.31789 -2.75669 0 4.05487 0 0)
(7.20399 -2.61984 0 4.04644 0 0)
(7.17457 -2.49234 0 4.03997 0 0)
(7.07952 -2.35704 0 4.06399 0 0)
(7.09289 -2.26793 0 4.13029 0 0)
(7.06914 -2.16185 0 4.19688 0 0)
(7.17518 -2.07841 0 4.29619 0 0)
(7.19693 -1.99208 0 4.3672 0 0)
(7.39213 -1.9412 0 4.47135 0 0)
(7.44571 -1.87987 0 4.60133 0 0)
(7.67637 -1.8772 0 4.77197 0 0)
(7.74281 -1.80822 0 4.99942 0 0)
(7.88643 -1.78238 0 5.23056 0 0)
(7.91581 -1.6513 0 5.48008 0 0)
(7.89858 -1.56305 0 5.72251 0 0)
(7.86155 -1.41712 0 5.93618 0 0)
(7.81063 -1.33437 0 6.1214 0 0)
(7.79604 -1.22105 0 6.27766 0 0)
(7.74903 -1.16886 0 6.37761 0 0)
(7.81503 -1.09489 0 6.4426 0 0)
(7.78745 -1.02547 0 6.55083 0 0)
(7.90269 -0.989045 0 6.64305 0 0)
(7.89865 -0.896463 0 6.81065 0 0)
(8.10854 -0.853419 0 6.94381 0 0)
(8.10522 -0.752499 0 7.14738 0 0)
(8.36965 -0.748216 0 7.25698 0 0)
(8.40306 -0.702234 0 7.3923 0 0)
(8.67794 -0.666349 0 7.50169 0 0)
(8.74148 -0.613636 0 7.64395 0 0)
(8.96448 -0.57201 0 7.74797 0 0)
(9.0259 -0.528593 0 7.89834 0 0)
(9.20087 -0.479412 0 8.05603 0 0)
(9.24453 -0.401887 0 8.27053 0 0)
(9.25717 -0.345621 0 8.4893 0 0)
(9.21783 -0.229629 0 8.77449 0 0)
(9.09934 -0.1416 0 9.07719 0 0)
(8.98272 -0.108144 0 9.43913 0 0)
(8.73227 0.00681002 0 9.86453 0 0)
(8.7293 -0.0581889 0 10.1824 0 0)
(8.36111 -0.00780828 0 10.4283 0 0)
(8.51613 -0.140984 0 10.6391 0 0)
(8.03902 -0.0294059 0 10.813 0 0)
(8.36626 -0.179854 0 10.9562 0 0)
(7.7862 -0.0168183 0 11.0674 0 0)
(8.32054 -0.155395 0 11.1619 0 0)
(7.62588 0.00228791 0 11.182 0 0)
(8.38557 -0.138657 0 11.2452 0 0)
(7.62793 -0.0211742 0 11.2101 0 0)
(8.52908 -0.165645 0 11.3311 0 0)
(7.6183 -0.132499 0 11.3644 0 0)
(8.51659 -0.33616 0 11.5049 0 0)
(7.69598 -0.294468 0 11.5437 0 0)
(8.70901 -0.5175 0 11.6292 0 0)
(8.06482 -0.400704 0 11.6953 0 0)
(9.17202 -0.650477 0 11.7905 0 0)
(8.53252 -0.51913 0 11.9456 0 0)
(9.56226 -0.706243 0 12.1011 0 0)
(8.7944 -0.537975 0 12.3476 0 0)
(9.74429 -0.6962 0 12.5399 0 0)
(8.81576 -0.480321 0 12.7811 0 0)
(9.6963 -0.712825 0 12.8814 0 0)
(8.67939 -0.481519 0 13.0674 0 0)
(9.5263 -0.793464 0 13.0876 0 0)
(8.52493 -0.571625 0 13.2587 0 0)
(9.33682 -0.866623 0 13.227 0 0)
(8.36468 -0.69173 0 13.3649 0 0)
(9.1362 -0.867061 0 13.3143 0 0)
(8.21609 -0.700581 0 13.3662 0 0)
(8.92789 -0.753294 0 13.3687 0 0)
(7.99395 -0.618245 0 13.3814 0 0)
(8.71583 -0.573471 0 13.3981 0 0)
(7.72085 -0.423159 0 13.3368 0 0)
(8.48326 -0.318299 0 13.4774 0 0)
(7.4499 -0.103912 0 13.5262 0 0)
(8.16473 0.0148949 0 13.7101 0 0)
(7.15524 0.271757 0 13.7396 0 0)
(7.83592 0.342755 0 13.7297 0 0)
(6.91205 0.587631 0 13.7106 0 0)
(7.57186 0.736866 0 13.7839 0 0)
(6.61546 0.864813 0 13.9324 0 0)
(7.37365 1.0895 0 13.9437 0 0)
(6.37594 1.09514 0 13.9843 0 0)
(7.24249 1.34961 0 14.0309 0 0)
(6.10933 1.37457 0 14.1835 0 0)
(6.98979 1.48967 0 14.1516 0 0)
(5.93332 1.67034 0 14.3437 0 0)
(6.7831 1.59488 0 14.1374 0 0)
(5.74527 1.8541 0 14.2919 0 0)
(6.68529 1.72432 0 14.1762 0 0)
(5.63439 2.00292 0 14.2838 0 0)
(6.64733 1.7283 0 13.9904 0 0)
(5.57154 2.07762 0 14.1496 0 0)
(6.57287 1.79021 0 14.0114 0 0)
(5.44177 2.05269 0 14.1246 0 0)
(6.28908 1.77596 0 14.2191 0 0)
(5.20365 1.97167 0 14.3868 0 0)
(5.97259 1.66201 0 14.3164 0 0)
(4.97999 1.78584 0 14.4233 0 0)
(5.7586 1.61021 0 14.2214 0 0)
(4.69608 1.58466 0 14.3873 0 0)
(5.49137 1.35959 0 14.1807 0 0)
(4.51642 1.34485 0 14.3537 0 0)
(5.24595 1.05715 0 14.1474 0 0)
(4.4401 1.16242 0 14.0556 0 0)
(5.01044 0.633212 0 13.8385 0 0)
(4.3613 0.873686 0 13.4971 0 0)
(4.72789 0.273174 0 13.2347 0 0)
(4.34717 0.427897 0 12.6123 0 0)
(4.34798 -0.279649 0 12.3096 0 0)
(4.52012 -0.0577371 0 11.5562 0 0)
(4.01804 -0.898116 0 11.1937 0 0)
(4.78994 -0.374841 0 10.6848 0 0)
(3.85141 -1.34237 0 10.2666 0 0)
(4.86848 -0.777544 0 9.8547 0 0)
(3.76117 -1.46568 0 9.36766 0 0)