/*--------------------------------*- C++ -*----------------------------------*\
| =========                 |                                                 |
| \\      /  F ield         | OpenFOAM: The Open Source CFD Toolbox           |
|  \\    /   O peration     | Version:  2.4.0                                 |
|   \\  /    A nd           | Web:      www.OpenFOAM.org                      |
|    \\/     M anipulation  |                                                 |
\*---------------------------------------------------------------------------*/
FoamFile
{
    version     2.0;
    format      ascii;
    class       surfaceScalarField;
    location    "49";
    object      phi;
}
// * * * * * * * * * * * * * * * * * * * * * * * * * * * * * * * * * * * * * //

dimensions      [0 3 -1 0 0 0 0];

internalField   nonuniform List<scalar> 
8640
(
0.000511665
-2.41647e-05
0.000498805
1.28595e-05
0.000445545
5.32606e-05
0.000542491
-9.69467e-05
0.000516203
2.62882e-05
0.000427386
8.88172e-05
0.000543695
-0.00011631
0.000478426
6.52691e-05
0.00045454
2.3886e-05
0.00057107
-0.000116529
0.000467187
0.000103883
0.00047304
-5.85285e-06
0.000545976
-7.29356e-05
0.000478807
6.71686e-05
0.000523325
-4.45179e-05
0.00055677
-3.34447e-05
0.000484623
7.21468e-05
0.000570415
-8.57917e-05
0.00050828
6.21349e-05
-0.000108739
0.000617019
0.0014061
-4.27629e-05
0.00138167
3.72887e-05
0.00134197
9.29618e-05
0.00145132
-0.000206297
0.00138926
8.83452e-05
0.00132391
0.000154167
0.00145258
-0.000244975
0.00136494
0.000152907
0.00137552
1.33009e-05
0.00148063
-0.000221638
0.0013443
0.000240212
0.00139118
-5.27297e-05
0.00143924
-0.000120999
0.00138527
0.000121138
0.00144266
-0.000101901
0.00146103
-5.18179e-05
0.00140881
0.000124372
0.00148338
-0.000160369
0.00150777
3.77526e-05
-8.4156e-05
0.00148318
0.00220333
-5.85943e-05
0.00217143
6.91914e-05
0.00215224
0.000112153
0.00224552
-0.000299577
0.00217644
0.00015742
0.0021529
0.000177713
0.00224171
-0.000333787
0.00217102
0.000223598
0.00220571
-2.13931e-05
0.00227583
-0.000291755
0.00215962
0.000356424
0.00221173
-0.000104844
0.00223361
-0.000142877
0.00219895
0.000155801
0.00226333
-0.00016628
0.0022489
-3.73971e-05
0.00225507
0.000118204
0.00227389
-0.000179186
0.00234387
-3.22249e-05
-5.38941e-05
0.00231361
0.00290582
-7.69128e-05
0.00285181
0.000123204
0.00287148
9.24751e-05
0.00295052
-0.000378613
0.00284545
0.000262493
0.00289716
0.000126002
0.00293149
-0.000368124
0.00285778
0.000297317
0.00295358
-0.000117195
0.00296498
-0.000303158
0.00288381
0.000437596
0.00295312
-0.000174155
0.00293159
-0.000121349
0.00290809
0.000179299
0.00299525
-0.000253442
0.00292973
2.81273e-05
0.00298746
6.04682e-05
0.00298513
-0.000176849
0.00301832
-6.54141e-05
-8.49975e-05
0.00304942
0.00352158
-0.000110995
0.00342127
0.000223514
0.00347057
4.3176e-05
0.00358417
-0.000492212
0.00339211
0.000454555
0.00351919
-1.0795e-06
0.00354337
-0.000392303
0.00339832
0.000442365
0.00358358
-0.000302449
0.00355356
-0.000273143
0.00346479
0.000526367
0.00358632
-0.000295688
0.00352932
-6.43473e-05
0.00349093
0.000217689
0.00361605
-0.000378559
0.00350965
0.000134523
0.00356903
1.08963e-06
0.00359862
-0.000206437
0.00357365
-4.04399e-05
-0.000155177
0.00364383
0.00404406
-0.000167555
0.00391479
0.000352779
0.00393719
2.07804e-05
0.00411786
-0.000672881
0.00385778
0.000714636
0.0039957
-0.000139002
0.00407182
-0.000468427
0.00384202
0.000672171
0.00406564
-0.000526076
0.00404058
-0.000248074
0.00391534
0.000651604
0.00407219
-0.000452543
0.00401552
-7.67479e-06
0.00395591
0.000277298
0.00410139
-0.00052404
0.00399352
0.000242394
0.00402418
-2.95687e-05
0.00408891
-0.000271166
0.00402754
2.09279e-05
-0.000234556
0.00410692
0.00445073
-0.000230783
0.00433844
0.000465072
0.00431404
4.51728e-05
0.00452388
-0.000882717
0.00426127
0.000977241
0.00436569
-0.000243418
0.00448834
-0.000591078
0.00422655
0.000933966
0.00443651
-0.000736036
0.00442711
-0.000238678
0.00428341
0.000795303
0.00443902
-0.000608157
0.00439323
3.8122e-05
0.004328
0.000342525
0.00446438
-0.000660423
0.00438009
0.000326684
0.00438172
-3.11917e-05
0.00446733
-0.000356784
0.00439
9.8267e-05
-0.000306874
0.00446231
0.0047402
-0.000283478
0.00466611
0.000539156
0.00461873
9.25491e-05
0.00480606
-0.00107004
0.00458969
0.00119361
0.00465531
-0.000309036
0.00478311
-0.00071888
0.00454481
0.00117227
0.00471558
-0.000906808
0.00471239
-0.000235487
0.00458247
0.000925219
0.0047104
-0.00073608
0.00467362
7.4894e-05
0.00461935
0.000396802
0.00472175
-0.000762823
0.00467004
0.000378388
0.00465003
-1.11802e-05
0.00473891
-0.000445661
0.00466355
0.000173621
-0.000363328
0.00472001
0.00492158
-0.000317558
0.00488502
0.000575711
0.00484217
0.000135404
0.00497063
-0.0011985
0.00482772
0.00133652
0.00486072
-0.000342035
0.00495605
-0.000814212
0.00478298
0.00134534
0.00489804
-0.00102187
0.00489034
-0.000227792
0.00480319
0.00101237
0.00488456
-0.000817453
0.004858
0.00010146
0.00482714
0.000427659
0.00488041
-0.000816092
0.00486285
0.000395941
0.00483109
2.05883e-05
0.00490504
-0.000519614
0.0048462
0.00023246
-0.000399702
0.00488257
0.00500027
-0.00033033
0.00499599
0.000579996
0.00497476
0.000156631
0.00502114
-0.00124487
0.00496826
0.0013894
0.00497252
-0.000346296
0.00501116
-0.000852851
0.00493356
0.00142294
0.00497863
-0.00106694
0.00496249
-0.000211654
0.00493637
0.0010385
0.00495809
-0.000839175
0.0049458
0.000113745
0.00494459
0.000428868
0.0049434
-0.000814898
0.00495776
0.000381583
0.00492526
5.30883e-05
0.00496829
-0.000562644
0.00493732
0.000263433
-0.000413939
0.00495155
0.00497801
-0.000320842
0.00500228
0.000555727
0.00500886
0.000150055
0.00496392
-0.00119994
0.00500703
0.00134628
0.00498379
-0.000323049
0.00495485
-0.000823914
0.00499108
0.0013867
0.00495516
-0.00103102
0.00493574
-0.000192237
0.00497528
0.000998963
0.00493322
-0.000797114
0.0049384
0.000108561
0.00496604
0.000401231
0.00491452
-0.000763382
0.00495364
0.000342466
0.00493088
7.58461e-05
0.0049316
-0.000563365
0.00493625
0.00025879
-0.000404281
0.00492659
0.0048554
-0.000288742
0.00490704
0.000504082
0.00493718
0.000119921
0.00480899
-0.00107175
0.00493852
0.00121675
0.00489097
-0.000275494
0.00480114
-0.000734084
0.00494435
0.00124349
0.00483408
-0.00092074
0.00481503
-0.00017319
0.00491381
0.00090018
0.00481483
-0.000698136
0.00483726
8.61374e-05
0.00488775
0.000350742
0.00479438
-0.000670018
0.00485273
0.000284115
0.00484173
8.68518e-05
0.00480013
-0.000521765
0.00484082
0.000218097
-0.000370823
0.00480736
0.00463434
-0.000235578
0.00471569
0.00042273
0.00475326
8.23483e-05
0.00456375
-0.000882242
0.00476391
0.0010166
0.00468888
-0.000200467
0.00456444
-0.000609642
0.00478771
0.00102022
0.00461913
-0.000752161
0.00460624
-0.000160304
0.00474728
0.000759139
0.00460394
-0.000554797
0.00464498
4.51008e-05
0.004706
0.000289723
0.00458338
-0.000547397
0.00465831
0.000209179
0.00465239
9.27782e-05
0.00458378
-0.000453155
0.00465014
0.000151734
-0.000317403
0.00459672
0.0043222
-0.000170277
0.00443363
0.000311303
0.00445018
6.57964e-05
0.00423849
-0.000670557
0.00448547
0.000769622
0.0043781
-9.30956e-05
0.00425924
-0.000490782
0.00452125
0.000758213
0.00431288
-0.000543797
0.00431793
-0.000165352
0.00447139
0.000605677
0.00430422
-0.000387622
0.0043647
-1.53849e-05
0.00441915
0.000235275
0.00428869
-0.000416939
0.00437433
0.000123545
0.00436531
0.000101795
0.00429087
-0.000378717
0.00436442
7.81821e-05
-0.000250491
0.00429751
0.00393068
-0.000113462
0.00405283
0.00018916
0.00402527
9.33498e-05
0.00384746
-0.000492741
0.00410024
0.000516839
0.00397039
3.67554e-05
0.00389691
-0.000417297
0.00414008
0.000515034
0.00392017
-0.000323888
0.00395257
-0.000197752
0.00408188
0.000476368
0.00392327
-0.000229008
0.0039969
-8.90128e-05
0.00403031
0.000201857
0.00391731
-0.000303931
0.00399865
4.22034e-05
0.00398404
0.000116399
0.0039166
-0.000311279
0.00397608
1.87091e-05
-0.000179121
0.00390471
0.00345545
-8.14082e-05
0.00354536
9.92485e-05
0.0034988
0.000139904
0.00339154
-0.000385474
0.00359043
0.00031795
0.00348253
0.000144654
0.003455
-0.000389766
0.003623
0.00034703
0.0034421
-0.000142991
0.00348602
-0.00024167
0.00357329
0.000389099
0.00346109
-0.000116803
0.00352288
-0.000150806
0.00353675
0.000187983
0.00345396
-0.000221136
0.00351011
-1.39496e-05
0.00349742
0.000129085
0.00343658
-0.000250436
0.00347075
-1.54601e-05
-0.00011328
0.00340491
0.00286944
-6.33444e-05
0.00291269
5.5993e-05
0.00290382
0.000148781
0.0028285
-0.000310159
0.00295121
0.000195239
0.00291511
0.000180751
0.00287305
-0.000347705
0.00297237
0.00024771
0.00287213
-4.2747e-05
0.00288009
-0.000249631
0.00295256
0.000316627
0.00289682
-6.10658e-05
0.00291165
-0.00016563
0.00292802
0.000171613
0.00286715
-0.000160265
0.00288996
-3.67565e-05
0.00289391
0.000125133
0.00283453
-0.000191055
0.00284541
-2.63428e-05
-5.98919e-05
0.00279202
0.00216776
-4.36021e-05
0.00219095
3.28052e-05
0.00222324
0.000116486
0.00212895
-0.000215865
0.00221621
0.000107971
0.00224346
0.00015351
0.00214802
-0.000252267
0.00223623
0.000159497
0.002193
4.80757e-07
0.00214276
-0.000199386
0.0022397
0.000219689
0.00220632
-2.76857e-05
0.00217243
-0.000131743
0.00221373
0.000130308
0.0021571
-0.000103632
0.00215875
-3.84045e-05
0.00218449
9.93962e-05
0.0021188
-0.000125368
0.00211417
-2.17143e-05
-2.08695e-05
0.00207515
0.00136337
-1.94755e-05
0.00138269
1.34861e-05
0.00143627
6.29109e-05
0.00132283
-0.00010243
0.0013977
3.30996e-05
0.0014608
9.04105e-05
0.00132858
-0.000120044
0.00142318
6.48962e-05
0.00140559
1.80696e-05
0.00131336
-0.000107149
0.00143411
9.8938e-05
0.00140459
1.83023e-06
0.00134591
-7.30598e-05
0.00141071
6.55035e-05
0.00134983
-4.27431e-05
0.00133961
-2.8189e-05
0.00138248
5.65297e-05
0.00131131
-5.41998e-05
0.00130149
-1.18967e-05
3.00862e-06
0.00127761
0.000468025
0.000481511
0.000544422
0.000441991
0.000475091
0.000565501
0.000445457
0.000510353
0.000528423
0.000421274
0.000520212
0.000522042
0.000448982
0.000514486
0.000471742
0.000443553
0.000500083
0.000445883
0.000433987
0.000436995
0.000838997
-1.10775e-05
-0.0002109
0.000904237
0.000113781
-0.000179022
0.00112246
-0.000146885
-7.13358e-05
0.00130511
6.74678e-05
-0.000250116
0.00138374
0.000126005
-0.000204642
0.00177151
-0.000826008
0.000438243
0.00200647
-0.00167553
0.00144057
0.00180178
-0.0009511
0.00115579
0.00185203
-0.00130177
0.00125152
0.00216961
-1.32882e-05
-0.000304298
0.00251034
0.00135317
-0.0016939
0.00276432
-0.00135992
0.00110595
0.00326799
-0.00282498
0.0023213
0.00402702
-0.00306576
0.00230673
0.00451666
-0.00646469
0.00597505
0.00440739
-0.00932074
0.00943001
0.00414973
-0.00763236
0.00789002
0.00414039
-0.00136963
0.00137897
0.00445253
0.000311403
-0.00062354
0.00467704
-0.00282278
0.00259827
0.00471304
-0.00390065
0.00386465
0.00471373
-0.00244277
0.00244207
0.0046176
-0.00153148
0.00162762
0.00444871
0.00310663
-0.00293774
0.00426732
0.00496279
-0.0047814
0.00383596
-0.000191328
0.000622688
0.00316822
-0.00159924
0.00226699
0.00261656
-0.00212757
0.00267923
0.00253027
-0.00732267
0.00740895
0.0026763
-0.00798078
0.00783475
0.00271026
-0.00450624
0.00447228
0.00287878
0.00216751
-0.00233603
0.00300324
0.00912168
-0.00924614
0.00288115
0.0121545
-0.0120324
0.00279174
0.0104576
-0.0103682
0.00270036
0.00738658
-0.0072952
0.00277292
0.00368241
-0.00375496
0.00300916
-0.00296337
0.00272712
0.00307062
-0.00752887
0.00746741
0.00309403
-0.00609204
0.00606863
0.00310797
-0.00134513
0.00133118
0.00291019
0.00248781
-0.00229003
0.00262476
0.00426811
-0.00398268
0.00256213
0.00251026
-0.00244763
0.00251292
0.000508589
-0.000459386
0.00248692
0.000503418
-0.000477419
0.00272051
-0.00131582
0.00108223
0.00292896
-0.00477556
0.00456711
0.00291499
-0.00660227
0.00661624
0.00288133
-0.00504703
0.00508069
0.00288963
-0.000869716
0.000861419
0.00283105
0.00247493
-0.00241635
0.00269513
0.00329379
-0.00315787
0.00255201
0.0024161
-0.00227298
0.00243891
0.00115141
-0.00103831
0.0023516
0.000214333
-0.000127022
0.00227866
-0.000250266
0.000323206
0.0022155
-0.000373048
0.000436205
0.00216165
-0.000330264
0.000384112
0.00211736
-0.000242023
0.000286313
0.00208252
-0.00016304
0.000197885
0.00205643
-0.000107115
0.000133201
0.0020379
-7.10079e-05
8.95399e-05
0.00202541
-4.79472e-05
6.04359e-05
0.00201741
-3.26417e-05
4.06401e-05
0.00201253
-2.20124e-05
2.68909e-05
0.00200969
-1.44705e-05
1.73154e-05
0.0020081
-9.18013e-06
1.07694e-05
0.00200725
-5.58855e-06
6.44293e-06
0.0020068
-3.25917e-06
3.70167e-06
0.00200658
-1.82045e-06
2.04178e-06
0.00200647
-9.73626e-07
1.08125e-06
0.00200642
-5.00712e-07
5.50963e-07
0.0020064
-2.46536e-07
2.69935e-07
0.00200639
-1.16842e-07
1.26969e-07
0.00200639
-5.36891e-08
5.81736e-08
0.00200638
-2.3385e-08
2.53683e-08
0.00200638
-9.92199e-09
1.05919e-08
0.00200638
-4.29416e-09
4.73206e-09
0.00200638
-1.74636e-09
1.80407e-09
0.00200638
-7.10416e-10
6.84983e-10
0.00200638
-2.6239e-10
4.05342e-10
0.00200638
-1.55058e-10
-4.43542e-11
0.00200638
7.56554e-11
-2.1917e-12
0.00200638
-9.52932e-13
-1.30737e-11
0.00200638
1.0141e-10
-1.09427e-10
0.00200638
1.44923e-10
-2.06887e-11
0.00200638
-8.20321e-11
-3.30611e-11
0.00200638
1.52756e-10
-1.45736e-10
0.00200638
7.128e-11
-6.22389e-11
0.00200638
9.52177e-13
-2.89425e-11
0.00200638
1.97474e-10
-1.17168e-10
0.00200638
-1.26396e-10
6.78935e-11
0.00200638
1.05888e-10
-1.57845e-10
0.00200638
8.32853e-11
-3.55012e-11
0.00200638
-3.84063e-11
6.21149e-11
0.00200638
1.08097e-10
-5.65847e-11
0.00200638
1.45368e-10
-1.24712e-10
0.00200638
-3.95234e-12
-4.10055e-11
-2.31166e-11
3.05412e-12
0.00163939
-0.00016729
0.0016638
8.93723e-05
0.00173051
-0.000213589
0.00205613
-0.000258156
0.00214816
3.39795e-05
0.00238648
-0.00106433
0.00266599
-0.00195504
0.00250194
-0.000787047
0.00251171
-0.00131154
0.00267614
-0.000177716
0.00286131
0.00116799
0.00317962
-0.00167823
0.0037538
-0.00339916
0.00444163
-0.00375359
0.0047678
-0.00679087
0.00453171
-0.00908464
0.0041588
-0.00725945
0.00415744
-0.00136828
0.00447417
-5.32605e-06
0.0046062
-0.00295481
0.00456246
-0.00385692
0.00454495
-0.00242525
0.00440995
-0.00139649
0.00428851
0.00322807
0.00420373
0.00504758
0.00374902
0.000263375
0.00301266
-0.000862876
0.0024681
-0.00158301
0.00238262
-0.00723719
0.00250904
-0.0081072
0.00253485
-0.00453205
0.00270422
0.00199814
0.00287946
0.00894644
0.0028509
0.0121831
0.00284005
0.0104685
0.0027788
0.00744783
0.00289087
0.00357034
0.00312042
-0.00319292
0.00311497
-0.00752342
0.00308326
-0.00606034
0.00311507
-0.00137694
0.00294984
0.00265304
0.00270372
0.00451423
0.00266395
0.00255003
0.00258689
0.000585648
0.00255839
0.000531922
0.00279656
-0.00155399
0.00296138
-0.00494038
0.00288672
-0.00652761
0.00280869
-0.004969
0.00281544
-0.000876475
0.00278667
0.00250371
0.00268471
0.00339574
0.00256481
0.002536
0.00246196
0.00125426
0.00237549
0.000300811
0.00229853
-0.000173309
0.00223013
-0.000304653
0.00217176
-0.000271891
0.00212422
-0.000194484
0.00208723
-0.00012605
0.00205974
-7.96236e-05
0.00204024
-5.15078e-05
0.00202705
-3.47528e-05
0.00201852
-2.41155e-05
0.00201325
-1.67435e-05
0.00201013
-1.13471e-05
0.00200835
-7.40155e-06
0.00200737
-4.61253e-06
0.00200686
-2.74216e-06
0.00200659
-1.55528e-06
0.00200646
-8.41901e-07
0.0020064
-4.37292e-07
0.00200637
-2.16633e-07
0.00200635
-1.03893e-07
0.00200635
-4.73012e-08
0.00200634
-2.07471e-08
0.00200634
-9.15803e-09
0.00200634
-3.45013e-09
0.00200634
-1.67394e-09
0.00200634
-8.42336e-10
0.00200634
-6.32332e-11
0.00200634
-2.90082e-10
0.00200634
3.61393e-10
0.00200634
-9.78655e-11
0.00200634
-2.40183e-10
0.00200634
1.30625e-10
0.00200634
-1.55913e-10
0.00200634
2.03297e-10
0.00200634
1.74714e-10
0.00200634
-2.7488e-11
0.00200634
3.18389e-10
0.00200634
1.90948e-10
0.00200634
1.7806e-10
0.00200634
1.5558e-11
0.00200634
-2.76006e-10
0.00200634
-1.08975e-10
0.00200634
2.3094e-10
0.00200634
3.1203e-10
1.29622e-10
0.00240147
-0.000255156
0.00249894
-8.09825e-06
0.0024769
-0.000191543
0.00277229
-0.000553551
0.00289811
-9.18439e-05
0.0030144
-0.00118062
0.00323175
-0.00217239
0.00309901
-0.000654311
0.00312051
-0.00133304
0.0032692
-0.000326405
0.00336066
0.00107652
0.00364284
-0.0019604
0.00417327
-0.0039296
0.00475652
-0.00433683
0.0049327
-0.00696705
0.00457273
-0.00872468
0.00409906
-0.00678578
0.00411754
-0.00138676
0.00441126
-0.000299039
0.0044532
-0.00299676
0.00433885
-0.00374257
0.0043046
-0.002391
0.00414174
-0.00123363
0.0040734
0.00329642
0.00407866
0.00504231
0.00361039
0.000731647
0.00282714
-7.9631e-05
0.0023003
-0.00105616
0.00220947
-0.00714636
0.00231468
-0.00821241
0.00233865
-0.00455602
0.00250983
0.00182696
0.00272993
0.00872634
0.00279632
0.0121167
0.00286268
0.0104021
0.00283655
0.00747396
0.00298666
0.00342023
0.00319816
-0.00340442
0.00312904
-0.00745429
0.00304573
-0.00597702
0.00308999
-0.0014212
0.00295725
0.00278578
0.00276181
0.00470966
0.00274666
0.00256518
0.00264637
0.000685941
0.00262543
0.000552858
0.00285847
-0.00178703
0.00296709
-0.005049
0.00283177
-0.00639229
0.0027122
-0.00484943
0.00271634
-0.000880618
0.00271694
0.00250311
0.00265113
0.00346155
0.00255774
0.00262939
0.00246815
0.00134384
0.0023851
0.000383865
0.00230654
-9.47458e-05
0.00223516
-0.00023328
0.00217432
-0.000211051
0.00212534
-0.000145505
0.00208775
-8.84521e-05
0.0020601
-5.19757e-05
0.0020406
-3.2004e-05
0.0020274
-2.15538e-05
0.00201882
-1.55404e-05
0.00201347
-1.13931e-05
0.00201026
-8.13445e-06
0.0020084
-5.54433e-06
0.00200736
-3.57583e-06
0.00200681
-2.18323e-06
0.00200651
-1.26378e-06
0.00200637
-6.94172e-07
0.00200629
-3.65231e-07
0.00200626
-1.81878e-07
0.00200624
-8.81003e-08
0.00200624
-4.01008e-08
0.00200623
-1.74997e-08
0.00200623
-7.93761e-09
0.00200623
-2.76212e-09
0.00200623
-1.50921e-09
0.00200623
-8.2094e-10
0.00200623
1.22179e-10
0.00200623
-4.76459e-10
0.00200623
4.43131e-10
0.00200623
-1.14874e-10
0.00200623
-2.63685e-10
0.00200623
2.38118e-10
0.00200623
-2.44593e-10
0.00200623
2.04869e-10
0.00200623
1.73381e-10
0.00200623
-4.40245e-11
0.00200623
3.76893e-10
0.00200623
1.49808e-10
0.00200623
1.22279e-10
0.00200623
5.95631e-11
0.00200623
-2.60222e-10
0.00200623
-6.02145e-11
0.00200623
2.54738e-10
0.00200623
2.62343e-10
1.12836e-10
0.0030739
-0.00027964
0.00318937
-0.000123569
0.00316683
-0.000169003
0.0034025
-0.000789218
0.00352752
-0.000216869
0.00355227
-0.00120536
0.00370356
-0.00232367
0.00359703
-0.000547786
0.00358874
-0.00132474
0.00378312
-0.00052079
0.00388195
0.00097769
0.00407338
-0.00215182
0.004491
-0.00434723
0.00496339
-0.00480922
0.00500388
-0.00700754
0.00453356
-0.00825435
0.00399209
-0.00624431
0.0040168
-0.00141147
0.00425108
-0.00053332
0.00420803
-0.0029537
0.0040452
-0.00357974
0.00399781
-0.00234361
0.00382344
-0.00105926
0.0038119
0.00330795
0.00389259
0.00496162
0.00342196
0.00120228
0.00261826
0.000724064
0.00211804
-0.000555933
0.00201159
-0.00703992
0.00209403
-0.00829485
0.00212172
-0.0045837
0.00229722
0.00165146
0.00255821
0.00846535
0.00272089
0.011954
0.00286032
0.0102627
0.00287491
0.00745937
0.00305923
0.0032359
0.00324087
-0.00358606
0.00311455
-0.00732796
0.00298637
-0.00584885
0.00303464
-0.00146947
0.00293194
0.00288848
0.00279672
0.00484488
0.00280567
0.00255624
0.00268863
0.000802979
0.00268446
0.000557022
0.00290169
-0.00200425
0.00294446
-0.00509177
0.00275051
-0.00619835
0.00259318
-0.00469209
0.00259363
-0.000881071
0.00262266
0.00247408
0.00259443
0.00348978
0.00253025
0.00269357
0.0024566
0.00141749
0.00237948
0.000460989
0.00230181
-1.70794e-05
0.00222991
-0.000161384
0.00216887
-0.000150006
0.00212042
-9.70586e-05
0.00208386
-5.18881e-05
0.00205736
-2.54789e-05
0.00203885
-1.34882e-05
0.00202636
-9.06376e-06
0.00201822
-7.40317e-06
0.0020131
-6.27634e-06
0.00200999
-5.02632e-06
0.00200817
-3.72202e-06
0.00200714
-2.54263e-06
0.00200657
-1.61707e-06
0.00200627
-9.63689e-07
0.00200612
-5.3968e-07
0.00200604
-2.88726e-07
0.002006
-1.44514e-07
0.00200599
-7.08772e-08
0.00200598
-3.21776e-08
0.00200598
-1.38989e-08
0.00200597
-6.56778e-09
0.00200597
-1.99883e-09
0.00200597
-1.31459e-09
0.00200597
-7.7099e-10
0.00200597
3.18022e-10
0.00200597
-6.56835e-10
0.00200597
5.41782e-10
0.00200597
-1.4132e-10
0.00200597
-2.91502e-10
0.00200597
3.46393e-10
0.00200597
-3.42345e-10
0.00200597
2.23219e-10
0.00200597
1.66049e-10
0.00200597
-7.62347e-11
0.00200597
4.43836e-10
0.00200597
1.0007e-10
0.00200597
7.54504e-11
0.00200597
1.05428e-10
0.00200597
-2.4697e-10
0.00200597
-2.17823e-11
0.00200597
2.70888e-10
0.00200597
2.24212e-10
9.06183e-11
0.00364973
-0.000285541
0.00374456
-0.000218398
0.00373837
-0.000162811
0.0038971
-0.000947952
0.00403065
-0.000350416
0.00400087
-0.00117559
0.0040666
-0.0023894
0.00401719
-0.000498372
0.00396842
-0.00127598
0.00416295
-0.000715322
0.0043126
0.000828038
0.00441307
-0.00225229
0.00469955
-0.00463371
0.00506629
-0.00517596
0.0049823
-0.00692355
0.00441458
-0.00768663
0.00383523
-0.00566496
0.00383266
-0.00140889
0.00397802
-0.000678687
0.00387175
-0.00284742
0.00369289
-0.00340089
0.00363885
-0.00228957
0.00346764
-0.000888053
0.00351359
0.00326201
0.00365245
0.00482276
0.00319008
0.00166465
0.00239247
0.00152167
0.00192867
-9.21289e-05
0.00179464
-0.00690589
0.00185173
-0.00835194
0.001886
-0.00461797
0.00206631
0.00147115
0.00236288
0.00816878
0.00262286
0.011694
0.00283129
0.0100543
0.00289359
0.00739707
0.00310807
0.00302143
0.00324851
-0.00372651
0.00307387
-0.00715332
0.00291039
-0.00568537
0.00295156
-0.00151063
0.00287457
0.00296547
0.00280663
0.00491282
0.00283749
0.00252538
0.0027116
0.000928875
0.00273162
0.000536995
0.00292225
-0.00219488
0.00289291
-0.00506243
0.00264398
-0.00594942
0.00245318
-0.0045013
0.00244916
-0.000877046
0.00250504
0.0024182
0.00251515
0.00347967
0.00248226
0.00272646
0.00242684
0.00147291
0.00235802
0.00052981
0.00228381
5.71352e-05
0.00221399
-9.15636e-05
0.00215516
-9.11739e-05
0.00210932
-5.12249e-05
0.00207548
-1.80498e-05
0.00205145
-1.44639e-06
0.0020349
3.06457e-06
0.00202381
2.02548e-06
0.00201658
-1.72544e-07
0.002012
-1.69623e-06
0.00200918
-2.21012e-06
0.00200751
-2.04571e-06
0.00200654
-1.57624e-06
0.002006
-1.0784e-06
0.00200571
-6.73406e-07
0.00200556
-3.87871e-07
0.00200548
-2.12478e-07
0.00200544
-1.06819e-07
0.00200543
-5.32869e-08
0.00200542
-2.40212e-08
0.00200541
-1.0166e-08
0.00200541
-5.14095e-09
0.00200541
-1.20272e-09
0.00200541
-1.10964e-09
0.00200541
-7.00093e-10
0.00200541
5.13261e-10
0.00200541
-8.32469e-10
0.00200541
6.59167e-10
0.00200541
-1.80834e-10
0.00200541
-3.18192e-10
0.00200541
4.52819e-10
0.00200541
-4.46789e-10
0.00200541
2.54016e-10
0.00200541
1.61689e-10
0.00200541
-1.20511e-10
0.00200541
5.07614e-10
0.00200541
5.21063e-11
0.00200541
3.11609e-11
0.00200541
1.51865e-10
0.00200541
-2.32553e-10
0.00200541
5.15642e-13
0.00200541
2.81464e-10
0.00200541
1.91349e-10
6.93657e-11
0.0041119
-0.000290522
0.00417235
-0.00027884
0.00420256
-0.00019303
0.00427586
-0.00102125
0.00440713
-0.000481687
0.00436836
-0.00113682
0.00434051
-0.00236155
0.0043511
-0.000508965
0.00428127
-0.00120615
0.00442892
-0.00086297
0.00462285
0.000634109
0.0046545
-0.00228394
0.00481995
-0.00479915
0.005074
-0.00543002
0.00486512
-0.00671467
0.00421627
-0.00703778
0.0036161
-0.00506478
0.003546
-0.0013388
0.00359195
-0.000724632
0.00346329
-0.00271876
0.00330154
-0.00323914
0.00324519
-0.00223321
0.00308875
-0.000731611
0.00318712
0.00316364
0.00336683
0.00464304
0.00292107
0.00211042
0.00215518
0.00228756
0.00173579
0.000327257
0.00156543
-0.00673552
0.00159363
-0.00838014
0.00163415
-0.0046585
0.00181993
0.00128537
0.00214796
0.00784075
0.00250544
0.0113365
0.00277751
0.00978219
0.00289236
0.00728221
0.00313389
0.0027799
0.00322237
-0.00381498
0.00300866
-0.00693961
0.00282154
-0.00549825
0.0028433
-0.0015324
0.002787
0.00302176
0.00279062
0.0049092
0.0028399
0.0024761
0.00271436
0.00105441
0.00276339
0.000487973
0.00291726
-0.00234875
0.00281283
-0.00495801
0.00251381
-0.00565039
0.00229412
-0.0042816
0.00228513
-0.000868057
0.00236579
0.00233755
0.0024143
0.00343115
0.00241414
0.00272663
0.00237886
0.00150819
0.00232054
0.000588127
0.00225237
0.000125305
0.00218731
-2.65018e-05
0.00213319
-3.7058e-05
0.00209208
-1.01175e-05
0.00206264
1.13943e-05
0.00204232
1.88704e-05
0.00202863
1.67542e-05
0.00201957
1.10905e-05
0.00201366
5.73513e-06
0.00200989
2.07903e-06
0.00200753
1.47515e-07
0.0020061
-6.15279e-07
0.00200526
-7.34465e-07
0.00200478
-5.99567e-07
0.00200451
-4.1045e-07
0.00200437
-2.47938e-07
0.0020043
-1.41164e-07
0.00200427
-7.1105e-08
0.00200425
-3.64354e-08
0.00200424
-1.61522e-08
0.00200424
-6.53494e-09
0.00200424
-3.76331e-09
0.00200424
-4.19046e-10
0.00200424
-9.15132e-10
0.00200424
-6.19998e-10
0.00200424
7.01882e-10
0.00200424
-1.00647e-09
0.00200424
7.94618e-10
0.00200424
-2.33184e-10
0.00200424
-3.41441e-10
0.00200424
5.54667e-10
0.00200424
-5.55127e-10
0.00200424
2.959e-10
0.00200424
1.61364e-10
0.00200424
-1.72506e-10
0.00200424
5.64619e-10
0.00200424
7.3445e-12
0.00200424
-1.0244e-11
0.00200424
1.99335e-10
0.00200424
-2.18684e-10
0.00200424
6.97517e-12
0.00200424
2.85556e-10
0.00200424
1.63981e-10
4.98554e-11
0.00447484
-0.000303052
0.00449153
-0.000295524
0.00456084
-0.000262348
0.00456434
-0.00102475
0.00467563
-0.000592968
0.00465151
-0.0011127
0.00454097
-0.00225101
0.00459389
-0.00056188
0.0045207
-0.00113295
0.00460178
-0.000944051
0.00481965
0.000416232
0.00480293
-0.00226721
0.00485714
-0.00485336
0.00498005
-0.00555293
0.00464614
-0.00638076
0.00393677
-0.00632841
0.00331736
-0.00444537
0.00314922
-0.00117066
0.00311357
-0.00068898
0.00301188
-0.00261707
0.00289118
-0.00311844
0.00283295
-0.00217498
0.00269767
-0.000596327
0.00283792
0.00302339
0.00304407
0.0044369
0.00262192
0.00253257
0.00191121
0.00299827
0.00154289
0.00069558
0.00133281
-0.00652544
0.00132607
-0.00837341
0.00136927
-0.0047017
0.00155866
0.00109599
0.00191334
0.00748607
0.00236746
0.0108824
0.00269859
0.00945107
0.00286976
0.00711105
0.0031362
0.00251345
0.00316428
-0.00384306
0.00291898
-0.00669431
0.00271933
-0.0052986
0.0027116
-0.00152466
0.00267189
0.00306147
0.00274862
0.00483247
0.00281188
0.00241284
0.00269695
0.00116934
0.00277713
0.000407787
0.00288498
-0.00245659
0.00270537
-0.0047784
0.00236221
-0.00530723
0.00211832
-0.00403772
0.00210382
-0.000853554
0.00220697
0.0022344
0.00229331
0.0033448
0.0023267
0.00269324
0.00231304
0.00152185
0.0022673
0.000633868
0.00220773
0.000184872
0.00215018
3.10502e-05
0.00210329
9.83876e-06
0.00206895
2.42171e-05
0.00204544
3.49051e-05
0.00202993
3.43786e-05
0.00201985
2.68355e-05
0.0020133
1.76372e-05
0.00200904
9.9991e-06
0.00200627
4.84499e-06
0.0020045
1.91887e-06
0.0020034
4.91346e-07
0.00200272
-6.36083e-08
0.00200233
-2.07269e-07
0.00200211
-1.89771e-07
0.00200199
-1.27981e-07
0.00200193
-7.90382e-08
0.0020019
-3.95414e-08
0.00200188
-2.1385e-08
0.00200188
-9.08661e-09
0.00200187
-3.23916e-09
0.00200187
-2.54369e-09
0.00200187
3.0569e-10
0.00200187
-7.50651e-10
0.00200187
-5.42539e-10
0.00200187
8.79505e-10
0.00200187
-1.18028e-09
0.00200187
9.45576e-10
0.00200187
-2.97858e-10
0.00200187
-3.59449e-10
0.00200187
6.50031e-10
0.00200187
-6.64929e-10
0.00200187
3.47448e-10
0.00200187
1.64448e-10
0.00200187
-2.2896e-10
0.00200187
6.13871e-10
0.00200187
-3.39992e-11
0.00200187
-4.79284e-11
0.00200187
2.47647e-10
0.00200187
-2.06852e-10
0.00200187
-1.29352e-12
0.00200187
2.83752e-10
0.00200187
1.41897e-10
3.20897e-11
0.00474226
-0.000325307
0.0047211
-0.000274362
0.00481392
-0.00035517
0.00476966
-0.000980489
0.00485309
-0.000676395
0.00484643
-0.00110604
0.00467426
-0.00207884
0.00474643
-0.000634047
0.00467476
-0.00106128
0.00468977
-0.000959064
0.00490816
0.000197844
0.00485625
-0.00221531
0.00480736
-0.00480447
0.00478102
-0.0055266
0.0043281
-0.00592784
0.00357928
-0.00557959
0.00293146
-0.00379754
0.00265722
-0.00089643
0.00258252
-0.000614274
0.00254632
-0.00258087
0.00247237
-0.0030445
0.00240901
-0.00211162
0.00229774
-0.000485057
0.00246833
0.0028528
0.00269081
0.00421441
0.00230008
0.0029233
0.0016656
0.00363275
0.0013529
0.00100829
0.00110291
-0.00627545
0.00105105
-0.00832155
0.00109226
-0.00474291
0.00128549
0.000902752
0.00166221
0.00710935
0.00221038
0.0103342
0.0025984
0.00906305
0.00282912
0.00688032
0.00311411
0.00222847
0.00307664
-0.0038056
0.00280255
-0.00642022
0.00259878
-0.00509483
0.00255527
-0.00148116
0.0025322
0.00308455
0.00268116
0.0046835
0.00275387
0.00234013
0.00266071
0.0012625
0.00277098
0.000297515
0.00282468
-0.00251029
0.00257241
-0.00452613
0.00219187
-0.00492669
0.00192823
-0.00377407
0.0019077
-0.000833032
0.00203095
0.00211115
0.00215402
0.00322174
0.00222117
0.00262608
0.00223023
0.00151279
0.00219901
0.000665091
0.00215064
0.00023324
0.00210333
7.83583e-05
0.00206605
4.7123e-05
0.00204032
4.99517e-05
0.002024
5.12233e-05
0.0020141
4.42752e-05
0.00200811
3.28221e-05
0.00200437
2.13768e-05
0.00200193
1.2446e-05
0.00200028
6.4945e-06
0.00199916
3.03582e-06
0.00199842
1.23041e-06
0.00199795
4.08465e-07
0.00199766
8.12228e-08
0.00199749
-2.17403e-08
0.0019974
-3.3972e-08
0.00199735
-2.94089e-08
0.00199732
-1.38915e-08
0.00199731
-9.02869e-09
0.00199731
-3.27699e-09
0.0019973
-4.83616e-10
0.0019973
-1.58043e-09
0.0019973
9.28599e-10
0.0019973
-6.32263e-10
0.0019973
-4.78738e-10
0.0019973
1.0426e-09
0.0019973
-1.35296e-09
0.0019973
1.10738e-09
0.0019973
-3.73912e-10
0.0019973
-3.70709e-10
0.0019973
7.37471e-10
0.0019973
-7.73278e-10
0.0019973
4.06309e-10
0.0019973
1.69692e-10
0.0019973
-2.87815e-10
0.0019973
6.55457e-10
0.0019973
-7.1331e-11
0.0019973
-8.18212e-11
0.0019973
2.95787e-10
0.0019973
-1.98106e-10
0.0019973
-2.228e-11
0.0019973
2.77794e-10
0.0019973
1.24557e-10
1.57785e-11
0.00490871
-0.000351441
0.0048672
-0.000232853
0.00496229
-0.000450267
0.00488929
-0.000907481
0.00494537
-0.000732476
0.00494538
-0.00110605
0.00473646
-0.00186992
0.00480639
-0.000703979
0.00473333
-0.000988219
0.00469504
-0.000920775
0.00488936
3.52093e-06
0.00481433
-0.00214028
0.00466661
-0.00465675
0.00447346
-0.00533344
0.00391322
-0.0053676
0.00314494
-0.0048113
0.00246564
-0.00311825
0.00210942
-0.000540204
0.00204607
-0.000550928
0.0020847
-0.0026195
0.00204604
-0.00300584
0.00197433
-0.00203991
0.00188913
-0.000399858
0.00208152
0.0026604
0.00231519
0.00398075
0.00196378
0.0032747