/*--------------------------------*- C++ -*----------------------------------*\
| =========                 |                                                 |
| \\      /  F ield         | OpenFOAM: The Open Source CFD Toolbox           |
|  \\    /   O peration     | Version:  2.4.0                                 |
|   \\  /    A nd           | Web:      www.OpenFOAM.org                      |
|    \\/     M anipulation  |                                                 |
\*---------------------------------------------------------------------------*/
FoamFile
{
    version     2.0;
    format      ascii;
    class       volScalarField;
    location    "1.45";
    object      k;
}
// * * * * * * * * * * * * * * * * * * * * * * * * * * * * * * * * * * * * * //

dimensions      [0 2 -2 0 0 0 0];

internalField   nonuniform List<scalar> 
8800
(
8.29732
10.4449
9.3395
6.51856
6.1377
4.47554
5.2294
3.78825
4.6874
3.43058
4.34558
3.1393
4.16094
2.97207
3.9945
2.81476
3.9078
2.67994
3.93528
2.61467
1.65312
4.04655
5.83727
5.29846
5.56305
4.61154
5.15785
4.12491
4.76887
3.85462
4.41462
3.59223
4.24414
3.40411
4.10143
3.29761
3.97412
3.17879
3.92146
3.42845
0.102876
0.608519
1.88497
2.0089
2.72503
2.52764
2.9007
2.616
3.03518
2.60143
2.9996
2.6159
2.92447
2.5507
2.91532
2.54111
2.81758
2.52445
2.76062
2.63448
0.00704796
0.0669698
0.400928
0.494636
0.87627
0.915136
1.03018
1.05333
1.25559
1.15386
1.32599
1.28757
1.36884
1.3335
1.44946
1.43615
1.44312
1.50341
1.47334
1.55109
0.00046468
0.0065638
0.0587318
0.0784637
0.175424
0.246684
0.250365
0.309906
0.343862
0.351221
0.373438
0.433355
0.428408
0.465597
0.472675
0.552384
0.533843
0.613805
0.575493
0.657253
0.00341285
0.0117966
0.0146146
0.0151279
0.0414927
0.0671846
0.110185
0.130823
0.16552
0.171909
0.19846
0.222349
0.229134
0.247764
0.254077
0.282292
0.280527
0.30029
0.292288
0.308842
0.00340373
0.0139757
0.024029
0.0307118
0.0730829
0.0820004
0.126274
0.154827
0.215357
0.227741
0.242762
0.249225
0.247807
0.251898
0.248286
0.246429
0.238519
0.236793
0.226432
0.223753
0.000178533
0.0037821
0.0242715
0.0330761
0.06435
0.10761
0.153956
0.227126
0.236863
0.250192
0.245115
0.244136
0.237565
0.23597
0.223514
0.216796
0.214897
0.211015
0.196323
0.19325
2.1901e-05
0.000533595
0.021963
0.0457823
0.0658679
0.11747
0.13976
0.179512
0.162545
0.174059
0.165978
0.166292
0.174053
0.176885
0.171782
0.173748
0.176792
0.174046
0.162414
0.163367
4.67032e-05
0.00167345
0.01958
0.058615
0.0642907
0.0833416
0.0816364
0.0822601
0.0783728
0.0847547
0.093084
0.106864
0.112562
0.113707
0.114509
0.117858
0.118403
0.116065
0.114747
0.116455
0.000555516
0.00506703
0.0489337
0.0618617
0.0565745
0.0589892
0.0557569
0.0566763
0.060738
0.0725776
0.0918554
0.0950837
0.0974848
0.0991482
0.100442
0.100262
0.100098
0.0990883
0.0992562
0.0987215
0.00131807
0.0344247
0.0399072
0.0383175
0.0397099
0.0466248
0.0557145
0.0685677
0.0741351
0.083505
0.0938016
0.102688
0.102444
0.101787
0.101468
0.103206
0.102258
0.0972393
0.097077
0.101249
5.22647e-05
0.0109489
0.00747713
0.00898422
0.0154322
0.0171543
0.0201872
0.0357858
0.037711
0.0400938
0.0442781
0.0564177
0.0543942
0.0545534
0.060836
0.0627845
0.0619631
0.0599219
0.0642264
0.0705059
0.000652619
0.00187067
0.00228943
0.00269848
0.00620782
0.00867732
0.00990024
0.0149067
0.0211068
0.0221687
0.0244909
0.0312697
0.0322712
0.0328395
0.0383648
0.0431392
0.04343
0.0459333
0.0497959
0.0617186
2.96053e-05
0.000237174
0.00599728
0.00514838
0.0114976
0.0250763
0.0255008
0.0373948
0.0609414
0.0589927
0.0634993
0.0899331
0.0906714
0.0927521
0.109884
0.134675
0.133117
0.149005
0.161658
0.211872
0.000111651
0.00362404
0.0457605
0.0510788
0.0898239
0.167728
0.167955
0.222474
0.300124
0.292279
0.308272
0.403052
0.39214
0.403414
0.471993
0.523469
0.512186
0.56249
0.617682
0.703481
0.00298922
0.0589143
0.311957
0.38347
0.59264
0.80139
0.812878
0.953767
1.09052
1.06899
1.11673
1.26026
1.21416
1.2451
1.3544
1.36735
1.34773
1.43319
1.47843
1.50499
0.0761625
0.676528
1.6196
1.85503
2.3829
2.54746
2.55648
2.62991
2.64551
2.55107
2.55849
2.55561
2.46592
2.45315
2.45986
2.41412
2.36532
2.37975
2.36837
2.33679
1.27459
4.43774
5.24269
5.43993
5.22242
4.77947
4.67323
4.24497
4.07665
3.90458
3.73794
3.55664
3.52175
3.37774
3.30445
3.20468
3.17337
3.04221
3.00914
2.9146
7.90583
10.5148
8.74489
7.12392
5.6086
4.88517
4.56605
4.05473
3.87526
3.68487
3.57032
3.32298
3.31319
3.17332
3.08151
2.93205
2.93028
2.75025
2.669
2.44312
1.67828
1.24863
1.14212
0.919747
0.88477
0.774718
0.772224
0.714717
0.72075
0.669522
0.672581
0.611938
0.604672
0.527729
0.51389
0.439829
0.437759
0.400571
0.422438
0.418249
0.455126
0.465777
0.513301
0.52442
0.549475
0.536849
0.530943
0.497189
0.482017
0.429666
0.415443
0.378848
0.389527
0.414569
0.543602
0.54651
0.511523
0.279763
0.175695
0.0793366
0.0590685
0.037274
0.0431633
0.0521478
0.10144
0.13646
0.168909
0.184501
0.197652
0.217347
0.2247
0.227449
0.226717
0.22511
0.221273
0.208637
0.193869
0.18167
0.199083
0.222783
0.226852
0.18971
0.185859
0.205552
0.215732
0.180092
0.116608
0.081378
0.0738902
0.0674935
0.0672291
0.0633447
0.0605985
0.058241
0.0642082
0.068313
0.0796125
0.0829551
0.111848
0.146245
0.185172
0.206631
0.218542
0.222954
0.223293
0.217788
0.189641
0.152781
0.137565
0.128407
0.134388
0.153243
0.26359
0.325879
0.358674
0.301992
0.249386
0.173188
0.166744
0.135452
0.12295
0.0838068
0.0785872
0.0676168
0.0694953
0.0679713
0.0702682
0.0784997
0.0896187
0.119179
0.136943
0.162978
0.170684
0.184794
0.186861
0.189124
0.185038
0.180101
0.164911
0.153619
0.146399
0.142648
0.140472
0.135847
0.124942
0.0920163
0.0679256
0.0451798
0.0358966
0.0260018
0.0222176
0.0174442
0.0161385
0.0143666
0.0141826
0.0140471
0.0137969
0.0137708
0.0144162
0.0167742
0.031876
0.0822991
0.120478
0.203662
0.323839
0.337595
0.270078
0.180985
0.16541
0.127139
0.135305
0.116069
0.126646
0.109431
0.0964197
0.0867154
0.0820588
0.0812261
0.0810228
0.0811472
0.0811028
0.0770162
0.0799185
0.0751144
0.0842255
0.0816946
0.103562
0.110661
0.13981
0.137311
0.135799
0.116119
0.108036
0.095133
0.096735
0.0961814
0.107439
0.111403
0.137074
0.14047
0.156958
0.152162
0.156991
0.148484
0.147245
0.13376
0.122953
0.092608
0.0792256
0.0703298
0.073322
0.074474
0.0849302
0.0888397
0.112887
0.121665
0.192341
0.23071
0.573426
1.32374
2.63784
2.10586
1.88094
1.57309
1.46832
1.2781
1.22583
1.1117
1.08287
1.00725
0.991621
0.939877
0.933144
0.894452
0.885132
0.836865
0.81771
0.759316
0.739188
0.693812
0.680237
0.651999
0.641897
0.61866
0.599723
0.559309
0.530776
0.468057
0.432414
0.373893
0.350745
0.309268
0.30045
0.292418
0.308873
0.390644
0.526605
0.516582
0.437199
0.222898
0.145615
0.0939784
0.0912695
0.0927719
0.111153
0.155143
0.174344
0.203407
0.217502
0.229913
0.229794
0.228797
0.222145
0.221183
0.218865
0.211802
0.187988
0.164011
0.157165
0.162352
0.196072
0.187944
0.165347
0.161337
0.197079
0.204488
0.187558
0.113359
0.0844536
0.0672209
0.063153
0.0564792
0.0536949
0.053023
0.0555472
0.0607275
0.0681523
0.0786607
0.110094
0.154298
0.179912
0.204369
0.210182
0.218965
0.218805
0.216164
0.183447
0.148332
0.121675
0.108684
0.106563
0.107062
0.115094
0.148038
0.298303
0.346422
0.354793
0.274994
0.226185
0.171393
0.166483
0.15307
0.143767
0.131249
0.122151
0.122954
0.124857
0.142328
0.150366
0.171034
0.177665
0.192484
0.192504
0.195165
0.19271
0.188821
0.1704
0.153858
0.143273
0.141319
0.139758
0.138357
0.135527
0.128089
0.105573
0.0749115
0.0550058
0.0373485
0.0297795
0.0215436
0.0193011
0.0161208
0.0153827
0.0135298
0.0134486
0.0131521
0.0133741
0.0132166
0.0132264
0.0135733
0.015373
0.0224323
0.0583517
0.112307
0.216559
0.328769
0.322205
0.241499
0.166692
0.13423
0.11824
0.114915
0.108009
0.110815
0.0972079
0.090353
0.0867982
0.0831853
0.0880669
0.0831955
0.0877103
0.0802534
0.0895886
0.0843356
0.100231
0.102666
0.125193
0.128147
0.128994
0.118626
0.104732
0.0974927
0.0972397
0.0986785
0.109039
0.114343
0.141121
0.146027
0.164964
0.161416
0.166353
0.156794
0.155479
0.13913
0.124177
0.0875552
0.0729246
0.0571021
0.0618815
0.0603059
0.0716847
0.0711667
0.0904686
0.0898698
0.122171
0.123902
0.203164
0.228575
0.372407
0.819653
2.30692
2.00439
1.77387
1.60122
1.44454
1.33886
1.22441
1.15829
1.07036
1.02668
0.957845
0.935243
0.89011
0.87928
0.85288
0.845307
0.820813
0.809766
0.774569
0.757354
0.713544
0.691991
0.638763
0.607349
0.540808
0.496901
0.408843
0.340497
0.268238
0.217912
0.180682
0.165788
0.166294
0.179551
0.204155
0.231126
0.304343
0.425047
0.454449
0.439906
0.345188
0.227285
0.163206
0.149686
0.149936
0.173437
0.189863
0.216749
0.227309
0.234009
0.231202
0.23149
0.22806
0.225848
0.217886
0.200962
0.161275
0.143637
0.134887
0.131656
0.137765
0.153576
0.150937
0.138839
0.143196
0.177363
0.192593
0.181785
0.127841
0.0851006
0.0687683
0.0590883
0.0549279
0.0541137
0.0552288
0.0591674
0.0646959
0.0835383
0.115694
0.161536
0.178248
0.200996
0.205012
0.215307
0.214947
0.213335
0.175017
0.146855
0.114837
0.106829
0.0988398
0.0986711
0.0979808
0.101047
0.109901
0.182119
0.286346
0.316408
0.305789
0.247237
0.191806
0.178944
0.166293
0.173815
0.169888
0.178746
0.177278
0.18726
0.187857
0.194462
0.19389
0.196542
0.19504
0.191783
0.171801
0.1514
0.137297
0.135597
0.135672
0.138193
0.138106
0.136622
0.131038
0.110438
0.0787232
0.0513106
0.0377414
0.0268664
0.0228482
0.0180333
0.017232
0.0155336
0.01539
0.0138965
0.0139554
0.0131588
0.0137377
0.0135832
0.0143468
0.0139785
0.0143329
0.0154783
0.0208511
0.0422705
0.0958539
0.2527
0.31417
0.318357
0.22779
0.166217
0.119642
0.114026
0.103565
0.0994828
0.101805
0.0935027
0.0998294
0.0907483
0.102891
0.0922655
0.0986995
0.0912475
0.0968338
0.0976176
0.106318
0.115941
0.11889
0.117832
0.110333
0.104384
0.107532
0.107043
0.120042
0.120869
0.144219
0.158951
0.174294
0.178338
0.173633
0.169944
0.151856
0.139998
0.114342
0.086723
0.0621293
0.0479892
0.0478271
0.0475017
0.0588956
0.0605455
0.0846751
0.0877499
0.122204
0.119989
0.156693
0.151615
0.187547
0.215157
0.249073
0.437606
1.44271
1.35163
1.19162
1.13073
1.01013
0.967216
0.87621
0.845277
0.774301
0.749479
0.689658
0.67082
0.625183
0.615279
0.588022
0.587439
0.57728
0.580111
0.568262
0.561334
0.530299
0.50889
0.457091
0.415307
0.344936
0.285081
0.228027
0.191247
0.160211
0.142604
0.125608
0.112913
0.105826
0.106824
0.111605
0.127876
0.150074
0.205609
0.323395
0.408528
0.403571
0.389802
0.328821
0.295129
0.248674
0.23825
0.238318
0.244738
0.247952
0.250264
0.249744
0.245057
0.232918
0.227733
0.21604
0.192041
0.141291
0.111829
0.107376
0.111836
0.111625
0.114361
0.118122
0.117893
0.119252
0.129985
0.17064
0.184504
0.180306
0.141452
0.0951878
0.0739118
0.0662814
0.0661606
0.0669882
0.0739945
0.0812685
0.113446
0.130689
0.163233
0.172581
0.193293
0.199386
0.214167
0.213423
0.210652
0.17084
0.147618
0.112715
0.107004
0.0973611
0.100084
0.0956069
0.095319
0.0886818
0.0923207
0.108598
0.224108
0.266208
0.28452
0.260631
0.238728
0.190732
0.186237
0.178128
0.181807
0.180048
0.184547
0.184038
0.1854
0.182099
0.177704
0.159524
0.14424
0.131028
0.127708
0.127217
0.13247
0.138414
0.140449
0.138682
0.13221
0.111309
0.0765055
0.048933
0.0329204
0.0250521
0.0199706
0.0185738
0.016089
0.0158695
0.0148106
0.0152359
0.0142346
0.0147657
0.0139283
0.0149611
0.014215
0.016111
0.0156036
0.0185454
0.018335
0.0219865
0.0276901
0.0545486
0.104302
0.257956
0.297338
0.353816
0.272398
0.228208
0.137368
0.141159
0.110378
0.133981
0.112003
0.121967
0.107245
0.108218
0.102402
0.103469
0.103757
0.107009
0.111586
0.11561
0.116499
0.116115
0.11276
0.115281
0.112872
0.116676
0.132526
0.150657
0.196371
0.18731
0.213002
0.187478
0.193616
0.157621
0.150774
0.110083
0.0999059
0.0653466
0.0535347
0.0401772
0.0387223
0.0412963
0.0447222
0.065373
0.0739428
0.112013
0.120088
0.158729
0.162544
0.183586
0.18443
0.187887
0.213619
0.220676
0.281838
0.628849
0.604368
0.552744
0.530586
0.485116
0.46839
0.43209
0.419228
0.389148
0.377316
0.349272
0.338554
0.314331
0.307206
0.290665
0.287359
0.278394
0.278058
0.273682
0.270898
0.260149
0.251341
0.23131
0.210432
0.184642
0.163902
0.147075
0.135175
0.124121
0.116294
0.10506
0.0970569
0.0889539
0.0877058
0.0876513
0.0927101
0.0994405
0.116028
0.14257
0.234858
0.318597
0.36306
0.355301
0.350999
0.333294
0.323383
0.303373
0.293197
0.281067
0.275309
0.267122
0.24993
0.233116
0.216163
0.179803
0.143338
0.118924
0.0999338
0.0930123
0.0959767
0.0972078
0.0936182
0.0911567
0.0929264
0.0950407
0.100709
0.115261
0.159992
0.178343
0.179636
0.166413
0.126411
0.0954766
0.0893618
0.088974
0.0961528
0.101757
0.122751
0.132221
0.151455
0.163188
0.189312
0.202268
0.212786
0.212097
0.201964
0.156877
0.128
0.101255
0.0994993
0.0972247
0.101686
0.0996205
0.0974635
0.0809728
0.0767665
0.0763816
0.0897839
0.14245
0.233027
0.244395
0.250336
0.238487
0.220261
0.191913
0.185892
0.173774
0.169814
0.160982
0.156798
0.147481
0.138729
0.13054
0.130516
0.13055
0.137028
0.143194
0.147167
0.145881
0.142217
0.131001
0.102156
0.0646466
0.0424871
0.0289275
0.022478
0.0188879
0.0173279
0.0168609
0.0157933
0.0156208
0.0146946
0.0147638
0.0139859
0.0143477
0.0132045
0.0137855
0.0129541
0.0147685
0.0146082
0.0183641
0.0178674
0.024518
0.0249483
0.0404306
0.0557614
0.153461
0.21539
0.364678
0.329203
0.369638
0.260214
0.265028
0.182482
0.174967
0.134231
0.125458
0.117587
0.11425
0.117595
0.1177
0.122211
0.122563
0.12393
0.122843
0.119142
0.114719
0.114756
0.115904
0.131929
0.139677
0.180099
0.176735
0.197025
0.17428
0.173569
0.139267
0.129242
0.0959874
0.0879254
0.0646606
0.0574101
0.0393831
0.0354973
0.0333395
0.035359
0.0443581
0.0554008
0.0983952
0.116077
0.169129
0.178907
0.210301
0.210203
0.216554
0.214926
0.209356
0.218773
0.219371
0.235779
0.301589
0.292218
0.280636
0.268972
0.256652
0.248994
0.23746
0.231466
0.220606
0.214427
0.204178
0.197152
0.187784
0.182132
0.174979
0.170158
0.164315
0.161203
0.157938
0.154871
0.150764
0.146038
0.142036
0.136016
0.129361
0.123303
0.118338
0.115255
0.108849
0.104363
0.0957161
0.0883631
0.0804275
0.0793479
0.0788747
0.0815831
0.0842519
0.0920655
0.0998151
0.119759
0.153209
0.229821
0.281867
0.312106
0.314628
0.313447
0.307422
0.29472
0.28182
0.265421
0.247194
0.219564
0.181911
0.147898
0.127255
0.10679
0.0898236
0.0846629
0.0854254
0.0887167
0.0889615
0.0858417
0.076502
0.0750453
0.0779667
0.0930766
0.101642
0.119849
0.150659
0.174587
0.17654
0.175177
0.160951
0.139798
0.116732
0.115065
0.115619
0.124189
0.130686
0.146054
0.172877
0.198076
0.208696
0.209798
0.203959
0.17056
0.132034
0.102234
0.0839634
0.0781297
0.0781126
0.0916372
0.100617
0.102267
0.0882669
0.0719234
0.0638329
0.0642592
0.0703262
0.0948346
0.156216
0.20949
0.219442
0.219227
0.211567
0.204231
0.18695
0.180639
0.166769
0.160834
0.15272
0.152198
0.151843
0.154412
0.154042
0.154751
0.152509
0.147651
0.136553
0.113638
0.0756543
0.0504865
0.0339553
0.025224
0.019791
0.0176989
0.0163691
0.0164073
0.0161124
0.0164375
0.0163664
0.0161103
0.0159742
0.0152717
0.0147532
0.0130586
0.0125887
0.0113013
0.0115393
0.0111366
0.0119921
0.0120389
0.0135947
0.0140183
0.0172761
0.0225047
0.0429119
0.075571
0.188652
0.261989
0.324585
0.302778
0.278741
0.246822
0.215041
0.173232
0.142694
0.134389
0.125316
0.126023
0.123798
0.125651
0.122932
0.123171
0.118925
0.117325
0.113522
0.116265
0.118566
0.135937
0.140291
0.151314
0.143311
0.141887
0.125357
0.117588
0.0970121
0.0894415
0.0717444
0.0645864
0.0488615
0.0386915
0.0309064
0.0300783
0.0313615
0.0365115
0.0701354
0.0930016
0.171558
0.194327
0.258677
0.263494
0.268116
0.26154
0.251685
0.246028
0.234898
0.237642
0.227829
0.231313
0.217867
0.210775
0.205905
0.197832
0.193419
0.186893
0.182571
0.176495
0.171961
0.166322
0.161403
0.155378
0.150132
0.144749
0.140194
0.135577
0.131275
0.127695
0.125192
0.1228
0.120489
0.11806
0.116922
0.114897
0.111641
0.109103
0.107267
0.105049
0.10095
0.0956867
0.0876154
0.0810901
0.0754083
0.0736665
0.0730512
0.073687
0.0755094
0.0814779
0.0859562
0.0911368
0.101357
0.117153
0.143345
0.179732
0.213927
0.238639
0.245251
0.243394
0.234704
0.217588
0.190969
0.145846
0.11217
0.0970244
0.0874113
0.0783762
0.0751436
0.0767757
0.0833077
0.0871318
0.0861892
0.0796468
0.0700494
0.067183
0.0666256
0.0719624
0.0816587
0.0952431
0.105805
0.141906
0.160687
0.171741
0.171622
0.170217
0.164769
0.154302
0.146958
0.144108
0.147484
0.170841
0.195013
0.202323
0.202497
0.195529
0.16604
0.132734
0.108477
0.0887231
0.0754008
0.0668525
0.0651417
0.0743212
0.0953463
0.101629
0.0956519
0.0731874
0.0596286
0.0558978
0.056053
0.0591227
0.068689
0.0940069
0.136129
0.174148
0.187802
0.190322
0.187044
0.18458
0.178659
0.175202
0.16882
0.167047
0.162322
0.159303
0.149373
0.141172
0.126021
0.102558
0.0739983
0.0527504
0.0370749
0.0278064
0.0213728
0.0181862
0.0162074
0.0161954
0.0159641
0.0165625
0.0168208
0.0173842
0.0170527
0.0168405
0.016345
0.0162018
0.0160438
0.0157506
0.01457
0.0132382
0.0123012
0.0116683
0.0111471
0.0109663
0.0103948
0.0104111
0.0104909
0.0114952
0.01426
0.0233087
0.0441495
0.118089
0.159974
0.255234
0.252946
0.25778
0.239371
0.229469
0.19613
0.176492
0.14899
0.139648
0.129059
0.127892
0.123611
0.122701
0.118232
0.117747
0.116564
0.120927
0.126996
0.138059
0.13717
0.137688
0.130209
0.124767
0.108409
0.100682
0.084457
0.076548
0.0611913
0.0476841
0.0340437
0.0288582
0.0283035
0.0289867
0.0391987
0.0577859
0.142387
0.183674
0.295828
0.309916
0.3131
0.304733
0.28751
0.275195
0.256188
0.2518
0.239817
0.245333
0.24542
0.240759
0.188513
0.183782
0.180696
0.174337
0.171044
0.165197
0.161682
0.155928
0.152059
0.14702
0.14276
0.137561
0.132491
0.12752
0.12295
0.118603
0.11449
0.111524
0.109462
0.108078
0.107271
0.10683
0.106713
0.106192
0.104429
0.102143
0.100421
0.0971552
0.0911138
0.0837537
0.07787
0.0739806
0.0719301
0.0706187
0.069584
0.0692848
0.0694336
0.0720931
0.0760716
0.07889
0.0817157
0.085075
0.0949767
0.103863
0.115362
0.132402
0.141088
0.140777
0.136019
0.129316
0.115144
0.0932149
0.0803234
0.0753291
0.0702855
0.0673287
0.0672106
0.0745927
0.0830686
0.0848743
0.0825628
0.0740332
0.0670089
0.0658937
0.0659767
0.0698762
0.073837
0.0841983
0.0895401
0.100592
0.116991
0.146962
0.159536
0.166606
0.16868
0.171265
0.175601
0.182935
0.191825
0.19798
0.199623
0.198643
0.190227
0.156852
0.131459
0.111818
0.0968046
0.0834357
0.0727332
0.0637253
0.0591404
0.0606912
0.0830936
0.101112
0.102706
0.0830527
0.0605313
0.051153
0.0497224
0.0513531
0.0564888
0.0624503
0.0708548
0.087503
0.108278
0.125867
0.140763
0.147627
0.147983
0.146771
0.142709
0.135774
0.124807
0.115352
0.100378
0.0840354
0.0670706
0.0512708
0.0386609
0.0296305
0.0231456
0.0195393
0.0172156
0.0161893
0.0158819
0.0164721
0.0171484
0.0188663
0.0192711
0.0203086
0.0202412
0.0201962
0.0190009
0.0184947
0.0174908
0.0178644
0.0172211
0.017454
0.0167337
0.0166364
0.0164607
0.0158574
0.0160495
0.0150121
0.0153256
0.0145903
0.0160666
0.0188503
0.0264754
0.0550635
0.0801606
0.150079
0.181801
0.23319
0.229041
0.226568
0.213571
0.196435
0.180829
0.165095
0.152003
0.141322
0.134307
0.130416
0.130085
0.130789
0.134573
0.139741
0.141491
0.141785
0.137937
0.132987
0.119206
0.110955
0.0936288
0.0847032
0.0687258
0.0514431
0.0365783
0.028981
0.0265536
0.0263736
0.0281266
0.0355342
0.0763425
0.130461
0.299266
0.362802
0.368463
0.359728
0.330269
0.31314
0.272365
0.261606
0.235085
0.23481
0.230187
0.232831
0.245193
0.256879
0.161433
0.158831
0.156547
0.151931
0.148447
0.142773
0.139702
0.134475
0.130364
0.124543
0.119226
0.113147
0.107588
0.102648
0.0993064
0.0968509
0.0954652
0.0943624
0.0939314
0.0935174
0.0933628
0.092402
0.0913491
0.0894999
0.0882772
0.0858578
0.0821796
0.0770716
0.0724423
0.0691484
0.068047
0.0682038
0.0697217
0.0702396
0.0696766
0.0685722
0.0685171
0.070217
0.0725252
0.0737677
0.0747523
0.0769334
0.0810147
0.0824186
0.0831822
0.0869057
0.0899172
0.0894262
0.0865509
0.0844479
0.0790424
0.0721708
0.0692761
0.0675893
0.0641925
0.0615973
0.061249
0.0712855
0.0849309
0.0877643
0.0836579
0.0766569
0.0712485
0.0703753
0.0691827
0.0700564
0.071089
0.0748184
0.0764876
0.0800982
0.0836315
0.0944938
0.105989
0.127267
0.143313
0.15929
0.170192
0.179678
0.183292
0.183752
0.182525
0.167579
0.144217
0.127633
0.114801
0.103625
0.0927399
0.0823494
0.0720835
0.0628939
0.0569075
0.0545395
0.0600424
0.0838666
0.100183
0.10263
0.0889267
0.0634612
0.049742
0.0454476
0.0453932
0.0484117
0.0575466
0.066195
0.0731032
0.0791153
0.0866732
0.0904013
0.0905423
0.0897807
0.0869561
0.0832283
0.0764231
0.0699474
0.0610034
0.0497853
0.0397345
0.0309415
0.024621
0.0212563
0.0188701
0.0174076
0.0174201
0.0181124
0.0199459
0.0233922
0.0266058
0.0282622
0.0283524
0.0279063
0.0263354
0.0253287
0.0229673
0.0220056
0.0190084
0.0192265
0.0180743
0.0199549
0.0189013
0.0214244
0.02026
0.0234432
0.0224879
0.026237
0.0253982
0.027685
0.0271448
0.0275606
0.0300789
0.0421966
0.0535318
0.0929445
0.113255
0.16756
0.190254
0.20791
0.205215
0.196296
0.189138
0.176301
0.171288
0.161303
0.158628
0.152884
0.152655
0.150393
0.150765
0.149052
0.144665
0.139497
0.127772
0.119354
0.101032
0.0898599
0.0726433
0.0537366
0.0378252
0.0294747
0.025343
0.0243917
0.0251732
0.0275429
0.0380341
0.0718742
0.208571
0.352965
0.43343
0.424212
0.387516
0.362042
0.300041
0.280986
0.241891
0.2322
0.208369
0.201862
0.198351
0.200582
0.213457
0.252078
0.114958
0.113253
0.110845
0.108261
0.105502
0.103055
0.100678
0.0981921
0.0952035
0.0924677
0.0897695
0.0874165
0.0854653
0.0837451
0.082992
0.0819892
0.0813087
0.0800104
0.0789892
0.0772598
0.0759054
0.0745058
0.073838
0.0732357
0.0725643
0.0711718
0.0691104
0.0667893
0.0650194
0.0642062
0.0640865
0.0657632
0.0715239
0.0741172
0.0737974
0.0695951
0.0669398
0.0664194
0.0665224
0.0669014
0.0692283
0.07174
0.0723874
0.0721838
0.0726915
0.0760777
0.076354
0.0752112
0.0747662
0.0744892
0.0697953
0.0670277
0.0666709
0.0652411
0.0607911
0.0592573
0.059279
0.0648456
0.0795244
0.0901926
0.0927638
0.0929768
0.0880861
0.0868837
0.0859689
0.0848999
0.0796283
0.077123
0.0773999
0.0786097
0.0829647
0.087159
0.0922583
0.101321
0.112683
0.127066
0.136707
0.1399
0.139946
0.13985
0.13916
0.134034
0.128403
0.120056
0.111071
0.101468
0.0914517
0.0813364
0.0715912
0.0623731
0.0546146
0.0501166
0.0487172
0.050571
0.064556
0.0796092
0.0871359
0.0889828
0.0845693
0.0639311
0.0490089
0.0431766
0.0429603
0.0442294
0.0495516
0.057105
0.0638349
0.0675035
0.0677353
0.0675724
0.0659149
0.0637452
0.0582674
0.0501728
0.0398806
0.0310542
0.0255181
0.022642
0.0201173
0.0195394
0.0200472
0.0217662
0.0263379
0.0318963
0.040537
0.0459245
0.0486012
0.0481201
0.0471626
0.0432772
0.0389871
0.0339464
0.0296953
0.0263275
0.0215436
0.0198035
0.0162575
0.0164375
0.0154247
0.017717
0.0168892
0.0208609
0.0199377
0.0249452
0.0239241
0.0287051
0.027419
0.0309976
0.0306377
0.0372456
0.0413185
0.0597543
0.0703359
0.103147
0.118412
0.155944
0.175401
0.181905
0.180774
0.175432
0.1719
0.164608
0.162485
0.157124
0.154687
0.151496
0.146641
0.141433
0.130208
0.121781
0.103703
0.0901493
0.0694119
0.0528094
0.0367331
0.0290492
0.0241632
0.0230041
0.0230106
0.0239711
0.0285439
0.0412147
0.0845759
0.214359
0.454902
0.479795
0.473781
0.425524
0.364404
0.317865
0.281135
0.255831
0.233529
0.219302
0.199391
0.182468
0.170763
0.168599
0.171071
0.208636
0.0973698
0.0963513
0.0953891
0.094219
0.0928766
0.0914816
0.0896474
0.0879035
0.0859713
0.0844807
0.0830879
0.0820161
0.0810475
0.0799544
0.0785739
0.0770285
0.0756717
0.074774
0.0743606
0.0742747
0.0743521
0.0744482
0.0744354
0.0740267
0.0723626
0.0698704
0.0669448
0.0643291
0.0627458
0.0622721
0.0623433
0.0635232
0.0678436
0.0723559
0.0742666
0.0742995
0.0726601
0.0709556
0.0704381
0.0707737
0.0724818
0.0727675
0.0724621
0.0724566
0.0737478
0.0742533
0.073971
0.0728754
0.0692949
0.0655859
0.0646828
0.0648698
0.064135
0.0598847
0.0575813
0.0574094
0.0580208
0.0597175
0.0680551
0.0805621
0.0871797
0.0883901
0.0879146
0.0878826
0.0904781
0.0978218
0.0982076
0.0941993
0.0847482
0.082626
0.0837495
0.0873086
0.0942623
0.105747
0.117248
0.128072
0.136052
0.142367
0.147543
0.148917
0.148606
0.146741
0.134437
0.115957
0.103903
0.0936488
0.0839226
0.0764916
0.0700114
0.0636148
0.0558268
0.0495017
0.04575
0.044926
0.0454843
0.0502033
0.0591623
0.0642474
0.0647979
0.0630975
0.0567085
0.0472902
0.0400218
0.0367891
0.0365975
0.037236
0.0401053
0.0414877
0.0415624
0.0412759
0.0401475
0.0370678
0.0313299
0.0272265
0.0244592
0.0221572
0.0211751
0.0214636
0.0231175
0.0273243
0.0366967
0.0479304
0.0636792
0.0787817
0.0915901
0.0943447
0.094088
0.0896958
0.0848079
0.0728334
0.0658735
0.0516307
0.0455201
0.0357819
0.0314707
0.0251822
0.0206143
0.0175746
0.0142313
0.0134537
0.0120433
0.0129704
0.0127952
0.0153517
0.0156823
0.0197345
0.0208565
0.0250624
0.0264599
0.0296501
0.0315777
0.0379295
0.0432399
0.0570998
0.0671988
0.0885127
0.105817
0.128895
0.140351
0.1496
0.151119
0.149982
0.147435
0.144223
0.137617
0.132026
0.118213
0.107194
0.0905559
0.0761351
0.0577553
0.0443472
0.0328329
0.0266725
0.0219585
0.0211181
0.0210643
0.021899
0.0248567
0.0328138
0.0502411
0.0983393
0.266966
0.501689
0.554486
0.518414
0.459388
0.380372
0.350457
0.292183
0.276243
0.244077
0.236337
0.218345
0.211144
0.186523
0.175862
0.164191
0.163887
0.167029
0.100311
0.099642
0.0977371
0.0965521
0.093902
0.092259
0.0890875
0.0868213
0.0841738
0.0819977
0.0798624
0.0782959
0.0774353
0.0770772
0.0770811
0.0771541
0.0777419
0.077871
0.0780303
0.0779551
0.0778376
0.0773831
0.0755229
0.0721023
0.0683305
0.0641332
0.0602614
0.0571598
0.0554557
0.0548843
0.0549086
0.0552302
0.0564375
0.0625117
0.0723672
0.0817955
0.0882443
0.0913329
0.0926623
0.0931079
0.092572
0.0885079
0.0837806
0.0797626
0.0750078
0.0695024
0.063865
0.0597121
0.057999
0.0579278
0.0579803
0.0567121
0.055957
0.0559735
0.0562714
0.0574427
0.060175
0.0624987
0.0643209
0.064391
0.0641909
0.0645389
0.0665707
0.0682326
0.070813
0.0776281
0.0893388
0.0932922
0.0949111
0.0938838
0.0927199
0.09267
0.0938264
0.0986764
0.107
0.115724
0.120796
0.122794
0.121674
0.114398
0.104284
0.0965594
0.0919266
0.0906045
0.0904345
0.0891047
0.0820203
0.0757834
0.0729106
0.0694818
0.0621246
0.0533129
0.0468972
0.0443137
0.0441126
0.0443574
0.0442509
0.0437242
0.0441618
0.0451445
0.0448786
0.0430981
0.0387212
0.0355264
0.0331784
0.0317129
0.0303815
0.0297203
0.0290749
0.0275694
0.0256851
0.0241388
0.0225478
0.0218424
0.0220498
0.0232577
0.0268158
0.0355614
0.0505121
0.075344
0.102401
0.132155
0.163437
0.184155
0.188913
0.186929
0.180797
0.162012
0.144401
0.11918
0.104352
0.0826946
0.0714959
0.0554254
0.0481252
0.0370542
0.0321874
0.0247761
0.0211783
0.0171649
0.0146613
0.0132313
0.0122243
0.0118031
0.0117426
0.0120733
0.0126305
0.0140312
0.01539
0.0176623
0.0192651
0.0225794
0.0251129
0.0303599
0.035702
0.0443398
0.052777
0.0648284
0.073036
0.0827522
0.0883622
0.0906463
0.0899239
0.0875118
0.0819603
0.0742885
0.0654797
0.0553042
0.0451305
0.0365046
0.0284765
0.0236551
0.0205331
0.0193531
0.019254
0.0199966
0.0221977
0.0296517
0.0446366
0.0694871
0.125266
0.313176
0.5626
0.617359
0.585917
0.482806
0.442029
0.365125
0.339163
0.283338
0.26845
0.239928
0.235374
0.219734
0.214409
0.196007
0.190552
0.177062
0.171796
0.16944
0.0694849
0.0687137
0.0670799
0.0660538
0.0639353
0.0624449
0.0604367
0.0589143
0.0573691
0.056585
0.0562381
0.0562342
0.0563194
0.0568989
0.0577532
0.0586319
0.0590231
0.0592221
0.059262
0.0592599
0.0591054
0.0582981
0.0570116
0.0557047
0.0542579
0.0529098
0.0518279
0.0510677
0.0502029
0.0490789
0.0478017
0.0469994
0.0468767
0.0482319
0.0546516
0.0634009
0.0712778
0.0775557
0.0807202
0.0820481
0.0819522
0.0789717
0.0715305
0.0636983
0.0567014
0.0517151
0.0492513
0.0484002
0.0483789
0.0486869
0.0490094
0.049409
0.0519631
0.0579719
0.0642705
0.0702803
0.0765984
0.0790955
0.0790807
0.0776593
0.0737381
0.0722242
0.0720974
0.072194
0.0693498
0.0664489
0.0670983
0.0707093
0.0814762
0.0856799
0.0896203
0.090814
0.0932013
0.0959073
0.099579
0.10073
0.100695
0.0971374
0.0906559
0.0859914
0.0843592
0.0843806
0.0858975
0.0874395
0.0877435
0.0860126
0.0851306
0.0849913
0.0850132
0.08446
0.0779679
0.0643081
0.052527
0.0446614
0.0403353
0.0376858
0.035935
0.0339105
0.0318331
0.0297908
0.0289011
0.0287121
0.0283246
0.0276149
0.0264612
0.0255497
0.0243323
0.0236429
0.023196
0.0221253
0.0212672
0.0213833
0.0222644
0.0251605
0.0329673
0.0461967
0.0710592
0.115288
0.163238
0.216112
0.275382
0.319751
0.355147
0.359693
0.356094
0.342103
0.309056
0.26409
0.22528
0.186359
0.15644
0.126654
0.106179
0.0850373
0.0720119
0.0575586
0.0499719
0.0402367
0.0354665
0.0287643
0.024831
0.0202139
0.0172621
0.0146752
0.0130918
0.0122773
0.0116909
0.0116394
0.0117285
0.0121819
0.0127231
0.013997
0.0152736
0.0169405
0.0196011
0.0225514
0.0259993
0.0308859
0.0347512
0.0387339
0.0421984
0.0431657
0.042859
0.0417788
0.0393219
0.035458
0.0315166
0.0266256
0.0230792
0.0203745
0.0187536
0.0181454
0.0182669
0.0190947
0.0219377
0.0285675
0.0414778
0.0760489
0.110862
0.181117
0.357706
0.652101
0.675929
0.65666
0.508471
0.469705
0.434742
0.360474
0.330071
0.266855
0.260098
0.239482
0.239158
0.225446
0.221716
0.20921
0.210304
0.2066
0.198519
0.181205
0.0628195
0.0625268
0.0617544
0.0601852
0.0590539
0.0571115
0.0548295
0.0536708
0.0535305
0.0536264
0.0547647
0.0565418
0.0581904
0.0590288
0.0594113
0.0596281
0.0597572
0.0602652
0.0607768
0.06243
0.0636696
0.0650216
0.0666014
0.0670765
0.0678221
0.0683632
0.0690524
0.0689755
0.0684418
0.0674136
0.062858
0.0569972
0.0526761
0.050389
0.0497805
0.0499058
0.0503558
0.0507118
0.0513238
0.0537601
0.0561032
0.0575569
0.0581173
0.0582099
0.0573151
0.0546747
0.0521288
0.0497385
0.0482738
0.0479152
0.048576
0.0518572
0.0650029
0.0854864
0.106704
0.122851
0.139995
0.151871
0.153399
0.15213
0.146848
0.139608
0.132443
0.114041
0.090682
0.0737144
0.0629504
0.0589699
0.0589146
0.0603661
0.0663982
0.0712712
0.0741547
0.0743895
0.0737441
0.0705942
0.0676167
0.0658674
0.0657752
0.0676239
0.0694052
0.0718363
0.0756509
0.0811206
0.0926889
0.114373
0.131132
0.13729
0.137004
0.134272
0.121091
0.0962217
0.0736017
0.0575241
0.0473579
0.0417971
0.0381219
0.035065
0.031849
0.0298396
0.0279979
0.0265393
0.0248341
0.0239299
0.0231671
0.0218409
0.0204554
0.0203031
0.02057
0.0217314
0.024836
0.0320206
0.0450809
0.0711311
0.113379
0.165965
0.250632
0.347988
0.422261
0.490827
0.526049
0.530922
0.525762
0.505876