/*--------------------------------*- C++ -*----------------------------------*\
| =========                 |                                                 |
| \\      /  F ield         | OpenFOAM: The Open Source CFD Toolbox           |
|  \\    /   O peration     | Version:  2.4.0                                 |
|   \\  /    A nd           | Web:      www.OpenFOAM.org                      |
|    \\/     M anipulation  |                                                 |
\*---------------------------------------------------------------------------*/
FoamFile
{
    version     2.0;
    format      ascii;
    class       volSymmTensorField;
    location    "1.45";
    object      UPrime2Mean;
}
// * * * * * * * * * * * * * * * * * * * * * * * * * * * * * * * * * * * * * //

dimensions      [0 2 -2 0 0 0 0];

internalField   nonuniform List<symmTensor> 
8800
(
(0.00119209 6.35594e-05 0 0.000133186 0 0)
(0.0222315 -0.000863243 0 5.02214e-05 0 0)
(0.0435927 -8.09032e-05 0 1.33652e-05 0 0)
(0.0551543 0.000116745 0 6.95655e-06 0 0)
(0.0625136 7.65519e-05 0 5.60557e-06 0 0)
(0.0700719 2.69707e-05 0 7.36168e-06 0 0)
(0.0739304 -9.49736e-06 0 8.9539e-06 0 0)
(0.0777995 -6.73112e-05 0 1.17981e-05 0 0)
(0.0808299 -8.56518e-05 0 1.25382e-05 0 0)
(0.0825852 -0.000120848 0 1.57343e-05 0 0)
(0.0857673 -0.000130799 0 1.59127e-05 0 0)
(0.0864747 -0.000173422 0 1.97911e-05 0 0)
(0.0899439 -0.000195842 0 1.91732e-05 0 0)
(0.090637 -0.00023276 0 2.37221e-05 0 0)
(0.0951827 -0.000319667 0 2.28079e-05 0 0)
(0.0963091 -0.000242346 0 2.90011e-05 0 0)
(0.107026 -0.000912996 0 3.217e-05 0 0)
(0.10531 0.00107209 0 8.52519e-05 0 0)
(0.170954 -0.0117567 0 0.00121398 0 0)
(0.177793 0.0200827 0 0.00399109 0 0)
(0.00708804 0.00184081 0 0.000810734 0 0)
(0.00164898 -0.000845922 0 0.0010722 0 0)
(0.0128104 -0.00141242 0 0.000459071 0 0)
(0.0212413 -0.00163979 0 0.000186321 0 0)
(0.0313029 -0.00154859 0 0.000116366 0 0)
(0.0466079 -0.00144223 0 0.000102503 0 0)
(0.0600536 -0.00177902 0 0.000120636 0 0)
(0.071063 -0.00133503 0 9.1874e-05 0 0)
(0.0901615 -0.00190678 0 0.000123103 0 0)
(0.0907751 -0.0014562 0 0.000104024 0 0)
(0.117292 -0.00206351 0 0.000140004 0 0)
(0.108209 -0.00182234 0 0.000133394 0 0)
(0.141784 -0.00266594 0 0.000182636 0 0)
(0.12491 -0.00238551 0 0.000178251 0 0)
(0.167006 -0.00363064 0 0.000263204 0 0)
(0.140993 -0.0037214 0 0.000294833 0 0)
(0.200498 -0.00406804 0 0.000414431 0 0)
(0.165817 -0.00911518 0 0.00103581 0 0)
(0.279154 -0.00534936 0 0.000829746 0 0)
(0.269593 -0.0395232 0 0.0143747 0 0)
(0.0162943 0.000685556 0 0.000539731 0 0)
(0.0143457 -2.96556e-05 0 0.0012438 0 0)
(0.039907 -7.81751e-05 0 0.000807019 0 0)
(0.0432447 -0.00127083 0 0.000457663 0 0)
(0.060709 -0.00145433 0 0.000384026 0 0)
(0.0709122 -0.00197208 0 0.000378253 0 0)
(0.0945292 -0.00393379 0 0.000445853 0 0)
(0.100288 -0.00273443 0 0.000313538 0 0)
(0.142972 -0.00572313 0 0.000428401 0 0)
(0.129621 -0.00382139 0 0.000291285 0 0)
(0.196379 -0.0069469 0 0.000444459 0 0)
(0.158067 -0.00513219 0 0.000352356 0 0)
(0.251315 -0.00930642 0 0.000615669 0 0)
(0.182569 -0.00660186 0 0.000507921 0 0)
(0.310906 -0.0133175 0 0.00104294 0 0)
(0.196142 -0.00808157 0 0.000868548 0 0)
(0.380777 -0.0182689 0 0.00185433 0 0)
(0.206743 -0.0106378 0 0.00205763 0 0)
(0.478211 -0.0251179 0 0.00432226 0 0)
(0.25634 -0.0329511 0 0.0172676 0 0)
(0.0739652 -0.000860358 0 0.000412146 0 0)
(0.0841503 -0.000919941 0 0.00096194 0 0)
(0.136521 -0.00165195 0 0.000784206 0 0)
(0.14099 -0.00279459 0 0.000567167 0 0)
(0.178218 -0.00201613 0 0.0005893 0 0)
(0.184761 -0.00307706 0 0.000643709 0 0)
(0.2286 -0.00610968 0 0.000856222 0 0)
(0.223879 -0.00366392 0 0.000654288 0 0)
(0.292383 -0.0106919 0 0.00101745 0 0)
(0.259093 -0.0060946 0 0.000666452 0 0)
(0.363766 -0.0140522 0 0.00112929 0 0)
(0.291033 -0.00916967 0 0.000822567 0 0)
(0.440512 -0.0192357 0 0.00157268 0 0)
(0.318754 -0.0123938 0 0.00115218 0 0)
(0.526015 -0.0275211 0 0.00260423 0 0)
(0.331703 -0.015149 0 0.00183577 0 0)
(0.624747 -0.0371888 0 0.00420271 0 0)
(0.325238 -0.018497 0 0.00414788 0 0)
(0.753999 -0.045803 0 0.00730325 0 0)
(0.311542 -0.0328566 0 0.0227719 0 0)
(0.281257 -0.00274879 0 0.000594622 0 0)
(0.279467 -0.00237084 0 0.00106235 0 0)
(0.314885 -0.00637759 0 0.00129638 0 0)
(0.311907 -0.00543492 0 0.00112459 0 0)
(0.339415 -0.00534405 0 0.00133643 0 0)
(0.337061 -0.00666204 0 0.0012281 0 0)
(0.371171 -0.0102546 0 0.00190614 0 0)
(0.359901 -0.00682445 0 0.00141835 0 0)
(0.41658 -0.01651 0 0.00244878 0 0)
(0.384304 -0.00944382 0 0.00164998 0 0)
(0.465343 -0.0210416 0 0.00289303 0 0)
(0.405824 -0.0133783 0 0.00197987 0 0)
(0.512588 -0.0276558 0 0.00380532 0 0)
(0.42901 -0.0176335 0 0.00252777 0 0)
(0.562568 -0.038077 0 0.0055444 0 0)
(0.447054 -0.0218702 0 0.00343266 0 0)
(0.617044 -0.0509583 0 0.00808747 0 0)
(0.451917 -0.0270303 0 0.00617306 0 0)
(0.690083 -0.0639802 0 0.0126 0 0)
(0.431087 -0.0340758 0 0.0275501 0 0)
(0.336388 -0.00771903 0 0.00222644 0 0)
(0.28759 -0.00468199 0 0.0027551 0 0)
(0.287748 -0.0100592 0 0.00370625 0 0)
(0.261118 -0.00697161 0 0.0025564 0 0)
(0.268618 -0.0095041 0 0.00361597 0 0)
(0.256804 -0.00905354 0 0.00284096 0 0)
(0.257525 -0.0127634 0 0.00420984 0 0)
(0.249087 -0.00867366 0 0.00306742 0 0)
(0.26131 -0.0168312 0 0.00508138 0 0)
(0.252653 -0.0113215 0 0.00344499 0 0)
(0.266034 -0.0201952 0 0.00587552 0 0)
(0.257206 -0.0148179 0 0.00411606 0 0)
(0.266836 -0.0242139 0 0.00713929 0 0)
(0.271112 -0.018461 0 0.00497818 0 0)
(0.265042 -0.0301089 0 0.00963194 0 0)
(0.290639 -0.0230017 0 0.00623467 0 0)
(0.258085 -0.0366535 0 0.0135414 0 0)
(0.316733 -0.0288418 0 0.00939386 0 0)
(0.249792 -0.0417325 0 0.0220332 0 0)
(0.348059 -0.037395 0 0.0268596 0 0)
(0.14594 -0.0111833 0 0.00429707 0 0)
(0.131275 -0.011782 0 0.00610173 0 0)
(0.133506 -0.00827657 0 0.00592125 0 0)
(0.133705 -0.012548 0 0.00512859 0 0)
(0.130186 -0.0109808 0 0.00628203 0 0)
(0.137441 -0.0117584 0 0.00554725 0 0)
(0.130901 -0.0120813 0 0.00642767 0 0)
(0.136057 -0.0114895 0 0.0058747 0 0)
(0.138652 -0.0132737 0 0.00715424 0 0)
(0.143208 -0.0129125 0 0.0064614 0 0)
(0.142863 -0.0149644 0 0.00827914 0 0)
(0.152807 -0.0141238 0 0.00730084 0 0)
(0.146713 -0.0158578 0 0.00973333 0 0)
(0.166666 -0.0158898 0 0.00870517 0 0)
(0.150708 -0.015979 0 0.0123673 0 0)
(0.185059 -0.0181428 0 0.0106634 0 0)
(0.152834 -0.0140561 0 0.0166836 0 0)
(0.211562 -0.0202954 0 0.0154498 0 0)
(0.156012 -0.00629875 0 0.0264377 0 0)
(0.249812 -0.0198564 0 0.0391263 0 0)
(0.157602 -0.0130223 0 0.00523967 0 0)
(0.198677 -0.0221258 0 0.0105197 0 0)
(0.161813 -0.00925379 0 0.00780137 0 0)
(0.211841 -0.016322 0 0.00688673 0 0)
(0.18211 -0.0136125 0 0.00802974 0 0)
(0.208936 -0.0135119 0 0.00801357 0 0)
(0.205271 -0.0117717 0 0.00759578 0 0)
(0.213137 -0.0129822 0 0.00829938 0 0)
(0.222011 -0.0112517 0 0.00854652 0 0)
(0.221842 -0.0127663 0 0.00883052 0 0)
(0.238036 -0.0106718 0 0.00959394 0 0)
(0.230268 -0.0121955 0 0.010083 0 0)
(0.257059 -0.0085908 0 0.0108795 0 0)
(0.242089 -0.0122053 0 0.0117521 0 0)
(0.273793 -0.00468199 0 0.0134231 0 0)
(0.258171 -0.0115369 0 0.0141283 0 0)
(0.293775 0.00173268 0 0.0173486 0 0)
(0.280014 -0.00938839 0 0.0204302 0 0)
(0.31396 0.0151294 0 0.0270442 0 0)
(0.31043 -0.00178925 0 0.045707 0 0)
(0.296048 -0.0096251 0 0.00488745 0 0)
(0.332677 -0.0204968 0 0.0133143 0 0)
(0.287061 -0.0060694 0 0.00849933 0 0)
(0.296676 -0.0103989 0 0.00766038 0 0)
(0.326582 -0.00806869 0 0.00768855 0 0)
(0.27994 -0.00826209 0 0.00892299 0 0)
(0.36533 -0.00586651 0 0.00756544 0 0)
(0.277863 -0.00746672 0 0.00913341 0 0)
(0.385137 -0.00299647 0 0.00808321 0 0)
(0.284493 -0.00766985 0 0.0100759 0 0)
(0.398429 -0.000533755 0 0.00906887 0 0)
(0.295534 -0.00634519 0 0.0110986 0 0)
(0.415563 0.002738 0 0.0103084 0 0)
(0.309673 -0.00554132 0 0.0129639 0 0)
(0.43548 0.00776434 0 0.0120962 0 0)
(0.328975 -0.0036103 0 0.0153334 0 0)
(0.454448 0.015196 0 0.0150641 0 0)
(0.356752 0.000179129 0 0.0213159 0 0)
(0.474299 0.0293288 0 0.0226736 0 0)
(0.406704 0.00689303 0 0.0398633 0 0)
(0.332296 -0.00478787 0 0.00356909 0 0)
(0.365746 -0.00973892 0 0.0102801 0 0)
(0.350455 -0.00145134 0 0.00586466 0 0)
(0.298881 -0.00196962 0 0.00601811 0 0)
(0.376559 -0.00155837 0 0.00556113 0 0)
(0.287684 -0.00148208 0 0.00663662 0 0)
(0.392528 0.000508295 0 0.00528029 0 0)
(0.29055 -0.00120489 0 0.00700855 0 0)
(0.391238 0.00361858 0 0.00560977 0 0)
(0.298425 -0.000827772 0 0.00751048 0 0)
(0.401028 0.00511647 0 0.00629685 0 0)
(0.31474 0.00049713 0 0.00813604 0 0)
(0.411496 0.00819284 0 0.00698213 0 0)
(0.337345 0.00175015 0 0.00926445 0 0)
(0.422705 0.0125378 0 0.00785994 0 0)
(0.366525 0.00461233 0 0.0106796 0 0)
(0.437901 0.0186244 0 0.0092445 0 0)
(0.410612 0.0101884 0 0.0142299 0 0)
(0.460542 0.029619 0 0.0137169 0 0)
(0.501911 0.0173395 0 0.0261191 0 0)
(0.223758 -0.00158205 0 0.00250205 0 0)
(0.252898 -0.00189257 0 0.00623049 0 0)
(0.236575 0.00179344 0 0.00414842 0 0)
(0.213462 0.00330886 0 0.00379637 0 0)
(0.249871 0.00159885 0 0.00441516 0 0)
(0.214922 0.00310078 0 0.00440789 0 0)
(0.253145 0.00322995 0 0.00422622 0 0)
(0.22234 0.00420291 0 0.00478201 0 0)
(0.251397 0.00511538 0 0.00457473 0 0)
(0.233828 0.00538699 0 0.00518248 0 0)
(0.253161 0.00683989 0 0.00496382 0 0)
(0.251972 0.00680899 0 0.00553201 0 0)
(0.258975 0.00918122 0 0.00547305 0 0)
(0.272403 0.00912305 0 0.00612184 0 0)
(0.266155 0.0122695 0 0.00595495 0 0)
(0.298853 0.0129088 0 0.00689908 0 0)
(0.273705 0.0161361 0 0.00684576 0 0)
(0.338978 0.0199173 0 0.00875991 0 0)
(0.281164 0.0231966 0 0.00983391 0 0)
(0.418847 0.0297368 0 0.0162204 0 0)
(0.0971118 -0.000513045 0 0.00208892 0 0)
(0.107291 0.00137285 0 0.0045902 0 0)
(0.0953717 0.00208246 0 0.00368484 0 0)
(0.102723 0.00353055 0 0.00348497 0 0)
(0.104264 0.00198174 0 0.00382877 0 0)
(0.108366 0.00322739 0 0.00398129 0 0)
(0.108763 0.00219201 0 0.00382806 0 0)
(0.115686 0.00456423 0 0.00436815 0 0)
(0.109261 0.00312584 0 0.00393906 0 0)
(0.127188 0.00551907 0 0.0046205 0 0)
(0.109524 0.00402909 0 0.00416983 0 0)
(0.14056 0.00661413 0 0.00475686 0 0)
(0.113397 0.00509228 0 0.00444154 0 0)
(0.155684 0.0081034 0 0.00507743 0 0)
(0.116823 0.00591853 0 0.00459734 0 0)
(0.174841 0.0105089 0 0.00547499 0 0)
(0.119733 0.00708226 0 0.00495121 0 0)
(0.203438 0.015032 0 0.0064871 0 0)
(0.12198 0.0105295 0 0.00666332 0 0)
(0.257421 0.0213401 0 0.0111864 0 0)
(0.0301964 -0.00054097 0 0.00166408 0 0)
(0.0327521 0.000875785 0 0.00343129 0 0)
(0.0264638 0.000666931 0 0.00315197 0 0)
(0.0361087 0.00173607 0 0.00301896 0 0)
(0.0335122 0.000942468 0 0.00312178 0 0)
(0.0406172 0.00153143 0 0.0032549 0 0)
(0.039328 0.000626539 0 0.00321804 0 0)
(0.0464307 0.00233647 0 0.00357025 0 0)
(0.0403174 0.00104877 0 0.00310523 0 0)
(0.0531338 0.00307749 0 0.0035605 0 0)
(0.0418916 0.00146822 0 0.00320397 0 0)
(0.0603646 0.00349608 0 0.00351627 0 0)
(0.0450475 0.00197403 0 0.00330536 0 0)
(0.0679582 0.00409165 0 0.00345588 0 0)
(0.0483342 0.00221416 0 0.00316292 0 0)
(0.0771754 0.00511112 0 0.00345338 0 0)
(0.0528035 0.00286626 0 0.00319803 0 0)
(0.0904718 0.00750592 0 0.00378039 0 0)
(0.0596158 0.00564544 0 0.0041435 0 0)
(0.116226 0.0117921 0 0.00654251 0 0)
(0.00834521 -0.000524173 0 0.00121345 0 0)
(0.00568685 -0.00059784 0 0.00261142 0 0)
(0.00586168 -0.000832336 0 0.00247289 0 0)
(0.00855143 5.51366e-05 0 0.00205922 0 0)
(0.00908275 0.000183684 0 0.00227887 0 0)
(0.0118284 -0.000110069 0 0.00222642 0 0)
(0.0143322 -0.000204717 0 0.00235891 0 0)
(0.0156077 -5.608e-05 0 0.00244111 0 0)
(0.0165166 -0.000222246 0 0.00216521 0 0)
(0.0188267 0.000425385 0 0.0023089 0 0)
(0.0188352 1.73015e-05 0 0.00216716 0 0)
(0.0233603 0.000416796 0 0.00217513 0 0)
(0.0223259 5.3818e-05 0 0.00217094 0 0)
(0.0278483 0.0003198 0 0.00204789 0 0)
(0.0257846 0.00020983 0 0.00193206 0 0)
(0.0333559 0.000742065 0 0.0018898 0 0)
(0.0310498 0.000817293 0 0.00181967 0 0)
(0.0420795 0.002339 0 0.00205267 0 0)
(0.0407698 0.00360576 0 0.00239279 0 0)
(0.0594885 0.00757442 0 0.00409143 0 0)
(0.00811446 -0.000434103 0 0.000871628 0 0)
(0.00306796 -0.000707391 0 0.00204152 0 0)
(0.00390101 -0.0010745 0 0.0019762 0 0)
(0.00480681 -0.000570188 0 0.00151356 0 0)
(0.00676154 -0.000288812 0 0.00174829 0 0)
(0.00725368 -0.000509477 0 0.00167203 0 0)
(0.00974797 -0.000647976 0 0.00189989 0 0)
(0.00999318 -0.000944641 0 0.00196219 0 0)
(0.01239 -0.00079419 0 0.00177282 0 0)
(0.0124873 -0.000537609 0 0.0017932 0 0)
(0.0148788 -0.000502893 0 0.00167305 0 0)
(0.0154895 -0.000475203 0 0.00161248 0 0)
(0.0179927 -0.000530711 0 0.00160755 0 0)
(0.0186701 -0.000703434 0 0.00147321 0 0)
(0.0211561 -0.000452316 0 0.00134968 0 0)
(0.0223514 -0.000375378 0 0.00123562 0 0)
(0.025603 0.000213675 0 0.00112279 0 0)
(0.0287832 0.000953119 0 0.00116515 0 0)
(0.034485 0.00274684 0 0.00136246 0 0)
(0.0431595 0.00555202 0 0.00225284 0 0)
(0.00966786 -0.00044402 0 0.000530234 0 0)
(0.00470124 -5.79498e-05 0 0.00136487 0 0)
(0.00486402 -0.000540038 0 0.00131895 0 0)
(0.00601793 -0.000361762 0 0.000995964 0 0)
(0.00857375 -0.000208588 0 0.00126504 0 0)
(0.00832369 -0.000208635 0 0.00114798 0 0)
(0.0109712 -0.000378844 0 0.00129205 0 0)
(0.00987459 -0.00039527 0 0.00137072 0 0)
(0.0120889 -0.00044629 0 0.00124883 0 0)
(0.0105432 -6.19567e-05 0 0.00121733 0 0)
(0.0124957 -0.000146691 0 0.001106 0 0)
(0.0106686 6.53459e-05 0 0.00102829 0 0)
(0.0125374 -6.70321e-05 0 0.000988819 0 0)
(0.0103581 -5.44941e-05 0 0.000906711 0 0)
(0.0121302 -2.93875e-05 0 0.000799206 0 0)
(0.0102948 3.34284e-05 0 0.000739658 0 0)
(0.0124532 0.000394645 0 0.000615451 0 0)
(0.0121308 0.000736506 0 0.000642774 0 0)
(0.0162225 0.00194365 0 0.000737305 0 0)
(0.0205763 0.00326075 0 0.00123282 0 0)
(0.00826827 -0.00072229 0 0.000376794 0 0)
(0.0037489 -4.45121e-05 0 0.00108767 0 0)
(0.00452509 -0.000329257 0 0.000911093 0 0)
(0.0063225 -0.000286811 0 0.000593974 0 0)
(0.00816947 -0.000120215 0 0.000754295 0 0)
(0.00712704 -2.14394e-05 0 0.000712817 0 0)
(0.00807091 6.9216e-05 0 0.000764078 0 0)
(0.00622177 0.000415764 0 0.000774453 0 0)
(0.00607519 0.000437903 0 0.000676068 0 0)
(0.00503596 0.000841672 0 0.000618227 0 0)
(0.00443928 0.000719018 0 0.000549225 0 0)
(0.00439115 0.000961721 0 0.000502962 0 0)
(0.00357672 0.000771124 0 0.000474047 0 0)
(0.00446399 0.000929247 0 0.000439815 0 0)
(0.00357985 0.000628295 0 0.000378399 0 0)
(0.00536827 0.000823761 0 0.000365716 0 0)
(0.00475522 0.000466605 0 0.000307297 0 0)
(0.0071779 0.000854206 0 0.000324835 0 0)
(0.00794854 0.000776314 0 0.000449355 0 0)
(0.011588 0.00163947 0 0.00062427 0 0)
(0.00683403 -0.00134617 0 0.000489275 0 0)
(0.00179653 -0.00044302 0 0.00122424 0 0)
(0.00214415 -0.000103694 0 0.000784475 0 0)
(0.00299313 0.000105629 0 0.00043817 0 0)
(0.00319246 0.000560068 0 0.000420702 0 0)
(0.00330896 0.000886822 0 0.000373527 0 0)
(0.00535771 0.00111426 0 0.000356838 0 0)
(0.00847863 0.00132313 0 0.000329887 0 0)
(0.0107296 0.00122294 0 0.000270302 0 0)
(0.0160748 0.00128516 0 0.000235954 0 0)
(0.0170951 0.00109869 0 0.000205823 0 0)
(0.0237174 0.00112807 0 0.000190261 0 0)
(0.0230942 0.000920314 0 0.000185084 0 0)
(0.0306991 0.000981768 0 0.000170837 0 0)
(0.0286065 0.00059719 0 0.000151872 0 0)
(0.0363457 0.000765169 0 0.00014804 0 0)
(0.033369 3.89765e-05 0 0.000133711 0 0)
(0.0390943 0.000565893 0 0.000149568 0 0)
(0.0368652 -0.000472034 0 0.000211854 0 0)
(0.0382858 0.00103331 0 0.00040241 0 0)
(0.00621404 -0.00196809 0 0.00079365 0 0)
(0.000936414 0.000742494 0 0.00105404 0 0)
(0.00578942 0.00148667 0 0.000442143 0 0)
(0.0115826 0.00130168 0 0.000174016 0 0)
(0.0183036 0.00127029 0 0.000116925 0 0)
(0.0267691 0.0011354 0 9.12109e-05 0 0)
(0.0349395 0.00095772 0 8.35949e-05 0 0)
(0.0435711 0.000814689 0 7.58366e-05 0 0)
(0.0489001 0.000645636 0 6.74877e-05 0 0)
(0.0565505 0.000579423 0 6.43997e-05 0 0)
(0.0589968 0.000476378 0 6.18328e-05 0 0)
(0.0662349 0.000470097 0 5.96981e-05 0 0)
(0.0664424 0.000370821 0 6.03547e-05 0 0)
(0.0738034 0.000396277 0 5.46991e-05 0 0)
(0.0720866 0.000189748 0 5.06801e-05 0 0)
(0.0789359 0.000238068 0 4.6645e-05 0 0)
(0.0754228 -0.000206984 0 4.55535e-05 0 0)
(0.078941 7.9372e-05 0 4.77398e-05 0 0)
(0.0760438 -0.00081481 0 7.28589e-05 0 0)
(0.0706018 0.000412242 0 0.00022386 0 0)
(0.00116071 -6.91341e-05 0 0.000132117 0 0)
(0.0222238 0.000864981 0 4.85938e-05 0 0)
(0.0433854 7.90306e-05 0 1.1985e-05 0 0)
(0.054035 -0.000134239 0 4.84636e-06 0 0)
(0.0619531 -9.8544e-05 0 3.84405e-06 0 0)
(0.0680038 -7.70368e-05 0 4.25915e-06 0 0)
(0.071906 -5.11064e-05 0 5.32767e-06 0 0)
(0.0752138 -2.42779e-05 0 5.5489e-06 0 0)
(0.0770646 -1.44859e-05 0 6.11287e-06 0 0)
(0.0794333 -1.31773e-06 0 6.28567e-06 0 0)
(0.080227 -5.33792e-06 0 6.47101e-06 0 0)
(0.0822041 5.6024e-06 0 6.18498e-06 0 0)
(0.0823369 -9.00455e-06 0 6.08709e-06 0 0)
(0.0841687 1.84073e-06 0 5.291e-06 0 0)
(0.0835716 -3.47261e-05 0 4.95598e-06 0 0)
(0.0848675 -3.08229e-05 0 4.16193e-06 0 0)
(0.0829786 -0.000101341 0 3.93531e-06 0 0)
(0.0824494 -8.37396e-05 0 3.6312e-06 0 0)
(0.0800379 -0.000299313 0 4.88446e-06 0 0)
(0.0723955 0.000401371 0 2.88516e-05 0 0)
(0.33963 -0.165837 0 0.103225 0 0)
(0.373153 -0.196577 0 0.145232 0 0)
(0.378807 -0.187269 0 0.173017 0 0)
(0.39829 -0.164927 0 0.192982 0 0)
(0.40906 -0.13922 0 0.204719 0 0)
(0.474806 -0.122765 0 0.21293 0 0)
(0.517916 -0.11725 0 0.220764 0 0)
(0.623912 -0.129775 0 0.232469 0 0)
(0.686334 -0.146838 0 0.246167 0 0)
(0.795477 -0.171271 0 0.260483 0 0)
(0.842887 -0.188105 0 0.275807 0 0)
(0.940843 -0.210212 0 0.295121 0 0)
(0.977642 -0.22017 0 0.315262 0 0)
(1.07491 -0.240688 0 0.333727 0 0)
(1.11683 -0.252636 0 0.34615 0 0)
(1.22006 -0.281789 0 0.356482 0 0)
(1.26327 -0.305623 0 0.369467 0 0)
(1.37372 -0.348005 0 0.389122 0 0)
(1.41634 -0.376575 0 0.416123 0 0)
(1.55394 -0.421307 0 0.450138 0 0)
(1.6245 -0.447796 0 0.478918 0 0)
(1.79817 -0.499486 0 0.509716 0 0)
(1.87817 -0.536446 0 0.539797 0 0)
(2.06602 -0.597186 0 0.573179 0 0)
(2.14399 -0.635949 0 0.605558 0 0)
(2.33972 -0.700058 0 0.642935 0 0)
(2.41878 -0.734882 0 0.678297 0 0)
(2.62519 -0.809562 0 0.716502 0 0)
(2.71333 -0.846685 0 0.752813 0 0)
(2.93405 -0.93597 0 0.796416 0 0)
(3.0338 -0.976323 0 0.840285 0 0)
(3.28301 -1.07931 0 0.889432 0 0)
(3.39366 -1.12151 0 0.936669 0 0)
(3.68558 -1.24423 0 0.989779 0 0)
(3.79431 -1.29109 0 1.03973 0 0)
(4.1177 -1.43314 0 1.09644 0 0)
(4.19512 -1.47528 0 1.14476 0 0)
(4.52547 -1.62371 0 1.20003 0 0)
(4.55515 -1.65073 0 1.2466 0 0)
(4.87502 -1.79803 0 1.30111 0 0)
(4.85816 -1.79755 0 1.34625 0 0)
(5.14818 -1.9329 0 1.39882 0 0)
(5.09063 -1.90872 0 1.43953 0 0)
(5.36835 -2.03308 0 1.48999 0 0)
(5.28386 -2.0006 0 1.52649 0 0)
(5.58376 -2.12137 0 1.57596 0 0)
(5.48067 -2.08933 0 1.61248 0 0)
(5.8337 -2.21638 0 1.66945 0 0)
(5.71343 -2.18941 0 1.71298 0 0)
(6.13276 -2.32635 0 1.78512 0 0)
(5.97912 -2.30562 0 1.84064 0 0)
(6.46132 -2.44977 0 1.9309 0 0)
(6.2296 -2.41724 0 1.99905 0 0)
(6.75511 -2.55995 0 2.09749 0 0)
(6.40389 -2.48291 0 2.15921 0 0)
(6.94959 -2.6174 0 2.24927 0 0)
(6.47267 -2.48273 0 2.2846 0 0)
(7.0451 -2.61532 0 2.35126 0 0)
(6.45989 -2.44337 0 2.36613 0 0)
(7.1015 -2.59524 0 2.42223 0 0)
(6.41462 -2.41442 0 2.44003 0 0)
(7.15536 -2.60024 0 2.50622 0 0)
(6.34805 -2.40647 0 2.5382 0 0)
(7.16726 -2.61382 0 2.62141 0 0)
(6.23022 -2.37405 0 2.64881 0 0)
(7.09422 -2.56482 0 2.72419 0 0)
(6.07182 -2.26941 0 2.70699 0 0)
(6.99543 -2.40836 0 2.73216 0 0)
(5.93442 -2.10723 0 2.68557 0 0)
(6.99403 -2.24987 0 2.71555 0 0)
(5.89115 -1.97441 0 2.6972 0 0)
(7.12298 -2.1487 0 2.73099 0 0)
(5.9333 -1.86771 0 2.71041 0 0)
(7.35931 -2.10793 0 2.75079 0 0)
(6.04847 -1.81222 0 2.76338 0 0)
(7.63401 -2.12407 0 2.84851 0 0)
(6.22739 -1.79871 0 2.89644 0 0)
(7.88095 -2.16202 0 3.02793 0 0)
(6.40349 -1.81148 0 3.08704 0 0)
(8.07628 -2.17635 0 3.24327 0 0)
(6.49315 -1.81303 0 3.2885 0 0)
(8.22756 -2.17227 0 3.42399 0 0)
(6.51384 -1.80376 0 3.44132 0 0)
(8.34805 -2.18093 0 3.55648 0 0)
(6.52859 -1.79105 0 3.54591 0 0)
(8.38886 -2.17707 0 3.65664 0 0)
(6.59269 -1.776 0 3.64741 0 0)
(8.42385 -2.16473 0 3.79674 0 0)
(6.70883 -1.78355 0 3.81752 0 0)
(8.54558 -2.16605 0 3.99684 0 0)
(6.86995 -1.82512 0 4.03008 0 0)
(8.7363 -2.23995 0 4.20454 0 0)
(7.10192 -1.91748 0 4.24178 0 0)
(8.98829 -2.36308 0 4.43499 0 0)
(7.36216 -2.02532 0 4.48151 0 0)
(9.21182 -2.50114 0 4.70897 0 0)
(7.6102 -2.13192 0 4.77606 0 0)
(9.37625 -2.61458 0 5.05063 0 0)
(7.78226 -2.21896 0 5.15093 0 0)
(9.37808 -2.68647 0 5.47501 0 0)
(7.79687 -2.25239 0 5.60639 0 0)
(9.29097 -2.71672 0 5.9537 0 0)
(7.66636 -2.25716 0 6.10879 0 0)
(9.17189 -2.73728 0 6.48212 0 0)
(7.47508 -2.25743 0 6.54523 0 0)
(9.04964 -2.75451 0 6.87326 0 0)
(7.28597 -2.19761 0 6.85843 0 0)
(8.96841 -2.70021 0 7.10234 0 0)
(7.14871 -2.0793 0 7.03509 0 0)
(8.90419 -2.6328 0 7.3028 0 0)
(7.05772 -1.98216 0 7.19496 0 0)
(8.81638 -2.55751 0 7.42698 0 0)
(7.05625 -1.87688 0 7.27387 0 0)
(8.75423 -2.4561 0 7.52372 0 0)
(7.1239 -1.73794 0 7.38959 0 0)
(8.67046 -2.31278 0 7.67047 0 0)
(7.18507 -1.61895 0 7.59659 0 0)
(8.57079 -2.18201 0 7.93904 0 0)
(7.2867 -1.54405 0 7.91981 0 0)
(8.55203 -2.07753 0 8.30241 0 0)
(7.44978 -1.50749 0 8.34613 0 0)
(8.55548 -1.98698 0 8.72217 0 0)
(7.53129 -1.42236 0 8.79419 0 0)
(8.49911 -1.87354 0 9.1222 0 0)
(7.51083 -1.33423 0 9.16153 0 0)
(8.39584 -1.76461 0 9.43356 0 0)
(7.37742 -1.23511 0 9.47792 0 0)
(8.24592 -1.66248 0 9.73009 0 0)
(7.30349 -1.1799 0 9.77206 0 0)
(8.10717 -1.60131 0 9.9679 0 0)
(7.38871 -1.22057 0 10.0671 0 0)
(8.0509 -1.57556 0 10.2617 0 0)
(7.57705 -1.30375 0 10.3818 0 0)
(8.04491 -1.53839 0 10.5379 0 0)
(7.73659 -1.38012 0 10.6695 0 0)
(8.06265 -1.48629 0 10.8094 0 0)
(7.90472 -1.3937 0 10.9406 0 0)
(8.15645 -1.40784 0 11.1134 0 0)
(8.0322 -1.3561 0 11.2978 0 0)
(8.23199 -1.31067 0 11.4837 0 0)
(8.07567 -1.28944 0 11.6954 0 0)
(8.20353 -1.17162 0 11.8235 0 0)
(8.12161 -1.18158 0 12.0345 0 0)
(8.12686 -1.01215 0 12.1905 0 0)
(8.04478 -1.00755 0 12.4481 0 0)
(7.95371 -0.819174 0 12.5377 0 0)
(7.8999 -0.793402 0 12.6718 0 0)
(7.79039 -0.652037 0 12.752 0 0)
(7.75113 -0.550123 0 12.916 0 0)
(7.62637 -0.500318 0 12.9772 0 0)
(7.57329 -0.346828 0 13.0769 0 0)
(7.43906 -0.35608 0 13.0784 0 0)
(7.3751 -0.160088 0 13.178 0 0)
(7.25997 -0.190944 0 13.1626 0 0)
(7.21822 -0.0157719 0 13.2425 0 0)
(7.09319 -0.0516766 0 13.1886 0 0)
(7.1197 0.0898255 0 13.2814 0 0)
(7.03842 0.0831486 0 13.2167 0 0)
(7.06817 0.159738 0 13.2971 0 0)
(6.93385 0.143546 0 13.246 0 0)
(6.96366 0.200916 0 13.3866 0 0)
(6.82389 0.153304 0 13.386 0 0)
(6.82327 0.173324 0 13.468 0 0)
(6.73411 0.116952 0 13.4497 0 0)
(6.78431 0.120895 0 13.4411 0 0)
(6.6657 0.00597816 0 13.3938 0 0)
(6.77399 0.0503409 0 13.3976 0 0)
(6.59417 -0.202296 0 13.3111 0 0)
(6.72671 -0.0582803 0 13.2839 0 0)
(6.57047 -0.379438 0 13.0603 0 0)
(6.64277 -0.30533 0 12.9418 0 0)
(6.61035 -0.580275 0 12.7342 0 0)
(6.4898 -0.490179 0 12.3696 0 0)
(6.71995 -0.841996 0 12.0697 0 0)
(6.41781 -0.535498 0 11.6736 0 0)
(6.78788 -0.947424 0 11.3802 0 0)
(6.45437 -0.534715 0 11.0184 0 0)
(6.8614 -0.974283 0 10.6429 0 0)
(6.49891 -0.580487 0 10.4755 0 0)
(6.85635 -0.879237 0 9.99211 0 0)
(6.54742 -0.684285 0 10.0077 0 0)
(6.69241 -0.797878 0 9.27854 0 0)
(6.42271 -0.838115 0 9.59364 0 0)
(6.46625 -0.685541 0 8.57185 0 0)
(6.23736 -0.97632 0 9.189 0 0)
(6.19931 -0.460603 0 7.90045 0 0)
(6.02888 -1.04708 0 8.91748 0 0)
(5.84343 -0.189435 0 7.43819 0 0)
(5.67479 -1.01325 0 8.88094 0 0)
(5.46766 0.214858 0 7.31152 0 0)
(5.18522 -0.868532 0 9.18385 0 0)
(5.07049 0.727081 0 7.51612 0 0)
(4.65771 -0.624112 0 10.0027 0 0)
(4.42909 1.2856 0 8.14729 0 0)
(4.20621 -0.181933 0 11.5749 0 0)
(3.75986 2.21136 0 9.79769 0 0)
(3.70784 0.21027 0 13.9583 0 0)
(2.93885 3.43577 0 12.8047 0 0)
(3.36661 2.21679 0 19.331 0 0)
(1.083 0.477371 0 21.1968 0 0)
(0.315798 -0.136541 0 0.116384 0 0)
(0.283831 -0.146006 0 0.151641 0 0)
(0.299674 -0.130851 0 0.159846 0 0)
(0.265292 -0.119673 0 0.164148 0 0)
(0.288748 -0.105486 0 0.163829 0 0)
(0.283278 -0.105205 0 0.162966 0 0)
(0.327771 -0.110281 0 0.166564 0 0)
(0.341432 -0.127798 0 0.176423 0 0)
(0.398154 -0.14078 0 0.18773 0 0)
(0.410929 -0.16037 0 0.199726 0 0)
(0.464276 -0.170672 0 0.212468 0 0)
(0.471245 -0.190096 0 0.228866 0 0)
(0.526113 -0.198779 0 0.245463 0 0)
(0.541266 -0.219738 0 0.262532 0 0)
(0.608073 -0.2296 0 0.277286 0 0)
(0.64263 -0.258782 0 0.293244 0 0)
(0.726228 -0.278427 0 0.310509 0 0)
(0.782164 -0.322956 0 0.332537 0 0)
(0.875572 -0.349992 0 0.355818 0 0)
(0.941797 -0.400508 0 0.384047 0 0)
(1.03554 -0.426024 0 0.411208 0 0)
(1.11409 -0.478468 0 0.441908 0 0)
(1.20929 -0.503752 0 0.471475 0 0)
(1.30533 -0.562451 0 0.505486 0 0)
(1.39869 -0.586137 0 0.538276 0 0)
(1.51688 -0.652082 0 0.57775 0 0)
(1.61338 -0.673211 0 0.615427 0 0)
(1.76199 -0.75058 0 0.659009 0 0)
(1.86757 -0.774596 0 0.699004 0 0)
(2.04617 -0.86947 0 0.746447 0 0)
(2.15482 -0.898419 0 0.789759 0 0)
(2.35643 -1.01035 0 0.840958 0 0)
(2.45265 -1.03862 0 0.88611 0 0)
(2.66952 -1.16332 0 0.939837 0 0)
(2.73663 -1.18496 0 0.985817 0 0)
(2.96199 -1.31796 0 1.04105 0 0)
(2.97997 -1.32433 0 1.0865 0 0)
(3.20736 -1.45746 0 1.13877 0 0)
(3.1665 -1.44281 0 1.1813 0 0)
(3.39982 -1.57496 0 1.23094 0 0)
(3.3091 -1.53883 0 1.26935 0 0)
(3.56043 -1.66848 0 1.31728 0 0)
(3.43569 -1.61678 0 1.35229 0 0)
(3.72371 -1.7491 0 1.40279 0 0)
(3.58062 -1.69199 0 1.43643 0 0)
(3.9168 -1.83462 0 1.49532 0 0)
(3.75947 -1.77943 0 1.53247 0 0)
(4.14577 -1.9353 0 1.6033 0 0)
(3.96104 -1.87862 0 1.64707 0 0)
(4.39363 -2.04342 0 1.72842 0 0)
(4.15064 -1.97116 0 1.77774 0 0)
(4.62803 -2.14094 0 1.86376 0 0)
(4.29211 -2.03103 0 1.91365 0 0)
(4.81072 -2.20418 0 1.99605 0 0)
(4.36625 -2.0385 0 2.03759 0 0)
(4.9252 -2.21896 0 2.10964 0 0)
(4.38952 -2.0002 0 2.13759 0 0)
(4.99904 -2.20052 0 2.20297 0 0)
(4.40738 -1.95579 0 2.2211 0 0)
(5.0744 -2.18604 0 2.30133 0 0)
(4.44662 -1.94707 0 2.32459 0 0)
(5.16703 -2.18999 0 2.41814 0 0)
(4.48878 -1.95886 0 2.43836 0 0)
(5.25163 -2.1752 0 2.52337 0 0)
(4.48524 -1.92686 0 2.52496 0 0)
(5.29336 -2.09742 0 2.57396 0 0)
(4.4243 -1.81329 0 2.54197 0 0)
(5.32806 -1.97591 0 2.57208 0 0)
(4.38701 -1.68408 0 2.54598 0 0)
(5.4236 -1.88778 0 2.60144 0 0)
(4.42538 -1.58656 0 2.58336 0 0)
(5.60918 -1.83361 0 2.65255 0 0)
(4.55167 -1.51633 0 2.63475 0 0)
(5.86354 -1.82767 0 2.71476 0 0)
(4.74958 -1.49244 0 2.72172 0 0)
(6.13604 -1.86771 0 2.83772 0 0)
(4.97718 -1.50376 0 2.87702 0 0)
(6.36896 -1.90029 0 3.02701 0 0)
(5.15815 -1.4978 0 3.06922 0 0)
(6.53071 -1.88809 0 3.23047 0 0)
(5.24803 -1.47427 0 3.25899 0 0)
(6.66527 -1.87807 0 3.40306 0 0)
(5.33734 -1.47355 0 3.41349 0 0)
(6.7865 -1.8895 0 3.53179 0 0)
(5.47236 -1.50759 0 3.50749 0 0)
(6.9104 -1.89823 0 3.63696 0 0)
(5.64706 -1.55989 0 3.62894 0 0)
(7.07413 -1.91575 0 3.78758 0 0)
(5.87382 -1.60851 0 3.80907 0 0)
(7.31179 -1.95344 0 3.99335 0 0)
(6.12458 -1.67841 0 4.02127 0 0)
(7.60051 -2.05977 0 4.20015 0 0)
(6.39324 -1.76742 0 4.24366 0 0)
(7.90873 -2.1858 0 4.45113 0 0)
(6.66798 -1.86031 0 4.50042 0 0)
(8.18041 -2.3288 0 4.73532 0 0)
(6.9475 -1.95599 0 4.80699 0 0)
(8.39669 -2.44607 0 5.08999 0 0)
(7.16632 -2.03008 0 5.17999 0 0)
(8.47921 -2.50967 0 5.5116 0 0)
(7.25219 -2.0438 0 5.61505 0 0)
(8.42103 -2.52709 0 5.99037 0 0)
(7.14412 -2.00775 0 6.1026 0 0)
(8.29133 -2.50283 0 6.47532 0 0)
(6.89955 -1.95886 0 6.48278 0 0)
(8.14079 -2.46589 0 6.81479 0 0)
(6.63865 -1.84276 0 6.76671 0 0)
(8.03713 -2.37658 0 7.05917 0 0)
(6.47275 -1.69937 0 6.96616 0 0)
(8.01467 -2.26296 0 7.247 0 0)
(6.42106 -1.56106 0 7.11006 0 0)
(8.04554 -2.12758 0 7.36745 0 0)
(6.50863 -1.43384 0 7.20376 0 0)
(8.12615 -1.98409 0 7.48955 0 0)
(6.65661 -1.33987 0 7.36253 0 0)
(8.18624 -1.90606 0 7.66592 0 0)
(6.87524 -1.30451 0 7.60121 0 0)
(8.27459 -1.85249 0 7.95032 0 0)
(7.12481 -1.28074 0 7.9612 0 0)
(8.41388 -1.80288 0 8.34619 0 0)
(7.30014 -1.25734 0 8.40367 0 0)
(8.51023 -1.72547 0 8.77974 0 0)
(7.3242 -1.16048 0 8.84852 0 0)
(8.49829 -1.60956 0 9.1964 0 0)
(7.25715 -1.01346 0 9.24778 0 0)
(8.43105 -1.49751 0 9.53504 0 0)
(7.20962 -0.917201 0 9.57869 0 0)
(8.33828 -1.4381 0 9.83273 0 0)
(7.25187 -0.966384 0 9.91649 0 0)
(8.28606 -1.44318 0 10.1152 0 0)
(7.40395 -1.12953 0 10.2279 0 0)
(8.30669 -1.44992 0 10.4008 0 0)
(7.63225 -1.25873 0 10.5244 0 0)
(8.36639 -1.42711 0 10.6864 0 0)
(7.84803 -1.34457 0 10.8324 0 0)
(8.54876 -1.41293 0 10.9384 0 0)
(8.10587 -1.38694 0 11.0815 0 0)
(8.752 -1.37027 0 11.2249 0 0)
(8.2964 -1.3746 0 11.4479 0 0)
(8.85114 -1.26851 0 11.6051 0 0)
(8.35544 -1.27066 0 11.8704 0 0)
(8.80499 -1.11543 0 11.9672 0 0)
(8.32514 -1.14008 0 12.2191 0 0)
(8.65311 -0.90735 0 12.357 0 0)
(8.14375 -0.923214 0 12.6577 0 0)
(8.47484 -0.665721 0 12.6983 0 0)
(7.94056 -0.723304 0 12.8982 0 0)
(8.28794 -0.475715 0 12.9404 0 0)
(7.68384 -0.51636 0 13.1243 0 0)
(8.01263 -0.310299 0 13.1779 0 0)
(7.50451 -0.278888 0 13.3102 0 0)
(7.76868 -0.197034 0 13.2508 0 0)
(7.36744 -0.12051 0 13.3621 0 0)
(7.62434 -0.0719138 0 13.4116 0 0)
(7.28341 0.00122654 0 13.4491 0 0)
(7.52951 -0.0398797 0 13.3941 0 0)
(7.25275 0.115612 0 13.4895 0 0)
(7.44311 0.0412569 0 13.4924 0 0)
(7.21325 0.170209 0 13.5212 0 0)
(7.26325 0.0788141 0 13.6109 0 0)
(7.16487 0.234553 0 13.6439 0 0)
(7.13005 0.061424 0 13.6756 0 0)
(7.08837 0.213858 0 13.7472 0 0)
(7.03236 0.0559792 0 13.7396 0 0)
(6.98976 0.150221 0 13.7753 0 0)
(6.89085 -0.0597038 0 13.7092 0 0)
(6.90747 0.0792775 0 13.7971 0 0)
(6.78932 -0.165712 0 13.685 0 0)
(6.87297 -0.0179658 0 13.6025 0 0)
(6.73285 -0.301321 0 13.4862 0 0)
(6.7259 -0.108027 0 13.3833 0 0)
(6.67574 -0.511018 0 13.1212 0 0)
(6.59828 -0.177178 0 12.8368 0 0)
(6.55125 -0.74746 0 12.4423 0 0)
(6.64338 -0.278248 0 12.0346 0 0)
(6.4385 -0.945246 0 11.5966 0 0)
(6.76786 -0.41099 0 11.357 0 0)
(6.39571 -1.03482 0 10.8917 0 0)
(6.82633 -0.656518 0 10.8092 0 0)
(6.40919 -0.994842 0 10.1621 0 0)
(6.80355 -0.878175 0 10.4716 0 0)
(6.37578 -0.904836 0 9.47449 0 0)
(6.66781 -1.18134 0 10.1194 0 0)
(6.14989 -0.76881 0 8.70309 0 0)
(6.45138 -1.46655 0 9.74187 0 0)
(5.92003 -0.53917 0 7.92913 0 0)
(6.15454 -1.62381 0 9.47047 0 0)
(5.81397 -0.248654 0 7.34925 0 0)
(5.70991 -1.67882 0 9.4276 0 0)
(5.62358 0.0976889 0 7.12435 0 0)