/*--------------------------------*- C++ -*----------------------------------*\
| =========                 |                                                 |
| \\      /  F ield         | OpenFOAM: The Open Source CFD Toolbox           |
|  \\    /   O peration     | Version:  2.4.0                                 |
|   \\  /    A nd           | Web:      www.OpenFOAM.org                      |
|    \\/     M anipulation  |                                                 |
\*---------------------------------------------------------------------------*/
FoamFile
{
    version     2.0;
    format      ascii;
    class       volScalarField;
    location    "0.35";
    object      pPrime2Mean;
}
// * * * * * * * * * * * * * * * * * * * * * * * * * * * * * * * * * * * * * //

dimensions      [0 4 -4 0 0 0 0];

internalField   nonuniform List<scalar> 
8800
(
1.84694e+06
1.80033e+06
1.75032e+06
1.70074e+06
1.65184e+06
1.60364e+06
1.55616e+06
1.50939e+06
1.46333e+06
1.41797e+06
1.37332e+06
1.32937e+06
1.2861e+06
1.2435e+06
1.20151e+06
1.16007e+06
1.119e+06
1.078e+06
1.03633e+06
991656
1.847e+06
1.80034e+06
1.75032e+06
1.70074e+06
1.65184e+06
1.60364e+06
1.55616e+06
1.50939e+06
1.46333e+06
1.41797e+06
1.37332e+06
1.32937e+06
1.28611e+06
1.24351e+06
1.20153e+06
1.16009e+06
1.11905e+06
1.0781e+06
1.03656e+06
992411
1.84704e+06
1.80033e+06
1.75031e+06
1.70073e+06
1.65183e+06
1.60364e+06
1.55616e+06
1.50939e+06
1.46333e+06
1.41797e+06
1.37333e+06
1.32938e+06
1.28611e+06
1.24352e+06
1.20155e+06
1.16013e+06
1.11913e+06
1.07828e+06
1.03698e+06
993881
1.84707e+06
1.80033e+06
1.75029e+06
1.70072e+06
1.65183e+06
1.60364e+06
1.55616e+06
1.50939e+06
1.46333e+06
1.41798e+06
1.37333e+06
1.32938e+06
1.28612e+06
1.24354e+06
1.20158e+06
1.1602e+06
1.11926e+06
1.07853e+06
1.03757e+06
995593
1.8471e+06
1.80033e+06
1.75028e+06
1.70071e+06
1.65183e+06
1.60364e+06
1.55616e+06
1.50939e+06
1.46333e+06
1.41798e+06
1.37333e+06
1.32939e+06
1.28614e+06
1.24356e+06
1.20163e+06
1.16028e+06
1.11942e+06
1.07885e+06
1.03827e+06
997363
1.84712e+06
1.80033e+06
1.75028e+06
1.70071e+06
1.65182e+06
1.60364e+06
1.55616e+06
1.50939e+06
1.46333e+06
1.41798e+06
1.37334e+06
1.3294e+06
1.28615e+06
1.24359e+06
1.20168e+06
1.16038e+06
1.1196e+06
1.07922e+06
1.03905e+06
999091
1.84714e+06
1.80034e+06
1.75027e+06
1.7007e+06
1.65182e+06
1.60364e+06
1.55616e+06
1.50939e+06
1.46333e+06
1.41798e+06
1.37334e+06
1.32941e+06
1.28617e+06
1.24362e+06
1.20174e+06
1.16049e+06
1.11981e+06
1.07963e+06
1.03985e+06
1.00073e+06
1.84715e+06
1.80034e+06
1.75027e+06
1.7007e+06
1.65182e+06
1.60364e+06
1.55616e+06
1.50939e+06
1.46333e+06
1.41798e+06
1.37335e+06
1.32942e+06
1.28619e+06
1.24365e+06
1.2018e+06
1.1606e+06
1.12003e+06
1.08005e+06
1.04067e+06
1.00227e+06
1.84716e+06
1.80034e+06
1.75026e+06
1.70069e+06
1.65182e+06
1.60364e+06
1.55616e+06
1.50939e+06
1.46333e+06
1.41798e+06
1.37335e+06
1.32943e+06
1.28621e+06
1.24369e+06
1.20187e+06
1.16073e+06
1.12026e+06
1.08048e+06
1.04146e+06
1.00368e+06
1.84716e+06
1.80034e+06
1.75026e+06
1.70069e+06
1.65181e+06
1.60364e+06
1.55616e+06
1.50939e+06
1.46333e+06
1.41799e+06
1.37336e+06
1.32944e+06
1.28623e+06
1.24373e+06
1.20194e+06
1.16086e+06
1.1205e+06
1.0809e+06
1.04223e+06
1.00496e+06
1.84716e+06
1.80034e+06
1.75026e+06
1.70069e+06
1.65181e+06
1.60364e+06
1.55616e+06
1.50939e+06
1.46333e+06
1.41799e+06
1.37336e+06
1.32945e+06
1.28625e+06
1.24377e+06
1.20201e+06
1.16098e+06
1.12073e+06
1.08132e+06
1.04295e+06
1.00612e+06
1.84716e+06
1.80034e+06
1.75026e+06
1.70069e+06
1.65182e+06
1.60364e+06
1.55616e+06
1.50939e+06
1.46334e+06
1.418e+06
1.37337e+06
1.32946e+06
1.28627e+06
1.24381e+06
1.20208e+06
1.16111e+06
1.12095e+06
1.08171e+06
1.04361e+06
1.00716e+06
1.84715e+06
1.80034e+06
1.75027e+06
1.7007e+06
1.65182e+06
1.60364e+06
1.55616e+06
1.50939e+06
1.46334e+06
1.418e+06
1.37338e+06
1.32947e+06
1.28629e+06
1.24384e+06
1.20214e+06
1.16123e+06
1.12116e+06
1.08207e+06
1.04421e+06
1.00807e+06
1.84714e+06
1.80034e+06
1.75027e+06
1.7007e+06
1.65182e+06
1.60364e+06
1.55616e+06
1.50939e+06
1.46334e+06
1.418e+06
1.37338e+06
1.32948e+06
1.28631e+06
1.24387e+06
1.2022e+06
1.16133e+06
1.12135e+06
1.0824e+06
1.04475e+06
1.00886e+06
1.84712e+06
1.80033e+06
1.75028e+06
1.70071e+06
1.65182e+06
1.60364e+06
1.55616e+06
1.50939e+06
1.46334e+06
1.41801e+06
1.37339e+06
1.32949e+06
1.28633e+06
1.24391e+06
1.20226e+06
1.16143e+06
1.12152e+06
1.08268e+06
1.04521e+06
1.00954e+06
1.8471e+06
1.80033e+06
1.75028e+06
1.70072e+06
1.65183e+06
1.60364e+06
1.55616e+06
1.5094e+06
1.46335e+06
1.41801e+06
1.37339e+06
1.3295e+06
1.28634e+06
1.24393e+06
1.2023e+06
1.16152e+06
1.12167e+06
1.08293e+06
1.0456e+06
1.0101e+06
1.84707e+06
1.80033e+06
1.75029e+06
1.70072e+06
1.65183e+06
1.60364e+06
1.55616e+06
1.5094e+06
1.46335e+06
1.41801e+06
1.3734e+06
1.32951e+06
1.28635e+06
1.24395e+06
1.20234e+06
1.16159e+06
1.12179e+06
1.08313e+06
1.04591e+06
1.01054e+06
1.84704e+06
1.80033e+06
1.75031e+06
1.70073e+06
1.65183e+06
1.60364e+06
1.55616e+06
1.5094e+06
1.46335e+06
1.41802e+06
1.3734e+06
1.32951e+06
1.28636e+06
1.24397e+06
1.20237e+06
1.16164e+06
1.12188e+06
1.08328e+06
1.04614e+06
1.01088e+06
1.847e+06
1.80034e+06
1.75032e+06
1.70074e+06
1.65184e+06
1.60365e+06
1.55617e+06
1.5094e+06
1.46335e+06
1.41802e+06
1.3734e+06
1.32952e+06
1.28637e+06
1.24398e+06
1.20239e+06
1.16168e+06
1.12194e+06
1.08338e+06
1.0463e+06
1.0111e+06
1.84694e+06
1.80033e+06
1.75032e+06
1.70074e+06
1.65184e+06
1.60365e+06
1.55617e+06
1.5094e+06
1.46335e+06
1.41802e+06
1.3734e+06
1.32952e+06
1.28637e+06
1.24399e+06
1.20241e+06
1.16169e+06
1.12197e+06
1.08343e+06
1.04638e+06
1.0112e+06
951176
940278
931967
924782
918120
911777
905661
899714
893899
888188
882563
877010
871517
866075
860678
855319
849990
844689
839411
834156
828924
823714
818527
813360
808213
803086
797977
792888
787817
782766
777734
772723
767733
762765
757818
752892
747987
743103
738239
733394
728567
723757
718964
714186
709422
704672
699936
695213
690505
685811
681131
676463
671808
667166
662537
657924
653326
648746
644183
639637
635107
630594
626097
621616
617151
612702
608270
603854
599456
595074
590710
586363
582032
577719
573422
569142
564878
560632
556403
552192
548001
543829
539676
535541
531422
527319
523231
519156
515095
511049
507015
502994
498985
494988
491003
487031
483073
479130
475201
471288
467390
463510
459646
455800
451972
448162
444368
440592
436833
433091
429365
425655
421963
418286
414627
410984
407357
403746
400151
396572
393008
389461
385930
382415
378917
375436
371973
368527
365098
361686
358290
354909
351543
348192
344854
341531
338222
334927
331649
328386
325140
321911
318699
315503
312323
309159
306010
302877
299759
296657
293569
290498
287442
284402
281377
278368
275373
272396
269433
266487
263556
260642
257744
254864
252000
249154
246326
243516
240724
237951
235193
232455
229730
227026
224330
221657
218987
216341
213696
211074
208453
205854
203256
200677
198099
195536
192972
190418
187857
185300
182726
180144
177532
174894
172200
169446
166580
163556
160235
156329
958941
947329
937863
929712
922338
915443
908880
902560
896429
890446
884583
878822
873144
867539
861995
856505
851059
845652
840280
834940
829631
824352
819102
813877
808679
803505
798355
793227
788123
783041
777981
772945
767932
762943
757977
753033
748112
743212
738332
733474
728634
723813
719010
714222
709451
704694
699952
695224
690512
685814
681131
676462
671806
667165
662538
657926
653331
648752
644191
639647
635119
630609
626114
621636
617174
612728
608298
603885
599488
595108
590745
586399
582070
577757
573461
569182
564920
560674
556447
552239
548051
543883
539734
535603
531488
527389
523303
519231
515174
511130
507099
503079
499071
495073
491088
487116
483157
479212
475282
471368
467470
463587
459722
455874
452043
448230
444433
440653
436889
433142
429411
425696
421998
418317
414654
411007
407378
403765
400169
396590
393026
389479
385948
382434
378938
375458
371996
368551
365123
361712
358316
354935
351568
348215
344875
341549
338238
334941
331660
328395
325147
321917
318703
315505
312324
309157
306006
302871
299750
296645
293556
290483
287424
284382
281354
278341
275343
272361
269393
266441
263505
260584
257679
254790
251918
249062
246223
243401
240595
237808
235034
232280
229534
226812
224093
221397
218703
216030
213355
210701
208045
205407
202767
200139
197510
194888
192263
189637
187001
184357
181689
178998
176261
173476
170612
167643
164530
161146
157435
153054
964328
952807
942899
934170
926265
918914
911960
905304
898879
892640
886552
880591
874736
868972
863286
857667
852107
846597
841133
835710
830326
824979
819666
814386
809137
803917
798726
793561
788423
783311
778225
773164
768128
763118
758133
753172
748234
743319
738425
733553
728701
723869
719055
714258
709478
704715
699967
695234
690518
685817
681131
676461
671805
667165
662540
657930
653337
648761
644202
639660
635135
630627
626136
621661
617202
612759
608332
603921
599526
595148
590786
586441
582113
577801
573505
569226
564964
560719
556494
552288
548103
543939
539793
535666
531555
527458
523375
519307
515253
511212
507183
503164
499157
495160
491174
487202
483243
479299
475369
471454
467555
463671
459803
455953
452119
448301
444500
440715
436946
433193
429456
425735
422032
418345
414678
411027
407395
403781
400184
396604
393041
389494
385965
382452
378957
375479
372019
368575
365148
361737
358341
354958
351590
348234
344892
341563
338248
334948
331665
328398
325149
321916
318701
315502
312318
309149
305996
302858
299735
296627
293536
290461
287401
284355
281324
278308
275306
272320
269347
266390
263448
260521
257609
254713
251831
248967
246116
243284
240463
237663
234872
232102
229337
226595
223855
221137
218418
215717
213016
210329
207641
204962
202283
199608
196931
194252
191568
188874
186167
183440
180684
177889
175044
172122
169126
165968
162688
159087
155185
150780
968429
957213
947182
938132
929854
922144
914862
907911
901223
894748
888450
882301
876277
870362
864539
858797
853126
847516
841962
836459
831002
825589
820216
814882
809584
804320
799089
793888
788718
783576
778463
773378
768321
763291
758287
753309
748355
743425
738517
733632
728767
723924
719099
714294
709506
704736
699982
695245
690525
685821
681133
676462
671807
667168
662544
657937
653347
648773
644217
639678
635155
630650
626162
621690
617234
612794
608369
603961
599568
595192
590832
586487
582159
577846
573550
569271
565009
560765
556540
552337
548155
543993
539851
535727
531618
527525
523446
519381
515331
511293
507265
503248
499241
495245
491261
487289
483331
479386
475456
471541
467642
463756
459887
456034
452196
448374
444568
440777
437002
433243
429499
425772
422062
418371
414698
411043
407408
403791
400193
396612
393050
389504
385977
382466
378974
375498
372039
368597
365171
361760
358363
354979
351608
348249
344903
341570
338252
334948
331663
328393
325142
321908
318691
315490
312304
309134
305978
302837
299712
296603
293510
290433
287370
284322
281288
278268
275262
272271
269294
266332
263385
260452
257534
254630
251741
248868
246007
243163
240330
237516
234709
231922
229140
226378
223618
220875
218135
215406
212680
209960
207241
204524
201808
199087
196365
193631
190892
188132
185359
182550
179720
176821
173894
170842
167745
164443
161032
157339
153388
149099
971728
960821
950818
941615
933094
925114
917565
910362
903442
896755
890265
883941
877760
871701
865748
859889
854111
848406
842766
837185
831658
826181
820751
815365
810019
804713
799443
794208
789006
783836
778698
773590
768511
763461
758439
753444
748474
743529
738608
733710
728834
723980
719146
714331
709536
704759
700001
695260
690536
685830
681141
676469
671813
667175
662553
657948
653360
648789
644236
639699
635180
630677
626192
621722
617269
612831
608410
604004
599613
595238
590879
586534
582204
577891
573593
569313
565050
560806
556583
552381
548202
544043
539903
535782
531677
527588
523513
519452
515405
511369
507344
503328
499322
495327
491344
487372
483415
479470
475541
471626
467726
463840
459968
456112
452270
448443
444631
440834
437053
433287
429537
425804
422088
418391
414713
411053
407415
403795
400196
396615
393053
389509
385984
382476
378985
375511
372055
368614
365190
361778
358380
354994
351621
348258
344909
341571
338249
334942
331653
328381
325128
321892
318674
315470
312284
309110
305953
302810
299684
296573
293479
290399
287334
284282
281246
278221
275212
272216
269234
266267
263315
260377
257453
254544
251647
248766
245895
243040
240195
237366
234546
231742
228944
226160
223383
220616
217855
215099
212348
209596
206849
204094
201343
198576
195813
193023
190237
187409
184583
181691
178800
175807
172803
169654
166459
163077
159571
155857
151931
147764
974504
963863
953936
944667
935992
927815
920055
912643
905522
898648
891985
885501
879174
872982
866908
860938
855060
849265
843543
837887
832293
826756
821270
815834
810443
805096
799789
794521
789289
784092
778929
773798
768699
763630
758590
753578
748593
743634
738700
733790
728902
724038
719195
714372
709570
704787
700024
695279
690552
685844
681153
676481
671825
667188
662567
657964
653379
648810
644259
639725
635208
630708
626224
621757
617306
612871
608451
604046
599657
595282
590922
586576
582244
577928
573629
569347
565084
560840
556618
552419
548241
544084
539947
535829
531728
527642
523571
519514
515471
511439
507417
503403
499399
495404
491421
487450
483492
479548
475619
471704
467804
463916
460043
456183
452336
448504
444686
440883
437096
433323
429567
425827
422106
418403
414720
411057
407415
403793
400192
396611
393051
389508
385985
382478
378990
375518
372064
368624
365201
361789
358390
355002
351627
348260
344907
341565
338238
334927
331636
328360
325106
321868
318649
315444
312255
309080
305922
302777
299650
296538
293443
290359
287293
284237
281198
278169
275156
272155
269169
266198
263241
260297
257368
254452
251549
248659
245780
242914
240058
237215
234383
231560
228749
225943
223151
220359
217580
214794
212023
209236
206464
203669
200889
198077
195278
192435
189604
186716
183835
180878
177919
174861
171776
168566
165289
161866
158312
154600
150716
146649
976896
966469
956628
947338
938568
930251
922328
914745
907456
900419
893601
886974
880514
874199
868013
861941
855969
850089
844289
838564
832906
827311
821773
816289
810855
805469
800127
794826
789566
784343
779156
774003
768883
763796
758739
753711
748711
743738
738792
733870
728973
724098
719247
714417
709608
704820
700052
695303
690574
685863
681171
676498
671843
667206
662586
657985
653401
648834
644285
639753
635237
630739
626257
621791
617341
612907
608488
604084
599694
595319
590956
586608
582274
577956
573655
569372
565108
560865
556644
552446
548269
544115
539980
535865
531767
527685
523617
519564
515526
511499
507480
503468
499466
495472
491489
487516
483557
479613
475684
471769
467868
463980
460105
456240
452390
448553
444730
440922
437128
433349
429586
425840
422113
418406
414719
411052
407407
403784
400183
396602
393042
389501
385978
382474
378987
375517
372065
368626
365202
361790
358391
355002
351624
348254
344897
341551
338220
334906
331611
328333
325077
321837
318617
315410
312220
309043
305883
302737
299611
296497
293401
290314
287246
284187
281145
278112
275096
272090
269100
266125
263161
260212
257278
254357
251447
248548
245661
242784
239919
237062
234217
231377
228552
225727
222918
220104
217305
214495
211699
208885
206084
203259
200444
197596
194755
191873
188992
186059
183120
180117
177093
173986
170837
167583
164251
160803
157229
153523
149675
145690
978982
968727
958968
949683
940854
932437
924389
916669
909238
902061
895109
888354
881774
875348
869059
862892
856834
850873
845002
839210
833493
827843
822256
816727
811252
805829
800453
795122
789834
784586
779376
774202
769063
763958
758884
753842
748828
743843
738884
733952
729045
724162
719302
714466
709651
704857
700085
695333
690600
685888
681194
676520
671865
667227
662609
658008
653424
648859
644311
639779
635265
630767
626286
621820
617370
612936
608516
604111
599720
595342
590978
586628
582292
577973
573670
569386
565122
560879
556658
552461
548286
544132
540001
535888
531792
527713
523649
519600
515567
511544
507530
503521
499520
495526
491541
487567
483608
479662
475733
471817
467915
464025
460149
456282
452429
448587
444760
440946
437147
433361
429592
425840
422109
418397
414708
411039
407393
403769
400169
396588
393028
389487
385965
382461
378975
375507
372055
368616
365192
361779
358379
354990
351610
348239
344878
341530
338196
334879
331580
328301
325043
321802
318580
315372
312179
309001
305839
302692
299567
296451
293354
290264
287193
284132
281087
278052
275032
272023
269028
266049
263080
260126
257185
254260
251341
248437
245540
242655
239779
236910
234052
231199
228357
225516
222688
219856
217035
214205
211383
208547
205717
202865
200016
197139
194258
191342
188416
185445
182457
179412
176337
173191
169992
166708
163340
159872
156287
152588
148773
144854
980814
970696
961012
951741
942878
934390
926246
918415
910866
903571
896502
889635
882947
876421
870039
863785
857647
851614
845675
839823
834049
828349
822715
817144
811631
806172
800765
795405
790090
784818
779587
774393
769237
764115
759026
753969
748943
743945
738976
734034
729118
724227
719361
714518
709697
704899
700122
695366
690631
685916
681221
676545
671888
667250
662631
658030
653446
648881
644332
639801
635286
630788
626306
621839
617388
612953
608531
604124
599731
595351
590985
586633
582296
577975
573672
569388
565124
560881
556661
552463
548288
544136
540006
535896
531803
527728
523667
519622
515593
511575
507564
503557
499557
495562
491576
487601
483640
479693
475763
471846
467943
464051
460172
456303
452447
448603
444772
440953
437149
433359
429585
425828
422093
418378
414687
411018
407372
403749
400149
396569
393009
389466
385944
382439
378953
375485
372032
368593
365168
361756
358355
354966
351586
348214
344852
341502
338165
334847
331545
328265
325005
321763
318538
315329
312134
308954
305791
302643
299517
296401
293303
290211
287136
284074
281024
277988
274964
271954
268954
265973
262998
260042
257093
254166
251236
248327
245420
242529
239640
236763
233890
231025
228167
225313
222465
219618
216775
213928
211082
208226
205368
202495
199614
196711
193796
190851
187885
184883
181851
178775
175655
172481
169244
165937
162538
159052
155461
151773
147989
144125
982426
972419
962799
953549
944664
936125
927908
919988
912343
904947
897778
890812
884031
877415
870949
864617
858406
852306
846305
840396
834571
828823
823147
817536
811987
806496
801059
795672
790333
785039
779787
774575
769402
764264
759161
754091
749053
744045
739066
734115
729191
724293
719420
714571
709745
704942
700161
695401
690663
685945
681247
676569
671911
667271
662650
658048
653463
648896
644347
639814
635298
630798
626315
621846
617393
612955
608531
604121
599725
595344
590976
586623
582285
577964
573661
569378
565114
560871
556650
552452
548277
544125
539996
535888
531799
527727
523671
519630
515605
511590
507582
503576
499574
495578
491591
487615
483653
479705
475773
471854
467950
464056
460175
456304
452446
448599
444765
440942
437135
433341
429564
425805
422067
418351
414659
410991
407346
403724
400125
396546
392985
389441
385915
382408
378921
375451
371996
368558
365131
361719
358318
354931
351551
348180
344817
341468
338129
334812
331506
328227
324964
321721
318493
315284
312084
308904
305740
302591
299466
296350
293247
290156
287076
284015
280959
277926
274893
271889
268878
265903
262915
259963
256998
254077
251130
248221
245300
242409
239505
236623
233733
230861
227984
225119
222253
219395
216531
213671
210801
207929
205045
202152
199244
196318
193373
190403
187404
184374
181306
178203
175049
171852
168583
165253
161826
158327
154737
151063
147310
143490
983843
973926
964361
955131
946236
937659
929384
921394
913669
906189
898934
891884
885020
878326
871785
865382
859106
852945
846888
840928
835055
829264
823547
817901
812319
806798
801333
795922
790560
785246
779975
774746
769557
764405
759289
754207
749158
744141
739153
734194
729262
724358
719478
714623
709792
704984
700198
695435
690692
685971
681270
676590
671929
667287
662664
658059
653472
648903
644352
639817
635299
630797
626310
621839
617384
612943
608517
604104
599707
595324
590955
586600
582262
577942
573640
569356
565093
560849
556627
552428
548252
544100
539972
535865
531779
527711
523660
519624
515603
511589
507582
503574
499571
495573
491585
487606
483643
479694
475760
471839
467933
464038
460156
456283
452424
448574
444738
440913
437104
433309
429531
425771
422032
418316
414625
410958
407315
403696
400099
396519
392956
389409
385880
382369
378877
375405
371948
368509
365082
361672
358271
354886
351506
348138
344776
341428
338089
334773
331465
328186
324920
321677
318444
315235
312032
308851
305684
302539
299406
296299
293188
290101
287014
283958
280892
277866
274821
271824
268802
265837
262833
259891
256909
253994
251026
248122
245185
242295
239373
236492
233583
230708
227813
224942
222058
219189
216307
213434
210544
207657
204751
201840
198907
195962
192991
189998
186972
183917
180820
177692
174513
171293
167993
164642
161197
157691
154105
150447
146722
142940
985083
975238
965721
956511
947609
939005
930685
922638
914848
907299
899971
892849
885914
879150
872543
866078
859744
853528
847420
841413
835498
829667
823915
818235
812624
807075
801586
796152
790770
785436
780149
774904
769701
764536
759408
754316
749257
744230
739234
734268
729329
724418
719533
714672
709836
705023
700232
695464
690718
685993
681288
676604
671940
667295
662669
658061
653472
648900
644346
639809
635288
630783
626294
621820
617362
612919
608491
604077
599678
595294
590924
586570
582232
577912
573611
569329
565066
560821
556597
552396
548218
544065
539936
535830
531746
527682
523636
519603
515584
511569
507561
503549
499545
495545
491556
487575
483612
479661
475726
471802
467894
463997
460115
456241
452381
448530
444694
440869
437060
433265
429489
425731
421993
418279
414589
410925
407284
403667
400070
396489
392924
389373
385839
382325
378828
375352
371892
368452
365025
361615
358216
354832
351454
348089
344729
341384
338048
334731
331423
328144
324875
321632
318396
315184
311978
308799
305629
302486
299350
296247
293126
290050
286955
283908
280834
277812
274760
271765
268738
265773
262761
259822
256830
253914
250933
248032
245081
242186
239253
236365
233446
230564
227656
224778
221882
219003
216106
213220
210313
207412
204486
201561
198605
195644
192648
189637
186585
183508
180389
177239
174038
170793
167467
164100
160644
157137
153559
149916
146215
142466
986160
976375
966897
957703
948799
940173
931819
923727
915884
908277
900889
893705
886709
879886
873221
866702
860315
854051
847899
841850
835896
830031
824246
818538
812899
807327
801815
796361
790960
785610
780307
775048
769832
764656
759518
754416
749348
744313
739309
734335
729390
724473
719581
714715
709873
705055
700260
695487
690736
686007
681299
676611
671943
667294
662665
658054
653462
648887
644330
639790
635266
630758
626267
621791
617331
612887
608457
604042
599642
595257
590887
586534
582197
577879
573579
569298
565035
560789
556563
552359
548179
544023
539893
535787
531704
527642
523598
519568
515547
511530
507518
503503
499498
495497
491507
487526
483563
479610
475674
471747
467838
463939
460056
456180
452322
448470
444636
440812
437005
433213
429439
425683
421949
418237
414551
410889
407251
403635
400038
396456
392887
389333
385796
382277
378776
375296
371833
368390
364963
361553
358155
354773
351398
348036
344678
341336
338004
334687
331382
328102
324831
321586
318349
315135
311928
308748
305578
302434
299298
296201
293076
290003
286907
283862
280784
277763
274710
271709
268686
265714
262701
259754
256759
253836
250853
247946
244987
242084
239145
236249
233323
230433
227518
224631
221725
218835
215927
213028
210108
207193
204252
201311
198338
195359
192344
189314
186244
183145
180010
176837
173618
170347
167005
163624
160164
156660
153089
149460
145781
142059
987086
977350
967902
958723
949816
941174
932793
924665
916780
909126
901688
894453
887406
880532
873818
867251
860820
854513
848322
842237
836250
830353
824541
818806
813145
807550
802019
796547
791130
785765
780449
775178
769950
764764
759616
754505
749429
744386
739375
734395
729443
724519
719622
714751
709903
705080
700280
695502
690747
686013
681300
676608
671937
667284
662651
658038
653442
648865
644305
639762
635236
630726
626233
621756
617294
612848
608417
604002
599602
595217
590848
586495
582160
577844
573546
569265
565001
560755
556527
552321
548137
543979
539846
535738
531654
527593
523549
519518
515493
511473
507457
503441
499434
495432
491442
487461
483497
479543
475605
471677
467768
463868
459984
456108
452249
448399
444567
440745
436943
433154
429384
425632
421902
418192
414509
410850
407214
403599
400001
396417
392847
389290
385750
382227
378723
375239
371774
368328
364900
361489
358094
354712
351340
347980
344627
341288
337958
334642
331341
328059
324789
321541
318305
315089
311885
308706
305535
302388
299258
296150
293033
289959
286869
283817
280743
277715
274671
271657
268645
265660
262650
259687
256700
253759
250780
247862
244902
241993
239049
236145
233216
230317
227399
224502
221588
218687
215770
212860
209929
207001
204047
201091
198105
195109
192080
189030
185946
182828
179681
176483
173249
169956
166604
163216
159756
156253
152689
149074
145413
141713
987872
978173
968748
959578
950669
942015
933613
925458
917540
909848
902370
895093
888003
881087
874331
867724
861255
854912
848688
842571
836555
830633
824796
819040
813358
807745
802197
796710
791279
785901
780573
775291
770053
764858
759701
754582
749498
744449
739431
734444
729487
724557
719654
714777
709925
705097
700291
695509
690749
686010
681294
676598
671922
667267
662631
658014
653417
648837
644274
639729
635201
630690
626196
621717
617254
612807
608376
603960
599560
595176
590808
586456
582123
577808
573512
569232
564969
560721
556491
552282
548096
543934
539798
535687
531601
527538
523490
519455
515425
511401
507382
503367
499360
495358
491366
487385
483420
479465
475525
471599
467690
463790
459905
456030
452171
448323
444494
440676
436877
433092
429327
425578
421852
418146
414466
410808
407173
403557
399959
396374
392802
389244
385702
382177
378671
375185
371718
368271
364841
361430
358034
354653
351283
347924
344575
341239
337913
334598
331300
328017
324750
321501
318266
315049
311851
308673
305502
302357
299221
296106
292997
289914
286834
283769
280708
277669
274637
271615
268611
265613
262608
259623
256645
253688
250710
247781
244828
241911
238965
236053
233121
230215
227294
224387
221469
218557
215634
212711
209773
206834
203870
200902
197904
194894
191853
188784
185691
182554
179400
176178
172935
169624
166268
162874
159416
155913
152356
148752
145105
141425
988524
978854
969442
960277
951366
942703
934286
926110
918167
910447
902937
895626
888501
881550
874760
868120
861619
855247
848994
842852
836813
830868
825011
819237
813538
807910
802348
796848
791405
786016
780677
775386
770140
764936
759772
754646
749556
744499
739476
734483
729520
724585
719678
714796
709939
705105
700295
695508
690744
686002
681281
676582
671903
667245
662606
657988
653388
648806
644242
639696
635166
630654
626158
621678
617214
612766
608335
603919
599518
595135
590767
586417
582086
577773
573478
569200
564936
560688
556456
552246
548057
543892
539753
535638
531548
527479
523424
519384
515349
511321
507298
503284
499277
495276
491284
487304
483336
479381
475441
471517
467606
463708
459822
455950
452091
448248
444420
440608
436812
433032
429270
425526
421803
418102
414423
410767
407131
403515
399914
396328
392755
389197
385656
382130
378624
375138
371670
368222
364791
361379
357983
354600
351231
347873
344526
341191
337868
334557
331262
327978
324714
321465
318232
315016
311822
308639
305476
302330
299195
296077
292969
289879
286800
283730
280676
277634
274605
271573
268582
265562
262568
259567
256600
253622
250656
247709
244760
241834
238892
235971
233042
230125
227203
224285
221365
218445
215516
212584
209640
206690
203720
200741
197736
194713
191663
188581
185476
182324
179162
175925
172669
169352
165993
162595
159139
155636
152085
148489
144855
141189
989044
979395
969989
960826
951913
943245
934818
926628
918666
910924
903389
896052
888900
881921
875104
868438
861912
855517
849242
843079
837021
831058
825186
819396
813684
808043
802470
796959
791506
786108
780761
775462
770209
764998
759828
754696
749600
744538
739509
734512
729544
724605
719693
714807
709945
705108
700294
695504
690736
685990
681267
676564
671883
667223
662582
657961
653359
648776
644211
639663
635133
630620
626123
621642
617177
612729
608297
603880
599481
595097
590731
586382
582052
577739
573445
569168
564906
560657
556425
552213
548023
543856
539713
535594
531497
527421
523359
519313
515272
511241
507216
503201
499191
495193
491200
487223
483253
479300
475358
471435
467524
463628
459743
455874
452016
448177
444351
440543
436750
432976
429217
425478
421758
418060
414382
410726
407090
403473
399872
396285
392713
389156
385616
382091
378588
375101
371634
368184
364753
361339
357940
354556
351185
347828
344482
341148
337828
334520
331226
327944
324683
321436
318205
314991
311800
308614
305456
302306
299176
296052
292948
289849
286771
283700
280651
277601
274577
271539
268542
265510
262540
259531
256564
253568
250607
247652
244709
241769
238831
235899
232974
230048
227126
224200
221279
218351
215418
212480
209532
206572
203599
200610
197600
194568
191509
188417
185304
182142
178970
175723
172456
169141
165778
162375
158919
155418
151871
148281
144657
141002
989431
979797
970395
961232
952319
943647
935215
927014
919039
911280
903728
896371
889199
882200
875363
868678
862133
855720
849429
843251
837178
831202
825317
819516
813794
808144
802561
797042
791582
786177
780824
775519
770260
765044
759869
754732
749632
744566
739533
734532
729560
724617
719702
714813
709948
705108
700292
695498
690728
685980
681254
676550
671867
667204
662562
657940
653336
648751
644185
639636
635105
630590
626093
621612
617147
612698
608265
603849
599449
595066
590701
586353
582023
577711
573418
569140
564878
560630
556398
552185
547994
543826
539681
535557
531454
527370
523301