/*--------------------------------*- C++ -*----------------------------------*\
| =========                 |                                                 |
| \\      /  F ield         | OpenFOAM: The Open Source CFD Toolbox           |
|  \\    /   O peration     | Version:  2.4.0                                 |
|   \\  /    A nd           | Web:      www.OpenFOAM.org                      |
|    \\/     M anipulation  |                                                 |
\*---------------------------------------------------------------------------*/
FoamFile
{
    version     2.0;
    format      ascii;
    class       volVectorField;
    location    "0.35";
    object      U;
}
// * * * * * * * * * * * * * * * * * * * * * * * * * * * * * * * * * * * * * //

dimensions      [0 1 -1 0 0 0 0];

internalField   nonuniform List<vector> 
8800
(
(8.09218 0.387869 0)
(5.44828 0.242643 0)
(3.91344 0.0427175 0)
(3.15543 -0.0152198 0)
(2.80169 -0.0182472 0)
(2.59729 -0.0113974 0)
(2.48632 -0.00531028 0)
(2.37632 -0.00203743 0)
(2.32272 -0.00235458 0)
(2.24605 0.000138379 0)
(2.21903 -0.000746238 0)
(2.15945 -0.000211502 0)
(2.14773 -0.000259885 0)
(2.08973 0.00131132 0)
(2.07596 -0.000131932 0)
(2.01966 0.00191369 0)
(1.99121 0.00133698 0)
(1.93816 0.000464255 0)
(1.87939 0.0100446 0)
(1.799 -0.049344 0)
(10.0861 0.838756 0)
(9.65312 0.867876 0)
(8.87865 0.505827 0)
(8.07632 0.262919 0)
(7.49811 0.137619 0)
(7.0037 0.0812109 0)
(6.70101 0.0552868 0)
(6.39172 0.0414774 0)
(6.23722 0.0274803 0)
(6.00959 0.0269095 0)
(5.93925 0.0183947 0)
(5.76185 0.0176037 0)
(5.73094 0.0145298 0)
(5.57561 0.0199792 0)
(5.55532 0.0132722 0)
(5.4104 0.0228612 0)
(5.36686 0.0194138 0)
(5.23891 0.0257436 0)
(5.14141 0.029789 0)
(5.03943 0.00237125 0)
(10.0668 0.632067 0)
(10.649 0.862862 0)
(10.8805 0.600312 0)
(10.6809 0.375927 0)
(10.4658 0.254338 0)
(10.0813 0.195902 0)
(9.84351 0.154901 0)
(9.48538 0.123888 0)
(9.33204 0.0909384 0)
(9.01406 0.0809583 0)
(8.94531 0.0581769 0)
(8.67876 0.0533476 0)
(8.65443 0.0419356 0)
(8.4191 0.0490619 0)
(8.42064 0.0355334 0)
(8.19516 0.0503682 0)
(8.18346 0.0450749 0)
(7.97197 0.0580106 0)
(7.90723 0.0655893 0)
(7.72388 0.0055635 0)
(10.0121 0.460394 0)
(10.5512 0.703548 0)
(11.1863 0.541502 0)
(11.3639 0.358026 0)
(11.5662 0.258092 0)
(11.4527 0.226144 0)
(11.5005 0.204455 0)
(11.2885 0.176332 0)
(11.316 0.143144 0)
(11.0575 0.134474 0)
(11.1025 0.101744 0)
(10.8398 0.0960389 0)
(10.8903 0.0799304 0)
(10.6301 0.0855742 0)
(10.6962 0.064594 0)
(10.4283 0.0876557 0)
(10.4806 0.0691099 0)
(10.2214 0.107552 0)
(10.2043 0.0863934 0)
(9.96737 0.12936 0)
(10.0632 0.346816 0)
(10.3737 0.56738 0)
(11.0624 0.458822 0)
(11.31 0.29982 0)
(11.6724 0.206785 0)
(11.6594 0.190832 0)
(11.8934 0.178786 0)
(11.8086 0.173748 0)
(11.9973 0.138021 0)
(11.8712 0.143197 0)
(12.0683 0.108599 0)
(11.9021 0.112167 0)
(12.0624 0.0862202 0)
(11.898 0.110692 0)
(12.0365 0.0721538 0)
(11.8449 0.11829 0)
(11.9599 0.0775414 0)
(11.779 0.144322 0)
(11.8048 0.0989379 0)
(11.6083 0.187126 0)
(10.0843 0.261986 0)
(10.3013 0.449029 0)
(10.8743 0.361762 0)
(11.1992 0.261512 0)
(11.5533 0.156757 0)
(11.594 0.154539 0)
(11.8061 0.148997 0)
(11.841 0.138843 0)
(11.9843 0.116981 0)
(11.964 0.121153 0)
(12.1804 0.0846396 0)
(12.1452 0.101122 0)
(12.2765 0.0780023 0)
(12.2845 0.0929608 0)
(12.4139 0.0740936 0)
(12.3498 0.103619 0)
(12.4592 0.0854069 0)
(12.4506 0.124073 0)
(12.4719 0.115132 0)
(12.4085 0.0930268 0)
(10.022 0.168985 0)
(10.3539 0.369723 0)
(10.6879 0.276758 0)
(11.0974 0.197069 0)
(11.4402 0.131761 0)
(11.5472 0.114411 0)
(11.6702 0.099082 0)
(11.7936 0.125638 0)
(11.8611 0.0881896 0)
(11.9205 0.0934954 0)
(12.0672 0.0629748 0)
(12.1106 0.0812427 0)
(12.1763 0.0544129 0)
(12.2941 0.0728403 0)
(12.3845 0.0611349 0)
(12.3812 0.0929034 0)
(12.4688 0.061517 0)
(12.5486 0.0989035 0)
(12.5423 0.0852371 0)
(12.4822 0.062112 0)
(10.0136 0.112919 0)
(10.2331 0.257462 0)
(10.6733 0.205416 0)
(11.0408 0.144903 0)
(11.3243 0.0710361 0)
(11.501 0.101432 0)
(11.6277 0.0768981 0)
(11.6987 0.0704381 0)
(11.7964 0.0808881 0)
(11.8702 0.0609151 0)
(11.9885 0.0333814 0)
(12.0467 0.0750449 0)
(12.1213 0.0345755 0)
(12.2344 0.0362667 0)
(12.2906 0.0552256 0)
(12.3101 0.0739612 0)
(12.4236 0.0355729 0)
(12.5023 0.0755339 0)
(12.492 0.0712947 0)
(12.3727 0.0267345 0)
(9.99297 0.0621978 0)
(10.2355 0.171531 0)
(10.6273 0.102019 0)
(11.0141 0.0793258 0)
(11.2355 0.0683928 0)
(11.4292 0.0383283 0)
(11.6612 0.0427688 0)
(11.6388 0.0685178 0)
(11.7064 0.0313013 0)
(11.889 0.0348809 0)
(11.915 0.0277731 0)
(11.9916 0.0372524 0)
(12.121 0.0163353 0)
(12.1579 0.0294888 0)
(12.2083 0.0435826 0)
(12.3059 0.0444995 0)
(12.3861 0.00632179 0)
(12.3974 0.0424721 0)
(12.4832 0.0633006 0)
(12.3331 0.0110521 0)
(9.9632 0.0250582 0)
(10.2377 0.048019 0)
(10.6692 0.0325362 0)
(10.9457 0.0368185 0)
(11.1955 0.0129565 0)
(11.4841 0.0106816 0)
(11.532 0.0209112 0)
(11.6379 0.0295463 0)
(11.7578 0.0123156 0)
(11.8046 -0.00263251 0)
(11.8894 0.0079964 0)
(12.0116 0.02154 0)
(12.069 0.00242515 0)
(12.1136 0.00536773 0)
(12.2099 0.0241061 0)
(12.334 0.013004 0)
(12.3277 0.00186582 0)
(12.3598 0.0151797 0)
(12.4409 0.0335284 0)
(12.3648 -0.0128243 0)
(9.98485 -0.0180992 0)
(10.2536 -0.0518578 0)
(10.6055 -0.0557008 0)
(10.9443 -0.0169539 0)
(11.2564 -0.0100014 0)
(11.4274 -0.0314535 0)
(11.5208 -0.00431106 0)
(11.677 -0.00827619 0)
(11.754 -0.0230704 0)
(11.7953 -0.010664 0)
(11.9007 -0.0175423 0)
(12.0066 -0.0109217 0)
(12.0652 -0.00618058 0)
(12.115 -0.00448598 0)
(12.2331 -0.0140597 0)
(12.2697 0.00304371 0)
(12.3446 -0.0156844 0)
(12.4009 -0.0145428 0)
(12.4455 0.00588318 0)
(12.3791 -0.0262042 0)
(9.9974 -0.062137 0)
(10.259 -0.157093 0)
(10.6156 -0.123272 0)
(10.9666 -0.0852315 0)
(11.2927 -0.0556145 0)
(11.4526 -0.0409934 0)
(11.5481 -0.04464 0)
(11.6766 -0.0533418 0)
(11.7656 -0.0299266 0)
(11.8523 -0.0480414 0)
(11.9181 -0.0433331 0)
(12.0165 -0.0221064 0)
(12.0637 -0.0178905 0)
(12.1588 -0.0406878 0)
(12.2377 -0.0143829 0)
(12.3071 -0.0283444 0)
(12.3857 -0.0444358 0)
(12.3952 -0.0411233 0)
(12.4761 -0.0172072 0)
(12.3922 -0.0186271 0)
(10.0009 -0.11533 0)
(10.2724 -0.252712 0)
(10.6742 -0.209071 0)
(11.0256 -0.148793 0)
(11.3123 -0.07863 0)
(11.5037 -0.0817686 0)
(11.6003 -0.0692904 0)
(11.7166 -0.0820575 0)
(11.8195 -0.0756795 0)
(11.8896 -0.064709 0)
(11.9596 -0.0500665 0)
(12.0429 -0.0519714 0)
(12.1293 -0.0379735 0)
(12.2016 -0.047486 0)
(12.2824 -0.05004 0)
(12.3566 -0.0496591 0)
(12.4159 -0.0496571 0)
(12.457 -0.0704772 0)
(12.4883 -0.0473655 0)
(12.4417 -0.0280308 0)
(10.0162 -0.1731 0)
(10.3088 -0.363022 0)
(10.7613 -0.286669 0)
(11.0803 -0.194529 0)
(11.4082 -0.127677 0)
(11.5615 -0.10928 0)
(11.6675 -0.102481 0)
(11.7829 -0.127193 0)
(11.8985 -0.085671 0)
(11.9226 -0.0901341 0)
(12.0345 -0.079389 0)
(12.1303 -0.0690766 0)
(12.1938 -0.0506422 0)
(12.2635 -0.0815963 0)
(12.3628 -0.0535089 0)
(12.4098 -0.0713426 0)
(12.479 -0.0812855 0)
(12.523 -0.0928264 0)
(12.5542 -0.0719912 0)
(12.5216 -0.0658528 0)
(10.0685 -0.254049 0)
(10.3202 -0.461679 0)
(10.8849 -0.368917 0)
(11.1614 -0.246605 0)
(11.5514 -0.164671 0)
(11.6085 -0.146698 0)
(11.8007 -0.138913 0)
(11.8427 -0.154362 0)
(11.9952 -0.115882 0)
(11.9787 -0.114571 0)
(12.1481 -0.0970028 0)
(12.1556 -0.0961151 0)
(12.2733 -0.0685511 0)
(12.2799 -0.0965451 0)
(12.3981 -0.0760211 0)
(12.3848 -0.0973474 0)
(12.467 -0.0830925 0)
(12.4448 -0.122775 0)
(12.4867 -0.0982594 0)
(12.3882 -0.10276 0)
(10.0702 -0.349156 0)
(10.3823 -0.57004 0)
(11.0438 -0.455153 0)
(11.2935 -0.291872 0)
(11.6811 -0.21815 0)
(11.6595 -0.183519 0)
(11.898 -0.177246 0)
(11.8172 -0.183059 0)
(11.9975 -0.138076 0)
(11.876 -0.130116 0)
(12.0446 -0.122894 0)
(11.9132 -0.106231 0)
(12.0534 -0.0819714 0)
(11.9046 -0.110445 0)
(12.0296 -0.08257 0)
(11.8696 -0.0982277 0)
(11.9505 -0.0919573 0)
(11.7844 -0.130359 0)
(11.8156 -0.100407 0)
(11.5947 -0.130103 0)
(10.0203 -0.459041 0)
(10.5454 -0.706787 0)
(11.1752 -0.541054 0)
(11.3684 -0.354226 0)
(11.5702 -0.265997 0)
(11.4438 -0.220356 0)
(11.5159 -0.200998 0)
(11.2764 -0.184444 0)
(11.3187 -0.141874 0)
(11.0585 -0.126121 0)
(11.0972 -0.110868 0)
(10.8344 -0.094151 0)
(10.9038 -0.0741769 0)
(10.6206 -0.0882753 0)
(10.7056 -0.06726 0)
(10.4263 -0.0825761 0)
(10.4963 -0.0676948 0)
(10.2049 -0.11054 0)
(10.24 -0.0774097 0)
(9.91194 -0.135216 0)
(10.0702 -0.632599 0)
(10.6462 -0.863893 0)
(10.8751 -0.59927 0)
(10.6877 -0.373605 0)
(10.4601 -0.258485 0)
(10.0787 -0.192965 0)
(9.85527 -0.15332 0)
(9.47153 -0.128087 0)
(9.33765 -0.091539 0)
(9.01331 -0.0740439 0)
(8.94596 -0.0640795 0)
(8.66924 -0.0528231 0)
(8.67529 -0.0384528 0)
(8.39798 -0.0491217 0)
(8.44624 -0.0397108 0)
(8.17241 -0.0451664 0)
(8.22327 -0.0438181 0)
(7.92918 -0.0666479 0)
(7.95462 -0.0572675 0)
(7.62751 -0.0701391 0)
(10.0876 -0.83866 0)
(9.65128 -0.868178 0)
(8.87565 -0.505821 0)
(8.08144 -0.261667 0)
(7.49306 -0.13973 0)
(7.00396 -0.0804428 0)
(6.70713 -0.0533188 0)
(6.38385 -0.0438979 0)
(6.24 -0.028443 0)
(6.00903 -0.0225845 0)
(5.9422 -0.0214118 0)
(5.75411 -0.0184466 0)
(5.74562 -0.0116199 0)
(5.56092 -0.0201535 0)
(5.5777 -0.0157759 0)
(5.38709 -0.019738 0)
(5.40806 -0.0195463 0)
(5.19025 -0.0312535 0)
(5.19629 -0.0306321 0)
(4.92925 -0.00799389 0)
(8.09218 -0.387933 0)
(5.44784 -0.24261 0)
(3.91211 -0.0427901 0)
(3.15766 0.0156184 0)
(2.80047 0.0177082 0)
(2.59635 0.0114613 0)
(2.48854 0.00611114 0)
(2.37558 0.00123267 0)
(2.32128 0.00195412 0)
(2.24615 0.00123512 0)
(2.22237 -6.23714e-05 0)
(2.15571 -0.000304985 0)
(2.15164 0.00135779 0)
(2.08818 -0.00161557 0)
(2.08325 -0.000351477 0)
(2.01161 -0.00151785 0)
(2.00782 -0.000763238 0)
(1.91926 -0.00384215 0)
(1.89076 -0.00290829 0)
(1.75805 0.011376 0)
(2.01214 0.034599 0)
(2.19426 0.0549142 0)
(2.38934 -0.0254958 0)
(2.55255 -0.0956614 0)
(2.53695 -0.121532 0)
(2.61701 -0.105352 0)
(2.55879 -0.0297156 0)
(2.65105 0.042883 0)
(2.61213 0.143571 0)
(2.72041 0.164946 0)
(2.84196 0.177242 0)
(2.95148 0.200136 0)
(3.0858 0.203733 0)
(3.23533 0.194135 0)
(3.34391 0.173776 0)
(3.46752 0.139751 0)
(3.52212 0.11068 0)
(3.5955 0.07997 0)
(3.61395 0.0581736 0)
(3.66731 0.03999 0)
(3.67548 0.0198907 0)
(3.73408 0.00861518 0)
(3.74162 -0.0137332 0)
(3.81584 -0.041294 0)
(3.80898 -0.0451632 0)
(3.87192 -0.0726237 0)
(3.87448 -0.077132 0)
(3.92366 -0.082826 0)
(3.92376 -0.0756948 0)
(3.9817 -0.0668967 0)
(3.98954 -0.038913 0)
(4.05608 -0.0102317 0)
(4.10088 0.0349575 0)
(4.1704 0.0797935 0)
(4.29929 0.095307 0)
(4.40112 0.11293 0)
(4.53851 0.129779 0)
(4.66016 0.123836 0)
(4.82761 0.0975268 0)
(4.95614 0.0453694 0)
(5.09638 -0.00149623 0)
(5.23378 -0.0724922 0)
(5.3449 -0.172746 0)
(5.48102 -0.282938 0)
(5.56809 -0.41865 0)
(5.67855 -0.571309 0)
(5.70818 -0.723409 0)
(5.75662 -0.848005 0)
(5.72643 -0.909745 0)
(5.70639 -0.937851 0)
(5.68815 -0.878855 0)
(5.62117 -0.840599 0)
(5.58826 -0.796858 0)
(5.47714 -0.6768 0)
(5.45553 -0.57017 0)
(5.44429 -0.430079 0)
(5.38051 -0.297926 0)
(5.32326 -0.159458 0)
(5.28047 -0.0128363 0)
(5.26222 0.155646 0)
(5.30297 0.334001 0)
(5.39737 0.462761 0)
(5.59713 0.584053 0)
(5.83749 0.687592 0)
(6.12335 0.753936 0)
(6.40641 0.810535 0)
(6.68686 0.726862 0)
(6.93731 0.689869 0)
(7.28028 0.705016 0)
(7.56476 0.47908 0)
(7.75329 0.317953 0)
(8.13162 0.192641 0)
(8.36014 -0.123245 0)
(8.55065 -0.37773 0)
(8.85231 -0.65347 0)
(9.0414 -0.986305 0)
(9.07234 -1.15133 0)
(9.52083 -1.5204 0)
(9.75003 -1.74993 0)
(9.87492 -1.89025 0)
(10.4208 -2.31764 0)
(10.9315 -2.56114 0)
(10.9601 -2.69871 0)
(11.7831 -3.10177 0)
(12.0853 -3.37684 0)
(12.2707 -3.52319 0)
(12.797 -3.8328 0)
(13.0003 -4.05759 0)
(13.1244 -4.14934 0)
(13.2009 -4.36684 0)
(13.3534 -4.40189 0)
(13.1177 -4.48052 0)
(13.1342 -4.47679 0)
(12.8126 -4.45277 0)
(12.8778 -4.3924 0)
(12.3654 -4.32198 0)
(12.5035 -4.27998 0)
(12.1393 -4.17901 0)
(12.1384 -4.09473 0)
(12.0524 -4.01536 0)
(11.9528 -4.06688 0)
(12.0591 -3.84223 0)
(11.8039 -3.9084 0)
(12.1148 -3.84987 0)
(11.8741 -3.73551 0)
(11.9504 -3.68802 0)
(11.9899 -3.41381 0)
(11.9422 -3.44268 0)
(12.039 -3.14619 0)
(11.9189 -2.92198 0)
(11.9324 -2.57902 0)
(11.9653 -2.31467 0)
(11.9388 -1.98487 0)
(11.8373 -1.51419 0)
(11.6849 -1.07638 0)
(11.4957 -0.571006 0)
(11.4009 -0.159731 0)
(11.1158 0.219049 0)
(10.9926 0.666102 0)
(10.6358 1.03239 0)
(10.3156 1.41579 0)
(10.003 1.8201 0)
(9.6931 2.04994 0)
(9.28686 2.31044 0)
(9.00124 2.69802 0)
(8.62236 2.65649 0)
(8.24627 2.66788 0)
(7.84034 3.01501 0)
(7.55531 3.35781 0)
(7.18037 2.98227 0)
(6.75745 2.21282 0)
(6.57712 2.31839 0)
(6.45858 3.57403 0)
(6.57747 5.40378 0)
(6.62767 6.78129 0)
(6.58839 7.87193 0)
(6.54878 8.87385 0)
(6.63116 9.36429 0)
(6.14807 9.21261 0)
(6.79274 8.72567 0)
(6.13514 7.6934 0)
(6.42028 6.93455 0)
(6.24106 5.96056 0)
(6.48058 5.0337 0)
(6.38066 4.10177 0)
(6.39012 3.18144 0)
(6.35453 2.30553 0)
(6.46871 1.35949 0)
(6.41782 0.560666 0)
(6.85576 -0.145159 0)
(6.85733 -0.9802 0)
(7.31157 -1.66379 0)
(7.11705 -2.45641 0)
(7.84617 -3.24642 0)
(7.46727 -4.10433 0)
(8.45392 -4.97078 0)
(7.94129 -5.85871 0)
(8.78072 -6.38913 0)
(8.19583 -6.65831 0)
(8.48271 -6.36716 0)
(8.33922 -6.27925 0)
(8.429 -5.86757 0)
(8.18589 -5.395 0)
(8.49201 -4.68316 0)
(8.16408 -4.29962 0)
(8.63308 -3.76556 0)
(8.34856 -3.38785 0)
(8.33866 -2.60244 0)
(8.22386 -2.12933 0)
(8.30087 -1.71564 0)
(8.18597 -1.16051 0)
(8.26635 -0.972248 0)
(8.12964 -0.708695 0)
(8.15202 -0.340408 0)
(7.74373 -0.12627 0)
(7.97473 -0.0365871 0)
(7.94247 -0.0123503 0)
(8.12023 0.0983551 0)
(8.37716 -0.0432929 0)
(8.48668 0.118082 0)
(8.4264 -0.0200042 0)
(8.43523 0.112952 0)
(8.96726 0.23523 0)
(9.10472 0.16226 0)
(9.6092 0.646532 0)
(9.8714 0.842671 0)
(9.76779 1.24388 0)
(9.73474 1.84131 0)
(9.7646 2.48874 0)
(9.5719 3.1867 0)
(9.27701 3.3801 0)
(8.99514 4.12522 0)
(8.68083 4.66023 0)
(8.22445 4.77827 0)
(7.90769 6.2199 0)
(7.818 7.42793 0)
(7.48355 8.31152 0)
(7.4856 9.852 0)
(7.68902 11.8783 0)
(4.5783 15.2573 0)
(5.06587 0.0108233 0)
(5.08314 0.0267797 0)
(5.0958 -0.0367532 0)
(5.18462 -0.113651 0)
(5.20932 -0.141834 0)
(5.26874 -0.12578 0)
(5.24962 -0.0658066 0)
(5.26564 -0.00537111 0)
(5.24811 0.0655605 0)
(5.25964 0.112734 0)
(5.28895 0.13149 0)
(5.33257 0.146873 0)
(5.37274 0.145137 0)
(5.43619 0.133063 0)
(5.48423 0.11526 0)
(5.54261 0.0879579 0)
(5.58175 0.0643735 0)
(5.62083 0.037684 0)
(5.6473 0.0209837 0)
(5.6803 -8.84256e-05 0)
(5.70409 -0.015025 0)
(5.74051 -0.03519 0)
(5.76147 -0.0481559 0)
(5.81217 -0.0725101 0)
(5.83198 -0.083755 0)
(5.8839 -0.095985 0)
(5.89976 -0.108085 0)
(5.95936 -0.108267 0)
(5.96988 -0.107394 0)
(6.03222 -0.099677 0)
(6.05343 -0.0819966 0)
(6.11227 -0.0613088 0)
(6.16548 -0.0347761 0)
(6.21597 -0.00653667 0)
(6.32168 0.0115177 0)
(6.3938 0.0198661 0)
(6.52673 0.0188701 0)
(6.61133 0.0157483 0)
(6.74786 -0.0212128 0)
(6.88242 -0.0591639 0)
(6.98839 -0.113647 0)
(7.14395 -0.197081 0)
(7.23383 -0.265351 0)
(7.38493 -0.393084 0)
(7.47997 -0.492177 0)
(7.58905 -0.618726 0)
(7.67261 -0.740674 0)
(7.71925 -0.823151 0)
(7.75133 -0.896826 0)
(7.74446 -0.911257 0)
(7.70778 -0.907527 0)
(7.69045 -0.855572 0)
(7.6524 -0.774468 0)
(7.61371 -0.653552 0)
(7.58941 -0.51779 0)
(7.54448 -0.400374 0)
(7.51108 -0.270204 0)
(7.46095 -0.121819 0)
(7.45665 0.025781 0)
(7.43455 0.180691 0)
(7.4197 0.339385 0)
(7.41834 0.403265 0)
(7.43378 0.53993 0)
(7.56989 0.584221 0)
(7.65627 0.542155 0)
(7.79182 0.617401 0)
(8.05871 0.540358 0)
(8.13788 0.448481 0)
(8.42267 0.415515 0)
(8.74393 0.259506 0)
(8.83819 0.0933207 0)
(9.19963 -0.0795818 0)
(9.54666 -0.351589 0)
(9.54696 -0.540382 0)
(10.0527 -0.868612 0)
(10.2975 -1.20652 0)
(10.3924 -1.32015 0)
(10.9493 -1.70318 0)
(11.1853 -2.06847 0)
(11.4349 -2.15171 0)
(11.981 -2.6011 0)
(12.222 -2.84245 0)
(12.5772 -3.03688 0)
(12.8871 -3.37616 0)
(13.1297 -3.59537 0)
(13.2661 -3.7796 0)
(13.4972 -3.98938 0)
(13.433 -4.12501 0)
(13.4164 -4.22671 0)
(13.4649 -4.37263 0)
(13.0852 -4.30301 0)
(13.0953 -4.36421 0)
(12.8094 -4.35504 0)
(12.6399 -4.26395 0)
(12.4158 -4.20915 0)
(12.3998 -4.2346 0)
(12.2455 -4.11542 0)
(12.1445 -4.02358 0)
(12.2421 -4.09225 0)
(12.1804 -3.98884 0)
(12.0835 -4.00375 0)
(12.1572 -3.82979 0)
(12.0453 -3.99403 0)
(12.0741 -3.79636 0)
(11.8827 -3.68611 0)
(11.9108 -3.69102 0)
(11.9397 -3.51485 0)
(11.7871 -3.40161 0)
(11.7361 -3.09175 0)
(11.7766 -2.87785 0)
(11.6206 -2.63024 0)
(11.7442 -2.25586 0)
(11.546 -1.80219 0)
(11.4417 -1.40911 0)
(11.4342 -0.853913 0)
(11.2346 -0.504968 0)
(11.184 0.0115317 0)
(10.8841 0.385749 0)
(10.7461 0.917198 0)
(10.4265 1.26111 0)
(10.1476 1.75898 0)
(9.82471 2.05417 0)
(9.57484 2.38702 0)
(9.25762 2.57686 0)
(8.92155 2.94566 0)
(8.57477 2.95084 0)
(8.25081 2.94554 0)
(7.94627 3.23833 0)
(7.61282 3.55137 0)
(7.26909 3.26628 0)
(6.7689 2.4647 0)
(6.49334 2.47709 0)
(6.36463 3.58609 0)
(6.4277 5.2406 0)
(6.59378 6.73371 0)
(6.70054 7.76698 0)
(6.51028 8.79923 0)
(6.96073 9.47884 0)
(6.34827 9.23302 0)
(7.003 8.76249 0)
(6.70964 7.80613 0)
(6.69242 7.06193 0)
(6.91076 6.05713 0)
(6.84874 5.0272 0)
(6.94421 4.06978 0)
(6.92819 3.2153 0)
(7.0445 2.33949 0)
(7.11623 1.25229 0)
(7.18008 0.35931 0)
(7.54741 -0.288389 0)
(7.60634 -1.05606 0)
(7.84315 -1.8631 0)
(7.88946 -2.75536 0)
(8.42433 -3.55287 0)
(8.29163 -4.50164 0)
(9.05646 -5.32049 0)
(8.62809 -6.11963 0)
(9.48019 -6.48795 0)
(8.65696 -6.63787 0)
(9.22284 -6.3472 0)
(8.80333 -6.22819 0)
(8.89363 -5.88085 0)
(8.72555 -5.33298 0)
(8.7753 -4.67734 0)
(8.69656 -4.36362 0)
(8.87581 -3.79386 0)
(8.36335 -3.19073 0)
(8.69129 -2.54595 0)
(8.40338 -2.26674 0)
(8.36624 -1.49199 0)
(8.18526 -1.19047 0)
(8.20196 -0.915555 0)
(8.00374 -0.453146 0)
(7.67791 -0.187538 0)
(7.62494 0.000424864 0)
(7.64698 0.0056288 0)
(7.8974 -0.139104 0)
(8.03029 -0.140096 0)
(7.88735 0.0275705 0)
(7.82478 0.137956 0)
(8.02625 0.00924366 0)
(8.57968 -0.264173 0)
(9.23603 -0.240425 0)
(9.71494 -0.141401 0)
(10.1156 0.258155 0)
(10.4723 0.838935 0)
(10.3742 1.13978 0)
(10.5726 1.89724 0)
(10.2993 2.5004 0)
(10.2634 3.29892 0)
(10.1577 3.63469 0)
(9.61599 3.89091 0)
(9.60339 5.1073 0)
(9.11921 5.48322 0)
(8.62755 5.91028 0)
(8.70244 7.31782 0)
(8.4435 8.71526 0)
(8.07371 10.0155 0)
(10.5558 10.8753 0)
(7.50945 16.4496 0)
(7.72188 -0.0295081 0)
(7.73247 -0.0314196 0)
(7.72533 -0.0652133 0)
(7.77533 -0.100291 0)
(7.81148 -0.113335 0)
(7.85639 -0.0928627 0)
(7.86144 -0.046951 0)
(7.85532 0.0110849 0)
(7.84508 0.0631864 0)
(7.82665 0.107719 0)
(7.83812 0.12865 0)
(7.83967 0.137739 0)
(7.87811 0.136867 0)
(7.8891 0.121468 0)
(7.93539 0.106286 0)
(7.94942 0.0775086 0)
(7.98409 0.0552049 0)
(8.00177 0.0304381 0)
(8.01448 0.00362104 0)
(8.03873 -0.0104801 0)
(8.04362 -0.0369784 0)
(8.07748 -0.0537947 0)
(8.07585 -0.0652763 0)
(8.12707 -0.096214 0)
(8.12048 -0.0962959 0)
(8.17712 -0.122904 0)
(8.17898 -0.124402 0)
(8.22352 -0.131684 0)
(8.24616 -0.134912 0)
(8.28117 -0.124091 0)
(8.3211 -0.121172 0)
(8.3556 -0.0978181 0)
(8.41791 -0.0910498 0)
(8.45006 -0.0647489 0)
(8.54174 -0.0605459 0)
(8.58982 -0.052842 0)
(8.70187 -0.0655274 0)
(8.76704 -0.0767437 0)
(8.88048 -0.106251 0)
(8.9771 -0.161391 0)
(9.0808 -0.198503 0)
(9.19521 -0.293737 0)
(9.27489 -0.358033 0)
(9.40914 -0.45546 0)
(9.46467 -0.57057 0)
(9.58144 -0.654136 0)
(9.62607 -0.770565 0)
(9.67249 -0.842165 0)
(9.69193 -0.896558 0)
(9.66764 -0.932362 0)
(9.64711 -0.896016 0)
(9.60672 -0.855775 0)
(9.57252 -0.764047 0)
(9.51367 -0.645985 0)
(9.48284 -0.544278 0)
(9.41558 -0.375639 0)
(9.41551 -0.260112 0)
(9.37754 -0.0964427 0)
(9.39003 0.0773111 0)
(9.38443 0.156346 0)
(9.37389 0.341198 0)
(9.45186 0.410939 0)
(9.38738 0.476763 0)
(9.51383 0.56347 0)
(9.62486 0.499087 0)
(9.57412 0.529713 0)
(9.91215 0.43402 0)
(9.88131 0.362283 0)
(10.0804 0.276755 0)
(10.3838 0.0644991 0)
(10.4525 -0.0394835 0)
(10.7087 -0.266656 0)
(11.1084 -0.587335 0)
(11.1117 -0.724445 0)
(11.5484 -1.06567 0)
(11.8519 -1.40648 0)
(12.0086 -1.55888 0)
(12.3405 -1.98054 0)
(12.7121 -2.21894 0)
(12.7772 -2.49782 0)
(13.2418 -2.79122 0)
(13.2602 -3.0179 0)
(13.5523 -3.31252 0)
(13.5645 -3.50978 0)
(13.6777 -3.64278 0)
(13.6402 -3.89455 0)
(13.6291 -4.00101 0)
(13.3693 -4.01818 0)
(13.4166 -4.23276 0)
(13.0749 -4.17484 0)
(12.8662 -4.15522 0)
(12.8416 -4.23003 0)
(12.4655 -4.16548 0)
(12.4881 -4.11343 0)
(12.3709 -4.13888 0)
(12.4118 -4.12237 0)
(12.2565 -4.02339 0)
(12.4192 -4.08362 0)
(12.3559 -4.08015 0)
(12.2844 -3.91664 0)
(12.2093 -3.98467 0)
(12.1515 -3.84895 0)
(11.9782 -3.83114 0)
(11.7968 -3.7138 0)
(11.7483 -3.66314 0)
(11.522 -3.62212 0)
(11.5649 -3.43665 0)
(11.2527 -3.24242 0)
(11.205 -3.13452 0)
(11.2462 -2.83165 0)
(10.9168 -2.57205 0)
(11.1359 -2.13639 0)
(10.8678 -1.75916 0)
(10.8703 -1.36518 0)
(10.8578 -0.782642 0)
(10.698 -0.446774 0)
(10.5942 0.160361 0)
(10.4474 0.561799 0)
(10.2361 1.14819 0)
(10.0013 1.50022 0)
(9.80384 1.99591 0)
(9.56844 2.30362 0)
(9.34601 2.56036 0)
(9.16406 2.78093 0)
(8.82537 3.1601 0)
(8.54132 3.21608 0)
(8.12703 3.18941 0)
(7.85858 3.55469 0)
(7.52124 3.84345 0)
(7.17384 3.60799 0)
(6.69961 2.86054 0)
(6.3409 2.6951 0)
(6.23179 3.62274 0)
(6.29341 5.08097 0)
(6.38879 6.65754 0)
(6.81005 7.75051 0)
(6.42162 8.70576 0)
(7.13475 9.44913 0)
(6.7134 9.23144 0)
(7.07318 8.68254 0)
(7.21909 7.77986 0)
(7.10292 7.04666 0)
(7.38141 6.07468 0)
(7.34083 5.07528 0)
(7.63855 4.08325 0)
(7.56636 3.25524 0)
(7.68605 2.26508 0)
(7.96214 1.14411 0)
(7.94259 0.290454 0)
(8.12557 -0.389243 0)
(8.27162 -1.32375 0)
(8.46965 -2.11171 0)
(8.65965 -2.86548 0)
(8.97435 -3.57862 0)
(9.12927 -4.45765 0)
(9.68443 -5.36783 0)
(9.37851 -6.09788 0)
(10.0582 -6.44132 0)
(9.15259 -6.53699 0)
(9.79457 -6.2885 0)
(9.08146 -6.16555 0)
(9.4197 -5.77558 0)
(9.04515 -5.22705 0)
(9.02951 -4.73226 0)
(9.24119 -4.32044 0)
(8.87854 -3.61945 0)
(8.67216 -3.06122 0)
(8.82987 -2.63451 0)
(8.25126 -1.98726 0)
(8.3497 -1.31936 0)
(8.09732 -1.24988 0)
(8.02082 -0.730967 0)
(7.52129 -0.302003 0)
(7.28095 -0.11169 0)
(7.3603 -0.0117442 0)
(7.59448 -0.373128 0)
(7.49213 -0.295603 0)
(7.28454 0.177373 0)
(7.06346 0.0422509 0)
(7.6147 0.0220553 0)
(8.2396 -0.70473 0)
(9.19661 -0.909746 0)
(9.68672 -0.781149 0)
(10.3421 -0.624079 0)
(10.592 -0.0945466 0)
(11.0233 0.6466 0)
(10.9199 0.977262 0)
(11.121 1.71373 0)
(11.1007 2.73006 0)
(10.6835 3.16737 0)
(10.8463 3.98241 0)
(10.5508 4.26702 0)
(10.3386 4.80275 0)
(10.4624 5.66323 0)
(9.61735 6.6289 0)
(9.62262 7.65103 0)
(9.93499 8.21418 0)
(8.18165 10.5602 0)
(12.9157 9.36405 0)
(10.0404 16.336 0)
(9.95415 -0.0641379 0)
(9.97236 -0.16771 0)
(9.9847 -0.211696 0)
(10.0235 -0.201304 0)
(10.0698 -0.162969 0)
(10.0841 -0.112438 0)
(10.105 -0.0533815 0)
(10.0731 0.000659212 0)
(10.082 0.0477051 0)
(10.0414 0.0904142 0)
(10.0658 0.1114 0)
(10.0415 0.127988 0)
(10.0822 0.118056 0)
(10.0774 0.110278 0)
(10.1111 0.085625 0)
(10.1276 0.0642361 0)
(10.1433 0.0393241 0)
(10.168 0.0163827 0)
(10.1711 -0.00354894 0)
(10.1915 -0.0292931 0)
(10.1924 -0.0427238 0)
(10.2158 -0.0722495 0)
(10.2046 -0.0794765 0)
(10.2476 -0.112382 0)
(10.2225 -0.113291 0)
(10.2799 -0.138421 0)
(10.2632 -0.142863 0)
(10.3087 -0.144819 0)
(10.323 -0.156383 0)
(10.3422 -0.143632 0)
(10.3929 -0.148608 0)
(10.3917 -0.13324 0)
(10.468 -0.130202 0)
(10.4698 -0.115607 0)
(10.5486 -0.122097 0)
(10.5845 -0.106664 0)
(10.6593 -0.139231 0)
(10.7187 -0.141245 0)
(10.8014 -0.179285 0)
(10.8732 -0.230276 0)
(10.947 -0.27069 0)
(11.0468 -0.364628 0)
(11.0803 -0.414158 0)
(11.192 -0.525871 0)
(11.2145 -0.60277 0)
(11.2808 -0.696025 0)
(11.3082 -0.786466 0)
(11.3077 -0.843039 0)
(11.2977 -0.896703 0)
(11.2618 -0.902708 0)
(11.2075 -0.881764 0)
(11.1482 -0.820449 0)
(11.0922 -0.748517 0)
(11.0084 -0.635313 0)
(10.9738 -0.516519 0)
(10.8855 -0.373704 0)
(10.9248 -0.238849 0)
(10.8376 -0.0738808 0)
(10.9031 0.0564845 0)
(10.9347 0.165163 0)
(10.9049 0.317758 0)
(11.0968 0.352834 0)
(11.0244 0.479813 0)
(11.1569 0.48069 0)
(11.345 0.461984 0)
(11.2469 0.490742 0)
(11.5842 0.321873 0)
(11.6222 0.28238 0)
(11.6679 0.159112 0)
(12.0949 -0.0930542 0)
(11.9933 -0.199476 0)
(12.3254 -0.440005 0)
(12.5823 -0.728295 0)
(12.6062 -0.944855 0)
(12.9912 -1.20347 0)
(13.1242 -1.5741 0)
(13.2624 -1.78244 0)
(13.5589 -2.11634 0)
(13.5287 -2.37816 0)
(13.8322 -2.64145 0)
(13.7248 -2.91133 0)
(13.8821 -3.09615 0)
(13.7611 -3.37475 0)
(13.8281 -3.47414 0)
(13.5426 -3.65452 0)
(13.5793 -3.83764 0)
(13.3197 -3.85943 0)
(13.1069 -3.97592 0)
(13.0888 -4.04872 0)
(12.7269 -4.02066 0)
(12.6981 -4.05491 0)
(12.5786 -4.10908 0)
(12.4956 -4.07758 0)
(12.4984 -4.07508 0)
(12.4662 -4.13901 0)
(12.5521 -4.08986 0)
(12.4235 -4.11197 0)
(12.5451 -4.04603 0)
(12.3381 -3.99792 0)
(12.2666 -3.90243 0)
(12.0489 -3.83878 0)
(11.8438 -3.72154 0)
(11.622 -3.66355 0)
(11.2935 -3.60117 0)
(11.2282 -3.48406 0)
(10.7923 -3.42971 0)
(10.8273 -3.26978 0)
(10.3546 -3.18696 0)
(10.3538 -3.05319 0)
(10.2266 -2.67408 0)
(9.91333 -2.53416 0)
(10.1332 -2.04122 0)
(9.86459 -1.69238 0)
(9.95919 -1.30439 0)
(9.94269 -0.77442 0)
(9.82549 -0.283984 0)
(9.71956 0.20822 0)
(9.75451 0.775408 0)
(9.57924 1.21814 0)
(9.60961 1.58198 0)
(9.37911 2.07209 0)
(9.32586 2.47421 0)
(8.99087 2.68134 0)
(8.86491 3.08364 0)
(8.56937 3.35043 0)
(8.21026 3.5207 0)
(7.91979 3.4218 0)
(7.66611 3.76183 0)
(7.32097 4.08925 0)
(7.00283 3.87592 0)
(6.5793 3.21013 0)
(6.20372 2.87934 0)
(6.02136 3.73946 0)
(6.30199 4.9274 0)
(6.13276 6.46968 0)
(6.86765 7.71706 0)
(6.41358 8.58936 0)
(7.07532 9.33093 0)
(7.03068 9.17489 0)
(7.17174 8.52999 0)
(7.53972 7.69113 0)
(7.41322 6.84278 0)
(7.67561 5.8442 0)
(7.87449 4.94048 0)
(8.13842 3.94551 0)
(8.17634 3.1026 0)
(8.38365 2.12242 0)
(8.60562 1.07019 0)
(8.47276 0.183398 0)
(8.7211 -0.557071 0)
(8.98147 -1.41844 0)
(9.19656 -2.14809 0)
(9.2679 -2.95016 0)
(9.52552 -3.89132 0)
(9.88468 -5.01186 0)
(10.134 -5.7783 0)
(10.0471 -6.37897 0)
(10.3534 -6.52253 0)
(9.64989 -6.48271 0)
(10.261 -6.31307 0)
(9.38586 -6.04565 0)
(9.86871 -5.67296 0)
(9.19436 -5.19029 0)
(9.4651 -4.71342 0)
(9.36633 -4.21959 0)
(8.833 -3.46672 0)
(8.99777 -2.95972 0)
(8.48018 -2.38382 0)
(8.23756 -1.66561 0)
(8.05114 -1.3783 0)
(7.81768 -0.932546 0)
(7.39744 -0.326349 0)
(6.89312 -0.00630544 0)
(6.89626 0.0590211 0)
(7.27475 -0.326986 0)
(6.80175 -0.23329 0)
(6.49111 0.298924 0)
(6.34939 0.101819 0)
(6.9902 -0.221935 0)
(7.88534 -1.00846 0)
(8.73509 -1.27099 0)
(9.39708 -1.50765 0)
(9.98194 -1.26368 0)
(10.3374 -0.953041 0)
(10.5761 -0.285923 0)
(10.5869 0.526273 0)
(10.7112 1.10597 0)
(10.6967 1.84884 0)
(10.8388 2.86469 0)
(10.6576 3.43311 0)
(10.5922 3.94487 0)
(10.8515 4.39852 0)
(10.5225 5.27522 0)
(11.3108 5.81831 0)
(11.0788 6.14382 0)
(10.1301 8.12289 0)
(12.6509 8.18579 0)
(8.41029 11.2347 0)
(13.3842 6.23196 0)
(11.6056 15.1986 0)
(11.4954 -0.0403943 0)
(11.5379 -0.189937 0)
(11.6435 -0.245923 0)
(11.7094 -0.23181 0)
(11.7714 -0.178586 0)
(11.7586 -0.114151 0)
(11.7706 -0.0519266 0)
(11.7208 0.00651677 0)
(11.7184 0.040431 0)
(11.6774 0.08676 0)
(11.6918 0.0937282 0)
(11.6794 0.11898 0)
(11.7099 0.103533 0)
(11.7243 0.102143 0)
(11.7482 0.0821061 0)
(11.7734 0.0541985 0)
(11.7817 0.0365088 0)
(11.8016 0.00453034 0)
(11.8029 -0.0170167 0)
(11.8155 -0.0373837 0)
(11.8168 -0.0567085 0)
(11.8333 -0.0807563 0)
(11.8189 -0.0796775 0)
(11.8573 -0.127913 0)
(11.8211 -0.107227 0)
(11.8694 -0.152269 0)
(11.8445 -0.148815 0)
(11.8765 -0.154441 0)
(11.8845 -0.173098 0)
(11.9003 -0.155422 0)
(11.9261 -0.171377 0)
(11.947 -0.150307 0)
(11.971 -0.161167 0)
(11.998 -0.142351 0)
(12.0374 -0.164617 0)
(12.0528 -0.145214 0)
(12.1233 -0.189753 0)
(12.1325 -0.19114 0)
(12.2095 -0.231391 0)
(12.2415 -0.290139 0)
(12.2827 -0.307607 0)
(12.3595 -0.426628 0)
(12.3508 -0.437754 0)
(12.4265 -0.559267 0)
(12.416 -0.625165 0)
(12.4322 -0.679399 0)
(12.4264 -0.79173 0)
(12.3925 -0.801634 0)
(12.3369 -0.855162 0)
(12.3072 -0.865598 0)
(12.1933 -0.806907 0)
(12.1492 -0.787763 0)
(12.051 -0.695754 0)
(11.9575 -0.581435 0)
(11.9117 -0.500384 0)
(11.8139 -0.333445 0)
(11.823 -0.225459 0)
(11.7769 -0.0883241 0)
(11.7998 0.0470731 0)
(11.8804 0.136245 0)
(11.8612 0.263615 0)
(12.1056 0.278824 0)
(12.0333 0.407254 0)
(12.2879 0.38235 0)
(12.3742 0.367966 0)
(12.4615 0.401762 0)
(12.6942 0.2039 0)
(12.7846 0.201769 0)
(12.8994 0.0156483 0)
(13.1504 -0.184626 0)
(13.188 -0.321922 0)
(13.4298 -0.588617 0)
(13.5085 -0.812975 0)
(13.6555 -1.0725 0)
(13.806 -1.37642 0)
(13.795 -1.60523 0)
(14.0144 -1.94932 0)
(13.9144 -2.18141 0)
(13.9462 -2.40761 0)
(13.9974 -2.72769 0)
(13.7484 -2.87747 0)
(13.8083 -3.08402 0)
(13.6119 -3.31742 0)
(13.4208 -3.39697 0)
(13.3391 -3.5934 0)
(13.1705 -3.71544 0)
(12.9604 -3.71368 0)
(12.9299 -3.91251 0)
(12.7887 -3.88425 0)
(12.6061 -3.91788 0)
(12.6944 -4.04026 0)
(12.6241 -4.02559 0)
(12.5304 -4.07222 0)
(12.6626 -4.12016 0)
(12.564 -4.14667 0)
(12.5376 -4.08527 0)
(12.4757 -4.06315 0)
(12.3499 -3.97948 0)
(12.111 -3.84452 0)
(11.8835 -3.71605 0)
(11.5881 -3.63749 0)
(11.2426 -3.48863 0)
(10.8847 -3.41048 0)
(10.5329 -3.35796 0)
(10.2179 -3.21868 0)
(9.74697 -3.20291 0)
(9.59802 -3.06176 0)
(9.04825 -3.00481 0)
(9.01071 -2.84549 0)
(8.5959 -2.57187 0)
(8.55844 -2.40717 0)
(8.66525 -2.01767 0)
(8.53767 -1.62939 0)
(8.52169 -1.13445 0)
(8.71231 -0.739681 0)
(8.72638 -0.248868 0)
(8.67412 0.178062 0)
(8.95962 0.79836 0)
(8.72611 1.21481 0)
(8.72096 1.8129 0)
(8.64864 2.19971 0)
(8.45614 2.75309 0)
(8.1758 2.90123 0)
(8.06615 3.34693 0)
(7.82118 3.6858 0)
(7.53146 3.77508 0)
(7.29542 3.67123 0)
(7.19513 3.97146 0)
(7.01461 4.38153 0)
(6.73865 4.11526 0)
(6.2798 3.62383 0)
(6.13018 3.09594 0)
(5.69766 3.7937 0)
(6.24457 4.86892 0)
(5.85592 6.23013 0)
(6.7431 7.56893 0)
(6.58867 8.45533 0)
(6.94182 9.10369 0)
(7.17323 8.96434 0)
(7.36129 8.31617 0)
(7.62366 7.54174 0)
(7.74235 6.61611 0)
(8.00814 5.63986 0)
(8.2807 4.68717 0)
(8.49122 3.75294 0)
(8.73018 3.00103 0)
(8.85924 2.0317 0)
(9.13625 0.890241 0)
(9.17917 0.104508 0)
(9.41857 -0.583004 0)
(9.50895 -1.49363 0)
(9.78353 -2.4722 0)
(9.89909 -3.34388 0)
(10.272 -4.11067 0)
(10.6266 -5.00219 0)
(10.6411 -5.57448 0)
(10.6902 -6.04699 0)
(10.6835 -6.20361 0)
(10.1847 -6.23039 0)
(10.4835 -6.10381 0)
(9.70619 -5.81755 0)
(10.1059 -5.53759 0)
(9.34284 -5.10912 0)
(9.81697 -4.63137 0)
(9.17621 -3.96268 0)
(8.94006 -3.20526 0)