/*--------------------------------*- C++ -*----------------------------------*\
| =========                 |                                                 |
| \\      /  F ield         | OpenFOAM: The Open Source CFD Toolbox           |
|  \\    /   O peration     | Version:  2.4.0                                 |
|   \\  /    A nd           | Web:      www.OpenFOAM.org                      |
|    \\/     M anipulation  |                                                 |
\*---------------------------------------------------------------------------*/
FoamFile
{
    version     2.0;
    format      ascii;
    class       volVectorField;
    location    "0.35";
    object      U_0;
}
// * * * * * * * * * * * * * * * * * * * * * * * * * * * * * * * * * * * * * //

dimensions      [0 1 -1 0 0 0 0];

internalField   nonuniform List<vector> 
8800
(
(8.09214 0.387872 0)
(5.44833 0.24264 0)
(3.91347 0.0427207 0)
(3.15531 -0.0152017 0)
(2.80175 -0.0182816 0)
(2.5973 -0.0113824 0)
(2.48626 -0.00528001 0)
(2.37637 -0.00209128 0)
(2.32279 -0.00234014 0)
(2.246 0.00018083 0)
(2.21896 -0.000788053 0)
(2.15954 -0.000214044 0)
(2.1477 -0.000223138 0)
(2.08968 0.00128841 0)
(2.076 -0.000142922 0)
(2.0197 0.00194003 0)
(1.99121 0.00132324 0)
(1.93807 0.000478788 0)
(1.87963 0.0100032 0)
(1.79876 -0.0492351 0)
(10.086 0.838767 0)
(9.65332 0.867813 0)
(8.87864 0.50588 0)
(8.0761 0.262972 0)
(7.49836 0.137496 0)
(7.00353 0.0812832 0)
(6.70095 0.0553618 0)
(6.39199 0.0413136 0)
(6.23706 0.0275402 0)
(6.00959 0.0270325 0)
(5.93927 0.0182521 0)
(5.76184 0.017604 0)
(5.73088 0.0146447 0)
(5.57571 0.0198995 0)
(5.55529 0.0132351 0)
(5.41043 0.022934 0)
(5.36702 0.0193864 0)
(5.23866 0.0257479 0)
(5.14196 0.0297011 0)
(5.039 0.00264212 0)
(10.0665 0.632069 0)
(10.6494 0.862798 0)
(10.8805 0.600428 0)
(10.6806 0.375959 0)
(10.4662 0.25416 0)
(10.081 0.196026 0)
(9.84341 0.154955 0)
(9.48586 0.123665 0)
(9.33171 0.0910568 0)
(9.01416 0.0811244 0)
(8.9454 0.0579795 0)
(8.67861 0.0533391 0)
(8.6543 0.0420881 0)
(8.41934 0.0489513 0)
(8.42053 0.0354844 0)
(8.19514 0.0504589 0)
(8.1838 0.0450372 0)
(7.97159 0.0580393 0)
(7.90793 0.065379 0)
(7.72332 0.00604178 0)
(10.0118 0.460412 0)
(10.5517 0.703208 0)
(11.1866 0.541856 0)
(11.3633 0.358117 0)
(11.5664 0.2577 0)
(11.4526 0.226529 0)
(11.5003 0.204453 0)
(11.2891 0.175913 0)
(11.3157 0.143474 0)
(11.0578 0.134585 0)
(11.1026 0.101425 0)
(10.8395 0.096196 0)
(10.8901 0.0800767 0)
(10.6303 0.085345 0)
(10.6961 0.0646142 0)
(10.4281 0.0877275 0)
(10.4811 0.0690789 0)
(10.2209 0.107604 0)
(10.2054 0.0860007 0)
(9.96673 0.129982 0)
(10.0626 0.346834 0)
(10.374 0.567242 0)
(11.064 0.459005 0)
(11.3098 0.299945 0)
(11.6713 0.206378 0)
(11.659 0.190939 0)
(11.8933 0.178978 0)
(11.8087 0.173392 0)
(11.9969 0.138136 0)
(11.8726 0.14357 0)
(12.0685 0.108306 0)
(11.9013 0.11208 0)
(12.0626 0.0865313 0)
(11.8981 0.110475 0)
(12.0358 0.0720976 0)
(11.8447 0.118362 0)
(11.961 0.0774514 0)
(11.7783 0.144395 0)
(11.8059 0.0985783 0)
(11.6077 0.188036 0)
(10.0846 0.262059 0)
(10.2996 0.447875 0)
(10.8759 0.362777 0)
(11.2015 0.262093 0)
(11.5514 0.156228 0)
(11.5926 0.15516 0)
(11.8076 0.148474 0)
(11.8409 0.138373 0)
(11.9815 0.117418 0)
(11.9664 0.120859 0)
(12.182 0.0847998 0)
(12.1431 0.101543 0)
(12.2771 0.0777971 0)
(12.2862 0.0928352 0)
(12.4116 0.074233 0)
(12.3481 0.103366 0)
(12.4613 0.0854214 0)
(12.4503 0.124229 0)
(12.4732 0.114176 0)
(12.4066 0.0949497 0)
(10.0249 0.16946 0)
(10.3501 0.369454 0)
(10.6846 0.275516 0)
(11.1033 0.198464 0)
(11.4402 0.132099 0)
(11.5438 0.113279 0)
(11.6719 0.0996991 0)
(11.7939 0.125922 0)
(11.8583 0.0874819 0)
(11.9227 0.0933712 0)
(12.0683 0.0633889 0)
(12.1076 0.0813013 0)
(12.1781 0.054158 0)
(12.2977 0.073197 0)
(12.3812 0.0617954 0)
(12.3788 0.0919985 0)
(12.4721 0.0609421 0)
(12.5479 0.0993758 0)
(12.5394 0.085143 0)
(12.4821 0.0633974 0)
(10.0122 0.113177 0)
(10.2324 0.257537 0)
(10.6757 0.204552 0)
(11.041 0.144328 0)
(11.3243 0.0727587 0)
(11.5011 0.1021 0)
(11.6268 0.0749038 0)
(11.6979 0.071311 0)
(11.7965 0.0811277 0)
(11.8715 0.0591508 0)
(11.9889 0.0351507 0)
(12.0451 0.0753976 0)
(12.1234 0.0324076 0)
(12.2353 0.0375543 0)
(12.2865 0.0569947 0)
(12.3105 0.0719817 0)
(12.4283 0.0352043 0)
(12.5009 0.0772714 0)
(12.4857 0.0698573 0)
(12.3746 0.0249321 0)
(9.99224 0.0632235 0)
(10.2365 0.170458 0)
(10.6291 0.100138 0)
(11.0118 0.0816658 0)
(11.2327 0.0686464 0)
(11.4359 0.0370993 0)
(11.6606 0.0443354 0)
(11.6313 0.0681272 0)
(11.7113 0.029811 0)
(11.891 0.0353604 0)
(11.9111 0.0284623 0)
(11.9944 0.0366423 0)
(12.1214 0.0160348 0)
(12.154 0.0311178 0)
(12.2089 0.0440599 0)
(12.3088 0.0417064 0)
(12.3845 0.00617502 0)
(12.3984 0.0457228 0)
(12.4815 0.0621945 0)
(12.3333 0.00705115 0)
(9.96189 0.0252064 0)
(10.2434 0.0472988 0)
(10.6676 0.0329654 0)
(10.9391 0.0371617 0)
(11.1992 0.0124196 0)
(11.4853 0.0112345 0)
(11.5286 0.0219739 0)
(11.6409 0.0289924 0)
(11.7576 0.0105321 0)
(11.8024 -0.00252067 0)
(11.8917 0.00958749 0)
(12.0126 0.0210665 0)
(12.0656 0.00154568 0)
(12.1132 0.00675106 0)
(12.2148 0.024302 0)
(12.333 0.0114373 0)
(12.3223 0.00206828 0)
(12.3623 0.0169504 0)
(12.4438 0.0319694 0)
(12.3667 -0.0174547 0)
(9.98539 -0.0181335 0)
(10.2547 -0.0527253 0)
(10.6032 -0.054753 0)
(10.9445 -0.0158456 0)
(11.2568 -0.0116176 0)
(11.4247 -0.0311875 0)
(11.5231 -0.00285505 0)
(11.6802 -0.00950189 0)
(11.751 -0.0235294 0)
(11.7941 -0.010456 0)
(11.9032 -0.0176739 0)
(12.0066 -0.0104871 0)
(12.0624 -0.00584167 0)
(12.1161 -0.00480631 0)
(12.2339 -0.0136688 0)
(12.2687 0.00293452 0)
(12.3456 -0.0166577 0)
(12.4025 -0.0132797 0)
(12.4466 0.00461576 0)
(12.374 -0.0286693 0)
(9.99815 -0.0624217 0)
(10.2588 -0.157233 0)
(10.6136 -0.122436 0)
(10.9683 -0.0855439 0)
(11.2936 -0.0557702 0)
(11.4496 -0.0407028 0)
(11.5489 -0.0449872 0)
(11.6788 -0.0527963 0)
(11.766 -0.0303822 0)
(11.8512 -0.0492929 0)
(11.9178 -0.0421978 0)
(12.0156 -0.0210806 0)
(12.063 -0.0190555 0)
(12.1602 -0.0403147 0)
(12.2382 -0.0135939 0)
(12.3082 -0.0299898 0)
(12.3839 -0.0448739 0)
(12.396 -0.0394272 0)
(12.4781 -0.0170882 0)
(12.3836 -0.0202927 0)
(10.0011 -0.115479 0)
(10.2727 -0.252862 0)
(10.6732 -0.208721 0)
(11.0251 -0.148364 0)
(11.3133 -0.0790649 0)
(11.503 -0.0817352 0)
(11.6004 -0.0689548 0)
(11.7187 -0.0829686 0)
(11.8195 -0.0757226 0)
(11.8879 -0.0640643 0)
(11.9586 -0.0500549 0)
(12.0434 -0.0518879 0)
(12.1295 -0.0378752 0)
(12.2016 -0.0479836 0)
(12.2833 -0.0499853 0)
(12.3568 -0.0491705 0)
(12.4148 -0.0503422 0)
(12.4563 -0.0701386 0)
(12.4893 -0.0465847 0)
(12.4424 -0.0303368 0)
(10.0166 -0.17349 0)
(10.3094 -0.362937 0)
(10.7593 -0.285615 0)
(11.0807 -0.195167 0)
(11.41 -0.127992 0)
(11.5598 -0.108655 0)
(11.6678 -0.103297 0)
(11.7853 -0.127081 0)
(11.8964 -0.0849515 0)
(11.9207 -0.0909154 0)
(12.0366 -0.0791331 0)
(12.1303 -0.0682595 0)
(12.1926 -0.0515708 0)
(12.2647 -0.0815623 0)
(12.3631 -0.0526595 0)
(12.4093 -0.0722981 0)
(12.4789 -0.0816611 0)
(12.5225 -0.0916869 0)
(12.5556 -0.0721885 0)
(12.5219 -0.0681189 0)
(10.0689 -0.254434 0)
(10.3195 -0.461235 0)
(10.884 -0.368489 0)
(11.1631 -0.24721 0)
(11.5523 -0.164536 0)
(11.607 -0.146412 0)
(11.8016 -0.139593 0)
(11.8434 -0.154327 0)
(11.9933 -0.115285 0)
(11.9787 -0.114973 0)
(12.1492 -0.0970502 0)
(12.1551 -0.0955738 0)
(12.2731 -0.0688265 0)
(12.2808 -0.0969448 0)
(12.3982 -0.0757788 0)
(12.3845 -0.097143 0)
(12.4666 -0.0833329 0)
(12.4449 -0.122749 0)
(12.4874 -0.0980284 0)
(12.3865 -0.10373 0)
(10.0703 -0.349417 0)
(10.3814 -0.569661 0)
(11.0443 -0.454839 0)
(11.2947 -0.292654 0)
(11.6808 -0.217843 0)
(11.6591 -0.183049 0)
(11.8984 -0.17821 0)
(11.817 -0.182696 0)
(11.9969 -0.137243 0)
(11.876 -0.131102 0)
(12.045 -0.12291 0)
(11.9133 -0.105296 0)
(12.0533 -0.0826843 0)
(11.9049 -0.11079 0)
(12.0297 -0.0817517 0)
(11.8692 -0.0984858 0)
(11.9502 -0.0925029 0)
(11.7848 -0.129879 0)
(11.816 -0.100127 0)
(11.5926 -0.131328 0)
(10.0201 -0.459179 0)
(10.5449 -0.70651 0)
(11.176 -0.541036 0)
(11.3685 -0.354666 0)
(11.5698 -0.265569 0)
(11.4442 -0.220197 0)
(11.5156 -0.201644 0)
(11.2762 -0.184116 0)
(11.3191 -0.141471 0)
(11.0581 -0.126724 0)
(11.0971 -0.110807 0)
(10.8349 -0.0936565 0)
(10.9034 -0.0745561 0)
(10.6205 -0.0884574 0)
(10.7058 -0.0669105 0)
(10.4261 -0.0826146 0)
(10.496 -0.0679586 0)
(10.2052 -0.110428 0)
(10.2401 -0.0771301 0)
(9.91063 -0.135961 0)
(10.07 -0.632654 0)
(10.646 -0.863795 0)
(10.8757 -0.599224 0)
(10.6873 -0.373839 0)
(10.4601 -0.258312 0)
(10.0793 -0.192825 0)
(9.85473 -0.153707 0)
(9.47154 -0.127948 0)
(9.33814 -0.0911785 0)
(9.01283 -0.0744402 0)
(8.94599 -0.0641677 0)
(8.66967 -0.0523858 0)
(8.67491 -0.0386683 0)
(8.39792 -0.0493711 0)
(8.44647 -0.0393892 0)
(8.17228 -0.0451454 0)
(8.22312 -0.0441168 0)
(7.9293 -0.0665125 0)
(7.95466 -0.05702 0)
(7.62691 -0.0710017 0)
(10.0875 -0.838678 0)
(9.65119 -0.868144 0)
(8.87599 -0.505795 0)
(8.0811 -0.261786 0)
(7.49311 -0.139652 0)
(7.00429 -0.0803303 0)
(6.70674 -0.0535372 0)
(6.38387 -0.0438655 0)
(6.24032 -0.0282053 0)
(6.00878 -0.0228017 0)
(5.94215 -0.0215014 0)
(5.75431 -0.0181677 0)
(5.74551 -0.0117345 0)
(5.56085 -0.0203188 0)
(5.57774 -0.0155819 0)
(5.38712 -0.0197174 0)
(5.40797 -0.0197339 0)
(5.19021 -0.0311835 0)
(5.19634 -0.0304853 0)
(4.92881 -0.00847616 0)
(8.09218 -0.387935 0)
(5.44779 -0.242614 0)
(3.91225 -0.0427757 0)
(3.15755 0.015591 0)
(2.80041 0.0177151 0)
(2.59651 0.0115075 0)
(2.48848 0.00604478 0)
(2.37544 0.0012302 0)
(2.32141 0.00203919 0)
(2.24623 0.0011707 0)
(2.2222 -0.000101652 0)
(2.15572 -0.000213301 0)
(2.1518 0.0013259 0)
(2.08807 -0.00166877 0)
(2.08314 -0.000293523 0)
(2.01175 -0.00150956 0)
(2.00779 -0.000823897 0)
(1.9191 -0.00381713 0)
(1.89085 -0.00286523 0)
(1.75775 0.0112492 0)
(2.0117 0.0352112 0)
(2.19385 0.055416 0)
(2.38938 -0.0251484 0)
(2.55274 -0.0957672 0)
(2.53787 -0.121693 0)
(2.61749 -0.105665 0)
(2.55929 -0.0300772 0)
(2.65191 0.0425297 0)
(2.61281 0.143717 0)
(2.72203 0.164978 0)
(2.8428 0.177684 0)
(2.95275 0.20036 0)
(3.0877 0.203433 0)
(3.2363 0.193638 0)
(3.34465 0.172847 0)
(3.4672 0.138897 0)
(3.52132 0.110095 0)
(3.59454 0.0794384 0)
(3.61321 0.0580735 0)
(3.66672 0.0398159 0)
(3.67562 0.0199908 0)
(3.73448 0.00922185 0)
(3.74292 -0.0138941 0)
(3.81739 -0.0406865 0)
(3.81047 -0.0447341 0)
(3.87401 -0.0729348 0)
(3.87635 -0.0771711 0)
(3.92539 -0.0837162 0)
(3.92553 -0.0768682 0)
(3.9835 -0.0684677 0)
(3.99092 -0.0403202 0)
(4.05839 -0.0117915 0)
(4.10188 0.0340489 0)
(4.17376 0.0784108 0)
(4.30215 0.0935938 0)
(4.40321 0.112201 0)
(4.5409 0.128618 0)
(4.66285 0.122564 0)
(4.83016 0.0950197 0)
(4.95644 0.0430578 0)
(5.09793 -0.00358583 0)
(5.23285 -0.0761335 0)
(5.34485 -0.176933 0)
(5.47979 -0.28818 0)
(5.56609 -0.425032 0)
(5.67428 -0.578826 0)
(5.70148 -0.730771 0)
(5.7484 -0.852942 0)
(5.71302 -0.91353 0)
(5.69388 -0.938017 0)
(5.66831 -0.876014 0)
(5.59901 -0.837518 0)
(5.56299 -0.783861 0)
(5.45082 -0.657374 0)
(5.43541 -0.54816 0)
(5.42284 -0.406155 0)
(5.35717 -0.276061 0)
(5.3033 -0.140477 0)
(5.26316 0.00230076 0)
(5.25 0.170676 0)
(5.29621 0.348918 0)
(5.39633 0.477473 0)
(5.60487 0.598833 0)
(5.85084 0.698187 0)
(6.13823 0.768373 0)
(6.42215 0.815835 0)
(6.70215 0.724679 0)
(6.96129 0.703355 0)
(7.30955 0.697933 0)
(7.57749 0.456888 0)
(7.7785 0.313751 0)
(8.16201 0.167051 0)
(8.36579 -0.156386 0)
(8.5666 -0.398773 0)
(8.86903 -0.688921 0)
(9.02436 -1.00305 0)
(9.08435 -1.17258 0)
(9.54953 -1.55006 0)
(9.73638 -1.74533 0)
(9.89361 -1.91434 0)
(10.4819 -2.34494 0)
(10.9168 -2.55459 0)
(10.9926 -2.713 0)
(11.8506 -3.12783 0)
(12.0583 -3.37084 0)
(12.3069 -3.52849 0)
(12.8238 -3.84972 0)
(12.9958 -4.04768 0)
(13.1195 -4.15173 0)
(13.2111 -4.35993 0)
(13.345 -4.39445 0)
(13.094 -4.46628 0)
(13.1247 -4.46331 0)
(12.8074 -4.43661 0)
(12.8588 -4.37643 0)
(12.344 -4.31294 0)
(12.519 -4.26848 0)
(12.1044 -4.16753 0)
(12.1546 -4.07401 0)
(12.0344 -4.02712 0)
(11.9631 -4.03948 0)
(12.0359 -3.82459 0)
(11.8076 -3.90685 0)
(12.1206 -3.82563 0)
(11.8338 -3.71658 0)
(11.9619 -3.64555 0)
(11.9704 -3.39868 0)
(11.9362 -3.42482 0)
(12.0236 -3.10085 0)
(11.88 -2.88885 0)
(11.9332 -2.55155 0)
(11.9437 -2.30859 0)
(11.9097 -1.95715 0)
(11.7916 -1.47982 0)
(11.6316 -1.05402 0)
(11.4681 -0.555563 0)
(11.3642 -0.170285 0)
(11.0805 0.215895 0)
(10.9543 0.665744 0)
(10.5764 1.02892 0)
(10.273 1.43001 0)
(9.96439 1.81161 0)
(9.6517 2.03704 0)
(9.25412 2.32743 0)
(8.97234 2.688 0)
(8.58275 2.60663 0)
(8.20674 2.6822 0)
(7.80994 3.07445 0)
(7.51593 3.32936 0)
(7.11577 2.85004 0)
(6.6957 2.14365 0)
(6.53423 2.46384 0)
(6.42849 3.87152 0)
(6.55076 5.69418 0)
(6.59934 7.01914 0)
(6.55936 8.05851 0)
(6.47905 9.02977 0)
(6.6052 9.44293 0)
(6.10971 9.14846 0)
(6.76203 8.59925 0)
(6.11486 7.56739 0)
(6.36561 6.80422 0)
(6.26797 5.80096 0)
(6.46753 4.86586 0)
(6.37218 3.94987 0)
(6.36349 3.03709 0)
(6.36727 2.15016 0)
(6.4734 1.20729 0)
(6.45946 0.436566 0)
(6.89672 -0.278263 0)
(6.89758 -1.11061 0)
(7.34687 -1.78301 0)
(7.1598 -2.58399 0)
(7.90016 -3.37819 0)
(7.51921 -4.24453 0)
(8.51367 -5.12108 0)
(7.9708 -5.96987 0)
(8.80094 -6.44379 0)
(8.1881 -6.64848 0)
(8.47649 -6.31638 0)
(8.32967 -6.23752 0)
(8.42542 -5.77903 0)
(8.16052 -5.28863 0)
(8.48691 -4.59616 0)
(8.16011 -4.22744 0)
(8.63038 -3.70033 0)
(8.31674 -3.30362 0)
(8.31725 -2.51605 0)
(8.21331 -2.07252 0)
(8.2891 -1.66237 0)
(8.17492 -1.13205 0)
(8.25628 -0.971152 0)
(8.10523 -0.68656 0)
(8.09854 -0.316467 0)
(7.71518 -0.137753 0)
(7.98991 -0.0671262 0)
(7.94588 -0.0366257 0)
(8.15747 0.0476239 0)
(8.4006 -0.0843569 0)
(8.46703 0.0748394 0)
(8.39743 -0.0719574 0)
(8.48602 0.0829841 0)
(9.04691 0.162051 0)
(9.19397 0.134639 0)
(9.72562 0.642471 0)
(9.9159 0.819035 0)
(9.798 1.28557 0)
(9.80457 1.92298 0)
(9.81854 2.56526 0)
(9.60035 3.20283 0)
(9.30628 3.40372 0)
(9.02096 4.18137 0)
(8.6958 4.6705 0)
(8.22366 4.85334 0)
(7.91116 6.35385 0)
(7.79768 7.47352 0)
(7.4688 8.33976 0)
(7.47147 9.91462 0)
(7.65585 11.9128 0)
(4.54515 15.2486 0)
(5.06545 0.0114682 0)
(5.0825 0.0271631 0)
(5.09536 -0.0368852 0)
(5.18443 -0.114122 0)
(5.20962 -0.142525 0)
(5.26937 -0.126378 0)
(5.25006 -0.0662104 0)
(5.26652 -0.00575449 0)
(5.24876 0.0657677 0)
(5.26072 0.113048 0)
(5.28979 0.13192 0)
(5.33357 0.146979 0)
(5.37395 0.144493 0)
(5.43756 0.132583 0)
(5.48543 0.114429 0)
(5.54367 0.0873865 0)
(5.58252 0.0638365 0)
(5.62137 0.0373865 0)
(5.64814 0.0208449 0)
(5.681 -0.000353367 0)
(5.7053 -0.0153126 0)
(5.74137 -0.0350984 0)
(5.76353 -0.0483057 0)
(5.81362 -0.0725193 0)
(5.83463 -0.0832759 0)
(5.8858 -0.0963877 0)
(5.90254 -0.108098 0)
(5.96171 -0.108861 0)
(5.9719 -0.10856 0)
(6.03476 -0.100908 0)
(6.05439 -0.0835506 0)
(6.11517 -0.0630218 0)
(6.16579 -0.036409 0)
(6.2193 -0.00812333 0)
(6.3237 0.0101194 0)
(6.39678 0.0181695 0)
(6.52979 0.0179726 0)
(6.61295 0.0143453 0)
(6.75273 -0.0235595 0)
(6.88332 -0.0603192 0)
(6.99186 -0.117411 0)
(7.1453 -0.198906 0)
(7.23495 -0.26926 0)
(7.3865 -0.398665 0)
(7.47881 -0.495275 0)
(7.58817 -0.62573 0)
(7.66758 -0.744712 0)
(7.71284 -0.826585 0)
(7.74185 -0.8992 0)
(7.72998 -0.91022 0)
(7.69286 -0.903853 0)
(7.67394 -0.846324 0)
(7.63278 -0.760233 0)
(7.59659 -0.634344 0)
(7.57077 -0.497187 0)
(7.52646 -0.380075 0)
(7.49303 -0.248717 0)
(7.44483 -0.102171 0)
(7.44257 0.0414253 0)
(7.41841 0.197678 0)
(7.40544 0.347618 0)
(7.4025 0.413749 0)
(7.4281 0.555203 0)
(7.56815 0.581686 0)
(7.65113 0.550622 0)
(7.80654 0.626467 0)
(8.06413 0.531725 0)
(8.14491 0.4532 0)
(8.45917 0.412056 0)
(8.75323 0.243126 0)
(8.85197 0.0838438 0)
(9.24634 -0.103131 0)
(9.54265 -0.372813 0)
(9.56445 -0.560343 0)
(10.0975 -0.908765 0)
(10.2835 -1.21754 0)
(10.4243 -1.33494 0)
(10.9889 -1.74789 0)
(11.1783 -2.06934 0)
(11.4817 -2.16667 0)
(12.0025 -2.63525 0)
(12.2441 -2.83614 0)
(12.5961 -3.05217 0)
(12.9117 -3.39246 0)
(13.1297 -3.59273 0)
(13.2859 -3.78298 0)
(13.498 -3.99167 0)
(13.4158 -4.11832 0)
(13.4322 -4.22583 0)
(13.4337 -4.36264 0)
(13.0719 -4.28137 0)
(13.0854 -4.36266 0)
(12.7948 -4.33567 0)
(12.6073 -4.24313 0)
(12.428 -4.20847 0)
(12.3811 -4.2229 0)
(12.2361 -4.0902 0)
(12.1404 -4.02495 0)
(12.2556 -4.08646 0)
(12.1541 -3.97802 0)
(12.0825 -3.97847 0)
(12.1598 -3.82729 0)
(12.0292 -3.98819 0)
(12.0707 -3.74744 0)
(11.8571 -3.67874 0)
(11.9375 -3.67417 0)
(11.9226 -3.48406 0)
(11.7687 -3.36705 0)
(11.7458 -3.04468 0)
(11.7538 -2.86427 0)
(11.6222 -2.59713 0)
(11.7215 -2.21628 0)
(11.5013 -1.7737 0)
(11.4306 -1.37604 0)
(11.4069 -0.842787 0)
(11.215 -0.500558 0)
(11.1507 0.0160906 0)
(10.8409 0.388306 0)
(10.7072 0.922698 0)
(10.3767 1.26629 0)
(10.1065 1.76667 0)
(9.79482 2.04203 0)
(9.55299 2.37378 0)
(9.23589 2.57754 0)
(8.89351 2.93292 0)
(8.55014 2.90792 0)
(8.22186 2.95313 0)
(7.91844 3.29488 0)
(7.56942 3.53811 0)
(7.19782 3.14643 0)
(6.68709 2.39727 0)
(6.43074 2.61192 0)
(6.32824 3.86724 0)
(6.40669 5.52271 0)
(6.56401 6.97786 0)
(6.67869 7.97163 0)
(6.44411 8.95799 0)
(6.93831 9.54746 0)
(6.33229 9.17528 0)
(6.96319 8.62744 0)
(6.70935 7.67653 0)
(6.68067 6.9259 0)
(6.9393 5.89581 0)
(6.83292 4.86875 0)
(6.96142 3.92176 0)
(6.93175 3.07827 0)
(7.06793 2.16658 0)
(7.13725 1.0743 0)
(7.2271 0.234363 0)
(7.58738 -0.402808 0)
(7.6332 -1.18896 0)
(7.87918 -2.00403 0)
(7.937 -2.89639 0)
(8.47442 -3.71123 0)
(8.33976 -4.66355 0)
(9.10558 -5.45735 0)
(8.66307 -6.21278 0)
(9.47901 -6.52101 0)
(8.64311 -6.61527 0)
(9.21461 -6.29758 0)
(8.7794 -6.18893 0)
(8.87031 -5.79033 0)
(8.69751 -5.22073 0)
(8.77684 -4.59349 0)
(8.6663 -4.29988 0)
(8.84491 -3.70345 0)
(8.33423 -3.10616 0)
(8.68932 -2.48572 0)
(8.36662 -2.19922 0)
(8.34086 -1.43083 0)
(8.17048 -1.17581 0)
(8.18148 -0.881734 0)
(7.93959 -0.416137 0)
(7.63366 -0.179881 0)
(7.61858 -0.0240573 0)
(7.67353 -0.0494979 0)
(7.92574 -0.196292 0)
(8.00202 -0.157603 0)
(7.83952 0.0182741 0)
(7.818 0.0790117 0)
(8.0971 -0.106115 0)
(8.70816 -0.369558 0)
(9.36894 -0.308648 0)
(9.8271 -0.172257 0)
(10.2283 0.282386 0)
(10.5327 0.842001 0)
(10.4429 1.16388 0)
(10.6438 1.96684 0)
(10.35 2.58012 0)
(10.345 3.32309 0)
(10.1928 3.61801 0)
(9.67239 3.96689 0)
(9.67365 5.18877 0)
(9.14796 5.50211 0)
(8.66002 5.99702 0)
(8.74238 7.45496 0)
(8.42693 8.7451 0)
(8.04418 9.98209 0)
(10.5513 10.8866 0)
(7.50863 16.4652 0)
(7.72162 -0.0283076 0)
(7.73212 -0.0312946 0)
(7.72461 -0.06557 0)
(7.7751 -0.101073 0)
(7.8112 -0.114189 0)
(7.85744 -0.0932588 0)
(7.86181 -0.0471571 0)
(7.85668 0.0106686 0)
(7.84522 0.063088 0)
(7.82768 0.107707 0)
(7.8383 0.128482 0)
(7.84076 0.137892 0)
(7.87908 0.13631 0)
(7.89007 0.121321 0)
(7.93713 0.105576 0)
(7.94982 0.0767376 0)
(7.98614 0.0550718 0)
(8.00159 0.0293197 0)
(8.01591 0.0036244 0)
(8.03916 -0.0107381 0)
(8.04511 -0.0379632 0)
(8.07787 -0.0527368 0)
(8.0783 -0.0665615 0)
(8.12804 -0.0959091 0)
(8.12272 -0.095976 0)
(8.17984 -0.124203 0)
(8.18022 -0.123591 0)
(8.22689 -0.133239 0)
(8.24756 -0.135292 0)
(8.28418 -0.125278 0)
(8.32226 -0.122412 0)
(8.35874 -0.0990972 0)
(8.4183 -0.0927973 0)
(8.45285 -0.0660861 0)
(8.54326 -0.0623748 0)
(8.59198 -0.0546621 0)
(8.70444 -0.066994 0)
(8.76827 -0.077726 0)
(8.88393 -0.109601 0)
(8.97791 -0.161516 0)
(9.08458 -0.201807 0)
(9.19455 -0.296946 0)
(9.27853 -0.358871 0)
(9.40852 -0.461632 0)
(9.46407 -0.572673 0)
(9.58149 -0.657981 0)
(9.61928 -0.77497 0)
(9.66794 -0.842046 0)
(9.68124 -0.898647 0)
(9.6552 -0.928492 0)
(9.63341 -0.889433 0)
(9.59149 -0.847265 0)
(9.55545 -0.747781 0)
(9.4988 -0.631285 0)
(9.46635 -0.522617 0)
(9.40304 -0.354024 0)
(9.40434 -0.241707 0)
(9.36644 -0.0708572 0)
(9.3821 0.0891807 0)
(9.36994 0.171991 0)
(9.37105 0.356555 0)
(9.43815 0.413154 0)
(9.37712 0.490845 0)
(9.52356 0.563864 0)
(9.60557 0.500315 0)
(9.58721 0.533842 0)
(9.92297 0.426164 0)
(9.87075 0.364643 0)
(10.1157 0.262928 0)
(10.394 0.0514723 0)
(10.4567 -0.0473264 0)
(10.7548 -0.301361 0)
(11.1142 -0.604673 0)
(11.1238 -0.742484 0)
(11.5957 -1.10812 0)
(11.8566 -1.41645 0)
(12.0242 -1.58595 0)
(12.3813 -2.00951 0)
(12.7152 -2.23002 0)
(12.7993 -2.51923 0)
(13.267 -2.80076 0)
(13.2567 -3.03226 0)
(13.5771 -3.32434 0)
(13.5555 -3.5041 0)
(13.6922 -3.64884 0)
(13.6352 -3.90219 0)
(13.6148 -3.97989 0)
(13.371 -4.02309 0)
(13.4044 -4.22839 0)
(13.0438 -4.14624 0)
(12.868 -4.15123 0)
(12.8201 -4.22048 0)
(12.4408 -4.14234 0)
(12.4949 -4.10715 0)
(12.3639 -4.13229 0)
(12.395 -4.10395 0)
(12.2623 -4.01514 0)
(12.4226 -4.09048 0)
(12.3447 -4.05357 0)
(12.2738 -3.90712 0)
(12.2085 -3.97953 0)
(12.1481 -3.82183 0)
(11.9544 -3.82229 0)
(11.8116 -3.6875 0)
(11.7335 -3.65724 0)
(11.541 -3.5962 0)
(11.5572 -3.39408 0)
(11.2427 -3.22225 0)
(11.2341 -3.09859 0)
(11.2219 -2.79691 0)
(10.9211 -2.53034 0)
(11.135 -2.10043 0)
(10.8379 -1.73896 0)
(10.8801 -1.32941 0)
(10.8407 -0.768941 0)
(10.6774 -0.433323 0)
(10.5727 0.179168 0)
(10.4141 0.572016 0)
(10.199 1.15484 0)
(9.98389 1.49542 0)
(9.78851 1.99024 0)
(9.5641 2.2763 0)
(9.34566 2.53341 0)
(9.15543 2.79358 0)
(8.80299 3.15232 0)
(8.50467 3.18041 0)
(8.08742 3.20516 0)
(7.82493 3.62101 0)
(7.47043 3.8445 0)
(7.09892 3.50879 0)
(6.61138 2.79411 0)
(6.27216 2.80178 0)
(6.19151 3.8803 0)
(6.28458 5.3598 0)
(6.35976 6.90602 0)
(6.80035 7.97505 0)
(6.37863 8.86992 0)
(7.09938 9.49986 0)
(6.71725 9.17472 0)
(7.0423 8.53457 0)
(7.22073 7.64071 0)
(7.09664 6.8913 0)
(7.3859 5.89935 0)
(7.3666 4.91006 0)
(7.66409 3.93257 0)
(7.57213 3.10373 0)
(7.7338 2.0697 0)
(7.99186 0.969456 0)
(7.9567 0.1728 0)
(8.15643 -0.522583 0)
(8.30244 -1.47635 0)
(8.5103 -2.24483 0)
(8.70755 -2.98841 0)
(9.03637 -3.71108 0)
(9.19195 -4.60501 0)
(9.73067 -5.49848 0)
(9.40121 -6.17051 0)
(10.0527 -6.45907 0)
(9.11582 -6.50788 0)
(9.77786 -6.23292 0)
(9.05298 -6.12082 0)
(9.39249 -5.68313 0)
(9.00791 -5.12926 0)
(9.04215 -4.64895 0)
(9.20061 -4.23032 0)
(8.82814 -3.52995 0)
(8.64671 -3.0042 0)
(8.7966 -2.55843 0)
(8.20116 -1.90195 0)
(8.3474 -1.29048 0)
(8.06551 -1.2363 0)
(7.96267 -0.670247 0)
(7.44378 -0.275587 0)
(7.26912 -0.127716 0)
(7.39757 -0.0832132 0)
(7.60051 -0.436099 0)
(7.43117 -0.262115 0)
(7.21335 0.178685 0)
(7.08364 -0.0260516 0)
(7.72821 -0.125136 0)
(8.39686 -0.887343 0)
(9.34185 -0.993782 0)
(9.8086 -0.845187 0)
(10.4474 -0.645151 0)
(10.6831 -0.044823 0)
(11.0766 0.654222 0)
(10.9556 0.993894 0)
(11.1774 1.83336 0)
(11.0892 2.81252 0)
(10.7034 3.2128 0)
(10.8775 4.01957 0)
(10.5708 4.27108 0)
(10.3877 4.87471 0)
(10.513 5.78625 0)
(9.63943 6.7344 0)
(9.65842 7.71934 0)
(9.9715 8.30315 0)
(8.19166 10.6241 0)
(12.8898 9.36889 0)
(10.0102 16.328 0)
(9.95302 -0.0623599 0)
(9.97182 -0.167428 0)
(9.98275 -0.212312 0)
(10.024 -0.202353 0)
(10.069 -0.164841 0)
(10.0856 -0.113576 0)
(10.1053 -0.0540472 0)
(10.0749 -8.11029e-05 0)
(10.0828 0.0483669 0)
(10.0427 0.0907792 0)
(10.0664 0.111999 0)
(10.0416 0.127855 0)
(10.0833 0.117019 0)
(10.0763 0.109676 0)
(10.1131 0.0842744 0)
(10.1272 0.0638718 0)
(10.1452 0.0391258 0)
(10.1688 0.0165276 0)
(10.1721 -0.00383424 0)
(10.1922 -0.0292843 0)
(10.1937 -0.0437454 0)
(10.2149 -0.0722583 0)
(10.207 -0.0809351 0)
(10.247 -0.112676 0)
(10.2248 -0.113163 0)
(10.2824 -0.140032 0)
(10.2643 -0.141334 0)
(10.3138 -0.146524 0)
(10.3228 -0.156585 0)
(10.3472 -0.144261 0)
(10.3923 -0.150296 0)
(10.3943 -0.133931 0)
(10.4684 -0.13163 0)
(10.4692 -0.117803 0)
(10.5504 -0.122485 0)
(10.5839 -0.109047 0)
(10.6602 -0.141001 0)
(10.7199 -0.14114 0)
(10.8033 -0.183361 0)
(10.8728 -0.230015 0)
(10.9521 -0.274715 0)
(11.0447 -0.366355 0)
(11.0831 -0.416423 0)
(11.193 -0.530527 0)
(11.211 -0.603474 0)
(11.2817 -0.700332 0)
(11.3015 -0.786928 0)
(11.3009 -0.842988 0)
(11.2892 -0.895092 0)
(11.249 -0.897272 0)
(11.1936 -0.8742 0)
(11.1346 -0.810264 0)
(11.0756 -0.735559 0)
(10.9958 -0.618829 0)
(10.9587 -0.497618 0)
(10.88 -0.35584 0)
(10.9156 -0.217301 0)
(10.8298 -0.0534165 0)
(10.9109 0.0686869 0)
(10.9212 0.185061 0)
(10.9168 0.325916 0)
(11.097 0.362367 0)
(11.0131 0.491611 0)
(11.1838 0.474735 0)
(11.3289 0.471955 0)
(11.2577 0.483514 0)
(11.6095 0.311493 0)
(11.6013 0.285983 0)
(11.7092 0.13525 0)
(12.1025 -0.106406 0)
(11.9906 -0.20992 0)
(12.3757 -0.471577 0)
(12.5749 -0.749451 0)
(12.6287 -0.962026 0)
(13.023 -1.23821 0)
(13.1175 -1.59581 0)
(13.2949 -1.80072 0)
(13.558 -2.1443 0)
(13.5448 -2.38937 0)
(13.835 -2.66128 0)
(13.7289 -2.91959 0)
(13.8789 -3.10801 0)
(13.7705 -3.37925 0)
(13.8141 -3.47062 0)
(13.5387 -3.66381 0)
(13.5856 -3.82839 0)
(13.2918 -3.85225 0)
(13.1138 -3.96979 0)
(13.0737 -4.03618 0)
(12.7028 -4.00043 0)
(12.6983 -4.04774 0)
(12.5668 -4.09916 0)
(12.4877 -4.05724 0)
(12.4917 -4.07228 0)
(12.471 -4.12945 0)
(12.5447 -4.08278 0)
(12.4216 -4.10066 0)
(12.5486 -4.03494 0)
(12.323 -3.98928 0)
(12.2674 -3.88728 0)
(12.0383 -3.82634 0)
(11.8501 -3.7052 0)
(11.6112 -3.65717 0)
(11.3113 -3.57664 0)
(11.2288 -3.47009 0)
(10.8102 -3.40634 0)
(10.8398 -3.2407 0)
(10.3598 -3.16707 0)
(10.3933 -3.00299 0)
(10.2163 -2.63802 0)
(9.93336 -2.49968 0)
(10.1526 -1.9937 0)
(9.85819 -1.67773 0)
(9.9866 -1.27498 0)
(9.93445 -0.742381 0)
(9.81312 -0.269198 0)
(9.72463 0.227233 0)
(9.75389 0.781863 0)
(9.58511 1.19607 0)
(9.61438 1.57726 0)
(9.37552 2.07155 0)
(9.3106 2.45623 0)
(8.96074 2.67565 0)
(8.83634 3.11027 0)
(8.51233 3.35378 0)
(8.15036 3.49561 0)
(7.87489 3.42953 0)
(7.61684 3.8266 0)
(7.27005 4.10474 0)
(6.93546 3.79181 0)
(6.48905 3.14945 0)
(6.13632 2.96891 0)
(5.98289 3.97155 0)
(6.29959 5.19608 0)
(6.10832 6.72105 0)
(6.85892 7.94314 0)
(6.41364 8.76134 0)
(7.0367 9.37676 0)
(7.03026 9.10112 0)
(7.17038 8.38209 0)
(7.51179 7.54547 0)
(7.40336 6.65877 0)
(7.69285 5.65736 0)
(7.91548 4.76656 0)
(8.15058 3.78804 0)
(8.19931 2.94548 0)
(8.42468 1.93812 0)
(8.60713 0.901603 0)
(8.48071 0.0502716 0)
(8.76966 -0.689316 0)
(9.02594 -1.55464 0)
(9.22554 -2.27465 0)
(9.30581 -3.10001 0)
(9.59429 -4.08124 0)
(9.93543 -5.17035 0)
(10.1704 -5.89154 0)
(10.045 -6.43073 0)
(10.3355 -6.51118 0)
(9.61618 -6.45039 0)
(10.2384 -6.25704 0)
(9.33628 -5.99297 0)
(9.83894 -5.58487 0)
(9.15748 -5.09738 0)
(9.46103 -4.62802 0)
(9.30832 -4.1201 0)
(8.79851 -3.37803 0)
(8.95966 -2.892 0)
(8.42231 -2.2984 0)
(8.19818 -1.61178 0)
(8.03094 -1.34387 0)
(7.75336 -0.86689 0)
(7.31259 -0.266231 0)
(6.85194 -0.0111227 0)
(6.94607 -0.0176704 0)
(7.26332 -0.385223 0)
(6.70426 -0.190576 0)
(6.42637 0.302012 0)
(6.38625 0.00328095 0)
(7.13361 -0.386616 0)
(8.05399 -1.18317 0)
(8.86364 -1.4008 0)
(9.5127 -1.59581 0)
(10.0648 -1.2996 0)
(10.3885 -0.94039 0)
(10.5823 -0.209472 0)
(10.5837 0.577172 0)
(10.7046 1.15309 0)
(10.6852 1.97162 0)
(10.7986 2.95423 0)
(10.611 3.46131 0)
(10.5777 3.96245 0)
(10.8384 4.45664 0)
(10.559 5.31614 0)
(11.3312 5.84376 0)
(11.0985 6.29282 0)
(10.1666 8.27964 0)
(12.6598 8.22637 0)
(8.41042 11.227 0)
(13.392 6.31314 0)
(11.5811 15.2287 0)
(11.4936 -0.0392277 0)
(11.5389 -0.190154 0)
(11.6419 -0.246602 0)
(11.7107 -0.233228 0)
(11.7707 -0.180278 0)
(11.759 -0.115463 0)
(11.7704 -0.0519074 0)
(11.72 0.00548423 0)
(11.7181 0.0412861 0)
(11.6773 0.0866279 0)
(11.693 0.0940765 0)
(11.6803 0.119376 0)
(11.7127 0.102528 0)
(11.7248 0.103012 0)
(11.7498 0.0801452 0)
(11.7729 0.0537357 0)
(11.7813 0.035668 0)
(11.8011 0.00294362 0)
(11.8023 -0.0167676 0)
(11.8155 -0.0374112 0)
(11.8183 -0.057837 0)
(11.832 -0.0786824 0)
(11.8221 -0.0824627 0)
(11.8561 -0.127382 0)
(11.8224 -0.107345 0)
(11.8718 -0.155831 0)
(11.8444 -0.146376 0)
(11.8813 -0.157609 0)
(11.8855 -0.172501 0)
(11.9035 -0.155956 0)
(11.9279 -0.172309 0)
(11.9474 -0.15051 0)
(11.9699 -0.1621 0)
(11.9983 -0.144507 0)
(12.0327 -0.165104 0)
(12.0532 -0.147759 0)
(12.1199 -0.192393 0)
(12.1306 -0.190395 0)
(12.2113 -0.237175 0)
(12.237 -0.287534 0)
(12.2881 -0.313155 0)
(12.3568 -0.427488 0)
(12.3522 -0.437221 0)
(12.4288 -0.566958 0)
(12.4122 -0.620399 0)
(12.4331 -0.68497 0)
(12.4226 -0.791178 0)
(12.3853 -0.796609 0)
(12.3337 -0.856907 0)
(12.2963 -0.854722 0)
(12.1822 -0.799758 0)
(12.1405 -0.780114 0)
(12.033 -0.677778 0)
(11.9486 -0.570522 0)
(11.8975 -0.482831 0)
(11.8061 -0.314136 0)
(11.8199 -0.212186 0)
(11.7702 -0.0688272 0)
(11.8108 0.0590097 0)
(11.8762 0.150436 0)
(11.8816 0.269877 0)
(12.1126 0.289319 0)
(12.0413 0.41578 0)
(12.3174 0.376748 0)
(12.3728 0.381042 0)
(12.4876 0.389787 0)
(12.712 0.199098 0)
(12.7894 0.201764 0)
(12.9282 -0.0105063 0)
(13.1604 -0.191037 0)
(13.204 -0.342722 0)
(13.4497 -0.613941 0)
(13.5119 -0.829901 0)
(13.6798 -1.10518 0)
(13.7996 -1.39543 0)
(13.8118 -1.63081 0)
(14.0178 -1.97714 0)
(13.9016 -2.18912 0)
(13.9603 -2.4329 0)
(13.9824 -2.74178 0)
(13.7367 -2.87764 0)
(13.8218 -3.10245 0)
(13.5822 -3.31864 0)
(13.4264 -3.39455 0)
(13.3374 -3.60365 0)
(13.1555 -3.69916 0)
(12.9576 -3.7087 0)
(12.9321 -3.91023 0)
(12.7658 -3.85701 0)
(12.6012 -3.91397 0)
(12.7095 -4.03174 0)
(12.5977 -4.00936 0)
(12.539 -4.0653 0)
(12.6696 -4.11667 0)
(12.5517 -4.13537 0)
(12.5425 -4.07097 0)
(12.4716 -4.06045 0)
(12.3469 -3.96608 0)
(12.0965 -3.82888 0)
(11.8911 -3.70906 0)
(11.5856 -3.62929 0)
(11.2463 -3.47073 0)
(10.8972 -3.40585 0)
(10.5503 -3.34279 0)
(10.2295 -3.20508 0)
(9.77424 -3.18568 0)
(9.62552 -3.03307 0)
(9.07591 -2.98179 0)
(9.0466 -2.80037 0)
(8.61613 -2.53603 0)
(8.61414 -2.38076 0)
(8.7007 -1.97184 0)
(8.54261 -1.5911 0)
(8.56066 -1.10328 0)
(8.74655 -0.721925 0)
(8.73305 -0.240049 0)
(8.71723 0.193364 0)
(8.97628 0.809117 0)
(8.71319 1.22325 0)
(8.72548 1.82628 0)
(8.6338 2.21296 0)
(8.40546 2.75332 0)
(8.14042 2.89951 0)
(8.01223 3.38768 0)
(7.75386 3.7015 0)
(7.45767 3.74213 0)
(7.23622 3.68406 0)
(7.15876 4.03034 0)
(6.9611 4.40265 0)
(6.67761 4.05192 0)
(6.19972 3.56535 0)
(6.07022 3.16274 0)
(5.65546 3.99416 0)
(6.23659 5.13201 0)
(5.85623 6.46896 0)
(6.73723 7.78316 0)
(6.61015 8.63344 0)
(6.93143 9.14297 0)
(7.18262 8.8821 0)
(7.38757 8.17818 0)
(7.60071 7.40281 0)
(7.77477 6.4288 0)
(8.03474 5.44777 0)
(8.31053 4.50963 0)
(8.51214 3.61751 0)
(8.7521 2.85112 0)
(8.89285 1.83367 0)
(9.16076 0.721736 0)
(9.20451 -0.00749837 0)
(9.44749 -0.713963 0)
(9.5419 -1.6644 0)
(9.8251 -2.6353 0)
(9.9507 -3.48705 0)
(10.3555 -4.25574 0)
(10.6621 -5.12404 0)
(10.6607 -5.64896 0)
(10.6897 -6.0757 0)
(10.6491 -6.19419 0)
(10.1441 -6.19646 0)
(10.4608 -6.04976 0)
(9.64312 -5.76106 0)
(10.0794 -5.46437 0)
(9.30556 -5.02573 0)
(9.79663 -4.52761 0)
(9.10543 -3.85304 0)
(8.89923 -3.12176 0)