/*--------------------------------*- C++ -*----------------------------------*\
| =========                 |                                                 |
| \\      /  F ield         | OpenFOAM: The Open Source CFD Toolbox           |
|  \\    /   O peration     | Version:  2.4.0                                 |
|   \\  /    A nd           | Web:      www.OpenFOAM.org                      |
|    \\/     M anipulation  |                                                 |
\*---------------------------------------------------------------------------*/
FoamFile
{
    version     2.0;
    format      ascii;
    class       volVectorField;
    location    "0.35";
    object      UMean;
}
// * * * * * * * * * * * * * * * * * * * * * * * * * * * * * * * * * * * * * //

dimensions      [0 1 -1 0 0 0 0];

internalField   nonuniform List<vector> 
8800
(
(8.09426 0.38583 0)
(5.47826 0.241876 0)
(3.95383 0.0433857 0)
(3.20487 -0.0149777 0)
(2.85313 -0.0180332 0)
(2.65388 -0.0108855 0)
(2.54425 -0.00562029 0)
(2.44297 -0.00218658 0)
(2.38713 -0.00153205 0)
(2.31901 -0.000414099 0)
(2.29112 -0.00077082 0)
(2.23987 0.000159641 0)
(2.22311 -0.000278967 0)
(2.17738 0.00075031 0)
(2.16022 9.06069e-05 0)
(2.11664 0.00148884 0)
(2.0923 2.45033e-05 0)
(2.04693 0.00200665 0)
(2.03664 0.00215846 0)
(1.87096 -0.037723 0)
(10.0734 0.832862 0)
(9.66141 0.860646 0)
(8.89004 0.502066 0)
(8.11026 0.258838 0)
(7.52911 0.135852 0)
(7.05034 0.0803805 0)
(6.75051 0.0520985 0)
(6.45805 0.039142 0)
(6.29816 0.0279923 0)
(6.09752 0.0234388 0)
(6.01611 0.0169737 0)
(5.8649 0.0172931 0)
(5.82146 0.013257 0)
(5.69519 0.0163471 0)
(5.66024 0.0134019 0)
(5.54932 0.0170537 0)
(5.50277 0.0184057 0)
(5.39969 0.0126158 0)
(5.34867 0.0312615 0)
(5.22059 -0.039453 0)
(10.0527 0.627831 0)
(10.6528 0.855669 0)
(10.8663 0.594625 0)
(10.6913 0.368553 0)
(10.4611 0.251141 0)
(10.0941 0.192546 0)
(9.85428 0.148631 0)
(9.51644 0.119108 0)
(9.35009 0.0895257 0)
(9.07214 0.0736213 0)
(8.98063 0.0545986 0)
(8.75323 0.050787 0)
(8.71091 0.0387285 0)
(8.51421 0.0423436 0)
(8.49332 0.0338137 0)
(8.31323 0.0411923 0)
(8.29166 0.0379485 0)
(8.1155 0.0431534 0)
(8.07824 0.0475297 0)
(7.90869 -0.0171029 0)
(9.99377 0.45478 0)
(10.5626 0.699446 0)
(11.1615 0.539643 0)
(11.3647 0.347663 0)
(11.5437 0.256717 0)
(11.4447 0.223293 0)
(11.4778 0.19424 0)
(11.2859 0.171738 0)
(11.2886 0.140828 0)
(11.0705 0.122441 0)
(11.0814 0.0978449 0)
(10.8613 0.0907901 0)
(10.8878 0.0734104 0)
(10.6697 0.0756512 0)
(10.706 0.0621314 0)
(10.4879 0.0721194 0)
(10.5235 0.0603189 0)
(10.2994 0.0821851 0)
(10.3075 0.0614776 0)
(10.0737 0.0881317 0)
(10.0362 0.344922 0)
(10.3989 0.562677 0)
(11.04 0.455948 0)
(11.2943 0.290476 0)
(11.6418 0.204603 0)
(11.6536 0.189336 0)
(11.8608 0.172654 0)
(11.7945 0.166554 0)
(11.9599 0.138459 0)
(11.8608 0.130834 0)
(12.0064 0.102822 0)
(11.887 0.105798 0)
(12.0171 0.0813134 0)
(11.8819 0.0958438 0)
(11.9952 0.0710731 0)
(11.8472 0.097254 0)
(11.9391 0.0684811 0)
(11.7792 0.111863 0)
(11.8288 0.0686986 0)
(11.6252 0.122169 0)
(10.048 0.251326 0)
(10.3154 0.451333 0)
(10.8932 0.373302 0)
(11.1713 0.244535 0)
(11.5171 0.158344 0)
(11.588 0.148683 0)
(11.7865 0.138052 0)
(11.7973 0.13953 0)
(11.9605 0.114772 0)
(11.963 0.111504 0)
(12.1102 0.0865473 0)
(12.1083 0.0904871 0)
(12.2392 0.0710579 0)
(12.2322 0.0830784 0)
(12.3438 0.0675828 0)
(12.3313 0.0852525 0)
(12.4201 0.0725138 0)
(12.4002 0.093526 0)
(12.4481 0.0737065 0)
(12.3567 0.0498031 0)
(10.0049 0.173963 0)
(10.2981 0.350622 0)
(10.7488 0.28643 0)
(11.1053 0.202844 0)
(11.3811 0.116554 0)
(11.5394 0.113321 0)
(11.6618 0.102752 0)
(11.7481 0.112695 0)
(11.839 0.0863198 0)
(11.92 0.0901081 0)
(12.0032 0.0635413 0)
(12.0817 0.0723168 0)
(12.1566 0.0512787 0)
(12.2308 0.0663123 0)
(12.2954 0.0498633 0)
(12.3642 0.0683081 0)
(12.4177 0.054189 0)
(12.4765 0.0704195 0)
(12.4995 0.0445502 0)
(12.4668 0.0075056 0)
(9.99774 0.11433 0)
(10.2595 0.248517 0)
(10.6749 0.203709 0)
(11.0273 0.150478 0)
(11.3118 0.0818531 0)
(11.4741 0.0775933 0)
(11.6035 0.0726547 0)
(11.6786 0.0807246 0)
(11.7779 0.0625712 0)
(11.8463 0.0636797 0)
(11.943 0.0456176 0)
(12.0071 0.0499424 0)
(12.0992 0.036625 0)
(12.1562 0.045177 0)
(12.2416 0.0357962 0)
(12.2903 0.0454651 0)
(12.3684 0.0364048 0)
(12.4025 0.0406935 0)
(12.4505 0.0189712 0)
(12.3796 -0.0207306 0)
(9.98358 0.064 0)
(10.2462 0.148285 0)
(10.615 0.121644 0)
(10.9896 0.0922113 0)
(11.2526 0.0479961 0)
(11.4473 0.0463946 0)
(11.5517 0.0427816 0)
(11.6505 0.0494074 0)
(11.7228 0.0374151 0)
(11.8167 0.0387233 0)
(11.8867 0.0266314 0)
(11.9779 0.0297631 0)
(12.0428 0.0209962 0)
(12.1273 0.0262834 0)
(12.1847 0.0194005 0)
(12.2614 0.0242662 0)
(12.3091 0.0158736 0)
(12.3709 0.0146124 0)
(12.3833 -0.00507277 0)
(12.3353 -0.0392087 0)
(9.99024 0.0206965 0)
(10.2266 0.0491451 0)
(10.5991 0.0406678 0)
(10.9572 0.030745 0)
(11.2373 0.0159153 0)
(11.4204 0.0153201 0)
(11.5401 0.0141499 0)
(11.6235 0.016425 0)
(11.7095 0.0123774 0)
(11.7881 0.0125324 0)
(11.8737 0.00844168 0)
(11.9495 0.0089657 0)
(12.03 0.00578744 0)
(12.099 0.00652197 0)
(12.1719 0.00309804 0)
(12.2321 0.00202214 0)
(12.2948 -0.00413435 0)
(12.3393 -0.0108028 0)
(12.3642 -0.026412 0)
(12.2953 -0.0532981 0)
(9.99017 -0.0223543 0)
(10.2265 -0.047087 0)
(10.5988 -0.0426536 0)
(10.9577 -0.0287725 0)
(11.237 -0.0180876 0)
(11.4206 -0.0134899 0)
(11.54 -0.0163554 0)
(11.6238 -0.0147673 0)
(11.7091 -0.0149842 0)
(11.7885 -0.0115077 0)
(11.8732 -0.0119811 0)
(11.9498 -0.00944129 0)
(12.0294 -0.0117269 0)
(12.0991 -0.0109032 0)
(12.1709 -0.0156123 0)
(12.2314 -0.0175371 0)
(12.2932 -0.0261929 0)
(12.3368 -0.0326599 0)
(12.3601 -0.0487215 0)
(12.2883 -0.0625138 0)
(9.98638 -0.0653116 0)
(10.2431 -0.146679 0)
(10.6177 -0.12323 0)
(10.9865 -0.0907096 0)
(11.2556 -0.0495717 0)
(11.4439 -0.0452943 0)
(11.5547 -0.0444202 0)
(11.6475 -0.0484982 0)
(11.7255 -0.0392977 0)
(11.8132 -0.0385716 0)
(11.8895 -0.0294657 0)
(11.9742 -0.0311781 0)
(12.0452 -0.0261673 0)
(12.1231 -0.0316034 0)
(12.1858 -0.0309128 0)
(12.2551 -0.0405304 0)
(12.3073 -0.0447013 0)
(12.3598 -0.0585868 0)
(12.3738 -0.0675848 0)
(12.3119 -0.0761453 0)
(9.99484 -0.115951 0)
(10.2623 -0.2464 0)
(10.6713 -0.205708 0)
(11.0306 -0.148366 0)
(11.3079 -0.083845 0)
(11.4777 -0.0755662 0)
(11.5994 -0.0750318 0)
(11.6825 -0.0787281 0)
(11.7734 -0.0652624 0)
(11.8501 -0.0623442 0)
(11.9378 -0.0493797 0)
(12.0108 -0.0500532 0)
(12.0931 -0.042925 0)
(12.159 -0.0490266 0)
(12.2333 -0.0483828 0)
(12.2903 -0.0594417 0)
(12.3546 -0.0658503 0)
(12.395 -0.0813401 0)
(12.4234 -0.0918815 0)
(12.3522 -0.0879401 0)
(10.0103 -0.175277 0)
(10.2926 -0.34897 0)
(10.7538 -0.288158 0)
(11.1 -0.201169 0)
(11.386 -0.11831 0)
(11.5343 -0.111589 0)
(11.6667 -0.104786 0)
(11.7431 -0.11119 0)
(11.8438 -0.0888013 0)
(11.9145 -0.0892109 0)
(12.0077 -0.067045 0)
(12.0758 -0.0728676 0)
(12.1603 -0.0573152 0)
(12.223 -0.0706822 0)
(12.2966 -0.0620292 0)
(12.3517 -0.0821854 0)
(12.4118 -0.0819578 0)
(12.4518 -0.10878 0)
(12.475 -0.113467 0)
(12.4104 -0.114322 0)
(10.0474 -0.25204 0)
(10.3159 -0.450517 0)
(10.8917 -0.374094 0)
(11.1724 -0.244097 0)
(11.5156 -0.159052 0)
(11.5893 -0.148248 0)
(11.7845 -0.138724 0)
(11.7988 -0.139911 0)
(11.958 -0.11547 0)
(11.9644 -0.11274 0)
(12.1068 -0.0877818 0)
(12.1092 -0.093559 0)
(12.2342 -0.0741884 0)
(12.2308 -0.090408 0)
(12.3344 -0.0757621 0)
(12.323 -0.101931 0)
(12.3992 -0.0940224 0)
(12.3728 -0.132832 0)
(12.3966 -0.129389 0)
(12.2784 -0.149487 0)
(10.0427 -0.346399 0)
(10.3926 -0.560769 0)
(11.0444 -0.457694 0)
(11.2897 -0.288886 0)
(11.6452 -0.206602 0)
(11.6495 -0.187445 0)
(11.8633 -0.174955 0)
(11.791 -0.164837 0)
(11.9612 -0.141314 0)
(11.8576 -0.129339 0)
(12.0056 -0.106828 0)
(11.8834 -0.10516 0)
(12.0123 -0.0879885 0)
(11.8756 -0.0980785 0)
(11.9812 -0.083638 0)
(11.8317 -0.106215 0)
(11.9033 -0.0955687 0)
(11.7378 -0.137296 0)
(11.742 -0.129006 0)
(11.508 -0.169048 0)
(9.99834 -0.455333 0)
(10.5565 -0.698671 0)
(11.1666 -0.540298 0)
(11.3579 -0.347091 0)
(11.5499 -0.257653 0)
(11.4366 -0.222524 0)
(11.4853 -0.195346 0)
(11.2756 -0.171141 0)
(11.2975 -0.142272 0)
(11.0569 -0.122325 0)
(11.0909 -0.0998529 0)
(10.8428 -0.0920177 0)
(10.8958 -0.0767077 0)
(10.642 -0.080724 0)
(10.7058 -0.0683961 0)
(10.4419 -0.0856312 0)
(10.4982 -0.0746976 0)
(10.214 -0.115096 0)
(10.2164 -0.100729 0)
(9.87834 -0.162645 0)
(10.0533 -0.628349 0)
(10.6507 -0.855126 0)
(10.8681 -0.595 0)
(10.688 -0.368167 0)
(10.4644 -0.251778 0)
(10.0889 -0.192011 0)
(9.85954 -0.149454 0)
(9.50767 -0.118556 0)
(9.35822 -0.0907909 0)
(9.05736 -0.0732145 0)
(8.99203 -0.0565663 0)
(8.729 -0.0509613 0)
(8.72455 -0.0420926 0)
(8.47357 -0.0447086 0)
(8.50365 -0.0398428 0)
(8.24256 -0.0495038 0)
(8.2813 -0.0488966 0)
(7.98675 -0.0701874 0)
(7.98762 -0.0746724 0)
(7.63174 -0.0940585 0)
(10.0733 -0.833 0)
(9.66048 -0.860453 0)
(8.89044 -0.502137 0)
(8.10901 -0.258733 0)
(7.53048 -0.136104 0)
(7.04764 -0.0802511 0)
(6.75293 -0.0523603 0)
(6.45283 -0.0390672 0)
(6.30233 -0.028429 0)
(6.08741 -0.023488 0)
(6.02243 -0.0177247 0)
(5.84609 -0.0177642 0)
(5.82971 -0.0146485 0)
(5.65986 -0.018121 0)
(5.66617 -0.0160378 0)
(5.48178 -0.0227518 0)
(5.49122 -0.0227199 0)
(5.26696 -0.0333196 0)
(5.25685 -0.0410565 0)
(4.94257 -0.0259853 0)
(8.09404 -0.385879 0)
(5.4779 -0.241821 0)
(3.95386 -0.0434023 0)
(3.20478 0.0149793 0)
(2.85333 0.0179728 0)
(2.65299 0.0109288 0)
(2.54473 0.00558482 0)
(2.4411 0.00218422 0)
(2.38784 0.00151614 0)
(2.31523 0.000351866 0)
(2.29157 0.000732038 0)
(2.23225 -0.000298257 0)
(2.22253 0.000202247 0)
(2.16146 -0.00114761 0)
(2.15474 -0.000373704 0)
(2.08311 -0.00238458 0)
(2.06997 -0.00131818 0)
(1.97661 -0.00407285 0)
(1.93805 -0.00530209 0)
(1.77131 0.0123061 0)
(2.25161 -0.0837058 0)
(2.4197 0.020664 0)
(2.7242 0.0233641 0)
(2.99368 -0.00519916 0)
(3.24564 -0.0349905 0)
(3.43493 -0.0541625 0)
(3.62044 -0.0691647 0)
(3.75593 -0.0765001 0)
(3.89959 -0.0971221 0)
(4.02419 -0.120547 0)
(4.16075 -0.144696 0)
(4.27832 -0.167012 0)
(4.40944 -0.192077 0)
(4.52321 -0.215831 0)
(4.64332 -0.243304 0)
(4.75689 -0.266961 0)
(4.87479 -0.292069 0)
(5.00056 -0.315812 0)
(5.14277 -0.339065 0)
(5.29284 -0.360093 0)
(5.44601 -0.393204 0)
(5.59905 -0.429631 0)
(5.74057 -0.467094 0)
(5.87699 -0.502736 0)
(6.0036 -0.535915 0)
(6.12089 -0.565664 0)
(6.24042 -0.594587 0)
(6.35037 -0.617136 0)
(6.47552 -0.637011 0)
(6.59711 -0.657539 0)
(6.74195 -0.686303 0)
(6.891 -0.721377 0)
(7.05206 -0.7665 0)
(7.21316 -0.815429 0)
(7.36397 -0.866171 0)
(7.51436 -0.916102 0)
(7.64408 -0.961528 0)
(7.78057 -1.00517 0)
(7.89524 -1.04757 0)
(8.02599 -1.09195 0)
(8.13538 -1.1348 0)
(8.25813 -1.18117 0)
(8.36038 -1.22855 0)
(8.46691 -1.27696 0)
(8.55609 -1.32298 0)
(8.64434 -1.36583 0)
(8.72384 -1.4066 0)
(8.80338 -1.44232 0)
(8.87961 -1.47734 0)
(8.95829 -1.50473 0)
(9.0343 -1.53318 0)
(9.11626 -1.55157 0)
(9.19167 -1.57432 0)
(9.27541 -1.58825 0)
(9.34786 -1.61098 0)
(9.42557 -1.62698 0)
(9.49118 -1.65325 0)
(9.55311 -1.67175 0)
(9.60625 -1.69752 0)
(9.65036 -1.71516 0)
(9.69606 -1.74288 0)
(9.73441 -1.76275 0)
(9.77426 -1.79391 0)
(9.81777 -1.81361 0)
(9.84117 -1.8412 0)
(9.88581 -1.85467 0)
(9.88653 -1.86546 0)
(9.9163 -1.86338 0)
(9.90705 -1.85906 0)
(9.92483 -1.85134 0)
(9.91845 -1.84609 0)
(9.92799 -1.83071 0)
(9.90597 -1.82119 0)
(9.91405 -1.79967 0)
(9.88522 -1.79044 0)
(9.89858 -1.76755 0)
(9.86721 -1.75739 0)
(9.8882 -1.74179 0)
(9.86053 -1.73403 0)
(9.87446 -1.71661 0)
(9.85452 -1.70013 0)
(9.8464 -1.66094 0)
(9.82062 -1.61972 0)
(9.78539 -1.56066 0)
(9.75234 -1.49311 0)
(9.68558 -1.41631 0)
(9.64702 -1.33879 0)
(9.57043 -1.25495 0)
(9.51822 -1.1732 0)
(9.43838 -1.08121 0)
(9.37331 -0.991454 0)
(9.29347 -0.882583 0)
(9.2107 -0.783543 0)
(9.12756 -0.673685 0)
(9.03935 -0.578421 0)
(8.96568 -0.472694 0)
(8.87635 -0.383346 0)
(8.8131 -0.288803 0)
(8.73494 -0.215357 0)
(8.70391 -0.142805 0)
(8.6316 -0.093621 0)
(8.6351 -0.0318394 0)
(8.57256 -0.0108409 0)
(8.60147 0.0420382 0)
(8.53567 0.0805853 0)
(8.56744 0.141051 0)
(8.49458 0.183941 0)
(8.51983 0.249184 0)
(8.4373 0.29577 0)
(8.44729 0.357239 0)
(8.35311 0.400424 0)
(8.34865 0.45459 0)
(8.23639 0.483872 0)
(8.23707 0.526843 0)
(8.10843 0.537022 0)
(8.13845 0.58336 0)
(7.98683 0.590049 0)
(8.04145 0.638628 0)
(7.87325 0.642121 0)
(7.91926 0.696552 0)
(7.74817 0.700196 0)
(7.79989 0.745927 0)
(7.65273 0.727708 0)
(7.72553 0.757395 0)
(7.58339 0.714236 0)
(7.6683 0.734575 0)
(7.53296 0.678064 0)
(7.61881 0.703451 0)
(7.5008 0.655713 0)
(7.57442 0.679753 0)
(7.46793 0.639585 0)
(7.54496 0.663892 0)
(7.43419 0.629349 0)
(7.51741 0.655418 0)
(7.39446 0.604861 0)
(7.48829 0.630367 0)
(7.35849 0.573282 0)
(7.45694 0.608636 0)
(7.32565 0.546795 0)
(7.43141 0.577916 0)
(7.28896 0.509275 0)
(7.38989 0.536933 0)
(7.24907 0.472115 0)
(7.36026 0.489653 0)
(7.22141 0.420167 0)
(7.36017 0.436333 0)
(7.17971 0.368419 0)
(7.36674 0.395529 0)
(7.1466 0.323101 0)
(7.35456 0.354239 0)
(7.11661 0.290716 0)
(7.3231 0.328041 0)
(7.08828 0.272915 0)
(7.28543 0.315787 0)
(7.0614 0.267515 0)
(7.23877 0.316569 0)
(7.04913 0.283162 0)
(7.19607 0.33804 0)
(7.05116 0.308485 0)
(7.18285 0.376285 0)
(7.08137 0.334426 0)
(7.16766 0.397698 0)
(7.11574 0.367754 0)
(7.15016 0.436084 0)
(7.10215 0.414637 0)
(7.11216 0.480587 0)
(7.10121 0.470132 0)
(7.05864 0.52031 0)
(7.11062 0.531755 0)
(6.96924 0.57521 0)
(7.10382 0.591738 0)
(6.84889 0.645052 0)
(7.04794 0.646611 0)
(6.7278 0.730851 0)
(6.98593 0.701031 0)
(6.60819 0.846018 0)
(6.94517 0.774723 0)
(6.50834 0.988571 0)
(6.90666 0.868033 0)
(6.42372 1.16037 0)
(6.84818 0.996081 0)
(6.35261 1.35732 0)
(6.77384 1.1581 0)
(6.29764 1.57597 0)
(6.67254 1.3704 0)
(6.25485 1.82269 0)
(6.56021 1.64861 0)
(6.18272 2.08415 0)
(6.43799 1.99029 0)
(6.03297 2.35986 0)
(6.32612 2.39823 0)
(5.79961 2.70181 0)
(6.16611 2.86716 0)
(5.57639 3.21442 0)
(5.89828 3.4238 0)
(5.48196 4.10079 0)
(5.57854 4.27235 0)
(5.15129 5.49144 0)
(6.08273 6.27462 0)
(3.83601 9.15704 0)
(5.32026 -0.0576211 0)
(5.31267 -0.0234136 0)
(5.36991 -0.041142 0)
(5.48034 -0.0874234 0)
(5.617 -0.128258 0)
(5.7377 -0.151102 0)
(5.84424 -0.16452 0)
(5.92616 -0.173896 0)
(5.9978 -0.18856 0)
(6.06257 -0.209112 0)
(6.13221 -0.234329 0)
(6.20344 -0.26061 0)
(6.28527 -0.287803 0)
(6.36962 -0.313542 0)
(6.46221 -0.339057 0)
(6.55633 -0.364919 0)
(6.65737 -0.390879 0)
(6.75875 -0.417341 0)
(6.86785 -0.445943 0)
(6.97979 -0.474386 0)
(7.09558 -0.506967 0)
(7.2131 -0.542679 0)
(7.32472 -0.577518 0)
(7.43471 -0.611523 0)
(7.54017 -0.641966 0)
(7.64222 -0.670215 0)
(7.74817 -0.694719 0)
(7.84941 -0.718327 0)
(7.96095 -0.741691 0)
(8.06646 -0.767795 0)
(8.18836 -0.798665 0)
(8.30138 -0.834932 0)
(8.4312 -0.877994 0)
(8.54393 -0.923105 0)
(8.66777 -0.970735 0)
(8.76946 -1.01394 0)
(8.87637 -1.05783 0)
(8.96571 -1.09528 0)
(9.05421 -1.13629 0)
(9.13662 -1.17302 0)
(9.21417 -1.21603 0)
(9.29564 -1.25524 0)
(9.3678 -1.30086 0)
(9.44779 -1.34153 0)
(9.51707 -1.38558 0)
(9.59162 -1.42386 0)
(9.65946 -1.4635 0)
(9.72569 -1.49754 0)
(9.79237 -1.53153 0)
(9.84845 -1.55914 0)
(9.91251 -1.58553 0)
(9.95766 -1.60476 0)
(10.0166 -1.62434 0)
(10.0513 -1.63747 0)
(10.1026 -1.65482 0)
(10.1289 -1.66724 0)
(10.1708 -1.68608 0)
(10.1916 -1.70271 0)
(10.226 -1.724 0)
(10.2424 -1.7464 0)
(10.2745 -1.7701 0)
(10.281 -1.7955 0)
(10.3105 -1.81893 0)
(10.298 -1.83869 0)
(10.3173 -1.85447 0)
(10.2882 -1.85945 0)
(10.2857 -1.85888 0)
(10.2514 -1.85123 0)
(10.2381 -1.84692 0)
(10.2103 -1.84243 0)
(10.1881 -1.82915 0)
(10.1565 -1.81547 0)
(10.1286 -1.7984 0)
(10.0961 -1.78357 0)
(10.06 -1.7721 0)
(10.0347 -1.7529 0)
(9.98613 -1.7447 0)
(9.97159 -1.72507 0)
(9.90437 -1.71577 0)
(9.89228 -1.69368 0)
(9.81527 -1.67222 0)
(9.78989 -1.62709 0)
(9.70853 -1.58504 0)
(9.66945 -1.51419 0)
(9.581 -1.4446 0)
(9.5312 -1.36183 0)
(9.44621 -1.28544 0)
(9.38816 -1.19284 0)
(9.29699 -1.11447 0)
(9.23438 -1.01564 0)
(9.14474 -0.926011 0)
(9.07066 -0.811442 0)
(8.97685 -0.717473 0)
(8.89212 -0.604559 0)
(8.7993 -0.513793 0)
(8.71223 -0.404358 0)
(8.6328 -0.322361 0)
(8.55409 -0.231083 0)
(8.51265 -0.171202 0)
(8.45117 -0.106375 0)
(8.43791 -0.0699421 0)
(8.40128 -0.0201367 0)
(8.40671 -0.00267262 0)
(8.36652 0.0502569 0)
(8.38088 0.0945996 0)
(8.33005 0.154888 0)
(8.34407 0.206756 0)
(8.27877 0.272254 0)
(8.28603 0.326073 0)
(8.20318 0.391487 0)
(8.21289 0.444279 0)
(8.10642 0.503089 0)
(8.11839 0.538085 0)
(7.99189 0.576486 0)
(8.00805 0.591668 0)
(7.87053 0.630122 0)
(7.88915 0.640595 0)
(7.75627 0.683352 0)
(7.77023 0.698533 0)
(7.62308 0.74346 0)
(7.66115 0.749531 0)
(7.51815 0.772697 0)
(7.59598 0.757814 0)
(7.45868 0.771475 0)
(7.56116 0.739653 0)
(7.4227 0.749214 0)
(7.54749 0.702749 0)
(7.38943 0.713992 0)
(7.53125 0.678968 0)
(7.36027 0.690163 0)
(7.50915 0.653707 0)
(7.33912 0.674434 0)
(7.48706 0.637494 0)
(7.31963 0.666358 0)
(7.47037 0.619042 0)
(7.28374 0.641285 0)
(7.45948 0.589642 0)
(7.24487 0.605272 0)
(7.45774 0.563127 0)
(7.21635 0.567896 0)
(7.46055 0.532873 0)
(7.18287 0.536743 0)
(7.44177 0.494375 0)
(7.16647 0.495594 0)
(7.41636 0.435628 0)
(7.1594 0.448032 0)
(7.39083 0.377266 0)
(7.14084 0.4033 0)
(7.39042 0.329668 0)
(7.12655 0.363964 0)
(7.37185 0.290389 0)
(7.10592 0.336916 0)
(7.33895 0.269289 0)
(7.07809 0.333025 0)
(7.31451 0.260504 0)
(7.04244 0.340557 0)
(7.30439 0.25719 0)
(7.0107 0.365145 0)
(7.33241 0.273989 0)
(6.99473 0.395392 0)
(7.39026 0.296404 0)
(7.00174 0.429666 0)
(7.40505 0.330837 0)
(7.01547 0.486604 0)
(7.39312 0.371516 0)
(7.01787 0.531375 0)
(7.39722 0.409522 0)
(7.0003 0.590369 0)
(7.37484 0.456193 0)
(6.96687 0.671895 0)
(7.33116 0.510864 0)
(6.92091 0.763056 0)
(7.27956 0.563012 0)
(6.86246 0.857488 0)
(7.22032 0.612485 0)
(6.79964 0.963128 0)
(7.19167 0.687385 0)
(6.7408 1.09004 0)
(7.17732 0.803608 0)
(6.67415 1.24401 0)
(7.15853 0.953977 0)
(6.60518 1.41444 0)
(7.13541 1.14996 0)
(6.5318 1.60279 0)
(7.1181 1.39586 0)
(6.44517 1.81895 0)
(7.11734 1.69004 0)
(6.34558 2.08162 0)
(7.11235 2.01258 0)
(6.25404 2.43809 0)
(7.04574 2.35087 0)
(6.22678 2.92157 0)
(6.85569 2.7339 0)
(6.23378 3.55011 0)
(6.61268 3.30628 0)
(6.11444 4.35226 0)
(6.81358 4.33606 0)
(5.54931 5.71014 0)
(8.29238 5.41522 0)
(6.29094 9.79447 0)
(7.93146 -0.0839018 0)
(7.93736 -0.0927112 0)
(7.97248 -0.114595 0)
(8.05166 -0.142749 0)
(8.14832 -0.165688 0)
(8.23491 -0.180297 0)
(8.29529 -0.190979 0)
(8.33411 -0.201544 0)
(8.35577 -0.216537 0)
(8.37746 -0.237844 0)
(8.40112 -0.265133 0)
(8.43657 -0.295895 0)
(8.47727 -0.328302 0)
(8.52881 -0.360782 0)
(8.58313 -0.392536 0)
(8.64587 -0.423541 0)
(8.70926 -0.453647 0)
(8.7775 -0.483329 0)
(8.84313 -0.51345 0)
(8.91408 -0.544798 0)
(8.97997 -0.577798 0)
(9.05398 -0.613026 0)
(9.11912 -0.64735 0)
(9.19411 -0.681419 0)
(9.25857 -0.712033 0)
(9.33611 -0.741498 0)
(9.40248 -0.766968 0)
(9.48494 -0.793266 0)
(9.55413 -0.81748 0)
(9.63779 -0.846007 0)
(9.70868 -0.875247 0)
(9.78938 -0.911818 0)
(9.86023 -0.949588 0)
(9.93122 -0.993303 0)
(9.99747 -1.03488 0)
(10.0542 -1.07823 0)
(10.1149 -1.11678 0)
(10.1599 -1.155 0)
(10.2166 -1.19005 0)
(10.2556 -1.22543 0)
(10.3113 -1.26161 0)
(10.353 -1.29878 0)
(10.4081 -1.33909 0)
(10.4544 -1.3789 0)
(10.5046 -1.42096 0)
(10.5517 -1.46024 0)
(10.5917 -1.49965 0)
(10.6337 -1.53439 0)
(10.6606 -1.56716 0)
(10.6937 -1.59412 0)
(10.7087 -1.6173 0)
(10.7313 -1.63569 0)
(10.7378 -1.65053 0)
(10.7499 -1.6626 0)
(10.7521 -1.67449 0)
(10.7577 -1.6856 0)
(10.7595 -1.70169 0)
(10.7646 -1.71738 0)
(10.7654 -1.73937 0)
(10.7703 -1.75787 0)
(10.7595 -1.77816 0)
(10.7569 -1.79454 0)
(10.7242 -1.80773 0)
(10.7035 -1.8188 0)
(10.6487 -1.82104 0)
(10.6042 -1.82202 0)
(10.5403 -1.81674 0)
(10.4881 -1.81381 0)
(10.4342 -1.80953 0)
(10.3766 -1.8045 0)
(10.3211 -1.79327 0)
(10.2593 -1.77872 0)
(10.2058 -1.75854 0)
(10.1364 -1.74546 0)
(10.0842 -1.72881 0)
(10.0024 -1.71331 0)
(9.94252 -1.69873 0)
(9.85678 -1.67755 0)
(9.78753 -1.66797 0)
(9.71008 -1.6431 0)
(9.63384 -1.62083 0)
(9.55916 -1.57455 0)
(9.4867 -1.53163 0)
(9.40616 -1.45175 0)
(9.33637 -1.38932 0)
(9.25756 -1.29871 0)
(9.18522 -1.22329 0)
(9.0958 -1.12476 0)
(9.02891 -1.05061 0)
(8.93101 -0.947723 0)
(8.87221 -0.856627 0)
(8.76367 -0.737952 0)
(8.69878 -0.647407 0)
(8.58588 -0.528977 0)
(8.52204 -0.44262 0)
(8.41772 -0.333913 0)
(8.35199 -0.265244 0)
(8.27258 -0.18137 0)
(8.2426 -0.137827 0)
(8.18427 -0.0786027 0)
(8.18286 -0.0595425 0)
(8.14572 -0.0122703 0)
(8.14148 -0.00309409 0)
(8.1098 0.061212 0)
(8.10016 0.101081 0)
(8.069 0.176046 0)
(8.04442 0.220646 0)
(8.01743 0.303572 0)
(7.97653 0.347034 0)
(7.95093 0.436644 0)
(7.8958 0.475271 0)
(7.86713 0.558858 0)
(7.80148 0.574935 0)
(7.77463 0.635972 0)
(7.69971 0.639036 0)
(7.66181 0.694435 0)
(7.57459 0.688739 0)
(7.53797 0.751312 0)
(7.43108 0.746319 0)
(7.43006 0.80531 0)
(7.33122 0.775801 0)
(7.36173 0.813487 0)
(7.28057 0.762493 0)
(7.33282 0.794481 0)
(7.26656 0.732672 0)
(7.33412 0.768647 0)
(7.26657 0.695082 0)
(7.33688 0.739056 0)
(7.2611 0.667722 0)
(7.34341 0.718549 0)
(7.25339 0.63971 0)
(7.337 0.707785 0)
(7.24366 0.622425 0)
(7.3252 0.701948 0)
(7.2367 0.613413 0)
(7.29534 0.684934 0)
(7.22701 0.591391 0)
(7.26368 0.640402 0)
(7.21634 0.554202 0)
(7.26333 0.595206 0)
(7.2061 0.514054 0)
(7.28481 0.569272 0)
(7.18282 0.472144 0)
(7.29957 0.526475 0)
(7.16487 0.418274 0)
(7.29348 0.480769 0)
(7.14481 0.36837 0)
(7.29057 0.438777 0)
(7.12234 0.315295 0)
(7.29598 0.411506 0)
(7.08981 0.27488 0)
(7.29388 0.3963 0)
(7.04381 0.248644 0)
(7.28172 0.401525 0)
(7.00925 0.23467 0)
(7.26536 0.419288 0)
(6.99821 0.221084 0)
(7.23957 0.422498 0)
(7.03366 0.219346 0)
(7.23564 0.433684 0)
(7.0739 0.239888 0)
(7.26132 0.481024 0)
(7.07257 0.285353 0)
(7.27889 0.541738 0)
(7.09396 0.324549 0)
(7.28726 0.589418 0)
(7.09791 0.370944 0)
(7.27078 0.667786 0)
(7.09616 0.434298 0)
(7.22981 0.75261 0)
(7.10496 0.499727 0)
(7.15473 0.835915 0)
(7.16018 0.553501 0)
(7.04089 0.917818 0)
(7.25033 0.613635 0)
(6.90795 1.00997 0)
(7.35197 0.695296 0)
(6.77229 1.13293 0)
(7.44517 0.814614 0)
(6.66067 1.2785 0)
(7.51379 0.967727 0)
(6.56106 1.44988 0)
(7.53783 1.15348 0)
(6.47234 1.66031 0)
(7.517 1.36311 0)
(6.42123 1.92261 0)
(7.45116 1.59744 0)
(6.43301 2.25261 0)
(7.32435 1.85331 0)
(6.5209 2.64066 0)
(7.17066 2.18068 0)
(6.63307 3.08766 0)
(7.13203 2.63915 0)
(6.61606 3.59325 0)
(7.44672 3.26141 0)
(6.33043 4.42547 0)
(8.36791 3.84171 0)
(6.1106 6.28621 0)
(9.49139 3.79155 0)
(7.9425 8.9559 0)
(10.081 -0.119352 0)
(10.1031 -0.231324 0)
(10.1562 -0.277583 0)
(10.2281 -0.274095 0)
(10.3021 -0.25367 0)
(10.3583 -0.234495 0)
(10.3915 -0.225424 0)
(10.4061 -0.226549 0)
(10.4109 -0.238143 0)
(10.4157 -0.257947 0)
(10.4241 -0.285525 0)
(10.4395 -0.317506 0)
(10.4588 -0.352895 0)
(10.4833 -0.388216 0)
(10.5093 -0.42364 0)
(10.5383 -0.456754 0)
(10.5667 -0.489351 0)
(10.5966 -0.519771 0)
(10.6257 -0.550993 0)
(10.657 -0.581485 0)
(10.6884 -0.61409 0)
(10.7216 -0.646584 0)
(10.7546 -0.68086 0)
(10.7887 -0.713278 0)
(10.8217 -0.746023 0)
(10.8574 -0.775529 0)
(10.8893 -0.804596 0)
(10.9271 -0.830976 0)
(10.957 -0.858201 0)
(10.9966 -0.88531 0)
(11.0217 -0.914906 0)
(11.0608 -0.946911 0)
(11.0791 -0.981482 0)
(11.1146 -1.01973 0)
(11.1255 -1.05757 0)
(11.1548 -1.0981 0)
(11.1615 -1.13481 0)
(11.1855 -1.17474 0)
(11.1948 -1.20942 0)
(11.2157 -1.2483 0)
(11.2318 -1.28291 0)
(11.2509 -1.32376 0)
(11.273 -1.36133 0)
(11.2875 -1.40387 0)
(11.3088 -1.44266 0)
(11.3146 -1.48311 0)
(11.3282 -1.51832 0)
(11.3235 -1.55168 0)
(11.3261 -1.5791 0)
(11.3128 -1.60254 0)
(11.3043 -1.6205 0)
(11.2851 -1.63489 0)
(11.2674 -1.64483 0)
(11.2446 -1.65458 0)
(11.2241 -1.66301 0)
(11.2019 -1.67557 0)
(11.184 -1.6887 0)
(11.1589 -1.70474 0)
(11.1391 -1.72017 0)
(11.0997 -1.73306 0)
(11.0676 -1.74554 0)
(11.0087 -1.75192 0)
(10.9564 -1.75884 0)
(10.8807 -1.75729 0)
(10.8018 -1.75578 0)
(10.7185 -1.75245 0)
(10.626 -1.7544 0)
(10.5492 -1.75684 0)
(10.4511 -1.7518 0)
(10.377 -1.7462 0)
(10.2718 -1.73393 0)
(10.1915 -1.71845 0)
(10.0866 -1.69637 0)
(10.0087 -1.68222 0)
(9.89699 -1.65864 0)
(9.80582 -1.64471 0)
(9.6926 -1.62015 0)
(9.60271 -1.60937 0)
(9.50275 -1.59407 0)
(9.4285 -1.57677 0)
(9.33068 -1.54577 0)
(9.26887 -1.50999 0)
(9.16465 -1.45351 0)
(9.10493 -1.38475 0)
(9.00176 -1.31829 0)
(8.94123 -1.22903 0)
(8.83319 -1.15014 0)
(8.77135 -1.06712 0)
(8.67381 -0.987076 0)
(8.61392 -0.888626 0)
(8.5076 -0.789908 0)
(8.44493 -0.66789 0)
(8.32897 -0.571027 0)
(8.27086 -0.45152 0)
(8.16423 -0.368456 0)
(8.11494 -0.261586 0)
(8.0134 -0.209662 0)
(7.9884 -0.133545 0)
(7.91326 -0.110327 0)
(7.90065 -0.0491831 0)
(7.8545 -0.044843 0)
(7.83983 0.0127835 0)
(7.80084 0.00706733 0)
(7.78851 0.0886103 0)
(7.75337 0.108453 0)
(7.73864 0.202838 0)
(7.69384 0.230582 0)
(7.67981 0.335852 0)
(7.63129 0.364358 0)
(7.60967 0.474735 0)
(7.55346 0.499052 0)
(7.52239 0.596615 0)
(7.4656 0.597504 0)
(7.43728 0.678018 0)
(7.37227 0.673915 0)
(7.34341 0.749165 0)
(7.25729 0.736182 0)
(7.22162 0.81353 0)
(7.13064 0.783925 0)
(7.13688 0.848299 0)
(7.05553 0.786701 0)
(7.09305 0.835356 0)
(7.03939 0.753029 0)
(7.08065 0.801994 0)
(7.06 0.711681 0)
(7.09129 0.766518 0)
(7.08126 0.674806 0)
(7.11596 0.744388 0)
(7.10856 0.644475 0)
(7.14496 0.730493 0)
(7.13661 0.62175 0)
(7.15906 0.7267 0)
(7.14941 0.611186 0)
(7.16442 0.721637 0)
(7.15398 0.605628 0)
(7.16107 0.704552 0)
(7.14978 0.586891 0)
(7.15257 0.654896 0)
(7.13787 0.540122 0)
(7.17345 0.606031 0)
(7.13544 0.493135 0)
(7.21061 0.579659 0)
(7.15493 0.454503 0)
(7.22763 0.538901 0)
(7.18863 0.411611 0)
(7.22324 0.496937 0)
(7.19762 0.365373 0)
(7.2267 0.452648 0)
(7.20669 0.313851 0)
(7.19979 0.417523 0)
(7.21838 0.276555 0)
(7.17054 0.41001 0)
(7.22676 0.252744 0)
(7.13036 0.408462 0)
(7.23477 0.228541 0)
(7.09473 0.42086 0)
(7.25636 0.21771 0)
(7.06315 0.424615 0)
(7.2941 0.2127 0)
(7.0372 0.434261 0)
(7.32136 0.220805 0)
(7.02624 0.486012 0)
(7.36766 0.258609 0)
(6.98292 0.52833 0)
(7.46372 0.305386 0)
(6.92391 0.596533 0)
(7.52711 0.353031 0)
(6.8471 0.681865 0)
(7.59926 0.399771 0)
(6.77264 0.77648 0)
(7.68368 0.44421 0)
(6.69397 0.864981 0)
(7.78773 0.494736 0)
(6.60759 0.950492 0)
(7.87101 0.552848 0)
(6.53148 1.05298 0)
(7.89922 0.630615 0)
(6.50567 1.18469 0)
(7.89343 0.734006 0)
(6.52982 1.35189 0)
(7.85988 0.873372 0)
(6.59239 1.56652 0)
(7.78848 1.04061 0)
(6.68648 1.81113 0)
(7.67664 1.24013 0)
(6.79894 2.08395 0)
(7.57085 1.4858 0)
(6.89185 2.39172 0)
(7.54381 1.79184 0)
(6.89023 2.73829 0)
(7.67381 2.13934 0)
(6.75592 3.18769 0)
(8.04697 2.50924 0)
(6.50379 3.85704 0)
(8.70403 2.75682 0)
(6.37442 4.96911 0)
(9.55661 2.75438 0)
(6.9711 6.59892 0)
(9.9448 2.96673 0)
(8.71926 7.80746 0)
(11.5497 -0.106849 0)
(11.5908 -0.246191 0)
(11.71 -0.304911 0)
(11.806 -0.301752 0)
(11.8732 -0.273035 0)
(11.9033 -0.24335 0)
(11.9142 -0.226926 0)
(11.9064 -0.22592 0)
(11.8988 -0.238818 0)
(11.8858 -0.261237 0)
(11.8811 -0.291264 0)
(11.8743 -0.324913 0)
(11.876 -0.361266 0)
(11.8749 -0.397143 0)
(11.8805 -0.43296 0)
(11.8823 -0.466562 0)
(11.889 -0.499352 0)
(11.8921 -0.530303 0)
(11.8993 -0.561387 0)
(11.903 -0.592135 0)
(11.9106 -0.624257 0)
(11.913 -0.65679 0)
(11.9193 -0.690681 0)
(11.9179 -0.723764 0)
(11.9216 -0.757075 0)
(11.9156 -0.787992 0)
(11.9175 -0.818542 0)
(11.9086 -0.845947 0)
(11.9108 -0.874599 0)
(11.902 -0.900395 0)
(11.9043 -0.929845 0)
(11.8971 -0.957282 0)
(11.8976 -0.990992 0)
(11.8928 -1.0224 0)
(11.8884 -1.06026 0)
(11.886 -1.09477 0)
(11.8753 -1.13504 0)
(11.8758 -1.17134 0)
(11.8601 -1.21208 0)
(11.8629 -1.24956 0)
(11.844 -1.29058 0)
(11.8467 -1.32985 0)
(11.8252 -1.37073 0)
(11.8235 -1.41036 0)
(11.7988 -1.44897 0)
(11.7881 -1.48481 0)
(11.7593 -1.51739 0)
(11.7375 -1.54524 0)
(11.7035 -1.56892 0)
(11.6701 -1.58636 0)
(11.6295 -1.60084 0)
(11.5872 -1.60958 0)
(11.5423 -1.6195 0)
(11.4984 -1.62695 0)
(11.4533 -1.63889 0)
(11.4105 -1.64923 0)
(11.3602 -1.66207 0)
(11.3106 -1.67188 0)
(11.246 -1.6815 0)
(11.182 -1.68898 0)
(11.104 -1.695 0)
(11.0209 -1.69641 0)
(10.9319 -1.6944 0)
(10.8278 -1.68662 0)
(10.7349 -1.68238 0)
(10.623 -1.67746 0)
(10.5333 -1.68 0)
(10.4105 -1.67474 0)
(10.3072 -1.67185 0)
(10.1796 -1.65563 0)
(10.0659 -1.64347 0)
(9.93492 -1.62085 0)
(9.8231 -1.60574 0)
(9.69783 -1.58152 0)
(9.57914 -1.56246 0)
(9.45348 -1.54349 0)
(9.34007 -1.5315 0)
(9.23644 -1.52549 0)
(9.1472 -1.5206 0)
(9.05672 -1.50169 0)
(8.97103 -1.47809 0)
(8.88587 -1.436 0)
(8.78988 -1.38142 0)
(8.71514 -1.3164 0)
(8.61807 -1.24881 0)
(8.53652 -1.16064 0)
(8.45455 -1.08885 0)
(8.37493 -1.00479 0)
(8.29509 -0.928183 0)
(8.21796 -0.810235 0)
(8.1176 -0.715083 0)
(8.0353 -0.584419 0)
(7.94918 -0.506185 0)
(7.86652 -0.377118 0)
(7.80559 -0.320855 0)
(7.72304 -0.197379 0)
(7.6792 -0.180144 0)
(7.60924 -0.0764301 0)
(7.56888 -0.0919984 0)
(7.51074 -0.00391933 0)
(7.49355 -0.0328374 0)
(7.43001 0.0561837 0)
(7.43629 0.0166099 0)
(7.3621 0.131421 0)
(7.38128 0.122021 0)
(7.29482 0.243303 0)
(7.3238 0.245023 0)
(7.23368 0.377559 0)
(7.25931 0.381526 0)
(7.16307 0.522764 0)
(7.181 0.522615 0)
(7.08003 0.647488 0)
(7.09861 0.617656 0)
(6.99521 0.73329 0)
(7.01239 0.695248 0)
(6.91035 0.81728 0)
(6.90527 0.7727 0)
(6.80564 0.887757 0)
(6.82119 0.804081 0)
(6.73345 0.898289 0)
(6.7801 0.778469 0)
(6.70835 0.867105 0)
(6.78714 0.733187 0)
(6.71567 0.822565 0)
(6.82538 0.688742 0)
(6.74237 0.779235 0)
(6.8625 0.640028 0)
(6.79366 0.752271 0)
(6.90859 0.606176 0)
(6.85033 0.744975 0)
(6.96224 0.590911 0)
(6.89222 0.743886 0)
(6.99608 0.58624 0)
(6.91963 0.74414 0)
(7.02179 0.577409 0)
(6.9389 0.733498 0)
(7.03719 0.558107 0)
(6.95253 0.689953 0)
(7.04521 0.500099 0)
(6.97553 0.637468 0)
(7.07745 0.445629 0)
(6.99553 0.602911 0)
(7.13522 0.40604 0)
(7.0306 0.559076 0)
(7.18484 0.369374 0)
(7.05959 0.526743 0)
(7.21119 0.324757 0)
(7.06108 0.491987 0)
(7.23642 0.280565 0)
(7.03978 0.474214 0)
(7.25131 0.234524 0)
(7.00866 0.477779 0)
(7.28437 0.213978 0)
(6.96425 0.488044 0)
(7.30748 0.191313 0)
(6.93344 0.486784 0)
(7.31503 0.165193 0)
(6.9293 0.489189 0)
(7.3043 0.152461 0)
(6.93334 0.51365 0)
(7.28839 0.156688 0)
(6.92862 0.565078 0)
(7.34716 0.198571 0)
(6.89059 0.605509 0)
(7.41027 0.23657 0)
(6.86762 0.70657 0)
(7.45682 0.27665 0)
(6.83525 0.794319 0)
(7.51506 0.306548 0)