/*--------------------------------*- C++ -*----------------------------------*\
| =========                 |                                                 |
| \\      /  F ield         | OpenFOAM: The Open Source CFD Toolbox           |
|  \\    /   O peration     | Version:  2.4.0                                 |
|   \\  /    A nd           | Web:      www.OpenFOAM.org                      |
|    \\/     M anipulation  |                                                 |
\*---------------------------------------------------------------------------*/
FoamFile
{
    version     2.0;
    format      ascii;
    class       surfaceScalarField;
    location    "0.96";
    object      phi_0;
}
// * * * * * * * * * * * * * * * * * * * * * * * * * * * * * * * * * * * * * //

dimensions      [0 3 -1 0 0 0 0];

internalField   nonuniform List<scalar> 
17320
(
1.76514e-05
7.3486e-06
1.15993e-05
6.05208e-06
8.66567e-06
2.93365e-06
7.38159e-06
1.28408e-06
6.6916e-06
6.89993e-07
6.34947e-06
3.42127e-07
6.11561e-06
2.33866e-07
5.82549e-06
2.90119e-07
5.72461e-06
1.00875e-07
5.61672e-06
1.07888e-07
5.44202e-06
1.74705e-07
5.39575e-06
4.62667e-08
5.35835e-06
3.73984e-08
5.17952e-06
1.78834e-07
5.1742e-06
5.32256e-09
5.05627e-06
1.17931e-07
4.96909e-06
8.71741e-08
4.9002e-06
6.88891e-08
4.59953e-06
3.00674e-07
-6.90754e-07
5.29028e-06
2.54814e-05
6.86716e-06
2.32083e-05
8.32517e-06
2.09812e-05
5.16084e-06
1.934e-05
2.92526e-06
1.80344e-05
1.99555e-06
1.71523e-05
1.22427e-06
1.63757e-05
1.01046e-06
1.57341e-05
9.3166e-07
1.53431e-05
4.91894e-07
1.49537e-05
4.97284e-07
1.45937e-05
5.34744e-07
1.44102e-05
2.29784e-07
1.41792e-05
2.68356e-07
1.391e-05
4.48076e-07
1.3782e-05
1.33313e-07
1.3544e-05
3.55958e-07
1.33427e-05
2.88426e-07
1.31477e-05
2.63889e-07
1.28852e-05
5.63149e-07
-7.86475e-07
1.29809e-05
2.66507e-05
5.21643e-06
2.71089e-05
7.86702e-06
2.67899e-05
5.4798e-06
2.62641e-05
3.45107e-06
2.55317e-05
2.72797e-06
2.49466e-05
1.80938e-06
2.41419e-05
1.81515e-06
2.34671e-05
1.60644e-06
2.29845e-05
9.74517e-07
2.24499e-05
1.03191e-06
2.19906e-05
9.9399e-07
2.17366e-05
4.83759e-07
2.13602e-05
6.44779e-07
2.10571e-05
7.51175e-07
2.08569e-05
3.33536e-07
2.05294e-05
6.83455e-07
2.03264e-05
4.91422e-07
1.99654e-05
6.24869e-07
1.98178e-05
7.10827e-07
-3.55895e-07
1.93872e-05
2.63519e-05
3.86452e-06
2.74738e-05
6.74513e-06
2.81141e-05
4.83954e-06
2.84916e-05
3.07354e-06
2.8536e-05
2.68352e-06
2.87005e-05
1.64494e-06
2.84563e-05
2.05934e-06
2.81753e-05
1.88747e-06
2.80324e-05
1.11741e-06
2.76893e-05
1.37498e-06
2.73812e-05
1.30209e-06
2.7231e-05
6.33991e-07
2.69216e-05
9.54174e-07
2.66383e-05
1.03443e-06
2.65216e-05
4.50279e-07
2.61412e-05
1.06387e-06
2.60771e-05
5.55436e-07
2.55702e-05
1.13183e-06
2.54123e-05
8.687e-07
6.71398e-07
2.4385e-05
2.61104e-05
2.75415e-06
2.70381e-05
5.81742e-06
2.79742e-05
3.90344e-06
2.85687e-05
2.47906e-06
2.88892e-05
2.36298e-06
2.93666e-05
1.16754e-06
2.96724e-05
1.75355e-06
2.96953e-05
1.86458e-06
2.98833e-05
9.29389e-07
2.99083e-05
1.34998e-06
2.99149e-05
1.29545e-06
2.99319e-05
6.17036e-07
2.99583e-05
9.27794e-07
2.98754e-05
1.11735e-06
2.99364e-05
3.8921e-07
2.97239e-05
1.27636e-06
2.98567e-05
4.22687e-07
2.95912e-05
1.39733e-06
2.97271e-05
7.328e-07
2.37637e-07
3.01608e-05
2.59857e-05
1.76841e-06
2.67975e-05
5.00562e-06
2.75531e-05
3.14791e-06
2.82768e-05
1.75538e-06
2.86147e-05
2.02505e-06
2.89907e-05
7.91532e-07
2.95646e-05
1.17962e-06
2.98116e-05
1.61763e-06
2.99711e-05
7.69806e-07
3.0223e-05
1.09807e-06
3.04637e-05
1.05478e-06
3.04747e-05
6.06094e-07
3.06429e-05
7.59575e-07
3.08506e-05
9.09613e-07
3.09682e-05
2.71653e-07
3.09717e-05
1.27286e-06
3.12577e-05
1.36714e-07
3.13798e-05
1.27515e-06
3.15326e-05
5.80055e-07
-3.79216e-07
3.21494e-05
2.58328e-05
9.35586e-07
2.66736e-05
4.16486e-06
2.70699e-05
2.75161e-06
2.79733e-05
8.51978e-07
2.84688e-05
1.52952e-06
2.87416e-05
5.18765e-07
2.93245e-05
5.96676e-07
2.98389e-05
1.10327e-06
3.00162e-05
5.92462e-07
3.0272e-05
8.42321e-07
3.06443e-05
6.82488e-07
3.05837e-05
6.66684e-07
3.06123e-05
7.30911e-07
3.0889e-05
6.32979e-07
3.09513e-05
2.09282e-07
3.11415e-05
1.08274e-06
3.1316e-05
-3.78245e-08
3.17609e-05
8.30268e-07
3.20104e-05
3.3056e-07
-6.2718e-07
3.22583e-05
2.55305e-05
4.05084e-07
2.65448e-05
3.15052e-06
2.73268e-05
1.96964e-06
2.78474e-05
3.31439e-07
2.84259e-05
9.50998e-07
2.88396e-05
1.05033e-07
2.91701e-05
2.66233e-07
2.94464e-05
8.26878e-07
2.98248e-05
2.14132e-07
2.97799e-05
8.87154e-07
3.00397e-05
4.22762e-07
3.02221e-05
4.8422e-07
3.03545e-05
5.98525e-07
3.05532e-05
4.34271e-07
3.06665e-05
9.59741e-08
3.11715e-05
5.77764e-07
3.10901e-05
4.3625e-08
3.16339e-05
2.86441e-07
3.18845e-05
7.99535e-08
-3.78906e-07
3.16362e-05
2.53942e-05
1.0932e-08
2.66587e-05
1.88593e-06
2.76388e-05
9.89539e-07
2.78441e-05
1.26182e-07
2.82428e-05
5.52247e-07
2.84771e-05
-1.29263e-07
2.86746e-05
6.88078e-08
2.89394e-05
5.62014e-07
2.93981e-05
-2.44494e-07
2.95964e-05
6.88785e-07
2.98794e-05
1.39778e-07
3.01659e-05
1.97722e-07
3.03527e-05
4.11722e-07
3.05449e-05
2.42072e-07
3.05994e-05
4.14733e-08
3.09653e-05
2.11901e-07
3.08886e-05
1.20329e-07
3.134e-05
-1.65011e-07
3.16959e-05
-2.75927e-07
-1.153e-08
3.13285e-05
2.5419e-05
-4.08112e-07
2.64084e-05
8.96616e-07
2.72132e-05
1.84746e-07
2.78156e-05
-4.76296e-07
2.82292e-05
1.38638e-07
2.85158e-05
-4.15824e-07
2.8853e-05
-2.68382e-07
2.92331e-05
1.81856e-07
2.94577e-05
-4.69067e-07
2.97348e-05
4.11694e-07
2.98932e-05
-1.86322e-08
3.0098e-05
-7.0437e-09
3.02618e-05
2.47942e-07
3.0542e-05
-3.81638e-08
3.06281e-05
-4.46435e-08
3.10002e-05
-1.60137e-07
3.10766e-05
4.38864e-08
3.13781e-05
-4.66528e-07
3.17249e-05
-6.22731e-07
2.14027e-07
3.14994e-05
2.52932e-05
-7.01332e-07
2.63352e-05
-1.45319e-07
2.74759e-05
-9.5597e-07
2.79615e-05
-9.61923e-07
2.82461e-05
-1.45916e-07
2.8657e-05
-8.26762e-07
2.88513e-05
-4.62708e-07
2.9111e-05
-7.78387e-08
2.93539e-05
-7.11993e-07
2.96878e-05
7.7872e-08
2.97999e-05
-1.30806e-07
3.00523e-05
-2.59388e-07
3.03001e-05
1.20661e-10
3.05007e-05
-2.38761e-07
3.06642e-05
-2.08106e-07
3.09266e-05
-4.22602e-07
3.11368e-05
-1.66278e-07
3.12755e-05
-6.05208e-07
3.15273e-05
-8.74564e-07
2.37664e-07
3.15037e-05
2.54166e-05
-1.11791e-06
2.65295e-05
-1.2582e-06
2.7497e-05
-1.92354e-06
2.78751e-05
-1.34004e-06
2.82762e-05
-5.46989e-07
2.85856e-05
-1.13618e-06
2.87223e-05
-5.99383e-07
2.91605e-05
-5.16078e-07
2.94099e-05
-9.6138e-07
2.96522e-05
-1.64374e-07
2.98678e-05
-3.46466e-07
3.01494e-05
-5.40958e-07
3.02967e-05
-1.47129e-07
3.04855e-05
-4.27639e-07
3.07139e-05
-4.36478e-07
3.09323e-05
-6.40973e-07
3.11268e-05
-3.6076e-07
3.13439e-05
-8.22383e-07
3.15754e-05
-1.10598e-06
6.71749e-08
3.17458e-05
2.54706e-05
-1.58855e-06
2.651e-05
-2.29752e-06
2.75016e-05
-2.91517e-06
2.80125e-05
-1.85092e-06
2.83535e-05
-8.88028e-07
2.87647e-05
-1.54733e-06
2.89758e-05
-8.10505e-07
2.93425e-05
-8.82804e-07
2.95758e-05
-1.19466e-06
2.97916e-05
-3.8015e-07
3.0008e-05
-5.62853e-07
3.02373e-05
-7.7031e-07
3.04251e-05
-3.34954e-07
3.06234e-05
-6.25908e-07
3.08349e-05
-6.47949e-07
3.10753e-05
-8.81442e-07
3.1245e-05
-5.30397e-07
3.15433e-05
-1.12074e-06
3.16332e-05
-1.19588e-06
-2.80195e-07
3.19806e-05
2.55793e-05
-2.16788e-06
2.67046e-05
-3.42282e-06
2.775e-05
-3.96054e-06
2.81304e-05
-2.2313e-06
2.85271e-05
-1.28476e-06
2.89201e-05
-1.94031e-06
2.91125e-05
-1.00288e-06
2.94483e-05
-1.2186e-06
2.96617e-05
-1.40815e-06
2.99052e-05
-6.23569e-07
3.01783e-05
-8.36024e-07
3.04153e-05
-1.00723e-06
3.05733e-05
-4.92998e-07
3.08121e-05
-8.64712e-07
3.09939e-05
-8.29725e-07
3.1165e-05
-1.05251e-06
3.13385e-05
-7.03899e-07
3.16195e-05
-1.40177e-06
3.17682e-05
-1.34457e-06
-7.12783e-07
3.22008e-05
2.5764e-05
-2.93188e-06
2.70729e-05
-4.73176e-06
2.79536e-05
-4.84119e-06
2.82534e-05
-2.53117e-06
2.8759e-05
-1.79027e-06
2.90614e-05
-2.24278e-06
2.93349e-05
-1.27638e-06
2.96849e-05
-1.56861e-06
2.98883e-05
-1.61151e-06
3.01207e-05
-8.55958e-07
3.03825e-05
-1.09781e-06
3.05369e-05
-1.16161e-06
3.06854e-05
-6.41513e-07
3.0849e-05
-1.02833e-06
3.09814e-05
-9.62135e-07
3.106e-05
-1.13112e-06
3.11847e-05
-8.28587e-07
3.13423e-05
-1.55934e-06
3.14373e-05
-1.43961e-06
-1.09877e-06
3.18233e-05
2.601e-05
-3.9419e-06
2.74228e-05
-6.14456e-06
2.80874e-05
-5.50579e-06
2.85353e-05
-2.97906e-06
2.90284e-05
-2.28338e-06
2.92306e-05
-2.44494e-06
2.95503e-05
-1.59606e-06
2.96977e-05
-1.71605e-06
2.97452e-05
-1.65904e-06
2.98963e-05
-1.00704e-06
2.99441e-05
-1.14558e-06
2.99186e-05
-1.13612e-06
2.99676e-05
-6.90568e-07
2.99125e-05
-9.7321e-07
2.98567e-05
-9.06339e-07
2.97352e-05
-1.00958e-06
2.96753e-05
-7.68749e-07
2.95406e-05
-1.42461e-06
2.94127e-05
-1.31169e-06
-1.22686e-06
2.95408e-05
2.6333e-05
-5.27493e-06
2.76978e-05
-7.50935e-06
2.80483e-05
-5.85627e-06
2.84981e-05
-3.42881e-06
2.86664e-05
-2.45176e-06
2.85287e-05
-2.30724e-06
2.84952e-05
-1.56252e-06
2.82004e-05
-1.42129e-06
2.78964e-05
-1.35501e-06
2.77232e-05
-8.3382e-07
2.74092e-05
-8.31552e-07
2.7126e-05
-8.52964e-07
2.69382e-05
-5.02775e-07
2.66359e-05
-6.70867e-07
2.63814e-05
-6.51879e-07
2.60829e-05
-7.11067e-07
2.58552e-05
-5.40995e-07
2.54582e-05
-1.02766e-06
2.5158e-05
-1.01145e-06
-1.12688e-06
2.5058e-05
2.66267e-05
-6.90165e-06
2.72491e-05
-8.13169e-06
2.67338e-05
-5.34097e-06
2.62819e-05
-2.97695e-06
2.56188e-05
-1.78865e-06
2.48019e-05
-1.49033e-06
2.41776e-05
-9.38291e-07
2.34936e-05
-7.37261e-07
2.28896e-05
-7.50956e-07
2.24711e-05
-4.15365e-07
2.20234e-05
-3.83871e-07
2.16383e-05
-4.67806e-07
2.13642e-05
-2.28702e-07
2.10286e-05
-3.35238e-07
2.07339e-05
-3.57207e-07
2.04082e-05
-3.85401e-07
2.01518e-05
-2.84543e-07
1.96869e-05
-5.62829e-07
1.92574e-05
-5.81884e-07
-3.4398e-07
1.84745e-05
2.54626e-05
-7.36429e-06
2.33119e-05
-5.98099e-06
2.09564e-05
-2.98543e-06
1.93154e-05
-1.33591e-06
1.81014e-05
-5.74695e-07
1.70596e-05
-4.48539e-07
1.63673e-05
-2.45916e-07
1.57895e-05
-1.59543e-07
1.52698e-05
-2.31217e-07
1.49467e-05
-9.22731e-08
1.46404e-05
-7.7541e-08
1.4331e-05
-1.58454e-07
1.41448e-05
-4.25109e-08
1.39031e-05
-9.34649e-08
1.36652e-05
-1.19318e-07
1.34077e-05
-1.27953e-07
1.32016e-05
-7.84023e-08
1.28294e-05
-1.9069e-07
1.25058e-05
-2.58232e-07
-8.1787e-09
1.217e-05
1.76357e-05
1.16547e-05
8.66928e-06
7.33337e-06
6.75868e-06
6.31014e-06
6.06422e-06
5.90468e-06
5.67346e-06
5.58119e-06
5.50365e-06
5.3452e-06
5.30268e-06
5.20922e-06
5.0899e-06
4.96195e-06
4.88355e-06
4.69286e-06
4.43462e-06
4.42644e-06
5.69062e-06
-3.19122e-07
-8.12126e-08
5.99609e-06
-1.3585e-07
-1.69626e-07
6.25325e-06
-8.09978e-08
-1.76161e-07
6.53181e-06
-7.53147e-08
-2.03239e-07
6.81846e-06
-1.26952e-07
-1.59706e-07
7.08103e-06
-1.08033e-07
-1.5453e-07
7.31183e-06
-1.32129e-07
-9.86711e-08
7.4978e-06
-9.82377e-08
-8.77345e-08
7.65087e-06
-1.3712e-07
-1.59539e-08
7.77296e-06
-1.40208e-07
1.81223e-08
7.8809e-06
-2.04725e-07
9.67872e-08
7.98548e-06
-2.16251e-07
1.11671e-07
8.08819e-06
-2.67351e-07
1.64636e-07
8.18743e-06
-2.54264e-07
1.5503e-07
8.25784e-06
-2.85788e-07
2.15376e-07
8.3281e-06
-2.63804e-07
1.9354e-07
8.35981e-06
-2.79076e-07
2.47364e-07
8.39073e-06
-2.40976e-07
2.10056e-07
8.40431e-06
-2.40262e-07
2.26683e-07
8.43368e-06
-1.80523e-07
1.51158e-07
8.45013e-06
-1.5279e-07
1.36332e-07
8.49597e-06
-5.04881e-08
4.64808e-09
8.54961e-06
1.36276e-08
-6.72669e-08
8.63708e-06
1.39478e-07
-2.26943e-07
8.75616e-06
1.93167e-07
-3.12245e-07
8.90122e-06
3.17743e-07
-4.62804e-07
9.07827e-06
3.52207e-07
-5.29256e-07
9.27418e-06
4.5613e-07
-6.52046e-07
9.49515e-06
4.43248e-07
-6.64216e-07
9.71071e-06
5.17271e-07
-7.32835e-07
9.93682e-06
4.71191e-07
-6.97295e-07
1.01423e-05
4.96491e-07
-7.0193e-07
1.03099e-05
3.97044e-07
-5.64641e-07
1.04195e-05
3.67468e-07
-4.7713e-07
1.04947e-05
2.38358e-07
-3.13553e-07
1.04978e-05
1.91764e-07
-1.94882e-07
1.04795e-05
9.04452e-08
-7.20811e-08
1.04841e-05
1.47727e-07
-1.52387e-07
1.05838e-05
1.26715e-07
-2.26397e-07
1.07233e-05
1.9342e-07
-3.3293e-07
1.08988e-05
6.56618e-08
-2.41172e-07
1.1042e-05
-1.952e-08
-1.23604e-07
1.11589e-05
-2.42702e-07
1.25768e-07
1.12217e-05
-3.76713e-07
3.1388e-07
1.12569e-05
-5.99852e-07
5.64631e-07
1.12737e-05
-7.18645e-07
7.01856e-07
1.13109e-05
-9.07064e-07
8.69858e-07
1.13628e-05
-9.41114e-07
8.89294e-07
1.14452e-05
-1.0126e-06
9.30182e-07
1.1544e-05
-9.10085e-07
8.11293e-07
1.16395e-05
-8.79626e-07
7.84133e-07
1.17199e-05
-6.91132e-07
6.10714e-07
1.1741e-05
-6.04521e-07
5.83381e-07
1.16937e-05
-3.93389e-07
4.40723e-07
1.15579e-05
-2.80191e-07
4.15924e-07
1.139e-05
-2.30273e-08
1.90971e-07
1.12065e-05
1.57094e-07
2.64211e-08
1.09501e-05
4.29208e-07
-1.72795e-07
1.07198e-05
5.94757e-07
-3.64445e-07
1.05142e-05
9.49949e-07
-7.44355e-07
1.03918e-05
1.01414e-06
-8.91766e-07
1.03712e-05
1.17334e-06
-1.15275e-06
1.05313e-05
1.09538e-06
-1.2555e-06
1.06976e-05
1.02875e-06
-1.19498e-06
1.08601e-05
6.54074e-07
-8.16595e-07
1.10588e-05
4.09237e-07
-6.07921e-07
1.11475e-05
2.07106e-08
-1.0946e-07
1.1257e-05
-1.99291e-07
8.97532e-08
1.1317e-05
-5.24289e-07
4.64382e-07
1.13469e-05
-5.8943e-07
5.5952e-07
1.13409e-05
-7.86483e-07
7.92483e-07
1.13139e-05
-7.13564e-07
7.40483e-07
1.13105e-05
-8.01045e-07
8.04517e-07
1.12632e-05
-5.70579e-07
6.17843e-07
1.1253e-05
-5.85917e-07
5.96083e-07
1.11903e-05
-1.90338e-07
2.53088e-07
1.11949e-05
-1.08694e-07
1.04083e-07
1.11762e-05
4.72998e-07
-4.54325e-07
1.12842e-05
6.03653e-07
-7.11601e-07
1.13791e-05
1.359e-06
-1.45392e-06
1.15817e-05
1.47418e-06
-1.67674e-06
1.18997e-05
2.29132e-06
-2.60934e-06
1.22356e-05
2.35223e-06
-2.68816e-06
1.27163e-05
2.96799e-06
-3.4487e-06
1.3124e-05
2.85755e-06
-3.26525e-06
1.36284e-05
3.11156e-06
-3.61588e-06
1.40142e-05
2.74748e-06
-3.1333e-06
1.44348e-05
2.71335e-06
-3.13394e-06
1.4737e-05
2.07727e-06
-2.37952e-06
1.50554e-05
1.74142e-06
-2.05981e-06
1.52068e-05
9.23488e-07
-1.07485e-06
1.54873e-05
3.9618e-07
-6.76712e-07
1.55352e-05
-3.73558e-07
3.25693e-07
1.5775e-05
-9.4995e-07
7.1017e-07
1.58586e-05
-1.69557e-06
1.61192e-06
1.61061e-05
-2.27789e-06
2.03038e-06
1.61853e-05
-2.87848e-06
2.79928e-06
1.64035e-05
-3.35376e-06
3.13562e-06
1.64333e-05
-3.7244e-06
3.69452e-06
1.65518e-05
-3.92452e-06
3.80609e-06
1.64862e-05
-4.10791e-06
4.17345e-06
1.65048e-05
-3.93209e-06
3.91353e-06
1.6371e-05
-3.92096e-06
4.0547e-06
1.63952e-05
-3.49809e-06
3.47397e-06
1.62156e-05
-3.24404e-06
3.42356e-06
1.63266e-05
-2.70854e-06
2.59762e-06
1.61473e-05
-2.23717e-06
2.4164e-06
1.64191e-05
-1.72105e-06
1.4493e-06
1.63896e-05
-1.18943e-06
1.21891e-06
1.66678e-05
-6.60501e-07
3.82339e-07
1.66776e-05
-3.77677e-07
3.67849e-07
1.68268e-05
1.23397e-07
-2.72567e-07
1.68599e-05
3.9658e-08
-7.27873e-08
1.69852e-05
4.95214e-07
-6.20463e-07
1.68957e-05
3.81493e-07
-2.92017e-07
1.72797e-05
3.41826e-07
-7.25817e-07
1.72093e-05
3.57068e-07
-2.86656e-07
1.76049e-05
-5.56307e-08
-3.40034e-07
1.7862e-05
-1.87359e-07
-6.97057e-08
1.81784e-05
-3.45064e-07
2.86438e-08
1.85084e-05
-5.66878e-07
2.3687e-07
1.89806e-05
-6.89545e-07
2.17391e-07
1.92617e-05
-7.92351e-07
5.11229e-07
1.962e-05
-9.32947e-07
5.74653e-07
2.01106e-05
-1.22784e-06
7.37209e-07
2.0528e-05
-1.25383e-06
8.36454e-07
2.08149e-05
-1.41706e-06
1.13015e-06
2.13191e-05
-1.7109e-06
1.20669e-06
2.17781e-05
-1.83357e-06
1.37455e-06
2.21684e-05
-1.99962e-06
1.60938e-06
2.25711e-05
-2.41896e-06
2.0162e-06
2.30249e-05
-2.55905e-06
2.10527e-06
2.34414e-05
-2.82029e-06
2.40381e-06
2.38162e-05
-3.26212e-06
2.88733e-06
2.42831e-05
-3.56822e-06
3.10132e-06
2.47815e-05
-3.77138e-06
3.273e-06
2.51816e-05
-4.4256e-06
4.02542e-06
2.5686e-05
-4.83943e-06
4.33504e-06
2.61898e-05
-5.11826e-06
4.61445e-06
2.68499e-05
-6.0659e-06
5.40583e-06
2.74928e-05
-6.6209e-06
5.97801e-06
2.81433e-05
-7.03919e-06
6.38866e-06
2.87167e-05
-8.07042e-06
7.49699e-06
2.93202e-05
-8.50235e-06
7.89895e-06
3.02072e-05
-9.22889e-06
8.34181e-06
3.09597e-05
-1.00743e-05
9.32191e-06
3.15208e-05
-1.05397e-05
9.97855e-06
3.20824e-05
-1.07966e-05
1.0235e-05
3.259e-05
-1.14525e-05
1.09449e-05
3.30193e-05
-1.19535e-05
1.15243e-05
3.36286e-05
-1.20222e-05
1.14129e-05
3.41589e-05
-1.22598e-05
1.17294e-05
3.43331e-05
-1.26169e-05
1.24427e-05
3.47377e-05
-1.25132e-05
1.21086e-05
3.53599e-05
-1.23691e-05
1.1747e-05
3.55462e-05
-1.24392e-05
1.22529e-05
3.60494e-05
-1.22705e-05
1.17672e-05
3.68127e-05
-1.17786e-05
1.10154e-05
3.7229e-05
-1.13981e-05
1.09817e-05
3.76587e-05
-1.07535e-05
1.03237e-05
3.83188e-05
-9.87704e-06
9.21699e-06
3.86474e-05
-9.02662e-06
8.69803e-06
3.89038e-05
-7.72637e-06
7.46998e-06
3.91528e-05
-6.62164e-06
6.37266e-06
3.92722e-05
-5.10953e-06
4.99012e-06
3.90958e-05
-3.61785e-06
3.79423e-06
3.88188e-05
-1.82385e-06
2.1008e-06
3.82519e-05
-3.23111e-07
8.90031e-07
3.7388e-05
1.65963e-06
-7.95669e-07
3.62434e-05
3.00422e-06
-1.85969e-06
3.50494e-05
4.51148e-06
-3.31743e-06
3.32936e-05
5.50312e-06
-3.74731e-06
3.19436e-05
6.18213e-06
-4.83216e-06
3.01533e-05
6.62007e-06
-4.82979e-06
2.86242e-05
6.66895e-06
-5.13981e-06
2.69285e-05
6.8519e-06
-5.15621e-06
2.54525e-05
6.28073e-06
-4.80477e-06
2.39863e-05
6.50241e-06
-5.0362e-06
2.25e-05
5.91429e-06
-4.42796e-06
2.13867e-05
5.87452e-06
-4.7613e-06
1.99445e-05
5.78108e-06
-4.33885e-06
1.91173e-05
5.48659e-06
-4.65943e-06
1.77918e-05
5.88978e-06
-4.5642e-06
1.72176e-05
5.66057e-06
-5.0864e-06
1.66851e-05
6.76524e-06
-6.23273e-06
1.6232e-05
7.08585e-06
-6.63278e-06
1.62407e-05
7.41527e-06
-7.42396e-06
1.54744e-05
7.76951e-06
-7.00321e-06
1.58047e-05
7.62137e-06
-7.95165e-06
1.55126e-05
9.03656e-06
-8.74445e-06
1.56558e-05
9.92553e-06
-1.00688e-05
1.6041e-05
1.13165e-05
-1.17017e-05
1.52383e-05
1.31003e-05
-1.22975e-05
1.59869e-05
1.32527e-05
-1.40014e-05
1.53803e-05
1.58371e-05
-1.52305e-05
1.4491e-05
1.71439e-05
-1.62547e-05
1.57559e-05
1.84844e-05
-1.97493e-05
1.49482e-05
2.48051e-05
-2.39973e-05
1.55711e-05
2.7039e-05
-2.7662e-05
3.7067e-05
-3.7278e-05
1.57821e-05
1.29948e-05
-3.32988e-07
1.31164e-05
-2.57446e-07
1.32795e-05
-2.44133e-07
1.3442e-05
-2.37742e-07
1.3614e-05
-2.98971e-07
1.37495e-05
-2.4357e-07
1.38888e-05
-2.71424e-07
1.39871e-05
-1.96553e-07
1.40872e-05
-2.37226e-07
1.41589e-05
-2.11841e-07
1.42338e-05
-2.79666e-07
1.42974e-05
-2.79869e-07
1.43635e-05
-3.33434e-07
1.44194e-05
-3.1015e-07
1.44652e-05
-3.31629e-07
1.44961e-05
-2.94695e-07
1.45132e-05
-2.96167e-07
1.45121e-05
-2.39876e-07
1.44936e-05
-2.2171e-07
1.44713e-05
-1.58204e-07
1.44479e-05
-1.2946e-07
1.44167e-05
-1.92684e-08
1.44013e-05
2.90276e-08
1.4383e-05
1.57805e-07
1.439e-05
1.86158e-07
1.43842e-05
3.23576e-07
1.44182e-05
3.18138e-07
1.44401e-05
4.34278e-07
1.44998e-05
3.83502e-07
1.45573e-05
4.59834e-07
1.46393e-05
3.89117e-07
1.47235e-05
4.12282e-07
1.48101e-05
3.10488e-07
1.48991e-05
2.78457e-07
1.49683e-05
1.69191e-07
1.50336e-05
1.26423e-07
1.51198e-05
4.28286e-09
1.52416e-05
2.59214e-08
1.54279e-05
-5.95824e-08
1.56284e-05
-7.08791e-09
1.58699e-05
-1.75827e-07
1.60732e-05
-2.22881e-07
1.62776e-05
-4.47106e-07
1.64409e-05
-5.39969e-07
1.65798e-05
-7.38714e-07
1.66934e-05
-8.32309e-07
1.67626e-05
-9.76233e-07
1.67899e-05
-9.68399e-07
1.67673e-05
-9.90042e-07
1.67036e-05
-8.46381e-07
1.6619e-05
-7.95031e-07
1.65141e-05
-5.86196e-07
1.63918e-05
-4.82182e-07
1.62516e-05
-2.53288e-07
1.60835e-05
-1.12089e-07
1.59346e-05
1.25912e-07
1.57858e-05
3.05892e-07
1.56472e-05
5.67802e-07
1.55299e-05
7.1207e-07
1.55058e-05
9.74058e-07
1.54898e-05
1.03015e-06
1.55405e-05
1.12258e-06
1.5637e-05
9.9893e-07
1.57509e-05
9.14842e-07
1.582e-05
5.84991e-07
1.58768e-05
3.52473e-07
1.59216e-05
-2.41669e-08
1.59208e-05
-1.98471e-07
1.59101e-05
-5.13629e-07
1.58361e-05
-5.15359e-07
1.57699e-05
-7.20318e-07
1.56204e-05
-5.64087e-07
1.54662e-05
-6.46839e-07
1.52573e-05
-3.61635e-07
1.50336e-05
-3.62191e-07
1.48286e-05
1.46189e-08
1.46152e-05
1.04666e-07
1.45228e-05
5.65435e-07
1.43656e-05
7.60872e-07
1.44647e-05
1.25984e-06
1.44375e-05
1.50145e-06
1.47209e-05
2.00784e-06
1.492e-05
2.15318e-06
1.5307e-05
2.58104e-06
1.56945e-05
2.47004e-06
1.6103e-05
2.70301e-06
1.65147e-05
2.33574e-06
1.69977e-05
2.23038e-06
1.73315e-05
1.74351e-06
1.7829e-05
1.24391e-06
1.81028e-05
6.4962e-07
1.85013e-05
-2.2349e-09
1.88609e-05
-7.33223e-07
1.92249e-05
-1.3139e-06
1.96221e-05
-2.09282e-06
1.99614e-05
-2.61721e-06
2.02924e-05
-3.20945e-06
2.05859e-05
-3.64721e-06
2.07901e-05
-3.92869e-06
2.09984e-05
-4.1328e-06
2.10723e-05
-4.18174e-06
2.11525e-05
-4.01234e-06
2.10964e-05
-3.8648e-06
2.10253e-05
-3.42703e-06
2.08155e-05
-3.03419e-06
2.07188e-05
-2.61191e-06
2.04429e-05
-1.96127e-06
2.03643e-05
-1.64243e-06
2.02853e-05
-1.11045e-06
2.02569e-05
-6.32113e-07
2.03797e-05
-5.00468e-07
2.04949e-05
8.21598e-09
2.0513e-05
2.15873e-08
2.08598e-05
1.48403e-07
2.08945e-05
3.46758e-07
2.11698e-05
6.65436e-08
2.14586e-05
6.82461e-08
2.15611e-05
-1.58126e-07
2.18235e-05
-4.49729e-07
2.21088e-05
-6.3037e-07
2.22835e-05
-7.41552e-07
2.25943e-05
-1.0004e-06
2.29853e-05
-1.18335e-06
2.33554e-05
-1.30303e-06
2.37324e-05
-1.60483e-06
2.42199e-05
-1.7413e-06
2.46484e-05
-1.84564e-06
2.51084e-05
-2.17089e-06
2.55159e-05
-2.24104e-06
2.59206e-05
-2.40433e-06
2.62594e-05
-2.75773e-06
2.6613e-05
-2.91261e-06
2.69446e-05
-3.15191e-06
2.71992e-05
-3.51677e-06
2.75489e-05
-3.91788e-06
2.79044e-05
-4.1269e-06
2.81984e-05
-4.71958e-06
2.86199e-05
-5.26099e-06
2.91733e-05
-5.67165e-06
2.96072e-05
-6.49981e-06
2.99807e-05
-6.99437e-06
3.05973e-05
-7.65576e-06
3.10475e-05
-8.52063e-06
3.15686e-05
-9.02351e-06
3.20018e-05
-9.66202e-06
3.21879e-05
-1.02604e-05
3.2425e-05
-1.07768e-05
3.27987e-05
-1.11702e-05
3.29784e-05
-1.16322e-05
3.30493e-05
-1.20245e-05
3.33024e-05
-1.22754e-05
3.35137e-05
-1.2471e-05
3.35001e-05
-1.26033e-05
3.39564e-05
-1.29696e-05
3.46459e-05
-1.30586e-05
3.50104e-05
-1.28037e-05
3.55717e-05
-1.28318e-05
3.64799e-05
-1.26869e-05
3.69307e-05
-1.18489e-05
3.74312e-05
-1.12539e-05
3.80907e-05
-1.05365e-05
3.83957e-05
-9.33167e-06
3.87323e-05
-8.06296e-06
3.89396e-05
-6.82895e-06
3.90838e-05
-5.25372e-06
3.88612e-05
-3.39522e-06
3.88431e-05
-1.80583e-06
3.80491e-05
4.70907e-07
3.73833e-05
2.32546e-06
3.59514e-05
4.43611e-06
3.4667e-05
5.79592e-06
3.27363e-05
7.43383e-06
3.10548e-05
7.86361e-06
2.91403e-05
8.53452e-06
2.73085e-05
8.50078e-06
2.60235e-05
8.13689e-06
2.40726e-05
8.23166e-06
2.27615e-05
7.8135e-06
2.13433e-05
7.33245e-06
2.01449e-05
7.07293e-06
1.90084e-05
6.91758e-06
1.79443e-05
6.55076e-06
1.73382e-05
6.49585e-06
1.65801e-05
6.41866e-06
1.64859e-05
6.85947e-06
1.59673e-05
7.60444e-06
1.60069e-05
7.3757e-06
1.62973e-05
7.47907e-06
1.57441e-05
8.17452e-06
1.65876e-05
8.19308e-06
1.62304e-05
1.02827e-05
1.6984e-05
1.05629e-05
1.72128e-05
1.28715e-05
1.66313e-05
1.38343e-05
1.79078e-05
1.45606e-05
1.69973e-05
1.80545e-05
1.86782e-05
1.68035e-05
1.9154e-05
2.43293e-05
2.49224e-05
2.12706e-05
3.80466e-05
2.39428e-05
1.93909e-05
-3.36695e-07
1.957e-05
-4.36577e-07
1.98155e-05
-4.89668e-07
2.00147e-05
-4.36882e-07
2.01696e-05
-4.53932e-07
2.02306e-05
-3.04515e-07
2.02875e-05
-3.2831e-07
2.03015e-05
-2.10618e-07
2.03555e-05
-2.91231e-07
2.0383e-05
-2.39295e-07
2.04327e-05
-3.29403e-07
2.04627e-05
-3.09869e-07
2.04981e-05
-3.68787e-07
2.05224e-05
-3.34429e-07
2.0537e-05
-3.46243e-07
2.0552e-05
-3.09696e-07
2.05501e-05
-2.94278e-07
2.05524e-05
-2.42193e-07
2.05278e-05
-1.97086e-07
2.05137e-05
-1.44162e-07
2.04731e-05
-8.878e-08
2.04453e-05
8.5112e-09
2.03952e-05
7.91278e-08
2.03612e-05
1.91816e-07
2.03286e-05
2.18748e-07
2.02937e-05
3.58432e-07
2.028e-05
3.31816e-07
2.02636e-05
4.50696e-07
2.02753e-05
3.71826e-07
2.02884e-05
4.4672e-07
2.03099e-05
3.67642e-07
2.03526e-05
3.69539e-07
2.0384e-05
2.79096e-07
2.04391e-05
2.23342e-07
2.04774e-05
1.30931e-07
2.05232e-05
8.06635e-08
2.0594e-05
-6.65894e-08
2.06852e-05
-6.52062e-08
2.08431e-05
-2.17551e-07
2.09989e-05
-1.62872e-07
2.11902e-05
-3.67105e-07
2.137e-05
-4.02691e-07
2.15312e-05
-6.08307e-07
2.16924e-05
-7.01147e-07
2.17824e-05
-8.28712e-07
2.18856e-05
-9.35511e-07
2.18984e-05
-9.89057e-07
2.19378e-05
-1.0078e-06
2.19038e-05
-9.56081e-07
2.1892e-05
-8.34571e-07
2.18371e-05
-7.40091e-07
2.17533e-05
-5.02393e-07
2.16266e-05
-3.55499e-07
2.14529e-05
-7.95718e-08
2.12514e-05
8.93945e-08
2.1042e-05
3.35337e-07
2.08544e-05
4.93447e-07
2.06884e-05
7.33848e-07
2.05836e-05
8.16904e-07
2.05307e-05
1.02696e-06
2.056e-05
1.0008e-06
2.05902e-05
1.09236e-06
2.0679e-05
9.10126e-07
2.07698e-05
8.24061e-07
2.08263e-05
5.28465e-07
2.08738e-05
3.04958e-07
2.08665e-05
-1.6817e-08
2.08601e-05
-1.9203e-07
2.08065e-05
-4.60071e-07
2.07304e-05
-4.39229e-07
2.06228e-05
-6.12721e-07
2.04957e-05
-4.36972e-07
2.03028e-05
-4.53964e-07
2.01455e-05
-2.04379e-07
1.98433e-05
-5.99343e-08
1.96424e-05
2.15485e-07
1.92989e-05
4.48192e-07
1.91148e-05
7.49529e-07
1.88444e-05
1.03128e-06
1.87346e-05
1.3696e-06
1.86605e-05
1.57559e-06
1.86805e-05
1.98779e-06
1.88371e-05
1.99663e-06
1.90581e-05
2.36002e-06
1.93392e-05
2.18889e-06
1.97838e-05
2.25846e-06
2.00876e-05
2.03192e-06
2.06308e-05
1.68722e-06
2.10381e-05
1.33612e-06
2.14962e-05
7.85869e-07
2.20248e-05
1.21046e-07
2.24329e-05
-4.10393e-07
2.29587e-05
-1.25901e-06
2.33985e-05
-1.75366e-06
2.38152e-05
-2.50958e-06
2.4239e-05
-3.04093e-06
2.45292e-05
-3.49968e-06
2.48528e-05
-3.97083e-06
2.50125e-05
-4.08838e-06
2.52017e-05
-4.32203e-06
2.52233e-05
-4.20333e-06
2.5271e-05
-4.05999e-06
2.52301e-05
-3.8239e-06
2.51579e-05
-3.35489e-06
2.51111e-05
-2.98742e-06
2.49808e-05
-2.48157e-06
2.49324e-05
-1.91289e-06
2.4779e-05
-1.48905e-06
2.46925e-05
-1.02394e-06
2.46512e-05
-5.90745e-07
2.45221e-05
-3.71366e-07
2.46233e-05
-9.30156e-08
2.45861e-05
5.87656e-08
2.47019e-05
3.25914e-08
2.49376e-05
1.11085e-07
2.49923e-05
1.18577e-08
2.52934e-05
-2.32858e-07
2.55099e-05
-3.74626e-07
2.56671e-05
-6.06967e-07
2.59528e-05
-9.16064e-07
2.62331e-05
-1.02181e-06
2.64975e-05
-1.26483e-06
2.6834e-05
-1.51988e-06
2.71439e-05
-1.61288e-06
2.74366e-05
-1.89753e-06
2.77719e-05
-2.07662e-06
2.80508e-05
-2.12447e-06
2.83001e-05
-2.42024e-06
2.85617e-05
-2.5026e-06
2.88446e-05
-2.68724e-06
2.89972e-05
-2.91032e-06
2.92398e-05
-3.15529e-06
2.95231e-05
-3.43522e-06
2.97065e-05
-3.70015e-06
2.99469e-05
-4.15821e-06
3.03021e-05
-4.48209e-06
3.05853e-05
-5.00283e-06
3.08393e-05
-5.51499e-06
3.12381e-05
-6.07042e-06
3.14451e-05
-6.70688e-06
3.17364e-05
-7.28563e-06
3.20293e-05
-7.94868e-06
3.20892e-05
-8.58046e-06
3.22417e-05
-9.17603e-06
3.22208e-05
-9.64113e-06
3.21664e-05
-1.02061e-05
3.22402e-05
-1.08507e-05
3.22067e-05
-1.11367e-05
3.20609e-05
-1.14864e-05
3.20481e-05
-1.20116e-05
3.2207e-05
-1.24343e-05
3.2541e-05
-1.2805e-05
3.2917e-05
-1.29793e-05
3.35e-05
-1.35525e-05
3.41938e-05
-1.37524e-05
3.48121e-05
-1.3422e-05
3.54873e-05
-1.3507e-05
3.61522e-05
-1.33518e-05
3.65873e-05
-1.22839e-05
3.70192e-05
-1.16859e-05
3.72822e-05
-1.07995e-05
3.74941e-05
-9.54356e-06
3.75835e-05
-8.15245e-06
3.77754e-05
-7.02081e-06
3.77287e-05
-5.20698e-06
3.77975e-05
-3.46407e-06
3.77425e-05
-1.75079e-06
3.7423e-05
7.90424e-07
3.66934e-05
3.05506e-06
3.58412e-05
5.28831e-06
3.4126e-05
7.5111e-06
3.25559e-05
9.00388e-06
3.03273e-05
1.00922e-05
2.84793e-05
1.03825e-05
2.62943e-05
1.06858e-05
2.45273e-05
9.90384e-06
2.29601e-05
9.79888e-06
2.14859e-05
9.28776e-06
2.06068e-05
8.2115e-06
1.90888e-05
8.59091e-06
1.81269e-05
7.87946e-06
1.75411e-05
7.13658e-06
1.68686e-05
7.16841e-06
1.63576e-05
6.92967e-06
1.57672e-05
7.44982e-06
1.64732e-05
6.89843e-06
1.62363e-05
7.61259e-06
1.69787e-05
6.73673e-06
1.74187e-05
7.73444e-06
1.72263e-05
8.38556e-06
1.84505e-05
9.05851e-06
1.78578e-05
1.11557e-05
1.93538e-05
1.13754e-05
1.87905e-05
1.43976e-05
2.0457e-05
1.2894e-05
1.97972e-05
1.87143e-05
2.17553e-05
1.48453e-05
2.02958e-05
2.57887e-05
2.73545e-05
1.42119e-05
3.6297e-05
2.91042e-05
2.46009e-05
-5.52575e-07
2.50605e-05
-8.96214e-07
2.54273e-05
-8.56473e-07
2.56016e-05
-6.11107e-07
2.5659e-05
-5.11402e-07
2.56619e-05
-3.07427e-07
2.56653e-05
-3.31704e-07
2.56486e-05
-1.9387e-07
2.56609e-05
-3.03504e-07
2.56639e-05
-2.42353e-07
2.56743e-05
-3.39822e-07
2.56916e-05
-3.27143e-07
2.56896e-05
-3.6679e-07
2.57047e-05
-3.49507e-07
2.56886e-05
-3.30125e-07
2.56965e-05
-3.17635e-07
2.56647e-05
-2.62441e-07
2.56661e-05
-2.43623e-07
2.56155e-05
-1.46467e-07
2.56188e-05
-1.47451e-07
2.55736e-05
-4.362e-08
2.55752e-05
6.94028e-09
2.55433e-05
1.11066e-07
2.55355e-05
1.99582e-07
2.55261e-05
2.28148e-07
2.55e-05
3.8456e-07
2.55008e-05
3.30942e-07
2.54739e-05
4.77632e-07
2.54925e-05
3.53207e-07
2.54878e-05
4.51481e-07
2.55074e-05
3.48034e-07
2.55378e-05
3.39079e-07
2.55582e-05
2.58735e-07
2.56119e-05
1.69655e-07
2.56262e-05
1.16554e-07
2.56848e-05
2.21287e-08
2.57251e-05
-1.069e-07
2.57972e-05
-1.37331e-07
2.5904e-05
-3.2431e-07
2.59961e-05
-2.54994e-07
2.61304e-05
-5.01372e-07
2.62276e-05
-4.99967e-07
2.63302e-05
-7.10862e-07
2.64086e-05
-7.79591e-07
2.64457e-05
-8.65761e-07
2.64872e-05
-9.77007e-07
2.64673e-05
-9.69151e-07
2.6461e-05
-1.00154e-06
2.64108e-05
-9.05825e-07
2.63445e-05
-7.68275e-07
2.6275e-05
-6.70629e-07
2.61531e-05
-3.80528e-07
2.60787e-05
-2.81022e-07
2.59254e-05
7.36501e-08
2.58125e-05
2.0237e-07
2.56727e-05
4.75151e-07
2.55612e-05
6.04855e-07
2.54726e-05
8.22526e-07
2.54118e-05
8.77624e-07
2.54011e-05
1.03768e-06
2.54091e-05
9.92814e-07
2.54712e-05
1.0303e-06
2.5504e-05
8.77318e-07
2.55947e-05
7.33324e-07
2.55991e-05
5.24083e-07
2.56364e-05
2.67703e-07
2.55738e-05
4.57127e-08
2.55275e-05
-1.45732e-07
2.54314e-05
-3.63936e-07
2.53146e-05
-3.22434e-07
2.51738e-05
-4.71965e-07
2.50444e-05
-3.07495e-07
2.48624e-05
-2.72017e-07
2.4733e-05
-7.4959e-08
2.45103e-05
1.62745e-07
2.43403e-05
3.85515e-07
2.41143e-05
6.74163e-07
2.38868e-05
9.77001e-07
2.37196e-05
1.19851e-06
2.35168e-05
1.57246e-06
2.34226e-05
1.66976e-06
2.34188e-05
1.9916e-06
2.33855e-05
2.02996e-06
2.36493e-05
2.09613e-06
2.37607e-05
2.07756e-06
2.41507e-05
1.8684e-06
2.44926e-05
1.6901e-06
2.48914e-05
1.28834e-06
2.5393e-05
8.34525e-07
2.57942e-05
3.84692e-07
2.63011e-05
-3.85836e-07
2.67608e-05
-8.70064e-07
2.71713e-05
-1.66956e-06
2.76072e-05
-2.1895e-06
2.79274e-05
-2.82982e-06
2.82393e-05
-3.35283e-06
2.84192e-05
-3.67955e-06
2.85922e-05
-4.14386e-06
2.85963e-05
-4.09249e-06
2.864e-05
-4.3657e-06
2.85332e-05
-4.09661e-06
2.84432e-05
-3.96998e-06
2.83513e-05
-3.73193e-06
2.81768e-05
-3.18044e-06
2.81411e-05
-2.95168e-06
2.80115e-05