/*--------------------------------*- C++ -*----------------------------------*\
| =========                 |                                                 |
| \\      /  F ield         | OpenFOAM: The Open Source CFD Toolbox           |
|  \\    /   O peration     | Version:  2.4.0                                 |
|   \\  /    A nd           | Web:      www.OpenFOAM.org                      |
|    \\/     M anipulation  |                                                 |
\*---------------------------------------------------------------------------*/
FoamFile
{
    version     2.0;
    format      ascii;
    class       volScalarField;
    location    "0.96";
    object      pPrime2Mean;
}
// * * * * * * * * * * * * * * * * * * * * * * * * * * * * * * * * * * * * * //

dimensions      [0 4 -4 0 0 0 0];

internalField   nonuniform List<scalar> 
8800
(
673633
656640
638407
620330
602499
584927
567615
550562
533768
517232
500952
484927
469152
453618
438309
423198
408225
393277
378082
361792
673657
656643
638406
620329
602499
584927
567615
550562
533768
517232
500953
484928
469153
453620
438313
423206
408242
393311
378166
362068
673672
656642
638401
620326
602498
584927
567615
550562
533768
517232
500953
484929
469155
453624
438322
423222
408273
393377
378319
362605
673684
656642
638397
620323
602496
584926
567615
550562
533768
517232
500954
484931
469159
453631
438334
423245
408318
393471
378533
363228
673693
656642
638393
620320
602495
584926
567614
550561
533768
517233
500955
484933
469163
453639
438350
423275
408376
393587
378790
363874
673701
656642
638390
620317
602494
584926
567614
550561
533768
517233
500957
484936
469169
453650
438369
423310
408444
393721
379072
364504
673707
656643
638388
620315
602493
584925
567614
550562
533768
517234
500958
484939
469175
453661
438390
423350
408520
393868
379366
365103
673711
656644
638387
620314
602492
584925
567615
550562
533769
517235
500960
484943
469182
453674
438414
423394
408601
394022
379663
365662
673713
656644
638386
620313
602492
584926
567615
550562
533769
517236
500962
484947
469189
453687
438438
423439
408685
394178
379954
366176
673715
656644
638386
620312
602491
584926
567615
550562
533770
517237
500965
484951
469197
453701
438464
423486
408771
394334
380232
366645
673715
656644
638386
620312
602492
584926
567615
550563
533771
517238
500967
484955
469205
453715
438490
423532
408855
394484
380494
367067
673713
656644
638386
620313
602492
584926
567616
550563
533771
517240
500969
484959
469212
453729
438514
423577
408935
394626
380736
367445
673711
656644
638387
620314
602493
584926
567616
550564
533772
517241
500971
484964
469219
453742
438538
423620
409012
394759
380955
367777
673707
656643
638389
620316
602494
584926
567616
550564
533773
517242
500974
484967
469226
453755
438560
423660
409081
394878
381150
368066
673701
656642
638391
620318
602495
584927
567616
550565
533774
517244
500976
484971
469233
453766
438580
423695
409143
394983
381319
368313
673693
656642
638394
620321
602496
584927
567616
550565
533775
517245
500978
484974
469238
453775
438598
423726
409197
395073
381461
368517
673684
656641
638397
620324
602497
584928
567617
550566
533775
517246
500979
484977
469242
453783
438612
423751
409240
395146
381575
368681
673672
656642
638402
620327
602499
584928
567617
550567
533776
517247
500981
484979
469246
453790
438623
423771
409274
395201
381660
368802
673657
656642
638406
620330
602500
584929
567618
550567
533777
517248
500981
484980
469248
453794
438631
423784
409296
395238
381718
368882
673633
656640
638408
620331
602501
584929
567618
550567
533777
517248
500982
484981
469249
453796
438634
423791
409308
395257
381746
368921
347031
343055
340022
337399
334968
332654
330422
328253
326132
324049
321998
319972
317968
315983
314015
312060
310117
308183
306259
304343
302435
300536
298645
296762
294886
293016
291154
289298
287450
285608
283773
281947
280128
278318
276516
274723
272938
271160
269391
267628
265872
264122
262378
260638
258904
257174
255450
253731
252018
250311
248609
246913
245221
243534
241852
240176
238506
236842
235185
233532
231885
230243
228605
226972
225344
223720
222103
220492
218888
217290
215699
214115
212536
210963
209397
207836
206283
204736
203196
201663
200139
198622
197114
195613
194118
192629
191146
189667
188194
186725
185261
183801
182345
180892
179442
177996
176553
175114
173680
172249
170824
169405
167992
166586
165188
163797
162413
161038
159670
158310
156956
155609
154268
152933
151604
150280
148963
147651
146344
145044
143750
142463
141182
139908
138640
137379
136123
134876
133633
132397
131164
129937
128714
127495
126280
125069
123863
122661
121464
120272
119086
117905
116730
115561
114396
113239
112087
110941
109800
108665
107535
106411
105292
104178
103070
101968
100871
99779.6
98694.3
97614.9
96541.4
95475.1
94414.8
93362.4
92315.7
91277.4
90244.4
89220.2
88202.3
87192.8
86189.4
85194.8
84205.3
83225.8
82249.5
81285.9
80321.2
79373.3
78420.7
77486.3
76547.5
75625.5
74699.3
73785.6
72867.9
71957
71040.9
70128
69205.6
68282.2
67343.9
66396.6
65427.2
64436.8
63411.3
62346.8
61221.9
60014.4
58708.1
57138
349862
345626
342173
339198
336507
333991
331597
329292
327056
324873
322735
320634
318563
316518
314496
312494
310507
308536
306577
304630
302695
300770
298856
296952
295057
293171
291293
289424
287563
285710
283865
282030
280203
278385
276576
274776
272984
271201
269426
267658
265897
264142
262394
260651
258914
257182
255456
253735
252020
250311
248608
246911
245218
243531
241849
240174
238504
236840
235182
233530
231883
230241
228604
226972
225344
223722
222105
220495
218891
217294
215703
214118
212539
210967
209400
207840
206287
204740
203201
201669
200145
198629
197121
195620
194126
192637
191154
189675
188202
186733
185269
183809
182352
180898
179448
178002
176559
175121
173687
172258
170834
169416
168005
166600
165203
163813
162430
161055
159687
158327
156972
155624
154282
152946
151617
150292
148974
147662
146356
145056
143763
142477
141196
139924
138656
137397
136143
134896
133654
132418
131186
129959
128736
127517
126302
125092
123886
122684
121487
120296
119110
117929
116754
115585
114421
113263
112111
110964
109823
108688
107558
106434
105315
104202
103094
101991
100893
99800.6
98713.5
97632
96556.5
95487.5
94424.3
93368.2
92318
91274.6
90236.9
89206.5
88182.1
87164.8
86152.9
85149.1
84149.2
83159.1
82170.2
81194.6
80216
79252.9
78286
77333.3
76378.1
75434.6
74489.4
73550.8
72610.9
71672.6
70729.7
69785.3
68832.1
67870.6
66895.4
65901.2
64884.3
63833.6
62744.9
61593.8
60390.4
59028.9
57597.5
55941.3
351827
347625
344010
340824
337940
335258
332721
330294
327950
325675
323454
321280
319144
317042
314968
312919
310891
308882
306889
304912
302949
301000
299063
297138
295225
293322
291430
289547
287674
285810
283956
282111
280276
278451
276635
274828
273030
271241
269460
267687
265921
264162
262410
260664
258924
257189
255461
253738
252022
250311
248607
246908
245215
243528
241846
240170
238500
236837
235179
233527
231880
230239
228603
226971
225345
223724
222109
220499
218895
217298
215707
214123
212544
210972
209405
207846
206292
204746
203206
201675
200152
198637
197129
195629
194134
192646
191163
189685
188212
186743
185278
183818
182360
180906
179456
178010
176568
175130
173698
172270
170848
169432
168022
166619
165223
163834
162452
161077
159710
158348
156993
155644
154301
152964
151633
150308
148989
147677
146371
145073
143780
142495
141216
139944
138678
137419
136166
134920
133679
132443
131211
129984
128761
127542
126327
125116
123910
122708
121511
120320
119134
117954
116779
115610
114446
113288
112135
110989
109847
108712
107583
106459
105340
104227
103119
102015
100916
99821.8
98732.6
97649
96571.3
95499.6
94433.7
93374.1
92320.4
91272.4
90230
89194
88162.7
87137.7
86116.8
85103.9
84093
83092.2
82091
81101.6
80111.2
79131.5
78151.9
77180.2
76209.9
75244.2
74280.7
73317.6
72355.6
71390.3
70422.9
69446.6
68466.3
67467.6
66459.5
65420.8
64364.8
63255.3
62126.4
60890.6
59645.8
58202.7
56710.1
55088.2
353323
349232
345572
342270
339250
336437
333781
331245
328806
326444
324147
321905
319708
317550
315426
313332
311264
309218
307193
305187
303197
301224
299265
297321
295390
293471
291564
289668
287783
285909
284045
282192
280349
278516
276693
274879
273075
271280
269494
267715
265945
264182
262426
260676
258933
257196
255465
253741
252023
250311
248605
246906
245212
243524
241843
240167
238497
236834
235176
233524
231878
230237
228602
226971
225346
223727
222112
220504
218901
217304
215714
214129
212551
210978
209412
207852
206298
204752
203213
201682
200159
198645
197138
195638
194144
192655
191173
189695
188222
186753
185289
183828
182370
180916
179466
178020
176579
175142
173711
172285
170865
169451
168043
166641
165247
163859
162478
161103
159735
158374
157018
155667
154323
152985
151653
150327
149008
147695
146390
145092
143800
142516
141238
139967
138702
137444
136193
134947
133706
132470
131238
130010
128787
127567
126351
125140
123933
122731
121535
120343
119157
117977
116803
115633
114470
113312
112160
111013
109872
108736
107608
106484
105366
104253
103144
102039
100938
99842.1
98750.5
97664.5
96584.6
95510
94441.4
93378.4
92321.6
91269.2
90222.5
89180.9
88143.2
87110.4
86081.2
85058.7
84037.4
83024.4
82012.8
81009
80007.7
79011.8
78019.3
77029.5
76043.7
75057
74074.4
73087.8
72104.6
71112.2
70123.1
69114.8
68111.2
67074.7
66042.9
64956
63878.3
62707.3
61555.3
60256.3
58968.7
57519.6
56019.5
54453.9
354525
350547
346898
343541
340432
337522
334768
332141
329616
327178
324811
322504
320250
318040
315869
313732
311625
309545
307488
305454
303439
301442
299462
297499
295550
293616
291695
289787
287890
286006
284133
282271
280420
278580
276750
274930
273120
271319
269528
267744
265969
264202
262442
260689
258943
257204
255471
253745
252025
250312
248605
246904
245210
243522
241841
240165
238495
236832
235174
233523
231877
230237
228602
226973
225349
223730
222117
220510
218908
217312
215722
214137
212558
210986
209419
207859
206305
204758
203220
201689
200167
198653
197146
195646
194153
192665
191182
189705
188233
186764
185300
183838
182381
180927
179478
178032
176592
175157
173728
172304
170886
169473
168067
166667
165274
163887
162506
161132
159764
158401
157044
155692
154347
153007
151674
150348
149028
147716
146411
145113
143822
142538
141261
139991
138727
137470
136219
134973
133733
132496
131264
130035
128811
127590
126374
125162
123956
122753
121556
120364
119179
117998
116824
115654
114492
113334
112183
111036
109896
108761
107633
106509
105391
104277
103168
102061
100959
99860.4
98766.5
97677.6
96595.3
95517.3
94446.2
93379.9
92320.1
91263.8
90213
89166
88122.4
87082.2
86045.3
85012.7
83982.5
82957
81935.5
80918.2
79905.8
78894.8
77889.4
76881.8
75880.5
74873
73873.4
72861.9
71861.7
70839.7
69833.7
68791.8
67771
66695.1
65645.4
64515.6
63414.7
62203.8
61016.7
59699.9
58372.1
56952
55474.9
53954.8
355537
351656
348035
344654
341490
338508
335677
332974
330377
327869
325439
323075
320767
318509
316294
314117
311973
309860
307774
305712
303672
301654
299654
297672
295707
293758
291823
289903
287996
286102
284220
282350
280491
278644
276807
274981
273165
271359
269562
267774
265994
264223
262459
260703
258955
257213
255478
253750
252029
250315
248607
246905
245211
243522
241840
240165
238495
236832
235175
233524
231878
230239
228605
226976
225353
223735
222123
220517
218916
217320
215730
214145
212566
210992
209425
207864
206310
204764
203225
201695
200173
198659
197153
195653
194160
192673
191191
189715
188243
186775
185311
183850
182393
180940
179491
178046
176607
175173
173746
172324
170908
169498
168094
166695
165302
163916
162535
161161
159792
158428
157071
155718
154371
153031
151697
150370
149050
147737
146432
145134
143844
142560
141284
140014
138751
137494
136243
134998
133757
132520
131287
130057
128833
127611
126394
125181
123974
122771
121574
120381
119195
118015
116841
115673
114511
113353
112203
111056
109917
108782
107655
106530
105413
104298
103188
102080
100977
99874.8
98779.2
97687.1
96602.1
95520.4
94447
93376.8
92314.8
91254.1
90200
89147.7
88099.2
87050.8
86007.6
84964.1
83926.6
82889.2
81859.1
80828.1
79806.2
78778.9
77762.6
76735.9
75721.3
74691.8
73677.8
72642.2
71626
70579
69554.5
68486.5
67443.9
66341.8
65264.1
64111.4
62976.1
61750.9
60528.9
59218.6
57874.9
56480.7
55029.5
53541.7
356409
352606
349017
345629
342430
339397
336507
333742
331083
328517
326030
323614
321258
318955
316699
314485
312307
310163
308048
305961
303898
301858
299840
297841
295860
293896
291949
290017
288099
286195
284305
282427
280561
278707
276864
275032
273210
271399
269597
267804
266021
264245
262478
260719
258968
257224
255487
253758
252035
250320
248611
246909
245214
243525
241843
240167
238498
236835
235178
233527
231882
230243
228609
226981
225358
223741
222130
220524
218923
217327
215736
214151
212571
210997
209429
207868
206314
204767
203229
201699
200177
198664
197158
195659
194166
192680
191199
189723
188252
186786
185323
183863
182407
180954
179505
178061
176623
175190
173764
172343
170930
169522
168119
166721
165330
163944
162564
161189
159819
158455
157095
155741
154394
153052
151718
150390
149071
147757
146453
145154
143864
142580
141304
140033
138771
137514
136264
135018
133777
132539
131306
130075
128849
127626
126409
125195
123987
122783
121585
120392
119207
118027
116854
115686
114526
113368
112218
111072
109933
108798
107672
106545
105429
104313
103202
102092
100989
99883.4
98785.9
97690.9
96602.7
95517.8
94441.6
93368.6
92303.1
91238.6
90181
89124.1
88070.6
87015.1
85964.7
84912.8
83866.9
82819.7
81780.1
80738.3
79705.6
78665.1
77635.8
76593.9
75563.2
74517.4
73484.5
72432.8
71395.3
70332.8
69285.1
68201.5
67132.2
66016.2
64909.9
63744.5
62583.3
61352.8
60110.4
58811
57466.1
56086.8
54653.3
53188.8
357170
353430
349871
346485
343265
340195
337260
334445
331734
329117
326582
324118
321719
319375
317082
314833
312624
310451
308310
306199
304115
302055
300018
298003
296007
294030
292070
290127
288200
286287
284388
282502
280629
278768
276920
275082
273255
271439
269632
267836
266048
264269
262499
260737
258983
257237
255499
253768
252044
250327
248617
246915
245219
243530
241848
240172
238502
236839
235182
233531
231886
230247
228613
226985
225363
223746
222135
220528
218927
217331
215740
214154
212574
210999
209431
207869
206315
204769
203231
201701
200180
198666
197161
195662
194170
192685
191204
189730
188261
186796
185334
183875
182420
180967
179519
178075
176637
175205
173780
172361
170949
169542
168141
166745
165354
163968
162588
161213
159843
158477
157116
155761
154413
153071
151736
150409
149089
147775
146470
145172
143881
142596
141319
140048
138785
137528
136278
135031
133790
132551
131317
130085
128859
127635
126416
125202
123993
122789
121590
120398
119212
118033
116861
115695
114534
113378
112228
111082
109943
108808
107682
106554
105437
104320
103207
102097
100992
99885.5
98785.8
97688.2
96596.6
95509.2
94428.9
93354.4
92284.1
91217.5
90156
89095.1
88036.1
86975.5
85918.2
84860
83805.1
82749.6
81700.5
80649.8
79605.6
78555.5
77511.4
76458.1
75410.6
74351.7
73299.3
72235.1
71178.4
70103.5
69035.3
67940.4
66849.2
65721.6
64594.8
63420.3
62242.1
61012.7
59758
58466.2
57122.7
55750.3
54330
52884.2
357838
354149
350617
347236
344004
340908
337938
335082
332330
329669
327091
324587
322148
319769
317441
315161
312923
310723
308558
306425
304320
302242
300188
298157
296147
294158
292186
290233
288296
286374
284467
282574
280695
278828
276974
275131
273299
271478
269668
267867
266076
264294
262521
260757
259000
257252
255512
253779
252054
250336
248626
246922
245226
243536
241853
240177
238507
236844
235186
233535
231890
230250
228616
226988
225365
223748
222136
220529
218927
217331
215740
214153
212573
210998
209430
207868
206314
204768
203230
201700
200179
198666
197161
195663
194172
192687
191208
189734
188267
186803
185343
183885
182430
180978
179529
178085
176648
175216
173792
172374
170963
169558
168158
166762
165372
163987
162607
161231
159860
158492
157131
155775
154426
153084
151749
150422
149102
147789
146483
145184
143892
142606
141328
140055
138791
137533
136283
135036
133794
132554
131319
130087
128860
127635
126416
125201
123992
122787
121589
120397
119212
118033
116863
115698
114537
113382
112232
111085
109946
108811
107684
106555
105438
104319
103205
102096
100988
99881
98778.5
97680.1
96583.5
95495.4
94409.5
93335
92258.8
91191.6
90125.6
89062.9
87997.2
86932.9
85867.2
84804.5
83741.4
82679.9
81621
80565.2
79508.2
78452.9
77392.7
76332.2
75268.1
74198.3
73129.5
72053.2
70980.7
69897.3
68811.7
67708.8
66599.9
65463.1
64321.4
63142
61950.8
60724
59459.2
58169
56827.4
55459.4
54051.8
52622.3
358426
354777
351269
347896
344656
341542
338545
335657
332869
330172
327558
325018
322545
320133
317775
315466
313202
310978
308790
306636
304512
302417
300348
298302
296280
294278
292296
290333
288387
286457
284543
282643
280757
278885
277025
275178
273342
271517
269702
267898
266104
264319
262544
260777
259018
257268
255526
253792
252065
250346
248634
246930
245232
243542
241858
240181
238511
236847
235189
233537
231891
230251
228617
226988
225364
223746
222134
220526
218924
217327
215735
214149
212568
210994
209426
207864
206311
204765
203227
201697
200175
198663
197158
195660
194170
192687
191209
189737
188271
186809
185350
183892
182437
180984
179536
178092
176654
175223
173799
172382
170971
169567
168168
166773
165383
163998
162617
161240
159868
158500
157138
155782
154432
153090
151756
150428
149109
147796
146490
145190
143897
142610
141329
140055
138789
137530
136279
135032
133789
132549
131313
130080
128853
127628
126409
125194
123985
122781
121584
120392
119208
118030
116859
115694
114535
113379
112230
111081
109943
108807
107678
106550
105432
104312
103196
102089
100978
99871.7
98765.7
97668.7
96564.9
95478.1
94383.9
93312.1
92227.9
91163.3
90090.1
89028.6
87953.6
86889.3
85814.1
84748.3
83676.3
82612.2
81543.3
80487.3
79416.2
78359.9
77284.3
76219
75140.2
74059.6
72978.6
71893.8
70808.4
69718.2
68616.6
67506.4
66383.5
65239.2
64084.7
62903.9
61699.3
60472.2
59199.4
57907.4
56569.8
55207.8
53813.2
52398.6
358943
355327
351840
348474
345230
342102
339085
336171
333354
330627
327981
325410
322908
320467
318082
315747
313459
311213
309005
306832
304691
302580
300496
298438
296403
294390
292399
290426
288472
286534
284613
282708
280816
278939
277074
275222
273382
271553
269736
267928
266131
264344
262566
260796
259036
257284
255540
253804
252075
250355
248642
246936
245238
243546
241862
240184
238512
236848
235189
233536
231890
230249
228613
226984
225359
223741
222127
220519
218917
217320
215728
214141
212560
210986
209419
207858
206304
204758
203220
201690
200169
198656
197151
195654
194165
192683
191207
189736
188272
186811
185352
183894
182438
180985
179536
178092
176654
175223
173799
172381
170971
169567
168169
166774
165385
163999
162617
161240
159867
158499
157137
155781
154431
153089
151754
150427
149108
147795
146489
145189
143896
142607
141324
140048
138780
137519
136267
135018
133775
132535
131299
130066
128839
127615
126397
125183
123975
122772
121575
120384
119200
118022
116852
115685
114527
113370
112220
111071
109932
108797
107664
106540
105418
104300
103184
102077
100963
99858.6
98749.2
97653.5
96544.7
95457.1
94355.3
93284.6
92190.7
91128.6
90048.7
88991.3
87904.8
86842
85758
84693.9
83613.7
82548.2
81470.2
80415.9
79332.4
78274.8
77187.8
76117
75027.5
73935.9
72847.3
71754.8
70656.8
69566.3
68448
67333.3
66196.1
65047.4
63880.7
62697.9
61480.4
60248.1
58971.7
57678.7
56346.9
54992.2
53610.1
52209.2
359395
355806
352336
348977
345732
342594
339560
336626
333785
331032
328361
325764
323235
320769
318360
316003
313693
311427
309201
307011
304854
302729
300632
298562
296516
294494
292493
290512
288550
286606
284679
282767
280871
278989
277120
275264
273420
271588
269767
267957
266157
264367
262586
260815
259052
257298
255552
253814
252085
250363
248648
246941
245241
243549
241863
240184
238511
236846
235186
233532
231885
230243
228607
226976
225351
223732
222118
220510
218907
217310
215718
214131
212551
210977
209410
207850
206297
204751
203212
201682
200160
198647
197142
195645
194157
192676
191202
189732
188269
186807
185348
183889
182433
180980
179530
178084
176647
175215
173791
172373
170963
169559
168161
166766
165377
163990
162608
161231
159859
158491
157129
155773
154424
153081
151747
150420
149101
147788
146482
145182
143887
142596
141312
140034
138764
137502
136247
134998
133754
132513
131278
130045
128819
127596
126380
125167
123961
122758
121563
120372
119189
118011
116840
115672
114514
113355
112205
111053
109915
108779
107645
106523
105400
104284
103169
102062
100948
99841.5
98731.8
97634.4
96523.2
95431.8
94327
93253
92154.5
91088.2
90006.5
88949.8
87858.7
86794.2
85704.9
84637.7
83551.6
82486.3
81402.9
80347.2
79256.2
78195.1
77100
76025.4
74927.4
73829.7
72732.6
71633
70528.6
69430.1
68299.5
67182.8
66033.8
64881.9
63706.5
62515.6
61288.9
60051.5
58774
57482.7
56157.1
54810
53439.4
52050.8
359788
356221
352765
349413
346166
343021
339975
337024
334164
331390
328697
326077
323527
321039
318609
316232
313904
311620
309377
307172
305002
302864
300755
298674
296619
294588
292579
290590
288622
286672
284739
282822
280921
279034
277162
275302
273455
271620
269796
267983
266181
264388
262605
260831
259067
257310
255563
253823
252092
250368
248652
246944
245242
243548
241861
240181
238508
236841
235180
233526
231877
230234
228597
226966
225341
223722
222107
220499
218896
217299
215707
214121
212541
210968
209402
207842
206289
204743
203204
201673
200150
198636
197131
195634
194146
192666
191192
189724
188260
186797
185338
183877
182421
180966
179517
178070
176633
175201
173776
172357
170948
169543
168146
166750
165361
163973
162592
161214
159843
158476
157115
155759
154410
153067
151734
150406
149088
147774
146469
145167
143873
142580
141296
140015
138745
137480
136223
134972
133728
132486
131252
130019
128795
127573
126358
125146
123942
122740
121545
120355
119172
117993
116823
115654
114497
113336
112185
111032
109893
108756
107624
106501
105380
104263
103148
102043
100930
99820.9
98715.5
97612.3
96500.6
95400.2
94298.3
93214.1
92116
91043.1
89962.5
88903.8
87809.3
86750.5
85655.2
84585.4
83492.9
82421.9
81336.4
80275.4
79183
78119.2
77019.8
75942.3
74837.6
73735.3
72632.4
71528.3
70414.9
69307.4
68174.1
67050
65895.1
64736.5
63555
62354.9
61123.5
59883.3
58606.2
57317.9
55997.7
54658.2
53297.8
51920.1
360126
356577
353132
349785
346538
343387
340331
337367
334492
331701
328990
326352
323782
321276
318828
316434
314090
311790
309533
307315
305133
302983
300864
298774
296710
294671
292655
290661
288686
286731
284793
282871
280966
279076
277199
275336
273486
271648
269822
268006
266201
264406
262621
260845
259079
257320
255571
253829
252096
250371
248653
246943
245240
243545
241857
240176
238501
236833
235172
233516
231867
230224
228586
226955
225330
223710
222096
220487
218884
217287
215696
214110
212531
210959
209393
207834
206281
204735
203195
201664
200140
198625
197119
195621
194133
192652
191179
189710
188244
186781
185320
183859
182403
180947
179497
178051
176614
175181
173756
172337
170928
169523
168125
166729
165339
163951
162571
161193
159823
158456
157097
155741
154393
153049
151716
150388
149070
147756
146451
145148
143853
142559
141274
139993
138721
137454
136197
134944
133698
132457
131222
129991
128767
127547
126333
125123
123919
122718
121524
120333
119151
117972
116803
115634
114477
113314
112162
111007
109869
108727
107600
106477
105358
104238
103126
102019
100909
99794.5
98697
97586.2
96475.5
95371.6
94271.2
93167.5
92076.7
90994.3
89912.2
88853.7
87762.4
86697.8
85603.9
84533.5
83434.2
82354.6
81271.4
80201.3
79112.4
78047
76943.1
75864.4
74756.2
73651.4
72544.7
71436.2
70317.3
69202.5
68065.9
66930.2
65776.1
64607
63423.7
62216.7
60984.2
59742.9
58467.5
57181.3
55865.8
54533.6
53181.7
51813.5
360413
356877
353441
350098
346850
343694
340631
337657
334770
331966
329240
326586
324001
321480
319017
316608
314250
311938
309669
307439
305246
303087
300959
298861
296790
294744
292722
290722
288742
286782
284840
282914
281005
279111
277232
275366
273513
271672
269843
268025
266218
264421
262634
260856
259088
257328
255576
253833
252098
250371
248651
246940
245236
243540
241850
240168
238493
236824
235162
233506
231857
230213
228576
226944
225318
223698
222084
220476
218873
217276
215685
214100
212522
210950
209384
207825
206273
204726
203186
201654
200129
198614
197106
195608
194118
192637
191162
189692
188224
186759
185297
183837
182380
180925
179474
178028
176591
175157
173732
172314
170905
169500
168102
166706
165316
163929
162548
161171
159802
158435
157076
155721
154372
153029
151695
150367
149048
147735
146429
145126
143830
142536
141250
139968
138696
137428
136170
134915
133669
132427
131193
129962
128739
127519
126307
125097
123895
122695
121501
120311
119130
117950
116781
115611
114453
113289
112139
110984
109841
108699
107575
106448
105332
104211
103098
101992
100886
99769.7
98671.1
97550.2
96453.3
95338
94231.4
93123
92041.2
90951.6
89869.9
88800.6
87711.5
86637.9
85552.3
84472.7
83377
82290.8
81212.3
80131.9
79047.8
77972.4
76872.7
75789.5
74682.9
73578.8
72472.3
71359.9
70231.9
69111
67971
66826.8
65672.3
64495.2
63314
62102.5
60870.7
59628.9
58355.1
57070.6
55759.5
54433.2
53087.9
51728.1
360652
357126
353695
350353
347104
343946
340877
337896
335000
332185
329447
326782
324184
321650
319175
316754
314384
312061
309782
307543
305341
303174
301040
298935
296857
294806
292778
290773
288790
286825
284879
282951
281038
279141
277259
275390
273535
271692
269861
268041
266232
264433
262644
260864
259094
257332
255579
253834
252097
250369
248648
246936
245231
243533
241843
240161
238485
236816
235153
233497
231847
230203
228565
226933
225308
223687
222073
220465
218862
217266
215675
214090
212512
210941
209376
207817
206265
204718
203177
201644
200119
198603
197094
195594
194103
192620
191142
189671
188201
186735
185272
183812
182355
180900
179449
178005
176566
175133
173708
172291
170882
169478
168079
166684
165294
163908
162526
161149
159779
158414
157054
155700
154350
153008
151673
150346
149026
147714
146406
145105
143807
142514
141227
139945
138672
137405
136145
134891
133643
132401
131165
129936
128711
127493
126279
125072
123869
122671
121478
120289
119106
117927
116756
115587
114427
113262
112112
110957
109818
108677
107548
106421
105304
104181
103072
101963
100856
99739.9
98642.7
97517.4
96416.8
95290.3
94196.8
93087.7
92004.4
90912.9
89826.3
88738.9
87659.8
86583.2
85500.4
84408.6
83326.9
82239
81157.1
80072.5
78991.1
77903.4
76813.9
75720
74619.1
73516.4
72408.5
71290.9
70160.5
69035.3
67888.1
66738.7
65584.2
64405.5
63222.9
62011.6
60781.6
59538.8
58266.7
56983.1
55676.4
54353.8
53013.6
51661
360842
357324
353895
350554
347304
344144
341072
338086
335183
332360
329613
326938
324331
321787
319302
316871
314492
312161
309873
307627
305418
303245
301104
298994
296911
294855
292824
290815
288827
286860
284911
282979
281064
279165
277280
275410
273552
271707
269874
268052
266242
264441
262650
260869
259097
257334
255580
253834
252096
250366
248645
246932
245226
243528
241837
240154
238478
236808
235145
233489
231839
230195
228557
226924
225298
223678
222064
220455
218853
217256
215666
214082
212504
210933
209368
207810
206257
204710
203169
201636
200111
198593
197084
195582
194089
192604
191124
189650
188179
186712
185248
183788
182330
180876
179426
177983
176543
175112
173687
172271
170860
169457
168058
166664
165274
163888
162506
161131
159759
158395
157034
155681
154330
152989
151652
150326
149005
147694
146385
145084
143785
142494
141206
139926
138652
137386
136124
134870
133620
132379
131141
129911
128685
127468
126253
125047
123844
122648
121454
120266
119081
117903
116730
115561
114398
113237
112085
110936
109793
108651
107523
106392
105272
104154
103044
101929
100820
99706.5
98603.9
97477.6
96378.9
95258.4
94169.8
93045.9
91966.4
90864.7
89776.6
88697.2
87619.1
86528.7
85448.3
84355
83279.2
82188.8
81110.5
80024.2
78942
77848.7
76763.3
75660.1
74564.7
73460.5
72356.8
71230.9
70102.4
68969
67822.2
66670.1
65513.7
64334.6
63151.9
61944
60714.1
59470.4
58199.6
56916.3
55612.6
54292.8
52957.1
51609.5
360983
357471
354043
350702
347452
344291
341216
338227
335319
332491
329737
327055
324441
321889
319397
316959
314574
312236
309942
307690
305476
303298
301153
299038
296952
294893
292858
290846
288856
286885
284934
283000
281083
279182
277296
275423
273564
271718
269883
268060
266248
264447
262655
260873
259100
257336
255580
253834
252095
250365
248643
246929
245223
243524
241833
240149
238473
236803
235139
233483
231832
230188
228550
226917
225291
223671
222056
220448
218845
217249
215658
214074
212497
210926
209361
207803
206251
204704
203163
201629
200103
198586
197076
195573
194078
192590
191108
189633
188159
186693
185228
183769
182309
180858
179407
177965
176525
175096
173669
172255
170843
169441
168041
166649
165256
163873
162489
161115
159743
158380
157018
155666
154314
152974
151636
150310
148987
147677
146368
145068
143769
142480
141191
139912
138637
137372
136109
134856
133604
132363
131122
129892
128663
127446
126230
125025
123821
122626
121431
120244
119059
117881
116705
115537
114371
113215
112060
110914
109769
108630
107497
106366
105245
104125
103011
101895
100787
99671.4
98565.1
97446.9
96346
95224.8
94138.1
93011
91931.4
90820.7
89741.6
88654.4
87572.5
86483.1
85406.2
84312
83238.1
82147.4
81072.9
79982
78901.6
77806.3
76721.7
75616.1
74524.3
73416.2
72311.5
71180.7
70059.9
68916.5
67772.5
66617.5
65460.1
64287.3
63100.9
61897.1
60665.7
59422.4
58151.4
56868.8
55567
54249
52916.3
51572
361074
357565
354140
350801
347551
344389
341313
338321
335410
332578
329820
327133
324514
321957
319460
317018
314628
312286
309988
307732
305515
303333
301185
299068
296979
294917
292880
290867
288874
286902
284949
283014
281096
279193
277306
275432
273572
271725
269889
268065
266252
264450
262658
260875
259101
257337
255581
253834
252095
250364
248642
246927
245221
243522
241831
240146
238469
236799
235136
233479
231828
230183
228545
226912
225285
223665
222050
220441
218839
217242
215652
214068
212491