/*--------------------------------*- C++ -*----------------------------------*\
| =========                 |                                                 |
| \\      /  F ield         | OpenFOAM: The Open Source CFD Toolbox           |
|  \\    /   O peration     | Version:  2.4.0                                 |
|   \\  /    A nd           | Web:      www.OpenFOAM.org                      |
|    \\/     M anipulation  |                                                 |
\*---------------------------------------------------------------------------*/
FoamFile
{
    version     2.0;
    format      ascii;
    class       volVectorField;
    location    "0.96";
    object      U;
}
// * * * * * * * * * * * * * * * * * * * * * * * * * * * * * * * * * * * * * //

dimensions      [0 1 -1 0 0 0 0];

internalField   nonuniform List<vector> 
8800
(
(8.09501 0.387339 0)
(5.45204 0.243313 0)
(3.90498 0.0429145 0)
(3.1605 -0.0176015 0)
(2.79694 -0.0155713 0)
(2.59711 -0.0123655 0)
(2.49464 -0.00766628 0)
(2.36704 0.00223075 0)
(2.33101 -0.00421104 0)
(2.24003 -0.00183404 0)
(2.23431 0.00296722 0)
(2.14178 -0.00168773 0)
(2.18052 -0.00245555 0)
(2.0662 0.00543619 0)
(2.1211 -0.00343669 0)
(1.98885 0.00316657 0)
(2.06945 -0.000524909 0)
(1.89977 0.000885481 0)
(2.01661 0.0113388 0)
(1.62548 -0.0775305 0)
(10.1013 0.835829 0)
(9.65199 0.873399 0)
(8.86995 0.506493 0)
(8.08955 0.25549 0)
(7.47631 0.146123 0)
(7.0145 0.0762082 0)
(6.7211 0.0507721 0)
(6.34632 0.0512334 0)
(6.29269 0.022282 0)
(5.96363 0.0211329 0)
(5.98484 0.0296707 0)
(5.7144 0.0104983 0)
(5.81917 0.00971979 0)
(5.4756 0.0292527 0)
(5.71115 0.00474536 0)
(5.26886 0.0217536 0)
(5.59201 0.0175624 0)
(5.06494 0.0131113 0)
(5.46827 0.0441727 0)
(4.77134 -0.0797052 0)
(10.0982 0.625789 0)
(10.6427 0.876754 0)
(10.8713 0.596284 0)
(10.699 0.36437 0)
(10.4332 0.270343 0)
(10.081 0.180843 0)
(9.89607 0.156703 0)
(9.3886 0.13752 0)
(9.4421 0.0793411 0)
(8.92335 0.0750886 0)
(9.02509 0.0747539 0)
(8.59114 0.0364137 0)
(8.80456 0.040733 0)
(8.23028 0.0577002 0)
(8.68256 0.0235945 0)
(7.94651 0.0462069 0)
(8.51441 0.043213 0)
(7.70833 0.0352937 0)
(8.30464 0.0785704 0)
(7.47412 -0.09219 0)
(10.0555 0.445327 0)
(10.5324 0.730981 0)
(11.1756 0.535828 0)
(11.378 0.344273 0)
(11.5619 0.287833 0)
(11.3974 0.191827 0)
(11.6046 0.210127 0)
(11.1452 0.193383 0)
(11.4565 0.123709 0)
(10.9403 0.132016 0)
(11.209 0.129476 0)
(10.7138 0.0645054 0)
(11.0791 0.0876874 0)
(10.4011 0.0919525 0)
(10.9852 0.046511 0)
(10.1626 0.0864251 0)
(10.7989 0.0576685 0)
(9.99925 0.086767 0)
(10.4968 0.0830007 0)
(9.86786 0.0330329 0)
(10.152 0.332997 0)
(10.3414 0.604593 0)
(10.9764 0.434408 0)
(11.2959 0.281512 0)
(11.7008 0.256828 0)
(11.5827 0.14234 0)
(11.9941 0.199103 0)
(11.7511 0.195548 0)
(12.0765 0.104487 0)
(11.8002 0.139556 0)
(12.1313 0.138358 0)
(11.8124 0.0672944 0)
(12.1433 0.0974863 0)
(11.7695 0.123673 0)
(12.1993 0.0411603 0)
(11.6871 0.12987 0)
(12.1261 0.049427 0)
(11.7065 0.136461 0)
(11.8616 0.075862 0)
(11.7167 0.0811278 0)
(9.87142 0.224815 0)
(10.602 0.532909 0)
(10.5294 0.34629 0)
(11.3158 0.213432 0)
(11.4169 0.216217 0)
(11.6652 0.0860516 0)
(11.6574 0.145023 0)
(12.0286 0.18549 0)
(11.9012 0.0863946 0)
(12.0564 0.130319 0)
(12.1195 0.131823 0)
(12.255 0.0597294 0)
(12.1413 0.0824157 0)
(12.3289 0.108375 0)
(12.3971 0.032234 0)
(12.3395 0.1254 0)
(12.4374 0.032664 0)
(12.5089 0.133551 0)
(12.3746 0.084677 0)
(12.5662 -0.0248681 0)
(9.6546 0.129091 0)
(10.7689 0.440465 0)
(10.2905 0.29019 0)
(11.1312 0.131927 0)
(11.2943 0.192497 0)
(11.653 0.0791356 0)
(11.4988 0.0826662 0)
(12.0248 0.135499 0)
(11.9121 0.0689582 0)
(12.1027 0.0836708 0)
(12.0876 0.0817207 0)
(12.4288 0.063026 0)
(12.0526 0.0696579 0)
(12.417 0.0777856 0)
(12.3191 0.020001 0)
(12.4187 0.129126 0)
(12.467 -0.00254771 0)
(12.4792 0.112445 0)
(12.6807 0.054903 0)
(12.549 -0.0793956 0)
(10.1548 0.0558529 0)
(10.0881 0.378574 0)
(10.8451 0.271932 0)
(10.7678 0.0316129 0)
(11.4613 0.11154 0)
(11.4106 0.0342815 0)
(11.8297 0.0249629 0)
(11.6296 0.0796848 0)
(11.9789 0.0502749 0)
(11.9124 0.084561 0)
(11.8783 0.0521397 0)
(12.1558 0.0678162 0)
(12.0039 0.077515 0)
(12.2718 0.0503862 0)
(12.1765 0.015237 0)
(12.3266 0.0892136 0)
(12.5592 -0.00378713 0)
(12.1889 0.0526884 0)
(12.8578 0.0213297 0)
(12.2487 -0.0576969 0)
(10.215 0.0220168 0)
(9.94815 0.242256 0)
(11.05 0.136976 0)
(10.8194 0.0397099 0)
(11.3838 0.0781473 0)
(11.3343 -0.0061986 0)
(11.6355 0.0221121 0)
(11.4568 0.0867029 0)
(11.725 -0.0096593 0)
(11.8292 0.0910806 0)
(11.7835 0.035646 0)
(12.1189 0.027199 0)
(11.98 0.0429038 0)
(12.3005 0.0420476 0)
(12.1263 0.00411012 0)
(12.3448 0.0288064 0)
(12.3678 0.0153712 0)
(12.2188 0.0055698 0)
(12.5861 -0.00224729 0)
(12.3537 -0.0234402 0)
(9.92738 -0.0235564 0)
(10.2877 0.123927 0)
(10.5298 0.0760847 0)
(10.9912 -0.0129176 0)
(11.1566 0.0325012 0)
(11.5311 -0.0144996 0)
(11.4662 -0.0132885 0)
(11.7663 0.0284555 0)
(11.6507 -0.0411093 0)
(11.9589 0.043544 0)
(11.7649 -0.00395702 0)
(12.1455 0.00742148 0)
(11.9117 0.0392062 0)
(12.2848 0.00960814 0)
(12.1324 0.00313523 0)
(12.3549 0.0135421 0)
(12.3704 0.0106845 0)
(12.3614 -0.0343805 0)
(12.4804 -0.060686 0)
(12.4624 0.0213876 0)
(9.91481 -0.0622619 0)
(10.2081 0.0435303 0)
(10.5285 -0.0242682 0)
(11.1944 -0.0816044 0)
(11.0799 -0.00522295 0)
(11.617 -0.065192 0)
(11.4973 -0.0467764 0)
(11.7472 0.00812268 0)
(11.5759 -0.0555274 0)
(11.949 0.0304816 0)
(11.7416 0.00429191 0)
(12.0809 -0.0124721 0)
(11.9445 0.011321 0)
(12.2672 -0.0159336 0)
(12.126 -0.0098671 0)
(12.3771 -0.0469719 0)
(12.2971 -6.54075e-05 0)
(12.4698 -0.0530976 0)
(12.3138 -0.0724468 0)
(12.454 0.0304992 0)
(10.0561 -0.0860108 0)
(10.1437 -0.0725119 0)
(10.7408 -0.151439 0)
(11.0204 -0.113611 0)
(11.1957 -0.0259984 0)
(11.5353 -0.0936514 0)
(11.5298 -0.0518988 0)
(11.6022 -0.0203544 0)
(11.7448 -0.0871057 0)
(11.841 -0.0173149 0)
(11.8192 -0.02788 0)
(12.0551 -0.0409967 0)
(12.0491 -0.0106531 0)
(12.1736 -0.0317895 0)
(12.1929 -0.0300664 0)
(12.3619 -0.041321 0)
(12.3176 -0.0312479 0)
(12.4401 -0.0634957 0)
(12.3989 -0.113734 0)
(12.4031 0.0193171 0)
(10.0525 -0.143298 0)
(10.158 -0.178023 0)
(10.7027 -0.218907 0)
(11.0692 -0.159264 0)
(11.2886 -0.078746 0)
(11.5175 -0.133341 0)
(11.6848 -0.0723408 0)
(11.6336 -0.0769579 0)
(11.8623 -0.109749 0)
(11.858 -0.0230458 0)
(11.9251 -0.0373785 0)
(12.0597 -0.0682063 0)
(12.1213 -0.021776 0)
(12.2038 -0.0488764 0)
(12.2686 -0.0571089 0)
(12.3947 -0.0855236 0)
(12.3972 -0.0445463 0)
(12.4735 -0.0945218 0)
(12.5207 -0.121678 0)
(12.3504 -0.0026088 0)
(10.036 -0.186401 0)
(10.2064 -0.269275 0)
(10.793 -0.343203 0)
(11.2038 -0.217002 0)
(11.3557 -0.103767 0)
(11.6113 -0.173976 0)
(11.7096 -0.0951967 0)
(11.6951 -0.0948838 0)
(11.8844 -0.129507 0)
(11.9029 -0.0570081 0)
(11.9784 -0.0695398 0)
(12.1434 -0.0881498 0)
(12.1914 -0.0445756 0)
(12.2544 -0.0745249 0)
(12.3681 -0.0696555 0)
(12.4406 -0.0937728 0)
(12.4373 -0.0605023 0)
(12.5393 -0.126354 0)
(12.5221 -0.135119 0)
(12.4854 -0.0471962 0)
(10.0337 -0.257367 0)
(10.281 -0.394835 0)
(11.0026 -0.431313 0)
(11.2151 -0.239182 0)
(11.5087 -0.150753 0)
(11.6458 -0.210144 0)
(11.7708 -0.107889 0)
(11.7679 -0.141093 0)
(11.9899 -0.156534 0)
(11.967 -0.0731184 0)
(12.1038 -0.0960334 0)
(12.1803 -0.114921 0)
(12.2707 -0.0562843 0)
(12.2578 -0.095766 0)
(12.407 -0.0926366 0)
(12.3885 -0.11602 0)
(12.4298 -0.0773367 0)
(12.4579 -0.150151 0)
(12.4211 -0.147448 0)
(12.3897 -0.102375 0)
(9.99411 -0.343922 0)
(10.4319 -0.521114 0)
(11.1377 -0.521598 0)
(11.2912 -0.278451 0)
(11.6943 -0.198172 0)
(11.6509 -0.237355 0)
(11.8641 -0.148049 0)
(11.8008 -0.168737 0)
(11.9549 -0.173713 0)
(11.8816 -0.101771 0)
(12.019 -0.12043 0)
(11.9133 -0.125101 0)
(12.0534 -0.0725974 0)
(11.8942 -0.107095 0)
(12.0322 -0.10035 0)
(11.8554 -0.112134 0)
(11.9293 -0.082706 0)
(11.771 -0.151118 0)
(11.7388 -0.146996 0)
(11.57 -0.133838 0)
(9.95142 -0.454052 0)
(10.6391 -0.684361 0)
(11.1968 -0.582041 0)
(11.3566 -0.339077 0)
(11.6124 -0.252781 0)
(11.3918 -0.257936 0)
(11.5183 -0.180212 0)
(11.2832 -0.173305 0)
(11.2614 -0.167624 0)
(11.0932 -0.106873 0)
(11.0761 -0.107836 0)
(10.826 -0.109034 0)
(10.9103 -0.0677092 0)
(10.6139 -0.0871359 0)
(10.6956 -0.0806782 0)
(10.405 -0.0919745 0)
(10.4744 -0.065108 0)
(10.1724 -0.12598 0)
(10.1592 -0.110787 0)
(9.85051 -0.137669 0)
(10.0277 -0.63136 0)
(10.7137 -0.849074 0)
(10.8599 -0.620637 0)
(10.6902 -0.371033 0)
(10.4934 -0.245539 0)
(10.0258 -0.214206 0)
(9.87381 -0.1447 0)
(9.47298 -0.115498 0)
(9.29795 -0.109702 0)
(9.04849 -0.0657755 0)
(8.92419 -0.0581497 0)
(8.66744 -0.0646663 0)
(8.67808 -0.0359342 0)
(8.3903 -0.0463577 0)
(8.43274 -0.0492796 0)
(8.14803 -0.053019 0)
(8.19675 -0.0411448 0)
(7.8881 -0.0754049 0)
(7.8759 -0.0822897 0)
(7.54527 -0.0722915 0)
(10.0668 -0.838211 0)
(9.68986 -0.861956 0)
(8.86423 -0.515633 0)
(8.07965 -0.262331 0)
(7.50928 -0.129418 0)
(6.97267 -0.092759 0)
(6.71752 -0.0515159 0)
(6.38275 -0.0334179 0)
(6.22234 -0.0404851 0)
(6.02539 -0.0190862 0)
(5.92955 -0.0156818 0)
(5.75684 -0.0269323 0)
(5.7401 -0.0100681 0)
(5.55591 -0.0179828 0)
(5.56523 -0.0216951 0)
(5.36201 -0.0239041 0)
(5.38077 -0.0174134 0)
(5.15253 -0.0355999 0)
(5.12667 -0.0442659 0)
(4.84529 -0.00933742 0)
(8.08853 -0.388507 0)
(5.46025 -0.241526 0)
(3.9114 -0.0443122 0)
(3.14988 0.0147436 0)
(2.80662 0.0213607 0)
(2.59142 0.0074769 0)
(2.48386 0.00623529 0)
(2.3774 0.00485749 0)
(2.32011 -0.00224732 0)
(2.24393 0.00239354 0)
(2.22117 0.00183512 0)
(2.15846 -0.00306446 0)
(2.14345 0.00202341 0)
(2.08602 -0.000927704 0)
(2.07683 -0.00163128 0)
(1.99385 -0.00239288 0)
(1.9886 0.000475609 0)
(1.89896 -0.00416488 0)
(1.84943 -0.00572141 0)
(1.70687 0.0117773 0)
(2.31448 -0.157324 0)
(2.25933 -0.0668304 0)
(2.51252 -0.0313151 0)
(2.45943 -0.0144222 0)
(2.76077 -0.023158 0)
(2.69113 -0.0116782 0)
(2.98395 -0.0178561 0)
(2.85977 -0.0085696 0)
(3.14302 -0.0238159 0)
(2.97061 -0.0275333 0)
(3.26284 -0.0520262 0)
(3.04665 -0.0580649 0)
(3.36164 -0.0771482 0)
(3.11159 -0.0722954 0)
(3.44986 -0.0857063 0)
(3.15835 -0.0794736 0)
(3.51664 -0.0862846 0)
(3.17452 -0.0751542 0)
(3.56541 -0.0767802 0)
(3.16999 -0.0569218 0)
(3.60247 -0.0490736 0)
(3.16068 -0.0163367 0)
(3.65236 0.00402947 0)
(3.17672 0.0447098 0)
(3.7347 0.0636898 0)
(3.24395 0.104125 0)
(3.8623 0.119078 0)
(3.36118 0.152593 0)
(4.02932 0.154694 0)
(3.5316 0.178694 0)
(4.20891 0.170966 0)
(3.70589 0.176955 0)
(4.38515 0.150763 0)
(3.85668 0.137386 0)
(4.48852 0.0998312 0)
(3.93534 0.0810695 0)
(4.52101 0.0539262 0)
(3.9079 0.0739175 0)
(4.48732 0.0814638 0)
(3.9422 0.107949 0)
(4.59971 0.0780587 0)
(4.099 0.046017 0)
(4.72991 -0.0255509 0)
(4.20434 -0.0860566 0)
(4.79171 -0.169803 0)
(4.23974 -0.224336 0)
(4.80876 -0.296297 0)
(4.26149 -0.316157 0)
(4.83186 -0.345669 0)
(4.31061 -0.316527 0)
(4.88042 -0.303485 0)
(4.38454 -0.246259 0)
(4.92293 -0.213138 0)
(4.42541 -0.153931 0)
(4.92048 -0.119818 0)
(4.3793 -0.0505289 0)
(4.80223 0.00741101 0)
(4.23328 0.109832 0)
(4.65064 0.187417 0)
(4.02862 0.311068 0)
(4.41803 0.324236 0)
(3.91024 0.379154 0)
(4.33755 0.356175 0)
(3.99599 0.349709 0)
(4.4472 0.225904 0)
(4.20629 0.162062 0)
(4.59866 0.0224911 0)
(4.34314 -0.0418392 0)
(4.67896 -0.159441 0)
(4.38886 -0.198284 0)
(4.70592 -0.2662 0)
(4.36308 -0.268437 0)
(4.70022 -0.287339 0)
(4.31666 -0.235448 0)
(4.70889 -0.226956 0)
(4.28423 -0.10593 0)
(4.72017 -0.0655522 0)
(4.26108 0.148683 0)
(4.73075 0.190057 0)
(4.31813 0.474585 0)
(4.79367 0.501819 0)
(4.48074 0.815282 0)
(4.97365 0.812173 0)
(4.79144 1.08367 0)
(5.28573 1.00017 0)
(5.1592 1.13104 0)
(5.65874 0.980099 0)
(5.5382 0.965931 0)
(5.94419 0.757945 0)
(5.8669 0.644287 0)
(6.13834 0.348668 0)
(6.06984 0.213061 0)
(6.28608 -0.0851138 0)
(6.17647 -0.273343 0)
(6.4189 -0.519967 0)
(6.29688 -0.722041 0)
(6.56813 -0.917946 0)
(6.43807 -1.08095 0)
(6.68505 -1.20473 0)
(6.54626 -1.2848 0)
(6.7394 -1.36547 0)
(6.5448 -1.32328 0)
(6.67337 -1.34585 0)
(6.50069 -1.19778 0)
(6.63734 -1.13822 0)
(6.41788 -0.924942 0)
(6.63272 -0.809069 0)
(6.36818 -0.594749 0)
(6.74709 -0.413227 0)
(6.42657 -0.211394 0)
(6.87801 -0.107805 0)
(6.52737 0.0564668 0)
(6.89352 0.0314076 0)
(6.69205 0.20864 0)
(6.80927 0.111482 0)
(6.82204 0.197027 0)
(6.88753 0.152421 0)
(6.95727 0.0284532 0)
(7.05418 0.0423805 0)
(7.2442 -0.0478822 0)
(7.24595 -0.158014 0)
(7.51776 -0.113815 0)
(7.64671 -0.190351 0)
(7.76023 -0.268298 0)
(7.87951 -0.31978 0)
(8.18816 -0.331587 0)
(8.18831 -0.435065 0)
(8.48927 -0.512386 0)
(8.52592 -0.559365 0)
(8.86651 -0.63823 0)
(8.92508 -0.797498 0)
(9.13496 -0.823163 0)
(9.24237 -0.895024 0)
(9.55499 -1.09049 0)
(9.55935 -1.19081 0)
(9.77979 -1.17986 0)
(10.0592 -1.39168 0)
(10.2198 -1.57814 0)
(10.2503 -1.65135 0)
(10.6908 -1.92237 0)
(10.8565 -2.11632 0)
(11.0654 -2.18565 0)
(11.5198 -2.56675 0)
(11.4818 -2.78633 0)
(11.8451 -2.96817 0)
(12.3063 -3.23662 0)
(12.5044 -3.39696 0)
(12.6412 -3.48911 0)
(12.8773 -3.74742 0)
(13.2342 -4.00767 0)
(13.1688 -3.98894 0)
(13.4585 -3.96603 0)
(13.6951 -4.20436 0)
(13.8965 -4.14663 0)
(13.7128 -4.03133 0)
(14.1643 -4.08009 0)
(14.3231 -4.07453 0)
(14.4338 -3.77442 0)
(14.6615 -3.68324 0)
(14.9998 -3.52221 0)
(15.1532 -3.14375 0)
(15.2954 -2.92983 0)
(15.5848 -2.52771 0)
(15.5435 -2.14645 0)
(15.7712 -1.66492 0)
(15.6967 -1.24865 0)
(15.6861 -0.617807 0)
(15.5363 -0.265508 0)
(15.2877 0.431417 0)
(14.8555 0.773331 0)
(14.4443 1.32479 0)
(13.8526 1.49072 0)
(13.1057 1.89155 0)
(12.6191 1.90866 0)
(11.7997 1.95387 0)
(11.2852 2.07593 0)
(10.4966 1.80316 0)
(10.0483 2.06718 0)
(9.34671 1.66123 0)
(8.86421 1.89901 0)
(8.39658 1.62877 0)
(7.85453 1.67114 0)
(7.48846 1.905 0)
(7.01091 1.55111 0)
(6.89074 2.43305 0)
(6.45435 2.04958 0)
(6.72886 2.65089 0)
(6.27377 2.46072 0)
(6.3137 2.59027 0)
(6.29265 3.16158 0)
(6.10537 3.02021 0)
(6.59183 4.14694 0)
(6.1313 4.1512 0)
(6.25107 4.20082 0)
(6.67265 5.58419 0)
(5.85285 5.49358 0)
(6.12448 6.51612 0)
(6.51638 8.38923 0)
(7.16871 9.28503 0)
(4.16094 12.1568 0)
(5.35429 -0.096584 0)
(5.15946 -0.0486839 0)
(5.39681 -0.0387641 0)
(5.19511 -0.0459841 0)
(5.52346 -0.0707336 0)
(5.32775 -0.0654148 0)
(5.68087 -0.0733173 0)
(5.42796 -0.0573519 0)
(5.78537 -0.0673211 0)
(5.48385 -0.0651119 0)
(5.8606 -0.0838002 0)
(5.52518 -0.0870271 0)
(5.92423 -0.103004 0)
(5.5657 -0.100656 0)
(5.97985 -0.106735 0)
(5.59583 -0.0959577 0)
(6.01699 -0.0977527 0)
(5.60164 -0.0827024 0)
(6.02719 -0.0789448 0)
(5.58461 -0.0602362 0)
(6.01508 -0.0518852 0)
(5.55057 -0.0204737 0)
(5.99576 -0.00161174 0)
(5.52304 0.0396325 0)
(5.98307 0.0546056 0)
(5.51248 0.0952008 0)
(5.98245 0.100351 0)
(5.52571 0.136286 0)
(6.00166 0.125084 0)
(5.57274 0.149027 0)
(6.04592 0.126564 0)
(5.64531 0.140574 0)
(6.10962 0.104199 0)
(5.73856 0.10207 0)
(6.17814 0.0593056 0)
(5.82174 0.052706 0)
(6.23422 0.0118452 0)
(5.89126 0.0275391 0)
(6.29486 0.00693307 0)
(6.01131 0.0326735 0)
(6.4472 -0.0125419 0)
(6.21622 -0.0289538 0)
(6.62524 -0.0998797 0)
(6.38941 -0.136808 0)
(6.75944 -0.204081 0)
(6.51514 -0.237085 0)
(6.84864 -0.292668 0)
(6.57923 -0.299275 0)
(6.85608 -0.325334 0)
(6.56043 -0.291415 0)
(6.78571 -0.293694 0)
(6.49148 -0.232335 0)
(6.68815 -0.217933 0)
(6.41299 -0.138447 0)
(6.58786 -0.102991 0)
(6.32792 -0.00138861 0)
(6.48178 0.0605697 0)
(6.23721 0.170329 0)
(6.3899 0.218835 0)
(6.12879 0.317201 0)
(6.29204 0.348452 0)
(6.08957 0.394288 0)
(6.3074 0.379664 0)
(6.11185 0.344445 0)
(6.38916 0.243949 0)
(6.18973 0.145725 0)
(6.48006 0.0131279 0)
(6.24488 -0.0625954 0)
(6.50921 -0.175539 0)
(6.23838 -0.186309 0)
(6.46483 -0.266766 0)
(6.1774 -0.218282 0)
(6.34904 -0.262715 0)
(6.04887 -0.164244 0)
(6.18606 -0.181272 0)
(5.8744 -0.0485807 0)
(6.04362 -0.0390305 0)
(5.71211 0.152675 0)
(5.94122 0.193611 0)
(5.61736 0.421343 0)
(5.93153 0.463336 0)
(5.63706 0.698229 0)
(6.06999 0.743953 0)
(5.83435 0.876354 0)
(6.31984 0.905169 0)
(6.17161 0.93536 0)
(6.59534 0.839979 0)
(6.58486 0.84793 0)
(6.91655 0.633857 0)
(6.93251 0.541871 0)
(7.26555 0.312506 0)
(7.20578 0.107753 0)
(7.57266 -0.116784 0)
(7.47774 -0.33387 0)
(7.87676 -0.569648 0)
(7.81446 -0.774033 0)
(8.1202 -0.970717 0)
(8.1578 -1.13615 0)
(8.30673 -1.26816 0)
(8.3965 -1.31916 0)
(8.44249 -1.40637 0)
(8.49343 -1.33403 0)
(8.47771 -1.30707 0)
(8.45928 -1.1882 0)
(8.45916 -1.04212 0)
(8.27485 -0.945563 0)
(8.38443 -0.71774 0)
(8.08137 -0.612241 0)
(8.27399 -0.434249 0)
(8.05319 -0.255835 0)
(8.1651 -0.194467 0)
(8.17986 0.0199596 0)
(8.18147 -0.00653128 0)
(8.27155 0.105417 0)
(8.34661 0.181737 0)
(8.37453 0.0516792 0)
(8.52294 0.132003 0)
(8.62275 0.0149273 0)
(8.6099 -0.12291 0)
(8.8334 -0.121083 0)
(8.83678 -0.189558 0)
(8.97765 -0.302181 0)
(9.07346 -0.32486 0)
(9.28482 -0.36144 0)
(9.36226 -0.486721 0)
(9.61584 -0.506502 0)
(9.66577 -0.537371 0)
(10.0462 -0.659015 0)
(10.0386 -0.678803 0)
(10.3153 -0.712616 0)
(10.4253 -0.865016 0)
(10.6321 -0.915394 0)
(10.6518 -0.976835 0)
(10.8986 -1.12381 0)
(10.929 -1.26681 0)
(11.133 -1.30009 0)
(11.1825 -1.50574 0)
(11.4536 -1.73439 0)
(11.4243 -1.79454 0)
(11.9215 -2.03391 0)
(11.8288 -2.24815 0)
(12.1022 -2.45725 0)
(12.3941 -2.79139 0)
(12.4541 -2.88364 0)
(12.704 -3.07747 0)
(12.8837 -3.35061 0)
(12.9423 -3.56853 0)
(12.898 -3.69471 0)
(13.1843 -3.84173 0)
(13.1353 -3.98407 0)
(13.3371 -4.0239 0)
(13.1553 -4.12486 0)
(13.3445 -4.20999 0)
(13.525 -4.27313 0)
(13.5258 -4.2687 0)
(13.8139 -4.17114 0)
(14.059 -4.15725 0)
(14.3967 -4.10578 0)
(14.4909 -3.8845 0)
(14.8925 -3.65466 0)
(15.0468 -3.46259 0)
(15.2782 -3.12748 0)
(15.3878 -2.66823 0)
(15.5363 -2.30755 0)
(15.6557 -1.77588 0)
(15.6141 -1.22901 0)
(15.6221 -0.636916 0)
(15.482 -0.064858 0)
(15.2723 0.617404 0)
(14.8705 1.24555 0)
(14.2816 1.70138 0)
(13.6959 2.19134 0)
(12.8684 2.29992 0)
(12.2138 2.59663 0)
(11.3507 2.52039 0)
(10.707 2.5926 0)
(10.2204 2.37973 0)
(9.34452 2.33557 0)
(8.97383 2.36894 0)
(8.27744 2.00426 0)
(8.04954 2.35431 0)
(7.27131 1.90933 0)
(7.27045 2.1277 0)
(6.68312 2.18492 0)
(6.66816 1.96007 0)
(6.67038 2.80725 0)
(6.05112 2.21993 0)
(6.91271 2.91717 0)
(6.06044 2.44272 0)
(6.65414 2.93183 0)
(6.45745 3.61936 0)
(6.53931 3.32882 0)
(7.05676 4.65687 0)
(6.66988 4.55262 0)
(6.8158 4.7494 0)
(7.36924 5.9624 0)
(6.939 5.478 0)
(6.80924 7.42869 0)
(10.4353 8.50896 0)
(7.58513 13.8525 0)
(7.988 -0.13669 0)
(7.78624 -0.116303 0)
(8.00785 -0.107621 0)
(7.81413 -0.0849521 0)
(8.12095 -0.0979127 0)
(7.93249 -0.0695676 0)
(8.24885 -0.0834683 0)
(7.99078 -0.057575 0)
(8.29905 -0.0792145 0)
(8.00504 -0.0708197 0)
(8.32355 -0.0965192 0)
(8.0225 -0.0939546 0)
(8.34946 -0.113885 0)
(8.04699 -0.103768 0)
(8.37157 -0.113673 0)
(8.0668 -0.0994525 0)
(8.38039 -0.0996172 0)
(8.07558 -0.0789434 0)
(8.37107 -0.0725139 0)
(8.07152 -0.0461312 0)
(8.34586 -0.0380039 0)
(8.04907 0.00379671 0)
(8.30606 0.013939 0)
(8.01414 0.0591249 0)
(8.26806 0.0599328 0)
(7.98371 0.110806 0)
(8.23813 0.100733 0)
(7.96362 0.142063 0)
(8.22675 0.123789 0)
(7.96769 0.14715 0)
(8.23941 0.12773 0)
(7.99506 0.125677 0)
(8.26364 0.101056 0)
(8.04837 0.0794389 0)
(8.29867 0.0521951 0)
(8.10445 0.0332402 0)
(8.33293 -0.00553362 0)
(8.16371 -0.00234785 0)
(8.38894 -0.0428835 0)
(8.25702 -0.0225975 0)
(8.50994 -0.0842923 0)
(8.41209 -0.0922324 0)
(8.66165 -0.167548 0)
(8.56131 -0.192014 0)
(8.77906 -0.254918 0)
(8.66162 -0.284671 0)
(8.84328 -0.331141 0)
(8.69418 -0.335336 0)
(8.84595 -0.34 0)
(8.6722 -0.296296 0)
(8.82185 -0.269383 0)
(8.61765 -0.201269 0)
(8.77017 -0.145642 0)
(8.51637 -0.0727272 0)
(8.6681 -0.00351817 0)
(8.37124 0.061899 0)
(8.54662 0.13276 0)
(8.22895 0.201227 0)
(8.42865 0.247859 0)
(8.11562 0.323273 0)
(8.35803 0.335865 0)
(8.07983 0.386124 0)
(8.3585 0.323253 0)
(8.10584 0.310606 0)
(8.41212 0.18758 0)
(8.16639 0.125721 0)
(8.47183 -0.00758369 0)
(8.20143 -0.06033 0)
(8.48864 -0.160946 0)
(8.17453 -0.162479 0)
(8.43593 -0.223547 0)
(8.1002 -0.171709 0)
(8.32192 -0.194523 0)
(7.97028 -0.0996603 0)
(8.1622 -0.0877809 0)
(7.7718 0.0252479 0)
(7.97944 0.0745564 0)
(7.54398 0.180721 0)
(7.78826 0.289738 0)
(7.3579 0.37413 0)
(7.63373 0.508963 0)
(7.31403 0.618767 0)
(7.56973 0.660119 0)
(7.46684 0.835107 0)
(7.67578 0.714427 0)
(7.7281 0.858082 0)
(7.96562 0.722293 0)
(8.03347 0.6431 0)
(8.36169 0.577493 0)
(8.3971 0.333474 0)
(8.74346 0.186773 0)
(8.78839 -0.0296638 0)
(9.11911 -0.310246 0)
(9.20178 -0.450138 0)
(9.45576 -0.757889 0)
(9.60694 -0.894469 0)
(9.72184 -1.11613 0)
(9.94612 -1.26018 0)
(9.93275 -1.33815 0)
(10.1243 -1.44106 0)
(10.0943 -1.41361 0)
(10.1156 -1.39573 0)
(10.19 -1.32422 0)
(10.0041 -1.18311 0)
(10.2002 -1.05831 0)
(9.92879 -0.901933 0)
(10.1022 -0.685877 0)
(9.93658 -0.53943 0)
(9.91188 -0.397373 0)
(9.95165 -0.1937 0)
(9.79058 -0.163361 0)
(9.85664 -0.0328797 0)
(9.874 0.0433316 0)
(9.78923 0.00169135 0)
(9.96882 0.0862324 0)
(9.94037 0.0440208 0)
(10.0496 -0.0470924 0)
(10.1578 -0.0615989 0)
(10.1989 -0.154594 0)
(10.3487 -0.255928 0)
(10.386 -0.272318 0)
(10.536 -0.368111 0)
(10.6686 -0.439624 0)
(10.7769 -0.464148 0)
(10.8781 -0.578127 0)
(11.0968 -0.651788 0)
(11.0812 -0.646688 0)
(11.3285 -0.78016 0)
(11.3447 -0.832833 0)
(11.5049 -0.855824 0)
(11.5541 -0.965698 0)
(11.6925 -1.05273 0)
(11.7322 -1.12278 0)
(11.8679 -1.19417 0)
(11.9125 -1.34573 0)
(12.085 -1.44021 0)
(12.1282 -1.58786 0)
(12.3326 -1.73899 0)
(12.3478 -1.88834 0)
(12.6564 -2.15452 0)
(12.4883 -2.3235 0)
(12.8286 -2.54198 0)
(12.7953 -2.75423 0)
(12.9391 -2.95701 0)
(12.7644 -3.18723 0)
(12.93 -3.40063 0)
(12.8351 -3.58001 0)
(12.8807 -3.6958 0)
(12.7971 -3.81538 0)
(12.7143 -3.99369 0)
(12.9575 -4.17344 0)
(12.6897 -4.27597 0)
(13.0447 -4.2327 0)
(13.2214 -4.42394 0)
(13.5285 -4.51828 0)
(13.557 -4.39991 0)
(14.0486 -4.40683 0)
(14.2826 -4.48511 0)
(14.4501 -4.15233 0)
(14.6533 -3.9297 0)
(14.8026 -3.75373 0)
(14.9838 -3.30242 0)
(14.8728 -2.90368 0)
(15.1214 -2.42082 0)
(15.0465 -1.98568 0)
(15.1527 -1.23048 0)
(15.0319 -0.772501 0)
(15.225 0.157218 0)
(14.8614 0.681335 0)
(14.8315 1.62853 0)
(14.1259 2.11569 0)
(13.5256 2.81247 0)
(12.7964 2.95185 0)
(11.8205 3.16602 0)
(11.1835 3.27269 0)
(10.1008 2.95379 0)
(9.64122 3.18524 0)
(8.8999 2.88973 0)
(8.37134 2.62174 0)
(8.2557 2.71255 0)
(7.19691 2.24944 0)
(7.43448 2.60115 0)
(6.60378 2.12898 0)
(7.07872 2.17997 0)
(6.04782 2.59122 0)
(6.60653 2.22315 0)
(6.61147 2.90919 0)
(6.20394 2.06065 0)
(7.44343 3.15013 0)
(6.33392 2.47115 0)
(7.48152 3.17061 0)
(7.21571 3.84563 0)
(7.20732 3.69638 0)
(8.1052 5.01737 0)
(7.49871 4.65315 0)
(7.75257 5.98162 0)
(9.56457 6.4063 0)
(6.15732 8.34904 0)
(11.5801 5.32018 0)
(9.40341 12.6955 0)
(10.1024 -0.159227 0)
(10.0476 -0.243958 0)
(10.1661 -0.266057 0)
(10.0986 -0.209474 0)
(10.276 -0.183007 0)
(10.1728 -0.109629 0)
(10.3738 -0.115439 0)
(10.19 -0.0669839 0)
(10.392 -0.0995855 0)
(10.1699 -0.0780455 0)
(10.3843 -0.114138 0)
(10.158 -0.108023 0)
(10.3861 -0.128735 0)
(10.1641 -0.120804 0)
(10.3875 -0.119892 0)
(10.174 -0.112092 0)
(10.3783 -0.100161 0)
(10.1787 -0.0873563 0)
(10.3505 -0.0631992 0)
(10.1663 -0.0545289 0)
(10.3237 -0.0255387 0)
(10.1514 -0.00446224 0)
(10.2998 0.0283722 0)
(10.1278 0.0580847 0)
(10.2908 0.0731497 0)
(10.1081 0.117149 0)
(10.2861 0.112351 0)
(10.0816 0.149668 0)
(10.2874 0.12358 0)
(10.0778 0.148863 0)
(10.2969 0.122065 0)
(10.0991 0.12505 0)
(10.3069 0.0896066 0)
(10.1496 0.0782331 0)
(10.331 0.0394 0)
(10.1952 0.0306915 0)
(10.3637 -0.0269837 0)
(10.2291 -0.0240874 0)
(10.4289 -0.0848147 0)
(10.2684 -0.0680458 0)
(10.5274 -0.131362 0)
(10.3382 -0.152405 0)
(10.6427 -0.203806 0)
(10.414 -0.25405 0)
(10.7137 -0.274617 0)
(10.4547 -0.332002 0)
(10.7304 -0.332393 0)
(10.4582 -0.350164 0)
(10.7044 -0.324747 0)
(10.4207 -0.284386 0)
(10.6478 -0.251912 0)
(10.3443 -0.166377 0)
(10.5753 -0.123813 0)
(10.2658 -0.0165951 0)
(10.4947 0.0263189 0)
(10.1837 0.133712 0)
(10.4173 0.16607 0)
(10.1057 0.267829 0)
(10.3521 0.279668 0)
(10.0469 0.3637 0)
(10.3199 0.348052 0)
(10.0219 0.372305 0)
(10.313 0.320634 0)
(10.0425 0.272414 0)
(10.3261 0.196964 0)
(10.0935 0.106928 0)
(10.3265 0.014216 0)
(10.1221 -0.0488688 0)
(10.2866 -0.140711 0)
(10.08 -0.130193 0)
(10.1982 -0.192247 0)
(9.97592 -0.146086 0)
(10.0971 -0.131564 0)
(9.83277 -0.0778594 0)
(9.98239 0.0159469 0)
(9.67213 0.0734032 0)
(9.81701 0.189499 0)
(9.54978 0.279766 0)
(9.57985 0.348002 0)
(9.4737 0.504184 0)
(9.34458 0.490109 0)
(9.41857 0.670919 0)
(9.27848 0.637173 0)
(9.38676 0.710243 0)
(9.44468 0.733326 0)
(9.48815 0.635352 0)
(9.70974 0.655343 0)
(9.7842 0.505176 0)
(10.0282 0.359467 0)
(10.18 0.254104 0)
(10.3895 -0.0459895 0)
(10.5723 -0.150138 0)
(10.7728 -0.446805 0)
(10.941 -0.63949 0)
(11.0882 -0.830015 0)
(11.2747 -1.07825 0)
(11.2808 -1.16708 0)
(11.5017 -1.37163 0)
(11.4022 -1.39302 0)
(11.5177 -1.4788 0)
(11.4906 -1.44622 0)
(11.356 -1.38746 0)
(11.5081 -1.32425 0)
(11.1849 -1.15596 0)
(11.4026 -1.04707 0)
(11.1671 -0.858996 0)
(11.2264 -0.688803 0)
(11.2484 -0.534354 0)
(11.1436 -0.355307 0)
(11.2908 -0.244713 0)
(11.2211 -0.110158 0)
(11.2569 -0.0461804 0)
(11.3767 0.0128465 0)
(11.2684 0.0379229 0)
(11.4812 0.00861967 0)
(11.407 0.0234543 0)
(11.5343 -0.0801245 0)
(11.6254 -0.132829 0)
(11.6264 -0.178976 0)
(11.737 -0.330709 0)
(11.8193 -0.361322 0)
(11.8219 -0.422827 0)
(11.9745 -0.557064 0)
(11.9918 -0.582211 0)
(12.0649 -0.656351 0)
(12.1438 -0.753381 0)
(12.1734 -0.765795 0)
(12.2569 -0.833415 0)
(12.2765 -0.874918 0)
(12.3938 -0.943669 0)
(12.378 -0.966732 0)
(12.4392 -1.05814 0)
(12.5243 -1.15799 0)
(12.5185 -1.20898 0)
(12.5398 -1.36602 0)
(12.6455 -1.49425 0)
(12.6597 -1.64107 0)
(12.6768 -1.79152 0)
(12.7167 -2.02404 0)
(12.7633 -2.21345 0)
(12.7288 -2.39865 0)
(12.759 -2.58569 0)
(12.6388 -2.81699 0)
(12.7334 -3.07377 0)
(12.4318 -3.20273 0)
(12.6165 -3.336 0)
(12.4143 -3.60535 0)
(12.4529 -3.73747 0)
(12.2797 -3.88804 0)
(12.469 -4.08297 0)
(12.6274 -4.2124 0)
(12.648 -4.36091 0)
(12.9129 -4.44384 0)
(13.1504 -4.64454 0)
(13.4485 -4.80555 0)
(13.4508 -4.70409 0)
(13.9033 -4.68903 0)
(13.7536 -4.64243 0)
(14.028 -4.29129 0)
(13.6539 -4.09644 0)
(14.0116 -3.71174 0)
(13.5226 -3.38126 0)
(13.7573 -2.8185 0)
(13.5366 -2.57221 0)
(13.7233 -1.84813 0)
(13.5831 -1.39109 0)
(13.9207 -0.672827 0)
(13.8299 0.009159 0)
(14.0574 1.00425 0)
(13.8622 1.55968 0)
(13.755 2.64674 0)
(13.0144 3.10911 0)
(12.5678 3.82181 0)
(11.4854 3.74006 0)
(10.7358 3.92613 0)
(10.1164 3.67236 0)
(8.96126 3.43392 0)
(8.82769 3.51576 0)
(7.85136 2.90997 0)
(7.35144 3.1262 0)
(7.30875 3.08949 0)
(6.31238 2.24659 0)
(7.20914 2.78512 0)
(5.71092 2.3945 0)
(6.96184 2.41749 0)
(6.00602 2.63935 0)
(7.05734 2.19044 0)
(7.19637 2.73831 0)
(6.7116 1.87456 0)
(8.09161 3.38392 0)
(6.22861 2.67378 0)
(8.2802 3.83921 0)
(7.1003 3.78772 0)
(7.78814 4.64593 0)
(9.37132 4.54902 0)
(6.61361 5.8816 0)
(12.1788 3.67142 0)
(8.0246 9.27869 0)
(12.5884 3.66059 0)
(10.8595 11.4468 0)
(11.5309 -0.114429 0)
(11.5947 -0.258274 0)
(11.6873 -0.289204 0)
(11.7261 -0.249705 0)
(11.8445 -0.208532 0)
(11.7594 -0.121783 0)
(11.9165 -0.121658 0)
(11.7233 -0.0669724 0)
(11.9185 -0.0966184 0)
(11.6654 -0.0816933 0)
(11.899 -0.105362 0)
(11.6305 -0.113267 0)
(11.8831 -0.119821 0)
(11.6327 -0.122728 0)
(11.8584 -0.109474 0)
(11.6488 -0.112431 0)
(11.8238 -0.0871987 0)
(11.675 -0.0894637 0)
(11.7766 -0.0449373 0)
(11.6807 -0.0520636 0)
(11.7394 -0.0122679 0)
(11.6816 0.00461118 0)
(11.7202 0.0315743 0)
(11.6642 0.0696648 0)
(11.7414 0.0638804 0)
(11.6568 0.131234 0)
(11.7853 0.101643 0)
(11.6399 0.165215 0)
(11.8248 0.116221 0)
(11.6459 0.15054 0)
(11.8446 0.121121 0)
(11.6628 0.105735 0)
(11.8423 0.0913338 0)
(11.7098 0.042617 0)
(11.8626 0.0413581 0)
(11.7525 -0.00194577 0)
(11.9009 -0.0330681 0)
(11.7764 -0.0423039 0)
(11.9736 -0.111517 0)
(11.7898 -0.0780664 0)
(12.0443 -0.169606 0)
(11.8034 -0.159658 0)
(12.1006 -0.239504 0)
(11.8303 -0.259673 0)
(12.0994 -0.293738 0)
(11.8363 -0.324245 0)
(12.0389 -0.328191 0)
(11.8281 -0.329696 0)
(11.9594 -0.313405 0)
(11.7751 -0.251462 0)
(11.868 -0.239887 0)
(11.6948 -0.129569 0)
(11.8069 -0.104723 0)
(11.6261 0.0167207 0)
(11.7654 0.0675487 0)
(11.5816 0.153242 0)
(11.7472 0.216324 0)
(11.5632 0.274783 0)
(11.7426 0.311297 0)
(11.5759 0.35033 0)
(11.7404 0.343876 0)
(11.621 0.341983 0)
(11.7292 0.306347 0)
(11.6985 0.250358 0)
(11.7122 0.193366 0)
(11.7714 0.109428 0)
(11.6925 0.0332463 0)
(11.7864 -0.0212754 0)
(11.679 -0.100381 0)
(11.7118 -0.0874814 0)
(11.6273 -0.133968 0)
(11.5715 -0.0880132 0)
(11.5256 -0.0719997 0)
(11.4245 -0.0122875 0)
(11.3442 0.0480067 0)
(11.3171 0.134137 0)
(11.1337 0.201782 0)
(11.2802 0.32997 0)
(10.992 0.389213 0)
(11.2754 0.514467 0)
(10.9764 0.579879 0)
(11.2596 0.638767 0)
(11.0829 0.709165 0)
(11.2682 0.680767 0)
(11.2673 0.695543 0)
(11.3812 0.618227 0)
(11.4859 0.522023 0)
(11.6264 0.424407 0)
(11.7351 0.237293 0)
(11.9392 0.082809 0)
(12.022 -0.132308 0)
(12.2464 -0.330484 0)
(12.3131 -0.559107 0)
(12.4808 -0.749067 0)
(12.5373 -0.959715 0)
(12.636 -1.13672 0)
(12.6247 -1.23699 0)
(12.6769 -1.41032 0)
(12.5918 -1.3769 0)
(12.5714 -1.4763 0)
(12.5027 -1.39075 0)
(12.3249 -1.3288 0)
(12.3928 -1.28164 0)
(12.0737 -1.07689 0)
(12.2345 -1.01391 0)
(12.0076 -0.823501 0)
(12.0252 -0.651406 0)
(12.0918 -0.560082 0)
(11.9329 -0.341839 0)
(12.1237 -0.293964 0)
(12.0815 -0.153309 0)
(12.1016 -0.0724285 0)
(12.304 -0.0767129 0)
(12.1934 0.016971 0)
(12.4303 -0.0595283 0)
(12.4135 -0.0524361 0)
(12.4989 -0.0820268 0)
(12.5974 -0.218622 0)
(12.6229 -0.233213 0)
(12.6267 -0.336753 0)
(12.766 -0.44129 0)
(12.669 -0.45901 0)
(12.7856 -0.562926 0)
(12.7576 -0.628353 0)
(12.7904 -0.657843 0)
(12.7451 -0.72704 0)
(12.8313 -0.79296 0)
(12.7483 -0.817302 0)
(12.7779 -0.864351 0)
(12.7935 -0.964072 0)
(12.7575 -0.983098 0)
(12.7236 -1.0623 0)
(12.7767 -1.18749 0)
(12.6999 -1.26501 0)
(12.6932 -1.36901 0)
(12.6966 -1.52437 0)
(12.6834 -1.65521 0)
(12.6226 -1.83098 0)
(12.5982 -1.9871 0)
(12.5852 -2.17187 0)
(12.5366 -2.39292 0)
(12.3916 -2.55409 0)
(12.3682 -2.77867 0)
(12.3681 -2.98637 0)
(12.1655 -3.11937 0)
(12.2265 -3.34478 0)
(12.0993 -3.57192 0)
(12.2777 -3.74433 0)
(12.1629 -3.89183 0)
(12.437 -4.10154 0)
(12.4519 -4.31566 0)
(12.6718 -4.54324 0)
(12.7305 -4.70557 0)
(12.9798 -4.79775 0)
(12.9653 -4.8836 0)