/*--------------------------------*- C++ -*----------------------------------*\
| =========                 |                                                 |
| \\      /  F ield         | OpenFOAM: The Open Source CFD Toolbox           |
|  \\    /   O peration     | Version:  2.4.0                                 |
|   \\  /    A nd           | Web:      www.OpenFOAM.org                      |
|    \\/     M anipulation  |                                                 |
\*---------------------------------------------------------------------------*/
FoamFile
{
    version     2.0;
    format      ascii;
    class       volVectorField;
    location    "0.96";
    object      U_0;
}
// * * * * * * * * * * * * * * * * * * * * * * * * * * * * * * * * * * * * * //

dimensions      [0 1 -1 0 0 0 0];

internalField   nonuniform List<vector> 
8800
(
(8.09514 0.387338 0)
(5.45144 0.243347 0)
(3.90546 0.0428052 0)
(3.16045 -0.0175213 0)
(2.7968 -0.0155194 0)
(2.59767 -0.0125849 0)
(2.49415 -0.00741053 0)
(2.36697 0.00220799 0)
(2.33129 -0.00447813 0)
(2.24002 -0.00152124 0)
(2.23386 0.00293161 0)
(2.14227 -0.0019686 0)
(2.18041 -0.00212412 0)
(2.06614 0.00536388 0)
(2.12096 -0.0035694 0)
(1.98924 0.00332448 0)
(2.06958 -0.000638153 0)
(1.89874 0.00118796 0)
(2.0169 0.0110863 0)
(1.62695 -0.0774408 0)
(10.1017 0.835883 0)
(9.6505 0.87354 0)
(8.87137 0.506058 0)
(8.08848 0.255833 0)
(7.47655 0.146117 0)
(7.01616 0.075682 0)
(6.71863 0.0515158 0)
(6.34773 0.0510716 0)
(6.29286 0.0216201 0)
(5.9624 0.0220138 0)
(5.98557 0.0294748 0)
(5.7151 0.00974681 0)
(5.81766 0.0106726 0)
(5.47711 0.0290012 0)
(5.7102 0.00435135 0)
(5.26925 0.0221953 0)
(5.59262 0.0172489 0)
(5.06284 0.0139429 0)
(5.47031 0.0430543 0)
(4.77116 -0.0786109 0)
(10.0987 0.626038 0)
(10.6401 0.876826 0)
(10.8734 0.595359 0)
(10.6971 0.365271 0)
(10.4329 0.270023 0)
(10.0844 0.180324 0)
(9.89195 0.158086 0)
(9.39093 0.136748 0)
(9.44274 0.0785868 0)
(8.9207 0.0764686 0)
(9.02676 0.0740856 0)
(8.59234 0.035566 0)
(8.80146 0.0421771 0)
(8.23338 0.0570961 0)
(8.68111 0.0232308 0)
(7.94629 0.0467719 0)
(8.51619 0.0427478 0)
(7.70446 0.0366117 0)
(8.30943 0.0764774 0)
(7.47033 -0.0912379 0)
(10.0558 0.445879 0)
(10.5288 0.731143 0)
(11.1781 0.534311 0)
(11.3775 0.345886 0)
(11.5588 0.286489 0)
(11.4025 0.191063 0)
(11.6006 0.212534 0)
(11.1466 0.191865 0)
(11.4581 0.12325 0)
(10.9377 0.13419 0)
(11.21 0.127917 0)
(10.7159 0.063702 0)
(11.0754 0.0897119 0)
(10.4046 0.0905833 0)
(10.9838 0.0464977 0)
(10.1619 0.0869604 0)
(10.8019 0.0571127 0)
(9.9933 0.0885744 0)
(10.5045 0.0802162 0)
(9.86085 0.0338516 0)
(10.1519 0.334003 0)
(10.335 0.604285 0)
(10.9774 0.432059 0)
(11.3025 0.28496 0)
(11.6954 0.255083 0)
(11.5872 0.141052 0)
(11.9946 0.202571 0)
(11.7502 0.192634 0)
(12.0752 0.10351 0)
(11.801 0.142715 0)
(12.1299 0.136212 0)
(11.8121 0.0664716 0)
(12.1411 0.100471 0)
(11.7744 0.121734 0)
(12.1957 0.0413279 0)
(11.6877 0.130386 0)
(12.1303 0.0489419 0)
(11.699 0.138451 0)
(11.871 0.0720412 0)
(11.7105 0.0837098 0)
(9.87416 0.227058 0)
(10.5967 0.532885 0)
(10.5202 0.340995 0)
(11.33 0.217346 0)
(11.4105 0.21477 0)
(11.6645 0.0834077 0)
(11.6646 0.15022 0)
(12.033 0.184076 0)
(11.8925 0.0850696 0)
(12.0614 0.133853 0)
(12.1206 0.12963 0)
(12.2494 0.0580612 0)
(12.1371 0.0846972 0)
(12.3384 0.106371 0)
(12.3904 0.0330787 0)
(12.3387 0.124788 0)
(12.4423 0.0331207 0)
(12.5041 0.136309 0)
(12.3814 0.0784514 0)
(12.5661 -0.0172863 0)
(9.66086 0.130925 0)
(10.7579 0.443112 0)
(10.2706 0.282524 0)
(11.1501 0.135529 0)
(11.2984 0.194471 0)
(11.6486 0.0739667 0)
(11.5089 0.0849866 0)
(12.0368 0.1361 0)
(11.9069 0.0672302 0)
(12.1037 0.0850731 0)
(12.0964 0.0822372 0)
(12.4173 0.0631873 0)
(12.0429 0.069992 0)
(12.4241 0.0756778 0)
(12.3106 0.0229681 0)
(12.4204 0.127031 0)
(12.464 -0.00310734 0)
(12.4865 0.115701 0)
(12.687 0.0475268 0)
(12.5375 -0.0700464 0)
(10.1536 0.0595619 0)
(10.0834 0.385056 0)
(10.8445 0.258437 0)
(10.7664 0.0298533 0)
(11.4721 0.115803 0)
(11.4145 0.0299047 0)
(11.8305 0.0264967 0)
(11.6266 0.0824237 0)
(11.9854 0.0514353 0)
(11.896 0.0851091 0)
(11.8824 0.0528011 0)
(12.1531 0.0699604 0)
(12.0017 0.0759137 0)
(12.2725 0.0474673 0)
(12.1717 0.0176077 0)
(12.3418 0.0874232 0)
(12.5439 -0.00537195 0)
(12.2023 0.0544448 0)
(12.8628 0.0184622 0)
(12.2205 -0.0521478 0)
(10.2107 0.0249734 0)
(9.9614 0.244898 0)
(11.0555 0.128715 0)
(10.8026 0.0408352 0)
(11.3861 0.0785064 0)
(11.3308 -0.00896267 0)
(11.6303 0.0265167 0)
(11.452 0.0858121 0)
(11.7364 -0.00866911 0)
(11.8228 0.0936469 0)
(11.7905 0.0331078 0)
(12.1207 0.0281245 0)
(11.9818 0.0432741 0)
(12.2998 0.0403995 0)
(12.1207 0.00339451 0)
(12.3515 0.0293529 0)
(12.3533 0.0147035 0)
(12.2279 0.00508264 0)
(12.5959 -0.000903562 0)
(12.3251 -0.0234238 0)
(9.92649 -0.0216881 0)
(10.2886 0.128104 0)
(10.5273 0.069593 0)
(10.9901 -0.0138421 0)
(11.16 0.0336884 0)
(11.5305 -0.0170246 0)
(11.4679 -0.0114895 0)
(11.767 0.0273865 0)
(11.652 -0.0398934 0)
(11.9561 0.0451858 0)
(11.7658 -0.00514114 0)
(12.1443 0.0102095 0)
(11.9112 0.0388553 0)
(12.2887 0.00814166 0)
(12.1281 0.00360153 0)
(12.3617 0.014058 0)
(12.364 0.00843692 0)
(12.3636 -0.0379524 0)
(12.4891 -0.0551486 0)
(12.4432 0.0188803 0)
(9.90902 -0.0595069 0)
(10.2088 0.0465798 0)
(10.5419 -0.0320054 0)
(11.1891 -0.0819724 0)
(11.0775 -0.00493938 0)
(11.6225 -0.067659 0)
(11.4928 -0.042959 0)
(11.7417 0.00790091 0)
(11.5775 -0.0543013 0)
(11.949 0.0333356 0)
(11.7392 0.00223567 0)
(12.0831 -0.0119886 0)
(11.9468 0.0108367 0)
(12.2689 -0.0165382 0)
(12.1241 -0.0113052 0)
(12.38 -0.0461079 0)
(12.296 0.000389344 0)
(12.4659 -0.0566613 0)
(12.3157 -0.0663201 0)
(12.4488 0.0267885 0)
(10.0537 -0.0830791 0)
(10.1475 -0.0727916 0)
(10.7471 -0.156566 0)
(11.0104 -0.11113 0)
(11.1986 -0.0272047 0)
(11.5362 -0.0953599 0)
(11.5218 -0.0479508 0)
(11.6047 -0.0223113 0)
(11.7478 -0.0873958 0)
(11.8359 -0.0148209 0)
(11.8219 -0.0292607 0)
(12.0587 -0.0400158 0)
(12.0473 -0.0105027 0)
(12.1733 -0.0321489 0)
(12.1956 -0.0301288 0)
(12.3618 -0.040942 0)
(12.3158 -0.031765 0)
(12.44 -0.0673958 0)
(12.399 -0.108599 0)
(12.4044 0.019155 0)
(10.0494 -0.141005 0)
(10.1573 -0.177261 0)
(10.7098 -0.222963 0)
(11.0658 -0.158692 0)
(11.2883 -0.0810597 0)
(11.5221 -0.133382 0)
(11.6797 -0.0693477 0)
(11.6338 -0.0793305 0)
(11.8645 -0.10743 0)
(11.8523 -0.0203626 0)
(11.9272 -0.040418 0)
(12.0611 -0.0674923 0)
(12.1211 -0.0211291 0)
(12.2038 -0.050246 0)
(12.2712 -0.0586704 0)
(12.3948 -0.0839998 0)
(12.3955 -0.0441612 0)
(12.4755 -0.0976797 0)
(12.5152 -0.116929 0)
(12.3549 -0.00423432 0)
(10.0325 -0.182773 0)
(10.2075 -0.271466 0)
(10.8016 -0.347837 0)
(11.1997 -0.213626 0)
(11.354 -0.106264 0)
(11.6141 -0.174181 0)
(11.7027 -0.0910661 0)
(11.6949 -0.0974395 0)
(11.8855 -0.128509 0)
(11.8992 -0.0552204 0)
(11.9827 -0.0720132 0)
(12.1458 -0.0871951 0)
(12.1893 -0.0441682 0)
(12.2564 -0.0753824 0)
(12.3704 -0.0700077 0)
(12.4376 -0.0923921 0)
(12.4372 -0.0611657 0)
(12.5392 -0.128882 0)
(12.5209 -0.131265 0)
(12.4897 -0.0482683 0)
(10.0312 -0.254579 0)
(10.2871 -0.397124 0)
(11.005 -0.433776 0)
(11.209 -0.2363 0)
(11.5088 -0.154177 0)
(11.6443 -0.208837 0)
(11.7661 -0.10481 0)
(11.7702 -0.144658 0)
(11.9909 -0.154131 0)
(11.9652 -0.0716209 0)
(12.1073 -0.0992828 0)
(12.1818 -0.113353 0)
(12.2681 -0.0556359 0)
(12.2597 -0.097496 0)
(12.4083 -0.0929801 0)
(12.386 -0.114427 0)
(12.4309 -0.0777858 0)
(12.4567 -0.152188 0)
(12.4222 -0.144683 0)
(12.3918 -0.10289 0)
(9.99375 -0.341571 0)
(10.4386 -0.52392 0)
(11.1352 -0.523105 0)
(11.2891 -0.275262 0)
(11.6935 -0.201141 0)
(11.6474 -0.236235 0)
(11.8644 -0.1458 0)
(11.8 -0.171645 0)
(11.9552 -0.171882 0)
(11.8826 -0.101043 0)
(12.0193 -0.1229 0)
(11.9145 -0.123409 0)
(12.0529 -0.0722306 0)
(11.8951 -0.108674 0)
(12.0323 -0.100008 0)
(11.8544 -0.110792 0)
(11.9301 -0.0833742 0)
(11.7693 -0.152935 0)
(11.7405 -0.145009 0)
(11.5697 -0.132766 0)
(9.95312 -0.452958 0)
(10.6431 -0.685923 0)
(11.1923 -0.582543 0)
(11.3584 -0.337111 0)
(11.6098 -0.25491 0)
(11.3899 -0.257219 0)
(11.5212 -0.178648 0)
(11.2798 -0.175339 0)
(11.2632 -0.166536 0)
(11.0948 -0.10616 0)
(11.0739 -0.109582 0)
(10.828 -0.108036 0)
(10.9102 -0.067308 0)
(10.6134 -0.0882166 0)
(10.6957 -0.080543 0)
(10.4051 -0.0910614 0)
(10.4746 -0.0655045 0)
(10.1709 -0.127292 0)
(10.1602 -0.109252 0)
(9.85012 -0.13702 0)
(10.029 -0.630798 0)
(10.7156 -0.849783 0)
(10.8568 -0.621232 0)
(10.693 -0.369729 0)
(10.4905 -0.246498 0)
(10.0255 -0.214137 0)
(9.87618 -0.143546 0)
(9.46981 -0.116711 0)
(9.30029 -0.109393 0)
(9.04894 -0.0650391 0)
(8.92237 -0.0593217 0)
(8.66932 -0.0641732 0)
(8.67761 -0.0354328 0)
(8.38988 -0.0471526 0)
(8.4328 -0.0492846 0)
(8.14827 -0.052289 0)
(8.19684 -0.0413792 0)
(7.88702 -0.0764194 0)
(7.87647 -0.0812775 0)
(7.54547 -0.0716009 0)
(10.0673 -0.838056 0)
(9.69098 -0.862191 0)
(8.86217 -0.515945 0)
(8.08131 -0.261604 0)
(7.50755 -0.129858 0)
(6.97286 -0.0929739 0)
(6.71872 -0.0506964 0)
(6.38115 -0.0340934 0)
(6.22369 -0.0404998 0)
(6.02543 -0.0184374 0)
(5.92883 -0.0164391 0)
(5.75761 -0.0267337 0)
(5.73986 -0.0096361 0)
(5.55591 -0.0185055 0)
(5.56494 -0.0217204 0)
(5.3622 -0.0234404 0)
(5.38107 -0.0175536 0)
(5.15167 -0.0362274 0)
(5.12669 -0.0436733 0)
(4.84561 -0.0089682 0)
(8.08853 -0.388478 0)
(5.46083 -0.241514 0)
(3.91044 -0.0444077 0)
(3.15027 0.0149203 0)
(2.8065 0.0212532 0)
(2.59123 0.00736702 0)
(2.48413 0.00652509 0)
(2.37733 0.00462027 0)
(2.32009 -0.00226029 0)
(2.24408 0.00263283 0)
(2.22126 0.00157371 0)
(2.15823 -0.00300354 0)
(2.1436 0.00217099 0)
(2.08627 -0.00108983 0)
(2.07633 -0.0016382 0)
(1.99389 -0.00226004 0)
(1.98908 0.000451604 0)
(1.89842 -0.0043695 0)
(1.84901 -0.00556169 0)
(1.70744 0.0119306 0)
(2.31248 -0.154973 0)
(2.25712 -0.0637518 0)
(2.51079 -0.0284977 0)
(2.45822 -0.0133177 0)
(2.75963 -0.023548 0)
(2.69053 -0.0136733 0)
(2.98323 -0.0207269 0)
(2.85994 -0.0117194 0)
(3.14309 -0.0270738 0)
(2.97121 -0.0302817 0)
(3.26271 -0.0544724 0)
(3.04675 -0.0596561 0)
(3.36093 -0.0779923 0)
(3.11062 -0.072165 0)
(3.44777 -0.0853252 0)
(3.15583 -0.078576 0)
(3.51327 -0.0852401 0)
(3.17098 -0.0739075 0)
(3.56178 -0.0756987 0)
(3.16631 -0.0556905 0)
(3.59933 -0.0473681 0)
(3.15736 -0.0140135 0)
(3.6502 0.00671658 0)
(3.17397 0.0474141 0)
(3.73387 0.0667359 0)
(3.24248 0.107422 0)
(3.8628 0.122507 0)
(3.3614 0.156011 0)
(4.03209 0.158013 0)
(3.53339 0.182117 0)
(4.21298 0.173438 0)
(3.70925 0.178905 0)
(4.39007 0.151793 0)
(3.85872 0.137809 0)
(4.49398 0.0993493 0)
(3.93795 0.0799178 0)
(4.52595 0.0530961 0)
(3.91081 0.0724501 0)
(4.4964 0.0783696 0)
(3.95067 0.100916 0)
(4.61046 0.0667622 0)
(4.10355 0.0324456 0)
(4.73495 -0.0408129 0)
(4.20124 -0.101358 0)
(4.79001 -0.184467 0)
(4.23045 -0.236988 0)
(4.8044 -0.305223 0)
(4.25113 -0.3195 0)
(4.82865 -0.342567 0)
(4.30252 -0.307161 0)
(4.87979 -0.288694 0)
(4.37889 -0.227535 0)
(4.92328 -0.192892 0)
(4.42093 -0.134024 0)
(4.92018 -0.10189 0)
(4.37278 -0.0359333 0)
(4.79871 0.0181122 0)
(4.22531 0.115054 0)
(4.64203 0.188602 0)
(4.01575 0.307213 0)
(4.40808 0.315276 0)
(3.90041 0.366768 0)
(4.33147 0.342354 0)
(3.99129 0.336156 0)
(4.44576 0.213091 0)
(4.20765 0.151115 0)
(4.60178 0.013488 0)
(4.34755 -0.0479063 0)
(4.68437 -0.162418 0)
(4.39502 -0.196642 0)
(4.71147 -0.261427 0)
(4.37085 -0.259587 0)
(4.70835 -0.27479 0)
(4.32822 -0.221419 0)
(4.71925 -0.209617 0)
(4.29723 -0.0886242 0)
(4.72987 -0.0464276 0)
(4.27268 0.165621 0)
(4.73797 0.206668 0)
(4.32765 0.488929 0)
(4.79483 0.515235 0)
(4.48899 0.824242 0)
(4.97083 0.819173 0)
(4.79742 1.08255 0)
(5.27772 0.99336 0)
(5.16074 1.12156 0)
(5.64979 0.962519 0)
(5.53403 0.945731 0)
(5.9389 0.732137 0)
(5.86129 0.610733 0)
(6.13398 0.316286 0)
(6.06939 0.179491 0)
(6.2837 -0.122093 0)
(6.18227 -0.30467 0)
(6.42311 -0.553137 0)
(6.30637 -0.746825 0)
(6.57555 -0.939752 0)
(6.44139 -1.09251 0)
(6.68786 -1.20926 0)
(6.53757 -1.2844 0)
(6.72949 -1.354 0)
(6.52103 -1.30766 0)
(6.65451 -1.32286 0)
(6.47513 -1.16754 0)
(6.61282 -1.10824 0)
(6.39912 -0.885405 0)
(6.61371 -0.776471 0)
(6.36708 -0.554275 0)
(6.74191 -0.37972 0)
(6.42907 -0.188647 0)
(6.87478 -0.0907212 0)
(6.51581 0.0579729 0)
(6.89188 0.0334743 0)
(6.67018 0.201492 0)
(6.80131 0.0959292 0)
(6.81509 0.184174 0)
(6.87956 0.12127 0)
(6.95549 0.00436809 0)
(7.06503 0.0253601 0)
(7.244 -0.078709 0)
(7.25338 -0.16876 0)
(7.53972 -0.117371 0)
(7.64754 -0.205596 0)
(7.76173 -0.277431 0)
(7.90189 -0.31794 0)
(8.19294 -0.332867 0)
(8.18949 -0.441453 0)
(8.49641 -0.508563 0)
(8.53577 -0.551627 0)
(8.87596 -0.642687 0)
(8.91717 -0.795574 0)
(9.13587 -0.80813 0)
(9.2513 -0.898754 0)
(9.54909 -1.09692 0)
(9.54289 -1.17027 0)
(9.79309 -1.1736 0)
(10.0617 -1.41084 0)
(10.1902 -1.57381 0)
(10.2645 -1.65812 0)
(10.7071 -1.94397 0)
(10.8421 -2.1109 0)
(11.0971 -2.20701 0)
(11.5125 -2.6028 0)
(11.4703 -2.79193 0)
(11.8995 -2.98448 0)
(12.341 -3.25511 0)
(12.4977 -3.38979 0)
(12.6618 -3.4989 0)
(12.9222 -3.78498 0)
(13.2663 -4.0079 0)
(13.1843 -3.96242 0)
(13.5366 -3.9797 0)
(13.7599 -4.21715 0)
(13.905 -4.1188 0)
(13.774 -4.02523 0)
(14.257 -4.10131 0)
(14.3631 -4.04273 0)
(14.4852 -3.74906 0)
(14.7484 -3.68846 0)
(15.0509 -3.48272 0)
(15.1933 -3.11468 0)
(15.354 -2.90815 0)
(15.6105 -2.48007 0)
(15.5678 -2.10476 0)
(15.8005 -1.62609 0)
(15.6827 -1.18656 0)
(15.6808 -0.578012 0)
(15.4978 -0.216398 0)
(15.2152 0.480016 0)
(14.7773 0.798297 0)
(14.3484 1.33454 0)
(13.7141 1.4938 0)
(12.989 1.87911 0)
(12.4974 1.86258 0)
(11.6575 1.93619 0)
(11.1566 2.02443 0)
(10.3759 1.77149 0)
(9.91978 2.03012 0)
(9.22289 1.62383 0)
(8.7545 1.87202 0)
(8.29 1.59687 0)
(7.73792 1.67548 0)
(7.39393 1.88401 0)
(6.93063 1.58278 0)
(6.832 2.44909 0)
(6.43464 2.04206 0)
(6.6851 2.6258 0)
(6.25927 2.42995 0)
(6.30112 2.58125 0)
(6.30132 3.15741 0)
(6.1338 3.05023 0)
(6.60819 4.15486 0)
(6.15453 4.12716 0)
(6.30418 4.19099 0)
(6.68468 5.59558 0)
(5.86941 5.46239 0)
(6.13858 6.48826 0)
(6.53025 8.36017 0)
(7.19415 9.2753 0)
(4.15841 12.1816 0)
(5.35446 -0.0939862 0)
(5.15747 -0.0460433 0)
(5.39484 -0.036365 0)
(5.19278 -0.045579 0)
(5.52149 -0.0711875 0)
(5.32673 -0.0676695 0)
(5.68016 -0.0762958 0)
(5.4285 -0.0604638 0)
(5.78631 -0.0707852 0)
(5.48494 -0.0678126 0)
(5.86182 -0.0862505 0)
(5.52513 -0.0882961 0)
(5.92491 -0.103631 0)
(5.56412 -0.0999107 0)
(5.97943 -0.105465 0)
(5.59257 -0.0942955 0)
(6.01527 -0.0962972 0)
(5.59673 -0.0810024 0)
(6.02454 -0.0778074 0)
(5.57862 -0.0593054 0)
(6.01182 -0.0504315 0)
(5.54448 -0.0184193 0)
(5.99286 0.00125756 0)
(5.51746 0.0421394 0)
(5.98061 0.0576236 0)
(5.50747 0.0978236 0)
(5.98092 0.103232 0)
(5.52224 0.138653 0)
(6.00216 0.127047 0)
(5.57166 0.151149 0)
(6.04901 0.127819 0)
(5.64688 0.141827 0)
(6.11576 0.104151 0)
(5.74264 0.101741 0)
(6.18661 0.0579386 0)
(5.82827 0.0502763 0)
(6.24526 0.00930492 0)
(5.90135 0.0240351 0)
(6.30975 0.00276054 0)
(6.02594 0.0259381 0)
(6.46375 -0.0225605 0)
(6.22816 -0.0398976 0)
(6.63654 -0.112483 0)
(6.39536 -0.147927 0)
(6.76568 -0.214704 0)
(6.51482 -0.245672 0)
(6.848 -0.297937 0)
(6.5696 -0.300507 0)
(6.84666 -0.32114 0)
(6.543 -0.283698 0)
(6.77172 -0.281537 0)
(6.47365 -0.217451 0)
(6.67591 -0.20124 0)
(6.39971 -0.120051 0)
(6.57972 -0.0853254 0)
(6.32031 0.0147916 0)
(6.47801 0.0720895 0)
(6.23512 0.176939 0)
(6.38518 0.220308 0)
(6.1265 0.31467 0)
(6.28849 0.340368 0)
(6.08994 0.383862 0)
(6.30297 0.365849 0)
(6.11286 0.329225 0)
(6.38702 0.228646 0)
(6.19178 0.131 0)
(6.48065 0.00268378 0)
(6.24645 -0.0706381 0)
(6.50918 -0.177099 0)
(6.23756 -0.184609 0)
(6.46326 -0.260352 0)
(6.17304 -0.208279 0)
(6.34398 -0.250265 0)
(6.04301 -0.149392 0)
(6.17834 -0.166203 0)
(5.87203 -0.0323096 0)
(6.03779 -0.022032 0)
(5.71379 0.169776 0)
(5.93858 0.210296 0)
(5.62324 0.435199 0)
(5.93135 0.476979 0)
(5.64684 0.709741 0)
(6.07401 0.748252 0)
(5.84377 0.87931 0)
(6.32723 0.901615 0)
(6.17643 0.923441 0)
(6.60629 0.83037 0)
(6.59374 0.826557 0)
(6.92625 0.60736 0)
(6.94896 0.513653 0)
(7.27532 0.275494 0)
(7.2235 0.0726618 0)
(7.58784 -0.152977 0)
(7.49727 -0.369054 0)
(7.90067 -0.602308 0)
(7.82404 -0.800202 0)
(8.14519 -0.990663 0)
(8.15587 -1.14891 0)
(8.31915 -1.26706 0)
(8.38756 -1.31498 0)
(8.43503 -1.39006 0)
(8.47483 -1.30889 0)
(8.44895 -1.28142 0)
(8.43429 -1.15034 0)
(8.41134 -1.01437 0)
(8.24349 -0.908241 0)
(8.33893 -0.687108 0)
(8.04558 -0.588099 0)
(8.25434 -0.403607 0)
(8.02176 -0.242865 0)
(8.16445 -0.174647 0)
(8.1649 0.0251784 0)
(8.17222 -0.0115728 0)
(8.2756 0.113182 0)
(8.33814 0.158922 0)
(8.37415 0.0320734 0)
(8.53392 0.11601 0)
(8.60801 -0.0263959 0)
(8.61293 -0.144976 0)
(8.83737 -0.132897 0)
(8.828 -0.213716 0)
(8.98164 -0.316449 0)
(9.08537 -0.327138 0)
(9.29299 -0.375174 0)
(9.37541 -0.494252 0)
(9.62636 -0.497356 0)
(9.69021 -0.538578 0)
(10.0605 -0.654992 0)
(10.0404 -0.661177 0)
(10.3321 -0.709712 0)
(10.4263 -0.861895 0)
(10.6259 -0.900485 0)
(10.6473 -0.973385 0)
(10.8911 -1.12896 0)
(10.9146 -1.25796 0)
(11.1224 -1.30026 0)
(11.1789 -1.52692 0)
(11.4343 -1.73461 0)
(11.4429 -1.8022 0)
(11.924 -2.05823 0)
(11.8079 -2.26366 0)
(12.139 -2.48897 0)
(12.4061 -2.80995 0)
(12.4566 -2.88343 0)
(12.7435 -3.10467 0)
(12.8953 -3.38114 0)
(12.9442 -3.5802 0)
(12.943 -3.70179 0)
(13.223 -3.85561 0)
(13.1863 -3.98649 0)
(13.3574 -4.02916 0)
(13.1982 -4.13378 0)
(13.413 -4.22066 0)
(13.5756 -4.27386 0)
(13.5725 -4.25274 0)
(13.8973 -4.15884 0)
(14.1212 -4.15902 0)
(14.4475 -4.07906 0)
(14.542 -3.85282 0)
(14.9536 -3.63139 0)
(15.0908 -3.43497 0)
(15.3172 -3.07363 0)
(15.4267 -2.62012 0)
(15.5777 -2.26325 0)
(15.6771 -1.7033 0)
(15.62 -1.16258 0)
(15.6237 -0.571276 0)
(15.4505 0.0111943 0)
(15.2153 0.691783 0)
(14.7743 1.28851 0)
(14.1691 1.73597 0)
(13.559 2.19627 0)
(12.7387 2.27747 0)
(12.0645 2.57855 0)
(11.2173 2.4816 0)
(10.6017 2.53514 0)
(10.0832 2.34028 0)
(9.21105 2.31303 0)
(8.86757 2.31361 0)
(8.18989 1.98891 0)
(7.9247 2.32718 0)
(7.19713 1.87553 0)
(7.19301 2.12491 0)
(6.63257 2.15424 0)
(6.63572 1.9889 0)
(6.61717 2.7917 0)
(6.06953 2.18615 0)
(6.9102 2.86364 0)
(6.08915 2.40988 0)
(6.69468 2.9496 0)
(6.52127 3.59751 0)
(6.62174 3.33436 0)
(7.12425 4.66078 0)
(6.75105 4.51626 0)
(6.89384 4.69684 0)
(7.48044 5.93111 0)
(7.01989 5.48339 0)
(6.86892 7.48572 0)
(10.4798 8.57072 0)
(7.58818 13.9053 0)
(7.98998 -0.13297 0)
(7.78482 -0.112707 0)
(8.00707 -0.103249 0)
(7.81374 -0.084403 0)
(8.11961 -0.0982625 0)
(7.93242 -0.0721275 0)
(8.24658 -0.0872052 0)
(7.99036 -0.0611787 0)
(8.29876 -0.0836813 0)
(8.00535 -0.0734311 0)
(8.3251 -0.0989872 0)
(8.02237 -0.0945662 0)
(8.35101 -0.113806 0)
(8.04528 -0.102214 0)
(8.37226 -0.112387 0)
(8.06357 -0.09717 0)
(8.38065 -0.0977954 0)
(8.07137 -0.0767472 0)
(8.37107 -0.0706039 0)
(8.06672 -0.0446775 0)
(8.34446 -0.0355872 0)
(8.04372 0.00582018 0)
(8.30293 0.0166252 0)
(8.00916 0.0606237 0)
(8.26424 0.0628287 0)
(7.97956 0.112786 0)
(8.23456 0.102657 0)
(7.96156 0.144261 0)
(8.2255 0.124451 0)
(7.96822 0.149391 0)
(8.24141 0.127023 0)
(7.99734 0.126226 0)
(8.26969 0.0994002 0)
(8.0526 0.077817 0)
(8.30685 0.0505684 0)
(8.11056 0.0286461 0)
(8.34294 -0.00834933 0)
(8.17381 -0.00848589 0)
(8.40126 -0.0475142 0)
(8.27112 -0.0301599 0)
(8.5236 -0.0939578 0)
(8.42489 -0.101821 0)
(8.6721 -0.179118 0)
(8.56887 -0.200407 0)
(8.784 -0.264528 0)
(8.66264 -0.29077 0)
(8.84056 -0.334594 0)
(8.68857 -0.333566 0)
(8.83783 -0.332502 0)
(8.66499 -0.285299 0)
(8.81105 -0.254625 0)
(8.60879 -0.183118 0)
(8.75615 -0.127501 0)
(8.50433 -0.0538388 0)
(8.65312 0.0117244 0)
(8.36062 0.0746475 0)
(8.53652 0.142067 0)
(8.22177 0.204441 0)
(8.42291 0.249057 0)
(8.11266 0.318345 0)
(8.35734 0.328374 0)
(8.07973 0.373848 0)
(8.3595 0.307707 0)
(8.10767 0.294937 0)
(8.41372 0.170987 0)
(8.16818 0.112463 0)
(8.47261 -0.0181234 0)
(8.20238 -0.0667961 0)
(8.48749 -0.16129 0)
(8.17244 -0.159216 0)
(8.43359 -0.215025 0)
(8.09493 -0.16011 0)
(8.31669 -0.180948 0)
(7.96301 -0.083325 0)
(8.15136 -0.0733666 0)
(7.76298 0.042807 0)
(7.96635 0.0872115 0)
(7.53479 0.197613 0)
(7.77969 0.301621 0)
(7.3513 0.386141 0)
(7.63518 0.523646 0)
(7.3134 0.621469 0)
(7.58213 0.672597 0)
(7.47719 0.830391 0)
(7.69127 0.709499 0)
(7.75144 0.854215 0)
(7.98194 0.697143 0)
(8.06446 0.629308 0)
(8.3865 0.547194 0)
(8.42627 0.296539 0)
(8.77454 0.156666 0)
(8.81737 -0.0757532 0)
(9.1538 -0.342863 0)
(9.22544 -0.485131 0)
(9.49 -0.79103 0)
(9.61878 -0.912905 0)
(9.74923 -1.13747 0)
(9.95004 -1.26057 0)
(9.94075 -1.33711 0)
(10.1285 -1.42818 0)
(10.0767 -1.38924 0)
(10.1202 -1.37149 0)
(10.1583 -1.28842 0)
(9.99924 -1.14377 0)
(10.1761 -1.02489 0)
(9.90182 -0.858088 0)
(10.0927 -0.649943 0)
(9.89084 -0.516937 0)
(9.90163 -0.366015 0)
(9.91846 -0.183577 0)
(9.76028 -0.159331 0)
(9.85323 -0.0237376 0)
(9.84477 0.0291693 0)
(9.78465 -0.00767284 0)
(9.97096 0.0760161 0)
(9.9277 0.0141508 0)
(10.0599 -0.0711566 0)
(10.1542 -0.0848535 0)
(10.2004 -0.185165 0)
(10.3518 -0.273296 0)
(10.3883 -0.286819 0)
(10.5487 -0.387173 0)
(10.6753 -0.446314 0)
(10.7807 -0.474073 0)
(10.894 -0.59031 0)
(11.0966 -0.644758 0)
(11.0853 -0.645846 0)
(11.3344 -0.780984 0)
(11.3387 -0.817111 0)
(11.5065 -0.847837 0)
(11.5469 -0.96082 0)
(11.6892 -1.04147 0)
(11.7279 -1.11098 0)
(11.864 -1.18972 0)
(11.9129 -1.34198 0)
(12.0907 -1.43838 0)
(12.1351 -1.59211 0)
(12.3379 -1.74199 0)
(12.3716 -1.90791 0)
(12.6622 -2.17455 0)
(12.4982 -2.33639 0)
(12.8643 -2.56304 0)
(12.8119 -2.77647 0)
(12.9411 -2.9793 0)
(12.7912 -3.21158 0)
(12.959 -3.42128 0)
(12.8671 -3.59105 0)
(12.91 -3.70414 0)
(12.8171 -3.8332 0)
(12.7723 -4.01764 0)
(12.99 -4.19034 0)
(12.7252 -4.26361 0)
(13.1261 -4.23478 0)
(13.2863 -4.44609 0)
(13.5562 -4.4973 0)
(13.6224 -4.37885 0)
(14.1174 -4.42136 0)
(14.3345 -4.45827 0)
(14.4844 -4.10361 0)
(14.7257 -3.91599 0)
(14.8548 -3.72006 0)
(15.0307 -3.24455 0)
(14.922 -2.85783 0)
(15.1958 -2.37377 0)
(15.0839 -1.90441 0)
(15.1925 -1.15597 0)
(15.086 -0.679935 0)
(15.2277 0.254465 0)
(14.8437 0.774497 0)
(14.7793 1.71368 0)
(13.9984 2.17575 0)
(13.4125 2.8265 0)
(12.6453 2.93559 0)
(11.6766 3.14991 0)
(11.0363 3.20879 0)
(9.9777 2.91262 0)
(9.5221 3.16146 0)
(8.80509 2.81237 0)
(8.31167 2.57453 0)
(8.12609 2.68076 0)
(7.11894 2.22757 0)
(7.36284 2.56092 0)
(6.58036 2.0774 0)
(6.99245 2.20454 0)
(6.01789 2.57452 0)
(6.63528 2.19784 0)
(6.61558 2.8378 0)
(6.29924 2.01648 0)
(7.48429 3.10142 0)
(6.39762 2.42037 0)
(7.54831 3.19387 0)
(7.26957 3.83827 0)
(7.27164 3.68198 0)
(8.17727 5.00159 0)
(7.55419 4.67826 0)
(7.7982 5.98969 0)
(9.59363 6.39621 0)
(6.19361 8.30648 0)
(11.6267 5.3267 0)
(9.42562 12.7294 0)
(10.1042 -0.155025 0)
(10.0487 -0.240861 0)
(10.1634 -0.261642 0)
(10.1009 -0.209637 0)
(10.2719 -0.183076 0)
(10.1763 -0.113189 0)
(10.3696 -0.119259 0)
(10.1917 -0.0710839 0)
(10.3896 -0.104765 0)
(10.1708 -0.0806274 0)
(10.384 -0.117978 0)
(10.1586 -0.108099 0)
(10.3872 -0.129351 0)
(10.163 -0.118078 0)
(10.3889 -0.118259 0)
(10.1707 -0.10919 0)
(10.3795 -0.0982416 0)
(10.1736 -0.084579 0)
(10.3506 -0.0619869 0)
(10.1623 -0.0531765 0)
(10.3238 -0.0233488 0)
(10.1491 -0.00254883 0)
(10.2987 0.03245 0)
(10.1276 0.0593427 0)
(10.2882 0.0777475 0)
(10.108 0.118516 0)
(10.2815 0.114675 0)
(10.0818 0.150169 0)
(10.2851 0.123219 0)
(10.0784 0.150176 0)
(10.2993 0.120469 0)
(10.1 0.12477 0)
(10.3143 0.0872239 0)
(10.1527 0.0759735 0)
(10.3393 0.0370735 0)
(10.2016 0.0246704 0)
(10.3705 -0.0313247 0)
(10.2406 -0.0315743 0)
(10.4341 -0.0906365 0)
(10.2821 -0.0748484 0)
(10.5323 -0.141946 0)
(10.3498 -0.159397 0)
(10.6466 -0.215299 0)
(10.4185 -0.259669 0)
(10.715 -0.282501 0)
(10.452 -0.335872 0)
(10.7282 -0.332002 0)
(10.4504 -0.347417 0)
(10.6985 -0.314512 0)
(10.411 -0.274394 0)
(10.6381 -0.234905 0)
(10.3346 -0.149284 0)
(10.5671 -0.104566 0)
(10.2575 0.00108801 0)
(10.4884 0.0415919 0)
(10.1783 0.146041 0)
(10.4138 0.174787 0)
(10.1038 0.271875 0)
(10.3509 0.27925 0)
(10.0481 0.359382 0)
(10.3203 0.336722 0)
(10.0231 0.360362 0)
(10.3155 0.302538 0)
(10.0417 0.257281 0)
(10.3302 0.180653 0)
(10.089 0.0924756 0)
(10.3291 0.00628089 0)
(10.1151 -0.0574585 0)
(10.2844 -0.138766 0)
(10.0727 -0.127201 0)
(10.1916 -0.185436 0)
(9.97186 -0.131281 0)
(10.0891 -0.119745 0)
(9.83067 -0.0564956 0)
(9.97552 0.0327052 0)
(9.66439 0.0922871 0)
(9.81582 0.208894 0)
(9.5324 0.290188 0)
(9.58269 0.365337 0)
(9.45703 0.507846 0)
(9.34473 0.497993 0)
(9.42258 0.675254 0)
(9.27417 0.631034 0)
(9.41394 0.713247 0)
(9.45075 0.718792 0)
(9.51882 0.623901 0)
(9.73787 0.64143 0)
(9.8137 0.473728 0)
(10.0675 0.338182 0)
(10.2129 0.214739 0)
(10.4251 -0.0811781 0)
(10.6074 -0.18279 0)
(10.8035 -0.489033 0)
(10.965 -0.664002 0)
(11.116 -0.862911 0)
(11.2806 -1.09391 0)
(11.2962 -1.17956 0)
(11.5017 -1.37381 0)
(11.39 -1.38335 0)
(11.5227 -1.46537 0)
(11.4563 -1.41689 0)
(11.3593 -1.36122 0)
(11.4782 -1.28616 0)
(11.1705 -1.11768 0)
(11.4001 -1.01182 0)
(11.1366 -0.817235 0)
(11.2409 -0.656895 0)
(11.2286 -0.503548 0)
(11.1466 -0.329986 0)
(11.2956 -0.229798 0)
(11.205 -0.100287 0)
(11.2705 -0.0465649 0)
(11.3629 0.00657138 0)
(11.2689 0.0229217 0)
(11.4864 -0.0082071 0)
(11.3953 -0.000841461 0)
(11.547 -0.110968 0)
(11.6179 -0.154458 0)
(11.6228 -0.210238 0)
(11.7439 -0.355656 0)
(11.8095 -0.373633 0)
(11.823 -0.446428 0)
(11.9754 -0.570609 0)
(11.9834 -0.587349 0)
(12.0634 -0.667289 0)
(12.1364 -0.750663 0)
(12.1692 -0.758791 0)
(12.2493 -0.824722 0)
(12.2747 -0.863852 0)
(12.3909 -0.92991 0)
(12.3639 -0.951938 0)
(12.4443 -1.05315 0)
(12.5196 -1.14724 0)
(12.5087 -1.20545 0)
(12.5459 -1.37086 0)
(12.6549 -1.49806 0)
(12.6582 -1.64956 0)
(12.6881 -1.80776 0)
(12.7311 -2.04456 0)
(12.7791 -2.23066 0)
(12.741 -2.41542 0)
(12.7727 -2.60854 0)
(12.6643 -2.84833 0)
(12.742 -3.09318 0)
(12.4552 -3.20921 0)
(12.6528 -3.36386 0)
(12.431 -3.63233 0)
(12.4739 -3.74771 0)
(12.3166 -3.91125 0)
(12.527 -4.09587 0)
(12.6698 -4.22291 0)
(12.6761 -4.3688 0)
(12.9839 -4.4495 0)
(13.203 -4.67031 0)
(13.4876 -4.79461 0)
(13.5155 -4.68031 0)
(13.9586 -4.69538 0)
(13.8124 -4.61109 0)
(14.0554 -4.26208 0)
(13.7392 -4.07512 0)
(14.0556 -3.68666 0)
(13.5849 -3.32836 0)
(13.8426 -2.79545 0)
(13.6202 -2.52291 0)
(13.8014 -1.76825 0)
(13.6903 -1.32724 0)
(14.0131 -0.575391 0)
(13.8942 0.142696 0)
(14.1154 1.10775 0)
(13.864 1.67056 0)
(13.6925 2.75429 0)
(12.9265 3.15434 0)
(12.4354 3.82118 0)
(11.336 3.70944 0)
(10.6312 3.86884 0)
(9.97443 3.61329 0)
(8.85611 3.39264 0)
(8.7321 3.43585 0)
(7.73954 2.88288 0)
(7.2696 3.11514 0)
(7.24663 2.99738 0)
(6.31285 2.19261 0)
(7.12537 2.77955 0)
(5.6951 2.35237 0)
(6.97238 2.38872 0)
(6.05622 2.5639 0)
(7.1556 2.10843 0)
(7.20779 2.66064 0)
(6.77192 1.86946 0)
(8.06117 3.4164 0)
(6.25997 2.64502 0)
(8.30467 3.8604 0)
(7.16147 3.78641 0)
(7.83938 4.63 0)
(9.39841 4.48242 0)
(6.73536 5.8506 0)
(12.252 3.73284 0)
(8.0945 9.36524 0)
(12.6408 3.76727 0)
(10.8861 11.5228 0)
(11.5229 -0.110877 0)
(11.5956 -0.255597 0)
(11.6784 -0.283901 0)
(11.7322 -0.250268 0)
(11.8371 -0.206563 0)
(11.7676 -0.125374 0)
(11.9102 -0.125156 0)
(11.7287 -0.0708669 0)
(11.914 -0.102977 0)
(11.6678 -0.0838981 0)
(11.8976 -0.109765 0)
(11.6302 -0.113405 0)
(11.886 -0.119867 0)
(11.6286 -0.119846 0)
(11.8635 -0.107508 0)
(11.6418 -0.109061 0)
(11.8303 -0.0854048 0)
(11.6664 -0.0859499 0)
(11.781 -0.0431952 0)
(11.6743 -0.0514442 0)
(11.742 -0.00883623 0)
(11.6796 0.0052391 0)
(11.7196 0.0364567 0)
(11.6687 0.0694419 0)
(11.7389 0.0694492 0)
(11.6642 0.132663 0)
(11.7801 0.104289 0)
(11.6454 0.166379 0)
(11.8215 0.113438 0)
(11.6466 0.152573 0)
(11.8446 0.115433 0)
(11.66 0.105422 0)
(11.8483 0.0858006 0)
(11.7106 0.0398533 0)
(11.8703 0.0394198 0)
(11.7592 -0.00927503 0)
(11.9062 -0.0340232 0)
(11.7892 -0.0519474 0)
(11.9751 -0.1142 0)
(11.8017 -0.0855661 0)
(12.0434 -0.179063 0)
(11.8094 -0.165638 0)
(12.1009 -0.251185 0)
(11.8262 -0.262967 0)
(12.1008 -0.300556 0)
(11.8239 -0.32521 0)
(12.0408 -0.32647 0)
(11.8138 -0.326475 0)
(11.9562 -0.30152 0)
(11.7625 -0.242307 0)
(11.8606 -0.223503 0)
(11.6887 -0.112796 0)
(11.7999 -0.087676 0)
(11.6245 0.0364728 0)
(11.7628 0.0797353 0)
(11.5843 0.166662 0)
(11.7484 0.223832 0)
(11.5675 0.276773 0)
(11.7472 0.310569 0)
(11.5788 0.342914 0)
(11.7479 0.332914 0)
(11.6192 0.329953 0)
(11.7395 0.289775 0)
(11.6924 0.236076 0)
(11.7212 0.178953 0)
(11.7649 0.096009 0)
(11.6939 0.0273666 0)
(11.785 -0.0286007 0)
(11.6699 -0.0972278 0)
(11.7118 -0.0832818 0)
(11.6119 -0.126718 0)
(11.5667 -0.0739677 0)
(11.5126 -0.0611086 0)
(11.4088 0.00415658 0)
(11.3417 0.0624048 0)
(11.2984 0.149438 0)
(11.1422 0.219928 0)
(11.2726 0.344568 0)
(11.0017 0.404047 0)
(11.2861 0.526076 0)
(10.979 0.585336 0)
(11.2843 0.642688 0)
(11.084 0.704669 0)
(11.2966 0.671718 0)
(11.2775 0.682868 0)
(11.4062 0.596667 0)
(11.51 0.499923 0)
(11.6496 0.395932 0)
(11.7648 0.204497 0)
(11.9645 0.0488418 0)
(12.0479 -0.167608 0)
(12.2717 -0.366926 0)
(12.3278 -0.590278 0)
(12.4973 -0.777247 0)
(12.5424 -0.985045 0)
(12.6355 -1.14574 0)
(12.618 -1.2487 0)
(12.6643 -1.40219 0)
(12.5699 -1.36455 0)
(12.5588 -1.45985 0)
(12.467 -1.3553 0)
(12.317 -1.30769 0)
(12.3625 -1.24052 0)
(12.0595 -1.04201 0)
(12.2351 -0.984383 0)
(11.9805 -0.779441 0)
(12.0484 -0.628527 0)
(12.0787 -0.529322 0)
(11.942 -0.319126 0)
(12.1466 -0.284646 0)
(12.0736 -0.137574 0)
(12.1338 -0.078183 0)
(12.3079 -0.079151 0)
(12.2042 0.00628264 0)
(12.4524 -0.0820263 0)
(12.4092 -0.0667846 0)
(12.5133 -0.113877 0)
(12.6004 -0.244916 0)
(12.6121 -0.252878 0)
(12.6325 -0.366414 0)
(12.7547 -0.456182 0)
(12.6567 -0.471891 0)
(12.7817 -0.579173 0)
(12.7423 -0.631928 0)
(12.7739 -0.659157 0)
(12.7371 -0.729854 0)
(12.8193 -0.787413 0)
(12.7298 -0.805538 0)
(12.7754 -0.860347 0)
(12.7843 -0.954147 0)
(12.7431 -0.968323 0)
(12.7258 -1.06128 0)
(12.7728 -1.18378 0)
(12.6942 -1.25912 0)
(12.6989 -1.37382 0)
(12.7056 -1.5297 0)
(12.688 -1.66576 0)
(12.6316 -1.84332 0)
(12.614 -2.00087 0)
(12.6043 -2.19608 0)
(12.54 -2.41314 0)
(12.406 -2.57525 0)
(12.3966 -2.80718 0)
(12.3783 -3.00624 0)
(12.1778 -3.14184 0)
(12.2532 -3.37779 0)
(12.1275 -3.59766 0)
(12.3076 -3.75903 0)
(12.1975 -3.91231 0)
(12.48 -4.12653 0)
(12.4953 -4.33875 0)
(12.7072 -4.56405 0)
(12.7965 -4.70682 0)
(13.0227 -4.80442 0)
(13.0149 -4.8865 0)
(13.0006 -4.83298 0)