/*--------------------------------*- C++ -*----------------------------------*\
| =========                 |                                                 |
| \\      /  F ield         | OpenFOAM: The Open Source CFD Toolbox           |
|  \\    /   O peration     | Version:  2.4.0                                 |
|   \\  /    A nd           | Web:      www.OpenFOAM.org                      |
|    \\/     M anipulation  |                                                 |
\*---------------------------------------------------------------------------*/
FoamFile
{
    version     2.0;
    format      ascii;
    class       surfaceScalarField;
    location    "69";
    object      phi;
}
// * * * * * * * * * * * * * * * * * * * * * * * * * * * * * * * * * * * * * //

dimensions      [0 3 -1 0 0 0 0];

internalField   nonuniform List<scalar> 
8640
(
0.000524907
-3.74073e-05
0.000550365
-2.54582e-05
0.000395619
0.000154747
0.000475722
-8.01038e-05
0.000580691
-0.000104968
0.00045424
0.000126451
0.000496967
-4.27272e-05
0.000506782
-9.81475e-06
0.000454032
5.27495e-05
0.000543307
-8.92749e-05
0.000507815
3.54919e-05
0.000459485
4.83305e-05
0.000533224
-7.37392e-05
0.00049745
3.5774e-05
0.000482036
1.54137e-05
0.000554879
-7.28427e-05
0.000499083
5.57963e-05
0.000510038
-1.09551e-05
0.000528108
-1.8071e-05
0.000473591
5.45177e-05
0.00143055
-8.04596e-05
0.0014343
-2.92019e-05
0.00127373
0.000315315
0.00140878
-0.000215158
0.00147877
-0.000174952
0.00133781
0.000267407
0.00140474
-0.00010966
0.00139353
1.39885e-06
0.00136682
7.94558e-05
0.0014583
-0.000180751
0.00140172
9.20705e-05
0.00136876
8.12918e-05
0.0014479
-0.000152877
0.00138886
9.481e-05
0.00141944
-1.51637e-05
0.00145087
-0.000104277
0.00143588
7.07892e-05
0.00139767
2.72573e-05
0.0014418
-6.22004e-05
0.000592324
0.00132306
0.00222804
-0.000121
0.00220951
-1.06738e-05
0.00209674
0.000428088
0.00223627
-0.000354685
0.00227183
-0.000210519
0.00216645
0.00037279
0.00221839
-0.000161603
0.0021937
2.60956e-05
0.00219876
7.4389e-05
0.00226549
-0.000247476
0.00221883
0.000138729
0.0021958
0.000104325
0.00225984
-0.000216918
0.00219453
0.000160114
0.00224958
-7.02073e-05
0.00225206
-0.000106759
0.00224141
8.14368e-05
0.00226385
4.81394e-06
0.00221512
-1.34619e-05
0.000353532
0.00245391
0.00293955
-0.000173052
0.00285956
6.93129e-05
0.00280765
0.000479999
0.0029799
-0.000526932
0.00295467
-0.00018529
0.00290712
0.000420344
0.0029481
-0.000202584
0.0028812
9.29993e-05
0.00292805
2.75328e-05
0.00297493
-0.000294354
0.002921
0.000192654
0.00294125
8.40828e-05
0.00297259
-0.000248262
0.00290671
0.000225996
0.0029753
-0.000138801
0.00296478
-9.62339e-05
0.00292674
0.000119474
0.00304851
-0.000116954
0.00287981
0.000155239
9.40192e-06
0.00322394
0.00358152
-0.000267073
0.00341923
0.000231608
0.0033481
0.000551121
0.00360654
-0.000785367
0.00352059
-9.93363e-05
0.00351226
0.000428668
0.00358931
-0.000279636
0.00345294
0.000229376
0.00351633
-3.58632e-05
0.00357381
-0.000351837
0.00347963
0.000286834
0.00355255
1.11683e-05
0.00357837
-0.00027408
0.00349066
0.000313702
0.00358141
-0.000229554
0.00357129
-8.61119e-05
0.00348396
0.000206809
0.0036877
-0.000320698
0.00344871
0.00039423
-0.000294165
0.00375228
0.00411597
-0.000395547
0.00394079
0.000406796
0.00378285
0.000709052
0.00409113
-0.00109365
0.00397784
1.39587e-05
0.00396334
0.000443162
0.00410229
-0.000418579
0.00393645
0.000395214
0.00398122
-8.06323e-05
0.0040619
-0.000432515
0.00392596
0.000422768
0.00401081
-7.36816e-05
0.00405479
-0.000318053
0.00394936
0.000419132
0.00404992
-0.000330121
0.00405934
-9.55262e-05
0.0039352
0.000330943
0.00416521
-0.000550705
0.00393244
0.000627002
-0.000499927
0.0041382
0.00451585
-0.000523899
0.0043873
0.000535344
0.00417807
0.00091829
0.00447152
-0.00138709
0.00435357
0.00013191
0.00431271
0.000484015
0.00447804
-0.000583912
0.00432771
0.00054555
0.00435398
-0.000106904
0.00444962
-0.000528154
0.00429896
0.000573424
0.00436884
-0.000143564
0.00441936
-0.000368573
0.00431038
0.000528119
0.00440583
-0.000425576
0.00442524
-0.00011494
0.00430356
0.000452629
0.00450674
-0.000753887
0.00433463
0.000799108
-0.000603667
0.00443837
0.00479222
-0.000628619
0.00471762
0.000609943
0.00451902
0.00111689
0.00475507
-0.00162314
0.00464803
0.000238942
0.00459539
0.000536656
0.00474163
-0.00073015
0.00462451
0.000662667
0.00463703
-0.000119422
0.00472956
-0.000620681
0.00459536
0.000707629
0.00464819
-0.000196396
0.00469062
-0.000411003
0.00459295
0.000625789
0.00467413
-0.00050676
0.00468195
-0.000122751
0.00459625
0.00053832
0.00473456
-0.000892195
0.00464714
0.000886534
-0.000624633
0.0046681
0.00495757
-0.000698691
0.004924
0.00064351
0.00478028
0.00126062
0.00493016
-0.00177302
0.00484807
0.000321029
0.00480744
0.000577284
0.00490334
-0.000826052
0.00482934
0.000736671
0.00482991
-0.000119996
0.00489874
-0.00068951
0.00480253
0.000803839
0.00484009
-0.000233954
0.00486509
-0.000436006
0.00479594
0.000694946
0.00485662
-0.000567446
0.00484185
-0.00010798
0.00481122
0.000568948
0.00486257
-0.000943542
0.00485855
0.000890555
-0.000592794
0.00482671
0.00501737
-0.000728557
0.00501358
0.000647296
0.00495059
0.0013236
0.00499335
-0.00181578
0.00494897
0.000365411
0.00493686
0.000589394
0.00496481
-0.000854003
0.00494176
0.000759722
0.00493233
-0.000110566
0.00496251
-0.000719691
0.00491751
0.000848841
0.00493861
-0.000255056
0.00493938
-0.00043678
0.00491322
0.000721109
0.00494525
-0.000599481
0.00491069
-7.3418e-05
0.00493975
0.000539892
0.00490153
-0.000905323
0.00496477
0.000827314
-0.00053318
0.00490516
0.00497368
-0.000714732
0.00499164
0.000629336
0.00502358
0.00129166
0.00495
-0.00174219
0.00495486
0.000360548
0.00497251
0.000571739
0.00492835
-0.000809839
0.0049586
0.00072947
0.00494274
-9.47042e-05
0.00492624
-0.000703189
0.00494092
0.000834155
0.00494159
-0.000255719
0.0049162
-0.000411395
0.00494092
0.000696386
0.00493351
-0.000592071
0.00489295
-3.28537e-05
0.00496749
0.000465347
0.00485857
-0.000796398
0.00497056
0.000715323
-0.000457031
0.00489441
0.00482875
-0.000655982
0.00486694
0.000591149
0.00498949
0.0011691
0.00481293
-0.00156563
0.0048634
0.000310074
0.00490593
0.00052921
0.00479725
-0.000701159
0.00487644
0.000650281
0.00485794
-7.62046e-05
0.00479632
-0.000641566
0.00487012
0.000760356
0.00484802
-0.000233619
0.00480001
-0.00036339
0.00487516
0.000621239
0.00481907
-0.000535982
0.00479168
-5.46314e-06
0.0048857
0.000371327
0.00473517
-0.000645869
0.00487998
0.000570514
-0.000367674
0.00479062
0.00458571
-0.000554194
0.00465329
0.000523566
0.00484124
0.000981151
0.00458551
-0.00130989
0.00467352
0.000222064
0.00472835
0.000474378
0.00457342
-0.000546235
0.00469533
0.000528379
0.0046731
-5.39737e-05
0.00458119
-0.00054966
0.00470408
0.000637466
0.00465663
-0.000186172
0.00459787
-0.00030463
0.0047092
0.000509911
0.0046075
-0.000434284
0.00460657
-4.52995e-06
0.00469444
0.000283459
0.00453605
-0.000487479
0.0046957
0.000410861
-0.00026922
0.00459725
0.00425343
-0.000420119
0.00436524
0.000411747
0.00457366
0.000772736
0.00427175
-0.00100798
0.00438791
0.000105902
0.00443201
0.000430285
0.00426491
-0.000379142
0.00442072
0.000372573
0.00439074
-2.39961e-05
0.00429299
-0.000451908
0.00444311
0.000487348
0.00436862
-0.000111682
0.0043154
-0.000251411
0.00443651
0.000388799
0.00430962
-0.000307397
0.00433819
-3.30958e-05
0.00440309
0.000218562
0.00426643
-0.000350827
0.00441932
0.000257977
-0.000169251
0.00431935
0.00385175
-0.000284366
0.00400953
0.000253969
0.00417712
0.000605146
0.00387719
-0.00070806
0.00400549
-2.2394e-05
0.0040234
0.000412369
0.00389287
-0.000248609
0.00406119
0.000204256
0.0040167
2.04945e-05
0.00393445
-0.000369656
0.004077
0.000344792
0.00398423
-1.89101e-05
0.00395021
-0.000217392
0.00405652
0.000282487
0.00393569
-0.000186567
0.00398378
-8.11783e-05
0.00402136
0.000180979
0.00392018
-0.000249644
0.00404311
0.000135045
-7.85217e-05
0.00395238
0.0033921
-0.000188962
0.00354782
9.82483e-05
0.00364061
0.000512349
0.00340618
-0.000473627
0.00351688
-0.000133095
0.00352582
0.000403427
0.00346106
-0.000183843
0.00359223
7.30785e-05
0.00353743
7.53003e-05
0.0034753
-0.000307533
0.00358148
0.000238613
0.00350187
6.0704e-05
0.00349006
-0.000205582
0.0035692
0.000203351
0.00347814
-9.55128e-05
0.00352122
-0.000124254
0.00353744
0.000164761
0.0034682
-0.000180411
0.00354674
5.65058e-05
-9.38979e-06
0.00347761
0.00283603
-0.000137491
0.00292101
1.32661e-05
0.00299729
0.00043607
0.00285158
-0.000327919
0.00289914
-0.000180656
0.0029406
0.000361967
0.00290861
-0.000151854
0.00296683
1.48634e-05
0.00293631
0.000105821
0.00288105
-0.000252271
0.00295472
0.000164937
0.00292149
9.39369e-05
0.00290783
-0.000191918
0.00296121
0.000149972
0.00290579
-4.00981e-05
0.00291746
-0.000135922
0.00293132
0.000150904
0.0028831
-0.000132191
0.00292081
1.87934e-05
2.85789e-05
0.00288284
0.0021424
-9.23922e-05
0.00216882
-1.31498e-05
0.00229336
0.000311523
0.00217243
-0.000206984
0.00215022
-0.000158445
0.00224615
0.000266033
0.00220004
-0.000105746
0.00221793
-3.02432e-06
0.00223019
9.35619e-05
0.00215855
-0.000180636
0.00222384
9.96529e-05
0.00223199
8.57899e-05
0.0021885
-0.000148434
0.00223603
0.000102441
0.00220648
-1.05501e-05
0.00218101
-0.000110445
0.002215
0.000116908
0.00217183
-8.90169e-05
0.00218598
4.64741e-06
3.86e-05
0.00217596
0.00133443
-3.93232e-05
0.00133839
-1.71119e-05
0.0014991
0.000150814
0.0013721
-7.99872e-05
0.00130883
-9.51687e-05
0.00144634
0.00012852
0.00138272
-4.21214e-05
0.00139167
-1.19767e-05
0.00143003
5.52023e-05
0.00133775
-8.83601e-05
0.00140228
3.51274e-05
0.00143325
5.48222e-05
0.00136155
-7.67381e-05
0.00141775
4.62369e-05
0.00140113
6.07814e-06
0.00135162
-6.09424e-05
0.00140887
5.96656e-05
0.0013587
-3.88483e-05
0.00136563
-2.28401e-06
3.04624e-05
0.00137377
0.000448177
0.000431065
0.000581879
0.000501892
0.000406723
0.000535243
0.000493122
0.000481145
0.000536347
0.000447987
0.000483114
0.000537937
0.000461199
0.000507435
0.000513514
0.000452571
0.000512237
0.000473388
0.000471105
0.000501567
0.0006431
0.000295653
-0.000884235
0.00115005
-0.000542997
3.6043e-05
0.000812552
-5.2609e-05
0.000390111
0.00127198
-0.000349577
-0.000109851
0.00130649
9.53343e-05
-0.000129848
0.00140753
-0.000718653
0.000617619
0.00173878
-0.000221665
-0.00010959
0.00185837
-6.9181e-06
-0.000112673
0.00202967
-0.00172914
0.00155784
0.00218763
-0.000871869
0.000713914
0.0021222
-0.00226767
0.0023331
0.00216999
-0.00043966
0.000391868
0.00244684
8.01908e-05
-0.000357041
0.00277945
0.000127547
-0.000460149
0.00322278
-0.00111252
0.000669182
0.00374282
-0.00439498
0.00387494
0.00441556
-0.00573465
0.00506192
0.00463451
-0.00554184
0.00532289
0.00459498
-0.00415429
0.00419382
0.00448733
-0.00371346
0.00382112
0.0045321
-0.00429799
0.00425322
0.00454403
-0.00541298
0.00540105
0.0043364
-0.00669255
0.00690019
0.00402648
-0.00610052
0.00641044
0.00377218
-0.00344067
0.00369497
0.00341829
-0.000445046
0.000798939
0.00263352
0.00106714
-0.000282373
0.00209966
0.00137447
-0.000840607
0.002119
-0.00334255
0.0033232
0.00251239
-0.00450537
0.00411198
0.00287379
-0.000621998
0.000260608
0.00300722
0.00110405
-0.00123748
0.00324855
0.00721929
-0.00746062
0.00322966
0.0128203
-0.0128015
0.00291237
0.0137825
-0.0134652
0.00267017
0.0105354
-0.0102932
0.00254848
0.00636561
-0.00624392
0.00251032
0.00268275
-0.00264459
0.00257065
-0.00209951
0.00203918
0.00264723
-0.00547416
0.00539758
0.00259012
-0.00589519
0.0059523
0.00250538
-0.00621028
0.00629501
0.00247944
-0.00750937
0.00753532
0.00235321
-0.00845169
0.00857792
0.00229274
-0.00566257
0.00572304
0.00243638
0.00116936
-0.001313
0.00253206
0.00530416
-0.00539984
0.0024015
0.0069256
-0.00679504
0.00238111
0.00748626
-0.00746588
0.00250264
0.00552061
-0.00564214
0.0025626
0.00329842
-0.00335838
0.00270217
-0.00038545
0.000245877
0.00281638
-0.00537575
0.00526153
0.00277332
-0.00775123
0.00779428
0.0026044
-0.00641903
0.00658795
0.00245883
-0.00304442
0.00318999
0.00247755
0.000922381
-0.000941104
0.00253744
0.00379073
-0.00385062
0.0025366
0.00441743
-0.00441658
0.00256808
0.00222402
-0.0022555
0.00262415
-0.00141071
0.00135464
0.00261654
-0.0038708
0.00387841
0.00255801
-0.00412617
0.0041847
0.00256523
-0.00189443
0.00188721
0.00263862
0.00162757
-0.00170095
0.00267112
0.00373572
-0.00376823
0.00262577
0.00360454
-0.00355919
0.0025439
0.00241853
-0.00233666
0.00248167
0.0011581
-0.00109587
0.00246236
4.64412e-05
-2.71272e-05
0.00246719
-0.000774821
0.000769992
0.00246758
-0.00112346
0.00112307
0.00245206
-0.00102603
0.00104155
0.00242215
-0.000696094
0.000726003
0.00238199
-0.00035902
0.000399181
0.00233561
-0.000133215
0.00017959
0.00228733
-2.74082e-05
7.56892e-05
0.00224124
1.11402e-06
4.49752e-05
0.00220041
-3.71975e-06
4.45583e-05
0.0021665
-1.56283e-05
4.95301e-05
0.00213995
-2.40183e-05
5.05759e-05
0.00212021
-2.68996e-05
4.66406e-05
0.00210622
-2.55227e-05
3.95082e-05
0.00209674
-2.17483e-05
3.12249e-05
0.00209058
-1.71055e-05
2.32648e-05
0.00208674
-1.25979e-05
1.64465e-05
0.00208442
-8.75928e-06
1.10754e-05
0.00208307
-5.78037e-06
7.12499e-06
0.00208232
-3.63339e-06
4.38742e-06
0.00208191
-2.18218e-06
2.59109e-06
0.0020817
-1.25485e-06
1.46953e-06
0.00208159
-6.92829e-07
8.02076e-07
0.00208153
-3.67331e-07
4.21251e-07
0.00208151
-1.88196e-07
2.14044e-07
0.0020815
-9.24128e-08
1.04459e-07
0.00208149
-4.44691e-08
4.99023e-08
0.00208149
-2.01123e-08
2.24954e-08
0.00208149
-9.28799e-09
1.03276e-08
0.00208149
-3.91414e-09
4.35904e-09
-1.40625e-09
1.54551e-09
0.00136415
0.000254566
0.00178373
-0.000962575
0.00162787
0.000103255
0.00180029
-0.000522004
0.00204962
-0.000153995
0.00205006
-0.000719085
0.00229547
-0.00046708
0.00260574
-0.000317187
0.00266436
-0.00178777
0.00272964
-0.000937149
0.00278315
-0.00232118
0.00285163
-0.000508144
0.00291447
1.73602e-05
0.0032799
-0.000237888
0.0037424
-0.00157501
0.00412907
-0.00478165
0.00467031
-0.0062759
0.00482234
-0.00569387
0.00468059
-0.00401254
0.00450987
-0.00354275
0.00449967
-0.00428779
0.00439958
-0.00531289
0.00405974
-0.00635271
0.0036843
-0.00572508
0.00342422
-0.00318059
0.00308184
-0.000102666
0.00226345
0.00188553
0.00173513
0.00190279
0.00186223
-0.00346964
0.00229612
-0.00493927
0.00266726
-0.000993142
0.00281465
0.000956667
0.00310878
0.00692516
0.00319834
0.0127308
0.00298964
0.0139912
0.00281133
0.0107137
0.00272429
0.00645265
0.00271126
0.00269578
0.0027571
-0.00214535
0.00278609
-0.00550314
0.0026802
-0.0057893
0.00253743
-0.00606751
0.00245821
-0.00743015
0.00228759
-0.00828107
0.00218209
-0.00555707
0.00232834
0.00102311
0.00246183
0.00517067
0.00237999
0.00700744
0.00241799
0.00744827
0.00255924
0.00537935
0.00262935
0.00322832
0.00278561
-0.000541712
0.00287316
-0.00546329
0.00277123
-0.0076493
0.00256101
-0.00620881
0.00239998
-0.00288338
0.00242074
0.000901622
0.00249402
0.00371744
0.00252066
0.00439079
0.00257056
0.00217411
0.00261247
-0.00145262
0.00257879
-0.00383712
0.00249809
-0.00404547
0.00249031
-0.00188665
0.00256944
0.00154844
0.00262799
0.00367718
0.00261263
0.0036199
0.00255397
0.00247718
0.00250665
0.00120542
0.00249432
5.87795e-05
0.00249797
-0.000778477
0.00249092
-0.00111641
0.00246601
-0.00100112
0.00242856
-0.000658647
0.00238412
-0.000314579
0.00233614
-8.52306e-05
0.00228769
2.10428e-05
0.00224192
4.6879e-05
0.00220142
3.67783e-05
0.00216771
1.80837e-05
0.00214117
2.52139e-06
0.00212131
-7.03664e-06
0.00210711
-1.13252e-05
0.00209738
-1.20208e-05
0.00209098
-1.06993e-05
0.00208691
-8.53405e-06
0.00208443
-6.27263e-06
0.00208296
-4.31046e-06
0.00208212
-2.7936e-06
0.00208165
-1.71758e-06
0.0020814
-1.00627e-06
0.00208128
-5.63482e-07
0.00208121
-3.02574e-07
0.00208118
-1.5611e-07
0.00208116
-7.76158e-08
0.00208116
-3.71973e-08
0.00208115
-1.73018e-08
0.00208115
-7.64956e-09
0.00208115
-3.47142e-09
-1.17816e-09
0.00231071
0.000397766
0.00243335
-0.00108522
0.00252788
8.72423e-06
0.00245161
-0.000445733
0.00282222
-0.000524608
0.00285584
-0.000752707
0.00286785
-0.000479082
0.00324807
-0.000697411
0.00329703
-0.00183672
0.00324868
-0.000888808
0.00331289
-0.00238539
0.00344428
-0.000639533
0.00341514
4.65001e-05
0.00378218
-0.000604927
0.00419998
-0.0019928
0.00443946
-0.00502114
0.00483644
-0.00667288
0.00491107
-0.00576849
0.0046857
-0.00378717
0.00447326
-0.00333032
0.00438675
-0.00420127
0.00415275
-0.0050789
0.00370401
-0.00590397
0.00329508
-0.00531615
0.00304744
-0.00293295
0.00271305
0.000231727
0.0018901
0.00270848
0.00139441
0.00239848
0.00160038
-0.00367561
0.00206263
-0.00540152
0.00242908
-0.0013596
0.00259113
0.00079462
0.00294146
0.00657483
0.0031362
0.012536
0.00304151
0.0140859
0.00293581
0.0108194
0.00288744
0.00650102
0.00290064
0.00268258
0.00292974
-0.00217445
0.00290732
-0.00548073
0.00275383
-0.00563581
0.00255549
-0.00586916
0.0024219
-0.00729657
0.00220887
-0.00806804
0.00206208
-0.00541027
0.00220949
0.000875701
0.00237613
0.00500403
0.00234374
0.00703983
0.00244187
0.00735014
0.0026005
0.00522072
0.00268196
0.00314685
0.0028542
-0.000713949
0.00291089
-0.00551998
0.00274855
-0.00748696
0.00250031
-0.00596057
0.00232848
-0.00271156
0.00235034
0.000879768
0.00243503
0.00363275
0.00248974
0.00433608
0.00255709
0.00210676
0.00258267
-0.00147819
0.00252328
-0.00377773
0.00242244
-0.00394462
0.00240072
-0.00186494
0.0024844
0.00146476
0.00256742
0.00359415
0.0025817
0.00360563
0.00254705
0.00251183
0.00251592
0.00123655
0.00251169
6.30094e-05
0.00251451
-0.000781297
0.00249996
-0.00110186
0.00246563
-0.000966788
0.00242091
-0.000613925
0.00237281
-0.000266483
0.00232423
-3.6649e-05
0.00227699
6.82852e-05
0.00223317
9.06934e-05
0.00219474
7.52145e-05
0.00216287
4.99476e-05
0.00213782
2.75715e-05
0.00211905
1.17336e-05
0.00210558
2.14432e-06
0.00209629
-2.72956e-06
0.00209011
-4.52287e-06
0.00208615
-4.57071e-06
0.00208369
-3.81524e-06
0.00208222
-2.83717e-06
0.00208137
-1.93903e-06
0.00208089
-1.2378e-06
0.00208063
-7.45385e-07
0.00208049
-4.26033e-07
0.00208042
-2.32344e-07
0.00208038
-1.21311e-07
0.00208037
-6.08454e-08
0.00208036
-2.93884e-08
0.00208035
-1.37557e-08
0.00208035
-6.0741e-09
0.00208035
-2.77361e-09
-9.47956e-10
0.00312314
0.000498564
0.00303028
-0.000992359
0.00335495
-0.000315949
0.00311996
-0.000210745
0.0033943
-0.000798943
0.0035397
-0.000898107
0.00343424
-0.000373625
0.00375821
-0.00102138
0.00379951
-0.00187803
0.00371193
-0.000801223
0.00374962
-0.00242308
0.00390818
-0.000798097
0.00386618
8.85013e-05
0.00419717
-0.000935912
0.00453725
-0.00233288
0.00465945
-0.00514334
0.00491052
-0.00692396
0.00489711
-0.00575508
0.00461364
-0.0035037
0.0043725
-0.00308918
0.00418537
-0.00401414
0.00381061
-0.00470414
0.0032885
-0.00538186
0.00288194
-0.00490958
0.00265572
-0.00270674
0.00232804
0.000559406
0.00153058
0.00350594
0.00109062
0.00283844
0.00133535
-0.00392034
0.00180955
-0.00587571
0.00216712
-0.00171717
0.00234249
0.00061925
0.0027479
0.00616942
0.00304431
0.0122396
0.0030664
0.0140638
0.00304006
0.0108458
0.00303462
0.00650646
0.00307423
0.00264296
0.00308502
-0.00218523
0.00300892
-0.00540463
0.00280993
-0.00543682
0.00255943
-0.00561866
0.00237096
-0.0071081
0.00211816
-0.00781524
0.00193414
-0.00522625
0.0020809
0.000728938
0.00227559
0.00480934
0.0022936
0.00702182
0.00245273
0.007191
0.00262651
0.00504695
0.00272165
0.00305171
0.00290819
-0.000900488
0.00292883
-0.00554061
0.00270518
-0.00726331
0.00242274
-0.00567813
0.00224463
-0.00253345
0.00226672
0.00085768
0.00236115
0.00353832
0.00244444
0.00425279
0.00252736
0.00202384
0.00253532
-0.00148615
0.00245085
-0.00369326
0.00233172
-0.00382549
0.0022973
-0.00183052
0.0023844
0.00137765
0.00249032
0.00348824
0.00253363
0.00356232
0.00252346
0.002522
0.00250962
0.00125039
0.00251442
5.82035e-05
0.00251658
-0.00078345
0.00249436
-0.00107964
0.00245064
-0.000923072
0.00239903
-0.000562318
0.00234804
-0.000215488
0.00229995
1.14397e-05
0.00225532
0.000112913
0.00221507
0.000130939
0.00218039
0.000109901
0.00215198
7.83546e-05
0.00212983
4.97195e-05
0.00211331
2.82564e-05
0.00210146
1.39984e-05
0.00209325
5.47936e-06
0.00208775
9.75461e-07
0.00208418
-1.00554e-06
0.00208195
-1.57707e-06
0.00208059
-1.47691e-06
0.00207978
-1.13879e-06
0.00207933
-7.82139e-07
0.00207908
-4.9418e-07
0.00207894
-2.91931e-07
0.00207887
-1.62986e-07
0.00207884
-8.65375e-08
0.00207882
-4.39206e-08
0.00207881
-2.14211e-08
0.00207881
-1.01048e-08
0.00207881
-4.44624e-09
0.00207881
-2.04328e-09
-7.04094e-10
0.00378058
0.000470265
0.00354372
-0.000755499
0.00396508
-0.000737319
0.00371411
4.02279e-05
0.00385585
-0.000940683
0.00406143
-0.00110369
0.00391117
-0.000223361
0.00416381
-0.00127402
0.00419173
-0.00190594
0.00409263
-0.000702126
0.004092
-0.00242245
0.00424813
-0.000954228
0.00422932
0.000107307
0.00448483
-0.00119142
0.00474484
-0.00259289
0.00479428
-0.00519279
0.0048947
-0.00702437
0.00477967
-0.00564004
0.00446325
-0.00318728
0.00419743
-0.00282337
0.00389077
-0.00370748
0.00338847
-0.00420184
0.00283885
-0.00483224
0.00246751
-0.00453824
0.00226295
-0.00250218
0.0019373
0.000885061
0.00119449
0.00424875
0.000828243
0.00320469
0.00107223
-0.00416432
0.00153929
-0.00634277
0.00188959
-0.00206748
0.00207801
0.000430824
0.00252967
0.00571776
0.00292079
0.0118485
0.00306331
0.0139213
0.00312267
0.0107864
0.00316379
0.00646534
0.00322892
0.00257783
0.00321948
-0.00217579
0.00308915
-0.00527431
0.00284778
-0.00519545
0.00254929
-0.00532016
0.00230591
-0.00686473
0.00201654
-0.00752588
0.00179979
-0.0050095
0.00194377
0.000584959
0.00216086
0.00459225
0.00223044
0.00695225
0.00245046
0.00697098
0.00263724
0.00486017
0.00274975
0.00293921
0.00294758
-0.00109832
0.00292614
-0.00551918
0.00264115
-0.00697832
0.00232881
-0.00536579
0.00214867
-0.00235331
0.00217019
0.000836163
0.0022734
0.00343511
0.00238522
0.00414097
0.00248163
0.00192743
0.00247127
-0.0014758
0.00236258
-0.00358458
0.0022269
-0.00368981
0.00218092
-0.00178453
0.00227052
0.00128805
0.00239772
0.00336104
0.00246921
0.00349083
0.00248372
0.00250749
0.00248819
0.00124592
0.00250271
4.3677e-05
0.00250412
-0.000784861
0.00247394
-0.00104945
0.00242094
-0.00087008
0.00236303
-0.000504398
0.00231005
-0.000162508
0.00226366
5.7823e-05
0.00222309
0.000153489
0.00218801
0.000166019
0.00215869
0.000139222
0.00213523
0.000101811
0.00211726
6.76916e-05
0.002104
4.15175e-05
0.00209452
2.34742e-05
0.00208794
1.20587e-05
0.0020835
5.41901e-06
0.00208058
1.91174e-06
0.00207872
2.82009e-07
0.00207757
-3.28595e-07
0.00207689
-4.52081e-07
0.00207649
-3.84871e-07
0.00207627
-2.71887e-07
0.00207615
-1.71627e-07
0.00207608
-9.99986e-08
0.00207605
-5.46065e-08
0.00207604
-2.82319e-08
0.00207603
-1.39691e-08
0.00207602
-6.66048e-09
0.00207602
-2.90329e-09
0.00207602
-1.34762e-09
-4.70497e-10
0.00428176
0.000326704
0.00397512
-0.000448859
0.00438326
-0.00114545
0.00418885
0.000234633
0.00421999
-0.000971817
0.00443965
-0.00132335
0.00428488
-6.85874e-05
0.00445988
-0.00144902
0.00447191
-0.00191797
0.0043842
-0.000614416
0.00434308
-0.00238133
0.00447577
-0.00108692
0.00449081
9.22647e-05
0.00465112
-0.00135173
0.004843
-0.00278478
0.00484406
-0.00519384
0.00478151
-0.00696182
0.0045564
-0.00541493
0.00423252
-0.0028634
0.00393992
-0.00253076
0.0035088
-0.00327636
0.00291341
-0.00360645
0.00238341
-0.00430224
0.0020674
-0.00422223
0.00187726
-0.00231204
0.00155026
0.00121206
0.000886294
0.00491271
0.000606463
0.00348452
0.000815518
-0.00437338
0.00125513
-0.00678238
0.00160424
-0.00241659
0.00180435
0.000230714
0.00228999
0.00523212
0.00276762
0.0113709
0.00303004
0.0136588
0.00317904
0.0106374
0.00327123
0.00637315
0.00336032
0.00248874
0.00332961
-0.00214508
0.00314656
-0.00509125
0.00286704
-0.00491592
0.00252528
-0.0049784
0.00222744
-0.00656689
0.00190518
-0.00720362
0.0016607
-0.00476502
0.00179937
0.000446292
0.00203308
0.00435855
0.00215562
0.0068297
0.00243511
0.00669149
0.00263307
0.00466221
0.00276766
0.00280461
0.00297206
-0.00130272
0.00290199
-0.0054491
0.00255672
-0.00663305
0.00221908
-0.00502814
0.00204064
-0.00217487
0.00206107
0.000815737
0.00217285
0.00332333
0.00231294
0.00400088
0.00242061
0.00181976
0.00239157
-0.00144676
0.00225968
-0.00345268
0.00210892
-0.00353906
0.00205247
-0.00172808
0.00214385
0.00119668
0.00229077
0.00321411
0.00238937
0.00339223
0.00242855
0.00246831
0.00245226
0.00122222
0.00247694
1.89961e-05
0.00247717
-0.00078509
0.00243864
-0.00101092
0.00237665
-0.000808088
0.00231324
-0.00044099
0.0022594
-0.000108673
0.00221606
0.000101167
0.00218102
0.000188527
0.00215265
0.000194384
0.00213018
0.000161697
0.00211296
0.000119028
0.0021002
8.04528e-05
0.00209098
5.07381e-05
0.00208444
3.0013e-05
0.00207988
1.66216e-05
0.00207675
8.54689e-06
0.00207465
4.00928e-06
0.00207328
1.65149e-06
0.00207242
5.38481e-07
0.00207189
7.88369e-08
0.00207157
-7.10286e-08
0.00207139
-9.28737e-08
0.00207129
-7.31159e-08
0.00207124
-4.76816e-08
0.00207122
-2.77635e-08
0.0020712
-1.49137e-08
0.0020712
-7.58872e-09
0.00207119
-3.68681e-09
0.00207119
-1.56512e-09
0.00207119
-7.43047e-10
-2.67237e-10
0.00464243
0.000122652
0.0043321
-0.000138534
0.00465695
-0.00147031
0.00454357
0.000348015
0.00449627
-0.000924512
0.00468789
-0.00151498
0.00456292
5.63873e-05
0.00466673
-0.00155283
0.0046569
-0.00190814
0.00459287
-0.000550391
0.00450918
-0.00229763
0.004605
-0.00118274
0.00465005
4.7214e-05
0.00471405
-0.00141572
0.0048513
-0.00292203
0.00480476
-0.0051473
0.00456822
-0.00672528
0.00423611
-0.00508282
0.00392883
-0.00255613
0.00360401
-0.00220594
0.00305982
-0.00273217
0.00241815
-0.00296479
0.00194369
-0.00382778
0.00168581
-0.00396435
0.00150044
-0.00212666
0.0011741
0.0015384
0.000608066
0.00547874
0.000422061
0.00367052
0.000563694
-0.00451501
0.000955179
-0.00717387
0.00131662
-0.00277803
0.00152851
1.88252e-05
0.00203117
0.00472946
0.00258456
0.0108175
0.00296815
0.0132753
0.00320983
0.0103957
0.00335589
0.0062271
0.00346611
0.00237852
0.00341265
-0.00209162
0.00318036
-0.00485897
0.00286776
-0.00460333
0.00248784
-0.00459847
0.00213628
-0.00621533
0.00178492
-0.00685227
0.00151867
-0.00449877
0.00164903
0.000315931
0.00189305
0.00411454
0.00207028
0.00665246
0.00240645
0.00635532
0.00261443
0.00445423
0.00277649
0.00264255
0.00298089
-0.00150712
0.00285551
-0.00532372
0.00245232
-0.00622986
0.00209408
-0.0046699
0.00192034
-0.00200114
0.00193962
0.000796458
0.00206062
0.00320232
0.00222881
0.0038327
0.00234528
0.00170328
0.00229756
-0.00139904
0.00214351
-0.00329863
0.00197883
-0.00337438
0.00191286
-0.00166211
0.00200552
0.00110402
0.00217071
0.00304892
0.00229511
0.00326782
0.00235888
0.00240454
0.00240273
0.00117837
0.00243761
-1.5886e-05
0.00243579
-0.000783267
0.00238849
-0.000963621
0.00231805
-0.000737646
0.00225031
-0.000373249
0.00219701
-5.53728e-05
0.00215818
0.000139992
0.00213019
0.000216518
0.00210998
0.000214595
0.00209559
0.000176088
0.00208557
0.000129044
0.0020787
8.73289e-05
0.00207395
5.5479e-05
0.00207063
3.3341e-05
0.00206825
1.8999e-05
0.00206654
1.0253e-05
0.00206533
5.21852e-06
0.0020645
2.48611e-06
0.00206394
1.09433e-06
0.00206359
4.34376e-07
0.00206337
1.46947e-07
0.00206324
3.52307e-08
0.00206317
-8.97979e-10
0.00206313
-8.5849e-09
0.00206311
-7.39808e-09
0.0020631
-4.69345e-09
0.00206309
-2.64757e-09
0.00206309
-1.36363e-09
0.00206309
-5.1578e-10
0.00206309
-2.69148e-10
-1.08263e-10
0.00487538
-8.46308e-05
0.00461633
0.000120517
0.00481821
-0.00167218
0.00479031
0.000375916
0.00469806
-0.000832266
0.00482686
-0.00164378
0.00475603
0.000127223
0.00479427
-0.00159107
0.00475617
-0.00187005
0.00472199
-0.000516208
0.00459141
-0.00216705
0.00464717
-0.0012385
0.00470907
-1.46857e-05
0.00469203
-0.00139868
0.00478471
-0.00301471
0.00466634
-0.00502894
0.00425225
-0.0063112
0.00383388
-0.00466445
0.00356145
-0.00228369
0.00319636
-0.00184085
0.00256386
-0.00209967
0.00192838
-0.00232931
0.00153085
-0.00343026
0.00131966
-0.00375315
0.00113137
-0.00193837
0.000814254
0.00185552
0.000361253
0.00593174
0.000267273
0.0037645
0.000306721
-0.00455446
0.000636294
-0.00750344
0.00102773
-0.00316947
0.00125029
-0.000203731
0.00175574
0.00422401
0.0023731
0.0102001
0.00287414
0.0127742
0.0032093
0.0100606
0.00341201
0.00602438
0.00354214
0.00224839
0.00346562
-0.0020151
0.00319016
-0.00458351
0.00285047
-0.00426363
0.00243759
-0.00418559
0.00203322
-0.00581096
0.00165652
-0.00647557
0.00137527
-0.00421753
0.0014942
0.000197011
0.001742
0.00386673
0.00197606
0.00641841
0.00236454
0.00596684
0.00258233
0.00423644
0.00277705
0.00244782
0.00297304
-0.00170311
0.00278595
-0.00513663
0.00232864
-0.00577254
0.00195429
-0.00429556
0.00178722
-0.00183406
0.00180592
0.000777752
0.00193807
0.00307017
0.00213403
0.00363674
0.00225689
0.00158042
0.00219077
-0.00133291
0.00201555
-0.00312341
0.00183775
-0.00319658
0.00176304
-0.0015874
0.00185674
0.00101032
0.00203883
0.00286683
0.00218755
0.0031191
0.00227586
0.00231623
0.00234073
0.0011135
0.00238529
-6.04424e-05
0.00238004
-0.000778018
0.00232359
-0.000907174
0.00224564
-0.000659695
0.00217516
-0.000302768
0.00212411
-4.31938e-06
0.00209143
0.000172671
0.00207195
0.000235991
0.0020611
0.00022545
0.00205564
0.00018155
0.00205329
0.00013139
0.00205248
8.81425e-05
0.00205222
5.57401e-05
0.00205202
3.35345e-05
0.00205174
1.92798e-05
0.00205139
1.06093e-05
0.00205102
5.5875e-06
0.00205069
2.81346e-06
0.00205043
1.35266e-06
0.00205025
6.20207e-07
0.00205012
2.70725e-07
0.00205004
1.12439e-07
0.00205
4.45459e-08
0.00204997
1.67982e-08
0.00204996
6.12533e-09
0.00204995
2.19977e-09
0.00204995
7.23298e-10
0.00204995
2.37912e-10
0.00204995
2.09118e-10
0.00204995
5.6963e-11
4.21095e-13
0.00499111
-0.000249027
0.00482189
0.00028973
0.00488223
-0.00173251
0.00493246
0.000325678
0.00482813
-0.000727937
0.00487271
-0.00168836
0.00486834
0.000131593
0.00484311
-0.00156584
0.00477417
-0.0018011
0.00476712
-0.000509158
0.00459146
-0.0019914
0.00461116
-0.0012582
0.00466974
-7.32671e-05
0.0046032
-0.00133214
0.00464611
-0.00305761
0.00441775
-0.00480058
0.00383856
-0.005732
0.00338029
-0.00420618
0.00313915
-0.00204255
0.00272612
-0.00142782
0.00204744
-0.00142099
0.00146986
-0.00175173
0.00115014
-0.00311053
0.000963225
-0.00356624
0.000771019
-0.00174617
0.000477755
0.00214879
0.000150575
0.00625892
0.000135851
0.00377923
2.59037e-05
-0.00444451
0.000307454
-0.00778499