/*--------------------------------*- C++ -*----------------------------------*\
| =========                 |                                                 |
| \\      /  F ield         | OpenFOAM: The Open Source CFD Toolbox           |
|  \\    /   O peration     | Version:  2.4.0                                 |
|   \\  /    A nd           | Web:      www.OpenFOAM.org                      |
|    \\/     M anipulation  |                                                 |
\*---------------------------------------------------------------------------*/
FoamFile
{
    version     2.0;
    format      ascii;
    class       volScalarField;
    location    "1.31";
    object      k_0;
}
// * * * * * * * * * * * * * * * * * * * * * * * * * * * * * * * * * * * * * //

dimensions      [0 2 -2 0 0 0 0];

internalField   nonuniform List<scalar> 
8800
(
8.10813
10.2833
8.77738
6.84792
5.67567
5.0097
4.48765
4.18756
3.8676
3.71767
3.49136
3.41999
3.2454
3.20767
3.05664
3.03066
2.89947
2.87571
2.82149
2.65387
1.38895
4.3682
5.30711
5.29546
5.10673
4.85772
4.52824
4.33938
4.06665
3.93766
3.71948
3.63929
3.4703
3.41926
3.28903
3.24922
3.14267
3.10711
3.0114
3.00807
0.0832219
0.74838
1.54281
1.96704
2.23997
2.47289
2.54634
2.62206
2.61671
2.60984
2.57831
2.55726
2.51066
2.48441
2.44994
2.41832
2.39024
2.36142
2.30535
2.28796
0.00327673
0.0714189
0.244896
0.436733
0.570796
0.713945
0.828801
0.930083
1.03124
1.0896
1.16928
1.20524
1.26825
1.29124
1.34658
1.36103
1.40367
1.40742
1.42067
1.40879
0.000117635
0.00507635
0.0226549
0.0509568
0.0887772
0.11869
0.167592
0.197477
0.25222
0.277795
0.327754
0.350281
0.396736
0.417497
0.466042
0.487294
0.536036
0.553204
0.594895
0.601376
2.58993e-05
0.000325094
0.00159322
0.00358388
0.00786183
0.0111887
0.0186497
0.0239111
0.0353316
0.0420008
0.0537535
0.0620926
0.074657
0.0812589
0.0943925
0.108808
0.118631
0.134187
0.145988
0.161913
2.28013e-05
4.77307e-05
0.000125882
0.00027052
0.000494513
0.000795859
0.00114149
0.00185697
0.00246532
0.0038586
0.00468523
0.00648364
0.0073968
0.00921245
0.0103938
0.0135181
0.015057
0.0189473
0.0211097
0.026997
2.1198e-05
2.99605e-05
5.179e-05
8.75742e-05
9.29529e-05
0.000104351
0.000119641
0.000169148
0.000197127
0.000289227
0.000334532
0.000491948
0.000537327
0.000671934
0.000721421
0.00100102
0.00108108
0.00150273
0.001753
0.00287152
2.08418e-05
2.98324e-05
3.72805e-05
5.8797e-05
7.94698e-05
8.10511e-05
7.60939e-05
7.58232e-05
7.67922e-05
8.24086e-05
8.87224e-05
0.00010792
0.000113947
0.000116348
0.000114438
0.000122535
0.000127891
0.00015869
0.000170874
0.000233158
2.05266e-05
2.7018e-05
4.99003e-05
5.70348e-05
5.52235e-05
5.9443e-05
7.25973e-05
7.54603e-05
7.46154e-05
7.31203e-05
7.1102e-05
7.11651e-05
7.58802e-05
8.51289e-05
8.56023e-05
8.35635e-05
8.10627e-05
8.12877e-05
8.38148e-05
8.92396e-05
2.06178e-05
3.09124e-05
3.70246e-05
4.89639e-05
6.76374e-05
7.36388e-05
7.19599e-05
6.91085e-05
6.75261e-05
6.8416e-05
7.33225e-05
7.87475e-05
8.01798e-05
8.01774e-05
7.98138e-05
7.91438e-05
7.90534e-05
8.33405e-05
8.84565e-05
9.39783e-05
2.07263e-05
2.908e-05
3.88015e-05
6.11751e-05
6.66789e-05
7.11405e-05
7.25951e-05
7.72926e-05
8.00898e-05
8.69759e-05
9.09678e-05
9.44336e-05
9.61377e-05
0.0001021
0.000104989
0.000110563
0.000127844
0.000167574
0.000182922
0.000209088
2.10269e-05
3.00169e-05
4.43082e-05
7.90126e-05
9.78236e-05
0.000117977
0.00013423
0.00017849
0.000206004
0.000274249
0.000321307
0.000431299
0.000499778
0.000687878
0.000786177
0.0010112
0.00118852
0.00161891
0.00189471
0.00256281
2.16319e-05
4.30596e-05
0.000118478
0.000375897
0.000547438
0.000912097
0.00122425
0.00201707
0.00252917
0.00382296
0.00465066
0.00648081
0.00743128
0.00985782
0.0110956
0.0139713
0.0158696
0.0204924
0.0232051
0.0299861
2.50029e-05
0.000302609
0.00143264
0.00497239
0.00763331
0.0129274
0.0170813
0.0268644
0.032284
0.0445642
0.051221
0.0651326
0.0715678
0.08717
0.0944865
0.111632
0.121307
0.144667
0.156858
0.190488
0.000124363
0.00488665
0.021648
0.0578931
0.0877818
0.12338
0.157608
0.211805
0.237296
0.288065
0.315913
0.363094
0.384245
0.43388
0.455427
0.505252
0.529694
0.589788
0.617418
0.689576
0.0033757
0.0692306
0.256977
0.424626
0.586169
0.696548
0.836525
0.934993
1.01762
1.09557
1.16314
1.21499
1.25108
1.31107
1.33419
1.38195
1.40263
1.45493
1.47512
1.52481
0.0846076
0.725366
1.56654
1.94294
2.28209
2.42539
2.5839
2.59727
2.62434
2.59819
2.58906
2.53983
2.52364
2.47549
2.46182
2.4188
2.40885
2.38169
2.37037
2.3429
1.40598
4.34638
5.32314
5.28679
5.13243
4.79704
4.58832
4.27252
4.1332
3.8685
3.77734
3.57828
3.5219
3.36469
3.32965
3.20211
3.17181
3.05268
3.01454
2.91345
8.11829
10.2599
8.79986
6.81129
5.71538
4.95994
4.5386
4.12735
3.92993
3.6484
3.55361
3.34765
3.30445
3.13223
3.10359
2.94248
2.91033
2.73158
2.66953
2.45462
1.86671
1.37891
1.1101
0.944802
0.83387
0.766386
0.717952
0.690811
0.664952
0.650462
0.629244
0.618105
0.598615
0.590142
0.575454
0.569069
0.557239
0.548194
0.53429
0.521225
0.504749
0.490107
0.47459
0.460918
0.450465
0.440847
0.435753
0.42922
0.427008
0.422224
0.420847
0.417193
0.415894
0.412404
0.411419
0.408913
0.408629
0.408053
0.409303
0.409964
0.412105
0.413439
0.416522
0.418256
0.420641
0.422176
0.422669
0.423147
0.421737
0.419835
0.412789
0.406231
0.39437
0.378357
0.366881
0.349831
0.336617
0.320552
0.309354
0.291355
0.279193
0.266853
0.258455
0.255877
0.256929
0.262056
0.267199
0.281586
0.28966
0.309172
0.316955
0.333939
0.339555
0.349978
0.353714
0.359124
0.361
0.361099
0.360565
0.36008
0.359075
0.3585
0.356686
0.35398
0.349318
0.342233
0.333313
0.316323
0.305459
0.288706
0.283715
0.28003
0.278768
0.277477
0.275644
0.272298
0.274318
0.274093
0.276759
0.284385
0.286474
0.295264
0.30059
0.304758
0.313478
0.314242
0.314487
0.315676
0.312747
0.310959
0.304796
0.300041
0.287687
0.280693
0.26352
0.254447
0.235627
0.224565
0.20118
0.189315
0.164937
0.148425
0.125368
0.104288
0.0810904
0.0626569
0.0467015
0.034657
0.0253961
0.0181507
0.0129799
0.00943663
0.00665291
0.00519583
0.00388134
0.00329745
0.00271583
0.00264092
0.00250298
0.00240699
0.00238427
0.00239498
0.00249214
0.00280012
0.00364526
0.00565368
0.010567
0.0217238
0.04474
0.0989519
0.143413
0.162414
0.16276
0.157997
0.149365
0.13983
0.127139
0.118698
0.113207
0.10501
0.0986721
0.0970237
0.0973779
0.0983747
0.101669
0.10261
0.102399
0.101106
0.0953835
0.0791488
0.0549148
0.0448014
0.0439531
0.0449113
0.0497906
0.0676618
0.0882158
0.100262
0.104871
0.103152
0.092709
0.0871488
0.0791409
0.0728923
0.059715
0.0612458
0.0620865
0.0504358
0.0373053
0.0288657
0.0384335
0.0396097
0.056661
0.0738031
0.0810261
0.0951499
0.103434
0.121579
0.208894
0.832582
2.57291
2.12204
1.77623
1.53204
1.34677
1.21393
1.10716
1.03174
0.966145
0.918821
0.873001
0.839794
0.806432
0.781707
0.757059
0.738216
0.721016
0.705456
0.692467
0.67799
0.667449
0.652547
0.643628
0.629198
0.621613
0.608293
0.601538
0.589977
0.584399
0.574401
0.569749
0.561911
0.55698
0.550986
0.54477
0.540117
0.532761
0.52874
0.52155
0.518027
0.511741
0.508182
0.503338
0.500005
0.496589
0.494472
0.492296
0.491136
0.49029
0.490104
0.489973
0.489627
0.488555
0.484813
0.480776
0.472964
0.464006
0.454315
0.445284
0.432904
0.425465
0.412693
0.407989
0.399738
0.394804
0.394304
0.392174
0.392767
0.392047
0.39238
0.392093
0.391952
0.391874
0.390573
0.389913
0.388332
0.387063
0.385396
0.382457
0.381637
0.381546
0.380826
0.38277
0.382192
0.385925
0.385016
0.387867
0.386682
0.385961
0.384041
0.375922
0.369895
0.361203
0.347855
0.34397
0.334042
0.331002
0.32813
0.324142
0.324018
0.325178
0.322927
0.324697
0.321014
0.32089
0.315632
0.312441
0.302587
0.296483
0.28093
0.272115
0.254011
0.239457
0.218872
0.201643
0.179423
0.16132
0.137131
0.11638
0.0963779
0.0765831
0.0592509
0.0455396
0.0346344
0.0262804
0.0196878
0.0148953
0.0109606
0.00857256
0.00622305
0.00497122
0.00386057
0.00310264
0.00271235
0.00235429
0.00219789
0.00214569
0.00222823
0.00222141
0.00225849
0.00232889
0.00257382
0.00318202
0.00446438
0.007188
0.0132568
0.0284118
0.0589282
0.131603
0.174816
0.181608
0.178357
0.169744
0.154586
0.137591
0.124473
0.116725
0.110842
0.105427
0.0980222
0.0919972
0.0862997
0.0828746
0.0826057
0.0842577
0.0889696
0.0965539
0.100466
0.100045
0.0958516
0.0827753
0.0578154
0.0476691
0.0459092
0.0467964
0.0505944
0.0606723
0.0738564
0.0811124
0.0812402
0.0779488
0.077183
0.0732047
0.0622028
0.0636283
0.0614339
0.0682272
0.0538626
0.0343348
0.028985
0.0309502
0.057171
0.0584279
0.0719347
0.0771525
0.0885924
0.130113
0.13591
0.284959
0.531633
2.07646
1.8516
1.63946
1.46662
1.32129
1.20735
1.11401
1.04051
0.978613
0.926853
0.881248
0.840813
0.805862
0.773166
0.747773
0.721366
0.70394
0.683208
0.670115
0.652665
0.641276
0.627178
0.614778
0.605359
0.592039
0.586024
0.57367
0.568301
0.557537
0.5529
0.543164
0.53877
0.530058
0.526039
0.518383
0.514299
0.507026
0.502516
0.496757
0.489663
0.48603
0.477804
0.474055
0.466114
0.463091
0.45587
0.453658
0.448128
0.44716
0.444626
0.44503
0.445483
0.447018
0.448248
0.451025
0.451092
0.451469
0.449333
0.448446
0.443846
0.441426
0.43546
0.431574
0.426254
0.419802
0.416277
0.410544
0.403754
0.400243
0.391081
0.386759
0.376632
0.371886
0.360958
0.355233
0.345167
0.337755
0.33126
0.324075
0.318968
0.314536
0.312972
0.313704
0.315164
0.318763
0.325609
0.329131
0.341415
0.345746
0.35638
0.358142
0.360737
0.360467
0.358645
0.356002
0.352024
0.347402
0.341385
0.33921
0.330857
0.328553
0.317682
0.313904
0.301965
0.29472
0.276431
0.266037
0.244544
0.231599
0.208245
0.190146
0.164104
0.143248
0.118672
0.0990458
0.0776342
0.0613504
0.0476549
0.0373628
0.0291592
0.0224967
0.0175014
0.0133543
0.0102621
0.00789363
0.00606479
0.00483417
0.00383682
0.00328997
0.00259271
0.00240754
0.00200767
0.00193927
0.0018278
0.00181343
0.00184693
0.00198852
0.00210103
0.00220447
0.00247501
0.00294271
0.00418913
0.00613809
0.00961913
0.0168408
0.0346779
0.0789589
0.161971
0.202408
0.201366
0.192125
0.178638
0.149201
0.131367
0.123096
0.117853
0.114791
0.111887
0.106866
0.10048
0.0948589
0.0887279
0.0840565
0.0800112
0.0788139
0.0790847
0.0813406
0.0921794
0.0979227
0.0976021
0.0941563
0.0822798
0.0587527
0.0494015
0.0479862
0.0489205
0.0515932
0.0630663
0.064546
0.0705601
0.0708169
0.0688907
0.0649768
0.0635445
0.0677596
0.0763853
0.0700931
0.0587586
0.0368138
0.0357681
0.0327274
0.0438324
0.0657978
0.0723908
0.147202
0.12807
0.273983
0.213978
0.278841
0.415565
1.32015
1.22691
1.13594
1.04765
0.972435
0.899889
0.842656
0.79085
0.750712
0.714353
0.685794
0.654611
0.630393
0.602328
0.580474
0.557298
0.540143
0.523259
0.509912
0.499111
0.485261
0.47857
0.463792
0.456938
0.443861
0.437319
0.4261
0.420521
0.411731
0.406373
0.400097
0.392703
0.388522
0.380229
0.375426
0.368486
0.363676
0.357111
0.352793
0.347355
0.342557
0.338115
0.332621
0.328762
0.322503
0.319573
0.313813
0.31175
0.307801
0.306822
0.305447
0.305927
0.307032
0.309987
0.312606
0.31813
0.322396
0.329196
0.333462
0.338081
0.341617
0.342162
0.341357
0.339817
0.33464
0.330592
0.323611
0.313594
0.308389
0.295084
0.287606
0.274212
0.263958
0.253912
0.239119
0.231979
0.219142
0.210203
0.20185
0.194706
0.189358
0.183696
0.181304
0.181855
0.182655
0.187894
0.191426
0.201815
0.20823
0.219804
0.231434
0.240919
0.24901
0.258563
0.263738
0.265271
0.264825
0.261732
0.258386
0.249194
0.24173
0.23232
0.215671
0.203607
0.186194
0.168736
0.148195
0.128892
0.108476
0.088633
0.071578
0.0566939
0.04527
0.0354807
0.0277842
0.0217507
0.0167907
0.0131493
0.0101609
0.00806539
0.00623203
0.00514345
0.00394947
0.00334292
0.0027072
0.0023463
0.00201808
0.00186571
0.0016538
0.00157595
0.00151968
0.0014804
0.00156167
0.00158916
0.00166351
0.00185024
0.00219351
0.00248191
0.00318546
0.00421135
0.00566038
0.00930412
0.0134348
0.0216936
0.0407389
0.0941567
0.192425
0.226889
0.224078
0.207299
0.179156
0.142587
0.124718
0.120135
0.117536
0.117547
0.120223
0.121908
0.121796
0.120496
0.115823
0.105944
0.0956895
0.0862939
0.0805302
0.0787316
0.0786906
0.0802203
0.0892954
0.0956042
0.0956254
0.0927393
0.0777386
0.0587621
0.0511399
0.0507543
0.0522436
0.0550186
0.0624371
0.0638693
0.0689362
0.0676594
0.0701542
0.0740676
0.0730907
0.0739444
0.0557942
0.041203
0.0398743
0.0382479
0.0864579
0.0713243
0.153632
0.127391
0.194792
0.177824
0.225968
0.23941
0.259955
0.35828
0.580474
0.555943
0.534041
0.502106
0.480435
0.450338
0.428079
0.405116
0.388218
0.372109
0.362491
0.350046
0.341469
0.330387
0.31887
0.306893
0.295818
0.284424
0.27549
0.269183
0.26175
0.258774
0.253323
0.249846
0.243603
0.238321
0.230859
0.226139
0.219095
0.21621
0.210683
0.208481
0.203991
0.201783
0.196576
0.193871
0.187658
0.184517
0.17864
0.175565
0.170178
0.167894
0.162988
0.161057
0.156718
0.154954
0.151228
0.149806
0.147638
0.146392
0.146211
0.146426
0.147353
0.148826
0.150298
0.154425
0.156427
0.160766
0.162575
0.16677
0.168003
0.170224
0.170235
0.169988
0.168981
0.165936
0.163155
0.157248
0.152621
0.145284
0.136157
0.130069
0.11925
0.11212
0.10327
0.0946617
0.0885493
0.0813864
0.0764456
0.0720832
0.0691234
0.0671208
0.0647174
0.0644295
0.0644858
0.0656376
0.0672948
0.0698966
0.0762772
0.0795903
0.0872595
0.0939913
0.098749
0.105473
0.109051
0.111829
0.111814
0.110973
0.107816
0.104714
0.0955395
0.0902288
0.0789732
0.0710773
0.060767
0.051961
0.0432247
0.0355438
0.0287025
0.0228482
0.0181477
0.0141209
0.0111794
0.0086968
0.00686659
0.00542672
0.00432255
0.00346798
0.00286513
0.00234798
0.00201338
0.00178234
0.00153716
0.00147775
0.00136174
0.00134098
0.00131254
0.00130048
0.00129469
0.00133357
0.00134569
0.00141891
0.00155875
0.0017246
0.00223206
0.00277729
0.00361283
0.00466437
0.00696052
0.00888495
0.0131784
0.0194267
0.0276198
0.0474694
0.100449
0.221817
0.253179
0.247687
0.22637
0.176368
0.149174
0.125736
0.1187
0.116269
0.115461
0.118338
0.124903
0.128248
0.129745
0.129326
0.127335
0.120644
0.115625
0.104431
0.090278
0.0816487
0.0797035
0.0804289
0.0826627
0.0908593
0.0944347
0.0953832
0.0915575
0.0780069
0.0589055
0.0536163
0.0562115
0.0566567
0.0630538
0.064818
0.0642036
0.0676695
0.0679161
0.0739219
0.0891776
0.0814629
0.0911265
0.0693045
0.0935228
0.075644
0.121466
0.10641
0.140602
0.136863
0.155842
0.176207
0.187872
0.226077
0.236424
0.291636
0.158831
0.154862
0.150573
0.143516
0.138921
0.133393
0.127363
0.123104
0.118312
0.115276
0.112781
0.111484
0.10958
0.10858
0.106129
0.103787
0.0998972
0.096306
0.0925492
0.0897441
0.0870477
0.0859631
0.0850079
0.0841265
0.0837851
0.0823637
0.0810979
0.0780226
0.0760323
0.0733934
0.0719399
0.0701601
0.0693739
0.0681971
0.0675589
0.0661613
0.0653156
0.0626528
0.0612883
0.0585727
0.0572724
0.0552543
0.0532564
0.052404
0.050693
0.0498306
0.0489121
0.0478511
0.0475484
0.0467146
0.0467497
0.0466535
0.0471467
0.0474806
0.0484278
0.0495942
0.0504447
0.0527432
0.0536883
0.055311
0.0562137
0.0569429
0.0569144
0.0565705
0.0559387
0.0542963
0.0530618
0.0505603
0.0478587
0.0460868
0.0419111
0.0399625
0.0362815
0.0334235
0.0311407
0.0278073
0.0260941
0.0236556
0.0218742
0.020559
0.0191362
0.0186299
0.018259
0.0177174
0.017565
0.0175744
0.0177752
0.018091
0.0190434
0.0198216
0.0214687
0.0232281
0.0247651
0.0268067
0.0280357
0.0283187
0.0282033
0.0276898
0.0262812
0.024875
0.0225901
0.0205244
0.0181
0.0157159
0.013495
0.0113243
0.00945657
0.00769405
0.00626448
0.0049742
0.00403593
0.00314475
0.00263818
0.00206643
0.0017906
0.00148945
0.00132482
0.00117647
0.00110588
0.00103439
0.00102231
0.0010229
0.00105186
0.00107207
0.00111204
0.00118215
0.00123558
0.00129584
0.00145938
0.00161906
0.0018008
0.00226385
0.00263333
0.00330785
0.00485119
0.00586716
0.00731038
0.01112
0.0138518
0.0178041
0.0275346
0.0358378
0.0546343
0.107068
0.244755
0.284464
0.272667
0.246982
0.191767
0.163387
0.138744
0.121319
0.118436
0.114767
0.11575
0.122032
0.127539
0.131445
0.131698
0.130863
0.128967
0.124185
0.121611
0.115919
0.106374
0.08964
0.083937
0.0827908
0.0833633
0.0872822
0.0928821
0.0960787
0.0954137
0.0890695
0.0753363
0.0600483
0.0611071
0.060897
0.0607486
0.0688596
0.0676339
0.0729845
0.074119
0.0765579
0.0811623
0.0759963
0.0734905
0.063557
0.0636133
0.0668582
0.0866768
0.10129
0.110251
0.12908
0.145826
0.166374
0.178276
0.213209
0.227408
0.250703
0.0266573
0.0260412
0.0249271
0.0239161
0.0232208
0.0226243
0.0220117
0.0215153
0.020999
0.0207085
0.0206264
0.0206225
0.0206388
0.0206868
0.0206626
0.0206107
0.0203213
0.0195983
0.0187805
0.0180687
0.0175163
0.0173282
0.0172884
0.0173343
0.017663
0.0177319
0.017796
0.0176699
0.0170814
0.0164846
0.0158786
0.015605
0.0153449
0.0152739
0.0152002
0.0151483
0.0151166
0.014828
0.0145221
0.0137973
0.0133086
0.0128261
0.0122917
0.0121107
0.0117156
0.0115701
0.0113813
0.0113366
0.0112713
0.011236
0.0112921
0.0113306
0.0115078
0.0116583
0.0118301
0.0123138
0.0125193
0.013065
0.0135266
0.014068
0.0145039
0.0146074
0.0145901
0.0144002
0.0141546
0.0136211
0.013056
0.0125987
0.0117937
0.0113191
0.0104229
0.00975102
0.00895122
0.00812717
0.00754111
0.00679879
0.00628952
0.00576755
0.00525449
0.00489102
0.00455298
0.00437811
0.00431611
0.00426767
0.00417134
0.00411632
0.00412289
0.00414742
0.00424774
0.00435795
0.00454018
0.00496017
0.00533523
0.00582356
0.00607358
0.00609021
0.00604816
0.00595179
0.00563162
0.00525364
0.00465276
0.00416532
0.0036103
0.00314708
0.00269246
0.00229658
0.00192371
0.00161586
0.00134123
0.00115194
0.000980269
0.000888215
0.000804696
0.000791634
0.000783172
0.000783762
0.000790859
0.000805234
0.000842324
0.000901503
0.000944185
0.00104047
0.00116468
0.00127487
0.00152259
0.00182013
0.00206877
0.00254245
0.00314355
0.00351992
0.00432941
0.00517716
0.00596985
0.00822044
0.0101844
0.0120184
0.0166692
0.0216454
0.025728
0.0368702
0.0469668
0.0639103
0.112835
0.263847
0.31734
0.302766
0.26115
0.219409
0.183235
0.161977
0.134447
0.130088
0.12923
0.128602
0.136432
0.13622
0.137812
0.142203
0.140241
0.135097
0.132712
0.131142
0.126903
0.122353
0.111055
0.0959832
0.0940869
0.090403
0.0870182
0.0879493
0.0930438
0.0964134
0.10063
0.0980857
0.0872582
0.0758529
0.065616
0.071636
0.0659416
0.0736753
0.071353
0.0718189
0.0703763
0.0712282
0.0698084
0.0663308
0.0532777
0.0522617
0.0495394
0.0562466
0.0632321
0.0954789
0.100776
0.112032
0.124985
0.15757
0.170099
0.196732
0.216379
0.230046
0.00290176
0.002869
0.00278581
0.00268058
0.00260943
0.00257569
0.00252128
0.00248728
0.00246529
0.0024556
0.00245442
0.00246156
0.00247827
0.00249652
0.00249909
0.00250223
0.00250379
0.00248552
0.00239807
0.00230727
0.00222768
0.00219135
0.00218263
0.00218911
0.00226913
0.00230486
0.00234086
0.00233741
0.00229522
0.00220064
0.00212693
0.00209092
0.00207356
0.00208378
0.00210321
0.00211384
0.00212321
0.0020977
0.00206049
0.00195257
0.0018857
0.00182019
0.00176749
0.00174465
0.00171283
0.00171113
0.00170955
0.00171261
0.00173068
0.00174137
0.00177871
0.00179341
0.00182488
0.00187454
0.00189798
0.00199205
0.00204574
0.00218323
0.00226794
0.00242469
0.00257841
0.00259929
0.00260722
0.00257058
0.00251466
0.0024372
0.0023219
0.00225253
0.00212146
0.00199992
0.00184475
0.00167993
0.00153994
0.00139421
0.00128978
0.00119761
0.00110734
0.00103517
0.000949179
0.000873752
0.000820359
0.000780948
0.000770578
0.000764111
0.000750621
0.000747189
0.000748343
0.000754332
0.00076873
0.000784893
0.000815301
0.000896797
0.000961503
0.00103557
0.00105817
0.00107185
0.00106068
0.00104203
0.000971067
0.000899565
0.000819335
0.000737571
0.000658679
0.000612891
0.000556244
0.000520655
0.000507947
0.000509904
0.000515058
0.000528277
0.000564515
0.000610054
0.000658744
0.00076881
0.00083958
0.00100285
0.00111127
0.00126675
0.00154161
0.00172418
0.00199812
0.00243218
0.0027228
0.00326255
0.00400682
0.00455743
0.00547967
0.00673422
0.00740037
0.00849412
0.0102448
0.0113881
0.0139032
0.0175828
0.0201493
0.0255887
0.0339653
0.0389498
0.0505025
0.066186
0.080766
0.121001
0.278284
0.348934
0.335615
0.277808
0.246974
0.213538
0.198439
0.165137
0.151331
0.153148
0.148749
0.151344
0.154308
0.153306
0.159218
0.15684
0.152521
0.145185
0.14114
0.13908
0.134433
0.132786
0.118942
0.108352
0.0997756
0.0979625
0.0938379
0.0915919
0.0943204
0.0977437
0.106265
0.105707
0.0928172
0.0892629
0.0751165
0.079135
0.0736121
0.0739476
0.076943
0.073597
0.0699443
0.0675322
0.0612377
0.0589108
0.0460162
0.0445496
0.041065
0.0449307
0.0529818
0.08144
0.0886656
0.107074
0.121422
0.151247
0.170429
0.185367
0.219766
0.233183
0.000233617
0.000235014
0.000238479
0.000238099
0.000236613
0.000234794
0.000232595
0.000232207
0.000231725
0.000231808
0.000232088
0.00023304
0.000236218
0.000243381
0.000249344
0.000252369
0.000254974
0.000254958
0.000251364
0.000242958
0.000234873
0.000229748
0.000227351
0.000226832
0.000229277
0.000233236
0.000236115
0.00023704
0.000235825
0.000233443
0.00022893
0.000229139
0.0002287
0.00023284
0.000235804
0.00024005
0.000240264
0.000239669
0.000233582
0.000227857
0.000220994
0.000218662
0.000215699
0.00021538
0.000214875
0.000214816
0.000214439
0.000213687
0.00021383
0.00021391
0.000216452
0.000217011
0.000220705
0.000224169
0.000227523
0.000238277
0.000245723
0.000261602
0.00028018
0.000298477
0.000317626
0.000319541
0.000318043
0.000314713
0.0003046
0.000299969
0.000292106
0.00028335
0.000277273
0.000263316
0.000251487
0.000239643
0.000226924
0.000218742
0.000210995
0.000203157
0.000198023
0.00019167
0.000187122
0.000185951
0.000185199
0.000185721
0.000185848
0.000186486
0.000187315
0.000188015
0.000188462
0.000189236
0.000189926
0.000191982
0.00019435
0.000197924
0.000206925
0.000213521
0.000218567
0.00023021
0.000238196
0.000244827
0.000256756
0.000261992
0.000274212
0.000284955
0.000300117
0.000332031
0.00035913
0.000420585
0.000477441
0.000592497
0.000746215
0.000877144
0.00123697
0.00145328
0.00186302
0.00225533
0.0026221
0.00325525
0.00358456
0.00426321
0.00477695
0.0052977
0.00633203
0.00696111
0.00782705
0.00932901
0.0103842
0.0116853
0.0138609
0.0152256
0.0163184
0.0193314
0.0214336
0.0244706
0.03116
0.0349112
0.0411532
0.0547351
0.0611365
0.0726358
0.0959591
0.109222
0.141411
0.284998
0.381975
0.371915
0.298096
0.262795
0.248978
0.238352
0.207603
0.166557
0.159095
0.156326
0.15027
0.156131
0.153905
0.159457
0.164388
0.157465
0.158799
0.156882
0.15497
0.147926
0.142104
0.134403
0.121169
0.121734
0.114145
0.112399
0.102732
0.0970992
0.0974786
0.103464
0.110531
0.116366
0.100238
0.0993824
0.0856261
0.0826145
0.089606
0.078002
0.0801045
0.074846
0.066792
0.0641843
0.0579026
0.0529636
0.0397661
0.0364754
0.034422
0.0376959
0.0510696
0.0759222
0.0877548
0.127389
0.139806
0.148789
0.178666
0.194838
0.244817
0.311244
9.07676e-05
9.24195e-05
9.60479e-05
0.000100617
0.000101297
0.000101178
0.000101086
0.000101436
0.000101512
0.000101403
0.000101218
0.000101158
0.000101668
0.000102271
0.000103663
0.000104254
0.000105102
0.000105399
0.000105453
0.000105273
0.000104543
0.000103654
0.000102835
0.00010203
0.000101218
0.000100627
0.000100058
9.98122e-05
9.96859e-05
9.97038e-05
0.000100052
0.000100324
0.000100623
0.000100765
0.000101683
0.000102882
0.000105113
0.000106466
0.000107934
0.000108842
0.000109608
0.000109853
0.000110004
0.000109869
0.000109608
0.000109229
0.000108691
0.000108615
0.000108201
0.00010806
0.000107547
0.000106981
0.000106766
0.000106989
0.000107364
0.000108526
0.000109355
0.00011086
0.00011327
0.000115221
0.000116677
0.000116756
0.000116355
0.000116314
0.000116315
0.000116541
0.000117407
0.000118759
0.000120894
0.000124418
0.000126844
0.00013199
0.000134932
0.0001404
0.000146728
0.0001517
0.000159481
0.000163911
0.000172949
0.00018248
0.000192455
0.000201454
0.000206449
0.00020803
0.000208592
0.000209242
0.000213929
0.000218174
0.000222295
0.00022358
0.000224789
0.000225225
0.000227039
0.000234226
0.000243742
0.000269899
0.000302643
0.000335004
0.000405177
0.000450708
0.000560668
0.000651989
0.000790158
0.00102157
0.00118434
0.00161417
0.00193307
0.00253101
0.003168
0.00380236
0.00500229
0.00563228
0.00703793
0.00785771
0.00929586
0.0104218
0.0113594
0.0131391
0.0140307
0.0156541
0.0172074
0.0185312
0.0211841
0.022989
0.0251984
0.0276034
0.0306492
0.0325162
0.0363743
0.0414225
0.0454274
0.0558898
0.0633048
0.0707753
0.0901756
0.101188
0.111969
0.142871
0.157932
0.180994
0.295862
0.418544
0.412973
0.316454
0.274401
0.285867
0.282604
0.247048
0.174233
0.149206
0.143716
0.137076
0.138711
0.142428
0.147144
0.163321
0.155908
0.158749
0.163265
0.15752
0.152434
0.147852
0.14504
0.132199
0.125868
0.123696
0.123174
0.119552
0.105336
0.100269
0.103631
0.109989
0.115946
0.128131
0.108303
0.105344
0.107484
0.0938054
0.102389
0.09173
0.0723224
0.0691426
0.055782
0.0571586
0.0475625
0.0458902
0.0366702
0.0341693
0.0336026
0.0379208
0.0492194
0.0868565
0.107486
0.129392
0.1492
0.154799
0.185413
0.214775
0.270166
0.336655
9.42511e-05
9.48581e-05
9.64666e-05
0.000100137
0.000101326
0.000101366
0.00010126
0.00010136
0.000101637
0.000102098
0.000104217
0.000106114
0.000108477
0.000110053
0.000111013
0.000111476
0.000111806
0.000112838
0.000116313
0.000119908
0.000123697
0.000126229
0.00012758
0.000127794
0.000127842
0.000127547
0.000127597
0.000127617
0.000128006
0.000130039
0.000135913
0.000140474
0.000146943
0.00015112
0.000154184
0.000161775
0.000168566
0.000177336
0.000185492
0.000190426
0.000192956
0.000193238
0.000192589
0.000191557
0.000191645
0.000196005
0.000201934
0.000204858
0.000204604
0.000203756
0.000198991
0.000192365
0.000189287
0.000189051
0.000194328
0.000203075
0.000210597
0.000214933
0.000218092
0.000218886
0.00021846
0.00021917
0.000220319
0.000222883
0.000229542
0.000234795
0.000249937
0.000261979
0.00028302
0.000304355
0.000332942
0.000372043
0.000414294
0.00045935
0.000508004
0.000554619
0.000601076
0.000635663
0.000676359
0.000728663
0.000772264
0.000823186
0.000852146
0.000879054
0.000892281
0.000907654
0.000927578
0.000937583
0.000959417
0.000972388
0.000987688
0.00100786
0.00103667
0.00111755
0.00117702
0.00131192
0.00145241
0.00164736
0.00192145
0.00211887
0.00264984
0.00306471
0.00369417
0.00467536
0.00533855
0.00712692
0.00824518
0.0103287
0.0121315
0.0143505
0.0172864
0.0189529
0.022709
0.0246729
0.0277758
0.030059
0.0329436
0.035915
0.0374498
0.0413575
0.0437756
0.0469236
0.0508261
0.052919
0.0578151
0.0612325
0.0656634
0.0714788
0.0812038
0.0876135
0.100005
0.114028
0.123902
0.147644
0.16562
0.177729
0.215401
0.231525
0.243479
0.305338
0.450172
0.457973
0.339398
0.266644
0.288012
0.32558
0.29485
0.20341
0.151803
0.135216
0.131091
0.130896
0.132831
0.139212
0.147963
0.15186
0.148907
0.16752
0.161387
0.149371
0.160015
0.149315
0.136623
0.127984
0.13342
0.125262
0.126802
0.11849
0.113446
0.106392
0.108313
0.117952
0.122468
0.129883
0.127773
0.110544
0.125671
0.105209
0.0931597
0.0884699
0.067322
0.0605518
0.0450474
0.0444771
0.0401647
0.0480741
0.0418749
0.0374111
0.0363689
0.0412431
0.0567898
0.089085
0.110521
0.124609
0.159611
0.168469
0.197459
0.272722
0.300671
0.296552
0.000211334
0.00021386
0.000222963
0.000230322
0.00024447
0.000260122
0.000269072
0.000287029
0.000300128
0.000318698
0.000339055
0.000359111
0.00038028
0.000402103
0.000410853
0.000429771
0.000446421
0.000477898
0.000504033
0.000531958
0.000551062
0.000566081
0.000576118
0.000580373
0.000584362
0.00059749
0.000608724
0.000637251
0.000656878
0.000700285
0.000747065
0.000778805
0.000842331
0.000874699
0.000909207
0.000939325
0.000993217
0.00103568
0.00109381
0.00113356
0.00115628
0.00117981
0.0011848
0.0011893
0.00120477
0.00123481
0.0012534
0.00125547
0.00125017
0.00122769
0.00120503
0.00119791
0.00122357
0.00127926
0.00132158
0.00134832
0.00136274
0.00136743
0.00136549
0.00133985
0.00133281
0.00133535
0.00134401
0.0013686
0.00141943
0.00147415
0.00161018
0.00169249
0.00184327
0.00200305
0.00212296
0.00235358
0.00249821
0.00269853
0.00290407
0.0030642
0.00326499
0.00339311
0.00352568
0.00370163
0.00380162
0.00396095
0.00405252
0.00413269
0.00420321
0.0042411
0.00430156
0.00437442
0.00449863
0.00457033
0.00472264
0.00491736
0.00507446
0.00543592
0.00567637
0.00619366
0.00660714
0.00748865
0.00836982
0.00915086
0.0113562
0.0127722
0.0151713
0.0183388
0.0206911
0.0264978
0.0296077
0.0353258
0.0406996
0.0457194
0.0533614
0.0572646
0.0651259
0.0705406
0.0750933
0.0823148
0.0851992
0.0910259
0.09437
0.0985316
0.104534
0.107226
0.113187
0.118205
0.123048
0.134354
0.139981
0.152949
0.160663
0.177098
0.192106
0.204316
0.237811
0.252284
0.275524
0.308964
0.315933
0.325737
0.358993
0.478269
0.478454
0.337971
0.236957
0.248679
0.346692
0.358759
0.282977
0.19305
0.150369
0.134496
0.133052
0.131152
0.130589
0.136329
0.138273
0.14092
0.147682
0.167462
0.157635
0.162725
0.177817
0.13828
0.149471
0.138548
0.134673
0.12835
0.132027
0.117722
0.116223
0.118347
0.121956
0.136827
0.129398
0.136674
0.143958
0.117559
0.118308
0.103664
0.0755571
0.0784394
0.0607085
0.048698
0.0418082
0.0428233
0.040552
0.0487826
0.0408352
0.038313
0.0381613
0.043697
0.0678751
0.0835794
0.110642
0.125898
0.14912
0.213446
0.276562
0.327845
0.318903
0.244654
0.00267908
0.00274733
0.00287362
0.002968
0.00310347
0.00319176
0.00327033
0.00336122
0.0034846
0.00355531
0.00370811
0.0038344
0.00402973
0.00429825
0.00440936
0.00460549
0.00476754
0.00493377
0.00504568
0.00512743
0.00523498
0.00528439
0.0053885
0.00545541
0.00562955
0.00580891
0.00591144
0.00620121
0.00633136
0.00648274
0.00669711
0.00678948
0.00700467
0.00712378
0.00725321
0.00738583
0.00755813
0.00768828
0.00787818
0.00802959
0.00808512
0.00818428
0.00820493
0.00824932
0.00833181
0.00835559
0.00836086
0.00833057
0.00825722
0.00818088
0.0081675
0.00827582
0.00839695
0.00849835
0.00851241
0.00851255
0.00850475
0.00842863
0.00834766
0.00824999
0.0082445
0.00826616
0.00831978
0.00844877
0.00865291
0.00884808
0.00933744
0.00960566
0.010122
0.0106136
0.0110038
0.011767
0.0121159
0.0127788
0.0133031
0.0137304
0.0143357
0.0145751
0.0150243
0.0153615
0.015557
0.0158106
0.0160141
0.0161035
0.0162349
0.0164033
0.0165108
0.0167745
0.0170782
0.017339
0.0179756
0.0184679
0.0192946
0.0204634
0.021373
0.0236669
0.0254027
0.028055
0.0317572
0.0345998
0.0415076
0.0458065
0.0537061
0.0622904
0.0697721
0.0838377
0.0920768
0.105084
0.119164
0.127877
0.144383
0.153781
0.165295
0.178137
0.183173
0.193886
0.197643
0.20353
0.208308
0.21017
0.217355
0.221913
0.227129
0.237966
0.243325
0.254005
0.269892
0.277657
0.292232
0.31245
0.320771
0.34249
0.360876
0.367181