/*--------------------------------*- C++ -*----------------------------------*\
| =========                 |                                                 |
| \\      /  F ield         | OpenFOAM: The Open Source CFD Toolbox           |
|  \\    /   O peration     | Version:  2.4.0                                 |
|   \\  /    A nd           | Web:      www.OpenFOAM.org                      |
|    \\/     M anipulation  |                                                 |
\*---------------------------------------------------------------------------*/
FoamFile
{
    version     2.0;
    format      ascii;
    class       volScalarField;
    location    "1.31";
    object      nuSgs;
}
// * * * * * * * * * * * * * * * * * * * * * * * * * * * * * * * * * * * * * //

dimensions      [0 2 -1 0 0 0 0];

internalField   nonuniform List<scalar> 
8800
(
0.0013383
0.00150718
0.00139246
0.00122992
0.00111972
0.00105195
0.000995663
0.000961774
0.000924327
0.000906207
0.000878214
0.000869183
0.000846696
0.000841767
0.000821715
0.000818218
0.000800284
0.000797035
0.00078947
0.000765661
0.00055389
0.000982317
0.00108274
0.00108155
0.00106212
0.00103587
0.00100016
0.000979046
0.000947817
0.000932634
0.000906445
0.000896624
0.000875539
0.000869086
0.000852381
0.000847206
0.000833175
0.000828477
0.000815603
0.000815153
0.000135581
0.000406573
0.000583793
0.000659198
0.000703429
0.000739079
0.000750005
0.000761044
0.000760289
0.000759286
0.000754676
0.000751609
0.000744713
0.000740819
0.000735653
0.000730906
0.00072662
0.000722255
0.000713613
0.000710906
2.69032e-05
0.000125597
0.000232604
0.000310604
0.000355102
0.000397133
0.000427899
0.000453223
0.000477267
0.000490624
0.000508205
0.000516017
0.000529318
0.000534071
0.000545378
0.00054832
0.000556843
0.000557572
0.000560205
0.000557858
5.09766e-06
3.34818e-05
7.07737e-05
0.000106147
0.000140035
0.000161918
0.000192423
0.000208823
0.000235997
0.000247707
0.000269076
0.000278186
0.000296093
0.00030371
0.000320819
0.000328074
0.000344125
0.000349556
0.000362526
0.000364478
2.39078e-06
8.47369e-06
1.87869e-05
2.81603e-05
4.16838e-05
4.97278e-05
6.41861e-05
7.26608e-05
8.82828e-05
9.63151e-05
0.000108953
0.00011706
0.000128541
0.000134076
0.000144272
0.000155031
0.000161976
0.000172097
0.000179546
0.000189106
2.24494e-06
3.2489e-06
5.29255e-06
7.72829e-06
1.04407e-05
1.3269e-05
1.58866e-05
2.02673e-05
2.33227e-05
2.91389e-05
3.21311e-05
3.78502e-05
4.0467e-05
4.51799e-05
4.79323e-05
5.46215e-05
5.76684e-05
6.46573e-05
6.825e-05
7.7214e-05
2.16464e-06
2.5681e-06
3.35977e-06
4.41486e-06
4.55252e-06
4.81317e-06
5.14045e-06
6.10486e-06
6.58884e-06
7.97339e-06
8.57178e-06
1.04111e-05
1.09062e-05
1.22253e-05
1.26461e-05
1.4877e-05
1.54661e-05
1.82052e-05
1.96633e-05
2.51729e-05
2.14538e-06
2.57778e-06
2.87459e-06
3.56238e-06
4.18374e-06
4.2443e-06
4.11988e-06
4.10513e-06
4.12354e-06
4.25678e-06
4.40555e-06
4.85882e-06
5.02359e-06
5.0872e-06
5.04213e-06
5.20929e-06
5.31269e-06
5.90734e-06
6.13677e-06
7.18883e-06
2.12969e-06
2.43829e-06
3.31187e-06
3.57591e-06
3.5103e-06
3.60459e-06
3.98411e-06
4.08368e-06
4.06697e-06
4.03077e-06
3.9693e-06
3.96639e-06
4.06824e-06
4.32891e-06
4.35029e-06
4.30837e-06
4.23737e-06
4.24076e-06
4.29705e-06
4.43333e-06
2.13394e-06
2.62174e-06
2.87109e-06
3.26584e-06
3.84385e-06
4.03618e-06
3.99983e-06
3.92046e-06
3.86854e-06
3.88703e-06
4.00646e-06
4.16308e-06
4.21109e-06
4.21174e-06
4.20397e-06
4.18735e-06
4.18066e-06
4.2753e-06
4.40968e-06
4.55573e-06
2.13966e-06
2.53933e-06
2.92683e-06
3.66829e-06
3.84048e-06
3.96741e-06
4.00711e-06
4.13058e-06
4.20321e-06
4.3781e-06
4.48284e-06
4.57233e-06
4.61278e-06
4.75531e-06
4.82353e-06
4.94258e-06
5.27116e-06
6.06693e-06
6.36187e-06
6.83597e-06
2.15534e-06
2.57648e-06
3.12712e-06
4.16567e-06
4.6488e-06
5.11054e-06
5.45017e-06
6.2861e-06
6.7544e-06
7.78533e-06
8.42215e-06
9.75482e-06
1.04943e-05
1.23163e-05
1.31803e-05
1.49491e-05
1.62008e-05
1.89133e-05
2.04623e-05
2.38601e-05
2.18585e-06
3.08423e-06
5.11194e-06
9.08801e-06
1.09883e-05
1.4217e-05
1.64721e-05
2.11436e-05
2.36595e-05
2.90288e-05
3.2017e-05
3.78295e-05
4.05055e-05
4.66611e-05
4.95251e-05
5.5569e-05
5.92059e-05
6.72732e-05
7.1588e-05
8.14672e-05
2.35037e-06
8.17707e-06
1.77719e-05
3.30354e-05
4.10486e-05
5.35243e-05
6.14791e-05
7.70715e-05
8.44743e-05
9.91609e-05
0.000106318
0.00011996
0.000125736
0.000138762
0.000144489
0.000157034
0.000163682
0.000178762
0.000186149
0.000205151
5.24138e-06
3.28579e-05
6.9111e-05
0.000112805
0.000139455
0.000165248
0.00018645
0.000216352
0.000229019
0.000252183
0.000264124
0.000283259
0.000291351
0.000309561
0.000317184
0.000334078
0.000342049
0.000360943
0.000369313
0.000390308
2.73092e-05
0.000123677
0.000238142
0.000306178
0.000360031
0.000392258
0.00042976
0.000454549
0.000474193
0.000491822
0.000506892
0.000518164
0.000525646
0.000538126
0.000542881
0.000552523
0.000556634
0.000566921
0.000570843
0.00058038
0.000136718
0.000400328
0.000588197
0.000655122
0.000710079
0.000731935
0.000755484
0.000757463
0.000761403
0.000757571
0.000756255
0.000749055
0.000746641
0.000739462
0.000737434
0.000730977
0.000729464
0.000725335
0.000723616
0.000719417
0.00055733
0.000979837
0.00108437
0.00108068
0.00106478
0.0010294
0.00100677
0.000971479
0.000955522
0.000924435
0.000913462
0.000889048
0.00088204
0.000862131
0.000857616
0.000841047
0.000837058
0.000821176
0.000816033
0.000802232
0.00133917
0.00150544
0.00139423
0.00122664
0.0011236
0.00104674
0.0010013
0.000954833
0.00093172
0.000897757
0.000886001
0.000859913
0.000854376
0.00083183
0.000827995
0.000806213
0.000801813
0.000776804
0.000767918
0.000736343
0.00035174
0.000302305
0.000271209
0.000250202
0.000235065
0.000225373
0.000218143
0.000213988
0.000209942
0.000207637
0.000204211
0.000202388
0.000199171
0.000197748
0.000195274
0.000194185
0.000192165
0.000190589
0.000188168
0.000185846
0.000182897
0.000180213
0.000177352
0.000174766
0.000172776
0.0001709
0.000169915
0.000168624
0.000168189
0.000167246
0.000166971
0.000166244
0.000165984
0.00016528
0.000165076
0.00016456
0.000164494
0.000164364
0.000164611
0.000164744
0.000165174
0.000165446
0.000166068
0.000166431
0.000166916
0.000167257
0.000167369
0.000167497
0.000167249
0.000166921
0.000165602
0.000164317
0.000161981
0.000158632
0.000156191
0.000152481
0.000149524
0.000145818
0.000143192
0.000138883
0.000135888
0.000132787
0.000130609
0.000129883
0.000130113
0.00013137
0.000132612
0.000136086
0.000138017
0.000142632
0.000144481
0.000148398
0.000149721
0.000152067
0.000152946
0.000154143
0.000154624
0.000154678
0.000154603
0.000154526
0.000154387
0.000154306
0.000154044
0.000153502
0.000152683
0.00015119
0.000149487
0.000145642
0.000143107
0.000138925
0.000137441
0.000136404
0.000135955
0.000135523
0.000134996
0.00013403
0.00013446
0.000134378
0.000134893
0.000136831
0.000137359
0.00013937
0.000140766
0.000141669
0.000143848
0.000144178
0.000144245
0.000144583
0.000143966
0.000143599
0.000142265
0.000141214
0.00013838
0.000136732
0.000132554
0.000130228
0.000125302
0.000122388
0.000115794
0.000112322
0.000104924
9.94023e-05
9.14223e-05
8.34277e-05
7.34862e-05
6.46088e-05
5.57764e-05
4.80434e-05
4.11584e-05
3.48366e-05
2.94625e-05
2.51471e-05
2.11251e-05
1.86363e-05
1.61385e-05
1.48555e-05
1.34413e-05
1.32353e-05
1.2894e-05
1.26667e-05
1.25988e-05
1.26187e-05
1.28469e-05
1.35554e-05
1.53411e-05
1.89172e-05
2.56121e-05
3.63016e-05
5.27199e-05
7.83354e-05
9.62952e-05
0.00010334
0.000103762
0.000102542
9.96778e-05
9.67154e-05
9.232e-05
8.88958e-05
8.6914e-05
8.39743e-05
8.11736e-05
8.01655e-05
8.02316e-05
8.0548e-05
8.16172e-05
8.20628e-05
8.19911e-05
8.15482e-05
7.95624e-05
7.38849e-05
6.14012e-05
5.48534e-05
5.38804e-05
5.43963e-05
5.69071e-05
6.51439e-05
7.5997e-05
8.14625e-05
8.39667e-05
8.353e-05
8.00465e-05
7.71548e-05
7.33588e-05
7.09762e-05
6.37095e-05
6.38115e-05
6.46966e-05
5.99536e-05
5.17964e-05
4.4524e-05
5.05722e-05
5.06765e-05
6.07168e-05
6.95432e-05
7.28721e-05
7.91637e-05
8.12713e-05
8.86034e-05
0.000116272
0.000236352
0.000412921
0.000375011
0.000343139
0.000318668
0.000298738
0.000283602
0.000270839
0.000261457
0.000253035
0.000246777
0.000240563
0.000235922
0.000231189
0.000227598
0.000223989
0.000221159
0.000218594
0.000216206
0.000214226
0.000211952
0.000210316
0.000207947
0.000206522
0.000204198
0.000202961
0.000200788
0.000199661
0.000197738
0.000196796
0.000195109
0.000194303
0.000192979
0.000192103
0.000191092
0.000189988
0.000189193
0.000187895
0.000187182
0.000185917
0.000185281
0.000184167
0.000183505
0.000182646
0.000182022
0.000181395
0.000180998
0.000180592
0.000180377
0.00018021
0.000180181
0.00018016
0.000180107
0.000179932
0.00017929
0.000178568
0.000177148
0.000175498
0.000173595
0.000171934
0.000169408
0.000167988
0.00016537
0.000164364
0.000162742
0.000161603
0.000161519
0.000161099
0.000161213
0.000161084
0.000161153
0.000161122
0.000161082
0.00016107
0.000160818
0.000160672
0.000160338
0.000160045
0.000159718
0.000159075
0.000158842
0.000158854
0.000158686
0.000159121
0.000159004
0.000159829
0.00015971
0.000160345
0.000160206
0.000160088
0.000159758
0.00015821
0.000156838
0.000155087
0.000152014
0.000151107
0.000148838
0.000148029
0.0001474
0.000146435
0.000146348
0.000146659
0.000146161
0.000146624
0.00014583
0.000145851
0.000144769
0.000144089
0.000141927
0.000140564
0.000136966
0.000134853
0.000130386
0.000126711
0.000121162
0.000116438
0.000109783
0.000104239
9.61708e-05
8.85441e-05
8.05915e-05
7.19675e-05
6.32135e-05
5.53666e-05
4.82424e-05
4.19447e-05
3.62755e-05
3.15118e-05
2.69943e-05
2.38731e-05
2.03751e-05
1.81861e-05
1.60617e-05
1.43964e-05
1.34335e-05
1.25514e-05
1.20892e-05
1.19113e-05
1.21712e-05
1.21669e-05
1.227e-05
1.24485e-05
1.30379e-05
1.44166e-05
1.69616e-05
2.13693e-05
2.87748e-05
4.1457e-05
6.01391e-05
9.07171e-05
0.000106581
0.000109539
0.000108691
0.000106211
0.000101732
9.61364e-05
9.11981e-05
8.82361e-05
8.59935e-05
8.40701e-05
8.11712e-05
7.86367e-05
7.61135e-05
7.42512e-05
7.39295e-05
7.45097e-05
7.61589e-05
7.92673e-05
8.1119e-05
8.10931e-05
7.97208e-05
7.55195e-05
6.30505e-05
5.67482e-05
5.51262e-05
5.55705e-05
5.74924e-05
6.27217e-05
6.92734e-05
7.36988e-05
7.41904e-05
7.26945e-05
7.22616e-05
7.11057e-05
6.52314e-05
6.53485e-05
6.40005e-05
6.79165e-05
6.23377e-05
4.99988e-05
4.45682e-05
4.54412e-05
6.06343e-05
6.16479e-05
6.93068e-05
7.09105e-05
7.59695e-05
9.09649e-05
9.33139e-05
0.000134491
0.000187396
0.000370938
0.000350261
0.000329631
0.000311811
0.000295969
0.000282875
0.00027169
0.000262535
0.00025461
0.000247803
0.000241676
0.000236079
0.000231157
0.000226381
0.00022264
0.000218627
0.000215956
0.00021275
0.000210704
0.00020798
0.000206126
0.000203927
0.000201827
0.000200334
0.00019807
0.000197059
0.000194987
0.000194069
0.000192217
0.000191417
0.000189749
0.000188981
0.000187446
0.000186718
0.00018536
0.000184616
0.00018332
0.000182459
0.000181477
0.000180135
0.000179476
0.000177991
0.000177291
0.000175782
0.000175213
0.000173845
0.000173411
0.000172331
0.000172123
0.00017161
0.000171653
0.00017173
0.000172012
0.000172224
0.000172789
0.000172808
0.000172912
0.000172511
0.000172359
0.000171511
0.000171036
0.000169919
0.000169103
0.000168168
0.000166812
0.000166148
0.000165075
0.000163651
0.000162961
0.00016116
0.00016028
0.00015816
0.000157151
0.000154859
0.000153569
0.000151398
0.000149635
0.000148161
0.000146479
0.000145245
0.00014413
0.000143614
0.000143734
0.000144042
0.000144723
0.00014641
0.000147186
0.000149853
0.000150876
0.000153385
0.000153901
0.000154556
0.000154534
0.000154158
0.000153652
0.000152745
0.000151843
0.000150421
0.00014997
0.000148199
0.000147788
0.000145395
0.000144528
0.000141896
0.000140288
0.000136112
0.000133586
0.000128127
0.000124822
0.000118474
0.000113468
0.000105519
9.87268e-05
8.99058e-05
8.22561e-05
7.29239e-05
6.47336e-05
5.69624e-05
5.03386e-05
4.44084e-05
3.89615e-05
3.43263e-05
2.99794e-05
2.62557e-05
2.30059e-05
2.01476e-05
1.79328e-05
1.59507e-05
1.47983e-05
1.31318e-05
1.2661e-05
1.15781e-05
1.1351e-05
1.10271e-05
1.09675e-05
1.1055e-05
1.14334e-05
1.18311e-05
1.2114e-05
1.28424e-05
1.39507e-05
1.64862e-05
1.99377e-05
2.47981e-05
3.25588e-05
4.61263e-05
6.83017e-05
0.000101444
0.000115298
0.000115495
0.000113062
0.000109253
0.000100135
9.35264e-05
9.03173e-05
8.8373e-05
8.72445e-05
8.63103e-05
8.45906e-05
8.2124e-05
7.97728e-05
7.70699e-05
7.49362e-05
7.29578e-05
7.21699e-05
7.21813e-05
7.30016e-05
7.70148e-05
8.00655e-05
8.00874e-05
7.89909e-05
7.51913e-05
6.36299e-05
5.76833e-05
5.63875e-05
5.6828e-05
5.81301e-05
6.43233e-05
6.55414e-05
6.8566e-05
6.87748e-05
6.83066e-05
6.62599e-05
6.49328e-05
6.62705e-05
7.17234e-05
6.95359e-05
6.58244e-05
5.17179e-05
4.96819e-05
4.66432e-05
5.36384e-05
6.475e-05
6.85553e-05
9.52127e-05
8.97482e-05
0.000131354
0.000116299
0.000133571
0.000164293
0.000295768
0.000285066
0.000274362
0.000263495
0.000253926
0.000244319
0.000236358
0.000228934
0.000222964
0.000217435
0.000213094
0.000208243
0.000204428
0.000199902
0.000196245
0.000192273
0.000189215
0.000186213
0.000183706
0.00018183
0.000179226
0.000178024
0.00017537
0.000174053
0.000171566
0.000170278
0.000168079
0.000166926
0.000165187
0.000164045
0.000162863
0.000161315
0.0001605
0.000158829
0.000157791
0.000156341
0.000155296
0.000153887
0.000152902
0.000151733
0.000150649
0.000149698
0.000148456
0.000147644
0.000146204
0.000145571
0.000144223
0.000143758
0.000142803
0.000142584
0.000142223
0.000142311
0.000142546
0.000143195
0.00014378
0.000145011
0.000145957
0.000147472
0.000148492
0.000149475
0.000150318
0.000150521
0.00015036
0.000150068
0.000149028
0.00014812
0.00014675
0.00014437
0.000143187
0.000140279
0.000138459
0.000135258
0.000132551
0.000130205
0.000126214
0.000124242
0.000120817
0.000118147
0.000115686
0.000113467
0.000111885
0.000110129
0.000109133
0.000109264
0.000109414
0.000110838
0.000111857
0.000114763
0.000116667
0.000119859
0.000123199
0.000125934
0.000128073
0.000130579
0.000132104
0.000132647
0.000132597
0.000131923
0.000131165
0.00012902
0.00012698
0.000124868
0.000120384
0.000117048
0.000112113
0.000106978
0.00010044
9.38286e-05
8.63139e-05
7.81398e-05
7.0247e-05
6.24788e-05
5.57791e-05
4.93708e-05
4.36287e-05
3.8569e-05
3.3855e-05
2.9899e-05
2.62451e-05
2.33358e-05
2.04684e-05
1.85772e-05
1.62904e-05
1.49445e-05
1.34597e-05
1.25242e-05
1.1582e-05
1.1162e-05
1.0522e-05
1.02476e-05
1.01042e-05
9.92613e-06
1.01869e-05
1.02766e-05
1.04977e-05
1.09864e-05
1.20696e-05
1.28351e-05
1.4476e-05
1.67198e-05
1.9259e-05
2.45044e-05
2.9406e-05
3.71727e-05
5.02372e-05
7.42762e-05
0.000111008
0.0001223
0.000121963
0.000117771
0.000110075
9.80891e-05
9.12014e-05
8.91566e-05
8.79732e-05
8.79282e-05
8.87673e-05
8.95894e-05
8.96509e-05
8.93184e-05
8.80583e-05
8.44146e-05
8.02039e-05
7.60346e-05
7.31837e-05
7.20936e-05
7.19842e-05
7.24763e-05
7.57148e-05
7.90438e-05
7.92464e-05
7.83491e-05
7.32278e-05
6.32843e-05
5.85895e-05
5.80665e-05
5.84981e-05
6.00847e-05
6.40538e-05
6.48992e-05
6.82538e-05
6.73748e-05
6.82271e-05
6.99517e-05
6.96543e-05
7.08051e-05
6.38418e-05
5.48449e-05
5.24242e-05
5.08107e-05
7.3867e-05
6.70058e-05
9.99341e-05
9.04013e-05
0.000112916
0.000107384
0.000122158
0.000124152
0.00012977
0.00015322
0.000196114
0.000191818
0.000188109
0.000182419
0.000178455
0.000172937
0.000168547
0.000163953
0.000160403
0.000156897
0.000154791
0.000152134
0.000150264
0.000147972
0.000145484
0.000142779
0.000140229
0.000137496
0.000135142
0.00013356
0.000131575
0.000130772
0.000129397
0.000128576
0.000127071
0.000125778
0.000123805
0.000122552
0.000120544
0.00011971
0.000118111
0.000117478
0.000116196
0.000115598
0.000114176
0.000113419
0.000111671
0.000110713
0.000108927
0.00010797
0.000106242
0.000105516
0.000103933
0.000103303
0.000101908
0.000101336
0.000100114
9.96016e-05
9.89039e-05
9.8437e-05
9.8355e-05
9.84147e-05
9.86854e-05
9.92196e-05
9.96596e-05
0.00010094
0.000101625
0.000103071
0.000103655
0.000104977
0.000105418
0.000106167
0.000106185
0.000106119
0.000105837
0.000104963
0.000104139
0.00010227
0.000100784
9.85704e-05
9.53209e-05
9.32741e-05
8.93781e-05
8.65533e-05
8.32118e-05
7.95114e-05
7.68563e-05
7.36514e-05
7.12302e-05
6.90574e-05
6.74356e-05
6.64987e-05
6.51976e-05
6.49578e-05
6.49528e-05
6.54224e-05
6.62558e-05
6.73101e-05
7.03229e-05
7.19608e-05
7.51047e-05
7.83269e-05
8.03258e-05
8.32056e-05
8.47529e-05
8.61075e-05
8.61889e-05
8.59758e-05
8.48764e-05
8.37427e-05
8.03383e-05
7.81143e-05
7.32874e-05
6.95595e-05
6.44729e-05
5.9676e-05
5.45109e-05
4.94898e-05
4.45137e-05
3.97245e-05
3.53991e-05
3.12057e-05
2.77127e-05
2.44239e-05
2.16508e-05
1.92201e-05
1.71342e-05
1.53046e-05
1.3902e-05
1.256e-05
1.1584e-05
1.0919e-05
1.0119e-05
9.91396e-06
9.51909e-06
9.44241e-06
9.37516e-06
9.35617e-06
9.31625e-06
9.46474e-06
9.50885e-06
9.71459e-06
1.02058e-05
1.06904e-05
1.20513e-05
1.35549e-05
1.5394e-05
1.74678e-05
2.14267e-05
2.41107e-05
2.91408e-05
3.5636e-05
4.21985e-05
5.43753e-05
7.69681e-05
0.000118983
0.000129321
0.000128229
0.000123324
0.000109694
0.000100666
9.21154e-05
8.91102e-05
8.77796e-05
8.72136e-05
8.78528e-05
9.02563e-05
9.16481e-05
9.23568e-05
9.22652e-05
9.18107e-05
8.95992e-05
8.76945e-05
8.39328e-05
7.79938e-05
7.37552e-05
7.24487e-05
7.27076e-05
7.33507e-05
7.66116e-05
7.85426e-05
7.91158e-05
7.78979e-05
7.32828e-05
6.33482e-05
5.97714e-05
6.09943e-05
6.11164e-05
6.44291e-05
6.55046e-05
6.53771e-05
6.72449e-05
6.72253e-05
7.01656e-05
7.73084e-05
7.50215e-05
7.99507e-05
6.96869e-05
7.94478e-05
7.11458e-05
9.06525e-05
8.43262e-05
9.7104e-05
9.49989e-05
0.000101018
0.000106941
0.00011056
0.000121237
0.000123911
0.000137753
0.000102577
0.000101212
9.9871e-05
9.75349e-05
9.59309e-05
9.41551e-05
9.20102e-05
9.04461e-05
8.86276e-05
8.73778e-05
8.63096e-05
8.57808e-05
8.50251e-05
8.46558e-05
8.38449e-05
8.30254e-05
8.15781e-05
8.01369e-05
7.8523e-05
7.72776e-05
7.597e-05
7.53648e-05
7.49169e-05
7.44594e-05
7.43191e-05
7.38289e-05
7.33562e-05
7.20957e-05
7.11397e-05
6.98483e-05
6.90875e-05
6.81553e-05
6.7731e-05
6.71161e-05
6.68256e-05
6.61475e-05
6.57705e-05
6.46011e-05
6.38957e-05
6.24335e-05
6.16756e-05
6.06674e-05
5.94433e-05
5.8949e-05
5.798e-05
5.74215e-05
5.69359e-05
5.62616e-05
5.60964e-05
5.55973e-05
5.56084e-05
5.55336e-05
5.58072e-05
5.60078e-05
5.64884e-05
5.72412e-05
5.76641e-05
5.89068e-05
5.94994e-05
6.04216e-05
6.09474e-05
6.14146e-05
6.1425e-05
6.12744e-05
6.09597e-05
6.00944e-05
5.94245e-05
5.81254e-05
5.64311e-05
5.54649e-05
5.29978e-05
5.16775e-05
4.93633e-05
4.72292e-05
4.56894e-05
4.31424e-05
4.17205e-05
3.97792e-05
3.81251e-05
3.69605e-05
3.55569e-05
3.49306e-05
3.46096e-05
3.40995e-05
3.39209e-05
3.39186e-05
3.40844e-05
3.43591e-05
3.51798e-05
3.58806e-05
3.72607e-05
3.88709e-05
4.01126e-05
4.18239e-05
4.29991e-05
4.33815e-05
4.33423e-05
4.30375e-05
4.20376e-05
4.0981e-05
3.91035e-05
3.73202e-05
3.5113e-05
3.27461e-05
3.03783e-05
2.78546e-05
2.54761e-05
2.30052e-05
2.07729e-05
1.85058e-05
1.66745e-05
1.46857e-05
1.34208e-05
1.18678e-05
1.09935e-05
1.00363e-05
9.43148e-06
8.87634e-06
8.59776e-06
8.30861e-06
8.25587e-06
8.25206e-06
8.35287e-06
8.43965e-06
8.58189e-06
8.87348e-06
9.11014e-06
9.32748e-06
9.88641e-06
1.04717e-05
1.10302e-05
1.23227e-05
1.32718e-05
1.46843e-05
1.78323e-05
1.97966e-05
2.18794e-05
2.68395e-05
3.03238e-05
3.39931e-05
4.22359e-05
4.82645e-05
5.8713e-05
7.98342e-05
0.000124465
0.000137202
0.000134708
0.00012909
0.000114425
0.000105637
9.71461e-05
9.05259e-05
8.91573e-05
8.74081e-05
8.76478e-05
8.94361e-05
9.14186e-05
9.29809e-05
9.31261e-05
9.28434e-05
9.22524e-05
9.05865e-05
8.96849e-05
8.78075e-05
8.48208e-05
7.785e-05
7.4514e-05
7.38298e-05
7.3935e-05
7.51664e-05
7.75657e-05
7.93168e-05
7.9152e-05
7.73651e-05
7.18153e-05
6.3367e-05
6.37385e-05
6.35173e-05
6.34432e-05
6.76786e-05
6.70598e-05
7.00143e-05
7.00419e-05
7.13273e-05
7.40212e-05
7.25215e-05
7.17105e-05
6.66574e-05
6.63192e-05
6.6925e-05
7.4742e-05
8.18803e-05
8.48242e-05
9.24773e-05
9.71995e-05
0.000104175
0.000107661
0.000117389
0.000121215
0.0001274
4.20218e-05
4.15188e-05
4.06263e-05
3.98039e-05
3.92326e-05
3.87708e-05
3.82625e-05
3.78499e-05
3.73693e-05
3.70355e-05
3.69042e-05
3.68791e-05
3.68813e-05
3.69384e-05
3.69273e-05
3.69046e-05
3.67739e-05
3.62388e-05
3.54857e-05
3.47789e-05
3.41446e-05
3.38594e-05
3.37705e-05
3.37613e-05
3.40396e-05
3.41488e-05
3.42524e-05
3.4222e-05
3.38028e-05
3.32141e-05
3.2531e-05
3.21887e-05
3.18614e-05
3.1754e-05
3.16637e-05
3.15939e-05
3.15697e-05
3.13683e-05
3.11064e-05
3.03998e-05
2.98016e-05
2.92812e-05
2.859e-05
2.83545e-05
2.78817e-05
2.76786e-05
2.7425e-05
2.73485e-05
2.729e-05
2.7234e-05
2.73021e-05
2.73483e-05
2.75477e-05
2.77627e-05
2.7934e-05
2.84897e-05
2.87559e-05
2.9298e-05
2.98198e-05
3.04107e-05
3.0956e-05
3.11329e-05
3.11316e-05
3.09666e-05
3.07154e-05
3.0187e-05
2.95011e-05
2.90096e-05
2.80454e-05
2.74896e-05
2.64129e-05
2.55328e-05
2.4515e-05
2.33231e-05
2.24682e-05
2.13359e-05
2.04827e-05
1.96439e-05
1.87315e-05
1.80464e-05
1.73689e-05
1.69489e-05
1.67849e-05
1.67168e-05
1.65594e-05
1.64366e-05
1.64458e-05
1.64873e-05
1.66593e-05
1.68825e-05
1.71695e-05
1.78979e-05
1.85461e-05
1.94379e-05
2.00043e-05
2.0095e-05
2.00473e-05
1.99019e-05
1.94774e-05
1.88845e-05
1.78118e-05
1.68548e-05
1.57069e-05
1.46489e-05
1.35546e-05
1.25217e-05
1.14643e-05
1.052e-05
9.56808e-06
8.86677e-06
8.15499e-06
7.74889e-06
7.34916e-06
7.26471e-06
7.23213e-06
7.23588e-06
7.26882e-06
7.33279e-06
7.4734e-06
7.76042e-06
7.94683e-06
8.30427e-06
8.82329e-06
9.22884e-06
1.00114e-05
1.10275e-05
1.17584e-05
1.29862e-05
1.45791e-05
1.54289e-05
1.70433e-05
1.872e-05
2.00178e-05
2.31193e-05
2.60318e-05
2.82117e-05
3.27722e-05
3.78524e-05
4.11371e-05
4.88173e-05
5.54447e-05
6.39281e-05
8.2694e-05
0.000128321
0.000144871
0.000142075
0.00013298
0.000122039
0.000111853
0.000105214
9.56229e-05
9.40191e-05
9.35999e-05
9.32134e-05
9.56709e-05
9.54526e-05
9.5791e-05
9.71817e-05
9.65365e-05
9.4639e-05
9.35726e-05
9.30072e-05
9.16667e-05
9.0153e-05
8.67692e-05
8.00587e-05
7.88862e-05
7.7428e-05
7.56941e-05
7.57758e-05
7.7628e-05
7.91743e-05
8.10418e-05
8.05155e-05
7.7195e-05
7.12893e-05
6.60941e-05
6.91202e-05
6.62394e-05
7.00073e-05
6.89655e-05
6.93356e-05
6.8636e-05
6.89839e-05
6.84531e-05
6.77329e-05
6.10477e-05
5.99165e-05
5.78683e-05
6.11444e-05
6.33891e-05
7.8346e-05
8.11326e-05
8.60347e-05
8.99331e-05
0.000100384
0.000104568
0.000112773
0.000117968
0.000121556
1.38532e-05
1.37741e-05
1.35704e-05
1.3322e-05
1.31371e-05
1.30669e-05
1.29463e-05
1.28596e-05
1.27939e-05
1.2755e-05
1.27437e-05
1.2748e-05
1.27803e-05
1.28364e-05
1.28493e-05
1.28607e-05
1.28696e-05
1.28572e-05
1.26949e-05
1.24503e-05
1.2206e-05
1.20668e-05
1.20196e-05
1.20088e-05
1.21752e-05
1.22951e-05
1.24281e-05
1.24397e-05
1.23911e-05
1.21588e-05
1.19225e-05
1.17907e-05
1.17107e-05
1.17153e-05
1.17681e-05
1.17987e-05
1.18383e-05
1.17994e-05
1.17256e-05
1.14597e-05
1.12342e-05
1.10315e-05
1.08414e-05
1.07645e-05
1.06464e-05
1.06295e-05
1.06201e-05
1.06261e-05
1.06769e-05
1.07103e-05
1.08252e-05
1.08777e-05
1.0972e-05
1.1147e-05
1.12114e-05
1.14637e-05
1.16061e-05
1.19761e-05
1.22049e-05
1.25724e-05
1.30404e-05
1.31334e-05
1.31777e-05
1.31091e-05
1.29631e-05
1.27822e-05
1.24557e-05
1.22661e-05
1.19175e-05
1.15815e-05
1.1151e-05
1.064e-05
1.01872e-05
9.68094e-06
9.28268e-06
8.94135e-06
8.58914e-06
8.31068e-06
7.97469e-06
7.63878e-06
7.38689e-06
7.17455e-06
7.10182e-06
7.0789e-06
7.0212e-06
7.00332e-06
7.00732e-06
7.02951e-06
7.09444e-06
7.17005e-06
7.26615e-06
7.59084e-06
7.86848e-06
8.21627e-06
8.34101e-06
8.42446e-06
8.39468e-06
8.33975e-06
8.11968e-06
7.81101e-06
7.46492e-06
7.09381e-06
6.68198e-06
6.43343e-06
6.1333e-06
5.91645e-06
5.81528e-06
5.82326e-06
5.84906e-06
5.91688e-06
6.08857e-06
6.3539e-06
6.58951e-06
7.11953e-06
7.45144e-06
8.15569e-06
8.6475e-06
9.17319e-06
1.01478e-05
1.07797e-05
1.15383e-05
1.277e-05
1.35254e-05
1.46947e-05
1.63524e-05
1.74641e-05
1.90343e-05
2.12842e-05
2.24074e-05
2.38418e-05
2.62886e-05
2.76683e-05
3.02502e-05
3.41924e-05
3.6521e-05
4.07179e-05
4.73732e-05
5.06874e-05
5.71114e-05
6.61493e-05
7.23985e-05
8.70293e-05
0.000131002
0.000151798
0.000149634
0.000137079
0.000129369
0.00012039
0.000116258
0.000106006
0.000101027
0.000101298
9.96548e-05
0.000100405
0.000101311
0.000100965
0.00010283
0.00010206
0.00010082
9.83821e-05
9.67783e-05
9.5976e-05
9.42958e-05
9.39879e-05
8.98638e-05
8.51376e-05
8.14154e-05
8.05095e-05
7.87566e-05
7.74585e-05
7.83134e-05
7.95043e-05
8.32303e-05
8.33051e-05
7.91874e-05
7.76511e-05
7.09683e-05
7.29822e-05
7.04744e-05
7.04301e-05
7.17066e-05
7.01398e-05
6.8826e-05
6.75119e-05
6.45085e-05
6.36559e-05
5.69042e-05
5.5468e-05
5.25539e-05
5.47839e-05
5.74788e-05
7.22356e-05
7.5512e-05
8.24625e-05
8.77168e-05
9.8755e-05
0.000104591
0.000108712
0.000117928
0.000121751
3.94194e-06
3.95377e-06
3.98005e-06
3.97597e-06
3.96164e-06
3.94672e-06
3.92846e-06
3.92497e-06
3.91992e-06
3.91951e-06
3.92038e-06
3.9251e-06
3.93947e-06
3.99193e-06
4.04778e-06
4.07669e-06
4.10623e-06
4.11011e-06
4.09935e-06
4.03982e-06
3.96808e-06
3.91527e-06
3.88665e-06
3.8761e-06
3.88528e-06
3.91809e-06
3.94739e-06
3.96127e-06
3.95691e-06
3.9448e-06
3.89948e-06
3.89769e-06
3.89012e-06
3.91352e-06
3.93669e-06
3.98006e-06
3.98727e-06
3.98842e-06
3.95432e-06
3.90646e-06
3.84011e-06
3.81468e-06
3.78279e-06
3.77709e-06
3.77116e-06
3.77077e-06
3.76995e-06
3.76252e-06
3.76387e-06
3.76437e-06
3.78614e-06
3.79245e-06
3.82269e-06
3.8579e-06
3.88319e-06
3.96489e-06
4.02431e-06
4.13701e-06
4.28156e-06
4.41246e-06
4.58014e-06
4.61148e-06
4.6067e-06
4.58777e-06
4.51669e-06
4.47686e-06
4.41652e-06
4.34518e-06
4.30081e-06
4.20274e-06
4.1058e-06
4.01017e-06
3.90039e-06
3.82274e-06
3.75693e-06
3.68311e-06
3.63805e-06
3.58048e-06
3.53188e-06
3.51748e-06
3.50703e-06
3.51112e-06
3.51192e-06
3.51581e-06
3.52361e-06
3.5298e-06
3.53448e-06
3.5409e-06
3.54657e-06
3.56224e-06
3.58459e-06
3.60937e-06
3.68338e-06
3.75225e-06
3.79256e-06
3.8861e-06
3.96548e-06
4.0158e-06
4.12315e-06
4.1675e-06
4.26156e-06
4.34758e-06
4.44929e-06
4.67714e-06
4.86266e-06
5.24251e-06
5.57352e-06
6.15942e-06
6.98497e-06
7.54172e-06
8.89781e-06
9.72079e-06
1.10275e-05
1.22257e-05
1.31393e-05
1.47446e-05
1.54924e-05
1.68888e-05
1.79833e-05
1.88066e-05
2.05864e-05
2.16784e-05
2.28426e-05
2.49408e-05
2.64538e-05
2.78827e-05
3.04496e-05
3.21705e-05
3.32457e-05
3.59277e-05
3.79522e-05
4.02288e-05
4.54618e-05
4.82358e-05
5.18476e-05
6.00518e-05
6.36531e-05
6.86386e-05
7.96094e-05
8.46784e-05
9.52208e-05
0.000132287
0.000158535
0.000157491
0.000142257
0.00013323
0.000129586
0.000126707
0.000118396
0.000105824
0.000103039
0.000101832
9.97886e-05
0.000101627
0.000100885
0.000102823
0.000104342
0.000102199
0.000102653
0.000101968
0.000101405
9.92849e-05
9.7335e-05
9.51607e-05
8.99359e-05
8.99855e-05
8.6923e-05
8.64968e-05
8.30758e-05
8.00836e-05
7.97893e-05
8.15167e-05
8.47102e-05
8.73132e-05
8.19423e-05
8.20296e-05
7.59058e-05
7.43238e-05
7.78795e-05
7.2331e-05
7.35157e-05
7.12232e-05
6.76428e-05
6.59801e-05
6.2866e-05
6.07837e-05
5.2953e-05
5.02861e-05
4.79022e-05
4.92913e-05
5.59565e-05
6.89036e-05
7.41825e-05
8.83827e-05
9.45664e-05
9.80652e-05
0.000105767
0.000110334
0.000121409
0.000137514
2.44919e-06
2.4717e-06
2.51813e-06
2.57891e-06
2.59096e-06
2.59019e-06
2.58882e-06
2.59289e-06
2.59489e-06
2.59408e-06
2.59169e-06
2.58933e-06
2.59279e-06
2.59889e-06
2.61621e-06
2.62473e-06
2.6366e-06
2.64229e-06
2.64398e-06
2.64363e-06
2.63691e-06
2.62579e-06
2.61513e-06
2.60523e-06
2.59422e-06
2.58625e-06
2.57776e-06
2.57362e-06
2.5711e-06
2.57074e-06
2.57379e-06
2.57764e-06
2.58238e-06
2.58435e-06
2.59171e-06
2.60422e-06
2.63221e-06
2.65033e-06
2.67027e-06
2.68294e-06
2.69432e-06
2.69875e-06
2.70169e-06
2.7009e-06
2.69833e-06
2.69414e-06
2.687e-06
2.68584e-06
2.68078e-06
2.67896e-06
2.67365e-06
2.66565e-06
2.66147e-06
2.6627e-06
2.66563e-06
2.67819e-06
2.68841e-06
2.70348e-06
2.73227e-06
2.75727e-06
2.78039e-06
2.78415e-06
2.78105e-06
2.78055e-06
2.78047e-06
2.78258e-06
2.79036e-06
2.80563e-06
2.82739e-06
2.87019e-06
2.89614e-06
2.95629e-06
2.99166e-06
3.04758e-06
3.11962e-06
3.17175e-06
3.25713e-06
3.30274e-06
3.38353e-06
3.47483e-06
3.56971e-06
3.66087e-06
3.71768e-06
3.73792e-06
3.74421e-06
3.74377e-06
3.7718e-06
3.80797e-06
3.8497e-06
3.86364e-06
3.87794e-06
3.88187e-06
3.89374e-06
3.93974e-06
4.01416e-06
4.17723e-06
4.44227e-06
4.64857e-06
5.12298e-06
5.41223e-06
6.00029e-06
6.51119e-06
7.10056e-06
8.14824e-06
8.77979e-06
1.01493e-05
1.11559e-05
1.27389e-05
1.43849e-05
1.56174e-05
1.80989e-05
1.92594e-05
2.15168e-05
2.282e-05
2.482e-05
2.64795e-05
2.75339e-05
2.96871e-05
3.07257e-05
3.23967e-05
3.4075e-05
3.52188e-05
3.76529e-05
3.9326e-05
4.12017e-05
4.30424e-05
4.55161e-05
4.68721e-05
4.93122e-05
5.27228e-05
5.50866e-05
6.06477e-05
6.50088e-05
6.84842e-05
7.68644e-05
8.20628e-05
8.59901e-05
9.66507e-05
0.000102156
0.000108613
0.00013517
0.000165664
0.000165892
0.00014729
0.000135857
0.000138417
0.000137653
0.000128769
0.000107553
9.91251e-05
9.71093e-05
9.49182e-05
9.54768e-05
9.69132e-05
9.85917e-05
0.000103902
0.000101472
0.000102677
0.000104056
0.000102052
0.000100574
9.91236e-05
9.83775e-05
9.43029e-05
9.1466e-05
9.07032e-05
9.03813e-05
8.94879e-05
8.40627e-05
8.13377e-05
8.21186e-05
8.44787e-05
8.66795e-05
9.23037e-05
8.51604e-05
8.41982e-05
8.50591e-05
7.94099e-05
8.35438e-05
7.88415e-05
7.08867e-05
6.91182e-05
6.19678e-05
6.28035e-05
5.74745e-05
5.63233e-05
5.0566e-05
4.85013e-05
4.72281e-05
4.88612e-05
5.52521e-05
7.21832e-05
8.11924e-05
9.15092e-05
9.92187e-05
9.94083e-05
0.000108202
0.000114245
0.000127441
0.000146452
2.49998e-06
2.50867e-06
2.53013e-06
2.57453e-06
2.5929e-06
2.5948e-06
2.59398e-06
2.59492e-06
2.59767e-06
2.60165e-06
2.62197e-06
2.64619e-06
2.67759e-06
2.70087e-06
2.71578e-06
2.72299e-06
2.72722e-06
2.73295e-06
2.76586e-06
2.80789e-06
2.85501e-06
2.88988e-06
2.91122e-06
2.91707e-06
2.91901e-06
2.91611e-06
2.91658e-06
2.91619e-06
2.91888e-06
2.92998e-06
2.98749e-06
3.03734e-06
3.10913e-06
3.16206e-06
3.19074e-06
3.25961e-06
3.32662e-06
3.41155e-06
3.49768e-06
3.55466e-06
3.58857e-06
3.59631e-06
3.5937e-06
3.58131e-06
3.57755e-06
3.59784e-06
3.65416e-06
3.69236e-06
3.69275e-06
3.6892e-06
3.66076e-06
3.59268e-06