/*--------------------------------*- C++ -*----------------------------------*\
| =========                 |                                                 |
| \\      /  F ield         | OpenFOAM: The Open Source CFD Toolbox           |
|  \\    /   O peration     | Version:  2.4.0                                 |
|   \\  /    A nd           | Web:      www.OpenFOAM.org                      |
|    \\/     M anipulation  |                                                 |
\*---------------------------------------------------------------------------*/
FoamFile
{
    version     2.0;
    format      ascii;
    class       volScalarField;
    location    "1.31";
    object      pMean;
}
// * * * * * * * * * * * * * * * * * * * * * * * * * * * * * * * * * * * * * //

dimensions      [0 2 -2 0 0 0 0];

internalField   nonuniform List<scalar> 
8800
(
87.4425
74.9941
67.5801
64.0097
62.1087
60.6653
59.4453
58.2857
57.244
56.2017
55.2385
54.2406
53.3221
52.3682
51.5127
50.63
49.8564
49.0694
48.3734
47.6111
84.3322
74.6398
67.7485
64.1236
62.1685
60.6906
59.4528
58.286
57.242
56.1992
55.2356
54.2385
53.3195
52.3664
51.5106
50.6279
49.8578
49.0645
48.3758
47.5702
82.3676
74.7159
68.3497
64.4992
62.3357
60.7697
59.4993
58.3186
57.2662
56.2163
55.2459
54.2432
53.3209
52.3645
51.5091
50.6206
49.8601
49.0535
48.4336
47.6132
80.8326
74.7777
68.9354
64.9229
62.5191
60.8576
59.5616
58.3753
57.3146
56.2553
55.2732
54.261
53.3316
52.3686
51.5106
50.6143
49.8574
49.0494
48.512
47.8165
79.5845
74.7514
69.4105
65.329
62.6876
60.9254
59.6105
58.4334
57.3703
56.3076
55.3085
54.2892
53.3443
52.3797
51.5083
50.6146
49.8413
49.0541
48.4781
48.0947
78.6006
74.6553
69.7753
65.6758
62.8384
60.9692
59.6385
58.4791
57.4203
56.3581
55.3437
54.3174
53.3557
52.3896
51.5032
50.613
49.8219
49.0586
48.5115
48.4913
77.8446
74.5404
70.0425
65.9559
62.9741
60.9961
59.647
58.5114
57.4596
56.4001
55.373
54.341
53.3635
52.3958
51.4961
50.6087
49.8049
49.0645
48.5922
48.8366
77.2917
74.4402
70.2245
66.168
63.0932
61.0151
59.6412
58.5346
57.4877
56.4335
55.3937
54.3607
53.3666
52.402
51.4869
50.6095
49.7905
49.0749
48.6042
49.1215
76.931
74.369
70.3392
66.3123
63.178
61.0276
59.633
58.5494
57.5078
56.4578
55.4088
54.3749
53.3702
52.4074
51.4838
50.6127
49.7872
49.0955
48.6735
49.3666
76.7508
74.3347
70.3962
66.3874
63.2217
61.0353
59.6276
58.5578
57.5192
56.4724
55.4176
54.384
53.3739
52.4133
51.4859
50.62
49.7958
49.1198
48.7318
49.478
76.7439
74.3428
70.3968
66.3909
63.2212
61.0377
59.6257
58.5606
57.5192
56.476
55.4184
54.3886
53.3762
52.4204
51.4917
50.6321
49.8084
49.1448
48.7695
49.556
76.913
74.3908
70.3409
66.3207
63.1771
61.0337
59.6284
58.5562
57.5084
56.467
55.4115
54.3875
53.3781
52.4273
51.5017
50.6467
49.8269
49.1652
48.792
49.5774
77.2648
74.4722
70.2257
66.1782
63.0905
61.0241
59.6335
58.5448
57.4877
56.4475
55.3971
54.3811
53.3783
52.4346
51.5154
50.6658
49.8513
49.1868
48.7936
49.5375
77.8114
74.5775
70.0428
65.9654
62.9671
61.0064
59.6364
58.5235
57.4573
56.4173
55.3752
54.3678
53.376
52.4406
51.5311
50.689
49.8829
49.2152
48.7799
49.4198
78.5654
74.6931
69.7769
65.6834
62.8285
60.9776
59.629
58.4903
57.4174
56.3764
55.3466
54.3474
53.3711
52.4427
51.5474
50.7137
49.9233
49.2541
48.777
49.219
79.5475
74.7908
69.4134
65.3364
62.676
60.9327
59.6029
58.4452
57.3684
56.3272
55.3136
54.3222
53.3644
52.4409
51.5636
50.7366
49.9709
49.3041
48.8045
48.9545
80.794
74.8181
68.9403
64.9327
62.5066
60.8653
59.5553
58.3889
57.3135
56.2771
55.2804
54.2975
53.3569
52.4369
51.5774
50.7539
50.0173
49.3521
48.8622
48.678
82.3283
74.7552
68.357
64.511
62.3231
60.7775
59.4938
58.3329
57.2664
56.2386
55.2558
54.2807
53.3518
52.4352
51.5875
50.767
50.0506
49.3889
48.9201
48.5343
84.2919
74.6769
67.7575
64.137
62.1564
60.6982
59.4475
58.3006
57.2429
56.2219
55.2467
54.2767
53.3523
52.4385
51.5943
50.777
50.0662
49.4104
48.9168
48.4568
87.4014
75.0295
67.5888
64.0235
62.0972
60.6728
59.4402
58.3005
57.2449
56.2248
55.2494
54.2794
53.355
52.441
51.5974
50.7804
50.0698
49.4161
48.9182
48.5764
47.6299
47.5126
47.2452
46.9668
46.7456
46.5874
46.4869
46.4258
46.3874
46.362
46.3427
46.3196
46.2909
46.2548
46.2102
46.1552
46.0907
46.0131
45.926
45.8265
45.72
45.6126
45.5113
45.4184
45.3405
45.2803
45.239
45.209
45.1836
45.1517
45.1099
45.0566
44.9985
44.9411
44.889
44.8392
44.7895
44.73
44.6598
44.5769
44.4874
44.3942
44.3106
44.2442
44.2043
44.1892
44.2013
44.2307
44.2743
44.3194
44.3586
44.3775
44.3722
44.3317
44.2612
44.152
44.0168
43.852
43.6711
43.4661
43.2455
43.0038
42.7544
42.5005
42.2618
42.0519
41.8868
41.7813
41.7416
41.7578
41.8245
41.9218
42.0416
42.1617
42.2799
42.3742
42.4496
42.4856
42.4927
42.458
42.3959
42.3012
42.1925
42.0599
41.9301
41.7968
41.6809
41.5867
41.5204
41.4918
41.5034
41.5627
41.6669
41.8098
41.9856
42.1821
42.3929
42.6058
42.8166
43.0159
43.2043
43.3768
43.537
43.6678
43.7908
43.8896
43.9872
44.07
44.162
44.2381
44.3147
44.3769
44.4343
44.4784
44.5154
44.5449
44.5727
44.5963
44.6228
44.6443
44.671
44.6915
44.724
44.7496
44.7971
44.8309
44.8976
44.9456
45.0306
45.106
45.2133
45.3147
45.4374
45.5578
45.6962
45.833
45.9847
46.131
46.2872
46.436
46.5957
46.7539
46.9233
47.0914
47.2705
47.4455
47.6318
47.8204
48.0158
48.2149
48.416
48.6185
48.8251
49.0271
49.2334
49.4381
49.6567
49.8635
50.088
50.3013
50.5353
50.7357
50.9628
51.144
51.3455
51.4967
51.6723
51.7902
51.93
52.0099
52.1328
52.1799
52.3025
52.3354
52.4872
52.5152
52.7133
52.7486
52.9805
53.0448
53.2941
53.397
53.678
53.8395
54.1536
54.3792
54.7227
54.9743
55.3384
55.5764
55.9196
56.0758
56.2787
56.1627
55.9622
55.1187
53.8195
50.5004
46.3066
25.9667
47.415
47.3639
47.2551
47.0538
46.8314
46.6469
46.5275
46.4644
46.4391
46.4291
46.4227
46.4079
46.3841
46.349
46.3053
46.2505
46.1868
46.1116
46.0283
45.9352
45.837
45.738
45.6453
45.5601
45.4883
45.4293
45.3854
45.3509
45.3228
45.2918
45.2555
45.21
45.1599
45.1068
45.0559
45.0039
44.9513
44.8913
44.8243
44.7468
44.6647
44.5804
44.5044
44.4417
44.4009
44.3809
44.3843
44.4034
44.435
44.467
44.4943
44.5034
44.4926
44.4503
44.3813
44.2769
44.1469
43.9873
43.8097
43.6101
43.3963
43.166
42.9285
42.6905
42.465
42.266
42.1061
41.9956
41.9422
41.9392
41.9831
42.0575
42.1556
42.2585
42.3595
42.4428
42.5052
42.5349
42.5339
42.4963
42.432
42.3394
42.2331
42.1129
41.9924
41.8766
41.7723
41.6925
41.6354
41.6132
41.627
41.6851
41.7838
41.9178
42.0823
42.2685
42.4686
42.6725
42.876
43.0722
43.2578
43.4289
43.5834
43.7101
43.826
43.9199
44.0084
44.0819
44.1568
44.2196
44.2773
44.324
44.3608
44.3843
44.3965
44.4026
44.4033
44.4022
44.4002
44.3933
44.394
44.3881
44.4001
44.4067
44.4404
44.4636
44.5182
44.5607
44.634
44.7013
44.7968
44.8881
45.0008
45.1114
45.2411
45.3668
45.5086
45.6435
45.7877
45.923
46.0703
46.2133
46.3683
46.5184
46.6843
46.8395
47.0152
47.1864
47.3741
47.5613
47.7562
47.9496
48.1559
48.3485
48.5592
48.76
48.9882
49.1952
49.4331
49.6515
49.8985
50.1033
50.3415
50.521
50.7257
50.8731
51.0453
51.1513
51.2849
51.345
51.4613
51.4771
51.5956
51.5886
51.7397
51.7338
51.9216
51.9343
52.1448
52.1911
52.413
52.4945
52.7336
52.8667
53.1364
53.2996
53.6036
53.754
54.0597
54.154
54.3741
54.3039
54.299
53.793
53.2311
51.547
49.7677
43.9944
38.1602
19.4053
47.3853
47.3848
47.3881
47.2403
46.987
46.7334
46.5581
46.4721
46.4556
46.4684
46.4854
46.4876
46.4734
46.4409
46.3963
46.3388
46.2734
46.1983
46.1174
46.0295
45.9399
45.85
45.7667
45.6899
45.6246
45.569
45.5257
45.4897
45.4604
45.4302
45.398
45.3587
45.3156
45.2675
45.219
45.167
45.1134
45.0537
44.9899
44.9188
44.8453
44.7706
44.7028
44.6455
44.6053
44.5814
44.5764
44.5839
44.6018
44.6192
44.6326
44.63
44.6104
44.5638
44.4929
44.3913
44.2645
44.111
43.9378
43.7459
43.5402
43.3234
43.1017
42.8825
42.6751
42.4907
42.3404
42.2305
42.1682
42.1501
42.1744
42.2286
42.3062
42.3918
42.4772
42.5484
42.5989
42.6208
42.612
42.5725
42.5068
42.4202
42.3187
42.211
42.1003
41.9982
41.9063
41.8363
41.7859
41.7659
41.7789
41.8326
41.9226
42.0469
42.199
42.3749
42.5631
42.7588
42.9546
43.1461
43.328
43.4962
43.6452
43.7684
43.8797
43.9704
44.0521
44.1188
44.181
44.2337
44.2773
44.311
44.3296
44.3339
44.3242
44.308
44.2859
44.2582
44.2324
44.1976
44.1786
44.1483
44.1463
44.1371
44.1615
44.1792
44.2242
44.264
44.3265
44.3891
44.4734
44.5572
44.6611
44.7632
44.8843
45.0001
45.1312
45.2559
45.3892
45.5126
45.6491
45.781
45.9254
46.0658
46.2212
46.3661
46.5342
46.6937
46.8762
47.0477
47.2346
47.4143
47.6157
47.7962
48.01
48.2061
48.4376
48.6472
48.8966
49.1264
49.3811
49.5961
49.8415
50.0196
50.229
50.3679
50.5371
50.6235
50.7536
50.7936
50.9067
50.8924
51.0137
50.9719
51.1214
51.0894
51.251
51.2503
51.4181
51.4522
51.6254
51.6868
51.8831
51.9667
52.2042
52.2813
52.5415
52.5771
52.8022
52.7329
52.8431
52.4875
52.3381
51.2904
50.623
47.7927
45.8666
38.7388
31.7153
18.9482
47.3837
47.3777
47.4273
47.2631
46.9733
46.6919
46.508
46.4356
46.4488
46.4977
46.5488
46.577
46.5786
46.552
46.5062
46.4439
46.3735
46.2953
46.215
46.1311
46.0487
45.9676
45.8937
45.8259
45.7681
45.7179
45.6775
45.6425
45.6133
45.584
45.5544
45.5194
45.481
45.4368
45.3904
45.3394
45.2867
45.2291
45.1695
45.1054
45.0411
44.9762
44.9172
44.8648
44.8252
44.7969
44.783
44.7778
44.7804
44.7821
44.7804
44.7661
44.7372
44.6863
44.6135
44.5148
44.3926
44.2471
44.0825
43.9018
43.7093
43.5091
43.3063
43.1074
42.92
42.7521
42.6128
42.5066
42.4391
42.4088
42.4158
42.4511
42.5091
42.5772
42.6464
42.7041
42.743
42.7573
42.7432
42.7036
42.6396
42.5593
42.4645
42.3667
42.2667
42.1753
42.0932
42.0278
41.9789
41.9564
41.9652
42.0114
42.0914
42.2046
42.3457
42.5095
42.6871
42.8723
43.0614
43.2456
43.4229
43.5856
43.7291
43.8477
43.9547
44.0434
44.1202
44.1835
44.2385
44.2844
44.3186
44.3396
44.3414
44.3266
44.2979
44.2589
44.2188
44.1669
44.1232
44.0666
44.0314
43.9822
43.9695
43.9491
43.9677
43.9802
44.0202
44.0547
44.1135
44.1728
44.2536
44.3341
44.4319
44.5283
44.6417
44.7489
44.871
44.9846
45.1082
45.2211
45.3502
45.4731
45.6118
45.7476
45.8977
46.0414
46.2059
46.3584
46.5356
46.6894
46.8689
47.0281
47.2229
47.3871
47.6014
47.7931
48.0283
48.2395
48.5033
48.7329
49.0005
49.216
49.4757
49.6413
49.866
49.9869
50.1652
50.2236
50.3585
50.3693
50.4848
50.4417
50.5703
50.5104
50.6427
50.6031
50.7181
50.7092
50.8235
50.8377
50.966
50.9931
51.1547
51.1745
51.3737
51.3562
51.5666
51.4504
51.65
51.3142
51.4341
50.6418
50.5394
48.7693
48.105
44.4133
41.9299
35.218
27.7195
19.1945
48.494
48.2878
47.6656
47.0923
46.6656
46.404
46.3059
46.3244
46.4102
46.5148
46.6093
46.67
46.6917
46.6743
46.6288
46.5621
46.4854
46.4024
46.32
46.2382
46.1617
46.0893
46.0251
45.967
45.918
45.8748
45.8393
45.8073
45.7797
45.7518
45.7238
45.6916
45.6566
45.6162
45.5731
45.5255
45.4759
45.4222
45.3675
45.3099
45.2531
45.1959
45.143
45.094
45.0535
45.0202
44.9964
44.9786
44.9664
44.954
44.9387
44.9141
44.877
44.8227
44.7493
44.6551
44.5402
44.4059
44.2547
44.0897
43.915
43.7341
43.5523
43.3744
43.2075
43.0569
42.9301
42.8302
42.7615
42.7235
42.7168
42.7363
42.776
42.8267
42.8784
42.9217
42.9489
42.9559
42.9386
42.8997
42.8393
42.764
42.6765
42.5857
42.4935
42.4072
42.3287
42.2621
42.2095
42.1802
42.1817
42.2175
42.2876
42.3891
42.5204
42.6726
42.8401
43.0167
43.1982
43.3756
43.548
43.705
43.8438
43.9584
44.0622
44.149
44.222
44.2841
44.3335
44.3737
44.3988
44.4065
44.3927
44.3584
44.3131
44.2546
44.1999
44.1303
44.0713
44.0014
43.9527
43.8973
43.8774
43.8565
43.869
43.8801
43.9153
43.9469
44.0075
44.0632
44.148
44.2256
44.3244
44.4159
44.5261
44.6248
44.7428
44.8443
44.9643
45.0679
45.1952
45.3087
45.4487
45.5805
45.7344
45.8789
46.0438
46.1892
46.3639
46.4977
46.6738
46.8083
46.9966
47.1421
47.3547
47.5343
47.7791
47.9806
48.2626
48.4809
48.7647
48.9753
49.2521
49.4046
49.6493
49.7467
49.9346
49.9637
50.1031
50.0808
50.1977
50.1389
50.2635
50.2098
50.3183
50.2741
50.3606
50.32
50.403
50.3683
50.4794
50.4396
50.5942
50.5174
50.7123
50.5355
50.7553
50.3926
50.6209
49.9413
50.0798
48.8514
48.6692
46.4652
45.3819
41.6953
38.4433
33.1026
26.0188
19.7234
49.3062
49.0072
47.939
47.0103
46.3964
46.1068
46.0772
46.1941
46.3692
46.5441
46.689
46.7834
46.8238
46.8138
46.7674
46.6952
46.6108
46.5212
46.4348
46.3533
46.2804
46.2152
46.1595
46.1111
46.0708
46.0355
46.0056
45.978
45.9528
45.9268
45.9003
45.8703
45.8378
45.8009
45.7612
45.7177
45.6719
45.6231
45.5732
45.5216
45.4704
45.4189
45.3697
45.3228
45.2807
45.243
45.211
45.183
45.1581
45.1332
45.1057
45.0713
45.0269
44.9694
44.8967
44.8079
44.7023
44.5809
44.4452
44.2978
44.1423
43.9824
43.8227
43.6673
43.5216
43.3895
43.2768
43.1861
43.1205
43.0801
43.0659
43.0751
43.1011
43.1365
43.1722
43.2019
43.2181
43.2179
43.1976
43.1591
43.1011
43.0288
42.945
42.8561
42.7659
42.6797
42.6005
42.5292
42.4696
42.4285
42.4207
42.4452
42.5045
42.5951
42.7175
42.8595
43.017
43.1862
43.3611
43.5333
43.7013
43.8559
43.9917
44.1051
44.2071
44.2918
44.3631
44.4237
44.4691
44.5012
44.5163
44.508
44.479
44.4247
44.3669
44.294
44.2273
44.1469
44.0763
44.0005
43.945
43.8949
43.8744
43.8613
43.8714
43.8859
43.9168
43.954
44.0153
44.0781
44.1675
44.2454
44.3485
44.4344
44.5433
44.6346
44.751
44.8451
44.9663
45.066
45.1937
45.304
45.4498
45.5781
45.7432
45.8885
46.0571
46.1985
46.3681
46.4846
46.6506
46.7652
46.9424
47.0653
47.2804
47.4364
47.6902
47.8772
48.1724
48.3772
48.6849
48.8809
49.1839
49.3158
49.5838
49.6574
49.8559
49.8447
49.9961
49.9337
50.0622
49.99
50.1203
50.0619
50.1779
50.1005
50.1922
50.0932
50.1717
50.057
50.1746
50.0399
50.1974
50.007
50.1854
49.861
50.0309
49.4973
49.6154
48.7466
48.6672
47.2728
46.7198
44.5223
42.9564
39.7574
36.2231
32.1951
26.0722
20.8396
49.9347
49.5843
48.192
46.966
46.1708
45.832
45.8541
46.0659
46.3343
46.5832
46.7792
46.9062
46.9627
46.9571
46.9063
46.8261
46.7322
46.6354
46.5441
46.4621
46.3918
46.3326
46.2844
46.2447
46.2126
46.1853
46.1616
46.1392
46.1172
46.0938
46.0686
46.0403
46.0093
45.9748
45.9377
45.8976
45.8556
45.8113
45.7658
45.719
45.6719
45.6246
45.578
45.5325
45.4891
45.4482
45.41
45.3742
45.3396
45.3048
45.2673
45.2249
45.1749
45.1155
45.0447
44.9619
44.866
44.7578
44.638
44.5089
44.3732
44.2346
44.0963
43.9625
43.8369
43.723
43.6245
43.5444
43.4854
43.4487
43.434
43.439
43.4578
43.4825
43.5056
43.5231
43.53
43.5243
43.5016
43.4617
43.4041
43.3324
43.2484
43.1569
43.0644
42.9753
42.8923
42.8134
42.744
42.6897
42.6696
42.6838
42.7348
42.8185
42.9346
43.0697
43.2213
43.3854
43.5543
43.7242
43.8887
44.0416
44.1757
44.2914
44.3892
44.471
44.5409
44.5973
44.6376
44.6595
44.6654
44.6424
44.5996
44.5289
44.4581
44.3742
44.2972
44.2122
44.1344
44.0615
44.0095
43.974
43.9626
43.9636
43.979
43.9999
44.0317
44.0757
44.1401
44.2152
44.3066
44.3952
44.4967
44.5863
44.6917
44.7844
44.8995
44.9981
45.1224
45.2263
45.3566
45.4737
45.6223
45.7534
45.921
46.0722
46.2444
46.3848
46.5462
46.6528
46.8009
46.9071
47.0647
47.1639
47.3766
47.5116
47.7561
47.9424
48.2442
48.4339
48.7707
48.9536
49.2714
49.3966
49.6728
49.739
49.9432
49.911
50.0534
49.9749
50.0985
50.036
50.161
50.1087
50.2175
50.1331
50.2042
50.0707
50.1112
49.9485
50.0056
49.8204
49.8917
49.6472
49.7133
49.315
49.3421
48.7226
48.6369
47.7248
47.4022
45.9899
45.1916
43.1179
41.3696
38.7896
35.3948
32.2598
27.1816
22.5181
50.725
50.278
48.4641
46.9147
45.9512
45.5668
45.6342
45.9396
46.303
46.6252
46.8682
47.0234
47.0928
47.0892
47.0322
46.9432
46.8401
46.7371
46.6423
46.5606
46.493
46.4395
46.3979
46.3663
46.3416
46.3217
46.3039
46.2867
46.2682
46.2477
46.2242
46.1977
46.168
46.1354
46.1001
46.0627
46.0232
45.9822
45.9396
45.8961
45.8515
45.8067
45.7614
45.7166
45.6721
45.6289
45.5863
45.5449
45.5032
45.4612
45.4167
45.3692
45.3162
45.2571
45.1897
45.1139
45.0281
44.9334
44.8293
44.7183
44.6015
44.4825
44.3636
44.2492
44.1414
44.0447
43.9608
43.8934
43.8436
43.8138
43.8016
43.806
43.8201
43.8373
43.8509
43.8595
43.8593
43.8501
43.8261
43.7851
43.7265
43.6532
43.5659
43.4696
43.3729
43.2785
43.1914
43.1051
43.0258
42.9615
42.9314
42.9393
42.9858
43.0674
43.1784
43.3086
43.4556
43.6152
43.7811
43.9495
44.1142
44.2685
44.4014
44.5167
44.6085
44.6885
44.7543
44.8025
44.8341
44.8441
44.8399
44.8067
44.7509
44.6687
44.5843
44.4949
44.4118
44.3282
44.2529
44.1927
44.1541
44.1403
44.1458
44.1661
44.193
44.2253
44.265
44.3197
44.3928
44.4774
44.5732
44.6682
44.7677
44.8675
44.9731
45.0747
45.1916
45.3022
45.4319
45.5479
45.6826
45.8092
45.9593
46.0961
46.2694
46.421
46.6004
46.7391
46.9036
46.9958
47.1285
47.2358
47.3734
47.4597
47.6626
47.7729
48.007
48.1794
48.4908
48.6695
49.0227
49.2097
49.5303
49.6663
49.9474
50.016
50.2277
50.172
50.2944
50.2129
50.3151
50.273
50.3961
50.3572
50.4592
50.3737
50.4302
50.2642
50.2603
50.0534
50.0264
49.7939
49.7608
49.4632
49.4186
48.9413
48.8681
48.1794
47.9645
47.0267
46.5833
45.1916
44.3039
42.4501
40.6528
38.6173
35.5421
32.8799
28.6709
24.4358
51.0879
50.629
48.6669
46.9542
45.88
45.4452
45.5204
45.8763
46.3005
46.6768
46.958
47.137
47.2165
47.213
47.1486
47.0509
46.9398
46.8321
46.7352
46.6545
46.59
46.5416
46.506
46.4812
46.463
46.4492
46.4365
46.4237
46.4083
46.3903
46.3685
46.3436
46.315
46.284
46.25
46.2144
46.1764
46.1373
46.0961
46.0543
46.0109
45.9673
45.9224
45.8777
45.8322
45.7872
45.7414
45.6961
45.6497
45.6033
45.5549
45.5051
45.4515
45.3946
45.3317
45.2637
45.1881
45.1062
45.0167
44.9222
44.8229
44.7223
44.6214
44.5251
44.4348
44.355
44.2864
44.2326
44.193
44.1707
44.1627
44.1676
44.1777
44.1891
44.1955
44.197
44.1922
44.1813
44.1565
44.1156
44.0572
43.9827
43.8916
43.7894
43.6853
43.5847
43.4924
43.3987
43.3163
43.2462
43.213
43.2194
43.2669
43.3477
43.4547
43.5783
43.7219
43.8789
44.046
44.2142
44.3821
44.5417
44.6775
44.7905
44.8787
44.9544
45.0111
45.0467
45.0641
45.0621
45.0484
45.0053
44.9398
44.8512
44.7597
44.6691
44.5871
44.5102
44.4476
44.4064
44.3904
44.403
44.4315
44.4761
44.52
44.5687
44.6219
44.688
44.7724
44.8652
44.9677
45.0664
45.1684
45.2779
45.3868
45.4977
45.6215
45.7397
45.8792
46.0056
46.1476
46.2894
46.4465
46.5916
46.7749
46.9275
47.1253
47.2554
47.4426
47.5026
47.6375
47.7353
47.8532
47.9377
48.1331
48.21
48.4509
48.5991
48.9251
49.0909
49.4599
49.6395
49.978
50.1019
50.4198
50.4854
50.7199
50.5954
50.7068
50.6332
50.7294
50.7009
50.8207
50.803
50.9102
50.8164
50.8726
50.6621
50.6258
50.3722
50.2798
49.9866
49.883
49.5344
49.3738
48.8951
48.7378
48.091
47.8197
46.8353
46.3316
44.976
44.0123
42.4158
40.6359
38.9606
36.2494
33.8012
30.231
26.4006
51.2863
50.855
48.8494
47.0622
45.9207
45.4362
45.4955
45.8702
46.3288
46.739
47.0454
47.2395
47.3247
47.3195
47.249
47.1445
47.028
46.9177
46.8207
46.7422
46.6813
46.638
46.608
46.5891
46.5763
46.5675
46.5587
46.5491
46.5361
46.5202
46.4998
46.4763
46.4488
46.419
46.386
46.3515
46.3144
46.2763
46.236
46.1951
46.1521
46.1089
46.0639
46.0188
45.9722
45.9259
45.8784
45.8312
45.7826
45.7344
45.6846
45.6345
45.5824
45.5291
45.4721
45.4123
45.347
45.2772
45.2012
45.122
45.0389
44.9552
44.8714
44.7926
44.7191
44.6556
44.6026
44.5627
44.5345
44.5214
44.5192
44.5248
44.5316
44.5389
44.5411
44.5376
44.529
44.517
44.4933
44.4546
44.3975
44.3215
44.2276
44.1214
44.0107
43.9011
43.8029
43.703
43.6209
43.5495
43.5191
43.5268
43.5814
43.6637
43.7699
43.8882
44.0323
44.1884
44.3561
44.5244
44.6994
44.8661
45.0075
45.1172
45.2004
45.2662
45.3103
45.3311
45.3343
45.3212
45.2986
45.2471
45.1764
45.0858
44.9943
44.9096
44.8365
44.7746
44.7321
44.715
44.7289
44.77
44.8288
44.8995
44.9657
45.0344
45.104
45.1799
45.2733
45.3702
45.4797
45.5801
45.691
45.8057
45.9242
46.0427
46.1794
46.3003
46.4551
46.5909
46.7461
46.9005
47.0723
47.2267
47.4315
47.5797
47.8133
47.9279
48.1456
48.1554
48.3203
48.3829
48.5149
48.5806
48.7716
48.815
49.0818
49.2039
49.5581
49.6843
50.1003
50.2451
50.6502
50.7023
51.1006
51.1376
51.4333
51.1835
51.325
51.2257
51.35
51.3296
51.479
51.4487
51.5857
51.4655
51.5442
51.2436
51.2233
50.9141
50.8098
50.4353
50.2576
49.8734
49.7006
49.2328
49.0894
48.3609
48.0843
47.0467
46.4704
45.1991
44.1334
42.7809
41.1095
39.6103
37.2111
34.8678
31.7396
28.296
51.4075
50.9885
48.9682
47.1516
45.9851
45.4816
45.5374
45.9214
46.3952
46.8187
47.1336
47.3311
47.4149
47.405
47.3296
47.2216
47.1043
46.9952
46.9013
46.8269
46.771
46.7329
46.7081
46.6939
46.6852
46.6797
46.6734
46.6657
46.6541
46.6395
46.6203
46.5979
46.5715
46.5427
46.5107
46.4771
46.4408
46.4033
46.3636
46.3229
46.2802
46.2368
46.1916
46.1461
46.0991
46.0521
46.0039
45.9559
45.9072
45.8592
45.8104
45.7621
45.7129
45.664
45.6136
45.5623
45.5075
45.4497
45.3879
45.3238
45.2566
45.1893
45.123
45.0615
45.0043
44.956
44.9186
44.8931
44.8768
44.8723
44.8752
44.8815
44.8866
44.8912
44.8902
44.8843
44.8749
44.863
44.8416
44.8071
44.7531
44.6774
44.582
44.4714
44.356
44.2391
44.1364
44.0336
43.9554
43.8861
43.8677
43.8784
43.9436
44.0285
44.1372
44.2512
44.4004
44.556
44.7255
44.8911
45.0746
45.2449
45.3904
45.4935
45.5681
45.6173
45.6466
45.6517
45.6454
45.624
45.5939
45.5364
45.4683
45.3797
45.3001
45.2256
45.1745
45.1305
45.1205
45.1313
45.1821
45.2503
45.3438
45.4358
45.5332
45.6195
45.7118
45.7964
45.8987
45.9923
46.1106
46.2069
46.3321
46.4458
46.5827
46.7065
46.8587
46.9862
47.1594
47.3025
47.4782
47.642
47.8392
47.9962
48.231
48.3721
48.6512
48.7393
48.9919
48.9407
49.1651
49.1822
49.3611
49.3742
49.5903
49.6041
49.9126
49.9929
50.3892
50.4657
50.9301
51.047
51.5348
51.5119
52.0146
51.9855
52.3222
51.9485
52.1882
52.0091
52.2192
52.1473
52.3534
52.3025
52.4633
52.3334
52.4409
52.0172
52.0333
51.6629
51.5291
51.1184
50.9611
50.6206
50.4333
49.8834
49.6789
48.8671
48.6499
47.5444
46.857
45.695
44.5869
43.4096
41.9098
40.4383
38.2501
35.9933
33.1761
30.0753
51.4448
51.0219
49.0037
47.2031
46.0581
45.578
45.6531
46.045
46.5161
46.9295
47.2322
47.4171
47.4893
47.4706
47.3914
47.2838
47.1703
47.0668
46.9794
46.9113
46.8616
46.8287
46.8083
46.7972
46.7908
46.7866
46.7814
46.7743
46.7636
46.7495
46.7312
46.7096
46.6843
46.6565
46.6256
46.5927
46.5574
46.5205
46.4817
46.4416
46.3996
46.3563
46.3114
46.2658
46.2189
46.172
46.1245
46.0775
46.0306
45.9846
45.9385
45.8933
45.8487
45.8053
45.7618
45.7187
45.6744
45.6291
45.5816
45.5326
45.4815
45.4308
45.3824
45.3381
45.298
45.2657
45.2439
45.2317
45.2253
45.2268
45.2335
45.2407
45.2446
45.245
45.2393
45.2312
45.2227
45.2141
45.1987
45.1712
45.1236
45.0532
44.96
44.8482
44.7292
44.6079
44.5019
44.4011
44.3293
44.2704
44.2698
44.2848
44.3621
44.4471
44.5588
44.6654
44.8215
44.9752
45.1475
45.3083
45.502
45.6728
45.8238
45.9177
45.9809
46.0028
46.0205
46.0055
45.9958
45.9674
45.9364
45.8764
45.8187
45.7386
45.6837
45.626
45.6098
45.5902
45.6233
45.6631
45.7562
45.8518
45.9848
46.0967
46.2227
46.324
46.4427
46.5343
46.6492
46.7447
46.8641
46.9598
47.0976
47.2132
47.3664
47.5023
47.6654
47.8097
47.9971
48.1471
48.3379
48.5097
48.7281
48.8996
49.151
49.2974
49.6006
49.6936
49.9276
49.8539
50.1591
50.1066
50.343
50.2901
50.5523
50.536
50.8896
50.9603
51.3762
51.4238
51.9527
52.0501
52.5787
52.536
53.0743
53.0211
53.3212
52.887
53.1656
52.9525
53.2722
53.1899
53.4283
53.3513
53.532
53.4165
53.4498
53.0056
53.0474
52.5857
52.4451
52.0467
51.8825
51.5533
51.287
50.7758
50.5259
49.7028
49.3021
48.2026
47.4724
46.4006
45.3562
44.2134
42.8517
41.3341
39.3051
37.1432
34.5559
31.7375
51.3781
50.945
48.9622
47.2305
46.1568
45.744
45.859
46.2509
46.6955
47.0725
47.3403
47.4947
47.5442
47.5134
47.4323
47.3296
47.2252
47.1317
47.0544
46.9952
46.9529
46.9253
46.9085
46.899
46.8933
46.8889
46.8834
46.8759
46.8652
46.8513
46.8337
46.813
46.7889
46.7621
46.7326
46.701
46.6672
46.6317
46.5943
46.5552
46.514
46.4714
46.4271
46.3821
46.3365
46.2912
46.2461
46.202
46.1584
46.1156
46.0738
46.0334
45.9945
45.9579
45.9227
45.8886
45.8547
45.8211
45.7876
45.7542
45.7194
45.6848
45.6534
45.6262
45.6033
45.5881
45.5817
45.581
45.584
45.5915
45.6009
45.6073
45.6083
45.6039
45.5947
45.586
45.5791
45.5741
45.5664
45.5481
45.5099
45.4488
45.3629
45.2544
45.135
45.0158
44.9109
44.8158
44.7495
44.7061
44.7219
44.7462
44.8321
44.9138
45.0227
45.1265
45.2928
45.4419
45.6144
45.7712
45.9774
46.1457
46.3033
46.3839
46.4356
46.4305
46.4349
46.4032
46.3993
46.3625
46.3373
46.2782
46.2387
46.1767
46.1565
46.1252
46.1527
46.169
46.252
46.326
46.4648
46.5854
46.7519
46.8802
47.0364
47.1503
47.2959
47.3974
47.5272
47.6211
47.7462
47.8448
47.9929
48.1219
48.2924
48.443
48.6177
48.7787
48.9687
49.1283
49.3342
49.5116
49.7387
49.9322
50.1885
50.3678
50.6501
50.79
50.966
50.914
51.2318
51.1435
51.4008
51.3559
51.6682
51.6363
51.9976
52.0901
52.4666
52.5341
53.1033
53.2391
53.7824
53.7826
54.2546
54.2368
54.396
53.976
54.2979
54.0164
54.4619
54.3587
54.6339
54.5915
54.7497
54.6391
54.6551
54.207
54.2046
53.6646
53.5332
53.163
52.979
52.6975
52.3657
51.9633
51.4302
50.6325
50.0551
49.0426
48.321
47.3129
46.3512
45.1499
43.8789
42.2712
40.39
38.3128
35.9084
33.318
51.1623
50.7244
48.8476
47.2642
46.3208
46.0119
46.1676
46.5364
46.9245
47.2379
47.4487
47.5568
47.5765
47.5332
47.4536
47.361
47.2706
47.1915
47.1274
47.0789
47.0444
47.0215
47.0067
46.9974
46.9906
46.9846
46.9776
46.9689
46.9575
46.9434
46.9261
46.906
46.8828
46.8573
46.8295
46.7998
46.7681
46.7346
46.6993
46.662
46.6225
46.5812
46.5382
46.4949
46.4523
46.4108
46.3697
46.3293
46.2898
46.2518
46.2152
46.1806
46.1486
46.1197
46.0932
46.0691
46.0472
46.0278
46.0097
45.9904
45.9704
45.9522
45.9378
45.9271
45.9218
45.9229
45.9298
45.9395
45.951
45.9647
45.9773
45.9845
45.9839
45.9747
45.9609
45.951
45.9465
45.9472
45.948
45.9407
45.9161
45.8687
45.7938
45.6943
45.5792
45.4673
45.3644
45.2788
45.2205
45.1965
45.219
45.2474
45.3338
45.4123
45.5172
45.6357
45.8142
45.9636
46.134
46.2946
46.5034
46.6621
46.8183
46.8902
46.9354
46.9122
46.9084
46.8686
46.8691
46.8313
46.8175
46.7644
46.7466
46.7096
46.7272
46.7331
46.8093
46.8693
47.0019
47.1168
47.2952
47.4433
47.6361
47.7812
47.9608
48.0879
48.255
48.3726
48.5167
48.6161
48.7496
48.8593
49.0228
49.165
49.3557
49.5253
49.7114
49.8872
50.0645
50.2347
50.4364
50.6296
50.8585
51.0894
51.329
51.5497
51.8052
51.9838
52.1031
52.1687
52.3926
52.2996
52.5463
52.5564
52.8542
52.8804
53.207
53.3704
53.6363
53.7953
54.3497
54.5234
55.0621
55.172
55.5202
55.5173
55.6314
55.259
55.5373
55.3689
55.7557
55.6301
55.9357
55.9562
56.0844
56.0071
55.9018
55.4557
55.4562
54.8965
54.74
54.4242
54.1713
53.9558
53.4683
53.1447
52.4087
51.8368
50.9587
50.0651
49.2995
48.4014
47.4863
46.2031
44.9678
43.254
41.5021
39.4831
37.2321
34.8178
50.6908
50.2768
48.6669
47.3579
46.6171
46.4184
46.5819
46.8871
47.1842
47.4083
47.5445
47.5988
47.5883
47.5358
47.4622
47.3836
47.3104
47.2477
47.1975
47.1592
47.1312
47.1111
47.0967
47.0858
47.0767
47.0682
47.059
47.0486
47.0362
47.0217
47.0045
46.985
46.963
46.9389
46.9129
46.8852
46.856
46.8252
46.7928
46.7581
46.7211
46.6826
46.6432
46.6034
46.5643
46.5272
46.4923
46.4585
46.4248
46.3918
46.3606
46.3329
46.3095
46.2896
46.2727
46.2598
46.2507
46.2449
46.2418
46.2394
46.2367
46.2344
46.2352
46.2402
46.2502
46.2644
46.2822
46.3018
46.3218
46.3413
46.357
46.3645
46.362
46.3492
46.3314
46.3186
46.3163
46.3233
46.3338
46.3389
46.3299
46.2995
46.2394
46.1526
46.049
45.9508
45.8521
45.7817
45.7307
45.7205
45.7438
45.7808
45.863
45.9349
46.0392
46.1856
46.372
46.526
46.6918
46.8681
47.0643
47.2158
47.3625
47.433
47.4727
47.4535
47.4398
47.4054
47.4093
47.3849
47.3847
47.3521
47.3544
47.3495
47.4024
47.4605
47.5768
47.6907
47.8568
48.0188
48.2172
48.396
48.604
48.774
48.97
49.1184
49.2986
49.4348
49.5988
49.7087
49.8616
49.9926
50.1681
50.3335
50.5329
50.7143
50.9065
51.0829
51.2467
51.4276
51.6226
51.8322
52.0752
52.3484
52.571
52.8345
53.0398
53.2327
53.3721
53.5108
53.6133
53.6488
53.8033
53.9033
54.1632
54.2269
54.4824
54.7003
54.9209
55.202
55.6043
55.9502
56.417
56.5573
56.7958
56.8031
56.889
56.6793
56.9334
56.9057
57.1158
57.091
57.2925
57.379
57.4031
57.3205
57.1687
56.88
56.7784
56.2492
56.0513
55.7509
55.4227
55.2332
54.6412
54.3743
53.4371
53.0678
51.9232
51.2555
50.4242
49.6547
48.6624
47.3554
46.1215
44.3236
42.6522
40.6587
38.5422
36.2546
49.9274
49.6065
48.4726
47.5633
47.0655
46.9475
47.0625
47.2555
47.431
47.552
47.6122
47.6185
47.5856
47.5301
47.4659
47.4027
47.346
47.2981
47.2592
47.2284
47.2041
47.1849
47.1693
47.1561
47.1444
47.1333
47.1221
47.1103
47.0973
47.0825
47.0655
47.0464
47.0254
47.0027
46.9784
46.9532
46.9275
46.9005
46.8714
46.8401
46.807
46.7722
46.737
46.7029
46.6699
46.6386
46.6099
46.5838
46.5588
46.5334
46.5093
46.4904
46.4777
46.4692
46.4638
46.4626
46.4663
46.4742
46.4839
46.4936
46.5047
46.5184
46.5349
46.5546
46.5773
46.6016
46.6273
46.6534
46.6794
46.7034
46.7211
46.729
46.7253
46.7107
46.6906
46.6761
46.6757
46.6876
46.7045
46.7182
46.7213
46.7068
46.6648
46.5957
46.5085
46.4292
46.337
46.2909
46.251
46.2527
46.2735
46.3272
46.3987
46.4779
46.5923
46.7553
46.9326
47.0966
47.2682
47.4639
47.6422
47.7955
47.9234
48.0018
48.0361
48.0364
48.0172
48.0054
48.0077
48.0132
48.0237
48.0316
48.0514
48.0937
48.1723
48.2882
48.4341
48.5994
48.7829
48.9835
49.1834
49.3962
49.6032
49.7996
49.9994
50.1836
50.3724
50.5529
50.7243
50.8732
51.0295
51.1951
51.3707
51.567
51.762
51.9692
52.1513
52.3353
52.4915
52.688
52.8734
53.108
53.3511
53.6406
53.8655
54.1847
54.3123
54.5696
54.6447
54.8258
54.8965
55.0429
55.1342
55.3228
55.4388
55.5785
55.7794
56.0479
56.1978
56.6584
56.9456
57.4708
57.6541
57.8762
58.0094
58.1069
58.2096
58.2507
58.3647
58.4145
58.4649
58.606
58.6515
58.7839
58.7325
58.6857
58.383
58.3573
58.0011
57.6981
57.3956
57.1259
56.7413
56.5744
55.8246
55.4789
54.5008
54.2055
53.0046
52.6203
51.5663
50.9038
49.7622
48.558
47.2595
45.4438
43.8035
41.8314
39.82
37.6126
49.0921
48.9246
48.3712
47.8984
47.6152
47.5088
47.5158
47.5683
47.6202
47.6492
47.6487
47.6218
47.5769
47.5234
47.4692
47.4188
47.3746
47.3368
47.3049
47.2779
47.2549
47.2351
47.2179
47.2027
47.1889
47.1761
47.1635
47.1506
47.137
47.1221
47.1052
47.0864
47.0662
47.0454
47.0239
47.0012
46.9779
46.9544
46.9301
46.9032
46.8741
46.8451
46.8167
46.7884
46.7617
46.7391
46.7201
46.7031
46.6869
46.6712
46.6586
46.6515
46.6497
46.652
46.6585
46.6698
46.6849
46.7032
46.7242
46.7465
46.7684
46.7908
46.8157
46.8437
46.8736
46.9037
46.9341
46.9642
46.9929
47.0173
47.0343
47.0435
47.0435
47.0331
47.0155
47.002
47.0021
47.0147
47.0349
47.0541
47.0657
47.0632
47.0365
46.9865
46.9219
46.8725
46.8008
46.7795
46.7485
46.7676
46.7936
46.8701