/*--------------------------------*- C++ -*----------------------------------*\
| =========                 |                                                 |
| \\      /  F ield         | OpenFOAM: The Open Source CFD Toolbox           |
|  \\    /   O peration     | Version:  2.4.0                                 |
|   \\  /    A nd           | Web:      www.OpenFOAM.org                      |
|    \\/     M anipulation  |                                                 |
\*---------------------------------------------------------------------------*/
FoamFile
{
    version     2.0;
    format      ascii;
    class       volScalarField;
    location    "0.4";
    object      p;
}
// * * * * * * * * * * * * * * * * * * * * * * * * * * * * * * * * * * * * * //

dimensions      [0 2 -2 0 0 0 0];

internalField   nonuniform List<scalar> 
8800
(
94.055
81.7085
74.3078
70.7795
68.9024
67.4706
66.3113
65.1848
64.1633
63.2104
62.2193
61.3623
60.4134
59.4958
58.7848
57.8519
57.0677
56.5749
55.7732
55.0559
90.9416
81.3547
74.4772
70.893
68.9632
67.4948
66.319
65.1864
64.1593
63.2108
62.2132
61.3621
60.4136
59.4866
58.7901
57.8505
57.0572
56.583
55.7855
54.9711
88.9749
81.4316
75.0813
71.2696
69.1304
67.5722
66.366
65.2177
64.1832
63.2305
62.22
61.3702
60.4162
59.4789
58.7944
57.8421
57.0466
56.5796
55.8568
54.9794
87.439
81.4923
75.6687
71.6941
69.315
67.6611
66.4266
65.2713
64.2343
63.2691
62.2462
61.3896
60.4275
59.4822
58.7943
57.836
57.0372
56.5643
55.9425
55.2095
86.1885
81.4647
76.1492
72.1008
69.4818
67.7312
66.471
65.3252
64.2945
63.3192
62.2833
61.416
60.4432
59.4971
58.7838
57.8365
57.0191
56.5463
55.8716
55.5142
85.2031
81.3675
76.518
72.4508
69.6356
67.7789
66.4935
65.3686
64.3475
63.3657
62.3245
61.4392
60.4619
59.5095
58.7684
57.8409
57.0025
56.5178
55.896
56.0451
84.4439
81.2537
76.7912
72.7325
69.7758
67.8104
66.4977
65.4
64.3903
63.4059
62.3583
61.4598
60.4832
59.5108
58.7519
57.8472
56.9921
56.4996
56.0084
56.3316
83.891
81.1528
76.9759
72.945
69.9015
67.8318
66.4918
65.4215
64.4215
63.4366
62.3865
61.4763
60.4953
59.5163
58.7464
57.8482
56.9936
56.5048
56.1121
56.5867
83.5317
81.0784
77.0936
73.0864
69.9889
67.8467
66.4829
65.4333
64.4456
63.4568
62.4063
61.4862
60.5078
59.5202
58.7404
57.8593
57.003
56.5143
56.2053
56.7888
83.3579
81.0397
77.1499
73.1562
70.0348
67.8546
66.4762
65.4398
64.4592
63.4653
62.4181
61.4926
60.5058
59.5321
58.7407
57.8686
57.0225
56.5256
56.2633
56.953
83.3562
81.0427
77.1526
73.1534
70.0349
67.8588
66.4719
65.4409
64.4626
63.4631
62.4215
61.4927
60.5103
59.5153
58.7432
57.8837
57.0412
56.5448
56.2897
57.0376
83.5307
81.0866
77.0989
73.0776
69.9931
67.8572
66.4697
65.4385
64.4563
63.4477
62.4152
61.4908
60.5118
59.5244
58.748
57.9048
57.0648
56.56
56.3028
57.0587
83.886
81.1639
76.9882
72.9311
69.9046
67.8507
66.4697
65.4272
64.4421
63.4234
62.3977
61.4837
60.5128
59.5331
58.7561
57.9276
57.0918
56.5773
56.2956
56.9956
84.4353
81.2664
76.807
72.7139
69.7779
67.8384
66.4664
65.4074
64.4182
63.3876
62.3742
61.4702
60.5111
59.5371
58.7683
57.9628
57.12
56.5968
56.2836
56.8643
85.1918
81.3807
76.54
72.4275
69.6378
67.8139
66.4529
65.3768
64.3865
63.3419
62.34
61.4529
60.5051
59.5394
58.7823
57.9933
57.1605
56.6307
56.274
56.6597
86.1756
81.4794
76.1736
72.0715
69.4845
67.7784
66.4179
65.3316
64.3486
63.2858
62.3006
61.4318
60.5008
59.5328
58.7936
58.0285
57.2066
56.6701
56.3013
56.3905
87.4242
81.5058
75.698
71.6594
69.3137
67.7212
66.364
65.2734
64.3031
63.2315
62.2606
61.4094
60.4944
59.5276
58.8046
58.051
57.2543
56.7124
56.3548
56.1097
88.961
81.4414
75.1129
71.2329
69.1276
67.6406
66.3007
65.2143
64.2597
63.1919
62.2334
61.3922
60.4894
59.5282
58.8115
58.0645
57.2926
56.7455
56.4061
55.9653
90.9276
81.3612
74.5107
70.8588
68.9585
67.5618
66.2567
65.1814
64.2346
63.1756
62.2256
61.3857
60.4876
59.5368
58.8168
58.0707
57.3144
56.7666
56.3932
55.8928
94.0411
81.7142
74.3396
70.7456
68.9007
67.5327
66.2516
65.1836
64.232
63.1788
62.2324
61.3856
60.4874
59.544
58.8197
58.0697
57.323
56.7733
56.388
56.0107
55.6366
55.8591
55.9457
55.8964
55.751
55.5644
55.3941
55.2816
55.2698
55.3504
55.5086
55.7079
55.8759
55.9957
56.0306
55.948
55.7541
55.4426
55.0389
54.573
54.0244
53.4298
52.908
52.4831
52.2055
52.186
52.4
52.7954
53.3223
53.8339
54.1876
54.311
54.2874
54.2346
54.2016
54.1642
54.1813
54.3295
54.603
55.0447
55.6902
56.4569
57.3236
58.2141
58.9713
59.6012
59.9564
59.8108
59.2437
58.2674
56.6581
54.6131
52.3649
49.9595
47.3517
44.6851
42.2972
40.4469
39.1277
38.3007
38.1281
38.5173
39.2784
40.4874
41.9017
43.2132
44.6699
45.9915
46.9795
48.061
48.907
49.5472
50.0925
50.3628
50.557
50.5661
50.3853
50.2402
50.1166
49.922
49.8392
49.9823
50.047
50.2326
50.6389
51.0308
51.5469
52.1375
52.5945
53.0112
53.4884
53.7834
53.8586
53.8337
53.7689
53.6516
53.3527
53.0835
52.8477
52.5246
52.4075
52.272
51.9704
51.9041
51.8633
51.4959
51.5039
51.4854
50.9997
50.7243
50.3157
49.7033
49.0651
48.4506
47.2899
46.5203
45.6459
43.8608
42.7985
41.7241
39.7477
38.3256
36.8071
34.8093
33.2998
31.5656
29.9072
28.6336
27.4141
26.3399
26.0903
25.9548
26.575
27.8658
29.9512
33.2875
37.3402
42.286
47.4385
53.1917
58.6647
63.9341
68.5875
72.792
75.9985
78.1748
80.2954
81.7588
82.8812
83.4354
84.1317
84.2661
84.5998
84.7178
84.6625
84.5734
84.2199
83.8967
83.1996
82.2934
80.8624
79.2741
77.4773
74.6624
70.9333
66.7438
61.2976
55.7481
50.9097
47.4004
44.5902
42.0439
39.0932
36.8043
36.9921
38.5443
40.3987
43.3918
47.2497
50.5894
53.639
57.2798
61.4474
65.2333
68.7001
71.8999
74.1963
75.4865
75.8336
75.9805
75.7627
74.7624
73.1084
70.3731
65.8643
59.1832
51.5791
42.7951
31.1356
7.2509
55.369
55.6634
55.9285
55.9886
55.8305
55.5881
55.372
55.2172
55.183
55.2525
55.3997
55.5977
55.7785
55.9178
55.9662
55.9001
55.7166
55.4147
55.0136
54.5538
54.0514
53.4928
52.9936
52.6175
52.3634
52.3188
52.4859
52.8019
53.2569
53.7419
54.1218
54.3082
54.345
54.3074
54.3271
54.3663
54.4434
54.6743
54.942
55.3826
56.0022
56.6405
57.4357
58.2462
58.8715
59.4212
59.6893
59.4735
58.8845
57.9595
56.4351
54.5136
52.4301
50.1535
47.7328
45.3328
43.1405
41.3201
40.1189
39.2927
38.9982
39.3143
40.0322
40.9754
42.2708
43.5598
44.8279
46.113
47.1286
48.0957
48.9551
49.5594
50.0597
50.3546
50.5446
50.5202
50.3743
50.3233
50.1824
50.0396
50.0398
50.0579
50.12
50.3853
50.7213
51.0381
51.4823
51.9296
52.3087
52.742
53.1638
53.4668
53.5436
53.4846
53.5849
53.6048
53.4274
53.3704
53.2792
53.0408
53.0659
53.1357
52.8846
52.8586
52.9898
52.749
52.6934
52.6287
52.1043
51.8245
51.3616
50.5607
49.7452
49.2078
47.753
46.4907
45.7458
43.8884
42.3011
41.0254
38.8904
37.0213
35.1695
33.0436
31.1517
28.9438
27.1029
25.4356
23.7238
22.5324
21.9436
21.5824
22.1548
23.2239
25.1689
28.8994
33.6465
39.0714
44.8792
51.4113
57.6511
63.4224
68.0751
72.2504
75.7429
78.2611
80.2923
81.6492
82.5516
83.2725
84.1429
84.428
84.844
84.93
85.1123
85.0587
84.7976
84.6637
83.88
82.8756
82.0539
80.3935
78.1107
74.8325
70.4929
65.5128
59.5361
52.9997
47.4629
43.74
41.1416
38.7379
35.5639
33.108
33.0211
34.4769
36.403
39.6152
43.7626
47.6346
51.2578
55.195
59.506
63.589
67.1696
70.4627
72.9081
74.3747
74.9903
75.0136
74.3995
72.942
71.1755
67.8335
63.3194
56.3693
47.3254
36.9163
25.5211
1.67854
55.2848
55.6156
55.9919
56.1291
55.9384
55.612
55.3284
55.1562
55.1176
55.1866
55.3225
55.5014
55.6763
55.8028
55.8501
55.7847
55.6189
55.3504
54.9718
54.5381
54.0861
53.6149
53.1553
52.8324
52.5825
52.5014
52.6165
52.8558
53.2562
53.659
54.0394
54.2957
54.4012
54.4334
54.4609
54.558
54.6929
54.9379
55.2524
55.6692
56.2053
56.7914
57.4517
58.1269
58.663
59.0302
59.2273
58.9996
58.3863
57.4692
56.0815
54.3331
52.3828
50.2809
48.0856
45.8299
43.8159
42.0915
40.7227
40.2422
40.0243
40.1012
40.836
41.7772
42.7793
44.031
45.2781
46.3222
47.3277
48.3111
48.9772
49.5529
50.1168
50.3183
50.4685
50.5634
50.3912
50.3837
50.3798
50.1757
50.1695
50.2661
50.2939
50.4643
50.7536
51.0772
51.4524
51.7787
52.0971
52.4708
52.7695
53.0502
53.2557
53.2911
53.4199
53.5626
53.5347
53.5873
53.6844
53.6609
53.7583
53.8951
53.8085
53.8536
54.0384
53.9295
53.8223
53.7649
53.2699
52.8227
52.368
51.5011
50.4275
49.7687
48.3038
46.7603
45.8127
43.959
41.9567
40.2222
38.1345
35.9438
33.622
31.3002
28.984
26.3498
24.2889
22.1198
20.0595
18.6912
17.5658
16.9519
17.2737
18.0788
20.1085
23.8066
28.7122
34.8946
41.6859
48.9224
55.767
62.211
67.502
71.9249
75.3311
77.7314
79.8607
81.6094
82.5418
83.4508
84.0831
84.5406
85.1042
85.1792
85.5546
85.5903
85.4906
85.6129
84.9125
84.4239
83.7381
82.0856
79.2007
75.168
70.1182
64.4168
58.3206
51.4912
45.5199
41.208
38.4181
35.8689
32.5465
29.9672
29.7421
30.941
32.7187
36.0851
40.534
45.0195
49.1666
53.0879
57.3982
61.9945
65.5772
68.806
71.8756
73.5707
74.4318
74.2016
73.119
71.4713
69.5532
66.4433
61.1381
54.6333
45.0798
32.5859
23.026
5.03538
55.4237
55.7173
55.9082
55.8954
55.7065
55.4248
55.1872
55.0258
55.039
55.1283
55.2579
55.433
55.5675
55.6799
55.7153
55.6637
55.5232
55.2716
54.9484
54.549
54.1539
53.753
53.3421
53.0625
52.8127
52.7344
52.7901
52.9739
53.3071
53.6276
53.9999
54.2614
54.4544
54.5585
54.6064
54.7439
54.8787
55.1544
55.4825
55.8761
56.3467
56.8388
57.3874
57.8623
58.3096
58.5744
58.6145
58.4204
57.8138
56.8829
55.6754
54.1308
52.3065
50.4083
48.5028
46.4354
44.5936
43.1706
41.9688
41.3843
41.2282
41.332
41.8923
42.7402
43.6795
44.7174
45.7954
46.7966
47.6578
48.5063
49.1509
49.639
50.1476
50.3308
50.4365
50.6393
50.5266
50.4721
50.5012
50.3056
50.3029
50.4691
50.5098
50.5836
50.7927
51.0391
51.3212
51.6259
51.9057
52.1959
52.4295
52.6585
52.9491
53.2009
53.3606
53.5487
53.6989
53.8814
54.119
54.2198
54.3685
54.6774
54.7948
54.8775
55.0193
55.007
55.008
54.8776
54.4011
53.9382
53.3943
52.4471
51.2249
50.362
49.0696
47.2533
45.7909
44.0112
41.7976
39.6714
37.4985
34.9138
32.3209
29.7236
27.0011
24.2314
21.7862
19.1742
16.9844
15.2304
13.5528
12.7921
12.7246
13.2213
15.1298
18.5101
23.3578
29.9905
37.5431
45.6449
53.3699
60.5718
66.3577
71.059
74.8843
77.5988
79.6772
81.3774
82.2834
83.3397
84.1001
84.7447
85.4002
85.6024
85.852
86.0027
86.356
86.6935
86.8057
86.1686
85.4759
83.8229
80.4596
75.6621
69.9948
63.6737
57.2788
50.5416
44.5078
39.6514
36.4504
33.5004
30.1127
27.565
27.0522
27.8066
29.477
33.0126
37.798
42.7026
46.8883
51.0391
55.8684
60.5314
64.2434
67.6882
71.3081
72.9795
73.7372
73.4353
72.1208
70.6157
68.4034
65.9714
60.5314
53.2941
45.462
31.8865
21.9196
9.51447
56.947
56.9395
56.0895
55.3849
55.0169
54.8638
54.8221
54.8238
54.9288
55.0682
55.221
55.3847
55.4908
55.5619
55.5653
55.5169
55.3915
55.1683
54.9061
54.556
54.2265
53.9021
53.5918
53.3314
53.0745
53.0106
53.015
53.142
53.4078
53.6398
54.0055
54.2202
54.4685
54.6559
54.7124
54.9075
55.0054
55.308
55.6213
55.963
56.4171
56.7813
57.23
57.5586
57.8643
58.0725
57.9912
57.7798
57.2107
56.3501
55.2951
53.9198
52.3513
50.6883
49.0211
47.3027
45.6788
44.4886
43.4527
42.8345
42.6927
42.8131
43.2379
43.9084
44.7743
45.6036
46.4815
47.4085
48.1103
48.7778
49.4357
49.8514
50.1853
50.438
50.5558
50.6818
50.6686
50.5741
50.5907
50.5199
50.4365
50.5351
50.6068
50.6418
50.8399
50.9862
51.1163
51.3843
51.6382
51.9398
52.2099
52.4351
52.7699
53.0433
53.2535
53.5859
53.9274
54.2428
54.507
54.7139
55.0516
55.4139
55.6569
55.9267
56.1067
56.1166
56.179
56.0991
55.6701
55.1452
54.4831
53.5219
52.3269
51.1373
49.761
47.8626
45.9943
44.1532
41.7865
39.3475
36.9154
34.1601
31.4475
28.5018
25.615
22.7197
19.8126
17.0485
14.6779
12.4503
10.481
9.49494
8.98675
9.11593
10.6586
13.7696
18.3168
24.7388
32.8138
41.9454
50.6753
58.4923
64.8487
70.1335
74.2752
77.2027
79.3103
81.1207
82.3188
83.309
84.2409
84.9012
85.4785
85.9595
86.1812
86.5414
87.2936
87.6881
87.9325
87.5393
86.911
85.0347
81.3663
76.1851
70.0417
63.1562
56.1608
49.3525
43.3612
38.4439
34.9422
31.6398
28.2732
25.6452
24.8061
24.9711
26.7347
30.7853
35.695
40.4837
44.9234
49.7634
54.8783
59.4071
63.6432
67.178
70.531
72.6453
73.1283
73.0729
71.6223
70.4417
68.3115
65.622
61.9515
52.8963
46.9198
34.662
23.2541
14.0266
58.0719
57.9089
56.3427
55.0039
54.3482
54.2396
54.3581
54.5735
54.7604
54.991
55.1935
55.3741
55.4841
55.4983
55.4565
55.4038
55.296
55.0787
54.9005
54.582
54.273
54.0398
53.7562
53.576
53.3365
53.2426
53.2569
53.3122
53.5129
53.7179
54.02
54.2301
54.4718
54.7031
54.8258
55.0121
55.1197
55.4007
55.6861
55.9559
56.403
56.6559
57.0385
57.2751
57.3861
57.5985
57.4233
57.1361
56.6981
55.9078
54.9588
53.812
52.5146
51.0958
49.7203
48.3532
47.0662
45.918
45.0399
44.5179
44.3231
44.4022
44.7335
45.228
45.9148
46.6288
47.3134
48.0396
48.6563
49.1878
49.7306
50.1002
50.3432
50.6205
50.7399
50.7524
50.794
50.7018
50.6626
50.7333
50.5932
50.5437
50.6263
50.5968
50.7168
50.8737
50.977
51.2033
51.3735
51.6032
51.979
52.28
52.5858
52.9141
53.2368
53.6274
54.0396
54.4757
54.9385
55.3038
55.7004
56.141
56.5431
56.9231
57.2129
57.3414
57.4606
57.4225
56.9999
56.4328
55.7896
54.792
53.4422
52.0244
50.4982
48.5777
46.4561
44.3059
41.8685
39.3134
36.6116
33.8259
30.9426
27.7336
24.7894
21.6199
18.5071
15.6489
12.8274
10.3706
8.35012
6.93068
5.99382
6.04433
7.05944
9.47883
13.8262
20.3327
28.5599
38.0506
47.5535
56.2028
63.4204
69.1557
73.4717
76.6624
79.0727
80.9558
82.3541
83.2984
84.2823
85.0451
85.709
86.2837
86.761
87.2723
87.9439
88.6662
88.7654
88.5397
88.0341
85.9513
82.0008
76.691
70.1306
62.9159
55.2025
48.0023
42.0678
37.3724
33.8272
30.3558
26.9737
24.0434
22.6526
22.6018
24.888
29.2298
33.9185
38.9318
44.0291
48.959
54.3683
59.1133
63.4017
67.1579
69.9912
72.4841
72.7686
72.7905
71.6348
70.276
69.4759
65.5991
64.0403
55.1216
48.893
38.7637
27.3696
18.8578
58.6899
58.5275
56.5941
54.8966
54.0251
53.8419
54.0054
54.3653
54.6393
54.9174
55.1987
55.3806
55.523
55.485
55.3814
55.3382
55.2106
55.0148
54.8577
54.581
54.3123
54.128
53.9145
53.7642
53.5681
53.4538
53.4794
53.4883
53.6275
53.8265
54.0539
54.2583
54.4672
54.7261
54.8989
55.0715
55.204
55.4591
55.7028
55.9189
56.3032
56.5356
56.7835
56.9845
57.02
57.1432
56.9717
56.6254
56.2691
55.5981
54.7528
53.8442
52.76
51.6067
50.4892
49.3543
48.2685
47.3329
46.5745
46.1372
45.948
45.9198
46.1568
46.5399
47.0161
47.6266
48.1543
48.6734
49.2436
49.6731
50.0439
50.4129
50.6204
50.7807
50.9291
50.9277
50.9111
50.8498
50.7649
50.7848
50.6933
50.6114
50.6431
50.5572
50.5337
50.7006
50.8243
50.9786
51.1934
51.3628
51.6311
51.9784
52.3359
52.7949
53.2481
53.6471
54.1322
54.7013
55.2647
55.8019
56.3857
56.9504
57.4295
57.8935
58.3496
58.6425
58.7862
58.7837
58.4461
57.8706
57.1303
56.0337
54.6014
53.0431
51.3156
49.2905
46.9961
44.6592
42.1927
39.4991
36.6489
33.7647
30.684
27.4437
24.243
20.7973
17.6373
14.3984
11.2366
8.6922
6.40625
4.72888
3.61278
3.55056
4.1785
6.15859
10.2387
16.7198
25.0822
34.6532
44.7254
53.9816
61.8873
68.0758
72.8338
76.2887
78.8773
80.7528
82.2855
83.3344
84.4198
85.2834
86.0558
86.5938
87.2405
87.8337
88.5173
89.6914
89.5452
89.5345
89.0088
86.8755
82.6621
77.0956
70.3294
63.3169
55.364
47.7568
41.5064
36.6823
33.1651
29.7414
26.3325
23.0889
20.931
21.2706
23.9481
28.2571
33.1482
38.4114
43.6676
48.5466
54.3877
59.4628
63.5918
67.749
70.1297
72.1124
72.7635
72.0452
72.0637
70.0031
70.6481
66.6308
65.4525
58.6133
51.0186
43.0739
32.7999
24.3398
59.0068
58.8963
56.845
54.9682
53.9224
53.5889
53.736
54.1442
54.5041
54.7858
55.1365
55.3551
55.5249
55.4859
55.3293
55.2982
55.1414
54.9771
54.832
54.5826
54.3556
54.1913
54.0486
53.9116
53.7443
53.6375
53.6527
53.6584
53.7293
53.9306
54.101
54.2752
54.4887
54.7332
54.9486
55.1118
55.2654
55.4927
55.6986
55.8572
56.1864
56.4115
56.5756
56.7287
56.7366
56.7829
56.6275
56.2812
55.9571
55.4318
54.6888
53.952
53.0686
52.1238
51.2166
50.2488
49.3732
48.6326
47.9836
47.584
47.4216
47.3017
47.4484
47.7535
48.0643
48.5454
48.9615
49.3473
49.8127
50.1583
50.4516
50.7503
50.9261
51.014
51.1179
51.1041
51.0573
51.0461
50.9042
50.8096
50.7619
50.6145
50.601
50.5766
50.4897
50.5171
50.5379
50.6536
50.921
51.1088
51.3486
51.7132
52.0461
52.5022
53.091
53.6648
54.2483
54.9105
55.6128
56.2949
56.9804
57.6794
58.3603
59.0105
59.5072
59.8702
60.1629
60.2269
59.9155
59.2858
58.4073
57.2732
55.8183
54.0594
52.1642
50.0506
47.6789
45.2272
42.6219
39.8658
36.9467
33.8676
30.6439
27.2461
23.7481
20.1553
16.6986
13.0622
9.8378
6.96781
4.28529
2.64102
1.40819
0.710576
1.65564
3.7849
7.71163
13.9086
22.2296
32.1858
42.7611
52.1169
60.5007
67.2925
72.2074
75.8327
78.602
80.6542
82.374
83.5403
84.7101
85.5392
86.3492
87.0094
87.7164
88.324
89.1109
89.9868
90.3389
90.4537
89.9189
87.7182
83.31
77.4609
70.8471
64.1502
56.3935
48.8461
42.051
36.6714
32.8626
29.5666
26.4069
23.4227
21.5505
21.6745
24.3993
28.5016
33.3038
38.2027
43.7431
49.0863
54.7659
60.303
64.2872
68.3715
70.8944
71.909
73.169
71.821
72.4245
70.397
70.8389
67.7675
65.7572
61.0421
53.4902
47.1453
38.3116
30.2644
59.1142
59.0352
57.0074
55.0584
53.9012
53.4475
53.5554
53.9916
54.4103
54.7333
55.083
55.3274
55.5237
55.4967
55.323
55.2556
55.0809
54.9434
54.8091
54.5828
54.3872
54.2168
54.1365
54.0238
53.8714
53.7929
53.8028
53.8084
53.8553
54.0137
54.172
54.3002
54.5128
54.7527
54.9587
55.1374
55.2877
55.503
55.6757
55.8021
56.0715
56.2944
56.3964
56.5043
56.5403
56.5117
56.3869
56.0708
55.7644
55.3614
54.7399
54.0799
53.4142
52.6159
51.8415
51.1114
50.3642
49.7841
49.2494
48.8519
48.7024
48.5715
48.6128
48.848
49.0768
49.3911
49.7619
50.0521
50.3725
50.7012
50.8998
51.0821
51.2746
51.3095
51.314
51.3216
51.2236
51.1832
51.0894
50.9598
50.8434
50.6053
50.4948
50.4833
50.3599
50.3342
50.327
50.3169
50.4722
50.6908
51.0051
51.4083
51.7921
52.257
52.8777
53.5265
54.2629
55.1403
55.9924
56.7544
57.5357
58.3922
59.2521
60.03
60.669
61.1723
61.5092
61.5869
61.3163
60.6717
59.6792
58.4152
56.9166
55.1074
53.0433
50.7983
48.3861
45.8688
43.1915
40.3185
37.2997
34.124
30.6942
27.0812
23.4334
19.6274
15.7807
11.9654
8.57258
5.3168
2.51138
0.738102
-0.639018
-1.05614
-0.189049
1.86322
5.97411
12.3707
20.691
30.7491
41.2942
50.8311
59.585
66.7233
71.6709
75.6847
78.6282
80.8667
82.5332
83.8207
84.9616
85.8842
86.6207
87.3787
88.1752
88.8062
89.7885
90.8045
91.2394
91.3011
90.8457
88.4334
84.0207
78.2316
71.7914
64.971
57.4654
50.1813
43.0596
37.4897
33.2576
29.8426
27.035
24.5755
23.4207
23.5542
25.9603
29.6112
34.057
39.0903
44.8473
50.6414
55.9408
61.7008
65.8398
69.3218
72.3551
72.8542
74.3885
73.0622
73.0655
71.3928
70.8004
68.5599
65.9161
62.9536
56.7387
51.0137
43.3477
35.7418
59.1559
59.0202
57.0738
55.1206
53.9099
53.391
53.4545
53.9048
54.3711
54.7186
55.0458
55.293
55.4966
55.4927
55.3135
55.21
55.042
54.9116
54.8029
54.5916
54.4155
54.2498
54.1997
54.1357
53.9753
53.9215
53.8977
53.9298
53.9783
54.0841
54.2411
54.3417
54.5292
54.7783
54.9566
55.1238
55.2949
55.4844
55.6515
55.7559
55.9684
56.1822
56.2443
56.3313
56.3821
56.3288
56.2101
55.9575
55.6587
55.3674
54.8381
54.2512
53.7719
53.0779
52.4502
51.917
51.2433
50.7989
50.3695
49.9653
49.8519
49.7366
49.6827
49.8703
50.0405
50.2235
50.5308
50.7563
50.9715
51.2405
51.3718
51.4779
51.6249
51.6241
51.5978
51.5809
51.4328
51.3325
51.2454
51.0801
50.9321
50.708
50.4681
50.2765
50.0944
50.0161
50.0146
50.0143
50.0764
50.2285
50.4803
50.9092
51.448
52.0113
52.6636
53.4095
54.2569
55.2216
56.2161
57.1994
58.1341
59.0273
60.0076
60.9753
61.7283
62.3304
62.7613
62.8601
62.552
61.8428
60.7846
59.4393
57.8245
55.9355
53.8218
51.5358
49.1027
46.5545
43.8285
40.8891
37.7621
34.4302
30.8543
27.0786
23.2006
19.2049
15.2032
11.2407
7.53188
4.1154
1.38198
-0.649055
-2.1751
-2.29572
-1.34379
0.871672
5.28347
11.7783
20.2097
30.4853
40.8627
50.4199
59.2045
66.5397
71.6439
75.8754
78.8292
81.1407
82.666
84.1188
85.253
86.2571
86.8973
87.7766
88.5357
89.1805
90.2856
91.1763
91.6603
91.7474
91.5533
89.2885
85.0358
79.362
73.0337
66.215
58.9543
51.7157
44.4924
39.0023
34.4563
30.8586
28.2303
26.0599
25.0643
25.7318
27.9374
31.4536
35.88
41.1723
46.5429
52.8832
58.1353
63.5937
68.4294
71.1468
74.5803
74.9981
76.2088
75.0938
74.3136
72.8761
71.5707
70.2799
67.4111
65.1522
59.9332
54.171
47.1163
39.8709
59.1699
58.9681
57.0651
55.1495
53.9366
53.3957
53.4193
53.8662
54.3648
54.7415
55.0303
55.2708
55.452
55.4832
55.3061
55.1638
55.0145
54.871
54.804
54.5986
54.4261
54.278
54.2404
54.2342
54.07
54.0374
54.0301
54.0443
54.0975
54.1659
54.2948
54.3983
54.551
54.7792
54.9617
55.0828
55.2806
55.4713
55.5985
55.7238
55.8772
56.0586
56.1416
56.1844
56.2533
56.2178
56.0849
55.9016
55.659
55.4035
54.9917
54.4897
54.0974
53.5715
53.0485
52.6171
52.0814
51.6784
51.3665
51.013
50.8816
50.8025
50.7108
50.8278
50.9556
51.0566
51.2738
51.459
51.6023
51.7813
51.8805
51.9374
52.0019
51.997
51.9334
51.8614
51.7378
51.5722
51.3937
51.1616
50.955
50.7378
50.4591
50.1711
49.8807
49.6629
49.5868
49.5887
49.6653
49.7921
49.9996
50.4058
50.9381
51.5878
52.377
53.2573
54.2092
55.2701
56.386
57.458
58.514
59.5744
60.667
61.7149
62.5668
63.2493
63.7202
63.833
63.4639
62.6769
61.5901
60.1826
58.4752
56.5302
54.4523
52.2485
49.8735
47.3044
44.5412
41.5219
38.2555
34.7669
31.0569
27.1627
23.1632
19.0585
14.9019
10.8576
7.06079
3.55343
0.697074
-1.41595
-2.64955
-2.77154
-1.74081
1.03925
5.7406
12.3099
21.0607
31.2802
41.2963
50.8098
59.5856
66.8205
71.946
76.1428
79.1631
81.4034
83.0023
84.6089
85.7763
86.5276
87.1403
88.0747
88.794
89.4318
90.3981
91.1551
91.6758
91.8289
91.8159
90.0712
86.0987
80.5326
74.3962
67.95
61.1697
54.1508
46.6482
41.1557
36.2186
32.5442
29.9079
27.9752
27.401
28.0254
30.1968
33.6705
38.1371
43.8603
49.5154
55.4296
61.5077
65.9538
71.2841
73.549
76.8875
77.3745
77.835
77.283
75.9618
74.8115
73.5765
72.4488
69.366
66.8636
61.894
56.1219
49.617
42.9478
59.1469
58.8799
56.9648
55.1168
53.9548
53.4508
53.4892
53.9063
54.4282
54.8079
55.0521
55.2615
55.3989
55.4438
55.2876
55.1119
54.9649
54.8314
54.7834
54.6125
54.4315
54.3156
54.2855
54.31
54.1665
54.1098
54.1462
54.1326
54.1978
54.2564
54.3283
54.4601
54.5654
54.7702
54.9599
55.0362
55.2504
55.4478
55.5334
55.6896
55.8079
55.9527
56.0807
56.0623
56.1588
56.1632
55.9949
55.9105
55.7141
55.4773
55.2018
54.7542
54.4397
54.0902
53.6075
53.2765
52.8644
52.4857
52.2916
52.0007
51.8204
51.7934
51.6961
51.7153
51.833
51.891
52.0082
52.1708
52.2642
52.3459
52.4315
52.4358
52.4246
52.4056
52.2914
52.159
52.0337
51.8641
51.6435
51.3461
51.0201
50.7084
50.3791
50.0527
49.7363
49.4463
49.2379
49.1412
49.1532
49.2815
49.5476
49.9879
50.5568
51.202
51.9627
52.9064
54.0362
55.2579
56.4962
57.6718
58.7445
59.78
60.9474
62.1524
63.1529
63.8715
64.2192
64.2648
63.9766
63.1686
61.9984
60.5615
58.8857
57.036
55.0333
52.8938
50.5739
47.9947
45.1733
42.0814
38.7205
35.1471
31.3765
27.4314
23.3712
19.2115
15.0186
10.9132
7.06774
3.61915
0.758272
-1.32058
-2.38138
-2.3489
-0.881259
2.36214
7.29535
14.1938
22.9786
32.8296
42.71
51.8718
60.4273
67.3514
72.4837
76.608
79.8138
81.8655
83.61
85.1346
86.2571
86.7863
87.4824
88.2842
88.8955
89.4419
90.2281
90.9265
91.4632
91.7304
91.6703
90.2423
86.6761
81.5412
75.7267
69.6348
63.5722
57.1305
49.3125
44.2563
38.727
34.9255
32.2607
30.2148
29.8175
30.6119
32.8662
36.472
41.4525
47.5867
53.6633
57.8567
66.0329
68.9301
74.1042
76.3018
78.8596
79.9245
79.4062
79.616
78.1303
76.9988
75.7107
74.0999
70.8633
67.87
63.0489
57.704
51.8483
45.7298
59.0343
58.7213
56.8019
55.0565
53.99
53.5674
53.6564
54.0393
54.5354
54.9007
55.0926
55.256
55.3393
55.3708
55.2512
55.0549
54.9294
54.8032
54.7604
54.6358
54.4446
54.3646
54.332
54.3642
54.2643
54.178
54.2467
54.2247
54.2707
54.3418
54.3637
54.496
54.5947
54.7459
54.9465
55.0077
55.1941
55.4099
55.4754
55.634
55.752
55.8656
56.0061
56.0007
56.0868
56.129
55.9838
55.9365
55.8135
55.6087
55.4042
55.0693
54.8226
54.5671
54.1824
53.9022
53.5965
53.2936
53.1362
52.9029
52.729
52.7049
52.6127
52.5991
52.6845
52.7081
52.7699
52.8735
52.9035
52.9397
52.9693
52.9357
52.9037
52.8441
52.7003
52.5131
52.3363
52.1234
51.8724
51.5838
51.2154
50.7885
50.3445
49.9018
49.5216
49.2474
49.067
48.9345
48.8273
48.8402
49.0775
49.55
50.1886
50.9282
51.7493
52.6727
53.7658
55.0459
56.3698
57.6154
58.7535
59.8751
61.0854
62.2004
63.1084
63.9683
64.4463
64.3142
63.8658
63.1758
62.1528
60.7991
59.1435
57.3078
55.3876
53.2886
51.0223
48.4968
45.6763
42.5783
39.1925
35.5721
31.7657
27.829
23.8024
19.6722
15.5232
11.4811
7.66331
4.30511
1.61111
-0.248749
-1.10454
-0.72833
1.11941
4.70408
9.9656
17.0492
25.6598
35.2428
44.7714
53.3987
61.6981
68.2117
73.3131
77.3762
80.5094
82.3386
84.142
85.6538
86.7024
87.1032
87.6998
88.366
88.8994
89.3922
89.9618
90.5726
91.1021
91.399
91.2226
89.8793
86.745
82.3467
77.0486
71.3498
66.0492
59.8923
53.1711
47.9353
42.3245
38.539
35.5497
33.9048
33.3044
34.1225
36.6443
40.4275
46.2126
51.543
58.0581
61.2638
70.7547
72.3472
76.9659
79.6519
80.7853
82.6965
81.5072
81.9199
80.4235
79.0457
77.4064
75.2728
71.9797
68.792
64.3388
59.3852
53.9238
48.2863
58.7645
58.4717
56.608
55.0167
54.097
53.7907
53.9215
54.2754
54.6957
55.0199
55.1496
55.2426
55.2762
55.2763
55.1907
54.9988
54.8933
54.7804
54.7314
54.644
54.4735
54.4181
54.3794
54.4044
54.3406
54.2514
54.3211
54.3032
54.3324
54.4057
54.4096
54.5248
54.6222
54.7289
54.9156
54.9812
55.1379
55.35
55.4196
55.5675
55.6977
55.7931
55.9334
55.9696
56.0371
56.1023
56.0243
55.9845
55.9429
55.7718
55.618
55.4167
55.2037
55.0208
54.7458
54.5048
54.2975
54.0738
53.9096
53.763
53.6189
53.5527
53.5075
53.4614
53.4737
53.4888
53.5056
53.5405
53.5582
53.5393
53.5012
53.4489
53.3618
53.2435
53.0855
52.8854
52.6572
52.3858
52.0727
51.7355
51.3649
50.9722
50.5102
49.9638
49.4517
49.0849
48.8839
48.7762
48.7044
48.7102
48.8942
49.3224
49.9405
50.6785
51.5149
52.4734
53.5968
54.879
56.1781
57.3529
58.4266
59.5593
60.8572
62.0819
62.9319
63.4734
63.7636
63.9236
63.6972
63.1025
62.0593
60.6222
58.9346
57.1704
55.4676
53.4501
51.2267
48.7306
45.9368
42.8682
39.5402
35.998
32.2886
28.4416
24.4891
20.4417
16.3888
12.4664
8.8028
5.61499
3.14373
1.58866
1.01058
1.84081
4.14411
8.09427
13.5006
20.4943
28.8823
38.2173
47.1243
55.4144
63.1354
69.255
74.2294
78.1785
80.9443
82.8843
84.7507
86.2449
87.0525
87.4083
87.9169
88.5337
89.0016
89.3462
89.689
90.1825
90.6748
90.9255
90.5066
89.1914
86.8388
83.3798
78.6223
73.5389
68.5485
62.7721
57.3033
51.9132
46.7685
42.9979
39.7636
38.6061
38.4357
39.089
41.6801
45.2491
51.622
54.7427
62.8236
65.8667
74.6228
76.0265
79.8086
83.2857
83.0384
85.3782
83.876
83.6145
82.1624
80.5094
78.5531
76.3091
72.9892
69.7521
65.6403
60.9398
55.6983
50.399
58.2335
57.9309
56.3527
55.0434
54.3384
54.1531
54.3117
54.5843
54.8905
55.1281
55.1867
55.2189
55.2092
55.1803
55.1094
54.9475
54.8526
54.7622
54.6984
54.6324
54.5052
54.4601
54.4306
54.4351
54.4021
54.3423
54.3829
54.3738
54.3951
54.4427
54.451
54.5433
54.6203
54.7203
54.8625
54.9456
55.0938
55.2608
55.3686
55.5066
55.6349
55.7523
55.8748
55.9503
56.0244
56.0935
56.0865
56.0763
56.0563
55.9618
55.8545
55.7397
55.5913
55.4501
55.2819
55.0962
54.9502
54.7885
54.6426
54.5354
54.4105
54.3356
54.2949
54.237
54.2173
54.2033
54.1707
54.1542
54.121
54.0552
53.9754
53.8771
53.7466
53.5898
53.4015
53.1818
52.9589
52.6898
52.3245
51.9033
51.4725
51.0431
50.5972
50.1013
49.6141
49.2252
48.958
48.7879
48.6896
48.6855
48.8629
49.29
49.905
50.6097
51.4113
52.3405
53.4273
54.6836
55.9791
57.1224
58.1465
59.2851
60.5226
61.604
62.4698
63.1158
63.5026
63.3972
62.9819
62.408
61.4826
60.1474
58.5233
56.8363
55.0953
53.1834
51.0666
48.6773
46.0337
43.1408
39.9514
36.5159
32.9097
29.1859
25.3798
21.4856
17.6081
13.8694
10.4316
7.50985
5.34847
4.12779
3.98373
5.11746
7.80691
12.034
17.5345
24.3668
32.4223
41.1904
49.5431
57.465
64.4298
70.342
75.0883
78.8341
81.4569
83.5886
85.4263
86.7214
87.3172
87.687
88.1997
88.8109
89.2363
89.4278
89.5615
89.9375
90.394
90.4628
89.6517
88.6228
87.3488
84.9346
80.7448
76.2482
71.0138
65.6683
60.8274
55.6249
51.0206
47.3711
44.2841
43.3681
43.2048
43.5489
46.3022
49.333
55.709
57.8957
67.6477
70.2366
77.9732
79.8638
82.6913
86.7917
85.6323
87.5282
86.1387
85.0004
83.562
81.6367
79.4771
77.3239
74.0781
70.7359
66.7132
62.2994
57.2041
52.0161
57.4176
57.1599
56.0797
55.1942
54.7469
54.6581
54.7805
54.9347
55.0918
55.2099
55.2136
55.1906
55.1465
55.0826
55.0174
54.9012
54.8237
54.7569
54.6838
54.627
54.5404
54.4974
54.4734
54.4592
54.4416
54.4155
54.4277
54.4237
54.4457
54.4651
54.4869
54.5566
54.6149
54.713
54.8164
54.9179
55.0621
55.1895
55.329
55.4617
55.5846
55.726
55.8356
55.9364
56.0377
56.0951
56.1472
56.165
56.1609
56.1476
56.0805
56.0224
55.9383
55.8318
55.7342
55.6059
55.4885
55.3801
55.2596
55.1603
55.0686
54.9795
54.9146
54.8531
54.7962
54.7496
54.6931
54.6272
54.5453
54.4392
54.3158
54.1814
54.031
53.8518
53.6347
53.3942
53.1492
52.868
52.511
52.09
51.6397
51.1896
50.7314
50.25
49.7921
49.4197
49.1452
48.9483
48.8266
48.8164
48.9936
49.4067
50.0014
50.6807
51.471
52.3501
53.3984
54.6302
55.8717
56.9913
58.0183
59.0916
60.2031
61.2506
62.0499
62.5059
62.6554
62.5114
62.1462
61.5279
60.5273
59.2663
57.8274
56.2682
54.5542
52.6818
50.6777
48.4817
46.0311
43.3028
40.3082
37.1031
33.709
30.1629
26.4931
22.7334
19.0335
15.5074
12.3054
9.67111
7.83492
6.92909
7.13548
8.65065
11.5858
15.9054
21.4354
28.1067
35.8083
43.9789
51.8308
59.2537
65.6558
71.232
76.0454
79.2774
82.0165
84.2547
85.9769
86.995
87.5673
88.035
88.6187
89.2553
89.6567
89.7664
89.6556
89.7008
89.8639
89.7058
88.9056
88.3202
87.934
86.4385
83.3361
79.4583
74.2338
69.1502
64.1418
58.8931
54.6945
51.0979
47.8579
47.1212
46.93
47.1707
49.4451
51.6079
58.0615
60.6105
71.0874
73.6369
81.1859
83.5561
85.3055
89.9258
88.3291
89.0194
88.2792
86.5182
85.0922
82.8982
80.5235
78.2591
75.12
71.7527
67.5669
63.2505
58.4231
53.3957
56.5284
56.4085
55.9187
55.5004
55.2752
55.1922
55.1978
55.2223
55.2406
55.2474
55.2107
55.1626
55.1028
55.0247
54.9565
54.869
54.7992
54.736
54.6659
54.6188
54.5632
54.532
54.5115
54.4939
54.4865
54.4759
54.4689
54.4621
54.4716
54.4767
54.5048
54.5561
54.6108
54.7029
54.7899
54.9016
55.037
55.1502
55.3012
55.4374
55.5568
55.7089
55.8152
55.9339
56.0436
56.1082
56.1922
56.2344
56.2579
56.2807
56.2568
56.234
56.1919
56.1222
56.0615
55.9708
55.8773
55.7939
55.6858
55.5955
55.5106
55.4169
55.3426
55.2644
55.1805
55.1034
55.0187
54.924
54.8179
54.6873
54.5322
54.3648
54.1838
53.9828
53.7624
53.528
53.2827
52.9976
52.6397
52.2165
51.7593
51.2994
50.8496
50.4096
49.9992
49.6456
49.3656