/*--------------------------------*- C++ -*----------------------------------*\
| =========                 |                                                 |
| \\      /  F ield         | OpenFOAM: The Open Source CFD Toolbox           |
|  \\    /   O peration     | Version:  2.4.0                                 |
|   \\  /    A nd           | Web:      www.OpenFOAM.org                      |
|    \\/     M anipulation  |                                                 |
\*---------------------------------------------------------------------------*/
FoamFile
{
    version     2.0;
    format      ascii;
    class       surfaceScalarField;
    location    "0.4";
    object      phi_0;
}
// * * * * * * * * * * * * * * * * * * * * * * * * * * * * * * * * * * * * * //

dimensions      [0 3 -1 0 0 0 0];

internalField   nonuniform List<scalar> 
17320
(
1.76333e-05
7.36668e-06
1.16171e-05
6.01626e-06
8.6811e-06
2.93596e-06
7.3558e-06
1.32529e-06
6.72241e-06
6.33399e-07
6.33328e-06
3.89122e-07
6.09135e-06
2.41929e-07
5.86027e-06
2.31089e-07
5.71462e-06
1.45648e-07
5.58159e-06
1.33025e-07
5.47126e-06
1.10336e-07
5.40737e-06
6.38853e-08
5.29151e-06
1.1586e-07
5.21993e-06
7.15775e-08
5.17701e-06
4.29246e-08
5.01706e-06
1.59951e-07
4.95529e-06
6.17728e-08
4.93041e-06
2.48762e-08
4.59712e-06
3.33286e-07
-5.05764e-07
5.10289e-06
2.5453e-05
6.91371e-06
2.32466e-05
8.22259e-06
2.09848e-05
5.19783e-06
1.93204e-05
2.98963e-06
1.80751e-05
1.87868e-06
1.71076e-05
1.35663e-06
1.63796e-05
9.69957e-07
1.57616e-05
8.49106e-07
1.53185e-05
5.88712e-07
1.49299e-05
5.21689e-07
1.46332e-05
4.06959e-07
1.43856e-05
3.11514e-07
1.41376e-05
3.63895e-07
1.39413e-05
2.67813e-07
1.37659e-05
2.18325e-07
1.34993e-05
4.26588e-07
1.33335e-05
2.27569e-07
1.31544e-05
2.03964e-07
1.28765e-05
6.11186e-07
-4.28713e-07
1.27995e-05
2.66113e-05
5.30238e-06
2.7155e-05
7.6789e-06
2.67733e-05
5.57953e-06
2.62558e-05
3.50716e-06
2.55962e-05
2.53828e-06
2.48744e-05
2.07839e-06
2.41713e-05
1.67313e-06
2.34905e-05
1.52982e-06
2.29487e-05
1.13058e-06
2.24335e-05
1.03691e-06
2.20441e-05
7.96271e-07
2.16743e-05
6.81356e-07
2.13554e-05
6.82757e-07
2.10812e-05
5.42025e-07
2.0819e-05
4.80594e-07
2.05105e-05
7.35012e-07
2.0298e-05
4.4013e-07
1.99665e-05
5.35413e-07
1.97826e-05
7.95067e-07
2.02765e-07
1.91512e-05
2.63214e-05
3.98103e-06
2.75345e-05
6.4658e-06
2.80622e-05
5.05176e-06
2.84635e-05
3.10588e-06
2.86347e-05
2.36706e-06
2.86354e-05
2.07772e-06
2.84854e-05
1.82315e-06
2.82173e-05
1.79789e-06
2.7996e-05
1.35193e-06
2.76626e-05
1.3703e-06
2.74523e-05
1.0065e-06
2.71504e-05
9.83311e-07
2.69154e-05
9.17722e-07
2.6699e-05
7.58481e-07
2.6424e-05
7.55522e-07
2.61953e-05
9.637e-07
2.60099e-05
6.25575e-07
2.55651e-05
9.80249e-07
2.53353e-05
1.0248e-06
1.32894e-06
2.42092e-05
2.60605e-05
2.92048e-06
2.72527e-05
5.27368e-06
2.80102e-05
4.29419e-06
2.84966e-05
2.61954e-06
2.89414e-05
1.92219e-06
2.93484e-05
1.67077e-06
2.96003e-05
1.57122e-06
2.97236e-05
1.67461e-06
2.99107e-05
1.16481e-06
2.98687e-05
1.41236e-06
2.998e-05
8.95163e-07
2.99275e-05
1.03584e-06
2.9933e-05
9.12225e-07
2.99986e-05
6.92896e-07
2.97975e-05
9.56583e-07
2.98302e-05
9.31038e-07
2.98807e-05
5.75028e-07
2.95406e-05
1.3204e-06
2.96384e-05
9.2696e-07
6.90988e-07
3.02764e-05
2.58598e-05
2.06072e-06
2.69606e-05
4.17283e-06
2.78209e-05
3.43387e-06
2.82805e-05
2.15998e-06
2.86366e-05
1.56609e-06
2.91097e-05
1.19769e-06
2.9455e-05
1.2259e-06
2.96704e-05
1.45918e-06
3.00527e-05
7.82546e-07
3.0181e-05
1.28401e-06
3.04161e-05
6.60103e-07
3.04918e-05
9.60073e-07
3.06511e-05
7.52928e-07
3.09691e-05
3.7491e-07
3.08527e-05
1.07304e-06
3.10704e-05
7.13273e-07
3.14385e-05
2.06959e-07
3.13838e-05
1.37511e-06
3.13884e-05
9.22343e-07
-6.99977e-08
3.21494e-05
2.57207e-05
1.34e-06
2.67338e-05
3.15977e-06
2.76002e-05
2.56744e-06
2.81293e-05
1.6309e-06
2.84129e-05
1.28246e-06
2.88985e-05
7.12118e-07
2.91848e-05
9.39567e-07
2.93905e-05
1.25354e-06
2.97659e-05
4.07134e-07
3.00802e-05
9.69709e-07
3.02363e-05
5.03986e-07
3.0324e-05
8.72348e-07
3.06456e-05
4.3139e-07
3.08487e-05
1.7174e-07
3.0806e-05
1.11574e-06
3.11915e-05
3.27771e-07
3.14876e-05
-8.90632e-08
3.16335e-05
1.22916e-06
3.18944e-05
6.61476e-07
-4.60576e-07
3.2285e-05
2.56036e-05
7.36354e-07
2.65885e-05
2.17487e-06
2.74162e-05
1.73975e-06
2.80415e-05
1.00568e-06
2.82834e-05
1.04047e-06
2.86864e-05
3.09188e-07
2.90204e-05
6.05569e-07
2.9255e-05
1.01889e-06
2.95239e-05
1.38222e-07
2.99467e-05
5.4694e-07
3.00234e-05
4.27271e-07
3.03058e-05
5.89992e-07
3.05677e-05
1.69435e-07
3.05099e-05
2.29558e-07
3.06885e-05
9.37152e-07
3.1063e-05
-4.67045e-08
3.12168e-05
-2.42838e-07
3.15824e-05
8.63535e-07
3.18044e-05
4.39445e-07
-5.1959e-07
3.18634e-05
2.55188e-05
2.1756e-07
2.64323e-05
1.26135e-06
2.72348e-05
9.37318e-07
2.79941e-05
2.46305e-07
2.827e-05
7.64639e-07
2.84868e-05
9.23597e-08
2.89186e-05
1.73763e-07
2.92413e-05
6.96161e-07
2.94517e-05
-7.21344e-08
2.98085e-05
1.90143e-07
2.99182e-05
3.17518e-07
3.01415e-05
3.66701e-07
3.0327e-05
-1.60285e-08
3.04543e-05
1.02216e-07
3.07035e-05
6.88016e-07
3.09843e-05
-3.27529e-07
3.11818e-05
-4.40369e-07
3.13273e-05
7.18076e-07
3.15261e-05
2.40582e-07
-9.05384e-07
3.19119e-05
2.54305e-05
-2.12979e-07
2.64379e-05
2.53977e-07
2.72545e-05
1.20719e-07
2.79022e-05
-4.01342e-07
2.82083e-05
4.58458e-07
2.84331e-05
-1.32401e-07
2.88655e-05
-2.58595e-07
2.9262e-05
2.99653e-07
2.9403e-05
-2.13206e-07
2.97307e-05
-1.37493e-07
2.98126e-05
2.35642e-07
2.99849e-05
1.94396e-07
3.0352e-05
-3.83181e-07
3.04662e-05
-1.19755e-08
3.06751e-05
4.79094e-07
3.09995e-05
-6.51949e-07
3.10372e-05
-4.78042e-07
3.12086e-05
5.46734e-07
3.16068e-05
-1.57687e-07
-1.01125e-06
3.17127e-05
2.54315e-05
-6.44479e-07
2.6497e-05
-8.11546e-07
2.72505e-05
-6.32725e-07
2.78159e-05
-9.66761e-07
2.82478e-05
2.65152e-08
2.8493e-05
-3.77531e-07
2.88636e-05
-6.29272e-07
2.92381e-05
-7.48234e-08
2.93309e-05
-3.06034e-07
2.96723e-05
-4.78858e-07
2.98351e-05
7.28966e-08
3.01478e-05
-1.18332e-07
3.03109e-05
-5.46288e-07
3.04162e-05
-1.17253e-07
3.08139e-05
8.13503e-08
3.08561e-05
-6.94172e-07
3.09042e-05
-5.26086e-07
3.14032e-05
4.76614e-08
3.15898e-05
-3.44284e-07
-8.91093e-07
3.14697e-05
2.54426e-05
-1.08712e-06
2.6493e-05
-1.86194e-06
2.73116e-05
-1.45127e-06
2.78797e-05
-1.53491e-06
2.83108e-05
-4.04594e-07
2.86026e-05
-6.69305e-07
2.88546e-05
-8.81217e-07
2.92212e-05
-4.41502e-07
2.94765e-05
-5.61279e-07
2.96819e-05
-6.84294e-07
2.99755e-05
-2.20648e-07
3.02294e-05
-3.72243e-07
3.02246e-05
-5.41544e-07
3.05789e-05
-4.7151e-07
3.08084e-05
-1.48141e-07
3.08053e-05
-6.91138e-07
3.10697e-05
-7.90402e-07
3.14353e-05
-3.17933e-07
3.15636e-05
-4.72653e-07
-1.08114e-06
3.17537e-05
2.54976e-05
-1.58469e-06
2.65354e-05
-2.89975e-06
2.74797e-05
-2.39557e-06
2.79865e-05
-2.04174e-06
2.83528e-05
-7.70857e-07
2.87464e-05
-1.06291e-06
2.89651e-05
-1.09998e-06
2.93281e-05
-8.04449e-07
2.95891e-05
-8.22303e-07
2.97821e-05
-8.77273e-07
3.00772e-05
-5.15795e-07
3.02727e-05
-5.67683e-07
3.03877e-05
-6.56517e-07
3.06661e-05
-7.49965e-07
3.08224e-05
-3.04435e-07
3.10402e-05
-9.08934e-07
3.11555e-05
-9.05734e-07
3.1461e-05
-6.23421e-07
3.18321e-05
-8.43739e-07
-1.19984e-06
3.19508e-05
2.56477e-05
-2.23243e-06
2.66985e-05
-3.95052e-06
2.76367e-05
-3.33373e-06
2.80506e-05
-2.45572e-06
2.8491e-05
-1.21123e-06
2.88907e-05
-1.46264e-06
2.91613e-05
-1.37058e-06
2.94771e-05
-1.12016e-06
2.97375e-05
-1.08271e-06
2.99925e-05
-1.13234e-06
3.02062e-05
-7.29481e-07
3.04584e-05
-8.19866e-07
3.06025e-05
-8.00638e-07
3.07612e-05
-9.08595e-07
3.09875e-05
-5.30789e-07
3.11763e-05
-1.09772e-06
3.12679e-05
-9.97371e-07
3.16388e-05
-9.94248e-07
3.18983e-05
-1.10329e-06
-1.36019e-06
3.20587e-05
2.58091e-05
-3.04148e-06
2.69318e-05
-5.07324e-06
2.78579e-05
-4.25986e-06
2.82485e-05
-2.8463e-06
2.87163e-05
-1.67907e-06
2.91043e-05
-1.85065e-06
2.94188e-05
-1.68509e-06
2.96934e-05
-1.39477e-06
2.99826e-05
-1.37183e-06
3.01889e-05
-1.33866e-06
3.039e-05
-9.30598e-07
3.05652e-05
-9.95114e-07
3.07044e-05
-9.39814e-07
3.08189e-05
-1.02303e-06
3.09736e-05
-6.85488e-07
3.10824e-05
-1.20652e-06
3.11322e-05
-1.04725e-06
3.13703e-05
-1.23229e-06
3.15238e-05
-1.25679e-06
-1.5626e-06
3.17262e-05
2.59996e-05
-4.04104e-06
2.72574e-05
-6.33105e-06
2.80852e-05
-5.0877e-06
2.84829e-05
-3.24401e-06
2.8982e-05
-2.17811e-06
2.93176e-05
-2.18629e-06
2.95625e-05
-1.92993e-06
2.97323e-05
-1.56466e-06
2.98607e-05
-1.50017e-06
2.98972e-05
-1.37521e-06
2.99649e-05
-9.98296e-07
2.99555e-05
-9.85693e-07
2.99474e-05
-9.31745e-07
2.98825e-05
-9.5805e-07
2.98732e-05
-6.76236e-07
2.97491e-05
-1.08239e-06
2.96371e-05
-9.35296e-07
2.95912e-05
-1.18637e-06
2.94896e-05
-1.15525e-06
-1.5955e-06
2.95225e-05
2.62881e-05
-5.32911e-06
2.75733e-05
-7.61625e-06
2.80869e-05
-5.60132e-06
2.8421e-05
-3.57809e-06
2.86664e-05
-2.42353e-06
2.86133e-05
-2.13322e-06
2.84552e-05
-1.77183e-06
2.82515e-05
-1.36098e-06
2.79695e-05
-1.21811e-06
2.76714e-05
-1.07717e-06
2.74346e-05
-7.6146e-07
2.71542e-05
-7.05283e-07
2.68981e-05
-6.75612e-07
2.66216e-05
-6.81588e-07
2.6415e-05
-4.69638e-07
2.6093e-05
-7.60351e-07
2.58287e-05
-6.71007e-07
2.55092e-05
-8.66923e-07
2.52421e-05
-8.88119e-07
-1.40422e-06
2.50508e-05
2.65952e-05
-6.92433e-06
2.71777e-05
-8.19869e-06
2.67758e-05
-5.19945e-06
2.62295e-05
-3.03184e-06
2.56284e-05
-1.8224e-06
2.48629e-05
-1.3677e-06
2.41411e-05
-1.05002e-06
2.3523e-05
-7.4286e-07
2.29317e-05
-6.26885e-07
2.2423e-05
-5.68437e-07
2.20319e-05
-3.70379e-07
2.16643e-05
-3.37638e-07
2.13338e-05
-3.45085e-07
2.10125e-05
-3.60357e-07
2.07692e-05
-2.26267e-07
2.0424e-05
-4.15206e-07
2.01314e-05
-3.78385e-07
1.97295e-05
-4.65001e-07
1.93376e-05
-4.96257e-07
-5.24393e-07
1.84578e-05
2.54453e-05
-7.36962e-06
2.32578e-05
-6.01118e-06
2.09888e-05
-2.9305e-06
1.93031e-05
-1.34612e-06
1.80946e-05
-6.13872e-07
1.71078e-05
-3.80918e-07
1.6347e-05
-2.89178e-07
1.57875e-05
-1.83447e-07
1.53128e-05
-1.52138e-07
1.49093e-05
-1.6494e-07
1.46263e-05
-8.73851e-08
1.43687e-05
-7.999e-08
1.41228e-05
-9.9189e-08
1.38779e-05
-1.15496e-07
1.3704e-05
-5.24166e-08
1.3428e-05
-1.39136e-07
1.31783e-05
-1.28689e-07
1.28622e-05
-1.48895e-07
1.25797e-05
-2.13768e-07
-1.00444e-07
1.21557e-05
1.76304e-05
1.16192e-05
8.6887e-06
7.34257e-06
6.7287e-06
6.34778e-06
6.05861e-06
5.87516e-06
5.72302e-06
5.55808e-06
5.4707e-06
5.39071e-06
5.29152e-06
5.17602e-06
5.1236e-06
4.98447e-06
4.85578e-06
4.70688e-06
4.49312e-06
4.39267e-06
5.57197e-06
-3.56474e-07
-1.12607e-07
5.97355e-06
-2.10679e-07
-1.909e-07
6.30584e-06
-1.48142e-07
-1.84154e-07
6.61608e-06
-1.24697e-07
-1.85538e-07
6.9071e-06
-1.11481e-07
-1.79539e-07
7.15269e-06
-9.04217e-08
-1.55173e-07
7.33008e-06
-8.2126e-08
-9.5261e-08
7.45205e-06
-8.52144e-08
-3.67529e-08
7.52577e-06
-1.2204e-07
4.8318e-08
7.58051e-06
-1.53304e-07
9.85647e-08
7.62443e-06
-1.90809e-07
1.46888e-07
7.72274e-06
-1.84684e-07
8.63699e-08
7.78872e-06
-1.54645e-07
8.86622e-08
7.87066e-06
-1.00152e-07
1.82175e-08
7.95899e-06
-1.04101e-08
-7.79191e-08
8.08532e-06
7.44068e-08
-2.00741e-07
8.20229e-06
1.51396e-07
-2.68368e-07
8.35562e-06
2.21488e-07
-3.74817e-07
8.57058e-06
2.93994e-07
-5.0895e-07
8.78232e-06
3.44887e-07
-5.56629e-07
9.05277e-06
3.52576e-07
-6.23027e-07
9.33527e-06
2.92298e-07
-5.74792e-07
9.59509e-06
2.2624e-07
-4.86062e-07
9.80308e-06
7.67697e-08
-2.84759e-07
9.91637e-06
-1.07228e-07
-6.06278e-09
9.96137e-06
-2.67033e-07
2.22032e-07
9.90953e-06
-4.22296e-07
4.74131e-07
9.82692e-06
-5.49069e-07
6.31683e-07
9.75175e-06
-5.65598e-07
6.40772e-07
9.73515e-06
-5.19002e-07
5.35598e-07
9.75406e-06
-4.73414e-07
4.54508e-07
9.80994e-06
-4.56379e-07
4.00495e-07
9.90465e-06
-4.61771e-07
3.67059e-07
9.99289e-06
-4.37809e-07
3.4957e-07
1.00973e-05
-4.51372e-07
3.46985e-07
1.01799e-05
-4.75402e-07
3.92751e-07
1.01737e-05
-5.10931e-07
5.17115e-07
1.01359e-05
-6.03754e-07
6.41643e-07
1.00246e-05
-6.8768e-07
7.98973e-07
9.82442e-06
-7.81798e-07
9.81945e-07
9.58405e-06
-8.44212e-07
1.08457e-06
9.29177e-06
-8.42405e-07
1.13469e-06
8.99011e-06
-8.19091e-07
1.12075e-06
8.76719e-06
-6.79637e-07
9.0256e-07
8.609e-06
-4.87481e-07
6.45666e-07
8.564e-06
-2.25072e-07
2.70069e-07
8.75235e-06
1.94693e-07
-3.83036e-07
9.15057e-06
6.8401e-07
-1.08223e-06
9.71851e-06
1.08109e-06
-1.64903e-06
1.04361e-05
1.70399e-06
-2.42153e-06
1.12949e-05
2.21385e-06
-3.07269e-06
1.2214e-05
2.51206e-06
-3.43119e-06
1.30444e-05
2.75299e-06
-3.58333e-06
1.40609e-05
2.87092e-06
-3.88742e-06
1.50843e-05
2.81218e-06
-3.83567e-06
1.59184e-05
2.52373e-06
-3.35777e-06
1.66444e-05
1.88721e-06
-2.61325e-06
1.72674e-05
1.13123e-06
-1.75418e-06
1.76993e-05
4.24287e-07
-8.56241e-07
1.79835e-05
-4.86088e-07
2.01913e-07
1.81015e-05
-1.2756e-06
1.15763e-06
1.79893e-05
-1.93877e-06
2.05098e-06
1.77353e-05
-2.56173e-06
2.81567e-06
1.7465e-05
-2.94307e-06
3.21341e-06
1.72361e-05
-3.12987e-06
3.35874e-06
1.71723e-05
-3.38895e-06
3.45277e-06
1.7224e-05
-3.47034e-06
3.41864e-06
1.74171e-05
-3.44334e-06
3.25021e-06
1.78105e-05
-3.60314e-06
3.20979e-06
1.82235e-05
-3.56412e-06
3.15114e-06
1.86379e-05
-3.50946e-06
3.09501e-06
1.92749e-05
-3.58272e-06
2.94573e-06
1.98316e-05
-3.44233e-06
2.88558e-06
2.04537e-05
-3.4864e-06
2.86431e-06
2.11138e-05
-3.4711e-06
2.81105e-06
2.1809e-05
-3.44401e-06
2.74878e-06
2.24889e-05
-3.51976e-06
2.83986e-06
2.31783e-05
-3.64643e-06
2.95701e-06
2.38909e-05
-3.71023e-06
2.99762e-06
2.4591e-05
-3.89101e-06
3.19095e-06
2.51818e-05
-4.09163e-06
3.50081e-06
2.58652e-05
-4.30358e-06
3.62021e-06
2.64339e-05
-4.47079e-06
3.90208e-06
2.70154e-05
-4.71388e-06
4.13239e-06
2.75072e-05
-4.90793e-06
4.4161e-06
2.79754e-05
-4.98121e-06
4.51304e-06
2.837e-05
-5.17963e-06
4.78502e-06
2.87342e-05
-5.09604e-06
4.73185e-06
2.90856e-05
-5.07712e-06
4.72568e-06
2.93832e-05
-5.05948e-06
4.76195e-06
2.96322e-05
-4.7965e-06
4.5475e-06
2.98226e-05
-4.55982e-06
4.36937e-06
3.00663e-05
-4.49701e-06
4.25336e-06
3.02066e-05
-4.17672e-06
4.03636e-06
3.04086e-05
-4.15139e-06
3.94941e-06
3.05272e-05
-4.01146e-06
3.89289e-06
3.07674e-05
-3.97698e-06
3.73672e-06
3.09601e-05
-3.99739e-06
3.80472e-06
3.11266e-05
-4.11062e-06
3.9441e-06
3.12641e-05
-4.09217e-06
3.95473e-06
3.15157e-05
-4.40515e-06
4.15355e-06
3.15129e-05
-4.45572e-06
4.45849e-06
3.17395e-05
-4.83623e-06
4.60963e-06
3.17813e-05
-5.14336e-06
5.10153e-06
3.19491e-05
-5.52235e-06
5.35459e-06
3.19495e-05
-5.99723e-06
5.99686e-06
3.2193e-05
-6.35952e-06
6.11599e-06
3.21879e-05
-6.91954e-06
6.92461e-06
3.24359e-05
-7.21066e-06
6.96275e-06
3.25258e-05
-7.7472e-06
7.65727e-06
3.26481e-05
-8.0005e-06
7.87814e-06
3.27799e-05
-8.26538e-06
8.1336e-06
3.29478e-05
-8.82278e-06
8.65492e-06
3.29734e-05
-8.54771e-06
8.52205e-06
3.31535e-05
-9.27607e-06
9.09597e-06
3.3246e-05
-9.10824e-06
9.0158e-06
3.35532e-05
-9.27125e-06
8.96407e-06
3.37139e-05
-9.6619e-06
9.5012e-06
3.40162e-05
-9.34837e-06
9.04602e-06
3.44485e-05
-9.50489e-06
9.07261e-06
3.47297e-05
-9.62471e-06
9.34354e-06
3.52861e-05
-9.03199e-06
8.47559e-06
3.57331e-05
-9.26164e-06
8.81461e-06
3.61475e-05
-8.45388e-06
8.03942e-06
3.66629e-05
-8.233e-06
7.71766e-06
3.69677e-05
-7.44424e-06
7.13945e-06
3.73286e-05
-6.73083e-06
6.36991e-06
3.77171e-05
-5.98871e-06
5.60019e-06
3.77956e-05
-4.88395e-06
4.8055e-06
3.81321e-05
-4.0386e-06
3.70211e-06
3.8062e-05
-2.72884e-06
2.79886e-06
3.80451e-05
-1.70056e-06
1.71749e-06
3.79278e-05
-2.23439e-07
3.4072e-07
3.73698e-05
9.07944e-07
-3.49874e-07
3.67227e-05
2.56363e-06
-1.91661e-06
3.5795e-05
3.51388e-06
-2.58614e-06
3.45301e-05
4.91141e-06
-3.64653e-06
3.30248e-05
5.47054e-06
-3.96521e-06
3.15443e-05
6.16154e-06
-4.68104e-06
2.97742e-05
5.98801e-06
-4.21792e-06
2.81015e-05
6.0249e-06
-4.35222e-06
2.64871e-05
5.38394e-06
-3.76957e-06
2.47245e-05
4.89291e-06
-3.13029e-06
2.30624e-05
4.74439e-06
-3.08232e-06
2.1634e-05
3.05039e-06
-1.62191e-06
2.03508e-05
3.35932e-06
-2.07614e-06
1.89309e-05
2.78314e-06
-1.36325e-06
1.76746e-05
2.93934e-06
-1.68306e-06
1.64195e-05
2.41202e-06
-1.1569e-06
1.5332e-05
3.97511e-06
-2.88762e-06
1.45977e-05
2.26755e-06
-1.53324e-06
1.41753e-05
4.43611e-06
-4.01371e-06
1.40651e-05
2.4939e-06
-2.38373e-06
1.33069e-05
2.71362e-06
-1.95544e-06
1.31193e-05
1.8268e-06
-1.63915e-06
1.32405e-05
2.13692e-06
-2.25814e-06
1.29618e-05
3.62899e-06
-3.35029e-06
1.3414e-05
3.87822e-06
-4.33039e-06
1.4344e-05
1.37367e-06
-2.30369e-06
1.51759e-05
-3.87882e-08
-7.93105e-07
1.65341e-05
-3.8305e-06
2.47227e-06
1.86732e-05
-9.776e-06
7.63692e-06
2.09374e-05
-1.49579e-05
1.26937e-05
2.26133e-05
-1.82005e-05
1.65245e-05
2.32933e-05
-1.99087e-05
1.92287e-05
2.33023e-05
-2.1636e-05
2.16269e-05
2.35973e-05
-2.28214e-05
2.25264e-05
2.43543e-05
-2.05243e-05
1.97673e-05
2.4405e-05
-1.64318e-05
1.6381e-05
2.34232e-05
-1.2403e-05
1.33849e-05
2.25239e-05
-1.01679e-05
1.10672e-05
2.20643e-05
-9.23681e-06
9.69644e-06
2.23204e-05
-8.00901e-06
7.75286e-06
2.25428e-05
-3.06587e-06
2.84347e-06
2.28387e-05
1.95106e-06
-2.24689e-06
2.27764e-05
4.77602e-06
-4.71378e-06
2.24753e-05
7.28245e-06
-6.98133e-06
2.19256e-05
1.13131e-05
-1.07634e-05
2.1108e-05
1.28847e-05
-1.20671e-05
2.00913e-05
1.30101e-05
-1.19934e-05
1.94391e-05
1.44787e-05
-1.38265e-05
1.93463e-05
1.72477e-05
-1.71549e-05
1.85069e-05
1.91028e-05
-1.82634e-05
1.79865e-05
1.95302e-05
-1.90097e-05
1.74821e-05
2.05001e-05
-1.99957e-05
1.636e-05
2.04007e-05
-1.92786e-05
1.56922e-05
1.97227e-05
-1.90549e-05
1.53174e-05
1.84831e-05
-1.81082e-05
1.52863e-05
1.50857e-05
-1.50546e-05
1.41551e-05
1.21011e-05
-1.09698e-05
1.31186e-05
1.06923e-05
-9.65582e-06
1.21735e-05
1.2686e-05
-1.17409e-05
1.20995e-05
1.71695e-05
-1.70955e-05
1.18575e-05
2.41955e-05
-2.39536e-05
1.1164e-05
2.86132e-05
-2.79196e-05
1.08852e-05
2.87038e-05
-2.84251e-05
1.0636e-05
2.78771e-05
-2.76279e-05
9.39422e-06
2.80692e-05
-2.68274e-05
9.84778e-06
2.6598e-05
-2.70516e-05
3.09323e-05
-3.1426e-05
1.03415e-05
1.28168e-05
-3.73769e-07
1.30045e-05
-3.98439e-07
1.32467e-05
-3.90275e-07
1.34649e-05
-3.42958e-07
1.3624e-05
-2.70537e-07
1.37433e-05
-2.09781e-07
1.38141e-05
-1.52871e-07
1.38552e-05
-1.26302e-07
1.38808e-05
-1.47631e-07
1.38956e-05
-1.68097e-07
1.39149e-05
-2.10169e-07
1.39534e-05
-2.23158e-07
1.39989e-05
-2.00107e-07
1.40586e-05
-1.59862e-07
1.41302e-05
-8.20733e-08
1.42137e-05
-9.03461e-09
1.42778e-05
8.72281e-08
1.43458e-05
1.53546e-07
1.44413e-05
1.98459e-07
1.45603e-05
2.25924e-07
1.46904e-05
2.22437e-07
1.48064e-05
1.76264e-07
1.49521e-05
8.06177e-08
1.50517e-05
-2.28525e-08
1.51234e-05
-1.78939e-07
1.51864e-05
-3.30053e-07
1.51954e-05
-4.31281e-07
1.51914e-05
-5.4506e-07
1.51869e-05
-5.61048e-07
1.52186e-05
-5.5072e-07
1.52583e-05
-5.13183e-07
1.52749e-05
-4.72984e-07
1.53103e-05
-4.9708e-07
1.53455e-05
-4.73104e-07
1.53691e-05
-4.74964e-07
1.53685e-05
-4.74793e-07
1.53423e-05
-4.84733e-07
1.527e-05
-5.31386e-07
1.51552e-05
-5.72893e-07
1.49982e-05
-6.24865e-07
1.47854e-05
-6.3137e-07
1.45743e-05
-6.3134e-07
1.43259e-05
-5.70657e-07
1.40514e-05
-4.05086e-07
1.38224e-05
-2.58535e-07
1.35888e-05
8.53464e-09
1.34467e-05
3.36836e-07
1.34561e-05
6.74551e-07
1.35538e-05
9.83376e-07
1.38566e-05
1.40124e-06
1.43649e-05
1.70549e-06
1.49896e-05
1.88744e-06
1.56614e-05
2.0811e-06
1.64485e-05
2.08384e-06
1.72856e-05
1.97515e-06
1.80745e-05
1.73481e-06
1.87171e-05
1.24461e-06
1.92545e-05
5.93816e-07
1.97138e-05
-3.49805e-08
1.99564e-05
-7.28749e-07
2.01459e-05
-1.46502e-06
2.02356e-05
-2.02856e-06
2.02707e-05
-2.59681e-06
2.03919e-05
-3.06418e-06
2.05896e-05
-3.3276e-06
2.08381e-05
-3.63745e-06
2.12378e-05
-3.87003e-06
2.1662e-05
-3.86761e-06
2.21256e-05
-4.06675e-06
2.2668e-05
-4.10647e-06
2.31828e-05
-4.0243e-06
2.37406e-05
-4.1405e-06
2.43404e-05
-4.04214e-06
2.49087e-05
-4.05471e-06
2.55136e-05
-4.07595e-06
2.61084e-05
-4.0388e-06
2.67344e-05
-4.14583e-06
2.73245e-05
-4.23646e-06
2.78838e-05
-4.26953e-06
2.84789e-05
-4.48615e-06
2.89832e-05
-4.59591e-06
2.9477e-05
-4.79738e-06
2.9905e-05
-4.89881e-06
3.03185e-05
-5.12733e-06
3.06217e-05
-5.21114e-06
3.09423e-05
-5.30182e-06
3.11252e-05
-5.36249e-06
3.1355e-05
-5.32586e-06
3.14525e-05
-5.17466e-06
3.15206e-05
-5.12755e-06
3.15651e-05
-4.84105e-06
3.16446e-05
-4.63928e-06
3.16222e-05
-4.47465e-06
3.16198e-05
-4.17425e-06
3.16134e-05
-4.14506e-06
3.15711e-05
-3.96914e-06
3.15406e-05
-3.94645e-06
3.15684e-05
-4.02518e-06
3.15614e-05
-4.10367e-06
3.16349e-05
-4.16563e-06
3.16639e-05
-4.43417e-06
3.16488e-05
-4.44067e-06
3.16825e-05
-4.86987e-06
3.16132e-05
-5.07411e-06
3.16018e-05
-5.51092e-06
3.14852e-05
-5.88064e-06
3.15405e-05
-6.41483e-06
3.14426e-05
-6.82159e-06
3.15216e-05
-7.28969e-06
3.15048e-05
-7.73044e-06
3.16372e-05
-8.13286e-06
3.17526e-05
-8.3808e-06
3.18548e-05
-8.925e-06
3.21089e-05
-8.80174e-06
3.23339e-05
-9.50111e-06
3.26747e-05
-9.44905e-06
3.31088e-05
-9.70531e-06
3.33298e-05
-9.88289e-06
3.39823e-05
-1.00009e-05
3.44607e-05
-9.98328e-06
3.48583e-05
-1.00222e-05
3.54694e-05
-9.6431e-06
3.58262e-05
-9.61844e-06
3.62427e-05
-8.87045e-06
3.65977e-05
-8.588e-06
3.6878e-05
-7.72449e-06
3.72354e-05
-7.0882e-06
3.74304e-05
-6.18374e-06
3.76103e-05
-5.06383e-06
3.78285e-05
-4.25681e-06
3.78783e-05
-2.77869e-06
3.7914e-05
-1.73625e-06
3.78433e-05
-1.52703e-07
3.75017e-05
1.24953e-06
3.68883e-05
3.177e-06
3.59682e-05
4.43401e-06
3.4759e-05
6.12063e-06
3.30411e-05
7.18846e-06
3.12386e-05
7.96403e-06
2.91593e-05
8.06732e-06
2.71741e-05
8.01009e-06
2.53213e-05
7.2367e-06
2.36957e-05
6.51855e-06
2.20118e-05
6.42823e-06
2.02724e-05
4.78978e-06
1.88707e-05
4.76105e-06
1.74239e-05
4.22993e-06
1.67644e-05
3.59882e-06
1.58212e-05
3.35529e-06
1.53078e-05
4.48843e-06
1.41131e-05
3.46231e-06
1.38581e-05
4.69108e-06
1.3616e-05
2.73605e-06
1.3473e-05
2.85664e-06
1.33736e-05
1.92615e-06
1.32813e-05
2.22921e-06
1.33342e-05
3.57616e-06
1.39152e-05
3.29714e-06
1.4453e-05
8.35939e-07
1.59654e-05
-1.55124e-06
1.77557e-05
-5.62077e-06
1.92293e-05
-1.12496e-05
2.08753e-05
-1.66039e-05
2.21731e-05
-1.94982e-05
2.26898e-05
-2.04255e-05
2.23316e-05
-2.12777e-05
2.15719e-05
-2.20618e-05
2.1773e-05
-2.07254e-05
2.19839e-05
-1.66428e-05
2.18243e-05
-1.22434e-05
2.14028e-05
-9.74642e-06
2.10874e-05
-8.92143e-06
2.09078e-05
-7.82939e-06
2.08287e-05
-2.98673e-06
2.11653e-05
1.6144e-06
2.13198e-05
4.62157e-06
2.10176e-05
7.5846e-06
2.0878e-05
1.14527e-05
2.01426e-05
1.36201e-05
1.93004e-05
1.38523e-05
1.8549e-05
1.52301e-05
1.81784e-05
1.76183e-05
1.74474e-05
1.98339e-05
1.69526e-05
2.0025e-05
1.67884e-05
2.06643e-05
1.53569e-05
2.18322e-05
1.48837e-05
2.01959e-05
1.52492e-05
1.81175e-05
1.54684e-05
1.48666e-05
1.48136e-05
1.27558e-05
1.35405e-05
1.19655e-05
1.26379e-05
1.35886e-05
1.18984e-05
1.79089e-05
1.25798e-05
2.35141e-05
1.25659e-05
2.86271e-05
1.18784e-05
2.93913e-05
1.23097e-05
2.74458e-05
1.22447e-05
2.81343e-05
1.52517e-05
2.35911e-05
3.07853e-05
1.53986e-05
1.91508e-05
-3.73405e-07
1.93601e-05
-6.07779e-07
1.96708e-05
-7.00943e-07
1.9955e-05
-6.27098e-07
2.01411e-05
-4.56647e-07
2.02339e-05
-3.02589e-07
2.02521e-05
-1.71133e-07
2.02365e-05
-1.10721e-07
2.01975e-05
-1.0862e-07
2.0169e-05
-1.39569e-07
2.01416e-05
-1.82791e-07
2.01322e-05
-2.13737e-07
2.01453e-05
-2.13183e-07
2.01819e-05
-1.96455e-07
2.02324e-05
-1.32561e-07
2.02777e-05
-5.43274e-08
2.03517e-05
1.3219e-08
2.04139e-05
9.12782e-08
2.04892e-05
1.23166e-07
2.05681e-05
1.47028e-07
2.06555e-05
1.35048e-07
2.0716e-05
1.15755e-07
2.0773e-05
2.3643e-08
2.08406e-05
-9.04995e-08
2.08466e-05
-1.84913e-07
2.08741e-05
-3.5755e-07
2.08609e-05
-4.18043e-07
2.08483e-05
-5.3247e-07
2.08518e-05
-5.64584e-07
2.0858e-05
-5.56938e-07
2.08995e-05
-5.54654e-07
2.09131e-05
-4.866e-07
2.09162e-05
-5.00127e-07
2.0903e-05
-4.59933e-07
2.09099e-05
-4.81856e-07
2.08736e-05
-4.38518e-07
2.08275e-05
-4.38597e-07
2.07592e-05
-4.63065e-07
2.06096e-05
-4.23284e-07
2.04716e-05
-4.86943e-07
2.02772e-05
-4.3696e-07
2.00369e-05
-3.9099e-07
1.98438e-05
-3.77543e-07
1.95961e-05
-1.57378e-07
1.93697e-05
-3.21566e-08
1.92011e-05
1.77129e-07
1.90332e-05
5.04702e-07
1.89616e-05
7.46202e-07
1.895e-05
9.94932e-07
1.90368e-05
1.31448e-06
1.92527e-05
1.48954e-06
1.95343e-05
1.60591e-06
1.9924e-05
1.69137e-06
2.04043e-05
1.60349e-06
2.09309e-05
1.44855e-06
2.15153e-05
1.15048e-06
2.20647e-05
6.9519e-07
2.2514e-05
1.44552e-07
2.29755e-05
-4.9652e-07
2.33621e-05
-1.11539e-06
2.367e-05
-1.77291e-06
2.40065e-05
-2.36509e-06
2.43197e-05
-2.90993e-06
2.45942e-05
-3.33877e-06
2.49946e-05
-3.72797e-06
2.53613e-05
-4.00418e-06
2.57289e-05
-4.2376e-06
2.61998e-05
-4.33848e-06
2.66305e-05
-4.49748e-06
2.70324e-05
-4.50838e-06
2.75285e-05
-4.52033e-06
2.79478e-05
-4.5598e-06
2.84245e-05
-4.51888e-06
2.88599e-05
-4.49011e-06
2.93386e-05
-4.55469e-06
2.97947e-05
-4.49489e-06
3.02307e-05
-4.58177e-06
3.06365e-05
-4.64228e-06
3.10436e-05
-4.67665e-06
3.13968e-05
-4.83928e-06
3.17581e-05
-4.95721e-06
3.19774e-05
-5.01675e-06
3.22599e-05
-5.18132e-06
3.23984e-05
-5.26576e-06
3.24813e-05
-5.2941e-06
3.25885e-05
-5.40897e-06
3.25705e-05
-5.34452e-06
3.25516e-05
-5.30702e-06
3.25033e-05
-5.12632e-06
3.23909e-05
-5.01517e-06
3.2296e-05
-4.74615e-06
3.21827e-05
-4.52598e-06
3.20362e-05
-4.32814e-06
3.19349e-05
-4.07296e-06
3.17614e-05
-3.97149e-06
3.16102e-05
-3.81801e-06
3.1438e-05
-3.77425e-06
3.13145e-05
-3.90169e-06
3.11551e-05
-3.94428e-06
3.10844e-05
-4.09484e-06
3.0989e-05
-4.33877e-06
3.09862e-05
-4.43791e-06
3.08653e-05
-4.74894e-06
3.07912e-05
-5.00006e-06
3.06972e-05
-5.41693e-06
3.06051e-05
-5.7885e-06
3.05253e-05
-6.33504e-06
3.04861e-05
-6.7824e-06
3.05402e-05
-7.34375e-06
3.05997e-05
-7.79002e-06
3.07722e-05
-8.3053e-06
3.09742e-05
-8.58285e-06
3.12275e-05
-9.17823e-06
3.17072e-05
-9.28143e-06
3.1966e-05
-9.75992e-06
3.24442e-05
-9.9273e-06
3.29691e-05
-1.02302e-05
3.3365e-05
-1.02788e-05
3.39195e-05
-1.05554e-05
3.42696e-05
-1.03334e-05
3.45643e-05
-1.03169e-05
3.48819e-05
-9.96072e-06
3.50125e-05
-9.74903e-06
3.52146e-05
-9.07251e-06
3.5287e-05
-8.66044e-06
3.53803e-05
-7.81775e-06
3.55038e-05
-7.21177e-06
3.54707e-05
-6.15056e-06
3.57022e-05
-5.29541e-06
3.5793e-05
-4.3476e-06
3.58996e-05
-2.88524e-06
3.61041e-05
-1.94077e-06
3.61783e-05
-2.26909e-07
3.60878e-05
1.34002e-06
3.59071e-05
3.35771e-06
3.52208e-05
5.12034e-06
3.43004e-05
7.041e-06
3.28049e-05
8.68395e-06
3.09012e-05
9.86773e-06
2.88368e-05
1.01317e-05
2.66567e-05
1.01903e-05
2.44975e-05
9.39586e-06
2.24428e-05
8.57328e-06
2.09899e-05
7.88114e-06
1.95589e-05
6.22077e-06
1.85249e-05
5.79505e-06
1.70497e-05
5.7051e-06
1.58218e-05
4.82677e-06
1.48348e-05
4.34225e-06
1.42197e-05
5.10354e-06
1.3404e-05
4.27798e-06
1.34089e-05
4.6862e-06
1.31474e-05
2.99757e-06
1.3789e-05
2.215e-06
1.40443e-05
1.67084e-06
1.34784e-05
2.7951e-06
1.37424e-05
3.31216e-06
1.42716e-05
2.76799e-06
1.5022e-05
8.54877e-08
1.66676e-05
-3.19684e-06
1.81139e-05
-7.06707e-06
1.91229e-05
-1.22586e-05
2.01493e-05
-1.76303e-05
2.0945e-05
-2.02939e-05
2.1469e-05
-2.09495e-05
2.11861e-05
-2.09947e-05
1.99594e-05
-2.08351e-05
1.92451e-05
-2.0011e-05
1.91327e-05
-1.65303e-05
1.94224e-05
-1.25331e-05
1.94868e-05
-9.81084e-06
1.94783e-05
-8.91289e-06
1.89493e-05
-7.30039e-06
1.8994e-05
-3.03147e-06
1.93358e-05
1.2726e-06
1.97626e-05
4.19476e-06
1.94782e-05
7.86903e-06
1.93974e-05
1.15335e-05
1.89072e-05
1.41104e-05
1.82585e-05
1.4501e-05
1.75001e-05
1.59885e-05
1.69668e-05
1.81516e-05
1.65559e-05
2.02448e-05
1.58324e-05
2.07485e-05
1.57417e-05
2.07549e-05
1.50319e-05
2.2542e-05
1.41786e-05
2.10492e-05
1.46057e-05
1.76904e-05
1.4568e-05
1.49042e-05
1.40878e-05
1.3236e-05
1.2874e-05
1.31793e-05
1.26174e-05
1.38452e-05
1.23151e-05
1.82113e-05
1.27156e-05
2.31136e-05
1.37891e-05
2.75536e-05
1.35169e-05
2.96635e-05
1.38879e-05
2.70748e-05
1.3425e-05
2.85971e-05
1.71751e-05
1.9841e-05
2.89615e-05
1.8999e-05
2.44416e-05
-6.05827e-07
2.48955e-05
-1.06169e-06
2.53012e-05
-1.10662e-06
2.55108e-05
-8.36708e-07
2.55931e-05
-5.38936e-07
2.56302e-05
-3.39704e-07
2.5608e-05
-1.48935e-07
2.55848e-05
-8.7551e-08
2.55519e-05
-7.57494e-08
2.55075e-05
-9.514e-08
2.54958e-05
-1.71088e-07
2.54837e-05
-2.01657e-07
2.55102e-05
-2.3964e-07
2.55427e-05
-2.29016e-07
2.55838e-05
-1.73657e-07
2.56266e-05
-9.71037e-08
2.56751e-05
-3.52612e-08
2.57164e-05
5.00066e-08
2.57485e-05
9.10421e-08
2.57916e-05
1.03881e-07
2.58336e-05
9.30461e-08
2.58762e-05
7.32063e-08
2.59038e-05
-3.92165e-09
2.59252e-05
-1.11963e-07
2.59273e-05
-1.87028e-07
2.59158e-05
-3.46004e-07
2.5878e-05
-3.80304e-07
2.58589e-05
-5.13319e-07
2.58205e-05
-5.26196e-07
2.58014e-05
-5.37788e-07
2.58132e-05
-5.66516e-07
2.58082e-05
-4.81579e-07
2.58093e-05
-5.01181e-07
2.57877e-05
-4.38371e-07
2.5758e-05
-4.52147e-07
2.57497e-05
-4.30248e-07
2.56886e-05
-3.7744e-07
2.56213e-05
-3.95843e-07
2.5531e-05
-3.32931e-07
2.53685e-05
-3.2447e-07
2.52248e-05
-2.93243e-07
2.50425e-05
-2.08714e-07
2.48223e-05
-1.57286e-07
2.46969e-05
-3.20664e-08
2.44916e-05
1.73179e-07
2.43488e-05
3.19908e-07
2.42816e-05
5.71914e-07
2.42066e-05
8.21209e-07
2.4216e-05
9.85532e-07
2.43049e-05
1.22556e-06
2.44568e-05
1.33769e-06
2.4665e-05
1.39764e-06
2.49605e-05
1.39592e-06
2.52982e-05
1.2658e-06
2.5668e-05
1.07876e-06
2.60945e-05
7.239e-07
2.65026e-05
2.87114e-07
2.68923e-05
-2.45155e-07
2.72698e-05
-8.73988e-07
2.76528e-05
-1.49843e-06
2.79669e-05
-2.08696e-06
2.82777e-05
-2.6759e-06
2.8581e-05
-3.21322e-06
2.8864e-05
-3.62178e-06
2.91219e-05
-3.98587e-06
2.94338e-05
-4.3161e-06
2.96853e-05
-4.48906e-06
2.99732e-05
-4.62635e-06
3.02483e-05
-4.77259e-06
3.05057e-05
-4.76583e-06
3.07741e-05
-4.78869e-06
3.10516e-05
-4.83735e-06
3.1297e-05
-4.7643e-06
3.15869e-05
-4.77995e-06
3.18398e-05
-4.80758e-06
3.20979e-05
-4.75307e-06
3.2325e-05
-4.80885e-06
3.25505e-05
-4.86779e-06
3.27505e-05
-4.87664e-06
3.28641e-05
-4.95287e-06
3.29841e-05
-5.07722e-06
3.30227e-05
-5.05535e-06
3.30518e-05
-5.21042e-06
3.30005e-05
-5.21443e-06
3.29671e-05
-5.26074e-06
3.28283e-05
-5.27013e-06
3.26767e-05
-5.19294e-06
3.24945e-05
-5.12476e-06
3.2341e-05
-4.97284e-06
3.21039e-05
-4.77809e-06
3.19444e-05
-4.58665e-06
3.17432e-05
-4.32478e-06
3.15582e-05
-4.14317e-06
3.13692e-05
-3.88392e-06
3.11673e-05
-3.76959e-06
3.10045e-05
-3.65523e-06
3.08022e-05
-3.57192e-06
3.05886e-05
-3.68815e-06
3.04339e-05
-3.78954e-06
3.03226e-05
-3.98354e-06
3.0207e-05
-4.22315e-06
3.01689e-05
-4.39986e-06
3.00812e-05
-4.66124e-06
3.0096e-05
-5.01481e-06