/*--------------------------------*- C++ -*----------------------------------*\
| =========                 |                                                 |
| \\      /  F ield         | OpenFOAM: The Open Source CFD Toolbox           |
|  \\    /   O peration     | Version:  2.4.0                                 |
|   \\  /    A nd           | Web:      www.OpenFOAM.org                      |
|    \\/     M anipulation  |                                                 |
\*---------------------------------------------------------------------------*/
FoamFile
{
    version     2.0;
    format      ascii;
    class       volVectorField;
    location    "0.4";
    object      U;
}
// * * * * * * * * * * * * * * * * * * * * * * * * * * * * * * * * * * * * * //

dimensions      [0 1 -1 0 0 0 0];

internalField   nonuniform List<vector> 
8800
(
(8.09146 0.387971 0)
(5.44933 0.24243 0)
(3.91054 0.0431043 0)
(3.15729 -0.015525 0)
(2.80177 -0.018484 0)
(2.59628 -0.0104001 0)
(2.4878 -0.00672837 0)
(2.37603 -0.00130943 0)
(2.32402 -0.00205078 0)
(2.24509 -0.00057817 0)
(2.21967 7.95976e-05 0)
(2.16629 -0.0017883 0)
(2.14438 0.00186674 0)
(2.09885 -0.000336714 0)
(2.08255 -0.00120535 0)
(2.0339 0.00402236 0)
(2.00118 -0.000979763 0)
(1.96857 -0.00227143 0)
(1.93894 0.0120885 0)
(1.69166 -0.0624088 0)
(10.0848 0.838803 0)
(9.65748 0.867484 0)
(8.8685 0.506961 0)
(8.08528 0.2613 0)
(7.49285 0.137836 0)
(7.00231 0.0838017 0)
(6.70945 0.0511862 0)
(6.38329 0.0437671 0)
(6.24422 0.0282428 0)
(6.00586 0.0245812 0)
(5.9398 0.0202704 0)
(5.77604 0.0133394 0)
(5.71458 0.0200995 0)
(5.60808 0.014322 0)
(5.54889 0.00988368 0)
(5.43492 0.0276385 0)
(5.39227 0.0135842 0)
(5.27474 0.00727684 0)
(5.21953 0.047756 0)
(5.0182 -0.0505062 0)
(10.0643 0.631977 0)
(10.66 0.863232 0)
(10.8611 0.602308 0)
(10.6963 0.372502 0)
(10.4572 0.255316 0)
(10.0771 0.197938 0)
(9.85995 0.149134 0)
(9.46746 0.128593 0)
(9.34789 0.0908571 0)
(9.00512 0.0785732 0)
(8.94442 0.0599951 0)
(8.70062 0.0471217 0)
(8.61962 0.0502772 0)
(8.47736 0.0388502 0)
(8.39404 0.0325369 0)
(8.2252 0.054629 0)
(8.21927 0.0353527 0)
(8.00284 0.0314335 0)
(7.96623 0.0795813 0)
(7.78988 -0.0411608 0)
(10.006 0.458126 0)
(10.5741 0.705345 0)
(11.1526 0.54567 0)
(11.3792 0.35043 0)
(11.5601 0.264412 0)
(11.4464 0.22828 0)
(11.5261 0.194479 0)
(11.2603 0.184888 0)
(11.3445 0.141398 0)
(11.0428 0.131601 0)
(11.0949 0.103664 0)
(10.8732 0.0898482 0)
(10.8299 0.0884524 0)
(10.7129 0.0710663 0)
(10.6548 0.0636471 0)
(10.4436 0.0905713 0)
(10.5512 0.0568761 0)
(10.2191 0.0707696 0)
(10.2387 0.0952016 0)
(10.0665 0.0988128 0)
(10.0438 0.3447 0)
(10.4243 0.571742 0)
(11.0317 0.464611 0)
(11.3021 0.286519 0)
(11.654 0.210469 0)
(11.6434 0.191169 0)
(11.9384 0.172833 0)
(11.7676 0.181719 0)
(12.0508 0.135228 0)
(11.8683 0.147954 0)
(12.0369 0.102471 0)
(11.9522 0.109801 0)
(11.9716 0.0973287 0)
(11.9857 0.0853024 0)
(12.0157 0.082809 0)
(11.7932 0.106917 0)
(12.0856 0.0659436 0)
(11.7966 0.121768 0)
(11.7229 0.0821315 0)
(11.6987 0.148713 0)
(10.0408 0.249474 0)
(10.3523 0.454886 0)
(10.8641 0.384327 0)
(11.22 0.245415 0)
(11.5273 0.17093 0)
(11.5522 0.139066 0)
(11.8755 0.136948 0)
(11.7569 0.155264 0)
(12.0301 0.0994453 0)
(12.005 0.138114 0)
(12.1446 0.0820747 0)
(12.1947 0.09681 0)
(12.1768 0.0906863 0)
(12.3542 0.0535753 0)
(12.4141 0.104769 0)
(12.2565 0.0855724 0)
(12.5795 0.0419727 0)
(12.5334 0.131476 0)
(12.3545 0.112979 0)
(12.4091 0.0255384 0)
(9.9733 0.168685 0)
(10.3806 0.361105 0)
(10.665 0.293629 0)
(11.1953 0.187656 0)
(11.3684 0.145678 0)
(11.5279 0.0980199 0)
(11.7543 0.100477 0)
(11.7015 0.137743 0)
(11.8707 0.0570833 0)
(11.9385 0.1182 0)
(12.1136 0.0529068 0)
(12.0831 0.0947097 0)
(12.1387 0.0673849 0)
(12.3852 0.0137928 0)
(12.2914 0.107473 0)
(12.3319 0.0672504 0)
(12.5795 -0.00913744 0)
(12.5329 0.135695 0)
(12.5105 0.0949898 0)
(12.5709 -0.0387896 0)
(9.97416 0.102708 0)
(10.3438 0.258644 0)
(10.5967 0.212068 0)
(11.0959 0.137464 0)
(11.284 0.119827 0)
(11.4876 0.046497 0)
(11.6355 0.0768579 0)
(11.7104 0.115353 0)
(11.7547 0.0239892 0)
(11.8688 0.0738935 0)
(12.0601 0.0466103 0)
(11.9595 0.0800276 0)
(12.228 0.0255284 0)
(12.253 0.0137789 0)
(12.1473 0.112668 0)
(12.3673 0.0110388 0)
(12.4321 -0.0180161 0)
(12.4372 0.104863 0)
(12.5437 0.0509826 0)
(12.4404 -0.0482506 0)
(10.0211 0.0473154 0)
(10.2716 0.167624 0)
(10.5549 0.133349 0)
(10.9775 0.0616533 0)
(11.3276 0.0929758 0)
(11.4168 0.0190699 0)
(11.555 0.0337676 0)
(11.7144 0.0911418 0)
(11.7391 0.00801791 0)
(11.8283 0.0307647 0)
(11.9879 0.0372428 0)
(11.9396 0.0397779 0)
(12.124 0.0136957 0)
(12.1474 0.0199652 0)
(12.1987 0.078129 0)
(12.3139 -0.00467463 0)
(12.4189 -0.0423467 0)
(12.4171 0.0609065 0)
(12.373 0.0487107 0)
(12.3567 -0.0572852 0)
(9.99124 -0.00206307 0)
(10.2487 0.0760467 0)
(10.5812 0.0579712 0)
(10.9663 -0.0142488 0)
(11.2586 0.058688 0)
(11.4206 0.0050314 0)
(11.5104 -0.00564534 0)
(11.7181 0.0488837 0)
(11.755 -0.017526 0)
(11.7699 0.00290177 0)
(11.9871 0.0236343 0)
(11.8519 0.0365083 0)
(12.0831 -0.0149396 0)
(12.1912 -0.00614184 0)
(12.1685 0.0632023 0)
(12.3168 -0.0467316 0)
(12.4297 -0.0585423 0)
(12.2913 0.0693679 0)
(12.3981 0.0142956 0)
(12.3941 -0.111746 0)
(9.9797 -0.0417306 0)
(10.2592 -0.0278119 0)
(10.6173 -0.0267743 0)
(10.9335 -0.0697801 0)
(11.2213 0.0293212 0)
(11.4824 -0.0225848 0)
(11.4967 -0.0510535 0)
(11.7368 0.0101423 0)
(11.7173 -0.0201089 0)
(11.756 -0.034565 0)
(11.9483 0.0184516 0)
(11.8995 0.00911558 0)
(12.1667 -0.0573571 0)
(12.0866 -0.00860925 0)
(12.2237 0.041083 0)
(12.3779 -0.0739635 0)
(12.2651 -0.0523578 0)
(12.3322 0.0356311 0)
(12.5073 -0.0335592 0)
(12.3008 -0.0795639 0)
(10.0067 -0.0882786 0)
(10.2237 -0.135562 0)
(10.6425 -0.0914078 0)
(10.9587 -0.125852 0)
(11.2605 -0.0268686 0)
(11.5029 -0.0457736 0)
(11.5653 -0.0765845 0)
(11.6634 -0.0279987 0)
(11.7663 -0.0372317 0)
(11.827 -0.0649183 0)
(11.8883 -0.00757727 0)
(12.0697 -0.0254905 0)
(12.074 -0.0519173 0)
(12.1082 -0.0222145 0)
(12.3276 -0.0190374 0)
(12.2852 -0.0571258 0)
(12.3061 -0.0646495 0)
(12.4258 -0.0304845 0)
(12.4498 -0.0248044 0)
(12.3324 -0.0845108 0)
(10.0241 -0.132103 0)
(10.2137 -0.23453 0)
(10.6743 -0.186728 0)
(11.068 -0.183647 0)
(11.2747 -0.0598744 0)
(11.5424 -0.0807321 0)
(11.632 -0.100039 0)
(11.6771 -0.061642 0)
(11.8335 -0.0704596 0)
(11.855 -0.0748702 0)
(11.9466 -0.0399815 0)
(12.1013 -0.0432289 0)
(12.0768 -0.0549286 0)
(12.2402 -0.0762599 0)
(12.2732 -0.00982228 0)
(12.3549 -0.0753747 0)
(12.4222 -0.098044 0)
(12.403 -0.0415577 0)
(12.4904 -0.0650607 0)
(12.5054 -0.113374 0)
(10.0449 -0.18874 0)
(10.2559 -0.338697 0)
(10.7542 -0.278171 0)
(11.1356 -0.225052 0)
(11.3699 -0.103095 0)
(11.5811 -0.124608 0)
(11.6942 -0.118926 0)
(11.7522 -0.0987094 0)
(11.8744 -0.091865 0)
(11.9282 -0.10024 0)
(12.0542 -0.0658287 0)
(12.1047 -0.0689882 0)
(12.2269 -0.0732448 0)
(12.2682 -0.078448 0)
(12.3289 -0.0475138 0)
(12.4421 -0.0995479 0)
(12.4546 -0.0929148 0)
(12.489 -0.0855154 0)
(12.565 -0.10319 0)
(12.5101 -0.122207 0)
(10.0745 -0.264139 0)
(10.2829 -0.436317 0)
(10.905 -0.373232 0)
(11.2054 -0.271008 0)
(11.5252 -0.142214 0)
(11.6097 -0.161362 0)
(11.8135 -0.15181 0)
(11.8049 -0.125862 0)
(11.9847 -0.12274 0)
(12.0004 -0.128417 0)
(12.1589 -0.0838983 0)
(12.1471 -0.0941162 0)
(12.2877 -0.0876907 0)
(12.2797 -0.103899 0)
(12.3761 -0.0596224 0)
(12.3841 -0.114975 0)
(12.4548 -0.10728 0)
(12.4163 -0.115926 0)
(12.4721 -0.121107 0)
(12.3641 -0.156329 0)
(10.0589 -0.354703 0)
(10.364 -0.552292 0)
(11.0886 -0.465957 0)
(11.3012 -0.307541 0)
(11.6586 -0.190216 0)
(11.6635 -0.201756 0)
(11.8895 -0.186637 0)
(11.8063 -0.153171 0)
(11.9989 -0.15204 0)
(11.8823 -0.145641 0)
(12.0543 -0.105653 0)
(11.9088 -0.106429 0)
(12.0497 -0.100938 0)
(11.9036 -0.106514 0)
(12.0154 -0.0737294 0)
(11.8585 -0.120729 0)
(11.9337 -0.103801 0)
(11.7623 -0.125149 0)
(11.7819 -0.125728 0)
(11.5407 -0.175746 0)
(10.0049 -0.461273 0)
(10.5503 -0.697392 0)
(11.2036 -0.549101 0)
(11.3437 -0.360094 0)
(11.5761 -0.2478 0)
(11.4473 -0.234831 0)
(11.4972 -0.207004 0)
(11.2915 -0.165071 0)
(11.3176 -0.151591 0)
(11.0493 -0.136563 0)
(11.1088 -0.0997026 0)
(10.8305 -0.0925082 0)
(10.8897 -0.0868776 0)
(10.6202 -0.0895297 0)
(10.6959 -0.0602234 0)
(10.4078 -0.0956792 0)
(10.4722 -0.0808179 0)
(10.1787 -0.108159 0)
(10.1896 -0.094731 0)
(9.84328 -0.169134 0)
(10.06 -0.633992 0)
(10.6527 -0.859645 0)
(10.8853 -0.602119 0)
(10.6661 -0.377898 0)
(10.4797 -0.248411 0)
(10.0738 -0.200122 0)
(9.84034 -0.158489 0)
(9.49102 -0.115457 0)
(9.33081 -0.0959789 0)
(9.00428 -0.0832061 0)
(8.95429 -0.0565586 0)
(8.66445 -0.0498026 0)
(8.66356 -0.0489136 0)
(8.39471 -0.0499777 0)
(8.43505 -0.0336128 0)
(8.15276 -0.0555901 0)
(8.19541 -0.0529605 0)
(7.89649 -0.0640526 0)
(7.90005 -0.069824 0)
(7.54896 -0.0959784 0)
(10.0826 -0.839184 0)
(9.65454 -0.866484 0)
(8.8801 -0.506595 0)
(8.06816 -0.264471 0)
(7.50771 -0.134465 0)
(6.99868 -0.0830736 0)
(6.69812 -0.0579061 0)
(6.3954 -0.0368063 0)
(6.23632 -0.0293671 0)
(6.00319 -0.0291168 0)
(5.94297 -0.0172236 0)
(5.75243 -0.0156114 0)
(5.73845 -0.0181412 0)
(5.55234 -0.0209171 0)
(5.56759 -0.0119055 0)
(5.37109 -0.0255213 0)
(5.37923 -0.0250139 0)
(5.15685 -0.0291484 0)
(5.14698 -0.037225 0)
(4.85329 -0.0216782 0)
(8.09121 -0.388135 0)
(5.44791 -0.242453 0)
(3.91474 -0.0426451 0)
(3.15242 0.0145742 0)
(2.80406 0.019171 0)
(2.59743 0.0110792 0)
(2.48391 0.00427128 0)
(2.37606 0.00353535 0)
(2.32469 0.0019516 0)
(2.24355 -0.00101128 0)
(2.21693 0.00122485 0)
(2.15749 0.000758072 0)
(2.14983 -0.000557675 0)
(2.07829 -0.00172727 0)
(2.07692 0.0010143 0)
(2.00412 -0.00293185 0)
(1.98735 -0.00205077 0)
(1.89616 -0.00254478 0)
(1.86305 -0.00374373 0)
(1.71107 0.0103245 0)
(2.20354 -0.154712 0)
(2.29921 -0.0785494 0)
(2.43407 -0.0454037 0)
(2.55705 -0.0275919 0)
(2.70796 -0.0186796 0)
(2.80558 -0.0115574 0)
(2.90825 -0.0152613 0)
(2.95708 -0.021346 0)
(3.01618 -0.0402991 0)
(3.03028 -0.0505136 0)
(3.06863 -0.061396 0)
(3.07871 -0.0487221 0)
(3.11231 -0.0344952 0)
(3.13907 -0.0127541 0)
(3.17116 0.0169472 0)
(3.20136 0.0479413 0)
(3.23878 0.0707908 0)
(3.30782 0.0926195 0)
(3.38194 0.118427 0)
(3.44376 0.13463 0)
(3.52256 0.137092 0)
(3.6637 0.115538 0)
(3.75701 0.100976 0)
(3.85957 0.0484868 0)
(3.96657 -0.00774216 0)
(4.01097 -0.0585634 0)
(4.01903 -0.120076 0)
(4.00346 -0.170285 0)
(3.96786 -0.170773 0)
(3.90555 -0.144094 0)
(3.87741 -0.132359 0)
(3.89439 -0.137866 0)
(3.947 -0.144143 0)
(4.00637 -0.138496 0)
(4.00437 -0.141617 0)
(4.0592 -0.149819 0)
(4.07426 -0.169593 0)
(4.04239 -0.202547 0)
(4.03964 -0.248713 0)
(3.97805 -0.288577 0)
(3.90071 -0.322125 0)
(3.78724 -0.346052 0)
(3.70558 -0.332502 0)
(3.53802 -0.286157 0)
(3.52326 -0.229121 0)
(3.44123 -0.128374 0)
(3.46179 0.0469086 0)
(3.54261 0.243793 0)
(3.80707 0.414809 0)
(3.94293 0.653496 0)
(4.28377 0.859304 0)
(4.64124 0.998491 0)
(4.97693 1.06244 0)
(5.30147 1.13329 0)
(5.73739 1.16259 0)
(6.13421 1.06317 0)
(6.47023 0.799173 0)
(6.79235 0.549255 0)
(7.01042 0.290215 0)
(7.18313 -0.0977845 0)
(7.27977 -0.367995 0)
(7.27311 -0.614218 0)
(7.21448 -0.914408 0)
(7.10119 -1.01719 0)
(6.94401 -1.04983 0)
(6.90802 -1.16527 0)
(6.90798 -1.12965 0)
(6.86269 -1.07813 0)
(7.08948 -1.16669 0)
(7.18621 -1.10679 0)
(7.35532 -1.07307 0)
(7.57148 -1.13325 0)
(7.80213 -1.06959 0)
(8.04623 -1.05134 0)
(8.29622 -1.08521 0)
(8.56828 -1.06851 0)
(8.86998 -1.04718 0)
(9.15174 -1.11217 0)
(9.40475 -1.14592 0)
(9.71458 -1.15374 0)
(9.98985 -1.26335 0)
(10.1759 -1.34706 0)
(10.483 -1.39239 0)
(10.6883 -1.47837 0)
(10.8934 -1.57883 0)
(11.0994 -1.61407 0)
(11.2691 -1.6935 0)
(11.4128 -1.65579 0)
(11.5601 -1.66414 0)
(11.7127 -1.66424 0)
(11.8128 -1.59161 0)
(11.8829 -1.51075 0)
(11.9916 -1.52073 0)
(12.0736 -1.39772 0)
(12.1346 -1.37252 0)
(12.1963 -1.33994 0)
(12.2497 -1.31424 0)
(12.3706 -1.30719 0)
(12.4103 -1.36065 0)
(12.503 -1.33818 0)
(12.5464 -1.42321 0)
(12.6366 -1.45455 0)
(12.6177 -1.57298 0)
(12.788 -1.68461 0)
(12.6409 -1.78159 0)
(12.8976 -1.96442 0)
(12.7194 -2.04889 0)
(12.9361 -2.29546 0)
(12.7897 -2.35019 0)
(13.0981 -2.53264 0)
(12.856 -2.64924 0)
(13.188 -2.71507 0)
(12.9748 -2.93006 0)
(13.2997 -2.8309 0)
(13.0037 -3.08341 0)
(13.5191 -3.04047 0)
(12.9526 -3.0033 0)
(13.8072 -3.19475 0)
(13.2098 -3.04894 0)
(13.8548 -3.0533 0)
(13.6219 -3.17849 0)
(14.1757 -2.92016 0)
(13.8952 -2.98443 0)
(14.661 -2.74861 0)
(14.2047 -2.66372 0)
(15.0314 -2.43833 0)
(14.5361 -2.19556 0)
(15.2829 -1.96575 0)
(14.8467 -1.63321 0)
(15.4096 -1.33828 0)
(15.1379 -0.924904 0)
(15.3289 -0.597799 0)
(15.252 -0.125269 0)
(15.1227 0.194324 0)
(15.0279 0.713796 0)
(14.521 1.04343 0)
(14.3929 1.45279 0)
(13.4801 1.53893 0)
(13.2261 1.81015 0)
(12.2828 1.73809 0)
(11.7514 1.75279 0)
(10.9943 1.52769 0)
(10.348 1.31656 0)
(9.71989 1.35995 0)
(8.76561 0.893749 0)
(8.80266 0.96302 0)
(7.59147 0.623417 0)
(7.77721 0.73234 0)
(6.48618 0.517514 0)
(6.83759 1.23394 0)
(5.60219 0.623493 0)
(6.04419 1.44359 0)
(5.47722 0.872171 0)
(5.72622 0.83242 0)
(5.08622 0.590759 0)
(5.35349 0.67216 0)
(5.3104 1.07892 0)
(5.12117 1.39165 0)
(5.51562 0.652616 0)
(5.94512 0.310061 0)
(6.1612 -0.758869 0)
(6.86122 -2.72457 0)
(7.82863 -4.51467 0)
(8.57291 -5.73046 0)
(9.33899 -6.40561 0)
(9.30551 -7.0599 0)
(9.30277 -7.69518 0)
(9.5769 -7.06038 0)
(9.72568 -5.79154 0)
(9.83574 -4.42446 0)
(9.17478 -3.55879 0)
(9.05221 -3.13844 0)
(8.71447 -2.83517 0)
(9.22388 -1.35665 0)
(8.99822 0.402538 0)
(9.25005 1.46599 0)
(9.07726 2.16846 0)
(9.04068 3.4942 0)
(8.59098 4.09302 0)
(8.32438 4.09657 0)
(7.90248 4.53165 0)
(7.76492 5.61738 0)
(7.75069 6.12928 0)
(7.14909 6.37376 0)
(7.35235 6.77475 0)
(6.77927 6.55428 0)
(6.40644 6.55404 0)
(6.16321 6.33365 0)
(6.14803 5.36504 0)
(6.08068 4.05716 0)
(5.37767 3.37565 0)
(5.28145 3.83827 0)
(4.72302 5.45594 0)
(5.0064 7.92743 0)
(4.4787 9.28909 0)
(4.39062 9.56663 0)
(4.54262 9.33362 0)
(4.07371 9.19682 0)
(4.36038 9.22414 0)
(2.9132 10.6228 0)
(5.16055 -0.109773 0)
(5.19896 -0.0841988 0)
(5.24561 -0.073924 0)
(5.30855 -0.0737662 0)
(5.39669 -0.0715925 0)
(5.46388 -0.0607477 0)
(5.51875 -0.0471755 0)
(5.54788 -0.0405406 0)
(5.5661 -0.0459872 0)
(5.57239 -0.0557989 0)
(5.57994 -0.0660607 0)
(5.58933 -0.0680962 0)
(5.60083 -0.0607688 0)
(5.61974 -0.0461807 0)
(5.63646 -0.0241817 0)
(5.66272 0.00666798 0)
(5.68591 0.0310394 0)
(5.71141 0.0567213 0)
(5.74741 0.0698742 0)
(5.78041 0.0809019 0)
(5.81278 0.0884952 0)
(5.87483 0.0695639 0)
(5.93146 0.0442947 0)
(5.98647 0.00674432 0)
(6.04118 -0.0466877 0)
(6.09623 -0.0994561 0)
(6.11059 -0.142015 0)
(6.13114 -0.177763 0)
(6.12968 -0.189564 0)
(6.10145 -0.184545 0)
(6.08782 -0.174779 0)
(6.09763 -0.155487 0)
(6.10605 -0.166067 0)
(6.15649 -0.167504 0)
(6.1499 -0.162044 0)
(6.14388 -0.178049 0)
(6.1616 -0.173526 0)
(6.08972 -0.199809 0)
(6.09904 -0.22866 0)
(6.03252 -0.23443 0)
(5.9701 -0.26237 0)
(5.89117 -0.251239 0)
(5.83801 -0.22509 0)
(5.67332 -0.190569 0)
(5.63295 -0.116678 0)
(5.52588 -0.0351461 0)
(5.40171 0.06987 0)
(5.3894 0.211826 0)
(5.43 0.306503 0)
(5.41993 0.469239 0)
(5.56688 0.603926 0)
(5.85301 0.66883 0)
(6.01973 0.766849 0)
(6.35493 0.785067 0)
(6.6379 0.745979 0)
(7.03453 0.685301 0)
(7.293 0.519681 0)
(7.6162 0.26633 0)
(7.7948 0.0785551 0)
(7.98857 -0.171335 0)
(8.04169 -0.477697 0)
(8.15735 -0.669571 0)
(8.08252 -0.821442 0)
(8.21402 -1.01806 0)
(8.17026 -1.07076 0)
(8.31023 -1.13956 0)
(8.41035 -1.24606 0)
(8.57656 -1.23485 0)
(8.74033 -1.26455 0)
(8.98454 -1.31926 0)
(9.12704 -1.27941 0)
(9.40783 -1.30949 0)
(9.57731 -1.27206 0)
(9.86744 -1.29238 0)
(10.0508 -1.27459 0)
(10.3377 -1.26584 0)
(10.5626 -1.28594 0)
(10.8348 -1.31688 0)
(11.0353 -1.32723 0)
(11.2953 -1.41815 0)
(11.4931 -1.45544 0)
(11.7034 -1.54125 0)
(11.8762 -1.56835 0)
(12.0589 -1.64771 0)
(12.1635 -1.71208 0)
(12.3279 -1.72019 0)
(12.4041 -1.78017 0)
(12.4846 -1.78842 0)
(12.5823 -1.73531 0)
(12.6074 -1.73027 0)
(12.6173 -1.66833 0)
(12.6494 -1.58033 0)
(12.6584 -1.54678 0)
(12.6948 -1.44133 0)
(12.6526 -1.41315 0)
(12.6546 -1.36168 0)
(12.6412 -1.33718 0)
(12.6359 -1.34654 0)
(12.6249 -1.38044 0)
(12.6419 -1.36826 0)
(12.6988 -1.47739 0)
(12.6033 -1.47842 0)
(12.7153 -1.60072 0)
(12.6682 -1.67201 0)
(12.6211 -1.80364 0)
(12.6369 -1.94763 0)
(12.5924 -2.12387 0)
(12.5654 -2.25648 0)
(12.5627 -2.40391 0)
(12.6238 -2.56418 0)
(12.5 -2.70557 0)
(12.7252 -2.76423 0)
(12.6338 -2.98026 0)
(12.7855 -2.9 0)
(12.7367 -3.13789 0)
(13.1853 -3.09205 0)
(12.8258 -3.14142 0)
(13.5353 -3.25351 0)
(13.1601 -3.25468 0)
(13.8606 -3.26535 0)
(13.618 -3.29668 0)
(14.2381 -3.12935 0)
(13.9988 -3.20184 0)
(14.6177 -2.94654 0)
(14.2805 -2.88039 0)
(14.8939 -2.63154 0)
(14.5858 -2.37205 0)
(15.0753 -2.16005 0)
(14.824 -1.73769 0)
(15.2552 -1.46243 0)
(14.9932 -1.00763 0)
(15.2869 -0.643071 0)
(15.1396 -0.100815 0)
(15.1078 0.270097 0)
(15.1352 0.902185 0)
(14.5982 1.29581 0)
(14.4549 1.81967 0)
(13.5778 2.14084 0)
(13.2074 2.36548 0)
(12.1144 2.3688 0)
(11.5003 2.36696 0)
(10.4959 2.15031 0)
(9.86715 1.88912 0)
(9.39995 1.90943 0)
(8.2549 1.32554 0)
(8.27108 1.355 0)
(6.86314 1.21524 0)
(7.32226 1.15061 0)
(6.05145 0.92964 0)
(6.85083 1.38038 0)
(5.4115 0.847215 0)
(6.04114 1.49922 0)
(5.06164 0.848017 0)
(5.8577 1.01508 0)
(4.99913 0.660297 0)
(5.6284 0.591687 0)
(5.10364 1.1502 0)
(5.56128 1.25703 0)
(5.42486 0.449383 0)
(6.15423 -0.120922 0)
(6.52105 -1.36395 0)
(7.36129 -3.26904 0)
(7.89102 -5.09695 0)
(8.47821 -6.21412 0)
(9.03578 -6.64318 0)
(9.01657 -7.02759 0)
(8.91984 -7.47975 0)
(8.53761 -7.21729 0)
(8.69939 -5.93294 0)
(8.84838 -4.31351 0)
(8.58625 -3.33505 0)
(8.59271 -2.96072 0)
(8.30174 -2.82164 0)
(8.58869 -1.32024 0)
(8.30926 0.328206 0)
(8.61732 1.43259 0)
(8.52804 2.27893 0)
(8.43647 3.63007 0)
(8.35196 4.38551 0)
(7.85093 4.47722 0)
(7.66422 4.78453 0)
(7.34161 5.57393 0)
(7.25785 6.31206 0)
(6.75055 6.47184 0)
(6.87865 6.79225 0)
(6.71633 6.90769 0)
(5.69904 6.65419 0)
(6.13808 6.33648 0)
(6.08035 5.24859 0)
(6.36508 4.33086 0)
(5.68132 3.72293 0)
(5.51192 4.26899 0)
(4.96193 5.48496 0)
(4.78918 7.86002 0)
(5.20844 9.47416 0)
(4.91678 9.6855 0)
(4.83662 9.36486 0)
(4.85115 9.27572 0)
(6.26702 8.82372 0)
(4.89394 11.3035 0)
(7.78163 -0.141543 0)
(7.78826 -0.173478 0)
(7.82074 -0.170752 0)
(7.87522 -0.138965 0)
(7.97057 -0.0956541 0)
(8.05499 -0.0679755 0)
(8.10446 -0.0460357 0)
(8.12406 -0.0279197 0)
(8.11488 -0.0385676 0)
(8.09671 -0.0420148 0)
(8.08178 -0.0632414 0)
(8.06868 -0.0718082 0)
(8.0645 -0.0700009 0)
(8.06687 -0.06626 0)
(8.08062 -0.0390382 0)
(8.09547 -0.0186281 0)
(8.11773 0.0146875 0)
(8.13216 0.0350014 0)
(8.16588 0.0554148 0)
(8.19215 0.0652344 0)
(8.21841 0.061137 0)
(8.24874 0.0581752 0)
(8.2806 0.0179723 0)
(8.31503 -0.0138281 0)
(8.33838 -0.0578539 0)
(8.37752 -0.111572 0)
(8.37834 -0.137848 0)
(8.3967 -0.178733 0)
(8.38069 -0.18557 0)
(8.37514 -0.195103 0)
(8.3586 -0.178909 0)
(8.35102 -0.164502 0)
(8.36085 -0.165198 0)
(8.36516 -0.149872 0)
(8.37695 -0.17331 0)
(8.35762 -0.14828 0)
(8.34723 -0.165475 0)
(8.3025 -0.174471 0)
(8.28282 -0.155133 0)
(8.20038 -0.202068 0)
(8.17279 -0.171301 0)
(8.0755 -0.167225 0)
(8.00371 -0.176134 0)
(7.93283 -0.0857117 0)
(7.79948 -0.0604365 0)
(7.77412 0.0216647 0)
(7.6532 0.133845 0)
(7.60308 0.216016 0)
(7.60322 0.316493 0)
(7.57348 0.424179 0)
(7.5981 0.507568 0)
(7.73708 0.555107 0)
(7.80693 0.58175 0)
(8.01175 0.580859 0)
(8.1729 0.537644 0)
(8.43844 0.440414 0)
(8.67581 0.308359 0)
(8.87984 0.137829 0)
(9.14731 -0.0774641 0)
(9.25393 -0.283322 0)
(9.41474 -0.504896 0)
(9.58004 -0.71743 0)
(9.68293 -0.891675 0)
(9.78203 -1.04579 0)
(9.9444 -1.18467 0)
(10.0786 -1.26985 0)
(10.2186 -1.37044 0)
(10.37 -1.39397 0)
(10.6021 -1.44522 0)
(10.7001 -1.47056 0)
(10.9139 -1.45801 0)
(11.1139 -1.46531 0)
(11.2396 -1.46219 0)
(11.4601 -1.44215 0)
(11.6477 -1.4537 0)
(11.794 -1.42791 0)
(12.0461 -1.46521 0)
(12.1633 -1.48791 0)
(12.3417 -1.49983 0)
(12.4923 -1.56882 0)
(12.6559 -1.5887 0)
(12.7372 -1.6401 0)
(12.8471 -1.69203 0)
(12.9504 -1.76232 0)
(12.9634 -1.75599 0)
(13.0057 -1.80965 0)
(13.041 -1.80638 0)
(13.001 -1.80673 0)
(13.037 -1.75565 0)
(12.9741 -1.74887 0)
(12.9398 -1.63827 0)
(12.9267 -1.56075 0)
(12.8237 -1.48577 0)
(12.8458 -1.38417 0)
(12.7465 -1.37656 0)
(12.7012 -1.30756 0)
(12.6199 -1.29025 0)
(12.5947 -1.31517 0)
(12.4769 -1.3264 0)
(12.4806 -1.37167 0)
(12.4145 -1.47232 0)
(12.3673 -1.46977 0)
(12.4046 -1.60081 0)
(12.3255 -1.67969 0)
(12.3019 -1.82163 0)
(12.2371 -1.93272 0)
(12.2722 -2.11899 0)
(12.1193 -2.2625 0)
(12.23 -2.45516 0)
(12.2 -2.59343 0)
(12.2206 -2.75131 0)
(12.3242 -2.85597 0)
(12.4302 -3.04405 0)
(12.5218 -3.01953 0)
(12.6681 -3.20036 0)
(12.9824 -3.25207 0)
(12.8501 -3.36329 0)
(13.4037 -3.36205 0)
(13.2522 -3.49042 0)
(13.7803 -3.42701 0)
(13.5643 -3.43388 0)
(13.9919 -3.37671 0)
(13.8169 -3.32278 0)
(14.1328 -3.10699 0)
(13.8896 -3.0003 0)
(14.2469 -2.69812 0)
(14.0024 -2.51307 0)
(14.2184 -2.18263 0)
(14.1419 -1.81257 0)
(14.3032 -1.56463 0)
(14.2493 -1.03525 0)
(14.4184 -0.698092 0)
(14.4515 -0.12483 0)
(14.4448 0.342399 0)
(14.5909 0.988393 0)
(14.2629 1.4643 0)
(14.171 2.1131 0)
(13.4875 2.63341 0)
(13.0749 2.9433 0)
(11.988 3.02351 0)
(11.3366 3.0468 0)
(10.3286 2.87526 0)
(9.33858 2.5472 0)
(8.9449 2.44956 0)
(7.78669 1.87533 0)
(8.10771 1.74952 0)
(6.76984 1.70943 0)
(7.10779 1.38282 0)
(5.55833 1.31164 0)
(6.56763 1.57442 0)
(4.75529 1.33645 0)
(6.18154 1.64741 0)
(4.47759 1.03025 0)
(6.0048 0.877194 0)
(5.06603 0.660443 0)
(6.01724 0.747232 0)
(4.90832 1.11655 0)
(6.03187 1.05102 0)
(5.31 0.317089 0)
(6.65919 -0.633325 0)
(6.60705 -1.90219 0)
(7.55944 -3.57141 0)
(7.68573 -5.4443 0)
(8.11602 -6.57362 0)
(8.41536 -6.93921 0)
(8.58328 -7.01492 0)
(8.54999 -7.0627 0)
(7.79557 -6.97947 0)
(7.76832 -5.88299 0)
(7.6623 -4.4087 0)
(7.74719 -3.32744 0)
(7.80206 -2.94212 0)
(7.67053 -2.64073 0)
(7.73574 -1.25109 0)
(7.63278 0.28347 0)
(7.82212 1.30817 0)
(8.04558 2.30156 0)
(7.74953 3.58842 0)
(7.85549 4.55519 0)
(7.38961 4.70203 0)
(7.19932 5.04304 0)
(6.94492 5.74946 0)
(6.78529 6.62134 0)
(6.44049 6.67988 0)
(6.2768 6.79224 0)
(6.50577 7.41343 0)
(5.67784 6.9471 0)
(5.5481 6.13134 0)
(6.18664 5.05668 0)
(5.66161 4.37095 0)
(5.92338 4.19727 0)
(4.92098 4.55002 0)
(5.36879 5.86224 0)
(4.90874 7.62291 0)
(5.17296 9.50557 0)
(5.74592 9.84869 0)
(5.60422 9.4087 0)
(4.74353 9.60342 0)
(7.27343 7.21124 0)
(6.25907 10.6685 0)
(10.0139 -0.164466 0)
(10.0016 -0.297728 0)
(10.0504 -0.35269 0)
(10.1118 -0.296209 0)
(10.1678 -0.20492 0)
(10.2281 -0.126871 0)
(10.2622 -0.0614913 0)
(10.2677 -0.0384733 0)
(10.268 -0.0179546 0)
(10.2247 -0.0357227 0)
(10.2278 -0.043707 0)
(10.1931 -0.0634412 0)
(10.2053 -0.069807 0)
(10.2058 -0.0616978 0)
(10.2186 -0.0526257 0)
(10.2396 -0.0182282 0)
(10.241 -0.0098333 0)
(10.2733 0.0222461 0)
(10.2675 0.0261992 0)
(10.2962 0.0341146 0)
(10.3062 0.0302179 0)
(10.3148 0.0176427 0)
(10.348 0.00201432 0)
(10.3521 -0.0446422 0)
(10.3799 -0.0546158 0)
(10.3979 -0.113679 0)
(10.3858 -0.130362 0)
(10.4062 -0.162953 0)
(10.3645 -0.192932 0)
(10.3723 -0.175379 0)
(10.3294 -0.20077 0)
(10.3292 -0.166566 0)
(10.3165 -0.168486 0)
(10.2984 -0.160391 0)
(10.3354 -0.151051 0)
(10.268 -0.161321 0)
(10.3264 -0.138152 0)
(10.2259 -0.151431 0)
(10.2405 -0.136064 0)
(10.1706 -0.132001 0)
(10.1091 -0.138381 0)
(10.0792 -0.0988897 0)
(9.97898 -0.0967779 0)
(9.92723 -0.0456181 0)
(9.88393 0.0315638 0)
(9.75372 0.0699407 0)
(9.79468 0.172662 0)
(9.65714 0.264978 0)
(9.71846 0.313052 0)
(9.67115 0.421333 0)
(9.74352 0.469959 0)
(9.75843 0.489036 0)
(9.89607 0.515395 0)
(9.98755 0.478326 0)
(10.1351 0.422416 0)
(10.2724 0.323231 0)
(10.5388 0.178663 0)
(10.594 0.00253008 0)
(10.8794 -0.205106 0)
(10.9642 -0.425196 0)
(11.1446 -0.61613 0)
(11.2632 -0.810155 0)
(11.4065 -1.02652 0)
(11.4814 -1.13978 0)
(11.6397 -1.28182 0)
(11.6899 -1.40465 0)
(11.8667 -1.45716 0)
(11.9 -1.49793 0)
(12.0814 -1.57902 0)
(12.134 -1.55017 0)
(12.2583 -1.56796 0)
(12.3776 -1.58595 0)
(12.4575 -1.56794 0)
(12.5545 -1.55009 0)
(12.7315 -1.57023 0)
(12.7311 -1.54838 0)
(12.9218 -1.57286 0)
(12.964 -1.59595 0)
(13.0535 -1.60595 0)
(13.1375 -1.62018 0)
(13.1861 -1.68448 0)
(13.1813 -1.66714 0)
(13.2239 -1.74037 0)
(13.2047 -1.74677 0)
(13.1913 -1.77134 0)
(13.1545 -1.79994 0)
(13.106 -1.76659 0)
(13.0238 -1.74955 0)
(12.9778 -1.69627 0)
(12.8932 -1.63443 0)
(12.805 -1.57309 0)
(12.7665 -1.47866 0)
(12.6596 -1.40825 0)
(12.6008 -1.33255 0)
(12.5251 -1.28543 0)
(12.4491 -1.2467 0)
(12.3811 -1.20945 0)
(12.3146 -1.26282 0)
(12.1831 -1.29775 0)
(12.1839 -1.35063 0)
(12.1066 -1.42211 0)
(12.0739 -1.48705 0)
(12.0331 -1.58132 0)
(12.0524 -1.68467 0)
(12.0036 -1.81623 0)
(12.015 -1.93566 0)
(12.0041 -2.11145 0)
(11.9777 -2.28433 0)
(12.0833 -2.45724 0)
(12.0947 -2.62437 0)
(12.1709 -2.84172 0)
(12.3004 -2.90503 0)
(12.4509 -3.10204 0)
(12.5539 -3.19341 0)
(12.6629 -3.30423 0)
(12.9046 -3.43338 0)
(12.9412 -3.50984 0)
(13.1943 -3.50972 0)
(13.108 -3.60388 0)
(13.3637 -3.53592 0)
(13.0833 -3.54693 0)
(13.3259 -3.39729 0)
(13.0184 -3.31023 0)
(13.0935 -3.11098 0)
(12.8451 -2.93788 0)
(12.8896 -2.67057 0)
(12.6667 -2.48554 0)
(12.665 -2.11467 0)
(12.7431 -1.85522 0)
(12.5798 -1.54237 0)
(12.8572 -1.06784 0)
(12.8274 -0.747336 0)
(13.0259 -0.162341 0)
(13.1274 0.318012 0)
(13.3411 0.939563 0)
(13.2761 1.62186 0)
(13.34 2.26512 0)
(12.8883 2.92499 0)
(12.5163 3.52507 0)
(11.7834 3.70286 0)
(10.8786 3.75389 0)
(10.2538 3.48921 0)
(8.93681 3.2425 0)
(8.81365 3.00381 0)
(7.30389 2.50806 0)
(7.43218 2.14668 0)
(6.34147 2.07146 0)
(6.60116 1.80156 0)
(5.43494 1.5027 0)
(6.35331 1.81309 0)
(4.67016 1.56102 0)
(6.07824 1.52752 0)
(4.40816 1.12811 0)
(5.80455 0.647288 0)
(4.81546 0.333316 0)
(5.99808 0.953917 0)
(4.59368 1.0614 0)
(6.04745 0.88899 0)
(5.24345 0.0501994 0)
(6.91214 -1.06118 0)
(6.31837 -2.2159 0)
(7.51288 -3.78793 0)
(7.13625 -5.66775 0)
(7.69801 -6.79203 0)
(7.72113 -7.1398 0)
(8.09275 -7.02834 0)
(8.17935 -6.69492 0)
(7.67044 -6.41948 0)
(7.29154 -5.54033 0)
(6.8858 -4.41997 0)
(7.00361 -3.39436 0)
(6.81685 -3.03773 0)
(6.98324 -2.42842 0)
(6.7825 -1.23732 0)
(7.01355 0.149272 0)
(7.06544 1.13027 0)
(7.41715 2.43848 0)
(6.99457 3.6631 0)
(7.27051 4.63866 0)
(6.83579 4.81233 0)
(6.69152 5.27113 0)
(6.62714 6.00219 0)
(6.14591 6.72378 0)
(6.12389 6.99572 0)
(5.82426 6.90215 0)
(5.72748 7.51838 0)
(5.84354 7.18579 0)
(5.06829 6.04584 0)
(5.81511 5.10296 0)
(5.07221 4.56796 0)
(5.22624 4.54176 0)
(4.68561 4.57488 0)
(4.79623 5.87766 0)
(5.53883 7.40164 0)
(5.32402 9.08742 0)
(5.98994 9.88485 0)
(7.24584 9.04809 0)
(5.33081 10.1635 0)
(7.86223 6.41612 0)
(7.10589 9.44122 0)
(11.6541 -0.115354 0)
(11.6349 -0.290423 0)
(11.7594 -0.352743 0)
(11.8154 -0.331458 0)
(11.8605 -0.218304 0)
(11.8499 -0.143702 0)
(11.8447 -0.0608684 0)
(11.8102 -0.0237143 0)
(11.7699 -0.0287954 0)
(11.7247 -0.0145181 0)
(11.6735 -0.0575685 0)
(11.651 -0.0656696 0)
(11.6334 -0.0895857 0)
(11.6463 -0.0989888 0)
(11.6765 -0.076113 0)
(11.7118 -0.0598689 0)
(11.7575 -0.0258479 0)
(11.8101 0.000163763 0)
(11.8433 0.0272456 0)
(11.8831 0.0355793 0)
(11.9204 0.0351584 0)
(11.9104 0.0345098 0)
(11.9489 0.00425558 0)
(11.9197 -0.0226918 0)
(11.9327 -0.0533389 0)
(11.9253 -0.101669 0)
(11.8718 -0.112421 0)
(11.8929 -0.166648 0)
(11.8096 -0.164862 0)
(11.8111 -0.183158 0)
(11.7641 -0.187326 0)
(11.7165 -0.17283 0)
(11.744 -0.174056 0)
(11.6567 -0.151321 0)
(11.733 -0.157305 0)
(11.6603 -0.142215 0)
(11.7041 -0.138558 0)
(11.6739 -0.122586 0)
(11.6286 -0.114106 0)
(11.6584 -0.0957039 0)
(11.5464 -0.0748624 0)
(11.586 -0.0605831 0)
(11.4849 -0.0214916 0)
(11.4744 0.00777658 0)
(11.4365 0.0663941 0)
(11.3631 0.124897 0)
(11.3842 0.182833 0)
(11.3348 0.262534 0)
(11.3604 0.322034 0)
(11.3966 0.384826 0)
(11.4195 0.411525 0)
(11.5273 0.442102 0)
(11.581 0.433145 0)
(11.7309 0.378598 0)
(11.8178 0.326325 0)
(11.977 0.213673 0)
(12.1155 0.055246 0)
(12.2642 -0.109799 0)
(12.3607 -0.303799 0)
(12.5576 -0.503393 0)
(12.5636 -0.69709 0)
(12.7299 -0.893605 0)
(12.7428 -1.05188 0)
(12.8246 -1.22341 0)
(12.8461 -1.31871 0)
(12.8991 -1.44375 0)
(12.9207 -1.50648 0)
(12.9484 -1.5623 0)
(12.973 -1.59536 0)
(13.0028 -1.62037 0)
(13.0093 -1.60101 0)
(13.0451 -1.64378 0)
(13.0585 -1.60713 0)
(13.1026 -1.61082 0)
(13.1246 -1.63092 0)
(13.1355 -1.61813 0)
(13.1682 -1.61672 0)
(13.1967 -1.64316 0)
(13.1618 -1.63042 0)
(13.2044 -1.65277 0)
(13.1566 -1.69591 0)
(13.1392 -1.68535 0)
(13.1089 -1.71042 0)
(13.054 -1.70941 0)
(13.03 -1.72528 0)
(12.9478 -1.72228 0)
(12.9021 -1.69976 0)
(12.8269 -1.65924 0)
(12.7133 -1.61352 0)
(12.6452 -1.53613 0)
(12.5502 -1.48725 0)
(12.5005 -1.41048 0)
(12.4278 -1.37484 0)
(12.3479 -1.28909 0)
(12.3356 -1.22589 0)
(12.2216 -1.19167 0)
(12.1791 -1.16651 0)
(12.1069 -1.20049 0)
(12.069 -1.25108 0)
(12.0478 -1.30661 0)
(12.0023 -1.40802 0)
(11.9536 -1.49089 0)
(11.9759 -1.54962 0)
(11.9292 -1.687 0)
(11.9278 -1.78307 0)
(11.9425 -1.95344 0)
(11.9696 -2.10619 0)
(11.9804 -2.29449 0)
(12.0592 -2.50232 0)
(12.1363 -2.67844 0)
(12.2083 -2.86285 0)
(12.2857 -2.98608 0)
(12.3933 -3.1866 0)
(12.4501 -3.3227 0)
(12.5192 -3.3853 0)
(12.642 -3.5153 0)
(12.6094 -3.58436 0)
(12.6143 -3.55347 0)
(12.4471 -3.59877 0)
(12.4907 -3.48101 0)
(12.0535 -3.44031 0)
(12.1163 -3.22278 0)
(11.5779 -3.15783 0)
(11.541 -2.92017 0)
(11.1723 -2.72201 0)
(11.0064 -2.52565 0)
(10.8915 -2.2875 0)
(10.7416 -2.01264 0)
(10.8738 -1.80458 0)
(10.6584 -1.48253 0)
(11.1165 -1.12559 0)
(10.9497 -0.799496 0)
(11.2853 -0.317525 0)
(11.4489 0.19372 0)
(11.7315 0.838548 0)
(11.8001 1.56647 0)
(11.9535 2.35427 0)
(11.9274 3.12141 0)
(11.5405 3.83231 0)
(11.2305 4.22715 0)
(10.1063 4.46753 0)
(9.9576 4.14129 0)
(8.47112 3.92754 0)
(8.57421 3.53185 0)
(7.2546 2.98135 0)
(7.14611 2.60413 0)
(6.25752 2.41619 0)
(6.31239 2.315 0)
(5.33674 1.65714 0)
(5.93159 2.01147 0)
(5.04655 1.6641 0)
(5.42258 1.69332 0)
(4.82948 1.13091 0)
(5.53356 0.754067 0)
(4.87757 0.437449 0)
(5.56349 1.16061 0)
(4.72201 0.95835 0)
(5.57564 0.720331 0)
(5.28966 -0.488422 0)
(6.58758 -1.42144 0)
(5.86989 -2.65065 0)
(7.19554 -4.19673 0)
(6.44124 -5.93352 0)
(7.3716 -6.9328 0)
(6.94384 -7.21935 0)
(7.30794 -7.08897 0)
(7.30632 -6.60287 0)
(7.28788 -5.95713 0)
(6.89772 -5.10854 0)