/*--------------------------------*- C++ -*----------------------------------*\
| =========                 |                                                 |
| \\      /  F ield         | OpenFOAM: The Open Source CFD Toolbox           |
|  \\    /   O peration     | Version:  2.4.0                                 |
|   \\  /    A nd           | Web:      www.OpenFOAM.org                      |
|    \\/     M anipulation  |                                                 |
\*---------------------------------------------------------------------------*/
FoamFile
{
    version     2.0;
    format      ascii;
    class       volVectorField;
    location    "0.4";
    object      U_0;
}
// * * * * * * * * * * * * * * * * * * * * * * * * * * * * * * * * * * * * * //

dimensions      [0 1 -1 0 0 0 0];

internalField   nonuniform List<vector> 
8800
(
(8.09146 0.387971 0)
(5.44931 0.242435 0)
(3.91052 0.0431074 0)
(3.15737 -0.0155477 0)
(2.80165 -0.0184522 0)
(2.59643 -0.0104342 0)
(2.4877 -0.00671813 0)
(2.3761 -0.00128278 0)
(2.32401 -0.00210173 0)
(2.24494 -0.000499446 0)
(2.21991 -1.7175e-05 0)
(2.16612 -0.0017267 0)
(2.14431 0.00192376 0)
(2.09903 -0.000526406 0)
(2.08252 -0.000999638 0)
(2.03347 0.00402972 0)
(2.00159 -0.00125874 0)
(1.9687 -0.00193615 0)
(1.93755 0.0123115 0)
(1.69357 -0.0631949 0)
(10.0849 0.838807 0)
(9.65736 0.867478 0)
(8.86852 0.506957 0)
(8.08548 0.261278 0)
(7.49245 0.137932 0)
(7.0029 0.0836897 0)
(6.70894 0.0512293 0)
(6.38357 0.043829 0)
(6.24419 0.0281048 0)
(6.00542 0.0247817 0)
(5.94068 0.0200056 0)
(5.77501 0.0135295 0)
(5.71524 0.0202344 0)
(5.60829 0.0137858 0)
(5.54804 0.0104788 0)
(5.43539 0.0276621 0)
(5.39254 0.0127168 0)
(5.27396 0.0082438 0)
(5.21867 0.0481986 0)
(5.01952 -0.0535917 0)
(10.0645 0.631987 0)
(10.6597 0.863287 0)
(10.8612 0.602254 0)
(10.6967 0.372431 0)
(10.4564 0.255427 0)
(10.0782 0.197772 0)
(9.85901 0.149289 0)
(9.46798 0.128625 0)
(9.34792 0.090701 0)
(9.00415 0.0788479 0)
(8.94618 0.0595686 0)
(8.69845 0.0474618 0)
(8.62123 0.0503715 0)
(8.47762 0.0381541 0)
(8.39203 0.0334049 0)
(8.22728 0.0545533 0)
(8.21879 0.0342351 0)
(8.00105 0.0328712 0)
(7.96733 0.0802796 0)
(7.78932 -0.0460504 0)
(10.0065 0.458139 0)
(10.5735 0.705338 0)
(11.1524 0.545574 0)
(11.3801 0.35058 0)
(11.559 0.264541 0)
(11.4481 0.227901 0)
(11.5247 0.19477 0)
(11.261 0.184819 0)
(11.3448 0.141271 0)
(11.0408 0.131909 0)
(11.0978 0.103142 0)
(10.8698 0.0903655 0)
(10.8322 0.0883529 0)
(10.7139 0.0703979 0)
(10.6506 0.0647491 0)
(10.4484 0.0904116 0)
(10.5503 0.0554501 0)
(10.214 0.0724667 0)
(10.2436 0.0970434 0)
(10.0678 0.093147 0)
(10.0448 0.344793 0)
(10.424 0.572029 0)
(11.0303 0.464001 0)
(11.3027 0.286462 0)
(11.6523 0.210774 0)
(11.6466 0.190883 0)
(11.9371 0.173369 0)
(11.768 0.181397 0)
(12.0527 0.135425 0)
(11.8646 0.148091 0)
(12.0401 0.101765 0)
(11.9479 0.110704 0)
(11.9736 0.0965876 0)
(11.9897 0.0851727 0)
(12.007 0.0836893 0)
(11.8 0.106213 0)
(12.0907 0.0661748 0)
(11.7827 0.122439 0)
(11.7254 0.0824607 0)
(11.7165 0.146564 0)
(10.0415 0.249266 0)
(10.3519 0.455419 0)
(10.864 0.38423 0)
(11.2219 0.245559 0)
(11.5217 0.170426 0)
(11.5563 0.138349 0)
(11.8746 0.138141 0)
(11.7553 0.154319 0)
(12.0346 0.100165 0)
(12.0025 0.138653 0)
(12.1469 0.0809761 0)
(12.1885 0.0981183 0)
(12.1784 0.0887744 0)
(12.3618 0.0546564 0)
(12.4019 0.10614 0)
(12.2614 0.081796 0)
(12.5922 0.0444154 0)
(12.5185 0.134966 0)
(12.3494 0.109089 0)
(12.4292 0.0214889 0)
(9.97534 0.168711 0)
(10.3785 0.361632 0)
(10.6653 0.292287 0)
(11.1986 0.188925 0)
(11.3619 0.145685 0)
(11.5336 0.0963684 0)
(11.7514 0.102585 0)
(11.6979 0.136068 0)
(11.8744 0.0573866 0)
(11.9424 0.119163 0)
(12.1121 0.0526625 0)
(12.075 0.0961722 0)
(12.1476 0.0630579 0)
(12.3854 0.0164851 0)
(12.2794 0.110077 0)
(12.3418 0.0601628 0)
(12.5848 -0.00468417 0)
(12.5234 0.141615 0)
(12.5133 0.0878699 0)
(12.5812 -0.0431459 0)
(9.97686 0.102478 0)
(10.341 0.259578 0)
(10.5961 0.210874 0)
(11.0978 0.139146 0)
(11.2804 0.11874 0)
(11.4906 0.0448439 0)
(11.6357 0.0804007 0)
(11.7071 0.112671 0)
(11.7542 0.0227939 0)
(11.8765 0.0761412 0)
(12.0554 0.0478233 0)
(11.9603 0.0790608 0)
(12.2356 0.0221313 0)
(12.2389 0.0193167 0)
(12.1464 0.111811 0)
(12.3761 0.00340298 0)
(12.4295 -0.0115452 0)
(12.4396 0.108876 0)
(12.5441 0.0450602 0)
(12.4398 -0.047605 0)
(10.0237 0.047459 0)
(10.2667 0.168992 0)
(10.5531 0.130713 0)
(10.9843 0.0635981 0)
(11.3257 0.0929847 0)
(11.4124 0.0162675 0)
(11.56 0.0375682 0)
(11.7147 0.0896862 0)
(11.736 0.00536548 0)
(11.8328 0.0331029 0)
(11.9844 0.0382894 0)
(11.9384 0.0385803 0)
(12.1265 0.012896 0)
(12.1431 0.0241176 0)
(12.2009 0.0760706 0)
(12.3187 -0.0114114 0)
(12.4183 -0.0373106 0)
(12.41 0.0665938 0)
(12.3712 0.0440109 0)
(12.3742 -0.0634493 0)
(9.99185 -0.00175798 0)
(10.2482 0.0779577 0)
(10.5805 0.0541021 0)
(10.968 -0.0126285 0)
(11.2572 0.0604336 0)
(11.4172 0.00166515 0)
(11.5156 -0.00325011 0)
(11.7218 0.0480906 0)
(11.7482 -0.0197654 0)
(11.7735 0.00558568 0)
(11.9819 0.0257734 0)
(11.8485 0.034199 0)
(12.0936 -0.0171591 0)
(12.1873 -0.0014573 0)
(12.1683 0.0603825 0)
(12.324 -0.053287 0)
(12.4212 -0.0502763 0)
(12.2859 0.0738863 0)
(12.4069 0.00447276 0)
(12.3987 -0.115433 0)
(9.98035 -0.0416127 0)
(10.2613 -0.0260792 0)
(10.6139 -0.0300121 0)
(10.9314 -0.0679073 0)
(11.2255 0.0308688 0)
(11.4801 -0.0270459 0)
(11.4993 -0.0490573 0)
(11.7392 0.0117311 0)
(11.7086 -0.0227469 0)
(11.7596 -0.032444 0)
(11.947 0.020778 0)
(11.9031 0.00444783 0)
(12.1679 -0.0579502 0)
(12.0815 -0.00281846 0)
(12.2333 0.0368319 0)
(12.3715 -0.0786065 0)
(12.2562 -0.0445867 0)
(12.3438 0.0369313 0)
(12.5071 -0.0400517 0)
(12.2911 -0.0819554 0)
(10.0061 -0.088698 0)
(10.2248 -0.132727 0)
(10.6417 -0.0939525 0)
(10.957 -0.126259 0)
(11.265 -0.0250783 0)
(11.5023 -0.0487134 0)
(11.5623 -0.075381 0)
(11.665 -0.0260787 0)
(11.7657 -0.0397787 0)
(11.8241 -0.063782 0)
(11.8931 -0.00582492 0)
(12.0709 -0.0283502 0)
(12.0667 -0.0515129 0)
(12.115 -0.0199019 0)
(12.3298 -0.0210867 0)
(12.2754 -0.0588773 0)
(12.3083 -0.0617867 0)
(12.4308 -0.0275754 0)
(12.4463 -0.0282901 0)
(12.3351 -0.0911464 0)
(10.0224 -0.132123 0)
(10.2133 -0.232713 0)
(10.6786 -0.189179 0)
(11.0651 -0.183379 0)
(11.276 -0.0584053 0)
(11.5452 -0.0832552 0)
(11.6274 -0.0988105 0)
(11.6787 -0.0605285 0)
(11.8336 -0.0719327 0)
(11.8515 -0.0741133 0)
(11.9515 -0.0389269 0)
(12.0995 -0.044564 0)
(12.0754 -0.0567715 0)
(12.2433 -0.0731504 0)
(12.272 -0.00952243 0)
(12.3554 -0.0794658 0)
(12.4182 -0.0946176 0)
(12.4035 -0.0389398 0)
(12.4986 -0.0700334 0)
(12.5039 -0.117499 0)
(10.0441 -0.188638 0)
(10.2548 -0.337489 0)
(10.7577 -0.279894 0)
(11.134 -0.224876 0)
(11.3702 -0.102663 0)
(11.5828 -0.125988 0)
(11.6914 -0.11754 0)
(11.7523 -0.0980507 0)
(11.8743 -0.092946 0)
(11.9284 -0.100115 0)
(12.0549 -0.0650542 0)
(12.1057 -0.0699838 0)
(12.2268 -0.0738253 0)
(12.2658 -0.0766599 0)
(12.3317 -0.0483366 0)
(12.4416 -0.100844 0)
(12.4508 -0.0905732 0)
(12.4922 -0.0850851 0)
(12.5678 -0.105816 0)
(12.5073 -0.122519 0)
(10.0736 -0.263715 0)
(10.2829 -0.435608 0)
(10.9078 -0.375289 0)
(11.2046 -0.27032 0)
(11.5241 -0.141587 0)
(11.6101 -0.162738 0)
(11.8121 -0.150364 0)
(11.8048 -0.125525 0)
(11.986 -0.124062 0)
(12.0012 -0.127921 0)
(12.1588 -0.0831955 0)
(12.1471 -0.095064 0)
(12.2875 -0.0883346 0)
(12.2787 -0.102237 0)
(12.3768 -0.059789 0)
(12.3843 -0.116514 0)
(12.4534 -0.105577 0)
(12.4176 -0.115356 0)
(12.4738 -0.123255 0)
(12.3626 -0.156684 0)
(10.0577 -0.354339 0)
(10.3659 -0.552126 0)
(11.09 -0.467282 0)
(11.2991 -0.306504 0)
(11.6583 -0.190052 0)
(11.6635 -0.202957 0)
(11.8891 -0.185292 0)
(11.8068 -0.153127 0)
(11.9992 -0.153244 0)
(11.8826 -0.145139 0)
(12.0544 -0.104983 0)
(11.9083 -0.107178 0)
(12.0495 -0.101231 0)
(11.9036 -0.105314 0)
(12.0155 -0.0742633 0)
(11.8584 -0.121587 0)
(11.9338 -0.10234 0)
(11.7632 -0.125098 0)
(11.7821 -0.12734 0)
(11.5405 -0.175294 0)
(10.0043 -0.46107 0)
(10.5522 -0.697347 0)
(11.2029 -0.54984 0)
(11.3427 -0.359347 0)
(11.5771 -0.247767 0)
(11.4463 -0.235742 0)
(11.4976 -0.206092 0)
(11.2922 -0.164978 0)
(11.3168 -0.152467 0)
(11.0496 -0.136192 0)
(11.1092 -0.0991098 0)
(10.8298 -0.093061 0)
(10.8897 -0.0872746 0)
(10.6208 -0.0886213 0)
(10.6957 -0.060394 0)
(10.4076 -0.0964299 0)
(10.4727 -0.0798861 0)
(10.1791 -0.107973 0)
(10.1894 -0.0957895 0)
(9.84307 -0.168901 0)
(10.0597 -0.633924 0)
(10.6538 -0.859572 0)
(10.8844 -0.602479 0)
(10.6662 -0.377551 0)
(10.4805 -0.248356 0)
(10.0726 -0.20067 0)
(9.84109 -0.157964 0)
(9.49136 -0.115319 0)
(9.33002 -0.0965717 0)
(9.00459 -0.0830381 0)
(8.95457 -0.0560856 0)
(8.66403 -0.0501761 0)
(8.6635 -0.0492287 0)
(8.39516 -0.0493149 0)
(8.43488 -0.0337346 0)
(8.15259 -0.0561444 0)
(8.1959 -0.0522903 0)
(7.89679 -0.063892 0)
(7.89997 -0.0706162 0)
(7.54864 -0.0956732 0)
(10.0824 -0.83917 0)
(9.65512 -0.86643 0)
(8.8795 -0.506766 0)
(8.06838 -0.264344 0)
(7.50815 -0.134358 0)
(6.99788 -0.0834078 0)
(6.69863 -0.057687 0)
(6.39557 -0.0366184 0)
(6.23591 -0.0297297 0)
(6.00322 -0.0290835 0)
(5.94318 -0.0168819 0)
(5.75239 -0.0158243 0)
(5.73826 -0.0183802 0)
(5.55256 -0.0205175 0)
(5.5677 -0.0119424 0)
(5.37092 -0.0258737 0)
(5.37948 -0.0246224 0)
(5.15728 -0.0290253 0)
(5.14702 -0.0376702 0)
(4.85314 -0.0215147 0)
(8.09115 -0.388141 0)
(5.44811 -0.242432 0)
(3.91456 -0.0426819 0)
(3.1524 0.0145866 0)
(2.8043 0.0192252 0)
(2.5972 0.0109693 0)
(2.48387 0.00432702 0)
(2.37626 0.00361565 0)
(2.32472 0.00182986 0)
(2.24327 -0.00101028 0)
(2.21703 0.00133683 0)
(2.15775 0.000695205 0)
(2.14957 -0.00063565 0)
(2.07825 -0.00160772 0)
(2.07725 0.00100714 0)
(2.00401 -0.00304115 0)
(1.98732 -0.00192995 0)
(1.8967 -0.00249985 0)
(1.8632 -0.00387353 0)
(1.71084 0.010297 0)
(2.20847 -0.158377 0)
(2.30276 -0.078779 0)
(2.43676 -0.0417149 0)
(2.55844 -0.0223303 0)
(2.70769 -0.0145672 0)
(2.80387 -0.00957837 0)
(2.90593 -0.015392 0)
(2.95511 -0.0235183 0)
(3.01469 -0.0432613 0)
(3.0297 -0.0539359 0)
(3.06901 -0.0650101 0)
(3.08006 -0.0516173 0)
(3.1138 -0.0362833 0)
(3.14009 -0.0133072 0)
(3.17169 0.0175482 0)
(3.20095 0.0493171 0)
(3.23814 0.0726975 0)
(3.30786 0.0944231 0)
(3.3812 0.119705 0)
(3.44154 0.135616 0)
(3.52289 0.136964 0)
(3.66402 0.115034 0)
(3.75621 0.0995099 0)
(3.86016 0.045407 0)
(3.96619 -0.0109824 0)
(4.00855 -0.0629267 0)
(4.01553 -0.125768 0)
(3.99897 -0.175082 0)
(3.96135 -0.173615 0)
(3.89787 -0.146102 0)
(3.86978 -0.13426 0)
(3.88672 -0.138687 0)
(3.93987 -0.14239 0)
(3.99623 -0.135339 0)
(3.99402 -0.136972 0)
(4.05044 -0.143405 0)
(4.06088 -0.162644 0)
(4.02969 -0.194712 0)
(4.027 -0.241287 0)
(3.96379 -0.280714 0)
(3.88715 -0.314042 0)
(3.77685 -0.33875 0)
(3.69543 -0.323651 0)
(3.53431 -0.277209 0)
(3.5259 -0.221294 0)
(3.44576 -0.117042 0)
(3.47356 0.0601807 0)
(3.56465 0.252764 0)
(3.82825 0.424898 0)
(3.96517 0.66727 0)
(4.31535 0.868338 0)
(4.67199 1.00204 0)
(5.00263 1.06783 0)
(5.33813 1.13658 0)
(5.77716 1.15714 0)
(6.16636 1.04053 0)
(6.50041 0.769107 0)
(6.81923 0.523213 0)
(7.02875 0.251094 0)
(7.19435 -0.137875 0)
(7.27949 -0.392999 0)
(7.2591 -0.645954 0)
(7.19508 -0.934119 0)
(7.07239 -1.01381 0)
(6.92183 -1.0538 0)
(6.89406 -1.16396 0)
(6.88875 -1.1126 0)
(6.85607 -1.07478 0)
(7.0925 -1.16137 0)
(7.17506 -1.08801 0)
(7.35614 -1.06852 0)
(7.57176 -1.12282 0)
(7.80603 -1.05082 0)
(8.04618 -1.04539 0)
(8.30098 -1.07844 0)
(8.57657 -1.05392 0)
(8.87962 -1.04507 0)
(9.15443 -1.11621 0)
(9.41545 -1.14127 0)
(9.72746 -1.15847 0)
(9.98796 -1.28025 0)
(10.1815 -1.35277 0)
(10.4931 -1.40227 0)
(10.684 -1.49695 0)
(10.8956 -1.58913 0)
(11.0982 -1.62465 0)
(11.26 -1.69575 0)
(11.4064 -1.64913 0)
(11.5552 -1.66724 0)
(11.7053 -1.6547 0)
(11.7932 -1.57146 0)
(11.8692 -1.50453 0)
(11.9771 -1.50467 0)
(12.0561 -1.37905 0)
(12.1155 -1.36368 0)
(12.1805 -1.32536 0)
(12.2453 -1.30093 0)
(12.3692 -1.30173 0)
(12.4032 -1.34725 0)
(12.5052 -1.32961 0)
(12.5469 -1.41679 0)
(12.6314 -1.45255 0)
(12.625 -1.57983 0)
(12.7839 -1.68854 0)
(12.6461 -1.79328 0)
(12.9123 -1.97399 0)
(12.7258 -2.06502 0)
(12.9612 -2.30936 0)
(12.8245 -2.34844 0)
(13.1268 -2.55107 0)
(12.8889 -2.64041 0)
(13.2291 -2.73276 0)
(13.0126 -2.91938 0)
(13.3217 -2.83441 0)
(13.057 -3.10029 0)
(13.5165 -3.01752 0)
(13.0082 -3.02237 0)
(13.8393 -3.20135 0)
(13.2097 -3.0263 0)
(13.9074 -3.08577 0)
(13.6471 -3.16563 0)
(14.1897 -2.90684 0)
(13.9472 -2.98477 0)
(14.6727 -2.72441 0)
(14.2353 -2.65109 0)
(15.056 -2.40829 0)
(14.5456 -2.17381 0)
(15.3203 -1.93226 0)
(14.8392 -1.60773 0)
(15.4597 -1.29634 0)
(15.1108 -0.891221 0)
(15.3665 -0.556132 0)
(15.2283 -0.0885603 0)
(15.1216 0.236658 0)
(14.9724 0.756567 0)
(14.4914 1.07354 0)
(14.3011 1.46307 0)
(13.385 1.54064 0)
(13.1456 1.80006 0)
(12.1511 1.70582 0)
(11.6593 1.72067 0)
(10.8735 1.46548 0)
(10.2491 1.30128 0)
(9.57317 1.31313 0)
(8.69774 0.846225 0)
(8.69596 0.945417 0)
(7.49399 0.60121 0)
(7.6809 0.734799 0)
(6.38903 0.57358 0)
(6.76849 1.25955 0)
(5.5269 0.648425 0)
(6.0399 1.47957 0)
(5.44568 0.821095 0)
(5.69606 0.82703 0)
(5.048 0.597279 0)
(5.37128 0.734338 0)
(5.2711 1.16405 0)
(5.13651 1.36694 0)
(5.5623 0.56596 0)
(5.96747 0.188494 0)
(6.1968 -1.03024 0)
(6.94854 -3.04798 0)
(7.94254 -4.74687 0)
(8.662 -5.87825 0)
(9.31488 -6.58349 0)
(9.18647 -7.30076 0)
(9.27946 -7.7285 0)
(9.70151 -6.78878 0)
(9.77779 -5.50453 0)
(9.74036 -4.28344 0)
(9.02771 -3.55498 0)
(8.94849 -3.17522 0)
(8.71507 -2.68441 0)
(9.25488 -1.02342 0)
(9.01307 0.644341 0)
(9.28646 1.56388 0)
(9.07844 2.3193 0)
(9.01431 3.63993 0)
(8.57402 4.07614 0)
(8.27404 4.10125 0)
(7.90075 4.67598 0)
(7.77102 5.72722 0)
(7.71292 6.18325 0)
(7.09656 6.40059 0)
(7.32755 6.76138 0)
(6.72598 6.53657 0)
(6.25875 6.50774 0)
(6.17986 6.18114 0)
(6.15428 5.09704 0)
(6.07216 3.88074 0)
(5.31142 3.35583 0)
(5.2494 3.99867 0)
(4.6216 5.69907 0)
(4.90453 8.18167 0)
(4.48161 9.36833 0)
(4.28696 9.46419 0)
(4.46782 9.17767 0)
(4.04183 9.03017 0)
(4.31942 9.03075 0)
(2.89421 10.4157 0)
(5.16595 -0.111966 0)
(5.2055 -0.0833572 0)
(5.25079 -0.0698364 0)
(5.31121 -0.0676113 0)
(5.39619 -0.0663003 0)
(5.46094 -0.057571 0)
(5.51515 -0.0467431 0)
(5.54457 -0.0430295 0)
(5.56364 -0.0503972 0)
(5.57131 -0.060842 0)
(5.58004 -0.0706919 0)
(5.59045 -0.0714579 0)
(5.60273 -0.062402 0)
(5.62159 -0.0463285 0)
(5.63827 -0.0227079 0)
(5.66383 0.00858021 0)
(5.68572 0.0330542 0)
(5.71089 0.0585263 0)
(5.74669 0.0706361 0)
(5.77876 0.0817739 0)
(5.81204 0.0885241 0)
(5.87463 0.0687911 0)
(5.93104 0.0429229 0)
(5.98612 0.00466915 0)
(6.04144 -0.0497733 0)
(6.09517 -0.102703 0)
(6.10843 -0.145638 0)
(6.1288 -0.181304 0)
(6.12488 -0.191554 0)
(6.09484 -0.186417 0)
(6.08133 -0.174629 0)
(6.08869 -0.154714 0)
(6.09717 -0.164855 0)
(6.14688 -0.163154 0)
(6.13546 -0.157738 0)
(6.13269 -0.171393 0)
(6.14649 -0.165513 0)
(6.07469 -0.193382 0)
(6.08681 -0.219667 0)
(6.0168 -0.225676 0)
(5.95568 -0.254683 0)
(5.88061 -0.241807 0)
(5.82374 -0.217402 0)
(5.6612 -0.182895 0)
(5.62772 -0.108776 0)
(5.51425 -0.0295125 0)
(5.39642 0.0775888 0)
(5.39492 0.216862 0)
(5.43105 0.311876 0)
(5.42643 0.477799 0)
(5.58989 0.606112 0)
(5.87206 0.672127 0)
(6.0405 0.770525 0)
(6.3843 0.779126 0)
(6.66932 0.73841 0)
(7.06456 0.671401 0)
(7.31732 0.493138 0)
(7.63871 0.240948 0)
(7.80903 0.0532849 0)
(7.99228 -0.204868 0)
(8.04264 -0.504315 0)
(8.14753 -0.682427 0)
(8.07328 -0.837148 0)
(8.20786 -1.0248 0)
(8.15971 -1.06682 0)
(8.31039 -1.14435 0)
(8.40764 -1.24058 0)
(8.57601 -1.22362 0)
(8.74212 -1.26229 0)
(8.98313 -1.30701 0)
(9.12651 -1.26744 0)
(9.40647 -1.29965 0)
(9.57949 -1.25932 0)
(9.86826 -1.28445 0)
(10.05 -1.26279 0)
(10.3446 -1.2598 0)
(10.5671 -1.2843 0)
(10.8397 -1.31217 0)
(11.0396 -1.33219 0)
(11.3036 -1.42616 0)
(11.4957 -1.46335 0)
(11.7046 -1.54907 0)
(11.88 -1.57598 0)
(12.0542 -1.66282 0)
(12.1617 -1.71818 0)
(12.3257 -1.72719 0)
(12.391 -1.79104 0)
(12.4822 -1.78015 0)
(12.5708 -1.73037 0)
(12.5873 -1.72311 0)
(12.6028 -1.64974 0)
(12.6329 -1.56823 0)
(12.6433 -1.53041 0)
(12.6728 -1.42507 0)
(12.63 -1.40338 0)
(12.6369 -1.34855 0)
(12.6248 -1.33152 0)
(12.6255 -1.34429 0)
(12.621 -1.36883 0)
(12.6549 -1.36522 0)
(12.6959 -1.47178 0)
(12.6126 -1.47242 0)
(12.7302 -1.6049 0)
(12.665 -1.67675 0)
(12.6267 -1.8178 0)
(12.652 -1.96733 0)
(12.5955 -2.13893 0)
(12.5889 -2.27082 0)
(12.5889 -2.41783 0)
(12.646 -2.58072 0)
(12.5365 -2.70084 0)
(12.7732 -2.77872 0)
(12.6555 -2.97358 0)
(12.8214 -2.89875 0)
(12.7965 -3.15043 0)
(13.2019 -3.07496 0)
(12.8684 -3.15338 0)
(13.5756 -3.26378 0)
(13.1851 -3.24659 0)
(13.9116 -3.28026 0)
(13.6423 -3.27884 0)
(14.2766 -3.12842 0)
(14.0284 -3.198 0)
(14.6481 -2.91878 0)
(14.3003 -2.87152 0)
(14.9408 -2.59745 0)
(14.5991 -2.35343 0)
(15.1234 -2.12336 0)
(14.8449 -1.7045 0)
(15.3003 -1.42565 0)
(15.0033 -0.968966 0)
(15.3384 -0.593422 0)
(15.123 -0.0569417 0)
(15.1498 0.32746 0)
(15.0909 0.963561 0)
(14.5639 1.33917 0)
(14.3738 1.87041 0)
(13.4784 2.15813 0)
(13.0931 2.35225 0)
(11.9671 2.34319 0)
(11.3807 2.32854 0)
(10.3578 2.0916 0)
(9.79468 1.87251 0)
(9.25608 1.8465 0)
(8.1649 1.26102 0)
(8.15573 1.35731 0)
(6.78052 1.20492 0)
(7.25937 1.1316 0)
(6.00237 0.961477 0)
(6.8068 1.38365 0)
(5.32573 0.867076 0)
(6.02885 1.50966 0)
(5.03426 0.814844 0)
(5.86419 1.00977 0)
(4.97942 0.644586 0)
(5.64276 0.660227 0)
(5.0819 1.23022 0)
(5.59705 1.21102 0)
(5.45165 0.347858 0)
(6.22768 -0.265506 0)
(6.60122 -1.63702 0)
(7.41577 -3.61118 0)
(7.9691 -5.34104 0)
(8.56984 -6.31539 0)
(9.06595 -6.7286 0)
(8.90863 -7.21689 0)
(8.78285 -7.62698 0)
(8.57971 -7.0497 0)
(8.80424 -5.60996 0)
(8.88835 -4.08532 0)
(8.54712 -3.29801 0)
(8.53306 -3.01568 0)
(8.26739 -2.71008 0)
(8.58283 -1.01623 0)
(8.32468 0.55223 0)
(8.66027 1.54885 0)
(8.53533 2.44361 0)
(8.43603 3.77673 0)
(8.33902 4.40447 0)
(7.80153 4.4785 0)
(7.6582 4.88844 0)
(7.33044 5.69367 0)
(7.20275 6.39981 0)
(6.74262 6.49812 0)
(6.83702 6.78666 0)
(6.64704 6.95462 0)
(5.61795 6.58767 0)
(6.13799 6.12259 0)
(6.10922 4.99464 0)
(6.26966 4.18366 0)
(5.598 3.73567 0)
(5.3582 4.4246 0)
(4.89446 5.75105 0)
(4.66596 8.04678 0)
(5.15617 9.56553 0)
(4.8871 9.64086 0)
(4.70423 9.21732 0)
(4.72628 9.10218 0)
(6.15888 8.54508 0)
(4.83907 11.0477 0)
(7.78259 -0.146863 0)
(7.79328 -0.173824 0)
(7.82651 -0.163987 0)
(7.88125 -0.129029 0)
(7.97679 -0.0877208 0)
(8.05695 -0.0642088 0)
(8.10328 -0.0443533 0)
(8.12042 -0.0306956 0)
(8.10984 -0.0433492 0)
(8.09315 -0.0476596 0)
(8.07924 -0.0698732 0)
(8.06762 -0.0756893 0)
(8.06481 -0.0731428 0)
(8.06823 -0.066556 0)
(8.08251 -0.0373803 0)
(8.09717 -0.0161032 0)
(8.11865 0.0181788 0)
(8.13307 0.0376382 0)
(8.16692 0.0582018 0)
(8.19165 0.0658548 0)
(8.21769 0.0621597 0)
(8.24757 0.0573774 0)
(8.27956 0.0149894 0)
(8.31326 -0.0153925 0)
(8.3374 -0.0624549 0)
(8.37512 -0.114264 0)
(8.376 -0.141145 0)
(8.39361 -0.181895 0)
(8.37649 -0.186723 0)
(8.37065 -0.196499 0)
(8.35223 -0.176794 0)
(8.34506 -0.16339 0)
(8.3525 -0.160763 0)
(8.35679 -0.145846 0)
(8.36597 -0.167527 0)
(8.34617 -0.139591 0)
(8.33428 -0.160526 0)
(8.29043 -0.163536 0)
(8.26834 -0.148345 0)
(8.18694 -0.194785 0)
(8.16104 -0.160174 0)
(8.0603 -0.164348 0)
(7.99508 -0.166739 0)
(7.91943 -0.0784837 0)
(7.79068 -0.0578582 0)
(7.76872 0.0298053 0)
(7.64388 0.137277 0)
(7.60395 0.218404 0)
(7.60252 0.32132 0)
(7.57345 0.426069 0)
(7.61053 0.507693 0)
(7.74704 0.554755 0)
(7.8228 0.578944 0)
(8.03202 0.576045 0)
(8.19517 0.529421 0)
(8.46683 0.425819 0)
(8.69557 0.291314 0)
(8.90352 0.117081 0)
(9.16493 -0.103279 0)
(9.26258 -0.305117 0)
(9.42826 -0.526383 0)
(9.58855 -0.735712 0)
(9.68128 -0.902826 0)
(9.78693 -1.05517 0)
(9.94934 -1.18824 0)
(10.0799 -1.27076 0)
(10.2143 -1.36633 0)
(10.381 -1.3863 0)
(10.5985 -1.43915 0)
(10.6954 -1.45803 0)
(10.9227 -1.44571 0)
(11.1085 -1.45645 0)
(11.2388 -1.44815 0)
(11.4691 -1.4344 0)
(11.6425 -1.44462 0)
(11.8063 -1.4207 0)
(12.05 -1.46631 0)
(12.163 -1.4839 0)
(12.3484 -1.50305 0)
(12.4987 -1.57589 0)
(12.6567 -1.59158 0)
(12.7338 -1.65066 0)
(12.8524 -1.70447 0)
(12.9435 -1.7688 0)
(12.9517 -1.76287 0)
(13.0054 -1.81755 0)
(13.0267 -1.80867 0)
(12.993 -1.80278 0)
(13.0284 -1.75192 0)
(12.955 -1.73627 0)
(12.9329 -1.61573 0)
(12.9056 -1.54729 0)
(12.8109 -1.46376 0)
(12.8334 -1.37081 0)
(12.723 -1.36821 0)
(12.6822 -1.29408 0)
(12.6046 -1.29045 0)
(12.5766 -1.31395 0)
(12.4679 -1.32371 0)
(12.4823 -1.37812 0)
(12.4133 -1.4671 0)
(12.3825 -1.466 0)
(12.416 -1.60718 0)
(12.3282 -1.68489 0)
(12.3082 -1.83352 0)
(12.2507 -1.94951 0)
(12.2705 -2.14071 0)
(12.1303 -2.28396 0)
(12.2541 -2.47317 0)
(12.2108 -2.60712 0)
(12.2441 -2.75669 0)
(12.3591 -2.87006 0)
(12.453 -3.03913 0)
(12.5524 -3.01357 0)
(12.7195 -3.21277 0)
(12.9969 -3.24903 0)
(12.8912 -3.36352 0)
(13.4497 -3.3704 0)
(13.2798 -3.49052 0)
(13.8213 -3.42326 0)
(13.5795 -3.43297 0)
(14.0368 -3.37546 0)
(13.8361 -3.30865 0)
(14.1667 -3.08834 0)
(13.9192 -2.98447 0)
(14.3005 -2.67479 0)
(14.0194 -2.49208 0)
(14.2835 -2.14522 0)
(14.1789 -1.7961 0)
(14.3662 -1.52266 0)
(14.2908 -0.995718 0)
(14.4932 -0.653633 0)
(14.4804 -0.0641379 0)
(14.5093 0.410042 0)
(14.6013 1.05741 0)
(14.261 1.53399 0)
(14.1248 2.19583 0)
(13.4139 2.67473 0)
(12.949 2.94752 0)
(11.8544 3.00865 0)
(11.2127 3.0164 0)
(10.1723 2.80811 0)
(9.23513 2.51265 0)
(8.83103 2.38065 0)
(7.72818 1.8088 0)
(8.02936 1.74461 0)
(6.68706 1.68203 0)
(7.00919 1.35446 0)
(5.511 1.34094 0)
(6.50721 1.593 0)
(4.71266 1.35621 0)
(6.17737 1.62449 0)
(4.45849 0.977872 0)
(6.06209 0.853964 0)
(5.06964 0.664417 0)
(6.01182 0.815963 0)
(4.90165 1.16716 0)
(6.07087 1.00109 0)
(5.35621 0.203907 0)
(6.75855 -0.796221 0)
(6.68263 -2.15067 0)
(7.6028 -3.90299 0)
(7.73528 -5.70866 0)
(8.17172 -6.67227 0)
(8.47055 -6.95321 0)
(8.51157 -7.09191 0)
(8.33653 -7.20885 0)
(7.63181 -6.94732 0)
(7.76024 -5.63953 0)
(7.70632 -4.16649 0)
(7.7735 -3.24481 0)
(7.79293 -2.9524 0)
(7.63033 -2.53813 0)
(7.72527 -0.989624 0)
(7.65322 0.478324 0)
(7.87965 1.42774 0)
(8.06275 2.47189 0)
(7.74369 3.74304 0)
(7.85851 4.59684 0)
(7.35449 4.70044 0)
(7.18069 5.13877 0)
(6.94719 5.89937 0)
(6.72862 6.70202 0)
(6.43586 6.70816 0)
(6.2455 6.83093 0)
(6.40623 7.45569 0)
(5.68667 6.85011 0)
(5.50696 5.88759 0)
(6.16774 4.86047 0)
(5.49142 4.29224 0)
(5.77061 4.24216 0)
(4.74055 4.67515 0)
(5.26677 6.10494 0)
(4.87708 7.81128 0)
(5.0723 9.5613 0)
(5.72883 9.81376 0)
(5.59145 9.29156 0)
(4.62001 9.47532 0)
(7.1802 6.95574 0)
(6.19198 10.3471 0)
(10.0079 -0.171053 0)
(10.0007 -0.301748 0)
(10.0535 -0.349727 0)
(10.1137 -0.285273 0)
(10.1708 -0.194385 0)
(10.2311 -0.117519 0)
(10.2618 -0.0569273 0)
(10.2671 -0.0381674 0)
(10.2638 -0.0214223 0)
(10.2222 -0.0425833 0)
(10.2272 -0.0500816 0)
(10.1932 -0.0698477 0)
(10.21 -0.0727117 0)
(10.2089 -0.0630381 0)
(10.2237 -0.0506418 0)
(10.2415 -0.0160128 0)
(10.2428 -0.0075891 0)
(10.2727 0.0247581 0)
(10.2646 0.026734 0)
(10.2953 0.0350257 0)
(10.3015 0.0301142 0)
(10.3133 0.0182273 0)
(10.3455 2.73224e-05 0)
(10.3489 -0.0446516 0)
(10.3801 -0.0567222 0)
(10.3925 -0.116524 0)
(10.3843 -0.131105 0)
(10.4012 -0.167809 0)
(10.3595 -0.192129 0)
(10.3677 -0.176998 0)
(10.3224 -0.199718 0)
(10.3261 -0.162421 0)
(10.3074 -0.165774 0)
(10.2966 -0.152963 0)
(10.3253 -0.146053 0)
(10.2638 -0.152169 0)
(10.319 -0.130359 0)
(10.2139 -0.143637 0)
(10.2368 -0.125739 0)
(10.1552 -0.126664 0)
(10.1039 -0.128847 0)
(10.0692 -0.092527 0)
(9.96708 -0.0923957 0)
(9.92658 -0.0361202 0)
(9.87116 0.0345646 0)
(9.75238 0.0739882 0)
(9.79229 0.179415 0)
(9.65276 0.263527 0)
(9.72282 0.314873 0)
(9.67386 0.423636 0)
(9.75047 0.464254 0)
(9.76714 0.487145 0)
(9.91304 0.511045 0)
(10.0007 0.46879 0)
(10.1502 0.412884 0)
(10.2995 0.308749 0)
(10.5528 0.158962 0)
(10.6106 -0.0175182 0)
(10.9021 -0.227035 0)
(10.9717 -0.446301 0)
(11.1601 -0.631487 0)
(11.2706 -0.829648 0)
(11.4106 -1.03695 0)
(11.4864 -1.14196 0)
(11.6403 -1.28964 0)
(11.6929 -1.40189 0)
(11.8662 -1.44793 0)
(11.8992 -1.49546 0)
(12.0852 -1.56881 0)
(12.1259 -1.53454 0)
(12.2647 -1.56207 0)
(12.3758 -1.57419 0)
(12.4529 -1.55531 0)
(12.5679 -1.54337 0)
(12.729 -1.56269 0)
(12.7349 -1.54143 0)
(12.9346 -1.57334 0)
(12.9608 -1.59426 0)
(13.064 -1.60385 0)
(13.1399 -1.62797 0)
(13.1828 -1.68591 0)
(13.1802 -1.67344 0)
(13.2223 -1.75102 0)
(13.1988 -1.75207 0)
(13.1858 -1.78227 0)
(13.1463 -1.80305 0)
(13.092 -1.76565 0)
(13.0125 -1.7463 0)
(12.9694 -1.68497 0)
(12.8757 -1.62488 0)
(12.7983 -1.55497 0)
(12.7558 -1.46051 0)
(12.6449 -1.39014 0)
(12.592 -1.3151 0)
(12.5093 -1.27522 0)
(12.4369 -1.23413 0)
(12.3688 -1.20948 0)
(12.2938 -1.27049 0)
(12.1743 -1.30052 0)
(12.1848 -1.35607 0)
(12.1043 -1.42472 0)
(12.0795 -1.48802 0)
(12.0457 -1.5859 0)
(12.0627 -1.69076 0)
(12.0114 -1.8275 0)
(12.0256 -1.95115 0)
(12.0068 -2.13506 0)
(11.9903 -2.30488 0)
(12.0986 -2.47565 0)
(12.099 -2.64999 0)
(12.1899 -2.84858 0)
(12.3241 -2.91124 0)
(12.4708 -3.11374 0)
(12.5686 -3.18958 0)
(12.6969 -3.31461 0)
(12.9326 -3.43706 0)
(12.9683 -3.50808 0)
(13.2202 -3.51352 0)
(13.1303 -3.60583 0)
(13.3783 -3.53663 0)
(13.101 -3.54037 0)
(13.3514 -3.3911 0)
(13.0268 -3.30102 0)
(13.1252 -3.09737 0)
(12.8657 -2.92585 0)
(12.9332 -2.65456 0)
(12.6853 -2.46775 0)
(12.7451 -2.08924 0)
(12.7768 -1.841 0)
(12.6555 -1.50204 0)
(12.9335 -1.03749 0)
(12.8983 -0.697838 0)
(13.1086 -0.0962341 0)
(13.2127 0.381173 0)
(13.4003 1.03708 0)
(13.3245 1.71627 0)
(13.3359 2.35347 0)
(12.8491 3.01761 0)
(12.4402 3.56509 0)
(11.6711 3.69346 0)
(10.7552 3.7191 0)
(10.1269 3.41807 0)
(8.8274 3.20351 0)
(8.71562 2.92731 0)
(7.20256 2.43186 0)
(7.36671 2.12284 0)
(6.2868 2.05164 0)
(6.53181 1.76782 0)
(5.43361 1.51078 0)
(6.29643 1.83235 0)
(4.67242 1.54533 0)
(6.05601 1.49625 0)
(4.40453 1.06099 0)
(5.84011 0.596974 0)
(4.83591 0.377198 0)
(5.98239 1.04639 0)
(4.61028 1.08107 0)
(6.10754 0.824334 0)
(5.32808 -0.0819149 0)
(7.00265 -1.22481 0)
(6.38725 -2.43337 0)
(7.55431 -4.0929 0)
(7.17287 -5.92849 0)
(7.70394 -6.89559 0)
(7.77743 -7.13007 0)
(8.09584 -7.00091 0)
(8.04595 -6.7354 0)
(7.41312 -6.43869 0)
(7.13339 -5.41199 0)
(6.83005 -4.24645 0)
(6.98837 -3.31231 0)
(6.81365 -3.0061 0)
(6.94936 -2.31346 0)
(6.7773 -1.02672 0)
(7.0458 0.316595 0)
(7.11215 1.27536 0)
(7.42234 2.6359 0)
(6.99139 3.81482 0)
(7.26922 4.68761 0)
(6.81205 4.83172 0)
(6.67796 5.37268 0)
(6.61101 6.1557 0)
(6.08548 6.7852 0)
(6.1115 7.03465 0)
(5.78799 6.97298 0)
(5.62027 7.49809 0)
(5.84007 7.07607 0)
(5.03783 5.84983 0)
(5.65536 4.97435 0)
(4.92191 4.54247 0)
(4.97444 4.56868 0)
(4.59103 4.65997 0)
(4.63273 6.04164 0)
(5.55218 7.5851 0)
(5.29686 9.11521 0)
(5.89536 9.86184 0)
(7.30558 8.8999 0)
(5.32067 10.0165 0)
(7.8849 6.26178 0)
(7.09202 9.101 0)
(11.6523 -0.12117 0)
(11.6303 -0.294318 0)
(11.7566 -0.352332 0)
(11.808 -0.323045 0)
(11.8541 -0.208779 0)
(11.8418 -0.136858 0)
(11.8376 -0.0546498 0)
(11.7994 -0.0272632 0)
(11.7596 -0.0331095 0)
(11.7133 -0.0232762 0)
(11.6658 -0.0687436 0)
(11.6485 -0.0727571 0)
(11.6356 -0.0972371 0)
(11.6558 -0.0992102 0)
(11.6888 -0.0731923 0)
(11.7258 -0.054822 0)
(11.7727 -0.0184555 0)
(11.8215 0.00662237 0)
(11.8512 0.0329648 0)
(11.8905 0.0375162 0)
(11.9185 0.0371931 0)
(11.909 0.033774 0)
(11.9432 0.00114299 0)
(11.9091 -0.0240144 0)
(11.928 -0.0585492 0)
(11.9097 -0.103208 0)
(11.8649 -0.116189 0)
(11.8816 -0.170083 0)
(11.7974 -0.164245 0)
(11.8063 -0.185809 0)
(11.75 -0.184789 0)
(11.7159 -0.170958 0)
(11.7348 -0.169137 0)
(11.6554 -0.145246 0)
(11.7337 -0.150909 0)
(11.6561 -0.133139 0)
(11.7103 -0.130019 0)
(11.6661 -0.112791 0)
(11.6344 -0.105089 0)
(11.653 -0.0865168 0)
(11.5449 -0.0672008 0)
(11.5868 -0.0541728 0)
(11.4772 -0.0153822 0)
(11.4782 0.0125457 0)
(11.4293 0.0702846 0)
(11.3641 0.127652 0)
(11.3858 0.184826 0)
(11.3345 0.263198 0)
(11.3676 0.322574 0)
(11.4002 0.381301 0)
(11.4293 0.407303 0)
(11.5368 0.438507 0)
(11.5927 0.423346 0)
(11.7456 0.370014 0)
(11.8298 0.316252 0)
(11.9945 0.196576 0)
(12.1307 0.0386785 0)
(12.2734 -0.128149 0)
(12.3793 -0.322577 0)
(12.5626 -0.52104 0)
(12.5689 -0.714799 0)
(12.7377 -0.904554 0)
(12.7388 -1.06364 0)
(12.8259 -1.22785 0)
(12.8445 -1.31938 0)
(12.8958 -1.44505 0)
(12.9189 -1.49916 0)
(12.9441 -1.55539 0)
(12.9719 -1.58737 0)
(12.9988 -1.60634 0)
(13.0082 -1.59353 0)
(13.0442 -1.63475 0)
(13.0601 -1.59517 0)
(13.1058 -1.60803 0)
(13.1248 -1.62498 0)
(13.1365 -1.61055 0)
(13.1756 -1.61612 0)
(13.1917 -1.64068 0)
(13.1646 -1.62924 0)
(13.2057 -1.65846 0)
(13.1504 -1.69836 0)
(13.1391 -1.68704 0)
(13.1028 -1.71639 0)
(13.0505 -1.7143 0)
(13.0232 -1.73265 0)
(12.9362 -1.72498 0)
(12.8931 -1.69696 0)
(12.8055 -1.65401 0)
(12.6958 -1.60257 0)
(12.6298 -1.52506 0)
(12.5379 -1.47395 0)
(12.4926 -1.39728 0)
(12.4133 -1.35885 0)
(12.3432 -1.26703 0)
(12.3235 -1.21153 0)
(12.2067 -1.18099 0)
(12.1717 -1.16454 0)
(12.0987 -1.20844 0)
(12.0677 -1.2581 0)
(12.0464 -1.31779 0)
(11.9973 -1.41814 0)
(11.9617 -1.49051 0)
(11.9811 -1.55544 0)
(11.9328 -1.69421 0)
(11.9382 -1.79562 0)
(11.957 -1.97187 0)
(11.9813 -2.12593 0)
(11.9945 -2.32118 0)
(12.0816 -2.52443 0)
(12.1538 -2.69606 0)
(12.2246 -2.87409 0)
(12.3097 -2.99614 0)
(12.4151 -3.20313 0)
(12.4712 -3.32032 0)
(12.554 -3.38906 0)
(12.6659 -3.52649 0)
(12.6284 -3.5783 0)
(12.6232 -3.55557 0)
(12.4712 -3.59908 0)
(12.4895 -3.47465 0)
(12.0641 -3.43408 0)
(12.1222 -3.21882 0)
(11.5784 -3.15492 0)
(11.5626 -2.90808 0)
(11.176 -2.71709 0)
(11.045 -2.51623 0)
(10.9123 -2.27795 0)
(10.8033 -1.99986 0)
(10.9069 -1.7951 0)
(10.7364 -1.45695 0)
(11.1936 -1.09967 0)
(11.01 -0.762555 0)
(11.3911 -0.260196 0)
(11.5417 0.272859 0)
(11.8137 0.939812 0)
(11.868 1.67861 0)
(12.0108 2.47555 0)
(11.9288 3.23606 0)
(11.5121 3.90057 0)
(11.1383 4.25739 0)
(10.0161 4.4347 0)
(9.85866 4.07794 0)
(8.37232 3.87236 0)
(8.5036 3.43677 0)
(7.16824 2.8988 0)
(7.08024 2.57398 0)
(6.21244 2.39938 0)
(6.25181 2.2643 0)
(5.32595 1.64099 0)
(5.9068 2.02479 0)
(5.03743 1.64966 0)
(5.39727 1.66595 0)
(4.86747 1.05394 0)
(5.54308 0.713132 0)
(4.8883 0.496169 0)
(5.54941 1.22743 0)
(4.75483 0.941638 0)
(5.6246 0.620419 0)
(5.3852 -0.641882 0)
(6.65876 -1.5791 0)
(5.93252 -2.85324 0)
(7.24492 -4.47027 0)
(6.45658 -6.16449 0)
(7.36372 -7.04508 0)
(7.01291 -7.22752 0)
(7.4091 -7.00827 0)
(7.36359 -6.49987 0)
(7.19005 -5.89351 0)
(6.76112 -5.01363 0)