/*--------------------------------*- C++ -*----------------------------------*\
| =========                 |                                                 |
| \\      /  F ield         | OpenFOAM: The Open Source CFD Toolbox           |
|  \\    /   O peration     | Version:  2.4.0                                 |
|   \\  /    A nd           | Web:      www.OpenFOAM.org                      |
|    \\/     M anipulation  |                                                 |
\*---------------------------------------------------------------------------*/
FoamFile
{
    version     2.0;
    format      ascii;
    class       volScalarField;
    location    "48";
    object      p;
}
// * * * * * * * * * * * * * * * * * * * * * * * * * * * * * * * * * * * * * //

dimensions      [0 2 -2 0 0 0 0];

internalField   nonuniform List<scalar> 
4400
(
-0.110715
-0.112498
-0.108243
-0.110859
-0.120141
-0.112034
-0.113183
-0.120555
-0.10971
-0.119116
-0.124114
-0.114428
-0.121867
-0.122828
-0.118952
-0.127171
-0.125648
-0.123637
-0.129941
-0.128947
-0.110673
-0.11266
-0.108162
-0.110628
-0.120458
-0.11207
-0.112925
-0.120916
-0.109579
-0.118998
-0.124743
-0.114194
-0.121833
-0.123082
-0.118664
-0.127298
-0.125752
-0.123501
-0.130024
-0.129026
-0.110621
-0.112852
-0.10803
-0.110382
-0.120918
-0.112004
-0.112666
-0.121447
-0.109293
-0.118948
-0.125278
-0.113803
-0.121913
-0.123332
-0.118279
-0.127523
-0.125807
-0.123371
-0.13008
-0.128893
-0.110566
-0.113018
-0.107908
-0.110232
-0.121307
-0.11185
-0.112537
-0.121905
-0.108987
-0.118983
-0.125672
-0.113419
-0.122064
-0.123468
-0.117918
-0.127725
-0.125769
-0.123241
-0.130176
-0.128527
-0.110513
-0.113112
-0.10787
-0.110253
-0.121476
-0.111675
-0.112621
-0.122217
-0.108826
-0.119105
-0.12579
-0.113182
-0.122243
-0.123447
-0.117752
-0.127777
-0.125662
-0.123151
-0.130275
-0.128047
-0.110464
-0.113095
-0.108021
-0.110501
-0.121305
-0.111641
-0.112993
-0.1224
-0.109033
-0.119299
-0.125688
-0.11327
-0.122412
-0.123327
-0.117889
-0.127599
-0.125555
-0.123154
-0.130251
-0.127665
-0.110418
-0.112924
-0.108474
-0.110988
-0.120651
-0.111938
-0.11367
-0.122332
-0.109827
-0.119506
-0.125366
-0.114049
-0.122478
-0.123139
-0.118408
-0.127122
-0.125458
-0.123316
-0.129944
-0.127453
-0.110379
-0.112564
-0.109266
-0.111689
-0.11938
-0.112659
-0.114584
-0.1218
-0.111341
-0.119649
-0.124692
-0.115266
-0.122337
-0.122861
-0.119325
-0.126316
-0.12533
-0.123667
-0.129276
-0.127403
-0.110355
-0.112021
-0.110327
-0.112539
-0.117488
-0.113753
-0.115575
-0.120646
-0.113559
-0.119636
-0.12352
-0.116996
-0.121935
-0.122469
-0.120569
-0.125211
-0.125119
-0.124184
-0.128274
-0.127467
-0.110348
-0.11135
-0.11152
-0.113442
-0.115141
-0.115034
-0.116446
-0.11888
-0.116285
-0.119386
-0.121765
-0.11904
-0.121288
-0.121939
-0.121991
-0.1239
-0.1248
-0.124793
-0.127051
-0.127567
-0.110346
-0.11064
-0.112693
-0.114282
-0.112616
-0.116258
-0.117028
-0.116717
-0.119155
-0.118865
-0.119509
-0.121095
-0.120478
-0.121287
-0.123388
-0.122527
-0.124387
-0.125401
-0.125772
-0.12761
-0.11033
-0.10999
-0.113721
-0.114946
-0.110232
-0.11723
-0.117261
-0.1145
-0.12175
-0.118127
-0.117042
-0.122859
-0.119649
-0.120582
-0.124566
-0.121252
-0.123905
-0.125921
-0.124601
-0.127533
-0.110287
-0.109489
-0.114522
-0.115369
-0.10826
-0.117852
-0.117229
-0.112559
-0.123778
-0.117342
-0.114715
-0.124111
-0.118969
-0.119911
-0.125415
-0.120215
-0.123387
-0.126297
-0.123656
-0.127327
-0.110221
-0.109186
-0.115065
-0.115559
-0.106855
-0.118121
-0.117101
-0.111121
-0.125077
-0.116716
-0.112819
-0.124794
-0.118548
-0.119342
-0.125921
-0.119495
-0.12287
-0.126523
-0.122991
-0.127019
-0.110148
-0.109072
-0.115363
-0.115591
-0.106041
-0.118101
-0.117037
-0.110303
-0.1257
-0.116358
-0.111527
-0.125016
-0.118408
-0.118931
-0.126131
-0.119104
-0.12241
-0.126617
-0.1226
-0.126656
-0.110085
-0.109095
-0.115468
-0.115546
-0.105738
-0.1179
-0.117089
-0.110083
-0.125799
-0.116243
-0.110866
-0.124926
-0.118484
-0.118703
-0.12612
-0.118987
-0.122061
-0.126609
-0.122439
-0.126296
-0.110032
-0.109209
-0.115439
-0.115425
-0.105823
-0.11762
-0.117124
-0.110309
-0.125546
-0.116224
-0.110752
-0.124617
-0.118633
-0.118662
-0.12595
-0.119049
-0.121856
-0.126478
-0.122452
-0.125993
-0.109984
-0.109374
-0.11533
-0.115194
-0.106155
-0.117338
-0.117008
-0.110783
-0.125094
-0.116142
-0.111038
-0.124167
-0.118717
-0.118783
-0.125626
-0.119194
-0.121799
-0.126252
-0.122603
-0.125782
-0.109941
-0.109549
-0.1152
-0.114889
-0.106573
-0.117131
-0.116755
-0.111309
-0.12463
-0.115955
-0.111519
-0.123718
-0.118687
-0.119001
-0.125268
-0.119339
-0.121859
-0.126
-0.122765
-0.125673
-0.109914
-0.109679
-0.115123
-0.114627
-0.106876
-0.117083
-0.116498
-0.111712
-0.124388
-0.115747
-0.112131
-0.12347
-0.118584
-0.119225
-0.125014
-0.119405
-0.121973
-0.125811
-0.122879
-0.125658
-0.131577
-0.137365
-0.139002
-0.137226
-0.142165
-0.137445
-0.107697
-0.101882
-0.104309
-0.125387
-0.189508
-0.202305
-0.189376
-0.214107
-0.200292
-0.111277
-0.0529603
-0.0623647
-0.112123
-0.152077
-0.16904
-0.17615
-0.166048
-0.137265
-0.0930618
-0.045018
0.00623611
0.0155617
-0.0506188
-0.128111
-0.171758
-0.1521
-0.0822578
-0.034566
-0.0322061
-0.0573983
-0.073413
-0.057533
-0.0317217
-0.0220632
-0.0144442
-0.00567742
-0.00959947
-0.0127968
-0.0126011
-0.0218023
-0.0279308
-0.0220999
-0.0198765
-0.0244414
-0.0215095
-0.00951198
0.000749654
0.0060409
0.00895181
0.0109865
0.012327
0.0130661
0.0133914
0.0134596
0.0133717
0.0131903
0.012954
0.0126853
0.0123977
0.0120987
0.0117926
0.0114817
0.0111672
0.0108499
0.0105299
0.0102076
0.00988283
0.00955586
0.00922653
0.00889486
0.0085609
0.00822452
0.00788583
0.00754473
0.00720124
0.00685537
0.00650703
0.00615629
0.00580306
0.00544735
0.00508917
0.00472843
0.00436518
0.00399938
0.00363099
0.00326002
0.00288645
0.00251024
0.0021314
0.00174989
0.0013657
0.000978814
0.000589205
0.000196859
-0.131418
-0.137374
-0.139191
-0.137365
-0.141491
-0.137377
-0.107603
-0.101662
-0.104662
-0.124787
-0.185553
-0.198292
-0.185046
-0.205353
-0.192383
-0.116814
-0.0645217
-0.0643289
-0.108708
-0.153911
-0.177477
-0.187175
-0.174737
-0.134924
-0.0843329
-0.0394449
0.0100553
0.0191386
-0.0531202
-0.136001
-0.181764
-0.160279
-0.0854806
-0.0322253
-0.0260047
-0.0486161
-0.0643163
-0.0534239
-0.0344248
-0.0283425
-0.0196554
-0.0078699
-0.00898875
-0.0114413
-0.0111569
-0.0192787
-0.0250267
-0.021058
-0.0224478
-0.0291201
-0.0252978
-0.0111206
0.000771583
0.0066426
0.0095207
0.0113542
0.0125197
0.0131508
0.0134216
0.0134664
0.0133702
0.0131868
0.0129507
0.0126828
0.0123961
0.0120977
0.011792
0.0114814
0.011167
0.0108498
0.0105298
0.0102075
0.00988282
0.00955585
0.00922653
0.00889486
0.0085609
0.00822451
0.00788584
0.00754473
0.00720124
0.00685537
0.00650704
0.00615628
0.00580307
0.00544735
0.00508916
0.00472844
0.00436517
0.00399938
0.00363098
0.00326003
0.00288645
0.00251023
0.00213141
0.00174988
0.00136571
0.000978805
0.00058921
0.000196857
-0.131559
-0.137082
-0.13908
-0.137412
-0.139889
-0.136695
-0.108411
-0.101777
-0.105393
-0.124683
-0.180218
-0.193031
-0.180011
-0.195974
-0.184465
-0.122005
-0.0750088
-0.0661944
-0.10561
-0.155657
-0.185228
-0.197654
-0.182875
-0.132847
-0.0770581
-0.0347606
0.0133569
0.0222827
-0.0549787
-0.142736
-0.190293
-0.167101
-0.0874958
-0.0289671
-0.0192075
-0.0390501
-0.0545948
-0.0487802
-0.0368994
-0.0346505
-0.0249269
-0.0100024
-0.00804877
-0.00985255
-0.00959887
-0.016583
-0.0219833
-0.0198192
-0.0247273
-0.0334886
-0.028885
-0.0126518
0.000829464
0.00728008
0.0101173
0.011736
0.0127174
0.013237
0.0134524
0.0134736
0.0133691
0.0131836
0.0129477
0.0126806
0.0123946
0.0120968
0.0117915
0.011481
0.0111668
0.0108497
0.0105298
0.0102075
0.0098828
0.00955584
0.00922653
0.00889486
0.0085609
0.00822451
0.00788584
0.00754473
0.00720125
0.00685537
0.00650704
0.00615628
0.00580307
0.00544735
0.00508916
0.00472844
0.00436517
0.00399938
0.00363098
0.00326002
0.00288645
0.00251023
0.00213141
0.00174988
0.00136571
0.000978806
0.000589209
0.000196858
-0.131741
-0.13658
-0.138344
-0.137513
-0.137785
-0.135286
-0.110088
-0.102094
-0.106095
-0.124734
-0.173458
-0.186233
-0.174375
-0.186489
-0.176951
-0.126878
-0.0842669
-0.0678844
-0.102833
-0.157308
-0.192212
-0.20722
-0.190083
-0.131213
-0.0715116
-0.0311718
0.0160371
0.0247732
-0.0562108
-0.148226
-0.197221
-0.172433
-0.0882439
-0.0248837
-0.0119483
-0.0288656
-0.0444911
-0.0436913
-0.0390083
-0.0407557
-0.0300938
-0.0119764
-0.00679853
-0.00806448
-0.00792071
-0.013739
-0.0188247
-0.0184065
-0.0266553
-0.0374286
-0.0321782
-0.0140679
0.000918818
0.00793627
0.0107281
0.0121248
0.012917
0.0133239
0.0134836
0.0134814
0.0133684
0.0131809
0.0129451
0.0126786
0.0123933
0.0120959
0.011791
0.0114807
0.0111667
0.0108496
0.0105297
0.0102075
0.00988279
0.00955584
0.00922653
0.00889486
0.0085609
0.00822451
0.00788584
0.00754473
0.00720125
0.00685537
0.00650704
0.00615628
0.00580307
0.00544735
0.00508916
0.00472844
0.00436517
0.00399938
0.00363098
0.00326002
0.00288645
0.00251023
0.00213141
0.00174988
0.00136571
0.000978806
0.000589209
0.000196858
-0.131766
-0.13607
-0.137051
-0.137482
-0.135696
-0.133292
-0.112289
-0.102678
-0.106581
-0.12439
-0.165496
-0.178015
-0.168273
-0.177316
-0.170149
-0.131409
-0.092235
-0.06937
-0.100355
-0.158783
-0.198356
-0.215627
-0.196157
-0.13015
-0.0680057
-0.0287731
0.0179923
0.0265303
-0.0568277
-0.152398
-0.202467
-0.17617
-0.0876961
-0.0200973
-0.00435747
-0.0182742
-0.0342609
-0.0382728
-0.0406472
-0.0464523
-0.0349829
-0.0136843
-0.00528976
-0.00612536
-0.00611653
-0.0107883
-0.0155854
-0.0168479
-0.0281869
-0.0408418
-0.0350972
-0.0153335
0.00103457
0.00859312
0.0113387
0.0125122
0.0131156
0.0134105
0.0135152
0.0134896
0.0133683
0.0131785
0.0129427
0.0126768
0.0123921
0.0120951
0.0117905
0.0114805
0.0111665
0.0108495
0.0105297
0.0102075
0.00988278
0.00955583
0.00922653
0.00889486
0.0085609
0.00822451
0.00788584
0.00754473
0.00720125
0.00685537
0.00650704
0.00615628
0.00580307
0.00544735
0.00508916
0.00472844
0.00436518
0.00399938
0.00363098
0.00326002
0.00288645
0.00251023
0.00213141
0.00174988
0.00136571
0.000978806
0.000589209
0.000196858
-0.13148
-0.135524
-0.13546
-0.137101
-0.1339
-0.131038
-0.114581
-0.103642
-0.106821
-0.123288
-0.156758
-0.168838
-0.161898
-0.168762
-0.164232
-0.1355
-0.0989
-0.0706778
-0.0982256
-0.159987
-0.203585
-0.2227
-0.200985
-0.129714
-0.0663706
-0.0275295
0.0191824
0.0275421
-0.0568786
-0.15519
-0.20595
-0.178256
-0.0858596
-0.0147469
0.00344153
-0.00751811
-0.0241676
-0.0326689
-0.0417662
-0.0515796
-0.0394321
-0.0150276
-0.0036017
-0.00409186
-0.00418575
-0.00778941
-0.0123137
-0.0151776
-0.0292973
-0.0436564
-0.0375779
-0.0164177
0.00117153
0.00923258
0.0119345
0.0128912
0.0133105
0.0134959
0.0135469
0.0134983
0.0133687
0.0131767
0.0129407
0.0126753
0.012391
0.0120945
0.0117901
0.0114802
0.0111664
0.0108494
0.0105296
0.0102074
0.00988277
0.00955583
0.00922652
0.00889486
0.0085609
0.00822451
0.00788584
0.00754473
0.00720125
0.00685537
0.00650704
0.00615629
0.00580307
0.00544735
0.00508917
0.00472844
0.00436518
0.00399938
0.00363098
0.00326002
0.00288645
0.00251023
0.00213141
0.00174988
0.00136571
0.000978807
0.000589209
0.000196858
-0.130909
-0.134848
-0.133868
-0.136257
-0.132442
-0.128878
-0.116609
-0.10491
-0.106866
-0.121373
-0.147638
-0.159214
-0.155448
-0.161026
-0.159259
-0.138994
-0.104232
-0.0718281
-0.0965699
-0.160888
-0.207833
-0.228328
-0.204526
-0.129869
-0.066365
-0.0272986
0.0195798
0.0277462
-0.0563124
-0.156529
-0.207669
-0.178668
-0.0827862
-0.00898235
0.0113401
0.00312122
-0.0144655
-0.0270593
-0.0423801
-0.0560408
-0.0433019
-0.0159288
-0.00183016
-0.00202268
-0.0021405
-0.00481238
-0.00906813
-0.0134367
-0.0299825
-0.04583
-0.0395747
-0.0172955
0.00132456
0.00983762
0.0125019
0.0132547
0.0134986
0.0135795
0.0135785
0.0135076
0.0133697
0.0131753
0.012939
0.0126739
0.0123901
0.0120939
0.0117897
0.01148
0.0111663
0.0108494
0.0105296
0.0102074
0.00988276
0.00955583
0.00922652
0.00889486
0.0085609
0.00822451
0.00788584
0.00754473
0.00720125
0.00685537
0.00650704
0.00615629
0.00580307
0.00544735
0.00508917
0.00472844
0.00436518
0.00399938
0.00363098
0.00326002
0.00288645
0.00251023
0.0021314
0.00174988
0.00136571
0.000978807
0.000589208
0.000196858
-0.13016
-0.133935
-0.13248
-0.134994
-0.131238
-0.127107
-0.118172
-0.106335
-0.106841
-0.118772
-0.138422
-0.149559
-0.149149
-0.154256
-0.155241
-0.141787
-0.108247
-0.0728677
-0.0955306
-0.161555
-0.211085
-0.232474
-0.206817
-0.130476
-0.0676083
-0.0278637
0.0192022
0.0270536
-0.0548151
-0.156314
-0.2076
-0.177423
-0.0785697
-0.00295444
0.019253
0.0133154
-0.00536102
-0.0216235
-0.0425605
-0.0597995
-0.0464913
-0.0163437
-7.33054e-05
2.76701e-05
-1.23932e-05
-0.00193006
-0.00591365
-0.0116682
-0.03026
-0.0473531
-0.0410628
-0.0179495
0.00148867
0.0103932
0.0130287
0.0135965
0.0136777
0.0136603
0.01361
0.0135174
0.0133712
0.0131743
0.0129377
0.0126729
0.0123894
0.0120934
0.0117894
0.0114799
0.0111662
0.0108493
0.0105296
0.0102074
0.00988275
0.00955582
0.00922652
0.00889486
0.0085609
0.00822451
0.00788584
0.00754473
0.00720125
0.00685537
0.00650704
0.00615629
0.00580307
0.00544735
0.00508917
0.00472844
0.00436518
0.00399938
0.00363098
0.00326002
0.00288645
0.00251023
0.0021314
0.00174988
0.00136571
0.000978807
0.000589208
0.000196858
-0.129417
-0.132725
-0.131365
-0.133458
-0.130178
-0.125883
-0.119205
-0.107727
-0.106863
-0.11531
-0.129339
-0.140201
-0.143204
-0.148547
-0.152132
-0.143845
-0.111062
-0.0738817
-0.0951644
-0.162078
-0.213392
-0.235165
-0.20792
-0.131349
-0.0696451
-0.0289509
0.0181112
0.0254648
-0.0520614
-0.154488
-0.205734
-0.174578
-0.0733565
0.00318763
0.0270866
0.0227231
0.00299271
-0.0164892
-0.0424081
-0.0628548
-0.0489412
-0.016272
0.00158529
0.00201236
0.00214301
0.000790504
-0.00291645
-0.0099149
-0.0301634
-0.0482479
-0.0420402
-0.0183716
0.00165906
0.0108872
0.013505
0.0139112
0.0138456
0.0137376
0.0136408
0.0135274
0.0133732
0.0131737
0.0129367
0.012672
0.0123888
0.012093
0.0117892
0.0114797
0.0111661
0.0108493
0.0105295
0.0102074
0.00988275
0.00955582
0.00922652
0.00889486
0.0085609
0.00822451
0.00788584
0.00754473
0.00720125
0.00685537
0.00650704
0.00615629
0.00580307
0.00544735
0.00508917
0.00472844
0.00436518
0.00399938
0.00363098
0.00326002
0.00288645
0.00251023
0.0021314
0.00174988
0.0013657
0.000978807
0.000589208
0.000196858
-0.128731
-0.131234
-0.130486
-0.131817
-0.129155
-0.125203
-0.119768
-0.108926
-0.106981
-0.111901
-0.120645
-0.131372
-0.137723
-0.143917
-0.149838
-0.14518
-0.112891
-0.0750161
-0.0954286
-0.162428
-0.214808
-0.236456
-0.207886
-0.132281
-0.0719828
-0.0302255
0.0163914
0.0231137
-0.0481677
-0.151028
-0.202105
-0.170216
-0.0673384
0.00934765
0.0347377
0.0310617
0.0104871
-0.011726
-0.0419973
-0.0652005
-0.0506216
-0.0157594
0.00308922
0.0038947
0.00424934
0.00329328
-0.000140325
-0.00821985
-0.0297393
-0.0485605
-0.0425275
-0.0185641
0.00183108
0.011311
0.0139232
0.0141949
0.0140004
0.0138104
0.0136705
0.0135373
0.0133753
0.0131734
0.0129359
0.0126713
0.0123883
0.0120927
0.011789
0.0114796
0.011166
0.0108492
0.0105295
0.0102074
0.00988274
0.00955582
0.00922652
0.00889486
0.0085609
0.00822451
0.00788584
0.00754473
0.00720125
0.00685537
0.00650704
0.00615629
0.00580307
0.00544735
0.00508917
0.00472844
0.00436518
0.00399938
0.00363098
0.00326002
0.00288645
0.00251023
0.0021314
0.00174988
0.0013657
0.000978807
0.000589208
0.000196858
-0.128124
-0.129574
-0.129756
-0.130232
-0.12812
-0.124936
-0.119981
-0.109844
-0.107138
-0.108583
-0.112645
-0.123263
-0.132735
-0.140269
-0.148194
-0.145831
-0.114017
-0.076471
-0.096275
-0.162486
-0.21533
-0.236399
-0.206788
-0.133037
-0.0741216
-0.0313057
0.0141606
0.0202377
-0.0436361
-0.145948
-0.196778
-0.164459
-0.0607887
0.0154632
0.0420757
0.038165
0.0170605
-0.00734996
-0.0413163
-0.0667778
-0.0515106
-0.0148913
0.00441299
0.00565242
0.00621566
0.0055331
0.00235637
-0.00662666
-0.0290472
-0.0483583
-0.0425651
-0.0185397
0.00200022
0.0116596
0.0142787
0.0144445
0.0141404
0.0138777
0.0136984
0.0135467
0.0133774
0.0131731
0.0129352
0.0126707
0.0123878
0.0120924
0.0117888
0.0114795
0.011166
0.0108492
0.0105295
0.0102074
0.00988274
0.00955582
0.00922652
0.00889486
0.0085609
0.00822451
0.00788584
0.00754473
0.00720125
0.00685537
0.00650704
0.00615629
0.00580307
0.00544735
0.00508917
0.00472843
0.00436518
0.00399938
0.00363098
0.00326002
0.00288645
0.00251023
0.0021314
0.00174988
0.0013657
0.000978808
0.000589208
0.000196858
-0.127597
-0.127908
-0.129089
-0.128823
-0.127089
-0.124911
-0.119992
-0.110478
-0.107263
-0.105568
-0.105659
-0.116071
-0.128257
-0.137435
-0.146972
-0.145835
-0.114702
-0.0784503
-0.0976578
-0.162153
-0.214925
-0.235112
-0.204801
-0.133424
-0.0756089
-0.0318187
0.011603
0.0171701
-0.0388983
-0.139588
-0.189827
-0.157382
-0.0540107
0.0215332
0.0489626
0.0440253
0.022692
-0.00331214
-0.0402464
-0.0674488
-0.051574
-0.0137839
0.00556012
0.0072718
0.00794895
0.00747774
0.00452249
-0.00517878
-0.0281556
-0.0477291
-0.0422111
-0.0183215
0.00216202
0.011932
0.0145698
0.0146584
0.0142642
0.0139382
0.0137234
0.013555
0.013379
0.0131727
0.0129344
0.01267
0.0123874
0.0120922
0.0117887
0.0114794
0.0111659
0.0108492
0.0105295
0.0102074
0.00988274
0.00955582
0.00922652
0.00889486
0.0085609
0.00822451
0.00788584
0.00754473
0.00720125
0.00685537
0.00650703
0.00615629
0.00580307
0.00544735
0.00508917
0.00472843
0.00436518
0.00399938
0.00363098
0.00326002
0.00288645
0.00251023
0.0021314
0.00174988
0.0013657
0.000978808
0.000589208
0.000196858
-0.127149
-0.126391
-0.128433
-0.12766
-0.126122
-0.124979
-0.119926
-0.110879
-0.107311
-0.103018
-0.0999781
-0.110015
-0.124339
-0.13522
-0.14592
-0.145225
-0.115188
-0.0811089
-0.0994963
-0.16139
-0.213587
-0.232769
-0.202167
-0.133346
-0.0761252
-0.0314817
0.00899348
0.0142493
-0.0342076
-0.132078
-0.181579
-0.14918
-0.0473472
0.0275955
0.0552379
0.0487272
0.0273645
0.000439457
-0.0386068
-0.067043
-0.0507739
-0.012571
0.00655206
0.00873341
0.0093815
0.00910532
0.0063159
-0.00391817
-0.0271374
-0.0467776
-0.0415419
-0.017943
0.00231202
0.0121307
0.0147972
0.0148357
0.0143703
0.0139905
0.0137447
0.0135615
0.0133799
0.0131719
0.0129335
0.0126693
0.012387
0.0120919
0.0117885
0.0114794
0.0111659
0.0108492
0.0105295
0.0102074
0.00988274
0.00955582
0.00922652
0.00889486
0.0085609
0.00822451
0.00788584
0.00754473
0.00720125
0.00685537
0.00650703
0.00615629
0.00580307
0.00544735
0.00508917
0.00472843
0.00436518
0.00399938
0.00363098
0.00326002
0.00288645
0.00251023
0.0021314
0.00174988
0.0013657
0.000978808
0.000589208
0.000196858
-0.126784
-0.125135
-0.12778
-0.126762
-0.125289
-0.125033
-0.119853
-0.111127
-0.107266
-0.101059
-0.0958103
-0.105306
-0.121063
-0.133438
-0.144823
-0.144051
-0.115529
-0.0844779
-0.101694
-0.160194
-0.211306
-0.229526
-0.19908
-0.132782
-0.0755213
-0.0301316
0.00664291
0.0117245
-0.0295246
-0.12382
-0.172117
-0.139981
-0.0410433
0.0335664
0.0606618
0.0523529
0.031049
0.0038292
-0.0363194
-0.0654991
-0.0491359
-0.0113829
0.00741019
0.0100003
0.010475
0.010394
0.00770605
-0.00288227
-0.0260657
-0.0456164
-0.0406483
-0.0174472
0.00244565
0.0122606
0.014964
0.0149767
0.0144576
0.0140335
0.0137616
0.013566
0.0133798
0.0131707
0.0129323
0.0126686
0.0123865
0.0120916
0.0117884
0.0114793
0.0111659
0.0108491
0.0105295
0.0102074
0.00988274
0.00955582
0.00922652
0.00889486
0.0085609
0.00822451
0.00788584
0.00754473
0.00720125
0.00685537
0.00650703
0.00615629
0.00580307
0.00544735
0.00508917
0.00472843
0.00436518
0.00399938
0.00363098
0.00326002
0.00288645
0.00251023
0.0021314
0.00174988
0.0013657
0.000978808
0.000589207
0.000196858
-0.126495
-0.124201
-0.127158
-0.126107
-0.124643
-0.125012
-0.119796
-0.111301
-0.107154
-0.0997406
-0.0932047
-0.102069
-0.118508
-0.131948
-0.143568
-0.142399
-0.115742
-0.0884183
-0.104125
-0.158537
-0.208152
-0.225551
-0.195419
-0.131763
-0.0738112
-0.0277711
0.00480207
0.00973267
-0.0248861
-0.115177
-0.162189
-0.130821
-0.0347287
0.0392296
0.0650183
0.0550077
0.0337582
0.00666343
-0.0335924
-0.0630793
-0.0468724
-0.0103127
0.00814536
0.0110131
0.0112429
0.0113248
0.00868003
-0.00209841
-0.0250124
-0.0443602
-0.0396272
-0.0168841
0.00255744
0.0123283
0.015075
0.0150824
0.0145254
0.0140666
0.0137738
0.0135685
0.0133789
0.0131692
0.0129311
0.0126677
0.012386
0.0120914
0.0117883
0.0114792
0.0111658
0.0108491
0.0105295
0.0102074
0.00988274
0.00955582
0.00922652
0.00889486
0.0085609
0.00822451
0.00788584
0.00754473
0.00720125
0.00685537
0.00650703
0.00615629
0.00580307
0.00544735
0.00508917
0.00472843
0.00436518
0.00399938
0.00363098
0.00326002
0.00288645
0.00251023
0.0021314
0.00174988
0.0013657
0.000978808
0.000589207
0.000196858
-0.126262
-0.123603
-0.126608
-0.125659
-0.124208
-0.124895
-0.119733
-0.111457
-0.107046
-0.0990671
-0.0920248
-0.100257
-0.116693
-0.130687
-0.14217
-0.140422
-0.115779
-0.0926753
-0.106539
-0.1565
-0.204275
-0.221044
-0.191487
-0.130036
-0.071118
-0.0245617
0.00362404
0.00831494
-0.0204861
-0.10651
-0.15272
-0.122675
-0.0286805
0.044345
0.068248
0.0568536
0.0356159
0.00882983
-0.0309025
-0.0604631
-0.0444825
-0.00939677
0.00874753
0.0117181
0.0117337
0.0119004
0.00925398
-0.00157529
-0.0240426
-0.0431259
-0.0385809
-0.0163124
0.00263961
0.0123418
0.0151362
0.0151541
0.0145737
0.0140901
0.0137819
0.0135695
0.0133775
0.0131675
0.0129298
0.0126669
0.0123855
0.0120911
0.0117881
0.0114791
0.0111658
0.0108491
0.0105295
0.0102074
0.00988274
0.00955582
0.00922652
0.00889486
0.0085609
0.00822451
0.00788584
0.00754473
0.00720125
0.00685537
0.00650703
0.00615629
0.00580307
0.00544735
0.00508917
0.00472843
0.00436518
0.00399938
0.00363098
0.00326002
0.00288645
0.00251023
0.0021314
0.00174988
0.0013657
0.000978808
0.000589207
0.000196858
-0.126064
-0.123311
-0.126169
-0.125378
-0.123968
-0.1247
-0.119642
-0.111627
-0.107007
-0.0989042
-0.0919551
-0.0996101
-0.115559
-0.129656
-0.140767
-0.138472
-0.115603
-0.0965082
-0.108682
-0.154232
-0.200018
-0.216365
-0.18751
-0.127659
-0.0677916
-0.0209729
0.00315902
0.00745253
-0.0166621
-0.0983418
-0.143885
-0.115355
-0.0229725
0.0486348
0.0704684
0.0580627
0.03683
0.0103963
-0.028623
-0.0581893
-0.0424026
-0.00860567
0.00916866
0.0121197
0.0119869
0.0121538
0.00948076
-0.00129943
-0.0232105
-0.0420217
-0.0376174
-0.0157992
0.00268361
0.0123096
0.0151534
0.0151941
0.0146043
0.0141053
0.013787
0.0135698
0.0133761
0.013166
0.0129286
0.0126662
0.0123851
0.0120909
0.011788
0.0114791
0.0111658
0.0108491
0.0105295
0.0102074
0.00988274
0.00955582
0.00922652
0.00889486
0.0085609
0.00822451
0.00788584
0.00754473
0.00720125
0.00685537
0.00650703
0.00615629
0.00580307
0.00544735
0.00508917
0.00472843
0.00436518
0.00399938
0.00363098
0.00326002
0.00288645
0.00251023
0.0021314
0.00174988
0.0013657
0.000978808
0.000589207
0.000196859
-0.125894
-0.123266
-0.125865
-0.125221
-0.123887
-0.124471
-0.119528
-0.111813
-0.107018
-0.0990242
-0.092521
-0.0996994
-0.114973
-0.1289
-0.139554
-0.136748
-0.11522
-0.0991333
-0.110344
-0.152056
-0.195869
-0.21186
-0.183663
-0.124961
-0.0645074
-0.0177908
0.00329766
0.00709939
-0.0138158
-0.0914644
-0.135987
-0.1086
-0.0178888
0.0519209
0.0718422
0.0587902
0.0375688
0.011445
-0.0268243
-0.0563356
-0.0407388
-0.00793064
0.00936206
0.0122768
0.0120502
0.012169
0.00945588
-0.00123614
-0.0225744
-0.0411149
-0.0368149
-0.0154019
0.00268798
0.0122429
0.0151348
0.0152075
0.0146206
0.0141148
0.0137906
0.01357
0.0133751
0.0131649
0.0129278
0.0126656
0.0123847
0.0120907
0.0117879
0.011479
0.0111657
0.0108491
0.0105295
0.0102074
0.00988274
0.00955582
0.00922652
0.00889486
0.0085609
0.00822451
0.00788584
0.00754473
0.00720125
0.00685537
0.00650703
0.00615629
0.00580307
0.00544735
0.00508917
0.00472843
0.00436518
0.00399938
0.00363098
0.00326002
0.00288645
0.00251023
0.0021314
0.00174988
0.0013657
0.000978808
0.000589207
0.000196859
-0.125753
-0.123366
-0.125702
-0.125145
-0.123913
-0.124273
-0.119406
-0.111975
-0.10702
-0.0990846
-0.0932075
-0.100061
-0.114769
-0.128471
-0.138712
-0.1355
-0.114647
-0.100607
-0.111407
-0.150612
-0.192721
-0.208259
-0.180582
-0.122867
-0.0622814
-0.0158388
0.00357728
0.00720735
-0.0124276
-0.0868424
-0.130175
-0.10362
-0.0141816
0.0538962
0.0725331
0.0591783
0.0379219
0.0119258
-0.0256512
-0.0549767
-0.0395602
-0.00748417
0.0093378
0.0122664
0.0120128
0.0120741
0.0093214
-0.00133245
-0.0222678
-0.040428
-0.0361454
-0.0151991
0.00267099
0.0121652
0.0150975
0.0152038
0.0146269
0.0141203
0.0137929
0.0135703
0.0133746
0.0131642
0.0129272
0.0126652
0.0123845
0.0120905
0.0117878
0.011479
0.0111657
0.0108491
0.0105295
0.0102074
0.00988273
0.00955582
0.00922652
0.00889486
0.0085609
0.00822451
0.00788584
0.00754473
0.00720125
0.00685537
0.00650703
0.00615629
0.00580307
0.00544735
0.00508917
0.00472843
0.00436518
0.00399938
0.00363098
0.00326002
0.00288645
0.00251023
0.0021314
0.00174988
0.0013657
0.000978809
0.000589207
0.000196859
-0.125637
-0.123551
-0.125669
-0.125137
-0.123996
-0.124184
-0.119314
-0.112059
-0.106987
-0.0990678
-0.0935225
-0.100451
-0.114833
-0.128349
-0.138318
-0.134636
-0.114063
-0.100983
-0.112358
-0.150287
-0.191404
-0.20645
-0.179037
-0.121822
-0.0613722
-0.0151234
0.00379462
0.00726916
-0.0130668
-0.084959
-0.127335
-0.100985
-0.0123299
0.0547801
0.0728482
0.0593456
0.0378499
0.0117454
-0.0252013
-0.05444
-0.0388934
-0.00728252
0.00923658
0.0121342
0.0119919
0.0120345
0.00911665
-0.00157949
-0.022258
-0.0401342
-0.0357157
-0.0150547
0.002687
0.0121305
0.0150764
0.0151989
0.0146282
0.0141223
0.013794
0.0135706
0.0133745
0.013164
0.012927
0.012665
0.0123844
0.0120905
0.0117878
0.011479
0.0111657
0.0108491
0.0105295
0.0102074
0.00988273
0.00955582
0.00922652
0.00889486
0.0085609
0.00822451
0.00788584
0.00754473
0.00720125
0.00685537
0.00650703
0.00615629
0.00580307
0.00544735
0.00508917
0.00472843
0.00436518
0.00399938
0.00363099
0.00326002
0.00288645
0.00251023
0.0021314
0.00174988
0.0013657
0.000978809
0.000589207
0.000196859
-0.132655
-0.133469
-0.135186
-0.133042
-0.1311
-0.128099
-0.128096
-0.133754
-0.142057
-0.15254
-0.169353
-0.186072
-0.188916
-0.186767
-0.135955
-0.0556364
-0.0525393
-0.0643684
-0.0915455
-0.109409
-0.11521
-0.119455
-0.130155
-0.140644
-0.114186
-0.0593572
-0.00398144
0.0310161
0.04525
0.0372775
0.0163618
0.00450234
0.00823173
0.000655683
-0.0263314
-0.0655321
-0.0757235
-0.0473482
-0.0135454
0.00572389
0.0107803
0.00627564
-0.00339991
-0.01304
-0.0216182
-0.0330665
-0.0322904
-0.010621
0.00928291
0.0159099
0.0124649
0.00722965
0.00425239
0.00423865
0.00611982
0.00861299
0.010801
0.0122906
0.0130989
0.0134119
0.0134195
0.0132586
0.013013
0.0127278
0.0124254
0.0121155
0.0118023
0.011487
0.0111701
0.0108513
0.0105306
0.0102079
0.00988299
0.00955591
0.00922653
0.00889485
0.00856088
0.00822451
0.00788583
0.00754474
0.00720126
0.0068554
0.00650704
0.0061563
0.00580306
0.00544735
0.00508916
0.00472843
0.00436518
0.00399937
0.00363099
0.00326002
0.00288644
0.00251024
0.00213139
0.0017499
0.00136569
0.000978817
0.000589202
0.000196861
-0.132739
-0.133526
-0.135206
-0.133026
-0.131155
-0.128203
-0.128157
-0.133809
-0.142059
-0.152342
-0.169894
-0.187737
-0.190108
-0.188489
-0.139213
-0.0591584
-0.0522987
-0.0639686
-0.0916793
-0.10976
-0.115401
-0.119352
-0.129978
-0.1416
-0.115917
-0.0604187
-0.00462107
0.0302862
0.044648
0.0373941
0.0163515
0.00443701
0.00830316
0.00115561
-0.0264167
-0.0659357
-0.0766961
-0.0480326
-0.0136811
0.00573707
0.0108734
0.00640908
-0.00332539
-0.012988
-0.0215722
-0.0331809
-0.0326729
-0.0108913
0.00925472
0.0159875
0.0125234
0.00721902
0.00422227
0.00421306
0.00610085
0.0086067
0.010802
0.0122937
0.0131017
0.0134138
0.0134205
0.0132591
0.0130133
0.0127279
0.0124255
0.0121155
0.0118023
0.011487
0.0111701
0.0108513
0.0105306
0.0102079
0.00988299
0.00955591
0.00922653
0.00889485
0.00856088
0.00822451
0.00788583
0.00754474
0.00720126
0.0068554
0.00650704
0.0061563
0.00580306
0.00544735
0.00508916
0.00472843
0.00436518
0.00399937
0.00363099
0.00326002
0.00288644
0.00251024
0.00213139
0.0017499
0.00136569
0.000978817
0.000589202
0.000196861
-0.132826
-0.133669
-0.13535
-0.133117
-0.131182
-0.128322
-0.128132
-0.133779
-0.141957
-0.15258
-0.173083
-0.19197
-0.192718
-0.191495
-0.146197
-0.0649735
-0.0508444
-0.0644722
-0.0937401
-0.111546
-0.116018
-0.119207
-0.129654
-0.143383
-0.11898
-0.0624244
-0.00590762
0.0289653
0.0426402
0.0363886
0.0151271
0.00413654
0.00858428
0.0016119
-0.0270787
-0.067376
-0.0786891
-0.0492684
-0.0138866
0.00593846
0.0111209
0.00659361
-0.00332421
-0.013064
-0.021623
-0.0334914
-0.0334042
-0.0113351
0.0092307
0.0161209
0.0125455
0.007152
0.00415052
0.00416779
0.00608333
0.00860955
0.010814
0.0123058
0.0131104
0.013419
0.0134232
0.0132604
0.0130138
0.0127281
0.0124255
0.0121155
0.0118023
0.011487
0.0111701
0.0108513
0.0105306
0.0102079
0.00988299
0.00955591
0.00922653
0.00889485
0.00856089
0.00822451
0.00788583
0.00754474
0.00720125
0.0068554
0.00650704
0.0061563
0.00580306
0.00544735
0.00508916
0.00472843
0.00436518
0.00399937
0.00363099
0.00326002
0.00288644
0.00251024
0.00213139
0.0017499
0.00136569
0.000978817
0.000589202
0.000196861
-0.132917
-0.133897
-0.135577
-0.133314
-0.131187
-0.128447
-0.127978
-0.133579
-0.141939
-0.15291
-0.178492
-0.197093
-0.195721
-0.194028
-0.154798
-0.0708706
-0.0490051
-0.0657657
-0.0974925
-0.114452
-0.116673
-0.118889
-0.129023
-0.145377
-0.122923
-0.0649179
-0.0081401
0.0270531
0.039238
0.0342498
0.0126113
0.00328173
0.00885401
0.00196361
-0.028286
-0.0696694
-0.0815456
-0.0510219
-0.014159
0.00626727
0.0115104
0.0068524
-0.00338193
-0.0132381
-0.0217392
-0.0339421
-0.0344638
-0.0119797
0.0091405
0.0162352
0.0125154
0.00702821
0.00405115
0.00411657
0.00606998
0.0086202
0.0108329
0.0123224
0.0131214
0.0134251
0.0134262
0.0132616
0.0130143
0.0127282
0.0124255
0.0121155
0.0118023
0.011487
0.01117
0.0108513
0.0105306
0.0102079
0.00988299
0.0095559
0.00922653
0.00889485
0.00856089
0.00822451
0.00788583
0.00754474
0.00720125
0.0068554
0.00650704
0.00615629
0.00580306
0.00544735
0.00508916
0.00472843
0.00436518
0.00399937
0.00363099
0.00326002
0.00288644
0.00251024
0.00213139
0.0017499
0.00136569
0.000978817
0.000589202
0.000196861
-0.132994
-0.134165
-0.135864
-0.133609
-0.131181
-0.128555