/*--------------------------------*- C++ -*----------------------------------*\
| =========                 |                                                 |
| \\      /  F ield         | OpenFOAM: The Open Source CFD Toolbox           |
|  \\    /   O peration     | Version:  2.4.0                                 |
|   \\  /    A nd           | Web:      www.OpenFOAM.org                      |
|    \\/     M anipulation  |                                                 |
\*---------------------------------------------------------------------------*/
FoamFile
{
    version     2.0;
    format      ascii;
    class       volVectorField;
    location    "1.56";
    object      UMean;
}
// * * * * * * * * * * * * * * * * * * * * * * * * * * * * * * * * * * * * * //

dimensions      [0 1 -1 0 0 0 0];

internalField   nonuniform List<vector> 
8800
(
(8.09341 0.387245 0)
(5.45642 0.242639 0)
(3.92583 0.0429578 0)
(3.15976 -0.0151717 0)
(2.82022 -0.0184686 0)
(2.59863 -0.0108125 0)
(2.51083 -0.00594212 0)
(2.38036 -0.00189961 0)
(2.35276 -0.00186985 0)
(2.25054 -7.36112e-05 0)
(2.25656 -0.0011417 0)
(2.1667 0.000580373 0)
(2.18908 -0.000674049 0)
(2.09947 0.00112196 0)
(2.12788 -0.000366211 0)
(2.03512 0.00155369 0)
(2.06607 -0.000525353 0)
(1.96585 0.000976452 0)
(2.03392 0.00781436 0)
(1.72545 -0.0637436 0)
(10.0897 0.836366 0)
(9.6491 0.866798 0)
(8.89886 0.505703 0)
(8.06306 0.261886 0)
(7.5335 0.137015 0)
(6.97807 0.0822363 0)
(6.75369 0.0524943 0)
(6.36519 0.0408368 0)
(6.3004 0.027904 0)
(5.98754 0.0249424 0)
(6.01896 0.0165487 0)
(5.74088 0.018701 0)
(5.82775 0.0127476 0)
(5.55712 0.0176217 0)
(5.67393 0.0124436 0)
(5.39645 0.0174025 0)
(5.53533 0.0156731 0)
(5.23054 0.00917933 0)
(5.43714 0.0304854 0)
(5.00555 -0.0434602 0)
(10.0884 0.629943 0)
(10.6231 0.862029 0)
(10.9206 0.599396 0)
(10.6354 0.373439 0)
(10.5255 0.254044 0)
(10.0155 0.196494 0)
(9.9247 0.150385 0)
(9.41469 0.122766 0)
(9.4246 0.0904906 0)
(8.94769 0.0767843 0)
(9.06001 0.054784 0)
(8.60833 0.0534249 0)
(8.79805 0.0386449 0)
(8.3494 0.0442495 0)
(8.59256 0.0335505 0)
(8.12852 0.0402973 0)
(8.41423 0.0367304 0)
(7.91403 0.0317773 0)
(8.26036 0.0418002 0)
(7.70888 -0.0459236 0)
(10.0752 0.45669 0)
(10.4833 0.703646 0)
(11.2674 0.543639 0)
(11.268 0.352602 0)
(11.67 0.25973 0)
(11.3385 0.227996 0)
(11.62 0.19655 0)
(11.1668 0.176244 0)
(11.4442 0.142493 0)
(10.9358 0.126627 0)
(11.2494 0.0986333 0)
(10.7105 0.0943872 0)
(11.0692 0.0738649 0)
(10.5016 0.0782944 0)
(10.903 0.0621904 0)
(10.3024 0.0714831 0)
(10.743 0.0587671 0)
(10.1025 0.0687966 0)
(10.5763 0.0465304 0)
(9.90721 0.0351436 0)
(10.2 0.346556 0)
(10.2491 0.565975 0)
(11.208 0.457915 0)
(11.1451 0.295626 0)
(11.8215 0.205699 0)
(11.5099 0.194893 0)
(12.0528 0.173488 0)
(11.6528 0.171928 0)
(12.1643 0.138532 0)
(11.7183 0.135948 0)
(12.2229 0.101668 0)
(11.7422 0.110934 0)
(12.2459 0.0793453 0)
(11.7324 0.101075 0)
(12.2358 0.067361 0)
(11.691 0.101285 0)
(12.1922 0.0602303 0)
(11.6174 0.109037 0)
(12.1056 0.0410422 0)
(11.5004 0.0957761 0)
(10.2288 0.249474 0)
(10.1674 0.456126 0)
(11.0503 0.371325 0)
(11.0473 0.250518 0)
(11.6706 0.155332 0)
(11.4797 0.155228 0)
(11.9401 0.13532 0)
(11.7011 0.14613 0)
(12.1156 0.111211 0)
(11.8758 0.118039 0)
(12.2674 0.0811497 0)
(12.0285 0.097715 0)
(12.3983 0.0641656 0)
(12.157 0.091685 0)
(12.5027 0.0576955 0)
(12.2575 0.0948589 0)
(12.5753 0.056622 0)
(12.3228 0.104268 0)
(12.5984 0.0471585 0)
(12.307 0.0609972 0)
(10.0965 0.168347 0)
(10.2388 0.359316 0)
(10.8128 0.279811 0)
(11.0691 0.212107 0)
(11.4382 0.108151 0)
(11.5177 0.124096 0)
(11.7168 0.0936503 0)
(11.737 0.125319 0)
(11.8927 0.0751713 0)
(11.9168 0.103999 0)
(12.0563 0.0493934 0)
(12.085 0.0886733 0)
(12.2085 0.033844 0)
(12.2373 0.0864464 0)
(12.3441 0.0273804 0)
(12.3705 0.0932192 0)
(12.4592 0.0247492 0)
(12.4767 0.106501 0)
(12.5289 0.0173572 0)
(12.4818 0.0924062 0)
(9.97652 0.10333 0)
(10.3005 0.263784 0)
(10.6381 0.190238 0)
(11.0783 0.165018 0)
(11.2719 0.0671544 0)
(11.5342 0.093804 0)
(11.563 0.0567854 0)
(11.7448 0.100243 0)
(11.7365 0.0441771 0)
(11.917 0.0846679 0)
(11.9016 0.0246464 0)
(12.0813 0.0736809 0)
(12.0575 0.0125667 0)
(12.2314 0.0725347 0)
(12.1983 0.00737204 0)
(12.3637 0.078207 0)
(12.321 0.00473807 0)
(12.4717 0.0885655 0)
(12.4024 -0.00246545 0)
(12.4571 0.0772677 0)
(9.89997 0.0547741 0)
(10.339 0.1625 0)
(10.524 0.10977 0)
(11.0816 0.104774 0)
(11.1621 0.0349717 0)
(11.5427 0.0599568 0)
(11.4617 0.0289303 0)
(11.7483 0.0658458 0)
(11.6326 0.0219568 0)
(11.9159 0.0557051 0)
(11.7984 0.00953764 0)
(12.0791 0.048591 0)
(11.956 0.0022172 0)
(12.2295 0.0470411 0)
(12.0983 -0.0011582 0)
(12.363 0.0488709 0)
(12.2231 -0.00332935 0)
(12.4722 0.0508125 0)
(12.3007 -0.0140918 0)
(12.4398 0.0120694 0)
(9.88668 0.00829842 0)
(10.3347 0.0673177 0)
(10.4895 0.0254891 0)
(11.0609 0.0479259 0)
(11.1319 -0.00014414 0)
(11.5256 0.0333072 0)
(11.4388 -0.00264688 0)
(11.7294 0.0367332 0)
(11.6108 -0.00551488 0)
(11.8958 0.0334306 0)
(11.7784 -0.0108496 0)
(12.0601 0.0311155 0)
(11.9382 -0.0146334 0)
(12.2123 0.0303049 0)
(12.0824 -0.0180234 0)
(12.3485 0.0293421 0)
(12.2086 -0.0225152 0)
(12.4601 0.0251989 0)
(12.2838 -0.0353193 0)
(12.4264 -0.00417939 0)
(9.90888 -0.0310893 0)
(10.3133 -0.0338155 0)
(10.5122 -0.055349 0)
(11.044 -0.0172894 0)
(11.1572 -0.0311048 0)
(11.5117 -0.00162535 0)
(11.4665 -0.0300332 0)
(11.7188 -0.00207739 0)
(11.64 -0.0289664 0)
(11.8886 0.00176016 0)
(11.8095 -0.0266113 0)
(12.0561 0.00415691 0)
(11.9709 -0.0272477 0)
(12.2121 0.00349911 0)
(12.1169 -0.0309855 0)
(12.3524 -0.000447349 0)
(12.2449 -0.0380561 0)
(12.4686 -0.00871885 0)
(12.3211 -0.0505795 0)
(12.4369 -0.0277256 0)
(9.94462 -0.0753961 0)
(10.2932 -0.133502 0)
(10.5702 -0.137335 0)
(11.0415 -0.0788429 0)
(11.2155 -0.062756 0)
(11.5067 -0.0330665 0)
(11.5217 -0.0579556 0)
(11.7168 -0.0364577 0)
(11.6978 -0.0525681 0)
(11.8899 -0.0257972 0)
(11.8688 -0.0428234 0)
(12.0593 -0.0185824 0)
(12.0312 -0.0400925 0)
(12.2169 -0.0188555 0)
(12.1786 -0.0440457 0)
(12.3587 -0.0256762 0)
(12.3085 -0.053714 0)
(12.4763 -0.0384689 0)
(12.3873 -0.0661362 0)
(12.4454 -0.0475231 0)
(9.97369 -0.123353 0)
(10.2928 -0.237589 0)
(10.6428 -0.217009 0)
(11.0682 -0.141026 0)
(11.2855 -0.0938586 0)
(11.5234 -0.0680112 0)
(11.5836 -0.085401 0)
(11.7349 -0.0719979 0)
(11.7628 -0.0753116 0)
(11.9097 -0.0550997 0)
(11.934 -0.0592869 0)
(12.0785 -0.04319 0)
(12.0962 -0.0532325 0)
(12.2348 -0.0424607 0)
(12.2437 -0.0576552 0)
(12.375 -0.0515427 0)
(12.3739 -0.071154 0)
(12.4909 -0.0692522 0)
(12.4554 -0.0877428 0)
(12.4616 -0.0678258 0)
(10.0112 -0.182708 0)
(10.301 -0.342175 0)
(10.7458 -0.29895 0)
(11.1166 -0.196601 0)
(11.3832 -0.12766 0)
(11.5589 -0.106789 0)
(11.6695 -0.114105 0)
(11.7742 -0.107638 0)
(11.8513 -0.0977751 0)
(11.9523 -0.0853086 0)
(12.0212 -0.075597 0)
(12.1208 -0.0695634 0)
(12.1802 -0.0657991 0)
(12.2751 -0.0678763 0)
(12.3231 -0.0693751 0)
(12.4116 -0.0784764 0)
(12.4465 -0.085632 0)
(12.5216 -0.101854 0)
(12.5212 -0.108843 0)
(12.4927 -0.0994068 0)
(10.0539 -0.25791 0)
(10.3177 -0.446949 0)
(10.8902 -0.382418 0)
(11.1814 -0.242786 0)
(11.5201 -0.166376 0)
(11.606 -0.146418 0)
(11.7943 -0.145912 0)
(11.8219 -0.139255 0)
(11.9725 -0.122472 0)
(11.9934 -0.112021 0)
(12.1266 -0.094395 0)
(12.1446 -0.0934901 0)
(12.2594 -0.0805626 0)
(12.2718 -0.0908685 0)
(12.3647 -0.0809986 0)
(12.3699 -0.101843 0)
(12.4355 -0.0961297 0)
(12.4276 -0.130114 0)
(12.4419 -0.124939 0)
(12.3449 -0.1392 0)
(10.0493 -0.351635 0)
(10.3936 -0.559646 0)
(11.0445 -0.464514 0)
(11.2977 -0.289827 0)
(11.6531 -0.21328 0)
(11.6644 -0.187936 0)
(11.8765 -0.181311 0)
(11.8106 -0.166164 0)
(11.978 -0.147629 0)
(11.88 -0.130677 0)
(12.0252 -0.112731 0)
(11.9075 -0.107016 0)
(12.0335 -0.0935004 0)
(11.8998 -0.100282 0)
(12.0024 -0.0880039 0)
(11.8554 -0.10788 0)
(11.9246 -0.0970865 0)
(11.7631 -0.136775 0)
(11.7661 -0.125382 0)
(11.5411 -0.16237 0)
(10.0027 -0.459818 0)
(10.5605 -0.700139 0)
(11.1665 -0.546384 0)
(11.3679 -0.350225 0)
(11.556 -0.263981 0)
(11.4487 -0.224978 0)
(11.4921 -0.201052 0)
(11.2853 -0.173769 0)
(11.3014 -0.147765 0)
(11.0607 -0.124686 0)
(11.09 -0.104672 0)
(10.8389 -0.0944528 0)
(10.8887 -0.0808702 0)
(10.6296 -0.0832591 0)
(10.6918 -0.0712077 0)
(10.4216 -0.0877152 0)
(10.4785 -0.074685 0)
(10.1899 -0.115831 0)
(10.1956 -0.0958413 0)
(9.86013 -0.160614 0)
(10.0589 -0.633037 0)
(10.6554 -0.858883 0)
(10.8653 -0.600827 0)
(10.691 -0.371979 0)
(10.457 -0.256979 0)
(10.0826 -0.194667 0)
(9.84206 -0.15356 0)
(9.48903 -0.120661 0)
(9.32945 -0.0943465 0)
(9.02534 -0.0747555 0)
(8.95274 -0.0594518 0)
(8.68459 -0.0523615 0)
(8.67569 -0.0444929 0)
(8.41795 -0.0460523 0)
(8.44592 -0.0413086 0)
(8.17847 -0.0503867 0)
(8.21701 -0.0484888 0)
(7.92021 -0.0698158 0)
(7.92244 -0.0711152 0)
(7.57542 -0.0896684 0)
(10.0805 -0.837998 0)
(9.65659 -0.864862 0)
(8.87415 -0.506177 0)
(8.08999 -0.261122 0)
(7.49875 -0.138709 0)
(7.01283 -0.0814205 0)
(6.70711 -0.0539987 0)
(6.40488 -0.0397625 0)
(6.24557 -0.0297677 0)
(6.02801 -0.023939 0)
(5.95713 -0.0188042 0)
(5.77711 -0.0182129 0)
(5.75714 -0.0155654 0)
(5.58255 -0.0185581 0)
(5.58721 -0.0164832 0)
(5.39901 -0.022916 0)
(5.40799 -0.0220954 0)
(5.18557 -0.0327582 0)
(5.17423 -0.0384632 0)
(4.87878 -0.0198256 0)
(8.09142 -0.387675 0)
(5.45477 -0.242046 0)
(3.9209 -0.0432561 0)
(3.16845 0.0152743 0)
(2.81067 0.0180093 0)
(2.6083 0.0111566 0)
(2.49585 0.00559311 0)
(2.39157 0.0022998 0)
(2.33492 0.00144155 0)
(2.26159 0.000448762 0)
(2.2357 0.000668178 0)
(2.17521 -0.000235679 0)
(2.16407 0.00015794 0)
(2.10141 -0.00107394 0)
(2.09433 -0.00034284 0)
(2.02164 -0.00224494 0)
(2.00931 -0.00113208 0)
(1.9179 -0.00382753 0)
(1.87993 -0.0042936 0)
(1.72797 0.0113238 0)
(2.27942 -0.110387 0)
(2.31826 -0.0219887 0)
(2.56791 -0.00695085 0)
(2.62153 -0.0129754 0)
(2.86603 -0.032895 0)
(2.8849 -0.0375376 0)
(3.10465 -0.0465207 0)
(3.08749 -0.0404103 0)
(3.28187 -0.0466018 0)
(3.23963 -0.0435788 0)
(3.42522 -0.052026 0)
(3.36779 -0.0499664 0)
(3.55522 -0.060309 0)
(3.49112 -0.0585367 0)
(3.68308 -0.0688653 0)
(3.61521 -0.0666736 0)
(3.81488 -0.0769875 0)
(3.7452 -0.074503 0)
(3.95756 -0.0848451 0)
(3.88721 -0.0807494 0)
(4.10727 -0.0934999 0)
(4.03082 -0.0926833 0)
(4.25419 -0.108506 0)
(4.16909 -0.109367 0)
(4.39397 -0.127538 0)
(4.29934 -0.129743 0)
(4.52487 -0.148219 0)
(4.42147 -0.147908 0)
(4.64902 -0.163688 0)
(4.54282 -0.160665 0)
(4.77583 -0.176974 0)
(4.6732 -0.17523 0)
(4.91285 -0.194367 0)
(4.81193 -0.193721 0)
(5.0537 -0.21326 0)
(4.94856 -0.211 0)
(5.19345 -0.229434 0)
(5.08184 -0.224772 0)
(5.33457 -0.242712 0)
(5.21523 -0.238385 0)
(5.47916 -0.258364 0)
(5.34926 -0.257199 0)
(5.62364 -0.282039 0)
(5.47979 -0.284595 0)
(5.75869 -0.312775 0)
(5.59955 -0.315104 0)
(5.87917 -0.34393 0)
(5.70994 -0.342238 0)
(5.99049 -0.370215 0)
(5.81654 -0.363991 0)
(6.1006 -0.390212 0)
(5.92313 -0.37942 0)
(6.21754 -0.402995 0)
(6.03363 -0.388838 0)
(6.34519 -0.412198 0)
(6.15023 -0.397091 0)
(6.4828 -0.421802 0)
(6.27292 -0.40644 0)
(6.62502 -0.432126 0)
(6.39817 -0.416696 0)
(6.76779 -0.445521 0)
(6.53062 -0.432013 0)
(6.91453 -0.467055 0)
(6.6767 -0.457923 0)
(7.06424 -0.50112 0)
(6.82919 -0.495765 0)
(7.20795 -0.543558 0)
(6.96924 -0.539055 0)
(7.33699 -0.585799 0)
(7.08916 -0.578639 0)
(7.45407 -0.625561 0)
(7.19577 -0.613384 0)
(7.56264 -0.657671 0)
(7.29271 -0.640683 0)
(7.67412 -0.68408 0)
(7.39434 -0.66284 0)
(7.79592 -0.70597 0)
(7.51411 -0.681643 0)
(7.93561 -0.728909 0)
(7.65414 -0.70205 0)
(8.09372 -0.752792 0)
(7.8083 -0.724067 0)
(8.26242 -0.774558 0)
(7.9679 -0.746918 0)
(8.43158 -0.799713 0)
(8.1331 -0.773707 0)
(8.58802 -0.834709 0)
(8.29853 -0.811821 0)
(8.72808 -0.879337 0)
(8.44982 -0.858209 0)
(8.85163 -0.925547 0)
(8.58184 -0.901372 0)
(8.9568 -0.965906 0)
(8.68986 -0.939095 0)
(9.04644 -1.00164 0)
(8.78204 -0.969651 0)
(9.12466 -1.03095 0)
(8.85993 -0.994267 0)
(9.19541 -1.05236 0)
(8.93834 -1.01152 0)
(9.27266 -1.07182 0)
(9.02185 -1.02858 0)
(9.36136 -1.09312 0)
(9.10773 -1.04326 0)
(9.44786 -1.10391 0)
(9.18289 -1.04117 0)
(9.51599 -1.10365 0)
(9.23699 -1.03364 0)
(9.55653 -1.09792 0)
(9.26782 -1.01901 0)
(9.57487 -1.08471 0)
(9.2776 -1.00293 0)
(9.56955 -1.06735 0)
(9.26406 -0.978834 0)
(9.54787 -1.04319 0)
(9.25086 -0.946837 0)
(9.53079 -1.00745 0)
(9.2509 -0.906967 0)
(9.51964 -0.967561 0)
(9.25247 -0.865235 0)
(9.50967 -0.925084 0)
(9.25699 -0.822372 0)
(9.50571 -0.886486 0)
(9.26151 -0.78154 0)
(9.50305 -0.850671 0)
(9.25482 -0.745979 0)
(9.50084 -0.813477 0)
(9.24141 -0.705458 0)
(9.49619 -0.766284 0)
(9.23435 -0.656555 0)
(9.4858 -0.711213 0)
(9.23458 -0.601427 0)
(9.46727 -0.656198 0)
(9.233 -0.550494 0)
(9.44448 -0.608614 0)
(9.22691 -0.504918 0)
(9.41965 -0.558327 0)
(9.21626 -0.451629 0)
(9.39969 -0.50149 0)
(9.21026 -0.399336 0)
(9.38198 -0.451635 0)
(9.20444 -0.352964 0)
(9.3553 -0.398982 0)
(9.19445 -0.306002 0)
(9.32437 -0.349603 0)
(9.18096 -0.259241 0)
(9.28055 -0.286655 0)
(9.15619 -0.197577 0)
(9.22914 -0.220245 0)
(9.12932 -0.131293 0)
(9.17119 -0.152858 0)
(9.09056 -0.0557197 0)
(9.11637 -0.0668509 0)
(9.04578 0.0316964 0)
(9.06502 0.017451 0)
(9.00553 0.12382 0)
(9.01852 0.113478 0)
(8.94947 0.219062 0)
(8.97668 0.207892 0)
(8.89822 0.323002 0)
(8.93941 0.293721 0)
(8.83957 0.419808 0)
(8.90947 0.38138 0)
(8.76959 0.511108 0)
(8.86773 0.46805 0)
(8.68594 0.606453 0)
(8.82911 0.557003 0)
(8.60212 0.702247 0)
(8.78179 0.647428 0)
(8.51585 0.808796 0)
(8.71628 0.729889 0)
(8.40493 0.911409 0)
(8.65412 0.825317 0)
(8.25447 1.0299 0)
(8.58318 0.921301 0)
(8.1039 1.17599 0)
(8.50166 1.03064 0)
(7.94771 1.32712 0)
(8.43132 1.14482 0)
(7.81469 1.4943 0)
(8.35338 1.27864 0)
(7.69398 1.67111 0)
(8.26992 1.43338 0)
(7.57071 1.85134 0)
(8.15225 1.59929 0)
(7.44196 2.0374 0)
(7.98417 1.79022 0)
(7.29222 2.23874 0)
(7.78533 2.02262 0)
(7.10211 2.46573 0)
(7.56062 2.29833 0)
(6.84761 2.74268 0)
(7.27995 2.65301 0)
(6.53096 3.14285 0)
(6.87331 3.12029 0)
(6.15362 3.81268 0)
(6.3573 3.84276 0)
(5.46613 4.94839 0)
(6.4387 5.47534 0)
(4.11245 8.4475 0)
(5.3464 -0.0742513 0)
(5.24985 -0.0389493 0)
(5.38992 -0.0429754 0)
(5.31783 -0.0598247 0)
(5.51931 -0.0894726 0)
(5.4621 -0.0983178 0)
(5.66914 -0.107827 0)
(5.58505 -0.0986552 0)
(5.77611 -0.100098 0)
(5.66468 -0.0915059 0)
(5.85336 -0.0984819 0)
(5.72989 -0.095002 0)
(5.92916 -0.106479 0)
(5.80186 -0.104647 0)
(6.01449 -0.11685 0)
(5.88369 -0.114504 0)
(6.10846 -0.126755 0)
(5.97268 -0.123503 0)
(6.20795 -0.13626 0)
(6.06686 -0.132595 0)
(6.31097 -0.146556 0)
(6.16301 -0.144401 0)
(6.41318 -0.160544 0)
(6.25627 -0.159489 0)
(6.51174 -0.177472 0)
(6.34588 -0.176969 0)
(6.60704 -0.195464 0)
(6.43324 -0.193666 0)
(6.70027 -0.211838 0)
(6.52007 -0.208842 0)
(6.79475 -0.227724 0)
(6.60968 -0.224932 0)
(6.89342 -0.245821 0)
(6.70194 -0.243351 0)
(6.99372 -0.264674 0)
(6.79232 -0.260356 0)
(7.09199 -0.280625 0)
(6.87969 -0.274173 0)
(7.18801 -0.294452 0)
(6.96609 -0.287788 0)
(7.28328 -0.310661 0)
(7.05423 -0.305435 0)
(7.3783 -0.332624 0)
(7.14369 -0.329077 0)
(7.47158 -0.359575 0)
(7.23081 -0.355574 0)
(7.56084 -0.386857 0)
(7.31226 -0.380798 0)
(7.64603 -0.411376 0)
(7.38729 -0.402589 0)
(7.72943 -0.431392 0)
(7.45674 -0.419086 0)
(7.81244 -0.446453 0)
(7.52365 -0.4308 0)
(7.89689 -0.457887 0)
(7.59274 -0.440172 0)
(7.98425 -0.468516 0)
(7.66774 -0.450666 0)
(8.07539 -0.481926 0)
(7.75103 -0.464639 0)
(8.17088 -0.499842 0)
(7.84308 -0.484056 0)
(8.27055 -0.52461 0)
(7.94278 -0.511342 0)
(8.37226 -0.55754 0)
(8.04651 -0.545989 0)
(8.47251 -0.594778 0)
(8.14698 -0.583667 0)
(8.57074 -0.634485 0)
(8.24257 -0.622631 0)
(8.66701 -0.671791 0)
(8.33159 -0.654651 0)
(8.7615 -0.702545 0)
(8.41845 -0.681072 0)
(8.85603 -0.730917 0)
(8.50935 -0.704589 0)
(8.95308 -0.757325 0)
(8.60744 -0.728083 0)
(9.05587 -0.784207 0)
(8.71135 -0.753977 0)
(9.1674 -0.811787 0)
(8.82097 -0.778508 0)
(9.28262 -0.837877 0)
(8.93723 -0.801965 0)
(9.39421 -0.862847 0)
(9.05681 -0.82783 0)
(9.50044 -0.894633 0)
(9.17467 -0.86186 0)
(9.59595 -0.933433 0)
(9.28035 -0.902499 0)
(9.67964 -0.972976 0)
(9.37043 -0.937344 0)
(9.74713 -1.00637 0)
(9.43938 -0.968043 0)
(9.79789 -1.03557 0)
(9.49166 -0.992796 0)
(9.83798 -1.05868 0)
(9.53227 -1.01247 0)
(9.87405 -1.07925 0)
(9.57322 -1.03328 0)
(9.91798 -1.10467 0)
(9.61887 -1.05422 0)
(9.9652 -1.12771 0)
(9.6572 -1.06507 0)
(10.0015 -1.13054 0)
(9.68299 -1.05596 0)
(10.0183 -1.12055 0)
(9.69224 -1.03874 0)
(10.0141 -1.10775 0)
(9.6833 -1.01881 0)
(9.99355 -1.08763 0)
(9.65448 -0.989228 0)
(9.95075 -1.06016 0)
(9.61111 -0.959641 0)
(9.90198 -1.03506 0)
(9.57548 -0.931388 0)
(9.85904 -1.00593 0)
(9.54729 -0.895666 0)
(9.82567 -0.967125 0)
(9.51958 -0.855622 0)
(9.79943 -0.926312 0)
(9.4941 -0.813999 0)
(9.77759 -0.887619 0)
(9.46936 -0.770265 0)
(9.75546 -0.848009 0)
(9.43727 -0.729032 0)
(9.72759 -0.810152 0)
(9.4022 -0.689499 0)
(9.69542 -0.764356 0)
(9.37181 -0.641881 0)
(9.66176 -0.712603 0)
(9.34576 -0.588226 0)
(9.62853 -0.655314 0)
(9.32 -0.536236 0)
(9.59401 -0.603775 0)
(9.28302 -0.487884 0)
(9.55635 -0.553442 0)
(9.2499 -0.440677 0)
(9.52493 -0.501272 0)
(9.22815 -0.392372 0)
(9.49699 -0.45161 0)
(9.2056 -0.342063 0)
(9.46385 -0.398934 0)
(9.17703 -0.288778 0)
(9.42873 -0.345312 0)
(9.1366 -0.233907 0)
(9.38509 -0.278786 0)
(9.09711 -0.17224 0)
(9.33963 -0.212544 0)
(9.0698 -0.10494 0)
(9.2867 -0.137787 0)
(9.03309 -0.0290922 0)
(9.22804 -0.059295 0)
(8.99528 0.0557532 0)
(9.17926 0.0245051 0)
(8.95052 0.149619 0)
(9.13824 0.117648 0)
(8.89801 0.249382 0)
(9.10935 0.206298 0)
(8.85076 0.357176 0)
(9.08742 0.289154 0)
(8.79569 0.45802 0)
(9.06998 0.378558 0)
(8.74573 0.556264 0)
(9.04574 0.461501 0)
(8.69939 0.653275 0)
(9.01445 0.53939 0)
(8.6499 0.760241 0)
(8.96172 0.624072 0)
(8.5868 0.880403 0)
(8.91731 0.71013 0)
(8.48414 0.99846 0)
(8.86968 0.81172 0)
(8.3619 1.1328 0)
(8.80314 0.906811 0)
(8.22678 1.27327 0)
(8.75496 1.00925 0)
(8.09224 1.42186 0)
(8.71923 1.11732 0)
(7.96593 1.58483 0)
(8.68909 1.25855 0)
(7.85842 1.76101 0)
(8.63753 1.42442 0)
(7.76417 1.945 0)
(8.55141 1.60271 0)
(7.66115 2.13039 0)
(8.44852 1.80691 0)
(7.52355 2.33494 0)
(8.32532 2.04273 0)
(7.37374 2.59746 0)
(8.15856 2.32507 0)
(7.22554 2.9416 0)
(7.92121 2.66888 0)
(7.05937 3.42523 0)
(7.65009 3.14844 0)
(6.7663 4.11762 0)
(7.63533 3.94802 0)
(6.09949 5.36419 0)
(8.54074 4.79389 0)
(6.54994 8.92465 0)
(8.0376 -0.08673 0)
(7.89306 -0.0658347 0)
(8.04712 -0.0794274 0)
(7.92155 -0.0916472 0)
(8.13374 -0.116597 0)
(8.02466 -0.118845 0)
(8.24238 -0.127056 0)
(8.10277 -0.114817 0)
(8.3035 -0.117247 0)
(8.13495 -0.106173 0)
(8.33552 -0.11511 0)
(8.1571 -0.110589 0)
(8.37134 -0.125728 0)
(8.19057 -0.124197 0)
(8.4203 -0.141129 0)
(8.23681 -0.138807 0)
(8.47929 -0.155092 0)
(8.29036 -0.150862 0)
(8.54197 -0.166565 0)
(8.34574 -0.161431 0)
(8.60465 -0.177943 0)
(8.40075 -0.17342 0)
(8.66622 -0.191634 0)
(8.45434 -0.187873 0)
(8.72631 -0.207639 0)
(8.50666 -0.20419 0)
(8.78546 -0.224741 0)
(8.55799 -0.220686 0)
(8.84367 -0.241452 0)
(8.60716 -0.236666 0)
(8.90022 -0.258131 0)
(8.65375 -0.253386 0)
(8.95524 -0.276301 0)
(8.69751 -0.271476 0)
(9.00781 -0.295015 0)
(8.73814 -0.288566 0)
(9.05764 -0.311706 0)
(8.77795 -0.302843 0)
(9.10615 -0.326428 0)
(8.81982 -0.316317 0)
(9.15536 -0.342361 0)
(8.86614 -0.332913 0)
(9.20713 -0.362802 0)
(8.91604 -0.35491 0)
(9.26064 -0.387641 0)
(8.96556 -0.380097 0)
(9.31311 -0.413691 0)
(9.01033 -0.404521 0)
(9.3623 -0.437266 0)
(9.04806 -0.42505 0)
(9.40745 -0.456472 0)
(9.07965 -0.440619 0)
(9.4493 -0.471181 0)
(9.10787 -0.452178 0)
(9.48884 -0.483467 0)
(9.13774 -0.462634 0)
(9.52927 -0.49665 0)
(9.17492 -0.475544 0)
(9.57375 -0.513639 0)
(9.221 -0.492628 0)
(9.62202 -0.534004 0)
(9.27275 -0.513641 0)
(9.6724 -0.558136 0)
(9.32589 -0.540152 0)
(9.72365 -0.588122 0)
(9.37707 -0.57235 0)
(9.77548 -0.624251 0)
(9.42846 -0.610045 0)
(9.83137 -0.665589 0)
(9.48083 -0.649691 0)
(9.88611 -0.704475 0)
(9.53129 -0.683218 0)
(9.94085 -0.735686 0)
(9.58161 -0.710994 0)
(9.99579 -0.764394 0)
(9.63304 -0.736198 0)
(10.0497 -0.791581 0)
(9.68661 -0.760689 0)
(10.1044 -0.820241 0)
(9.74547 -0.788472 0)
(10.1629 -0.849899 0)
(9.81005 -0.814615 0)
(10.2245 -0.877386 0)
(9.88063 -0.836997 0)
(10.2855 -0.901289 0)
(9.95412 -0.861243 0)
(10.3438 -0.928492 0)
(10.0205 -0.890295 0)
(10.3942 -0.962604 0)
(10.0755 -0.926051 0)
(10.4321 -0.996451 0)
(10.1158 -0.954743 0)
(10.453 -1.02443 0)
(10.1383 -0.978999 0)
(10.4582 -1.04762 0)
(10.147 -0.998387 0)
(10.4488 -1.06686 0)
(10.1469 -1.01628 0)
(10.4427 -1.09016 0)
(10.1508 -1.03943 0)
(10.4401 -1.11804 0)
(10.1523 -1.06034 0)
(10.4283 -1.13857 0)
(10.1387 -1.06543 0)
(10.4032 -1.13497 0)
(10.115 -1.05101 0)
(10.3673 -1.1194 0)
(10.0835 -1.02794 0)
(10.3222 -1.09814 0)
(10.0373 -0.997796 0)
(10.2582 -1.06818 0)
(9.97438 -0.959746 0)
(10.1818 -1.03651 0)
(9.91627 -0.93185 0)
(10.1126 -1.0142 0)
(9.86031 -0.904536 0)
(10.0392 -0.986983 0)
(9.79828 -0.870281 0)
(9.97337 -0.95396 0)
(9.74263 -0.831198 0)
(9.92108 -0.917156 0)
(9.69493 -0.789002 0)
(9.87494 -0.878157 0)
(9.64958 -0.745823 0)
(9.82927 -0.836281 0)
(9.60357 -0.702656 0)
(9.77735 -0.797247 0)
(9.55076 -0.662178 0)
(9.71559 -0.753308 0)
(9.49562 -0.612691 0)
(9.65506 -0.70054 0)
(9.43659 -0.55771 0)
(9.60686 -0.646632 0)
(9.38217 -0.505749 0)
(9.55948 -0.591452 0)
(9.3222 -0.455015 0)
(9.50916 -0.545355 0)
(9.27223 -0.414128 0)
(9.46311 -0.497903 0)
(9.22847 -0.367029 0)
(9.42023 -0.450832 0)
(9.18945 -0.312414 0)
(9.36798 -0.395253 0)
(9.14729 -0.255934 0)
(9.3223 -0.339133 0)
(9.10104 -0.195938 0)
(9.2808 -0.27183 0)
(9.05666 -0.131645 0)
(9.24282 -0.208785 0)
(9.02052 -0.0635038 0)
(9.19779 -0.137618 0)
(9.00115 0.0185884 0)
(9.15096 -0.0672033 0)
(8.96901 0.100201 0)
(9.11287 0.015894 0)
(8.9205 0.20107 0)
(9.07612 0.100956 0)
(8.87381 0.302292 0)
(9.04427 0.186831 0)
(8.82558 0.406587 0)
(9.02195 0.276444 0)
(8.78071 0.50485 0)
(9.00921 0.359274 0)
(8.75387 0.601921 0)
(8.99599 0.438371 0)
(8.72761 0.704774 0)
(8.97006 0.519082 0)
(8.69296 0.820134 0)
(8.94622 0.612219 0)
(8.62951 0.941913 0)
(8.9391 0.702582 0)
(8.53232 1.074 0)
(8.92509 0.806188 0)
(8.41588 1.22085 0)
(8.92226 0.909269 0)
(8.28088 1.35871 0)
(8.93146 1.00285 0)
(8.1603 1.50094 0)
(8.92981 1.10819 0)
(8.05147 1.65439 0)
(8.91333 1.23864 0)
(7.97309 1.83463 0)
(8.87642 1.39938 0)
(7.89977 2.0319 0)
(8.83054 1.58067 0)
(7.80958 2.24218 0)
(8.76751 1.77782 0)
(7.72592 2.48657 0)
(8.6582 1.99346 0)
(7.66368 2.76977 0)
(8.52501 2.26174 0)
(7.60069 3.13246 0)
(8.43052 2.61805 0)
(7.46597 3.60668 0)
(8.53408 3.11221 0)
(7.1472 4.34612 0)
(9.07037 3.62286 0)
(6.84743 5.89936 0)
(9.80191 3.69626 0)
(8.21526 8.20141 0)
(10.2909 -0.101822 0)
(10.122 -0.144722 0)
(10.2925 -0.181595 0)
(10.1389 -0.176234 0)
(10.3571 -0.178927 0)
(10.2147 -0.155524 0)
(10.4332 -0.152132 0)
(10.2602 -0.12945 0)
(10.4633 -0.132317 0)
(10.2655 -0.116715 0)
(10.4691 -0.128568 0)
(10.2633 -0.120558 0)
(10.4789 -0.139669 0)
(10.2716 -0.135385 0)
(10.5006 -0.156961 0)
(10.2911 -0.151977 0)
(10.5307 -0.172768 0)
(10.3161 -0.165367 0)
(10.5635 -0.185032 0)
(10.3423 -0.176039 0)
(10.5963 -0.195976 0)
(10.368 -0.186929 0)
(10.6281 -0.208424 0)
(10.3923 -0.200005 0)
(10.6581 -0.223219 0)
(10.4151 -0.215115 0)
(10.6861 -0.239426 0)
(10.4357 -0.230786 0)
(10.7116 -0.255581 0)
(10.4535 -0.246131 0)
(10.7337 -0.271465 0)
(10.4677 -0.261451 0)
(10.7522 -0.287753 0)
(10.4781 -0.277395 0)
(10.7669 -0.304593 0)
(10.4852 -0.293252 0)
(10.7787 -0.320889 0)
(10.4913 -0.308374 0)
(10.7903 -0.336975 0)
(10.4989 -0.323887 0)
(10.8043 -0.354426 0)
(10.5097 -0.342324 0)
(10.8213 -0.375804 0)
(10.5224 -0.364885 0)
(10.8393 -0.400858 0)
(10.5343 -0.38975 0)
(10.8557 -0.426481 0)
(10.5427 -0.41292 0)
(10.8682 -0.4489 0)
(10.5471 -0.431443 0)
(10.8768 -0.466175 0)
(10.5488 -0.44475 0)
(10.8822 -0.478743 0)
(10.55 -0.454693 0)
(10.8864 -0.489868 0)
(10.5543 -0.465272 0)
(10.8924 -0.503733 0)
(10.5633 -0.479532 0)
(10.901 -0.521358 0)
(10.5743 -0.49715 0)
(10.9095 -0.541964 0)
(10.5843 -0.518295 0)
(10.9163 -0.566325 0)
(10.5926 -0.544183 0)
(10.9211 -0.595437 0)
(10.5986 -0.576461 0)
(10.927 -0.633196 0)
(10.6055 -0.617517 0)
(10.9355 -0.675763 0)
(10.6107 -0.657451 0)
(10.9422 -0.714995 0)
(10.6113 -0.691787 0)
(10.9461 -0.746721 0)
(10.6131 -0.720656 0)
(10.9492 -0.77511 0)
(10.6138 -0.746676 0)
(10.951 -0.802076 0)
(10.6197 -0.773053 0)
(10.9587 -0.833264 0)
(10.637 -0.80287 0)
(10.9723 -0.863683 0)
(10.6615 -0.830803 0)
(10.9883 -0.890368 0)
(10.6872 -0.853055 0)
(11.0053 -0.91469 0)
(10.712 -0.875501 0)
(11.0192 -0.938748 0)
(10.7302 -0.903307 0)
(11.0281 -0.970169 0)
(10.7403 -0.933218 0)
(11.0224 -0.998098 0)
(10.7334 -0.954144 0)
(10.9992 -1.01905 0)
(10.7113 -0.971314 0)
(10.9624 -1.03678 0)
(10.6778 -0.984557 0)
(10.9139 -1.05533 0)
(10.642 -1.00612 0)
(10.87 -1.08301 0)
(10.6055 -1.02867 0)
(10.8215 -1.10675 0)
(10.5598 -1.04417 0)
(10.7603 -1.12212 0)
(10.5037 -1.04521 0)
(10.6937 -1.1172 0)
(10.4421 -1.03035 0)
(10.6219 -1.10026 0)
(10.3737 -1.00251 0)
(10.5391 -1.07178 0)
(10.2919 -0.964703 0)
(10.4371 -1.03237 0)
(10.1998 -0.925098 0)
(10.3401 -1.00671 0)
(10.1233 -0.902279 0)
(10.2461 -0.982973 0)
(10.037 -0.869533 0)
(10.1432 -0.95204 0)
(9.94086 -0.834066 0)
(10.0395 -0.92483 0)
(9.85402 -0.797201 0)
(9.95327 -0.894571 0)
(9.77913 -0.759102 0)
(9.8843 -0.856668 0)
(9.7095 -0.721231 0)
(9.82168 -0.816413 0)
(9.64378 -0.6807 0)
(9.75196 -0.773316 0)
(9.57139 -0.633117 0)
(9.67101 -0.724108 0)
(9.49275 -0.581801 0)
(9.5896 -0.672847 0)
(9.41357 -0.529955 0)
(9.51855 -0.623501 0)
(9.34054 -0.477446 0)
(9.45249 -0.569324 0)
(9.26682 -0.428114 0)
(9.39024 -0.526595 0)
(9.19584 -0.38884 0)
(9.3263 -0.483274 0)
(9.13037 -0.341676 0)
(9.26875 -0.436531 0)
(9.06414 -0.281784 0)
(9.21008 -0.379745 0)
(9.00532 -0.2252 0)
(9.16754 -0.330204 0)
(8.9551 -0.163364 0)
(9.13001 -0.267547 0)
(8.90832 -0.100327 0)
(9.10261 -0.20974 0)
(8.86979 -0.0339716 0)
(9.07743 -0.1502 0)
(8.84077 0.0472548 0)
(9.06847 -0.0728637 0)
(8.78973 0.134418 0)
(9.05323 0.0129266 0)
(8.74439 0.240933 0)
(9.0207 0.0982655 0)
(8.70248 0.350071 0)
(8.99042 0.187095 0)
(8.64821 0.441125 0)
(8.97476 0.262711 0)
(8.61572 0.537365 0)
(8.98107 0.332437 0)
(8.57488 0.630995 0)
(9.00903 0.413179 0)
(8.52569 0.738077 0)
(9.02142 0.497172 0)
(8.47082 0.858318 0)
(9.04533 0.590629 0)
(8.40942 0.991325 0)
(9.06707 0.680169 0)
(8.33459 1.13915 0)
(9.09033 0.776859 0)
(8.24365 1.28501 0)
(9.12278 0.869759 0)
(8.1686 1.41971 0)
(9.1284 0.966688 0)
(8.11691 1.56101 0)
(9.10615 1.07738 0)
(8.07931 1.71951 0)
(9.06936 1.20255 0)
(8.05251 1.91255 0)
(9.03997 1.35398 0)
(8.03144 2.12074 0)
(9.0197 1.5252 0)
(8.01703 2.34614 0)
(8.98348 1.70912 0)
(8.00865 2.59582 0)
(8.96527 1.93735 0)
(7.96259 2.89199 0)
(8.99934 2.20403 0)
(7.86781 3.27093 0)
(9.16437 2.52027 0)
(7.68712 3.80306 0)
(9.55221 2.81437 0)
(7.51267 4.71753 0)
(10.148 2.92663 0)
(7.82908 6.14033 0)
(10.4048 3.12658 0)
(9.21475 7.19797 0)
(11.7826 -0.0877742 0)
(11.648 -0.165304 0)
(11.8381 -0.223879 0)
(11.7274 -0.212475 0)
(11.9192 -0.208716 0)
(11.789 -0.168178 0)
(11.9646 -0.160631 0)
(11.8041 -0.129276 0)
(11.9665 -0.136374 0)
(11.7882 -0.117216 0)
(11.9512 -0.135619 0)
(11.7681 -0.124171 0)
(11.9405 -0.149073 0)
(11.7584 -0.140426 0)
(11.9422 -0.167156 0)
(11.7601 -0.157524 0)
(11.9526 -0.18339 0)
(11.7674 -0.171298 0)
(11.9661 -0.195947 0)
(11.7758 -0.182077 0)
(11.979 -0.206809 0)
(11.7824 -0.192567 0)
(11.9893 -0.218692 0)
(11.7858 -0.204818 0)
(11.9962 -0.232596 0)
(11.7859 -0.218873 0)
(11.9997 -0.247808 0)
(11.7831 -0.233451 0)
(12.0004 -0.263026 0)
(11.7784 -0.247564 0)
(11.9991 -0.277561 0)
(11.7724 -0.26103 0)
(11.9958 -0.291889 0)
(11.7654 -0.274626 0)
(11.9905 -0.306541 0)
(11.7575 -0.288675 0)
(11.9837 -0.321742 0)
(11.7491 -0.303616 0)
(11.9766 -0.338064 0)
(11.7406 -0.320274 0)
(11.9699 -0.356743 0)
(11.7319 -0.33998 0)
(11.9634 -0.378795 0)
(11.722 -0.36282 0)
(11.9559 -0.403497 0)
(11.7096 -0.386946 0)
(11.9455 -0.428096 0)
(11.6942 -0.409136 0)
(11.9313 -0.449343 0)
(11.6758 -0.426679 0)
(11.9127 -0.465511 0)
(11.6557 -0.43911 0)
(11.8913 -0.477671 0)
(11.6372 -0.449449 0)
(11.8708 -0.489678 0)
(11.6221 -0.4612 0)
(11.8517 -0.503528 0)
(11.6074 -0.475211 0)
(11.8318 -0.519368 0)
(11.5893 -0.491962 0)
(11.8105 -0.538709 0)
(11.5668 -0.512369 0)
(11.7874 -0.561502 0)
(11.5395 -0.536246 0)
(11.7629 -0.58944 0)
(11.5109 -0.568081 0)
(11.739 -0.626844 0)
(11.4801 -0.607445 0)
(11.7089 -0.667684 0)
(11.4431 -0.645405 0)
(11.6725 -0.704651 0)
(11.4012 -0.678452 0)
(11.6325 -0.737004 0)
(11.3614 -0.707585 0)
(11.5905 -0.765357 0)
(11.3225 -0.734829 0)
(11.55 -0.795398 0)
(11.2935 -0.766741 0)
(11.5221 -0.831114 0)
(11.2759 -0.799887 0)
(11.5008 -0.863151 0)
(11.2621 -0.828789 0)
(11.4801 -0.888408 0)
(11.2476 -0.852187 0)
(11.4614 -0.912391 0)
(11.2281 -0.873652 0)
(11.4418 -0.936516 0)
(11.2064 -0.900229 0)
(11.4166 -0.964746 0)
(11.1769 -0.921697 0)
(11.3755 -0.984027 0)
(11.1292 -0.935816 0)
(11.3227 -1.00133 0)
(11.0719 -0.948219 0)
(11.2591 -1.01638 0)
(11.0106 -0.959698 0)
(11.1906 -1.03747 0)
(10.9505 -0.980818 0)
(11.1145 -1.06295 0)
(10.8822 -1.00067 0)
(11.0322 -1.08174 0)
(10.8072 -1.01126 0)
(10.9444 -1.09254 0)
(10.7261 -1.01008 0)
(10.8501 -1.08425 0)
(10.6348 -0.993196 0)
(10.7445 -1.06359 0)
(10.5338 -0.960823 0)
(10.6238 -1.02982 0)
(10.4196 -0.916093 0)
(10.4904 -0.987398 0)
(10.3136 -0.883484 0)
(10.3732 -0.968893 0)
(10.2069 -0.857021 0)
(10.2465 -0.938208 0)
(10.0892 -0.816354 0)
(10.1139 -0.903509 0)
(9.96431 -0.778534 0)
(9.98588 -0.88013 0)
(9.84749 -0.748838 0)
(9.87457 -0.85773 0)
(9.74074 -0.718696 0)
(9.78484 -0.825098 0)
(9.64477 -0.684252 0)
(9.70169 -0.787167 0)
(9.55494 -0.641464 0)
(9.61033 -0.742437 0)
(9.46334 -0.590004 0)
(9.51567 -0.691488 0)
(9.36648 -0.536912 0)
(9.42157 -0.641845 0)
(9.27386 -0.490155 0)
(9.32898 -0.593373 0)
(9.18768 -0.437799 0)
(9.244 -0.544001 0)
(9.10734 -0.389124 0)
(9.16811 -0.499216 0)
(9.01709 -0.346317 0)
(9.08881 -0.459685 0)
(8.92727 -0.298356 0)
(9.01772 -0.41278 0)
(8.83836 -0.241949 0)
(8.96045 -0.365186 0)
(8.7752 -0.193356 0)
(8.91197 -0.322121 0)
(8.71957 -0.125097 0)
(8.87039 -0.269435 0)