/*--------------------------------*- C++ -*----------------------------------*\
| =========                 |                                                 |
| \\      /  F ield         | OpenFOAM: The Open Source CFD Toolbox           |
|  \\    /   O peration     | Version:  2.4.0                                 |
|   \\  /    A nd           | Web:      www.OpenFOAM.org                      |
|    \\/     M anipulation  |                                                 |
\*---------------------------------------------------------------------------*/
FoamFile
{
    version     2.0;
    format      ascii;
    class       surfaceScalarField;
    location    "1.7";
    object      phi_0;
}
// * * * * * * * * * * * * * * * * * * * * * * * * * * * * * * * * * * * * * //

dimensions      [0 3 -1 0 0 0 0];

internalField   nonuniform List<scalar> 
17320
(
1.76401e-05
7.35988e-06
1.16154e-05
6.0247e-06
8.68133e-06
2.93409e-06
7.35869e-06
1.32264e-06
6.71509e-06
6.43605e-07
6.34575e-06
3.69343e-07
6.07709e-06
2.68653e-07
5.86661e-06
2.10479e-07
5.70918e-06
1.57434e-07
5.58108e-06
1.28101e-07
5.47162e-06
1.09458e-07
5.39324e-06
7.83777e-08
5.28958e-06
1.03662e-07
5.222e-06
6.75858e-08
5.12167e-06
1.00325e-07
5.04945e-06
7.2216e-08
4.94019e-06
1.09264e-07
4.95393e-06
-1.3743e-08
4.69797e-06
2.55966e-07
-3.92139e-07
5.09011e-06
2.54656e-05
6.89426e-06
2.32424e-05
8.2479e-06
2.09922e-05
5.1843e-06
1.93203e-05
2.99452e-06
1.80739e-05
1.88999e-06
1.71165e-05
1.32679e-06
1.63639e-05
1.02126e-06
1.57717e-05
8.02648e-07
1.531e-05
6.19143e-07
1.49316e-05
5.06498e-07
1.46269e-05
4.14144e-07
1.43767e-05
3.28636e-07
1.41267e-05
3.53577e-07
1.39359e-05
2.58402e-07
1.36995e-05
3.3675e-07
1.353e-05
2.41734e-07
1.32845e-05
3.54732e-07
1.32155e-05
5.53009e-08
1.29942e-05
4.77198e-07
-4.36968e-07
1.30391e-05
2.66262e-05
5.26804e-06
2.71448e-05
7.72932e-06
2.67867e-05
5.54239e-06
2.62492e-05
3.53201e-06
2.56053e-05
2.53388e-06
2.48785e-05
2.05363e-06
2.41577e-05
1.74208e-06
2.35036e-05
1.45668e-06
2.29363e-05
1.18648e-06
2.24414e-05
1.00142e-06
2.20323e-05
8.23223e-07
2.1675e-05
6.8594e-07
2.13372e-05
6.91328e-07
2.10721e-05
5.23585e-07
2.07579e-05
6.50945e-07
2.05227e-05
4.76902e-07
2.02247e-05
6.52732e-07
2.00517e-05
2.28324e-07
1.99658e-05
5.63028e-07
-7.23521e-07
2.02524e-05
2.63305e-05
3.93756e-06
2.75229e-05
6.53689e-06
2.80938e-05
4.97153e-06
2.84521e-05
3.17364e-06
2.86481e-05
2.33788e-06
2.86328e-05
2.06897e-06
2.84706e-05
1.90424e-06
2.82397e-05
1.68765e-06
2.79726e-05
1.45356e-06
2.76852e-05
1.28877e-06
2.74371e-05
1.07139e-06
2.71657e-05
9.57307e-07
2.68975e-05
9.59532e-07
2.66788e-05
7.42266e-07
2.64007e-05
9.29086e-07
2.6146e-05
7.31567e-07
2.59369e-05
8.61853e-07
2.55866e-05
5.78635e-07
2.54094e-05
7.4025e-07
-3.41635e-07
2.50275e-05
2.60521e-05
2.88548e-06
2.72157e-05
5.37324e-06
2.80345e-05
4.15278e-06
2.85049e-05
2.70321e-06
2.89858e-05
1.85699e-06
2.93412e-05
1.7136e-06
2.95758e-05
1.66964e-06
2.97393e-05
1.52417e-06
2.98592e-05
1.33361e-06
2.98906e-05
1.25742e-06
2.99713e-05
9.90614e-07
2.99693e-05
9.59339e-07
2.99377e-05
9.91177e-07
2.9923e-05
7.56892e-07
2.98879e-05
9.64222e-07
2.97203e-05
8.99171e-07
2.97296e-05
8.52554e-07
2.93804e-05
9.27813e-07
2.92068e-05
9.1381e-07
1.9893e-07
2.86663e-05
2.58423e-05
2.04315e-06
2.69431e-05
4.27252e-06
2.78006e-05
3.29519e-06
2.82198e-05
2.28401e-06
2.87216e-05
1.3552e-06
2.91152e-05
1.32005e-06
2.94549e-05
1.32995e-06
2.97112e-05
1.26782e-06
3.00324e-05
1.0124e-06
3.01212e-05
1.16863e-06
3.04162e-05
6.9565e-07
3.0534e-05
8.4148e-07
3.0733e-05
7.92192e-07
3.07936e-05
6.96267e-07
3.10406e-05
7.17287e-07
3.09473e-05
9.92414e-07
3.12286e-05
5.7125e-07
3.09208e-05
1.23562e-06
3.09373e-05
8.97309e-07
9.71626e-07
3.01646e-05
2.56823e-05
1.36084e-06
2.67808e-05
3.17403e-06
2.75924e-05
2.48357e-06
2.79601e-05
1.91629e-06
2.85102e-05
8.05156e-07
2.88475e-05
9.82741e-07
2.91986e-05
9.78827e-07
2.94651e-05
1.00132e-06
2.98391e-05
6.38401e-07
2.99477e-05
1.06003e-06
3.02973e-05
3.46052e-07
3.03303e-05
8.08501e-07
3.06577e-05
4.64748e-07
3.073e-05
6.23996e-07
3.10373e-05
4.1e-07
3.10111e-05
1.01862e-06
3.14066e-05
1.75762e-07
3.10758e-05
1.56639e-06
3.0955e-05
1.01815e-06
1.76454e-06
3.01621e-05
2.55464e-05
8.14469e-07
2.65921e-05
2.12827e-06
2.742e-05
1.65574e-06
2.79908e-05
1.3454e-06
2.83876e-05
4.08396e-07
2.86756e-05
6.94781e-07
2.89923e-05
6.62066e-07
2.9316e-05
6.77647e-07
2.96281e-05
3.26282e-07
2.98511e-05
8.37082e-07
3e-05
1.97122e-07
3.02439e-05
5.64569e-07
3.04604e-05
2.4826e-07
3.06244e-05
4.59959e-07
3.07503e-05
2.84145e-07
3.10325e-05
7.36441e-07
3.10619e-05
1.46352e-07
3.14785e-05
1.14975e-06
3.18262e-05
6.7044e-07
9.25218e-07
3.26656e-05
2.54799e-05
3.3457e-07
2.64595e-05
1.14863e-06
2.72988e-05
8.16483e-07
2.79301e-05
7.14089e-07
2.82306e-05
1.07877e-07
2.85889e-05
3.36483e-07
2.89211e-05
3.29885e-07
2.92109e-05
3.87874e-07
2.94454e-05
9.17729e-08
2.97331e-05
5.49345e-07
2.99458e-05
-1.55339e-08
3.02393e-05
2.71088e-07
3.02417e-05
2.45784e-07
3.04628e-05
2.38896e-07
3.06712e-05
7.57814e-08
3.09621e-05
4.45486e-07
3.10454e-05
6.31231e-08
3.15015e-05
6.93588e-07
3.15281e-05
6.43866e-07
4.05821e-07
3.20475e-05
2.54023e-05
-6.76828e-08
2.64183e-05
1.32535e-07
2.7302e-05
-6.72106e-08
2.79248e-05
9.13173e-08
2.8211e-05
-1.7828e-07
2.85377e-05
9.79712e-09
2.88413e-05
2.62366e-08
2.9141e-05
8.82017e-08
2.9319e-05
-8.62223e-08
2.97084e-05
1.59894e-07
2.99498e-05
-2.56913e-07
3.00769e-05
1.43948e-07
3.0211e-05
1.11725e-07
3.05046e-05
-5.46638e-08
3.06719e-05
-9.15903e-08
3.08125e-05
3.04908e-07
3.10227e-05
-1.47072e-07
3.1471e-05
2.45295e-07
3.165e-05
4.64895e-07
2.98477e-07
3.17573e-05
2.53997e-05
-4.67387e-07
2.64209e-05
-8.88705e-07
2.73088e-05
-9.55113e-07
2.7935e-05
-5.34879e-07
2.81572e-05
-4.00479e-07
2.84692e-05
-3.0218e-07
2.88307e-05
-3.35275e-07
2.92069e-05
-2.88015e-07
2.93778e-05
-2.57125e-07
2.97243e-05
-1.8659e-07
2.98266e-05
-3.59229e-07
3.01131e-05
-1.42485e-07
3.03106e-05
-8.57934e-08
3.0479e-05
-2.23083e-07
3.05582e-05
-1.70774e-07
3.08557e-05
7.40341e-09
3.10162e-05
-3.07545e-07
3.15079e-05
-2.46465e-07
3.1743e-05
2.29878e-07
5.22321e-07
3.15191e-05
2.54389e-05
-9.06316e-07
2.64973e-05
-1.9471e-06
2.73597e-05
-1.81746e-06
2.79347e-05
-1.10991e-06
2.82217e-05
-6.87494e-07
2.85728e-05
-6.53314e-07
2.88342e-05
-5.96604e-07
2.92117e-05
-6.6554e-07
2.95214e-05
-5.66848e-07
2.97653e-05
-4.30447e-07
2.98891e-05
-4.83014e-07
3.01714e-05
-4.24798e-07
3.03123e-05
-2.2667e-07
3.04758e-05
-3.86583e-07
3.07286e-05
-4.23607e-07
3.09777e-05
-2.41718e-07
3.10649e-05
-3.94703e-07
3.14573e-05
-6.38912e-07
3.1764e-05
-7.68242e-08
5.80889e-07
3.17055e-05
2.55446e-05
-1.45096e-06
2.66134e-05
-3.01584e-06
2.74105e-05
-2.61458e-06
2.80034e-05
-1.70276e-06
2.83534e-05
-1.03756e-06
2.86899e-05
-9.89778e-07
2.89496e-05
-8.563e-07
2.93339e-05
-1.04989e-06
2.95791e-05
-8.12018e-07
2.98761e-05
-7.27428e-07
3.00433e-05
-6.50275e-07
3.02201e-05
-6.01553e-07
3.03954e-05
-4.02004e-07
3.06713e-05
-6.62484e-07
3.07937e-05
-5.45941e-07
3.10388e-05
-4.86834e-07
3.12319e-05
-5.87866e-07
3.14818e-05
-8.8877e-07
3.17841e-05
-3.79108e-07
7.4854e-08
3.22901e-05
2.56638e-05
-2.11472e-06
2.675e-05
-4.10206e-06
2.76031e-05
-3.4677e-06
2.80732e-05
-2.1729e-06
2.84661e-05
-1.43045e-06
2.88412e-05
-1.36489e-06
2.91853e-05
-1.20036e-06
2.95091e-05
-1.37369e-06
2.97401e-05
-1.04301e-06
2.99972e-05
-9.84569e-07
3.01886e-05
-8.41586e-07
3.04263e-05
-8.39261e-07
3.06164e-05
-5.92116e-07
3.08058e-05
-8.51881e-07
3.09091e-05
-6.49313e-07
3.12096e-05
-7.87316e-07
3.13978e-05
-7.76031e-07
3.15912e-05
-1.08216e-06
3.1877e-05
-6.6492e-07
-5.60791e-07
3.25126e-05
2.58411e-05
-2.95583e-06
2.69697e-05
-5.23062e-06
2.77974e-05
-4.29543e-06
2.82324e-05
-2.60787e-06
2.87129e-05
-1.91096e-06
2.91007e-05
-1.75275e-06
2.94415e-05
-1.54109e-06
2.9718e-05
-1.65025e-06
2.99766e-05
-1.3016e-06
3.01744e-05
-1.18238e-06
3.03741e-05
-1.04125e-06
3.05461e-05
-1.0113e-06
3.07214e-05
-7.67356e-07
3.08483e-05
-9.78818e-07
3.09572e-05
-7.58232e-07
3.11424e-05
-9.72509e-07
3.12238e-05
-8.57361e-07
3.13679e-05
-1.22628e-06
3.16051e-05
-9.0213e-07
-1.01679e-06
3.20611e-05
2.60417e-05
-3.99757e-06
2.72448e-05
-6.43368e-06
2.80153e-05
-5.06591e-06
2.85091e-05
-3.10165e-06
2.89826e-05
-2.38448e-06
2.93187e-05
-2.08885e-06
2.95932e-05
-1.81557e-06
2.97187e-05
-1.77583e-06
2.98456e-05
-1.42849e-06
2.98989e-05
-1.23563e-06
2.9955e-05
-1.09739e-06
2.99553e-05
-1.01157e-06
2.99761e-05
-7.88224e-07
2.99104e-05
-9.13126e-07
2.98836e-05
-7.31376e-07
2.98175e-05
-9.0638e-07
2.97232e-05
-7.63076e-07
2.96585e-05
-1.16158e-06
2.96593e-05
-9.02939e-07
-1.17185e-06
2.98143e-05
2.63106e-05
-5.30821e-06
2.75432e-05
-7.66622e-06
2.80673e-05
-5.59001e-06
2.84654e-05
-3.4998e-06
2.86344e-05
-2.5534e-06
2.86161e-05
-2.07059e-06
2.84844e-05
-1.68391e-06
2.82139e-05
-1.50532e-06
2.79672e-05
-1.1818e-06
2.76953e-05
-9.63647e-07
2.74264e-05
-8.28544e-07
2.71583e-05
-7.43427e-07
2.69326e-05
-5.62499e-07
2.6656e-05
-6.36613e-07
2.64431e-05
-5.18385e-07
2.6173e-05
-6.36313e-07
2.59412e-05
-5.31242e-07
2.56331e-05
-8.53547e-07
2.5455e-05
-7.24868e-07
-1.09272e-06
2.53759e-05
2.66074e-05
-6.91561e-06
2.71599e-05
-8.21875e-06
2.67717e-05
-5.20179e-06
2.62563e-05
-2.9844e-06
2.55927e-05
-1.88979e-06
2.48691e-05
-1.347e-06
2.41678e-05
-9.82574e-07
2.34906e-05
-8.28193e-07
2.29321e-05
-6.23286e-07
2.24516e-05
-4.83078e-07
2.20311e-05
-4.08139e-07
2.16658e-05
-3.78077e-07
2.13694e-05
-2.66137e-07
2.10583e-05
-3.25427e-07
2.08069e-05
-2.66986e-07
2.05097e-05
-3.39148e-07
2.02643e-05
-2.85828e-07
1.98763e-05
-4.65594e-07
1.9558e-05
-4.06574e-07
-3.06335e-07
1.87716e-05
2.54515e-05
-7.36711e-06
2.32483e-05
-6.01555e-06
2.09832e-05
-2.9367e-06
1.93219e-05
-1.32307e-06
1.80708e-05
-6.38731e-07
1.71073e-05
-3.83461e-07
1.63739e-05
-2.49208e-07
1.57658e-05
-2.20122e-07
1.53052e-05
-1.62609e-07
1.49399e-05
-1.17856e-07
1.46332e-05
-1.01449e-07
1.4363e-05
-1.0782e-07
1.41579e-05
-6.1039e-08
1.39289e-05
-9.64278e-08
1.37391e-05
-7.7175e-08
1.35085e-05
-1.08553e-07
1.3309e-05
-8.63078e-08
1.30011e-05
-1.57752e-07
1.27816e-05
-1.87043e-07
7.64471e-09
1.24676e-05
1.76329e-05
1.16173e-05
8.68064e-06
7.35758e-06
6.71885e-06
6.33539e-06
6.08618e-06
5.86606e-06
5.70345e-06
5.58559e-06
5.48414e-06
5.37632e-06
5.31528e-06
5.21886e-06
5.14168e-06
5.03313e-06
4.94682e-06
4.78907e-06
4.60202e-06
4.60967e-06
5.56462e-06
-1.5712e-07
-3.17392e-07
5.96483e-06
4.00974e-08
-4.40304e-07
6.21112e-06
1.28693e-07
-3.74986e-07
6.40471e-06
1.1096e-07
-3.0455e-07
6.59421e-06
4.77672e-08
-2.37271e-07
6.76406e-06
4.50843e-09
-1.7436e-07
6.93012e-06
-3.22371e-08
-1.33814e-07
7.0797e-06
-3.90734e-08
-1.10515e-07
7.21002e-06
-3.172e-08
-9.85934e-08
7.31853e-06
-1.23381e-08
-9.6177e-08
7.40058e-06
1.45711e-08
-9.66223e-08
7.47642e-06
1.63855e-08
-9.22204e-08
7.53364e-06
1.92751e-08
-7.64921e-08
7.58105e-06
5.37302e-09
-5.27863e-08
7.61524e-06
1.1441e-08
-4.56363e-08
7.62527e-06
2.84162e-08
-3.84429e-08
7.63254e-06
7.7353e-08
-8.46167e-08
7.61577e-06
1.7017e-07
-1.53404e-07
7.61885e-06
2.75738e-07
-2.78822e-07
7.63317e-06
4.53226e-07
-4.67545e-07
7.73316e-06
6.76445e-07
-7.76434e-07
8.0099e-06
9.03025e-07
-1.17976e-06
8.49158e-06
1.22164e-06
-1.70332e-06
9.18891e-06
1.46344e-06
-2.16078e-06
1.01481e-05
1.66226e-06
-2.6214e-06
1.12321e-05
1.78254e-06
-2.86659e-06
1.23497e-05
1.74272e-06
-2.86029e-06
1.33263e-05
1.51236e-06
-2.48896e-06
1.39973e-05
9.72588e-07
-1.64362e-06
1.44141e-05
1.81174e-07
-5.97973e-07
1.4375e-05
-5.38302e-07
5.77427e-07
1.4008e-05
-1.31821e-06
1.68524e-06
1.34457e-05
-1.89624e-06
2.45849e-06
1.27156e-05
-2.24021e-06
2.97034e-06
1.20063e-05
-2.43261e-06
3.14189e-06
1.13911e-05
-2.25714e-06
2.87231e-06
1.10293e-05
-2.12729e-06
2.48911e-06
1.09013e-05
-1.82675e-06
1.95474e-06
1.08355e-05
-1.39762e-06
1.46346e-06
1.09928e-05
-1.17336e-06
1.01605e-06
1.12255e-05
-6.98856e-07
4.66181e-07
1.16099e-05
-3.74917e-07
-9.51567e-09
1.21549e-05
-1.77164e-07
-3.67843e-07
1.26597e-05
2.88717e-07
-7.9347e-07
1.33416e-05
3.00268e-07
-9.82204e-07
1.40015e-05
4.97266e-07
-1.1572e-06
1.45221e-05
6.45044e-07
-1.16559e-06
1.52212e-05
3.52505e-07
-1.05167e-06
1.57965e-05
6.70064e-07
-1.24529e-06
1.63398e-05
5.22315e-07
-1.06567e-06
1.70689e-05
3.02058e-07
-1.03111e-06
1.76529e-05
5.93376e-07
-1.17741e-06
1.82434e-05
1.45831e-07
-7.36345e-07
1.89902e-05
3.62256e-08
-7.83019e-07
1.9711e-05
-1.0411e-08
-7.10356e-07
2.03437e-05
-5.58647e-07
-7.40371e-08
2.10661e-05
-5.74394e-07
-1.48006e-07
2.19371e-05
-1.08123e-06
2.10232e-07
2.26396e-05
-1.49329e-06
7.90764e-07
2.3419e-05
-1.66258e-06
8.83201e-07
2.43535e-05
-2.51833e-06
1.58384e-06
2.50655e-05
-2.75777e-06
2.04568e-06
2.58596e-05
-3.19711e-06
2.40311e-06
2.68015e-05
-4.16267e-06
3.2207e-06
2.75058e-05
-4.2573e-06
3.55304e-06
2.81236e-05
-4.8367e-06
4.21888e-06
2.88786e-05
-5.81749e-06
5.06253e-06
2.93964e-05
-5.68907e-06
5.17129e-06
2.97901e-05
-6.27456e-06
5.88085e-06
3.02763e-05
-7.11538e-06
6.62918e-06
3.05412e-05
-6.6586e-06
6.39369e-06
3.06868e-05
-7.25174e-06
7.10611e-06
3.09513e-05
-7.96685e-06
7.70233e-06
3.10345e-05
-7.25235e-06
7.16915e-06
3.11075e-05
-8.05932e-06
7.98637e-06
3.10715e-05
-8.60429e-06
8.64026e-06
3.10908e-05
-7.87526e-06
7.85601e-06
3.09863e-05
-8.89656e-06
9.00106e-06
3.05817e-05
-9.26407e-06
9.66868e-06
3.04091e-05
-8.84602e-06
9.01863e-06
3.01063e-05
-1.00139e-05
1.03166e-05
2.92097e-05
-1.01264e-05
1.1023e-05
2.87067e-05
-9.93719e-06
1.04401e-05
2.80803e-05
-1.09834e-05
1.16098e-05
2.67384e-05
-1.07257e-05
1.20676e-05
2.60568e-05
-1.04556e-05
1.11373e-05
2.53806e-05
-1.13208e-05
1.19969e-05
2.41894e-05
-1.07678e-05
1.1959e-05
2.35619e-05
-1.00284e-05
1.06559e-05
2.35674e-05
-1.11731e-05
1.11676e-05
2.3036e-05
-1.10193e-05
1.15507e-05
2.24478e-05
-1.00888e-05
1.0677e-05
2.27118e-05
-1.0841e-05
1.05769e-05
2.27696e-05
-1.1556e-05
1.14982e-05
2.19402e-05
-1.11602e-05
1.19896e-05
2.1598e-05
-1.07726e-05
1.11148e-05
2.22157e-05
-1.17488e-05
1.11311e-05
2.24167e-05
-1.27482e-05
1.25473e-05
2.22084e-05
-1.25479e-05
1.27561e-05
2.2199e-05
-1.17946e-05
1.1804e-05
2.26526e-05
-1.19173e-05
1.14637e-05
2.36276e-05
-1.18055e-05
1.08305e-05
2.51705e-05
-1.15107e-05
9.96779e-06
2.68278e-05
-1.16601e-05
1.00028e-05
2.84217e-05
-1.0686e-05
9.0921e-06
2.96953e-05
-8.41956e-06
7.14595e-06
3.05162e-05
-6.84636e-06
6.02546e-06
3.127e-05
-5.20397e-06
4.45022e-06
3.17924e-05
-2.20015e-06
1.6777e-06
3.17464e-05
2.3615e-08
2.23589e-08
3.16452e-05
2.25435e-06
-2.15313e-06
3.13975e-05
5.39164e-06
-5.14394e-06
3.06732e-05
7.62062e-06
-6.89633e-06
2.98033e-05
9.38057e-06
-8.51065e-06
2.89198e-05
1.23961e-05
-1.15126e-05
2.75318e-05
1.46005e-05
-1.32125e-05
2.59038e-05
1.54708e-05
-1.38428e-05
2.43866e-05
1.71925e-05
-1.56753e-05
2.28098e-05
1.90749e-05
-1.74981e-05
2.12993e-05
1.93546e-05
-1.78442e-05
2.01473e-05
1.93039e-05
-1.81519e-05
1.96122e-05
2.02228e-05
-1.96877e-05
1.93526e-05
2.23835e-05
-2.21239e-05
1.90897e-05
2.45482e-05
-2.42853e-05
1.87298e-05
2.52284e-05
-2.48685e-05
1.8341e-05
2.49479e-05
-2.4559e-05
1.79618e-05
2.41625e-05
-2.37833e-05
1.7464e-05
2.29016e-05
-2.24037e-05
1.72097e-05
2.08371e-05
-2.05828e-05
1.70945e-05
1.84763e-05
-1.83611e-05
1.71012e-05
1.45403e-05
-1.4547e-05
1.73964e-05
1.1799e-05
-1.20942e-05
1.7264e-05
8.17878e-06
-8.04643e-06
1.72714e-05
5.57165e-06
-5.57906e-06
1.70861e-05
3.17024e-06
-2.98486e-06
1.69377e-05
-3.66958e-07
5.15305e-07
1.68524e-05
-3.05242e-06
3.1377e-06
1.69232e-05
-7.10491e-06
7.03419e-06
1.72133e-05
-9.43466e-06
9.1445e-06
1.72722e-05
-1.07014e-05
1.06425e-05
1.73023e-05
-1.33897e-05
1.33595e-05
1.73276e-05
-1.59572e-05
1.59319e-05
1.70562e-05
-1.71357e-05
1.74072e-05
1.73348e-05
-1.71548e-05
1.68762e-05
1.70246e-05
-1.83418e-05
1.86521e-05
1.65407e-05
-1.70907e-05
1.75745e-05
1.68164e-05
-1.5474e-05
1.51983e-05
1.63766e-05
-1.44198e-05
1.48596e-05
1.64949e-05
-1.38295e-05
1.37112e-05
1.61498e-05
-1.24846e-05
1.28297e-05
1.65976e-05
-1.2064e-05
1.16162e-05
1.6844e-05
-1.08934e-05
1.0647e-05
1.66698e-05
-1.01136e-05
1.02878e-05
1.60985e-05
-9.39571e-06
9.96708e-06
1.65137e-05
-9.26701e-06
8.85183e-06
1.68046e-05
-8.84916e-06
8.55823e-06
1.67529e-05
-8.13128e-06
8.18296e-06
1.60376e-05
-6.49292e-06
7.2082e-06
1.5976e-05
-6.4794e-06
6.54102e-06
1.63206e-05
-6.24457e-06
5.89993e-06
1.72121e-05
-7.40719e-06
6.51576e-06
1.74569e-05
-6.85192e-06
6.60712e-06
1.80823e-05
-7.48531e-06
6.8599e-06
1.85079e-05
-7.22165e-06
6.796e-06
1.95314e-05
-7.97402e-06
6.95059e-06
2.05287e-05
-8.1347e-06
7.13732e-06
2.16842e-05
-8.42999e-06
7.27455e-06
2.28995e-05
-7.83369e-06
6.61833e-06
2.41231e-05
-6.69101e-06
5.4674e-06
2.5297e-05
-6.08801e-06
4.9142e-06
2.65398e-05
-4.92792e-06
3.68504e-06
2.75174e-05
-3.08981e-06
2.11228e-06
2.85238e-05
-2.29394e-06
1.28748e-06
2.92918e-05
-8.91213e-07
1.2322e-07
2.98876e-05
7.26302e-07
-1.32208e-06
3.03355e-05
2.02388e-06
-2.47176e-06
3.03983e-05
3.85392e-06
-3.91677e-06
3.03816e-05
6.56543e-06
-6.5487e-06
2.97889e-05
9.0007e-06
-8.40803e-06
2.88128e-05
9.80499e-06
-8.82885e-06
2.77572e-05
9.77519e-06
-8.71964e-06
2.67659e-05
9.59714e-06
-8.60583e-06
2.56845e-05
1.02604e-05
-9.17896e-06
2.41476e-05
1.06965e-05
-9.15964e-06
2.22114e-05
9.53339e-06
-7.59724e-06
2.12509e-05
8.65431e-06
-7.69375e-06
2.06805e-05
1.05243e-05
-9.95388e-06
2.00491e-05
1.30526e-05
-1.24213e-05
1.91274e-05
1.51344e-05
-1.42127e-05
1.85191e-05
1.65371e-05
-1.59288e-05
1.78013e-05
1.89097e-05
-1.81919e-05
1.59534e-05
2.03327e-05
-1.84849e-05
1.48572e-05
1.93654e-05
-1.82691e-05
1.44894e-05
2.01824e-05
-1.98146e-05
1.45186e-05
2.33017e-05
-2.33309e-05
1.46873e-05
2.62701e-05
-2.64388e-05
1.38468e-05
2.86493e-05
-2.78088e-05
1.19175e-05
3.00765e-05
-2.81473e-05
1.12529e-05
2.99679e-05
-2.93032e-05
3.44837e-05
-3.47947e-05
1.15639e-05
1.304e-05
-1.58103e-07
1.30567e-05
2.34155e-08
1.30938e-05
9.16417e-08
1.30974e-05
1.07308e-07
1.31346e-05
1.06237e-08
1.31917e-05
-5.25693e-08
1.32629e-05
-1.03447e-07
1.33425e-05
-1.18729e-07
1.34035e-05
-9.26855e-08
1.34429e-05
-5.1794e-08
1.34609e-05
-3.36239e-09
1.34614e-05
1.58136e-08
1.34534e-05
2.73057e-08
1.34355e-05
2.3287e-08
1.34193e-05
2.76138e-08
1.33855e-05
6.22179e-08
1.33499e-05
1.12962e-07
1.33142e-05
2.0586e-07
1.3251e-05
3.3895e-07
1.32246e-05
4.79648e-07
1.32225e-05
6.78545e-07
1.32624e-05
8.63112e-07
1.34311e-05
1.05297e-06
1.36838e-05
1.2107e-06
1.40587e-05
1.28737e-06
1.45294e-05
1.31183e-06
1.5109e-05
1.16313e-06
1.57083e-05
9.13099e-07
1.61681e-05
5.12789e-07
1.64596e-05
-1.10317e-07
1.65272e-05
-6.05964e-07
1.64293e-05
-1.22031e-06
1.62361e-05
-1.70304e-06
1.59607e-05
-1.96479e-06
1.57576e-05
-2.22949e-06
1.56059e-05
-2.10549e-06
1.55422e-05
-2.06356e-06
1.56105e-05
-1.89504e-06
1.57011e-05
-1.4882e-06
1.59615e-05
-1.43385e-06
1.62439e-05
-9.81243e-07
1.65735e-05
-7.04486e-07
1.70561e-05
-6.59766e-07
1.74775e-05
-1.32717e-07
1.79893e-05
-2.11512e-07
1.8545e-05
-5.84153e-08
1.90281e-05
1.61959e-07
1.95677e-05
-1.87079e-07
2.0113e-05
1.24776e-07
2.07287e-05
-9.34391e-08
2.12843e-05
-2.53531e-07
2.19312e-05
-5.34764e-08
2.27009e-05
-6.23956e-07
2.32292e-05
-4.92002e-07
2.39941e-05
-7.75394e-07
2.48055e-05
-1.37e-06
2.53801e-05
-1.14897e-06
2.62349e-05
-1.93606e-06
2.70822e-05
-2.34058e-06
2.76742e-05
-2.25458e-06
2.85331e-05
-3.37718e-06
2.93601e-05
-3.58479e-06
2.98807e-05
-3.7177e-06
3.06555e-05
-4.93753e-06
3.12616e-05
-4.86332e-06
3.15697e-05
-5.14481e-06
3.21298e-05
-6.37766e-06
3.23836e-05
-5.94285e-06
3.24934e-05
-6.3843e-06
3.26434e-05
-7.26541e-06
3.25851e-05
-6.60034e-06
3.25241e-05
-7.19074e-06
3.23071e-05
-7.74982e-06
3.21918e-05
-7.13706e-06
3.20308e-05
-7.8983e-06
3.15654e-05
-8.13895e-06
3.14576e-05
-7.76738e-06
3.1076e-05
-8.51498e-06
3.03482e-05
-8.53627e-06
3.00061e-05
-8.50399e-06
2.93553e-05
-9.363e-06
2.83138e-05
-9.08496e-06
2.78026e-05
-9.42593e-06
2.70636e-05
-1.02444e-05
2.59696e-05
-9.63168e-06
2.55417e-05
-1.00277e-05
2.50285e-05
-1.08076e-05
2.4134e-05
-9.8733e-06
2.40329e-05
-9.92733e-06
2.39773e-05
-1.11174e-05
2.3128e-05
-1.017e-05
2.27129e-05
-9.67369e-06
2.27379e-05
-1.08659e-05
2.20755e-05
-1.08937e-05
2.11067e-05
-1.01914e-05
2.1249e-05
-1.0915e-05
2.18272e-05
-1.23269e-05
2.15359e-05
-1.24569e-05
2.10174e-05
-1.20294e-05
2.13295e-05
-1.21067e-05
2.24427e-05
-1.30305e-05
2.41118e-05
-1.34746e-05
2.5976e-05
-1.33749e-05
2.75145e-05
-1.31986e-05
2.85521e-05
-1.17236e-05
2.92689e-05
-9.13642e-06
2.98869e-05
-7.46431e-06
3.01921e-05
-5.50916e-06
3.03209e-05
-2.329e-06
3.02495e-05
9.50384e-08
3.01754e-05
2.32844e-06
2.99529e-05
5.61416e-06
2.9483e-05
8.09054e-06
2.87189e-05
1.01447e-05
2.80178e-05
1.30972e-05
2.70097e-05
1.56087e-05
2.56453e-05
1.68352e-05
2.429e-05
1.85477e-05
2.28653e-05
2.04996e-05
2.14664e-05
2.07536e-05
2.04214e-05
2.03488e-05
1.98434e-05
2.08009e-05
1.9587e-05
2.26399e-05
1.95444e-05
2.45908e-05
1.93656e-05
2.54072e-05
1.91264e-05
2.51871e-05
1.8783e-05
2.45058e-05
1.85098e-05
2.31747e-05
1.85477e-05
2.07992e-05
1.853e-05
1.8494e-05
1.82704e-05
1.48e-05
1.82453e-05
1.18241e-05
1.80794e-05
8.34465e-06
1.81315e-05
5.5196e-06
1.81112e-05
3.19055e-06
1.82376e-05
-4.9336e-07
1.85158e-05
-3.33071e-06
1.84929e-05
-7.08193e-06
1.88049e-05
-9.74672e-06
1.8797e-05
-1.06934e-05
1.88901e-05
-1.34828e-05
1.87568e-05
-1.58239e-05
1.84216e-05
-1.68006e-05
1.85047e-05
-1.72379e-05
1.79254e-05
-1.77625e-05
1.7604e-05
-1.67693e-05
1.76489e-05
-1.55188e-05
1.73129e-05
-1.40838e-05
1.72069e-05
-1.37235e-05
1.73647e-05
-1.26424e-05
1.73948e-05
-1.20941e-05
1.70251e-05
-1.05237e-05
1.67699e-05
-9.85843e-06
1.64659e-05
-9.09171e-06
1.65972e-05
-9.39836e-06
1.62743e-05
-8.52625e-06
1.58434e-05
-7.70035e-06
1.57339e-05
-6.38343e-06
1.59193e-05
-6.66476e-06
1.58919e-05
-6.2172e-06
1.60352e-05
-7.55049e-06
1.60396e-05
-6.85628e-06
1.68506e-05
-8.29635e-06
1.78141e-05
-8.1851e-06
1.94178e-05
-9.57776e-06
2.07261e-05
-9.44305e-06
2.18824e-05
-9.58622e-06
2.2886e-05
-8.83732e-06
2.38806e-05
-7.68563e-06
2.48342e-05
-7.04158e-06
2.58739e-05
-5.96763e-06
2.70222e-05
-4.23811e-06
2.79955e-05
-3.26718e-06
2.88597e-05
-1.75543e-06
2.94122e-05
1.73727e-07
3.00295e-05
1.40662e-06
3.04409e-05
3.44251e-06
3.08231e-05
6.18324e-06
3.07041e-05
9.11974e-06
2.99926e-05
1.05164e-05
2.88772e-05
1.08906e-05
2.75827e-05
1.08916e-05
2.61447e-05
1.16984e-05
2.47504e-05
1.20908e-05
2.29488e-05
1.1335e-05
2.1667e-05
9.93614e-06
2.10225e-05
1.11688e-05
2.02392e-05
1.38359e-05
1.94335e-05
1.59401e-05
1.84905e-05
1.74801e-05
1.82982e-05
1.9102e-05
1.71322e-05
2.14987e-05
1.52786e-05
2.1219e-05
1.50214e-05
2.04396e-05
1.55143e-05
2.28088e-05
1.59378e-05
2.58466e-05
1.71207e-05
2.74663e-05
1.65705e-05
3.06267e-05
1.87986e-05
2.77397e-05
3.52955e-05
1.79868e-05
2.00399e-05
5.44253e-08
1.97724e-05
2.90917e-07
1.95955e-05
2.68514e-07
1.95717e-05
1.31115e-07
1.95968e-05
-1.44754e-08
1.96535e-05
-1.09311e-07
1.97128e-05
-1.62753e-07
1.97322e-05
-1.38065e-07
1.97371e-05
-9.75592e-08
1.9733e-05
-4.77593e-08
1.97118e-05
1.78188e-08
1.96862e-05
4.14075e-08
1.96404e-05
7.31863e-08
1.96001e-05
6.35649e-08
1.95502e-05
7.7452e-08
1.94955e-05
1.16917e-07
1.94418e-05
1.66699e-07
1.9382e-05
2.65641e-07
1.93345e-05
3.86525e-07
1.92949e-05
5.19176e-07
1.92837e-05
6.89794e-07
1.93156e-05
8.31234e-07
1.94011e-05
9.67381e-07
1.95384e-05
1.07349e-06
1.97549e-05
1.07087e-06
2.00173e-05
1.04939e-06
2.0314e-05
8.66414e-07
2.06237e-05
6.03416e-07
2.08864e-05
2.50116e-07
2.10256e-05
-2.49535e-07
2.11191e-05
-6.99511e-07
2.11589e-05
-1.2601e-06
2.10754e-05
-1.61946e-06
2.10188e-05
-1.90828e-06
2.09848e-05
-2.19539e-06
2.09238e-05
-2.04452e-06
2.0994e-05
-2.13375e-06
2.10662e-05
-1.96722e-06
2.12083e-05
-1.63034e-06
2.14771e-05
-1.70269e-06
2.16748e-05
-1.17896e-06
2.20578e-05
-1.08745e-06
2.24137e-05
-1.01565e-06
2.27739e-05
-4.92904e-07
2.33262e-05
-7.63854e-07
2.36438e-05
-3.75968e-07
2.41698e-05
-3.64017e-07
2.46889e-05
-7.06275e-07
2.49994e-05
-1.85638e-07
2.57038e-05
-7.97861e-07
2.61623e-05
-7.12038e-07
2.66458e-05
-5.36956e-07
2.74173e-05
-1.39551e-06
2.78865e-05
-9.61128e-07
2.85001e-05
-1.38909e-06
2.92692e-05
-2.13904e-06
2.97999e-05
-1.67966e-06
3.0434e-05
-2.57021e-06
3.11518e-05
-3.05834e-06
3.16945e-05
-2.79726e-06
3.22664e-05
-3.94912e-06
3.28618e-05
-4.18016e-06
3.32701e-05
-4.12608e-06
3.36305e-05
-5.29787e-06
3.39464e-05
-5.17921e-06
3.41848e-05
-5.38328e-06
3.41106e-05
-6.30341e-06
3.41069e-05
-5.93913e-06
3.40396e-05
-6.31701e-06
3.35451e-05
-6.7709e-06
3.33044e-05
-6.35964e-06
3.29788e-05
-6.86518e-06
3.22076e-05
-6.97864e-06
3.19983e-05
-6.92774e-06
3.15058e-05
-7.4058e-06
3.07322e-05
-7.36534e-06
3.05874e-05
-7.6226e-06
2.99528e-05
-7.88034e-06
2.92051e-05
-7.78854e-06
2.89729e-05
-8.27178e-06
2.81503e-05
-8.54046e-06
2.74561e-05
-8.39073e-06
2.72319e-05
-9.20172e-06
2.64342e-05
-9.44676e-06
2.5775e-05
-8.97253e-06
2.56141e-05
-9.86677e-06
2.49465e-05
-1.014e-05
2.43679e-05
-9.29471e-06
2.45019e-05
-1.00613e-05
2.37904e-05
-1.04059e-05
2.2753e-05
-9.13255e-06
2.27179e-05
-9.63863e-06
2.24001e-05
-1.05481e-05
2.11975e-05
-9.69114e-06
2.07849e-05
-9.77882e-06
2.13345e-05
-1.14645e-05
2.113e-05
-1.21225e-05
2.01175e-05
-1.14444e-05
1.98175e-05
-1.17294e-05
2.0899e-05
-1.31882e-05
2.25621e-05
-1.46936e-05
2.43902e-05
-1.53027e-05
2.59497e-05
-1.49344e-05
2.67379e-05
-1.39868e-05
2.70591e-05
-1.20448e-05
2.74742e-05
-9.55151e-06
2.77738e-05
-7.76388e-06
2.79197e-05
-5.65503e-06
2.80014e-05
-2.4107e-06
2.80328e-05
6.36078e-08
2.80636e-05
2.29762e-06
2.80033e-05
5.67443e-06
2.75762e-05
8.5177e-06
2.70614e-05
1.06594e-05
2.64728e-05
1.36858e-05
2.5757e-05
1.63244e-05
2.47554e-05
1.78368e-05
2.36733e-05
1.96298e-05
2.25976e-05
2.15753e-05
2.13079e-05
2.20433e-05
2.04087e-05
2.1248e-05
1.99165e-05
2.1293e-05
1.96922e-05
2.28642e-05
1.9877e-05
2.4406e-05
1.98582e-05
2.5426e-05
1.97411e-05
2.53042e-05
1.97206e-05
2.45263e-05
1.96279e-05
2.32674e-05
1.97153e-05
2.07118e-05
1.97218e-05
1.84876e-05
1.94045e-05
1.51172e-05
1.91509e-05
1.20777e-05
1.88501e-05
8.64546e-06
1.92931e-05
5.07663e-06
1.95549e-05
2.92869e-06
1.97271e-05
-6.65549e-07
2.01632e-05
-3.76676e-06
2.02003e-05
-7.11907e-06
2.03824e-05
-9.92882e-06
2.04466e-05
-1.07576e-05
2.04413e-05
-1.34775e-05
2.02352e-05
-1.56179e-05
1.9899e-05
-1.64644e-05
1.96588e-05
-1.69977e-05
1.91244e-05
-1.72281e-05
1.88193e-05
-1.64642e-05
1.83121e-05
-1.50116e-05
1.79188e-05
-1.36905e-05
1.78544e-05
-1.3659e-05
1.80104e-05
-1.27985e-05
1.75783e-05
-1.1662e-05
1.72212e-05
-1.01666e-05
1.71068e-05
-9.74395e-06
1.71065e-05
-9.09147e-06
1.68164e-05
-9.10827e-06
1.62372e-05
-7.94698e-06
1.57713e-05
-7.23452e-06
1.57692e-05
-6.38131e-06
1.56903e-05
-6.58587e-06
1.54323e-05
-5.9592e-06
1.50377e-05
-7.15585e-06
1.52209e-05
-7.03952e-06
1.60766e-05
-9.15201e-06
1.72648e-05
-9.37328e-06
1.86481e-05
-1.09611e-05
1.96736e-05
-1.04685e-05
2.07295e-05
-1.06422e-05
2.14626e-05
-9.57044e-06
2.22447e-05
-8.46764e-06
2.29438e-05
-7.74069e-06
2.37058e-05
-6.72966e-06
2.47903e-05
-5.32258e-06
2.55785e-05
-4.0554e-06
2.64097e-05
-2.58663e-06
2.71077e-05
-5.24272e-07
2.77472e-05
7.67128e-07
2.84656e-05
2.72411e-06
2.92313e-05
5.41748e-06
2.96987e-05
8.65233e-06
2.94221e-05
1.07931e-05
2.88114e-05
1.15013e-05
2.78586e-05
1.18444e-05
2.65905e-05
1.29665e-05
2.50736e-05
1.36077e-05
2.35096e-05
1.2899e-05
2.18403e-05
1.16055e-05
2.1212e-05
1.17971e-05
2.04605e-05
1.45874e-05
1.97671e-05
1.66335e-05
1.89029e-05
1.83442e-05
1.83301e-05
1.96749e-05
1.82036e-05
2.16252e-05
1.66548e-05
2.27677e-05
1.55571e-05
2.15373e-05
1.65856e-05
2.17803e-05
1.73022e-05
2.51301e-05
1.93387e-05
2.54299e-05
1.9701e-05
3.02643e-05
2.36237e-05
2.38171e-05
3.48754e-05
2.40438e-05
2.49615e-05
1.20411e-07
2.5014e-05
2.38458e-07
2.50989e-05
1.83538e-07
2.5138e-05
9.20668e-08
2.52182e-05
-9.46953e-08
2.52483e-05
-1.39449e-07
2.52623e-05
-1.76716e-07
2.52383e-05
-1.1409e-07
2.51983e-05
-5.75695e-08
2.51708e-05
-2.02298e-08
2.51311e-05
5.75694e-08
2.51066e-05
6.58906e-08
2.50767e-05
1.03068e-07
2.50421e-05
9.81567e-08
2.5013e-05
1.06532e-07
2.49592e-05
1.70696e-07
2.49078e-05
2.18115e-07
2.4861e-05
3.1247e-07
2.4827e-05
4.20497e-07
2.48261e-05
5.20117e-07
2.48427e-05
6.73137e-07
2.49065e-05
7.67443e-07
2.49947e-05
8.79187e-07
2.51143e-05
9.53937e-07
2.52797e-05
9.05467e-07
2.5467e-05
8.62079e-07
2.56853e-05
6.48145e-07
2.58482e-05
4.40511e-07
2.60275e-05
7.08391e-08
2.61457e-05
-3.67773e-07
2.6174e-05
-7.27855e-07
2.62402e-05
-1.32625e-06
2.61583e-05
-1.53762e-06
2.61428e-05
-1.89278e-06
2.61143e-05
-2.16687e-06
2.60404e-05
-1.97066e-06
2.61609e-05
-2.25421e-06
2.61458e-05
-1.95211e-06
2.62713e-05
-1.75589e-06
2.64996e-05
-1.93096e-06
2.65789e-05
-1.25825e-06
2.6975e-05
-1.48356e-06
2.72253e-05
-1.26595e-06
2.75198e-05
-7.87409e-07
2.80371e-05
-1.28112e-06
2.82796e-05
-6.18531e-07
2.87515e-05
-8.35885e-07
2.9164e-05
-1.11879e-06
2.94812e-05
-5.02862e-07
3.00028e-05
-1.31944e-06
3.03985e-05
-1.10768e-06
3.0853e-05
-9.91474e-07
3.13212e-05
-1.86369e-06
3.18116e-05
-1.4516e-06
3.22851e-05
-1.86253e-06
3.27033e-05
-2.55725e-06
3.32646e-05
-2.24095e-06
3.36322e-05
-2.93787e-06
3.40048e-05
-3.43088e-06
3.45197e-05
-3.31214e-06
3.4716e-05
-4.1455e-06
3.49315e-05
-4.39567e-06
3.52608e-05
-4.45532e-06
3.5163e-05
-5.20012e-06
3.51592e-05
-5.17534e-06
3.52084e-05
-5.43255e-06
3.47169e-05
-5.81191e-06
3.45096e-05
-5.73183e-06
3.41846e-05
-5.992e-06
3.34406e-05
-6.0269e-06
3.31323e-05
-6.05138e-06
3.25131e-05
-6.24593e-06
3.17605e-05
-6.22601e-06
3.1389e-05
-6.55627e-06
3.06953e-05
-6.71212e-06
3.01154e-05
-6.78538e-06
2.9735e-05
-7.24221e-06
2.91458e-05
-7.29115e-06
2.86633e-05
-7.30604e-06
2.83015e-05
-7.91e-06
2.77351e-05
-7.97402e-06
2.73588e-05
-8.01451e-06
2.69327e-05
-8.77562e-06
2.62587e-05
-8.77271e-06
2.59649e-05
-8.67875e-06
2.56807e-05
-9.58257e-06
2.50102e-05
-9.46949e-06
2.47098e-05
-8.99431e-06
2.44052e-05
-9.75674e-06
2.33588e-05
-9.35953e-06
2.2855e-05
-8.62877e-06
2.27606e-05
-9.5442e-06
2.17604e-05
-9.54792e-06
2.08454e-05
-8.77612e-06
2.10344e-05
-9.9678e-06
2.07358e-05
-1.11659e-05
1.92416e-05
-1.06282e-05
1.82529e-05
-1.04557e-05
1.88868e-05
-1.23633e-05
2.0553e-05
-1.48544e-05
2.22576e-05
-1.63982e-05
2.35809e-05
-1.6626e-05
2.43347e-05
-1.56882e-05
2.44796e-05
-1.41316e-05
2.44455e-05
-1.20107e-05