/*--------------------------------*- C++ -*----------------------------------*\
| =========                 |                                                 |
| \\      /  F ield         | OpenFOAM: The Open Source CFD Toolbox           |
|  \\    /   O peration     | Version:  2.4.0                                 |
|   \\  /    A nd           | Web:      www.OpenFOAM.org                      |
|    \\/     M anipulation  |                                                 |
\*---------------------------------------------------------------------------*/
FoamFile
{
    version     2.0;
    format      ascii;
    class       volScalarField;
    location    "1.7";
    object      pMean;
}
// * * * * * * * * * * * * * * * * * * * * * * * * * * * * * * * * * * * * * //

dimensions      [0 2 -2 0 0 0 0];

internalField   nonuniform List<scalar> 
8800
(
87.0906
74.6464
67.243
63.68
61.7892
60.3538
59.1454
57.993
56.9631
55.9273
54.9762
53.984
53.0786
52.1296
51.2885
50.4085
49.6463
48.8528
48.1536
47.3637
83.9793
74.292
67.4114
63.7939
61.8492
60.379
59.1529
57.9934
56.961
55.9249
54.9734
53.9819
53.0761
52.1279
51.2866
50.4066
49.6482
48.847
48.1549
47.3221
82.0143
74.368
68.0129
64.1696
62.0168
60.4583
59.1995
58.0261
56.9854
55.9419
54.9837
53.9865
53.0776
52.1261
51.2857
50.4003
49.6527
48.8377
48.2069
47.357
80.479
74.4298
68.5991
64.5931
62.2006
60.5463
59.2622
58.0827
57.034
55.9807
55.0113
54.0039
53.0887
52.1299
51.2889
50.3949
49.6567
48.8409
48.2985
47.5287
79.2303
74.4034
69.074
64.9986
62.3691
60.6139
59.3115
58.1405
57.0897
56.0325
55.0466
54.0311
53.1016
52.14
51.2881
50.396
49.6494
48.8602
48.3025
47.7585
78.2453
74.3065
69.4385
65.3445
62.5194
60.6566
59.3398
58.1851
57.1397
56.0822
55.0815
54.0579
53.1128
52.149
51.2837
50.3952
49.6348
48.8751
48.3516
48.0885
77.4888
74.1898
69.7057
65.624
62.6545
60.6823
59.3485
58.2164
57.1789
56.1239
55.1101
54.0809
53.1195
52.1554
51.2757
50.3926
49.6152
48.8801
48.427
48.4611
76.9352
74.0893
69.8863
65.8365
62.7722
60.7018
59.3411
58.2404
57.2058
56.158
55.1291
54.1018
53.1203
52.1636
51.2633
50.3958
49.5922
48.8791
48.3781
48.7924
76.5748
74.019
69.9999
65.9812
62.857
60.7153
59.3319
58.2565
57.2259
56.1828
55.1439
54.1171
53.1239
52.1704
51.2597
50.3988
49.5823
48.894
48.448
49.1049
76.3953
73.9874
70.0578
66.0584
62.9022
60.7252
59.3273
58.2674
57.239
56.1994
55.154
54.1285
53.1293
52.1785
51.263
50.4067
49.5906
48.9171
48.5122
49.2223
76.3883
73.9982
70.0586
66.0636
62.9018
60.729
59.3249
58.2715
57.2391
56.2042
55.1547
54.1342
53.1315
52.1868
51.268
50.4186
49.6006
48.9412
48.5501
49.3169
76.5571
74.047
70.0025
65.9922
62.857
60.724
59.327
58.2659
57.2273
56.1943
55.1471
54.1325
53.1326
52.1926
51.2762
50.4311
49.6164
48.9587
48.5744
49.3494
76.9079
74.1296
69.8874
65.8498
62.7707
60.7149
59.3323
58.2547
57.2064
56.1755
55.133
54.1269
53.1328
52.2002
51.2892
50.4497
49.6396
48.9803
48.5791
49.3182
77.4539
74.2358
69.7052
65.6373
62.6475
60.6975
59.3355
58.2335
57.1759
56.1457
55.1114
54.1142
53.1307
52.2063
51.3044
50.4724
49.6705
49.0085
48.5682
49.2072
78.2074
74.3521
69.4399
65.3552
62.5086
60.6685
59.3282
58.2002
57.1358
56.1048
55.0829
54.0939
53.1257
52.2081
51.3204
50.4963
49.7107
49.047
48.5684
49.0113
79.1893
74.4501
69.077
65.0082
62.3558
60.6235
59.3021
58.1549
57.0866
56.0557
55.0499
54.0688
53.1191
52.206
51.3364
50.5184
49.7581
49.097
48.5984
48.7511
80.4359
74.4773
68.6044
64.6046
62.1863
60.5559
59.2545
58.0986
57.0316
56.0055
55.0169
54.044
53.1117
52.2015
51.35
50.535
49.8045
49.145
48.6583
48.4771
81.9704
74.4141
68.0214
64.183
62.0027
60.4678
59.1929
58.0424
56.9845
55.9669
54.9924
54.0271
53.1066
52.1996
51.36
50.5477
49.8379
49.1819
48.7177
48.3351
83.9344
74.3354
67.4219
63.809
61.8359
60.3882
59.1466
58.01
56.961
55.9502
54.9833
54.0232
53.1072
52.2029
51.3667
50.5576
49.8535
49.2035
48.7147
48.2592
87.0449
74.6878
67.2532
63.6955
61.7766
60.3629
59.1392
58.01
56.963
55.9531
54.9861
54.0258
53.1099
52.2053
51.3698
50.561
49.857
49.2092
48.7161
48.3791
47.4316
47.3567
47.1458
46.9109
46.7132
46.5593
46.449
46.372
46.3203
46.2884
46.2721
46.2608
46.2505
46.2354
46.2132
46.1803
46.1374
46.0801
46.0113
45.9283
45.8364
45.7401
45.6455
45.5539
45.4715
45.4009
45.3441
45.2955
45.2506
45.2004
45.1409
45.0702
44.9921
44.9095
44.8257
44.7379
44.6459
44.5419
44.4271
44.2975
44.1598
44.0141
43.8772
43.7551
43.6609
43.5929
43.5563
43.5427
43.5498
43.5656
43.5825
43.5858
43.572
43.5311
43.469
43.3754
43.2612
43.1234
42.9752
42.809
42.6344
42.4451
42.2537
42.0619
41.887
41.7378
41.6302
41.571
41.5676
41.6096
41.6952
41.8071
41.9441
42.0852
42.2345
42.3716
42.5031
42.6078
42.6958
42.7503
42.7821
42.7835
42.7704
42.7318
42.691
42.6408
42.5985
42.5643
42.5445
42.5423
42.5604
42.6
42.6613
42.737
42.8285
42.9278
43.0412
43.158
43.2842
43.4074
43.5329
43.6465
43.7575
43.8426
43.9251
43.9817
44.037
44.0742
44.117
44.1421
44.1702
44.1843
44.2016
44.2054
44.2154
44.2202
44.2369
44.2524
44.2823
44.3103
44.3507
44.3871
44.4379
44.4806
44.5422
44.5887
44.6622
44.7195
44.8087
44.8947
45.0117
45.1312
45.272
45.4125
45.5676
45.7193
45.8829
46.0367
46.1953
46.3427
46.4954
46.6432
46.798
46.9479
47.1042
47.2538
47.4095
47.5633
47.7211
47.8764
48.0331
48.1853
48.3398
48.4856
48.6335
48.7761
48.9304
49.0728
49.2316
49.3805
49.5524
49.6976
49.8724
50.0096
50.1765
50.2999
50.4581
50.5657
50.7092
50.7885
50.9307
50.9839
51.1394
51.1895
51.3723
51.4299
51.6513
51.7198
51.9785
52.0802
52.3702
52.5165
52.8493
53.0584
53.4304
53.7054
54.1087
54.4185
54.8432
55.1499
55.5554
55.7837
56.0505
56.0075
55.8661
55.0815
53.8234
50.5287
46.3123
25.8319
47.2037
47.1763
47.1111
46.9612
46.7792
46.6113
46.4873
46.407
46.3639
46.3428
46.3361
46.3311
46.3248
46.3105
46.2891
46.2558
46.213
46.1573
46.0923
46.0156
45.9321
45.8442
45.7588
45.6763
45.6025
45.5369
45.4825
45.4345
45.3916
45.3456
45.2943
45.2329
45.1646
45.0886
45.0096
44.9237
44.8332
44.7318
44.6222
44.4996
44.3713
44.2384
44.1127
43.9992
43.9085
43.8404
43.7993
43.779
43.7769
43.7814
43.7887
43.7844
43.7679
43.7269
43.6677
43.5808
43.4746
43.345
43.2035
43.0452
42.8793
42.7023
42.5228
42.3451
42.1815
42.0402
41.935
41.8702
41.8542
41.8793
41.9454
42.0372
42.1542
42.2784
42.4084
42.5297
42.6416
42.7302
42.7988
42.8385
42.8565
42.8478
42.8253
42.7851
42.7401
42.6913
42.6459
42.6105
42.5862
42.5784
42.5894
42.6208
42.6731
42.7405
42.8252
42.9204
43.0288
43.141
43.2611
43.3798
43.5006
43.6121
43.7175
43.8001
43.8771
43.9331
43.9835
44.0172
44.0503
44.0696
44.0882
44.097
44.105
44.1042
44.1047
44.1063
44.1145
44.1269
44.1477
44.1669
44.1976
44.2234
44.2656
44.3005
44.3549
44.3975
44.4623
44.5162
44.5931
44.6684
44.7691
44.8725
44.9977
45.1226
45.2635
45.3985
45.5466
45.6851
45.8276
45.959
46.0962
46.2272
46.3636
46.4941
46.6333
46.7599
46.9002
47.0325
47.1777
47.3162
47.4615
47.6004
47.7513
47.8861
48.0365
48.1723
48.3354
48.4723
48.6389
48.7837
48.9567
49.0919
49.2645
49.3905
49.5542
49.6666
49.8186
49.9048
50.0437
50.0916
50.2254
50.2455
50.389
50.4028
50.5774
50.6001
50.8102
50.8524
51.0941
51.1741
51.4383
51.5618
51.8541
52.0332
52.3597
52.5753
52.9341
53.1481
53.5071
53.6721
53.9513
53.9546
54.008
53.5675
53.0548
51.4149
49.6486
43.8803
37.9733
19.0915
47.1834
47.1904
47.2076
47.1092
46.9151
46.6972
46.5241
46.4171
46.3749
46.3699
46.383
46.3938
46.3974
46.3867
46.3651
46.3292
46.2841
46.2272
46.1636
46.091
46.0151
45.9357
45.8599
45.7864
45.7208
45.6609
45.6104
45.5644
45.5238
45.481
45.4358
45.3817
45.3217
45.2524
45.1789
45.0964
45.009
44.9116
44.8082
44.6954
44.579
44.46
44.3474
44.2446
44.1601
44.0937
44.0495
44.0223
44.0112
44.0053
44.0025
43.9898
43.968
43.9259
43.8671
43.7854
43.6854
43.5642
43.4299
43.2809
43.124
42.9602
42.7951
42.6332
42.484
42.3537
42.2541
42.1881
42.1624
42.1735
42.2213
42.2948
42.3915
42.4978
42.6086
42.712
42.804
42.8752
42.9248
42.9499
42.954
42.9379
42.907
42.8652
42.8163
42.7671
42.7201
42.6822
42.653
42.6382
42.6402
42.6624
42.7044
42.7651
42.8439
42.9368
43.0405
43.1501
43.2659
43.3814
43.4976
43.6075
43.708
43.7904
43.865
43.923
43.9714
44.0049
44.0329
44.0509
44.0642
44.0725
44.075
44.0727
44.0682
44.0681
44.0726
44.0802
44.0954
44.1064
44.1321
44.1495
44.1872
44.2171
44.2677
44.3103
44.3681
44.4204
44.4866
44.5543
44.6396
44.7287
44.8383
44.9485
45.0745
45.1935
45.3235
45.446
45.5717
45.6862
45.8077
45.9231
46.0439
46.1597
46.284
46.3949
46.5229
46.6382
46.7717
46.8898
47.0213
47.1428
47.2858
47.4086
47.5622
47.6938
47.8622
47.9989
48.1736
48.3206
48.4919
48.6217
48.7904
48.9027
49.0635
49.156
49.3035
49.3594
49.4939
49.5125
49.6355
49.6266
49.7644
49.7461
49.916
49.9121
50.1
50.1256
50.3298
50.395
50.6132
50.7123
50.9614
51.0891
51.3793
51.5121
51.8229
51.9236
52.2003
52.1951
52.3597
52.0716
51.9725
50.9894
50.3591
47.5804
45.6503
38.5214
31.4259
18.5703
47.0384
47.0644
47.2363
47.1931
46.9816
46.7179
46.5084
46.3909
46.3622
46.384
46.4277
46.4645
46.4855
46.4825
46.4611
46.4209
46.3703
46.3092
46.2443
46.1738
46.1035
46.032
45.9653
45.9012
45.8445
45.7918
45.7466
45.7042
45.6664
45.6265
45.5855
45.537
45.4834
45.4203
45.3518
45.2741
45.1913
45.1
45.0044
44.9026
44.7994
44.6948
44.5962
44.5043
44.4268
44.3626
44.3159
44.2819
44.2611
44.2446
44.2314
44.2111
44.1836
44.1406
44.0827
44.0058
43.9123
43.8004
43.6757
43.5386
43.3942
43.2447
43.0953
42.9497
42.8156
42.6975
42.6045
42.5389
42.5062
42.5044
42.5349
42.5893
42.6649
42.7507
42.8406
42.9237
42.9954
43.0489
43.0819
43.0948
43.0881
43.0652
43.028
42.9836
42.9328
42.8826
42.8341
42.7913
42.755
42.7306
42.7228
42.7357
42.77
42.8252
42.9005
42.9905
43.0911
43.1973
43.3101
43.4226
43.5352
43.6424
43.7396
43.821
43.8952
43.9558
44.0052
44.0419
44.0702
44.0908
44.105
44.1145
44.1153
44.1125
44.1084
44.1069
44.113
44.1179
44.1327
44.1402
44.1631
44.1748
44.2099
44.2368
44.2868
44.3279
44.3826
44.4301
44.4917
44.5527
44.6292
44.7075
44.8021
44.8992
45.0092
45.1141
45.227
45.3325
45.4406
45.5382
45.645
45.7452
45.8546
45.9597
46.0734
46.1768
46.2956
46.3973
46.518
46.6148
46.7321
46.8319
46.9666
47.0742
47.2301
47.3612
47.5351
47.6753
47.8603
48.0014
48.1726
48.292
48.4648
48.5502
48.7188
48.7771
48.9286
48.9489
49.0809
49.0688
49.1844
49.148
49.2868
49.2526
49.4048
49.3934
49.5402
49.559
49.7112
49.7569
49.9283
49.9922
50.1995
50.2635
50.5062
50.5478
50.8019
50.7563
50.9963
50.7329
50.8827
50.1623
50.0843
48.3839
47.7508
44.1024
41.6384
34.925
27.3842
18.7846
47.8364
47.7441
47.4805
47.1576
46.831
46.5474
46.3698
46.3014
46.3193
46.3843
46.4678
46.5377
46.5808
46.5889
46.5693
46.5252
46.4681
46.401
46.3323
46.262
46.1956
46.1312
46.0734
46.0192
45.9719
45.9278
45.8894
45.8524
45.8184
45.7823
45.745
45.7015
45.6535
45.597
45.535
45.4647
45.3894
45.307
45.2212
45.1311
45.0407
44.9496
44.8632
44.7811
44.7094
44.6469
44.5971
44.5569
44.5269
44.5012
44.4787
44.452
44.4193
44.3754
44.3189
44.2474
44.1617
44.0611
43.9486
43.8256
43.6959
43.562
43.4289
43.2991
43.1796
43.0734
42.9876
42.9239
42.8867
42.8745
42.8891
42.9249
42.979
43.0427
43.1095
43.1711
43.2227
43.2598
43.2791
43.2816
43.2671
43.2385
43.1977
43.15
43.0969
43.0426
42.9891
42.9377
42.8911
42.855
42.8376
42.8416
42.8706
42.9215
42.9954
43.0838
43.1831
43.2888
43.4001
43.5111
43.6225
43.7279
43.824
43.9061
43.9813
44.0447
44.0961
44.1381
44.1686
44.194
44.2114
44.2226
44.2248
44.2222
44.2218
44.2222
44.2333
44.2406
44.2573
44.267
44.289
44.303
44.3369
44.367
44.4147
44.4553
44.5071
44.5519
44.613
44.6672
44.7412
44.8092
44.8943
44.9769
45.0737
45.1636
45.2646
45.3513
45.4477
45.5282
45.624
45.7088
45.8125
45.9082
46.0189
46.1183
46.2306
46.3191
46.4298
46.5034
46.611
46.6869
46.8132
46.9074
47.0634
47.1901
47.3726
47.5074
47.7059
47.8306
48.0083
48.1097
48.2895
48.3485
48.5275
48.5478
48.7011
48.6876
48.8164
48.7715
48.8804
48.8297
48.9624
48.9347
49.0632
49.0485
49.164
49.1593
49.2745
49.2787
49.4204
49.4262
49.6073
49.5822
49.8012
49.6981
49.9428
49.6693
49.9187
49.324
49.4798
48.3189
48.1719
46.0031
44.9908
41.3231
38.0984
32.7647
25.6681
19.3139
48.4775
48.3322
47.7387
47.1378
46.6522
46.3297
46.1925
46.1952
46.2831
46.4078
46.5363
46.6373
46.6976
46.7127
46.692
46.6429
46.5781
46.5041
46.4304
46.3589
46.2946
46.2361
46.1859
46.141
46.1027
46.0676
46.0365
46.006
45.9766
45.9449
45.9115
45.873
45.8303
45.7808
45.7262
45.6646
45.5982
45.5262
45.4512
45.373
45.2944
45.2153
45.1392
45.0662
44.9997
44.9398
44.8883
44.8438
44.8066
44.773
44.7419
44.7087
44.6708
44.6252
44.5699
44.5034
44.4254
44.3357
44.2357
44.1268
44.0122
43.8944
43.7775
43.664
43.5592
43.4653
43.3876
43.3275
43.2882
43.2688
43.2711
43.2918
43.3268
43.3697
43.4143
43.4555
43.4885
43.5102
43.5175
43.5114
43.4903
43.4566
43.4117
43.3585
43.2998
43.2381
43.1762
43.1139
43.0553
43.0062
42.9801
42.9773
43.002
43.0511
43.1256
43.2141
43.3128
43.4194
43.5311
43.6441
43.7577
43.8669
43.966
44.0526
44.1307
44.1968
44.2516
44.2987
44.3333
44.3621
44.3823
44.3938
44.3979
44.3955
44.401
44.4074
44.4253
44.4401
44.4607
44.4773
44.5031
44.5264
44.5636
44.6016
44.6485
44.6919
44.7402
44.7885
44.8484
44.9049
44.9778
45.0396
45.1193
45.1868
45.2723
45.3462
45.4369
45.5082
45.5973
45.665
45.7518
45.8258
45.9274
46.0154
46.1306
46.2272
46.3359
46.4151
46.5149
46.5672
46.661
46.7185
46.8333
46.9114
47.0706
47.1843
47.3754
47.497
47.7033
47.8075
48.0037
48.0787
48.2758
48.303
48.4931
48.4807
48.637
48.582
48.715
48.6309
48.744
48.6841
48.8187
48.7883
48.9192
48.8781
48.9907
48.938
49.0393
48.9719
49.1058
49.0265
49.1886
49.0554
49.2445
48.995
49.1954
48.7431
48.8953
48.0897
48.0558
46.685
46.2083
44.0178
42.5109
39.3485
35.8431
31.8172
25.7041
20.4411
49.123
48.8891
47.9255
47.0124
46.3577
46.0165
45.9577
46.0706
46.2571
46.4551
46.6293
46.7559
46.8259
46.841
46.8135
46.7555
46.6808
46.5995
46.5207
46.4483
46.3856
46.3323
46.2888
46.2525
46.2226
46.1962
46.1723
46.1486
46.1244
46.0976
46.0681
46.0342
45.9962
45.9529
45.9049
45.8517
45.7942
45.7325
45.6678
45.6007
45.5328
45.4644
45.3975
45.3327
45.2715
45.2146
45.1629
45.1162
45.0741
45.0351
44.9975
44.9592
44.9174
44.8708
44.8171
44.7555
44.6848
44.6053
44.5171
44.4221
44.3222
44.22
44.1185
44.0204
43.9289
43.8466
43.7765
43.7208
43.6814
43.6592
43.654
43.6639
43.6845
43.7101
43.7356
43.7582
43.7745
43.7832
43.7807
43.7663
43.7388
43.6995
43.6482
43.587
43.52
43.4501
43.3793
43.306
43.236
43.1752
43.1401
43.1328
43.1568
43.2088
43.2865
43.3775
43.4784
43.588
43.7021
43.8217
43.9415
44.0578
44.1637
44.2589
44.3398
44.409
44.4683
44.519
44.5569
44.587
44.6109
44.6236
44.6303
44.6296
44.6394
44.6527
44.6777
44.7034
44.7307
44.7593
44.7959
44.8353
44.883
44.9339
44.9863
45.0347
45.0829
45.134
45.1938
45.2563
45.3269
45.3917
45.4636
45.5252
45.5995
45.664
45.7445
45.8094
45.8905
45.9528
46.0346
46.1067
46.2047
46.2912
46.404
46.5028
46.6087
46.6829
46.7695
46.807
46.8805
46.9285
47.0263
47.0877
47.2464
47.3474
47.5337
47.6561
47.8637
47.9425
48.1619
48.2164
48.4285
48.4364
48.6229
48.5923
48.7433
48.6673
48.7862
48.6819
48.7895
48.7432
48.8707
48.8466
48.967
48.9196
49.0136
48.9294
48.9921
48.8792
48.9573
48.8232
48.8993
48.6953
48.7804
48.442
48.5194
47.9564
47.9308
47.0295
46.7768
45.3563
44.6169
42.5852
40.8702
38.3314
34.9859
31.853
26.784
22.1137
50.2764
49.8423
48.1807
46.7947
45.9406
45.6024
45.6578
45.9188
46.2326
46.5155
46.7346
46.8809
46.9541
46.9637
46.9247
46.8548
46.7695
46.6817
46.5994
46.5276
46.4677
46.4201
46.383
46.3546
46.3322
46.3136
46.2964
46.279
46.2596
46.2376
46.2118
46.1823
46.1483
46.1104
46.0679
46.0217
45.9716
45.9183
45.8621
45.804
45.7444
45.6847
45.625
45.5669
45.5105
45.4571
45.4066
45.3596
45.3151
45.2733
45.232
45.1912
45.1481
45.1023
45.0515
44.9955
44.9324
44.8631
44.7866
44.7049
44.6185
44.5303
44.4419
44.3569
44.2767
44.2048
44.1421
44.0917
44.054
44.031
44.0205
44.0224
44.031
44.0424
44.0518
44.0587
44.0607
44.0587
44.0477
44.026
43.9916
43.9457
43.8868
43.8179
43.7439
43.6666
43.5894
43.5081
43.4289
43.3608
43.3201
43.3128
43.34
43.3989
43.4805
43.5756
43.6795
43.7932
43.9133
44.0417
44.1719
44.3004
44.4161
44.5214
44.6062
44.6817
44.745
44.7963
44.8351
44.8655
44.892
44.9083
44.9175
44.9205
44.933
44.9554
44.9889
45.0268
45.0654
45.1115
45.1657
45.227
45.2916
45.3603
45.4222
45.4789
45.5328
45.5891
45.6524
45.718
45.7878
45.8527
45.9175
45.9811
46.0481
46.1109
46.1853
46.25
46.3254
46.3888
46.4664
46.5405
46.6364
46.7242
46.8393
46.9362
47.043
47.1127
47.195
47.2136
47.269
47.3143
47.3959
47.4494
47.6036
47.69
47.8662
47.978
48.1956
48.2517
48.486
48.5341
48.7564
48.7582
48.9402
48.9113
49.0488
48.9601
49.053
48.9391
49.0306
49.005
49.1303
49.119
49.2268
49.1788
49.2586
49.1375
49.159
49.0061
49.017
48.8197
48.803
48.5236
48.5119
48.0779
48.0696
47.3883
47.2475
46.2759
45.8897
44.5134
43.6613
41.8815
40.1504
38.1393
35.112
32.4533
28.2539
24.0294
50.7582
50.2778
48.3647
46.7397
45.7484
45.3818
45.488
45.8378
46.2366
46.5848
46.8436
47.0085
47.0833
47.0841
47.0308
46.9476
46.8519
46.7585
46.6741
46.6038
46.5475
46.5056
46.4749
46.4537
46.4381
46.4263
46.4147
46.4025
46.3873
46.3693
46.3468
46.321
46.2905
46.2568
46.2189
46.1783
46.1338
46.087
46.0372
45.9859
45.9327
45.8794
45.8254
45.7726
45.7202
45.6701
45.6212
45.5749
45.5296
45.4869
45.4445
45.4032
45.3605
45.317
45.2699
45.2199
45.1643
45.1045
45.0383
44.9684
44.8943
44.8189
44.7426
44.6695
44.6002
44.5385
44.4841
44.44
44.4051
44.3822
44.3682
44.3631
44.3604
44.3586
44.353
44.3454
44.3351
44.324
44.3058
44.2789
44.2403
44.19
44.1259
44.051
43.9703
43.8877
43.8053
43.7178
43.6363
43.5653
43.5252
43.5227
43.5584
43.6252
43.7125
43.8105
43.9191
44.0383
44.1682
44.3073
44.452
44.5974
44.7286
44.8444
44.9371
45.0191
45.0844
45.1335
45.17
45.1999
45.2289
45.2474
45.2605
45.2698
45.2885
45.3212
45.3653
45.4158
45.4708
45.537
45.6141
45.7012
45.7881
45.8782
45.9543
46.0239
46.0873
46.1499
46.219
46.2855
46.3556
46.4194
46.4804
46.5474
46.6104
46.6743
46.7476
46.8101
46.8853
46.9495
47.0254
47.1064
47.2038
47.296
47.4189
47.5127
47.6338
47.6934
47.7909
47.7749
47.8308
47.8624
47.9305
47.9825
48.1349
48.1933
48.383
48.4683
48.7066
48.7209
48.9904
49.0265
49.266
49.2351
49.4506
49.4056
49.5664
49.4251
49.5113
49.389
49.4886
49.4748
49.5972
49.6001
49.7015
49.6546
49.7268
49.5449
49.5464
49.3441
49.3075
49.0299
48.9601
48.5807
48.4888
48.0115
47.9227
47.2296
47.0246
45.9976
45.5508
44.2466
43.3519
41.8358
40.1473
38.4811
35.7877
33.3535
29.8039
25.9981
50.9994
50.556
48.5709
46.8371
45.7543
45.329
45.4272
45.8124
46.2606
46.6524
46.9406
47.1201
47.1962
47.1895
47.1243
47.03
46.926
46.8285
46.7435
46.6756
46.6235
46.5873
46.5628
46.5482
46.5385
46.532
46.5249
46.5167
46.5049
46.49
46.4704
46.4476
46.4203
46.3903
46.3563
46.32
46.2802
46.2386
46.1939
46.1482
46.1002
46.0521
46.0027
45.9541
45.9051
45.8578
45.8109
45.7662
45.7219
45.6798
45.638
45.5978
45.5571
45.5168
45.4744
45.4305
45.3823
45.331
45.2743
45.215
45.1519
45.0879
45.0228
44.9611
44.9022
44.8502
44.8044
44.7673
44.7365
44.7152
44.6991
44.6866
44.6723
44.6578
44.6396
44.6195
44.5987
44.5809
44.5587
44.5299
44.4899
44.4381
44.3726
44.2962
44.212
44.1238
44.0377
43.9461
43.8658
43.7956
43.7614
43.7659
43.8145
43.8913
43.9867
44.0889
44.2062
44.3331
44.4736
44.6238
44.7861
44.9503
45.1
45.227
45.3293
45.4153
45.481
45.5272
45.5622
45.5921
45.6227
45.6428
45.6611
45.6782
45.7062
45.7509
45.8082
45.8747
45.9499
46.0389
46.1423
46.2565
46.3711
46.484
46.5795
46.6657
46.7411
46.8101
46.8824
46.9484
47.0196
47.0801
47.1433
47.2112
47.2751
47.3396
47.4158
47.4745
47.5565
47.6206
47.7017
47.7888
47.895
47.9932
48.1334
48.2207
48.3702
48.4154
48.5392
48.4664
48.5558
48.5497
48.6347
48.6707
48.8281
48.846
49.0688
49.1143
49.3935
49.3416
49.682
49.6637
49.9776
49.8526
50.1594
50.0791
50.3083
50.0583
50.1762
50.0081
50.1601
50.1433
50.2989
50.2844
50.3988
50.3277
50.4099
50.1353
50.1569
49.8991
49.8352
49.4578
49.3392
48.8781
48.776
48.2922
48.1904
47.4038
47.2016
46.1021
45.6484
44.4276
43.5069
42.2104
40.6058
39.1122
36.7233
34.4111
31.3148
27.9011
51.1482
50.7252
48.7171
46.9328
45.8051
45.3448
45.4354
45.8361
46.3094
46.7237
47.0268
47.2129
47.2872
47.2731
47.1992
47.098
46.9903
46.8923
46.8093
46.7451
46.6981
46.6676
46.6488
46.6395
46.6344
46.6317
46.6277
46.6221
46.6126
46.6
46.5828
46.5626
46.5382
46.5113
46.4808
46.4483
46.4126
46.3753
46.3352
46.2939
46.2503
46.2064
46.1611
46.1162
46.0707
46.0264
45.9821
45.9394
45.8972
45.8572
45.8175
45.7796
45.7416
45.7049
45.6672
45.6294
45.5886
45.5456
45.4987
45.4498
45.3975
45.3445
45.2911
45.2404
45.1917
45.1486
45.1116
45.0819
45.0557
45.0352
45.0159
44.9953
44.9706
44.9448
44.9152
44.8855
44.8581
44.8358
44.8126
44.7867
44.7508
44.7021
44.6394
44.5645
44.4812
44.3907
44.3032
44.2109
44.1353
44.0688
44.0472
44.0584
44.1215
44.2082
44.3138
44.4212
44.5518
44.6882
44.8407
44.9997
45.1809
45.3613
45.5289
45.6656
45.7757
45.8621
45.927
45.9708
46.0085
46.0407
46.0742
46.0977
46.126
46.1507
46.1932
46.2491
46.3262
46.4079
46.5095
46.6217
46.7557
46.8947
47.0396
47.1713
47.2942
47.3961
47.4887
47.5638
47.6402
47.701
47.7737
47.8269
47.8977
47.9602
48.0334
48.0972
48.1785
48.2388
48.3293
48.3959
48.4899
48.5828
48.7076
48.8075
48.9716
49.0508
49.237
49.2614
49.4084
49.2707
49.4249
49.369
49.5024
49.4936
49.6808
49.659
49.9196
49.9168
50.2152
50.1115
50.5304
50.4522
50.8252
50.6485
51.0686
50.9302
51.2362
50.8726
51.0632
50.8182
51.0736
50.9954
51.2164
51.1657
51.3088
51.2206
51.3111
50.916
50.9496
50.6533
50.5158
50.1066
49.9492
49.5138
49.4331
48.8426
48.7118
47.8218
47.6997
46.5321
46.0651
44.931
43.9871
42.8351
41.3659
39.9117
37.7542
35.5465
32.7664
29.6952
51.2046
50.7796
48.7689
46.9877
45.8685
45.4192
45.5224
45.9321
46.409
46.8206
47.1174
47.2944
47.3587
47.3353
47.2557
47.1523
47.0461
46.9516
46.8738
46.8153
46.7743
46.7491
46.7352
46.7295
46.7273
46.7267
46.7245
46.7203
46.7125
46.7015
46.6864
46.6685
46.6469
46.623
46.5959
46.5668
46.5349
46.5014
46.4655
46.4283
46.389
46.3488
46.3071
46.2655
46.2233
46.1819
46.1407
46.101
46.0621
46.025
45.9885
45.9536
45.9194
45.8868
45.8541
45.8218
45.7882
45.7537
45.7166
45.6779
45.6365
45.5947
45.5534
45.5143
45.4768
45.4439
45.4163
45.3933
45.3705
45.349
45.3256
45.2974
45.2625
45.2243
45.1832
45.1453
45.1139
45.0922
45.0749
45.0576
45.0311
44.9927
44.9394
44.8712
44.7913
44.7019
44.6154
44.5276
44.4598
44.4046
44.4006
44.4189
44.4961
44.588
44.7023
44.8115
44.9566
45.1019
45.2672
45.4335
45.6348
45.8284
46.0132
46.1562
46.2715
46.3489
46.4156
46.4547
46.5004
46.5366
46.5783
46.6076
46.6503
46.6864
46.751
46.8205
46.9237
47.0221
47.1556
47.2888
47.4554
47.6175
47.7959
47.9461
48.0945
48.2096
48.3238
48.4052
48.4899
48.55
48.619
48.6682
48.7443
48.8022
48.8835
48.9521
49.0376
49.1069
49.205
49.2776
49.3812
49.4813
49.6223
49.7346
49.9098
49.9936
50.1984
50.2288
50.3402
50.1818
50.425
50.2926
50.4921
50.426
50.6546
50.6105
50.8872
50.8816
51.1429
51.0206
51.5087
51.4009
51.7923
51.6322
52.1185
51.9523
52.2793
51.8528
52.0824
51.7902
52.1783
52.0606
52.3319
52.2334
52.4054
52.3209
52.3181
51.8987
51.9243
51.519
51.3869
50.9928
50.8024
50.3359
50.1767
49.5681
49.441
48.5662
48.3048
47.2172
46.7185
45.6747
44.7508
43.6253
42.2887
40.8055
38.8325
36.7314
34.1826
31.3925
51.1544
50.7203
48.7411
47.0214
45.9648
45.5739
45.7103
46.1182
46.5711
46.9503
47.2162
47.3659
47.4098
47.375
47.293
47.193
47.094
47.0077
46.9386
46.8879
46.8538
46.8337
46.8234
46.8197
46.8188
46.8186
46.817
46.8132
46.8064
46.7967
46.7836
46.7679
46.7491
46.7281
46.7044
46.6788
46.6509
46.6213
46.5896
46.5563
46.521
46.4844
46.4465
46.4083
46.3698
46.332
46.2949
46.2592
46.2242
46.1907
46.1583
46.1274
46.0978
46.0701
46.0433
46.0171
45.9905
45.9637
45.9363
45.9083
45.8782
45.8476
45.8184
45.7914
45.7662
45.7448
45.7272
45.7105
45.6912
45.6695
45.6416
45.6042
45.5589
45.5097
45.4605
45.4189
45.3875
45.3689
45.3604
45.3554
45.3437
45.3218
45.284
45.227
45.154
45.0714
44.9908
44.912
44.8525
44.8132
44.8265
44.8571
44.9453
45.0377
45.1535
45.2659
45.4274
45.579
45.7548
45.9284
46.1503
46.3524
46.553
46.6967
46.814
46.8803
46.9464
46.983
47.0436
47.0829
47.1374
47.1742
47.2358
47.2888
47.3811
47.4691
47.6026
47.7245
47.8928
48.049
48.2488
48.429
48.6342
48.7993
48.9741
49.1012
49.2379
49.3284
49.4252
49.4839
49.5567
49.6062
49.6865
49.7493
49.8409
49.9165
50.0074
50.0874
50.1867
50.2657
50.3819
50.4886
50.6366
50.7686
50.9458
51.0589
51.2445
51.3127
51.3544
51.2314
51.4902
51.3145
51.563
51.494
51.7644
51.7064
51.958
51.9768
52.184
52.0901
52.5741
52.4855
52.9398
52.8484
53.2925
53.1999
53.4148
52.9873
53.2736
52.9119
53.4196
53.2578
53.5716
53.4672
53.6319
53.5052
53.4817
53.0583
53.0331
52.5417
52.4483
51.9977
51.746
51.3701
51.1155
50.6878
50.2515
49.4973
49.0642
48.1025
47.5686
46.5856
45.7143
44.5498
43.3229
41.7654
39.956
37.9443
35.5749
33.0115
50.9503
50.5116
48.6362
47.06
46.1284
45.8354
46.007
46.3888
46.785
47.1023
47.3135
47.4196
47.4361
47.3904
47.3103
47.2196
47.1333
47.06
47.0026
46.9615
46.9344
46.9186
46.9103
46.9069
46.9054
46.9043
46.9019
46.8979
46.8915
46.8827
46.8713
46.8576
46.8415
46.8233
46.8032
46.7815
46.7577
46.7323
46.7051
46.676
46.6449
46.6123
46.5781
46.5436
46.5098
46.4771
46.4449
46.4135
46.383
46.354
46.3262
46.3
46.2757
46.2538
46.2333
46.2143
46.1964
46.1798
46.1635
46.1455
46.1261
46.1075
46.091
46.0765
46.0644
46.0549
46.0467
46.0365
46.0214
45.9996
45.9682
45.9259
45.8741
45.8166
45.7607
45.7168
45.6895
45.6802
45.685
45.6961
45.7044
45.703
45.6831
45.6402
45.5768
45.5064
45.434
45.3677
45.3203
45.3018
45.3265
45.3656
45.4582
45.5504
45.6653
45.7935
45.971
46.1317
46.3162
46.502
46.734
46.9363
47.1434
47.2868
47.4051
47.4643
47.5329
47.5731
47.647
47.6948
47.7658
47.813
47.8951
47.9685
48.0879
48.1996
48.3641
48.5132
48.7142
48.8973
49.1241
49.3224
49.5468
49.7255
49.9191
50.0574
50.213
50.3196
50.4295
50.4942
50.5759
50.6335
50.7247
50.7961
50.9028
50.9886
51.0871
51.1768
51.2657
51.3524
51.4679
51.5885
51.7401
51.9051
52.0681
52.2181
52.378
52.4725
52.4687
52.4644
52.6236
52.4542
52.7284
52.6809
52.9516
52.9106
53.1344
53.2049
53.3144
53.3495
53.7111
53.7093
54.1979
54.245
54.5929
54.5386
54.6747
54.3165
54.5722
54.3441
54.7459
54.5569
54.8781
54.8065
54.9434
54.7971
54.6665
54.2557
54.2347
53.7021
53.5389
53.1314
52.8316
52.6181
52.1513
51.9223
51.1961
50.7037
49.9658
49.18
48.5513
47.6646
46.833
45.606
44.4467
42.7931
41.116
39.1532
36.9338
34.5479
50.4862
50.0722
48.4619
47.1574
46.4252
46.2383
46.4138
46.7287
47.0324
47.2604
47.3982
47.4523
47.441
47.3878
47.3145
47.2379
47.168
47.1101
47.0656
47.0338
47.0124
46.999
46.9909
46.986
46.9826
46.9796
46.9759
46.9712
46.965
46.9571
46.9472
46.9355
46.922
46.9068
46.8901
46.8721
46.8525
46.8316
46.8089
46.7843
46.7575
46.7294
46.7003
46.6707
46.6416
46.614
46.5881
46.563
46.5381
46.5138
46.4907
46.4702
46.4528
46.4378
46.4247
46.4142
46.406
46.3996
46.3946
46.3895
46.3833
46.3769
46.3721
46.37
46.3702
46.3713
46.3714
46.3676
46.3571
46.3376
46.3055
46.2599
46.2045
46.1432
46.0843
46.0421
46.0238
46.0288
46.0506
46.0809
46.1103
46.129
46.1251
46.0959
46.0459
45.9923
45.9312
45.8858
45.8529
45.8543
45.8884
45.9401
46.0317
46.1187
46.2343
46.3877
46.5778
46.7503
46.9395
47.1447
47.3732
47.5744
47.7766
47.92
48.0367
48.1042
48.1729
48.2265
48.3125
48.3794
48.4687
48.5373
48.637
48.7336
48.875
49.0184
49.2038
49.3851
49.6042
49.8175
50.0547
50.2726
50.5065
50.7032
50.9086
51.0641
51.2324
51.3566
51.4838
51.56
51.6613
51.7357
51.838
51.9287
52.0432
52.1372
52.241
52.3309
52.4107
52.508
52.6234
52.7615
52.9256
53.1267
53.2748
53.4602
53.5765
53.6783
53.7006
53.7715
53.8072
53.7996
53.9814
53.9877
54.2371
54.2062
54.3837
54.4909
54.581
54.734
54.9134
55.1627
55.5811
55.6785
55.9096
55.881
55.9579
55.7716
55.9829
55.9194
56.1116
56.0269
56.2095
56.1859
56.2127
56.051
55.8909
55.6043
55.4702
54.9806
54.755
54.436
54.0414
53.9314
53.3517
53.1923
52.2111
51.9897
51.0029
50.4251
49.6373
48.9161
48.0028
46.7669
45.6333
43.9031
42.3036
40.3555
38.2749
36.0215
49.7269
49.4061
48.273
47.3673
46.8758
46.7657
46.8887
47.0884
47.269
47.3936
47.456
47.4637
47.4315
47.3767
47.3138
47.2528
47.1994
47.1558
47.122
47.0969
47.0787
47.0657
47.0562
47.0492
47.0435
47.0386
47.0337
47.0286
47.0226
47.0156
47.0071
46.9971
46.9857
46.9732
46.9594
46.945
46.9299
46.9137
46.8956
46.8755
46.8537
46.8302
46.8062
46.7827
46.7597
46.7379
46.718
46.6999
46.6825
46.6647
46.6478
46.6347
46.626
46.6201
46.6161
46.6149
46.6167
46.6211
46.626
46.6302
46.6349
46.6418
46.6504
46.6601
46.6702
46.6795
46.6866
46.6882
46.6821
46.6658
46.6358
46.593
46.5391
46.4789
46.425
46.3919
46.3871
46.4077
46.4452
46.4903
46.5339
46.5672
46.5788
46.5649
46.5316
46.4997
46.4528
46.4386
46.4276
46.4497
46.4892
46.5568
46.6402
46.7324
46.8576
47.0276
47.2167
47.4033
47.6022
47.8259
48.0426
48.2453
48.4317
48.5808
48.6952
48.7818
48.8526
48.931
49.0231
49.1202
49.2233
49.3262
49.4389
49.5676
49.721
49.8994
50.0974
50.3086
50.5325
50.7681
51.0004
51.2394
51.4688
51.6828
51.8892
52.073
52.2488
52.4082
52.5425
52.6538
52.7628
52.8659
52.973
53.09
53.1998
53.3164
53.4151
53.5154
53.5948
53.7105
53.8245
53.9882
54.1561
54.3729
54.5201
54.7518
54.8016
54.9489
54.9396
55.0596
55.0776
55.2044
55.2729
55.381
55.4909
55.5407
55.6938
55.8339
55.8707
56.1624
56.2569
56.7256
56.8783
57.0572
57.1658
57.2373
57.2882
57.3267
57.3926
57.4133
57.4369
57.5165
57.5157
57.5515
57.4656
57.3539
57.0692
56.9979
56.6293
56.3764
55.9923
55.7869
55.3415
55.3095
54.5059
54.3219
53.3104
53.2191
52.0545
51.7734
50.7573
50.1716
49.0863
47.9713
46.7827
45.0403
43.4594
41.5392
39.5744
37.4049
48.8938
48.7277
48.1765
47.7072
47.4279
47.3258
47.3373
47.3943
47.4502
47.4828
47.485
47.4603
47.4172
47.3656
47.3135
47.2659
47.2251
47.1915
47.1644
47.1428
47.1255
47.1116
47.1005
47.0914
47.084
47.0778
47.0721
47.0667
47.061
47.0546
47.0471
47.0383
47.0286
47.0187
47.0083
46.9969
46.9849
46.9727
46.9596
46.9442
46.9269
46.9092
46.8915
46.8737
46.8567
46.8425
46.8309
46.8205
46.8106
46.801
46.7935
46.7901
46.7903
46.7932
46.7989
46.8075
46.8185
46.8316
46.8462
46.8608
46.8743
46.8883
46.9041
46.922
46.9395
46.954
46.9646
46.9701
46.9686
46.9565
46.9323
46.8982
46.8555
46.8091
46.7695
46.7507
46.7595
46.7917
46.8392
46.8919
46.9424
46.9848
47.0089
47.0125
47.002
47.0018
46.9818
46.9986
47.0058
47.0503
47.0998
47.1878
47.2633