/*--------------------------------*- C++ -*----------------------------------*\
| =========                 |                                                 |
| \\      /  F ield         | OpenFOAM: The Open Source CFD Toolbox           |
|  \\    /   O peration     | Version:  2.4.0                                 |
|   \\  /    A nd           | Web:      www.OpenFOAM.org                      |
|    \\/     M anipulation  |                                                 |
\*---------------------------------------------------------------------------*/
FoamFile
{
    version     2.0;
    format      ascii;
    class       volVectorField;
    location    "1.7";
    object      U_0;
}
// * * * * * * * * * * * * * * * * * * * * * * * * * * * * * * * * * * * * * //

dimensions      [0 1 -1 0 0 0 0];

internalField   nonuniform List<vector> 
8800
(
(8.09323 0.387759 0)
(5.45147 0.242736 0)
(3.90834 0.0430557 0)
(3.16179 -0.0157581 0)
(2.79402 -0.0179181 0)
(2.60812 -0.011461 0)
(2.47293 -0.00534232 0)
(2.39191 -0.00238262 0)
(2.30534 -0.00146841 0)
(2.26369 -0.000824555 0)
(2.19978 -0.000163763 0)
(2.18298 -0.00086199 0)
(2.1228 0.000967419 0)
(2.11671 -0.000471416 0)
(2.05306 0.00105257 0)
(2.04936 0.000261734 0)
(1.98393 0.000494105 0)
(1.98322 -0.00205957 0)
(1.95685 0.0124615 0)
(1.75864 -0.0666745 0)
(10.0837 0.837831 0)
(9.66624 0.869 0)
(8.85866 0.506436 0)
(8.10355 0.261141 0)
(7.46738 0.139107 0)
(7.03979 0.0808937 0)
(6.66158 0.0551395 0)
(6.43634 0.0407251 0)
(6.18626 0.0298977 0)
(6.0652 0.024085 0)
(5.87818 0.020047 0)
(5.83075 0.0154411 0)
(5.65839 0.0187168 0)
(5.65404 0.0134423 0)
(5.48286 0.0189525 0)
(5.4848 0.0139573 0)
(5.33154 0.0204052 0)
(5.31386 -0.00107279 0)
(5.23959 0.0351153 0)
(5.10373 -0.0225119 0)
(10.0509 0.62911 0)
(10.6815 0.866352 0)
(10.8363 0.599905 0)
(10.7332 0.373763 0)
(10.4082 0.256954 0)
(10.1467 0.195024 0)
(9.77467 0.15491 0)
(9.56276 0.122973 0)
(9.24696 0.0944176 0)
(9.10636 0.0766204 0)
(8.84515 0.0608048 0)
(8.78792 0.0490558 0)
(8.53949 0.0498333 0)
(8.54121 0.0374062 0)
(8.30527 0.0466089 0)
(8.30577 0.0347856 0)
(8.11202 0.0487535 0)
(8.07814 0.0105057 0)
(7.95902 0.0505801 0)
(7.90451 -0.061778 0)
(9.9592 0.45431 0)
(10.6227 0.711982 0)
(11.1018 0.540844 0)
(11.4524 0.352805 0)
(11.4734 0.261377 0)
(11.5553 0.225896 0)
(11.3984 0.203216 0)
(11.3977 0.176107 0)
(11.2065 0.149003 0)
(11.1753 0.126813 0)
(10.9749 0.107641 0)
(10.9769 0.0894587 0)
(10.7479 0.0909467 0)
(10.7742 0.0668255 0)
(10.5654 0.0867334 0)
(10.5452 0.0588041 0)
(10.39 0.0869779 0)
(10.3396 0.034727 0)
(10.1897 0.07396 0)
(10.2131 -0.0745975 0)
(9.95627 0.339084 0)
(10.499 0.580029 0)
(10.9357 0.453891 0)
(11.405 0.300168 0)
(11.5556 0.207596 0)
(11.7848 0.189922 0)
(11.7849 0.181295 0)
(11.9126 0.167664 0)
(11.9064 0.146981 0)
(11.9835 0.136976 0)
(11.9351 0.110015 0)
(12.0337 0.105523 0)
(11.9442 0.103419 0)
(11.9956 0.0843611 0)
(11.9536 0.0994216 0)
(11.9242 0.0904513 0)
(11.8873 0.089627 0)
(11.8588 0.0895298 0)
(11.7659 0.0772934 0)
(11.7991 0.00194375 0)
(9.9742 0.247005 0)
(10.3976 0.468427 0)
(10.8166 0.366724 0)
(11.2391 0.245517 0)
(11.4633 0.161974 0)
(11.6818 0.147265 0)
(11.7573 0.155505 0)
(11.8623 0.135579 0)
(11.9669 0.124418 0)
(12.0394 0.117202 0)
(12.084 0.0935367 0)
(12.2109 0.085319 0)
(12.2476 0.0980269 0)
(12.2965 0.0645335 0)
(12.3813 0.0973673 0)
(12.3829 0.0856404 0)
(12.4375 0.0861328 0)
(12.468 0.101725 0)
(12.4571 0.113897 0)
(12.5216 0.0241484 0)
(9.97884 0.16933 0)
(10.334 0.365746 0)
(10.7624 0.286701 0)
(11.0808 0.210407 0)
(11.3675 0.113197 0)
(11.5989 0.108537 0)
(11.6571 0.113701 0)
(11.7797 0.111464 0)
(11.8754 0.0823175 0)
(11.9546 0.116763 0)
(12.0436 0.0485466 0)
(12.1353 0.0805016 0)
(12.1781 0.0653372 0)
(12.2864 0.0707258 0)
(12.358 0.0492824 0)
(12.3907 0.110137 0)
(12.4846 0.0274621 0)
(12.5237 0.14146 0)
(12.5197 0.0896644 0)
(12.5849 0.197051 0)
(9.9794 0.104862 0)
(10.2833 0.261615 0)
(10.6681 0.196244 0)
(11.0203 0.17707 0)
(11.3308 0.0523902 0)
(11.5242 0.0936246 0)
(11.5962 0.0750294 0)
(11.7189 0.0941835 0)
(11.7984 0.0406347 0)
(11.9075 0.0989809 0)
(11.9479 0.0177993 0)
(12.0252 0.0872069 0)
(12.1402 0.0221173 0)
(12.2256 0.0601794 0)
(12.2462 0.0272797 0)
(12.3616 0.10006 0)
(12.4228 0.00286176 0)
(12.4463 0.155316 0)
(12.5154 0.0742093 0)
(12.4817 0.18257 0)
(9.99782 0.0604315 0)
(10.2539 0.158466 0)
(10.5956 0.129066 0)
(10.9892 0.0947362 0)
(11.2684 0.0333674 0)
(11.444 0.0445718 0)
(11.6062 0.0548118 0)
(11.675 0.0403844 0)
(11.7431 0.026149 0)
(11.8387 0.0672924 0)
(11.9051 0.0216791 0)
(12.0439 0.0251143 0)
(12.1039 0.030406 0)
(12.1137 0.0289713 0)
(12.2204 0.0316602 0)
(12.3531 0.0427336 0)
(12.3433 0.0230981 0)
(12.4365 0.0793997 0)
(12.4918 0.0821055 0)
(12.3161 0.035215 0)
(9.99187 0.00929592 0)
(10.2198 0.065743 0)
(10.5982 0.0317828 0)
(10.988 0.0491117 0)
(11.2481 -0.0109576 0)
(11.4392 0.0213754 0)
(11.5679 0.0115559 0)
(11.66 0.0348116 0)
(11.6971 -0.00641031 0)
(11.7779 0.0407419 0)
(11.9467 -0.0237005 0)
(11.9964 0.0264946 0)
(12.0301 0.0190535 0)
(12.1426 0.0165785 0)
(12.2416 -0.0154969 0)
(12.2914 0.0426419 0)
(12.2985 -0.00769384 0)
(12.4166 0.060333 0)
(12.5092 0.0515848 0)
(12.3293 0.0255394 0)
(10.0034 -0.0238531 0)
(10.2101 -0.0379605 0)
(10.6055 -0.0457541 0)
(10.9906 -0.0300566 0)
(11.2469 -0.0259553 0)
(11.4031 -0.0186082 0)
(11.5437 -0.00721211 0)
(11.6815 -0.0161821 0)
(11.7161 -0.0112116 0)
(11.8175 -0.00771593 0)
(11.9123 -0.0295742 0)
(11.9546 0.00394176 0)
(12.0948 0.00280052 0)
(12.1747 -0.0267811 0)
(12.1776 -0.00311204 0)
(12.2858 0.0198195 0)
(12.3258 -0.0241742 0)
(12.3886 -0.00678497 0)
(12.5541 0.0379479 0)
(12.3647 0.0389139 0)
(9.99783 -0.0693167 0)
(10.2278 -0.137791 0)
(10.6427 -0.141934 0)
(10.9996 -0.0794702 0)
(11.2518 -0.0524471 0)
(11.4587 -0.0438365 0)
(11.572 -0.0562736 0)
(11.6464 -0.0432707 0)
(11.7653 -0.0397257 0)
(11.8737 -0.0311113 0)
(11.8974 -0.0410693 0)
(11.999 -0.033448 0)
(12.1066 -0.0183296 0)
(12.144 -0.018623 0)
(12.215 -0.0312137 0)
(12.3604 -0.0182529 0)
(12.3535 -0.0354767 0)
(12.3877 -0.0439152 0)
(12.5213 0.0115326 0)
(12.4127 0.0627204 0)
(9.99474 -0.116279 0)
(10.2771 -0.243724 0)
(10.6767 -0.215062 0)
(11.0185 -0.144321 0)
(11.3168 -0.0890712 0)
(11.5199 -0.0837678 0)
(11.5985 -0.0631918 0)
(11.6991 -0.0872296 0)
(11.8112 -0.0745652 0)
(11.8786 -0.0550929 0)
(11.9851 -0.0555759 0)
(12.0436 -0.0496632 0)
(12.1022 -0.0281009 0)
(12.2231 -0.0570694 0)
(12.2908 -0.0522732 0)
(12.3499 -0.0312701 0)
(12.4153 -0.0453773 0)
(12.4676 -0.0822577 0)
(12.4657 -0.0269414 0)
(12.4913 0.0485074 0)
(10.0243 -0.176516 0)
(10.2853 -0.350077 0)
(10.7683 -0.297641 0)
(11.1034 -0.19716 0)
(11.4012 -0.125824 0)
(11.5448 -0.113116 0)
(11.6853 -0.102447 0)
(11.775 -0.121463 0)
(11.8794 -0.0884804 0)
(11.9352 -0.0891635 0)
(12.0373 -0.0757366 0)
(12.1101 -0.0708965 0)
(12.21 -0.0520944 0)
(12.2894 -0.0743779 0)
(12.3354 -0.0567566 0)
(12.4048 -0.0633848 0)
(12.5074 -0.072448 0)
(12.5336 -0.0985773 0)
(12.5021 -0.0543375 0)
(12.5596 -0.0310406 0)
(10.0605 -0.252572 0)
(10.319 -0.453266 0)
(10.9024 -0.38379 0)
(11.1679 -0.241797 0)
(11.5331 -0.163013 0)
(11.6116 -0.15483 0)
(11.8056 -0.13349 0)
(11.8214 -0.15213 0)
(11.9977 -0.119151 0)
(11.9925 -0.110719 0)
(12.1421 -0.0945364 0)
(12.1506 -0.097494 0)
(12.2834 -0.0684847 0)
(12.2885 -0.0949958 0)
(12.3824 -0.0720154 0)
(12.3888 -0.09171 0)
(12.4915 -0.0823442 0)
(12.4431 -0.117108 0)
(12.4574 -0.0844915 0)
(12.4513 -0.092712 0)
(10.0608 -0.34834 0)
(10.3937 -0.565734 0)
(11.0529 -0.465366 0)
(11.2863 -0.287122 0)
(11.6758 -0.215582 0)
(11.6601 -0.191822 0)
(11.8952 -0.171418 0)
(11.8102 -0.178825 0)
(11.9976 -0.144795 0)
(11.8809 -0.128999 0)
(12.0414 -0.116678 0)
(11.9137 -0.109205 0)
(12.0606 -0.0853031 0)
(11.907 -0.102544 0)
(12.0245 -0.0795303 0)
(11.8781 -0.100319 0)
(11.9655 -0.0851885 0)
(11.7866 -0.122897 0)
(11.8213 -0.0980967 0)
(11.6472 -0.125003 0)
(10.0135 -0.458289 0)
(10.5586 -0.70436 0)
(11.1733 -0.547789 0)
(11.3641 -0.349663 0)
(11.574 -0.264704 0)
(11.437 -0.227221 0)
(11.5153 -0.195863 0)
(11.277 -0.182578 0)
(11.3153 -0.147064 0)
(11.061 -0.123555 0)
(11.0982 -0.107372 0)
(10.8344 -0.096874 0)
(10.9059 -0.0745457 0)
(10.6238 -0.0831565 0)
(10.7093 -0.0657208 0)
(10.4345 -0.082417 0)
(10.5093 -0.0634329 0)
(10.2173 -0.105542 0)
(10.2599 -0.0756873 0)
(9.95404 -0.133503 0)
(10.0663 -0.632563 0)
(10.6551 -0.862538 0)
(10.8695 -0.602543 0)
(10.6873 -0.371606 0)
(10.4643 -0.257241 0)
(10.0707 -0.196895 0)
(9.858 -0.150639 0)
(9.47279 -0.126092 0)
(9.33382 -0.0949467 0)
(9.01551 -0.0734565 0)
(8.94757 -0.0609154 0)
(8.66933 -0.0541118 0)
(8.67705 -0.0396293 0)
(8.40275 -0.0453366 0)
(8.45269 -0.0380061 0)
(8.18058 -0.0459309 0)
(8.23754 -0.0406257 0)
(7.9461 -0.06282 0)
(7.97827 -0.0582582 0)
(7.65916 -0.067832 0)
(10.0853 -0.838778 0)
(9.65588 -0.867374 0)
(8.87142 -0.507261 0)
(8.08163 -0.260955 0)
(7.49593 -0.138606 0)
(6.99863 -0.08285 0)
(6.70917 -0.0522503 0)
(6.38465 -0.0422802 0)
(6.23826 -0.0305698 0)
(6.00965 -0.0223987 0)
(5.94367 -0.0192388 0)
(5.75567 -0.019351 0)
(5.74713 -0.0124035 0)
(5.56528 -0.0178796 0)
(5.58524 -0.0148595 0)
(5.39528 -0.020314 0)
(5.42094 -0.0179189 0)
(5.20685 -0.0293531 0)
(5.21788 -0.0314191 0)
(4.95352 -0.00540052 0)
(8.09138 -0.388029 0)
(5.44912 -0.242397 0)
(3.91094 -0.0430609 0)
(3.15702 0.0156229 0)
(2.80217 0.0181671 0)
(2.59517 0.0107199 0)
(2.48777 0.00634735 0)
(2.37644 0.00183388 0)
(2.32192 0.00128687 0)
(2.24498 0.00122904 0)
(2.22338 0.000596199 0)
(2.15833 -0.000589676 0)
(2.15227 0.00102946 0)
(2.09038 -0.00105166 0)
(2.08913 -0.000134001 0)
(2.01759 -0.00186222 0)
(2.01505 -0.000508945 0)
(1.92972 -0.00358163 0)
(1.90285 -0.00343342 0)
(1.77072 0.0117364 0)
(2.18316 -0.0877474 0)
(2.2959 0.0279558 0)
(2.41187 0.0613606 0)
(2.51865 0.0552082 0)
(2.6025 0.035577 0)
(2.68197 0.0187375 0)
(2.74643 0.00991764 0)
(2.81153 0.00629603 0)
(2.86137 0.00750008 0)
(2.91347 0.0111711 0)
(2.94252 0.0118213 0)
(2.98588 0.0140564 0)
(2.99954 0.0100472 0)
(3.03869 0.00121035 0)
(3.04124 0.00833601 0)
(3.06214 0.00559449 0)
(3.07668 0.0270784 0)
(3.06226 0.0554564 0)
(3.07551 0.0853376 0)
(3.08672 0.1505 0)
(3.07191 0.226699 0)
(3.15693 0.306267 0)
(3.27772 0.432847 0)
(3.48574 0.529016 0)
(3.80093 0.622216 0)
(4.19903 0.680653 0)
(4.63804 0.694841 0)
(5.07271 0.614243 0)
(5.42146 0.387403 0)
(5.67927 0.109584 0)
(5.79427 -0.198096 0)
(5.77356 -0.516466 0)
(5.61754 -0.736884 0)
(5.3301 -0.880974 0)
(5.03215 -0.930275 0)
(4.69484 -0.855242 0)
(4.47275 -0.775793 0)
(4.37025 -0.606388 0)
(4.34654 -0.42742 0)
(4.3581 -0.337822 0)
(4.43411 -0.199433 0)
(4.54868 -0.0826322 0)
(4.71453 0.0222975 0)
(4.92433 0.151372 0)
(5.14454 0.190614 0)
(5.41708 0.276072 0)
(5.70013 0.277304 0)
(5.91487 0.205443 0)
(6.19747 0.333837 0)
(6.46608 0.258808 0)
(6.61294 0.192312 0)
(7.0176 0.324943 0)
(7.20221 0.154442 0)
(7.33573 0.0940973 0)
(7.89171 0.146968 0)
(7.96635 -0.0453035 0)
(8.16053 -0.114154 0)
(8.81747 -0.193347 0)
(8.75452 -0.319456 0)
(9.17531 -0.461888 0)
(9.78117 -0.66779 0)
(9.64141 -0.745573 0)
(10.2439 -0.988393 0)
(10.7096 -1.24754 0)
(10.5805 -1.25999 0)
(11.2849 -1.53592 0)
(11.5151 -1.84285 0)
(11.3944 -1.81486 0)
(11.9889 -2.05703 0)
(12.0961 -2.3425 0)
(11.9371 -2.18297 0)
(12.3823 -2.41593 0)
(12.4177 -2.64747 0)
(12.1997 -2.3995 0)
(12.5113 -2.65891 0)
(12.6079 -2.89362 0)
(12.2297 -2.59525 0)
(12.5312 -2.93933 0)
(12.4809 -3.1514 0)
(12.0742 -2.96888 0)
(12.1755 -3.31804 0)
(12.0416 -3.49492 0)
(11.4718 -3.39543 0)
(11.4134 -3.75254 0)
(11.0757 -3.81431 0)
(10.4255 -3.66268 0)
(10.3605 -3.92561 0)
(9.90471 -3.8434 0)
(9.47395 -3.44232 0)
(9.43327 -3.71335 0)
(9.43099 -3.77547 0)
(9.007 -3.42807 0)
(8.99993 -3.55964 0)
(9.15599 -3.89929 0)
(9.02962 -3.93782 0)
(8.51309 -3.66881 0)
(8.65878 -3.83484 0)
(9.03769 -4.27229 0)
(8.85356 -4.28277 0)
(8.81326 -3.9178 0)
(8.9411 -3.85337 0)
(9.12569 -3.73483 0)
(9.58653 -3.56343 0)
(10.5375 -3.68153 0)
(11.0338 -3.43407 0)
(11.5552 -2.71427 0)
(12.0867 -2.2612 0)
(12.4869 -1.70885 0)
(12.6651 -0.70671 0)
(12.7305 -0.0364992 0)
(12.7517 0.654796 0)
(12.8145 1.68223 0)
(12.4302 2.33578 0)
(12.115 2.89269 0)
(11.8696 3.93391 0)
(11.3822 4.59209 0)
(10.6413 4.86248 0)
(10.0305 5.48007 0)
(9.47128 6.03421 0)
(8.73232 6.17948 0)
(8.19382 6.23522 0)
(7.86083 6.59482 0)
(7.72417 7.43214 0)
(7.66977 8.11729 0)
(7.5284 8.3263 0)
(7.38799 8.25345 0)
(7.22415 7.9222 0)
(7.14552 7.62335 0)
(6.76699 6.90122 0)
(6.98857 6.16122 0)
(6.74647 4.82817 0)
(6.92006 3.94701 0)
(7.064 2.68916 0)
(6.81179 1.86037 0)
(6.9522 1.05082 0)
(6.84141 -0.129381 0)
(6.78612 -0.951691 0)
(6.75339 -2.38403 0)
(6.88728 -3.05339 0)
(6.87961 -3.52024 0)
(6.95573 -4.36147 0)
(7.13747 -5.2534 0)
(6.64934 -5.75446 0)
(7.02422 -5.6745 0)
(6.8613 -6.16796 0)
(6.77697 -5.78818 0)
(6.35947 -5.18284 0)
(6.99833 -4.81091 0)
(6.23391 -4.62962 0)
(6.82605 -4.16001 0)
(6.13958 -3.94393 0)
(7.13064 -3.63415 0)
(6.32004 -3.42446 0)
(6.9684 -3.23158 0)
(6.00956 -3.0064 0)
(7.11315 -2.92053 0)
(6.42243 -2.77219 0)
(6.95099 -2.21228 0)
(5.97695 -2.09889 0)
(6.68525 -2.02484 0)
(6.49785 -2.34792 0)
(7.15879 -2.25484 0)
(6.87281 -2.29882 0)
(7.39353 -2.21977 0)
(7.47949 -2.39946 0)
(8.01771 -2.50694 0)
(8.3872 -2.63687 0)
(8.88912 -2.45885 0)
(9.36425 -2.07808 0)
(9.91387 -1.88914 0)
(10.3664 -1.48229 0)
(10.8319 -0.852707 0)
(11.1886 -0.626104 0)
(11.5859 -0.18868 0)
(11.9262 0.290049 0)
(12.1042 0.721885 0)
(12.1918 1.28733 0)
(12.2139 2.19207 0)
(12.1959 2.90253 0)
(11.761 3.09884 0)
(11.3531 3.06728 0)
(10.911 3.01942 0)
(10.5727 3.18728 0)
(10.0208 3.25092 0)
(9.28761 2.75131 0)
(8.53145 2.64391 0)
(8.53888 3.37003 0)
(8.04994 4.25036 0)
(7.93994 4.89701 0)
(7.36093 5.36728 0)
(7.48167 6.20958 0)
(6.79566 6.39979 0)
(6.01877 6.18155 0)
(6.01602 6.66488 0)
(5.66778 7.72968 0)
(5.92905 8.86839 0)
(5.78901 9.33609 0)
(5.42049 9.54803 0)
(5.17726 9.74304 0)
(3.17417 11.4497 0)
(5.23076 -0.0469679 0)
(5.24845 -0.0153618 0)
(5.23556 0.00744214 0)
(5.22481 0.0143676 0)
(5.23254 0.000793275 0)
(5.25824 -0.0143606 0)
(5.28734 -0.0289198 0)
(5.32602 -0.0296831 0)
(5.35313 -0.0248486 0)
(5.37566 -0.0172285 0)
(5.3884 -5.65933e-05 0)
(5.38699 -0.00188529 0)
(5.39205 0.00316767 0)
(5.38403 0.00311414 0)
(5.37695 8.84815e-05 0)
(5.37995 0.0161701 0)
(5.35613 0.0284153 0)
(5.36514 0.0604504 0)
(5.33524 0.106605 0)
(5.32196 0.146358 0)
(5.3144 0.221485 0)
(5.2982 0.285933 0)
(5.3194 0.35455 0)
(5.39527 0.415039 0)
(5.48612 0.446907 0)
(5.64272 0.456831 0)
(5.84216 0.406367 0)
(6.08808 0.323993 0)
(6.32201 0.193979 0)
(6.51119 -0.0225038 0)
(6.63 -0.214419 0)
(6.66714 -0.431442 0)
(6.62126 -0.610619 0)
(6.5457 -0.692304 0)
(6.4116 -0.764709 0)
(6.30386 -0.716502 0)
(6.26761 -0.665584 0)
(6.21063 -0.596556 0)
(6.28012 -0.476691 0)
(6.31877 -0.437354 0)
(6.3963 -0.282013 0)
(6.59122 -0.185698 0)
(6.67193 -0.147736 0)
(6.87585 0.0369697 0)
(7.09476 0.0101779 0)
(7.18271 0.0490544 0)
(7.55471 0.152203 0)
(7.69991 0.0241235 0)
(7.83574 0.0933269 0)
(8.31105 0.0910991 0)
(8.28904 0.00299536 0)
(8.63597 0.0467026 0)
(9.08848 -0.0553048 0)
(8.97533 -0.067433 0)
(9.58013 -0.175211 0)
(9.83468 -0.299055 0)
(9.79465 -0.279411 0)
(10.5679 -0.548504 0)
(10.5993 -0.625698 0)
(10.7869 -0.651777 0)
(11.501 -1.04886 0)
(11.434 -1.05469 0)
(11.7724 -1.15562 0)
(12.3201 -1.57515 0)
(12.2436 -1.51909 0)
(12.5069 -1.67312 0)
(12.9485 -2.09566 0)
(12.7483 -1.93722 0)
(12.9297 -2.10418 0)
(13.2318 -2.42845 0)
(12.8532 -2.20436 0)
(13.0349 -2.36566 0)
(13.1575 -2.65482 0)
(12.7041 -2.35035 0)
(12.8888 -2.62309 0)
(12.9002 -2.78388 0)
(12.4663 -2.54693 0)
(12.5782 -2.87801 0)
(12.4032 -2.94799 0)
(12.0243 -2.83359 0)
(11.9193 -3.26739 0)
(11.6439 -3.20225 0)
(11.1331 -3.25084 0)
(11.0288 -3.66005 0)
(10.6318 -3.43517 0)
(10.2423 -3.41434 0)
(10.1859 -3.73449 0)
(9.83142 -3.38933 0)
(9.5402 -3.23209 0)
(9.75563 -3.70578 0)
(9.47722 -3.52114 0)
(9.05826 -3.23029 0)
(9.14323 -3.64442 0)
(9.04023 -3.84765 0)
(8.58723 -3.5801 0)
(8.31891 -3.59106 0)
(8.61379 -4.0575 0)
(8.75873 -4.25542 0)
(8.39909 -4.09139 0)
(8.31649 -3.93882 0)
(8.66664 -4.12299 0)
(9.19611 -4.22697 0)
(9.93682 -4.22761 0)
(10.7558 -4.28067 0)
(11.2884 -3.95053 0)
(11.5137 -3.11026 0)
(11.8223 -2.45747 0)
(12.1949 -1.87333 0)
(12.0788 -0.823477 0)
(12.1241 0.0334206 0)
(12.2468 0.720215 0)
(12.1261 1.77271 0)
(11.9357 2.57478 0)
(11.6835 3.1947 0)
(11.4732 4.16263 0)
(11.0852 4.99661 0)
(10.4976 5.34244 0)
(10.0172 5.9122 0)
(9.40976 6.6188 0)
(8.82815 6.67013 0)
(8.25324 6.62055 0)
(7.97903 6.85387 0)
(7.83372 7.50366 0)
(7.7386 8.23512 0)
(7.78151 8.4335 0)
(7.71696 8.35368 0)
(7.44854 8.08232 0)
(7.56225 7.5463 0)
(7.2652 6.91013 0)
(7.48532 6.0741 0)
(7.43022 4.81362 0)
(7.18057 3.8711 0)
(7.45578 2.72482 0)
(7.10335 1.85484 0)
(7.35464 1.06225 0)
(7.21327 -0.123356 0)
(7.4927 -1.09033 0)
(7.38209 -2.31819 0)
(7.53622 -3.20633 0)
(7.50731 -3.59646 0)
(7.57581 -4.52979 0)
(7.71938 -5.39623 0)
(7.25453 -5.64771 0)
(7.50078 -5.75038 0)
(7.31244 -6.04749 0)
(7.06483 -5.59895 0)
(6.85469 -5.18886 0)
(7.28893 -4.79681 0)
(6.56857 -4.64705 0)
(7.17354 -4.13353 0)
(6.654 -4.12396 0)
(7.31309 -3.63326 0)
(6.26074 -3.31265 0)
(7.15182 -3.00317 0)
(6.07794 -3.15277 0)
(7.17606 -2.90567 0)
(5.85573 -2.63779 0)
(6.88281 -2.08478 0)
(5.76694 -2.19653 0)
(6.92418 -2.08089 0)
(5.88715 -2.52643 0)
(6.81556 -2.27947 0)
(6.14631 -2.63209 0)
(7.07037 -2.54447 0)
(7.29191 -2.90718 0)
(8.05992 -2.94753 0)
(8.50008 -3.06143 0)
(8.95917 -2.85083 0)
(9.29023 -2.49409 0)
(9.75767 -2.30227 0)
(10.1552 -1.92863 0)
(10.5667 -1.28838 0)
(10.9379 -0.99217 0)
(11.4547 -0.470134 0)
(11.7849 0.135841 0)
(11.8196 0.496463 0)
(12.2196 1.11432 0)
(12.2902 2.06585 0)
(12.477 2.98816 0)
(12.1919 3.30745 0)
(11.8844 3.36707 0)
(11.3259 3.39058 0)
(10.7941 3.65722 0)
(10.1317 3.81681 0)
(9.64971 3.50123 0)
(8.73731 3.02823 0)
(8.63363 3.55637 0)
(8.27962 4.44916 0)
(7.92083 5.21232 0)
(7.58613 5.64762 0)
(7.27179 6.35023 0)
(7.31984 7.01419 0)
(6.49667 6.66058 0)
(5.86177 6.69503 0)
(6.28047 7.64636 0)
(6.33873 8.73871 0)
(6.65019 9.42049 0)
(6.61596 9.92714 0)
(7.89824 9.75712 0)
(5.80727 12.3299 0)
(7.90721 -0.0182996 0)
(7.90244 0.0442209 0)
(7.86899 0.059239 0)
(7.84593 0.0394832 0)
(7.83697 0.000805316 0)
(7.83777 -0.0300417 0)
(7.86136 -0.0460139 0)
(7.87575 -0.0463469 0)
(7.90085 -0.0363228 0)
(7.9012 -0.018218 0)
(7.89912 -0.00321636 0)
(7.8931 0.0116313 0)
(7.8695 0.0143893 0)
(7.86252 0.0102731 0)
(7.83589 0.0177738 0)
(7.81998 0.0212256 0)
(7.80546 0.0454257 0)
(7.78331 0.0728783 0)
(7.76956 0.111707 0)
(7.74674 0.165889 0)
(7.7309 0.213394 0)
(7.72999 0.27005 0)
(7.71433 0.32626 0)
(7.76575 0.358847 0)
(7.80602 0.374886 0)
(7.87645 0.378169 0)
(8.00041 0.322311 0)
(8.10364 0.239564 0)
(8.2544 0.119074 0)
(8.37556 -0.0603124 0)
(8.43117 -0.217697 0)
(8.54619 -0.410111 0)
(8.49436 -0.548192 0)
(8.51704 -0.643765 0)
(8.49741 -0.738814 0)
(8.38319 -0.700126 0)
(8.47599 -0.706191 0)
(8.37407 -0.673047 0)
(8.44509 -0.546193 0)
(8.59265 -0.544556 0)
(8.50285 -0.399609 0)
(8.82487 -0.305453 0)
(8.86369 -0.298278 0)
(8.91756 -0.138088 0)
(9.3471 -0.157353 0)
(9.21018 -0.0892337 0)
(9.57057 -0.0545312 0)
(9.86098 -0.139819 0)
(9.70903 -0.0202968 0)
(10.3459 -0.168907 0)
(10.3045 -0.156703 0)
(10.4208 -0.097209 0)
(11.1021 -0.366905 0)
(10.8226 -0.222675 0)
(11.3161 -0.372268 0)
(11.7602 -0.622339 0)
(11.5392 -0.437471 0)
(12.2005 -0.768635 0)
(12.3973 -0.931984 0)
(12.323 -0.810751 0)
(13.0117 -1.23085 0)
(13.0072 -1.31814 0)
(13.0493 -1.27317 0)
(13.6106 -1.70902 0)
(13.429 -1.70933 0)
(13.5131 -1.71038 0)
(13.906 -2.12568 0)
(13.4684 -1.99333 0)
(13.62 -2.08903 0)
(13.6846 -2.35669 0)
(13.1944 -2.14934 0)
(13.3023 -2.35736 0)
(13.1904 -2.4391 0)
(12.6548 -2.35878 0)
(12.8265 -2.55984 0)
(12.4864 -2.56272 0)
(12.2181 -2.61029 0)
(12.2091 -2.74209 0)
(11.8339 -2.70744 0)
(11.6486 -2.87147 0)
(11.507 -3.01989 0)
(11.0597 -2.92638 0)
(10.9964 -3.14995 0)
(10.7852 -3.25905 0)
(10.3686 -3.02919 0)
(10.3437 -3.25536 0)
(10.215 -3.40466 0)
(9.76446 -3.09843 0)
(9.80858 -3.28166 0)
(9.87062 -3.60535 0)
(9.22988 -3.19023 0)
(9.0034 -3.23385 0)
(9.20633 -3.68315 0)
(8.75852 -3.50043 0)
(8.20864 -3.28233 0)
(8.45764 -3.74748 0)
(8.57511 -4.1948 0)
(8.23903 -4.04089 0)
(7.75324 -3.90274 0)
(7.95339 -4.16296 0)
(8.61027 -4.64946 0)
(9.30838 -4.89727 0)
(10.0744 -4.87035 0)
(10.573 -4.68939 0)
(10.7741 -4.06385 0)
(10.9028 -3.17217 0)
(11.0662 -2.59875 0)
(11.2075 -1.85167 0)
(11.2266 -0.775841 0)
(11.2373 0.046413 0)
(11.3258 0.770444 0)
(11.3303 1.85137 0)
(11.149 2.69092 0)
(10.9934 3.43419 0)
(10.8602 4.4373 0)
(10.4795 5.30176 0)
(10.0782 5.76365 0)
(9.75827 6.3532 0)
(9.22237 7.00506 0)
(8.76214 7.13142 0)
(8.21371 6.96524 0)
(8.00003 7.05736 0)
(7.85446 7.62129 0)
(7.86298 8.24288 0)
(7.87657 8.51293 0)
(7.9712 8.40126 0)
(7.71397 8.18797 0)
(7.948 7.75751 0)
(7.82682 6.83438 0)
(7.86074 6.11286 0)
(7.95172 4.91609 0)
(7.6726 3.91712 0)
(7.6138 2.76616 0)
(7.56703 1.75009 0)
(7.88502 1.05257 0)
(7.80739 -0.182407 0)
(8.07622 -1.1292 0)
(8.12816 -2.38649 0)
(8.15316 -3.26337 0)
(8.17357 -3.49462 0)
(8.21714 -4.4444 0)
(8.27746 -5.16768 0)
(7.88805 -5.56409 0)
(8.0423 -5.74751 0)
(7.72247 -5.78532 0)
(7.56008 -5.591 0)
(7.38505 -5.11291 0)
(7.29489 -4.58094 0)
(6.96196 -4.54326 0)
(7.3725 -4.28248 0)
(6.93724 -3.9551 0)
(7.19588 -3.40556 0)
(6.47824 -3.30203 0)
(7.33447 -3.0271 0)
(6.30507 -3.11089 0)
(7.19377 -2.76723 0)
(5.80205 -2.48153 0)
(6.946 -2.12189 0)
(5.61077 -2.23956 0)
(7.05047 -2.03299 0)
(5.26592 -2.48948 0)
(6.68818 -2.26845 0)
(5.59477 -2.8848 0)
(7.0101 -2.95374 0)
(6.92287 -3.55367 0)
(7.74562 -3.49111 0)
(8.05476 -3.52662 0)
(8.44159 -3.26605 0)
(8.7126 -2.84339 0)
(9.00161 -2.59157 0)
(9.35273 -2.24606 0)
(9.65453 -1.7074 0)
(10.031 -1.30882 0)
(10.4945 -0.767619 0)
(10.8233 -0.0455368 0)
(10.8421 0.367643 0)
(11.3391 1.02957 0)
(11.635 1.91393 0)
(11.8907 3.00559 0)
(11.9617 3.60837 0)
(11.689 3.77181 0)
(11.4729 3.73876 0)
(10.8928 4.02624 0)
(10.3837 4.17767 0)
(9.69045 4.03205 0)
(9.06422 3.53924 0)
(8.43433 3.77881 0)
(8.58835 4.66935 0)
(7.89788 5.36451 0)
(7.79058 5.93943 0)
(7.45327 6.40455 0)
(7.17689 7.28013 0)
(7.34472 7.36301 0)
(6.21956 6.96792 0)
(6.31483 7.31658 0)
(6.96989 8.45219 0)
(7.53633 9.18207 0)
(6.96814 10.1319 0)
(9.94271 8.70415 0)
(8.14784 12.1742 0)
(10.2232 0.0299132 0)
(10.1874 0.10132 0)
(10.0976 0.101029 0)
(10.04 0.0646734 0)
(10.0278 -0.00334969 0)
(10.0355 -0.0269193 0)
(10.074 -0.0498455 0)
(10.0866 -0.0374385 0)
(10.1056 -0.0228221 0)
(10.0884 -0.0101099 0)
(10.0842 0.0175503 0)
(10.0628 0.017561 0)
(10.0463 0.037574 0)
(10.0358 0.0349647 0)
(10.0181 0.0357456 0)
(10.0048 0.0586069 0)
(9.98756 0.0627422 0)
(9.9679 0.0979942 0)
(9.95729 0.133758 0)
(9.94812 0.167459 0)
(9.93755 0.23181 0)
(9.96067 0.264882 0)
(9.95176 0.305308 0)
(9.99198 0.345141 0)
(10.04 0.329311 0)
(10.0616 0.32134 0)
(10.1877 0.266629 0)
(10.2238 0.178151 0)
(10.3313 0.0564533 0)
(10.4453 -0.0945058 0)
(10.4298 -0.230195 0)
(10.5843 -0.41685 0)
(10.5099 -0.516306 0)
(10.5387 -0.623647 0)
(10.5854 -0.720532 0)
(10.3904 -0.673626 0)
(10.5696 -0.740738 0)
(10.4319 -0.665162 0)
(10.4228 -0.579653 0)
(10.6854 -0.624035 0)
(10.4304 -0.410532 0)
(10.7912 -0.448972 0)
(10.8575 -0.393129 0)
(10.7448 -0.210915 0)
(11.3191 -0.374634 0)
(11.0555 -0.155664 0)
(11.3771 -0.207107 0)
(11.7413 -0.333852 0)
(11.4429 -0.0811364 0)
(12.0966 -0.384132 0)
(12.0598 -0.313253 0)
(12.0761 -0.224405 0)
(12.7055 -0.580193 0)
(12.4581 -0.403284 0)
(12.8159 -0.507432 0)
(13.1853 -0.810634 0)
(13.0134 -0.648277 0)
(13.4494 -0.883661 0)
(13.6063 -1.1113 0)
(13.5592 -0.992246 0)
(13.936 -1.31991 0)
(13.9608 -1.46348 0)
(13.9128 -1.39518 0)
(14.2185 -1.76213 0)
(14.0264 -1.7331 0)
(14.0217 -1.79981 0)
(14.1066 -2.0311 0)
(13.7602 -1.95045 0)
(13.7569 -2.06104 0)
(13.5797 -2.13003 0)
(13.2371 -2.07339 0)
(13.1919 -2.1796 0)
(12.8719 -2.19225 0)
(12.6338 -2.24813 0)
(12.4231 -2.36584 0)
(12.1923 -2.35776 0)
(12.0141 -2.48995 0)
(11.7625 -2.55748 0)
(11.6047 -2.5351 0)
(11.4244 -2.71525 0)
(11.2093 -2.78039 0)
(11.0177 -2.73323 0)
(10.9594 -2.99315 0)
(10.6382 -3.01927 0)
(10.399 -2.90928 0)
(10.4686 -3.26021 0)
(10.1563 -3.28163 0)
(9.88432 -3.03538 0)
(9.98097 -3.38202 0)
(9.63654 -3.32548 0)
(9.11375 -2.95383 0)
(9.23048 -3.26853 0)
(9.08657 -3.40629 0)
(8.39754 -3.02407 0)
(8.33598 -3.25807 0)
(8.56549 -3.8575 0)
(8.01149 -3.84922 0)
(7.28633 -3.58514 0)
(7.16202 -3.96238 0)
(7.76013 -4.71535 0)
(8.46231 -5.28612 0)
(9.17928 -5.46771 0)
(9.60009 -5.23218 0)
(9.74686 -4.77023 0)
(9.80357 -4.03132 0)
(9.80557 -3.25976 0)
(10.0981 -2.70383 0)
(10.2428 -2.0088 0)
(10.2164 -0.877674 0)
(10.4122 -0.0295162 0)
(10.4656 0.68396 0)
(10.3458 1.83352 0)
(10.3081 2.84035 0)
(10.2752 3.55002 0)
(10.0575 4.59908 0)
(9.758 5.4819 0)
(9.51865 6.07533 0)
(9.23466 6.6981 0)
(8.83012 7.35543 0)
(8.45547 7.5698 0)
(8.09294 7.21611 0)
(7.85665 7.19469 0)
(7.80128 7.68545 0)
(7.91538 8.09317 0)
(7.91195 8.49486 0)
(8.27859 8.49047 0)
(7.97363 8.20788 0)
(8.17932 7.75268 0)
(8.35181 6.91669 0)
(8.40809 6.18258 0)
(8.36638 5.08922 0)
(8.23934 4.03436 0)
(8.21925 2.94333 0)
(8.17123 1.62581 0)
(8.33069 0.900707 0)
(8.65322 -0.22747 0)
(8.52602 -1.3254 0)
(8.98151 -2.31311 0)
(8.67286 -3.31288 0)
(8.80714 -3.63045 0)
(8.79893 -4.48342 0)
(8.71488 -5.19207 0)
(8.44092 -5.38324 0)
(8.42725 -5.57163 0)
(8.07524 -5.69235 0)
(7.98115 -5.3803 0)
(7.62254 -4.86889 0)
(7.44496 -4.53511 0)
(7.49675 -4.49065 0)
(7.20506 -4.26177 0)
(7.18876 -3.83261 0)
(7.03802 -3.35077 0)
(6.75909 -3.18662 0)
(7.1252 -3.02687 0)
(6.5806 -2.96127 0)
(6.95185 -2.55063 0)
(5.97383 -2.33498 0)
(6.73214 -2.13813 0)
(5.56607 -2.15051 0)
(6.64937 -1.88788 0)
(4.76816 -2.26645 0)
(6.57763 -2.42848 0)
(5.27491 -3.26494 0)
(7.06111 -3.40098 0)
(6.38971 -3.91087 0)
(7.31356 -3.66776 0)
(7.18856 -3.67836 0)
(7.35813 -3.2314 0)
(7.47787 -2.92101 0)
(7.65712 -2.63516 0)
(8.07201 -2.31002 0)
(8.27293 -1.95018 0)
(8.87789 -1.50761 0)
(9.31708 -1.02297 0)
(9.50898 -0.327488 0)
(9.71189 0.089443 0)
(10.1515 0.678755 0)
(10.6104 1.53659 0)
(10.8822 2.59642 0)
(11.4604 3.48008 0)
(11.1199 3.85005 0)
(11.1118 4.10131 0)
(10.3656 4.56834 0)
(9.86422 4.83215 0)
(9.02873 4.52546 0)
(8.72168 4.15292 0)
(8.07215 4.03785 0)
(8.2883 4.93129 0)
(8.0735 5.63005 0)
(7.48496 6.22575 0)
(7.70451 6.61747 0)
(7.09074 7.19856 0)
(7.38074 7.62721 0)
(7.35519 7.37659 0)
(6.54898 7.25006 0)
(6.86599 7.94317 0)
(8.88902 8.15789 0)
(7.24539 10.5076 0)
(10.6685 7.47409 0)
(9.63151 11.3299 0)
(11.8322 0.0520022 0)
(11.8122 0.067582 0)
(11.7077 0.0347554 0)
(11.6473 0.00762706 0)
(11.6502 -0.0497109 0)
(11.6498 -0.0590333 0)
(11.7197 -0.0659829 0)
(11.7224 -0.0476622 0)
(11.7534 -0.024005 0)
(11.7374 -0.00753643 0)
(11.7162 0.013728 0)
(11.6988 0.0232365 0)
(11.6612 0.0263424 0)
(11.6432 0.0283877 0)
(11.6362 0.0310425 0)
(11.6099 0.0467795 0)
(11.625 0.0729661 0)
(11.6202 0.0971541 0)
(11.6143 0.135835 0)
(11.6438 0.163091 0)
(11.6222 0.205069 0)
(11.6762 0.233541 0)
(11.6868 0.263084 0)
(11.7092 0.285324 0)
(11.8011 0.269407 0)
(11.7861 0.26018 0)
(11.936 0.183418 0)
(11.9417 0.132193 0)
(12.0301 -0.00204613 0)
(12.146 -0.133761 0)
(12.0806 -0.230527 0)
(12.2621 -0.437222 0)
(12.1348 -0.47908 0)
(12.1672 -0.609897 0)
(12.2148 -0.705127 0)
(11.9729 -0.629315 0)
(12.1856 -0.766644 0)
(11.9641 -0.645282 0)
(11.9568 -0.599165 0)
(12.1749 -0.679945 0)
(11.8425 -0.438718 0)
(12.2368 -0.556444 0)
(12.1712 -0.475629 0)
(12.1311 -0.320302 0)
(12.6061 -0.50339 0)
(12.323 -0.272028 0)
(12.7068 -0.338446 0)
(12.8636 -0.434985 0)
(12.757 -0.237802 0)
(13.215 -0.472143 0)
(13.1505 -0.441217 0)
(13.2986 -0.387035 0)
(13.5689 -0.65058 0)
(13.5683 -0.55758 0)
(13.7017 -0.661585 0)
(13.9292 -0.872276 0)
(13.8874 -0.811841 0)
(14.0334 -1.01114 0)
(14.1901 -1.13368 0)
(14.073 -1.16556 0)
(14.2737 -1.39042 0)
(14.2309 -1.42284 0)
(14.1336 -1.55192 0)
(14.265 -1.66402 0)
(13.9993 -1.68655 0)
(13.9918 -1.82129 0)
(13.86 -1.8058 0)
(13.585 -1.8557 0)
(13.4926 -1.93508 0)
(13.264 -1.85366 0)
(12.9899 -1.95973 0)
(12.9112 -1.98841 0)
(12.5916 -1.94475 0)
(12.4193 -2.15201 0)
(12.19 -2.13862 0)
(11.9339 -2.19505 0)
(11.8161 -2.39586 0)
(11.5687 -2.36393 0)
(11.3636 -2.41424 0)
(11.3763 -2.62019 0)
(11.1082 -2.56579 0)
(11.0023 -2.63712 0)
(11.0042 -2.83995 0)
(10.721 -2.7854 0)
(10.5955 -2.81076 0)
(10.6121 -3.0436 0)
(10.2555 -2.96175 0)
(10.0477 -2.89211 0)
(10.0233 -3.09457 0)
(9.61286 -2.89958 0)
(9.26201 -2.73956 0)
(9.26774 -3.02192 0)
(8.84173 -2.87787 0)
(8.26654 -2.69507 0)
(8.24389 -3.25215 0)
(7.92121 -3.53456 0)
(6.91565 -3.24738 0)
(6.40274 -3.42134 0)
(6.70821 -4.36478 0)
(7.44115 -5.31444 0)
(8.02318 -5.78037 0)
(8.48319 -5.75149 0)
(8.69199 -5.32359 0)
(8.61852 -4.69761 0)
(8.73756 -4.02582 0)
(8.87236 -3.47337 0)
(9.01614 -2.80615 0)
(9.11196 -1.92949 0)
(9.21938 -0.930348 0)
(9.29279 -0.115592 0)
(9.35457 0.769075 0)
(9.27417 1.80917 0)
(9.27197 2.83241 0)
(9.27285 3.7139 0)
(9.15276 4.77046 0)
(8.89324 5.6736 0)
(8.74402 6.24515 0)
(8.64557 6.95284 0)
(8.30733 7.5597 0)
(7.97265 7.77021 0)
(7.84097 7.50925 0)
(7.62982 7.2747 0)
(7.59202 7.63928 0)
(7.97692 8.0277 0)
(7.90098 8.31484 0)
(8.30948 8.45685 0)
(8.40071 8.2741 0)
(8.50419 7.72625 0)
(8.54984 6.81091 0)
(8.939 6.13044 0)
(8.98307 5.31331 0)
(8.86078 4.07959 0)
(8.99439 2.93726 0)
(9.08269 1.64309 0)
(8.91062 0.650965 0)
(9.46146 -0.318255 0)
(9.21152 -1.43912 0)
(9.55461 -2.47968 0)
(9.30375 -3.21065 0)
(9.36592 -3.64456 0)
(9.35987 -4.32737 0)
(9.31609 -5.00923 0)
(8.82527 -5.21731 0)
(8.84281 -5.40767 0)
(8.36465 -5.48954 0)
(8.23322 -5.18541 0)
(7.87076 -4.68271 0)
(7.70234 -4.48598 0)
(7.74253 -4.37395 0)
(7.20991 -4.07485 0)
(7.3306 -3.63713 0)
(6.78401 -3.19622 0)
(6.97505 -3.15538 0)
(6.86235 -3.10258 0)
(6.89306 -2.75831 0)
(6.59364 -2.28621 0)
(6.20932 -2.15261 0)
(6.22692 -1.93473 0)
(5.47905 -1.85039 0)
(5.57293 -1.72302 0)
(4.55698 -2.30103 0)
(5.99654 -2.78491 0)
(4.87268 -3.51456 0)
(6.53285 -3.66094 0)
(5.37041 -4.01017 0)
(6.64132 -3.61656 0)
(6.04991 -3.73643 0)
(6.45699 -3.08302 0)
(6.52275 -3.00667 0)
(6.6477 -2.84188 0)
(7.21317 -2.55399 0)