/*--------------------------------*- C++ -*----------------------------------*\
| =========                 |                                                 |
| \\      /  F ield         | OpenFOAM: The Open Source CFD Toolbox           |
|  \\    /   O peration     | Version:  2.4.0                                 |
|   \\  /    A nd           | Web:      www.OpenFOAM.org                      |
|    \\/     M anipulation  |                                                 |
\*---------------------------------------------------------------------------*/
FoamFile
{
    version     2.0;
    format      ascii;
    class       volVectorField;
    location    "1.7";
    object      UMean;
}
// * * * * * * * * * * * * * * * * * * * * * * * * * * * * * * * * * * * * * //

dimensions      [0 1 -1 0 0 0 0];

internalField   nonuniform List<vector> 
8800
(
(8.09336 0.3873 0)
(5.45603 0.242639 0)
(3.92442 0.0429693 0)
(3.15991 -0.0152066 0)
(2.81807 -0.018455 0)
(2.59944 -0.0108413 0)
(2.5077 -0.00589514 0)
(2.38141 -0.0019638 0)
(2.34882 -0.00180296 0)
(2.25183 -0.000162623 0)
(2.25192 -0.00106211 0)
(2.16838 0.000473372 0)
(2.18387 -0.00057353 0)
(2.10161 0.000983332 0)
(2.12228 -0.000247765 0)
(2.03784 0.00134882 0)
(2.06094 -0.000426456 0)
(1.96985 0.000667925 0)
(2.03239 0.0080569 0)
(1.73003 -0.0643272 0)
(10.089 0.836498 0)
(9.65071 0.866908 0)
(8.89543 0.505811 0)
(8.06647 0.261882 0)
(7.52809 0.137107 0)
(6.98305 0.0821965 0)
(6.74616 0.052689 0)
(6.37123 0.0407607 0)
(6.29072 0.0281416 0)
(5.99457 0.0247874 0)
(6.00709 0.0168193 0)
(5.74901 0.0184261 0)
(5.81405 0.013104 0)
(5.56626 0.0172023 0)
(5.65891 0.0129003 0)
(5.40641 0.0166537 0)
(5.52059 0.016023 0)
(5.24188 0.00759154 0)
(5.42789 0.0303734 0)
(5.02012 -0.0435412 0)
(10.0848 0.629945 0)
(10.6284 0.862242 0)
(10.9134 0.599514 0)
(10.6437 0.373487 0)
(10.5159 0.254148 0)
(10.0261 0.1965 0)
(9.91243 0.150689 0)
(9.4272 0.122737 0)
(9.40931 0.0909131 0)
(8.96182 0.0766062 0)
(9.04168 0.0552958 0)
(8.624 0.0530163 0)
(8.77702 0.0393266 0)
(8.3664 0.0435533 0)
(8.56942 0.0344724 0)
(8.1464 0.0390139 0)
(8.39053 0.0375653 0)
(7.93326 0.0287567 0)
(8.24169 0.0410622 0)
(7.73308 -0.0501027 0)
(10.0648 0.4565 0)
(10.4957 0.704091 0)
(11.2533 0.543687 0)
(11.2834 0.352689 0)
(11.654 0.259759 0)
(11.3562 0.228026 0)
(11.6018 0.196885 0)
(11.1864 0.176222 0)
(11.4235 0.143091 0)
(10.9569 0.126418 0)
(11.2261 0.0994201 0)
(10.7328 0.0938305 0)
(11.0434 0.0749802 0)
(10.5248 0.0772533 0)
(10.8751 0.0638063 0)
(10.3261 0.0695194 0)
(10.7142 0.0607074 0)
(10.1267 0.0640395 0)
(10.5511 0.0465228 0)
(9.93756 0.0232134 0)
(10.1786 0.346125 0)
(10.2706 0.56669 0)
(11.186 0.457861 0)
(11.1668 0.295768 0)
(11.7997 0.205706 0)
(11.532 0.194861 0)
(12.0306 0.17391 0)
(11.6753 0.171748 0)
(12.1416 0.139369 0)
(11.7411 0.135534 0)
(12.1996 0.102775 0)
(11.7651 0.110113 0)
(12.2219 0.0808524 0)
(11.7552 0.0997313 0)
(12.2114 0.0694079 0)
(11.7135 0.0991019 0)
(12.1679 0.0625894 0)
(11.6391 0.104595 0)
(12.0835 0.041209 0)
(11.5277 0.0849745 0)
(10.2071 0.249334 0)
(10.1867 0.456438 0)
(11.0316 0.371678 0)
(11.0636 0.2503 0)
(11.654 0.155827 0)
(11.4951 0.154775 0)
(11.9248 0.136219 0)
(11.7157 0.145496 0)
(12.1014 0.11253 0)
(11.8896 0.117209 0)
(12.2541 0.0826942 0)
(12.0419 0.0965317 0)
(12.3858 0.0659873 0)
(12.1701 0.0901165 0)
(12.4912 0.0598733 0)
(12.2703 0.092771 0)
(12.5649 0.0589386 0)
(12.3352 0.101236 0)
(12.5897 0.0488552 0)
(12.3263 0.0554022 0)
(10.0874 0.168849 0)
(10.246 0.358956 0)
(10.8061 0.280513 0)
(11.0738 0.211732 0)
(11.4336 0.108829 0)
(11.522 0.1236 0)
(11.7133 0.0944333 0)
(11.7409 0.124884 0)
(11.8901 0.0761011 0)
(11.9203 0.103582 0)
(12.0545 0.0503575 0)
(12.0884 0.0881316 0)
(12.2076 0.034756 0)
(12.241 0.0857947 0)
(12.3441 0.0282997 0)
(12.3744 0.0925398 0)
(12.4602 0.025621 0)
(12.481 0.10631 0)
(12.5311 0.0199135 0)
(12.4926 0.0974928 0)
(9.97759 0.103541 0)
(10.2988 0.263627 0)
(10.6398 0.190584 0)
(11.0758 0.165188 0)
(11.2749 0.0674001 0)
(11.5319 0.0938105 0)
(11.5669 0.0569392 0)
(11.7426 0.100414 0)
(11.7411 0.0443243 0)
(11.9147 0.084886 0)
(11.9066 0.0248741 0)
(12.0793 0.0737998 0)
(12.0632 0.0127129 0)
(12.2298 0.0725237 0)
(12.2048 0.0075783 0)
(12.3628 0.0781862 0)
(12.3282 0.00533048 0)
(12.4716 0.0895842 0)
(12.4117 0.000580677 0)
(12.4616 0.0830705 0)
(9.90758 0.055641 0)
(10.3317 0.161451 0)
(10.5314 0.11077 0)
(11.0744 0.104068 0)
(11.1704 0.0359055 0)
(11.5362 0.0590131 0)
(11.4708 0.0297961 0)
(11.742 0.0649979 0)
(11.6423 0.0228549 0)
(11.9099 0.0548132 0)
(11.8085 0.0105883 0)
(12.0735 0.0475308 0)
(11.9666 0.00334944 0)
(12.2244 0.0457211 0)
(12.1095 0.000173455 0)
(12.3584 0.0474254 0)
(12.2348 -0.00130276 0)
(12.4683 0.049981 0)
(12.3138 -0.0106547 0)
(12.4383 0.0101544 0)
(9.89581 0.00859593 0)
(10.3262 0.0667506 0)
(10.4983 0.0258456 0)
(11.053 0.0476347 0)
(11.1411 0.000113684 0)
(11.5185 0.032874 0)
(11.4486 -0.00244562 0)
(11.7228 0.0363778 0)
(11.6207 -0.00531252 0)
(11.8896 0.0329956 0)
(11.7886 -0.0105445 0)
(12.0541 0.0306105 0)
(11.9486 -0.0142492 0)
(12.2067 0.0296084 0)
(12.0933 -0.0174899 0)
(12.3431 0.0286687 0)
(12.2199 -0.0215188 0)
(12.4553 0.0248269 0)
(12.2962 -0.0335977 0)
(12.4233 -0.00492952 0)
(9.91641 -0.0303585 0)
(10.3063 -0.0348481 0)
(10.5193 -0.0544518 0)
(11.0372 -0.018089 0)
(11.1644 -0.0301896 0)
(11.5055 -0.00252149 0)
(11.4741 -0.0291108 0)
(11.7128 -0.00300488 0)
(11.6476 -0.0280077 0)
(11.8828 0.000726379 0)
(11.8172 -0.0255494 0)
(12.0503 0.00311889 0)
(11.9788 -0.0261056 0)
(12.2062 0.00234791 0)
(12.1249 -0.0297281 0)
(12.3466 -0.00157321 0)
(12.2532 -0.036567 0)
(12.4628 -0.0095562 0)
(12.3302 -0.0487063 0)
(12.4319 -0.0290227 0)
(9.94901 -0.0750548 0)
(10.2891 -0.134156 0)
(10.5743 -0.13681 0)
(11.0371 -0.0793746 0)
(11.2197 -0.0621945 0)
(11.5027 -0.0336613 0)
(11.5262 -0.0573921 0)
(11.7128 -0.0371995 0)
(11.7024 -0.0519818 0)
(11.8858 -0.0266049 0)
(11.8731 -0.0421635 0)
(12.055 -0.0193851 0)
(12.0356 -0.0393631 0)
(12.2125 -0.0196888 0)
(12.1831 -0.0432769 0)
(12.3542 -0.026466 0)
(12.3131 -0.0528584 0)
(12.4718 -0.0390576 0)
(12.3925 -0.0651865 0)
(12.4412 -0.0487584 0)
(9.97609 -0.12285 0)
(10.2907 -0.238378 0)
(10.6449 -0.216357 0)
(11.0658 -0.141729 0)
(11.2878 -0.0931986 0)
(11.5212 -0.068649 0)
(11.5863 -0.0847593 0)
(11.7328 -0.0727907 0)
(11.7655 -0.0746905 0)
(11.9075 -0.0559038 0)
(11.9367 -0.0586629 0)
(12.0762 -0.0439524 0)
(12.0989 -0.0525563 0)
(12.2325 -0.0431512 0)
(12.2464 -0.0569661 0)
(12.3728 -0.0521592 0)
(12.3768 -0.0704857 0)
(12.4888 -0.0697331 0)
(12.4587 -0.0872659 0)
(12.4602 -0.0688448 0)
(10.0124 -0.18236 0)
(10.3001 -0.342818 0)
(10.7469 -0.298442 0)
(11.1155 -0.19718 0)
(11.3845 -0.127091 0)
(11.5581 -0.107283 0)
(11.6712 -0.11356 0)
(11.7736 -0.108296 0)
(11.8532 -0.097283 0)
(11.9517 -0.0860095 0)
(12.023 -0.0751268 0)
(12.1202 -0.0701829 0)
(12.1821 -0.0652804 0)
(12.2746 -0.0683729 0)
(12.3252 -0.0688692 0)
(12.4113 -0.0789028 0)
(12.4488 -0.0852214 0)
(12.5215 -0.102219 0)
(12.524 -0.108764 0)
(12.4934 -0.100352 0)
(10.0549 -0.257628 0)
(10.3172 -0.447478 0)
(10.8909 -0.3821 0)
(11.1808 -0.243204 0)
(11.5212 -0.165918 0)
(11.6058 -0.146794 0)
(11.7958 -0.145514 0)
(11.8219 -0.139799 0)
(11.9741 -0.122166 0)
(11.9936 -0.112613 0)
(12.1282 -0.0940967 0)
(12.1448 -0.0939911 0)
(12.2611 -0.0802034 0)
(12.2722 -0.0912531 0)
(12.3666 -0.0806521 0)
(12.3706 -0.102178 0)
(12.4376 -0.0958873 0)
(12.4285 -0.130462 0)
(12.4443 -0.125054 0)
(12.3462 -0.140181 0)
(10.0504 -0.351485 0)
(10.393 -0.560038 0)
(11.0455 -0.464423 0)
(11.2971 -0.290089 0)
(11.6544 -0.212973 0)
(11.6642 -0.188208 0)
(11.878 -0.181109 0)
(11.8106 -0.166605 0)
(11.9796 -0.147537 0)
(11.8802 -0.131158 0)
(12.0267 -0.112609 0)
(11.9077 -0.107399 0)
(12.0349 -0.0933054 0)
(11.9001 -0.100563 0)
(12.0037 -0.0878143 0)
(11.856 -0.108132 0)
(11.9259 -0.0969949 0)
(11.7637 -0.137074 0)
(11.7672 -0.125619 0)
(11.5416 -0.163253 0)
(10.0037 -0.459743 0)
(10.5599 -0.700465 0)
(11.1675 -0.546414 0)
(11.3673 -0.350369 0)
(11.5572 -0.263795 0)
(11.4484 -0.22518 0)
(11.4934 -0.200992 0)
(11.2851 -0.174118 0)
(11.3026 -0.147784 0)
(11.0602 -0.125037 0)
(11.0908 -0.104627 0)
(10.8383 -0.0947156 0)
(10.8891 -0.0807493 0)
(10.629 -0.0834512 0)
(10.6919 -0.0710835 0)
(10.4211 -0.0879084 0)
(10.4783 -0.0746368 0)
(10.1894 -0.116091 0)
(10.1949 -0.0960474 0)
(9.85913 -0.161388 0)
(10.0595 -0.633029 0)
(10.6551 -0.859179 0)
(10.8659 -0.600893 0)
(10.6904 -0.372072 0)
(10.4577 -0.256893 0)
(10.082 -0.194814 0)
(9.84275 -0.153569 0)
(9.48817 -0.120902 0)
(9.32967 -0.0943868 0)
(9.02402 -0.0749683 0)
(8.95238 -0.0594222 0)
(8.68299 -0.0525009 0)
(8.67492 -0.0444089 0)
(8.41632 -0.0461475 0)
(8.44489 -0.0412346 0)
(8.17689 -0.0504947 0)
(8.21569 -0.0484772 0)
(7.91854 -0.0699799 0)
(7.92058 -0.0713014 0)
(7.57309 -0.0901613 0)
(10.081 -0.838069 0)
(9.65639 -0.865075 0)
(8.87409 -0.506231 0)
(8.08908 -0.261163 0)
(7.49863 -0.138664 0)
(7.01183 -0.0814908 0)
(6.70687 -0.054007 0)
(6.40349 -0.0398757 0)
(6.24483 -0.0297777 0)
(6.02615 -0.0240226 0)
(5.95592 -0.0187711 0)
(5.77501 -0.0182586 0)
(5.75567 -0.015508 0)
(5.58047 -0.0185914 0)
(5.58559 -0.0164439 0)
(5.39699 -0.0229726 0)
(5.40615 -0.0220979 0)
(5.18346 -0.0328477 0)
(5.17189 -0.038581 0)
(4.87597 -0.0200177 0)
(8.09142 -0.387705 0)
(5.45424 -0.242078 0)
(3.92014 -0.0432286 0)
(3.16745 0.0152874 0)
(2.80996 0.0180271 0)
(2.6073 0.0111462 0)
(2.49506 0.00560284 0)
(2.39031 0.00229058 0)
(2.33385 0.00145808 0)
(2.2601 0.00044317 0)
(2.23443 0.000687668 0)
(2.17365 -0.000238249 0)
(2.16278 0.000175407 0)
(2.09991 -0.00108079 0)
(2.09303 -0.00033517 0)
(2.02018 -0.00226268 0)
(2.00791 -0.00113201 0)
(1.91637 -0.00384603 0)
(1.87821 -0.00429723 0)
(1.72612 0.0112839 0)
(2.28141 -0.114263 0)
(2.32626 -0.0238995 0)
(2.56471 -0.00488008 0)
(2.62205 -0.00810388 0)
(2.85554 -0.0263323 0)
(2.88204 -0.0314489 0)
(3.09398 -0.0411094 0)
(3.08801 -0.0369859 0)
(3.27564 -0.0441272 0)
(3.24449 -0.0426445 0)
(3.42134 -0.0514695 0)
(3.37372 -0.0503672 0)
(3.55045 -0.0604617 0)
(3.49589 -0.0592599 0)
(3.67673 -0.0690381 0)
(3.61915 -0.0671676 0)
(3.80779 -0.0765435 0)
(3.74919 -0.0739272 0)
(3.95039 -0.0828978 0)
(3.8921 -0.0785326 0)
(4.10157 -0.089755 0)
(4.03901 -0.0886498 0)
(4.25314 -0.103097 0)
(4.18429 -0.104051 0)
(4.40113 -0.121329 0)
(4.32417 -0.124311 0)
(4.54144 -0.142754 0)
(4.45573 -0.144061 0)
(4.6738 -0.160055 0)
(4.58483 -0.158211 0)
(4.8076 -0.173702 0)
(4.72274 -0.171794 0)
(4.95336 -0.188716 0)
(4.87238 -0.187236 0)
(5.10748 -0.204636 0)
(5.02492 -0.202369 0)
(5.26463 -0.219939 0)
(5.1773 -0.216995 0)
(5.42454 -0.235635 0)
(5.3304 -0.234065 0)
(5.58807 -0.255351 0)
(5.48473 -0.258146 0)
(5.75307 -0.28581 0)
(5.63769 -0.293613 0)
(5.9101 -0.32576 0)
(5.78044 -0.334817 0)
(6.05343 -0.36865 0)
(5.91375 -0.374222 0)
(6.18645 -0.406773 0)
(6.04179 -0.407467 0)
(6.31682 -0.437243 0)
(6.16828 -0.432504 0)
(6.4522 -0.459317 0)
(6.29763 -0.451423 0)
(6.59718 -0.477512 0)
(6.43173 -0.46798 0)
(6.75069 -0.495178 0)
(6.57208 -0.48593 0)
(6.90924 -0.514511 0)
(6.71511 -0.505794 0)
(7.06814 -0.538119 0)
(6.86383 -0.532004 0)
(7.22918 -0.570867 0)
(7.02279 -0.569263 0)
(7.38942 -0.616171 0)
(7.18306 -0.61835 0)
(7.5386 -0.669517 0)
(7.32569 -0.672354 0)
(7.66783 -0.722058 0)
(7.44331 -0.721649 0)
(7.77955 -0.770249 0)
(7.54311 -0.764035 0)
(7.87921 -0.808685 0)
(7.6308 -0.796345 0)
(7.98032 -0.838808 0)
(7.72259 -0.82097 0)
(8.09073 -0.861367 0)
(7.83122 -0.839223 0)
(8.21634 -0.881846 0)
(7.95529 -0.855581 0)
(8.35504 -0.89964 0)
(8.08862 -0.869503 0)
(8.49913 -0.911148 0)
(8.22205 -0.879846 0)
(8.63904 -0.921667 0)
(8.35681 -0.889852 0)
(8.76439 -0.936635 0)
(8.49078 -0.90535 0)
(8.87561 -0.955292 0)
(8.61173 -0.92247 0)
(8.97193 -0.97138 0)
(8.71841 -0.938166 0)
(9.05698 -0.98694 0)
(8.80739 -0.951876 0)
(9.12819 -0.998324 0)
(8.88047 -0.95765 0)
(9.18837 -1.00311 0)
(8.939 -0.958979 0)
(9.23866 -1.00259 0)
(8.99511 -0.956009 0)
(9.29361 -1.00355 0)
(9.0553 -0.955861 0)
(9.35843 -1.00767 0)
(9.11698 -0.954373 0)
(9.42184 -1.00529 0)
(9.1722 -0.943994 0)
(9.47194 -0.999796 0)
(9.21018 -0.934599 0)
(9.49889 -0.994227 0)
(9.23023 -0.921536 0)
(9.50931 -0.981709 0)
(9.23383 -0.904907 0)
(9.49927 -0.963002 0)
(9.21537 -0.880078 0)
(9.4718 -0.938459 0)
(9.19375 -0.849524 0)
(9.44532 -0.906078 0)
(9.18225 -0.815023 0)
(9.42257 -0.873101 0)
(9.17001 -0.782632 0)
(9.39974 -0.841869 0)
(9.16173 -0.752585 0)
(9.38516 -0.818136 0)
(9.1558 -0.72753 0)
(9.37146 -0.797709 0)
(9.13834 -0.707561 0)
(9.35837 -0.775635 0)
(9.11808 -0.681404 0)
(9.34693 -0.740642 0)
(9.10689 -0.641905 0)
(9.33529 -0.692017 0)
(9.1085 -0.591342 0)
(9.32134 -0.640688 0)
(9.10849 -0.540217 0)
(9.3045 -0.592737 0)
(9.10118 -0.49279 0)
(9.28333 -0.540495 0)
(9.09127 -0.432814 0)
(9.26385 -0.47764 0)
(9.08935 -0.372489 0)
(9.24609 -0.419853 0)
(9.08767 -0.317245 0)
(9.22402 -0.35854 0)
(9.08749 -0.261061 0)
(9.20479 -0.300248 0)
(9.08493 -0.205286 0)
(9.17055 -0.230821 0)
(9.06862 -0.140578 0)
(9.12774 -0.160864 0)
(9.0443 -0.0706911 0)
(9.07584 -0.0890546 0)
(9.00685 0.00958104 0)
(9.01978 -0.000180933 0)
(8.96472 0.100622 0)
(8.97007 0.0851245 0)
(8.92933 0.192363 0)
(8.92685 0.18272 0)
(8.87391 0.289571 0)
(8.88608 0.274393 0)
(8.82589 0.387696 0)
(8.84593 0.351681 0)
(8.76337 0.477912 0)
(8.81015 0.43333 0)
(8.68726 0.560748 0)
(8.76775 0.516443 0)
(8.60315 0.650721 0)
(8.7275 0.597107 0)
(8.52328 0.740135 0)
(8.68186 0.682068 0)
(8.43855 0.843394 0)
(8.62364 0.758337 0)
(8.33293 0.940496 0)
(8.57043 0.847613 0)
(8.18861 1.05314 0)
(8.50532 0.94077 0)
(8.04185 1.19703 0)
(8.43147 1.04954 0)
(7.89111 1.34965 0)
(8.36662 1.16339 0)
(7.75863 1.51313 0)
(8.29224 1.29284 0)
(7.63721 1.68304 0)
(8.20871 1.44076 0)
(7.51495 1.85758 0)
(8.09573 1.60261 0)
(7.39005 2.04224 0)
(7.93775 1.79265 0)
(7.24329 2.24263 0)
(7.74841 2.02398 0)
(7.06204 2.47201 0)
(7.52785 2.29842 0)
(6.81895 2.75104 0)
(7.24707 2.65077 0)
(6.51156 3.15233 0)
(6.84689 3.12549 0)
(6.1392 3.82099 0)
(6.34215 3.85889 0)
(5.45647 4.96355 0)
(6.42663 5.4924 0)
(4.10799 8.47193 0)
(5.34794 -0.0763278 0)
(5.26249 -0.04177 0)
(5.39182 -0.0426388 0)
(5.3259 -0.0564462 0)
(5.51282 -0.0837023 0)
(5.46434 -0.093021 0)
(5.65989 -0.10332 0)
(5.58893 -0.096225 0)
(5.7702 -0.0985092 0)
(5.67309 -0.0913313 0)
(5.85053 -0.0983083 0)
(5.74086 -0.0956377 0)
(5.92702 -0.106654 0)
(5.8135 -0.105441 0)
(6.01215 -0.117023 0)
(5.89597 -0.115156 0)
(6.10646 -0.126514 0)
(5.98638 -0.123478 0)
(6.20715 -0.135015 0)
(6.08281 -0.131418 0)
(6.31232 -0.144038 0)
(6.18236 -0.142005 0)
(6.41822 -0.157004 0)
(6.28082 -0.156539 0)
(6.52223 -0.173898 0)
(6.37708 -0.174585 0)
(6.62388 -0.192931 0)
(6.47133 -0.192708 0)
(6.72318 -0.210717 0)
(6.56439 -0.20906 0)
(6.8231 -0.227133 0)
(6.66011 -0.225069 0)
(6.92812 -0.244511 0)
(6.76084 -0.242533 0)
(7.03827 -0.262634 0)
(6.86409 -0.259543 0)
(7.15066 -0.279528 0)
(6.96823 -0.275492 0)
(7.26391 -0.296406 0)
(7.07358 -0.293075 0)
(7.37821 -0.317188 0)
(7.18202 -0.316223 0)
(7.49341 -0.345732 0)
(7.29248 -0.347806 0)
(7.6075 -0.381699 0)
(7.40023 -0.384358 0)
(7.71658 -0.419856 0)
(7.50118 -0.42103 0)
(7.81979 -0.455576 0)
(7.59402 -0.453627 0)
(7.91925 -0.485747 0)
(7.67994 -0.47955 0)
(8.01697 -0.509575 0)
(7.7625 -0.499907 0)
(8.11528 -0.529472 0)
(7.84598 -0.517566 0)
(8.21513 -0.548282 0)
(7.93446 -0.536629 0)
(8.3182 -0.570323 0)
(8.0302 -0.559823 0)
(8.4248 -0.597562 0)
(8.13248 -0.588719 0)
(8.53289 -0.631864 0)
(8.23898 -0.625806 0)
(8.63933 -0.674396 0)
(8.34516 -0.669936 0)
(8.73976 -0.720739 0)
(8.44307 -0.716208 0)
(8.83307 -0.768333 0)
(8.53168 -0.76247 0)
(8.92 -0.812076 0)
(8.61077 -0.800594 0)
(9.00295 -0.848242 0)
(8.68609 -0.831743 0)
(9.08528 -0.880311 0)
(8.76444 -0.85808 0)
(9.16877 -0.907564 0)
(8.84799 -0.880684 0)
(9.25578 -0.930967 0)
(8.93464 -0.901165 0)
(9.34761 -0.950642 0)
(9.02287 -0.915036 0)
(9.43887 -0.963688 0)
(9.11279 -0.92375 0)
(9.52192 -0.972294 0)
(9.20144 -0.931482 0)
(9.59782 -0.983857 0)
(9.28855 -0.942999 0)
(9.6635 -0.996357 0)
(9.36442 -0.955393 0)
(9.72199 -1.00945 0)
(9.43109 -0.966708 0)
(9.76945 -1.01985 0)
(9.47974 -0.973344 0)
(9.80007 -1.02381 0)
(9.51144 -0.972894 0)
(9.82098 -1.02262 0)
(9.53211 -0.969217 0)
(9.83774 -1.02066 0)
(9.55406 -0.969188 0)
(9.8628 -1.02668 0)
(9.57963 -0.971819 0)
(9.88901 -1.03191 0)
(9.59867 -0.968277 0)
(9.90865 -1.02492 0)
(9.61109 -0.953427 0)
(9.91466 -1.01145 0)
(9.6115 -0.935815 0)
(9.903 -0.999374 0)
(9.59495 -0.918448 0)
(9.87699 -0.98132 0)
(9.56225 -0.889926 0)
(9.8316 -0.953314 0)
(9.51605 -0.859271 0)
(9.77926 -0.926844 0)
(9.47493 -0.831179 0)
(9.73083 -0.899371 0)
(9.43847 -0.799717 0)
(9.68893 -0.867327 0)
(9.40151 -0.769193 0)
(9.6541 -0.838691 0)
(9.36925 -0.741318 0)
(9.62439 -0.814771 0)
(9.33505 -0.712155 0)
(9.59172 -0.789986 0)
(9.29392 -0.687124 0)
(9.55536 -0.768634 0)
(9.25231 -0.663141 0)
(9.51619 -0.735922 0)
(9.21782 -0.626511 0)
(9.47986 -0.694021 0)
(9.19131 -0.579365 0)
(9.44976 -0.64106 0)
(9.16612 -0.528059 0)
(9.42082 -0.588653 0)
(9.131 -0.476402 0)
(9.38503 -0.536209 0)
(9.0999 -0.423494 0)
(9.35415 -0.477635 0)
(9.08363 -0.367216 0)
(9.3285 -0.419559 0)
(9.06792 -0.309579 0)
(9.3016 -0.361647 0)
(9.05061 -0.249875 0)
(9.276 -0.299516 0)
(9.02287 -0.185756 0)
(9.24392 -0.22634 0)
(8.99347 -0.119729 0)
(9.20717 -0.154983 0)
(8.97039 -0.0470233 0)
(9.15759 -0.0753827 0)
(8.93554 0.0347269 0)
(9.10112 0.00819938 0)
(8.8983 0.123247 0)
(9.05708 0.0917291 0)
(8.85863 0.216263 0)
(9.01917 0.187856 0)
(8.81201 0.316585 0)
(8.99163 0.271806 0)
(8.77307 0.420977 0)
(8.96993 0.350162 0)
(8.71528 0.515176 0)
(8.95147 0.431929 0)
(8.6635 0.6047 0)
(8.92494 0.507352 0)
(8.61906 0.697994 0)
(8.89994 0.579893 0)
(8.56687 0.800069 0)
(8.85555 0.660784 0)
(8.4987 0.913338 0)
(8.82403 0.736935 0)
(8.40218 1.02635 0)
(8.78527 0.830648 0)
(8.28708 1.1574 0)
(8.72483 0.921072 0)
(8.15516 1.29528 0)
(8.68176 1.01853 0)
(8.02465 1.44203 0)
(8.65531 1.12804 0)
(7.90087 1.60322 0)
(8.62983 1.26758 0)
(7.79609 1.77555 0)
(8.58131 1.42757 0)
(7.70236 1.95452 0)
(8.49938 1.59944 0)
(7.60231 2.13758 0)
(8.40198 1.80241 0)
(7.47229 2.34246 0)
(8.27803 2.0373 0)
(7.33369 2.60465 0)
(8.11102 2.32186 0)
(7.19379 2.94593 0)
(7.87851 2.67038 0)
(7.02873 3.42537 0)
(7.61613 3.15641 0)
(6.74125 4.12624 0)
(7.60429 3.9539 0)
(6.08405 5.38067 0)
(8.5169 4.80914 0)
(6.53266 8.94573 0)
(8.03889 -0.0847942 0)
(7.90647 -0.0610993 0)
(8.04698 -0.0722745 0)
(7.93065 -0.084815 0)
(8.12569 -0.110371 0)
(8.02807 -0.115056 0)
(8.23189 -0.124457 0)
(8.10848 -0.114269 0)
(8.29688 -0.11701 0)
(8.14571 -0.107145 0)
(8.3324 -0.115657 0)
(8.17088 -0.111943 0)
(8.3694 -0.126389 0)
(8.20567 -0.125597 0)
(8.41877 -0.141733 0)
(8.25317 -0.140126 0)
(8.47867 -0.155455 0)
(8.30875 -0.15183 0)
(8.54319 -0.166359 0)
(8.36707 -0.161711 0)
(8.60868 -0.176925 0)
(8.42597 -0.172945 0)
(8.674 -0.190008 0)
(8.48439 -0.187169 0)
(8.73868 -0.206165 0)
(8.5422 -0.204122 0)
(8.80282 -0.224236 0)
(8.59912 -0.221879 0)
(8.86591 -0.242215 0)
(8.65378 -0.239024 0)
(8.92729 -0.259695 0)
(8.70622 -0.256212 0)
(8.988 -0.277979 0)
(8.75748 -0.274462 0)
(9.04847 -0.297174 0)
(8.80828 -0.292793 0)
(9.10897 -0.315994 0)
(8.86076 -0.31036 0)
(9.17053 -0.334832 0)
(8.91706 -0.328913 0)
(9.23427 -0.356523 0)
(8.97888 -0.352167 0)
(9.30147 -0.384237 0)
(9.04446 -0.382214 0)
(9.37053 -0.417913 0)
(9.10944 -0.416926 0)
(9.43767 -0.45381 0)
(9.16842 -0.451456 0)
(9.49956 -0.487379 0)
(9.21872 -0.481792 0)
(9.55567 -0.515848 0)
(9.26152 -0.506269 0)
(9.60722 -0.538969 0)
(9.29999 -0.525927 0)
(9.656 -0.559085 0)
(9.33946 -0.544124 0)
(9.70446 -0.57983 0)
(9.38466 -0.564962 0)
(9.75561 -0.604717 0)
(9.43666 -0.590498 0)
(9.80885 -0.633664 0)
(9.49197 -0.620401 0)
(9.86154 -0.666696 0)
(9.54579 -0.655719 0)
(9.91218 -0.70518 0)
(9.59487 -0.69598 0)
(9.96047 -0.748741 0)
(9.64112 -0.740418 0)
(10.0096 -0.795962 0)
(9.68611 -0.785741 0)
(10.0557 -0.839972 0)
(9.72794 -0.824452 0)
(10.1006 -0.876239 0)
(9.7682 -0.856909 0)
(10.1441 -0.908925 0)
(9.80728 -0.885132 0)
(10.1843 -0.937196 0)
(9.84587 -0.908323 0)
(10.2231 -0.960893 0)
(9.88715 -0.928471 0)
(10.2614 -0.979512 0)
(9.92851 -0.940988 0)
(10.2985 -0.991648 0)
(9.97176 -0.946786 0)
(10.3308 -0.997444 0)
(10.0147 -0.952108 0)
(10.3596 -1.0044 0)
(10.0501 -0.95831 0)
(10.3803 -1.01334 0)
(10.0784 -0.969245 0)
(10.3959 -1.02412 0)
(10.0969 -0.975667 0)
(10.3967 -1.02867 0)
(10.0978 -0.974645 0)
(10.3807 -1.02595 0)
(10.085 -0.969411 0)
(10.3509 -1.02217 0)
(10.0642 -0.965706 0)
(10.3269 -1.02466 0)
(10.0517 -0.969398 0)
(10.3086 -1.03288 0)
(10.0369 -0.971033 0)
(10.2829 -1.03627 0)
(10.0125 -0.964293 0)
(10.2508 -1.02515 0)
(9.98285 -0.946158 0)
(10.2111 -1.00811 0)
(9.94789 -0.92314 0)
(10.1638 -0.987445 0)
(9.8986 -0.895844 0)
(10.0967 -0.960622 0)
(9.83267 -0.860437 0)
(10.0189 -0.928819 0)
(9.77166 -0.830756 0)
(9.94856 -0.904259 0)
(9.71318 -0.802742 0)
(9.87394 -0.877701 0)
(9.64739 -0.771522 0)
(9.8044 -0.85101 0)
(9.58822 -0.742509 0)
(9.74943 -0.826631 0)
(9.53735 -0.71417 0)
(9.69797 -0.800535 0)
(9.48455 -0.684487 0)
(9.64468 -0.773784 0)
(9.43123 -0.657883 0)
(9.58533 -0.751216 0)
(9.3717 -0.632987 0)
(9.51754 -0.721575 0)
(9.31231 -0.596412 0)
(9.45363 -0.681429 0)
(9.25214 -0.549379 0)
(9.4066 -0.632694 0)
(9.19816 -0.499337 0)
(9.36287 -0.577282 0)
(9.14186 -0.444342 0)
(9.31386 -0.526633 0)
(9.09577 -0.398566 0)
(9.27015 -0.473997 0)
(9.05735 -0.344722 0)
(9.23314 -0.419965 0)
(9.02781 -0.284648 0)
(9.18829 -0.360365 0)
(8.99647 -0.222765 0)
(9.14969 -0.296697 0)
(8.96281 -0.15511 0)
(9.11916 -0.222321 0)
(8.92904 -0.0835352 0)
(9.08892 -0.152682 0)
(8.8977 -0.00830186 0)
(9.04727 -0.0751563 0)
(8.87867 0.0793466 0)
(9.00393 6.5256e-05 0)
(8.85028 0.164192 0)
(8.96911 0.083318 0)
(8.80829 0.264765 0)
(8.93599 0.171385 0)
(8.77051 0.364392 0)
(8.91305 0.252408 0)
(8.72937 0.467682 0)
(8.89648 0.340727 0)
(8.68911 0.562223 0)
(8.88587 0.414595 0)
(8.66772 0.65285 0)
(8.87448 0.483086 0)
(8.637 0.744799 0)
(8.86072 0.555882 0)
(8.59785 0.858316 0)
(8.84633 0.64189 0)
(8.53467 0.971877 0)
(8.85287 0.719673 0)
(8.44404 1.09923 0)
(8.84549 0.816484 0)
(8.32996 1.24651 0)
(8.84927 0.917278 0)
(8.19946 1.38818 0)
(8.8623 1.00876 0)
(8.08064 1.52871 0)
(8.86629 1.11159 0)
(7.97525 1.6806 0)
(8.85349 1.23761 0)
(7.89758 1.8563 0)
(8.82181 1.39224 0)
(7.82418 2.04788 0)
(8.78049 1.5687 0)
(7.73561 2.25244 0)
(8.72203 1.76578 0)
(7.65969 2.49394 0)
(8.61574 1.98388 0)
(7.60408 2.77398 0)
(8.48975 2.25665 0)
(7.54637 3.13447 0)
(8.40221 2.61526 0)
(7.42161 3.61203 0)
(8.50315 3.10899 0)
(7.117 4.35833 0)
(9.03881 3.63329 0)
(6.81739 5.90983 0)
(9.77787 3.71228 0)
(8.18197 8.22518 0)
(10.2957 -0.0967495 0)
(10.1383 -0.130502 0)
(10.2888 -0.164255 0)
(10.1443 -0.162675 0)
(10.3446 -0.169439 0)
(10.2167 -0.151227 0)
(10.4214 -0.14988 0)
(10.2665 -0.129747 0)
(10.456 -0.132566 0)
(10.2767 -0.118283 0)
(10.465 -0.129351 0)
(10.277 -0.122413 0)
(10.4757 -0.140585 0)
(10.2865 -0.137377 0)
(10.498 -0.157931 0)
(10.3074 -0.154028 0)
(10.5292 -0.173695 0)
(10.3345 -0.167333 0)
(10.564 -0.185733 0)
(10.3637 -0.177724 0)
(10.5997 -0.196285 0)
(10.3931 -0.188289 0)
(10.6349 -0.208477 0)
(10.4218 -0.201376 0)
(10.6689 -0.223543 0)
(10.4492 -0.217139 0)
(10.7011 -0.240652 0)
(10.4746 -0.234001 0)
(10.7309 -0.258044 0)
(10.4973 -0.250582 0)
(10.7576 -0.274964 0)
(10.5168 -0.266805 0)
(10.7813 -0.291966 0)
(10.5337 -0.283619 0)
(10.8027 -0.309964 0)
(10.5488 -0.301266 0)
(10.823 -0.32884 0)
(10.5643 -0.319931 0)
(10.8442 -0.349302 0)
(10.5822 -0.340835 0)
(10.8678 -0.372837 0)
(10.6032 -0.366175 0)
(10.8943 -0.40171 0)
(10.6254 -0.396911 0)
(10.9212 -0.435396 0)
(10.6459 -0.430837 0)
(10.9451 -0.470367 0)
(10.6617 -0.463638 0)
(10.9637 -0.502142 0)
(10.6722 -0.491456 0)
(10.9771 -0.528155 0)
(10.6787 -0.513317 0)
(10.9866 -0.548832 0)
(10.6838 -0.531005 0)
(10.9944 -0.567435 0)
(10.6915 -0.54894 0)
(11.0033 -0.588273 0)
(10.7029 -0.570337 0)
(11.0137 -0.613059 0)
(10.7148 -0.595445 0)
(11.0224 -0.641331 0)
(10.724 -0.624603 0)
(11.0277 -0.67364 0)
(10.7295 -0.658474 0)
(11.0291 -0.710562 0)
(10.7311 -0.698202 0)
(11.0301 -0.755322 0)
(10.7324 -0.745723 0)
(11.0328 -0.803872 0)
(10.7321 -0.791589 0)
(11.0339 -0.848514 0)
(10.7275 -0.831156 0)
(11.0318 -0.885043 0)
(10.7226 -0.863936 0)
(11.0266 -0.91608 0)
(10.7135 -0.890975 0)
(11.0164 -0.942066 0)
(10.7042 -0.913627 0)
(11.0059 -0.965578 0)
(10.7 -0.932803 0)
(10.9955 -0.982631 0)
(10.6978 -0.945961 0)
(10.9845 -0.993435 0)
(10.6944 -0.950705 0)
(10.9728 -0.998952 0)
(10.69 -0.954251 0)
(10.9569 -1.00225 0)
(10.6779 -0.959507 0)
(10.9389 -1.01162 0)
(10.6645 -0.967924 0)
(10.9123 -1.01736 0)
(10.6363 -0.965936 0)
(10.8677 -1.01338 0)
(10.5915 -0.956948 0)
(10.8097 -1.00535 0)
(10.5367 -0.946421 0)
(10.7414 -1.00185 0)
(10.4824 -0.947591 0)
(10.6828 -1.01053 0)
(10.4311 -0.952119 0)
(10.6202 -1.01542 0)
(10.3737 -0.951114 0)
(10.5527 -1.01814 0)
(10.3137 -0.943982 0)
(10.4857 -1.00719 0)
(10.2516 -0.925753 0)
(10.4139 -0.988955 0)
(10.1835 -0.898174 0)
(10.3329 -0.961006 0)
(10.103 -0.862109 0)
(10.2318 -0.92405 0)
(10.01 -0.824765 0)
(10.1339 -0.898209 0)
(9.93182 -0.800565 0)
(10.0415 -0.872615 0)
(9.84663 -0.767491 0)
(9.9413 -0.842667 0)
(9.7526 -0.73582 0)
(9.84072 -0.822337 0)
(9.66764 -0.70962 0)
(9.75593 -0.802912 0)
(9.59175 -0.682791 0)
(9.68395 -0.775983 0)
(9.51924 -0.656768 0)
(9.61701 -0.750086 0)
(9.4475 -0.632324 0)
(9.54047 -0.724038 0)
(9.36959 -0.601469 0)
(9.45471 -0.69096 0)
(9.28657 -0.564229 0)
(9.37107 -0.653021 0)
(9.20511 -0.521843 0)
(9.30047 -0.609821 0)
(9.13262 -0.471638 0)
(9.23558 -0.557073 0)
(9.06149 -0.418605 0)
(9.17422 -0.508939 0)
(8.99633 -0.375109 0)
(9.11398 -0.460968 0)
(8.93753 -0.322618 0)
(9.06571 -0.409481 0)
(8.88227 -0.258439 0)
(9.01436 -0.346977 0)
(8.834 -0.197051 0)
(8.97746 -0.290038 0)
(8.79504 -0.12859 0)
(8.94867 -0.219898 0)
(8.75898 -0.0577196 0)
(8.92747 -0.15424 0)
(8.72649 0.0178763 0)
(8.90363 -0.0857136 0)
(8.70068 0.105143 0)
(8.89467 -0.0052687 0)
(8.65614 0.193912 0)
(8.88347 0.0805211 0)
(8.61525 0.301273 0)
(8.85744 0.164942 0)
(8.58629 0.405693 0)
(8.8408 0.251047 0)
(8.54197 0.493907 0)
(8.83314 0.323434 0)
(8.52356 0.58822 0)
(8.84203 0.385273 0)
(8.48977 0.678627 0)
(8.88187 0.459696 0)
(8.43845 0.777962 0)
(8.90477 0.531736 0)
(8.38096 0.902694 0)
(8.93657 0.614323 0)
(8.32699 1.02385 0)
(8.96753 0.692608 0)
(8.25436 1.16788 0)
(8.99378 0.783073 0)
(8.16007 1.3126 0)
(9.02932 0.868631 0)
(8.08672 1.44743 0)
(9.04387 0.96318 0)
(8.03619 1.59077 0)
(9.02914 1.07234 0)
(7.99907 1.75021 0)
(9.00132 1.19571 0)
(7.96761 1.93895 0)
(8.98065 1.34198 0)
(7.94099 2.13991 0)
(8.96882 1.50889 0)
(7.92358 2.35949 0)
(8.93863 1.69111 0)
(7.91857 2.60781 0)
(8.92416 1.91943 0)
(7.88018 2.9003 0)
(8.96019 2.18783 0)
(7.80082 3.27682 0)
(9.12237 2.50565 0)
(7.63984 3.80737 0)
(9.51143 2.81094 0)
(7.47375 4.71656 0)
(10.1197 2.93896 0)
(7.79235 6.15277 0)
(10.3831 3.13644 0)
(9.18424 7.21886 0)
(11.7937 -0.0828268 0)
(11.6673 -0.153152 0)
(11.8349 -0.208655 0)
(11.7297 -0.201123 0)
(11.9062 -0.200576 0)
(11.7899 -0.165303 0)
(11.9552 -0.159285 0)
(11.8112 -0.130806 0)
(11.9625 -0.137394 0)
(11.8 -0.119935 0)
(11.95 -0.137178 0)
(11.7817 -0.127248 0)
(11.94 -0.150867 0)
(11.7728 -0.143742 0)
(11.9419 -0.169083 0)
(11.7753 -0.160972 0)
(11.953 -0.185359 0)
(11.7842 -0.174782 0)
(11.9679 -0.197858 0)
(11.7947 -0.185487 0)
(11.9829 -0.208568 0)
(11.804 -0.195884 0)
(11.9958 -0.220382 0)
(11.8107 -0.208284 0)
(12.0056 -0.23461 0)
(11.8144 -0.222983 0)
(12.0124 -0.25068 0)
(11.8152 -0.238701 0)
(12.0164 -0.267118 0)
(11.8142 -0.254125 0)
(12.0185 -0.282877 0)
(11.8121 -0.268841 0)
(12.019 -0.298364 0)
(11.8096 -0.283818 0)
(12.0184 -0.314632 0)
(11.807 -0.300013 0)
(12.0173 -0.332612 0)
(11.8046 -0.318494 0)
(12.0163 -0.35324 0)
(11.8023 -0.340325 0)
(12.0153 -0.377671 0)
(11.7993 -0.366554 0)
(12.0137 -0.406728 0)
(11.7939 -0.396944 0)
(12.0099 -0.439436 0)
(11.7847 -0.429418 0)
(12.0018 -0.47263 0)
(11.771 -0.460526 0)
(11.9882 -0.50271 0)
(11.7531 -0.486993 0)
(11.9692 -0.527455 0)
(11.7324 -0.507918 0)
(11.9471 -0.547757 0)
(11.7126 -0.526102 0)
(11.9254 -0.567237 0)
(11.6959 -0.545202 0)
(11.9051 -0.588148 0)
(11.6795 -0.566293 0)
(11.8838 -0.61111 0)
(11.6597 -0.590349 0)
(11.8608 -0.6378 0)
(11.6352 -0.618328 0)
(11.8354 -0.668201 0)
(11.6056 -0.649959 0)
(11.8081 -0.703745 0)
(11.5745 -0.689084 0)
(11.7813 -0.747996 0)
(11.5413 -0.734971 0)
(11.7489 -0.794888 0)
(11.5024 -0.778827 0)
(11.7102 -0.837108 0)
(11.4581 -0.81663 0)
(11.6663 -0.873083 0)
(11.4127 -0.848076 0)
(11.6167 -0.901959 0)
(11.3628 -0.873572 0)
(11.562 -0.927436 0)
(11.3144 -0.897747 0)
(11.5105 -0.952287 0)
(11.2703 -0.918497 0)
(11.4615 -0.970626 0)
(11.2273 -0.932381 0)
(11.4114 -0.979198 0)
(11.1826 -0.937549 0)
(11.3639 -0.984751 0)
(11.1336 -0.93992 0)
(11.3141 -0.988094 0)
(11.0849 -0.946592 0)
(11.2646 -0.997569 0)
(11.0324 -0.947944 0)
(11.2015 -0.994235 0)
(10.9623 -0.937564 0)
(11.125 -0.985099 0)
(10.8816 -0.924222 0)
(11.0398 -0.975563 0)
(10.7997 -0.913424 0)
(10.9535 -0.976097 0)
(10.7245 -0.916113 0)
(10.8652 -0.983619 0)
(10.642 -0.917791 0)
(10.7727 -0.986415 0)
(10.5615 -0.917338 0)
(10.6825 -0.988567 0)
(10.4781 -0.909843 0)
(10.5888 -0.975239 0)
(10.3884 -0.889565 0)
(10.4862 -0.953354 0)
(10.2902 -0.858123 0)
(10.3711 -0.92028 0)
(10.182 -0.81394 0)
(10.2441 -0.87824 0)
(10.0779 -0.781939 0)
(10.129 -0.859744 0)
(9.97351 -0.756053 0)
(10.0073 -0.829009 0)
(9.86154 -0.716051 0)
(9.88317 -0.795807 0)
(9.74501 -0.682728 0)
(9.76384 -0.778718 0)
(9.6342 -0.661821 0)
(9.65592 -0.765536 0)
(9.52846 -0.641886 0)
(9.56617 -0.743928 0)
(9.43354 -0.619259 0)
(9.48104 -0.719189 0)
(9.34073 -0.591845 0)
(9.38628 -0.690617 0)
(9.24484 -0.556466 0)
(9.28703 -0.655924 0)
(9.14518 -0.517715 0)
(9.18991 -0.620205 0)
(9.04902 -0.481051 0)
(9.09685 -0.579313 0)
(8.96283 -0.431417 0)
(9.01141 -0.531221 0)
(8.88452 -0.380645 0)
(8.93716 -0.483076 0)
(8.79987 -0.335201 0)
(8.86357 -0.439308 0)
(8.72006 -0.284489 0)
(8.80102 -0.388283 0)
(8.64204 -0.223199 0)
(8.75057 -0.333691 0)